/*--------------------------------*- C++ -*----------------------------------*\
| =========                 |                                                 |
| \\      /  F ield         | OpenFOAM: The Open Source CFD Toolbox           |
|  \\    /   O peration     | Version:  v2012                                 |
|   \\  /    A nd           | Website:  www.openfoam.com                      |
|    \\/     M anipulation  |                                                 |
\*---------------------------------------------------------------------------*/
FoamFile
{
    version     2.0;
    format      ascii;
    class       volVectorField;
    location    "750";
    object      cellDisplacement;
}
// * * * * * * * * * * * * * * * * * * * * * * * * * * * * * * * * * * * * * //

dimensions      [0 1 0 0 0 0 0];


internalField   nonuniform List<vector> 
13917
(
(0 0.0799995 0)
(0 0.0726963 0)
(0 0.0799483 0)
(0 0.0710231 0)
(0 0.0616342 0)
(0 0.0723796 0)
(0 0.0773232 0)
(0 0.0748086 0)
(0 0.0773284 0)
(0 0.0799995 0)
(0 0.0747273 0)
(0 0.0653942 0)
(0 0.00217618 0)
(0 0.0760206 0)
(0 0.0694658 0)
(0 0.0799996 0)
(0 0.00166529 0)
(0 0.0748907 0)
(0 0.0798337 0)
(0 0.0799993 0)
(0 0.0757256 0)
(0 0.0560441 0)
(0 0.0792001 0)
(0 0.055539 0)
(0 0.0734079 0)
(0 0.0755694 0)
(0 0.0787042 0)
(0 0.0799996 0)
(0 0.0752511 0)
(0 0.00110676 0)
(0 0.0799996 0)
(0 0.0796653 0)
(0 0.0704683 0)
(0 0.0799991 0)
(0 0.0376069 0)
(0 0.0746799 0)
(0 0.0717881 0)
(0 0.00247603 0)
(0 0.0774269 0)
(0 0.0773813 0)
(0 0.000505908 0)
(0 0.025971 0)
(0 0.0762596 0)
(0 0.0798462 0)
(0 0.0798361 0)
(0 0.0796719 0)
(0 0.0756137 0)
(0 0.0799868 0)
(0 0.0730044 0)
(0 0.0380177 0)
(0 0.0647925 0)
(0 0.0796277 0)
(0 0.0799996 0)
(0 0.0618094 0)
(0 0.0634033 0)
(0 0.0796438 0)
(0 0.0799996 0)
(0 0.0791635 0)
(0 0.0253212 0)
(0 0.079653 0)
(0 0.0798773 0)
(0 0.0425158 0)
(0 0.000170996 0)
(0 0.0731421 0)
(0 0.0799855 0)
(0 0.00167953 0)
(0 0.0751403 0)
(0 0.0744606 0)
(0 0.074959 0)
(0 0.0799996 0)
(0 0.0799783 0)
(0 0.0799993 0)
(0 0.0654433 0)
(0 0.0250442 0)
(0 0.0759643 0)
(0 0.0733775 0)
(0 0.0611112 0)
(0 0.0243957 0)
(0 0.0731415 0)
(0 0.070857 0)
(0 0.0639953 0)
(0 0.00193966 0)
(0 0.0648345 0)
(0 0.0799845 0)
(0 0.0212273 0)
(0 0.0763006 0)
(0 0.0796409 0)
(0 0.0109273 0)
(0 0.0772248 0)
(0 0.00199067 0)
(0 0.00324048 0)
(0 0.0764451 0)
(0 0.0727591 0)
(0 0.032915 0)
(0 0.0664374 0)
(0 0.0753341 0)
(0 0.07819 0)
(0 0.00270751 0)
(0 0.0122969 0)
(0 0.0782137 0)
(0 0.000485894 0)
(0 0.000591321 0)
(0 0.06461 0)
(0 0.00494446 0)
(0 0.0605509 0)
(0 0.0799897 0)
(0 0.0799948 0)
(0 0.042101 0)
(0 0.0262358 0)
(0 0.0787268 0)
(0 0.0141386 0)
(0 0.0799989 0)
(0 0.0754468 0)
(0 0.0799877 0)
(0 0.0799849 0)
(0 0.0736276 0)
(0 0.0798184 0)
(0 0.0020413 0)
(0 0.0799277 0)
(0 0.0621448 0)
(0 0.00240884 0)
(0 0.0240864 0)
(0 0.0752193 0)
(0 0.0796935 0)
(0 0.0799996 0)
(0 0.0799867 0)
(0 0.0728596 0)
(0 0.0760716 0)
(0 0.0402056 0)
(0 0.0797131 0)
(0 0.0787229 0)
(0 0.0792679 0)
(0 0.079997 0)
(0 0.0734967 0)
(0 0.079749 0)
(0 0.078646 0)
(0 0.0798324 0)
(0 0.0799996 0)
(0 0.0755401 0)
(0 0.00133823 0)
(0 0.0658922 0)
(0 0.0240926 0)
(0 0.0799889 0)
(0 0.0460582 0)
(0 0.063287 0)
(0 0.0267685 0)
(0 0.0799788 0)
(0 0.0536771 0)
(0 0.0799904 0)
(0 0.0625906 0)
(0 0.0769621 0)
(0 0.000524531 0)
(0 0.0624988 0)
(0 0.0623368 0)
(0 0.0782277 0)
(0 0.0554588 0)
(0 0.00568011 0)
(0 0.0799976 0)
(0 0.000984184 0)
(0 0.00167227 0)
(0 0.0371487 0)
(0 0.0799668 0)
(0 0.0720585 0)
(0 0.065671 0)
(0 0.0799511 0)
(0 0.0782877 0)
(0 0.0799996 0)
(0 0.079957 0)
(0 0.000228572 0)
(0 0.0756333 0)
(0 0.0563212 0)
(0 0.0799968 0)
(0 0.0772792 0)
(0 0.0798588 0)
(0 0.0792205 0)
(0 0.000837424 0)
(0 0.0711017 0)
(0 0.0796369 0)
(0 0.0786477 0)
(0 0.0722717 0)
(0 0.0760617 0)
(0 0.0556946 0)
(0 0.0646731 0)
(0 0.0798148 0)
(0 0.0799298 0)
(0 0.0792353 0)
(0 0.0640946 0)
(0 0.0798052 0)
(0 0.00136816 0)
(0 0.0762356 0)
(0 0.0791927 0)
(0 0.0798179 0)
(0 0.0797847 0)
(0 0.0799995 0)
(0 0.0333382 0)
(0 0.0799996 0)
(0 0.076039 0)
(0 0.0799964 0)
(0 0.0368544 0)
(0 0.0550777 0)
(0 0.0753267 0)
(0 0.0799996 0)
(0 0.0799996 0)
(0 0.0702971 0)
(0 0.0789109 0)
(0 0.0740849 0)
(0 0.077123 0)
(0 0.0244535 0)
(0 0.079649 0)
(0 0.0638057 0)
(0 0.0317453 0)
(0 0.061924 0)
(0 0.0622006 0)
(0 0.0799883 0)
(0 0.0797336 0)
(0 0.075684 0)
(0 0.0799878 0)
(0 0.00629496 0)
(0 0.0136834 0)
(0 0.0134826 0)
(0 0.0799638 0)
(0 0.0797962 0)
(0 0.0798083 0)
(0 0.0271538 0)
(0 0.000115584 0)
(0 0.0786591 0)
(0 0.0799996 0)
(0 0.0124572 0)
(0 0.0119705 0)
(0 0.000468758 0)
(0 0.0139068 0)
(0 0.0136998 0)
(0 0.0799994 0)
(0 0.0799846 0)
(0 0.0597735 0)
(0 0.000487995 0)
(0 0.0794601 0)
(0 0.0799994 0)
(0 0.00131347 0)
(0 0.0252588 0)
(0 0.0788609 0)
(0 0.0799895 0)
(0 0.079811 0)
(0 0.0799898 0)
(0 0.0793869 0)
(0 0.046539 0)
(0 0.0799553 0)
(0 0.0795031 0)
(0 0.0753681 0)
(0 0.0796712 0)
(0 0.0700334 0)
(0 0.0799872 0)
(0 0.0628861 0)
(0 0.0782874 0)
(0 0.0791545 0)
(0 0.0600503 0)
(0 0.00022225 0)
(0 0.0731392 0)
(0 0.0588761 0)
(0 0.0343517 0)
(0 0.0799995 0)
(0 0.0742762 0)
(0 0.0258936 0)
(0 0.0117131 0)
(0 0.0561978 0)
(0 0.011979 0)
(0 0.062999 0)
(0 0.00405595 0)
(0 0.0785618 0)
(0 0.0263087 0)
(0 0.0799995 0)
(0 0.0799933 0)
(0 0.0589477 0)
(0 0.0589329 0)
(0 0.0796487 0)
(0 0.0108654 0)
(0 0.0781042 0)
(0 0.0799994 0)
(0 0.0110508 0)
(0 0.0799995 0)
(0 0.0335519 0)
(0 0.0799615 0)
(0 0.000663567 0)
(0 0.0684263 0)
(0 0.0605557 0)
(0 0.044583 0)
(0 0.0798628 0)
(0 0.00396909 0)
(0 0.0783257 0)
(0 0.0766163 0)
(0 0.0742156 0)
(0 0.0272678 0)
(0 0.0789268 0)
(0 0.0799996 0)
(0 0.001809 0)
(0 0.0792511 0)
(0 0.059944 0)
(0 0.0736216 0)
(0 0.061046 0)
(0 0.0731879 0)
(0 0.0330346 0)
(0 0.0048781 0)
(0 0.0795904 0)
(0 0.0522933 0)
(0 0.0782089 0)
(0 0.0729573 0)
(0 0.0234831 0)
(0 0.0799973 0)
(0 0.0799996 0)
(0 0.037716 0)
(0 0.00929172 0)
(0 0.0737504 0)
(0 0.0621339 0)
(0 0.0798997 0)
(0 0.0799955 0)
(0 0.0798594 0)
(0 0.00104439 0)
(0 0.0792487 0)
(0 0.0582545 0)
(0 0.0799822 0)
(0 0.0625543 0)
(0 0.0799473 0)
(0 0.00357915 0)
(0 0.0690539 0)
(0 0.0787667 0)
(0 0.0564853 0)
(0 0.0728815 0)
(0 0.0798061 0)
(0 0.00147054 0)
(0 0.0799965 0)
(0 0.0170066 0)
(0 0.0792825 0)
(0 0.0105976 0)
(0 0.0799995 0)
(0 0.0209912 0)
(0 0.0781325 0)
(0 0.0743404 0)
(0 0.000774272 0)
(0 0.00200001 0)
(0 0.0796863 0)
(0 0.079987 0)
(0 0.0661528 0)
(0 0.0561455 0)
(0 0.0799986 0)
(0 0.0799879 0)
(0 0.0798946 0)
(0 0.0758426 0)
(0 0.010744 0)
(0 0.060518 0)
(0 0.07999 0)
(0 0.0792859 0)
(0 0.0109947 0)
(0 0.0605758 0)
(0 0.0633805 0)
(0 0.076912 0)
(0 0.0782067 0)
(0 0.0797307 0)
(0 0.0791467 0)
(0 0.0780024 0)
(0 0.0792456 0)
(0 0.0799992 0)
(0 0.0411434 0)
(0 0.0663469 0)
(0 0.0618704 0)
(0 0.0799072 0)
(0 0.00116716 0)
(0 0.0799995 0)
(0 0.0792207 0)
(0 0.0135696 0)
(0 0.0639931 0)
(0 0.0792539 0)
(0 0.00956566 0)
(0 0.0721976 0)
(0 0.0243174 0)
(0 0.0798178 0)
(0 0.0796675 0)
(0 0.0744911 0)
(0 0.0597692 0)
(0 0.0799555 0)
(0 0.0107043 0)
(0 0.0799453 0)
(0 0.0798002 0)
(0 0.0240243 0)
(0 0.0724724 0)
(0 0.0613114 0)
(0 0.0121723 0)
(0 0.0247688 0)
(0 0.0799991 0)
(0 0.0120957 0)
(0 0.0718199 0)
(0 0.0787517 0)
(0 0.0778197 0)
(0 0.0692419 0)
(0 0.0799371 0)
(0 0.0799612 0)
(0 0.0713158 0)
(0 0.0798637 0)
(0 0.0603729 0)
(0 0.0777515 0)
(0 0.0799426 0)
(0 0.015077 0)
(0 0.0773498 0)
(0 0.0730626 0)
(0 0.0437659 0)
(0 0.0252306 0)
(0 0.0424689 0)
(0 0.0798351 0)
(0 0.0783722 0)
(0 0.0652484 0)
(0 0.0427172 0)
(0 0.054144 0)
(0 0.0791013 0)
(0 0.0737959 0)
(0 0.010584 0)
(0 0.00026162 0)
(0 0.079892 0)
(0 0.0791934 0)
(0 0.0457006 0)
(0 0.0715258 0)
(0 0.0798277 0)
(0 0.0778943 0)
(0 0.0016188 0)
(0 0.0798486 0)
(0 0.0799791 0)
(0 0.0169787 0)
(0 0.0105453 0)
(0 0.0749589 0)
(0 0.0237577 0)
(0 0.0107869 0)
(0 0.0602627 0)
(0 0.0107643 0)
(0 0.0165711 0)
(0 0.0799668 0)
(0 0.061109 0)
(0 0.0776748 0)
(0 0.0799995 0)
(0 0.0792038 0)
(0 0.0327885 0)
(0 0.0616938 0)
(0 0.0799426 0)
(0 0.0752251 0)
(0 0.0799996 0)
(0 0.0106218 0)
(0 0.04269 0)
(0 0.0110795 0)
(0 0.0140649 0)
(0 0.0714046 0)
(0 0.0613384 0)
(0 0.0798087 0)
(0 0.0244834 0)
(0 0.0799901 0)
(0 0.0422282 0)
(0 0.0788218 0)
(0 0.0253388 0)
(0 0.063106 0)
(0 0.0794053 0)
(0 0.0798854 0)
(0 0.0628683 0)
(0 0.0781225 0)
(0 0.034171 0)
(0 0.00960095 0)
(0 0.0532556 0)
(0 0.0616458 0)
(0 0.0296187 0)
(0 0.00801921 0)
(0 0.0799974 0)
(0 0.0798759 0)
(0 0.0285386 0)
(0 0.0789973 0)
(0 0.0798863 0)
(0 0.00879117 0)
(0 0.0793094 0)
(0 0.0797484 0)
(0 0.0799566 0)
(0 0.0776975 0)
(0 0.0799893 0)
(0 0.0132746 0)
(0 0.0133425 0)
(0 0.0616757 0)
(0 0.00140748 0)
(0 0.0258063 0)
(0 0.0695558 0)
(0 0.0798862 0)
(0 0.00314882 0)
(0 0.0611855 0)
(0 0.0666421 0)
(0 0.077305 0)
(0 0.0761172 0)
(0 0.079914 0)
(0 0.0794315 0)
(0 0.0284192 0)
(0 0.0591554 0)
(0 0.0750972 0)
(0 0.0782418 0)
(0 0.0648602 0)
(0 0.076039 0)
(0 0.078673 0)
(0 0.0766632 0)
(0 0.079929 0)
(0 0.0193995 0)
(0 0.0783058 0)
(0 0.079659 0)
(0 0.0184455 0)
(0 0.0799987 0)
(0 0.00966647 0)
(0 0.0137904 0)
(0 0.0791604 0)
(0 0.0108373 0)
(0 0.00680603 0)
(0 0.0795517 0)
(0 0.0799979 0)
(0 0.0786945 0)
(0 0.0358276 0)
(0 0.0725471 0)
(0 0.0296156 0)
(0 0.0798491 0)
(0 0.0796002 0)
(0 0.0638491 0)
(0 0.0627105 0)
(0 0.0329169 0)
(0 0.0791065 0)
(0 0.0476773 0)
(0 0.0402793 0)
(0 0.00141118 0)
(0 0.0542962 0)
(0 0.0426598 0)
(0 0.0489307 0)
(0 0.0773247 0)
(0 0.00269251 0)
(0 0.0794368 0)
(0 0.016996 0)
(0 0.0552326 0)
(0 0.0728437 0)
(0 0.0799974 0)
(0 0.00774385 0)
(0 0.0755352 0)
(0 0.0347365 0)
(0 0.0787498 0)
(0 0.0794822 0)
(0 0.0764448 0)
(0 0.0792046 0)
(0 0.0783397 0)
(0 0.0719832 0)
(0 0.0750162 0)
(0 0.0799958 0)
(0 0.0799709 0)
(0 0.0799995 0)
(0 0.0352738 0)
(0 0.0520965 0)
(0 0.0286199 0)
(0 0.054078 0)
(0 0.0799871 0)
(0 0.011153 0)
(0 0.0626988 0)
(0 0.0760763 0)
(0 0.0799933 0)
(0 0.0781974 0)
(0 0.0762386 0)
(0 0.0799987 0)
(0 0.0283953 0)
(0 0.0796665 0)
(0 0.00329682 0)
(0 0.0340487 0)
(0 0.0799944 0)
(0 0.0106189 0)
(0 0.0799524 0)
(0 0.000222684 0)
(0 0.00640622 0)
(0 0.0529924 0)
(0 0.0799081 0)
(0 0.048724 0)
(0 0.0105619 0)
(0 0.0798523 0)
(0 0.0792609 0)
(0 0.0566758 0)
(0 0.0799764 0)
(0 0.079997 0)
(0 0.0799559 0)
(0 0.0073637 0)
(0 0.0799996 0)
(0 0.000532794 0)
(0 0.0798468 0)
(0 0.0537555 0)
(0 0.0343567 0)
(0 0.0101662 0)
(0 0.000523968 0)
(0 0.078601 0)
(0 0.0758569 0)
(0 0.0108319 0)
(0 0.00323534 0)
(0 0.00429656 0)
(0 0.0799727 0)
(0 0.0405677 0)
(0 0.0796057 0)
(0 0.060419 0)
(0 0.0100512 0)
(0 0.00122103 0)
(0 0.0796685 0)
(0 0.0799421 0)
(0 0.0799985 0)
(0 0.0796413 0)
(0 0.0773285 0)
(0 0.0799213 0)
(0 0.0799994 0)
(0 0.0254596 0)
(0 0.0798869 0)
(0 0.00422359 0)
(0 0.0798551 0)
(0 0.0541314 0)
(0 0.0799558 0)
(0 0.0414931 0)
(0 0.0496592 0)
(0 0.0639816 0)
(0 0.0562375 0)
(0 0.0786435 0)
(0 0.0799858 0)
(0 0.00291592 0)
(0 0.0784812 0)
(0 0.0396976 0)
(0 0.000363778 0)
(0 0.079999 0)
(0 0.0780768 0)
(0 0.0402279 0)
(0 0.0797503 0)
(0 0.0253699 0)
(0 0.0322977 0)
(0 0.000380617 0)
(0 0.0799987 0)
(0 0.0401613 0)
(0 0.0594745 0)
(0 0.0109187 0)
(0 0.0397819 0)
(0 0.0799004 0)
(0 0.000503519 0)
(0 0.079762 0)
(0 0.00207797 0)
(0 0.0208021 0)
(0 0.0798643 0)
(0 0.0796319 0)
(0 0.0631672 0)
(0 0.0799996 0)
(0 0.0799491 0)
(0 0.0730299 0)
(0 0.0796482 0)
(0 0.0273229 0)
(0 0.0696325 0)
(0 0.079998 0)
(0 0.0799618 0)
(0 0.0748255 0)
(0 0.071935 0)
(0 0.0500823 0)
(0 0.00245606 0)
(0 0.0436246 0)
(0 0.00101233 0)
(0 0.0795135 0)
(0 0.0751653 0)
(0 0.0799313 0)
(0 0.0787139 0)
(0 0.0735328 0)
(0 0.0796339 0)
(0 0.0527777 0)
(0 0.0781721 0)
(0 0.07979 0)
(0 0.0799995 0)
(0 0.0334115 0)
(0 0.0537842 0)
(0 0.000744019 0)
(0 0.0208318 0)
(0 0.0032518 0)
(0 0.00117481 0)
(0 0.0298101 0)
(0 0.00681369 0)
(0 0.0799996 0)
(0 0.0789382 0)
(0 0.00677846 0)
(0 0.0797866 0)
(0 0.00320047 0)
(0 0.0799942 0)
(0 0.0331719 0)
(0 0.0399216 0)
(0 0.0799983 0)
(0 0.0794489 0)
(0 0.0221462 0)
(0 0.0666346 0)
(0 0.00954445 0)
(0 0.0378281 0)
(0 0.0707115 0)
(0 0.0778301 0)
(0 0.04387 0)
(0 0.0799996 0)
(0 0.0770402 0)
(0 0.049654 0)
(0 0.0218185 0)
(0 0.0533225 0)
(0 0.0799969 0)
(0 0.0725798 0)
(0 0.00400688 0)
(0 0.0401418 0)
(0 0.0799994 0)
(0 0.0787659 0)
(0 0.0761896 0)
(0 0.0799996 0)
(0 0.0613819 0)
(0 0.0222461 0)
(0 0.0386821 0)
(0 0.0712695 0)
(0 0.0799884 0)
(0 0.0223644 0)
(0 0.0786354 0)
(0 0.0703497 0)
(0 0.0755693 0)
(0 0.0798646 0)
(0 0.0580276 0)
(0 0.0797353 0)
(0 0.0789569 0)
(0 0.0658124 0)
(0 0.0709593 0)
(0 0.00403887 0)
(0 0.0777445 0)
(0 0.0586939 0)
(0 0.0799653 0)
(0 0.0737217 0)
(0 0.0325858 0)
(0 0.0799996 0)
(0 0.00185505 0)
(0 0.0618515 0)
(0 0.0716937 0)
(0 0.0723592 0)
(0 0.0763031 0)
(0 0.0799581 0)
(0 0.00234259 0)
(0 0.0796291 0)
(0 0.0799405 0)
(0 0.000993606 0)
(0 0.0550603 0)
(0 0.0738492 0)
(0 0.0050173 0)
(0 0.0476379 0)
(0 0.0633222 0)
(0 0.0662301 0)
(0 0.0249586 0)
(0 0.0796463 0)
(0 0.0797592 0)
(0 0.0261216 0)
(0 0.07997 0)
(0 0.0772415 0)
(0 0.0773596 0)
(0 0.0797737 0)
(0 0.0610372 0)
(0 0.0796619 0)
(0 0.078283 0)
(0 0.00885064 0)
(0 0.0794537 0)
(0 0.0792458 0)
(0 0.0789064 0)
(0 0.0389368 0)
(0 0.0308311 0)
(0 0.0431599 0)
(0 0.0799996 0)
(0 0.0700285 0)
(0 0.0332038 0)
(0 0.0792416 0)
(0 0.0449614 0)
(0 0.0346876 0)
(0 0.0796342 0)
(0 0.0782395 0)
(0 0.0658824 0)
(0 0.0780115 0)
(0 0.0768153 0)
(0 0.0799904 0)
(0 0.0634739 0)
(0 0.0614773 0)
(0 0.0799343 0)
(0 0.0339574 0)
(0 0.0428893 0)
(0 0.00196526 0)
(0 0.0033559 0)
(0 0.0660903 0)
(0 0.0738036 0)
(0 0.0766139 0)
(0 0.0383401 0)
(0 0.00906265 0)
(0 0.0519551 0)
(0 0.0542173 0)
(0 0.0718906 0)
(0 0.0776652 0)
(0 0.0108151 0)
(0 0.0796805 0)
(0 0.0688782 0)
(0 0.0799423 0)
(0 0.066284 0)
(0 0.00145145 0)
(0 0.0799965 0)
(0 0.0711182 0)
(0 0.0799995 0)
(0 0.0756161 0)
(0 0.0668351 0)
(0 0.0582103 0)
(0 0.0328586 0)
(0 0.0540065 0)
(0 0.079996 0)
(0 0.0776439 0)
(0 0.0732861 0)
(0 0.0777779 0)
(0 0.0464063 0)
(0 0.0789301 0)
(0 0.000353718 0)
(0 0.0406531 0)
(0 0.0461427 0)
(0 0.000490467 0)
(0 0.0799606 0)
(0 0.0757266 0)
(0 0.0671974 0)
(0 0.0798014 0)
(0 0.060295 0)
(0 0.0153203 0)
(0 0.00406575 0)
(0 0.0791826 0)
(0 0.0271948 0)
(0 0.0609386 0)
(0 0.0711012 0)
(0 0.0509061 0)
(0 0.0792582 0)
(0 0.0146984 0)
(0 0.076713 0)
(0 0.0656506 0)
(0 0.0799995 0)
(0 0.0799995 0)
(0 0.0630169 0)
(0 0.0799906 0)
(0 0.0782213 0)
(0 0.0799996 0)
(0 0.061677 0)
(0 0.0198604 0)
(0 0.031297 0)
(0 0.0605635 0)
(0 0.0703905 0)
(0 0.0343379 0)
(0 0.0777515 0)
(0 0.045964 0)
(0 0.0740315 0)
(0 0.0616837 0)
(0 0.0799729 0)
(0 0.0695656 0)
(0 0.0786046 0)
(0 0.0789834 0)
(0 0.0354164 0)
(0 0.0774887 0)
(0 0.0711541 0)
(0 0.0355614 0)
(0 0.076722 0)
(0 0.0104753 0)
(0 0.0799969 0)
(0 0.0795475 0)
(0 0.00818548 0)
(0 0.0374424 0)
(0 0.0475291 0)
(0 0.0560123 0)
(0 0.0527573 0)
(0 0.0799362 0)
(0 0.0210465 0)
(0 0.0781625 0)
(0 0.0404168 0)
(0 0.0135406 0)
(0 0.0674076 0)
(0 0.0463219 0)
(0 0.0796526 0)
(0 0.0430729 0)
(0 0.0222166 0)
(0 0.0214038 0)
(0 0.079893 0)
(0 0.0702025 0)
(0 0.0796922 0)
(0 0.0267516 0)
(0 0.0781209 0)
(0 0.0102613 0)
(0 0.053131 0)
(0 0.0799994 0)
(0 0.00335206 0)
(0 0.0714066 0)
(0 0.0797723 0)
(0 0.0799995 0)
(0 0.0103791 0)
(0 0.0611766 0)
(0 0.0799414 0)
(0 0.0252679 0)
(0 0.0603145 0)
(0 0.0518276 0)
(0 0.0799765 0)
(0 0.0450551 0)
(0 0.0798656 0)
(0 0.0639222 0)
(0 0.0799985 0)
(0 0.0681828 0)
(0 0.0795616 0)
(0 0.0430561 0)
(0 0.00755171 0)
(0 0.012286 0)
(0 0.00600542 0)
(0 0.00160348 0)
(0 0.0799949 0)
(0 0.069831 0)
(0 0.027269 0)
(0 0.0629197 0)
(0 0.0249244 0)
(0 0.0309705 0)
(0 0.0795194 0)
(0 0.0709159 0)
(0 0.0799874 0)
(0 0.077581 0)
(0 0.0797444 0)
(0 0.0796154 0)
(0 0.075359 0)
(0 0.0799985 0)
(0 0.066687 0)
(0 0.0794878 0)
(0 0.0453967 0)
(0 0.0799995 0)
(0 0.0135868 0)
(0 0.067674 0)
(0 0.0105031 0)
(0 0.0345272 0)
(0 0.0641434 0)
(0 0.0103795 0)
(0 0.0198572 0)
(0 0.0272139 0)
(0 0.0528266 0)
(0 0.0773191 0)
(0 0.00829296 0)
(0 0.0694877 0)
(0 0.0796871 0)
(0 0.0799637 0)
(0 0.0799502 0)
(0 0.0797488 0)
(0 0.0564242 0)
(0 0.012575 0)
(0 0.0424739 0)
(0 0.0799352 0)
(0 0.0471508 0)
(0 0.0799996 0)
(0 0.0129752 0)
(0 0.0209733 0)
(0 0.0117456 0)
(0 0.0585595 0)
(0 0.0126046 0)
(0 0.0113117 0)
(0 0.0440408 0)
(0 0.0782563 0)
(0 0.0273867 0)
(0 0.0799986 0)
(0 0.0625141 0)
(0 0.0335326 0)
(0 0.0799953 0)
(0 0.0466153 0)
(0 0.0429159 0)
(0 0.0414473 0)
(0 0.0799984 0)
(0 0.0782703 0)
(0 0.00118913 0)
(0 0.0225677 0)
(0 0.0365824 0)
(0 0.0417899 0)
(0 0.0799742 0)
(0 0.0319562 0)
(0 0.0779849 0)
(0 0.0718417 0)
(0 0.0672983 0)
(0 0.0330559 0)
(0 0.0252869 0)
(0 0.0755341 0)
(0 0.060273 0)
(0 0.0717681 0)
(0 0.0799993 0)
(0 0.0448839 0)
(0 0.00449304 0)
(0 0.0606002 0)
(0 0.0490786 0)
(0 0.0297493 0)
(0 0.0798146 0)
(0 0.0789042 0)
(0 0.0749637 0)
(0 0.0799993 0)
(0 0.0799981 0)
(0 0.0597902 0)
(0 0.079831 0)
(0 0.0262242 0)
(0 0.0799994 0)
(0 0.0243616 0)
(0 0.0798204 0)
(0 0.0791542 0)
(0 0.0774446 0)
(0 0.0711238 0)
(0 0.0795973 0)
(0 0.0787221 0)
(0 0.0799836 0)
(0 0.00974087 0)
(0 0.0549091 0)
(0 0.010616 0)
(0 0.0460433 0)
(0 0.0789753 0)
(0 0.065028 0)
(0 0.0633084 0)
(0 0.0791651 0)
(0 0.0799995 0)
(0 0.0250497 0)
(0 0.0779576 0)
(0 0.0799995 0)
(0 0.000250517 0)
(0 0.0111715 0)
(0 0.0630772 0)
(0 0.0799885 0)
(0 0.0700371 0)
(0 0.000442462 0)
(0 0.0771699 0)
(0 0.060941 0)
(0 0.0405796 0)
(0 0.0659343 0)
(0 0.071123 0)
(0 0.0596728 0)
(0 0.0499955 0)
(0 0.0100213 0)
(0 0.0231741 0)
(0 0.0466819 0)
(0 0.0443793 0)
(0 0.0799995 0)
(0 0.0671604 0)
(0 0.0690836 0)
(0 0.0117808 0)
(0 0.0799994 0)
(0 0.0118574 0)
(0 0.00988991 0)
(0 0.0752217 0)
(0 0.0698218 0)
(0 0.0720868 0)
(0 0.0101364 0)
(0 0.0799375 0)
(0 0.0327715 0)
(0 0.0561934 0)
(0 0.0794204 0)
(0 0.0447863 0)
(0 0.000809839 0)
(0 0.0796463 0)
(0 0.0798751 0)
(0 0.0796202 0)
(0 0.0798098 0)
(0 0.0227753 0)
(0 0.0798008 0)
(0 0.0799979 0)
(0 0.00240845 0)
(0 0.07982 0)
(0 0.0115501 0)
(0 0.0790447 0)
(0 0.0794482 0)
(0 0.0460649 0)
(0 0.075857 0)
(0 0.0344273 0)
(0 0.0759148 0)
(0 0.0737725 0)
(0 0.0694155 0)
(0 0.0799407 0)
(0 0.0783038 0)
(0 0.0793027 0)
(0 0.0798724 0)
(0 0.00369734 0)
(0 0.0798503 0)
(0 0.0716113 0)
(0 0.0593678 0)
(0 0.0476589 0)
(0 0.0227617 0)
(0 0.00836034 0)
(0 0.0238005 0)
(0 0.0714015 0)
(0 0.079986 0)
(0 0.0286148 0)
(0 0.0696961 0)
(0 0.0758377 0)
(0 0.066873 0)
(0 0.0598068 0)
(0 0.0790815 0)
(0 0.0797119 0)
(0 0.0565579 0)
(0 0.0362282 0)
(0 0.0766644 0)
(0 0.01188 0)
(0 0.0722429 0)
(0 0.0799981 0)
(0 0.0672126 0)
(0 0.0460732 0)
(0 0.0785984 0)
(0 0.0335978 0)
(0 0.070028 0)
(0 0.0799975 0)
(0 0.0799995 0)
(0 0.0647575 0)
(0 0.0789693 0)
(0 0.0727278 0)
(0 0.0799996 0)
(0 0.0779502 0)
(0 0.0760199 0)
(0 0.0799744 0)
(0 0.0393478 0)
(0 0.0795206 0)
(0 0.0799627 0)
(0 0.0799346 0)
(0 0.0484855 0)
(0 0.0716329 0)
(0 0.0161085 0)
(0 0.0543844 0)
(0 0.00351267 0)
(0 0.0605715 0)
(0 0.0558854 0)
(0 0.0799664 0)
(0 0.00330826 0)
(0 0.0789147 0)
(0 0.0155599 0)
(0 0.0795906 0)
(0 0.0799514 0)
(0 0.0708243 0)
(0 0.0798397 0)
(0 0.0780139 0)
(0 0.0477967 0)
(0 0.079758 0)
(0 0.0709523 0)
(0 0.0701772 0)
(0 0.0484191 0)
(0 0.0799994 0)
(0 0.0796154 0)
(0 0.0799995 0)
(0 0.0755945 0)
(0 0.0799349 0)
(0 0.0792234 0)
(0 0.0097875 0)
(0 0.0634294 0)
(0 0.0783961 0)
(0 0.0101234 0)
(0 0.0472012 0)
(0 0.0795612 0)
(0 0.0485482 0)
(0 0.0739319 0)
(0 0.0757053 0)
(0 0.0708554 0)
(0 0.0702413 0)
(0 0.0794594 0)
(0 0.0795215 0)
(0 0.0385525 0)
(0 0.0794996 0)
(0 0.0676543 0)
(0 0.0607927 0)
(0 0.0411328 0)
(0 0.0263559 0)
(0 0.0799837 0)
(0 0.0799125 0)
(0 0.0305317 0)
(0 0.0785111 0)
(0 0.00905734 0)
(0 0.060758 0)
(0 0.0799996 0)
(0 0.0624434 0)
(0 0.0130939 0)
(0 0.0160505 0)
(0 0.0489256 0)
(0 0.00269653 0)
(0 0.0708773 0)
(0 0.0799844 0)
(0 0.0539229 0)
(0 0.0760264 0)
(0 0.0223848 0)
(0 0.00933651 0)
(0 0.0797309 0)
(0 0.0799858 0)
(0 0.0799251 0)
(0 0.0671777 0)
(0 0.00673304 0)
(0 0.0147266 0)
(0 0.068994 0)
(0 0.0797233 0)
(0 0.0799962 0)
(0 0.00847333 0)
(0 0.0790519 0)
(0 0.0749508 0)
(0 0.0793716 0)
(0 0.0756477 0)
(0 0.00877799 0)
(0 0.0734783 0)
(0 0.0798409 0)
(0 0.0340847 0)
(0 0.0777761 0)
(0 0.00907041 0)
(0 0.0270926 0)
(0 0.0662109 0)
(0 0.079998 0)
(0 0.0790437 0)
(0 0.0219798 0)
(0 0.0799585 0)
(0 0.0794917 0)
(0 0.038116 0)
(0 0.0796146 0)
(0 0.00426574 0)
(0 0.0176738 0)
(0 0.0798954 0)
(0 0.0501061 0)
(0 0.0339744 0)
(0 0.0644752 0)
(0 0.0797855 0)
(0 0.0766891 0)
(0 0.0704539 0)
(0 0.0142671 0)
(0 0.0423732 0)
(0 0.0315911 0)
(0 0.045406 0)
(0 0.0774501 0)
(0 0.0782106 0)
(0 0.0799995 0)
(0 0.0768634 0)
(0 0.0765553 0)
(0 0.0785281 0)
(0 0.0791626 0)
(0 0.0350173 0)
(0 0.0759923 0)
(0 0.0797851 0)
(0 0.0799574 0)
(0 0.0799922 0)
(0 0.0680058 0)
(0 0.0139732 0)
(0 0.0799995 0)
(0 0.0116626 0)
(0 0.0119269 0)
(0 0.0729582 0)
(0 0.0776341 0)
(0 0.0656896 0)
(0 0.0117524 0)
(0 0.0799678 0)
(0 0.0764547 0)
(0 0.0671027 0)
(0 0.0462511 0)
(0 0.0794801 0)
(0 0.0799625 0)
(0 0.0799994 0)
(0 0.0515046 0)
(0 0.0548649 0)
(0 0.0719213 0)
(0 0.00160968 0)
(0 0.0174452 0)
(0 0.0789905 0)
(0 0.0491149 0)
(0 0.0755099 0)
(0 0.078471 0)
(0 0.070054 0)
(0 0.0799848 0)
(0 0.0337076 0)
(0 0.0644063 0)
(0 0.070265 0)
(0 0.0133793 0)
(0 0.079956 0)
(0 0.035796 0)
(0 0.0305445 0)
(0 0.0792214 0)
(0 0.0795693 0)
(0 0.079428 0)
(0 0.0799478 0)
(0 0.0284619 0)
(0 0.0781136 0)
(0 0.0349382 0)
(0 0.0369062 0)
(0 0.0602347 0)
(0 0.0085797 0)
(0 0.0621225 0)
(0 0.0799505 0)
(0 0.0618383 0)
(0 0.0794243 0)
(0 0.0471246 0)
(0 0.026095 0)
(0 0.061741 0)
(0 0.00863046 0)
(0 0.0414776 0)
(0 0.0799994 0)
(0 0.00892753 0)
(0 0.0732911 0)
(0 0.0796609 0)
(0 0.00695694 0)
(0 0.0794133 0)
(0 0.0784813 0)
(0 0.0781833 0)
(0 0.05913 0)
(0 0.0412676 0)
(0 0.0331174 0)
(0 0.0269234 0)
(0 0.00800655 0)
(0 0.0724678 0)
(0 0.0315267 0)
(0 0.00533688 0)
(0 0.0374471 0)
(0 0.0137293 0)
(0 0.0755217 0)
(0 0.0449247 0)
(0 0.0799875 0)
(0 0.0789784 0)
(0 0.0260104 0)
(0 0.0249052 0)
(0 0.0218196 0)
(0 0.0789131 0)
(0 0.0235167 0)
(0 0.0785154 0)
(0 0.0433755 0)
(0 0.000195992 0)
(0 0.0264789 0)
(0 0.0793357 0)
(0 0.0674515 0)
(0 0.0799495 0)
(0 0.0155806 0)
(0 0.0085752 0)
(0 0.0747069 0)
(0 0.00787511 0)
(0 0.0228055 0)
(0 0.0799985 0)
(0 0.0583826 0)
(0 0.00529677 0)
(0 0.0790608 0)
(0 0.079598 0)
(0 0.0799996 0)
(0 0.0087649 0)
(0 0.0761249 0)
(0 0.0790916 0)
(0 0.0238942 0)
(0 0.0190582 0)
(0 0.0799557 0)
(0 0.0467662 0)
(0 0.000783717 0)
(0 0.0794681 0)
(0 0.0193394 0)
(0 0.0799977 0)
(0 0.00907283 0)
(0 0.039202 0)
(0 0.0539319 0)
(0 0.0196704 0)
(0 0.0799964 0)
(0 0.000854345 0)
(0 0.0144015 0)
(0 0.0797072 0)
(0 0.0300672 0)
(0 0.0336463 0)
(0 0.0096226 0)
(0 0.0181886 0)
(0 0.0792915 0)
(0 0.0648946 0)
(0 0.0584723 0)
(0 0.0175411 0)
(0 0.0788758 0)
(0 0.0597564 0)
(0 0.018689 0)
(0 0.0197924 0)
(0 0.0696121 0)
(0 0.023358 0)
(0 0.0757472 0)
(0 0.0530452 0)
(0 0.0320232 0)
(0 0.0655095 0)
(0 0.0122201 0)
(0 0.0686229 0)
(0 0.0588897 0)
(0 0.0754712 0)
(0 0.0217249 0)
(0 0.0796702 0)
(0 0.0546521 0)
(0 0.0734067 0)
(0 0.0293519 0)
(0 0.0616861 0)
(0 0.0442988 0)
(0 0.00966067 0)
(0 0.0768864 0)
(0 0.067688 0)
(0 0.0769642 0)
(0 0.0794703 0)
(0 0.0134086 0)
(0 0.0799979 0)
(0 0.0799894 0)
(0 0.0797061 0)
(0 0.079991 0)
(0 0.0554647 0)
(0 0.0580312 0)
(0 0.0784714 0)
(0 0.0797997 0)
(0 0.0140777 0)
(0 0.0799994 0)
(0 0.024936 0)
(0 0.0798845 0)
(0 0.0605042 0)
(0 0.0754323 0)
(0 0.0796446 0)
(0 0.0767114 0)
(0 0.0792231 0)
(0 0.00430071 0)
(0 0.0793378 0)
(0 0.0347487 0)
(0 0.0295398 0)
(0 0.0758708 0)
(0 0.0799973 0)
(0 0.0799988 0)
(0 0.0639222 0)
(0 0.0592428 0)
(0 0.0788204 0)
(0 0.00149913 0)
(0 0.0798204 0)
(0 0.00117842 0)
(0 0.0714058 0)
(0 0.0204916 0)
(0 0.00069861 0)
(0 0.0799994 0)
(0 0.0189591 0)
(0 0.0785919 0)
(0 0.0616468 0)
(0 0.0784412 0)
(0 0.079536 0)
(0 0.0597359 0)
(0 0.0303332 0)
(0 0.0799805 0)
(0 0.0356994 0)
(0 0.0475655 0)
(0 0.0701191 0)
(0 0.0248237 0)
(0 0.0798106 0)
(0 0.067954 0)
(0 0.077659 0)
(0 0.0799993 0)
(0 0.0457324 0)
(0 0.0768552 0)
(0 0.0648402 0)
(0 0.00088596 0)
(0 0.0789911 0)
(0 0.0299673 0)
(0 0.0282048 0)
(0 0.0775655 0)
(0 0.0011284 0)
(0 0.00438806 0)
(0 0.0760535 0)
(0 0.0582827 0)
(0 0.0798648 0)
(0 0.0698291 0)
(0 0.0268973 0)
(0 0.0387299 0)
(0 0.00750545 0)
(0 0.0226555 0)
(0 0.0448447 0)
(0 0.0797786 0)
(0 0.0623741 0)
(0 0.0502875 0)
(0 0.0326285 0)
(0 0.0375184 0)
(0 0.0616426 0)
(0 0.062979 0)
(0 0.0799875 0)
(0 0.00373514 0)
(0 0.0779568 0)
(0 0.0704048 0)
(0 0.0351455 0)
(0 0.0799616 0)
(0 0.0600114 0)
(0 0.00207166 0)
(0 0.0799995 0)
(0 0.0798023 0)
(0 0.0799983 0)
(0 0.0342569 0)
(0 0.0799929 0)
(0 0.0776524 0)
(0 0.0575427 0)
(0 0.0799993 0)
(0 0.0597934 0)
(0 0.067707 0)
(0 0.0799407 0)
(0 0.0674299 0)
(0 0.0744083 0)
(0 0.0799994 0)
(0 0.0733113 0)
(0 0.0795822 0)
(0 0.0608064 0)
(0 0.0799832 0)
(0 0.048281 0)
(0 0.0454029 0)
(0 0.0355286 0)
(0 0.0799995 0)
(0 0.0492283 0)
(0 0.0118576 0)
(0 0.0575152 0)
(0 0.0546746 0)
(0 0.0338037 0)
(0 0.0131333 0)
(0 0.0783417 0)
(0 0.0768731 0)
(0 0.0453237 0)
(0 0.0748032 0)
(0 0.0799957 0)
(0 0.0735549 0)
(0 0.0795501 0)
(0 0.0794045 0)
(0 0.0291696 0)
(0 0.0797411 0)
(0 0.07783 0)
(0 0.0697532 0)
(0 0.0799216 0)
(0 0.00787963 0)
(0 0.0797616 0)
(0 0.0799996 0)
(0 0.0344926 0)
(0 0.0799996 0)
(0 0.0268567 0)
(0 0.0799915 0)
(0 0.079789 0)
(0 0.0729731 0)
(0 0.0605327 0)
(0 0.0455074 0)
(0 0.0622423 0)
(0 0.0434379 0)
(0 0.0726328 0)
(0 0.0257281 0)
(0 0.0590505 0)
(0 0.0799874 0)
(0 0.0790943 0)
(0 0.0799673 0)
(0 0.0494633 0)
(0 0.0764381 0)
(0 0.0799976 0)
(0 0.0345483 0)
(0 0.0607427 0)
(0 0.0799828 0)
(0 0.0229411 0)
(0 0.0426429 0)
(0 0.0799395 0)
(0 0.0797939 0)
(0 0.0795108 0)
(0 0.0613004 0)
(0 0.0799507 0)
(0 0.0768932 0)
(0 0.066752 0)
(0 0.0799945 0)
(0 0.0799493 0)
(0 0.0481342 0)
(0 0.0190899 0)
(0 0.0795438 0)
(0 0.0788444 0)
(0 0.0791008 0)
(0 0.0569959 0)
(0 0.0773853 0)
(0 0.0789531 0)
(0 0.0779079 0)
(0 0.0619143 0)
(0 0.0258878 0)
(0 0.0754757 0)
(0 0.0799993 0)
(0 0.075466 0)
(0 0.0431175 0)
(0 0.0447501 0)
(0 0.0727654 0)
(0 0.0330565 0)
(0 0.0799975 0)
(0 0.0765214 0)
(0 0.0144053 0)
(0 0.079541 0)
(0 0.0263421 0)
(0 0.0186379 0)
(0 0.078393 0)
(0 0.0780052 0)
(0 0.0580269 0)
(0 0.0799956 0)
(0 0.0313554 0)
(0 0.0799967 0)
(0 0.0305208 0)
(0 0.0799992 0)
(0 0.0799583 0)
(0 0.0799414 0)
(0 0.00947453 0)
(0 0.0750389 0)
(0 0.073608 0)
(0 0.0769488 0)
(0 0.079398 0)
(0 0.079639 0)
(0 0.079987 0)
(0 0.0778003 0)
(0 0.000377775 0)
(0 0.0753204 0)
(0 0.0352735 0)
(0 0.0797832 0)
(0 0.0799996 0)
(0 0.000889215 0)
(0 0.0164329 0)
(0 0.0711159 0)
(0 0.0795345 0)
(0 0.0768221 0)
(0 0.0320342 0)
(0 0.078101 0)
(0 0.0794774 0)
(0 0.0259463 0)
(0 0.025878 0)
(0 0.0707178 0)
(0 0.0799965 0)
(0 0.0676175 0)
(0 0.0286841 0)
(0 0.0799881 0)
(0 0.077543 0)
(0 0.0704824 0)
(0 0.0799322 0)
(0 0.0410824 0)
(0 0.0755515 0)
(0 0.0799958 0)
(0 0.00178381 0)
(0 0.0776105 0)
(0 0.0786686 0)
(0 0.0795526 0)
(0 0.0797703 0)
(0 0.0799924 0)
(0 0.0600383 0)
(0 0.0720778 0)
(0 0.0776665 0)
(0 0.0194345 0)
(0 0.0798948 0)
(0 0.0794391 0)
(0 0.0791545 0)
(0 0.0798721 0)
(0 0.0788994 0)
(0 0.0609793 0)
(0 0.0796047 0)
(0 0.0799901 0)
(0 0.0755875 0)
(0 0.0796902 0)
(0 0.000111585 0)
(0 0.0660362 0)
(0 0.0599057 0)
(0 0.0320594 0)
(0 0.0799642 0)
(0 0.0776857 0)
(0 0.00854925 0)
(0 0.0732085 0)
(0 0.0799322 0)
(0 0.0397984 0)
(0 0.0490198 0)
(0 0.079986 0)
(0 0.000972108 0)
(0 0.0622762 0)
(0 7.31637e-05 0)
(0 0.0670792 0)
(0 0.0792816 0)
(0 0.048662 0)
(0 0.0799423 0)
(0 0.0779466 0)
(0 0.0793747 0)
(0 0.0705264 0)
(0 0.0790322 0)
(0 0.0663702 0)
(0 0.0714398 0)
(0 0.0752836 0)
(0 0.0579463 0)
(0 0.0676472 0)
(0 0.0080273 0)
(0 0.0305663 0)
(0 0.0799951 0)
(0 0.0798355 0)
(0 0.0745285 0)
(0 0.0799162 0)
(0 0.0503075 0)
(0 0.0626446 0)
(0 0.0737397 0)
(0 0.0260161 0)
(0 0.0269418 0)
(0 0.0783338 0)
(0 0.0759569 0)
(0 0.0799993 0)
(0 0.0793905 0)
(0 0.0798422 0)
(0 0.061182 0)
(0 0.0797528 0)
(0 0.0451872 0)
(0 0.0799713 0)
(0 0.0175141 0)
(0 0.0798761 0)
(0 0.0796249 0)
(0 0.00982876 0)
(0 0.0794925 0)
(0 0.0799995 0)
(0 0.075363 0)
(0 0.00784164 0)
(0 0.00184813 0)
(0 0.0751731 0)
(0 0.0798711 0)
(0 0.0237072 0)
(0 0.0666812 0)
(0 0.00466313 0)
(0 0.00235094 0)
(0 0.0799441 0)
(0 0.00797755 0)
(0 0.0758888 0)
(0 0.0218589 0)
(0 0.00339104 0)
(0 0.0799311 0)
(0 0.0782147 0)
(0 0.0641511 0)
(0 0.0797868 0)
(0 0.0724913 0)
(0 0.0799966 0)
(0 0.0712402 0)
(0 0.00521103 0)
(0 0.0650821 0)
(0 0.0799974 0)
(0 0.0577793 0)
(0 0.0795531 0)
(0 0.0630401 0)
(0 0.0799881 0)
(0 0.0445191 0)
(0 0.053858 0)
(0 0.0616948 0)
(0 0.0799529 0)
(0 0.0407301 0)
(0 0.0280287 0)
(0 0.0147654 0)
(0 0.0799185 0)
(0 0.0799989 0)
(0 0.0795236 0)
(0 0.0413961 0)
(0 0.067697 0)
(0 0.0286695 0)
(0 0.0799994 0)
(0 6.98386e-05 0)
(0 0.0799696 0)
(0 0.079545 0)
(0 0.0506664 0)
(0 0.0797101 0)
(0 0.0720183 0)
(0 0.0081714 0)
(0 0.0706912 0)
(0 0.0174725 0)
(0 0.0769385 0)
(0 0.0747202 0)
(0 0.0789504 0)
(0 0.0655199 0)
(0 0.0639029 0)
(0 0.0437374 0)
(0 0.0799978 0)
(0 0.0084119 0)
(0 0.00782489 0)
(0 0.0799919 0)
(0 0.0702885 0)
(0 0.0343976 0)
(0 0.075656 0)
(0 0.0389532 0)
(0 0.0335055 0)
(0 0.0527362 0)
(0 0.0754172 0)
(0 0.0768642 0)
(0 0.00719099 0)
(0 0.00643773 0)
(0 0.0775034 0)
(0 0.0658242 0)
(0 0.079572 0)
(0 0.0784499 0)
(0 0.00853939 0)
(0 0.0100334 0)
(0 0.00599599 0)
(0 0.0480396 0)
(0 0.0721765 0)
(0 0.0793646 0)
(0 0.0799994 0)
(0 0.079989 0)
(0 0.034294 0)
(0 0.0241036 0)
(0 0.0769784 0)
(0 0.0799722 0)
(0 0.0515763 0)
(0 0.0273884 0)
(0 0.0799929 0)
(0 0.0799858 0)
(0 0.00669627 0)
(0 0.0728936 0)
(0 0.0686224 0)
(0 0.0612331 0)
(0 0.0799949 0)
(0 0.0140861 0)
(0 0.0135415 0)
(0 0.0780879 0)
(0 0.0799508 0)
(0 0.0642118 0)
(0 0.0732462 0)
(0 0.0674647 0)
(0 0.0798806 0)
(0 0.07995 0)
(0 0.0156441 0)
(0 0.0799543 0)
(0 0.068258 0)
(0 0.0416833 0)
(0 0.0798726 0)
(0 0.0795267 0)
(0 0.077638 0)
(0 0.0712924 0)
(0 0.0757029 0)
(0 0.0681965 0)
(0 0.00666627 0)
(0 0.0725938 0)
(0 0.0648646 0)
(0 0.0746076 0)
(0 0.0769314 0)
(0 0.0323844 0)
(0 0.0756739 0)
(0 0.0799564 0)
(0 0.0795002 0)
(0 0.022708 0)
(0 0.079347 0)
(0 0.0797278 0)
(0 0.0780803 0)
(0 0.0324169 0)
(0 0.0608885 0)
(0 0.00832599 0)
(0 0.079981 0)
(0 0.0730135 0)
(0 0.044259 0)
(0 0.0797069 0)
(0 0.0796879 0)
(0 0.00731691 0)
(0 0.0799995 0)
(0 0.0753887 0)
(0 0.0591674 0)
(0 0.0796172 0)