/*--------------------------------*- C++ -*----------------------------------*\
| =========                 |                                                 |
| \\      /  F ield         | OpenFOAM: The Open Source CFD Toolbox           |
|  \\    /   O peration     | Version:  v2012                                 |
|   \\  /    A nd           | Website:  www.openfoam.com                      |
|    \\/     M anipulation  |                                                 |
\*---------------------------------------------------------------------------*/
FoamFile
{
    version     2.0;
    format      ascii;
    class       surfaceScalarField;
    location    "750";
    object      meshPhiCN_0;
}
// * * * * * * * * * * * * * * * * * * * * * * * * * * * * * * * * * * * * * //

dimensions      [0 3 -1 0 0 0 0];
oriented        oriented;


internalField   nonuniform List<scalar> 
20642
(
-6.31692e-06
-1.01626e-06
7.33326e-06
2.0965e-05
-3.58885e-05
1.48719e-05
4.00829e-06
6.23444e-06
-1.02433e-05
3.72102e-06
-2.76607e-05
2.37729e-05
3.00525e-05
-4.36127e-05
1.33802e-05
3.66832e-05
-1.57872e-05
-1.13935e-05
2.47665e-05
-1.34165e-05
4.30942e-05
-2.44874e-05
-1.86356e-05
1.09263e-05
1.03366e-05
-2.1307e-05
3.03534e-06
9.46833e-07
1.88236e-05
2.42371e-05
3.646e-05
-3.14296e-05
-5.33455e-06
-1.45876e-06
-1.17767e-06
2.46745e-05
-3.74298e-05
1.27478e-05
3.03691e-05
-4.04845e-05
9.99246e-06
-5.82705e-07
-5.73431e-06
-1.11896e-06
-8.7602e-07
1.32155e-06
-4.22003e-05
1.8587e-05
2.35785e-05
1.5101e-05
-1.0702e-05
-4.40087e-06
-7.64205e-06
4.20031e-06
3.44164e-06
2.98085e-05
-1.93565e-05
-1.04957e-05
7.12371e-06
2.4751e-05
-3.22856e-05
8.79265e-06
7.65255e-06
-1.6454e-05
-2.80493e-05
3.47225e-05
3.34286e-05
-1.7374e-05
-1.61551e-05
-3.17178e-05
1.25725e-05
1.91029e-05
-2.6084e-05
1.47055e-05
1.13753e-05
3.03534e-06
-3.75213e-05
1.37968e-05
2.3684e-05
-6.16189e-08
-1.32251e-06
1.34443e-06
2.66725e-06
7.59466e-07
1.89674e-05
-6.78007e-06
-1.21912e-05
-3.36549e-05
2.24759e-05
1.10013e-05
-7.3953e-06
3.73161e-06
3.66377e-06
-1.9423e-06
2.87595e-05
-2.73501e-05
3.25201e-06
-2.77632e-05
2.7498e-05
3.12684e-06
-3.07508e-05
9.45797e-07
-3.43529e-06
7.75045e-07
-2.27506e-05
1.13175e-05
1.87039e-05
-2.84077e-05
9.67215e-06
1.72886e-08
3.63627e-07
-8.8153e-07
1.94328e-05
-2.92878e-05
9.49779e-06
-3.03563e-05
3.57411e-06
2.67016e-05
6.45046e-06
5.09416e-06
-1.15461e-05
1.35909e-05
-7.14232e-06
-4.22317e-06
1.28519e-05
-8.63044e-06
2.66736e-05
3.07507e-06
-1.01213e-05
6.13939e-06
3.98196e-06
-1.76572e-05
-1.60026e-05
3.36521e-05
2.10716e-05
-2.34423e-05
3.27135e-06
3.28601e-05
5.24664e-06
-1.61852e-05
1.09351e-05
-2.01425e-06
6.80114e-06
-1.29122e-06
-3.19197e-05
3.74005e-05
-5.86763e-06
-3.97702e-05
3.01742e-05
9.23318e-06
1.36703e-05
-8.42619e-06
2.66725e-06
-8.45818e-06
1.72407e-05
3.00048e-05
-1.09506e-05
-1.50394e-05
1.0814e-05
1.64879e-05
-8.76547e-06
-7.72245e-06
-1.39055e-05
-2.07263e-05
3.44034e-05
1.68805e-07
1.28615e-08
-2.5984e-07
1.21915e-05
2.11223e-05
6.83225e-06
8.38284e-07
-7.67068e-06
-2.59462e-06
1.65282e-06
9.29411e-07
1.56479e-05
-3.68315e-05
2.11475e-05
2.61147e-05
-2.28851e-05
-2.34087e-05
7.01266e-06
-4.23606e-06
-2.7766e-06
2.05431e-06
6.39753e-06
-8.45212e-06
-5.38395e-06
-2.01131e-06
3.84763e-05
-3.28157e-05
-6.04678e-06
2.23207e-05
7.2527e-06
-3.03521e-05
1.0955e-05
4.03455e-05
-2.04968e-05
-1.99566e-05
2.70282e-05
-4.07606e-05
1.35423e-05
3.02251e-05
-8.34839e-06
1.58162e-05
2.43992e-05
-2.0984e-05
-1.27926e-05
-2.64275e-05
-1.2661e-05
3.87783e-05
-1.25663e-06
-1.2621e-06
1.61654e-06
5.19461e-06
3.28412e-05
-1.05149e-05
6.30456e-06
4.21019e-06
1.79652e-05
-1.6141e-05
-3.40481e-06
3.78505e-05
-1.59202e-05
-2.1949e-05
1.03693e-05
8.59329e-06
-5.32693e-06
-4.1349e-06
7.49178e-06
2.70117e-05
-8.34196e-06
7.17777e-07
-2.42117e-06
8.05671e-07
2.5799e-06
-3.99236e-06
-2.16523e-05
2.17333e-05
-3.93996e-05
3.13081e-06
-2.93236e-05
2.56315e-05
6.57356e-06
2.8381e-05
-3.52069e-05
-2.19105e-05
-3.4381e-05
1.85132e-05
1.58606e-05
-1.79797e-06
-1.32153e-06
2.00314e-06
-1.01702e-05
3.29097e-06
-1.75176e-05
2.87274e-05
-1.12213e-05
-4.85129e-07
-3.45554e-07
5.54646e-07
1.37117e-07
-8.22713e-07
-3.68391e-05
1.01503e-05
-4.08358e-06
-5.92937e-07
3.68959e-06
4.31597e-05
-1.63839e-05
7.52042e-06
7.47904e-07
-8.26845e-06
6.3822e-06
1.21863e-06
-7.60137e-06
2.61459e-05
-4.03145e-05
-9.02572e-06
-2.06085e-05
-1.23553e-05
-1.37321e-05
4.79785e-06
-1.34082e-05
7.97433e-06
-4.24263e-06
3.55223e-05
-2.17628e-05
-2.14238e-06
8.97448e-06
-2.16413e-06
-2.07287e-05
2.2806e-05
8.61276e-06
6.48607e-06
2.27638e-06
-2.77511e-06
-3.97734e-08
-6.85787e-06
-5.03812e-06
1.18952e-05
-8.0392e-06
-2.33871e-05
3.10029e-05
-3.35651e-06
1.24156e-06
-2.9482e-05
1.07192e-05
1.82888e-05
-1.45747e-05
-2.22924e-05
-8.8092e-06
-5.74072e-06
1.45467e-05
-4.47626e-06
7.21523e-06
-2.73897e-06
-4.62061e-06
-5.89434e-06
-2.9947e-05
1.02996e-05
1.95317e-05
-9.99368e-06
-2.03989e-05
-2.72829e-05
-6.35938e-06
3.30409e-05
5.44044e-06
-1.42522e-05
2.17811e-05
-6.39549e-06
-1.54028e-05
-6.73377e-06
1.6686e-05
-9.95531e-06
8.38016e-06
-5.32069e-06
-3.05951e-06
-2.52523e-05
2.29907e-05
1.53896e-05
-4.35506e-06
-1.10375e-05
-2.72338e-05
1.48748e-05
-1.61864e-05
8.4277e-06
7.7586e-06
-3.89354e-06
-2.75438e-06
6.64829e-06
-3.62247e-05
1.41408e-05
2.20388e-05
-8.53338e-07
-3.60885e-05
3.70492e-05
-9.66818e-07
1.05322e-05
1.92475e-05
-2.65816e-06
1.01784e-05
-7.05248e-06
2.84854e-05
-2.20369e-05
3.39776e-05
-3.09878e-05
-3.3954e-06
-2.50641e-05
-5.51936e-06
3.02898e-05
8.19385e-06
-6.13976e-06
4.50304e-05
2.01915e-06
4.58701e-06
-6.60618e-06
6.38059e-06
-3.87162e-05
-1.9939e-05
2.79173e-05
-8.01316e-06
4.92311e-07
1.5593e-07
-9.04828e-07
2.89542e-05
4.5898e-06
-1.32804e-05
-2.1107e-05
3.76313e-05
-3.06514e-05
-7.30464e-06
7.38525e-07
-5.76019e-06
5.19846e-06
2.02012e-06
-7.21865e-06
-6.24461e-07
-8.19818e-07
9.2438e-07
1.65584e-07
1.65606e-06
3.228e-05
-2.55922e-05
-7.81231e-06
3.67088e-06
5.71195e-06
-9.38326e-06
-4.1394e-05
1.49355e-05
2.63383e-05
7.12524e-07
-5.49376e-06
-6.11651e-06
1.16101e-05
-2.87072e-05
1.47938e-05
1.39063e-05
7.93823e-07
-6.11551e-06
1.23609e-05
-6.24539e-06
3.9242e-07
-3.87086e-07
-1.58409e-08
-1.33072e-05
-2.29599e-05
5.25412e-05
-3.07706e-05
-2.21892e-05
2.5706e-06
5.21729e-06
-7.78789e-06
2.66577e-05
1.73211e-05
-1.13543e-05
-5.96736e-06
-4.65372e-06
1.53423e-05
-1.06944e-05
5.33869e-07
-1.40567e-06
5.19203e-07
-2.20488e-05
2.56184e-05
7.55058e-06
-1.62093e-05
8.65569e-06
7.00478e-06
1.4755e-05
-2.31614e-05
-1.83371e-05
-2.6913e-05
2.90689e-05
-2.23521e-06
2.40177e-05
3.05327e-05
-2.75353e-05
-3.13225e-06
1.04516e-05
-7.32057e-06
3.86187e-06
-1.07205e-05
1.13766e-05
-1.8114e-05
3.19935e-05
-1.76418e-06
-1.33979e-05
1.0264e-05
-1.96491e-06
1.8627e-06
2.00808e-05
1.77508e-05
1.3613e-05
-1.82744e-05
7.6449e-06
5.944e-06
-1.50198e-05
7.09952e-06
7.91841e-06
-4.51542e-06
7.34483e-06
-2.82908e-06
-2.04505e-05
2.31542e-05
-3.32576e-06
7.16799e-06
-3.84222e-06
7.11392e-06
-2.50407e-05
1.7871e-05
5.03555e-06
3.34455e-06
-6.78886e-06
3.50275e-05
3.12491e-05
6.02152e-06
-1.29941e-05
-1.66491e-05
2.95864e-05
-5.62135e-06
-1.74806e-06
7.36941e-06
1.57773e-06
-5.47084e-06
3.65579e-05
-2.73323e-05
-9.3716e-06
-1.70457e-05
2.19147e-05
-4.8715e-06
-2.39718e-05
-8.39768e-06
3.2311e-05
7.04004e-06
-1.93882e-05
-8.63749e-06
2.76442e-05
-4.06138e-05
-2.32454e-05
2.78811e-05
-5.43393e-06
-4.63505e-05
2.02104e-05
2.60144e-05
-3.12461e-05
-1.52135e-05
8.15854e-06
1.20265e-05
3.3603e-06
-1.76137e-05
-3.95768e-06
-4.6699e-06
8.62727e-06
-1.55461e-06
4.55369e-06
-4.80367e-06
-9.179e-07
-1.17685e-05
1.22148e-05
-1.19911e-05
1.06248e-05
5.79483e-06
-1.61889e-05
8.46628e-06
7.72064e-06
5.91391e-06
-1.44111e-05
8.49574e-06
2.21902e-05
-2.09822e-05
-2.95765e-06
-3.22802e-08
1.41286e-07
-1.4111e-05
-1.31255e-05
3.47538e-06
1.64627e-05
-1.08204e-05
-6.13891e-06
9.58287e-06
6.34422e-06
-6.00934e-07
2.37749e-07
-6.35294e-07
-1.18015e-05
-1.25997e-05
1.15072e-05
-4.20868e-06
-1.17525e-06
-4.41016e-06
-4.76419e-06
9.17419e-06
-3.98333e-05
2.41349e-05
1.5385e-05
5.05127e-07
-7.85209e-07
2.35295e-07
-1.27257e-05
-6.86193e-06
1.95818e-05
3.23513e-06
-6.98926e-06
3.75415e-06
-2.06127e-06
7.15897e-07
8.23216e-07
9.46825e-07
1.93859e-05
8.55889e-06
-2.56071e-05
-5.3657e-06
-3.66281e-06
9.02838e-06
-5.73875e-06
4.19086e-06
-8.14874e-06
7.69976e-06
1.0453e-05
-1.81575e-05
1.81252e-05
-2.57136e-05
5.53637e-06
6.82442e-06
2.63234e-06
-1.53629e-05
1.33922e-05
2.2094e-05
1.73493e-05
-1.1845e-05
-5.50804e-06
2.64516e-05
9.95389e-06
3.74821e-06
-4.58382e-06
2.49129e-05
-2.06694e-05
2.46954e-05
-1.80886e-05
-6.62065e-06
-2.11728e-05
1.29153e-05
8.24867e-06
-4.48954e-05
1.78542e-05
2.66912e-05
-6.40077e-08
-1.78561e-05
-3.55741e-05
4.50824e-05
-9.73251e-06
2.29753e-05
7.89243e-06
-3.12965e-05
7.0311e-06
-2.77849e-06
-4.25259e-06
-3.2321e-05
7.58234e-06
2.4735e-05
-3.09437e-05
9.95167e-06
2.04812e-05
-1.7665e-06
1.08043e-05
7.87778e-06
-3.88458e-05
-1.13124e-05
9.01607e-06
-2.83519e-05
-5.28605e-06
1.19051e-06
2.13506e-05
-1.52256e-05
-6.1424e-06
-1.30023e-05
-1.84014e-05
-6.66867e-06
4.31227e-06
-2.76861e-06
9.15025e-06
-4.39443e-05
1.43832e-05
2.89911e-05
3.17133e-05
-4.49652e-05
1.30199e-05
6.73359e-06
9.3765e-06
-1.6112e-05
1.66419e-06
-1.15585e-05
9.50351e-06
9.50789e-06
-2.27537e-05
1.32353e-05
4.12579e-06
2.90533e-06
1.10994e-05
-9.81533e-06
3.46726e-06
3.54541e-06
-8.28992e-06
3.08223e-05
1.01917e-05
-6.52135e-06
-5.11562e-07
6.68196e-07
-2.76465e-05
-1.01798e-05
3.76888e-05
-2.7155e-05
-1.79991e-05
-2.90751e-05
-6.43367e-06
3.47734e-05
-9.07881e-06
1.21632e-05
-3.08566e-06
-2.47442e-06
-1.69927e-06
2.70089e-06
-1.49856e-05
-1.37283e-05
7.60831e-06
-2.38088e-05
1.61617e-05
3.06067e-07
-2.5622e-05
-1.17706e-05
-1.09364e-05
2.27029e-05
-2.77385e-06
-1.34402e-06
-1.17811e-06
1.17783e-05
-2.01288e-05
8.34097e-06
-3.94034e-05
-3.19499e-06
4.23638e-05
4.99985e-06
-2.68084e-05
2.17169e-05
-1.05548e-05
4.04072e-05
3.47505e-05
-1.90366e-05
7.63744e-06
-3.07043e-05
2.25619e-05
-6.05978e-06
2.09307e-06
9.97159e-06
-1.79807e-05
8.00536e-06
9.72701e-06
-3.72745e-05
2.73809e-05
1.32103e-05
1.14666e-05
9.43362e-06
2.52086e-05
-1.53583e-05
1.52357e-05
-1.38422e-06
-2.21808e-06
7.41648e-06
-4.35052e-07
-5.1863e-06
-2.53698e-05
-6.87588e-06
3.16291e-05
4.12078e-06
-1.36069e-05
9.33149e-06
-2.03377e-05
-3.16536e-05
-8.36333e-06
3.99481e-05
1.06078e-05
-1.10935e-05
4.84621e-07
8.94883e-06
-1.08935e-06
-7.86012e-06
4.76061e-06
1.25602e-05
1.19455e-06
6.2992e-07
-1.83633e-06
2.41204e-06
1.42695e-05
4.25328e-05
-1.10524e-05
1.00957e-05
-3.7913e-06
-3.83189e-05
6.6019e-06
-5.69088e-06
9.69872e-06
-4.18089e-06
8.89946e-07
3.65977e-05
-6.35416e-06
2.32617e-05
-5.53491e-06
3.44159e-05
-2.92209e-05
-4.13306e-06
-3.18061e-05
1.33271e-05
-5.68417e-06
-1.69435e-06
-4.90644e-07
1.48124e-06
6.72434e-06
-4.15374e-06
1.22228e-05
-1.1915e-05
-2.04166e-06
8.3817e-06
-1.69196e-05
3.23486e-06
1.05054e-05
-1.40392e-05
-5.57689e-06
-2.06403e-06
-1.38912e-05
-2.36589e-06
1.5322e-05
-2.33132e-05
1.09113e-05
1.23835e-05
-3.40761e-05
1.00512e-05
-1.39844e-07
1.32206e-06
-2.75079e-06
3.16775e-07
-7.76228e-06
-7.11092e-06
1.48699e-05
-7.55213e-06
1.00109e-05
-2.45893e-06
5.93357e-06
-3.11098e-05
2.49052e-05
-3.41915e-05
2.83194e-05
3.75891e-06
4.21553e-06
-8.62405e-06
-6.10597e-07
9.23451e-06
-2.36092e-06
1.00825e-05
-7.72213e-06
3.3192e-05
-8.52669e-06
-1.00692e-06
1.16385e-05
-3.90842e-05
2.43622e-05
1.44046e-05
-4.30049e-06
-4.3564e-06
8.65677e-06
1.4648e-05
-1.22398e-05
-1.31397e-05
1.16307e-05
-5.02122e-05
3.1825e-05
-2.52032e-05
-6.90498e-06
3.14907e-05
-1.88101e-05
-1.27058e-05
-1.0119e-05
-1.54794e-05
7.26961e-06
8.20727e-06
-2.19119e-05
1.26268e-05
9.27818e-06
2.23589e-05
-1.28636e-05
1.29977e-05
1.22165e-06
-1.42278e-05
4.02838e-06
-7.59518e-06
3.56695e-06
-3.29925e-05
5.1281e-06
-2.61186e-05
3.17801e-05
-2.60724e-05
-1.76533e-05
4.18487e-06
6.54014e-06
-1.0726e-05
-1.0509e-06
1.02097e-06
-5.49456e-07
-5.53164e-06
-5.13936e-06
1.8127e-05
-4.9449e-06
2.0423e-05
-1.76718e-05
-2.23994e-05
1.03643e-05
-2.06392e-05
1.02694e-05
-9.83297e-06
1.37994e-05
1.28298e-05
2.36689e-05
-3.6511e-05
-9.61119e-06
-1.66764e-05
2.59654e-05
-7.48532e-06
-8.30751e-06
-2.19377e-05
-1.21907e-05
-1.92215e-05
-2.52153e-05
4.09861e-06
5.78897e-06
-9.88806e-06
-1.10967e-05
-3.58452e-06
1.44153e-05
6.97045e-06
-1.24644e-05
-6.55519e-06
-2.56604e-05
1.57315e-05
3.45526e-05
1.6851e-06
-3.12752e-05
2.93312e-05
-1.75101e-05
1.24603e-05
4.97305e-06
-2.40198e-05
8.5628e-06
1.48312e-05
-2.38893e-06
6.58922e-06
-1.61527e-05
-1.44495e-06
4.01915e-05
-2.29503e-05
-1.73548e-05
-2.63814e-05
1.22683e-05
-1.32413e-05
-1.17983e-05
2.50261e-05
-3.87391e-05
1.22949e-05
2.62646e-05
7.55887e-06
-1.41175e-05
6.55815e-06
-1.18773e-05
6.66447e-06
2.26113e-05
-3.4761e-05
1.2015e-05
-1.32389e-05
4.15889e-06
-2.59125e-05
3.83778e-05
-1.28064e-05
1.37509e-05
-2.70067e-05
1.14165e-05
-5.18261e-06
6.36847e-07
-1.33398e-05
2.49355e-05
-1.16346e-05
2.99479e-05
-2.06018e-05
3.3155e-05
-2.54269e-05
-8.54721e-06
2.39813e-05
-1.42371e-05
-1.0813e-05
-3.15069e-05
-6.10874e-07
3.15227e-05
2.89722e-05
-1.41859e-05
1.11593e-05
-2.87093e-05
1.73216e-05
6.97299e-06
2.62902e-05
-3.37965e-05
2.96712e-05
8.42352e-06
-3.85936e-05
-1.37184e-05
2.146e-05
-7.75256e-06
1.16501e-06
-3.08352e-05
2.96443e-05
1.85698e-06
-1.19439e-05
9.74215e-06
4.81534e-08
2.94778e-07
-3.14767e-06
1.37542e-05
2.11789e-05
-1.08209e-05
-3.86923e-07
-2.93166e-05
1.3482e-05
2.65549e-05
7.46586e-06
6.22053e-06
-1.3687e-05
-1.75265e-05
-1.17741e-05
2.92963e-05
-1.93521e-06
-6.7893e-07
-1.20008e-05
1.29717e-06
5.94684e-06
4.14872e-06
2.32468e-05
-4.76842e-06
-1.88624e-05
-1.16581e-05
-1.25334e-07
1.13994e-05
3.14528e-05
-2.30301e-05
-8.48087e-06
1.27069e-05
1.01477e-05
-1.01408e-05
-2.22557e-05
-1.01636e-05
9.71438e-06
5.40863e-06
1.74553e-05
5.28802e-06
6.09313e-06
-1.13812e-05
-3.70385e-05
1.08065e-05
2.58974e-05
-1.26546e-05
-1.32654e-05
6.70654e-06
-2.39404e-06
1.72498e-05
-5.4809e-06
3.57849e-06
-2.75976e-05
-5.7061e-06
3.42148e-05
1.23866e-05
-4.8282e-06
2.16683e-05
-3.47269e-05
1.35705e-06
-5.8333e-06
2.39211e-06
-1.31317e-05
1.04182e-05
1.1068e-05
-2.50365e-05
1.31495e-05
3.73803e-06
-1.50987e-05
1.00356e-06
-1.40584e-05
-5.30409e-06
3.26732e-05
5.20139e-06
-3.35714e-05
2.81166e-05
1.50881e-05
-7.62301e-06
-2.24979e-05
-5.94436e-06
2.81937e-05
-8.02398e-06
2.51426e-05
-1.49382e-05
2.37379e-05
-1.02588e-05
-1.34951e-05
-2.15181e-05
-4.4722e-06
2.5763e-05
3.59273e-05
-8.55559e-06
-9.95859e-06
1.76538e-05
9.29126e-06
-1.16528e-05
2.64882e-05
5.0554e-06
1.09001e-05
1.50779e-05
-2.59797e-05
2.69527e-05
-2.66773e-05
-1.03569e-06
-2.44892e-07
-7.38078e-06
6.22102e-06
-7.49069e-06
3.67004e-05
-2.99574e-05
3.13816e-05
2.06568e-05
4.88347e-06
-2.63679e-05
4.63468e-06
8.44756e-07
-7.36109e-06
-7.53883e-06
5.13326e-06
-3.79605e-06
2.36326e-05
9.39912e-06
-2.11731e-05
1.24663e-05
-7.82305e-06
-4.64442e-06
5.93363e-06
-7.38375e-06
-6.8237e-07
1.19261e-05
-1.72579e-05
5.32315e-06
-3.51188e-06
1.32441e-05
-1.12557e-05
1.12182e-05
3.72435e-08
8.2571e-06
1.24887e-05
-2.07769e-05
-7.87627e-06
1.90388e-05
-1.53947e-05
-3.72707e-06
5.0303e-06
1.39396e-05
-2.63073e-05
2.2725e-06
-2.72765e-05
5.5367e-06
-1.24538e-05
-1.4545e-05
9.06555e-06
5.4785e-06
-2.68563e-06
2.93143e-06
2.81975e-05
8.82279e-06
-2.47547e-05
-1.37955e-05
-1.11094e-05
2.48642e-05
2.63377e-05
-6.62143e-06
-1.97542e-05
1.19065e-05
-9.67263e-06
-2.23473e-06
-8.18382e-06
1.62328e-05
-8.05484e-06
-3.41953e-05
2.17696e-05
1.21444e-05
-1.35551e-05
-3.16245e-05
3.77049e-05
-1.91458e-05
-2.7062e-05
1.29663e-05
1.40795e-05
2.62558e-05
-1.53204e-05
-1.4898e-05
-2.25329e-05
2.29728e-05
-7.27558e-06
-1.57125e-05
2.33575e-05
-1.57876e-05
-1.25177e-05
5.49814e-06
7.01934e-06
4.52387e-06
-1.45027e-05
-1.25734e-05
-7.86398e-06
-8.34781e-06
1.79995e-05
-1.10142e-05
-8.08426e-06
3.48199e-06
3.08179e-06
-6.56386e-06
-6.31704e-06
4.90373e-06
-1.15114e-05
1.20972e-05
-1.80073e-05
4.27968e-06
1.23672e-05
-1.0276e-05
3.57882e-06
-6.94412e-06
-8.14944e-06
1.81168e-05
-7.56541e-06
5.21326e-06
1.55228e-05
-2.56818e-05
1.01588e-05
2.23305e-05
8.81001e-06
-6.76229e-06
2.58967e-05
-1.92504e-05
-3.00605e-05
1.95233e-05
1.028e-05
-5.96615e-06
-8.10252e-06
1.40677e-05
-8.82667e-06
-8.30676e-06
1.7132e-05
3.39102e-05
-8.3529e-06
-2.58249e-05
3.61569e-05
-2.61614e-05
1.94613e-05
5.64404e-06
-2.25749e-05
1.22224e-05
1.03425e-05
-1.10422e-05
-2.71119e-05
3.81108e-05
7.04434e-06
2.52295e-05
-3.28191e-05
-2.44897e-06
7.66101e-07
-9.32513e-06
4.01993e-05
2.4501e-05
7.88927e-06
-3.02742e-05
-9.19733e-06
3.92315e-05
8.07774e-06
1.31565e-05
-2.1263e-05
-7.84496e-07
-1.54485e-05
7.25921e-06
9.13803e-06
7.70958e-06
2.93577e-05
-4.45168e-05
1.46692e-05
2.37577e-05
6.09366e-06
-7.78147e-06
2.94259e-06
4.8387e-06
6.14357e-06
-8.0096e-06
1.21112e-06
-1.09061e-05
-1.43363e-05
2.51765e-05
3.08885e-05
-2.34191e-05
1.34881e-05
1.02311e-05
-1.61026e-05
5.81362e-06
1.02836e-05
-2.02908e-05
2.6779e-05
-6.51252e-06
-5.8371e-06
1.14451e-05
2.94223e-05
-2.60858e-05
-3.47513e-06
2.30931e-05
8.1929e-06
-3.15739e-06
-5.57878e-06
1.08667e-05
4.10409e-06
2.60253e-06
-2.36165e-05
-7.29483e-06
3.02834e-05
-2.89083e-05
-8.10283e-06
3.65314e-05
-1.78023e-05
-1.66069e-05
-1.01204e-05
3.20804e-05
-2.25191e-05
-5.80004e-06
9.37617e-06
-3.57623e-06
-8.6866e-08
-1.1856e-05
-2.7724e-05
-1.16289e-05
3.93416e-05
2.46857e-05
-1.76293e-05
-9.24234e-06
3.87147e-06
5.37084e-06
5.96377e-06
-2.34083e-05
7.47755e-06
-6.25109e-06
-1.22761e-06
2.02542e-05
-2.48843e-05
3.63175e-06
8.43044e-06
-1.20657e-05
1.49976e-06
-4.40482e-06
-3.2679e-05
1.03562e-05
2.19731e-05
-4.37295e-06
-4.86939e-06
1.62643e-06
1.03976e-05
9.94867e-06
-9.35268e-06
-5.964e-07
-1.91016e-07
-1.74023e-07
2.37345e-07
-2.8402e-08
3.97133e-06
-3.68589e-05
9.46499e-06
2.44064e-06
-3.76651e-05
7.16448e-06
7.26275e-06
2.8559e-06
-1.05874e-05
-1.34704e-05
7.65448e-06
5.81432e-06
-7.96195e-06
1.98795e-05
2.09776e-05
1.87675e-05
1.20797e-05
-3.88606e-06
8.91124e-07
6.46134e-06
-7.35256e-06
-8.10484e-06
-3.15118e-06
-5.12195e-07
6.05371e-06
8.18062e-07
3.81721e-06
-4.63527e-06
3.42057e-07
3.80233e-07
-8.67804e-07
-5.48201e-06
1.39097e-05
1.82373e-05
2.67721e-05
-1.02043e-05
-2.27959e-05
-4.09102e-06
1.45963e-05
-1.06643e-05
5.72616e-07
-6.3632e-07
1.52186e-05
7.73792e-06
7.57151e-06
2.14186e-05
-1.06512e-05
-3.63674e-06
1.41646e-06
1.55169e-07
-3.8022e-06
1.46655e-06
6.23289e-06
5.84653e-06
2.04e-05
5.15267e-06
-2.62978e-05
-1.72629e-05
9.82996e-06
7.42831e-06
3.57682e-05
-7.95583e-06
-3.01212e-06
9.78235e-06
7.72004e-07
-1.87248e-06
1.7464e-05
-4.61428e-06
1.11388e-05
-9.31003e-06
-1.82931e-06
4.57078e-06
2.90619e-06
9.18777e-06
8.15678e-06
-1.26257e-05
2.06756e-05
1.28257e-05
-8.81803e-06
-4.00843e-06
6.74844e-06
-3.51331e-06
-7.91596e-06
-1.67037e-05
8.23369e-06
-1.43551e-05
6.12069e-06
1.3539e-06
-3.2771e-06
-1.06667e-05
1.39327e-05
-3.26773e-06
-3.10059e-05
2.03597e-05
9.99194e-06
-5.89382e-06
3.09246e-05
-7.1892e-06
-4.23784e-05
3.29519e-05
-1.39401e-06
-2.99644e-05
3.68282e-05
-1.73732e-05
-3.98028e-06
2.13359e-05
2.69422e-06
5.01447e-06
-7.70883e-06
-1.41963e-06
2.50338e-06
-1.75916e-06
1.32186e-05
8.1142e-06
-3.98263e-05
2.44207e-05
1.49434e-05
-1.08209e-08
3.90004e-07
7.17406e-06
-3.14547e-06
1.25984e-05
1.49314e-05
-2.75388e-05
3.51451e-05
-2.34836e-05
-1.20345e-05
-8.35567e-06
-7.12605e-06
-1.57655e-05
-9.81744e-06
-2.1389e-05
3.08587e-05
4.20957e-07
-1.43307e-07
3.79938e-06
3.37484e-06
3.38368e-05
-1.43412e-05
-3.89842e-05
-9.87032e-06
9.4591e-06
1.63917e-05
1.83965e-05
-5.42309e-06
9.60715e-06
-6.83948e-07
5.93625e-07
-5.91545e-06
1.37908e-05
-7.8775e-06
-1.09831e-06
-1.44349e-06
1.63399e-06
2.3158e-06
1.32471e-05
-1.65897e-05
-1.42474e-05
-6.89751e-06
-5.17348e-06
-1.44804e-06
5.97561e-06
-1.45621e-06
1.00554e-05
-1.07119e-07
-2.71844e-05
-8.2947e-06
3.54481e-05
5.77749e-06
-1.36435e-05
-5.33831e-06
2.47345e-05
-1.54413e-05
-2.5142e-05
-3.01169e-06
-4.77012e-06
1.06643e-05
-8.46822e-06
-2.19645e-06
9.35823e-06
2.20336e-05
2.55867e-05
-2.25624e-05
-1.43314e-05
-2.82625e-05
-3.00277e-06
1.15801e-06
2.2589e-06
-2.90015e-05
2.62181e-05
-8.53807e-07
-9.86064e-07
-1.66226e-05
7.62242e-06
8.99535e-06
2.14416e-05
-2.83515e-05
6.84796e-06
-7.05628e-06
-5.46157e-06
-2.05324e-05
3.14207e-06
6.97623e-06
2.59092e-05
-3.29069e-05
7.71997e-06
-1.65479e-05
-2.70876e-05
3.66572e-05
-2.22982e-05
1.1171e-05
1.11094e-05
1.51391e-05
-8.04148e-06
-3.52199e-06
-2.21654e-05
1.34673e-05
2.05623e-05
-3.41889e-05
-1.00393e-06
1.54738e-07
1.50259e-05
-1.37029e-05
-1.17946e-06
-2.80903e-06
7.06776e-07
-2.0392e-06
-9.99668e-06
-2.02995e-05
4.44834e-06
-6.14953e-08
-6.07723e-06
4.22221e-06
-3.40414e-06
-1.12367e-05
2.13546e-05
-1.01335e-05
1.09709e-06
4.36409e-06
-6.61153e-06
7.14956e-06
6.1753e-06
-3.30496e-06
1.36052e-06
2.84007e-06
6.10839e-06
-3.07968e-05
2.20649e-05
-3.20951e-05
2.51622e-05
-4.94297e-06
-2.62249e-06
5.58296e-06
-1.46785e-05
9.09037e-06
1.99108e-05
7.05035e-06
-2.78537e-05
3.02176e-05
-2.62489e-06
4.07431e-06
-1.38459e-05
9.56476e-06
7.37362e-06
2.37367e-05
-3.16708e-05
2.45615e-05
-2.47828e-05
8.541e-08
1.55269e-05
-1.61843e-05
6.38495e-07
-2.62569e-05
-7.07704e-06
3.26701e-05
6.75788e-06
-3.82952e-06
-2.92829e-06
2.53791e-05
-4.05435e-06
-2.13596e-05
-2.89022e-05
-1.04677e-05
3.93399e-05
-6.8141e-06
2.66915e-05
3.34063e-05
-2.00906e-05
5.73929e-06
-4.84823e-06
-2.53269e-05
1.8452e-05
1.78275e-07
-3.28359e-06
2.21023e-06
-2.38412e-05
6.82033e-06
-2.69453e-06
-1.08591e-05
-4.73588e-06
-2.03522e-05
-5.32495e-06
6.68202e-06
1.20841e-05
-4.00641e-05
2.79652e-05
3.22281e-06
-1.80796e-05
-3.21726e-05
6.20008e-06
2.76477e-05
-3.30819e-05
-8.16285e-06
7.34008e-06
-2.66717e-05
1.92653e-05
-1.92214e-05
2.86035e-05
-4.1949e-06
1.22242e-05
-2.31922e-05
-1.05685e-05
9.58634e-06
3.2689e-05
-7.76544e-06
1.50326e-05
6.71212e-06
-1.7962e-05
-7.11277e-06
3.5239e-05
-6.78288e-07
-2.04053e-05
2.36949e-06
-3.07434e-06
-5.87968e-06
2.13782e-05
3.13107e-05
-5.27405e-06
5.74509e-06
-2.86869e-05
2.28514e-05
-3.47771e-05
2.25617e-05
1.19453e-05
-4.86349e-06
7.15901e-06
-2.29549e-06
1.96184e-06
-3.05379e-06
1.05271e-06
-2.7651e-05
3.97206e-05
-1.68317e-06
2.71502e-05
-3.72249e-05
2.60495e-05
1.11042e-05
-2.37305e-05
1.8151e-05
5.53265e-06
9.19288e-06
1.4711e-06
1.30536e-06
-3.43497e-06
-1.61241e-05
6.87731e-06
9.24202e-06
2.12891e-06
9.00933e-06
1.50716e-06
-1.1507e-06
-3.59301e-07
3.35058e-05
-2.39674e-05
-1.01072e-05
-2.11463e-05
-6.05727e-07
3.39644e-06
3.38651e-05
-1.75403e-05
-1.69904e-05
-2.05315e-06
-3.10571e-05
3.26897e-05
-1.15886e-05
3.47414e-05
-2.32504e-05
-2.72146e-05
1.37794e-05
3.68253e-06
-1.36831e-05
-1.81165e-05
-5.07058e-06
2.23847e-05
1.10583e-05
-4.21458e-06
-6.84401e-06
2.13905e-05
-1.10905e-05
4.80944e-06
-1.8638e-05
6.78129e-06
-1.25994e-05
-2.67945e-05
1.24496e-05
-8.82139e-06
2.83792e-05
-9.86953e-06
7.7996e-06
-9.37405e-06
9.91009e-07
-9.39293e-06
1.49706e-05
-1.08079e-05
-7.82628e-06
1.86281e-05
-1.07889e-05
1.74884e-05
6.61912e-06
1.6758e-05
-2.38891e-05
2.05936e-05
6.46605e-06
-2.13435e-05
2.31689e-05
-5.98411e-06
3.27416e-05
-1.04656e-05
8.03029e-06
2.32259e-05
-3.16804e-05
-1.0725e-05
1.90961e-05
5.07293e-06
-3.19724e-05
6.08472e-06
2.21319e-05
-2.89051e-05
1.46323e-05
-9.64361e-07
1.33872e-05
-2.63065e-05
-7.59247e-06
3.38124e-05
-2.67204e-05
9.19055e-06
1.80167e-05
1.34457e-05
-3.61107e-06
2.12892e-05
-2.3643e-05
-5.85578e-06
-3.507e-05
-1.14236e-05
4.88644e-06
6.53645e-06
2.2287e-05
-3.28166e-05
6.0074e-06
-3.62042e-05
2.99807e-05
1.62218e-06
-1.90555e-06
-1.73089e-06
-2.01716e-06
3.02312e-06
2.76228e-05
4.49949e-06
-3.24061e-05
7.12488e-06
2.20986e-05
-2.93059e-05
-2.62469e-05
5.93522e-06
-1.64439e-05
2.25643e-05
-4.03889e-06
1.36861e-05
-9.73361e-06
-3.05084e-05
3.80667e-05
-7.95019e-06
-1.43941e-05
3.26161e-05
-2.47428e-05
-1.19039e-05
2.01318e-05
-1.01717e-05
1.09535e-06
-1.29434e-05
8.82459e-06
-5.61119e-06
-5.69744e-06
1.13081e-05
-3.40557e-05
7.66872e-06
-3.87805e-07
1.44858e-06
-6.82718e-06
5.73739e-06
-1.70995e-05
3.0218e-05
-1.32329e-05
4.38951e-06
-2.84198e-05
2.14432e-05
-2.46706e-05
3.58498e-05
-1.12393e-05
-4.23348e-05
3.03113e-05
1.17657e-05
-7.93835e-06
-2.09483e-05
2.82759e-05
1.03149e-05
2.26091e-05
7.90797e-06
-2.31088e-06
-5.59709e-06
-1.51293e-05
-8.30293e-06
2.3399e-05
-3.34646e-05
6.25089e-06
1.57105e-05
-2.74882e-05
1.57088e-05
1.74284e-05
-1.76266e-05
6.82523e-06
-7.12663e-08
5.52413e-07
-2.5702e-05
-9.52499e-06
3.4985e-05
1.16997e-05
-3.90434e-05
2.72904e-05
-3.76024e-07
-4.33884e-07
1.16294e-05
-8.20842e-06
2.56082e-05
-1.74677e-05
-3.50286e-05
1.02994e-05
-5.72563e-06
1.43363e-05
4.13735e-05
-3.09595e-05
-1.04925e-05
1.60161e-05
2.252e-06
-1.88699e-05
3.66905e-06
-7.35139e-07
-3.63615e-06
-1.08868e-05
-1.10312e-05
-2.4259e-05
-2.91688e-05
-6.41818e-06
3.52162e-05
-3.32714e-05
2.45234e-05
8.60439e-06
-2.79719e-05
-7.87214e-06
3.53587e-05
-1.58733e-05
2.38386e-06
1.31527e-05
3.23043e-05
-1.5858e-05
-1.64608e-05
2.66805e-05
-3.40373e-05
-4.77539e-06
6.29166e-06
-1.51629e-06
2.96265e-06
8.11164e-06
2.7803e-05
-3.59698e-05
-7.96341e-06
-1.3906e-05
2.48045e-05
-5.35817e-06
-4.04612e-05
3.20263e-05
-1.59436e-05
-1.26685e-06
1.62191e-05
-9.47694e-06
-2.0258e-05
2.93968e-05
4.01639e-05
-1.63798e-05
-2.42645e-05
2.96936e-05
-2.3389e-05
-6.45428e-06
-4.86706e-06
-2.10377e-05
4.92116e-06
2.19683e-05
-2.75107e-05
2.33909e-05
-2.22452e-05
-3.5396e-05
-1.00036e-05
4.30925e-06
5.69413e-06
2.38059e-05
8.74338e-06
2.04798e-05
-1.35871e-05
-6.91263e-06
-1.21681e-05
2.07111e-05
-8.55037e-06
7.66786e-06
2.21905e-05
-3.04281e-05
-1.06272e-05
-1.78049e-05
7.60107e-06
-2.48085e-05
-1.13807e-05
3.48247e-05
-2.37839e-05
2.61252e-05
-1.25457e-05
-1.36231e-05
-1.43356e-05
1.04872e-05
7.50852e-06
-3.25992e-06
-8.84359e-06
-7.78314e-06
3.42746e-06
-1.18096e-05
8.29784e-06
-3.10555e-05
2.35876e-05
-2.25514e-05
2.94657e-05
2.22696e-06
3.18094e-05
8.59454e-06
-3.94872e-05
1.24683e-05
-1.64365e-05
-1.31881e-06
1.67763e-05
2.64966e-05
2.24169e-05
7.73519e-06
2.21625e-05
-7.85475e-06
-1.43534e-05
1.1684e-05
-3.88811e-05
2.70509e-05
-3.42266e-05
2.37189e-05
9.88125e-06
-7.69691e-06
1.20748e-05
-3.2968e-05
-1.9857e-05
2.40114e-06
1.93888e-05
-6.31203e-06
2.54218e-05
-3.74554e-05
1.18877e-05
-1.32733e-05
5.266e-06
1.79742e-05
-2.40118e-05
1.52647e-05
-1.38292e-05
3.51867e-06
1.00777e-05
-3.04417e-05
3.86598e-05
-3.8218e-06
-3.77313e-06
7.00534e-08
2.90318e-06
-2.21498e-05
-5.64319e-06
1.33884e-05
-6.24114e-06
3.51153e-06
-4.03783e-06
-9.99697e-06
8.84937e-06
3.05359e-05
-3.9442e-05
-5.90045e-06
-5.52373e-06
-1.14185e-05
-1.87031e-05
2.97687e-05
-4.39538e-05
3.36651e-05
1.00157e-05
-3.65487e-05
-4.05691e-06
2.93794e-05
-2.67865e-05
-3.543e-06
-6.66309e-06
-6.80859e-06
1.78268e-05
1.08621e-05
-2.89661e-05
-3.94611e-06
7.42799e-06
2.44544e-05
-3.47574e-05
1.04338e-05
-1.9731e-05
9.29587e-06
-2.50226e-05
-8.62887e-06
1.11276e-05
-2.78257e-06
-6.88532e-06
-9.3583e-06
4.46608e-06
-1.79379e-06
-5.05187e-07
2.42868e-06
5.15095e-06
3.04189e-06
3.5557e-05
-1.02751e-05
-2.54508e-05
2.38901e-06
-1.9198e-05
1.58766e-05
3.09031e-05
9.08671e-06
-4.00318e-05
-2.84286e-05
-3.03708e-05
2.05459e-05
-8.48473e-06
-1.00709e-05
3.25465e-05
-7.94255e-06
1.05925e-05
1.52801e-05
-9.57843e-06
1.44267e-05
-4.85126e-06
-1.22057e-05
-1.44836e-05
2.66387e-05
6.67772e-06
-2.52946e-06
-4.14828e-06
9.56323e-06
-3.54972e-05
2.57116e-05
-8.86963e-06
-2.85074e-05
-1.58459e-06
2.92981e-05
2.55791e-06
-6.32289e-06
3.76512e-06
6.71277e-06
3.02032e-05
-2.80166e-05
-2.40778e-06
1.4056e-05
-1.07742e-05
3.34544e-05
-2.47739e-05
-9.04634e-06
3.70033e-06
1.01149e-05
-9.08167e-06
2.14505e-05
-1.27718e-05
-8.77776e-06
-1.83514e-05
2.66974e-05
-3.34276e-05
2.41065e-05
8.68485e-06
-1.33657e-05
2.17182e-05
-8.38141e-06
-9.5897e-07
8.17645e-06
2.48547e-05
1.05265e-05
1.46538e-05
-8.9701e-06
-5.68701e-06
1.25952e-05
-5.51273e-06
-7.08266e-06
5.1837e-06
-1.07953e-05
6.73043e-06
6.65533e-06
-2.88778e-05
7.4908e-06
-1.44647e-05
-3.87134e-06
-2.67972e-05
2.98309e-05
1.14557e-05
-6.5699e-06
2.67652e-05
-3.78515e-05
1.3601e-06
1.83383e-05
-5.76868e-06
-1.29944e-05
-1.82641e-05
9.29141e-06
-4.28859e-06
-6.89761e-06
-2.62881e-05
-1.00038e-05
3.59038e-05
1.3549e-05
4.41402e-06
-1.13841e-05
1.4863e-05
-2.27473e-05
2.9513e-05
-7.64292e-06
-1.13318e-05
-1.09835e-05
1.83599e-05
-1.69085e-05
4.18317e-06
2.04457e-06
-6.22816e-06
-7.46621e-06
-2.09822e-05
-5.47974e-06
2.56531e-05
5.34697e-06
2.561e-06
-1.63594e-06
-2.76322e-05
-2.50889e-05
2.40173e-05
3.51034e-05
-9.18905e-06
7.38385e-06
-3.58433e-06
-2.43009e-05
9.78472e-06
1.32954e-06
-4.70017e-07
-1.26009e-06
2.69706e-05
-2.5409e-05
3.1338e-05
-6.52727e-06
-7.23553e-06
1.0627e-05
-4.13891e-06
-6.48836e-06
-3.04181e-05
2.77668e-05
-1.41119e-05
-1.36604e-05
-2.57901e-05
3.50323e-06
-1.87385e-05
-1.63424e-05
2.96867e-05
-1.2205e-05
-1.43798e-05
2.61906e-05
-2.82073e-05
1.15179e-05
3.09221e-05
1.0367e-05
2.4168e-05
5.16719e-06
3.77761e-06
2.97085e-06
3.32229e-05
8.34631e-07
-3.42471e-05
-1.34019e-06
-3.2843e-06
-1.55189e-05
-2.86604e-05
2.28473e-06
2.35048e-05
-2.65352e-05
2.46784e-05
-1.29939e-05
7.21815e-06
5.77382e-06
-1.94845e-05
1.05659e-05
-3.32786e-06
2.4709e-05
2.53805e-06
4.28231e-06
-2.91922e-06
7.10164e-06
4.07645e-05
-9.93739e-06
-5.69065e-06
-7.30492e-06
-1.76e-05
2.71084e-05
-6.70702e-06
4.14901e-06
2.55806e-06
-1.40143e-05
2.43494e-05
9.38228e-06
-1.49278e-05
5.54501e-06
-9.66814e-06
-2.06066e-05
7.2307e-06
-1.46935e-05
-1.13444e-05
2.59128e-05
4.09742e-07
1.4601e-05
-1.50118e-05
-9.18209e-06
3.87556e-06
5.30634e-06
3.45152e-06
-1.41377e-05
1.04952e-05
3.85628e-05
1.34845e-06
-1.08835e-05
-2.01938e-05
2.4554e-05
-8.8958e-06
-8.71384e-06
3.51414e-05
2.66075e-05
-9.05045e-06
-1.11871e-05
1.86637e-05
-7.47964e-06
5.4881e-06
-4.60265e-06
-8.85446e-07
-2.66167e-05
-7.75936e-06
3.46502e-06
-6.97832e-06
1.47586e-07
-4.56137e-07
-1.42479e-05
1.98855e-06
1.18953e-05
1.20972e-05
4.97488e-06
3.78404e-06
-8.75935e-06
2.50742e-05
4.46445e-06
5.11105e-07
-3.15179e-07
1.70438e-05
7.69084e-06
-2.76092e-05
3.29225e-05
-5.75782e-06
-2.55906e-05
2.33538e-05
-3.50429e-05
3.73612e-05
-2.56393e-05
-1.1818e-05
2.89124e-05