/*--------------------------------*- C++ -*----------------------------------*\
| =========                 |                                                 |
| \\      /  F ield         | OpenFOAM: The Open Source CFD Toolbox           |
|  \\    /   O peration     | Version:  v2012                                 |
|   \\  /    A nd           | Website:  www.openfoam.com                      |
|    \\/     M anipulation  |                                                 |
\*---------------------------------------------------------------------------*/
FoamFile
{
    version     2.0;
    format      ascii;
    class       surfaceVectorField;
    location    "750";
    object      Uf_0;
}
// * * * * * * * * * * * * * * * * * * * * * * * * * * * * * * * * * * * * * //

dimensions      [0 1 -1 0 0 0 0];


internalField   nonuniform List<vector> 
20642
(
(0.432845 0.00755826 -4.19987e-21)
(0.440662 0.00856801 -7.66825e-21)
(0.453608 0.0115917 1.93316e-20)
(1.01452 0.0351628 1.14785e-21)
(1.01527 0.0370063 -1.8955e-22)
(1.01686 0.0353936 3.96325e-22)
(1.07832 0.0635383 5.93247e-21)
(1.07818 0.0632106 9.00825e-21)
(1.07745 0.0635628 0)
(1.03948 0.0136209 0)
(1.03941 0.0142482 -6.56996e-21)
(1.03875 0.0136533 0)
(1.02123 0.0150681 -6.08273e-23)
(1.02273 0.0156182 -2.62571e-22)
(1.02224 0.0142702 -5.5893e-23)
(1.01422 0.0326335 -2.28255e-22)
(1.01244 0.0338695 -4.84268e-22)
(1.05582 0.028503 1.06145e-20)
(1.05488 0.0278695 -9.74538e-23)
(1.05496 0.0289101 -3.85843e-21)
(1.0417 0.0567806 7.56775e-23)
(1.04193 0.0621993 0)
(1.0476 0.0572752 4.20195e-22)
(1.06625 0.0170845 -4.76057e-21)
(1.06559 0.0176703 -1.72167e-21)
(1.06666 0.0180635 3.64714e-21)
(-0.000919656 -0.0350996 -3.05844e-21)
(0.0033707 -0.0375843 1.39966e-21)
(1.04115 0.0516881 3.44356e-22)
(1.03637 0.0553959 1.32318e-21)
(1.02901 0.0120409 3.68303e-21)
(1.02932 0.0125287 2.58754e-21)
(1.02959 0.0121382 9.31495e-22)
(1.01315 0.00019938 5.11286e-22)
(1.01332 0.000129048 0)
(0.84552 -0.0123396 4.68784e-21)
(0.771617 -0.0404261 2.36572e-21)
(0.827116 -0.0308356 8.72058e-21)
(1.01481 0.0182886 -2.45082e-23)
(1.01407 0.0189279 3.4746e-22)
(1.01516 0.0194216 -4.85853e-22)
(0.42145 0.00614335 -1.26062e-20)
(0.397615 0.00196626 -6.55061e-21)
(1.00098 3.57068e-06 -2.44476e-22)
(1.00099 -1.04554e-05 -3.30808e-23)
(1.00006 -1.65018e-05 1.07933e-22)
(1.0411 0.0471505 -1.18875e-22)
(1.04032 0.0434257 -8.47648e-23)
(1.03674 0.046533 -1.29133e-21)
(1.0771 0.0605238 -6.09741e-23)
(1.07756 0.0606937 5.3688e-21)
(1.07715 0.0609583 -1.4367e-20)
(0.406822 0.0227497 -7.06556e-21)
(0.445222 0.0249935 6.03024e-21)
(0.449102 0.0248437 -1.53678e-20)
(1.02957 0.0287898 6.98921e-22)
(1.02953 0.0288709 0)
(1.02952 0.0286958 5.63963e-22)
(1.01585 0.00917689 0)
(1.01593 0.00920028 0)
(1.01609 0.0094476 7.82452e-23)
(1.06568 0.0474958 4.79588e-21)
(1.06638 0.0468549 0)
(1.06655 0.048215 0)
(1.01574 0.00908979 0)
(1.01563 0.00887115 0)
(1.03727 0.0210416 -2.1775e-21)
(1.03777 0.0215318 8.54468e-22)
(1.03709 0.0214046 1.25397e-22)
(1.02994 0.028481 -3.31438e-22)
(1.02968 0.0285223 -5.32059e-22)
(1.0297 0.0285643 -2.19258e-22)
(0.766725 0.0744876 1.13586e-22)
(0.836977 0.0703551 6.74308e-21)
(0.829268 0.0577333 -6.186e-21)
(0.00591721 -0.0347122 0)
(1.03503 0.0322606 2.55987e-22)
(1.03401 0.0311308 4.30968e-22)
(1.03311 0.0325106 -3.98377e-24)
(1.0108 -0.0016828 -8.898e-23)
(1.01102 -0.00170009 3.15377e-23)
(1.01065 -0.00161384 -3.60507e-23)
(-0.0108676 -0.0245544 0)
(0.00327948 -0.0263964 6.01015e-21)
(1.08012 0.0511781 0)
(1.08083 0.0514642 0)
(1.08002 0.0517818 3.81098e-23)
(1.03523 0.0163463 3.13312e-21)
(1.03462 0.0159197 6.05314e-22)
(1.03522 0.0158327 3.37372e-21)
(0.485902 0.0209139 -4.67943e-21)
(0.502851 0.02412 1.39533e-21)
(0.500223 0.0242558 -5.43558e-21)
(1.01181 0.00346246 1.01559e-23)
(1.01165 0.00330383 -2.76012e-23)
(1.01191 0.00343309 8.1582e-23)
(1.03781 0.0682988 -2.81018e-22)
(1.04335 0.0698923 0)
(1.02695 0.0218665 -5.38644e-22)
(1.02741 0.022199 2.89364e-21)
(1.02704 0.0224384 3.23991e-21)
(1.00223 0.000129857 -8.25933e-22)
(1.00469 0.000309623 -2.70292e-23)
(1.00199 9.60558e-05 8.04405e-22)
(1.05677 0.0291062 1.32924e-20)
(1.05657 0.0280537 -9.02676e-22)
(1.02963 0.0358156 -7.05497e-22)
(1.02897 0.0366081 7.05813e-22)
(1.0302 0.0368068 1.66221e-21)
(1.00008 -5.35438e-05 3.08766e-23)
(0.999965 -1.48274e-05 -4.94011e-23)
(1.00063 -6.2268e-05 2.10871e-23)
(1.01153 0.000748526 1.20679e-22)
(1.0116 0.000764669 -2.96889e-22)
(1.01148 0.000984969 -1.27811e-22)
(1.06119 0.0131374 0)
(1.06015 0.0137073 1.09059e-20)
(1.06016 0.0124824 0)
(1.07926 0.0592504 -2.36099e-21)
(1.07962 0.0590663 -8.3633e-21)
(1.07963 0.0596074 -5.87118e-21)
(1.07883 0.0588488 6.35514e-21)
(1.07879 0.0594185 6.00208e-21)
(1.07232 0.106333 -2.98743e-21)
(1.07014 0.102339 -2.34887e-22)
(1.07809 0.106188 1.04139e-20)
(1.02958 0.028609 -8.30241e-23)
(1.02971 0.0289015 2.78911e-21)
(0.15892 -0.0337084 -6.79898e-21)
(0.221417 -0.022117 -1.01494e-21)
(0.221653 -0.0282132 -6.86296e-21)
(0.937648 0.131164 0)
(0.948955 0.146791 0)
(0.951153 0.12432 0)
(1.01178 0.00350416 3.32845e-23)
(1.01203 0.00361087 1.27486e-22)
(1.02849 0.0120252 -1.55972e-21)
(1.02867 0.0116451 -3.44302e-21)
(1.06613 0.0780338 -3.40173e-22)
(1.06588 0.0803781 -6.58907e-21)
(1.06389 0.0788531 -6.92164e-21)
(0.26875 0.00284872 -2.51289e-21)
(0.341704 0.00512092 1.43115e-20)
(0.264604 0.00209902 6.84263e-21)
(1.02227 0.0125496 0)
(1.02203 0.0121491 0)
(1.02183 0.0123516 0)
(1.02348 0.0133871 3.6048e-21)
(1.02318 0.0129794 0)
(1.02364 0.0130778 0)
(1.06651 0.0763841 4.92478e-21)
(1.06804 0.0776296 1.22245e-21)
(0.138083 -0.00394906 -1.19574e-20)
(1.06482 0.0480056 -8.70589e-22)
(1.06485 0.0466355 1.29197e-20)
(1.01137 0.000766137 -6.29688e-23)
(1.01159 0.000546937 1.23942e-22)
(1.07059 0.111927 1.29252e-20)
(1.0677 0.107092 -4.44659e-21)
(0.542361 0.0798072 -1.58086e-20)
(0.496881 0.083527 1.52458e-20)
(0.477813 0.0677508 2.34977e-21)
(1.00647 0.00602125 0)
(1.0071 0.00837815 2.46427e-22)
(1.0082 0.00659049 -6.3579e-22)
(1.002 -8.34355e-05 5.70054e-23)
(1.00213 -8.03452e-05 -4.96096e-23)
(1.00266 -0.000108401 -2.20815e-23)
(1.03748 0.0205512 0)
(1.03675 0.0205219 0)
(0.821117 0.0520991 1.26324e-22)
(0.820445 0.0521726 7.39449e-22)
(0.789812 0.0528734 -2.93385e-20)
(1.02735 -0.0181677 0)
(1.0285 -0.0136771 0)
(1.0249 -0.0175122 0)
(1.03598 0.0338101 4.90972e-23)
(1.03706 0.0354696 -5.22031e-22)
(1.03457 0.0356239 -4.48656e-22)
(1.03243 0.0669379 -2.42899e-21)
(1.03393 0.074967 -5.456e-21)
(1.04549 0.0475105 -3.53484e-23)
(0.407509 0.00995011 0)
(0.393099 0.0079838 -4.48787e-21)
(0.388693 0.00762402 0)
(0.954407 0.0599556 0)
(0.969249 0.0583765 -7.33646e-22)
(0.923153 0.057642 -7.56982e-21)
(0.473444 0.0183807 -4.72902e-21)
(0.471041 0.0188727 1.17604e-20)
(1.03525 0.0052907 0)
(1.03603 0.00547726 -1.59297e-21)
(1.03529 0.00578272 -2.72746e-21)
(1.0112 0.000778447 -2.54933e-22)
(1.01119 0.000941973 -1.95701e-22)
(1.02942 0.0289327 2.61515e-22)
(1.02945 0.0291785 -8.06978e-22)
(1.03388 0.0226103 2.90522e-21)
(1.03426 0.0231404 3.48838e-22)
(1.03356 0.0228241 1.54979e-21)
(1.01862 0.0111407 -1.96482e-22)
(1.01902 0.0112201 -2.67541e-23)
(1.01868 0.0109602 1.60228e-22)
(1.01099 0.000812749 -2.21516e-22)
(1.01122 0.000657155 2.51244e-22)
(1.03422 0.0222207 3.36325e-21)
(1.03342 0.0220734 0)
(1.03526 0.0166326 5.96185e-22)
(1.03576 0.016618 -3.56987e-21)
(1.01991 0.0141804 -7.95262e-23)
(1.01957 0.013808 6.59155e-22)
(1.01979 0.0137143 1.20079e-21)
(1.00115 3.6337e-05 1.17679e-22)
(1.00116 3.58119e-05 -9.45158e-23)
(1.00011 -8.1854e-06 0)
(1.03523 0.00475906 -5.15287e-21)
(1.03448 0.00504472 -3.31602e-22)
(0.926526 0.0631177 -1.50544e-20)
(0.967208 0.063139 -5.50197e-21)
(0.961452 0.0639278 6.93137e-23)
(1.01527 0.0021897 1.70687e-22)
(1.01536 0.00245951 -9.39997e-22)
(1.01503 0.00234181 -1.38646e-21)
(1.06903 0.0195569 2.14738e-23)
(1.07344 0.0111748 -3.93636e-22)
(1.07775 0.0210794 -1.20991e-22)
(1.08032 0.0503089 1.89772e-21)
(1.07932 0.0507798 -7.09796e-22)
(1.01494 0.00127705 0)
(1.01468 0.00129268 2.25943e-21)
(1.0142 0.000954157 -1.87722e-21)
(1.03026 0.0350428 2.39321e-23)
(1.02925 0.0347465 -1.40426e-21)
(1.00083 1.35352e-05 -1.17571e-22)
(1.00171 5.06478e-06 -2.65541e-22)
(1.00284 2.85874e-05 1.36311e-22)
(1.00265 1.63996e-05 -2.02496e-22)
(1.00315 6.42702e-05 2.1112e-22)
(1.06204 0.0140263 4.26546e-21)
(0.927654 0.111851 0)
(0.908588 0.135519 1.45003e-21)
(1.01059 0.00253943 -2.10845e-22)
(1.01075 0.00247251 -2.69066e-22)
(1.01047 0.00242195 -1.23919e-22)
(1.02355 0.0158743 -1.6591e-21)
(1.02311 0.0155442 6.08641e-23)
(1.02327 0.0160458 -1.47796e-21)
(1.03684 0.0315722 -3.6028e-22)
(0.845638 -0.00456152 -9.81468e-21)
(0.915484 -0.00128069 -1.22305e-20)
(0.901572 -0.0131467 -6.62162e-21)
(1.00208 0.00011779 -1.85248e-22)
(1.00215 0.000108574 -1.319e-23)
(1.00063 4.77212e-05 -1.41078e-23)
(1.01517 0.00149724 0)
(1.01512 0.00123189 -1.31305e-23)
(0.981613 0.0260125 -4.40172e-21)
(0.988832 0.0250839 -4.27816e-21)
(0.985814 0.0189499 0)
(1.00122 -4.83798e-05 2.36065e-22)
(1.00119 -5.72158e-05 -8.08773e-23)
(1.00065 -2.66431e-05 -8.65739e-23)
(1.00129 -5.49164e-05 2.31905e-22)
(1.00183 -0.000107845 1.81157e-22)
(1.02004 0.0145533 -2.96597e-22)
(1.02022 0.0144423 -7.85449e-22)
(1.00433 0.000369936 0)
(1.00431 0.000343214 4.87657e-23)
(1.00341 0.000262197 4.48929e-23)
(1.01816 0.0109869 -9.58769e-24)
(1.01837 0.0113458 2.90749e-22)
(0.941945 0.0666649 -3.2708e-21)
(0.93874 0.0670219 3.89193e-21)
(0.902404 0.0690098 -1.22313e-20)
(0.524689 0.0190165 -1.47691e-21)
(0.518371 0.0202615 -2.87816e-22)
(0.498151 0.0165272 1.61757e-21)
(1.0065 0.00364856 0)
(1.00417 0.00500147 3.22851e-22)
(1.01174 0.000425088 -2.88477e-22)
(1.01162 0.000751132 -1.77005e-22)
(0.700684 0.0749799 -9.02569e-23)
(0.706502 0.0885558 -7.77059e-21)
(1.02039 9.6443e-05 -6.35315e-22)
(1.02049 4.88754e-05 2.09341e-21)
(0.522403 0.0275805 0)
(0.507678 0.0245485 4.57482e-21)
(1.03314 0.0301752 4.313e-23)
(1.03441 0.0294931 -2.35118e-22)
(0.815842 0.0537087 1.04852e-20)
(0.85671 0.054682 1.79721e-20)
(1.03249 0.0237543 4.32843e-21)
(1.03292 0.024252 3.63858e-22)
(1.03285 0.0235025 -4.17946e-21)
(1.0766 0.0602708 0)
(1.07707 0.0600605 6.01462e-21)
(1.00205 -3.23517e-05 -7.28194e-23)
(1.00262 3.50992e-06 -3.69736e-22)
(1.00225 -2.06781e-05 6.87899e-23)
(1.07983 0.0622075 -1.42004e-22)
(1.08012 0.0624327 0)
(1.0798 0.0620594 0)
(1.0337 0.0016387 -1.76411e-21)
(1.03387 0.00216223 -2.00115e-21)
(1.03314 0.00186383 -1.12133e-21)
(1.00207 7.91957e-05 -5.54879e-23)
(1.00104 2.70114e-05 2.88211e-23)
(1.01059 0.00102366 -6.48614e-22)
(1.0104 0.00109335 -1.07854e-22)
(1.01033 0.000989405 -2.91278e-24)
(1.03801 0.0377793 2.41937e-22)
(1.03956 0.0350576 -7.07975e-23)
(1.07163 0.063704 -1.42432e-20)
(1.0709 0.0644508 -2.67048e-22)
(1.07066 0.0632409 9.60841e-21)
(0.346071 0.00685689 7.08191e-21)
(0.365303 0.0104573 -6.51125e-21)
(0.351533 0.00705116 -5.83153e-21)
(0.899424 0.0630697 5.38785e-21)
(0.893846 0.0644049 -7.40462e-21)
(1.03764 0.0201316 -1.99934e-21)
(1.03781 0.0196657 -1.86008e-23)
(1.03713 0.0196167 -5.83868e-21)
(1.02941 0.0286673 3.69823e-22)
(1.02921 0.0288611 2.52963e-22)
(1.01145 0.00432877 0)
(1.01131 0.0041921 -1.6489e-23)
(1.01122 0.00421746 0)
(1.072 0.0629126 -7.00685e-21)
(1.07252 0.063957 -2.31548e-20)
(1.07175 0.0320039 2.45162e-21)
(1.07148 0.0328741 -7.53051e-22)
(1.07259 0.0325567 1.02802e-20)
(1.00962 0.104536 1.57088e-21)
(1.01338 0.101206 2.56608e-21)
(1.01356 0.107216 -1.72497e-21)
(0.63559 0.0532286 0)
(0.602397 0.050729 0)
(0.6098 0.050758 1.23984e-20)
(1.0321 0.0240844 4.19956e-21)
(1.03198 0.0233122 -1.1597e-21)
(1.08063 0.0543248 -6.72723e-21)
(1.08009 0.0547973 -1.31233e-20)
(1.08096 0.0549772 -3.55678e-21)
(0.637279 0.0730027 -1.10177e-22)
(0.695839 0.0605682 1.73442e-21)
(0.462434 0.100071 0)
(0.514546 0.0972088 0)
(0.520718 0.102666 0)
(0.298189 0.00900041 -1.36518e-21)
(0.294125 0.00856658 -2.24643e-22)
(0.314002 0.0119992 -6.26617e-21)
(1.03071 0.0285608 2.79447e-22)
(1.03019 0.028473 2.19337e-22)
(1.03026 0.0287944 1.46882e-22)
(1.00209 0.000166142 -1.19284e-21)
(0.819845 -0.145934 -1.11485e-21)
(0.843927 -0.134366 3.07844e-22)
(0.810582 -0.159978 -8.79602e-22)
(1.01077 0.000924385 -4.51358e-22)
(1.01075 0.000813298 1.60594e-22)
(0.935491 0.0681013 1.74085e-21)
(0.978217 0.0681216 -3.37059e-21)
(1.01418 0.00665176 -1.13072e-21)
(1.01393 0.00640707 -4.27783e-22)
(1.01405 0.00665263 5.44836e-22)
(1.03285 0.00525849 0)
(1.03347 0.00552872 -2.36639e-21)
(1.03293 0.00578072 0)
(1.01125 -0.00281987 -6.83152e-24)
(1.01232 -0.0031489 0)
(1.01185 -0.00199368 -1.43323e-22)
(0.978154 0.0607453 -6.14188e-21)
(0.933896 0.0609971 -4.6866e-21)
(0.87219 -0.174507 -2.57807e-21)
(0.237203 -0.0105594 -4.77445e-21)
(0.262561 -0.00131712 -1.48441e-20)
(0.186367 -0.0136897 8.38195e-21)
(1.02273 0.0127893 0)
(1.0225 0.0130063 0)
(1.0308 0.0344035 3.28587e-22)
(1.03118 0.0337561 -2.11368e-21)
(1.0304 0.0334955 -3.11874e-21)
(1.00145 -7.42258e-05 5.84211e-24)
(1.00156 -8.23762e-05 1.37036e-22)
(1.00218 -0.000100525 -1.73613e-22)
(1.03224 0.00501953 -9.64176e-22)
(1.03274 0.00474862 0)
(0.800798 0.00827635 7.14939e-21)
(0.783788 -0.00727676 -3.94817e-21)
(1.01519 0.00883257 1.01952e-23)
(1.01539 0.00910552 -3.2063e-23)
(1.01512 0.00883718 2.14961e-23)
(1.00435 0.000365319 -5.10154e-23)
(1.00476 0.000369941 -2.8565e-23)
(0.587365 0.0506344 -2.46909e-21)
(0.578933 0.0491456 0)
(0.558234 0.0470582 -3.30169e-21)
(1.00093 -3.51722e-05 1.43885e-22)
(1.00094 -3.11029e-05 1.2301e-22)
(1.00026 -3.43336e-05 1.1629e-22)
(1.00181 -5.27754e-05 1.06297e-22)
(1.00129 -7.75182e-05 6.32716e-22)
(1.01478 0.00471187 1.44561e-21)
(1.01498 0.00499788 -4.14171e-22)
(1.01462 0.00483744 -1.98216e-22)
(0.738052 0.0369851 1.03509e-21)
(0.747178 0.0385089 5.14371e-21)
(0.708802 0.0319183 8.99891e-21)
(1.02432 0.0244982 -3.6542e-22)
(1.02476 0.0241829 -1.61574e-22)
(1.024 0.0238243 -4.46119e-22)
(0.825266 -0.124826 0)
(0.586569 0.00791337 -9.78539e-21)
(0.575007 0.00339586 1.84361e-20)
(0.613678 0.0117689 5.73188e-22)
(0.966109 0.014935 -1.36107e-21)
(0.968252 0.0218999 4.75617e-21)
(0.972288 0.0134494 -6.11986e-22)
(0.27152 0.00239106 -7.13886e-21)
(0.326351 -0.0427748 0)
(0.404564 -0.0256634 0)
(0.348072 -0.0360694 0)
(1.00526 -0.000460284 -8.21143e-24)
(1.0054 -0.000507721 -1.07305e-23)
(1.00536 -0.00048501 -4.72569e-24)
(1.03119 0.0288093 0)
(1.03099 0.0281372 0)
(1.01581 0.0091528 -1.3094e-22)
(1.01588 0.0091899 -1.1572e-22)
(1.01608 0.00939617 5.71417e-23)
(0.641964 0.0511843 -5.02704e-21)
(0.644847 0.0522213 -3.2489e-21)
(0.61221 0.0484869 -7.5169e-21)
(1.06592 0.0160499 -7.63129e-21)
(0.630258 0.0842735 6.41722e-21)
(0.587907 0.0828232 -2.29335e-20)
(0.603625 0.0923361 1.43234e-20)
(1.04641 0.0668981 4.72921e-21)
(1.04758 0.0657458 4.43716e-21)
(1.04798 0.0679007 -5.16855e-21)
(1.00109 -4.58505e-05 1.56873e-22)
(1.00167 -4.91016e-05 -4.51573e-23)
(1.00096 -4.65018e-05 4.5492e-23)
(1.04023 0.0136777 -2.49573e-21)
(1.03962 0.0131291 1.01843e-21)
(1.06593 0.0826924 -6.54991e-21)
(1.06687 0.0854523 -6.02085e-21)
(1.06362 0.0839145 -1.5441e-21)
(1.07195 0.0309848 2.46638e-21)
(1.07088 0.0313211 -1.81383e-21)
(1.02464 0.0251752 -7.44886e-23)
(1.02389 0.0247995 1.89816e-22)
(1.05939 0.0141024 -2.217e-21)
(1.05846 0.0135027 -1.37653e-20)
(1.05838 0.0145985 -5.52752e-21)
(1.01554 0.00892461 0)
(1.02807 0.0119744 1.58382e-21)
(1.02836 0.0123614 0)
(1.08111 0.0772687 -3.60626e-21)
(1.08127 0.0756504 -6.86573e-21)
(1.08166 0.0758136 6.15096e-21)
(1.07964 0.0620652 -1.24213e-22)
(1.07879 0.0623509 1.03598e-20)
(1.00439 0.101893 -7.57608e-22)
(1.00816 0.108636 -1.74289e-22)
(1.02773 0.0115695 1.24676e-23)
(1.02757 0.0119175 1.66298e-21)
(1.08488 0.0789936 5.05888e-21)
(1.07958 0.0793561 3.31696e-21)
(1.01091 -0.00174521 -1.05902e-22)
(1.0105 -0.00164661 6.33394e-23)
(1.06388 0.0246592 -1.00493e-23)
(1.06107 0.0175346 -8.73588e-24)
(1.0443 0.0662346 -2.35976e-21)
(1.04494 0.0686405 0)
(1.07846 0.0584553 3.22111e-21)
(1.07894 0.0582301 0)
(1.07821 0.0720563 -1.04661e-20)
(1.07675 0.070889 -5.6369e-21)
(1.07618 0.0723137 -6.32291e-21)
(0.444254 0.00973849 -5.22455e-21)
(0.461123 0.0138786 1.38795e-20)
(0.447119 0.0117299 2.39717e-21)
(1.01075 0.00263502 -1.44559e-22)
(1.01051 0.00259094 3.78252e-23)
(0.362225 0.00858413 6.89324e-21)
(0.375672 0.0112883 6.33495e-21)
(0.356587 0.00759519 4.83985e-22)
(1.04127 0.0287665 1.32807e-21)
(1.04081 0.0292277 -7.2378e-22)
(1.04055 0.0284195 -4.38066e-22)
(0.670359 0.0555777 -4.52827e-21)
(0.663246 0.055282 1.12251e-21)
(1.01153 0.00313986 0)
(1.01132 0.0031825 -4.54922e-22)
(1.01502 0.00857651 1.26778e-23)
(1.01526 0.00881386 1.03928e-22)
(1.02979 0.0283912 0)
(1.03007 0.0286669 0)
(1.03001 0.0282695 -8.50859e-22)
(0.397182 0.00692596 5.27057e-21)
(0.395737 0.00765712 -9.52439e-21)
(0.414062 0.00967317 -3.92559e-21)
(0.299684 0.0083899 -9.06092e-22)
(0.274276 0.00577552 4.20985e-22)
(1.02479 0.0201346 1.24702e-21)
(1.02494 0.0206698 3.67493e-22)
(1.0244 0.020298 -3.7186e-24)
(0.854635 0.0954356 2.6376e-21)
(0.899842 0.0871509 -5.312e-21)
(0.859998 0.101502 3.93886e-21)
(1.02765 0.0315449 -5.80679e-23)
(1.02676 0.0319132 -1.83328e-23)
(1.02689 0.0308173 -8.559e-23)
(1.03121 0.0352697 3.64169e-22)
(1.01083 0.00105938 -3.32133e-22)
(1.0681 0.0814054 8.18878e-21)
(1.01927 0.0134149 6.35128e-22)
(1.01935 0.0138191 7.27102e-22)
(1.00936 0.00313049 2.04402e-23)
(1.00914 0.00301048 -2.12949e-22)
(1.00921 0.00301828 -3.39295e-24)
(1.0261 0.0220641 -4.03671e-22)
(1.0231 0.0215064 -1.39984e-22)
(1.02504 0.0198785 -1.15463e-22)
(1.02756 0.0245473 -1.20773e-22)
(1.02997 0.0223587 4.76496e-22)
(0.316021 -0.00942024 6.53372e-21)
(1.08034 0.0537959 -6.10169e-21)
(1.0811 0.053887 -5.98715e-21)
(1.03004 0.0282189 1.76872e-23)
(0.669638 0.0383749 1.53186e-21)
(0.667943 0.0367031 1.58023e-21)
(0.699301 0.0404721 7.00961e-21)
(1.00895 0.000682942 0)
(1.008 0.000601901 -5.99373e-22)
(1.00976 0.000726116 2.82644e-22)
(1.00676 0.000299564 3.48928e-22)
(1.00691 0.000325788 1.57871e-22)
(1.00659 0.000304247 -1.13347e-22)
(1.00692 0.00029166 1.60077e-22)
(1.00661 0.000287879 5.75157e-23)
(0.304813 -0.0456513 1.27786e-20)
(1.08085 0.0746931 -8.32265e-21)
(1.07957 0.0731386 -8.42155e-21)
(1.07916 0.0751491 -2.73474e-21)
(1.08901 0.0809555 1.8375e-22)
(1.09223 0.0835375 -6.67151e-21)
(1.08683 0.0836602 0)
(1.02038 0.00134636 1.07849e-21)
(1.02061 0.00151474 0)
(1.02061 0.00128494 0)
(1.00192 -7.7727e-05 2.98134e-23)
(1.00133 -6.2577e-05 5.56901e-24)
(0.579348 0.0861978 -8.94876e-21)
(0.575527 0.0695903 6.77842e-21)
(0.366915 0.00909245 1.52469e-22)
(1.0059 0.00028485 0)
(1.00611 0.000297236 -2.80937e-23)
(1.00607 0.000310953 1.11074e-22)
(1.00567 0.000279252 -1.68007e-22)
(1.00571 0.00025754 0)
(1.0004 -3.88809e-05 -2.25564e-22)
(0.999875 -5.9563e-05 6.31114e-23)
(1.00709 0.000283567 -1.7461e-22)
(1.00726 0.00030932 -1.32188e-22)
(1.00725 0.000275485 -1.51975e-22)
(1.00696 0.000268025 -1.21205e-22)
(0.45842 0.0150368 1.0658e-20)
(0.470466 0.0173192 -2.73602e-21)
(0.383742 -0.00564111 -5.98455e-21)
(0.380374 -0.0115437 -5.88309e-22)
(0.446223 -0.00627125 -6.56126e-21)
(1.01766 0.0112007 0)
(1.01748 0.0109215 0)
(1.01773 0.0111854 0)
(1.00634 -0.000768595 1.39538e-23)
(1.00653 -0.000808381 2.5047e-24)
(1.00632 -0.000766228 -3.28657e-24)
(1.06104 0.0656302 0)
(1.05941 0.0662062 0)
(1.05976 0.064676 -4.42913e-21)
(0.449553 0.017992 1.68729e-21)
(0.43842 0.0151106 5.45508e-21)
(0.453989 0.0181713 1.51122e-22)
(1.00131 -2.922e-05 -1.71663e-22)
(1.00061 -1.59643e-05 -9.25879e-24)
(1.0006 -2.75715e-05 0)
(1.02017 0.0014303 4.98851e-21)
(1.02018 0.00120688 -1.5145e-22)
(0.844306 0.0828004 7.05329e-21)
(0.782338 0.0996429 1.49693e-20)
(0.931499 0.0684947 4.35154e-21)
(0.925707 0.0687241 -2.25155e-21)
(0.96823 0.0693519 0)
(1.08159 0.073735 0)
(0.673563 0.0400297 1.04872e-21)
(0.644174 0.035921 3.09346e-23)
(1.0483 0.079042 3.24412e-21)
(1.04565 0.0790924 1.05642e-21)
(1.0472 0.0813732 8.19327e-21)
(1.01429 0.00663725 -9.54084e-22)
(1.01442 0.00686929 -1.01293e-21)
(0.464938 -0.0150898 -3.10841e-21)
(0.484254 -0.0105146 -1.14742e-20)
(1.06245 0.0655007 -4.10637e-21)
(1.06195 0.0669834 -1.21097e-20)
(1.03243 0.0295964 0)
(1.03209 0.0306312 0)
(1.07363 0.0563358 1.25328e-20)
(1.07376 0.0569767 6.78331e-21)
(1.0744 0.0565882 -4.50501e-21)
(1.02463 0.0196218 8.88998e-22)
(1.02516 0.0199412 8.45739e-22)
(0.403387 -0.00189002 -8.87816e-21)
(1.03406 0.00261322 5.39673e-21)
(1.03358 0.00279725 2.52765e-21)
(1.03422 0.00310828 3.26398e-25)
(1.03831 0.0459732 3.50863e-21)
(1.03764 0.0466082 6.15577e-21)
(1.03894 0.0468588 2.22429e-21)
(1.04776 0.0642683 -5.4952e-21)
(1.04835 0.0623247 -6.14099e-21)
(1.04633 0.0628 -3.02062e-21)
(1.01753 0.0111801 0)
(1.01759 0.0111661 0)
(1.01736 0.0109245 1.0624e-22)
(0.999979 -7.37995e-06 0)
(1.03813 0.0206317 4.901e-21)
(1.01588 0.0147369 -2.48679e-22)
(1.01555 0.0135361 0)
(1.01465 0.0139488 0)
(1.0118 0.00214851 7.70114e-23)
(1.01184 0.00224304 5.47975e-22)
(1.01207 0.00211733 2.26535e-22)
(0.398077 0.01717 5.95935e-21)
(0.387097 0.01429 6.2092e-21)
(0.381714 0.0140242 0)
(0.841497 0.149564 3.13476e-21)
(0.870281 0.140991 3.0923e-21)
(0.896577 0.159193 -9.769e-22)
(1.01065 0.00154066 -2.05039e-25)
(1.0105 0.00154644 -1.19554e-22)
(1.01034 0.00144643 0)
(1.00559 0.000300101 1.19686e-23)
(1.00546 0.000263196 -4.78604e-23)
(1.01567 0.00934767 6.01798e-23)
(1.01557 0.00939476 1.39836e-22)
(1.00573 0.000327656 -5.90349e-23)
(1.00551 0.000308402 1.03578e-22)
(1.03463 0.00242252 0)
(1.0171 0.000297849 -1.24645e-22)
(1.01258 0.000201877 4.83207e-22)
(1.05356 0.0431614 -1.3783e-20)
(1.05416 0.0442462 -1.08753e-21)
(1.05294 0.044248 7.92965e-22)
(1.0108 0.0015326 -2.27914e-22)
(1.01097 0.00166921 4.11991e-22)
(0.294878 0.0111819 6.36013e-23)
(0.312357 0.0146865 -9.69849e-22)
(0.529097 0.0169353 7.54805e-22)
(0.54909 0.0219608 -3.40895e-21)
(1.02435 0.00992317 -1.55456e-21)
(1.02444 0.00957705 2.71237e-21)
(1.02391 0.0095762 -1.7449e-21)
(1.01631 0.0119227 -1.81826e-22)
(1.01673 0.0125711 -3.86012e-22)
(1.01709 0.0121493 0)
(1.06652 0.115534 1.33275e-20)
(1.06591 0.11695 -4.90877e-21)
(1.04862 0.120291 -3.56106e-22)
(1.00714 9.81029e-07 -3.4037e-22)
(1.00733 -1.75024e-05 4.15603e-23)
(1.00701 -9.6524e-06 -2.15937e-22)
(0.998546 0.0240827 7.7227e-21)
(0.994577 0.0252215 4.02713e-21)
(0.999212 0.0289358 3.25078e-21)
(0.414969 0.0206629 1.4686e-21)
(0.409346 0.0201604 5.96883e-21)
(1.00697 1.98603e-05 -7.1038e-23)
(1.00728 1.59712e-05 1.74931e-22)
(0.423841 0.0126413 -9.17291e-22)
(0.418964 0.0123406 1.84877e-21)
(1.01173 0.00208418 -1.29775e-22)
(1.01151 0.00217193 -4.91153e-22)
(0.777247 0.0415364 -4.66305e-21)
(0.737376 0.0359498 -7.09366e-23)
(1.00109 -4.36748e-05 -1.27735e-22)
(1.0005 -3.56902e-05 -2.69259e-23)
(1.01602 0.0172933 -2.2872e-22)
(1.01588 0.0163254 -1.73076e-22)
(1.01653 0.0167774 -2.02515e-22)
(1.01749 0.0111781 0)
(1.01767 0.0114412 2.78392e-22)
(1.01339 0.00624028 -2.53734e-22)
(1.01314 0.00604794 7.82627e-22)
(1.01319 0.00602941 -2.05458e-22)
(1.07866 0.0635628 -3.01618e-21)
(1.07801 0.0634833 -7.46853e-21)
(1.07861 0.0630431 0)
(1.00478 0.000355472 -4.25818e-23)
(1.00481 0.000328958 -3.65217e-23)
(1.0028 0.000177797 4.02461e-22)
(0.961853 0.00765679 2.04561e-21)
(0.958762 0.0187685 -2.06944e-22)
(1.03845 0.0324664 -1.24061e-22)
(1.03785 0.0328947 2.12798e-21)
(1.03783 0.0319596 3.47767e-21)
(1.01017 -0.00213265 1.52987e-23)
(1.0105 -0.00380145 -6.1283e-24)
(0.951272 0.0971592 -2.98056e-21)
(0.942648 0.0872706 -6.8315e-21)
(0.961355 0.0847966 3.16378e-21)
(0.280876 0.00834808 3.8928e-22)
(1.00193 -2.07565e-05 1.87815e-22)
(1.0019 -1.68991e-05 -2.48006e-22)
(1.06096 0.0531342 -5.12366e-21)
(1.06199 0.053875 -1.25976e-20)
(1.06205 0.0525855 2.4404e-21)
(1.01843 0.0154559 0)
(1.0171 0.0151473 -2.486e-22)
(1.01779 0.0142543 4.28907e-22)
(1.03182 0.0243508 4.14278e-21)
(1.03147 0.0245664 1.75724e-21)
(1.03136 0.0239045 7.21417e-22)
(1.02005 0.0153915 0)
(1.02008 0.0141165 0)
(1.03451 0.0219264 1.52047e-21)
(1.03487 0.0224624 -1.36058e-21)
(1.01092 0.00241099 -3.27871e-22)
(1.0111 0.00233531 1.87076e-23)
(1.01081 0.00230575 -9.16208e-25)
(1.00581 0.000449225 -3.12094e-22)
(1.00453 0.000324622 -3.53634e-22)
(1.05879 0.0869743 -4.65596e-21)
(1.06238 0.0887616 -4.8375e-21)
(1.06116 0.0852601 5.1159e-21)
(1.02471 -0.0165202 9.62221e-23)
(1.03186 -0.0199168 8.93394e-22)
(1.02864 -0.0129452 2.78816e-22)
(1.03923 0.0451203 1.41426e-21)
(1.03782 0.0449192 1.5826e-21)
(1.03482 0.0215992 -1.45309e-21)
(1.03412 0.0214468 -1.60686e-21)
(1.02 0.00145747 8.82874e-22)
(1.01984 0.00129031 -3.01857e-21)
(1.01979 0.0014766 -2.92165e-21)
(0.596045 0.0509313 -2.57579e-21)
(0.620273 0.0528596 -7.04558e-22)
(0.392468 0.00519644 1.83852e-20)
(0.364854 0.00526086 7.75868e-21)
(1.01091 0.00382179 -2.31061e-25)
(1.01077 0.003702 -2.28037e-25)
(1.01066 0.00371038 -6.89367e-24)
(1.0134 -0.00652709 3.08336e-22)
(1.01494 -0.00793918 5.5336e-22)
(1.01495 -0.00605781 -1.23303e-21)
(1.03233 0.0247554 -2.42361e-21)
(1.03927 0.0845158 -3.42559e-22)
(1.02321 0.0782075 -9.50079e-22)
(1.02998 0.0688194 -1.21904e-23)
(1.08521 0.0604462 -7.83609e-21)
(1.08524 0.0611429 -3.47398e-21)
(1.08585 0.0606171 -1.50101e-20)
(0.554808 0.0263533 1.546e-21)
(0.539149 0.0259763 -1.05046e-20)
(0.530269 0.0228057 -2.16685e-22)
(0.649421 0.0779301 8.46796e-21)
(0.664504 0.0846497 -8.34534e-21)
(1.03275 -0.00377545 0)
(1.03078 -0.00876548 0)
(1.03317 -0.00689361 0)
(1.01866 0.0980262 6.88281e-22)
(1.01489 0.0949998 1.93554e-21)
(1.01602 0.0112914 -4.70957e-22)
(1.01566 0.0115202 -7.47549e-23)
(1.00245 0.0646821 0)
(0.972397 0.063162 -6.77877e-21)
(1.04559 0.102992 -8.35288e-22)
(1.05649 0.0882456 -3.16704e-22)
(1.07788 0.0638806 -1.02442e-21)
(1.08005 0.0634585 -1.65478e-23)
(1.01683 0.000429909 0)
(1.01195 9.64595e-05 0)
(1.01541 0.0177898 3.84579e-22)
(1.01459 0.0171477 -1.89606e-22)
(0.894236 0.0663859 -2.16439e-21)
(1.0158 0.00922068 3.6313e-23)
(1.01579 0.00919174 -1.3837e-22)
(1.01602 0.00941774 3.56838e-23)
(1.01675 0.0386905 -1.3546e-21)
(1.01417 0.0387362 -1.55593e-21)
(1.07805 0.0580838 6.52632e-21)
(1.07801 0.058694 3.0224e-21)
(1.00099 -1.55819e-05 -4.50809e-23)
(1.00083 -1.7639e-05 -3.4641e-22)
(1.00005 -3.63542e-05 -6.33723e-23)
(0.667079 0.0541858 -3.90033e-21)
(0.63498 0.0503351 1.61086e-21)
(1.01516 0.00170132 0)
(1.01519 0.00197891 2.07343e-21)
(1.01494 0.00184142 -1.60487e-21)
(1.0834 0.03584 0)
(1.08436 0.036482 0)
(1.00961 -0.000125043 8.42946e-23)
(1.00946 -0.000159185 8.65623e-23)
(1.00982 -0.000106154 5.25458e-24)
(0.31972 0.0227918 -6.60226e-21)
(0.331159 0.0151712 -1.38896e-20)
(1.0081 0.00209135 -2.2244e-22)
(1.00795 0.00200309 -4.17119e-22)
(1.00797 0.00194626 -6.14276e-22)
(1.04002 0.0445392 0)
(1.03962 0.043526 0)
(1.04078 0.0438886 -2.53453e-21)
(1.02857 0.0319708 -4.10529e-23)
(1.0283 0.0309967 -5.43256e-23)
(1.03309 0.000790335 0)
(1.03056 -0.00216233 0)
(1.00189 3.58821e-05 -4.09694e-23)
(1.00128 -1.84551e-07 1.04734e-22)
(1.07495 0.0562526 -2.21839e-22)
(1.07559 0.0560003 -7.07584e-21)
(1.07495 0.0555741 1.07523e-20)
(0.965048 0.0673268 -3.59153e-21)
(1.00236 0.0684842 2.46676e-20)
(0.969123 0.0672166 9.58771e-21)
(1.02399 0.0154725 -1.01114e-23)
(1.02376 0.0157019 -1.37812e-21)
(1.02358 0.0151129 5.13194e-22)
(1.01578 0.00923836 -3.2626e-23)
(1.01557 0.0090021 3.88186e-23)
(0.537341 0.0303349 4.99543e-21)
(0.541984 0.0305994 0)
(0.95304 0.0690141 7.5853e-21)
(0.960554 0.0683323 -1.30216e-20)
(0.994667 0.0690283 -9.05151e-21)
(0.811377 0.0657456 2.16282e-20)
(0.833346 0.0639615 1.27295e-20)
(0.791046 0.0610535 1.42695e-20)
(0.920203 0.0157915 -8.95107e-21)
(0.867902 0.0119169 -9.4269e-21)
(1.0068 4.43692e-05 3.07849e-22)
(1.00666 2.90549e-05 -4.96792e-23)
(1.01837 0.0117959 6.55907e-22)
(1.0182 0.0114701 3.60459e-22)
(1.01849 0.0117548 6.32315e-23)
(0.920119 0.0692818 -2.21914e-21)
(0.914821 0.069803 0)
(0.957578 0.0703558 0)
(1.02331 0.095719 4.23756e-22)
(1.02083 0.101581 8.52511e-23)
(1.00696 5.86553e-05 1.29523e-22)
(1.00667 6.49797e-05 -1.42369e-22)
(1.01935 0.0166702 0)
(1.02523 0.0122339 -1.39903e-21)
(1.02556 0.0126411 -1.40461e-21)
(1.02506 0.0124433 -1.35376e-21)
(1.02702 0.0246873 -1.90935e-23)
(1.02721 0.0232801 -1.9174e-23)
(1.02566 0.0239474 5.82308e-22)
(1.04043 0.0454958 2.58274e-21)
(1.07337 0.0698477 4.55034e-21)
(1.07279 0.0686777 4.50002e-21)
(1.07192 0.0696647 8.08996e-22)
(1.02877 0.0790873 -1.82746e-21)
(1.028 0.0759736 -4.2489e-22)
(1.03137 0.0769189 3.88266e-22)
(1.00287 0.0234292 2.17391e-22)
(0.999416 0.0186166 -3.43255e-21)
(1.08068 0.0370803 5.00805e-22)
(1.07989 0.0376304 0)
(1.08081 0.0380689 0)
(0.496752 0.0212379 4.21405e-22)
(0.481304 0.0179406 -5.22777e-21)
(0.492842 0.0205865 -5.59507e-21)
(1.0117 0.00442701 6.01205e-23)
(1.01157 0.0044605 5.45531e-24)
(1.02444 0.0158335 -1.11064e-21)
(1.02422 0.0152476 4.2503e-21)
(1.02323 0.0166595 -2.26464e-22)
(1.02434 0.0156262 3.68232e-22)
(1.07963 0.0618629 6.45014e-21)
(1.07948 0.0617877 1.17849e-20)
(1.07936 0.0615889 2.73027e-20)
(1.00068 -3.28056e-05 -1.16173e-23)
(0.99998 -2.36813e-05 -7.63519e-23)
(1.00074 -3.64351e-05 -1.78008e-22)
(0.416419 0.0068323 -1.61223e-20)
(1.08147 0.036608 5.21551e-22)
(1.08041 0.0362569 6.91056e-23)
(0.906884 0.127479 0)
(0.90703 0.122711 0)
(1.02337 0.0136067 1.57955e-21)
(1.02379 0.0137045 2.05227e-22)
(1.02368 0.0887212 -4.24615e-22)
(1.02577 0.0925342 2.73822e-21)
(1.02778 0.0889297 1.96082e-21)
(1.01192 -0.00681751 9.70971e-23)
(1.01269 -0.00532276 6.26359e-22)
(0.917667 0.0949702 0)
(0.90814 0.0782666 -1.4428e-21)
(0.887547 0.0994439 0)
(1.01248 -6.6451e-05 1.50265e-22)
(1.01233 -6.45169e-05 0)
(1.01213 0.000140369 2.6351e-22)
(1.09129 0.0784227 -5.72642e-21)
(1.06805 0.114124 -3.4425e-21)
(1.02899 0.0330808 -4.95104e-23)
(1.02974 0.0320725 3.73066e-23)
(1.02426 0.010203 9.85232e-22)
(1.02478 0.0102401 9.42805e-22)
(1.05865 0.0584703 4.19694e-21)
(1.06101 0.0584572 6.23498e-21)
(1.03058 0.0581182 5.99988e-23)
(1.01054 2.87506e-05 -3.8391e-23)
(1.01036 -8.05485e-05 1.84499e-22)
(1.0102 -7.86181e-05 9.2411e-23)
(0.59874 0.0148011 -1.10278e-20)
(0.547223 0.00494211 -2.25398e-20)