/*--------------------------------*- C++ -*----------------------------------*\
| =========                 |                                                 |
| \\      /  F ield         | OpenFOAM: The Open Source CFD Toolbox           |
|  \\    /   O peration     | Version:  v2012                                 |
|   \\  /    A nd           | Website:  www.openfoam.com                      |
|    \\/     M anipulation  |                                                 |
\*---------------------------------------------------------------------------*/
FoamFile
{
    version     2.0;
    format      ascii;
    class       volScalarField;
    location    "500";
    object      ddt0(k);
}
// * * * * * * * * * * * * * * * * * * * * * * * * * * * * * * * * * * * * * //

dimensions      [0 2 -3 0 0 0 0];


internalField   nonuniform List<scalar> 
13851
(
7.77929e-08
0.00021814
2.67854e-07
-9.23897e-08
1.05101e-07
-2.30166e-05
1.45221e-07
5.89825e-07
3.34101e-08
2.8905e-06
0.000104995
0.00513521
-0.000265745
0.00396041
1.78443e-07
6.12174e-07
2.16977e-07
1.20836e-07
2.00127e-06
2.90299e-08
-7.01551e-08
2.14893e-07
-1.20679e-07
3.72577e-07
-1.40788e-07
7.26046e-07
1.78552e-07
0.000469574
5.30825e-08
1.00315e-07
-1.62364e-05
2.27763e-07
3.94502e-07
0.00384335
3.61005e-07
1.95465e-06
-3.6547e-06
-1.02507e-05
2.65627e-06
0.00221987
-1.92746e-08
-7.71563e-08
-0.000715567
0.000221681
-5.75649e-05
0.00231286
0.000235203
-0.00302911
1.84431e-07
3.98798e-05
6.55122e-07
1.31714e-06
0.000613969
1.82839e-07
6.08514e-08
-8.21233e-08
2.67569e-07
0.000149131
1.21182e-07
1.36835e-07
-1.82012e-05
-0.00181664
1.11636e-05
2.79541e-09
-2.85823e-05
1.21791e-07
-1.28039e-05
0.000205548
3.58231e-07
2.18459e-07
0.000265969
-0.000193494
-0.00138683
1.87038e-07
1.36093e-07
-1.13488e-08
3.15415e-07
-8.99943e-05
3.79817e-07
0.000342406
1.25459e-07
-0.000376636
1.1782e-07
0.000928544
1.16342e-05
0.00450497
-4.48693e-05
0.0106117
2.27488e-07
3.01879e-07
1.96475e-06
-3.92335e-05
-3.33069e-05
2.88008e-07
2.22262e-07
4.38544e-07
7.22353e-08
0.000250938
4.59924e-05
4.30314e-07
0.00343762
4.14262e-07
1.33427e-07
1.60264e-07
-3.99547e-07
6.10778e-05
4.50392e-07
-4.34972e-08
-0.000804178
1.24549e-05
5.19452e-07
3.40352e-07
-3.00998e-06
4.76366e-07
5.11192e-07
0.00626346
0.000352989
-1.57235e-08
-1.23105e-08
-1.0832e-07
-0.000681711
1.53329e-07
-7.72126e-06
0.00511963
-0.00303696
4.49558e-07
-0.00267037
3.86714e-07
-9.68412e-08
-9.77878e-08
-4.3915e-09
6.1236e-08
0.000300795
1.19579e-07
0.0048758
7.27335e-08
-1.34227e-08
-0.000136643
-0.00705146
0.00265137
0.00258335
1.08369e-07
-2.49404e-07
-8.2359e-08
1.37906e-07
0.00045433
0.000308386
-1.51818e-07
1.47767e-07
-0.000515274
8.43479e-07
4.51822e-08
0.00558218
2.79799e-07
1.41861e-07
1.35416e-07
-6.7049e-08
1.41128e-07
1.21079e-06
6.318e-07
-6.89248e-08
2.57058e-07
0.0005327
6.26697e-08
-1.39017e-07
-1.02546e-07
0.000422102
3.58694e-07
-9.39528e-08
0.000246169
-6.08671e-05
6.58127e-08
-6.86274e-08
0.00168832
6.58241e-08
-0.00434971
3.89483e-07
2.97624e-07
-2.33841e-06
-6.68841e-08
2.56823e-07
-0.00044154
1.28301e-07
2.60531e-08
-6.0576e-08
1.21124e-07
3.63677e-07
1.55236e-07
-1.63823e-07
9.45488e-06
0.000417946
0.000739626
4.49644e-07
3.64174e-07
-0.00196846
1.33017e-07
-2.29088e-07
-0.00389004
1.72662e-07
-1.57645e-08
-7.85538e-07
0.00224367
-3.84919e-07
1.05087e-07
4.71872e-06
1.21227e-07
-0.0091271
2.19934e-07
1.77412e-05
-1.12267e-07
-0.000946246
9.47479e-08
-0.00122317
-4.95068e-08
-1.2975e-07
-6.25573e-05
-8.84819e-06
0.00252744
1.7426e-07
-1.99479e-05
2.28159e-07
1.21778e-07
-0.000429876
4.49525e-07
-0.000446328
3.56962e-08
3.31451e-07
-4.22163e-07
0.000510961
-5.71152e-08
7.08038e-07
5.47126e-06
6.01736e-08
4.15489e-07
6.49094e-07
-2.28798e-06
-0.00717867
-5.82419e-05
-1.06298e-07
1.06604e-07
3.19151e-05
-0.00161256
7.93851e-07
5.23735e-06
-3.64396e-07
-0.000240183
3.93284e-07
-0.00245329
1.33656e-07
2.00077e-07
4.79894e-06
-0.000989862
1.25706e-07
1.34179e-07
5.44264e-07
5.18602e-05
9.90415e-06
-0.000449916
-3.6178e-05
1.49036e-07
-1.14265e-07
4.27715e-07
0.00140718
-2.58897e-08
0.000404171
1.3241e-07
1.35043e-07
2.74812e-07
-0.000534671
5.05919e-05
4.72316e-06
1.41678e-07
0.000395778
3.77313e-07
5.55279e-07
5.77787e-08
-0.000543671
0.000906477
-0.000445192
-2.25179e-05
1.02772e-06
-8.86348e-08
-3.79306e-07
5.16112e-07
-0.000431016
-0.00775906
1.21698e-08
1.85335e-07
0.000216463
-0.000883147
1.95942e-07
1.38528e-07
1.40871e-07
3.82766e-07
-0.000767001
0.000340476
-8.18247e-08
0.00470935
5.0293e-08
-0.000315264
2.52302e-07
2.04226e-07
-0.000594771
7.70316e-08
3.82837e-05
-0.000469634
2.36432e-08
4.68339e-07
2.93685e-07
1.52198e-07
-0.00817977
-7.36825e-08
1.2668e-07
-0.000166751
-8.87793e-08
2.09137e-07
-5.46681e-06
-0.000725569
1.69607e-06
1.66244e-07
4.69781e-07
1.67567e-07
-0.000152408
1.0228e-05
-6.576e-08
-1.52687e-07
1.68728e-06
3.20024e-07
1.39853e-07
1.86968e-07
7.48308e-08
1.23703e-07
3.88675e-05
0.00128431
1.14648e-05
7.81127e-07
-0.0008658
0.00106089
1.8475e-07
3.7088e-07
3.28842e-07
-8.12063e-05
-3.45257e-06
1.2995e-06
-7.30517e-06
1.18671e-06
-0.0137433
-0.000472868
1.87406e-07
-0.000918239
-0.00118688
3.50816e-05
1.3969e-07
-5.39466e-06
0.000553598
-6.83947e-08
-0.00918368
-1.55215e-07
1.75386e-07
-3.04495e-07
-4.77454e-08
-2.28837e-08
-0.000599152
-0.00135629
8.99553e-08
4.32162e-07
-1.30223e-07
0.00367398
1.14941e-06
-0.00884673
-0.000145408
8.5863e-08
-1.48177e-05
3.09302e-07
-0.00956155
4.01293e-10
-1.65254e-08
5.34208e-06
0.00200232
1.36734e-07
-0.00745265
-9.34233e-05
1.63406e-06
0.00085483
-0.00118206
-0.00143881
2.59577e-06
5.23437e-08
1.98253e-07
7.50931e-07
4.84998e-07
0.0053437
3.57371e-07
-0.000667798
-0.000477969
-1.25315e-07
1.59316e-07
0.000520362
0.000341757
2.25646e-05
0.000272513
9.2632e-06
3.27202e-07
3.28081e-07
0.0013735
7.48818e-08
5.80106e-07
1.94741e-06
1.24399e-07
-4.15498e-07
2.6993e-08
-1.17243e-07
5.64281e-08
-3.27287e-06
-0.000159976
5.25552e-07
4.89729e-07
1.16445e-06
-0.000595803
1.99439e-07
-5.69974e-06
1.9638e-07
-6.87222e-05
-1.24183e-08
2.83172e-08
1.40489e-07
2.07633e-05
0.000600665
2.85836e-07
7.36287e-07
-9.48517e-05
0.0047112
-1.29491e-05
-4.42324e-08
6.82943e-07
7.45364e-09
-0.000346567
-3.83497e-07
-0.00386916
-0.00113618
6.92351e-07
-1.87154e-05
1.03053e-07
0.00084571
-0.00142601
-0.00357345
-2.33886e-08
3.61022e-07
3.71271e-07
0.00014866
6.40208e-08
1.24291e-07
8.0074e-07
1.43797e-06
-1.00765e-07
-0.00327183
2.98916e-08
-1.63633e-07
-0.000475353
-2.40786e-07
-7.77802e-08
0.0075048
5.34626e-08
-2.17114e-08
4.96341e-08
-1.91847e-06
1.74133e-07
-8.81008e-08
2.3183e-08
-6.96779e-05
1.13699e-07
3.8763e-07
7.50796e-08
-3.98065e-06
0.00115227
4.24562e-07
-3.76499e-08
4.70649e-07
4.99847e-07
-0.00471739
1.29456e-07
-4.63627e-05
1.30687e-07
2.96871e-07
0.00159109
1.07657e-05
1.18705e-07
-7.73238e-06
2.26005e-07
-0.00239459
0.00137706
-1.62884e-07
-0.000568592
3.52763e-10
3.00598e-09
1.28141e-07
0.00073035
-5.2178e-08
0.000694001
9.74185e-06
-8.17606e-08
-1.25489e-05
-6.06792e-05
8.45746e-07
-0.000479397
9.03293e-08
0.00427784
3.08502e-08
6.02797e-08
5.01466e-08
1.3402e-07
0.00034258
5.53708e-07
2.12558e-06
-4.44534e-06
-1.66476e-05
-1.00195e-07
0.0012898
0.000652753
2.67897e-07
2.66141e-07
-0.00297867
0.0037594
-0.00124871
1.81057e-07
0.000842575
0.00167422
0.00284431
-1.47555e-07
4.98493e-07
-0.0013418
0.000957474
0.00252172
-0.00332681
-0.00817864
1.34753e-07
-0.00711716
-0.001495
-1.57589e-08
0.000922785
5.85919e-07
2.22207e-05
1.27136e-07
1.3007e-07
-5.29386e-08
4.33656e-08
-6.4061e-08
-1.59422e-06
0.0122383
-0.00383705
5.23604e-08
-0.000633967
-0.000131854
-0.000415419
7.01737e-05
3.7724e-07
-5.64608e-08
3.43733e-08
0.000957036
0.00115875
1.43455e-07
1.20593e-06
2.60349e-06
-7.74136e-08
1.8816e-06
0.00153247
-2.59875e-05
8.61952e-07
0.000333525
-0.0014639
-5.42577e-09
1.2916e-07
0.00390814
-0.000443404
2.01932e-06
3.59622e-07
3.38397e-05
-6.11045e-08
8.86275e-08
-0.00520532
-6.66255e-08
1.27903e-07
-6.51215e-08
8.69497e-08
-0.00160837
-9.50761e-09
-4.89433e-07
-6.54687e-08
-0.00708517
-0.0029023
4.47755e-08
2.03019e-07
-7.14817e-08
2.0096e-07
0.00169154
-0.00398583
-0.00256242
0.00305047
0.00307274
3.38351e-07
2.81739e-05
4.95854e-05
1.45653e-06
3.62565e-07
-5.49999e-08
-3.99038e-06
7.26965e-07
9.55994e-05
-0.0127587
1.2006e-06
3.67514e-07
4.22602e-08
4.62378e-07
-6.04611e-07
-5.9629e-05
4.96665e-07
1.34803e-07
4.90897e-07
6.38151e-08
2.63079e-07
3.16402e-07
1.36956e-07
7.8427e-09
1.41665e-06
1.1873e-07
3.35631e-08
2.08436e-05
3.71477e-07
2.36112e-07
2.13939e-06
4.36404e-08
9.87953e-06
6.6173e-06
0.00349443
9.94839e-08
4.81408e-07
-0.000771735
3.35958e-07
0.000561899
-0.000363347
0.00219117
0.00639783
6.61378e-08
-0.000357487
1.70034e-06
7.7543e-08
-4.48301e-08
8.01833e-08
4.36555e-05
5.23133e-07
-1.43e-06
-5.75244e-08
-0.0004548
1.01046e-05
-0.000405257
-3.16179e-08
-9.87374e-08
-1.40643e-07
-2.17658e-07
-0.00189938
5.86044e-07
2.6915e-07
1.6182e-06
3.69258e-07
1.40949e-07
-9.37422e-08
1.91905e-05
0.00120199
1.15741e-07
-5.87923e-08
1.38905e-07
-8.65281e-08
-0.000561746
0.0010713
5.43679e-07
0.000205323
0.00372921
7.23085e-09
1.94663e-06
-0.000311578
3.73224e-07
0.00536593
1.26452e-07
2.71477e-07
5.70386e-07
5.36199e-07
-0.00163176
1.2163e-07
0.00170654
-3.84346e-07
2.98998e-07
-5.28085e-05
-1.50403e-08
3.50372e-07
3.37141e-05
5.91229e-08
2.37259e-07
0.000707001
0.00214214
4.6946e-07
0.000426761
-0.000318477
-5.23016e-08
-2.30175e-08
0.000335587
2.10992e-06
-2.91681e-06
-0.000438646
1.25164e-07
2.49669e-07
-1.74024e-08
0.0017232
-8.07657e-06
2.49848e-08
-3.55538e-08
0.000574149
1.88455e-07
-1.35845e-07
-0.000548786
-0.000437978
-0.000238518
-9.01293e-08
1.12767e-07
-1.73273e-05
0.00112666
2.08316e-06
-5.30502e-07
-0.00192457
1.19219e-07
-1.50486e-05
-1.70186e-06
7.0559e-07
1.80996e-07
0.00204213
3.48429e-06
-4.98706e-07
-7.2058e-08
4.65501e-07
-4.00827e-07
1.65754e-07
4.75094e-08
-0.000390765
5.47681e-07
1.02106e-06
7.45547e-08
0.00110869
4.07654e-08
0.00101417
1.85587e-07
3.49027e-06
-1.29073e-07
2.16687e-08
1.10077e-07
-0.000438841
-3.78416e-08
-3.01273e-08
-0.000343556
1.32269e-07
-3.13538e-05
-3.21968e-07
-4.60971e-07
8.07881e-07
-0.00300683
-0.0033606
5.15366e-08
0.000172618
0.000478579
1.33748e-07
-0.0008309
2.91965e-07
4.94324e-08
6.55793e-06
-0.000713475
3.68203e-05
1.5399e-07
5.68872e-08
-4.38934e-08
-0.00043363
5.62508e-07
-2.16031e-06
-4.83247e-08
7.06254e-06
1.84652e-07
-5.66973e-07
1.01753e-06
0.00240189
-1.53008e-07
-0.00344115
9.9885e-08
-4.18206e-08
7.82807e-07
-0.000843504
2.3814e-08
-0.00610777
-5.36899e-06
1.36189e-07
0.000592704
-1.94133e-06
0.000534667
0.00332001
-0.000224756
-0.000463413
1.19581e-06
4.61254e-08
1.11132e-06
-8.53651e-06
0.000664336
-1.40282e-07
2.32765e-07
6.47282e-07
0.000272679
-6.53217e-08
0.00111783
1.20184e-07
9.9415e-08
-0.000348994
-3.96754e-05
-0.000439952
7.5279e-08
1.74279e-07
0.00106986
1.53251e-05
1.86343e-06
-6.28756e-08
5.65186e-05
-1.30049e-05
-0.000691251
4.61341e-07
4.28043e-07
1.28398e-07
1.29926e-07
-0.00197116
5.29487e-07
0.000336795
1.36939e-05
3.56005e-07
-0.000240664
0.000365209
-0.000108211
1.13921e-07
3.131e-07
4.48106e-08
3.88577e-07
3.32992e-07
0.00559706
1.90405e-07
0.000205067
-5.89684e-08
7.45423e-07
5.18138e-08
9.71367e-07
3.44234e-07
3.08981e-07
0.000199765
4.71019e-07
-2.14542e-06
4.24456e-07
7.26661e-07
-0.0058348
3.46255e-05
1.20715e-07
-3.55701e-05
6.21663e-08
0.00567053
-0.000765597
1.00121e-07
-0.000754955
0.00357214
-5.5177e-05
-0.000164094
1.07721e-05
-1.378e-07
-0.000236533
1.82176e-07
0.00683478
4.99097e-05
-2.76278e-08
1.28936e-07
5.3929e-05
-0.00117042
0.000720677
1.00339e-07
1.75575e-07
0.00626762
-1.60589e-05
7.12091e-07
1.3574e-07
-1.60477e-07
-0.000305429
0.000532191
7.68455e-07
-3.11105e-08
1.17698e-06
6.33176e-08
-1.6214e-07
-0.00181289
3.74658e-07
-0.00285538
-0.000105939
9.38408e-08
-1.36304e-07
-1.43072e-07
1.4944e-07
0.000168
-0.000138574
3.40862e-07
-0.0077633
6.41683e-08
3.55279e-07
-1.25606e-07
6.32506e-08
7.94204e-08
9.15747e-08
0.000123902
1.15327e-07
5.57148e-07
1.11817e-07
1.71307e-07
-0.00215002
0.000565292
1.02514e-07
0.00303436
-2.0069e-07
-0.00630506
5.78904e-07
4.98476e-07
0.000284787
2.58929e-07
-1.74192e-06
0.00536094
0.00797144
0.0001536
5.15408e-07
-0.000262956
7.90689e-08
4.39982e-07
4.31534e-07
-0.00202433
1.34454e-07
0.000627834
-1.43805e-08
-3.80444e-08
0.00342097
4.92535e-07
-2.91026e-05
1.95168e-07
4.86049e-08
4.37468e-06
4.74978e-08
1.76579e-07
3.86987e-06
1.27415e-07
8.92047e-07
-3.28297e-08
1.22305e-05
0.000277231
5.03128e-06
0.000600163
1.26912e-07
2.1724e-07
-8.86579e-06
3.91918e-08
5.77796e-08
8.87275e-07
1.20959e-07
2.10922e-08
-3.05903e-08
-6.61424e-08
-0.000109972
0.000508616
3.29598e-05
0.000156848
2.77027e-05
1.18966e-07
-0.00490382
3.49553e-07
-2.16009e-08
0.00094891
-0.000129599
-0.00084976
1.34285e-07
0.000158262
-0.000543169
0.000487655
5.48434e-08
5.83039e-05
5.14471e-07
1.80132e-07
3.90094e-06
1.14672e-07
-0.0140342
7.59111e-06
-0.00573581
8.80249e-09
1.25126e-07
-0.00125006
1.02106e-07
-0.00123522
-0.000492031
0.0077645
-1.60341e-05
0.000212376
2.27896e-07
6.78852e-08
-9.94666e-06
-3.5375e-06
1.57108e-07
-3.14831e-06
5.1338e-07
1.14158e-07
-2.66446e-07
0.00083686
1.18517e-08
-0.000245187
0.00058521
0.00568821
2.56082e-06
2.09027e-07
1.80437e-08
-3.66762e-08
-0.000858968
0.000195539
5.21258e-08
1.96183e-07
2.38534e-08
6.62155e-07
-6.45595e-08
4.07382e-08
1.18975e-07
3.62282e-07
-1.56583e-06
-1.92656e-06
1.05134e-07
1.06746e-07
5.6119e-07
0.000948306
1.19234e-07
0.000575175
0.000446409
9.88944e-07
-6.98785e-08
4.64953e-07
1.27875e-07
-7.93335e-08
-4.17514e-08
-0.00010994
1.84129e-06
0.00115873
1.59487e-07
2.42355e-05
1.26726e-07
-3.77498e-07
5.00613e-08
-0.00544525
0.0122002
-1.14636e-07
3.63342e-07
-4.99214e-06
0.000170016
4.53089e-07
0.00663898
4.62629e-05
-0.00812518
1.64281e-06
-0.00116979
1.15137e-06
8.50414e-07
-2.32449e-06
-0.000134005
0.00175653
0.00322304
2.42451e-07
-3.2441e-05
-6.56206e-08
1.18916e-07
2.18584e-07
1.04522e-07
-8.16629e-05
4.22059e-07
2.94798e-07
-0.000188434
1.35438e-06
-0.00437359
1.69601e-07
1.66019e-07
6.54272e-09
2.2772e-08
1.36903e-06
0.0046195
-9.54093e-05
-0.00495889
1.28633e-07
2.55955e-07
3.65525e-08
0.00318838
0.000256676
-1.12569e-05
-2.89191e-08
1.19769e-07
0.0010953
8.27285e-07
-0.0135455
0.00139954
-3.97237e-06
-7.28285e-08
-0.000733119
1.51821e-06
4.10044e-07
3.15175e-07
-0.000870149
-0.00184866
-8.58902e-08
-1.77428e-05
1.47959e-07
-1.80798e-06
9.95795e-08
-0.000151899
-2.80344e-06
-8.01781e-05
1.42038e-05
2.19174e-07
2.32388e-06
1.31782e-07
-0.000973952
1.82904e-05
-2.66283e-07
0.00432261
-9.18066e-05
0.00634346
-0.00153774
1.2949e-07
6.8006e-08
8.93278e-05
0.00138614
0.000612353
9.98318e-08
1.3673e-07
9.24859e-08
-8.45953e-05
1.99824e-06
1.25676e-07
-0.00171326
2.28935e-07
-0.00711215
-0.000669923
-0.00857141
1.37117e-07
-0.00188
2.01875e-07
-3.63541e-08
2.25979e-06
-0.00266116
1.46696e-07
-1.19596e-08
0.000502767
-0.000947391
-4.14132e-07
1.18094e-07
0.000837538
-2.46415e-07
0.00091662
1.3471e-07
0.00286138
5.09202e-08
5.69476e-07
-0.00216762
0.000166468
1.29467e-07
-0.000514329
3.50948e-05
-0.00141576
-0.000137031
-0.00920041
3.84076e-06
9.61384e-08
0.000424746
4.11528e-07
1.65709e-07
1.24539e-09
-0.00131634
8.79681e-09
-6.93724e-06
-2.18705e-08
-7.42366e-07
-0.000180407
1.17961e-06
-0.00159481
1.37056e-07
-2.7072e-05
5.31874e-08
3.38199e-07
-0.000548942
0.00242203
7.15453e-08
5.15145e-07
8.52671e-05
2.32859e-08
1.2826e-07
-0.000167376
3.638e-07
8.4393e-07
1.92128e-06
0.0063254
0.0142382
-0.000284165
-0.00112577
2.45936e-05
-0.000128253
0.000403442
0.00814452
4.44399e-07
-1.88376e-07
2.13531e-06
9.03815e-08
1.30958e-07
0.000808059
-0.000116602
3.00112e-07
0.00641759
0.000186828
-0.00021195
-0.000240294
7.74769e-05
1.76888e-08
9.35106e-05
2.4061e-05
2.65305e-07
1.32865e-07
-0.000581304
-0.000210035
0.00677419
-0.00125032
-1.02297e-06
0.000194569
-0.000695528
3.35205e-07
1.33004e-07
-1.32344e-08
-0.000631764
7.37758e-08
2.04655e-05
8.94216e-08
1.20321e-07
3.22079e-07
0.000896067
-0.00111844
0.000421639
-4.75054e-08
-0.000829599
4.18304e-08
-3.28039e-07
1.33796e-07
-2.43077e-07
-0.000163156
1.91336e-07
8.08954e-05
-0.000292269
-0.00159886
1.73934e-06
1.88158e-07
9.27726e-07
8.78346e-08
1.54786e-06
3.42064e-07
1.33435e-07
-3.77011e-08
7.20461e-08
2.16224e-06
1.07931e-07
7.21109e-07
1.48952e-07
7.95316e-07
1.25578e-05
0.00019242
-5.15362e-08
3.97236e-07
-3.79474e-07
-0.000175892
1.10902e-05
0.00165077
-0.000129032
3.26786e-07
1.64699e-07
1.75809e-07
9.85547e-05
-4.98345e-09
0.00120918
1.83785e-07
-2.83513e-08
-3.09034e-07
-0.0002439
2.87618e-07
4.40857e-08
3.25614e-07
-2.08699e-07
7.09694e-07
7.4356e-05
0.000499628
3.71664e-07
1.02724e-07
1.54993e-05
-2.14485e-07
3.45988e-10
2.37848e-06
0.000158738
-3.65872e-07
-4.29262e-07
6.78535e-08
-0.00100463
1.2895e-07
1.1845e-07
0.00024946
1.32299e-07
2.62325e-05
3.10743e-05
-0.00104816
4.27401e-08
5.55002e-06
1.10787e-07
-0.000396363
1.57818e-06
6.56496e-07
1.82252e-06
0.000594596
1.22965e-07
-0.00152573
-0.0158422
-3.75422e-08
0.00123162
9.89392e-07
1.34118e-07
-0.000682589
1.02421e-07
-1.46499e-07
1.05074e-07
8.25637e-07
6.13114e-05
2.30704e-06
1.34952e-07
1.2089e-07
2.95536e-07
-0.00294518
1.32073e-05
-0.00123225
-0.000216085
1.08808e-07
1.68697e-06
-1.73338e-07
-0.000180951
1.79483e-06
0.000120753
7.19277e-08
9.24876e-08
1.13809e-07
0.00166252
-1.27897e-06
1.09019e-07
0.000835826
-4.8434e-05
4.90603e-07
-6.97821e-07
-1.04473e-07
-2.15463e-07
2.89891e-06
6.92116e-07
-0.00111148
3.76652e-07
8.23431e-07
5.49262e-06
-3.20013e-07
-0.0131569
-0.00019264
-0.00116013
-6.77888e-08
3.48964e-08
4.54602e-06
0.000705341
-0.00031402
1.50866e-05
3.24139e-07
-0.000137371
6.41277e-05
-2.87783e-08
2.34878e-07
1.03227e-07
4.21208e-07
7.28236e-07
0.000312443
0.00117941
1.6086e-05
1.35313e-07
-1.75348e-05
-9.59448e-05
1.45794e-07
-4.99202e-06
-0.0063246
-0.000398999
1.70823e-07
9.1604e-07
-5.47628e-08
7.53994e-08
2.62173e-07
1.25799e-07
-0.000815954
4.28823e-05
-4.10346e-05
0.00157387
1.28784e-07
-1.42084e-07
4.19678e-06
-2.53572e-07
1.22233e-07
1.00448e-07
-6.34561e-05
6.63563e-08
-0.00137191
-1.05916e-06
3.87872e-06
5.12359e-07
2.05673e-06
-7.50071e-05
-0.00142968
4.18358e-07
-1.35805e-07
-7.84058e-06
-0.00107445
0.000338622
2.05553e-07
8.73355e-08
7.24859e-08
5.70811e-07
4.62094e-07
2.23313e-06
-0.0121506
1.23742e-07
1.08641e-07
1.49626e-06
1.6434e-05
0.000130829
0.00396798
1.14566e-07
4.13223e-07
-4.02001e-08
-0.000385718
-7.55836e-08
7.22148e-05
9.4703e-07
1.26243e-07
1.59218e-06
2.07108e-07
-0.000165504
3.39886e-07
4.00959e-07
9.64601e-05
-0.000161406
2.30908e-07
4.13589e-07
3.38163e-08
-0.00125668
0.000565593
1.52217e-07
-4.12153e-08
0.000342512
-1.44679e-08
0.000385224
-4.01519e-07
-4.0315e-07
8.17934e-07
-0.000139905
-1.38398e-06
-1.17505e-07
1.43365e-07
8.46018e-07
-0.000677332
8.9866e-08
0.00758905
0.00463554
-0.00211732
-0.00147258
-5.98431e-07
-0.000239002
1.9829e-07
5.51014e-06
1.3423e-07
-0.000754241
-0.000574867
-2.4527e-05
0.000874262
-0.0132412
2.10516e-06
-2.62513e-06
2.22679e-09
0.000127575
0.000762635
-0.000448315
0.000232526
1.55847e-07
-0.0165315
-0.0037112
-6.90044e-07
2.48723e-07
1.33029e-07
0.000177457
1.84463e-07
8.16431e-07
1.69836e-07
3.85781e-08
6.58939e-08
9.60301e-08
0.000594802
3.16708e-06
5.19122e-07
0.0012557
-3.05932e-05
1.43802e-06
1.24202e-07
1.38163e-07
-5.33434e-06
0.000144617
-4.19252e-07
9.19704e-08
-1.96702e-07
0.00916694
7.11111e-07
3.91001e-07
0.00110041
4.44126e-07
-0.000887624
2.99841e-07
2.49264e-07
1.193e-07
2.27859e-07
3.98238e-07
0.000752791
-0.000565669
0.000155758
4.67571e-07
-0.00815796
1.48227e-06
2.00379e-07
-1.14329e-07
-0.000588991
0.000732488
0.00377484
-0.000262512
1.64466e-07
1.00801e-07
9.03832e-08
1.78958e-07
9.80194e-08
-0.000577464
4.15942e-07
0.000625317
6.28777e-08
0.000623678
-0.0065774
-0.000345898
1.325e-05
2.27607e-07
0.000590441
-8.04969e-07
0.00385664
0.00031392
5.85031e-08
-1.76595e-05
2.99002e-07
-0.00353376
-0.000547646
1.07963e-07
-0.00374262
0.000319341
-1.72079e-08
-3.41985e-06
1.94738e-07
0.00395032
-0.00129693
1.85484e-07
1.45241e-07
-0.000572885
-0.00235302
4.91846e-07
0.00751753
2.10072e-06
-5.05308e-06
8.65717e-08
0.00362159
0.00020457
2.51638e-06
3.15134e-07
0.000444503
-0.000157218
-7.62775e-09
1.22323e-07
1.91235e-07
-0.000556002
-0.000218581
1.37052e-07
0.000113724
1.09321e-07
-2.11276e-08
8.49719e-08
0.00126302
1.02093e-05
3.22326e-06
-0.000443298
2.61561e-07
1.29853e-07
6.01893e-08
-0.000197222
9.66054e-08
-0.0047146
-2.73597e-08
0.00376397
1.23657e-07
7.21099e-08
9.57721e-08
-0.00072064
0.000637339
9.19998e-07
0.000114471
4.36755e-07
9.94731e-08
1.19859e-07
6.3752e-07
3.60291e-07
4.08826e-07
-1.18413e-06
-0.00125627
1.95249e-07
-4.19193e-07
-3.72733e-05
-0.0129369
-1.30164e-07
7.73055e-05
4.5747e-05
1.88336e-07
0.00190065
7.54351e-07
0.000937643
1.09358e-07
5.21472e-06
-2.12515e-08
0.00227246
0.000165569
-5.50232e-06
-0.000838281
3.65853e-07
5.38605e-07
2.17291e-07
2.8563e-05
-1.07261e-07
9.61062e-08
-0.00390094
3.05174e-06
0.000532674
-0.00054147
7.20371e-07
3.68319e-07
1.02931e-07
-0.0106665
1.77508e-06
2.37057e-07
1.81453e-06
3.22024e-06
4.29566e-07
9.95389e-08
-0.00323703
5.03023e-08
0.000414065
-0.000109219
2.78235e-06
-0.000111208
2.61958e-06
-0.000394027
-3.84625e-08
-0.000417662
-0.0034666
4.92349e-08
1.1321e-07
1.25591e-07
1.18697e-07
6.2991e-07
9.44529e-08
-0.00270752
8.70262e-07
4.74408e-05
-0.000747567
-3.72662e-08
1.28623e-07
1.26183e-07
-0.00179261
9.63124e-08
-1.09541e-08
-1.29414e-05
1.63684e-07
0.00640407
-0.000962759
1.17223e-06
3.72991e-08
6.7899e-07
1.32125e-07
1.08579e-07
-5.88895e-06
-2.64707e-08
1.69051e-07
0.000149375
-3.81847e-05
0.000642258
1.31137e-07
-0.000101425
0.0108429
1.17487e-07
0.000525354
-0.000491959
1.38129e-07
1.5782e-07
1.70367e-07
-0.00170404
0.00197889
-0.00535185
-5.33639e-08
1.8571e-07
-1.83452e-07
1.4215e-07
7.67118e-07
1.96322e-08
-1.84145e-05
0.00035979
-0.00123044
4.8977e-08
1.71226e-07
1.4959e-07
0.0036236
-9.19313e-08
0.00166632
-0.000688838
0.000114331
0.00763065
0.000630916
-0.0114375
-2.14851e-07
-0.0031774
-0.00221087
1.19716e-07
9.78841e-08
5.91423e-08
-0.000864529
-0.000492443
0.000411813
-1.68428e-07
-0.000820872
9.89457e-08
6.48682e-07
2.1247e-07
1.2392e-07
1.20943e-07
5.1193e-08
0.0020125
1.24934e-07
0.00219959
0.00116295
0.00158263
1.00148e-06
5.8439e-07
0.00212028
-0.000634448
1.14006e-07
-0.000594041
1.24319e-07
-2.37582e-08
1.21336e-07
-2.64785e-05
2.38255e-07
0.000287756
3.1571e-06
3.66266e-05
-1.37543e-06
-0.00012283
0.000820433
-3.43715e-06
5.07991e-08
4.74995e-06
1.85161e-06
0.00241593
-6.592e-08
-1.01527e-07
6.44426e-08
0.00148898
-9.15965e-08
0.00172402
0.000551463
4.06851e-07
4.69646e-07
-1.44515e-07
0.000906274
1.28812e-07
0.000129825
6.59305e-08
-0.000703458
3.20669e-07
1.03676e-07
0.000452549
0.00118799
1.0381e-07
7.40164e-07
1.59146e-07
7.0823e-05
1.53897e-05
-3.96608e-05
7.37136e-06
1.26893e-07
4.08377e-06
0.000404137
4.15252e-07
-6.36566e-05
-1.28285e-07
9.09185e-07
3.3972e-07
-0.00125269
-0.000263289
9.29787e-08
0.000108404
1.24456e-07
4.17424e-07
0.000463215
0.000635013
-1.09487e-06
-0.000157699
7.39909e-06
1.47497e-07
0.00181943
1.84983e-06
3.18289e-07
1.20231e-07
0.000995781
1.11324e-07
-0.0067995
-1.61517e-06
-1.81433e-07
1.75403e-07
4.49715e-07
-5.17457e-05
3.89636e-07
-0.000311141
1.12458e-07
1.79154e-07
-3.42314e-05
0.00134654
2.16936e-07
-0.000621056
-0.00644006
0.00026419
6.62111e-08
0.001573
0.000878942
0.00160154
1.48442e-07
-5.57657e-06
-8.48156e-08
-0.00067493
-6.08978e-07
0.0011326
0.000606778
1.31766e-07
7.27867e-08
1.42889e-07
0.00238797
1.25679e-05
0.00355408
0.000958746
7.35945e-08
0.000133479
-0.000846334
2.21077e-06
-0.000382671
-0.00010866
-9.9937e-07
-0.00751943
1.53265e-07
2.0939e-07
-0.00132489
0.00110892
-2.25952e-06
0.00614949
-3.18023e-08
1.11122e-07
-0.00985315
-0.00024599
-0.00157449
0.000138376
3.79193e-07
1.30131e-07
1.4622e-08
-0.00137639
0.000911709
1.05365e-07
5.09319e-07
0.000858034
1.21616e-07
9.68817e-08
-0.000414328
-0.00760201
1.25562e-07
1.51366e-07
1.18664e-07
2.23223e-07
0.00689557
1.21741e-07
-4.50908e-08
1.01816e-07
0.000668595
-0.00871621
-0.006399
-5.99017e-05
9.32402e-08
6.39301e-08
-0.000227789
-0.000793966
-2.21275e-07
-4.75199e-06
1.74979e-07
4.14929e-07
-1.33416e-07
-3.15195e-06
1.48541e-06
3.90839e-09
-0.0121484
-7.28683e-07
4.33023e-10
8.57529e-08
0.000927241
-0.00496968
-8.16146e-05
1.1815e-07
-1.20329e-07
-0.000973801
0.000257154
1.78413e-07
-6.12404e-08
1.58457e-07
-0.00015724
9.99376e-08
2.19669e-07
3.50332e-07
1.13085e-07
-0.000196343
0.000106696
1.23496e-07
1.75191e-07
-6.19896e-08
3.53945e-08
0.00155771
-0.0038688
5.42436e-07
-0.000171083
-9.73917e-05
1.28358e-07
1.78493e-07
1.00266e-07
-7.0075e-08
1.27158e-07
-2.7876e-07
7.6049e-06
0.000508008
-2.85338e-07
1.64946e-07
-0.000132669
-2.29728e-05
-5.07063e-09
9.71534e-08
1.53144e-07
-0.00532269
-5.20503e-08
1.49567e-07
9.94224e-07
7.45144e-06
-1.62879e-07
-7.98419e-05
-1.62285e-07
5.68147e-05
9.76788e-08
-1.37651e-07
-7.81809e-08
1.16566e-07
1.62132e-05
0.000309105
0.000221674
6.84569e-07
-0.0023699
0.00588263
0.0048821
3.39323e-07
-0.000224559
-0.000216981
-1.18601e-07
-0.00249882
-0.000624346
1.65846e-06
0.00107813
1.21893e-07
2.43955e-07
-0.00145125
1.83197e-08
1.86583e-07
-0.0103381
1.45276e-05
0.00253048
-0.000101071
4.11043e-08
2.26867e-06
9.86872e-08
-4.7525e-07
2.01879e-07
-0.000172792
0.000222298
0.000388067
-0.0159358
9.47453e-08
1.28978e-07
7.09862e-07
0.00727833
-0.000151638
-5.73831e-07
-1.19189e-05
5.01751e-08
-7.30375e-05
0.000373269
6.37579e-05
1.52969e-07
9.12516e-08
3.16168e-07
3.80213e-07
-3.6459e-08
-4.56985e-08
1.79266e-07
-0.000188124
5.21287e-07
1.31809e-05
-0.000112343
-1.59718e-05
2.12185e-06
1.44336e-07
2.04731e-07
-1.55924e-07
1.13754e-07
1.31042e-07
-0.00399518
-0.00085143
0.00685537
-0.000716076
1.48806e-07
0.000932988
-4.27728e-07
-0.000672714
0.000298506
3.02519e-08
5.6766e-08
-0.0014459
8.55073e-08
1.08908e-07
0.00334822
-0.000175755
-0.000372667
1.03624e-07
9.92143e-08
1.1427e-06
8.67637e-07
-0.000286165
1.29067e-07
6.99311e-07
3.31052e-05
-2.87324e-07
0.00407482
9.18997e-07
-0.0105874
1.28074e-07
9.12329e-06
0.00694652
-4.532e-07
-0.00132405
1.05876e-06
0.000143365
-6.71963e-08
9.61221e-08
8.96513e-09
4.04471e-07
0.00203041
-1.04215e-07
0.000367742
-1.77073e-07
1.06055e-07
1.62327e-07
-0.000607138
4.09859e-07
4.67147e-07
-0.000544881
8.84226e-08
-8.58002e-07
-0.000977832
3.9102e-06
2.66129e-07
-2.10767e-07
7.00041e-08
-2.68642e-06
-9.15109e-08
-1.75559e-08
-0.000355025
-0.00138255
-0.000565098
-0.0012858
-8.54307e-06
0.000439822
8.37016e-07
-0.000759313
-3.46432e-07
-8.87063e-08
-2.18581e-07
-1.53113e-08
7.39519e-08
-0.00140761
-0.0012206
1.15602e-08
0.000411784
-9.3318e-05
2.83339e-07
-2.79594e-07
1.07194e-07
0.000379713
-0.000165938
-0.000143557
0.0128696
-0.000123307
-1.59053e-08
3.14495e-06
-1.78201e-07
0.0014559
-0.0012754
1.28182e-07
2.01848e-06
-0.000211222
-2.41186e-07
0.00455741
8.0325e-08
-0.000203725
6.34295e-05
0.00010971
8.97969e-07
5.33014e-07
-0.000131228
1.70143e-06
0.000251309
-0.000273569
-0.000213749
1.59525e-06
0.0017348
1.02547e-07
-5.38344e-07
4.21513e-07
0.000155941
-0.00018844
0.000214473
3.7905e-07
-5.69805e-07
7.01554e-06
4.32217e-07
-0.000795406
1.36943e-07
2.25735e-06
-5.65711e-05
1.47637e-07
-0.0109011
-0.00339174
1.24824e-05
0.00141144
2.41692e-05
-0.00269277
-1.17357e-07
-0.00141137
-6.94848e-08
1.05838e-07
3.98173e-07
1.82742e-07
0.000158476
1.867e-07
-6.13388e-08
1.88255e-07
8.69594e-08
-0.000146097
1.27453e-07
1.76717e-06
0.00161089
5.66512e-08
0.000404397
-8.61928e-08
-1.69408e-07
-0.00187403
2.03422e-05
1.85015e-07
0.000213106
1.22111e-07
-0.000149028
0.000819947
1.28214e-07
1.45192e-06
1.30739e-07
-0.00143726
-5.78248e-05
5.87186e-07
0.00452337
6.65927e-07
1.48603e-07
-0.0114519
1.69687e-07
-1.01646e-07
-0.000405908
4.45351e-07
7.08547e-08
5.78456e-09
-5.17575e-07
1.3104e-07
-0.000132444
8.59282e-06
1.20894e-05
0.000564392
5.99791e-07
7.92848e-07
-1.2475e-07
-0.00141305
0.00021307
8.213e-05
1.44804e-07
2.18218e-08
2.92521e-07
3.40225e-07
-0.000575633
-1.06986e-07
0.000417047
-7.84118e-08
0.00105169
2.0973e-07
-6.76651e-05
-6.44625e-07
1.70177e-06
0.000347538
-0.000690218
-0.000292469
-8.5951e-05
-2.27076e-08
1.2644e-05
5.17835e-06
0.000170375
2.33268e-07
-8.69298e-06
0.000110787
0.00124974
1.75127e-06
-2.6617e-06
-0.0110108
-0.00132652
5.00532e-07
1.81303e-05
5.11998e-08
4.32012e-07
4.81028e-07
1.40593e-07
8.25572e-07
0.000563901
-6.68363e-05
0.00155239
-1.59112e-05
1.10441e-07
2.3142e-08
-3.09074e-06
1.34921e-07
-0.0208138
1.31971e-07
4.11174e-08
-0.0009572
3.01365e-06
-4.68231e-07
1.07935e-08
3.79947e-07
2.16273e-06
-3.74816e-05
8.25336e-05
0.000117895
2.0401e-07
9.57901e-06
-1.26704e-07
1.06011e-07
1.44598e-07
-0.000106462
-2.81048e-06
3.23869e-06
4.3085e-06
1.2182e-07
2.65962e-08
1.33023e-07
1.19125e-07
2.47247e-07
0.00222536
-1.20885e-05
3.87581e-07
-0.000936865
-0.000154276
-0.00140316
0.00110542
1.10187e-07
3.76932e-07
0.00129659
1.24309e-07
6.94774e-05
2.91525e-07
1.84559e-07
-0.00123767
0.00011868
1.3665e-07
4.4384e-07
4.23944e-07
1.79084e-06
0.00183207
-0.00858064
-0.00119572
-1.23429e-07
9.44487e-07
-0.000794085
1.01954e-06
1.53973e-06
0.000961967
0.000792342
-0.0012288
-0.00057688
1.1667e-07
0.00167289
5.65818e-08
8.12229e-09
1.0944e-07
3.83209e-07
-0.00139172
-1.31112e-05
-0.00114284
0.000732337
5.36578e-07
9.16252e-08
8.90958e-08
1.00623e-07
-1.8163e-07
4.13305e-07
-0.00109056
-0.000233155
9.05305e-07
0.00747788
6.264e-08
6.58779e-07
5.97754e-08
9.08544e-05
-4.70395e-06
-1.25991e-07
-6.08983e-07
1.90415e-07
0.00484499
0.000235673
-8.84206e-07
-0.000717418
1.64801e-07
-0.000206559
1.36993e-05
-0.00174293
0.000700805
-1.25739e-07
8.52214e-07
9.7832e-08
0.000212488
0.000148783
5.83674e-07
-0.00925133
1.30336e-05
-0.00636317
5.99771e-07
-6.17186e-05
-1.81288e-06
1.16236e-07
1.58636e-06
3.90095e-06
1.9304e-07
1.046e-06
4.71729e-07
6.17138e-07
-0.00156046
2.20858e-06
1.56735e-07
3.97461e-07
4.2294e-07
-3.65309e-07
-1.9712e-07
-0.00271352
-2.27233e-07
0.000206771
-7.92121e-05
1.03902e-07
0.000193571
1.62317e-07
8.37429e-07
1.14763e-07
0.000118225
2.31818e-07
0.000349882
0.00164842
6.44668e-07
-1.46804e-05