/*--------------------------------*- C++ -*----------------------------------*\
| =========                 |                                                 |
| \\      /  F ield         | OpenFOAM: The Open Source CFD Toolbox           |
|  \\    /   O peration     | Version:  v2012                                 |
|   \\  /    A nd           | Website:  www.openfoam.com                      |
|    \\/     M anipulation  |                                                 |
\*---------------------------------------------------------------------------*/
FoamFile
{
    version     2.0;
    format      ascii;
    class       volVectorField;
    location    "500";
    object      ddt0(U);
}
// * * * * * * * * * * * * * * * * * * * * * * * * * * * * * * * * * * * * * //

dimensions      [0 1 -2 0 0 0 0];


internalField   nonuniform List<vector> 
13851
(
(-0.000994149 0.00116658 8.77878e-20)
(-0.00544187 0.125224 1.41552e-18)
(0.00421611 -0.0123391 -2.19587e-18)
(-0.000574598 0.000945319 -1.31209e-19)
(0.00537689 -0.000893669 -1.80441e-18)
(0.0322995 -0.0178985 7.95991e-22)
(0.00081993 -0.000298847 -2.31498e-18)
(0.000148829 -0.00541801 1.17534e-17)
(0.000714715 0.000292414 -5.50777e-20)
(-0.0190992 -0.0163796 2.58732e-19)
(-0.0226685 -0.0137333 -5.56043e-19)
(0.0293276 -0.131937 1.44894e-18)
(-0.000741093 0.0175272 -1.51156e-17)
(-0.00210693 0.155902 -4.59235e-18)
(0.00131497 -4.98579e-05 9.1262e-19)
(-0.00239623 -0.00024032 -3.52572e-18)
(-3.71216e-05 -0.00125505 2.21119e-18)
(-0.00113925 -0.00481392 2.62605e-19)
(0.00863547 0.0173886 -7.80182e-18)
(0.000704683 0.000286249 8.16537e-20)
(-0.000499458 0.000812894 -2.42476e-20)
(0.00496852 -0.0108013 -4.64304e-18)
(3.22583e-05 -1.689e-05 -1.02289e-19)
(0.00069063 1.71544e-05 1.77544e-19)
(6.45538e-05 -7.10494e-06 6.69188e-20)
(-0.000325064 -0.00581043 -3.74597e-18)
(0.000618599 -0.0010852 3.07309e-18)
(0.0100642 -0.0307007 -4.19795e-18)
(-0.00117698 0.000926799 -4.46204e-20)
(-9.26351e-07 -0.0013484 9.02692e-19)
(0.0338755 -0.0264294 -4.30085e-19)
(-8.45194e-05 -0.00132094 -3.8052e-19)
(0.0027462 -0.0123739 2.1282e-18)
(0.0167282 0.0542923 1.7739e-18)
(0.000671554 2.41801e-05 -1.15602e-19)
(-0.00156515 -0.00408557 1.54793e-17)
(-0.004153 -0.006233 -8.49931e-18)
(0.0257526 -0.00262039 -5.50493e-18)
(-0.0208491 -0.0196961 2.33615e-18)
(0.0302182 0.00208965 8.89965e-19)
(-0.000119285 -5.35029e-05 2.60353e-19)
(-0.000413756 3.9964e-05 7.40484e-20)
(-0.0121763 -0.0321311 -1.91265e-18)
(-0.00390916 -0.0678721 -1.98797e-18)
(-0.000704834 -0.0470843 4.60028e-19)
(-0.0508449 0.00786739 6.65435e-18)
(0.0151246 -0.0964993 -2.7757e-19)
(-0.00531279 0.0219105 4.40844e-19)
(0.000637537 -0.00111194 1.7142e-17)
(0.00312545 -0.0137006 6.58233e-19)
(0.00135802 -0.00024737 2.32318e-19)
(0.000335325 0.0036559 -1.44448e-17)
(-0.00209156 -0.0649579 -1.01542e-17)
(0.0013932 -3.42791e-05 3.84359e-18)
(0.000841368 -4.73731e-06 -1.02699e-18)
(-0.00043588 5.57988e-05 5.60638e-20)
(0.00059675 -1.56412e-05 -1.87957e-20)
(0.00170705 -0.0622311 -1.85149e-18)
(-8.74335e-05 -0.00133354 -7.68091e-19)
(0.000701632 -0.000412896 -1.1701e-19)
(0.0275658 -0.00520691 2.04391e-18)
(0.0733064 0.0689161 -6.51943e-19)
(-0.0175148 -0.0226402 -1.66327e-18)
(0.00547463 0.000974566 3.75825e-18)
(0.0545827 0.0165278 -2.62024e-19)
(-0.000244368 0.00266126 5.73623e-20)
(-0.00478765 -0.00679432 -3.98839e-18)
(0.0157187 -0.11449 8.34759e-19)
(0.00122529 -0.00170378 2.54435e-19)
(-0.00175482 -0.00483185 8.5673e-20)
(-0.00536884 -0.000734671 1.33403e-17)
(-0.00158388 -0.00839017 1.30275e-17)
(-0.0082025 0.140884 -3.28238e-19)
(0.00144167 -3.39497e-05 4.92868e-18)
(0.000736354 8.50439e-06 1.61584e-18)
(0.00079036 0.0004584 -5.10819e-20)
(0.00443351 -0.0099879 3.96627e-18)
(0.00089937 0.000201325 -8.68961e-19)
(0.00221549 -0.00254196 7.06647e-18)
(-0.00833542 -0.000861081 5.05565e-18)
(0.000542938 -0.000587757 3.15117e-18)
(-0.00279806 0.0266482 -3.89437e-20)
(0.000702847 -0.000242154 9.31469e-21)
(-0.0420637 -0.0138613 -2.32246e-17)
(-0.0141006 -0.0261093 7.09229e-18)
(0.0237606 -0.12313 -1.17088e-18)
(0.016052 -0.0172483 -3.52859e-19)
(-0.128504 0.106648 5.89254e-18)
(0.000338421 -0.00141605 1.24527e-18)
(0.000394718 -0.000569902 -1.79e-19)
(-0.00164915 -0.00376027 -2.30285e-17)
(-0.0140646 0.0154617 6.05189e-20)
(0.0125448 -0.117292 -1.68102e-18)
(0.000492232 -0.00172691 2.64119e-18)
(0.000394006 -0.00136182 2.87997e-18)
(0.000598767 -6.64848e-06 -3.39879e-21)
(0.00526597 -0.000260728 1.8651e-18)
(-0.0119456 0.021174 2.17117e-18)
(0.00136472 -0.0166673 -1.07275e-18)
(0.00055999 -3.18989e-06 -6.05927e-21)
(0.0318261 0.10038 2.30168e-17)
(0.00206479 -0.00155832 7.5231e-18)
(-0.00083466 -0.000413199 2.17601e-19)
(0.000911887 -0.000708273 1.00491e-17)
(-0.000150671 8.31053e-06 5.18601e-21)
(0.00556515 -0.0259898 -3.2519e-19)
(0.00198362 -0.00111067 -4.19733e-19)
(-0.000326409 9.17858e-05 4.28658e-20)
(0.00100391 -0.00832048 6.54381e-18)
(0.0370638 -0.0128681 -5.63113e-19)
(0.000644387 6.59281e-06 1.19787e-19)
(0.000368512 -0.000596358 -1.00167e-19)
(-0.0112377 0.0136246 1.12144e-19)
(0.000541035 4.43853e-06 7.19463e-20)
(0.000686044 9.67104e-06 1.19176e-19)
(0.00676305 0.179241 -4.78272e-19)
(-0.00973703 0.0215813 -3.88856e-18)
(-0.000287884 2.14579e-05 -5.41658e-20)
(0.000641378 2.30214e-05 -2.13573e-19)
(0.000788601 4.34522e-06 -3.96074e-20)
(-0.00808618 -0.0365879 -4.90312e-18)
(0.000870854 -0.000725583 -7.99158e-18)
(-0.00109851 0.0192028 5.63875e-18)
(0.0173246 0.170181 -4.30718e-18)
(-0.0326353 0.0388871 1.50694e-18)
(-0.00339686 0.000366043 -7.15472e-20)
(-0.0453466 0.0838323 -1.02258e-18)
(0.00224688 -0.0020213 -2.10231e-18)
(-0.00034465 0.000677417 -6.94882e-20)
(0.0115379 0.0034515 -3.41787e-18)
(-6.83396e-06 -5.28878e-05 1.41867e-19)
(0.000562075 0.000229705 2.1949e-20)
(-0.0052575 -0.00109667 -8.91364e-18)
(0.000732967 -0.000234386 -1.63564e-18)
(-0.00624868 0.170965 -1.97564e-19)
(0.000622424 8.18241e-05 4.86179e-21)
(-0.000276503 1.91011e-05 3.68319e-20)
(-0.00213807 -0.0078112 -1.07068e-17)
(0.0268327 0.0496917 3.85678e-18)
(-0.074042 -0.0382566 1.46619e-18)
(0.015824 0.0907317 -2.16543e-17)
(0.000840283 -2.57656e-06 2.68225e-19)
(-0.000267511 0.000910408 8.22658e-20)
(-0.000474004 -0.000236276 -7.68808e-20)
(8.00726e-06 -0.000871932 1.03282e-18)
(0.00110126 -0.0951768 -1.26549e-18)
(0.00845479 0.00922793 -1.21628e-20)
(0.013004 0.00275465 1.20133e-17)
(0.000860613 -0.000293432 2.01805e-18)
(-0.00400432 -0.0125581 -2.16282e-19)
(0.0010678 -0.00196388 -2.29291e-18)
(0.000767992 9.7212e-06 -1.1877e-19)
(0.00207638 0.139027 -8.42148e-19)
(0.000589651 -1.63481e-05 -2.18409e-19)
(0.000373736 -0.000929393 1.17677e-18)
(-2.07466e-06 -0.000851037 -7.38639e-19)
(9.36008e-05 0.000444055 -2.17502e-20)
(-0.000108923 -0.00097451 8.64007e-19)
(0.000808595 0.0041833 1.01655e-17)
(0.00157861 -0.000295777 -5.2969e-18)
(-0.00028178 0.000487678 2.56397e-21)
(0.000875262 -0.00140178 -1.99356e-18)
(0.000365607 -0.065077 5.96933e-18)
(0.000588124 0.00022235 -1.22386e-19)
(0.00103726 -0.000435416 2.08966e-19)
(-0.000479828 -0.00012346 -1.21317e-20)
(0.00838128 0.0127611 2.33596e-20)
(0.00127335 -0.00164806 -2.94789e-18)
(-0.000397281 0.000546557 4.46309e-20)
(-0.0413862 0.0288048 -2.21081e-17)
(0.00088193 0.00017061 2.08435e-18)
(0.000727949 2.71375e-05 -4.10821e-19)
(6.40871e-05 0.000423395 -2.62693e-20)
(-0.0572663 -0.0149227 -5.41879e-19)
(0.000597961 0.000201466 -1.54769e-19)
(0.00467383 -0.00487186 1.65128e-18)
(0.00218211 -0.00216743 -5.33133e-18)
(0.000298858 -7.08865e-05 -1.29457e-19)
(0.00583569 0.0184575 1.05049e-17)
(-0.000354421 0.000140533 3.50277e-20)
(-0.000221291 -0.00139464 3.93543e-18)
(-0.000693807 -0.00814689 -3.56493e-19)
(0.000822492 -0.000216589 1.1168e-18)
(0.00644451 -0.0107112 1.41398e-18)
(-0.00022376 6.2229e-05 -1.82581e-21)
(0.000305852 -2.4255e-05 2.35813e-19)
(-0.000813634 0.00288087 2.85598e-19)
(0.000843353 8.93796e-07 6.67395e-19)
(0.00755352 -0.000901533 -4.32277e-18)
(-0.0218448 0.0197397 5.43002e-19)
(0.0152808 -0.115018 4.91541e-19)
(-0.00195382 -0.0648184 1.54912e-17)
(0.000217064 -0.000573938 -6.3109e-20)
(0.0011417 -0.00201434 4.61994e-18)
(0.075677 0.0548045 -1.4877e-18)
(0.000314889 -0.00089863 7.78717e-19)
(1.17839e-07 0.000911454 1.11987e-19)
(0.0440341 -0.0559307 -2.48666e-19)
(0.000224947 0.000129543 1.18472e-19)
(0.000775581 0.000475254 -6.26063e-20)
(-0.00364947 -0.000304273 3.42111e-20)
(-0.0778963 0.0693958 1.84302e-17)
(0.000715591 8.23931e-06 -1.19919e-19)
(0.000501697 -0.000210876 -1.48355e-18)
(-0.0182611 0.00445023 8.92221e-20)
(0.000774635 -0.000232637 6.6718e-19)
(0.0924457 -0.012804 -2.70076e-19)
(7.23522e-05 -0.00133579 -3.08182e-18)
(-0.000806899 -0.00121098 4.91377e-18)
(-0.000335505 0.000282373 1.57944e-21)
(0.00182918 -0.00220595 1.6119e-17)
(-0.000795661 -0.000383595 -3.74825e-19)
(0.0310033 -0.0607897 5.76016e-19)
(-0.000296122 0.000143323 1.37647e-21)
(-0.000535207 -0.000187537 4.03235e-20)
(-0.0260083 0.0419167 -7.73861e-19)
(-0.00510059 -0.0243589 1.06794e-18)
(-0.0440446 0.00394236 1.58654e-18)
(0.00121864 -0.000103908 9.01958e-19)
(-0.000677831 -0.00120438 -4.89017e-19)
(2.79923e-05 -0.00137798 -1.10528e-18)
(0.000559458 -0.000598932 -1.06347e-18)
(-0.00314356 0.00655052 1.25216e-18)
(0.00451928 0.00484249 -7.0037e-18)
(-0.000618891 -0.00409677 7.0313e-18)
(0.000207633 -1.20279e-05 1.83398e-19)
(0.000576201 -0.00199139 3.26805e-18)
(-0.000109718 5.46318e-06 2.42806e-22)
(-0.010398 -0.0524725 -1.12122e-17)
(-0.000301273 0.000165786 3.27768e-21)
(-0.000929338 -0.00554351 -2.68632e-18)
(0.0488634 -0.0350055 4.0247e-18)
(0.000716161 2.05424e-05 3.30581e-19)
(0.000297139 -0.000537305 3.41547e-19)
(0.00130817 -0.000819941 9.93711e-18)
(0.00912022 -0.00777945 9.3128e-19)
(0.0914001 -0.0125906 -6.98372e-19)
(0.0609134 0.01961 -5.30691e-20)
(-0.000500446 -0.000236596 -6.01263e-20)
(0.000511444 -0.000218276 2.93262e-19)
(0.0273625 -0.0306434 7.47642e-19)
(-0.0199144 -0.0288807 1.20631e-19)
(-7.99924e-05 0.00124953 -2.83064e-22)
(-0.0215024 0.00443603 -1.0239e-18)
(-0.000193138 1.25761e-05 -2.08813e-21)
(-0.00116212 -0.00303626 9.30417e-19)
(0.00222137 -0.00158213 2.13631e-18)
(0.0195741 -0.0292113 -6.07328e-20)
(-2.81615e-05 -0.000826458 -1.0299e-18)
(-0.000435352 -0.000854171 3.31999e-18)
(0.00829299 0.00135643 1.27705e-19)
(-0.0261884 -0.0316023 6.82487e-20)
(0.000228064 -0.000634875 9.97005e-19)
(-2.27069e-05 -0.000844936 1.63768e-18)
(0.0014518 -0.00120898 -1.52865e-18)
(-0.08216 -0.0057589 5.01855e-19)
(-0.0170432 0.0203034 -2.04272e-19)
(-0.00115032 -0.0075413 5.56288e-18)
(0.0046569 -0.00432337 1.89267e-17)
(0.00107156 -0.000164914 1.09905e-18)
(-0.000509489 -0.000204454 2.30492e-19)
(-0.00251865 -0.00380299 -8.67594e-19)
(0.0708406 -0.0823979 7.76843e-20)
(-0.00091741 -0.000370851 -8.72128e-20)
(0.0110439 0.0231822 6.08788e-18)
(0.000294403 -0.000899635 -1.1188e-20)
(0.00031263 -0.00062236 8.28265e-19)
(0.000474713 -0.00165984 -8.53749e-19)
(-0.00258161 0.0071535 -2.93031e-18)
(-0.00198717 0.00923957 -1.26217e-19)
(0.00793671 -0.000205444 -2.55823e-19)
(0.000343185 -0.000935404 -2.52155e-18)
(0.0729896 -0.0467699 -1.7995e-19)
(0.00199974 -0.00256951 4.36117e-18)
(-0.0020865 3.15905e-05 2.22072e-18)
(0.000551227 0.000251134 8.14707e-20)
(-0.0083769 0.0070443 -2.64822e-20)
(-0.00265173 0.0302531 3.30459e-19)
(-0.00265112 -0.00581891 -5.42833e-18)
(-0.0255671 0.012914 -8.1658e-19)
(0.000127299 0.00125888 8.53916e-21)
(-0.000279306 0.000262666 1.31418e-20)
(-0.000155762 1.01956e-05 -5.23766e-21)
(0.00146869 -0.00125776 3.14204e-18)
(0.0742746 -0.0818271 2.35144e-19)
(0.0177704 -0.00615889 -1.01192e-18)
(0.000708285 0.000382516 1.46318e-19)
(0.00135209 -6.84717e-05 1.42893e-18)
(0.0652263 -0.0548029 -2.16481e-19)
(-0.00178296 -0.011072 1.65126e-20)
(0.0141971 0.004327 -1.06268e-17)
(-0.000111589 -0.00120007 -1.05364e-18)
(0.00072505 -0.000434905 -2.0484e-18)
(0.00135626 -0.00189091 -1.30571e-18)
(0.00270541 0.0115887 -4.87037e-20)
(0.00965307 0.0217351 1.14153e-17)
(0.000426502 -0.000299061 5.62182e-19)
(0.0160165 -0.116326 5.48493e-18)
(0.000513395 0.000279949 -9.68323e-20)
(-0.000680416 -0.00301182 1.56866e-18)
(0.000869921 -0.00136525 1.2817e-18)
(-8.30085e-05 -0.00119894 1.83227e-18)
(-0.00141791 -0.00573171 -4.95632e-18)
(-0.000164045 -0.000474893 5.98475e-19)
(0.0108618 -0.0251991 1.1954e-18)
(-0.000506494 0.00131125 -4.48258e-18)
(0.000754725 0.00036286 1.50606e-20)
(0.00151325 -0.00142002 7.50495e-18)
(0.000422627 -0.00179374 1.53202e-18)
(-0.000165036 -0.00117671 9.9522e-19)
(0.0340127 0.0390253 8.0294e-18)
(0.000566355 -0.000219992 1.90119e-18)
(0.000201367 -0.000608895 3.3767e-18)
(-0.00592314 0.0100734 3.24178e-18)
(-0.000441386 -2.57931e-06 8.72419e-20)
(-0.000523195 -0.000881093 -3.46453e-18)
(-0.00481557 -0.00172039 -2.2767e-20)
(-0.000670447 -0.00624336 -1.60729e-18)
(-0.000543629 -0.00269074 -5.33332e-18)
(0.00116175 -0.000116063 -2.64395e-18)
(0.00182606 -0.00127246 -4.60603e-19)
(0.00121069 -0.000104647 3.34871e-18)
(0.000163259 -0.00489803 -1.04817e-18)
(0.0123367 0.00287234 -3.7297e-19)
(0.000104291 -2.03401e-05 -1.80763e-20)
(-9.42131e-05 0.000740057 2.7535e-20)
(-0.00058859 -0.00242327 -2.2226e-19)
(0.000556597 -0.00188958 3.02073e-18)
(0.000448582 -0.00090492 1.14736e-18)
(0.00136452 -5.9294e-05 -2.50107e-18)
(-0.000121574 -0.00045887 -1.10866e-18)
(0.000187382 -0.000592841 -1.27306e-18)
(-0.0157607 -0.0229353 2.68709e-19)
(0.0779557 0.103548 -1.42235e-18)
(-0.0328464 0.05475 1.09051e-17)
(-0.00680946 -0.00588448 2.16224e-19)
(0.000234212 -0.00598071 -3.96104e-18)
(0.0474518 0.00952258 4.33299e-18)
(0.00134421 -4.99495e-05 6.30679e-19)
(0.00116463 -0.00213215 3.59553e-18)
(0.0159486 0.00380885 1.26557e-17)
(-0.0223324 0.00984807 7.19714e-20)
(0.015884 -0.0135718 5.08941e-19)
(0.000200022 0.00217373 3.51413e-18)
(0.0105939 0.0184516 -2.78563e-18)
(-0.000125735 0.00702768 8.68326e-20)
(0.045499 -0.0349395 1.48016e-18)
(0.0001686 -0.000736867 8.43014e-18)
(0.00140145 -4.01891e-05 -1.17501e-18)
(0.00257944 -0.0195277 1.04113e-19)
(-0.000536834 -0.0224746 -7.7691e-19)
(0.0281907 -0.0426939 4.51401e-19)
(0.000477086 -0.000884399 -3.53328e-18)
(0.0184229 -0.0147782 -1.25698e-18)
(-0.0113564 -0.0521008 -1.10483e-18)
(8.39924e-05 0.000439921 -6.13776e-20)
(0.04472 -0.0379714 -5.98962e-19)
(-4.60468e-05 0.00077681 -2.51022e-20)
(0.00127249 -9.44419e-05 -2.21209e-18)
(-0.000214486 1.99307e-05 8.68212e-21)
(-0.000328531 0.000109968 -6.61779e-20)
(0.000225782 0.000362261 2.91727e-19)
(0.000511672 -0.00076868 4.62813e-18)
(0.0403385 -0.0563763 -4.44896e-19)
(0.000319819 -0.000310727 3.79905e-19)
(0.00149056 -0.00144861 4.70125e-18)
(-0.00051537 -1.98874e-05 -4.81846e-20)
(0.0133903 -0.116836 -6.46466e-18)
(-0.00341261 0.00269128 -1.76665e-18)
(0.0450876 0.0227735 3.33072e-20)
(-0.0327462 0.0365816 1.93784e-17)
(0.000283245 -0.000321418 3.53189e-19)
(-0.00276966 -0.0272042 -3.97665e-18)
(0.000247333 -0.00186098 7.66929e-19)
(0.0420162 0.00749968 -1.33753e-18)
(3.27713e-05 1.06578e-05 -2.68329e-19)
(-0.000291202 1.71322e-05 3.2544e-20)
(0.00488166 0.0116749 3.9679e-20)
(0.0853138 0.0859796 -1.90712e-18)
(0.000763828 7.66697e-06 -1.83947e-18)
(0.0546603 0.0242666 -1.13579e-17)
(-0.0204648 0.0146811 2.4221e-19)
(-0.000252682 0.00244271 1.11773e-17)
(-0.0624242 0.0225198 -1.03081e-17)
(-0.00337357 -0.0485846 3.79639e-19)
(0.00384582 -0.0432337 3.73212e-20)
(0.00307441 -0.00296765 -1.00433e-19)
(0.000420491 0.000211458 3.00111e-19)
(0.00157395 -1.88431e-05 1.39632e-19)
(-0.00619981 -0.00462328 -1.98653e-19)
(0.00171597 -0.00125797 -3.21505e-18)
(-0.00540476 0.14054 1.17427e-18)
(0.00128656 -0.00152926 -1.14083e-18)
(0.000211956 -0.0042852 -5.76376e-18)
(-0.000123874 0.000542129 6.63523e-18)
(-0.000505598 -4.3643e-05 2.57064e-20)
(0.00113744 -0.000172842 1.68688e-18)
(-0.0473541 0.0472871 -6.15801e-18)
(-0.00639049 -0.00117959 2.67155e-19)
(0.0422277 -0.0406199 -1.27092e-18)
(-0.0086853 0.0185007 5.75863e-18)
(0.00697162 0.0130675 3.49193e-20)
(0.000274598 -0.00195625 -2.61913e-18)
(0.000479155 -9.05829e-06 9.39809e-20)
(0.0427866 0.00683263 -2.33375e-18)
(0.000772158 0.000151605 1.91514e-20)
(-0.00229012 -0.000627465 1.64457e-18)
(0.00245392 -0.00238252 -1.04123e-19)
(0.000745952 -0.000336497 -3.9623e-18)
(-0.000125005 6.75364e-06 -5.41349e-21)
(0.000761013 0.000346578 1.55454e-19)
(-0.000492399 -0.000102863 3.32413e-20)
(0.00478915 0.00094765 -8.78352e-19)
(0.0150209 -0.00434436 -2.73268e-21)
(-0.00519528 -0.00519642 3.69171e-17)
(-0.00320646 -0.00508791 -9.0986e-19)
(0.00184919 -0.00114952 3.24945e-18)
(0.0106278 0.00470184 1.09725e-18)
(-0.0330969 -0.0170394 -5.6558e-20)
(-0.000582708 -0.000656291 2.91166e-18)
(0.0306883 -0.0490384 -8.28487e-19)
(-4.48358e-05 -0.00114616 -9.80208e-19)
(-0.0198071 0.0562244 4.8231e-19)
(-0.000276656 2.47878e-05 -5.67738e-20)
(0.000751221 0.000326597 -5.30777e-20)
(0.000311768 -1.46128e-05 -6.71345e-20)
(0.0349028 -0.00771492 2.7808e-18)
(-0.0204441 -0.092787 3.13967e-19)
(0.00639178 0.00433636 -5.57004e-19)
(0.00866324 0.00601127 -7.42755e-19)
(-0.00209269 -0.00651383 -3.61626e-17)
(0.0152606 0.100738 -3.80419e-18)
(0.0119271 -0.0188965 -9.14035e-19)
(0.000787782 6.20885e-06 -1.94792e-19)
(0.0011852 -0.000838251 -7.96269e-18)
(6.57837e-05 1.28193e-05 -8.24181e-20)
(-0.0378185 -0.0132897 2.27802e-19)
(-0.000162654 6.00341e-06 -2.12981e-20)
(0.0512078 -0.0693035 -1.65902e-18)
(-0.0389523 0.0115589 -6.52048e-19)
(-0.000344039 -0.0123174 1.64529e-19)
(4.71006e-05 -0.000577332 3.17669e-18)
(-8.77884e-05 0.000186783 -3.111e-20)
(0.0154073 0.0225383 -2.48806e-19)
(-0.0354078 -0.000940074 7.86126e-19)
(0.124012 0.0690867 -1.19113e-17)
(-0.000228047 7.00867e-05 -6.91959e-21)
(0.000329252 -0.00218301 -1.82028e-18)
(0.00232233 -0.00236534 -1.89745e-18)
(-0.000572071 0.0127451 1.57647e-19)
(0.000729441 0.000110357 1.93484e-20)
(0.00014158 -0.000595777 -1.61792e-18)
(0.00113515 -0.00183296 1.65848e-17)
(0.000435581 0.00323099 1.2562e-17)
(-0.00312572 -0.00875601 -4.0211e-19)
(0.0309241 -0.0980414 5.98877e-19)
(0.000215507 -1.81852e-05 -2.88771e-19)
(-0.000166217 0.000784924 -2.60357e-21)
(-0.0159522 -0.035484 7.69164e-18)
(0.00138999 -0.000486378 -6.49197e-19)
(-0.000278837 0.000240419 3.19697e-21)
(-0.125992 0.106905 9.06366e-19)
(0.000444179 0.000210117 -2.6135e-19)
(-0.000743286 0.00116256 1.58489e-19)
(0.000729819 0.000191432 6.44318e-20)
(0.00519005 0.00394686 4.1141e-23)
(-0.00013893 -0.000949484 7.81039e-19)
(-0.000311177 0.000260977 2.8487e-21)
(-8.89848e-05 0.000416149 3.8694e-19)
(-0.00590534 0.0118098 -4.02763e-18)
(0.000671775 -0.000258107 -2.24986e-18)
(0.00137404 -0.00159736 -2.50398e-18)
(0.000624351 9.14078e-05 1.26165e-21)
(-0.0039604 -0.0076282 1.75363e-20)
(-0.000580695 0.052607 -8.23833e-20)
(0.000602792 4.66443e-06 -1.11509e-21)
(-0.000215818 0.000131935 7.03773e-19)
(0.000613872 7.91426e-06 -4.23129e-20)
(0.000602906 5.17599e-06 -2.75606e-20)
(-0.0145568 -0.0292208 -6.61244e-19)
(0.000324634 -0.000615538 -9.41794e-19)
(0.0211708 -0.019589 -1.11804e-18)
(0.000853334 -0.000208381 -2.15015e-18)
(0.000472769 -1.3517e-05 -1.36272e-19)
(0.000112206 0.145828 1.58287e-18)
(4.42863e-05 -0.000590311 -3.943e-18)
(0.000773278 -0.000255778 -1.32307e-18)
(-0.00539851 -0.00881101 5.98011e-19)
(-0.000673802 -0.000755512 -7.61948e-19)
(-0.0099343 -0.038385 2.91977e-19)
(-0.0429263 -0.0102843 1.18018e-17)
(-0.000222774 0.000732761 8.84123e-21)
(0.0332024 -0.0709632 3.12429e-19)
(3.29447e-05 -1.88541e-05 6.84727e-19)
(0.00674332 -0.00301174 6.41992e-18)
(0.000721255 -0.000391417 -1.63731e-19)
(-0.0153816 -0.0376064 -4.71672e-18)
(-0.000268084 2.45356e-05 -6.5313e-20)
(-0.00302978 -0.0636552 -4.90827e-18)
(-0.0100645 0.0246715 -5.68812e-19)
(-0.000421716 2.31021e-05 -3.53446e-20)
(-0.00774108 -0.00743086 3.30056e-19)
(-0.0189561 0.0185319 7.99268e-19)
(-0.00144005 -0.0059569 5.29111e-18)
(-0.00337685 0.0338872 2.11092e-18)
(0.000628806 2.97226e-05 1.49579e-20)
(-0.0215904 0.187747 -1.29826e-17)
(0.000866795 -4.80001e-06 1.23672e-18)
(0.000639816 0.000173909 -4.59402e-21)
(0.000532383 0.000288228 2.47359e-20)
(0.000821832 -0.000275649 1.6103e-18)
(-0.00633304 -0.00160633 3.67054e-18)
(0.00184955 -0.00062776 -8.22195e-18)
(-0.00163554 0.000788263 -9.00863e-18)
(-0.00291025 0.0125215 8.24481e-18)
(-0.00929267 -0.0227634 -4.27799e-18)
(-0.000311123 0.000536119 1.17788e-21)
(0.00604451 0.0312381 1.20552e-17)
(-0.0256379 -0.0833389 -1.21416e-18)
(-0.000167017 -0.00146766 -3.77163e-18)
(0.000844925 -0.00146417 1.90532e-19)
(-0.00689686 -0.0322189 -3.72868e-19)
(-0.00183563 0.208017 4.16764e-18)
(0.00334876 -0.00216471 -3.64635e-18)
(0.00151083 -2.17401e-05 2.91136e-18)
(-0.0149365 -0.0341782 1.99176e-17)
(-0.0526639 0.000940138 -1.2796e-17)
(-0.0680778 0.0638472 1.09715e-17)
(0.000865656 -0.00016626 -1.84566e-18)
(-0.00922545 -0.00811806 -5.3118e-20)
(0.0619963 0.0440938 2.64554e-19)
(0.00989483 0.0302587 5.4507e-20)
(-0.0984728 0.0234936 1.53398e-19)
(0.0408249 -0.0546585 -4.92621e-19)
(0.0768381 -0.0662216 4.62901e-18)
(-9.78658e-05 -0.00103862 -8.35867e-19)
(0.0789357 -0.0616851 -7.93876e-19)
(0.00128772 -0.00272793 2.03016e-18)
(-0.000268013 2.72422e-05 -2.83201e-20)
(0.00390011 0.0272311 -1.22589e-19)
(0.00165848 -0.000536517 -6.2782e-18)
(0.000589104 -0.000294508 -8.57971e-18)
(-5.04106e-05 -0.000822401 -8.48958e-19)
(0.000708399 -0.000150156 -1.53616e-18)
(0.000152557 0.000424517 -2.55523e-19)
(0.000180127 -0.0001932 -1.15984e-19)
(0.00667172 -0.000608666 -4.41651e-18)
(0.00790522 -0.0027403 -1.04274e-19)
(-0.121109 0.108116 -7.4112e-18)
(0.0337381 -0.0915218 -4.53495e-19)
(0.000677918 7.26901e-05 -1.28057e-21)
(-0.013948 -0.0340397 -6.67855e-18)
(0.000325265 0.000356653 3.09979e-18)
(0.00403877 -0.0439271 1.17348e-18)
(-0.0286246 -0.0478456 5.69176e-19)
(0.001338 -0.00165954 3.3222e-18)
(-0.00026369 0.000196714 1.15156e-20)
(0.000763875 0.000313234 -1.94094e-19)
(0.01557 0.0296956 -6.90898e-20)
(0.00391283 0.032049 -1.25196e-17)
(0.000378614 -0.000953348 -2.62692e-18)
(0.000185242 -0.00194442 -4.12886e-18)
(-0.00258063 -0.00273056 5.40072e-18)
(-0.000424384 7.29081e-05 -5.9031e-20)
(0.0166034 0.00497147 1.66884e-19)
(-0.0168228 0.216091 1.24062e-18)
(0.0230687 -0.0378346 1.51981e-18)
(0.00164642 0.00285889 -8.55523e-18)
(-0.0060508 -0.00177693 -8.1557e-18)
(0.00116941 -0.00410338 -5.2346e-18)
(2.49008e-06 -2.22902e-05 -3.17311e-19)
(0.000769125 -0.000329182 2.72608e-18)
(-0.0504346 0.104894 -1.9368e-19)
(-0.000333871 0.00073885 -3.9372e-18)
(-0.00144345 -0.0017596 1.28924e-17)
(0.00127418 -0.00147279 -7.71513e-18)
(-0.0257575 -0.0257244 -1.16412e-18)
(-0.000344992 0.000120021 -1.50032e-20)
(0.00042987 -7.46694e-05 -1.16553e-18)
(0.0610108 -0.0664073 2.8523e-18)
(-0.000402323 7.19411e-05 7.27119e-20)
(-3.78538e-05 -0.000805044 3.03486e-18)
(-0.000333331 0.000148533 -8.66581e-21)
(0.000535962 0.000116894 4.67423e-21)
(0.00228096 -0.00222439 -3.93896e-18)
(0.00573085 0.000301666 -6.78623e-18)
(0.00661041 0.00417513 5.27039e-19)
(-0.000390985 8.52718e-05 1.08369e-20)
(0.0665915 0.0171566 1.19577e-17)
(0.0409801 -0.0585944 -1.24742e-19)
(0.000453201 0.000271637 -8.93552e-20)
(0.000523407 -3.02725e-05 -9.38381e-21)
(-0.000975497 -0.000501222 2.72973e-20)
(0.00159968 -2.63427e-05 -2.76417e-18)
(0.0835471 0.0775528 6.77133e-18)
(0.0288917 -0.0431604 3.67586e-18)
(0.0283007 -0.0462632 -1.96584e-18)
(-0.0572881 0.089587 -9.52499e-18)
(-0.0281391 0.136103 6.19622e-18)
(0.00123327 -0.00142819 1.05239e-17)
(0.00085332 -0.000178517 1.20018e-17)
(-0.000655007 -0.000985424 9.08159e-19)
(-0.000821109 0.0080567 1.85863e-19)
(0.00125015 -0.00178845 -2.76348e-20)
(-0.000252546 0.000208703 -7.60767e-21)
(-0.00483416 -0.000685434 -1.82047e-19)
(-0.0026638 -0.00177882 2.45605e-18)
(-0.0052664 0.0161335 -3.41743e-18)
(0.0652336 -0.0560936 -2.68302e-19)
(0.00023082 -0.00165973 3.92023e-18)
(-0.000218185 -0.00202487 4.19295e-19)
(0.000754203 0.0002555 -1.12071e-20)
(-0.00191251 0.000752707 1.94673e-18)
(0.000837726 0.00178038 2.06665e-19)
(-0.00300391 0.0532194 -2.46169e-18)
(0.00226947 -8.78058e-05 7.97756e-18)
(0.000879414 -0.00019337 1.33847e-18)
(-0.00595291 -0.00712024 4.27923e-19)
(0.0007374 0.000113784 3.0811e-20)
(0.000587391 -0.001557 3.85235e-18)
(0.0074731 0.00468003 -1.5396e-18)
(0.000738671 -0.00039991 4.21126e-18)
(5.68208e-05 3.90132e-05 -3.69277e-19)
(-0.00400024 0.00219903 -4.32237e-19)
(0.000592155 -0.000470941 1.99642e-18)
(0.00602396 -0.00114863 3.64668e-19)
(0.032663 -0.0114931 -2.4576e-18)
(0.00424319 0.00418831 2.24585e-18)
(-0.00147718 0.00151304 -2.12986e-19)
(-0.00153553 -0.00209608 -3.4526e-18)
(0.000746151 0.000240254 -6.44051e-20)
(0.0287487 -0.0397971 1.3956e-18)
(0.00975291 0.00260201 -1.85082e-21)
(-0.0470808 0.0780822 -3.1413e-18)
(-0.000728042 -0.000430662 5.32026e-19)
(0.000645058 -3.58616e-06 1.69119e-19)
(0.000743564 -0.00836554 -1.58856e-18)
(-0.000989169 -0.00154233 9.70729e-20)
(-0.0586096 0.0112231 2.10612e-17)
(-0.000109563 -0.00149999 4.44581e-18)
(-0.027688 -0.0102601 1.89937e-18)
(-0.124023 0.115603 6.02536e-19)
(0.000752723 0.000155782 -3.88348e-20)
(-0.000691562 -0.00864809 -6.45793e-18)
(0.000294779 0.00148827 5.99738e-21)
(0.000514339 0.00014829 4.66552e-20)
(-0.00026307 2.70208e-05 -1.66887e-19)
(0.000489474 0.000128151 -2.44454e-19)
(0.00381923 0.00346077 -3.26167e-21)
(-0.00428405 -0.00541639 1.04919e-18)
(0.00488248 0.00277681 -6.99638e-20)
(-0.000370683 8.09547e-05 -7.39172e-20)
(0.0632233 -0.0117791 -3.4107e-18)
(-0.0147045 0.025396 3.50973e-19)
(0.0638032 -0.00482881 3.20505e-18)
(0.000314165 0.000463079 9.00381e-20)
(-0.000251373 3.19897e-05 -1.6129e-20)
(-1.73531e-05 -3.05326e-05 1.87904e-19)
(0.0164809 0.00126046 -4.25237e-18)
(0.0813239 0.0349891 1.69338e-18)
(0.00134352 -0.00119357 8.29431e-18)
(0.000571927 -0.00161419 -7.85227e-19)
(0.000202151 0.00174531 -8.42519e-21)
(0.00050983 -1.08665e-05 -4.61133e-20)
(0.000687792 4.6668e-05 -2.91227e-20)
(8.74713e-05 0.000548915 5.75917e-20)
(-0.00575996 0.00212719 3.35859e-18)
(-0.0369661 -0.139188 -9.18626e-19)
(0.000598008 -0.000453781 1.30622e-18)
(-0.000360618 9.06711e-05 2.86951e-20)
(0.000845166 -0.000263917 -2.8917e-19)
(9.54366e-05 0.000512802 -9.81774e-20)
(0.00637112 -0.0655672 -1.98928e-19)
(-0.00297282 -0.0670717 -7.11874e-18)
(-0.00225085 0.000531489 -2.04572e-18)
(-0.0140508 0.0276866 -3.12471e-18)
(-0.0249192 0.229026 9.22006e-18)
(2.91731e-05 4.04584e-05 3.53938e-19)
(-0.00128212 0.00105052 1.59633e-17)
(0.116595 0.0769976 1.4858e-17)
(0.00132173 -0.00180367 1.08605e-17)
(0.0362154 -0.132217 1.3551e-17)
(0.000525142 -0.000591446 -2.54139e-18)
(-0.00200673 -0.00409193 -1.90185e-19)
(0.00134138 -0.00127616 -1.2207e-17)
(-0.00316304 -0.00412663 9.55427e-19)
(0.0377173 -0.0629403 2.70484e-19)
(0.000793716 -0.000240281 3.97952e-19)
(0.0479578 0.0925878 1.55729e-18)
(-0.000152778 7.11259e-06 1.95834e-20)
(0.00129017 -0.00102388 3.19214e-18)
(-0.000191528 -0.0007468 4.50941e-18)
(0.000941621 0.000485815 1.09455e-19)
(-0.00110746 -0.00104563 9.49822e-20)
(-0.0294328 -0.02014 -3.01564e-18)
(0.000634334 0.000192828 -1.24244e-20)
(-0.000176716 -0.0013215 3.77358e-18)
(0.0678616 -0.0735286 -1.56769e-19)
(-0.0433495 0.0562592 -1.91362e-19)
(0.00252214 -0.000270656 -4.35278e-18)
(0.0144663 0.0206577 -2.73037e-18)
(-0.0054922 -0.0613721 2.0165e-19)
(-0.000315113 0.000135413 3.90034e-20)
(0.000329613 0.000434472 2.01233e-20)
(0.00053539 0.149475 -1.52342e-17)
(-0.00225573 -0.0027717 -4.79564e-18)
(0.0114937 -0.00758641 8.88913e-19)
(0.000112608 -0.00125843 -1.08867e-18)
(0.000832901 0.000105042 -2.32873e-19)
(0.00171123 -6.74267e-06 5.0007e-19)
(-0.000271716 2.27718e-05 4.64589e-20)
(-0.0176976 0.0607123 5.62349e-18)
(-0.00701803 -0.00438725 -6.62299e-19)
(0.000289778 -0.000665016 -9.91098e-19)
(-0.000534707 0.000121143 -3.71982e-20)
(-0.00884329 0.0521591 2.51505e-19)
(0.000490327 -0.00118104 3.04907e-18)
(-3.88536e-05 -3.39671e-05 -8.11692e-20)
(-0.0225045 -0.0276611 -1.26487e-17)
(-0.0698231 -0.026291 8.87851e-19)
(-0.00191339 0.00153557 1.71615e-18)
(-0.000439295 1.62872e-05 -3.26836e-20)
(0.000599595 -0.000442926 -1.58992e-18)
(0.00108033 -1.20758e-05 -3.66978e-18)
(0.00261679 -0.0640958 1.45701e-17)
(-0.00150294 -0.0033955 -4.66479e-18)
(0.000944009 0.00151286 8.06182e-20)
(0.00437468 -0.00491201 -1.34133e-20)
(0.00074664 -0.00024304 1.90575e-18)
(-0.0186496 0.0521491 1.29924e-18)
(0.0147192 -0.021944 -6.38625e-19)
(7.7977e-05 -0.0138401 1.94771e-18)
(-0.000308264 -0.00090409 -3.44906e-18)
(-0.0351273 -0.00890407 -1.2629e-17)
(0.00502544 -0.00250355 9.29573e-19)
(0.00268188 0.00127044 3.43195e-20)
(-0.00439874 -0.00561171 4.83571e-18)
(0.000647876 -2.07878e-06 2.8598e-19)
(0.000791084 4.22761e-06 -4.35749e-19)
(-0.000165002 -0.000983384 1.70447e-18)
(0.000763107 0.000229707 5.47955e-20)
(-0.023345 -0.0290243 5.88263e-18)
(-0.00157158 -0.00203944 -4.88773e-18)
(0.00101927 0.00293147 -6.1551e-18)
(0.00520871 0.00501775 -1.11279e-18)
(-0.00511197 0.0363039 4.43226e-19)
(0.000750475 0.000268001 -5.90385e-21)
(0.0807128 -0.0794406 3.56208e-19)
(0.000668725 3.24729e-05 -2.48358e-20)
(0.00432235 -0.00328513 4.27474e-19)
(-0.000256854 2.28341e-05 1.52163e-19)
(8.95564e-05 6.32184e-05 2.37838e-19)
(0.000685002 2.76861e-05 2.57823e-19)
(-0.000715854 0.00140919 2.28441e-18)
(0.000170408 0.000383158 4.04881e-19)
(-0.000314427 -4.00594e-06 -2.07345e-20)
(-0.0799088 0.0859963 2.50612e-19)
(0.000763182 -0.000342166 2.7684e-19)
(0.000840053 -5.94443e-05 -4.85011e-18)
(-0.000107729 1.4936e-06 -7.38247e-20)
(0.000126185 0.00139994 -1.99454e-19)
(0.000879492 -0.000967702 1.3468e-18)
(0.0185755 -0.0686162 3.71966e-18)
(0.0461084 -0.0407385 1.58158e-20)
(0.000735141 5.34177e-05 -4.14066e-21)
(0.0637709 -0.030842 -3.19451e-19)
(-0.010825 0.0316239 3.40371e-18)
(0.000334254 -0.000630919 -1.06538e-20)
(0.000495712 0.00149384 6.5871e-18)
(0.00126548 -0.00103179 -5.30028e-18)
(0.000747125 0.000205404 4.2863e-21)
(0.00922121 -0.000818477 1.09733e-19)
(-0.0164079 -0.0294235 2.45389e-17)
(0.0496981 -0.0257984 -8.97629e-19)
(-0.000368129 -0.000619389 -1.14897e-19)
(0.000691826 6.3586e-05 -3.31481e-21)
(-0.000338957 8.49371e-05 2.23505e-20)
(-0.0342769 -0.0365971 -7.10861e-20)