/*--------------------------------*- C++ -*----------------------------------*\
| =========                 |                                                 |
| \\      /  F ield         | OpenFOAM: The Open Source CFD Toolbox           |
|  \\    /   O peration     | Version:  v2012                                 |
|   \\  /    A nd           | Website:  www.openfoam.com                      |
|    \\/     M anipulation  |                                                 |
\*---------------------------------------------------------------------------*/
FoamFile
{
    version     2.0;
    format      ascii;
    class       volScalarField;
    location    "150";
    object      nut;
}
// * * * * * * * * * * * * * * * * * * * * * * * * * * * * * * * * * * * * * //

dimensions      [0 2 -1 0 0 0 0];


internalField   nonuniform List<scalar> 
13917
(
0.000425602
0.00221802
0.0128611
0.0030533
0.00672428
3.55263e-05
0.0128838
0.00957362
0.010316
0.000274412
0.00134874
0.00143786
0.00317292
0.00148663
0.000599498
0.000818652
0.00227779
0.000624349
0.00168579
0.00672262
0.00672572
0.0137725
0.00672347
0.0119346
0.0067307
0.0131096
0.000162886
0.000110556
2.99969e-05
0.000315127
0.000455177
0.000765687
0.000222343
0.000579557
0.00599249
0.000140025
0.00672348
0.0117834
0.00262898
0.00304407
0.0067326
0.00672614
0.00672518
7.28017e-05
0.00351468
0.000491276
0.000725249
0.00076241
5.33032e-05
0.00672046
0.00146749
0.00198829
6.17863e-05
0.000519326
0.00204668
0.00120531
0.0013641
0.00345124
0.0012817
0.00347547
0.00657866
0.00256705
0.000335676
0.0067225
3.64718e-05
0.00139591
0.00672441
0.00638389
0.000744109
0.00037886
0.00672397
0.00995041
0.0102157
0.00672934
4.64435e-05
0.0015806
0.00554515
0.00229105
0.0130073
0.00672504
0.00672444
0.00672405
3.55089e-05
0.0129707
0.00937723
0.00249459
0.00672402
0.000621563
0.00150436
0.00672673
0.0117133
0.000292353
0.00511015
0.00120766
0.000879372
3.65834e-05
0.00121464
0.000765328
0.0015548
5.66771e-05
0.00672187
0.000255587
7.05103e-05
0.00220993
0.00673225
0.00987223
4.10583e-05
0.000862815
0.00217755
0.000397067
0.0110714
0.00378416
0.00164877
0.0122626
0.00122064
4.91571e-05
0.00672465
3.8139e-05
0.00501342
0.000532217
0.0067259
0.000984942
0.00623188
0.00013131
0.00672336
0.00132044
0.00336757
0.00672395
0.00672062
3.52404e-05
0.0116989
0.00118497
0.0033384
0.00672587
0.00114983
0.0113948
0.000422322
5.21404e-05
0.00672453
0.000557428
0.000436116
0.00674982
0.00151206
5.82882e-05
0.00535176
0.00811211
3.88443e-05
0.00187173
0.00674321
0.00064044
0.0010504
4.9791e-05
0.00165268
0.000295441
0.000938083
0.00355348
0.000433334
0.000738466
0.00339945
0.00129509
0.000802948
0.000159035
0.00672509
0.00119913
0.00177088
0.00158143
0.00221464
0.000955311
0.00458741
0.000256008
0.000279277
0.00381486
0.00145322
0.00167499
0.00734327
0.00024856
0.0124509
4.06905e-05
0.00860415
0.0051025
0.000292198
0.000449449
0.00675035
0.0067239
0.000418126
0.0125708
0.000296571
0.00332507
0.000769046
0.00155845
0.000327425
0.00936729
0.000233207
0.00672371
5.4697e-05
0.000162485
0.00453886
0.00482313
4.68649e-05
0.000194605
0.00199418
0.00672055
0.00110403
0.00123564
0.00820814
0.000530029
0.00673245
0.00366852
0.000806264
0.0124362
0.00167958
0.0133626
0.00435724
0.00167357
0.00673093
2.65973e-05
0.000877081
0.00486122
0.00672827
0.00704146
0.00557975
0.000365999
0.00672613
0.0124744
0.0102186
0.000762197
0.000201709
0.000948699
0.00673061
0.000169473
0.00151906
0.000820236
0.0110697
0.00267732
0.00672064
0.000712874
0.0129602
0.00740633
0.0067249
0.0067217
0.00421139
0.00107386
0.00672561
0.000677425
0.000534896
0.000157797
0.000504981
0.0067249
0.000211641
0.00358886
0.00530306
0.000248575
4.80641e-05
0.00352608
0.00368788
0.00142264
0.00718477
0.00136733
0.000351726
0.000661981
0.0067257
0.00391699
0.0086579
0.000225665
0.00673001
0.00915659
0.00376043
0.00231991
0.0130041
0.00173323
0.00672465
0.00672062
0.000755671
0.0102963
0.000648015
0.00138813
0.000549731
0.00197152
0.00671961
0.00619313
0.0067221
0.00802609
0.00192417
0.00672543
0.000583875
0.000274929
0.000167845
0.000254421
0.000364274
0.00424947
0.000152854
0.0110873
0.00764083
0.0067278
0.00292048
0.00672363
0.00433672
0.00672435
3.02378e-05
0.00672081
0.000366264
0.000513313
0.00483598
0.00106707
0.00154999
5.09451e-05
0.000273997
0.000299248
0.00599465
0.0040216
0.0101611
0.00518721
0.00672489
0.0067238
0.005701
0.00485428
0.0113299
0.0064093
0.0132075
0.0042373
0.00017299
0.00128686
4.79642e-05
0.000828246
0.000972918
3.40176e-05
0.000642694
0.00102588
4.68482e-05
0.00205695
0.0114128
5.54645e-05
0.00510372
0.000647395
0.0030078
0.000663349
0.0122933
4.03116e-05
7.85409e-05
8.09032e-05
0.0113592
0.00672458
0.000295673
0.0122352
0.00242216
0.00112717
0.00425256
4.31739e-05
0.00193197
0.000552672
2.96394e-05
0.00672052
0.00360211
0.000222657
0.00672212
0.00672568
0.00672379
0.00674329
0.000449555
0.00771265
3.1185e-05
0.0115912
0.0067272
0.000243721
0.00117981
0.00102755
0.0138798
0.0118922
0.0110311
0.00672277
0.000283129
0.00672603
0.00618578
0.00358237
4.664e-05
0.000458449
0.00251282
0.00672421
0.000831912
0.000278107
0.000671186
1.38798e-05
0.0118166
0.00243886
0.000196806
0.000288412
0.00672145
0.00787259
0.0138032
0.00304736
9.81774e-05
0.00672665
0.000698907
0.00472507
0.00672478
0.00141989
0.0120406
0.00146385
0.0086882
0.00169172
0.00148712
3.25986e-05
0.00217092
3.06723e-05
3.07659e-05
0.00672305
4.36015e-05
0.00251304
0.00672927
0.000341465
0.00672547
0.00673154
0.00672578
0.000698096
0.00672528
0.00414479
0.0104201
0.000965179
0.000257393
0.0106562
0.00499106
0.00115618
0.00672605
0.000413971
0.00260309
0.000673753
0.00672387
0.00828462
0.0121448
0.0100932
0.000741724
0.000510965
0.000732906
0.00259999
0.000669976
0.00146341
0.000304043
0.00221644
0.00672215
0.0126548
0.0120202
0.0126317
0.000192748
0.000546186
0.0126886
0.0131245
0.00533762
0.00672005
0.000782641
0.00144904
0.00302683
0.000498908
0.000757876
0.00679595
0.000498485
0.00108338
0.00498718
0.0067231
0.000938242
0.0007765
0.000327617
0.00627262
0.00672545
0.00334466
0.00686042
0.00040329
0.00672267
0.0114634
3.37779e-05
0.000406636
0.00678905
0.00122126
0.00137882
0.0137707
3.16923e-05
0.00153232
0.000326829
0.00100049
0.00044145
0.000454442
0.00149715
0.00136333
3.82128e-05
0.00166624
0.000837043
0.00676736
0.000894384
0.00135336
0.00676553
0.000432377
0.00241823
0.00580534
0.0105874
0.0056367
0.00672517
0.0110876
0.00288715
0.00672546
0.00393565
0.00297725
0.000243541
0.00544203
0.00734907
0.000292456
0.000724788
0.00228876
0.0116541
0.000233591
0.00171787
0.00672567
0.00459858
5.07852e-05
0.00592059
0.00676702
0.00887758
0.0106914
0.00132525
0.00672582
0.00217329
0.00175715
0.000503678
0.00678519
0.00672441
0.00671976
0.00671979
0.00717654
0.000586614
0.00130497
0.000300172
0.00673114
0.00672145
0.000522437
0.0140162
0.000789165
0.00412466
0.00672875
0.00672784
0.00668532
0.00908752
0.00672385
0.0067279
0.000321015
0.0015454
0.00134406
0.0030856
0.00133099
0.000728769
0.00090888
4.90219e-05
0.000362157
0.000431265
0.000633226
0.000402263
0.000306283
0.00672718
0.00501805
0.00672732
0.000994062
0.00223622
0.000932353
0.000119428
0.0067232
0.000319538
0.0003093
0.000342336
0.000622322
0.000225178
0.001161
0.00672387
0.0117995
0.000210545
0.0144709
0.00242492
0.00104214
0.00036275
0.0124472
0.000392669
0.000749188
0.000187806
0.000747982
0.00132082
0.0032363
0.000126798
6.8298e-05
0.0025736
0.00091136
4.97856e-05
0.0144165
0.00225264
0.00109044
0.0012842
0.000290993
0.000607664
0.00164754
2.93131e-05
0.00880933
0.00959817
0.000289926
0.00672121
0.00448753
0.00159231
0.00673138
0.000741121
0.00114302
0.000232528
0.000327779
0.0131452
0.00046316
0.00153676
0.011561
0.00196731
0.00363169
0.00672511
0.00672373
0.00331432
0.0101285
3.35761e-05
0.00199766
0.00167575
0.00672731
0.00189052
5.28759e-05
0.00133859
0.00125813
0.00163221
0.000854239
0.00519646
0.00017289
0.0013867
0.000322916
0.00673065
0.000472573
0.00218502
0.00138378
0.00029903
0.000126442
0.000935225
0.00671971
0.0067551
0.00321664
7.87908e-05
0.00037268
0.000492141
1.4693e-05
0.000983332
0.00672034
0.000435576
2.96891e-05
0.000356391
0.00529964
0.000479142
0.00672432
0.00210412
0.00127655
0.0130926
0.00672485
0.000121606
0.00209892
0.00135863
0.000268368
0.0100907
0.000131551
0.00230882
0.00920949
0.000643088
0.00329422
0.00245765
0.000708226
0.000268347
0.000689182
0.00672482
0.00235477
0.000139807
0.00256669
0.000611411
0.0014903
0.00675736
0.00122025
0.0120652
0.00599224
0.00350959
0.00672004
0.00467884
0.00672568
0.000809077
0.00455761
0.00111111
0.00831315
0.00095073
0.00020021
0.00672001
0.000202753
0.00672412
0.000444198
0.00671956
0.000154073
0.00327715
0.000642903
1.62031e-05
0.0139461
0.00683513
0.00672416
0.000318668
0.000425372
0.00644297
0.0129897
0.000691415
0.00673081
0.000699718
3.10271e-05
0.00036283
0.000349828
0.000803892
0.0123472
0.000419212
0.00206905
0.00037099
5.31348e-05
0.000679199
3.01358e-05
0.000640952
0.00277378
0.00118333
0.000595292
0.00678775
0.00211877
0.000400361
0.000660566
0.00672475
0.0067242
0.000919607
0.00239969
0.000544803
0.00665093
0.00672639
0.00672583
0.00138372
0.00673259
0.000940454
0.00672032
0.00687235
0.00156636
3.6741e-05
0.00672176
0.00672531
0.000131158
0.000463631
0.00133605
0.00825184
0.000215848
0.00440359
0.00207711
0.000496369
0.00299894
0.00672579
0.00671958
0.00142253
0.00245531
0.00672546
0.00123356
0.000834799
0.00158535
0.000168195
0.000212025
0.00138078
0.00673128
0.00672624
0.00164908
0.00539344
0.00175252
0.006307
0.00160181
0.00672373
0.000965053
0.00672116
0.00673
0.000723057
0.000402011
0.00413103
0.000521785
0.00575702
0.00672834
0.0134664
8.94628e-05
0.00234179
0.00263596
0.00695141
0.000429
0.00268173
0.00024766
0.00278441
0.00672072
0.00672842
0.0016547
0.000475778
0.000960466
0.000588263
0.0102802
0.0023752
0.00094483
0.00206762
0.00672685
0.00148237
0.00385518
0.00672179
0.000404281
0.000147117
0.00252666
0.00982959
0.00577981
0.000280827
0.00672778
0.00674097
0.0015156
0.00149585
0.00672545
0.000338815
0.00673867
0.000435208
0.00680702
0.00678947
0.000283213
0.00408122
0.00440674
0.000525212
0.00672581
0.00672588
0.00346143
0.00673552
0.00353012
2.36511e-05
0.00581294
0.00677204
0.0118527
0.00799779
0.0017078
0.000395317
0.000690748
0.00152961
0.0067511
0.000401447
0.0072834
0.000142958
0.00672392
0.00264196
0.0123125
0.000967979
0.0127696
0.00672566
0.00122839
0.00352454
0.00109277
0.00247682
0.00215385
3.96666e-05
0.00673454
0.00038608
0.00671961
0.00405728
0.00672239
0.0105842
0.00673122
0.00568518
0.00675179
0.00588445
0.00257935
0.000232229
8.7665e-05
0.00679601
0.000254383
0.00672374
0.0119074
0.00672224
0.00538667
0.00672377
0.00147192
0.00672361
0.00048119
0.00352791
0.0102163
0.000478449
0.000397898
0.00613182
0.00413304
0.00302333
0.00672941
0.00763189
0.0106758
0.0130045
0.000216949
0.000390062
0.00227792
0.0131743
0.00111889
0.0139626
0.00676188
0.00516969
0.00251754
0.00672363
0.00148466
0.000303499
0.00683551
0.00531686
0.00672638
0.00171417
5.55877e-05
0.00359253
0.000219275
0.000868098
0.00312884
2.23049e-05
0.0001632
0.000874048
0.0030482
0.00359184
0.003074
3.86761e-05
0.00680478
0.000266454
0.000324646
0.00730912
0.0105048
0.00150259
0.00505407
0.00288765
0.0023142
0.00672731
0.00139428
0.0067184
0.000777983
0.000376651
0.00711394
0.000793948
0.00580303
0.000508017
0.0133866
0.000415743
0.00197686
0.00430903
0.00485823
0.00193084
0.000192687
0.00626364
0.00672362
0.00673139
0.0136325
0.000461617
0.000205118
0.000650432
0.00029831
0.00673138
0.000448097
0.00196556
0.00672284
0.001936
0.0128549
0.00452293
0.00677771
0.00672692
0.00361249
0.000626127
0.00167439
0.00102101
0.00594555
0.00200676
0.000457356
0.00663956
0.000448727
8.74837e-05
0.0127632
0.00362508
0.000144576
0.00100123
0.00916106
0.0130185
0.00673021
0.00982683
0.00068217
3.87513e-05
0.00672364
0.012174
0.00672502
0.0011362
0.000390101
0.000634767
0.0120448
0.000266737
0.00111468
0.00891125
0.0067199
0.000704779
0.00679233
0.000630075
0.0132132
0.002872
0.00672527
0.0017982
0.00307081
0.00756415
0.00672776
0.00672341
0.00126191
0.000451354
0.000998827
3.26599e-05
0.0014167
0.00241877
0.0017094
0.000873258
0.00199065
0.00791574
0.00157981
0.00416164
0.0134776
0.00194291
0.00656672
0.0105618
0.000303236
0.0019303
0.000470338
0.000768013
0.00390543
0.00152104
0.0027749
0.000383616
0.00672626
0.000851646
5.42879e-05
0.00672528
0.000501799
0.00605219
0.000151458
0.00671982
0.000515699
0.000760994
0.00231556
0.00390514
0.00677682
2.61733e-05
0.000252569
0.00761837
0.00620657
0.00265748
0.00094515
0.00401596
0.000397399
0.0002553
0.0045395
0.000525523
0.00669375
0.00712699
0.00209641
0.00170249
0.00533628
0.000721867
0.00673183
0.00113439
0.00254595
0.00672283
0.00672418
0.00845295
0.012033
0.000749714
0.00106913
0.00672241
0.00395697
0.0126545
0.00164293
0.00673128
0.000868379
0.00666165
0.000236581
0.00672436
0.00673009
0.00245874
0.00146861
0.00929093
0.00260584
0.00206397
0.0067309
0.000647369
0.00672107
3.26022e-05
0.00051204
0.00672567
0.00785278
0.000187756
0.000737527
0.013269
3.20082e-05
0.00677289
0.00202853
0.0032619
3.36187e-05
0.000573006
0.00917061
0.00550516
0.000867518
0.0141194
4.28658e-05
0.000906497
0.00113689
0.000143393
3.54289e-05
0.0112315
0.000121509
0.000323061
0.0135956
0.00161547
0.000771744
0.00840898
0.000102291
0.0067641
0.00211343
0.00534106
0.000332933
0.00589566
0.000192151
0.000386084
0.000454749
0.00845781
0.00115028
0.00851902
0.00199759
0.000318463
0.000468069
0.000268283
0.000917063
0.00677503
0.00172997
0.0104925
0.00672451
0.000795885
0.00675067
0.00136478
0.00509644
0.000252403
0.00138311
4.01794e-05
0.000164124
9.70691e-05
0.00963927
5.09946e-05
0.00511225
0.00061914
0.0118124
0.00673964
0.00672442
0.000913975
0.0033606
0.00672525
0.000569846
6.59925e-05
0.000278965
0.00368175
0.00304374
0.00578251
0.000488592
0.000285284
0.00672024
0.000648966
0.0124779
0.000226951
0.000306997
0.00148367
0.000342413
0.00118159
0.00151048
0.00969545
0.000552117
0.00148233
2.03444e-05
0.000761374
0.00672597
0.00481085
0.0028927
0.00513165
0.00140445
0.000220035
0.00673139
0.00158599
0.00672113
0.000931826
0.0067868
0.000220446
0.00166499
0.000335781
0.0043622
0.000234762
0.00485328
0.00907316
0.00672736
0.000576864
0.00672389
0.000850495
0.00863477
0.00137148
0.00673291
0.000840799
0.00354935
0.000665305
0.0117088
0.00424424
0.00183635
0.000475861
0.000761945
0.01402
0.00673182
0.00045098
0.00309899
0.00672451
0.000299925
0.0019193
0.00672117
0.000919725
0.0045496
0.00116302
0.000713836
0.0084022
0.000656791
0.0101246
0.00123586
0.0067212
0.00037792
0.00296293
0.00305962
0.000340755
0.00134802
0.000648592
0.00673458
0.000586243
0.000496752
0.000577523
0.00673923
0.00672514
0.00109464
0.0017432
0.00672613
0.000240203
0.00675877
0.000733813
0.000774495
0.00130307
3.79735e-05
0.0135018
0.00250298
0.00149937
0.00302695
0.00214232
0.00153535
3.55335e-05
0.00328151
0.000824036
0.00529085
0.000989867
0.000398564
0.000630587
0.00677023
0.00672549
0.0067221
0.00330467
0.000446099
0.00679106
0.000851272
0.00148345
0.00184706
0.000286238
0.0104968
0.000339479
0.00180602
0.0120159
0.00246933
0.0040247
0.0023835
0.000120883
0.00673471
0.00428541
0.00481164
0.00337888
0.00307378
0.011834
0.00034618
0.00224373
0.00672061
0.00572307
0.0143537
0.00261783
0.000147727
0.00090839
0.00672708
0.000574118
0.000722022
0.00672618
0.00672164
0.0128
0.00550493
0.00270108
0.00191505
0.00327463
0.000742638
0.000213154
0.00486278
0.00139061
3.01052e-05
0.00276147
0.000270072
0.000643728
0.002929
0.00140818
4.75032e-05
0.000366878
0.00672593
0.00141946
0.0112496
0.000977899
0.00013438
0.0120645
3.84304e-05
3.90308e-05
0.000589011
0.00220694
0.00672505
0.00672742
0.00328322
0.000922083
0.00228778
0.00284895
0.00140575
0.00672584
0.00426719
0.00589836
0.00149092
0.0017892
0.00765044
0.000162279
0.00166941
0.00945138
0.000412181
0.000842822
0.00672199
0.000504874
0.0030061
0.00269791
0.00123485
0.000974928
0.000714664
0.000106387
0.0111706
0.000636936
0.00492068
0.010714
0.00672561
0.00310484
0.000174591
0.0067258
0.00523521
0.000825512
0.00862695
0.00645381
0.0103559
0.0027128
0.00677264
0.00129197
3.34877e-05
0.0006631
0.00257902
0.00592158
0.00163786
0.000747109
0.012047
0.00672506
0.000136192
0.00672053
0.00336462
0.000581917
0.00580107
0.011983
0.000805766
7.61226e-05
0.00672602
0.00417369
0.000397698
3.37503e-05
0.00319251
9.22273e-05
0.00428534
0.00677235
2.46299e-05
0.00277467
0.000452409
0.000108499
0.00672504
0.00680383
0.0010695
0.000744511
0.000541943
6.60623e-05
0.000239672
0.000191348
0.00162665
0.0121042
0.000361868
0.00279877
0.000369085
0.00139958
0.00384545
0.000472583
0.00380138
0.00168556
0.0112399
0.00174314
0.00674333
5.01314e-05
0.00240835
0.00422783
0.00241648
0.0111758
0.000348629
0.000474586
0.0067244
0.00672483
0.00672463
0.00672098
0.000478114
0.000146395
0.000180679
0.000885758
0.00672194
0.000738019
0.00230396
0.000513849
0.00179527
0.00440441
0.00112533
0.000944495
0.00208672
3.82373e-05
0.00958424
0.000129943
0.0104503
0.00254536
0.00673556
8.20246e-05
0.0062883
3.61621e-05
0.00672368
0.00222104
0.00157164
0.0126686
0.00414248
0.000373594
0.00420114
0.000154402
0.000889597
0.0116356
0.000568509
0.00125411
0.00115485
0.00105909
0.000261917
0.0014938
0.00672358
0.000364609
0.00765731
0.00672379
0.00145569
0.00672539
0.00401183
0.00736713
0.0126036
0.00672094
0.00392543
0.00213464
0.00566815
0.00023454
0.000707838
0.00347667
0.00672237
0.00672257
0.00176826
0.000809863
0.000773601
0.000353742
0.00596204
0.0132916
0.00213966
0.0146254
5.31322e-05
0.000519493
0.000180436
0.00102126
0.012976
0.00057322
0.00115943
0.00188098
0.0105367
0.00992576
0.00672089
0.00672426
0.000295979
0.0123348
0.00662776
0.00679943
0.00341465
0.0121944
0.000351815
0.00128564
0.00124172
0.000799367
4.24884e-05
0.00230729
0.0133956
0.0041019
0.00054784
0.000255257
0.00359679
0.00673325
0.0067197
0.000528084
0.00860093
0.00132085
0.00196874
0.00141593
0.000140982
0.00336927
0.00154744
0.00775997
0.00267337
0.0047746
3.91267e-05
0.00672699
0.00672361
0.0103922
0.00672547
0.00676095
0.0012598
5.0583e-05
0.000872024
0.00345321
0.000355826
0.00672587
0.0126793
0.000548279
0.00508903
0.00268111
4.6113e-05
0.000611247
0.00409661
0.00100583
0.0133959
0.00672377
0.00853474
0.00321352
0.00878615
0.00027376
0.000224843
0.00548021
0.00232147
0.000188869
0.00124891
0.00982919
0.000569782
0.0003273
0.000608485
0.00119981
0.000402512
0.00441456
0.00141298
0.0119148
0.00284156
0.00672749
0.00438728
0.00112445
0.003173
0.000702073
0.00672562
0.000539896
0.00210303
4.29754e-05
0.000143714
0.00553671
0.00671996
7.01834e-05
0.00288626
0.000820788
0.00116112
0.000513695
0.0041834
0.00191018
0.00156476
0.00219459
0.00732548
0.0129007
0.00672415
0.00671961
0.00209199
0.00149599
0.00672751
0.00201045
0.000745114
0.00100725
0.000177257
0.00676625
0.0136452
0.00739796
0.00672604
0.00205468
0.00128526
0.00172029
4.10893e-05
0.00214218
0.00705048
0.000401484
0.00112084
0.000840419
0.00672495
0.000805158
0.00447855
0.0033253
0.00030018
0.00872404
0.00997544
0.00672525
0.0067212
0.00147566
0.00369446
0.000414428
0.00161976
0.000417629
0.00216166
0.0106655
0.003201
0.0144177
0.00672575
0.012158
0.00247043
0.00672555
0.00836426
3.27624e-05
6.04313e-05
0.000488432
0.000147703
0.000890101
0.00619136
0.00707948
0.00672802
0.00672703
6.62139e-05
0.00162829
0.00377663
0.00891554
0.000471049
0.00958897
0.000361499
0.000166552
0.0067893
0.00141892
0.0015089
0.0133274
0.000663229
0.0128582
0.00668481
0.00385098
0.00351363
0.00349276
0.000225388
3.97539e-05
0.00202362
0.00672385
0.000666878
0.000823273
0.000923182
0.000633369
7.30678e-05
0.00672165
3.03265e-05
0.00035592
0.00272083
0.00059726
0.00123057
0.00144745
0.0133178
0.00671948
0.000409833
0.0116572
0.0014641
0.000925472
0.000705564
5.02476e-05
0.00134903
0.00356569
0.00140434
0.000715908
0.00200272
0.000390898
0.00271215
0.0130045
0.00672238
9.04763e-05
4.04673e-05
0.0122673
0.000609138
0.000351074
0.0019593
0.000145438
0.00672555
0.012099
0.00157791
0.0042967
0.00100283
0.00672226
0.00672568
4.2479e-05
0.00672556
0.00672324
0.00321939
0.00116186
0.00212902
0.000519656
0.00116542
0.000240987
0.000362738
0.00672524
5.89106e-05
3.09867e-05
0.00030475
0.000354491
0.000438789
0.000565516
0.00924302
0.000342612
0.00672606
0.00559585
0.0111815
0.00672603
0.00142806
0.00672282
3.52739e-05
0.000290738
0.004087
3.77337e-05
0.0128479
0.00672232
0.00218203
0.0113535
0.00778677
0.00166355
0.00672761
0.00333737
0.010987
4.74671e-05
0.00672431
0.0136164
0.00156582
9.25867e-05
0.0113038
0.00127451
0.00672342
0.00092043
0.000280837
0.00105094
0.0123274
0.0138816
0.006744
0.00835709
3.494e-05
0.00793852
0.00672637
0.000113645
0.00203712
0.00530957
0.0144996
0.000978181
0.000798532
0.00117936
0.000449636
0.000623973
0.00681735
0.0133383
0.00376721
0.00673287
0.00255718
0.000271822
0.00620418
0.000886074
0.0143414
0.00855316
0.000632163
0.00238856
0.00428714
0.0143967
0.000655002
0.000781997
0.0067425
0.00130574
0.000304173
0.00128221
0.000461336
2.68243e-05
0.00672352
0.000726779
0.00683635
0.000156489
0.0072288
0.00291355
0.00672521
0.00672632
0.00170468
0.000567544
0.00234473
0.0143812
0.0132346
0.00676441
0.00673344
0.00672385
0.00672182
2.29819e-05
0.00677762
0.0117474
0.00044269
0.00167697
0.00530598
0.000312295
0.0140097
0.00104611
4.18845e-05
0.0080043
0.00201177
0.00387684
0.000256082
0.000208384
4.56936e-05
0.00386235
0.00770901
0.00174452
0.00673569
8.87262e-05
0.00677769
0.000607318
0.00218936
0.00998568
0.000322711
0.000173091
0.000281379
0.000660103
0.00672373
0.000260185
0.00131132
0.00672572
3.84783e-05
0.00672064
0.00196036
0.000866856
0.00240787
0.00754091
0.00117346
3.47321e-05
0.00130097
0.0067246
0.00971804
0.0128885
0.000756566
0.000251127
0.00155437
0.000344883
0.00146388
0.00204879
0.000607018
0.00147954
0.000932214
0.000623687
0.0104569
0.000134572
0.000226091
0.00138413
0.00289802
0.0144577
0.00671877
0.0122864
0.0007641
0.0124612
0.000557486
0.00249911
0.00422721
0.00069322
9.13651e-05
0.00423447
0.0145408
8.51558e-05
0.00529972
0.00278864
0.00826417
0.00104471
0.00231464
0.000600919
0.000682823
0.00122836
0.00681126
0.006726
0.0019864
0.00159437
0.000380283
0.00672348
0.00147863
0.00673534
0.0105972
0.000924618
0.00034748
0.00075937
0.000811363
0.000199469
0.000783683
0.000338928
0.00674134
8.10443e-05
0.014236
0.00277059
0.00336543
0.00986581
0.0010353
4.0966e-05
0.00672806
0.000796917
0.013752
0.0016837
0.00542731
0.00359547
0.000240975
0.0136675
0.00351035
0.00673698
0.00259358
8.93073e-05
0.000842658
0.0118427
0.000825401
0.000163291
0.000419905
0.000339192
0.00278756
0.00725706
0.00881557
0.00130952
0.000661948
0.0012426
0.000322301
0.00581274
0.000888387
0.0020528
0.000234678
0.00673122
3.42631e-05
0.00540341
0.00332399
0.00504852
0.00130181
0.00321849
0.0140404
0.00672443
0.00131174
0.00672504
0.00145344
0.00115742
0.000166288
0.0103366
0.000468867
0.00672125
0.000361548
0.00112871
0.00344834
0.000827267
0.00675367
0.00621433
0.0128183
0.000983439
7.19294e-05
0.00672109
0.000536903
0.00149794
0.000780562
0.0067524
0.00337442
0.00672286
0.00127324
0.0067238
0.0016043
0.00281056
0.00622819
0.0116055
0.00509275
0.000883765
0.00200824
0.00672593
0.0122466
0.00528731
0.000423653
0.0139364
0.00173472
0.0104443
0.00356209
0.013197
0.0017332
0.0124372
0.00118909
0.00150069
0.00427934
0.000867536
0.00165687
0.00167041
0.000320284
0.0129927
0.00030076
0.000217883
0.000537194
0.00155362
0.000214949
0.00013969
0.000654237
0.00437976
0.00455283
0.00121355
0.000198818
0.000395353
0.000866821
0.0104681
0.00759217
5.95641e-05
0.00355991
0.00135792
4.17716e-05
0.00168739
0.000780165
0.00311384
0.0082273
0.00492026
0.002061
0.00533271
0.00157077
0.00773722
0.000127146
0.00672764
0.00486585
0.00329755
0.00530669
0.000910953
0.00149145
0.000449945
0.000847289
0.0025149
0.00112388
6.85385e-05
0.000165348
0.000446688
0.0100494
0.0117379
0.0051338
0.0067251
0.00492885
7.2628e-05
0.00309458
0.000153334
0.0100245
0.0112171
0.00672668
0.00649065
0.0120384
0.000267546
0.00672971
0.00674399
0.000492455
0.00419576
0.0129089
0.000953899
0.000492382
0.00672442
0.000640325
0.00162375
5.14282e-05
0.000273971
0.000194926
0.00178764
0.000602037
0.000655272
0.00136742
0.00330016
0.000935644
0.0127865
0.000733378
0.00308935
0.00672357
0.0132732
0.000314185
0.000394768
0.00672281
0.00672487
0.000231539
0.00703832
0.000100849
0.00581311
0.00524289
0.00150352
0.0129854
0.00139901
0.00677004
0.00341099
0.000343696
0.000805621
0.00672525
0.0114004
0.00824077
0.00470496
0.000254189
0.0068639
0.000324447
0.00324864
0.00663306
0.00241642
0.00199908
0.000389376
0.000733786
7.23439e-05
0.000354312
0.00673855
0.00243945
0.00955295
0.00588851
0.000353549
0.000481767
0.00468368
0.000609364
0.00672507
0.000954094
0.000692833
0.00672214
0.00975072
0.00672648
0.000273075
0.0134819
0.000443948
0.00238237
0.00672627
0.0137811
0.00672453
0.00117328
0.00191772
0.000137369
0.000237578
0.000793831
0.0131809
0.000196331
9.36937e-05
0.0014797
0.00111889
0.00617189
0.00672379
0.00415093
0.0124798
0.000318653
0.00126861
0.000908482
0.000980614
0.00801692
0.0138247
0.000682407
0.000533663
0.00672356
0.0121566
0.00449774
0.00392487
0.000678936
0.0016456
0.000427474
4.18766e-05
0.000172162
0.000427292
0.000832485
0.0136336
0.00145215
0.00672218
0.00300708
0.000152013
0.00673697
0.0100007
0.00672126
0.00672383
0.000550503
0.000163114
0.00313483
0.00673731
0.000687791
0.00673433
3.39073e-05
0.00561528
3.37606e-05
0.0015347
0.0128617
0.00931568
0.00043384
0.000315677
0.00974329
3.56465e-05
0.00672446
0.000382168
0.000169962
0.000324209
3.89048e-05
0.0107772
0.0116039
0.0129577
5.05473e-05
0.0023842
0.00116775
0.0067209
0.00431836
0.00107522
0.00288856
0.00141123
0.00209459
0.00593774
0.000782733
0.0119605
0.00672363
0.00146193
0.00671958
0.00878883
0.0015488
0.0129499
0.00989893
0.000315557
0.00672456
0.00563832
0.00826443
3.66232e-05
0.00672374
6.70155e-05
0.00672489
0.000205405
4.5493e-05
0.000529871
0.00107799
0.00297318
0.0067432
0.00624018
0.00101194
0.0105321
0.000736978
0.000258644
0.00539494
0.00190731
0.00672897
0.00672263
0.00167719
0.0046019
0.00127245
0.0107894
0.000240845
0.00169131
0.0137416
0.000254313
0.00672401
0.00126503
0.00673009
3.87861e-05
0.00417865
0.000773642
0.00587825
0.00672438
0.00663656
9.05062e-05
0.00328149
3.16498e-05
0.00676716
0.000256268
0.00688311
3.85633e-05
0.00672389
0.00108698
0.00165636
0.000203796
0.00986806
0.00672545
0.0075014
0.000326037
0.000205439
0.00680508
0.00672931
0.0104283
0.000600138
0.00427249
0.00463608
0.000682492
0.000950204
0.000179189
0.0142099
0.00138643
0.000297075
0.00129793
0.00672668
0.00807926
0.00338542
0.0132928
0.00498811
0.00195914
0.00672377
0.0093399
0.012368
0.00672639
3.84387e-05
0.000950279
0.00672122
0.00486431
0.00673852
3.9903e-05
0.0137476
0.000341522
0.00250543
0.000578987
0.00672401
0.00340046
0.00153107
0.00672199
0.00064972
0.0034064
0.00157115
0.000283725
0.000570944
0.00671965
0.00918803
0.000972723
0.00672392
0.000261404
0.00113907
0.000169038
0.000670392
0.00648715
0.000488486
0.00363207
0.000349631
0.000366749
0.00138951
0.0125028
0.00152898
0.00220589
0.000158145
0.00475697
0.000157629
6.88887e-05
0.000165279
0.00672409
0.00440166
0.00672386
0.00025179
0.00146077
0.00134624
0.00768809
0.00686787
0.0100936
0.00672573
4.30336e-05
0.0136584
0.0144755
0.0054481
0.00326038
0.00097828
0.0134178
0.000863097
0.00129747
0.000347676
0.00680098
0.000240401
5.63741e-05
0.000526899
0.0117073
0.000141435
0.00673728
0.000160408
0.000639463
0.00252661
0.00318131
0.00147638
0.0127859
0.000341922
0.00785154
0.00118996
0.00099034
0.00297589
0.000214402
0.00876202
0.00234737
0.0011342
0.0114625
0.00927057
0.000452272
0.00195021
0.00098213
0.00175841
7.6204e-05
0.00166679
0.000280083
0.0142915
0.00674481
0.00340877
0.000209442
0.000271755
0.00672081
0.00672341
0.00138736
3.82452e-05
0.00470132
0.000507723
7.7132e-05
0.000174847
0.0103515
0.0134262
0.0137667
0.0138463
0.000659838
0.00674873
8.37511e-05
0.00607662
0.00604659
0.0044316
3.50919e-05
5.78869e-05
3.17483e-05
0.00398687
0.00672552
2.77174e-05
0.00107002
0.00109618
3.12851e-05
0.00596151
0.00672503
4.15878e-05
0.0136171
0.00228345
9.04268e-05
0.00051752
0.00672895
0.00067091
0.0127933
3.8501e-05
0.00672547
0.00390119
0.000633065
0.0015828
0.00672601
0.00248278
0.00252344
0.00326119
0.00254699
0.000333639
0.000240313
0.000183689
3.4429e-05
0.00124608
0.0101864
0.000641254
0.00217571
0.00066534
0.00238375
9.95276e-05
0.00661894
0.000596251
0.00042114
0.000574414
5.80001e-05
0.00337554
0.000191853
0.00168932
0.00941847
0.00071575
0.00394085
0.0052529
0.00439534
9.48072e-07
0.00123249
4.01738e-05
3.81167e-05
3.84091e-05
0.000549454
0.000289912
0.00509101
0.00270696
0.0085392
0.000350656
0.000121768
0.0040505
0.00464101
0.000588467
0.0136314
0.00672157
0.00599421
0.000131563
6.67096e-05
0.000268856
0.00534737
0.00672255
0.00106365
0.00309804
0.00216476
0.000967433
9.21103e-05
0.000188497
0.00406636
0.00306128
0.002812
0.00672504
0.0095311
0.00221612
0.00926006
6.77846e-05
0.00419722
3.59454e-05
0.000314404
0.0115733
0.00243039
0.00207596
0.00678812
0.00672389
0.00292892
3.72662e-05
3.77694e-05
0.0119877
0.00672373
0.00329478
5.23716e-05
0.00672541
0.000347052
0.000885651
4.66864e-05
4.52466e-05
0.000215921
0.000257252
0.00673892
0.000633968
0.000285787
5.47164e-05
6.80494e-05
0.000216704
0.00672237
8.49238e-05
0.00607157
0.000239153
0.0133149
3.66875e-05
0.00323165
6.57036e-05
0.00341676
0.000788342
0.00192483
0.00333375
0.000386826
0.00248025
0.0130855
7.22775e-05
0.000219569
7.12597e-05
0.000194276
0.0111506
0.0136532
0.000449449
0.0124007
0.000112129
0.00552645
0.000110212
0.0141573
6.56981e-05
0.00672501
0.000501104
3.36305e-05
0.000453613
0.00284714
0.0031119
9.82848e-05
0.00672456
0.00574864
0.00169368
0.000183239
0.00672557
0.00666261
0.0119676
0.000270644
0.0070109
3.62902e-05
0.0133441
0.000352716
0.00673535
0.00115098
0.0067553
0.000161917
0.000590071
0.00035165
0.000799888
0.000247591
0.00676133
0.0128385
0.00111565
0.000526838
0.0136098
5.46563e-05
0.0053588
0.0140301
0.00440036
0.00278298
0.00672384
0.000408979
0.000138706
0.013854
0.00135228
0.000430643