/*--------------------------------*- C++ -*----------------------------------*\
| =========                 |                                                 |
| \\      /  F ield         | OpenFOAM: The Open Source CFD Toolbox           |
|  \\    /   O peration     | Version:  v2012                                 |
|   \\  /    A nd           | Website:  www.openfoam.com                      |
|    \\/     M anipulation  |                                                 |
\*---------------------------------------------------------------------------*/
FoamFile
{
    version     2.0;
    format      ascii;
    class       volVectorField;
    location    "550";
    object      cellDisplacement;
}
// * * * * * * * * * * * * * * * * * * * * * * * * * * * * * * * * * * * * * //

dimensions      [0 1 0 0 0 0 0];


internalField   nonuniform List<vector> 
13851
(
(0 -0.0724364 0)
(0 -0.0699678 0)
(0 -0.0698219 0)
(0 -0.0725032 0)
(0 -0.00335958 0)
(0 -0.070807 0)
(0 -0.0693279 0)
(0 -0.00651518 0)
(0 -0.072503 0)
(0 -0.0554455 0)
(0 -0.0723011 0)
(0 -0.0367259 0)
(0 -0.0648677 0)
(0 -0.0725033 0)
(0 -0.0718292 0)
(0 -0.0724401 0)
(0 -0.0725033 0)
(0 -0.0626526 0)
(0 -0.0724787 0)
(0 -0.0724322 0)
(0 -0.0719868 0)
(0 -0.0710928 0)
(0 -0.0725022 0)
(0 -0.00145884 0)
(0 -0.0724937 0)
(0 -0.0722629 0)
(0 -0.0724843 0)
(0 -0.0724928 0)
(0 -0.0725028 0)
(0 -0.0503545 0)
(0 -0.0725029 0)
(0 -0.0692608 0)
(0 -0.0724309 0)
(0 -0.0725022 0)
(0 -0.0721004 0)
(0 -0.0725026 0)
(0 -0.00127853 0)
(0 -0.0724952 0)
(0 -0.0725027 0)
(0 -0.0653578 0)
(0 -0.0725026 0)
(0 -0.0725025 0)
(0 -0.0725033 0)
(0 -0.0724935 0)
(0 -0.0725024 0)
(0 -0.0579767 0)
(0 -0.0113078 0)
(0 -0.0724358 0)
(0 -0.0696906 0)
(0 -0.0647653 0)
(0 -0.0725033 0)
(0 -0.0659825 0)
(0 -0.072437 0)
(0 -0.0713294 0)
(0 -0.0725033 0)
(0 -0.0654982 0)
(0 -0.0724359 0)
(0 -0.0725028 0)
(0 -0.0724854 0)
(0 -0.0725033 0)
(0 -0.0354281 0)
(0 -0.0724816 0)
(0 -0.0451431 0)
(0 -0.0698509 0)
(0 -0.0724863 0)
(0 -0.0724895 0)
(0 -0.0725033 0)
(0 -0.0724348 0)
(0 -0.0659548 0)
(0 -0.0725032 0)
(0 -0.0725031 0)
(0 -0.0721431 0)
(0 -0.0629528 0)
(0 -0.0725033 0)
(0 -0.0715089 0)
(0 -0.0701972 0)
(0 -0.0725033 0)
(0 -0.0428965 0)
(0 -0.0724926 0)
(0 -0.0533361 0)
(0 -0.0662044 0)
(0 -0.0724782 0)
(0 -0.0720802 0)
(0 -0.0725033 0)
(0 -0.0725033 0)
(0 -0.072503 0)
(0 -0.0711678 0)
(0 -0.0725033 0)
(0 -0.0567866 0)
(0 -0.0725029 0)
(0 -0.0661853 0)
(0 -0.0694406 0)
(0 -0.0725033 0)
(0 -0.0725031 0)
(0 -0.072503 0)
(0 -0.0724879 0)
(0 -0.0589107 0)
(0 -0.0724414 0)
(0 -0.0725033 0)
(0 -0.0724559 0)
(0 -0.0724462 0)
(0 -0.072307 0)
(0 -0.0723469 0)
(0 -0.0645017 0)
(0 -0.0584712 0)
(0 -0.072118 0)
(0 -0.0580428 0)
(0 -0.0725031 0)
(0 -0.0693866 0)
(0 -0.0621604 0)
(0 -0.0717966 0)
(0 -0.0584672 0)
(0 -0.0724497 0)
(0 -0.0722802 0)
(0 -0.0724332 0)
(0 -0.0712481 0)
(0 -0.0387453 0)
(0 -0.00791953 0)
(0 -0.0725032 0)
(0 -0.072503 0)
(0 -0.0724754 0)
(0 -0.0584714 0)
(0 -0.0659802 0)
(0 -0.0725032 0)
(0 -0.0724724 0)
(0 -0.0724759 0)
(0 -0.0585452 0)
(0 -0.0722833 0)
(0 -0.0725028 0)
(0 -0.0720846 0)
(0 -0.0711227 0)
(0 -0.0716256 0)
(0 -0.0724937 0)
(0 -0.0725023 0)
(0 -0.0723147 0)
(0 -0.072503 0)
(0 -0.0724228 0)
(0 -0.072503 0)
(0 -0.0721534 0)
(0 -0.0720578 0)
(0 -0.0724757 0)
(0 -0.0688947 0)
(0 -0.0574005 0)
(0 -0.0724715 0)
(0 -0.0724937 0)
(0 -0.0700794 0)
(0 -0.0417354 0)
(0 -0.0725031 0)
(0 -0.0725032 0)
(0 -0.0723028 0)
(0 -0.0724451 0)
(0 -0.0724454 0)
(0 -0.0722993 0)
(0 -0.0724701 0)
(0 -0.0670907 0)
(0 -0.0617181 0)
(0 -0.0308846 0)
(0 -0.0725028 0)
(0 -0.0719948 0)
(0 -0.0690081 0)
(0 -0.00330451 0)
(0 -0.0725027 0)
(0 -0.0720952 0)
(0 -0.0724344 0)
(0 -0.0725033 0)
(0 -0.0725027 0)
(0 -0.0725026 0)
(0 -0.0725033 0)
(0 -0.0717318 0)
(0 -0.072499 0)
(0 -0.0337772 0)
(0 -0.0376727 0)
(0 -0.0722364 0)
(0 -0.00296465 0)
(0 -0.0725029 0)
(0 -0.0724836 0)
(0 -0.0724532 0)
(0 -0.0378211 0)
(0 -0.0714925 0)
(0 -0.0724492 0)
(0 -0.0724696 0)
(0 -0.0724915 0)
(0 -0.0716462 0)
(0 -0.0720606 0)
(0 -0.0725033 0)
(0 -0.0725031 0)
(0 -0.0724343 0)
(0 -0.0718261 0)
(0 -0.0663485 0)
(0 -0.0541454 0)
(0 -0.0724922 0)
(0 -0.0719892 0)
(0 -0.0725033 0)
(0 -0.0708409 0)
(0 -0.0699243 0)
(0 -0.0724392 0)
(0 -0.0724285 0)
(0 -0.0649786 0)
(0 -0.0660039 0)
(0 -0.0724361 0)
(0 -0.0724756 0)
(0 -0.072503 0)
(0 -0.0725028 0)
(0 -0.0718062 0)
(0 -0.0725016 0)
(0 -0.0725031 0)
(0 -0.0703263 0)
(0 -0.0720396 0)
(0 -0.072503 0)
(0 -0.0706964 0)
(0 -0.072439 0)
(0 -0.0656962 0)
(0 -0.0724778 0)
(0 -0.0125545 0)
(0 -0.0721122 0)
(0 -0.0706269 0)
(0 -0.0642282 0)
(0 -0.0724678 0)
(0 -0.0656427 0)
(0 -0.0725025 0)
(0 -0.0367896 0)
(0 -0.0724328 0)
(0 -0.0725033 0)
(0 -0.072503 0)
(0 -0.071783 0)
(0 -0.0720604 0)
(0 -0.00655411 0)
(0 -0.0724655 0)
(0 -0.0476987 0)
(0 -0.0720876 0)
(0 -0.0725027 0)
(0 -0.0717843 0)
(0 -0.0706382 0)
(0 -0.0420027 0)
(0 -0.0725029 0)
(0 -0.0507004 0)
(0 -0.0725016 0)
(0 -0.0725028 0)
(0 -0.0724486 0)
(0 -0.00310851 0)
(0 -0.0724932 0)
(0 -0.0725033 0)
(0 -0.0725021 0)
(0 -0.0724352 0)
(0 -0.0716528 0)
(0 -0.0724816 0)
(0 -0.0724636 0)
(0 -0.0715191 0)
(0 -0.072485 0)
(0 -0.071873 0)
(0 -0.0725033 0)
(0 -0.0724339 0)
(0 -0.00714059 0)
(0 -0.0706723 0)
(0 -0.0724441 0)
(0 -0.0725028 0)
(0 -0.0725032 0)
(0 -0.0533561 0)
(0 -0.0724797 0)
(0 -0.0564432 0)
(0 -0.0724611 0)
(0 -0.0724703 0)
(0 -0.0707721 0)
(0 -0.0721115 0)
(0 -0.0724387 0)
(0 -0.0605624 0)
(0 -0.0723261 0)
(0 -0.0724143 0)
(0 -0.072491 0)
(0 -0.0443874 0)
(0 -0.0640522 0)
(0 -0.0718211 0)
(0 -0.0725025 0)
(0 -0.0725033 0)
(0 -0.072074 0)
(0 -0.059214 0)
(0 -0.0724716 0)
(0 -0.0724702 0)
(0 -0.0724168 0)
(0 -0.0720918 0)
(0 -0.0725026 0)
(0 -0.0725033 0)
(0 -0.0709556 0)
(0 -0.0716648 0)
(0 -0.0724965 0)
(0 -0.058307 0)
(0 -0.0297038 0)
(0 -0.0724225 0)
(0 -0.072267 0)
(0 -0.0519804 0)
(0 -0.0122984 0)
(0 -0.0485569 0)
(0 -0.00450244 0)
(0 -0.0716356 0)
(0 -0.0311128 0)
(0 -0.0725029 0)
(0 -0.072026 0)
(0 -0.0632503 0)
(0 -0.0725028 0)
(0 -0.0725032 0)
(0 -0.0662056 0)
(0 -0.0724369 0)
(0 -0.0725033 0)
(0 -0.0691448 0)
(0 -0.0664157 0)
(0 -0.0720612 0)
(0 -0.0725033 0)
(0 -0.0725013 0)
(0 -0.0722828 0)
(0 -0.00428891 0)
(0 -0.0724987 0)
(0 -0.0351546 0)
(0 -0.0723123 0)
(0 -0.0725033 0)
(0 -0.0724907 0)
(0 -0.0688077 0)
(0 -0.0724956 0)
(0 -0.0724909 0)
(0 -0.072503 0)
(0 -0.0724444 0)
(0 -0.072334 0)
(0 -0.0725028 0)
(0 -0.0725031 0)
(0 -0.0724922 0)
(0 -0.0663677 0)
(0 -0.0725033 0)
(0 -0.0725033 0)
(0 -0.0725002 0)
(0 -0.0724993 0)
(0 -0.0704229 0)
(0 -0.072273 0)
(0 -0.0718044 0)
(0 -0.0725033 0)
(0 -0.0723693 0)
(0 -0.0118765 0)
(0 -0.0128019 0)
(0 -0.0712951 0)
(0 -0.0725031 0)
(0 -0.0725025 0)
(0 -0.0578559 0)
(0 -0.072503 0)
(0 -0.07184 0)
(0 -0.0716667 0)
(0 -0.0691034 0)
(0 -0.0725033 0)
(0 -0.0724693 0)
(0 -0.0724422 0)
(0 -0.0705019 0)
(0 -0.0704904 0)
(0 -0.0725025 0)
(0 -0.0665948 0)
(0 -0.0724724 0)
(0 -0.0708852 0)
(0 -0.0720643 0)
(0 -0.0718902 0)
(0 -0.0570499 0)
(0 -0.0630774 0)
(0 -0.0724461 0)
(0 -0.0724602 0)
(0 -0.0724339 0)
(0 -0.0724928 0)
(0 -0.0725024 0)
(0 -0.0702066 0)
(0 -0.0725029 0)
(0 -0.0724712 0)
(0 -0.0532801 0)
(0 -0.0724918 0)
(0 -0.0723785 0)
(0 -0.0725033 0)
(0 -0.0711992 0)
(0 -0.0722854 0)
(0 -0.0724827 0)
(0 -0.0724934 0)
(0 -0.0724403 0)
(0 -0.0725033 0)
(0 -0.0682098 0)
(0 -0.0724853 0)
(0 -0.0725033 0)
(0 -0.0714857 0)
(0 -0.0725033 0)
(0 -0.0716624 0)
(0 -0.0725027 0)
(0 -0.0716159 0)
(0 -0.0718322 0)
(0 -0.0724339 0)
(0 -0.072471 0)
(0 -0.0618606 0)
(0 -0.0708334 0)
(0 -0.0722874 0)
(0 -0.0715379 0)
(0 -0.0594327 0)
(0 -0.0720924 0)
(0 -0.0725004 0)
(0 -0.0626956 0)
(0 -0.0720457 0)
(0 -0.0725032 0)
(0 -0.0699997 0)
(0 -0.0724981 0)
(0 -0.0719976 0)
(0 -0.072501 0)
(0 -0.070819 0)
(0 -0.0722404 0)
(0 -0.0725009 0)
(0 -0.0724728 0)
(0 -0.0720982 0)
(0 -0.0725033 0)
(0 -0.0725033 0)
(0 -0.0724916 0)
(0 -0.0607436 0)
(0 -0.0724417 0)
(0 -0.0717031 0)
(0 -0.0722774 0)
(0 -0.0586391 0)
(0 -0.0725033 0)
(0 -0.0725006 0)
(0 -0.0724936 0)
(0 -0.0704116 0)
(0 -0.0724387 0)
(0 -0.0724815 0)
(0 -0.0725033 0)
(0 -0.0441997 0)
(0 -0.0725033 0)
(0 -0.0724743 0)
(0 -0.0725028 0)
(0 -0.0719168 0)
(0 -0.0724929 0)
(0 -0.0617523 0)
(0 -0.00260478 0)
(0 -0.0725033 0)
(0 -0.0724818 0)
(0 -0.056401 0)
(0 -0.0699866 0)
(0 -0.0720713 0)
(0 -0.0389819 0)
(0 -0.0725 0)
(0 -0.0722821 0)
(0 -0.0723701 0)
(0 -0.0704903 0)
(0 -0.0681405 0)
(0 -0.0659249 0)
(0 -0.0724927 0)
(0 -0.0629313 0)
(0 -0.0656062 0)
(0 -0.0724979 0)
(0 -0.0725001 0)
(0 -0.0710321 0)
(0 -0.0724787 0)
(0 -0.0443623 0)
(0 -0.0298772 0)
(0 -0.0701713 0)
(0 -0.0724382 0)
(0 -0.0719693 0)
(0 -0.060343 0)
(0 -0.0685872 0)
(0 -0.0724714 0)
(0 -0.0690163 0)
(0 -0.0725008 0)
(0 -0.0348063 0)
(0 -0.07085 0)
(0 -0.0725023 0)
(0 -0.0721401 0)
(0 -0.0133605 0)
(0 -0.0327932 0)
(0 -0.0704231 0)
(0 -0.0658068 0)
(0 -0.0724931 0)
(0 -0.0724992 0)
(0 -0.0716925 0)
(0 -0.0725024 0)
(0 -0.0702401 0)
(0 -0.0439549 0)
(0 -0.0725028 0)
(0 -0.0724818 0)
(0 -0.0721524 0)
(0 -0.0639487 0)
(0 -0.0725031 0)
(0 -0.0721324 0)
(0 -0.0725011 0)
(0 -0.0644119 0)
(0 -0.0716313 0)
(0 -0.0724455 0)
(0 -0.0716795 0)
(0 -0.072503 0)
(0 -0.0724831 0)
(0 -0.0724925 0)
(0 -0.0704816 0)
(0 -0.0724483 0)
(0 -0.0610065 0)
(0 -0.0725028 0)
(0 -0.0719801 0)
(0 -0.0724292 0)
(0 -0.071667 0)
(0 -0.070343 0)
(0 -0.0721144 0)
(0 -0.0722481 0)
(0 -0.00377873 0)
(0 -0.0725033 0)
(0 -0.0725029 0)
(0 -0.0725006 0)
(0 -0.0725033 0)
(0 -0.0724989 0)
(0 -0.0725033 0)
(0 -0.0724725 0)
(0 -0.0717036 0)
(0 -0.0216058 0)
(0 -0.0724994 0)
(0 -0.0551381 0)
(0 -0.0588706 0)
(0 -0.0718825 0)
(0 -0.0725029 0)
(0 -0.0696615 0)
(0 -0.0688303 0)
(0 -0.0724251 0)
(0 -0.0721228 0)
(0 -0.0562972 0)
(0 -0.0724987 0)
(0 -0.0582635 0)
(0 -0.0725026 0)
(0 -0.0724916 0)
(0 -0.0540137 0)
(0 -0.0690344 0)
(0 -0.0724748 0)
(0 -0.0724918 0)
(0 -0.0517736 0)
(0 -0.0724968 0)
(0 -0.0725002 0)
(0 -0.0556782 0)
(0 -0.0725028 0)
(0 -0.0724766 0)
(0 -0.0724327 0)
(0 -0.0704145 0)
(0 -0.0724975 0)
(0 -0.0725033 0)
(0 -0.0563501 0)
(0 -0.0724751 0)
(0 -0.0658987 0)
(0 -0.0587659 0)
(0 -0.0724958 0)
(0 -0.0725027 0)
(0 -0.0719219 0)
(0 -0.0719429 0)
(0 -0.055424 0)
(0 -0.0721868 0)
(0 -0.0725027 0)
(0 -0.0725029 0)
(0 -0.059514 0)
(0 -0.0725033 0)
(0 -0.0598466 0)
(0 -0.0661193 0)
(0 -0.0721194 0)
(0 -0.0707976 0)
(0 -0.0444542 0)
(0 -0.0701797 0)
(0 -0.0725028 0)
(0 -0.0724673 0)
(0 -0.0725029 0)
(0 -0.0694617 0)
(0 -0.0566956 0)
(0 -0.0725024 0)
(0 -0.0274392 0)
(0 -0.0724423 0)
(0 -0.0709018 0)
(0 -0.0715255 0)
(0 -0.0716534 0)
(0 -0.0725015 0)
(0 -0.0725033 0)
(0 -0.0707685 0)
(0 -0.0725033 0)
(0 -0.0685306 0)
(0 -0.072281 0)
(0 -0.0725025 0)
(0 -0.0725033 0)
(0 -0.0659067 0)
(0 -0.0610938 0)
(0 -0.072349 0)
(0 -0.0725029 0)
(0 -0.0724747 0)
(0 -0.0721712 0)
(0 -0.0725014 0)
(0 -0.070848 0)
(0 -0.071565 0)
(0 -0.0725024 0)
(0 -0.072499 0)
(0 -0.0724638 0)
(0 -0.0725027 0)
(0 -0.0724614 0)
(0 -0.0725022 0)
(0 -0.0676175 0)
(0 -0.0724863 0)
(0 -0.072491 0)
(0 -0.04129 0)
(0 -0.0725033 0)
(0 -0.0725006 0)
(0 -0.0717197 0)
(0 -0.0720774 0)
(0 -0.064861 0)
(0 -0.0725023 0)
(0 -0.0723739 0)
(0 -0.0725013 0)
(0 -0.0631828 0)
(0 -0.00345917 0)
(0 -0.0714393 0)
(0 -0.0721063 0)
(0 -0.0337432 0)
(0 -0.072503 0)
(0 -0.00417398 0)
(0 -0.0724582 0)
(0 -0.0704787 0)
(0 -0.0722907 0)
(0 -0.064207 0)
(0 -0.057074 0)
(0 -0.0722102 0)
(0 -0.0725033 0)
(0 -0.0720997 0)
(0 -0.0725031 0)
(0 -0.0716612 0)
(0 -0.041212 0)
(0 -0.0571076 0)
(0 -0.0722497 0)
(0 -0.0685134 0)
(0 -0.0723955 0)
(0 -0.0700689 0)
(0 -0.0721249 0)
(0 -0.0724847 0)
(0 -0.027667 0)
(0 -0.0725033 0)
(0 -0.00889078 0)
(0 -0.0723739 0)
(0 -0.0725033 0)
(0 -0.0725024 0)
(0 -0.0717447 0)
(0 -0.0725008 0)
(0 -0.0724214 0)
(0 -0.0724723 0)
(0 -0.0725009 0)
(0 -0.0612119 0)
(0 -0.0724993 0)
(0 -0.0718553 0)
(0 -0.0715585 0)
(0 -0.0725033 0)
(0 -0.0724894 0)
(0 -0.0540356 0)
(0 -0.0723872 0)
(0 -0.0646791 0)
(0 -0.0725025 0)
(0 -0.0725033 0)
(0 -0.066727 0)
(0 -0.0724402 0)
(0 -0.0724999 0)
(0 -0.00820961 0)
(0 -0.0110755 0)
(0 -0.072273 0)
(0 -0.0725033 0)
(0 -0.0724958 0)
(0 -0.0662731 0)
(0 -0.0724338 0)
(0 -0.0687869 0)
(0 -0.058286 0)
(0 -0.0724857 0)
(0 -0.0724379 0)
(0 -0.0724519 0)
(0 -0.0403492 0)
(0 -0.0724134 0)
(0 -0.072327 0)
(0 -0.0721975 0)
(0 -0.068878 0)
(0 -0.0697585 0)
(0 -0.0723632 0)
(0 -0.0713754 0)
(0 -0.0724257 0)
(0 -0.0721247 0)
(0 -0.07213 0)
(0 -0.0724566 0)
(0 -0.0725003 0)
(0 -0.0724773 0)
(0 -0.0725 0)
(0 -0.0724959 0)
(0 -0.0724405 0)
(0 -0.0725033 0)
(0 -0.0721602 0)
(0 -0.0724966 0)
(0 -0.0724369 0)
(0 -0.0617729 0)
(0 -0.0715089 0)
(0 -0.0724733 0)
(0 -0.0712165 0)
(0 -0.0524661 0)
(0 -0.0512636 0)
(0 -0.0723761 0)
(0 -0.0725033 0)
(0 -0.0709301 0)
(0 -0.0725029 0)
(0 -0.0420526 0)
(0 -0.0724966 0)
(0 -0.0724676 0)
(0 -0.0725033 0)
(0 -0.0723868 0)
(0 -0.0708988 0)
(0 -0.0698513 0)
(0 -0.0725033 0)
(0 -0.0724514 0)
(0 -0.0721245 0)
(0 -0.0724831 0)
(0 -0.0678009 0)
(0 -0.0724984 0)
(0 -0.072381 0)
(0 -0.0724587 0)
(0 -0.0716544 0)
(0 -0.0724825 0)
(0 -0.0615566 0)
(0 -0.0102282 0)
(0 -0.0701427 0)
(0 -0.0589149 0)
(0 -0.0725025 0)
(0 -0.00519955 0)
(0 -0.0724839 0)
(0 -0.0725026 0)
(0 -0.0723948 0)
(0 -0.0725028 0)
(0 -0.0725033 0)
(0 -0.0724623 0)
(0 -0.0724753 0)
(0 -0.071733 0)
(0 -0.0293849 0)
(0 -0.0634776 0)
(0 -0.041777 0)
(0 -0.0565828 0)
(0 -0.00398745 0)
(0 -0.0722848 0)
(0 -0.0724454 0)
(0 -0.0723493 0)
(0 -0.0724917 0)
(0 -0.0695434 0)
(0 -0.072503 0)
(0 -0.00216512 0)
(0 -0.0725031 0)
(0 -0.0720385 0)
(0 -0.0045636 0)
(0 -0.0391545 0)
(0 -0.0725024 0)
(0 -0.0708851 0)
(0 -0.072496 0)
(0 -0.0725005 0)
(0 -0.0720241 0)
(0 -0.0722916 0)
(0 -0.0549973 0)
(0 -0.0725024 0)
(0 -0.0707479 0)
(0 -0.0697783 0)
(0 -0.072486 0)
(0 -0.0293263 0)
(0 -0.0688028 0)
(0 -0.0606147 0)
(0 -0.0719903 0)
(0 -0.0725033 0)
(0 -0.0714483 0)
(0 -0.0716605 0)
(0 -0.0724767 0)
(0 -0.072503 0)
(0 -0.0718192 0)
(0 -0.071409 0)
(0 -0.0725023 0)
(0 -0.0404404 0)
(0 -0.0725024 0)
(0 -0.00773265 0)
(0 -0.0690974 0)
(0 -0.0724922 0)
(0 -0.0723393 0)
(0 -0.0724294 0)
(0 -0.0723851 0)
(0 -0.0721173 0)
(0 -0.0190208 0)
(0 -0.00201336 0)
(0 -0.0723006 0)
(0 -0.0677638 0)
(0 -0.0166388 0)
(0 -0.0710098 0)
(0 -0.0724766 0)
(0 -0.0274053 0)
(0 -0.072471 0)
(0 -0.0724975 0)
(0 -0.0724948 0)
(0 -0.07238 0)
(0 -0.0725027 0)
(0 -0.0721947 0)
(0 -0.030598 0)
(0 -0.0724393 0)
(0 -0.0425308 0)
(0 -0.0708502 0)
(0 -0.0724996 0)
(0 -0.0725023 0)
(0 -0.0724994 0)
(0 -0.072502 0)
(0 -0.0669729 0)
(0 -0.06647 0)
(0 -0.0724083 0)
(0 -0.069576 0)
(0 -0.057449 0)
(0 -0.0725023 0)
(0 -0.0724637 0)
(0 -0.0725032 0)
(0 -0.0723807 0)
(0 -0.07235 0)
(0 -0.0601471 0)
(0 -0.05089 0)
(0 -0.0724962 0)
(0 -0.0723711 0)
(0 -0.0693338 0)
(0 -0.0126001 0)
(0 -0.0724299 0)
(0 -0.072454 0)
(0 -0.0725029 0)
(0 -0.0668656 0)
(0 -0.0183535 0)
(0 -0.0725033 0)
(0 -0.0686931 0)
(0 -0.071659 0)
(0 -0.0374797 0)
(0 -0.0725028 0)
(0 -0.00493741 0)
(0 -0.0725033 0)
(0 -0.0485936 0)
(0 -0.0724435 0)
(0 -0.0718975 0)
(0 -0.0724134 0)
(0 -0.0716893 0)
(0 -0.0627787 0)
(0 -0.0700052 0)
(0 -0.0212191 0)
(0 -0.0724829 0)
(0 -0.0687928 0)
(0 -0.0725032 0)
(0 -0.0680114 0)
(0 -0.0724955 0)
(0 -0.0725027 0)
(0 -0.0715834 0)
(0 -0.0163928 0)
(0 -0.0725031 0)
(0 -0.0724992 0)
(0 -0.0708846 0)
(0 -0.0723377 0)
(0 -0.0632656 0)
(0 -0.0725032 0)
(0 -0.0622794 0)
(0 -0.0724725 0)
(0 -0.0443712 0)
(0 -0.0221021 0)
(0 -0.072495 0)
(0 -0.0716849 0)
(0 -0.0343375 0)
(0 -0.0713872 0)
(0 -0.0725028 0)
(0 -0.0725021 0)
(0 -0.0725003 0)
(0 -0.0529564 0)
(0 -0.0725033 0)
(0 -0.0457974 0)
(0 -0.026108 0)
(0 -0.0669295 0)
(0 -0.0152143 0)
(0 -0.0156568 0)
(0 -0.0725005 0)
(0 -0.0724998 0)
(0 -0.0659041 0)
(0 -0.0052512 0)
(0 -0.0719446 0)
(0 -0.0583051 0)
(0 -0.0725031 0)
(0 -0.0724438 0)
(0 -0.0725033 0)
(0 -0.0725028 0)
(0 -0.0700072 0)
(0 -0.0724239 0)
(0 -0.0425663 0)
(0 -0.0719703 0)
(0 -0.0724606 0)
(0 -0.0607172 0)
(0 -0.00759897 0)
(0 -0.0724927 0)
(0 -0.0725033 0)
(0 -0.0722797 0)
(0 -0.0725033 0)
(0 -0.0722465 0)
(0 -0.0443544 0)
(0 -0.0719893 0)
(0 -0.0723471 0)
(0 -0.0725033 0)
(0 -0.0715688 0)
(0 -0.0724911 0)
(0 -0.0723799 0)
(0 -0.0135223 0)
(0 -0.0725016 0)
(0 -0.0725019 0)
(0 -0.0725033 0)
(0 -0.0724913 0)
(0 -0.0724953 0)
(0 -0.0704391 0)
(0 -0.072482 0)
(0 -0.0656685 0)
(0 -0.0724884 0)
(0 -0.0711163 0)
(0 -0.00974626 0)
(0 -0.0725006 0)
(0 -0.0693835 0)
(0 -0.0150827 0)
(0 -0.0659161 0)
(0 -0.0692243 0)
(0 -0.0725029 0)
(0 -0.0724724 0)
(0 -0.0494763 0)
(0 -0.0720129 0)
(0 -0.0725033 0)
(0 -0.0693563 0)
(0 -0.0725033 0)
(0 -0.0698849 0)
(0 -0.0723309 0)
(0 -0.0725027 0)
(0 -0.0321365 0)
(0 -0.072478 0)
(0 -0.0715486 0)
(0 -0.0716525 0)
(0 -0.0725023 0)
(0 -0.0693998 0)
(0 -0.072476 0)
(0 -0.0722241 0)
(0 -0.0725027 0)
(0 -0.0650766 0)
(0 -0.0725032 0)
(0 -0.0714464 0)
(0 -0.0725033 0)
(0 -0.0725033 0)
(0 -0.0725033 0)
(0 -0.0720266 0)
(0 -0.063085 0)
(0 -0.0671632 0)
(0 -0.00842816 0)
(0 -0.0717794 0)
(0 -0.0401193 0)
(0 -0.0725029 0)
(0 -0.0715837 0)
(0 -0.0716494 0)
(0 -0.0717711 0)
(0 -0.0703225 0)
(0 -0.0521543 0)
(0 -0.0704675 0)
(0 -0.0712624 0)
(0 -0.0689993 0)
(0 -0.0712722 0)
(0 -0.0725014 0)
(0 -0.072482 0)
(0 -0.0713629 0)
(0 -0.0722303 0)
(0 -0.0725003 0)
(0 -0.0689588 0)
(0 -0.072503 0)
(0 -0.0392007 0)
(0 -0.071902 0)
(0 -0.0689054 0)
(0 -0.0624728 0)
(0 -0.0721927 0)
(0 -0.0449196 0)
(0 -0.0490668 0)
(0 -0.0723344 0)
(0 -0.0621402 0)
(0 -0.0724745 0)
(0 -0.0682427 0)
(0 -0.0725033 0)
(0 -0.0724884 0)
(0 -0.0724644 0)
(0 -0.0724715 0)
(0 -0.0645416 0)
(0 -0.0725029 0)
(0 -0.0724473 0)
(0 -0.0134704 0)
(0 -0.0712832 0)
(0 -0.0685615 0)
(0 -0.0725029 0)
(0 -0.0698884 0)
(0 -0.0723257 0)
(0 -0.0724916 0)
(0 -0.0725032 0)
(0 -0.0723758 0)
(0 -0.0655955 0)
(0 -0.0725017 0)
(0 -0.0724903 0)
(0 -0.0724963 0)
(0 -0.071533 0)
(0 -0.0417683 0)
(0 -0.0591181 0)
(0 -0.0722782 0)
(0 -0.062415 0)
(0 -0.0725033 0)
(0 -0.0724461 0)
(0 -0.0240051 0)
(0 -0.07247 0)
(0 -0.0724753 0)
(0 -0.060099 0)
(0 -0.0725011 0)
(0 -0.0725033 0)
(0 -0.0724609 0)
(0 -0.068237 0)
(0 -0.0725016 0)
(0 -0.072275 0)
(0 -0.0363657 0)
(0 -0.0725033 0)
(0 -0.0713441 0)
(0 -0.0594062 0)
(0 -0.0574686 0)
(0 -0.0714314 0)
(0 -0.0718043 0)
(0 -0.0725028 0)
(0 -0.0725027 0)
(0 -0.0718945 0)
(0 -0.0725026 0)
(0 -0.0715932 0)
(0 -0.0596057 0)
(0 -0.0724577 0)
(0 -0.0505735 0)
(0 -0.0724937 0)
(0 -0.0600623 0)
(0 -0.0209849 0)
(0 -0.0704304 0)
(0 -0.0675964 0)
(0 -0.0725026 0)
(0 -0.0725032 0)
(0 -0.0724734 0)
(0 -0.0725033 0)
(0 -0.0725006 0)
(0 -0.0717815 0)
(0 -0.063495 0)
(0 -0.0681962 0)
(0 -0.0724783 0)
(0 -0.0596707 0)
(0 -0.00633954 0)
(0 -0.0720764 0)
(0 -0.0724933 0)
(0 -0.0724777 0)
(0 -0.0112706 0)
(0 -0.0720181 0)
(0 -0.0717004 0)
(0 -0.0724329 0)
(0 -0.0725033 0)
(0 -0.0556251 0)
(0 -0.0434431 0)
(0 -0.0687513 0)
(0 -0.0724924 0)
(0 -0.0709479 0)
(0 -0.0725027 0)
(0 -0.0697527 0)
(0 -0.016938 0)
(0 -0.059614 0)
(0 -0.0578754 0)
(0 -0.070591 0)
(0 -0.0724604 0)
(0 -0.072502 0)
(0 -0.0725026 0)
(0 -0.071789 0)
(0 -0.0448439 0)
(0 -0.0724976 0)
(0 -0.0659014 0)
(0 -0.072494 0)
(0 -0.0725033 0)
(0 -0.0719185 0)
(0 -0.0725033 0)
(0 -0.0725026 0)
(0 -0.0725029 0)
(0 -0.072135 0)
(0 -0.0715304 0)
(0 -0.0725032 0)
(0 -0.0714456 0)
(0 -0.0720372 0)
(0 -0.0724143 0)
(0 -0.0724742 0)
(0 -0.067698 0)
(0 -0.0725022 0)
(0 -0.0600932 0)
(0 -0.0724991 0)
(0 -0.0724934 0)
(0 -0.0394091 0)
(0 -0.0705254 0)
(0 -0.0722158 0)
(0 -0.0724771 0)
(0 -0.0716463 0)
(0 -0.0158786 0)
(0 -0.0709799 0)
(0 -0.0698656 0)
(0 -0.0703387 0)
(0 -0.0724997 0)
(0 -0.0322257 0)
(0 -0.0724997 0)
(0 -0.0725033 0)
(0 -0.0606924 0)
(0 -0.0714566 0)
(0 -0.071789 0)
(0 -0.0402038 0)
(0 -0.0725025 0)
(0 -0.0725033 0)
(0 -0.0725029 0)
(0 -0.0725032 0)
(0 -0.0444483 0)
(0 -0.0705911 0)
(0 -0.0710533 0)
(0 -0.0671861 0)
(0 -0.0724739 0)
(0 -0.071672 0)
(0 -0.0121093 0)
(0 -0.0722314 0)
(0 -0.0712735 0)
(0 -0.072497 0)
(0 -0.071919 0)
(0 -0.0725033 0)
(0 -0.0697298 0)
(0 -0.0695337 0)
(0 -0.0723677 0)
(0 -0.0723728 0)
(0 -0.072304 0)
(0 -0.0599118 0)
(0 -0.0725033 0)
(0 -0.0725033 0)
(0 -0.0725025 0)
(0 -0.0725032 0)
(0 -0.0724996 0)
(0 -0.0725027 0)
(0 -0.0725033 0)
(0 -0.059295 0)
(0 -0.056132 0)
(0 -0.063376 0)
(0 -0.0724733 0)
(0 -0.0719593 0)
(0 -0.0723033 0)
(0 -0.0725033 0)
(0 -0.064705 0)
(0 -0.0265177 0)
(0 -0.0558236 0)
(0 -0.0724667 0)
(0 -0.0420937 0)
(0 -0.0707403 0)
(0 -0.0702439 0)
(0 -0.0724973 0)
(0 -0.0695409 0)
(0 -0.0423371 0)
(0 -0.0435202 0)
(0 -0.0624313 0)
(0 -0.00564146 0)
(0 -0.0720934 0)
(0 -0.0724725 0)
(0 -0.0720132 0)
(0 -0.072499 0)
(0 -0.0537014 0)
(0 -0.0583502 0)
(0 -0.0725028 0)
(0 -0.0725025 0)
(0 -0.0725033 0)
(0 -0.0724953 0)
(0 -0.0723527 0)
(0 -0.0724963 0)
(0 -0.039735 0)
(0 -0.0723567 0)
(0 -0.0695566 0)
(0 -0.0476749 0)
(0 -0.0694143 0)
(0 -0.0725033 0)
(0 -0.0683664 0)
(0 -0.0723789 0)
(0 -0.0724953 0)
(0 -0.0653647 0)
(0 -0.0620135 0)
(0 -0.0713838 0)
(0 -0.0724631 0)
(0 -0.00500451 0)
(0 -0.0724973 0)
(0 -0.063036 0)
(0 -0.0724693 0)
(0 -0.0400483 0)
(0 -0.0658753 0)
(0 -0.0709174 0)
(0 -0.0724582 0)
(0 -0.0652429 0)
(0 -0.0724859 0)
(0 -0.0725031 0)
(0 -0.0724619 0)
(0 -0.0725022 0)
(0 -0.0614594 0)
(0 -0.0725033 0)
(0 -0.0724862 0)
(0 -0.0502628 0)
(0 -0.0724934 0)
(0 -0.0669958 0)
(0 -0.0722897 0)
(0 -0.0665115 0)
(0 -0.0637986 0)
(0 -0.0346893 0)
(0 -0.0576457 0)
(0 -0.0678842 0)
(0 -0.0715514 0)
(0 -0.0722712 0)
(0 -0.0659811 0)
(0 -0.0454176 0)
(0 -0.0724223 0)
(0 -0.053749 0)
(0 -0.0724995 0)
(0 -0.0401263 0)
(0 -0.0715943 0)
(0 -0.0715539 0)
(0 -0.0725033 0)
(0 -0.0724902 0)
(0 -0.0346865 0)
(0 -0.0724632 0)
(0 -0.034666 0)
(0 -0.0711825 0)
(0 -0.0723564 0)
(0 -0.0724944 0)
(0 -0.0720607 0)
(0 -0.00471332 0)
(0 -0.0724069 0)
(0 -0.0724427 0)
(0 -0.0723454 0)
(0 -0.0724863 0)
(0 -0.072101 0)
(0 -0.0724379 0)
(0 -0.0721797 0)
(0 -0.0722777 0)
(0 -0.0693934 0)
(0 -0.0588147 0)
(0 -0.0724946 0)
(0 -0.0725032 0)
(0 -0.0704018 0)
(0 -0.0369185 0)
(0 -0.0725033 0)
(0 -0.0442451 0)
(0 -0.0719741 0)
(0 -0.0495753 0)
(0 -0.0723791 0)
(0 -0.0724942 0)
(0 -0.0420048 0)
(0 -0.0725033 0)
(0 -0.0707395 0)
(0 -0.0156245 0)
(0 -0.0724516 0)
(0 -0.0135701 0)
(0 -0.07227 0)
(0 -0.0725031 0)
(0 -0.071939 0)
(0 -0.0724953 0)
(0 -0.0356867 0)
(0 -0.00635186 0)
(0 -0.0723136 0)
(0 -0.0178489 0)
(0 -0.0146061 0)
(0 -0.0709152 0)
(0 -0.0713645 0)
(0 -0.0722751 0)
(0 -0.0723863 0)
(0 -0.0651439 0)
(0 -0.0720406 0)
(0 -0.0579202 0)
(0 -0.0427587 0)
(0 -0.0205417 0)
(0 -0.0495447 0)
(0 -0.0724927 0)
(0 -0.0607774 0)
(0 -0.0699894 0)
(0 -0.0724776 0)
(0 -0.0434214 0)
(0 -0.0369109 0)
(0 -0.0725024 0)
(0 -0.0138819 0)
(0 -0.0725033 0)
(0 -0.0686068 0)
(0 -0.072502 0)
(0 -0.0724688 0)
(0 -0.0723718 0)
(0 -0.0724957 0)
(0 -0.072292 0)
(0 -0.0725007 0)
(0 -0.0667575 0)
(0 -0.0724572 0)
(0 -0.071157 0)
(0 -0.0582454 0)
(0 -0.0581565 0)
(0 -0.0699902 0)
(0 -0.0714828 0)
(0 -0.0619303 0)
(0 -0.0722495 0)
(0 -0.0422841 0)
(0 -0.0694627 0)
(0 -0.0725033 0)
(0 -0.0725033 0)
(0 -0.0725011 0)
(0 -0.0693079 0)
(0 -0.0723507 0)
(0 -0.0725033 0)
(0 -0.0725029 0)
(0 -0.0285848 0)
(0 -0.0706401 0)
(0 -0.0725002 0)
(0 -0.0652577 0)
(0 -0.0719874 0)
(0 -0.0724942 0)
(0 -0.0725025 0)
(0 -0.0707683 0)
(0 -0.0719549 0)
(0 -0.0690352 0)
(0 -0.072477 0)
(0 -0.00411577 0)
(0 -0.0721156 0)
(0 -0.0724928 0)
(0 -0.0663558 0)
(0 -0.00619779 0)
(0 -0.0724993 0)
(0 -0.0720612 0)
(0 -0.0724756 0)
(0 -0.0725021 0)
(0 -0.0723793 0)
(0 -0.0681095 0)
(0 -0.0422888 0)
(0 -0.0661441 0)
(0 -0.0725033 0)
(0 -0.0724899 0)
(0 -0.0724977 0)
(0 -0.0722401 0)
(0 -0.0595463 0)
(0 -0.0725033 0)
(0 -0.042628 0)
(0 -0.0724473 0)
(0 -0.071451 0)
(0 -0.0683401 0)
(0 -0.0719947 0)
(0 -0.0455808 0)
(0 -0.0725009 0)
(0 -0.0725004 0)
(0 -0.0550454 0)
(0 -0.0722801 0)
(0 -0.0719884 0)
(0 -0.0724943 0)
(0 -0.0720672 0)
(0 -0.0721625 0)
(0 -0.072475 0)
(0 -0.071568 0)
(0 -0.072481 0)
(0 -0.0721968 0)
(0 -0.0419772 0)
(0 -0.0716609 0)
(0 -0.072452 0)
(0 -0.0724982 0)
(0 -0.0454214 0)
(0 -0.0724901 0)
(0 -0.0721033 0)
(0 -0.0721895 0)
(0 -0.00521914 0)
(0 -0.0725009 0)
(0 -0.0705822 0)
(0 -0.0702181 0)
(0 -0.0576791 0)
(0 -0.0719997 0)
(0 -0.0719549 0)
(0 -0.0723777 0)
(0 -0.0014287 0)
(0 -0.0688308 0)
(0 -0.072271 0)
(0 -0.0725033 0)
(0 -0.0722772 0)
(0 -0.0333834 0)
(0 -0.0687649 0)
(0 -0.0716379 0)
(0 -0.072465 0)
(0 -0.028664 0)
(0 -0.0723843 0)
(0 -0.0724958 0)
(0 -0.0722235 0)
(0 -0.0725021 0)
(0 -0.0717649 0)
(0 -0.0725033 0)
(0 -0.0724759 0)
(0 -0.0598283 0)
(0 -0.0724909 0)
(0 -0.00120916 0)
(0 -0.0707521 0)
(0 -0.0715015 0)
(0 -0.0716891 0)
(0 -0.0723895 0)
(0 -0.0720022 0)
(0 -0.0721718 0)
(0 -0.0721774 0)
(0 -0.0715442 0)
(0 -0.0705486 0)
(0 -0.0408707 0)
(0 -0.0724486 0)
(0 -0.0703405 0)
(0 -0.0717316 0)
(0 -0.0724896 0)
(0 -0.0710394 0)
(0 -0.0717486 0)
(0 -0.0522362 0)
(0 -0.0725033 0)
(0 -0.0723701 0)
(0 -0.064995 0)
(0 -0.0700253 0)
(0 -0.0699167 0)
(0 -0.0725033 0)
(0 -0.0724426 0)
(0 -0.0714984 0)
(0 -0.0725023 0)
(0 -0.0724855 0)
(0 -0.0724904 0)
(0 -0.0723743 0)
(0 -0.0724791 0)
(0 -0.0493347 0)
(0 -0.0724946 0)
(0 -0.00782225 0)
(0 -0.071489 0)
(0 -0.0724958 0)
(0 -0.0725024 0)
(0 -0.0724782 0)
(0 -0.0724937 0)
(0 -0.0397535 0)
(0 -0.0725033 0)
(0 -0.0488549 0)
(0 -0.0723371 0)
(0 -0.0710143 0)
(0 -0.0724954 0)
(0 -0.0725008 0)
(0 -0.0701295 0)
(0 -0.0130246 0)
(0 -0.0724762 0)
(0 -0.0723084 0)
(0 -0.0503092 0)
(0 -0.0725032 0)
(0 -0.0510686 0)
(0 -0.0703217 0)
(0 -0.0703696 0)
(0 -0.0664456 0)
(0 -0.0715551 0)
(0 -0.0700579 0)
(0 -0.0604414 0)
(0 -0.071879 0)
(0 -0.0724807 0)
(0 -0.0719107 0)
(0 -0.0722666 0)
(0 -0.0507387 0)
(0 -0.0725033 0)
(0 -0.0725022 0)
(0 -0.0210273 0)
(0 -0.0724797 0)
(0 -0.0709765 0)
(0 -0.0718142 0)
(0 -0.0724984 0)
(0 -0.0219693 0)
(0 -0.0689722 0)
(0 -0.0716324 0)
(0 -0.0725033 0)
(0 -0.0491453 0)
(0 -0.0142196 0)
(0 -0.0719476 0)
(0 -0.0724958 0)
(0 -0.0212834 0)
(0 -0.0719216 0)
(0 -0.0719454 0)
(0 -0.0724893 0)
(0 -0.0720982 0)
(0 -0.0719425 0)
(0 -0.0724687 0)
(0 -0.0498381 0)
(0 -0.0724767 0)
(0 -0.0347869 0)
(0 -0.0725033 0)
(0 -0.0715213 0)
(0 -0.0544351 0)
(0 -0.0705893 0)
(0 -0.072385 0)
(0 -0.0171045 0)
(0 -0.0649578 0)
(0 -0.072437 0)
(0 -0.072501 0)
(0 -0.0656421 0)
(0 -0.0725033 0)
(0 -0.0191536 0)
(0 -0.0368158 0)
(0 -0.0722693 0)
(0 -0.0445685 0)
(0 -0.0606638 0)
(0 -0.0724999 0)
(0 -0.00669543 0)
(0 -0.0719286 0)
(0 -0.0724473 0)
(0 -0.0725028 0)
(0 -0.072488 0)
(0 -0.0592691 0)
(0 -0.0705775 0)
(0 -0.0716596 0)
(0 -0.0314264 0)
(0 -0.0626895 0)
(0 -0.0419556 0)
(0 -0.0724925 0)
(0 -0.0217627 0)
(0 -0.0724794 0)
(0 -0.0724157 0)
(0 -0.00738012 0)
(0 -0.0544996 0)
(0 -0.0714675 0)
(0 -0.0724167 0)
(0 -0.0724791 0)
(0 -0.0723591 0)
(0 -0.0722737 0)
(0 -0.070273 0)
(0 -0.0725029 0)
(0 -0.0723691 0)
(0 -0.0711478 0)
(0 -0.0718942 0)
(0 -0.0723494 0)
(0 -0.0723772 0)
(0 -0.072503 0)
(0 -0.0717339 0)
(0 -0.0725032 0)
(0 -0.0724952 0)
(0 -0.072503 0)
(0 -0.0699524 0)
(0 -0.0628094 0)
(0 -0.0719207 0)
(0 -0.0721162 0)
(0 -0.0584108 0)
(0 -0.0657967 0)
(0 -0.0724558 0)
(0 -0.0100549 0)
(0 -0.0669333 0)
(0 -0.0457729 0)
(0 -0.0417407 0)
(0 -0.0687598 0)
(0 -0.0638785 0)
(0 -0.0725033 0)
(0 -0.0144045 0)
(0 -0.0724949 0)
(0 -0.0313686 0)
(0 -0.0724186 0)
(0 -0.0678131 0)
(0 -0.0724203 0)
(0 -0.0723949 0)
(0 -0.063064 0)
(0 -0.0725001 0)
(0 -0.0705269 0)
(0 -0.0168614 0)
(0 -0.071876 0)
(0 -0.0573156 0)
(0 -0.0718557 0)
(0 -0.0627768 0)
(0 -0.0725017 0)
(0 -0.0704044 0)
(0 -0.0719837 0)
(0 -0.0724699 0)
(0 -0.0724997 0)
(0 -0.0715353 0)
(0 -0.0724808 0)
(0 -0.0724887 0)
(0 -0.0722416 0)
(0 -0.0644352 0)
(0 -0.0683306 0)
(0 -0.0724483 0)
(0 -0.0722715 0)
(0 -0.0725033 0)
(0 -0.0529037 0)
(0 -0.072503 0)
(0 -0.065594 0)
(0 -0.0724563 0)
(0 -0.0725004 0)
(0 -0.0718823 0)
(0 -0.0724947 0)
(0 -0.0708789 0)
(0 -0.0715924 0)
(0 -0.0708412 0)
(0 -0.0725007 0)
(0 -0.071593 0)
(0 -0.00748571 0)
(0 -0.0722217 0)
(0 -0.0724335 0)
(0 -0.0695397 0)
(0 -0.0533433 0)
(0 -0.0171797 0)
(0 -0.0725027 0)
(0 -0.0115181 0)
(0 -0.0714632 0)
(0 -0.0725025 0)
(0 -0.0712462 0)
(0 -0.0604496 0)
(0 -0.0722731 0)
(0 -0.0707201 0)
(0 -0.0724979 0)
(0 -0.0285294 0)
(0 -0.0597413 0)
(0 -0.0406099 0)
(0 -0.0713186 0)
(0 -0.0666017 0)
(0 -0.0646586 0)
(0 -0.0722405 0)
(0 -0.0725028 0)
(0 -0.0593284 0)
(0 -0.0446659 0)
(0 -0.0724971 0)
(0 -0.064772 0)
(0 -0.0725033 0)
(0 -0.0684578 0)
(0 -0.0725013 0)
(0 -0.0581582 0)
(0 -0.0706548 0)
(0 -0.0364039 0)
(0 -0.0725033 0)
(0 -0.0725021 0)
(0 -0.0717633 0)
(0 -0.0724175 0)
(0 -0.0715173 0)
(0 -0.0617281 0)
(0 -0.0418953 0)
(0 -0.0725015 0)
(0 -0.00857981 0)
(0 -0.0723333 0)
(0 -0.00870262 0)
(0 -0.0718544 0)
(0 -0.0254058 0)
(0 -0.0724986 0)
(0 -0.0415639 0)
(0 -0.0719794 0)
(0 -0.00695537 0)
(0 -0.0724878 0)
(0 -0.0724911 0)
(0 -0.0559581 0)
(0 -0.0721925 0)
(0 -0.0725004 0)
(0 -0.0722692 0)
(0 -0.0724966 0)
(0 -0.0724942 0)
(0 -0.0724662 0)
(0 -0.0700758 0)
(0 -0.0716982 0)
(0 -0.0723802 0)
(0 -0.0724923 0)
(0 -0.064152 0)
(0 -0.0717172 0)
(0 -0.0716967 0)
(0 -0.0632843 0)
(0 -0.0725032 0)
(0 -0.0725028 0)
(0 -0.0722828 0)
(0 -0.0724439 0)
(0 -0.0724757 0)
(0 -0.0718085 0)
(0 -0.0725023 0)
(0 -0.0579709 0)
(0 -0.0552096 0)
(0 -0.0723917 0)
(0 -0.0724999 0)
(0 -0.0724627 0)
(0 -0.0724435 0)
(0 -0.0724898 0)
(0 -0.0410951 0)
(0 -0.0725007 0)
(0 -0.0725032 0)
(0 -0.0725001 0)
(0 -0.0115276 0)
(0 -0.0725033 0)
(0 -0.0725028 0)
(0 -0.0724925 0)
(0 -0.0725019 0)
(0 -0.0725032 0)
(0 -0.0723466 0)
(0 -0.071522 0)
(0 -0.0724498 0)
(0 -0.0712078 0)
(0 -0.0627066 0)
(0 -0.0724899 0)
(0 -0.0723711 0)
(0 -0.0400074 0)
(0 -0.0725033 0)
(0 -0.0231636 0)
(0 -0.0716696 0)
(0 -0.0719563 0)
(0 -0.0714279 0)
(0 -0.0724891 0)
(0 -0.0721009 0)
(0 -0.0725033 0)
(0 -0.0719508 0)
(0 -0.071351 0)
(0 -0.072494 0)
(0 -0.0725026 0)
(0 -0.0724333 0)
(0 -0.0676679 0)
(0 -0.0712077 0)
(0 -0.0723043 0)
(0 -0.072345 0)
(0 -0.0352367 0)
(0 -0.0721068 0)
(0 -0.0723943 0)
(0 -0.0724363 0)
(0 -0.061823 0)
(0 -0.0724572 0)
(0 -0.0706257 0)
(0 -0.0722315 0)
(0 -0.0724985 0)
(0 -0.072482 0)
(0 -0.0697183 0)
(0 -0.0724399 0)
(0 -0.0725033 0)
(0 -0.0662284 0)
(0 -0.0690255 0)
(0 -0.0725008 0)
(0 -0.0724752 0)
(0 -0.0702628 0)
(0 -0.0701676 0)
(0 -0.0388197 0)
(0 -0.072368 0)
(0 -0.0701997 0)
(0 -0.0725025 0)
(0 -0.0723898 0)
(0 -0.0684007 0)
(0 -0.00726863 0)
(0 -0.072431 0)
(0 -0.0716305 0)
(0 -0.0724859 0)
(0 -0.0725033 0)
(0 -0.0572401 0)
(0 -0.0484993 0)
(0 -0.071327 0)
(0 -0.0179705 0)