/*--------------------------------*- C++ -*----------------------------------*\
| =========                 |                                                 |
| \\      /  F ield         | OpenFOAM: The Open Source CFD Toolbox           |
|  \\    /   O peration     | Version:  v2012                                 |
|   \\  /    A nd           | Website:  www.openfoam.com                      |
|    \\/     M anipulation  |                                                 |
\*---------------------------------------------------------------------------*/
FoamFile
{
    version     2.0;
    format      ascii;
    class       volVectorField;
    location    "400";
    object      ddt0(U);
}
// * * * * * * * * * * * * * * * * * * * * * * * * * * * * * * * * * * * * * //

dimensions      [0 1 -2 0 0 0 0];


internalField   nonuniform List<vector> 
13917
(
(-0.000522424 -0.000125743 -2.24272e-17)
(-0.000223673 -2.80367e-05 -6.39802e-19)
(-0.00334766 0.00503534 2.71375e-18)
(2.81385e-06 0.000350087 -1.00449e-18)
(-1.97318e-05 -0.000128901 1.83335e-18)
(-2.5475e-05 -0.00111422 -2.00347e-16)
(-0.00337827 0.00483365 4.81448e-18)
(-0.002362 0.00444987 -7.08868e-18)
(0.00364692 -0.00239105 -1.46445e-18)
(-0.000551313 -6.20637e-05 -2.53079e-17)
(-0.00016137 0.00400235 -3.65518e-17)
(0.000372774 0.00134863 1.40248e-17)
(1.09505e-05 0.000357042 -7.1793e-18)
(0.00521395 0.000380594 2.63054e-18)
(-0.000292977 -0.000254942 1.06417e-18)
(-0.000314907 -0.000188632 7.02448e-18)
(-0.000227365 -6.92949e-05 -1.90728e-19)
(-0.00101388 -4.10946e-05 3.75085e-17)
(0.000358552 0.00129383 -1.18076e-17)
(-5.32185e-05 -4.73678e-05 1.88931e-18)
(-4.75788e-06 -3.25674e-05 1.82545e-18)
(-0.00320999 0.00468869 -1.58575e-18)
(-5.97508e-05 -6.30515e-05 -5.74629e-19)
(-0.00303083 0.0047224 -7.60375e-18)
(-7.35375e-05 -8.63182e-05 3.97875e-18)
(-0.00516316 0.00411626 1.25017e-17)
(-7.55867e-05 -0.000653799 -2.83442e-19)
(-0.000224274 -0.000721316 3.1472e-17)
(-0.000660386 -0.00132485 1.33441e-17)
(-0.000253851 -0.00030813 -2.0305e-17)
(-0.000521635 -0.000125961 -6.74106e-18)
(-0.000428522 -9.11984e-05 -3.46939e-19)
(-0.000149568 -0.000556175 -4.11692e-17)
(-6.06421e-06 -0.000404828 8.8003e-18)
(-5.30092e-05 -0.000100863 -5.04164e-19)
(0.000985619 0.00649331 2.73797e-17)
(-5.74244e-05 -7.27161e-05 6.12206e-19)
(0.00532224 0.00122211 -1.54893e-17)
(4.9015e-05 0.000470373 3.82773e-18)
(-0.0112771 0.000140606 -3.00095e-18)
(-0.000110025 -3.56164e-06 -1.08631e-19)
(-1.95744e-06 -1.04225e-05 3.11028e-18)
(-9.12344e-05 1.85978e-05 -3.28572e-18)
(-0.000313825 -0.000876999 -1.49832e-17)
(-0.00020361 3.75628e-05 2.99209e-19)
(-3.81782e-05 -0.000439249 -1.10517e-17)
(-0.00101511 3.46834e-06 -2.92544e-17)
(-0.001629 0.000575259 1.17561e-17)
(-5.90305e-05 -0.00121528 -1.01419e-16)
(-7.48437e-05 -1.0124e-06 -3.85565e-19)
(-0.00043525 0.000257923 -2.14806e-18)
(-3.84535e-05 -0.00032643 -7.87046e-18)
(-5.52002e-05 -0.00125933 1.35953e-16)
(-8.6012e-06 -0.000411413 -1.86958e-17)
(-0.000230101 -7.53065e-05 2.53741e-19)
(-0.000470625 4.93336e-05 -1.13188e-17)
(-0.000335248 0.00390777 2.41132e-17)
(-0.000131974 -0.00021205 1.00696e-18)
(-0.00040063 1.19135e-05 1.71207e-17)
(-0.000198404 3.75913e-05 -1.21191e-18)
(-0.00230755 0.00109138 3.49734e-19)
(-0.000227726 -2.1069e-05 3.88682e-19)
(0.00398578 0.000161131 -8.44159e-18)
(-5.703e-05 -4.50273e-05 -1.4517e-18)
(-9.77412e-05 -0.00111442 1.45967e-16)
(0.00118559 -0.000681673 -8.13726e-18)
(2.63776e-06 -0.000125416 1.6789e-18)
(6.02738e-06 -0.000102035 2.86581e-18)
(-0.0037196 0.00160835 -1.49291e-17)
(-0.000512618 -0.0001509 5.7927e-19)
(-2.03706e-05 -0.00013753 -1.97591e-18)
(0.00398214 -0.00235613 1.09027e-17)
(0.00165123 -0.00115953 -5.36599e-18)
(-6.7789e-05 -7.94344e-05 -9.90697e-19)
(-3.28759e-05 -0.00122374 2.48488e-18)
(0.000579053 0.000851316 -3.41115e-18)
(0.0052182 -0.000346316 -1.92702e-17)
(-0.000271871 5.2199e-05 4.75386e-18)
(-0.00663046 0.00268384 3.62747e-19)
(-7.89366e-06 -7.3542e-05 -5.99262e-19)
(-2.07907e-05 -8.87891e-05 -3.01667e-18)
(4.06473e-06 -0.000137862 5.03215e-18)
(-5.30361e-05 -0.00118272 1.99587e-17)
(0.00527322 0.00134508 -6.37828e-18)
(0.000576442 0.000666663 -7.20081e-17)
(-0.000261197 5.25917e-05 -2.87435e-18)
(-3.21672e-05 -9.29043e-05 -1.06397e-18)
(-0.00387919 0.000804912 8.40272e-18)
(-0.000415485 0.000254936 1.45422e-17)
(-9.21981e-05 2.20286e-05 4.0927e-18)
(0.00441178 -0.000989717 -3.62697e-18)
(-0.000406866 -4.88516e-05 6.30132e-18)
(-0.000167403 2.99804e-05 -1.07579e-18)
(-0.000190172 -0.000260187 -1.83502e-18)
(0.00376238 0.00158573 -6.79793e-17)
(-3.90348e-05 -0.00113311 3.2039e-17)
(-0.00186875 0.00257992 2.42185e-17)
(-0.001406 0.00028554 -1.88032e-17)
(0.00194653 0.000959292 1.7236e-17)
(-0.000139844 -0.000952463 -9.42294e-18)
(-0.000108935 -8.04044e-06 9.99285e-20)
(-1.21259e-05 -0.000526616 2.19703e-17)
(-0.000280751 -0.000868366 -1.395e-17)
(-0.000282133 0.000109781 -4.68984e-18)
(-0.000122601 1.70666e-05 2.41409e-20)
(0.00435325 -0.00297798 1.32411e-18)
(-0.000766882 -0.00117453 1.8064e-18)
(-0.00169984 0.000477316 4.01318e-17)
(-0.000232753 -5.86483e-05 -5.78303e-20)
(-0.000528766 -0.000120279 9.75137e-18)
(-0.00409856 0.000277458 -2.50668e-18)
(-0.0111211 0.000217099 1.43647e-18)
(0.000791836 0.00148843 6.31653e-18)
(0.00401962 -0.00290279 4.81744e-18)
(-2.77059e-05 -0.000360195 8.75739e-18)
(6.01242e-05 -0.00126593 -3.78851e-17)
(-7.68224e-05 -4.13902e-05 1.45193e-18)
(-9.62723e-05 -0.00122164 -2.29092e-17)
(-0.00338285 0.00118224 6.48439e-18)
(-4.39461e-05 -0.000407957 -2.38533e-17)
(-2.20831e-06 -2.28813e-05 -2.93657e-19)
(-0.00362129 0.00143716 1.52247e-17)
(7.88192e-06 0.00126325 1.07079e-17)
(-0.000212183 -0.000707886 -4.07187e-17)
(-8.42907e-05 -1.12963e-06 1.83681e-19)
(-0.000184712 -0.000260996 2.62664e-19)
(-0.000204175 3.83745e-05 2.73735e-18)
(-8.58331e-05 -9.56304e-07 -1.5281e-19)
(-0.000100602 5.51711e-06 -2.04736e-18)
(-6.80044e-05 -0.00113181 -4.70718e-17)
(-0.00091638 0.00254447 1.14576e-17)
(-2.42692e-05 -0.000359943 -9.23685e-18)
(-0.000208562 3.8282e-05 -1.61359e-19)
(-3.13697e-06 -2.58974e-05 -1.44158e-18)
(0.00148679 -0.00345129 2.02061e-17)
(-0.00340064 0.00496721 1.10489e-17)
(-0.000526388 -0.000127438 8.82609e-18)
(-0.000145148 -0.000939035 -4.79282e-17)
(-5.33386e-08 -0.000119076 -5.93022e-18)
(-2.97399e-05 -0.000407851 1.7519e-17)
(0.00163116 0.00596065 -9.78664e-18)
(-0.000126674 3.62186e-05 -6.14382e-19)
(-7.08422e-05 -0.000331413 3.25719e-18)
(-0.000267592 -0.000940717 -1.6542e-17)
(1.88407e-06 -0.000108308 -2.0224e-18)
(0.00522426 -0.00194158 2.4128e-18)
(-0.000780574 -0.00130016 -3.35657e-18)
(-3.96717e-05 -0.000322975 1.64999e-17)
(-0.000112671 3.09271e-05 3.35248e-19)
(-0.000435201 -0.000107975 -4.13369e-18)
(-0.000921709 0.00114492 -2.87852e-17)
(1.15253e-05 -0.0012529 8.58563e-17)
(-0.000375496 0.00225024 1.54853e-17)
(-0.000563788 -0.000268649 -2.61565e-18)
(-0.000444098 -4.62474e-05 8.22106e-18)
(0.000705069 -6.42712e-06 5.36122e-17)
(-0.000499211 -0.000158431 -2.80971e-18)
(-0.00136799 0.00521745 -4.88185e-18)
(0.00529274 -0.000222846 8.1386e-18)
(0.00150246 -0.00382439 -1.04534e-17)
(-0.00013077 -0.00034431 -7.75668e-19)
(3.64318e-05 -0.000644496 -2.67857e-17)
(-7.80778e-06 -6.30316e-05 -9.15199e-19)
(-0.00168984 0.00253946 -1.83031e-17)
(0.000705708 0.00151572 -7.63752e-18)
(0.00184218 0.00106709 -1.81688e-17)
(-0.000280085 0.000100914 8.92404e-18)
(-0.0012343 0.000820719 -2.91276e-18)
(-0.000171546 4.14611e-05 1.9427e-18)
(3.50188e-06 -0.000544072 -2.67677e-17)
(-0.000571819 -0.000226613 2.2105e-19)
(-0.00364179 0.000478244 2.0948e-17)
(0.00100429 0.00127105 -2.11581e-17)
(-0.00025049 -8.77398e-05 -5.82991e-19)
(0.00414295 -2.55469e-05 1.07556e-17)
(-0.000610027 -0.000317193 -1.17081e-18)
(-0.000961433 0.00276742 -7.53026e-18)
(-6.71134e-05 -0.00123346 8.22026e-19)
(0.00532574 -0.00163978 7.47506e-18)
(-0.000161407 -8.33844e-05 -8.83076e-21)
(-0.000369027 -6.366e-05 9.04667e-18)
(-0.000521932 -0.000128771 3.12804e-18)
(-0.000124789 3.36623e-05 8.41142e-20)
(-3.42235e-05 -9.79184e-05 2.18097e-18)
(-0.000309471 -0.00035738 1.09227e-18)
(-0.00578983 0.00431745 -1.09467e-17)
(0.00014391 0.00052126 4.79822e-17)
(0.000659135 -2.01495e-05 -4.15679e-17)
(-0.000660848 -2.11991e-05 -3.51365e-18)
(0.00145585 0.00209301 9.83478e-18)
(-0.00231933 0.00639598 -9.39713e-18)
(0.000509683 0.000740035 -4.47513e-17)
(-0.000376913 0.000646419 -3.99862e-17)
(-5.32167e-05 -9.2432e-05 -2.05148e-19)
(-8.12305e-05 -0.000997079 -1.689e-17)
(-8.07684e-05 -0.000632015 2.65956e-17)
(-0.000113706 2.946e-07 1.50106e-19)
(-0.000172255 2.79474e-05 -1.5177e-18)
(-0.000818548 -0.000991737 -3.62335e-18)
(-0.00137223 0.00277985 -5.63115e-17)
(-0.000243594 0.000449103 -8.54783e-18)
(-7.46493e-05 -1.11482e-06 4.57926e-19)
(-0.00107335 0.000880342 -7.807e-18)
(-0.000851467 0.00114522 2.52178e-17)
(0.00191441 -0.000897294 -1.92283e-17)
(-0.00265409 -0.00442916 5.3665e-17)
(-5.02744e-05 -9.29105e-05 -5.39716e-18)
(-0.000135094 -0.000216855 4.83126e-19)
(-0.001381 0.000366103 3.1179e-17)
(-0.00531001 0.00513483 3.84177e-18)
(-7.53158e-05 -0.000331039 -3.64631e-18)
(-0.00276904 0.00483281 -7.45477e-18)
(0.00213904 -0.000468506 6.21671e-18)
(0.00136389 0.00216773 -5.26062e-18)
(-0.000121305 1.19372e-05 -3.53994e-19)
(-0.00029898 -0.00122063 3.44288e-17)
(-0.00120109 0.000462767 1.98117e-17)
(-0.00417753 6.17767e-06 1.06329e-16)
(-9.84854e-05 -9.60961e-05 -1.12904e-18)
(-0.0031814 0.000755981 -1.57629e-17)
(-0.000155664 -8.68323e-05 1.66933e-19)
(-0.00040963 -0.000493071 -1.48301e-17)
(-0.000106834 -4.31723e-06 -4.88556e-20)
(0.00599537 0.000673098 -1.90914e-18)
(0.00424395 -0.00321087 1.73366e-18)
(-0.000327218 -0.000188464 -5.57993e-20)
(-0.00149193 -0.000666526 -2.85946e-17)
(-0.000454526 -4.50764e-05 -4.41928e-18)
(-0.000118847 5.60101e-06 -9.69369e-19)
(0.00214987 0.00622832 -2.79133e-17)
(0.000944137 0.00118549 7.05614e-18)
(-0.000662603 -6.78434e-07 1.63694e-17)
(-0.0042506 0.00533735 -4.84655e-18)
(0.0020333 -0.000390149 -1.68946e-17)
(-0.000113135 5.17806e-06 6.64575e-19)
(-0.000437677 -9.38833e-05 -2.97473e-18)
(0.00411044 -0.00120052 5.29205e-18)
(0.00089413 0.000331135 3.89586e-17)
(-1.56563e-05 -7.30949e-05 1.47405e-18)
(-8.23067e-05 -3.10285e-05 -9.35781e-20)
(-0.0111971 -0.000124739 2.19475e-19)
(-0.00234904 0.00256243 -1.69737e-17)
(-5.03967e-06 -2.05349e-06 3.39741e-19)
(0.0035607 0.00461548 -4.56234e-18)
(-0.00138332 -0.000684415 7.8942e-18)
(4.60015e-05 -0.000645115 3.6158e-17)
(-0.000503732 -0.000117983 -3.14677e-18)
(-1.34766e-05 -6.87897e-05 -3.87784e-19)
(-0.000569597 -0.000399346 -8.82441e-19)
(0.00335934 -0.000320983 -1.41223e-17)
(-0.000101023 0.000148116 4.49133e-19)
(-0.000338157 7.88826e-05 4.49001e-17)
(-0.00020882 -0.00102685 -3.88257e-17)
(-0.000199834 3.97663e-05 -1.77547e-18)
(-0.000125001 -0.000210746 1.32012e-18)
(-0.00027977 0.0017721 8.30385e-18)
(-0.0108136 4.11229e-05 -7.55074e-18)
(-0.000352204 0.00215075 -3.08485e-17)
(-0.00032572 -0.000359707 -8.36555e-18)
(-0.000306846 -0.000247786 -3.70512e-18)
(-3.97419e-06 -3.52472e-06 -3.9538e-19)
(-0.000249608 0.000929294 -1.35602e-17)
(0.00456416 -0.00241523 -4.44487e-17)
(0.00588623 0.00286443 4.51974e-18)
(-0.00012357 -1.65357e-07 2.03565e-18)
(-0.00126665 -0.000921826 2.45227e-17)
(0.00566695 0.000165411 1.26949e-17)
(-0.00102024 0.00523201 4.8486e-18)
(-0.0068174 0.0024626 -2.22301e-18)
(0.000656584 0.00081469 1.0434e-17)
(-1.70976e-05 -8.56075e-05 -7.75428e-19)
(-9.13194e-05 -2.75609e-06 -1.05381e-19)
(-0.00106677 8.13224e-05 -2.85595e-17)
(0.00636594 3.11673e-05 -3.27151e-17)
(-0.00261356 0.000116796 -3.4453e-17)
(-0.000389964 1.79681e-05 2.08572e-18)
(-0.000315574 -0.00463419 -2.15917e-17)
(0.000206043 0.000947478 5.5656e-18)
(-0.000104881 4.41933e-06 -4.09207e-19)
(-3.81038e-05 -6.58229e-05 -2.16648e-17)
(-5.71077e-05 -3.13433e-05 -1.47623e-18)
(0.00386887 0.000102906 4.15495e-18)
(-0.000227992 0.000432995 -5.82717e-18)
(-1.01528e-05 -2.20153e-06 -3.42388e-19)
(-0.000370756 -0.00020303 -1.74035e-18)
(-0.000568186 -0.000277418 1.47671e-18)
(3.45041e-05 -0.000643523 1.54194e-18)
(0.00370591 0.00492044 1.69705e-18)
(-0.000451079 -0.000269016 1.68112e-18)
(-0.000153125 9.66679e-05 4.46103e-18)
(0.00061468 -0.00285956 1.05252e-16)
(-0.00414596 0.00526783 1.28063e-17)
(0.00418398 -0.00228306 -1.52907e-17)
(-9.45759e-05 -8.91548e-05 8.22191e-18)
(0.00048032 0.0038179 2.98612e-17)
(-7.54859e-07 -0.000173262 4.79345e-18)
(-0.000148691 0.000105104 -2.2437e-18)
(-7.46002e-05 -3.63087e-05 -1.27804e-18)
(-0.000829515 -0.00134659 4.28224e-18)
(-5.88392e-05 -8.08388e-06 -4.91534e-19)
(-0.000363831 -0.000519962 1.81257e-17)
(-0.000498293 -0.000118037 6.36755e-18)
(-0.000165689 4.0498e-05 3.40078e-18)
(-0.0010728 0.000968531 1.17165e-17)
(-0.000306331 -2.28806e-05 1.4751e-18)
(-8.06465e-05 -0.00124288 -1.61175e-17)
(-0.000590635 -0.000310288 6.17224e-19)
(-0.000423652 -7.13995e-05 -4.07112e-17)
(-0.000139373 3.15109e-05 3.06459e-18)
(-0.00012147 -0.000202906 -1.7862e-18)
(-0.00401886 0.000423145 -5.9552e-17)
(0.00157035 0.00101847 9.55357e-19)
(-7.93729e-05 -4.6616e-05 -9.14791e-19)
(-0.000100024 -3.75126e-06 -2.28464e-21)
(-0.000383151 -8.25211e-05 -4.39419e-17)
(-0.000161969 -4.18818e-05 -4.28244e-20)
(0.00177716 -0.00130418 2.91593e-17)
(-0.000137311 3.19916e-05 -5.33162e-18)
(0.00589961 0.000669866 4.68243e-19)
(-4.05445e-05 0.000250877 1.67877e-18)
(-0.00148237 7.42819e-05 -1.35886e-17)
(-0.000599728 0.000455788 -1.56793e-17)
(-4.20796e-05 -0.00125277 1.25584e-19)
(-0.000132443 -0.000339383 -2.77024e-18)
(0.000892054 -0.00358455 3.60821e-18)
(-0.000274496 -0.00114784 7.14942e-17)
(-0.000366278 -0.000191352 1.13184e-18)
(-0.0024364 0.00239362 -9.60478e-18)
(-0.0010879 -0.00109923 1.10674e-17)
(-0.00018617 -0.000194127 2.23966e-19)
(0.00221646 0.00204244 -1.39586e-18)
(-4.90808e-05 -0.000950409 -8.01564e-40)
(0.00586427 0.000355186 3.54199e-18)
(-6.05505e-05 -0.000383801 2.62806e-17)
(-0.00857807 0.000625234 -1.12014e-17)
(-0.000448257 -9.0917e-05 5.35496e-19)
(-0.00139251 0.00153942 6.79496e-17)
(-0.000253335 -0.00111903 -3.64961e-17)
(-0.000778234 -0.000751211 -5.80552e-18)
(-0.00079024 -0.000722826 -2.1494e-19)
(-0.00253651 0.00485789 -2.01411e-17)
(-1.21854e-05 -0.000106399 -3.86791e-18)
(-0.000588828 -0.000217349 8.73436e-18)
(-0.00388933 0.000364733 -2.4042e-17)
(-0.000116538 -0.000268092 9.15288e-18)
(-0.000278445 -0.000144437 2.62938e-18)
(0.00507705 0.000582994 -4.32235e-18)
(-0.000810442 -0.0010797 5.84369e-18)
(-0.000252119 -6.18876e-05 -2.38106e-20)
(-0.00238052 0.00599425 2.81831e-18)
(-0.000608794 -0.00129756 -9.27272e-18)
(-0.000101034 -2.00372e-05 5.08848e-20)
(-0.00323019 0.00087973 -4.46412e-18)
(0.000639272 0.00651449 -1.89766e-17)
(-6.07627e-05 -2.91781e-05 1.00875e-18)
(-0.000105512 -6.43075e-05 3.34531e-19)
(5.0993e-06 -0.000169894 -7.76039e-18)
(-0.000112422 2.87764e-05 -1.05084e-18)
(0.000211733 -0.00236609 -4.90214e-17)
(0.00505003 -0.00109982 1.66156e-17)
(9.88066e-05 -0.00117156 -2.9236e-17)
(-0.00383976 0.000500007 1.0168e-16)
(-7.17898e-05 -6.11498e-05 -1.38273e-18)
(-0.000301537 0.00011118 -4.16022e-18)
(0.000866076 0.000100461 -1.33845e-16)
(-0.000792513 0.000681125 -1.67523e-17)
(-0.00261816 0.00471585 3.26644e-18)
(0.0061846 1.14786e-05 -1.40096e-17)
(0.00386463 -0.00314065 -6.23299e-18)
(-0.000112136 1.23346e-05 9.48538e-20)
(0.0055589 0.00270143 -1.17644e-17)
(-0.000113362 -5.34251e-05 -4.97143e-21)
(-0.00331168 0.000476202 2.33132e-17)
(-0.000198286 3.82097e-05 4.80002e-19)
(-4.21039e-05 -0.00132837 -1.67106e-17)
(-0.00130854 -0.000757395 -1.91802e-17)
(-8.3421e-05 0.00043119 -2.5961e-18)
(-1.68136e-05 -0.000129019 3.28654e-18)
(-0.00130842 0.00038901 -1.61988e-18)
(-0.000341429 -4.12239e-05 3.07318e-17)
(-0.00138987 -0.000195931 2.28364e-18)
(-0.00038041 -0.00210653 7.91776e-18)
(-0.00162156 0.00137659 -6.05613e-17)
(-0.00428409 2.20961e-05 -2.01804e-16)
(-0.000597921 -0.000400045 -3.27848e-18)
(-0.000551758 -7.42463e-05 3.26274e-17)
(-7.99788e-05 -2.57246e-05 -9.01164e-20)
(0.000838028 0.000374705 -4.84898e-17)
(-0.00376747 0.00448871 -2.67994e-17)
(-0.000153927 -0.000191681 8.83358e-19)
(0.000885109 -0.00379715 6.21221e-17)
(-5.38064e-05 -6.00243e-05 -1.16497e-19)
(-0.0016985 -0.00267325 2.80329e-17)
(-4.85385e-05 0.000249618 4.44353e-18)
(-9.98699e-06 -9.09109e-05 -2.53925e-18)
(-0.000302468 -3.52646e-05 -3.89418e-19)
(-0.00742512 -3.87535e-06 8.64675e-19)
(-0.000298892 -3.73921e-05 1.55313e-18)
(-0.0105462 1.95567e-05 -1.43635e-18)
(0.000592965 -0.000192142 2.12894e-17)
(0.000601097 0.0033797 -5.42484e-18)
(-0.000217902 -0.00117268 8.20734e-17)
(-0.000186039 -0.000186357 7.47991e-18)
(-0.000264476 -0.00121272 -6.56288e-17)
(-0.00023161 -0.00118872 2.42556e-17)
(-7.03615e-05 -2.38604e-05 4.4359e-19)
(-0.000752102 -0.00111011 -7.59059e-18)
(-0.000117139 -0.000266418 9.56044e-19)
(-5.71098e-05 -7.51505e-05 -2.16549e-18)
(-0.000264669 -0.000258781 2.89725e-18)
(-8.07587e-06 -5.6871e-06 6.66605e-19)
(-6.44561e-05 -9.39554e-05 1.52371e-18)
(-0.000109688 -5.04348e-05 7.58149e-20)
(0.000347298 -0.00221704 2.21951e-17)
(-6.50017e-06 -5.66828e-05 -6.20039e-18)
(-0.00820512 0.000831355 1.27936e-17)
(-0.00661665 0.000858288 -1.29918e-18)
(0.000537109 2.43371e-06 -5.93257e-18)
(-0.000460649 0.000625664 7.40812e-21)
(-0.00906244 0.00113729 4.85369e-18)
(-0.0033938 -0.000208008 -1.3909e-17)
(-0.000747752 0.000696209 8.75511e-18)
(-7.18395e-05 -5.32907e-05 6.6972e-19)
(-0.00104627 -0.00165039 1.06843e-18)
(3.22222e-05 0.000457693 -8.68769e-18)
(-0.000454751 -0.000103901 3.77353e-18)
(-5.54882e-05 -8.12967e-05 -3.44379e-18)
(0.00503825 -0.00147069 -2.88919e-17)
(-0.00434636 0.00490223 3.41392e-18)
(-0.00650409 0.000743268 5.81301e-18)
(-0.000286722 -0.000213117 4.52791e-18)
(-0.00166586 -0.00077401 1.5188e-17)
(-4.87991e-05 -0.000378571 1.32084e-17)
(5.12847e-05 0.000492181 5.98184e-18)
(-0.00141118 -0.000125965 -9.08606e-18)
(-0.000277848 -6.87397e-05 4.70709e-19)
(0.00582348 0.00206357 4.27967e-18)
(-0.000231967 -5.04254e-05 4.8043e-20)
(-5.58913e-05 -9.45306e-06 -8.6441e-19)
(0.00153514 -0.00158607 -1.13149e-17)
(-0.00158233 0.00267814 -2.99078e-17)
(-0.00162824 0.00290635 2.49949e-17)
(-0.000755289 0.00016193 2.55154e-17)
(0.000584661 2.80937e-05 -1.69412e-17)
(0.00228304 0.00234796 1.16203e-17)
(-0.00338408 -0.000879893 -6.16345e-17)
(0.0063116 -3.03075e-05 2.31424e-18)
(-0.000102343 5.58933e-06 -3.99766e-19)
(-0.00121903 0.000198047 -2.86615e-18)
(-0.000280086 -6.72456e-05 -5.8851e-19)
(-0.000134415 -0.000230029 3.24177e-18)
(-0.00312881 -0.0035615 -2.07279e-17)
(-0.00106949 3.29551e-05 1.19669e-17)
(-8.70013e-05 6.46232e-06 5.42506e-19)
(-0.000733557 -0.000345604 1.66087e-17)
(-0.000757818 0.000564154 -1.00144e-17)
(0.0064737 2.9839e-05 1.02862e-17)
(-7.15205e-05 -2.06965e-05 -1.13218e-18)
(-0.00251792 0.00136019 3.58553e-17)
(0.000539427 0.000149748 5.68335e-17)
(-0.0016982 0.000124909 7.71256e-17)
(-0.00678517 0.00120617 3.29114e-18)
(-5.8003e-06 -4.9888e-05 4.91686e-18)
(-0.000152072 -0.000200359 4.54031e-18)
(-0.000128315 1.18506e-06 -2.04309e-20)
(-0.00050283 -0.000164447 2.88401e-18)
(-0.000108257 1.27946e-05 -2.85737e-19)
(-0.00670057 0.00400109 -1.05497e-17)
(0.000100292 -0.00115215 -4.7686e-17)
(-0.000441251 -0.000250275 7.2595e-20)
(0.000832612 0.000182596 3.45021e-17)
(-0.000465001 6.36981e-05 2.84882e-18)
(-0.00157146 0.0027076 6.44403e-18)
(-0.00317158 -0.000983315 -5.75431e-18)
(-0.000798605 -0.00128497 -2.1398e-18)
(0.0006799 0.00323215 -4.17719e-20)
(0.00146676 0.00671659 1.93125e-17)
(-0.00255703 0.00148983 -3.97321e-17)
(-0.00059517 -0.000297079 -1.63681e-17)
(-0.00182675 -0.0015531 -1.78011e-17)
(-0.000207772 0.00106661 -9.86965e-18)
(0.00177904 0.00309359 -1.1146e-17)
(-8.20815e-05 -0.00113513 -1.74676e-17)
(4.53925e-05 0.00114484 -2.76106e-17)
(-0.00185088 0.000824093 -1.19779e-17)
(-0.000116469 3.30057e-06 1.42929e-18)
(-1.00656e-05 -0.00333724 6.62106e-17)
(-0.000470264 0.000232664 2.54659e-17)
(-8.81786e-05 8.00523e-05 1.27805e-18)
(-0.000490259 -0.000169039 2.93907e-19)
(-0.000278338 6.50503e-05 3.95051e-18)
(0.00644835 2.90655e-05 1.48815e-17)
(0.00413574 -0.00287561 1.51102e-17)
(-0.000159016 -4.86208e-05 1.92059e-20)
(-0.000108187 3.96155e-06 -5.12458e-19)
(-0.00671842 0.00505613 6.95379e-18)
(-0.00348427 -0.000179413 1.24813e-17)
(-9.25719e-06 -4.25484e-06 1.67069e-18)
(-0.00716254 0.000893044 -1.20257e-17)
(-0.000167441 0.000229197 -2.26769e-18)
(-0.000294508 0.000449114 2.09976e-17)
(-0.000161487 -6.08791e-05 -1.33687e-19)
(0.000435009 -0.000849519 4.86495e-18)
(-0.000592187 0.000527994 -3.04154e-17)
(-0.000435395 -0.000104202 6.73424e-18)
(-0.00024768 2.52315e-05 2.28777e-18)
(-0.00862315 0.00134024 -5.85878e-18)
(9.28793e-05 0.000431089 6.50535e-17)
(0.00101718 0.000155601 6.36729e-17)
(-4.04036e-06 -4.92318e-06 -2.08921e-18)
(0.00261507 -0.000510952 2.72569e-17)
(-1.83236e-05 -0.00124923 -3.08649e-19)
(-0.000858541 0.000697171 2.24598e-17)
(-9.09622e-05 7.47018e-05 1.05072e-18)
(0.000621708 0.000632792 2.23599e-17)
(0.00156027 -0.00195319 4.51482e-17)
(-0.000726909 0.000774241 1.0739e-17)
(-0.000106891 -6.18156e-05 -1.16486e-19)
(-0.000219663 -0.000107523 6.90105e-19)
(0.00047067 0.000741411 -4.52286e-18)
(-0.00253395 -0.00288248 -4.61009e-18)
(-9.10109e-05 8.50437e-06 -7.65659e-19)
(-0.000101021 -6.18577e-05 2.63834e-19)
(-7.78215e-05 -4.04373e-06 2.94624e-20)
(-8.01551e-05 -5.37101e-06 -2.44292e-19)
(-0.00101827 -0.000713576 9.62964e-18)
(-0.00291513 -0.00311233 3.08266e-17)
(-0.000727665 0.000740206 -6.29585e-18)
(0.000484815 0.000381367 2.10603e-17)
(-9.20744e-05 -2.64947e-06 8.88768e-20)
(-0.000106091 -1.05988e-05 -2.99091e-19)
(-0.00172125 -0.000664473 -2.84063e-17)
(0.000503848 -0.00287925 -3.64624e-18)
(-0.000571629 -3.97595e-05 5.08127e-18)
(-0.000177514 4.05315e-05 -1.7395e-18)
(-6.23688e-05 -7.56213e-05 -1.27587e-18)
(1.6482e-07 -8.12094e-05 5.71674e-18)
(-0.000592018 0.000600013 6.10776e-17)
(0.000317073 0.000856984 9.8966e-17)
(-3.14891e-05 -8.15311e-05 -1.10546e-18)
(-1.55223e-05 -7.9188e-05 -8.37726e-19)
(0.0057337 0.00224897 -3.93405e-18)
(-0.000246988 0.00103688 -1.426e-17)
(-0.000585591 0.000479574 -1.01383e-17)
(-0.000146594 -0.000205722 -2.81797e-18)
(-0.000301622 -5.04687e-05 -1.84071e-19)
(-0.000406067 -0.000105448 -2.27627e-18)
(-0.00178833 0.000904691 -4.93586e-18)
(-0.00103755 -0.00103179 -1.65175e-17)
(0.000347766 0.000565464 -8.65077e-17)
(-0.00115657 -0.00175851 -1.79486e-19)
(-0.00212165 -4.59148e-05 -1.55448e-17)
(-0.00178597 -0.00400957 -3.60063e-17)
(-0.000415498 -0.000101196 1.42815e-17)
(-8.98871e-05 -8.09575e-05 3.80016e-18)
(0.00307079 -0.000497706 1.78905e-17)
(4.0311e-06 -8.37073e-05 -5.15834e-18)
(-0.000285943 -0.000144282 -2.59765e-18)
(-0.000177292 0.000362243 1.39437e-18)
(-0.000662744 -0.00303485 -1.87685e-17)
(-0.000781901 -0.000511153 7.80059e-20)
(-0.000111815 -2.43614e-06 -5.10097e-19)
(-0.00162968 0.00016545 -4.54572e-17)
(-0.000174196 -0.000393002 3.25888e-17)
(0.000684343 0.000517759 -2.76269e-17)
(-0.00204819 -0.000139982 6.11029e-17)
(-0.000316042 -0.000494251 -1.44939e-17)
(-0.000805697 0.000579066 5.17966e-19)
(-1.79457e-05 -0.000138343 -4.85827e-18)
(0.00363502 -0.00227199 2.29831e-18)
(-0.00147686 0.000113709 8.73608e-18)
(0.00112041 0.00359769 5.00371e-18)
(-0.000225871 -5.16795e-05 1.31452e-19)
(-0.000533937 2.78071e-05 1.4992e-17)
(0.000528009 0.000337757 -1.25913e-17)
(0.00604444 -9.17168e-05 1.9912e-17)
(-0.000853222 4.74532e-05 -5.09266e-17)
(-0.00147361 0.000258546 2.01621e-17)
(-0.000770372 0.000212775 -3.81976e-17)
(-0.000301555 -0.000197747 -1.45611e-18)
(-0.000361602 -2.05998e-05 2.06812e-18)
(-0.000144228 -0.000211309 2.9061e-18)
(-0.000504514 -0.000607868 -5.38502e-19)
(-0.000258759 -0.000907504 3.6988e-18)
(1.08568e-05 -0.000284154 7.3492e-19)
(-0.0011656 0.000522828 3.62017e-18)
(-0.000165041 -0.000998073 -2.04402e-18)
(0.00109156 0.00359691 -9.4694e-19)
(0.00101377 0.000144836 -3.80691e-18)
(-0.000333377 -7.04141e-05 8.05166e-19)
(-0.00141176 0.002675 -1.06264e-19)
(-0.00338484 0.00110966 2.11518e-17)
(-0.000394248 -0.000204445 1.52013e-18)
(-8.51169e-05 -0.000320172 1.69653e-17)
(-8.91889e-05 -0.00141035 5.82397e-19)
(0.00610076 -0.00344098 -4.3767e-18)
(0.00387837 -0.00104511 2.14242e-17)
(0.000350141 7.81532e-05 -1.9101e-17)
(-0.000100205 5.67172e-06 1.60389e-18)
(-0.00272702 0.00104925 7.20083e-19)
(0.000507661 0.000823701 5.97964e-18)
(-0.000118855 -2.0991e-06 5.47541e-19)
(-0.000503127 -8.42536e-05 3.16673e-18)
(-0.00129554 0.00159253 -8.77595e-18)
(-0.000154136 -0.000536656 4.62438e-17)
(-0.000290744 -0.000340394 3.27551e-17)
(-0.00637398 0.00300398 3.22732e-18)
(-0.00189997 -0.00141456 9.52306e-18)
(-0.000200094 0.00093934 2.11965e-18)
(0.00372181 -0.00244957 -1.4466e-17)
(-0.000306511 4.55551e-05 -8.61535e-18)
(0.00635587 3.59267e-05 -1.33496e-17)
(-1.25037e-05 -6.67904e-05 1.71864e-18)
(-3.28511e-05 -8.4153e-05 1.37692e-18)
(0.000336045 0.003845 -1.84315e-17)
(0.00591207 -0.00342609 6.68715e-18)
(-0.000132515 -0.00118045 -1.30953e-17)
(-0.000304317 5.20457e-05 -2.13423e-18)
(-0.000248606 -8.01229e-05 -7.97803e-19)
(-1.76705e-05 -8.10851e-05 7.88369e-18)
(0.000195985 0.000964787 -1.67272e-18)
(-5.70606e-05 -0.00124658 -4.30179e-18)
(0.00166923 0.00104635 -9.59471e-19)
(-0.000370043 -2.23145e-05 2.5831e-19)
(0.000561522 0.00306817 5.50999e-18)
(-0.00127206 0.000454229 4.66253e-19)
(-0.000164112 -6.18414e-05 1.39415e-19)
(-0.00192834 -0.000550238 1.92626e-17)
(0.00156518 0.000909145 9.591e-18)
(0.00604619 -0.000487664 1.65699e-18)
(-0.000114289 -0.000110006 3.65052e-19)
(-0.00213576 -0.00124345 2.61545e-19)
(-0.000279622 5.5509e-05 -4.29342e-18)
(0.000568185 -0.000243011 -5.83492e-17)
(-0.000533979 -5.59259e-05 8.0444e-18)
(-0.000782517 -0.000476761 -6.5153e-19)
(-0.000539062 1.65822e-05 -1.5343e-17)
(-9.86702e-05 -1.31642e-05 -9.89112e-20)
(-0.000103055 3.68719e-05 1.2616e-19)
(-0.000209532 3.75686e-05 -7.05909e-19)
(-0.000858429 -0.000684892 -2.45324e-19)
(-5.75908e-05 -0.000443557 5.89132e-18)
(0.000456805 -0.00126576 5.59847e-17)
(-0.000327469 -0.00171055 2.91968e-17)
(-0.00122992 0.000736866 -9.48099e-19)
(-9.87881e-05 -2.21361e-05 7.53283e-20)
(-0.00151266 -0.00146769 1.03461e-19)
(-0.000159709 -0.00122342 5.0205e-17)
(-0.000646643 0.00712428 -1.03371e-17)
(-0.000104262 0.000137813 -5.87101e-20)
(-8.52482e-05 -0.000417057 -4.7294e-18)
(-9.77489e-05 -6.19461e-05 2.91265e-19)
(-6.85371e-05 0.000659252 -2.0858e-18)
(-0.000411316 1.51614e-05 -1.10944e-17)
(0.00125349 -0.00208927 -4.84534e-17)
(-1.10604e-05 -8.52015e-05 9.4906e-19)
(-0.00178323 -6.98716e-05 -8.28718e-18)
(-0.000126471 0.000630866 1.35019e-18)
(7.90102e-05 0.00398504 1.44455e-17)
(-0.000455499 -5.22181e-06 -1.06905e-17)
(0.000852668 -0.0011442 1.92751e-17)
(-0.000817744 -0.000427148 5.50897e-18)
(-0.000214056 -0.000110966 -1.37374e-18)
(0.00620229 -0.000132052 -1.42595e-17)
(-0.00130472 -8.63029e-05 3.8513e-17)
(-0.000176335 -0.000139598 -1.38939e-18)
(-0.000161609 0.000363345 1.40696e-17)
(-0.000561043 -0.000859955 1.0442e-17)
(0.000310325 8.09347e-05 8.65181e-20)
(-0.00255327 0.000256563 6.16456e-17)
(-1.4862e-05 -7.24889e-06 -3.61294e-19)
(-0.000251245 2.50821e-05 -3.56586e-18)
(-0.00138697 3.86322e-05 9.87725e-18)
(-7.50433e-05 0.000446413 6.79881e-18)
(-0.00131285 -0.000229595 -4.56547e-18)
(-0.00030283 0.00167728 1.71035e-17)
(-0.000103577 4.14135e-05 -5.35412e-19)
(-0.000751538 0.0012299 2.45756e-19)
(-0.00329076 0.00496731 3.85191e-18)
(-9.12855e-05 0.000151815 1.80117e-18)
(-3.43644e-05 0.000310275 3.61003e-18)
(-7.42691e-05 -2.47834e-06 1.68851e-19)
(0.00120147 0.000919049 8.80468e-19)
(-2.58198e-06 -3.50229e-05 -1.56549e-18)
(-0.000282172 -0.000210956 4.23967e-18)
(-0.00350517 0.000531338 7.2233e-17)
(-0.000259719 -0.000165942 -2.3876e-18)
(0.00623452 -0.0033425 -1.11452e-17)
(-0.000442619 -5.20195e-05 -7.74756e-18)
(-0.000165273 -0.000559014 3.70116e-17)
(-7.51212e-05 -3.21673e-06 -5.31252e-20)
(-0.000646786 -0.000324428 -6.41863e-19)
(-7.19713e-05 -3.38703e-05 1.3619e-18)
(-0.000555874 -0.000264849 -1.59044e-17)
(-9.6783e-05 -7.29374e-06 3.18699e-20)
(-0.000871268 -0.00024605 3.19586e-18)
(-0.000172758 0.000219101 -1.11503e-18)
(0.00148341 0.000572863 -3.79085e-17)
(-0.000317728 -0.00152175 6.00156e-18)
(0.000398855 -0.00277766 2.19151e-17)
(-0.000128739 1.03832e-06 1.38305e-19)
(-1.45492e-05 -0.000119319 4.88041e-18)
(-0.000434502 -0.000120298 -3.68176e-18)
(-0.000517524 -0.000128107 -1.59194e-18)
(0.00451567 0.000795301 -1.33747e-17)
(0.00239685 -0.00313439 9.41391e-18)
(-0.00097807 -7.52862e-05 1.5083e-17)
(-5.40462e-05 -8.0925e-05 -4.88318e-19)
(0.000209843 -0.00251785 -4.11483e-17)
(-0.000100621 -0.00120365 1.73336e-17)
(0.0061043 -8.39111e-05 6.30848e-18)
(0.000524667 -0.00112279 -4.63263e-17)
(-0.00105649 0.00019244 -1.88987e-17)
(-0.00700044 0.00192948 -3.59017e-18)
(-0.000529673 -0.000133446 -1.50722e-18)
(0.000195115 0.000929701 9.20403e-18)
(-0.000764734 -0.00132416 5.98243e-18)
(-0.000781303 -0.000960084 -4.10888e-18)
(-0.000939374 -7.42443e-05 -1.43982e-17)
(-0.000173588 -0.00120242 1.15365e-16)
(-0.000874218 -0.000123751 -3.73544e-18)
(-7.58049e-05 0.000350953 -2.75133e-18)
(-0.00138199 0.00165717 -8.39288e-18)
(-0.000375787 -0.00018446 -1.88624e-18)
(-9.93569e-05 8.46776e-05 2.02887e-18)
(-8.34411e-05 0.000642983 4.12804e-18)
(-0.000524331 -0.000122405 1.03914e-17)
(-0.000423541 -0.000106123 -2.98104e-19)
(-6.82243e-05 -4.01238e-05 2.73611e-18)
(-9.2279e-05 -2.32126e-06 1.93646e-20)
(-0.00126813 0.000603343 -4.63303e-18)
(-0.000242132 0.000199068 5.43132e-19)
(-0.00130794 -0.000294673 1.42722e-17)
(-5.22672e-05 -7.38315e-05 2.74215e-19)
(-4.57212e-05 -6.65772e-05 -3.85436e-18)
(-2.4184e-06 -2.80661e-05 1.70746e-18)
(-0.000295632 -5.76307e-05 7.06464e-19)
(-7.38446e-05 5.74908e-05 1.37596e-18)
(-0.000392875 -7.9754e-05 3.33063e-19)
(-7.36652e-05 -1.49376e-06 2.97131e-19)
(0.000200906 -0.000733616 1.0707e-17)
(0.000402507 0.00119723 -6.30752e-18)
(0.000107695 -0.00116097 -4.45331e-17)
(-0.000111407 4.02005e-06 7.41073e-19)
(-9.1913e-06 -3.86915e-05 -2.60544e-18)
(-0.000280983 -0.000674421 -3.52354e-18)
(-0.000604245 -0.00032043 3.21246e-17)