/*--------------------------------*- C++ -*----------------------------------*\
| =========                 |                                                 |
| \\      /  F ield         | OpenFOAM: The Open Source CFD Toolbox           |
|  \\    /   O peration     | Version:  v2012                                 |
|   \\  /    A nd           | Website:  www.openfoam.com                      |
|    \\/     M anipulation  |                                                 |
\*---------------------------------------------------------------------------*/
FoamFile
{
    version     2.0;
    format      ascii;
    class       volScalarField;
    location    "400";
    object      nut;
}
// * * * * * * * * * * * * * * * * * * * * * * * * * * * * * * * * * * * * * //

dimensions      [0 2 -1 0 0 0 0];


internalField   nonuniform List<scalar> 
13917
(
0.000421711
0.00215075
0.013269
0.00299588
0.00672419
3.56564e-05
0.0127277
0.0099508
0.0119491
0.000273472
0.000893324
0.00140011
0.003114
0.00120655
0.000591335
0.000803005
0.00221731
0.000613606
0.00161686
0.00672272
0.00672579
0.0138473
0.00672348
0.0127339
0.00673268
0.0129637
0.000162435
0.000110234
3.01636e-05
0.000325994
0.000452192
0.000751766
0.00022223
0.000577098
0.00582427
0.000484226
0.00672351
0.0120351
0.00255525
0.00308989
0.00673435
0.00672616
0.0067282
7.25212e-05
0.00338675
0.000488044
0.000705963
0.000710796
5.2933e-05
0.00672059
0.00139947
0.00196949
6.02991e-05
0.000517846
0.00199356
0.00116507
0.001111
0.00335323
0.001246
0.00334898
0.00670444
0.00248642
0.000326697
0.00672257
3.64363e-05
0.00170584
0.00672452
0.00638293
0.00061166
0.000373684
0.00672395
0.0116254
0.0100839
0.00673117
4.66304e-05
0.00186458
0.00540492
0.00220875
0.0132021
0.00672523
0.00672469
0.00672415
3.55206e-05
0.0132714
0.00963432
0.00239898
0.0067243
0.000722279
0.0014374
0.00672993
0.0117825
0.000295317
0.00490454
0.00119166
0.00118259
3.67563e-05
0.000843693
0.00072293
0.00148202
5.65475e-05
0.00672302
0.000255347
7.01722e-05
0.00211907
0.0067343
0.0114844
4.10333e-05
0.000798377
0.00211602
0.000394483
0.0111687
0.00386676
0.00153263
0.014028
0.00121724
5.02128e-05
0.00672581
3.84062e-05
0.00527625
0.000529863
0.00672595
0.000799167
0.00656613
0.000131118
0.00672396
0.00130414
0.00324805
0.00672458
0.00672291
3.54349e-05
0.0120662
0.00117841
0.00322205
0.00672593
0.00126718
0.0120216
0.000419099
5.21995e-05
0.00672462
0.00055535
0.000436332
0.00675483
0.00150427
5.8227e-05
0.00528995
0.0098046
3.91853e-05
0.00184906
0.00674758
0.000629859
0.000916516
5.03822e-05
0.00121746
0.000292196
0.000917224
0.00374897
0.000427541
0.0023536
0.00319821
0.00154986
0.000798096
0.000159423
0.00672527
0.000861903
0.00159192
0.00151117
0.0021245
0.000853304
0.00441793
0.000255764
0.000276054
0.00384835
0.00147778
0.00163346
0.00893833
0.000245388
0.0128001
4.07725e-05
0.0102874
0.00490336
0.000296088
0.00044788
0.00675569
0.00672419
0.000413909
0.0123709
0.000317464
0.0035451
0.000750771
0.00126075
0.000111979
0.0096298
0.000244324
0.00672367
5.44014e-05
0.000162079
0.00424494
0.00462815
4.66026e-05
0.000197177
0.00189725
0.00672065
0.000975919
0.00107133
0.00799815
0.000933389
0.00673396
0.00356813
0.00075095
0.0122463
0.00165331
0.0132876
0.00415392
0.00137895
0.00673308
2.66707e-05
0.000818197
0.00475082
0.00673083
0.00736334
0.00537211
0.000379404
0.00672734
0.0127249
0.011741
0.00075119
0.000196117
0.000928233
0.00673244
0.000554147
0.00158334
0.000799767
0.0115182
0.00253313
0.00672172
0.000700405
0.0131826
0.00762682
0.00672513
0.00672266
0.0042873
0.000809184
0.00672561
0.000425726
0.000550153
0.000157978
0.000500027
0.00672511
0.000209237
0.00344378
0.00508248
0.00025209
4.80021e-05
0.00339989
0.0035762
0.00116866
0.00740186
0.00103878
0.000347567
0.000651547
0.00672571
0.00418326
0.00914918
1.77119e-05
0.00673187
0.00893737
0.00340911
0.00424117
0.0132509
0.00203122
0.0067249
0.00672097
0.000729215
0.0103645
0.000620394
0.00134641
0.000961664
0.00195765
0.00672196
0.00671048
0.00672221
0.0100624
0.00183183
0.00672543
0.000574869
0.000272072
0.00016746
0.000302252
0.000359561
0.00404384
0.000137941
0.0117082
0.00814834
0.00673034
0.00524537
0.00672368
0.00413545
0.00672521
3.09962e-05
0.00672091
0.000381258
0.000507704
0.00465542
0.000943362
0.00150888
5.19433e-05
0.000270814
0.000302209
0.00572966
0.00388388
0.0102304
0.00561356
0.0067262
0.00672465
0.00620328
0.00466464
0.0113023
0.00615143
0.0135168
0.00416093
0.000181883
0.00121186
4.81356e-05
0.000820709
0.000164939
3.40123e-05
0.00063261
0.00082463
4.69302e-05
0.00202569
0.011796
5.5518e-05
0.0048364
0.000643751
0.00309723
0.000652219
0.0125441
4.03346e-05
7.8011e-05
8.03649e-05
0.0114509
0.00672485
0.00029247
0.0124225
0.00239519
0.00110446
0.00400245
4.29579e-05
0.00188033
0.000162238
2.97307e-05
0.00672152
0.00376355
0.00052389
0.00672216
0.00672725
0.00672378
0.00674778
0.000407849
0.00929121
3.11071e-05
0.0117414
0.00672835
0.000246884
0.0012332
0.000945019
0.0140007
0.012082
0.0129114
0.00672424
0.00022053
0.0067276
0.00656224
0.00345246
4.66064e-05
0.000477829
0.00242194
0.00672452
0.000780204
0.000282299
0.000661831
1.3614e-05
0.0120533
0.00238781
0.000194767
0.0002874
0.00672228
0.00811361
0.0138574
0.00296262
0.000206169
0.00672722
0.000696569
0.00460372
0.00672502
0.00138343
0.0127292
0.00142556
0.0090287
0.00183115
0.00103797
3.2792e-05
0.00212595
3.06305e-05
3.08886e-05
0.00672329
4.34763e-05
0.00245393
0.00673076
0.000352473
0.00672547
0.00673378
0.00672733
0.00068669
0.00672543
0.0043031
0.0107451
0.000988968
0.000266087
0.0110928
0.0048189
0.00106099
0.00672703
0.000474036
0.00253817
0.000663203
0.00672382
0.0100728
0.0119278
0.0103539
0.000730985
0.000532322
0.000729162
0.00252147
0.000660777
0.00143065
0.000235989
0.00215245
0.00672223
0.012799
0.0123766
0.0129683
0.000191423
0.000551274
0.0130408
0.0133601
0.00518083
0.00672226
0.00074747
0.00141368
0.00295395
0.000358641
0.000732898
0.00679757
0.00050375
0.00100229
0.0048955
0.0067234
0.000831867
0.000765032
0.000313765
0.00652642
0.00672557
0.00326167
0.00686258
0.000398601
0.00672399
0.0111828
3.39313e-05
0.000401133
0.00705249
0.00118053
0.000941112
0.0141713
3.20006e-05
0.00110576
0.000386389
0.000817618
0.000445772
0.00051987
0.00136681
0.00101767
3.85179e-05
0.00157745
0.00074448
0.00677103
0.000941021
0.00128794
0.00677274
0.000427259
0.00232948
0.0057624
0.012285
0.00541601
0.0067276
0.0108576
0.00278769
0.00672546
0.00409976
0.00284573
0.000251448
0.00525975
0.00710084
0.00110417
0.000712614
0.00221157
0.0121277
0.000244067
0.00176501
0.00672567
0.00440145
5.05175e-05
0.00641842
0.00677444
0.00912161
0.0116337
0.00119988
0.00672748
0.00212101
0.00217238
0.00038292
0.00678725
0.00672597
0.00672007
0.00672014
0.0069223
0.000535024
0.00119111
0.000320642
0.00673294
0.00672257
0.000542493
0.0151547
0.000771755
0.003965
0.00673036
0.00672805
0.00718444
0.00944067
0.00672408
0.00672816
0.000267643
0.00141391
0.00125602
0.0030094
0.00129828
0.000716203
0.000799327
4.89099e-05
0.000411966
0.00048343
0.000621612
0.000743373
0.000310132
0.0067295
0.00483631
0.00672749
0.000973977
0.00213813
0.0010617
0.000118238
0.00672434
0.000318795
0.000322746
0.000369218
0.00063905
0.000223342
0.00106607
0.00672418
0.0126873
0.00022318
0.0147878
0.0023571
0.0010132
0.000416936
0.0126826
0.000370178
0.00070548
0.000186587
0.00073641
0.00128612
0.00315902
0.000125663
6.80972e-05
0.00255885
0.000836553
4.96121e-05
0.0147661
0.00231798
0.0010658
0.000901335
0.0010483
0.000598644
0.00163012
2.91801e-05
0.00998287
0.0115514
0.000304515
0.00672353
0.00474744
0.00187308
0.00673307
0.000729447
0.000923894
0.0002312
0.000338734
0.0133014
0.000513894
0.00143095
0.0123688
0.00189849
0.00344709
0.00672529
0.00672397
0.00582366
0.0117065
3.39191e-05
0.001927
0.00163346
0.00672751
0.00187748
5.27605e-05
0.00147349
0.00122597
0.00115198
0.000799306
0.00499543
0.000172674
0.00151331
0.000307833
0.00673339
0.000513942
0.00210412
0.00144552
0.00029888
0.000125161
0.000911575
0.00672048
0.00676132
0.00310326
7.81843e-05
0.000371532
0.000669488
1.44789e-05
0.000888655
0.00672131
0.000481264
2.99211e-05
0.000782837
0.00506534
0.000475115
0.00672581
0.00199336
0.00123851
0.0139927
0.00672508
0.000123015
0.00199144
0.000872296
0.000270315
0.00993209
0.00013021
0.00225048
0.00921762
0.000607105
0.00319682
0.00234983
0.00168499
0.000282022
0.000669718
0.00672483
0.00228205
0.000141876
0.00247149
0.00061339
0.00124015
0.00676382
0.00105722
0.0123393
0.00572864
0.00342696
0.00672029
0.00499595
0.00672576
0.000797105
0.0046009
0.00109351
0.00945217
0.000930873
0.000200372
0.00672029
0.000200664
0.00672474
0.00044758
0.00672029
0.000152261
0.00311331
0.000666062
1.6513e-05
0.0150582
0.00683825
0.00672443
0.000322143
0.000424021
0.00648537
0.0148648
0.000680457
0.00673222
0.000683518
3.12931e-05
0.000366343
0.000450296
0.000765924
0.012661
0.000415511
0.00203458
0.000404192
5.28378e-05
0.000663259
3.03303e-05
0.000629304
0.00268806
0.000945574
0.000586059
0.00679537
0.00202021
0.00039862
0.000648938
0.00672529
0.00672541
0.00084054
0.00229248
0.000545165
0.00647788
0.00672656
0.00672588
0.00134837
0.00673639
0.00092091
0.00672051
0.00661909
0.00154994
3.69483e-05
0.00672299
0.00672541
0.000130391
0.000471096
0.00132893
0.00871159
0.000214498
0.00488705
0.00197057
0.000523768
0.00286731
0.00672586
0.00672
0.0013851
0.00250444
0.00672553
0.00239019
0.000818213
0.00165952
0.000166474
0.000210969
0.000987055
0.00673467
0.00672624
0.00166832
0.00530929
0.00172449
0.00700295
0.00156343
0.00672383
0.000942273
0.006722
0.00673256
0.000710245
0.000401982
0.00411864
0.000515731
0.0055491
0.00672981
0.0138207
8.87793e-05
0.00228854
0.00255947
0.00752722
0.00120634
0.00265944
0.000245268
0.00269282
0.00672177
0.00673083
0.0015431
0.000470885
0.000406329
0.000585471
0.0106622
0.00229788
0.000934822
0.00205363
0.00672721
0.00141124
0.00374472
0.00672189
0.00040198
0.000147204
0.00243534
0.0115261
0.00594212
0.00028346
0.00673034
0.0067458
0.00134789
0.00240363
0.00672545
0.000586075
0.00674314
0.000433041
0.00681382
0.00666856
0.000289455
0.00390234
0.00492649
0.000521906
0.00672585
0.00672901
0.00342139
0.00673798
0.00344497
2.36964e-05
0.00554469
0.00677847
0.0134246
0.00942979
0.00157621
0.000394072
0.000664959
0.0014669
0.0067562
0.000399656
0.00706744
0.000141543
0.00672401
0.0025518
0.0141145
0.00092878
0.0130223
0.00672574
0.00122108
0.00387065
0.00103916
0.00238433
0.00220039
3.95238e-05
0.00673686
0.000415344
0.00672005
0.00388789
0.00672379
0.0104482
0.00673477
0.00556826
0.00675736
0.00639739
0.00250716
0.000238977
8.80076e-05
0.0064939
0.000253278
0.00672394
0.0120801
0.00672323
0.00515416
0.00672388
0.00138523
0.00672373
0.00054175
0.00359263
0.0105465
0.000475416
0.000199505
0.00620792
0.00398546
0.00320083
0.00688413
0.00772978
0.0110984
0.0146045
0.00022951
0.000426672
0.00222229
0.0133782
0.00106326
0.0140466
0.00676877
0.00495727
0.00245828
0.00672384
0.00141867
0.000301357
0.00726022
0.00510159
0.0067264
0.00177676
5.52366e-05
0.00355167
0.000220242
0.0008496
0.00300649
2.26511e-05
0.000163467
0.000865306
0.00294614
0.00366904
0.00306978
3.87828e-05
0.00681245
0.000279062
0.000338813
0.00750333
0.0122365
0.00162746
0.00484794
0.00276415
0.00224062
0.00672956
0.00136066
0.00672055
0.000764295
0.000372372
0.00740845
0.000700574
0.00566812
0.000533597
0.0136749
0.00041304
0.00195441
0.00413886
0.00467343
0.00190488
0.000190952
0.00653106
0.00672361
0.0067342
0.0136149
0.000182829
0.000755131
0.00063529
0.000647986
0.00673392
0.000503769
0.00193422
0.00672353
0.00191094
0.0128361
0.00447894
0.00678478
0.00673014
0.00351106
0.00170175
0.0016266
0.000989356
0.00589413
0.00195049
0.000521859
0.0062837
0.000454615
8.77679e-05
0.0130902
0.00349355
0.000142955
0.000981986
0.00894793
0.0132222
0.00673162
0.00985633
0.000659344
3.87346e-05
0.00672371
0.0128547
0.00672499
0.00109966
0.000386709
0.000629563
0.011795
0.000237966
0.00112497
0.0100081
0.00672076
0.000817511
0.00665397
0.000620291
0.0132416
0.00280667
0.00672525
0.00174689
0.00296256
0.00782534
0.00673048
0.0067234
0.00108583
0.000451321
0.000914028
3.28466e-05
0.00149967
0.00247182
0.00196992
0.000840126
0.0019549
0.00784025
0.00145665
0.00460329
0.0135336
0.00184668
0.00624254
0.0110933
0.000327365
0.00191247
0.000497719
0.00075082
0.00376198
0.00145302
0.00267227
0.000380897
0.00672627
0.000806564
5.42886e-05
0.00672682
0.000507804
0.00576678
0.000149875
0.00672051
0.00051413
0.000728915
0.00221338
0.00372586
0.00648585
2.63919e-05
0.000253221
0.00885457
0.00589628
0.00256773
0.000856176
0.00389584
0.000415638
0.000255376
0.00434008
0.000544397
0.00635579
0.00747671
0.00206716
0.00158413
0.00519826
0.000829909
0.00673444
0.00111185
0.00257037
0.0067234
0.00672576
0.00866854
0.0120511
0.000745586
0.00120962
0.00672251
0.00377454
0.0123167
0.00159469
0.00673465
0.000217731
0.00630485
0.00117078
0.00672464
0.00673328
0.00241108
0.00147935
0.00965015
0.00255246
0.00202317
0.0067334
0.000636147
0.00672117
3.28061e-05
0.000515707
0.00672567
0.00963026
0.000185704
0.000432137
0.0136069
3.20224e-05
0.00678013
0.00199681
0.00317606
3.38927e-05
0.000566291
0.00953217
0.00553727
0.000859551
0.0142945
4.28603e-05
0.000850859
0.00136254
0.000141954
3.55428e-05
0.0110484
0.000120239
0.000375111
0.0139314
0.00144376
0.000761034
0.00839528
0.000102098
0.00677125
0.0020277
0.00569583
0.000328676
0.00565371
0.000190031
0.000406366
0.000450165
0.00846172
0.00112437
0.00961784
0.00193646
0.000423602
0.000501238
0.000280431
0.000896712
0.00649875
0.00168465
0.0106989
0.00672585
0.00078941
0.00675393
0.00132743
0.00489612
0.00025005
0.00122097
4.01469e-05
0.000163496
9.73529e-05
0.0096563
5.07192e-05
0.00491598
0.00154778
0.011691
0.00674377
0.0067261
0.000893535
0.00343648
0.00672528
0.000574298
6.76804e-05
0.000276477
0.00358421
0.00293106
0.00548753
0.000524523
0.000281892
0.00672047
0.000695319
0.012756
0.000224431
0.000629243
0.00130018
0.000468362
0.00116387
0.00145021
0.00939606
0.00131159
0.00163338
2.05882e-05
0.000747578
0.00672601
0.00457737
0.0027976
0.00497485
0.00139431
0.00021796
0.00673413
0.000979293
0.00672201
0.000911342
0.00679352
0.00021904
0.00117648
0.000387395
0.00419324
0.000245753
0.00461922
0.00902212
0.00672806
0.000574989
0.00672392
0.000967682
0.00840427
0.00141349
0.00673576
0.000756598
0.00346081
0.000655281
0.0116958
0.00407209
0.00180891
0.000474642
0.000748335
0.0141744
0.00673458
0.000444858
0.00302194
0.00672488
0.000298186
0.00186425
0.00672244
0.000910664
0.0043764
0.00113483
0.000265036
0.0100886
0.000647538
0.0105036
0.00120534
0.00672242
0.000373117
0.00281481
0.00296692
0.000336609
0.0012217
0.000136663
0.00673676
0.000619928
0.000504224
0.000576182
0.006743
0.00672812
0.00118365
0.00172439
0.00672615
0.00023974
0.00676546
0.000728504
0.000760895
0.00106077
3.80058e-05
0.0135345
0.00243036
0.0011565
0.00338578
0.00215804
0.00141435
3.54413e-05
0.00336165
0.000795421
0.0056562
0.000985522
0.000461679
0.000631554
0.00677806
0.0067255
0.0067232
0.00317525
0.000444923
0.00679757
0.000845158
0.00172369
0.00178524
0.000283418
0.0104453
0.000336013
0.00172905
0.0140838
0.00237838
0.00419054
0.00228297
0.000120013
0.00673682
0.00408148
0.00481565
0.00328752
0.00294573
0.0124663
0.000344222
0.00229852
0.00672077
0.00543216
0.0146631
0.00250742
0.000146541
0.000930655
0.00672715
0.000573697
0.000710509
0.00672924
0.00672252
0.0131096
0.00558227
0.00260924
0.00183642
0.00318727
0.000729402
0.000213345
0.00466907
0.00137477
3.01165e-05
0.00503477
0.000405122
0.00144528
0.00279671
0.00159903
4.72599e-05
0.000363889
0.00672598
0.00119268
0.0113248
0.000968109
0.00013397
0.0129879
3.87877e-05
3.8866e-05
0.000587456
0.00216155
0.00672507
0.00672766
0.00329281
0.000848363
0.00217943
0.00273299
0.0013624
0.00672591
0.00412937
0.00578639
0.00118395
0.00173623
0.00942186
0.000160719
0.00174175
0.00986807
0.000406754
0.00079628
0.00672318
0.000497315
0.00285184
0.00260433
0.00120492
0.000890313
0.000668505
0.000106584
0.0117477
0.000252524
0.00473622
0.0109021
0.00672876
0.00298959
0.000172871
0.00672584
0.00502641
0.000740491
0.00933634
0.0061389
0.0100706
0.00261921
0.00678056
0.00125907
3.34074e-05
0.000652322
0.00246982
0.00598608
0.00159046
0.000671763
0.0125384
0.00672507
0.00013478
0.00672072
0.00341626
0.000586311
0.00570056
0.0119375
0.000767882
7.61337e-05
0.00672605
0.00418047
0.00039402
3.3841e-05
0.00310617
9.16582e-05
0.00409163
0.00677979
2.47906e-05
0.00270185
0.000461032
0.000107917
0.00672504
0.0070075
0.00104652
0.000702248
0.00054365
6.62613e-05
0.00023692
0.000189728
0.00161049
0.0129773
0.000357741
0.00289831
0.000365306
0.00116028
0.0037019
0.000469997
0.00368966
0.00198654
0.0112149
0.00169883
0.00674647
5.01057e-05
0.00231108
0.00466558
0.00233432
0.0108509
0.000359797
0.000469882
0.00672582
0.00672671
0.00672461
0.00672321
0.000498005
0.000144992
0.000180768
0.000867935
0.00672205
0.00128071
0.00220103
0.00050726
0.00216394
0.00426775
0.00113569
0.000867767
0.00199459
3.8229e-05
0.00953842
0.000137631
0.0102747
0.0030059
0.00673762
8.24511e-05
0.00644902
3.63009e-05
0.00672386
0.00219469
0.00100115
0.0127873
0.00429912
0.000347586
0.00412344
0.000153564
0.00085782
0.0120893
0.000580297
0.00113288
0.000844419
0.00103442
0.000260515
0.00175763
0.00672377
0.000385156
0.00822108
0.00672382
0.00300644
0.00672545
0.00384557
0.00729152
0.0128202
0.00672199
0.00384718
0.00206511
0.00538725
0.000232016
0.000647189
0.00333249
0.00672316
0.00672266
0.00162001
0.000795663
0.000760324
0.000321548
0.00574703
0.0135759
0.00218924
0.0152541
5.28378e-05
0.000521485
0.000519817
0.000979366
0.0132576
0.00152387
0.00153604
0.00183363
0.0110541
0.0103222
0.006722
0.0067247
0.000303765
0.0125782
0.00700486
0.00646854
0.00331308
0.0125409
0.000428142
0.00142534
0.00121068
0.000794817
4.19505e-05
0.00226493
0.0137243
0.00432475
0.00103884
0.000113657
0.00347853
0.00673582
0.00672046
0.000524466
0.00897044
0.00120189
0.00187344
0.00140549
0.000139398
0.00341042
0.00144689
0.00908337
0.00277609
0.00497667
3.91022e-05
0.00672727
0.00672377
0.010077
0.0067283
0.00676764
0.00123808
4.77007e-05
0.000833522
0.00365841
0.000381978
0.00672668
0.0142417
0.000544639
0.00489131
0.00275469
4.59911e-05
0.000609966
0.0039198
0.00104518
0.0137129
0.00672393
0.00885784
0.00557611
0.00913579
9.56463e-05
0.000224304
0.00527325
0.00224181
0.000176689
0.00121429
0.00971926
0.000566306
0.00027682
0.000421136
0.00118931
0.000398261
0.00425649
0.00139844
0.0121581
0.00296231
0.00672768
0.00452956
0.00101639
0.0030745
0.000692102
0.00672763
0.000602736
0.00203902
4.34005e-05
0.000142301
0.00532277
0.00672082
7.03699e-05
0.00273566
0.000796498
0.00113479
0.000510731
0.00404659
0.00184689
0.00148287
0.00220793
0.00762414
0.0131674
0.00672606
0.00672045
0.00203814
0.00158555
0.0067292
0.00196183
0.000625895
0.000899294
0.000288787
0.00677346
0.0140106
0.00769297
0.00672604
0.00208572
0.000997155
0.00158032
4.08917e-05
0.0020875
0.00730396
0.000397509
0.0011056
0.000834199
0.00672766
0.000502282
0.00418132
0.00323223
0.000300224
0.00906259
0.0103535
0.00672533
0.00672146
0.00143553
0.00355999
0.00045085
0.00160134
0.0004326
0.00206751
0.0106958
0.00307024
0.0146956
0.00672781
0.0135713
0.0023878
0.00672846
0.00871943
3.27485e-05
6.03603e-05
0.00105324
0.000146506
0.000848085
0.00607115
0.00697449
0.00672817
0.00672864
6.60492e-05
0.00168658
0.00398475
0.00912167
0.00050033
0.010254
0.000388614
0.000377896
0.00679093
0.00137127
0.00142788
0.0136149
0.000660613
0.0130155
0.00698177
0.00369201
0.00347192
0.00339705
0.000222324
3.99164e-05
0.00194415
0.00672388
0.000657583
0.000807445
0.000884478
0.000644624
7.28385e-05
0.00672175
3.02677e-05
0.000366436
0.00256361
0.000601506
0.00119951
0.00140551
0.0149445
0.00672023
0.000427429
0.0115729
0.00144022
0.000905727
0.000617376
5.05674e-05
0.0013308
0.00401228
0.00136239
0.000786362
0.00193943
0.000385967
0.00259586
0.0132654
0.00672357
8.97952e-05
4.04949e-05
0.0125163
0.000603744
0.000354144
0.00186162
0.000144998
0.00672557
0.0123431
0.00149738
0.00410982
0.000973535
0.00672235
0.00672569
4.32784e-05
0.00672554
0.00672325
0.00313625
0.000837206
0.00210601
0.000511924
0.000945282
0.000246838
0.000387362
0.00672525
5.8515e-05
3.09712e-05
0.000328291
0.000363625
0.000438722
0.000617878
0.00967394
0.000354646
0.00672606
0.0063753
0.010924
0.00672603
0.00138579
0.00672532
3.55735e-05
0.000298356
0.00390085
3.7725e-05
0.0129882
0.00672335
0.00216251
0.012187
0.00811392
0.00171808
0.00673074
0.00379937
0.0115799
4.74423e-05
0.00672482
0.0139847
0.001755
9.18294e-05
0.0115189
0.00123175
0.00672591
0.000899227
0.000298674
0.00100923
0.0125303
0.0143243
0.00674759
0.00933159
3.49146e-05
0.00813347
0.00672857
0.000113801
0.00201944
0.00510575
0.0150405
0.00221546
0.000859128
0.00335046
0.000443793
0.000615546
0.00682479
0.0136614
0.00394943
0.00673336
0.00247095
0.000270893
0.00590543
0.000827042
0.0148356
0.00887181
0.000626253
0.00230753
0.00410874
0.014965
0.000650021
0.000747521
0.00674623
0.00128248
0.000311472
0.00243389
0.000306952
2.6936e-05
0.00672367
0.000749786
0.00684031
0.000154886
0.00734922
0.00298533
0.00672511
0.00672633
0.00159356
0.000563607
0.00231092
0.0151581
0.0134786
0.00677037
0.0067357
0.00672401
0.0067227
2.31541e-05
0.0067856
0.0121412
0.000465868
0.00180651
0.00509818
0.000309495
0.0145085
0.000998352
4.18289e-05
0.00826185
0.00197606
0.00366411
0.000255575
0.000208638
4.55772e-05
0.00374256
0.00789507
0.00165453
0.00673791
8.78898e-05
0.00678492
0.000605295
0.00215579
0.0104688
0.000319021
0.000148442
0.000157981
0.000647931
0.00672376
0.000270339
0.00125068
0.00672573
3.86452e-05
0.00672293
0.00191649
0.000845319
0.00236744
0.00787877
0.00114866
3.51882e-05
0.00128056
0.00672643
0.0099753
0.0132387
0.000751442
0.000251054
0.00142693
0.0003446
0.00125416
0.00194214
0.000595677
0.00142444
0.000688899
0.000618874
0.0105992
0.000133298
0.000298835
0.00165276
0.00277289
0.0152825
0.00672101
0.0121111
0.000759735
0.0126704
0.000787397
0.00277299
0.00503638
0.000734021
9.06799e-05
0.0040362
0.0149687
8.45898e-05
0.00522776
0.00278191
0.00991934
0.00103433
0.00221066
0.000591898
0.000672669
0.00115548
0.00657174
0.006726
0.00189766
0.00146147
0.000376812
0.00672365
0.00113335
0.00673952
0.0104133
0.00091205
0.000372889
0.000745365
0.000785936
0.000198665
0.00207935
0.000348908
0.00674429
8.03607e-05
0.0144451
0.00301841
0.0032174
0.00953881
0.00100299
4.15531e-05
0.00672821
0.00078505
0.0140959
0.0016199
0.00557911
0.00353301
0.000240196
0.0150818
0.00338446
0.00674132
0.00249952
8.93721e-05
0.0008286
0.0136132
0.000810536
0.000162053
0.000414688
0.000342514
0.00269385
0.0088373
0.0101993
0.00135744
0.000870459
0.00120879
0.000322266
0.00596691
0.000874906
0.00201984
0.000233142
0.00673369
3.42724e-05
0.00567995
0.00350579
0.00545966
0.00111767
0.00307396
0.0145395
0.00672739
0.00103194
0.00672523
0.00163468
0.00112914
0.000164488
0.0107271
0.000496398
0.00672144
0.000357505
0.00117395
0.00341424
0.000747421
0.00675917
0.0066173
0.0130003
0.000766653
7.18764e-05
0.00672181
0.000606904
0.00130861
0.00075924
0.00675738
0.00323967
0.00672291
0.00109763
0.00672385
0.00121257
0.00279392
0.00597752
0.0123196
0.00489905
0.000866365
0.00191128
0.00672597
0.012616
0.00507443
0.000418411
0.0143673
0.00167614
0.010782
0.0034828
0.0134965
0.00168052
0.0141048
0.00116397
0.000969703
0.00412832
0.000827354
0.00104381
0.00115692
0.000354619
0.0131932
0.000320552
0.000203815
0.000536989
0.00101322
0.000212775
0.000309923
0.000649318
0.00421834
0.00441107
0.0010592
0.000196909
0.00105426
0.000809976
0.0105449
0.00892636
5.99391e-05
0.00347123
0.00317786
4.17309e-05
0.00166728
0.00077427
0.00302943
0.00942403
0.00477672
0.00218454
0.00512345
0.00148901
0.00765026
0.0001258
0.00672803
0.00470077
0.00314057
0.00508193
0.000897337
0.00143448
0.000443916
0.000830944
0.00245037
0.00128675
6.90301e-05
0.000164329
0.000605827
0.010277
0.0121147
0.00491658
0.00672691
0.00471195
7.20814e-05
0.00295685
0.000151911
0.00978591
0.0115667
0.00672949
0.0063841
0.0125579
0.000346002
0.00673297
0.00674696
0.000489462
0.00439608
0.0129951
0.000933169
0.000487825
0.00672476
0.000632341
0.00105153
5.14172e-05
0.000274018
0.000193068
0.00177078
0.000596529
0.000720703
0.00135556
0.00318595
0.000916097
0.0127067
0.00072538
0.00314728
0.00672362
0.0135978
0.000310358
0.000394376
0.00672416
0.00672663
0.000246655
0.007729
0.000100929
0.00595705
0.00548097
0.00148497
0.013253
0.00138573
0.00677359
0.00591271
0.000233139
0.000674974
0.00672529
0.0117912
0.0084503
0.00448137
0.000251377
0.00717127
0.000321477
0.00316628
0.00637129
0.00233624
0.00190846
0.000402512
0.000804233
7.2206e-05
0.000362544
0.00674139
0.00239378
0.00972811
0.00563968
0.000351152
0.000480925
0.00459964
0.000605815
0.00672564
0.000941012
0.000681752
0.00672265
0.00972298
0.00672756
0.000295005
0.0137515
0.000462622
0.0023253
0.00672628
0.0141931
0.00672731
0.00114487
0.00190189
0.000139358
0.000151134
0.000774905
0.0135145
0.000194514
0.000538383
0.00147092
0.000938143
0.00585164
0.00672395
0.00427887
0.012819
0.000204318
0.00123663
0.000834627
0.000850318
0.00825725
0.014248
0.000730217
0.000528296
0.00672639
0.0122018
0.00432313
0.00378477
0.000761611
0.00106794
0.000423366
4.18819e-05
0.000170618
0.000421574
0.000816939
0.0152038
0.00140442
0.006723
0.00308019
0.000150613
0.00674097
0.0103923
0.00672141
0.00672385
0.000600328
0.000161984
0.00328439
0.00674087
0.000678564
0.00673686
3.4132e-05
0.00537502
3.4114e-05
0.00394516
0.0131833
0.00970489
0.000454538
0.000315474
0.0095576
3.5668e-05
0.00672477
0.000377863
0.000168926
0.000321737
3.89853e-05
0.0108137
0.0118309
0.0132932
5.12467e-05
0.00234016
0.000942274
0.00672103
0.00446898
0.00104451
0.00276686
0.00137036
0.00202796
0.00568582
0.000719335
0.0121951
0.00672547
0.00142064
0.00672043
0.00859579
0.00150373
0.0141397
0.0105576
0.000178855
0.0067245
0.00540403
0.00826553
3.6772e-05
0.00672391
6.65553e-05
0.00672512
0.000205556
4.53633e-05
0.000546537
0.000954808
0.00337638
0.00674706
0.0059039
0.00100737
0.0110198
0.000724785
0.00025623
0.00518273
0.00192603
0.00673093
0.00672305
0.00162898
0.00441566
0.0013507
0.0109097
0.00116181
0.00179564
0.0141386
0.000334558
0.00672655
0.00119434
0.00673308
3.87119e-05
0.00398607
0.000762717
0.0055966
0.00672607
0.00630746
8.93704e-05
0.00316573
3.19428e-05
0.00677406
0.000256184
0.00688136
3.84608e-05
0.00672406
0.00104036
0.00152634
0.000202089
0.0102482
0.00672724
0.00786145
0.000328323
0.000203249
0.00680611
0.00673196
0.0108212
0.000601972
0.00406686
0.00446504
0.00091099
0.000866226
0.000178983
0.0145929
0.00136528
3.23927e-05
0.00122157
0.00672897
0.00976685
0.00332151
0.013432
0.00483745
0.00189938
0.00672383
0.00934504
0.0127118
0.00672912
3.84027e-05
0.0010079
0.00672132
0.00467827
0.00674063
3.99558e-05
0.0141486
0.000342948
0.00241561
0.000574961
0.00672446
0.00329876
0.00148584
0.00672247
0.000600944
0.00331721
0.00136351
0.000281563
0.000564875
0.00672186
0.00911498
0.000846831
0.00672419
0.000262585
0.00108964
0.000945338
0.000668222
0.00660637
0.000492353
0.00353138
0.000361585
0.000380966
0.00134571
0.0136965
0.00135035
0.00211072
0.000937858
0.00459711
0.000156261
6.87759e-05
0.000163513
0.00672578
0.00425311
0.00672657
0.000251764
0.00126581
0.00116063
0.00891191
0.00706137
0.0106235
0.0067258
4.28427e-05
0.0138757
0.0151116
0.00522008
0.00316827
0.000894429
0.0132759
0.000849994
0.0012043
0.000358696
0.00668998
0.000267982
5.65704e-05
0.000572658
0.0122068
0.0001491
0.00674174
0.000169994
0.000793967
0.00244256
0.00303862
0.00143918
0.0130578
0.000354725
0.0090598
0.00116106
0.00123352
0.00287355
0.00040837
0.00911917
0.00231376
0.00106856
0.011415
0.00963644
0.000455074
0.00188859
0.000968184
0.0017463
7.56434e-05
0.00126207
0.000127228
0.0148358
0.00674961
0.00351723
0.000210895
0.000376137
0.00672097
0.00672356
0.00187333
3.82868e-05
0.00453964
0.000509186
7.73361e-05
0.000174222
0.0102235
0.0134438
0.0141728
0.0142772
0.000649561
0.00675439
8.40587e-05
0.00634634
0.00642428
0.0042282
3.50411e-05
5.80104e-05
3.18262e-05
0.00390232
0.00672563
2.77542e-05
0.0025676
0.00144142
3.17115e-05
0.00612108
0.00672683
4.17636e-05
0.0139842
0.00224348
9.07272e-05
0.000540344
0.00673186
0.000626157
0.0140953
3.8596e-05
0.00672558
0.00396573
0.00062399
0.00178892
0.00672898
0.00237233
0.00244376
0.00319327
0.00246488
0.00033359
0.00023769
0.000181507
3.45823e-05
0.00117688
0.0101754
0.000634462
0.00208291
0.00065416
0.00233035
9.97117e-05
0.00676459
0.000585715
0.000418363
0.00057334
5.82578e-05
0.0032989
0.000190197
0.00297104
0.0108323
0.000476043
0.00382006
0.00505695
0.00423183
0.000314719
0.00120732
4.00464e-05
3.8284e-05
3.83486e-05
0.000541724
0.000314996
0.00517287
0.0026323
0.00895562
0.000347344
0.000121501
0.00389703
0.0044233
0.000588144
0.0139811
0.00672165
0.00615817
0.000137275
6.70514e-05
0.00028295
0.00512838
0.0067229
0.00102453
0.00299764
0.00241212
0.00105491
9.12904e-05
0.000201787
0.00393314
0.00295378
0.00271779
0.00672503
0.00986812
0.00212058
0.00935116
6.77189e-05
0.00412247
3.60562e-05
0.000170461
0.011978
0.00245642
0.00198765
0.00641206
0.00672397
0.00287047
3.71434e-05
3.77953e-05
0.0135595
0.00672397
0.00315257
5.20274e-05
0.00672541
0.000287458
0.000879278
4.6528e-05
4.513e-05
0.000213634
0.000254478
0.00674283
0.000626489
0.000282347
5.43919e-05
6.80098e-05
0.000214358
0.00672356
8.427e-05
0.00581941
0.000231802
0.0135869
3.68406e-05
0.00314857
6.55397e-05
0.00332424
0.00076362
0.00186271
0.00321821
0.000383952
0.00248285
0.0131582
7.28654e-05
0.000217263
7.05667e-05
0.000192544
0.0113665
0.0140029
0.000443629
0.0124686
0.000113744
0.00530154
0.00011021
0.0147432
6.53411e-05
0.00672521
0.000504159
3.38594e-05
0.000358518
0.00265461
0.0029935
0.000193185
0.00672463
0.00551974
0.00158586
0.000312344
0.00672559
0.00691688
0.0122081
0.000277583
0.00711027
3.63091e-05
0.0136696
0.000400488
0.00673898
0.0011229
0.00676164
0.000161141
0.000764994
0.000515677
0.000788537
0.000245118
0.00676804
0.0130745
0.00104119
0.000526819
0.0136638
5.47984e-05
0.00564507
0.0145466
0.00425601
0.00285245
0.00672391
0.000405871
0.000137464
0.014003
0.000825114
0.000427408