/*--------------------------------*- C++ -*----------------------------------*\
| =========                 |                                                 |
| \\      /  F ield         | OpenFOAM: The Open Source CFD Toolbox           |
|  \\    /   O peration     | Version:  v2012                                 |
|   \\  /    A nd           | Website:  www.openfoam.com                      |
|    \\/     M anipulation  |                                                 |
\*---------------------------------------------------------------------------*/
FoamFile
{
    version     2.0;
    format      ascii;
    class       volScalarField;
    location    "250";
    object      k_0;
}
// * * * * * * * * * * * * * * * * * * * * * * * * * * * * * * * * * * * * * //

dimensions      [0 2 -2 0 0 0 0];


internalField   nonuniform List<scalar> 
13851
(
0.000202446
0.000154801
0.000154612
0.018449
0.000148424
0.000157124
0.000155837
0.000147626
0.0671671
0.000148398
0.000174437
0.00014839
0.000149155
0.0346013
0.000170735
0.000226956
0.0158748
0.000148824
0.000214439
0.000201556
0.000173023
0.000155927
0.0175444
0.000149734
0.00333609
0.00019563
0.0133922
0.0507682
0.0616541
0.00014697
0.0424065
0.000155823
0.000204171
0.0802599
0.000168668
0.059065
0.00014981
0.000870579
0.0535278
0.000149308
0.069653
0.063782
0.0057209
0.000205957
0.068995
0.000147932
0.000145696
0.000220561
0.000152728
0.000149097
0.0205866
0.000149327
0.000226441
0.000166971
0.0347289
0.000149308
0.000204031
0.0672367
0.00860615
0.030823
0.000148444
0.00481478
0.000148599
0.00015297
0.000179444
0.000179828
0.0239743
0.00016616
0.000149555
0.0273688
0.0360692
0.000177225
0.000148708
0.0272352
0.000168479
0.000152989
0.0203496
0.000146185
0.00266857
0.000147754
0.000149621
0.000207229
0.000168238
0.0361855
0.0328999
0.0406674
0.000156154
0.0298538
0.000148351
0.0426092
0.000149445
0.000156013
0.00689439
0.0364301
0.0488077
0.000193466
0.000148049
0.000225405
0.0230706
0.000188608
0.000225315
0.0001621
0.000162992
0.000149013
0.000147977
0.000174769
0.000147959
0.0385965
0.00015599
0.000148682
0.000159714
0.000147968
0.000190608
0.000176157
0.000208993
0.000165816
0.000146632
0.000147184
0.0160213
0.0311678
0.000185746
0.000147959
0.000149491
0.0549757
0.000213513
0.000171667
0.00014804
0.000170663
0.0713028
0.000177379
0.000155852
0.00016167
0.000362094
0.079519
0.000174929
0.0484964
0.00016576
0.0388302
0.000160118
0.000177792
0.000205324
0.000150846
0.000148383
0.000170768
0.0222971
0.000152597
0.000146116
0.0372508
0.0555778
0.000171258
0.000225519
0.000190032
0.000177036
0.000206108
0.000149732
0.000148698
0.000148554
0.0505468
0.000175325
0.000154232
0.000149584
0.0606245
0.0001743
0.000220285
0.0352771
0.0733596
0.075029
0.0246123
0.000159417
0.074658
0.000148553
0.00014661
0.000177417
0.000148825
0.0513411
0.0165045
0.000225261
0.000146556
0.000168643
0.000225415
0.000213106
0.000205845
0.000158874
0.000177166
0.00627059
0.05662
0.000204803
0.000157486
0.00014955
0.000147418
0.00671426
0.000175218
0.0266131
0.000157374
0.00015235
0.000226027
0.000204889
0.000149834
0.000149876
0.000167093
0.000205137
0.0550937
0.0655305
0.000170825
0.000442575
0.0522797
0.000152453
0.000179107
0.0681956
0.000156167
0.000227597
0.00014943
0.00020629
0.00014953
0.000169193
0.000153984
0.000148999
0.000220308
0.00014996
0.000491024
0.000146526
0.000200472
0.029282
0.0499219
0.000157199
0.000179479
0.000149742
0.000169333
0.000147972
0.000168949
0.0331701
0.000157176
0.000156134
0.000148744
0.0643615
0.000146969
0.00747654
0.0637794
0.000185713
0.000149645
0.000285527
0.0339954
0.0690814
0.000226551
0.000165625
0.000173857
0.000214705
0.000168979
0.000192223
0.000161074
0.0306196
0.000194972
0.000147045
0.000157865
0.000225915
0.0588821
0.032137
0.000147345
0.000172248
0.000148316
0.000221016
0.000210699
0.000158559
0.000175085
0.000195414
0.000148376
0.000162378
0.00021211
0.0444591
0.00014843
0.000148961
0.00015738
0.0782794
0.0114804
0.000176055
0.000148114
0.000214788
0.000208287
0.000203781
0.000174781
0.0761955
0.0236391
0.000158655
0.00016779
0.00224639
0.000147965
0.00014855
0.000203916
0.000172068
0.000147049
0.000149511
0.000147944
0.000147836
0.000166022
0.0001485
0.0691621
0.000174229
0.000148744
0.0582382
0.0521615
0.00014946
0.00020153
0.0214325
0.000151077
0.000149527
0.000175137
0.0323094
0.0671209
0.000180511
0.000148343
0.0745515
0.000148497
0.000181544
0.0257541
0.0446733
0.000153918
0.000407107
0.00027704
0.042529
0.000189515
0.000162648
0.0522052
0.0616439
0.0464087
0.000150101
0.0224682
0.00990352
0.000206549
0.000203446
0.00015249
0.000179245
0.000157927
0.0314637
0.000163632
0.000146971
0.000144971
0.000157714
0.0392044
0.000374583
0.000147898
0.0481319
0.000157956
0.000161946
0.000154517
0.0264542
0.000215145
0.000226542
0.000153658
0.000155508
0.0509825
0.000149586
0.000209546
0.000158585
0.000174998
0.000158476
0.00014834
0.000148724
0.000188466
0.000190377
0.00019603
0.000285694
0.0519158
0.000152704
0.0625857
0.000197251
0.000147005
0.0481302
0.000191594
0.0273535
0.000157244
0.000199168
0.00238837
9.19536e-05
0.000187475
0.0342901
0.000151182
0.0242336
0.00649534
0.000162456
0.0371361
0.000164433
0.0653206
0.00016733
0.00017778
0.000194046
0.000197736
0.00014871
0.000157878
0.000172932
0.000168849
0.000148113
0.000176635
0.0857239
0.000148699
0.000178777
0.0111973
0.000154158
0.000215339
0.00018043
0.0676293
0.000156803
0.000193557
0.00027394
0.000213028
0.000173976
0.0278777
0.0278085
0.000247262
0.000148407
0.000187944
0.000164327
0.000198653
0.000147993
0.00634353
0.0838992
0.00127656
0.000155462
0.000194468
0.00782652
0.0124566
0.000145726
0.017087
0.000200893
0.0223116
0.00016164
0.0419081
0.00014865
0.000148745
0.0293942
0.00952219
0.000148416
0.000154826
0.000179243
0.00014679
0.0840978
0.000179793
0.00019113
0.00015824
0.000151221
0.000149362
0.000220846
0.000148689
0.000149279
0.0464909
0.0856532
0.000155381
0.000341638
0.000148646
0.000148493
0.000154677
0.000196292
0.0001806
0.000148229
0.000151894
0.000184941
0.000153215
0.0661182
0.000148359
0.000161481
0.0701619
0.000160763
0.00014543
0.00014868
0.000158033
0.000150354
0.000247129
0.0508276
0.000165864
0.000708396
0.000154801
0.000148231
0.07286
0.0029422
0.000160162
0.000148884
0.0595667
0.000159659
0.000174249
0.000148996
0.000162038
0.000187967
0.000170185
0.0659169
0.00982412
8.07992e-05
0.000152922
0.000190023
0.000148411
0.0599633
0.000180188
0.000204886
0.00016413
0.000153355
0.00016073
0.000178102
0.000148503
0.0133935
0.0703397
0.065479
0.00632089
0.0507018
0.0281857
0.000211014
0.000156754
0.000149322
0.00031372
0.000148402
0.000148069
0.000157862
0.0536626
0.000154563
0.000150812
0.000172234
0.000172243
0.000148493
0.0600037
0.000147996
0.0746246
0.000244621
0.000147759
0.000153633
0.000202178
0.0491236
0.000147059
0.0075518
0.0038399
0.00014719
0.0482476
0.000212694
0.000199292
0.000152876
0.0468168
0.0298092
0.00014744
0.000202785
0.000149509
0.000148033
0.0217811
0.0655285
0.000168082
0.000179916
0.000148425
0.000188513
0.0736471
0.0503468
0.000148227
0.0205783
0.000148184
0.000149581
0.000174175
0.000161816
0.000145679
0.000152996
0.0495116
0.000196222
0.0465655
0.000153945
0.000148306
0.0790102
0.000149114
0.0001883
0.000160995
0.00016833
0.000165092
0.0684201
0.028276
0.000157268
0.0162385
0.00015336
0.000178124
0.0650971
0.0428975
0.000149464
0.000148435
0.00016332
0.0473306
0.00017553
0.000187989
0.00213949
0.000162059
0.000166523
0.0422294
0.0618471
0.000179328
0.0733033
0.000228135
0.0564592
0.000150649
0.00873495
0.0272824
0.000148371
0.00902784
0.0702691
0.00015947
0.000177665
0.000149159
0.000482929
0.000173987
0.0273766
0.000148712
0.000149019
0.00015549
0.000171658
0.000148426
0.0513594
0.000148979
0.00023004
0.000152904
0.000199003
0.000148997
0.000148515
0.00016696
0.0209397
0.000173312
0.0471289
0.000162108
0.00014687
0.000147718
0.000177601
0.000151856
0.000182911
0.000155347
0.000159869
0.00604771
0.000149127
0.0266434
0.000149667
0.000211224
0.0184705
0.0745033
0.000156808
0.0144812
0.000171734
0.00019514
0.0697747
0.000148634
0.0650252
0.000158059
0.000163218
0.00823306
0.000183374
0.00014717
0.000182571
0.000149739
0.0559571
0.0209613
0.000149903
0.000166968
0.082087
0.000149737
0.000149657
0.000196439
0.023194
0.0409072
0.00014954
0.000192771
0.000152779
0.000148542
0.00500045
0.000193718
0.000187468
0.000145473
0.000212024
0.000163537
0.000191287
0.0001507
0.000152088
0.000172963
0.000155296
0.000216208
0.000177156
0.00017674
0.000176568
0.000194659
0.00021074
0.0840986
0.00483744
0.000224235
0.0455602
0.000163121
0.0263661
0.000200615
0.000148568
0.000165817
0.000206599
0.000156918
0.000147732
0.000147679
0.000210644
0.0306829
0.000161723
0.0610034
0.000146904
0.0462071
0.0001765
0.0202264
0.000182145
0.000156969
0.000154653
0.0240064
0.00018755
0.000162779
0.0116146
0.000150864
0.000303819
0.000211144
0.000227332
0.00016322
0.000214821
0.000148643
0.000149607
0.000152038
0.000148556
0.0660563
0.000147831
0.00275573
0.0770568
0.000182511
0.0516324
0.0258616
0.000230192
0.000197057
0.000156803
0.000149139
0.000148876
0.000146201
0.000147692
0.000148838
0.000178822
0.000190066
0.000164333
0.0454857
0.000151965
0.0665713
0.000149953
0.0214771
0.000167082
0.000149881
0.00014883
0.074873
0.000157343
0.0618705
0.0707785
0.000176835
0.00018453
0.000146989
0.0784787
0.000153684
0.000154635
0.00618717
0.000149158
0.000150803
0.000148446
0.000179887
0.0326955
0.000160069
0.000163817
0.000202862
0.0475714
0.000157196
0.000156337
0.0619144
0.000146148
0.0605073
0.000149287
0.000153291
0.0021666
0.000196246
0.000207599
0.000179581
0.000173782
0.000149465
0.000149954
0.000179162
0.000150802
0.000149524
0.000162724
0.000200645
0.000147713
0.000192945
0.00020221
0.0506661
0.000179377
0.0449349
0.000160418
0.000149107
0.000186866
0.000146989
0.000158033
0.0828457
0.0496483
0.0639675
0.0621997
0.000150082
0.000149799
0.000168448
0.000151806
0.000147817
0.0153981
0.00022297
0.0388555
0.000211864
0.000196644
0.000148602
0.000147018
0.000238708
0.000190404
0.000153896
0.000149656
0.000208786
0.000192104
0.0619458
0.000149688
0.00014892
0.0280423
0.000150637
0.000164752
0.00014679
0.0551732
0.000147739
0.0204924
0.000148448
0.000183712
0.000170759
0.00016815
0.000163629
0.00014869
0.000154789
0.000147981
0.00123372
0.000150724
0.0370707
0.000151068
0.0724963
0.0752976
0.00016194
0.000147843
0.0124716
0.0556784
0.000157828
0.000196859
0.00014885
0.0267671
0.000148683
0.00020489
0.000148294
0.000147957
0.0568375
0.00016548
0.000148609
0.000167518
0.0669616
0.000416831
0.0816201
0.000147307
0.0491954
0.00014839
0.000147762
0.000149721
0.000144517
0.000149518
0.0779122
0.0850247
0.00015
0.000148951
0.00016862
0.000147986
0.0158301
0.000187394
0.0395271
0.053139
0.000154679
0.000216045
0.000148323
0.000172613
0.000173933
0.000148522
0.000149347
0.000283349
0.0226134
0.000184109
0.00783669
0.000185984
0.000148616
0.000168976
0.000197476
0.01774
0.000164967
0.0361836
0.000190856
0.000149449
0.0465595
0.0488025
0.0395449
0.00147116
0.0169135
0.000152855
0.000173612
0.000149281
0.0382926
0.000156446
0.000146989
0.0800278
0.000151761
0.000147853
0.000149475
0.000151493
0.0528195
0.000208015
0.000147271
0.00016948
0.0336519
0.000152114
0.00724283
0.000151861
0.000193182
0.0627791
0.000148519
0.000204902
0.00015915
0.000162875
0.000438761
0.000151736
0.000206265
0.000193421
0.0703333
0.000150091
0.0363279
0.000161921
0.0461804
0.0180621
0.0303546
0.000177279
0.000148757
0.000150145
0.000149736
0.000176022
0.000148749
0.0675121
0.000158253
0.000156664
0.000157042
0.000152756
0.000147237
0.000160485
0.000157475
0.000153606
0.000156815
0.0685424
0.000585437
0.000161821
0.000168675
0.0800437
0.000150908
0.0416791
0.000146188
0.000160684
0.000150734
0.000148625
0.000166107
0.000148198
0.000147233
0.000162649
0.000148748
0.000199393
0.000151475
0.00802746
0.0270195
0.000211303
0.000200004
0.000149433
0.0490074
0.000202115
0.000149467
0.000157324
0.000150594
0.0450669
0.000151828
0.00016252
0.0504924
0.00935048
0.000175481
0.000149624
0.0696796
0.0442575
0.0216657
0.000159033
0.000146835
0.000148138
0.000180549
0.000148698
0.0252356
0.000188771
0.000149252
0.000202591
0.000200453
0.000148348
0.0698082
0.0186474
0.000222871
0.000151319
0.0675963
0.000178721
0.000147976
0.0318529
0.000156082
0.000148166
0.000147955
0.000167101
0.000176197
0.0722982
0.0467485
0.00017624
0.0749596
0.000168465
0.000148438
0.000168323
0.000147695
0.000308903
0.000148366
0.000148155
0.000153283
0.000150697
0.0766444
0.0306586
0.000117627
0.027162
0.0678521
0.000157213
0.000148785
0.000151478
0.000207581
0.000148275
0.000149011
0.000167733
0.00310592
0.000201933
0.000146241
0.000164831
0.000163947
0.000197455
0.00691924
0.000147168
0.000145557
0.000153721
0.000166791
0.000162687
0.0725096
0.000152053
0.000149003
0.000148209
0.000147974
0.000153974
0.000226807
0.0551032
0.0732518
0.000156979
0.000148234
0.000276108
0.000150375
0.0472968
0.0375406
0.00015816
0.0235038
0.0646261
0.0394869
0.000186561
0.000164818
0.0550522
0.000162604
0.000160223
0.00016874
0.00019535
0.000150664
0.000428911
0.000148465
0.0792678
0.000284881
0.000146214
0.000153062
0.000166359
0.000204998
0.000165785
0.000148854
0.000161294
0.000151732
0.000157917
0.000224158
0.000149001
0.0595186
0.0328459
0.000148528
0.000163889
0.000175757
0.000148412
0.0489043
0.0189343
0.0505137
0.0433153
0.000148117
0.000154218
0.000156679
0.000149816
7.69734e-05
0.000166355
0.000149682
0.00018827
0.000154949
0.0786024
0.000171089
0.0279363
0.000151586
0.000152161
0.000163615
0.00018856
0.000181639
0.000148323
0.0176398
0.048588
0.011976
0.0319292
0.0812078
0.073136
0.043917
0.000148277
0.000148282
0.000149139
0.000169178
0.000179832
0.000180938
0.0134499
0.000149872
0.000145823
0.00014843
0.000256671
0.000146046
0.000158737
0.000152859
0.0530783
0.000151474
0.000147011
0.000148455
0.000148588
0.000149001
0.000160003
0.000128171
0.000160291
0.0827727
0.000148237
0.000148022
0.0723785
0.078482
0.0295829
0.0451773
0.000163601
0.0413779
0.000146781
0.000168438
0.000152146
0.000148467
0.000155255
0.0238176
0.000152264
0.000189425
0.000225871
0.000150058
0.000148547
0.000155286
0.000225961
0.000149799
0.0519505
0.000149057
0.000226617
0.000148783
0.000149978
0.000158059
0.000170469
0.0001492
0.0192849
0.0373285
0.000254521
0.0810211
0.000148636
0.0209558
0.0268654
0.000148252
0.000155611
0.000149785
0.000161854
0.000149533
0.000149642
0.000147573
0.000148534
0.000150522
0.000155866
0.000185213
0.000149819
0.000148617
0.000165472
0.000147006
0.0620272
0.000148797
0.000163369
0.000168728
0.0363045
0.0348294
0.000148887
0.000224158
0.000146737
0.000165475
0.000171757
0.0401214
0.000178501
0.000149801
0.000211552
0.000167599
0.000194509
0.0113489
0.000160789
0.0001888
0.000187517
0.000187499
0.000151374
0.00014802
0.052971
0.0106382
0.000154342
0.000147953
0.0079279
0.000146965
0.000171502
0.000147692
0.000174987
0.000334372
0.000145068
0.0152294
0.000157063
0.000149058
0.000224667
0.000146983
0.000161293
0.0449124
0.000168947
0.054512
0.000147538
0.000149748
0.000162174
0.000149461
0.000149608
0.000161248
0.000161254
0.000184703
0.000176121
0.000149159
0.000164786
0.00014788
0.000148278
0.00014938
0.000148272
0.00029821
0.000148487
0.00015193
0.00056251
0.000146925
0.000147874
0.079201
0.000149631
0.00967512
0.000152628
0.0814517
0.000217236
0.000164277
0.000245287
0.000174849
0.000263016
0.000150432
0.000193288
0.000157127
0.000147928
0.000147949
0.000151899
0.000163102
0.000148491
0.000169982
0.000147271
0.000152117
0.00636008
0.0203203
0.000209416
0.000155083
0.000163047
0.0344175
0.0284221
0.000149068
0.000158442
0.000277117
0.000149749
0.000166864
0.000248403
0.0733146
0.000159954
0.000175863
0.000151284
0.000201832
0.000149893
0.000160916
0.0440633
0.0001495
0.000147913
0.059043
0.000169124
6.086e-05
0.0816418
0.000210273
0.000150269
0.000147296
0.000150093
0.0274739
0.0216101
0.0794182
0.000172265
0.00014858
0.0368292
0.000148666
0.00018967
0.000155498
0.000153174
0.000172254
0.000148259
0.070162
0.0677399
0.000146806
0.000182542
0.000180829
0.00032057
0.000170026
0.000188141
8.96683e-05
0.000168546
0.000294782
0.000188636
0.000148677
0.00016991
0.000168097
0.0514214
0.000148095
0.0304435
0.000170766
0.000190771
0.000149804
0.067859
0.000157722
0.000152642
0.000147856
0.000165529
0.000164909
0.000165788
0.000148785
0.000151065
0.000170654
0.00613993
0.000173295
0.000148964
0.000150662
0.000170034
0.000199596
0.000149059
0.000177361
0.00134626
0.000166974
0.0765083
0.000175688
0.0223378
0.000205937
0.000148315
0.000312054
0.000149551
0.000154573
0.000166519
0.000166278
0.000183576
0.000179639
0.000165264
0.000166378
0.00016148
0.000153448
0.000145983
0.000169004
0.000156779
0.000157426
0.0330984
0.000156003
0.000159039
0.000147693
0.0349621
0.000176278
0.00014914
0.000155294
0.00015177
0.0319563
0.000188527
0.000166573
0.0677543
0.0115156
0.000248202
0.00018562
0.000165455
0.000147357
0.000183587
0.000149016
0.000155687
0.00109307
0.0478194
0.000206055
0.00028587
0.000148738
0.0271191
0.000147331
0.000197673
0.000154632
0.0307484
0.0780479
0.000158733
0.000147988
0.000204106
0.000162019
0.000148068
0.03287
0.000148499
0.000152742
0.000156836
0.000149493
0.000160874
0.000151919
0.0001486
0.000162484
0.000212319
0.000171436
0.000173342
0.00014806
0.0261573
0.046542
0.000147856
0.00307546
0.000154563
0.000157384
0.0831627
0.000147834
0.000151001
0.000156794
0.0406151
0.000148093
0.000149148
0.000168296
0.0174933
0.000147737
0.000159572
0.000161291
0.0332011
0.000169871
0.000167816
0.000205277
0.000148519
0.000171754
0.000146212
0.0282535
0.000160026
0.000148413
0.000160274
0.000181155
0.000148912
0.000149647
0.000197954
0.0534126
0.00015033
0.0310463
0.000149185
0.000146189
0.000179572
0.00014808
0.000148492
0.0714915
0.000149812
0.000170417
0.000225097
0.0471945
0.0266107
0.000148184
0.000152835
0.000156607
0.000148355
0.000148705
0.000148517
0.0151821
0.00014924
0.000172839
0.000206808
0.000147898
0.000147161
0.000160773
0.000206793
0.00200548
0.000165986
0.000174073
0.000153068
0.0693492
0.000174198
0.000165425
0.000173787
0.00017065
0.000182586
0.024558
0.000174148
0.0391802
0.0714768
0.0221262
0.000155267
0.000148678
0.000165774
0.000159419
0.000147961
0.000150366
0.000176044
0.000149592
0.000150071
0.000148202
0.000145517
0.000153448
0.000149186
0.0195254
0.000147963
0.00142783
0.000148409
0.000172042
0.000150784
0.000204768
0.000171949
0.000148777
0.0850774
0.00015278
0.000149462
0.000172184
0.000147776
0.000158788
0.000148837
0.0543309
0.000153598
0.000169927
0.000169997
0.0842424
0.000157673
0.000169716
0.0261658
0.000168607
0.000149405
0.000151846
0.000174012
0.000177756
0.0202828
0.000147142
0.0318772
0.000149353
0.00016881
0.0657431
0.000163963
0.021064
0.000154932
0.000163736
0.000154259
0.0680675
0.000160758
0.00014885
0.000167865
0.000190902
0.000152435
0.000148257
0.000148858
0.0526141
0.000149658
0.000157043
0.0783797
0.000155447
0.000148347
0.000170184
0.000154556
0.0804103
0.00014584
0.000148431
0.000147064
0.000154998
0.000150327
0.000149457
0.000186098
0.074173
0.000148213
0.000148652
0.0774904
0.00014999
0.0156196
0.000154124
0.0673426
0.000147925
0.000153601
0.000146743
0.0420945
0.081988
0.000159029
0.000168378
0.00015571
0.000148463
0.000148728
0.0550431
0.000148811
0.000198292
0.000147925
0.000177888
0.000149195
0.0818242
0.000146937
0.000178017
0.000147514
0.000206847
0.00025046
0.000147569
0.000165599
0.0694099
0.000187427
0.0508289
0.0208731
0.000193939
0.000152044
0.000164633
0.000185855
0.0506107
0.000149776
0.000173812
0.000156746
0.000148779
0.0373277
0.0379163
0.000185526
0.000200709
0.000204488
0.000161793
0.079302
0.000147902
0.00014748
0.000181669
0.0652445
0.000198114
0.000188994
0.0426714
0.000146816
0.067957
0.0479321
0.0618558
0.000149293
0.0259469
0.0445858
0.000249875
0.000383308
0.0572238
0.000198179
0.00016059
0.000191009
0.000154561
0.000148635
0.000292654
0.000191979
0.000145849
0.038
0.000149188
0.00015835
0.000172725
0.000155688
0.000169374
0.000160329
0.0113384
0.000178262
0.000155072
0.0667102
0.0619404
0.000196609
0.000149959
0.000154731
0.000179999
0.000167755
0.000146826
0.000171255
0.000166789
0.000187615
0.000148494
0.000195739
0.000153706
0.000167781
0.0555731
0.000209163
0.000151462
0.000181136
0.0288069
0.000149477
0.00015129
0.065861
0.000203112
0.000153961
0.000154847
0.000148472
0.000172876
0.000157161
0.062347
0.000183027
0.000150509
0.000149442
0.000166207
0.000158838
0.0240364
0.0237844
0.000147812
0.000148114
0.00015764
0.000149235
0.000154017
0.000151518
0.000151302
0.000154884
0.000148006
0.000154263
0.00014939
0.000179473
0.0456979
0.000149743
0.0836194
0.0145821
0.000146233
0.00017993
0.00018222
0.000176515
0.000151082
0.000192809
0.00015846
0.000168171
0.000161573
0.000152202
0.00014934
0.0202863
0.00016191
0.0524371
0.000151025
0.000148453
0.000148014
0.00017178
0.00014813
0.000175577
0.000187269
0.000259007
0.000147496
0.0100804
0.000337424
0.0505943
0.000146758
0.000186415
0.000214023
0.000366781
0.000202354
0.000150397
0.000150036
0.000186738
0.0417117
0.0449499
0.000170788
0.00298307
0.000149499
0.000148136
0.000163957
0.000149244
0.000149118
0.00018901
0.000149753
0.000169002
0.000147882
0.0659702
0.0853703
0.0774509
0.0555925
0.0468353
0.000149162
0.000148867
0.0714202
0.00014735
0.000147683
0.000146217
0.000179915
0.0788231
0.0214997
0.000156351
0.00014954
0.000152005
0.00016253
0.0337584
0.000148088
0.0256071
0.0667999
0.000149188
0.00014912
0.0467489
0.000196627
0.000153052
0.000148237
0.0812069
0.0419563
0.000149003
0.000221195
0.000149667
0.0540191
0.000186439
0.000153655
0.0262995
0.0154136
0.0791396
0.000147714
0.000149755
0.000149603
0.000149898
0.0794678
0.000148036
0.000190726
0.000222429
0.0185554
0.000151112
0.00017203
0.0115655
0.000171834
0.0717572
0.0450579
0.00014562
0.000156925
0.000157034
0.000226846
0.0766365
0.000145354
0.0335673
0.000160339
0.000174998
0.000151086
0.000147463
0.000201282
0.000166665
0.0174938
0.000149244
0.00017172
0.00015087
0.000203152
0.000154516
0.072937
0.0606381
0.000193614
0.000207463
0.000148403
0.000153118
0.000191162
0.000179657
0.0777926
0.0706163
0.000148905
0.0359635
0.00016979
0.0580249
0.000159823
0.000168569
0.000167412
0.000149382
0.0813005
0.000148327
0.000164437
0.0395189
0.0672267
0.000267203
0.0757139
0.000157653
0.000175172
0.000147239
0.0654278
0.000156724
0.0321251
0.000147171
0.0831229
0.000145122
0.000147906
0.000163814
0.000158641
0.000159786
0.000148681
0.0506038
0.000177557
0.000148075
0.000164767
0.0434357
0.000228442
0.000148577
0.0494165
0.000153887
0.000168358
0.000166787
0.000146002
0.000175006
0.000147887
0.000907638
0.000171582
0.000159892
0.000148261
0.000204306
0.000168312
0.00014717
0.0816202
0.0193947
0.000216201
0.000146604
0.0323851
0.000148845
0.000184997
0.000160429
0.000178231
0.00794383
0.0485997
0.000159598
0.0768639
0.000168627
0.000157696
0.000147173
0.085255
0.000176911
0.000183397
0.000165298
0.000149589
0.0246383
0.000178774
0.000205672
0.00024464
0.0695289
0.0509942
0.00031416
0.027912
0.000157937
0.000158784
0.000148524
0.000149309
0.000145532
0.000214191
0.000158276
0.00015981
0.0521549
0.000147903
0.000146959
0.000175733
0.000191841
0.000159698
0.000147129
0.05557
0.000154015
0.000180306
0.000149778
0.0206605
0.000157267
0.0789345
0.000166065
0.000164878
0.000169949
0.000148478
0.00994433
0.00637835
0.000176585
0.00014907
0.000147202
0.029483
0.0409804
0.0573207
0.000148261
0.000176732
0.0250589
0.000149266
0.000147893
0.000149376
0.077884
0.000170853
0.000162477
0.000160708
0.000157946
0.0812144
0.000176727
0.000216194
0.00015911
0.000164094
0.000145474
0.00017973
0.000171203
0.000148392
0.048621
0.046658
0.0642382
0.0502995
0.0399143
0.0662745
0.0718683
0.000151577
0.000148307
0.0767531
0.0326853
0.0272085
0.000149183
0.000169879
0.000148586
0.000148194
0.0116943
0.0679245
0.000182691
0.000147934
0.0138249
0.000189725
0.000172834
0.0445306
0.000289706
0.0050235
0.000147237
0.0717634
0.010582
0.000203597
0.000166604
0.000170685
0.000149324
0.000147279
0.000166699
0.000170516
0.000153915
0.000173322
0.000159696
0.000154497
0.000222718
0.0458346
0.000159202
0.000175427
0.0491429
0.00023744
0.0001487
0.000190059
0.000218058
0.0370763
0.000167572
0.000149548
0.000160993
0.000156842
0.000158411
0.00014601
0.000159104
0.000164685
0.000177792
0.000192576
0.000149495
0.000151818
0.0503164
0.0632311
0.0587373
0.00635219
0.00021182
0.000144924
0.000148508
0.000161271
0.000147086
0.0689817
0.000148464
0.00014981
0.000146536
0.0479979
0.00531931
0.000150251
0.000184934
0.000157933
0.000161482
0.000160606
0.000159924
0.000171064
0.000165016
0.0198701
0.000157674
0.0370449
0.000165764
0.0566288
0.000159579
0.000147371
0.000147087
0.000192325
0.000197122
0.000146776
0.000162734
0.000159894
0.000173198
0.0511962
0.0236504
0.075952
0.000149809
0.000752498
0.000158563
0.000163693
0.000148241
0.000176113
0.000152864
0.0375036
0.000254897
0.000165169
0.000148438
0.0606802
0.000155954
0.0428958
0.0331333
0.000232357
0.000153648
0.000189657
0.0783792
0.00397988
0.0622244
0.000174157
0.000148693
0.000165906
0.000148296
0.0592864
0.000154056
0.000161345
0.016962
0.0537374
0.000148481
0.000148475
0.0358998
0.000167796
0.0667043
0.000158933
0.000148231
0.000169036
0.000221679
0.000162437
0.0401182
0.000163465
0.00594052
0.00015516
0.000149602
0.000148401
0.000198664
0.000150789
0.000178967
0.000148646
0.000149019
0.000196437
0.000158117
0.000149398
0.000148106
0.000163213
0.00854596
0.000176049
0.000167093
0.000155428
0.000175063
0.000148944
0.000185197
0.000161452
0.000171006
0.000166678
0.000161635
0.000172863
0.000163002
0.000148168
0.000185877
0.049771
0.0428684
0.000149502
0.000296898
0.043472
0.00014835
0.000150726
0.000213847
0.0460398
0.000156354
0.0445978
0.000206187
0.000149323
0.000195495
0.000145484
0.000157154
0.000175965
0.00335498
0.000196672
0.000235494
0.0109041
0.0462388
0.0589413
0.000153246
0.0565057
0.000148376
0.00634342
0.052905
0.000148544
0.000148423
0.0435758
0.000149085
0.000148476
0.00768808
0.0802752
0.000205997
0.00015826
0.0477066
0.00014858
0.0626014
0.0496154
0.000149201
0.0281315
0.000452501
0.0376316
0.0486191
0.0518139
0.0435362
0.000147317
0.000151738
0.000177023
0.000183598
0.000148452
0.000252314
0.000148283
0.0538442
0.00484122
0.000164078
0.000432801
0.0554551
0.00352001
0.000115604
0.000165349
0.0172741
0.000211474
0.000156629
0.000145802
0.019948
0.000161122
0.000147248
0.0677366
0.000148291
0.0298209
0.000149199
0.0726567
0.00015716
0.000148166
0.00162025
0.000156123
0.000160562
0.039681
0.0695346
0.000254224
0.000160713
0.000179916
0.000152124
0.000174205
0.000196569
0.000173984
0.000149346
0.000277121
0.000179027
0.00016123
0.0427807
0.000169699
0.000162062
0.000190347
0.000180172
0.000177473
0.000148145
0.00019307
0.00014713
0.000198392
0.00221922
0.0423746
0.000147096
0.000166589
0.0240945
0.000152717
0.000175237
0.000165684
0.000168482
0.0776383
0.000180032
0.000152084
0.00592785
0.00014713
0.0580047
0.000148721
0.000151938
0.0002002
0.0575308
0.00016109
0.000186554
0.00020283
0.000165198
0.000149799
0.00017581
0.000169996
0.0514791
0.000155418
0.000574466
0.000198776
0.000165467
0.000160642
0.00017573
0.000164903
0.000167384
0.000180529
0.000162387
0.000154071
0.000149521
0.000298153
0.000148565
0.000159347
0.000145672
0.000203098
0.000160007
0.000181604
0.0510272
0.000151333
0.000202172
0.000144659
0.000149284
0.000149192
0.000149319
0.000159209
0.000147599
0.000196185
0.023227
0.000182594
0.000173485
0.000156401
0.000149154
0.000195364
0.000148873
0.074986
0.0778917
0.0257931
0.000220438
0.000162872
0.000160038
0.000149107
0.00015812
0.000169896
0.000167596
0.0455203
0.000183616
0.0517613
0.000223673
0.000149348
0.000146869
0.0431064
0.00014839
0.000161842
0.000166086
0.000204379
0.000153009
0.0753177
0.000149089
0.00015562
0.000148597
0.00015084
0.000175794
0.000206685
0.000149867
0.000166987
0.000159785
0.000174951
0.000184843
0.000202909
0.000192924
0.00019732
0.000222175
0.00015885
0.000151692
0.000185609
0.0541055
0.0726854
0.0674642
0.000165358
0.0506263
0.000208835
0.000151475
0.000147867
0.000191103
0.000148858
0.00016721
0.0208671
0.000148088
0.000147875
0.000217182
0.00792761
0.000180151
0.000262043
0.000149111
0.0341882
0.000167445
0.0580719
0.000157235
0.000148998
0.0652345
0.000164821
0.000148623
0.000170742
0.000149659
0.000184536
0.000159173
0.000164055
0.0680148
0.000159555
0.0821478
0.000147673
0.0493478
0.000149215
0.000156615
0.000150618
0.000169416
0.000148862
0.000165715
0.0597789
0.000266353
0.000173352
0.000160624
0.000167963
0.000148388
0.000148527
0.000152162
0.04759
0.00015663
0.0710607
0.0406741
0.000183387
0.000149385
0.000185383
0.000193425
0.000192879
0.000158468
0.0364635
0.000148455
0.000144935
0.000148275
9.35284e-05
0.000149317
0.000148613
0.065515
0.000148092
0.000189264
0.000170917
0.000148074
0.0771595
0.000161986
0.0710978
0.000148602
0.0470527
0.000151436
0.000166914
0.0301086
0.000181744
0.000147942
0.000160309
0.0788477
0.000166942
0.000186134
0.000162797
0.000156343
0.000182499
0.000158115
0.000149996
0.00587666
0.000159699
0.000161914
0.000227613
0.000148267
0.00014778
0.000149192
0.000165791
0.000149257
0.000155304
0.0831943
0.0134726
0.000170676
0.0089636
0.000190536
0.000170168
0.0547849
0.045392
0.000150245
0.0146318
0.00981463
0.0476532
0.000299626
0.000161213
0.0777608
0.0723577
0.0353705
0.000318279
0.0737906
0.000162711
0.000169006
0.000157861
0.000158445
0.000149469
0.000236161
0.000149894
0.0171545
0.000173297
0.000191544
0.000145334
0.000189223
0.000163461
0.00015225
0.00014995
0.000148677
0.000172898
0.000153625
0.000150112
0.000175701
0.0465051
0.000154477
0.000185543
0.00014683
0.000172948
0.000168746
0.000149405
0.000156162
0.000147597
0.0740325
0.0811678
0.000200535
0.000171653
0.000160989
0.000186684
0.000148809
0.000175536
0.000148496
0.000150155
0.000149515
0.0843713
0.000147092
0.000180634
0.000235265
0.000157252
0.000163412
0.000148086
0.0551469
0.000192031
0.0368058
0.0413574
0.00018952
0.000203794
0.0420589
0.000203586
0.00095898
0.0154029
0.000173296
0.000159168
0.000301977
0.0639272
0.000148288