/*--------------------------------*- C++ -*----------------------------------*\
| =========                 |                                                 |
| \\      /  F ield         | OpenFOAM: The Open Source CFD Toolbox           |
|  \\    /   O peration     | Version:  v2012                                 |
|   \\  /    A nd           | Website:  www.openfoam.com                      |
|    \\/     M anipulation  |                                                 |
\*---------------------------------------------------------------------------*/
FoamFile
{
    version     2.0;
    format      ascii;
    class       surfaceVectorField;
    location    "450";
    object      ddtCorrDdt0(Uf);
}
// * * * * * * * * * * * * * * * * * * * * * * * * * * * * * * * * * * * * * //

dimensions      [0 1 -2 0 0 0 0];


internalField   nonuniform List<vector> 
20580
(
(0.00417128 0.025767 -1.80098e-18)
(0.00347193 0.0273808 -8.92545e-18)
(0.0027296 0.0255561 -2.67938e-18)
(0.000643498 -0.000217263 9.08137e-19)
(0.000673957 -0.000279417 1.89284e-18)
(0.000733112 -0.000195365 2.90811e-18)
(0.000604693 -0.000127657 -1.83665e-18)
(0.000560445 -0.000214956 2.51158e-18)
(0.0135799 -0.0067553 5.87339e-18)
(0.012794 -0.00620633 1.57123e-17)
(0.0141535 -0.00663403 3.37294e-18)
(-0.000216329 4.54689e-05 2.85492e-20)
(-0.000198361 4.50556e-05 5.45138e-19)
(-0.000207549 2.664e-05 1.68615e-18)
(0.00120169 -0.00126179 3.24336e-19)
(0.0011307 -0.00144143 -6.57021e-19)
(0.00102789 -0.00130261 -4.22953e-18)
(-0.00128691 -6.51557e-05 -2.94646e-18)
(-0.0014001 -8.59245e-05 -4.84066e-18)
(-9.9356e-05 -4.9393e-05 7.17178e-20)
(-0.000116615 -4.97746e-05 1.46789e-19)
(-0.000163766 -3.04855e-05 1.02355e-19)
(0.0626953 -0.0129867 -2.92949e-19)
(0.0621922 -0.0127913 -3.32497e-18)
(0.0583065 -0.0120566 -6.4581e-18)
(-0.000291701 0.00113019 -1.54769e-18)
(-0.000245644 0.00113782 -6.68706e-19)
(-0.000325262 0.00112364 2.44147e-18)
(-0.00029947 -0.0142078 -5.82053e-18)
(-0.000414766 -0.0130941 -1.14214e-17)
(-0.00133373 -0.0137621 9.40868e-18)
(-0.000341113 0.000776099 5.41123e-19)
(-0.000359491 0.000749262 2.5749e-19)
(-0.00036044 0.000778035 1.64665e-18)
(-0.000600813 0.000614056 -1.4323e-18)
(-0.000658336 0.000586844 -1.30928e-18)
(-0.000645304 0.000563226 4.64986e-19)
(0.0407548 -0.006908 -5.7953e-19)
(0.0392314 -0.00725172 1.88512e-18)
(0.0404524 -0.00572868 6.49157e-19)
(0.00140337 0.00521151 2.76113e-18)
(0.0017146 0.00541854 8.81198e-18)
(0.00169055 0.00499586 -5.85578e-18)
(-0.0119747 0.0144921 1.03324e-19)
(-0.0123114 0.0144737 -1.2255e-18)
(-0.0122035 0.0148481 3.68457e-19)
(0.0331561 -0.00777969 -5.9649e-17)
(0.0346269 -0.0078399 -6.44202e-19)
(0.0339424 -0.00823104 -4.81226e-17)
(-0.000141605 -0.00051742 6.07509e-20)
(-0.000129486 -0.000501489 6.6407e-19)
(-0.000145367 -0.000545733 1.36292e-19)
(0.0536343 0.0145086 3.68723e-18)
(0.0542007 0.0111869 3.12058e-17)
(0.0555271 0.0136521 3.30065e-17)
(0.00552963 0.0261373 4.08925e-18)
(0.00489199 0.024557 7.93605e-18)
(0.00457636 0.00536204 -2.8345e-18)
(0.00457185 0.00485731 -5.36862e-18)
(0.00409433 0.00517604 3.91676e-18)
(-0.00271728 -0.00216405 -4.34965e-18)
(-0.00278258 -0.0020454 7.80425e-19)
(-0.00258307 -0.00205963 5.53033e-19)
(0.0152543 -0.0108256 1.11338e-17)
(0.0169714 -0.0117939 -1.67949e-17)
(0.0182455 -0.0116236 2.72277e-17)
(-6.13483e-06 2.17525e-05 1.87105e-19)
(-1.00273e-05 2.89073e-05 -1.5885e-18)
(-6.11107e-06 1.82167e-05 -2.15132e-19)
(-0.127288 -0.0616298 -9.64339e-18)
(-0.125431 -0.0595076 -1.20831e-17)
(-0.120367 -0.0609814 2.70629e-17)
(-0.00945425 0.00848025 -4.69416e-19)
(-0.00985056 0.00868385 -1.12912e-18)
(-0.00942894 0.00895625 1.36401e-18)
(-0.0119109 0.0139512 3.81517e-19)
(-0.0127511 0.0135005 -2.25727e-19)
(-0.0121646 0.0137186 -4.52617e-20)
(0.0616483 0.0640349 1.65185e-17)
(0.054588 0.0645305 -4.66045e-18)
(0.0647032 0.0704866 -2.8706e-18)
(0.0676408 -0.00728203 -2.35449e-19)
(0.0629046 -0.00683026 7.5064e-21)
(0.0623028 -0.00692831 -3.41431e-19)
(-0.00013892 -0.000481802 8.22418e-20)
(-0.000154972 -0.000507239 -2.35041e-19)
(-0.000147228 -0.000484606 4.20025e-19)
(0.0176305 -0.00374965 -2.58575e-17)
(0.0194203 -0.00411855 -8.37387e-18)
(0.0171572 -0.00367296 -1.49763e-17)
(-0.00127338 4.90879e-05 2.13867e-18)
(-0.00118932 -5.76154e-05 5.75503e-18)
(-0.000515124 0.0241039 1.88124e-18)
(-0.00137315 0.023538 -3.78326e-18)
(-0.000199813 0.0230836 -1.69469e-18)
(0.0520554 0.0598537 -1.57948e-18)
(0.0476972 0.0634867 -2.1086e-18)
(0.0412523 0.067745 1.06597e-18)
(0.000405049 -0.00831669 3.93948e-18)
(0.000684824 -0.00811757 -6.91833e-18)
(0.00065268 -0.00856972 7.63539e-18)
(0.0631795 -0.00622121 5.93588e-19)
(0.0686563 -0.00680282 -7.86471e-20)
(0.0632482 -0.00605166 -3.64825e-19)
(-1.97017e-06 1.39874e-05 7.99593e-19)
(-6.07451e-06 2.60407e-05 -7.30912e-19)
(-0.0612131 -0.0114515 -3.65099e-18)
(-0.0557683 -0.00988829 1.01543e-18)
(-0.0581082 -0.0103175 -1.03443e-17)
(-0.00809814 -0.0371986 -4.81367e-18)
(-0.0130069 -0.0385779 -1.64961e-17)
(-0.0152786 -0.040146 1.86893e-17)
(-0.00105412 -0.000659822 -2.2243e-18)
(-0.0010232 -0.000662601 4.8628e-19)
(-0.00104707 -0.000694575 2.62894e-18)
(-0.0671897 0.032237 3.4648e-19)
(-0.0671006 0.03902 -3.45989e-19)
(-0.060698 0.0381656 -9.87025e-21)
(0.072194 -0.0074191 -6.18152e-19)
(0.0729713 -0.00761401 -5.8506e-19)
(0.0236288 -0.00780996 -3.76773e-17)
(0.0243675 -0.0079349 -1.86988e-17)
(-0.0207431 0.00842369 -1.68271e-17)
(-0.0207534 0.00861084 -4.36869e-19)
(-0.0203235 0.00940281 -4.57613e-18)
(0.077496 -0.00623522 -7.38229e-20)
(0.0762518 -0.00618062 -6.61152e-19)
(0.0722769 -0.00666372 -1.90098e-19)
(-0.000563942 -0.000706597 -3.01909e-19)
(-0.000573802 -0.000682099 2.72038e-19)
(-0.000557803 -0.000681835 -8.08086e-20)
(4.40994e-05 -4.56711e-06 6.10005e-19)
(7.08625e-05 -6.81541e-06 2.16732e-18)
(-0.00961841 0.0145932 -8.40372e-19)
(-0.00974037 0.0147018 -4.09515e-19)
(-0.00976896 0.0144329 6.32175e-19)
(-0.00100934 -0.00176538 -1.06865e-18)
(-0.000971798 -0.00168855 1.82395e-18)
(-0.000904319 -0.00171745 -1.40508e-18)
(-0.000571167 0.000621939 -5.94788e-18)
(-0.000542658 0.000625566 -9.38954e-19)
(-0.0621743 -0.0178546 1.95631e-17)
(-0.0658251 -0.0178209 2.72565e-17)
(-0.0655791 -0.0138091 2.91454e-17)
(-0.000397559 0.000757268 1.48859e-18)
(-0.000397515 0.000744915 3.85329e-18)
(-0.000444992 0.000733663 -9.29187e-18)
(-0.0116189 0.014533 2.2595e-18)
(-0.0118435 0.0141667 2.23694e-19)
(-0.00341407 0.00206351 -1.93293e-19)
(-0.00352827 0.00227078 3.90153e-18)
(-0.0036684 0.00200687 2.34587e-18)
(0.0394015 -0.00918733 3.18791e-19)
(0.0411711 -0.0094721 -4.38664e-18)
(0.0396644 -0.00925197 3.1135e-19)
(-0.00109125 -0.00066039 -2.43255e-18)
(-0.0010586 -0.000628521 -2.41279e-18)
(-0.000956163 0.0253991 7.97532e-18)
(0.00057553 0.0247074 3.6155e-18)
(-0.0744426 0.0256011 -1.31608e-18)
(-0.0773677 0.0259663 2.13829e-19)
(-0.00969735 0.0165266 7.30185e-19)
(-0.0069143 0.0163736 -3.14456e-19)
(-0.00665552 0.016121 1.2587e-19)
(-0.0616099 0.00573444 1.71935e-18)
(-0.0558664 0.00652784 -3.29816e-18)
(-0.0617792 0.0109354 -2.28651e-18)
(-0.000321211 0.000797776 -3.81022e-19)
(-0.000322636 0.000770115 8.82453e-19)
(-0.0108338 0.0143065 -1.36436e-19)
(-0.0113931 0.0143432 3.04054e-19)
(-8.52776e-05 0.00146867 7.69103e-19)
(-0.000107344 0.0014602 -3.04709e-18)
(-0.00010498 0.00146424 -1.78339e-18)
(-0.00110617 -0.00176971 -4.21719e-19)
(-0.00105119 -0.00182938 6.50783e-19)
(-0.0116303 0.0117696 -8.89388e-20)
(-0.0123797 0.0111809 -3.63738e-19)
(-0.0115581 0.0109589 -1.01808e-18)
(-0.0109393 0.0122173 -5.88902e-19)
(-0.0118037 0.0126401 -6.3284e-21)
(-0.0679527 0.00236749 -7.7668e-20)
(-0.062696 0.000191596 1.97202e-18)
(-0.00232913 0.0086565 3.37919e-17)
(-0.00258802 0.00885261 -7.64207e-18)
(-0.000883083 -0.00108281 1.07308e-19)
(-0.000924571 -0.00106316 -1.0415e-19)
(-0.000862804 -0.00104449 1.69907e-19)
(0.0141219 -0.00561518 6.46317e-18)
(0.015167 -0.00605601 5.59321e-19)
(0.0151107 -0.0058387 3.77779e-17)
(0.0240713 -0.00514125 9.80396e-18)
(0.0257495 -0.0057635 -1.51687e-17)
(0.0245281 -0.00549499 -1.77128e-17)
(0.00621611 0.00672812 -4.53237e-18)
(0.00665406 0.00634323 -7.72614e-18)
(0.00683054 0.00703567 -3.01864e-19)
(-0.000841349 0.000111458 -3.6854e-18)
(-0.000820454 0.000153139 4.77137e-19)
(-0.0008601 0.000108995 -1.80495e-18)
(-0.0498817 0.00723126 -7.9387e-19)
(-0.0509077 0.00119716 -1.90767e-18)
(-0.00276745 0.00355373 -1.29974e-18)
(-0.00254651 0.00341371 -5.03992e-20)
(-0.00252561 0.00370684 -1.09022e-18)
(-0.00216924 -0.00132349 9.67503e-19)
(-0.0021347 -0.00125109 -4.38405e-20)
(-0.00205586 -0.00132526 -3.0191e-19)
(0.032092 -0.00752924 -7.01777e-17)
(0.0313275 -0.00774192 2.57857e-17)
(4.8459e-06 -0.000185088 -3.33119e-20)
(-5.5881e-06 -0.000208204 6.76492e-19)
(3.0401e-06 -0.000192321 -1.14673e-18)
(-0.129394 -0.0649461 3.10556e-17)
(-0.124457 -0.0645059 -1.85913e-17)
(-0.000642389 -3.49292e-05 2.5484e-18)
(-0.000632119 7.52381e-06 9.99893e-19)
(-0.000642294 2.30366e-05 -1.41225e-18)
(-0.000885204 -0.00109956 9.00809e-20)
(-0.000899004 -0.00108514 -2.50557e-19)
(-0.00714903 -0.0415583 -3.28636e-18)
(-0.00461091 -0.0438471 -6.07134e-17)
(-0.00620027 -0.044338 3.38904e-18)
(0.000223442 -0.00788197 -1.01044e-18)
(-0.000151923 -0.00820425 -3.94282e-18)
(0.0352521 -0.00458227 -4.5128e-18)
(0.0376892 -0.00472282 6.60902e-18)
(0.0383133 -0.0028832 1.59501e-18)
(-0.043237 0.00703362 2.10089e-19)
(-0.0475358 0.01308 -7.42243e-18)
(0.0210626 -0.00461098 -1.69993e-18)
(0.0212344 -0.00454739 2.08897e-17)
(0.0190826 -0.00395217 5.37952e-17)
(-0.00281449 -0.00224842 -1.59421e-18)
(-0.00264794 -0.00227556 -2.5498e-18)
(0.0439737 -0.00728314 -1.41971e-18)
(0.0434747 -0.00784205 2.1705e-18)
(0.0435698 -0.00735837 2.24134e-18)
(-0.000432193 0.000902667 -2.76107e-18)
(-0.0004521 0.0008843 3.66701e-18)
(-0.00042409 0.000942127 3.766e-18)
(0.016549 -0.00358495 8.17114e-18)
(0.0183954 -0.00420123 -7.57849e-18)
(-0.000377445 0.000801734 -4.35124e-19)
(-0.000330221 0.000759145 5.50322e-18)
(-0.00125673 0.000150113 2.99769e-18)
(-0.00135777 0.000154168 1.72215e-18)
(-0.0219594 -0.011989 -3.02197e-17)
(-0.0249682 -0.0118489 4.74102e-17)
(0.0210831 -0.00468659 1.01096e-18)
(0.0225682 -0.00516143 -4.29175e-17)
(-0.0439296 -0.0411074 -8.72597e-18)
(-0.039162 -0.0384936 4.19057e-17)
(-0.0415201 -0.0369949 4.18721e-17)
(-0.0201914 0.0075099 9.97225e-18)
(-0.0195045 0.00674417 8.08842e-18)
(-0.0190833 0.00755199 -9.83434e-18)
(-0.000668904 -0.000533725 9.04236e-19)
(-0.000692582 -0.000504478 3.18755e-19)
(-0.000704201 -0.000557706 8.97763e-19)
(-0.0104566 0.0147045 1.06833e-18)
(-0.0107313 0.0146535 -5.6162e-19)
(-0.0105831 0.0144521 -6.82625e-19)
(-0.126566 -0.0153834 -3.55901e-19)
(-0.129122 -0.0146067 -1.89228e-18)
(-0.134054 -0.0128267 -4.14703e-18)
(-0.0173634 -0.0149251 -6.65249e-17)
(-0.0182339 -0.0155907 -3.83546e-17)
(-0.0184514 -0.0145042 8.195e-18)
(-0.0102369 0.0147986 2.02106e-18)
(-0.010511 0.014987 1.35224e-18)
(-0.00323912 0.00608772 -4.59256e-18)
(-0.00293453 0.00611418 -1.24602e-17)
(-0.00304108 0.00572593 -1.11623e-17)
(-0.00373493 0.00636874 2.3262e-17)
(-0.00366767 0.00655181 2.0013e-17)
(-0.00389533 0.00652821 1.52283e-17)
(-0.000855057 0.000186244 4.56635e-19)
(-0.00088388 0.00015379 -3.48104e-19)
(-0.000904279 0.000154303 3.7341e-18)
(-0.000478485 -0.000769893 2.19077e-19)
(-0.000484043 -0.000802464 1.38558e-19)
(-0.000449437 -0.000778165 -1.02747e-18)
(0.00801195 0.0028078 -5.01212e-18)
(0.00833745 0.00233056 -6.8641e-19)
(0.00869296 0.00306979 -2.76233e-18)
(-0.000478622 -0.000752286 8.13619e-20)
(-0.000490834 -0.000759193 7.88446e-20)
(0.0234678 -0.00488509 3.65105e-17)
(0.0219766 -0.00432796 -3.59114e-17)
(-0.00115583 0.000157941 -2.78517e-19)
(-0.00124247 0.000260947 -9.51969e-19)
(-0.00013947 -0.000524897 2.18169e-18)
(-0.000118419 -0.000503108 -1.28432e-18)
(-0.00468765 -0.00160333 1.26831e-18)
(-0.00486861 -0.00172528 -1.67909e-19)
(-0.00484319 -0.0014589 6.38604e-19)
(-0.000528777 -0.000738534 2.03727e-20)
(-0.000567419 -0.000762959 2.22513e-20)
(0.0292014 -0.022181 4.20375e-18)
(0.0310182 -0.0210553 4.97448e-19)
(0.0312865 -0.0239174 1.11726e-17)
(0.0103439 -0.00998638 1.47019e-17)
(0.0101072 -0.00918886 -6.06033e-18)
(0.00944373 -0.00977237 1.66875e-17)
(-0.00566709 0.0197075 1.18841e-18)
(-0.00606608 0.0191854 1.29176e-18)
(-0.0063637 0.0199507 -9.87287e-19)
(-0.00329162 0.001841 -3.30625e-18)
(-0.00316719 0.00205254 -3.31294e-18)
(-0.000203033 -0.000377847 2.80006e-19)
(-0.000221532 -0.000386289 3.46918e-19)
(-0.000205325 -0.000393558 1.10892e-20)
(-7.82032e-05 -4.85996e-05 -1.05135e-19)
(-7.33371e-05 -7.05254e-05 1.21486e-20)
(0.014204 -0.00734004 -3.54738e-18)
(0.0132103 -0.00701679 2.40344e-18)
(0.0129625 -0.00525454 -3.38159e-17)
(0.0129027 -0.0051166 -3.20046e-17)
(-0.0193072 0.00226815 8.76265e-19)
(-0.0190774 0.00309652 -9.21357e-18)
(-0.0200908 0.00283785 -2.38872e-18)
(-0.000123907 -0.000495069 3.17267e-19)
(-0.000136633 -0.000515824 6.48458e-19)
(-0.000122026 -0.000476745 6.08232e-19)
(-0.000961835 -0.000971357 7.74222e-20)
(-0.000971851 -0.00101444 4.16769e-19)
(-0.00100921 -0.00097196 2.55066e-19)
(-0.0152871 0.0294829 -1.96964e-18)
(-0.0140674 0.034469 2.74936e-18)
(-0.0219765 0.0308882 3.5667e-18)
(0.0369259 0.0320802 -4.35211e-18)
(0.0399875 0.0312431 -1.83404e-18)
(0.0398452 0.0349559 7.08382e-18)
(-0.00304402 0.0111083 -8.63586e-18)
(-0.00310908 0.0107758 8.72323e-18)
(-0.00345248 0.0110488 9.08647e-18)
(-0.000656791 -0.000548041 -4.47469e-20)
(-0.000666824 -0.000516388 -2.80882e-19)
(-0.00769342 -0.00914514 9.24785e-18)
(-0.00698665 -0.00916815 -1.19096e-17)
(-0.00746907 -0.00858922 5.48921e-18)
(0.00938227 0.0650426 1.04812e-18)
(-0.00299979 0.0599338 -3.86604e-18)
(0.00242378 0.0650569 1.35412e-18)
(0.00285034 0.00755799 8.48804e-18)
(0.00309205 0.00808371 1.48035e-17)
(0.00334776 0.00742923 3.25256e-18)
(-0.00280141 -0.00192006 8.33184e-19)
(-0.0029213 -0.00200948 2.33406e-18)
(0.00057461 -0.00437202 -5.37245e-18)
(0.000952257 -0.00417154 8.29647e-18)
(0.000639357 -0.00405578 6.29887e-18)
(-0.0630912 -0.0134032 -6.3167e-17)
(-0.0662341 -0.0138445 -2.18536e-17)
(0.0559223 0.0556382 3.02186e-18)
(0.054662 0.0534843 4.31324e-18)
(-0.00059345 -0.0147074 -1.75814e-17)
(8.81977e-05 -0.014622 1.50506e-17)
(-0.0299774 -0.0391271 -1.7811e-18)
(-0.0287654 -0.037746 1.81292e-17)
(-0.0258846 -0.0367856 -2.98191e-18)
(-0.00235374 0.00835802 8.12217e-18)
(0.0214724 -0.00461888 -4.94246e-18)
(0.0227333 -0.0051023 2.06226e-17)
(-0.00226348 0.00473477 2.43703e-18)
(-0.00223492 0.0048742 -1.99833e-18)
(-0.00219357 0.00468686 -1.59369e-18)
(0.00187666 0.00784138 -6.96743e-19)
(0.00153793 0.00747139 7.06046e-18)
(0.0013644 0.00797755 5.00935e-19)
(-0.00913764 -0.0400061 6.45804e-17)
(-0.00722032 -0.0396237 1.984e-17)
(-0.00142365 0.000308683 -2.6182e-19)
(-0.00135623 0.000320428 -1.97463e-18)
(-0.0013866 0.000247641 -1.06802e-17)
(-0.000411078 0.000907366 -4.10199e-18)
(-0.000437759 0.000869608 -7.51859e-18)
(-0.0058896 0.00978596 -1.46371e-17)
(-0.00601501 0.0110322 2.71781e-17)
(-0.00697731 0.00992918 -8.29876e-18)
(-0.118185 -0.0716729 -3.16581e-17)
(-0.13044 -0.0711721 -5.11363e-18)
(-0.13 -0.0723898 -1.60745e-17)
(-0.00211609 -0.000900184 -1.33419e-18)
(-0.00220102 -0.000907712 1.2678e-18)
(-0.0021821 -0.000823687 -7.72267e-19)
(1.32316e-05 -0.00016436 1.38894e-18)
(8.88161e-06 -0.000179395 1.2364e-19)
(0.0211926 -0.00483188 5.38223e-18)
(0.0497235 -0.00750664 -2.63573e-18)
(0.0504185 -0.00760692 -2.78007e-19)
(0.0466101 -0.00774132 -3.12171e-18)
(-0.00830896 -0.00921917 1.13403e-17)
(-0.0077322 -0.00972905 1.5138e-17)
(-0.0101015 0.0146727 -1.39197e-18)
(-0.0100521 0.0149029 9.75481e-19)
(0.0274243 -0.0237704 2.82361e-17)
(0.0272539 -0.0212001 3.32152e-17)
(0.0105847 -0.01103 -4.95512e-18)
(0.011446 -0.0101407 -1.08999e-18)
(0.0490923 0.0185805 6.14352e-18)
(0.0504066 0.0155116 1.05239e-17)
(0.0464709 0.0158687 5.8736e-18)
(-0.000734737 0.000616959 1.63368e-18)
(-0.000736937 0.000613417 -3.19568e-18)
(-0.000725038 0.000575909 2.66495e-19)
(-0.000344163 0.000803779 3.48094e-18)
(-0.000321555 0.000813817 -3.20425e-18)
(-0.000312426 0.000855443 -4.78692e-18)
(-0.000280904 0.000672252 -3.5555e-19)
(-0.000283475 0.000695209 -2.78357e-19)
(-0.000258917 0.000680177 2.01061e-18)
(-0.00364182 -0.0344873 -5.77248e-17)
(-0.00325034 -0.0334405 -2.16715e-17)
(0.00186623 0.00678563 -4.91993e-18)
(0.00162195 0.00714899 1.39107e-19)
(0.00160821 0.00671001 -4.30297e-18)
(-0.000532981 0.000557845 -2.1306e-18)
(-0.00058623 0.000589792 -4.9616e-18)
(-0.000522143 0.00062165 -4.1492e-18)
(-1.35599e-05 5.37194e-05 3.31977e-19)
(-1.41439e-05 4.69176e-05 1.42366e-18)
(-2.11248e-05 6.42317e-05 6.77475e-19)
(0.0630291 -0.00696774 2.02114e-19)
(0.0630144 -0.00686449 4.49622e-19)
(0.0684271 -0.00738121 8.47006e-19)
(0.00773013 0.00339704 -4.59369e-18)
(0.00738855 0.00264688 -1.38736e-17)
(-0.00941077 0.0144768 -1.34425e-18)
(-0.0094453 0.0147342 -1.14522e-18)
(0.0421256 -0.0065622 2.54619e-19)
(0.040692 -0.00755201 -3.8477e-18)
(0.0685246 -0.0124692 -1.05209e-18)
(0.0644446 -0.0116651 -3.55415e-18)
(0.0684982 -0.0111407 -3.38383e-18)
(0.0687478 -0.0130665 -4.43187e-18)
(0.0724622 -0.0134879 3.08079e-18)
(-0.0589728 -0.0174127 -4.93256e-17)
(-0.0568529 -0.0209583 -2.86657e-17)
(-0.00457275 -0.0017397 -4.74946e-19)
(-0.00451302 -0.00154721 -5.37012e-20)
(-0.0816199 -0.000243513 -7.69833e-18)
(-0.0866521 -0.00510048 -2.16103e-17)
(-0.0978559 -0.0102719 -1.03907e-17)
(-0.00030507 0.000808324 7.74866e-19)
(-0.000284613 0.000821742 4.63885e-19)
(-0.000282603 0.000793289 1.04854e-18)
(-0.000186673 -0.000368749 -2.87097e-19)
(-0.000205796 -0.000361698 -3.5234e-19)
(0.0122923 0.00141063 -9.43608e-19)
(0.0123796 0.000498081 -1.15663e-19)
(0.0115862 0.000879052 3.16363e-18)
(-0.000127038 4.06958e-05 -1.0539e-19)
(-0.000115335 5.23293e-05 4.16784e-19)
(-0.000108098 3.47938e-05 7.3858e-19)
(-0.048355 -0.0426988 -1.2255e-17)
(-0.0489017 -0.0440997 -4.20162e-17)
(-0.0192176 0.0254878 1.20232e-19)
(-0.0172615 0.0250838 -2.00309e-19)
(-0.0187488 0.0235099 -4.5472e-19)
(-0.00918927 0.0153525 6.51141e-20)
(-0.0091687 0.0154576 -1.38649e-19)
(-0.00930167 0.0153977 1.7773e-19)
(-0.000169125 -0.000359798 2.71402e-19)
(-0.000172702 -0.000375234 -1.20529e-19)
(-0.00316851 0.00324198 1.56818e-19)
(-0.00296505 0.00342864 -2.3932e-18)
(-0.00298285 0.00312812 -1.87696e-18)
(-0.00929325 0.0152196 -2.92346e-19)
(-0.00912267 0.0152133 5.84559e-19)
(0.0338918 0.0337462 3.38014e-18)
(0.0340056 0.0298195 -1.05696e-17)
(-0.0213961 0.00745499 2.1854e-17)
(-0.00439386 -0.00191314 -2.78529e-18)
(-0.00413551 -0.00184374 -4.09604e-19)
(-0.0041631 -0.00204815 1.26369e-19)
(0.00230501 0.00771702 -8.0619e-18)
(0.00254524 0.00714986 -9.86477e-18)
(0.0312017 -0.00788371 8.73604e-17)
(0.0304842 -0.00789849 -9.16912e-19)
(0.0519698 -0.00716229 -7.84592e-19)
(0.0488344 -0.00750596 -4.12021e-18)
(-0.00200789 0.0227354 -9.71488e-19)
(-0.00262657 0.0238313 2.48915e-18)
(-0.00180335 0.00316999 -4.47151e-18)
(-0.00175548 0.00316339 -4.46753e-18)
(-0.00181432 0.00336725 1.50848e-18)
(-0.00073094 0.000467495 -2.73318e-18)
(-0.000793684 0.000511122 1.5145e-18)
(-0.000736955 0.000589226 1.85548e-18)
(-0.000295937 -0.000656086 1.54271e-19)
(-0.000315719 -0.000670879 2.57767e-19)
(-0.000292393 -0.00066327 -3.26584e-19)
(-0.103243 -0.0670872 2.72722e-17)
(-0.0920514 -0.0608598 -8.32333e-18)
(0.00229407 0.00678632 -3.29754e-18)
(0.00207635 0.00634725 -1.33343e-18)
(0.0382614 -0.00695765 4.71984e-19)
(0.0374688 -0.00766198 1.15508e-18)
(0.0012106 -0.00106799 2.92182e-18)
(0.00133861 -0.00117581 -4.00126e-18)
(-0.00202418 -0.000900677 2.30076e-19)
(-0.00205163 -0.000963336 -4.2061e-19)
(-0.0109913 0.0146113 -2.43184e-18)
(-0.011321 0.0145725 6.2343e-19)
(-0.0111733 0.014295 -3.51228e-18)
(-0.00261837 0.0223249 -5.52175e-18)
(-0.00179223 0.0218276 1.52459e-18)
(-5.39131e-05 -3.56532e-05 1.33384e-18)
(-4.81013e-05 -3.41191e-05 1.08551e-18)
(-4.44268e-05 -6.47842e-05 -1.40514e-18)
(-0.000187908 -0.000757592 -1.82653e-18)
(-0.000207954 -0.000759974 1.10543e-19)
(-0.000173286 -0.000725587 -2.64963e-18)
(-0.00286132 0.00891395 -3.65462e-17)
(-0.00320859 0.00870694 -5.04873e-18)
(-0.00323663 0.00910844 -2.42211e-17)
(-0.0108724 -0.0386733 6.06787e-19)
(-0.0124086 -0.0369842 -2.65196e-17)
(-0.010771 -0.036699 1.25429e-17)
(-0.0837109 -0.041032 -4.0035e-18)
(-0.0874902 -0.0427705 5.52747e-18)
(-0.0863322 -0.0373563 1.54969e-17)
(-0.088176 0.0127579 1.47386e-18)
(-0.0904347 0.00816982 -2.69685e-18)
(-0.0894653 0.0131348 -1.09906e-18)
(0.00114673 0.00493839 -3.75126e-18)
(0.00106759 0.00536102 2.80351e-18)
(-0.0147157 0.0228442 -7.67297e-18)
(-0.0142842 0.0161295 1.78177e-17)
(-0.00909892 0.0229212 -1.60341e-17)
(-0.084236 -0.0384174 1.18353e-17)
(-0.0876097 -0.0387528 -1.00613e-17)
(-0.000694564 0.00146003 1.63245e-17)
(-0.000615535 0.00140751 -8.53411e-18)
(-0.000576 0.00150801 -1.22581e-17)
(-0.00128673 0.00791785 -1.5529e-18)
(-0.000868069 0.00788917 4.85856e-18)
(-0.00114701 0.00759596 4.96137e-18)
(0.0632236 -0.0127986 1.90453e-19)
(0.0677793 -0.0135409 -9.19501e-19)
(0.0630417 -0.0125028 -1.21796e-18)
(0.000587237 -0.00174607 1.05741e-18)
(0.000590775 -0.00187917 7.93014e-18)
(0.000451241 -0.00182766 -1.99314e-18)
(-0.0127328 0.0144692 2.37808e-19)
(-0.0131598 0.014603 1.28308e-18)
(-0.0129378 0.0149047 -4.27318e-19)
(-0.000972066 -0.000940329 -2.83668e-19)
(-0.000937661 -0.000956135 1.4391e-19)
(-0.0100193 -0.0409031 2.78651e-18)
(-2.91871e-05 0.000285326 -7.1709e-20)
(-3.89481e-05 0.000330271 -9.12693e-19)
(-3.82054e-05 0.00034436 -5.66442e-19)
(0.00168345 -0.00841675 -2.4157e-18)
(0.00205511 -0.00848026 -1.27452e-17)
(0.00174884 -0.00879547 -5.47788e-18)
(-0.00234449 -0.00141275 8.12888e-20)
(-0.00231986 -0.0014973 -1.22844e-18)
(-0.00246803 -0.00146726 -3.06159e-19)
(-0.000540032 0.000624914 4.82713e-19)
(-0.000580629 0.000599961 -4.58104e-18)
(0.00713665 0.0367043 -1.21177e-18)
(0.00564386 0.0380382 3.98338e-18)
(0.00764785 0.0384817 -3.52215e-19)
(-4.15253e-05 -0.000394386 1.57234e-20)
(-4.68443e-05 -0.000382501 8.29295e-19)
(-3.1638e-05 -0.000345853 3.63575e-18)
(-0.00131396 0.0164296 -3.56546e-18)
(-0.00113524 0.0175867 -4.76125e-18)
(-0.00017016 -0.000343697 2.23616e-19)
(-0.00015257 -0.000347397 5.8214e-19)
(0.00689106 0.026286 1.16744e-17)
(0.00837907 0.0263666 -2.7577e-18)
(0.00760925 0.0249326 1.12844e-17)
(0.033377 -0.00408118 -7.72625e-18)
(0.0337129 -0.00606465 -9.52028e-18)
(-0.0363422 -0.0388842 -7.84917e-18)
(-0.0319305 -0.038198 -2.87585e-17)
(-0.0390461 -0.041945 -2.0651e-17)
(-0.00217307 0.00302159 -3.97336e-18)
(-0.00219566 0.00277602 7.05065e-18)
(-0.00243022 0.00293715 5.87265e-18)
(-0.00170619 0.0079503 -7.64544e-18)
(-0.00137791 0.00828729 -5.18863e-18)
(-1.35851e-05 0.000185376 3.08128e-19)
(-7.05916e-06 0.000137565 -4.43253e-19)
(-7.99456e-06 0.000142905 -2.10319e-18)
(-0.00596777 0.00968905 5.62735e-19)
(-0.00571218 0.00969419 -4.54993e-19)
(-0.000541454 0.00053965 1.7028e-18)
(-0.000526414 0.000575917 1.69721e-18)
(-0.000541763 0.000518058 -1.41747e-19)
(0.00163241 -0.0076129 -1.58442e-17)
(0.00883654 -0.00474396 6.15005e-17)
(0.00972985 -0.00506903 1.20178e-17)
(0.00907476 -0.005313 2.80005e-18)
(-0.00211102 0.00320408 -1.44898e-17)
(-0.00190994 0.00295034 -5.5022e-18)
(0.000571362 -0.00159821 -1.79947e-18)
(0.000698607 -0.00161077 2.79214e-18)
(-2.43951e-05 0.00144779 -9.24457e-19)
(-3.43431e-05 0.00146917 -3.77983e-18)
(-0.09298 0.010815 2.1621e-18)
(-0.0843408 0.0172921 2.85878e-18)
(-0.000129654 -0.000474476 -8.29162e-20)
(-0.000124148 -0.000455652 -2.9556e-19)
(0.0116325 -0.00752474 1.05956e-17)
(0.00622319 -0.00417513 -1.7749e-17)
(-0.0917425 0.00385022 4.61398e-18)
(-0.0940908 -0.00133893 2.16982e-18)
(-0.0934494 0.00338965 8.23113e-18)
(-0.0167352 -0.0145836 3.03114e-17)
(-0.016784 -0.0153464 -2.63677e-17)
(-1.3291e-05 6.00407e-05 -1.10141e-18)
(-7.635e-06 4.27852e-05 -4.98715e-19)
(-0.0302201 -0.00455397 1.36389e-17)
(-0.0295034 -0.0058714 3.78053e-18)
(-0.0291182 -0.00497542 3.45262e-18)
(-0.0362655 0.00744613 3.40272e-19)
(-0.0301487 0.00816668 -1.66121e-18)
(-0.0341824 0.0137759 -1.11877e-18)
(0.0820912 -0.00572091 1.20748e-18)
(0.0786963 -0.00650907 -2.05132e-19)
(-0.0126092 0.0141059 6.15701e-19)
(0.00362819 0.00158327 -7.46308e-19)
(0.00373078 0.00122434 -4.30408e-18)
(0.00337511 0.00141099 -1.64362e-17)
(-0.00655805 0.0112098 -1.55475e-18)
(-0.00605234 0.0107989 2.52678e-17)
(-0.00605578 0.0115624 -4.98069e-18)
(0.00657696 0.0349762 -1.32652e-18)
(0.00848638 0.0352952 -1.10633e-20)
(-0.00345864 0.00345307 7.20101e-19)
(-0.00349114 0.00301074 2.05808e-18)
(-0.0197815 0.00592873 -5.8338e-18)
(-0.0188272 0.00616368 1.75224e-18)
(-0.00511528 -0.00269319 -1.37431e-18)
(-0.00510505 -0.00241982 -4.74088e-19)
(-0.00487306 -0.00259011 -1.68471e-20)
(0.0392897 -0.00817069 5.30894e-19)
(0.0382735 -0.00825789 1.8607e-18)
(0.03815 -0.0082083 -1.57037e-18)
(0.0270644 0.0181208 1.17832e-19)
(0.0248506 0.0200637 -1.01257e-17)
(0.0246894 0.0165398 2.41144e-18)
(-0.000275312 -3.00634e-05 -1.9788e-20)
(-0.000243714 -4.83336e-05 5.92429e-20)
(-0.000248236 -4.86464e-05 2.71005e-19)
(0.00117003 0.000740898 5.45548e-18)
(0.00103069 0.000718055 -3.6968e-19)
(0.00112553 0.000576281 3.95628e-18)
(-0.0109818 0.0149108 -2.13359e-19)
(0.0621782 -0.0064619 7.32925e-19)
(0.0585436 -0.00602639 -1.29347e-19)
(0.0533979 -0.00570158 1.80164e-19)
(0.0527636 -0.00502566 -6.64726e-20)
(0.0541217 -0.00558929 -3.98788e-19)
(-0.000306116 -0.000650066 6.33165e-20)
(-0.000285788 -0.000639986 1.24658e-19)
(-0.00322938 0.0115977 -1.81747e-18)
(-0.000462296 0.00086908 2.35642e-18)
(-0.000474066 0.000853206 1.37464e-18)
(-0.000451895 0.000907534 -7.186e-19)
(-0.00662448 0.0276425 6.12246e-20)
(-0.00554545 0.0285952 -1.32411e-18)
(-0.00551707 0.0271015 -3.11638e-18)
(0.0420436 0.0283871 2.72639e-18)
(0.0443243 0.0260529 1.36914e-17)
(0.0399024 0.0258802 7.96867e-18)
(0.00129249 0.000726607 4.67891e-18)
(0.00119302 0.000845143 3.55946e-18)
(0.00749077 0.00389302 1.70887e-18)
(0.00809957 0.00409037 -7.88689e-18)
(0.0283774 0.0171069 5.6392e-18)
(0.0286809 0.0193908 -6.57002e-19)
(-0.000788385 6.25317e-06 3.93546e-18)
(-0.000798106 -3.45018e-05 2.92484e-18)
(-0.000785605 1.02341e-05 8.28301e-23)
(-0.00354005 0.00637511 1.62135e-17)
(-0.00315933 0.00668946 7.91622e-18)
(-0.00867754 0.0142366 9.46236e-19)
(-0.00897893 0.0143058 2.17156e-18)
(-0.00887002 0.0139771 -8.73749e-20)
(0.0229317 0.0645252 -1.75055e-18)
(0.0288475 0.06556 -2.3722e-19)
(0.0219248 0.0604155 -1.03012e-18)
(-0.000327272 0.00119913 2.5489e-19)
(-0.000317581 0.00120553 5.37226e-19)
(-0.000305616 0.00122884 -5.64525e-19)
(-0.000514282 0.00065865 7.64445e-18)
(-0.000525077 0.000647519 6.00138e-18)
(-0.00233524 0.00308726 -2.43893e-18)
(0.0800861 -0.0127423 3.31982e-19)
(0.0797448 -0.0144067 -4.08868e-18)
(0.0825203 -0.0136116 2.45367e-18)
(0.0165724 -0.00738144 -1.62476e-18)
(0.0166673 -0.00769486 1.05298e-17)
(0.0168937 -0.00745321 1.83588e-17)
(0.00459163 0.0066994 2.53972e-18)
(0.00453553 0.00627158 2.26183e-18)
(0.00498985 0.00641446 -4.20302e-19)
(-0.000121424 -0.000483247 4.52195e-20)
(-0.00013322 -0.000511465 -5.4919e-22)
(0.0316842 0.0350322 2.89459e-18)
(0.0343971 0.0371509 7.64483e-18)
(0.0476344 0.0212324 -1.03373e-17)
(0.0459695 0.023879 5.60467e-19)
(0.043636 0.0212119 -2.15377e-17)
(-0.003381 0.0200221 -1.27243e-18)
(-0.00398419 0.0193967 -7.79795e-19)
(-0.00328778 0.0192478 -4.56016e-18)
(0.00716567 0.00443735 -1.63341e-19)
(0.00693 0.00372602 1.73506e-18)
(0.080288 -0.0109909 -2.71331e-18)
(0.0761267 -0.0120634 -2.18969e-18)
(-0.140582 -0.00856052 -1.70246e-18)
(-0.14044 -0.0073307 5.02797e-18)
(-0.147741 -0.00832399 -1.6818e-20)
(0.00158619 0.000108613 1.75473e-18)
(0.00162306 -5.13525e-05 5.91862e-18)
(0.00173219 0.000118227 -3.114e-18)
(0.00102127 0.00413576 -4.42418e-18)
(0.00115412 0.00435049 -1.08049e-17)
(0.000809247 0.00433904 -7.81777e-18)
(-0.0410073 -0.00801093 7.73836e-18)
(-0.0422798 -0.00779422 -2.4309e-17)
(-0.0355289 -0.00664156 -4.81455e-17)
(-0.000390163 -0.000772031 2.66662e-19)
(-0.000402638 -0.000788345 -1.34105e-19)
(-0.000413519 -0.000778343 -1.03291e-19)
(-0.000277823 0.000647738 -1.07464e-18)
(-0.000273956 0.000624173 9.75852e-19)
(-0.000253218 0.000632963 1.87954e-18)
(-0.00281718 0.0205662 1.27775e-18)
(-0.00375453 0.020796 9.24593e-19)
(-0.00304969 -0.0116186 7.39879e-19)
(-0.00291271 -0.0113233 8.70723e-18)
(-0.00319298 -0.0114655 -1.50988e-18)
(-0.000120599 -0.000468761 -3.3635e-19)
(-0.000113978 -0.000456451 -1.29194e-19)
(-0.000107386 -0.000442243 3.71145e-20)
(-4.35755e-05 0.000317041 3.3764e-19)
(-3.98371e-05 0.000323394 1.18734e-18)
(-2.78972e-05 0.000271775 1.53598e-18)
(-0.000553786 0.000503128 2.04096e-18)
(-0.000543831 0.000568034 3.40507e-19)
(-0.00032657 3.04936e-05 2.79132e-19)
(-0.000336906 2.68658e-05 3.80247e-20)
(-0.000334599 1.91124e-05 2.45753e-19)
(0.00267039 0.00255171 -7.7363e-18)
(0.00295351 0.00262345 3.21739e-18)
(0.00273037 0.00288894 -8.56613e-18)
(-0.000302804 0.000655359 -1.5366e-18)
(0.0631936 -0.0129935 8.87472e-18)
(0.0674145 -0.0138983 2.83818e-18)
(0.00498848 0.00555129 2.40164e-18)
(0.00447498 0.00578541 6.06485e-18)
(-0.000800546 -0.000772501 2.19649e-19)
(-0.000824237 -0.00072206 1.75771e-18)
(-0.000850893 -0.000787656 2.11716e-19)
(0.0587693 -0.00613034 6.89408e-19)
(-0.0106317 0.0265043 -2.73057e-18)
(-0.016419 0.0241739 -1.03143e-17)
(-0.00058642 0.000653971 2.52329e-19)
(-0.000634829 0.00062976 -1.14376e-18)
(-0.000598451 0.00063443 -1.44028e-18)
(0.00624494 0.0277502 1.33438e-18)
(-0.0975153 -0.017552 3.07574e-18)
(-0.103285 -0.0138208 -4.04318e-17)
(-0.101022 -0.0169059 -3.44872e-17)
(-0.00145552 0.000347183 2.0015e-19)
(-0.0014779 0.000289126 2.52882e-19)
(-0.000518805 0.000667084 4.27475e-18)
(-0.00055744 0.00068787 3.49142e-18)
(0.00546247 0.00548388 4.80581e-18)
(0.00533778 0.00607777 1.92244e-19)
(0.0260065 -0.00251596 1.43594e-18)
(0.0229454 -0.00172571 -5.36227e-18)
(0.0270074 0.000163478 -4.87622e-18)
(-0.0161772 -0.0109551 -1.96815e-17)
(-0.00732669 -0.0101438 5.13637e-17)
(-0.0134545 -0.00955484 6.1191e-17)