/*--------------------------------*- C++ -*----------------------------------*\
| =========                 |                                                 |
| \\      /  F ield         | OpenFOAM: The Open Source CFD Toolbox           |
|  \\    /   O peration     | Version:  v2012                                 |
|   \\  /    A nd           | Website:  www.openfoam.com                      |
|    \\/     M anipulation  |                                                 |
\*---------------------------------------------------------------------------*/
FoamFile
{
    version     2.0;
    format      ascii;
    class       volVectorField;
    location    "50";
    object      ddt0(U);
}
// * * * * * * * * * * * * * * * * * * * * * * * * * * * * * * * * * * * * * //

dimensions      [0 1 -2 0 0 0 0];


internalField   nonuniform List<vector> 
13917
(
(0.0300687 0.0138101 2.41106e-17)
(0.0161495 -0.0230912 1.74834e-18)
(-0.00354334 0.0390491 -4.86999e-18)
(0.000896727 -7.34682e-05 1.92835e-18)
(-0.00169371 -0.0122295 3.77743e-19)
(0.0186103 -0.018868 -1.00046e-18)
(0.00157837 -0.00132976 1.31602e-18)
(-0.0674912 -0.135268 1.16536e-18)
(0.000747151 -0.00129835 -3.45913e-19)
(0.0967196 -0.088289 1.05624e-17)
(-0.0401393 -0.113877 1.52353e-18)
(0.000626053 -0.000100905 5.79674e-19)
(0.000103255 4.87023e-06 -1.33123e-18)
(-0.0683093 0.0659268 9.39419e-19)
(0.00817354 0.0025251 7.48881e-19)
(0.0297866 0.00807346 -3.20422e-17)
(-7.55732e-05 -8.49375e-05 -1.53875e-19)
(-0.0544056 -0.0687089 -1.94884e-18)
(-0.0190971 0.014611 5.86839e-19)
(0.076148 0.044809 -4.38843e-17)
(-0.00597387 0.00896134 -2.92039e-19)
(-0.000406922 0.000733113 -2.36514e-19)
(-0.00242537 -0.00338775 1.63695e-18)
(-0.000420289 0.000607068 4.789e-19)
(0.00142045 0.000154565 4.85317e-18)
(-0.0117516 0.00823534 1.17851e-18)
(0.127141 0.0707907 -2.83216e-19)
(0.101033 -0.0205411 -2.69722e-18)
(-0.0359002 -0.00752485 -8.08786e-19)
(6.32943e-05 0.000733071 -4.88433e-22)
(0.0134918 -0.00636005 -2.97664e-17)
(-0.000983733 0.00442731 -3.12726e-18)
(0.000927473 -4.12465e-05 1.227e-18)
(0.00104789 0.0246518 -2.53542e-18)
(-0.000384553 0.0014862 8.93083e-20)
(-0.0787495 -0.196377 4.46562e-19)
(-0.000108489 0.000570007 -2.36325e-19)
(-0.000181597 1.04763e-05 8.29867e-20)
(0.00149962 -0.00138575 4.15911e-18)
(0.0101612 0.00971418 3.31204e-21)
(0.000499539 -7.52009e-06 -3.08857e-20)
(0.00220636 -0.00402839 -3.9559e-19)
(0.000719404 -0.00108687 -5.36098e-18)
(-0.00698227 0.0166517 -6.91878e-19)
(-0.00845859 0.0156068 -1.11323e-17)
(-0.0314695 -0.127166 -2.62727e-18)
(-0.0046232 0.00752673 -1.768e-18)
(0.194974 0.190094 5.67702e-19)
(0.158754 0.099039 3.40098e-18)
(-0.00021554 0.00133188 -2.11999e-19)
(0.000607694 -9.49151e-05 -3.13809e-19)
(-0.0258235 -0.0482608 -3.16103e-18)
(-0.0364416 0.00014884 2.23278e-18)
(0.00044808 0.000695575 -5.1678e-21)
(0.00053042 0.000715697 3.05135e-19)
(-0.0290661 -0.0430599 1.65283e-18)
(0.0322015 0.0204825 1.92804e-17)
(-0.00226157 -0.00371794 4.33678e-18)
(0.00227569 -0.0033007 1.50797e-19)
(-0.0175384 -0.135156 5.82826e-19)
(-0.28285 0.0514179 1.50415e-18)
(0.00496921 0.0241206 -4.32871e-21)
(0.000266913 1.01236e-05 -1.64009e-20)
(0.00134218 0.000119406 -2.49455e-18)
(0.0392833 0.0715026 2.33893e-18)
(-0.000739393 0.000703576 1.34608e-21)
(-0.0444182 -0.0199599 3.73279e-18)
(-0.0300151 -0.192221 -2.69491e-19)
(-0.0727357 -0.0891842 -1.17615e-18)
(-0.0162177 0.00582932 2.85755e-18)
(0.00387131 0.0689416 1.98266e-18)
(0.000249891 0.0214676 1.35961e-18)
(0.000509047 -0.000140427 -1.54159e-18)
(0.00177065 -0.0030175 6.32204e-19)
(-0.00535987 0.0106696 1.8893e-18)
(0.00118648 0.000648394 8.2764e-19)
(-0.0027078 -0.00194951 -3.13154e-19)
(0.00170945 -0.00252144 -2.82668e-19)
(0.0011399 0.000543616 1.45849e-18)
(0.000977302 -4.01348e-05 3.46306e-18)
(0.000646541 0.000654108 6.44072e-20)
(-0.000653474 -9.058e-05 -4.75554e-21)
(0.000481345 -0.000146939 1.43293e-18)
(0.00792502 0.057723 3.94634e-19)
(8.88892e-05 8.13991e-05 1.221e-18)
(-0.127655 0.102174 3.54054e-19)
(-0.00111027 0.00386359 -7.41236e-18)
(6.14339e-05 3.97887e-05 -8.59593e-19)
(0.00862213 0.0100276 -6.04237e-20)
(-3.79493e-05 -6.47825e-05 1.39674e-19)
(4.4528e-06 5.40694e-05 1.5053e-19)
(0.000699766 -0.00113717 -3.31228e-18)
(0.143155 0.124714 -1.15329e-18)
(-0.0014002 0.000941101 1.2218e-20)
(0.000635583 0.000786794 -1.26959e-19)
(-0.0445831 -0.00835576 -3.6172e-19)
(0.0949155 0.105035 -1.9257e-18)
(-0.000400422 7.08181e-06 -5.89949e-20)
(7.38559e-05 4.83125e-05 1.27731e-18)
(0.0607414 0.0618481 -3.292e-18)
(0.000559739 7.08174e-06 -3.615e-20)
(0.000631001 1.03728e-05 3.93275e-20)
(0.000712893 0.000655939 -1.17546e-19)
(-0.000506475 -4.68386e-05 6.30873e-20)
(-0.00209354 -0.00213616 -6.59347e-19)
(-0.0125577 0.0179902 -1.05591e-17)
(0.0551466 0.130573 -3.85742e-18)
(8.67203e-06 0.0274565 2.34352e-19)
(0.00262429 -0.00449003 1.68882e-19)
(0.139025 0.0834148 7.64879e-19)
(0.000162028 -2.90804e-05 -1.39527e-18)
(0.00621265 0.0284701 6.10008e-18)
(-0.0344807 0.00120128 3.53866e-19)
(0.2001 0.231119 1.40507e-19)
(0.0366361 0.0707068 -1.63414e-18)
(0.000995748 0.000992984 4.77444e-19)
(-0.017617 0.0129072 8.69759e-19)
(0.000646007 -0.000119511 5.2453e-20)
(-0.00905732 0.0332599 -6.13264e-18)
(0.000367524 -0.000268118 7.17223e-18)
(-0.00073584 -0.000115684 -4.98684e-20)
(0.000603561 -0.00244377 4.97329e-19)
(-0.0551484 -0.0237807 -3.84317e-18)
(-0.0240754 -0.00726465 3.27313e-19)
(-0.0446682 0.00214867 6.41828e-18)
(0.0100941 0.0579619 6.21526e-18)
(0.0012786 4.9695e-05 4.04607e-18)
(-0.0064971 0.012614 1.76612e-18)
(-0.000302245 0.000250082 -2.13868e-19)
(-0.0246152 -0.00537 9.59443e-19)
(0.000538475 -0.00137762 3.92088e-18)
(0.0956849 -0.0570722 1.97418e-18)
(-0.0289311 0.00985776 -2.96836e-19)
(0.000794701 0.00107734 7.80173e-23)
(-0.00187778 0.00773039 -3.6441e-18)
(0.132967 0.0879813 -5.1241e-19)
(-0.351454 -0.160522 1.60113e-19)
(-0.0524986 -0.00204012 6.98023e-18)
(-0.0165437 0.00765155 -1.50996e-18)
(-0.00012545 9.38964e-06 -1.70116e-19)
(-0.0337848 -0.0823816 3.54157e-18)
(0.0012546 -0.00239665 -2.82312e-19)
(-0.0103646 0.0164564 1.117e-17)
(-0.000133712 0.000461631 -2.06615e-21)
(0.000472641 -6.30527e-05 -2.59828e-19)
(0.00681871 -0.00570148 -2.34088e-19)
(0.00267998 0.0670927 -2.11678e-18)
(-0.000898142 -0.0612068 7.31882e-18)
(0.146366 0.199633 -5.87343e-19)
(0.000479595 0.000728633 -2.49824e-19)
(0.00631786 0.00858097 -4.10854e-20)
(0.00057238 4.51065e-05 -6.47674e-21)
(0.000453772 -7.02245e-05 1.64779e-18)
(0.000349989 -0.000300377 4.76577e-19)
(0.0981894 0.110873 5.42422e-18)
(-0.000104879 9.01307e-05 2.24065e-19)
(-0.000513465 -5.57858e-05 -8.58079e-20)
(-0.0333068 0.00357176 1.96578e-18)
(0.000639762 -5.93027e-05 -1.11558e-19)
(0.000623181 -0.000101051 -1.09916e-20)
(7.41893e-05 0.000187501 6.22609e-19)
(-0.0339002 0.122396 2.28344e-19)
(-0.000467651 -0.00165323 5.03837e-19)
(-0.00305929 -0.133888 -1.24499e-18)
(-0.0929926 0.194646 -1.62261e-17)
(0.0768887 0.0734875 3.72758e-19)
(-0.0233275 -0.000732513 -2.36847e-18)
(-0.0522482 0.29552 -1.1011e-19)
(0.000264742 0.000257753 -2.36967e-21)
(-0.0198753 0.00914973 1.62436e-19)
(-0.000510793 0.000457869 2.53133e-19)
(-0.0143555 0.0222386 -3.29246e-18)
(0.000714029 -0.00129059 4.56714e-19)
(-0.371472 -0.0728406 2.7832e-18)
(0.00977401 -0.0272302 1.23929e-18)
(0.000712861 4.75968e-05 -3.93213e-20)
(0.000896831 -8.81818e-05 -9.01735e-19)
(-0.0273184 -0.0614843 7.51001e-18)
(0.000580327 -0.00141458 -6.87067e-18)
(-0.000818637 -0.00222089 -4.16912e-19)
(0.00079826 -0.00101436 6.9751e-19)
(-0.000437234 0.000454066 -6.18965e-19)
(0.000611513 -6.04003e-05 -8.39824e-19)
(-0.0772723 -0.0272459 1.44397e-18)
(-0.0112509 0.0349073 6.6631e-18)
(0.102421 -0.0482075 4.65072e-18)
(0.000593295 -4.83405e-05 5.6233e-19)
(-0.0789029 -0.0362632 -2.7529e-18)
(5.4531e-05 0.000785495 -9.45833e-22)
(-0.13523 0.0775998 -1.78496e-18)
(0.0128768 -0.0274705 -6.78275e-19)
(-0.00769813 0.0135207 1.44547e-18)
(-0.053027 -0.018051 -5.64004e-18)
(0.0417244 0.0185887 -2.74459e-17)
(-0.00125108 0.000981685 -1.49954e-20)
(-0.041498 0.00306125 -4.61058e-18)
(0.00291152 0.000228395 -4.92333e-19)
(-0.0295256 0.0114689 3.67155e-18)
(-0.000567033 0.00138279 3.14972e-21)
(-0.000239032 0.000123761 -7.42491e-19)
(-0.00266936 0.0055373 -4.02194e-19)
(-0.00975264 0.00650374 1.49364e-19)
(-0.0531477 -0.00177212 -5.96172e-18)
(0.000445548 0.000344433 2.01691e-19)
(0.154349 0.0536395 5.38688e-19)
(-0.0113142 -0.0112037 -1.11145e-18)
(0.00755152 0.0084516 -9.00567e-20)
(0.000939425 -0.00268009 6.13008e-19)
(-0.0306328 -0.0536034 -6.42792e-18)
(0.000617952 0.000752917 -3.58685e-19)
(-0.00039813 0.000378922 -1.31137e-19)
(0.00871196 -0.0248231 1.08529e-18)
(0.0130465 -0.029767 -7.12606e-19)
(0.156163 0.197491 2.98188e-20)
(-0.00132735 0.00693578 7.76735e-18)
(-0.0138715 0.00995479 2.77268e-19)
(0.0279481 0.0972918 -1.50295e-18)
(-0.000122663 1.84876e-05 2.82353e-19)
(-0.00020257 -0.000842375 1.67552e-19)
(-0.000253335 -0.000922262 8.97506e-20)
(-0.0285184 0.315709 -3.97298e-18)
(-0.0632844 -0.0245053 2.57416e-18)
(-0.0932991 -0.0505233 -5.00864e-19)
(0.000187437 1.60555e-06 7.6127e-19)
(0.000181819 -5.64826e-06 1.19942e-20)
(0.141716 0.101151 -1.07409e-18)
(-0.0389715 0.00208729 4.16329e-18)
(-9.45304e-05 -0.00100698 -6.96499e-20)
(-0.000138242 -0.00105118 2.18176e-19)
(0.000453543 -2.34658e-05 2.35516e-20)
(-0.000278 -0.000917287 9.19181e-20)
(-0.000295304 -0.00101399 3.14569e-19)
(0.00261843 0.0193978 -1.00578e-17)
(0.0530548 0.210154 5.53331e-19)
(8.06236e-06 0.00114432 4.51232e-19)
(0.000585926 0.000482666 -1.89113e-21)
(-0.00927452 -0.0226043 -2.2527e-18)
(-0.0149449 0.0135534 6.71832e-18)
(0.000387307 -3.81377e-05 -1.01681e-19)
(0.0001853 5.77954e-07 -8.90928e-19)
(0.149646 0.0628772 -3.25419e-19)
(-0.0155625 0.0106896 8.5094e-18)
(-0.0700228 -0.0246875 -1.27103e-18)
(0.0308891 0.0946751 9.39261e-19)
(0.0135895 -0.0495359 6.99286e-19)
(-0.000114825 0.00051901 6.59941e-22)
(-0.0501137 0.260784 -8.61401e-19)
(-0.0120548 -0.0225089 3.14487e-18)
(-0.0284348 0.000720281 2.74654e-18)
(-0.010799 0.00271783 1.28999e-18)
(0.000496963 0.000455567 -5.83014e-20)
(0.0627349 0.209962 4.46095e-19)
(0.00039749 -0.000231722 -1.82216e-18)
(0.0127671 -0.00328682 -1.31526e-18)
(0.00920166 -0.0224218 -5.22188e-18)
(-0.000130134 0.00133587 -3.84942e-19)
(0.000279587 -3.82741e-06 1.83404e-20)
(0.00134894 6.64307e-05 6.5892e-19)
(0.00622489 -0.00234505 1.8947e-20)
(-0.0025914 0.00142314 1.11863e-20)
(-0.0422786 0.00466074 4.78108e-18)
(-0.0828017 -0.676138 -2.31013e-17)
(-0.000607107 -0.00241142 -7.10501e-20)
(-0.000130337 -0.00100485 -2.5657e-19)
(-0.000127024 -0.000130714 -5.24244e-20)
(-0.00011727 -0.000918359 2.06154e-20)
(0.000391144 -0.000255632 -2.23503e-18)
(0.000166174 -1.82843e-06 6.05747e-19)
(0.0027272 -0.00511137 9.34177e-19)
(-0.000582918 -0.00276333 4.24843e-20)
(-0.0495959 -0.00360661 -2.36512e-18)
(0.0434944 0.13618 7.64229e-19)
(0.000482071 0.000170227 -3.79533e-19)
(0.00186542 -0.00268183 8.46043e-20)
(-0.0202675 -0.173242 -1.51418e-18)
(0.000643578 -0.00121117 -4.14641e-20)
(0.0468197 0.0539353 1.91829e-18)
(-0.0408904 0.00604557 -1.64061e-18)
(0.000510929 -0.00116865 -2.17123e-19)
(-0.0174073 0.00868803 8.1117e-18)
(-0.00248249 0.00112971 -8.31515e-21)
(-0.0442633 0.115514 1.03581e-18)
(0.000618696 3.56587e-05 -2.37954e-20)
(0.00499602 0.00311286 3.9174e-19)
(-0.000154098 0.00141126 8.62616e-21)
(-0.000187495 0.000251708 -1.11005e-19)
(-0.0400897 0.0163089 -2.00961e-18)
(-0.000340795 1.73716e-05 4.45508e-20)
(0.0858104 0.0784815 -1.77395e-18)
(0.00441793 0.00137145 3.43991e-19)
(-0.0829365 -0.691839 1.42341e-17)
(0.00736289 -0.00705498 1.70384e-19)
(0.130236 0.0293535 1.84092e-18)
(-0.0515616 -0.00296168 -5.81346e-18)
(0.000449903 -6.89302e-05 9.95722e-20)
(-0.0034739 -0.00807367 -6.16269e-18)
(0.00489364 -0.00651052 -2.03082e-18)
(0.000553727 0.00130703 -5.27121e-19)
(0.000919974 -0.0101752 -5.0681e-19)
(0.00124044 0.000447238 1.04862e-19)
(-0.00174131 0.00101359 2.93115e-21)
(-0.000386053 2.20116e-05 -6.62372e-20)
(-0.0141306 -0.0695974 -1.458e-18)
(-0.048275 -0.0198752 1.30188e-19)
(0.0120464 -0.00279351 4.93337e-19)
(0.0011941 0.000381359 -4.75244e-19)
(0.00018676 -1.19418e-05 -6.59666e-20)
(-0.032126 0.00585717 4.62871e-19)
(-0.00452967 0.00494343 -1.0458e-18)
(-0.000303918 0.000485402 2.68619e-19)
(0.00277362 0.00545239 -3.42018e-20)
(0.000766274 0.00124552 5.7566e-19)
(0.091929 -0.113036 -2.70441e-18)
(0.00904475 0.0158174 1.4118e-17)
(0.0470689 0.105629 4.54961e-19)
(-0.369629 -0.0874459 2.43993e-18)
(-0.000628548 0.000596635 -8.82458e-22)
(0.0834209 -0.0525891 -1.37144e-18)
(0.00193957 -0.00161892 -1.16637e-19)
(0.00616634 0.0584637 6.73839e-18)
(0.0666017 -0.184896 5.65607e-19)
(-0.00126141 0.0374081 -3.34452e-19)
(0.000160958 4.5913e-06 7.28531e-19)
(0.00715368 0.00332596 4.28146e-19)
(0.130206 0.0626238 -5.35909e-20)
(-0.000570166 8.115e-05 -5.24393e-19)
(0.0186226 -0.0277301 -1.99243e-18)
(-0.00910177 0.012729 4.20969e-18)
(-6.02147e-05 3.57936e-06 1.40744e-19)
(-0.0115053 0.0250095 -2.89031e-18)
(7.48574e-05 5.69882e-05 -9.75914e-19)
(0.00122239 -0.00101218 -1.01963e-17)
(0.00322717 -0.00151431 1.27624e-20)
(0.099726 0.0430042 -1.76317e-18)
(-0.000367458 0.000121112 1.60682e-20)
(0.010123 -0.00277007 -1.97831e-19)
(-0.0138903 -0.0105562 -1.09725e-18)
(-0.000562044 0.000578196 6.5031e-23)
(-4.81378e-05 1.72627e-05 -6.25812e-20)
(-0.00904576 0.0043971 -9.48837e-18)
(0.00556707 0.0313888 -3.58024e-18)
(0.000590647 0.000784294 -1.36945e-20)
(-0.000493521 2.5434e-06 6.44824e-19)
(0.00702693 0.0321616 4.67325e-19)
(-0.000404885 0.0256947 -2.24504e-18)
(-0.176973 0.0229881 1.45674e-18)
(-0.0852434 0.021413 -9.80818e-19)
(0.000452021 -0.000998869 -7.33717e-20)
(0.00023773 0.00078554 -2.05804e-19)
(-0.0216194 0.00441439 -2.98723e-18)
(0.0758629 -0.0602087 -2.74784e-18)
(0.00033402 -0.00103738 5.1594e-22)
(0.00429149 -0.00926875 1.80025e-18)
(0.000569184 0.000356416 6.69316e-19)
(-0.00785555 0.0360787 6.38685e-19)
(0.0107476 -0.00329505 -9.36344e-19)
(-0.0369299 -0.0173341 3.00889e-18)
(0.0422707 -0.0347716 -2.31972e-18)
(0.0419489 0.0578321 5.42898e-21)
(0.000827648 -0.000728673 1.50487e-18)
(0.0247382 0.0298335 -1.91656e-18)
(-0.000306748 0.00019652 2.53006e-19)
(0.000603978 0.000778754 -4.55614e-19)
(-0.00244639 -0.0151322 -6.75434e-19)
(-0.0331151 0.0310635 -5.86043e-19)
(0.000252575 -6.45136e-05 9.15323e-21)
(0.0406646 0.012454 2.02331e-17)
(0.000854057 -0.000822343 -1.70112e-19)
(-0.00423986 0.0396858 -4.05948e-20)
(0.000549436 0.000737407 8.59688e-20)
(0.0599623 -0.0516209 -2.08572e-19)
(0.0034611 0.0054728 3.93713e-20)
(0.115257 0.071859 -1.64428e-18)
(0.0033217 -0.00152759 9.06278e-19)
(-0.0911113 -0.0382932 4.81637e-19)
(-0.0327158 -0.160635 9.21916e-18)
(-0.0178909 -0.0123596 -1.95399e-18)
(0.000496529 0.000190318 4.3033e-19)
(-0.0479196 0.0630283 -2.05452e-18)
(0.00429565 -0.00112231 1.27361e-19)
(-0.109746 0.197394 2.77924e-19)
(-0.0592243 -0.0171085 -3.89549e-18)
(0.00350605 -0.000873329 -1.32863e-18)
(0.130212 0.0930294 -2.99804e-18)
(-0.000551573 0.0017755 -6.6189e-19)
(0.0079512 0.019048 5.26779e-21)
(-0.000992642 0.000628273 2.32497e-20)
(0.0792891 0.0534085 5.27469e-17)
(0.00587281 0.0199608 -1.94056e-19)
(0.000270243 0.000710477 1.20813e-19)
(0.159113 0.107991 -4.75671e-19)
(0.0294261 0.0534693 -9.45079e-19)
(0.000615309 0.000591185 -1.60621e-19)
(-0.152826 0.127605 2.10478e-18)
(0.0275399 0.00706781 4.37645e-18)
(0.000512701 0.000583385 6.53612e-19)
(-0.0437034 0.0151423 5.03373e-19)
(0.000308331 0.000524034 3.36855e-20)
(0.0267942 0.0616648 -1.01265e-19)
(-0.00601483 0.0378894 5.46524e-18)
(8.13837e-05 5.40926e-05 5.66531e-19)
(0.00108581 -0.00124398 2.12873e-19)
(0.00126074 0.000309811 1.68633e-18)
(-0.000158272 0.000297676 3.17087e-20)
(-0.000172755 0.000152964 -2.0481e-19)
(-0.00036439 0.000140847 1.70756e-19)
(-0.264831 -0.12241 4.44311e-18)
(0.0784456 0.063024 -2.91089e-18)
(0.000565999 0.000771582 1.03152e-19)
(-0.000327484 0.000124665 -8.11651e-20)
(-0.000332105 0.000557828 -1.08071e-20)
(0.000425908 -0.011079 1.5167e-18)
(0.134542 -0.12817 -5.20069e-19)
(0.00181678 -0.00183955 -7.70126e-20)
(0.000296505 0.000272224 1.35529e-21)
(0.00770942 0.0158159 -1.32647e-17)
(0.062675 -0.0435094 -2.43708e-19)
(-0.00019221 0.000284407 9.89791e-20)
(0.00035253 0.000669153 -4.37683e-19)
(-0.294014 -0.167007 -1.53014e-17)
(0.151858 0.114988 -4.01592e-19)
(-0.000786037 0.000633071 5.0301e-22)
(-0.0183491 0.0168973 2.24663e-18)
(0.00736926 0.0563631 3.16669e-18)
(-0.00118652 -0.000464213 1.65783e-19)
(0.00150629 -0.00178985 1.09457e-19)
(-0.00616311 0.00411019 2.83924e-19)
(-0.000174952 0.000152414 5.13387e-20)
(0.00169848 -0.00195208 -3.25771e-20)
(-6.97885e-06 0.00123555 2.44728e-19)
(0.00138026 -0.00182815 1.93318e-19)
(-0.00112068 -0.000633616 -2.10974e-19)
(0.0222567 0.247492 -1.36296e-18)
(0.000356339 0.000518397 9.309e-20)
(0.0135355 0.00779269 3.77183e-20)
(-0.049003 -0.00356228 1.37155e-17)
(-0.00264727 -0.00845115 2.36732e-18)
(-0.000394184 0.00037041 2.07769e-19)
(0.000442877 -4.83726e-05 -1.86976e-18)
(-0.133856 0.130856 2.11535e-18)
(-0.00380388 0.00528295 4.47941e-19)
(-0.0454969 0.0011854 -5.2003e-18)
(0.00268161 -0.00167643 -1.49249e-19)
(0.000271313 -7.78647e-05 -1.46138e-19)
(0.00463176 -0.00146436 4.34655e-20)
(-0.000295429 -0.00107052 1.02259e-19)
(3.09585e-05 0.000536996 2.16544e-19)
(-0.000917431 0.00178748 6.50732e-19)
(-0.263861 -0.197419 1.87851e-18)
(0.0102587 0.00422299 1.82105e-19)
(-0.0198288 0.0117388 -1.12504e-17)
(0.000266354 -7.20781e-05 -4.80104e-19)
(6.47853e-05 -0.00180324 2.34e-18)
(0.0117796 0.000797296 -8.3108e-20)
(0.000512732 0.000777493 4.28808e-19)
(0.00808986 -0.0471799 3.45034e-18)
(-0.194788 -0.00196265 6.72151e-19)
(0.000557959 0.000320886 -1.81e-18)
(0.164444 0.0894379 7.62473e-19)
(-0.000370237 0.000297601 -6.8176e-20)
(-0.000246408 7.00222e-05 -1.30939e-19)
(-0.00031415 0.000462744 2.62363e-19)
(-0.000380415 0.00182658 7.16409e-19)
(-0.000448949 0.000363504 -6.08574e-20)
(1.27085e-05 3.1306e-05 8.74698e-20)
(-0.0307805 0.0071236 6.19235e-19)
(-0.313637 0.0423966 -4.00727e-18)
(-0.000454615 0.000341758 3.22889e-20)
(0.143871 0.0257503 -8.95116e-19)
(0.00489536 0.0166432 -3.38776e-18)
(0.000168644 3.09132e-06 1.43741e-18)
(-0.00461227 -0.0105189 7.55567e-19)
(0.00556776 0.00108572 1.51896e-17)
(-0.100195 0.168461 5.82193e-18)
(0.000986959 -0.0013625 9.46516e-18)
(-0.0112054 0.0214808 3.98222e-18)
(0.00644014 0.0475743 3.11381e-19)
(0.0110685 0.0478331 4.79357e-19)
(-0.000748079 0.0019519 3.87462e-19)
(-0.000659847 0.000685306 -5.83714e-21)
(0.0140279 -0.000220836 3.02802e-19)
(0.0006095 0.000492884 1.03483e-19)
(-0.110781 -0.00309555 -3.37325e-19)
(1.30707e-05 6.18713e-05 -1.06979e-19)
(0.000436207 0.00067713 3.0471e-19)
(0.00060378 0.000812858 -8.7669e-20)
(0.000930719 -0.00122218 -1.11468e-18)
(-0.000855489 0.00925817 -8.31855e-19)
(-0.0147494 0.030663 -1.42695e-19)
(-0.00417611 -0.00087225 8.76364e-19)
(0.00294122 -0.00870225 9.04171e-21)
(0.00301783 -0.00348991 -9.15066e-19)
(-0.0671481 -0.0477974 3.3166e-18)
(0.0257458 0.00701815 -4.9305e-19)
(0.000547279 0.000783622 -8.75463e-20)
(-0.0292417 0.0439839 -6.55501e-18)
(0.00108351 -0.00417956 -6.70136e-18)
(0.00441378 0.00099524 8.30856e-19)
(-0.17056 0.176881 5.14524e-18)
(9.00736e-05 7.34596e-05 -2.54713e-19)
(0.028543 0.00703713 2.99509e-19)
(-0.0335206 -0.0682701 -2.23137e-18)
(-0.00031157 0.000131374 6.95867e-20)
(-0.0379197 -0.00183714 -5.17428e-18)
(-0.000224994 5.9358e-05 -8.38169e-20)
(-0.000293402 -0.00116471 1.74381e-19)
(-0.000787374 -0.0112372 1.7413e-18)
(0.00251991 -0.00188854 1.8682e-20)
(-0.000146173 2.20524e-05 -2.99743e-19)
(-0.00582288 -0.0679577 -1.70679e-18)
(-0.0372777 -0.00740124 1.67115e-17)
(0.153878 0.122848 3.55553e-20)
(7.43888e-05 0.000160191 -5.11015e-19)
(0.000877388 -0.000307203 -6.19958e-18)
(-0.000547371 -0.00742638 -1.26847e-18)
(-0.13177 -0.0533901 -2.15736e-18)
(-0.0245726 -0.230281 1.59936e-17)
(0.000528764 0.000761745 -5.69485e-19)
(0.000498147 0.000724216 1.43761e-19)
(5.91304e-05 0.000158439 5.80708e-19)
(0.00672403 -0.0184616 -8.63019e-18)
(0.0177335 -0.00252117 1.51256e-18)
(-0.000233673 0.000397016 -2.0734e-19)
(0.000325985 -6.84537e-05 3.21856e-20)
(-0.00018956 0.000258341 2.49508e-19)
(-0.000145617 0.00029791 1.36786e-21)
(-0.000930359 -0.00869474 1.5087e-19)
(0.00364543 -0.00130601 9.51483e-19)
(-2.63675e-05 2.4166e-05 -1.38823e-20)
(-0.00473061 -0.00128293 -7.15622e-18)
(-0.000311621 0.000125159 7.94513e-20)
(-0.000288112 0.000792084 -1.22233e-19)
(0.00122524 0.000256776 2.77997e-18)
(0.045444 0.0743969 3.19134e-17)
(-0.00043838 -0.000348254 -7.37068e-20)
(0.00113169 -0.000689135 1.68794e-18)
(-0.00230755 0.00163074 5.1015e-21)
(0.000206829 -0.00181413 8.42081e-18)
(-0.0105159 -0.010966 -1.715e-18)
(-0.0325345 0.0360245 1.7131e-18)
(0.00836356 -0.0245984 -3.05068e-20)
(0.0708637 0.0581097 1.7212e-18)
(0.00100127 0.000243767 3.10946e-19)
(-0.0510213 -0.0399067 2.3225e-18)
(-0.0279339 0.0148852 -9.90698e-18)
(0.0423695 0.219001 -4.94434e-18)
(-0.0468543 -0.00423626 -6.85499e-18)
(-0.000396215 0.000524558 9.22906e-20)
(-0.000309376 0.000311701 -8.2622e-21)
(0.00379747 -0.00968358 3.6951e-18)
(0.000390396 -7.47195e-05 1.35395e-18)
(0.0364532 0.06682 5.64815e-18)
(0.00076608 -0.00145601 4.68573e-20)
(0.00770915 -0.272283 2.5926e-17)
(0.00286105 6.95957e-05 -1.09966e-18)
(-0.00774462 0.0363169 -8.84308e-19)
(0.0555472 0.0565 1.0096e-18)
(0.000779234 -0.00106091 -2.19837e-18)
(0.268772 0.0261101 9.41031e-18)
(-0.000479524 0.000330556 4.52126e-20)
(0.00321799 0.00146953 9.5269e-18)
(-0.000505808 6.39551e-05 6.671e-20)
(-0.00510365 -0.000381139 1.12426e-19)
(-0.00688618 0.034209 5.35672e-19)
(0.00220557 -0.00178005 -1.0849e-19)
(0.0123296 0.0297492 -2.9319e-18)
(0.000294553 4.64329e-05 -1.11708e-21)
(0.000170253 4.11499e-06 -1.44729e-18)
(-0.000325528 0.000367788 -2.48416e-19)
(-0.0134886 0.0290913 -1.00533e-18)
(0.000743606 -0.0100664 -4.21707e-20)
(-0.000338492 -0.000718044 -2.3273e-19)
(-0.00400015 0.016423 -5.22142e-18)
(-0.00327877 -0.0107877 1.47446e-18)
(-0.0191782 0.287503 2.82244e-17)
(-0.00645892 0.0658557 2.56946e-18)
(-0.0353321 0.00256065 2.01718e-18)
(-0.105995 0.173631 -5.24352e-18)
(-0.000472463 -0.000343136 1.33226e-19)
(-0.0321399 0.00385562 1.34231e-18)
(0.000621591 8.07125e-05 2.47499e-21)
(-0.353678 -0.105199 -8.9956e-18)
(-0.0281682 -0.0403518 4.41027e-19)
(-0.00586044 -0.000938145 -3.8073e-19)
(0.00480827 0.00606335 -8.95627e-21)
(0.000598066 2.01701e-05 -5.76003e-20)
(0.00142844 -0.00400482 2.81262e-18)
(0.000769676 -0.00100124 -6.95588e-18)
(0.00206485 -0.00195709 5.25624e-20)
(-0.000436317 7.44414e-07 -5.97087e-20)
(0.000162281 -1.19682e-05 -6.43444e-19)
(-0.0113857 0.0630749 2.30992e-18)
(0.000107519 0.000124349 -1.26113e-18)
(-0.00050112 0.00295323 -5.86365e-18)
(0.000404793 0.000648099 -7.92938e-19)
(-0.00036131 -0.000770954 2.79693e-19)
(0.00068355 -7.96086e-05 4.69703e-21)
(-0.0303846 -0.109312 -6.98224e-19)
(-0.046348 0.0707878 1.19214e-20)
(0.247377 0.0907238 5.51262e-18)
(-0.0098029 0.00183085 -7.71733e-18)
(0.00339348 -0.00136996 8.75645e-19)
(-0.0904897 0.0399084 -2.38696e-18)
(-0.0175714 0.014163 -4.46371e-18)
(-0.00104101 0.000663152 2.52689e-21)
(-0.144672 0.00370074 -7.22445e-19)
(0.000114378 -2.26858e-05 2.29423e-18)
(0.00993839 0.00358538 6.70082e-18)
(0.000396708 -3.48543e-05 -1.48709e-18)
(-0.043827 0.0608239 -2.57416e-18)
(-0.000154745 0.00025379 1.10369e-20)
(-0.00326714 -0.0087748 -3.98077e-20)
(0.000480848 -8.4197e-05 3.65594e-18)
(-0.0393845 0.222176 -3.45909e-17)
(0.0018888 -0.00484313 7.73806e-19)
(0.0401784 0.0781334 -5.76254e-18)
(-9.84637e-05 -0.000246604 -1.18564e-20)
(0.00274783 -0.0045197 -7.01535e-18)
(8.13771e-05 0.000750378 -4.2571e-19)
(0.000461559 4.25728e-06 6.17289e-21)
(0.0284016 0.0356794 3.11309e-19)
(0.0647593 0.0888091 9.96605e-19)
(0.000410721 0.000962088 7.81272e-20)
(-0.0416881 -0.0173322 -1.47959e-18)
(0.000189946 -6.7142e-06 2.39022e-18)
(-0.00373873 -0.00065335 -1.39202e-19)
(0.000468901 2.62434e-05 5.4657e-21)
(0.0258191 0.0403814 9.58409e-18)
(0.000118393 0.00014053 9.53949e-19)
(0.0070093 -0.00442882 -4.2219e-19)
(0.000905786 -0.00151493 -9.21432e-21)
(0.000226257 0.000903239 3.31214e-21)
(-0.0360452 0.0290813 -5.2647e-18)
(0.000573796 3.36659e-05 -5.2764e-22)
(-0.0351514 -0.00630625 -3.9208e-18)
(-0.000957699 -5.01794e-05 6.02089e-20)
(-0.00035202 0.000110657 -3.9186e-20)
(-0.275295 0.00205122 7.42023e-19)
(-0.000340478 0.00335255 -4.08717e-18)
(0.00050006 0.000735493 5.06443e-19)
(-0.05328 -0.00232334 3.23837e-19)
(0.0130537 0.0283181 4.22065e-18)
(0.113864 -0.0356189 -1.52589e-19)
(-0.02983 -0.075383 -4.816e-18)
(-0.000503978 0.000292587 -5.65084e-20)
(0.00991556 0.00297496 3.93167e-19)
(0.051498 0.0704797 -1.13483e-17)
(0.0239223 0.0188427 1.61725e-19)
(-0.00484463 0.00357564 -7.70944e-19)
(-8.3908e-05 0.000682226 7.6343e-20)
(-0.00549185 -0.00968338 -2.81248e-19)
(-0.00104419 -5.22628e-05 1.28602e-19)
(-0.00037091 0.000356932 -2.04017e-19)
(-0.000674404 0.000545125 8.12748e-22)
(-0.0125354 -0.0137261 -9.32667e-20)
(0.0022311 0.000726164 -1.49838e-19)
(-0.163267 0.21246 3.27129e-19)
(0.00134027 -0.00503386 -1.34286e-19)
(0.171808 -0.0765718 1.01823e-18)
(-0.0515206 -0.246706 1.08441e-18)
(-0.0474269 -0.00491408 -6.91791e-19)
(0.00755795 -0.00374864 -1.76272e-19)
(-0.0499198 -0.0122825 -1.12449e-18)
(-0.0148064 0.0107684 -1.67736e-17)
(-0.00156849 0.00109909 -9.93328e-21)
(-0.0191081 0.0116296 7.72565e-19)
(-0.000657418 0.000483282 -1.72028e-21)
(-0.000344455 0.000116538 -1.40933e-19)
(-0.000699474 -0.000170141 1.26265e-19)
(0.000768935 -7.02037e-05 1.78253e-19)
(-0.000282476 -0.00849498 1.05624e-18)
(-8.12848e-05 3.63907e-05 1.45566e-19)
(-0.0310899 0.0044552 -3.80051e-18)
(0.000771052 -0.0012929 9.67042e-18)
(-0.000526858 7.4887e-06 -3.70367e-20)
(-0.008865 0.0110086 7.22319e-19)
(-0.000159557 -0.000308579 9.50164e-20)
(0.0386507 0.106947 -5.60428e-18)
(-0.00265489 0.000946572 -9.77301e-21)
(-0.00028372 0.000317508 5.10904e-20)
(-0.0369366 -0.00712786 -5.01457e-18)
(-0.00878418 -0.008763 1.32616e-18)
(0.000545208 0.144684 7.77649e-18)
(0.000587035 -7.54997e-05 2.27109e-19)
(0.00425663 0.0021449 -2.65171e-20)
(-0.0002671 0.000587819 -5.82637e-21)
(0.00075812 -0.00020695 -3.76895e-18)
(0.00155139 -0.00179579 1.58757e-18)
(-0.000213155 0.000284766 1.01421e-19)
(-0.0511629 -0.000126948 -3.62512e-19)
(0.00586019 0.00158354 -2.69863e-19)
(-0.0417146 -0.213991 -1.54178e-17)
(0.00251764 0.15246 -2.71091e-18)
(-0.0212332 0.00743834 -4.14328e-19)
(-0.0365177 0.000909159 -1.10283e-17)
(0.000909193 -0.00027729 -3.60105e-19)
(-0.000503732 -2.56198e-05 -6.76822e-20)
(0.000212011 0.000764718 3.51238e-19)
(-0.0385243 0.00759445 -3.01e-19)
(0.163514 0.117937 7.37028e-19)
(0.00313758 0.000285442 6.1063e-19)
(-0.0472118 0.00145264 -4.4774e-19)
(0.0431665 0.0232904 3.10835e-18)
(-0.000362203 0.000122383 -3.72455e-20)
(-0.000282931 0.000444857 -3.11065e-19)
(4.52958e-05 0.000411471 7.98806e-20)
(-0.00381482 0.0276105 7.29949e-18)
(0.0266475 0.112544 -2.39824e-18)
(0.00229653 -0.00538321 5.86658e-19)
(0.000747657 -0.000176025 7.46282e-19)
(0.00118275 -0.00067583 3.62976e-18)
(0.0108212 0.00307833 -1.11e-17)
(0.0011709 -0.00126199 7.31584e-19)
(-0.0349824 -0.0128787 1.10016e-18)
(0.000711295 -0.00124127 -5.33241e-18)
(0.000632926 0.000772032 1.92035e-19)
(0.000986999 -4.99567e-05 -2.33355e-18)
(-0.000495628 -1.90986e-05 1.72453e-20)
(0.00163877 -0.00172998 -6.7741e-19)
(0.004187 -0.00214294 7.77306e-19)
(0.027915 0.00756417 1.39902e-18)
(0.000150812 0.00152093 -4.68245e-21)
(-0.0040657 -0.00387721 1.32079e-19)
(-0.049469 0.000380438 -2.12708e-18)
(-0.000166945 0.000897044 4.97203e-23)
(0.0382096 -0.0491696 6.36889e-18)
(0.000102481 0.000676492 -3.10234e-20)
(0.00804342 -0.0131021 1.37363e-18)
(0.00261709 -0.00041084 4.38653e-20)
(0.0232395 0.0190496 -5.0979e-18)
(-0.000609961 -0.000147672 2.81833e-20)
(0.00299537 0.000747301 -1.22511e-17)
(-0.0392109 0.0644833 -8.52994e-19)
(-0.000955091 -2.62522e-05 4.05185e-21)
(0.000398859 -0.000111961 -1.28137e-18)
(0.000464617 0.00150825 7.66359e-20)
(-7.52362e-05 2.63196e-05 1.41698e-20)
(0.000334646 -6.12206e-06 -6.1519e-19)
(0.00044711 -0.000131895 2.40009e-18)
(-0.014327 0.0167742 -3.94391e-19)
(0.011842 0.00309221 -1.38185e-19)
(-0.0202921 -0.104989 -1.39452e-19)
(-0.0370714 -0.00927643 4.16996e-19)
(-0.000542427 0.000220444 -8.00037e-21)
(0.0308634 0.0106834 -5.94056e-18)
(0.000756919 -0.00128249 2.57379e-18)
(0.000965663 -0.00125128 -2.24562e-18)
(-0.0444261 -0.0130706 1.53164e-18)
(0.000250366 0.000874858 7.70894e-20)
(0.0029098 0.00170781 1.49907e-17)
(0.0935072 0.0933016 -4.90277e-19)
(-0.000384082 -0.000497047 -3.22e-20)
(-0.00877404 -0.00752016 -2.48166e-18)
(0.0192946 -0.0363489 9.60533e-19)
(0.000640741 -0.00126819 -4.87204e-18)
(-0.000346224 0.000224563 3.01984e-20)
(-0.000406625 0.000340518 1.46519e-19)
(-0.000382752 0.000292051 -8.45408e-20)
(-0.0114019 0.00453319 -2.16625e-18)
(0.000883701 -5.539e-05 -1.40417e-18)
(-0.00318363 0.000767613 1.08356e-19)
(0.00107444 -0.000964909 7.78348e-18)
(-0.000217261 0.000268282 -1.23322e-19)
(-0.000371567 0.000387721 1.0224e-19)
(-0.0269851 -0.0397797 -1.08107e-19)
(0.0853091 0.0898974 1.86057e-18)
(-0.0376963 0.0169761 -3.33044e-18)
(0.158413 0.0965854 -7.15531e-19)
(-0.00801208 0.0315204 3.04794e-18)
(-0.0263376 -0.00135073 -3.99189e-18)
(0.000447426 -0.00016455 5.33269e-19)
(-0.00327457 -0.00236607 1.59578e-19)
(-0.0573702 0.0474946 -4.25093e-18)
(-0.00548884 -0.00136215 -5.08474e-20)
(0.0112693 0.0391721 6.65895e-20)
(-3.39036e-05 2.96979e-05 -1.67353e-19)
(-0.000785732 -0.000159264 -1.14128e-19)
(0.00059383 -3.3465e-05 -4.4485e-18)
(-0.000324559 0.00166913 6.27992e-20)
(-0.0302248 0.0434233 -1.20773e-18)
(-0.000356538 0.000195203 -2.17588e-20)
(-0.00135848 0.00741009 -2.6039e-20)
(-0.000264789 0.000787106 3.14984e-19)
(-0.0503482 0.0033151 -1.46478e-18)
(0.000101764 0.000747868 -5.31009e-20)
(0.000958369 -0.0013357 -1.5071e-18)
(0.00305186 -0.00177226 1.13502e-19)
(-0.0120112 0.00238456 1.70334e-18)
(0.00588137 0.00259521 -1.41961e-18)