/*--------------------------------*- C++ -*----------------------------------*\
| =========                 |                                                 |
| \\      /  F ield         | OpenFOAM: The Open Source CFD Toolbox           |
|  \\    /   O peration     | Version:  v2012                                 |
|   \\  /    A nd           | Website:  www.openfoam.com                      |
|    \\/     M anipulation  |                                                 |
\*---------------------------------------------------------------------------*/
FoamFile
{
    version     2.0;
    format      ascii;
    class       volScalarField;
    location    "650";
    object      nut;
}
// * * * * * * * * * * * * * * * * * * * * * * * * * * * * * * * * * * * * * //

dimensions      [0 2 -1 0 0 0 0];


internalField   nonuniform List<scalar> 
13851
(
0.000691344
0.00165378
0.00176294
0.00403624
0.0067217
0.00130441
0.00299456
0.00675683
0.0131134
0.00671543
0.000381416
0.0067229
0.00301242
0.0051493
0.00121565
0.00151019
0.00231847
0.00423659
0.000701514
0.000789978
0.00104892
0.00077902
0.00123694
0.00672545
0.0023928
0.00222438
0.000645036
0.00218096
0.0126733
0.00673929
0.0096419
0.00351806
0.000904874
0.0140215
0.000508848
0.0126083
0.00672578
0.00145275
0.0138397
0.00296046
0.0142421
0.0127529
0.000195852
0.00016841
0.0127704
0.00587189
0.00674458
0.00157899
0.00144536
0.00286203
0.00322077
0.00285427
0.00151191
0.00209551
0.00471771
0.00278202
0.000764171
0.0146786
0.000394033
0.00496665
0.00672291
0.000998972
0.00672456
0.00138212
5.24911e-05
4.3707e-05
0.00300714
7.73438e-05
0.0029312
0.00620298
0.00941443
0.000941507
0.00374658
0.00365368
0.00186272
0.00108351
0.00372618
0.00673425
0.0020581
0.00672947
0.0025566
0.000523493
0.000504918
0.00597517
0.00537249
0.00979532
0.000820751
0.00290751
0.00633075
0.00954277
0.00200862
0.00307015
0.000308837
0.00910733
0.0137576
6.927e-05
0.00632712
0.00148537
0.00350148
0.000201803
0.00144576
0.000159213
0.000136952
0.00325896
0.00639958
0.000727788
0.00555237
0.00984306
0.00314547
0.00451509
0.000467715
0.00613091
0.000436402
0.000499978
0.000985862
0.00220181
0.00672693
0.00674751
0.00340613
0.00661609
0.000105395
0.00615541
0.00245311
0.0120054
0.000508178
5.0051e-05
0.00579724
0.000304015
0.0144851
0.0010277
0.000780447
0.000795945
0.000744319
0.0141102
0.000433856
0.0136808
8.86477e-05
0.00966628
0.000212106
0.00122337
0.000442607
0.00149062
0.00608629
5.89039e-05
0.00318596
0.00126928
0.00673353
0.009173
0.0111337
0.000292097
0.00145338
0.000420263
0.000500054
0.000636893
0.00194508
0.00418338
0.00672284
0.0136186
0.00123182
0.00272712
0.00672498
0.0126643
0.000826524
0.00147185
0.00541094
0.0132597
0.0132739
0.0046446
0.00049869
0.00949513
0.00672306
0.00672563
0.000688598
0.00672227
0.0141595
0.000727765
0.0011997
0.00672667
0.00193206
0.0013667
0.000613675
9.34366e-05
0.000540542
0.0011953
0.000213871
0.0114022
0.000912794
0.000331945
0.00235837
0.0067422
0.00128167
0.0012777
0.00312864
0.00121678
0.00115497
0.00149835
0.000804097
0.00380056
0.00298327
8.89249e-05
0.000443428
0.0144577
0.0147208
0.00138867
5.57796e-05
0.0139342
0.000924636
0.00159268
0.0132682
0.00121295
0.00151633
0.00334033
0.000475728
0.00672516
0.000555815
0.000977047
0.00300458
0.000712231
0.00322875
3.30239e-05
0.0067257
0.000732824
0.00428458
0.0139343
0.000368204
0.0014881
0.00672571
6.66163e-05
0.00672479
0.000500534
0.00411409
0.000366771
0.0012619
0.00672397
0.0146152
0.00674044
0.000782092
0.0146806
0.000199408
0.00672522
0.000242949
0.00568726
0.0125399
0.00152415
0.00106254
4.99566e-05
0.000701852
0.00186721
8.31001e-05
0.000466622
0.00340316
0.000586299
0.00673408
0.00144658
0.00147078
0.0125205
0.00494407
0.00674074
5.13694e-05
0.00652704
0.000897132
0.000695199
0.00155919
0.000886858
0.000513826
0.00463337
0.00014714
0.00146535
0.0013523
0.00672402
0.00321582
0.00036587
0.0135505
0.00178224
0.00106826
0.00563089
0.000577757
0.000650345
0.000960235
0.000902834
0.0136664
0.00328976
0.00128148
0.0014469
0.0021235
0.00591756
0.00672272
0.000859497
0.000378269
0.00674415
0.0067251
0.00672518
0.00672117
0.00118606
0.00672269
0.0132975
0.00107626
0.00412346
0.0125341
0.0112772
0.00241976
0.000710847
0.00318555
0.00133394
0.00215321
0.00101838
0.00531817
0.00962864
0.000738911
0.00672096
0.0102196
0.00672302
0.000636549
0.00480647
0.000925136
0.00270442
0.00110078
0.000363232
0.0108102
0.000412942
0.000135437
0.0141878
0.0134279
0.00217555
0.00276998
0.00457767
0.000364272
2.70196e-05
2.81307e-05
0.000763056
0.000726436
0.000386506
0.0034209
0.000115676
0.0067203
0.00673144
0.00082879
0.0102776
2.80519e-05
0.00592124
0.0136117
0.000368072
0.000748851
0.00271571
0.00389209
0.000621283
0.00149157
0.00105361
0.00135782
0.0123759
0.00217415
0.000600483
0.00138251
0.000966245
0.000352078
0.00618496
0.00367468
0.000287462
0.000203646
0.000608837
0.000486568
0.0123878
0.00103407
0.0145548
0.000738655
0.00675617
0.00131456
0.000830283
0.00494958
0.000864145
0.00241302
0.00103663
0.000941707
0.000303044
0.00447928
0.00225717
0.000410721
0.00045096
0.0010864
0.00532433
0.000988657
0.0148067
0.00149571
0.00214989
0.000626573
0.000228376
0.00390732
0.00140552
0.000347026
0.00188901
0.00547603
0.00103702
0.00999453
0.0038157
0.00124297
0.00210213
0.00150014
0.000199641
0.00173559
0.00851061
0.00103626
0.00200321
7.62671e-05
0.00055242
0.000815103
0.00352805
0.00374039
0.000269109
0.00469147
0.00034785
0.000864431
0.00223297
0.00592951
0.000229829
0.0104308
0.00171541
0.00136267
0.000559184
0.00084857
0.00204912
0.00673927
0.00263484
0.00030897
0.00124469
0.000410537
0.00257945
0.00411594
0.00672254
0.00334146
0.000758292
0.00614897
0.00173745
0.00124617
0.00672508
0.00962214
0.000664615
0.00093338
0.00207913
0.0021003
0.00242914
0.000738217
0.00378819
0.00245942
0.00662417
0.0100509
0.000800226
0.000774693
0.00672439
0.00672257
0.00143837
0.000626481
0.0019909
0.00492136
0.00208982
0.000109674
0.00219656
0.0090717
0.00672275
0.00201461
0.0127031
0.000267779
0.00672888
0.0067233
0.00202024
0.0036334
0.000245536
0.00865182
0.00112564
1.47089e-05
0.0015172
0.00672373
0.0141856
0.00065149
0.000228513
0.00351274
0.0129941
0.000242508
0.000173618
0.00302471
0.000759703
0.000307962
0.00163906
0.0140368
0.000771424
0.000826469
0.000895661
0.000417101
0.00469531
0.0125479
0.00199163
0.000869436
0.00094663
0.00108789
0.000252843
0.000683664
0.00672151
0.00205486
0.0141007
0.00727442
0.00120949
0.00748073
0.00701997
0.000601128
0.000415923
0.00672456
0.000221574
0.00673174
0.00631069
0.000337579
0.0144766
0.00186502
0.00145514
0.000138914
0.000699945
0.00604354
0.00813723
0.00674039
0.0144289
0.0002894
0.00673044
0.00240488
0.000359204
0.00138943
0.00674308
0.00408348
0.000836742
0.00677783
0.0125121
0.000726251
0.00070128
0.00102203
0.00664934
0.00490572
0.00678366
0.000566728
0.00289517
0.00546689
0.00560886
0.0147959
0.000839641
0.0019291
0.00652442
0.00179018
0.014489
0.0138108
0.00655081
0.00394538
0.00568198
0.00262171
0.000814892
0.00253752
0.00673965
0.00101323
0.0127391
0.000273289
0.0124073
0.00192905
0.00650515
0.012757
0.0067242
0.000348591
0.00193094
0.00181589
0.00107016
0.0115629
0.0047864
0.00137579
0.00242918
0.00284967
0.000569684
0.0127371
0.00733495
0.00270958
0.00490764
0.000135551
0.0126098
0.000965584
0.00166583
0.000404236
0.00234328
0.00147428
0.00403712
0.00860425
9.5758e-05
0.0143957
0.000995548
0.0124532
0.00225058
0.000405754
0.000504569
0.00672338
0.000603453
0.0103134
0.000496327
0.00117535
0.00332697
1.43341e-05
0.000222813
0.00298344
0.00415537
0.00672296
0.000476949
0.000660091
0.00672273
0.014187
0.00672287
0.00108427
0.000874729
0.00222099
0.00317695
0.00528481
0.000331441
0.00375676
0.000784661
0.0134097
0.000793059
0.00672597
0.00677127
0.000683103
0.00212318
0.000491852
0.00180601
0.00025094
0.000485999
0.00672411
0.00339903
0.0067255
0.00211286
0.00322394
0.0127147
0.00036554
0.00230347
0.000130135
0.000176344
0.0124647
0.00566748
0.0088019
0.000383271
0.00101381
0.00160851
0.000217612
0.00675988
0.000452309
0.00402167
0.0125142
0.00373426
0.0026494
7.35861e-05
0.0091924
0.00672569
0.00672552
0.00201809
0.00229708
0.00444708
0.00205741
0.00059224
0.00224333
0.00495779
0.000342464
0.000572994
0.000232593
0.00673363
0.00128928
0.00016461
0.0020313
0.00136158
0.00121614
0.000229852
0.000470297
0.00155972
0.000960676
0.00097859
0.000113889
6.53546e-05
0.000710459
0.00904255
0.00297121
0.00151545
0.00875125
0.000292678
0.00640679
0.000708615
0.004597
0.00141125
0.000604817
0.000784333
0.00672883
0.00672768
0.00210702
0.00359813
0.00201121
0.0144673
0.00672625
0.00533587
7.65695e-05
0.00283481
0.00043399
0.00114223
0.00184653
0.00402184
0.000228925
0.00031345
0.000955555
0.00231027
0.0003137
0.00209432
0.00101203
0.00085701
0.000489966
0.00419626
0.00672535
0.000936065
0.00530312
0.012815
0.0067209
0.000676833
0.0135634
0.000394582
0.014029
0.00436048
0.00103139
0.000216825
0.000383757
0.00672377
0.00336295
0.00673259
0.0064018
0.00672234
0.000582282
0.000437146
0.000148481
0.00182295
0.00125944
0.0130999
0.00672632
0.0047215
0.000520226
0.00672603
0.00672366
0.0130465
0.00125618
0.00474544
0.00992432
0.00110493
0.000811467
0.00677609
0.014224
0.000869368
0.00188984
0.000439368
0.00672378
0.00145365
0.00560826
0.00176038
0.00403445
0.000869248
0.000850308
0.000320118
0.0133898
0.000335775
0.00059135
0.0125752
0.00673144
0.0126086
0.00672401
0.0024083
0.00179901
0.00122233
0.00102346
0.000337357
0.000793022
0.00672464
0.00672631
0.000589902
0.00223183
0.00672488
0.00211024
0.00024548
0.00672097
0.000163929
0.000189649
0.00330298
0.000353735
0.00839847
0.000205304
0.00672366
0.000291093
0.00672635
0.00137236
0.00796247
0.0123412
0.00989345
0.0123103
0.00253429
0.00276708
0.000132464
0.00130037
0.00606776
0.000952878
0.000847018
0.00590429
0.0020869
0.0012845
0.00444722
0.00673971
0.000358014
0.000746434
0.00203639
0.00672526
0.0010206
0.000382841
0.0145903
0.00198301
0.00672319
0.00283378
0.00146359
0.000988098
0.00672429
0.0145998
0.00675284
0.00401508
0.00672564
0.000201665
0.00109143
0.000115843
0.000888528
0.00379012
0.00165117
0.00672096
0.000778216
0.00142856
0.00716123
0.00266329
0.00432374
0.0140758
0.000874936
0.0067204
0.00264828
0.00777316
0.00125565
0.00152597
0.00352711
0.00288489
0.00436946
0.000694071
0.00672387
0.00672093
0.00381623
0.00111217
0.00672327
0.00196609
0.0145412
7.70319e-05
0.0108709
0.00673883
0.00975771
0.00672444
0.00672087
0.00209705
0.00672383
0.00672517
0.0105536
0.00890789
0.00321057
0.00672282
0.000807219
0.00611079
0.00346836
0.000299738
0.00683686
0.0142253
0.00191798
0.00153206
0.00672347
0.00107331
8.955e-05
0.00581482
0.00672424
0.000233602
0.00405904
0.000889035
0.000517524
0.00111014
0.00672434
0.000737536
0.00134277
0.00275658
0.00118734
0.0005976
0.000722324
0.00672488
0.00361101
0.00355535
0.00640597
0.00101291
0.00533628
0.000964289
4.94494e-05
0.00247273
0.00015281
0.000838838
0.00672064
0.0124508
0.00135568
0.00672035
0.00286892
0.00152153
0.0143526
0.000602861
0.00672994
0.000716174
0.00537393
0.00147065
0.000488603
0.00102071
0.00113301
0.0147815
0.00672281
0.000819174
0.00064335
0.00083234
3.00431e-05
0.00155952
0.000498396
0.00203048
0.0146832
0.00416374
0.00575865
0.00109169
0.00955983
0.00280688
0.00359785
0.00119264
0.00378439
0.00231931
0.00672568
0.00210587
0.00672371
0.0142415
0.000563927
0.000428452
0.000429713
0.000973434
0.00673695
0.00258342
0.000826395
0.0025196
0.000753408
0.012715
0.000860666
0.00119538
0.000326468
0.00999524
0.00137356
0.0108984
0.0067296
0.000417764
0.00135059
0.00407764
0.000348736
0.00672391
0.0067296
0.000132553
0.00352611
0.000258077
0.00212701
0.00050806
0.000514216
0.000643763
0.000490166
0.00369065
0.0136854
0.000645026
0.00672497
0.000735896
0.001532
0.0113079
0.00113245
0.000144016
0.000940628
0.00153533
0.000249054
0.00306492
0.0121008
0.000869148
0.00618802
0.000584848
0.00672624
0.00678231
0.000720546
0.00403831
0.00347465
0.00032372
0.00672441
0.000797327
0.000259442
0.00561701
0.0117163
0.00329246
0.000936622
0.00187876
0.011978
0.000675368
0.00672219
0.00363198
0.00060954
0.00617817
0.00673748
0.00187322
0.00205779
0.0135247
0.00848973
0.00169108
0.0133616
0.00159977
0.00502535
6.55966e-05
0.0067271
0.000297543
0.00607538
0.00672118
0.00109636
0.0022491
0.01338
0.00375256
0.000951981
0.00450952
0.00909201
0.000383036
0.00373071
0.00240477
0.000449796
0.00640482
0.00678
0.000501463
0.00201535
0.000954102
0.00674267
0.000490396
0.000920512
0.000648844
0.000455229
0.00677927
0.00673853
0.00269026
0.000741561
0.00214885
0.0145345
0.00123729
0.00672337
0.00585957
0.00673903
0.000964858
0.00104867
0.0123119
0.0131745
0.000343965
0.00672381
0.000247785
0.00366389
0.00339783
0.00756615
0.000321212
0.00511802
0.0128126
0.00838923
0.00180451
0.00128517
0.011334
0.00117348
0.00031414
0.000114579
0.000176462
0.00216511
5.8598e-05
0.00473686
0.00789862
0.00144627
0.00672962
0.000876855
0.000270138
0.000410239
0.00114979
0.00672281
0.00174518
0.00101529
0.00203267
3.51584e-05
0.00672372
0.00843105
0.0040094
0.00441684
0.00135392
0.00204167
0.00672333
0.0123054
0.000712266
0.0139507
0.00946238
0.00672373
0.00101089
0.000912861
0.0019969
0.000954914
0.0012069
0.00672534
0.00141347
0.000559705
0.00663069
0.00109521
0.00373423
0.00107926
0.00141672
0.000120873
0.000720522
0.000648487
0.00572955
0.000506261
0.0106286
0.00078906
0.00848921
0.00867906
0.0133572
0.00886417
0.005698
0.00673268
0.0042393
0.000963748
0.00185684
0.000674383
0.00195668
0.00418578
0.00672356
0.00630979
0.00103701
0.00673359
0.00163733
0.00108541
0.00602383
0.0012494
0.00672572
0.00672387
0.004192
0.00672305
0.000267628
0.000980602
0.000333551
0.00857343
0.00672901
0.00572458
0.0144495
0.0140123
0.00302567
0.00357443
0.000138862
0.00504623
0.00672569
0.000193255
0.0014527
0.00672505
0.00269914
0.00526602
0.00242247
0.000714668
0.000324543
0.00361599
0.00438792
0.000526794
0.000904251
0.00672586
0.00604569
0.00433509
0.00104621
0.00672369
0.00331101
0.00126718
7.84584e-05
0.00245891
0.000262161
0.00954734
0.00116838
0.0139017
0.00430913
0.00389646
0.000196233
0.00672594
0.00125315
0.0020544
0.00015648
0.00221693
0.00500935
0.00672174
0.00548123
0.00218092
0.000421635
0.000981343
0.00293674
0.00672463
9.03012e-05
0.00676073
0.00808547
0.00672373
0.000966378
0.00180043
0.00675952
0.000592532
0.00672364
0.00087675
0.00672368
0.00222208
0.000229599
0.00297936
0.00132201
0.00672586
0.00165793
8.31715e-05
0.00113363
0.000242173
0.000281704
0.000450991
0.00154274
0.00106447
0.00115734
0.00589301
0.00329729
0.00209685
0.00115411
0.00672227
0.000549492
0.00672734
0.000961495
0.00672634
0.000227362
0.000984528
0.00673725
0.00254826
0.00128064
0.00672353
0.00131818
0.00672
0.000165631
0.0101515
0.000873339
0.00370308
0.00672185
0.00672572
0.000147218
0.0067249
0.00672499
0.00199668
0.00112855
0.000945132
0.000234698
0.00282503
0.000480364
0.00625676
0.00672357
0.0067247
0.00672582
0.00025242
0.00629129
0.00101724
0.00097667
0.00672699
0.00672217
0.0121134
0.00672508
0.000644876
0.00240721
0.0129141
0.000654717
0.000128474
0.000309638
0.000413275
4.87908e-05
0.00286002
0.000389618
0.00086668
0.00630879
0.0059928
0.00101606
0.00118269
0.0044013
0.00034674
0.00672404
0.00157479
0.00041569
0.00322294
8.99955e-05
0.00270466
0.000132888
0.00714168
0.00501322
0.00672398
0.00179193
6.10047e-05
0.00343788
0.000595049
0.0001539
0.013095
0.00184557
0.00139108
0.00158542
0.000278822
0.0067261
0.00028272
0.00238519
0.00241548
0.00676107
0.00807543
0.00058591
0.000907131
0.0127194
0.00209187
0.00170437
0.00672375
0.00289392
0.00678933
0.000620978
0.00798572
0.000435242
0.00431149
0.00902789
0.00672389
0.000377571
0.000473944
0.0029403
0.000973375
0.00672411
0.0120877
0.00920787
0.00678253
0.000850956
0.00171819
0.000315938
0.000635336
0.00180685
0.000946496
0.00176959
0.000887695
0.0016286
0.00672375
0.00159911
8.05414e-05
0.00678293
0.0067239
0.000581276
0.000622479
0.00200128
0.00672588
0.00899872
0.00166255
0.000969753
0.00622809
0.000469371
0.000546811
0.00013804
0.00672411
0.0016409
0.000319457
0.000246153
0.000400555
0.00672358
0.00139089
0.00170253
0.0005275
0.006724
0.000272419
0.00173582
0.000306983
0.0126504
0.00209097
0.00322894
0.000508989
0.00530171
0.000352201
0.00672485
0.000929752
0.00161231
0.00103919
0.000502544
0.00162821
0.000316035
0.000344344
0.000886667
0.000997895
0.00673293
8.65579e-05
0.00179825
0.00042493
0.000515887
0.00086874
0.000484052
0.00672868
0.00513271
0.000274751
0.00297494
0.00174765
0.000989367
0.00518528
0.000344255
0.00176939
0.0126641
0.000186514
0.000310381
0.000612297
0.000949893
0.00672847
3.50205e-05
0.00678119
0.000474691
0.00164401
0.0123112
0.00060354
0.000242819
0.00672357
0.00388916
0.00672828
0.00147171
0.00070964
0.00446108
0.0117801
0.00288157
0.00672049
0.000537755
0.000148783
0.00672647
0.00886371
0.00672748
0.0010297
0.0017911
0.00215992
0.000799666
0.000972572
0.00432774
0.000494356
0.000506135
0.00109022
0.000420708
0.00672705
0.00454284
0.0122485
0.00672073
0.000766773
0.000764423
0.000377146
0.00793429
0.00672084
0.00143263
0.000468056
0.0105197
0.0067251
0.00672377
0.000756666
0.00597206
0.00672046
0.000390824
0.000411836
0.00034812
0.00058974
0.000763993
0.000881988
0.00672666
5.1679e-05
0.00672607
0.00422284
0.000769636
0.00673107
0.00221646
0.000412979
0.00672309
0.00355075
0.000659303
0.0113364
0.00362243
0.00489466
0.0067242
0.00672761
0.000692114
0.00672366
0.00598881
0.0097289
0.00672592
0.000995216
0.00141128
0.0116153
0.000339803
0.00679726
0.00077757
0.000428855
0.00672232
0.00383512
0.0067237
0.0016692
0.00672453
0.00103688
0.00107165
0.0067627
0.00676371
0.000909869
0.000933442
0.000805731
0.000157357
0.000427737
0.00117117
0.0132679
0.000242797
0.00223462
0.00140017
0.000224227
0.000491038
0.0010358
0.0020291
0.00778201
0.0041353
0.00424198
0.00182063
0.00402858
0.000632841
0.000234793
0.00677642
0.00381154
9.6496e-05
0.00672525
0.00235621
0.00672378
0.00673516
0.00260872
0.00390259
0.00342288
0.00672044
0.00294772
0.00672247
0.000153172
0.00215743
0.00101153
0.000177266
0.00350876
0.00988639
0.000769028
0.006725
0.00125257
0.0066497
0.00038706
0.00429412
0.0119955
0.00105633
0.000810587
5.736e-05
0.00851803
0.000558428
0.00097396
0.000631589
0.000318743
0.00379495
0.00228521
0.000111471
0.000616154
0.00346505
0.00674666
0.00650053
0.00279965
7.27414e-05
0.00698603
0.000557014
0.00410647
0.000862849
0.0010366
0.000832528
0.0101372
0.000736274
0.00672259
0.000316832
0.000535654
0.00145605
0.00672878
0.00672288
0.0138826
0.00672555
0.000602023
0.0135632
0.000651328
0.0047543
0.00032
0.00094444
0.00736179
0.00672416
0.00503871
0.00672466
0.000541167
0.00251965
0.0035855
0.00117104
0.0141405
0.00552016
0.00672438
0.00731869
0.00443783
0.00279021
0.00340492
0.0101756
0.00624675
0.000858685
0.00672413
0.00785244
0.0135119
0.000446409
0.000113958
0.000454369
0.00457137
0.00672388
0.0118411
0.00672244
0.0015166
0.00676624
0.00209239
0.00672423
0.00863229
0.00672561
0.00154857
0.00675329
0.000172256
0.000281905
0.00675588
0.000287936
0.00978658
0.00109778
0.00511912
0.00343346
0.000213177
0.000957172
0.000975441
0.000597059
0.00164616
0.00493367
0.00202604
0.000417626
0.00378977
0.00671863
0.00623032
0.000940955
0.000651978
0.000497642
0.000533124
0.0131054
0.00677513
0.00675312
0.000393415
0.00905734
0.000542351
0.000375283
0.000626622
0.00672638
0.00894461
0.00905634
0.00727433
0.00672418
0.00583275
0.0087719
0.000272803
7.61625e-05
0.0118659
0.00131731
0.000823854
0.000395588
0.000581779
0.00431882
0.000458673
0.000855155
0.00673231
0.00731426
0.00672436
0.000567609
0.00108987
0.000519904
1.98613e-05
0.000298149
0.00198934
0.00170844
0.000507772
0.00235145
0.0149369
0.000610715
0.00172374
0.000597416
0.000593372
0.000174044
0.00672341
0.000632193
0.000129289
0.00038853
0.00445802
0.000507356
0.000947349
0.000323166
0.0067922
0.000965298
0.00106222
0.000181859
0.00734446
0.00248537
0.00153205
0.00709544
0.000395082
0.00122577
0.00147182
0.00672331
0.000218763
0.0021729
0.0126837
0.00046347
0.0016148
0.00672456
8.57436e-05
0.000570035
0.000172225
0.00446649
0.00674322
0.00672495
0.000714679
0.00672432
0.0015303
0.00146522
0.00197609
0.000568809
0.00604415
0.000893331
0.00239063
0.00155063
0.00177578
0.00672567
0.00908388
0.00153078
0.00672679
3.79619e-05
0.000212722
0.000263359
0.00134789
0.000887396
0.00132389
8.11092e-05
0.00123309
0.00170997
0.00672424
0.00347773
0.00254758
0.00378965
0.00153027
0.00536066
0.00672423
0.000217645
0.00589751
0.000895526
0.00142114
0.000113718
0.00672777
0.000563679
0.000833368
0.0112586
0.00672598
0.00032961
2.63708e-05
0.0010359
6.06057e-05
0.00149159
0.0022024
0.00023424
0.000410385
0.00185207
0.0010513
0.000906268
0.00672464
0.00572284
0.000332362
0.00672452
0.00264842
0.000337173
0.00672577
6.87323e-05
0.00602589
0.0148139
0.00848787
0.0061754
0.0072782
0.010215
0.0026579
0.00672375
0.0102084
0.00675124
0.00675808
0.00672866
0.000190554
0.0134809
0.00400273
0.000472437
0.00458889
0.0014604
0.00033023
0.00552101
0.00672104
0.00362161
0.0148106
0.00672427
0.00672383
0.00851841
0.00151474
0.00307716
0.00672735
0.00904174
0.0100893
0.00421081
0.000875677
0.00672553
0.0118978
6.91909e-05
0.00350173
0.00358319
0.0024471
0.00823599
0.0066643
0.0046978
0.00672536
0.00672604
0.0136824
0.00551441
0.00015245
0.00102556
0.00266446
0.0020302
0.000386214
0.000191875
0.000643788
0.0095368
0.0118913
0.00672322
0.00172199
0.00156787
0.00156031
0.0123794
0.00673224
0.00433921
0.000437461
0.00137153
0.00132502
0.00672047
0.000387908
0.000612588
0.00382864
0.0067245
0.00043638
0.00249215
0.000891228
0.00184214
0.0140744
0.00134444
0.000158863
0.0022165
0.00463673
0.000990038
0.00089134
5.23233e-05
0.013424
0.0102672
0.006723
0.00419902
7.86823e-05
0.0143926
0.0025823
0.000602501
0.00073529
0.00333361
0.00884766
0.00672365
0.00108253
0.00857046
0.014808
0.000340805
0.0144794
0.000589881
0.000861464
0.00675682
0.013337
0.000619107
0.0037457
0.00675792
0.00832151
0.00673712
0.00672528
0.00112404
0.000365989
0.000357469
0.00377066
0.00976715
0.00172417
0.00578772
0.000530038
0.00787739
0.000143623
0.00436319
0.0122357
0.00104811
0.00171814
0.00188246
0.00672288
0.00051357
0.00672589
0.00136121
0.000157853
0.00228035
0.00673126
0.000384745
0.000839527
0.00675811
0.0079594
0.00077068
0.000630474
0.00677854
0.000151947
0.0067235
0.00024881
0.00175481
0.000168192
0.00112294
0.00912254
0.000222389
0.0144011
0.000361788
0.000561445
0.0067342
0.00891193
0.000155005
0.000431457
0.000104994
0.00672506
0.00451358
0.000374635
0.000457235
0.000986545
0.0107622
0.00994134
0.000612771
0.00681062
0.000494985
0.000311788
0.00672371
0.00341305
0.00673299
0.000838171
0.000545097
0.000316043
0.0132276
0.00673567
0.00672279
0.00171273
0.00056006
0.0014225
0.00674473
0.0145646
0.00144618
0.00175125
0.00233016
0.00411682
0.000448006
0.0104013
0.000153075
0.000997064
0.000383624
0.00672388
0.00133384
0.000502541
0.000466933
0.00313109
0.00671991
0.00325743
0.0100094
0.012525
0.00563142
0.000463116
6.96751e-05
0.0037279
0.00672228
0.00303874
0.0142853
6.80105e-05
0.000501577
0.00240677
0.00188166
0.00791042
0.000265847
0.00057373
0.00238123
0.00101332
0.0067363
0.000176305
0.000403051
0.00530107
0.0116023
0.0122204
0.0143463
0.0103817
0.00869237
0.00796765
0.00991444
0.00103813
0.00630214
0.00914176
0.00766005
0.00321306
0.00296444
0.00098987
0.00466814
0.00555332
0.00301173
0.0143353
0.000943119
0.00672539
0.000725618
0.000783648
0.000775819
0.00879178
0.000319586
0.000767278
0.00671992
0.0141057
0.00142747
0.000361475
0.00185171
0.000892722
0.00244826
0.00672889
0.000719693
0.000708704
0.00102446
0.00144861
0.00138989
0.00080465
0.000980116
0.00834379
0.000357852
0.001553
0.010951
0.0010816
0.00672406
2.74288e-05
6.02878e-05
0.00548896
0.000652547
0.00316856
0.00117071
0.000833173
0.000430908
0.00672356
0.000252815
0.00150487
0.00124568
0.000185599
0.00672476
0.00171231
0.00963656
0.0121732
0.0148425
0.000450843
0.00167697
0.00673327
0.00552816
0.00100848
0.00675256
0.0105342
0.00591451
0.00672594
0.00673445
0.0117547
0.000665317
0.00173652
0.00114624
0.000733174
0.000312056
0.00094566
0.000230601
0.00111055
0.000639441
0.0044042
0.00148083
0.00857314
0.000579664
0.0147042
0.000881129
0.00671986
0.0067326
0.000746852
0.000634549
0.00672312
0.000273559
0.000911542
0.000475505
0.0065485
0.0035195
0.00658048
0.00672594
0.000132555
0.000467874
0.000527122
0.00673028
0.000431874
0.00107395
0.00763269
8.73106e-05
0.000449995
0.00672471
0.0120651
0.000424872
0.00785253
0.00726688
0.000955816
0.000957554
0.000532075
0.00769567
0.000220369
0.0128249
0.000528814
0.00395925
0.000553183
0.00559599
0.00754077
0.000796452
0.000727678
0.000747407
0.0143695
0.00448327
0.00447017
0.00981138
0.000615911
0.00863589
0.000251489
0.00672694
0.000687129
0.000773182
0.000163284
0.00315653
0.000530552
0.000210903
0.00116912
0.00672537
0.00468175
0.000315349
0.0014095
0.000162304
0.00427145
0.00346219
0.000272689
0.00203998
0.00325351
0.00672354
0.000580791
0.000262903
0.0015702
0.0007432
0.00054539
0.000556331
0.00325914
0.000206694
0.000990712
0.000873931
8.36922e-05
0.00237155
0.000168237
0.00015706
0.00597523
0.00103105
0.00728229
0.00994544
0.00360589
0.000179253
0.00777942
0.00487962
0.00133578
6.12702e-05
0.00944238
0.000457494
0.00796621
0.000528724
0.00477505
0.00126631
0.00673129
0.00140807
0.000609838
0.00226405
4.74412e-05
0.000993906
0.000277047
0.0110064
0.0130056
0.00298476
0.0115494
0.00658799
0.00130023
0.0120993
0.00672361
0.00672145
0.00927005
0.00276103
0.00672431
0.000749712
0.0124134
0.000579968
0.00191202
0.0106159
0.00672219
0.011721
0.00969705
0.00672391
0.000198612
0.00097842
0.00974235
0.00965766
0.0101833
0.00849603
0.00672904
0.00102134
0.000658183
0.000943282
0.00672484
0.00110068
0.00672915
0.0106447
0.000867965
0.000156815
0.000836698
0.0110377
0.000834049
0.000965208
8.84213e-05
0.00254972
0.00048665
0.00193867
0.00673037
0.00187113
0.000357778
0.00674829
0.0100546
0.00540137
0.00237791
0.00263812
0.0144061
0.00220286
0.00623606
0.000170897
0.000431792
0.000263794
0.00776236
0.0091193
0.000197052
0.00194084
0.00201336
0.00108267
0.00177462
0.000672932
0.00153648
0.00672446
6.6009e-05
0.000766405
0.000498155
0.00756608
0.000909593
0.000322822
0.000216097
0.000640443
0.001611
0.00623718
0.000366025
0.00673389
0.000721904
0.000496675
0.0090372
0.00672428
0.000681066
0.00547461
0.00231052
0.000458655
0.00198912
0.000710936
0.00961882
0.000820982
0.000926661
0.00143492
0.00672332
0.0119568
0.00672338
0.00217723
0.000834683
0.0125637
0.000555163
3.14831e-05
0.000106837
0.00165494
0.00295768
5.87684e-05
0.000659869
0.013466
0.00054149
0.000199398
0.000662743
0.00178116
0.0010459
0.000176096
0.000603349
8.51002e-05
0.000866562
0.00032137
0.00129971
0.00463048
0.000221946
0.00408926
0.000946672
0.00673192
0.00107841
0.00099119
0.000936119
0.0106357
0.00111053
0.000604853
0.00672233
0.00252431
0.00672435
0.00672424
0.00227727
0.00672671
0.00118974
0.00325094
0.00104011
0.00096292
0.00216616
0.00329874
0.000915371
0.00352092
0.00677128
0.00644084
0.00593674
0.0014224
0.00054919
0.00196275
0.00672417
0.000395891
7.44065e-05
0.00053508
0.0112456
0.00113872
0.0116677
0.00148801
0.00672438
0.00672299
0.00968803
0.00477619
0.00130727
8.70268e-05
0.000516411
0.00261219
0.01367
0.00672365
0.000910106
0.0044672
0.00145589
5.4849e-05
0.00135938
0.00260325
0.00182119
0.000226781
0.000993713
0.00134983
8.64419e-05
7.82486e-05
0.000271793
0.0016197
0.00250317
0.00167744
0.00150638
0.0124607
0.00970448
0.0124193
0.00163653
0.0033342
0.00169296
0.00232272
0.00672524
0.00193143
0.00672371
0.00197439
0.00411448
0.00632117
0.00652895
0.000490431
0.00345015
0.00165869
0.00030724
0.00281103
0.00468501
0.000561852
0.0147869
0.000330746
0.00329406
0.0118401
9.38125e-05
0.00399046
0.000176705
0.00672544
0.00019253
0.000854426
0.0001033
0.0101999
0.000286804
0.00837416
0.00673068
0.0104099
0.00283746
0.00120288
0.00178964
0.00054904
0.00672296
0.00015004
0.0122064
9.90163e-05
0.000765118
0.000507345
8.36993e-05
0.00465546
0.00678273
0.00242259
0.000430139
0.00187157
0.0147059
0.0076615
0.00022689
0.00672476
0.000268367
0.000266377
0.000564667
0.00289963
0.00802792
0.00454548
0.00673071
0.00517517
0.000614267
0.00340531
0.00411295
0.0122814
0.00646878
0.000394243
7.88931e-05
0.00676092
0.0136618
0.00242384
0.0143891
0.00416406
0.00045796
0.00174431
8.52974e-05
0.00222991
0.000833667
0.00673581
0.00223222
0.0073745
0.00201473
0.000281578
0.00114246
0.000884448
0.000192816
0.000525318
0.00447906
0.000185871
0.00083638
0.00215134
0.00151637
0.00551857
0.00674474
0.00672379
0.00220941
0.00266894
0.000691376
0.00834846
0.000637866
6.38181e-05
0.00130036
0.00192849
0.00216748
0.0143841
0.010754
0.00163644
0.00182658
0.00462434
0.0088541
0.000349841
0.000820786
0.00693385
0.0115563
0.00254917
0.000356407
0.0101206
0.000183471
9.02659e-05
0.000423787
0.00234672
0.00674986
0.000220541
0.00672615
0.00379808
7.37534e-05
9.4088e-05
0.00672287
0.00102584
0.000172686
0.000952747
0.00672631
0.00672193
6.99382e-05
0.00255717
0.00361434
0.00190961
0.012813
0.00162547
0.000220915
0.00672388
5.69037e-05
8.12032e-05
0.00247698
0.000660265
0.0067261
0.0145614
0.0132946
0.000599415
0.000402666
0.000425596
0.000697114
0.00672367
0.00165047
0.00674017
0.00244069
0.00672503
0.00985058
0.00674114
0.00200205
0.000160774
0.0006246
0.00131635
0.00673149
0.0135487
0.000376795
0.00255623
0.00722111
0.000363018
0.000656289
0.00706561
0.000549937
0.000796849
0.00202
6.64909e-05
0.000226355
0.000317513
0.0144513
0.00672809
0.00361954
0.000185201
0.00974153
0.00672303
0.00102634
0.0138113
0.00672591
0.00457753
0.000595522
0.00432148
0.00672191
0.00296408
0.000436964
5.47153e-05
0.00219753
0.00052787
0.0066417
0.00321162
0.00893516
0.00899532
0.00541795
0.00184365
0.00466578
0.00164414
0.00672347
0.000348245
4.56704e-05
0.0131098
0.00313507
0.000149478
0.000726401
0.00672064
0.00672052
0.00497788
0.002323
0.00041888
0.00050739
0.00092436
7.91095e-05
0.00592815
0.00214303
0.00673455
0.00673176
0.00720368
0.00174837
9.00928e-05
0.000473049
0.00308852
0.00050751
0.00016197
0.00807024
0.00896098
0.00672407
0.00657705
0.00117404
0.00102355
0.01392
0.0067257