/*--------------------------------*- C++ -*----------------------------------*\
| =========                 |                                                 |
| \\      /  F ield         | OpenFOAM: The Open Source CFD Toolbox           |
|  \\    /   O peration     | Version:  v2012                                 |
|   \\  /    A nd           | Website:  www.openfoam.com                      |
|    \\/     M anipulation  |                                                 |
\*---------------------------------------------------------------------------*/
FoamFile
{
    version     2.0;
    format      ascii;
    class       volScalarField;
    location    "650";
    object      omega;
}
// * * * * * * * * * * * * * * * * * * * * * * * * * * * * * * * * * * * * * //

dimensions      [0 0 -1 0 0 0 0];


internalField   nonuniform List<scalar> 
13851
(
0.129693
0.024096
0.0239786
4.90382
0.0220825
0.0259347
0.0238852
0.0218443
3.82201
0.0220423
0.0664769
0.0220798
0.0221122
5.45893
0.0360021
0.133331
7.70393
0.0219246
0.319043
0.129873
0.0407515
0.0260892
23.1621
0.0222638
7.31455
0.0637209
0.232344
4.50394
3.59216
0.0217676
4.76852
0.0238911
0.127356
4.8457
0.0445268
3.56257
0.022274
9.30351
4.80813
0.0220787
4.68237
3.71745
19.4729
0.657279
3.93281
0.0218881
0.0215838
0.127079
0.0234135
0.0221071
7.79001
0.022167
0.133147
0.0300076
5.56909
0.0220776
0.129409
4.53026
0.281531
5.91748
0.0220874
0.235238
0.0220964
0.0235469
0.225672
0.240759
7.95511
0.0670474
0.0221155
4.64019
4.38018
0.0492146
0.0220233
7.16129
0.031614
0.0237048
6.25237
0.0216723
6.19381
0.021953
0.0221298
0.370082
0.0438691
5.07767
5.69135
4.58277
0.0262662
6.97003
0.0220306
4.79771
0.0222031
0.0239797
24.1087
4.44792
4.35456
0.385908
0.0219197
0.13631
7.43536
0.190501
0.140874
0.0430206
0.0466639
0.0220684
0.0218733
0.0477047
0.021875
4.43411
0.023978
0.0219017
0.0310726
0.0218859
0.168533
0.063225
0.124122
0.0292367
0.021779
0.0218027
5.05825
4.87293
0.240312
0.0218105
0.0221046
3.98844
0.243281
0.123635
0.0219185
0.0577587
4.39868
0.0457637
0.0260176
0.0314832
5.71192
4.7454
0.0678224
4.37256
0.0636632
4.4931
0.0356792
0.0452277
0.346694
0.0226205
0.0220303
0.108633
6.72229
0.0234646
0.0216654
4.47566
3.60255
0.0602865
0.139904
0.162013
0.0679192
0.243573
0.0222688
0.0220521
0.0221023
4.59892
0.0417668
0.0233681
0.0222429
3.57881
0.0467685
0.127266
5.30215
4.04113
4.11369
6.39939
0.0305795
6.19874
0.0221027
0.0217825
0.0584214
0.0221392
4.47685
0.258479
0.150259
0.0217687
0.0315587
0.147032
0.23625
0.610258
0.0297377
0.0452944
21.3451
3.57633
0.127256
0.0294833
0.022203
0.0218216
5.45037
0.0417222
7.32485
0.0259981
0.0233231
0.134768
0.123345
0.0220892
0.0221656
0.0732857
0.352081
4.41154
4.54358
0.0360587
2.9145
4.29715
0.0236875
0.0443285
3.87505
0.0253782
0.13244
0.022088
0.364751
0.0222348
0.0454364
0.024441
0.0220871
0.216003
0.0221587
3.85104
0.021767
0.130093
6.10685
4.41245
0.0291618
0.0448401
0.0222639
0.0934544
0.0220128
0.0447499
7.41802
0.0290888
0.0253603
0.0221176
4.43879
0.0217619
17.3681
4.49392
0.165232
0.0222513
1.23554
5.48118
4.01077
0.131659
0.032711
0.148926
0.193153
0.0316406
0.3585
0.0329392
6.34934
0.133992
0.0218489
0.0257435
0.137925
3.52043
4.69375
0.0218183
0.130304
0.0220277
0.180273
0.240656
0.0260962
0.047386
0.137178
0.0219826
0.0438557
0.107927
3.05349
0.0220816
0.0220844
0.0292678
4.34164
6.7564
0.0455004
0.0218264
0.236061
0.241175
0.111769
0.046697
4.23026
7.7032
0.0265698
0.032899
9.70901
0.0218629
0.0221017
0.115099
0.0578978
0.0217582
0.022232
0.0220046
0.0220002
0.032448
0.022095
3.88736
0.0428216
0.0219753
3.4941
4.0147
0.0221913
0.131628
7.94117
0.0227386
0.0222149
0.0448254
5.42503
7.40672
0.063875
0.0220727
6.1226
0.0220949
0.0696277
6.3033
2.84773
0.023269
9.01636
1.87127
4.5105
0.160125
0.0451175
4.57639
4.03111
4.02561
0.0222325
5.51991
22.3573
0.818519
0.74433
0.0237066
0.0634955
0.0297185
6.2555
0.0508079
0.0218746
0.0215255
0.027525
4.40166
3.25288
0.0218552
4.31958
0.0299612
0.0317767
0.0234893
6.43683
0.234733
0.135498
0.0241743
0.0248688
3.46386
0.0222126
0.252315
0.0264592
0.0447543
0.030495
0.0220267
0.0219724
0.160373
0.209162
0.134109
3.3343
3.52379
0.0235401
4.39291
0.216452
0.0217081
2.97194
0.0887453
6.1855
0.0269476
0.0675019
0.21307
6.39869
0.153759
5.3377
0.0226166
0.248779
15.37
0.0300626
4.95995
0.0326616
4.66656
0.0324592
0.0384591
0.134662
0.281354
0.0220527
0.026163
0.0625084
0.0317404
0.0219084
0.0458259
5.34754
0.0220192
0.0445414
5.8012
0.024004
4.52891
0.0425896
7.7925
0.0258923
0.0600659
2.24231
0.246691
0.0470079
5.59722
7.05507
1.0766
0.0219868
0.156537
0.0329303
0.0665776
0.0218257
20.5867
5.51511
6.65617
0.0248114
0.137132
0.232549
6.41437
0.0215973
7.15585
0.318679
23.7884
0.033953
5.28418
0.0220379
0.0221268
6.72182
0.23918
0.0220401
0.0241395
0.0454056
0.0218169
5.52962
0.0637047
0.0870138
0.0254195
0.0226307
0.0221876
4.67994
0.0219742
0.0221661
3.96507
5.36211
0.025607
0.243295
0.0221033
0.0220939
0.0243354
0.136018
0.042095
0.0219177
0.0228313
0.224347
0.0232463
8.46926
0.022075
0.0269192
4.00466
0.0356566
0.0215838
0.0221203
0.0253676
0.0222113
1.08427
4.09227
0.0329966
7.79515
0.0243703
0.0220553
4.28105
0.216506
0.0353311
0.0220353
3.98723
0.0345212
6.26003
0.0220707
0.0317153
0.158746
0.0335154
4.13556
0.23501
6.0682
0.0237865
0.165733
0.0219785
3.52819
0.0425621
0.123149
0.0326969
0.0239612
0.0355943
0.0588489
0.0220943
6.7778
4.1747
8.84282
5.95733
4.0921
4.83513
0.249315
0.028123
0.0222072
7.66121
0.0220448
0.0219087
0.0301978
4.55717
0.0238769
0.0226234
0.0902367
0.0473837
0.0220476
7.63003
0.0219247
4.51691
0.978651
0.0219491
0.0232908
0.324815
3.26737
0.0217647
10.2995
13.6761
0.0216769
4.58736
0.308355
0.12955
0.02376
3.9367
6.13621
0.0216919
0.323393
0.0221082
0.0219251
3.59182
4.73064
0.0385947
0.0413174
0.0220458
0.0543135
4.51148
4.53214
0.0217824
6.17079
0.0219152
0.022122
0.0474785
0.0268698
0.0215912
0.0237188
4.65116
0.259495
4.48211
0.0235672
0.0220241
4.37298
0.0221789
0.157617
0.0269457
0.0317239
0.0326407
4.20494
6.26012
0.0258088
7.23008
0.0230809
0.0638248
3.78527
4.38144
0.0221032
0.0219836
0.0478749
4.50469
0.236852
0.0533606
12.348
0.0269843
0.0315544
9.76951
7.70991
0.163432
4.40829
0.171898
3.65666
0.0224302
0.267635
3.14428
0.0220767
18.0755
6.61782
0.0305611
0.0452569
0.0220616
6.80944
0.0782163
16.4848
0.0219748
0.0221658
0.02655
0.0467786
0.0220847
4.43045
0.0221601
0.166048
0.0238539
0.0680777
0.0220632
0.0220474
0.0465868
6.54678
0.0470184
4.31315
0.0317139
0.0218257
0.0217597
0.0589548
0.0228295
0.100086
0.0242958
0.0346839
0.243525
0.0221807
5.64059
0.0222537
0.0907983
6.23883
4.1151
0.0289876
16.6259
0.0874455
0.284669
6.47804
0.0218418
7.52429
0.0299552
0.0310695
5.70812
1.61867
0.0217179
0.097393
0.0220665
3.53895
6.97513
0.022201
0.0741277
5.67137
0.0222634
0.0222522
0.0643829
6.98328
3.67569
0.0222219
0.135016
0.0230572
0.022046
0.215912
0.136987
0.176221
0.0215815
0.108189
0.0464651
0.0559974
0.0226598
0.0231701
0.0732778
0.0263875
0.117559
0.0490187
0.0491284
0.133767
3.08868
0.316471
4.84066
9.94321
0.13328
4.19391
0.039879
3.69808
0.132991
0.0218933
0.030937
0.263876
0.0268529
0.0219554
0.0219518
0.0911384
5.95892
0.0270868
4.35854
0.0218296
3.83505
0.15091
8.48081
0.0971871
0.0260304
0.0239695
7.01538
0.174469
0.0383638
0.231646
0.0224893
6.0832
0.0917568
0.169051
0.0323289
0.499907
0.0220346
0.0222453
0.0234028
0.0220449
3.78226
0.022
0.223122
4.25822
0.0999306
4.58535
6.61259
0.174643
0.305928
0.0286174
0.0221799
0.0220693
0.0216812
0.0217601
0.0221412
0.0642191
0.161537
0.0502054
3.62328
0.023078
3.82095
0.0222934
4.85534
0.0413078
0.0222835
0.0221327
4.11591
0.026105
3.95797
6.58719
0.043288
0.0652866
0.0216598
4.73497
0.0243404
0.0239135
0.268065
0.0221832
0.0226253
0.021836
0.0426984
5.68726
0.0291706
0.0325917
0.349278
4.39657
0.0291374
0.0268113
3.76233
0.0216786
3.68784
0.0222022
0.0232535
5.69568
0.0768754
0.122871
0.0931351
0.0473051
0.0222272
0.0222936
0.0689056
0.0224768
0.0222346
0.0275267
0.336855
0.0219836
0.261913
3.37766
3.61232
0.0918655
5.45299
0.0368217
0.0221754
0.151457
0.0218429
0.0261948
4.76919
3.50238
7.56264
3.89693
0.0222686
0.0221711
0.0699501
0.023015
0.0218348
23.4193
0.183528
4.76459
0.0920276
0.0784885
0.0220466
0.0217732
5.70604
0.0876089
0.0235385
0.0222529
0.122356
0.190907
4.43767
0.022257
0.0221517
6.92675
0.0226371
0.0326658
0.0218216
4.61567
0.0219174
5.6322
0.0220736
0.147489
0.0383014
0.070499
0.0325245
0.0220234
0.0241661
0.0220219
0.217405
0.0226448
3.82464
0.022553
4.45628
4.327
0.030819
0.0220034
5.13432
4.17204
0.0262696
0.0765133
0.0220686
6.48482
0.0219114
0.265753
0.0220636
0.0220187
3.73543
0.0328152
0.0221102
0.0303739
4.40935
5.3321
5.69143
0.0218223
4.01704
0.0220743
0.0219909
0.0222651
0.021492
0.0222333
5.88058
4.9254
0.0221692
0.0221562
0.0388986
0.0218861
4.93352
0.155398
4.73087
4.6635
0.0241327
0.117381
0.0220695
0.0408077
0.120866
0.0218246
0.0222104
1.52883
6.84765
0.0640174
16.9675
0.0590617
0.0221005
0.0409446
0.0777323
7.66215
0.0312789
1.77085
0.0896362
0.0222238
14.6757
13.4151
4.38199
4.18722
3.51887
0.0237324
0.144304
0.0221683
0.871981
0.0263358
0.0218766
5.72887
0.0229737
0.0220044
0.0221018
0.0228331
4.47341
0.255129
0.021869
0.0416317
5.39521
0.0231149
16.4163
0.0232144
0.0741661
4.64122
0.0220978
0.235389
0.0295239
0.0322148
6.03104
0.0229557
0.357676
0.0592499
4.61959
0.0221229
4.45001
0.029818
4.20611
7.90282
5.77052
0.0431874
0.0220385
0.022276
0.0222633
0.0367305
0.0221232
4.2182
0.0289052
0.0279131
0.0288812
0.023668
0.0218204
0.0260206
0.0273297
0.0232947
0.0270039
6.06883
0.214277
0.0290248
0.0502525
5.79099
0.0226719
4.4486
0.0216911
0.0329598
0.0226539
0.0219307
0.0449355
0.02205
0.0218638
0.0453887
0.0220589
0.316172
0.0226762
18.9715
1.4387
0.198899
0.275631
0.0220325
4.44179
0.149559
0.0222262
0.0272373
0.0225401
4.60743
0.0231972
0.0443769
3.15685
6.53474
0.0830411
0.022109
4.16167
2.18325
3.63552
0.0294397
0.0218166
0.0217657
0.0640386
0.0220376
7.41104
0.161307
0.0221977
0.217437
0.32551
0.0218241
6.21423
6.24426
0.17856
0.0226546
4.14005
0.063866
0.0220209
6.28609
0.0266403
0.0218158
0.0219388
0.0304841
0.0371041
4.01498
5.20685
0.03873
4.11402
0.0321352
0.0220202
0.0860349
0.0219579
3.034
0.0218003
0.0220462
0.0239624
0.0224392
4.2905
5.61506
0.234561
6.46682
7.43879
0.0290663
0.0220235
0.0226818
0.366667
0.0217821
0.0218944
0.0432903
6.85658
0.220076
0.0216427
0.0390107
0.03275
0.130721
16.4695
0.0216716
0.0215791
0.0232135
5.57357
0.0274875
4.50072
0.0231558
0.0221631
0.0218172
0.0219316
0.0243967
0.174588
3.70637
4.01402
0.0289149
0.0220556
4.47068
0.0222115
5.90893
4.88769
0.0304808
5.43418
3.71158
4.91258
0.0504361
0.0310468
3.84945
0.0299448
0.033606
0.0719294
0.289952
0.0224456
5.24655
0.0220224
4.60075
6.19147
0.0216951
0.023864
0.0457972
0.361664
0.032572
0.0221427
0.0271521
0.023215
0.0251657
1.20901
0.0221626
4.23786
5.72
0.0220251
0.030084
0.0369001
0.0220826
3.44346
15.6035
4.49846
3.42783
0.0220386
0.0245358
0.0263712
0.022274
0.233572
0.0328581
0.0222566
0.0579781
0.0258165
4.72716
0.0383865
6.62219
0.023116
0.0231432
0.0504513
0.0881007
0.0693018
0.0219859
17.4062
4.11937
26.1252
4.5184
4.69404
4.01762
4.31556
0.0219897
0.0220251
0.0219544
0.235779
0.0416033
0.0690919
7.23583
0.0220723
0.0216626
0.0220438
0.206259
0.0216553
0.0260616
0.0236308
3.95376
0.0229233
0.0218508
0.0220862
0.0219715
0.0221629
0.0342473
0.227027
0.0337452
5.48338
0.0220332
0.021932
4.40294
4.51884
6.65143
3.64398
0.0482367
3.76321
0.0218121
0.061151
0.0231469
0.0220791
0.0237791
5.09312
0.0228441
0.089522
5.83679
0.0221441
0.0219202
0.0263757
0.17821
0.0222719
3.95774
0.021939
0.205928
0.0221258
0.0221695
0.0263317
0.0973081
0.0221219
0.226669
4.42097
0.176887
4.80246
0.022039
6.41651
0.268267
0.0220486
6.31208
0.0222685
0.0422118
0.0222073
0.0220014
0.021961
0.0220458
0.0223955
0.0271858
0.0629079
0.0221655
0.022097
0.0611701
0.0216952
8.49164
0.0221262
0.0312541
0.031851
5.04965
2.26466
0.0221472
0.180172
0.0218166
0.0289907
0.0692467
3.35763
0.0451707
0.0222723
0.104209
0.0763595
0.0781506
0.377842
0.0355563
0.14292
0.0534437
0.063287
0.0228878
0.0218244
3.61137
5.5265
0.0244519
0.022017
15.7873
0.0218324
0.040541
0.0219611
0.0821416
7.09111
0.0215264
6.27892
0.0257716
0.0221706
0.147491
0.0218771
0.0404935
3.35631
0.0388648
3.66171
0.0219559
0.0222648
0.0429403
0.022226
0.0222465
0.0269986
0.0289471
0.0635292
0.086252
0.0220904
0.0389755
0.0218151
0.0220626
0.0222151
0.0220516
1.71148
0.021833
0.0232551
0.240418
0.0218276
0.0220056
4.45342
0.0222497
18.4899
0.0229862
4.55169
0.227274
0.0519393
4.36086
0.0650893
2.03409
0.0222996
0.194744
0.0267984
0.0218122
0.0218927
0.0232353
0.0301476
0.0219637
0.0536718
0.0219045
0.0231214
17.0484
7.73823
4.27416
0.0237325
0.0477129
5.07268
5.85833
0.0221729
0.0257844
2.01526
0.0221047
0.0400341
3.95351
4.02861
0.0263809
0.0403877
0.0227386
0.346585
0.0222851
0.0357314
5.08279
0.022162
0.021858
8.62662
0.043259
0.241322
4.89827
0.0919373
0.0224102
0.0219087
0.0222012
4.79049
2.18886
5.36749
0.0560375
0.0220452
4.62885
0.0221093
0.165153
0.0266553
0.0230187
0.0411439
0.0220579
6.44959
7.41992
0.0216315
0.0641237
0.0427285
4.19944
0.043924
0.0528081
0.238368
0.031931
0.212711
0.0555158
0.022112
0.0334574
0.0838862
4.04695
0.0220346
1.25759
0.0463595
0.0555758
0.0222726
7.39014
0.0255717
0.0235676
0.0218447
0.0391727
0.0379613
0.0559582
0.0221281
0.0226439
0.0566996
25.1178
0.0602965
0.0221573
0.0226285
0.0333115
0.220511
0.0221718
0.0894689
9.04069
0.0475698
4.27153
0.0366042
7.89029
0.351083
0.0219899
2.07554
0.0222385
0.0248523
0.0309837
0.0331051
0.0981713
0.0429838
0.0428751
0.0447768
0.0305601
0.0240607
0.0216488
0.0835671
0.0249714
0.0286795
1.73587
0.025982
0.0302186
0.0219481
4.82248
0.0822882
0.0220898
0.024302
0.0232762
5.56012
0.157745
0.0309582
3.92988
0.301591
1.09387
0.0894955
0.237315
0.0218923
0.31134
0.0218835
0.026877
9.71104
3.41873
0.358356
1.93816
0.0221215
6.53191
0.0218893
0.075849
0.0251042
3.60743
5.81556
0.0251479
0.0220233
0.332231
0.04292
0.0220201
4.37383
0.0220698
0.0236453
0.0249576
0.0222011
0.0302953
0.023344
0.022043
0.0345257
0.47755
0.0382486
0.0604214
0.022016
6.53199
3.47817
0.0220045
0.238126
0.0250491
0.0291219
5.20707
0.0220011
0.0226753
0.0278337
4.36019
0.0220302
0.0221829
0.038944
3.57462
0.0219876
0.0319863
0.0340375
1.50719
0.045693
0.0387303
0.212678
0.0220749
0.12019
0.0217117
6.55695
0.0296954
0.0220483
0.0260803
0.095704
0.0221507
0.0220813
0.134854
3.99006
0.0221991
5.93697
0.0221879
0.0217006
0.062295
0.022034
0.0218313
6.73935
0.0222737
0.0386704
0.144752
4.70591
1.20721
0.0217651
0.0239926
0.0280115
0.0220748
0.0220372
0.0220955
2.90189
0.0221955
0.210167
0.11001
0.0218495
0.0217052
0.0295228
0.11004
0.239688
0.0553751
0.0611952
0.0237529
3.87938
0.0778837
0.0288591
0.0380814
0.0655923
0.0898578
18.1104
0.0353779
3.71596
4.37271
5.51297
0.0242516
0.0219538
0.0375724
0.0343192
0.0217836
0.022202
0.133952
0.0222435
0.0222618
0.0220509
0.021583
0.0231873
0.0219865
6.54698
0.0220202
9.03073
0.0220822
0.0879572
0.0224762
0.112566
0.0786846
0.0220427
4.92025
0.0239752
0.0222258
0.0374653
0.0218049
0.0306858
0.0219244
3.82522
0.0240833
0.0407301
0.103288
4.86197
0.0283161
0.21255
1.51015
0.0507421
0.0220299
0.0227921
0.111081
0.0624124
7.20774
0.0217616
5.01353
0.0220774
0.088674
8.79619
0.0358793
3.483
0.0251261
0.0313374
0.0247462
7.22892
0.030782
0.0221421
0.0487619
0.135395
0.0232665
0.0220379
0.0221434
4.71332
0.0222523
0.0275938
4.59933
0.0259665
0.0219862
0.056381
0.0248164
4.69707
0.0216621
0.0220175
0.0218661
0.0260469
0.0222878
0.0220496
0.059138
4.30725
0.0219706
0.0221028
5.23151
0.0220915
5.87841
0.0232448
7.00333
0.021852
0.0242612
0.0218146
3.84328
4.82263
0.0302308
0.0713165
0.0269736
0.0219438
0.022117
3.89286
0.022137
0.075307
0.0217823
0.0388119
0.02219
5.46848
0.0218398
0.0415382
0.021863
0.525092
1.01324
0.0217882
0.0443162
6.99714
0.0627858
3.88187
3.33461
0.248802
0.0233929
0.0329296
0.0907902
3.8594
0.0220296
0.0352892
0.0280665
0.02197
4.02035
6.04139
0.0640548
0.147508
0.336285
0.0333195
4.38863
0.0217766
0.021784
0.0978327
7.80311
0.215484
0.158835
1.79197
0.0218129
7.44137
3.84961
9.55236
0.0222028
5.43328
5.19878
1.09134
4.06444
3.83674
0.0781001
0.029961
0.167077
0.0255579
0.0219699
1.61829
0.0868895
0.0216327
4.8172
0.0221887
0.029294
0.0402446
0.0266683
1.3006
0.0347455
6.13782
0.0407749
0.0260813
4.06227
4.82302
0.131816
0.0223704
0.0257765
0.0697056
0.0586639
0.0218334
0.0467545
0.0625112
0.142503
0.0219736
0.184791
0.0242507
0.0491007
4.11659
0.207151
0.0230732
0.134825
4.6329
0.0221618
0.0227467
8.83564
0.333846
0.0241884
0.0244073
0.0220912
0.0742837
0.0247865
3.70946
0.0983265
0.0225038
0.0222233
0.0670825
0.0295784
0.388529
6.49083
0.0218748
0.022033
0.027521
0.0221946
0.0239729
0.0228527
0.0226527
0.0257524
0.0219383
0.0247569
0.0221825
0.0434582
3.39441
0.0222642
5.54281
10.9145
0.021711
0.245662
0.134016
0.0865154
0.0227087
0.086316
0.0265035
0.0796286
0.0288448
0.0231444
0.0222094
7.09858
0.0267272
3.68344
0.0226947
0.0220363
0.0220221
0.0704661
0.0219649
0.0473275
0.055919
1.70194
0.0219193
0.25405
4.72765
4.06779
0.0218056
0.138829
1.03741
5.00958
2.18582
0.0225465
0.0222489
0.163607
1.50037
3.15227
0.0385791
0.238528
0.0222315
0.0218263
0.0400181
0.0221961
0.0221306
0.161997
0.0222654
0.0900349
0.0218416
4.84872
5.40221
4.68536
4.08452
4.18705
0.0221241
0.0221452
6.7246
0.0217738
0.021798
0.0217007
0.123506
4.87078
6.58595
0.0275177
0.0219977
0.0230726
0.037259
5.26119
0.0220373
3.40959
4.95303
0.0221891
0.0221778
4.08331
0.0715955
0.0229591
0.0220406
5.72524
4.36971
0.02195
0.185725
0.0222536
4.0062
3.18232
0.0230841
7.23308
6.70707
5.46565
0.0218286
0.0220297
0.022245
0.0222861
4.61782
0.0219118
0.244032
0.233976
8.63624
0.0225677
0.0576224
0.275937
0.0473656
6.65855
4.46562
0.0216342
0.0251129
0.025281
0.127876
4.33139
0.0215709
5.42441
0.0320883
0.0399077
0.0227195
0.0219483
0.282143
0.0394483
4.94435
0.0221959
0.0545115
0.0224904
0.114418
0.0238947
4.22148
3.54493
0.276367
0.0861091
0.0219672
0.0238179
0.0805661
0.223794
4.28943
6.81716
0.0221497
3.59278
0.0927661
5.07
0.0256566
0.0427508
0.0385625
0.0220497
5.55432
0.0220695
0.0314062
3.50608
4.7438
1.54009
4.72426
0.028262
0.0464056
0.0217371
4.86533
0.0271862
6.65776
0.0217244
4.82356
0.0215336
0.0220019
0.0310282
0.0313117
0.0324509
0.0219746
3.77359
0.0403132
0.021915
0.0373126
3.93103
0.616686
0.0220349
4.73784
0.0242698
0.0321984
0.0303736
0.0216932
0.061921
0.021995
9.06229
0.08121
0.0258636
0.0220282
0.35774
0.0383768
0.0217234
5.07923
2.31578
0.230227
0.0216178
1.20186
0.0221411
0.146113
0.0266501
0.120033
3.93121
3.93228
0.0345071
4.7377
0.0491969
0.0283821
0.0218258
5.21968
0.114264
0.100657
0.0601907
0.0222435
3.63308
0.0855577
0.365162
0.240844
6.59638
3.72393
4.96101
4.9504
0.028892
0.031548
0.0220958
0.0220389
0.0215903
0.161379
0.0290206
0.0331731
4.80242
0.0219392
0.0218595
0.0381592
0.135129
0.0271164
0.0218139
4.46978
0.0240247
0.0428924
0.0221999
5.69796
0.0286845
5.83517
0.0561572
0.0328725
0.0518808
0.0220887
7.94401
0.289711
0.0676426
0.0220385
0.0219108
6.9165
4.57184
3.49342
0.0218298
0.0689367
0.602323
0.0220059
0.0220078
0.022072
4.74931
0.102049
0.0343731
0.0261522
0.0253907
4.68759
0.0886418
0.234694
0.0254596
0.0313966
0.021575
0.127608
0.0542968
0.0220148
3.83763
4.52027
4.29273
4.00419
4.85346
8.4014
6.66388
0.0231227
0.0217994
5.93636
4.98463
6.61508
0.0220647
0.0383328
0.0220466
0.0219665
3.15493
4.86264
0.0596151
0.0220031
0.251096
0.0881418
0.0469697
4.22984
2.52556
0.238032
0.021916
4.20302
2.37795
0.353794
0.0304353
0.0406398
0.0221749
0.0218764
0.0378622
0.0441551
0.0243328
0.0376715
0.0271127
0.0249405
0.225173
4.13942
0.0314696
0.0392417
4.11625
0.1976
0.0221114
0.460511
0.961692
4.76598
0.0401198
0.0220955
0.0287594
0.0266406
0.0300798
0.0216912
0.033118
0.0298153
0.0424532
0.24219
0.0222306
0.0229477
3.81443
3.97307
4.69449
0.307283
0.10246
0.0215185
0.0220453
0.0296459
0.0217311
6.83924
0.0220374
0.0222734
0.0217236
3.78123
18.6954
0.0224105
0.058173
0.0280451
0.0353169
0.029409
0.0351253
0.0381067
0.0367011
4.8012
0.0256323
4.67365
0.0384558
4.68258
0.028891
0.0219359
0.0218208
0.0887189
0.135539
0.0218268
0.0392143
0.0290586
0.0572416
4.00417
6.84897
4.46443
0.0222732
0.860186
0.0296027
0.0362036
0.0220289
0.0671217
0.023661
3.68347
2.06615
0.0392782
0.0220782
3.94567
0.0272553
4.34562
5.08716
0.231266
0.0242002
0.122517
4.54198
0.700114
3.8513
0.0580644
0.0219326
0.0391211
0.0218218
9.19561
0.0245604
0.0311945
0.236813
4.65209
0.0219015
0.021958
4.313
0.0407148
8.42708
0.0326894
0.0220416
0.041425
0.201349
0.0433309
3.51264
0.0355656
0.546087
0.0248819
0.0222448
0.0219427
0.273002
0.0226607
0.128291
0.0220489
0.021993
0.260047
0.0254352
0.0220571
0.0220374
0.0348581
0.456074
0.0394908
0.0380322
0.0263493
0.0586108
0.0220371
0.155815
0.029797
0.0412372
0.0701062
0.0266397
0.0861248
0.0450402
0.021805
0.0625929
6.69897
3.3263
0.0220528
2.19517
4.3184
0.0219656
0.0226616
0.843038
4.18816
0.0278115
4.16085
0.355234
0.0219569
0.0778597
0.0215891
0.0255321
0.0587776
10.1975
0.526678
0.234971
0.248987
3.92318
4.00198
0.0230216
3.80583
0.0220356
2.62037
4.0633
0.0220998
0.0220833
3.48018
0.0221156
0.022085
0.271211
4.5088
0.207931
0.0254092
4.17733
0.0221038
4.08865
3.92799
0.0221902
0.393212
4.94076
4.50016
3.60887
3.82496
3.69084
0.0218811
0.0231946
0.0588423
0.0604625
0.0220793
0.1924
0.0220398
3.73484
0.267403
0.0492194
0.250142
3.67172
0.265082
0.228611
0.0603187
7.68984
0.471097
0.0246932
0.0216328
3.0082
0.034612
0.0217708
7.12694
0.0219777
3.25318
0.0221432
4.76141
0.0248094
0.0219818
19.8274
0.0274427
0.0353664
3.7428
6.6859
2.21599
0.0266495
0.0409859
0.0232974
0.0365
0.118818
0.0374003
0.0222095
1.64012
0.0582353
0.0327829
4.02874
0.0388176
0.0368602
0.204916
0.0704077
0.0413091
0.0219773
0.194033
0.0218196
0.11746
0.203645
4.45733
0.021874
0.0381384
4.65836
0.0230035
0.0625448
0.0294157
0.0406784
5.96406
0.0575376
0.0234267
15.2012
0.0218848
3.91957
0.0221255
0.0228315
0.115498
3.54836
0.0322559
0.383102
0.590758
0.0297546
0.0221549
0.162136
0.0438161
4.70669
0.0265208
11.7497
0.133969
0.0295794
0.0287857
0.102887
0.0368059
0.074045
0.0571683
0.0379754
0.0241271
0.0219981
2.21005
0.0220127
0.0282567
0.0216041
0.100555
0.0285484
0.0563983
3.95456
0.02302
0.21548
0.0215134
0.0221535
0.0221891
0.0222066
0.0256211
0.0219435
0.0790185
7.73698
0.0555637
0.043042
0.0244601
0.0220237
0.213412
0.022026
4.41132
4.93865
4.8383
0.133632
0.0346371
0.0262291
0.022178
0.0296848
0.0963927
0.0419099
4.22679
0.0547539
5.09527
0.136155
0.0222102
0.0218434
3.37725
0.0219509
0.0288558
0.0659261
0.336849
0.0230129
4.50983
0.0221734
0.0256326
0.022048
0.0226192
0.165594
0.0978437
0.0221892
0.0305855
0.0347071
0.0434154
0.0532898
0.513291
0.356974
0.266554
0.123225
0.0251787
0.0228947
0.0523989
3.52126
6.52342
4.00189
0.0302988
5.36608
0.0959153
0.0226399
0.0219958
0.0565239
0.0221443
0.0303977
5.54761
0.0219662
0.0217999
0.511151
3.23428
0.0431891
1.39784
0.0221159
5.61618
0.041456
4.74553
0.0293135
0.0220321
4.11809
0.0580998
0.0220312
0.0717318
0.0222529
0.157918
0.0286058
0.0547584
7.21527
0.0335309
5.27991
0.0219334
5.1737
0.022127
0.0258252
0.0224528
0.0453098
0.0221438
0.0554714
3.87311
1.04249
0.0473816
0.0318689
0.0770764
0.021898
0.0219578
0.0228332
1.61751
0.0248256
4.90109
4.50969
0.139959
0.0222156
0.143773
0.22288
0.138042
0.0250179
4.795
0.0219761
0.0215253
0.0219615
4.85919
0.022045
0.022016
3.9947
0.0219764
0.159798
0.100032
0.0217615
4.31015
0.0268177
4.71856
0.021918
1.97711
0.0227638
0.0720322
9.64034
0.0617948
0.0219471
0.0262268
4.6026
0.0303021
0.147512
0.0301313
0.0261541
0.141844
0.0289486
0.0220903
23.0992
0.0289508
0.0269786
0.132251
0.0219721
0.0218614
0.0221891
0.0291141
0.0221265
0.0257991
5.39519
12.695
0.102733
7.31299
0.0560306
0.0320201
4.75917
4.73746
0.0224356
9.05028
9.07783
3.9201
2.09594
0.0304529
4.56573
4.1365
17.9311
2.11353
6.3324
0.0426
0.0829329
0.0293533
0.0252179
0.0221633
1.40696
0.0222851
4.88056
0.124535
0.335316
0.0215965
0.0685651
0.0456446
0.0235727
0.0222931
0.0221186
0.123437
0.023256
0.022151
0.037408
4.42611
0.0239568
0.155093
0.0218312
0.126754
0.0823917
0.0221586
0.0265843
0.0219464
4.7892
4.54453
0.152099
7.94243
0.0329872
0.0826788
0.0221319
0.0383959
0.0220601
0.0222745
0.0222334
4.85264
0.0217776
0.0417971
0.738167
0.0277312
0.029876
0.0219992
5.01616
0.191411
14.2232
4.58245
0.164727
0.295576
4.32231
0.330219
0.202805
8.4574
0.125419
0.0338378
2.45693
4.98743
0.0220441
5.28149
0.15103
5.4688
0.0216144
0.0586062
5.16639
0.0222731
4.75393
0.025369
6.63257
0.0220921
0.0221007
0.0656631
0.220566
0.0258152
0.0617669
0.0217876
0.0220916
3.64426
5.63722
6.9703
0.0494819
0.0220729
0.0224351
0.022136
0.0358531
1.12756
4.55096
4.06028
2.41154
0.0315973
0.0219534
0.0219835
5.76913
6.61047
0.281384
0.0263091
0.0246401
0.0819113
4.93593
6.257
0.0215163
0.0219599
4.97285
0.0229467
0.253176
0.0278365
0.0220631
0.0321832
0.0462164
4.6028
4.59329
0.0222022
0.0217988
0.0246051
0.210677
5.21285
0.0222651
0.128756
4.40275
0.021526
3.07169
4.17988
12.6562
0.0221102
5.62302
4.86556
0.0385675
0.311644
0.02407
0.305178
0.329517
0.0251105
0.0219453
6.82029
1.01539
0.0218589
0.133308
0.138182
0.029047
0.248224
4.54826
5.41859
5.02899
0.0270642
0.0235419
0.0229115
4.48904
5.00285
4.75406
5.93791
4.63466
0.0217211
0.041551
0.0220677
0.0221154
0.0247389
0.0219682
0.0220587
0.0221428
4.44987
11.8558
6.84234
0.0565884
0.180967
0.0358606
0.0218568
0.0219873
4.43478
0.022139
5.94636
3.92988
0.0221792
0.0218846
3.63586
0.0225123
0.540351
0.0255565
0.0217524
0.0217168
4.43486
0.0216811
4.44864
4.26015
0.0215704
0.0447382
0.0219064
0.0227928
0.0218443
0.112649
3.96357
0.0219714
4.95662
0.465452
0.0239319
0.0218756
0.0226269
0.0234682
0.0222265
0.494771
5.33816
5.8008
0.0377017
6.77579
0.0222726
0.0253939
0.0220727
0.17224
0.0233375
4.83992
0.0218628
3.95164
0.262999
5.65652
0.145006
0.0218588
0.0425427
0.0219112
4.27255
0.0219471
0.0283203
0.026203
0.0252747
0.0221242
0.0222511
0.032301
5.01931
0.0221862
0.0227701
0.0237707
0.0333009
0.160728
0.0221884
5.24924
3.84976
0.0237257
4.92754
4.67682
3.54043
6.3582
0.02154
0.0230099
3.76901
4.29519
0.135714
4.02431
4.47246
0.0323088
0.0472722
0.0297935
4.27746
0.0220354
0.0219659
5.56627
0.120094
4.92142
0.0244681
0.0217099
0.022045
5.04744
0.0673186
0.0237059
0.227535
0.0218242
0.0577089
0.0297583
0.0300036
0.021924
0.0221891
0.0219216
0.0244686
1.33103
4.82107
0.0215792
0.0219021
4.52582
0.0220562
0.0626931
0.0259378
0.0255165
0.0359305
0.0222857
4.22003
0.0290123
0.0252379
20.0642
0.0811613
0.0231888
0.0310156
0.0220288
0.0224514
7.14536
0.286635
3.46852
0.0222395
0.0221545
0.0592746
0.0270659
0.0220299
0.0368073
4.43173
0.0257008
0.0404684
0.0252336
0.114469
0.0221157
0.0216995
4.78881
5.26543
5.15536
0.0219723
0.146783
0.0216023
0.0220216
0.0642914
4.6367
0.0646595
0.0278796
0.148706
0.0226959
0.0289433
0.0530534
0.758674
0.0222656
0.021642
0.022546
0.0238651
0.0263736
0.0219604
1.20263
10.2382
0.0220757
0.0318539
0.0224075
0.0216505
3.78677
5.92814
5.87695
0.0723545
0.0223772
0.0537792
4.86686
0.0971036
0.0929043
0.0336753
0.0296152
5.07628
0.211497
0.727076
0.0217648
0.0303366
0.0221119
0.0300264
7.18262
0.0216282
0.0400129
0.0253923
0.0297484
0.0230107
0.0217917
0.0218796
4.29066
0.0443389
0.0298284
0.0641803
0.034549
5.78894
0.030997
0.473118
0.0219251
4.97997
4.89025
6.96221
0.0222646
0.0311305
0.0220847
0.0219595
5.95219
0.0446236
4.96099
0.0219945
0.0447999
0.128655
4.6315
0.0278956
0.0216452
6.85974
0.0222852
0.0222841
0.0225563
0.0220348
6.24025
0.0218219
0.0218752
0.0359106
0.02714
0.138939
0.126961
0.0329824
4.50328
0.0219343
0.168921
0.0217783
4.83162
0.0336406
0.462937
0.138665
2.59986
0.102957
4.76601
0.0229997
6.41787
0.0322482
4.92148
0.192402
0.0278076
0.21226
0.0221453
7.3982
0.0230331
0.0373439
0.0270212
6.38303
0.135419
4.4165
0.0307799
0.022016
4.87677
0.229564
0.0529669
0.142021
8.63915
5.01053
0.0386138
0.261615
0.0411799
0.0218787
0.0474101
0.250388
0.0677148
25.8512
0.118091
0.0217951
0.0219319
0.134888
0.0220862
5.44392
0.0701771
0.0220845
3.80087
1.14329
3.39316
0.106227
0.0219855
0.0288408
0.0256822
4.46052
3.7279
0.0256537
5.19887
0.0218704
0.03141
0.965966
0.022003
0.0396464
0.0219312
0.0260451
0.0222513
0.159722
0.776326
0.0299642
0.0291495
0.0217158
0.13737
0.0218855
0.0218267
0.03275
0.0219246
0.207886
4.93806
2.96615
4.38953
0.0217857
5.17968
0.0221893
0.0369861
0.128114
0.0220175
7.88491
0.0681239
0.0220355
0.0216377
0.0409961
0.0372326
0.17512
0.235113
0.0257401
0.0238344
4.05198
0.0595487
0.262672
0.803883
12.5865
4.05175
4.99239
1.16638
0.0221525
0.0221147
0.0460177
0.0222045
0.0499167
0.0356649
6.32308
5.2796
6.59586
0.0216875
0.0217782
0.116577
0.239901
4.51415
1.21816
3.68552
0.0539297
0.0325483
1.11135
0.261309
0.0259799
4.8286
0.0329768
0.0299043
4.43206
0.0399046
0.021935
4.67111
0.888477
0.0243359
0.136193
0.0233511
3.6547
5.71719
5.24659
0.0220144
0.0216846
0.129183
0.0220159
0.0219174
0.0220195
0.0217304
0.0220248
0.0220316
4.87982
0.0277458
0.0460352
4.29776
0.0219015
0.0220404
0.0310479
0.0254595
0.025978
0.0220485
0.0642919
0.0304244
0.0263253
0.0841757
4.36699
0.0220599
0.0412015
0.0220723
0.0220343
0.0215741
0.022085
4.43572
0.0218933
0.0220265
0.0220985
0.0429953
4.24247
4.33712
5.09324
1.43402
0.0434987
4.33295
6.50472
0.0219563
0.0420098
5.8433
0.236525
0.0221128
0.0275087
0.0419185
0.037866
0.0220617
0.0389938
0.0566527
0.0441267
0.0216327
0.0523003
3.24856
0.0215788
1.56638
4.8582
0.0420373
0.652499
0.0351507
0.0220906
0.0253377
0.0220153
0.226644
4.92272
0.0216799
0.0430554
0.0219755
0.0219807
0.0221923
0.0222859
0.0370334
0.0221726
0.122968
0.140663
0.025686
0.0244521
0.0442217
0.0220471
0.044162
0.0317621
0.0223441
0.0221027
0.022142
5.02516
0.0220174
0.25089
0.0400444
0.0222534
0.0220353
0.0217453
4.63166
0.025238
0.0422623
0.0511292
5.14148
0.0280407
4.18927
1.6383
0.042835
0.0219742
0.217183
0.0379158
5.00829
0.0687164
4.89091
0.0216399
0.0488128
0.0478055
4.46723
0.0220076
0.0431751
5.27659
0.0218567
8.05797
10.6661
3.64766
0.0219794
0.0217775
4.92418
0.0220485
4.47074
0.157175
4.33755