/*--------------------------------*- C++ -*----------------------------------*\
| =========                 |                                                 |
| \\      /  F ield         | OpenFOAM: The Open Source CFD Toolbox           |
|  \\    /   O peration     | Version:  v2012                                 |
|   \\  /    A nd           | Website:  www.openfoam.com                      |
|    \\/     M anipulation  |                                                 |
\*---------------------------------------------------------------------------*/
FoamFile
{
    version     2.0;
    format      ascii;
    class       surfaceVectorField;
    location    "650";
    object      Uf;
}
// * * * * * * * * * * * * * * * * * * * * * * * * * * * * * * * * * * * * * //

dimensions      [0 1 -1 0 0 0 0];


internalField   nonuniform List<vector> 
20580
(
(1.13534 0.0475962 1.05243e-20)
(1.13561 0.050109 3.43497e-20)
(1.13314 0.0482963 1.62001e-20)
(1.06961 -0.0242441 -1.47271e-20)
(1.07008 -0.0253044 -3.75042e-21)
(1.07139 -0.0241989 -1.47301e-20)
(1.06896 -0.0226954 -9.82725e-22)
(1.06763 -0.0238585 1.75476e-20)
(-0.193278 -0.0156673 -2.61071e-20)
(-0.168155 -0.01875 -5.85889e-20)
(-0.192254 -0.0166697 -2.79573e-20)
(1.0021 -0.000530656 0)
(1.00189 -0.000491741 0)
(1.00198 -0.000293176 -1.02786e-21)
(1.08042 -0.0373247 -1.38446e-20)
(1.0802 -0.0393761 -5.85177e-21)
(1.07816 -0.0381792 -8.12057e-21)
(1.05823 0.0102845 7.29984e-21)
(1.05867 0.0111887 1.03238e-20)
(1.01346 -0.00086712 0)
(1.01315 -0.000882534 0)
(1.01244 -0.000544349 -6.88693e-22)
(0.30062 0.0394072 9.56755e-21)
(0.306664 0.0395976 -9.41675e-21)
(0.278526 0.0355705 -9.46635e-21)
(0.99061 -0.00730718 1.24803e-20)
(0.99103 -0.00664447 -5.03868e-22)
(0.991425 -0.00725533 5.03549e-21)
(1.15944 -0.0973882 0)
(1.15435 -0.0974677 2.74978e-20)
(1.1574 -0.102213 2.13804e-20)
(1.00112 -0.00791126 1.74922e-21)
(1.00128 -0.00821813 0)
(1.00113 -0.00828696 0)
(0.980283 -0.0182812 4.34505e-21)
(0.979879 -0.0192023 3.69741e-21)
(0.981075 -0.0188804 8.90679e-21)
(0.0891451 0.0102869 -7.54157e-21)
(0.0759645 0.00727129 2.66724e-20)
(0.0936845 0.0124408 -2.19738e-23)
(1.09922 0.00797286 -7.10291e-23)
(1.10096 0.00813433 -9.23301e-21)
(1.09982 0.00648997 -1.29667e-20)
(1.08668 0.0525113 -3.20639e-21)
(1.08613 0.0522084 -5.38868e-22)
(1.08618 0.05307 -1.78693e-20)
(-0.29249 -0.00653282 3.65918e-20)
(-0.315412 -0.00627097 0)
(-0.302888 -0.0031481 7.67098e-20)
(1.03417 -0.0194313 -1.49994e-21)
(1.03505 -0.019478 5.76499e-21)
(1.0347 -0.0203276 -2.79392e-21)
(1.19761 0.0324292 -1.71759e-21)
(1.19952 0.0305399 5.43946e-20)
(1.19718 0.0337519 -8.64089e-21)
(1.13748 0.0468268 -6.33414e-21)
(1.13505 0.0454829 -4.78775e-20)
(1.11245 0.00281804 2.84308e-20)
(1.11161 0.000930135 -2.73319e-21)
(1.11008 0.00280859 1.26911e-20)
(1.03861 -0.0908235 0)
(1.03533 -0.0911779 0)
(1.03696 -0.0877726 3.63789e-21)
(0.726813 -0.351781 -6.15776e-20)
(0.577155 -0.288189 5.15553e-20)
(0.441874 -0.225724 0)
(1.00005 -0.00019569 -6.47292e-23)
(1.00009 -0.000259681 2.08766e-21)
(1.00006 -0.000164691 1.52123e-21)
(1.22049 -0.0228327 -1.65555e-20)
(1.21165 -0.0231327 3.21383e-20)
(1.11317 -0.0112367 -1.88414e-21)
(1.08668 0.0411212 6.30052e-21)
(1.08657 0.0418575 -2.64996e-21)
(1.08742 0.041628 0)
(1.09762 0.0708075 -2.89757e-20)
(1.09863 0.0724953 -6.49136e-21)
(1.09662 0.0719082 -1.26789e-20)
(1.15654 0.0674295 -1.16555e-20)
(1.16192 0.0685953 -5.30173e-22)
(1.10688 0.0706218 -2.52384e-20)
(0.461976 0.0386659 5.4164e-21)
(0.438405 0.0363674 -1.6065e-21)
(0.42948 0.0357857 -3.21183e-21)
(1.0206 -0.0122143 -1.48537e-21)
(1.02023 -0.0125849 1.44044e-22)
(1.01998 -0.0119411 0)
(-0.0791612 -0.0133622 -1.01985e-19)
(-0.108518 -0.0131799 1.90181e-22)
(-0.062028 -0.0128661 0)
(1.0589 0.00984413 1.94568e-21)
(1.05772 0.0096537 4.69829e-21)
(1.1277 0.0501853 0)
(1.12588 0.0507621 0)
(1.12638 0.0484682 -1.88421e-20)
(0.359 0.0580728 0)
(0.348804 0.0573933 1.0844e-20)
(0.405917 0.0622406 -3.72739e-20)
(1.1247 -0.0844833 7.12523e-21)
(1.12592 -0.0810153 0)
(1.12801 -0.0851961 -1.20947e-20)
(0.462953 0.0361206 2.85769e-21)
(0.49414 0.038829 0)
(0.471355 0.0354994 1.35636e-20)
(1.00002 -0.000127176 -3.63377e-21)
(1.00005 -0.000234148 -1.78869e-21)
(1.26925 -0.150434 4.43625e-20)
(1.1984 -0.13952 0)
(1.18069 -0.13048 -3.60495e-20)
(-0.00827709 0.016151 1.89941e-20)
(0.00769201 0.0173202 0)
(0.0392718 0.0178767 0)
(1.00511 -0.037696 -4.37984e-21)
(1.00589 -0.0368332 -1.20485e-21)
(1.00626 -0.0380909 -5.67209e-21)
(0.178338 0.0434851 -1.3482e-20)
(0.223316 0.0483505 6.15376e-20)
(0.188553 0.0449446 2.17624e-20)
(0.484878 0.04188 8.19651e-21)
(0.494413 0.0416257 -4.66081e-21)
(-0.278273 -0.00585976 -1.23197e-20)
(-0.280833 -0.00709502 -8.46295e-20)
(1.09913 -0.461814 -1.45605e-20)
(1.09095 -0.469402 1.07625e-21)
(1.08509 -0.474682 0)
(0.507413 0.0488421 1.8506e-21)
(0.497326 0.048493 6.13845e-22)
(0.470473 0.0441797 -2.48677e-21)
(1.0144 -0.0226776 -2.27084e-22)
(1.01368 -0.0227039 4.47375e-22)
(1.01395 -0.0218908 -1.30407e-22)
(1.01984 -0.000105597 -1.70354e-21)
(1.01965 -3.88432e-05 -4.07962e-21)
(1.09333 0.0543264 1.77501e-20)
(1.09263 0.0549064 -6.27107e-21)
(1.09272 0.0537408 8.7789e-21)
(1.04448 -0.0579811 7.92898e-21)
(1.04266 -0.0561034 3.43371e-21)
(1.04522 -0.0560564 -1.60147e-22)
(0.980682 -0.017205 1.28511e-20)
(0.979291 -0.0175094 -1.13177e-20)
(-0.217483 0.003003 -1.99899e-20)
(-0.215376 0.00213576 -6.04823e-20)
(-0.252256 0.000443969 -1.20746e-19)
(0.972755 -0.0113321 8.84598e-21)
(0.973974 -0.0114531 -8.4932e-21)
(0.973125 -0.0126151 -5.57114e-21)
(1.08713 0.0528718 -1.59301e-21)
(1.08698 0.0521672 0)
(1.07447 0.0196154 -1.94881e-20)
(1.07553 0.0201381 5.3055e-21)
(1.07447 0.0207432 -1.28458e-20)
(0.145483 0.00729936 8.95589e-21)
(0.163792 0.011428 -9.89122e-21)
(0.139714 0.00715377 -3.27226e-20)
(1.00454 -0.0386098 2.91288e-22)
(1.00411 -0.0372728 1.95746e-21)
(1.1285 0.0524358 -3.84052e-20)
(1.12973 0.0498292 -1.80223e-20)
(0.165272 0.042575 -5.60009e-20)
(0.139371 0.0366499 -3.05764e-20)
(1.08552 0.0663555 -8.17554e-21)
(1.08704 0.0670413 7.45334e-21)
(1.08922 0.0682918 -2.3143e-20)
(-0.0428545 0.00874155 7.41546e-21)
(-0.0317492 0.0093574 0)
(-0.019176 0.0123549 0)
(1.00098 -0.00759914 2.26543e-21)
(1.00111 -0.00754368 8.05706e-23)
(1.09855 0.0696205 1.35546e-21)
(1.09964 0.0700873 -2.41663e-20)
(0.995559 -0.00210783 -5.12484e-22)
(0.995624 -0.00253239 -2.31489e-21)
(0.995136 -0.00246425 0)
(1.04355 -0.0593998 8.59062e-21)
(1.04589 -0.059137 8.24563e-22)
(0.864994 -0.450121 -6.52057e-21)
(0.889043 -0.445041 -9.4732e-21)
(0.872515 -0.428181 3.64358e-21)
(0.838918 -0.454561 -1.94254e-21)
(0.858302 -0.479157 -2.89453e-21)
(-0.0547779 0.00497202 6.03804e-21)
(-0.0703852 0.00364891 4.41783e-20)
(0.699528 -0.116672 1.93696e-21)
(0.693038 -0.132969 -2.28457e-20)
(1.02003 -0.0394899 6.50628e-22)
(1.01886 -0.0396882 -9.23364e-23)
(1.01936 -0.0384257 -1.72098e-22)
(-0.135366 -0.0180294 -3.9799e-20)
(-0.166556 -0.0145482 3.94544e-20)
(-0.154196 -0.0155747 -8.14658e-20)
(-0.140914 -0.00606343 -1.50233e-21)
(-0.172611 -0.00471166 -2.6451e-20)
(-0.14248 -0.00736957 4.0523e-20)
(1.11996 0.00618057 1.77935e-20)
(1.1212 0.00463085 2.43118e-20)
(1.12225 0.00680925 1.40662e-20)
(0.993764 -0.0256962 3.03247e-21)
(0.992963 -0.0253371 0)
(0.993118 -0.0264844 0)
(-0.0249513 0.00981843 5.73898e-21)
(-0.0530129 0.00410316 2.93583e-20)
(1.08126 0.018299 1.60422e-20)
(1.08086 0.0171664 1.47223e-20)
(1.08214 0.0175264 -6.46877e-22)
(1.01989 -0.0741649 -1.08189e-21)
(1.01759 -0.0729169 4.95068e-22)
(1.01971 -0.0713995 4.18945e-22)
(-0.276152 -0.00634839 4.27463e-20)
(-0.260384 -0.00552869 -7.9209e-20)
(1.02124 -0.00624089 6.99358e-23)
(1.02104 -0.00659271 2.38319e-21)
(1.02174 -0.00659934 3.08272e-22)
(1.22389 -0.0189623 -1.39358e-20)
(1.26738 -0.0265193 1.39818e-21)
(1.00479 -0.0179443 -1.67535e-21)
(1.00462 -0.0172903 -1.23953e-22)
(1.00427 -0.0176179 7.27127e-22)
(1.02132 -0.0395537 1.10532e-21)
(1.02063 -0.0408773 2.19542e-22)
(1.2547 -0.0893144 1.61669e-21)
(1.25474 -0.0843804 1.10009e-19)
(1.2589 -0.088979 3.9428e-22)
(1.12105 -0.0842556 -1.71899e-20)
(1.12279 -0.0883039 7.31306e-21)
(0.0665462 0.00875203 3.98012e-21)
(0.0762337 0.00965591 2.1143e-20)
(0.0892997 0.0139469 3.0651e-20)
(-0.0201902 0.00914573 1.96873e-21)
(-0.00238451 0.0134575 4.3518e-21)
(-0.123835 -0.00986588 1.81791e-20)
(-0.115095 -0.00966081 -2.34503e-20)
(-0.0825416 -0.0119751 -5.41977e-20)
(1.04061 -0.0933772 0)
(1.04159 -0.0899678 -4.28138e-21)
(0.265864 0.00642305 -1.85663e-20)
(0.240394 0.00267719 -8.02654e-21)
(0.267385 0.00702663 7.12776e-21)
(0.991281 -0.0112103 1.07207e-21)
(0.991735 -0.0116682 0)
(0.991846 -0.0108472 0)
(-0.0615015 -0.0151427 7.44654e-21)
(-0.101826 -0.0118968 -1.12629e-19)
(0.970778 -0.0112679 1.86001e-20)
(0.972199 -0.00961511 -9.41516e-21)
(1.05962 0.00938334 -5.19882e-21)
(1.05998 0.0102039 -6.17047e-21)
(-0.257985 -0.00301832 4.38703e-20)
(-0.258379 -0.00505432 4.12909e-20)
(-0.134575 -0.0104003 8.37636e-20)
(-0.159792 -0.00935296 3.10517e-20)
(-0.0184953 0.0214948 -1.24996e-20)
(-0.0347164 0.0175134 5.46958e-20)
(-0.053945 0.0153972 -5.09028e-20)
(1.09025 -0.43938 7.6498e-21)
(1.08119 -0.421128 3.73218e-20)
(1.0688 -0.433401 -1.15014e-20)
(1.00945 -0.0237688 1.25796e-22)
(1.00876 -0.0237611 2.48197e-22)
(1.00941 -0.0245735 -5.17543e-22)
(1.08976 0.0544685 -7.04381e-21)
(1.08901 0.054072 0)
(1.08956 0.053644 0)
(-0.157306 0.00503031 -1.04609e-20)
(-0.155407 0.0040575 -9.86704e-21)
(-0.188059 0.000719612 1.57018e-20)
(1.20772 -0.188541 -2.95216e-22)
(1.21549 -0.188715 -2.13516e-21)
(1.21119 -0.195811 -3.91746e-20)
(1.0905 0.0550332 -5.87095e-21)
(1.08948 0.0555276 1.6432e-21)
(0.807234 -0.118983 6.6433e-21)
(0.80548 -0.108511 -1.75255e-20)
(0.81638 -0.113123 1.6879e-21)
(0.814369 -0.151864 4.71405e-20)
(0.812446 -0.140301 -1.74895e-20)
(0.801526 -0.148569 -3.37577e-20)
(0.988767 -0.0268722 -8.5307e-21)
(0.989716 -0.0271854 6.08591e-21)
(0.988903 -0.0282599 -2.36405e-21)
(1.01723 -0.0221191 -9.30814e-22)
(1.01777 -0.0228693 -8.82175e-22)
(1.01782 -0.0220057 -5.29193e-22)
(1.12549 -0.00865368 -8.71234e-21)
(1.12697 -0.0102786 -4.41997e-20)
(1.12793 -0.00737352 6.46767e-21)
(1.01669 -0.0212968 1.3424e-21)
(1.01642 -0.0222279 -5.74138e-23)
(-0.139238 -0.0067293 -1.27704e-21)
(-0.106213 -0.00883779 4.02783e-22)
(1.05906 0.00854718 7.0299e-22)
(1.06036 0.00880884 -2.0304e-21)
(1.03336 -0.0194271 -2.59353e-21)
(1.03368 -0.0186974 6.04221e-21)
(1.02512 -0.125888 -3.72861e-21)
(1.02716 -0.130185 -2.08678e-21)
(1.02201 -0.129114 3.89388e-22)
(1.01514 -0.0227484 -1.10013e-21)
(1.01502 -0.023581 1.22358e-22)
(1.20714 -0.0203612 0)
(1.20603 -0.0169478 0)
(1.21 -0.0187404 0)
(1.15881 -0.0455473 -1.90044e-20)
(1.15557 -0.0444212 0)
(1.15612 -0.0479525 0)
(1.11529 0.0529368 5.13669e-22)
(1.11376 0.0531948 1.15452e-20)
(1.11489 0.0546065 3.7964e-20)
(1.07345 0.019035 -5.1188e-21)
(1.07441 0.0184746 -1.71953e-21)
(1.01421 -0.00799142 3.24045e-22)
(1.01399 -0.00822633 0)
(1.01455 -0.00833203 -1.8746e-23)
(1.01383 -0.000766233 0)
(1.01388 -0.00116853 -6.48855e-22)
(-0.217548 -0.0126999 0)
(-0.197324 -0.0163876 0)
(-0.10918 -0.020521 8.25896e-20)
(-0.0953498 -0.021006 2.089e-20)
(1.10965 -0.349753 -1.01893e-20)
(1.10079 -0.360142 2.55589e-20)
(1.11553 -0.360836 5.99907e-21)
(1.02869 -0.0164483 -1.39977e-21)
(1.02771 -0.0163686 1.89217e-21)
(1.02809 -0.0157521 -1.3898e-21)
(1.01426 -0.0392944 7.81204e-22)
(1.01529 -0.0399708 -7.25372e-22)
(1.01427 -0.0406628 6.77634e-22)
(0.0825962 0.024908 5.52173e-21)
(0.102975 0.0290042 0)
(0.078831 0.0256646 0)
(1.17645 0.043922 -9.41876e-21)
(1.17931 0.0428893 -7.46681e-21)
(1.17994 0.0464475 5.73793e-21)
(0.603209 -0.196098 -1.95013e-20)
(0.626295 -0.188891 0)
(0.622613 -0.218657 -7.95582e-20)
(1.01026 -0.0239887 -2.74714e-21)
(1.00964 -0.0230007 -1.61198e-21)
(1.12869 -0.150535 -1.10241e-20)
(1.12669 -0.144564 6.0131e-21)
(1.12345 -0.150083 -1.24745e-20)
(0.235156 0.0485682 1.28999e-20)
(0.197831 0.0444496 1.18208e-20)
(0.227074 0.0479537 1.63714e-20)
(1.10993 0.0128991 2.134e-20)
(1.11129 0.0142825 5.74293e-20)
(1.11125 0.0118308 3.89095e-20)
(1.03212 -0.0907752 -2.23201e-21)
(1.03347 -0.093989 0)
(1.09615 -0.0670199 -1.15802e-20)
(1.09736 -0.0639085 2.53661e-20)
(1.09386 -0.0650822 9.27086e-21)
(1.33561 -0.161484 4.8703e-20)
(1.32985 -0.152425 -4.58157e-20)
(0.377032 0.0584311 1.07541e-20)
(0.325139 0.0548464 0)
(1.16373 -0.098103 0)
(1.16093 -0.0939655 0)
(-0.020964 0.0195251 -2.78142e-20)
(-0.0500743 0.0186959 0)
(-0.0606298 0.0176785 0)
(0.716544 -0.114892 3.49141e-21)
(-0.111768 -0.00908998 -9.03326e-20)
(-0.143414 -0.00779267 4.74024e-20)
(0.852301 -0.0884815 -1.28702e-20)
(0.843061 -0.0871555 4.87942e-21)
(0.847994 -0.0799316 5.7505e-21)
(1.10725 0.0156783 0)
(1.10547 0.0151339 -2.12e-20)
(1.10608 0.0170423 0)
(1.25483 -0.095016 -4.20842e-20)
(1.24968 -0.0901948 1.84185e-21)
(0.973582 -0.0443939 0)
(0.973724 -0.0423368 0)
(0.975466 -0.0431711 -1.67219e-20)
(0.990751 -0.0108264 -5.24596e-21)
(0.990632 -0.0117362 -3.68322e-22)
(0.744699 -0.295059 0)
(0.727996 -0.309605 -3.10336e-20)
(0.751328 -0.312933 7.56499e-22)
(1.1969 0.0168112 3.56232e-20)
(1.13092 0.0186513 3.45013e-20)
(1.12803 0.0218925 -1.07071e-20)
(1.00688 -0.0700332 -3.15666e-21)
(1.00654 -0.0720328 3.27908e-21)
(1.00443 -0.0708705 -1.56419e-21)
(1.02139 -0.00589524 -2.40926e-21)
(1.02076 -0.00595354 -2.55741e-21)
(-0.147187 -0.0102674 -5.29766e-20)
(0.304214 0.0268749 -1.14872e-20)
(0.305831 0.0291289 -3.20635e-21)
(0.281034 0.0232147 7.06035e-21)
(1.13193 -0.15492 -3.60558e-20)
(1.13406 -0.149464 -5.41803e-21)
(1.09117 0.0547157 -9.83937e-23)
(1.09113 0.0557658 1.15021e-20)
(1.20823 -0.0244826 4.3145e-20)
(1.20385 -0.0224043 0)
(1.1619 -0.0466691 -1.79381e-20)
(1.16128 -0.0431429 1.96889e-20)
(1.18879 0.0327479 -3.44617e-20)
(1.19081 0.030666 9.85652e-22)
(1.18766 0.0298959 -3.50052e-20)
(0.972167 -0.0207097 2.10348e-21)
(0.972871 -0.0221199 9.41392e-21)
(0.971065 -0.0222401 9.00881e-21)
(0.983527 -0.00854704 5.98198e-21)
(0.982952 -0.00787954 2.89627e-21)
(0.983948 -0.00765144 0)
(1.00132 -0.00650236 -1.13772e-21)
(1.00123 -0.00662534 -1.87434e-21)
(1.00114 -0.00619798 -3.599e-21)
(-0.0222123 0.0146176 3.94421e-20)
(-0.0463638 0.0118839 -3.16956e-21)
(1.10484 0.0122567 2.01752e-20)
(1.10467 0.0139277 -6.55659e-22)
(1.10363 0.0127473 2.55237e-20)
(1.06044 0.000307403 -6.10339e-21)
(1.06104 0.000870704 4.63038e-21)
(1.0615 5.68394e-06 5.18118e-21)
(1.00012 -0.000474272 -3.56122e-23)
(1.00012 -0.000416153 1.87147e-21)
(1.00018 -0.00056611 1.08196e-23)
(0.450155 0.0345968 1.66241e-21)
(0.443583 0.0358967 -9.16794e-21)
(0.47742 0.038302 -3.7216e-21)
(1.12446 -0.00621412 3.84624e-20)
(1.12282 -0.00917751 0)
(1.09416 0.0535886 -1.40412e-20)
(1.09435 0.0548915 1.89776e-21)
(0.102201 0.0119156 -1.13404e-20)
(0.0829024 0.00667189 -2.92549e-20)
(0.391512 0.049552 2.90071e-21)
(0.363835 0.0465119 1.9087e-20)
(0.397704 0.0483804 0)
(0.380609 0.049027 1.11898e-20)
(0.423327 0.0531014 -8.85233e-22)
(-0.222388 0.00301243 9.55727e-21)
(-0.191439 0.00525328 6.60594e-20)
(1.02821 -0.122588 -7.74523e-22)
(1.02342 -0.121606 -2.91017e-21)
(0.735032 0.0602983 3.08399e-20)
(0.747975 0.0598456 -1.00169e-20)
(0.664015 0.0574371 6.44111e-21)
(1.00085 -0.00731514 1.86208e-21)
(1.00073 -0.00701508 -1.81999e-21)
(1.00083 -0.00694914 1.42778e-21)
(1.01449 -0.00773637 1.82208e-21)
(1.0139 -0.00759081 -7.23627e-22)
(1.14136 -0.0104189 2.18908e-20)
(1.14244 -0.0129627 -2.74126e-21)
(1.1395 -0.0126692 -1.18264e-20)
(1.00115 -0.000386149 0)
(1.00104 -0.000493681 6.03411e-22)
(1.00097 -0.000324688 0)
(-0.0069125 0.0231589 0)
(0.0203091 0.0242393 -2.68598e-20)
(1.11472 0.0734354 0)
(1.1157 0.0718121 2.13105e-20)
(1.11317 0.0730222 3.29565e-21)
(1.09701 0.0580135 6.98515e-21)
(1.09821 0.0584919 -3.23326e-21)
(1.09665 0.0593742 3.41991e-21)
(1.01476 -0.00751412 3.64425e-23)
(1.01505 -0.00787224 1.27097e-21)
(1.07954 0.0196558 -1.34075e-20)
(1.08044 0.0189441 -1.09163e-20)
(1.07911 0.0186158 -2.20688e-20)
(1.09581 0.0576486 1.06015e-21)
(1.09678 0.0568129 -1.76661e-22)
(1.17385 0.045992 -3.77515e-20)
(1.17382 0.0420165 5.9334e-20)
(1.1142 -0.447635 -3.81443e-20)
(1.03081 -0.119095 7.13468e-21)
(1.02896 -0.115119 1.94354e-21)
(1.03313 -0.11562 -3.8237e-21)
(1.10835 0.014474 -1.83394e-20)
(1.10787 0.0121388 -2.01528e-20)
(-0.291447 -0.00743045 -5.12138e-20)
(-0.288901 -0.00561595 -1.29563e-20)
(0.322173 0.0304552 1.62501e-20)
(0.299353 0.0245059 -7.10541e-21)
(1.12423 0.0509148 0)
(1.1252 0.0526211 3.90272e-20)
(0.891662 -0.063555 2.67311e-20)
(0.887371 -0.0595037 -6.17585e-21)
(0.886171 -0.066103 8.18188e-21)
(0.976391 -0.0233215 -1.04148e-21)
(0.975911 -0.0221012 -8.93135e-21)
(0.977344 -0.0221006 -1.00259e-21)
(1.01831 -0.0162427 9.57006e-22)
(1.01835 -0.016894 1.02211e-21)
(1.01908 -0.0165833 -2.13868e-21)
(1.25101 0.0104805 -4.51617e-21)
(1.24665 0.0157798 3.49374e-20)
(1.10616 0.011494 0)
(1.10451 0.0105197 9.39172e-21)
(0.0645461 0.00508699 1.1987e-20)
(0.0538322 0.00331076 2.48311e-20)
(1.08006 -0.0350351 2.05674e-21)
(1.08223 -0.0361542 -6.3576e-22)
(1.00711 -0.0677187 0)
(1.0093 -0.0691022 -4.66266e-22)
(1.08838 0.0537207 0)
(1.08772 0.053236 -1.63068e-21)
(1.08822 0.052814 1.13701e-20)
(1.12268 0.0507633 1.2488e-20)
(1.12332 0.0489722 1.32145e-20)
(1.04466 -0.011262 -2.47582e-21)
(1.04561 -0.0116738 2.78059e-21)
(1.04473 -0.0121576 4.89489e-21)
(1.04084 -0.0283396 0)
(1.03952 -0.0283171 -3.93168e-21)
(1.04016 -0.0273172 0)
(0.699512 -0.146814 2.87297e-20)
(0.720019 -0.150618 3.40581e-20)
(0.708985 -0.163954 2.51777e-20)
(1.25544 -0.0998952 -5.25184e-21)
(1.25539 -0.105537 -7.22563e-21)
(1.25012 -0.101291 -7.74294e-20)
(0.0134024 0.0257144 -6.23645e-21)
(0.034097 0.0272394 3.42284e-20)
(0.0488408 0.0284947 -4.40509e-20)
(0.138771 0.0407423 -8.72553e-21)
(0.126086 0.0393221 0)
(0.175757 0.043655 1.68766e-20)
(1.09748 0.00772442 -1.65429e-20)
(1.09841 0.00944669 9.80191e-21)
(0.928744 -0.696156 0)
(0.928007 -0.750701 -3.31856e-20)
(0.979328 -0.749244 0)
(-0.0171925 0.0240783 1.59917e-20)
(-0.00253837 0.0249508 -2.26773e-20)
(0.93631 -0.0201907 3.04972e-20)
(0.93878 -0.0190871 -1.27013e-20)
(0.936175 -0.0171428 -1.14293e-20)
(1.09886 0.0226645 -7.51423e-21)
(1.09971 0.0216794 -3.57854e-21)
(1.09821 0.0218099 1.60714e-20)
(0.284592 0.0388886 -4.57765e-21)
(0.305466 0.0420874 -8.48297e-21)
(0.273263 0.0378903 -5.25799e-21)
(1.07417 -0.0449561 1.09446e-21)
(1.0753 -0.0462414 -5.11037e-21)
(1.07304 -0.0465402 -1.0905e-20)
(1.08576 0.0519626 2.66719e-21)
(1.08526 0.0518393 0)
(1.08533 0.0524566 8.91313e-21)
(1.01351 -0.0389365 1.27906e-21)
(1.01422 -0.0384762 1.51605e-21)
(1.25945 -0.0987088 -7.75563e-20)
(1.00008 -0.00188435 -2.49617e-21)
(1.00013 -0.00220445 1.46751e-21)
(1.0001 -0.00226144 3.16556e-21)
(1.12819 -0.0774136 0)
(1.13001 -0.0747616 0)
(1.13138 -0.0791122 2.96639e-20)
(1.02172 -0.0796303 1.51687e-21)
(1.02415 -0.0800299 5.05228e-22)
(1.02269 -0.0822117 1.0307e-21)
(0.981342 -0.0161838 5.12274e-22)
(0.982022 -0.0169905 3.13723e-22)
(1.14605 0.0581794 -1.42169e-20)
(1.14534 0.0603301 -1.57379e-20)
(1.1477 0.05963 0)
(1.04453 -0.0205698 6.08924e-22)
(1.04349 -0.0199055 4.25643e-21)
(1.04475 -0.0194416 3.82517e-21)
(0.178795 -0.537669 9.02169e-20)
(0.134096 -0.582973 -2.66138e-20)
(1.01451 -0.00708913 -1.36136e-21)
(1.01511 -0.00728202 -1.51405e-21)
(1.13945 0.0460564 3.39067e-21)
(1.14154 0.0450489 7.91213e-21)
(1.13919 0.0438149 -1.77788e-20)
(0.0587905 0.00821224 -3.50436e-20)
(0.0418509 0.00461017 -2.69473e-20)
(-0.0355881 0.018081 2.48012e-20)
(-0.0438476 0.0189224 -4.29122e-20)
(-0.00105798 0.0207779 -7.29584e-20)
(0.897636 -0.0724532 2.44738e-20)
(0.902866 -0.0710441 1.56479e-20)
(0.901195 -0.0767879 -5.47325e-22)
(1.09791 0.0236754 1.40056e-20)
(1.09937 0.0236219 1.19358e-21)
(1.00004 -0.00124846 5.16619e-21)
(1.00002 -0.000935653 -7.52892e-23)
(1.00002 -0.000947946 0)
(0.754688 -0.281184 0)
(0.734881 -0.275152 0)
(1.00127 -0.0130838 -2.71365e-21)
(1.00131 -0.0124953 -2.93062e-21)
(1.0016 -0.012958 -1.7113e-21)
(1.12466 -0.0764205 1.76828e-20)
(0.0165754 -0.0412195 8.61292e-20)
(-0.0589184 -0.0351094 4.77319e-20)
(-0.0339984 -0.0378176 2.07018e-20)
(0.894713 -0.0686392 1.06775e-20)
(0.896577 -0.0623085 1.0992e-20)
(1.07267 -0.0432094 7.86754e-21)
(1.07511 -0.0427968 8.2392e-21)
(0.996503 -0.000425799 -3.57481e-21)
(0.996129 -0.000671826 -4.06772e-21)
(0.106758 0.03785 3.85693e-20)
(0.146753 0.0402251 1.08125e-20)
(1.02132 -0.0123981 5.05305e-22)
(1.02094 -0.0117403 -1.47561e-21)
(0.90969 -0.421194 3.87743e-20)
(1.0329 -0.492602 -2.22634e-20)
(0.118381 0.0376452 0)
(0.107994 0.0357525 0)
(0.152809 0.0396609 -1.71238e-22)
(1.19967 -0.188049 -3.16086e-20)
(1.2043 -0.181197 2.17539e-21)
(1.00011 -0.000529206 0)
(1.00006 -0.000380313 -1.7138e-21)
(1.26612 -0.318672 0)
(1.28841 -0.316969 0)
(1.29558 -0.331228 4.93345e-20)
(-0.0137997 0.00866923 -8.38466e-21)
(-0.00556022 0.0086955 -2.57342e-20)
(0.00999363 0.0140914 -1.98674e-20)
(0.547816 0.0525971 4.80194e-21)
(0.516375 0.0484324 -1.62197e-21)
(1.08592 0.0516734 2.71946e-21)
(1.10326 -0.0140092 -5.0776e-22)
(1.10359 -0.0162534 -4.88768e-22)
(1.10122 -0.0148264 -1.00643e-20)
(0.718085 -0.34398 -1.37522e-20)
(0.711311 -0.32466 -2.74851e-20)
(0.693439 -0.339527 0)
(1.14461 0.0567663 1.07235e-20)
(1.14686 0.0559726 8.92415e-22)
(1.07984 0.0207116 -1.37793e-21)
(1.07854 0.0203369 1.89127e-20)
(1.09216 -0.409733 1.93038e-20)
(1.07526 -0.406525 2.82609e-21)
(1.04584 -0.131816 -2.3175e-21)
(1.04118 -0.131771 1.2457e-21)
(1.04369 -0.127914 -3.51368e-21)
(0.209641 0.00753943 6.96982e-21)
(0.190617 0.00541168 -1.20844e-22)
(0.19147 0.00428332 -3.25797e-22)
(1.16535 0.0277099 -1.76109e-21)
(1.16316 0.0300713 3.886e-20)
(1.16266 0.0262201 4.15772e-20)
(1.00992 -0.000573679 8.17759e-23)
(1.01049 -0.000816734 -9.35139e-22)
(1.01002 -0.00121762 8.58345e-22)
(1.08091 -0.0155874 0)
(1.07911 -0.0153076 0)
(1.07967 -0.0169833 0)
(1.08828 0.0545911 1.53195e-20)
(0.451023 0.0335291 9.51713e-21)
(0.425681 0.032929 6.22238e-21)
(0.325405 0.00688874 3.86971e-21)
(0.344253 0.00988854 8.57843e-22)
(0.333315 0.00714565 -6.53389e-21)
(1.01768 -0.0158985 -1.87486e-22)
(1.01832 -0.0157113 -6.76441e-22)
(0.584458 -0.209772 -1.58046e-20)
(0.992145 -0.0120616 0)
(0.992584 -0.0124424 0)
(0.992705 -0.0116829 6.89857e-21)
(1.12569 0.0612717 -1.0266e-20)
(1.12745 0.0610402 1.66144e-20)
(1.12632 0.0595437 -1.07851e-20)
(1.18124 0.0404069 0)
(1.18332 0.0385067 6.75712e-22)
(1.17965 0.0381647 2.94955e-20)
(1.08225 -0.0161791 0)
(1.08179 -0.0148388 0)
(1.12333 -0.00460724 6.87863e-21)
(1.12533 -0.00360316 2.0902e-20)
(1.16769 0.0263617 2.34001e-21)
(1.16778 0.0300349 -5.27466e-20)
(0.998646 -0.0241223 -3.17746e-21)
(0.999314 -0.0248627 -1.15957e-22)
(0.999289 -0.0236478 0)
(0.809706 -0.128861 1.35497e-20)
(0.798035 -0.124428 2.20339e-20)
(1.09643 0.0514143 5.13876e-21)
(1.09552 0.0522674 1.25385e-20)
(1.09541 0.0509269 1.15976e-20)
(1.16771 0.075454 3.67132e-20)
(1.16632 0.0742152 -3.57345e-20)
(1.18203 0.0738802 -5.25859e-20)
(0.997558 -0.00821244 -7.03792e-21)
(0.997855 -0.00796536 -6.37212e-21)
(0.997646 -0.00765579 5.5296e-22)
(0.98192 -0.0152863 -2.34635e-20)
(0.980576 -0.0154655 -8.09787e-21)
(0.892537 -0.0740738 -1.53488e-21)
(0.364977 0.0522542 -3.4026e-21)
(0.375541 0.0526306 5.82995e-21)
(0.408374 0.0564889 -3.50054e-21)
(-0.242845 -0.00967092 1.48222e-20)
(-0.270674 -0.00758281 1.70579e-19)
(-0.245421 -0.0105673 -1.39208e-20)
(1.11446 0.00768744 9.88355e-21)
(1.1136 0.00641852 -8.06836e-21)
(1.11549 0.00627573 1.84594e-21)
(1.02955 -0.0165398 2.48227e-21)
(1.02918 -0.0172071 -3.02878e-21)
(1.1721 0.0474915 -2.09165e-21)
(1.1752 0.0490946 -7.06323e-21)
(1.18692 0.034733 -1.01136e-21)
(1.18501 0.0367094 -3.36181e-22)
(1.18372 0.0341037 -1.59894e-20)
(1.11847 0.0494307 1.17898e-20)
(1.11651 0.0498151 -6.68148e-23)
(1.11705 0.0480636 1.40771e-20)
(1.1223 -0.00234415 -3.66688e-20)
(1.12097 -0.0050109 -4.72667e-20)
(0.354892 0.0503077 1.00131e-20)
(0.328617 0.0458438 2.23284e-20)
(-0.124883 0.00526914 -4.0869e-21)
(-0.12184 0.00458442 -6.63574e-21)
(-0.15501 0.00190084 -4.81693e-22)
(1.08426 -0.0227725 -7.5178e-21)
(1.08461 -0.024352 -1.38306e-20)
(1.08601 -0.0227794 -6.84524e-21)
(1.09448 0.00488714 -9.92729e-21)
(1.09588 0.00525946 1.96376e-20)
(1.09435 0.00626454 1.91194e-20)
(1.21675 -0.18486 0)
(1.18882 -0.172933 0)
(1.0503 -0.148367 0)
(1.01966 -0.0209589 -1.81035e-22)
(1.02011 -0.0217885 -7.84594e-22)
(1.01895 -0.0213119 -6.1048e-22)
(1.00138 -0.00632824 2.25843e-21)
(1.00144 -0.00617238 -1.19314e-21)
(1.00126 -0.00591335 2.64446e-21)
(1.12004 0.0493304 1.27713e-20)
(1.11926 0.051082 2.06578e-20)
(1.14513 -0.115756 -2.35584e-20)
(1.14311 -0.11149 -4.20976e-21)
(1.1401 -0.115489 -3.26077e-20)
(1.02206 -0.0124593 5.63023e-21)
(1.0227 -0.0125569 7.29061e-22)
(1.02227 -0.0120108 1.45356e-21)
(1.00017 -0.00220386 -1.03266e-21)
(1.00014 -0.00220186 2.94551e-22)
(1.0001 -0.00187756 -5.70189e-21)
(1.00123 -0.0135064 -2.32174e-21)
(1.001 -0.0130612 -4.12628e-21)
(1.00403 -0.000697891 1.46948e-23)
(1.00432 -0.000720876 -1.04434e-22)
(1.00402 -0.000416289 1.1638e-23)
(1.09853 -0.00718812 -1.81713e-20)
(1.10048 -0.00727324 -9.05275e-21)
(1.09966 -0.00544342 0)
(1.0015 -0.00678605 7.00388e-24)
(0.293909 0.0392851 5.82675e-21)
(0.324768 0.0430893 9.82819e-21)
(1.11447 0.00305485 7.50102e-21)
(1.11272 0.00456143 -6.39777e-21)
(1.01116 -0.0317244 5.99801e-22)
(1.01038 -0.0316702 1.04374e-21)
(1.01102 -0.0325074 1.96616e-21)
(0.435882 0.0300253 2.1863e-21)
(0.0807595 0.0246158 1.81421e-21)
(0.0631056 0.0224201 4.469e-21)
(0.97371 -0.016764 0)
(0.974211 -0.0181091 0)
(0.975185 -0.016952 0)
(1.13963 0.0484621 5.87478e-20)
(-0.18908 0.00331994 9.05802e-21)
(-0.222472 0.000915008 8.07261e-21)
(-0.18685 0.00270573 -8.61918e-21)
(0.971774 -0.0456172 -6.29285e-21)
(0.973991 -0.0464123 -1.23968e-21)
(0.972985 -0.015412 7.0113e-21)
(0.971834 -0.016922 -1.18673e-20)
(1.11625 0.00239174 1.52848e-20)
(1.11622 0.00465513 -2.53351e-21)
(0.0409447 0.00610379 -9.55347e-21)
(0.0364286 0.00698213 2.56166e-20)
(0.0592561 0.0106376 7.14971e-20)
(0.278014 -0.00840554 3.81924e-20)
(0.204938 -0.00533044 1.3935e-21)
(0.264761 -0.0100002 -9.69142e-20)
(1.14086 0.000629375 6.55583e-21)
(1.14361 0.000525167 -2.81743e-20)
(1.14176 -0.00152657 -1.43235e-20)
(1.00235 -0.000513559 1.03773e-21)
(1.00225 -0.00073125 -3.85564e-22)
(0.729392 0.0608617 -6.0064e-21)
(0.806429 0.0616261 2.61169e-20)
(1.00086 -0.00769163 4.69769e-22)
(1.14623 0.000469367 -1.46793e-20)
(1.1476 -0.0019873 -6.19097e-21)
(1.14933 0.000704083 -7.10664e-22)
(-0.194214 0.00348199 9.5657e-21)
(-0.163872 0.00723955 0)
(1.16743 0.0782386 -3.83537e-21)
(1.16891 0.0770671 4.88658e-20)
(1.17777 0.076397 -8.65101e-21)
(1.05975 -0.000608675 -2.4996e-21)
(1.05923 0.000278494 -6.89281e-21)
(1.2369 -0.20083 0)
(1.30027 -0.213016 -6.27623e-20)
(1.33455 -0.169453 -3.61167e-20)
(1.31018 -0.162666 -3.99497e-21)
(1.30877 -0.170942 7.5648e-21)
(-0.117424 -0.00472209 -4.14827e-21)
(-0.107394 -0.00355903 1.6583e-20)
(-0.0769312 -0.00525861 -4.06461e-21)
(1.20924 -0.0279065 9.09513e-21)
(1.20621 -0.0303148 -3.50868e-20)
(1.21033 -0.0316825 -3.8359e-20)
(0.783828 -0.0981116 -2.25163e-20)
(0.784185 -0.086683 -5.8364e-20)
(0.771868 -0.0912766 -8.07786e-21)
(0.00727984 0.0208882 -2.71951e-20)
(0.0192411 0.0220519 -2.71682e-20)
(0.124487 0.0336867 1.3827e-20)
(0.146244 0.0370652 3.98173e-21)
(0.118239 0.033129 1.38866e-20)
(1.18335 0.0654912 -2.35068e-20)
(1.14631 0.0652606 2.93771e-20)
(1.04211 -0.0284645 0)
(1.04141 -0.0295856 -2.42838e-21)
(-0.27042 -0.00608281 3.58819e-20)
(-0.246629 -0.00777263 4.50131e-20)
(-0.237495 -0.00696251 4.93161e-20)
(0.185958 2.93933e-05 0)
(0.189 -0.000395989 0)
(0.478101 -0.44961 -2.70876e-20)
(0.445157 -0.422976 -6.63502e-20)
(0.446648 -0.470756 4.95587e-20)
(0.507146 -0.429113 8.04276e-20)
(0.51691 -0.471003 6.12934e-20)
(0.9343 -0.0215296 2.73101e-20)
(0.935718 -0.0226719 3.3677e-20)
(1.14463 -0.00618802 1.41848e-20)
(1.14305 -0.00822874 -4.79619e-23)
(1.14599 -0.00835046 -4.98744e-20)
(0.943328 -0.116104 -9.85762e-21)
(0.946681 -0.111642 8.43397e-21)
(0.949263 -0.117347 3.01676e-22)
(0.280398 0.0091022 -1.90324e-21)
(0.259893 0.00466862 -1.22963e-20)
(0.789982 -0.145395 -2.56549e-20)
(0.788245 -0.132193 0)
(0.774956 -0.141316 1.57115e-20)
(1.00791 -0.00174107 4.95245e-23)
(1.00788 -0.0020705 3.22138e-23)
(1.00826 -0.00194516 1.85691e-22)
(1.01985 -0.000209527 1.44776e-22)
(1.01974 -0.000170344 1.08381e-21)
(1.06645 -0.0793704 1.3187e-20)
(1.06934 -0.0799847 5.23549e-21)
(1.06679 -0.082007 -4.20384e-21)
(-0.151422 -0.00764213 -1.71372e-20)
(-0.128463 -0.00590395 2.82507e-20)
(0.244933 -0.566545 5.40022e-20)
(1.02026 -0.0206067 -7.76775e-22)
(1.01923 -0.020272 -1.52297e-21)
(-0.066295 0.0176581 3.28727e-20)
(0.932481 -0.11315 0)
(0.938388 -0.115042 -9.87542e-21)
(0.936109 -0.109116 4.30478e-21)
(1.09522 -0.0694252 -2.71138e-20)
(1.09832 -0.0681812 1.35153e-20)
(1.06192 0.00145443 7.10874e-21)
(1.0609 0.001674 8.2514e-21)
(0.041809 0.00500485 -4.02464e-20)
(0.0219505 0.00435435 -1.33147e-20)
(1.16941 0.0493082 1.81977e-20)
(1.16973 0.0457069 3.60634e-20)
(1.08709 0.0537976 5.0677e-22)
(1.02084 -0.0767248 8.85018e-23)
(1.01904 -0.0786174 1.34729e-21)
(1.07128 -0.0419132 1.99013e-21)
(1.07051 -0.0436359 0)
(0.525301 0.0357815 -2.45538e-21)
(0.530087 0.0351617 -6.13296e-22)
(0.503715 0.0331978 0)
(0.975589 -0.0247405 0)
(0.977174 -0.0245535 -1.16771e-20)
(1.19054 0.0354689 0)
(1.08243 -0.0224449 0)
(1.08392 -0.0208209 1.18813e-20)
(1.11631 0.000406838 -2.39931e-20)
(1.11826 0.00216297 -1.98874e-21)
(0.92969 -0.1182 0)
(0.926347 -0.111882 -1.86347e-20)
(0.991581 -0.0124748 0)
(1.01232 -0.0319602 -1.15657e-22)
(1.01153 -0.0308724 -8.29233e-22)
(1.21811 -0.0850952 -8.27223e-21)
(1.21906 -0.089699 -1.59189e-22)
(1.22361 -0.084783 -3.36565e-21)
(1.22354 -0.189599 2.37513e-20)
(1.21941 -0.182292 0)
(1.16152 0.0316366 0)
(1.15941 0.033295 6.38932e-21)
(1.15916 0.0299391 2.49785e-20)
(1.33878 -0.172646 3.94738e-20)
(0.516896 0.0353292 3.03222e-21)
(0.547493 0.03757 -5.27514e-21)
(1.00841 -0.0731753 5.75945e-21)