/*--------------------------------*- C++ -*----------------------------------*\
| =========                 |                                                 |
| \\      /  F ield         | OpenFOAM: The Open Source CFD Toolbox           |
|  \\    /   O peration     | Version:  v2012                                 |
|   \\  /    A nd           | Website:  www.openfoam.com                      |
|    \\/     M anipulation  |                                                 |
\*---------------------------------------------------------------------------*/
FoamFile
{
    version     2.0;
    format      ascii;
    class       surfaceScalarField;
    location    "300";
    object      phi;
}
// * * * * * * * * * * * * * * * * * * * * * * * * * * * * * * * * * * * * * //

dimensions      [0 3 -1 0 0 0 0];
oriented        oriented;


internalField   nonuniform List<scalar> 
20642
(
-0.0207624
0.0258147
-0.00505222
0.30507
-0.0719129
-0.233156
-0.109898
0.0960335
0.0138647
-0.35176
0.139842
0.211922
0.382728
0.0316154
-0.414339
-0.0367114
0.341783
-0.22557
0.0243605
0.201211
0.0155005
0.221963
-0.237462
-0.245179
0.22329
0.0218902
0.00376991
0.00170014
-0.242245
0.257746
0.229646
0.133755
-0.363394
0.592826
-0.592758
0.197792
-0.035381
-0.162411
0.301324
0.0392307
-0.340551
-0.0251496
0.00438715
0.582835
-0.587916
0.00509447
0.0384921
-0.267983
0.229492
-0.0303306
-0.0826535
0.112984
-0.00162055
0.0267661
-0.0251455
-0.0819749
-0.191807
0.273783
0.636532
-0.376567
-0.259955
0.203556
-0.145805
-0.0577511
0.346863
0.289679
-0.0515017
-0.187005
0.238509
0.0648564
-0.262301
0.197446
0.0393387
-0.204366
0.165027
0.00376991
0.0885476
-0.282823
0.194276
-0.679792
0.393233
0.286559
0.00193182
0.00183809
0.0250451
-0.107917
0.0828723
0.0435729
0.254854
-0.298423
-0.000676936
0.0292092
-0.0285322
-0.66392
0.481594
0.182337
0.391387
-0.169423
0.268538
-0.364514
0.0959789
0.615928
-0.0999999
-0.515887
-0.0246582
-0.200911
0.231596
-0.00417929
-0.227416
-0.768532
0.601624
0.166917
0.408971
0.137679
-0.546643
-0.13762
0.25154
-0.113918
0.128357
-0.110637
-0.0177199
0.0167096
0.111648
0.184272
-0.0786645
-0.105608
0.227414
-0.309388
0.0113686
-0.0322391
0.0208705
0.343121
-0.268792
-0.0743282
-0.411354
-0.252557
0.348174
-0.118519
-0.15475
0.0456376
0.109112
0.0147113
-0.000552704
-0.0141586
-0.311808
-0.0912898
0.403107
0.0134324
0.362252
-0.375675
-0.0819839
-0.0727659
0.00193182
0.167246
0.0363112
-0.153177
0.562154
0.0557832
0.128489
-0.00690693
0.034457
-0.0275501
0.563456
-0.511442
-0.0520091
0.471232
-0.613678
0.142447
-0.263255
0.211757
-0.0685577
0.063565
0.00499275
0.104
0.452716
-0.556717
-0.280681
0.0750422
0.205639
0.190749
0.200638
-0.203752
-0.0022813
0.0194772
-0.0171959
-0.109568
0.0720315
0.0375362
0.01977
-0.0204469
-0.256649
-0.14327
0.399928
0.386959
-0.540127
0.0761361
-0.267942
-0.053246
-0.182226
0.235474
0.4254
-0.107385
-0.31801
-0.162269
0.549236
-0.260513
0.20727
0.235074
-0.191498
-0.379259
0.443392
-0.064125
-0.603515
0.575973
0.0275606
-0.419539
0.162901
0.0163848
0.0664191
-0.0828039
-0.229803
-0.299519
0.529363
0.0122752
-0.212202
0.199927
-0.0939875
0.119033
-0.635753
0.601553
0.0342514
-0.0274811
0.259078
0.480981
0.101865
-0.578585
0.404526
0.17407
0.114769
0.270036
0.0730849
-0.617237
0.207849
0.4094
-0.413672
0.286943
0.126735
-0.192132
0.00847228
-0.195275
0.186803
0.587394
-0.587291
-7.8746e-05
-0.137227
-0.498484
-0.153721
-0.0974254
0.251146
0.525682
-0.530673
0.00499496
0.541514
-0.0158284
0.00180152
-0.381054
0.517945
-0.591166
0.0732435
-0.00654468
0.43195
-0.0792243
0.0772655
0.00195885
0.0338552
-0.0475309
0.0136756
0.420818
0.142644
0.540807
-0.403122
0.174814
-0.135475
0.528524
0.0718768
-0.00411898
0.0333281
-0.103239
-0.179582
-0.0579437
-0.0106141
0.388566
-0.181772
-0.206792
0.100904
-0.131235
0.417693
0.16088
-0.578563
0.109327
-0.0914824
-0.017845
-0.466292
0.276744
0.189559
-0.0943037
-0.509194
0.168557
-0.577062
0.408514
0.265173
-0.19013
-0.134388
0.139667
-0.00527855
-0.0173595
-0.00146271
0.0188222
0.050611
-0.0342262
0.0757192
-0.27002
0.194303
0.259148
-0.183011
-0.423944
0.555113
-0.131155
-0.099174
-0.0352142
-0.0560808
0.15787
-0.101788
0.200679
-0.0614724
-0.139207
-0.00880199
-0.0323455
0.0411475
0.169636
0.218933
-0.0683139
0.124545
-0.0562306
0.038792
0.136022
-0.0059089
-0.0378471
0.043756
0.0169043
-0.0160793
-0.000825016
0.0484729
-0.247611
0.199139
0.615972
0.215395
0.0416481
-0.257043
-0.559566
0.397305
-0.0647753
-0.0144491
-0.541879
0.256394
0.285499
-0.151527
-0.2328
0.384338
-0.385115
0.583069
-0.197949
-0.0564745
-0.0530932
-0.134568
0.0306576
-0.0277557
-0.00290185
-0.45988
0.148083
-0.197975
-0.0292469
0.227223
0.567756
-0.694715
0.126963
0.24735
-0.398866
-0.151824
0.160297
-0.137521
-0.335281
0.472809
0.540641
-0.0226741
0.0287069
-0.0372051
0.00849819
-0.611446
0.604167
0.00728766
0.566647
-0.148946
-0.175367
-0.329012
0.504407
0.0752836
-0.0559105
-0.0193732
0.0625564
-0.310597
0.248044
0.300069
0.0493875
-0.0355156
-0.0138718
0.034823
-0.206793
0.17197
0.0147113
-0.016574
-0.011409
0.027983
-0.374344
-0.225403
0.599747
0.242883
-0.194409
0.0607535
0.310663
-0.371407
0.0493925
-0.0434694
-0.00592311
-0.0691326
-0.0228025
-0.0330034
0.055806
0.191841
-0.100144
-0.091696
0.598115
-0.105896
-0.492213
-0.144985
-0.206771
-0.15388
0.0176869
0.136193
-0.194117
0.138037
-0.233899
0.296458
-0.166791
-0.0832013
0.249994
0.407628
0.250271
0.0979101
0.148007
-0.0693458
-0.078661
0.104213
0.00511481
0.174264
0.026415
-0.103626
0.353905
0.0447918
0.103215
-0.388555
-0.291236
0.228762
-0.216486
0.141851
0.0499904
0.128603
-0.111893
0.0100057
-0.114476
0.10447
-0.0242881
0.00111621
0.0231719
-0.264486
-0.352742
0.0203904
-0.00246814
-0.0179222
-0.272877
0.107625
0.165253
0.0369539
-0.0457558
0.508784
-0.0271787
0.358088
-0.4956
0.282976
-0.239105
-0.0438699
0.0172382
-0.0191871
0.00194884
0.0175667
-0.000662372
-0.0845271
-0.235495
0.320026
0.198018
-0.0425403
-0.155478
-0.2726
0.306462
-0.0338612
-0.225455
-0.391001
-0.108243
0.309462
0.133937
-0.427098
-0.118573
0.545689
-0.056433
0.34872
-0.292284
0.276768
-0.333198
-0.00158155
0.0514753
-0.119789
-0.182754
-0.0559137
0.0535479
0.00236583
0.631833
-0.250444
-0.381342
0.722437
-0.410503
-0.311925
0.344079
0.378366
-0.0295085
-0.0200426
-0.104698
0.124741
-0.141349
0.0379768
0.103372
0.367316
0.179599
-0.546869
0.556801
-0.0855677
-0.123381
0.162174
0.0198376
0.124126
0.322323
-0.44644
-0.373391
0.497526
-0.31281
-0.455716
0.726624
-0.382537
0.312053
0.41458
-0.00927504
0.029045
-0.029108
0.0364688
-0.00736083
0.0869453
0.300068
-0.387006
0.477982
0.0861492
-0.56413
-0.116724
0.150276
-0.033552
-0.0242321
0.00209468
0.0221374
0.0128499
-0.511512
0.498671
0.52372
-0.156355
0.173278
0.0247397
0.0749404
-0.0618304
-0.01311
-0.0893884
-0.0485709
-0.00734284
-0.154668
0.13504
0.0196281
-0.342529
-0.199336
-0.0415942
0.0301852
-0.163117
0.0463937
-0.25017
0.146931
0.00879075
0.114835
-0.123626
0.233882
-0.318405
-0.0306895
-0.468503
0.219696
0.248816
0.05864
0.0961672
-0.154807
-0.046869
-0.134141
0.18101
-0.0153772
-0.340478
0.355864
0.601631
-0.187534
-0.337091
-0.114653
0.451748
0.375982
-0.561274
0.1853
-0.0031116
0.0213579
-0.0182463
0.0131585
-0.17032
0.157161
0.173627
-0.570892
0.397275
-0.664114
0.290734
-0.467222
0.131949
-0.279043
-0.385062
-0.191749
0.0616549
0.531239
-0.0197612
-0.163782
0.183544
0.586666
-0.413031
0.00183878
0.0152294
0.042083
-0.00822775
0.0792141
-0.402991
0.323791
0.31648
0.119969
-0.436444
-0.170349
0.139741
0.0306084
-0.737251
0.305549
0.431708
0.270791
-0.0983084
-0.172482
0.0200381
-0.0231497
-0.344041
-0.393205
0.0180969
-0.0203782
0.575697
-0.199706
0.00273452
0.0725491
0.600869
-0.00274826
-0.30683
0.391066
-0.084233
0.283242
-0.298613
-0.331104
0.519946
-0.188824
0.109038
-0.00690677
-0.102131
0.545019
-0.584815
0.0398318
0.196737
-0.161914
-0.277729
0.0914727
0.186257
-0.545036
0.159926
-0.21925
0.217488
0.00176151
0.0158314
-0.436612
0.44947
0.161121
-0.0202762
-0.140845
-0.347701
0.469118
-0.121411
-0.356583
0.155893
0.200692
0.496118
-0.113385
-0.0742241
-0.186286
-0.597899
0.213243
0.384667
0.0490832
0.495971
0.164194
-0.010224
-0.15397
-0.51946
0.186931
0.332533
-0.132654
0.191294
-0.248419
0.174197
-0.360177
-0.1684
0.528618
0.0392399
-0.0105331
0.0207991
-0.00356081
-0.424991
0.556297
-0.131291
-0.645046
0.191663
0.453385
-0.186945
-0.347672
0.442717
-0.0950426
0.0981804
0.0139549
-0.112135
0.0161069
-0.0442195
0.0281126
-0.0546899
0.0318874
0.512265
-0.574125
0.0618601
-0.216396
0.154923
-0.119042
0.435528
-0.0139151
0.0803342
0.0939093
-0.44158
-0.0709565
-0.0389416
-0.203699
-0.389004
-0.0524675
0.353794
-0.0310872
0.517896
-0.163694
-0.354193
-0.261483
0.189572
0.0159703
0.112633
-0.487055
0.568193
-0.0811251
0.0130284
0.0363642
-0.357942
-0.249453
0.607441
0.132996
0.0270329
-0.644584
0.445673
0.198916
0.0186866
-0.0203071
-0.395022
0.557131
-0.162087
-0.00418771
0.156202
-0.152014
-0.0278095
-0.244789
0.645814
-0.133548
0.187559
-0.6746
0.127111
-0.115225
-0.0118857
-0.0629686
-0.0103636
0.0733322
-0.489621
0.195564
0.294064
0.186718
0.331185
-0.0335577
0.0294387
-0.0555899
0.073776
-0.018186
0.104838
-0.0529815
-0.0518566
0.0175246
0.180268
-0.699669
0.355636
0.100746
0.298316
-0.399054
0.0731345
-0.0613089
-0.0118256
-0.107349
-0.109046
-0.325209
-0.374451
0.148423
-0.18888
-0.190511
0.379398
-0.0126904
0.215784
-0.203093
-0.136841
0.0207294
-0.131161
0.110432
0.00342986
0.160852
-0.164282
0.0604635
0.210328
-0.145284
0.156298
-0.0110139
0.0262407
0.00186061
-0.0281013
0.104797
-0.528728
-0.277358
-0.212256
0.309552
-0.277934
0.121492
-0.0938055
-0.0276869
0.612736
-0.0557731
-0.556952
0.00152652
-0.144817
-0.000466663
-0.370796
0.0351327
0.293856
-0.280416
0.188543
-0.0344099
-0.154133
-0.452821
-0.192222
-0.359552
0.253028
0.106524
0.539531
-0.399503
-0.140022
-0.096557
-0.114566
0.267479
-0.295287
0.364646
-0.285419
-0.0949647
0.0823408
0.0126239
-0.427407
0.624766
-0.197355
0.0386351
0.0107524
-0.0946922
0.13066
0.408876
-0.0895149
-0.489886
0.218057
0.271835
0.359177
0.22064
-0.579816
0.135452
-0.554709
0.419269
0.0304743
-0.00370826
-0.123551
0.482729
-0.00192308
0.228822
-0.226896
0.023036
-0.146417
0.240821
-0.241644
0.000823763
0.101403
-0.344804
0.243406
-0.0732015
0.019027
0.0541745
0.0129153
0.0770727
0.238066
0.0533284
-0.291391
0.0106545
0.0983831
-0.305703
-0.0884508
0.394162
0.204406
0.0364153
-0.0044852
0.100519
-0.495131
-0.198693
0.0238142
0.174879
-0.0917941
-0.156622
-0.118257
-0.446493
0.56477
0.122411
0.334819
-0.457203
0.223559
-0.589765
0.36622
-0.0437535
-0.163039
0.454592
-0.126254
-0.328333
-0.573897
0.43423
0.13968
0.363529
-0.482078
0.118561
-0.139095
-0.0274945
0.16659
-0.356721
0.128799
0.227923
-0.752755
0.324568
0.428193
-0.66981
0.295467
0.107103
-0.0089226
0.000827703
0.187716
-0.493199
0.162109
-0.274653
0.272734
0.0900705
-0.0698339
-0.0202366
-0.158398
0.194083
-0.0356846
-0.412599
0.5166
0.0420546
-0.124708
0.0656339
-0.079549
0.263274
-0.511848
0.248581
0.332644
-0.698741
0.366103
-0.0703101
-0.211792
0.282103
-0.344132
0.466571
-0.420106
-0.253527
-0.356853
-0.341883
0.511356
-0.248076
-0.038741
0.026342
0.012399
0.0884426
-0.394138
-0.0324628
0.208785
-0.176321
-0.00311114
0.0183405
-0.0169658
0.178087
-0.549758
0.122677
0.39574
-0.148379
-0.0144423
-0.0587592
0.215599
0.0673792
-0.0188526
0.00149314
-0.702815
0.267126
0.435694
0.526681
-0.207035
-0.319625
-0.594046
0.166643
0.657682
-0.345622
0.327972
-0.0594308
-0.489155
0.197959
0.291202
0.00178507
0.0882854
-0.432445
0.55647
-0.124021
0.0101651
0.188296
0.338407
0.00567453
-0.137572
0.131898
-0.40428
0.580911
-0.176627
-0.0966887
0.406158
-0.128615
-0.0260522
0.078126
0.0267121
0.169521
-0.358394
-0.157454
0.110068
0.0473862
0.347046
0.210261
-0.55729
-0.628647
0.199393
0.429289
0.481039
-0.117499
-0.297054
-0.192826
0.426873
-0.554342
0.127488
0.437235
-0.617162
0.179975
0.0068944
-0.0399104
0.57202
-0.145128
-0.178908
-0.0403415
-0.0174033
-0.0865517
0.103955
0.359339
0.207758
-0.56704
0.154032
0.0246087
-0.17864
0.123189
0.00460651
0.04272
0.00189331
-0.0446133
-0.214533
0.191556
0.0229784
0.0216756
-0.264204
-0.25234
0.516545
-0.532623
0.26842
-0.271092
-0.121409
0.155183
-0.55946
0.335288
0.00353986
0.0893825
-0.0929223
-0.413401
-0.165173
0.30222
-0.3935
-0.218103
0.207948
-0.176315
-0.0316319
-0.0830883
0.255432
-0.172343
-0.0782035
-0.0252278
0.103431
0.131547
-0.0176293
-0.113918
0.0937573
0.362196
-0.455948
0.438341
-0.318367
-0.0490081
-0.218975
-0.00913789
-0.171841
0.180979
0.110918
0.343679
-0.131776
0.0963946
0.0821398
-0.161685
0.0795456
-0.0940597
-0.183669
0.00825813
-0.0505334
0.0422753
-0.479215
0.142906
-0.152044
0.132817
-0.11513
0.13819
0.329086
-0.467249
-0.0330968
0.0300195
0.00307729
-0.272124
-0.356494
0.39477
0.26292
0.0274072
-0.166502
-0.306401
-0.396409
0.503182
0.128696
0.164739
-0.00054514
0.0080535
0.02615
-0.116099
-0.0085446
0.124644
0.305156
-0.480494
0.280096
-0.0810032
-0.19909
0.123378
0.373041
-0.496414
0.112099
-0.10039
-0.0117086
-0.122855
0.122889
-3.34403e-05
0.258507
-0.40478
0.146279
-0.0976185
0.15316
0.323966
-0.477099
-0.00421982
0.156668
-0.152448
0.447987
-0.412716
-0.0352694
-0.547097
0.409285
0.137825
0.0785212
0.534226
0.469878
-0.111781
0.372741
-0.490979
0.467357
-0.440043
-0.0273082
-0.200898
0.171804
0.0290953
0.592096
0.014982
0.116565
-0.344511
0.482729
0.392319
0.0315228
-0.42383
0.164076
-0.255868
0.00203831
0.0323158
-0.0343541
-0.503195
-0.0187981
0.522007
0.266352
-0.195215
-0.0711349
-0.17095
-0.390314
0.156676
-0.151001
0.0464394
-0.181267
0.134828
-0.179694
-0.0765095
0.256204
-0.147013
-0.197474
-0.16632
-0.170003
0.336326
0.216166
-0.00912531
0.0460792
-0.0236965
-0.0150445
0.0174855
-0.0205966
-0.435814
0.56683
-0.131002
-0.36239
0.482496
-0.120095
-0.353873
0.447634
0.414999
-0.134026
-0.280959
0.0701703
-0.0167361
-0.0534342
0.643661
-0.338105
-0.348161
0.352849
-0.00468761
-0.0651367
-0.207739
0.00421739
-0.053501
0.0492836
-0.195733
0.0847513
0.00232781
0.00142148
-0.00374928
0.426075
0.145964
0.148466
-0.0839586
-0.0645076
0.521044
0.0663749
0.147922
-0.586559
0.438644
-0.029698
0.0339154
-0.736292
0.429896
-0.0589124
-0.0263567
0.085269
0.617032
-0.562269
-0.0547602
0.491046
-0.131655
0.11866
0.0309432
-0.109147
-0.000757055
0.468119
0.423813
-0.51018
0.0863767
0.00867318
0.099311
-0.107984
0.146445
0.00758663
0.44674
-0.405858
0.012493
-0.0689675
-0.0463689
0.0315159
0.0148531
-0.0102572
0.0529772
-0.518756
0.0155738
0.0240109
-0.0160627
-0.00794822
0.585977
-0.479625
-0.10635
-0.037419
-0.000428119
-0.43298
0.298413
0.546667
-0.398739
0.604124
-0.188768
-0.415354
0.313289
0.228228
-0.0887295
0.17087
-0.243975
0.160775
-0.411719
-0.209383
-0.377888
-0.753175
0.288972
0.46426
0.081524
-0.069031
-0.422784
0.43157
-0.00876698
-0.00215819
0.115622
-0.113464
-0.10469
0.40692
0.520017
-0.0961958
-0.489157
-0.122281
0.0430715
-0.121736
-0.0603101
-0.0225709
0.0828811
-0.0155643
0.0178921
0.136056
-0.127265
-0.161418
-0.0394792
0.00340122
0.0867772
-0.0901784
-0.00433614
-0.019896
0.543241
-0.407776
-0.076529
-0.019966
0.096495
-0.44314
-0.309981
-0.0946282
-0.0166692
0.111297
0.124674
0.290338
-0.0207884
-0.0741763
-0.129955
0.502715
-0.186496
-0.253543
-0.363566
0.130776
0.0501039
-0.168971
0.182351
-0.0133801
-0.0690208
0.0554012
0.0136197
-0.622493
0.0881031
0.534404
0.157297
-0.177057
0.109473
0.338351
-0.447813
0.482
-0.168707
-0.0029187
0.0291594
-0.229569
0.200199
0.0293702
-0.0605392
-0.359479
0.420027
-0.104329
0.125058
0.163579
0.567712
-0.425775
-0.14193
-0.0144287
0.582188
0.0288582
-0.0317769
-0.0767358
-0.346025
0.132032
0.376949
0.266717
-0.414407
0.353876
0.0894105
0.032082
-0.386953
-0.307758
0.131253
-0.0236497
-0.107603
-0.578334
0.548684
0.0296695
-0.59621
0.452016
0.144218
-0.00296202
-0.0961456
0.406599
0.0108843
-0.000624618
-0.0102597
0.0176883
-0.0766006
-0.26741
0.348183
-0.0807716
0.11235
0.0204674
0.549532
-0.123438
0.302836
-0.263603
-0.0267554
0.0287937
0.0359478
0.0399033
-0.0758511
-0.281709
0.211401
-0.165059
-0.199452
-0.393386
0.206896
-0.20909
-0.369228
0.567996
-0.315314
-0.252669
0.486812
-0.424952
0.0321365
-0.156267
0.124131
0.190047
0.0305747
-0.22062
-0.0315588
0.0398169
0.0208964
-0.189866
-0.356855
0.271663
0.0851925
-0.119189
-0.00366591
-0.268668
-0.250789
0.00935823
0.158456
-0.167814
-0.0173877
-0.0970878
0.0201916
-0.39004
0.533729
-0.325953
-0.207772
-0.0971505
0.583962
-0.222659
-0.373527
-0.437376
0.343086
0.499665
0.104511
0.469185
-0.345803
0.405223
-0.591539
0.18636
0.0107315
0.0132794
0.17652
-0.0394799
-0.13704
-0.631618
0.454807
0.176838
0.123808
-0.107838
-0.227889
-0.394594
0.0409645
-0.0248576
0.174787
0.40092
0.144376
0.41075
-0.0228543
0.0309078
-0.175535
0.0626697
0.112866
0.371184
-0.509293
-0.21229
-0.121193
0.33349
-0.605311
0.18392
0.421394
-0.556539
0.417258
0.139294
0.180259
0.0918948
-0.272151
0.176108
-0.0097105
-0.166397
-0.373498
0.504256
-0.130743
-0.00169993
0.0156111
-0.0139112
-0.0840173
0.219915
-0.135897
-0.399221
0.440568
-0.0413456
0.529281
-0.158097
0.22425
0.309483
-0.0306758
-0.0156932
0.0848264
0.195273
-0.651397
0.26823
0.383188
-0.304926
-0.00437729
0.0244153
-0.0930629
0.23414
-0.126513
-0.0137156
-0.00513701
-0.375345
0.0333937
0.341952
-0.561553
0.166554
0.132132
-0.55711
0.246375
0.0816003
0.0108074
-0.555053
0.146257
0.408796
0.0185692
-0.105459
0.285723
0.194704
0.0716487
0.019317
-0.440763
0.321727
-0.109996
-0.0211642
0.152366
0.0241545
0.397193
-0.110245
0.275857
-0.0407807
-0.36544
-0.285937
0.204685
-0.0285762
0.323693
0.070857
-0.33754
0.121534
0.216008
0.12717
0.355497
-0.482662
0.0144026
0.00108388
-0.0154864
0.496024
0.0724885
-0.568512
-0.34277
-0.032575
-0.380349
0.215293
0.058602
0.246044
-0.304645
0.0512254
0.166985
-0.218209
-0.0393035
0.0752513
0.493171
0.0828201
0.00727772
-0.120693
0.113416
-0.0822036
0.0218935
0.325509
0.231238
-0.556746
-0.135879
-0.29173
0.427623
-0.181644
0.513249
-0.107984
0.100185
0.267183
-0.367351
-0.405491
0.200656
0.204847
0.391464
-0.0993652
-0.292096
0.148471
-0.0788881
0.12196
0.0212563
-0.39979
0.558869
-0.159061
-0.0119832
0.0797192
-0.067736
0.0665537
0.156737
0.20588
0.00206809
-0.121717
0.392744
-0.291991
0.0742627
0.0742037
-0.0191946
-0.17608
0.396944
0.131233
-0.528165
-0.126978
-0.0485575
-0.13627
0.17072
-0.0344505
0.156503
-0.00413726
0.553396
-0.395399
-0.157985
0.41205
-0.530605
0.34716
0.220846
0.00029014
-0.0967763
0.351635
-0.604069
0.380885
0.223192
0.162244
-0.0292477
-0.52931
0.155827
-0.566099
0.419847
0.146267
0.018142
-0.100126
0.177543
-0.286256
0.389562
-0.103304
0.0529602
-0.211358
0.213794
-0.226483
0.0680175
-0.292549
-0.112935
-0.309911
0.20253
0.0122515
-0.0966182
0.0843667
0.406989
0.139685
-0.595117
0.179502
0.41562
-0.374107
-0.300482
0.524079
-0.52959
0.00552614
0.241932
-0.343296
0.101371
-0.30703
0.199566
0.107467
0.0572368
-0.23693
0.391807
0.161601
0.587087
-0.177536
-0.40955
-0.356397
-0.130555
0.486961
-0.376995
-0.0559839
-0.151524
-0.16172
-0.0528121
-0.377454
0.12951
-0.0146751
-0.359294
-0.0580463
0.071419
-0.0133727
0.0858386
-0.372093
-0.475362
0.101265
-0.00756257
-0.0366569
0.282887
-0.0948295
-0.188055
0.0188898
0.0948477
0.169467
-0.3426
-0.0130986
0.355701
0.124592
0.318453
-0.443039
0.550614
-0.416262
-0.134338
-0.417478
0.281614
0.0186048
-0.0379672
0.0193624
-0.17842
0.200499
-0.0220776
0.085219
-0.352629
0.149351
0.0447321
-0.296869
0.397073
0.0192296
0.137274
0.665596
-0.187614
-0.409076
0.502969
-0.0938872
-0.489021
0.103093
0.38593
0.480931
-0.394781
-0.0152522
0.26343
-0.0968036
-0.166625
-0.0145742
-0.328024
0.114706
-0.0138018
-0.0953285
-0.358033
0.453364
0.290878
-0.515109
0.224242
0.322673
-0.515986
0.193329
0.163556
-0.160126
0.14976
-0.301222
0.411762
-0.110531
0.0741012
0.229935
-0.304033
-0.362213
0.501005
-0.138781
0.0174271
0.490464
-0.199577
-0.0455464
-0.188524
0.23407
0.282819
0.114381
0.0228223
-0.00206582
-0.0207565
-0.019709
-0.421883
0.280695
0.14119
0.0113042
-0.104407
-0.0530466
-0.00232724
0.0725851
0.370134
-0.413435
0.564577
-0.151118
0.547998
-0.445264
-0.102727
-0.101048
0.378604
-0.277544
-0.0716446
-0.245146
0.316794
0.458342
0.0262659
-0.506041
0.360599
0.145457
-0.204267
-0.152454
0.101894
0.0141311
-0.0835317
0.0694007
0.227713
-0.324484
-0.0292509
-0.152632
0.181884
-0.167414
-0.0156637
0.183078
-0.554482
0.413761
0.140733
-0.191404
0.187225
0.261596
0.021294
0.556566
-0.18064
-0.375919
-0.00545238
-0.179312
0.184765
0.17959
0.44518
-0.0078457
0.0419424
0.145593
-0.113457
-0.57426
0.144924
0.429337
0.152066
0.404244
0.232729
0.229894
-0.533829
0.370143
-0.471992
0.115604
-0.0118983
-0.398935
0.559401
-0.160443
-0.0575992
0.364037
-0.493973
-0.221263
0.559287
-0.338023
-0.417583
0.136517
0.281069
0.10476
0.333145
-0.43789
-0.0766808
-0.385163
-0.126276
0.157168
-0.556079
0.36798
-0.0729891
0.304143
0.0196223
-0.323762
0.00348501
-0.558744
0.413028
0.145733
0.193547
0.219033
-0.658443
0.439414
-0.35332
-0.118664
-0.0206286
0.0224892
0.48288
-0.160192
-0.149644
0.28949
-0.00268917
0.126498
-0.0256809
0.65082
-0.431784
-0.433267
0.353556
0.0797128
0.0994782
-0.0872267
0.560442
-0.406854
-0.153582
0.089721
0.305319
-0.395034
0.120294
0.079765
-0.162075
-0.304304
0.466403
-0.0902653
0.0989385
0.289985
-0.349102
0.0591235
-0.0239389
-0.00915786
0.291824
0.0992452
0.117275
0.00149352
-0.118769
-0.350328
-0.455804
-0.116212
0.57202
-0.614952
0.491403
-0.0976457
0.534931
0.647593
-0.151568
0.0422344
-0.0513597
-0.0881406
0.330339
-0.242195
-0.610615
0.23693
0.373708
0.326571
-0.358216
0.0316467
0.160944
0.127722
0.420283
-0.109828
0.307293
-0.0692238
0.0122266
-0.208905
0.176443
-0.117747
-0.00356877
0.121316
0.102126
0.232049
-0.0373428
-0.00609984
0.02737
-0.0212702
-0.382494
0.117367
0.265133
-0.118597
-0.247662
0.412395
-0.164712
-0.0194996
0.00342278
0.0160768
-0.473603
0.202449
0.114781
-0.317225
-0.219799
-0.438641
-0.205002
-0.35251
0.55752
-0.62567
0.405875
0.60137
-0.179344
-0.422019
0.566739
-0.43897
-0.12776
0.126408
0.29594
-0.422332
-0.174136
-0.030282
0.204419
0.538888
-0.141932
0.246941
-0.335077
-0.0124385
-0.114508
0.126946
-0.0276665
0.0507678
-0.0231013
-0.0624459
0.00439964
0.126371
-0.12906
-0.223158
-0.442804
-0.172147
0.476671
-0.337887
-0.138763
-0.013992
-0.0826262
0.407547
0.0404403
0.0108843
0.1406
-0.415655
0.275062
0.14599
-0.00778634
0.509099
-0.501263
-0.304356
0.416833
-0.112468
-0.2838
0.424407
-0.417198
-0.176844
-0.371789
-0.133812
0.505623
-0.151244
0.160602
-0.242854
-0.367738
0.0231869
-0.0258313
0.00264437
0.420482
-0.373531
0.526283
-0.152733
-0.0260496
0.0446544
-0.419968
0.172326
-0.279542
-0.310212
-0.105595
0.526418
-0.00328201
0.0321402
-0.0542476
0.197154
-0.202743
0.577745
-0.374996
-0.110816
-0.467508
-0.153532
0.621054
0.539039
-0.0173376
0.0770888
-0.0597511
0.122454
-0.022712
-0.195553
0.218266
0.185344
-0.334984
-0.357616
0.343043
-0.202692
0.590032
-0.445339
-0.144686
-0.0673005
-0.171803
0.361734
-0.45706
0.0655058
-0.231824
0.0233143
-0.0276504
0.302734
-0.442457
0.139728
-0.43152
0.331549
0.377627
-0.287901
-0.509337
0.353368
0.155989
-0.142274
0.00509133
-0.107074
0.101983
0.0254958
0.13883
0.226057
-0.0360083
-0.0263709
0.0219937
0.0315179
-0.00833102
-0.113402
0.475139
-0.100759
0.105851
-0.417945
-0.152939
0.00348457
0.020373
-0.0238576
-0.451573
-0.125482
0.0742581
0.00114926
-0.0754073
-0.13836
0.008736
-0.207428
-0.287255
0.30742
-0.0201613
-0.12608
0.0998303
0.0262494
0.0126174
-0.0800847
0.0674673
-0.638124
0.227899
0.410228
0.134433
-0.41726
-0.446076
-0.30899
-0.197037
0.166871
0.384612
-0.101787
-0.0759342
0.365926
-0.157184
-0.0205749
0.177759
-0.0184456
-0.000616829
0.0190624
0.138466
0.193287
-0.0236039
0.00370796
0.521337
0.0956961
-0.17483
0.46199
-0.287154
-0.316099
0.039967
-0.0491063
0.00913936
0.219732
-0.291373
0.0198947
0.566085
-0.13686
0.161221
-0.259308
-0.13906
0.398379
-0.402708
0.271971
0.119495
0.0567589
0.184218
-0.240975
0.301227
-0.402261
0.0201295
-0.420712
-0.217409
0.425372
0.136033
-0.561402
-0.0814731
-0.127368
0.430106
-0.020514
0.00198476
0.0185292
-0.328905
0.116621
-0.103426
0.331143
-0.438347
0.556204
-0.117855
0.0236054
-0.421412
0.642053
0.151305
-0.294795
0.0830051
-0.193893
-0.117488
0.311386
0.21791
-0.0325635
0.438913
0.21191
0.0569767
0.47335
-0.346176
-0.489238
0.139092
0.350154
0.0137772
-0.128257
0.11448
-0.438896
-0.00758304
0.5455
-0.219991
-0.100947
-0.0289037
0.129851
0.0833032
-0.100706
-0.0161764
-0.104517
-0.127445
0.0182159
0.109229
-0.15737
-0.397681
0.0932553
-0.0914702
0.03368
0.0061324
-0.0398124
0.526087
0.0899264
-0.0894678
0.247498
-0.422323
-0.00817982
0.164848
0.136967
0.0133094
0.471132
-0.368039
-0.0628346
0.22812
-0.165284
-0.401018
-0.185535
0.240878
-0.178011
-0.0628664
-0.228055
-0.251931
-0.092869
-0.0391054
0.0581324
-0.157655
-0.0202783
0.177933
0.0293383
-0.165608
-0.0660872
0.0610885
0.00499878
0.0867134
-0.0084649
0.107109
-0.0986437
-0.221322
-0.411326
0.106979
0.362701
0.0955364
-0.458233
0.569948
-0.144573
-0.588947
0.445747
0.143204
-0.401269
0.543543
-0.142256
-0.221747
-0.0658379
0.0784553
-0.594312
0.43166
0.162673
0.0801314
0.250212
-0.149125
-0.255753
-0.118218
-0.228629
0.346856
0.174033
-0.0131812
-0.136283
0.0397409
0.0965423
-0.302513
0.11243
-0.54823
-0.214583
0.169037
0.0465601
-0.484906
-0.303162
0.266453
0.0239324
-0.0300323
-0.103387
-0.221348
0.324741
0.148331
0.312693
-0.461002
0.156462
-0.031818
-0.429274
0.32845
-0.248315
0.0394738
-0.00579377
-0.0170294
0.390038
-0.100753
-0.289281
0.181349
-0.168361
-0.0129878
0.31229
-0.0870072
-0.225281
-0.0170377
0.00332214
-0.0189896
0.219189
-0.238523
0.155436
-0.0115912
0.0836227
0.54143
-0.0643283
-0.098789
-0.0379237
-0.0959676
-0.425816
0.408534
-0.363382
0.239488
0.123895
0.519153
-0.00779043
-0.0897474
-0.0116271
0.515124
-0.503444
0.239383
-0.357592
-0.345035
0.0588738
0.273805
-0.147746
0.162822
-0.0150761
0.586612
-0.17989
-0.406708
0.115518
-0.0568659
0.254401
0.0528953
0.0985981
0.0135006
0.163028
-0.443342
0.126082
0.317281
0.00544238
0.239636
0.124784
-0.364418
-0.0796584
0.319266
-0.239604
-0.496962
0.322038
0.174943
0.00365612
0.0186633
-0.0223194
-0.0127246
0.14878
-0.0277206
0.197906
-0.266217
0.0683126
0.0215708
-0.0271195
0.153706
0.0170146
-0.166395
-0.285881
-0.136
0.178041
-0.0207442
0.381748
-0.570513
0.403446
-0.298672
-0.145937
-0.00564012
0.151577
-0.229765
-0.185495
-0.18555
-0.0767503
-0.197336
0.254097
-0.311131
0.117243
-0.120466
0.134244
-0.00457299
0.121848
-0.470393
0.141405
-0.143514
0.157251
-0.0137373
-0.0997856
-0.257829
0.30022
0.111551
-0.352744
0.488587
-0.135823
0.185243
0.397831
0.0808752
-0.0664339
-0.0144413
0.100233
-0.0968322
0.580829
-0.433917
-0.146897
0.155556
-0.606771
0.181738
0.425035
0.0968228
-0.454854
0.0152068
0.356525
-0.432451
-0.15989
-0.337297
0.497217
0.0262119
0.492947
-0.276592
0.0344529
-0.495003
0.460597
0.323018
-0.0766394
0.0666972
0.014178
0.116567
0.16929
-0.226802
0.0575129
0.428444
0.141507
-0.415106
-0.000354398
0.126725
-0.0114618
0.0514288
0.0271682
-0.00559735
-0.126449
-0.497303
0.546421
0.338695
-0.498553
-0.0916048
0.33855
0.0376566
-0.429103
-0.145156
0.00661924
-0.0661092
0.00815084
0.128496
-0.136647
-0.0922797
0.253057
-0.582324
0.170562
0.411764
0.299403
-0.0998354
-0.0113262
0.455789
-0.392659
-0.0631227
-0.196449
0.221443
-0.024994
-0.400585
0.558329
-0.422681
-0.135635
-0.364192
0.22093
0.00449594
0.0311799
-0.0356758
-0.179459
0.151965
-0.141598
0.570046
-0.134849
0.153117
-0.0182682
-0.404461
-0.00352995
0.143271
-0.461313
0.210903
0.398323
0.164636
-0.562915
-0.0729475
-0.379091
0.0799585
0.375839
0.271323
0.118717
-0.100412
-0.0145763
0.114988
-0.186595
0.245181
-0.0585852
-0.0914433
-0.206975
0.486038
0.00443685
0.123947
0.43024
0.115467
-0.541243
0.244394
-0.208117
0.0339817
0.174537
0.00211807
-0.176655
0.0141808
-0.0158807
-0.215841
0.193016
-0.198468
-0.146553
0.160595
-0.0140419
-0.0140796
0.167786
0.162954
0.40389
0.167736
0.0876978
0.126356
-0.0229841
-0.0876155
0.0710353
0.0165802
0.0311943
0.0108887
-0.116164
0.363121
-0.246953
0.280095
-0.495553
0.215468
-0.0158435
-0.625446
0.288176
-0.514035
0.0926244
0.195533
0.079348
-0.274879
0.0173811
-0.351744
0.129508
0.222242
-0.426021
0.0756611
0.0200315
-0.0956926
0.207148
-0.155922
0.0951063
-0.355927
0.260825
-0.182622
0.412539
0.00510983
0.104294
-0.109404
0.0741128
-0.0849935
0.0108807
-0.0201354
-0.00346851
0.360849
-0.491394
0.103708
-0.429102
0.325405
-0.110353
0.454129
0.112525
-0.493447
-0.0183947
-0.15916
0.181218
-0.0220586
0.0396759
0.400893
-0.269684
0.0848943
0.184791
-0.198656
0.157287
0.0413692
-0.315446
0.224007
0.0648443
-0.0752079
0.130063
0.361403
-0.491435
-0.122726
0.384458
-0.261728
-0.131289
-0.179837
-0.224787
0.504892
-0.0140592
-0.0735562
0.112238
-0.472505
0.360295
0.557746
-0.183223
0.0260397
0.109553
-0.123482
0.0139288
-0.115676
0.128471
-0.0127945
-0.0128925
0.0886232
-0.0757307
-0.15678
-0.273133
0.429942
0.10463
0.0834568
-0.188086
-0.355824
0.5297
0.0613246
0.316308
-0.525902
0.518175
-0.190932
0.36046
0.0794096
-0.0934688
0.0351928
0.321339
0.138043
-0.171594
0.449346
-0.0866405
-0.571892
0.407676
0.16422
0.136443
-0.440142
-0.138237
0.578382
-0.162493
-0.00406809
0.0215536
0.440864
-0.589027
0.148168
0.356883
0.111237
-0.123676
-0.537473
-0.120106
-0.0875345
-0.111121
-0.0721379
0.176769
0.289864
0.11494
-0.404794
-0.514667
-0.154199
-0.369781
0.523998
0.413887
0.144455
-0.518624
0.435258
0.083366
-0.244559
-0.136528
0.492135
-0.355604
0.324293
0.216367
0.0443567
-0.511853
-0.406739
-0.111956
0.518699
-0.0789264
0.279244
-0.200317
-0.182487
0.00741666
0.0461312
0.0118935
-0.159639
0.141334
-0.355784
0.525209
-0.169388
0.551772
-0.446315
-0.105445
0.148635
0.0141878
-0.552503
0.148749
0.403757
0.106649
-0.313004
-0.28211
-0.211568
-0.337088
-0.386644
0.164378
-0.370203
0.257909
0.112298
-0.0805085
0.0579375
0.440622
0.146003
0.584007
-0.143138
0.249378
-0.0593419
-0.190034
-0.587329
0.144262
0.443068
0.624267
-0.190745
-0.43351
-0.0290617
0.314337
0.102506
-0.322916
0.0133053
-0.172465
-0.149467
-0.00263518
0.157985
-0.0582054
0.225192
0.178926
-0.16562
-0.150018
-0.402481
-0.459197
0.52767
-0.0684658