/*--------------------------------*- C++ -*----------------------------------*\
| =========                 |                                                 |
| \\      /  F ield         | OpenFOAM: The Open Source CFD Toolbox           |
|  \\    /   O peration     | Version:  v2012                                 |
|   \\  /    A nd           | Website:  www.openfoam.com                      |
|    \\/     M anipulation  |                                                 |
\*---------------------------------------------------------------------------*/
FoamFile
{
    version     2.0;
    format      ascii;
    class       volVectorField;
    location    "100";
    object      ddt0(U);
}
// * * * * * * * * * * * * * * * * * * * * * * * * * * * * * * * * * * * * * //

dimensions      [0 1 -2 0 0 0 0];


internalField   nonuniform List<vector> 
13851
(
(-0.0014564 -0.000435799 9.6901e-19)
(0.0173439 0.178642 -5.00687e-18)
(0.0270939 0.0160278 2.33077e-18)
(-0.00121101 0.000253076 -3.2431e-18)
(-0.00456372 0.0162422 -5.16809e-19)
(0.034092 0.0758595 -4.28111e-19)
(-2.3139e-05 0.000246981 -7.49193e-19)
(0.0111512 0.00285801 -3.60997e-18)
(7.68184e-05 1.85072e-05 -5.02084e-19)
(0.0446895 -0.0324263 -1.18029e-18)
(0.00616088 0.121095 -8.4634e-19)
(0.224041 -0.0906413 4.25143e-19)
(-0.0258085 -0.0059196 -4.89836e-19)
(0.150106 0.0501347 1.29914e-18)
(-0.000150686 1.67173e-05 1.23782e-18)
(-3.04263e-05 -0.00683168 6.07072e-19)
(0.00105482 -0.000389597 1.94459e-18)
(0.00650806 0.0028045 2.04392e-18)
(-0.0530528 0.0294403 8.46588e-18)
(7.12243e-05 2.75096e-05 7.35868e-20)
(-0.000940092 0.000256612 -9.16979e-20)
(0.0229736 0.017351 3.76629e-18)
(-6.2804e-05 1.77687e-06 9.46205e-20)
(2.96269e-05 -4.29296e-06 -1.77171e-19)
(-5.59731e-05 1.26763e-06 8.13049e-20)
(0.0124473 0.00201147 -3.39947e-19)
(0.000695501 0.000697129 3.65748e-18)
(-0.00741322 -0.000469372 -1.6061e-17)
(-0.0010801 -0.000547664 -8.55809e-19)
(0.000221684 0.0014663 1.15502e-18)
(0.0546018 0.0787752 3.90281e-19)
(0.00121134 -0.000434978 2.47255e-18)
(0.0277882 0.0126228 -1.99007e-18)
(0.0238426 0.178757 9.75602e-19)
(3.85488e-05 -3.65006e-06 -1.66775e-19)
(0.00500197 -0.0109573 -8.77043e-18)
(0.0141952 -0.0208026 5.50613e-18)
(0.00394882 0.0741154 -8.34961e-18)
(0.0520225 -0.0335312 -5.67892e-19)
(0.0419188 0.126977 9.84022e-19)
(0.0001241 7.30691e-05 7.04894e-19)
(-7.29909e-05 5.44609e-05 -7.0355e-20)
(-0.099435 -0.0766477 9.3072e-18)
(-0.00529005 0.119013 5.27232e-18)
(-0.000333618 0.142523 -3.06974e-18)
(-0.118805 -0.243013 -2.54809e-18)
(-0.000489959 0.105001 1.9357e-18)
(-0.0745561 -0.0858829 1.7681e-18)
(0.000723567 0.000768543 -5.07334e-18)
(0.0138974 -0.0227475 2.18296e-18)
(-0.00577237 0.00262267 -2.19954e-18)
(-0.0201714 0.000331775 -3.86565e-18)
(0.0335779 -0.0761903 1.08655e-17)
(-0.000161755 1.26793e-05 1.78533e-19)
(-1.56208e-05 4.00282e-06 -3.51222e-20)
(-6.7869e-05 5.68636e-05 1.0816e-19)
(3.95248e-06 -1.58037e-05 -6.42701e-19)
(0.0360829 -0.166524 4.84843e-17)
(0.000402715 0.00129291 -7.55574e-19)
(5.01788e-05 0.00016452 -2.76069e-19)
(0.0121114 0.0780237 3.94863e-18)
(-0.274248 0.163588 2.21965e-18)
(0.0351989 -0.0183371 -1.14487e-18)
(-0.0104455 0.0165511 5.4981e-18)
(-0.222054 0.170747 2.04202e-19)
(-0.00373758 0.000263456 8.24855e-20)
(0.0111354 -0.0223951 8.61564e-18)
(0.00446939 0.0489493 1.69267e-18)
(0.000937902 0.00270982 4.26944e-18)
(0.00687611 0.0017419 3.89694e-19)
(-0.0364044 -0.00178457 1.8927e-18)
(-0.00191496 -0.0197729 -2.80915e-18)
(0.0664116 0.123537 -1.2704e-17)
(-0.000169579 1.25994e-05 -1.80103e-19)
(2.63772e-05 9.89287e-06 2.34614e-20)
(5.71263e-05 7.71406e-05 8.41647e-20)
(0.0204502 0.0159557 1.04641e-18)
(0.0227116 -0.0109474 -8.43535e-18)
(0.00213627 0.00671868 9.84298e-19)
(-0.0414489 -0.0010642 -1.58917e-18)
(0.00016372 0.000152496 2.74621e-19)
(-0.000360398 -0.00337824 -1.26181e-19)
(2.55233e-05 0.000172487 5.57018e-20)
(-0.110782 -0.270092 -3.95022e-18)
(0.0395325 -0.0136865 -1.0746e-18)
(0.231713 -0.109867 -2.79721e-19)
(0.0337207 0.0248754 -4.20254e-19)
(-0.0350667 -0.291173 -4.10633e-18)
(0.00132921 0.000368978 -1.11526e-18)
(-0.000236225 7.5085e-05 -3.72916e-20)
(0.00394083 -0.0107424 1.35567e-17)
(-0.0146715 -0.0113012 4.11452e-19)
(0.00743109 -6.92798e-06 4.01849e-18)
(0.00181965 0.000956989 -2.06426e-18)
(0.00121289 0.000415784 9.82442e-19)
(6.41453e-06 -3.9974e-06 4.79971e-19)
(-0.00656699 0.0159061 2.72738e-18)
(-0.0598896 -0.0741352 -4.77585e-19)
(0.014943 -0.0270485 -1.1967e-18)
(4.38097e-06 -3.46608e-06 -2.88097e-19)
(0.10026 -0.0196976 -2.46373e-18)
(-0.00104342 0.00541206 -6.08818e-18)
(0.000427958 -0.000480318 -3.11768e-19)
(0.000135122 0.00113314 6.81904e-18)
(-5.62845e-05 -6.54416e-06 2.9333e-20)
(0.039595 0.00225189 -1.52405e-18)
(-0.00270401 0.00492632 4.61318e-18)
(-6.25681e-05 -4.3017e-05 2.19979e-20)
(-0.0140445 -0.0144632 -1.46713e-18)
(0.0078779 0.0952765 6.69671e-19)
(3.67684e-06 -7.37916e-06 -3.81392e-19)
(-0.000307086 3.47922e-05 5.63574e-20)
(-0.012175 -0.00924014 -9.0801e-19)
(-1.31241e-05 -6.3148e-07 1.23657e-18)
(5.31346e-06 -9.93543e-06 -1.41064e-19)
(0.0427962 0.0438046 -1.42302e-18)
(-0.0613138 -0.0638245 5.12101e-18)
(-7.7781e-05 2.81613e-05 -7.09674e-21)
(2.63916e-05 -2.21692e-06 -1.92314e-19)
(1.17588e-05 -1.86161e-07 2.38723e-19)
(-0.0709049 -0.0835357 -1.0751e-17)
(0.000173962 0.0010809 -6.89977e-18)
(-0.0314945 -0.00659499 6.35203e-19)
(0.0276441 0.10925 -3.31115e-18)
(-0.0799736 -0.0727269 -1.66753e-18)
(-0.000369632 0.00149486 1.70308e-19)
(-0.0805538 -0.0345367 -1.64709e-18)
(0.000374904 0.00642851 -2.03011e-18)
(-0.00073091 0.000502673 -5.12491e-19)
(-0.0179761 0.0350185 5.51404e-18)
(0.000116418 7.7472e-05 -4.80394e-20)
(6.53764e-05 -6.48461e-05 4.64911e-19)
(-0.0361886 -0.00264549 -2.24636e-18)
(1.24289e-05 0.000161611 -5.25887e-20)
(0.0486208 0.104773 1.20738e-18)
(5.27812e-05 -1.92928e-05 -8.83446e-19)
(-7.92754e-05 2.67021e-05 1.89278e-19)
(-1.69604e-05 -0.0221865 2.16568e-18)
(-0.149229 0.367661 -5.97049e-18)
(-3.5397e-05 0.319884 -1.48903e-18)
(0.071215 -0.0454344 -1.23832e-17)
(-1.11791e-05 3.32613e-06 6.1771e-20)
(-0.00117941 -0.000953089 1.79459e-19)
(-9.58622e-05 -0.000133468 -3.42066e-19)
(0.000188141 -1.90045e-05 3.40101e-20)
(-0.011096 0.0897652 9.40022e-19)
(-0.000521341 -0.00298941 -2.22389e-21)
(-0.0156968 0.0392569 -2.52292e-18)
(-2.79112e-05 0.000226224 -2.72151e-19)
(0.00652844 0.14868 2.05531e-18)
(0.000642317 -0.000368493 -1.43105e-17)
(2.10681e-05 2.23752e-07 5.48485e-20)
(0.152165 0.0349141 2.18126e-18)
(-1.15011e-06 -1.75334e-05 -4.15973e-19)
(0.000499378 0.000142634 5.64456e-19)
(0.00012508 5.45958e-05 -2.46195e-19)
(8.07105e-05 2.47157e-05 -4.09756e-19)
(0.000137847 0.00072538 1.7196e-19)
(-0.0216139 0.00162447 -3.57612e-18)
(-0.00581263 0.00330019 -1.13416e-18)
(-2.65656e-05 -0.000145033 -1.16084e-20)
(0.000951805 0.0015332 -8.41178e-19)
(0.0364141 -0.113952 1.52469e-17)
(5.92625e-05 -7.18224e-05 -8.80064e-20)
(-0.00339981 0.00249137 -3.86716e-19)
(-9.86305e-05 -3.50099e-05 2.42343e-19)
(-0.000327169 -0.0041675 -1.43203e-21)
(0.000740634 0.00277191 -5.60881e-18)
(-0.000586839 0.000470217 2.47101e-19)
(-0.0379177 -0.120283 -5.69986e-19)
(0.0228573 -0.0073059 9.24e-18)
(1.04318e-05 -1.74975e-05 2.07495e-21)
(8.21882e-05 1.24466e-07 -4.52755e-19)
(-0.00747343 0.322683 4.84909e-18)
(5.66396e-05 -6.79017e-05 -1.43438e-19)
(-0.0690997 -0.146265 -1.77724e-18)
(0.000999758 0.00626841 2.26053e-18)
(0.000456133 -0.00167533 -2.51565e-18)
(-0.0516404 0.022932 -1.4642e-17)
(-5.51499e-05 -7.57323e-05 -1.84389e-20)
(0.00144574 -0.000694871 5.11621e-20)
(-0.00471227 -0.0207688 -1.35384e-18)
(-1.59752e-05 0.000135356 5.52781e-19)
(0.0222269 0.0209675 -6.15958e-18)
(-0.000120291 -2.46229e-05 -3.14866e-20)
(-3.03471e-05 -2.54611e-06 2.85359e-19)
(-0.00380582 -0.000616612 -5.71327e-19)
(-4.73802e-06 6.01016e-06 -2.89922e-19)
(-0.00477792 0.0231232 -4.65515e-19)
(-0.0165663 -0.0711503 4.33516e-18)
(-8.63119e-06 0.0666615 2.41684e-19)
(0.0481598 -0.0784973 3.05143e-17)
(-0.000508395 0.000153266 -2.14156e-19)
(0.00175232 0.00284596 -6.65435e-18)
(-0.224497 0.18341 -7.89451e-18)
(0.000457303 0.000107327 -1.14837e-18)
(-0.000957201 -0.000627859 4.11047e-19)
(0.0551496 -0.0823103 9.83671e-19)
(0.00016241 -0.00147098 1.33969e-18)
(4.71034e-05 7.45697e-05 -7.74396e-19)
(-0.000723003 0.0014342 1.27948e-19)
(-0.177173 -0.180379 -4.9081e-18)
(1.72744e-05 -2.71761e-06 -2.29605e-19)
(9.93208e-05 -1.98851e-05 1.48152e-19)
(0.0055643 -0.0458708 2.64614e-18)
(-5.4882e-06 0.0001389 -1.12613e-18)
(-0.0186531 0.136603 -1.09512e-17)
(0.00122715 -0.000149815 -1.20768e-18)
(-0.0157679 -0.0105731 4.21372e-18)
(-5.17963e-05 -0.000131522 -1.93362e-20)
(0.00170761 -0.0219699 -4.82213e-18)
(0.000364706 -0.000412891 -1.77006e-19)
(0.020449 -0.112271 -1.55069e-18)
(-7.50293e-05 -9.62428e-05 -5.12506e-20)
(-0.00011249 -5.0345e-05 -2.6638e-19)
(0.030502 0.0696111 4.86326e-19)
(0.0380533 -0.00222062 -3.75628e-19)
(-0.0938031 -0.246692 1.19131e-18)
(-0.000125502 3.71567e-05 -4.12481e-19)
(-0.0140386 -0.0119104 -3.77375e-18)
(0.00133829 -0.000208992 -1.32553e-18)
(0.000178684 0.000145681 3.03351e-18)
(-0.000945925 -0.0392342 2.94477e-18)
(-0.0230623 0.0141003 -4.69118e-18)
(-0.013575 -0.0150168 -3.09279e-18)
(-3.85259e-05 -6.21558e-06 1.82406e-19)
(0.00227688 0.00143823 6.8183e-19)
(-3.88133e-05 -2.1427e-06 -5.19357e-21)
(0.0759827 -0.172606 -3.12329e-17)
(-7.44121e-05 -0.000103651 -2.6194e-21)
(0.0121835 0.000366275 1.55236e-18)
(0.110207 0.120328 -8.52175e-20)
(9.32421e-06 -1.09168e-05 5.69933e-20)
(-0.00038392 0.000211001 3.85982e-19)
(-0.00378012 0.00206501 4.87829e-18)
(0.0080566 0.0260116 -8.24307e-19)
(0.00461506 0.130268 -2.24927e-17)
(-0.232135 0.147608 -3.22731e-19)
(-0.000109629 -0.000108682 -2.02732e-19)
(0.000101896 -1.50522e-06 -1.41102e-19)
(0.0706121 0.0457691 9.74048e-20)
(-0.0488055 -0.0800936 6.44143e-19)
(0.000113724 -0.000331824 -5.92557e-21)
(0.00849306 -0.0513355 -2.89134e-18)
(-7.38007e-05 -1.04846e-05 9.18222e-22)
(-0.0159162 -0.0146806 2.91246e-18)
(-0.00109957 0.00605129 4.91424e-18)
(0.019279 0.0535849 -6.66126e-18)
(3.20829e-05 9.39561e-05 -4.57242e-19)
(3.67602e-05 -0.00121491 7.69911e-19)
(0.00606602 0.00791586 -2.312e-19)
(-0.060367 -0.0837946 -9.19897e-19)
(0.000176134 0.000273769 1.27662e-18)
(5.47709e-05 4.87418e-06 -4.62115e-19)
(-0.00173997 0.00266192 -5.13412e-18)
(0.0434852 -0.115095 7.58537e-19)
(-0.0249343 -0.0636145 -3.32073e-18)
(-0.00197354 -0.0230766 4.14916e-19)
(0.142191 -0.0412551 4.48155e-18)
(-9.36951e-05 6.13137e-05 3.13325e-19)
(-0.000106563 -8.33033e-05 3.52374e-20)
(0.00580802 -0.00011313 9.20487e-19)
(-0.0194714 0.343512 9.30282e-19)
(-0.000144525 0.000211911 4.43551e-20)
(-0.0564673 0.0441993 8.20981e-18)
(0.000442387 9.86442e-05 -2.15954e-18)
(0.00017253 0.000264952 -2.20083e-18)
(0.00169335 0.000875626 3.06379e-19)
(-0.000458725 -0.036651 1.19177e-18)
(-0.000983911 0.0144985 -2.40911e-19)
(0.00730087 0.00635448 -9.09219e-19)
(0.00049954 0.000117039 7.31313e-20)
(-0.0418711 0.237748 2.42529e-18)
(0.00231279 0.00603035 -1.14363e-18)
(-0.000963449 -0.00622661 -1.24745e-19)
(6.14977e-05 -7.16905e-05 -9.51476e-19)
(0.00274874 0.0166634 1.90687e-19)
(0.018962 0.00173181 -3.42595e-20)
(-0.0202847 -0.00779613 -2.16755e-19)
(0.0182756 0.115021 1.53895e-18)
(8.70381e-05 -0.000337509 2.3425e-20)
(-7.14985e-05 -0.000103842 -1.56285e-20)
(-6.77631e-05 -8.34915e-06 -8.83333e-21)
(-0.00145284 0.00275517 -3.85275e-19)
(-0.000159482 0.342185 1.25538e-17)
(-0.0463504 -0.25559 1.69957e-18)
(6.39712e-05 4.80502e-05 1.7827e-19)
(-0.000163692 5.85811e-05 6.56292e-19)
(-0.012395 0.239502 3.6952e-18)
(0.00125483 0.0343386 -7.63687e-20)
(-0.0195714 0.0435017 7.78747e-18)
(0.000280116 0.00106957 -5.65856e-20)
(6.23277e-05 0.000158784 -7.07084e-20)
(0.00113728 0.00335033 8.63657e-18)
(-0.00432335 0.0116165 5.47021e-20)
(-0.0520916 0.0362858 -2.35834e-18)
(-0.00291612 0.00109787 9.14339e-19)
(0.250097 -0.0962307 -1.68892e-19)
(7.92476e-05 -5.88349e-05 1.32246e-19)
(-0.0133562 -0.0158934 -1.63761e-18)
(0.000913064 0.00145552 6.71116e-18)
(0.000933249 -0.000459293 4.99077e-19)
(-0.0172145 -0.0105505 -3.66155e-18)
(0.000315713 -0.000111645 -1.0624e-19)
(0.0433575 0.0086757 3.90619e-19)
(0.00406437 -0.0277936 -7.5442e-19)
(5.68966e-05 4.55968e-05 -4.90013e-19)
(-0.000590648 0.00314091 -5.53309e-19)
(0.00199284 0.000866845 2.40878e-18)
(0.000388805 0.000931758 -5.43095e-19)
(-0.188142 0.389147 -7.01736e-18)
(-0.00326671 0.00124193 4.70351e-19)
(0.000176268 0.000315826 8.01635e-19)
(-0.0157618 -0.0506311 -6.94363e-18)
(-8.53262e-05 5.04146e-05 -6.26895e-20)
(0.000216313 -0.00141784 -1.19258e-18)
(-0.00170429 0.00143968 1.76884e-20)
(-0.0174585 -0.00901217 -3.97752e-19)
(0.00141027 -0.00639035 -2.50733e-18)
(-0.000113774 3.98792e-05 1.4931e-18)
(-0.00191849 0.00430303 1.31279e-18)
(-0.000124568 2.97008e-05 -2.23963e-19)
(0.0980929 -0.0510997 -5.38036e-18)
(0.00534499 0.0143308 -1.00025e-18)
(-6.81123e-05 -4.62468e-06 -2.46564e-19)
(5.0318e-05 5.22735e-07 -2.51045e-18)
(0.00041351 -0.00621807 -6.03053e-18)
(0.00211786 0.00126699 -2.77753e-18)
(0.000474744 0.000210321 -4.96265e-18)
(-0.00017052 6.04258e-05 -8.63772e-19)
(0.000297043 -0.000107365 6.65621e-20)
(0.00018055 0.000317716 -3.49805e-19)
(0.00507511 0.130475 1.88332e-18)
(0.153322 0.0102534 -2.85431e-17)
(-0.116587 -0.0888552 3.60345e-19)
(0.0107376 -0.0056366 -1.72813e-18)
(-0.014509 -0.0115653 6.88322e-18)
(-0.0197761 0.143668 -7.17918e-18)
(-0.000155163 1.62364e-05 -2.57566e-19)
(0.0019961 0.00305389 1.75733e-18)
(-0.0175137 0.0485186 -1.02397e-17)
(-0.0107085 -0.0200537 -2.95885e-18)
(0.0231532 0.0438839 1.77221e-18)
(-0.0148937 -0.00085695 -7.75249e-19)
(-0.054603 0.0373357 -3.99268e-18)
(-0.00474552 0.00181434 8.23658e-19)
(0.00151692 0.375061 -8.80671e-18)
(-0.00200413 -0.021417 7.80697e-19)
(-0.000165348 1.5709e-05 -1.05456e-18)
(-0.0165048 -0.0172785 -1.53321e-19)
(-0.0216498 -0.0154694 2.34436e-19)
(0.0866164 0.0700483 -3.9432e-18)
(0.000457154 0.000233048 1.86223e-18)
(0.0284125 0.0508475 1.12075e-18)
(0.0860626 -0.187655 2.4517e-17)
(8.69462e-05 -1.63086e-05 -6.21724e-19)
(-0.00262446 0.309776 1.61117e-17)
(4.76059e-05 3.23788e-05 -5.90692e-19)
(-0.000137725 2.89683e-05 -4.5152e-19)
(-8.51353e-05 -1.66621e-05 -1.09849e-20)
(-6.19486e-05 -6.11567e-05 6.80121e-20)
(7.79848e-05 2.37972e-05 -1.61491e-19)
(0.000102754 -0.0224538 2.37024e-18)
(0.00656686 -0.165282 -2.0288e-19)
(0.000153198 5.84427e-05 -7.79947e-20)
(-0.000372221 0.00308168 1.02615e-18)
(-9.13463e-05 6.18185e-05 1.28431e-19)
(0.24197 -0.101248 -1.00186e-18)
(-0.00658031 -0.012028 -3.5404e-18)
(-0.013789 -0.273287 -1.25214e-17)
(-0.066447 -0.103519 2.76889e-19)
(0.000163328 3.82203e-05 -1.40926e-19)
(0.0436449 -0.00215215 1.76596e-18)
(0.00224414 0.000524176 4.1123e-18)
(-0.0285388 -0.240547 -3.73559e-19)
(0.000121681 8.58767e-05 8.55695e-19)
(-8.04589e-05 3.09406e-05 2.51954e-20)
(-0.0081804 0.00894222 -5.93741e-19)
(0.131113 -0.054844 1.35506e-18)
(1.58621e-05 6.57419e-06 9.24812e-20)
(-0.244647 0.405723 2.1851e-18)
(-0.0151216 -0.0180563 9.58134e-19)
(-0.0161729 -0.00220286 3.45477e-18)
(-0.0281049 -0.16048 -1.2373e-18)
(-0.0440921 -0.0140651 3.29706e-19)
(-0.0422311 -0.0291763 -2.04916e-19)
(0.00580443 -0.00201125 -9.87604e-19)
(7.58972e-05 1.27244e-05 1.34146e-18)
(-0.000189956 1.10184e-05 8.18009e-20)
(0.00854839 -0.00522246 -1.24403e-18)
(-0.0018592 0.00389212 2.56596e-18)
(0.157309 0.0692034 -3.06448e-18)
(0.000471468 0.00265178 3.05667e-18)
(-0.00987648 -0.0160738 -1.72948e-18)
(0.00266 -0.0251672 -1.2664e-18)
(-9.51861e-05 4.29032e-05 1.64256e-19)
(-9.74621e-05 6.99249e-05 2.31982e-19)
(-0.0874236 -0.115948 -1.31966e-18)
(-0.0382839 -0.00218712 7.22578e-19)
(0.144638 0.058355 -1.48649e-18)
(-0.0484781 -0.0575871 -3.43125e-18)
(-0.00913956 0.0112735 8.81223e-20)
(0.0024356 0.000660915 -3.75854e-18)
(-2.41639e-05 -6.05093e-06 1.98284e-19)
(-0.029688 0.133918 -1.12906e-17)
(4.49908e-05 -0.000115244 1.03338e-19)
(0.000834666 -0.00618113 -4.75527e-19)
(0.00463429 -0.00186678 -8.75709e-19)
(1.06487e-05 0.000121459 2.04293e-18)
(-5.13317e-05 -4.13767e-06 1.09447e-20)
(6.30295e-05 4.28892e-05 4.29979e-19)
(-0.000100502 -8.85785e-06 -3.8749e-19)
(-0.0104207 0.0142877 -2.71118e-18)
(-0.00218663 0.0418569 -2.24129e-18)
(0.0719235 -0.0890274 -7.80419e-18)
(0.00804359 -0.000467033 -1.12262e-18)
(-0.00249592 0.00437056 4.72988e-19)
(-0.0113834 0.0172818 -3.25686e-18)
(-0.0691732 -0.0495611 2.85133e-19)
(-0.000428718 -0.00170227 8.4953e-20)
(0.0923743 0.0681366 -2.13465e-19)
(0.000813154 -0.000406483 8.13227e-19)
(0.0379761 0.0477259 3.7439e-19)
(-7.58566e-05 2.15144e-05 -8.85572e-20)
(6.4339e-05 3.95942e-05 1.07505e-19)
(-2.96702e-05 -1.08833e-06 2.92135e-19)
(0.0122923 0.0964835 6.09596e-18)
(-0.00555464 -0.153029 -1.02295e-17)
(-0.0212725 0.0196277 -4.46634e-18)
(-0.0126777 0.0129563 9.67006e-19)
(0.10611 -0.0785766 1.08573e-17)
(0.0158237 0.20663 4.27458e-18)
(0.034186 0.0155223 -1.11137e-19)
(1.65476e-05 -4.17479e-07 -1.51343e-19)
(-0.00358946 0.00154122 -9.0535e-18)
(0.000117901 8.4365e-05 6.34182e-20)
(-0.0715903 -0.0341071 -2.15451e-19)
(-5.3561e-05 3.35841e-06 8.75392e-20)
(0.11531 0.0383311 1.06588e-17)
(-0.0468094 0.0445681 -3.76703e-19)
(0.0280991 0.00486636 -1.69961e-18)
(-0.00845877 -0.0105228 -1.59556e-18)
(-0.000213469 -0.00171241 6.38385e-19)
(0.0134536 -0.0134416 -5.82782e-19)
(-0.0396413 0.018218 7.79552e-19)
(0.161066 -0.0616475 1.39876e-17)
(-0.00011619 -3.38168e-05 5.7191e-21)
(0.00289906 0.000985472 2.18992e-18)
(0.00145307 0.00692428 -3.99843e-18)
(0.0033824 0.0188222 3.22987e-19)
(3.52662e-05 -9.11117e-05 1.78263e-19)
(0.000192709 0.000330881 -7.91975e-19)
(0.000567652 5.94024e-05 9.37341e-19)
(-0.0180565 0.000758639 7.29923e-18)
(0.013812 0.00109496 6.69468e-19)
(-0.0698808 -0.333395 -4.2567e-19)
(-3.79418e-05 -7.94778e-06 -6.28181e-19)
(3.96056e-05 -3.39679e-05 -4.19437e-19)
(-0.0790535 -0.178141 3.78994e-18)
(-0.00376928 0.00347259 -1.8712e-19)
(-7.69485e-05 -9.53773e-05 -9.22993e-21)
(-0.0640976 -0.317863 -4.78639e-19)
(7.65852e-05 2.23093e-06 -9.07601e-19)
(-0.00149148 -6.81617e-05 3.24806e-18)
(6.19438e-05 -4.77454e-05 -2.40485e-19)
(-0.0193509 0.00893319 -3.66064e-18)
(0.000355428 0.000547486 -5.13826e-20)
(-6.07988e-05 -0.000124694 2.23482e-20)
(-0.000487051 -0.00140192 -4.92457e-20)
(-0.0208036 -0.0469763 5.17648e-18)
(3.30457e-05 0.00017912 -3.32559e-19)
(0.000401105 0.00298467 -6.45509e-18)
(5.31211e-05 -1.68164e-05 2.98731e-19)
(0.010007 -0.00289721 -1.84578e-18)
(0.0330053 -0.00395049 1.5163e-20)
(-2.90736e-05 -3.27822e-07 5.01155e-19)
(0.000158466 1.82337e-05 3.08521e-19)
(1.80675e-05 -1.45947e-06 -5.84947e-19)
(1.77721e-05 -2.30411e-06 -8.13378e-19)
(-0.0449253 -0.241333 6.97537e-19)
(0.000167983 0.00023068 -5.66105e-20)
(0.0428697 0.0359505 3.75088e-19)
(-2.72461e-05 0.000120564 -8.49753e-19)
(-2.55578e-05 -9.18301e-06 -2.8661e-20)
(0.104288 -0.0247061 -1.6066e-17)
(-0.00971599 -0.00909023 2.68293e-18)
(-7.49631e-06 0.000128953 -8.8534e-19)
(0.0112592 -0.00477958 1.0123e-18)
(-9.35227e-05 -0.00191398 -2.86023e-19)
(-0.0270733 -0.0974798 1.74794e-18)
(-0.115431 -0.25459 2.37734e-18)
(5.37462e-05 -7.52521e-05 3.08375e-19)
(-0.00754536 -0.172098 2.29443e-19)
(0.000118314 8.84245e-05 -2.63653e-19)
(0.00161647 0.0207013 5.30128e-18)
(3.58364e-05 0.000119979 1.03038e-19)
(0.0107716 -0.255858 -2.04732e-18)
(-7.56878e-05 7.74665e-06 -9.43618e-20)
(0.0315954 -0.0856685 -6.91856e-18)
(-0.0439739 -0.058564 8.33585e-18)
(-7.78026e-05 5.59782e-05 5.64449e-20)
(0.00932875 -0.00752005 1.78609e-18)
(-0.0659686 -0.11055 -1.20681e-20)
(0.0134545 -0.000711087 4.34429e-19)
(0.00724511 -0.131462 2.31733e-18)
(2.61441e-05 -1.44296e-06 9.24241e-21)
(-0.0173216 0.273153 1.25711e-17)
(-2.02775e-05 3.04857e-09 5.89335e-20)
(3.63204e-05 -4.46433e-05 6.65903e-19)
(7.2439e-05 -8.54714e-05 -1.86918e-19)
(-2.61594e-05 0.000188222 1.00262e-18)
(-0.0374493 -0.00302381 -1.98616e-18)
(-0.00456673 0.00426934 1.73233e-18)
(-0.0109013 -0.00763302 -9.00978e-18)
(-0.0467275 -0.00454431 1.59225e-17)
(0.0361319 -0.00715375 3.89559e-19)
(-7.10266e-06 -0.000169333 -5.52154e-21)
(-0.0793853 0.0255051 -2.4947e-18)
(-0.017445 -0.142899 -4.22908e-18)
(0.00159105 -0.000570963 9.47732e-19)
(0.00106264 0.00154456 4.80162e-19)
(-0.0127284 -0.0794218 -1.44134e-18)
(0.00499553 0.128472 9.18369e-18)
(0.0069177 -0.0228197 1.48373e-18)
(-0.000163825 1.00563e-05 -1.44088e-19)
(0.00964615 -0.275283 9.38622e-18)
(-0.128733 -0.250417 3.94163e-19)
(-0.1447 -0.189102 7.11821e-21)
(-0.00375738 0.00189442 1.25943e-18)
(0.00999929 -0.00958592 1.88317e-19)
(0.0113585 0.0234786 4.87035e-18)
(0.0177978 -0.0101069 1.12909e-19)
(0.0213701 -0.128522 2.86379e-19)
(0.0450251 -0.0757344 5.22771e-18)
(0.0588568 0.0930399 1.07716e-17)
(0.00016485 0.000833284 3.87548e-20)
(0.0365106 0.113096 3.17689e-18)
(0.000954787 -0.0287626 9.47431e-19)
(-7.50154e-05 1.00157e-05 3.3238e-19)
(0.016892 -0.00328842 1.80042e-19)
(-0.0048756 0.00357537 -2.67501e-18)
(-0.00613676 -0.00651604 3.456e-18)
(-6.32956e-05 0.000102829 4.81047e-19)
(4.1439e-05 4.80663e-05 -2.15177e-19)
(8.14315e-05 3.13587e-05 -5.31547e-19)
(0.000121905 -3.65356e-05 -7.1444e-21)
(-0.00564264 0.020362 1.49073e-18)
(-0.00397696 0.0207344 -1.34704e-19)
(-0.053551 -0.253507 4.04862e-18)
(-0.0844776 -0.361847 -5.12879e-18)
(2.50383e-05 -4.87854e-06 -5.98579e-19)
(-0.0856868 -0.151948 1.21681e-18)
(0.0111061 -0.0172577 -4.59086e-18)
(0.0589354 -0.0142559 1.01606e-18)
(-0.0228083 -0.0783396 5.17685e-18)
(0.000607521 0.00296898 -3.42145e-18)
(-8.96038e-05 -7.81419e-05 1.05416e-21)
(6.85258e-05 2.6192e-05 1.67085e-19)
(-0.00910084 -0.0172887 6.24085e-20)
(-0.0809526 0.0138384 -2.1096e-18)
(0.000533384 0.00015665 3.98843e-19)
(-0.000330654 -0.00289105 -2.44698e-18)
(0.000146835 -0.0126278 -4.60723e-18)
(-6.28076e-05 4.42906e-05 9.81135e-22)
(-0.0145058 0.0284924 -3.8509e-19)
(-0.0316926 0.0934708 -1.74212e-17)
(0.0940586 0.0554848 -1.37799e-17)
(-0.017211 0.00388046 -1.04813e-17)
(-0.0366125 -0.00364433 -3.08929e-19)
(-0.000242125 -0.0282972 -1.98612e-18)
(0.000119012 8.70508e-05 -6.5289e-20)
(4.24423e-06 0.000141173 -1.05715e-18)
(-0.053078 -0.261365 4.73696e-18)
(0.0029149 -0.0257332 -2.98497e-19)
(-0.00224269 -0.00823977 8.42196e-19)
(0.000398007 0.00253597 2.65775e-18)
(0.0375516 -0.0262835 8.54431e-19)
(-5.84855e-05 -5.63048e-05 4.0144e-20)
(6.18493e-05 3.0495e-05 3.134e-20)
(0.0882323 0.0660261 -1.08869e-17)
(-6.14283e-05 3.38287e-05 -1.26182e-19)
(-8.56998e-05 0.000195421 -3.28231e-19)
(-6.07085e-05 -9.18725e-05 -1.13044e-19)
(3.9989e-05 1.50311e-05 5.9219e-19)
(0.00252991 -0.0284504 -3.64794e-18)
(-0.00838089 0.0173626 4.53065e-18)
(-0.00864824 0.0103472 -1.35932e-18)
(-5.86568e-05 1.58557e-05 -5.3535e-20)
(-0.274652 0.402335 1.32706e-17)
(0.0474278 -0.11894 -1.51062e-18)
(8.38077e-05 -1.76526e-05 2.28799e-19)
(-3.10741e-05 -1.88119e-05 1.87213e-19)
(-0.000200491 0.000202013 2.3837e-20)
(-0.000196944 1.16176e-05 8.83472e-19)
(0.125719 -0.0985597 -3.11204e-17)
(0.027842 -0.00764878 -4.56896e-18)
(0.0191691 -0.054894 5.41956e-18)
(-0.129754 -0.173849 2.37566e-18)
(-0.00964975 0.310777 -1.32861e-18)
(0.000485221 0.00234389 7.78768e-18)
(-0.00416024 -0.00449559 2.34026e-18)
(-0.0159474 -0.00897363 4.21567e-20)
(-0.006002 0.00157983 -7.10955e-20)
(0.0010853 0.00287513 -1.52878e-18)
(-9.11909e-05 -6.67873e-05 8.07497e-21)
(-0.00120749 0.00187113 -3.55698e-19)
(0.00381374 -0.00635503 -8.6517e-21)
(-0.0329043 -0.0371628 -2.14248e-19)
(0.00807425 0.346613 -9.87637e-18)
(-0.000945245 -0.00264806 -1.31217e-18)
(0.00290414 -0.000387076 -1.29493e-18)
(6.42582e-05 1.13427e-06 2.49737e-19)
(-0.00302765 -0.00632594 4.79374e-19)
(-0.000991358 0.0012047 -7.99877e-19)
(0.00961268 -0.107002 -4.07638e-19)
(-0.00669875 0.00590698 5.23957e-18)
(-3.31868e-05 0.00011666 -3.90603e-19)
(0.0122918 -0.00388954 3.78264e-18)
(3.59407e-05 -8.88933e-05 1.11156e-19)
(0.00144137 0.00100782 -5.48841e-19)
(-0.0219698 0.0232312 -1.64158e-18)
(3.86338e-05 0.000147271 -1.56132e-18)
(0.000120337 7.18371e-05 -6.18851e-20)
(-0.00462625 -0.013169 -8.83552e-19)
(9.56432e-05 0.000160485 -7.14239e-19)
(-0.00390728 0.0184572 1.71732e-18)
(0.0281841 0.0885047 7.87836e-19)
(-0.0207312 0.0134839 -8.17415e-20)
(-0.00545177 -0.00596436 4.7985e-19)
(-0.00123926 -0.00878399 -7.5282e-18)
(6.07563e-05 2.73593e-06 -5.21034e-19)
(0.108409 0.0297879 1.77664e-19)
(0.00474003 0.0108115 -2.83251e-19)
(-0.0909665 -0.185457 2.06197e-18)
(0.000386179 -0.000359487 1.02543e-19)
(-2.09729e-06 -1.39245e-06 -3.19797e-19)
(-0.0114811 -0.0165932 -3.95952e-18)
(0.00155499 0.000256789 1.00847e-18)
(0.0110543 -0.17851 6.9015e-19)
(-0.00682119 -0.018854 5.62053e-18)
(-0.0621561 -0.256041 3.91526e-18)
(-0.0781392 -0.286148 -3.71462e-19)
(4.94092e-05 -0.000108708 -7.88847e-19)
(-0.00668517 -0.0181693 5.51479e-18)
(0.000111196 -0.000403466 -3.00401e-20)
(5.24751e-05 1.93518e-05 1.67185e-19)
(-7.61067e-05 -1.11324e-06 1.9714e-19)
(4.14052e-05 1.603e-05 -1.0318e-18)
(-3.90738e-05 -0.0010501 1.65717e-20)
(0.00902301 -0.00195931 3.79707e-19)
(-0.0153944 0.00922273 4.31938e-18)
(-5.8948e-05 6.25262e-06 7.30885e-20)
(0.0127237 0.135115 4.65424e-18)
(-0.0370903 -0.0681664 -7.33228e-18)
(0.0193047 0.138514 3.43796e-18)
(9.28672e-05 4.38738e-05 -3.21781e-19)
(-8.46539e-05 -2.43025e-05 -1.26925e-19)
(-6.98215e-05 2.99813e-06 -1.04026e-19)
(-0.0108763 0.0502251 -5.68104e-18)
(-0.170302 0.23152 9.5306e-18)
(-0.00107441 0.00173425 4.34566e-18)
(0.00156231 0.00103596 -2.03884e-19)
(0.000171013 -0.000463169 2.10982e-20)
(-2.14795e-05 -9.89334e-06 -9.1912e-19)
(1.90599e-05 -6.19354e-06 2.27541e-19)
(8.35691e-05 4.20229e-05 7.98045e-19)
(-0.0168808 -0.0200501 -6.10059e-19)
(0.0932883 0.181579 -3.37203e-18)
(8.05239e-05 0.000160235 2.11299e-18)
(-5.83607e-05 -1.41872e-05 -3.4425e-20)
(-3.76865e-05 0.000215182 -7.31167e-19)
(8.08646e-05 3.04786e-05 -4.58619e-19)
(0.143991 -0.00268106 -2.94717e-18)
(0.0483449 -0.0758559 -3.03539e-17)
(-0.00206293 -0.0070649 4.62859e-19)
(-0.0859311 -0.078405 3.8558e-18)
(-0.0204276 0.219899 -1.07993e-17)
(0.000121143 6.85296e-05 -2.11528e-20)
(-0.0118457 -0.0062439 -2.16574e-19)
(0.159317 -0.035993 -5.26924e-18)
(0.000976067 0.00311611 -7.44668e-19)
(0.19349 -0.0685436 -2.32664e-19)
(0.000166622 0.000146686 -8.5824e-19)
(0.00588093 0.000884628 -1.57273e-18)
(-0.00117166 0.00186358 -5.7007e-18)
(0.00656596 -0.00102508 -1.38527e-18)
(0.0330912 -0.118987 -4.40006e-18)
(-1.28538e-05 0.000127224 -8.19963e-19)
(0.0149939 0.0440005 7.0473e-18)
(-5.14005e-05 1.86194e-06 4.2007e-20)
(8.09209e-06 0.00204127 -4.43788e-18)
(-0.00907954 -0.0124589 3.93409e-18)
(0.000132032 5.02624e-05 -6.83902e-19)
(0.00115007 -0.00039751 -1.17347e-18)
(0.032016 -0.0303579 -3.04998e-19)
(4.01844e-05 -5.21879e-05 -1.6604e-18)
(0.00125507 -0.000622883 3.80978e-19)
(-0.00459912 0.288466 -7.00193e-18)
(0.0766681 0.250947 -6.47698e-19)
(-0.0061365 0.00680383 5.71338e-19)
(-0.0545477 0.0532336 -8.37415e-19)
(-0.0461591 -0.00421848 3.05833e-19)
(-6.6836e-05 -9.18071e-05 -6.57806e-20)
(9.31018e-05 3.76454e-05 2.78111e-19)
(0.0917645 -0.0390044 2.14611e-17)
(0.000709221 -0.0117441 2.64112e-18)
(0.00699504 0.0318524 1.74867e-20)
(-0.00450733 -0.0200622 -9.16799e-18)
(3.52866e-05 -0.000101804 -5.87092e-19)
(-0.000224469 9.19607e-06 -6.87421e-19)
(-7.6776e-05 1.86697e-05 -3.23976e-19)
(-0.000698785 0.311383 3.56508e-18)
(0.0019392 -0.0261449 -4.29828e-18)
(-0.00164169 0.00104399 -6.63756e-19)
(-3.45721e-05 7.66811e-05 7.8681e-19)
(0.03508 0.0092491 -9.63787e-20)
(0.00086552 0.000506256 -8.44892e-19)
(-6.94093e-05 3.12392e-06 -5.38789e-19)
(-0.14215 -0.163799 -1.57616e-17)
(0.0629869 -0.121603 -1.72724e-19)
(0.0159194 -0.0393748 -7.07414e-18)
(-8.06731e-05 5.87802e-05 -1.06219e-19)
(7.47346e-05 0.000145118 1.17725e-19)
(0.0040624 -0.00585801 4.66967e-18)
(0.00733175 -0.0218597 -4.65256e-17)
(0.00294341 -0.00968989 -1.67811e-18)
(-0.000645192 0.00101616 7.87743e-20)
(-0.000517208 -0.0245254 4.54582e-18)
(5.21808e-06 0.000153924 8.83746e-19)
(0.0367891 0.0350109 8.09225e-20)
(0.0501273 0.0416111 4.4063e-19)
(0.0318475 0.00661107 1.86324e-18)
(0.000161171 -0.000802466 -8.08239e-19)
(-0.0844667 -0.254329 -3.44202e-19)
(0.0072616 0.00062974 1.09021e-18)
(0.0016949 0.00193659 -6.27299e-19)
(0.0113028 -0.0202465 -5.37332e-18)
(-1.37738e-06 -1.60357e-06 8.52175e-19)
(-4.17091e-05 -2.31073e-06 4.10535e-19)
(0.000311071 0.000630541 1.16137e-19)
(6.31839e-05 -2.10964e-05 3.6157e-19)
(-0.136302 -0.191179 -1.77413e-17)
(0.00385563 -0.00345623 -3.85655e-19)
(-0.0170257 0.00170631 -9.42606e-19)
(-0.00939579 0.00765836 2.17372e-18)
(0.0243637 0.00438668 -4.31337e-19)
(6.10222e-05 2.24521e-05 -1.92144e-19)
(-0.0344682 0.315845 3.6259e-18)
(2.40177e-05 -1.16837e-05 3.41032e-19)
(0.00728394 -0.000864902 -1.22867e-18)
(-7.60538e-05 -1.7571e-06 -2.63759e-19)
(0.000121348 4.48232e-05 5.61672e-20)
(1.62662e-05 -1.70147e-05 -4.97875e-19)
(0.00454595 -0.0282959 2.13422e-18)
(7.69602e-05 1.5676e-05 1.09699e-19)
(-8.72271e-05 2.27006e-05 -7.34876e-22)
(-0.0808002 -0.0428568 9.21006e-20)
(1.21163e-05 0.000156821 -1.49874e-19)
(0.00193983 -0.00833304 1.4888e-18)
(-6.03395e-05 1.74156e-06 2.37841e-20)
(-0.00134446 7.55342e-05 1.39486e-18)
(-0.00314201 0.000313883 3.52862e-18)
(0.154353 -0.0190177 9.18607e-19)
(0.0333219 -0.115259 2.57e-19)
(3.09095e-05 2.72684e-06 -3.6479e-19)
(-0.0471613 0.190391 1.79275e-19)
(-0.0929256 -0.062205 -3.7153e-18)
(0.000174277 0.000242603 1.95528e-19)
(0.00783014 -0.0277282 3.39753e-18)
(4.77514e-05 0.00200854 6.65275e-18)
(6.39054e-05 -4.56208e-05 -9.32716e-20)
(0.0153922 0.00440206 1.60907e-19)
(-0.123682 -0.11567 -4.29665e-18)
(-0.00740497 0.15664 5.85731e-19)
(-0.000730792 -0.00110281 -3.17242e-20)
(2.06437e-05 -8.47081e-06 -8.03613e-20)
(-6.0318e-05 -2.29578e-05 8.89739e-21)
(-0.036729 -0.0555918 -3.87154e-18)
(0.0398706 0.00551476 4.35888e-18)
(-0.0475152 -0.0045081 4.42442e-18)
(-0.00250131 0.0012815 -8.55529e-19)
(0.0161923 0.000659219 3.94119e-19)
(-0.000163033 1.07039e-05 2.54206e-19)
(-0.0011785 0.000444728 -8.85537e-19)
(0.00168064 -0.00179684 8.7285e-18)
(-0.00627782 -0.216132 -5.35274e-19)
(-0.00211566 0.0232003 3.0064e-18)