/*--------------------------------*- C++ -*----------------------------------*\
| =========                 |                                                 |
| \\      /  F ield         | OpenFOAM: The Open Source CFD Toolbox           |
|  \\    /   O peration     | Version:  v2012                                 |
|   \\  /    A nd           | Website:  www.openfoam.com                      |
|    \\/     M anipulation  |                                                 |
\*---------------------------------------------------------------------------*/
FoamFile
{
    version     2.0;
    format      ascii;
    class       volVectorField;
    location    "100";
    object      ddtCorrDdt0(U);
}
// * * * * * * * * * * * * * * * * * * * * * * * * * * * * * * * * * * * * * //

dimensions      [0 1 -2 0 0 0 0];


internalField   nonuniform List<vector> 
13851
(
(-0.00140901 -0.000436157 9.69013e-19)
(0.0173452 0.178642 -5.00687e-18)
(0.0271056 0.0160267 2.33078e-18)
(-0.00116835 0.000252769 -3.24309e-18)
(-0.00455396 0.0162417 -5.1681e-19)
(0.0341114 0.0758589 -4.2811e-19)
(9.35176e-05 0.000246607 -7.49187e-19)
(0.0111689 0.00285693 -3.60996e-18)
(0.000140533 1.84659e-05 -5.02084e-19)
(0.0447001 -0.0324275 -1.18028e-18)
(0.00616391 0.121095 -8.46341e-19)
(0.224042 -0.0906419 4.25143e-19)
(-0.0258061 -0.00591965 -4.89836e-19)
(0.150106 0.0501346 1.29914e-18)
(8.54195e-05 1.65529e-05 1.23779e-18)
(-4.20673e-06 -0.00683262 6.07071e-19)
(0.00109705 -0.000390722 1.94458e-18)
(0.00653854 0.00280376 2.04392e-18)
(-0.053049 0.0294402 8.46588e-18)
(0.000137773 2.7466e-05 7.35872e-20)
(-0.000878204 0.000256156 -9.16959e-20)
(0.0229857 0.0173499 3.76629e-18)
(-3.73568e-05 1.77942e-06 9.46202e-20)
(0.000123686 -4.29704e-06 -1.77168e-19)
(-2.93827e-05 1.26818e-06 8.13047e-20)
(0.0124647 0.00201038 -3.39944e-19)
(0.000739449 0.000696203 3.65746e-18)
(-0.00741322 -0.000469369 -1.6061e-17)
(-0.00103075 -0.000548062 -8.55812e-19)
(0.00026932 0.00146537 1.15501e-18)
(0.0546196 0.0787741 3.90281e-19)
(0.00125026 -0.000436062 2.47255e-18)
(0.0277996 0.0126218 -1.99007e-18)
(0.0238465 0.178756 9.75603e-19)
(0.000127694 -3.65456e-06 -1.66773e-19)
(0.00500515 -0.0109575 -8.77043e-18)
(0.014197 -0.0208028 5.50613e-18)
(0.00395366 0.074115 -8.3496e-18)
(0.0520322 -0.0335324 -5.6789e-19)
(0.0419224 0.126977 9.84021e-19)
(0.000222261 7.24306e-05 7.04887e-19)
(-6.43477e-05 5.44713e-05 -7.03549e-20)
(-0.099435 -0.0766477 9.3072e-18)
(-0.00528867 0.119013 5.27232e-18)
(-0.000332504 0.142523 -3.06974e-18)
(-0.118805 -0.243013 -2.54809e-18)
(-0.000490062 0.105001 1.9357e-18)
(-0.0745521 -0.0858819 1.7681e-18)
(0.000764666 0.00076765 -5.07334e-18)
(0.0139133 -0.0227478 2.18296e-18)
(-0.00576319 0.00262223 -2.19954e-18)
(-0.0201661 0.000331548 -3.86565e-18)
(0.0335779 -0.0761903 1.08655e-17)
(9.21369e-05 1.25262e-05 1.78548e-19)
(0.000193277 3.85759e-06 -3.51212e-20)
(-5.98507e-05 5.68737e-05 1.0816e-19)
(5.978e-05 -1.57991e-05 -6.42699e-19)
(0.0360829 -0.166524 4.84843e-17)
(0.000450823 0.00129199 -7.55567e-19)
(0.000155729 0.00016391 -2.76051e-19)
(0.0121165 0.0780233 3.94863e-18)
(-0.274247 0.163589 2.21964e-18)
(0.0352182 -0.0183382 -1.14487e-18)
(-0.0104373 0.0165506 5.49809e-18)
(-0.222043 0.170748 2.04201e-19)
(-0.00369938 0.000263275 8.24857e-20)
(0.0111371 -0.0223952 8.61564e-18)
(0.00446908 0.0489492 1.69267e-18)
(0.000959228 0.00270902 4.26943e-18)
(0.00690737 0.00174113 3.89695e-19)
(-0.0364044 -0.00178457 1.8927e-18)
(-0.00191377 -0.019773 -2.80915e-18)
(0.0664122 0.123537 -1.2704e-17)
(9.08649e-05 1.24355e-05 -1.80105e-19)
(0.000211492 9.67898e-06 2.34623e-20)
(0.000115035 7.70957e-05 8.41637e-20)
(0.0204617 0.0159548 1.04641e-18)
(0.0227116 -0.0109474 -8.43535e-18)
(0.00215196 0.00671788 9.84294e-19)
(-0.0414489 -0.0010642 -1.58917e-18)
(0.000247899 0.000151668 2.74628e-19)
(-0.000360552 -0.00337825 -1.26181e-19)
(0.000176274 0.00017174 5.56893e-20)
(-0.110782 -0.270092 -3.95022e-18)
(0.0395534 -0.0136878 -1.07461e-18)
(0.231715 -0.109868 -2.79721e-19)
(0.0337438 0.0248746 -4.20252e-19)
(-0.0350642 -0.291172 -4.10633e-18)
(0.00136732 0.00036794 -1.11526e-18)
(-0.000210693 7.51225e-05 -3.72915e-20)
(0.0039439 -0.0107425 1.35567e-17)
(-0.0146446 -0.0113008 4.11451e-19)
(0.00743081 -6.9837e-06 4.01849e-18)
(0.0018515 0.000955956 -2.06425e-18)
(0.00125182 0.000414758 9.82443e-19)
(6.85863e-05 -3.99537e-06 4.79968e-19)
(-0.00655781 0.0159056 2.72737e-18)
(-0.0598889 -0.0741352 -4.77584e-19)
(0.0149594 -0.0270488 -1.1967e-18)
(6.61544e-05 -3.46337e-06 -2.88095e-19)
(0.10026 -0.0196978 -2.46373e-18)
(-0.00102991 0.00541142 -6.08817e-18)
(0.00049198 -0.00048104 -3.11765e-19)
(0.000180877 0.00113253 6.81901e-18)
(-5.12675e-05 -6.54363e-06 2.9333e-20)
(0.0396162 0.00225089 -1.52404e-18)
(-0.00269245 0.00492578 4.61318e-18)
(-5.69597e-05 -4.30116e-05 2.19979e-20)
(-0.0140436 -0.0144633 -1.46713e-18)
(0.00789758 0.0952762 6.6967e-19)
(8.10745e-05 -7.37803e-06 -3.81388e-19)
(-0.000281219 3.48329e-05 5.63571e-20)
(-0.012147 -0.00923981 -9.0801e-19)
(7.33584e-05 -6.2807e-07 1.23656e-18)
(8.55377e-05 -9.93493e-06 -1.41064e-19)
(0.0427952 0.0438043 -1.42302e-18)
(-0.061313 -0.0638245 5.12101e-18)
(-6.68488e-05 2.81691e-05 -7.09685e-21)
(0.000170942 -2.24653e-06 -1.92305e-19)
(0.000211333 -2.82577e-07 2.38719e-19)
(-0.0709049 -0.0835357 -1.0751e-17)
(0.000218141 0.00108029 -6.89973e-18)
(-0.0314922 -0.00659503 6.35203e-19)
(0.0276411 0.109249 -3.31115e-18)
(-0.0799668 -0.0727254 -1.66753e-18)
(-0.00035801 0.0014949 1.70308e-19)
(-0.0805472 -0.0345352 -1.64708e-18)
(0.000390067 0.00642776 -2.03011e-18)
(-0.000671465 0.000502245 -5.12492e-19)
(-0.0179698 0.0350181 5.51404e-18)
(0.000222203 7.68036e-05 -4.80365e-20)
(0.000170097 -6.49523e-05 4.64914e-19)
(-0.0361886 -0.00264549 -2.24636e-18)
(0.000165342 0.000160899 -5.25727e-20)
(0.04862 0.104773 1.20738e-18)
(0.000174715 -1.93481e-05 -8.83445e-19)
(-6.77257e-05 2.67095e-05 1.89278e-19)
(-1.57053e-05 -0.0221866 2.16568e-18)
(-0.149229 0.367661 -5.97049e-18)
(-3.56853e-05 0.319884 -1.48903e-18)
(0.071215 -0.0454345 -1.23832e-17)
(0.000197789 3.18964e-06 6.17681e-20)
(-0.00114083 -0.000953068 1.79453e-19)
(-8.50346e-05 -0.000133447 -3.42065e-19)
(0.000238359 -2.00282e-05 3.4005e-20)
(-0.0110944 0.0897654 9.40023e-19)
(-0.000519075 -0.0029894 -2.2239e-21)
(-0.0156903 0.0392565 -2.52292e-18)
(9.50863e-05 0.000225837 -2.72163e-19)
(0.00652948 0.14868 2.05531e-18)
(0.000649782 -0.000368857 -1.43105e-17)
(0.000215232 1.0539e-07 5.48469e-20)
(0.152165 0.0349141 2.18126e-18)
(5.38418e-05 -1.75295e-05 -4.15971e-19)
(0.000554658 0.000141642 5.64449e-19)
(0.000174905 5.35987e-05 -2.46194e-19)
(0.000168447 2.44794e-05 -4.09759e-19)
(0.000190505 0.000724428 1.71958e-19)
(-0.0216088 0.00162425 -3.57612e-18)
(-0.00580323 0.00329974 -1.13416e-18)
(-2.53544e-05 -0.000145031 -1.16084e-20)
(0.000983141 0.00153229 -8.41178e-19)
(0.0364141 -0.113952 1.52469e-17)
(0.000163937 -7.19205e-05 -8.80047e-20)
(-0.00336553 0.00249064 -3.86719e-19)
(-8.70642e-05 -3.49907e-05 2.42343e-19)
(-0.000325728 -0.0041675 -1.43202e-21)
(0.000761869 0.00277111 -5.6088e-18)
(-0.000526348 0.000469773 2.47093e-19)
(-0.0379174 -0.120283 -5.69986e-19)
(0.0228573 -0.0073059 9.24e-18)
(7.49703e-05 -1.74955e-05 2.07682e-21)
(0.000170061 -1.22219e-07 -4.52751e-19)
(-0.00747366 0.322683 4.84909e-18)
(0.000162189 -6.79913e-05 -1.43432e-19)
(-0.0690953 -0.146264 -1.77723e-18)
(0.00101548 0.00626763 2.26053e-18)
(0.000496341 -0.00167539 -2.51565e-18)
(-0.0516369 0.0229319 -1.4642e-17)
(-5.05706e-05 -7.5727e-05 -1.84389e-20)
(0.00148259 -0.000695965 5.11622e-20)
(-0.00471103 -0.0207689 -1.35384e-18)
(0.000148121 0.000134697 5.52771e-19)
(0.0222375 0.0209666 -6.15958e-18)
(-0.000118817 -2.46221e-05 -3.14866e-20)
(9.28513e-06 -2.54367e-06 2.85358e-19)
(-0.00376686 -0.000616802 -5.71327e-19)
(0.000201411 5.8518e-06 -2.89918e-19)
(-0.00476984 0.0231227 -4.65513e-19)
(-0.0165548 -0.0711505 4.33516e-18)
(-8.60653e-06 0.0666615 2.41684e-19)
(0.0481598 -0.0784973 3.05143e-17)
(-0.000484161 0.000153311 -2.14156e-19)
(0.00177479 0.00284506 -6.65433e-18)
(-0.224496 0.18341 -7.89451e-18)
(0.000512147 0.000106373 -1.14836e-18)
(-0.000918634 -0.00062785 4.11046e-19)
(0.0551537 -0.0823112 9.83671e-19)
(0.000203754 -0.00147103 1.33968e-18)
(0.000105398 7.45235e-05 -7.74394e-19)
(-0.000710872 0.00143423 1.27947e-19)
(-0.177173 -0.180379 -4.9081e-18)
(0.000180666 -2.7328e-06 -2.29596e-19)
(0.000240894 -2.06712e-05 1.48151e-19)
(0.00557744 -0.0458715 2.64613e-18)
(0.000149962 0.000138241 -1.12612e-18)
(-0.0186523 0.136603 -1.09512e-17)
(0.00126787 -0.000150916 -1.20769e-18)
(-0.0157678 -0.0105731 4.21372e-18)
(-4.89836e-05 -0.000131517 -1.93362e-20)
(0.00170808 -0.0219699 -4.82213e-18)
(0.000429943 -0.000413603 -1.77006e-19)
(0.0204496 -0.112271 -1.55069e-18)
(-7.10212e-05 -9.62384e-05 -5.12506e-20)
(-0.000102317 -5.03257e-05 -2.6638e-19)
(0.0305068 0.0696108 4.86326e-19)
(0.0380761 -0.00222202 -3.7563e-19)
(-0.0938031 -0.246692 1.19131e-18)
(9.82054e-05 3.68212e-05 -4.12478e-19)
(-0.0140385 -0.0119104 -3.77375e-18)
(0.00137774 -0.000210089 -1.32552e-18)
(0.000261602 0.000144835 3.03349e-18)
(-0.000945148 -0.0392342 2.94477e-18)
(-0.0230562 0.0141001 -4.69117e-18)
(-0.0135748 -0.0150168 -3.09279e-18)
(-3.98304e-06 -6.21358e-06 1.82405e-19)
(0.00230448 0.00143722 6.81839e-19)
(-3.25712e-05 -2.14242e-06 -5.19359e-21)
(0.0759827 -0.172606 -3.12329e-17)
(-7.19366e-05 -0.000103648 -2.61939e-21)
(0.0122014 0.00036517 1.55236e-18)
(0.110217 0.120327 -8.52171e-20)
(7.40503e-05 -1.09146e-05 5.69962e-20)
(-0.000358855 0.000211044 3.85982e-19)
(-0.00376991 0.00206453 4.87828e-18)
(0.00807817 0.026011 -8.24306e-19)
(0.00461608 0.130268 -2.24927e-17)
(-0.232128 0.147609 -3.2273e-19)
(-9.87629e-05 -0.00010866 -2.02732e-19)
(0.000245412 -2.3231e-06 -1.41101e-19)
(0.0706293 0.0457679 9.74046e-20)
(-0.0487987 -0.0800931 6.44143e-19)
(0.000114207 -0.000331823 -5.92557e-21)
(0.00850527 -0.0513362 -2.89134e-18)
(-6.79191e-05 -1.04836e-05 9.18176e-22)
(-0.015916 -0.0146807 2.91246e-18)
(-0.00108693 0.00605068 4.91424e-18)
(0.0192795 0.0535847 -6.66126e-18)
(8.17821e-05 9.29524e-05 -4.57236e-19)
(7.58319e-05 -0.00121597 7.69909e-19)
(0.00609399 0.00791565 -2.31198e-19)
(-0.060365 -0.0837944 -9.19897e-19)
(0.000256667 0.000272721 1.27661e-18)
(0.000104536 3.85019e-06 -4.62115e-19)
(-0.00172714 0.00266135 -5.13411e-18)
(0.0434951 -0.115095 7.58538e-19)
(-0.0249223 -0.0636146 -3.32073e-18)
(-0.00197234 -0.0230767 4.14916e-19)
(0.142191 -0.0412551 4.48155e-18)
(8.87716e-05 6.09952e-05 3.13345e-19)
(-9.61212e-05 -8.32836e-05 3.52372e-20)
(0.00583679 -0.000113769 9.20483e-19)
(-0.019466 0.343512 9.30283e-19)
(-0.000129388 0.000211942 4.4355e-20)
(-0.0564641 0.0441993 8.20981e-18)
(0.000497363 9.76822e-05 -2.15951e-18)
(0.000252931 0.000263944 -2.20082e-18)
(0.00172488 0.000874633 3.06383e-19)
(-0.000457722 -0.0366511 1.19176e-18)
(-0.000971607 0.0144985 -2.4091e-19)
(0.00732912 0.00635421 -9.09219e-19)
(0.000554741 0.000116036 7.31284e-20)
(-0.0418614 0.237748 2.42529e-18)
(0.00232947 0.00602952 -1.14363e-18)
(-0.000936591 -0.00622751 -1.24745e-19)
(0.000168718 -7.18085e-05 -9.51466e-19)
(0.00274878 0.0166634 1.90687e-19)
(0.0189685 0.0017317 -3.42595e-20)
(-0.0202845 -0.00779616 -2.16755e-19)
(0.0182788 0.115021 1.53895e-18)
(8.59065e-05 -0.000337512 2.3425e-20)
(-6.80722e-05 -0.000103837 -1.56285e-20)
(-6.40677e-05 -8.34874e-06 -8.83332e-21)
(-0.00143916 0.00275457 -3.85271e-19)
(-0.000155684 0.342184 1.25538e-17)
(-0.0463485 -0.255589 1.69957e-18)
(0.000126595 4.80019e-05 1.78268e-19)
(6.62994e-05 5.84755e-05 6.56258e-19)
(-0.0123857 0.239502 3.6952e-18)
(0.00125388 0.0343386 -7.63687e-20)
(-0.0195649 0.0435013 7.78747e-18)
(0.000328977 0.00106866 -5.65873e-20)
(0.0001669 0.000158133 -7.07055e-20)
(0.00115637 0.00334955 8.63655e-18)
(-0.00432405 0.0116165 5.47021e-20)
(-0.0520883 0.0362857 -2.35834e-18)
(-0.00288406 0.00109716 9.14335e-19)
(0.250099 -0.0962312 -1.68892e-19)
(0.000178414 -5.89601e-05 1.32239e-19)
(-0.013356 -0.0158934 -1.63761e-18)
(0.000945985 0.00145459 6.71114e-18)
(0.000975758 -0.000460409 4.99076e-19)
(-0.0172142 -0.0105505 -3.66155e-18)
(0.000397587 -0.000112498 -1.06238e-19)
(0.043379 0.00867465 3.90619e-19)
(0.00406471 -0.0277936 -7.5442e-19)
(0.000129169 4.55421e-05 -4.90011e-19)
(-0.000574861 0.00314026 -5.53317e-19)
(0.00202482 0.000865783 2.40877e-18)
(0.00043835 0.000930854 -5.43093e-19)
(-0.188142 0.389147 -7.01735e-18)
(-0.00322781 0.00124107 4.70351e-19)
(0.00025836 0.000314778 8.01632e-19)
(-0.0157609 -0.0506311 -6.94363e-18)
(-7.52871e-05 5.04283e-05 -6.26895e-20)
(0.0002499 -0.00141878 -1.19258e-18)
(-0.00169381 0.00143973 1.76885e-20)
(-0.0174582 -0.00901221 -3.97752e-19)
(0.00141483 -0.00639061 -2.50733e-18)
(9.93705e-05 3.9525e-05 1.49308e-18)
(-0.00190477 0.0043024 1.31278e-18)
(8.9561e-05 2.94446e-05 -2.2395e-19)
(0.098093 -0.0510997 -5.38036e-18)
(0.00537343 0.0143306 -1.00025e-18)
(-3.862e-05 -4.62178e-06 -2.46563e-19)
(0.000118886 3.14336e-07 -2.51044e-18)
(0.000418161 -0.00621833 -6.03053e-18)
(0.00214704 0.00126596 -2.77753e-18)
(0.000533616 0.000209322 -4.96261e-18)
(6.11703e-05 6.03482e-05 -8.63735e-19)
(0.000384914 -0.00010827 6.65602e-20)
(0.000263238 0.000316676 -3.49802e-19)
(0.00507739 0.130475 1.88332e-18)
(0.153322 0.0102531 -2.85431e-17)
(-0.116587 -0.0888551 3.60345e-19)
(0.0107671 -0.00563738 -1.72813e-18)
(-0.0145086 -0.0115653 6.88322e-18)
(-0.0197735 0.143668 -7.17918e-18)
(8.76786e-05 1.60719e-05 -2.57561e-19)
(0.00201845 0.00305297 1.75733e-18)
(-0.0175075 0.0485183 -1.02397e-17)
(-0.0106816 -0.0200534 -2.95885e-18)
(0.0231769 0.043883 1.7722e-18)
(-0.0148878 -0.00085722 -7.75249e-19)
(-0.0545991 0.0373356 -3.99268e-18)
(-0.00471028 0.00181442 8.23657e-19)
(0.00151778 0.37506 -8.80671e-18)
(-0.00200385 -0.021417 7.80697e-19)
(8.36956e-05 1.55682e-05 -1.05454e-18)
(-0.016497 -0.0172783 -1.53321e-19)
(-0.0216416 -0.0154692 2.34435e-19)
(0.0866217 0.0700473 -3.9432e-18)
(0.000516475 0.000232064 1.86221e-18)
(0.0284292 0.0508468 1.12076e-18)
(0.0860626 -0.187655 2.4517e-17)
(0.000171428 -1.65556e-05 -6.21713e-19)
(-0.00262422 0.309776 1.61117e-17)
(0.000115999 3.2176e-05 -5.90687e-19)
(8.64249e-05 2.87199e-05 -4.51522e-19)
(-8.03881e-05 -1.66611e-05 -1.09848e-20)
(-5.6506e-05 -6.11511e-05 6.80121e-20)
(0.000172416 2.35618e-05 -1.61495e-19)
(0.000103139 -0.0224538 2.37024e-18)
(0.00656913 -0.165282 -2.0288e-19)
(0.000273775 5.75276e-05 -7.79957e-20)
(-0.00035575 0.00308101 1.02615e-18)
(-8.15014e-05 6.18339e-05 1.28431e-19)
(0.241972 -0.101248 -1.00186e-18)
(-0.00655969 -0.0120287 -3.5404e-18)
(-0.0137903 -0.273288 -1.25214e-17)
(-0.0664467 -0.103519 2.76889e-19)
(0.000281888 3.7293e-05 -1.40923e-19)
(0.0436591 -0.00215309 1.76596e-18)
(0.00227581 0.000523095 4.11229e-18)
(-0.0285369 -0.240547 -3.73556e-19)
(0.000225515 8.52887e-05 8.55682e-19)
(-6.91384e-05 3.09492e-05 2.51955e-20)
(-0.00814951 0.0089424 -5.93739e-19)
(0.131113 -0.0548442 1.35506e-18)
(0.000207727 6.39251e-06 9.2479e-20)
(-0.244647 0.405723 2.1851e-18)
(-0.015094 -0.0180559 9.58133e-19)
(-0.0161675 -0.00220311 3.45477e-18)
(-0.0281047 -0.16048 -1.2373e-18)
(-0.0440865 -0.0140647 3.29706e-19)
(-0.0422256 -0.029176 -2.04915e-19)
(0.00583787 -0.00201151 -9.87599e-19)
(0.000180596 1.25867e-05 1.34144e-18)
(8.70313e-05 1.09162e-05 8.17847e-20)
(0.0085791 -0.0052232 -1.24403e-18)
(-0.00184606 0.00389152 2.56596e-18)
(0.157309 0.0692033 -3.06448e-18)
(0.000490962 0.00265107 3.05667e-18)
(-0.00987614 -0.0160738 -1.72948e-18)
(0.00266034 -0.0251672 -1.2664e-18)
(-8.53463e-05 4.29188e-05 1.64256e-19)
(8.87749e-05 6.95893e-05 2.31977e-19)
(-0.0874234 -0.115948 -1.31966e-18)
(-0.0382839 -0.00218712 7.22578e-19)
(0.144649 0.0583536 -1.48649e-18)
(-0.0484772 -0.0575871 -3.43125e-18)
(-0.00911144 0.0112737 8.81225e-20)
(0.00246625 0.00065983 -3.75853e-18)
(2.85879e-05 -6.04925e-06 1.98285e-19)
(-0.029685 0.133918 -1.12906e-17)
(0.000111749 -0.000115258 1.03339e-19)
(0.000860688 -0.00618208 -4.75526e-19)
(0.00466936 -0.00186702 -8.75707e-19)
(0.000129701 0.000120945 2.04289e-18)
(-4.64847e-05 -4.13743e-06 1.09447e-20)
(0.000133789 4.28381e-05 4.29977e-19)
(-8.90451e-05 -8.83885e-06 -3.8749e-19)
(-0.0104127 0.0142873 -2.71118e-18)
(-0.0021682 0.0418565 -2.24128e-18)
(0.0719236 -0.0890274 -7.80419e-18)
(0.00807675 -0.000467856 -1.12262e-18)
(-0.00248369 0.00436999 4.72984e-19)
(-0.0113563 0.017282 -3.25685e-18)
(-0.0691713 -0.0495609 2.85133e-19)
(-0.000393477 -0.00170325 8.49529e-20)
(0.0923793 0.0681356 -2.13468e-19)
(0.000857748 -0.000407612 8.13226e-19)
(0.0379808 0.0477256 3.7439e-19)
(-6.52824e-05 2.15208e-05 -8.85571e-20)
(0.000135405 3.95439e-05 1.07503e-19)
(1.06687e-05 -1.08718e-06 2.92134e-19)
(0.0122978 0.0964829 6.09595e-18)
(-0.00555446 -0.153029 -1.02295e-17)
(-0.0212659 0.0196274 -4.46634e-18)
(-0.012651 0.0129565 9.66999e-19)
(0.10611 -0.0785766 1.08573e-17)
(0.0158276 0.206629 4.27458e-18)
(0.0342085 0.0155214 -1.11137e-19)
(0.00021532 -5.14354e-07 -1.51337e-19)
(-0.0035792 0.00154074 -9.0535e-18)
(0.000226748 8.37711e-05 6.34182e-20)
(-0.0715816 -0.0341059 -2.15451e-19)
(-4.46819e-05 3.3593e-06 8.75391e-20)
(0.115314 0.03833 1.06588e-17)
(-0.0468036 0.0445694 -3.76702e-19)
(0.0281113 0.00486527 -1.6996e-18)
(-0.00845873 -0.0105228 -1.59556e-18)
(-0.000172612 -0.00171243 6.38385e-19)
(0.0134589 -0.0134417 -5.82782e-19)
(-0.039639 0.0182186 7.79552e-19)
(0.161066 -0.0616477 1.39876e-17)
(-0.000113798 -3.38154e-05 5.7191e-21)
(0.0029264 0.00098443 2.18991e-18)
(0.00146864 0.00692349 -3.99842e-18)
(0.00339263 0.0188222 3.22986e-19)
(0.000101095 -9.11206e-05 1.78262e-19)
(0.000273444 0.000329846 -7.9197e-19)
(0.000575921 5.90098e-05 9.37333e-19)
(-0.0180513 0.000758407 7.29922e-18)
(0.0138407 0.00109404 6.69467e-19)
(-0.0698811 -0.333394 -4.2567e-19)
(-3.84571e-06 -7.94475e-06 -6.28179e-19)
(0.000103682 -3.41684e-05 -4.19438e-19)
(-0.0790535 -0.178141 3.78994e-18)
(-0.00373739 0.00347192 -1.87115e-19)
(-7.52341e-05 -9.53748e-05 -9.22994e-21)
(-0.0640955 -0.317862 -4.78639e-19)
(0.000181419 2.09955e-06 -9.07591e-19)
(-0.00144415 -6.85064e-05 3.24805e-18)
(0.00013434 -4.77765e-05 -2.40483e-19)
(-0.0193288 0.00893299 -3.66063e-18)
(0.000413626 0.000546513 -5.13831e-20)
(-5.7109e-05 -0.000124688 2.23482e-20)
(-0.000446858 -0.00140193 -4.9246e-20)
(-0.0208027 -0.0469763 5.17648e-18)
(0.000177599 0.000178355 -3.3255e-19)
(0.000420756 0.00298391 -6.45508e-18)
(0.000177897 -1.68826e-05 2.98734e-19)
(0.0100377 -0.00289768 -1.84578e-18)
(0.0330097 -0.00395069 1.51627e-20)
(7.2544e-05 -3.2692e-07 5.01136e-19)
(0.000243639 1.77583e-05 3.08521e-19)
(0.000111325 -1.45453e-06 -5.84939e-19)
(0.000107459 -2.30375e-06 -8.13366e-19)
(-0.0449195 -0.241333 6.97538e-19)
(0.000252256 0.000229661 -5.66205e-20)
(0.0428902 0.0359496 3.75084e-19)
(0.000140284 0.000119942 -8.49728e-19)
(2.25685e-05 -9.17927e-06 -2.86609e-20)
(0.104288 -0.0247062 -1.6066e-17)
(-0.00971596 -0.00909023 2.68293e-18)
(0.000144701 0.000128279 -8.85334e-19)
(0.0112903 -0.00478011 1.01229e-18)
(-5.86589e-05 -0.00191498 -2.86022e-19)
(-0.027067 -0.0974796 1.74794e-18)
(-0.115431 -0.25459 2.37734e-18)
(0.000117923 -7.54598e-05 3.08374e-19)
(-0.0075429 -0.172098 2.29443e-19)
(0.00022279 8.78104e-05 -2.63646e-19)
(0.00162632 0.0207007 5.30127e-18)
(0.000150525 0.000119351 1.03034e-19)
(0.0107716 -0.255858 -2.04732e-18)
(-6.61408e-05 7.7509e-06 -9.43617e-20)
(0.0315954 -0.0856685 -6.91856e-18)
(-0.043962 -0.0585639 8.33586e-18)
(-6.89759e-05 5.59892e-05 5.64448e-20)
(0.00935989 -0.0075205 1.78609e-18)
(-0.0659682 -0.11055 -1.20681e-20)
(0.0134718 -0.000712185 4.34427e-19)
(0.00724552 -0.131462 2.31733e-18)
(0.000170833 -1.48064e-06 9.23938e-21)
(-0.0173193 0.273153 1.25711e-17)
(0.000192332 -1.17049e-07 5.89332e-20)
(0.000134907 -4.47016e-05 6.65892e-19)
(0.000168104 -8.55837e-05 -1.86915e-19)
(9.69865e-05 0.000187868 1.00261e-18)
(-0.0374493 -0.00302381 -1.98616e-18)
(-0.00455649 0.00426886 1.73233e-18)
(-0.0108965 -0.00763325 -9.00978e-18)
(-0.0467242 -0.00454439 1.59225e-17)
(0.0361553 -0.00715511 3.89565e-19)
(-5.56938e-06 -0.00016933 -5.52154e-21)
(-0.079383 0.0255052 -2.4947e-18)
(-0.0174427 -0.142898 -4.22908e-18)
(0.00162799 -0.000572078 9.47731e-19)
(0.00109359 0.00154364 4.80161e-19)
(-0.0127182 -0.0794216 -1.44134e-18)
(0.0049952 0.128472 9.18369e-18)
(0.00691829 -0.0228198 1.48373e-18)
(0.000113021 9.94934e-06 -1.44084e-19)
(0.00964615 -0.275283 9.38622e-18)
(-0.128733 -0.250417 3.94163e-19)
(-0.1447 -0.189102 7.11828e-21)
(-0.00372248 0.00189366 1.25942e-18)
(0.0100308 -0.0095864 1.88318e-19)
(0.0113575 0.0234783 4.87035e-18)
(0.0178032 -0.010107 1.12908e-19)
(0.0213798 -0.128522 2.86377e-19)
(0.0450257 -0.0757346 5.22771e-18)
(0.0588603 0.0930389 1.07716e-17)
(0.000217798 0.000832315 3.87541e-20)
(0.0365136 0.113095 3.17688e-18)
(0.000956079 -0.0287627 9.47431e-19)
(-6.47643e-05 1.00209e-05 3.32379e-19)
(0.0168982 -0.00328852 1.80042e-19)
(-0.00486556 0.00357489 -2.67501e-18)
(-0.00613674 -0.00651604 3.456e-18)
(-1.41775e-05 0.000101818 4.81046e-19)
(0.000211825 4.73894e-05 -2.15171e-19)
(0.000171115 3.11262e-05 -5.31545e-19)
(0.000234353 -3.72442e-05 -7.14197e-21)
(-0.00563446 0.0203615 1.49072e-18)
(-0.00395516 0.020734 -1.34704e-19)
(-0.0535484 -0.253506 4.04862e-18)
(-0.0844776 -0.361847 -5.12879e-18)
(0.000125738 -4.90391e-06 -5.98583e-19)
(-0.0856868 -0.151948 1.21681e-18)
(0.0111061 -0.0172577 -4.59086e-18)
(0.0589523 -0.0142572 1.01605e-18)
(-0.0228067 -0.0783392 5.17685e-18)
(0.000627183 0.00296822 -3.42145e-18)
(-8.83496e-05 -7.81402e-05 1.05416e-21)
(0.000138722 2.61447e-05 1.67082e-19)
(-0.00910078 -0.0172887 6.24085e-20)
(-0.0809508 0.0138384 -2.1096e-18)
(0.000586647 0.000155666 3.98845e-19)
(-0.000324469 -0.00289137 -2.44698e-18)
(0.000150227 -0.012628 -4.60723e-18)
(-5.48231e-05 4.43004e-05 9.81206e-22)
(-0.0144822 0.0284926 -3.85092e-19)
(-0.031691 0.0934712 -1.74212e-17)
(0.0940647 0.0554837 -1.37799e-17)
(-0.0172045 0.00388017 -1.04813e-17)
(-0.0366124 -0.00364433 -3.08929e-19)
(-0.000240866 -0.0282973 -1.98612e-18)
(0.000222756 8.64194e-05 -6.52893e-20)
(0.000123923 0.000140682 -1.05714e-18)
(-0.0530774 -0.261364 4.73696e-18)
(0.00291522 -0.0257332 -2.98497e-19)
(-0.00223822 -0.00824001 8.42193e-19)
(0.000417388 0.00253529 2.65776e-18)
(0.0375697 -0.0262846 8.5443e-19)
(-5.22294e-05 -5.62979e-05 4.0144e-20)
(0.000204246 2.99488e-05 3.13404e-20)
(0.0882365 0.066025 -1.08869e-17)
(-5.45117e-05 3.38366e-05 -1.26182e-19)
(-3.64238e-05 0.000194426 -3.28232e-19)
(-5.62101e-05 -9.18672e-05 -1.13044e-19)
(0.000173594 1.48939e-05 5.92183e-19)
(0.00253118 -0.0284505 -3.64794e-18)
(-0.00837243 0.0173621 4.53065e-18)
(-0.00861795 0.0103473 -1.35932e-18)
(-5.16424e-05 1.58637e-05 -5.35349e-20)
(-0.274652 0.402335 1.32706e-17)
(0.0474319 -0.118941 -1.51062e-18)
(0.00018328 -1.77923e-05 2.28795e-19)
(1.89205e-05 -1.88052e-05 1.87213e-19)
(-0.00018515 0.000202046 2.38368e-20)
(8.62229e-05 1.14841e-05 8.83468e-19)
(0.125719 -0.0985598 -3.11204e-17)
(0.0278426 -0.00764897 -4.56896e-18)
(0.0191706 -0.0548945 5.41956e-18)
(-0.129754 -0.173849 2.37566e-18)
(-0.00964782 0.310777 -1.32861e-18)
(0.000509501 0.00234307 7.78767e-18)
(-0.00416024 -0.00449559 2.34026e-18)
(-0.0159473 -0.00897363 4.21567e-20)
(-0.00596063 0.00157997 -7.10988e-20)
(0.00110755 0.00287427 -1.52878e-18)
(-9.04879e-05 -6.67863e-05 8.07497e-21)
(-0.00119692 0.00187117 -3.55698e-19)
(0.00383776 -0.00635606 -8.6515e-21)
(-0.0329031 -0.0371628 -2.14248e-19)
(0.00807757 0.346612 -9.87637e-18)
(-0.000939102 -0.00264837 -1.31217e-18)
(0.00293508 -0.000388211 -1.29493e-18)
(0.000139075 1.09036e-06 2.49735e-19)
(-0.00300316 -0.00632669 4.79371e-19)
(-0.00095613 0.00120471 -7.99879e-19)
(0.00961295 -0.107002 -4.07638e-19)
(-0.00668905 0.0059065 5.23956e-18)
(0.000139268 0.000116059 -3.90602e-19)
(0.012321 -0.00389039 3.78263e-18)
(0.000105547 -8.89046e-05 1.11157e-19)
(0.00147382 0.00100685 -5.48834e-19)
(-0.0219633 0.0232309 -1.64158e-18)
(0.000149494 0.000146654 -1.56132e-18)
(0.00023018 7.12582e-05 -6.18866e-20)
(-0.00460576 -0.0131697 -8.83549e-19)
(0.000199994 0.000159631 -7.14225e-19)
(-0.00389755 0.0184566 1.71732e-18)
(0.02819 0.0885041 7.87836e-19)
(-0.0207251 0.0134836 -8.17404e-20)
(-0.00542742 -0.00596502 4.79847e-19)
(-0.00123488 -0.00878423 -7.52819e-18)
(0.000136441 2.69294e-06 -5.21028e-19)
(0.108424 0.0297863 1.77664e-19)
(0.00476837 0.0108113 -2.83251e-19)
(-0.0909665 -0.185457 2.06197e-18)
(0.000453796 -0.000360233 1.02542e-19)
(6.67323e-05 -1.39119e-06 -3.19792e-19)
(-0.0114801 -0.0165933 -3.95952e-18)
(0.00160419 0.000255948 1.00847e-18)
(0.0110544 -0.17851 6.9015e-19)
(-0.00682094 -0.018854 5.62053e-18)
(-0.0621562 -0.256041 3.91526e-18)
(-0.0781371 -0.286147 -3.71462e-19)
(0.00011575 -0.000108723 -7.88843e-19)
(-0.00668397 -0.0181694 5.51479e-18)
(0.00011219 -0.000403464 -3.00401e-20)
(0.000177376 1.92092e-05 1.6719e-19)
(-6.68961e-05 -1.10931e-06 1.9714e-19)
(0.000172959 1.588e-05 -1.03178e-18)
(-3.85525e-05 -0.0010501 1.65717e-20)
(0.00905281 -0.00196007 3.79704e-19)
(-0.0153715 0.00922245 4.31937e-18)
(-5.26341e-05 6.25928e-06 7.30885e-20)
(0.0127265 0.135115 4.65424e-18)
(-0.0370788 -0.0681663 -7.33228e-18)
(0.0193073 0.138513 3.43796e-18)
(0.000181287 4.36762e-05 -3.21766e-19)
(-7.7983e-05 -2.43e-05 -1.26925e-19)
(-4.53318e-05 3.00264e-06 -1.04026e-19)
(-0.0108698 0.0502247 -5.68103e-18)
(-0.170301 0.23152 9.5306e-18)
(-0.00106244 0.00173374 4.34566e-18)
(0.00159394 0.00103499 -2.03887e-19)
(0.000172713 -0.000463165 2.10982e-20)
(3.20089e-05 -9.89011e-06 -9.19116e-19)
(0.000123569 -6.2086e-06 2.27543e-19)
(0.000160461 4.18111e-05 7.98051e-19)
(-0.0168781 -0.0200502 -6.10059e-19)
(0.0932884 0.181579 -3.37203e-18)
(0.000194301 0.000159339 2.11297e-18)
(-5.22456e-05 -1.41808e-05 -3.4425e-20)
(8.6476e-05 0.000214864 -7.31156e-19)
(0.000164256 3.02471e-05 -4.58623e-19)
(0.143996 -0.00268236 -2.94717e-18)
(0.0483449 -0.0758559 -3.03539e-17)
(-0.00203818 -0.00706571 4.6286e-19)
(-0.0859305 -0.0784049 3.8558e-18)
(-0.0204253 0.219899 -1.07993e-17)
(0.000230749 6.79745e-05 -2.11531e-20)
(-0.0118408 -0.00624413 -2.16572e-19)
(0.159317 -0.0359932 -5.26924e-18)
(0.000995901 0.00311532 -7.44662e-19)
(0.193492 -0.0685442 -2.32664e-19)
(0.000250707 0.000145844 -8.58229e-19)
(0.0059107 0.000883946 -1.57273e-18)
(-0.00115913 0.00186305 -5.7007e-18)
(0.00659919 -0.00102583 -1.38526e-18)
(0.0330922 -0.118987 -4.40006e-18)
(0.000142876 0.000126572 -8.19941e-19)
(0.0149925 0.0440001 7.0473e-18)
(-4.26176e-05 1.86262e-06 4.2007e-20)
(3.28938e-05 0.00204062 -4.43787e-18)
(-0.00907947 -0.0124589 3.93409e-18)
(0.000182143 5.0225e-05 -6.83893e-19)
(0.00120627 -0.000398337 -1.17345e-18)
(0.0320341 -0.0303588 -3.04994e-19)
(0.000137292 -5.22514e-05 -1.66039e-18)
(0.00129321 -0.000623971 3.8097e-19)
(-0.00458683 0.288465 -7.00192e-18)
(0.0766679 0.250946 -6.47698e-19)
(-0.00612655 0.00680334 5.71334e-19)
(-0.0545442 0.0532335 -8.37414e-19)
(-0.0461537 -0.00421801 3.05833e-19)
(-6.26653e-05 -9.18025e-05 -6.57806e-20)
(0.000182949 3.74528e-05 2.7811e-19)
(0.0917645 -0.0390045 2.14611e-17)
(0.000712597 -0.0117443 2.64112e-18)
(0.00701548 0.0318518 1.74866e-20)
(-0.00450707 -0.0200622 -9.16799e-18)
(8.90549e-05 -0.000101803 -5.87092e-19)
(6.89897e-05 9.17312e-06 -6.87388e-19)
(-6.61649e-05 1.86754e-05 -3.23975e-19)
(-0.000697332 0.311383 3.56508e-18)
(0.00194096 -0.0261451 -4.29828e-18)
(-0.00160222 0.00104313 -6.63754e-19)
(3.28079e-05 7.61506e-05 7.86801e-19)
(0.0350849 0.00924887 -9.63786e-20)
(0.000907628 0.000505291 -8.44897e-19)
(-4.62473e-05 3.12857e-06 -5.38788e-19)
(-0.14215 -0.163799 -1.57616e-17)
(0.0629939 -0.121604 -1.72725e-19)
(0.0159196 -0.0393748 -7.07414e-18)
(-7.06398e-05 5.87936e-05 -1.06219e-19)
(0.000186503 0.000144282 1.17712e-19)
(0.0040624 -0.00585801 4.66967e-18)
(0.00733174 -0.0218597 -4.65256e-17)
(0.00294697 -0.0096901 -1.67811e-18)
(-0.000606003 0.00101616 7.8773e-20)
(-0.000516278 -0.0245255 4.54582e-18)
(0.000157916 0.000153218 8.83729e-19)
(0.0367933 0.0350107 8.09225e-20)
(0.0501352 0.0416101 4.40628e-19)
(0.0318589 0.00660998 1.86324e-18)
(0.000202148 -0.000803518 -8.08235e-19)
(-0.0844667 -0.254329 -3.44202e-19)
(0.00729121 0.000629456 1.09021e-18)
(0.00172453 0.00193652 -6.27298e-19)
(0.0113047 -0.0202466 -5.37332e-18)
(6.75466e-05 -1.6018e-06 8.5217e-19)
(0.000124218 -2.3176e-06 4.1052e-19)
(0.000366095 0.000629592 1.16139e-19)
(0.00013962 -2.11366e-05 3.61564e-19)
(-0.136302 -0.191179 -1.77413e-17)
(0.00388181 -0.0034573 -3.85652e-19)
(-0.0170195 0.00170603 -9.42606e-19)
(-0.00936787 0.00765841 2.17372e-18)
(0.0243695 0.00438654 -4.31336e-19)
(0.000137449 2.24041e-05 -1.92144e-19)
(-0.0344582 0.315845 3.6259e-18)
(0.000144522 -1.16997e-05 3.41027e-19)
(0.00731552 -0.000865208 -1.22867e-18)
(-6.73418e-05 -1.75402e-06 -2.63759e-19)
(0.000232695 4.43002e-05 5.61675e-20)
(0.000187956 -1.71351e-05 -4.9788e-19)
(0.00454633 -0.0282959 2.13422e-18)
(0.000169446 1.54356e-05 1.09702e-19)
(-7.52547e-05 2.27118e-05 -7.3488e-22)
(-0.0807893 -0.0428552 9.21003e-20)
(0.000127173 0.00015633 -1.4987e-19)
(0.00193985 -0.00833304 1.4888e-18)
(-4.65683e-05 1.74255e-06 2.37841e-20)
(-0.0013065 7.55608e-05 1.39485e-18)
(-0.0031326 0.000313439 3.52861e-18)
(0.154358 -0.0190189 9.18606e-19)
(0.0333256 -0.115259 2.57e-19)
(0.000132086 2.70809e-06 -3.64788e-19)
(-0.0471462 0.190391 1.79274e-19)
(-0.0929249 -0.062205 -3.7153e-18)
(0.000254727 0.000241593 1.95538e-19)
(0.00783077 -0.0277283 3.39753e-18)
(7.24856e-05 0.0020079 6.65273e-18)
(0.000137506 -4.56545e-05 -9.32722e-20)
(0.015413 0.00440174 1.60909e-19)
(-0.123682 -0.11567 -4.29665e-18)
(-0.00738654 0.15664 5.8573e-19)
(-0.000693313 -0.00110378 -3.17244e-20)
(0.000125414 -8.49373e-06 -8.03582e-20)
(-5.44849e-05 -2.29521e-05 8.8974e-21)
(-0.0367263 -0.0555911 -3.87154e-18)
(0.0398811 0.00551364 4.35888e-18)
(-0.0474983 -0.00450787 4.42441e-18)
(-0.00246486 0.00128069 -8.55526e-19)
(0.0162133 0.00065886 3.94119e-19)
(0.000105307 1.05913e-05 2.54205e-19)
(-0.00114109 0.000444747 -8.85533e-19)
(0.00168695 -0.00179717 8.7285e-18)
(-0.006275 -0.216132 -5.35275e-19)
(-0.00210692 0.0231997 3.00639e-18)