/*--------------------------------*- C++ -*----------------------------------*\
| =========                 |                                                 |
| \\      /  F ield         | OpenFOAM: The Open Source CFD Toolbox           |
|  \\    /   O peration     | Version:  v2012                                 |
|   \\  /    A nd           | Website:  www.openfoam.com                      |
|    \\/     M anipulation  |                                                 |
\*---------------------------------------------------------------------------*/
FoamFile
{
    version     2.0;
    format      ascii;
    class       volScalarField;
    location    "350";
    object      nut;
}
// * * * * * * * * * * * * * * * * * * * * * * * * * * * * * * * * * * * * * //

dimensions      [0 2 -1 0 0 0 0];


internalField   nonuniform List<scalar> 
13851
(
0.000800445
0.00159492
0.00169683
0.00408065
0.00672177
0.0012661
0.00277383
0.00675918
0.0140874
0.00667521
0.000380242
0.00672326
0.00297337
0.00541593
0.00117211
0.00145538
0.00229242
0.00403172
0.000682403
0.00090225
0.00102104
0.000766418
0.00144975
0.00672545
0.00286692
0.00187609
0.000198334
0.00330167
0.0136237
0.0067427
0.00977268
0.00322422
0.000949936
0.0153787
0.000506298
0.013551
0.00672578
0.00204898
0.0141562
0.00288062
0.0153695
0.0138088
0.000194481
0.000177759
0.014007
0.00564733
0.00674664
0.00137134
0.00140218
0.00282853
0.00318671
0.00283528
0.00145796
0.00194773
0.00497206
0.00271033
0.000816219
0.0155711
0.000223053
0.00477534
0.00672326
0.00037675
0.00672469
0.00134874
5.26866e-05
4.38816e-05
0.00285577
7.72962e-05
0.00283376
0.00628056
0.0094883
0.000945215
0.00366837
0.00348663
0.00174061
0.00106285
0.00370153
0.00673751
0.00213775
0.00673094
0.00247815
0.000493129
0.000502924
0.00598671
0.00518933
0.00990654
0.000807035
0.00307314
0.00627753
0.00971048
0.00200134
0.00285601
0.000302879
0.0091865
0.0140135
6.9963e-05
0.00608365
0.00142524
0.00344368
0.000208019
0.00135214
0.000158939
0.000136803
0.00320091
0.00613742
0.000731183
0.00533653
0.00993733
0.00291568
0.00429254
0.000462861
0.00586946
0.000485303
0.000505722
0.000944764
0.00204631
0.00672902
0.00674958
0.00344384
0.00670008
0.000105504
0.00584084
0.002379
0.0122863
0.000560173
5.0137e-05
0.00557685
0.000303888
0.0154533
0.00100487
0.000767358
0.000783458
0.000864859
0.0154162
0.000431546
0.0139193
8.85686e-05
0.00975807
0.000211894
0.00117902
0.000432548
0.00146747
0.00605413
5.89218e-05
0.00419988
0.00124507
0.00673645
0.00925963
0.0117671
0.000291616
0.00127862
0.000457852
0.000507715
0.000630136
0.00192589
0.00415511
0.00672312
0.0138912
0.00118803
0.0025446
0.00672498
0.0136142
0.000830603
0.00125491
0.00570375
0.0145533
0.0146201
0.0046142
0.000494231
0.0100654
0.00672341
0.00672709
0.000697488
0.00672228
0.0144597
0.000288457
0.00108884
0.00672827
0.00180207
0.00119681
0.000699725
9.60008e-05
0.000534239
0.00115899
0.000210513
0.0120723
0.000947993
0.000331202
0.00233324
0.00674593
0.00186882
0.00124549
0.00334704
0.00118536
0.00113353
0.00144169
0.000836427
0.0035938
0.00285505
8.8856e-05
0.000431376
0.0148969
0.0155632
0.00134198
5.94755e-05
0.0143083
0.00092083
0.00147104
0.0142716
0.00118496
0.00146248
0.00321806
0.000455917
0.00672518
0.000551495
0.000959531
0.00297613
0.000971092
0.00307082
3.30473e-05
0.00672728
0.000848068
0.0041566
0.0142009
0.000367167
0.00142816
0.00672571
6.66394e-05
0.00672529
0.000498007
0.00433348
0.00036542
0.00122765
0.00672401
0.0154027
0.00674416
0.000986077
0.015459
0.00020404
0.00672522
0.000250835
0.00556748
0.0138684
0.00147303
0.00103102
5.00647e-05
0.00101132
0.00174142
8.4073e-05
0.000462093
0.00361624
0.000629523
0.00673538
0.00139603
0.00141356
0.0134199
0.00528364
0.00674433
5.14809e-05
0.00646423
0.000999471
0.000731719
0.00148687
0.000882348
0.00054488
0.00450795
0.000146892
0.00125502
0.00196978
0.00672441
0.00317265
0.000364577
0.014912
0.00179423
0.0010522
0.00535638
0.000641905
0.00065911
0.000925614
0.000904539
0.0149401
0.00321663
0.00125114
0.00138492
0.00220394
0.00566865
0.00672298
0.000841267
0.000377219
0.00674829
0.00672512
0.00672575
0.00672137
0.00115212
0.00672296
0.0143486
0.00104586
0.00397526
0.0134238
0.0114566
0.00239881
0.000839221
0.00314256
0.00131483
0.00213895
0.00100939
0.00500385
0.0101344
0.000761569
0.00672101
0.010568
0.00672338
0.000655749
0.00476548
0.00162193
0.00254303
0.00106318
0.000328809
0.0109246
0.000448591
0.000135232
0.0144872
0.0139564
0.00278704
0.00265621
0.0045594
0.000362544
2.72894e-05
2.82469e-05
0.000759049
0.000738452
0.000384063
0.00363529
0.000115631
0.00672074
0.00673342
0.000813345
0.010369
2.79993e-05
0.00567614
0.0138473
0.00036547
0.000742858
0.002558
0.00348111
0.000734845
0.00143595
0.00103423
0.00132018
0.0132724
0.00214822
0.000603471
0.00134151
0.000978997
0.00034972
0.00612587
0.00355718
0.000281368
0.000211429
0.000672013
0.000351155
0.0133034
0.00101674
0.0152813
0.000916607
0.00676292
0.00210663
0.000901586
0.00489194
0.000848406
0.00200075
0.000324628
0.00159321
0.000297176
0.00470119
0.00217361
0.000156653
0.000445728
0.00106351
0.00561098
0.000973716
0.0156327
0.0014137
0.0019902
0.000652835
0.000241413
0.00388485
0.00136277
0.000346133
0.00176904
0.00525384
0.0010355
0.011759
0.00373756
0.00117658
0.00211618
0.00145366
0.000215209
0.00159925
0.0088366
0.00101207
0.00172141
7.71616e-05
0.00060111
0.00081019
0.00375975
0.00356062
0.000284345
0.00457299
0.00034238
0.000858701
0.00185582
0.00563919
0.000227722
0.011879
0.00215871
0.00132066
0.000590618
0.000510006
0.00206747
0.00674375
0.0026088
0.000324427
0.00129829
0.000406475
0.00404004
0.00406775
0.00672257
0.00351143
0.000418693
0.00610868
0.00167231
0.00117031
0.00672668
0.011181
0.000673205
0.000968147
0.00197296
0.00202775
0.00241229
0.00105578
0.00365841
0.00245143
0.00846912
0.011753
0.000786588
0.00109061
0.00672451
0.00672282
0.00139418
0.000680171
0.00181666
0.00471404
0.00200985
0.000109657
0.00210164
0.0093882
0.00672309
0.00189669
0.0139962
0.000266965
0.00673076
0.00672363
0.0019102
0.00343133
0.00026064
0.0105478
0.00110803
1.48947e-05
0.00146954
0.00672415
0.0152022
0.000378244
0.000227907
0.00341463
0.0134448
0.000242039
0.000242175
0.00296068
0.00074815
0.000299407
0.00154346
0.0147528
0.000383899
0.00124711
0.000884048
0.000458069
0.00456128
0.013444
0.00181355
0.00090302
0.000933457
0.00106662
0.000251713
0.000692874
0.00672155
0.0020639
0.015005
0.00741496
0.00123201
0.00908801
0.00702101
0.000623541
0.000413795
0.00672465
0.000320867
0.00673194
0.00606106
0.000335909
0.0148323
0.00178328
0.00143628
0.000138818
0.000703567
0.00603031
0.0083406
0.00674318
0.0155283
0.000271261
0.00673205
0.00228776
0.00035643
0.00220432
0.00674695
0.00493097
0.000927335
0.00678893
0.0126875
0.000696749
0.000810151
0.00100906
0.00882256
0.00478102
0.0067954
0.000682098
0.00279868
0.00524766
0.00713301
0.0156189
0.000833715
0.0017706
0.00649569
0.00159018
0.0155574
0.0140763
0.00613447
0.00392768
0.00544745
0.0025407
0.000822612
0.00233624
0.00674458
0.000995405
0.0129313
0.000287559
0.012574
0.0018465
0.00644069
0.0143962
0.00672439
0.000351151
0.00183607
0.0017065
0.00104563
0.0130658
0.00470425
0.00133422
0.00240817
0.00267691
0.000579107
0.0138482
0.00764384
0.00262822
0.00476297
0.000135309
0.0127937
0.00103389
0.0014996
0.000558834
0.00218387
0.00141088
0.00422202
0.0087309
9.56741e-05
0.0154318
0.000885791
0.0134376
0.00216924
0.000122716
0.00142814
0.0067238
0.00059256
0.0106491
0.000490856
0.0011433
0.00322995
1.43497e-05
0.000223168
0.0030163
0.00401183
0.00672297
0.000475648
0.000660999
0.00672305
0.0145059
0.00672288
0.00106561
0.000864601
0.00184222
0.00311871
0.00528046
0.000329454
0.00373619
0.000781634
0.0136259
0.000783014
0.00672745
0.00677901
0.000694899
0.00204117
0.000512652
0.0017377
0.000250268
0.000158138
0.00672429
0.00368318
0.0067255
0.00203644
0.00320626
0.0141295
0.000364931
0.00239144
0.000130036
0.00018397
0.0131183
0.00533794
0.00899675
0.000380578
0.0009945
0.00163719
0.00032839
0.00676694
0.0004654
0.00380141
0.0134384
0.0036983
0.00256429
7.35121e-05
0.0104396
0.00672569
0.00672553
0.00170012
0.0025125
0.00706192
0.00202824
0.000613264
0.00214211
0.00494413
9.2327e-05
0.000596501
0.000237261
0.00673739
0.00114715
0.000164108
0.00177775
0.00134982
0.00119344
0.000230286
0.00046842
0.00133555
0.000953288
0.000970719
0.000113842
9.99965e-05
0.000686715
0.0107477
0.00392874
0.00145251
0.00894258
0.000290743
0.00774208
0.000833337
0.00437861
0.00134243
0.000601134
0.000771452
0.0067301
0.00672891
0.00192618
0.00372923
0.00189409
0.0151378
0.00672784
0.00794632
7.67821e-05
0.00279604
0.000447537
0.00111275
0.00177629
0.00397931
0.00023308
0.000311833
0.000322847
0.00221955
0.00031236
0.00188482
0.000902748
0.000843139
0.000475071
0.00414697
0.00672536
0.000932719
0.0052849
0.0139204
0.00672108
0.000310476
0.0148951
0.000407815
0.0143172
0.00429892
0.00086542
0.000230686
0.000382878
0.00672379
0.00332603
0.0067354
0.00609904
0.00672236
0.000592693
0.000475318
0.000148094
0.00235331
0.00123318
0.0140422
0.00672632
0.00477729
0.000517527
0.00672603
0.00672373
0.0144355
0.0012252
0.00670671
0.0102583
0.00107106
0.000819591
0.0067872
0.0154984
0.000857506
0.00181461
0.000136145
0.00672382
0.00143399
0.00530293
0.00162007
0.00422761
0.000855685
0.000837651
0.000344522
0.0136051
0.000334623
0.00058471
0.0136595
0.00673381
0.0136383
0.00672402
0.002316
0.00187815
0.00113046
0.000990786
0.000335435
0.000795973
0.00672468
0.00672631
0.000598991
0.00214888
0.00672489
0.00198439
0.000273733
0.00672125
0.000169508
0.000167086
0.005669
0.000351527
0.008545
0.000204891
0.00672369
0.000284856
0.00672799
0.00132889
0.00940907
0.0132497
0.0101879
0.0135029
0.00244982
0.00267122
0.00013249
0.00127583
0.00579938
0.00117055
0.000883615
0.00617181
0.00186063
0.00115207
0.00443305
0.00674324
0.000378525
0.000781809
0.00194423
0.00672527
0.000947453
0.000416238
0.0152994
0.00196232
0.00672328
0.00297303
0.00145585
0.00097023
0.00672565
0.0149837
0.00675488
0.00399617
0.00672592
0.000205811
0.00107005
0.000115741
0.000875997
0.00370329
0.00159394
0.00672115
0.000220461
0.00141788
0.00760644
0.00254222
0.00745199
0.0152075
0.000861958
0.00672056
0.00266704
0.00943494
0.00122058
0.00142072
0.0034859
0.00303974
0.00416276
0.00071879
0.00672429
0.00672111
0.0060677
0.00109185
0.00672364
0.00182575
0.0153912
7.7127e-05
0.0123125
0.00674217
0.0100694
0.00672485
0.00672111
0.00207696
0.00672566
0.0067252
0.0115589
0.0104466
0.00306502
0.00672283
0.00080137
0.0059034
0.00351003
0.000292274
0.00696022
0.0145405
0.00184286
0.00131274
0.0067239
0.00105844
8.96238e-05
0.0054751
0.00672424
0.000268355
0.00402559
0.000903506
0.000509965
0.00109045
0.00672451
0.000733761
0.00124004
0.00273599
0.00115353
0.00176115
0.0007578
0.0067249
0.00358802
0.00360825
0.00669275
0.00112675
0.00676264
0.000948771
4.95632e-05
0.00246332
0.000793216
0.000823522
0.00672107
0.013911
0.00132703
0.00672051
0.00278575
0.00148526
0.0146955
0.000592821
0.00673212
0.000712587
0.00522971
0.00143075
0.000480318
0.00101212
0.00109187
0.0155604
0.00672311
0.000869255
0.000634353
0.000821087
3.01942e-05
0.00152066
0.000503889
0.00176163
0.0156862
0.00390012
0.00613416
0.00106922
0.00956359
0.00277362
0.00385804
0.00113399
0.00371597
0.00224509
0.00672568
0.00195463
0.00672389
0.0150385
0.000556057
0.000425951
0.00042792
0.000958806
0.00674012
0.0023781
0.000814019
0.00240262
0.000741317
0.0136945
0.000238814
0.00116401
0.000324943
0.0111361
0.00135637
0.0110005
0.00673193
0.000413869
0.00134053
0.00391536
0.000347448
0.00672433
0.00673167
0.000132363
0.00352024
0.0002792
0.00204801
0.000498775
0.00089708
0.000838689
0.00062624
0.00351129
0.0139269
0.00077214
0.006725
0.000724957
0.0015121
0.0114346
0.00112314
0.000143682
0.00185683
0.00154123
0.000249104
0.00293561
0.0135829
0.00174199
0.007595
0.000575979
0.00672798
0.00634441
0.000735979
0.00396664
0.00337001
0.000320086
0.00672453
0.000891384
0.000279842
0.00531107
0.0123859
0.00326831
0.000966461
0.00181666
0.0134199
0.000688968
0.0067225
0.00385981
0.000603114
0.00585995
0.00649913
0.00175254
0.00190472
0.0146824
0.00858432
0.00157001
0.0146779
0.00150489
0.00496286
6.56505e-05
0.00672812
0.000311677
0.005712
0.00672133
0.00107519
0.00216566
0.0150476
0.00404264
0.000977887
0.00443515
0.00937476
0.000380934
0.00362751
0.00231247
0.00043757
0.00600291
0.00678311
0.000498786
0.00243414
0.000605915
0.00674491
0.000484731
0.000908849
0.000735653
0.000449083
0.00679102
0.00674299
0.00253236
0.00109919
0.00200135
0.0155685
0.00121427
0.00672344
0.00554646
0.00646572
0.000947385
0.00101803
0.0133106
0.0144629
0.000343094
0.00672424
0.000248308
0.00346359
0.00529767
0.00747555
0.000319583
0.00510776
0.0138592
0.00851985
0.00161756
0.00124638
0.0117702
0.00114476
0.000312008
0.000114396
0.000184424
0.00208829
5.92687e-05
0.00467709
0.00936496
0.00203215
0.00673191
0.00086648
0.00026877
0.000407161
0.00112472
0.00672287
0.00165963
0.00101011
0.00192661
3.56091e-05
0.00672392
0.0101136
0.00421062
0.00435884
0.00131001
0.00188751
0.00672375
0.0131967
0.000789595
0.0142192
0.0100644
0.00672416
0.000990474
0.000894444
0.00196547
0.000861137
0.00117737
0.00672535
0.00130509
0.000556942
0.00920487
0.00107602
0.00344483
0.0010738
0.00138092
0.000120794
0.000759456
0.000663426
0.00557956
0.000558143
0.0106913
0.000996823
0.00851634
0.0104806
0.0146016
0.00877997
0.00556528
0.0067332
0.00402181
0.00103154
0.00169912
0.000691293
0.00195158
0.00393181
0.00672496
0.0062888
0.00103055
0.00673685
0.0015736
0.00106579
0.00856871
0.00123366
0.0067272
0.0067243
0.00404902
0.00672306
0.000266295
0.000967444
0.000331274
0.0100747
0.00672943
0.00550921
0.0154499
0.0152702
0.00315169
0.00626684
0.000138646
0.00746599
0.00672731
0.000192795
0.00141533
0.00672535
0.00252342
0.00525678
0.00231234
0.000754719
0.000325649
0.00342251
0.00420966
0.000524163
0.000823052
0.00672586
0.00830606
0.0041146
0.00099608
0.00672378
0.00315329
0.00123481
7.84496e-05
0.00242865
8.85858e-05
0.00962069
0.00107539
0.0152618
0.00426064
0.0038784
0.000211741
0.00672633
0.00191012
0.00202798
0.000156288
0.00219099
0.00464143
0.00672214
0.00546888
0.00211835
0.000420293
0.000976625
0.00281458
0.00672472
9.02114e-05
0.00676882
0.00826864
0.00672377
0.000949895
0.00168435
0.00664641
0.000884138
0.00672391
0.000858269
0.00672499
0.00206508
0.000229776
0.00542111
0.00126099
0.00672586
0.00139745
8.32034e-05
0.00108982
0.000230167
0.000279646
0.000485713
0.00138722
0.00103436
0.00114551
0.00559803
0.0055526
0.00210853
0.0011268
0.00672261
0.000541494
0.00672921
0.000952462
0.0067273
0.000227724
0.00154981
0.00674205
0.00256124
0.00124535
0.00672359
0.00120676
0.00672043
0.000165276
0.0108116
0.000866257
0.00607193
0.00672229
0.00672572
0.000147024
0.00672494
0.00672499
0.00188103
0.00110274
0.000952847
0.000234787
0.00277143
0.000479082
0.00594981
0.00672399
0.00672477
0.00672619
0.000281817
0.00592845
0.00100906
0.000777392
0.00672873
0.00672251
0.0137809
0.00672508
0.000635172
0.00230021
0.0144944
0.00086672
0.000128263
0.000327977
0.000413356
4.97498e-05
0.00273155
0.000431621
0.000850564
0.00599428
0.00576922
0.00100401
0.00115721
0.00425014
0.000345516
0.00672497
0.0015314
0.00040936
0.0031895
0.00014253
0.0025205
0.000132774
0.00708752
0.00509337
0.0067242
0.00171363
6.06167e-05
0.00327003
0.000591196
6.43039e-05
0.0144129
0.00174354
0.00131797
0.00154876
0.000307174
0.00672609
0.00028104
0.0038217
0.00236383
0.0067635
0.00823322
0.000583945
0.000865788
0.014664
0.0017743
0.00167904
0.00672477
0.00276761
0.00679527
0.00148871
0.00926454
0.000433618
0.00429555
0.00906184
0.00672405
0.000403033
0.00047281
0.00275424
0.000964251
0.00672453
0.0126915
0.00947328
0.00679516
0.000866043
0.00156173
0.000407596
0.000634017
0.00161289
0.000868891
0.00166701
0.000281662
0.00144208
0.00672394
0.00150775
8.05193e-05
0.00867043
0.00672433
0.0014244
0.000622247
0.00175733
0.00672588
0.00935533
0.00160189
0.000956321
0.00595017
0.000465052
0.000541045
0.000137739
0.00672417
0.00160313
0.000318348
0.00024139
0.000400344
0.00672379
0.00138075
0.00159617
0.00054696
0.00672423
0.000272537
0.00169221
0.00030528
0.01421
0.00193787
0.00317529
0.000526446
0.00516794
0.000346081
0.00672485
0.000912375
0.00155283
0.00102528
0.000521713
0.00150382
0.00031478
0.000342611
0.000874461
0.000979599
0.00673586
8.65866e-05
0.00172344
0.000421815
0.000794414
0.000852742
0.000479315
0.00673008
0.00530489
0.000274937
0.00290809
0.00168232
0.000986348
0.00485215
0.000350042
0.00167319
0.0138978
7.51602e-05
0.000316028
0.00063551
0.000854362
0.00673031
3.51154e-05
0.00678447
0.000473216
0.00171692
0.0131976
0.000628219
0.000253893
0.00672376
0.00348853
0.00673015
0.00130947
0.000700328
0.0069025
0.0130197
0.00268235
0.00672063
0.000665416
0.000148612
0.00672698
0.00890719
0.00672753
0.00101426
0.00171593
0.00213925
0.000787322
0.000969366
0.0043047
0.000489492
0.00048352
0.0010723
0.000419047
0.00672758
0.00448702
0.0131522
0.00672093
0.000662655
0.000754269
0.000375317
0.00963985
0.00672105
0.00141152
0.000464641
0.0106172
0.00672555
0.00672381
0.000754249
0.00735129
0.00672067
0.000388156
0.000408177
0.00063364
0.000588303
0.000759806
0.000938215
0.00672671
5.16938e-05
0.00672787
0.00408217
0.000757544
0.00673121
0.00206016
0.000419968
0.00672317
0.00337917
0.000746804
0.0125742
0.00341856
0.00475988
0.00672429
0.00672958
0.000698427
0.00672405
0.00566281
0.0102281
0.00672592
0.000982841
0.00125079
0.0117589
0.000704323
0.00635281
0.000776433
0.000426586
0.00672258
0.00376229
0.00672412
0.00408041
0.00672465
0.000355063
0.000991524
0.0067652
0.00677155
0.000895091
0.000884732
0.000731351
0.000156947
0.000427474
0.00114802
0.0143371
0.000243483
0.00207369
0.00133031
0.000224118
0.000507416
0.00105682
0.00188182
0.00828608
0.00715895
0.00431963
0.00175015
0.00388168
0.000628716
0.000234396
0.00676532
0.00359216
9.65697e-05
0.00672526
0.00227765
0.0067242
0.00673922
0.00247129
0.0037145
0.00339734
0.00672058
0.00396196
0.00672273
0.000152941
0.00208056
0.00097441
0.000177305
0.00345263
0.0119485
0.000767317
0.00672504
0.00119104
0.00632443
0.00038433
0.00408656
0.0130656
0.00103521
0.00080581
5.74063e-05
0.00997399
0.000552044
0.000285008
0.00107698
0.00031778
0.00361167
0.00219476
0.000111406
0.000628476
0.00342948
0.00675127
0.0065865
0.00271456
7.28112e-05
0.00710744
0.000551256
0.00596946
0.000847908
0.00101756
0.00081984
0.0105104
0.000725148
0.00672262
0.000315217
0.000554089
0.00141488
0.00672914
0.00672296
0.0141857
0.00672556
0.000594325
0.0152923
0.00064359
0.0046108
0.000318666
0.000926006
0.00900084
0.00672581
0.00496464
0.00672595
0.000539631
0.00241542
0.00341759
0.00111703
0.0152183
0.00535955
0.00672448
0.00915458
0.00414043
0.00280929
0.00313854
0.010721
0.00597438
0.000847081
0.00672539
0.00821239
0.0151139
0.000442058
0.000113778
0.000453226
0.00440279
0.00672398
0.0129755
0.00672247
0.001341
0.00676918
0.00193239
0.00672438
0.00995329
0.00672694
0.00143775
0.00675553
0.000174665
0.00028194
0.00676125
0.00028657
0.0101067
0.00105661
0.00692444
0.00575412
0.00022392
0.000952614
0.000961338
0.000614842
0.00259944
0.00458003
0.00187997
0.000415306
0.00365418
0.00714194
0.00631551
0.000943956
0.00076844
0.000589445
0.000527365
0.0147012
0.00670583
0.00675856
0.000402571
0.00930387
0.000572624
0.000395588
0.00139667
0.00672802
0.00925859
0.0094675
0.00739981
0.0067242
0.00580867
0.00890431
0.000275296
7.73539e-05
0.0123393
0.00116092
0.000810864
0.000434113
0.000579909
0.00416222
0.000474778
0.000880988
0.00673534
0.00716067
0.0067245
0.000560656
0.00107265
0.000516634
0.000109094
0.000296439
0.00200346
0.0015788
0.000506456
0.0056321
0.0155288
0.000680177
0.00171787
0.000595239
0.000601345
0.000173752
0.00672459
0.000632689
0.000129074
0.000412732
0.00431257
0.000533479
0.000931377
0.000321869
0.0086636
0.000227478
0.0010588
0.000184092
0.00735932
0.00243408
0.00149829
0.00723703
0.000386328
0.00119516
0.00142716
0.00672373
0.000219128
0.00205712
0.0137319
0.000480393
0.00159136
0.00672456
8.56642e-05
0.000563282
6.26768e-05
0.00443594
0.00674699
0.0067254
0.000702178
0.0067244
0.00148286
0.00143341
0.00190817
0.00056583
0.00582962
0.000879098
0.00237693
0.00144527
0.00237048
0.00672567
0.0105284
0.00151081
0.00672877
3.80974e-05
0.000215825
0.000262055
0.00133052
0.000914069
0.00128842
8.1145e-05
0.00119898
0.00165804
0.00672425
0.00344563
0.00235804
0.0062191
0.00150296
0.00534042
0.00672466
0.000217755
0.00571654
0.000892722
0.00131578
0.000114851
0.00672932
0.00022443
0.00104931
0.0113973
0.0067277
0.00032949
2.64887e-05
0.00128406
0.000102776
0.00148573
0.00214191
0.000235368
0.00126122
0.00418565
0.00103434
0.00050206
0.00672464
0.00542886
0.000330282
0.00672463
0.00264193
0.000340614
0.00672576
6.88193e-05
0.00576023
0.015617
0.0100168
0.00905599
0.00968393
0.0102514
0.00263475
0.00672407
0.0107124
0.00675632
0.00649354
0.00673055
0.000192605
0.0152483
0.00396812
0.000469492
0.00430886
0.00142179
0.000327648
0.00550091
0.0067212
0.00605182
0.0156148
0.00672442
0.0067239
0.00890737
0.00133938
0.00287481
0.00672774
0.0102399
0.0101474
0.00400994
0.000960343
0.00672553
0.0121394
0.000131608
0.0032302
0.0037239
0.00244382
0.00937024
0.00635808
0.00436758
0.00672537
0.00672604
0.0152747
0.0053194
0.000154864
0.000651574
0.00262838
0.00195869
0.000384059
0.000173428
0.000646384
0.0100128
0.0120313
0.00672467
0.00165359
0.00150814
0.00150802
0.014003
0.0067359
0.00452586
0.000433069
0.00130144
0.00130317
0.00672077
0.000395287
0.000609382
0.00387237
0.0067246
0.00043523
0.00239462
0.000921996
0.00176554
0.0151055
0.00443115
0.00016292
0.00175135
0.00448354
0.000973176
0.000904986
5.25314e-05
0.0148148
0.010672
0.00672307
0.00676912
7.8719e-05
0.0147934
0.00238925
0.00059947
0.000730425
0.00318934
0.0100503
0.00672407
0.00105826
0.00912933
0.0157061
0.000297242
0.015664
0.000582047
0.000861297
0.0067634
0.0144005
0.000611654
0.00517165
0.00676452
0.0098372
0.00674219
0.00672582
0.00110335
0.000363753
0.00035477
0.00362908
0.0102452
0.00159558
0.00557049
0.000524668
0.00826039
0.000142991
0.00432369
0.0123986
0.00102693
0.00163932
0.00175873
0.00672424
0.000517207
0.00672649
0.00160135
0.000157636
0.00213052
0.00673169
0.000395767
0.000832285
0.00676516
0.009877
0.00155109
0.000789879
0.00679147
0.000440022
0.00672378
0.000249164
0.00167133
0.000169221
0.00174668
0.00952907
0.000221985
0.015621
0.000360015
0.00055528
0.00673704
0.0106333
0.000155549
0.000450938
0.00010491
0.00672506
0.00552727
0.000374096
0.000443684
0.000803808
0.0111029
0.0104368
0.000530905
0.00680818
0.000490079
0.000310326
0.00672411
0.0032612
0.00673658
0.000910802
0.000537866
0.000314275
0.0134801
0.00667171
0.00672378
0.00159288
0.000578053
0.00138123
0.00674669
0.0150095
0.00140386
0.0016139
0.00227321
0.00409465
0.000444732
0.0114582
0.000152624
0.000984753
0.000381677
0.00672428
0.0013393
0.000310168
0.000472445
0.00304044
0.00672023
0.00346847
0.0101133
0.0134233
0.00533767
0.000470555
0.000231511
0.00355093
0.00672263
0.00293304
0.0155605
6.80395e-05
0.000496481
0.00224348
0.00178643
0.00933481
0.00026681
0.000661398
0.00222849
0.000992053
0.00674062
0.000178135
0.000401544
0.00522888
0.0126521
0.0123773
0.0150767
0.0115171
0.00883162
0.00823198
0.0103972
0.00103425
0.00591465
0.00978627
0.00765765
0.00444137
0.0028698
0.000977663
0.00465903
0.00537977
0.00499514
0.0155782
0.000947664
0.00672596
0.000255311
0.000819339
0.000777716
0.00875567
0.000333631
0.000579576
0.00672022
0.0150766
0.00318978
0.00038013
0.00173958
0.000885389
0.00243583
0.00673084
0.000714246
0.000707905
0.00100412
0.00137885
0.0013493
0.000793018
0.00102391
0.00869761
0.000355502
0.00145725
0.0110649
0.00101422
0.00672414
2.75336e-05
6.17297e-05
0.00579046
0.000648571
0.00303393
0.00114143
0.000817439
0.00042732
0.00672501
0.000252232
0.00144017
0.00117505
0.000194826
0.00672476
0.00166249
0.010092
0.0134415
0.0153393
0.000200257
0.00138785
0.00673749
0.00552339
0.000988324
0.00675829
0.0109369
0.00587044
0.00672594
0.00673734
0.0127701
0.000931247
0.00171234
0.00110973
0.000721187
0.000309808
0.000928294
0.0002295
0.00108474
0.00063348
0.00445635
0.00142747
0.00856726
0.000573026
0.0151226
0.000866074
0.0067201
0.00673514
0.00078225
0.000700871
0.00672422
0.000272208
0.000895175
0.000475977
0.00849597
0.00365017
0.0087877
0.00672594
0.000235824
0.000463605
0.000523128
0.00673074
0.000434334
0.00105396
0.00811849
8.95542e-05
0.00044602
0.00672506
0.0132933
0.000423884
0.00821743
0.00723861
0.00102036
0.000940843
0.000551199
0.00905037
0.000180703
0.0134696
0.00053175
0.00379578
0.000549577
0.00529932
0.00770824
0.000784202
0.000717865
0.000213558
0.0146986
0.00429746
0.00431266
0.00987434
0.000611871
0.00890391
0.000250984
0.00672733
0.000684738
0.00101962
0.000162895
0.00584516
0.000525121
0.00064356
0.00114288
0.00672539
0.00450905
0.0003155
0.00139563
0.000163444
0.0042489
0.00333092
0.000276417
0.0019418
0.003117
0.00672397
0.000574733
0.000214477
0.00147438
0.000737903
0.000541615
0.000562469
0.00317507
0.000210881
0.000972769
0.000871347
8.37007e-05
0.00220689
0.000168285
0.000156736
0.00564535
0.00102013
0.00739157
0.0105966
0.003434
0.000211303
0.00813232
0.00471983
0.00132999
6.2714e-05
0.00939725
0.000456083
0.00828314
0.000625707
0.00448683
0.00120148
0.00673455
0.00136372
0.000618079
0.00254711
4.79367e-05
0.00111071
0.000253584
0.0120992
0.0134268
0.00279611
0.0121134
0.00656211
0.0033261
0.0123509
0.00672403
0.00672152
0.00984988
0.00274311
0.00672466
0.000342724
0.0140894
0.000619992
0.00181122
0.0107068
0.00672224
0.0130899
0.010135
0.00672395
0.000563448
0.00110904
0.00980167
0.0101572
0.0106553
0.00896916
0.00673121
0.00101498
0.000668753
0.000943748
0.00672516
0.00100214
0.00672947
0.0111793
0.000507343
0.000156506
0.00098091
0.0116274
0.000611402
0.000900209
8.83226e-05
0.00252183
0.00049064
0.00185319
0.0067331
0.00438367
0.000355467
0.00675312
0.0105355
0.00523964
0.00503579
0.00261799
0.0156848
0.00208945
0.00608145
0.000292723
0.000430862
0.000262543
0.00824877
0.00972023
0.000183218
0.00183501
0.00184513
0.00106774
0.00165533
0.000755652
0.0014479
0.00672448
6.44428e-05
0.000768987
0.000492832
0.00792761
0.000901121
0.000320178
0.000223173
0.000661545
0.00150661
0.00606835
0.000387067
0.00673663
0.000803776
0.00018334
0.00901478
0.00672542
0.000676026
0.0055403
0.00219311
0.000462657
0.00185419
0.000708005
0.0103361
0.000825105
0.000920728
0.00150761
0.00672428
0.0131335
0.0067237
0.00208927
0.000860168
0.0134979
0.000548278
3.16031e-05
0.000109602
0.0015568
0.00283528
5.89445e-05
0.00065849
0.0137357
0.000539461
0.000310818
0.000761372
0.001675
0.00102434
0.000176536
0.000596048
8.51264e-05
0.000873358
0.000319114
0.00126441
0.00435003
0.000282835
0.00400978
0.000929856
0.00673386
0.000985058
0.000971496
0.000934284
0.0107856
0.00110738
0.000604765
0.00672431
0.0024998
0.00672448
0.00672428
0.00213302
0.00672791
0.0011157
0.00318442
0.00102461
0.000954919
0.0020521
0.00317588
0.000311938
0.00342221
0.00853813
0.00901341
0.00594098
0.00123117
0.000543032
0.00184905
0.00672437
0.000393734
7.43989e-05
0.000531819
0.0113886
0.00109739
0.0118391
0.00137095
0.0067244
0.00672404
0.0103153
0.0046057
0.00126794
8.70249e-05
0.000646458
0.00246812
0.0152359
0.00672372
0.000892414
0.00445172
0.00143452
5.50453e-05
0.00118559
0.00251164
0.00170965
0.000226371
0.00097846
0.00125911
8.89238e-05
7.94593e-05
0.00028321
0.00155939
0.00232908
0.00162772
0.00137633
0.0133758
0.0102353
0.0137319
0.00156926
0.00476926
0.00140393
0.00222845
0.0067258
0.00169086
0.00672403
0.00184025
0.00411205
0.00612858
0.00620287
0.000477112
0.00525045
0.00153078
0.000279236
0.00278782
0.00491678
0.000556577
0.0152442
0.000330209
0.0031956
0.0132522
9.386e-05
0.00393827
0.000176556
0.00672545
0.000196658
0.000838893
0.000103392
0.0106003
0.000285332
0.0100099
0.00673252
0.0105977
0.00279651
0.00117215
0.00174202
0.000547567
0.00672305
0.000149693
0.0133607
9.68961e-05
0.000769024
0.000501197
8.36847e-05
0.00446208
0.00678621
0.00231269
0.00190659
0.00179025
0.015743
0.00749973
0.000230832
0.00672484
0.000265504
0.000268142
0.000582811
0.00262847
0.0079983
0.0044062
0.00673444
0.00500486
0.000959864
0.00325773
0.00402626
0.013584
0.00630061
0.000422937
7.89479e-05
0.00634658
0.0149651
0.00224995
0.015595
0.0039804
0.00122926
0.00169361
8.52737e-05
0.00230923
0.000848167
0.00668596
0.00208686
0.00895239
0.001877
0.000276629
0.00111516
0.000867002
0.000196437
0.00052004
0.00418662
0.000181952
0.000821502
0.00200465
0.00146691
0.00534736
0.00674881
0.00672381
0.00204745
0.00262676
0.000682282
0.00995412
0.000667059
6.39202e-05
0.00130649
0.0016907
0.00201244
0.0147294
0.0108891
0.00161761
0.00180523
0.00541967
0.0092492
0.00038023
0.00080685
0.00894097
0.0129236
0.00256285
0.000360147
0.0105944
0.000182773
9.02568e-05
0.000420834
0.00220136
0.00674923
0.000164987
0.00672615
0.0038366
7.38464e-05
9.46809e-05
0.00672446
0.00100723
0.000172128
0.000949342
0.00672631
0.00672195
7.00441e-05
0.00242439
0.00341795
0.00176505
0.0130164
0.00156425
0.000223485
0.00672516
5.7023e-05
8.12316e-05
0.00244083
0.000651514
0.00672716
0.0157264
0.0147638
0.000686104
0.000435244
0.000421654
0.000727995
0.00672383
0.00153708
0.00674108
0.00236073
0.00672506
0.0120113
0.00674498
0.00182988
0.000162578
0.000616532
0.0012763
0.00673239
0.0138566
0.000401384
0.00254763
0.0075466
0.000380226
0.000725612
0.00737941
0.000670553
9.70513e-05
0.00199587
6.65969e-05
0.000225802
0.000330871
0.0155352
0.00672845
0.00369081
0.000188374
0.0111887
0.00672454
0.00101417
0.0141762
0.00672591
0.00463149
0.000593894
0.00428958
0.00672204
0.00295769
0.00043781
5.48855e-05
0.00205964
0.000533867
0.00630913
0.00305945
0.00939567
0.0102762
0.00573102
0.00166076
0.0043328
0.00163
0.00672376
0.000344822
4.63611e-05
0.0146384
0.00622728
0.000187416
0.000717019
0.00672093
0.00672073
0.00478984
0.00240269
0.000415699
0.000505862
0.000907423
7.90956e-05
0.006008
0.00221448
0.00673904
0.00673337
0.00718779
0.00169045
9.0179e-05
0.000469634
0.00300565
0.00050203
0.000161606
0.00797699
0.00897487
0.00672408
0.0062496
0.00114267
0.000247915
0.0144406
0.00672571
0.000272154
0.0103968
0.00673672