/*--------------------------------*- C++ -*----------------------------------*\
| =========                 |                                                 |
| \\      /  F ield         | OpenFOAM: The Open Source CFD Toolbox           |
|  \\    /   O peration     | Version:  v2012                                 |
|   \\  /    A nd           | Website:  www.openfoam.com                      |
|    \\/     M anipulation  |                                                 |
\*---------------------------------------------------------------------------*/
FoamFile
{
    version     2.0;
    format      ascii;
    class       surfaceVectorField;
    location    "800";
    object      ddtCorrDdt0(Uf);
}
// * * * * * * * * * * * * * * * * * * * * * * * * * * * * * * * * * * * * * //

dimensions      [0 1 -2 0 0 0 0];


internalField   nonuniform List<vector> 
20537
(
(0.00311455 0.000997249 3.60657e-20)
(0.0032111 0.000821165 -2.47531e-20)
(0.00337797 0.001026 -7.89044e-20)
(0.015474 0.114416 3.85184e-19)
(0.00316178 0.0792994 -1.01458e-18)
(0.0498237 0.0882733 -6.90685e-19)
(-0.00686536 -0.0148361 -2.77012e-18)
(-0.0075409 -0.014611 -1.12426e-18)
(-0.00753035 -0.0153278 -4.49487e-18)
(0.00293963 0.000475673 3.85546e-20)
(0.00314312 0.00060865 1.73797e-19)
(0.00315285 0.000341855 7.52196e-20)
(-0.00096255 -0.0146873 3.8989e-19)
(-0.00125272 -0.0146362 -6.82244e-19)
(-0.00104332 -0.0144173 3.3808e-18)
(0.0146108 -0.0160767 1.28605e-18)
(0.0165382 -0.0126043 4.46026e-19)
(0.0136171 -0.0127731 -7.73094e-19)
(0.000182017 -7.66701e-05 -4.15055e-19)
(0.000189102 -9.30253e-05 7.50676e-19)
(0.000194785 -5.26098e-05 8.8539e-19)
(-0.00538301 -0.00986783 -1.55337e-18)
(-0.00496855 -0.00961109 5.05405e-18)
(-0.00498858 -0.0101985 9.2773e-19)
(0.000250356 0.00017778 5.72868e-21)
(0.000290035 0.00018807 6.04299e-21)
(0.00027025 0.000173675 2.89326e-21)
(-0.0153356 -0.00846375 3.66258e-19)
(-0.0143316 -0.00804021 1.55782e-19)
(-0.0142989 -0.00909807 -8.85147e-20)
(0.007896 0.00832526 1.46496e-19)
(0.00629285 0.00596245 4.60811e-20)
(0.00584244 0.0016897 3.40778e-19)
(0.0721322 0.0838228 -7.73037e-19)
(0.0623318 0.0763446 -4.13222e-19)
(0.0578395 0.0910356 -1.20633e-19)
(-0.00878464 -0.0102392 2.26599e-18)
(-0.00763237 -0.0113534 8.32323e-18)
(-0.00941898 -0.0114218 -1.08996e-18)
(-0.0191425 0.039504 -3.7719e-18)
(-0.0297824 0.0351559 -6.81648e-18)
(-0.0166028 0.0470541 -8.34587e-19)
(0.000183866 -3.90614e-06 -5.39396e-19)
(0.000193176 -1.40401e-06 3.6542e-19)
(0.00018073 -1.0324e-05 4.401e-19)
(-0.00758784 -0.00315894 2.71354e-19)
(-0.0073394 -0.00357239 2.09519e-19)
(-0.00786726 -0.00359454 8.01539e-19)
(-0.00217932 -0.00287674 -7.23892e-19)
(-0.00222186 -0.00267124 3.00649e-18)
(-0.00199262 -0.0027444 -1.17712e-18)
(0.00233831 0.00742915 -1.33641e-19)
(0.00160922 0.00725438 -6.86646e-20)
(0.00196422 0.00812247 2.59222e-20)
(-0.00291734 -0.0108173 5.1607e-18)
(-0.00183495 -0.0106378 1.79194e-18)
(-0.00265787 -0.0119145 2.51278e-18)
(0.000214525 0.000164173 1.67342e-20)
(0.00022791 0.000178978 1.91339e-20)
(0.00275619 0.000322866 -3.13988e-20)
(0.00273437 0.000571515 1.7e-19)
(-0.00612714 -0.0144796 -1.25501e-18)
(-0.0061016 -0.0151836 1.98698e-18)
(1.06115e-06 2.16437e-06 -3.09749e-20)
(6.06082e-06 4.30093e-06 -1.20791e-20)
(2.97542e-06 6.40985e-06 -9.78619e-20)
(2.45123e-05 3.53114e-06 1.04992e-19)
(2.09503e-05 3.34213e-06 3.57105e-20)
(2.62333e-05 5.35384e-06 9.45352e-20)
(-3.79403e-06 3.02313e-07 -7.29027e-20)
(-6.48122e-06 2.01158e-07 -7.62508e-20)
(-0.00583045 -0.00961441 -6.79956e-19)
(-0.00581267 -0.0102109 -1.51344e-18)
(0.000497791 -0.00244509 -2.48163e-18)
(0.000486672 -0.00229822 -3.99902e-18)
(0.000360083 -0.00240354 -2.90951e-18)
(0.00239201 0.0422483 -4.06543e-18)
(0.00746326 0.0454157 -8.90339e-19)
(0.00288868 0.000996335 7.53793e-20)
(0.00304047 0.00120269 5.0784e-20)
(-0.00175928 0.00273887 -3.64832e-19)
(-0.00206996 0.00259508 -1.28176e-18)
(-0.00189971 0.00302345 -1.70305e-18)
(0.0120692 -0.0187015 1.81339e-18)
(0.0158687 -0.0198983 3.07253e-18)
(-0.00241223 -0.00300889 -3.89585e-19)
(-0.00213578 -0.0031143 2.14432e-18)
(-0.00761966 -0.0139157 1.27079e-18)
(-0.00830079 -0.0143392 4.53051e-19)
(0.043203 0.0618115 -9.39304e-20)
(0.0328102 0.0857066 9.30495e-19)
(0.0396997 0.0836723 -4.45409e-19)
(1.96447e-05 2.47425e-06 3.39999e-20)
(9.31692e-06 9.63654e-06 -4.71351e-20)
(0.0154643 -0.0324057 2.34595e-18)
(0.0171538 -0.0327222 -4.50733e-21)
(0.0158351 -0.0345823 -6.5632e-19)
(0.00619257 -0.0452519 2.08039e-18)
(0.00696 -0.0435748 -7.40376e-19)
(0.00891398 -0.0440749 -2.31215e-18)
(0.00108967 -0.0204469 2.70597e-18)
(0.0017673 -0.0193088 5.25965e-18)
(0.000645036 -0.0195348 -6.30946e-18)
(-0.0162646 -0.00797566 -2.35732e-20)
(-0.0161562 -0.00942647 -4.38534e-19)
(0.0466803 0.0362854 -4.94032e-19)
(0.049364 0.0245774 -7.56281e-19)
(0.000531227 0.000450134 9.15667e-20)
(0.000583461 0.000446145 -2.85043e-19)
(0.00055708 0.000485301 -1.92368e-20)
(-0.00016191 0.00012019 1.11538e-20)
(-0.000181045 9.7089e-05 -1.61778e-20)
(-0.000142852 8.60962e-05 9.14696e-22)
(-0.00075884 0.00165095 -1.54606e-17)
(-0.00128028 0.00158479 -2.55765e-19)
(-0.0014704 0.00201884 -3.0916e-17)
(0.00626175 -0.00333224 3.95069e-19)
(0.00674527 -0.0120403 -2.52504e-19)
(0.00557397 -0.00490164 3.68582e-19)
(0.00590616 0.0067926 -9.70612e-20)
(0.00722131 -0.00154386 6.14747e-19)
(-0.00439658 0.0152445 1.02367e-17)
(-0.0132804 0.0149646 5.71521e-18)
(-0.0151417 0.0184785 5.7204e-18)
(0.015286 -0.0268107 -1.15118e-18)
(0.0124078 -0.0193629 -6.19631e-19)
(0.0124968 -0.0207079 -5.56901e-19)
(0.0782937 -0.011124 6.81217e-19)
(0.0639541 0.0224349 4.62929e-19)
(0.0666609 -0.0141764 3.92329e-18)
(0.000509051 -0.00261432 2.43396e-18)
(0.000649302 -0.00246949 -1.72824e-18)
(0.00549016 -0.00556075 -9.33831e-19)
(0.00538957 -0.00494422 4.51233e-19)
(0.00611194 -0.0049969 2.65114e-19)
(0.00370587 -0.0153962 5.82397e-19)
(0.00386197 -0.0159368 -1.01205e-17)
(0.004308 -0.0154136 -1.14456e-18)
(-0.00167085 -0.0186992 2.63123e-18)
(-0.00119774 -0.0188718 -1.55771e-18)
(-0.00169799 -0.0194673 -3.28205e-18)
(0.00372314 0.0175758 9.0922e-19)
(0.00271521 0.0158022 -1.19342e-17)
(0.00238484 0.0171561 2.5754e-18)
(0.000187023 -3.00078e-06 -2.56035e-20)
(0.000178793 3.6873e-06 -3.39513e-19)
(0.000176344 -1.18766e-05 -8.70148e-19)
(0.00010988 1.97434e-05 4.58262e-19)
(0.000102226 1.52839e-05 -5.3549e-19)
(9.06557e-05 2.80185e-05 7.22438e-19)
(-0.000138844 0.000143201 3.02405e-20)
(-0.00018865 0.000161346 3.06973e-20)
(6.08189e-05 -1.58486e-05 -1.34504e-20)
(6.61193e-05 -2.0739e-05 3.15435e-21)
(6.92771e-05 -1.19415e-05 -4.2641e-20)
(0.0155582 0.0266866 -1.88639e-17)
(0.0182 0.0260239 -3.46666e-19)
(0.0176927 0.0289843 -1.15127e-17)
(-0.00162009 0.00242062 4.2735e-19)
(-0.00143847 0.00277524 4.9581e-19)
(8.38917e-05 -0.000318572 3.27316e-19)
(9.04791e-05 -0.00029238 5.75098e-19)
(0.000108172 -0.000280521 1.50855e-18)
(0.00215665 -0.0217677 -2.46991e-18)
(4.46147e-05 -0.0215523 4.57264e-18)
(0.112688 0.0256241 3.8027e-18)
(0.105203 0.0303384 1.00116e-17)
(0.105268 0.0339238 2.74432e-17)
(0.0224712 0.0029458 -7.43773e-19)
(0.0214437 -0.00187771 1.05448e-18)
(0.0188707 0.00177706 3.38528e-19)
(-0.000896443 -0.0153399 -2.32909e-18)
(-0.00104454 -0.015205 4.80373e-18)
(-0.00105741 -0.0153978 7.19332e-18)
(-0.0367204 -0.00300783 3.52189e-18)
(-0.0522061 0.0159655 1.67863e-18)
(-0.0392719 0.0105043 -2.18169e-18)
(0.00435667 0.000754364 1.19215e-19)
(0.00418608 0.000523037 8.17087e-20)
(0.00450073 0.000492115 4.51992e-22)
(0.00460253 -0.0460658 2.18424e-19)
(0.0066711 -0.0470645 -2.7844e-18)
(0.0210139 -0.0362036 2.03001e-19)
(0.0184275 -0.0327987 -4.54937e-18)
(0.00239378 -0.00687075 2.09235e-19)
(0.00204117 -0.00698968 2.00398e-18)
(0.00212156 -0.00659019 7.73696e-18)
(0.00252186 0.00677658 1.45948e-19)
(0.00310061 0.0074841 -5.73701e-20)
(-0.126997 -0.0116547 -4.90058e-20)
(-0.130102 -0.00897853 -1.76617e-18)
(-0.120892 -0.00689249 2.30874e-18)
(0.0179207 -0.0549395 -2.4326e-18)
(0.021764 -0.0563748 -1.76255e-18)
(0.0157806 -0.0521168 -1.05711e-18)
(0.0255617 0.141162 1.1168e-18)
(-0.0202744 0.156823 -1.94133e-18)
(0.000181896 -4.9908e-06 -1.1904e-18)
(0.00019249 -2.95037e-06 -3.15159e-19)
(0.000142882 4.41159e-05 2.99854e-19)
(0.000134982 5.14036e-05 -1.25776e-19)
(0.000157614 6.00548e-05 2.62829e-19)
(0.000679053 0.000411391 -7.87555e-21)
(0.000722507 0.000378749 9.75228e-21)
(0.000635521 0.000360485 -1.34978e-20)
(-0.00560283 -0.0143563 -2.38194e-18)
(-0.00605189 -0.0141183 -4.21246e-19)
(0.00132469 -0.00504651 -8.09073e-19)
(-0.00107998 -0.00685113 2.73455e-18)
(0.00392988 -0.00461776 3.44524e-18)
(-0.000379977 -0.0105551 8.19532e-18)
(-0.00024336 -0.0109267 -1.21603e-18)
(-0.000679808 -0.0109085 7.68068e-18)
(-0.152431 -0.00863012 2.01804e-18)
(-0.154187 -0.00635788 3.63423e-18)
(-0.000104688 -0.000671953 3.72706e-19)
(-0.000135996 -0.000654286 1.73215e-18)
(-8.15923e-05 -0.000612434 1.32331e-18)
(-0.0205059 0.0375683 -9.13913e-19)
(-0.0274922 0.0329404 -5.33241e-20)
(-0.0238841 0.030832 8.75493e-19)
(-2.40457e-05 -0.000207435 1.66116e-19)
(-3.86295e-05 -0.000210704 -3.38216e-19)
(-3.33683e-05 -0.00019483 -8.5078e-20)
(-0.00563008 0.00890198 7.08489e-18)
(-0.0113474 0.00949754 -3.83314e-18)
(-0.0022573 0.00659979 -5.254e-18)
(0.0222617 0.00694358 -2.0854e-18)
(0.0273081 0.00431594 5.0933e-20)
(0.081952 0.0891938 -1.61588e-20)
(0.0819362 0.0755634 1.34083e-18)
(0.00704245 -0.010923 1.50595e-19)
(0.0088363 -0.0116808 5.12895e-19)
(0.00830201 -0.00977916 5.23851e-19)
(0.14097 -0.115695 -5.07452e-18)
(0.133041 -0.102986 8.00525e-19)
(0.151702 -0.077425 -5.83766e-18)
(-0.000648827 -0.00339054 2.38541e-18)
(-0.000877558 -0.00343268 4.39467e-18)
(-0.000726718 -0.00365079 -9.17176e-19)
(0.000456428 0.00212562 -2.16986e-20)
(0.000316382 0.001833 -1.02482e-19)
(0.000720994 0.00191443 -1.54951e-20)
(0.0144058 -0.030869 -2.62976e-18)
(0.0137826 -0.0322513 6.2922e-18)
(-0.00360794 -0.0118973 8.41081e-20)
(-0.00201328 -0.0126684 5.38814e-20)
(-0.0040861 -0.0135015 -6.57328e-19)
(0.021919 -0.0343381 1.68777e-18)
(-0.0004089 -0.00462947 -3.46617e-18)
(-0.000574906 -0.00480534 -5.35484e-18)
(-0.000316205 -0.00487504 -1.96162e-18)
(-0.000535274 -0.00321704 2.15616e-18)
(-0.000395303 -0.00337018 -8.13251e-19)
(7.63426e-05 -4.60683e-06 9.28172e-21)
(8.10854e-05 -3.25887e-06 1.07438e-20)
(8.60217e-05 -9.19322e-06 1.46945e-20)
(-0.00100498 -0.0150037 2.56704e-19)
(-0.000711482 -0.0148202 3.88315e-18)
(0.0314726 0.00235999 2.26813e-18)
(0.0346732 0.00399418 1.95142e-18)
(0.0319289 0.00201006 5.35336e-18)
(0.0055366 -0.00631518 -1.61824e-19)
(0.00476756 -0.00568925 -1.93168e-19)
(4.49266e-05 -2.65478e-06 5.28956e-21)
(7.25761e-05 -5.8792e-06 -1.28614e-20)
(0.0321225 0.0332099 3.55414e-18)
(0.0296703 0.0314409 -7.29142e-18)
(0.0299474 0.0345185 -4.88967e-18)
(0.00178737 -0.0115419 4.56464e-18)
(0.00225026 -0.0115145 -6.53651e-18)
(0.00197844 -0.0111112 2.78921e-18)
(0.00115816 0.00151835 -3.33882e-19)
(0.0011688 0.00162343 3.20913e-19)
(0.00129879 0.00158305 -4.99342e-19)
(0.0015616 -0.000921083 -1.41311e-18)
(0.00168041 -0.000936978 -5.12774e-19)
(1.93571e-05 1.33815e-06 -1.0447e-20)
(1.59559e-05 1.71069e-06 5.81966e-22)
(1.91421e-05 1.5503e-06 8.73048e-21)
(0.00383498 -0.0124133 5.16001e-19)
(0.00231052 -0.0123378 -3.43937e-19)
(0.00317514 -0.0108146 -1.24621e-19)
(0.00321559 -0.0123515 -6.09412e-18)
(0.00275941 -0.0123575 5.1696e-18)
(0.00294789 -0.0128412 -2.38476e-18)
(2.6622e-05 6.0918e-05 1.46031e-20)
(8.26825e-06 5.29991e-05 2.60662e-20)
(1.62185e-05 4.04642e-05 6.1926e-21)
(0.0342019 -0.0652088 5.79763e-19)
(0.035055 -0.0695442 2.97749e-19)
(0.0202006 -0.0125238 6.6703e-20)
(0.0175344 -0.00965641 5.8497e-19)
(7.41638e-05 5.55494e-06 -1.10817e-20)
(4.806e-05 8.68054e-07 -5.02306e-21)
(7.73593e-05 3.56578e-06 -9.47042e-20)
(0.000701347 0.00251241 -5.43951e-20)
(0.000173968 0.00235742 1.36154e-20)
(-0.00477464 -0.0111474 1.78565e-19)
(-0.00311808 -0.0108063 -1.81024e-19)
(1.28226e-05 1.02214e-06 -3.9313e-20)
(1.348e-05 3.94847e-07 -1.84984e-19)
(7.74618e-05 1.03024e-05 1.91048e-22)
(6.70084e-05 5.59613e-06 -7.04062e-20)
(-0.0281038 0.0165014 1.75197e-18)
(-0.0103969 0.0610067 2.06292e-18)
(0.0243588 -0.000588044 -5.45502e-18)
(0.0280744 0.00171783 9.52668e-18)
(-2.51666e-05 -5.973e-06 5.73261e-21)
(-3.57796e-05 -3.94734e-06 -3.30584e-20)
(-3.31545e-05 -1.71355e-06 -1.10538e-20)
(0.000151612 -1.34384e-05 -6.12817e-20)
(0.00014283 -1.29345e-05 -6.00212e-20)
(8.75895e-05 -5.15443e-06 -1.08721e-19)
(0.000137269 2.58989e-05 -3.62106e-19)
(0.000138323 1.02862e-05 -1.01441e-19)
(0.000121882 1.7056e-05 3.05326e-19)
(8.07588e-05 0.00163893 1.49139e-17)
(-0.000437204 0.00124315 5.0668e-18)
(0.00148944 -0.00112144 -1.05679e-18)
(0.00141678 -0.000940473 -8.56134e-19)
(-0.00812527 -0.00919073 -4.496e-18)
(-0.0115329 -0.00907155 3.50336e-19)
(-0.0012642 -0.198878 -8.48461e-19)
(0.0878799 -0.0343686 9.10967e-19)
(0.0824554 -0.0117318 1.93798e-19)
(0.00135 -0.0038238 -2.61093e-19)
(0.000915181 -0.00379095 5.81413e-20)
(0.00115786 -0.00434967 1.61365e-19)
(0.0840122 -0.05271 3.59429e-18)
(0.0828382 -0.0675543 -4.89056e-18)
(0.000576259 -0.0109738 1.13215e-19)
(0.000922402 -0.0110582 -3.75464e-18)
(0.000609183 -0.0113853 1.5177e-18)
(0.00258603 0.000193021 -3.4044e-20)
(0.00275791 4.17378e-05 -1.4476e-19)
(-0.000973714 -0.0155797 -9.76363e-19)
(-0.00111922 -0.015525 5.45154e-19)
(-0.000958012 -0.0153556 -1.0903e-19)
(0.000514683 0.000418452 1.28061e-19)
(0.000483075 0.000439301 2.56942e-19)
(-2.74403e-06 -0.000117984 -1.53374e-19)
(-1.35591e-06 -0.000131351 -5.52615e-20)
(7.35215e-06 -0.000128043 -1.12354e-19)
(-0.12306 -0.0129626 7.39534e-19)
(-0.123368 -0.0152026 1.38396e-18)
(-1.23998e-05 -0.000214533 1.03831e-18)
(-1.17561e-05 -0.000199553 1.45984e-18)
(-0.0194021 -0.0498429 3.88851e-18)
(5.54999e-05 -5.34799e-05 5.61376e-20)
(4.26853e-05 -5.03509e-05 -1.20356e-19)
(5.90064e-05 -3.83988e-05 1.7101e-19)
(-1.55078e-05 -6.68718e-06 -5.4307e-21)
(-1.60404e-05 -8.07758e-06 -9.02399e-21)
(0.0138711 -0.053457 2.18607e-18)
(0.0103122 -0.051639 3.01531e-18)
(0.00944843 -0.0496169 -1.24288e-18)
(0.0161365 0.0373999 9.90278e-18)
(-0.008466 0.0470359 -3.13035e-18)
(-0.00805935 0.0155838 -2.15669e-18)
(-0.0877696 -0.0713679 -1.05499e-18)
(-0.0957402 -0.0713949 7.58391e-19)
(-0.0830741 -0.0796224 2.00486e-18)
(0.0335995 0.0333382 8.53978e-18)
(0.0331098 0.0349089 1.40416e-17)
(0.000121176 2.26876e-05 -1.66232e-19)
(0.000108505 1.50944e-05 -4.67716e-20)
(0.00294812 0.00235927 -1.31583e-21)
(0.00312256 0.0027475 -2.70631e-19)
(0.0034419 0.00236802 -4.97758e-20)
(-0.00131144 -0.000255697 -5.64086e-20)
(-0.00117585 -0.000333831 -1.06491e-20)
(-0.00136207 -0.000398271 -8.21132e-20)
(-0.00199517 -0.000998735 2.07986e-19)
(-0.0021092 -0.00113545 -2.54949e-18)
(-0.00188841 -0.00112287 -1.26827e-18)
(0.00963967 -0.0187762 -2.22237e-19)
(0.00907426 -0.0176582 8.5896e-19)
(0.0100951 -0.00191285 -2.40679e-18)
(0.00859112 -0.00191595 1.32206e-19)
(0.00886291 -0.000750844 -2.69503e-19)
(-0.00063963 -0.0155984 -5.75578e-18)
(-0.000868877 -0.0158719 1.45941e-18)
(0.00017731 -5.39144e-05 -1.25576e-18)
(0.000165435 -9.50383e-05 -6.27084e-19)
(0.0069413 0.0144286 7.15642e-19)
(0.00497014 0.0165516 -6.17527e-20)
(0.0153434 -0.0133877 -9.65524e-19)
(0.0152415 -0.0144815 6.55409e-19)
(0.000154799 1.40061e-05 -4.05788e-19)
(0.000166006 2.19555e-05 6.15192e-19)
(0.000151647 2.81048e-05 7.16515e-20)
(-0.00518745 0.041654 4.6221e-18)
(-0.0223187 0.0301543 1.02412e-18)
(5.68952e-05 -1.30491e-05 1.43105e-19)
(5.38532e-05 -2.13264e-05 -5.72765e-20)
(-0.000627531 -0.00163891 3.0345e-18)
(-0.000550196 -0.00170993 1.75139e-18)
(-0.00052025 -0.00156802 1.72403e-18)
(-0.00210193 -0.000867958 4.90891e-19)
(-0.00190408 -0.000867339 1.25422e-18)
(-0.000126278 -0.000435194 -1.37124e-19)
(-0.000131137 -0.000412158 1.46217e-19)
(-0.000176453 -0.000443866 -4.53159e-20)
(-0.00163407 0.00151799 -3.22996e-20)
(-0.00153185 0.00134334 4.65242e-19)
(-0.00172875 0.00127988 5.96766e-19)
(-0.00228751 -0.0186267 -2.67751e-18)
(-0.00173007 -0.0181898 -1.18118e-18)
(0.00358198 -0.0147895 5.75134e-18)
(0.0031241 -0.0152708 3.06445e-18)
(0.000889776 0.000396537 -4.39563e-21)
(0.000775782 0.000348524 -7.4597e-20)
(0.000889061 0.00031308 1.16874e-21)
(0.00151127 -0.00403592 8.04783e-19)
(0.00142816 -0.00423982 7.51683e-19)
(0.00167676 -0.00418982 2.21054e-19)
(0.0138341 0.027192 1.91272e-18)
(0.0138348 0.0248802 -7.51879e-18)
(-4.1267e-06 -0.000106102 3.49947e-20)
(-7.75934e-06 -0.000105528 2.02556e-20)
(-0.00577503 0.00374358 1.88904e-19)
(-0.00587298 0.0029803 -3.6176e-19)
(-0.00527695 0.00332105 -1.21897e-19)
(-0.00066333 3.96039e-05 6.03266e-20)
(-0.000734555 -9.338e-06 -6.58567e-20)
(-0.000629366 -2.10814e-05 -2.15843e-20)
(0.0116652 -0.00170203 -1.13127e-19)
(0.0109245 -0.0035036 5.75367e-19)
(0.00268401 -0.00715913 1.92465e-18)
(0.0027438 -0.00672165 -3.95795e-18)
(0.00245114 0.00030036 -5.08356e-20)
(0.00244675 8.27131e-05 -8.24942e-21)
(0.0417156 0.0200905 -2.00481e-18)
(0.0293479 0.0210607 -1.71657e-18)
(0.0405007 0.017826 -4.57387e-18)
(0.0111015 -0.00201194 -6.48753e-18)
(-0.00144787 -0.00506147 -2.73885e-18)
(0.000105046 4.95074e-06 1.18072e-20)
(0.00010696 1.2191e-05 1.55735e-20)
(9.92508e-05 -3.0237e-06 -8.41169e-21)
(-0.000114208 -0.000461191 -5.69084e-20)
(-7.56218e-05 -0.000424279 -2.867e-20)
(-0.0835204 -0.0698498 -9.51913e-19)
(-0.0935858 -0.0623224 9.61681e-20)
(-6.08651e-06 -9.44514e-05 -5.71276e-20)
(3.55297e-07 -0.000104195 -3.6234e-20)
(0.0407093 0.060133 4.43622e-18)
(0.0532449 0.048798 7.25625e-19)
(0.000112178 -0.0109483 -4.13683e-18)
(0.000439711 -0.0105859 2.83196e-18)
(0.00143794 0.00369987 -1.88639e-19)
(0.00102291 0.00388474 2.36608e-19)
(0.00149094 0.00425606 4.75033e-20)
(-0.00346461 -0.0100329 5.87403e-18)
(-0.00413231 -0.0114798 -2.47318e-18)
(5.50274e-05 0.000107162 -3.17702e-20)
(8.60937e-05 0.000113121 2.4194e-20)
(7.50369e-05 0.000139027 1.39733e-20)
(-0.00261488 -0.00337276 -6.05794e-19)
(-0.00263893 -0.00313999 3.35497e-19)
(-0.00286703 -0.00328626 2.21583e-20)
(0.0199201 -0.0575806 -2.70735e-19)
(1.64067e-05 -0.000203178 1.4025e-19)
(2.93505e-05 -0.000195785 -5.43143e-20)
(1.78511e-05 -0.00019621 -6.34828e-19)
(-0.00610682 -0.0157484 1.04952e-18)
(-0.00550441 -0.0154214 7.41128e-18)
(6.41151e-06 6.90103e-07 6.80488e-21)
(1.15639e-06 -4.45388e-07 -2.65594e-21)
(5.48171e-06 -1.5651e-07 1.54021e-21)
(-1.49308e-05 -2.5453e-06 1.11243e-19)
(-2.09361e-05 -2.54743e-06 -2.17547e-20)
(-2.91452e-05 -5.03961e-06 1.1506e-20)
(0.00448788 0.000974924 2.54526e-20)
(0.00418579 0.000983279 6.10131e-20)
(0.00013779 3.749e-05 -1.56228e-19)
(0.00012647 3.25042e-05 -5.41837e-19)
(-0.00158473 -0.0150657 1.6404e-18)
(-0.00178266 -0.0150942 1.25292e-18)
(-0.00162398 -0.0152808 2.71352e-20)
(-0.0118858 -0.00934534 3.48761e-20)
(-0.0105151 -0.00941793 9.5916e-19)
(-0.0115403 -0.00836649 2.69184e-20)
(0.0172485 -0.0313705 1.75687e-18)
(0.0056457 0.0196586 -2.0069e-18)
(0.00573835 0.0171549 -1.67735e-18)
(0.000896408 0.00282013 6.78018e-20)
(0.000567183 0.00315699 1.71395e-20)
(0.00118424 0.00324166 1.87949e-19)
(0.000673537 -0.00742254 2.7429e-18)
(0.000997305 -0.00730622 -1.62511e-18)
(0.000765817 -0.00705695 -7.30077e-20)
(0.120566 0.0165495 -1.26712e-17)
(0.10658 0.0154347 -1.97882e-17)
(-0.000737313 -0.00148071 -3.45991e-19)
(-0.000698125 -0.00156791 1.28119e-18)
(-0.000632249 -0.0014525 -5.20134e-19)
(0.00279261 0.00204046 1.16307e-20)
(0.00248133 0.00227616 -6.61564e-20)
(0.0401357 -0.0593947 -2.561e-18)
(0.0331455 -0.0567361 -2.24206e-19)
(0.0398359 -0.0502848 -5.77495e-18)
(0.00191553 0.00348799 1.82217e-19)
(0.00145604 0.00318441 2.42096e-20)
(0.000625532 0.000435971 -2.49202e-21)
(0.000720545 0.000465194 4.63753e-21)
(0.00181007 -0.00389636 -3.75754e-19)
(0.00149586 -0.00339824 -2.36785e-19)
(-0.0322006 0.0333131 2.7275e-18)
(-0.038859 0.0389327 -1.65994e-18)
(-0.0360251 0.033354 -1.21251e-17)
(5.32278e-05 -5.19521e-06 6.64128e-20)
(0.000128612 -6.03984e-06 -3.97859e-21)
(3.91256e-05 -4.65196e-06 -2.78295e-20)
(-2.14098e-05 8.38206e-05 4.28771e-19)
(-1.19285e-05 8.57298e-05 -2.31029e-19)
(-9.66455e-06 0.000109434 1.43267e-19)
(-0.0121875 -0.00661849 -1.09203e-20)
(-0.0122635 -0.00655523 1.14867e-19)
(-0.012212 -0.00658003 7.60029e-20)
(1.82638e-05 -0.000208571 4.77404e-19)
(4.72848e-06 -0.000213862 7.76441e-19)
(0.0976782 -0.0798434 7.1423e-19)
(0.0970078 -0.0885272 9.47667e-19)
(0.0895691 -0.0815979 2.25178e-19)
(-0.00176437 -0.00317764 -6.3358e-19)
(-0.00168702 -0.00296846 -8.65859e-19)
(-0.00150719 -0.00313629 -1.4834e-18)
(-0.039508 -0.0258807 1.8834e-20)
(-0.0452422 -0.0226815 -1.31948e-18)
(-0.0432138 -0.0268745 8.53744e-19)
(0.00032377 0.000197633 5.94925e-21)
(0.000388701 0.000229967 2.92517e-20)
(0.00033112 0.000246937 2.57505e-20)
(-0.0127524 -0.0451884 2.18227e-18)
(-0.0168355 -0.0461031 -2.19503e-18)
(-0.0164181 -0.044181 2.25951e-18)
(0.00101712 0.00142733 -7.49672e-20)
(0.00115108 0.00140184 1.46783e-19)
(0.0421115 -0.0688409 -1.65535e-19)
(0.0404467 -0.0723493 1.01775e-19)
(0.0395601 -0.0776067 9.84731e-20)
(0.000122013 7.87882e-05 -2.46407e-21)
(9.3811e-05 7.39748e-05 1.1406e-20)
(9.37599e-05 5.84147e-05 -1.04859e-20)
(-0.0010991 -4.33023e-05 3.07974e-21)
(-0.00115701 7.97894e-05 2.77527e-20)
(-0.000987726 3.8879e-05 1.80541e-20)
(0.0188518 0.00431585 1.92e-19)
(0.016001 0.00712064 4.37309e-20)
(0.0136631 0.00189029 1.8819e-18)
(0.0235065 0.0146163 -6.97e-19)
(0.0214046 0.0110168 5.06541e-19)
(0.0180897 0.0147519 -8.05246e-20)
(0.00394696 0.0115326 1.5521e-18)
(0.000955785 0.014402 -8.76356e-18)
(0.000132276 -7.22536e-05 -7.29306e-19)
(0.000136962 -5.95241e-05 -2.34655e-19)
(0.000125622 -6.86726e-05 -1.70456e-19)
(-0.0357597 -0.0253592 -1.36655e-18)
(-0.0336804 -0.0293819 -1.86964e-18)
(-0.00195662 -0.00320839 3.95524e-18)
(-0.0018293 -0.00335113 1.80751e-19)
(-0.000123626 -0.000720874 -5.69867e-19)
(-6.76209e-05 -0.000674254 5.20254e-19)
(-0.022428 -0.0184603 -1.28219e-19)
(-0.017969 -0.0170915 -6.6424e-19)
(-0.0188694 -0.0188338 4.7296e-18)
(-0.00172403 -0.0161167 3.64475e-19)
(-0.00188614 -0.0158718 3.44216e-18)
(-0.00207786 -0.0161852 -2.97088e-18)
(-0.0278099 -0.0576659 -6.17264e-20)
(-0.0352612 -0.0554162 -5.66013e-19)
(-0.0367153 -0.0569407 3.15115e-19)
(-1.89819e-05 -9.31139e-07 -1.73764e-20)
(-1.89995e-05 -6.42315e-07 2.536e-22)
(-1.44226e-05 -9.13703e-07 -4.63488e-20)
(-0.000512991 -0.00557532 5.85138e-18)
(-0.000382775 -0.00585914 -1.48303e-18)
(-0.000720619 -0.00584541 1.69095e-18)
(1.86563e-05 1.81124e-06 1.77966e-20)
(1.44589e-05 1.40019e-06 1.52294e-20)
(0.010477 0.0124809 -1.32692e-18)
(0.00911797 0.0107108 4.6273e-18)
(0.00889377 0.0114765 -1.8507e-18)
(0.00015042 8.20669e-05 -2.42736e-21)
(0.000150722 0.000102202 -6.5227e-21)
(-0.00626767 -0.00939159 -1.07675e-19)
(-0.00586195 -0.00911697 2.21423e-18)
(-0.063457 0.114251 -5.70349e-19)
(-0.0678368 0.105484 -1.18016e-18)
(-0.0809303 0.116934 -1.83149e-18)
(0.000108869 1.11338e-05 -9.98826e-21)
(0.000102452 -1.56494e-06 1.0018e-20)
(0.00116308 0.00249162 -6.28353e-20)
(0.00589544 -0.0142693 4.6287e-19)
(0.00525117 -0.0143839 -2.02449e-18)
(0.00550381 -0.0137367 2.47937e-18)
(-0.00544984 0.0220779 2.17899e-19)
(-0.00498286 0.0194319 -2.63219e-19)
(-0.00253266 0.0206183 8.86688e-20)
(0.0971299 -0.0726742 -6.7704e-19)
(0.106006 -0.0758856 -4.33843e-19)
(-0.038718 -0.0169718 6.46662e-18)
(-0.0207679 -0.0199103 -4.59635e-19)
(-0.00120274 -0.000129216 -5.13524e-20)
(-0.00140785 -0.000141374 -4.75077e-20)
(-3.13062e-05 5.93356e-05 1.09818e-18)
(-3.04602e-05 8.46761e-05 -9.94661e-19)
(0.00933241 -0.0172838 -9.50296e-20)
(0.00837079 -0.0215802 -8.46774e-19)
(0.00197913 0.00433436 5.0875e-20)
(-0.000761148 1.27629e-05 1.90876e-21)
(0.00302617 0.00175831 7.41187e-19)
(0.00247644 0.000869852 -1.27198e-19)
(0.00215156 0.000846445 1.10248e-20)
(0.00234827 0.00114375 3.7048e-20)
(-0.0121698 -0.00643545 4.64095e-20)
(-0.0120121 -0.00657176 -4.51145e-20)
(1.03251e-05 7.48379e-07 -5.1582e-22)
(1.23011e-05 1.07649e-06 -1.0018e-20)
(-0.0365168 -0.0487531 -1.17347e-18)
(-0.0405397 -0.0465034 -9.08236e-19)
(-0.0395233 -0.0495754 7.92872e-19)
(0.00138056 -0.0116238 3.98315e-18)
(0.00162143 -0.0120208 5.13316e-18)
(0.0446089 -0.0299295 -1.79062e-19)
(0.0460344 0.00417196 -2.26549e-19)
(0.0407897 -0.00734305 3.992e-19)
(-0.00219274 -0.000740364 -4.15647e-19)
(-0.00228348 -0.000578247 -7.4082e-19)
(-0.00207526 -0.000596224 -3.3494e-19)
(-0.00403471 -0.00195947 4.85136e-19)
(-0.00373864 -0.00183653 -4.0766e-19)
(-0.00406621 -0.0016622 -2.93233e-18)
(-0.0129583 0.00730977 1.78396e-19)
(-0.0145381 0.00550387 2.54188e-19)
(-0.0120753 0.00505876 -4.90032e-19)
(0.00538384 0.00799494 2.268e-19)
(-4.0514e-05 0.00783518 3.93854e-20)
(-0.000669177 -0.000521889 6.24255e-20)
(-0.000729959 -0.00053973 -2.80484e-18)
(-0.00070865 -0.000480529 -1.50841e-18)
(-0.00230874 -0.000869496 -1.13599e-18)
(0.00585086 -0.0108682 7.47189e-19)
(0.0062803 -0.0112477 -1.45706e-19)
(0.00556124 -0.011377 2.15511e-18)
(-0.0439221 -0.018672 3.37022e-19)
(-0.0413255 -0.0349828 -7.81861e-19)
(-0.0325001 -0.0277693 6.14063e-19)
(-0.0130681 -0.0107115 -3.00096e-19)
(-0.0132072 -0.00881408 -5.33555e-19)
(0.0124735 -0.0539988 -3.39619e-19)
(0.00742592 -0.05047 1.984e-18)
(0.024291 0.00208747 1.47985e-17)
(0.0220782 0.000800579 1.37971e-17)
(0.0196574 0.00225707 -1.4858e-17)
(0.000162447 -4.33961e-05 6.3136e-19)
(0.000163702 -3.20861e-05 -9.80408e-19)
(0.000156978 -5.20911e-05 1.88317e-19)
(-0.00101285 -0.000134309 3.72054e-20)
(0.00270606 0.00617788 1.74319e-19)
(0.00320937 0.00596952 6.16557e-20)
(0.00272531 0.00550337 1.60288e-19)
(0.0428277 -0.0694041 1.32601e-19)
(0.039728 -0.0651973 4.47117e-18)
(0.0539883 -0.0809229 -1.8563e-18)
(0.000350301 -0.00156036 -6.81036e-20)
(0.000157357 -0.00147157 -7.44174e-20)
(0.000142066 -0.00173028 7.82628e-21)
(0.000477932 -0.00827537 1.95957e-18)
(0.00203549 -0.00859156 -1.97316e-18)
(0.000672292 -0.00694532 -4.73851e-18)
(-0.000832795 -0.00153368 1.00082e-18)
(-0.000783006 -0.00141213 1.21469e-18)
(-0.000633068 -0.000554431 -4.90282e-19)
(-0.000616274 -0.000501527 7.04546e-19)
(-0.00020838 -0.00449111 1.69982e-18)
(-0.000451847 -0.00445418 2.82593e-18)
(-0.0241372 -0.0175233 -5.08459e-18)
(-0.0239729 -0.0189119 2.64557e-18)
(0.0168348 -0.000700986 2.39797e-18)
(0.0149569 0.00111604 7.41845e-19)
(0.0176437 0.00277278 6.9567e-19)
(-0.0129352 0.010339 1.33112e-18)
(-0.0107452 0.00876496 6.46157e-20)
(-0.00075237 -0.00170366 -1.44946e-18)
(0.0283361 -0.035524 1.57436e-18)
(0.0295253 -0.0271966 -1.21316e-18)
(0.0370171 -0.0362996 -3.01306e-18)
(-0.000523641 -0.0101945 1.65244e-18)
(-9.19474e-05 -0.0101873 -1.09439e-18)
(-0.00790647 -0.0027849 8.68014e-19)
(-0.0073882 -0.00273562 -1.40347e-19)
(-1.77856e-06 -0.000144883 1.29007e-19)
(-1.0742e-05 -0.000130683 4.63645e-20)
(-0.0161267 0.0438053 2.46088e-19)
(-0.0127357 0.0420719 1.9262e-20)
(0.00534943 -0.0148123 3.92129e-19)
(0.00750246 -0.0139478 1.06048e-19)
(0.00507094 -0.0128725 2.30769e-19)
(-0.0352677 -0.0661809 5.18826e-19)
(-0.048529 -0.062485 6.8612e-19)
(-0.0527502 -0.0625144 3.89363e-19)
(0.00967083 0.00860565 -3.7575e-19)
(0.0109251 0.0146353 5.45322e-21)
(0.00278931 0.000880316 1.10966e-20)
(0.00249459 0.000693969 -3.5469e-20)
(0.000297423 0.000125289 1.58836e-21)
(0.000313406 0.000162544 3.47435e-21)
(0.00035431 0.000142904 2.97553e-21)
(1.92837e-05 1.18677e-06 1.10219e-21)
(1.83121e-05 1.3737e-06 4.37931e-21)
(1.28422e-05 1.24184e-06 -1.6774e-21)
(0.006141 -0.010436 4.02845e-19)
(0.00555093 -0.0105637 6.58713e-19)
(0.0528459 -0.0739061 6.21709e-19)
(0.0383999 -0.0662767 -2.34428e-19)
(0.0189908 0.0957944 -8.45442e-19)
(0.00732758 0.113278 -4.27133e-18)
(-0.00190043 0.125047 -2.50913e-18)
(0.000354944 0.000273973 1.56842e-20)
(0.000416883 0.000291687 1.43937e-20)
(0.000378356 0.00030823 -7.23831e-20)
(0.000182176 3.47991e-05 -3.0552e-19)
(0.000182147 2.39379e-05 -2.80082e-19)
(0.000181893 3.34166e-05 2.56303e-19)
(0.0251288 -0.0446703 -3.54125e-19)
(0.0206028 -0.0362799 -3.63608e-18)
(-0.0279057 0.0318636 6.71361e-20)
(-0.0192224 0.0385062 -7.86332e-18)
(-0.0223223 0.0295169 5.85556e-18)
(-0.000275587 -0.015589 -2.54726e-19)
(-0.000498481 -0.0151287 -2.81725e-18)
(-0.00152243 0.00220953 2.36093e-19)
(-0.00178939 0.00213127 -1.32341e-18)
(7.59584e-05 -0.000344138 -1.47275e-18)
(5.75731e-05 -0.000342766 1.026e-18)
(0.00183178 -0.00777679 -5.60402e-18)
(0.00146627 -0.00787411 3.59741e-18)
(0.00171153 -0.0082098 4.30572e-18)
(-0.0297881 0.0317363 -6.66465e-19)
(-0.0327994 0.0270162 1.1645e-18)
(-0.000621573 -0.00960237 3.69397e-18)
(-0.00102253 -0.00810553 -1.09803e-18)
(-0.0055737 0.00215878 3.11907e-19)
(-0.0052309 0.00207463 -2.49598e-19)
(-0.0054912 0.00167671 7.84991e-20)
(0.0891399 0.101332 3.0253e-21)
(0.0959631 0.0926886 -6.57069e-20)
(-1.86822e-05 -0.000153607 -1.83224e-20)
(-1.14602e-05 -0.000166244 -6.47061e-20)
(-5.74082e-06 -0.000153998 -3.17384e-20)
(-0.0335901 -0.0478701 -3.89076e-19)
(-0.0318073 -0.0506636 -7.38395e-20)
(0.00139764 -0.00389899 9.44904e-19)
(0.00162883 -0.00383815 1.29915e-18)
(-0.00224406 -0.0024861 3.57692e-18)
(-0.00244106 -0.0025984 7.6475e-19)
(-0.0247086 -0.0667325 -5.25069e-20)
(-0.0418772 -0.0641142 1.09642e-19)
(-0.0348908 -0.0646467 3.6815e-20)
(0.000120469 0.000762586 -9.23292e-19)
(0.000192814 0.000827324 -1.06685e-18)
(0.000107326 0.000816681 -1.91866e-19)
(0.00559833 -0.0119179 -2.64409e-19)
(0.00528731 -0.0139816 6.35618e-19)
(-0.00918872 -0.0290558 1.80962e-18)
(-0.00714654 -0.0275881 3.11115e-19)
(-0.0137799 -0.0287806 7.1535e-18)
(0.000336955 0.000248103 -6.55294e-21)
(0.000300635 0.00025208 1.25837e-20)
(0.00445964 -0.00889927 5.94711e-19)
(0.00483152 -0.00921152 -1.09125e-18)
(0.00428774 -0.00941789 4.68019e-19)
(-0.000888115 -0.00478998 -5.17098e-19)
(-0.000755275 -0.00507064 -1.9608e-19)
(-0.0014003 0.00199165 3.42692e-19)
(-0.00127241 0.00223941 -2.42837e-19)
(0.0396971 0.0125272 9.27095e-18)
(0.0257531 0.0553336 1.05032e-17)
(-0.0057731 0.00244115 9.80186e-20)
(-0.00597029 0.00197489 -1.18916e-20)
(-0.000672613 -0.000307625 -4.81428e-19)
(-0.000660357 -0.000360431 9.30272e-19)