/*--------------------------------*- C++ -*----------------------------------*\
| =========                 |                                                 |
| \\      /  F ield         | OpenFOAM: The Open Source CFD Toolbox           |
|  \\    /   O peration     | Version:  v2012                                 |
|   \\  /    A nd           | Website:  www.openfoam.com                      |
|    \\/     M anipulation  |                                                 |
\*---------------------------------------------------------------------------*/
FoamFile
{
    version     2.0;
    format      ascii;
    class       volVectorField;
    location    "800";
    object      ddt0(U);
}
// * * * * * * * * * * * * * * * * * * * * * * * * * * * * * * * * * * * * * //

dimensions      [0 1 -2 0 0 0 0];


internalField   nonuniform List<vector> 
13851
(
(-0.0050846 -0.00143065 1.21469e-17)
(-0.000818029 4.99648e-05 -1.01478e-18)
(-0.00081554 3.98225e-05 -7.21535e-18)
(0.00329757 0.0040361 2.24044e-17)
(-0.000558796 5.66318e-06 9.82814e-19)
(-0.000887574 0.000201437 7.77846e-18)
(-0.000484386 -0.000513898 2.29531e-18)
(-0.00108843 8.47984e-07 1.66956e-19)
(0.00320298 -0.00344133 9.26675e-19)
(-0.00010718 0.000164107 -2.06251e-18)
(-0.000825469 0.00076705 4.80494e-18)
(-0.000230164 9.77736e-05 -2.81101e-18)
(-0.000145983 0.000384584 -3.796e-18)
(0.00950464 -0.00129118 -1.07961e-17)
(-0.00134041 -0.000573198 -1.98293e-17)
(0.000721279 -0.00222074 -2.25347e-18)
(-0.000500242 0.000482955 -6.32179e-18)
(-0.000593268 3.16747e-05 9.45817e-20)
(-0.00974635 -0.000304207 2.30109e-17)
(-0.00485379 -0.00116856 -1.17314e-17)
(-0.001619 -0.000299215 1.19157e-17)
(-0.000603207 0.00039003 -1.09166e-18)
(-0.000420783 -0.00477558 6.18631e-18)
(-9.54222e-05 1.96551e-06 9.7333e-20)
(-0.00708818 -0.013027 -2.40839e-17)
(-0.000260385 -0.00151385 -2.43647e-17)
(0.0115708 -0.00551509 2.93153e-18)
(0.00263842 -0.00409411 2.32598e-18)
(0.000161219 -0.00339808 1.25143e-17)
(-0.000616255 6.67518e-06 7.83216e-19)
(-0.00423221 -0.00240101 -1.95143e-17)
(-0.000494687 -0.000503041 9.97975e-19)
(-0.00449903 -0.00282233 -1.77254e-17)
(0.0137302 0.000155947 1.21949e-17)
(-0.000880169 0.000632538 -9.04677e-18)
(-0.00118008 -0.0043746 1.82859e-18)
(-3.84204e-05 1.57125e-06 -1.12187e-19)
(0.0134802 0.0146426 -1.8445e-17)
(-0.00610786 -0.0015518 -2.76262e-17)
(-0.000428107 0.000311341 -1.24965e-18)
(0.00421224 0.00508018 2.2506e-18)
(0.000773389 -0.00369103 -1.43914e-18)
(-0.00181838 -0.000106033 -7.84544e-17)
(-0.00037886 0.00241581 -1.17949e-17)
(0.00103314 -0.00225163 -8.1388e-18)
(-0.000486995 0.000163217 6.42558e-19)
(-0.00106298 -1.78663e-05 -2.50244e-18)
(0.00044809 -0.00228551 -3.05669e-18)
(-0.000630495 0.000231719 -2.90273e-18)
(-0.000109615 0.000380445 -3.30708e-19)
(-0.00296225 0.000894836 4.00511e-17)
(-0.000109342 0.00042936 -2.62198e-18)
(0.000617816 -0.00215551 3.42042e-18)
(-0.000630256 -0.000869158 -3.75887e-18)
(0.00346612 -0.00101321 1.6616e-17)
(-0.000437543 0.000318394 -1.74165e-19)
(-0.00487752 -0.0026927 2.1877e-17)
(0.00422881 0.00463044 -1.01386e-19)
(0.00176659 0.00423129 -1.85378e-17)
(0.0108927 0.000769274 -1.58188e-17)
(-0.00023924 0.000104021 -1.75228e-18)
(0.00796959 -0.00513916 1.0696e-18)
(-6.19867e-05 0.000199153 3.50597e-18)
(-0.00065324 0.000244775 1.6457e-18)
(-0.000215492 0.00122029 6.6449e-18)
(-0.000176418 0.00117726 7.50757e-20)
(0.0109281 0.000559294 1.52633e-17)
(-0.00016234 0.000978779 6.22753e-17)
(-0.000508828 0.000200862 2.48119e-20)
(0.0078248 -0.000407383 6.62319e-17)
(-0.00284381 0.00234368 1.11691e-16)
(-0.00193377 -0.000260403 1.77887e-17)
(-0.000264369 0.00032323 -7.34108e-18)
(0.011458 0.000575925 2.02969e-18)
(-0.000804649 -0.000856838 3.63501e-19)
(-0.00053308 0.000342447 1.73789e-19)
(-0.000471603 0.00078555 -1.27676e-17)
(-0.000710362 -3.20498e-06 -3.26421e-19)
(-0.00235299 -0.00974361 1.96793e-17)
(-0.000370607 0.000154401 -5.92143e-19)
(-0.000528801 0.000195641 -5.868e-21)
(-0.00638175 -0.00226152 3.10778e-17)
(-0.000867641 0.000616284 1.01439e-17)
(0.0105642 -0.00133695 4.89976e-17)
(0.0114858 0.000764977 -2.56971e-18)
(-0.00478041 0.00014961 2.56759e-17)
(-0.000616036 0.00039553 -1.94105e-18)
(-0.00409246 -0.000663594 3.94727e-18)
(-0.000185218 0.000173482 1.6832e-19)
(-0.00392189 -0.00306385 2.32573e-17)
(-8.62954e-05 0.000439364 -3.60411e-18)
(-0.000516285 -0.000511462 1.19049e-18)
(-0.00527826 0.000167507 -5.08237e-17)
(-0.00434504 -0.000452099 -2.479e-17)
(-0.00300849 0.00403894 3.42714e-19)
(-0.000788911 0.00221082 -1.13104e-18)
(-0.000428592 0.000215633 -2.17875e-18)
(0.000405116 -0.00211285 -1.31947e-18)
(0.00233869 0.000291115 -3.86255e-17)
(0.000958225 0.000236478 -4.89628e-17)
(0.000390626 -0.00215465 2.89281e-19)
(-0.000196512 0.000853287 8.60964e-18)
(-0.00024115 0.000878929 3.09386e-18)
(-0.000286578 0.000370638 -5.91261e-18)
(-0.000505924 0.000116486 -1.02737e-19)
(-0.00176057 0.000223632 -6.42015e-18)
(-0.000503586 0.000124406 -8.4111e-20)
(-0.00336367 0.00259817 -9.44918e-17)
(-0.000530348 -0.000496674 -9.71596e-19)
(-0.000609799 2.73296e-05 -1.19662e-19)
(-0.000599783 0.000524679 -8.65737e-19)
(-0.000482369 0.000155474 -2.81366e-19)
(0.000396161 0.00391633 -1.88927e-17)
(-0.00112603 0.00100277 9.88856e-18)
(-0.0023083 -0.00456935 -7.00612e-18)
(-0.000629155 -0.000836038 -1.04678e-18)
(-0.000709683 2.45765e-05 -1.6235e-19)
(-0.00109678 2.58257e-07 -2.3331e-19)
(0.00213331 0.00359701 -3.82723e-17)
(0.00836447 -0.000127191 1.01175e-17)
(-0.0016786 0.00173296 3.00176e-18)
(-0.000589149 1.42533e-05 -2.0836e-18)
(-0.000487683 0.000242127 -1.21441e-18)
(0.0124899 0.00120465 6.66083e-20)
(-0.00276065 -0.00124199 2.9961e-17)
(-0.000200618 0.0010908 -3.58563e-17)
(-0.000441543 0.00021235 1.34635e-18)
(-0.000672701 0.000590377 -1.07645e-17)
(0.0115606 0.00338008 1.71675e-17)
(-0.00171987 -0.000679714 -2.55804e-17)
(-0.000595042 0.000398569 -2.77656e-19)
(-0.000882312 0.000432407 -1.53713e-17)
(0.0121834 0.0157601 1.14453e-17)
(0.0136365 -0.000344386 -9.67999e-18)
(-0.000839974 0.000779198 -4.05806e-18)
(-0.0052012 0.00354864 1.10141e-17)
(-0.000148862 0.000962825 3.17796e-17)
(-0.00458783 0.00108145 -1.14568e-17)
(-0.000183376 0.000775893 2.57293e-17)
(-0.0015798 -0.000841113 -1.55838e-17)
(-0.00591253 -0.00108078 -2.31385e-17)
(-0.000268086 0.000486429 6.35763e-18)
(-0.000167822 0.000182363 -1.56935e-18)
(-0.000268478 0.00104566 1.91331e-17)
(0.00760194 0.0225817 -1.26074e-17)
(-0.000470581 0.000376138 -1.4286e-18)
(-0.000712663 -2.77136e-06 9.39295e-20)
(-0.00432733 -0.00147684 4.82427e-17)
(0.00100209 -0.00142391 1.92043e-18)
(-0.000655117 0.000589021 1.19935e-17)
(0.000442356 -0.00207616 9.45495e-19)
(0.00048665 0.00340082 3.23393e-17)
(-0.00109983 0.00105949 4.81909e-18)
(-0.00641857 -0.000401929 9.69223e-19)
(-0.000159174 0.000475224 4.41737e-19)
(-8.78629e-05 0.000273881 -2.97641e-18)
(-0.000293362 9.79008e-05 1.26287e-18)
(-0.00611773 -0.00175959 -2.54075e-17)
(-0.0015082 -0.000729469 9.78255e-18)
(-0.000652322 -0.000329978 4.39552e-18)
(-0.000134323 6.39445e-06 -9.33547e-19)
(-0.000306096 -0.00385204 -4.7866e-18)
(-0.00173731 0.000171382 -3.6856e-18)
(0.000473695 -0.00236527 1.28484e-18)
(0.00927726 -0.00134583 7.97066e-18)
(0.000355929 -0.00308484 1.03609e-17)
(0.000197538 -0.00326187 -1.37634e-17)
(-0.00317439 0.00118172 9.53889e-18)
(-0.000595721 0.000507832 -4.57264e-19)
(0.0198327 -0.00817536 -3.12537e-17)
(-0.000217832 0.000116003 -1.90264e-18)
(-0.000763207 2.2316e-05 -3.43154e-19)
(-0.00190594 0.000626093 9.85989e-19)
(-0.000446337 7.42535e-06 -1.34152e-19)
(-0.00236886 0.00482018 -1.47147e-17)
(-0.00981366 -0.0161031 -1.58097e-20)
(0.00142375 -0.0027348 9.16514e-18)
(-0.000761761 1.5822e-05 -4.74986e-21)
(-0.00074301 -0.000883124 1.07574e-17)
(0.00115166 -0.002607 2.10617e-18)
(-0.00253871 -0.000732982 -2.07546e-17)
(-0.000594415 0.00252652 1.98837e-17)
(-0.000598394 0.00047904 7.32785e-19)
(-0.00164636 -0.000708583 1.32961e-17)
(-0.000886297 0.000244604 4.69916e-17)
(0.000947296 -0.00150593 -5.12622e-18)
(-0.00445831 -0.00333827 8.79674e-18)
(-0.000174222 0.000689568 -1.47541e-17)
(-0.000161231 0.00043615 5.1724e-18)
(-0.000565553 5.40567e-05 -7.3036e-20)
(0.00320471 0.0219552 -1.9032e-17)
(-0.00152568 -0.000678689 1.56919e-18)
(0.00939352 -0.000881598 6.54335e-18)
(-0.000905838 0.000186768 -9.78494e-18)
(-0.000479594 0.000364546 4.15381e-19)
(0.000427936 -0.00216887 8.27464e-18)
(-0.00405443 -0.00334394 -8.09632e-18)
(-0.000630327 -4.25393e-05 3.02441e-18)
(-0.000628013 7.2141e-05 -2.21489e-18)
(-0.000182224 0.000990842 1.01075e-17)
(-0.00600795 0.00147726 5.6358e-17)
(0.00315648 0.00177208 7.59582e-18)
(0.00301262 0.00308779 2.94555e-19)
(-0.00129973 -0.000604828 1.0917e-17)
(0.00267802 -0.00182069 -1.2265e-17)
(0.00258804 0.00162292 -4.23011e-17)
(-8.05099e-05 0.000593976 6.80089e-18)
(-0.00128201 -0.00111766 1.01002e-17)
(0.00436384 -0.00409687 -8.61494e-18)
(-0.000822506 0.000239555 -1.14028e-18)
(0.00104116 -0.00212652 -6.26346e-18)
(-0.000488795 0.000243534 1.44113e-18)
(-0.00698981 0.000423032 -5.12373e-17)
(-6.1814e-05 4.14454e-05 1.10044e-18)
(-0.000914653 0.000648526 -1.47494e-17)
(-0.000550815 0.000364574 4.75463e-20)
(-0.000107915 0.000360177 -1.8365e-18)
(-0.00690189 0.00183245 -1.14316e-17)
(-0.00062811 3.29833e-05 2.19408e-18)
(-0.000137243 0.00142698 6.87082e-17)
(-0.000742763 1.2313e-05 3.01158e-20)
(-0.00465999 -0.00058977 -2.51722e-18)
(0.0105495 -0.00112759 -6.15586e-17)
(-0.00402728 0.00417162 3.6208e-17)
(-0.000213736 0.000674649 1.51219e-17)
(-0.00125729 -0.00116415 -1.23067e-17)
(-6.62019e-05 1.33495e-05 8.05724e-19)
(-0.000273785 0.00103641 7.77087e-20)
(-0.000321821 8.88807e-05 -1.17504e-18)
(-0.000903288 0.000632276 1.58343e-17)
(0.00108357 0.00897505 -4.44218e-17)
(-0.000188648 0.000679675 2.25146e-17)
(-0.000831113 0.00022514 2.23498e-19)
(-2.37369e-05 0.000215827 2.13384e-18)
(0.00319375 0.00322452 -1.28096e-17)
(-0.000619268 4.28373e-06 -1.11637e-18)
(0.00372458 -0.00697026 1.92971e-17)
(0.00267568 0.00238591 -7.16774e-18)
(0.000598243 0.000445554 -6.11161e-18)
(-7.91589e-05 5.56787e-06 1.09709e-18)
(-0.00920831 -0.00426884 -9.39712e-18)
(0.0123938 0.000668791 1.6968e-18)
(0.00100657 -0.00239641 4.96311e-18)
(0.000898194 -0.00206564 8.38684e-18)
(-0.00126564 3.05953e-06 -4.57127e-18)
(-0.00025008 0.00107421 -1.37879e-18)
(-0.00661146 0.00112747 1.14807e-18)
(-0.000720572 -0.000909034 -1.31213e-17)
(-0.000941717 0.00211638 -5.90473e-18)
(-0.000643799 0.000513466 8.23528e-19)
(-0.000505737 -0.000516396 -4.22354e-18)
(-0.00356882 0.000435824 -5.65182e-17)
(-0.00103192 5.87486e-06 -8.58556e-20)
(-0.00094008 -6.62223e-05 1.07787e-18)
(0.000369937 -0.00223197 1.44469e-18)
(-0.000925935 -0.0036745 1.76889e-18)
(-0.00881754 -0.000897451 -2.2442e-18)
(-0.000612269 5.3698e-05 -2.11548e-19)
(-0.000186425 0.00108731 3.00156e-17)
(-0.000167356 0.000168439 -8.06939e-18)
(-0.00695277 -0.0050574 -5.58367e-18)
(-0.00398905 -0.00138171 -5.36565e-18)
(-0.000967535 -7.36299e-05 3.1501e-18)
(-0.00179707 9.69182e-05 -7.93471e-18)
(-0.00366635 0.000446795 6.91695e-17)
(-0.000296756 0.000266804 1.01393e-18)
(-0.000205474 0.000867126 1.91152e-17)
(0.000194524 -0.00251227 -8.34109e-18)
(0.00120468 0.00895111 -1.98619e-17)
(-0.000197109 0.000157483 -1.91e-18)
(-9.0965e-05 0.00035396 -1.48923e-18)
(-0.000203634 0.00068119 -1.09682e-17)
(0.00459136 -0.00661405 1.22834e-17)
(0.00418331 0.00114284 5.01927e-17)
(-0.00177626 -0.000396383 6.05813e-18)
(-0.00059862 1.66028e-05 2.90869e-18)
(-0.00199399 -0.000208309 4.80433e-18)
(-0.00519605 -0.00117382 -1.54676e-17)
(-0.00286075 -0.00356432 -6.10201e-18)
(-0.0017705 4.14199e-05 1.35991e-17)
(0.00535081 -0.00603471 -6.99063e-18)
(0.00387366 0.000481503 -8.73107e-18)
(-0.000975055 5.12462e-05 -2.57309e-18)
(-0.00120459 -0.000528471 1.14342e-17)
(-0.00834258 0.000310392 -3.5214e-17)
(-0.00055475 8.54029e-05 2.15336e-19)
(-0.000256425 9.07271e-05 4.76117e-19)
(-0.00322442 -0.00362705 -2.04661e-18)
(-0.000761285 0.000706801 -2.51114e-17)
(-0.000609953 3.0257e-06 1.12378e-18)
(-0.000106219 3.99253e-05 -2.16094e-18)
(-0.000332053 9.30601e-05 7.53524e-19)
(-0.000758674 3.19676e-06 -1.59517e-19)
(-0.00127559 -0.000187599 -1.16684e-17)
(-0.000271991 9.14857e-05 -4.62059e-19)
(0.00330243 -0.00384717 5.95007e-18)
(-0.00168444 -0.000318708 -9.27164e-18)
(-0.000444762 0.00024638 -3.36943e-19)
(-0.00134781 -0.00394102 -9.09803e-19)
(0.0126109 0.000942277 5.72023e-18)
(-0.000137973 0.000435169 -5.49942e-18)
(-0.00498348 -0.000744972 1.68914e-17)
(0.000577039 0.000521565 4.55556e-17)
(-0.00027087 0.000490935 3.4201e-18)
(-0.00010331 0.000444499 4.9204e-18)
(-0.00175472 -0.000261618 -1.51049e-17)
(0.0117871 -0.000557429 1.45577e-17)
(0.00947242 0.00480885 -4.19257e-17)
(-0.00228122 0.000447785 2.67803e-17)
(-0.000593111 6.35581e-06 7.09576e-20)
(0.0189383 -0.00861689 5.70727e-18)
(-0.000222405 0.000110771 1.4941e-18)
(-0.00237945 0.000644249 -1.90972e-18)
(0.000354485 0.000761435 -4.11719e-17)
(-0.000953379 0.0126247 -6.25364e-18)
(-0.000650318 -0.000321063 -6.27542e-18)
(-0.00826873 -0.00181592 3.14566e-17)
(0.00878885 0.0122955 1.53934e-17)
(-0.000759839 0.00385503 3.27537e-17)
(0.000959423 0.00256295 2.61298e-18)
(-0.000152711 0.000878769 -5.04032e-17)
(-0.00493794 0.00423518 -2.70803e-17)
(0.0122846 0.00187333 2.72481e-17)
(0.00224364 -0.00643718 1.43441e-17)
(-0.000625638 7.7056e-05 4.10614e-18)
(-0.00326616 -2.19508e-06 3.43026e-17)
(-0.00281962 -0.000236576 6.53185e-19)
(-0.000308376 0.00120739 -1.13797e-16)
(-0.000299815 0.00119736 8.6013e-17)
(-8.2943e-05 0.000596286 -1.09408e-17)
(-0.00207955 0.000674061 -3.00764e-17)
(-0.000380667 0.000626051 -4.26834e-18)
(-0.00433403 -0.000835647 4.33244e-18)
(-0.000206867 0.000907487 1.98753e-17)
(-0.000898028 1.63382e-05 1.15878e-19)
(-0.00111445 -1.92683e-05 3.65409e-18)
(-0.000725103 0.000387873 -1.09878e-17)
(-0.000877643 0.00333038 -2.20571e-17)
(-0.00018383 0.00147617 1.01179e-17)
(-0.000548244 7.79213e-05 -4.45763e-20)
(-0.00376625 0.00376312 -1.0101e-17)
(-0.000359143 0.000644484 -5.96911e-18)
(-0.000876297 0.000448219 1.27422e-17)
(-0.000654128 -0.00035168 1.36025e-18)
(0.0116352 -0.000217112 -2.07634e-17)
(-0.00198448 0.000228124 -1.47201e-18)
(0.000488935 -0.00225698 -1.36667e-17)
(-0.00053674 0.000359398 -1.25006e-19)
(-0.000819452 0.000213126 -5.39318e-18)
(-0.00565475 -0.00402571 6.70344e-19)
(-0.000173746 0.000444042 -7.24484e-18)
(-0.00609866 -0.00130017 -1.83976e-17)
(-0.00096711 3.25059e-05 4.50984e-19)
(-0.00175588 -0.000202763 -3.71162e-18)
(-0.0003543 0.000656848 9.19824e-18)
(-0.00017433 0.000176155 9.93082e-18)
(-0.000469034 0.000239427 2.74072e-18)
(-0.00157054 -8.37535e-05 -7.40003e-18)
(0.00135579 0.000589577 2.03756e-17)
(-0.00352371 0.000380813 -2.70325e-17)
(0.00925809 0.0136887 1.17415e-17)
(-0.004837 -0.00449875 -5.82023e-18)
(-0.000481591 0.000377209 3.55557e-18)
(0.00286091 0.002642 -2.96879e-18)
(-0.0097213 -0.00444095 -1.71052e-17)
(-0.000629219 -1.25053e-06 -2.20647e-18)
(5.94477e-05 0.0140866 -4.14057e-18)
(-0.00335279 -0.000832924 8.21557e-18)
(0.00207785 0.000405734 4.92496e-17)
(-0.000720594 0.000373957 -5.87422e-18)
(-0.000109427 -0.00127237 9.32535e-19)
(0.0035458 0.00252332 7.25268e-18)
(0.00716693 0.000822972 3.56913e-17)
(-0.00164827 0.000576774 -6.15041e-17)
(-0.00296478 -0.00078328 5.48313e-19)
(-0.000640033 0.000138554 7.12822e-18)
(-0.0123285 -0.017099 -2.57912e-18)
(-0.00261592 -0.000531283 2.82157e-17)
(-0.00112919 0.000152239 7.93274e-18)
(-0.000202067 -0.000729422 1.29992e-17)
(-0.0011891 0.000224857 -1.70092e-17)
(0.00290938 0.00161173 2.65412e-17)
(-0.0012001 -0.000496293 -4.89095e-18)
(-0.000506358 -0.00114451 -1.05897e-17)
(-0.00377618 0.000700307 -1.34911e-17)
(0.00199453 0.00309804 5.2217e-17)
(-8.88207e-05 0.000277908 -2.13853e-18)
(-0.000946655 0.000108525 -1.38921e-17)
(-0.000747556 0.000723489 -1.76888e-18)
(-0.000781124 -0.000887453 -5.60923e-18)
(-0.00049821 0.000195018 1.79016e-19)
(-0.00179602 -0.000465389 -5.42251e-18)
(0.014501 0.00163838 -2.01182e-19)
(-0.000251989 0.000317301 -4.41422e-18)
(-0.00135205 -0.00108188 -4.90396e-19)
(-0.00111742 0.00229929 7.0862e-20)
(-0.00077059 0.000179699 -9.70364e-18)
(0.00429976 0.00577526 -3.61444e-17)
(-0.000709128 -0.00125311 3.74326e-18)
(0.0107715 0.00404869 4.69038e-17)
(-0.00083651 0.00025495 -7.40416e-18)
(-0.000319907 -0.00148252 1.69349e-17)
(0.000712835 9.80033e-05 -1.46023e-18)
(-0.00350911 -0.0017152 -5.99551e-18)
(-0.00166893 0.000311631 -1.24956e-17)
(-0.00880493 -0.000682413 4.05608e-18)
(0.0120147 0.000660874 6.41369e-19)
(-0.00897635 -0.00284087 1.80161e-17)
(-0.000325371 0.000270486 2.98922e-18)
(-0.00128195 -7.31506e-05 -6.16952e-18)
(-0.00114795 0.000310183 -1.51606e-18)
(-0.000145622 -0.00134571 3.38196e-18)
(-0.000582137 1.97682e-05 -3.64326e-18)
(-0.00219999 0.000216065 2.70207e-20)
(0.00846572 0.0100872 -8.98119e-18)
(0.000911358 -0.0180228 2.91531e-17)
(-0.00080931 0.000197939 -1.53512e-18)
(-0.00379424 0.000539089 2.09177e-17)
(0.00509309 -0.0107935 -1.71786e-17)
(0.0038026 0.00178552 -5.67893e-17)
(-0.000687488 -3.47371e-05 -2.54225e-18)
(-0.0031305 -4.72293e-05 -6.32862e-17)
(0.000789132 0.0049856 -1.1715e-17)
(-0.00810028 0.000135249 5.78906e-17)
(-0.00065741 0.000520903 -9.08696e-19)
(0.0124844 -0.00524705 -2.29601e-17)
(-0.000188469 0.000281127 -8.07336e-19)
(-0.000461809 6.13574e-06 3.16283e-19)
(0.00308358 -0.00070698 -2.09892e-17)
(0.00226229 -0.0131453 -9.81263e-20)
(-0.000109995 0.000170821 2.85075e-18)
(-0.000824643 6.63973e-05 4.53942e-18)
(-0.00141486 -0.00108804 -1.15598e-18)
(-0.000701244 5.14177e-05 -1.40436e-20)
(0.00678547 0.0113548 -1.19733e-17)
(-0.00216729 0.000628073 3.28324e-17)
(-0.00325012 -0.000759819 -1.54331e-17)
(-0.000842047 -0.000337867 -5.5865e-18)
(-0.000640657 0.000132274 -4.59147e-18)
(-2.53784e-05 0.000427944 -6.94536e-18)
(0.00201982 0.00536506 -6.42137e-18)
(-0.000434122 0.000256786 -7.02516e-19)
(-1.26983e-05 0.000414167 6.84795e-18)
(-0.00291086 -0.00299313 2.14799e-19)
(0.013192 0.00306705 -5.04065e-18)
(-0.000582361 0.0003912 1.62921e-19)
(0.00190062 0.00121469 -7.47574e-18)
(-8.46387e-06 0.000205209 1.15937e-18)
(-0.000309427 8.49445e-05 -1.21234e-18)
(-0.000778904 0.000190342 2.18192e-18)
(-0.00352252 0.000390269 2.10432e-17)
(-0.000614182 -0.0012303 -8.29931e-18)
(-0.000450193 0.000205952 -1.59569e-18)
(-0.000690568 0.000103272 6.23575e-18)
(-0.00176062 0.00157568 -1.09179e-17)
(-0.000747783 -1.12048e-05 1.16357e-17)
(0.0028082 0.0115761 8.59925e-17)
(-0.000307867 9.41679e-05 -1.56457e-20)
(-0.000750726 -0.000597252 -3.94002e-18)
(0.000775237 -0.00185916 4.60979e-18)
(-0.000434405 0.000730248 -1.33154e-18)
(-0.00103965 -6.34002e-06 -3.41592e-19)
(-0.000226213 0.000134138 -2.99322e-18)
(-0.000836721 -0.000314601 9.48109e-18)
(-0.000628395 -6.82867e-05 1.28884e-18)
(-0.00731103 0.00370998 1.12407e-17)
(-0.000452416 -0.00483538 -7.44208e-19)
(-0.00129525 -2.08019e-05 -3.29004e-18)
(-0.000532264 0.00172592 1.00485e-17)
(-0.000794458 0.000184919 6.47172e-18)
(-0.000260243 0.000105581 5.77722e-18)
(0.0130545 -0.00157033 -3.38589e-18)
(0.00453023 0.00239061 1.74111e-18)
(-0.000272919 0.000762933 3.59815e-17)
(-0.000322612 0.000344689 -1.5125e-18)
(0.0125747 0.00135155 -1.07952e-17)
(-0.000202628 0.000762657 6.77123e-18)
(0.00522573 0.00164345 -8.14065e-17)
(-0.000299746 0.00036573 5.68111e-18)
(-0.000923799 0.000424003 1.04797e-17)
(-0.00176815 0.000341546 6.39602e-17)
(-0.000951373 -0.000869194 9.17516e-18)
(0.0122498 0.00221224 -2.74821e-17)
(0.00673949 -0.0102784 2.02832e-17)
(0.000695474 -0.0175184 -2.97414e-17)
(-0.000351957 0.000489193 -2.16582e-18)
(0.00103653 0.00309541 -2.92908e-17)
(-0.000346993 0.000278036 -3.06472e-18)
(-0.000403603 -0.00338839 -1.3312e-17)
(-0.000742611 -0.00123827 -8.3798e-18)
(-0.00387525 -0.00355677 -4.99037e-17)
(-0.00114824 0.000280324 4.7189e-18)
(-0.000540118 0.000346719 -1.49962e-19)
(-0.000456266 0.000699578 -1.20165e-17)
(-0.00200062 0.000585822 -5.73933e-18)
(-0.000529653 7.11695e-06 2.39502e-19)
(0.00494897 -0.000887328 6.61774e-17)
(0.0130874 -0.00111644 -1.37358e-17)
(0.00127032 0.0127852 2.07417e-17)
(0.000178794 -0.00250282 4.26366e-17)
(-0.00150677 -0.00373655 5.06108e-18)
(-0.00250101 -0.00210311 1.79293e-17)
(-0.00474156 -0.00174289 3.95446e-17)
(-0.000242423 0.000657057 1.12163e-17)
(-0.000103869 0.000109405 1.46561e-18)
(0.0100383 0.001968 8.61183e-18)
(-7.60599e-05 0.000162554 3.23634e-18)
(-0.00046059 0.000192194 5.36591e-19)
(-0.000264734 0.000681475 1.67768e-17)
(-0.000715961 0.00514047 5.90767e-17)
(-0.000803627 -3.05969e-05 1.03928e-17)
(-0.000238817 0.000500217 -7.0177e-18)
(-0.00112856 0.000885327 6.86985e-18)
(-0.00134387 0.000652652 -2.37833e-17)
(-2.74704e-05 0.000176342 1.3935e-17)
(-0.00117375 -0.0041623 1.9035e-17)
(-0.000409398 0.000219769 -2.87557e-19)
(0.0126365 0.00208473 3.20368e-18)
(-0.00721181 0.0027484 3.30681e-17)
(-0.0003751 0.000165088 4.76114e-18)
(-0.000718682 -0.000152196 -6.09821e-19)
(-0.00311017 0.00481392 2.43475e-17)
(0.00196486 0.0109572 2.06103e-17)
(-0.000608562 3.74614e-06 1.04373e-18)
(0.0162904 0.0171775 -1.47466e-17)
(0.0160011 0.000484826 -2.33806e-17)
(-0.00063369 -9.5959e-05 2.47829e-18)
(0.00437628 -0.00359789 5.59212e-17)
(-0.00880272 -0.000884055 -5.20378e-17)
(-0.00435915 -0.000166338 -1.06623e-17)
(-0.000346581 0.000490194 -5.37234e-19)
(-0.00358841 -0.00155585 -6.27933e-18)
(0.00626095 0.00118905 -2.55025e-17)
(-0.000591765 -9.58956e-05 -4.0418e-18)
(0.00281653 0.00921266 -4.28907e-17)
(-0.000492145 0.000221179 2.19367e-19)
(-0.000403462 0.000221917 2.71169e-18)
(-0.00298878 -0.00941364 -4.49329e-18)
(0.00299146 0.00148953 1.64627e-17)
(-0.00126394 0.000421649 -6.66995e-18)
(-0.000595126 -0.00120956 1.1743e-17)
(-6.44078e-05 0.000167695 -8.57283e-18)
(-0.000670249 -0.0015608 -4.2506e-19)
(0.0119016 0.00321699 -1.58514e-17)
(-0.00688097 0.00125286 8.95152e-17)
(-0.000592551 -5.90568e-05 -2.93577e-19)
(0.000535782 -0.000195315 -6.6484e-17)
(-0.000481658 0.000207776 1.02353e-18)
(-0.000499262 0.000214758 -3.55311e-19)
(-0.00172302 0.000292557 9.05617e-18)
(-0.000638684 -0.000673366 6.91153e-18)
(-0.000672418 -4.25638e-05 2.37018e-18)
(-0.000530407 0.000349625 -5.34234e-19)
(0.00344547 -0.0051139 8.79879e-17)
(0.00129727 0.0030515 1.10597e-17)
(0.00362205 -0.00409343 -4.83268e-17)
(-0.000783425 -2.22742e-05 8.50045e-19)
(-0.000184454 0.000171078 -4.57193e-18)
(0.00293757 -0.00642329 3.49726e-18)
(-0.000172249 0.000150823 4.21459e-18)
(-0.000758597 -0.00031159 -2.1394e-17)
(-0.00085799 -0.00047954 1.46499e-17)
(-0.000863101 -0.000823189 6.95676e-18)
(-0.00124814 8.4059e-05 -4.17933e-18)
(0.000362521 -0.00222958 -2.08065e-18)
(0.00351776 0.000501401 1.02237e-17)
(-0.000912689 0.000146628 -9.42196e-18)
(-0.00246452 -0.000810799 2.39369e-17)
(-0.000654757 -0.000275178 -1.29124e-18)
(-0.00173007 0.000988686 -3.72127e-18)
(0.00108053 -0.00345281 8.16204e-18)
(0.00365549 -0.00144318 2.29775e-18)
(-0.000471157 0.000275988 -5.23768e-19)
(-0.000312153 0.000278937 -1.07623e-18)
(-0.000255031 0.000884151 -1.77082e-17)
(0.00263077 -0.00486348 -9.09494e-17)
(-0.00190317 -0.00305429 -2.80744e-17)
(-0.000638633 -0.00152393 -1.81325e-18)
(0.00520724 0.00162088 2.36709e-17)
(-0.000624567 -0.000691226 -9.19123e-18)
(-0.00115034 -0.000518083 1.39804e-17)
(0.00530664 0.0105192 1.56775e-17)
(0.000320231 -0.0100573 -8.18722e-18)
(-0.00136161 0.001387 9.59961e-19)
(0.012837 0.00136828 -1.31059e-18)
(-0.000640744 -0.00729078 -1.45158e-17)
(-0.00194136 -0.00535928 2.5531e-18)
(-0.000615428 0.000126931 -3.29639e-18)
(-0.000168426 0.00444658 2.13965e-17)
(-0.00331408 -0.00434166 2.32437e-17)
(-0.000260423 0.000126043 -3.77559e-19)
(-0.00785846 0.000255949 9.65767e-18)
(0.0118843 0.0121247 -3.80584e-17)
(-0.000605288 0.000494103 3.44367e-19)
(-0.00164354 -0.000804573 1.10715e-17)
(-0.00038863 0.000335432 -2.03425e-18)
(-0.00115568 0.00142672 2.9398e-18)
(-0.000607031 0.000414579 -2.34691e-18)
(0.0141951 0.00818353 -8.9224e-17)
(-0.0004437 0.000261947 2.9527e-18)
(-0.000333177 9.37741e-06 5.68392e-19)
(-0.000157048 0.000646042 1.91506e-18)
(-0.00129701 0.000641576 6.47581e-18)
(-0.000363663 9.27858e-05 9.18654e-19)
(-0.00132322 0.00473604 -5.35969e-17)
(-0.000346633 1.128e-05 -7.6957e-19)
(-0.00127548 -0.00694992 8.80749e-18)
(-0.000312897 0.000507297 -7.98412e-18)
(-0.000104001 -0.0013914 -3.40703e-18)
(-0.000295115 0.000359315 9.46056e-18)
(-2.78946e-05 0.000181647 -5.87175e-18)
(-0.000712146 0.00054718 -1.02003e-17)
(0.000473557 -0.000333869 -4.75609e-17)
(-0.00159617 0.000415003 -1.32553e-18)
(-0.00492477 0.00336751 5.36277e-18)
(-0.00090832 0.000438884 -8.50114e-18)
(-0.000599692 5.86267e-05 2.18577e-20)
(-0.000589493 4.25859e-06 -4.6978e-18)
(-0.00188513 0.00071679 3.06214e-18)
(-0.000679803 0.000108162 -2.14772e-18)
(-0.000851736 0.00185869 -5.35839e-17)
(-0.000839599 -7.81948e-06 -3.82282e-18)
(-0.000262586 0.000749958 -3.24888e-17)
(-0.000607029 0.00297117 -1.43641e-18)
(-9.51351e-05 0.000154381 -2.38291e-19)
(-0.0103516 -0.000360993 -3.53423e-18)
(-6.74086e-05 2.22566e-05 -2.44319e-18)
(0.000416545 -0.00132813 6.78501e-18)
(-0.002103 -0.00123708 1.26828e-17)
(-0.00091609 -0.00158103 8.44749e-18)
(-7.9419e-05 0.000696893 -9.1648e-19)
(0.0160793 0.00654199 7.88498e-17)
(-0.00105654 0.000919124 -5.14919e-18)
(-0.000102046 -0.00223397 1.09021e-17)
(0.0133237 0.0106858 2.6511e-17)
(-0.000602413 -5.49325e-05 4.69435e-18)
(-0.00203489 -0.00496265 -2.17141e-17)
(-0.00037969 0.000638344 1.16099e-17)
(-0.00116073 0.000169346 2.01453e-18)
(-0.000500368 -0.00316157 -4.21241e-17)
(0.0160177 0.0178844 1.45416e-18)
(-0.000667674 4.0452e-07 4.06416e-19)
(-0.000833048 0.0017104 4.67752e-17)
(-0.000620317 -4.98693e-05 -8.70766e-19)
(-0.00290483 -0.00474523 -9.44407e-20)
(-0.00663103 0.000721753 -2.84045e-17)
(-0.000518826 0.000185527 -1.84258e-19)
(-0.000164599 0.000982723 -3.98789e-17)
(0.00251962 0.0113711 8.88877e-18)
(-3.8998e-05 2.13863e-05 1.60066e-18)
(-4.22275e-05 3.28609e-05 -3.22755e-18)
(-0.000208492 -0.0014939 3.00883e-17)
(-0.0102921 -0.000290468 3.58995e-18)
(-0.00356378 0.000483586 1.06939e-17)
(-9.59879e-05 0.000440159 1.84513e-18)
(-0.00389113 0.00107714 -2.94348e-17)
(-0.000744305 -9.01327e-06 4.06216e-18)
(-4.80262e-05 0.000197141 -1.00997e-17)
(-0.00226671 0.00153778 -1.01125e-17)
(-0.0039549 0.000868564 2.05872e-17)
(0.000757607 0.00113545 2.28583e-17)
(-0.000738519 -3.17817e-05 1.18292e-19)
(0.000130497 -0.00264098 3.70287e-18)
(-0.000426364 0.00086382 3.55953e-18)
(-0.000381822 -0.00140292 1.75913e-18)
(-8.55615e-05 0.000539355 -1.26152e-17)
(-0.000466966 0.000363451 -1.36848e-18)
(-0.000658518 0.00043598 2.76219e-18)
(-0.000161334 0.000635309 -3.26756e-18)
(0.000347886 -0.00241497 7.29213e-18)
(-0.00189475 -0.000333033 -1.59797e-17)
(-0.00190296 -0.000184874 -4.91722e-19)
(-0.00125184 0.00125786 4.41988e-18)
(0.000966121 0.00430041 4.97128e-17)
(-0.00989984 0.0012883 -2.52012e-17)
(0.000950818 -0.0133619 7.47581e-18)
(0.0191729 0.0170052 6.05491e-17)
(0.000394951 -0.00214546 -1.39388e-18)
(0.0100439 -0.00182305 2.10764e-18)
(-0.000648718 0.000639497 -8.43871e-19)
(-0.00233839 -0.00923481 4.48963e-18)
(-0.00467181 -0.00023695 -6.96325e-18)
(-0.000596451 3.16924e-05 1.3609e-18)
(-0.00112294 -0.000490397 1.46092e-18)
(-0.00847381 0.001683 -9.35312e-18)
(-0.000669996 0.000385971 -5.77878e-18)
(-0.00038074 0.0001442 -2.33334e-18)
(-0.000385429 0.000133122 -3.60842e-18)
(0.000371812 -0.00153344 6.10154e-18)
(-0.00348448 -0.000654733 -9.68211e-18)
(-0.000773111 -0.000599464 5.73283e-18)
(0.00263497 0.00206836 3.96368e-18)
(-0.000615529 6.48308e-05 -1.25944e-20)
(-0.00430041 0.00116554 -6.65124e-18)
(-0.000668975 0.00143135 -2.70562e-18)
(2.08133e-05 0.000565332 7.59045e-18)
(-0.000704991 0.00157955 -1.06913e-17)
(-0.000855213 0.000258054 6.88768e-18)
(-0.000821841 2.0057e-05 3.27455e-18)
(-0.000252127 0.000865643 2.13689e-17)
(0.000626994 0.00142566 -1.26487e-17)
(-0.000638123 0.000622359 -1.37822e-18)
(0.0042585 -0.0128605 6.77118e-18)
(-0.000639263 0.00012 -2.54201e-18)
(0.00471409 0.00317013 -1.77076e-17)
(0.000452798 -0.00146823 -8.98566e-18)
(-0.00212595 -0.00719852 3.15177e-18)
(-0.00105037 0.000366839 6.82701e-18)
(-0.0015071 0.00843899 -4.35423e-18)
(-0.000189588 0.000273923 6.56381e-18)
(-5.85663e-05 2.88871e-05 1.14066e-18)
(-8.66782e-05 0.00058585 -6.06316e-18)
(-5.25471e-05 0.000206823 1.09654e-17)
(0.00114424 -0.00287466 6.28306e-19)
(-0.00074504 3.85004e-06 -4.99312e-19)
(-0.00296309 0.000373413 8.51317e-18)
(0.00404849 -0.00612035 -1.67322e-17)
(-0.000565208 0.00155053 8.86969e-18)
(-0.00633185 0.00252653 1.77645e-17)
(0.00237897 0.000322195 1.80788e-17)
(-0.00282056 -0.00763262 -1.7959e-18)
(0.000594041 -0.00281022 -1.94079e-17)
(-9.70677e-05 0.000690842 2.15432e-18)
(-1.89242e-07 0.000179563 -6.6532e-18)
(-8.94187e-05 0.000332092 -1.558e-17)
(-0.000708239 -3.20218e-06 1.19674e-18)
(-0.000593384 3.57911e-06 5.01038e-18)
(-0.000377116 1.01076e-05 1.62207e-18)
(-0.00191171 0.000912201 1.18114e-17)
(-0.000758934 0.0041097 -3.08319e-17)
(-0.000432243 0.000889507 -1.71729e-19)
(0.00197366 -0.00139671 1.42082e-18)
(-0.000523461 0.000291206 -1.82838e-21)
(0.00408465 -0.00369991 -8.44391e-18)
(2.70249e-07 4.10962e-06 -7.47324e-18)
(0.00270259 0.00505203 -1.94535e-18)
(-0.000838753 0.000588906 4.24578e-18)
(-4.30621e-05 9.99314e-06 8.53941e-18)
(-1.70531e-05 0.000218774 4.15297e-18)
(-0.00086129 -0.00191061 6.1071e-18)
(-0.000894409 0.000219402 -1.28003e-17)
(-0.00751635 -0.00321431 -7.02902e-18)
(0.0152283 0.010438 1.92165e-17)
(-0.00152342 -0.00081442 -4.47231e-18)
(-0.00252927 -0.00055363 1.81408e-17)
(-0.000593745 -0.000110726 3.9451e-18)
(0.0132881 0.000691795 -1.28264e-17)
(-0.00040814 0.000470747 -9.36459e-19)
(-0.00081896 -1.58007e-05 -7.81747e-18)
(-0.00191422 0.00262034 7.10917e-19)
(-2.17402e-05 0.000178234 4.48807e-18)
(-0.000259365 0.000490342 -4.83475e-18)
(-0.000592277 1.04347e-06 -9.51865e-19)
(-0.00082906 -0.0012386 -1.00917e-17)
(-0.00151599 -0.000590538 -2.10736e-17)
(-0.000880926 0.000379872 -4.82654e-18)
(-0.00109265 0.000334227 -1.51567e-17)
(0.001957 0.0051115 1.13224e-17)
(-0.00722253 0.000675839 -6.33993e-17)