/*--------------------------------*- C++ -*----------------------------------*\
| =========                 |                                                 |
| \\      /  F ield         | OpenFOAM: The Open Source CFD Toolbox           |
|  \\    /   O peration     | Version:  v2012                                 |
|   \\  /    A nd           | Website:  www.openfoam.com                      |
|    \\/     M anipulation  |                                                 |
\*---------------------------------------------------------------------------*/
FoamFile
{
    version     2.0;
    format      ascii;
    class       surfaceScalarField;
    location    "750";
    object      phi;
}
// * * * * * * * * * * * * * * * * * * * * * * * * * * * * * * * * * * * * * //

dimensions      [0 3 -1 0 0 0 0];
oriented        oriented;


internalField   nonuniform List<scalar> 
20537
(
-0.387296
0.506514
-0.119171
-0.0382374
-0.121798
0.160037
-0.18449
0.16848
0.016012
-0.0359122
-0.292795
0.328749
-0.146069
0.159605
-0.0135339
0.281197
-0.437485
0.156305
0.191684
0.208273
-0.399863
0.24359
-0.0868613
-0.156725
-0.460842
-0.0894511
0.550407
-0.0403168
0.214092
-0.173772
0.551498
-0.131468
-0.420023
0.0196895
-0.0785331
0.0588441
0.092448
0.0152412
-0.107689
0.00358419
-0.0037489
0.000164703
0.680853
-0.551147
-0.129296
0.282458
-0.291472
0.00902472
-0.0440387
0.283364
-0.239305
0.444866
-0.260697
-0.184149
-0.137223
0.141348
-0.00412479
0.0781708
-0.538896
0.339316
-0.375158
-0.0747904
-0.109698
-0.364735
0.585426
-0.220642
-0.692962
0.0983023
0.594843
-0.550313
0.185628
0.218387
0.0252081
-0.0834608
-0.184024
0.2675
-0.00343322
-0.00170562
-0.00631756
-0.38093
0.221465
-0.355162
0.13373
0.436691
-0.155478
0.233594
-0.277615
-0.0159797
0.184462
0.439132
-0.476594
0.0374668
-0.605065
-0.0877052
0.106542
-0.120648
0.0141061
-0.00260151
0.0843637
-0.0817621
0.199644
-0.125377
-0.0742668
0.134826
-0.175141
0.0312913
0.407847
0.0352738
0.344046
-0.379216
0.490086
-0.664022
0.173954
-0.00432991
0.00137216
0.00295775
0.392494
-0.566326
0.173835
0.556712
-0.164215
-0.00103763
-0.0126457
0.0136834
-0.549608
0.174213
0.375396
0.183756
-0.428376
0.244624
0.175643
-0.25909
0.313037
0.221204
-0.534213
0.159179
-0.0180078
-0.14117
0.142056
-0.0723678
-0.0696878
-0.00173367
0.000636814
0.00109685
-0.740367
0.376421
0.364338
0.660725
-0.541624
-0.118723
0.66305
-0.172947
0.654261
-0.295842
-0.358314
0.00334091
-0.00567805
0.00233715
-0.192087
0.41359
0.2907
0.0894037
-0.380019
0.0459097
0.153735
0.0578687
-0.0818777
0.0240092
-0.400936
0.31033
0.090621
-0.139117
0.126793
0.0123244
-0.121458
0.329258
-0.207794
-0.441754
0.132498
0.30929
0.0642654
-0.0668668
-0.563263
0.212909
-0.210522
0.214714
-0.00418627
0.188773
0.256114
0.0303777
-0.0369624
0.00658476
0.0838107
-0.0756677
-0.00814298
0.125278
-0.163515
-0.292239
-0.447672
0.280971
-0.589091
0.308453
-0.527624
0.43794
0.0897601
-0.1341
0.0593109
-0.0410134
0.00228902
0.0387244
-0.00120139
-0.172511
0.173715
0.0368088
-0.00362414
-0.165984
0.431903
-0.265854
0.556822
-0.0154982
-0.541324
-0.441349
-0.0448504
0.486391
0.00773725
-0.00213578
-0.00560146
-0.333073
-0.0678486
0.0677971
-0.0481071
0.455901
-0.143988
-0.311892
-0.00184182
0.130789
-0.128946
-0.264943
0.323456
-0.0584975
-0.3542
-0.254649
0.608901
0.0191013
0.0874411
-0.0777127
-0.322642
0.400385
-0.249313
-0.0929738
0.252233
-0.159251
-0.0326094
-0.232316
0.564458
-0.553057
-0.0112945
0.0274724
-0.17354
0.0112313
0.0469851
-0.0582163
-0.176134
0.489195
-0.0249644
0.589548
0.0104376
0.00276543
-0.013203
0.17287
-0.16988
-0.00298762
0.065405
-0.379445
0.314094
0.263846
-0.0128749
-0.457133
-0.0990832
0.556226
-0.47596
0.375649
0.100332
-0.177763
0.174185
0.00357963
0.524352
-0.681867
0.157528
0.0700759
0.00950348
-0.137855
-0.299613
-0.542522
-0.019737
0.562388
0.280458
-0.634605
0.31656
-0.394242
-0.653757
0.653933
-0.0716486
-0.470735
0.327276
-0.112052
-0.0684342
0.0796655
0.0718734
-0.471561
0.399705
-0.576334
0.57916
-0.00255456
-0.192772
0.56666
-0.373565
-0.00434181
1.18994e-05
0.238608
0.0252542
0.100085
-0.00763652
0.190069
0.419501
-0.235736
-0.764469
0.344741
0.419751
0.202081
0.217428
0.156239
-0.185323
0.0290861
0.0180852
0.321287
0.166958
-0.0789968
-0.0879608
0.422929
-0.387529
0.557471
-0.158548
-0.398742
0.0387445
-0.00836679
-0.553853
0.112708
0.230328
-0.573911
0.610372
-0.0362421
0.555156
-0.48326
-0.0695026
0.0845947
-0.0150921
-0.0188922
-0.00456035
0.0234526
-0.027975
-0.00295207
0.030927
0.0145437
-0.00410615
0.381202
0.279934
0.15368
-0.559909
0.40629
0.719698
-0.383961
-0.335717
0.412188
-0.0807418
-0.331417
-0.148414
-0.417909
-0.427372
0.611767
-0.18439
0.0387198
0.128239
-0.27435
0.466152
0.127004
0.42971
-0.00555729
0.126509
-0.427
0.620324
-0.192982
0.00754064
-0.00395645
0.310199
0.344154
0.36536
-0.205357
-0.15998
0.308924
0.103296
-0.4979
0.182884
0.31513
0.241503
0.122807
-0.364276
0.0130085
0.129048
0.0029399
0.156241
-0.350151
-0.248574
0.598727
-0.0792701
0.226347
-0.14707
0.00379718
-0.000456274
0.161843
0.395793
0.282176
-0.376085
0.093933
0.641617
-0.229504
-0.41209
-0.680313
0.252944
0.00674635
-0.217264
-0.325383
0.343527
0.0573311
0.00379202
-0.0611231
0.000182706
-0.0411961
0.238985
-0.546203
0.307318
-0.169023
-0.328767
-0.00500589
-0.0229692
0.567421
-0.40541
-0.197894
-0.230476
0.181425
-0.0251836
0.532651
-0.51626
-0.016343
-0.0237129
-0.11351
-0.519877
0.666785
-0.146898
-0.270687
0.0533624
0.217338
0.0143082
-0.124994
-0.368504
0.493692
0.0472878
-0.156984
-0.362395
-0.235457
0.597856
-0.449787
0.615863
-0.166002
-0.158977
-0.282744
0.360887
-0.553325
-0.164699
0.158035
0.00666519
0.246989
0.00190776
-0.248892
-0.336699
0.000335229
-0.0020689
0.260329
-0.545029
0.284742
0.185602
-0.208165
0.0225683
0.0813776
-0.0235088
0.402527
-0.175638
-0.226861
0.538549
-0.384809
-0.147349
0.50139
-0.354034
0.468018
0.064692
-0.433201
-0.0943447
-0.300728
-0.463716
0.00240306
0.0363755
-0.0387786
-0.584153
0.0854365
0.499016
-0.540667
0.141704
0.399133
-0.0294212
0.226558
-0.197133
-0.49393
0.369124
-0.0426261
-0.027708
0.0703343
0.15262
0.137782
-0.290384
0.0495545
-0.00472897
-0.0448255
0.127029
0.44331
-0.570334
-0.0167327
-0.0516468
0.0683795
-0.363098
0.428567
-0.467783
0.154903
0.312881
0.45222
-0.634897
0.182686
-0.720867
0.43187
0.289018
0.574197
-0.208375
-0.365813
-0.138331
0.400427
-0.262079
-0.00522283
0.00418521
-0.105608
-0.415477
0.521379
0.0509032
-0.00134871
0.267181
-0.114547
0.20028
-0.366207
-0.00172929
0.0619552
-0.0602259
-0.0629923
0.140431
-0.0774382
0.00397014
0.0517113
-0.0556815
-0.599777
0.581351
0.0184962
-0.0487613
-0.189307
0.238076
-0.525975
0.0688536
-0.00386078
0.00131928
0.00254151
0.672499
-0.220274
0.219011
-0.000619727
0.334753
-0.314718
-0.0200302
-0.287484
0.526568
0.54083
-0.150672
0.142942
0.00773088
-0.049357
-0.266238
0.315606
0.0258751
-0.068501
0.136466
-0.257921
0.280471
0.439249
-0.461001
-0.079512
0.122097
0.31461
0.377712
-0.480862
0.103163
0.577259
0.0531739
-0.630432
-0.203184
0.173766
0.456555
-0.555627
0.0467606
0.00439073
-0.0511514
0.190963
-0.0180911
0.460362
-0.388613
-0.0717469
-0.397178
0.299242
0.0979658
-0.222495
-0.127369
0.349884
0.678766
-0.394544
-0.284185
0.473773
-0.0960564
-0.251991
-0.102749
0.354788
-0.0882251
-0.0326542
-0.115996
0.148652
0.41638
-0.139472
-0.276899
0.267035
-0.0200415
0.00771446
0.0768803
0.0116543
-0.025931
0.0142767
-0.184812
-0.353262
0.538308
-0.440375
-0.449384
0.361598
0.0878089
0.388615
-0.0881404
-0.30047
-0.627442
0.206249
0.421223
-0.13118
0.109773
0.0214066
0.192249
0.210302
-0.369353
0.117409
-0.206797
0.113831
0.0645662
-0.0662954
0.425257
0.135189
-0.560425
0.310551
0.368251
0.189748
0.502128
-0.144277
-0.357842
0.17509
-0.176288
0.259825
0.0226447
-0.53532
0.376947
0.655155
-0.0983321
0.588798
-0.20455
-0.384236
0.00141635
0.0534036
-0.0548199
0.0779731
0.473531
0.0290317
0.548226
0.0791645
-0.557427
0.478271
-0.502783
0.599026
-0.0962356
-0.149
0.116347
-0.0269806
0.415601
0.372089
-0.222881
-0.149206
0.0277347
0.458847
-0.486479
-0.388855
0.500939
-0.11178
0.122007
0.38013
-0.721592
0.334524
0.387066
0.141086
-0.102365
0.143844
-0.3359
-0.0998483
0.390619
-0.217459
0.213997
0.00346678
-0.437165
-0.284429
-0.0333373
-0.097842
0.0766584
0.16862
-0.245266
0.080657
-0.0128595
0.438817
-0.571367
0.132703
0.0542092
-0.00744854
0.103245
-0.182508
0.0765147
0.206868
-0.0160806
-0.0454823
0.0615629
-0.151927
0.371554
-0.219559
-0.347271
-0.128669
-0.0593898
0.0520353
0.00735456
0.480356
-0.452504
-0.0170814
-0.14158
0.158664
0.225538
0.0267052
-0.2319
0.375776
0.0188872
-0.0377793
0.228796
-0.152125
0.385214
-0.365502
-0.0196621
0.0640915
-0.0773238
0.0132323
0.651639
-0.257075
-0.394544
0.0590089
-0.28149
0.724207
-0.361886
-0.3623
-0.0644411
0.0658574
0.118098
-0.0131939
-0.104904
-0.510341
0.405005
-0.187456
0.0463086
0.14115
-0.268578
0.495247
-0.226377
0.0439319
-0.0322776
-0.00146734
0.469393
-0.46789
-0.45576
0.644377
-0.188558
0.612551
-0.246513
-0.36596
0.119653
-0.00155518
0.198076
-0.246829
-0.326789
0.0775759
0.249236
0.10571
-0.3738
0.221951
0.332116
0.0531563
0.474807
-0.606269
0.00836749
-0.00224066
-0.060708
-0.0109067
0.0716147
0.0688434
-0.381399
0.312577
0.058109
-0.0741895
0.00448308
-0.0856673
0.0811845
0.388986
-0.0182808
0.203887
0.123994
0.0170922
0.541213
-0.338742
-0.202446
0.0566656
0.218898
-0.275553
-0.000651612
0.110516
-0.109864
0.108011
-0.240888
0.523588
-0.28266
0.254958
0.0375996
-0.292555
-0.00631764
-0.0504363
0.0567539
0.038322
-0.589054
0.648533
-0.08099
-0.567529
0.1767
0.471847
0.171223
-0.0386831
-0.132539
-0.114291
-0.212475
-0.20379
0.260463
-0.00017738
-0.0036834
-0.494449
0.32553
-0.0756463
0.330605
0.355614
0.257014
-0.505883
0.237632
-0.112682
0.569246
-0.0539716
0.578335
-0.178244
0.553254
-0.374878
0.0550755
-0.0613931
0.5991
-0.280233
-0.31886
0.322575
-0.444377
0.121911
0.174673
-0.191751
-0.655255
0.360584
0.294691
0.0553319
0.0253257
-0.307632
0.241627
0.066013
0.241707
-0.3615
0.0679165
-0.0105853
-0.114192
0.43687
-0.245345
0.10702
-0.0291938
-0.198308
0.227512
-0.205553
0.447262
0.0780361
-0.445393
0.367488
0.159665
-0.631209
0.203646
0.222654
-0.426269
0.0092604
-0.000875797
-0.00838461
0.64223
-0.022882
0.0417693
0.2186
-0.0996491
0.0989978
-0.0553189
0.0591109
-0.679039
0.179054
0.499995
-0.179991
-0.499038
-0.0293727
-0.336656
0.366065
0.6332
-0.151911
-0.481133
0.52045
-0.533301
0.0132676
0.387378
-0.318511
-0.0857921
-0.101663
0.00220556
-0.00595448
-0.253432
0.212803
0.0406325
-0.0625109
0.0664811
0.0610545
-0.010048
-0.0510065
-0.397454
-0.257787
0.239036
-0.423657
0.00720846
0.00994971
-0.0382057
0.0282559
0.0668156
0.267942
-0.0681093
-0.000324846
0.457853
-0.254177
-0.214486
0.185301
0.502592
-0.535896
0.0334034
-0.0987367
0.10322
-0.439517
0.516845
-0.0772329
-0.110864
-0.180601
0.368317
-0.397649
-0.447877
0.347217
0.100764
0.0534515
0.0891353
0.391327
0.318303
0.323331
-0.120393
-0.018723
0.254894
0.0536383
-0.308523
-0.023962
-0.0173259
0.0412878
0.361421
-0.00151617
-0.359879
-0.131452
-0.448798
0.0383675
0.410454
0.322318
0.151459
-0.332759
0.0895413
0.243235
0.166242
0.0049817
0.287091
-0.210557
0.17867
0.395536
0.121778
0.433398
0.495162
-0.405915
0.0932692
-0.54298
0.140528
-0.155013
0.0144851
0.0558199
-0.460697
0.404878
0.124108
-0.117134
-0.00697317
-0.0665723
-0.382203
0.01997
-0.204187
-0.272402
0.108652
0.140028
-0.0575063
-0.0931649
0.442779
-0.364605
0.425163
-0.102832
0.659678
-0.499701
-0.159959
-0.15109
0.0108243
0.140266
-0.209255
0.452025
-0.24276
0.00226558
0.178954
-0.181217
-0.0376029
-0.00451666
0.0421196
0.588505
-0.120427
-0.628809
0.249838
0.378982
-0.524428
0.315179
2.83697e-05
-0.000544618
0.306113
-0.668504
-0.228379
0.223678
0.00470839
0.00891676
0.553074
-0.1278
-0.490632
0.5444
-0.0536698
-0.403349
0.10027
0.303135
0.12502
0.0270145
-0.0993819
0.0631307
-0.360249
0.297138
0.101454
-0.0894528
-0.0120015
-0.5473
-0.0524035
-0.565678
0.319236
0.00148912
0.00251298
-0.0040021
-0.0703934
0.352588
-0.457802
0.53697
0.105339
-0.107179
0.467923
0.165426
0.213759
-0.153736
-0.380241
0.534088
0.111559
0.200966
-0.312513
-0.119923
-0.251575
0.371535
-0.430391
0.467704
0.120859
-0.0132682
0.0773598
0.385316
-0.430007
0.200174
-0.196
-0.00416976
-0.0774717
-0.496225
0.261928
-0.374198
0.112296
-0.599868
0.227454
0.372423
0.565138
-0.56496
0.517126
-0.149321
-0.36771
-0.55528
0.135121
0.518974
-0.115083
0.378687
-0.263598
0.266428
0.103857
-0.370228
0.327599
-0.471568
0.111235
-0.479542
-0.166243
0.66893
6.50542e-05
0.0127707
-0.0128358
0.00243035
-0.0400333
0.136208
0.32781
-0.463857
0.392741
-0.130784
-0.291199
-0.0415445
-0.28817
-0.192681
0.0100627
-0.00232546
-0.361816
-0.203801
0.244699
0.354407
-0.0666447
-0.378621
-0.153092
0.00561322
0.14748
-0.339177
-0.0593857
0.398653
-0.00573077
0.00427108
0.00145969
-0.1327
0.544723
-0.412003
-6.89942e-05
0.000705809
-0.250831
0.255951
-0.00511535
-0.212652
-0.451352
0.216396
0.176375
0.0666722
-0.0245909
-0.0420813
0.21127
0.00774587
-0.472977
0.471188
0.00179006
-0.522204
-0.0538694
0.283153
-0.424899
0.141749
-0.576374
0.0351475
-0.167047
0.579443
-0.412248
-0.579908
0.184371
0.395693
-0.449088
0.344385
0.104812
0.0438891
-0.0339393
-0.153256
0.152334
0.000923306
0.123188
-0.0189101
-0.104278
0.0942393
-0.0862677
-0.00797138
0.0673712
0.327934
-0.678083
-0.0998115
-0.0121986
0.11201
0.472839
-0.417015
-0.0554618
-0.215212
0.00775141
0.218603
-0.494491
0.206335
-0.257621
0.447689
-0.0808598
0.0641272
-0.519918
-0.0110531
0.531388
-0.00257129
-0.00315947
-0.00258304
0.0193521
-0.016949
-0.147274
-0.136864
0.353283
0.535047
-0.234954
-0.422873
-0.205926
0.349021
0.067369
0.314134
-0.461482
-0.144067
0.0178544
0.126213
0.356255
-0.114719
-0.115574
-0.0284918
0.0733985
-0.00391263
-0.0694859
-0.537063
0.404383
0.165937
-0.150315
0.00410916
-0.0362003
0.0320912
0.380431
-0.0811614
0.340415
0.167655
-0.507857
-0.36
0.543005
0.344096
0.114734
-0.458721
-0.012122
-0.152576
0.262283
0.0487871
-0.311059
0.000975426
0.129815
0.0876138
0.0138407
-0.440449
0.598406
-0.157793
0.00425731
-0.00276819
0.00129934
-0.0422892
0.0409899
0.469656
-0.390652
-0.0789869
0.0944309
0.378411
0.206925
0.579141
-0.477729
-0.101411
0.405818
0.481305
0.0523482
-0.533653
-0.111237
0.0114258
-0.226821
0.0214807
0.113625
-0.115207
0.00158256
-0.0810003
0.0969575
-0.015957
0.210873
0.452193
-0.384936
0.427707
-0.0427503
-0.192305
0.41176
-0.219452
-0.203557
0.164875
-0.138392
0.141587
-0.00319527
0.00513428
0.0387548
-0.00340751
0.0721863
-0.0687787
0.356403
-0.101607
-0.346166
-0.104863
0.134171
-0.0293079
0.00166466
-0.0924997
-0.00953398
0.102034
-0.119526
-0.133902
0.388086
-0.0777423
-0.573835
0.321359
0.190797
-0.511965
-0.133235
0.694265
-0.483377
0.291354
0.0891053
0.181191
0.485604
-0.158376
-0.399528
0.558116
0.0786314
-0.00523282
0.154266
-0.471442
0.404897
0.294329
0.39995
0.0286834
-0.0515653
0.385188
0.116208
0.632218
-0.180843
-0.451226
-0.416611
0.565019
-0.148328
-0.0909819
-0.536431
0.559216
0.00490996
0.00435043
0.350906
0.109456
-0.116874
-0.00340883
0.022761
0.41992
-0.136765
-0.0461443
-0.163745
0.209894
-0.0289397
0.0330489
-0.0360618
0.0313328
0.149551
-0.390406
0.0229505
0.191768
0.0610514
0.518091
0.4235
-0.238192
0.0172589
0.220941
0.00686392
-0.0850635
0.0781997
-0.292737
0.330341
-0.00137487
0.115
-0.27628
0.0366586
0.23963
0.0768231
-0.477572
0.400863
-0.319901
0.247936
0.071975
0.119952
-0.521614
0.401714
-0.00618857
-0.466787
0.131674
-0.139589
0.00791576
-0.377873
0.489317
-0.317718
-0.06366
0.0201697
-0.510701
0.148922
-0.226621
0.0777071
0.114888
0.00922014
0.410504
-0.321006
0.0960734
0.346832
-0.117495
-0.19013
0.0561872
-0.317038
0.260921
0.147484
0.148013
-0.00748405
0.0418621
-0.104854
-0.30876
0.0704103
0.238361
0.0109417
-0.103441
0.470321
-0.393384
0.0736516
-0.340731
0.267088
-0.395981
0.00476238
-0.0081712
0.12511
-0.488137
-0.634427
0.290791
0.343764
-0.00116983
0.0712457
-0.217608
0.427376
-0.209734
-0.0116335
-0.0436854
0.05036
-0.0528044
0.00244443
0.00363953
-0.00209761
-0.00154191
-0.0171521
0.122492
0.078094
-0.517519
-0.0768375
-0.457044
0.486077
0.344472
-0.539648
0.195375
0.12259
0.42215
0.385381
-0.543549
-0.610353
0.264557
0.345796
-0.0153311
0.376774
-0.23886
0.350432
0.701917
-0.407575
-0.0919202
-0.00762916
0.0995497
0.016208
0.00917157
-0.101092
0.155932
-0.544316
0.388503
0.137644
-0.557695
0.420062
0.627479
-0.145763
-0.481677
0.00565108
0.118343
-0.0189759
-0.0607476
0.0797236
0.104546
-0.146767
0.042222
-0.0578675
0.132572
-0.589613
-0.453241
-0.0825694
-0.135013
-0.456604
0.591787
-0.262499
0.428721
-0.166148
0.0594716
-0.080789
0.0213175
0.0748773
-0.0413246
-0.0335526
-0.258533
0.314795
0.239858
0.462072
-0.130955
-0.318028
-0.471461
0.209074
0.146804
-0.155336
0.0085326
0.00171736
0.00174116
-0.00345853
-0.0600661
0.0614777
-0.0837888
0.0223111
-0.263148
-0.161748
0.456279
-0.360073
0.12876
-0.00557082
-0.000847439
-0.194504
0.0111124
-0.0896451
0.110982
0.320986
-0.26059
0.147238
-0.0426902
0.360107
0.469039
-0.357545
0.227693
0.388161
0.271536
0.12556
0.0561617
0.0421436
-0.0466603
0.146345
-0.543673
0.397402
0.3915
-0.105924
-0.28554
0.30952
0.0785799
-0.569136
0.402233
0.286972
-0.289243
0.411262
-0.0175808
0.00517055
0.0124102
-0.0026528
0.134328
0.127038
-0.0172649
-0.367484
0.546547
-0.453697
0.561212
-0.405156
0.0147386
-0.0146735
-0.0935642
0.0125641
-0.307616
0.25827
-0.0064381
0.0567981
0.161761
-0.585276
0.423607
-0.00790441
-0.487755
0.496072
-0.415265
0.308334
0.111588
0.0736915
0.00437246
-0.0780639
0.345361
-0.109753
-0.235587
-0.415572
0.0872234
0.328407
-0.217363
-0.382495
0.0681034
0.222691
-0.290777
0.410079
0.217433
0.000307782
0.00267215
-0.00297993
0.159211
-0.298678
0.0470675
-0.0478876
0.000820023
0.439007
0.0822743
-0.340728
-0.00112198
0.034573
-0.033451
-0.00342489
0.000577609
0.00284728
-0.0707115
0.089813
-0.38796
0.507966
0.0645354
-0.072072
0.00753663
-0.184527
0.575676
-0.396997
-0.0290129
0.172523
-0.143509
0.183189
-0.180921
-0.131548
0.323782
-0.192216
-0.0015833
0.585827
-0.24011
-0.345688
-0.583979
0.376131
0.207891
-0.0107215
0.0950853
-0.147854
-0.486444
-0.583841
-0.364482
0.244594
0.115999
0.354428
-0.00349147
0.00379925
-0.20948
0.0442891
0.165198
-0.111376
-0.341818
-0.129603
0.373983
-0.578523
-0.399285
-0.377374
0.568317
-0.0591336
-0.508951
0.24921
-0.406599
0.529205
-0.117743
-0.359247
0.477119
-0.619964
0.244298
0.375948
-0.00703622
0.0590715
-0.538118
-0.518654
0.0158883
0.502784
-0.17474
0.412693
-0.237942
-0.440304
0.338795
0.0362585
-0.0373805
-0.546087
0.0033618
0.54275
0.521528
-0.386997
-0.134477
0.0783023
0.0406323
-0.118934
-8.8182e-05
0.146894
-0.200021
0.469241
-0.269213
0.187851
0.34273
-0.530417
0.222274
-0.366539
-0.0124909
0.0739686
-0.102876
-0.0688326
0.00209305
0.0667395
0.189296
-0.0637312
-0.500496
0.346862
0.570648
-0.394828
-0.175795
0.00264954
-0.00127738
-0.249668
0.47196
0.0927327
-0.332635
0.239919
-0.575297
-0.441997
-0.429991
-0.172952
-0.00187617
0.17483
-0.136317
0.276927
-0.140604
-0.203015
0.371656
0.403158
0.167514
-0.503357
-0.0161933
0.39428
0.127301
0.0933769
0.0195551
-0.479092
0.406182
0.0729147
0.0103112
0.147724
-0.319714
-0.305721
0.388088
-0.142779
0.102021
-0.130937
0.028917
-0.00842422
0.113759
0.231624
-0.0653969
0.0287696
0.0366274
0.00599745
0.088242
-0.37335
-0.0668422
-0.0105952
-0.0180549
0.0286501
0.332012
-0.258353
-0.0722616
0.0797959
-0.00753421
-0.0102615
-0.00731938
-0.0274058
-0.0387101
0.0661159
0.572899
-0.20378
-0.369108
-0.228765
-0.00686375
0.235636
-0.384385
0.310965
0.0764354
-0.00186636
-0.00381169
-0.0127309
-0.531403
0.136665
0.394818
0.588022
-0.596128
0.00819663
-0.00301398
0.145958
-0.338786
0.57717
-0.238383
-0.415583
0.562147
-0.146546
-0.00205259
0.000427804
0.00162479
-0.401558
0.563411
0.350298
-0.454523
0.104347
-0.000978481
0.0352811
-0.000936444
-0.0343447
0.091221
-0.458695
0.483173
-0.13854
-0.497957
-0.00761157
-0.00201481
-0.00141008
0.0817786
-0.0223069
0.103986
-0.113519
-0.186279
-0.305424
0.491748
-0.0732162
0.0623095
-0.0851472
-0.118409
-0.0894222
0.0704465
0.00994866
0.164238
0.173788
0.00088739
-0.0711865
0.0628006
-0.401883
-0.0585789
0.183857
-0.00306954
0.142739
-0.139668
-0.0213482
-0.0168575
0.513467
-0.0555861
-0.0044556
0.00111117
0.00268808
0.0049746
-0.0772361
0.0353006
-0.0340013
0.325908
0.109737
-0.435515
0.197961
-0.0183624
-0.179594
0.478572
0.153795
-0.0608141
0.285623
0.105912
0.0664892
-0.06403
-0.00245901
0.660169
-0.659599
-0.0366648
-0.0102679
0.0469326
-0.539104
0.123538
0.12025
-0.0419472
-0.437719
0.53686
-0.0990105
-0.116371
-0.0639102
0.180282
-0.165667
0.195757
0.00220939
-0.0368036
0.032635
-0.157109
0.124476
-0.151025
0.352
-0.484558
0.619827
0.0627448
0.174196
0.377047
-0.04861
-0.328428
-0.373328
0.105732
0.267626
-0.00099886
0.03628
-0.371084
0.577364
0.587494
-0.342789
-0.438579
0.146529
0.292122
-0.064868
0.0132212
-0.00561918
-0.00226931
0.0385278
0.422212
0.150697
0.0970609
0.416442
0.0274722
0.388309
-0.415693
-0.00129937
0.0483669
0.12656
0.534119
0.159208
-0.27126
1.72621e-05
-0.0419937
0.0419764
0.390207
-0.559798
0.169718
0.0804641
0.199708
-0.280149
-0.109102
0.515377
-0.130181
-0.0585179
0.0207016
0.0378164
-0.276266
0.393186
-0.116836
0.218468
-0.51422
0.00122948
0.149849
-0.151078
0.00812667
0.0427765
0.11822
0.0233683
0.325011
-0.23226
0.481096
-0.149654
-0.331395
0.226811
0.360689
-0.00131642
-0.00223374
0.00355017
-0.0144346
0.116456
-0.531597
0.0129625
0.0343261
-0.263086
-0.565719
0.397773
0.168101
0.41462
-0.328978
-0.388798
0.565512
0.0210359
-0.474191
0.13999
-0.134878
-0.00511099
0.21063
0.214547
0.453147
-0.102737
-0.0921485
0.383164
-0.241639
-0.0322552
0.0247784
0.00747686
0.0540581
0.0126142
-0.0103117
-0.218059
-0.0394787
-0.025918
0.0405177
-0.478105
0.207416
0.0162703
-0.0836387
0.472032
-0.408052
-0.15751
-0.144279
0.430865
-0.286497
0.344908
0.108357
0.0340527
-0.00213593
-0.0319168
-0.143478
0.471428
0.107314
0.0399252
0.435127
-0.109092
-0.243075
-0.568774
0.004074
-0.00162027
-0.00245373
0.209373
0.369992
0.0316736
-0.136536
0.130454
-0.266765
0.0346311
-0.107408
0.0727769
-0.245696
0.036222
0.200595
-0.0048992
-0.19569
-0.00870649
-0.197746
-0.0288658
-0.319878
0.0536515
0.0776019
-0.128986
0.350258
-0.221268
-0.000187965
0.00232233
-0.00213436
-0.14098
0.176647
-0.035663
0.601816
0.418832
-0.293659
0.195186
-0.162548
-0.15993
-0.0297483
-0.317368
0.505356
0.0296695
-0.00464394
-0.0250256
0.415344
0.145993
-0.15399
0.00256488
-0.000359346
-0.187564
0.603443
-0.415852
-0.108821
0.0851081
-0.2589
-0.140946
-0.346549
-0.0926544
-0.495469
-0.00219872
-0.115677
0.504731
-0.389051
0.383718
-0.272674
0.074854
-0.0855754
-0.413972
-0.145703
0.0608317
0.020947
0.00224523
-0.00356165
0.24936
-0.0294085
-0.219947
0.0115029
-0.00633241
0.410118
-0.0222682
0.590808
0.221215
-0.583081
0.446628
-0.102425
-0.402466
0.131672
-0.107606
-0.0240656
-0.0935256
-0.23577
0.32934
0.343406
-0.515031
0.171711
-0.0833295
-0.332186
0.10741
-0.563108
0.0375896
0.0328977
0.0419796
0.309208
-0.0738113
0.00570201
-0.00808973
-0.0765311
0.0846209
0.437265
-0.115764
0.0498488
0.356774
-0.406614
-0.102709
-0.173564
0.139406
-0.171687
0.516021
-0.344333
0.341876
-0.452517
0.110659
-0.552186
0.367459
0.184734
-0.42579
-0.163007
-0.393329
0.567544
0.402318
0.113066
-0.00553012
-0.000593461
0.00612358
0.409248
0.0926198
-0.501761
0.0163122
0.0837726
-0.216282
0.26058
-0.209945
0.278066
-0.570798
0.455124
0.426827
-0.592773
0.166038
-0.132588
0.0548842
0.0777038
0.265075
0.0669454
-0.33796
0.553093
-0.40667
0.358062
0.121035
-0.478926
-0.213174
0.415265
-0.296751
-0.141762
-0.144511
0.601199
-0.374381
-0.174163
-0.021981
0.196147
-0.00615384
0.103431
-0.0972772
0.280207
-0.435894
0.15569
0.483395
0.10471
-0.0871679
0.447269
-0.359985
0.376454
-0.171326
-0.205119
-0.197503
-0.176669
-0.297947
0.0646728
0.233289
-0.145383
-0.191606
0.0506296
-0.340951
0.247468
0.33861
0.142534
0.0437536
0.0442357
-0.0879893
-0.142114
0.485598
-0.0471324
0.0298066
-0.103984
0.0895786
0.0144056
-0.0922099
0.251417
0.120867
-0.113856
-0.00701137
0.458344
-0.465884
0.670668
-0.243522
-0.427119
0.115452
0.3272
-0.442582
0.398401
0.0682683
-0.466665
-0.0365231
-0.394043
0.430576
0.501155
-0.0918071
-0.497755
0.497946
0.162694
0.390477
0.115934
-0.133941
0.570681
-0.144234
-0.426424
0.554057
-0.391282
0.380927
-0.180599
0.208969
-0.199897
-0.00906685
-0.00924974
0.0829413
-0.0575841
0.333028
-0.269877
-0.142441
-0.477226
0.135308
-0.138377
0.124893
-0.0210748
-0.103818
-0.0823758
0.325383
-0.0296884
0.122592
-0.121429
-0.00116327
0.13162
-0.0293031
-0.102317
0.579527
-0.17202
-0.407482
-0.14855
0.00697168
0.478228
-0.137656
0.353265
0.291159
-0.333128
0.448656
0.0362085
-0.0366349
0.000426408
0.0142372
0.105417
-0.075406
-0.38529
-0.059325
0.358321
-0.370832
-0.128785
0.49981
-0.37989
-0.146074
-0.433185
0.115787
0.317472
-0.362316
0.412176
-0.338015
0.079265
0.258756
-0.540585
0.292014
0.195471
0.0135023
0.317638
-0.0627332
-0.0344049
0.0334342
0.000970797
0.0102294
0.555106
0.16064
-0.12373
-0.0369075
-0.358248
-0.252104
0.0665087
-0.0271772
-0.0393314
0.193984
-0.00697922
-0.187002
0.00584973
0.0682586
-0.0741083
0.113149
-0.0197717
0.00599378
0.125679
0.00494313
0.14307
-0.00278521
-0.039504
0.442533
-0.162327
-0.0105802
0.0469558
-0.582769
0.204562
-0.232149
0.0275888
0.164384
0.406319
-0.0819467
0.21929
0.0302158
-0.249499
0.208999
-0.373399
0.164476
0.0416762
-0.00353406
-0.0381422
-0.0701399
0.271659
-0.201509
0.0272413
0.397426
-0.0141861
0.124532
-0.110345
0.148218
-0.519121
0.397016
0.122412
-0.0769841
0.288997
-0.211994
-0.31275
0.653643
-0.25853
-0.395085
0.391034
-0.0800465
0.131189
-0.129959
0.0522944
-0.399347
-0.0470952
0.195608
-0.148512
-0.22912
0.49274
-0.263426
-0.242484
0.0447457
0.274543
-0.460781
-0.449925
-0.076326
0.0760012
0.131115
0.264524
0.406169
0.365227
-0.107762
-0.257413
-0.00617853
0.00360723
0.210221
0.0010531
0.117113
-0.112903
-0.00420891
0.0862545
0.0117784
-0.0980327
-0.526327
0.411809
0.114546
0.397659
0.181893
0.0845328
-0.0711333
-0.0133994
0.305577
0.08548
0.172672
0.00242138
0.224789
-0.0671193
0.00503345
0.0620859
-0.0363638
0.434769
0.0370802
-0.116076
0.0138636
0.322327
-0.336183
-0.386078
0.0066713
-0.393781
0.196303
-0.455954
0.354503
0.101576
-0.00249081
-0.00103539
0.0035262
-0.253967
0.0394069
-0.170157
0.573272
-0.403104
0.0799095
0.139388
-0.002534
0.0916318
-0.0890976
0.120098
-0.306718
0.186643
-0.00622971
-0.0608896
-0.0210784
0.0819102
-0.501854
0.563252
-0.0613663
-0.175472
0.0190565
0.156417
0.0453585
-0.00321485
-0.156636
-0.0188339
-0.0758917
0.0679716
0.00792011
-0.506667
0.0421944
0.46477
0.349379
-0.436438
-0.0298549
-0.000324358
0.0301793
0.0179016
0.106992
-0.00251563
-0.000901603
0.00341724
0.123774
-0.561935
0.438545
-0.0929201
0.437417
-0.0993472
0.00612385
-0.0401251
-0.120877
0.0501656
0.281999
0.101778
0.430844
-0.0889498
-0.000249705
-0.1727
0.0882976
-0.000561386
-0.0877359
-0.0727076
-0.00870663
0.0814143
-0.354757
0.0595846
0.395368
-0.454745
-0.00692458
0.07146
0.211079
-0.012026
-0.199039
0.195865
0.321356
0.0838746
-0.102784
0.02063
-0.139493
0.347826
-0.570568
0.417217
0.153473
3.6422e-05
0.00403758
-0.0629828
-0.214943
0.559703
-0.11065
0.562101
-0.451228
0.00199591
0.0276735
-0.526891
0.025069
0.623981
-0.142675
-0.47761
0.24869
0.148614
0.336887
-0.446758
0.109977
0.144416
-0.0371007
0.134143
-0.181238
-0.069462
-0.100603
-0.242468
0.343107
0.000127611
-0.00109117
0.000963561
0.404454
-0.193816
0.0983511
-0.00176559
-0.0965852
0.0925084
-0.0986621
0.0388008
-0.523632
0.424858
0.0988013
0.374726
0.127488
-0.502041
-0.00351876
0.126112
-0.20514
-0.359681
-0.0236251
0.410147
-0.22288
-0.329303
0.338656
-0.00901991
-0.0727421
-0.155104
-0.204619
-0.379317
0.00384243
-0.03612
-0.190857
0.198177
-0.00731632
0.00675575
0.369165
-0.224935
-0.144197
0.58673
-0.145783
-0.440932
0.561474
0.200454
-0.204904
-0.0711742
0.0677668
0.0149313
-0.00216052
0.209102
0.40143
0.00415173
0.148184
0.178695
-0.538549
0.359855
-0.0965745
-0.337743
0.434392
-0.158361
0.0429535
-0.0457387
-0.0197864
-0.188374
-0.300523
0.240465
0.106754
0.0220058
-0.0682397
-0.269768
-0.0668017
-0.0681772
-0.104134
-0.419471
0.276406
-0.484776
-0.466508
-0.026331
-0.147831
0.148901
-0.151552
0.53806
-0.400405
-0.00377129
-0.0958339
0.0996055
-0.493538
0.365246
0.128463
0.171791
-0.597257
-0.0542639
-0.0132832
0.0675471
0.041715
-0.0452491
-0.154852
-0.240819
0.395711
-0.00567346
0.0138918
-0.327784
0.273282
0.054511
0.0431732
-0.0393308
0.151942
0.317731
-0.0154785
0.391146
-0.349769
0.456306
-0.106431
-0.0627006
0.171299
-0.606448
0.435181
0.33611
-0.500415
0.164335
-0.32743
-0.0514964
0.058851
0.0548015
0.00839827
-0.0631997
0.0242038
0.136438
0.0662464
-0.072476
0.0810402
-0.330941
0.249911
0.0519525
-0.00559095
-0.0463615
0.060109
0.20427
-0.00381104
0.434917
-0.310864
-0.134745
-0.359008
0.493865
-0.452663
-0.502484
0.380656
0.12198
-0.0533757
-0.0274131
0.6123
-0.443574
-0.168356
0.254496
0.0266153
-0.28108
-0.372424
0.124928
-0.103521
-0.00850671
0.0666157
-0.0132584
0.00930656
0.00395183
0.107171
-0.439306
0.332195
-0.0666743
0.0803332
-0.0136589
-0.234737
0.34852
0.262052
-0.332429
-0.204697
0.513374
-0.311285
-0.215578
-0.00196461
0.00430175
0.315499
-0.0722496
0.0366974
-0.0366802
0.0854246
-0.144004
0.331176
0.0996862
0.108733
-0.00474759
0.404044
0.223546
0.265052
-0.0234156
-0.38933
0.245131
-0.00859274
0.0924347
-0.0838418
-0.288605
-0.22761
0.333287
-0.207114
-0.126145
0.434435
0.337337
0.283234
-0.0794038
0.07687
-0.238587
-0.0920552
0.330676
0.234524
-0.129201
-0.105316
-0.138314
0.47445
-0.00366248
-0.149057
0.030914
-0.0288108
-0.00210325
0.332322
-0.483835
0.15162
-0.129286
-0.056035
-0.46885
0.0889701
0.375987
-0.0664552
-0.180322
-0.402578
0.582917
-0.0155859
0.101841
0.0055621
0.199002
-0.182102
-0.202746
-0.081804
0.284567
0.0951299
-0.500572
0.405465
-0.134239
0.488295
-0.353939
0.601448
0.330827
0.170435
0.401232
-0.5312
0.130042
0.151609
0.0302912
-0.0576969
0.248817
-0.221563
-0.28358
0.416113
0.551207
-0.234615
0.56235
-0.0317771
-0.530531
0.130449
-0.00263517
-0.00789781
-0.0659134
0.105964
0.194214
0.348167
-0.444023