/*--------------------------------*- C++ -*----------------------------------*\
| =========                 |                                                 |
| \\      /  F ield         | OpenFOAM: The Open Source CFD Toolbox           |
|  \\    /   O peration     | Version:  v2012                                 |
|   \\  /    A nd           | Website:  www.openfoam.com                      |
|    \\/     M anipulation  |                                                 |
\*---------------------------------------------------------------------------*/
FoamFile
{
    version     2.0;
    format      ascii;
    class       volScalarField;
    location    "200";
    object      k_0;
}
// * * * * * * * * * * * * * * * * * * * * * * * * * * * * * * * * * * * * * //

dimensions      [0 2 -2 0 0 0 0];


internalField   nonuniform List<scalar> 
13917
(
0.00016514
0.00014919
0.0579483
0.000153939
0.000148657
0.000191831
0.0571764
0.0591566
0.0744277
0.0001727
0.000201006
0.000183183
0.00015411
0.0165566
0.000155082
0.000154041
0.000149586
0.00017506
0.000182797
0.000148659
0.000149759
0.0568614
0.000148537
0.0558362
0.000148138
0.0532264
0.000161388
0.000164094
0.000205515
0.000183542
0.000166803
0.000157589
0.000159917
0.000154399
0.00014831
1.51237e-05
0.000148596
0.0454427
0.000157263
0.0188488
0.000147457
0.000149897
0.000145136
0.000167929
0.000148973
0.000155725
0.000174801
0.000182049
0.0003888
0.000147981
0.000158221
0.000149763
0.000460828
0.000154707
0.000149639
0.000157601
0.000200728
0.00014853
0.000154999
0.000148775
0.0798202
0.000149203
0.00815408
0.000148579
0.000190624
0.020479
0.000148635
0.000148496
0.000203221
0.000162712
0.000148704
0.0720239
0.0444847
0.00014815
0.00039582
0.00018696
0.0316222
0.000151135
0.04932
0.000149541
0.000149311
0.000148678
0.000188529
0.0496094
0.0447007
0.00015091
0.000149137
0.00672015
0.000157872
0.000145105
0.0485788
0.000178781
0.000147773
0.000151157
0.0121123
0.000188059
0.000194439
0.000179983
0.000198193
0.000169984
0.000146654
0.00015847
0.000167821
0.000152263
0.000146718
0.0735182
0.000192225
0.000182922
0.00014961
0.000167677
0.048989
0.0205681
0.000188233
0.0744454
0.000151089
0.000410836
0.000147996
0.000259645
0.0259669
0.000154688
0.000149811
0.000202218
0.0291816
0.000163455
0.00014778
0.000150856
0.000148748
0.000147844
0.000145201
0.000190228
0.0423426
0.00015092
0.000149057
0.000149813
0.00252361
0.0546833
0.00016528
0.000170554
0.00014859
0.000154528
0.00013804
0.000146855
0.000150312
0.000169937
0.000148513
0.0582128
0.000209359
0.000149613
0.000146549
0.000158048
0.000178054
0.000418132
0.000187983
0.000163371
0.000157249
0.0221555
0.000161897
0.00123536
0.0260525
0.00299517
0.000152945
0.000161599
0.000149542
0.00019351
0.000187782
0.000197789
0.000152182
0.000179007
0.000148128
0.000158918
0.000164014
0.0262449
0.000190391
0.000150402
0.0409544
0.000164494
0.0448187
0.000301849
0.0519905
0.000147895
0.000179945
0.000167682
0.000146823
0.000149074
0.000157788
0.0529828
0.000215854
0.0280992
0.000166014
0.000195924
0.000128899
0.0493499
0.0002084
0.000148612
0.000171838
0.000161062
0.000153785
0.000147845
0.000180819
0.000908057
0.000157887
0.000148086
0.000177432
0.000177822
0.0390414
0.000448639
0.000148307
0.000148626
0.000179581
0.0548778
0.000150083
0.0578442
0.0288352
0.000195976
0.000146744
0.000198065
0.000176811
0.0303514
0.000147771
0.0741077
0.000147833
0.000182782
0.00014726
0.0486728
0.0750499
0.000154381
0.000383963
0.000157615
0.000146763
1.36344e-05
0.000189911
0.000165803
0.0535919
0.0237084
0.000146332
0.000158091
0.0533433
0.0338738
0.000149485
0.000147535
0.0207175
0.000197545
0.000149757
0.000177183
0.000187098
0.000161294
0.00016438
0.000149485
0.000163809
0.0263333
0.000148846
0.000184012
0.000173172
0.000148641
0.000148468
0.000183367
0.0269703
0.000186689
0.000157971
0.000155299
0.00014979
0.0237475
0.0710331
8.43552e-05
0.000146803
0.0423302
0.0249928
0.00666007
0.048675
0.000188232
0.000149388
0.000147426
0.000175119
0.0424934
0.00019344
0.000154602
0.000574623
0.00017317
0.000145136
0.0468384
0.00014849
0.0445451
0.000157258
0.000149722
0.000156337
0.000163315
0.000161571
0.000165808
0.000159703
0.000149172
0.0002279
0.0526133
0.0775618
0.000147771
0.0101054
0.000149081
0.000149171
0.000148042
0.000224656
0.000148568
0.000184576
0.00016373
0.000148027
0.000177668
0.000151551
0.000346828
0.000164163
0.000177516
0.000147491
0.000148393
0.0457584
0.0275936
0.000147961
0.00014735
0.0430579
0.00014781
0.0479168
0.000147383
0.0516276
0.000150831
0.000214431
0.000164852
0.000433327
0.000152545
0.000795512
0.000184161
0.00015636
0.000197262
0.000198427
0.000149492
0.0426657
0.000171589
0.0285598
0.000153622
0.0198982
0.000158822
0.0586633
0.000180637
0.000172563
0.000172081
0.0593177
0.000149397
0.000164533
0.0540481
0.000149189
0.000152046
0.0260284
0.000183803
0.00015024
0.000206908
0.000201943
0.00014691
0.0224308
0.000106281
0.000148445
0.000147241
0.000149136
0.000146516
0.00022741
0.0473599
0.0002096
0.0511679
0.000148086
0.000186371
0.00751098
0.000171426
0.0574866
0.0473234
0.075864
0.000146329
0.000128773
0.000147109
0.0636999
0.00014875
0.000450764
0.000187025
0.000155807
0.000149266
0.000178519
0.000181787
0.000181603
0.000661657
0.0536798
0.0237031
0.000164248
0.000171786
0.000147584
0.0371686
0.0553626
0.000148656
5.19102e-05
0.000148259
0.000245752
0.000150807
0.000149469
0.000151576
0.04347
0.000151502
0.0300803
0.010575
0.000198433
0.000193547
0.000149441
0.000194294
0.000190716
0.000148159
0.000185406
0.000149102
0.000148218
0.000183394
0.00014972
0.000148189
0.000147079
0.000238954
0.000149622
0.0229521
0.0442027
0.00486129
0.000207752
0.0364048
0.0308279
0.000171044
0.000148105
0.000200808
0.000156893
0.000159249
0.000148564
0.0547968
0.0558859
0.0418563
0.000153928
0.00019011
0.000153258
0.000157938
0.000181586
0.000151088
0.000118844
0.000149575
0.000148537
0.0529892
0.043236
0.0453075
0.000182427
0.00329174
0.0467746
0.0579734
0.0306001
0.00014539
0.000177327
0.000151176
0.000148773
0.00020503
0.000175362
0.00014866
0.000176782
0.000169549
0.0291158
0.000148132
0.000193562
0.0158696
0.000237511
0.0278156
0.000149675
0.000148701
0.000153667
0.000161916
0.000146343
0.0502156
0.000200649
0.000159682
0.0357667
0.000157551
0.000193975
0.0631142
0.000210682
0.000197751
0.000121145
0.000193531
0.000175605
0.000200035
0.000172479
0.000201078
0.00020713
0.000176005
0.000185431
0.000147944
0.000947692
0.000159034
0.000146437
0.000161126
0.000151453
0.0313713
0.0736526
0.000147736
0.000145371
0.0511261
0.0254364
0.000149721
0.02266
0.000151876
0.000198859
0.00014785
0.0370082
0.000188178
0.000158035
0.000149695
0.0395236
0.000204961
0.0116608
0.000149776
0.0297123
0.00034798
0.0462684
0.00014653
0.0404878
0.0842774
0.000171604
0.000147195
0.000149563
0.000187181
0.000210651
0.000148
0.000147255
0.000147563
0.000147525
0.0370714
0.000265349
0.000171227
0.000215145
0.000147855
0.000146694
0.000189746
0.0767135
0.00016339
0.000148232
0.000148177
0.000148452
0.0525324
0.0544757
0.000149094
0.000148445
0.000132075
0.000172085
0.000164849
0.000148635
0.000151685
0.000156474
0.000184914
0.00019272
0.000216258
0.000201669
0.000188869
0.000304899
0.000177319
0.000147826
0.0307163
0.000148467
0.00015245
0.000154921
0.00100673
0.000169438
0.000146771
0.000241249
0.000186418
0.00725454
0.00018897
0.000159976
0.000170861
0.000149199
0.0799278
0.00021919
0.0597788
0.000149306
0.000160421
0.000215991
0.0495193
0.010176
0.000180919
0.000185229
0.000153893
0.000153448
0.000148667
0.000164962
0.000168588
0.000149206
0.000176626
0.000172237
0.0607218
0.0138011
0.000153038
0.000193296
0.000169748
0.000157311
0.000149873
0.000443955
0.0638264
0.0611576
0.000211477
0.00014531
0.0251687
0.000186664
0.000147171
0.000161378
0.000184268
0.000159384
0.000183488
0.0500545
0.000199527
0.000169288
0.0797733
0.000152069
0.0260319
0.000149548
0.000149047
0.0116326
0.0659604
0.000204419
0.000152073
0.000150243
0.000148452
0.000173658
0.00043965
0.000196675
0.000153786
0.000196228
0.000178136
0.000147888
0.000346025
0.000196116
0.000100453
0.0001477
0.000198898
0.000151362
0.0143826
0.000173331
0.000169351
0.000160658
0.000147038
0.000146356
0.000148888
0.000173485
0.000155982
0.000226066
0.000518131
0.000178607
0.000146969
0.000198352
0.000205615
0.000152063
0.000148714
0.000155576
0.000147307
0.000161552
0.000155249
0.0838912
0.000149483
0.000454197
0.000161172
0.000200813
0.000178427
0.0441945
0.00017016
0.000149429
0.0400984
0.011565
0.00014859
0.000154828
0.00091978
0.00020339
0.000193474
0.000149544
0.000149798
0.000202967
0.000156035
0.000181273
0.000182326
0.000146409
0.000177943
0.0576946
0.000148685
0.000152502
0.000147702
0.0258247
0.000149751
0.000153556
0.028329
0.000151782
0.0607354
0.000157244
0.000160139
0.000147652
0.000165834
0.000148094
0.00017466
0.000147073
0.000172612
0.000151862
0.0174017
0.000314862
0.0768721
0.000152319
0.000149317
0.000176409
0.000169455
0.0308519
0.0779289
0.00017468
0.000148282
0.00023739
0.000204837
0.000104363
0.000212567
0.000174577
0.0475686
0.000164472
0.000171906
0.000195841
0.000177737
0.000174346
0.000233929
0.000173771
0.000153704
0.000185406
0.000156494
0.000147382
0.000161303
0.000167904
0.000157443
0.000148155
0.000147448
0.000178427
0.000152885
0.000181384
0.000148274
0.000148356
0.000149806
0.000151485
0.000144977
0.000155411
0.000147844
0.0358211
0.000182952
0.000187756
0.000146486
0.000149618
0.00016319
0.000175933
0.000150604
0.0637267
0.000174083
0.0426732
0.000161305
0.000192973
0.000150501
0.000149775
0.000147405
0.000151551
0.0195225
0.000149675
0.00311504
0.000155811
0.00913236
0.000164626
0.000174691
0.000200343
0.000145884
0.000149934
0.000183306
0.00014848
0.000149885
0.0440626
0.00015058
0.000149136
0.000158401
0.000147482
0.000145857
0.000157591
0.000156194
0.0252808
0.000162944
0.000148683
0.000147199
0.0539111
0.00017343
0.000149229
0.000149298
0.0510927
0.000369103
0.0236849
0.000159979
0.000153714
0.000146409
0.000145702
0.000176454
0.000163613
0.000232689
0.000153907
0.0394925
0.00014958
0.00015216
0.0197586
0.000148307
0.00015926
0.000148323
0.000148422
0.000167052
0.000161717
0.000150409
0.0626195
0.0248881
0.000178967
0.000147812
0.000145498
0.000195592
0.00332449
0.000149717
0.000218713
0.000145454
0.000166862
0.000147726
0.000147696
0.000197992
0.000148749
0.0117095
0.000166673
0.000149804
0.000145362
0.000148747
0.000147537
0.000152284
0.000429286
0.000148402
0.000147257
0.0712309
0.0649261
0.00017021
0.000168797
0.000180814
0.000155692
0.000146976
0.00015625
0.0367311
0.000173361
0.000148799
0.000149526
0.0777284
0.000166499
0.057733
0.000149754
0.000150786
0.0233576
0.000164752
0.000150665
0.0171584
0.000288873
0.000147498
0.000193362
0.000147387
0.000148591
0.000146412
0.0464224
0.000144902
0.000148986
0.00014695
0.0176191
0.000156066
0.000198774
0.000165704
0.00014776
0.00015866
0.000149093
0.0526761
0.000147649
0.000148521
0.000149143
0.000196325
0.000149087
0.000199602
0.0198657
0.0508283
0.000155213
0.000125357
0.0333197
0.000148365
0.0211112
0.0804955
0.0374704
0.0366623
0.0708524
0.00762463
0.000196465
0.000149647
0.0493962
0.000164591
0.0551823
0.000146394
0.000147767
0.000149279
0.000149045
0.000156961
0.000158094
0.0317617
0.00014768
0.000148459
0.0106806
0.000186528
0.000148747
0.000160421
0.00016012
0.000149586
0.000305828
0.000160823
0.000152351
0.000155924
0.0202804
0.0244864
0.000252475
0.000147564
0.000205053
0.000186474
0.033914
0.0770169
0.000190078
0.000147847
0.000150674
0.000149581
0.000144619
0.000151667
0.000145308
0.000156575
0.000163986
0.0400839
0.000196727
0.000149024
0.000192536
0.0596425
0.000166075
0.000149606
0.0278384
0.000147903
0.000149667
0.000160423
0.0407009
0.00014909
0.000147723
0.0585433
0.00021678
4.37548e-05
0.00019097
0.000108927
0.000147555
0.000201913
0.00014971
0.000147893
0.000149719
0.0517764
0.029178
0.000147312
0.000145356
0.000148448
0.000753279
0.000151257
0.00016072
0.000148456
0.000149931
0.000200852
0.000147893
0.000175287
0.00019577
0.0456905
0.000148504
0.000171714
0.000153243
0.0416805
0.0571761
0.000148172
0.0447449
0.000182012
0.000266059
0.000149081
0.0434357
0.000149601
0.000157333
0.000166031
0.000190912
0.0533031
6.08598e-05
0.000204754
0.0677244
0.000146918
0.000227663
0.000147681
0.000156468
0.0592201
0.000148821
0.000149657
0.000150915
0.000149411
0.0385385
0.000145785
0.000148474
0.000178247
0.000169597
0.000175153
0.000202197
0.000198358
0.0186825
0.000183868
0.000165877
0.000171327
0.0369872
0.000170759
0.0545489
0.0527823
0.000156681
0.000147979
0.034937
0.000100587
0.000149621
0.000190326
0.000163831
0.000150429
0.000157481
0.000149584
0.000166241
0.000149943
0.000174165
0.000170612
0.000147148
0.000176246
0.000147689
0.000166488
0.000147046
0.000154832
0.000177734
0.000153201
0.000149377
0.000147366
0.000285548
0.000176127
0.0552166
0.000148189
0.000149018
0.000178976
0.00014832
0.000184273
0.000176081
0.000150427
0.000187381
0.000147544
0.0673742
0.00014951
0.000168978
0.0289682
0.000227561
0.000147609
0.000152239
0.0169332
0.000147908
0.000147382
0.0379333
0.0515701
0.00015293
0.000203765
0.000148592
0.000149381
0.0517032
0.000151345
0.000145952
0.000227736
0.000147805
0.000179435
0.000149266
0.00014595
0.000149262
0.000198693
0.0342521
0.000148978
0.000149501
0.000147551
0.000154833
0.000148385
0.000225312
0.000175927
0.000149773
0.0503229
0.000164745
0.000227223
0.0489959
0.00043339
0.000147137
0.000149449
0.000148621
0.000206055
0.000155282
0.0341929
0.0320553
0.000152484
0.0586636
0.000318295
0.000174556
0.000200933
0.000168962
0.000188942
0.0525236
0.000167023
0.000338736
0.0522827
0.000182388
0.000154172
0.037928
0.000164094
0.000146515
0.000152612
0.0703084
0.000162666
0.000147677
0.000166123
0.000186131
0.000164321
0.0372349
0.000152488
0.0596586
0.000171178
0.000130135
0.000192956
0.000206462
0.000159535
0.000147418
0.000150322
0.0549409
0.000147897
0.000152723
0.000147134
0.000151713
0.000147776
0.000160205
0.000200667
0.000299816
0.000162536
0.000165032
0.0404106
0.000190776
0.00014779
0.000677357
0.0483129
0.000146377
0.000147327
0.000161248
0.0228283
0.000149667
0.000180118
0.000208153
0.000166578
0.00014866
0.000152706
0.000147965
0.000190257
0.000162864
0.000147782
0.0194402
0.0483057
0.000163393
0.000193784
0.000182832
0.00160799
0.000151676
0.000156107
0.0419719
0.000569653
0.000190294
0.000262075
0.00015807
0.000149829
0.000148695
0.000149171
0.000148383
0.00015042
0.000166533
0.000147661
0.000195641
0.000147474
0.000158963
0.000147442
0.000174876
0.000195712
0.000271982
0.000148275
0.000206316
0.000148683
0.0400534
0.000148239
0.000154362
0.000148758
0.000229205
0.04026
0.000199547
0.00014765
0.000196751
0.000148542
0.000159294
0.0494677
0.000148419
0.000149754
0.00016881
0.000161382
0.0580909
0.00014768
0.000158
0.000152864
0.000148208
0.000158513
0.000150068
0.00014617
0.000152145
0.0291198
0.000153804
0.000191686
0.0587435
0.000174254
0.0362707
0.00015343
0.000146212
0.000158636
0.0247677
0.000153267
0.000161941
0.00017157
0.000418194
0.000147427
0.00323133
0.000176889
0.000180637
0.000146307
0.000145448
0.000204297
0.000149919
0.000149898
0.000159057
0.000146399
0.000153114
0.000158501
0.000183851
0.000182233
0.0556476
0.000156845
0.000184469
0.00633636
0.0156029
0.000169041
0.000181249
0.0217383
0.00016831
0.0662034
0.000152209
0.00741079
0.00327918
0.00014651
0.000149722
0.000147582
0.000151238
0.000168307
0.000147538
0.000152533
0.000190263
0.00015229
0.000160153
0.0448067
0.00015752
0.000154316
0.0745553
0.000150648
0.0228579
0.000155121
0.000165031
0.000147358
0.0289955
0.029335
0.000148553
0.000151545
0.0436472
0.000157165
0.0148268
0.000148006
0.000147832
0.0602491
0.000151385
0.000162392
0.00888128
0.000148436
0.000174692
0.000158897
0.00014544
0.000147226
0.0477407
0.0312083
0.000149305
0.00015308
0.000148651
0.000156094
0.000160062
0.0292476
0.000150497
0.000330305
0.00916789
0.000114714
0.000910026
0.000151203
0.000196896
0.00017815
0.00015689
0.000148376
0.000180446
0.0460898
0.000151792
0.000162667
0.0575682
0.000457352
0.000184352
0.000153957
0.000149474
0.000149607
0.000148465
0.0249058
0.00017711
0.000153941
0.000151848
0.000154114
0.000149784
0.000148207
0.000148454
0.000184125
0.000170068
0.0471754
0.000163177
0.00835526
0.032026
0.000158391
0.000174973
0.000146608
0.000157337
0.0246882
0.000149017
0.000152238
0.000175787
0.000193566
0.000164434
0.0418313
0.000205478
0.0001479
0.042287
0.000145212
0.00014972
0.000163658
0.000149806
0.000148845
0.000203212
0.0587154
0.000147821
0.0447268
0.000148938
0.000147063
0.000152074
0.000356175
0.000158692
0.000155119
0.0735037
0.000151154
0.000230173
0.0409586
0.000149607
0.000163406
0.000147926
0.019198
0.000180596
0.000148499
0.0494823
0.000176102
0.000167745
0.000149845
0.0276958
0.000157123
0.000189274
0.000152299
0.000167294
0.0293982
0.000147201
0.000247457
0.000148914
0.000176435
0.000163855
0.000149601
0.0305677
0.000152178
0.000193212
0.000175714
0.00016921
0.000162606
0.000162897
0.000150353
0.0572769
0.000158924
0.0194425
0.0001577
0.000181853
0.000148363
0.000167734
0.00014858
0.00018503
0.0527775
0.000150708
0.000147131
0.000439423
0.000151413
0.0108851
0.000150298
0.0475949
0.000107608
0.000162889
0.000147868
0.000147531
0.000148675
0.000145353
0.000188245
0.000165607
0.000160723
0.000155383
0.000148443
0.000892964
0.000153266
0.000162156
0.00278082
0.000148479
0.017655
0.000175538
0.000162719
0.000248987
0.0416517
0.000218821
0.0472716
0.017609
0.000147398
0.000196647
0.0314751
0.000186841
0.000149087
0.000149384
0.000193985
0.0493432
0.0229915
0.000231051
0.000150516
0.000164236
0.000168836
0.0396543
0.00273626
0.000171414
0.000196315
0.000152736
0.000175604
0.000190374
0.00014903
0.000186686
0.0567659
0.000148802
0.00294964
0.000149661
0.000148575
0.0344608
0.0508882
0.00014685
0.000150777
0.000150149
0.000147775
0.000165926
0.000204174
0.000152628
0.000147814
0.000148561
0.00017105
0.000157876
0.000157497
0.000221903
0.000148334
0.0550441
0.0161485
0.0624424
0.000175308
0.000172866
0.000100525
0.00016424
0.0483012
0.000450003
0.0081568
0.000149913
0.085542
0.0344436
0.000146304
0.000148172
0.000183632
0.0561064
0.0602694
0.000147848
0.000148569
0.043669
0.00120667
0.00581402
0.000153074
0.000152544
0.00029597
0.000149249
0.0493799
0.0289547
0.000256504
0.000504419
0.000148698
0.000147593
0.000147078
0.000154895
0.0355696
0.000170373
0.000156856
0.000150442
0.00017247
0.0243734
0.000171108
0.0460003
0.013837
0.0251516
0.000314891
0.000148333
0.000149079
0.046472
0.000145663
0.000146446
0.000151299
0.000377091
0.000167118
0.036897
0.000192407
0.000148139
0.0775561
0.000166565
0.000147776
0.0159566
0.000175693
0.000153923
0.000149542
0.0050539
0.0613589
0.000149135
0.0627824
0.0109397
0.0589872
0.000589005
0.000175431
0.000147865
0.000150548
0.000327674
0.000155786
0.04558
0.000167528
0.000714831
0.000224649
0.000150971
0.00015718
0.00014793
0.000150583
0.0561059
0.0196013
0.000148467
0.0209953
0.000171944
0.000148601
0.000153607
0.000147513
0.000201394
0.000150087
0.000311352
0.000164446
0.000147815
0.000146996
0.000169361
0.0231259
0.000167906
0.000152911
0.000167994
0.000148536
0.000151948
0.000158996
0.0195489
0.030083
0.0588688
0.000146036
0.000146942
0.00014976
0.000196927
0.000147151
0.000149881
0.000203489
0.000178844
8.09186e-05
0.000146352
0.062342
0.0301524
0.000149885
0.01839
0.000193561
0.000168658
0.000319121
0.000149589
0.0354233
0.000157404
0.000151257
0.000152534
0.000145628
0.000190583
0.000153634
0.000151941
0.000157766
0.0305845
0.0360958
0.00014961
0.000148019
0.000152426
0.000148493
0.000194445
0.000149964
0.000182786
0.000153241
0.0442163
0.000151487
0.0594178
0.000146076
0.0797425
0.000150057
0.000145531
0.0604096
0.000184215
0.000171708
0.000161593
0.000162257
0.000169583
0.000148444
0.0368771
0.000148452
0.000147186
0.000168557
0.000183015
0.0441496
0.0401008
0.000192838
0.0641507
0.000191609
0.00021682
0.00014855
0.000155244
0.000159635
0.0562607
0.000153633
0.0561222
0.0302106
0.000149937
0.000148759
0.00014848
0.000351316
0.000423743
0.000152794
0.00014866
0.000154805
0.000157998
0.000167635
0.000232282
0.000192214
0.00014831
0.000205477
0.000181045
0.022907
0.000181178
0.000151729
0.000153211
0.0761168
0.000147053
0.000183857
0.0556793
0.000150658
0.000154948
0.0002041
0.000173027
0.000150711
0.0237091
0.000154095
0.000228631
0.000171736
0.000158081
0.000151556
0.0585425
0.000146949
0.000170952
0.000261232
0.059671
0.000172647
0.000175241
0.000157059
0.000163444
0.00014975
0.0611154
0.000158234
0.000148836
0.000160821
0.000148511
0.000149776
0.000388438
0.000148419
0.000149117
0.000148638
0.000196785
0.000149499
0.000161402
0.000184036
0.000199592
0.000189349
0.000149662
0.000182739
0.000192851
0.000202498
0.000180518
0.000155933
0.00020063
0.0491119
0.000234725
0.000149887
0.0370878
0.0477775
0.000149882
0.000153658
0.00014552
0.000216361
0.000183974
0.00014928
0.000250175
0.0550613
0.000146623
0.000149378
0.0429254
0.0326037
0.000183467
0.0001457
0.0320473
0.0361904
0.000480543
0.000148118
0.0577695
0.000188512
0.000167198
0.0504013
0.000156895
0.000145612
0.000160649
0.000197514
0.00016312
0.0473327
0.0646473
0.000147106
0.0568064
0.000196485
0.0364891
0.00014607
0.000163712
0.000149643
0.000147875
0.0602192
0.00159844
0.000227546
0.00278295
0.000157638
0.000173274
0.000151244
0.0638261
0.0222756
0.000148454
0.00014948
0.000158278
0.000148162
0.000175242
0.0627598
0.0705283
0.000173762
0.000150298
0.00014978
0.0602624
0.000153879
0.000175507
0.000146936
0.000151174
0.000239079
0.00243559
0.00016262
0.000358992
0.000149067
0.000240407
0.000152292
0.00016356
0.0779279
0.0198632
0.000148443
0.000149955
0.000167767
0.000154492
0.000149288
0.0642833
0.0564165
0.000147237
0.000144899
0.000149209
0.00014767
0.000326964
0.000147159
0.0444113
0.000188586
0.000183092
0.000147686
0.000166667
0.0674161
0.000164669
0.000193181
0.0463646
0.000149457
0.0273365
0.000158852
0.000159655
0.000188622
0.0280993
0.0359813
0.000181415
0.00014747
0.000188429
0.000147236
0.00015404
0.000149329
0.0427227
0.000158863
0.000248666
8.93545e-05
0.000172908
0.000148762
0.000207303
0.000158255
0.000149784
0.00018203
0.000145166
0.000170318
0.000164222
0.000149206
0.0704775
0.000151889
0.000201866
0.00015083
0.000147512
0.0536903
0.04736
0.000152802
0.000158573
0.000170274
0.000171217
0.000179945
0.000158029
0.000154924
0.000155767
0.000224347
0.000153958
0.0429898
0.000166311
0.000130791
0.00019615
0.000151257
0.066025
0.000145201
0.0563053
0.000152891
0.0552229
0.00154372
0.0178908
0.0258615
0.00023906
0.000168064
0.000149136
0.0613466
0.000169366
0.000148488
0.0223997
0.0562823
0.000151621
0.000153935
0.000160411
0.000160454
0.000164029
0.0354003
0.000149883
0.000162857
0.000167014
0.000159235
0.000149024
0.000188003
0.00014553
0.0448653
0.000152283
0.000191951
0.000161882
0.000168507
0.00018239
0.00138705
0.000181322
0.000147159
0.000186554
0.0591011
0.061124
0.000150554
0.0416601
0.000160003
0.000295211
0.000148454
0.000153376
0.0527676
0.000178054
0.0273471
0.0268373
0.000158989
0.0739209
0.00014829
0.000145492
0.0232673
0.000164782
0.000153317
0.0718073
0.000156889
0.00016316
0.000157608
0.000176367
0.000149207
0.0418605
0.0536843
0.00889469
0.000230781
0.00015575
0.0001713
0.0292793
0.000152856
0.000149649
0.0001758
0.000146024
0.000183092
0.0473361
0.0212415
0.0275777
0.000178406
0.000150779
0.0599344
0.000145226
0.000184376
0.000149532
0.0335939
0.000152656
0.000164181
0.0387807
0.000191702
0.000148056
0.000159209
0.0106806
0.000148806
0.000199375
0.000147092
0.0539498
0.0561855
0.000193469
0.000167442
0.000147545
0.000203276
0.000198209
0.000168197
0.000147103
0.000150999
0.000148892
0.000178078
0.000148756
0.000188225
0.000149051
0.000147383
0.0849502
0.000147791
0.000156836
0.00015628
0.000149818
0.0445559
0.000147679
0.000161154
0.0564025
0.000176637
0.040239
0.000148696
0.0606905
0.000177733
0.0718
0.000152272
0.000196205
0.000149963
0.000169793
0.000195645
0.00019399
0.000210407
0.0546451
0.000205859
0.000387612
0.000155538
0.000193365
0.000162895
0.000178067
0.00015382
0.000149752
0.000148452
0.000176824
0.000164626
0.000324427
0.00017625
0.0514237
0.0480817
0.000170229
0.000148453
0.00376604
0.000177919
0.000150082
0.000152774
0.000148756
0.040508
0.000148451
0.0169282
0.000147685
0.000158755
0.0384489
0.000170173
0.000148302
0.000148398
0.0256646
0.0001477
0.000152832
0.000155771
0.000160409
0.000157894
0.000149174
0.000201825
0.000167554
0.00016256
0.000217631
0.0447248
0.0427233
0.031687
0.000146165
0.00014818
0.000171408
0.00015078
0.000163115
0.0413691
0.0424695
0.000145659
0.000148415
0.0408251
0.000121107
0.000145825
0.000147222
0.000155213
0.0549987
0.050258
0.000156708
0.000162137
0.00014928
0.00023323
0.000196269
0.000173688
0.000158234
0.000163376
0.000149956
0.000166089
0.00023793
0.000150746
0.000149313
0.000156308
0.057246
0.000154165
0.0228434
0.000148641
0.0506297
0.000161862
0.000156199
0.000146412
0.000147447
0.000238997
0.0499412
0.000164476
0.0243263
0.0548303
0.000150215
0.0526786
0.000200304
0.000148175
0.0128165
0.000169968
0.000193413
0.000149662
0.0397853
0.0373611
0.000148816
0.000162479
0.0295113
0.000166043
0.000148684
0.000147279
0.000150059
0.000153984
0.000181451
0.000226377
0.000167366
0.000179141
0.000146373
0.000149263
0.0463778
0.000147499
0.000167767
0.000155177
0.000149998
0.000173283
0.000148125
0.000152379
0.000233254
0.00014789
0.0443847
0.000148129
0.00357043
0.0489083
0.000186466
0.000149416
0.000149947
0.0594002
0.000145542
0.000153439
0.000149757
0.000201184
0.000208975
0.000163977
0.04813
0.000162459
0.000281428
0.000150277
0.000182962
0.0001479
0.000148864
0.0206203
0.0464863
0.000382235
0.00015274
0.000182315
0.000182656
0.0379005
0.0571438
0.000228176
0.000166349
0.000145176
0.0513302
0.00014827
0.000148504
0.000232012
0.000193986
0.000156683
0.000177566
0.000163706
0.000159396
0.000157864
0.0760635
0.000154247
0.000147848
0.0204101
0.000163949
0.000146259
0.0347485
0.000148098
0.000148676
0.000201491
0.000185146
0.0379762
0.000146378
0.000153637
0.000147567
0.000307405
0.000147603
0.000196874
0.00424002
0.0459497
0.0321934
0.01367
0.000157508
0.0440107
0.000221941
0.00014935
0.000158249
0.000162551
0.000157696
0.000246778
0.0449064
0.0521317
0.045715
0.000348105
0.000149134
0.000191923
0.000148141
0.0204127
0.000159626
0.000152771
0.000153647
0.00015088
0.00014761
0.000191436
0.0538634
0.000146052
0.000152777
0.000146932
0.0401426
0.000152567
0.0799315
0.0400203
0.000371092
0.000148579
0.000147679
0.0366312
0.000189032
0.00014886
0.000189321
0.000149482
0.000186569
0.000177131
0.000187637
0.000176248
0.0265711
0.000146943
0.000147993
0.000227453
0.0352752
0.000159286
0.000166125
0.000147903
0.015842
0.000148121
0.00014759
0.000151807
0.000148257
0.00670274
0.0437323
0.0001618
0.000181822
0.0595884
6.43587e-05
0.000145643
0.000162928
0.000146016
0.00025179
0.00014895
0.000153704
0.00014815
0.000147404
0.000147556
0.000379302
0.000152049
0.00027414
0.000146063
0.000158589
0.000157343
0.000266312
0.000148245
0.000162875
0.00016708
0.000171561
0.0785781
0.000147398
0.0320847
0.000175392
0.000164351
0.00014949
0.000147692
0.0366996
0.0097117
0.000149033
0.000148042
0.000237606
0.000230514
0.000160569
0.0558919
0.000150734
0.00012216
0.00016322
0.000146005
0.0425736
0.000152743
0.0506787
0.000148414
0.000150788
0.000148736
0.0398039
0.0441224
0.000145789
0.000180497
0.000226165
0.000148278
0.000147923
0.000147559
0.000182012
0.0556386
0.000174309
0.000155287
0.000166993
0.000148137
0.000148627
0.000152974
0.000147924
0.000205263
0.00014871
0.000182112
0.000244446
0.000164219
0.000145282
0.03632
0.000183837
0.000148196
0.00017719
0.000162081
0.00011687
0.000153245
0.0797289
0.00017471
0.00014839
0.000182034
0.000182409
0.000154674
0.0831647
0.000180882
0.00016295
9.32793e-05
0.000148071
0.000184026
0.000168714
0.000181014
0.000147533
0.000148205
0.000145506
0.00015895
0.000178893
0.000178172
0.046617
0.0317867
0.0413837
0.000149759
0.000299383
0.0501783
0.061783
0.000148195
0.000148577
0.000176774
0.053997
0.000153007
0.000166762
0.010892
0.0343
0.0035788
0.000171342
0.000202247
0.0395751
0.000212804
0.000145566
0.0016443
0.00022561
0.000149821
0.000150315
0.000150868
0.0608328
0.000184075
0.0553932
0.000153089
0.0055415
0.000149104
0.000115614
0.0337118
0.00014935
0.000165494
0.049645
0.0462549
0.000173824
0.000151315
0.000152364
0.000149879
0.000184085
0.000195918
0.000559579
0.0596406
0.000146641
0.0176282
0.000190087
6.72082e-05
0.000148062
0.000149026
0.00205819
0.00018224
0.000148089
0.000172047
0.0001668
0.000160852
0.0433887
0.0592433
0.0662589
0.057878
0.000154496
0.000146141
0.000166038
0.0275864
0.0568411
0.000148618
0.000182152
0.000168713
0.000193234
0.000151213
0.000149685
0.000236643
0.00230426
0.0053057
0.000269712
0.0249053
0.000147672
0.000181754
0.0567244
0.000149422
0.000165557
0.000189895
0.000145901
0.000202757
0.0680067
0.000180024
0.000149677
0.0201371
0.000193406
0.0409726
0.000144669
0.000153801
0.000149135
0.000153069
0.000149021
0.000170562
0.000162535
0.000162269
0.000186089
0.000165193
0.0430018
0.000154104
0.000162019
0.00015762
0.0218973
0.000164878
0.0333449
0.000157414
0.000156199
0.0110481
0.000169666
0.000148749
0.000162548
0.00409071
0.059926
0.000243743
0.000148284
0.00014778
0.00014808
7.47936e-05
0.000151521
0.000334343
0.000258283
0.000181673
0.000160741
0.000209565
0.0287822
0.00014902
0.0594753
0.00015997
0.000163569
0.000148161
0.000148489
0.000174509
0.061157
0.000148416
0.0297097
0.000212077
0.000169845
0.000197284
0.000147693
0.000148061
0.000161332
0.000152317
0.0528547
0.023523
0.000169418
0.00023926
0.000148205
0.000148925
0.000149298
0.000149604
0.0827421
0.000152591
0.0425118
0.00016868
0.000151311
0.000188248
0.000614367
0.0399922
0.0211805
0.000153214
0.000147804
0.000148802
0.00015385
0.000216003
0.000180128
0.0817383
0.000148965
0.00015077
0.000175708
0.000149709
0.000193931
0.00015224
0.000174554
0.000175798
0.000162523
0.000162634
0.000146377
0.000171869
0.000162118
0.000180035
0.000167579
0.000162888
0.000147011
0.000186878
0.000147616
0.000616862
0.0480747
0.000223945
0.000148761