/*--------------------------------*- C++ -*----------------------------------*\
| =========                 |                                                 |
| \\      /  F ield         | OpenFOAM: The Open Source CFD Toolbox           |
|  \\    /   O peration     | Version:  v2012                                 |
|   \\  /    A nd           | Website:  www.openfoam.com                      |
|    \\/     M anipulation  |                                                 |
\*---------------------------------------------------------------------------*/
FoamFile
{
    version     2.0;
    format      ascii;
    class       volScalarField;
    location    "200";
    object      omega_0;
}
// * * * * * * * * * * * * * * * * * * * * * * * * * * * * * * * * * * * * * //

dimensions      [0 0 -1 0 0 0 0];


internalField   nonuniform List<scalar> 
13917
(
0.0392127
0.0221565
4.78384
0.0233984
0.0221081
0.430756
4.43143
4.9704
5.92543
0.0632195
0.145822
0.0624018
0.0234668
11.6818
0.026047
0.0248806
0.0222749
0.0513376
0.0612731
0.0221135
0.0222667
4.35119
0.0220933
4.96949
0.0220092
4.18
0.041071
0.0532923
0.72242
0.0972796
0.0417124
0.0275712
0.0357206
0.0255818
0.0220257
0.536838
0.0221019
3.91117
0.0250616
6.34308
0.0219017
0.0222857
0.0215808
0.0810234
0.0220412
0.0272604
0.0505546
0.0665397
2.86146
0.0220196
0.0264209
0.0223368
3.39129
0.0259613
0.0222879
0.0264409
0.144158
0.0220257
0.0247404
0.022002
10.5349
0.0221584
24.2842
0.0221021
0.40255
16.303
0.0221036
0.0220451
0.160588
0.0358447
0.0221159
5.95676
4.41536
0.0220156
2.90863
0.072979
5.74939
0.0226527
3.96238
0.0222365
0.0222042
0.0221111
0.375656
3.8987
4.89685
0.0225607
0.0221798
12.9084
0.0261701
0.0215715
4.20968
0.0846463
0.021872
0.0229698
14.5765
0.376262
0.111983
0.0615072
0.125343
0.107934
0.021818
0.0323156
0.0814641
0.0230175
0.0217956
6.20825
0.433928
0.0701122
0.0222787
0.0445922
4.48181
5.5984
0.07944
6.12154
0.0229484
3.18373
0.0220086
1.48287
5.24992
0.0259586
0.0222738
0.157096
4.7446
0.0501925
0.0219801
0.0228088
0.022014
0.0219878
0.0216044
0.415521
3.69555
0.0228549
0.0220638
0.0222742
2.83976
4.93483
0.0397416
0.113199
0.0220964
0.0258513
0.244623
0.0217606
0.0225642
0.100284
0.0220451
5.96202
0.761911
0.0222834
0.0217357
0.0281932
0.0532097
3.20045
0.0815527
0.0407898
0.0266632
6.49521
0.0344328
2.27067
7.69401
3.01512
0.0241815
0.0415395
0.0222365
0.107098
0.0778492
0.12306
0.0229898
0.0567397
0.0218905
0.033287
0.0410678
6.88279
0.0863773
0.022574
5.48981
0.0447394
3.68587
1.95551
5.8446
0.0219189
0.0881602
0.0431804
0.0217545
0.0221709
0.0297934
4.30381
0.321186
8.50777
0.0356197
0.114658
0.244212
5.43814
0.294221
0.0221037
0.119988
0.0399553
0.0224404
0.0218797
0.226564
6.45519
0.0257926
0.022035
0.0526856
0.0525153
4.81644
1.19345
0.0220281
0.0220396
0.0600761
4.53184
0.0224662
4.44874
6.68102
0.115056
0.0218037
0.570062
0.0526296
6.27834
0.0219632
11.2094
0.0219133
0.0868577
0.0218936
3.96682
6.26722
0.025201
1.90029
0.0269787
0.0218073
0.529787
0.0846889
0.0352226
4.85763
8.9237
0.0217738
0.0280454
4.18492
4.68617
0.0222286
0.0219495
5.085
0.126959
0.0222668
0.212303
0.0922556
0.0401541
0.0364953
0.0222285
0.0445318
7.40493
0.0219006
0.112809
0.139443
0.0219914
0.0220158
0.0649511
3.82987
0.0767023
0.030101
0.0261895
0.0222712
6.1524
7.18543
0.191651
0.0218154
4.67737
6.51304
3.29072
3.89696
0.0776737
0.022215
0.0219364
0.0507533
4.16998
0.113254
0.024472
1.62735
0.0408687
0.0215977
8.52702
0.02209
5.5056
0.0253615
0.022262
0.0271379
0.0404682
0.0417174
0.203635
0.032107
0.0219999
0.323329
4.88628
7.1766
0.0219647
3.98677
0.0221727
0.0219939
0.0220166
1.0967
0.0221057
0.0950225
0.0355929
0.0218718
0.0528237
0.0230314
2.39706
0.0435801
0.0772136
0.0217897
0.0220067
4.55522
5.407
0.0220026
0.0219147
8.58413
0.0218996
4.29196
0.0217839
3.98607
0.0223198
0.4503
0.0324115
3.03117
0.0238883
1.09563
0.305155
0.0271404
0.126438
0.504196
0.0222505
3.81021
0.120795
5.52466
0.0247686
6.69108
0.0287326
4.8853
0.245933
0.108773
0.10609
4.69573
0.0222166
0.0426003
4.48268
0.022162
0.0233955
6.18373
0.275635
0.0224974
0.229819
0.662708
0.0218603
6.27581
0.230605
0.0220836
0.0218935
0.0221803
0.0217304
0.332621
5.71082
0.693645
4.47531
0.0220138
0.126914
6.56699
0.0408442
4.36258
4.03787
6.19457
0.0217668
0.195262
0.0218732
11.2283
0.0220002
3.77062
0.0921788
0.0243632
0.0221982
0.0570319
0.0965142
0.0695067
8.62437
4.63274
9.73417
0.0464219
0.0592992
0.0219575
4.85135
4.21598
0.0220443
0.593061
0.0220414
0.319649
0.0223174
0.0222266
0.0230756
3.71115
0.0230407
3.53071
6.54526
0.131033
0.464797
0.0222393
0.482783
0.419044
0.0220385
0.306085
0.0221447
0.0220259
0.0974924
0.0222616
0.0220137
0.0218694
0.346847
0.0222477
5.62791
3.99399
5.10757
0.294576
3.48345
6.21735
0.0402648
0.0220205
0.166708
0.0248591
0.0292745
0.0220961
5.84892
4.42408
4.00853
0.0248555
0.104237
0.0245256
0.025486
0.0691271
0.0228719
0.230744
0.0222649
0.0220967
4.25286
3.67755
3.67743
0.124551
6.06702
3.77152
4.48125
5.74594
0.0216343
0.0550919
0.0229269
0.0220687
0.502581
0.0514491
0.0218737
0.0600952
0.0382792
5.84748
0.0220342
0.109997
14.9613
0.709739
4.49309
0.0222551
0.0220507
0.0224056
0.0346111
0.0217692
4.29961
0.549711
0.0319441
5.4517
0.0263659
0.10924
4.65578
0.775444
0.126572
0.244129
0.109593
0.0587284
0.155834
0.0408449
0.144514
0.588286
0.0461289
0.077475
0.0218605
1.43572
0.0271389
0.0216513
0.0331907
0.022752
5.42176
6.1165
0.0218949
0.0216144
4.48859
8.84637
0.0222618
5.84517
0.0227223
0.217608
0.0219089
5.09711
1.39111
0.0281202
0.0222729
3.46518
0.248831
6.9376
0.0222694
6.52361
2.45936
8.85119
0.0216606
4.6706
6.73662
0.0408997
0.0218866
0.022269
0.0732913
0.327273
0.0218094
0.0218997
0.0219597
0.021954
5.22074
0.575949
0.0403244
0.308329
0.021966
0.0218253
0.102141
5.57281
0.0326632
0.0219021
0.0220216
0.0220649
8.80456
6.03204
0.022174
0.022064
0.193203
0.0405218
0.0323772
0.022044
0.0231487
0.0266935
0.0757155
0.401987
0.32005
0.169527
0.0933454
1.18095
0.0755069
0.0219748
6.18472
0.0220686
0.0236683
0.0240157
1.44292
0.0744416
0.0218306
0.710058
0.109767
13.1571
0.0943605
0.0354256
0.0402223
0.0221895
7.02411
0.492687
4.3103
0.0221869
0.0289878
0.312137
4.04322
24.7756
0.0645072
0.143898
0.0248314
0.0239703
0.0220468
0.0539141
0.0864698
0.0221617
0.0521206
0.133198
4.4007
6.26543
0.0239087
0.105689
0.996164
0.0282014
0.0223773
3.52614
6.49274
5.78187
0.279423
0.0216187
5.68576
0.0717405
0.0218633
0.0309576
0.0707252
0.0343098
0.0953252
3.98469
0.151697
0.036414
6.96672
0.0230305
7.16599
0.0222373
0.0221674
4.13544
6.45373
0.630499
0.0230258
0.0225205
0.0220671
0.0414979
3.37332
0.116096
0.0241619
0.118061
0.0559516
0.0219132
1.95494
0.112855
0.232908
0.0219456
0.146934
0.0227298
10.628
0.0646354
0.0743304
0.029276
0.0218816
0.0216705
0.0220463
0.11701
0.0276265
0.318377
7.24646
0.056066
0.0218695
0.148527
0.660021
0.899738
0.0218797
0.027043
0.0219076
0.0282405
0.024895
6.57568
0.0222285
3.96815
0.0280029
0.144758
0.0856189
4.43945
0.0773005
0.0222251
4.39373
17.9368
0.0220252
0.0239394
1.69102
0.22648
0.113037
0.0222375
0.0222998
0.339157
0.024491
0.0689765
0.0619203
0.0216713
0.0524088
4.81913
0.0218631
0.0228552
0.0219795
5.5934
0.0222655
0.0245355
6.22857
0.0232713
6.37697
0.0267452
0.0364191
0.0219721
0.0496996
0.0220253
0.0573355
0.0218873
0.083676
0.0227238
27.5183
2.99655
5.61517
0.0222905
0.022206
0.0714751
0.0474554
4.82876
5.89969
0.0508839
0.0220301
0.340739
0.655382
0.23622
0.268603
0.0486068
3.93492
0.0386796
0.0389913
0.1426
0.179627
0.0501815
1.09275
0.0497291
0.0233643
0.0750988
0.0272444
0.0217227
0.0280434
0.0445658
0.0275584
0.0220323
0.0219279
0.056126
0.0231864
0.0698093
0.0220324
0.0220567
0.0222733
0.0230591
0.0215345
0.0255851
0.0219997
5.27098
0.0613462
0.365689
0.0217933
0.0222471
0.0478764
0.0597548
0.0226799
8.35994
0.077985
11.2856
0.0280965
0.119045
0.0223561
0.0222688
0.0219367
0.02305
7.97398
0.0222549
3.26036
0.0258535
5.94978
0.0486118
0.0792233
0.142159
0.0216733
0.022291
0.062425
0.0220448
0.0223825
7.94676
0.0226534
0.0221804
0.0274828
0.0219433
0.021671
0.0276165
0.0282195
6.23282
0.0345482
0.021862
0.0218773
4.08167
0.114938
0.022179
0.0221892
8.18984
1.3686
8.82689
0.0354576
0.0233734
0.0217851
0.021653
0.0469779
0.0355739
0.251289
0.0251136
3.90368
0.0222576
0.0235822
9.54338
0.022048
0.0272652
0.0219834
0.0220807
0.0431834
0.042497
0.0224119
6.35107
4.3923
0.0865326
0.0219708
0.0215868
0.112123
2.80937
0.0222612
0.828901
0.0215868
0.041977
0.0217118
0.0217601
0.331261
0.0219527
3.20121
0.0392308
0.0222731
0.0216123
0.0220658
0.0219074
0.0227764
4.15185
0.0218304
0.0217511
5.4052
5.99748
0.0375048
0.0461036
0.0652275
0.0248492
0.0217748
0.02803
5.10387
0.0884855
0.0221305
0.0222197
5.98775
0.0351246
4.59873
0.0222661
0.0227863
6.73036
0.0327044
0.022483
8.023
1.74165
0.0219044
0.12898
0.0219341
0.0219305
0.0217805
4.44315
0.0215275
0.0218806
0.021769
3.38707
0.0244294
0.215778
0.0637217
0.0217502
0.0327673
0.0221741
4.48734
0.0219647
0.0218465
0.0221814
0.116466
0.0221736
0.151416
5.83473
4.78404
0.0265228
0.283275
5.46222
0.0220025
7.06629
9.87827
4.94866
3.50242
5.29402
36.712
0.138261
0.0222924
3.91397
0.0326559
4.13806
0.0216557
0.0218667
0.0221805
0.0221673
0.0255953
0.030988
4.71231
0.0218572
0.0220714
6.40834
0.287136
0.0220667
0.0375208
0.0291091
0.0221567
2.79685
0.03939
0.0237053
0.0243706
5.78232
7.95717
1.30083
0.0216969
0.251578
0.109416
4.70292
6.24416
0.0847906
0.0219042
0.0224134
0.0222602
0.0214949
0.02314
0.0216275
0.0268013
0.037664
5.73908
0.125198
0.0218943
0.115945
4.52116
0.0408954
0.0222952
6.48851
0.0218569
0.0223049
0.0375482
6.75371
0.022174
0.0219465
4.45836
0.215689
0.690636
0.102447
0.572178
0.0219225
0.168823
0.0223235
0.0219993
0.0223168
4.27929
6.47414
0.0217427
0.0216082
0.022002
1.79937
0.022939
0.0291476
0.0220454
0.0223901
0.164372
0.0217645
0.0584833
0.337427
3.6727
0.0219644
0.0815558
0.0240814
4.60945
4.45342
0.0220158
4.60331
0.0695962
1.45257
0.0221726
3.66208
0.0222455
0.0262729
0.0419607
0.102548
4.4972
0.28926
0.163161
6.59935
0.0218632
0.299534
0.0217503
0.0272174
4.46012
0.0220784
0.0222529
0.0227244
0.0221333
5.26229
0.0216694
0.0220841
0.0533108
0.046098
0.0484541
0.596403
0.124456
7.76304
0.0627035
0.034404
0.0380856
4.7044
0.0385216
14.4261
4.11003
0.0250914
0.0217664
3.36971
0.23737
0.022287
0.107018
0.0330331
0.0222475
0.0259617
0.0221729
0.0419487
0.0222921
0.0476419
0.106843
0.021881
0.0595058
0.0217869
0.0585168
0.0218825
0.0260945
0.0562955
0.0233163
0.0220534
0.0217521
2.07909
0.0791244
6.22897
0.0220106
0.0221055
0.057098
0.0219844
0.0891383
0.0793273
0.0222492
0.0925409
0.0217725
10.2249
0.0222514
0.0359722
5.42865
0.292382
0.0219292
0.0235111
6.81321
0.0220016
0.0219191
4.56038
4.34483
0.0241873
0.153736
0.0221042
0.0220466
4.32253
0.0229237
0.0216835
0.270021
0.0217892
1.23134
0.0221979
0.0216872
0.0221815
0.126482
3.74635
0.0221113
0.0222506
0.0219234
0.0257109
0.0220777
0.984374
0.0573744
0.0222688
5.72992
0.048861
0.308553
3.7884
3.65585
0.0217318
0.0222381
0.0220335
0.73651
0.0262038
3.78907
5.84576
0.0238583
4.36396
2.31802
0.0480168
0.137812
0.0682734
0.380542
4.53415
0.061946
0.971775
3.93365
0.0610835
0.0250446
4.54299
0.0536997
0.0216671
0.0231617
13.9475
0.0376342
0.0218885
0.0515567
0.0981201
0.0378802
4.42128
0.0236265
6.56099
0.0381412
0.216149
0.121537
0.269213
0.028453
0.0217655
0.0225284
4.78298
0.0219943
0.0240537
0.0217943
0.023164
0.0218574
0.0350467
0.142219
1.91384
0.0436992
0.0584298
4.01815
0.348363
0.0218482
1.53124
4.19534
0.021721
0.0219102
0.030166
6.82501
0.0222544
0.0674773
0.595059
0.0471103
0.0220545
0.0229896
0.0218025
0.107351
0.0389606
0.0219908
31.1081
3.94691
0.0424306
1.00547
0.0619349
4.61727
0.0232085
0.0251223
4.29503
1.51294
0.085556
1.74315
0.0279255
0.0222763
0.0219163
0.0221491
0.0220243
0.0226103
0.0518403
0.0219374
0.116337
0.0219423
0.0279956
0.0217329
0.0786012
0.11542
0.755933
0.0219904
0.266353
0.021915
4.4065
0.0220358
0.0255643
0.0221245
0.251405
4.72127
0.133306
0.0219312
0.125612
0.0220133
0.0293153
4.28632
0.021907
0.0223374
0.0444332
0.0309335
4.36248
0.0219387
0.0295029
0.022981
0.0220412
0.0319862
0.0224285
0.0217479
0.0236138
6.46491
0.0242527
0.233195
5.79993
0.0502524
3.64814
0.0240215
0.0217542
0.030652
8.39496
0.0231772
0.0359928
0.0404689
4.11513
0.021894
5.73032
0.0608658
0.0680947
0.0217115
0.0216273
0.158074
0.0224047
0.0222859
0.0335684
0.0216659
0.024324
0.0281398
0.0667416
0.272021
4.35579
0.024857
0.0702722
2.90862
7.5337
0.0362675
0.258496
6.66922
0.0382018
13.3803
0.0236431
19.8275
5.20264
0.0216482
0.0222619
0.0219552
0.0224952
0.0440698
0.0217337
0.0238625
0.0849359
0.0231542
0.0351188
4.32528
0.0299959
0.0239303
5.93176
0.0224883
5.75444
0.0240874
0.0542093
0.0218838
6.82078
6.11516
0.0220121
0.0226059
3.80706
0.0293576
6.73089
0.0220229
0.0217868
4.39093
0.0225945
0.0440862
9.98741
0.0220658
0.0532414
0.0287602
0.0216229
0.0219032
3.88297
5.6943
0.0221618
0.0233437
0.0220459
0.0262633
0.0365311
6.02943
0.0226379
2.56744
3.91665
0.210625
2.09658
0.022548
0.115538
0.191214
0.0288706
0.0220614
0.0572657
4.15278
0.0233317
0.0458325
5.0449
3.63706
0.297895
0.0251665
0.022243
0.0222463
0.0220681
7.59182
0.052837
0.0236223
0.0227088
0.0241713
0.0222699
0.0219709
0.0220415
0.0691194
0.0367349
5.6207
0.0460721
5.13676
3.4532
0.0301681
0.0489516
0.0218108
0.0282337
8.27161
0.0221066
0.023453
0.0494114
0.11311
0.0561595
3.89358
0.223713
0.0218616
3.98516
0.0215909
0.0221989
0.0458163
0.0222734
0.0218955
0.161725
6.93896
0.0217949
4.23035
0.0220869
0.021722
0.0233713
2.69404
0.0287378
0.0240607
13.0955
0.0228345
0.251041
3.47845
0.0222462
0.0473233
0.0220113
5.92791
0.0686759
0.0220436
4.13408
0.0520528
0.0782055
0.0222785
6.64238
0.0290031
0.401953
0.0227977
0.0711114
6.89788
0.0217431
1.44474
0.0221012
0.0605526
0.0519324
0.0222453
4.59056
0.0235128
0.110805
0.0560704
0.0959305
0.0399913
0.0430391
0.0225703
5.00537
0.0316164
7.05205
0.0297448
0.0610584
0.0219456
0.0430028
0.0220409
0.0661804
4.64912
0.0226985
0.0218226
3.43506
0.0227239
3.12641
0.0224075
4.32395
0.250443
0.0346885
0.0219902
0.021939
0.0221095
0.0216259
0.0999875
0.0554716
0.0384092
0.0255465
0.0220835
1.68622
0.0234187
0.0335088
2.35336
0.0220294
14.3278
0.0492888
0.0291002
1.26146
4.39467
0.328021
4.48204
9.01087
0.0218871
0.356301
5.05685
0.357224
0.0221735
0.0222126
0.108112
4.07067
5.62292
0.610335
0.0222308
0.050568
0.0388578
3.48359
4.8829
0.040446
0.121159
0.0237826
0.078979
0.0853904
0.0221653
0.102293
8.14735
0.022131
2.44802
0.0222532
0.0219312
4.67837
4.10434
0.02185
0.0223012
0.0224105
0.0217945
0.0480108
0.16723
0.0229585
0.021989
0.0220992
0.0387466
0.0274477
0.0272064
0.336883
0.0220246
4.21272
7.61715
4.4007
0.1513
0.0510436
0.5358
0.0325798
3.87175
1.24449
8.83977
0.022385
7.03602
3.53407
0.0217688
0.0220364
0.101458
4.63476
9.95522
0.0217517
0.0220191
3.66459
4.21889
5.78048
0.0238366
0.0238882
1.88667
0.0221836
3.78691
7.35739
0.847638
2.18004
0.0220584
0.0219223
0.0218876
0.0261089
4.1911
0.0386472
0.0251556
0.0226203
0.0850896
7.24149
0.0387188
6.14974
5.32346
5.30918
2.17202
0.0220513
0.0221724
4.34057
0.0216584
0.0216658
0.0230024
2.8463
0.0362289
9.64958
0.128747
0.0220263
5.74728
0.0387475
0.0218621
6.06985
0.167285
0.0250298
0.0220542
5.13995
4.65982
0.0221803
7.56053
4.03476
6.41813
2.01845
0.0808293
0.0219255
0.0224859
1.68456
0.0253033
4.48553
0.04089
2.81517
0.270877
0.0228774
0.028868
0.0219214
0.0226842
4.82044
6.99601
0.0220686
4.89683
0.0411761
0.0220262
0.0247414
0.0219339
0.156954
0.02239
2.28384
0.0510069
0.0219166
0.0218746
0.0899523
8.02771
0.0378736
0.0238731
0.041951
0.0220361
0.0230159
0.0268916
8.88668
4.16522
4.64586
0.0217184
0.0218677
0.0223276
0.116511
0.021875
0.0223706
0.16256
0.0561981
0.41724
0.0216365
4.64299
4.13455
0.0222843
8.96442
0.109635
0.0358782
2.0537
0.0222773
5.18894
0.0293698
0.0230223
0.0238676
0.0216548
0.208078
0.0224249
0.0226703
0.0307213
3.57336
3.68414
0.0222461
0.0220229
0.0233883
0.0219664
0.129962
0.0224257
0.0821609
0.0233895
4.19636
0.0225731
4.30472
0.0217195
5.92701
0.0223456
0.0216385
7.19508
0.314218
0.115499
0.735915
0.0440563
0.0393577
0.0220443
5.2496
0.0220643
0.0218814
0.0877433
0.0611679
10.351
4.56445
0.119074
7.08041
0.126677
0.664057
0.0218797
0.0246938
0.0274023
4.29058
0.0248292
4.42577
4.56499
0.0221358
0.0220675
0.0220079
1.50119
3.3282
0.0232232
0.0221103
0.0256105
0.0277399
0.0369233
0.378491
0.311819
0.0220649
0.641777
0.0831468
8.48227
0.0697938
0.0231933
0.0237381
5.55928
0.0218847
0.0870315
4.61721
0.0226978
0.025191
0.167081
0.136194
0.022744
6.77104
0.0241879
0.29941
0.0389492
0.0301229
0.0226464
4.57612
0.0218604
0.0959163
1.44553
4.98774
0.0484205
0.0653728
0.02529
0.047317
0.0222658
5.19244
0.0262866
0.0219497
0.0293185
0.0220927
0.0222692
3.04903
0.022069
0.0221794
0.0220396
0.123627
0.0222446
0.0326906
0.0690852
0.227444
0.114385
0.0222537
0.235316
0.47038
0.216781
0.0831622
0.0274295
0.151877
4.79264
0.621207
0.0222845
7.62173
4.2279
0.0222839
0.0239577
0.0216452
0.744904
0.103767
0.0220062
1.29072
4.34734
0.0218114
0.0222103
3.83858
4.23606
0.0625164
0.0216574
11.228
3.35482
3.27459
0.0220284
4.31464
0.0785577
0.0701649
4.53108
0.0258511
0.021657
0.029536
0.185145
0.0312673
4.03184
4.73424
0.0218168
6.57261
0.504698
4.65785
0.0217167
0.0520449
0.0222906
0.0219224
4.27317
2.11041
0.282013
3.03304
0.0290752
0.0492403
0.0221879
4.88615
6.01884
0.0220484
0.0222166
0.0317546
0.0217861
0.0490814
4.5703
7.61902
0.0497618
0.0224119
0.0220986
4.28932
0.0249246
0.0510967
0.0217959
0.0229426
0.694666
2.43792
0.27293
2.92878
0.022171
0.301991
0.0222824
0.0473457
10.0168
6.87663
0.0220739
0.0222938
0.0345212
0.0256653
0.0221863
4.55415
4.32788
0.0217714
0.0215166
0.022191
0.0219693
2.68151
0.0217213
3.95267
0.0998932
0.0610637
0.0218471
0.047184
4.89873
0.0327759
0.439706
5.99592
0.0222397
7.1058
0.0330551
0.0356191
0.354428
7.30753
4.72449
0.0576758
0.021897
0.250135
0.0217315
0.0252335
0.0222048
3.94858
0.0315418
1.97666
0.236884
0.0472423
0.0221252
0.28379
0.0265216
0.0222704
0.265602
0.021599
0.0368226
0.0334367
0.0221668
10.0284
0.0233143
0.574543
0.022806
0.0219368
5.71263
3.76486
0.0240867
0.0325309
0.0378031
0.0567904
0.0559124
0.0258848
0.0257774
0.0249646
0.226105
0.0249881
4.04719
0.0589412
0.202673
0.111342
0.0225694
4.72577
0.0216103
4.56411
0.0241901
4.50015
4.56673
8.38331
7.56518
0.313162
0.0755932
0.0219778
4.39183
0.0841786
0.0220427
8.02762
5.71779
0.023257
0.0236044
0.0303364
0.0303411
0.0315724
5.25739
0.022284
0.0292051
0.034075
0.0319796
0.0221648
0.0806413
0.0216083
4.14483
0.023625
0.130916
0.03135
0.0386357
0.121369
2.33112
0.0846552
0.0218332
0.240805
4.35026
23.3761
0.0223287
4.18098
0.0284915
1.79305
0.0220645
0.0244345
3.93127
0.0498659
5.10173
7.48285
0.0333086
5.2902
0.0219659
0.0215976
8.99601
0.0589151
0.0243576
5.60349
0.0266703
0.045357
0.0291834
0.0696874
0.0221342
5.72556
5.28834
6.983
0.293151
0.0252721
0.0561263
5.09182
0.023978
0.022298
0.0806992
0.021692
0.290108
8.02822
6.52775
5.54486
0.0532946
0.0223902
4.34805
0.0215965
0.070538
0.0222352
24.6381
0.0236919
0.0469466
3.81831
0.115637
0.0220284
0.031918
9.62901
0.0220745
0.138684
0.0217843
9.64337
4.44406
0.108415
0.0799203
0.0219529
0.200928
0.129887
0.0384414
0.0217895
0.0224228
0.0221472
0.0523598
0.0221242
0.0815555
0.022123
0.0217891
6.84321
0.0218535
0.0265636
0.0248265
0.0222747
3.72164
0.0218521
0.0334644
4.13629
0.04692
3.95969
0.0220598
4.68227
0.0491996
5.38849
0.0234841
0.119436
0.0221257
0.0398258
0.115913
0.106457
0.243259
4.2725
0.211246
1.7852
0.0269451
0.104968
0.0414915
0.583621
0.0250157
0.0220765
0.0220282
0.0497682
0.045778
1.49648
0.0517387
4.67352
6.88874
0.102553
0.0220011
3.52348
0.198232
0.0224607
0.0240336
0.0220679
4.90025
0.0220323
8.42181
0.0218421
0.0266585
5.0128
0.0773522
0.0220445
0.0220231
7.84837
0.0218652
0.0239924
0.0249967
0.0321694
0.0273515
0.0221518
0.143968
0.0812499
0.0436236
0.305551
4.52997
3.71698
6.2304
0.0217349
0.021984
0.100606
0.0224004
0.0467763
4.12616
3.84914
0.0216539
0.0220445
3.46864
0.270309
0.0216697
0.0218342
0.0265524
13.6269
4.09652
0.0262893
0.0336519
0.0221997
0.366808
0.118685
0.140734
0.0316769
0.0438434
0.0224099
0.0375657
0.319333
0.0227575
0.0221145
0.0261068
4.59148
0.0251272
7.41671
0.0221082
3.89638
0.0361692
0.028104
0.0217789
0.0219264
0.776561
7.94522
0.0575706
4.28901
10.0596
0.0225179
4.12753
0.135199
0.0218865
4.24152
0.218457
0.108883
0.0222538
3.56477
4.60247
0.0219283
0.0392557
4.36387
0.0443965
0.0220451
0.0217827
0.0223476
0.0237571
0.0804034
0.307854
0.0774572
0.0765482
0.0217201
0.0221842
4.63908
0.0218354
0.047695
0.0265215
0.022093
0.0493028
0.0220269
0.0236706
0.330888
0.0220009
4.60141
0.0220222
13.556
3.73983
0.0915671
0.0222285
0.0222927
4.3809
0.0216432
0.0240529
0.0223313
0.328946
0.895321
0.0331231
3.74939
0.0414861
0.649596
0.0225346
0.0663325
0.0217792
0.0221404
5.07501
3.80275
1.21734
0.0236676
0.0666687
0.0664814
4.85706
4.21451
0.309974
0.0387844
0.0215917
4.28402
0.0218901
0.0219475
0.291057
0.107329
0.0282038
0.198008
0.0469526
0.0313981
0.0273734
5.52019
0.0242064
0.0219946
6.84119
0.0471688
0.0217118
3.53772
0.0220346
0.0221127
0.156668
0.150058
12.5227
0.0217288
0.0247329
0.0219148
2.2183
0.0218613
0.531085
3.39584
3.66734
3.52228
32.8863
0.0301989
4.57383
0.868586
0.02221
0.0304466
0.0434461
0.0303158
1.23731
4.22069
4.57535
3.6318
2.35685
0.0221467
0.100597
0.0220421
4.85203
0.0282617
0.0230477
0.0239618
0.0226343
0.021878
0.101661
4.585
0.0217225
0.0235347
0.0218663
4.62413
0.0233925
5.92088
3.8826
1.14999
0.0220957
0.0218845
4.44208
0.359942
0.0221399
0.295349
0.0222282
0.139351
0.185851
0.0922938
0.0495747
10.3821
0.0217948
0.0217803
0.223831
3.41373
0.0290514
0.0463828
0.0219338
8.6346
0.0220124
0.0219544
0.0230716
0.0219912
5.43283
4.09791
0.965514
0.0578198
4.40533
0.378908
0.02166
0.0304921
0.0216967
1.26586
0.0219668
0.024771
0.0219959
0.0219216
0.0217678
2.82832
0.0227342
1.69395
0.0215914
0.0325189
0.0228694
1.57781
0.0220487
0.0309583
0.034136
0.0687111
7.0954
0.0219176
4.33664
0.0676466
0.0452188
0.021967
0.0219482
3.58505
16.2171
0.0219816
0.0218699
0.27834
0.24828
0.0383868
4.04348
0.0227326
0.268694
0.0306549
0.0217059
5.4477
0.0229244
3.98339
0.0220272
0.022629
0.0221217
4.29397
3.65283
0.0216744
0.245114
0.238644
0.0220614
0.0218521
0.0218978
0.260462
4.13016
0.0636028
0.0240828
0.039104
0.0220321
0.0220442
0.0235754
0.0220065
0.174586
0.0220579
0.060653
0.607691
0.0355599
0.0216194
3.95437
0.0711657
0.0220412
0.079762
0.0300506
0.792924
0.0245082
10.492
0.055879
0.0219883
0.085691
0.0849886
0.0244873
6.34973
0.0573326
0.0292263
0.987961
0.0219358
0.149198
0.0877865
0.125073
0.0219416
0.0219718
0.0216399
0.0328341
0.0534024
0.0522544
6.48575
4.69851
3.91961
0.0222667
1.90894
3.8031
4.37523
0.0219971
0.0220197
0.0519431
4.20607
0.024106
0.0343498
32.1305
5.08134
15.8027
0.115097
0.162689
3.45377
0.382997
0.0216078
10.9691
0.255845
0.0222823
0.0222952
0.0227686
4.86417
0.095317
5.32669
0.0238659
7.25187
0.0221018
0.763558
3.90578
0.0222033
0.0333045
4.38925
4.7074
0.0545742
0.0227921
0.0236739
0.0223789
0.224879
0.115459
2.13248
4.2701
0.0217446
5.29227
0.164702
0.878489
0.0220306
0.0221653
2.18378
0.26307
0.0219568
0.0491686
0.0728734
0.0390555
4.10228
4.63024
4.90758
4.2595
0.0253815
0.0216582
0.0669182
4.60451
10.3714
0.0219219
0.271839
0.0919631
0.454725
0.0224168
0.0222563
1.19719
2.89197
5.79306
1.66117
4.27361
0.0219592
0.266254
4.24077
0.0222283
0.0625688
0.104253
0.0216832
0.157089
5.10129
0.241196
0.0222553
5.30657
0.113603
27.6672
0.0215086
0.0235157
0.0221431
0.0230417
0.0221117
0.053224
0.0400669
0.0422703
0.337357
0.0329966
4.27081
0.0252504
0.0284344
0.0278439
9.19315
0.0580783
5.08343
0.0279197
0.0277963
19.2856
0.0973473
0.0220674
0.0419451
2.96782
5.39652
0.319946
0.0219716
0.0219079
0.0219289
0.554622
0.0231141
2.48892
1.32832
0.25876
0.0316469
0.248387
5.67726
0.0221129
7.40263
0.0334001
0.0509382
0.0219343
0.0218931
0.052258
4.55312
0.0220808
5.0151
0.498686
0.098405
0.185341
0.021869
0.0220254
0.0294802
0.0228278
26.015
25.3778
0.0836096
0.7823
0.0219577
0.0220649
0.0221434
0.0222458
7.84019
0.0231167
4.63768
0.0869957
0.0224439
0.366493
2.26589
3.53161
8.70558
0.0234317
0.0217632
0.0221309
0.0233755
0.748035
0.24311
6.25411
0.0221554
0.022368
0.159041
0.0222602
0.200708
0.0236671
0.150191
0.170746
0.0411083
0.0396014
0.0217231
0.0462157
0.0379726
0.207005
0.0811074
0.0422517
0.0218696
0.241593
0.0218854
2.84358
3.73329
0.93295
0.0220677
0.109199
0.022015
0.0479781
0.0229015
0.0226297
0.0281494
9.05773
4.10518
0.0790796
0.0469314
0.223663
0.0769421
4.02309
4.46016
0.0308109
4.35609
0.346162
0.0218433
0.0565251
4.47893
0.0971558
0.022236
0.0530423
2.25428
0.335669
8.22796
0.0221136
0.394934
0.0220982
0.0219287
0.0409006
0.205703
0.0222639
4.30601
5.31316
0.200849
11.43
0.366849
4.97399
0.305979
0.0217231
0.0246296
0.0216445
0.0430143
0.276871
0.372937
0.0243053
0.0415049
0.0216308
4.53669
0.0375684
0.0467942
4.1239
0.0993738
6.89596
4.99311
0.0219658
6.79911
0.0221175
0.0282301
0.0469147
3.92897
0.145503
0.0277889
0.0231126
0.57824
0.0339973
4.32854
6.09143
0.03183
3.34935
0.0439154
0.022273
1.16578
0.0616424
0.0229807
9.17505
15.7126
0.0295001
0.0260025
0.124803
5.89216
0.0219545
0.0221863
0.0216701
0.0217582
0.0223284
4.85244
0.0313642
4.00259
0.0219572
0.0219184
0.863333
0.0221559
0.0236996
0.0220585
0.0220324
0.935722
0.0217526
4.74847
0.0219748
0.0229951
0.0410362
0.0221741
0.144243
0.0217647
0.0222651
0.0217832
0.027455
0.0891163
0.0243251
3.73633
0.0219312
0.0433398
0.029341
4.43049
0.0227488
0.0222687
0.0216958
0.0216827
0.39314
0.0219039
0.0218815
0.0244353
1.62318
0.0219361
0.0426153
0.0324652
0.0220133
4.8755
6.87784
0.222778
4.94738
0.0246476
0.105684
0.0221473
0.09978
0.340457
0.0222678
1.22057
0.124835
4.60442
0.0306097
0.0220321
1.5755
0.0429327
0.759191
5.27796
0.0215789
0.0219803
7.48056
3.34007
0.0572643
0.0561619
0.0230161
10.9023
5.66302
0.0215122
0.0219656
0.0220783
0.0221734
0.022248
0.022036
0.0355065
4.42068
0.0308393
0.0221859
0.437494
0.0219871
0.789545
0.0460614
0.0220578
0.027236
0.0219141
0.35632
0.0248349
0.0509941
0.0219585
0.0222269
4.63038
5.0047
0.0221773
0.0498086
0.0443057
0.0308363
0.0238949
0.0222713
0.0227021
1.49824
0.534933
0.0392206
4.87478
0.0224412
24.8806
0.101825
0.025715
17.5897
0.0230477
4.38557
5.39221
3.52235
3.28367
4.25474
3.79782
0.0216425
0.0269964
0.0247319
0.0216334
0.0217312
0.0288237
0.0760005
0.0217706
0.02928
0.115926
0.0746281
0.333744
0.205094
0.0332428
1.67268
9.49311
0.0338633
0.0248845
0.122672
8.96708
3.92859
0.025479
0.0216198
0.0218666
0.0217741
0.0314005
3.90265
0.358252
0.0217361
4.76803
0.0219808
0.132533
4.15913
0.0807076
0.188076
0.0895367
0.327813
0.0228129
0.0332191
0.0218642
0.234555
0.0219627
0.0229113
0.0325927
0.144717
0.0221768
0.0244544
5.89387
0.0218209
0.0220207
0.0290149
5.76411
0.113633
0.270458
0.0385542
0.0221497
3.43561
0.0371932
0.0232127
0.022019
0.0305099
0.0264213
0.0220297
0.0275487
4.49926
0.0234971
0.0216491
0.0466501
0.0218817
0.0315392
0.0300651
0.0220678
0.0219963
4.69593
0.0217145
0.0220322
0.021655
0.0256713
0.0214797
5.00372
0.0256773
0.207994
0.0219613
0.0218869
0.0220338
4.47423
0.0624929
0.0220395
0.0216081
5.60483
0.0250518
0.0648784
0.0218589
0.146036
0.0233117
0.0215578
3.05196
0.0217528
0.0222516
0.0221469
0.0219674
0.0241191
0.0221271
0.022036
1.61893
1.5359
4.65989
0.199755
8.6424
0.0218536
4.86573
0.0219674
4.09549
8.21733
0.0217998
10.588
0.0219794
4.23169
11.8962
0.27235
4.25991
4.02058
0.787934
1.82678
6.24973
5.27784
0.042707
0.0411352
4.64787
0.023472
0.0216604
1.00136
0.0237463
0.0281486
11.9096
0.022933
0.541874
3.74805
6.56224
0.379285
0.111858
0.0222518
0.0281411
0.0481949
0.0222339
7.03469
0.347054
0.108898
0.0219064
0.0220694
8.26256
0.0216916
0.681879
0.0218369
9.35895
4.59465
0.0341138
0.025996
0.0219946
10.4442
4.06104
0.0253322
0.0333647
0.0222857
0.0222855
0.0558715
0.0231455
0.0319621
0.0657948
0.0241859
0.0322096
0.0220394
0.0319195
15.6817
0.0224648
10.8446
0.0219385
3.4689
0.0542747
0.0220386
9.39835
0.119273
0.0218496
0.153339
0.0220369
0.253379
0.0221917
0.0220093
3.92351
0.0221461
0.103414
0.0232847
0.131569
0.0218367
0.0223257
0.0218597
0.029928
0.0241834
0.0222836
0.0225829
0.0252777
0.0224359
0.117252
0.063421
0.0292661
0.0233526
0.0216283
2.34663
6.98245
0.0227595
0.02252
0.0226369
0.0374621
0.0222044
0.0346941
0.0215687
0.0222853
0.250268
0.0233166
0.0222846
0.0219023
4.9148
11.3275
0.0215967
0.070391
0.0581007
0.228843
0.225818
7.13697
4.51685
0.619588
0.0228582
0.130392
0.0219281
0.0312994
7.37966
4.58131
0.133121
0.0239011
15.8181
0.0220416
0.0459569
0.406709
0.0222166
0.128541
0.0233826
0.0231904
0.0736054
0.139131
3.91671
3.47804
0.0218275
0.0215969
4.85145
3.87645
0.0222263
0.0289492
0.115273
0.0220574
0.0220156
0.0239935
1.69739
0.0217718
4.34899
0.0294
0.022189
0.202339
0.0707892
0.0658288
0.113288
4.87011
0.0243843
0.0340768
0.0274565
0.0237181
9.89378
0.031156
4.20792
4.34733
0.0656185
4.16448
0.0455697
0.0472765
0.335149
0.0217247
4.51251
0.0876433
0.0334396
0.0289811
0.0221777
0.0216597
4.12301
0.0426568
4.26481
4.30158
0.0221158
4.34875
0.0218361
0.0219525
0.0286457
11.5762
0.0713223
0.0216789
4.05745
0.0219868
0.0237446
3.98402
0.0235877
3.55761
0.0222727
4.59131
2.66795
0.0690159
2.0318
0.0233476
3.5504
0.0216209
5.40922
4.85472
4.52928
5.20857
0.0219455
0.0218136
0.233608
3.79074
3.54353
3.89676
3.84773
0.0221272
5.08185
3.5397
0.0224008
4.14658
0.0315212
0.0327342
12.2933
0.0378884
4.38755
0.0219288
0.037499
0.0339564
0.200102
6.43158
0.0364871
3.66123
4.44178
0.0221719
0.0245653
0.0237388
0.0246431
3.55531
0.0220134
0.0217608
0.0389897
3.80071
3.99832
0.0278708
3.94619
4.21094
0.0219578
8.7668
4.80389
0.165769
4.06801
0.0653031
0.0243153
0.0221725
0.153592
0.0261823
0.079624
10.1684
4.63694
0.0288801
0.0699774
0.0257313
0.0378779
0.0216531
0.0405636
0.0246646
0.0892758
4.6111
5.88441
3.82899
0.0216588
0.124744
0.0605232
4.38739
0.0232248
4.81724
4.72952
4.49826
0.0221119
0.171493
4.66386
10.9697
7.64882
0.0361956
5.52213
2.94636
0.0603223
0.065547
0.0239528
0.0291034
4.94351
0.0452788
0.0221862
3.41231
0.0220225
0.0222459
0.116551