/*--------------------------------*- C++ -*----------------------------------*\
| =========                 |                                                 |
| \\      /  F ield         | OpenFOAM: The Open Source CFD Toolbox           |
|  \\    /   O peration     | Version:  v2012                                 |
|   \\  /    A nd           | Website:  www.openfoam.com                      |
|    \\/     M anipulation  |                                                 |
\*---------------------------------------------------------------------------*/
FoamFile
{
    version     2.0;
    format      ascii;
    class       volScalarField;
    location    "650";
    object      nut;
}
// * * * * * * * * * * * * * * * * * * * * * * * * * * * * * * * * * * * * * //

dimensions      [0 2 -1 0 0 0 0];


internalField   nonuniform List<scalar> 
13851
(
0.000661064
0.00163299
0.0017394
0.00405262
0.00672175
0.00128844
0.00295526
0.00675685
0.0128786
0.00673229
0.000371321
0.00672293
0.00302267
0.00517484
0.00117971
0.00152378
0.00231065
0.00423574
0.000686549
0.000759201
0.001023
0.000771933
0.00147456
0.00672545
0.00213591
0.0021182
0.000650729
0.00160768
0.0121528
0.00673865
0.00971439
0.00350175
0.000840159
0.01376
0.000498001
0.012067
0.00672578
0.00190579
0.0139586
0.00295078
0.0139224
0.0121557
0.000193736
0.000176877
0.0121633
0.00584042
0.00674357
0.00149509
0.0014441
0.00284134
0.00325141
0.00284953
0.00152466
0.00206173
0.00470647
0.00278822
0.000714457
0.0146541
0.000636094
0.00500431
0.00672295
0.000735216
0.00672453
0.00136589
5.21762e-05
4.34785e-05
0.00303081
7.74689e-05
0.00291342
0.00623271
0.00943179
0.000905137
0.00373643
0.00368373
0.00182386
0.001077
0.00371108
0.00673336
0.00185146
0.00672942
0.00255095
0.000470603
0.000494116
0.00601484
0.00541615
0.00983471
0.000812409
0.00289955
0.00634162
0.00961554
0.00200518
0.00302585
0.000306051
0.00912268
0.0138261
6.85032e-05
0.00634764
0.00149295
0.00354056
0.000201495
0.00145349
0.000158766
0.000136249
0.00324602
0.00639031
0.000703434
0.00555091
0.00986755
0.00310172
0.00454271
0.000462305
0.00615138
0.000443229
0.000487361
0.000883326
0.00216525
0.0067265
0.00674747
0.00341615
0.00666844
0.000102913
0.00615362
0.00244314
0.0119895
0.000496789
5.00766e-05
0.00579749
0.000297673
0.0143274
0.000989099
0.000774765
0.0007825
0.000919863
0.0138426
0.000422759
0.0137495
8.88199e-05
0.00969028
0.000211323
0.0011842
0.000412267
0.00148784
0.00609108
5.87098e-05
0.00354104
0.00126177
0.00673272
0.00919632
0.0109013
0.000286329
0.00141646
0.000424718
0.000487262
0.000548591
0.00194483
0.00420654
0.00672289
0.0137301
0.00119
0.00272292
0.00672498
0.0121329
0.000797836
0.00139483
0.00543348
0.0129282
0.012954
0.0046813
0.000493186
0.00926111
0.00672311
0.00672548
0.000665037
0.00672228
0.0142272
0.000564906
0.00116892
0.00672643
0.00189486
0.00131701
0.000603167
9.4923e-05
0.000534376
0.00115457
0.000210755
0.0111482
0.00083774
0.00033164
0.00235179
0.00674168
0.00138153
0.00123021
0.00315196
0.00119866
0.00115134
0.00150928
0.000740279
0.00380348
0.00296684
8.84524e-05
0.00040797
0.0145498
0.0147529
0.00134248
5.51531e-05
0.0140331
0.000926852
0.00154327
0.0130515
0.00119222
0.00152907
0.00333296
0.000431201
0.00672519
0.000545505
0.000965052
0.00299942
0.000749323
0.00323573
3.29569e-05
0.00672552
0.000713363
0.00432639
0.0140031
0.000366131
0.00142025
0.00672573
6.65085e-05
0.00672474
0.000488873
0.00433363
0.000366008
0.00124607
0.00672398
0.0146317
0.00673968
0.000922434
0.014724
0.000197872
0.00672522
0.000265679
0.00574351
0.0119145
0.00153677
0.00104677
4.96318e-05
0.00072578
0.00183181
8.23451e-05
0.000460227
0.00339323
0.000561881
0.00673433
0.00141939
0.00148147
0.0120337
0.00487502
0.00674027
5.13218e-05
0.00654447
0.00078218
0.000644542
0.00154883
0.000859285
0.000490044
0.00461322
0.000146889
0.00137047
0.0010214
0.00672401
0.00321813
0.000365294
0.0132725
0.00178688
0.0010281
0.00563452
0.00058413
0.000576556
0.000882379
0.000869825
0.013411
0.00331696
0.00125564
0.00139538
0.00225063
0.0059131
0.00672277
0.000787968
0.000368757
0.00674325
0.00672513
0.00672511
0.00672126
0.00116523
0.00672273
0.0130576
0.00104811
0.00412541
0.012054
0.0112834
0.00242026
0.000689867
0.00322179
0.00132914
0.00214876
0.000982359
0.00537028
0.00992578
0.000707162
0.00672097
0.00988431
0.00672306
0.000612322
0.00486005
0.000615351
0.00268367
0.00109582
0.000360276
0.0108541
0.000421711
0.000135442
0.0142653
0.0133494
0.00177498
0.00276175
0.00454274
0.000352938
2.70406e-05
2.83019e-05
0.000762555
0.000700092
0.00038421
0.00340831
0.000115141
0.00672033
0.00673062
0.00081791
0.0103101
2.80578e-05
0.00589685
0.0136788
0.000367377
0.000730652
0.00267151
0.00393749
0.000630954
0.00150462
0.00104219
0.00134181
0.0118528
0.00217753
0.000519091
0.00135768
0.000926232
0.000351133
0.00620254
0.00365177
0.000273363
0.00020465
0.000585928
0.000487234
0.0118305
0.00102448
0.0145859
0.000631428
0.00675456
0.00105241
0.000791966
0.00500042
0.00085304
0.00239365
0.0010174
0.00128789
0.000288892
0.00446761
0.0022542
0.000415645
0.000446952
0.00106324
0.00529655
0.000966113
0.0148681
0.00145281
0.00211988
0.000592341
0.000230602
0.00391075
0.00138388
0.00033795
0.00184506
0.00547201
0.000990818
0.00964413
0.00379935
0.0012029
0.00210076
0.00148337
0.000295408
0.00167567
0.0086889
0.00102303
0.00194329
7.7975e-05
0.000518524
0.000793193
0.00348905
0.0037723
0.00028221
0.00469907
0.00033499
0.000841061
0.0021649
0.00594214
0.000227676
0.0103621
0.00177229
0.00134667
0.000522731
0.000669991
0.00204664
0.00673793
0.00260683
0.00030516
0.00130753
0.000406181
0.00282871
0.00411586
0.00672257
0.00334317
0.000601218
0.00616749
0.00172104
0.00120963
0.00672495
0.00962715
0.000640877
0.000898062
0.00203441
0.00208274
0.00242481
0.000984593
0.00379266
0.00246444
0.00606253
0.00989076
0.00079477
0.000798973
0.00672437
0.00672261
0.00142332
0.000605937
0.00194731
0.00491408
0.00207404
0.000107687
0.00217924
0.00925423
0.00672278
0.00197998
0.0121148
0.000263986
0.00672828
0.00672336
0.00202156
0.00363986
0.000254331
0.00771961
0.00109681
1.4792e-05
0.00149865
0.00672371
0.0139812
0.00071642
0.000227359
0.00351685
0.0129374
0.000240783
9.07158e-05
0.0030196
0.000748228
0.000291622
0.0015989
0.0139165
0.000706846
0.000941693
0.000892432
0.000426289
0.00467719
0.0120754
0.00194095
0.000789853
0.000924773
0.00108518
0.000250405
0.00065937
0.00672153
0.00204864
0.0139286
0.0073529
0.00121862
0.00683903
0.00704052
0.000536704
0.00041468
0.00672462
0.000393439
0.00673167
0.00630912
0.000336194
0.0145462
0.00184793
0.00145325
0.000136647
0.00068031
0.00605746
0.00823313
0.00674022
0.0142297
0.000267464
0.00673038
0.00238297
0.000333673
0.00105318
0.00674232
0.00470989
0.000958385
0.00677469
0.0126181
0.000614149
0.000688878
0.00101718
0.005984
0.00493536
0.00678053
0.000616342
0.00288888
0.00545846
0.00433348
0.0148602
0.000818583
0.00188606
0.00654359
0.00173354
0.0143116
0.0139028
0.00660767
0.00396304
0.00566454
0.00261574
0.000785974
0.00251701
0.00673817
0.00100801
0.0128548
0.000274089
0.012508
0.00190927
0.00652094
0.0122814
0.00672428
0.000339375
0.00188879
0.00177096
0.00104717
0.0107315
0.00481851
0.0013567
0.00240089
0.00282909
0.000550927
0.0121205
0.00729589
0.00270447
0.00491143
0.000134862
0.0127208
0.000955134
0.00159199
0.000444919
0.00229117
0.00141804
0.00424339
0.00864706
9.42793e-05
0.014201
0.000826535
0.0118146
0.00223512
0.000402056
0.000730606
0.00672339
0.000602755
0.0103619
0.000490999
0.00113224
0.00330872
1.43187e-05
0.000219099
0.00301398
0.00417037
0.00672297
0.000475845
0.000642221
0.00672277
0.01426
0.00672288
0.000908917
0.000871263
0.00217516
0.00317011
0.00530315
0.000325989
0.0037675
0.000763264
0.0134751
0.000778754
0.00672586
0.00676934
0.000658381
0.00210906
0.000482481
0.00178189
0.00024996
0.000687806
0.00672418
0.00332663
0.00672551
0.00210725
0.0031908
0.012042
0.00036442
0.00237597
0.0001281
0.000180101
0.0125725
0.00568399
0.00891012
0.000381909
0.000991284
0.00162222
0.0001933
0.00675814
0.000444548
0.00402458
0.0119633
0.00375913
0.00263226
7.34133e-05
0.00930806
0.00672571
0.00672555
0.00191398
0.00224506
0.00398093
0.00205029
0.000553264
0.00222927
0.0049805
0.000455187
0.000531732
0.000230132
0.00673248
0.00119866
0.000163479
0.0019683
0.00136204
0.00121062
0.000225741
0.000470159
0.0014527
0.000929586
0.000945972
0.000111941
0.000114207
0.000609338
0.00849139
0.00364517
0.0015213
0.0087653
0.000289391
0.00514577
0.000695661
0.00459039
0.0013793
0.000502539
0.000774442
0.00672878
0.00672765
0.00210246
0.00360409
0.00197594
0.0145094
0.00672614
0.00480789
7.56335e-05
0.00286502
0.00042469
0.00112914
0.0018257
0.00405604
0.00022466
0.000308581
0.00082889
0.0023026
0.000345159
0.00208989
0.000863603
0.000841654
0.000455728
0.00419495
0.00672538
0.000934507
0.00530557
0.012226
0.00672098
0.000822485
0.0132957
0.000387627
0.0141189
0.00440336
0.000847016
0.000223801
0.000384121
0.00672376
0.00338439
0.00673184
0.00642699
0.00672235
0.000561658
0.000431895
0.000147533
0.00147926
0.00125148
0.0128882
0.00672632
0.00475189
0.000508443
0.00672604
0.00672368
0.0124079
0.00123655
0.00380506
0.00995071
0.00106684
0.000779761
0.00677296
0.0139867
0.000865647
0.00186712
0.00041778
0.0067238
0.00144902
0.0056647
0.00170654
0.00402746
0.000852918
0.000834055
0.000323088
0.0134675
0.000335502
0.000588154
0.0119234
0.00673079
0.011982
0.00672402
0.00236547
0.00161665
0.00115547
0.000916399
0.000325919
0.00076795
0.00672468
0.00672631
0.000571558
0.00221999
0.00672489
0.00206287
0.000260283
0.00672101
0.000165775
0.000243948
0.00258408
0.000342274
0.00851491
0.000204898
0.00672368
0.000277016
0.00672625
0.0013537
0.00738006
0.0117913
0.00991986
0.0115958
0.00252787
0.00277057
0.000130753
0.00129506
0.00606172
0.00119731
0.000724911
0.00587257
0.00208202
0.00121985
0.00445362
0.00673905
0.000348125
0.000716967
0.00201904
0.00672527
0.000918604
0.000396563
0.0146411
0.00198201
0.00672323
0.0028355
0.00146657
0.000966263
0.00672419
0.0146667
0.00675337
0.00397402
0.00672562
0.000199731
0.00105874
0.000114549
0.000871285
0.00378219
0.0016304
0.006721
0.000839556
0.00142563
0.00705817
0.00265797
0.00418557
0.0138391
0.000857592
0.00672044
0.00265119
0.00722827
0.0012359
0.00140838
0.00352385
0.00287001
0.00436904
0.000573493
0.00672385
0.00672096
0.00290415
0.00108661
0.00672333
0.00193774
0.014479
7.7867e-05
0.0108683
0.00673841
0.00975161
0.00672443
0.0067209
0.0020937
0.00672307
0.00672521
0.0105978
0.00828999
0.00319987
0.00672283
0.00078795
0.00603686
0.0034942
0.000284234
0.00686578
0.0143129
0.00190585
0.00143698
0.00672348
0.0010373
8.83835e-05
0.00584725
0.00672424
0.000244703
0.00407768
0.000850161
0.000516481
0.00104962
0.00672433
0.000719934
0.00124538
0.00277007
0.001164
0.000307545
0.000697883
0.00672491
0.00360612
0.00362947
0.00637174
0.000893854
0.00397608
0.000965191
4.91025e-05
0.0024737
0.000241736
0.000829626
0.00672067
0.0123793
0.00134528
0.00672038
0.00286697
0.00151426
0.0144246
0.000507803
0.00672982
0.000699313
0.00542142
0.00146466
0.000485545
0.00102062
0.00106234
0.0146874
0.00672285
0.000976178
0.00063492
0.000815851
3.04038e-05
0.00155325
0.000482874
0.00196197
0.0146307
0.00417652
0.00570689
0.0010687
0.00960561
0.00281379
0.00356637
0.00115703
0.00376523
0.00231413
0.0067257
0.00207483
0.00672371
0.0141099
0.000558997
0.00042684
0.000430611
0.000974002
0.00673657
0.0025711
0.000812867
0.00248935
0.000745487
0.0128864
0.000778871
0.00117124
0.000320582
0.0100761
0.00137187
0.0109484
0.00672899
0.000413846
0.00135139
0.00406885
0.000342158
0.00672389
0.00672949
0.000132376
0.00352279
0.000268643
0.00211146
0.000508252
0.000386557
0.000687309
0.000527043
0.00369031
0.0137642
0.000647696
0.006725
0.000725644
0.00152988
0.0113679
0.00113283
0.000143681
0.000706622
0.0015335
0.000243661
0.00305989
0.0114834
0.000808604
0.00485727
0.000579599
0.00672607
0.00679159
0.00069211
0.00403931
0.00350142
0.000313687
0.00672448
0.000722171
0.000266977
0.00564721
0.0118216
0.0032534
0.000798695
0.0018561
0.0113041
0.000650155
0.0067222
0.00361953
0.000602521
0.00619293
0.00673105
0.00183461
0.00202041
0.013284
0.00845543
0.00164303
0.0130658
0.00156106
0.00503213
6.51695e-05
0.00672707
0.000255608
0.00612761
0.00672121
0.00109477
0.00223601
0.0130281
0.00370865
0.000974741
0.00454438
0.00920055
0.000381776
0.00368851
0.00238419
0.000417227
0.00644888
0.00677916
0.00049046
0.00181133
0.000822001
0.00674178
0.000483905
0.000900264
0.000637904
0.000449487
0.00677616
0.00673718
0.00266835
0.000922277
0.00212098
0.0143815
0.0012318
0.0067234
0.00587532
0.00672737
0.000957516
0.000876661
0.0116276
0.0127932
0.000343579
0.00672379
0.000304692
0.00366164
0.00364128
0.00760202
0.000320178
0.00514546
0.0122412
0.00846983
0.00174443
0.00125417
0.0112907
0.0011489
0.000312087
0.000113208
0.000180048
0.00215645
5.99249e-05
0.0047417
0.007336
0.00160534
0.00672903
0.000874178
0.000266191
0.000378793
0.00111665
0.00672284
0.00171525
0.00101517
0.00199496
3.52593e-05
0.00672377
0.00774759
0.00400238
0.00441179
0.00132279
0.00200586
0.00672335
0.0117912
0.000704383
0.0140293
0.00928231
0.00672371
0.00100315
0.000901424
0.0019988
0.000972849
0.00117664
0.00672535
0.00134286
0.000559744
0.00624004
0.00106105
0.00377926
0.00107876
0.00140934
0.000120384
0.000692283
0.000624114
0.00573446
0.000500721
0.0106453
0.00100396
0.0085166
0.00811985
0.013057
0.00891613
0.00572182
0.00673252
0.00425228
0.000967904
0.00181641
0.000647319
0.00193984
0.00418507
0.0067231
0.00628991
0.00105737
0.00673271
0.00161241
0.0010831
0.00556898
0.00124717
0.00672564
0.00672388
0.00418469
0.00672305
0.000266625
0.000988108
0.000331002
0.00874293
0.00672889
0.00570442
0.0142714
0.0137321
0.00303015
0.00307333
0.000138165
0.00443365
0.00672551
0.000190514
0.00144651
0.00672503
0.00267447
0.00523692
0.00240767
0.000687524
0.000257384
0.00361775
0.0043801
0.000524372
0.000746564
0.00672587
0.00557386
0.00435261
0.00108296
0.00672369
0.003292
0.00124537
7.79452e-05
0.00246795
0.000570658
0.00955921
0.00119923
0.0135881
0.00431415
0.00391373
0.000207325
0.00672588
0.0015189
0.00205679
0.000156223
0.00221752
0.00503631
0.00672175
0.00550945
0.0021684
0.000421058
0.000937604
0.00292817
0.00672461
9.03126e-05
0.00675867
0.00815834
0.00672374
0.000944822
0.0017626
0.00680861
0.000433363
0.0067237
0.000734419
0.00672356
0.00218325
0.000225694
0.00269675
0.0012785
0.00672587
0.00153842
8.26536e-05
0.00106183
0.000252288
0.000281402
0.000444293
0.00148181
0.00101261
0.00115491
0.00591824
0.00247006
0.00209697
0.00114164
0.00672228
0.000544385
0.0067272
0.000931609
0.00672632
0.000223259
0.00142603
0.00673568
0.00253953
0.00126125
0.00672356
0.00128786
0.00672003
0.000165752
0.0099337
0.000851444
0.00290814
0.00672188
0.00672574
0.000147223
0.00672494
0.00672499
0.00196892
0.00110638
0.000902824
0.000230338
0.0028244
0.000467628
0.00626956
0.00672357
0.00672475
0.00672575
0.000279419
0.00632978
0.00101642
0.000931281
0.00672685
0.00672219
0.0117519
0.0067251
0.000646828
0.00238791
0.0123662
0.000714006
0.000127733
0.000302496
0.000402379
4.98349e-05
0.00285318
0.00040867
0.000854981
0.00631321
0.00598298
0.00101523
0.00115437
0.00438981
0.000339164
0.00672405
0.00156583
0.000412923
0.00325173
1.85153e-05
0.00269335
0.000132136
0.00718866
0.00508902
0.00672406
0.00176346
6.30299e-05
0.00343814
0.000582046
0.000495419
0.0126813
0.00182438
0.00134747
0.00157897
0.000292334
0.00672611
0.000280739
0.0023057
0.00241378
0.00676105
0.00812397
0.000571832
0.00092986
0.0124973
0.00208896
0.00170213
0.00672375
0.00287875
0.00681558
0.000726632
0.0081747
0.000424581
0.00430614
0.00911742
0.00672389
0.000385463
0.000473467
0.00292245
0.000942457
0.00672407
0.0121658
0.00929481
0.00677892
0.00081616
0.00169006
0.000240998
0.000619688
0.00173931
0.000943374
0.00173246
0.000780336
0.00157634
0.00672376
0.00155517
8.03725e-05
0.00632524
0.00672387
0.000365636
0.000606923
0.00194539
0.00672589
0.00914926
0.00163232
0.000964891
0.00622844
0.000460738
0.000536852
0.000136754
0.0067242
0.00163481
0.000313024
0.000244038
0.00038915
0.00672365
0.00138736
0.00166878
0.000468977
0.00672408
0.000265518
0.00174893
0.0003026
0.0122361
0.00205767
0.00326575
0.000506792
0.00528127
0.000398494
0.00672485
0.000920967
0.0015661
0.00100582
0.000486104
0.00157843
0.000310637
0.000338552
0.000867131
0.000995743
0.00673206
8.59923e-05
0.00177415
0.000422858
0.000380164
0.000859083
0.000479083
0.00672863
0.005132
0.000267774
0.00297479
0.00172706
0.000989522
0.00523237
0.000340122
0.00172823
0.012017
0.000248259
0.000294292
0.000583183
0.000823207
0.00672839
3.49099e-05
0.00678021
0.000474149
0.00174659
0.0118068
0.000645763
0.000247603
0.00672359
0.00392188
0.00672825
0.00137646
0.000704804
0.00365586
0.0117341
0.00280982
0.00672052
0.000633826
0.000148392
0.00672637
0.00889736
0.00672745
0.00102705
0.00176466
0.00215829
0.000786411
0.000972378
0.00432959
0.000486757
0.000489174
0.00105402
0.000410258
0.00672694
0.00459148
0.0117059
0.00672076
0.000779382
0.000760007
0.000375893
0.00803396
0.00672087
0.00143009
0.000465972
0.0106169
0.00672502
0.00672379
0.000736259
0.00460551
0.00672049
0.000387037
0.000407644
0.000219744
0.000575625
0.000745258
0.000762235
0.00672664
5.15706e-05
0.00672566
0.00425736
0.000757622
0.006731
0.00219773
0.00040518
0.00672312
0.00354709
0.000648719
0.0104725
0.003632
0.00494169
0.00672426
0.00672713
0.000667957
0.00672363
0.00603311
0.00982807
0.00672593
0.000965816
0.00134865
0.0116842
0.00027705
0.0067948
0.000775978
0.000427654
0.00672236
0.0038358
0.00672372
0.00114201
0.0067246
0.000833829
0.000982929
0.00676242
0.00676173
0.00089269
0.00085709
0.000874337
0.000155784
0.000416702
0.00116444
0.0130089
0.000238085
0.00220132
0.00135854
0.000220556
0.000475288
0.00105754
0.00199227
0.00765747
0.0041528
0.00431537
0.00179833
0.00401714
0.000619876
0.000234357
0.0067748
0.00380319
9.50344e-05
0.00672527
0.00234695
0.00672374
0.00673388
0.0025905
0.00390007
0.00340903
0.00672048
0.00333319
0.0067225
0.000150852
0.00214992
0.0009222
0.000174541
0.00349709
0.00923335
0.000767295
0.00672505
0.00123283
0.00668118
0.00038428
0.00430431
0.0112426
0.00104977
0.000789767
5.7294e-05
0.00792749
0.000553226
0.00106003
0.000476381
0.000312768
0.00379098
0.00226862
0.000109654
0.000594027
0.00347215
0.00674575
0.00656074
0.0027923
7.24287e-05
0.00704713
0.000546285
0.00302822
0.000853775
0.00101282
0.000829369
0.0102021
0.000725314
0.00672261
0.000311597
0.000497978
0.00144652
0.00672866
0.00672291
0.014002
0.00672558
0.000597128
0.0133555
0.000647838
0.00475829
0.000314114
0.000937147
0.00672185
0.00672364
0.00504441
0.0067246
0.00054069
0.0025158
0.0035808
0.0011168
0.0139161
0.00551803
0.00672439
0.00744846
0.0044612
0.00278447
0.00339171
0.0103785
0.00623438
0.000854498
0.00672404
0.00778364
0.0132346
0.000442594
0.000112758
0.000453601
0.00455696
0.00672389
0.0110575
0.00672246
0.00142058
0.00676547
0.00205463
0.0067243
0.00887508
0.00672554
0.00150155
0.0067535
0.000173941
0.000282716
0.00675477
0.000283491
0.00988604
0.00104376
0.00471145
0.00259049
0.000216488
0.000957166
0.000954222
0.000566953
0.00120894
0.00496345
0.00198635
0.00041625
0.00378351
0.00663814
0.00630652
0.000899388
0.000650862
0.000563366
0.000525365
0.012538
0.00677349
0.00675201
0.000387009
0.00911685
0.000490609
0.000380372
0.000588005
0.00672624
0.00907007
0.00894528
0.00735499
0.0067242
0.00584593
0.00876307
0.000275222
7.87658e-05
0.0118144
0.00124428
0.000809842
0.00039521
0.000581207
0.00430935
0.000509362
0.000816707
0.0067314
0.00735769
0.00672443
0.000563563
0.0010545
0.000518324
0.000171035
0.000296397
0.0019889
0.00165818
0.000507466
0.00243168
0.0150063
0.000597163
0.00172319
0.000595883
0.000574278
0.000171594
0.00672335
0.000615905
0.000128122
0.000392478
0.00445039
0.000465407
0.000941691
0.000317537
0.00642089
0.00109559
0.0010613
0.00017963
0.00737214
0.00248459
0.00152468
0.00717774
0.000362467
0.00121229
0.00145325
0.00672334
0.000215182
0.00214713
0.0120736
0.000451799
0.00161227
0.00672457
8.54183e-05
0.000564277
0.000372816
0.00450297
0.00674278
0.00672487
0.000707289
0.00672437
0.00151389
0.0014561
0.00195576
0.000567226
0.00601603
0.000891353
0.00239089
0.00149706
0.00140128
0.00672568
0.00921376
0.00152771
0.00672632
3.77279e-05
0.00020989
0.000256865
0.00134349
0.000841169
0.00129957
8.05531e-05
0.00120771
0.00169928
0.00672425
0.00348346
0.00251551
0.0031293
0.00152944
0.00531667
0.00672419
0.000214164
0.00588511
0.000867615
0.00135183
0.000119077
0.00672774
0.000646553
0.00105917
0.0112641
0.00672581
0.0003202
2.63547e-05
0.00131091
4.08886e-05
0.00149169
0.00219379
0.00022741
0.000464665
0.00123631
0.0010199
0.000711224
0.00672464
0.00574787
0.000327876
0.00672459
0.00264979
0.000330782
0.00672578
6.84798e-05
0.00602158
0.0148855
0.00837477
0.00590806
0.00676485
0.0102396
0.00266238
0.00672383
0.0103396
0.00675022
0.00675701
0.00672819
0.000187932
0.0132625
0.00401195
0.000470796
0.00458782
0.00145186
0.000327149
0.00555661
0.00672107
0.00288596
0.014881
0.00672434
0.00672385
0.0084474
0.00142356
0.00306443
0.00672725
0.00913211
0.0101455
0.00420419
0.000770256
0.00672555
0.0118853
0.000135356
0.00348653
0.00373091
0.00242605
0.00834937
0.00666668
0.00468517
0.00672539
0.00672604
0.0134548
0.00547886
0.000152196
0.000890553
0.00267175
0.00202669
0.000377155
0.000283193
0.000626399
0.00960113
0.0119739
0.00672268
0.00169653
0.00154697
0.00156999
0.0116648
0.00673108
0.00433533
0.000432148
0.0013312
0.00132037
0.00672051
0.000380826
0.000598869
0.00385449
0.00672456
0.000425873
0.00248047
0.000813462
0.0018247
0.0138673
0.00145916
0.000159282
0.00208957
0.00462921
0.000981996
0.000847331
5.20559e-05
0.0131487
0.0103672
0.00672303
0.00365388
7.82946e-05
0.0144972
0.00255647
0.000588896
0.000718391
0.00332639
0.00903675
0.00672364
0.00105512
0.00840087
0.0148638
0.000329805
0.0143254
0.000585219
0.000829746
0.00675527
0.0133143
0.000613875
0.00440533
0.00675624
0.00763811
0.00673546
0.00672523
0.00109327
0.000363831
0.000354694
0.0037689
0.00962324
0.00167339
0.00576497
0.000520759
0.0078017
0.000143177
0.00437434
0.012324
0.00104011
0.00164577
0.00184223
0.00672251
0.000500501
0.00672583
0.00155397
0.000155567
0.00224429
0.00673111
0.000365555
0.000818959
0.00675643
0.00800953
0.000934439
0.00067175
0.00677473
8.46368e-05
0.00672356
0.000241126
0.00172245
0.000166178
0.00137724
0.00902642
0.000221744
0.0142167
0.000354767
0.00055731
0.00673388
0.00871539
0.000152442
0.000422038
0.000104998
0.00672507
0.00387214
0.000363104
0.000414451
0.000933056
0.010799
0.00978814
0.000673708
0.00682754
0.000490737
0.000309708
0.00672373
0.00341294
0.00673186
0.000745959
0.000540249
0.000314213
0.0133718
0.00673558
0.00672277
0.00166347
0.00052053
0.00139144
0.00674477
0.0146505
0.00142982
0.00169282
0.00232844
0.00409718
0.000445744
0.0104636
0.000151531
0.000972703
0.000376121
0.00672389
0.00133245
0.000652963
0.000455255
0.00313278
0.00671994
0.00325719
0.0100424
0.0120292
0.00566235
0.000450465
0.000428662
0.00372213
0.0067223
0.00303591
0.014087
6.76041e-05
0.000494021
0.00236477
0.00186152
0.00732896
0.000259652
0.000598834
0.00234228
0.000989824
0.00673499
0.000173835
0.000393191
0.00530855
0.0108107
0.0123144
0.0142919
0.0093982
0.00876649
0.00809636
0.00997183
0.0010376
0.00635745
0.00896162
0.00772981
0.0037354
0.00296382
0.000961347
0.00467307
0.0055424
0.00202404
0.014119
0.000903521
0.00672531
0.000559002
0.00075639
0.000753022
0.00882827
0.000304292
0.000704069
0.00671996
0.0139138
0.00116676
0.000353442
0.00182087
0.000867826
0.00244768
0.00672882
0.000703523
0.000690551
0.00101703
0.00140047
0.00136309
0.000801199
0.00100855
0.00828718
0.000355323
0.00150422
0.0109642
0.00111396
0.00672406
2.7478e-05
6.1149e-05
0.00545976
0.000638197
0.00315926
0.00114817
0.000824092
0.000427953
0.00672316
0.000251813
0.00147662
0.00120389
0.000188813
0.00672476
0.00169857
0.00950627
0.0114447
0.0149116
0.000636495
0.00154556
0.00673188
0.00551871
0.000989547
0.00675125
0.0105712
0.00587019
0.00672596
0.00673377
0.0110088
0.000863409
0.00173421
0.00109293
0.000725246
0.000308735
0.000928953
0.000230266
0.0010799
0.000626799
0.00441739
0.00145847
0.0086356
0.000570709
0.0147682
0.00086616
0.0067199
0.00673231
0.000715142
0.000621668
0.00672307
0.000270334
0.000894443
0.000463449
0.00621033
0.00365373
0.00559419
0.00672596
0.000243379
0.000462607
0.000515694
0.00673013
0.000421759
0.00107017
0.00750534
9.00645e-05
0.000443822
0.00672468
0.0113168
0.000423522
0.00784529
0.00733908
0.000970507
0.000949956
0.000498199
0.00686088
0.000191048
0.0127334
0.000515631
0.00395145
0.000540786
0.00564652
0.00766049
0.000793237
0.00071548
0.00073688
0.014443
0.00446839
0.00446215
0.00985255
0.000603129
0.00879908
0.000251
0.00672684
0.000670508
0.000738545
0.000162834
0.00268694
0.000521794
0.000202927
0.00115185
0.00672541
0.00467712
0.000296705
0.00141064
0.000159326
0.00429296
0.00345608
0.000264469
0.00201606
0.00324543
0.00672352
0.000570359
0.000263068
0.00151829
0.000725823
0.000543753
0.000541116
0.00324674
0.000204356
0.000971131
0.000848205
8.32289e-05
0.00233328
0.000165487
0.000156179
0.00601548
0.000981907
0.00738781
0.00971825
0.00359942
0.000223321
0.00775069
0.00487311
0.00133424
6.22602e-05
0.00948696
0.000456892
0.00790871
0.000616414
0.00479054
0.00118406
0.00673026
0.00138541
0.000591544
0.00248527
4.7378e-05
0.000994623
0.0003837
0.0100528
0.0129512
0.00296672
0.0114702
0.00661203
0.000749582
0.0120877
0.00672364
0.00672147
0.00910841
0.00275884
0.00672429
0.000734046
0.0116988
0.000547531
0.00187377
0.0106346
0.00672223
0.0109438
0.00963508
0.00672394
0.000373474
0.00113065
0.00982656
0.00950984
0.0100785
0.00838994
0.00672895
0.00102084
0.000635689
0.000903148
0.00672481
0.00113505
0.00672903
0.0104952
0.000696428
0.000155791
0.000796056
0.0108428
0.00067116
0.00100044
8.84035e-05
0.00253704
0.000476451
0.00192152
0.00672955
0.00137938
0.000354079
0.00674734
0.0101878
0.00539437
0.00194478
0.00264041
0.0140792
0.00215969
0.00623524
0.000285566
0.000431917
0.000261636
0.00765159
0.00927357
0.000228612
0.0019054
0.00198245
0.00108111
0.0017241
0.00065833
0.00148885
0.00672446
6.79053e-05
0.000740907
0.000491768
0.00749927
0.000884399
0.000319785
0.000215586
0.000613607
0.00155526
0.00623499
0.000374477
0.00673354
0.000698787
0.00076996
0.009071
0.00672426
0.00066637
0.00549427
0.00230331
0.000445958
0.0019538
0.000693818
0.00955757
0.000789974
0.000926596
0.00149762
0.00672331
0.0111868
0.00672345
0.00216376
0.000788728
0.0120198
0.000547816
3.13966e-05
0.000108119
0.00163568
0.00294178
5.81945e-05
0.000643593
0.0136034
0.000540268
0.000256936
0.000655328
0.00175184
0.00102619
0.000173345
0.000592298
8.44911e-05
0.000834004
0.000318055
0.00128535
0.00464313
0.000247385
0.00408832
0.000928453
0.0067313
0.0010032
0.000973928
0.000899103
0.0106418
0.00111034
0.000522552
0.00672154
0.00252564
0.00672442
0.00672426
0.00224421
0.00672668
0.00111634
0.0032792
0.00099528
0.000932127
0.00213268
0.00329266
0.000786482
0.00351315
0.00570696
0.00654121
0.0059018
0.0013567
0.000540808
0.00193375
0.00672425
0.000392928
7.41621e-05
0.000523698
0.0112995
0.00109006
0.0117441
0.00149099
0.0067244
0.00672296
0.00948704
0.00476785
0.00127971
8.64414e-05
0.000602383
0.0025992
0.0135004
0.00672369
0.000900569
0.00447108
0.00145615
5.43242e-05
0.00126912
0.00259667
0.00177251
0.00022685
0.000958079
0.00129098
8.7414e-05
7.77683e-05
0.000267344
0.00162737
0.0024628
0.00166712
0.00144462
0.0119097
0.00968578
0.0117523
0.00160057
0.00311518
0.00156361
0.00230869
0.0067252
0.00186499
0.00672379
0.0019358
0.00408235
0.00631047
0.00656643
0.000486782
0.00205212
0.00160577
0.000286569
0.00281025
0.0046814
0.000549371
0.0148481
0.000330057
0.00328258
0.0111117
9.36899e-05
0.00399639
0.000174136
0.00672547
0.000191471
0.000841936
0.000102849
0.0102705
0.000285447
0.00865524
0.00673063
0.0105076
0.00285963
0.00118629
0.0017804
0.00053513
0.006723
0.000148639
0.0114754
9.76072e-05
0.000741219
0.000501378
8.30001e-05
0.00464976
0.00678313
0.00241007
0.000206896
0.00184315
0.0143658
0.00771262
0.000223411
0.00672482
0.000257173
0.000256935
0.000521722
0.00294936
0.00808007
0.00453496
0.00672948
0.00516552
0.000845214
0.00340025
0.00411521
0.0115838
0.00646047
0.000402759
7.82582e-05
0.00678874
0.0133965
0.0023919
0.0140574
0.00417478
0.00043511
0.00173334
8.49733e-05
0.00232314
0.000800616
0.00673573
0.00220213
0.00655828
0.00197645
0.000268382
0.00111866
0.000874614
0.000191194
0.000519525
0.00449038
0.000182823
0.000824103
0.00212367
0.00152834
0.00552398
0.0067442
0.00672381
0.00217785
0.00266435
0.000690229
0.00852315
0.000672659
6.35009e-05
0.00129844
0.00186854
0.00213521
0.0144678
0.0108087
0.00163621
0.00182464
0.00485357
0.00875301
0.000400258
0.000807831
0.00605198
0.0108515
0.00256676
0.000399883
0.0100365
0.000182133
8.95904e-05
0.000420682
0.00231251
0.00674935
0.000218439
0.00672616
0.00381302
7.30253e-05
9.32154e-05
0.00672226
0.000973446
0.000171441
0.000952766
0.00672631
0.00672194
6.92694e-05
0.00253708
0.00361346
0.00186609
0.0129174
0.00161185
0.000215896
0.00672381
5.63789e-05
8.06394e-05
0.00246898
0.000655124
0.00672609
0.0142425
0.0129767
0.000595348
0.000401658
0.000420501
0.00066827
0.00672367
0.0016033
0.00674085
0.00242989
0.00672507
0.00915564
0.00674042
0.00196775
0.000164967
0.000619349
0.00128597
0.00673138
0.0137139
0.000386135
0.00256244
0.00723406
0.000366937
0.000564739
0.0070099
0.000628649
0.00102472
0.00199991
6.57998e-05
0.000226
0.000317001
0.0145991
0.00672798
0.00368104
0.000183846
0.00962241
0.00672245
0.000980566
0.0139836
0.00672592
0.00459648
0.000595146
0.00436498
0.00672194
0.00296753
0.000426553
5.43844e-05
0.00216559
0.000513768
0.0066724
0.00323088
0.00881467
0.00909858
0.00568963
0.00178528
0.00473191
0.00164295
0.00672354
0.000346236
4.60879e-05
0.0126359
0.00315274
0.000140592
0.000713621
0.00672067
0.00672055
0.0050335
0.00241066
0.000398963
0.000507253
0.000918056
7.85119e-05
0.00598138
0.00221731
0.00673305
0.00673169
0.00721926
0.00174717
8.83342e-05
0.000470986
0.00308282
0.00050133
0.000160752
0.00811561
0.00899468
0.00672408