/*--------------------------------*- C++ -*----------------------------------*\
| =========                 |                                                 |
| \\      /  F ield         | OpenFOAM: The Open Source CFD Toolbox           |
|  \\    /   O peration     | Version:  v2012                                 |
|   \\  /    A nd           | Website:  www.openfoam.com                      |
|    \\/     M anipulation  |                                                 |
\*---------------------------------------------------------------------------*/
FoamFile
{
    version     2.0;
    format      ascii;
    class       volScalarField::Internal;
    location    "650";
    object      V0;
}
// * * * * * * * * * * * * * * * * * * * * * * * * * * * * * * * * * * * * * //

dimensions      [0 3 0 0 0 0 0];


value           nonuniform List<scalar> 
13851
(
0.0053099
0.0200843
0.026496
0.00134028
0.17141
0.0235776
0.0282434
0.150913
0.00141712
0.077123
0.00915266
0.0978335
0.0347789
0.00115765
0.0128225
0.00429863
0.00118529
0.0492845
0.00369319
0.00601581
0.0136592
0.0221765
0.00165133
0.181684
0.00301054
0.0073999
0.00312866
0.00282582
0.00183472
0.085294
0.0018556
0.0291717
0.00590143
0.00224986
0.00893243
0.00212331
0.183529
0.00233193
0.00186492
0.0425852
0.0018735
0.00185358
0.00138009
0.00330387
0.00198617
0.0689196
0.163612
0.0039755
0.0331786
0.0407076
0.00138192
0.0400542
0.00485501
0.014368
0.00156877
0.0312777
0.00514704
0.00159663
0.00334617
0.0014567
0.103296
0.00340734
0.09388
0.0244471
0.00379127
0.00307029
0.0011306
0.00497076
0.0460437
0.00138588
0.0014791
0.0107442
0.0415176
0.00130872
0.0139823
0.024042
0.00162509
0.12189
0.00344096
0.0825289
0.0417844
0.00405967
0.0112258
0.00151183
0.00142423
0.00185422
0.0198819
0.00137635
0.0633505
0.00147788
0.0409133
0.0261602
0.00135332
0.00164335
0.00178607
0.00315281
0.0696659
0.00492213
0.00132507
0.00477306
0.00426638
0.0083871
0.00815495
0.0405296
0.0667797
0.0106778
0.0753998
0.0013618
0.0273296
0.0481339
0.0141776
0.07815
0.00423487
0.00693466
0.00492483
0.0173028
0.0882995
0.154362
0.0010913
0.0017333
0.00390774
0.0765621
0.0338329
0.00129084
0.00418606
0.00454748
0.0714555
0.00795223
0.00171757
0.010107
0.0200172
0.016755
0.00257004
0.00213685
0.00756543
0.00177434
0.00660629
0.0013715
0.011073
0.0115034
0.00434327
0.029551
0.0545043
0.00398412
0.0026546
0.0262426
0.126321
0.00162479
0.00168496
0.00654958
0.00340432
0.005132
0.00654118
0.00401363
0.0359885
0.0534283
0.135582
0.00146596
0.0079674
0.0223017
0.176715
0.0019991
0.0110173
0.00524426
0.00123668
0.00174909
0.00208306
0.00149755
0.0154669
0.00217415
0.106823
0.109401
0.00897228
0.161221
0.00175006
0.00346488
0.00416607
0.0964801
0.0143355
0.0049298
0.00428658
0.00384895
0.015224
0.0145205
0.00135309
0.0013912
0.00494697
0.0127875
0.0374494
0.0796079
0.00263677
0.0116281
0.000860253
0.0228139
0.0263111
0.00510301
0.00397752
0.0435298
0.0462395
0.00645343
0.00426379
0.0016858
0.00206515
0.0136451
0.00158941
0.00145185
0.0236725
0.00938221
0.001596
0.0192735
0.00440031
0.0315581
0.00350281
0.159024
0.00971227
0.0196379
0.0428553
0.00326618
0.0472981
0.00116073
0.107301
0.0053835
0.00135393
0.00192711
0.0124428
0.00895984
0.169398
0.00431698
0.0952859
0.0113688
0.00187804
0.014248
0.0237744
0.102397
0.00176588
0.0941164
0.00194178
0.00178475
0.00511012
0.161753
0.00269082
0.00147137
0.0022102
0.00483176
0.0161608
0.00309246
0.00345172
0.0136337
0.00317802
0.013278
0.00126151
0.00562715
0.172721
0.020583
0.00417808
0.00183775
0.00141003
0.0685624
0.00386782
0.056865
0.00400924
0.0045942
0.0135326
0.00965714
0.00534951
0.0568778
0.00703094
0.00506346
0.0034056
0.0964145
0.0426315
0.0109101
0.00211227
0.00145596
0.00929014
0.0643226
0.00359809
0.00396286
0.00573963
0.0111498
0.00181966
0.00129588
0.0166286
0.0120834
0.00241867
0.0670327
0.128246
0.00425552
0.00825987
0.0814311
0.155203
0.0776132
0.158942
0.0147746
0.133975
0.0014317
0.0107579
0.0429619
0.00183976
0.00101311
0.0397167
0.0048703
0.00129313
0.0271255
0.0360992
0.0110432
0.00133867
0.00171339
0.00793077
0.165976
0.00249987
0.100058
0.00770819
0.00135293
0.00324861
0.0295062
0.00223893
0.00311882
0.00186427
0.0046228
0.00793805
0.00173484
0.00162766
0.00259006
0.0429782
0.00144877
0.00135617
0.00192796
0.00230927
0.0120152
0.00860518
0.0149429
0.00112285
0.00778151
0.14381
0.153787
0.016739
0.00163723
0.00132601
0.0782253
0.00174245
0.0148147
0.0130908
0.0200464
0.001083
0.00419601
0.00439901
0.0253943
0.0220818
0.00158419
0.0353955
0.00373481
0.0195493
0.0105792
0.0127639
0.0555745
0.0482288
0.0051662
0.00433566
0.00519169
0.00280949
0.00177425
0.0177823
0.00162625
0.00391547
0.0841575
0.00299827
0.00606642
0.00147547
0.0198793
0.00713625
0.0033714
0.00246342
0.00550384
0.00143685
0.0262696
0.00274702
0.00153461
0.0157154
0.00112338
0.0144248
0.00187526
0.0132082
0.0104248
0.00550777
0.00312459
0.0482708
0.0206095
0.00656815
0.012287
0.0489926
0.00869693
0.00191585
0.0327913
0.00955203
0.00150387
0.0263005
0.00277515
0.00902247
0.00190116
0.019337
0.00837503
0.00215235
0.00411663
0.0112477
0.00148403
0.0013983
0.00279827
0.0492517
0.00500354
0.0127776
0.007629
0.0653558
0.00140982
0.00187108
0.00256602
0.0230097
0.00529898
0.00332731
0.00141532
0.0955001
0.00132274
0.00413413
0.00152469
0.0109629
0.00331537
0.0447853
0.153055
0.00129308
0.00299564
0.0673312
0.016097
0.00904151
0.106141
0.00192515
0.00748461
0.00650231
0.0200315
0.0324011
0.0412348
0.0026224
0.0529005
0.0468266
0.00276064
0.00211053
0.018536
0.00333987
0.093017
0.126519
0.0268547
0.00466549
0.00923508
0.0481525
0.0325208
0.00358216
0.035407
0.00175019
0.133487
0.0194091
0.0019173
0.0080465
0.148135
0.103183
0.0204487
0.0411379
0.0026572
0.00235865
0.0137903
0.00112143
0.0257832
0.0948744
0.00152302
0.00325754
0.0100461
0.0397745
0.00149025
0.010999
0.00167422
0.0307438
0.0153818
0.00516282
0.0137271
0.00190471
0.00274329
0.00298056
0.0175074
0.00399587
0.0545131
0.00160743
0.0113128
0.00328902
0.0161845
0.0260706
0.00962065
0.00844358
0.146998
0.00130961
0.00134636
0.00222209
0.0013006
0.00269871
0.00154135
0.00344077
0.0139422
0.133383
0.00271654
0.074861
0.0606884
0.0119835
0.00188058
0.0265843
0.0269457
0.00502407
0.00831911
0.060383
0.00242493
0.0663419
0.00172815
0.00322993
0.0698977
0.0292947
0.00372368
0.00287049
0.0950329
0.00250018
0.00250953
0.069929
0.00177844
0.0038776
0.00468657
0.020464
0.00267885
0.00142175
0.0589474
0.00350395
0.0506509
0.0673825
0.00287282
0.00146213
0.0134458
0.00980699
0.0678238
0.00654681
0.00172541
0.00172462
0.0630159
0.00110383
0.0534597
0.0408427
0.0103619
0.0153207
0.0898868
0.0186375
0.00168542
0.00384767
0.0015634
0.0289146
0.0552044
0.00187243
0.121683
0.00548148
0.0208666
0.0145226
0.0155758
0.00192481
0.00142921
0.0198499
0.00157785
0.0310078
0.00801653
0.00187461
0.00152927
0.0407573
0.0467406
0.00633007
0.00135462
0.00358456
0.00818069
0.00170367
0.0139461
0.0120279
0.00191403
0.00238327
0.00546206
0.00154873
0.00372178
0.00167259
0.0339528
0.00275453
0.00317704
0.100084
0.00134269
0.00217248
0.0143502
0.0109228
0.0402456
0.00151004
0.00583724
0.0020578
0.0444526
0.169551
0.0128487
0.00913669
0.12932
0.00159914
0.16273
0.0040225
0.0228226
0.00694735
0.0369471
0.0473275
0.0099551
0.00117256
0.0110336
0.00154831
0.0135018
0.0986109
0.06607
0.00846303
0.0280284
0.00574896
0.024807
0.00995891
0.00329584
0.122886
0.00119343
0.153514
0.00576329
0.0013745
0.00199205
0.0116906
0.00200087
0.00555594
0.00445066
0.00178845
0.0578498
0.00179796
0.0130608
0.0144664
0.00147537
0.00307781
0.0583683
0.00618534
0.0419054
0.00164246
0.00126737
0.0326383
0.0050483
0.00212213
0.170289
0.139601
0.00561622
0.00109214
0.00260416
0.022052
0.00543299
0.034662
0.0599951
0.00282758
0.00478636
0.00498848
0.110483
0.00388073
0.0082209
0.0078877
0.0247964
0.0250416
0.00672558
0.0132427
0.00488497
0.0107978
0.0103943
0.00559047
0.00236514
0.0032133
0.00191776
0.00283558
0.00296264
0.00141602
0.0100496
0.00253863
0.00446211
0.048203
0.0135208
0.00378347
0.0173353
0.0860475
0.0835735
0.00580759
0.00133235
0.0184177
0.00160936
0.0992467
0.00247518
0.00410741
0.00127623
0.00597135
0.0183581
0.0248367
0.0015228
0.00394244
0.0111843
0.00255724
0.0371558
0.00278799
0.00497196
0.00414511
0.0150222
0.0035909
0.0384823
0.155578
0.025614
0.0647654
0.00176032
0.126489
0.00352071
0.00179182
0.00553445
0.00169835
0.00100793
0.00386464
0.0035794
0.0138872
0.117619
0.0403635
0.100697
0.0692689
0.152323
0.00773406
0.0051471
0.00683559
0.00283556
0.025932
0.00155395
0.170602
0.00130558
0.00962185
0.15022
0.105171
0.0019257
0.0208973
0.00222087
0.00205859
0.00804074
0.00570801
0.0674112
0.00209413
0.0175147
0.0252036
0.00279325
0.122218
0.0340198
0.0510514
0.00957235
0.00127006
0.0172118
0.0150681
0.00367002
0.00167898
0.0129141
0.0145206
0.00188126
0.106037
0.00201509
0.149565
0.0314862
0.00300562
0.00642341
0.00554193
0.00526766
0.009717
0.122964
0.159755
0.00737185
0.0332964
0.102045
0.018491
0.00368164
0.104614
0.00392993
0.00274417
0.0026707
0.00556437
0.00170704
0.0102696
0.111618
0.00554306
0.0941646
0.0185737
0.00239514
0.00183392
0.00183691
0.00192834
0.0441503
0.0324971
0.00556964
0.0248517
0.0678481
0.00157416
0.00374277
0.0010802
0.00507351
0.00610838
0.0521215
0.0644677
0.00226742
0.00615599
0.0277253
0.156087
0.00367424
0.00429593
0.00161209
0.0358561
0.151353
0.00116608
0.0306409
0.0143928
0.125324
0.00185996
0.143653
0.00169213
0.0814472
0.0048974
0.0122652
0.00618205
0.0126861
0.0422208
0.0199509
0.148003
0.00312069
0.0287129
0.00157236
0.0267176
0.00277397
0.00174767
0.013788
0.108727
0.00148029
0.00231612
0.0188963
0.00636354
0.0421112
0.00130013
0.0466669
0.00309407
0.0940786
0.112713
0.0024048
0.0128639
0.100706
0.0111854
0.00153126
0.00173012
0.00201094
0.0703614
0.00140516
0.0855864
0.134069
0.0343104
0.11304
0.125432
0.00202374
0.00219773
0.0365574
0.158264
0.0128484
0.0409068
0.00168826
0.00476937
0.000940357
0.00169622
0.0184332
0.00445797
0.0964207
0.0129852
0.00503659
0.0656625
0.13702
0.00333913
0.00111662
0.00760176
0.00108352
0.00735998
0.0850329
0.010996
0.00594817
0.00123836
0.0147578
0.00251327
0.00561342
0.116115
0.00167994
0.0015246
0.00120176
0.00261447
0.00248344
0.0176672
0.00282011
0.0369412
0.00296044
0.0181577
0.149437
0.00172926
0.0247659
0.129025
0.0382488
0.0290523
0.00163988
0.00387919
0.0743207
0.0106393
0.00135935
0.0259684
0.00154928
0.0226753
0.0056737
0.00182301
0.121538
0.00318195
0.012318
0.0138535
0.00176347
0.026107
0.00425501
0.0089137
0.00164819
0.0420057
0.00123178
0.015813
0.00129333
0.00126604
0.00120134
0.0101938
0.0418363
0.0411215
0.179215
0.0112628
0.0975816
0.00158764
0.0153038
0.0144583
0.011155
0.0208262
0.078352
0.0186702
0.0177707
0.0231622
0.0170655
0.0016804
0.0031125
0.015755
0.00855643
0.0021852
0.0303319
0.00166177
0.105618
0.0115258
0.0256208
0.0496808
0.00937385
0.0839135
0.0784611
0.007614
0.0406413
0.00382488
0.0286476
0.00116126
0.00319093
0.00354887
0.00341177
0.0450964
0.00161157
0.00462732
0.137165
0.015311
0.0281171
0.00187459
0.0224471
0.00772547
0.00294625
0.00142198
0.00652845
0.0407385
0.00208118
0.00334139
0.0023302
0.0129163
0.0953035
0.0594808
0.0061764
0.0406467
0.00124699
0.00451543
0.121832
0.00366653
0.0031106
0.0457103
0.00184766
0.00151709
0.00452124
0.0228041
0.00192438
0.00866177
0.113262
0.00109894
0.0136614
0.0459884
0.0693979
0.0147533
0.0111887
0.00165405
0.00144663
0.0113976
0.00161336
0.0144373
0.0459948
0.00417747
0.0827722
0.0025575
0.068154
0.133519
0.0172125
0.0384624
0.00161567
0.00148245
0.00344838
0.00129407
0.00212174
0.0135583
0.0425079
0.0288304
0.00380683
0.0596943
0.140163
0.00973565
0.002864
0.00341433
0.149488
0.0102612
0.0126193
0.00480946
0.00106216
0.0549578
0.0989625
0.0284477
0.00333638
0.0185619
0.00170869
0.0243246
0.153021
0.0569004
0.0648611
0.0212226
0.00406287
0.00181116
0.00164478
0.0116803
0.0889365
0.00261187
0.0327697
0.00274658
0.00139112
0.0115732
0.000958509
0.00175154
0.00161287
0.00763812
0.0144963
0.00139261
0.0152857
0.0107231
0.00455031
0.0036316
0.0383878
0.00154665
0.0463854
0.00199527
0.00265699
0.101095
0.0181767
0.00836801
0.00347127
0.0144133
0.137158
0.0181453
0.0245293
0.0243009
0.00203551
0.0942531
0.00220832
0.00123844
0.045835
0.0146613
0.0111764
0.0957906
0.00153953
0.00127742
0.00165138
0.00142169
0.0856052
0.0213445
0.0176269
0.0330158
0.00364071
0.0125276
0.140275
0.00658575
0.0176162
0.00224284
0.0120496
0.00108251
0.0243176
0.0215877
0.00664131
0.00596555
0.00674982
0.0524117
0.0012032
0.00148203
0.00137753
0.00124763
0.00195731
0.00154194
0.00136008
0.052634
0.0529275
0.041438
0.00345094
0.0103192
0.00696401
0.0012392
0.0415198
0.119892
0.0678582
0.00360531
0.0995175
0.0194918
0.0183973
0.00186472
0.0210283
0.0755631
0.100005
0.0450926
0.177526
0.00987329
0.00363892
0.00877035
0.00226339
0.0588198
0.0598208
0.00174485
0.00175108
0.00126364
0.00266153
0.00640809
0.00257018
0.0756496
0.00612277
0.0251673
0.0823093
0.0171759
0.00138662
0.0324729
0.00560971
0.00212053
0.0406943
0.0429576
0.0152743
0.00345112
0.154628
0.00178786
0.0464514
0.00354758
0.0989543
0.0391809
0.0214734
0.00460868
0.0294859
0.00278189
0.00108119
0.00366207
0.00199311
0.0460829
0.00133386
0.00293251
0.0634779
0.00270309
0.034361
0.00645608
0.0365463
0.044934
0.102164
0.0518413
0.0312422
0.013455
0.00721257
0.0397561
0.094283
0.00672493
0.0695458
0.0018914
0.102799
0.0142671
0.0133492
0.00137722
0.00297049
0.0954627
0.00402465
0.118829
0.0153731
0.0065326
0.00302207
0.0101887
0.155658
0.00542829
0.00511963
0.00562991
0.00359491
0.00905037
0.00589057
0.00724125
0.00670633
0.0200647
0.0671417
0.00227524
0.00131108
0.0217889
0.0887628
0.00124617
0.103357
0.0106143
0.0855662
0.00625987
0.00306391
0.0815777
0.00104195
0.0201009
0.145283
0.00425429
0.138077
0.00598124
0.00140608
0.0102232
0.00268867
0.0857292
0.160553
0.0072909
0.130847
0.119862
0.0196977
0.0162217
0.00703533
0.00528952
0.0333889
0.00966171
0.0634859
0.0919608
0.127378
0.0623447
0.0028156
0.0488203
0.0142451
0.00335635
0.105021
0.11308
0.0013569
0.130367
0.00114716
0.031756
0.00191492
0.00346634
0.00594789
0.00225329
0.00643688
0.00187535
0.0332603
0.00412535
0.0171163
0.0662119
0.0474807
0.0146587
0.0165425
0.0457956
0.00760275
0.0846208
0.0207007
0.00131021
0.00123368
0.00217344
0.0188201
0.00722172
0.00133436
0.00158489
0.108867
0.0215541
0.00220538
0.0454494
0.0116235
0.00210257
0.00173521
0.0184732
0.0111353
0.0273294
0.0031176
0.137283
0.00851649
0.00247075
0.0301155
0.137325
0.00173834
0.0096922
0.00344381
0.00195647
0.00532661
0.0293559
0.0791935
0.0301824
0.0013246
0.0029062
0.00238725
0.00811495
0.0485127
0.00104698
0.0889983
0.00445374
0.015685
0.0307818
0.0105044
0.0790035
0.00165454
0.00217731
0.0742016
0.00691897
0.00870734
0.00238804
0.00955571
0.00772024
0.00332323
0.0131917
0.00305836
0.00586264
0.0886232
0.0120733
0.00436998
0.00246532
0.0830464
0.00250813
0.00937349
0.00761353
0.159021
0.00192381
0.0215172
0.0220642
0.0634422
0.00977086
0.0117993
0.00602403
0.160773
0.0283513
0.00646458
0.00122603
0.00868668
0.0918376
0.0292109
0.0134761
0.00393969
0.0895477
0.00563756
0.00208528
0.00819614
0.001901
0.0119513
0.00123321
0.00357365
0.0457396
0.00274409
0.132462
0.021056
0.0110818
0.0131186
0.00549802
0.00964029
0.00968429
0.0101183
0.0146056
0.0171732
0.102438
0.00555822
0.0227376
0.0144122
0.00297324
0.0182082
0.0142531
0.0878194
0.00144116
0.00581
0.0322463
0.024402
0.0219405
0.00121063
0.00456343
0.0106178
0.0019074
0.00307006
0.00286182
0.00549019
0.00291872
0.0721242
0.0026023
0.11564
0.014419
0.00278004
0.0014753
0.00277625
0.00215143
0.0728716
0.00111577
0.075214
0.00644154
0.0141042
0.00247063
0.00186975
0.0163926
0.150108
0.00365141
0.00745813
0.0661163
0.00152092
0.0733015
0.0178641
0.0219877
0.0358872
0.0147653
0.0227379
0.0589619
0.0120741
0.00374135
0.0120428
0.00897169
0.0569582
0.00124348
0.00185196
0.117716
0.00329381
0.0184798
0.0121965
0.00237102
0.113483
0.0289464
0.0142202
0.0011487
0.069099
0.145528
0.0139597
0.00236619
0.118996
0.0131289
0.0110774
0.00294215
0.00942538
0.0116981
0.00444587
0.0720044
0.00323013
0.110802
0.00125042
0.0138134
0.0657729
0.0193055
0.00576403
0.134604
0.0439985
0.00449426
0.00193478
0.0350774
0.00128267
0.112696
0.109492
0.00803402
0.0870326
0.0463244
0.00211349
0.151973
0.0114334
0.00531705
0.00164089
0.00303298
0.0557598
0.0141582
0.0140848
0.126266
0.0333795
0.0869184
0.00267034
0.12514
0.0031681
0.00407153
0.102702
0.0679194
0.0154088
0.00393471
0.00332889
0.00646611
0.00731445
0.0197187
0.00139843
0.00618765
0.0152007
0.011523
0.00659537
0.0056591
0.00132162
0.0117983
0.00150287
0.00219553
0.00159341
0.0236047
0.040996
0.0114265
0.0095997
0.0655538
0.0308601
0.00502384
0.16146
0.0363581
0.0598503
0.0910252
0.0286723
0.0449421
0.00122812
0.132397
0.00199642
0.125583
0.00497106
0.0340326
0.00571607
0.00549087
0.0344193
0.00196591
0.0149951
0.115558
0.00889357
0.0694082
0.0128761
0.0387206
0.00191096
0.022022
0.00979361
0.00368814
0.00222666
0.0147356
0.00246163
0.00331194
0.00791298
0.0449344
0.0311731
0.00518512
0.00796581
0.00098229
0.0711443
0.00189783
0.0401796
0.00504418
0.0019558
0.01224
0.00272107
0.022001
0.0139164
0.0165565
0.00205723
0.0134113
0.131331
0.00900671
0.00470976
0.0222162
0.060384
0.134998
0.00157027
0.162254
0.014785
0.00181913
0.013815
0.0467458
0.00831158
0.0198547
0.00222314
0.116247
0.0448766
0.0876905
0.0161547
0.030705
0.0448103
0.00597836
0.00167946
0.0559442
0.105905
0.00237334
0.0419816
0.00126653
0.0280042
0.0018813
0.0616025
0.0170216
0.137795
0.00145432
0.0019352
0.0110589
0.00490197
0.0151048
0.0506961
0.0966852
0.00188707
0.138734
0.00589568
0.121278
0.0107786
0.119721
0.00218231
0.101424
0.009763
0.134568
0.00364572
0.00251162
0.0646978
0.00798024
0.00190847
0.00588347
0.00237168
0.00264089
0.00402701
0.0259004
0.0124517
0.00531494
0.00286045
0.0416772
0.011969
0.013958
0.0426867
0.00133499
0.00176808
0.00683726
0.00478288
0.00347906
0.0122067
0.00179819
0.0547855
0.0700623
0.00548398
0.00214018
0.00409281
0.00467412
0.00277487
0.0612859
0.00205822
0.00142698
0.00192981
0.149695
0.00121248
0.00150831
0.00290947
0.00160294
0.00140327
0.00515195
0.0136071
0.00392875
0.0166292
0.0490341
0.00290226
0.00615537
0.0974154
0.0012967
0.120659
0.0142333
0.0112521
0.014727
0.00286158
0.00937346
0.00128
0.00924584
0.0159166
0.00249133
0.00151954
0.00512172
0.0291403
0.0188751
0.00657671
0.0059211
0.113526
0.00991426
0.0058333
0.00471722
0.0470111
0.00411083
0.0149589
0.00858471
0.00224049
0.0029067
0.0247616
0.00506763
0.00127644
0.0284478
0.0262913
0.001975
0.00379855
0.0210744
0.0193806
0.0969886
0.00622475
0.0263475
0.00183848
0.00608924
0.0298574
0.14173
0.0056996
0.0145783
0.00284461
0.00128431
0.0643994
0.0662817
0.0123269
0.107164
0.0232083
0.0261983
0.0241898
0.0151879
0.0596962
0.0183483
0.0390268
0.00959874
0.00304797
0.145581
0.0020614
0.000822234
0.0972658
0.00244899
0.00499412
0.0062419
0.0200603
0.00566318
0.0167501
0.00497487
0.0156681
0.0216214
0.148848
0.00116262
0.0169708
0.00188431
0.0215491
0.0415672
0.0878972
0.0060728
0.0559171
0.0085267
0.00700782
0.00230485
0.083442
0.00299305
0.00280818
0.00143626
0.0720145
0.00521084
0.00198845
0.00285841
0.00299379
0.0270326
0.0346597
0.00404023
0.00276344
0.00285741
0.0117344
0.00313558
0.123355
0.050732
0.00848284
0.125633
0.0428445
0.00423162
0.153333
0.0046247
0.0595972
0.00137448
0.00214556
0.00215202
0.00137527
0.00141222
0.03827
0.0969275
0.00236794
0.0740567
0.0654449
0.0947911
0.00531173
0.00188664
0.00139249
0.0145585
0.0460432
0.0216408
0.00977619
0.00102743
0.130485
0.00254164
0.00157318
0.13228
0.108633
0.00150836
0.00601053
0.0299521
0.0671047
0.00223094
0.00133407
0.0458387
0.00449905
0.15075
0.00141971
0.0022301
0.0281151
0.00161239
0.001011
0.00231725
0.0635734
0.0449862
0.139586
0.153285
0.00182774
0.0687156
0.00373437
0.00313188
0.0010924
0.0180351
0.00891248
0.00316408
0.0093408
0.0021507
0.00155999
0.120909
0.0215541
0.021701
0.00435723
0.00185397
0.106827
0.00129922
0.0123753
0.0106583
0.0170987
0.129089
0.00360793
0.0111892
0.00150064
0.130817
0.0083868
0.0303216
0.00332482
0.0250649
0.00153439
0.00243656
0.00366991
0.00521386
0.0478885
0.0141455
0.00577965
0.00335888
0.00169163
0.0019857
0.132647
0.00254217
0.00468217
0.00182983
0.0151341
0.0103432
0.0114541
0.0457523
0.00216336
0.0916803
0.014353
0.00129269
0.00180774
0.00251383
0.0017739
0.0156082
0.00811339
0.0684814
0.00151864
0.0159788
0.00192327
0.0678998
0.00217541
0.0796904
0.0979636
0.0137024
0.00874558
0.00963879
0.0402711
0.00144763
0.0102739
0.0565204
0.0113957
0.00136634
0.00328973
0.0525209
0.0015893
0.0209282
0.0119486
0.0154622
0.117247
0.00790366
0.0862533
0.00234527
0.00571873
0.0196665
0.0567129
0.00360321
0.0110829
0.0565735
0.00238909
0.00319356
0.00369527
0.0864627
0.00321454
0.0914313
0.0042953
0.0140372
0.00509555
0.0029308
0.00120199
0.0100046
0.00186708
0.00839748
0.0134684
0.0802796
0.00210211
0.00534803
0.00493431
0.00738695
0.156356
0.0015109
0.00532047
0.00350295
0.00333201
0.00202268
0.00129424
0.00301074
0.00151483
0.0128876
0.00819055
0.0877719
0.0467282
0.0993889
0.0039984
0.0164472
0.0101354
0.00166081
0.0666022
0.112244
0.0111472
0.00496575
0.0187458
0.127897
0.00171808
0.0249665
0.00868336
0.0306457
0.00141385
0.013811
0.00197974
0.00625827
0.0130793
0.00764772
0.0834258
0.00115813
0.00316592
0.00720462
0.0433077
0.102916
0.0012388
0.00111183
0.00160669
0.050454
0.00536497
0.00297088
0.0451719
0.100827
0.0452196
0.00186357
0.00340454
0.0121176
0.0196064
0.020075
0.00209256
0.00495249
0.00336354
0.0197588
0.0142771
0.0978649
0.00474947
0.00856514
0.0451477
0.00189124
0.00166411
0.00144778
0.0019357
0.0014517
0.00168414
0.00242836
0.0254345
0.0650507
0.00217163
0.00122039
0.00268039
0.0300604
0.011405
0.0544601
0.0534954
0.00262769
0.0021259
0.00769672
0.055321
0.00325362
0.00628062
0.0100313
0.00141244
0.00274673
0.00356691
0.115376
0.00169259
0.00263106
0.00345857
0.0142409
0.010728
0.0411459
0.0821321
0.0116184
0.00992867
0.0204203
0.0112965
0.0170825
0.0151925
0.00330918
0.00136348
0.0141297
0.0105941
0.00144636
0.00350181
0.0957036
0.0024967
0.00246298
0.00109361
0.0108266
0.042428
0.0156234
0.0210799
0.0129644
0.115356
0.0100145
0.0141355
0.00877737
0.00416656
0.154955
0.0233923
0.00126465
0.0018924
0.00171133
0.00307517
0.0049624
0.102679
0.0569292
0.0148506
0.0697597
0.00183572
0.0388389
0.156176
0.0840591
0.00187882
0.00209057
0.0284441
0.00851061
0.0156483
0.00971421
0.0154936
0.00768758
0.0116493
0.0113553
0.00127416
0.0193104
0.00142236
0.010949
0.00161338
0.0165505
0.144803
0.0793533
0.00513262
0.00462708
0.117083
0.00909391
0.0156649
0.00785567
0.00248949
0.00162225
0.00227318
0.147927
0.00265822
0.0112633
0.0109667
0.059269
0.00727588
0.0193694
0.00133136
0.00242858
0.0105562
0.079808
0.00189247
0.0114571
0.00116501
0.00127657
0.00328626
0.0228461
0.00478307
0.00215837
0.00305096
0.00143803
0.00772825
0.0449765
0.0109002
0.0463726
0.00249424
0.0142096
0.0146704
0.00296262
0.00183354
0.0559603
0.0485375
0.00148349
0.010859
0.00167751
0.00994452
0.0534268
0.0109881
0.00309205
0.00814946
0.00272829
0.0109006
0.00283287
0.0185386
0.102356
0.0490361
0.0037224
0.0270057
0.00374219
0.0591691
0.0433058
0.00396794
0.017006
0.0433851
0.0916325
0.0122911
0.00268796
0.0104502
0.0115591
0.0148702
0.00775024
0.0394642
0.00549717
0.0146835
0.0108644
0.00508977
0.0181629
0.00532402
0.00711792
0.0526584
0.00715923
0.0015824
0.00141245
0.0457603
0.00237203
0.00118579
0.0493289
0.0246731
0.00259846
0.0013446
0.0137031
0.00137055
0.00330797
0.0463732
0.00632936
0.102697
0.0198211
0.00717198
0.00212508
0.00271469
0.00343528
0.00308839
0.0019367
0.00146744
0.029981
0.00118678
0.0584563
0.00258999
0.00137984
0.0866499
0.127579
0.00139837
0.0416203
0.0820465
0.00312461
0.00191515
0.00446581
0.0190686
0.00126167
0.143517
0.00194606
0.00127796
0.146583
0.00256649
0.00315391
0.001312
0.00134278
0.00140968
0.00132038
0.07389
0.0226407
0.00865134
0.00716666
0.0773622
0.00352264
0.0612627
0.00137323
0.00361096
0.00706603
0.00409965
0.00135656
0.00324219
0.00358686
0.00572189
0.00153398
0.00362241
0.0203586
0.0999671
0.00256263
0.0102106
0.0742798
0.00195535
0.0502973
0.00251987
0.039819
0.00173358
0.0251747
0.0521108
0.00145711
0.0103863
0.0081874
0.00121722
0.00227218
0.00250247
0.0171425
0.00893302
0.0213683
0.0110831
0.00477345
0.0110259
0.11645
0.00236788
0.0083544
0.011252
0.00130924
0.0110421
0.010651
0.00405313
0.00515115
0.00987177
0.0521773
0.00419189
0.0809583
0.00521141
0.00272182
0.00114292
0.0719824
0.0112711
0.000982511
0.0314887
0.00796138
0.0154261
0.0108586
0.00212263
0.00735916
0.0211679
0.0019108
0.114582
0.00184134
0.109752
0.0291596
0.00516378
0.00178902
0.0123842
0.00258543
0.00355214
0.0149009
0.0425172
0.00390652
0.010297
0.00152848
0.0154975
0.00223599
0.00460422
0.0144973
0.0154642
0.00600606
0.0115235
0.00504095
0.00765939
0.0101739
0.0214988
0.0437807
0.00270912
0.0489675
0.016248
0.0851725
0.00508393
0.0158583
0.00784178
0.00134382
0.0249927
0.00460444
0.108118
0.0389381
0.12418
0.0783081
0.019618
0.0825712
0.00506107
0.00121239
0.00775349
0.00997399
0.0224348
0.042405
0.00299896
0.0382645
0.00227934
0.0023977
0.00140167
0.00479117
0.0120734
0.0182691
0.126729
0.0128712
0.0045227
0.0108149
0.00133966
0.00896102
0.00163681
0.00277569
0.145552
0.109986
0.00146286
0.0512727
0.0154774
0.00552767
0.00342032
0.0274831
0.00167841
0.109612
0.0185286
0.0555799
0.0305427
0.00425438
0.00464433
0.0363157
0.0144327
0.00917618
0.00953064
0.00685108
0.00305557
0.00331842
0.00428426
0.00498334
0.0171115
0.0253612
0.00776081
0.00178956
0.0020841
0.00194553
0.0121526
0.00193991
0.00513892
0.0306717
0.0835323
0.0077207
0.0960705
0.0150569
0.00111979
0.0557835
0.0742875
0.00336821
0.00253366
0.00897313
0.00327149
0.0389793
0.00123571
0.00974276
0.00166745
0.0119081
0.0376208
0.00187736
0.00702745
0.0430957
0.00579867
0.13498
0.00484982
0.0155106
0.00638838
0.0020013
0.00938173
0.00225453
0.0602581
0.00185179
0.0275266
0.0161011
0.0257242
0.010163
0.13512
0.0059726
0.00186053
0.00247529
0.00931845
0.0128201
0.00505031
0.0501554
0.12047
0.032042
0.00269884
0.0219199
0.00178305
0.00130649
0.00599884
0.129988
0.00474639
0.00388117
0.00456462
0.0122691
0.00125434
0.0492218
0.106356
0.0507359
0.00258913
0.0433491
0.045395
0.0018051
0.0551242
0.00472775
0.00463986
0.0625456
0.00161702
0.0189563
0.00175521
0.0476253
0.00262505
0.0295397
0.00520233
0.00166233
0.00649357
0.060508
0.0183052
0.00226622
0.0160091
0.00478326
0.0149831
0.018729
0.00479185
0.0151288
0.037576
0.00122862
0.0153451
0.0151616
0.00394436
0.0478729
0.0666885
0.134587
0.0150906
0.0353148
0.0149987
0.00232765
0.000937106
0.00360118
0.00103041
0.00752462
0.0129754
0.00173867
0.00166511
0.0279895
0.000836814
0.00226682
0.00137611
0.00286024
0.0143798
0.00218067
0.00139453
0.00177913
0.00279899
0.00190656
0.00772609
0.00501228
0.0133103
0.0201008
0.152693
0.00270718
0.153113
0.00169675
0.00419005
0.00359162
0.108403
0.00637165
0.00735265
0.023868
0.149185
0.145379
0.00411666
0.027198
0.0393715
0.0104562
0.00119174
0.0226151
0.00379658
0.111643
0.00392158
0.00588956
0.0338645
0.01627
0.0843679
0.00169079
0.00191964
0.00432057
0.00187453
0.0120617
0.00529534
0.106606
0.0105873
0.154035
0.034148
0.125839
0.00190684
0.0632722
0.00871028
0.00340772
0.0151847
0.0147355
0.056627
0.00155346
0.00449299
0.00173363
0.00114939
0.00450187
0.00276364
0.00117328
0.00356408
0.00286047
0.00127076
0.00395756
0.00992245
0.00299498
0.00155659
0.0628818
0.00157294
0.00464004
0.00211083
0.123904
0.00741617
0.00200925
0.148528
0.00147025
0.0168708
0.000962948
0.13132
0.0436805
0.00683361
0.00345972
0.0188325
0.00712035
0.0616825
0.0447676
0.00130891
0.00222327
0.00169537
0.00805687
0.0423493
0.0290205
0.116215
0.0100233
0.00234876
0.00191417
0.00277233
0.00336734
0.0118275
0.117831
0.12927
0.00126618
0.00140417
0.00417752
0.015296
0.019602
0.00549459
0.00151219
0.00155438
0.0818345
0.0641393
0.00145957
0.0251978
0.00343068
0.0141359
0.0372885
0.0147708
0.00845712
0.00136544
0.00122558
0.14077
0.0693749
0.0192957
0.00249382
0.00179013
0.140903
0.0048733
0.0013463
0.113435
0.00264764
0.00191266
0.00178443
0.0715031
0.00157402
0.00145531
0.00885941
0.00300288
0.0207591
0.00261995
0.00332211
0.0213787
0.0582937
0.00147214
0.00274116
0.126219
0.00435977
0.00476519
0.0158305
0.00422982
0.00127068
0.00160932
0.00171314
0.0159387
0.0241324
0.0315652
0.00159447
0.0014627
0.00141071
0.00122135
0.00126715
0.0745291
0.00834464
0.126337
0.123887
0.0158594
0.0811853
0.0540242
0.150716
0.0018519
0.00163107
0.000995084
0.00656229
0.00414331
0.00923473
0.0666416
0.117464
0.00123635
0.0931284
0.000909309
0.00189868
0.106089
0.0526105
0.00141973
0.0289516
0.00371493
0.0195081
0.0960953
0.0859017
0.00119624
0.0888139
0.00123472
0.00133928
0.105548
0.0102035
0.0501758
0.0312528
0.0453192
0.00528015
0.00247727
0.0820678
0.0017523
0.00286785
0.0221322
0.0532404
0.0258431
0.0253602
0.134496
0.00351178
0.00132416
0.00113514
0.0103176
0.00160534
0.142646
0.0212388
0.0317834
0.00442457
0.0210099
0.00222745
0.114343
0.00132907
0.0030867
0.00157826
0.00427322
0.115474
0.0106544
0.0431375
0.00131331
0.16106
0.0149334
0.0172642
0.0210669
0.0305804
0.144028
0.0102277
0.00172497
0.0214602
0.0295326
0.0291745
0.010608
0.00365991
0.137181
0.00152462
0.00186317
0.0249391
0.00185796
0.00145842
0.00244905
0.00205365
0.11429
0.0240458
0.00239269
0.00175394
0.00501417
0.00190457
0.00184996
0.0146073
0.00876597
0.0145922
0.00123555
0.0636455
0.121967
0.00204615
0.0050857
0.00181673
0.0222979
0.148238
0.0684004
0.0013168
0.00631898
0.159257
0.00461166
0.0449644
0.00704976
0.0152982
0.0163193
0.0460174
0.120036
0.0875078
0.0191319
0.00245565
0.00176338
0.104313
0.0580414
0.00152797
0.0415574
0.00585928
0.016053
0.0165147
0.0109975
0.148768
0.00124366
0.0154576
0.0169432
0.000951975
0.00652086
0.0224525
0.0134356
0.0367632
0.0295757
0.00165864
0.00271605
0.00139564
0.0334934
0.102907
0.00865681
0.0143303
0.0673172
0.0111966
0.00152888
0.0169593
0.00996057
0.0156356
0.00499926
0.0674016
0.0728756
0.00140355
0.00244196
0.00234258
0.0509146
0.00450223
0.0748768
0.0540587
0.00522649
0.0018395
0.00650812
0.0157536
0.00447187
0.0330491