/*--------------------------------*- C++ -*----------------------------------*\
| =========                 |                                                 |
| \\      /  F ield         | OpenFOAM: The Open Source CFD Toolbox           |
|  \\    /   O peration     | Version:  v2012                                 |
|   \\  /    A nd           | Website:  www.openfoam.com                      |
|    \\/     M anipulation  |                                                 |
\*---------------------------------------------------------------------------*/
FoamFile
{
    version     2.0;
    format      ascii;
    class       volVectorField;
    location    "950";
    object      ddt0(U);
}
// * * * * * * * * * * * * * * * * * * * * * * * * * * * * * * * * * * * * * //

dimensions      [0 1 -2 0 0 0 0];


internalField   nonuniform List<vector> 
13851
(
(0.00232732 0.00138866 -5.6613e-18)
(0.000398712 1.65873e-05 7.76922e-18)
(0.000396747 2.09974e-05 -3.92441e-18)
(-0.00367319 -0.00296708 -6.38787e-17)
(0.000235869 -4.61358e-06 7.98875e-20)
(0.000432371 -3.26887e-05 1.78218e-17)
(0.000167836 0.000330669 -1.00254e-17)
(0.000487203 4.86761e-07 -1.01176e-19)
(-0.0104516 -0.000121775 -3.14885e-18)
(6.4189e-05 -9.09443e-05 -4.15108e-18)
(0.000475918 -9.0371e-05 6.8647e-18)
(0.000136517 -8.63632e-05 1.09982e-18)
(9.33204e-05 -0.000187666 -4.21871e-18)
(-0.0082671 -0.000517799 6.04415e-18)
(0.000783657 0.000299087 1.88707e-17)
(-0.00303071 0.00276055 2.9337e-18)
(0.000605235 -0.000346294 -4.69234e-17)
(0.000285714 3.63091e-05 7.78538e-19)
(0.00195059 -0.0131679 4.90435e-18)
(0.00249738 0.00128338 5.63798e-18)
(0.00091894 6.76618e-05 5.38159e-18)
(0.000362935 -0.000119031 4.49621e-18)
(-0.00261202 0.00419574 8.58044e-17)
(4.01404e-05 1.50262e-06 1.86948e-19)
(0.00728145 0.0176441 -5.10516e-17)
(-0.000114533 0.00132946 -1.84855e-18)
(0.0121885 0.00532192 1.25954e-17)
(-0.0130127 -0.00455036 1.68343e-17)
(0.00248994 0.00607975 1.37117e-17)
(0.000307204 1.84814e-05 -1.13974e-18)
(0.000703122 0.00432119 5.41232e-17)
(0.000178961 0.000319295 4.41732e-18)
(0.00198571 0.00113011 -1.0645e-17)
(0.000170019 -0.000557786 -1.45636e-17)
(0.00043735 -9.1404e-05 1.35704e-17)
(0.0057926 0.00473933 -3.9817e-18)
(1.84398e-05 1.60364e-06 -2.11974e-19)
(0.00413499 0.00109742 6.03933e-17)
(-0.000931933 0.00763847 1.5565e-17)
(0.00023259 -0.000188391 1.58583e-18)
(-0.00661142 -0.000225299 -2.66576e-17)
(0.00262834 0.00701635 1.93136e-18)
(-0.000267757 0.000385104 7.5392e-18)
(0.00031032 -0.00227851 -1.74145e-17)
(-0.00203305 0.00889475 -1.4394e-17)
(0.000245157 -0.000101303 -2.20434e-19)
(0.000483188 8.73874e-06 5.31251e-18)
(2.04898e-05 0.00438727 3.73221e-18)
(0.000339861 -3.88331e-05 -1.44003e-18)
(7.34205e-05 -0.000182894 1.38199e-18)
(0.00882371 -6.57255e-05 3.15464e-17)
(4.70346e-05 -0.000221356 -1.17035e-17)
(-0.0026141 0.00307984 -2.44449e-19)
(0.000278845 0.000590458 1.57168e-17)
(-0.010369 0.000295367 4.88789e-17)
(0.000230784 -0.000192748 -2.31995e-19)
(0.00197239 0.0012092 9.61149e-18)
(-0.00589726 -0.000572267 2.76247e-17)
(0.00362569 0.0143621 6.9762e-18)
(-0.00521892 0.000223533 -1.31389e-17)
(0.000136008 -9.12568e-05 -3.0514e-19)
(0.00914359 0.00481936 4.53503e-18)
(3.4683e-05 -0.000168221 1.79309e-18)
(0.000352896 -4.12887e-05 -2.41521e-18)
(0.00011908 -0.00097205 -1.4324e-18)
(5.07726e-05 -0.000964203 -3.29352e-19)
(-0.00554196 0.000276756 2.59826e-17)
(5.57325e-05 -0.000598536 -2.2118e-17)
(0.000272376 -0.00010453 8.09674e-19)
(-0.00679955 -0.000207929 -2.47949e-17)
(0.00305488 9.94877e-05 2.69379e-18)
(0.00112491 -4.81358e-05 9.17791e-18)
(0.000158697 -0.000155553 5.60843e-18)
(-0.00547935 0.000200452 -1.19892e-17)
(0.000414692 0.000567373 4.45383e-18)
(0.000310959 -0.000143709 1.69545e-18)
(0.000769697 -0.000656313 -1.58989e-17)
(0.000331944 1.92869e-05 -5.04477e-18)
(0.00936348 0.0205387 4.69967e-17)
(0.000193898 -5.33835e-05 6.36157e-19)
(0.000281412 -9.75394e-05 4.2158e-19)
(0.00611168 -0.00370722 -5.89459e-17)
(0.000432338 -9.46914e-05 -7.80908e-18)
(-0.00739384 -0.000520286 2.97207e-17)
(-0.00517612 0.00017941 1.45316e-17)
(0.00231534 0.0027278 2.07427e-17)
(0.00037017 -0.00011635 2.50171e-18)
(0.0017204 0.00125672 1.64245e-18)
(9.82759e-05 -7.69886e-05 1.13441e-17)
(0.000172131 0.00461392 -1.13396e-16)
(3.92744e-05 -0.000227667 9.19841e-18)
(0.000193036 0.000325818 -1.19197e-17)
(0.00431841 0.000492846 7.55956e-17)
(0.00157793 0.00261783 1.71116e-17)
(0.00862105 0.00149497 8.2653e-18)
(0.000799066 -0.00168997 -1.43675e-17)
(0.000219698 -0.000123745 7.50195e-19)
(-0.0015565 0.00435332 -1.81832e-18)
(0.00150009 -0.00113265 -1.70947e-17)
(-7.45588e-05 0.000992923 2.17408e-17)
(-0.00134717 0.00485249 1.7584e-17)
(0.00010768 -0.000522132 3.17406e-17)
(0.00013939 -0.000541274 5.28894e-18)
(0.000139097 -0.000189467 -1.25557e-18)
(0.00025734 -7.1193e-05 1.37287e-18)
(0.000848981 -0.000306515 -2.32609e-17)
(0.000256322 -7.66723e-05 5.86222e-19)
(0.00323847 0.000435714 -4.56173e-17)
(0.000205623 0.000312496 1.6035e-17)
(0.000292623 3.49986e-05 -3.5116e-18)
(0.000407371 -0.000207866 -1.52095e-18)
(0.000243433 -9.79504e-05 -1.73523e-19)
(-0.00329724 0.000789686 1.51602e-18)
(0.000222227 -0.000204811 2.38986e-17)
(0.00239776 0.00121694 -9.55433e-18)
(0.000279254 0.000565576 -1.14796e-18)
(0.000325624 -1.43886e-05 -1.01499e-18)
(0.000491626 1.08048e-06 -1.09434e-18)
(-0.00284776 -0.00262252 6.7032e-17)
(-0.00684423 -0.000541447 -4.16071e-18)
(0.00143835 -0.00113811 -1.1815e-17)
(0.000286381 3.66944e-05 -3.57506e-18)
(0.000264768 -0.000142084 3.45972e-19)
(-0.00369469 -5.76871e-05 1.44761e-18)
(0.00855882 -0.00463176 3.05083e-17)
(5.64566e-05 -0.000642702 -1.43907e-17)
(0.000225139 -0.000120606 -8.43729e-19)
(0.000496654 -3.57334e-05 -2.98527e-18)
(-0.00273484 0.000858212 -6.23879e-18)
(0.00106285 0.000299764 6.86152e-18)
(0.000363193 -0.000128856 -3.36232e-18)
(0.000433655 -8.20326e-05 1.2661e-17)
(0.000541629 0.000818439 -1.67346e-17)
(0.000222732 -0.000898753 -5.10062e-20)
(0.000489712 -8.85179e-05 -1.43841e-17)
(0.00698469 0.00392933 -2.52696e-18)
(5.20764e-05 -0.000582198 -1.59901e-18)
(0.00255366 0.00199687 -3.94405e-17)
(0.000110554 -0.000473231 8.88392e-18)
(0.000998067 0.000440171 -4.9785e-18)
(0.00487361 -0.00357743 6.19122e-17)
(0.000161187 -0.000303815 -6.8644e-18)
(9.20157e-05 -7.70285e-05 -1.18563e-17)
(0.000115391 -0.00070162 2.45185e-17)
(0.0112117 0.0097825 8.52721e-18)
(0.000284824 -0.000192719 -5.56629e-19)
(0.000327941 1.72802e-05 5.35054e-18)
(0.00109573 0.00323093 3.43996e-18)
(-0.00679705 0.00377003 -2.84554e-18)
(0.000496716 -1.90263e-05 -1.78736e-17)
(-0.000839701 0.00490198 -2.27367e-17)
(-0.00272851 0.000942192 -9.3078e-18)
(0.000168157 -0.000185878 -4.09212e-18)
(0.00330778 -0.00878154 -5.72332e-18)
(9.148e-05 -0.000264544 -8.96141e-18)
(4.49683e-05 -0.000109881 2.53055e-18)
(0.000128253 -8.26482e-05 2.10204e-18)
(-0.000826213 0.00692144 1.57783e-17)
(0.000925584 0.000375815 -2.1368e-18)
(0.000289571 0.000192976 -6.13187e-18)
(5.69983e-05 1.14115e-06 -1.13597e-18)
(0.00395387 0.00557961 5.62538e-18)
(0.000863719 -0.000262292 1.32914e-17)
(0.000402023 0.00428938 1.89607e-19)
(-0.00851336 -0.00060049 -2.28336e-17)
(-0.0101914 0.00206151 -1.05183e-18)
(-0.00994775 0.00162389 2.49395e-18)
(0.0088165 0.000125425 -4.01725e-17)
(0.000399733 -0.00019808 -2.00538e-19)
(-0.00704677 -0.0156702 -2.11107e-17)
(0.000126785 -9.84218e-05 -7.77702e-20)
(0.000348938 -1.33402e-05 5.74027e-19)
(0.000738666 -0.000622514 1.01035e-17)
(0.000185205 -4.79259e-06 -6.46288e-20)
(0.00866854 0.00136344 -1.18758e-17)
(-0.000596131 -0.00510037 -2.66674e-18)
(0.00233027 0.00495888 1.14189e-17)
(0.000352437 -6.57959e-06 -3.482e-19)
(0.000369788 0.000593303 -6.62259e-18)
(0.0018324 0.00484153 -6.19866e-18)
(0.00822912 -0.00378253 -3.18082e-17)
(0.000668208 -0.00225336 1.82718e-17)
(0.000393342 -0.000172976 5.20291e-18)
(0.00101999 0.000333247 -7.16652e-18)
(0.00118913 -0.000100666 -2.58796e-17)
(-0.00633688 0.00424111 2.49633e-19)
(0.00196961 0.00107898 4.67276e-18)
(0.000109292 -0.000428604 4.83165e-18)
(0.000100529 -0.000236597 9.98839e-19)
(0.000285461 -2.66307e-05 -2.78431e-18)
(0.0123564 0.008833 -3.89804e-17)
(0.000929197 0.000334438 -2.172e-18)
(-0.00802707 -0.000238769 1.42805e-17)
(0.00043919 -3.12559e-05 1.40592e-17)
(0.00028468 -0.000185015 4.05172e-19)
(-0.00224329 0.00376975 -4.16435e-18)
(0.00199642 0.00106852 -2.89636e-18)
(0.000287993 3.49273e-05 -1.06478e-17)
(0.00030807 2.85979e-05 -1.19878e-18)
(7.49754e-05 -0.000603561 -3.13944e-17)
(0.00267641 -0.00476908 2.8646e-17)
(0.00565586 -0.00493215 -1.19688e-17)
(-0.00571263 -0.00240659 -1.9925e-17)
(0.000758019 0.000327804 -7.54019e-18)
(0.00248541 -0.00377813 -2.89256e-17)
(0.00538346 -0.0044838 4.10758e-17)
(4.83837e-05 -0.000380655 -7.68422e-18)
(0.000836111 0.000696226 2.19446e-17)
(-0.0096718 -0.00128933 -7.09075e-18)
(0.000407995 -3.3861e-05 3.08568e-18)
(-0.00327428 0.00199498 2.26126e-17)
(0.000263731 -0.000143422 -1.34343e-19)
(0.0039546 -0.00518279 -3.36759e-17)
(2.15764e-05 -4.05635e-06 -5.01338e-19)
(0.000440318 -0.000107755 -2.0151e-17)
(0.000332679 -0.000143023 -1.50452e-18)
(7.07219e-05 -0.000168852 -1.07275e-18)
(0.00333401 0.00394008 -9.92731e-18)
(0.000298348 2.9855e-05 2.77923e-18)
(0.000184917 -0.000867779 4.06969e-18)
(0.000343677 -3.97092e-06 -3.86533e-19)
(0.00289855 0.00119045 2.96908e-17)
(-0.00723872 -0.000164486 -5.67828e-17)
(0.00792725 0.00292253 -6.9178e-17)
(0.000129736 -0.000417494 -1.15514e-17)
(0.000825802 0.000734256 -2.44413e-17)
(3.45008e-05 7.94208e-06 -1.55835e-18)
(0.000124693 -0.000677645 6.48658e-18)
(0.000160314 -3.96377e-05 3.07479e-19)
(0.000442115 -0.000102773 2.04341e-17)
(-0.00216689 -0.00686776 1.97753e-17)
(0.000115776 -0.000424251 -1.28318e-17)
(0.000409748 -2.967e-05 -1.16847e-18)
(2.71862e-05 -0.000174102 2.12669e-18)
(-0.00567985 -0.00192385 1.41467e-17)
(0.000307366 2.28646e-05 -5.0373e-19)
(-0.0112205 0.000277733 -8.70716e-17)
(-0.00500949 -0.00323296 1.67933e-17)
(-2.60896e-05 0.000746018 4.84232e-17)
(3.19676e-05 1.80013e-06 3.36503e-19)
(0.00465342 -0.000330993 -1.49812e-18)
(-0.00519127 0.000117873 -1.74112e-17)
(-0.00117726 0.00957375 1.7764e-17)
(-0.00296462 0.00220267 -2.22682e-17)
(0.000638345 -2.92096e-05 7.02687e-18)
(7.10224e-05 -0.000695196 -1.7298e-17)
(0.00320791 0.00324648 2.44643e-18)
(0.000352036 0.000614765 8.92229e-18)
(0.000927756 -0.00159735 1.50864e-17)
(0.000440298 -0.000172308 3.55771e-18)
(-0.00585872 0.00121033 1.60512e-18)
(0.00357874 -0.00237823 -6.7432e-17)
(0.000438031 -4.22075e-06 1.00683e-18)
(0.000464233 5.41779e-05 -2.74819e-18)
(-0.00207293 0.00428224 -4.8828e-18)
(0.00436388 0.00486697 -5.1745e-18)
(0.00667652 0.000687202 3.50285e-18)
(0.000311117 -2.8745e-05 2.07128e-18)
(5.73805e-05 -0.00064571 3.68944e-17)
(9.07841e-05 -7.34633e-05 -1.27847e-18)
(0.0010563 0.000778605 -6.27282e-18)
(0.00716197 -0.00629417 1.2655e-17)
(0.000478891 5.46899e-05 -6.10505e-18)
(0.000926619 -0.000239772 1.69129e-17)
(0.00365715 -0.00278547 6.42182e-17)
(0.000155738 -0.000119723 -2.97566e-18)
(0.000114214 -0.000529888 -1.69032e-17)
(0.000664434 0.00331199 -8.22589e-18)
(-0.00013168 0.00781447 3.80494e-17)
(9.92429e-05 -0.000134652 7.26505e-20)
(6.04807e-05 -0.000164565 5.23623e-19)
(0.000125723 -0.000423757 8.97118e-18)
(-0.00619181 -0.00376769 2.39311e-18)
(-0.00449476 -0.000808504 6.99895e-17)
(0.00104681 9.78096e-05 5.96443e-18)
(0.000289091 3.69045e-05 -6.17756e-19)
(0.00917937 -0.0025055 -2.11232e-17)
(0.00525594 -0.00785815 1.92009e-17)
(0.00206277 0.00118149 8.06089e-18)
(0.000934298 -0.000195772 -1.47953e-17)
(-0.00657564 -0.00361918 5.4135e-20)
(-0.0030567 -0.000611856 2.07283e-17)
(0.000483643 1.3224e-06 8.65461e-18)
(0.000679423 0.00028931 -7.10632e-19)
(0.0112833 0.00737633 -2.68695e-17)
(0.000275399 -4.31852e-05 -5.2409e-18)
(0.000129043 -7.71389e-05 -7.97018e-19)
(0.00207357 0.00112262 8.61815e-18)
(0.000451301 -8.02533e-05 3.15102e-17)
(0.000300608 2.88999e-05 -1.69723e-18)
(5.1178e-05 -4.55277e-06 8.19533e-19)
(0.000168346 -3.95238e-05 -6.34308e-19)
(0.000333862 -1.19509e-06 -1.02826e-19)
(0.000673339 7.22421e-05 3.26109e-18)
(0.0001315 -7.90843e-05 -2.00005e-18)
(-0.0100877 -0.000635852 -1.24247e-19)
(0.000967979 6.24342e-05 -2.11362e-18)
(0.000237632 -0.000151202 -2.7213e-20)
(0.00501227 0.00450742 4.76439e-18)
(-0.00395569 -0.000139546 -8.56078e-18)
(7.48177e-05 -0.000230977 -9.69558e-18)
(0.00272363 0.00138588 -1.74559e-17)
(0.00641998 -0.000785036 -1.04328e-17)
(0.000164717 -0.00030854 -9.53531e-18)
(6.0097e-05 -0.000237526 -7.18561e-19)
(0.00100355 1.21487e-05 1.26746e-17)
(-0.00639055 -0.000348747 -6.64451e-18)
(0.00169103 -0.00921179 3.59048e-17)
(0.00111525 -0.000745135 6.16528e-17)
(0.000253791 -5.49725e-06 -3.46005e-19)
(-0.00798071 -0.0154153 2.17998e-17)
(0.000128563 -9.61241e-05 -7.70183e-20)
(0.00105871 -0.000963316 -9.21142e-18)
(0.00661118 -0.000972313 8.54828e-18)
(0.00093808 0.0118535 -3.97354e-17)
(0.000288622 0.000185402 -1.35238e-17)
(0.0106586 0.00681054 -7.51321e-18)
(-0.00755021 0.00276712 1.15201e-17)
(0.00340891 -0.0019953 -1.04578e-17)
(-0.00190657 0.00171878 -5.11753e-17)
(7.22686e-05 -0.000534074 -9.03702e-19)
(0.00639317 0.00474904 6.54613e-18)
(-0.00310917 0.000155479 -1.44881e-20)
(-0.010632 -0.00652937 -3.62848e-17)
(0.000307637 2.82284e-05 -5.31981e-19)
(0.00126 0.00116639 5.17594e-17)
(0.000555097 0.000468301 1.25964e-18)
(0.000117271 -0.000660131 2.1165e-18)
(8.45855e-05 -0.000627549 -1.13592e-17)
(4.56545e-05 -0.000383995 8.59061e-18)
(0.000829143 -0.000771253 2.83099e-17)
(0.000258793 -0.000362958 7.4712e-18)
(0.00214526 0.00144367 -1.33231e-17)
(0.000104573 -0.00054853 -1.04772e-18)
(0.000396596 -7.43537e-06 3.63983e-19)
(0.000505432 8.91216e-06 -2.98769e-18)
(0.000400174 -7.21078e-05 -2.97019e-18)
(0.00282792 -0.00162949 -1.62033e-17)
(0.00020418 -0.000845122 -3.52956e-17)
(0.00027592 -3.92581e-05 3.01293e-18)
(0.00844969 0.00211278 8.31883e-17)
(0.000238729 -0.000380698 -3.37188e-18)
(0.000433621 -8.64132e-05 -1.17005e-17)
(0.000288928 0.00020717 5.13502e-18)
(-0.00650653 -0.000182133 8.28162e-18)
(0.00874858 -0.00167312 2.80623e-17)
(-0.00267643 0.00359598 4.77371e-18)
(0.000319875 -0.000144148 2.84165e-19)
(0.000406717 -2.58821e-05 8.71651e-18)
(0.00830641 0.000721164 9.75556e-18)
(0.000102434 -0.000244539 -1.36316e-18)
(0.00466525 -0.00902726 -2.50153e-18)
(0.000479228 1.01962e-05 -7.58084e-18)
(0.000994485 -3.22243e-05 -3.71061e-17)
(0.000237353 -0.000387127 -3.52784e-18)
(9.58312e-05 -7.43616e-05 -3.56155e-18)
(0.000246707 -0.000146652 7.38899e-20)
(0.00195982 -0.000218269 -6.06954e-17)
(-0.000415666 0.00105753 3.90163e-18)
(0.00397522 -0.00164155 5.42502e-17)
(-0.00116269 0.00317305 -7.29052e-17)
(0.00859029 0.00108078 -1.42625e-17)
(0.000291209 -0.000191507 -1.58825e-19)
(-0.00496773 -0.00265714 -5.26459e-18)
(7.04559e-06 0.00123521 -7.02129e-18)
(0.000292268 1.83469e-05 -8.61912e-19)
(-0.00144651 0.0131701 1.95097e-17)
(0.00227998 0.000405925 1.48417e-17)
(0.00201526 -0.00151039 1.93797e-17)
(0.000394187 -7.00516e-05 3.69759e-18)
(-0.000429059 0.00103981 -1.37124e-17)
(0.00183397 0.0128031 -1.8811e-19)
(-0.0122396 -0.0150476 -2.6714e-17)
(0.00143992 -0.000657208 7.77836e-17)
(6.99729e-05 0.00170234 5.35066e-19)
(0.000325138 5.15158e-06 7.17083e-18)
(-0.00199066 -0.00568523 1.8781e-17)
(-0.000541491 0.000690403 5.34224e-17)
(0.000541927 -6.13211e-05 6.07341e-18)
(-0.005908 0.00174257 -1.28194e-17)
(0.000556742 -0.000102323 -2.09945e-17)
(-0.00440317 -0.00451959 3.53186e-17)
(0.000669319 0.000265605 7.18606e-18)
(0.000173092 0.0008126 -3.44417e-18)
(0.00277168 -0.00320796 3.69763e-17)
(-0.00200163 0.000242251 2.96939e-18)
(4.59658e-05 -0.000111806 5.37076e-18)
(0.000461689 -1.35033e-05 5.60101e-18)
(0.000448775 -8.356e-05 2.0149e-17)
(0.000397838 0.000593263 -3.35115e-18)
(0.000252248 -0.000119917 -1.29048e-19)
(0.00107517 0.000134699 -1.19454e-17)
(-0.00220549 0.00270214 1.58147e-17)
(0.000152063 -0.000151745 -2.78869e-18)
(0.000876544 0.000653164 -1.001e-17)
(-8.30324e-05 -0.00214323 1.77895e-16)
(0.000381236 -1.1128e-05 -2.61609e-18)
(-0.000383567 -0.00410559 4.29412e-18)
(0.000367582 0.000911362 -2.59117e-17)
(0.000402879 -0.00990098 -6.47651e-17)
(0.000412833 -3.9168e-05 -9.00804e-18)
(-4.33276e-05 0.00126566 1.42974e-17)
(0.00142048 -4.36007e-05 1.03798e-17)
(0.00810858 -0.00599903 -8.51819e-18)
(0.000758728 -0.000318023 1.54026e-17)
(0.00679594 0.000603479 -8.88111e-18)
(-0.00546369 0.000154372 1.97923e-17)
(0.00347807 0.000224133 3.98136e-18)
(0.00016702 -0.000121489 6.41576e-18)
(0.0018204 1.9983e-05 6.06059e-17)
(0.00052215 -0.000122833 2.00028e-17)
(-0.000351532 0.00113869 1.958e-18)
(0.000286197 3.10574e-05 -4.6131e-18)
(0.00123525 0.00028642 -4.29786e-20)
(-0.00966478 0.00712593 -3.01564e-18)
(-0.00969991 -0.00259697 8.77861e-17)
(0.000399587 -2.12608e-05 3.44871e-18)
(0.0032283 -0.00324428 -3.76034e-17)
(0.00841151 0.000607834 1.64089e-17)
(-0.00413928 -0.00128678 -6.38149e-17)
(0.000316744 1.105e-05 -2.55411e-18)
(0.00130369 0.000876535 -7.86174e-17)
(-0.00266933 -0.00101855 1.91366e-17)
(0.0028734 0.00259628 -1.02323e-17)
(0.000451791 -0.000169303 -5.76337e-19)
(-0.0129678 -0.0216139 2.39933e-17)
(0.000103722 -0.000114087 4.51458e-18)
(0.000190103 -3.96247e-06 1.84542e-19)
(-0.0101508 0.000275246 -6.03517e-17)
(0.00718846 -0.00160154 -3.02871e-18)
(6.5338e-05 -8.67019e-05 -7.4946e-19)
(0.000400688 1.08854e-05 3.00865e-18)
(0.000921919 0.000647402 2.36886e-18)
(0.000324665 -3.47418e-05 -2.47755e-18)
(-0.0113622 0.00852682 2.90684e-17)
(0.000925851 -0.00079926 -1.41203e-17)
(0.00224358 0.000308938 -5.83147e-18)
(0.000410348 0.000198551 2.40992e-18)
(0.000323881 9.58121e-06 -3.9923e-18)
(1.67323e-05 -0.000218196 -9.81883e-19)
(-0.00845157 -0.0158022 -2.62058e-18)
(0.000230024 -0.000154869 -6.45796e-19)
(1.35495e-05 -0.000206703 4.80463e-18)
(0.0084447 0.0134997 -1.64691e-17)
(-0.00366548 0.00402915 -1.70949e-17)
(0.000355826 -0.000133486 5.65554e-18)
(0.00204996 0.0105752 1.19267e-18)
(1.09226e-05 -0.000172346 1.60122e-18)
(0.000145836 -7.35063e-05 1.47142e-18)
(0.000385635 -1.5837e-05 -1.61558e-17)
(0.00405755 -0.00196762 -5.42405e-17)
(0.00027157 0.000896887 1.7785e-17)
(0.000226861 -0.000126378 -3.08119e-20)
(0.000337096 1.55424e-05 -1.05369e-18)
(0.00147377 -0.00101604 -3.43575e-18)
(0.000358339 3.77724e-05 1.01531e-17)
(0.00637945 -0.00659485 7.03808e-18)
(0.000145597 -8.25958e-05 6.01578e-19)
(0.000361722 0.000377271 5.45572e-18)
(-0.00292722 0.00912154 -6.1769e-18)
(0.000309894 -0.000422501 -2.00791e-17)
(0.000470613 2.17748e-06 -4.42982e-19)
(0.00011443 -0.000107389 -5.5973e-19)
(0.000410374 0.000184553 -6.18711e-18)
(0.000285905 4.49375e-05 -9.52841e-18)
(0.00337705 -0.000739263 -1.92371e-17)
(0.00792016 0.0115081 -5.68478e-19)
(0.000654781 -2.59571e-05 -4.25595e-18)
(0.000853499 -0.000615205 -6.86812e-20)
(0.000391134 -1.70732e-05 -3.78652e-18)
(0.000137156 -8.46862e-05 -7.46834e-19)
(-0.00176555 -0.00175933 4.94655e-18)
(0.00307556 0.0120485 -4.1494e-18)
(0.00017217 -0.000464942 -2.43955e-18)
(0.000174342 -0.000184041 1.44299e-18)
(-0.00329352 -5.26495e-05 7.38735e-18)
(0.00012439 -0.000466917 -1.53381e-17)
(-0.00254275 -0.00802835 3.74416e-17)
(0.000139717 -0.000186469 -8.9089e-19)
(0.000445725 -9.01475e-05 -1.63232e-17)
(0.0017151 -0.000679774 -9.22633e-17)
(0.000531435 0.000562006 -2.12263e-17)
(-0.00276101 0.000266561 3.09226e-17)
(0.00979366 0.00127294 -1.44908e-17)
(-0.00855771 -0.00426714 -7.89416e-17)
(0.00021878 -0.000296479 -6.71649e-18)
(-0.00254524 0.0017009 5.51262e-17)
(0.000181714 -0.000132867 -6.77952e-19)
(0.00302206 0.00545088 -1.75533e-17)
(0.000402615 0.000890261 2.33027e-17)
(0.00201465 0.00106161 3.7772e-17)
(0.000528832 -0.000112114 -1.07803e-17)
(0.00031654 -0.000138792 -1.76333e-19)
(0.000319974 -0.000404668 -4.39731e-18)
(0.00082072 -0.00065711 -2.33199e-17)
(0.000222863 -5.51649e-06 1.92017e-19)
(-0.0055843 0.000481158 8.52816e-19)
(-0.00226409 -0.00157336 -1.98955e-17)
(0.00676877 -0.0053071 -1.84609e-17)
(0.00301432 0.00206088 8.82701e-17)
(0.00743096 0.0127274 -2.84971e-18)
(-0.00330248 0.000651527 6.18548e-17)
(0.00670789 -0.00776987 -3.79253e-17)
(0.000151043 -0.000404434 1.52638e-18)
(2.46578e-05 -4.08862e-05 -7.36745e-19)
(-0.00546786 -0.00165339 -2.44136e-17)
(4.98648e-05 -9.57298e-05 6.25721e-18)
(0.000230774 -0.000117513 3.38534e-20)
(0.000169426 -0.000416016 5.61466e-18)
(0.00899203 0.000207091 -1.31827e-17)
(0.000389011 4.51249e-05 -1.32688e-17)
(0.000140989 -0.0003119 3.84153e-18)
(0.000963188 -0.000511112 1.25098e-17)
(0.000469656 -0.000299963 -6.11479e-18)
(2.38825e-05 -9.5226e-05 -8.0394e-19)
(-0.000936671 0.016814 5.58137e-17)
(0.000209111 -0.000117058 -2.03403e-19)
(-0.0017326 0.000275077 9.17823e-18)
(0.00318785 -0.000236192 2.37299e-17)
(0.00019693 -6.18578e-05 -1.57285e-18)
(0.000341414 9.54023e-05 -3.50996e-18)
(-0.00128492 -0.00402318 -1.59645e-18)
(-0.0028668 0.0094539 -2.42616e-17)
(0.000300418 2.49768e-05 1.40933e-18)
(-0.000919683 -0.00391264 -2.01507e-17)
(-0.0102597 -0.00245278 3.22225e-17)
(0.00028676 3.9269e-05 2.42843e-18)
(-0.00480083 -0.00198356 -1.70744e-17)
(0.00334002 -0.011568 -1.93749e-17)
(0.00330038 0.000924001 2.88336e-18)
(0.000216704 -0.000298009 4.19717e-18)
(0.00788025 0.0146189 1.50317e-17)
(-0.00499451 -0.000304486 1.52955e-17)
(0.000271925 4.01276e-05 -3.2256e-18)
(-0.00937836 0.00233666 3.8845e-17)
(0.000264099 -0.000122697 3.68155e-19)
(0.00020503 -0.000122936 2.05539e-19)
(0.00996153 0.00143874 9.77159e-18)
(-0.00425235 -0.00459178 2.4304e-17)
(0.000537937 -0.000192497 -1.38628e-17)
(0.000252616 0.000878678 -1.70679e-17)
(4.261e-05 -9.40104e-05 -3.6465e-19)
(0.000401982 0.00124392 -2.8664e-18)
(-0.00238313 0.000852475 1.07723e-17)
(0.00266666 0.00642876 -9.28889e-17)
(0.000270817 2.72109e-05 3.59196e-18)
(-0.00142489 -0.000815885 -2.24421e-17)
(0.000242128 -0.000124765 3.98124e-21)
(0.000268465 -0.000115265 -1.04973e-18)
(0.000796576 -0.000333486 -5.93882e-18)
(0.000280732 0.000442434 -9.45529e-18)
(0.000309892 1.41617e-05 -3.57844e-18)
(0.000309788 -0.000153766 -4.92055e-19)
(-0.00550183 -0.00111289 4.03985e-17)
(-0.00171425 8.14177e-05 1.18738e-16)
(-0.00498629 -0.00132919 8.03639e-17)
(0.00037786 4.22971e-05 9.19181e-19)
(9.96629e-05 -7.11577e-05 3.74865e-18)
(-0.006903 -0.00312726 2.07329e-17)
(5.41051e-05 -8.52486e-05 -1.18059e-18)
(0.00185586 0.000761574 7.00572e-17)
(0.000435036 0.00028947 1.07491e-17)
(0.000461007 0.000537431 -1.43784e-18)
(0.000611337 -5.92274e-05 3.8077e-18)
(-0.000319706 0.0112918 -8.68485e-18)
(-0.00266103 -0.000917803 -6.26325e-17)
(0.000443907 -2.13291e-05 -5.84567e-18)
(-0.000271673 0.00120201 -4.34555e-18)
(0.000294536 0.000156132 4.05215e-18)
(0.000401588 -0.000690367 -4.62118e-18)
(0.00178813 0.00770612 -5.48393e-18)
(-0.0105211 0.000423114 2.53094e-18)
(0.000247769 -0.000165523 1.51435e-19)
(0.000161707 -0.000130975 4.21463e-18)
(0.000145792 -0.000545345 8.5894e-18)
(-0.00583526 -0.000213028 -2.19496e-17)
(-0.00555363 0.00758818 -9.16847e-18)
(0.00036092 0.0012094 4.3525e-18)
(-0.0131796 0.0061301 2.41474e-17)
(0.000269778 0.000459153 1.48994e-17)
(0.000629803 0.000296713 8.97638e-18)
(-0.00461886 -0.007316 -5.21118e-17)
(-0.00234492 0.0149044 -2.24968e-17)
(0.00117574 -0.000923858 -1.63176e-17)
(-0.00179631 -0.000128397 -1.76999e-17)
(0.00382721 0.000730587 1.99327e-17)
(0.00818926 0.00338216 -1.24746e-17)
(0.000314054 5.40389e-06 -2.48431e-18)
(0.0018832 0.0151357 -9.88555e-18)
(-0.0110704 -0.0231322 4.66758e-17)
(0.000120493 -0.000109188 -2.88405e-18)
(0.00618557 0.000870863 -1.08924e-16)
(0.00844072 -0.000906486 -1.81476e-17)
(0.000401673 -0.00018439 -2.4363e-19)
(0.00103414 0.000401853 4.18931e-18)
(0.000210309 -0.000197768 3.17154e-19)
(0.00238346 0.000466867 4.10496e-18)
(0.000593688 0.0001114 4.46405e-18)
(-0.015039 -0.00207316 -1.20329e-16)
(0.000229599 -0.000158969 -2.76293e-19)
(0.000138712 -5.01248e-06 1.50881e-19)
(9.39173e-05 -0.000406768 -6.44692e-20)
(0.000461686 -0.000270046 -9.4145e-18)
(0.000156831 -8.06652e-05 -4.43893e-20)
(0.00912106 0.000479278 4.15205e-18)
(0.000144102 -7.12124e-06 2.72639e-20)
(0.00341064 0.000754059 -2.02562e-17)
(0.000198338 -0.000312965 -1.09278e-17)
(-0.000383776 0.00120638 -6.94637e-19)
(0.000155507 -0.000184009 -4.53532e-18)
(2.46897e-05 -9.22705e-05 -2.81392e-18)
(0.000535958 -0.000103998 8.59946e-18)
(-0.00168668 -0.000791725 8.5885e-17)
(0.000676928 -0.00033606 3.68644e-18)
(0.00759345 0.00314441 4.68237e-18)
(0.000439245 -8.838e-05 1.53082e-17)
(0.00029325 -3.9452e-05 -3.88526e-20)
(0.000281984 2.33127e-05 -7.56827e-18)
(0.000669426 -0.000662115 -2.92405e-18)
(0.000332946 1.53343e-05 1.05133e-17)
(-0.000722939 -0.000107769 7.83394e-18)
(0.000407775 3.55951e-05 9.4402e-18)
(0.000164797 -0.00045808 -1.02669e-17)
(0.000183112 0.0138332 -2.88575e-18)
(2.56378e-05 -8.64546e-05 2.90494e-18)
(0.00757499 0.000205269 2.21917e-18)
(3.36676e-05 5.19079e-06 -4.21273e-19)
(-0.00126409 0.00121384 1.42378e-17)
(-0.000685076 0.00144482 -4.97288e-17)
(-0.00861555 0.00605985 -2.63189e-18)
(3.91678e-05 -0.000434008 -3.63126e-17)
(-0.0128305 -0.00367851 1.06099e-16)
(0.000898255 -0.000540537 2.4547e-17)
(0.00137394 0.00169751 3.92989e-17)
(0.00855191 -0.00218637 1.15446e-17)
(0.000273087 2.88612e-05 -4.67347e-18)
(-0.00247384 0.0153406 -6.23084e-17)
(0.000256329 -0.000373285 -6.41384e-18)
(0.000553141 -7.46771e-05 -3.9715e-18)
(0.00388099 0.0022333 3.17604e-17)
(-0.00565818 0.0111931 -1.6417e-17)
(0.000309158 1.94286e-05 5.72282e-19)
(-0.000544033 -7.73538e-05 -4.53008e-18)
(0.00028213 3.59713e-05 5.25846e-19)
(0.00765015 0.00296523 -6.99313e-18)
(0.00697316 0.00122104 2.04764e-17)
(0.000281425 -7.91904e-05 2.03291e-18)
(6.1879e-05 -0.000596718 -2.82965e-17)
(-0.0166363 0.00640961 -7.9843e-18)
(2.46007e-05 9.68534e-06 2.87167e-18)
(2.5278e-05 4.67006e-06 9.96913e-19)
(-0.000203023 0.0013226 -5.02854e-18)
(0.0077534 0.000193859 4.42423e-19)
(0.00792423 0.0163717 -4.91522e-20)
(5.12924e-05 -0.000232219 2.59748e-18)
(0.00192145 -0.00365302 -1.75288e-17)
(0.0003556 3.68121e-05 9.23532e-18)
(3.09249e-05 -8.8888e-05 7.59534e-18)
(-0.00329588 0.0141677 1.08928e-18)
(0.00245229 -0.00376983 1.87089e-17)
(-0.000449995 0.00049464 1.86432e-17)
(0.000342376 9.63456e-06 -1.00281e-18)
(0.000923202 0.00318779 -1.50946e-19)
(0.000301184 -0.000534433 1.81725e-17)
(1.09573e-05 0.00113902 -3.92946e-19)
(5.75591e-05 -0.000331102 2.44872e-18)
(0.000277935 -0.000191463 3.97193e-19)
(0.000616204 6.87904e-05 6.61516e-18)
(9.4134e-05 -0.000400561 -1.16083e-17)
(0.000449402 0.00381604 -1.37278e-17)
(0.00111435 1.65232e-05 -1.21125e-17)
(0.00108117 -9.27774e-05 -2.21821e-19)
(0.00107533 -0.000819948 7.98785e-18)
(-0.00243013 -0.00245477 -3.20833e-17)
(0.000464649 -0.0124461 -8.97064e-18)
(0.000101396 -0.00694275 -1.2949e-17)
(-0.00403902 -0.0067236 3.49575e-17)
(-0.000630551 0.00457471 -1.52611e-17)
(-0.00783357 -0.00104797 -7.44876e-18)
(0.000494267 -0.000296978 2.08505e-18)
(0.0105169 0.00273014 -8.56411e-18)
(0.00317825 0.00121265 -2.82789e-17)
(0.000289566 3.39062e-05 -2.47371e-18)
(0.000600596 0.000270961 1.19107e-19)
(4.50713e-05 -0.0104315 2.25827e-17)
(0.00038583 -8.68608e-05 3.24413e-18)
(0.000194189 -4.72877e-05 3.13411e-19)
(0.000195492 -4.25967e-05 -2.42906e-19)
(-0.00118407 0.0015694 -1.0642e-17)
(0.000629016 0.00140801 1.43407e-17)
(0.000378051 0.000377125 2.82596e-18)
(-0.00419375 -0.00323544 -1.33578e-17)
(0.000309075 -4.33993e-05 -2.00973e-19)
(0.00733737 0.0164604 1.19907e-18)
(0.000586076 -0.00105074 2.8784e-19)
(0.0070622 -0.000570935 -3.83052e-17)
(-0.000417863 0.000152863 8.46071e-18)
(0.000418023 -4.51935e-05 1.25047e-17)
(0.000399149 2.74613e-05 -6.65201e-18)
(0.00737788 -0.000678222 3.33581e-17)
(-0.00057952 0.000281763 1.64736e-17)
(0.000484831 -0.000281031 -1.80706e-18)
(0.00859263 -0.00100617 6.45316e-18)
(0.000319375 1.37069e-05 1.11576e-17)
(0.000430494 -0.00361873 3.36966e-17)
(-0.00133444 0.00145293 5.78829e-18)
(0.00308432 0.000400226 -9.53671e-18)
(0.000480207 -0.000109969 2.11038e-17)
(-0.00480085 -0.00353625 -6.27716e-17)
(0.000104961 -0.000111369 5.61796e-18)
(2.06767e-05 3.33016e-06 -2.63927e-19)
(5.14112e-05 -0.000374545 5.13042e-18)
(3.05887e-05 -8.87549e-05 -4.61353e-18)
(-1.75966e-05 0.00787017 3.11782e-18)
(0.000327451 -1.77912e-06 -3.34204e-20)
(-0.00418366 0.0127153 -2.47637e-18)
(-0.00723886 -0.00305141 -3.38499e-17)
(-0.000384227 0.000280618 -1.22154e-17)
(0.00411078 0.00615005 2.69735e-17)
(0.00097618 -0.00139063 1.82584e-17)
(0.002927 0.000108684 7.94931e-18)
(0.00120318 0.0020331 -2.80047e-17)
(5.21952e-05 -0.000430695 1.43192e-17)
(1.75622e-05 -0.00010126 1.13859e-18)
(5.85146e-05 -0.000150106 4.82635e-18)
(0.000337797 2.14788e-05 2.75836e-18)
(0.000279179 2.58037e-05 7.88297e-18)
(0.000156635 -6.95824e-06 7.48853e-19)
(0.000555854 -0.000797517 -1.05585e-17)
(-0.00319167 -0.000499589 2.74505e-17)
(0.00030727 -0.000556843 -7.83908e-18)
(-0.00692263 -0.0014365 2.51678e-17)
(0.000300706 -0.000120167 1.01573e-18)
(-0.0101056 -0.000801813 7.57426e-18)
(7.92674e-07 4.61635e-06 -1.90394e-18)
(-0.00339615 -0.00359711 -3.59391e-17)
(0.000441766 -8.53417e-05 1.60847e-18)
(1.83652e-05 8.53105e-06 2.07749e-18)
(2.41527e-05 -0.000167904 -3.63638e-18)
(-0.00934113 0.00479851 -1.47182e-19)
(0.000436095 -3.82093e-05 -1.65631e-17)
(-0.00229465 0.0068806 7.72385e-18)
(0.00779527 -0.003989 -2.65665e-17)
(0.000951036 0.000429991 -7.39042e-18)
(0.00166169 7.39218e-05 4.8112e-17)
(0.000273422 4.84646e-05 5.94342e-19)
(-0.000430235 -0.000379888 -8.50221e-19)
(0.000258353 -0.000267746 1.16911e-18)
(0.000397463 3.95744e-05 1.30933e-17)
(-0.00149751 0.014565 5.56471e-18)
(2.65258e-05 -9.9781e-05 4.07658e-18)
(0.000154471 -0.00030501 3.01361e-18)
(0.000274637 2.38616e-05 -1.90073e-18)
(0.000481095 0.000878223 2.81629e-18)
(-0.0032737 0.00152413 1.31073e-17)
(0.000434767 -8.00275e-05 -3.13177e-18)
(0.000498395 -0.000114569 -8.71944e-18)
(-0.00324325 -0.000430975 -3.47894e-18)
(0.00232939 0.00588569 6.56342e-17)
(9.23639e-05 -0.000432811 -1.12903e-17)
(0.000301558 -0.000269904 -2.3509e-18)
(0.00527698 0.00640421 -6.29222e-18)
(0.000348636 2.13642e-05 2.32418e-18)