/*--------------------------------*- C++ -*----------------------------------*\
| =========                 |                                                 |
| \\      /  F ield         | OpenFOAM: The Open Source CFD Toolbox           |
|  \\    /   O peration     | Version:  v2012                                 |
|   \\  /    A nd           | Website:  www.openfoam.com                      |
|    \\/     M anipulation  |                                                 |
\*---------------------------------------------------------------------------*/
FoamFile
{
    version     2.0;
    format      ascii;
    class       pointVectorField;
    location    "400";
    object      pointDisplacement;
}
// * * * * * * * * * * * * * * * * * * * * * * * * * * * * * * * * * * * * * //

dimensions      [0 1 0 0 0 0 0];


internalField   nonuniform List<vector> 
14386
(
(0 0 0)
(0 1.17543e-05 0)
(0 0 0)
(0 1.17543e-05 0)
(0 0 0)
(0 0 0)
(0 0 0)
(0 0 0)
(0 0 0)
(0 0 0)
(0 0 0)
(0 0 0)
(0 0 0)
(0 0 0)
(0 0 0)
(0 0 0)
(0 0 0)
(0 0 0)
(0 0 0)
(0 0 0)
(0 0 0)
(0 0 0)
(0 0 0)
(0 0 0)
(0 0 0)
(0 0 0)
(0 0 0)
(0 0 0)
(0 0 0)
(0 0 0)
(0 0 0)
(0 0 0)
(0 0 0)
(0 0 0)
(0 0 0)
(0 0 0)
(0 0 0)
(0 0 0)
(0 0 0)
(0 0 0)
(0 0 0)
(0 0 0)
(0 0 0)
(0 0 0)
(0 0 0)
(0 0 0)
(0 0 0)
(0 0 0)
(0 0 0)
(0 0 0)
(0 0 0)
(0 0 0)
(0 0 0)
(0 0 0)
(0 0 0)
(0 0 0)
(0 0 0)
(0 0 0)
(0 0 0)
(0 0 0)
(0 0 0)
(0 0 0)
(0 0 0)
(0 0 0)
(0 0 0)
(0 0 0)
(0 0 0)
(0 0 0)
(0 0 0)
(0 0 0)
(0 0 0)
(0 0 0)
(0 0 0)
(0 0 0)
(0 0 0)
(0 0 0)
(0 0 0)
(0 0 0)
(0 0 0)
(0 0 0)
(0 0 0)
(0 0 0)
(0 0 0)
(0 0 0)
(0 0 0)
(0 0 0)
(0 0 0)
(0 0 0)
(0 0 0)
(0 0 0)
(0 0 0)
(0 0 0)
(0 0 0)
(0 0 0)
(0 0 0)
(0 0 0)
(0 0 0)
(0 0 0)
(0 0 0)
(0 0 0)
(0 0 0)
(0 0 0)
(0 0 0)
(0 0 0)
(0 0 0)
(0 0 0)
(0 0 0)
(0 0 0)
(0 0 0)
(0 0 0)
(0 0 0)
(0 0 0)
(0 0 0)
(0 0 0)
(0 0 0)
(0 0 0)
(0 0 0)
(0 0 0)
(0 0 0)
(0 0 0)
(0 0 0)
(0 0 0)
(0 0 0)
(0 0 0)
(0 0 0)
(0 0 0)
(0 0 0)
(0 0 0)
(0 0 0)
(0 0 0)
(0 0 0)
(0 0 0)
(0 0 0)
(0 1.17543e-05 0)
(0 1.17543e-05 0)
(0 1.17543e-05 0)
(0 1.17543e-05 0)
(0 1.17543e-05 0)
(0 1.17543e-05 0)
(0 1.17543e-05 0)
(0 1.17543e-05 0)
(0 1.17543e-05 0)
(0 1.17543e-05 0)
(0 1.17543e-05 0)
(0 1.17543e-05 0)
(0 1.17543e-05 0)
(0 1.17543e-05 0)
(0 1.17543e-05 0)
(0 1.17543e-05 0)
(0 1.17543e-05 0)
(0 1.17543e-05 0)
(0 1.17543e-05 0)
(0 1.17543e-05 0)
(0 1.17543e-05 0)
(0 1.17543e-05 0)
(0 1.17543e-05 0)
(0 1.17543e-05 0)
(0 1.17543e-05 0)
(0 1.17543e-05 0)
(0 1.17543e-05 0)
(0 1.17543e-05 0)
(0 1.17543e-05 0)
(0 0 0)
(0 0 0)
(0 0 0)
(0 0 0)
(0 0 0)
(0 0 0)
(0 0 0)
(0 0 0)
(0 0 0)
(0 0 0)
(0 0 0)
(0 0 0)
(0 0 0)
(0 0 0)
(0 0 0)
(0 0 0)
(0 0 0)
(0 0 0)
(0 0 0)
(0 0 0)
(0 0 0)
(0 0 0)
(0 0 0)
(0 0 0)
(0 0 0)
(0 0 0)
(0 0 0)
(0 0 0)
(0 0 0)
(0 0 0)
(0 0 0)
(0 0 0)
(0 0 0)
(0 0 0)
(0 0 0)
(0 0 0)
(0 0 0)
(0 0 0)
(0 0 0)
(0 0 0)
(0 0 0)
(0 0 0)
(0 0 0)
(0 0 0)
(0 0 0)
(0 0 0)
(0 0 0)
(0 0 0)
(0 0 0)
(0 0 0)
(0 0 0)
(0 0 0)
(0 0 0)
(0 0 0)
(0 0 0)
(0 0 0)
(0 0 0)
(0 0 0)
(0 0 0)
(0 0 0)
(0 0 0)
(0 0 0)
(0 0 0)
(0 0 0)
(0 0 0)
(0 0 0)
(0 0 0)
(0 0 0)
(0 0 0)
(0 0 0)
(0 0 0)
(0 0 0)
(0 0 0)
(0 0 0)
(0 0 0)
(0 0 0)
(0 0 0)
(0 0 0)
(0 0 0)
(0 0 0)
(0 0 0)
(0 0 0)
(0 0 0)
(0 0 0)
(0 0 0)
(0 0 0)
(0 0 0)
(0 0 0)
(0 0 0)
(0 0 0)
(0 0 0)
(0 0 0)
(0 0 0)
(0 0 0)
(0 0 0)
(0 0 0)
(0 0 0)
(0 0 0)
(0 0 0)
(0 0 0)
(0 0 0)
(0 0 0)
(0 0 0)
(0 0 0)
(0 0 0)
(0 0 0)
(0 0 0)
(0 0 0)
(0 0 0)
(0 0 0)
(0 0 0)
(0 0 0)
(0 0 0)
(0 0 0)
(0 0 0)
(0 0 0)
(0 0 0)
(0 0 0)
(0 0 0)
(0 0 0)
(0 0 0)
(0 0 0)
(0 0 0)
(0 0 0)
(0 0 0)
(0 0 0)
(0 0 0)
(0 0 0)
(0 0 0)
(0 1.17543e-05 0)
(0 1.17543e-05 0)
(0 1.17543e-05 0)
(0 1.17543e-05 0)
(0 1.17543e-05 0)
(0 1.17543e-05 0)
(0 1.17543e-05 0)
(0 1.17543e-05 0)
(0 1.17543e-05 0)
(0 1.17543e-05 0)
(0 1.17543e-05 0)
(0 1.17543e-05 0)
(0 1.17543e-05 0)
(0 1.17543e-05 0)
(0 1.17543e-05 0)
(0 1.17543e-05 0)
(0 1.17543e-05 0)
(0 1.17543e-05 0)
(0 1.17543e-05 0)
(0 1.17543e-05 0)
(0 1.17543e-05 0)
(0 1.17543e-05 0)
(0 1.17543e-05 0)
(0 1.17543e-05 0)
(0 1.17543e-05 0)
(0 1.17543e-05 0)
(0 1.17543e-05 0)
(0 1.17543e-05 0)
(0 1.17543e-05 0)
(0 4.12906e-07 0)
(0 1.1781e-05 0)
(0 1.17574e-05 0)
(0 1.17657e-05 0)
(0 -7.44361e-07 0)
(0 -1.84255e-05 0)
(0 -1.66135e-05 0)
(0 -7.87082e-06 0)
(0 1.14525e-05 0)
(0 -1.45606e-05 0)
(0 2.30064e-05 0)
(0 -1.92065e-05 0)
(0 2.50687e-05 0)
(0 2.23195e-05 0)
(0 -1.16199e-05 0)
(0 1.17812e-05 0)
(0 -1.62745e-05 0)
(0 -1.01648e-05 0)
(0 -1.34495e-05 0)
(0 -7.90883e-06 0)
(0 -9.35449e-06 0)
(0 -1.58747e-06 0)
(0 -1.68748e-05 0)
(0 -1.83993e-05 0)
(0 1.17679e-05 0)
(0 1.17802e-05 0)
(0 -4.70328e-06 0)
(0 -5.46632e-06 0)
(0 2.00839e-05 0)
(0 2.51147e-05 0)
(0 2.47036e-05 0)
(0 4.08198e-06 0)
(0 -2.82929e-07 0)
(0 -1.45695e-05 0)
(0 -1.51251e-05 0)
(0 -1.79674e-05 0)
(0 -1.77718e-05 0)
(0 -1.19351e-05 0)
(0 1.1818e-05 0)
(0 -3.24685e-06 0)
(0 -2.80818e-06 0)
(0 2.00915e-05 0)
(0 -5.4062e-07 0)
(0 3.24741e-07 0)
(0 5.2563e-07 0)
(0 -6.00596e-06 0)
(0 -1.15076e-05 0)
(0 -1.59072e-05 0)
(0 -1.95196e-05 0)
(0 -1.77671e-05 0)
(0 -5.9487e-06 0)
(0 -1.76395e-05 0)
(0 -1.50841e-05 0)
(0 -2.07027e-05 0)
(0 -7.70326e-06 0)
(0 -9.40851e-06 0)
(0 -9.13431e-06 0)
(0 -1.43634e-05 0)
(0 -1.09724e-06 0)
(0 4.35074e-05 0)
(0 4.63862e-05 0)
(0 4.347e-05 0)
(0 4.62414e-05 0)
(0 4.3454e-05 0)
(0 4.05853e-05 0)
(0 4.06083e-05 0)
(0 4.33711e-05 0)
(0 4.04314e-05 0)
(0 3.75787e-05 0)
(0 3.71956e-05 0)
(0 3.99907e-05 0)
(0 3.66589e-05 0)
(0 3.93691e-05 0)
(0 3.61377e-05 0)
(0 3.33983e-05 0)
(0 3.29938e-05 0)
(0 3.5785e-05 0)
(0 3.27759e-05 0)
(0 2.95718e-05 0)
(0 2.97123e-05 0)
(0 3.24039e-05 0)
(0 2.92337e-05 0)
(0 2.66646e-05 0)
(0 2.60012e-05 0)
(0 2.36113e-05 0)
(0 2.29125e-05 0)
(0 2.50837e-05 0)
(0 2.20266e-05 0)
(0 1.99503e-05 0)
(0 1.90196e-05 0)
(0 1.70955e-05 0)
(0 1.60219e-05 0)
(0 1.42683e-05 0)
(0 1.29573e-05 0)
(0 1.44924e-05 0)
(0 1.12997e-05 0)
(0 1.0009e-05 0)
(0 8.31764e-06 0)
(0 7.3653e-06 0)
(0 5.57755e-06 0)
(0 5.02876e-06 0)
(0 3.05943e-06 0)
(0 2.93647e-06 0)
(0 9.01397e-07 0)
(0 9.81693e-07 0)
(0 -9.89933e-07 0)
(0 -9.85583e-07 0)
(0 -2.91571e-06 0)
(0 -3.03468e-06 0)
(0 -4.97976e-06 0)
(0 -5.05821e-06 0)
(0 -7.00324e-06 0)
(0 -6.99781e-06 0)
(0 -8.95488e-06 0)
(0 -8.88615e-06 0)
(0 -1.08597e-05 0)
(0 -1.07017e-05 0)
(0 -1.27443e-05 0)
(0 -1.24592e-05 0)
(0 -1.46988e-05 0)
(0 -1.42574e-05 0)
(0 -1.68267e-05 0)
(0 -1.61844e-05 0)
(0 -1.90698e-05 0)
(0 -1.82338e-05 0)
(0 -2.14116e-05 0)
(0 -2.03867e-05 0)
(0 -2.37579e-05 0)
(0 -2.25431e-05 0)
(0 -2.60223e-05 0)
(0 -2.46485e-05 0)
(0 -2.83641e-05 0)
(0 -2.68795e-05 0)
(0 -3.08229e-05 0)
(0 -2.92525e-05 0)
(0 -3.33612e-05 0)
(0 -3.15791e-05 0)
(0 -3.60025e-05 0)
(0 -3.40503e-05 0)
(0 -3.8898e-05 0)
(0 -3.6876e-05 0)
(0 -4.20715e-05 0)
(0 -4.00686e-05 0)
(0 -4.55502e-05 0)
(0 -4.36711e-05 0)
(0 -4.93255e-05 0)
(0 -4.76518e-05 0)
(0 -5.36511e-05 0)
(0 -5.20265e-05 0)
(0 -5.85458e-05 0)
(0 -5.6811e-05 0)
(0 -6.36539e-05 0)
(0 -6.1811e-05 0)
(0 -6.88162e-05 0)
(0 -7.08502e-05 0)
(0 -7.61203e-05 0)
(0 -4.12597e-05 0)
(0 -2.23604e-05 0)
(0 -4.64467e-06 0)
(0 1.25999e-05 0)
(0 -7.81851e-05 0)
(0 -8.36315e-05 0)
(0 -6.67265e-05 0)
(0 -8.56353e-05 0)
(0 -9.13348e-05 0)
(0 -9.34384e-05 0)
(0 -9.94928e-05 0)
(0 -0.000101772 0)
(0 -0.000108191 0)
(0 -0.000110763 0)
(0 -0.000117564 0)
(0 -0.000120335 0)
(0 -0.000127554 0)
(0 -0.000124444 0)
(0 -0.000135112 0)
(0 -0.000131716 0)
(0 -0.000143053 0)
(0 -0.00014598 0)
(0 -0.000154545 0)
(0 -0.0001395 0)
(0 -0.000157007 0)
(0 -0.000166268 0)
(0 -0.000168122 0)
(0 -0.000178082 0)
(0 -0.000179317 0)
(0 -0.000189832 0)
(0 -0.000190594 0)
(0 -0.000201306 0)
(0 -0.000201567 0)
(0 -0.000212333 0)
(0 -0.000211938 0)
(0 -0.000222536 0)
(0 -0.000222638 0)
(0 -0.000233089 0)
(0 -0.000232746 0)
(0 -0.000243758 0)
(0 -0.000242834 0)
(0 -0.00025401 0)
(0 -0.000254485 0)
(0 -0.00026513 0)
(0 -0.000265404 0)
(0 -0.000276299 0)
(0 -0.000252205 0)
(0 -0.000276429 0)
(0 -0.000287534 0)
(0 -0.000287616 0)
(0 -0.000299037 0)
(0 -0.00029878 0)
(0 -0.000310633 0)
(0 -0.000310102 0)
(0 -0.000322226 0)
(0 -0.00032185 0)
(0 -0.000333827 0)
(0 -0.000332384 0)
(0 -0.000344615 0)
(0 -0.000345614 0)
(0 -0.000356024 0)
(0 -0.00035697 0)
(0 -0.000368055 0)
(0 -0.000367598 0)
(0 -0.000377926 0)
(0 -0.000354721 0)
(0 -0.000377541 0)
(0 -0.000388047 0)
(0 -0.000387654 0)
(0 -0.000398626 0)
(0 -0.000398095 0)
(0 -0.000409236 0)
(0 -6.00655e-05 0)
(0 -0.000408383 0)
(0 -0.000419394 0)
(0 -0.000419629 0)
(0 -0.000429552 0)
(0 -0.000429233 0)
(0 -0.000439136 0)
(0 -0.000439249 0)
(0 -0.000448537 0)
(0 -0.000448718 0)
(0 -0.000457813 0)
(0 -0.000447655 0)
(0 -0.000457792 0)
(0 -0.000467016 0)
(0 -0.000466696 0)
(0 -0.000476069 0)
(0 -0.000475122 0)
(0 -0.000484417 0)
(0 -0.000482372 0)
(0 -0.000491778 0)
(0 -0.000488508 0)
(0 -0.000497983 0)
(0 -0.000500929 0)
(0 -0.000507177 0)
(0 -0.000509706 0)
(0 -0.000516163 0)
(0 -0.000512909 0)
(0 -0.000521965 0)
(0 -0.000524816 0)
(0 -0.000530611 0)
(0 -0.000527519 0)
(0 -0.000536184 0)
(0 -0.000532817 0)
(0 -0.000541331 0)
(0 -0.000537381 0)
(0 -0.000545607 0)
(0 -0.000548986 0)
(0 -0.000552945 0)
(0 -0.000549338 0)
(0 -0.000556641 0)
(0 -0.000552805 0)
(0 -0.000559806 0)
(0 -0.000555653 0)
(0 -0.000562162 0)
(0 -0.000565306 0)
(0 -0.000567221 0)
(0 -0.000563731 0)
(0 -0.000568608 0)
(0 -0.000564766 0)
(0 -0.00056918 0)
(0 -0.000564993 0)
(0 -0.000568804 0)
(0 -0.000571868 0)
(0 -0.000571167 0)
(0 -0.000567685 0)
(0 -0.000569975 0)
(0 -0.000566178 0)
(0 -0.000568119 0)
(0 -0.000563834 0)
(0 -0.000565403 0)
(0 -0.00056911 0)
(0 -0.000566253 0)
(0 -0.000562135 0)
(0 -0.000563003 0)
(0 -0.000558399 0)
(0 -0.000559038 0)
(0 -6.47006e-05 0)
(0 -5.84198e-05 0)
(0 -6.25696e-05 0)
(0 -5.64899e-05 0)
(0 -0.000553875 0)
(0 -0.000554128 0)
(0 -0.00055868 0)
(0 -0.000553234 0)
(0 -0.000548152 0)
(0 -0.000557208 0)
(0 -0.000551319 0)
(0 -0.00055419 0)
(0 -0.00054829 0)
(0 2.7369e-06 0)
(0 -0.000201157 0)
(0 -0.000478983 0)
(0 -0.00039663 0)
(0 -2.97573e-05 0)
(0 -6.86341e-06 0)
(0 -1.93608e-05 0)
(0 -0.000297644 0)
(0 1.32726e-05 0)
(0 1.27542e-05 0)
(0 1.30245e-05 0)
(0 1.25087e-05 0)
(0 1.27582e-05 0)
(0 1.22662e-05 0)
(0 1.20728e-05 0)
(0 1.18316e-05 0)
(0 1.20156e-05 0)
(0 1.15737e-05 0)
(0 1.17217e-05 0)
(0 1.12684e-05 0)
(0 1.17062e-05 0)
(0 1.13686e-05 0)
(0 1.09047e-05 0)
(0 1.09591e-05 0)
(0 1.04976e-05 0)
(0 1.05067e-05 0)
(0 1.00872e-05 0)
(0 1.01236e-05 0)
(0 9.77739e-06 0)
(0 9.85358e-06 0)
(0 9.55803e-06 0)
(0 9.65766e-06 0)
(0 9.37248e-06 0)
(0 9.23712e-06 0)
(0 9.04918e-06 0)
(0 9.48554e-06 0)
(0 8.88892e-06 0)
(0 8.69885e-06 0)
(0 1.10279e-05 0)
(0 8.53007e-06 0)
(0 8.35535e-06 0)
(0 8.18663e-06 0)
(0 8.04361e-06 0)
(0 8.23511e-06 0)
(0 7.94975e-06 0)
(0 8.15856e-06 0)
(0 7.86666e-06 0)
(0 8.09665e-06 0)
(0 7.77324e-06 0)
(0 8.04859e-06 0)
(0 7.69567e-06 0)
(0 8.02593e-06 0)
(0 7.66001e-06 0)
(0 8.05147e-06 0)
(0 7.67679e-06 0)
(0 8.11806e-06 0)
(0 7.73251e-06 0)
(0 8.20075e-06 0)
(0 7.72285e-06 0)
(0 8.28619e-06 0)
(0 7.86027e-06 0)
(0 8.37897e-06 0)
(0 7.92225e-06 0)
(0 8.43426e-06 0)
(0 7.96145e-06 0)
(0 8.44228e-06 0)
(0 7.94881e-06 0)
(0 8.41909e-06 0)
(0 7.91153e-06 0)
(0 8.36653e-06 0)
(0 7.84803e-06 0)
(0 8.27534e-06 0)
(0 7.73422e-06 0)
(0 8.14702e-06 0)
(0 7.58666e-06 0)
(0 7.99006e-06 0)
(0 7.40034e-06 0)
(0 7.79899e-06 0)
(0 7.1726e-06 0)
(0 7.55946e-06 0)
(0 6.91707e-06 0)
(0 7.2851e-06 0)
(0 6.62744e-06 0)
(0 6.99452e-06 0)
(0 6.30092e-06 0)
(0 6.69964e-06 0)
(0 5.97813e-06 0)
(0 6.41132e-06 0)
(0 7.36085e-06 0)
(0 7.26453e-06 0)
(0 5.66928e-06 0)
(0 5.98039e-06 0)
(0 7.26645e-06 0)
(0 8.47217e-06 0)
(0 7.87127e-06 0)
(0 -0.000113254 0)
(0 7.39687e-06 0)
(0 -1.28108e-05 0)
(0 8.90242e-06 0)
(0 8.37374e-06 0)
(0 8.05658e-06 0)
(0 7.71781e-06 0)
(0 7.98815e-06 0)
(0 7.5857e-06 0)
(0 7.95489e-06 0)
(0 7.52063e-06 0)
(0 7.97109e-06 0)
(0 7.53021e-06 0)
(0 8.05444e-06 0)
(0 7.6066e-06 0)
(0 8.21075e-06 0)
(0 6.99308e-06 0)
(0 7.0765e-06 0)
(0 6.41447e-06 0)
(0 6.48058e-06 0)
(0 5.79973e-06 0)
(0 5.81818e-06 0)
(0 5.0818e-06 0)
(0 -0.000241084 0)
(0 -0.00024932 0)
(0 5.02245e-06 0)
(0 4.20478e-06 0)
(0 5.89539e-06 0)
(0 8.82611e-06 0)
(0 -1.19365e-05 0)
(0 1.52447e-05 0)
(0 -3.7877e-05 0)
(0 -5.17261e-05 0)
(0 -0.000528605 0)
(0 -0.000552738 0)
(0 -0.000541404 0)
(0 -0.000561255 0)
(0 -0.000559889 0)
(0 -0.000532765 0)
(0 -0.000569099 0)
(0 -0.000573159 0)
(0 -0.000457151 0)
(0 -0.000211014 0)
(0 -0.000200163 0)
(0 -0.000209957 0)
(0 -0.000199006 0)
(0 -0.0002088 0)
(0 -0.000197951 0)
(0 -0.000207689 0)
(0 -0.000196962 0)
(0 -0.000206339 0)
(0 -0.00019655 0)
(0 -0.000206172 0)
(0 -0.000196652 0)
(0 -0.000206202 0)
(0 -0.000195873 0)
(0 -0.000204278 0)
(0 -0.000192104 0)
(0 -0.00020122 0)
(0 -0.000190218 0)
(0 -0.000197385 0)
(0 -0.000186623 0)
(0 -0.000192363 0)
(0 -0.000181474 0)
(0 -0.000185703 0)
(0 -0.0001766 0)
(0 -0.000171255 0)
(0 -0.00016635 0)
(0 -0.000161034 0)
(0 -0.000155836 0)
(0 -0.000150712 0)
(0 -0.000145171 0)
(0 -0.000140279 0)
(0 -0.000134036 0)
(0 -0.000129015 0)
(0 -0.000134532 0)
(0 -0.000122495 0)
(0 -0.000117569 0)
(0 -0.000110837 0)
(0 -0.000106148 0)
(0 -9.93983e-05 0)
(0 -9.43559e-05 0)
(0 -8.77415e-05 0)
(0 -8.24911e-05 0)
(0 -7.58277e-05 0)
(0 -7.09028e-05 0)
(0 -6.42377e-05 0)
(0 -7.75318e-05 0)
(0 -9.23333e-05 0)
(0 -5.98766e-05 0)
(0 -5.33508e-05 0)
(0 -4.94897e-05 0)
(0 -4.31891e-05 0)
(0 -4.68741e-05 0)
(0 -3.69031e-05 0)
(0 -4.10936e-05 0)
(0 -3.15864e-05 0)
(0 -2.73543e-05 0)
(0 -2.26738e-05 0)
(0 -3.68158e-05 0)
(0 -1.86055e-05 0)
(0 -1.44927e-05 0)
(0 -1.10134e-05 0)
(0 -7.38049e-06 0)
(0 -4.39661e-06 0)
(0 -1.29827e-06 0)
(0 -4.62875e-06 0)
(0 8.85618e-07 0)
(0 -2.54227e-06 0)
(0 2.31455e-06 0)
(0 5.4529e-06 0)
(0 6.24537e-06 0)
(0 -7.69938e-07 0)
(0 9.01983e-06 0)
(0 9.86456e-06 0)
(0 -0.000138513 0)
(0 -0.000197655 0)
(0 -0.000189611 0)
(0 -0.000202188 0)
(0 -0.000193699 0)
(0 1.26352e-05 0)
(0 1.47156e-05 0)
(0 -0.000206864 0)
(0 -0.000198406 0)
(0 -0.000212606 0)
(0 -0.000204306 0)
(0 -0.000219636 0)
(0 -0.000211315 0)
(0 -0.000227468 0)
(0 -0.000219029 0)
(0 -0.000202823 0)
(0 -0.000210617 0)
(0 -0.000194446 0)
(0 -0.000202526 0)
(0 -0.000186482 0)
(0 -0.000195128 0)
(0 -0.000211263 0)
(0 -0.000204369 0)
(0 -0.000220652 0)
(0 -0.000213098 0)
(0 -0.000229599 0)
(0 -0.00022074 0)
(0 -0.000237315 0)
(0 -0.000227353 0)
(0 -0.000243885 0)
(0 -0.000233098 0)
(0 -0.000249764 0)
(0 -0.000238468 0)
(0 -0.000255367 0)
(0 -0.000243735 0)
(0 -0.000260933 0)
(0 -0.000248777 0)
(0 -0.000266136 0)
(0 -0.000179022 0)
(0 -0.000252971 0)
(0 -0.000270345 0)
(0 -0.000256278 0)
(0 -0.000273225 0)
(0 -0.00025974 0)
(0 -0.000276712 0)
(0 -0.000210408 0)
(0 -0.000263318 0)
(0 -0.000280531 0)
(0 -0.00026586 0)
(0 -0.0002837 0)
(0 -0.000267376 0)
(0 -0.000285004 0)
(0 -0.000268105 0)
(0 -0.000285896 0)
(0 -0.000269272 0)
(0 -0.000287516 0)
(0 -0.00023124 0)
(0 -0.000271302 0)
(0 -0.000289735 0)
(0 -0.000306839 0)
(0 -0.000308726 0)
(0 -0.000291416 0)
(0 -0.00031017 0)
(0 -0.000292484 0)
(0 -0.000311566 0)
(0 -0.000329718 0)
(0 -0.000331274 0)
(0 -0.000312886 0)
(0 -0.000332602 0)
(0 -0.0003139 0)
(0 -0.00033339 0)
(0 -0.000314308 0)
(0 -0.000333203 0)
(0 -0.000313572 0)
(0 -0.000331582 0)
(0 -0.00035128 0)
(0 -0.000349083 0)
(0 -0.000328825 0)
(0 -0.000346459 0)
(0 -0.000325613 0)
(0 -0.000343614 0)
(0 -0.000322167 0)
(0 -0.000339934 0)
(0 -0.000361112 0)
(0 -0.00035661 0)
(0 -0.000335031 0)
(0 -0.000350992 0)
(0 -0.000329233 0)
(0 -0.000344683 0)
(0 -0.000322926 0)
(0 -0.000337776 0)
(0 -0.000358953 0)
(0 -0.000351423 0)
(0 -0.000330049 0)
(0 -0.000343175 0)
(0 -0.000321824 0)
(0 -0.000334416 0)
(0 -0.00035511 0)
(0 -0.000346531 0)
(0 -0.000322978 0)
(0 -0.000338237 0)
(0 -0.00035755 0)
(0 -0.000349427 0)
(0 -0.000331213 0)
(0 -0.000340356 0)
(0 -0.000358157 0)
(0 -0.000348487 0)
(0 -0.00033008 0)
(0 -0.000337693 0)
(0 -0.000355609 0)
(0 -0.000344528 0)
(0 -0.000361672 0)
(0 -0.000350685 0)
(0 -0.000333279 0)
(0 -0.000339567 0)
(0 -0.000356037 0)
(0 -0.000344975 0)
(0 -0.000360375 0)
(0 -0.000349313 0)
(0 -0.000333878 0)
(0 -0.000337828 0)
(0 -0.000352661 0)
(0 -0.000340735 0)
(0 -0.000355321 0)
(0 -0.000342954 0)
(0 -0.000328501 0)
(0 -0.000330315 0)
(0 -0.000344556 0)
(0 -0.000331466 0)
(0 -0.000316943 0)
(0 -0.000345381 0)
(0 -0.000331746 0)
(0 -0.000345307 0)
(0 -0.000331137 0)
(0 -0.000344368 0)
(0 -0.000329586 0)
(0 -0.000342431 0)
(0 -0.000326919 0)
(0 -0.000339601 0)
(0 -0.000323094 0)
(0 -0.000310492 0)
(0 -0.000335487 0)
(0 -0.000318684 0)
(0 -0.000330326 0)
(0 -0.000313575 0)
(0 -0.000324354 0)
(0 -0.000307363 0)
(0 -0.000317331 0)
(0 -0.00034684 0)
(0 -0.000358556 0)
(0 -0.000300048 0)
(0 -0.0003093 0)
(0 -0.000289906 0)
(0 -0.000349286 0)
(0 -0.000244617 0)
(0 -0.000291778 0)
(0 -0.000300434 0)
(0 -0.000317771 0)
(0 -0.000308461 0)
(0 -0.000325793 0)
(0 -0.000315989 0)
(0 -0.000300104 0)
(0 -0.000298505 0)
(0 -0.00030559 0)
(0 1.79849e-05 0)
(0 2.07959e-05 0)
(0 1.79456e-05 0)
(0 2.35e-05 0)
(0 2.16182e-05 0)
(0 2.62072e-05 0)
(0 2.53329e-05 0)
(0 2.92849e-05 0)
(0 2.89466e-05 0)
(0 3.27938e-05 0)
(0 3.32762e-05 0)
(0 3.71773e-05 0)
(0 3.69061e-05 0)
(0 4.21419e-05 0)
(0 4.25701e-05 0)
(0 4.81978e-05 0)
(0 4.82152e-05 0)
(0 5.48003e-05 0)
(0 5.43691e-05 0)
(0 6.10912e-05 0)
(0 6.14069e-05 0)
(0 6.72818e-05 0)
(0 6.69187e-05 0)
(0 7.22111e-05 0)
(0 7.22037e-05 0)
(0 7.63955e-05 0)
(0 7.47743e-05 0)
(0 7.79151e-05 0)
(0 7.94722e-05 0)
(0 8.04954e-05 0)
(0 7.79459e-05 0)
(0 8.09493e-05 0)
(0 7.81517e-05 0)
(0 8.18351e-05 0)
(0 8.47468e-05 0)
(0 8.59438e-05 0)
(0 8.32859e-05 0)
(0 8.71616e-05 0)
(0 8.96453e-05 0)
(0 -0.000287985 0)
(0 -0.000294798 0)
(0 -0.000271961 0)
(0 2.40852e-05 0)
(0 2.13713e-05 0)
(0 -0.000251705 0)
(0 -0.000333331 0)
(0 -0.00018727 0)
(0 -0.000277039 0)
(0 -0.0002837 0)
(0 -0.000295142 0)
(0 2.76844e-05 0)
(0 2.55562e-05 0)
(0 -0.000265721 0)
(0 -0.000272115 0)
(0 -0.000289834 0)
(0 -0.000258962 0)
(0 -8.17023e-06 0)
(0 3.25738e-05 0)
(0 3.08001e-05 0)
(0 -0.000245455 0)
(0 -0.000235869 0)
(0 3.83784e-05 0)
(0 3.6847e-05 0)
(0 -0.000287937 0)
(0 -0.000307249 0)
(0 -0.000376866 0)
(0 -0.000366703 0)
(0 3.57077e-06 0)
(0 5.01065e-06 0)
(0 6.03885e-06 0)
(0 -3.00564e-05 0)
(0 4.9002e-05 0)
(0 9.74201e-06 0)
(0 9.60128e-06 0)
(0 9.83449e-06 0)
(0 9.73137e-06 0)
(0 9.956e-06 0)
(0 9.87927e-06 0)
(0 1.00931e-05 0)
(0 1.0042e-05 0)
(0 1.02529e-05 0)
(0 1.02183e-05 0)
(0 1.04348e-05 0)
(0 1.04136e-05 0)
(0 1.0617e-05 0)
(0 1.06088e-05 0)
(0 1.07864e-05 0)
(0 1.0793e-05 0)
(0 1.0939e-05 0)
(0 1.09575e-05 0)
(0 1.10691e-05 0)
(0 1.10664e-05 0)
(0 1.11701e-05 0)
(0 1.11769e-05 0)
(0 1.12631e-05 0)
(0 1.12764e-05 0)
(0 1.13507e-05 0)
(0 1.13677e-05 0)
(0 1.14311e-05 0)
(0 1.14522e-05 0)
(0 1.15042e-05 0)
(0 1.15284e-05 0)
(0 1.15668e-05 0)
(0 1.15946e-05 0)
(0 1.16216e-05 0)
(0 1.16549e-05 0)
(0 1.16714e-05 0)
(0 1.10964e-05 0)
(0 1.10057e-05 0)
(0 1.16034e-05 0)
(0 1.11455e-05 0)
(0 1.10791e-05 0)
(0 1.12082e-05 0)
(0 1.11459e-05 0)
(0 1.12723e-05 0)
(0 1.12046e-05 0)
(0 1.1327e-05 0)
(0 1.12645e-05 0)
(0 1.13782e-05 0)
(0 1.14236e-05 0)
(0 1.14642e-05 0)
(0 1.1127e-05 0)
(0 1.11961e-05 0)
(0 1.15041e-05 0)
(0 1.15381e-05 0)
(0 1.10448e-05 0)
(0 1.11221e-05 0)
(0 1.15736e-05 0)
(0 1.15995e-05 0)
(0 1.00331e-05 0)
(0 1.13927e-05 0)
(0 1.33305e-05 0)
(0 8.59587e-06 0)
(0 8.82954e-06 0)
(0 9.23985e-06 0)
(0 9.54878e-06 0)
(0 9.97084e-06 0)
(0 1.02789e-05 0)
(0 1.07237e-05 0)
(0 1.09894e-05 0)
(0 1.15427e-05 0)
(0 1.17919e-05 0)
(0 1.25032e-05 0)
(0 1.27845e-05 0)
(0 1.36019e-05 0)
(0 1.1125e-05 0)
(0 1.39933e-05 0)
(0 1.48948e-05 0)
(0 1.54259e-05 0)
(0 1.63844e-05 0)
(0 1.58149e-05 0)
(0 1.73272e-05 0)
(0 1.09547e-05 0)
(0 1.10398e-05 0)
(0 1.11897e-05 0)
(0 1.11186e-05 0)
(0 1.12553e-05 0)
(0 1.11908e-05 0)
(0 1.13169e-05 0)
(0 1.12583e-05 0)
(0 1.13767e-05 0)
(0 1.13217e-05 0)
(0 6.75386e-06 0)
(0 1.16293e-05 0)
(0 1.16471e-05 0)
(0 1.16233e-05 0)
(0 1.16639e-05 0)
(0 1.66919e-05 0)
(0 1.82021e-05 0)
(0 1.11144e-05 0)
(0 4.42266e-05 0)
(0 4.26549e-05 0)
(0 4.44517e-05 0)
(0 -0.000215782 0)
(0 1.7457e-05 0)
(0 1.89375e-05 0)
(0 1.8073e-05 0)
(0 1.95506e-05 0)
(0 2.04549e-05 0)
(0 2.10208e-05 0)
(0 1.79978e-05 0)
(0 2.0086e-05 0)
(0 2.15146e-05 0)
(0 2.05582e-05 0)
(0 2.19467e-05 0)
(0 1.16443e-05 0)
(0 1.16787e-05 0)
(0 1.14275e-05 0)
(0 1.13765e-05 0)
(0 1.16616e-05 0)
(0 1.1691e-05 0)
(0 1.17039e-05 0)
(0 1.17124e-05 0)
(0 1.17017e-05 0)
(0 1.17202e-05 0)
(0 1.17114e-05 0)
(0 1.17278e-05 0)
(0 1.17206e-05 0)
(0 1.17353e-05 0)
(0 1.17291e-05 0)
(0 1.17425e-05 0)
(0 1.17373e-05 0)
(0 1.17494e-05 0)
(0 1.17458e-05 0)
(0 1.1756e-05 0)
(0 1.17542e-05 0)
(0 1.17628e-05 0)
(0 1.17624e-05 0)
(0 1.16713e-05 0)
(0 1.04675e-05 0)
(0 2.19587e-05 0)
(0 1.44651e-05 0)
(0 -0.000170917 0)
(0 -0.000163216 0)
(0 2.55221e-05 0)
(0 1.14888e-05 0)
(0 4.38836e-06 0)
(0 3.45628e-06 0)
(0 3.75748e-06 0)
(0 2.79589e-06 0)
(0 2.42177e-06 0)
(0 1.77411e-06 0)
(0 2.26269e-06 0)
(0 1.29301e-06 0)
(0 1.89242e-06 0)
(0 9.46576e-07 0)
(0 1.62927e-06 0)
(0 7.03345e-07 0)
(0 1.44305e-06 0)
(0 5.32547e-07 0)
(0 1.31191e-06 0)
(0 3.67068e-07 0)
(0 1.1768e-06 0)
(0 1.56448e-07 0)
(0 -7.43173e-07 0)
(0 -1.05638e-06 0)
(0 -1.23932e-07 0)
(0 -1.43562e-06 0)
(0 -4.4094e-07 0)
(0 -1.86038e-06 0)
(0 -7.74481e-07 0)
(0 -2.2937e-06 0)
(0 -1.15197e-06 0)
(0 -2.76579e-06 0)
(0 -1.65802e-06 0)
(0 -3.33969e-06 0)
(0 -4.5056e-06 0)
(0 -5.15187e-06 0)
(0 -4.05756e-06 0)
(0 -5.99746e-06 0)
(0 -4.9182e-06 0)
(0 -7.02848e-06 0)
(0 -5.84735e-06 0)
(0 -8.10228e-06 0)
(0 -6.78595e-06 0)
(0 -9.14779e-06 0)
(0 -7.83081e-06 0)
(0 -1.01787e-05 0)
(0 -8.83143e-06 0)
(0 -1.12571e-05 0)
(0 -9.91389e-06 0)
(0 -1.2492e-05 0)
(0 -5.66312e-08 0)
(0 -6.38464e-06 0)
(0 -1.37704e-05 0)
(0 -2.07914e-06 0)
(0 1.08557e-05 0)
(0 1.14686e-05 0)
(0 1.14198e-05 0)
(0 1.13148e-05 0)
(0 1.13562e-05 0)
(0 1.14537e-05 0)
(0 1.1384e-05 0)
(0 1.14774e-05 0)
(0 1.14033e-05 0)
(0 1.14919e-05 0)
(0 1.14177e-05 0)
(0 1.14972e-05 0)
(0 1.14177e-05 0)
(0 1.14917e-05 0)
(0 1.14001e-05 0)
(0 1.14769e-05 0)
(0 1.13771e-05 0)
(0 1.14545e-05 0)
(0 1.13434e-05 0)
(0 1.14254e-05 0)
(0 1.13006e-05 0)
(0 1.1398e-05 0)
(0 1.12516e-05 0)
(0 1.12697e-05 0)
(0 1.11331e-05 0)
(0 1.13245e-05 0)
(0 -0.000155856 0)
(0 -0.000148222 0)
(0 -0.000141358 0)
(0 -0.000134019 0)
(0 -0.000128035 0)
(0 -0.000120436 0)
(0 -0.000127153 0)
(0 -0.000112788 0)
(0 -0.000120224 0)
(0 -0.00010533 0)
(0 -0.000112908 0)
(0 -9.76468e-05 0)
(0 -0.000104518 0)
(0 -9.15034e-05 0)
(0 -8.39564e-05 0)
(0 -7.99956e-05 0)
(0 -7.28985e-05 0)
(0 -7.06806e-05 0)
(0 -6.35163e-05 0)
(0 -6.1298e-05 0)
(0 -5.43338e-05 0)
(0 -5.10648e-05 0)
(0 -5.72463e-05 0)
(0 -4.48648e-05 0)
(0 -4.06849e-05 0)
(0 -3.55459e-05 0)
(0 -3.06592e-05 0)
(0 -3.657e-05 0)
(0 -2.53604e-05 0)
(0 3.42102e-05 0)
(0 4.00706e-05 0)
(0 3.13123e-05 0)
(0 3.7615e-05 0)
(0 2.87832e-05 0)
(0 3.49166e-05 0)
(0 2.51872e-05 0)
(0 3.15762e-05 0)
(0 5.08466e-06 0)
(0 6.24622e-06 0)
(0 1.12372e-05 0)
(0 5.04166e-05 0)
(0 4.97597e-05 0)
(0 1.32145e-06 0)
(0 -1.15383e-05 0)
(0 -2.05353e-05 0)
(0 -1.52659e-05 0)
(0 -6.9296e-05 0)
(0 -3.2067e-05 0)
(0 -0.000484159 0)
(0 -0.000474298 0)
(0 -0.00047889 0)
(0 -0.000468328 0)
(0 -0.000472533 0)
(0 -0.000460875 0)
(0 -0.000465073 0)
(0 -0.00045212 0)
(0 -0.000456554 0)
(0 -0.000448014 0)
(0 -0.000442308 0)
(0 -0.000446886 0)
(0 -0.000431436 0)
(0 -0.000436208 0)
(0 -0.000451502 0)
(0 -0.000441155 0)
(0 -0.000455901 0)
(0 -0.000445478 0)
(0 -0.000459487 0)
(0 -0.000448901 0)
(0 -0.000462178 0)
(0 -1.6746e-05 0)
(0 -0.000243808 0)
(0 -0.000252309 0)
(0 -0.000260003 0)
(0 -0.00026856 0)
(0 -0.000276335 0)
(0 -8.71799e-05 0)
(0 2.11292e-05 0)
(0 2.86516e-05 0)
(0 -0.000451379 0)
(0 -0.000464285 0)
(0 1.17231e-05 0)
(0 5.67219e-05 0)
(0 5.55148e-05 0)
(0 -0.000453254 0)
(0 -0.000466287 0)
(0 -0.000454816 0)
(0 -0.000468058 0)
(0 -0.000456183 0)
(0 -0.000469673 0)
(0 -0.000284754 0)
(0 -0.000293078 0)
(0 -0.000457606 0)
(0 -0.000471399 0)
(0 -0.000276447 0)
(0 -0.000459059 0)
(0 -0.000472888 0)
(0 -0.000189515 0)
(0 -1.83324e-05 0)
(0 1.17584e-05 0)
(0 1.17413e-05 0)
(0 -0.000304405 0)
(0 -0.000476254 0)
(0 -0.000387454 0)
(0 -3.85113e-06 0)
(0 -0.000158127 0)
(0 -0.000434464 0)
(0 1.17021e-05 0)
(0 2.38631e-05 0)
(0 4.54429e-05 0)
(0 -0.000127925 0)
(0 -0.000135772 0)
(0 1.166e-05 0)
(0 1.16943e-05 0)
(0 5.24284e-06 0)
(0 6.44675e-06 0)
(0 1.16876e-05 0)
(0 -0.000480292 0)
(0 -0.000124141 0)
(0 5.29566e-07 0)
(0 -0.000419855 0)
(0 -0.000415177 0)
(0 1.9617e-05 0)
(0 6.27503e-05 0)
(0 6.09823e-05 0)
(0 -0.000186083 0)
(0 1.66988e-05 0)
(0 1.15194e-05 0)
(0 -0.000460041 0)
(0 -0.000473377 0)
(0 -0.000485644 0)
(0 -0.000485486 0)
(0 -2.00949e-05 0)
(0 -0.00030145 0)
(0 -0.000310426 0)
(0 2.31368e-06 0)
(0 1.1716e-05 0)
(0 1.17114e-05 0)
(0 -2.17798e-05 0)
(0 -0.000548062 0)
(0 -1.99863e-05 0)
(0 -2.76559e-05 0)
(0 -0.000569435 0)
(0 -0.00047278 0)
(0 -0.000483839 0)
(0 -0.000498425 0)
(0 -0.000494124 0)
(0 -0.000480741 0)
(0 -0.000489874 0)
(0 -0.000476877 0)
(0 -0.000485292 0)
(0 -0.000472154 0)
(0 -0.000480069 0)
(0 -0.000466632 0)
(0 -0.000474286 0)
(0 -0.000487543 0)
(0 -0.000481596 0)
(0 -0.000468327 0)
(0 -0.000475459 0)
(0 -0.000462122 0)
(0 -0.00046879 0)
(0 -0.000481664 0)
(0 -0.000474562 0)
(0 -0.000487087 0)
(0 -0.000479804 0)
(0 -0.00046719 0)
(0 -0.000472035 0)
(0 -0.000484473 0)
(0 -0.000476032 0)
(0 -0.000488135 0)
(0 -0.000479308 0)
(0 -0.000490858 0)
(0 -0.000481907 0)
(0 -0.000470319 0)
(0 -0.00047266 0)
(0 -0.000483757 0)
(0 -0.000474069 0)
(0 -0.000484586 0)
(0 -0.000474513 0)
(0 -0.000484372 0)
(0 -0.00047383 0)
(0 -0.000482941 0)
(0 -0.00047203 0)
(0 -0.000480466 0)
(0 -0.000469266 0)
(0 -0.000477071 0)
(0 -0.000465608 0)
(0 -0.000472822 0)
(0 -0.000461108 0)
(0 -0.000467777 0)
(0 -0.000455761 0)
(0 -0.000461922 0)
(0 -0.000449774 0)
(0 -0.000455215 0)
(0 -0.000443255 0)
(0 -0.000447395 0)
(0 -0.000433603 0)
(0 -0.000453957 0)
(0 -0.000464087 0)
(0 -0.000436445 0)
(0 1.17314e-05 0)
(0 -0.000461063 0)
(0 7.27495e-06 0)
(0 1.15554e-05 0)
(0 3.86542e-05 0)
(0 3.66172e-05 0)
(0 8.31595e-06 0)
(0 -0.000132004 0)
(0 -0.000144135 0)
(0 6.74433e-05 0)
(0 6.55698e-05 0)
(0 6.94323e-05 0)
(0 -0.000402922 0)
(0 -0.000398616 0)
(0 -0.000474002 0)
(0 -6.45629e-06 0)
(0 -0.00018092 0)
(0 6.02667e-05 0)
(0 6.48506e-05 0)
(0 -0.000172988 0)
(0 -0.000154032 0)
(0 -0.000167083 0)
(0 -0.000147934 0)
(0 -0.000161115 0)
(0 1.16204e-05 0)
(0 1.05317e-05 0)
(0 1.11173e-05 0)
(0 -0.000459263 0)
(0 -0.000466905 0)
(0 -0.000217991 0)
(0 -0.000502999 0)
(0 1.17365e-05 0)
(0 1.17328e-05 0)
(0 1.17372e-05 0)
(0 5.36829e-06 0)
(0 6.53134e-06 0)
(0 -0.000301786 0)
(0 -0.000319264 0)
(0 -0.000311107 0)
(0 -0.000328567 0)
(0 -0.000320463 0)
(0 -0.0003382 0)
(0 -0.00034673 0)
(0 -0.00035577 0)
(0 -0.000346736 0)
(0 -6.3782e-06 0)
(0 -3.83647e-06 0)
(0 -1.06066e-05 0)
(0 -7.05569e-06 0)
(0 -1.47833e-05 0)
(0 -9.71977e-06 0)
(0 -1.76107e-05 0)
(0 -1.12582e-05 0)
(0 -1.83284e-05 0)
(0 -1.18622e-05 0)
(0 -1.84722e-05 0)
(0 -1.21294e-05 0)
(0 -1.87851e-05 0)
(0 -1.27183e-05 0)
(0 -1.92346e-05 0)
(0 -6.03683e-06 0)
(0 -2.54217e-05 0)
(0 -2.5502e-05 0)
(0 -3.19976e-05 0)
(0 -3.17396e-05 0)
(0 -3.83383e-05 0)
(0 -3.78333e-05 0)
(0 -4.46614e-05 0)
(0 -4.41499e-05 0)
(0 -5.10007e-05 0)
(0 -5.06516e-05 0)
(0 -5.73732e-05 0)
(0 -5.73622e-05 0)
(0 -6.4074e-05 0)
(0 -6.42824e-05 0)
(0 -7.10386e-05 0)
(0 -7.09453e-05 0)
(0 -7.80301e-05 0)
(0 -7.75248e-05 0)
(0 -8.49582e-05 0)
(0 -2.57975e-05 0)
(0 -7.26493e-06 0)
(0 -7.17322e-07 0)
(0 -4.38534e-05 0)
(0 -8.42728e-05 0)
(0 -9.19232e-05 0)
(0 -7.65698e-05 0)
(0 -2.84199e-06 0)
(0 3.29497e-06 0)
(0 -8.30356e-05 0)
(0 -7.52964e-05 0)
(0 3.45295e-07 0)
(0 5.96995e-06 0)
(0 -8.14712e-05 0)
(0 -9.21286e-05 0)
(0 -9.93604e-05 0)
(0 -6.39706e-05 0)
(0 9.17491e-06 0)
(0 1.14384e-05 0)
(0 2.50678e-06 0)
(0 -2.76008e-06 0)
(0 -7.37218e-05 0)
(0 -7.98139e-05 0)
(0 -8.79269e-05 0)
(0 -6.79683e-05 0)
(0 1.47568e-05 0)
(0 1.65788e-05 0)
(0 -9.8964e-05 0)
(0 -0.000106631 0)
(0 -6.62477e-05 0)
(0 -6.09763e-05 0)
(0 -5.50535e-07 0)
(0 -5.27515e-06 0)
(0 -5.92165e-05 0)
(0 -5.44457e-05 0)
(0 1.98773e-05 0)
(0 2.14691e-05 0)
(0 1.80642e-05 0)
(0 2.30041e-05 0)
(0 2.614e-05 0)
(0 2.77529e-05 0)
(0 1.98332e-05 0)
(0 3.05608e-05 0)
(0 3.2285e-05 0)
(0 -8.61407e-05 0)
(0 -9.45654e-05 0)
(0 -4.52457e-05 0)
(0 -2.86952e-06 0)
(0 -7.02245e-06 0)
(0 3.47128e-05 0)
(0 3.66957e-05 0)
(0 3.41675e-05 0)
(0 3.85628e-05 0)
(0 3.59305e-05 0)
(0 4.00919e-05 0)
(0 3.72175e-05 0)
(0 4.12097e-05 0)
(0 4.43124e-05 0)
(0 4.53357e-05 0)
(0 4.19526e-05 0)
(0 4.59234e-05 0)
(0 4.97269e-05 0)
(0 5.01494e-05 0)
(0 4.69026e-05 0)
(0 5.0937e-05 0)
(0 5.41062e-05 0)
(0 5.45873e-05 0)
(0 5.18954e-05 0)
(0 5.52823e-05 0)
(0 5.78079e-05 0)
(0 5.85463e-05 0)
(0 5.5825e-05 0)
(0 5.93918e-05 0)
(0 2.67934e-05 0)
(0 3.50954e-05 0)
(0 -0.000120394 0)
(0 -0.000111104 0)
(0 1.07559e-05 0)
(0 1.06445e-05 0)
(0 -4.6169e-05 0)
(0 -0.000127477 0)
(0 -0.000117418 0)
(0 -0.000133642 0)
(0 -0.000123473 0)
(0 -0.00010612 0)
(0 -0.000111507 0)
(0 -9.36286e-05 0)
(0 -9.79127e-05 0)
(0 -8.09158e-05 0)
(0 -8.37107e-05 0)
(0 -0.000101265 0)
(0 -8.54522e-05 0)
(0 -0.000102879 0)
(0 -8.59863e-05 0)
(0 -0.000102668 0)
(0 -8.55371e-05 0)
(0 -0.000102328 0)
(0 -8.54844e-05 0)
(0 -0.00010323 0)
(0 -8.60448e-05 0)
(0 -0.000104026 0)
(0 -6.87505e-05 0)
(0 -8.57861e-05 0)
(0 -0.000103047 0)
(0 -8.43211e-05 0)
(0 -0.000101587 0)
(0 -8.29335e-05 0)
(0 -0.000100712 0)
(0 -6.91235e-05 0)
(0 -8.25373e-05 0)
(0 -0.00010007 0)
(0 -8.24996e-05 0)
(0 -9.96656e-05 0)
(0 -0.000120072 0)
(0 -0.000118822 0)
(0 -0.000139617 0)
(0 -6.78965e-05 0)
(0 -8.26243e-05 0)
(0 -0.000100541 0)
(0 -0.000105835 0)
(0 -0.000114072 0)
(0 6.20495e-05 0)
(0 6.29725e-05 0)
(0 -0.000141808 0)
(0 -0.000155047 0)
(0 -0.000555444 0)
(0 -0.000135645 0)
(0 -0.000148771 0)
(0 6.02501e-05 0)
(0 6.42809e-05 0)
(0 6.69964e-05 0)
(0 6.87172e-05 0)
(0 6.55713e-05 0)
(0 -0.000364328 0)
(0 -0.000373567 0)
(0 -0.000354607 0)
(0 6.90732e-05 0)
(0 6.80959e-05 0)
(0 6.59858e-05 0)
(0 6.93796e-05 0)
(0 6.87585e-05 0)
(0 7.28439e-05 0)
(0 7.2515e-05 0)
(0 7.56625e-05 0)
(0 7.62441e-05 0)
(0 7.85324e-05 0)
(0 7.90772e-05 0)
(0 8.15326e-05 0)
(0 7.97351e-05 0)
(0 8.38135e-05 0)