/*--------------------------------*- C++ -*----------------------------------*\
| =========                 |                                                 |
| \\      /  F ield         | OpenFOAM: The Open Source CFD Toolbox           |
|  \\    /   O peration     | Version:  v2012                                 |
|   \\  /    A nd           | Website:  www.openfoam.com                      |
|    \\/     M anipulation  |                                                 |
\*---------------------------------------------------------------------------*/
FoamFile
{
    version     2.0;
    format      ascii;
    class       surfaceScalarField;
    location    "750";
    object      phi;
}
// * * * * * * * * * * * * * * * * * * * * * * * * * * * * * * * * * * * * * //

dimensions      [0 3 -1 0 0 0 0];
oriented        oriented;


internalField   nonuniform List<scalar> 
20642
(
-0.00745433
0.00898858
-0.00153425
0.298572
-0.0794544
-0.219127
-0.118396
0.101723
0.0166735
-0.351092
0.135389
0.215674
0.388987
0.0309478
-0.419964
-0.0229037
0.321463
-0.227706
0.0269509
0.200747
0.0106728
0.210892
-0.221571
-0.245011
0.2267
0.0183038
0.00391187
0.00122697
-0.230783
0.24145
0.235382
0.128044
-0.363484
0.593508
-0.594052
0.266484
-0.0507249
-0.215761
0.30972
0.0218205
-0.331563
-0.00858064
0.00112631
0.583548
-0.588987
0.0053374
0.038815
-0.256727
0.217906
-0.0370166
-0.0840791
0.121095
-0.00419718
0.0113778
-0.00718064
-0.0780485
-0.189517
0.267557
0.638075
-0.370856
-0.267288
0.206389
-0.148533
-0.0578582
0.340685
0.297316
-0.0469473
-0.188461
0.23539
0.0612119
-0.255775
0.194556
0.032697
-0.217799
0.185101
0.00391187
0.0846488
-0.273797
0.18914
-0.682154
0.392729
0.289422
0.00243551
0.00147635
0.0273323
-0.113215
0.0858824
0.0383362
0.257646
-0.296014
-0.000627607
0.0152186
-0.014591
-0.659945
0.485635
0.17423
0.362755
-0.151867
0.269911
-0.359644
0.0897108
0.61609
-0.100696
-0.515709
-0.0269774
-0.200735
0.228625
-0.00522056
-0.223411
-0.769482
0.602301
0.16711
0.412674
0.135448
-0.548168
-0.143829
0.253495
-0.109679
0.136042
-0.11876
-0.0172823
0.015729
0.120313
0.172787
-0.0833354
-0.089452
0.225464
-0.303524
-0.00222159
-0.00886962
0.0110912
0.336966
-0.258322
-0.0786457
-0.403861
-0.256147
0.347892
-0.112571
-0.155107
0.054516
0.10059
0.00414184
-9.45601e-05
-0.00404728
-0.316701
-0.0836344
0.400265
0.00583841
0.366378
-0.372283
-0.0886246
-0.0664829
0.00243551
0.170228
0.0361589
-0.150317
0.562943
0.0631415
0.109645
-0.0257523
0.0499687
-0.0242165
0.535107
-0.500189
-0.0349544
0.472095
-0.614906
0.142801
-0.260669
0.213701
-0.053203
0.0490433
0.00415959
0.0780803
0.459354
-0.537435
-0.270836
0.0720303
0.198799
0.174743
0.188008
-0.191973
-0.000798871
0.00686533
-0.00606646
-0.0881891
0.057151
0.0310381
0.00905719
-0.0096848
-0.249466
-0.149753
0.399149
0.390915
-0.54129
0.072614
-0.262138
-0.0477088
-0.183452
0.231142
0.434235
-0.116157
-0.31811
-0.158839
0.549696
-0.256738
0.209007
0.231237
-0.192922
-0.383619
0.438247
-0.0546821
-0.604463
0.576445
0.0278792
-0.419026
0.169481
0.0120176
0.0514801
-0.0634978
-0.226062
-0.302663
0.528418
0.00536042
-0.20629
0.200925
-0.0970083
0.12434
-0.636707
0.600652
0.0356701
-0.0258183
0.254437
0.481889
0.10157
-0.579706
0.405926
0.17369
0.111558
0.238307
0.0986575
-0.614818
0.199457
0.415275
-0.409577
0.290751
0.118779
-0.186194
0.00728457
-0.192937
0.18565
0.587112
-0.587622
0.000323715
-0.139252
-0.497759
-0.154694
-0.0927797
0.247472
0.526808
-0.531912
0.00506788
0.542766
-0.0159849
-0.00708693
-0.376578
0.517062
-0.591207
0.0739746
0.00152827
0.432665
-0.0559201
0.0576204
-0.00170036
0.0244669
-0.027707
0.00324006
0.422043
0.113024
0.542347
-0.406945
0.211934
-0.179238
0.530701
0.0690591
-0.00177782
0.0169964
-0.0987661
-0.175038
-0.0440004
-0.00920266
0.38476
-0.182615
-0.202161
0.103581
-0.140598
0.41921
0.160842
-0.580129
0.122753
-0.0996109
-0.0231426
-0.468673
0.272371
0.196224
-0.0951009
-0.509495
0.164684
-0.577251
0.412504
0.254991
-0.182968
-0.133941
0.145157
-0.0112162
-0.00678989
-0.000348671
0.00713856
0.0379463
-0.0259287
0.0714506
-0.267782
0.196312
0.253303
-0.180696
-0.427469
0.552082
-0.124712
-0.104145
-0.0297975
-0.0539396
0.15939
-0.105454
0.184264
-0.0560349
-0.12823
-0.00359409
-0.023801
0.0273951
0.164866
0.219877
-0.0713442
0.131008
-0.0596642
0.0401681
0.171765
0.0159112
-0.0546054
0.0386942
0.00746002
-0.00751381
5.37819e-05
0.0450729
-0.240995
0.195914
0.615761
0.201698
0.066391
-0.268091
-0.559821
0.400924
-0.0490993
-0.00682087
-0.542659
0.262231
0.280322
-0.145077
-0.238973
0.383975
-0.387337
0.585229
-0.197932
-0.0470207
-0.0411685
-0.154186
0.0135937
-0.00807136
-0.00552239
-0.456638
0.13986
-0.19588
-0.0273418
0.223215
0.569065
-0.696324
0.127225
0.253208
-0.398364
-0.157745
0.165029
-0.130894
-0.341098
0.471939
0.540755
-0.0238529
0.021394
-0.0251272
0.00373319
-0.612957
0.605431
0.00745231
0.568149
-0.149004
-0.168408
-0.333903
0.502106
0.0648641
-0.0492483
-0.0156159
0.0532807
-0.302357
0.249055
0.298644
0.0466952
-0.0311087
-0.0155865
0.0303021
-0.203853
0.173549
0.00414184
-0.0139418
-0.00984411
0.0237859
-0.375607
-0.225759
0.601365
0.236011
-0.190947
0.072356
0.304193
-0.376619
0.0340484
-0.0284817
-0.00556667
-0.0647996
-0.0444447
-0.0219081
0.0663526
0.188635
-0.101458
-0.087178
0.599586
-0.106391
-0.493243
-0.148558
-0.202562
-0.154668
0.0279735
0.126694
-0.195851
0.141908
-0.233752
0.287014
-0.172331
-0.0785223
0.25084
0.412961
0.254925
0.0929155
0.151447
-0.0790739
-0.0723733
0.113308
0.00944464
0.163712
0.0205511
-0.0977929
0.352661
0.0584277
0.0930189
-0.391837
-0.290321
0.219701
-0.214344
0.135945
0.0526879
0.135216
-0.119487
0.0217058
-0.121587
0.0998811
-0.00887461
0.0013004
0.00757421
-0.268987
-0.345896
0.00772449
-0.000792927
-0.00693156
-0.270937
0.104992
0.165935
0.0274628
-0.0310569
0.504157
-0.0186001
0.363998
-0.494952
0.276842
-0.236537
-0.0403156
0.00594616
-0.00678508
0.000838922
0.00784866
-0.000388634
-0.0765375
-0.237917
0.314428
0.204924
-0.0293048
-0.17562
-0.26733
0.295665
-0.0283459
-0.221704
-0.395194
-0.100153
0.314896
0.123297
-0.430734
-0.112945
0.543549
-0.0500916
0.349862
-0.299792
0.28724
-0.33735
0.00472411
0.0543646
-0.125709
-0.17979
-0.0414197
0.0391606
0.00225912
0.631222
-0.249357
-0.382206
0.723107
-0.413232
-0.309935
0.342102
0.380948
-0.0200687
-0.00606181
-0.112523
0.118585
-0.147672
0.0542273
0.0934448
0.37253
0.1754
-0.548275
0.55775
-0.0856627
-0.17606
0.216227
0.00762993
0.127546
0.3207
-0.448311
-0.372129
0.499605
-0.313479
-0.456056
0.727256
-0.385211
0.309824
0.417374
-0.00420259
0.0132598
-0.0208632
0.0208488
1.43054e-05
0.0771511
0.305367
-0.382572
0.479224
0.086653
-0.565882
-0.112101
0.151706
-0.0396057
-0.0111826
0.00079055
0.010392
0.0125135
-0.512378
0.499789
0.524637
-0.15247
0.197551
0.00737228
0.0533156
-0.0473282
-0.00598742
-0.0851361
-0.0348554
-0.00656436
-0.151676
0.12679
0.0248854
-0.338099
-0.204653
-0.0360969
0.0262527
-0.164107
0.052005
-0.242693
0.143921
0.0060629
0.121489
-0.127553
0.236524
-0.313089
-0.0161391
-0.470099
0.225003
0.245034
0.0574077
0.0951814
-0.152592
-0.0417191
-0.134577
0.176294
-0.0264362
-0.335655
0.362032
0.602242
-0.189236
-0.339654
-0.111468
0.451086
0.383003
-0.557701
0.174632
-0.00105574
0.0095121
-0.00845637
0.0774557
-0.22444
0.146983
0.168441
-0.571363
0.402851
-0.665558
0.293356
-0.466637
0.125488
-0.28171
-0.383919
-0.197797
0.060619
0.532347
-0.0202164
-0.163615
0.183828
0.587062
-0.418682
0.000472837
0.00861342
0.0257518
-0.00128493
0.0710093
-0.39953
0.328416
0.321214
0.11582
-0.437072
-0.159961
0.118411
0.0415496
-0.739339
0.303749
0.435543
0.267934
-0.0994125
-0.168524
0.010437
-0.0114928
-0.342477
-0.396908
0.00755399
-0.00835286
0.573019
-0.190083
-0.000882018
0.0657461
0.602196
-0.00266048
-0.31411
0.383987
-0.0699013
0.27629
-0.302771
-0.336975
0.517932
-0.181084
0.1203
-0.0145173
-0.105783
0.544398
-0.585026
0.0403624
0.194675
-0.164374
-0.274895
0.0892117
0.185676
-0.547593
0.160226
-0.224025
0.210145
0.0138781
0.00737234
-0.437943
0.450391
0.160807
-0.0174272
-0.143381
-0.351608
0.470736
-0.119168
-0.352351
0.15091
0.201424
0.500438
-0.111484
-0.0692641
-0.187491
-0.594533
0.20403
0.390426
0.0478282
0.496301
0.151954
0.00113433
-0.153089
-0.522871
0.190292
0.332555
-0.131257
0.188661
-0.245739
0.176456
-0.36389
-0.165394
0.52899
0.0263974
-0.0050034
0.00702249
-0.00107633
-0.428168
0.553034
-0.124967
-0.658618
0.204753
0.453849
-0.1875
-0.307069
0.445704
-0.138649
0.108212
0.012955
-0.121167
0.0135565
-0.0267708
0.0132143
-0.0607861
0.0163413
0.527523
-0.557337
0.0298126
-0.201241
0.145205
-0.114041
0.435218
-0.0112208
0.0627008
0.169288
-0.476371
-0.0741885
-0.044208
-0.204976
-0.389514
-0.0376718
0.347369
-0.0202484
0.517483
-0.156679
-0.36086
-0.25011
0.170646
0.0148863
0.120329
-0.488266
0.569125
-0.0809648
0.0103775
0.0236709
-0.35536
-0.251853
0.606872
0.137634
0.0240073
-0.650115
0.452375
0.197705
0.000184365
-0.00438155
-0.397566
0.556241
-0.158838
-0.00381121
0.154373
-0.150565
-0.0307993
-0.23654
0.637507
-0.109985
0.187443
-0.67582
0.133559
-0.119188
-0.014371
-0.0496799
-0.00465375
0.0543336
-0.48539
0.188227
0.297114
0.180179
0.337249
-0.0186684
0.0168906
-0.0445139
0.0549701
-0.0104563
0.108114
-0.0635534
-0.0445605
0.0182537
0.248227
-0.701986
0.359452
0.0912004
0.303229
-0.394484
0.0522221
-0.0472679
-0.00495427
-0.100899
-0.100343
-0.329208
-0.372839
0.148788
-0.182508
-0.194312
0.376768
-0.0114806
0.211085
-0.199609
-0.135071
0.0305329
-0.13735
0.106817
0.00558882
0.152905
-0.158496
0.0613151
0.206616
-0.146256
0.160016
-0.0137614
0.0128836
0.00010238
-0.012986
0.0985763
-0.526143
-0.280462
-0.204977
0.314398
-0.283468
0.128278
-0.105009
-0.0232692
0.613707
-0.0556578
-0.558134
0.000113971
-0.148981
0.00272346
-0.352804
0.0388526
0.28907
-0.283289
0.176783
-0.0303984
-0.146386
-0.455878
-0.202756
-0.304597
0.214454
0.0901405
0.539654
-0.401567
-0.138128
-0.089245
-0.0968201
0.25639
-0.287199
0.360258
-0.289339
-0.0877985
0.0717252
0.0160733
-0.43535
0.632174
-0.196854
0.033286
0.0134092
-0.0908179
0.129338
0.410276
-0.0662918
-0.489608
0.210124
0.279439
0.364917
0.215338
-0.580262
0.129768
-0.552625
0.422764
0.00980198
0.00157584
-0.116285
0.481194
0.00431151
0.222858
-0.22719
0.00616298
-0.182224
0.236541
-0.238796
0.00225265
0.0927694
-0.339087
0.246286
-0.0726101
0.0244496
0.0481603
0.00588153
0.0872041
0.239521
0.0475491
-0.287094
0.020099
0.100201
-0.310462
-0.0795573
0.38996
0.202088
0.03445
-0.00807511
0.109798
-0.49489
-0.201773
0.0272487
0.174518
-0.087367
-0.158388
-0.110926
-0.451425
0.562207
0.127484
0.331487
-0.459165
0.217246
-0.588132
0.370786
-0.0384488
-0.165406
0.454193
-0.13096
-0.323272
-0.570652
0.437234
0.133331
0.369865
-0.47997
0.110021
-0.13723
-0.0302987
0.167526
-0.320729
0.115435
0.205289
-0.756891
0.323505
0.433346
-0.671652
0.296039
0.115407
-0.00719533
-0.000353605
0.177135
-0.492684
0.155601
-0.27
0.274284
0.082763
-0.0801149
-0.00264829
-0.179608
0.217733
-0.0381259
-0.417753
0.495832
0.0490955
-0.133175
0.0526856
-0.0639064
0.267812
-0.511684
0.243825
0.331425
-0.702418
0.370947
-0.0656899
-0.209858
0.275537
-0.341148
0.468425
-0.425506
-0.258551
-0.361442
-0.341014
0.5118
-0.244034
-0.029683
0.0225184
0.00716458
0.0796978
-0.390215
-0.0311342
0.204854
-0.173724
-0.00100662
0.00962004
-0.0191866
0.179991
-0.54798
0.117118
0.394938
-0.141812
-0.0197488
-0.0528614
0.213886
0.0629445
-0.00721794
0.000428046
-0.708149
0.266193
0.441918
0.528984
-0.211965
-0.317174
-0.601131
0.16575
0.658513
-0.348745
0.323108
-0.0532207
-0.48856
0.189672
0.298845
-0.0185252
0.101288
-0.429519
0.556529
-0.127041
0.00421627
0.193301
0.335521
0.00750901
-0.140454
0.132943
-0.403931
0.582908
-0.179006
-0.0876867
0.402536
-0.120664
-0.0310132
0.0688576
0.039256
0.173745
-0.356305
-0.223935
0.148099
0.0758353
0.351561
0.204687
-0.556374
-0.628445
0.197757
0.430428
0.479164
-0.109377
-0.304962
-0.184692
0.430186
-0.55244
0.122119
0.438099
-0.616856
0.178395
0.00259632
-0.0476605
0.570323
-0.14027
-0.167183
-0.0568421
-0.0174282
-0.094553
0.111981
0.361338
0.206528
-0.568308
0.152869
0.0281941
-0.181065
0.127532
0.00891779
0.0404776
-0.000789364
-0.0396883
-0.215111
0.194633
0.0204726
0.0131066
-0.243242
-0.221799
0.465033
-0.483972
0.240724
-0.278476
-0.0979835
0.158769
-0.562727
0.329264
0.0197603
0.0778929
-0.0976534
-0.414826
-0.164963
0.30657
-0.390273
-0.22139
0.207358
-0.179285
-0.0280804
-0.0797671
0.250497
-0.170737
-0.0893416
-0.0240425
0.113384
0.135422
-0.0187763
-0.116647
0.0932349
0.365608
-0.458881
0.438508
-0.322721
-0.0476118
-0.20912
-0.00955427
-0.168024
0.177575
0.115335
0.338818
-0.185117
0.134391
0.0824672
-0.162735
0.0802652
-0.0917984
-0.183104
0.0147671
-0.0508671
0.0360999
-0.478213
0.139305
-0.148862
0.133329
-0.105356
0.141908
0.326587
-0.468691
-0.0213401
0.0208907
0.000449382
-0.273362
-0.355299
0.392728
0.265733
0.0303684
-0.1676
-0.305494
-0.40269
0.503741
0.127141
0.161359
-0.00940623
0.0032157
0.0203164
-0.146352
-0.0401264
0.186478
0.309476
-0.478092
0.279366
-0.07676
-0.202626
0.122696
0.378496
-0.501227
0.120573
-0.0902249
-0.0303485
-0.114636
0.124104
-0.00946798
0.263856
-0.404364
0.14046
-0.0903326
0.147529
0.327694
-0.475422
-2.87175e-05
0.152618
-0.152591
0.465418
-0.354774
-0.110652
-0.543654
0.412164
0.131401
0.0782556
0.53536
0.468305
-0.104368
0.377577
-0.488637
0.461301
-0.435966
-0.0253718
-0.20001
0.172012
0.0279926
0.593278
0.0164933
0.118928
-0.342418
0.484119
0.398684
0.0214216
-0.420188
0.166367
-0.253752
-0.00145976
0.0195904
-0.0181307
-0.502493
-0.0205709
0.522965
0.265542
-0.197975
-0.0675782
-0.161027
-0.396738
0.159768
-0.152262
0.0514429
-0.18508
0.133636
-0.175787
-0.0745936
0.250376
-0.143178
-0.193145
-0.161228
-0.172612
0.333815
0.207373
-0.00387473
0.0313375
-0.0197378
-0.00994528
0.0108195
-0.0118261
-0.438829
0.563452
-0.124724
-0.368423
0.480506
-0.112163
-0.356711
0.44992
0.412715
-0.127895
-0.284924
0.0532627
-0.0134063
-0.0398565
0.646199
-0.342496
-0.250632
0.371225
-0.120595
-0.0626668
-0.208281
0.00100464
-0.0374398
0.0364351
-0.192194
0.0811527
0.00520529
-0.00347021
-0.00173508
0.429359
0.140828
0.15515
-0.0850652
-0.0700854
0.521435
0.0654923
0.136034
-0.587073
0.450988
-0.0218554
0.0228601
-0.7412
0.435666
-0.0629018
-0.0290866
0.0919883
0.618168
-0.563382
-0.0548021
0.491928
-0.131002
0.110663
0.0302721
-0.119614
-0.000700575
0.461966
0.426023
-0.510495
0.0844055
0.0104474
0.105518
-0.115966
0.148436
0.00443103
0.496109
-0.376324
0.00785856
-0.0548793
-0.0323988
0.024396
0.00800278
-0.00855286
0.0490304
-0.519493
0.016908
0.00896925
-0.00621716
-0.00275209
0.58762
-0.480935
-0.106704
-0.0362508
-0.0183547
-0.475314
0.321122
0.549482
-0.413494
0.618648
-0.198887
-0.419777
0.31399
0.228749
-0.0892144
0.171679
-0.2438
0.165265
-0.417735
-0.210125
-0.377647
-0.754159
0.288352
0.465366
0.0669398
-0.0590813
-0.418071
0.432041
-0.0141085
-0.00379272
0.120854
-0.117062
-0.0973256
0.403826
0.520367
-0.0944115
-0.490101
-0.122923
0.0271456
-0.110482
-0.0627466
-0.0156372
0.0783837
0.000170174
0.00503512
0.139104
-0.133042
-0.161796
-0.0382195
-0.00827397
0.0921956
-0.0839218
-0.00187408
-0.00930847
0.54146
-0.411779
-0.0852567
-0.00473714
0.0899937
-0.443513
-0.311065
-0.104386
-0.0123443
0.11673
0.118765
0.293852
-0.0246311
-0.0631675
-0.123104
0.500546
-0.18602
-0.249981
-0.364207
0.125166
0.0969098
-0.16918
0.182978
-0.0138017
-0.0529393
0.042576
0.0103633
-0.623914
0.0887226
0.535091
0.157293
-0.177513
0.10105
0.341013
-0.442135
0.482818
-0.168854
-0.000587119
0.0134707
-0.227906
0.200804
0.0270998
-0.0530371
-0.361136
0.414117
-0.100582
0.131114
0.160483
0.570618
-0.437234
-0.133434
-0.0143946
0.583431
0.0158151
-0.0164023
-0.0697656
-0.348474
0.131045
0.375959
0.2702
-0.408187
0.355097
0.0996621
0.0286156
-0.388062
-0.308294
0.137763
-0.0315684
-0.106195
-0.579013
0.548874
0.0299954
-0.595307
0.454409
0.140718
0.0137179
-0.100802
0.403652
0.00413326
-7.68019e-05
-0.00405646
0.0209518
-0.0838537
-0.245925
0.305626
-0.0597068
0.103892
0.0294358
0.54761
-0.118389
0.291648
-0.269845
-0.0147235
0.0132638
0.0427632
0.0372107
-0.0799739
-0.275572
0.209871
-0.159083
-0.20058
-0.39111
0.205055
-0.209867
-0.369265
0.56713
-0.32001
-0.247209
0.458404
-0.428592
0.0377707
-0.160187
0.122416
0.190951
0.0275845
-0.218547
-0.0275032
0.0422703
0.0217535
-0.190937
-0.320921
0.242855
0.0780618
-0.123331
0.00869475
-0.271974
-0.25092
0.00965928
0.157096
-0.166759
-0.0281362
-0.0934516
0.00834454
-0.395149
0.534779
-0.322981
-0.211824
-0.117112
0.575517
-0.219369
-0.376112
-0.438192
0.342993
0.500918
0.10444
0.473576
-0.350912
0.405999
-0.591324
0.185002
0.00428266
0.00468659
0.177576
-0.0363144
-0.141264
-0.631234
0.455574
0.175464
0.129473
-0.114587
-0.228974
-0.395019
0.027867
-0.0143105
0.16484
0.408111
0.138074
0.413914
-0.0175088
0.0207245
-0.179292
0.0669415
0.112349
0.33691
-0.521884
-0.217574
-0.11567
0.333197
-0.614723
0.189324
0.425377
-0.552856
0.420047
0.132718
0.184749
0.0876941
-0.272467
0.178209
-0.0109597
-0.167253
-0.37861
0.502161
-0.123665
-0.00040959
0.00608095
-0.00567136
-0.0819515
0.217436
-0.135491
-0.350409
0.454525
-0.104123
0.531253
-0.194346
0.226867
0.307887
-0.0197368
-0.0126621
0.0807874
0.198559
-0.651289
0.267523
0.383612
-0.307199
-0.00170425
0.0121413
-0.140189
0.232377
-0.127393
-0.00529209
-0.00192584
-0.390099
0.0989768
0.291119
-0.560458
0.162724
0.125762
-0.554028
0.248357
0.0747275
0.0052902
-0.566161
0.196919
0.369235
0.0193606
-0.100519
0.28524
0.196997
0.0685345
0.0161525
-0.441009
0.326926
-0.107695
-0.0296563
0.156093
0.0214807
0.39321
-0.102505
0.274915
-0.0436966
-0.364934
-0.286507
0.205163
-0.026959
0.327005
0.0697672
-0.333043
0.116545
0.216482
0.123293
0.366833
-0.490163
0.00535547
0.000790591
-0.00614606
0.501871
0.062489
-0.564364
-0.26556
-0.124542
-0.376454
0.217349
0.0457361
0.245941
-0.29169
0.0490808
0.168158
-0.217247
-0.0384298
0.0811929
0.494052
0.0822601
0.00352045
-0.12317
0.119648
-0.076729
0.0139823
0.319095
0.25715
-0.576244
-0.129497
-0.295993
0.425384
-0.182147
0.512928
-0.107245
0.106616
0.263685
-0.370426
-0.406384
0.194798
0.21151
0.398264
-0.0862556
-0.312026
0.153358
-0.0844203
0.111565
0.0300673
-0.402767
0.557034
-0.154395
-0.00559002
0.0757687
-0.0701788
0.0707098
0.155984
0.207987
-0.000634302
-0.128719
0.388693
-0.297546
0.0798979
0.0752515
-0.0157226
-0.177215
0.399252
0.129512
-0.528848
-0.127117
-0.0521758
-0.129154
0.166553
-0.0374002
0.157459
-0.00136799
0.553537
-0.391394
-0.162228
0.415354
-0.528433
0.342401
0.224656
8.02429e-05
-0.0913918
0.349002
-0.602313
0.389412
0.212836
0.163723
-0.0260912
-0.527602
0.148881
-0.563618
0.423096
0.140409
0.00991013
-0.0985352
0.178951
-0.314287
0.409183
-0.0949114
0.068694
-0.248302
0.210101
-0.221587
0.0486432
-0.288676
-0.117763
-0.314583
0.198397
0.0201545
-0.100124
0.0799697
0.420776
0.12866
-0.561254
0.146596
0.414625
-0.374463
-0.301448
0.524375
-0.53062
0.0061332
0.246975
-0.342572
0.0955461
-0.302336
0.199907
0.102414
0.0562538
-0.232045
0.387836
0.165617
0.614043
-0.202267
-0.411786
-0.361307
-0.123781
0.485024
-0.408852
-0.066467
-0.153615
-0.164696
-0.0504207
-0.383954
0.13392
-0.0124315
-0.351804
-0.0513857
0.0701009
-0.0187153
0.0746847
-0.388986
-0.476198
0.10165
-0.00713158
-0.0196393
0.279332
-0.0899885
-0.189364
0.00871918
0.0901631
0.174088
-0.39928
0.00976265
0.389507
0.118713
0.324214
-0.442969
0.547334
-0.41922
-0.12821
-0.415313
0.285708
0.0138582
-0.0260015
0.0121433
-0.180211
0.200573
-0.0203677
0.0662391
-0.31217
0.169982
0.0477502
-0.293743
0.400223
0.0168179
0.140639
0.667661
-0.188439
-0.41322
0.486986
-0.0738024
-0.493791
0.166725
0.327058
0.482575
-0.395924
-0.0135785
0.263125
-0.0932084
-0.169928
-0.0497337
-0.349557
0.122474
-0.018893
-0.0925127
-0.32309
0.415588
0.29458
-0.515386
0.220721
0.323686
-0.516521
0.192723
0.156325
-0.150738
0.144712
-0.305815
0.408831
-0.103083
0.068461
0.231941
-0.300427
-0.367878
0.49902
-0.131224
0.0147411
0.491666
-0.197153
-0.0473838
-0.184456
0.231836
0.286608
0.106557
0.00787186
-0.000562087
-0.00730977
-0.00880504
-0.456788
0.252629
0.204148
0.00489393
-0.145287
-0.0786485
-0.000708786
0.119399
0.32629
-0.416293
0.563872
-0.147749
0.551195
-0.455694
-0.095549
-0.0935773
0.375356
-0.281867
-0.0667538
-0.247417
0.314145
0.456814
0.0249473
-0.504102
0.364491
0.139499
-0.186314
-0.134419
0.0943851
0.0126379
-0.0717482
0.0591103
0.230923
-0.32235
-0.025851
-0.157213
0.183061
-0.160219
-0.0155904
0.175808
-0.550804
0.416717
0.133996
-0.188532
0.183306
0.261718
0.0175946
0.554398
-0.166133
-0.388314
-0.00303746
-0.180558
0.183588
0.17994
0.452204
-0.0027063
0.0288456
0.14975
-0.11198
-0.594242
0.179385
0.414849
0.145689
0.407248
0.228211
0.236654
-0.533846
0.377104
-0.470259
0.10889
-0.0175812
-0.401912
0.558678
-0.156934
-0.054359
0.368436
-0.491677
-0.199893
0.497833
-0.297943
-0.411259
0.120551
0.290682
0.0971638
0.337772
-0.435048
-0.0815453
-0.365585
-0.13463
0.153031
-0.555118
0.355676
-0.0654966
0.305857
0.0112931
-0.317176
0.00600533
-0.556786
0.416044
0.140619
0.19311
0.22286
-0.668778
0.445892
-0.358621
-0.111699
-0.008941
0.00904338
0.483285
-0.15971
-0.153086
0.288451
-0.00478946
0.134262
-0.0104753
0.662101
-0.439263
-0.434688
0.316015
0.11866
0.0977923
-0.0776378
0.561166
-0.409796
-0.151415
0.0801987
0.314229
-0.394474
0.112548
0.0653234
-0.156009
-0.310485
0.466311
-0.0966355
0.107083
0.2927
-0.34671
0.053959
-0.0171943
-0.00414583
0.299365
0.0845995
0.118594
0.0055795
-0.124174
-0.353486
-0.459502
-0.11605
0.575521
-0.591295
0.475002
-0.0967027
0.534425
0.646767
-0.144901
0.031682
-0.0355567
-0.0811922
0.325551
-0.244389
-0.609548
0.2326
0.37678
0.284913
-0.42311
0.138188
0.159556
0.121632
0.429514
-0.108745
0.302993
-0.0634959
0.00926235
-0.205317
0.174178
-0.125839
0.000286358
0.125552
0.105026
0.230545
-0.0335596
-0.00235629
0.0173044
-0.0149481
-0.377763
0.109088
0.268634
-0.118139
-0.253465
0.412243
-0.15893
-0.0099338
0.00119991
0.00873388
-0.421697
0.208256
0.109725
-0.318021
-0.222054
-0.446749
-0.192858
-0.363749
0.556552
-0.634279
0.412198
0.600029
-0.176083
-0.423997
0.567535
-0.44529
-0.122306
0.120024
0.300425
-0.420569
-0.174044
-0.0290802
0.203119
0.539647
-0.140478
0.249295
-0.330518
-0.0132351
-0.119622
0.132857
-0.0241316
0.0446873
-0.0205557
-0.0588801
0.0074944
0.1315
-0.13629
-0.229708
-0.430395
-0.16091
0.475145
-0.342894
-0.132404
-0.0227422
-0.0773823
0.346177
0.119233
0.00413326
0.145008
-0.417564
0.272509
0.142213
-0.00593412
0.508528
-0.502967
-0.309069
0.413371
-0.10437
-0.281278
0.426241
-0.426004
-0.175157
-0.37573
-0.127885
0.503452
-0.14976
0.159416
-0.238694
-0.371022
0.00961684
-0.00602798
-0.00358886
0.454189
-0.377455
0.524547
-0.147233
-0.0172634
0.0311216
-0.420523
0.166911
-0.283212
-0.304996
-0.0827327
0.504741
-0.000833561
0.0166487
-0.0539378
0.19324
-0.203023
0.579237
-0.376269
-0.177351
-0.47056
-0.14584
0.616308
0.535723
-0.0109319
0.0692775
-0.0583457
0.114875
-0.022749
-0.199593
0.222341
0.181274
-0.334385
-0.416552
0.366809
-0.196557
0.59032
-0.449791
-0.14058
-0.068557
-0.167987
0.336353
-0.428881
0.0686098
-0.229853
0.0121049
-0.013979
0.296223
-0.424279
0.128022
-0.431672
0.330758
0.376426
-0.296264
-0.509561
0.358817
0.150604
-0.137217
0.0036525
-0.112523
0.10887
0.0220937
0.143028
0.224125
-0.0331845
-0.0142776
0.0125733
0.00831401
0.00130283
-0.107778
0.444116
-0.108232
0.111884
-0.423542
-0.147882
0.00113344
0.0119375
-0.013071
-0.455486
-0.121815
0.0629247
0.0210095
-0.0839343
-0.134608
0.00610147
-0.207881
-0.287837
0.304041
-0.0162254
-0.128078
0.0979638
0.0301137
0.00593432
-0.0619544
0.0560201
-0.650048
0.237112
0.412916
0.143615
-0.443712
-0.454367
-0.312567
-0.191638
0.168001
0.380493
-0.0939306
-0.071096
0.363746
-0.147917
-0.0135269
0.161443
-0.00746662
-0.000201676
0.00766829
0.134781
0.19371
-0.010779
0.00147051
0.522262
0.0958902
-0.178446
0.463619
-0.285217
-0.332657
0.0306126
-0.0344641
0.00385143
0.222585
-0.289367
0.0199686
0.567633
-0.135615
0.162561
-0.264809
-0.132766
0.397492
-0.405669
0.289881
0.108366
0.0643895
0.17513
-0.239537
0.306458
-0.400138
-0.0485239
-0.425497
-0.22457
0.40241
0.15258
-0.555012
-0.147622
-0.115376
0.411565
-0.010251
0.000441682
0.00980929
-0.328925
0.111308
-0.0980318
0.328919
-0.460841
0.573815
-0.112987
0.0103438
-0.438477
0.653805
0.162755
-0.288396
0.0785276
-0.19986
-0.111791
0.311615
0.218001
-0.0367448
0.444805
0.217274
0.050352
0.48209
-0.35883
-0.488903
0.132468
0.35638
0.0144569
-0.131806
0.117348
-0.437311
-0.0142176
0.548281
-0.229187
-0.101378
-0.0333353
0.134712
0.0903181
-0.107747
-0.0125573
-0.110613
-0.132947
0.0359628
0.0969836
-0.216202
-0.349966
0.0857386
-0.104264
0.0218038
0.00301655
-0.0248203
0.526256
0.0891873
-0.0787198
0.245648
-0.424132
-0.0110405
0.163656
0.132442
0.0192625
0.46446
-0.297741
-0.0601552
0.227511
-0.167365
-0.412862
-0.174258
0.239276
-0.178966
-0.0603195
-0.20549
-0.253887
-0.08523
-0.0334438
0.0578934
-0.157331
-0.0203315
0.177659
0.0332274
-0.162382
-0.0714259
0.051804
0.0196218
0.0861009
-0.00474585
0.112026
-0.107281
-0.222472
-0.407771
0.0986358
0.355783
0.094783
-0.4506
0.554155
-0.151768
-0.593474
0.449679
0.143765
-0.404087
0.541838
-0.137877
-0.219243
-0.0518748
0.0578091
-0.592723
0.434556
0.158004
0.0731998
0.252322
-0.153649
-0.259024
-0.124405
-0.224423
0.348768
0.167211
-0.0143071
-0.143555
0.044926
0.0986286
-0.308776
0.106067
-0.544995
-0.211632
0.164245
0.0420321
-0.502884
-0.28845
0.265533
0.0172988
-0.019655
-0.0975787
-0.225882
0.323417
0.14218
0.317657
-0.460006
0.224865
-0.0383868
-0.437535
0.323178
-0.250005
0.0246273
-0.00282358
-0.00911754
0.395597
-0.0920122
-0.303605
0.179361
-0.164042
-0.0153204
0.304825
-0.0802291
-0.224611
-0.00630451
0.00101242
-0.0172278
0.21803
-0.234172
0.154399
-0.0123898
0.0695407
0.537836
-0.0604843
-0.103624
-0.0326845
-0.107686
-0.417472
0.33427
-0.276121
0.203787
0.0723306
0.514932
-0.00317844
-0.0813712
-0.0125189
0.515979
-0.503875
0.233221
-0.357692
-0.349499
0.0641771
0.273305
-0.147085
0.163707
-0.0166243
0.585477
-0.176576
-0.409006
0.121606
-0.0536508
0.256216
0.0467501
0.0882406
0.0323323
0.216792
-0.44216
0.119882
0.322123
0.00169271
0.242751
0.114217
-0.356989
-0.0734831
0.315214
-0.24176
-0.497008
0.326928
0.169943
0.00122309
0.0111749
-0.012398
-0.0157218
0.154825
-0.0116692
0.197512
-0.263037
0.0655165
0.0199279
-0.0281464
0.146176
0.0203754
-0.16994
-0.269372
-0.187427
0.178133
-0.0208434
0.384534
-0.583438
0.400199
-0.303133
-0.126979
-0.0139292
0.140908
-0.233424
-0.185806
-0.183099
-0.0726845
-0.188984
0.253356
-0.31193
0.112037
-0.123893
0.138349
-0.00604742
0.124641
-0.469848
0.135774
-0.128241
0.148159
-0.0199187
-0.154333
-0.262226
0.304918
0.103847
-0.357284
0.486654
-0.129523
0.185888
0.399307
0.0619037
-0.054698
-0.00720574
0.0970941
-0.105368
0.577486
-0.436891
-0.140692
0.15992
-0.62089
0.197602
0.423274
0.10858
-0.431686
0.00729553
0.359066
-0.430223
-0.162801
-0.335685
0.498261
0.0213352
0.493554
-0.281471
0.0336482
-0.494887
0.460877
0.318193
-0.0698602
0.0551647
0.00673896
0.109624
0.171983
-0.22697
0.0549788
0.404709
0.149423
-0.41615
-0.00226267
0.133763
-0.0074053
0.0380179
0.0324725
-0.0125446
-0.120714
-0.498179
0.54575
0.33679
-0.49982
-0.0846993
0.333961
0.0287729
-0.423645
-0.170606
0.00699031
-0.0616972
0.00819168
0.131821
-0.140015
-0.0879963
0.253248
-0.596947
0.19086
0.406074
0.294589
-0.0946973
-0.0132421
0.449265
-0.392803
-0.0565188
-0.195396
0.218978
-0.0235842
-0.399356
0.555826
-0.425823
-0.130094
-0.365984
0.216176
0.00212588
0.0191246
-0.0212504
-0.180976
0.150675
-0.143565
0.548251
-0.123458
0.148415
-0.0249578
-0.407257
-0.0138113
0.132222
-0.460993
0.211376
0.400523
0.161959
-0.562808
-0.0682907
-0.398939
0.0722121
0.376994
0.283202
0.112377
-0.102252
-0.0200607
0.122312
-0.184885
0.241044
-0.056166
-0.0860047
-0.210041
0.483872
0.00771497
0.117717
0.433667
0.109754
-0.543448
0.249556
-0.207056
0.0330059
0.171335
0.00182246
-0.17316
0.00675426
-0.00716385
-0.212233
0.194533
-0.197579
-0.150098
0.161749
-0.0116549
-0.0169195
0.163094
0.156498
0.406856
0.166641
0.0838469
0.130332
-0.0368878
-0.0923771
0.08105
0.011327
0.0240284
0.0017234
-0.107545
0.357498
-0.249987
0.283517
-0.496793
0.213211
-0.00871071
-0.625274
0.289393
-0.524542
0.0860545
0.197932
0.0754544
-0.273404
0.0163186
-0.348773
0.123364
0.225365
-0.42776
0.073009
0.0176399
-0.0906489
0.205835
-0.156761
0.0866054
-0.35043
0.263793
-0.17715
0.413635
0.0137743
0.0969245
-0.110699
0.0691261
-0.0814372
0.012311
-0.00936318
-0.0014158
0.365717
-0.489565
0.0943718
-0.426209
0.331758
-0.0616705
0.45503
0.113058
-0.489333
-0.022395
-0.152606
0.171825
-0.0192203
0.107321
0.347197
-0.266838
0.0819986
0.184831
-0.200065
0.158743
0.041318
-0.313364
0.227326
0.0521072
-0.056761
0.125
0.364878
-0.490106
-0.111832
0.382926
-0.271123
-0.13744
-0.174525
-0.221845
0.505281
-0.00923004
-0.0831471
0.106783
-0.47052
0.363527
0.555657
-0.164391
0.0164726
0.114427
-0.127065
0.0126375
-0.125168
0.12776
-0.00259247
-0.0138515
0.0963639
-0.0825125
-0.161243
-0.269768
0.430802
0.10405
0.0851636
-0.189217
-0.359034
0.526023
0.0524082
0.32398
-0.525723
0.519338
-0.185304
0.358997
0.0904445
-0.0996746
0.0398476
0.319166
0.134585
-0.174192
0.439756
-0.0840072
-0.574305
0.408389
0.165884
0.130049
-0.439518
-0.146308
0.585809
-0.155463
-0.00141475
0.0122342
0.445602
-0.593339
0.147703
0.309089
0.1157
-0.128936
-0.538672
-0.123615
-0.0877014
-0.112366
-0.0737315
0.177778
0.293896
0.107809
-0.401779
-0.495989
-0.148781
-0.373426
0.522075
0.417376
0.138355
-0.589711
0.409648
0.180059
-0.242726
-0.137428
0.499724
-0.362324
0.325171
0.21544
0.0360292
-0.506673
-0.417182
-0.105094
0.522249
-0.0775469
0.269579
-0.192037
-0.175184
0.00379178
0.0353687
0.0139151
-0.161002
0.137218
-0.359291
0.525429
-0.166404
0.550413
-0.449414
-0.101081
0.147513
0.016192
-0.550121
0.160312
0.389786
0.155955
-0.30558
-0.255699
-0.209396
-0.323275
-0.388449
0.160016
-0.364803
0.263536
0.101238
-0.0713566
0.0557193
0.442524
0.14286
0.588125
-0.142555
0.246902
-0.0560822
-0.190832
-0.612868
0.19204
0.420821
0.622639
-0.185792
-0.436939
-0.0165425
0.319342
0.093959
-0.323833
0.0103246
-0.162932