/*--------------------------------*- C++ -*----------------------------------*\
| =========                 |                                                 |
| \\      /  F ield         | OpenFOAM: The Open Source CFD Toolbox           |
|  \\    /   O peration     | Version:  v2012                                 |
|   \\  /    A nd           | Website:  www.openfoam.com                      |
|    \\/     M anipulation  |                                                 |
\*---------------------------------------------------------------------------*/
FoamFile
{
    version     2.0;
    format      ascii;
    class       surfaceScalarField;
    location    "650";
    object      meshPhi;
}
// * * * * * * * * * * * * * * * * * * * * * * * * * * * * * * * * * * * * * //

dimensions      [0 3 -1 0 0 0 0];
oriented        oriented;


internalField   nonuniform List<scalar> 
20537
(
-0.00642112
-0.000297903
0.00676615
0.00803823
-0.00593238
-0.00210461
-0.000807183
-0.00310433
0.00391339
-0.0106271
0.00578391
0.00488534
0.00233925
0.00149045
-0.00382847
0.0056966
0.00199914
-0.00767797
-0.00752614
0.00603616
0.0015836
0.0023231
-0.00474109
0.00242166
-0.0033139
0.00434486
-0.00090954
0.00543834
-0.00241782
-0.0030178
-0.000920625
0.00250373
-0.00157556
-0.0036776
-0.000202648
0.00388065
0.00178517
-0.00228027
0.000495229
0.000946587
0.00141277
-0.00235937
-0.000579857
-0.00156684
0.00256384
-0.00323757
-0.00224531
0.00549247
0.00725171
-0.00213338
-0.00509862
-0.000902365
-0.00498357
0.00590533
0.00149035
0.00124089
-0.00273094
-0.00420088
0.00101373
-0.00480632
-0.00574973
-0.00456308
0.00375801
-0.00016533
3.38751e-05
0.000184451
0.000356116
-0.000377573
0.000220455
-2.2684e-05
-8.9657e-05
-0.00242604
0.00475327
0.00561242
-0.00449913
-0.00109876
-0.000919356
-0.000467166
-0.00857966
0.00220704
-0.00820636
0.00122842
0.00701013
-0.00184877
0.00756144
0.003859
0.00340996
-0.0048803
0.0017782
-0.00284765
-0.00174835
0.00460183
-0.000257845
0.00082025
-0.00167165
-0.00039377
0.00206559
0.00231625
-0.00113929
-0.00117688
0.00172023
0.0015266
-0.00324633
0.00397132
0.00146907
-0.00622124
0.00338058
-0.00813458
0.00456647
0.00367517
0.000338905
0.000111623
-0.000430794
0.00118509
-0.000395987
-0.000789103
0.00174605
0.000651992
-0.00239403
-0.000567222
0.00231647
0.00188605
-0.00107065
-0.000815389
0.000665909
-0.00234038
0.00167498
-0.00724018
0.00210056
0.00514603
0.00430891
0.00131645
0.00573579
-0.0049539
-0.000752749
-0.00196034
0.0034786
-0.00151724
0.00149362
-0.00298108
0.00148782
0.000465289
-0.00112206
0.000656773
0.000265009
-0.00113177
0.00126439
-0.000278045
-0.000781533
0.00143687
-9.90654e-05
0.000455949
-0.00012697
0.000606018
-0.000366839
-0.000638193
-0.000819349
0.00145754
-0.00670949
-0.00145892
0.00621158
-0.00761328
0.00148601
0.00332375
-0.00160293
-0.00181382
-0.000450248
0.00226415
0.00272532
0.00468663
-0.00739795
-0.00140603
-0.00181647
0.00322325
0.00642022
-0.00127095
-0.00514426
0.00209332
-0.00736938
0.00531003
0.00127227
0.00104404
0.000411696
-0.00237973
0.00233441
0.00230525
-0.00463506
-0.0061282
0.00524672
-0.00108319
2.13898e-05
0.0010618
0.00082236
0.00101699
-0.00183931
0.00494706
0.00309194
0.00182324
-0.00109402
-0.00207556
0.000396405
0.00201499
0.00145842
0.00267671
-0.00405615
-0.00119758
-0.00336416
0.00100066
-0.00143029
0.00042963
-0.00436223
0.00253992
0.00182487
-0.000229187
0.0011651
0.00760109
-0.0022832
-0.00525239
0.000139417
-0.000204877
6.51251e-05
-0.00504838
0.00707777
-0.00183486
0.00104314
-0.00185835
0.00081522
-0.0041569
0.00689637
0.000296874
-0.00397407
-0.00208491
0.00744283
-0.00533625
0.00496729
-0.00383411
-0.00113187
-0.00499179
-0.000460876
0.00546803
0.00353153
-0.00272553
-0.000748953
-0.00252742
0.000855931
-0.00933176
0.0053761
0.00398821
-0.00160927
-0.00552738
0.00289541
0.0026402
-0.0075794
0.00260435
-0.000290813
-4.68654e-05
0.000450859
0.00340254
-0.00106221
-0.00211923
0.00172866
0.000390603
0.00456533
0.00119629
-0.00024284
8.57498e-05
-0.00180098
0.00188474
-8.37661e-05
0.00244472
0.00153982
-0.00398259
-0.00822391
0.0035262
0.00475216
-0.00368625
0.00514314
-2.84695e-05
4.39816e-05
-4.96966e-06
0.00210377
0.00506476
-0.00714706
-0.0019166
-0.00156121
0.00347931
0.000193053
4.76475e-05
-0.000227021
-0.00100471
0.00165054
0.00746045
-0.0054441
0.000263174
-0.000248656
0.000125269
0.00262302
0.00096683
-0.00516277
-0.00413617
9.80947e-05
9.24389e-05
0.000593504
-0.000181053
0.00308618
-0.00664081
-0.00128194
-0.000837241
-0.000328235
0.000230748
0.000116423
0.00047289
0.000290957
-0.000494274
0.00120788
-0.000252601
-0.000632088
0.00116898
1.61139e-05
0.00281925
-0.00648866
-0.000672017
0.00245731
-0.0072641
-0.00221141
-0.00501931
0.000348246
-0.00160954
0.00128727
-0.00738394
0.00518186
-0.00328293
3.36133e-05
0.00325128
-0.00943148
0.00468207
0.00123252
-0.0027923
0.00156026
-0.00335166
-0.00465317
-0.00107415
0.00363327
-0.00237327
1.45846e-05
-0.00109778
0.00139204
-0.00623368
-0.00365844
0.000856969
0.000595239
-0.00123247
-0.000134685
-0.000169107
0.000948249
0.000947445
-0.00189565
-0.00301539
0.00187123
0.0011442
-0.00169004
0.00325957
-0.00156965
-0.00027096
-0.00153003
0.00112034
-0.000987966
-0.00625319
0.00270241
0.00361098
-8.27426e-05
-0.000765162
0.000870504
-0.00321774
0.0061517
-0.00290554
0.00237073
-0.00171454
0.000170564
-7.42573e-06
-0.000157669
0.00323978
-0.00200659
-0.00581183
-0.00159671
-0.00220014
0.00163602
-0.00313607
0.00145311
-0.000875024
-0.000102036
0.00131949
-0.00115165
0.00209823
-0.000411516
0.000382183
8.68252e-05
0.00449704
-0.00456143
0.00376522
-0.00695115
0.000953439
-0.00562425
0.0047893
0.00579191
-0.00710366
0.00134527
0.00236755
-0.000873592
-0.00348489
0.00152566
0.000110502
-0.000108945
1.18132e-06
-0.00493089
0.00268266
0.0022546
0.000615766
-0.00125396
-0.0029898
0.00208312
0.0059081
0.00195443
-0.00783981
-9.5967e-05
0.000806954
-0.000685565
3.37504e-05
0.000140546
0.00438969
-0.00205093
-0.00523046
-0.00414091
-0.00113358
0.00180763
-0.000674024
0.00111365
-0.000112992
-0.0018469
0.000414341
0.00154002
0.00571142
-0.00464258
-0.00330349
0.00161338
-0.000861526
-0.0019543
0.00713532
-0.00502818
0.00119963
-0.0044799
-0.00322386
-0.00163163
0.00490457
0.00290832
-0.00141771
-0.000195538
-5.42798e-05
0.000260835
0.00226249
-0.00623556
0.0039867
0.00177065
0.00637791
-0.00438996
-0.00178969
0.00340022
0.000359087
3.5416e-05
-3.13592e-05
-8.41684e-07
-0.000212589
-1.1865e-05
0.000304638
0.00734498
-0.00521826
0.00130528
0.0002385
-0.00164993
-0.00174949
0.0034004
-0.00395143
0.00535417
-0.00139897
-0.0017131
0.00117548
-0.00071019
-0.00322639
0.000538892
0.00273308
0.00249616
0.00184424
-0.00433614
0.00111199
-0.00292571
0.000119141
0.00507629
-0.00516751
-0.00196423
-0.00422873
0.0056219
-0.00184158
-0.00377218
0.00279885
-0.00596248
-0.00273247
0.00427035
0.00168037
-0.00130522
0.00226983
-0.00110894
-0.00116087
-0.00016561
0.000593951
-0.00013189
0.00266497
-0.00596542
0.00347333
0.00516004
-0.00242049
-0.00273614
0.00146604
0.00510284
-0.00352941
0.00239323
0.00113631
0.0064605
-0.00599554
-0.000447583
-0.000825077
0.00148363
-0.000658546
-0.000172776
0.000129895
4.92927e-05
-0.00174645
0.00130252
0.000443953
-0.00582378
-0.0023352
0.00201562
-0.00583446
0.00382078
0.000137109
4.03207e-05
-0.000167239
0.000198735
0.00065297
-0.000828284
-0.000661882
0.0021417
-0.00146931
0.00795499
-0.00276803
-0.00517036
0.00085794
0.00102812
0.00414144
-0.00243747
-0.0014065
0.000554942
-0.00138002
0.00177912
0.0046949
0.00639936
0.00125867
-0.00182688
0.00104442
0.000782481
-0.00296135
0.00108401
0.00187778
-0.00174162
0.00101181
0.000729823
0.000125602
7.76122e-05
-0.00012745
-0.00550522
0.00372015
0.00179255
7.73427e-06
-2.29909e-05
0.000833445
-0.0011749
0.000341457
-5.67924e-06
0.000148642
0.00278263
-0.00520423
-0.00203545
-0.00376283
0.00580249
-0.00145435
-0.000286236
-0.000556779
0.00129346
0.00206345
-0.00335582
0.00693021
-0.00524921
-0.00166993
-0.00273525
-0.000794027
0.00519053
0.0012329
-0.000854269
0.000796251
-0.00256462
0.00538556
-0.00747848
0.00564581
0.00528857
-0.00029164
-0.00498336
9.67733e-05
-0.000144907
4.94957e-05
0.00226793
0.00289495
4.59612e-05
1.03019e-05
-0.000940215
0.00134527
-0.000405051
-0.00101245
0.00345888
-0.0017166
-0.0036119
0.00533025
0.00236898
0.00421746
-0.00655649
0.006259
-0.00534009
-0.000900196
0.00136344
0.00434234
-0.00566886
0.000755933
0.00453856
-0.00589152
0.00633447
-0.000395917
0.00616216
-0.00460794
0.00269438
0.00191527
-0.00142387
0.00687904
-0.00544657
0.0020396
-0.00598647
0.00169705
-0.000749568
-0.00149691
0.000556825
0.00094009
0.00599563
-0.0042731
-0.00148859
-0.000633146
0.000987092
0.00583916
-0.00680322
0.00441036
-0.00728414
0.00287911
0.000673649
-0.00179825
0.00115867
-0.00101062
-0.00151702
0.00252785
0.00449194
-0.00434854
-3.35263e-05
-0.00581133
-0.000253753
-0.00526554
-0.000786753
-0.00104009
0.00257846
-0.0029581
0.000401991
0.00564899
-0.00424858
0.00518851
0.0033928
-0.00711002
0.00372687
-0.00223885
-0.00212058
0.00304782
-0.00627476
0.00152049
0.00228977
-1.53993e-05
0.000154987
-0.000525215
0.00179485
-0.00125652
-0.00178723
0.00111426
0.00067298
-0.00199123
0.00107733
0.000103542
-8.83836e-06
-0.00011795
5.63459e-05
7.00581e-05
-2.44477e-05
-1.40502e-06
3.35624e-05
-0.00200908
-0.00259705
0.00704094
-0.00262566
-0.00182151
-0.00562511
0.00744983
-0.00508139
0.00286072
0.00233023
-0.00321214
-0.00049342
0.00401023
0.00706811
-0.00366578
-2.58261e-05
6.46096e-05
-4.1478e-05
0.00166917
0.00157112
-0.00707158
0.000391749
0.00606326
0.000219336
-0.00237168
-0.00186653
0.00424202
9.08548e-05
-0.000118159
-0.00271741
0.00170701
0.00674906
-0.00606817
-0.000668306
0.00439252
-0.00409521
0.00224196
0.00129992
-0.00338738
0.000460893
-0.0014011
-0.00452054
-0.000403888
-0.00676529
0.0046498
-0.00174354
0.00126944
0.000474109
-0.00850598
0.00271556
0.00585963
-0.00521707
0.00734235
0.000459296
0.00135128
-0.00181056
-0.00199464
-0.00296259
-0.00439421
0.00272233
0.00167416
-0.00277524
0.00568058
-0.00603343
-0.00100564
-0.00194978
-0.00106554
0.0034604
0.00330052
-0.00397888
-0.00186832
0.00589569
-0.00135369
-0.000327498
0.00168122
-0.00016474
0.000592223
-0.000405598
0.00604585
0.000226947
-0.000185344
0.0018183
-0.00160932
-0.00077173
-0.00101548
-0.001157
0.00250386
-0.00134658
0.00168589
0.00273184
-0.00138014
0.00356409
-0.00218219
-0.00488699
0.00133367
0.00384891
-0.000336169
-0.00116074
-0.00757761
0.00461908
0.0029962
-0.000153235
-2.90138e-05
0.000245677
-0.000105459
0.00460829
-0.00442
0.00151429
-0.00267097
-0.00266448
-0.00283267
-0.0030922
0.00569583
-0.00258046
-0.00348162
-0.00188348
-0.00654407
0.00312961
-0.00705157
0.00182849
0.000682158
-0.00112248
-0.00117093
0.00111869
-0.00208218
0.000963518
-0.00747775
0.0027787
0.00471993
-0.00102826
-0.000715264
-0.00299946
0.00134087
0.00165878
0.00162157
0.004247
-0.00174673
-0.00128905
0.00295873
0.000754962
0.00477887
-0.00550709
0.00723506
-0.00308269
-0.00414243
0.00270311
-0.000975803
-0.00172693
-0.00147625
0.00677705
-0.00113434
-0.00559981
0.00498392
-0.00709093
0.00210862
-0.00157181
0.000957014
0.000614807
-0.00184013
0.000694973
0.00120688
-0.00212185
0.000930284
0.00229028
-0.00106754
0.00184283
-0.00345247
0.00161023
-0.00595417
0.00288502
0.00431313
0.0029286
0.00114052
-0.000307079
0.00101024
0.00481093
0.00700763
-0.00202255
-0.0044916
0.00446907
-0.000925617
-0.00363126
6.62152e-05
-9.94694e-06
0.000259286
-5.40599e-05
0.00546017
-0.001608
-0.00371425
-0.000992913
-0.000578887
-0.000466952
0.00388739
-0.00341292
0.00520083
0.00109636
-0.00618794
-0.00212264
-0.0022687
6.26184e-05
0.000542508
-0.000583469
0.000417585
0.00397541
0.000812524
0.00468169
-0.00548611
-0.00782218
0.000765267
0.000920258
-0.00205382
0.00630203
-0.000996811
0.00224187
0.00571907
0.00593892
-0.00384
-0.00208963
-0.00571422
-0.00210431
-0.00785745
0.00321844
0.00477439
0.000256292
-6.19827e-06
0.007873
-0.00602672
-0.00181295
-0.000454378
0.00143257
-0.000978204
-0.000396335
-0.00336453
0.00141482
0.00616183
0.000907193
0.00179622
0.000726887
0.00108076
-0.00110627
0.00220985
-0.00109199
-0.0022868
0.00119239
-0.00726564
0.00430864
0.00299273
-0.00126422
0.00305961
-0.00163685
0.000800409
0.000534189
-0.000911723
-0.00243931
-0.0050159
-0.00321186
0.00183308
-0.00102794
0.00244069
-0.0012037
-0.00275571
0.00396349
-0.000845782
-0.000895827
0.000978545
-0.0017311
0.000752562
0.000506015
-0.000427151
0.00512085
0.00106481
0.00203897
-0.00114783
0.000148856
0.000998972
-0.00567922
0.00364813
0.000925853
-0.00220775
0.00199083
0.00591437
0.0026365
0.0033107
0.00025872
5.99739e-05
-0.00021352
-0.0015577
-0.00144151
-0.00192241
-0.000733069
0.00275738
-0.00499101
0.00275298
-0.00264048
-0.00458385
0.00199805
0.00476031
-0.00665399
-1.89531e-05
-0.00470084
0.00281969
-0.000564379
0.000487143
0.00155154
-0.00295691
0.00522237
-0.00685146
0.00163811
0.00139289
-0.00146985
7.69589e-05
0.00516645
-0.00774088
0.00259893
0.00164892
-0.00508517
0.00720124
-0.00209226
0.00479009
-0.00402894
0.00196723
-0.00637075
0.00441978
-0.00168993
0.00353341
-0.00212729
-0.00461888
-0.00195995
0.00130841
-0.000289332
0.000178202
-0.00166554
-0.00291639
-0.000172193
4.0572e-05
-0.00165217
-0.00159094
0.00324363
-0.00504526
0.0016806
0.0033659
0.00171589
0.00175292
-0.00346823
-0.00710134
0.00203851
0.00105673
0.00359724
-0.00534004
-0.00728031
-0.000759864
0.00305946
-0.00176514
-0.00303525
-0.00468083
-2.59808e-05
0.00483045
-1.10884e-05
-4.66134e-05
7.83796e-05
0.0017251
-0.00397624
0.00225182
0.00540029
-0.000817927
-0.00457115
0.00465379
-0.00256827
-0.00208316
0.000824501
-0.00134482
0.000520316
-0.00285093
0.00570883
0.000461166
-0.00158692
0.00113736
0.00108202
0.00432471
-0.00154921
-0.000517748
3.6465e-05
4.63123e-06
-0.00272985
-0.00229763
0.00503436
0.0037418
-0.000150911
0.00274684
-0.00171308
-0.000447381
0.00226586
0.00235925
-0.00665842
0.0043538
-0.00163065
-0.00330431
0.000323587
-0.00780062
0.00323469
0.00458518
-0.00168567
-0.00234154
0.00402712
-9.607e-05
0.000300162
-0.000616366
0.00530122
-0.000628009
-0.00073118
0.00135919
0.00712339
-0.00119678
-7.29809e-05
-4.08726e-05
0.00222963
0.00273869
0.00155763
-0.00266985
0.00552614
0.00310272
-0.00210147
-0.000882557
-0.00698715
0.00585451
0.00114353
0.00699532
-0.00539373
-0.00156414
-0.000108409
0.00275616
-0.00554936
-0.00220891
0.000855276
0.00392006
0.00331868
-0.00225119
-0.00197506
0.00422981
0.0017936
-0.000720654
0.00709657
-0.000479684
-0.0065906
0.000500518
-0.00179856
0.00130819
0.000115457
7.52638e-05
-0.00154793
0.00633118
-0.00468477
-9.07404e-05
0.000350161
-8.24515e-05
0.00753511
-0.00231934
-0.00520744
0.00603612
-0.00694253
0.000962677
0.00539175
0.00207114
-0.00607819
0.00188859
0.000371368
-1.14509e-05
-0.00222881
0.00125388
0.000974922
0.00122172
-0.000397223
-0.00637557
0.00479322
0.00174476
-0.000319694
0.00744603
-0.00382373
0.00580618
-0.00509396
0.00481474
-0.000728998
0.00177214
0.00383497
-0.00438669
-0.00339676
0.00293696
0.00776654
-0.00441753
0.00177424
-0.00356339
0.0017903
-0.00478909
0.00695045
-0.00207119
0.000482003
-0.00119829
0.000716286
0.000233029
-7.98286e-05
-0.000131953
-0.00110393
-1.81335e-05
0.00299137
0.00245121
-0.00543866
0.000484863
-0.000353973
0.00710191
-0.00739154
0.000601305
-0.00190791
0.00130663
-0.00167627
0.0044625
-0.00211137
-0.000714015
0.00282715
-0.000305632
0.00103608
0.00455967
0.00245478
-0.00701009
0.000419766
-0.000805374
0.0026036
-0.000819469
-0.00162623
0.00124721
-0.00365173
0.00256454
0.00172974
0.00495652
-0.00657699
-0.000545533
-0.000602294
0.00181198
0.00166632
-0.00347713
-0.00121784
0.00260819
-0.00139005
-0.000976234
-0.001107
0.00208336
-0.00690919
9.83233e-05
1.57585e-05
0.00188795
-0.00251845
0.000630656
-0.00165109
-0.00338906
0.00576738
-0.00349247
0.00482684
-0.0021367
-0.00153772
-0.00354094
-0.0049389
-0.0023242
-0.000697346
-0.00104909
0.000955115
-0.000868149
0.000339408
-0.000843618
0.00132562
-0.00179965
0.00135215
0.000917702
0.00542939
0.00565212
0.00147299
-0.00186173
-0.00516927
-0.00119514
0.00166817
0.0060825
-0.0074967
0.00405969
0.00156453
0.00173667
-0.0036243
0.00188824
-0.00131979
0.00714461
-0.00206389
0.0038011
0.00146483
-0.00218892
0.000724138
0.000100222
0.00015529
-0.00170736
-0.00167177
0.00127265
-0.000518776
-0.000753877
-0.00201197
0.00625697
0.0047207
-0.00529314
0.000796253
-0.00392153
-0.00157576
0.00484155
-0.0057969
0.0010669
-0.00335449
0.0017055
0.00522053
-0.00692613
0.0017165
-0.00607051
0.00223795
0.00234354
-0.00402918
-0.000949736
-0.000238365
0.00136128
-0.00143123
0.000803222
0.00144452
-0.000698246
-0.000746272
-0.00197005
-0.00515867
0.00714649
-0.00540127
0.00375452
0.00214231
3.83573e-05
2.61922e-05
-6.23833e-05
0.00279489
0.000134855
-0.000192978
5.83545e-05
-0.00047667
0.00236475
-0.00112719
0.00564047
-0.00190257
-0.000967315
0.00287033
-0.00205109
5.55906e-05
0.00199565
-0.000386572
0.000304999
-0.00544236
-0.00168381
0.00714654
0.00726271
-0.00216052
-0.00509846
-0.00114414
-0.0023075
0.00129598
0.0016782
-0.00297361
-0.00104671
0.000501178
-0.00191477
0.00102754
0.000887267
0.00453692
0.0067894
-0.00468729
-0.00268292
-0.00261167
0.00529494
0.00143785
0.001366
-0.00261457
0.00124882
-0.00363736
0.00243697
-0.00243198
0.00713126
7.77484e-05
0.00474627
-0.00524047
0.00069255
-0.00189858
-7.48369e-05
-0.000295465
0.00438055
-0.00636432
-0.000203176
0.000159536
0.00273527
-0.00187782
-0.000643601
-0.000104175
0.00156904
0.00158694
-0.00407411
-0.00299977
-0.000305418
0.000245528
-0.00180382
-0.00156066
0.00343548
-0.00526899
-0.00133463
0.00340807
-0.00192226
-0.00038108
-8.56438e-05
0.000552109
0.0016989
-0.000992551
-0.000588601
0.00104812
-0.00150251
0.00345307
-0.00516779
0.00547177
0.00209054
-0.000738376
-0.00250987
0.00707344
0.00480278
-0.0023321
-0.0024659
0.000789755
0.000482899
0.000575661
0.000907965
0.00539106
0.00142063
0.00446645
-0.00215682
5.01718e-05
-1.05914e-05
0.00151856
0.00328085
-0.0058451
0.00257157
0.00219803
-0.001088
-0.00110996
-0.00480297
-0.00228408
-0.00305111
0.001149
-0.00196513
0.00466903
-0.00269545
-0.00396632
0.00156576
0.00252464
0.00237411
0.00361257
-0.00597672
-0.00549705
0.00186285
0.00368573
-0.00275194
0.000642062
-0.00173853
-0.00150332
0.00324278
-0.00435683
-0.00150762
-0.00476572
0.00756523
-0.00214018
0.000536537
0.00526509
-0.000989976
-0.0042673
-0.00114528
0.00286163
-0.00228576
-0.00523397
-0.00708869
0.00418432
0.00510621
-0.00428645
-0.00740199
0.00226021
0.00521037
-0.00186298
0.00179319
-0.00344479
-0.00256171
-0.000399271
0.00204164
-0.00606945
0.00403778
0.00243205
-0.00106582
-0.00146915
-0.00237381
-0.00697276
0.00283642
0.00414377
-0.00320357
0.00175043
0.000340112
-0.0078542
0.00210265
8.2105e-05
-0.000325594
0.000380322
-0.00172614
0.000721457
-0.00601084
-0.000211014
0.00625611
0.00131188
-0.000584983
-0.00108568
-0.000409823
0.00149551
-0.0018453
0.00103638
0.000808923
0.00526235
-0.00303157
-0.00246064
0.000636052
-0.000709113
9.28979e-05
1.2276e-05
0.00299719
-0.000111925
-0.00268315
-0.000169237
0.000108919
0.00243545
0.000509548
6.85454e-06
-4.14666e-05
3.56292e-05
0.00756419
-0.00237536
-0.00499785
-0.00197697
-5.80872e-05
-0.000233596
0.00216088
-0.00346512
0.00130457
0.00503468
0.00287436
-0.000713223
-0.00488712
0.00144297
0.00356855
-0.00010027
4.19676e-05
7.17341e-05
0.00010416
-0.000178422
0.000116839
-0.00383783
0.0025494
-0.00270645
0.00149511
0.00121144
-0.00358364
0.000293531
0.00329137
0.00501894
9.72481e-05
-1.4939e-06
-0.000201872
0.000352294
0.000996311
-0.000661687
-0.00015687
-0.00571689
0.00132783
0.00446701
-0.0018856
-0.000531868
0.00241758
0.00193031
0.00161175
-0.00354206
-0.00489097
-0.00243721
-0.000263701
0.000219791
0.00663001
-0.00479414
0.000790493
-0.00639028
0.0024204
0.00182229
-0.00424176
-0.000548736
0.00120632
-0.000657584
0.00543114
-0.00143536
-0.000607325
0.00204273
-0.00469543
0.00715472
-0.00241576
-0.0045354
0.00147456
-0.00269204
-0.000116643
0.00209874
0.00323473
-0.00343703
-0.00715654
0.00493842
-0.00512083
0.000101603
-0.00368381
-0.00187671
-0.00177188
-0.00472906
-0.00754332
5.38141e-05
-4.40013e-05
-0.00430002
0.00393179
-0.000818663
-0.00052615
-0.00439378
0.00130057
0.00316854
-0.00111492
0.00635465
-0.00520377
0.00481761
-0.0072366
0.000863579
0.00189372
-0.00236148
0.00770497
-0.000625184
0.00142371
-0.00285911
0.00143535
-0.00346176
0.00172421
0.00122862
-0.00274539
0.00219044
2.96094e-05
-0.000153498
-0.00140568
-0.00335115
-0.00118607
-0.00104274
-9.21756e-05
-0.00195878
0.00170917
0.00523122
-0.0014501
0.000364425
-0.00333364
0.0011138
0.00231754
0.000833752
-0.000193703
-0.000223323
-0.000166103
0.00464889
-0.00715538
-0.00122818
0.00207005
-0.000841812
-0.00131598
0.0064043
-0.00506828
0.00223791
-0.00703758
0.0048597
0.00178892
-0.00127811
-0.00640974
0.00476457
0.00166252
-8.99096e-05
0.000229835
0.000683293
-0.00155784
0.000874552
0.00676424
0.000119484
0.000759583
0.000580408
-0.00133998
0.000340717
-0.00740371
0.00259092
-0.00122504
0.000635457
0.00058958
-0.00107834
-2.61396e-05
0.00110448
-0.00237852
-0.000148733
-0.00349612
-0.00194582
-0.000861119
-0.000806173
0.00166732
0.00669924
-0.000525932
-0.00142481
0.00422914
-0.00209394
-0.00213407
0.00205869
0.00259731
0.00663667
-0.00209038
-0.00452752
-0.000987354
0.00130917
-0.00464467
0.00336449
0.00128326
0.00356797
-0.00480748
-0.00216456
0.00102535
0.000510363
-0.000290998
0.000143973
0.00135481
0.00567553
-0.00352098
0.00216599
0.00143713
-0.000753831
0.00271135
-0.00576853
0.00306368
-0.00200777
0.00264156
-0.00669393
0.00127084
0.000536096
-0.00251045
0.000430444
-0.000388154
0.000939833
-0.000316134
0.00565625
-9.61076e-05
-5.50582e-05
0.00622818
-0.00413374
-0.00196105
0.0002962
-0.00120174
0.00118858
0.00130474
4.65482e-05
0.00166976
0.000318815
-0.000389779
9.13043e-05
0.00724005
-0.0018506
-0.00537659
0.00203675
0.00485049
-0.000634561
-0.000590474
4.92143e-05
-5.03157e-05
2.83296e-05
-0.0019159
-0.00382533
0.00579589
-0.00270335
0.00241117
0.000292791
0.00421149
-0.00179025
0.00387834
-0.000584757
-0.00328535
-0.00108679
0.000922453
0.000339613
-0.00806596
0.00096844
-0.00249497
0.00105966
0.00605046
-0.000892422
0.00189341
-0.00100096
-1.71481e-05
-0.00427844
0.0010812
0.00213245
0.00157709
0.00267897
-0.00423023
-0.000952665
0.000556678
-0.00585608
-0.00219206
-0.0060684
0.00147813
0.00460721
0.000218533
-0.000203164
-0.00431195
0.00211086
-0.00440026
0.00229122
0.00531985
-0.000304046
-0.00501038
-0.00551191
-0.000537009
-0.00256786
0.00417091
-0.000278039
0.00160827
0.00367094
-0.00553344
0.00263389
-0.00273728
0.00177466
0.0032626
-0.00503131
-0.00349041
0.00174193
0.00224152
-0.00511177
-0.00220028
-0.00171508
0.00235768
-0.000107191
-0.00225003
-0.00165481
-0.00693299
0.005639
-0.000600831
0.00279571
-0.00219476
-0.00221799
0.0012419
-0.00561463
0.00776326
0.00115338
-0.00176782
0.000614454
-0.00203836
-0.00492704
0.00114728
0.00130947
-0.00245666
0.00297324
-0.0015496
-0.00186548
0.00115314
0.000712361
-0.000681071
0.00324207
-0.00254956
0.00316927
-0.00550422
0.00234093
-0.00231993
0.00486099
-0.00727811
-0.0016057
0.000786348
-0.000704967
0.00189099
-0.00573621
0.00393149
0.000125441
0.000144815
-0.000173403
0.00376312
-0.00169849
0.00015941
-3.67788e-07
-0.000157412
-0.000383319
-0.000105866
0.000509167
-0.000626743
-0.000573308
0.00120005
-0.00234391
-0.000891916
0.0056417
0.00111514
-0.00663384
0.000705947
0.000885875
-0.00138738
0.00050151
0.00214817
5.30533e-05
0.000612446
0.00254786
0.00320469
-0.00381365
-0.000233639
-0.000844698
3.61321e-05
-0.00192164
-0.00140589
-0.00120838
0.00705922
-0.00537602
-0.00163546
-0.000971064
-0.00111108
-0.00321046
0.00206703
-0.0012503
-0.00145602
-0.00365921
0.0020996
0.00205545
-0.0041754
0.00553423
-0.00686697
0.00217164
0.00586831
-0.000922287
0.00346122
-0.00148682
-0.00197306
-0.000567182
0.000716039
-0.00425199
0.00627305
-0.0048019
0.0007513
-0.00150513
0.00233905
-0.0011917
0.000728494
0.000716027
0.00501792
-0.00629426
0.00140694
-0.00224959
0.0047071
-0.0024527
0.00192228
-0.0031065
0.00566347
0.00501906
-0.0060989
-0.000381883
-0.00227302
0.00265507
0.000259518
0.000317935
0.00103122
-0.00139585
0.000364639
7.2374e-05
-0.000435936
0.000223156
-0.00292583
-0.00398345
-0.000723517
0.00484161
-0.00276552
0.00409601
-0.00132955
0.00116883
0.00250676
-0.00475125
0.00112136
-0.00447792
0.00154065
0.00293952
0.00518503
0.000678959
0.000317849
0.000192164
0.00328336
0.00531708
-0.0022811
0.00661212
-0.00432293
0.00199879
-0.00680798
0.00483844
0.0010604
-0.000174525
-0.00138915
-0.000373918
-0.000533215
-0.00285663
0.00288863
-0.00732689
0.00450907
0.000126892
0.00117564
0.000906527
-0.00132456
0.000689998
0.0026019
-0.00327161
-0.00788851
0.00367461
0.00689464
-0.00249586
-0.00430299
0.00132858
-0.000568993
0.00102779
-0.000250058
-0.00650101
-0.000140092
0.00136025
-0.000652077
-0.000708172
0.0035483
0.00161368
-0.00502975
-0.00680068
0.0043969
0.00242772
0.00173333
-0.00205715
0.00550173
-0.00136586
0.00307271
-0.0017068
-0.00489438
-0.00216427
0.00714206
0.000539819
0.000161062
-0.0055782
0.00300308
0.00257466
0.00139401
-0.000839068
-0.00141802
0.00309676
-0.00152521
-0.0045255
-0.00155621
0.0066762
-0.00506965
-0.00335169
0.00282508
0.000710288
0.000826272
-0.00153656
0.0029165
-0.000558254
-6.65964e-05
0.000407062
0.00474714
-0.00157252
0.000894858
0.00189869
-0.00263091
0.000264133
0.000533594
0.00246139
-0.000154959
-0.000190901
8.04314e-05
-0.00174538
-0.0019712
0.00371717
0.00481913
-0.00483033
-0.000649792
0.00640432
0.00551395
0.00248643
-0.0057137
0.000356609
0.000997343
-0.00135395
-0.001165
0.00176633
-0.00566898
0.00294691
-0.00234053
0.00173979
-0.00475004
0.000902593
0.00297924
-0.0052698
-0.00596811
0.0035628
-0.00187926
0.00293846
0.00782967
-0.00217143
-0.00556915
0.00595941
-0.0064908
0.000526379
-0.00128969
0.000763313
0.00567728
-0.000743166
0.00370244
-0.00359942
-0.00127191
0.00641604
-0.00487482
0.000191691
0.00106552
-0.000255974
-0.000809549
0.000818111
-0.000323899
-0.00520773
0.00252521
0.00400912
0.00131521
0.00182206
-9.18558e-05
-0.00173009
-0.00147626
0.00419335
-0.00229941
0.00495033
-0.00264527
0.00102036
0.00418585
-0.00516733
0.00155028
-0.00678877
0.00285305
0.0072812
-0.00162674
-0.0056498
-0.000597179
-0.000640266
0.00123745
0.0039514
0.000738932
-0.00468658
-0.000366151
-0.00181147
-0.00597822
-0.00195821
-0.00251685
-0.00211757
0.00142988
-0.000627387
-0.000312183
0.00260008
-0.00303357
0.000433411
0.003315
-0.00459126
0.00511557
-0.00244829
0.00142033
0.00210756
-0.000675924
-0.00140228
0.000627907
0.00228061
0.00131303
0.00363838
0.00177891
0.00336501
-0.000629021
0.0041249
0.000177691
-8.32639e-05
-9.10392e-05
-0.00199524
-0.00509986
-0.00123897
-0.000925503
-0.00336488
0.00510679
0.00214954
-0.0021133
-0.00076633
0.00147662
-0.00287996
0.00558624
-0.00270175
-0.00145262
-0.00140653
-0.00200693
-0.000414482
0.000252831
0.00198178
-0.000141908
-0.00111078
0.00606171
-0.00171434
0.00210443
0.00122393
-0.00332773
0.00650183
-0.00437826
-0.00207893
0.00342512
0.000749664
-0.00408602
0.00686587
-0.00457052
-0.000140956
5.49918e-05
-0.000701793
-0.00171863
0.00364886
0.00462445
-0.00100101
0.00192689
-0.00240536
0.000941204
0.00146426
0.000675465
0.00421831
-0.00647493
0.00472196
0.00176215
-0.00449482
0.00253668
-0.0048432
0.0036767
-0.00101818
-0.00265674
0.00542599
0.00176069
-0.00716758
-0.0021373
-0.00293747
0.00508221
-0.00152024
0.00221242
-0.00167113
-0.000666937
0.00320545
-0.00525408
-0.000629868
0.00151115
-0.000881282
0.00143258
-0.00156701
0.000250112
-0.00231508
0.00164318
-0.00391329
-0.00184624
-0.00477058
-0.00162158
6.56723e-05
0.000115763
0.0021198
0.00116303
-0.00318667
-0.000282677
0.00284711
-0.00256404
0.00472558
-0.0067563
0.00191449
-0.00127694
-0.00303772
0.00429192
-0.00572741
0.00160948
-0.00529146
-0.00208126
-0.00396875
0.00692282
-0.00215313
-0.00049457
-0.00284878
-0.00431147
0.00643786
-0.0021243
0.00255926
-0.00121438
-0.00134468
0.00377188
0.00101236
-0.00478169
-0.000131588
0.000344135
0.00667004
-0.00143415
-0.00512025
0.00266152
-0.00612083
0.00346702
-0.00741834
0.00696593
0.00240882
-0.00554208
0.00314787
0.00146451
0.000311877
0.00364254
0.00207239
0.00447183
0.0050978
-0.00660318
0.00398224
-0.00189692
-0.00208548
0.00408063
-0.00057471
-0.000707155
-0.000762691
-0.000790834
-0.00109097
0.00188189
-0.00666521
0.000163021
-0.00136815
-0.000909999
0.00227836
0.000619499
0.000581703
-0.0002581
0.0012961
-0.00100879
-0.00769827
0.00515105
0.00262036
0.00197788
-0.00266756
0.000694867
0.00580994
-0.00336923
-0.00242945
-0.000215749
0.0017562
0.000102751
9.12716e-05
-0.00435246
0.0031565
0.00210485
0.00137452
-9.67226e-05
0.000675821
-0.000554755
-0.00119462
-0.00307403
0.000823942
0.00562327
-0.00162079
-0.00253782
0.00416301
-0.0020798
0.000851691
0.00678122
-0.0028188
-0.00496196
0.00166752
-0.00107403
0.00201498
0.00144743
0.00124031
-0.0026869
0.0014468
0.00679839
-0.00161282
-0.000455941
-0.0016097
-0.00168132
0.0032914
0.0015651
-0.00285861
0.00129402
-0.000165459
0.000956673
-0.000763383
-0.000179925
0.00290378
0.000804043
0.00408155
-0.000135394
0.000157001
-0.005445
-0.00217582
0.00057278
0.000666368
-0.00123915
0.00295605
-0.00144141
0.00509511
-0.00341321
0.00524204
0.00127194
-0.00401985
0.00542671
-0.00121133
-2.7473e-05
4.74895e-05
0.00295299
-0.00758754
0.00471055
-0.0046652
-0.0017979
0.00186421
-0.00742259
0.00556504
-4.73547e-05
-5.88108e-05
0.00218038
-0.00379708
-0.0023811
0.00761373
-0.000632778
-0.000662356
0.00129513
0.000423866
-9.66267e-05
-0.00189233
-0.00381516
0.00570897
-9.89138e-05
0.000106708
-0.0002588
0.00217493
-0.00191604
-0.00207779
0.00454483
-0.00246481
0.00181187
-0.001011
-0.000800839
0.000116396
0.00251789
0.00250278
-0.000397812
0.00340672
-0.00161298
-0.0014128
0.000714555
-0.000687431
0.00445906
-0.00212177
0.00101285
7.96345e-05
0.00225019
0.00185576
-0.00410424
-0.000621402
0.000549482
0.0064068
-0.00261674
0.00384336
-0.0012203
-0.00736337
0.000313382
0.00712526
0.000593295
-0.00135307
0.000759778
0.00573085
-0.00171085
-0.00401022
-0.00660461
0.00275562
0.0023084
-0.00115977
-0.00114839
-0.00733928
0.0023127
0.0025239
-0.00452695