/*--------------------------------*- C++ -*----------------------------------*\
| =========                 |                                                 |
| \\      /  F ield         | OpenFOAM: The Open Source CFD Toolbox           |
|  \\    /   O peration     | Version:  v2012                                 |
|   \\  /    A nd           | Website:  www.openfoam.com                      |
|    \\/     M anipulation  |                                                 |
\*---------------------------------------------------------------------------*/
FoamFile
{
    version     2.0;
    format      ascii;
    class       volScalarField;
    location    "650";
    object      omega;
}
// * * * * * * * * * * * * * * * * * * * * * * * * * * * * * * * * * * * * * //

dimensions      [0 0 -1 0 0 0 0];


internalField   nonuniform List<scalar> 
13851
(
0.0234045
1.63622
0.0844475
0.0230144
0.0825746
0.211904
0.0216416
0.0449798
0.020631
0.109959
0.276381
1.85154
2.50186
3.76991
0.0214191
0.0367066
0.0252203
0.03097
2.49832
0.0206322
0.0228439
0.081381
0.0213756
0.0222042
0.0215672
0.0465129
0.0239622
9.18788
0.0232233
0.0251494
0.494111
0.0255557
0.0802651
0.438559
0.0222119
0.223319
1.33999
2.30164
0.132393
0.446565
0.0212729
0.0197699
3.28979
0.287679
0.289139
2.68957
0.284702
0.652163
0.0241448
0.348248
0.0728026
0.196116
3.19999
0.0215758
0.0224869
0.019776
0.0212629
1.64625
0.0248289
0.0216901
2.29908
2.80735
0.0606416
0.105845
0.243278
0.0251488
2.62294
0.284999
0.0310423
0.0306164
7.02645
3.10196
1.58091
0.0216856
0.0210068
0.0208501
0.075334
5.17326
0.0428371
6.4379
0.0219296
0.191768
0.0213752
2.99395
0.0634814
1.89042
0.0910119
1.99553
0.0252716
0.0210687
0.224746
0.0343689
0.285006
0.0270446
0.0250318
0.0220061
0.0859538
2.39579
0.390208
0.0220292
2.50622
0.045276
0.0222438
0.023549
0.0211662
0.193519
0.0511388
0.0196621
3.30587
0.172247
0.0222403
0.0211675
0.0312152
0.0227066
0.0222331
0.898647
2.3432
0.0196922
0.0228258
0.0228627
3.39074
0.0234643
2.45901
0.570829
0.551879
0.0254876
0.557561
0.0441043
0.0226353
0.426582
0.0212547
0.0207229
5.76658
0.0213755
0.890607
0.020902
0.019703
3.08068
2.4703
4.83842
2.32704
0.0224655
0.0232262
0.0201649
0.0236446
0.285774
0.0271494
0.482977
0.0216278
0.289728
0.0780772
0.0224455
3.9774
0.0213282
0.0229886
0.0235478
0.0210331
0.023635
0.195697
0.0707371
0.0197886
0.0265032
1.70001
0.0207059
0.0306823
0.0199544
0.0277167
0.0315021
0.0225125
3.55441
6.31218
0.0203698
0.0210483
5.17897
0.0206967
0.639922
0.0427366
0.0232704
2.50803
0.0196771
0.0264518
3.15731
0.0213717
0.0891205
0.0197789
0.0216267
0.0254541
0.0218352
0.102298
0.111744
0.283902
2.39655
0.0214991
0.0314143
2.70768
0.0228599
0.0228661
0.418314
0.0229866
0.0208876
0.0259627
3.08346
0.0237293
0.021258
0.0854138
0.0213846
2.49966
0.0252283
2.7704
0.0196936
2.5992
0.0221286
0.421158
0.0196273
0.0200719
0.275711
0.0610532
2.41405
0.0213596
2.67117
0.0254085
0.021972
2.33751
0.184805
2.60988
0.021703
0.0284961
0.0213638
1.76275
0.0196254
0.0452158
0.141533
0.0203635
0.0213857
0.0612508
0.0511436
2.58218
0.350749
0.0201451
0.0212714
0.583116
0.399809
0.0203905
0.0946398
0.0208319
2.48126
0.0469006
0.434611
0.0237114
0.0269719
0.0285704
0.392458
0.022031
0.0238131
0.0471598
0.279896
0.107799
3.08994
20.8437
0.02145
0.0200904
0.0291169
0.877042
0.0206287
2.40825
0.0228532
0.0219857
0.026626
2.37212
0.0296917
0.028531
0.0229947
0.827918
0.0407807
0.0359075
0.0207345
0.198574
0.238358
2.94567
0.27523
0.0204439
0.0196475
0.021099
0.0448376
0.804518
0.653495
0.0207499
0.0214512
0.842707
0.183929
1.64906
0.0243904
0.0217031
0.0332506
0.173343
2.43683
0.0297077
1.89496
0.0207574
2.48446
0.0262355
0.0251685
2.88761
0.0216636
0.23628
2.35442
0.0207275
0.038645
0.0272353
0.0240846
2.45996
0.0299976
0.0219733
2.30152
0.0198225
0.0272026
0.0310398
3.05958
0.147916
0.0213589
0.0471555
0.0213916
8.75092
0.0304206
0.0213868
0.0213121
0.141668
0.0279952
0.0228608
0.0214534
0.0216385
0.0219246
0.282264
6.7496
3.24507
0.0344846
3.00451
2.30777
0.0213775
0.0321616
1.74596
0.041999
0.0653596
0.147229
2.47052
0.0257137
0.757804
2.40138
0.0214337
0.242686
0.258002
2.19143
0.0228426
0.0689031
1.72314
0.0210736
0.753242
0.0213064
0.0214034
0.0206497
0.019661
0.0209702
2.43197
0.354882
0.0213886
0.0373129
0.0198839
1.84515
0.0463813
0.654456
3.32629
0.0214012
0.066056
0.0275558
0.654478
0.0211873
0.019709
0.0290997
3.16283
0.0213912
2.50604
0.0398369
0.164216
4.12498
0.304032
0.30434
0.0268864
0.0207887
0.0220432
0.0326509
0.0464455
4.27259
0.0314179
2.68958
2.37273
0.0198967
0.0214575
3.45327
4.80631
0.12977
2.31169
0.0296125
0.0280785
0.0220671
2.28386
0.0204777
0.0356631
0.026337
0.0215827
0.0212505
0.0206981
0.0199414
0.100662
0.0620703
5.15556
0.0311798
0.0502464
0.0357424
0.388472
0.0282921
2.18861
0.0248793
0.2758
0.01969
0.0206783
0.0219027
2.28915
0.415723
0.168847
0.0340295
7.028
0.429019
0.0715502
0.0231693
0.063504
0.0211687
0.384315
0.0211322
2.16713
0.384803
0.0733578
2.99082
0.0233844
0.182935
0.392482
6.09017
0.0196469
0.0292048
0.0439614
0.0307372
0.0204409
0.0219461
0.0714877
0.167125
0.0371146
1.63784
0.0217101
0.0213844
2.0479
0.0319786
0.0196303
1.88783
0.0207777
0.0233417
0.0205236
0.0498904
0.0231155
0.0196721
0.0231237
2.3059
0.0213885
0.0331468
0.0208233
0.0293653
0.273908
0.0228749
0.0212262
0.0227378
0.022715
0.652876
0.0219514
0.131691
0.0213711
0.0217988
2.42763
3.18667
0.0214127
0.0311833
0.0284455
0.403876
2.64226
0.0213878
0.339105
0.0212107
0.0834237
0.0216266
1.7879
0.0198096
3.67097
0.107222
0.0197845
0.0310973
2.75632
0.0472904
0.285554
0.0227354
0.62536
0.0229047
0.0206373
0.0207423
0.021584
3.7136
0.0613838
0.175513
2.61787
0.0582552
0.0198367
2.31868
0.41686
0.0265159
0.0267338
0.419801
0.606302
2.69072
0.0224074
1.81866
2.96163
2.81383
0.0311779
0.0331473
0.593066
0.209507
0.238171
0.416647
2.24762
0.0238951
2.28783
3.00463
0.0197003
0.211113
0.0642435
4.08056
0.0239868
0.0212384
0.0210099
0.021248
0.0986452
0.0469734
1.97997
1.56964
0.0207604
2.26706
2.99499
0.646014
0.414407
0.0325341
0.0196007
0.0206522
0.0338454
2.31509
0.0230625
0.0984044
0.234187
0.019762
0.0430266
0.666234
2.1786
0.148001
3.49002
3.04569
0.0212295
0.021595
1.37208
2.362
0.160236
0.0311696
0.0676155
0.019676
0.0210995
2.20041
0.0197362
0.0238789
0.0196616
0.0207962
2.98538
0.098588
0.0312541
0.0197249
2.57053
0.407873
0.0207853
0.0210271
0.0207113
0.0219645
2.91455
0.426844
0.426419
2.67251
0.606714
0.0299083
5.59714
3.03633
0.0261879
0.0316145
0.0195934
0.0298437
0.0371349
2.32522
0.724472
0.0964169
0.0288809
0.0205918
0.0370788
0.022924
0.282502
0.07226
0.0213606
0.0357712
0.0204436
0.0262952
0.19447
0.0216614
0.0211485
0.0462539
0.0216551
0.0849579
2.2745
0.18038
0.0381605
0.170471
0.0205806
0.105158
0.0294791
2.53824
0.0220628
0.0220466
3.27602
0.0241954
4.45998
2.41392
2.13567
1.79697
0.0204785
3.15748
0.0206949
0.020791
0.0198029
0.0208045
0.0233089
0.0322499
0.0467358
0.0197036
2.37711
0.111347
2.41634
0.0209494
0.0199597
0.0209057
1.76892
2.69773
0.0489197
0.0265219
0.0207342
0.021875
0.0215653
0.0210958
2.53682
2.63775
0.0216305
0.0196923
0.0215959
0.0210847
2.1029
1.99833
0.0375512
2.50341
0.636114
0.0211331
0.170232
4.79914
0.0325589
1.86745
0.0219177
0.0295195
0.0478101
0.0298108
0.412361
0.0213991
0.581476
0.0212301
0.0284336
2.7082
0.0209179
0.0232954
0.0644606
0.020646
0.025976
0.877069
5.19512
0.0690999
2.41053
0.301806
0.0196443
0.020928
2.30178
0.212014
0.0551463
2.41512
0.0205119
0.0240813
0.0197158
0.602484
2.86942
0.0274453
0.0217499
0.277316
0.0242115
0.0208647
3.53804
0.375278
2.53096
0.0198063
0.0216167
5.21423
3.87792
0.199558
0.022594
3.05336
0.0213885
0.277774
1.51825
0.0808789
0.025901
2.25419
0.0277793
0.0236786
1.19011
0.0219389
0.0236869
0.0233187
0.0205599
2.81652
0.0333747
0.1487
0.0304995
0.268335
0.0206151
0.900495
0.022683
0.0277662
0.0200519
0.0211019
0.0213714
2.35033
0.0209886
0.0197441
0.291486
0.021614
3.8749
0.0213654
0.0230122
0.0687016
2.09953
0.357903
0.0209014
0.693747
2.44309
0.0219955
2.44392
0.028183
0.0205326
0.0335664
3.26421
0.580489
0.0274258
0.0208758
0.0196756
0.397044
0.0971556
0.0736629
0.0290413
0.0387331
0.0221132
0.0227816
0.0969358
0.409054
0.0983031
0.767997
0.0215965
0.0855993
0.0892394
3.16017
0.0272239
2.67015
2.59804
0.0216273
4.39054
0.0947757
2.51023
5.27423
2.3135
0.121327
0.0445204
0.0205507
0.0316175
1.6428
3.95783
0.0212803
0.0218607
0.0645643
0.132248
0.0197982
3.0446
0.0204945
0.0214069
2.19409
5.1524
0.303663
0.0207806
0.0214173
3.09463
2.30043
0.147789
0.0240575
2.89007
2.19037
2.55186
0.0501524
0.0365157
0.0219849
0.0216134
1.58979
0.045813
5.63029
0.0305721
0.0309435
3.66185
2.57519
3.374
0.0214661
0.0287649
0.0207724
0.0387702
0.0231629
1.84699
0.0242509
2.61084
0.0197904
0.0666071
0.0211144
2.13793
0.0303957
0.0284619
2.47199
0.0389641
0.0530641
0.0223175
0.0660529
0.665594
0.0739407
0.0240368
6.25308
0.0205081
6.00544
0.284918
0.0217059
2.55997
2.85129
3.51491
0.103452
0.0299081
0.0212335
2.61335
0.0243275
0.887189
2.75722
0.0209508
0.0226415
2.30428
0.404244
3.24896
0.0216016
0.0208611
1.44156
2.737
0.147552
0.0268112
0.0233239
0.264377
1.92207
0.0942178
0.01975
0.0444758
0.0206626
0.0232469
0.293217
0.0221204
2.22091
0.383557
0.0214174
0.0234891
0.02126
0.0234073
5.81324
2.88486
0.0286427
2.61481
0.0211146
0.028936
0.0211928
0.0206793
0.0216073
0.0213989
3.77244
0.0214146
0.0476315
0.021472
0.0275801
0.295685
3.27505
0.0227758
1.41604
0.0779011
2.71222
0.0338255
0.0329281
7.50758
0.0262075
0.0480477
1.81693
0.952253
2.86529
0.0387428
0.285599
0.0219432
0.0372784
0.0468118
3.09372
0.0213685
4.72764
0.0209098
0.0209672
4.01717
0.0231257
2.48605
0.0262455
0.020758
0.0399221
0.0207726
0.0214226
0.0212769
0.0218692
0.451575
0.0209671
2.45014
1.84189
0.0763024
4.67531
0.0215946
0.0227183
0.0363488
0.0212555
0.0207494
0.0835041
0.0219214
0.0208356
0.0218105
0.0216667
3.80973
2.55845
0.0698217
2.32003
2.41325
0.0210929
0.263145
0.0286378
0.0209537
0.336903
0.419446
0.407199
0.0210652
0.285664
0.401485
1.77076
0.0203958
2.45808
0.0324505
0.023963
0.0215257
0.0205181
2.27775
0.0898679
0.649779
0.0208579
0.0213312
0.407033
0.021728
2.13588
0.192728
1.84782
2.55105
0.393466
0.0218184
0.0213345
0.0655549
0.0297459
0.0235789
2.1138
0.0402805
0.0219555
0.0232492
2.4582
0.020849
3.49984
2.68201
0.892956
2.3139
0.0222418
0.0202165
0.0216261
0.27708
0.382592
0.0203946
0.0232386
0.0208245
0.0801914
0.0198686
0.0207861
0.0220129
0.0309424
2.81524
0.050088
0.0354819
0.0214254
0.0486847
2.3497
0.0222073
4.86119
2.26198
0.085372
0.0199801
0.0398887
0.0212326
0.0214267
0.0215671
5.04393
0.148974
0.411554
0.0236224
0.276173
0.0212915
0.0212589
0.0216407
0.18497
0.443606
0.0197614
0.0306177
0.0646437
3.24456
0.0228527
1.73772
0.0233042
2.52555
0.0880838
2.56217
0.0993408
0.0833493
2.26234
2.86156
0.379692
3.1342
0.0212863
1.25909
0.0198548
0.0241498
0.0254002
0.0216795
2.8964
0.030655
0.0271655
0.171054
1.22992
0.623578
0.0213748
0.0235975
0.0281195
0.020312
0.0332365
1.41601
0.589039
0.96963
0.0209402
0.0262382
0.024465
0.633212
2.30145
0.0649481
0.0201911
0.0218576
1.87093
0.0460434
2.19803
2.31904
0.0358969
0.0199628
2.87468
0.0321699
0.0402232
0.0278555
2.49625
0.287256
0.159142
0.108587
0.0223448
0.0279948
0.0214158
2.79704
0.0568919
3.03724
0.281553
0.0253003
0.204562
0.0228647
2.54476
2.56006
0.0209007
0.4527
2.61546
0.656539
3.18326
0.0216514
0.0213601
5.51566
2.32883
1.81021
0.0228366
0.0215962
0.0214094
3.70391
0.188143
0.0218525
0.51682
0.103148
2.54039
2.83947
0.65851
0.0214418
3.05131
0.024527
0.0212094
0.200657
2.77842
0.0216492
0.0209053
4.18789
2.48923
0.0241747
0.0209257
4.68576
0.0208409
0.0313831
0.0209401
0.666721
0.0213478
0.0485794
1.07655
2.30312
0.0226058
7.30921
0.380574
2.40081
2.53335
2.49673
0.03436
0.0211561
2.253
0.0229105
0.0213913
0.0202868
0.423812
0.0211168
0.682617
0.0209238
0.0238955
4.91366
0.0711871
2.19053
0.0231588
0.0688481
0.0207329
0.0300929
3.02236
2.48778
0.0208607
0.0642041
0.350826
0.021583
0.0205278
2.64326
0.0318116
0.0394838
0.17576
4.65091
0.451994
3.01278
3.19004
0.0355544
0.274384
0.394066
1.88437
0.0640804
0.0202289
0.160129
0.0211413
0.0211158
2.84976
2.66867
0.0236078
6.13776
0.0951159
3.81181
0.661819
0.349406
0.021203
0.10069
0.284246
0.0213311
0.0227013
2.37173
2.40004
1.74239
2.62617
0.0461711
2.58427
2.43928
0.0296547
0.0217653
0.0210406
0.179754
0.0209934
2.32842
0.0224155
0.0221333
0.0238737
2.36773
3.03585
2.03572
0.0217598
2.91159
0.0266381
0.033349
0.0209784
0.0208949
1.64461
0.0290152
3.02623
1.55027
0.446688
0.13936
0.0214803
0.0477927
0.0216548
0.181213
0.0230577
0.0230113
0.0216841
0.0223773
0.223951
0.0221738
0.0366653
0.0214457
0.0378316
2.1908
5.72189
0.0210641
0.0435267
0.0214837
0.0723881
0.0406331
2.308
1.30142
0.0292985
0.023622
0.0224392
0.0477071
0.0212218
0.269631
0.0214364
0.0209189
0.0226609
2.30506
0.0267512
0.0245735
0.0298388
0.0214552
0.062921
2.30812
2.38322
0.0327304
0.0214234
0.185663
0.020295
0.021096
2.36231
2.58398
0.0212861
0.034783
0.127227
2.95
0.0218798
0.0221143
2.66944
0.0227517
0.26184
2.59727
3.24646
0.0213578
0.0571114
0.0212577
2.56883
0.160464
0.0413246
0.147591
2.07081
0.0224167
3.08056
2.17974
0.0215228
2.34423
0.0853314
0.0224505
1.65318
0.0215812
0.0213162
0.0204699
1.01721
0.0427775
0.219737
0.0231068
0.0222639
0.0281839
0.381087
2.05583
2.9861
0.328407
0.0220419
0.163023
0.672554
1.97952
0.0854452
0.126397
0.0210052
0.029676
0.0205335
0.412412
0.0438288
0.0212496
2.86458
1.42118
0.0325802
0.0289029
0.0196933
0.021379
0.0623878
0.0360352
0.376011
0.0642194
0.0698448
0.073446
0.153673
2.13211
0.0720123
2.86555
0.0210834
0.0208581
1.12325
2.13337
2.26247
0.368037
0.0225452
4.48315
0.326165
0.0209645
0.0256116
0.0208267
0.0373335
0.0694017
0.102076
2.31897
1.71315
0.0227336
2.51538
6.32595
0.0214362
0.102262
2.47298
1.97485
0.0237649
0.0768272
0.0196173
0.0232034
0.0213456
0.0266485
2.76671
2.72169
1.93931
3.76915
0.0225758
0.0394168
0.0657417
0.0210567
0.0218841
0.0205266
2.34601
0.0209595
2.74827
0.0433928
0.0552868
2.02561
0.393597
4.68881
2.92055
0.0365922
0.0199179
0.024834
2.84694
2.70635
0.0247709
0.0207953
0.0206015
0.0636237
0.0314804
0.191432
2.32404
0.0225139
0.0204865
0.147577
0.17528
6.24085
0.991525
0.0209363
0.0721494
0.0214709
2.84304
0.0200702
2.5434
0.0218332
0.0224533
0.033934
0.0219387
0.0685558
0.0288666
0.0425856
1.69134
2.36476
0.0252798
0.0301008
0.0211973
2.8817
1.8188
0.0218277
0.0200764
0.347866
0.019668
3.53811
0.0214128
0.0384299
0.0743178
0.595582
0.0457473
0.0224435
0.0216109
0.0699887
2.3998
0.0211558
0.314343
6.41198
0.979485
1.48474
0.0389028
3.50833
0.0248072
2.08419
0.0212914
0.298066
0.295085
2.78405
1.92319
2.19896
0.0233135
0.0367819
0.0208991
8.00955
0.348533
2.34134
1.66011
0.0288739
2.18984
0.78529
0.0407845
0.0231087
0.0216521
3.07004
0.0268961
0.069297
0.0232856
0.0216386
0.0206798
0.0216097
2.3601
0.63923
0.0333269
1.90531
2.49598
0.0224902
0.0213322
0.0205234
0.0284807
2.55768
0.392405
0.0271312
0.0245805
0.298957
0.0853743
0.0403631
4.2404
0.0323195
2.68255
0.0283495
0.0322903
0.0213039
0.0232216
0.0691254
0.405287
0.262319
2.79553
0.0726522
2.72698
0.025589
0.0245947
0.0215674
1.88843
2.16419
0.603885
0.471305
0.0235683
0.0214338
0.0210676
0.0214336
0.0205425
2.6536
0.0305329
2.98389
0.0364818
2.40584
2.12663
2.46244
0.031754
0.0253554
1.78411
0.0469599
1.76115
2.96259
0.0206212
0.042845
0.0271503
5.19882
5.83179
0.0401665
0.504045
0.435311
0.0229796
0.0593652
0.0241039
2.26438
0.371525
0.0241491
0.0216108
0.259071
1.75808
0.187481
0.559662
0.162134
0.0292836
0.0212052
1.92505
2.62991
0.0903331
0.028892
2.32932
3.42499
0.0209189
0.0214352
0.02438
2.35842
2.30704
0.0213602
4.13574
0.0220892
0.0210604
0.0216503
3.99884
2.11841
0.150866
2.33755
0.0233071
0.0229843
0.0209714
5.99283
0.0223067
2.67829
0.023759
1.63731
0.021846
0.021141
0.165339
2.79068
0.338582
0.0401993
2.30668
0.0201591
0.021559
0.0214465
0.0434547
0.0612312
0.0611124
0.042751
2.58524
0.0243231
0.288518
0.130203
2.11642
0.021638
3.17666
2.65944
0.0245044
0.51673
0.0640989
2.16315
0.0216649
0.0833481
0.0211602
1.67361
7.29593
0.0947973
2.54831
0.0240612
0.0450469
0.0227262
3.80985
0.0199864
0.0208114
0.569469
0.10904
2.14603
2.99056
0.0625978
0.0292129
0.020456
0.685532
0.0327532
0.0214095
0.191417
0.0211516
0.0391522
0.0214262
0.981715
0.0226131
0.286064
0.221032
0.0334168
0.108242
0.0634915
2.89115
0.0212567
1.06537
1.61215
0.0207188
0.0213907
0.023324
0.0218762
0.0391462
0.0212333
0.0554993
0.0793429
0.279784
0.0764283
0.0214384
0.0219585
0.0204729
2.9592
0.021581
0.0212508
2.6097
0.0236803
1.6956
2.57227
0.0962462
0.0240698
0.0359746
0.0229503
0.0220811
0.0574854
0.0201413
0.0238179
1.85004
2.56759
2.72035
0.0229001
2.02564
0.369345
0.0218872
0.278585
2.38418
0.0213744
0.0234648
0.021326
3.1053
2.06919
0.435557
0.0201164
0.024324
0.0236413
0.0216162
0.191865
0.0215516
0.0391818
2.36359
2.77664
0.0205951
0.0237765
0.023316
2.25829
0.0196776
1.99168
1.72593
0.051602
0.94727
3.28489
2.23866
0.0228093
0.403922
0.0664764
0.0223807
0.020441
0.0208803
2.52311
1.98459
2.06601
0.021337
2.71112
0.0216508
1.97427
0.0205718
0.023781
0.0223466
0.0205849
2.13523
0.022417
3.85217
3.53912
1.96523
0.0483091
0.0484587
2.05119
2.37655
0.0218551
5.09881
0.0204726
0.0197125
0.0213175
0.107607
0.0208817
1.71016
0.031634
0.0667549
0.0443888
1.71807
1.83403
0.112338
0.0205604
0.0664837
0.08806
2.12645
0.0216928
0.0199232
0.0230315
2.30073
0.0215855
0.105797
1.68729
0.0375183
0.0605604
0.0216912
0.23859
0.0218424
2.56754
0.0202541
2.73946
0.0291211
0.0215599
1.69504
1.89945
0.0201983
0.06486
0.0254387
2.21083
0.162817
0.195554
0.0549357
0.0218742
0.06749
2.53573
0.0213858
0.114701
0.0235532
0.0803898
0.0302114
1.71591
2.89155
0.0215804
3.20295
0.0225199
0.0407635
2.30373
1.71566
0.0425073
2.83527
2.12129
0.0216218
0.127252
0.157587
0.0289915
0.0223858
2.36931
0.0202292
4.63467
0.0379768
0.271603
0.0213645
0.0340682
3.06857
0.0411804
2.49212
0.0221253
0.0241015
0.099426
2.31856
0.0253096
2.39515
0.821477
1.75378
0.0216439
2.3108
2.26007
2.19025
0.0214162
0.0239456
0.0212877
2.46139
0.03065
0.316042
0.147602
0.0219234
0.0202808
0.021388
2.18956
3.08236
2.54342
1.88341
0.0209594
2.75288
2.44294
0.171238
1.91245
2.87526
0.0405881
5.6425
0.0233194
0.0250425
3.11657
2.35867
0.0279688
6.03597
0.0216737
0.0214306
2.44062
2.95599
3.14188
8.49259
0.0343298
0.0219139
0.0231818
2.65071
1.86899
0.0211709
0.0426802
0.516637
0.0214587
0.0215885
2.4144
2.36345
0.0235307
0.0214495
0.0223071
0.0228933
0.246099
0.0218634
0.021218
0.0273013
0.208454
2.47479
0.704927
2.58421
0.0215979
0.0260617
2.53525
2.42401
0.0313378
0.11223
0.0213446
0.0338623
0.022456
0.0324851
0.0722837
0.0211649
0.691664
0.0380309
0.0208269
0.0255874
2.26702
1.51871
3.51818
0.0214738
0.0246736
2.51614
0.592293
0.0239502
0.0215875
0.0214929
0.274745
0.0216099
0.0218924
0.0285866
0.0213759
2.56222
0.574362
0.0218737
0.0248153
0.0200548
0.0215591
1.46107
0.0717445
0.0695891
1.83037
0.0649946
0.0219795
0.0213247
0.0215598
0.021252
0.0218313
0.0237292
0.0912199
2.30675
0.0229676
0.147063
3.42103
0.0427669
0.0212054
0.0208272
0.0233579
2.54062
0.0212096
2.13613
1.84234
0.0527069
0.0227754
6.16411
0.0201811
0.0403696
0.0204263
0.0202173
0.021618
0.020755
0.040359
2.42168
0.104763
0.0388494
1.88485
0.164653
0.451393
0.0297776
2.98873
1.83612
0.144277
2.45162
2.43392
0.13941
0.18593
0.0218843
0.0209028
1.6375
0.0210125
0.0248344
2.42157
0.247856
1.86767
0.885146
0.0207902
0.0248217
0.021558
0.0385393
0.0205287
0.030003
2.22506
2.32136
0.978808
0.0215537
0.0202673
0.0727552
6.1419
2.58501
0.402468
2.77775
0.0208808
2.80601
3.21041
0.273608
0.02472
0.0215882
0.0200806
0.0237542
0.0213955
0.0212812
0.0245644
2.62906
0.07868
3.01846
0.0485629
2.24845
0.22356
0.0212833
0.0210768
0.022243
0.0205676
0.0218499
0.0820536
2.32056
0.639896
2.65342
0.0232733
1.91677
1.84749
2.41834
2.87789
0.0215135
0.0207542
0.0487149
0.0215443
0.0202141
0.513635
2.57336
2.9846
0.0214411
0.021583
0.0249862
0.0405895
2.2569
0.0204873
0.0244112
2.64831
0.0205908
0.422175
0.040301
2.34721
0.0218911
1.99723
5.60199
0.0416644
2.61711
0.141909
3.03027
0.0201183
0.0265585
0.0208758
0.0320608
3.63304
0.0215105
1.79363
0.0220053
0.0215947
0.021458
2.54638
0.0400511
0.144727
0.434155
0.020627
0.0537681
1.66866
0.0650938
0.0209734
0.023062
0.0215335
0.0539994
0.0214894
0.0208729
2.68695
2.8903
2.45095
1.71416
2.54018
1.85474
0.0705076
2.80666
0.449225
0.0200436
0.0210623
0.0196815
0.0216845
2.6852
2.59387
0.0203566
2.02985
2.60024
0.0277723
0.0228881
0.0247944
2.40066
2.3964
2.65524
1.26241
2.60026
0.0196821
2.5347
0.126411
0.107109
3.15578
0.0213577
0.161245
1.72133
0.0376442
4.56601
0.0218637
0.0305192
1.79021
2.55984
0.0769537
0.0333028
5.13328
0.160242
2.61366
2.46179
2.54782
0.140315
2.29945
0.0216066
0.0249015
0.0424928
3.99627
0.220791
3.14335
0.0221402
0.312632
0.0895741
0.0222864
2.4581
0.0213746
0.173067
3.83352
0.021382
2.17426
2.5494
2.52268
2.31737
2.25595
0.0624348
0.0211586
2.72199
0.0218782
0.0210827
0.0379794
0.0241355
2.71182
0.024152
0.024875
0.0245883
0.0207523
2.28541
0.0233906
0.147815
0.107692
0.0206042
3.4124
0.125828
0.0231282
1.9263
2.62429
0.0213636
0.136888
0.0222028
2.57155
0.0746985
0.0204254
0.139235
0.0234679
2.80545
2.63131
0.0727715
1.05324
0.0260821
0.0214995
2.38618
0.0238462
0.0213062
2.94959
0.0373575
0.0208823
0.0208183
0.788411
0.0232478
3.79577
2.56036
0.228426
2.10485
0.0491581
0.0643852
0.0212179
2.8462
6.11658
2.1905
0.0214216
0.0202496
0.0727645
0.0337914
0.395382
0.0213317
0.501352
0.0214079
0.21464
0.0218594
0.253692
2.12675
0.139378
3.21325
1.50055
2.3572
2.68812
0.0197173
2.82132
2.87783
4.39218
0.0211162
2.26667
5.79371
2.01878
0.140341
2.43952
0.665861
2.93957
0.0418633
2.59159
0.0205688
0.0427779
0.0389943
0.0213374
0.06923
2.12329
0.0439842
1.97617
2.02808
0.0211606
0.0208567
0.0310861
0.0213455
0.977707
0.0205077
0.0208161
3.0806
0.486265
0.0381702
0.126766
0.0224169
0.102936
1.9695
2.67381
1.8302
0.0249624
2.649
0.022733
0.0205462
0.0231448
3.01884
0.365626
2.50112
0.795175
0.0224413
0.0208716
0.0213459
0.0218969
0.0259915
2.40767
2.84514
0.0297948
2.48485
3.82547
0.0582556
3.74387
0.0214595
0.0295405
0.0928596
0.0214339
0.0709125
0.0270714
0.0241363
2.79145
2.69278
0.0205071
0.0364384
0.0305113
0.0752437
2.2403
2.08031
2.81927
0.0216405
0.0876743
2.62508
0.0859765
0.139519
0.0684417
2.36889
3.251
2.77661
0.0204793
2.30644
0.0203291
0.0229891
0.0213693
0.0600181
3.13178
6.41888
0.491515
2.23518
0.0559273
0.0201547
0.0208122
0.0215875
0.0230213
0.0399441
2.91262
2.66599
0.080565
0.397583
0.0216836
0.0564674
0.020662
2.53724
0.0856077
0.0215637
1.67125
0.125782
1.93357
3.36533
0.982577
2.85033
0.025817
2.21358
2.54857
3.02625
0.353533
0.022617
0.0570665
0.0215406
2.33777
2.25398
0.0394102
2.44454
2.56304
2.56688
0.0690128
0.925991
0.0491217
0.0208917
0.147628
0.070847
0.024376
0.0578995
0.0315836
0.0348096
1.75209
0.220105
0.0237858
0.0331117
0.034518
0.0369791
0.0232129
1.99812
0.146306
0.0950341
5.96837
0.021432
2.81901
0.0214755
0.0247433
0.0242206
2.77097
0.0448853
2.69119
3.37231
0.061246
0.053179
0.147667
2.27625
0.172165
1.03988
0.0240647
0.0417789
0.021027
2.78693
0.449902
0.0239737
0.0216646
0.04406
0.0255915
0.0253424
0.0450857
0.0363263
0.0216827
0.0401386
3.33811
3.29194
0.153598
0.0377082
0.0198383
2.82748
0.0303829
0.0620532
0.324085
0.0396277
1.94139
0.0202456
0.0244507
0.0244941
0.0391093
0.0212041
2.94642
0.0712536
2.2801
0.0449376
2.50903
0.434174
0.0252984
2.3455
0.0638704
0.578944
3.19588
0.0522017
0.0243554
0.0372624
0.0690591
0.0241796
2.67796
3.51649
0.300265
0.0208981
0.366611
2.0835
1.69876
0.0212775
0.0405072
0.0211613
0.033358
2.28184
0.0312317
0.0298873
0.0208918
0.0208636
1.84628
2.97564
0.0213161
1.89424
0.93913
0.020169
0.0388042
2.83249
0.169201
0.126364
0.0214048
0.0275534
0.14361
0.0218301
0.0210611
2.59828
0.0295492
2.90929
0.0881813
0.025982
3.19468
0.465442
1.89655
0.0209285
0.41059
0.0283023
0.0266679
1.47798
0.0368725
0.0215905
0.100568
0.0246538
0.0251877
0.0201126
1.71827
0.0213955
0.0800934
2.2723
0.126214
0.0207843
2.3443
0.0291333
2.43805
2.05685
3.2517
0.214819
2.58232
0.0206971
0.0778656
0.0250852
0.0211201
0.400137
2.11506
0.0245792
0.165039
0.0342903
0.0723167
3.27879
0.0255878
0.052508
0.664783
2.55799
2.3742
0.235864
0.104434
0.0207685
0.0835907
0.0423873
0.668849
1.94322
2.51742
2.07606
2.50501
0.0208375
0.927425
0.0214165
0.0224413
0.0216407
0.454985
2.08474
0.0999952
0.0210298
7.11485
0.0276173
3.54132
0.0211498
0.0738525
0.0287027
0.069707
0.0433615
0.127272
0.0229764
2.26788
0.275869
0.0209496
2.25529
0.53135
0.0585773
0.0227587
0.0306635
0.0216182
0.0210898
0.0623498
0.0291282
1.86884
1.70098
0.0904983
0.215301
0.02155
1.79819
0.0618728
2.06102
0.0345239
0.0355337
0.401365
0.0364795
0.039624
0.0858477
4.25433
0.0242964
0.0216838
2.33365
0.0299406
0.0240661
0.0280563
0.0336389
0.0206332
0.0286077
2.54125
0.0215268
0.042451
2.47124
0.140683
0.0709373
0.696431
1.47526
2.63243
4.93937
1.74743
0.058861
0.275823
0.0231877
0.0244288
0.0215592
0.0209823
1.66295
0.444419
0.0372517
0.0207451
0.232819
0.110854
0.0216765
0.137686
0.0504811
0.0212211
0.0236081
1.55422
0.0259531
0.0342622
0.0432865
0.021671
0.112047
0.0612406
0.0327281
1.88977
0.0917997
1.83342
0.244084
2.80463
0.0239749
3.22637
2.06769
0.190446
0.0742231
2.5737
0.076504
0.0285312
0.0449136
0.0644473
0.0233817
0.0892814
0.021073
0.0212671
0.0202535
0.0249341
2.90083
0.0204762
0.127602
0.0248224
0.0236312
0.0254292
2.46613
0.0233355
0.0685693
0.0216089
0.0255707
0.0262272
0.0207942
0.142605
0.0236047
0.0206906
0.0223203
0.0326593
0.021269
1.95549
0.0279513
2.10754
0.284104
2.37357
0.0559057
0.0920862
0.0377585
0.0366483
0.0426708
0.0246411
1.7706
2.4362
0.734781
0.079401
0.0295436
0.0218915
2.11759
0.0488518
2.69781
0.0216823
0.904032
0.184891
1.77885
1.67682
0.0200846
0.0214304
0.0204026
0.027484
2.45408
0.0590671
0.878936
0.0277895
0.0275109
0.0209999
0.0219081
0.0402634
0.0237692
0.0250372
0.0212186
2.57817
0.0869588
3.06584
0.0247329
0.734617
0.0208137
0.0202833
0.127753
0.022068
0.0246134
0.0611974
0.0250464
0.0786416
0.0214373
0.0369043
0.0215798
0.025669
2.70178
0.0212237
0.0237424
0.0230679
0.024907
0.683349
0.0218363
0.0447315
1.45954
0.0257866
0.0314191
0.0225497
0.023339
0.0218949
1.32839
0.0215187
0.028295
5.72031
0.020848
0.0319497
0.0448823
0.0724372
1.96669
0.0200619
0.0242953
0.0223977
0.0285934
0.146166
0.640353
3.34278
0.0202844
0.0302572
0.0942544
0.0236351
2.34669
0.0199751
0.0216179
1.92218
0.0366752
0.0239137
0.0200397
0.183948
0.299714
1.79124
0.0216134
1.18343
0.0200145
0.0205317
0.0238785
0.0804636
3.18751
0.0215826
0.0209403
0.126592
0.0215308
0.0232964
2.26142
5.56702
0.0215044
0.0204878
0.0221881
0.0359506
2.55689
2.73424
0.0219898
0.127549
0.0213645
0.0213883
2.14079
0.0238377
0.0218811
0.0288502
2.50645
0.170269
0.0234311
0.0221905
2.42716
0.0374657
0.02253
0.270622
2.64387
0.0215397
0.0218575
0.0231189
0.0213757
0.0215373
0.0208083
0.0202108
0.0399471
0.02302
0.0525159
0.0428895
1.93946
0.640513
0.0348998
0.020044
0.0213319
0.0222383
0.0231768
0.0371153
0.0311654
2.86932
0.0245492
0.0900206
0.025492
2.53522
1.67244
0.0281407
0.022893
0.479336
0.0243281
0.0270955
0.0214092
0.0224064
0.0211045
0.278173
0.050185
0.0560536
0.127754
0.0239465
0.025669
0.0222953
2.77091
1.9225
0.393805
0.0297411
0.120899
0.105976
2.30108
0.0220262
1.6001
0.06145
0.0214199
0.0218272
1.9675
0.0215856
0.0228493
0.0232208
1.07169
0.0215426
0.0218257
0.0257713
4.04389
0.021022
0.0522774
1.04341
0.0239084
0.0215469
0.021132
0.0214442
0.021818
0.021813
0.0369816
0.0227086
0.0215434
0.0218331
0.0218819
0.0304473
0.0214143
0.274849
0.0215829
0.0217934
0.0414356
0.0355481
0.0280223
1.83073
1.02042
2.80809
0.0343254
0.0207861
0.0448098
2.16383
0.0201852
0.421148
0.0235936
1.0183
0.0239837
0.0394321
0.0218016
0.0214021
0.140628
0.360918
1.94807
0.27848
2.6602
0.0217903
0.0208618
2.00436
0.0201544
0.0215446
2.66372
0.0210042
2.40955
0.0214653
1.78009
0.127931
0.0239423
0.426496
0.0402193
0.0781383
0.153032
0.181845
0.201555
2.29659
0.228968
2.58515
0.0216245
1.98442
0.0215343
0.0213311
0.0209639
0.0221224
0.987434
0.0225991
3.02619
0.0215829
0.0213881
0.0215842
0.122025
0.0217987
0.0211712
0.068092
0.0254033
0.02769
0.0247494
0.0297892
2.53636
2.53924
0.149807
0.764375
0.118899
0.0224699
2.7878
0.0214588
0.0294193
0.0787028
2.40433
0.0501018
2.84758
0.0215389
0.648967
2.29238
0.199851
2.6522
0.282073
0.0234145
0.0213448
0.0251027
0.0215256
0.0213221
2.41398
2.48126
0.0210541
2.16366
0.0214304
0.127976
0.0209861
2.1519
0.0276966
0.0234513
0.0213324
0.119497
1.53801
0.379147
0.0206053
0.0206909
0.0279549
0.0220121
0.0222551
0.165387
0.119816
0.0424559
2.28212
0.0507057
0.0218312
0.0346491
0.0812368
0.0220112
2.34754
0.0542508
0.420315
0.0236102
0.0241848
0.0202846
0.0196783
0.0213883
0.0288383
0.0207974
1.79218
0.0462202
0.0974291
0.0212865
0.0484125
0.0214956
0.359955
0.0473587
0.0554424
2.47692
0.0280206
0.0213598
0.026379
0.021871
2.38693
0.0864217
0.0487093
0.0548249
2.89059
1.90445
0.137537
0.0500332
0.021423
0.0237175
0.0232013
0.167384
0.129872
0.0281019
0.0216451
0.478098
2.23299
0.0218966
0.0232455
0.0537339
0.0226951
0.0209907
0.0464732
0.0213683
0.0219442
0.0209373
0.0234835
0.0221727
0.0536139
1.69642
0.0214715
0.543173
0.119755
0.128316
0.0209286
0.0215801
0.0330307
0.0252568
0.0214445
0.0816361
0.0213782
0.0619777
0.0216877
0.047984
2.10003
0.0563053
0.0228595
0.0641832
1.48139
0.685525
0.0214444
0.0324704
3.10305
0.0213321
0.0220942
0.0807962
5.32936
3.12072
0.0237857
0.0213694
0.119953
0.0212232
0.0223318
0.0298733
0.0219143
2.93813
0.0218571
0.15072
0.0215127
0.021473
0.0583677
0.0213794
0.0215943
0.0302621
0.667412
0.0205608
0.0360515
0.0219202
0.0212712
0.0216982
0.029156
0.0276189
0.0770309
0.0238429
0.0218518
0.021895
0.0349351
0.0224796
2.60592
0.0221531
0.128881
0.0310675
0.0229376
0.0280781
0.982725
0.0215593
0.0221345
0.0199954
0.0851888
0.414066
0.0216834
0.041499
0.0209567
0.0402496
0.021454
0.277921
1.46203
0.0244265
0.0251664
0.0287968
0.0265956
0.022121
0.0207515
0.0428216
0.0214188
0.0221976
0.0213138
0.0215498
0.0213376
0.0209114
0.0430865
0.0218118
0.020835
0.0428557
0.332241
0.021383