/*--------------------------------*- C++ -*----------------------------------*\
| =========                 |                                                 |
| \\      /  F ield         | OpenFOAM: The Open Source CFD Toolbox           |
|  \\    /   O peration     | Version:  v2012                                 |
|   \\  /    A nd           | Website:  www.openfoam.com                      |
|    \\/     M anipulation  |                                                 |
\*---------------------------------------------------------------------------*/
FoamFile
{
    version     2.0;
    format      ascii;
    class       surfaceScalarField;
    location    "650";
    object      phi;
}
// * * * * * * * * * * * * * * * * * * * * * * * * * * * * * * * * * * * * * //

dimensions      [0 3 -1 0 0 0 0];
oriented        oriented;


internalField   nonuniform List<scalar> 
20537
(
-0.367933
0.50511
-0.137224
-0.107201
-0.107637
0.214838
-0.19455
0.179821
0.0147275
-0.00693171
-0.307669
0.314558
-0.159447
0.164104
-0.0046584
0.247408
-0.450409
0.202983
0.20608
0.196398
-0.402571
0.248683
-0.0846497
-0.164037
-0.453668
-0.0980442
0.551591
-0.0283924
0.215495
-0.187105
0.546262
-0.228978
-0.317292
0.0583382
-0.0721623
0.0138238
0.0641444
0.0150687
-0.0792132
-0.0221154
0.0316222
-0.00950686
0.681427
-0.547666
-0.134172
0.282665
-0.289294
0.00661934
-0.0551882
0.286949
-0.231781
0.43581
-0.245015
-0.190813
-0.116435
0.114236
0.0021995
0.0863444
-0.540138
0.351644
-0.358647
-0.0748369
-0.119716
-0.364278
0.585139
-0.220912
-0.692964
0.098939
0.593831
-0.550063
0.185734
0.226457
0.022222
-0.0945695
-0.175821
0.270376
-0.00319045
-0.0015698
0.0163346
-0.384316
0.231606
-0.352135
0.120497
0.446384
-0.198991
0.228366
-0.283571
-0.0143768
0.194196
0.424035
-0.47318
0.0491398
-0.603971
-0.0891953
0.118473
-0.122876
0.00440252
-0.0145271
0.0935751
-0.0790481
0.182957
-0.116178
-0.0667801
0.15213
-0.180525
0.0128232
0.411206
0.0522295
0.333394
-0.385731
0.489075
-0.663592
0.174498
-0.000781055
-0.000931828
0.00171288
0.288497
-0.550829
0.262328
0.550563
-0.262069
0.00503749
-0.00867743
0.00363994
-0.593702
0.265699
0.328002
0.109362
-0.435326
0.325958
0.167901
-0.262483
0.258723
0.273183
-0.531934
0.171046
-0.0303229
-0.140724
0.144019
-0.0650982
-0.0789214
5.95813e-05
-0.00227418
0.0022146
-0.740198
0.378242
0.361563
0.65992
-0.538954
-0.121341
0.662468
-0.17341
0.654306
-0.296966
-0.357449
-0.000234522
-0.00354861
0.00378313
-0.178626
0.410195
0.278453
0.103933
-0.38247
0.0365416
0.146415
0.0258771
-0.0370589
0.0111817
-0.388709
0.284513
0.104182
-0.142367
0.138569
0.003798
-0.149373
0.325837
-0.176469
-0.446074
0.154433
0.291606
0.0596919
-0.074219
-0.63165
0.294626
-0.218964
0.212736
0.00622351
0.196641
0.239148
0.0192418
-0.0231877
0.00394589
0.0791131
-0.0799386
0.000825505
0.0881181
-0.19532
-0.295526
-0.44513
0.28457
-0.588585
0.303683
-0.529539
0.431343
0.0981187
-0.14021
0.0653719
-0.0230954
0.00140541
0.02169
0.00788681
-0.183256
0.175367
0.0239695
-0.00245218
-0.180095
0.435672
-0.255642
0.539508
-0.0244586
-0.515049
-0.430996
-0.0581264
0.488927
0.00774159
-0.00659425
-0.00114734
-0.310182
-0.0785407
0.074776
-0.0164382
0.482532
-0.190177
-0.292376
0.0250799
0.155657
-0.180738
-0.257375
0.325789
-0.0684291
-0.358264
-0.247749
0.605957
0.0319223
0.0865508
-0.0923556
-0.324497
0.41682
-0.242489
-0.0837879
0.249333
-0.165553
-0.0192282
-0.238164
0.564737
-0.552657
-0.0121899
0.0198209
-0.179269
0.00752499
0.0257945
-0.0333195
-0.226441
0.485139
-0.0244724
0.589078
-0.00726107
0.00565822
0.00160287
0.171658
-0.178789
0.00712925
0.08241
-0.383698
0.301234
0.271436
-0.0233864
-0.457005
-0.0991688
0.556164
-0.5123
0.368985
0.143294
-0.177407
0.183748
-0.00634259
0.523632
-0.68152
0.157875
0.0695288
0.00264485
-0.178336
-0.272091
-0.542572
-0.0192348
0.561671
0.272768
-0.63109
0.316528
-0.408916
-0.653373
0.653187
-0.0727568
-0.469961
0.383808
-0.133921
-0.0396325
0.0471575
0.0724896
-0.471869
0.399361
-0.576672
0.577937
-0.00153328
-0.194832
0.566003
-0.371492
-0.00133679
0.000555732
0.233058
0.0383616
0.0718959
-0.00775167
0.187939
0.443178
-0.333825
-0.784173
0.35711
0.427038
0.124181
0.318988
0.168444
-0.190795
0.0223493
0.0431801
0.308407
0.175157
-0.0766117
-0.0985455
0.42878
-0.37668
0.559023
-0.165567
-0.39364
0.0242785
-0.00503666
-0.555526
0.124323
0.257273
-0.575183
0.608673
-0.0337063
0.5553
-0.482834
-0.0726554
0.0789526
-0.0062973
-0.018657
0.0215196
-0.00286262
-0.0755134
-0.0346795
0.110193
-0.000746085
-0.00651498
0.378183
0.28133
0.166878
-0.559809
0.392871
0.719728
-0.384012
-0.335738
0.415687
-0.0899854
-0.32573
-0.22778
-0.323052
-0.430492
0.601563
-0.171077
0.032309
0.142847
-0.262831
0.468793
0.219697
0.330863
0.0068886
0.12257
-0.424344
0.619286
-0.19528
-0.0172382
-0.00487714
0.310918
0.343293
0.365275
-0.213515
-0.151782
0.301771
0.113885
-0.499643
0.194212
0.305312
0.229532
0.133203
-0.362768
0.00491295
0.139106
0.0141861
0.156859
-0.350825
-0.246881
0.597703
-0.0695712
0.222497
-0.152933
0.00265618
-0.0028907
0.167557
0.3913
0.269307
-0.371254
0.101924
0.64122
-0.229984
-0.41126
-0.667817
0.237322
-0.00353343
-0.215435
-0.311102
0.354222
0.0263446
0.00236598
-0.0287106
6.50293e-05
-0.0231604
0.242663
-0.546744
0.303974
-0.180651
-0.319106
0.00583568
-0.081349
0.568545
-0.40116
-0.146876
-0.288455
0.184217
-0.0157754
0.532764
-0.506917
-0.025895
-0.0237949
-0.0926408
-0.519027
0.666304
-0.147287
-0.274829
0.0625025
0.212313
0.00645767
-0.136938
-0.359558
0.496298
0.0470939
-0.166811
-0.362417
-0.235362
0.597776
-0.449243
0.615684
-0.166518
-0.1807
-0.265407
0.357512
-0.552676
-0.169896
0.171252
-0.00135695
0.223799
0.019037
-0.242839
-0.299075
0.00285155
-0.00279197
0.264481
-0.54048
0.275956
0.183649
-0.215553
0.0319001
0.0370974
-0.0112204
0.402163
-0.18464
-0.217551
0.538175
-0.371356
-0.172931
0.478674
-0.305751
0.45667
0.0760346
-0.426493
-0.103125
-0.316376
-0.467823
0.0053006
0.00915463
-0.0144553
-0.583011
0.0840915
0.498626
-0.544208
0.152578
0.391457
-0.0167591
0.217595
-0.200839
-0.495941
0.358812
-0.00377504
0.00221894
0.00155598
0.142824
0.147782
-0.290623
0.0312108
-0.00348591
-0.0277249
0.127605
0.442102
-0.569713
-0.0092861
-0.0351435
0.0444296
-0.348072
0.430417
-0.521332
0.200446
0.320885
0.451583
-0.634557
0.182965
-0.720452
0.431377
0.289052
0.58726
-0.265195
-0.322074
-0.147545
0.38956
-0.242031
0.000310953
0.00472653
-0.113532
-0.410337
0.523572
0.0313632
-0.000152446
0.265228
-0.122417
0.188064
-0.368216
7.73597e-05
0.0379842
-0.0380616
-0.0569125
0.145307
-0.0883946
0.0045478
0.0327559
-0.0373037
-0.599788
0.580981
0.0187337
-0.0393435
-0.198491
0.237827
-0.525908
0.0688901
-0.000204075
-0.00219576
0.00239983
0.672072
-0.220495
0.223133
0.00331941
0.335772
-0.301191
-0.0345853
-0.284309
0.526867
0.537205
-0.159162
0.140291
0.0188704
-0.0595241
-0.248015
0.307528
0.00515623
-0.0089314
0.122161
-0.271537
0.28043
0.439274
-0.454941
-0.0894219
0.172843
0.273525
0.294227
-0.46895
0.17471
0.571167
0.0565136
-0.627682
-0.195333
0.178571
0.456419
-0.555599
0.0308746
0.00177623
-0.0326508
0.199314
-0.0276578
0.495529
-0.423769
-0.0717608
-0.398922
0.29121
0.107683
-0.229432
-0.12009
0.349503
0.660243
-0.38672
-0.273559
0.46963
-0.175409
-0.240741
-0.113626
0.354321
-0.0971793
-0.0193118
-0.126833
0.146144
0.403482
-0.18005
-0.22344
0.256153
-0.0323593
0.000743527
0.0782091
0.0053495
-0.014869
0.00951948
-0.196276
-0.344628
0.540669
-0.440044
-0.441254
0.341015
0.100216
0.318877
-0.0587193
-0.260163
-0.634291
0.211842
0.422415
-0.0964133
0.0842045
0.0122087
0.184301
0.217837
-0.368232
0.127444
-0.208009
0.124213
0.0415633
-0.041486
0.406127
0.143784
-0.549933
0.296458
0.363748
0.18061
0.437942
-0.103229
-0.334722
0.184562
-0.176678
0.256334
0.0263208
-0.537786
0.372044
0.630334
-0.0908253
0.626633
-0.195718
-0.430928
0.0041218
0.0349674
-0.0390892
0.149519
0.396737
0.0249779
0.546191
0.0797094
-0.557127
0.477409
-0.502669
0.598964
-0.0963022
-0.14573
0.126416
-0.0462194
0.365092
0.360241
-0.221778
-0.138465
0.0378364
0.452224
-0.490169
-0.382338
0.501515
-0.119487
0.080189
0.357744
-0.690297
0.328014
0.362286
0.14427
-0.111962
0.153655
-0.332311
-0.111362
0.389744
-0.215895
0.22203
-0.0061385
-0.412867
-0.277428
-0.0220197
-0.0743939
0.0675701
0.173134
-0.240717
0.0555389
0.0192367
0.433923
-0.573361
0.139285
0.0344462
-0.00357163
0.113281
-0.182858
0.0868101
0.200121
-0.00846864
-0.0329317
0.0414003
-0.134811
0.364144
-0.229402
-0.332635
-0.179687
-0.0374562
0.0316589
0.00579726
0.483553
-0.44584
-0.00539265
-0.151762
0.157153
0.232339
0.0169835
-0.219174
0.372796
-0.0223031
0.003646
0.220787
-0.153228
0.390813
-0.360875
-0.029986
0.0398928
-0.0472392
0.00734633
0.651227
-0.257599
-0.393648
0.0516473
-0.281093
0.744656
-0.38404
-0.360639
-0.0456154
0.0497372
0.126696
-0.0250707
-0.101625
-0.513085
0.399277
-0.188365
0.0374299
0.150933
-0.258844
0.492199
-0.233651
0.0244365
-0.019087
0.00168216
0.451116
-0.452836
-0.455285
0.644172
-0.188948
0.613023
-0.255503
-0.357603
0.116497
0.0101985
0.204933
-0.244285
-0.321241
0.067227
0.253991
0.112371
-0.368136
0.233247
0.325252
0.0655044
0.353573
-0.582557
0.023131
-0.022615
-0.0276264
-0.00418981
0.0318162
0.0848713
-0.377205
0.292313
0.0438373
-0.052306
0.00540565
-0.054942
0.0495361
0.385528
-0.0273748
0.211019
0.133916
0.0103537
0.566665
-0.350186
-0.216506
0.0405426
0.216986
-0.257538
-0.0107766
0.119222
-0.108445
0.0922157
-0.241637
0.52257
-0.280975
0.230999
0.0687142
-0.299714
-0.00282917
-0.0325452
0.0353744
0.0418562
-0.589938
0.620261
-0.0483748
-0.571901
0.130219
0.490027
0.136278
-0.0303457
-0.105933
-0.103345
-0.217919
-0.205346
0.245882
0.00264163
-0.00284571
-0.49645
0.315689
-0.118499
0.349497
0.364197
0.248743
-0.503652
0.244477
-0.112812
0.569221
-0.0544378
0.578058
-0.189339
0.556153
-0.366951
0.0359151
-0.0387442
0.720259
-0.31805
-0.402216
0.311779
-0.444954
0.133066
0.183385
-0.18878
-0.654479
0.359507
0.294951
0.0708584
-0.0153199
-0.303036
0.237371
0.0656571
0.200933
-0.314605
0.0309992
-0.00465463
-0.125533
0.437207
-0.239744
0.0921927
-0.0392631
-0.193613
0.232866
-0.192558
0.393489
0.0943635
-0.451029
0.35653
0.159131
-0.631019
0.206384
0.217071
-0.423488
-0.00707064
0.00528009
0.00179056
0.641713
-0.0189608
-0.00334237
0.242137
-0.107792
0.0970147
-0.0224461
0.0248121
-0.614159
0.109685
0.504463
-0.122954
-0.491217
-0.0169657
-0.336083
0.353013
0.635174
-0.158019
-0.477314
0.518406
-0.533818
0.0149966
0.383661
-0.298812
-0.0787719
-0.109594
0.0241829
0.00743934
-0.253655
0.222187
0.0314637
-0.0409979
0.0455457
0.0376512
-0.00513318
-0.032518
-0.39744
-0.257054
0.228862
-0.425329
0.00337276
0.00680448
-0.0244968
0.0176923
0.0761256
0.259642
-0.0407616
0.00112908
0.449584
-0.243232
-0.221119
0.181848
0.50192
-0.535826
0.0338035
-0.0643155
0.0697209
-0.435331
0.518084
-0.0828545
-0.107499
-0.181802
0.365829
-0.382835
-0.451241
0.337639
0.113498
0.0534845
0.0984069
0.385033
0.318551
0.32265
-0.131114
-0.0112543
0.2351
0.0633277
-0.298436
-0.0109283
-0.0113457
0.0222739
0.341116
0.0151233
-0.356263
-0.139978
-0.429663
0.00843985
0.421199
0.268659
0.200966
-0.333377
0.096383
0.236978
0.136933
-0.000656081
0.290296
-0.203505
0.21048
0.37677
0.122323
0.432954
0.49781
-0.399521
0.093564
-0.542884
0.119491
-0.128524
0.00903288
0.164465
-0.48475
0.320285
0.126562
-0.129938
0.00337556
-0.0390503
-0.390634
0.0135082
-0.200402
-0.272783
0.149875
0.141295
-0.0695032
-0.0896601
0.448148
-0.353926
0.439317
-0.170671
0.659602
-0.499522
-0.1601
-0.122792
0.0150671
0.107724
-0.2661
0.434321
-0.168231
0.00199367
0.18745
-0.189446
-0.0230628
-0.00227294
0.0253357
0.587759
-0.131147
-0.658003
0.21107
0.446923
-0.497945
0.23184
0.00894345
-0.0136333
0.305987
-0.668409
-0.226587
0.230036
-0.00345549
0.000958068
0.541765
-0.135654
-0.486809
0.544942
-0.058237
-0.405822
0.111663
0.294104
0.133095
0.0403717
-0.10547
0.0777347
-0.356119
0.278365
0.101944
-0.0788637
-0.0230805
-0.546918
-0.0529453
-0.565168
0.309588
0.00048151
-0.00130511
0.000823599
-0.0772495
0.346538
-0.457148
0.536854
0.144467
-0.119388
0.464313
0.17071
0.197402
-0.159748
-0.375711
0.535342
0.113802
0.187824
-0.301637
-0.130539
-0.240053
0.370554
-0.429529
0.456048
0.131655
-0.0069128
0.0468056
0.377174
-0.435463
0.208763
-0.194038
-0.0147281
-0.0810525
-0.494342
0.252057
-0.386378
0.134295
-0.641073
0.211621
0.429443
0.564402
-0.56459
0.519991
-0.163098
-0.356991
-0.554619
0.134312
0.518704
-0.122234
0.402255
-0.280029
0.254887
0.116104
-0.371047
0.302833
-0.49303
0.122687
-0.482445
-0.166928
0.66875
-0.0120042
0.00639967
0.00560457
0.00114649
-0.0242092
0.148147
0.318163
-0.466472
0.410626
-0.158597
-0.285782
-0.0476107
-0.197684
-0.271278
0.00320732
0.00453427
-0.369753
-0.19548
0.277497
0.442755
-0.0827749
-0.368385
-0.165273
0.0133136
0.151958
-0.32957
-0.0726565
0.402137
-0.00239955
-0.000723492
0.00312304
-0.133143
0.544814
-0.411691
-0.00271926
0.000445073
-0.227856
0.241812
-0.0139597
-0.21316
-0.45045
0.210264
0.200334
0.0345197
-0.0131936
-0.0213261
0.217616
0.00551405
-0.463538
0.474725
-0.0111883
-0.520962
-0.0559655
0.318552
-0.484744
0.166189
-0.57603
0.0366824
-0.171843
0.580378
-0.408692
-0.581722
0.19133
0.390234
-0.452009
0.334437
0.117463
0.0287997
-0.0219953
-0.163927
0.1524
0.0115255
0.133392
-0.0303989
-0.102993
0.0848737
-0.0735977
-0.0112761
0.0793623
0.325683
-0.676511
-0.0653606
-0.00529294
0.0706534
0.473427
-0.308967
-0.064051
-0.210791
-0.00222911
0.224719
-0.457565
0.259866
-0.277364
0.465304
-0.0548207
0.0455345
-0.521196
-0.00936979
0.530144
-0.0044065
0.00200695
-0.00547012
0.00853264
-0.00323205
-0.150482
-0.1578
0.368044
0.489545
-0.263423
-0.485558
-0.172456
0.287435
0.116038
0.289382
-0.462314
-0.104456
0.0227529
0.0817025
0.354416
-0.124917
-0.0743243
-0.0301322
0.0593039
0.00313349
-0.0624374
-0.537173
0.404008
0.141063
-0.149742
0.00219676
-0.0212904
0.0190936
0.381217
-0.0900342
0.330788
0.17729
-0.508301
-0.35178
0.545865
0.333393
0.125745
-0.459249
-0.00449098
-0.165406
0.244834
0.0573669
-0.302212
-0.0193061
0.174962
0.0826755
0.0192689
-0.438215
0.598272
-0.160228
-0.000454345
0.000935854
0.000522718
-0.0250352
0.0245125
0.51003
-0.373756
-0.136292
0.196325
0.277099
0.205226
0.578651
-0.477538
-0.101115
0.399651
0.460322
0.0606894
-0.521011
-0.0697322
0.00437141
-0.224903
0.0113716
0.124186
-0.113712
-0.0104741
-0.0745846
0.100581
-0.0259964
0.211286
0.451165
-0.362927
0.437521
-0.0746152
-0.161061
0.438641
-0.277582
-0.17531
0.144964
-0.149825
0.142912
0.00691242
0.00387227
0.0249275
0.00308054
0.0603012
-0.0633818
0.345882
-0.114615
-0.33673
-0.10817
0.129505
-0.0213352
0.000194977
-0.101705
0.00152447
0.10018
-0.112053
-0.141605
0.374795
-0.0902941
-0.573478
0.311137
0.200648
-0.511984
-0.100039
0.693737
-0.482467
0.282854
0.0983343
0.181494
0.4848
-0.16392
-0.395197
0.558904
0.0672611
-0.00795726
0.158389
-0.457044
0.417966
0.29461
0.399113
-0.01517
-0.00379078
0.312611
0.166057
0.634274
-0.187515
-0.446909
-0.415765
0.565054
-0.149371
-0.0965741
-0.537748
0.559819
-0.00100484
-0.00606579
0.381376
0.114152
-0.139958
0.00572908
0.00280355
0.502497
-0.183947
-0.0582193
-0.15974
0.217955
-0.0166486
0.0188454
-0.0223622
0.0188763
0.1501
-0.391771
0.0131999
0.199532
0.0607335
0.517917
0.428257
-0.241124
0.0206503
0.220466
0.00276007
-0.0525396
0.0497795
-0.245197
0.313908
0.0109908
0.113195
-0.275874
0.0305543
0.245311
0.0845662
-0.480078
0.395388
-0.317957
0.243326
0.0746207
0.134773
-0.52292
0.388096
-0.00408766
-0.459451
0.142012
-0.140196
-0.00181711
-0.368983
0.491457
-0.298205
-0.0790209
0.0244651
-0.511383
0.140211
-0.226456
0.0862377
0.125761
0.000800626
0.414419
-0.310579
0.110776
0.337241
-0.115302
-0.187741
0.0699458
-0.320702
0.250688
0.159612
0.12293
-0.00343991
0.0525471
-0.10946
-0.305315
0.0727277
0.232577
0.000403842
-0.102109
0.472711
-0.388268
0.082385
-0.339515
0.257123
-0.385069
0.00636927
-0.0006402
0.140569
-0.488713
-0.634185
0.29125
0.342801
0.00627666
0.0632521
-0.203244
0.421681
-0.218472
-0.0034671
-0.018979
0.0327007
-0.0332283
0.000527667
-0.00435953
0.00202072
0.00233881
-0.000935802
0.145402
0.0830452
-0.518473
-0.073662
-0.457515
0.482491
0.337934
-0.538874
0.200737
0.122916
0.421878
0.379909
-0.544039
-0.603575
0.269509
0.334065
-0.0316169
0.37271
-0.226388
0.340178
0.70146
-0.406863
-0.0552461
-0.00141541
0.0566612
0.0282933
0.00372737
-0.0589737
0.16551
-0.546695
0.381061
0.137836
-0.557719
0.41987
0.627037
-0.145364
-0.481714
0.0156035
0.118312
-0.0100658
-0.0255559
0.0356216
0.11789
-0.149903
0.0320113
-0.0678055
0.127734
-0.585252
-0.452676
-0.083238
-0.1368
-0.454934
0.591558
-0.25103
0.425934
-0.174982
0.0682206
-0.080222
0.0120013
0.0611724
-0.091103
0.0299306
-0.248882
0.318753
0.240174
0.461272
-0.143684
-0.308432
-0.472949
0.221802
0.127164
-0.135533
0.00836791
-0.000409986
0.00343719
-0.00302721
-0.0616319
0.035066
-0.0462548
0.0111888
-0.305733
-0.179014
0.460394
-0.349756
0.128605
0.00478669
0.0142235
-0.202699
-0.0276813
-0.0444814
0.124259
0.311348
-0.244633
0.149433
-0.0315436
0.356113
0.489826
-0.347974
0.169862
0.388003
0.271579
0.136424
0.0465467
0.0263547
-0.0286276
0.156436
-0.546147
0.389637
0.389147
-0.117413
-0.271769
0.279972
0.0948094
-0.570156
0.398161
0.290853
-0.270339
0.350516
-0.0566539
0.00325764
0.0533963
0.00743745
0.134573
0.093722
-0.00951783
-0.394709
0.504384
-0.453072
0.563439
-0.398059
-0.00221406
-0.00979017
-0.0966524
0.0220676
-0.298961
0.239427
-0.00297797
0.0356786
0.168818
-0.587961
0.419047
-0.00945739
-0.487034
0.496093
-0.414873
0.345054
0.157441
0.0785789
-0.00391981
-0.0746592
0.342164
-0.116378
-0.225806
-0.419394
0.10332
0.316014
-0.225457
-0.415626
0.0801659
0.21466
-0.294843
0.410103
0.216899
0.00120802
-0.00257912
0.0013711
0.0895509
-0.269606
0.0280351
-0.0287041
0.000668951
0.438047
0.0960756
-0.345036
-0.000470233
0.0195419
-0.0190717
-0.00395209
9.71527e-05
0.00385494
-0.0616425
0.0935647
-0.37602
0.510739
0.0553031
-0.0576447
0.00234166
-0.196919
0.605405
-0.394933
-0.0326577
0.185408
-0.152751
0.193179
-0.191187
-0.139877
0.3253
-0.185442
-0.00404859
0.570365
-0.228539
-0.341855
-0.587474
0.362471
0.224959
-0.000250181
0.0938252
-0.148783
-0.485536
-0.583316
-0.363074
0.232501
0.122849
0.349749
0.00194005
-0.000732034
-0.213415
0.049641
0.163767
-0.109453
-0.351749
-0.105317
0.428422
-0.624152
-0.393858
-0.329067
0.568603
-0.0609633
-0.507872
0.234244
-0.406364
0.529263
-0.130614
-0.349814
0.480294
-0.619513
0.246374
0.37286
-0.0050789
0.0367378
-0.541251
-0.519062
0.0166077
0.502434
-0.105802
0.443595
-0.337807
-0.443782
0.329068
0.0213501
-0.0218204
-0.54606
0.00345854
0.542575
0.521975
-0.373894
-0.148135
0.0898959
0.0330908
-0.122987
-0.00700056
0.134164
-0.214588
0.563946
-0.349366
0.18974
0.340615
-0.530527
0.2534
-0.356642
-0.00529408
0.04036
-0.113392
-0.04373
-0.000110811
0.0438408
0.189981
-0.0535614
-0.502137
0.342278
0.559709
-0.407046
-0.152688
-1.50743e-05
-0.000916754
-0.214338
0.46772
0.0994826
-0.332289
0.23279
-0.575184
-0.441358
-0.301627
-0.183146
-0.00319701
0.186341
-0.128705
0.261018
-0.132318
-0.193117
0.366232
0.41865
0.141033
-0.50227
-0.0192966
0.381085
0.140838
0.083668
0.0315063
-0.485126
0.303636
0.181485
0.0187873
0.152463
-0.29142
-0.295551
0.391534
-0.146486
0.0973902
-0.135196
0.0378051
-0.0025971
0.121637
0.220505
0.0028599
-0.015403
0.012543
0.0110663
0.0738073
-0.362112
-0.0817817
-0.00330462
-0.0113101
0.0146147
0.325688
-0.24331
-0.0415297
0.0429932
-0.00146364
-0.0102617
-0.0463921
-0.0160326
-0.0236162
0.0396487
0.593971
-0.225952
-0.36803
-0.23113
-0.00583924
0.236964
-0.379407
0.290951
0.0926876
-0.00412518
0.000576568
-0.00989888
-0.534331
0.147019
0.387225
0.587606
-0.596229
0.00852999
-0.0155916
0.155881
-0.321127
0.549827
-0.228701
-0.414779
0.562036
-0.147276
-0.00244156
-0.00117148
0.00361305
-0.396773
0.565495
0.338779
-0.455295
0.116394
0.000634941
0.0198365
-0.000352978
-0.0194835
0.0261751
-0.420894
0.481444
-0.143673
-0.503766
-0.000204703
-0.00123991
-0.00271218
0.0833657
-0.0151452
0.113487
-0.111963
-0.192987
-0.302216
0.495155
-0.0370215
0.0328317
-0.0748047
-0.100506
-0.0478379
0.037772
0.0201881
0.163558
0.171635
0.0117466
-0.0806155
0.0759499
-0.405614
-0.0916843
0.179804
-0.0146118
0.148954
-0.134343
-0.0136232
-0.0108736
0.498086
-0.0485318
0.0067472
0.00344108
-0.00417311
0.000193625
-0.0417234
0.0203929
-0.0198702
0.315846
0.12161
-0.437588
0.204945
-0.029712
-0.175238
0.474255
0.159871
-0.061998
0.271827
0.117285
0.0621505
-0.0242094
-0.0379412
0.658917
-0.659487
-0.0247739
-0.005655
0.0304289
-0.539037
0.124239
0.122715
-0.0328197
-0.428553
0.536938
-0.10852
-0.115733
-0.0622177
0.177949
-0.170276
0.191821
0.0131198
-0.0204604
0.0457476
-0.163936
0.118186
-0.149019
0.336833
-0.484697
0.618853
0.0532109
0.213363
0.363316
-0.0566366
-0.306688
-0.37365
0.115323
0.258297
-0.000590022
0.0204265
-0.370346
0.582154
0.678809
-0.401318
-0.442115
0.159257
0.282788
-0.042599
0.00745548
0.00744879
-0.0010342
0.0223843
0.424849
0.16911
0.0934731
0.404576
0.0143237
0.392936
-0.407356
-0.000636491
0.0286716
0.124405
0.534
0.1551
-0.28902
-0.000536384
-0.0261035
0.0266399
0.382761
-0.562625
0.179732
0.0936572
0.191268
-0.284949
-0.0919834
0.511794
-0.199191
-0.00275609
-0.0272512
0.0300073
-0.266527
0.396182
-0.129739
0.217311
-0.514369
0.0497987
0.10024
-0.150038
0.00449157
0.0268717
0.129185
0.0137261
0.324505
-0.22504
0.484794
-0.157769
-0.327075
0.254313
0.42449
0.00202635
0.000769889
-0.00279624
-0.0254299
0.122819
-0.531314
0.0122311
0.0346339
-0.265769
-0.566856
0.393684
0.173011
0.413503
-0.329614
-0.427597
0.557799
0.0213991
-0.474164
0.110597
-0.098677
-0.0119205
0.188473
0.25083
0.452957
-0.114291
-0.103816
0.378437
-0.229907
-0.0193102
0.014564
0.00474622
0.0280674
0.00645224
-0.000781041
-0.225814
0.0071942
-0.00433439
0.0499451
-0.478634
0.205217
0.0248113
-0.0721496
0.464995
-0.403971
-0.163047
-0.158093
0.432754
-0.27475
0.332726
0.120113
0.0204846
-0.000949522
-0.0195351
-0.154027
0.472049
0.097526
0.0519051
0.436873
-0.121154
-0.235924
-0.550567
0.00386338
-0.000909087
-0.0029543
0.207473
0.370262
0.00969992
-0.11787
0.121683
-0.250392
0.0257337
-0.0963824
0.0706485
-0.246489
0.0330679
0.206043
-0.0109274
-0.195121
-0.00549538
-0.207351
-0.0191137
-0.310951
0.0629255
0.034469
-0.0967151
0.325082
-0.228372
-0.00167256
3.30304e-06
0.00166926
-0.149889
0.180213
-0.0303276
0.573265
0.41979
-0.279286
0.203581
-0.157836
-0.158603
-0.0181591
-0.315866
0.505461
0.0267989
0.0279112
-0.05471
0.40834
0.154969
-0.16406
-0.010009
0.0341919
-0.202718
0.617973
-0.415284
-0.0841516
0.0603565
-0.259983
-0.147947
-0.354507
-0.0992471
-0.493846
-0.0102138
-0.120654
0.503843
-0.383193
0.386917
-0.262719
0.0837619
-0.0840122
-0.406819
-0.155935
0.0531657
0.0301999
-0.000182818
0.00220916
0.239272
-0.0186173
-0.220659
0.0356263
-0.0323686
0.413489
-0.0214172
0.589798
0.211705
-0.595766
0.447338
-0.114054
-0.398651
0.128194
-0.115414
-0.0127807
-0.106006
-0.227153
0.333114
0.335888
-0.515211
0.179235
-0.0990812
-0.32037
0.10764
-0.56299
0.0217983
0.0799983
-0.0188258
0.284767
-0.0434478
0.00268613
0.00221803
-0.0824541
0.080236
0.434796
-0.123806
0.0625547
0.377489
-0.440053
-0.0969518
-0.178929
0.149205
-0.0931241
0.51428
-0.421158
0.352382
-0.50288
0.150479
-0.496719
0.366059
0.130653
-0.421791
-0.167086
-0.31833
0.584027
0.312889
0.198898
-0.00438756
0.0035236
0.000863955
0.406017
0.0956992
-0.501831
0.0151847
0.056711
-0.213743
0.263375
-0.201628
0.281776
-0.56638
0.445722
0.422532
-0.595409
0.172782
-0.0689988
0.0129449
0.0560536
0.251341
0.0743397
-0.344015
0.555774
-0.399416
0.349254
0.131611
-0.48104
-0.321042
0.445212
-0.288483
-0.153698
-0.120467
0.655589
-0.401283
-0.199188
-0.0734582
0.272644
-0.0098367
0.0897066
-0.0798701
0.299099
-0.412359
0.113258
0.4835
0.104022
-0.0995107
0.448404
-0.349009
0.357545
-0.153979
-0.203573
-0.180637
-0.205769
-0.303124
0.0759036
0.227205
-0.148391
-0.197147
0.0472551
-0.344728
0.238681
0.334224
0.150519
-0.0145408
0.103782
-0.0892412
-0.149751
0.485559
-0.0270806
0.015735
-0.0857696
0.0776841
0.00808535
-0.118468
0.273569
0.127567
-0.113471
-0.0140959
0.456759
-0.466571
0.673966
-0.247149
-0.426845
0.132943
0.314458
-0.447475
0.385328
0.0586474
-0.44398
-0.15601
-0.289807
0.445807
0.501209
-0.0952985
-0.497465
0.497275
0.172622
0.383072
0.113041
-0.143365
0.570785
-0.145246
-0.425562
0.556751
-0.384211
0.37897
-0.190953
0.21543
-0.19802
-0.0174142
-0.000149027
0.0787279
-0.0661267
0.329842
-0.252127
-0.145643
-0.474163
0.129922
-0.144535
0.0846346
-0.0120429
-0.0725919
-0.0955255
0.328366
-0.0147772
0.0878663
-0.0840956
-0.00377106
0.129642
-0.0194853
-0.110157
0.580351
-0.173566
-0.406812
-0.150637
-0.00112693
0.475653
-0.14503
0.353385
0.290739
-0.31991
0.452776
0.0202967
-0.0205422
0.000245516
0.00146074
0.115036
-0.179839
-0.304911
-0.0700797
0.37994
-0.362543
-0.138774
0.501122
-0.379764
-0.146156
-0.436489
0.130239
0.306174
-0.358192
0.420735
-0.356495
0.104704
0.251785
-0.539153
0.292269
0.194537
0.0208888
0.310064
-0.0749743
-0.0214315
0.0212254
0.000206154
0.00939275
0.554802
0.238848
-0.138883
-0.099967
-0.348145
-0.255431
-0.00539333
0.00841559
-0.00302235
0.199382
-0.00162772
-0.197756
0.00214442
0.0471329
-0.0492773
0.114848
-0.03118
-0.00300235
0.131196
0.00173911
0.121191
-0.00126485
-0.0237704
0.434197
-0.135097
-0.00538313
0.0145377
-0.58278
0.228349
-0.238484
0.0101329
0.165325
0.405436
-0.0908228
0.225779
0.0222162
-0.248001
0.221937
-0.372999
0.150987
0.0248666
-0.00167393
-0.0231927
-0.0764481
0.274509
-0.198071
0.0387162
0.429629
-0.0228858
0.135132
-0.112246
0.113792
-0.523116
0.391726
0.13108
-0.0883254
0.292179
-0.203872
-0.309513
0.657556
-0.263354
-0.394233
0.388057
-0.0971276
0.152482
-0.102683
0.0897252
-0.432257
0.000416915
0.216724
-0.217142
-0.223187
0.489714
-0.266721
-0.243267
0.0359078
0.27307
-0.4661
-0.438425
-0.0457569
0.0468859
0.117795
0.267479
0.406459
0.368894
-0.120763
-0.248184
-0.00112713
-0.00327937
0.213981
0.00363136
0.0795599
-0.0888445
0.00928402
0.055667
0.00404296
-0.0597101
-0.50859
0.38546
0.123102
0.397088
0.183237
0.0707854
-0.0643487
-0.00643679
0.284501
0.103534
0.173282
0.0112767
0.221908
-0.0430399
0.00179003
0.0412498
-0.027527
0.412851
0.048651
-0.125263
-0.00171389
0.324161
-0.322454
-0.378516
-0.00522059
-0.397627
0.216964
-0.457231
0.343515
0.113592
-0.000433487
0.00103292
-0.000599434
-0.235643
0.0238324
-0.202704
0.616864
-0.414172
0.0919428
0.133829
-0.0136373
0.10133
-0.0876924
0.131103
-0.310697
0.179571
-0.00229906
-0.0407409
-0.0275513
0.0807168
-0.50201
0.563075
-0.0610981
-0.200147
-0.00016941
0.200314
0.0276954
-0.00134072
-0.203206
0.0030575
-0.0661973
0.064466
0.00173122
-0.507443
0.0446968
0.462453
0.33823
-0.437849
-0.0174684
-3.83951e-06
0.0174722
0.00915092
0.0754835
0.00307239
-0.00326454
0.000192147
0.120616
-0.559853
0.438859
-0.106564
0.440888
-0.112351
0.00335915
-0.0232294
-0.120674
0.059031
0.272572
0.114287
0.486943
-0.13458
0.000338309
-0.183485
0.0165172
0.00487263
-0.02139
-0.0648169
-0.00240148
0.0672183
-0.331025
0.0724889
0.388039
-0.460737
-0.00130531
0.0566083
0.207499
0.000619919
-0.208132
0.209208
0.310684
0.0802025
-0.110602
0.0115414
-0.147673
0.344011
-0.572659
0.410141
0.16239
-0.000191981
0.00405537
-0.0415856
-0.214571
0.571661
-0.116515
0.563138
-0.446846
-0.0455996
0.0723986
-0.52669
0.0246456
0.606396
-0.146076
-0.474977
0.251592
0.132906
0.325951
-0.448142
0.122084
0.14603
-0.0485053
0.185288
-0.184871
-0.0429969
-0.113205
-0.232736
0.345906
0.00125782
0.00120645
-0.00246427
0.409435
-0.22097
0.0539191
0.00347272
-0.0573921
0.068967
-0.0788039
-0.00317449
-0.502138
0.3984
0.103709
0.365813
0.136882
-0.502877
0.000146988
0.0877189
-0.205497
-0.359238
-0.0311684
0.410378
-0.174723
-0.322001
0.329656
0.00181752
-0.0808657
-0.164447
-0.221166
-0.366349
0.00103509
-0.0201221
-0.198079
0.207275
-0.00919932
0.0105568
0.370468
-0.216298
-0.154202
0.596523
-0.131365
-0.465174
0.563215
0.208335
-0.201593
-0.0633779
0.0664584
-0.0010545
0.00745417
0.206191
0.402323
-0.00626757
0.158666
0.108754
-0.505111
0.396357
-0.110716
-0.325614
0.436253
-0.165519
0.0263268
-0.0275917
-0.0294315
-0.186126
-0.298773
0.237134
0.116104
0.0125002
-0.100281
-0.256221
-0.0672978
-0.0654538
-0.105918
-0.396249
0.214906
-0.480106
-0.457642
-0.0105005
-0.188688
0.159371
-0.151935
0.538063
-0.400239
0.00694344
-0.105132
0.0981883
-0.494109
0.355843
0.138088
0.174824
-0.596939
-0.112066
0.0515639
0.0605028
0.0258338
-0.0275077
-0.166578
-0.22633
0.392869
-0.039575
0.0380286
-0.318029
0.25801
0.0600113
0.0238515
-0.0228165
0.206434
0.303579
-0.0601612
0.429127
-0.340104
0.457513
-0.117518
-0.0666957
0.217132
-0.638372
0.421206
0.325843
-0.496377
0.170501
-0.330789
-0.0318682
0.0376654
0.0323603
0.00513864
-0.037499
0.0776997
0.161147
0.0463265
-0.0486256
0.0820147
-0.321851
0.239826
0.0350385
-0.00487812
-0.0301603
0.0377051
0.201532
0.00679837
0.433095
-0.312754
-0.146359
-0.349854
0.496095
-0.437326
-0.504638
0.373175
0.131305
-0.0620818
-0.0181403
0.61162
-0.441034
-0.17095
0.263658
0.0156509
-0.27934
-0.369856
0.0837026
-0.0714941
-0.00295065
0.0467879
-0.0076872
0.000313424
0.00737378
0.124024
-0.443705
0.319619
-0.0609336
0.0677312
-0.00679765
-0.223907
0.345521
0.250256
-0.327521
-0.208054
0.511514
-0.310877
-0.215843
0.00130083
0.00248231
0.314855
-0.0778909
0.0223987
-0.022935
0.0319889
-0.123673
0.358466
0.128457
0.10714
0.00634698
0.400646
0.227007
0.259405
-0.0220431
-0.389304
0.231132
0.00255176
0.0889923
-0.0915442
-0.274713
-0.23225
0.335156
-0.198831
-0.136353
0.438417
0.338038
0.281004
-0.0884274
0.0747899
-0.227944
-0.103191
0.331101
0.235467
-0.126698
-0.108775
-0.144448
0.470263
-0.00566223
-0.137023
0.0184469
-0.0174118
-0.00103512
0.322843
-0.48638
0.163425
-0.125978
-0.0648185
-0.468764
0.0889894
0.36296
-0.0829992
-0.179633
-0.418324
0.59794
-0.0070125
0.0626793
0.0268332
0.201514
-0.189456
-0.194261
-0.0934423
0.287687
0.110001
-0.490045
0.38002
-0.148139
0.491217
-0.343198
0.640032
0.323431
0.177754
0.393589
-0.533363
0.1397
0.164226
0.0190116
-0.0350442
0.253283
-0.214579
-0.267414
0.421812
0.558772
-0.242279
0.562061
-0.031612
-0.530492
0.125988