/*--------------------------------*- C++ -*----------------------------------*\
| =========                 |                                                 |
| \\      /  F ield         | OpenFOAM: The Open Source CFD Toolbox           |
|  \\    /   O peration     | Version:  v2012                                 |
|   \\  /    A nd           | Website:  www.openfoam.com                      |
|    \\/     M anipulation  |                                                 |
\*---------------------------------------------------------------------------*/
FoamFile
{
    version     2.0;
    format      ascii;
    class       volVectorField;
    location    "300";
    object      U_0;
}
// * * * * * * * * * * * * * * * * * * * * * * * * * * * * * * * * * * * * * //

dimensions      [0 1 -1 0 0 0 0];


internalField   nonuniform List<vector> 
13851
(
(1.11997 0.0431893 -6.49963e-20)
(1.06731 -0.0239929 0)
(1.06586 -0.0230558 0)
(-0.183926 -0.0185913 1.16616e-19)
(1.00193 -0.000427658 -1.81821e-21)
(1.07648 -0.0371436 -1.77589e-20)
(1.05627 0.00860733 -9.55376e-21)
(1.01287 -0.000766181 0)
(0.324982 0.0301123 1.53097e-20)
(0.990899 -0.00626656 -1.14959e-20)
(1.15417 -0.0947756 0)
(1.00102 -0.00776057 -9.91249e-21)
(0.980125 -0.0172175 8.12091e-21)
(0.125021 0.00979308 -2.84212e-20)
(1.09443 0.00618048 -2.06101e-20)
(1.08726 0.046058 -6.24957e-21)
(-0.308639 -0.00502948 6.04995e-20)
(1.03338 -0.0193932 -5.76539e-21)
(1.18614 0.047883 0)
(1.12131 0.0420074 5.86146e-20)
(1.10517 0.00171836 4.41301e-20)
(1.03533 -0.088084 -1.07452e-21)
(0.581865 -0.27843 2.16309e-20)
(1.00007 -0.000205276 4.91329e-21)
(1.22907 -0.00763732 1.39498e-19)
(1.08368 0.0360104 -2.81139e-20)
(1.08983 0.0503796 1.99303e-20)
(1.16111 0.0780676 4.02474e-20)
(0.447271 0.0290629 -1.2414e-20)
(1.01965 -0.0121193 -2.93877e-21)
(-0.0745302 -0.0151801 0)
(1.0564 0.00802937 0)
(1.11351 0.0430432 -5.58176e-20)
(0.405448 0.060509 -3.30754e-20)
(1.12304 -0.0803167 4.02994e-20)
(0.477293 0.030077 0)
(1.00004 -0.000184769 -4.78646e-21)
(1.23039 -0.150605 9.38621e-20)
(0.0177679 0.0183531 2.86796e-20)
(1.00495 -0.0364001 -2.17664e-21)
(0.23103 0.0550226 6.18004e-20)
(0.483633 0.031843 2.4918e-20)
(-0.23358 -0.0064452 0)
(1.09448 -0.465095 -1.28527e-19)
(0.50035 0.0357776 6.00815e-21)
(1.01339 -0.0217411 0)
(1.01963 -0.000123402 4.26471e-21)
(1.09146 0.0443489 4.18402e-23)
(1.04238 -0.0551386 6.2438e-21)
(0.979832 -0.0162772 0)
(-0.232886 0.00376013 -3.64299e-20)
(0.973149 -0.0102691 0)
(1.08755 0.0457157 -1.14849e-20)
(1.07176 0.0170844 -2.62067e-20)
(0.177784 0.00646717 0)
(1.00392 -0.0366531 3.2638e-21)
(1.11467 0.0439649 6.29576e-20)
(0.196502 0.0491606 -6.0272e-20)
(1.09158 0.0492117 3.46924e-20)
(0.00701772 0.0118458 -4.20003e-21)
(1.00093 -0.00730612 1.88657e-21)
(1.09365 0.050072 1.83296e-20)
(0.995416 -0.0016571 -8.27131e-21)
(1.04275 -0.0572931 7.87048e-21)
(0.874809 -0.43705 -1.54585e-22)
(0.856535 -0.457093 1.87374e-22)
(-0.0135413 0.00729087 -1.14447e-20)
(0.693172 -0.116729 0)
(1.01834 -0.0380939 0)
(-0.151518 -0.0144801 -2.68172e-20)
(-0.148025 -0.00870486 -8.59258e-20)
(1.11362 0.0055737 3.06912e-20)
(0.992846 -0.0245981 -7.01695e-21)
(0.00546331 0.00956012 4.79237e-21)
(1.07773 0.0148254 0)
(1.0179 -0.0711823 0)
(-0.282968 -0.00787127 8.74157e-20)
(1.02081 -0.0064197 6.84118e-21)
(1.26685 -0.0119689 -1.23254e-19)
(1.00417 -0.0169749 0)
(1.0195 -0.0387184 0)
(1.25854 -0.0796888 -3.07773e-21)
(1.11958 -0.0820505 -3.29382e-20)
(0.115724 0.00996946 -1.14715e-20)
(0.0228864 0.0123946 0)
(-0.0992253 -0.0126509 0)
(1.03848 -0.0892476 1.50553e-20)
(0.259564 0.00460807 -2.96692e-20)
(0.99144 -0.0104225 7.32305e-21)
(-0.0710703 -0.0138414 1.82053e-19)
(0.971928 -0.00942764 -4.39694e-21)
(1.0575 0.00779938 -5.40636e-21)
(-0.2267 -0.00533587 -8.97835e-20)
(-0.133375 -0.0118773 -1.6809e-19)
(-0.0328833 0.0210244 2.56661e-20)
(1.07892 -0.426131 -3.44741e-20)
(1.00858 -0.0231057 1.38738e-21)
(1.08964 0.0453303 5.89749e-21)
(-0.152941 0.00707761 7.51252e-21)
(1.20836 -0.187235 -7.75205e-20)
(1.09019 0.0455525 0)
(0.809617 -0.110784 3.46065e-20)
(0.809816 -0.143502 -1.84662e-20)
(0.988729 -0.0260878 -8.32298e-21)
(1.01684 -0.0216109 0)
(1.11979 -0.00729623 -2.50129e-20)
(1.01616 -0.0213259 -7.29482e-22)
(-0.127736 -0.0108063 1.83365e-19)
(1.05757 0.00711252 5.09558e-21)
(1.03251 -0.0188325 0)
(1.02322 -0.125639 3.05961e-21)
(1.01411 -0.0221742 -1.33031e-22)
(1.20185 -0.0108788 6.88216e-21)
(1.15173 -0.0415917 0)
(1.10439 0.0436537 -1.45269e-20)
(1.07115 0.0160292 -2.1079e-20)
(1.01379 -0.00798246 1.60672e-21)
(1.01353 -0.000898889 0)
(-0.20001 -0.0162467 -1.42546e-19)
(-0.114852 -0.0181606 0)
(1.10787 -0.351705 2.92041e-20)
(1.02718 -0.0159429 5.54161e-21)
(1.01359 -0.0385295 -5.73037e-22)
(0.127771 0.0283397 0)
(1.15728 0.0522782 6.98949e-20)
(0.614666 -0.197143 1.17127e-19)
(1.00909 -0.0228267 3.62295e-21)
(1.12391 -0.145039 0)
(0.256807 0.0505695 4.56267e-20)
(1.10369 0.0114328 0)
(1.03205 -0.089979 -9.21149e-21)
(1.09237 -0.0628101 3.19144e-20)
(1.31746 -0.164806 1.17897e-20)
(0.388513 0.0580877 0)
(1.15835 -0.0918064 0)
(-0.0446664 0.0208126 -2.74411e-20)
(0.70634 -0.109224 0)
(-0.115057 -0.0116731 2.36016e-20)
(0.847336 -0.0830027 -2.3814e-20)
(1.09987 0.0137802 -2.51199e-20)
(1.25544 -0.0838787 1.80849e-20)
(0.973665 -0.041262 0)
(0.990742 -0.0104806 -1.98384e-20)
(0.742969 -0.30176 4.1808e-20)
(1.18901 0.0232053 0)
(1.00478 -0.0692985 6.55805e-21)
(1.02061 -0.00600392 -5.31295e-21)
(-0.12427 -0.0122872 8.46868e-20)
(0.3136 0.0200692 7.076e-21)
(1.12896 -0.147187 0)
(1.09076 0.0453171 -1.6162e-20)
(1.2008 -0.014132 -3.10021e-20)
(1.15558 -0.0404977 0)
(1.17429 0.0431689 0)
(0.971837 -0.0199688 0)
(0.983382 -0.00694289 1.55284e-20)
(1.00111 -0.00614174 0)
(-0.0215196 0.0141491 -3.45897e-20)
(1.09833 0.0108115 -4.12763e-21)
(1.05867 -0.000657263 -1.34835e-20)
(1.00014 -0.000472402 -3.90448e-21)
(0.459129 0.0289078 2.53278e-20)
(1.11721 -0.0066907 -9.85416e-22)
(1.092 0.0441434 2.27922e-20)
(0.128652 0.00852667 -1.30392e-20)
(0.411473 0.0378761 3.61667e-21)
(0.423425 0.038972 1.21517e-20)
(-0.216474 0.00573871 -1.68245e-20)
(1.02397 -0.120886 7.41692e-21)
(0.773873 0.0814849 1.50446e-20)
(1.00068 -0.00670095 3.8509e-21)
(1.01374 -0.00759433 6.75456e-22)
(1.13388 -0.00934824 0)
(1.00101 -0.000394952 0)
(-0.00287518 0.0269251 -2.59706e-20)
(1.09902 0.0579188 -4.20515e-20)
(1.09423 0.0457842 -3.73012e-21)
(1.01431 -0.00757595 -7.62399e-22)
(1.0762 0.0160582 1.42418e-20)
(1.09383 0.045351 0)
(1.15408 0.0509764 -5.21201e-20)
(1.10085 -0.446882 6.97391e-20)
(1.02936 -0.114093 1.69786e-21)
(1.10198 0.0114931 0)
(-0.248603 -0.00723913 5.83634e-20)
(0.321593 0.019801 1.62786e-20)
(1.11225 0.0438431 0)
(0.888344 -0.0613094 0)
(0.976241 -0.020913 2.53739e-20)
(1.01784 -0.0162331 3.18344e-21)
(1.25869 0.0190719 -1.00975e-21)
(1.09906 0.0098967 -8.94289e-21)
(0.103902 0.00437352 2.05358e-20)
(1.0778 -0.0351743 0)
(1.00659 -0.0673033 -2.57458e-21)
(1.08863 0.0455149 -1.12166e-20)
(1.11112 0.0429486 -5.85789e-22)
(1.04341 -0.0117269 1.91311e-20)
(1.03861 -0.0273778 7.41191e-21)
(0.70916 -0.152016 0)
(1.25623 -0.0966401 -3.65072e-20)
(0.038895 0.0374823 -4.44671e-20)
(0.177418 0.0523495 -2.69994e-20)
(1.09301 0.00683384 -1.91407e-20)
(0.939844 -0.697645 -8.74963e-20)
(0.00591412 0.0347442 4.89678e-20)
(0.937004 -0.0170377 0)
(1.09334 0.0189146 -2.78253e-20)
(0.320325 0.0325656 1.03508e-22)
(1.07126 -0.0443804 9.6989e-21)
(1.08631 0.0463729 0)
(1.01299 -0.0377169 -1.053e-21)
(1.25976 -0.0920343 -2.806e-20)
(1.0001 -0.00198955 4.98551e-21)
(1.12632 -0.0732367 -2.44242e-21)
(1.02129 -0.078701 -2.69046e-21)
(0.981117 -0.0152804 2.65734e-20)
(1.12697 0.0542653 3.04041e-20)
(1.04258 -0.0196604 6.67421e-23)
(0.153685 -0.532491 0)
(1.01435 -0.00717775 0)
(1.12494 0.0415311 -3.37985e-20)
(0.0951294 0.00648991 -6.87833e-21)
(-0.026971 0.0221677 7.31114e-20)
(0.900155 -0.0707974 0)
(1.0931 0.0196483 3.60985e-20)
(1.00002 -0.00101909 8.70111e-21)
(0.74582 -0.280578 3.99338e-20)
(1.00115 -0.0124459 0)
(1.12316 -0.0746116 0)
(-0.027406 -0.0415938 0)
(0.893977 -0.0620366 0)
(1.0711 -0.0423802 0)
(0.996244 0.000251613 -7.45324e-21)
(0.163338 0.0504939 1.45291e-20)
(1.02031 -0.0119571 3.00484e-21)
(0.92445 -0.433519 -1.70938e-20)
(0.154747 0.0488927 4.79752e-20)
(1.20095 -0.182347 4.17264e-21)
(1.0001 -0.000452975 2.44055e-21)
(1.27834 -0.310897 5.32297e-21)
(0.0347931 0.0121261 6.98981e-20)
(0.529752 0.0380467 5.51132e-21)
(1.08656 0.0460463 5.78477e-21)
(1.09776 -0.0143487 0)
(0.70711 -0.333394 0)
(1.12698 0.0521853 -2.86101e-20)
(1.07587 0.0170458 1.44457e-20)
(1.08148 -0.408378 6.52026e-20)
(1.04193 -0.127511 0)
(0.210508 0.00369865 1.11506e-20)
(1.14912 0.0324067 -5.00879e-21)
(1.00992 -0.000798235 -9.77136e-22)
(1.07639 -0.0157532 0)
(1.08928 0.0457254 1.17033e-20)
(0.446999 0.0275552 -2.38624e-20)
(0.324521 0.00733592 -9.05283e-21)
(1.01741 -0.0155446 -3.45333e-21)
(0.590584 -0.192834 -1.03232e-19)
(0.992278 -0.0113047 -7.12324e-21)
(1.11162 0.050874 5.92544e-20)
(1.16265 0.0487084 2.74467e-20)
(1.07804 -0.0152116 1.26157e-22)
(1.11717 -0.0037531 -6.91052e-20)
(1.15217 0.0329406 0)
(0.998603 -0.023157 4.89852e-21)
(0.804825 -0.120435 -1.57581e-21)
(1.09245 0.0421835 0)
(1.15667 0.0728185 4.59854e-20)
(0.997545 -0.00737854 3.23103e-21)
(0.981059 -0.0143062 -2.67277e-20)
(0.89469 -0.0692248 0)
(0.41427 0.0457452 6.63932e-21)
(-0.252055 -0.00924273 0)
(1.10774 0.00607092 3.32637e-20)
(1.02812 -0.0164416 0)
(1.15171 0.0533215 -7.82337e-21)
(1.16834 0.0462317 -1.98397e-21)
(1.10675 0.0410641 -2.62561e-20)
(1.11528 -0.00320905 6.1897e-20)
(0.384464 0.0424804 0)
(-0.108988 0.00687072 -2.67833e-20)
(1.08118 -0.0225687 0)
(1.08998 0.00400242 -1.03136e-20)
(1.17886 -0.173263 9.65661e-20)
(1.01885 -0.0208871 1.05388e-21)
(1.00124 -0.00583358 -5.01826e-21)
(1.10797 0.0417707 0)
(1.14004 -0.110233 -1.01065e-19)
(1.02161 -0.0121882 -3.3172e-21)
(1.00011 -0.00196248 4.84883e-21)
(1.0009 -0.0127966 0)
(1.00404 -0.000606232 2.42785e-21)
(1.09456 -0.00679041 -5.54817e-20)
(1.00128 -0.00622834 1.55569e-22)
(0.336926 0.032363 -4.42197e-21)
(1.10666 0.00292201 -1.43805e-20)
(1.01001 -0.0309081 -2.9865e-21)
(0.453276 0.026513 0)
(0.116395 0.0259935 0)
(0.974166 -0.0156231 8.27148e-21)
(1.12354 0.0429412 3.67331e-20)
(-0.196527 0.00511647 1.39395e-19)
(0.972503 -0.0435555 2.4324e-20)
(0.972812 -0.0148746 0)
(1.10874 0.00279451 0)
(0.0857209 0.00761606 -3.51281e-21)
(0.258496 -0.0128234 0)
(1.13346 0.00209036 -4.95394e-20)
(1.00214 -0.000564389 2.80665e-21)
(0.810737 0.0831627 0)
(1.00076 -0.00714037 4.08684e-21)
(1.13891 0.00246248 3.40175e-21)
(-0.180405 0.00783688 -1.30138e-19)
(1.15312 0.0721379 6.23528e-20)
(1.05755 -0.00097398 -1.9512e-20)
(1.27087 -0.204612 -1.03609e-19)
(1.31086 -0.172004 7.56895e-20)
(-0.0992535 -0.00891886 0)
(1.20342 -0.0218985 4.19583e-21)
(0.779957 -0.0893071 2.09759e-21)
(0.00317358 0.0227139 -8.42175e-20)
(0.168217 0.0371854 -2.41339e-20)
(1.16869 0.0770492 -2.15484e-20)
(1.03985 -0.0281245 -7.93774e-21)
(-0.25046 -0.00767015 0)
(0.149541 -0.000731322 0)
(0.461809 -0.444785 -1.66428e-19)
(0.497018 -0.450514 6.27352e-20)
(0.935361 -0.0182019 -1.14001e-20)
(1.13681 -0.00467834 0)
(0.945383 -0.112564 1.56548e-20)
(0.267541 0.0051832 1.15259e-20)
(0.784745 -0.135992 -4.13508e-20)
(1.00779 -0.00185761 -7.82552e-23)
(1.01964 -0.000202828 4.49643e-21)
(1.06504 -0.0782217 9.51183e-21)
(-0.127484 -0.0116708 -3.88983e-20)
(0.207468 -0.539047 0)
(1.01888 -0.0201302 5.73066e-22)
(-0.0433567 0.0208973 -1.36223e-19)
(0.934731 -0.109768 0)
(1.09316 -0.0656322 -4.00185e-20)
(1.05891 9.31463e-05 3.68203e-21)
(0.0762997 0.00543233 0)
(1.14912 0.052287 -1.34631e-20)
(1.08824 0.045866 1.24642e-20)
(1.01911 -0.0765175 0)
(1.06867 -0.0416027 -1.64406e-20)
(0.51726 0.0309354 -2.72262e-20)
(0.97606 -0.0225071 -1.79036e-20)
(1.17251 0.0464669 0)
(1.07982 -0.0214672 0)
(1.11 0.00172658 0)
(0.928878 -0.11205 0)
(0.991621 -0.0112516 7.58422e-21)
(1.01078 -0.0305407 1.64083e-21)
(1.21802 -0.0798539 8.22248e-21)
(1.2162 -0.183299 0)
(1.14502 0.0348771 0)
(1.34597 -0.176124 8.76913e-20)
(0.527693 0.0319136 1.24814e-20)
(1.00594 -0.0707174 -7.37022e-21)
(0.138106 0.0475359 3.33736e-20)
(1.11353 0.0551071 -2.07903e-20)
(1.02661 -0.00870396 -5.27788e-21)
(1.14781 0.0732253 -6.62008e-20)
(1.12175 0.0300619 -1.47742e-20)
(-0.139951 0.0100437 5.45454e-20)
(1.06311 -0.0758267 1.58418e-20)
(1.08066 0.0389096 -4.32938e-20)
(1.08875 0.0491546 0)
(1.29651 -0.0893244 9.26312e-20)
(1.21476 -0.090579 1.26016e-19)
(0.261322 0.00495313 0)
(1.04294 -0.0383812 -2.09971e-20)
(1.09809 0.0591018 5.0636e-20)
(-0.327783 -0.00598132 0)
(1.09381 -0.0251503 -3.39166e-20)
(0.231913 0.00659717 -4.73243e-20)
(1.10033 -0.0267741 2.04007e-20)
(0.181013 0.0507954 0)
(1.08922 0.0030546 -1.85071e-20)
(1.074 0.026879 0)
(1.15615 0.0282607 -3.32513e-22)
(1.23963 -0.161691 6.04888e-20)
(0.983405 -0.00785055 0)
(1.07881 -0.0273311 1.08645e-20)
(1.14428 -0.113008 -4.22989e-21)
(1.07746 0.0158497 -1.63879e-20)
(1.01162 -0.0237094 0)
(1.10742 0.00770399 -3.50335e-20)
(0.674762 0.0747609 3.67632e-20)
(0.993634 -0.0245763 -2.83385e-21)
(1.09457 0.0180719 0)
(-0.2109 -0.0165477 0)
(1.06224 -0.0391982 -5.97991e-21)
(1.25414 -0.472511 -1.01237e-20)
(1.08238 0.0252914 -2.96697e-21)
(0.323611 -0.0134283 -3.3768e-20)
(1.0736 -0.0457345 -2.10949e-20)
(1.08318 0.0352217 -1.49574e-20)
(0.917777 -0.672671 6.85321e-20)
(1.16114 0.0506676 -1.44476e-20)
(1.12065 -0.0120886 -1.62107e-20)
(0.3051 0.00487578 -3.47077e-23)
(0.0151809 0.00857496 -6.83814e-20)
(1.24954 -0.307016 3.85907e-20)
(0.997842 -0.0231927 -1.21137e-20)
(1.21411 -0.0765592 0)
(1.10194 -0.0329167 -4.52382e-20)
(1.0812 0.0381202 1.37357e-20)
(1.02574 -0.0175066 -8.4055e-21)
(-0.238565 -0.00530871 -4.75817e-22)
(0.634184 0.0751212 0)
(1.2675 -0.0459221 1.08869e-20)
(1.06831 -0.0397211 1.20409e-20)
(1.15541 0.0304243 0)
(1.09518 0.0516726 -3.96824e-20)
(-0.237251 -0.011896 0)
(1.02375 -0.00366007 0)
(-0.287075 -0.00495434 0)
(1.24981 -0.148413 -1.21254e-20)
(0.321791 -0.192358 -2.64359e-20)
(1.04614 -0.130235 0)
(1.18933 0.0728022 1.37697e-19)
(0.986938 -0.0151008 0)
(1.00118 -0.000338868 -1.47931e-22)
(0.166932 0.00483818 1.17548e-20)
(1.09595 0.0529687 0)
(0.990204 -0.00677669 6.64564e-21)
(1.06719 -0.0253797 0)
(1.096 0.0182053 0)
(1.01208 -0.00846811 0)
(0.709083 0.0769362 -4.32317e-20)
(1.13655 -0.00220433 -1.35175e-20)
(1.12239 0.0289701 1.75435e-21)
(1.07142 -0.00269397 -5.99311e-22)
(1.04362 -0.0372889 1.17063e-20)
(0.97175 -0.00426798 -8.6599e-21)
(1.32469 -0.100588 -8.8862e-20)
(1.00892 -0.0301467 -9.64603e-22)
(0.972843 -0.0032943 -3.72169e-21)
(0.874693 0.04945 0)
(0.709611 0.0730145 -3.34418e-20)
(1.029 -0.0875458 -1.44671e-21)
(1.09337 0.048586 0)
(0.995634 -0.0011405 9.3617e-21)
(1.00139 -0.00591339 5.08638e-21)
(1.0644 -0.0400562 2.51609e-20)
(1.14755 0.0354423 1.17371e-20)
(1.07963 0.0266683 2.52489e-20)
(1.01144 -0.0250813 0)
(1.05237 -0.0303865 -8.01749e-21)
(1.10938 -0.340744 -6.03491e-20)
(1.05978 -0.0184339 0)
(0.367272 -0.0246001 -7.19199e-20)
(1.00121 -0.00727096 -5.43716e-21)
(1.07134 0.0073079 -4.83153e-21)
(0.50702 0.0369087 -1.20207e-20)
(0.936113 -0.154962 -7.59338e-21)
(1.01868 -0.000770578 -1.0774e-21)
(1.00027 -0.00615111 -1.07667e-21)
(1.07107 -0.00355964 9.32229e-21)
(1.0461 -0.0108206 0)
(1.23332 -0.359314 2.0033e-21)
(0.795453 0.0485892 -1.30739e-20)
(1.0986 -0.0128986 2.58731e-21)
(0.32377 -1.11966 7.55075e-20)
(1.06597 -0.0387231 -6.3019e-21)
(0.999909 -0.00981174 -5.22095e-21)
(0.295496 0.046489 0)
(1.08962 0.0490101 -1.80526e-20)
(0.876185 -0.117573 -1.33155e-21)
(0.994637 -0.0283281 -8.49949e-21)
(0.156479 0.0340755 0)
(0.856644 -0.0883526 4.67633e-20)
(1.18669 -0.636559 3.23896e-20)
(0.988137 -0.0252447 1.4425e-20)
(1.09485 -0.0576789 1.82443e-20)
(1.2187 -0.0873022 -1.39285e-19)
(1.08294 0.0140488 1.63581e-20)
(0.202168 0.0427545 -2.00659e-20)
(1.09368 0.0513726 4.57361e-20)
(1.31272 -0.0559842 -9.35027e-21)
(0.974528 -0.0670097 1.7046e-20)
(1.20447 -0.0182513 3.75016e-20)
(0.999668 -0.0244136 1.191e-21)
(0.435507 0.0279675 3.46056e-21)
(1.08281 0.024703 -5.09845e-21)
(1.10991 0.043066 6.79263e-22)
(1.1004 -0.0311682 3.65604e-20)
(1.01968 -0.0734484 0)
(0.94247 -0.152702 -7.66676e-21)
(1.13397 -0.0062485 0)
(1.00172 -0.000514678 -2.28529e-21)
(-0.268983 -0.00655265 -1.22038e-19)
(0.265791 0.0431122 0)
(0.409901 -0.0298996 5.96665e-20)
(-0.17829 -0.00604959 -1.61556e-20)
(0.815322 0.0494671 0)
(-0.235111 0.0015232 3.87521e-20)
(1.16676 0.0489882 -3.4009e-20)
(0.911266 -0.0745347 2.58205e-20)
(0.999636 -0.00246201 -8.5433e-21)
(1.24028 -0.477618 1.07399e-20)
(0.990963 -0.00555193 1.18633e-20)
(1.01135 -0.0230484 0)
(0.9051 -0.0910233 -3.01391e-20)
(0.0231164 0.0312996 -1.2536e-19)
(1.06498 -0.0177166 3.55428e-20)
(0.969393 -0.0364749 -9.58754e-21)
(1.07006 -0.273685 -1.53996e-21)
(1.12878 -0.0321198 5.79971e-21)
(0.989084 -0.00085119 0)
(0.73951 0.0255653 -4.25181e-20)
(1.00734 -0.0221216 1.69485e-21)
(0.303391 0.0535481 -2.15407e-20)
(1.22404 -0.343814 -1.67669e-20)
(1.00456 -0.017549 0)
(1.06025 -0.0097284 -2.07296e-20)
(1.25394 -0.122 -4.79642e-20)
(1.15326 0.0736432 -7.00621e-20)
(1.021 -0.0124353 -3.37713e-21)
(1.02745 -0.0969156 -1.46104e-19)
(1.09087 -0.403948 0)
(1.03073 -0.00384837 0)
(-0.055687 0.00200546 0)
(1.18209 0.047418 0)
(1.1285 0.0406295 0)
(0.973139 -0.0652801 -1.08898e-20)
(0.892899 0.0500595 0)
(-0.0491224 0.0115786 -9.44119e-20)
(1.03137 -0.00406876 4.85777e-21)
(1.22109 0.00476594 0)
(1.01597 -0.0382539 4.46428e-22)
(1.00776 -0.0226702 -3.3728e-21)
(0.945652 0.0509184 -8.84763e-21)
(0.185371 0.0511036 7.75676e-20)
(1.11302 -0.0316256 -4.99825e-20)
(1.07865 0.0265358 -1.86426e-20)
(0.990358 -0.00426702 -1.50168e-20)
(1.08672 0.030661 3.03761e-20)
(0.28844 0.0533129 -5.04237e-20)
(-0.0227132 0.0171235 5.90342e-20)
(1.03423 -0.00711026 0)
(-0.2879 -0.00166585 0)
(1.0111 -0.0244611 -5.94412e-22)
(1.01716 -0.0390066 0)
(1.12131 -0.0102473 8.53735e-21)
(1.06829 0.0112191 0)
(1.024 -0.00340487 2.36643e-21)
(1.01514 -0.0712724 0)
(-0.0398838 0.00234175 0)
(1.2348 -0.158363 -9.60536e-20)
(-0.072142 0.00172599 -3.72067e-20)
(1.06305 -0.0181256 -3.12086e-20)
(0.992466 -0.0120261 7.10829e-21)
(0.435761 0.0445036 -3.6454e-20)
(0.999396 -0.00345489 0)
(1.21445 -0.0663605 0)
(1.07466 0.0025008 -1.93365e-20)
(1.07931 0.0133745 -3.6508e-21)
(1.09877 -0.0182283 2.77762e-20)
(0.606448 0.0426733 -3.05836e-21)
(-0.0965209 0.00955926 4.89351e-20)
(1.07695 -0.0312125 2.61366e-21)
(-0.286728 -0.00582272 -9.8984e-20)
(1.0565 -0.00276876 0)
(1.14444 -0.016496 0)
(0.493497 0.0334035 -1.23494e-20)
(0.204059 0.0109978 -3.7827e-20)
(1.00985 -0.0386535 -2.34219e-21)
(0.998945 -0.0242894 -5.90367e-21)
(0.81691 -0.152293 0)
(-0.0613783 0.00297259 -2.00678e-20)
(1.09121 0.0488613 -1.7861e-20)
(1.0858 0.0304061 -2.82533e-20)
(1.0857 -0.562166 -1.26878e-19)
(1.06824 0.0118421 -3.07028e-21)
(1.08743 0.00352708 4.0505e-20)
(0.0715482 -0.054891 1.74419e-19)
(0.685762 0.0178438 8.82458e-20)
(1.08305 -0.330939 0)
(0.287237 0.0510891 0)
(1.10122 0.0484175 3.74359e-20)
(0.536095 0.0336885 -2.67776e-20)
(1.03895 -0.0370635 9.37167e-21)
(1.09341 0.0494552 -4.31002e-20)
(1.21864 0.0677616 -9.35654e-20)
(0.999621 -0.0084078 -6.32671e-22)
(-0.312714 -0.00109961 9.07179e-20)
(0.490333 0.0526679 -4.10346e-20)
(1.02902 -0.119202 -7.89124e-21)
(1.10152 0.0133156 2.59734e-20)
(1.00081 -0.033713 0)
(0.476296 -0.834471 9.10352e-21)
(1.13857 -0.179841 2.41279e-20)
(0.622927 -0.201379 -1.3786e-19)
(1.00823 -0.0306262 0)
(1.00071 -0.000464323 5.77132e-22)
(0.909523 -0.0424439 0)
(1.1277 -0.034731 -2.10656e-20)
(1.00128 -0.00700794 1.40987e-21)
(-0.00909386 0.0281472 1.0929e-19)
(1.00083 -0.000552802 5.96608e-22)
(1.10227 0.0482761 -3.4884e-20)
(0.968004 -0.0636362 1.59367e-20)
(1.08203 0.0384123 0)
(0.989663 -0.0257889 1.15134e-20)
(0.988354 -0.000940271 0)
(1.08845 -0.154751 1.44793e-20)
(-0.286334 -0.00359769 -1.10396e-19)
(1.12248 -0.0166277 0)
(-0.0594819 0.0202372 -1.52226e-20)
(1.09524 -0.0605946 -5.14619e-21)
(1.01224 -0.00944841 0)
(1.02929 -0.0111222 -7.45462e-21)
(1.13657 -0.0107852 0)
(1.0513 -0.0312957 8.77646e-21)
(1.17824 -0.0250857 0)
(1.06887 -0.0195935 0)
(0.876163 -0.109916 -6.54122e-20)
(1.09046 0.0494837 0)
(0.999281 -0.00316835 -4.95586e-21)
(0.324827 0.00339825 -1.61381e-20)
(1.00005 -0.00137195 6.35887e-22)
(1.08323 0.0428327 9.40532e-21)
(-0.269532 -0.0055262 0)
(0.472319 0.0380885 -1.23957e-20)
(0.881525 -0.0226538 9.48917e-21)
(0.834348 -0.282131 1.38813e-19)
(1.05905 -0.273115 2.14611e-20)
(1.2155 -0.233925 -5.0792e-21)
(0.457763 0.0545984 -2.34325e-20)
(1.03644 -0.00819076 8.78141e-21)
(0.646755 0.0228163 2.74133e-20)
(0.940005 -0.114591 0)
(1.09617 -0.025105 -9.23836e-23)
(-0.166228 -0.00789661 1.14312e-19)
(1.25812 0.0117756 -7.71526e-21)
(1.02701 -0.00916101 0)
(1.17644 -0.0275302 0)
(1.0428 -0.0109787 -7.33824e-21)
(0.501185 0.030497 0)
(-0.255512 0.00167249 8.57679e-20)
(1.02208 -0.0405074 0)
(0.69153 -0.141811 0)
(0.705287 0.0784556 -2.34131e-20)
(0.999982 -0.0011306 -1.47949e-21)
(0.999973 -0.00150358 -1.74702e-21)
(1.08326 0.0365588 4.209e-20)
(0.306176 0.00110628 2.42155e-20)
(0.969397 0.0519982 -1.49925e-20)
(0.973066 -0.0135135 3.67307e-21)
(1.16098 0.0248174 -1.7226e-20)
(1.05816 -0.0183744 -8.51781e-21)
(0.987216 -0.00188393 -4.17291e-21)
(1.09127 0.0499845 -4.91374e-21)
(1.15991 0.0274179 0)
(1.21028 -0.169195 0)
(1.0225 -0.00308224 -1.76696e-21)
(1.09312 0.0419331 -1.47294e-20)
(0.904594 -0.201481 -4.34357e-21)
(1.08178 0.0339659 0)
(0.956677 -0.0154731 -7.08363e-20)
(1.00533 -0.0646995 0)
(1.13114 -0.179824 0)
(0.913675 -0.0436045 -1.28664e-20)
(1.09199 0.0432738 -2.22849e-22)
(1.11143 0.00629369 -3.73048e-21)
(1.1142 0.00366564 -3.15868e-20)
(1.07157 -0.318621 1.43667e-20)
(1.17024 -0.640959 -1.86092e-20)
(1.1886 0.0442197 0)
(0.733655 0.0585233 7.20482e-21)
(1.12585 -0.103858 4.53204e-20)
(1.09091 0.044945 0)
(0.155574 0.0156208 2.54196e-20)
(1.01942 -0.170988 2.73131e-21)
(0.915155 0.0499875 0)
(1.12711 0.0422198 5.19075e-21)
(1.03008 -0.0203022 2.36121e-21)
(1.08648 0.00257855 -1.28319e-22)
(1.18516 0.0399739 -7.02705e-20)
(1.05299 -0.0839224 0)
(1.00428 -0.0163685 0)
(1.0048 -0.0155249 -3.20546e-21)
(1.08444 0.0423251 2.34269e-21)
(0.253488 0.0025769 -4.96917e-21)
(1.0726 0.00718705 -1.05203e-20)
(0.117964 0.0440758 -2.62453e-20)
(1.01204 -0.00979741 0)
(0.938754 0.0516984 5.2709e-21)
(0.997865 -0.362714 0)
(-0.207788 0.00461922 -1.82407e-20)
(1.1773 -0.0325856 0)
(1.07571 -0.0451385 1.50049e-20)
(1.06641 -0.0215454 0)
(-0.195709 0.00768261 0)
(1.21212 -0.163862 8.08344e-20)
(1.01987 -0.164234 0)
(1.09415 0.0526368 0)
(1.04244 -0.0353336 9.72034e-21)
(1.25835 -0.432822 4.4874e-20)
(1.08403 0.0427764 -1.0581e-20)
(1.10342 0.0488761 0)
(1.09968 -0.0422033 9.45009e-21)
(1.26743 -0.137459 0)
(0.987655 -0.0155506 0)
(1.00006 -0.00160235 5.24544e-21)
(0.940303 -0.0167269 3.22243e-20)
(0.986551 -0.00261501 6.04271e-21)
(0.476213 0.0324896 -6.54809e-21)
(1.00379 -0.0007425 -1.58645e-21)
(1.08874 0.0496582 0)
(0.402466 0.0428718 2.25647e-20)
(1.18093 -0.0340193 2.54013e-20)
(-0.00493401 0.020287 2.91504e-20)
(-0.138464 0.00874592 0)
(1.10396 0.0495295 0)
(1.22395 -0.229836 -3.26389e-20)
(0.884334 -0.0300764 -3.91008e-20)
(0.998591 0.000326533 7.35049e-22)
(0.982311 -0.0136343 -6.72831e-21)
(1.01971 -0.0065072 -3.77569e-22)
(1.02859 -0.0111632 7.12892e-21)
(1.00097 -0.000515101 0)
(1.14221 -0.0105881 0)
(1.19492 -0.00481621 -2.92138e-20)
(0.901326 -0.212897 0)
(1.16763 0.0756332 -3.45577e-20)
(1.02086 -0.0611208 0)
(0.31238 0.0303457 1.66504e-20)
(0.99998 -0.000138524 0)
(-0.152511 -0.0223297 1.18911e-19)
(1.11254 -0.0871421 -8.89409e-21)
(0.999936 -0.000265467 4.25767e-21)
(0.996973 -8.18213e-05 0)
(0.456927 0.0387424 0)
(1.07737 -0.0388034 1.51561e-20)
(0.985387 0.0508368 4.95363e-23)
(0.508931 0.0535782 8.29288e-20)
(1.09862 0.012927 0)
(1.11866 0.0187263 -6.60464e-20)
(1.03036 -0.00307481 8.42664e-21)
(0.368552 0.0570636 5.34629e-20)
(0.983087 -0.0777267 0)
(1.06597 -0.018871 -2.55961e-20)
(1.09212 0.0496334 0)
(0.998619 -0.000168516 -1.14091e-20)
(0.972635 -0.039504 1.47079e-20)
(1.03385 -0.0122404 -5.77571e-21)
(1.08453 0.0236695 -2.10456e-20)
(0.23376 0.00419272 1.34802e-21)
(1.08676 -0.0572805 0)
(1.10044 -0.0372744 0)
(1.25296 -0.155576 0)
(-0.056898 0.015159 3.04284e-20)
(0.8857 -0.0522424 -6.57677e-20)
(0.984855 -0.100783 0)
(0.52274 0.0340593 -3.66362e-23)
(1.01932 -0.00630593 -2.42348e-21)
(0.511164 0.0333012 -1.17453e-20)
(1.00038 -0.00116095 -4.65639e-21)
(1.0603 -0.0170227 0)
(1.26989 -0.00678711 0)
(1.09775 0.034862 3.99237e-20)
(1.10549 0.0431523 0)
(1.18234 -0.0915934 2.51392e-20)
(1.12306 -0.0143875 2.77125e-20)
(0.999507 -0.000652446 -1.07671e-20)
(0.999989 -0.000147238 7.79516e-21)
(1.14792 -0.0154274 -6.18963e-20)
(1.04043 -0.0369847 0)
(0.99963 -0.000531086 6.41272e-21)
(1.07152 0.0105424 -3.04986e-22)
(1.24101 -0.193724 -1.01951e-19)
(1.00446 -0.00538923 -2.23646e-21)
(1.20363 -0.247883 0)
(1.27445 -0.459616 -1.8654e-20)
(1.02546 0.0501383 0)
(1.18063 -0.0870931 -7.66903e-20)
(-0.0338255 -0.0195571 -1.73246e-19)
(0.837939 -0.085894 5.47108e-20)
(0.998447 4.69658e-05 1.24901e-20)
(1.21368 -0.102101 -4.64492e-20)
(1.0115 -0.0101921 1.88807e-22)
(1.07938 -0.0255381 -2.35411e-20)
(0.777887 0.0605594 -6.0846e-21)
(0.537952 0.03138 -2.59204e-20)
(0.636301 0.023151 -1.32708e-19)
(0.562445 0.0374586 0)
(1.02568 -0.0409288 -3.64648e-21)
(1.02199 -0.0397112 0)
(0.976236 -0.271405 0)
(1.0019 -0.062088 4.43366e-21)
(1.02091 -0.0186711 0)
(0.602993 -0.302976 0)
(1.11001 0.0514543 -4.12606e-20)
(0.223882 0.00839147 0)
(1.08294 0.0432847 0)
(1.09867 0.0352409 -4.44181e-20)
(0.985109 -0.00439748 -3.00613e-20)
(1.01944 -0.0125781 3.90141e-21)
(1.30912 -0.320671 -4.93427e-20)
(1.12429 0.0281662 5.814e-20)
(1.06216 -0.0168989 2.35392e-20)
(0.999803 -1.23552e-05 -4.24256e-21)
(1.10335 0.0432767 1.86095e-20)
(1.21512 -0.0321339 0)
(0.129788 0.0454681 0)
(0.972027 -0.0180782 0)
(1.00085 -0.00316943 -1.12868e-22)
(0.215402 0.0023943 5.94287e-21)
(0.957826 -0.0141376 2.89493e-20)
(1.09956 -0.0225133 2.50448e-20)
(1.01173 -0.00799918 0)
(0.0447012 0.0342967 9.44427e-20)
(1.00938 -0.000463122 4.65194e-22)
(-0.260568 -0.00861654 8.89718e-20)
(0.994687 -0.00470525 7.21294e-21)
(1.19296 -0.186213 0)
(1.10344 -0.00366312 0)
(0.952955 -0.275338 0)
(1.10143 -0.0405223 0)
(0.992233 -0.0236375 4.45559e-21)
(1.06695 -0.0279671 0)
(1.00316 -0.00385037 4.29389e-21)
(1.08736 0.0498788 9.00713e-21)
(0.960702 -0.0232629 2.9413e-20)
(0.345808 0.0102281 3.91061e-20)
(1.04447 -0.0345595 3.76334e-21)
(1.04113 0.0720507 2.55259e-20)
(0.335745 0.0467376 0)
(1.09578 -0.0466107 -1.01368e-20)
(1.00375 -0.00276971 0)
(-0.18375 -0.0211558 -5.52298e-20)
(0.795037 0.0490353 0)
(1.07914 -0.0310884 1.73087e-20)
(1.09658 0.0350556 2.63891e-21)
(0.982364 -0.0126954 0)
(0.280654 0.00376375 -3.93517e-20)
(1.0309 -0.0209525 7.85143e-21)
(1.1879 0.0371486 0)
(0.998943 -0.00915609 0)
(1.00342 -0.00402256 1.26824e-21)
(1.02098 0.0532624 -5.89904e-21)
(1.0994 -0.0165808 -4.36841e-20)
(1.00031 -0.00662389 1.10198e-21)
(1.07281 0.017184 3.25947e-20)
(0.194706 0.0484671 2.99389e-20)
(0.727508 -0.784574 0)
(0.655809 0.0779727 5.8878e-20)
(1.01659 -0.0155034 1.0569e-21)
(0.173194 0.0182613 0)
(0.997294 -0.00783914 -3.76648e-21)
(1.00428 -0.00508426 1.08833e-21)
(0.97327 -0.0209193 -9.70605e-21)
(1.01964 -0.000297252 1.50901e-23)
(0.999867 -0.00200801 7.61154e-21)
(0.602247 0.0781554 -4.13623e-20)
(0.752483 0.0643429 1.355e-20)
(1.04306 -0.0206533 5.3805e-21)
(1.00086 -0.000759097 -6.15096e-22)
(1.11409 -0.0289117 0)
(1.01466 -0.0220832 2.48504e-22)
(-0.151035 -0.025755 -1.46416e-19)
(1.21767 -0.0982234 -9.10124e-21)
(0.136317 0.0117077 -4.15667e-21)
(0.0168865 0.022481 0)
(1.06656 -0.0289815 1.80929e-20)
(1.09252 0.0430456 -2.63682e-22)
(0.999621 -0.00893723 5.97464e-21)
(1.10539 -0.000418792 -3.53163e-20)
(0.992458 -0.345234 0)
(1.0358 -0.00759899 4.95996e-21)
(1.00032 -0.00114394 3.82964e-21)
(1.28593 -0.29342 0)
(-0.244451 0.00242818 9.16308e-20)
(1.11678 0.0187259 5.72115e-20)
(-0.333216 -0.00827269 6.89942e-20)
(1.10259 0.0247856 0)
(0.995729 -0.00200202 4.45858e-21)
(1.11808 -0.0398125 -3.2224e-20)
(1.09604 0.0355122 -2.72385e-21)
(-0.301909 -0.00242701 -9.45165e-20)
(1.09269 -0.00780642 0)
(1.10316 0.0497636 4.53952e-20)
(1.12632 0.0285826 -6.52485e-20)
(1.00019 -0.00218354 -4.85546e-21)
(0.402651 -0.129088 4.53577e-20)
(0.297248 -0.0924742 0)
(0.264548 0.00790657 1.04786e-20)
(1.27393 0.0124331 8.16414e-20)
(0.956336 0.0503997 -1.01053e-20)
(0.977405 -0.0679069 3.93918e-21)
(0.727993 -0.346612 2.63615e-20)
(0.97228 -0.00153152 4.71249e-21)
(1.11861 0.0669575 -4.17403e-20)
(1.05197 -0.0807289 0)
(1.00762 -0.00147799 1.40132e-22)
(0.60822 0.0777062 -7.10361e-20)
(1.01725 -0.0602049 1.91812e-22)
(1.00367 -0.00254232 -2.76209e-21)
(1.01109 -0.0387337 3.59068e-21)
(1.01592 -0.0585132 -7.29476e-22)
(0.0112093 0.0311211 -1.25538e-19)
(1.1787 0.0432608 -3.46247e-20)
(1.01119 -0.0141786 1.48789e-22)
(1.11979 -0.0372188 0)
(0.100504 0.00846072 6.06255e-20)
(1.03445 -0.0555048 0)
(-0.347461 -0.00619298 -1.26417e-19)
(0.956666 -0.0398576 -5.77202e-22)
(1.10239 0.0322186 -2.53955e-20)
(0.143541 0.0493955 0)
(1.0011 -0.00643117 1.46597e-21)
(1.08869 0.0492947 2.22174e-21)
(1.06154 -0.0952466 -6.03587e-21)
(1.09868 -0.0475034 1.00835e-20)
(0.684066 -0.811755 0)
(1.01959 -0.0596202 2.49384e-22)
(1.25173 -0.0677735 -1.19215e-19)
(1.08212 0.0350061 -2.40112e-20)
(0.23969 0.0540755 5.57301e-20)
(1.04444 -0.00595512 1.53473e-20)
(0.305627 0.0075802 2.49855e-21)
(1.09273 -0.0274009 -2.55793e-20)
(0.0945263 0.0197199 0)
(-0.287645 0.000110556 -8.45153e-20)
(0.282414 0.00433337 -2.44089e-20)
(1.09653 0.0149973 0)
(0.989346 -0.0219443 -5.00012e-21)
(1.02504 -0.0420356 4.34491e-21)
(0.999963 -0.00108497 0)
(1.0734 0.0259707 1.63615e-20)
(0.996922 -0.00192396 0)
(0.214904 0.0451239 -2.45252e-20)
(1.02556 -0.111203 0)
(0.924191 -0.0829982 -2.11829e-20)
(0.888652 -0.04891 7.49079e-20)
(0.979469 -0.0665896 0)
(1.01622 -0.0149574 -1.80261e-21)
(1.06289 0.0129492 -8.69872e-21)
(1.05863 -0.0816814 -1.54237e-20)