/*--------------------------------*- C++ -*----------------------------------*\
| =========                 |                                                 |
| \\      /  F ield         | OpenFOAM: The Open Source CFD Toolbox           |
|  \\    /   O peration     | Version:  v2012                                 |
|   \\  /    A nd           | Website:  www.openfoam.com                      |
|    \\/     M anipulation  |                                                 |
\*---------------------------------------------------------------------------*/
FoamFile
{
    version     2.0;
    format      ascii;
    class       volVectorField;
    location    "250";
    object      cellDisplacement;
}
// * * * * * * * * * * * * * * * * * * * * * * * * * * * * * * * * * * * * * //

dimensions      [0 1 0 0 0 0 0];


internalField   nonuniform List<vector> 
13917
(
(0 0.0397528 0)
(0 0.0367226 0)
(0 0.0400009 0)
(0 0.037969 0)
(0 0.0237478 0)
(0 0.0399997 0)
(0 0.0400013 0)
(0 0.0400008 0)
(0 0.0400011 0)
(0 0.0398986 0)
(0 0.0399756 0)
(0 0.0398761 0)
(0 0.0380642 0)
(0 0.0400021 0)
(0 0.0393324 0)
(0 0.0391477 0)
(0 0.0371684 0)
(0 0.0398303 0)
(0 0.0398684 0)
(0 0.013279 0)
(0 0.00447362 0)
(0 0.0400014 0)
(0 0.0196096 0)
(0 0.0400005 0)
(0 0.0308078 0)
(0 0.0400013 0)
(0 0.0398873 0)
(0 0.0399385 0)
(0 0.04 0)
(0 0.0399426 0)
(0 0.0397716 0)
(0 0.0393685 0)
(0 0.0398134 0)
(0 0.039286 0)
(0 0.0316011 0)
(0 0.0399937 0)
(0 0.0188396 0)
(0 0.0400021 0)
(0 0.03871 0)
(0 0.0400021 0)
(0 0.00315317 0)
(0 0.0018119 0)
(0 0.0183214 0)
(0 0.0399754 0)
(0 0.0359098 0)
(0 0.039501 0)
(0 0.0398213 0)
(0 0.0398947 0)
(0 0.040002 0)
(0 0.00313873 0)
(0 0.0391533 0)
(0 0.0372192 0)
(0 0.040002 0)
(0 0.0393477 0)
(0 0.0372757 0)
(0 0.0391922 0)
(0 0.0399736 0)
(0 0.0351512 0)
(0 0.0388963 0)
(0 0.0356709 0)
(0 0.0400003 0)
(0 0.0367613 0)
(0 0.0400021 0)
(0 0.0140885 0)
(0 0.0399991 0)
(0 0.0400004 0)
(0 0.0246574 0)
(0 0.0316941 0)
(0 0.0399764 0)
(0 0.0397207 0)
(0 0.0231153 0)
(0 0.0400009 0)
(0 0.0400021 0)
(0 0.0304167 0)
(0 0.040002 0)
(0 0.0399041 0)
(0 0.0400021 0)
(0 0.0376516 0)
(0 0.0400014 0)
(0 0.00831951 0)
(0 0.0101294 0)
(0 0.0236664 0)
(0 0.0399988 0)
(0 0.040002 0)
(0 0.0400019 0)
(0 0.0375132 0)
(0 0.0120451 0)
(0 0.0400001 0)
(0 0.0391 0)
(0 0.0191468 0)
(0 0.0400021 0)
(0 0.0399312 0)
(0 0.0333915 0)
(0 0.0384172 0)
(0 0.0400003 0)
(0 0.039999 0)
(0 0.0399585 0)
(0 0.0398757 0)
(0 0.0399668 0)
(0 0.0399839 0)
(0 0.0165897 0)
(0 0.0397491 0)
(0 0.0399746 0)
(0 0.0380187 0)
(0 0.0263849 0)
(0 0.0400007 0)
(0 0.0399977 0)
(0 0.0399035 0)
(0 0.0372456 0)
(0 0.0398071 0)
(0 0.0400021 0)
(0 0.0400021 0)
(0 0.0399242 0)
(0 0.0400009 0)
(0 0.0383374 0)
(0 0.0400021 0)
(0 0.027304 0)
(0 0.0400017 0)
(0 0.0400021 0)
(0 0.0393429 0)
(0 0.00350979 0)
(0 0.0399747 0)
(0 0.0400021 0)
(0 0.0399298 0)
(0 0.00287526 0)
(0 0.0382876 0)
(0 0.0357814 0)
(0 0.00232202 0)
(0 0.0109335 0)
(0 0.0399996 0)
(0 0.040002 0)
(0 0.0382124 0)
(0 0.0360827 0)
(0 0.00367327 0)
(0 0.0399952 0)
(0 0.0400004 0)
(0 0.0397603 0)
(0 0.0399871 0)
(0 0.0251469 0)
(0 0.039325 0)
(0 0.0399913 0)
(0 0.0300578 0)
(0 0.0377704 0)
(0 0.0399827 0)
(0 0.0319836 0)
(0 0.0399999 0)
(0 0.0399998 0)
(0 0.0370453 0)
(0 0.0284718 0)
(0 0.0394366 0)
(0 0.0398409 0)
(0 0.0400021 0)
(0 0.0399275 0)
(0 0.0398238 0)
(0 0.0392494 0)
(0 0.0400019 0)
(0 0.0396993 0)
(0 0.0399959 0)
(0 0.0400021 0)
(0 0.0399952 0)
(0 0.038998 0)
(0 0.0398825 0)
(0 0.00756327 0)
(0 0.039955 0)
(0 0.0399189 0)
(0 0.0399639 0)
(0 0.03797 0)
(0 0.0398596 0)
(0 0.0343678 0)
(0 0.0397719 0)
(0 0.0398173 0)
(0 0.0400021 0)
(0 0.0399335 0)
(0 0.0379128 0)
(0 0.0399992 0)
(0 0.0398709 0)
(0 0.040002 0)
(0 0.0400019 0)
(0 0.0399997 0)
(0 0.0334947 0)
(0 0.0399355 0)
(0 0.0397876 0)
(0 0.0300489 0)
(0 0.0128226 0)
(0 0.0396375 0)
(0 0.0400011 0)
(0 0.0399856 0)
(0 0.0400018 0)
(0 0.0396508 0)
(0 0.0399618 0)
(0 0.0399921 0)
(0 0.0400018 0)
(0 0.0399858 0)
(0 0.0207988 0)
(0 0.0399875 0)
(0 0.0398731 0)
(0 0.00107898 0)
(0 0.0336951 0)
(0 0.0399934 0)
(0 0.0400001 0)
(0 0.0389831 0)
(0 0.00294737 0)
(0 0.0398325 0)
(0 0.0398326 0)
(0 0.0400021 0)
(0 0.0399939 0)
(0 0.0312265 0)
(0 0.0354396 0)
(0 0.0398708 0)
(0 0.0400009 0)
(0 0.037632 0)
(0 0.0400013 0)
(0 0.0400021 0)
(0 0.0399596 0)
(0 0.0265072 0)
(0 0.04 0)
(0 0.0398377 0)
(0 0.0400021 0)
(0 0.0300455 0)
(0 0.0399998 0)
(0 0.0331257 0)
(0 0.0399315 0)
(0 0.00374977 0)
(0 0.040002 0)
(0 0.0400008 0)
(0 0.0392114 0)
(0 0.0399991 0)
(0 0.0392855 0)
(0 0.0259249 0)
(0 0.0399929 0)
(0 0.039929 0)
(0 0.0396383 0)
(0 0.0400004 0)
(0 0.0400021 0)
(0 0.0104559 0)
(0 0.0394062 0)
(0 0.040002 0)
(0 0.040002 0)
(0 0.00853837 0)
(0 0.0207821 0)
(0 0.0400021 0)
(0 0.039966 0)
(0 0.000535428 0)
(0 0.0399896 0)
(0 0.0399352 0)
(0 0.0398703 0)
(0 0.0396921 0)
(0 0.00813137 0)
(0 0.0398769 0)
(0 0.0400021 0)
(0 0.0347417 0)
(0 0.0399553 0)
(0 0.0399907 0)
(0 0.0355686 0)
(0 0.0349177 0)
(0 0.0398903 0)
(0 0.0400021 0)
(0 0.0399207 0)
(0 0.0396642 0)
(0 0.0393494 0)
(0 0.000909098 0)
(0 0.0400021 0)
(0 0.0399998 0)
(0 0.0399915 0)
(0 0.026053 0)
(0 0.0400021 0)
(0 0.0400021 0)
(0 0.0399967 0)
(0 0.0400015 0)
(0 0.0399139 0)
(0 0.00971439 0)
(0 0.00345954 0)
(0 0.0398226 0)
(0 0.0400021 0)
(0 0.0399569 0)
(0 0.0388215 0)
(0 0.0399948 0)
(0 0.0396889 0)
(0 0.00840817 0)
(0 0.0399984 0)
(0 0.0130608 0)
(0 0.0399995 0)
(0 0.0389093 0)
(0 0.000535358 0)
(0 0.0394347 0)
(0 0.0398328 0)
(0 0.0398824 0)
(0 0.0399907 0)
(0 0.0396986 0)
(0 0.0355287 0)
(0 0.0399909 0)
(0 0.0400003 0)
(0 0.0400002 0)
(0 0.0296886 0)
(0 0.0399971 0)
(0 0.0171089 0)
(0 0.0355022 0)
(0 0.0266359 0)
(0 0.0400004 0)
(0 0.00305259 0)
(0 0.0399383 0)
(0 0.0396708 0)
(0 0.034081 0)
(0 0.0398413 0)
(0 0.038304 0)
(0 0.040002 0)
(0 0.0398573 0)
(0 0.0399225 0)
(0 0.0324031 0)
(0 0.0346017 0)
(0 0.0400021 0)
(0 0.0400021 0)
(0 0.0277596 0)
(0 0.00379249 0)
(0 0.039998 0)
(0 0.0331662 0)
(0 0.0400021 0)
(0 0.0320757 0)
(0 0.040002 0)
(0 0.0365772 0)
(0 0.039992 0)
(0 0.0395483 0)
(0 0.040002 0)
(0 0.0389165 0)
(0 0.0399943 0)
(0 0.0399981 0)
(0 0.0394037 0)
(0 0.0399652 0)
(0 0.0399974 0)
(0 0.0371412 0)
(0 0.0400021 0)
(0 0.0399863 0)
(0 0.0400021 0)
(0 0.0391447 0)
(0 0.0400021 0)
(0 0.0394383 0)
(0 0.0400018 0)
(0 0.0399967 0)
(0 0.03998 0)
(0 0.0399776 0)
(0 0.0400011 0)
(0 0.0109538 0)
(0 0.0398313 0)
(0 0.040002 0)
(0 0.0365237 0)
(0 0.0387012 0)
(0 0.0400021 0)
(0 0.0399955 0)
(0 0.0377103 0)
(0 0.0399907 0)
(0 0.0399997 0)
(0 0.0144225 0)
(0 0.0400021 0)
(0 0.0399925 0)
(0 0.0138519 0)
(0 0.0255361 0)
(0 0.0163109 0)
(0 0.02847 0)
(0 0.03999 0)
(0 0.0399995 0)
(0 0.0400003 0)
(0 0.040002 0)
(0 0.0291917 0)
(0 0.0399601 0)
(0 0.0400021 0)
(0 0.0397307 0)
(0 0.0400014 0)
(0 0.0400021 0)
(0 0.0400009 0)
(0 0.0169282 0)
(0 0.0399903 0)
(0 0.0253581 0)
(0 0.0399993 0)
(0 0.035631 0)
(0 0.0400021 0)
(0 0.0399381 0)
(0 0.0385643 0)
(0 0.0131053 0)
(0 0.0398583 0)
(0 0.0399421 0)
(0 0.0399028 0)
(0 0.0400021 0)
(0 0.0400019 0)
(0 0.0400021 0)
(0 0.0398898 0)
(0 0.039888 0)
(0 0.020165 0)
(0 0.0400019 0)
(0 0.0400014 0)
(0 0.0355759 0)
(0 0.0399931 0)
(0 0.0284696 0)
(0 0.0399881 0)
(0 0.0365253 0)
(0 0.00952035 0)
(0 0.0383504 0)
(0 0.0400014 0)
(0 0.0383393 0)
(0 0.0400021 0)
(0 0.040002 0)
(0 0.0399692 0)
(0 0.0399993 0)
(0 0.037035 0)
(0 0.0399995 0)
(0 0.0399991 0)
(0 0.022459 0)
(0 0.0399962 0)
(0 0.0363427 0)
(0 0.0301673 0)
(0 0.0399413 0)
(0 0.00130871 0)
(0 0.0312618 0)
(0 0.0250753 0)
(0 0.0399881 0)
(0 0.00678806 0)
(0 0.0400021 0)
(0 0.0400008 0)
(0 0.0400021 0)
(0 0.039985 0)
(0 0.040002 0)
(0 0.0400021 0)
(0 0.0397152 0)
(0 0.0286298 0)
(0 0.0399721 0)
(0 0.0386479 0)
(0 0.0394895 0)
(0 0.0216777 0)
(0 0.0399998 0)
(0 0.0400012 0)
(0 0.0400004 0)
(0 0.0391748 0)
(0 0.0399485 0)
(0 0.0390711 0)
(0 0.0388016 0)
(0 0.0398984 0)
(0 0.0382711 0)
(0 0.039991 0)
(0 0.0371318 0)
(0 0.00367993 0)
(0 0.040002 0)
(0 0.040002 0)
(0 0.040002 0)
(0 0.039965 0)
(0 0.0400021 0)
(0 0.040002 0)
(0 0.040002 0)
(0 0.0400021 0)
(0 0.0105933 0)
(0 0.0398483 0)
(0 0.0382411 0)
(0 0.0357778 0)
(0 0.039993 0)
(0 0.0398301 0)
(0 0.00385424 0)
(0 0.0398715 0)
(0 0.0396939 0)
(0 0.0400021 0)
(0 0.0230634 0)
(0 0.039954 0)
(0 0.040002 0)
(0 0.0399954 0)
(0 0.0400021 0)
(0 0.00611631 0)
(0 0.0357053 0)
(0 0.00195205 0)
(0 0.0397001 0)
(0 0.0160754 0)
(0 0.0400008 0)
(0 0.0399998 0)
(0 0.0396714 0)
(0 0.0400019 0)
(0 0.0391677 0)
(0 0.0399569 0)
(0 0.0400019 0)
(0 0.0399993 0)
(0 0.0399673 0)
(0 0.0399922 0)
(0 0.0399565 0)
(0 0.0398659 0)
(0 0.0399716 0)
(0 0.0397226 0)
(0 0.0399755 0)
(0 0.0399995 0)
(0 0.0397711 0)
(0 0.03992 0)
(0 0.00365666 0)
(0 0.0399942 0)
(0 0.0392259 0)
(0 0.0299323 0)
(0 0.0396773 0)
(0 0.0377886 0)
(0 0.0400021 0)
(0 0.0400008 0)
(0 0.0328028 0)
(0 0.00686204 0)
(0 0.0400006 0)
(0 0.0400021 0)
(0 0.0010309 0)
(0 0.0400021 0)
(0 0.0375657 0)
(0 0.0399793 0)
(0 0.0333647 0)
(0 0.0400021 0)
(0 0.039995 0)
(0 0.0394265 0)
(0 0.0370705 0)
(0 0.040002 0)
(0 0.0399829 0)
(0 0.0400021 0)
(0 0.0011633 0)
(0 0.0400021 0)
(0 0.0400019 0)
(0 0.0399982 0)
(0 0.0300899 0)
(0 0.0400019 0)
(0 0.040001 0)
(0 0.0397319 0)
(0 0.0256587 0)
(0 0.0372183 0)
(0 0.0399027 0)
(0 0.0399899 0)
(0 0.00485851 0)
(0 0.0248352 0)
(0 0.00791695 0)
(0 0.00829178 0)
(0 0.0400021 0)
(0 0.0399927 0)
(0 0.0397158 0)
(0 0.0399848 0)
(0 0.00252751 0)
(0 0.0159178 0)
(0 0.0399449 0)
(0 0.0400015 0)
(0 0.0395689 0)
(0 0.0346394 0)
(0 0.0302913 0)
(0 0.0285581 0)
(0 0.0399986 0)
(0 0.0400016 0)
(0 0.0113084 0)
(0 0.0285543 0)
(0 0.0399901 0)
(0 0.0397109 0)
(0 0.0395457 0)
(0 0.0355433 0)
(0 0.0384086 0)
(0 0.0393301 0)
(0 0.0399163 0)
(0 0.0399961 0)
(0 0.0399865 0)
(0 0.0399742 0)
(0 0.0399415 0)
(0 0.0399944 0)
(0 0.0399189 0)
(0 0.0295083 0)
(0 0.0400021 0)
(0 0.0282122 0)
(0 0.0387917 0)
(0 0.0385036 0)
(0 0.0399939 0)
(0 0.0399564 0)
(0 0.00499842 0)
(0 0.0399947 0)
(0 0.0399518 0)
(0 0.0400021 0)
(0 0.039941 0)
(0 0.0398175 0)
(0 0.0397176 0)
(0 0.0141031 0)
(0 0.0400004 0)
(0 0.0399928 0)
(0 0.0400016 0)
(0 0.0369189 0)
(0 0.0394122 0)
(0 0.039986 0)
(0 0.0400021 0)
(0 0.0400021 0)
(0 0.0398866 0)
(0 0.0399695 0)
(0 0.0391375 0)
(0 0.0387289 0)
(0 0.0357004 0)
(0 0.0399335 0)
(0 0.0399787 0)
(0 0.0360624 0)
(0 0.0398306 0)
(0 0.0399899 0)
(0 0.0400016 0)
(0 0.0400021 0)
(0 0.0388202 0)
(0 0.0399541 0)
(0 0.0399942 0)
(0 0.0395111 0)
(0 0.0374597 0)
(0 0.0400021 0)
(0 0.0399999 0)
(0 0.0400003 0)
(0 0.0399837 0)
(0 0.0118295 0)
(0 0.0400021 0)
(0 0.0398982 0)
(0 0.0037546 0)
(0 0.0395309 0)
(0 0.0399094 0)
(0 0.0397924 0)
(0 0.0399382 0)
(0 0.0400014 0)
(0 0.0399691 0)
(0 0.0396423 0)
(0 0.0400004 0)
(0 0.0380924 0)
(0 0.0400021 0)
(0 0.00792991 0)
(0 0.0120838 0)
(0 0.0399974 0)
(0 0.04 0)
(0 0.0400002 0)
(0 0.0380932 0)
(0 0.037787 0)
(0 0.028197 0)
(0 0.0397045 0)
(0 0.040002 0)
(0 0.0399598 0)
(0 0.0387955 0)
(0 0.0399632 0)
(0 0.0398526 0)
(0 0.0336373 0)
(0 0.039999 0)
(0 0.0399575 0)
(0 0.0399913 0)
(0 0.0305605 0)
(0 0.0399681 0)
(0 0.0377664 0)
(0 0.0400019 0)
(0 0.0399028 0)
(0 0.0399529 0)
(0 0.0394363 0)
(0 0.00920947 0)
(0 0.0290909 0)
(0 0.0359896 0)
(0 0.0399782 0)
(0 0.039521 0)
(0 0.0399859 0)
(0 0.0400021 0)
(0 0.0398523 0)
(0 0.0141538 0)
(0 0.0399683 0)
(0 0.0400005 0)
(0 0.0399944 0)
(0 0.0345186 0)
(0 0.0394634 0)
(0 0.0246829 0)
(0 0.039275 0)
(0 0.0389604 0)
(0 0.0400011 0)
(0 0.00921071 0)
(0 0.0399999 0)
(0 0.0392445 0)
(0 0.0399753 0)
(0 0.0399332 0)
(0 0.0400021 0)
(0 0.0399529 0)
(0 0.0370423 0)
(0 0.0400021 0)
(0 0.0400021 0)
(0 0.0355706 0)
(0 0.038452 0)
(0 0.0399949 0)
(0 0.039981 0)
(0 0.0399539 0)
(0 0.00147832 0)
(0 0.0371408 0)
(0 0.0399898 0)
(0 0.0386329 0)
(0 0.0398979 0)
(0 0.0398789 0)
(0 0.0294751 0)
(0 0.0398324 0)
(0 0.0400008 0)
(0 0.0343847 0)
(0 0.0375245 0)
(0 0.00829606 0)
(0 0.0400021 0)
(0 0.00466313 0)
(0 0.0391007 0)
(0 0.0400021 0)
(0 0.0386359 0)
(0 0.0399997 0)
(0 0.0392673 0)
(0 0.0398328 0)
(0 0.00865447 0)
(0 0.0398927 0)
(0 0.0261421 0)
(0 0.0398622 0)
(0 0.0061131 0)
(0 0.0399521 0)
(0 0.0375212 0)
(0 0.0400018 0)
(0 0.0400019 0)
(0 0.0400016 0)
(0 0.00198316 0)
(0 0.0119017 0)
(0 0.0399094 0)
(0 0.0398218 0)
(0 0.0400021 0)
(0 0.0400013 0)
(0 0.0398288 0)
(0 0.0306456 0)
(0 0.0399869 0)
(0 0.0400006 0)
(0 0.0399905 0)
(0 0.0399839 0)
(0 0.0398079 0)
(0 0.0400013 0)
(0 0.039752 0)
(0 0.0396615 0)
(0 0.0399648 0)
(0 0.0399919 0)
(0 0.0398179 0)
(0 0.0400014 0)
(0 0.0398144 0)
(0 0.0380399 0)
(0 0.0399173 0)
(0 0.0394286 0)
(0 0.0320189 0)
(0 0.0392436 0)
(0 0.0398007 0)
(0 0.0394001 0)
(0 0.0266808 0)
(0 0.00270934 0)
(0 0.0398533 0)
(0 0.0380709 0)
(0 0.0399036 0)
(0 0.0301819 0)
(0 0.0276909 0)
(0 0.00382833 0)
(0 0.0384092 0)
(0 0.0222502 0)
(0 0.0391818 0)
(0 0.00865563 0)
(0 0.0400021 0)
(0 0.0398671 0)
(0 0.0399985 0)
(0 0.0157964 0)
(0 0.00547307 0)
(0 0.0399188 0)
(0 0.0398751 0)
(0 0.0380435 0)
(0 0.039999 0)
(0 0.0399336 0)
(0 0.0399987 0)
(0 0.0392696 0)
(0 0.0399576 0)
(0 0.0369827 0)
(0 0.00410488 0)
(0 0.00753537 0)
(0 0.0383266 0)
(0 0.0400021 0)
(0 0.00472503 0)
(0 0.039996 0)
(0 0.03924 0)
(0 0.0400021 0)
(0 0.0399072 0)
(0 0.0399367 0)
(0 0.0399733 0)
(0 0.0234903 0)
(0 0.000168255 0)
(0 0.0398748 0)
(0 0.031729 0)
(0 0.0374838 0)
(0 0.0399982 0)
(0 0.0380398 0)
(0 0.0162515 0)
(0 0.0393133 0)
(0 0.0188988 0)
(0 0.0058141 0)
(0 0.0393761 0)
(0 0.0395569 0)
(0 0.0400021 0)
(0 0.0396562 0)
(0 0.0343957 0)
(0 0.0038569 0)
(0 0.040002 0)
(0 0.0399803 0)
(0 0.0367359 0)
(0 0.0368137 0)
(0 0.0399985 0)
(0 0.0399946 0)
(0 0.0400021 0)
(0 0.0398061 0)
(0 0.0380836 0)
(0 0.0106968 0)
(0 0.00687832 0)
(0 0.0397828 0)
(0 0.0396789 0)
(0 0.0399891 0)
(0 0.0392069 0)
(0 0.0400021 0)
(0 0.0370993 0)
(0 0.0387745 0)
(0 0.0400021 0)
(0 0.0282639 0)
(0 0.039258 0)
(0 0.0348676 0)
(0 0.0045259 0)
(0 0.039793 0)
(0 0.0398952 0)
(0 0.0372669 0)
(0 0.04 0)
(0 0.0400021 0)
(0 0.0399357 0)
(0 0.0298442 0)
(0 0.0254522 0)
(0 0.0399587 0)
(0 0.0399956 0)
(0 0.00159201 0)
(0 0.0399933 0)
(0 0.02492 0)
(0 0.0397787 0)
(0 0.0325167 0)
(0 0.0326822 0)
(0 0.0399912 0)
(0 0.0352013 0)
(0 0.0399967 0)
(0 0.0397249 0)
(0 0.00392889 0)
(0 0.0191464 0)
(0 0.0343677 0)
(0 0.0306744 0)
(0 0.0374165 0)
(0 0.040002 0)
(0 0.0339809 0)
(0 0.031738 0)
(0 0.0400013 0)
(0 0.0400003 0)
(0 0.0396713 0)
(0 0.0398087 0)
(0 0.0398898 0)
(0 0.0388711 0)
(0 0.0305308 0)
(0 0.0395249 0)
(0 0.0400021 0)
(0 0.0399559 0)
(0 0.0206608 0)
(0 0.0369013 0)
(0 0.0400012 0)
(0 0.039638 0)
(0 0.040002 0)
(0 0.00483164 0)
(0 0.038179 0)
(0 0.0400021 0)
(0 0.0395672 0)
(0 0.0373815 0)
(0 0.0400021 0)
(0 0.0400017 0)
(0 0.0303825 0)
(0 0.0399607 0)
(0 0.00800802 0)
(0 0.0349823 0)
(0 0.0166482 0)
(0 0.0400021 0)
(0 0.0214915 0)
(0 0.0345334 0)
(0 0.0305269 0)
(0 0.0399977 0)
(0 0.0385548 0)
(0 0.0399803 0)
(0 0.039957 0)
(0 0.0327526 0)
(0 0.0397591 0)
(0 0.0107985 0)
(0 0.040002 0)
(0 0.0224947 0)
(0 0.0341957 0)
(0 0.0161574 0)
(0 0.0399614 0)
(0 0.0168551 0)
(0 0.0399705 0)
(0 0.0400021 0)
(0 0.0400002 0)
(0 0.0394207 0)
(0 0.0399921 0)
(0 0.0400021 0)
(0 0.0344976 0)
(0 0.0400021 0)
(0 0.0400006 0)
(0 0.0400021 0)
(0 0.040002 0)
(0 0.0400014 0)
(0 0.040002 0)
(0 0.0399651 0)
(0 0.03729 0)
(0 0.0400015 0)
(0 0.0395518 0)
(0 0.0400015 0)
(0 0.0297167 0)
(0 0.0333903 0)
(0 0.0368304 0)
(0 0.0115128 0)
(0 0.0390297 0)
(0 0.0397032 0)
(0 0.0400021 0)
(0 0.0330728 0)
(0 0.0274538 0)
(0 0.0400021 0)
(0 0.0399934 0)
(0 0.0343172 0)
(0 0.0398494 0)
(0 0.0394338 0)
(0 0.0364497 0)
(0 0.0400018 0)
(0 0.039855 0)
(0 0.0388704 0)
(0 0.0385407 0)
(0 0.0400021 0)
(0 0.0400021 0)
(0 0.0400016 0)
(0 0.0322509 0)
(0 0.0399821 0)
(0 0.0399482 0)
(0 0.0400021 0)
(0 0.040001 0)
(0 0.0399276 0)
(0 0.0334284 0)
(0 0.0371266 0)
(0 0.0370758 0)
(0 0.00762383 0)
(0 0.0384635 0)
(0 0.00929819 0)
(0 0.0393125 0)
(0 0.0397411 0)
(0 0.0400018 0)
(0 0.0399643 0)
(0 0.0346165 0)
(0 0.0399543 0)
(0 0.040002 0)
(0 0.03977 0)
(0 0.0370747 0)
(0 0.0400021 0)
(0 0.0337705 0)
(0 0.0373073 0)
(0 0.0398482 0)
(0 0.0400017 0)
(0 0.0169604 0)
(0 0.0308 0)
(0 0.0400013 0)
(0 0.0399905 0)
(0 0.0399937 0)
(0 0.0399489 0)
(0 0.0399933 0)
(0 0.0300535 0)
(0 0.0399743 0)
(0 0.037266 0)
(0 0.0231279 0)
(0 0.0372731 0)
(0 0.040001 0)
(0 0.0400021 0)
(0 0.0318995 0)
(0 0.0199022 0)
(0 0.0351629 0)
(0 0.0399954 0)
(0 0.0383147 0)
(0 0.0394166 0)
(0 0.031205 0)
(0 0.0375435 0)
(0 0.0399725 0)
(0 0.0330201 0)
(0 0.0398702 0)
(0 0.0399915 0)
(0 0.040002 0)
(0 0.0353406 0)
(0 0.0399523 0)
(0 0.0388968 0)
(0 0.0400021 0)
(0 0.040002 0)
(0 0.0308267 0)
(0 0.0400021 0)
(0 0.0398998 0)
(0 0.0400016 0)
(0 0.0171105 0)
(0 0.0400015 0)
(0 0.00812555 0)
(0 0.0391636 0)
(0 0.0397919 0)
(0 0.0399476 0)
(0 0.0400008 0)
(0 0.039992 0)
(0 0.0399783 0)
(0 0.04 0)
(0 0.00847258 0)
(0 0.0399876 0)
(0 0.0325927 0)
(0 0.0393992 0)
(0 0.0400014 0)
(0 0.03596 0)
(0 0.00711676 0)
(0 0.0379702 0)
(0 0.036402 0)
(0 0.0400019 0)
(0 0.0212351 0)
(0 0.020367 0)
(0 0.0398409 0)
(0 0.0398056 0)
(0 0.0398056 0)
(0 0.0400002 0)
(0 0.0399639 0)
(0 0.0400021 0)
(0 0.0398663 0)
(0 0.0396144 0)
(0 0.039643 0)
(0 0.0400021 0)
(0 0.0396847 0)
(0 0.0399997 0)
(0 0.0400014 0)
(0 0.0388644 0)
(0 0.0331336 0)
(0 0.040002 0)
(0 0.0399908 0)
(0 0.0370426 0)
(0 0.0399502 0)
(0 0.0395895 0)
(0 0.0365023 0)
(0 0.0390761 0)
(0 0.0365641 0)
(0 0.0397851 0)
(0 0.000385209 0)
(0 0.0398004 0)
(0 0.0399854 0)
(0 0.0251237 0)
(0 0.0398696 0)
(0 0.0328092 0)
(0 0.039938 0)
(0 0.00721836 0)
(0 0.0393667 0)
(0 0.0398543 0)
(0 0.0381761 0)
(0 0.0358326 0)
(0 0.0319943 0)
(0 0.0400018 0)
(0 0.0399266 0)
(0 0.0399996 0)
(0 0.031665 0)
(0 0.0364604 0)
(0 0.0398601 0)
(0 0.0347164 0)
(0 0.0399342 0)
(0 0.0399317 0)
(0 0.0364578 0)
(0 0.039939 0)
(0 0.0324739 0)
(0 0.0399993 0)
(0 0.0368587 0)
(0 0.0396255 0)
(0 0.0400021 0)
(0 0.0399868 0)
(0 0.030497 0)
(0 0.0387256 0)
(0 0.0400021 0)
(0 0.022794 0)
(0 0.0250272 0)
(0 0.040002 0)
(0 0.0400021 0)
(0 0.0389951 0)
(0 0.0399755 0)
(0 0.0132158 0)
(0 0.0357873 0)
(0 0.0400009 0)
(0 0.0381934 0)
(0 0.0236656 0)
(0 0.0399901 0)
(0 0.0329905 0)
(0 0.039995 0)
(0 0.0112647 0)
(0 0.0230779 0)
(0 0.0368461 0)
(0 0.0399666 0)
(0 0.0400021 0)
(0 0.0361088 0)
(0 0.0371656 0)
(0 0.029729 0)
(0 0.039296 0)
(0 0.00404995 0)
(0 0.0400011 0)
(0 0.0398587 0)
(0 0.00137967 0)
(0 0.0399996 0)
(0 0.0399035 0)
(0 0.039989 0)
(0 0.040002 0)
(0 0.0400021 0)
(0 0.0314676 0)
(0 0.0368756 0)
(0 0.0355998 0)
(0 0.0399995 0)
(0 0.0393728 0)
(0 0.0400021 0)
(0 0.0400021 0)
(0 0.0389078 0)
(0 0.0400015 0)
(0 0.0400019 0)
(0 0.0398028 0)
(0 0.0399721 0)
(0 0.0399451 0)
(0 0.0399993 0)
(0 0.0400007 0)
(0 0.0399444 0)
(0 0.0399961 0)
(0 0.040002 0)
(0 0.0398707 0)
(0 0.0391959 0)
(0 0.0400021 0)
(0 0.0399408 0)
(0 0.0299565 0)
(0 0.038132 0)
(0 0.0400002 0)
(0 0.0397846 0)
(0 0.032526 0)
(0 0.0399017 0)
(0 0.0399411 0)
(0 0.0397423 0)
(0 0.0400021 0)
(0 0.0387408 0)
(0 0.0399996 0)
(0 0.039656 0)
(0 0.0399901 0)
(0 0.0399579 0)
(0 0.0399834 0)
(0 0.0393914 0)
(0 0.0321448 0)
(0 0.0378175 0)
(0 0.0400006 0)
(0 0.0270097 0)
(0 0.0389599 0)
(0 0.00449217 0)
(0 0.0384425 0)
(0 0.0334464 0)
(0 0.0398001 0)
(0 0.0399733 0)
(0 0.0400018 0)
(0 0.0398991 0)
(0 0.0399494 0)
(0 0.0400002 0)
(0 0.0399952 0)
(0 0.0334708 0)
(0 0.0399952 0)
(0 0.0400008 0)
(0 0.027511 0)
(0 0.0252084 0)
(0 0.0394784 0)
(0 0.0400021 0)
(0 0.00691651 0)
(0 0.0398945 0)
(0 0.0399969 0)
(0 0.0398569 0)
(0 0.0346936 0)
(0 0.0377853 0)
(0 0.0333636 0)
(0 0.0399492 0)
(0 0.0398056 0)
(0 0.00899594 0)
(0 0.0400018 0)
(0 0.0400013 0)
(0 0.039862 0)
(0 0.0399941 0)
(0 0.0398778 0)
(0 0.0399993 0)
(0 0.0385581 0)
(0 0.0389385 0)
(0 0.0399999 0)
(0 0.0399945 0)
(0 0.0399322 0)
(0 0.0400017 0)
(0 0.0393971 0)
(0 0.00294351 0)
(0 0.0347804 0)
(0 0.036629 0)
(0 0.0328637 0)
(0 0.0379272 0)
(0 0.0398948 0)
(0 0.0305449 0)
(0 0.0399613 0)
(0 0.0195302 0)
(0 0.0393595 0)
(0 0.0321383 0)
(0 0.0399321 0)
(0 0.0399606 0)
(0 0.039995 0)
(0 0.0341552 0)
(0 0.0399841 0)
(0 0.0348195 0)
(0 0.0399996 0)
(0 0.0291216 0)
(0 0.0392693 0)
(0 0.021041 0)
(0 0.0399866 0)
(0 0.0400021 0)
(0 0.0399702 0)
(0 0.0307766 0)
(0 0.0399633 0)
(0 0.0355138 0)
(0 0.0394818 0)
(0 0.0400021 0)
(0 0.0347404 0)
(0 0.0372729 0)
(0 0.0397889 0)
(0 0.0395171 0)
(0 0.0400014 0)
(0 0.0308072 0)
(0 0.0395982 0)
(0 0.0376905 0)
(0 0.0260052 0)
(0 0.0397329 0)
(0 0.0376537 0)
(0 0.0135852 0)
(0 0.0387929 0)
(0 0.0400021 0)
(0 0.0388476 0)
(0 0.0399906 0)
(0 0.0400001 0)
(0 0.0398244 0)
(0 0.0400021 0)
(0 0.0387827 0)
(0 0.0126852 0)
(0 0.0396578 0)
(0 0.0400021 0)
(0 0.0379062 0)
(0 0.0397651 0)
(0 0.0397184 0)
(0 0.0399998 0)
(0 0.0301973 0)
(0 0.0400021 0)
(0 0.0398767 0)
(0 0.0398964 0)
(0 0.0272433 0)
(0 0.018662 0)
(0 0.0399763 0)
(0 0.0374528 0)
(0 0.00202881 0)
(0 0.0397817 0)
(0 0.0293922 0)
(0 0.0390683 0)
(0 0.0393936 0)
(0 0.0398968 0)
(0 0.0399977 0)
(0 0.0400012 0)
(0 0.0386532 0)
(0 0.0399083 0)
(0 0.0399959 0)
(0 0.0400021 0)
(0 0.0396428 0)
(0 0.0399964 0)
(0 0.0400021 0)
(0 0.0396901 0)
(0 0.0399998 0)
(0 0.0388241 0)
(0 0.0400015 0)
(0 0.0400021 0)
(0 0.0301891 0)
(0 0.00202969 0)
(0 0.0226239 0)
(0 0.0371264 0)
(0 0.0397909 0)
(0 0.0323297 0)
(0 0.0388528 0)
(0 0.0399268 0)
(0 0.03821 0)
(0 0.0397834 0)
(0 0.0400021 0)
(0 0.0396715 0)
(0 0.038547 0)
(0 0.0400011 0)
(0 0.0373973 0)
(0 0.0400021 0)
(0 0.0385193 0)
(0 0.0399346 0)
(0 0.0300011 0)
(0 0.0400021 0)
(0 0.0400021 0)
(0 0.0356172 0)
(0 0.0373393 0)
(0 0.0400012 0)
(0 0.0396415 0)
(0 0.0400021 0)
(0 0.0102952 0)
(0 0.0330876 0)
(0 0.0400015 0)
(0 0.0374015 0)
(0 0.0399026 0)
(0 0.040002 0)
(0 0.0281205 0)
(0 0.0398395 0)
(0 0.0394428 0)
(0 0.0194129 0)
(0 0.00388398 0)
(0 0.0400014 0)
(0 0.0400021 0)
(0 0.0367001 0)
(0 0.0382505 0)
(0 0.0355028 0)
(0 0.0392659 0)
(0 0.039823 0)
(0 0.0400021 0)
(0 0.038054 0)
(0 0.040002 0)
(0 0.039997 0)
(0 0.0399904 0)
(0 0.0399953 0)
(0 0.0373435 0)
(0 0.0399589 0)
(0 0.0399926 0)
(0 0.0396122 0)
(0 0.0272482 0)
(0 0.0398594 0)
(0 0.0400021 0)
(0 0.0386926 0)
(0 0.0399109 0)
(0 0.0400006 0)
(0 0.0400021 0)
(0 0.0399976 0)
(0 0.0392355 0)
(0 0.0370448 0)
(0 0.0078284 0)
(0 0.028287 0)
(0 0.0400021 0)
(0 0.0398386 0)
(0 0.0383681 0)
(0 0.0374864 0)
(0 0.0387452 0)
(0 0.00355243 0)
(0 0.0343956 0)
(0 0.0317041 0)
(0 0.0399025 0)
(0 0.0396257 0)
(0 0.0399995 0)
(0 0.0399116 0)
(0 0.040002 0)
(0 0.0400021 0)
(0 0.0396364 0)
(0 0.0398104 0)
(0 0.0164975 0)
(0 0.0394816 0)
(0 0.0400021 0)
(0 0.0365595 0)
(0 0.0386578 0)
(0 0.0398144 0)
(0 0.0399564 0)
(0 0.0399403 0)
(0 0.0400007 0)
(0 0.0399906 0)
(0 0.033775 0)
(0 0.0400021 0)
(0 0.0185851 0)
(0 0.0366244 0)
(0 0.0398972 0)
(0 0.00397453 0)
(0 0.0346888 0)
(0 0.0399753 0)
(0 0.0399992 0)
(0 0.0331638 0)
(0 0.0400003 0)
(0 0.0363371 0)
(0 0.0313615 0)
(0 0.0385765 0)
(0 0.040002 0)
(0 0.0394551 0)
(0 0.0384821 0)
(0 0.0400002 0)
(0 0.0380832 0)
(0 0.0399885 0)
(0 0.0400019 0)
(0 0.00148213 0)
(0 0.0399191 0)
(0 0.0107017 0)
(0 0.0400021 0)
(0 0.0399002 0)
(0 0.0320484 0)
(0 0.0400011 0)
(0 0.0398336 0)
(0 0.0399711 0)
(0 0.0027224 0)
(0 0.0400021 0)
(0 0.0396047 0)
(0 0.0399988 0)
(0 0.0374668 0)
(0 0.0399642 0)
(0 0.0400021 0)
(0 0.0316595 0)
(0 0.0400016 0)
(0 0.0358979 0)
(0 0.0398766 0)
(0 0.0399348 0)
(0 0.00111654 0)
(0 0.040002 0)
(0 0.0387344 0)
(0 0.0399537 0)
(0 0.0398538 0)
(0 0.0399807 0)
(0 0.039846 0)
(0 0.0398824 0)
(0 0.0379294 0)
(0 0.0400006 0)
(0 0.0396954 0)
(0 0.0400021 0)
(0 0.0396485 0)
(0 0.0398732 0)
(0 0.0350933 0)
(0 0.0397798 0)
(0 0.0345327 0)
(0 0.0398792 0)
(0 0.0400005 0)
(0 0.0380774 0)
(0 0.0304386 0)
(0 0.040002 0)
(0 0.0377109 0)
(0 0.0399967 0)
(0 0.0373005 0)
(0 0.0400005 0)
(0 0.0399912 0)
(0 0.0396643 0)
(0 0.0270238 0)
(0 0.0268474 0)
(0 0.023482 0)
(0 0.0116118 0)
(0 0.0399431 0)
(0 0.0399332 0)
(0 0.0398534 0)
(0 0.0391653 0)
(0 0.0129336 0)
(0 0.0399944 0)
(0 0.0382974 0)
(0 0.0396403 0)
(0 0.039995 0)
(0 0.0338943 0)
(0 0.0400019 0)
(0 0.0398137 0)
(0 0.039312 0)
(0 0.0400016 0)
(0 0.0400021 0)
(0 0.0399912 0)
(0 0.0400002 0)
(0 0.0399976 0)
(0 0.0303277 0)
(0 0.0399928 0)
(0 0.0400021 0)
(0 0.0399987 0)
(0 0.0102816 0)
(0 0.0366409 0)
(0 0.0399567 0)
(0 0.0400012 0)
(0 0.0400021 0)
(0 0.0399938 0)
(0 0.0362616 0)
(0 0.0399202 0)
(0 0.0397057 0)
(0 0.040002 0)
(0 0.0400021 0)
(0 0.0397198 0)
(0 0.0399622 0)
(0 0.0388165 0)
(0 0.0399295 0)
(0 0.0399312 0)
(0 0.0109874 0)
(0 0.0399452 0)
(0 0.0399987 0)
(0 0.0214195 0)
(0 0.039996 0)
(0 0.0043807 0)
(0 0.0349683 0)
(0 0.0400021 0)
(0 0.040002 0)
(0 0.015329 0)
(0 0.0364618 0)
(0 0.0374035 0)
(0 0.033079 0)
(0 0.0398811 0)
(0 0.0399763 0)
(0 0.0377461 0)
(0 0.0224891 0)
(0 0.0142717 0)
(0 0.0396888 0)
(0 0.039358 0)
(0 0.0393357 0)
(0 0.0399902 0)
(0 0.0320603 0)
(0 0.040002 0)
(0 0.0400021 0)
(0 0.0400018 0)
(0 0.0399906 0)
(0 0.0398292 0)
(0 0.0399933 0)
(0 0.0395537 0)
(0 0.0400015 0)
(0 0.0399947 0)
(0 0.0399977 0)
(0 0.0374599 0)
(0 0.0400011 0)
(0 0.0400021 0)
(0 0.0112247 0)
(0 0.0258498 0)
(0 0.0399443 0)
(0 0.0400019 0)
(0 0.0399989 0)
(0 0.0328814 0)
(0 0.0355444 0)
(0 0.040002 0)
(0 0.039999 0)
(0 0.039997 0)
(0 0.0387309 0)
(0 0.0389241 0)
(0 0.0400019 0)
(0 0.0367767 0)
(0 0.040002 0)
(0 0.0400018 0)
(0 0.039994 0)
(0 0.0399969 0)
(0 0.0349809 0)
(0 0.0307378 0)
(0 0.0100549 0)
(0 0.0393678 0)
(0 0.0400021 0)
(0 0.0396943 0)
(0 0.0388655 0)
(0 0.0379272 0)
(0 0.0399555 0)
(0 0.0400021 0)
(0 0.0396884 0)
(0 0.039999 0)
(0 0.0400021 0)
(0 0.0400021 0)
(0 0.0400019 0)
(0 0.0283503 0)
(0 0.00976845 0)
(0 0.0400003 0)
(0 0.0194275 0)
(0 0.0298119 0)
(0 0.0384476 0)
(0 0.0400021 0)
(0 0.0396561 0)
(0 0.0400017 0)
(0 0.0399607 0)
(0 0.0281181 0)
(0 0.0400015 0)
(0 0.0397112 0)
(0 0.0334271 0)
(0 0.0400021 0)
(0 0.0399933 0)
(0 0.0392039 0)
(0 0.0357825 0)
(0 0.0400021 0)
(0 0.0400019 0)
(0 0.0161479 0)
(0 0.0399992 0)
(0 0.0399974 0)
(0 0.0400016 0)
(0 0.0399968 0)
(0 0.0399363 0)
(0 0.0330418 0)
(0 0.0374333 0)
(0 0.0399983 0)
(0 0.0390421 0)
(0 0.0400001 0)
(0 0.0397496 0)
(0 0.0399966 0)
(0 0.0399895 0)
(0 0.0382368 0)
(0 0.0395957 0)
(0 0.0336811 0)
(0 0.038075 0)
(0 0.0400019 0)
(0 0.0400021 0)
(0 0.0282924 0)
(0 0.0400021 0)
(0 0.0397333 0)
(0 0.0356942 0)
(0 0.0391488 0)
(0 0.0274192 0)
(0 0.0399718 0)
(0 0.0373231 0)
(0 0.0400019 0)
(0 0.0399245 0)
(0 0.0329575 0)
(0 0.00503522 0)
(0 0.0399788 0)
(0 0.0400021 0)
(0 0.0396867 0)
(0 0.0388232 0)
(0 0.0397593 0)
(0 0.0342809 0)
(0 0.0381128 0)
(0 0.0391968 0)
(0 0.0400021 0)
(0 0.0400021 0)
(0 0.0400019 0)
(0 0.017981 0)
(0 0.00938525 0)
(0 0.0374369 0)
(0 0.0399599 0)
(0 0.0264245 0)
(0 0.037522 0)
(0 0.0399766 0)
(0 0.0398537 0)
(0 0.0399936 0)
(0 0.0296613 0)
(0 0.0400019 0)
(0 0.0400021 0)
(0 0.000368209 0)
(0 0.0400021 0)
(0 0.0399541 0)
(0 0.039634 0)
(0 0.0400019 0)
(0 0.037192 0)
(0 0.0400019 0)
(0 0.0396218 0)
(0 0.0384991 0)
(0 0.0389199 0)
(0 0.0184313 0)
(0 0.0399892 0)
(0 0.000936162 0)
(0 0.037335 0)
(0 0.0396972 0)
(0 0.0400021 0)
(0 0.0400021 0)
(0 0.00507168 0)
(0 0.00239334 0)
(0 0.0384617 0)
(0 0.0353321 0)
(0 0.0399617 0)
(0 0.0374403 0)
(0 0.0399226 0)
(0 0.038259 0)
(0 0.0400021 0)
(0 0.0372922 0)
(0 0.0400016 0)
(0 0.0202818 0)
(0 0.0400014 0)
(0 0.0371764 0)
(0 0.0189489 0)
(0 0.0400015 0)
(0 0.0399984 0)
(0 0.0399858 0)
(0 0.0399937 0)
(0 0.0399026 0)
(0 0.0397071 0)
(0 0.0311522 0)
(0 0.0400021 0)
(0 0.0287048 0)
(0 0.026296 0)
(0 0.0399775 0)
(0 0.0398651 0)
(0 0.0400016 0)
(0 0.040002 0)
(0 0.039956 0)
(0 0.0399995 0)
(0 0.0399588 0)
(0 0.0399928 0)
(0 0.00456799 0)
(0 0.0388497 0)
(0 0.0392514 0)
(0 0.040002 0)
(0 0.0391631 0)
(0 0.040002 0)
(0 0.0400021 0)
(0 0.0361457 0)
(0 0.0344904 0)
(0 0.0353148 0)
(0 0.0399978 0)
(0 0.0400021 0)
(0 0.0381572 0)
(0 0.0201361 0)
(0 0.0392742 0)
(0 0.0393739 0)
(0 0.0396773 0)
(0 0.0399879 0)
(0 0.0399919 0)
(0 0.01336 0)
(0 0.0400001 0)
(0 0.0399263 0)
(0 0.0400021 0)
(0 0.0399031 0)
(0 0.0384811 0)
(0 0.0385998 0)
(0 0.0400015 0)
(0 0.00817293 0)
(0 0.0399304 0)
(0 0.0400009 0)
(0 0.0380899 0)
(0 0.0391028 0)
(0 0.0399773 0)
(0 0.0399891 0)
(0 0.0381849 0)
(0 0.0400021 0)
(0 0.038751 0)
(0 0.0399881 0)
(0 0.0396734 0)
(0 0.0396431 0)
(0 0.0375194 0)
(0 0.040002 0)
(0 0.0200001 0)
(0 0.0399757 0)
(0 0.0400017 0)
(0 0.0400018 0)
(0 0.0398072 0)
(0 0.039895 0)
(0 0.0389032 0)
(0 0.0399107 0)
(0 0.00508273 0)
(0 0.0400018 0)
(0 0.0391068 0)
(0 0.0350809 0)
(0 0.0394366 0)
(0 0.0139432 0)
(0 0.0015679 0)
(0 0.040002 0)
(0 0.0264903 0)
(0 0.0012381 0)
(0 0.0356047 0)
(0 0.0399638 0)
(0 0.0368256 0)
(0 0.0396222 0)
(0 0.0399026 0)
(0 0.0399813 0)
(0 0.0399534 0)
(0 0.00697691 0)
(0 0.0399925 0)
(0 0.0399987 0)
(0 0.0399788 0)
(0 0.0399255 0)
(0 0.0394967 0)
(0 0.0399706 0)
(0 0.0400001 0)
(0 0.0399939 0)
(0 0.000797102 0)
(0 0.0399979 0)
(0 0.0400007 0)
(0 0.000706538 0)
(0 0.0386763 0)
(0 0.0162584 0)
(0 0.0400003 0)
(0 0.0399481 0)
(0 0.0355395 0)
(0 0.0400017 0)
(0 0.040002 0)
(0 0.00542388 0)
(0 0.0366174 0)
(0 0.040001 0)
(0 0.0400021 0)
(0 0.0398731 0)
(0 0.0210465 0)
(0 0.0399985 0)
(0 0.040002 0)
(0 0.0400021 0)
(0 0.0263482 0)
(0 0.040002 0)
(0 0.0399183 0)
(0 0.0399642 0)
(0 0.040002 0)
(0 0.0391038 0)
(0 0.0165461 0)
(0 0.0394523 0)
(0 0.0399757 0)
(0 0.0395171 0)
(0 0.040001 0)
(0 0.0400019 0)
(0 0.0304783 0)
(0 0.0399994 0)
(0 0.0399983 0)
(0 0.0400021 0)
(0 0.0208904 0)
(0 0.0399315 0)
(0 0.0370334 0)
(0 0.0331897 0)
(0 0.0400019 0)
(0 0.0399953 0)
(0 0.0399862 0)
(0 0.0399963 0)
(0 0.0395801 0)
(0 0.0398113 0)
(0 0.00158355 0)
(0 0.0400019 0)
(0 0.0400021 0)
(0 0.0309278 0)
(0 0.0368779 0)
(0 0.0397318 0)
(0 0.0335068 0)
(0 0.0398122 0)
(0 0.0400015 0)
(0 0.0399995 0)
(0 0.0398216 0)
(0 0.0373122 0)
(0 0.0359631 0)
(0 0.0400019 0)
(0 0.0392037 0)
(0 0.0398247 0)
(0 0.029683 0)
(0 0.0383589 0)
(0 0.0399953 0)
(0 0.0399956 0)
(0 0.0399915 0)
(0 0.040002 0)
(0 0.00923356 0)
(0 0.0399867 0)
(0 0.00173855 0)
(0 0.0399132 0)
(0 0.0399997 0)
(0 0.0400021 0)
(0 0.0259911 0)
(0 0.000902377 0)
(0 0.0395902 0)
(0 0.0393112 0)
(0 0.0364357 0)
(0 0.0400017 0)
(0 0.040002 0)
(0 0.0316749 0)
(0 0.00655542 0)
(0 0.0147905 0)
(0 0.0219478 0)
(0 0.040002 0)
(0 0.0315894 0)
(0 0.0400009 0)
(0 0.0399444 0)
(0 0.0398628 0)
(0 0.0331315 0)
(0 0.0398496 0)
(0 0.0400019 0)
(0 0.0395703 0)
(0 0.0399977 0)
(0 0.0400017 0)