/*--------------------------------*- C++ -*----------------------------------*\
| =========                 |                                                 |
| \\      /  F ield         | OpenFOAM: The Open Source CFD Toolbox           |
|  \\    /   O peration     | Version:  v2012                                 |
|   \\  /    A nd           | Website:  www.openfoam.com                      |
|    \\/     M anipulation  |                                                 |
\*---------------------------------------------------------------------------*/
FoamFile
{
    version     2.0;
    format      ascii;
    class       volVectorField;
    location    "250";
    object      ddtCorrDdt0(U);
}
// * * * * * * * * * * * * * * * * * * * * * * * * * * * * * * * * * * * * * //

dimensions      [0 1 -2 0 0 0 0];


internalField   nonuniform List<vector> 
13917
(
(-0.000367382 -7.44814e-05 9.66101e-18)
(-0.000164652 2.30771e-05 -1.07329e-19)
(-0.00722522 0.00645443 9.48977e-18)
(4.93036e-05 0.000299702 -2.24378e-18)
(-1.49966e-05 -0.00011336 4.21793e-18)
(-2.25766e-05 -0.00106249 -2.42467e-17)
(-0.00682153 0.00587164 -8.88075e-18)
(-0.00578735 0.00594792 3.60627e-18)
(0.00366432 -0.00315366 -1.78487e-17)
(-0.000331433 3.02087e-05 2.72286e-17)
(0.000402936 0.00409428 2.63817e-17)
(0.000451668 0.00114591 -1.6952e-17)
(5.71826e-05 0.000303782 -6.28432e-18)
(0.00499201 -7.80606e-06 2.44987e-17)
(-0.000255079 -0.000142112 1.16166e-17)
(-0.000256866 -8.84621e-05 -4.52015e-18)
(-0.000173069 -1.11239e-05 5.43403e-19)
(-0.000904577 -0.000157807 -2.56779e-18)
(0.000423147 0.00109901 1.46125e-17)
(-3.30883e-05 -4.30829e-05 -1.27665e-18)
(-1.35692e-06 -3.39156e-05 1.88164e-18)
(-0.00671413 0.00571105 8.50427e-18)
(-4.21051e-05 -4.81772e-05 -2.16038e-18)
(-0.00650213 0.00634969 1.89024e-17)
(-4.62212e-05 -4.67028e-05 2.98577e-18)
(-0.00874926 0.00438422 -6.62216e-18)
(-8.1403e-05 -0.000538721 1.12239e-17)
(-0.000226092 -0.00061402 -3.11066e-17)
(-0.000770778 -0.00122113 1.30208e-19)
(0.000100388 -0.000379552 -8.78032e-18)
(-0.000349436 -9.71721e-05 -7.85239e-18)
(-0.000321928 -5.36545e-05 8.22408e-19)
(-0.000147561 -0.000440237 -1.76333e-17)
(-7.95192e-06 -0.000308075 -7.10393e-18)
(-3.89833e-05 -5.57005e-05 9.91312e-18)
(0.003884 0.00580344 -3.12751e-18)
(-3.99772e-05 -6.12491e-05 1.40935e-18)
(0.00526044 0.00146347 8.18269e-18)
(0.000102321 0.000411206 -4.43788e-19)
(-0.0148966 -0.000276139 9.30489e-18)
(-3.68694e-05 -3.23465e-06 -1.24324e-20)
(-9.17499e-08 -9.69942e-06 1.25929e-18)
(-2.31425e-05 1.15168e-05 -3.01291e-19)
(-0.000327813 -0.000772826 2.10987e-17)
(-0.000136277 2.32037e-05 -3.01486e-18)
(-3.99139e-05 -0.000331911 1.70721e-17)
(-0.000910155 -0.000108138 -2.57502e-18)
(-0.00154226 0.000448284 -2.62645e-18)
(-3.4671e-05 -0.00115995 -1.92429e-17)
(-2.78178e-05 7.71103e-07 -2.18866e-19)
(-0.000348349 0.000203719 3.43799e-18)
(-2.8513e-05 -0.000294026 -3.31235e-18)
(-7.35654e-06 -0.00117202 -6.28223e-17)
(-1.03428e-05 -0.000312135 3.56398e-18)
(-0.000175906 -1.64209e-05 8.15571e-19)
(-0.00036762 1.28762e-07 -7.74502e-18)
(0.000183659 0.00401448 -2.56748e-17)
(-0.000102273 -0.000189816 6.05983e-18)
(-0.000304045 -1.99485e-05 1.69477e-18)
(-0.000132016 2.59517e-05 6.86871e-20)
(-0.00505938 0.00125582 -4.84188e-17)
(-0.000167141 2.92768e-05 -2.8207e-20)
(0.0038965 -0.00082755 -1.90512e-17)
(-3.40767e-05 -3.87853e-05 2.7836e-18)
(-7.00512e-05 -0.00107003 4.29867e-18)
(-0.00216829 -0.00159043 4.95114e-17)
(3.47712e-06 -0.000104069 3.35479e-18)
(3.26517e-06 -5.22367e-05 -8.153e-18)
(-0.00379948 0.00178333 -1.12971e-17)
(-0.000393769 -6.63701e-05 2.11983e-18)
(-1.90367e-05 -0.000121256 -2.76461e-18)
(0.00406713 -0.00308212 8.58512e-18)
(0.00144452 -0.00182622 1.46023e-17)
(-4.89697e-05 -3.78222e-05 -1.82809e-18)
(-9.23041e-06 -0.00118584 6.80934e-17)
(0.000484745 0.000569478 -8.01982e-18)
(0.00613917 -0.000678763 1.76806e-17)
(-0.000197366 1.76766e-05 3.01153e-18)
(-0.00979492 0.00206554 -3.40764e-18)
(-4.70738e-06 -7.96869e-05 -4.91827e-18)
(-1.1266e-05 -9.76478e-05 3.46881e-18)
(2.36121e-06 -0.000123806 -1.86196e-17)
(-8.41621e-05 -0.00108991 -2.18586e-18)
(0.00511427 0.00168006 -9.05724e-18)
(5.90288e-05 0.000594753 -6.36482e-17)
(-0.000188271 1.76825e-05 -8.83622e-18)
(-1.89663e-05 -9.99097e-05 9.37933e-19)
(-0.00294198 -0.000604655 -3.53672e-17)
(-0.00033106 0.000201857 5.49681e-18)
(-2.30866e-05 1.49961e-05 9.55158e-19)
(0.00500913 -0.00148717 1.95062e-17)
(-0.000103687 7.5818e-06 -3.26827e-17)
(-0.000109796 5.85424e-05 -3.92502e-19)
(-0.000161125 -0.000185823 1.95739e-18)
(0.000759496 -0.00156396 -1.34051e-18)
(-3.94167e-05 -0.00107346 2.24141e-17)
(-0.00170354 0.00273246 1.55505e-17)
(-0.00130899 0.000198406 6.92073e-19)
(0.00201943 0.000269575 2.73661e-19)
(-0.000169591 -0.000867627 4.83811e-18)
(-4.81608e-05 -2.61497e-06 -1.48013e-20)
(6.81587e-07 -0.000439373 -4.42571e-17)
(-0.000291479 -0.000768481 -1.93317e-17)
(-0.000209266 6.64215e-05 5.45738e-18)
(-6.75275e-05 3.45782e-05 -5.50534e-19)
(0.00477799 -0.00398966 -1.17423e-17)
(-0.000860976 -0.00103312 -5.9665e-18)
(-0.00164136 0.000470052 -2.21194e-17)
(-0.000176351 -3.64313e-07 -7.49642e-19)
(-0.000353712 -6.80628e-05 -2.48068e-17)
(-0.00575669 9.95305e-05 -1.79608e-17)
(-0.0147968 -0.000240572 -9.36794e-18)
(0.000901876 0.00116487 3.07696e-18)
(0.0043244 -0.0038558 -1.01762e-17)
(-2.4241e-05 -0.000301918 1.25609e-17)
(0.000100617 -0.0012316 -2.00788e-16)
(-5.13331e-05 -6.83416e-06 1.87223e-18)
(-7.78146e-05 -0.00117602 1.1723e-19)
(-0.00665385 0.00120626 -1.78117e-17)
(-4.5166e-05 -0.000308653 2.11451e-17)
(-5.16219e-07 -2.35755e-05 -1.51023e-18)
(-0.00370734 0.00158283 2.74348e-18)
(-0.00215878 0.00142279 5.69777e-18)
(-0.000211206 -0.000599165 9.17596e-18)
(-2.76546e-05 -2.54311e-07 -1.17576e-18)
(-0.000156362 -0.000190718 1.29802e-17)
(-0.000138969 4.56037e-05 2.20771e-19)
(-2.88588e-05 -1.14451e-07 6.85688e-19)
(-1.95822e-05 9.90251e-07 2.27018e-20)
(-5.93465e-05 -0.00107772 -7.37565e-17)
(-0.00339371 0.00304745 -7.94352e-18)
(-2.13478e-05 -0.000306029 -2.35837e-17)
(-0.00014157 2.54214e-05 3.43426e-18)
(-8.3876e-07 -2.65234e-05 -2.01741e-18)
(0.00126468 -0.00398769 1.65701e-17)
(-0.00692287 0.00663762 -8.16473e-18)
(-0.000374183 -6.81819e-05 -1.45367e-17)
(-0.000168101 -0.0008793 -2.2586e-17)
(4.98337e-07 -9.47549e-05 -2.85451e-18)
(-3.19473e-05 -0.000308682 -1.02232e-17)
(0.00274258 0.00612799 4.46094e-18)
(-6.52238e-05 3.37564e-05 -8.02906e-20)
(-5.75306e-05 -0.000285884 1.57469e-17)
(-0.000281359 -0.000842906 -1.13672e-17)
(-8.79821e-08 -5.95076e-05 7.16844e-18)
(0.00526751 -0.00233523 8.84238e-18)
(-0.000903429 -0.00117207 2.49243e-18)
(-3.0841e-05 -0.00029201 2.92282e-18)
(-5.55688e-05 2.62148e-05 -8.17881e-19)
(-0.00033008 -5.51351e-05 6.50838e-18)
(-0.000815781 0.00110706 -1.88193e-17)
(5.88283e-05 -0.00120295 1.22963e-16)
(-0.000133804 0.00219913 4.53767e-18)
(-0.000481104 -0.00013759 4.61107e-19)
(-0.000331935 -5.97446e-05 2.12984e-18)
(0.00034193 -0.000330604 3.833e-17)
(-0.000384838 -7.41973e-05 9.75016e-20)
(-0.00339692 0.00716973 -7.07903e-18)
(0.00627593 -0.000547626 -1.69162e-17)
(-0.000373387 -0.00586251 1.20658e-17)
(-0.000116727 -0.00025469 -4.27595e-18)
(3.47823e-05 -0.000531925 -2.88274e-17)
(-4.9547e-06 -6.85491e-05 -1.07609e-18)
(-0.00151164 0.00267258 -1.30283e-17)
(0.000833928 0.00122798 -4.66029e-18)
(0.00195015 0.000416403 -4.39387e-18)
(-0.000207357 5.83948e-05 8.09175e-18)
(-0.00116755 0.000770952 7.97402e-18)
(-0.000108162 3.75956e-05 1.8672e-18)
(-3.49039e-06 -0.000439104 2.93132e-17)
(-0.000471559 -0.000102975 -1.30017e-18)
(-0.00510987 0.000313626 1.52399e-17)
(0.00104903 0.00084318 -1.32161e-17)
(-0.000193171 -1.97108e-05 -1.2945e-18)
(0.00286463 0.000401813 7.86717e-18)
(-0.000540111 -0.000174298 -3.61777e-20)
(-0.00352959 0.00335112 7.46713e-19)
(-6.31259e-05 -0.00117913 -9.52747e-17)
(0.0050421 -0.00188794 -1.18897e-17)
(-0.000115094 -5.69066e-05 1.76564e-19)
(-4.97214e-05 -2.1449e-05 3.26644e-17)
(-0.000342204 -0.00010537 -4.3956e-18)
(-6.42043e-05 2.79911e-05 -1.78346e-18)
(-2.08541e-05 -0.000104403 -6.96921e-19)
(-0.000278204 -0.000238818 9.50098e-18)
(-0.00957225 0.00457314 -1.31317e-18)
(0.000671782 0.000638404 1.29469e-17)
(0.000126001 -0.000366076 5.28277e-18)
(-0.000530293 -9.40837e-05 -1.40403e-17)
(0.00181557 0.00164244 3.65879e-18)
(-0.00132906 0.00696472 2.2818e-18)
(-0.000154883 0.000622001 7.24614e-17)
(8.66342e-05 0.000965144 2.9526e-17)
(-3.83918e-05 -7.87027e-05 7.13887e-18)
(-8.38594e-05 -0.000916758 6.58824e-17)
(-8.57655e-05 -0.000516187 -1.06176e-17)
(-3.00581e-05 8.23181e-07 -4.59113e-19)
(-0.000112999 5.78287e-05 2.45888e-19)
(-0.000914346 -0.000846825 4.43621e-18)
(-6.54136e-05 0.00298861 -5.8655e-17)
(-0.00017493 0.000406041 -4.75231e-18)
(-2.88517e-05 4.17043e-07 -2.34073e-19)
(-0.000970574 0.000840326 -1.60607e-17)
(-0.000744361 0.00110359 2.09271e-17)
(0.00185806 -0.00146563 2.66585e-17)
(-0.00422884 -0.00471881 8.0742e-18)
(-3.79475e-05 -4.54954e-05 -8.85778e-18)
(-0.000105127 -0.000192687 -5.8631e-18)
(-0.00132541 0.000309707 1.82697e-17)
(-0.0094108 0.00601548 -1.52144e-18)
(-6.31702e-05 -0.000290001 -1.64e-17)
(-0.00627881 0.00595363 1.11354e-17)
(0.00212613 -0.000921551 -1.62411e-18)
(0.00175373 0.00171359 -3.75377e-18)
(-6.90255e-05 2.99009e-05 6.82335e-19)
(-0.000393214 -0.00121335 -3.72517e-17)
(-0.00112016 0.000385891 1.89085e-17)
(-0.00591546 -0.000287625 6.81953e-17)
(-6.60451e-05 -7.91341e-05 -1.03211e-18)
(-0.00589797 0.00107589 1.81382e-17)
(-0.000111954 -6.26494e-05 9.79162e-20)
(-0.000115792 -0.0006413 -6.19655e-19)
(-3.4175e-05 -3.86225e-06 -7.58845e-20)
(0.00651418 0.000833159 -7.65335e-19)
(0.00467093 -0.00422967 -4.46545e-18)
(-0.000267779 -8.74251e-05 8.32283e-18)
(-0.00199877 1.60809e-05 -2.23868e-17)
(-0.000340114 -6.29289e-05 -1.75157e-17)
(-6.7771e-05 2.19952e-05 -4.66779e-19)
(0.00509794 0.00637132 2.48247e-19)
(0.000958605 0.000800052 3.54775e-18)
(-0.000536654 -7.32897e-05 1.72154e-17)
(-0.00805047 0.00687443 1.97332e-17)
(0.00202953 -0.000816825 1.09829e-18)
(-3.94527e-05 9.54588e-06 -2.52082e-19)
(-0.000327354 -5.83564e-05 3.01391e-18)
(0.00450005 -0.00178519 1.95402e-18)
(0.000618421 9.86389e-05 -6.10112e-17)
(-5.81248e-06 -8.08194e-05 -1.16006e-18)
(-4.08857e-05 -2.28884e-05 7.28574e-19)
(-0.0141806 -0.000676526 -4.37483e-18)
(-0.00225961 0.00278409 9.03874e-18)
(-5.94749e-07 -2.13421e-06 5.10861e-19)
(0.00383348 0.00416891 5.60199e-18)
(-0.00131694 -0.000861156 -1.25245e-17)
(4.12391e-05 -0.000530316 3.47268e-17)
(-0.000353268 -8.60282e-05 -8.06139e-18)
(-6.22593e-06 -7.4731e-05 2.95352e-18)
(-0.00052244 -0.000254881 2.07938e-18)
(0.00383091 -0.000710084 -2.21718e-17)
(-5.35557e-05 0.000130027 -3.9755e-19)
(1.81608e-05 0.000176311 3.65975e-17)
(-0.000226617 -0.000947351 -1.71271e-16)
(-0.00013424 4.37233e-05 -1.71533e-18)
(-9.65468e-05 -0.000190282 -6.0361e-18)
(-0.000106477 0.00168944 7.59365e-18)
(-0.0139196 -0.000604071 -9.22521e-19)
(-0.000124519 0.00209017 -3.77764e-18)
(-0.000292525 -0.00024108 1.3445e-17)
(-0.000265538 -0.000145458 -7.57481e-18)
(-5.25676e-07 -3.6203e-06 -9.69891e-19)
(-0.00254392 0.000960941 -1.79902e-18)
(0.00407014 -0.00365552 1.24358e-17)
(0.00667147 0.00166074 -3.14617e-18)
(-6.90764e-05 1.60551e-05 3.45105e-19)
(-0.00234366 -0.00150105 6.31948e-17)
(0.00609501 0.00018906 -7.95213e-19)
(-0.00268707 0.00715272 1.17967e-17)
(-0.0100211 0.00186571 1.50013e-18)
(0.000554601 0.000503728 -2.33857e-18)
(-9.05481e-06 -9.32773e-05 -1.52295e-18)
(-2.77503e-05 -2.15852e-06 -2.06116e-19)
(-0.000971531 -2.52758e-05 -1.21332e-17)
(0.00721778 -4.28984e-06 9.7849e-18)
(-0.00269849 1.66545e-05 2.02898e-17)
(-0.000295814 -1.51689e-05 2.34935e-18)
(-0.00270887 -0.00514303 -2.70268e-17)
(0.000222796 0.000862884 6.83859e-18)
(-1.88994e-05 1.05952e-06 -5.85043e-19)
(-0.00249697 -0.000333406 -3.29231e-18)
(-3.3948e-05 -2.42246e-05 3.79128e-18)
(0.00262518 0.000551258 -2.08082e-17)
(-0.000160458 0.000390848 -3.15013e-18)
(-9.99004e-07 -2.32996e-06 -5.93526e-19)
(-0.000304819 -9.92273e-05 4.71064e-18)
(-0.000489794 -0.000144762 -5.0426e-19)
(3.02917e-05 -0.000531446 -2.34954e-18)
(0.00441982 0.00450237 -1.16928e-18)
(-0.00038471 -0.000149904 3.82628e-18)
(-9.76717e-05 6.72083e-05 -6.91282e-18)
(0.000532406 -0.00257399 -1.42024e-17)
(-0.00784059 0.00685652 -3.73405e-18)
(0.003826 -0.00347512 -1.58035e-17)
(-6.28958e-05 -6.98969e-05 6.30281e-19)
(-0.00109207 0.00518736 -1.95838e-17)
(-1.71273e-06 -0.000184175 -6.56044e-18)
(-9.439e-05 7.70691e-05 1.04287e-18)
(-4.96311e-05 -1.51761e-06 -5.10513e-19)
(-0.000974667 -0.00124527 -2.72772e-18)
(-2.63623e-05 -7.56284e-06 6.94467e-19)
(-4.56342e-05 -0.0006758 6.6468e-17)
(-0.00035299 -8.38656e-05 1.02332e-17)
(-0.000102674 3.47541e-05 -2.75116e-18)
(-0.00096555 0.000921738 1.29518e-17)
(-0.000227825 1.57371e-05 6.53077e-19)
(-7.25343e-05 -0.0012073 -2.65313e-16)
(-0.000519446 -0.000168969 5.53782e-19)
(-0.000134215 -2.3411e-05 2.58696e-17)
(-7.852e-05 1.38248e-05 -8.04149e-19)
(-9.30011e-05 -0.000183557 7.57882e-18)
(-0.00564776 0.000268634 6.35485e-17)
(-3.01601e-06 0.00117128 -1.21925e-17)
(-5.29333e-05 -1.39645e-05 -1.38382e-19)
(-3.02065e-05 -3.45877e-06 -3.08925e-19)
(-0.00273773 -0.000429813 -3.50473e-17)
(-0.000113741 -1.19062e-05 -2.95413e-19)
(0.00156989 -0.00202649 -9.11215e-18)
(-7.63421e-05 1.66835e-05 -4.15453e-19)
(0.00636012 0.000801359 -3.67635e-18)
(3.60899e-06 0.000216116 8.07811e-21)
(-0.00137871 0.000435965 1.56944e-17)
(-0.000509064 0.000396792 1.00506e-17)
(-3.23251e-05 -0.001218 -6.93836e-17)
(-0.00011686 -0.000252798 2.71536e-19)
(0.0018802 -0.00556268 -2.69925e-17)
(-0.000320573 -0.00108882 -4.31076e-17)
(-0.000299937 -9.0517e-05 -2.28324e-18)
(-0.00238439 0.00260453 1.63257e-17)
(-0.00118425 -0.000898844 3.89723e-18)
(-0.000149627 -0.000143718 -4.06105e-18)
(0.000784071 0.00260777 2.4524e-18)
(-5.08938e-05 -0.00087975 -1.1193e-16)
(0.00644633 0.000318163 -1.07905e-17)
(-5.81209e-05 -0.000293532 -2.75677e-17)
(-0.0128491 0.000356487 4.74927e-18)
(-0.000332875 -6.37515e-05 7.61027e-18)
(-0.00251743 0.00165596 -1.04461e-16)
(-0.000302793 -0.00105218 7.53297e-18)
(-0.000804035 -0.000587184 1.28721e-17)
(-0.000809085 -0.000550964 -7.3061e-18)
(-0.00604569 0.00619595 -1.21223e-17)
(-7.5693e-06 -0.000115351 2.22764e-18)
(-0.000483884 -9.23624e-05 8.11768e-18)
(-0.00548478 0.000202897 -1.88135e-17)
(-9.27279e-05 -0.000235308 -3.30498e-18)
(-0.00022242 -5.84368e-05 -2.03279e-18)
(0.00520041 0.000309931 1.92973e-18)
(-0.00088995 -0.000906357 -1.04301e-17)
(-0.000190311 1.21752e-06 -1.20447e-18)
(-0.00140038 0.00639575 -1.57741e-17)
(-0.000702671 -0.00119871 6.48437e-18)
(-4.39402e-05 -1.84997e-05 -2.06052e-19)
(-0.00648894 0.000825685 1.51965e-17)
(0.00209717 0.00682165 -2.53629e-18)
(-3.55379e-05 -2.04092e-05 -3.18164e-18)
(-6.20961e-05 -6.05747e-05 -1.54987e-18)
(-2.60686e-06 -0.000185643 6.8707e-18)
(-5.41992e-05 2.127e-05 1.23121e-18)
(0.00124752 -0.00307965 2.83479e-17)
(0.00441709 -0.00114432 2.3077e-17)
(0.000108532 -0.00114019 -7.18784e-17)
(-0.00543167 0.000360373 -9.16739e-17)
(-5.05072e-05 -2.16143e-05 -1.99172e-18)
(7.554e-05 0.000213612 -3.88059e-17)
(0.000616781 -0.000142445 1.4535e-17)
(-0.000698347 0.000623761 -3.14514e-17)
(-0.00594854 0.00578104 -5.85659e-18)
(0.00696749 -7.51779e-06 -2.52964e-17)
(0.00418829 -0.00416979 2.02097e-17)
(-4.3472e-05 2.07189e-05 3.04191e-19)
(0.00562934 0.00165426 1.41493e-18)
(-6.49424e-05 -4.80743e-05 -3.61737e-19)
(-0.00668876 0.00098386 4.70145e-17)
(-0.000131935 3.03947e-05 -2.92292e-18)
(-3.47937e-05 -0.00129112 4.03796e-17)
(-0.00128412 -0.00095941 2.41382e-17)
(-2.6122e-05 0.000390863 -6.8364e-18)
(-1.14502e-05 -0.000139647 -4.49811e-18)
(-0.00123158 0.000279234 -2.42934e-17)
(-5.42431e-06 6.48142e-06 2.75517e-18)
(-0.00129555 -0.000351268 -6.19731e-19)
(-0.000420954 -0.00209666 -5.41334e-18)
(-0.00270212 0.00145044 8.09236e-18)
(-0.00602538 -0.000240836 -1.67129e-17)
(-0.000549928 -0.000251877 3.27413e-18)
(-0.000341179 1.17594e-05 -3.61992e-17)
(-3.92119e-05 -1.63673e-05 -1.47538e-18)
(0.000548756 0.000148844 2.25174e-17)
(-0.00724946 0.0052237 1.68671e-18)
(-0.000119917 -0.000162634 -8.30822e-18)
(7.30191e-05 -0.00483855 -2.11044e-17)
(-4.11454e-05 -1.51681e-05 5.74197e-19)
(-0.00196253 -0.00338425 -2.37728e-17)
(-3.89989e-06 0.000217835 -9.68708e-19)
(-5.36936e-06 -9.83209e-05 1.36481e-18)
(-0.000227864 1.35798e-05 -1.42118e-18)
(-0.00919256 -0.0014653 -3.14867e-18)
(-0.000225837 1.43274e-05 1.35581e-18)
(-0.0135529 -0.000707612 -2.66962e-18)
(0.000324625 -0.000228305 -2.88971e-17)
(0.0010946 0.00328774 2.04996e-17)
(-0.00025798 -0.00112546 9.58129e-17)
(-0.000148015 -0.000134769 3.01149e-18)
(-0.000358366 -0.00114627 3.47759e-17)
(-0.000274565 -0.00112487 -6.00289e-17)
(-4.57585e-05 3.35464e-06 6.44522e-20)
(-0.00081559 -0.000945228 1.54206e-17)
(-9.22073e-05 -0.000234896 4.734e-20)
(-4.22896e-05 -3.00473e-05 1.1545e-18)
(8.62927e-05 -0.000311583 2.03827e-17)
(-1.05273e-06 -6.00558e-06 -1.51533e-19)
(-4.64841e-05 -5.27709e-05 4.60889e-19)
(-6.48889e-05 -4.44733e-05 2.37157e-19)
(0.000785331 -0.00330985 2.64011e-17)
(-3.41074e-06 -6.07693e-05 -1.05625e-18)
(-0.0123864 0.000600443 -1.1729e-19)
(-0.00846274 -0.000773025 -1.06458e-17)
(0.0004545 -0.000153486 1.17799e-17)
(-4.35795e-05 0.000919854 -6.64791e-17)
(-0.012696 0.000593366 1.04646e-18)
(-0.00499614 -0.000585133 2.04711e-17)
(-0.000655642 0.000632976 2.89526e-17)
(-5.02481e-05 -1.3197e-05 2.56073e-18)
(-0.000901951 -0.00205932 -4.02921e-18)
(8.51083e-05 0.000401276 -4.04749e-18)
(-0.000338109 -6.65899e-05 -6.76963e-18)
(-3.96748e-05 -6.34416e-05 -5.26374e-18)
(0.00477266 -0.00166634 -2.33239e-17)
(-0.00815316 0.0057531 2.57279e-20)
(-0.00810033 -0.00106919 -1.37542e-18)
(-0.000246092 -0.00011775 -8.44184e-18)
(-0.00161325 -0.00102222 -9.46325e-18)
(-4.75488e-05 -0.000291794 2.56886e-17)
(0.000104913 0.000433092 -2.01133e-18)
(-0.00138299 -0.00026299 -4.77265e-18)
(-0.000212347 -1.15464e-06 -8.92996e-20)
(0.00617146 0.000949851 -1.01398e-17)
(-0.00017407 6.44596e-06 8.04813e-19)
(-2.58592e-05 -8.78849e-06 -1.72346e-18)
(0.00120779 -0.00239724 -2.20466e-17)
(-0.0042658 0.00318172 1.75544e-17)
(-0.00435103 0.00344537 -1.52823e-17)
(-0.000517913 0.000384658 1.48333e-17)
(0.00057307 -0.000156596 1.21259e-17)
(0.000803348 0.00302744 -2.10078e-18)
(-0.00502359 -0.00135526 -2.06508e-17)
(0.00736949 -0.000299664 1.02575e-17)
(-1.90776e-05 1.77592e-06 5.42754e-19)
(-0.00114083 9.68524e-05 -6.66886e-18)
(-0.000213332 -1.06733e-06 1.68252e-19)
(-0.000106509 -0.000203298 -1.19061e-18)
(-0.00382381 -0.00490709 1.92326e-17)
(-0.000971332 -7.91382e-05 8.14854e-18)
(2.00186e-06 5.78487e-06 8.3809e-19)
(-0.000545103 -0.000474651 6.3485e-18)
(-0.000665668 0.000499618 -4.98581e-18)
(0.00753539 -0.000195456 5.61074e-18)
(-4.6585e-05 7.26373e-06 6.36912e-19)
(-0.00253699 0.00142764 1.04749e-17)
(2.24954e-05 -6.87374e-05 1.21643e-17)
(-0.00159634 0.000505939 3.58189e-17)
(-0.0107534 0.0010781 8.82168e-18)
(-2.39515e-06 -5.31196e-05 -2.07828e-18)
(-0.000118391 -0.000170319 1.45922e-18)
(-3.97718e-05 1.83699e-06 2.45304e-20)
(-0.000392978 -7.37981e-05 -1.4567e-19)
(-4.18823e-05 2.06701e-05 -5.95012e-19)
(-0.0104469 0.00384409 1.15612e-17)
(7.99119e-05 -0.0011053 7.98767e-17)
(-0.00037487 -0.00013527 1.43916e-19)
(0.000441944 -0.000109556 -3.00261e-17)
(-0.000364402 1.35832e-05 3.75178e-18)
(-0.00135767 0.00283799 1.2152e-17)
(-0.00474499 -0.00147577 2.76257e-17)
(-0.00092801 -0.00115105 -2.26001e-18)
(0.00115167 0.00308936 -1.33992e-17)
(0.0029263 0.0064873 -2.77706e-18)
(-0.00257118 0.00157635 -2.82592e-17)
(-0.000379384 -0.00039132 1.81289e-17)
(-0.00183084 -0.00192549 -3.45886e-17)
(-0.000123016 0.00100387 -7.00686e-19)
(0.00239424 0.00268953 1.52858e-18)
(-6.52886e-05 -0.00109747 -5.16145e-17)
(0.000115264 0.00102866 1.52857e-18)
(-0.00183839 0.000779303 -2.18787e-17)
(-2.14748e-05 3.71402e-06 -3.05378e-19)
(-0.00076237 -0.00508895 -2.19643e-17)
(-0.000382419 0.000176087 9.57643e-19)
(-3.71801e-05 6.9269e-05 2.1332e-19)
(-0.000384319 -7.93913e-05 2.94056e-18)
(-0.000203381 2.66376e-05 -1.12772e-18)
(0.00752899 -0.000156857 9.09815e-18)
(0.00445794 -0.00373928 3.66419e-18)
(-0.00011134 -2.1231e-05 6.28917e-20)
(-1.79052e-05 1.30343e-06 -2.79381e-19)
(-0.0107894 0.00569218 3.19465e-18)
(-0.00505579 -0.000511379 -1.74107e-17)
(-8.66562e-07 -4.48364e-06 -1.06433e-18)
(-0.0112671 0.000724261 2.90526e-18)
(-0.000109048 0.000197294 -3.63798e-18)
(0.000141115 0.00065982 5.22426e-17)
(-0.00011505 -3.20485e-05 -2.94137e-19)
(-0.000120149 -0.00142687 -8.62819e-18)
(-0.00558551 0.000756447 1.11704e-17)
(-0.000328657 -5.6882e-05 -4.78448e-18)
(-0.000176688 4.24355e-05 2.98534e-18)
(-0.0121428 0.00076424 4.7906e-18)
(0.000640808 0.000561328 3.7088e-17)
(0.000803784 -0.0001199 -2.3369e-17)
(-7.09761e-07 -5.09834e-06 7.09861e-19)
(0.00279965 -0.000843602 -2.63289e-17)
(-4.56781e-05 -0.00118879 2.17735e-16)
(-0.0034307 -0.000117047 2.94974e-17)
(-4.01343e-05 6.27559e-05 -6.84554e-19)
(0.000195419 0.000543095 8.81831e-18)
(0.00128816 -0.00282344 2.00376e-17)
(-0.000635853 0.000729125 5.18867e-19)
(-6.41689e-05 -5.74424e-05 -3.17897e-19)
(-0.000166857 -4.86596e-05 2.29143e-18)
(0.000312681 0.000488493 -4.57034e-18)
(-0.00223339 -0.00371177 -1.52127e-17)
(4.2334e-06 7.58975e-06 -1.2693e-18)
(-5.83241e-05 -5.87147e-05 3.21162e-19)
(-2.7037e-05 -6.81244e-07 1.06619e-18)
(-2.75295e-05 -2.43543e-06 -9.15037e-19)
(-0.00201485 -0.00123518 -1.1764e-17)
(-0.00320316 -0.00484083 2.25009e-17)
(-0.000631234 0.000688967 6.91533e-18)
(0.00100563 0.000507973 1.3082e-19)
(-3.07431e-05 -2.15798e-06 2.50811e-19)
(-4.6845e-05 -6.41781e-06 4.7678e-20)
(-0.00169193 -0.000896036 1.65299e-17)
(4.80523e-05 -0.0039869 -1.88888e-17)
(-0.000444116 -9.54387e-05 5.78072e-18)
(-0.000112097 3.3635e-05 -1.9197e-18)
(-4.62301e-05 -3.12638e-05 1.63636e-18)
(-9.86565e-07 -3.52243e-05 8.59251e-18)
(-0.00319636 7.48407e-05 8.48958e-18)
(-0.000599178 0.000749483 -1.55077e-17)
(-1.95797e-05 -8.75903e-05 7.24689e-18)
(-1.16944e-05 -3.29015e-05 -3.9743e-18)
(0.00540748 0.0012106 1.09307e-17)
(-0.00015954 0.000960939 -1.60692e-17)
(-0.000495999 0.000421456 -1.02018e-17)
(-0.000115612 -0.000178858 -7.42534e-18)
(-0.000227219 7.59848e-06 -3.10082e-19)
(-0.000311914 -4.51202e-05 -2.39359e-18)
(-0.00175922 0.000871766 1.55921e-17)
(-0.00112643 -0.000833865 -1.74051e-18)
(0.000864509 0.000670305 -2.78208e-17)
(-0.00103462 -0.00218386 -2.30004e-19)
(-0.00214821 -0.000182652 -2.79349e-17)
(-0.00401459 -0.00464129 4.19386e-17)
(-0.000126122 -7.16103e-05 2.86988e-17)
(-6.03169e-05 -5.73553e-05 -2.86485e-18)
(0.0034248 -0.000977027 3.24283e-17)
(1.78598e-06 -3.93893e-05 -6.78977e-18)
(-0.000229085 -5.7308e-05 1.52531e-18)
(-0.000114978 0.000325039 5.85433e-18)
(-0.00104852 -0.00563679 -1.007e-17)
(-0.000757386 -0.000334161 5.32831e-19)
(-3.81793e-05 -1.41281e-06 -8.61963e-21)
(-0.00154902 0.000571311 -2.82331e-17)
(0.000207658 -0.000499533 -1.00074e-17)
(0.000515985 3.96913e-05 1.10287e-16)
(-0.00207838 -0.000286383 -7.11171e-18)
(-0.000299124 -0.000369418 6.50434e-18)
(-0.000713084 0.000517418 -2.04206e-18)
(-1.24743e-05 -0.000149178 7.24717e-18)
(0.00341071 -0.00342026 9.94192e-18)
(-0.00139695 0.000539024 3.06844e-18)
(-0.0011285 0.00474005 -1.10979e-18)
(-0.000169302 3.22214e-06 -9.65494e-20)
(-0.000422494 -2.76142e-05 1.88796e-18)
(0.00111443 0.000460062 -5.78889e-18)
(0.00679547 -0.000163705 1.76475e-21)
(-0.00146943 -0.000251469 -1.745e-17)
(-0.00142059 0.000185127 -3.71043e-18)
(-0.000521622 0.000451798 2.66868e-17)
(-0.000248347 -9.68646e-05 2.096e-18)
(-0.000269831 -1.68665e-05 4.6504e-18)
(-0.000112425 -0.000182873 -3.55672e-18)
(-0.000499784 -0.000473729 5.22804e-18)
(-0.000269991 -0.000807012 1.07693e-17)
(6.85049e-06 -0.000256163 9.15319e-18)
(-0.00108975 0.000448123 -3.74339e-18)
(-0.000183029 -0.000929158 8.48645e-17)
(-0.00119154 0.00478039 5.18899e-18)
(0.000768657 -0.000124639 6.39782e-17)
(-0.000252964 -1.06305e-05 5.69876e-19)
(-0.00118848 0.00278562 -7.85096e-18)
(-0.00714711 0.00110595 -9.76039e-18)
(-0.000324785 -0.000100912 -1.97604e-18)
(-7.44626e-05 -0.0002802 1.37701e-17)
(-0.000130341 -0.00142344 5.53784e-17)
(0.00646798 -0.0045693 1.54265e-17)
(0.00347746 -0.00109172 -2.51664e-18)
(0.00109994 0.000148094 2.49781e-17)
(-1.98989e-05 7.56629e-07 1.72553e-19)
(-0.00581199 0.00106312 -1.38461e-17)
(0.000390637 0.000558131 7.00052e-18)
(-3.76749e-05 -1.25787e-06 3.99351e-20)
(-0.000368162 -0.0001001 -1.21333e-17)
(-0.00117331 0.00160538 1.31517e-17)
(-0.000153774 -0.000424605 1.83646e-17)
(4.78241e-05 -0.000425799 9.79535e-18)
(-0.00970829 0.00257766 -8.28279e-19)
(-0.0019096 -0.00175604 2.34115e-17)
(-0.000122099 0.0008679 2.18553e-17)
(0.00354443 -0.00362303 2.46966e-17)
(-0.000228116 1.08699e-05 -4.73275e-18)
(0.00742445 -0.000248663 3.16964e-17)
(-4.89329e-06 -7.2264e-05 2.23944e-18)
(-2.07921e-05 -8.96308e-05 -6.73797e-18)
(-0.00109596 0.00554069 1.39503e-17)
(0.00642623 -0.00453668 2.86111e-18)
(-0.000154532 -0.00112763 5.34717e-17)
(-0.000226657 1.54005e-05 5.41581e-18)
(-0.000189886 -1.50699e-05 -2.64148e-18)
(-1.29685e-05 -3.64751e-05 2.57271e-18)
(0.000212654 0.000874015 1.53974e-18)
(-2.72616e-05 -0.00120834 1.09211e-16)
(0.00173878 0.000429606 9.14271e-18)
(-0.000276188 -2.17176e-05 -5.14997e-18)
(0.00100999 0.00291374 6.26851e-18)
(-0.00122556 0.000359669 6.02362e-18)
(-0.000117144 -3.1684e-05 3.10023e-19)
(-0.00188996 -0.000260287 -7.11294e-18)
(0.00158209 0.000305422 3.36607e-18)
(0.00587448 -0.00203675 -6.10849e-18)
(-7.3165e-05 -0.000103827 -1.33643e-18)
(-0.00217125 -0.00154924 -1.72396e-17)
(-0.000204205 1.92373e-05 -8.17494e-19)
(0.000197071 -0.000278218 1.05516e-17)
(-0.000302792 3.10402e-05 1.19409e-17)
(-0.000751845 -0.000297766 -2.37331e-19)
(-0.000423913 -3.87492e-05 -4.7325e-18)
(-3.58094e-05 -1.28088e-05 5.0303e-19)
(-4.69514e-05 1.92615e-05 -2.99929e-18)
(-0.000142889 4.18811e-05 3.33637e-18)
(-0.00087493 -0.000497109 3.73152e-19)
(-5.64353e-05 -0.000334447 -2.17089e-17)
(0.00109486 -0.0016279 -3.17667e-17)
(-0.000519376 -0.00170171 3.50827e-18)
(-0.0011529 0.000684351 -1.26921e-18)
(-4.19401e-05 -2.10859e-05 -5.56645e-19)
(-0.00143267 -0.00184589 4.24986e-18)
(-0.000183688 -0.00117085 2.59363e-17)
(0.00231517 0.0077538 -1.6393e-17)
(-5.56612e-05 0.00011977 -5.0808e-19)
(-8.20437e-05 -0.000310006 -6.68849e-18)
(-5.62495e-05 -5.87227e-05 -3.90086e-20)
(-8.0909e-06 0.000605166 -6.03607e-19)
(-0.000313788 -1.88628e-05 1.45802e-18)
(0.000988151 -0.00298794 -2.53551e-18)
(-6.04381e-06 -9.2471e-05 1.65594e-18)
(-0.00353046 -0.000213548 1.61234e-17)
(-6.09636e-05 0.000579989 3.02507e-18)
(0.000661508 0.00398405 -1.81247e-18)
(-0.00016579 8.15479e-05 4.92839e-18)
(0.000392181 -0.00181363 5.32968e-19)
(-0.000775711 -0.000237282 -3.65212e-19)
(-0.000163491 -5.48597e-05 -2.79681e-18)
(0.00722163 -0.000286916 1.05774e-17)
(-0.00226346 -0.000418314 -3.99148e-17)
(-0.000136183 -0.000103391 -9.89972e-19)
(-0.000101766 0.000327206 -8.92867e-18)
(-0.00514905 -0.00120698 8.59968e-18)
(0.000896174 0.000104662 -9.29572e-18)
(-0.00262765 0.00017474 -2.19293e-17)
(-2.78079e-06 -7.94307e-06 -2.52147e-19)
(-0.000179287 3.81116e-05 -4.2344e-18)
(-0.00127623 0.000403228 -3.5731e-17)
(-1.92584e-05 0.000403956 7.30892e-18)
(-0.00121829 -0.000385018 -1.38546e-18)
(-0.000137314 0.00159353 -1.65965e-17)
(-4.76353e-05 2.40108e-05 2.05639e-18)
(-0.000638837 0.00118469 -1.21371e-18)
(-0.00711982 0.0064361 -7.45845e-18)
(-4.46425e-05 0.000135235 -1.74979e-18)
(1.18117e-05 0.000270678 6.22648e-18)
(-2.71264e-05 2.19243e-06 -1.60804e-18)
(-0.000515657 0.00103475 1.5568e-17)
(-9.59738e-07 -3.65142e-05 3.91676e-18)
(-0.000236717 -0.000113467 5.85732e-18)
(-0.00493959 0.000382149 -2.38734e-17)
(-0.000204024 -9.01102e-05 -6.99402e-19)
(0.00667383 -0.00444773 1.33532e-17)
(-0.000329809 -6.09352e-05 -1.38231e-18)
(-0.000159735 -0.00046344 2.10222e-18)
(-2.74369e-05 1.05112e-06 -8.74378e-20)
(-0.000578046 -0.000172011 -3.15119e-20)
(-4.91136e-05 1.74855e-06 -2.97106e-18)
(-0.000333561 -0.000338942 1.32925e-17)
(-3.27292e-05 -6.93399e-06 -5.96988e-19)
(-0.000781937 -4.68557e-05 6.79756e-18)
(-0.000114553 0.000187118 7.86822e-18)
(0.000142834 -0.000343466 3.42156e-18)
(-0.00042938 -0.00152925 -2.23729e-17)
(-7.71497e-05 -0.00382486 3.31325e-18)
(-4.31072e-05 1.82344e-06 3.16164e-19)
(-9.51393e-06 -0.000129327 -2.37273e-18)
(-0.00015825 -9.84121e-05 -4.17271e-18)
(-0.000322418 -0.000102911 5.09392e-18)
(0.00431035 0.000858445 8.01682e-18)
(0.00238802 -0.00425292 -9.70368e-18)
(-0.000861667 -0.000191766 3.59554e-17)
(-3.87253e-05 -3.49241e-05 -8.20559e-19)
(0.000505226 -0.00313724 -1.61102e-17)
(-0.000137743 -0.00115969 -3.03565e-17)
(0.00549742 -0.00152324 1.46826e-17)
(0.00118959 -0.00149665 2.70538e-17)
(-0.000965622 9.78697e-05 -1.21189e-17)
(-0.00975523 0.000897978 8.64123e-18)
(-0.000385746 -6.54554e-05 -1.33968e-17)
(0.000219367 0.000848598 -1.39128e-17)
(-0.000550466 -0.00166705 -9.40372e-18)
(-0.000857828 -0.000835545 9.84412e-18)
(-0.000818635 -0.000187743 -3.77799e-17)
(-0.000198679 -0.00119275 7.85584e-17)
(-0.000741552 -0.000236041 8.59094e-18)
(-2.26838e-05 0.000314786 6.85595e-19)
(-0.00126994 0.00168165 -4.28923e-18)
(-0.000306463 -8.53355e-05 2.70027e-18)
(-4.93824e-05 6.93914e-05 -2.00277e-18)
(-2.09127e-05 0.000591645 1.38607e-18)
(-0.000347936 -7.93094e-05 2.02349e-17)
(-0.000322467 -5.09454e-05 -7.44509e-18)
(-4.75124e-05 -2.03087e-06 -4.19858e-18)
(-3.03538e-05 -2.16149e-06 3.48511e-19)
(-0.0012085 0.000549943 4.76996e-18)
(-0.00017522 0.000159257 -6.5551e-18)
(-0.00120936 -0.000455393 1.74041e-18)
(-3.97336e-05 -2.85051e-05 6.3225e-19)
(-3.43745e-05 -2.37282e-05 4.40955e-18)
(-3.01649e-07 -2.87817e-05 -4.75715e-18)
(-0.000225089 5.16806e-06 2.61281e-19)
(-1.17485e-05 5.30805e-05 -1.40474e-19)
(-0.000295813 -3.5344e-05 3.68122e-18)
(-2.86922e-05 4.48033e-06 -6.55187e-20)
(-0.00042393 -0.00127164 9.91795e-18)
(0.000438871 0.000990295 3.6732e-18)
(0.00013903 -0.00112995 1.42202e-17)
(-4.52347e-05 1.10199e-05 -1.66838e-19)
(-3.13789e-06 -4.16218e-05 -2.18766e-18)
(-0.000284137 -0.00055842 1.2584e-17)
(-0.000385687 -0.00042332 -2.81617e-17)