/*--------------------------------*- C++ -*----------------------------------*\
| =========                 |                                                 |
| \\      /  F ield         | OpenFOAM: The Open Source CFD Toolbox           |
|  \\    /   O peration     | Version:  v2012                                 |
|   \\  /    A nd           | Website:  www.openfoam.com                      |
|    \\/     M anipulation  |                                                 |
\*---------------------------------------------------------------------------*/
FoamFile
{
    version     2.0;
    format      ascii;
    class       surfaceScalarField;
    location    "250";
    object      meshPhi;
}
// * * * * * * * * * * * * * * * * * * * * * * * * * * * * * * * * * * * * * //

dimensions      [0 3 -1 0 0 0 0];
oriented        oriented;


internalField   nonuniform List<scalar> 
20673
(
-0.0003488
-0.000220124
0.000568655
0.000377669
0.000467265
-0.000848894
-0.000282828
8.89436e-05
0.000193882
-0.000869581
-7.89618e-05
0.000945816
0.00104586
-0.00107825
2.74264e-05
0.000241315
-0.000249705
8.38914e-06
-0.000196651
-7.30921e-05
0.000269742
0.000237786
-0.000191079
-4.67084e-05
0.000227052
-4.07319e-05
-0.000186321
0.000446536
-9.29138e-05
-0.00035373
0.000321446
1.45545e-05
-0.000336023
0.000448742
-0.000469923
2.10558e-05
-0.000636875
-0.00013085
0.000207156
-7.63053e-05
0.000489844
-0.000827761
0.000337231
-0.00033926
-0.000427523
0.000765739
-0.00104245
0.00033806
0.000701189
0.000476288
-2.2137e-05
-0.000454307
-9.90673e-05
0.000547665
-0.000629998
0.000640752
-3.11186e-05
-0.00017797
4.71553e-06
0.000170471
2.09311e-05
-0.000217583
4.04795e-05
-0.000769726
0.000716065
0.000117081
0.000120703
0.00114452
-0.00107451
-7.64665e-05
0.000271144
-0.000160717
-0.000110429
0.000197354
0.000253051
-0.000450416
-7.37193e-05
0.00031292
-0.000239215
-0.000140575
0.000276007
-0.000135435
-2.97774e-05
0.000369928
-0.000340209
-0.00026773
-0.000277684
0.000545173
-0.00038356
-0.000285078
0.000667945
0.000428424
8.38288e-05
-0.000512311
0.000165169
-0.000681526
0.000516345
-0.000449369
-0.000621848
0.00106778
0.000172911
7.43833e-05
-0.000247302
-0.000666181
0.000693662
0.00021805
-0.000172006
-4.60444e-05
0.000694493
-0.000872037
0.000164301
-0.000174233
9.93183e-06
-9.50552e-05
-9.49176e-05
0.000123743
-7.776e-06
-5.84436e-05
6.42405e-05
-0.000737264
-0.00015488
0.000848698
-0.000381002
0.000352761
2.82309e-05
0.000770099
-0.00101617
0.000240696
0.000683174
-0.00064089
-4.23489e-05
-9.91815e-05
0.000575287
-0.000519546
0.000297878
0.000221561
-0.000205194
0.000180364
2.483e-05
1.33681e-05
0.000113401
-0.000171287
0.000821466
-0.000341372
-0.000480963
0.00066223
-0.00097781
0.000314913
-0.000223755
1.85608e-05
0.000643584
-0.000478437
-0.000808529
-0.000237045
0.000431509
0.000253224
-0.000685671
-8.81973e-05
0.000409613
-0.00101036
-0.000240251
0.00124539
0.000882912
-0.000725436
-0.000159028
-0.000157049
0.000921868
0.000262568
-0.000237909
-2.46622e-05
0.00104772
-0.000674511
5.05705e-05
-0.000712959
6.35198e-05
0.000271788
-3.04736e-05
7.39241e-05
0.000170648
-0.000244575
-6.2859e-05
0.0010341
0.00099112
0.000106868
0.000250512
4.5128e-05
-0.000295659
0.000449786
8.61111e-05
-0.000536203
1.11003e-05
0.0010306
0.000201007
2.60442e-05
-0.000217413
0.000146668
7.07445e-05
0.00117752
-4.03481e-05
-0.000188174
6.23603e-06
0.000181938
-0.000522159
0.00027364
0.000248408
-0.000157096
0.000175653
-1.85572e-05
0.00104417
-0.000913776
-0.000133677
-0.000208304
-6.86851e-05
0.000276988
-1.12278e-05
-0.000374117
0.00038244
-0.000513546
0.000105096
0.000399568
0.000867118
-0.000244941
0.000250495
-5.55482e-06
0.000148306
6.97434e-05
0.000243617
-0.000225224
-1.83933e-05
0.000709212
0.000331486
-0.000570122
0.000537696
2.00784e-05
-0.000119576
0.000193498
0.000314526
0.000505882
-4.07244e-05
-0.000732179
0.000220279
-0.000168967
-5.13117e-05
-0.000167887
0.000534182
-0.000366377
-0.00122934
0.000404325
0.000814923
0.000377781
-0.000882458
0.0005034
9.40212e-05
-0.000213599
0.000202538
5.9325e-05
-0.000261863
0.000363615
-4.31275e-05
-0.000320524
0.000249726
-0.00049942
0.000249578
0.000391433
-0.000363748
-2.77175e-05
-0.000210694
-0.000180656
0.000391342
0.000512359
0.000186325
-0.000736105
-0.000322515
0.000574115
-0.000251602
-0.000278646
-0.000102368
0.000412448
-0.000842645
0.000427918
-0.000619315
0.000994929
-0.00039484
-0.000115892
-0.000132318
0.000248209
0.00032406
-0.000289013
-3.50546e-05
-0.000351026
-0.000168604
0.00110257
-0.000767978
0.000281345
0.000220857
-0.000502403
0.000229807
-0.000203404
-2.64027e-05
0.000233874
-6.95733e-05
0.000392713
-1.64979e-05
-0.000376284
8.6416e-05
-0.00020231
-0.000155506
0.000702362
-0.000546973
-0.000219318
0.000141254
7.80642e-05
0.00083891
0.000236528
-0.00108666
-1.74574e-05
-0.000190501
0.000207958
-0.000159625
-3.57702e-05
0.000195395
-0.000683209
0.000148546
0.000534627
0.000162807
-0.0001723
-0.000104326
0.000354816
-0.000198657
0.000126483
7.21742e-05
-0.000414956
0.00034122
8.33895e-05
-0.000177236
4.89713e-05
-0.000529408
0.000905766
0.000951952
-0.000764218
-0.000192797
-6.05734e-05
9.1772e-05
-0.000501464
-0.000127474
0.000560362
-4.71668e-05
0.000199441
-3.86046e-05
-0.000160837
-0.000839064
0.000683394
-0.000939025
-8.21877e-05
-0.000180042
6.8454e-08
-1.47006e-05
0.000237459
-0.000222765
0.000238718
-0.000121639
-0.000545815
0.000196751
8.62519e-05
-0.000296949
0.00104595
-1.08508e-05
-0.000549103
-0.00013416
-0.000239623
-7.02037e-05
0.000309816
0.000283865
-0.00106103
0.000762345
0.000950304
2.67365e-05
-0.000977965
-1.18837e-06
-0.000293817
0.000294997
0.000973036
1.83348e-05
0.000190272
-0.000284146
9.3871e-05
-0.000184384
0.000290979
-0.0001066
0.00103689
-0.000375379
0.000242513
-0.0010038
0.00074499
0.000385281
0.000274603
-0.0006606
0.000458826
-0.00047138
1.24053e-05
-0.000106018
-0.0001133
0.000550704
-0.000215606
-0.000335174
-0.000531709
0.00053403
-2.48987e-06
-0.000304577
-0.000436356
0.000740002
0.00026277
-5.59391e-05
-0.000206831
-0.000199801
0.000649216
-0.000324932
0.000114329
0.000210596
-0.000191674
3.45789e-05
0.000217067
-0.000231774
0.000652595
8.22175e-05
-0.000735254
-0.000352634
0.000515151
-0.000162507
-0.000373943
0.00041514
-4.41802e-05
-5.47256e-05
0.000418298
-9.29184e-05
0.000485543
0.000385636
5.76439e-06
-0.0004022
0.000812485
0.000255966
0.000203218
-0.000459313
0.00118906
-0.00100713
-0.000190726
-0.000537373
0.000214857
-0.000271806
-0.000272481
0.000544076
4.37057e-05
-0.000179115
0.000135409
0.000277782
-0.000427276
0.000149432
0.00104681
-0.000598867
-0.000450397
-0.000128687
-0.000162955
0.000291638
0.000503809
-0.000438273
-6.56584e-05
-1.62161e-05
0.000215657
-0.000196855
0.000179398
-7.93095e-05
0.000269579
0.00104799
-8.23175e-05
-0.000974275
-0.000462424
0.000294468
-0.000605082
0.00033709
-0.000763649
0.00103284
-0.000650538
6.91263e-05
2.40784e-05
-0.00054455
0.00052017
0.000168207
0.000102936
0.000337211
-0.000141001
-0.000196226
3.70251e-05
0.000225744
0.000354841
0.000178946
-0.000534082
0.000271846
1.45152e-05
-0.000286388
0.000369396
-0.000214615
-0.000154789
0.000190196
5.34197e-05
4.09297e-05
0.00024237
-0.000283315
-0.000228595
0.000944282
-0.000729187
-0.000323644
0.000324671
-1.02823e-06
-0.000233235
0.000430572
-3.61603e-05
-4.75764e-05
-0.000607084
-0.000630663
-0.000294076
3.727e-05
0.000256793
5.30274e-05
0.000149718
-0.000202748
0.000849094
-0.000574691
-0.000275565
-0.000108839
8.85839e-05
-0.000420353
0.000562974
-0.000142796
-7.30437e-05
0.000531707
-7.01729e-05
-0.00014724
-0.000191097
-8.82766e-05
0.000279366
0.000552688
-0.00100496
-0.00104083
2.60088e-05
0.000532448
-0.000282844
-0.000294601
0.000181771
0.000112828
-9.04618e-05
0.00103924
-0.000145527
-0.000105878
0.000251404
-0.000169545
0.000228679
-5.91334e-05
0.000419897
-0.000148088
0.000380107
-0.00101763
-0.000185047
0.000288561
-0.000103516
0.000282831
-0.000529966
0.000246972
-0.000197665
0.000208623
-1.09578e-05
1.48167e-05
0.000765226
-0.000788232
0.000214397
4.81682e-05
-0.000226603
0.0012646
-0.000416595
0.000226434
0.0001901
-0.000224483
7.56302e-05
0.000203311
-0.000187846
-1.54647e-05
-7.91271e-05
-0.00014283
0.000221956
-0.000774669
0.000434492
-6.0835e-05
-0.000242197
0.000303027
-0.000703215
0.000397833
-0.000770372
0.00113007
0.000258087
-8.51822e-05
-0.000149157
0.000426875
0.00054681
-0.000192279
6.18338e-05
-0.000247635
0.000185799
-5.49632e-06
-0.000164049
-0.000189497
-0.000308765
0.00044733
0.000240341
-0.000624537
6.95563e-05
0.000150722
0.000182787
-0.000202915
2.0128e-05
-0.000374457
-7.2732e-06
0.000580449
0.000379297
-0.000982475
-2.87152e-05
0.000181181
0.000101409
0.000221194
-0.000322632
2.6857e-05
1.23346e-07
-3.13027e-05
-0.000268987
-8.77393e-05
0.000356714
-0.000226484
-0.000196372
0.000422789
6.84116e-05
-0.000421037
0.000445393
-0.000562572
0.000116837
2.73116e-05
0.000381066
-0.000279587
0.000560383
-0.000280963
0.000117347
6.39725e-05
-0.000181319
0.000837587
0.000149829
-0.000994902
-0.000452009
8.56781e-05
0.000366275
-0.000333624
0.000323358
1.02634e-05
0.00081614
0.000130217
0.000857251
-0.00110207
0.000533608
-0.000321674
-0.000212041
0.00023753
-0.000146948
-9.05823e-05
0.000202406
0.000348219
0.000437633
-0.000413795
0.000708207
-0.000219003
-5.60284e-05
5.36376e-05
-1.26479e-06
-0.000135487
-6.31704e-05
-0.00030517
0.000205117
0.00010005
0.000352649
-7.4778e-05
-0.000277881
0.000216188
-0.00100499
-0.00022488
0.000149572
7.53074e-05
0.000153625
5.1495e-05
-0.00020512
-0.000255721
-6.92158e-05
7.01338e-06
-0.000215318
-0.000202407
-0.000319841
-0.000492733
0.000151457
-8.74166e-06
-0.000203818
-0.000329269
0.000516682
-0.000187575
0.000229403
-0.000123326
-0.000106077
0.000307175
6.61498e-05
-0.000373366
0.000614086
0.000267217
7.76262e-05
-0.00026873
-0.000338468
0.00058557
0.000438147
-0.000299292
-0.000207985
0.000160367
6.91532e-05
-0.000229524
-0.00061383
0.000616578
-2.25548e-05
0.000116472
-0.000245162
0.000456942
0.00039075
2.15948e-05
-2.02751e-06
0.000815671
-0.00043459
-0.000381684
-0.000398127
-0.000133744
0.000270372
0.000244802
-0.000258781
-1.02152e-05
0.000685374
-0.000253297
-0.00043241
0.000114412
-0.000907829
0.000787177
0.000218426
0.000111042
-0.000329478
0.000219864
-0.000158032
-0.000148661
-0.000156511
-0.000871141
0.00087659
-0.000166876
0.000326906
-0.000160035
-0.000697587
0.000808998
-0.000110551
0.00097565
-0.000867794
-0.000371461
0.00119837
5.22071e-05
-0.000236594
-0.000227109
9.32087e-05
9.70476e-05
-0.000243185
-0.00017346
-0.000206271
0.000651268
0.000852984
0.000326334
-0.000469039
4.85382e-05
-0.000616398
0.000996151
-0.000381893
5.59323e-06
-0.00011074
0.000105147
0.000370351
0.000133325
0.000280399
0.000253685
0.00113444
-0.00099525
-0.000150495
0.00113631
-0.000283909
0.000249841
-0.000125194
-0.000124647
-5.21302e-05
-0.000131933
0.000184063
-0.000754458
0.000981415
0.000148556
-1.95597e-05
-0.000185499
-0.000118715
0.000279078
0.000888797
-0.00129093
0.000392531
0.000222614
-7.59454e-05
0.00123239
-0.000111417
2.72016e-05
0.000176109
0.000460375
0.000469592
-0.000934319
-0.000106202
0.000338005
-0.000231817
8.46957e-05
0.000526996
-0.000612225
0.000165564
-0.00018944
2.38762e-05
0.000872807
-0.000220776
0.000378328
-0.000161269
-2.9978e-05
-0.000182898
0.000212875
0.00020344
0.000611564
0.000310262
-0.000208877
0.000265777
-1.8571e-05
-0.000247213
0.00105647
-0.000477199
-0.00058201
0.000230071
-0.00017025
-5.9821e-05
-0.000100636
-0.00022301
0.000162698
-9.07353e-06
-0.000325871
-0.00040487
0.000730564
0.000146267
-0.000181421
3.5154e-05
0.000497504
-0.000615541
0.000117405
-0.000239631
6.22229e-05
0.000177407
-0.000287826
0.000257846
0.000445272
-0.000176893
-0.000268404
0.000104996
0.000340247
-7.15143e-05
-0.000211315
-3.348e-05
-0.000431316
0.000461159
0.000280955
-0.000552956
0.000172337
5.74698e-05
0.00102625
-0.000211409
-0.000817005
-0.00052355
0.000882783
-0.000360657
0.000107015
0.000100141
-0.000294646
5.59542e-07
0.000897112
-0.00118993
0.000289424
0.00015936
0.000210025
-0.000239138
9.85604e-05
8.44511e-05
-0.000693393
0.00056767
3.98256e-05
-0.00019945
5.69299e-05
-0.0002825
0.000225561
-0.000642739
8.48793e-06
0.00033267
0.00071092
-0.00106283
-0.000709678
1.57625e-05
-0.00071401
0.000941308
0.000321606
-0.000103191
-0.000181581
-7.56497e-05
0.000257228
0.000214777
-0.000288653
7.38762e-05
7.29303e-05
0.000176911
0.000850428
-0.00124901
0.000390961
-0.000367467
-8.45847e-05
9.58691e-05
8.33005e-05
-0.00017917
0.000602635
-6.78772e-05
-0.000535021
-0.00021862
8.92357e-05
0.000140167
-0.000211446
0.00083541
-0.000367373
-0.000503132
3.71986e-05
0.000315439
0.000935217
-0.000162206
-0.000791938
0.00027657
-6.21767e-05
-0.000895067
0.000732894
0.000184229
-1.86659e-05
-0.000426741
0.000200195
-0.00083395
0.000881155
-4.92218e-05
-0.000377518
-0.000107668
0.000480616
0.000276726
0.000255581
-0.000308576
-0.000153901
0.000325455
7.12805e-05
-0.000396811
4.76086e-05
-0.000167471
0.000119862
-0.000105117
-0.000134514
-2.13629e-05
-0.000176302
-0.00051962
0.000239895
0.000439472
6.96838e-06
0.00075133
-0.000190235
5.12223e-05
0.000131564
-0.000166954
0.000248351
-8.13978e-05
-0.00136317
0.000520412
0.000837991
0.000223677
0.000154641
-0.00114544
0.000131912
0.00100786
-0.000346286
0.000238886
0.000107385
0.000904885
-0.000448597
0.000376991
-0.000414387
-0.000262125
0.000659136
-0.000398388
-0.000140251
0.000224618
-8.43677e-05
-0.000744423
0.000480691
0.000119375
0.000118155
0.000186424
-0.000216371
2.99461e-05
0.000250492
-1.66237e-05
-0.000233883
0.000307579
-0.000227128
-8.04528e-05
0.000666818
0.000387002
6.02117e-05
-0.00024526
0.00012468
-0.00025066
0.000952105
-0.000717222
2.9404e-05
-6.66997e-06
0.00102977
0.00111752
-9.53745e-05
-0.00102606
-0.000299396
0.00026957
-6.83885e-05
4.87448e-06
0.000953351
0.000276877
-0.00123547
-3.37265e-05
0.000953441
0.000241638
7.99547e-05
-0.000276527
0.000262615
-6.81396e-05
0.000214407
0.000276543
-0.000157923
-0.000118621
-0.000205324
0.000190753
1.4571e-05
-0.000229994
0.000270909
0.000232379
-0.00016751
-6.48692e-05
-0.00018532
0.000190605
-5.28458e-06
1.30466e-05
0.000589295
-0.000234321
0.00107632
-0.000278686
0.000377291
-9.86351e-05
5.40103e-05
0.000639078
0.000323753
0.000303649
-0.00062795
-0.000880212
0.000639871
-0.000260894
-7.94943e-05
-0.000215108
0.000132183
0.000144357
0.000374977
0.000360786
-0.000736569
0.000274244
-0.000377694
0.000103402
0.000523517
-0.000849563
-0.00027541
-0.000598237
0.000499565
-0.000174202
0.000871482
-3.02143e-05
-0.000843202
0.000275717
2.64777e-06
-0.000278374
0.000820239
0.000278706
-0.00011747
-0.000138082
0.000157065
6.5548e-05
0.000178594
-0.00019481
-1.99966e-05
0.00019859
-0.000351943
0.00032783
2.4071e-05
-3.13129e-05
-0.000174011
0.000141112
8.89587e-05
0.000216816
-9.23982e-05
-0.000124418
-0.000144942
0.000217155
-7.22121e-05
0.000534414
-0.000475605
-0.0001162
-0.000261777
0.000496831
-0.000235187
-3.87456e-05
0.000908332
0.000244399
0.000807788
-0.00105567
5.40128e-05
-0.000273013
0.000218991
-0.000428588
-0.000182996
-5.67119e-05
0.000165336
0.000533261
-0.000329491
-0.000203896
-0.000648167
0.00031725
0.00033059
5.58642e-05
0.000133214
-0.000189078
0.000559053
-0.000822043
-0.000295429
0.000405629
-0.000110244
0.000216135
-0.000177431
-3.87037e-05
0.000223804
-0.000303188
7.93747e-05
-0.000197385
9.05337e-05
0.000106851
-0.000274598
-0.000655381
-0.000711934
3.50601e-05
-0.000143369
0.000323614
-0.000523713
0.000150579
0.000644202
-0.000180576
0.000272026
-9.14519e-05
-3.08939e-05
0.000245672
0.000333686
0.000351315
0.000225776
-6.98686e-05
-0.000155908
0.000790535
-0.000360013
0.000295653
-0.000350415
7.83355e-05
0.00013848
0.000152249
0.000138728
0.000418277
-0.000167813
-0.000295327
5.56948e-05
7.70669e-05
-0.000372532
-0.000433284
-0.000108374
0.000541518
0.000359825
-0.000329455
-3.0398e-05
0.000337447
0.000173734
-0.000511427
0.000275947
6.05782e-05
-0.00033655
2.68477e-05
-0.000281107
0.000515053
-0.000234148
0.000279386
-0.000408784
0.000129339
-0.000136164
-7.39355e-05
0.000139364
0.000114448
-0.000267918
0.000153463
-0.000529318
0.000806168
-0.000277739
-0.000540668
-0.000649511
0.00117407
-0.000275512
0.000598789
3.96466e-05
0.000884919
-0.000927608
0.000198147
-0.000142283
0.000205957
-0.000119542
0.00115734
-0.000278308
0.000144805
0.000224232
-0.000188835
0.000276399
-8.7566e-05
-1.58381e-05
-0.000169482
-3.05608e-06
4.76296e-05
-0.000106281
-9.11033e-05
0.000218733
0.000512996
-0.000734423
-5.50871e-05
-0.00025162
0.000306686
-0.00135777
0.000596828
0.000751636
-3.46189e-05
0.000170046
-0.000135427
0.000319016
-6.31582e-05
-0.000255864
0.000706347
-0.000321771
-0.000165007
0.00079689
-0.000634726
0.000138957
9.34224e-05
9.10378e-05
0.000246153
0.000100113
8.15893e-05
-0.000181702
-6.90993e-05
-2.83237e-06
0.00021504
-8.24006e-05
-0.000132639
-0.000191262
-0.000132922
0.000276732
-0.000143814
0.000432166
-0.000986224
-0.0001988
-2.64245e-05
-0.00011548
0.00025448
-0.000139002
0.000575898
-4.38109e-05
-0.000532348
0.000985989
-0.000671016
0.00070732
0.000232822
-0.000942833
0.000270264
-0.000291152
-5.51469e-05
-0.000275764
2.45008e-05
-0.000375114
0.00106582
-0.000118421
-0.000234438
0.000316336
0.000226331
-0.000382086
-0.000190855
-3.40247e-05
0.000265759
-0.000211755
0.000588655
-0.000136284
-0.000221249
0.000357516
-2.17016e-07
9.8232e-05
0.000656268
-0.000172345
0.000419635
-0.000145441
-1.78062e-05
0.00022529
-0.000207485
-0.00037913
-0.000214386
0.000593131
-0.000973508
-4.12198e-05
0.000126741
0.000985047
-0.000918263
0.000960444
-4.19419e-05
-0.000251641
0.000227496
-3.73004e-05
-0.00048796
0.000533765
-5.69365e-05
0.000908135
-0.000915261
5.71757e-06
0.000312905
0.000590983
-0.000253813
0.000472654
-0.000388352
-0.00133945
0.000679872
-0.000807992
0.000234439
0.00057183
0.000571009
7.12319e-05
-0.000643001
0.000454893
-0.000175573
0.00025918
6.58888e-06
-0.000277299
9.67235e-05
-0.000375435
2.81484e-05
-0.000307586
0.000279391
-0.000272613
0.000184329
0.000481263
-0.000200946
0.000236694
0.000757876
-0.00100307
-0.000108031
0.000225378
-3.07157e-05
0.000203012
-0.000727742
0.000621499
-0.000782702
0.00015941
-0.000145811
0.000260252
0.00041504
-0.000356346
-5.87426e-05
0.000238835
-0.00013211
-0.000150496
0.000275545
-5.17496e-05
0.000302756
2.19635e-05
-0.000324763
0.000133384
-0.00018505
5.16655e-05
0.000287046
-0.00025894
0.000642116
-0.00024757
-0.000394681
-0.000419924
-0.000228527
0.000315701
-0.000697336
2.89771e-05
-0.000177639
0.000169332
0.000119737
9.15746e-05
-0.000211313
0.00103612
-0.000220173
-0.000558278
-8.55896e-05
0.000643302
7.52878e-05
-0.000296552
0.000221485
-0.00013225
0.000114471
6.69497e-05
-0.000239155
-0.000260363
-0.000331947
-2.00279e-05
-0.000807288
0.000378757
-0.00043945
-0.00029904
0.000737185
-0.000808173
-0.000535073
-0.000409052
0.00043406
-2.50633e-05
-0.000279843
0.000960366
-0.000251167
0.000533833
-0.000247376
-0.000114764
0.000234501
0.000182953
-8.28405e-05
-0.000909585
0.000465973
0.000442053
0.00039232
-9.67046e-05
-1.78275e-05
0.000336835
0.000764062
-0.000537983
-0.000226623
-0.000391316
0.00109364
-0.000703257
-0.000220699
9.60348e-05
0.000124665
-0.000148697
-0.000129036
0.00027773
8.16967e-05
0.000156434
-0.000238133
0.000364775
-0.000321086
-4.37077e-05
3.88752e-05
-0.000594601
-0.000130788
0.000170613
0.00054378
7.56104e-05
0.00010598
0.00046076
0.000132566
-0.000593814
-0.000506321
0.000252102
0.000254133
-0.000165237
0.000593589
0.000447366
-7.75021e-05
-0.000149531
0.00026465
-0.00011512
-3.39046e-05
0.000393699
-0.000664024
0.000349433
0.000314154
0.000215331
-0.000186356
0.00011738
0.000639906
-0.000759264
4.96158e-05
-0.000194558
-0.000364175
-1.52905e-05
-0.000573971
7.72828e-05
9.3019e-05
-0.000259899
8.32536e-05
-0.000231952
0.000241616
-0.00027499
3.33733e-05
0.000722598
-0.000607081
0.000567991
0.000475888
2.64155e-05
0.000880056
-0.00053977
0.000201041
-7.8105e-06
0.000175715
0.000209885
0.000286626
-0.000727325
0.000213558
0.00020468
-0.000253383
-0.000780348
-0.000584828
0.000146204
-0.000207043
-0.00024035
0.00041602
0.000248729
0.000110178
-0.000358917
-0.0012505
0.00050748
0.000733738
-0.000279914
0.000326662
-4.67739e-05
-0.000877096
1.32364e-05
0.000173187
-0.000445602
0.000352577
2.94608e-05
0.000385525
-3.81706e-05
-0.0005206
-0.00044738
1.12521e-05
0.00039177
-0.00092027
0.00114921
-0.000245675
-0.000962812
0.000193797
-0.0003921
0.000352453
3.96185e-05
0.000111993
0.000571132
0.000367417
-7.96157e-05
-0.000287816
-0.000121612
0.000169221
-0.000214291
0.000470128
0.000578862
-0.000532886
0.000409027
-0.000143012
-0.000266042
2.67785e-05
0.000214837
0.000102218
0.000181196
-0.000283421
0.00107782
-0.00024804
0.000432894
0.000196518
-0.000629565
-0.0010538
0.000659099
0.000674179
-0.000625016
-4.98725e-05
-0.000720697
-5.83641e-06
-0.000209516
9.40353e-05
-0.000384866
5.96583e-06
-0.000189173
-0.000473695
0.000716788
-0.000243857
0.000321388
-0.000306855
-7.44267e-05
0.000398511
-0.000324154
-0.000145481
0.000207394
-6.19126e-05
0.000367586
-0.000370267
2.63028e-06
0.00103801
-0.000333796
-0.000131433
-6.83717e-05
0.000199805
-9.07105e-05
0.000205182
0.000254978
0.000798356
-0.00105833
-0.000289441
0.00090909
-0.000168153
-0.000144737
0.000312883
0.000270734
9.40162e-05
-8.78577e-05
0.000394992
-7.46787e-05
6.60065e-05
-3.58359e-06
-0.000717666
0.000549811
6.04087e-05
0.00027758
-0.000107753
-0.000727729
-0.000420595
0.000491783
0.000248872
0.000284602
8.52128e-05
-0.00102061
-0.0003992
-0.000157343
0.000556373
-0.000158693
-1.8533e-06
-0.00085641
0.00085075
0.000794338
-0.00102916
0.000231102
-0.000109445
-0.00029284
0.000363762
0.000142259
-0.000194389
-0.00019794
1.64553e-05
-0.000404786
0.000778891
0.000177011
-0.000133305
0.000839539
-0.000407642
-0.000433157
-0.000192719
0.00027597
-0.000796057
0.000358765
-0.000329889
0.000413672
-0.00037803
-0.000276115
0.000505805
-0.00022981
-0.00108068
0.000698766
-0.000328732
0.000551887
-0.000223296
-0.000350532
3.18878e-05
0.00026469
-0.000185317
-0.000231803
0.000417066
-0.000509384
0.000725484
3.18832e-05
0.00018425
0.000198267
-9.74583e-05
-0.000100809
-0.000173818
0.000156011
3.60404e-05
-0.000166439
-0.000543793
0.000265343
0.000215825
0.000340025
0.000144165
-0.000484378
-0.000196566
7.84057e-05
0.00011816
0.000103299
9.46583e-05
-0.000197958
0.00042285
-0.000445137
0.000859032
-0.00121902
0.000354886
-8.04361e-05
0.000322061
-0.000237892
-3.70985e-05
-3.16737e-05
0.000280394
0.000288002
7.93955e-05
0.000268647
-0.0005158
0.000246975
-0.000180186
0.000255193
-7.50081e-05
9.0198e-05
0.000390384
-0.000480832
0.000373855
0.000211372
0.000368299
-0.000174298
-0.000194028
-0.000253762
0.000291019
-0.000107504
0.00053018
0.000180863
6.82194e-05
-0.000249083
-0.000393969
-0.000171865
0.000565644
-0.000391401
0.000902413
-0.000513405
-0.000326036
-0.000180358
0.000650017
-0.000447096
-0.000328114
-0.000757492
0.00107349
-8.95827e-05
0.000762947
0.000522582
-0.000241443
-0.000417708
0.000691612
0.0007993
-0.00120292
0.00039387
9.93543e-05
-0.000252582
0.000520315
-0.000267877
-0.000833906
0.000208984
0.000622876
-2.56689e-05
-0.000395008
0.00107252
-0.000216869
0.00102565
-0.00013008
-0.000900563
-0.000198948
-7.49356e-07
2.14227e-05
0.000848539
-0.000871577
0.000975876
-0.000853323
-0.000152742
-0.000751783
0.000470916
0.000279909
-6.61412e-05
0.000360955
-0.000329444
0.000121092
-0.000155711
-0.000361507
-0.000168134
0.000529502
-1.85078e-05
0.000256548
-0.000856186
0.00012185
0.000689775
0.000224466
-0.000234734
5.07985e-06
0.000476727
-5.79912e-05
-0.000418781
-2.5051e-06
-0.000430893
0.000267444
0.000580963
-0.000848458
0.000249257
-0.000256411
7.14988e-06
-0.000127261
0.000416372
-0.000289179
5.79239e-05
0.000218642
-0.000563887
0.000275769
7.57627e-05
-0.000351569
-0.000909796
0.000209366
0.000697093
0.000104402
-0.000186804
7.91467e-05
-0.000170383
0.000354257
0.000111544
-0.000729688
0.000107544
7.05097e-05
-0.000178054
4.40005e-06
0.000215149
8.83424e-05
-0.000267782
0.000179434
-0.000628942
-0.000123502
0.000178267
-8.23982e-05
0.000406682
-4.16519e-06
-0.000402623
0.000226866
-0.000354185
0.000370889
-4.9525e-05
-0.000409304
0.00101461
-0.000631547
-1.32979e-05
1.32979e-05
-0.000460696
-1.77198e-05
-0.000934834
0.000951758
0.000496978
-0.00102986
0.00053066
-0.000240778
0.000273608
-3.28345e-05
0.000295754
-0.000896808
0.00072611
-0.000671072
-5.79499e-05
-0.000679948
0.000353256
0.000326024
-0.000967945
0.000676024
0.000264862
-0.000317652
-2.9926e-06
0.000260985
0.000420556
0.000562214
-0.000118998
-7.75682e-05
-0.000362888
-0.000242431
0.000604938
0.000707405
-0.000715523
0.000113379
-0.000277982
0.000133996
8.74891e-05
-0.000287128
0.000381986
-0.00108132
0.000695617
0.000849606
0.000183275
-1.12195e-05
0.000260473
-0.000105382
-0.000201619
0.000306995
0.000166675
-0.000198805
3.21304e-05
0.000352777
0.000289197
-0.000839555
0.000445804
-0.000527555
0.000291031
-5.61997e-05
-0.000317095
-0.000515118
0.000233812
-0.00056951
-0.000322545
0.000140444
0.000182091
-0.000685709
0.000280726
1.62867e-05
-0.000186537
-0.000343594
0.000920352
-0.000579811
-0.000859441
0.000388675
0.000469866
0.000143387
5.11431e-06
-0.000148502
-0.00119069
3.95583e-05
-0.000663603
0.00013356
-0.000810339
-0.000265883
0.00107065
0.000221592
-0.0002232
-3.02798e-05
0.00052394
-0.000303296
-0.000173995
0.000444376
-0.000669888
-0.0002021
0.000868987
3.16759e-05
-0.000224397
-0.000198535
9.28165e-05
0.000105719
-0.000440885
-0.000641378
0.000746174
-0.000941024
0.000173677
-0.000325565
0.000440496
-0.000114969
-0.000184276
-7.34708e-05
-3.65713e-06
-0.000172188
-8.56989e-05
0.00025788
-0.000199886
0.000923739
0.000244666
0.00078781
0.000124833
-0.000921907
0.000360042
-0.00110007
0.000728263
-2.54027e-05
0.00105351
-0.000935637
-0.000124384
-0.000258735
5.30865e-05
0.000433164
-0.000467483
3.40596e-05
0.000205851
-1.8614e-06
-0.000204716
-0.000612493
-0.000212956
0.000790179
-0.00111917
0.000763118
0.000355598
0.00129095
-0.000500246
-0.000801042
-0.00017734
0.000967626
-9.96798e-05
0.000222421
-0.000122742
-0.000759753
0.00108894
-0.000337582
-0.00115095
0.000392107
0.000746299
-9.42889e-05
0.00022428
-0.000129992
-0.000139683
-0.000144465
-0.00030008
-0.00036429
-0.00026529
-0.000451842
0.000186135
0.000265614
-0.000800869
0.000512949
0.000286707
0.000290715
-0.00105348
0.000748899
-0.000166766
-0.000474151
0.000144867
0.000133764
-0.000319124
0.000757961
1.64107e-05
-0.000779459
-0.00021117
0.00100403
0.000205927
-0.000102629
0.000687575
-0.000430242
-0.000257656
-0.000217014
6.55151e-05
0.000151498
4.53123e-06
-0.000571705
-0.000199692
6.7759e-05
0.00044335
0.000195986
-0.00063973
-0.000226373
0.00093244
9.85963e-05
8.15052e-05
-0.000180102
-0.000186024
-2.01243e-05
0.000206148
0.000493054
0.000786488
0.000209003
0.000159264
0.000135547
-0.000341195
-2.20781e-07
0.0010463
-0.000224108
-0.000663961
0.000216196
-6.66242e-05
0.000284702
0.000658664
-0.000334777
-0.000784379
-0.000153535
0.00016591
-0.00062989
0.000462556
-0.000314853
0.000259744
0.000119958
0.000265994
-0.000693418
0.00107364
-0.00039091
-0.000350648
-0.000201252
0.000551873
-0.000544561
0.000519672
1.22779e-05
-0.000144084
0.000375382
0.000428158
-0.000820089
0.00030959
-0.000706158
0.000657461
4.53766e-05
-0.000311079
1.84306e-05
-0.000313843
-0.000165918
-1.94841e-05
0.000185402
-0.000288243
0.00010978
0.00017846
0.000659026
-0.000226334
0.000245618
-0.000188696
0.00012841
6.20281e-05
-0.000190439
0.000814825
0.00031657
-0.000189465
5.86773e-05
-7.39631e-05
-0.000163947
-4.76688e-05
0.000176079
0.000242215
-0.000148776
-9.34393e-05
-0.00021339
0.0001191
-8.16874e-05
0.000215071
0.000194496
0.000214503
-0.000739172
0.000969288
-0.000218217
-0.000237662
0.000680595
-0.000234845
6.78902e-05
-0.000750031
0.00116635
0.00114184
-0.000746603
-0.000649793
0.001028
-2.51602e-05
-0.000613134
5.99419e-06
0.000606177
-0.000416732
-0.000183772
0.000600321
0.000178052
-1.68508e-05
-0.000161201
0.000367803
0.000764519
8.64589e-06
-0.000851796
0.000841483
0.000195907
-0.000101766
-9.4141e-05
-0.000286566
2.72344e-05
0.00025932
-0.000495709
-0.000623366
0.000506701
0.00071753
-0.000331087
-0.000387019
-0.00111237
0.000769982
0.000337655
1.77154e-05
0.000180551
0.000201576
0.000305147
-0.000544252
-0.000266758
0.000810375
-0.000480751
0.00064528
-0.00010979
-8.87449e-05
-3.66533e-05
0.000180041
-0.000202506
1.20056e-05
-0.00019887
0.000976565
-0.000241101
0.00033212
0.000360773
-5.8061e-05
0.000165522
-0.000196078
3.05565e-05
6.30951e-05
-0.000288982
-0.000158578
0.000447492
-0.000702358
-0.000687941
-0.000224873
-0.000850519
0.000504171
0.000253146
-0.000416984
-0.000788051
0.000213557
0.000267912
-0.000137268
0.000707617
0.000314004
-0.000223952
-0.000107868
-0.000118549
0.000226417
0.000136156
-0.000382856
0.000246663
-0.000978494
0.000637333
-0.000101965
-0.000130046
-9.46263e-05
0.000224672
0.000303573
0.000181183
0.000806977
-0.000989754
-0.000146372
0.000216349
-6.99778e-05
-0.000260838
0.00110484
-0.000414121
0.000908705
-0.000380312
-0.0001293
0.000509578
0.000177179
4.85957e-05
-2.83833e-05
-0.00078483
-0.000474576
-0.000131062
-0.000110304
0.000241365
-1.27791e-05
0.000258388
0.000299465
-6.24099e-05
-0.000237063
8.31043e-05
-0.000327065
0.000243921
0.000215383
-0.000141006
0.000250166
-0.000840829
0.000581581
0.000266621
3.69519e-05
-0.00030359
-0.000770246
0.0009499
0.00117071
-0.000582622
-0.000603335
-0.00109247
0.000700307
9.8135e-05
-0.000278712
0.000172245
-5.57067e-06
-0.000390828
0.00109196
-0.000712395
0.000202904
-0.00084974
-0.00107119
0.000255554
-0.000273542
0.000808078
-0.000532083
0.000732185
-0.000200738
-0.000988278
0.000969726
-0.000192411
0.00108591
0.000363321
0.000328357
-0.00103151
-0.000437222
-0.000318828
0.000319276
-4.619e-07
-0.000174842
0.000227768
-5.29264e-05
-0.000268353
0.00107831
-7.62581e-05
0.000365192
-0.000288984
-0.000287219
-0.000623596
-4.03534e-05
0.000210399
3.50743e-05
-0.00016512
-4.4847e-05
-0.000158557
-0.000267088
-0.000184836
-0.000209494
2.347e-05
0.000137102
-0.00020949
6.92383e-05
0.000318769
3.41034e-05
0.000626345
-0.000373873
0.000345242
0.000179738
-0.000525204
-0.000224518
7.91481e-05
-0.000267985
0.000330911