/*--------------------------------*- C++ -*----------------------------------*\
| =========                 |                                                 |
| \\      /  F ield         | OpenFOAM: The Open Source CFD Toolbox           |
|  \\    /   O peration     | Version:  v2012                                 |
|   \\  /    A nd           | Website:  www.openfoam.com                      |
|    \\/     M anipulation  |                                                 |
\*---------------------------------------------------------------------------*/
FoamFile
{
    version     2.0;
    format      ascii;
    class       volScalarField;
    location    "250";
    object      omega;
}
// * * * * * * * * * * * * * * * * * * * * * * * * * * * * * * * * * * * * * //

dimensions      [0 0 -1 0 0 0 0];


internalField   nonuniform List<scalar> 
13917
(
0.039369
0.022157
4.83512
0.0233925
0.0221079
0.432871
4.54639
4.99918
5.77523
0.063527
0.14858
0.063423
0.0234609
10.9101
0.0260666
0.0248988
0.0222732
0.0516081
0.0622374
0.0221135
0.0222668
4.46873
0.0220928
4.98429
0.0220111
4.28943
0.0412001
0.053395
0.731744
0.0972994
0.04187
0.0276501
0.0357342
0.0255948
0.0220271
0.523329
0.0221016
3.94668
0.0250573
6.33381
0.0219035
0.0222858
0.0215823
0.0811708
0.0220483
0.027319
0.0508253
0.0671554
2.83934
0.0220196
0.0264927
0.0223415
3.32729
0.0259592
0.0222859
0.0265058
0.146682
0.0220298
0.0247861
0.0220086
10.5732
0.0221592
24.2091
0.022102
0.403764
16.5422
0.0221038
0.0220456
0.162262
0.0359743
0.0221156
5.83736
4.422
0.0220169
2.90486
0.0740394
5.81346
0.0226682
4.03178
0.0222367
0.0222046
0.0221112
0.375425
3.94222
4.89402
0.022574
0.0221802
13.4013
0.0262328
0.0215729
4.21713
0.0849626
0.0218724
0.0229683
14.8772
0.377944
0.113884
0.0619969
0.128278
0.106375
0.0218186
0.0323281
0.0815454
0.0230331
0.0217959
6.08621
0.438473
0.0707528
0.0222778
0.0447682
4.42817
5.60667
0.0811425
5.98262
0.0229553
3.21142
0.0220091
1.48345
5.20628
0.0259371
0.0222738
0.157349
4.7159
0.0503284
0.0219805
0.0228061
0.02202
0.0219881
0.0216059
0.417657
3.72765
0.0228619
0.0220716
0.0222742
2.92021
4.94558
0.0399014
0.113035
0.0220967
0.025843
0.243003
0.0217625
0.0225681
0.100687
0.0220455
5.91785
0.771284
0.0222881
0.0217372
0.028278
0.0539639
3.21491
0.0834226
0.0409486
0.0267357
6.47935
0.0345553
2.86666
7.85875
3.0758
0.0241825
0.0420938
0.0222367
0.109164
0.0795146
0.126013
0.0230052
0.0574485
0.0218947
0.033367
0.0411993
6.78624
0.0882748
0.0225734
5.50667
0.0449273
3.73124
1.94934
5.82602
0.0219183
0.0884576
0.0433431
0.0217564
0.0221712
0.0298368
4.40785
0.323582
8.46345
0.0357836
0.117475
0.265297
5.44647
0.297095
0.0221032
0.11885
0.039997
0.0224542
0.0218802
0.228794
6.65491
0.0258292
0.022035
0.0533446
0.0532821
4.84344
1.38866
0.0220293
0.022043
0.0605848
4.60914
0.0224705
4.56439
6.73904
0.117896
0.0218039
0.573288
0.0531305
6.22757
0.0219662
11.2379
0.021913
0.0868093
0.0218948
3.99973
6.13563
0.025223
1.93999
0.0270533
0.0218077
0.523484
0.0864454
0.0353828
4.8789
8.99304
0.0217742
0.0281294
4.17483
4.67658
0.0222289
0.0219502
5.09927
0.12903
0.0222668
0.213171
0.0921277
0.040348
0.0366255
0.0222288
0.0446577
7.45761
0.0219027
0.11318
0.140474
0.0219972
0.0220203
0.0662796
3.79091
0.0784049
0.0301622
0.0262184
0.0222712
6.09624
7.15682
0.181732
0.0218157
4.6721
6.87427
3.63845
3.95905
0.0789264
0.0222153
0.0219366
0.0510552
4.20034
0.113682
0.0245138
1.92824
0.0410272
0.0215991
8.53524
0.02209
5.50993
0.0253935
0.022262
0.0271877
0.0406327
0.0418204
0.206446
0.0321883
0.0220041
0.323308
4.8941
7.13357
0.0219675
4.24041
0.0221727
0.0219977
0.0220167
1.11511
0.0221058
0.095012
0.0357215
0.0218758
0.0535232
0.0230519
2.38694
0.043781
0.077358
0.0217927
0.0220114
4.50463
5.34034
0.0220034
0.0219154
8.59173
0.0218987
4.28341
0.0217867
4.01877
0.0223177
0.45808
0.032593
3.02884
0.0238903
1.13198
0.304756
0.0271893
0.128418
0.510728
0.022248
3.84019
0.120995
5.71897
0.0247605
6.64193
0.0288239
4.86358
0.245627
0.109647
0.106476
4.774
0.0222169
0.0427647
4.42197
0.0221658
0.0234008
6.11567
0.278543
0.0224997
0.221549
0.669929
0.021861
6.2333
0.243059
0.0220834
0.0218947
0.0221802
0.021732
0.333246
5.71245
0.691587
4.41995
0.0220147
0.127273
6.59359
0.0412496
4.4816
4.06091
6.03824
0.0217672
0.192341
0.0218742
11.2506
0.0220066
3.7706
0.0920528
0.0243716
0.0221986
0.057548
0.0966601
0.069765
8.50991
4.60034
9.61058
0.0466853
0.0595756
0.0219581
4.84535
4.33361
0.0220452
0.619968
0.0220411
0.316109
0.0223156
0.0222269
0.0230916
3.70409
0.0230572
3.492
6.39146
0.134145
0.467943
0.0222363
0.484455
0.420783
0.0220381
0.309328
0.022149
0.0220267
0.0975302
0.0222616
0.0220155
0.0218703
0.346465
0.0222478
5.58466
4.02171
5.13623
0.297558
3.46297
6.18867
0.0406536
0.0220209
0.165618
0.0248564
0.0293715
0.0220955
5.81791
4.52868
4.02646
0.024873
0.104105
0.0245298
0.0254841
0.0694126
0.0228781
0.213858
0.0222651
0.0220968
4.22154
3.71524
3.72468
0.125336
6.11144
3.81992
4.40407
5.85884
0.0216356
0.0554952
0.0229341
0.022072
0.5662
0.0517521
0.0218793
0.0601708
0.0385994
5.91566
0.0220339
0.111277
14.7031
0.722549
4.45411
0.0222552
0.0220519
0.0224179
0.0347409
0.0217696
4.36705
0.549795
0.0320216
5.4447
0.0264313
0.111265
4.55663
0.785145
0.129738
0.244235
0.110932
0.0588007
0.155149
0.0412265
0.147537
0.592665
0.046587
0.0783442
0.0218638
1.55468
0.0272073
0.0216532
0.0333127
0.0227675
5.47664
5.98213
0.0218942
0.021616
4.53665
8.76962
0.0222618
5.80149
0.0227285
0.218872
0.0219079
5.11819
2.04704
0.028205
0.0222833
3.45631
0.250438
6.95359
0.0222694
6.58153
2.44337
8.86051
0.0216626
4.66125
6.59745
0.0413198
0.0218877
0.0222656
0.074225
0.325936
0.0218142
0.021901
0.0219598
0.0219541
5.22896
0.642314
0.0407296
0.3107
0.0219672
0.021826
0.102004
5.37671
0.0327876
0.0219066
0.0220225
0.0220654
8.81804
6.04921
0.0221743
0.0220641
0.193729
0.0409349
0.0325708
0.0220462
0.0231687
0.0267599
0.0766419
0.407037
0.322355
0.168697
0.0936779
1.43407
0.075657
0.0219773
6.23287
0.0220691
0.0236787
0.0240313
1.54667
0.0748803
0.0218314
0.723044
0.109766
12.7925
0.094652
0.035547
0.0405973
0.0221898
6.94847
0.501375
4.40971
0.0221856
0.0290778
0.313876
4.06127
24.3801
0.0649659
0.145101
0.0248459
0.0240083
0.0220491
0.0537152
0.0866348
0.0221629
0.0526259
0.134004
4.49783
6.27339
0.0239375
0.107859
1.48599
0.0282611
0.0223811
3.52052
6.44724
5.7264
0.28082
0.0216202
5.6389
0.0727026
0.0218648
0.0310665
0.0719877
0.0343724
0.0953981
4.06285
0.151094
0.0366562
6.88893
0.0230499
7.34713
0.0222375
0.0221677
4.3465
6.39743
0.63496
0.0230447
0.0225197
0.0220671
0.0416583
3.36371
0.118738
0.0242034
0.120829
0.056476
0.0219122
1.98951
0.115392
0.215902
0.0219489
0.146391
0.0227452
10.4084
0.0648314
0.0746156
0.029378
0.0218823
0.0216728
0.022053
0.117872
0.0276908
0.317421
7.20782
0.0567335
0.0218702
0.147817
0.661463
0.92915
0.0218818
0.0270495
0.0219089
0.0282869
0.0249424
6.42189
0.0222288
4.15193
0.0280551
0.147268
0.0859961
4.44296
0.07768
0.0222218
4.42966
17.6965
0.0220237
0.023954
2.23471
0.227331
0.113536
0.0222376
0.0223108
0.344411
0.0245
0.069196
0.0630959
0.0216737
0.0531973
4.87013
0.0218648
0.0228531
0.0219796
5.54541
0.0222656
0.0245478
6.14464
0.0232734
6.34531
0.0268179
0.036431
0.0219722
0.0498982
0.0220252
0.0574178
0.0218878
0.0840628
0.0227302
27.3849
3.01024
5.41595
0.0223013
0.0222063
0.0716589
0.0476303
4.79611
5.70045
0.0511248
0.0220307
0.340328
0.653378
0.219316
0.268578
0.0489713
3.98705
0.0388399
0.0391027
0.141915
0.181126
0.0504215
1.09715
0.0499351
0.0233675
0.076458
0.0272927
0.0217249
0.0280872
0.0447376
0.0276362
0.0220321
0.0219286
0.0567335
0.0232001
0.070012
0.0220329
0.022056
0.0222733
0.0230701
0.0215354
0.0256417
0.0219997
5.29306
0.0622326
0.366582
0.0217938
0.0222472
0.0479706
0.0598203
0.0226853
8.37509
0.0784151
11.3006
0.0281493
0.118672
0.0223641
0.0222689
0.0219369
0.0230665
7.89542
0.022255
3.79359
0.0259136
5.9666
0.0490043
0.0797326
0.144859
0.0216748
0.022291
0.0633765
0.0220454
0.0223807
7.95496
0.022654
0.0221805
0.0275622
0.0219439
0.0216726
0.0276952
0.0279865
6.07674
0.0346737
0.0218635
0.0218787
4.09421
0.115724
0.0221767
0.0221889
8.20161
1.96
8.70573
0.035686
0.0233767
0.0217855
0.0216547
0.0474587
0.0357019
0.237567
0.0251293
3.91992
0.0222639
0.0235806
9.41407
0.0220476
0.0273603
0.0219837
0.0220808
0.0433641
0.0427776
0.0224243
6.30529
4.35767
0.0870165
0.0219735
0.0215883
0.114821
3.15461
0.0222612
1.02222
0.0215883
0.0421307
0.0217111
0.0217628
0.331965
0.0219577
3.04652
0.0393625
0.0222731
0.0216139
0.0220666
0.0219091
0.0227746
4.15367
0.0218327
0.0217539
5.30717
5.92644
0.0377835
0.0462664
0.0656006
0.0248898
0.0217765
0.0280813
5.14099
0.0887437
0.0221303
0.0222286
5.79699
0.0353221
4.53827
0.0222662
0.0227924
6.64573
0.0328829
0.0224961
7.99099
1.73858
0.0219057
0.128266
0.0219343
0.0219356
0.021781
4.42373
0.0215283
0.0218786
0.0217707
3.3005
0.0244293
0.216976
0.0628796
0.0217525
0.032755
0.0221744
4.43198
0.0219655
0.0218487
0.0221815
0.119308
0.0221737
0.150843
5.86125
4.7965
0.026521
0.30266
5.3919
0.0220065
7.01533
9.92135
4.88843
3.48904
5.20663
36.8225
0.137555
0.0222896
3.98442
0.0328292
4.25398
0.0216578
0.0218676
0.0221764
0.0221676
0.0256437
0.0308468
4.67759
0.0218581
0.0220712
6.42598
0.290605
0.0220672
0.0377205
0.0292043
0.0221649
2.80577
0.039347
0.0237068
0.0243719
5.76872
7.83845
1.29866
0.0216966
0.25325
0.109345
4.6613
6.08248
0.0864466
0.0219031
0.022422
0.0222662
0.0214956
0.0231558
0.0216286
0.026869
0.0378105
5.73553
0.126571
0.0218927
0.115678
4.43628
0.0410494
0.0222989
6.58924
0.0218603
0.0223042
0.0376526
6.74365
0.0221739
0.0219496
4.5731
0.20921
1.06955
0.102813
0.567649
0.0219247
0.16804
0.022327
0.0219995
0.0223221
4.37106
6.4033
0.0217455
0.0216099
0.0220014
2.37182
0.0229465
0.0292405
0.0220459
0.0223896
0.163466
0.0217667
0.0585551
0.341801
3.72194
0.0219693
0.0824223
0.0241104
4.61852
4.38052
0.0220172
4.55467
0.0699636
1.45095
0.0221726
3.65309
0.0222454
0.0263368
0.0421319
0.102907
4.56436
0.24306
0.164912
6.54546
0.0218639
0.293774
0.0217529
0.0272685
4.57267
0.0220808
0.0222529
0.0227394
0.0221421
5.25902
0.0216707
0.0220836
0.0541003
0.0462443
0.0489503
0.594971
0.127159
7.7062
0.063286
0.0345911
0.0381809
4.7611
0.0388446
14.4401
4.2158
0.0251254
0.0217684
3.33229
0.220143
0.0222926
0.106795
0.033164
0.0222497
0.0260154
0.0221818
0.0421268
0.0222921
0.0480111
0.107197
0.021882
0.059574
0.0217901
0.0592371
0.0218832
0.0260228
0.0567008
0.023331
0.0220581
0.0217549
2.09095
0.0795341
6.20944
0.0220129
0.0221073
0.0577587
0.0219849
0.0889939
0.0797113
0.0222514
0.09245
0.0217755
10.2531
0.0222553
0.0362082
5.45628
0.288377
0.0219318
0.0235204
6.79104
0.0220019
0.0219206
4.52566
4.30261
0.0242127
0.156064
0.0221042
0.0220509
4.40731
0.0229431
0.0216848
0.254092
0.0217925
1.80806
0.0221983
0.0216883
0.0221783
0.129396
3.72904
0.0221159
0.0222488
0.0219257
0.0257385
0.0220778
0.983919
0.0575131
0.0222688
5.71886
0.0493342
0.300361
3.84737
3.65143
0.0217345
0.0222423
0.0220326
0.746272
0.0262285
3.77387
5.77269
0.023864
4.47953
2.31878
0.0484287
0.14108
0.0686437
0.382921
4.58869
0.0628284
0.990737
3.98381
0.0621792
0.0250635
4.58486
0.0538333
0.0216693
0.0231788
13.9409
0.0377637
0.0218879
0.0518285
0.0979211
0.0380308
4.46848
0.0236442
6.53537
0.0382918
0.212901
0.121055
0.271165
0.0285413
0.0217684
0.022528
4.81738
0.0219952
0.0240549
0.0217963
0.0231824
0.0218594
0.035069
0.145331
1.91156
0.0448479
0.0586384
4.02996
0.352737
0.0218511
2.04242
4.25295
0.0217226
0.0219116
0.0302731
6.75128
0.0222544
0.0676205
0.603552
0.0473187
0.0220589
0.0229939
0.0218058
0.107109
0.0391153
0.0219908
31.1465
4.00705
0.0425772
1.23444
0.0630184
4.96429
0.0232104
0.025166
4.2799
1.87896
0.0873182
1.75627
0.0280089
0.0222763
0.0219203
0.0221504
0.0220269
0.0226137
0.0520674
0.0219404
0.11914
0.0219429
0.0280781
0.0217353
0.0791522
0.11839
0.769815
0.0219949
0.268235
0.021919
4.37333
0.0220358
0.0256064
0.0221242
0.248223
4.73844
0.136391
0.0219339
0.12692
0.0220108
0.0294122
4.26546
0.0219119
0.0223422
0.0445813
0.031041
4.48046
0.0219416
0.0295638
0.0229788
0.0220407
0.0320391
0.0224296
0.0217482
0.0236129
6.51854
0.0242955
0.230703
5.75763
0.0504555
3.64076
0.0240607
0.0217545
0.0307311
8.36732
0.0231784
0.0361007
0.040902
4.30887
0.021895
5.72804
0.0609705
0.0682756
0.0217132
0.0216289
0.160361
0.0224078
0.0222859
0.033548
0.0216682
0.0243261
0.0282272
0.0681069
0.271102
4.47025
0.0248563
0.0716909
2.60963
7.57895
0.0365258
0.26077
6.6128
0.0384184
13.3902
0.0236525
19.9065
5.24534
0.0216498
0.022262
0.0219561
0.0224997
0.044231
0.0217359
0.0238778
0.0864975
0.0231772
0.0351888
4.34924
0.0300155
0.0239565
5.77824
0.0225017
5.71256
0.0241014
0.0536776
0.0218845
6.83751
6.04123
0.0220095
0.0226115
3.81059
0.0293442
6.73809
0.0220229
0.0217899
4.49337
0.0226025
0.0439958
9.85839
0.0220655
0.0534047
0.0288516
0.0216245
0.0219037
3.93394
5.61956
0.0221686
0.0233618
0.0220495
0.0263269
0.0363134
6.15063
0.0226372
2.56661
4.1568
0.208841
2.60348
0.0225561
0.117968
0.192745
0.0289244
0.0220607
0.0582533
4.17327
0.0233328
0.0459752
5.05635
3.63978
0.298774
0.0251833
0.0222413
0.0222463
0.0220685
7.49852
0.0533878
0.0236396
0.0227146
0.0242115
0.02227
0.0219727
0.0220422
0.0704907
0.0368558
5.61852
0.046722
5.09485
3.41533
0.0302155
0.0493592
0.0218114
0.028296
8.2821
0.0221058
0.0234703
0.049943
0.113651
0.056814
3.90075
0.219579
0.0218648
4.01752
0.0215925
0.0222076
0.04603
0.0222735
0.0218972
0.16267
6.93159
0.0217982
4.25198
0.0220881
0.0217246
0.0233883
2.69123
0.0288295
0.0240737
13.0945
0.022853
0.238025
3.47293
0.0222462
0.0478196
0.0220113
5.97509
0.068805
0.0220443
4.21024
0.0524376
0.0784778
0.0222785
6.55305
0.0290519
0.403813
0.0227973
0.0714323
6.88339
0.0217459
1.45464
0.0221062
0.0606391
0.0520002
0.0222453
4.57663
0.023518
0.111438
0.0561838
0.0961905
0.0401182
0.0436413
0.022569
5.01695
0.031626
7.00627
0.0297962
0.0622337
0.0219496
0.0431661
0.0220455
0.066841
4.69328
0.0226999
0.0218228
3.43135
0.0227383
2.93403
0.0224208
4.36412
0.22779
0.0348122
0.0219913
0.0219409
0.0221097
0.0216273
0.0998663
0.0558043
0.0384125
0.0256044
0.0220835
1.94297
0.0234373
0.0336299
1.90039
0.0220333
14.0817
0.0497792
0.0291406
1.26099
4.42431
0.322349
4.49466
8.98336
0.0218878
0.361068
5.00218
0.354172
0.0221737
0.0222176
0.11044
4.14511
5.57618
0.620787
0.022228
0.050342
0.0390882
3.48016
4.88507
0.0408738
0.12326
0.0238027
0.0794475
0.0870214
0.0221655
0.101971
8.15864
0.022131
3.00482
0.0222533
0.0219363
4.74699
4.11223
0.0218508
0.022298
0.0224235
0.0217978
0.0482275
0.168556
0.0229631
0.0219894
0.0220991
0.0390562
0.027528
0.0272832
0.332207
0.0220265
4.19252
7.60028
4.42217
0.152401
0.0511804
0.825966
0.0327388
3.9279
1.55786
8.84464
0.0223839
6.98316
3.5085
0.0217691
0.022036
0.101438
4.59139
9.97397
0.0217537
0.022017
3.70328
4.10594
5.81554
0.0238726
0.0239033
1.87836
0.0221834
3.85001
7.32374
0.907283
2.25765
0.0220632
0.0219245
0.0218882
0.0261242
4.18775
0.0390021
0.0251875
0.0226249
0.085532
7.1501
0.0390178
6.16039
5.32894
5.27255
2.17101
0.0220508
0.0221726
4.36755
0.0216597
0.021668
0.0230012
2.81412
0.036434
9.59406
0.12819
0.0220264
5.54308
0.0388615
0.0218637
6.07165
0.168296
0.025115
0.0220573
5.1185
4.58188
0.0221805
7.56197
4.23291
6.44591
2.08964
0.0813703
0.0219262
0.0225005
1.73449
0.0253564
4.48077
0.0410269
2.90301
0.259071
0.0228814
0.0289101
0.0219206
0.0226834
4.80406
6.95256
0.0220686
4.88979
0.0416054
0.0220243
0.0247478
0.0219359
0.15659
0.0224028
2.29219
0.0511561
0.0219168
0.0218751
0.0969561
8.15809
0.0380734
0.0238963
0.0420874
0.0220403
0.0230367
0.0269666
8.76548
4.13682
4.5868
0.0217189
0.0218684
0.022325
0.119071
0.021876
0.0223688
0.163999
0.0569171
0.586946
0.0216379
4.55072
4.10396
0.0222843
8.87177
0.11107
0.0361426
2.05245
0.0222747
5.18568
0.0294069
0.0230207
0.0238734
0.0216561
0.211076
0.0224392
0.0226703
0.0308271
3.53753
3.67854
0.0222462
0.022023
0.0234188
0.0219712
0.129291
0.0224296
0.0820503
0.0234074
4.22545
0.0225779
4.40939
0.02172
5.72238
0.0223583
0.02164
7.22084
0.314992
0.111064
0.767262
0.0441575
0.0396353
0.0220448
5.20763
0.0220645
0.0218825
0.0876386
0.0619563
10.3026
4.52368
0.118693
7.06583
0.126046
0.645524
0.0218857
0.0247357
0.0274969
4.24332
0.0248354
4.35728
4.54143
0.0221388
0.0220693
0.0220078
1.53706
3.33131
0.0232402
0.0221099
0.0256359
0.0278232
0.0371365
0.379343
0.315934
0.0220648
0.63843
0.0830495
8.53855
0.0699612
0.0232074
0.0237723
5.36395
0.0218853
0.0867585
4.6901
0.0226945
0.0252431
0.168436
0.136064
0.0227422
6.63176
0.0242279
0.293375
0.0391197
0.0301556
0.022654
4.50745
0.0218613
0.0965792
1.44686
4.97339
0.0485991
0.0655389
0.0253245
0.047602
0.0222658
5.19099
0.0263441
0.0219542
0.0294225
0.0220926
0.0222692
2.97463
0.0220682
0.0221794
0.0220396
0.125774
0.0222485
0.0328051
0.0704334
0.228969
0.113945
0.0222537
0.238099
0.473927
0.217223
0.0831217
0.0274416
0.15173
4.79465
0.631975
0.0222845
7.6324
4.27821
0.0222839
0.0239959
0.0216464
0.74669
0.103743
0.0220097
1.29108
4.29076
0.0218122
0.0222147
3.84157
4.22197
0.0633901
0.0216588
11.2321
3.31616
3.27287
0.0220281
4.26261
0.0799028
0.0704878
4.48679
0.0259088
0.0216582
0.0296361
0.185568
0.0314096
4.0888
4.62969
0.021817
6.55648
0.510543
4.61258
0.0217173
0.051789
0.0222938
0.0219224
4.30123
2.62766
0.281342
3.5082
0.0291406
0.0494272
0.0221994
4.82471
5.98302
0.0220488
0.0222247
0.0318146
0.0217882
0.0495293
4.64835
7.61306
0.0499435
0.0224255
0.0221013
4.29116
0.0249301
0.0514394
0.0217965
0.0229412
0.707226
2.94377
0.302286
2.93156
0.0221712
0.299607
0.0222939
0.0476243
10.0549
6.84007
0.022073
0.0222938
0.0347024
0.0256848
0.0221903
4.57329
4.2693
0.021774
0.0215175
0.0221911
0.0219699
2.68814
0.0217239
3.98171
0.0998382
0.0617513
0.021849
0.0473753
4.78751
0.0329486
0.444733
6.00371
0.022238
7.16068
0.0330848
0.0355775
0.358471
7.24754
4.67555
0.0584617
0.021898
0.252858
0.0217342
0.0252915
0.0222091
3.96595
0.031569
2.0109
0.220501
0.0474776
0.022125
0.286335
0.0265883
0.0222704
0.268307
0.0216006
0.0368891
0.0335727
0.0221717
10.0559
0.0233193
0.585052
0.0228045
0.0219386
5.7292
3.81772
0.0240904
0.032535
0.0381144
0.0570316
0.0568936
0.0259231
0.0258038
0.0250073
0.22234
0.0249945
4.07214
0.0595474
0.202169
0.11364
0.0225779
4.73426
0.0216116
4.65194
0.0242076
4.43967
4.52205
8.33941
7.55876
0.309778
0.0767686
0.0219813
4.47445
0.0847883
0.0220435
7.92462
5.68183
0.0232574
0.0236201
0.0304408
0.0304445
0.0317375
5.29822
0.022284
0.0292527
0.0342926
0.0320824
0.022165
0.0825897
0.0216101
4.17959
0.0236248
0.13028
0.0314608
0.0388494
0.12225
2.98417
0.0846754
0.0218331
0.243463
4.46248
23.2713
0.0223344
4.17447
0.0285829
1.79592
0.0220646
0.0244455
3.98699
0.0503804
5.06429
7.39712
0.0333824
5.11149
0.0219641
0.0215993
8.91234
0.0592314
0.0243667
5.4876
0.0267424
0.0456169
0.0292469
0.0699063
0.0221411
5.74299
5.27031
7.00715
0.288075
0.0253242
0.0562953
5.04299
0.0239827
0.0222979
0.0812425
0.0216935
0.29258
8.01401
6.49887
5.46412
0.0541122
0.0223965
4.30317
0.021598
0.0718743
0.0222354
24.4969
0.0237149
0.0470792
3.83214
0.115131
0.0220283
0.0319691
9.45527
0.0220761
0.139918
0.021786
9.6559
4.37334
0.109995
0.0791611
0.0219534
0.209709
0.132974
0.0386409
0.0217911
0.0224271
0.0221472
0.053166
0.022124
0.0834942
0.022124
0.0217918
6.77445
0.021856
0.0266354
0.0248559
0.0222748
3.76361
0.0218534
0.0335816
4.14759
0.0473101
3.96947
0.0220638
4.61403
0.0496808
5.27834
0.0235014
0.121907
0.0221274
0.0400992
0.118837
0.108966
0.242819
4.23022
0.210674
1.82749
0.026949
0.107426
0.0416364
0.561195
0.0250247
0.022078
0.0220318
0.0504528
0.0459691
1.94441
0.0521932
4.70069
6.897
0.102699
0.0220001
4.10815
0.199668
0.0224655
0.0240379
0.0220732
4.884
0.0220347
8.40306
0.0218444
0.0267276
4.97123
0.0779336
0.0220443
0.0220263
7.91527
0.0218656
0.0239961
0.025041
0.0322772
0.027431
0.0221487
0.147203
0.0811246
0.0437019
0.306071
4.49867
3.75031
6.23667
0.0217353
0.0219888
0.101275
0.0224072
0.0472828
4.12891
3.87425
0.0216553
0.022045
3.45905
0.326377
0.021671
0.0218341
0.0265273
13.5552
4.17791
0.0263579
0.0337711
0.0222001
0.367261
0.121386
0.14138
0.0317668
0.0439274
0.0224142
0.0377035
0.316576
0.0227614
0.0221228
0.0261727
4.68973
0.0251379
7.33089
0.0221079
3.94285
0.0362676
0.0279235
0.0217794
0.0219281
0.790709
7.95313
0.0578749
4.26775
10.0356
0.022516
4.1276
0.138275
0.0218897
4.47371
0.223468
0.110306
0.0222538
3.5753
4.56366
0.021932
0.0393932
4.33758
0.0445793
0.0220453
0.0217852
0.0223602
0.0237796
0.0803334
0.300144
0.0770277
0.0766049
0.021722
0.022183
4.63051
0.0218364
0.0479086
0.0265486
0.0220904
0.0494677
0.0220267
0.0236714
0.331254
0.0220011
4.55699
0.0220224
14.1392
3.81191
0.0914082
0.0222261
0.0222927
4.31124
0.0216446
0.0240924
0.0223356
0.334019
0.866927
0.0332567
3.80903
0.0418086
1.05072
0.0225387
0.0673962
0.0217821
0.0221404
5.06799
3.84508
1.24582
0.0236993
0.0673911
0.0673846
4.85161
4.20051
0.310063
0.0389062
0.0215933
4.25253
0.0218948
0.0219531
0.289812
0.109767
0.0282241
0.199297
0.0471246
0.0314797
0.0274523
5.32476
0.0242445
0.0219949
6.7979
0.0468054
0.0217132
3.51453
0.0220345
0.0221124
0.156284
0.151222
12.4625
0.0217299
0.0247425
0.0219166
2.2207
0.0218612
0.534092
3.84935
3.71721
3.48836
33.0237
0.0302088
4.55999
0.868682
0.0222103
0.0304882
0.0435666
0.0303108
1.23602
4.24072
4.5382
3.67663
2.37905
0.0221477
0.101996
0.0220421
4.84806
0.0283499
0.0230554
0.0239992
0.0226514
0.0218772
0.102366
4.54312
0.0217229
0.0235663
0.0218669
4.6549
0.023421
5.75552
3.88632
1.17711
0.0220951
0.0218836
4.49643
0.352361
0.0221398
0.299065
0.0222285
0.140422
0.187076
0.0922544
0.0501855
10.3722
0.0217954
0.021783
0.226329
3.3828
0.0291464
0.0466111
0.021935
8.75679
0.0220138
0.0219547
0.0230957
0.0219957
5.37501
4.12941
1.35817
0.0583738
4.32896
0.399017
0.0216611
0.0306333
0.0216978
1.26613
0.0219712
0.0247808
0.0219998
0.0219232
0.0217707
2.72876
0.0227369
1.7005
0.0215915
0.0324548
0.0228934
1.57413
0.0220481
0.0310939
0.0343539
0.0691239
7.12961
0.0219193
4.32059
0.0678621
0.0453945
0.0219745
0.0219511
3.57344
16.129
0.021986
0.0218739
0.271472
0.240156
0.0384505
4.10067
0.0227293
0.301016
0.0308004
0.0217066
5.45355
0.0229203
4.0686
0.0220298
0.0226463
0.0221214
4.3334
3.69298
0.0216756
0.244558
0.236249
0.0220613
0.0218558
0.0218998
0.259203
4.1374
0.0638018
0.0240885
0.0392184
0.0220318
0.0220493
0.0236065
0.0220066
0.176092
0.0220631
0.061771
0.615293
0.0356985
0.0216206
3.93928
0.072115
0.0220407
0.0799571
0.0301749
1.14531
0.0245185
10.5283
0.055994
0.0219866
0.0856704
0.0848477
0.0245287
6.18908
0.0582676
0.0292558
1.46972
0.0219346
0.150134
0.0880212
0.126399
0.0219432
0.0219736
0.0216413
0.0335376
0.0542477
0.0530654
6.49674
4.66676
3.92932
0.0222668
1.9032
3.8848
4.36745
0.0220012
0.0220174
0.0524981
4.31985
0.0241121
0.0345873
32.2609
5.13088
16.1623
0.115465
0.162186
3.44136
0.384799
0.0216097
11.4342
0.261912
0.0222938
0.0223023
0.0227718
4.82616
0.0953438
5.30641
0.023901
7.25654
0.0221088
0.971044
3.89184
0.0222026
0.0335057
4.35244
4.69371
0.0546782
0.0228112
0.0236739
0.0223827
0.22767
0.118352
2.21921
4.2665
0.0217461
5.2901
0.165997
0.544107
0.0220306
0.0221654
1.7006
0.26211
0.0219588
0.0492933
0.0728959
0.0391491
4.12999
4.72871
4.81943
4.23509
0.0254024
0.0216604
0.0667246
4.57066
10.3922
0.0219266
0.274261
0.0914989
0.452796
0.0224128
0.0222564
1.19973
3.54497
5.67203
1.66529
4.2439
0.0219611
0.269684
4.21775
0.022233
0.0626339
0.104073
0.0216843
0.157186
5.07261
0.244011
0.0222554
5.29342
0.114012
27.641
0.0215092
0.0235291
0.0221423
0.0230379
0.0221103
0.053416
0.040206
0.0424397
0.337937
0.0331854
4.29948
0.0252544
0.0284567
0.027923
9.08005
0.0582375
5.02308
0.027996
0.0277971
19.222
0.0976839
0.0220711
0.0421688
3.47538
5.367
0.316495
0.0219704
0.0219073
0.0219275
0.807737
0.0231154
2.48889
1.32838
0.258243
0.0317607
0.248479
5.60455
0.0221113
7.40475
0.0334827
0.0510158
0.0219337
0.0218973
0.0524004
4.45961
0.0220808
4.97126
0.507181
0.0987927
0.185817
0.0218689
0.0220252
0.0295837
0.0228304
25.9422
25.2402
0.0840512
0.796708
0.0219564
0.0220704
0.0221518
0.0222458
7.88373
0.0231317
4.5853
0.0872205
0.0224397
0.363574
2.34653
3.53841
8.59587
0.0234516
0.0217657
0.0221307
0.023371
0.746315
0.243839
6.05472
0.0221555
0.0223728
0.160174
0.0222602
0.20825
0.0236709
0.151081
0.171857
0.0411998
0.0396601
0.0217246
0.046408
0.0380585
0.208995
0.0808636
0.0423161
0.0218705
0.244148
0.0218848
2.94063
3.79554
0.933361
0.0220726
0.109342
0.0220168
0.0482681
0.0229218
0.0226321
0.0281863
8.94376
4.19539
0.0789874
0.0471425
0.226594
0.077353
4.0605
4.37548
0.0308615
4.30585
0.351387
0.0218445
0.0567296
4.39885
0.097337
0.0222363
0.0531303
2.25179
0.356538
8.46604
0.0221213
0.624765
0.0220983
0.0219302
0.0412247
0.218063
0.0222639
4.26526
5.31847
0.205856
11.4576
0.37256
4.91658
0.306507
0.0217242
0.0246774
0.0216466
0.0431154
0.279868
0.381112
0.0243111
0.0416471
0.0216324
4.46865
0.0378635
0.0469304
4.23316
0.0997228
6.87409
4.88009
0.0219667
6.7721
0.0221176
0.0282808
0.0475313
4.02728
0.148035
0.02779
0.0231099
0.575417
0.0341307
4.43736
6.05174
0.0318001
3.30847
0.0443014
0.022273
1.165
0.0618127
0.0229806
9.08379
15.6351
0.0296079
0.0260101
0.127872
5.91214
0.0219576
0.0221951
0.0216712
0.0217587
0.0223314
4.84447
0.0314619
4.02819
0.0219575
0.0219228
0.863079
0.022163
0.0237441
0.0220578
0.0220329
1.47994
0.0217553
4.74475
0.0219786
0.0230089
0.0411809
0.0221763
0.144836
0.0217673
0.0222651
0.0217852
0.0275331
0.0893399
0.0243494
3.80546
0.0219299
0.0435852
0.0294393
4.35362
0.0227546
0.0222688
0.0216961
0.0216847
0.392754
0.0219038
0.0218859
0.0244734
1.64451
0.0219366
0.0427571
0.032524
0.0220146
4.86685
6.88826
0.227354
4.9337
0.0246765
0.108203
0.022152
0.100134
0.340015
0.0222731
1.64882
0.127524
4.5717
0.0306492
0.0220323
1.57836
0.0431033
0.773027
5.23661
0.0215788
0.0219849
7.47859
3.29755
0.058242
0.0561467
0.0230185
10.8596
5.70886
0.021513
0.0219669
0.0220854
0.0221738
0.0222482
0.0220371
0.0355096
4.37588
0.0309135
0.0221905
0.431486
0.0219879
0.80471
0.0457711
0.0220563
0.0273146
0.0219159
0.361388
0.0248372
0.0518809
0.0219615
0.022237
4.58233
4.94123
0.0221774
0.0505156
0.044421
0.0309055
0.0239007
0.0222713
0.0227033
1.53468
0.544421
0.039373
4.86333
0.0224463
24.7986
0.102395
0.0257702
17.4188
0.023048
4.47521
5.36879
3.50934
3.26228
4.21884
3.87749
0.0216432
0.0270722
0.024705
0.0216353
0.0217338
0.0289238
0.0759297
0.0217735
0.0293638
0.118618
0.0756097
0.321482
0.211551
0.0333719
1.71438
9.49078
0.0339099
0.0248715
0.125623
8.93465
3.97422
0.025488
0.0216213
0.021866
0.0217761
0.0315128
3.91874
0.36368
0.0217377
4.73051
0.0219814
0.135618
4.20669
0.0809574
0.189882
0.0898655
0.330746
0.0228132
0.0332517
0.0218646
0.236443
0.0219654
0.0229326
0.0327577
0.147817
0.0221772
0.0244735
5.71953
0.0218217
0.0220272
0.0289764
5.75215
0.113178
0.367478
0.0387418
0.0221499
3.39651
0.0372619
0.0232387
0.0220214
0.0305928
0.0264839
0.0220318
0.0275771
4.5461
0.0235061
0.0216513
0.046766
0.0218824
0.031638
0.0300894
0.0220669
0.0219969
4.69143
0.0217156
0.0220321
0.0216567
0.0256956
0.0214801
4.94743
0.0257378
0.209119
0.0219616
0.0218915
0.0220355
4.4234
0.0632719
0.0220411
0.0216088
5.57329
0.02507
0.0654183
0.0218596
0.145185
0.0233165
0.0215591
3.1555
0.0217545
0.0222556
0.022147
0.0219715
0.0241247
0.0221271
0.0220358
1.62531
1.53425
4.65382
0.205441
8.68211
0.0218535
4.78989
0.0219678
4.16252
8.24858
0.0218005
10.6192
0.0219797
4.20105
11.9168
0.268682
4.23329
4.05382
0.79944
1.38748
6.25159
5.26109
0.0429005
0.0414946
4.69562
0.0234755
0.0216621
1.17951
0.0237804
0.028163
11.9249
0.0229312
0.374775
3.77949
6.48746
0.380783
0.1138
0.0222519
0.0281348
0.0481485
0.0222439
7.00745
0.352129
0.109211
0.0219056
0.0220695
8.22759
0.0216935
0.693485
0.0218403
9.40865
4.57035
0.0344931
0.0260265
0.0219968
10.4806
4.07981
0.025345
0.0334718
0.0222857
0.0222855
0.0568409
0.0231485
0.0320235
0.065807
0.0241929
0.0323959
0.0220396
0.0320148
15.6055
0.0224715
10.8588
0.0219439
3.2653
0.0547905
0.0220381
9.36094
0.121927
0.0218494
0.15436
0.0220378
0.26833
0.0221949
0.0220103
3.9373
0.0221462
0.10336
0.0233124
0.134315
0.0218393
0.0223265
0.0218605
0.0299949
0.0241871
0.0222849
0.0225828
0.0253756
0.0224366
0.120048
0.0635697
0.029283
0.023363
0.0216288
2.34404
7.01288
0.0227605
0.0225199
0.0226381
0.0375729
0.0222012
0.0348118
0.0215701
0.0222853
0.240118
0.0233188
0.0222846
0.0219038
4.85951
11.2912
0.0215982
0.0710728
0.0584872
0.229828
0.226244
7.08153
4.4663
0.628151
0.0228744
0.133332
0.0219286
0.0313879
7.3939
4.53008
0.133901
0.0239144
15.7481
0.0220411
0.0461307
0.409317
0.022218
0.131726
0.0233924
0.0231966
0.0738351
0.142424
3.91607
3.44248
0.0218304
0.0215986
4.82171
3.88812
0.022227
0.0289804
0.118214
0.0220578
0.0220156
0.0240139
1.1793
0.0217723
4.36475
0.0294123
0.0221985
0.208614
0.0718419
0.0665991
0.113715
4.94126
0.0243916
0.0342351
0.0274213
0.0237218
9.92716
0.0313118
4.17106
4.28335
0.0657099
4.25705
0.0457718
0.0474822
0.339653
0.0217257
4.44051
0.0874364
0.0335074
0.0290275
0.022178
0.0216619
4.16282
0.0428317
4.32355
4.24976
0.0221156
4.3459
0.0218366
0.0219549
0.0286582
11.599
0.0728801
0.021679
4.038
0.0219909
0.0237463
4.07515
0.0236026
3.52522
0.0222727
4.54512
2.85779
0.069035
2.06673
0.0233492
3.53874
0.0216218
5.36823
4.81532
4.4965
5.21683
0.0219459
0.0218171
0.236227
3.86268
3.5591
3.86225
3.81816
0.0221247
5.08172
3.52193
0.0224003
4.13012
0.0315484
0.0328471
12.308
0.0380122
4.48336
0.0219323
0.0376877
0.0341258
0.201092
6.44356
0.0366125
3.64275
4.48562
0.0221722
0.0245753
0.0237412
0.024684
3.57349
0.0220137
0.0217613
0.0390816
3.88293
4.10405
0.0279555
3.91453
4.32678
0.0219603
8.81849
4.7932
0.168395
4.03471
0.0656079
0.0243199
0.0221728
0.154589
0.0262499
0.0797333
10.2107
4.59971
0.0289276
0.071501
0.0257592
0.0381187
0.0216541
0.0409201
0.0246714
0.0894462
4.63285
5.78547
3.83844
0.0216606
0.127533
0.0616593
4.34142
0.0232356
4.80661
4.75994
4.41035
0.0221099
0.172541
4.63311
10.9935
7.68394
0.0362846
5.51065
3.01685
0.0614534
0.0668143
0.0239885
0.0291531
4.91098
0.0453766
0.0221865
3.38468
0.0220293
0.0222529
0.119363
0.119359
0.0218151