/*--------------------------------*- C++ -*----------------------------------*\
| =========                 |                                                 |
| \\      /  F ield         | OpenFOAM: The Open Source CFD Toolbox           |
|  \\    /   O peration     | Version:  v2012                                 |
|   \\  /    A nd           | Website:  www.openfoam.com                      |
|    \\/     M anipulation  |                                                 |
\*---------------------------------------------------------------------------*/
FoamFile
{
    version     2.0;
    format      ascii;
    class       volScalarField;
    location    "800";
    object      ddt0(k);
}
// * * * * * * * * * * * * * * * * * * * * * * * * * * * * * * * * * * * * * //

dimensions      [0 2 -3 0 0 0 0];


internalField   nonuniform List<scalar> 
13851
(
1.74355e-07
0.00178771
-1.28105e-06
1.7429e-08
-9.06801e-07
3.31329e-05
-1.25422e-07
-5.49583e-07
-6.68678e-08
-1.12001e-06
-0.000675573
-0.00871989
-0.000619748
-0.0103899
-1.84168e-07
3.21364e-08
-1.66716e-07
-5.48957e-07
1.07373e-05
-6.04527e-08
-1.87232e-08
-1.20039e-06
1.81069e-07
-3.73369e-07
1.34897e-07
-5.28336e-07
-1.63337e-07
-0.000241277
1.39062e-07
-2.52187e-07
7.20354e-05
-1.75463e-07
-1.1599e-06
-0.000611485
-3.52341e-07
4.63328e-07
-0.000325609
9.98757e-05
-1.76556e-06
-7.94703e-05
-2.74195e-08
5.94202e-08
-5.285e-05
-0.000393485
5.73248e-05
0.00192052
-0.000217886
0.00500333
-1.68916e-07
0.000251351
-4.2231e-07
-3.82961e-07
-0.000519347
-1.88556e-07
-7.30627e-08
7.11356e-08
-2.76424e-07
-0.0002357
-2.26199e-07
-1.13666e-07
-0.000338633
0.00325447
-1.11451e-06
-1.04131e-06
0.000594719
4.51023e-07
0.000231082
-0.000517692
-3.36402e-07
-4.58386e-07
-0.000216737
0.000505697
0.00227761
-1.92265e-07
-1.38431e-07
-1.45735e-08
-1.1152e-06
-0.000233627
-5.01424e-07
-0.000259351
-1.05478e-07
0.000586238
-1.20817e-07
0.000488559
-3.17901e-06
-0.00986721
-2.4348e-06
0.000541372
-1.91618e-07
7.92161e-08
2.13375e-06
1.24956e-05
-0.000718738
-2.38216e-07
-1.88914e-07
-4.68108e-07
-8.3382e-07
-0.000699971
0.000364425
-4.70482e-07
-0.0128554
-4.44732e-07
3.17837e-08
-1.43615e-07
3.23548e-07
-3.7299e-06
-4.37652e-07
4.90052e-08
0.000350625
4.9625e-05
-4.68747e-07
1.77581e-07
1.47832e-06
-3.37959e-07
-4.50429e-07
-0.00567849
-0.00073762
9.75277e-09
-2.29456e-08
6.11608e-08
-0.000124796
-1.39364e-07
-0.000629897
-0.00372183
0.00100079
2.10117e-06
0.0011808
-5.0235e-07
-8.57962e-08
-1.00642e-06
-1.87578e-08
-5.86971e-08
-0.000261869
-1.25654e-07
-0.00288914
-7.66678e-08
2.54995e-09
0.000298709
0.00120403
0.00618723
-0.0103684
-1.12034e-07
-5.83123e-07
7.25746e-08
-1.3781e-07
-0.000913039
2.28931e-07
-5.61937e-07
-1.28456e-07
0.000545718
-5.58014e-07
-4.18698e-08
-0.0131822
-2.92688e-07
-1.33937e-07
-1.32906e-07
4.45981e-08
-1.53414e-07
-4.15394e-07
-4.42642e-07
1.67069e-07
-2.36073e-07
-0.00035924
-5.91798e-08
-5.23393e-07
6.74293e-08
1.06167e-06
-3.44208e-07
-7.08261e-08
0.00117797
-0.000190554
-7.14518e-08
4.98516e-08
0.00600792
-6.27896e-08
0.00350059
-4.78646e-07
-9.95189e-07
-0.000115895
8.79087e-08
-1.82358e-07
0.000434783
-1.35347e-07
-1.33681e-06
1.03011e-07
-1.61241e-07
6.28753e-07
-1.54934e-07
-1.23445e-06
1.74265e-06
-0.000508632
-0.000598838
4.11922e-07
-3.50014e-07
0.00233198
-1.25965e-07
-2.70633e-07
0.00266213
-7.42848e-07
-1.48853e-09
2.24921e-06
0.00359832
2.62307e-07
-1.00655e-07
4.66232e-07
-1.28956e-07
-0.00406204
-1.72032e-07
-0.000443136
1.26238e-07
-0.000535756
2.27221e-08
0.00093966
7.24042e-08
7.63058e-08
-0.000869777
-3.33751e-06
0.00217985
-1.82768e-07
-0.000468237
-1.8062e-07
-1.04493e-07
-0.000964547
-6.74531e-07
-0.000464041
-6.60392e-08
-2.8464e-07
3.65949e-07
-0.000328859
8.28955e-08
-5.15008e-07
5.34493e-05
-6.79042e-08
2.23675e-07
-3.84563e-07
-2.77592e-06
-0.00398581
0.00158299
7.04057e-08
-1.03566e-07
2.49612e-05
-0.00294336
2.01524e-07
6.55976e-07
3.30146e-07
-0.000521957
-4.72662e-07
0.00198644
-1.38271e-07
-1.64108e-07
-1.02974e-06
-0.00221513
-1.08891e-07
-1.4306e-07
-4.01722e-07
-0.00100071
1.52113e-07
0.00031758
0.000210932
-1.43342e-07
7.53675e-08
-2.98135e-07
0.00958614
2.54933e-07
0.000344061
-1.25617e-07
-1.09022e-07
-2.26806e-07
-0.000953534
-0.000104514
-1.4224e-06
-1.34378e-07
0.00257227
-4.84627e-07
-5.22675e-09
-5.75244e-08
0.000585844
-0.000159781
-0.000305858
-0.000301453
1.92878e-07
1.10941e-07
2.96067e-07
-4.00139e-07
0.0083172
0.00532777
-3.49715e-08
-1.79977e-07
0.00202933
0.000743606
-6.34013e-06
-2.0226e-07
-1.22761e-07
-3.77114e-07
0.00071589
0.000117195
-3.74177e-07
-0.00931836
-4.80988e-08
-0.000528264
-2.29015e-07
-1.64664e-07
-0.000321022
-3.89773e-08
-1.12275e-05
-0.000755238
-4.98717e-08
-4.05783e-07
-2.40459e-07
-1.7317e-07
0.00201213
-4.13539e-07
-1.17465e-07
-0.000994458
5.81969e-08
-1.59037e-07
4.21199e-06
-0.000242402
-7.36484e-07
-1.73947e-07
-4.32879e-07
-1.71938e-07
6.60266e-05
1.41722e-06
6.07406e-08
1.04014e-07
-6.90032e-07
-2.68022e-07
-1.36058e-07
-1.83468e-07
-5.25818e-08
-1.10171e-07
-0.000111292
-0.00407124
0.00136364
-2.09934e-07
-0.000252249
0.00152924
-1.9188e-07
-3.66672e-07
-4.85302e-06
6.32103e-06
-3.71897e-06
-2.44075e-07
0.000184644
2.12784e-06
0.0100873
-0.000638629
-1.93035e-07
0.000432485
0.000393217
0.00144469
-1.35757e-07
-4.17368e-06
-0.000409467
5.28004e-08
0.00816945
1.01371e-07
-1.78137e-07
2.726e-07
6.35188e-08
1.06156e-08
-0.000643612
0.00108525
-8.45136e-08
-4.03765e-07
7.52254e-08
-0.00604745
3.52685e-07
0.00432366
0.00107986
-7.74686e-08
-4.07901e-06
-2.34428e-07
0.00565941
-2.77796e-08
3.42484e-09
4.86473e-06
-0.00649711
-1.38439e-07
0.000985536
3.65882e-06
-1.35232e-07
0.00177054
0.000724443
0.000892863
-3.78982e-06
-5.28689e-08
-2.03369e-07
-1.73688e-07
-4.1579e-07
-0.0106445
-3.36143e-07
-0.000425151
-0.000705143
7.21335e-08
-1.48316e-07
0.00148479
-0.00028935
-2.6278e-06
-0.000854978
4.67179e-06
-2.41938e-07
-4.07721e-07
0.00205751
-8.884e-08
-5.38323e-08
-3.29986e-06
-1.07535e-07
3.50382e-07
-5.7592e-08
6.90977e-08
-9.22314e-07
-3.39113e-06
3.19966e-05
-3.79618e-07
-4.42291e-07
3.83514e-07
-0.00138604
-1.59488e-07
0.00187655
-1.62102e-07
-0.000621567
5.56312e-09
-6.21575e-08
-2.01794e-07
0.000658649
-0.000647643
-1.24823e-06
1.30703e-06
0.000286028
-0.00110688
-1.23932e-05
3.51702e-08
-4.02907e-07
-3.36402e-08
-0.000600385
3.69321e-07
0.00261772
0.001184
-1.00454e-06
-0.000411165
-7.39435e-07
-7.05839e-05
0.0012405
-0.00178968
6.51576e-08
-2.77465e-07
-5.25269e-07
-0.000429755
-7.98888e-08
-1.04905e-07
-5.21762e-07
-2.43597e-07
-8.61067e-07
0.00336952
-8.218e-08
1.13673e-07
-0.000438855
-6.89128e-07
1.05629e-07
0.00247219
-5.41021e-08
9.29864e-08
-7.99277e-08
-5.31945e-07
-1.31589e-07
1.1313e-07
-3.96315e-07
-0.000978467
-1.18904e-07
-3.64074e-07
-7.55087e-08
-2.59582e-06
-0.000429157
-2.99234e-07
6.06079e-09
-3.46069e-07
-3.61411e-07
-0.00195943
-1.04199e-07
3.11266e-06
-1.38003e-07
-3.65286e-07
-0.00739479
-0.0003793
-1.25382e-07
-2.35564e-06
-1.50367e-07
-0.00325275
0.000786489
1.13016e-07
0.000477765
-3.56873e-08
-1.05217e-06
-1.11106e-07
0.000432662
5.72319e-08
-0.00032708
1.88967e-06
5.70486e-08
-8.42367e-07
-0.000194868
-4.51287e-07
0.00014219
6.34841e-09
-0.0023922
-5.03304e-08
-6.23207e-08
-4.57634e-08
-1.1608e-07
-0.000348171
-4.22553e-07
-4.02572e-07
-0.000124318
-2.41167e-06
1.72322e-07
0.000339177
-0.000305925
-1.83683e-07
-2.41746e-07
-0.000274341
-0.00620762
-0.000479552
-1.82296e-07
0.000493255
0.00141688
0.00377026
-4.51372e-07
-6.50504e-07
0.00293752
-0.000103705
-0.000691581
0.00207955
0.00173613
-1.66077e-07
0.00146664
7.65667e-05
1.43367e-08
-0.000133864
-4.38531e-07
-0.000297772
-1.50192e-07
-1.54019e-07
3.1657e-08
-4.04267e-08
-1.14243e-06
-2.57799e-06
0.00134028
0.00353491
-7.24215e-08
-0.000443258
-0.000437595
2.51847e-06
0.000435896
-3.66223e-07
8.45829e-08
-6.85927e-08
0.000366283
0.000123009
-1.36015e-07
-5.02003e-07
-2.50561e-06
7.36071e-08
1.24045e-06
-0.00394597
8.23334e-05
-3.62796e-07
-0.000365946
0.000110154
-3.07653e-08
-1.12544e-07
-0.00154007
-0.000711493
-3.99057e-07
-3.30078e-07
-4.6289e-06
8.10958e-08
-9.6205e-08
0.00257174
6.97069e-08
-1.45046e-07
9.05655e-08
-8.53888e-08
3.15019e-05
-9.9537e-07
3.9089e-07
7.02198e-08
0.00120554
0.00157128
-4.59924e-08
-1.96282e-07
2.38198e-07
-2.06391e-07
-0.00448996
0.00205666
0.00172312
0.00438248
-0.00166611
-3.0919e-07
-0.000230077
-0.000398332
2.52506e-06
-3.51828e-07
8.62294e-08
3.60992e-06
-1.08356e-07
-0.000878911
0.00972933
-4.88569e-07
-2.30182e-07
-7.61362e-08
-5.40825e-10
1.02782e-06
-0.00014534
-4.9406e-07
-1.44953e-07
-5.21198e-07
-8.14271e-08
-2.27897e-07
-1.27097e-06
-1.17137e-07
-3.46194e-08
4.224e-07
-1.19734e-07
-9.49887e-07
0.000538285
-4.90127e-07
2.37433e-07
-6.90334e-07
-7.75375e-08
-3.11068e-06
7.77506e-07
0.00465803
7.10669e-09
-4.81968e-07
0.000394735
-9.55519e-08
0.00160766
-0.000591139
0.00191286
0.00281927
-8.45986e-08
0.000505106
2.14606e-07
-7.7458e-08
5.77186e-08
-7.43736e-08
-9.92268e-07
-3.89307e-07
-7.57527e-07
6.68467e-08
0.000921159
2.83966e-06
0.000190305
4.79759e-09
1.21412e-07
1.48429e-07
-2.40037e-06
0.00173427
-4.12909e-07
-2.30041e-07
1.1672e-07
-4.21394e-07
-1.51983e-07
6.26192e-08
2.5857e-05
-0.00116072
-1.23858e-07
6.54085e-08
-1.21711e-07
5.66053e-08
0.00122136
-0.000752673
9.54569e-08
-0.000421344
-0.00348929
-4.28279e-08
-3.05042e-07
-0.00319828
-3.72298e-07
-0.00937515
-1.07913e-07
-3.26589e-07
-4.09228e-07
-2.18635e-07
0.000982812
-1.29737e-07
0.0012926
3.69246e-07
-2.68784e-07
-0.000463334
5.21198e-09
6.94672e-09
-4.89984e-06
-5.99619e-08
-1.73224e-07
0.00322987
0.00502313
-5.13952e-07
0.000632201
0.000497533
7.47389e-08
-3.50899e-09
-0.00406326
-6.29014e-07
-3.22839e-06
-0.000608098
-1.13278e-07
-2.53546e-07
1.03696e-08
-0.000543429
0.000242344
-3.00463e-07
-1.28443e-08
-0.000518237
-1.68489e-07
1.30621e-07
-0.000741684
-0.000869699
-0.000696809
6.07965e-08
-1.17322e-07
-0.000239687
-0.000821277
2.89162e-07
9.00536e-07
-2.8878e-05
-1.25325e-07
-0.000995453
-2.34353e-06
-1.12142e-06
-1.61394e-07
0.00164552
-4.231e-06
2.78723e-06
7.82659e-05
-4.58926e-07
2.79474e-07
-1.2977e-07
-8.12221e-08
-0.000754213
-1.78506e-07
-2.53575e-07
6.88624e-07
-0.00030777
-7.36761e-08
0.00652014
-1.71751e-07
-4.52676e-06
1.30268e-07
-3.9203e-08
-1.14178e-07
-0.000752974
2.30366e-08
6.58446e-09
-0.00244368
-1.14359e-07
-0.000314126
3.37607e-07
-8.32745e-08
-4.31131e-07
0.000941077
0.00135307
-8.98127e-08
0.00081421
-0.000359356
-1.08324e-07
-0.000738442
-2.63811e-07
-8.12555e-08
0.000114817
-0.000238148
0.000378813
-1.8571e-07
-7.68639e-08
5.30421e-08
0.00124589
-1.35349e-06
3.91257e-06
-3.70726e-07
0.000106854
-1.86778e-07
2.37584e-07
-6.49765e-07
-0.00172752
-1.19344e-06
0.0116597
-1.03178e-07
-1.02643e-06
-3.68949e-07
-0.000181074
-3.22732e-07
-0.00366405
-5.27829e-05
-1.16778e-07
0.0019694
-4.13828e-06
0.000903708
4.25729e-05
-0.000989907
-0.000229188
1.77288e-08
-7.93192e-08
8.6661e-08
-0.000164401
0.000831889
7.92896e-08
-2.93065e-07
-4.18215e-07
0.00089403
3.13675e-08
-0.000906154
-1.12972e-07
-1.02034e-07
-0.000570579
-0.000238552
0.000866183
-7.44909e-08
-1.74836e-07
-0.000738813
1.18398e-05
-5.96553e-07
1.20644e-06
0.000661975
0.000212072
0.000935732
-4.6503e-07
-3.98946e-07
-1.10235e-07
-1.14575e-07
0.00403114
-4.16713e-07
-0.000273878
3.08364e-06
-3.30662e-07
-0.000733664
0.000905533
-0.00037094
-1.15456e-07
-2.87933e-07
-4.56599e-08
2.61183e-07
1.43519e-08
-0.00677742
-1.93696e-07
-0.00046498
2.48533e-08
-4.1868e-07
-7.59194e-08
-1.61899e-05
-3.12647e-07
-2.8386e-07
-0.000559674
-4.06771e-07
-4.33181e-07
-4.05322e-07
-3.98663e-07
0.00733314
-3.61249e-06
-1.52149e-07
-0.000206459
1.90835e-07
-0.0041869
0.000812355
-1.00911e-07
-0.000531148
-0.0107917
-0.000349611
-0.00122619
2.27928e-06
8.67288e-08
-0.000674198
-1.82247e-07
-0.00382022
-0.000442553
4.10959e-09
-1.22365e-07
0.000463419
0.000303916
-0.0039561
-1.14572e-07
-1.61744e-07
-0.0045512
-0.000450638
-4.07229e-07
-1.82531e-07
6.99814e-07
-1.962e-05
0.000248376
-3.99225e-07
6.41812e-09
-2.1126e-07
-6.23012e-08
1.51442e-07
0.000477256
-4.283e-07
0.00286198
-0.000154218
-9.60709e-08
-9.19934e-07
9.06994e-08
-1.38339e-07
-0.000223711
0.000155826
-2.75732e-07
-0.00342321
-9.26552e-08
-2.66414e-07
7.71809e-08
-6.07192e-08
-6.8105e-08
-9.07914e-08
-0.000322082
-1.21572e-07
-4.13873e-07
-1.1439e-07
-1.66313e-07
0.000744538
-0.00025831
-3.5845e-08
-0.000126503
3.81862e-06
-0.000121336
-1.98903e-07
-2.74674e-07
-0.000236752
-2.28961e-07
-2.48801e-06
-0.00622047
0.000614069
3.95744e-05
-4.60267e-07
0.000369578
-1.7271e-09
-3.95478e-07
-4.50052e-07
-0.00369714
-1.60497e-07
0.00075717
-7.29409e-09
9.87747e-09
-0.00592142
2.11931e-06
-0.000221113
-1.68366e-07
-4.43827e-08
1.79283e-06
-4.7576e-08
-1.76975e-07
9.68319e-09
-1.09483e-07
1.84998e-05
1.04771e-08
-1.91193e-05
0.000139311
1.20346e-06
0.00679796
-1.10797e-07
-2.02766e-07
6.15461e-06
-4.30172e-08
-5.86331e-08
-3.7204e-07
-1.07678e-07
-4.61177e-09
-6.29209e-09
2.76612e-08
-0.000327881
1.03572e-05
-3.37013e-06
-0.000915845
1.92983e-05
-1.15846e-07
0.00197802
-2.28807e-07
3.91617e-09
-0.000568687
-5.5066e-05
-0.000187853
-1.38436e-07
-0.000200774
-0.00123765
-0.000232189
-6.92123e-08
-0.000517894
-1.57651e-07
-1.62029e-07
-3.01062e-08
-1.08972e-07
-0.00104981
-4.73766e-06
-0.0014907
-2.52133e-08
-1.20137e-07
-0.000409784
-1.03246e-07
0.00128244
0.000317738
0.0111354
-0.000190711
-0.00168809
-2.86079e-07
-5.01333e-08
-3.76665e-06
-3.06911e-06
-1.44254e-07
-5.38304e-06
-4.89109e-07
-1.03641e-07
6.8553e-07
0.00114943
-3.43058e-09
-0.000280697
-0.000386614
-0.00195661
-2.17585e-07
-2.13074e-07
9.2761e-08
-1.59874e-08
-0.000732287
-9.89085e-05
-6.61261e-08
-1.97419e-07
-3.34379e-08
-4.51994e-07
2.95505e-08
-5.66346e-08
-1.05816e-07
-3.32674e-07
-1.34031e-05
-2.8257e-06
-7.5279e-07
-1.09955e-07
-4.29856e-07
0.000976654
-1.08342e-07
0.00214643
0.00307203
-4.26766e-07
6.02175e-08
-4.05207e-07
-1.5421e-07
7.81362e-08
-2.11391e-08
-0.000219864
-6.19488e-07
-0.000988216
-1.45675e-07
-0.00070415
-1.2841e-07
3.38572e-07
-2.43597e-08
0.00134186
0.00452102
1.5844e-07
-3.32411e-07
-3.40122e-06
-0.00037133
-3.20902e-07
0.00321127
-1.26312e-06
-0.00382434
-1.07074e-06
-0.000684255
-6.5746e-07
-3.71448e-07
0.000567855
-0.000464098
-0.00170692
0.00419986
-2.43331e-07
-4.30908e-06
2.94594e-08
-1.59215e-07
-2.04437e-07
-1.18708e-07
-0.000436102
-1.78737e-07
-2.31793e-07
-0.000651956
-7.88384e-07
-0.00126961
-1.7519e-07
-1.54521e-07
-3.26888e-07
1.09013e-07
8.73012e-08
-0.00237339
0.000822539
0.00883144
-1.29892e-07
-2.27489e-07
1.29784e-06
-0.00479578
-0.00083272
-3.64329e-06
9.88566e-08
-1.05531e-07
0.000805955
-4.57407e-07
0.00140433
0.000994316
2.49557e-05
5.78954e-08
-0.000194882
3.90897e-07
-5.06062e-07
-2.53119e-07
-0.000636102
-0.000430416
-1.43723e-06
6.83718e-07
2.47916e-08
-2.1216e-06
-1.06992e-07
0.000131482
-3.2471e-06
-0.000412658
-0.000807914
-2.05735e-07
-1.15651e-06
-1.23637e-07
-0.000612941
-2.47652e-05
2.80358e-07
-0.00173454
-0.000493042
-0.00309716
0.000280496
-1.3841e-07
-4.86905e-08
-0.000231639
0.00118964
0.000576597
-1.10056e-07
-1.19299e-07
-8.95557e-08
-0.000332103
-1.14825e-06
-1.10803e-07
-2.9504e-05
-1.46566e-06
-0.00307965
-0.000190777
0.00670958
-1.28651e-07
-1.72712e-06
-1.8087e-07
1.18e-08
-3.76041e-07
0.00273619
-1.3325e-07
-4.85643e-09
-0.00027893
-0.000711846
1.45585e-06
-1.18143e-07
0.00148194
2.55852e-07
0.000486922
-1.36325e-07
-0.00338931
-3.00534e-08
-4.1258e-07
0.00643457
-0.000900115
-1.26344e-07
-0.00062791
0.00095526
0.000608242
-0.000368011
-0.00393422
5.43613e-06
-1.03521e-07
0.00335289
-2.92789e-07
-1.69721e-07
1.18676e-07
0.000278537
-4.55385e-08
0.00016746
-1.23015e-09
3.21185e-06
-9.02583e-05
-8.2126e-07
0.00300994
-1.31198e-07
1.8604e-05
-5.06649e-08
-3.16183e-07
0.000113831
-0.0109556
-7.4441e-08
-4.72723e-07
0.00105563
-1.20925e-08
-1.13423e-07
-0.000526259
-3.5821e-07
1.62256e-07
-3.06952e-07
0.00575701
8.40969e-06
0.000213235
0.000325961
1.13023e-05
-0.000498393
6.48351e-05
0.011283
-5.10149e-07
1.94804e-07
-4.31847e-07
-9.55989e-08
-1.34159e-07
-6.76562e-05
-0.000489781
-8.58319e-08
-0.0103951
-8.63718e-06
-0.000269731
-3.18745e-05
5.26836e-06
-2.05724e-08
-9.7884e-06
8.73752e-05
-5.60641e-07
-1.2861e-07
-0.000782132
-0.000930354
0.00569907
-0.000570863
7.6528e-07
-0.000470695
-0.000651061
-3.11493e-07
-1.48229e-07
2.6535e-08
0.000530413
-7.59504e-08
5.97977e-05
-1.0295e-07
-1.08301e-07
-1.07457e-07
0.000450193
-0.00021067
-0.00148526
-2.37668e-08
-0.000111443
-2.96435e-07
-6.91425e-07
-1.36189e-07
2.70304e-07
0.000186536
-1.59242e-07
-0.000399005
0.00480173
6.78687e-06
-6.00319e-07
-1.83816e-07
9.94892e-07
-6.01281e-08
-1.71736e-06
-9.20133e-07
-1.25466e-07
-3.0814e-08
-9.99691e-08
-1.61301e-06
-1.03986e-07
-1.66612e-07
-6.79356e-07
-1.23508e-07
-2.26349e-05
-0.000237273
5.1101e-08
-4.73481e-07
3.54876e-07
-8.7884e-06
1.24923e-06
0.00129341
3.6325e-08
-2.98809e-07
-1.54696e-07
-1.78865e-07
-2.80701e-05
-1.99188e-08
-0.000241566
-1.804e-07
7.22025e-09
5.78811e-08
-0.000998859
-2.26798e-07
2.16478e-07
3.21779e-06
2.33723e-07
-4.90469e-07
-0.000967685
0.00102617
-3.79801e-07
-1.10848e-07
2.01167e-05
2.10566e-07
4.92143e-08
1.26924e-06
-0.000472229
4.01869e-07
-9.55024e-07
7.48095e-06
1.18309e-05
-1.05253e-07
-1.09483e-07
-0.00045205
-1.26238e-07
8.64272e-05
9.18597e-05
-8.21865e-05
-2.05496e-08
2.48117e-06
-1.13976e-07
-0.00048529
-8.24713e-07
-4.31244e-07
-3.38629e-07
-0.0013222
-1.20557e-07
-0.00013268
0.000394279
-5.86789e-09
0.000713553
-3.9381e-07
-1.25406e-07
0.000590617
-1.02954e-07
8.31431e-08
-1.02612e-07
-8.46213e-07
-2.93791e-05
-3.65586e-06
-1.29788e-07
-1.09768e-07
-2.6943e-07
0.000839236
0.0001499
-0.000236447
0.00127453
-1.0319e-07
-9.7951e-07
-1.51161e-06
0.000173682
-7.76294e-07
0.000666729
-7.64859e-08
4.3862e-06
-1.08819e-07
-0.00761325
-3.97762e-07
-1.15188e-07
6.81864e-05
-2.68122e-06
-2.84287e-07
1.55638e-05
1.29963e-07
3.23449e-07
4.28259e-07
-1.59105e-07
-0.00139188
-5.46142e-07
-8.97827e-07
7.8834e-07
-1.72535e-06
-0.00265753
-1.02427e-05
-0.000318028
5.73876e-08
6.28179e-09
-1.59923e-05
0.000439221
0.00010485
-6.39726e-06
-2.89782e-07
0.000240875
0.00116556
1.84684e-08
-2.1692e-07
-1.03526e-07
-4.13394e-07
-4.13682e-07
-4.47382e-05
-0.000772099
0.000209287
-1.31528e-07
0.00117527
-0.000147415
-1.43694e-07
8.94328e-06
0.00205945
1.85454e-05
-1.56499e-07
-4.9076e-07
8.06313e-08
-8.67922e-08
-2.19267e-07
-1.84114e-07
-0.000390312
-2.54146e-05
0.000508224
0.00230771
-1.23892e-07
3.10243e-07
1.11727e-06
3.2823e-07
-1.24873e-07
-1.02712e-07
-0.000892195
-6.0137e-08
-0.000432272
3.25669e-07
-1.60061e-06
2.49328e-06
-5.31462e-06
-0.000269276
-0.000116515
-4.09893e-07
7.56315e-08
-5.11914e-06
-0.0002599
-0.000311019
-1.75009e-07
-8.52899e-08
-9.05246e-08
-9.01491e-07
-1.84799e-07
3.31343e-07
-0.000883713
-1.14142e-07
-1.05251e-07
-7.72034e-07
4.24079e-05
-0.000220018
-0.0160055
-1.15002e-07
-5.23885e-07
-9.57506e-09
-0.000356973
7.05275e-08
-0.000481454
7.36546e-07
-1.16935e-07
4.73824e-07
-2.11519e-07
-1.72072e-05
-2.9346e-07
-4.75833e-07
-0.000382267
-0.000983521
-1.89578e-07
-2.38963e-07
-3.81268e-08
-0.000221954
-0.000215622
-1.89091e-07
7.66989e-08
0.000124249
1.74698e-08
-0.00036412
4.03476e-07
-1.11577e-06
-9.56441e-07
-0.00468274
-1.39398e-06
-2.9496e-07
-1.28516e-07
-4.66942e-07
-0.000744463
-9.13414e-08
-0.00526813
-0.00498099
-0.0147761
7.0329e-06
-2.07293e-08
-0.000359384
-1.77447e-07
8.34542e-05
-1.37075e-07
0.00116367
0.00142116
-0.000484253
0.000621581
-0.00286531
2.70397e-06
3.51103e-05
-4.18621e-09
-0.000168813
-0.000589437
-0.000823663
-0.000375852
-1.61382e-07
-0.00110225
0.00582591
2.32304e-07
-7.53346e-08
-1.16637e-07
-0.000391291
-1.71073e-07
-4.75194e-07
-1.83052e-07
-1.87972e-08
-6.34713e-08
-9.52025e-08
-0.000456598
0.000113313
-1.1224e-07
0.000838405
-0.000430534
1.78008e-06
-1.14297e-07
-1.30897e-07
-3.38724e-07
-0.000476741
5.68215e-05
-2.12356e-07
2.05825e-07
0.0054861
-1.2146e-06
-4.44971e-07
-0.000853045
-1.20908e-07
-0.000448899
-2.71667e-07
-5.91218e-07
-1.16662e-07
-2.10465e-07
-5.45407e-07
-0.0019918
0.000919451
-0.000429714
-1.06857e-06
0.00823013
-2.50135e-06
-1.67643e-07
1.31824e-07
0.000750039
0.00158689
-0.00526467
-1.63168e-05
-1.53025e-07
-1.0903e-07
-9.09508e-08
-1.77516e-07
-1.04e-07
7.22645e-06
-1.63982e-07
-0.000219526
1.63222e-07
0.00108291
0.00216452
-0.00054615
1.34961e-06
-2.07352e-07
0.000464134
9.72145e-07
0.0179405
-0.000411572
-6.47302e-08
6.83938e-05
-2.21887e-07
0.000782357
-0.000868907
3.56379e-07
4.62188e-05
0.00139404
2.82311e-08
-3.23739e-06
-1.94773e-07
0.00407116
0.000734289
-1.61195e-07
-1.27329e-07
0.00121339
-2.97319e-05
-7.42448e-07
-0.00849878
-2.97215e-07
-1.0451e-06
-1.20913e-07
-0.0176808
-0.0004598
-9.56679e-07
-2.92472e-07
-0.000629009
0.00361476
-5.83817e-10
-1.26855e-07
-1.61527e-07
-0.000835409
-0.000991648
-1.46685e-07
-0.000295664
-1.08557e-07
3.64565e-08
-5.64557e-08
0.00210314
8.67988e-05
0.000109577
3.64167e-05
-7.74298e-08
-1.23504e-07
-5.51165e-08
-0.0007705
-1.08579e-07
0.00744232
1.57834e-07
0.00162091
-1.04187e-07
-8.53029e-08
-1.34562e-06
-0.000106334
-0.00024553
1.5277e-07
0.00179732
2.33469e-07
-1.17234e-07
-1.22519e-07
-4.8605e-07
-5.1526e-07
-4.77096e-07
-1.92874e-06
-0.000691599
-1.7455e-07
-1.04369e-06
6.74704e-06
-0.0027794
6.01021e-08
-0.000377221
-0.000460068
-1.69508e-07
-0.00151889
-4.54996e-07
-0.00615643
-1.22312e-07
6.84901e-07
5.46409e-08
0.0176143
-0.000199685
7.45362e-06
-0.000556752
-6.24795e-08
-4.09603e-07
-6.87388e-08
-0.000321927
6.94519e-08
-9.51034e-08
0.00468041
-1.28404e-06
-0.00201148
0.000150827
-4.64715e-07
-1.98475e-07
-1.00751e-07
0.0105762
7.78186e-07
-4.59182e-07
-1.53526e-06
1.35728e-07
-4.40909e-07
-1.04311e-07
-0.0175756
-7.04494e-08
-0.0006843
0.000772846
1.57842e-06
-8.47262e-07
2.74148e-07
-0.000354075
5.50789e-09
0.00541271
0.00310566
-6.85597e-08
-1.17747e-07
-1.34195e-07
-1.06189e-07
-4.05126e-07
-9.0513e-08
-0.00183179
-4.32557e-07
-0.00142088
-1.12359e-05
-1.02029e-08
-1.08143e-07
-1.39983e-07
-3.74476e-05
-1.11355e-07
-1.32295e-08
2.8986e-05
-1.52409e-07
0.00872584
-0.000571306
-5.4143e-07
2.26404e-07
-1.04002e-07
-1.24294e-07
-1.07603e-07
-1.98825e-05
8.25735e-08
-1.57983e-07
0.000178794
-0.000475512
-0.000107741
-1.21853e-07
-0.000394881
-0.00597829
-1.05521e-07
-0.000824904
-0.000945211
-1.46381e-07
-1.50117e-07
-1.8364e-07
0.000224782
0.0016221
0.00347812
9.29612e-08
-1.59147e-07
9.83224e-07
-1.23621e-07
-4.43727e-07
-1.0469e-08
3.91899e-05
0.000143705
-0.000389659
-6.11824e-08
-1.58667e-07
-1.36779e-07
0.00405985
1.28944e-07
0.00125653
0.000748044
-1.91928e-05
-0.00088036
0.00190118
0.00102207
4.59896e-07
0.00231355
-0.00537117
-1.13412e-07
-9.60912e-08
-5.57518e-08
-0.000593078
-0.000124835
1.56308e-06
2.00808e-07
-0.000422024
-1.1502e-07
-1.16637e-06
-7.94768e-08
-1.49201e-07
-1.16838e-07
-6.55674e-08
0.00218648
-1.13347e-07
-0.00300921
-0.000897123
0.00131361
-3.49105e-07
-4.1738e-07
0.00179753
-0.000796618
-1.02261e-07
-0.000230881
-1.24502e-07
8.16254e-09
-1.12413e-07
8.08086e-05
9.00498e-08
-0.000371191
1.80815e-06
0.00116856
-2.3733e-06
0.000344726
0.000159684
1.57782e-05
-6.69922e-08
1.13656e-06
-5.66285e-07
0.00238547
2.09778e-08
1.43054e-07
-7.98411e-08
0.00202914
7.74666e-08
-0.00022006
-0.000414826
-4.36949e-07
-8.3599e-07
5.80451e-08
-0.000495855
-1.08811e-07
-0.000474573
-5.8508e-08
-0.000536921
-2.89692e-07
-1.05924e-07
-0.000347262
0.00106747
-6.91789e-08
-4.75328e-07
-1.6218e-07
-0.000349121
6.07093e-05
0.000293832
0.00193791
-1.11768e-07
1.47045e-06
-8.31156e-05
4.71747e-07
6.35158e-05
8.59565e-07
-4.77783e-07
-3.20919e-07
0.000986119
-0.000577844
-9.91925e-08
-0.000374862
-1.22888e-07
-5.23177e-07
-0.000734027
-0.000475801
-1.46252e-06
-0.000484896
5.72135e-05
-1.2981e-07
-0.000156792
-9.36359e-07
-2.98094e-07
-1.13341e-07
0.000945397
-7.95187e-08
0.00163763
0.00160535
-2.11635e-06
-1.82953e-07
-4.57748e-07
-0.000402276
-5.01093e-07
0.00112639
-1.05574e-07
-1.55426e-07
-8.37488e-07
0.000630245
-1.96237e-07
-0.000713725
0.00687404
-0.000439886
-3.58212e-08
0.000947114
0.00319826
0.00284622
-1.50138e-07
-2.99759e-06
7.98893e-08
-0.000610308
2.146e-05
-0.000840798
-0.000248184
-1.08234e-07
-1.79354e-07
-1.48162e-07
0.00308969
0.000533176
-0.0137612
0.000387638
-6.93429e-08
0.000278273
-0.000821749
-4.00522e-07
-0.000225427
-0.000448713
-1.62806e-06
0.00149999
-1.46697e-07
-1.90858e-07
0.000325163
0.000220659
7.44435e-07
-0.00787329
-1.09652e-08
-1.17199e-07
-0.00336241
-0.000548922
-5.81702e-05
-0.000185421
-2.59067e-08
-1.10187e-07
-3.84074e-08
-0.000576533
0.000807454
-1.08986e-07
-3.9884e-07
-0.000776285
-1.22016e-07
-1.10532e-07
-0.000895493
0.00413655
-1.40334e-07
-1.44625e-07
-1.12333e-07
-7.17394e-08
-0.000274306
-1.05688e-07
7.24654e-08
-2.03915e-07
-6.72973e-05
0.0057242
0.000120055
0.00130865
-1.01355e-07
-2.55056e-07
-0.000648972
-0.000792329
-6.74927e-07
-1.49564e-06
-1.84662e-07
-3.9312e-07
-3.22197e-07
1.29711e-06
-6.42029e-07
4.75987e-08
0.0040555
-2.33361e-07
-1.63485e-08
-2.47813e-07
0.00286232
0.00212938
-0.00035489
-1.16904e-07
7.99957e-08
-0.000657342
0.00185657
-1.6277e-07
3.28526e-08
-1.46729e-07
-5.17015e-05
-1.10214e-07
-2.12266e-07
-1.96072e-07
-1.1637e-07
-0.000571058
1.41991e-05
-1.09351e-07
-1.56228e-07
8.15558e-08
-2.30111e-08
-0.00987819
-0.0015107
-4.82565e-07
-0.000107085
-7.73295e-06
-1.11637e-07
-1.91018e-07
-1.09116e-07
7.40418e-08
-1.10736e-07
2.32602e-07
1.89183e-06
-0.000615689
5.227e-07
-9.13253e-07
-0.000375127
0.00164945
-2.77128e-08
-9.63326e-08
-1.449e-07
-0.00195861
6.36869e-08
0.00144688
0.000417525
-7.0303e-07
-1.67593e-06
-0.000173308
7.34375e-08
8.26897e-07
-5.48669e-08
7.03744e-08
6.73586e-08
-8.03704e-08
-7.06066e-06
-0.000427094
9.41636e-07
-3.50327e-07
-0.00588982
-0.00043639
-0.00749769
-3.16853e-07
-0.000520009
9.44901e-05
-1.4938e-06
-0.000273538
-0.000909886
-2.79804e-07
-0.000562634
-1.05567e-07
1.01956e-07
0.00648948
-4.90327e-09
-1.59217e-07
-0.00374504
7.45626e-05
-0.00420196
3.00515e-06
-1.2388e-08
-1.73775e-05
-1.14271e-07
6.40591e-05
-7.64575e-08
0.000103739
-0.00228812
-0.000730235
0.00632235
-9.98963e-08
-9.65456e-08
-4.01969e-07
-0.0124951
-0.000524242
-2.08298e-06
0.000568331
-5.02791e-08
0.00030598
-0.000388023
0.000140337
-2.14952e-07
-9.52216e-08
2.29462e-07
-3.66224e-08
-1.12125e-08
1.04956e-08
-1.55955e-07
-0.000553462
-4.87511e-07
-0.000400381
-0.00470321
0.003095
-2.35851e-07
-1.58229e-07
-1.79843e-07
8.9461e-07
-6.74023e-08
-1.0666e-07
-8.82746e-05
0.00183477
-0.00821889
-0.00044689
-1.37616e-07
0.000292829
-2.5862e-06
-0.000692387
-0.000423605
-2.02908e-08
-6.68112e-08
0.000514597
-7.75164e-08
-7.47318e-08
-0.003369
-0.00054443
0.000147634
-1.1226e-07
-1.14241e-07
-2.47894e-06
-1.66774e-07
0.00320039
-1.25801e-07
3.88484e-07
-6.27391e-05
2.63592e-07
-0.00125176
-1.29936e-07
-0.00383142
-1.11622e-07
3.25913e-05
-0.0117475
4.20672e-07
-0.000634452
-2.76984e-07
-0.000394216
7.26829e-08
-2.11167e-07
-1.14648e-08
-1.08638e-07
0.00280323
1.06031e-07
-0.00019504
6.31436e-07
-1.24407e-07
-1.57483e-07
-0.000506319
-4.31355e-07
-4.66527e-07
0.000567044
-1.05711e-07
1.90398e-06
0.00061167
4.52318e-07
1.36023e-07
4.45399e-07
-4.96011e-08
-2.73676e-06
5.45518e-08
-1.03737e-08
-0.000428062
-0.000293548
-0.000605484
-9.49498e-05
-0.000112392
-0.000401957
-4.66529e-07
-0.000371475
-2.07349e-06
7.17906e-08
3.00085e-07
1.44115e-08
-3.70458e-08
-0.000520356
-0.000627625
-1.23525e-07
-7.71728e-05
-0.00046302
-2.62071e-07
5.39879e-07
-1.01991e-07
0.00110669
-0.000849699
-0.000506166
-0.0152893
-0.000507058
1.78116e-08
3.68113e-05
-1.43235e-06
-0.000206485
0.000345266
-1.33345e-07
-8.55481e-07
-0.000435725
1.15785e-07
-0.00747148
-1.32855e-08
0.000161093
-0.000615637
-0.000479149
-4.73183e-07
-1.24979e-07
-0.000192379
-9.39293e-07
-0.000462346
-0.000538314
-0.000605948
-2.00791e-07
0.00138914
-1.16997e-07
4.82595e-08
-4.43261e-07
-0.00031382
0.000811867
-0.000385732
-3.84774e-07
-2.24012e-06
2.26955e-06
-4.19925e-07
-0.000891726
-1.47735e-07
-3.44129e-07
-0.000316795
-1.55607e-07
-0.00385354
-0.0014117
-0.000490443
0.00127611
0.00199912
-0.000733139
7.31076e-08
-0.000471805
5.22926e-07
3.03556e-09
-4.63582e-07
-1.58574e-07
-0.000444532
-1.63915e-07
3.76882e-08
-1.58542e-07
-7.33645e-08
0.00243527
-1.34265e-07
-1.8757e-07
-0.000256569
-6.445e-08
-0.000382163
-1.27346e-06
4.19919e-07
0.0015437
4.88476e-05
-1.92932e-07
2.70814e-05
-1.12602e-07
-0.000474231
-0.00321121
-6.92162e-08
-7.49042e-07
-1.37231e-07
-0.000378292
-0.000480808
-4.60025e-07
-0.00431735
9.15387e-07
-1.41077e-07
-0.00368717
-1.57833e-07
9.71094e-08
0.000263786
-3.8649e-07
-6.84247e-08
-1.82961e-08
-2.55355e-06
-1.3011e-07
-0.000326457
2.40081e-05
8.81881e-05
-0.00496954
-4.18866e-07
-8.85729e-07
7.25587e-08
-0.000331409
-0.00023288
0.00110201
-1.449e-07
-1.64766e-07
-6.35727e-07
-7.87795e-08
-0.00271058
9.98624e-08
-0.000953222
5.28401e-08
-0.000320511
-2.53857e-07
-0.000216109
-1.96988e-05
-4.5321e-07
-0.000384175
0.00620286
-0.000949669
-0.000475605
9.65695e-09
5.29922e-05
6.92849e-06
-0.000287385
-2.51447e-07
8.424e-05
-0.000226271
0.000867301
-6.2686e-07
0.000366413
0.00232997
-0.000262566
-4.11815e-07
-2.16476e-06
-6.66057e-08
-4.37377e-07
-4.02768e-07
-1.53476e-07
-4.6842e-07
-0.00287514
5.64442e-05
0.00145529
0.000680328
-1.16138e-07
-1.35943e-08
-2.26179e-06
-1.42523e-07
0.00789158
-1.23593e-07
-3.13269e-09
-0.000201739
0.000134992
-1.25183e-06
-1.14685e-06
-3.47133e-07
-1.15009e-06
0.000207085
-0.000454251
0.000255195
-1.85657e-07
-0.000465827
-3.19912e-07
-8.73772e-08
-1.34727e-07
-0.000423849
3.65912e-05
5.38605e-05
7.10444e-05
-1.22091e-07
1.30718e-08
-1.36605e-07
-1.073e-07
-2.2287e-07
-0.00990815
0.000801677
-1.88566e-07
-0.000845529
-0.000318287
-0.00476681
0.0024686
-1.1402e-07
-2.70863e-07
6.5073e-05
-1.26095e-07
3.47286e-06
-2.14469e-07
-1.61474e-07
0.00267938
-0.00044933
-1.32602e-07
-3.76561e-07
-2.15108e-07
-8.57802e-07
0.00378777
-0.0045163
-0.000350082
1.11613e-07
-5.56065e-07
-0.000475103
-4.94345e-07
-7.44921e-07
-0.00246107
0.00117139
-2.07351e-05
-0.000379989
-1.11191e-07
0.00127382
-2.2926e-07
8.56305e-08
-1.0944e-07
-8.28827e-07
-0.000108068
-0.000198138
-0.000908912
0.000167265
-7.49858e-07
-5.87028e-08