/*--------------------------------*- C++ -*----------------------------------*\
| =========                 |                                                 |
| \\      /  F ield         | OpenFOAM: The Open Source CFD Toolbox           |
|  \\    /   O peration     | Version:  v2012                                 |
|   \\  /    A nd           | Website:  www.openfoam.com                      |
|    \\/     M anipulation  |                                                 |
\*---------------------------------------------------------------------------*/
FoamFile
{
    version     2.0;
    format      ascii;
    class       surfaceVectorField;
    location    "800";
    object      Uf;
}
// * * * * * * * * * * * * * * * * * * * * * * * * * * * * * * * * * * * * * //

dimensions      [0 1 -1 0 0 0 0];


internalField   nonuniform List<vector> 
20537
(
(1.01676 -0.0174652 -6.21521e-23)
(1.01651 -0.0173437 -8.63331e-23)
(1.01667 -0.0177585 -7.43984e-23)
(0.593188 0.122856 -3.98595e-21)
(0.632539 0.109368 -1.86499e-21)
(0.642272 0.0886382 -4.69972e-21)
(1.06491 -0.0679971 5.68797e-21)
(1.06251 -0.0684592 0)
(1.06389 -0.0706779 -7.03075e-21)
(1.0161 -0.0167053 0)
(1.01627 -0.0169928 3.43082e-23)
(1.01597 -0.0167025 1.00612e-23)
(1.08484 -0.0523221 0)
(1.08397 -0.0535062 -4.15488e-22)
(1.08343 -0.0520661 0)
(1.03537 -0.0465717 -4.90764e-22)
(1.03859 -0.0388008 3.17433e-22)
(1.03223 -0.0399502 -1.09275e-21)
(1.03295 -0.00105809 -2.20455e-21)
(1.03363 -0.00125915 -6.74753e-22)
(1.03339 -0.000705504 2.7006e-21)
(1.05855 -0.0497642 0)
(1.05929 -0.0483258 1.27816e-22)
(1.06039 -0.0500331 -1.44348e-21)
(1.00625 0.000656772 -7.30578e-23)
(1.00641 0.000768421 0)
(1.00637 0.000828147 0)
(1.02506 -0.0726881 -3.78684e-22)
(1.02456 -0.0686116 -1.4724e-21)
(1.0289 -0.0706294 1.21093e-21)
(0.944443 -0.0105386 -8.74747e-22)
(0.934279 -0.023145 0)
(0.949027 -0.0306592 -2.42961e-22)
(0.48482 -0.144422 9.7562e-22)
(0.471474 -0.150434 1.41562e-21)
(0.428371 -0.14469 7.67023e-21)
(0.932752 -0.0438391 9.44191e-21)
(0.977176 -0.0449916 3.92845e-22)
(0.93984 -0.0439766 -5.21592e-21)
(0.130659 0.228929 0)
(0.138262 0.215181 0)
(0.0743802 0.226476 0)
(1.02067 -0.000533291 2.8949e-22)
(1.02072 -0.000473284 -7.82209e-22)
(1.02082 -0.000570997 -2.94038e-21)
(1.04113 -0.0356268 -4.33966e-22)
(1.04199 -0.0361494 1.66896e-21)
(1.04107 -0.0367635 1.05958e-21)
(1.04874 -0.0246994 -1.15441e-20)
(1.04776 -0.0243258 8.46244e-22)
(1.04861 -0.0238642 -1.13602e-21)
(1.02408 -0.0306293 1.6012e-22)
(1.02496 -0.03022 -2.46648e-22)
(1.02489 -0.0315385 -5.43624e-22)
(1.0737 -0.0517123 -3.42062e-22)
(1.07469 -0.0524565 8.18065e-23)
(1.09491 -0.0534453 4.49103e-21)
(1.0061 0.000549127 -6.75491e-23)
(1.00615 0.000475538 -1.45705e-22)
(1.01584 -0.0162875 0)
(1.01628 -0.0165889 -4.99574e-23)
(1.06659 -0.065513 4.78884e-21)
(1.06802 -0.0676631 -5.40744e-21)
(1.00403 -4.76973e-05 2.27872e-23)
(1.00456 -1.93547e-05 2.43368e-22)
(1.00528 8.44661e-06 4.78349e-23)
(1.00222 9.09468e-06 0)
(1.00096 4.17168e-05 8.96996e-23)
(1.00239 1.86498e-05 0)
(1.00353 -2.4857e-05 -9.51292e-23)
(1.00265 -8.32194e-05 -9.67684e-23)
(1.05671 -0.0498275 -3.10918e-21)
(1.05795 -0.0516502 0)
(1.05767 -0.0160257 1.16408e-21)
(1.05702 -0.0153077 4.9397e-21)
(1.05666 -0.0160914 3.43392e-21)
(0.0119957 -0.0912636 1.89541e-22)
(0.0226806 -0.0964831 1.70577e-22)
(1.01693 -0.0172959 6.81615e-23)
(1.01709 -0.0178016 -6.24033e-23)
(1.03028 -0.0244647 -5.88599e-22)
(1.03097 -0.0247204 -4.94489e-22)
(1.03037 -0.0250724 2.94547e-22)
(1.03086 -0.052597 1.65842e-22)
(1.04005 -0.0546743 1.4512e-21)
(1.04876 -0.0257182 -2.45998e-21)
(1.04975 -0.0252339 -1.61041e-22)
(1.06077 -0.0665259 0)
(1.05963 -0.0692249 -4.49745e-21)
(0.888922 0.103079 -1.98621e-21)
(0.884436 0.127995 -1.56075e-21)
(0.877988 0.117793 3.65813e-22)
(1.00206 2.65109e-05 -7.50141e-23)
(1.00333 1.02971e-05 -4.43973e-23)
(1.10342 -0.0439616 -5.25795e-21)
(1.1038 -0.0439634 1.52251e-20)
(1.10132 -0.0446292 2.88991e-20)
(1.08277 -0.0471511 2.31145e-21)
(1.10486 -0.0472058 6.36844e-22)
(1.10668 -0.0476872 1.11731e-20)
(1.09894 -0.0798825 -5.52159e-21)
(1.10319 -0.0772139 0)
(1.0945 -0.0770042 -6.79629e-21)
(1.02176 -0.0745173 -9.78971e-23)
(1.0263 -0.0770959 -1.63895e-21)
(0.907893 0.0774281 -2.67859e-21)
(0.892774 0.0652469 -5.20386e-21)
(1.01553 -0.0100934 7.56846e-22)
(1.01546 -0.0103171 -2.47827e-22)
(1.01589 -0.0104327 3.60248e-22)
(1.00844 -0.00152235 2.57835e-23)
(1.00848 -0.00149641 -5.38132e-23)
(1.00823 -0.00140668 5.19195e-24)
(-0.00172245 0.0403124 -1.22559e-20)
(-0.00151609 0.0371553 2.41519e-21)
(-0.00532146 0.0387205 -1.96768e-20)
(0.90116 -0.0503304 3.819e-22)
(0.905844 -0.0743243 5.38252e-22)
(0.913781 -0.0568412 0)
(0.898273 -0.0238655 3.78857e-22)
(0.890755 -0.0426638 -9.74293e-22)
(0.0336766 0.0504077 -8.99724e-21)
(0.0618443 0.0401346 -9.79852e-21)
(0.0709967 0.0486027 7.6786e-21)
(0.876394 -0.0957706 -4.12278e-21)
(0.880143 -0.0798223 -2.63777e-21)
(0.878111 -0.0698882 -1.98073e-21)
(0.7997 0.0455168 -2.59476e-21)
(0.788697 0.0229005 4.20325e-23)
(0.79077 0.0627522 4.15792e-23)
(1.05825 -0.0167903 -3.27119e-21)
(1.05864 -0.0159412 -3.34315e-21)
(1.00885 -0.0330478 5.11669e-21)
(1.00966 -0.0242936 1.95124e-21)
(1.01792 -0.0300358 -6.5584e-23)
(1.08965 -0.0420306 -1.99668e-21)
(1.09045 -0.0422587 8.0444e-21)
(1.09013 -0.0413326 3.74448e-21)
(1.09484 -0.0479024 -1.17518e-20)
(1.0946 -0.0475851 2.82092e-22)
(1.09533 -0.0475412 -9.30633e-21)
(-0.0307602 -0.0791392 1.24703e-20)
(-0.0257077 -0.0727916 3.72452e-22)
(-0.0219842 -0.0845373 -2.68051e-20)
(1.02036 -0.00053689 1.46805e-21)
(1.01994 -0.000311495 -5.4163e-22)
(1.02045 -0.000580198 -1.22448e-21)
(1.01109 -0.000957225 0)
(1.01111 -0.000907239 8.68529e-23)
(1.01204 -0.00114484 -8.30902e-22)
(1.0084 -0.0015473 4.0295e-23)
(1.00866 -0.00164207 3.30047e-23)
(1.00533 0.00026244 -1.48588e-22)
(1.00583 0.000335401 0)
(1.00477 0.000238999 0)
(-0.0352624 -0.0903547 -9.65046e-21)
(-0.0411442 -0.0860686 8.82781e-21)
(-0.0226197 -0.0925615 4.53138e-21)
(1.03017 -0.0236686 -9.23821e-22)
(1.02949 -0.024062 4.15168e-22)
(1.03473 -0.00414287 1.60642e-21)
(1.03412 -0.0038493 2.81853e-21)
(1.0348 -0.0035949 1.38939e-21)
(1.10156 -0.0833092 -5.06055e-21)
(1.09629 -0.0827867 7.48702e-21)
(0.573328 0.00626289 -2.42049e-21)
(0.557422 0.0141047 1.22802e-20)
(0.512339 0.0190765 -2.83669e-20)
(1.00437 -0.0461158 0)
(1.0006 -0.0438704 -1.93628e-25)
(1.00465 -0.041817 -7.94185e-22)
(1.08808 -0.0518751 9.37058e-21)
(1.0875 -0.0528234 0)
(1.08873 -0.0528852 0)
(1.09586 -0.0191788 6.1954e-23)
(1.09443 -0.0303326 0)
(1.08549 -0.0217075 -8.31711e-23)
(1.01642 -0.0177952 1.93062e-22)
(1.01632 -0.0176175 6.03172e-23)
(1.01639 -0.0176201 -1.31307e-23)
(1.05361 -0.0479092 6.26389e-21)
(1.05784 -0.0475836 -4.78711e-21)
(0.873199 -0.122623 -3.34344e-22)
(0.875032 -0.110489 -9.65803e-22)
(1.07414 -0.0294458 0)
(1.07327 -0.0301349 0)
(1.07292 -0.028938 6.70736e-21)
(1.02344 -0.0297226 -1.86204e-22)
(1.02304 -0.0309771 1.05179e-22)
(0.304675 0.00665432 -3.90221e-21)
(0.29451 0.00760673 4.60948e-21)
(0.272266 0.0110582 0)
(0.972767 -0.0483157 -8.61928e-21)
(0.970571 -0.0491388 6.18019e-21)
(1.01419 -0.0490146 1.36422e-20)
(0.569456 0.132473 -6.07704e-21)
(0.557091 0.150321 -3.2064e-21)
(1.02054 -0.000505991 2.42762e-21)
(1.0202 -0.000539795 9.28498e-22)
(1.01151 -0.00150123 0)
(1.01182 -0.00168225 -7.65809e-22)
(1.01153 -0.00178332 0)
(1.0072 0.00115391 3.06481e-22)
(1.00733 0.00136772 2.83435e-22)
(1.00717 0.00117769 -8.98217e-23)
(1.06796 -0.0643459 0)
(1.06584 -0.0644782 2.14183e-21)
(0.403853 0.00505467 4.39589e-21)
(0.423856 0.00228528 -1.21237e-20)
(0.406282 0.00609443 -9.38012e-22)
(1.07379 -0.042278 -7.86618e-21)
(1.075 -0.042903 -2.61965e-21)
(1.07391 -0.0436699 -1.45815e-20)
(0.284492 0.00574882 2.7533e-21)
(0.258226 0.00731588 1.86185e-20)
(1.03888 -0.00805697 -3.67132e-21)
(1.03807 -0.008118 4.90397e-21)
(1.03816 -0.0074576 -3.73416e-21)
(0.921577 -0.0158975 8.50003e-21)
(0.933629 -0.0116263 -4.78038e-23)
(0.919831 0.00842153 -2.43265e-21)
(1.02324 -0.00494228 1.69492e-21)
(1.0235 -0.00525223 2.47156e-21)
(1.02298 -0.00513599 -2.9713e-22)
(0.0433026 0.0229689 8.46848e-21)
(0.0639764 0.0154255 -5.74452e-21)
(0.0317735 0.0179207 0)
(1.00804 -0.0477482 0)
(1.00422 -0.0504274 0)
(0.494958 -0.138068 0)
(0.545766 -0.144975 -4.71914e-21)
(1.01745 -0.0360595 -3.52977e-22)
(1.02162 -0.0379252 -6.05689e-23)
(1.0202 -0.0337129 -5.94725e-22)
(0.644832 0.0709491 5.18867e-21)
(0.715113 0.0646667 -1.91214e-21)
(0.69354 0.0529377 4.14127e-21)
(1.05553 -0.0222198 -5.4109e-22)
(1.0548 -0.0228482 -5.91997e-21)
(1.05603 -0.0232792 0)
(1.0185 0.00218796 -1.16209e-22)
(1.01794 0.00219363 -6.01659e-23)
(1.01829 0.00210181 1.52676e-22)
(1.10275 -0.043572 -1.69895e-20)
(1.10303 -0.0441134 -1.97205e-20)
(1.00168 -0.00136582 1.25102e-21)
(0.99883 -0.000614415 5.9477e-22)
(1.00177 0.00118024 -2.93506e-22)
(0.874594 -0.130961 4.64797e-22)
(1.06031 -0.0261278 0)
(1.06015 -0.026916 0)
(1.06119 -0.026701 0)
(1.05531 -0.0214063 3.19309e-21)
(1.0565 -0.0216088 -4.48704e-22)
(1.00284 0.000152606 0)
(1.00282 0.000161185 0)
(1.00394 0.000146302 -8.94619e-23)
(1.08617 -0.0528075 0)
(1.08571 -0.0514235 1.31642e-20)
(0.605743 -0.0146724 3.97244e-21)
(0.580187 -0.0111208 2.99271e-21)
(0.583361 -0.0138771 1.31576e-22)
(1.00917 -0.0422159 -5.89393e-21)
(1.00039 -0.0330151 -2.30029e-22)
(1.00149 0.000108682 -1.50205e-22)
(1.00282 0.000112929 0)
(-0.0154867 0.183328 5.14639e-21)
(0.0604271 0.201598 4.09574e-20)
(0.0146021 0.206799 5.1515e-20)
(1.08061 -0.0405009 3.10552e-21)
(1.08143 -0.0397411 7.35324e-21)
(1.08016 -0.0394428 1.95007e-20)
(1.02024 -0.0170126 3.61657e-22)
(1.02064 -0.0174893 -3.35278e-22)
(1.02012 -0.0173474 0)
(1.06185 -0.00705163 -8.18505e-21)
(1.06285 -0.00724144 -4.30347e-21)
(1.00279 -3.548e-05 0)
(1.00354 -7.2698e-05 0)
(1.00288 -4.12196e-05 0)
(1.00981 -0.0398897 -6.35217e-22)
(1.00571 -0.0405299 2.26652e-21)
(1.00752 -0.0360386 -2.3453e-22)
(1.08428 -0.0396784 -3.36604e-21)
(1.0836 -0.0403703 -5.44589e-21)
(1.08471 -0.0407343 0)
(1.00709 -0.0010475 1.53128e-23)
(1.00714 -0.0010429 -4.27261e-23)
(1.00695 -0.0009569 3.38449e-23)
(0.885374 -0.0464727 7.58702e-21)
(0.836122 -0.0455241 7.20716e-21)
(1.04593 -0.0374392 2.97576e-22)
(1.03938 -0.0324263 -2.25218e-21)
(1.00192 8.48297e-05 0)
(1.00077 5.4331e-05 0)
(1.00191 8.09784e-05 9.93035e-23)
(1.01902 0.00215867 -5.27319e-23)
(1.01873 0.00225706 1.3352e-22)
(1.00385 -0.00172789 6.19635e-22)
(1.00175 -0.00327238 -8.23841e-22)
(0.999915 5.83387e-05 1.65508e-22)
(0.99995 1.72806e-05 -5.3859e-22)
(1.00289 0.000109253 0)
(1.00173 8.31305e-05 0)
(0.78428 0.168346 1.29213e-21)
(0.775246 0.180562 -2.75925e-21)
(0.634835 -0.0198126 4.9009e-21)
(0.633155 -0.0179877 -1.27921e-20)
(1.00717 -0.000741339 0)
(1.00724 -0.000794904 0)
(1.00716 -0.000800273 0)
(1.00397 -0.000387758 0)
(1.00376 -0.000365154 -1.04296e-22)
(1.00216 -0.00018978 1.89802e-22)
(1.01028 -0.000856942 3.35246e-22)
(1.00896 -0.000728196 -2.61244e-22)
(1.00863 -0.000603273 5.15695e-22)
(-0.0025151 0.0401935 5.87799e-21)
(-0.00195543 0.0451107 -1.51751e-20)
(1.06143 -0.00814542 9.35782e-21)
(1.06063 -0.00708667 2.99075e-21)
(0.928386 -0.0440049 1.37208e-20)
(0.886295 -0.0425877 8.07149e-21)
(0.872153 0.171037 6.62801e-21)
(0.813677 0.0626993 2.39622e-22)
(0.820362 0.0375846 -6.97052e-22)
(1.02058 -0.0049872 -4.35129e-22)
(1.02013 -0.00469953 5.22305e-22)
(1.02049 -0.00509211 2.30054e-23)
(0.832448 0.0763723 8.91984e-22)
(0.814725 0.0929467 -4.21646e-21)
(1.07701 -0.0414767 1.92126e-21)
(1.07787 -0.0410359 -1.19012e-21)
(1.07791 -0.0423931 5.15793e-22)
(1.01563 -0.0159401 -1.09323e-22)
(1.01546 -0.0160388 -1.36044e-22)
(1.0943 -0.0609412 0)
(1.09347 -0.0598572 0)
(1.09544 -0.0595932 8.77907e-21)
(1.0152 -0.00974508 2.81581e-22)
(1.0156 -0.00984096 -2.10887e-22)
(1.00557 -0.00130917 0)
(1.00568 -0.00144673 -4.22878e-24)
(1.00565 -0.00139148 0)
(0.313731 0.00453228 -3.02088e-21)
(0.325238 0.00125501 -7.78734e-21)
(1.02344 -0.00469158 -1.20275e-21)
(1.02292 -0.00459122 3.12793e-21)
(0.773495 0.15565 -1.24729e-20)
(1.00582 -0.000696592 -8.50692e-23)
(1.00568 -0.000637891 0)
(1.00534 -0.000552742 -8.56284e-23)
(1.00711 -0.000679331 0)
(1.0072 -0.000668135 -7.75523e-23)
(0.979337 -0.0480841 -1.02936e-20)
(0.986139 -0.0484905 4.73019e-21)
(1.0227 -0.0494039 6.78671e-21)
(0.116582 0.0454853 6.29095e-21)
(0.0697668 0.071506 -3.28563e-22)
(0.0990179 0.0495753 8.54659e-23)
(0.165894 0.0284326 -2.93481e-21)
(0.205515 0.0253879 2.34821e-21)
(0.171321 0.00785189 -4.34393e-21)
(-0.0512996 0.146043 -1.71371e-20)
(-0.0721231 0.158108 -2.74268e-20)
(1.01131 -0.00113229 0)
(1.00966 -0.000604643 6.70301e-22)
(1.0057 0.00325077 -2.04097e-22)
(1.00507 0.00306788 1.66866e-22)
(1.00548 0.00419017 -3.06005e-22)
(1.01256 -0.00291629 -2.74761e-22)
(1.01253 -0.00278923 4.48888e-23)
(1.0129 -0.00301241 5.91731e-23)
(1.03965 -0.0205749 2.43015e-21)
(1.04035 -0.0212021 1.55814e-21)
(1.04021 -0.0202469 5.45251e-21)
(0.898925 -0.0908576 -1.32084e-21)
(0.914188 -0.0922724 -3.09742e-21)
(1.01536 -0.00702316 2.23574e-23)
(1.01418 -0.00726089 2.28056e-23)
(1.0141 -0.00617171 -9.30564e-22)
(1.09562 -0.0625369 0)
(1.0934 -0.0626953 5.97104e-21)
(1.0322 -0.000812118 -2.41033e-21)
(1.03239 -0.00134414 -6.1182e-21)
(0.908558 -0.00576141 2.30439e-24)
(0.899436 0.00596112 9.77284e-23)
(1.09882 -0.034217 5.22777e-21)
(1.09884 -0.0350806 1.04369e-21)
(1.0091 -0.000849429 -2.86517e-22)
(1.00932 -0.000874105 0)
(1.01027 -0.00101372 0)
(0.0998217 0.239985 -7.37524e-21)
(0.187787 0.231647 0)
(1.00487 0.000215445 -1.25121e-22)
(1.00585 0.000281324 2.69964e-22)
(1.0464 -0.0154644 6.0496e-21)
(1.04715 -0.0154475 -3.74588e-22)
(1.0465 -0.0147118 -2.15734e-21)
(1.03909 -0.0210242 -4.89383e-21)
(1.03884 -0.0200765 -1.37061e-21)
(1.00821 -0.00529107 8.14443e-24)
(1.00803 -0.00501777 -2.51479e-24)
(1.00805 -0.0051458 -2.19739e-23)
(1.03103 -0.0220103 -8.33179e-22)
(1.0309 -0.0213859 -1.66589e-21)
(1.03157 -0.0217692 -2.49906e-21)
(1.09574 -0.0483232 1.72225e-20)
(1.09458 -0.0483618 0)
(1.08872 -0.0417652 -6.74714e-21)
(1.08911 -0.0427205 1.7595e-21)
(1.00869 -0.00177754 2.39988e-25)
(1.00847 -0.00166888 8.10574e-24)
(1.00849 -0.0016372 2.5106e-24)
(1.0666 -0.0214736 -6.37646e-21)
(1.06661 -0.0222267 7.34428e-23)
(1.06752 -0.0218319 0)
(-0.0285056 -0.0942558 -3.31171e-20)
(-0.0407546 -0.0876639 -1.62803e-22)
(1.00546 -0.00118378 0)
(1.00551 -0.00122709 0)
(1.03451 -0.0300123 0)
(1.03515 -0.0297554 -1.04454e-21)
(1.0344 -0.0293034 -2.73919e-22)
(1.01059 -0.00220057 0)
(1.0109 -0.00228469 -5.13467e-23)
(1.01061 -0.00213346 0)
(1.01661 -0.00627207 3.31312e-22)
(1.01704 -0.00794732 4.56929e-23)
(1.07532 -0.0299522 0)
(1.07494 -0.0287491 0)
(1.01578 -0.0157665 -1.78898e-23)
(1.01535 -0.0155677 -2.57941e-22)
(0.459094 0.00886412 -5.95998e-21)
(0.401831 0.00922861 -7.62051e-22)
(0.461064 0.00548721 3.69694e-21)
(0.377162 0.00900272 2.09434e-21)
(0.400238 0.00495058 3.50903e-21)
(1.0062 0.000968275 -3.48374e-22)
(1.0062 0.0010016 -1.63978e-22)
(1.00636 0.00106776 -7.95208e-23)
(1.0084 -0.00557643 3.3141e-23)
(1.00838 -0.00542726 -2.01557e-23)
(0.14091 0.0321032 -9.55394e-22)
(0.166087 0.0491985 2.14016e-21)
(1.00534 -0.00106468 -1.31236e-23)
(1.00541 -0.00112862 1.29104e-23)
(0.784152 -0.00311771 -1.59893e-21)
(0.798953 -0.00665539 0)
(1.07584 -0.0422719 8.12629e-21)
(1.07575 -0.0408021 1.07958e-20)
(1.00486 -0.000390558 3.59058e-22)
(1.00495 -0.00104384 3.16632e-22)
(1.00439 -0.000690268 3.09374e-22)
(1.03636 -0.0484989 5.70173e-21)
(1.08013 -0.0514644 4.36985e-21)
(1.00739 -0.00120163 -4.03236e-23)
(1.00734 -0.00119235 2.85652e-23)
(1.00757 -0.00129752 -2.56927e-23)
(1.04971 -0.0270927 -4.13215e-22)
(1.04881 -0.0266145 5.62751e-21)
(1.04887 -0.0275385 1.97079e-21)
(0.932923 -0.0475797 -2.07751e-20)
(1.02326 -0.00410098 -2.62248e-21)
(1.02297 -0.00381113 -1.28372e-21)
(1.02281 -0.00404573 -6.16047e-21)
(1.06912 -0.0696073 -1.31775e-20)
(1.07026 -0.0675072 -7.88516e-21)
(1.00582 -0.000301363 2.14205e-25)
(1.00549 -0.000246647 1.74614e-25)
(1.00564 -0.000265964 1.45621e-23)
(1.00424 -5.76805e-06 -5.86054e-23)
(1.00468 3.03129e-05 -5.06235e-23)
(1.00548 0.000111891 -1.78644e-22)
(1.01641 -0.0179706 2.22882e-22)
(1.01648 -0.0179931 4.52935e-22)
(1.01124 -0.0012276 0)
(1.0113 -0.00115351 0)
(1.08535 -0.056145 -5.32093e-21)
(1.08456 -0.0573997 3.50584e-22)
(1.08628 -0.0575968 8.93547e-21)
(1.01383 -0.0298062 1.67976e-21)
(1.00894 -0.0296829 3.43982e-21)
(1.01252 -0.0341099 2.16429e-21)
(0.87953 -0.11455 3.4763e-21)
(-0.0324095 -0.0869589 1.20241e-20)
(-0.0403868 -0.076041 1.54263e-21)
(1.01945 0.00214561 -3.46086e-23)
(1.01969 0.00212907 6.47201e-23)
(1.01984 0.00211007 -2.5027e-23)
(1.06998 -0.0329637 6.50241e-21)
(1.07074 -0.0321943 -5.18674e-21)
(1.06958 -0.0317991 3.87346e-22)
(0.587626 -0.00478384 8.98837e-21)
(0.620998 -0.00702104 -6.70392e-21)
(1.04461 -0.0153307 -5.34789e-21)
(1.04547 -0.0154623 1.20232e-21)
(1.04478 -0.0147281 -5.99737e-21)
(1.00633 0.00339048 -3.40314e-22)
(1.00597 0.0025691 -3.50332e-22)
(0.906681 -0.0910299 -1.97146e-22)
(0.918152 -0.11285 -2.33965e-21)
(0.923754 -0.079837 2.02376e-21)
(1.00483 0.000458932 -4.87713e-22)
(1.00523 -2.3851e-05 -2.57889e-22)
(1.00706 0.000941779 -2.092e-22)
(1.0072 0.0011312 -1.59637e-23)
(1.02115 -0.00534492 -5.4353e-22)
(1.02077 -0.00479496 -1.7666e-22)
(0.136434 0.0656204 0)
(0.194196 0.056388 -6.87221e-22)
(0.184882 0.0477597 0)
(1.00167 -0.000153561 2.69609e-22)
(1.00336 -0.000245556 0)
(1.00128 -0.000166711 0)
(1.01941 -0.00682035 -5.15198e-22)
(1.019 -0.00654884 -1.71762e-21)
(1.01912 -0.00695623 -5.19122e-22)
(1.01943 -0.0452351 9.05516e-22)
(1.02159 -0.0431668 -1.15915e-21)
(1.02271 -0.045985 -2.40809e-22)
(1.02374 -0.00412568 1.20445e-21)
(1.02358 -0.00439952 -3.55227e-22)
(0.497709 -0.0938909 -1.15075e-20)
(0.434319 -0.0909403 1.15788e-20)
(0.460487 -0.0961406 -5.94247e-23)
(1.05089 -0.0243378 -1.32017e-21)
(1.05029 -0.0235058 -3.73627e-21)
(1.0515 -0.023521 -6.8446e-21)
(0.44054 -0.00806495 -1.35323e-21)
(0.421663 -0.00486337 1.63474e-20)
(0.438796 -0.00837688 1.96071e-21)
(1.0077 -0.00134453 3.38986e-23)
(1.00785 -0.00141224 6.45433e-24)
(1.00791 -0.00146444 1.83355e-24)
(0.688526 -0.0361447 -8.36981e-21)
(0.65165 -0.0342365 2.91506e-22)
(0.662187 -0.0340191 -1.66308e-20)
(1.02035 -0.0166071 -3.18903e-22)
(1.01985 -0.0165042 1.80367e-22)
(0.876891 -0.0737884 3.21474e-21)
(0.88683 -0.104426 2.48561e-21)
(0.884454 -0.10765 -9.26852e-22)
(1.00692 -0.000995954 2.16259e-23)
(1.00695 -0.00100862 4.36071e-23)
(1.00676 -0.000923054 1.66734e-23)
(1.01183 -0.00269818 1.57102e-23)
(1.01181 -0.00280397 1.13546e-22)
(1.01148 -0.00259452 -6.8861e-23)
(0.984068 0.0163948 -4.26019e-22)
(0.974683 0.0131339 -5.07578e-21)
(0.983676 0.00578227 -3.45296e-21)
(1.01413 -0.0523842 8.3304e-21)
(1.01167 -0.0485293 -4.09746e-22)
(1.01634 -0.0485138 -7.19974e-22)
(0.00265733 0.0482325 6.67272e-22)
(0.00766912 0.0577956 4.13295e-22)
(1.02114 -0.00139281 -3.40706e-21)
(1.02098 -0.0012093 -9.49238e-22)
(1.02087 -0.00135244 0)
(0.443911 -0.00808166 -9.50054e-21)
(0.461173 -0.0112179 -3.09494e-21)
(1.05046 -0.0249333 6.83311e-21)
(1.05145 -0.0249019 5.30306e-21)
(1.03956 -0.00852176 -7.39435e-22)
(1.03963 -0.00782814 -1.85734e-21)
(0.711165 -0.032758 7.06795e-21)
(0.68451 -0.0312762 -1.29227e-21)
(0.68318 -0.0316558 -8.97304e-21)
(1.09353 -0.051684 2.21157e-21)
(1.09415 -0.0523513 -5.38294e-21)
(1.09476 -0.0514544 7.52169e-21)
(0.594564 -0.0301048 -5.93905e-21)
(0.566767 -0.0276343 6.10768e-21)
(0.56653 -0.0284827 -1.07703e-20)
(1.00396 1.20481e-05 9.24839e-23)
(1.00399 -4.80415e-06 -1.47826e-23)
(1.00252 2.20478e-05 -8.19823e-23)
(1.06231 -0.029205 3.9009e-21)
(1.06346 -0.0299088 -9.24632e-22)
(1.06228 -0.0304332 -4.38021e-21)
(1.00269 -3.09274e-05 -1.31121e-23)
(1.00196 -2.74983e-05 0)
(-0.0725847 -0.0446365 5.96531e-21)
(-0.0691814 -0.0363582 -6.464e-21)
(-0.0640264 -0.04507 -3.04334e-20)
(1.00691 -0.000988986 1.87442e-23)
(1.0071 -0.0010823 7.98677e-24)
(1.05493 -0.0500767 -2.95254e-21)
(1.05544 -0.0483777 -5.75519e-23)
(1.05603 -0.0931664 8.96204e-22)
(1.06298 -0.0867151 -1.5973e-21)
(1.0692 -0.0990017 -6.83876e-22)
(1.00607 0.000883165 1.02054e-22)
(1.00622 0.000939401 -1.65703e-22)
(1.01923 0.00212036 0)
(1.09016 -0.0387951 0)
(1.08957 -0.0395433 -6.71939e-21)
(1.08914 -0.0386332 -1.70829e-20)
(1.03598 -0.0416329 1.63715e-22)
(1.0348 -0.0399393 -1.95795e-23)
(1.03361 -0.0413951 -9.31766e-23)
(0.549288 -0.0936301 -3.50437e-21)
(0.528116 -0.0903066 -2.11799e-20)
(1.09263 -0.0156559 3.07471e-22)
(1.08867 -0.00801766 -9.21066e-23)
(1.01218 -0.00280744 2.84909e-23)
(1.01254 -0.00303341 -8.00264e-23)
(1.01964 -0.00670879 8.13708e-22)
(1.01976 -0.00709131 -9.99356e-22)
(1.02417 -0.0500831 5.36545e-22)
(1.02424 -0.0585318 -3.03651e-21)
(0.923718 -0.0354603 2.40227e-22)
(0.93622 -0.0448354 2.41807e-22)
(0.937581 -0.026321 -5.55721e-21)
(1.01015 -0.00278775 -1.08031e-23)
(1.01 -0.00264119 3.44851e-23)
(1.01032 -0.00290846 1.54057e-23)
(1.01759 -0.0478505 3.98575e-22)
(1.01625 -0.0443733 1.41409e-21)
(1.00421 -0.000123117 -9.97005e-24)
(1.00414 -0.000116202 -1.28528e-23)
(0.535396 -0.0236548 -8.45217e-21)
(0.512561 -0.020869 -5.33591e-21)
(0.530894 -0.023214 2.85549e-21)
(1.07993 -0.0412938 -8.89296e-21)
(1.08115 -0.0416257 -1.57228e-20)
(0.870332 0.00479767 1.2029e-21)
(0.869061 0.0453192 1.59288e-21)
(0.86367 0.034765 3.10683e-21)
(1.03861 -0.0213659 -3.23345e-21)
(1.03804 -0.0216735 -1.29879e-21)
(1.03787 -0.0208299 1.393e-22)
(1.04288 -0.0280342 -1.23804e-21)
(1.04275 -0.0270793 5.69269e-22)
(1.04206 -0.0276297 4.22452e-21)
(1.01063 -0.00934103 -5.0888e-22)
(1.01174 -0.00892352 1.48163e-21)
(1.01051 -0.00807401 -8.36594e-22)
(0.912909 -0.0236471 2.26925e-22)
(0.914056 -0.0462739 0)
(1.03372 -0.0129296 -1.5013e-21)
(1.03417 -0.0134081 -3.65378e-21)
(1.03342 -0.0133018 -2.96273e-21)
(1.03936 -0.0218514 -1.56217e-21)
(1.08663 -0.0346255 0)
(1.0877 -0.034844 1.63252e-23)
(1.08671 -0.0356465 0)
(0.954478 0.0106695 1.47587e-21)
(0.944272 0.00387161 0)
(0.957025 -0.00197692 0)
(1.01589 -0.0253564 -2.28756e-21)
(1.01816 -0.0299253 -2.51799e-21)
(0.945802 -0.0476569 0)
(0.989058 -0.0481568 0)
(0.398634 -0.00275811 -2.97142e-20)
(0.326376 0.0110582 9.48678e-21)
(0.300888 0.00279161 -1.89781e-20)
(1.02424 -0.000979303 2.43341e-22)
(1.02383 -0.000817745 1.2211e-21)
(1.02389 -0.00109613 1.91558e-21)
(1.01182 -0.00259911 3.51877e-23)
(1.0228 -0.028742 -7.35283e-23)
(1.02187 -0.0286061 0)
(1.02229 -0.0275694 2.1122e-23)
(1.0238 -0.111626 -2.00536e-21)
(1.04521 -0.101827 9.52602e-22)
(1.01125 -0.0737849 8.02137e-21)
(1.01706 -0.00277738 0)
(1.01656 -0.00271722 5.16511e-23)
(1.01701 -0.00298306 0)
(1.00214 -0.0509374 -7.64861e-21)
(1.0113 -0.0522271 6.6068e-21)
(0.959995 -0.048338 6.2369e-21)
(1.04457 -0.0160657 -4.00291e-21)
(1.04392 -0.0153729 -1.94323e-21)
(1.034 -0.0125546 1.38646e-24)
(1.03327 -0.0124366 3.24499e-21)
(1.06062 -0.0252623 9.31212e-21)
(1.05957 -0.02556 5.56902e-21)
(0.740754 -0.0351402 1.02756e-21)
(0.738272 -0.0349141 1.44665e-20)
(1.0152 0.013839 -6.35541e-23)
(1.01714 0.0111765 -1.16986e-22)
(1.01361 0.0102053 3.80215e-22)
(1.0101 -0.0109607 -2.71995e-22)
(1.00931 -0.00949592 -2.54341e-22)
(1.0462 -0.0162501 1.36725e-22)
(1.07324 -0.0760315 0)
(1.07254 -0.0616317 -8.37237e-23)
(1.08015 -0.0606026 0)
(1.07253 -0.0417005 8.86113e-22)
(1.07361 -0.0409417 0)
(1.04025 -0.0352657 -1.25226e-21)
(1.04083 -0.0346889 -1.82299e-21)
(1.00579 -0.00158723 1.76474e-23)
(1.0057 -0.00148351 -3.30177e-23)
(0.922024 -0.0393955 3.07673e-21)
(0.911649 -0.01609 7.91346e-22)
(1.02424 0.000881284 0)
(1.02224 0.00261874 0)
(1.02196 0.000161547 7.33317e-23)
(0.604834 -0.0338177 -1.71445e-20)
(0.575177 -0.030721 9.19154e-21)
(0.573633 -0.0320642 -9.05854e-21)
(0.954103 -0.00166135 -7.67957e-22)
(0.944159 0.00891838 -2.45418e-20)
(1.01029 -0.00289927 -3.37251e-23)
(1.01002 -0.00268729 -3.43209e-23)
(1.0073 -0.001135 1.24335e-23)
(1.0075 -0.00123857 1.90125e-23)
(1.00744 -0.00117638 6.14943e-24)
(1.00293 -5.70222e-05 2.02102e-24)
(1.00304 -5.12769e-05 1.57577e-23)
(1.00366 -6.67417e-05 1.91014e-24)
(1.08663 -0.0337816 0)
(1.08579 -0.0344421 0)
(0.9928 -0.116541 -4.77956e-21)
(1.02761 -0.140187 -1.01147e-21)
(0.782254 -0.0333495 -1.5425e-21)
(0.796271 -0.0622174 0)
(0.78875 -0.0664316 8.42935e-22)
(1.00655 0.000535924 9.82372e-24)
(1.00671 0.000702254 1.66633e-23)
(1.00661 0.000479372 2.18789e-22)
(1.02146 8.81124e-05 4.56975e-22)
(1.02152 -6.13704e-05 -3.2249e-21)
(1.02169 7.83713e-05 -1.58178e-21)
(1.06657 -0.0965118 -2.76145e-21)
(1.05972 -0.0852491 3.03292e-22)
(0.952942 -0.0425163 -4.46539e-22)
(0.94179 -0.0658947 7.95083e-21)
(0.953277 -0.0653494 1.93012e-21)
(1.09647 -0.0636502 0)
(1.09705 -0.0618144 0)
(1.03003 -0.0230805 -9.44299e-23)
(1.03074 -0.0234021 -2.485e-21)
(1.03534 -0.00437113 -8.5158e-22)
(1.03468 -0.00456112 -3.18778e-21)
(1.07384 -0.032417 0)
(1.07299 -0.0331031 0)
(1.07422 -0.0336419 1.70662e-20)
(0.947559 -0.0237796 4.17329e-22)
(0.961837 -0.0293846 -3.96126e-21)
(1.04082 -0.0534932 -1.78032e-20)
(0.987402 -0.0493757 -5.69598e-21)
(1.03578 -0.0293084 9.27042e-22)
(1.0356 -0.0289171 1.80995e-22)
(1.03618 -0.0290514 -1.95155e-21)
(0.473381 -0.129921 2.97249e-21)
(0.530497 -0.126881 -5.13053e-21)
(1.00589 -0.00175713 -5.62164e-24)
(1.00597 -0.00185998 -5.41875e-24)
(1.00588 -0.00170822 -2.16894e-24)
(0.540973 -0.0238007 5.60482e-22)
(0.561002 -0.0260808 -5.71794e-22)
(1.0658 -0.0210339 1.46562e-22)
(1.06673 -0.020611 -5.98519e-21)
(1.0469 -0.0239801 6.56252e-21)
(1.04702 -0.0247862 1.5951e-21)
(0.617389 -0.0352333 -5.87487e-21)
(0.582326 -0.0335337 -6.0673e-21)
(0.592463 -0.0332798 -2.91998e-21)
(1.02226 -0.0136891 4.71464e-22)
(1.02198 -0.0138886 -2.48672e-22)
(1.02254 -0.0140738 1.37072e-21)
(1.014 -0.0383729 2.94731e-22)
(1.0138 -0.0435522 -2.63471e-22)
(0.60254 -0.0252564 -1.78452e-20)
(0.602317 -0.0237977 9.0142e-21)
(0.627832 -0.0269351 5.07923e-21)
(1.00651 0.000598355 3.83694e-23)
(1.00641 0.000384407 -1.84454e-22)
(1.08186 -0.0322984 -5.58646e-21)
(1.083 -0.0326228 -4.91718e-21)
(1.08206 -0.0335009 -5.89877e-21)
(1.05905 -0.027438 0)
(1.0602 -0.0280868 0)
(1.02989 -0.0224335 6.55557e-22)
(1.02935 -0.0226776 2.71783e-23)
(0.172941 0.0182507 7.0116e-21)
(0.144059 0.0405458 -1.57447e-20)
(1.0355 -0.029533 9.83668e-23)
(1.03604 -0.0296977 -8.76154e-22)
(1.0317 -0.0133119 -1.72941e-22)
(1.03209 -0.0131427 2.47865e-21)
(1.03228 -0.0137494 7.76716e-21)
(0.674802 -0.0296801 1.01055e-20)
(0.667473 -0.0286271 -7.7729e-22)
(0.644722 -0.0259112 9.92331e-21)
(1.00895 -0.00166682 4.52056e-23)
(1.00919 -0.00175158 1.49046e-23)
(1.00897 -0.0016226 -2.74994e-23)
(1.04316 -0.0287336 -4.72347e-21)
(1.04368 -0.0281779 -4.32936e-21)
(1.0217 -0.00579555 -3.31959e-23)
(1.02244 -0.006281 -1.44716e-22)
(1.02204 -0.00548662 4.15756e-23)
(0.639815 -0.0368088 -4.68427e-21)
(0.641205 -0.0367055 -7.2435e-21)
(1.10049 -0.0413078 0)
(1.10092 -0.0416168 1.01809e-20)
(1.10097 -0.0409448 0)
(1.0214 -0.00141426 -2.67014e-21)
(1.02131 -0.00157745 -9.76229e-22)
(1.08388 -0.0377535 -1.10412e-22)
(1.08403 -0.0388115 4.99483e-21)
(1.083 -0.0382826 9.64092e-21)
(1.02159 -0.000783099 0)
(1.02164 -0.000936163 0)
(1.02187 -0.000808426 -1.54356e-21)
(0.422127 -0.00977556 -2.2417e-20)
(0.429426 -0.0028801 9.40238e-21)
(1.0135 -0.00897446 -1.47459e-22)
(1.01483 -0.0105422 -6.00885e-22)
(1.01564 -0.00826129 -9.48396e-22)
(1.00443 -4.99597e-05 -4.8371e-23)
(1.00484 -3.61352e-05 6.2775e-23)
(1.00565 1.24285e-05 1.18803e-22)
(1.00825 -0.00635089 0)
(1.00837 -0.00663776 0)
(1.00836 -0.00645993 0)
(1.09987 -0.0415869 7.20085e-21)
(1.09987 -0.0408623 -8.47784e-21)
(1.06131 -0.0285938 3.86451e-21)
(1.06236 -0.0282102 5.11045e-22)
(1.04749 -0.013694 1.96885e-21)
(1.04767 -0.0143776 -4.71951e-21)
(1.04688 -0.0141024 -1.0009e-22)
(1.02128 8.46485e-05 3.2689e-21)
(1.02253 -0.0134707 -2.08036e-21)
(1.022 -0.0133451 0)
(1.03125 -0.0136098 -2.48232e-21)
(1.03102 -0.0129658 -3.83859e-21)
(0.920925 -0.0143224 2.54893e-24)
(0.922875 -0.0404279 0)
(0.31168 0.247272 -1.33269e-20)
(0.320605 0.250842 2.0363e-21)
(0.4634 0.0174242 0)
(0.508178 0.0153863 0)
(0.46836 0.0215961 -3.00417e-22)
(1.01702 -0.0299442 7.8973e-22)
(1.01715 -0.0315673 7.82388e-22)
(1.01575 -0.0307514 -5.36109e-22)
(0.656379 -0.0371304 -6.32256e-21)
(0.646996 -0.0370203 3.89649e-21)
(0.84625 -0.068906 0)
(0.812227 -0.0632355 7.36575e-21)
(0.810107 -0.0682782 -2.20602e-21)
(1.02065 -0.000622475 -2.85998e-22)
(1.0703 -0.034099 6.5245e-21)
(1.06918 -0.0336326 -2.504e-21)
(1.09618 -0.0658309 0)
(1.0963 -0.0648795 -5.3689e-21)
(0.996127 -0.00230243 -9.17391e-22)
(0.994281 -0.00407032 -5.01469e-22)
(0.99699 -0.00506368 -7.92682e-22)
(1.03962 -0.0511445 -9.42502e-23)
(1.03646 -0.0506466 -3.70916e-22)
(1.03929 -0.0484012 5.34696e-23)
(1.09438 -0.0463681 7.56763e-21)
(1.09388 -0.0464299 0)
(1.09413 -0.0459681 6.04477e-21)
(1.08259 -0.0538557 3.63097e-21)
(1.00814 -0.00490909 -3.51085e-22)
(1.00856 -0.00517984 3.3223e-22)
(1.00801 -0.00549929 0)
(0.902143 -0.114211 -1.49038e-20)
(0.931511 -0.117705 1.73738e-20)
(0.884423 -0.063613 2.06438e-21)
(0.601035 -0.0266479 0)
(0.574478 -0.0241466 6.6572e-21)
(0.579724 -0.0243239 -9.64015e-21)
(1.0205 -0.000379082 -1.82107e-21)
(1.02078 -0.000400342 4.79035e-22)
(1.03944 -0.0244195 -3.65342e-21)
(1.03939 -0.0184349 3.27029e-24)
(1.04374 -0.0220651 1.59891e-21)
(1.03542 -0.0302982 -8.04499e-24)
(1.0345 -0.0248793 -3.5026e-24)
(1.05113 -0.120799 -5.45055e-21)
(1.06675 -0.116959 -8.05599e-22)
(1.05046 -0.118218 2.83783e-21)
(1.04739 -0.013093 0)
(1.0482 -0.0134204 -5.7387e-21)
(1.04331 -0.0522391 2.81691e-22)
(1.03988 -0.0546685 -9.10333e-22)
(-0.0735903 -0.0530694 1.19434e-20)
(-0.0804926 -0.0437951 3.50169e-20)
(1.0086 -0.00586986 -3.77147e-24)
(1.00842 -0.00572475 -7.39844e-23)
(0.876012 -0.108516 -3.68255e-21)
(0.914458 -0.153906 -1.80679e-20)
(1.00812 -0.00602913 -1.27444e-22)
(1.00814 -0.00622956 4.78132e-23)
(1.02154 -0.000641604 1.62814e-23)
(1.02136 -0.000762938 -1.25055e-21)
(1.00479 -0.000177486 -2.48252e-23)
(1.00427 -0.000123915 -9.56902e-24)
(1.00724 -0.00112448 -3.13463e-23)
(1.00702 -0.00103533 -1.42898e-23)