/*--------------------------------*- C++ -*----------------------------------*\
| =========                 |                                                 |
| \\      /  F ield         | OpenFOAM: The Open Source CFD Toolbox           |
|  \\    /   O peration     | Version:  v2012                                 |
|   \\  /    A nd           | Website:  www.openfoam.com                      |
|    \\/     M anipulation  |                                                 |
\*---------------------------------------------------------------------------*/
FoamFile
{
    version     2.0;
    format      ascii;
    class       volScalarField;
    location    "700";
    object      omega_0;
}
// * * * * * * * * * * * * * * * * * * * * * * * * * * * * * * * * * * * * * //

dimensions      [0 0 -1 0 0 0 0];


internalField   nonuniform List<scalar> 
13851
(
0.0232293
1.37242
0.0783394
0.0229596
0.0790853
0.0501589
0.0216012
0.0457707
0.0207003
0.092064
0.279805
1.83528
2.49305
2.44648
0.0214059
0.0323208
0.024454
0.027718
0.537857
0.0206928
0.0228077
0.075969
0.0211942
0.0223443
0.0213605
0.0465211
0.0238784
7.3859
0.0230575
0.0237657
0.108772
0.0247498
0.0748041
0.362533
0.0223553
0.170581
0.260977
0.177504
0.102458
0.399348
0.021284
0.019751
4.92484
0.277758
0.284537
3.96779
0.280794
0.666024
0.0240932
0.0504711
0.0728589
0.132415
3.22941
0.0215599
0.0225272
0.0197576
0.021172
2.00794
0.023563
0.0216263
0.173444
2.50368
0.058368
0.091595
0.126465
0.024702
0.55935
0.269106
0.0333692
0.0275095
7.4829
2.32197
1.27479
0.0216693
0.0210175
0.0209539
0.0727307
5.31948
0.0468419
6.8478
0.0218061
0.249141
0.0213411
3.26979
0.0653825
1.9346
0.0440661
1.61895
0.0249633
0.0207938
0.171046
0.0379347
0.26911
0.0271209
0.0247628
0.0219116
0.0809047
2.77823
0.0810245
0.0219049
2.56004
0.050162
0.0220504
0.0236643
0.0211656
0.0585382
0.0556364
0.0196588
3.34589
0.0587204
0.0223112
0.020862
0.0325232
0.0229006
0.02232
0.827496
2.82867
0.0196836
0.0230742
0.0229942
5.37692
0.0235405
2.52513
0.48617
0.680921
0.0227427
0.671088
0.0486308
0.0226481
0.131091
0.0212671
0.0207244
6.07276
0.0213432
0.822987
0.0209089
0.0196939
2.21749
2.71537
2.30976
2.52284
0.0224898
0.0228549
0.0200445
0.0229655
0.274694
0.0465488
0.13174
0.0215864
0.283172
0.0769257
0.0225554
2.50876
0.0212113
0.0226833
0.0228789
0.0210327
0.0228157
0.131916
0.0717837
0.0198318
0.0271576
2.02218
0.0207094
0.0271587
0.0198968
0.0568932
0.0338508
0.0225332
3.86274
6.54488
0.0203948
0.0210493
2.32247
0.020699
0.653238
0.0470311
0.0227643
0.583464
0.019679
0.0254633
2.59992
0.021344
0.0816285
0.0197911
0.0213233
0.0248435
0.0218527
0.0891674
0.0843673
0.27209
2.53712
0.0210668
0.0334157
2.50418
0.0225465
0.0225851
0.430109
0.0225659
0.0209895
0.02301
5.49295
0.0241675
0.0212382
0.0689062
0.021354
2.75376
0.0246
3.17154
0.019718
3.46345
0.0219707
0.384318
0.0196339
0.0199804
0.283126
0.0580501
3.61126
0.0213439
3.12551
0.0247577
0.0218442
3.13186
0.12777
3.52369
0.0214378
0.0290365
0.0213645
2.16443
0.0196372
0.045117
0.244378
0.0203868
0.0209833
0.0650994
0.0430653
2.77289
0.133013
0.0200314
0.021249
0.129846
0.42355
0.0203713
0.0750323
0.0208282
3.31846
0.0514404
0.433529
0.0229587
0.0252797
0.0274607
0.425041
0.0218155
0.0230431
0.0519879
1.0189
0.0812422
2.34425
23.3034
0.0214295
0.0199942
0.0265489
0.752971
0.0203916
1.73812
0.0225342
0.021786
0.0266328
3.13391
0.0378555
0.0273368
0.0226757
0.310132
0.0442846
0.0314455
0.0207352
0.247967
0.109015
3.78623
0.279651
0.0203668
0.0196785
0.0211191
0.0497304
0.779313
0.628071
0.0208227
0.021439
0.418586
0.256602
0.149462
0.0232848
0.0216323
0.0358446
0.254097
1.42032
0.0265844
1.92289
0.0207574
3.35298
0.0267733
0.0243182
3.73903
0.0215535
0.0694011
3.17193
0.0207982
0.0430715
0.027239
0.0230976
2.86064
0.0267637
0.0217626
3.02913
0.0197949
0.0255079
0.0256649
3.82921
0.123283
0.0213434
0.0519289
0.0213761
10.6403
0.0297506
0.0211505
0.0212959
0.120323
0.0283581
0.022612
0.0214423
0.0215349
0.0217266
0.279989
3.35437
3.07194
0.0306247
3.77911
2.50536
0.0213641
0.0340453
0.150358
0.05093
0.0586204
0.116614
0.503172
0.0254357
0.805889
3.24894
0.0214215
0.223722
0.234568
0.64633
0.0226047
0.0648671
2.13585
0.021075
0.836468
0.0212866
0.0213885
0.0206398
0.0196591
0.0209709
3.31689
0.344055
0.0213374
0.0412714
0.0198412
1.80838
0.0383626
0.651573
3.40609
0.0213473
0.0625843
0.0273226
0.645077
0.0212045
0.019699
0.0290332
2.7764
0.0214102
2.84795
0.0470209
0.125153
6.42832
0.289248
0.289557
0.0256369
0.0207862
0.0220398
0.029267
0.0513438
2.54366
0.033889
3.59012
3.20757
0.0198516
0.0214366
3.43157
5.10638
0.213795
2.89502
0.0298162
0.0279092
0.0217766
2.40254
0.020527
0.0316688
0.0251028
0.021536
0.021268
0.02077
0.0198859
0.0891083
0.0517048
6.71441
0.0280264
0.0549637
0.032449
0.42735
0.0261429
1.00023
0.0240797
0.273625
0.0196816
0.0207483
0.0215302
0.223062
0.368407
0.12427
0.031325
9.16599
0.321941
0.0387505
0.0233268
0.0666206
0.0211861
0.42896
0.0210832
2.37618
0.420808
0.0699112
3.28144
0.0228916
0.0760003
0.414787
3.50752
0.0196537
0.0292912
0.0481501
0.0425921
0.0204786
0.021736
0.0719731
0.124524
0.0325518
1.74438
0.0213877
0.0213637
2.45691
0.0279553
0.0196595
1.60532
0.0207755
0.0232163
0.0205669
0.039763
0.0224859
0.0196932
0.0227096
3.02962
0.0213514
0.0360976
0.0208254
0.0302576
0.17033
0.0231056
0.0212582
0.0229369
0.0228995
0.6402
0.0217693
0.0428482
0.021344
0.0215472
2.56448
3.4299
0.0213781
0.0309035
0.0263018
0.419723
3.2631
0.0213723
0.330778
0.0212265
0.0790997
0.0215675
2.40824
0.0197997
3.96204
0.0797443
0.0197638
0.0308875
2.89116
0.0463115
0.297302
0.0229012
0.426344
0.0229353
0.0206461
0.0207441
0.0215481
4.07829
0.0651874
0.131501
0.399478
0.0533797
0.0198774
2.67491
0.374516
0.0256201
0.027346
0.405047
0.434004
3.46629
0.0223566
2.46454
4.08157
5.16823
0.0274841
0.0316428
0.567679
0.0916281
0.898769
0.432033
2.5501
0.0229762
2.56213
2.78712
0.0196921
0.0901041
0.0669505
4.22968
0.023124
0.021226
0.021009
0.0212387
0.0874698
0.0387151
1.4856
1.6679
0.0207738
2.7793
3.19233
0.45256
0.392117
0.035444
0.0196209
0.0207228
0.131466
2.74304
0.0227645
0.0917481
0.169368
0.0197456
0.037202
0.401595
0.187442
0.115341
3.85443
2.79627
0.0212444
0.0215486
1.40655
3.16505
0.130466
0.0337607
0.0852308
0.0196749
0.0211058
2.3634
0.0197244
0.0230367
0.0196668
0.0207916
2.84649
0.0877435
0.0293022
0.0197149
2.85898
0.427145
0.0207833
0.0208929
0.0204452
0.0219517
2.74195
0.433983
0.415721
4.98487
0.481042
0.0319934
5.81782
3.33814
0.0259587
0.0338169
0.0196163
0.0250101
0.033783
2.9852
0.800366
0.0902267
0.0281668
0.0206478
0.0319043
0.0227603
0.294114
0.0724182
0.0213364
0.0316251
0.0204804
0.0264115
0.126818
0.0216015
0.0211666
0.0384811
0.0215677
0.0800028
0.212365
0.121881
0.0323811
0.135074
0.0206306
0.133969
0.0285486
4.79254
0.0219052
0.02201
3.18595
0.023257
7.28714
3.23473
3.16566
1.57419
0.0205264
2.7046
0.0206226
0.0207878
0.0197938
0.0208012
0.0250401
0.0288575
0.0376471
0.0196965
2.51226
0.0823083
2.53351
0.0209463
0.0199554
0.0207582
0.1436
2.5081
0.0534386
0.0266891
0.0207271
0.0216406
0.0216195
0.0210905
0.18675
1.77785
0.021547
0.0196863
0.0215602
0.0210806
1.61623
2.21701
0.0325163
2.71783
0.394435
0.0211513
0.129921
3.0845
0.0353109
1.89576
0.0217902
0.0268135
0.0523801
0.0271027
0.389223
0.0213671
0.523258
0.0211929
0.030161
3.10275
0.0210734
0.0227251
0.0713845
0.0206566
0.0250271
0.678185
2.50463
0.0705673
1.19385
0.288985
0.019648
0.0209248
2.71523
0.160798
0.0464541
3.26487
0.0205855
0.0240885
0.0197068
0.512794
0.716989
0.0251934
0.0217703
0.203763
0.0239962
0.020723
2.83413
1.15484
2.92912
0.0197807
0.0215399
5.3891
3.53997
0.15225
0.0225016
3.32879
0.0213547
0.267518
0.137955
0.0745706
0.0245693
3.24059
0.0264965
0.0233144
0.255647
0.0219233
0.0241114
0.0226161
0.0206112
2.6039
0.031054
0.116635
0.028768
0.143254
0.0206713
0.680635
0.0228481
0.0264463
0.0200343
0.0211191
0.0214122
3.13409
0.0209899
0.0197311
0.608908
0.0215659
3.99506
0.0212822
0.0227566
0.0706643
1.88687
0.359163
0.0209258
0.101595
2.71831
0.0217983
3.28913
0.0298445
0.0205808
0.0298679
3.86488
0.0908184
0.0254385
0.0208906
0.0196701
0.406103
0.0840309
0.0560714
0.0261705
0.0299763
0.0220807
0.0226129
0.0912018
0.34747
0.0870471
0.790754
0.0215227
0.0801597
0.0847122
3.85508
0.0250371
2.13919
0.290893
0.0215798
6.26936
0.116382
2.56306
2.63123
2.98311
0.34748
0.0399953
0.020597
0.0285704
2.04283
3.90208
0.0212439
0.0215566
0.0671868
0.2398
0.0197769
2.92979
0.0205611
0.0213534
2.44973
5.29938
0.290774
0.0207791
0.0214026
3.02018
0.195805
0.121523
0.0238897
2.67515
0.203079
2.52151
0.0548569
0.0404101
0.0217645
0.0215597
1.21007
0.0499899
5.87961
0.0307159
0.0333947
2.63856
2.55712
3.50128
0.0214252
0.0304792
0.0207711
0.0330606
0.0226456
1.71203
0.024181
3.25443
0.0197717
0.0690668
0.0211237
0.161134
0.0325778
0.0300653
2.75596
0.043391
0.0420936
0.0224654
0.0688678
0.639376
0.0957685
0.0231133
6.49822
0.0203215
2.89049
0.343565
0.0215672
3.4639
2.68206
3.66561
0.347321
0.0296569
0.0212155
2.94005
0.0242519
0.826857
3.18307
0.0209492
0.022542
0.231494
0.384256
1.84337
0.0215106
0.0208217
1.28114
3.13088
0.115797
0.0250239
0.0231671
0.340651
2.5745
0.0875903
0.0197371
0.0405946
0.02067
0.023564
0.270084
0.02188
2.24529
0.416955
0.02136
0.0230297
0.0212405
0.0226697
6.02705
2.8977
0.0289064
2.2639
0.0211227
0.0289034
0.0211723
0.0206842
0.0215014
0.0213459
4.00066
0.0213788
0.0523956
0.0214277
0.0256076
0.278213
3.1802
0.0229452
1.44386
0.059006
0.423822
0.0317877
0.0322539
7.90142
0.0264346
0.0400993
1.70113
0.532508
3.17787
0.0397917
0.280744
0.0218206
0.0412165
0.0514664
1.93562
0.0214274
2.00815
0.0209072
0.0209641
2.43658
0.0217315
1.71093
0.0248161
0.0207577
0.0350787
0.0207712
0.0214086
0.0213722
0.0217489
0.227673
0.0209659
0.195951
2.43029
0.0609289
2.30128
0.0215429
0.0228936
0.028846
0.0212482
0.0207491
0.0807444
0.0218562
0.0208839
0.0218153
0.0213916
3.88584
1.81603
0.0789084
2.8867
0.186556
0.0211002
0.537084
0.0279854
0.0209537
0.292612
0.3263
0.472755
0.0210765
0.28334
0.36934
2.27713
0.0204203
2.50987
0.0302893
0.0237437
0.0220189
0.0205945
2.67239
0.0951272
0.621567
0.0210084
0.0213037
0.671865
0.0215842
1.60469
0.347431
0.987175
0.560621
0.279918
0.0214741
0.0212998
0.0640643
0.0305025
0.0236447
0.1552
0.0416841
0.021888
0.023033
1.91129
0.0209097
3.72329
1.56606
0.797513
0.201409
0.0222581
0.0201351
0.0216585
0.304004
0.414671
0.0204199
0.0235553
0.0209729
0.0783272
0.01984
0.020928
0.0218741
0.0323067
0.589919
0.0413186
0.0312411
0.0214713
0.052837
2.14194
0.0221463
7.86192
2.02046
0.0820981
0.0199382
0.0443327
0.0212199
0.0211887
0.0216011
5.16465
0.123048
0.341183
0.0237211
0.231337
0.0212714
0.0212411
0.0215585
0.535068
0.276343
0.0198048
0.0318977
0.0554482
3.56869
0.0230771
1.45603
0.0261766
2.74536
0.0779414
3.28629
0.0926942
0.0806873
0.218689
3.12435
0.278992
4.81608
0.0211067
0.195579
0.0198273
0.0232046
0.0258745
0.0215651
3.18087
0.0288919
0.0270161
0.347284
0.171524
0.651376
0.021359
0.023392
0.025611
0.0202079
0.0298103
1.32841
0.55377
1.12281
0.0209453
0.0265128
0.0243158
0.426376
2.93889
0.0631334
0.0201159
0.0217986
2.61108
0.0449507
2.57383
2.63035
0.0338307
0.0199219
2.20958
0.0290812
0.0435873
0.0279544
3.36392
0.307352
0.122571
0.102536
0.0221148
0.027985
0.0213625
3.51377
0.0477409
3.25828
0.246297
0.025683
0.145256
0.0224962
3.38979
0.203616
0.0208045
0.591653
3.06921
0.782353
3.17026
0.0216263
0.0213191
5.73077
2.28872
2.46023
0.0227391
0.0215551
0.021353
3.78733
0.1444
0.0217295
0.500196
0.0889834
2.7483
2.0688
0.632448
0.0214171
3.21148
0.024325
0.0212404
0.140261
2.50332
0.0216069
0.0209023
3.75961
3.30897
0.0220074
0.0209298
2.04295
0.0207366
0.130811
0.0209453
0.362686
0.0213127
0.0532614
1.1444
2.98344
0.0223415
4.03345
0.409068
2.51626
1.52481
2.70192
0.0366345
0.0211546
1.86265
0.0231508
0.0213755
0.020182
0.497359
0.0211348
0.2455
0.0209199
0.0234925
5.22728
0.0664904
2.26132
0.0226274
0.0459849
0.0207343
0.0321003
2.21968
2.52748
0.020866
0.0669152
0.325437
0.0215298
0.0206074
3.00987
0.0338463
0.0339609
0.130295
2.40987
0.355044
1.67827
3.03071
0.0383051
0.282063
0.400663
0.974328
0.0667569
0.0202141
0.128483
0.0211423
0.0211291
1.8762
3.05255
0.0228651
3.1631
0.270994
3.99661
0.524734
0.154344
0.0212067
0.304312
0.0378158
0.0209518
0.0224298
3.22293
2.87976
1.48863
3.37773
0.0372122
3.30756
3.32683
0.0315117
0.0217314
0.0210511
0.250732
0.021004
0.19149
0.0223713
0.0219664
0.0230354
2.33324
3.75336
2.66037
0.0217987
2.36454
0.0246756
0.0287968
0.0209873
0.0207904
2.00843
0.0265394
3.35743
1.20249
0.487956
0.117447
0.0214741
0.0391216
0.0215331
0.144035
0.0225883
0.0225518
0.0217263
0.0224754
0.153355
0.022022
0.0339159
0.021034
0.0345111
0.168298
5.92723
0.0210702
0.0480996
0.0214693
0.113486
0.0255028
2.5938
0.253559
0.0312796
0.023521
0.0223977
0.15846
0.0212318
0.140196
0.0214236
0.021057
0.0224684
3.02864
0.0265454
0.0242511
0.03082
0.0213041
0.0655679
2.93524
1.46659
0.035306
0.0213712
0.0323608
0.0202915
0.0211278
0.202069
3.2334
0.0211838
0.0297026
0.0928543
2.52241
0.0217694
0.021946
3.263
0.0224071
0.0407599
0.173754
3.82337
0.0213242
0.0296615
0.0212385
3.47089
0.134598
0.0412093
0.119717
2.75615
0.0222862
3.65438
2.59039
0.0215489
2.44883
0.0821669
0.0223717
2.05458
0.0215139
0.0212779
0.0205273
0.169179
0.0994943
0.159662
0.0225709
0.0222039
0.0298542
0.361737
0.202479
3.70621
0.338133
0.0219362
0.135158
0.130078
2.39042
0.0746955
0.242233
0.0210164
0.0304275
0.0206153
0.895837
0.035551
0.0212321
1.8925
0.229244
0.0317358
0.025938
0.0197236
0.0212296
0.052083
0.0333778
0.68386
0.0667757
0.0665689
0.0584441
0.115726
2.53396
0.111425
3.64779
0.0210873
0.0208802
0.223429
3.03621
2.76008
0.101827
0.022717
5.79651
0.332479
0.0211154
0.0260365
0.0208231
0.0412364
0.0708867
0.0457313
2.48353
0.219907
0.022478
2.53582
6.5917
0.021414
0.0793366
2.66555
2.48288
0.0235723
0.0761155
0.01963
0.0230915
0.0209589
0.0248596
3.63581
2.77073
2.56334
5.35824
0.0224768
0.0329617
0.0522623
0.0209293
0.0219144
0.0206041
2.99259
0.0209675
3.47228
0.0353695
0.0519868
0.150243
0.228153
4.7755
2.73097
0.0404205
0.0198671
0.0231746
2.47216
1.29005
0.0244621
0.0207907
0.0206322
0.0630412
0.0296484
0.145458
2.68722
0.0224544
0.0205505
0.124663
0.0306494
6.46547
0.99543
0.0209413
0.0722353
0.0215006
3.71406
0.0199853
3.30989
0.0209649
0.0223915
0.0304355
0.0219364
0.0900759
0.0294891
0.0471481
2.12929
2.88502
0.0249088
0.0293023
0.0211989
2.61677
2.37004
0.0218936
0.0200249
0.315948
0.0196614
3.95904
0.0213604
0.0335808
0.0696297
1.13738
0.0370686
0.0225874
0.0215795
0.0712405
3.26849
0.0211548
0.706724
3.21146
0.932176
0.800345
0.0324429
3.71491
0.0252622
0.299082
0.0212726
0.343465
0.342193
2.59426
2.67609
2.52727
0.0218668
0.0369939
0.0208965
8.40501
0.288394
3.14245
2.06677
0.0263939
2.61327
0.879362
0.0336756
0.0225351
0.0215909
3.45122
0.025177
0.0708594
0.0236128
0.021571
0.0206842
0.0214984
2.77528
0.225992
0.0303316
2.67716
1.75581
0.0214069
0.0213034
0.0205908
0.0286969
3.28782
0.229037
0.0251
0.0246973
0.170298
0.0777772
0.0443776
4.11155
0.0295493
3.5526
0.0300692
0.0287704
0.0212811
0.0235337
0.0705258
0.344314
0.325615
3.25702
0.0702267
2.84952
0.0244888
0.0240922
0.021374
2.48327
3.17672
0.436336
0.336127
0.0233163
0.0213769
0.0210869
0.02142
0.0206245
3.57333
0.0285386
3.32394
0.0312511
2.58976
2.41819
3.32751
0.0313171
0.0256487
2.40241
0.0379037
0.429045
3.43536
0.0206323
0.174756
0.0267234
3.32014
3.11676
0.0336743
0.604299
0.427542
0.0232489
0.0527714
0.024053
3.98492
0.337138
0.0237076
0.0215745
0.345432
1.10567
0.128028
0.339488
0.128403
0.0293901
0.0212408
2.1488
3.2403
0.078518
0.0305382
2.82757
2.3164
0.020915
0.0214024
0.0239221
3.19708
3.05683
0.0213369
4.32522
0.0219729
0.0210728
0.0215371
6.38002
0.423972
0.030256
2.87735
0.0226638
0.0225127
0.0209804
3.34594
0.0222618
2.9869
0.0235714
1.4692
0.0217813
0.0211424
0.12289
3.55657
0.305077
0.0347751
2.43414
0.0201708
0.0214803
0.0214119
0.0438445
0.0648111
0.0648482
0.0357768
3.22702
0.0240985
0.124046
0.10767
2.53205
0.0215304
3.46317
3.16307
0.0248713
0.392023
0.0667353
2.53657
0.0215612
0.0664393
0.0212013
0.314969
7.5415
0.0770089
3.43554
0.023192
0.0494598
0.0222781
3.98727
0.0199197
0.0208072
0.575121
0.0891402
2.83247
2.18765
0.0654571
0.0279624
0.0205086
1.33783
0.0296123
0.0209927
0.147659
0.0211231
0.0432474
0.0213688
0.927978
0.0226316
0.27368
0.271093
0.0301717
0.611288
0.0535299
3.7435
0.0212909
1.22231
1.91539
0.0207311
0.0213515
0.0226527
0.0218077
0.0387733
0.0212667
0.488665
0.077059
0.271667
0.14583
0.0214603
0.0218012
0.0205134
2.91846
0.0214981
0.021258
0.1947
0.0237257
1.47421
3.42841
0.0903394
0.0238158
0.0326959
0.022461
0.0219583
0.0608906
0.020075
0.0238433
2.1727
3.40084
0.51366
0.0224097
2.41712
0.528906
0.0218265
0.210091
3.09732
0.0213515
0.0233566
0.0213119
3.04179
3.13554
0.541768
0.0200616
0.0237267
0.0233914
0.0215736
0.129419
0.0214961
0.108806
2.84811
3.55822
0.0206179
0.0236942
0.0233707
3.86419
0.0197191
2.90358
2.17342
0.159683
0.610872
3.01545
2.60051
0.0228001
0.490774
0.516829
0.02229
0.0204875
0.0208808
3.4015
2.49115
2.60906
0.0211493
3.58701
0.0215433
0.151173
0.0204658
0.0229464
0.0222231
0.0206056
3.33324
0.0223595
1.82076
2.34307
2.85107
0.0462779
0.0528449
3.09062
3.22465
0.0219236
4.36288
0.0205213
0.0197015
0.0212933
0.0812584
0.0206893
2.1609
0.0289412
0.0411787
0.0367744
2.08636
2.44408
0.0852224
0.020579
0.0532422
0.075094
3.34659
0.0215651
0.0199389
0.0229476
1.95514
0.0216306
0.175832
2.09425
0.0411818
0.0604394
0.0215818
0.29323
0.0217377
3.32371
0.0202635
2.98207
0.0311003
0.021496
2.13454
2.68869
0.0201869
0.067057
0.0241798
2.5161
0.0284915
0.125988
0.0362631
0.0217375
0.0529723
2.6672
0.021023
0.081815
0.0232373
0.0779514
0.0320851
2.14962
3.09967
0.0215079
3.50125
0.0222804
0.0437873
2.9271
2.10978
0.034882
3.09191
0.192102
0.0215865
0.155117
0.131907
0.0305319
0.0223072
2.61453
0.0202162
3.45352
0.0299638
0.110609
0.0213495
0.0301823
3.29921
0.0443001
2.53174
0.0219837
0.0235394
0.0879695
2.67806
0.0258943
3.26112
0.862705
2.22892
0.0215487
2.64553
1.81092
3.42894
0.0213947
0.0226248
0.0213153
3.3579
0.0267302
0.307269
0.185535
0.0217577
0.0202501
0.0213658
3.53981
2.31074
2.54289
2.57533
0.0209673
2.69195
3.22461
0.132754
2.39609
3.15107
0.0341604
4.12434
0.0232007
0.0255335
2.89479
2.58028
0.0226534
3.11428
0.0216981
0.0213915
2.73207
3.15501
3.63011
8.9592
0.0303513
0.0217657
0.0231964
3.32605
2.61093
0.0211672
0.0470468
0.432324
0.0214238
0.0214906
2.99624
3.02741
0.02279
0.0214306
0.0222157
0.0223897
0.333769
0.0217892
0.0212674
0.0252624
0.161795
3.11232
0.725178
2.5309
0.0215182
0.0243264
2.94507
3.24971
0.027562
0.1557
0.02133
0.0353413
0.0225976
0.024003
0.0662233
0.0211829
0.793244
0.0317848
0.0209141
0.0240294
2.02559
1.81162
3.64563
0.0214356
0.0246357
3.34933
0.548055
0.0238287
0.0214806
0.0214773
0.272285
0.0215033
0.0219882
0.0273786
0.021339
2.98485
0.294133
0.0217188
0.0238773
0.0200056
0.0214909
1.33351
0.53197
0.0709464
2.32811
0.0743509
0.0218252
0.0213107
0.0214908
0.0212784
0.0217037
0.0239214
0.0696279
2.88119
0.0227727
0.109857
3.53731
0.0343384
0.0212171
0.0208236
0.0233212
2.68648
0.0212337
1.1736
0.213474
0.0484596
0.0221183
6.36554
0.0200496
0.0866266
0.0203991
0.020075
0.0216775
0.0209005
0.0411216
2.537
0.64426
0.0379683
2.10923
0.481216
0.699016
0.0314991
3.16611
2.2966
0.107878
2.56317
3.04922
0.11594
0.227949
0.0217997
0.0206935
1.53913
0.0210243
0.0239694
2.62567
0.0429931
1.82055
0.252017
0.0208116
0.0236606
0.0214675
0.0842912
0.0204338
0.0902903
2.82426
2.92323
0.917172
0.0214598
0.020247
0.0728595
3.08462
3.02497
0.118483
0.595686
0.0208814
1.04272
3.67084
0.0605219
0.0235072
0.0214845
0.0200973
0.0230008
0.0214201
0.021319
0.0237629
2.98846
0.0773822
3.31794
0.309721
0.925189
0.171808
0.0212664
0.0209229
0.0222544
0.0205266
0.0217685
0.520279
2.45134
0.326175
3.55327
0.0232943
2.61908
0.136594
3.29464
3.37749
0.0214578
0.0208939
0.30994
0.0214526
0.0202
0.290401
3.00482
1.59407
0.0213855
0.0214948
0.02403
0.0372072
2.05276
0.0205423
0.0237699
0.284377
0.0206152
0.31061
0.036651
2.44136
0.0217571
0.212556
2.89702
0.0344088
3.27663
0.113503
3.4063
0.0200136
0.0247304
0.0208749
0.0291066
5.4413
0.0212899
2.06482
0.0220632
0.0216379
0.0214415
3.4607
0.0442282
0.11219
0.393892
0.0206577
0.0425257
2.0926
0.0534133
0.0207363
0.0230591
0.0214509
0.0479767
0.0214041
0.0209917
3.5868
3.61092
3.34272
0.874925
0.358856
2.40593
0.0715098
3.67137
0.124619
0.0199634
0.0209366
0.0196743
0.0215753
3.37527
3.33184
0.0203038
2.24569
3.4594
0.0292073
0.0226569
0.024639
2.5684
2.93549
3.03091
1.5686
3.04674
0.019675
0.192459
0.101269
0.219947
2.99175
0.0213302
0.132116
2.16895
0.0317911
2.57792
0.0217264
0.104659
2.26641
3.2139
0.0761646
0.0305742
5.28872
0.13379
3.26715
3.30011
2.96433
0.11561
2.53819
0.0215091
0.0251762
0.0471702
4.199
0.321321
3.52788
0.0222786
0.116623
0.0675945
0.0224309
3.09831
0.0213508
0.131859
3.93714
0.0213611
2.45217
2.62156
3.29281
2.58902
0.586183
0.484268
0.0211413
3.42289
0.0219516
0.0209203
0.0412162
0.0236407
3.23751
0.0238532
0.0247435
0.023863
0.0208969
2.39203
0.0227193
0.118988
0.129498
0.0206191
3.8331
0.101418
0.0228051
2.36168
0.19589
0.0213486
0.75581
0.0219842
3.43717
0.32954
0.0203376
0.119731
0.022788
3.52032
3.09216
0.0728162
1.10213
0.0253104
0.0214838
2.63398
0.0239046
0.0213264
1.55264
0.0410413
0.020883
0.0208963
0.13011
0.0225914
3.86596
0.19812
0.0386168
2.51925
0.0535199
0.0627785
0.021194
3.56486
6.34424
3.06691
0.0213991
0.0202225
0.0723137
0.0297913
0.400304
0.0213553
0.457928
0.0213367
0.148207
0.0219461
0.0459603
0.163339
0.11669
3.65226
1.24024
3.05024
3.07722
0.0197061
0.544836
0.639491
4.60601
0.0211285
0.173462
6.02323
2.86261
0.11872
0.403974
0.78308
3.65904
0.0461685
0.193176
0.0205921
0.0475556
0.0432541
0.0213157
0.0709078
2.71877
0.204899
2.88584
0.778281
0.0211591
0.0208575
0.0295277
0.0213218
0.960891
0.0205758
0.0208365
3.80318
0.225563
0.0331633
0.102242
0.0225813
0.0858369
2.38292
3.18436
2.24384
0.0254236
3.14306
0.022908
0.0205377
0.0231469
3.22757
0.23294
0.187754
0.225122
0.0222352
0.0209019
0.0213215
0.0218172
0.0263541
2.53183
0.812256
0.0281982
3.14308
3.90295
0.503006
6.20944
0.0214161
0.0293497
0.188014
0.0214026
0.0328182
0.0264675
0.0237823
2.51407
3.2096
0.0205681
0.0400664
0.0291368
0.0691803
3.58633
2.34611
3.60058
0.0216726
0.0840773
3.51641
0.0827273
0.119052
0.262345
2.58542
3.74565
3.66333
0.0205399
2.50105
0.0202907
0.0228818
0.0213291
0.060765
3.71013
6.66606
0.480566
2.7942
0.0568677
0.020143
0.020808
0.0214938
0.0232849
0.0439475
3.69159
3.55573
0.0783316
0.300149
0.0215869
0.0564975
0.0206702
3.27176
0.0704788
0.0215921
0.143629
0.102718
2.08955
3.71837
0.130718
4.22586
0.0244447
3.18441
0.20717
2.90384
0.292975
0.0227802
0.0560267
0.0214649
2.92891
2.63907
0.0399138
2.98801
0.198743
2.53194
0.0668821
0.221176
0.0416041
0.0208934
0.123906
0.0579041
0.0239759
0.0556469
0.03041
0.0318825
2.19524
0.155225
0.0229132
0.0296134
0.0361322
0.0312202
0.0229315
2.19168
0.110636
0.0669722
3.99844
0.021381
3.28843
0.0214596
0.0239708
0.0232087
3.2255
0.0368025
3.33444
5.7048
0.0600628
0.049787
0.12063
1.8045
0.137348
1.06391
0.024412
0.0462144
0.0209942
3.34552
0.35359
0.0243885
0.0213327
0.0360148
0.025741
0.024062
0.0496718
0.040043
0.0215714
0.0331513
4.0881
2.70962
0.114368
0.041184
0.019807
1.80943
0.0321002
0.0652556
0.143787
0.0436209
2.0029
0.0202306
0.0242898
0.0239088
0.032453
0.0211998
3.45028
0.0932526
2.04224
0.0363268
3.19073
0.226787
0.0255148
1.76997
0.0666944
0.224293
2.77336
0.0466132
0.0238137
0.0410553
0.0676417
0.0244479
0.297928
3.90498
0.30908
0.0208999
0.230337
0.672482
1.7039
0.0212595
0.044319
0.0212276
0.029998
2.37896
0.0287921
0.0285332
0.0208934
0.0208641
1.95168
3.16481
0.0213571
2.1031
0.22083
0.0201542
0.0246079
3.38167
0.115244
0.103339
0.0213682
0.0267431
0.108398
0.0215036
0.0210708
2.7472
0.0288822
3.41324
0.0843941
0.02591
3.68788
0.1206
0.150371
0.0209333
0.426846
0.0299244
0.0262785
1.52581
0.0404201
0.0215226
0.0850954
0.0242628
0.0255408
0.0201007
0.729852
0.0213469
0.0643334
1.78773
0.100814
0.0209333
0.282994
0.0305454
4.45734
0.195627
3.55984
0.109357
3.19791
0.020699
0.0766493
0.0253136
0.0211237
0.402621
2.45613
0.0248821
0.104699
0.0244345
0.0722061
3.62198
0.0258174
0.358929
0.570468
3.12146
1.87874
0.1798
0.0417707
0.0207932
0.0666467
0.0346252
0.322298
1.92191
3.25357
2.3789
3.408
0.0208365
0.206154
0.0213967
0.0223455
0.0215346
0.39358
0.155718
0.0753587
0.0210431
9.76581
0.0269696
3.70583
0.0209313
0.0607504
0.0301213
0.0709843
0.0419807
0.104152
0.0227115
0.167609
0.143508
0.0209566
2.50789
0.226901
0.0584297
0.0226687
0.0295276
0.0215938
0.0210891
0.0653787
0.0273585
2.37821
0.213311
0.0854341
0.159546
0.0211283
1.17889
0.0651308
2.42058
0.0298167
0.0303074
0.428284
0.0308106
0.0440235
0.138658
4.44831
0.0232477
0.0216016
3.03902
0.031537
0.023461
0.026955
0.0294303
0.0205094
0.026069
3.3788
0.0216165
0.0420006
3.3267
0.113791
0.0716019
0.552074
1.51881
3.52964
2.61747
1.40994
0.0552625
1.16212
0.0225814
0.0247337
0.0214758
0.0209923
2.08733
0.423742
0.0312606
0.0207719
0.294326
0.0916814
0.0213319
0.0562907
0.052787
0.0212139
0.0228562
1.72935
0.0263522
0.0375988
0.0360627
0.0214781
0.0813877
0.0651428
0.0290448
1.0958
0.0783074
1.87678
0.161386
3.0373
0.0236015
3.40573
0.15392
0.148753
0.0663347
1.8826
0.0752275
0.0259687
0.0497651
0.0668139
0.0233861
0.0687935
0.0210913
0.0212513
0.0200846
0.0242323
3.39565
0.0203957
0.1048
0.0241049
0.0235835
0.0239849
0.414421
0.0232623
0.0613587
0.0215063
0.0241061
0.0246532
0.0208028
0.109474
0.0234537
0.0205479
0.0222454
0.0284012
0.021014
2.02154
0.02685
3.09406
0.136159
2.93302
0.0595061
0.0689164
0.0412013
0.0405967
0.0254327
0.025011
1.67856
2.90119
0.140021
0.0606912
0.0315137
0.0212749
2.54218
0.0389948
3.19434
0.0217517
0.903644
0.144954
1.26586
1.42973
0.020073
0.0214102
0.0203406
0.0288993
2.96593
0.0468694
0.892996
0.0254991
0.0288941
0.0210102
0.0218111
0.0332012
0.0234989
0.0237358
0.0209045
0.202595
0.103074
2.94146
0.0247311
0.27367
0.020772
0.0202299
0.105413
0.0218829
0.0239487
0.0649893
0.0239233
0.0690394
0.0214167
0.0248183
0.0215229
0.0242235
3.32226
0.0212993
0.0234238
0.0225206
0.0236334
0.799128
0.0217493
0.0496979
1.66979
0.0243496
0.0291828
0.0223672
0.0236791
0.021745
0.133351
0.0214346
0.0261941
2.78574
0.0208822
0.0287284
0.049893
0.0589761
2.76828
0.020051
0.023575
0.0225485
0.0301235
0.103062
0.277958
3.64812
0.0202634
0.0278953
0.0739019
0.0240573
1.1038
0.0199533
0.0215528
2.08849
0.0403904
0.023522
0.0200063
0.121918
0.132361
2.29658
0.0215541
0.293607
0.0199838
0.020566
0.0233684
0.0781364
3.76465
0.0215046
0.0209413
0.0853751
0.0214421
0.0231396
0.192621
3.06961
0.0214309
0.0205347
0.0223099
0.0307254
0.194169
3.24366
0.0218155
0.105908
0.0213824
0.0213433
2.55309
0.023401
0.0217825
0.030134
0.195426
0.133647
0.0232278
0.0221191
2.14855
0.0404697
0.022302
0.142027
2.91705
0.0214599
0.0217019
0.0230943
0.0213591
0.0214507
0.020952
0.0201885
0.0388373
0.0230089
0.0455048
0.0477054
1.95287
0.659071
0.0302525
0.0200333
0.0213596
0.0221528
0.0230573
0.0404172
0.02842
0.567302
0.0234077
0.0855374
0.02399
4.45576
2.06352
0.028239
0.0230931
0.123124
0.0236521
0.0274353
0.0213852
0.02226
0.02111
0.054618
0.0457407
0.051967
0.106637
0.0230326
0.0260079
0.0221921
3.29394
2.34697
0.419746
0.0265772
0.0950774
0.0859228
2.98997
0.0219012
0.227096
0.0647981
0.0213922
0.0217717
2.19324
0.0214852
0.0223202
0.0231749
1.239
0.021471
0.0217181
0.0252113
2.17145
0.0210099
0.0508564
1.04537
0.0234417
0.0214938
0.0211561
0.0214149
0.0217416
0.0216848
0.0387757
0.0228799
0.0214763
0.021692
0.0217112
0.0281432
0.0213672
0.272649
0.0215415
0.0216784
0.0372631
0.0554555
0.0264542
2.2848
1.16182
3.34598
0.0375819
0.0209376
0.0401951
2.44056
0.0201674
0.250897
0.0240057
0.840493
0.0230412
0.0435436
0.0217356
0.021381
0.114722
0.237696
1.67618
0.222288
3.42182
0.0217046
0.0210123
2.24166
0.0201396
0.0214821
3.14112
0.0210125
2.02432
0.0214347
0.164319
0.107324
0.0235972
0.214341
0.0248772
0.0760766
1.22542
1.26421
1.30637
2.81867
0.36907
2.54393
0.0215285
2.34774
0.0214462
0.0213075
0.0210976
0.0218487
0.613465
0.0223217
3.90356
0.0214794
0.0213733
0.0215534
0.15156
0.0218531
0.0208518
0.0539445
0.0250164
0.0258413
0.0250454
0.0278856
0.199979
1.71928
1.16317
0.203067
0.0975323
0.0222976
0.301211
0.0214444
0.0283513
0.0759705
2.61659
0.0457014
3.3931
0.0214553
0.68949
2.47548
0.146962
3.55981
0.241524
0.0234533
0.0213173
0.0237497
0.0214383
0.0213021
2.72977
2.68651
0.0210711
1.24026
0.0214121
0.107996
0.0209949
0.160939
0.0283648
0.0232923
0.0208892
0.240815
1.18424
0.359795
0.0206318
0.020691
0.0260479
0.0221264
0.0221803
1.25381
0.950617
0.0469587
0.966391
0.044144
0.0217603
0.031057
0.08616
0.0218391
3.09195
0.0550445
0.279219
0.022921
0.0240193
0.0202533
0.0197139
0.0213651
0.0260257
0.0207932
2.06337
0.0392325
0.48006
0.0212621
0.0440146
0.0214302
0.642839
0.0409866
0.0541647
3.02462
0.0255216
0.0213273
0.0245801
0.0217781
3.04674
0.175517
0.0430819
0.054644
3.44581
2.5132
0.108796
0.0495778
0.0213901
0.0228762
0.0231152
0.035976
1.10725
0.0258373
0.0215244
0.501805
0.206593
0.0217275
0.0232312
0.0553629
0.0222152
0.0209895
0.0419719
0.0213954
0.021839
0.020943
0.0234183
0.0219843
0.0503186
2.0275
0.0214573
0.265274
0.0975033
0.108754
0.0209335
0.0216985
0.0295547
0.0258631
0.0214281
0.175002
0.0213334
0.0501056
0.021559
0.0440223
1.75806
0.0537752
0.0224455
0.0589078
1.27143
1.10375
0.0214258
0.0354553
2.79611
0.0212762
0.0222141
0.0785562
9.07319
3.35706
0.0236399
0.0213293
0.0304495
0.0212419
0.0222685
0.0275138
0.021727
3.49264
0.0217586
1.05104
0.0214329
0.0214608
0.0587341
0.0213637
0.0215319
0.0276365
0.759677
0.0205781
0.0415728
0.021828
0.0212251
0.0217539
0.0276166
0.0253473
0.0692923
0.0229571
0.0217111
0.0217891
0.0384575
0.0223248
3.50462
0.0219574
0.109727
0.0331938
0.023161
0.027159
0.761636
0.0214854
0.0220004
0.0199722
0.0778661
0.346204
0.0217923
0.0369603
0.0209586
0.0356825
0.0214437
0.212822
1.46654
0.0233198
0.0252227
0.0267444
0.0318946
0.0222444
0.0207511
0.047482
0.0214054
0.0218962
0.0213366
0.0214561
0.0213175
0.0209143