/*--------------------------------*- C++ -*----------------------------------*\
| =========                 |                                                 |
| \\      /  F ield         | OpenFOAM: The Open Source CFD Toolbox           |
|  \\    /   O peration     | Version:  v2012                                 |
|   \\  /    A nd           | Website:  www.openfoam.com                      |
|    \\/     M anipulation  |                                                 |
\*---------------------------------------------------------------------------*/
FoamFile
{
    version     2.0;
    format      ascii;
    class       volScalarField;
    location    "700";
    object      omega;
}
// * * * * * * * * * * * * * * * * * * * * * * * * * * * * * * * * * * * * * //

dimensions      [0 0 -1 0 0 0 0];


internalField   nonuniform List<scalar> 
13851
(
0.0232288
1.37358
0.0783522
0.0229591
0.0790942
0.0502171
0.0216012
0.0457793
0.0207003
0.0920994
0.279647
1.83286
2.49397
2.44689
0.0214058
0.0323235
0.0244549
0.027721
0.538681
0.0206928
0.0228073
0.0759752
0.0211939
0.0223449
0.0213602
0.0465297
0.0238793
7.39703
0.023057
0.0237664
0.105977
0.0247508
0.0748121
0.360013
0.0223558
0.170621
0.260385
0.177463
0.102496
0.397434
0.0212839
0.0197509
4.93135
0.277481
0.284358
3.93508
0.280294
0.664961
0.0240942
0.0499729
0.0728699
0.132442
3.23008
0.0215598
0.0225269
0.0197575
0.0211724
2.008
0.0235637
0.0216263
0.17339
2.50248
0.0583886
0.0916027
0.126227
0.0247005
0.557084
0.268987
0.0333735
0.0275125
7.4834
2.31789
1.27657
0.0216692
0.0210175
0.0209538
0.0727402
5.32064
0.0468479
6.84812
0.0218062
0.248959
0.0213411
3.25378
0.0652353
1.93214
0.0440716
1.62092
0.0249646
0.0207942
0.171078
0.0380241
0.269197
0.027123
0.024764
0.0219122
0.0809096
2.7786
0.0800523
0.0219055
2.56182
0.0501685
0.0220502
0.0236652
0.0211651
0.057693
0.0556437
0.0196587
3.3449
0.0587436
0.022312
0.0208625
0.032546
0.0229013
0.0223208
0.827082
2.82886
0.0196835
0.023074
0.0229936
5.38203
0.0235414
2.52602
0.486201
0.680204
0.022736
0.671656
0.0486378
0.0226477
0.131103
0.021267
0.0207244
6.0731
0.0213432
0.822495
0.0209089
0.0196939
2.21332
2.71709
2.31196
2.52384
0.0224896
0.0228543
0.0200442
0.022966
0.274337
0.0467947
0.131745
0.0215865
0.283174
0.076946
0.022555
2.50901
0.0212116
0.0226837
0.0228793
0.0210325
0.0228161
0.131941
0.0717972
0.0198318
0.0271598
2.022
0.0207093
0.0271596
0.0198966
0.0572749
0.0338552
0.0225328
3.87823
6.54637
0.0203948
0.0210492
2.32312
0.020699
0.651976
0.0470374
0.0227638
0.584355
0.019679
0.0254645
2.59708
0.021344
0.0816389
0.019791
0.0213234
0.0248425
0.0218526
0.089172
0.0844113
0.27165
2.53642
0.0210671
0.03342
2.50265
0.0225469
0.0225845
0.430234
0.0225654
0.0209895
0.0230018
5.48864
0.0241665
0.0212382
0.0689333
0.021354
2.75067
0.0246011
3.17151
0.0197179
3.46349
0.0219705
0.385811
0.0196339
0.0199802
0.283133
0.0581101
3.58743
0.0213439
3.12545
0.0247588
0.0218443
3.13185
0.127787
3.5239
0.0214378
0.0290393
0.021364
2.16277
0.0196371
0.0451262
0.238671
0.0203868
0.0209832
0.0651111
0.0430563
2.768
0.132584
0.020031
0.021249
0.12459
0.423373
0.020372
0.0750678
0.0208277
3.31849
0.0514472
0.43315
0.0229592
0.0252807
0.0274613
0.424833
0.0218157
0.0230436
0.0519964
1.02537
0.0812898
2.34108
23.2994
0.0214295
0.0199939
0.0265514
0.749831
0.0203917
1.73982
0.0225346
0.0217861
0.0266347
3.13397
0.0380184
0.0273369
0.0226761
0.3001
0.0442901
0.0314477
0.0207352
0.247927
0.109863
3.78678
0.279583
0.0203675
0.0196785
0.0211187
0.0497389
0.777446
0.627111
0.0208226
0.021439
0.408462
0.256556
0.149479
0.0232854
0.0216324
0.0358495
0.253917
1.4221
0.0265853
1.92027
0.0207574
3.35302
0.0267753
0.024319
3.73949
0.0215535
0.0683372
3.17173
0.0207982
0.0430791
0.0272411
0.0230982
2.85892
0.0267645
0.0217627
3.02911
0.0197948
0.025509
0.0256434
3.82965
0.123316
0.0213434
0.0519371
0.021376
10.6427
0.0297578
0.0211503
0.0212956
0.120354
0.0283607
0.0226124
0.0214423
0.0215348
0.0217267
0.279808
3.36421
3.08135
0.0306322
3.7795
2.50349
0.0213641
0.0340497
0.150364
0.0511882
0.0585512
0.116638
0.504027
0.025439
0.804496
3.24879
0.0214215
0.222762
0.233944
0.636662
0.022605
0.0647385
2.13423
0.0210749
0.834813
0.0212863
0.0213885
0.0206394
0.019659
0.0209708
3.31679
0.344711
0.0213374
0.0412778
0.0198411
1.80572
0.0383654
0.651084
3.41647
0.0213473
0.062698
0.0273247
0.644586
0.0212044
0.019699
0.0290454
2.78137
0.0214102
2.84415
0.0472285
0.125181
6.44647
0.289235
0.289503
0.0256312
0.0207861
0.0220398
0.0292727
0.0513519
2.54191
0.0338936
3.59034
3.20739
0.0198514
0.0214366
3.4462
5.1065
0.206414
2.89513
0.0298318
0.0279116
0.0217772
2.40079
0.020527
0.0316716
0.0251001
0.021536
0.0212674
0.0207699
0.0198857
0.0891175
0.051675
6.71853
0.02803
0.0549731
0.0324371
0.427293
0.0261441
0.992141
0.0240805
0.274297
0.0196816
0.0207483
0.0215304
0.222768
0.366956
0.124282
0.031314
9.17134
0.319127
0.0388272
0.0233262
0.0666335
0.0211861
0.428787
0.0210827
2.3743
0.420438
0.0699256
3.2815
0.0228911
0.0765828
0.414163
3.52873
0.0196537
0.0292941
0.0481568
0.0427946
0.0204787
0.0217361
0.0719916
0.124552
0.0325587
1.74584
0.0213877
0.0213634
2.45661
0.027956
0.0196594
1.60684
0.0207755
0.0232158
0.0205669
0.0397581
0.0224862
0.0196931
0.0227089
3.02968
0.0213514
0.0361027
0.0208254
0.0302761
0.171958
0.0231063
0.021258
0.0229376
0.0229003
0.638784
0.0217694
0.0429073
0.021344
0.0215476
2.56601
3.43004
0.0213781
0.0309187
0.026303
0.419352
3.24801
0.021372
0.331364
0.0212264
0.0791062
0.0215675
2.40342
0.0197996
3.96438
0.0797762
0.0197637
0.0309001
2.89398
0.0463203
0.297053
0.022901
0.423218
0.0229349
0.020646
0.0207441
0.0215481
4.07831
0.0651975
0.13153
0.399666
0.0534497
0.0198774
2.6752
0.373377
0.0256214
0.0273483
0.404453
0.433708
3.46631
0.0223564
2.45931
4.0537
5.15007
0.0274849
0.0316446
0.569961
0.0922941
0.909266
0.43261
2.54845
0.0229767
2.55965
2.78593
0.0196921
0.0908343
0.0669612
4.23011
0.0231245
0.021226
0.0210088
0.0212387
0.0874767
0.0387075
1.48963
1.67005
0.0207737
2.78093
3.19253
0.448343
0.390978
0.035449
0.0196208
0.0207228
0.132354
2.74322
0.0227649
0.091773
0.169379
0.0197455
0.0372064
0.404461
0.186859
0.115361
3.85445
2.79473
0.0212444
0.0215486
1.405
3.16485
0.130503
0.0337653
0.0853176
0.0196748
0.0211058
2.36077
0.0197243
0.0230372
0.0196668
0.0207916
2.84549
0.0877514
0.0292938
0.0197148
2.85268
0.427792
0.0207833
0.0208932
0.0204454
0.0219517
2.74584
0.4341
0.417126
4.96935
0.47846
0.0319974
5.81865
3.3382
0.0259633
0.0338213
0.0196162
0.0249896
0.0337871
2.98543
0.799337
0.0902505
0.0281692
0.0206478
0.0319062
0.0227601
0.293668
0.0724275
0.0213364
0.0316326
0.0204804
0.0264134
0.126834
0.0216016
0.0211666
0.0384855
0.0215677
0.0800074
0.212469
0.121897
0.0323826
0.135113
0.0206306
0.130436
0.0285511
4.7693
0.021905
0.0220107
3.18462
0.0232575
7.29758
3.2346
3.15237
1.5749
0.0205264
2.7021
0.0206245
0.0207878
0.0197937
0.0208012
0.0250909
0.0288625
0.0376425
0.0196964
2.51019
0.082341
2.53135
0.0209462
0.0199552
0.0207579
0.143621
2.50612
0.0534504
0.026691
0.0207294
0.0216412
0.0216195
0.0210903
0.186868
1.77556
0.0215471
0.0196862
0.0215602
0.0210805
1.60562
2.21631
0.0325188
2.71861
0.393088
0.0211512
0.129948
3.09597
0.0353158
1.89398
0.0217903
0.0268163
0.0523907
0.0271055
0.391008
0.0213671
0.525167
0.0211923
0.0301647
3.1027
0.0210735
0.0227253
0.0714013
0.0206566
0.0250282
0.672865
2.50041
0.0705795
1.19562
0.289081
0.0196479
0.0209247
2.71604
0.160817
0.0464468
3.26475
0.0205856
0.0240884
0.0197068
0.510612
0.714957
0.0251943
0.0217701
0.205358
0.0239971
0.0207228
2.83703
1.15483
2.92917
0.0197806
0.02154
5.38994
3.5317
0.152286
0.0225014
3.32837
0.0213547
0.268804
0.13793
0.0745807
0.0245702
3.22679
0.0264932
0.0233157
0.255372
0.021924
0.0241104
0.0226165
0.0206112
2.60396
0.0310574
0.116657
0.0287644
0.144458
0.0206713
0.675105
0.0228483
0.0264406
0.0200341
0.0211191
0.0214121
3.13388
0.0209898
0.0197311
0.615914
0.021566
3.99553
0.0212817
0.0227561
0.0706801
1.88084
0.359036
0.0209258
0.097566
2.71889
0.0217984
3.28906
0.029848
0.0205808
0.0298744
3.87045
0.0888655
0.0254394
0.0208906
0.01967
0.405297
0.0840434
0.0560655
0.0261714
0.0299696
0.0220806
0.0226126
0.0912281
0.346975
0.0870539
0.789591
0.0215227
0.0801648
0.0847283
3.85546
0.025038
2.1443
0.290998
0.0215798
6.23807
0.114673
2.5622
2.62679
2.98301
0.347386
0.0400018
0.020597
0.0285751
2.04267
3.8804
0.0212437
0.0215569
0.0671983
0.239363
0.0197768
2.92799
0.0205612
0.0213534
2.44842
5.30027
0.290917
0.0207791
0.0214026
3.01599
0.195899
0.121553
0.0238902
2.6777
0.202456
2.5196
0.0548651
0.0404166
0.0217646
0.0215597
1.21098
0.0500001
5.87988
0.030733
0.0333991
2.6378
2.55646
3.50168
0.0214252
0.0304828
0.0207711
0.0330629
0.0226457
1.71117
0.0241807
3.2545
0.0197716
0.0690812
0.0211237
0.161101
0.0325819
0.0300687
2.75659
0.0433987
0.0420864
0.0224661
0.0688813
0.638175
0.0950771
0.0231138
6.49945
0.0203216
2.88803
0.343808
0.0215673
3.46394
2.68487
3.66595
0.347209
0.0296687
0.0212153
2.94018
0.0242516
0.826722
3.18304
0.0209491
0.0225424
0.231307
0.385488
1.84559
0.0215107
0.0208219
1.28042
3.13084
0.115817
0.0250248
0.0231669
0.340843
2.56803
0.0876053
0.0197371
0.040602
0.0206699
0.0235634
0.269785
0.0218805
2.24012
0.41781
0.02136
0.023029
0.0212402
0.0226701
6.02763
2.90126
0.0289092
2.26899
0.0211227
0.0289062
0.0211722
0.0206842
0.0215014
0.0213459
4.00087
0.0213787
0.0524056
0.0214277
0.0256086
0.277917
3.17254
0.0229451
1.44268
0.059001
0.423504
0.0317912
0.0322578
7.90211
0.0264365
0.0400893
1.70012
0.52467
3.17805
0.0397982
0.280862
0.0218204
0.0412231
0.0514734
1.93938
0.0214275
2.00757
0.0209071
0.020964
2.43497
0.0217271
1.71296
0.024817
0.0207577
0.0350692
0.0207712
0.0214085
0.0213794
0.021749
0.227891
0.0209658
0.196037
2.42554
0.0609469
2.29741
0.0215429
0.0228938
0.0288127
0.0212482
0.020749
0.0807607
0.0218563
0.0208838
0.0218151
0.0213914
3.88652
1.81361
0.0783569
2.88683
0.186806
0.0211001
0.537118
0.0279877
0.0209536
0.292051
0.3243
0.476122
0.0210765
0.28295
0.370041
2.27452
0.0204203
2.51079
0.0302923
0.0237445
0.0220319
0.0205946
2.67051
0.0936923
0.620545
0.0210085
0.0213037
0.67514
0.0215842
1.59453
0.347426
0.98873
0.561404
0.280608
0.0214744
0.0212998
0.0640704
0.0305006
0.0236455
0.155182
0.0416915
0.0218881
0.0230329
1.90862
0.0209097
3.72523
1.56601
0.796546
0.201474
0.022258
0.0201351
0.0216583
0.303577
0.414282
0.0204199
0.0235555
0.020973
0.0783406
0.0198399
0.020928
0.0218742
0.0323105
0.588459
0.0413094
0.0312471
0.0214712
0.0528481
2.14268
0.0221465
7.85321
2.01652
0.0821155
0.0199381
0.0443401
0.0212199
0.0211886
0.021601
5.16599
0.123078
0.339439
0.023722
0.233217
0.0212714
0.0212406
0.0215584
0.534831
0.280903
0.0198047
0.0319015
0.0554099
3.56873
0.0230778
1.4512
0.026246
2.74304
0.0779668
3.28628
0.0927209
0.0807034
0.218398
3.12444
0.278936
4.83317
0.021107
0.195791
0.0198272
0.0232051
0.0258762
0.0215651
3.18092
0.0288944
0.0270182
0.347269
0.171552
0.650045
0.021359
0.0233926
0.0256119
0.020208
0.0298171
1.32706
0.552069
1.12248
0.0209453
0.0265147
0.0243167
0.427969
2.93901
0.0631729
0.0201158
0.0217987
2.60426
0.0449594
2.57306
2.62974
0.0338959
0.0199218
2.20855
0.0290867
0.0435945
0.0279568
3.36388
0.307166
0.122573
0.102208
0.0221147
0.0279768
0.0213625
3.51498
0.0477182
3.25843
0.247622
0.0256847
0.145294
0.0224966
3.38977
0.20365
0.0208042
0.599803
3.06913
0.792202
3.16945
0.0216262
0.021319
5.73145
2.28911
2.45482
0.0227388
0.0215552
0.021353
3.78787
0.144451
0.0217295
0.498521
0.0889993
2.74379
2.06799
0.631795
0.0214171
3.21088
0.024326
0.0212403
0.140292
2.50152
0.0216069
0.0209022
3.75005
3.30894
0.0220069
0.0209298
2.0429
0.0207361
0.131355
0.0209453
0.363355
0.0213127
0.0532719
1.14249
2.98359
0.0223417
4.04069
0.409934
2.51414
1.52655
2.70135
0.0367158
0.0211546
1.85564
0.0231514
0.0213755
0.020182
0.499755
0.0211348
0.245194
0.0209199
0.0234936
5.23019
0.066508
2.25661
0.0226277
0.0457869
0.0207343
0.0321042
2.21654
2.52923
0.0208659
0.0669251
0.324869
0.0215297
0.0206075
3.00983
0.0338506
0.0339645
0.130323
2.41537
0.361942
1.67381
3.02934
0.0383281
0.282062
0.400011
0.980442
0.0667656
0.0202138
0.128518
0.0211423
0.0211291
1.87415
3.05249
0.0228655
3.16496
0.265923
3.99831
0.52128
0.151922
0.0212066
0.297562
0.0375796
0.0209518
0.0224301
3.22277
2.87988
1.48613
3.37772
0.0372116
3.30773
3.32674
0.0315154
0.0217313
0.021051
0.250549
0.021004
0.191603
0.0223711
0.0219665
0.0230359
2.33409
3.7537
2.65661
0.0217985
2.3634
0.0246765
0.0287973
0.0209873
0.0207901
2.0094
0.0265405
3.35746
1.20252
0.487941
0.117476
0.0214741
0.0391258
0.0215331
0.144073
0.0225879
0.0225522
0.0217261
0.0224752
0.15339
0.0220221
0.0339202
0.0210332
0.0345156
0.168288
5.92777
0.02107
0.0481062
0.0214688
0.113938
0.0255442
2.59299
0.254944
0.0312834
0.0235217
0.0223976
0.155776
0.0212317
0.141416
0.0214236
0.021057
0.0224678
3.02855
0.0265473
0.0242499
0.0308398
0.0213037
0.065584
2.93528
1.4681
0.0353107
0.0213712
0.0322494
0.0202912
0.0211277
0.202133
3.23344
0.0211833
0.0297027
0.0927918
2.52119
0.0217695
0.0219462
3.26305
0.0224074
0.0404992
0.17388
3.82353
0.0213241
0.0297506
0.0212385
3.47106
0.13464
0.0412167
0.119748
2.752
0.0222864
3.65447
2.5897
0.0215488
2.44933
0.0821844
0.0223716
2.0568
0.0215139
0.0212777
0.0205274
0.169203
0.0980591
0.159678
0.0225713
0.0222042
0.0298578
0.361599
0.202878
3.70647
0.337791
0.0219364
0.1352
0.130077
2.389
0.0747089
0.241811
0.0210163
0.0304432
0.0206154
0.906963
0.0355491
0.0212321
1.89079
0.22959
0.0317397
0.0259414
0.0197235
0.0212292
0.0520938
0.0333819
0.68574
0.0667839
0.0665849
0.0584579
0.115727
2.53357
0.112245
3.648
0.0210872
0.0208802
0.223548
3.03121
2.75947
0.0996794
0.0227175
5.80288
0.331977
0.0211154
0.0260383
0.0208231
0.0412426
0.0709009
0.0458773
2.48278
0.220104
0.0224783
2.53449
6.59385
0.021414
0.0792761
2.66855
2.48224
0.023573
0.076134
0.0196299
0.0230911
0.0209596
0.0248605
3.63606
2.77275
2.57159
5.38096
0.0224771
0.0329627
0.0522683
0.0209289
0.0219142
0.0206041
2.99285
0.0209674
3.4723
0.035369
0.0520173
0.15024
0.228358
4.77646
2.73016
0.0404268
0.0198669
0.0231794
2.47145
1.28999
0.0244632
0.0207906
0.0206322
0.0630523
0.0296511
0.14549
2.6847
0.0224548
0.0205506
0.1247
0.0305453
6.46626
0.994749
0.0209413
0.0722428
0.0215004
3.71455
0.0199851
3.31003
0.0209658
0.0223918
0.0304436
0.0219364
0.0903638
0.0294921
0.0471548
2.1282
2.88511
0.02491
0.0293051
0.0211989
2.61604
2.36674
0.0218937
0.0200249
0.315193
0.0196614
3.95902
0.0213598
0.0335864
0.0696456
1.13753
0.0370644
0.022587
0.0215795
0.0712566
3.26837
0.0211548
0.718534
3.21741
0.932559
0.803557
0.0324431
3.71644
0.0252638
0.296115
0.0212726
0.343501
0.341909
2.59132
2.66844
2.52755
0.0218569
0.037042
0.0208964
8.40611
0.2881
3.14225
2.06598
0.026395
2.61246
0.880231
0.0336757
0.0225353
0.0215909
3.45123
0.025178
0.0708761
0.023613
0.0215708
0.0206842
0.0214984
2.77543
0.226188
0.0303343
2.66968
1.75729
0.0214025
0.0213034
0.0205909
0.0287037
3.28795
0.22923
0.0251008
0.024696
0.172102
0.0777974
0.0443833
4.11465
0.0295516
3.55273
0.0300728
0.028775
0.0212811
0.023534
0.0705373
0.344544
0.327221
3.25699
0.0702396
2.84515
0.0244868
0.024093
0.0213738
2.4947
3.17159
0.435076
0.333269
0.023317
0.0213769
0.0210869
0.02142
0.0206245
3.57489
0.0285408
3.32573
0.0312524
2.5886
2.41809
3.3275
0.0313046
0.0256503
2.39766
0.0379041
0.430927
3.43537
0.0206323
0.174096
0.0267252
3.33879
3.12095
0.033676
0.604186
0.426633
0.0232486
0.0527514
0.0240528
3.96647
0.338007
0.0237083
0.0215745
0.345495
1.11089
0.128045
0.345318
0.128433
0.0294001
0.0212408
2.15246
3.24034
0.0785472
0.0305416
2.82775
2.31734
0.0209149
0.0214023
0.0239229
3.19691
3.0568
0.0213369
4.32553
0.0219731
0.0210727
0.021537
6.38952
0.418967
0.0302319
2.87701
0.0226641
0.0225131
0.0209804
3.34354
0.0222616
2.98536
0.0235706
1.46851
0.0217814
0.0211423
0.122897
3.55801
0.304332
0.0347787
2.43143
0.0201707
0.0214803
0.0214119
0.0438524
0.0648189
0.0648565
0.0357745
3.22704
0.0240995
0.124052
0.107098
2.5318
0.0215303
3.46325
3.16302
0.0248727
0.389236
0.0667501
2.53584
0.0215613
0.0664612
0.0212011
0.311002
7.54242
0.0769287
3.43555
0.0231925
0.0494698
0.0222782
3.98759
0.0199195
0.0208071
0.575669
0.0891764
2.82947
2.18507
0.0654739
0.0279645
0.0205086
1.3391
0.0296188
0.0209938
0.147701
0.0211283
0.0432544
0.0213688
0.927914
0.0226312
0.27333
0.273692
0.030179
0.605488
0.0535447
3.74403
0.0212908
1.22024
1.91655
0.0207311
0.0213515
0.0226531
0.0218078
0.0387796
0.0212667
0.488972
0.0770746
0.272348
0.147079
0.0214602
0.0218013
0.0205135
2.91771
0.0214981
0.0212579
0.19478
0.0237266
1.47301
3.42841
0.0903641
0.023815
0.0326992
0.0224613
0.0219584
0.0609182
0.0200749
0.0238443
2.17355
3.40107
0.513293
0.02241
2.41437
0.53943
0.0218267
0.211525
3.09747
0.0213515
0.0233573
0.0213119
3.04066
3.12452
0.542194
0.0200615
0.0237274
0.0233915
0.0215736
0.129441
0.0214959
0.10876
2.84803
3.55832
0.0206179
0.023695
0.0233715
3.8528
0.019719
2.89401
2.17887
0.157295
0.605309
3.02534
2.59888
0.0227996
0.492774
0.516744
0.0222903
0.0204875
0.0208808
3.40147
2.49074
2.60279
0.021149
3.58721
0.0215433
0.151168
0.020466
0.0229469
0.0222233
0.0206056
3.32321
0.0223598
1.82007
2.34384
2.84189
0.046287
0.0528552
3.07934
3.22451
0.0219236
4.37069
0.0205214
0.0197015
0.0212933
0.080496
0.0206897
2.15935
0.0289464
0.0412965
0.0367695
2.08869
2.43961
0.0851442
0.020579
0.0532513
0.0751128
3.33401
0.021565
0.0199388
0.0229473
1.95256
0.0216303
0.178017
2.09305
0.0411877
0.0604492
0.0215816
0.291276
0.0217377
3.3239
0.0202636
2.98548
0.0311042
0.021496
2.13302
2.68082
0.0201869
0.0670742
0.0241805
2.51176
0.0284745
0.12587
0.0361485
0.0217375
0.0529789
2.66797
0.0210236
0.0812877
0.0232373
0.0779685
0.032089
2.15519
3.10075
0.0215079
3.50132
0.0222807
0.0437945
2.92729
2.10856
0.034879
3.09202
0.190999
0.0215865
0.156741
0.131943
0.0305353
0.0223075
2.61366
0.0202162
3.48371
0.0298782
0.110607
0.0213495
0.0301888
3.29935
0.0443056
2.53001
0.0219839
0.02354
0.0882084
2.67769
0.0258961
3.26099
0.861244
2.22699
0.0215486
2.64522
1.8054
3.42234
0.0213947
0.0226238
0.0213151
3.35784
0.0267341
0.305484
0.182434
0.0217578
0.0202502
0.0213658
3.5298
2.30665
2.54457
2.56956
0.0209673
2.69386
3.22462
0.132792
2.39504
3.15114
0.0341591
4.1685
0.0232013
0.0255352
2.89333
2.58081
0.0226657
3.11777
0.0216979
0.0213915
2.72912
3.15586
3.63011
8.96036
0.0303532
0.0217658
0.023196
3.32604
2.60383
0.0211671
0.0470561
0.430129
0.0214238
0.0214906
2.99653
3.0257
0.0227905
0.0214306
0.0222159
0.0223898
0.339291
0.0217893
0.0212672
0.0252633
0.16308
3.10697
0.724453
2.52973
0.0215182
0.0243272
2.94506
3.24965
0.027563
0.152238
0.02133
0.0353461
0.0225973
0.0240259
0.0662398
0.0211828
0.792813
0.0317847
0.020914
0.0240302
2.0231
1.81395
3.64602
0.0214356
0.0246345
3.34929
0.546261
0.0238295
0.0214805
0.0214773
0.272961
0.0215034
0.0219885
0.0273805
0.021339
2.98479
0.289138
0.0217189
0.023878
0.0200055
0.0214908
1.33392
0.531318
0.07096
2.32569
0.0747294
0.0218253
0.0213107
0.0214908
0.0212782
0.0217037
0.0239203
0.0696466
2.88133
0.0227725
0.109868
3.5378
0.0343153
0.021217
0.0208236
0.0233219
2.68181
0.0212335
1.1592
0.213685
0.0484701
0.0221185
6.3673
0.0200494
0.0854582
0.0203991
0.0200748
0.0216772
0.0209007
0.0410694
2.53783
0.637728
0.0379748
2.11451
0.489883
0.711311
0.0315029
3.16672
2.29451
0.107886
2.56034
3.04944
0.115969
0.225157
0.0217998
0.0206938
1.53821
0.0210243
0.0239702
2.62674
0.0428574
1.81842
0.253829
0.0208116
0.0236458
0.0214675
0.0843552
0.020434
0.0902546
2.82331
2.9235
0.918601
0.0214598
0.020247
0.0728729
3.08494
3.02488
0.118474
0.59422
0.0208813
1.03864
3.67083
0.0608831
0.0235079
0.0214845
0.0200971
0.0230011
0.0214199
0.0213188
0.0237636
2.98844
0.077393
3.31799
0.31225
0.918911
0.171856
0.0212664
0.0209231
0.0222551
0.0205267
0.0217686
0.519562
2.44852
0.328978
3.55343
0.0232951
2.6131
0.136592
3.29453
3.37751
0.0214577
0.020894
0.309776
0.0214525
0.0202001
0.290074
3.00474
1.59013
0.0213855
0.0214948
0.024029
0.037213
2.04729
0.0205424
0.0237698
0.284351
0.0206148
0.308374
0.0366563
2.44447
0.0217572
0.212867
2.89488
0.0344095
3.27663
0.113523
3.40631
0.0200133
0.0247312
0.0208748
0.0291086
5.46747
0.0212897
2.06468
0.0220638
0.0216379
0.0214415
3.46079
0.0442343
0.112208
0.395809
0.0206578
0.0425244
2.0942
0.0534251
0.0207366
0.0230587
0.0214509
0.0479522
0.021404
0.0209917
3.58714
3.61105
3.34265
0.875418
0.359262
2.40258
0.0715285
3.67169
0.12462
0.0199632
0.0209362
0.0196742
0.0215752
3.37525
3.33182
0.020304
2.24445
3.45969
0.0292104
0.0226567
0.0246385
2.56697
2.93587
3.03085
1.57475
3.04665
0.0196749
0.19254
0.101276
0.221975
2.99051
0.0213302
0.132154
2.16793
0.031792
2.57405
0.0217263
0.104208
2.26452
3.21392
0.0761846
0.0305771
5.29036
0.13383
3.26725
3.3001
2.96429
0.115634
2.53779
0.0215091
0.0251782
0.0471771
4.19925
0.323388
3.52789
0.0222792
0.116614
0.0676117
0.0224316
3.09847
0.0213508
0.131892
3.93765
0.021361
2.45352
2.61718
3.29291
2.58803
0.583899
0.483635
0.0211411
3.42288
0.0219522
0.0209207
0.0412221
0.0236414
3.23749
0.0238541
0.0247425
0.0238637
0.020897
2.38859
0.0227197
0.119016
0.130143
0.0206191
3.83311
0.101426
0.0228051
2.37263
0.195948
0.0213486
0.739118
0.0219843
3.4374
0.333032
0.0203376
0.119767
0.0227885
3.52037
3.09209
0.0728266
1.10792
0.0253092
0.0214838
2.63479
0.0239056
0.0213261
1.54952
0.041049
0.0208829
0.0208963
0.130109
0.0225918
3.86676
0.198224
0.0385655
2.51828
0.0535305
0.0627911
0.0211938
3.56495
6.34482
3.06405
0.0213991
0.0202225
0.0723191
0.029793
0.400549
0.0213551
0.456174
0.0213366
0.149025
0.0219463
0.0460478
0.163294
0.116721
3.65225
1.23727
3.05043
3.07716
0.0197061
0.543251
0.637381
4.60631
0.0211287
0.173444
6.02395
2.85299
0.118748
0.404594
0.784023
3.65923
0.0461781
0.193267
0.020592
0.0475623
0.0432628
0.0213157
0.0709231
2.71631
0.203451
2.87587
0.776201
0.021159
0.0208575
0.0295239
0.0213218
0.962524
0.0205758
0.0208364
3.80352
0.225753
0.033167
0.102251
0.0225819
0.0858612
2.38154
3.18432
2.24188
0.0254252
3.143
0.0229076
0.0205378
0.0231476
3.22774
0.233035
0.187812
0.225288
0.0222355
0.0209018
0.0213215
0.0218173
0.026356
2.53323
0.808979
0.0282003
3.14319
3.90394
0.504278
6.19502
0.0214161
0.0293527
0.191168
0.0214026
0.0329469
0.0264693
0.0237831
2.51326
3.20957
0.0205681
0.040074
0.0291395
0.0691943
3.58152
2.34693
3.60073
0.0216722
0.0840994
3.51652
0.0827478
0.119087
0.265795
2.58422
3.74564
3.66371
0.02054
2.501
0.0202908
0.0228814
0.0213291
0.0607739
3.71024
6.66726
0.479238
2.78644
0.0568772
0.0201431
0.020808
0.0214938
0.0232842
0.0439544
3.69187
3.55608
0.078352
0.305559
0.0215868
0.0565078
0.0206702
3.27186
0.0704135
0.0215918
0.143627
0.10273
2.09267
3.7184
0.130713
4.23031
0.0244455
3.18177
0.207243
2.90261
0.292216
0.0227798
0.0560384
0.0214649
2.92922
2.63846
0.0399207
2.9827
0.198817
2.53616
0.0668934
0.221415
0.0415976
0.0208933
0.123944
0.0579211
0.0239767
0.0556583
0.0304133
0.0318859
2.19863
0.155251
0.0229137
0.0296155
0.0361374
0.0312207
0.0229314
2.19187
0.110642
0.0658286
3.98395
0.021381
3.28841
0.0214596
0.0239709
0.0232093
3.22547
0.0368043
3.33464
5.71239
0.0600752
0.0498814
0.120662
1.80235
0.13739
1.06911
0.0244105
0.0462236
0.0209943
3.34558
0.350923
0.0243872
0.0213328
0.0360154
0.0257426
0.0240628
0.0496816
0.0400504
0.0215714
0.0331506
4.12082
2.71288
0.114344
0.0411898
0.0198069
1.80716
0.0321041
0.0652691
0.144949
0.0436296
2.00212
0.0202307
0.0242892
0.0239085
0.0324522
0.0211998
3.45031
0.0926528
2.04116
0.036325
3.19079
0.226998
0.0255163
1.76784
0.0667087
0.224456
2.76761
0.0465952
0.0238145
0.0410628
0.0676514
0.0244468
0.297819
3.90498
0.30902
0.0208999
0.230525
0.665702
1.7073
0.0212595
0.0443245
0.0212274
0.0300003
2.37588
0.0287942
0.0285356
0.0208934
0.0208641
1.95664
3.16507
0.021357
2.10846
0.220942
0.0201542
0.0245901
3.38174
0.115242
0.103354
0.0213682
0.0267449
0.10846
0.021504
0.0210706
2.74188
0.0288849
3.41326
0.0844149
0.0259117
3.68787
0.120594
0.150372
0.0209333
0.426918
0.0299278
0.0262803
1.52817
0.0404262
0.0215225
0.0851169
0.0242637
0.0255428
0.0201008
0.713804
0.0213469
0.0643035
1.78389
0.100817
0.0209334
0.282731
0.0305488
4.45204
0.195317
3.55991
0.109354
3.1979
0.020699
0.076659
0.0253151
0.0211237
0.402932
2.45646
0.0248835
0.105838
0.0244277
0.0722131
3.62202
0.0258191
0.361036
0.579781
3.11707
1.87622
0.181715
0.0420135
0.0207931
0.0666029
0.034624
0.321803
1.92246
3.25364
2.3791
3.40804
0.0208365
0.204599
0.0213966
0.0223458
0.0215346
0.391614
0.155781
0.0753186
0.021043
9.75456
0.0269715
3.70613
0.0209317
0.0607706
0.0301247
0.0710024
0.0419881
0.104168
0.0227119
0.167612
0.143707
0.0209565
2.50861
0.227116
0.058556
0.0226685
0.0295304
0.0215938
0.0210889
0.0653942
0.0273876
2.37482
0.213393
0.0854508
0.162517
0.0211291
1.17188
0.0651444
2.41993
0.0298177
0.0303079
0.42835
0.0308107
0.0440811
0.140727
4.44861
0.0232483
0.0216015
3.03918
0.0315407
0.0234616
0.0269526
0.0294316
0.0205096
0.0260699
3.37898
0.0216168
0.0420081
3.32665
0.113813
0.071611
0.560339
1.52537
3.52993
2.61279
1.40361
0.0552748
1.16361
0.0225818
0.024735
0.0214759
0.0209922
2.08751
0.422648
0.0312603
0.0207719
0.300731
0.0917256
0.0213327
0.0565844
0.0527948
0.0212138
0.0228567
1.73172
0.0263541
0.0376053
0.0360653
0.0214786
0.0814108
0.0651533
0.0290463
1.09831
0.0783396
1.88247
0.162796
3.038
0.0236018
3.42484
0.153879
0.148793
0.0663546
1.88015
0.0752434
0.0259697
0.0497737
0.0668214
0.0233868
0.0688168
0.0210913
0.0212513
0.0200847
0.0242331
3.39567
0.0203959
0.104818
0.0241048
0.0235843
0.0239857
0.415021
0.023263
0.0613774
0.0215064
0.0241069
0.024654
0.0208029
0.109312
0.0234544
0.0205481
0.0222457
0.0284019
0.0210145
2.02231
0.0268518
3.08674
0.135825
2.93265
0.0595124
0.0689298
0.0413084
0.0406035
0.0254418
0.0250124
1.67723
2.90162
0.139901
0.0607006
0.0315176
0.0212762
2.54224
0.0389926
3.19429
0.0217523
0.903976
0.144998
1.25529
1.43059
0.020073
0.0214102
0.0203408
0.0289024
2.96627
0.0468549
0.892537
0.0255
0.0288972
0.0210101
0.0218112
0.0332001
0.0234996
0.0237364
0.020905
0.202659
0.10374
2.94007
0.0247299
0.272951
0.0207722
0.0202299
0.105431
0.021883
0.0239494
0.0649983
0.023924
0.0690617
0.0214167
0.0248273
0.0215229
0.0242243
3.32241
0.0212991
0.0234244
0.0225209
0.0236341
0.798631
0.0217494
0.0497056
1.67328
0.0243503
0.0291852
0.0223675
0.0236792
0.0217451
0.133327
0.0214346
0.0261964
2.78754
0.0208821
0.02873
0.0498998
0.0589476
2.76097
0.020051
0.0235756
0.0225489
0.0301269
0.103113
0.282352
3.65814
0.0202635
0.0278991
0.0738557
0.0240566
1.09963
0.0199533
0.0215528
2.09275
0.0403965
0.0235227
0.0200063
0.122013
0.132442
2.29389
0.0215542
0.29801
0.0199837
0.020566
0.023369
0.0781559
3.76478
0.0215046
0.0209412
0.0829224
0.0214421
0.0231402
0.193092
3.07134
0.0214309
0.0205348
0.0223106
0.0307263
0.194258
3.24359
0.0218156
0.105928
0.0213827
0.0213433
2.55321
0.0234013
0.0217824
0.0301373
0.195492
0.133685
0.0232285
0.0221193
2.15003
0.0404757
0.0223023
0.142661
2.91005
0.0214599
0.021702
0.0230949
0.0213591
0.0214507
0.0209522
0.0201886
0.0388438
0.0230095
0.0454851
0.0477127
1.95338
0.662675
0.0302539
0.0200334
0.0213595
0.0221531
0.0230578
0.0404232
0.0284217
0.565362
0.0234084
0.0855833
0.0239909
4.46549
2.06271
0.0282416
0.0230933
0.123124
0.0236528
0.0274387
0.0213851
0.0222603
0.02111
0.0547378
0.0457305
0.0519456
0.106659
0.0230331
0.0260074
0.0221924
3.29386
2.34986
0.419983
0.0265782
0.0949344
0.0858382
2.99006
0.0219014
0.227055
0.064805
0.0213922
0.0217718
2.19248
0.0214852
0.0223204
0.0231756
1.241
0.021471
0.0217182
0.0252097
2.1738
0.0210098
0.0508668
1.04934
0.0234423
0.0214938
0.021156
0.0214149
0.0217417
0.0216848
0.0389604
0.02288
0.0214763
0.0216921
0.0217113
0.0281451
0.0213672
0.273015
0.0215415
0.0216784
0.0372683
0.0555755
0.0264895
2.28273
1.16314
3.3459
0.0375885
0.0209378
0.0402009
2.43931
0.0201675
0.249796
0.0240051
0.845513
0.0230417
0.043552
0.0217356
0.021381
0.114744
0.237803
1.67507
0.222858
3.42181
0.0217047
0.0210125
2.2411
0.0201397
0.0214821
3.14111
0.0210125
2.02854
0.0214347
0.164336
0.10735
0.0235979
0.219107
0.0248831
0.0760826
1.22406
1.26366
1.3048
2.81927
0.373634
2.54795
0.0215286
2.34651
0.0214462
0.0213075
0.0210975
0.0218489
0.610312
0.022322
3.92738
0.0214794
0.0213733
0.0215535
0.154473
0.0218537
0.0208508
0.0539171
0.0250149
0.0258432
0.0250468
0.0278876
0.200073
1.72047
1.16298
0.206802
0.0975403
0.0222979
0.300512
0.0214444
0.0283467
0.075979
2.61572
0.0457334
3.39301
0.0214553
0.691786
2.47803
0.147
3.56009
0.241903
0.0234541
0.0213173
0.0237504
0.0214383
0.0213021
2.72681
2.68188
0.021071
1.23087
0.0214121
0.108023
0.0209948
0.160961
0.0283594
0.0232929
0.0208872
0.245439
1.1836
0.360185
0.0206317
0.020691
0.026049
0.0221261
0.0221806
1.25061
0.952257
0.0469677
0.964076
0.0441401
0.0217604
0.0310663
0.0855343
0.0218392
3.09205
0.0550538
0.278343
0.0229213
0.0240203
0.0202534
0.0197138
0.021365
0.0260267
0.0207932
2.06306
0.039228
0.485936
0.0212621
0.0440341
0.0214301
0.64628
0.040983
0.0541755
3.02487
0.0255226
0.0213273
0.0245809
0.0217781
3.07122
0.173067
0.043075
0.0546544
3.44573
2.50899
0.108796
0.049588
0.0213901
0.0228766
0.0231159
0.0360363
1.10578
0.0258383
0.0215244
0.501169
0.206928
0.0217276
0.0232319
0.0553716
0.0222155
0.0209894
0.0419972
0.0213953
0.0218391
0.020943
0.023419
0.0219844
0.0502934
2.02834
0.0214573
0.264724
0.0975087
0.10878
0.0209335
0.0216991
0.0295184
0.0258649
0.0214281
0.177304
0.0213334
0.0500839
0.021559
0.0440249
1.75649
0.0537851
0.0224458
0.0589235
1.27808
1.10425
0.0214258
0.0354604
2.80231
0.0212761
0.0222137
0.0785762
9.08641
3.35719
0.0236407
0.0213292
0.0304463
0.0212417
0.0222688
0.0275173
0.0217271
3.49257
0.0217587
1.04118
0.0214328
0.0214608
0.058776
0.0213636
0.0215319
0.0276401
0.761135
0.0205781
0.0417444
0.0218281
0.021225
0.0217538
0.0276186
0.0253482
0.0693083
0.0229576
0.0217112
0.0217892
0.038464
0.0223251
3.50485
0.0219576
0.109753
0.033198
0.023161
0.027161
0.747385
0.0214854
0.0220005
0.0199722
0.0780187
0.345132
0.0217928
0.0369797
0.0209585
0.0356971
0.0214437
0.212953
1.468
0.0233205
0.0252205
0.0267472
0.0317737
0.022245
0.0207511
0.0474886
0.0214054
0.0218963
0.0213364