/*--------------------------------*- C++ -*----------------------------------*\
| =========                 |                                                 |
| \\      /  F ield         | OpenFOAM: The Open Source CFD Toolbox           |
|  \\    /   O peration     | Version:  v2012                                 |
|   \\  /    A nd           | Website:  www.openfoam.com                      |
|    \\/     M anipulation  |                                                 |
\*---------------------------------------------------------------------------*/
FoamFile
{
    version     2.0;
    format      ascii;
    class       volVectorField;
    location    "400";
    object      ddt0(U);
}
// * * * * * * * * * * * * * * * * * * * * * * * * * * * * * * * * * * * * * //

dimensions      [0 1 -2 0 0 0 0];


internalField   nonuniform List<vector> 
13851
(
(0.00133995 -0.000527564 3.96131e-20)
(0.0272934 -0.149125 -1.18579e-18)
(-0.00796814 0.0073686 -5.08577e-18)
(0.00098725 -0.000594091 -2.17863e-20)
(-0.0025521 -4.33011e-05 4.65657e-20)
(-0.0294082 -0.00799752 3.87635e-19)
(-0.000821295 0.000263281 -3.28914e-18)
(-0.00178397 0.00481077 -5.0989e-18)
(-0.000748524 -0.000343834 1.67517e-19)
(0.00569866 0.0209053 9.79757e-20)
(0.0243124 0.061721 -5.45715e-19)
(-0.0666311 0.101633 -2.2776e-18)
(-0.00176373 -0.00189056 -4.90668e-18)
(-0.0605533 -0.202309 -5.17042e-18)
(-0.00134563 4.5083e-05 -2.31528e-19)
(0.00271456 0.00232957 2.25564e-18)
(2.45628e-06 0.00156129 -3.67002e-18)
(-0.00040026 0.00260041 2.2097e-21)
(0.00133305 -0.0110392 -4.90925e-20)
(-0.000731289 -0.000334533 -1.17808e-20)
(0.000790368 -0.000510554 -6.988e-21)
(-0.00766048 0.00591644 5.23756e-18)
(-1.66281e-05 1.47973e-05 -1.11867e-20)
(-0.000748845 -1.80545e-05 8.62506e-20)
(-4.79199e-05 7.31116e-06 7.40383e-21)
(-0.00163648 0.00529862 9.36559e-19)
(-0.000752444 0.00109614 -1.00473e-18)
(-0.00869502 0.0231574 -5.2049e-18)
(0.00129429 -0.000351746 3.04771e-20)
(0.000240365 0.000662782 1.00619e-18)
(-0.038391 -0.00247552 -1.26436e-18)
(2.02083e-05 0.00164548 4.84362e-18)
(-0.00702725 0.00809945 1.98291e-18)
(-0.00606912 -0.160261 1.59957e-18)
(-0.00072718 -2.45866e-05 -4.1212e-20)
(-0.00502692 0.00554218 9.56592e-18)
(0.00135499 0.00809525 -2.45787e-18)
(-0.0154739 -0.0134578 -2.41931e-18)
(0.00511801 0.0234674 -3.22512e-18)
(-0.0155905 -0.12771 -3.30908e-18)
(-1.83114e-05 7.44532e-05 -2.66649e-19)
(0.000397097 -2.49939e-05 -4.97721e-21)
(0.0229218 0.0274669 -1.61687e-17)
(0.0177837 0.0979341 -8.06764e-19)
(0.0204064 0.0917155 3.93351e-19)
(0.0915939 -0.00857467 -8.37662e-18)
(0.0112277 0.119016 -2.76858e-18)
(0.0608273 -0.0514507 -9.77216e-20)
(-0.000787744 0.00112563 -3.57338e-18)
(-0.032886 0.0276552 -3.50263e-19)
(-0.00125245 0.00214202 -1.24368e-17)
(0.00263472 0.00234321 2.67161e-17)
(-0.00570079 0.0760077 8.04225e-18)
(-0.00142507 3.16818e-05 -1.08524e-18)
(-0.000918328 5.28325e-06 9.75062e-19)
(0.000412626 -3.6725e-05 5.02123e-20)
(-0.000625878 1.98507e-05 -7.37647e-20)
(-0.0262917 0.0666259 -2.63145e-18)
(0.000262827 0.000687317 -7.55711e-19)
(-0.000701535 0.000384141 5.39482e-19)
(-0.019261 -0.0127133 7.24108e-19)
(-0.00683252 -0.0745809 -9.14067e-19)
(0.00608429 0.0184806 7.91412e-20)
(-0.00132188 -0.000960886 1.10027e-17)
(-0.015185 -0.0546282 3.53807e-18)
(0.00148783 -0.00158716 -5.78089e-19)
(0.00427565 0.00775398 -8.67721e-18)
(0.0102727 0.114128 -2.7326e-18)
(-0.0014571 0.00174425 -5.31505e-18)
(-7.84619e-05 0.00284879 -2.96118e-20)
(0.0206471 0.000523441 2.09693e-17)
(0.00781083 0.00547351 -1.26312e-17)
(0.00877611 -0.153143 -1.07231e-18)
(-0.00147333 3.09159e-05 1.96721e-18)
(-0.000796648 -6.4365e-06 -4.22014e-19)
(-0.000796347 -0.000612806 -7.56757e-20)
(-0.00677171 0.00576637 -1.70865e-18)
(0.00531664 0.00246192 4.99933e-18)
(-0.0021255 0.00217395 -6.07977e-18)
(0.0219223 0.00030412 -6.9945e-18)
(-0.000564606 0.00058408 -1.5249e-18)
(0.00325302 -0.0697758 -4.35094e-20)
(-0.00064122 0.000236787 5.31009e-20)
(0.053074 0.0579426 1.50387e-18)
(0.00305827 0.0204467 -5.92685e-19)
(-0.0537776 0.0913847 1.95481e-18)
(-0.0162089 0.00353406 -9.366e-19)
(0.0645403 -0.030755 -1.59375e-18)
(-0.000510132 0.00155974 -1.87142e-18)
(-0.00019951 0.00144566 -8.49873e-20)
(-0.00485113 0.005563 -1.77872e-17)
(0.00897264 -0.00582916 5.75732e-19)
(0.0105898 0.0985857 1.2299e-18)
(-0.000764813 0.00183226 9.31164e-18)
(-0.000560545 0.00148665 -2.86126e-19)
(-0.000641247 6.24203e-06 -4.04433e-20)
(-0.00209088 -0.000261741 3.82214e-19)
(0.0190808 0.00188016 -6.0559e-18)
(-0.0337214 0.0348066 3.56357e-19)
(-0.000598986 3.40889e-06 1.31641e-19)
(-0.0598562 -0.012458 -2.99439e-17)
(-0.00181357 0.0017902 4.42137e-18)
(0.000683516 0.000446703 -3.28109e-19)
(-0.00101876 0.000624484 -1.24995e-18)
(0.000175674 -6.37925e-06 9.02394e-21)
(-0.011467 0.0150756 1.1367e-18)
(-0.00170131 0.0017471 1.11828e-19)
(0.00034085 -6.06712e-05 -2.37542e-20)
(0.0100217 0.00351125 3.08273e-19)
(-0.0273572 -0.0152903 -7.75139e-20)
(-0.000689125 -7.29113e-06 6.97073e-20)
(-0.000268293 0.00164113 1.91613e-20)
(0.00747092 -0.00529097 -3.62786e-19)
(-0.000591251 -5.69996e-06 -8.26134e-20)
(-0.000734713 -1.12014e-05 3.60521e-20)
(0.00364614 -0.1598 -3.06049e-18)
(0.0169007 0.000576204 1.47683e-17)
(0.000295437 -1.16781e-05 1.53113e-20)
(-0.000732234 -1.81692e-05 2.31758e-19)
(-0.00087053 -8.18265e-06 7.81661e-19)
(0.0191556 0.0358807 9.29281e-18)
(-0.000976787 0.000652639 3.53096e-18)
(-0.000457307 -0.00343472 -4.40146e-18)
(0.011327 -0.0893592 4.69062e-18)
(0.0550003 -0.0387498 3.38355e-20)
(0.00143191 0.00139998 -8.09501e-20)
(0.0537893 -0.0235289 1.46216e-19)
(-0.00197914 0.00190326 6.16732e-19)
(0.000596624 -0.000513005 1.26189e-19)
(-0.00221614 -0.00650999 -2.13123e-18)
(-4.89605e-06 7.1541e-05 4.82737e-19)
(-0.000586354 -0.00022039 2.25601e-20)
(0.0206639 0.000741686 -2.46227e-17)
(-0.000692313 0.000230724 -1.42379e-18)
(-0.0248213 -0.202914 1.62933e-19)
(-0.000672588 -7.52184e-05 9.66682e-20)
(0.000286771 -1.02812e-05 6.9963e-21)
(0.00648911 0.00642698 -5.67667e-18)
(-0.0209658 -0.143893 -6.79287e-18)
(0.070177 -0.0274174 -4.60849e-18)
(-0.0492026 -0.00437663 2.79908e-17)
(-0.00091623 2.58411e-06 7.0242e-19)
(0.0010061 -0.0013762 -1.53014e-19)
(0.000563172 0.000180649 3.40155e-20)
(0.00015941 0.0010178 -1.89996e-18)
(0.0100982 0.104548 1.96913e-18)
(-0.00237083 -0.00211425 -2.64944e-20)
(-0.00357331 -0.0073414 -5.97097e-19)
(-0.000858395 0.000258456 5.22635e-18)
(0.0243949 0.0677509 2.21477e-18)
(-0.00331396 0.00205774 -2.00766e-18)
(-0.000843033 -1.23879e-05 7.19802e-19)
(-0.0676646 -0.182294 -2.58469e-17)
(-0.000615364 2.10266e-05 -3.35152e-19)
(-0.000408249 0.00100388 5.40644e-18)
(0.000178219 0.000974003 -9.70031e-19)
(-0.000135623 -0.000350546 -2.60854e-20)
(0.00031961 0.000661044 9.30269e-19)
(0.00294952 0.00183188 -1.45485e-17)
(-0.00125405 0.00200268 1.66135e-18)
(0.000438953 -0.000275926 -7.49822e-21)
(-0.00112535 0.00139131 1.09335e-18)
(-0.0221067 0.068224 6.75562e-18)
(-0.000607119 -0.000217043 -2.10149e-20)
(0.000604462 -0.000253402 -1.48534e-18)
(0.000471607 9.80176e-05 8.35744e-20)
(-0.0027455 -0.00308501 5.72933e-20)
(-0.00149216 0.0016758 4.59218e-18)
(0.000683652 -0.0004372 3.31168e-21)
(0.037851 -0.00555737 -4.2962e-19)
(0.00542323 0.0016837 -1.28095e-17)
(-0.000765728 -3.69138e-05 -1.9693e-20)
(-0.000114307 -0.000334209 -2.90959e-20)
(0.0596439 -0.0334776 2.85704e-18)
(-0.000618188 -0.000197475 2.39593e-20)
(0.0632184 -0.0691559 3.18052e-20)
(-0.00199485 0.00200119 2.14772e-19)
(0.000283358 -2.87918e-05 3.74983e-19)
(-0.00026081 -0.00942912 9.01908e-18)
(0.000368881 -8.76072e-05 -7.77828e-20)
(0.000124622 0.00180232 1.29426e-18)
(0.00757423 0.00554289 1.23582e-17)
(-0.000801749 0.000214809 1.41678e-18)
(-0.00852052 0.00513064 -3.7722e-18)
(0.000264724 -4.90164e-05 9.22611e-21)
(-0.000303068 2.66128e-05 1.1793e-19)
(0.00182963 -0.00149205 -1.95291e-19)
(-0.000910261 -2.41468e-06 -8.68684e-19)
(-0.00349286 -0.00147824 -2.33133e-18)
(0.0236831 0.00301202 1.35972e-18)
(0.00891198 0.118075 1.32329e-18)
(-0.00791527 0.0759744 5.20957e-18)
(2.469e-05 0.00208635 -6.46106e-21)
(-0.00140718 0.00199386 8.25232e-18)
(-0.0172619 -0.075673 2.11955e-19)
(-0.000329648 0.000977438 -4.1752e-18)
(0.000627103 -0.00139127 1.28422e-19)
(-0.011867 0.0073968 2.22133e-18)
(0.000394392 -0.000286646 -1.89541e-19)
(-0.000761381 -0.000639578 -4.2425e-20)
(0.00125782 0.00167657 -6.419e-21)
(0.0707789 -0.0420995 9.79606e-18)
(-0.000832818 -6.17994e-06 3.00768e-19)
(-0.000530309 0.000180646 1.30581e-18)
(0.0146359 0.00837586 -1.67494e-18)
(-0.00075875 0.000230615 8.90152e-19)
(-0.0667417 -0.0476843 -7.26572e-19)
(-0.00017014 0.00158548 3.42681e-19)
(0.0148545 0.00292284 -1.23503e-17)
(0.0003923 -0.000172702 1.80239e-20)
(0.00786488 0.00622449 -8.58067e-18)
(0.000638876 0.000411704 1.77524e-19)
(0.0154159 0.0306476 1.51432e-18)
(0.000330139 -9.58825e-05 -2.38818e-20)
(0.000546875 0.000113269 2.9454e-20)
(0.027963 0.00468732 3.24931e-20)
(-0.00355152 0.0176148 3.08588e-19)
(0.0990429 0.00346879 1.29227e-18)
(-0.00124746 0.000100035 -1.60338e-19)
(0.0143308 0.00328775 1.20209e-17)
(-0.000143408 0.00165003 5.66797e-18)
(-0.000544753 0.000602929 -3.31437e-18)
(0.00521801 0.00795935 -3.56376e-19)
(0.00210427 -0.00178555 1.31343e-18)
(0.0126302 0.00380857 -1.11902e-18)
(-0.000195558 1.45218e-05 7.23169e-21)
(-0.000915047 0.0020589 4.15972e-18)
(0.000137184 -3.89511e-06 2.1457e-21)
(-0.00765225 0.0861532 1.48563e-17)
(0.000341488 -0.000110976 -8.27456e-21)
(-0.00117565 0.00542842 9.36327e-19)
(-0.0630071 -0.00402233 -1.69561e-18)
(-0.000755921 -2.93292e-05 -4.33323e-21)
(7.64164e-05 0.00180835 -7.18945e-20)
(-0.00169231 0.00211348 -3.18757e-18)
(-0.0079524 -0.000626091 4.78691e-20)
(-0.0757688 -0.0476835 1.82648e-18)
(-0.0102789 -0.0615225 -4.6089e-18)
(0.000567596 0.00015544 -1.30428e-19)
(-0.00054278 0.000188006 3.26791e-19)
(-0.0356153 0.00725141 -1.30778e-18)
(0.00132676 0.102889 -2.39789e-18)
(0.000508515 -0.000430239 3.35184e-20)
(0.0162515 0.00979083 -4.54275e-19)
(0.000217158 -1.05212e-05 9.31632e-21)
(0.0139646 0.00390478 -1.20137e-17)
(-0.00184814 0.00175302 -2.70068e-18)
(0.00231196 -0.0648961 4.71243e-19)
(0.000248451 0.000925499 8.97642e-19)
(0.000738986 0.00138578 3.96212e-18)
(-0.00627537 -0.00314691 -6.86269e-19)
(0.00989191 0.110945 -2.60342e-19)
(-0.000195535 0.000648466 -5.04452e-19)
(0.000232953 0.000969841 4.01656e-19)
(-0.0018979 0.00179355 -8.11608e-19)
(0.0509296 -0.00783259 -5.22648e-19)
(0.0220525 0.000104332 -1.11332e-18)
(0.00625013 0.0064677 8.14041e-18)
(-0.0195435 0.00918204 2.23296e-17)
(-0.00106334 0.000146182 -1.00331e-18)
(0.000543664 0.000139632 -4.23908e-20)
(0.000671413 0.00257747 -3.13419e-20)
(-0.0111301 -0.085747 -5.89652e-19)
(0.000552659 0.000572781 9.67366e-20)
(-0.00400071 -0.0179192 -3.75107e-20)
(-0.000300137 0.000983014 6.65513e-19)
(-0.000243716 0.000635317 9.93362e-19)
(-0.000717272 0.00176782 -4.93957e-18)
(0.00392253 0.00764165 -2.1364e-18)
(0.0171176 -0.0023329 -2.3976e-20)
(-0.00655154 -0.00181561 4.68173e-19)
(-0.000369504 0.00102008 4.26421e-18)
(-0.028783 -0.0369945 -3.05551e-19)
(-0.0020037 0.00223072 1.78482e-18)
(0.00266718 0.00194497 -8.72901e-19)
(-0.000592559 -0.000239549 -2.01179e-20)
(0.00194025 -0.0637409 8.54458e-20)
(0.00811549 -0.00825949 9.30841e-20)
(0.0136653 0.00161989 3.66163e-19)
(0.0296816 0.0408103 -9.81336e-19)
(0.000481005 -0.000435275 -3.28679e-20)
(0.000351002 -0.000177153 1.07813e-20)
(0.000182161 -8.52362e-06 -1.70152e-21)
(-0.00193053 0.00174501 8.23557e-19)
(-0.0268016 -0.087363 3.5635e-19)
(0.037453 -0.0287103 7.80353e-19)
(-0.000715725 -0.000477381 1.84286e-19)
(-0.00135479 5.73533e-05 2.60818e-18)
(-0.0364211 -0.0318301 -1.27453e-18)
(-0.0110377 -0.0334214 -3.74074e-19)
(-0.00369114 -0.0092275 -7.99716e-19)
(0.000272776 0.000685446 -8.21242e-19)
(-0.000751686 0.000407916 -1.60913e-20)
(-0.00157324 0.00188766 -1.94652e-18)
(-0.00805494 -0.0490939 4.88152e-19)
(-0.00314515 -0.0148402 1.50914e-19)
(0.000898993 9.29042e-05 7.57809e-19)
(-0.0438266 0.0883258 -3.47213e-18)
(-0.000534947 -0.000262124 -2.55849e-20)
(0.0131233 0.00425659 2.06714e-17)
(-0.00110246 0.0013535 -8.16991e-18)
(8.4891e-05 0.00151928 4.03506e-18)
(0.0130376 0.00234473 1.07388e-17)
(0.000132055 0.000388841 5.53281e-19)
(-0.0156 0.0127056 2.17465e-19)
(0.00735256 0.00702898 3.33594e-19)
(-0.000767406 -0.00044542 7.46723e-20)
(-0.00181639 0.00166304 7.5354e-18)
(-0.000719052 0.00191822 -7.72723e-18)
(0.000344242 0.000691927 1.67091e-20)
(-0.0168378 -0.14206 2.96969e-18)
(0.000908458 -2.2009e-05 -4.47507e-19)
(-0.000201513 0.000599687 2.35115e-18)
(0.00875815 0.00725451 1.06262e-17)
(0.0004179 7.01959e-06 -4.44067e-20)
(0.000800809 0.00147536 -6.12728e-18)
(0.000995889 0.00250349 5.16905e-20)
(0.0127289 0.0018308 5.62457e-18)
(-0.00402436 0.00414352 1.10176e-17)
(-0.0011883 0.000110883 -8.82345e-19)
(-0.00176068 0.00178046 2.81986e-18)
(-0.0012377 9.48798e-05 9.24058e-19)
(-0.0100117 0.0113316 2.17344e-17)
(-0.00772088 -0.00622538 -1.02756e-18)
(-8.62876e-05 2.05925e-05 -1.3275e-20)
(2.10864e-05 -0.000539587 -7.34386e-21)
(-0.00367529 0.00415517 -5.40099e-18)
(-0.000870015 0.00197727 -6.37913e-18)
(-0.000509329 0.000954378 3.08057e-18)
(-0.00137873 4.94267e-05 -1.04457e-18)
(8.21287e-06 0.0003779 2.8908e-19)
(-0.000162474 0.00057627 -1.61265e-18)
(0.0254578 0.0713648 -3.18849e-19)
(-0.0868578 -0.08244 -2.79967e-17)
(0.0291714 -0.0253267 5.35517e-19)
(0.00247662 0.00514995 -2.76619e-19)
(0.0120861 0.00251639 7.79112e-18)
(-0.0405165 -0.0475021 -6.03329e-19)
(-0.00137762 4.56035e-05 -1.74014e-18)
(-0.0014346 0.00208309 -6.80752e-18)
(-0.00521837 -0.0102826 -1.08773e-18)
(0.0118651 -0.00244252 -1.61685e-20)
(-0.016156 -0.000200806 1.85012e-18)
(0.00106183 0.00294473 4.83266e-18)
(-0.00129311 -0.0135834 -2.56553e-18)
(0.00114857 -0.00423985 -2.57932e-19)
(-0.0382474 -0.115385 1.43388e-18)
(0.0096775 0.00591286 5.54651e-18)
(-0.00143188 3.56761e-05 5.53369e-19)
(-0.0142832 0.0056252 -1.44936e-19)
(-0.0135161 0.00985785 1.64546e-19)
(-0.0479747 0.0195122 -1.80799e-18)
(-0.000538965 0.000925793 1.03824e-18)
(-0.019449 -0.000765375 -2.77812e-18)
(-0.0112645 0.0843851 2.40608e-19)
(-0.000141315 -0.00034546 -3.58038e-21)
(-0.029831 -0.0752255 -2.19352e-18)
(-8.74387e-06 -0.000566659 9.79582e-20)
(-0.00129312 8.5539e-05 -2.953e-18)
(0.000240078 -1.50547e-05 -8.96578e-21)
(0.000344534 -7.10588e-05 -3.3792e-21)
(-0.00026371 -0.000291518 -1.54795e-20)
(0.00867495 0.00626998 4.71796e-18)
(-0.0115681 0.0269811 -1.67581e-18)
(-0.000319027 0.000266397 -1.62417e-19)
(-0.00180514 0.00163079 -4.5913e-19)
(0.00047136 8.56924e-06 3.07386e-20)
(-0.0401045 0.0938296 5.07418e-18)
(0.00531116 0.00110338 6.97455e-19)
(-0.0168224 0.0383662 -1.50138e-19)
(0.0340458 -0.0113381 -8.65507e-19)
(-0.000287681 0.000273291 1.15197e-19)
(-0.00627386 0.0198825 1.28512e-19)
(-0.000552895 0.00204916 -1.1244e-18)
(0.0109247 -0.00993258 -1.60648e-18)
(-7.50659e-05 7.61774e-06 4.61369e-21)
(0.000298755 -7.3742e-06 -1.11898e-20)
(-0.000390415 -0.00815542 -8.474e-19)
(-0.0717836 0.00272918 1.38529e-17)
(-0.000828429 -7.63944e-06 2.63949e-19)
(-0.0114121 -0.129434 -2.55182e-18)
(0.0117136 -0.00455758 -6.82063e-19)
(0.00143326 0.00327867 -1.34442e-18)
(0.0459447 -0.00709318 -3.61509e-18)
(-0.0190374 0.0297845 -2.43593e-19)
(-0.0231221 0.0206219 3.05771e-20)
(-0.00288422 0.0027439 2.02607e-20)
(-0.000448747 -0.000185252 -1.581e-19)
(-0.00160927 1.6474e-05 5.15267e-19)
(0.0024823 0.00424943 -3.17137e-19)
(-0.00176738 0.00179195 -6.19935e-18)
(-0.0564252 -0.203042 6.15165e-19)
(-0.0016581 0.00152019 -1.88137e-19)
(0.0113246 0.00411473 7.51959e-18)
(0.00796238 0.00674292 1.0055e-18)
(0.000469218 2.94858e-05 -5.09209e-20)
(-0.00111485 0.000152601 8.64214e-19)
(0.0340726 -0.0204623 -3.32501e-18)
(0.0211119 0.000527182 -6.68726e-18)
(-0.0628946 0.00981226 7.8534e-19)
(0.0143413 0.00231645 -1.05038e-17)
(-0.000809005 -0.00926585 5.0143e-19)
(-0.000604449 0.00213301 9.37207e-19)
(-0.000499671 1.10392e-05 -1.61575e-20)
(-0.0355942 -0.0412705 2.46924e-19)
(-0.000822054 -0.000168766 1.6419e-19)
(0.00238347 0.00251057 -3.77812e-18)
(-0.0021294 0.00223746 -3.36377e-19)
(-0.000736082 0.000308754 1.42909e-18)
(0.000151658 -5.61251e-06 3.29758e-21)
(-0.000785774 -0.000422615 1.92925e-20)
(0.000474445 7.59943e-05 2.59138e-19)
(-0.0010481 -0.000432673 -3.90885e-18)
(-0.0101473 -0.00661976 -6.56741e-19)
(-0.00300512 0.0188821 3.43374e-17)
(0.000622116 0.00352794 1.62671e-19)
(-0.00171899 0.0017919 -8.44857e-19)
(-0.00268958 -0.00674441 -1.23325e-20)
(0.0227851 0.0832771 3.54497e-19)
(0.00106708 0.00133478 1.15767e-18)
(-0.0525062 0.025834 2.10956e-18)
(6.63464e-05 0.00144445 -6.12185e-18)
(0.0272904 -0.0111109 5.18139e-19)
(0.000287949 -1.58156e-05 3.78154e-20)
(-0.000777969 -0.000393124 2.6647e-19)
(-0.000312843 1.61918e-05 -9.50801e-20)
(-0.027207 -0.016945 1.30093e-18)
(-0.0085641 0.149854 -2.16208e-18)
(0.000853155 -0.00304853 -5.86845e-18)
(-0.0014584 -0.00642193 2.07807e-19)
(-0.0108576 0.0175796 -6.09596e-17)
(-9.66619e-05 -0.169586 -3.00361e-18)
(-0.0140833 0.00681547 -3.8721e-19)
(-0.000868515 -1.12923e-05 -8.34515e-19)
(-0.00176383 0.00217626 -4.73217e-18)
(-9.24533e-05 4.67875e-06 -2.72814e-19)
(0.0249507 0.0710368 -5.2871e-20)
(0.000182591 -4.87886e-06 2.90324e-20)
(-0.0561968 0.0529697 -4.3023e-18)
(0.0128003 0.0344429 1.25604e-18)
(-0.00479297 0.00969279 -7.42914e-19)
(0.0129291 0.00284502 1.01146e-17)
(0.000766379 -0.000384502 4.3081e-19)
(0.000255306 -0.00933818 -3.32423e-20)
(0.00503509 0.0595565 -1.01587e-18)
(-0.080169 -0.000505548 -2.75199e-18)
(0.000269563 -5.50579e-05 -4.65879e-21)
(-0.000719494 0.00231768 -2.08402e-18)
(-0.00211218 0.00204513 5.75308e-18)
(0.0184269 -0.00748769 8.65337e-21)
(-0.000772417 -0.000124222 3.27511e-20)
(-9.70777e-05 0.00056128 3.02039e-19)
(-0.00317512 0.00191185 -1.30303e-17)
(0.00199844 0.00226556 -4.31375e-18)
(-0.000648565 0.00565629 6.44177e-20)
(0.00102836 0.13462 -1.43868e-19)
(-0.000204428 2.1219e-05 1.2215e-19)
(6.37405e-05 -0.000564648 -4.35468e-20)
(0.0455901 0.0587069 1.00478e-17)
(0.000411756 -0.000507997 1.09236e-18)
(0.000346424 -0.000167311 -1.64961e-20)
(0.0816982 -0.0197133 7.70247e-19)
(-0.000473566 -0.000186092 3.75595e-22)
(0.00120216 -0.000627841 2.51638e-20)
(-0.000773564 -0.000210506 -1.74753e-19)
(0.0013036 -0.00531157 -3.35993e-20)
(0.000249999 0.000649646 1.9929e-18)
(0.000370137 -0.000164555 2.99683e-21)
(0.000758691 -0.00069471 -5.70536e-20)
(0.00838984 0.00600169 3.12989e-18)
(-0.000616825 0.000253158 3.27907e-18)
(-0.00163573 0.00163245 3.04368e-18)
(-0.000676362 -8.36851e-05 -8.81565e-20)
(0.000646717 0.00428253 7.22012e-19)
(0.0129309 -0.0198489 1.45507e-19)
(-0.000655073 -4.28119e-06 -2.21661e-20)
(9.52083e-05 -0.000125934 -1.13952e-19)
(-0.000667876 -9.47171e-06 3.28609e-20)
(-0.0006553 -5.60845e-06 -2.34438e-21)
(0.0650616 -0.0324712 1.97832e-18)
(-0.000253591 0.000634046 1.32118e-18)
(-0.0216548 0.00204011 2.31253e-18)
(-0.000846934 0.000206663 -8.13543e-19)
(-0.000488751 1.64373e-05 6.8886e-21)
(-0.026243 -0.082582 1.48434e-17)
(0.0133287 0.00247842 1.84715e-18)
(-0.000755279 0.000253779 -1.12194e-18)
(0.0013855 0.0053158 -6.41799e-19)
(0.00106149 0.00149147 -1.10612e-18)
(-0.0152865 0.109684 8.443e-19)
(0.0686352 0.0385696 1.41286e-17)
(9.74774e-05 -0.000530123 -4.99882e-20)
(-0.00954403 0.0531384 -1.40153e-19)
(-0.00011458 3.76046e-05 3.62714e-19)
(-0.00446886 0.000184924 -5.38012e-18)
(-0.000712949 0.000367753 9.79333e-19)
(0.0098585 0.085951 -1.69351e-18)
(0.000284351 -1.72204e-05 2.22416e-20)
(-0.00282518 0.0791121 2.28483e-17)
(0.0218124 -0.00567023 3.55493e-19)
(0.000402629 -1.23613e-05 -4.25089e-20)
(0.00304247 0.00489176 -7.00791e-19)
(0.0265229 0.00726778 8.14312e-19)
(-0.00109469 0.00583542 -7.68292e-19)
(-0.0208008 -0.074035 2.79674e-19)
(-0.000715462 -2.38792e-05 -3.29988e-19)
(0.0181904 -0.180366 6.82677e-19)
(-0.000947306 5.28727e-06 -1.56678e-18)
(-0.000667972 -0.000183666 -2.5841e-21)
(-0.000550355 -0.000278195 8.95442e-21)
(-0.000812466 0.000242338 -1.98309e-18)
(0.0207426 0.000757134 3.83411e-18)
(-0.00145004 0.00183065 1.08626e-18)
(-4.92293e-05 0.00504637 1.63195e-17)
(0.00102881 0.00127402 2.79018e-17)
(-1.96111e-05 0.0171814 5.34629e-19)
(0.000461078 -0.000280062 1.13509e-21)
(0.00382215 -0.0188927 -7.2357e-18)
(-0.00900508 0.154179 -1.56788e-18)
(3.02186e-05 0.00184926 2.44855e-18)
(-0.00111045 0.00146117 -4.70159e-18)
(-0.0223644 0.0923312 -1.8871e-18)
(0.0283136 -0.090024 -4.00196e-18)
(0.0064372 0.00655706 -7.54446e-18)
(-0.00152056 2.10144e-05 -2.97098e-20)
(0.00798585 0.0852551 1.57056e-17)
(0.0750564 0.00165398 -1.876e-17)
(0.0981492 -0.0401125 2.52673e-18)
(0.000843232 -0.000261135 1.22778e-18)
(0.00400208 0.00562745 1.28807e-18)
(0.03485 -0.00306169 -2.37849e-18)
(0.00317434 -0.0106923 -1.38486e-19)
(0.0463422 -0.0137557 -1.93541e-19)
(-0.00502985 0.00756397 1.43339e-18)
(-0.0741103 0.0552094 -4.07708e-18)
(0.000314798 0.000661512 4.75266e-19)
(-0.0826897 0.0495944 3.11078e-18)
(0.00100091 0.00861942 2.95218e-18)
(0.00028352 -1.87578e-05 3.13746e-20)
(0.00510333 -0.00808087 2.69444e-20)
(-0.00141454 0.00191964 6.87788e-18)
(0.0124245 0.00176706 -2.55547e-18)
(0.000302543 0.00091052 1.06683e-18)
(-0.000884912 0.000132819 -1.77731e-19)
(-0.00018967 -0.000337257 4.67546e-21)
(-0.000214666 0.000181735 -4.88356e-19)
(-0.00287153 -0.00100647 -6.74881e-18)
(-0.00431741 -0.00314915 -7.56381e-20)
(0.0648335 -0.0509171 2.65335e-18)
(0.000646162 0.130424 8.4004e-19)
(-0.000736966 -7.60735e-05 -6.40004e-22)
(0.0387464 0.0460229 4.90527e-18)
(0.00782254 0.00404762 3.69759e-18)
(-0.0117043 0.0357968 3.60356e-19)
(-0.00739388 0.125586 1.00035e-18)
(-0.00158807 0.0016755 -5.04827e-18)
(0.000324811 -0.000143592 -6.90194e-22)
(-0.000797427 -0.00037288 -2.27978e-20)
(-0.00696265 -0.0107379 -5.54958e-20)
(0.00687402 -0.0177012 7.90887e-18)
(-0.000427515 0.00103105 -2.25882e-18)
(-0.00325599 0.00306666 -1.35595e-17)
(-0.00349195 0.00642845 1.68236e-18)
(0.0004048 -4.76633e-05 6.88631e-21)
(-0.00512998 -0.0094962 1.41349e-18)
(0.0604793 -0.0454833 8.67914e-19)
(-0.0386387 0.0189745 8.73899e-19)
(0.00140566 0.00150419 5.06409e-19)
(0.020493 0.000909781 2.41158e-18)
(0.002167 0.00821558 -8.17276e-18)
(-7.81577e-05 4.17326e-05 -1.22613e-19)
(-0.000765987 0.000298953 -2.95652e-18)
(0.0536856 -0.00826976 1.16297e-18)
(0.00808488 0.0067315 -9.18627e-18)
(-0.00291493 0.00501971 -4.7005e-18)
(-0.00163815 0.00152448 1.1039e-17)
(0.0107928 0.020731 1.90334e-19)
(0.000355551 -7.5904e-05 4.01683e-20)
(-0.000461128 7.98175e-05 2.92177e-19)
(-0.0629261 0.0497142 -5.33001e-19)
(0.00039148 -4.66378e-05 5.98788e-21)
(0.000306635 0.000865217 1.87633e-18)
(0.000356545 -9.43039e-05 5.60963e-20)
(-0.000593715 -0.000100082 2.33359e-20)
(0.000746948 0.00846432 -3.51602e-19)
(-0.00191115 -0.00081498 -9.28866e-18)
(-0.00119315 -0.00476433 -1.28833e-18)
(0.000384473 -5.54415e-05 4.30904e-20)
(-0.0113403 -0.124593 2.63511e-19)
(-0.0111469 0.0282139 -7.73805e-19)
(-0.000478677 -0.000244061 3.972e-20)
(-0.000534664 3.67747e-05 -2.14291e-19)
(0.000511984 0.000625412 1.804e-19)
(-0.0016357 2.36445e-05 1.91829e-18)
(-0.0667452 0.0169736 -1.22431e-17)
(0.00124349 -0.0237672 1.85494e-18)
(0.012049 0.00928275 -9.78422e-19)
(0.1198 -0.0413476 5.27537e-18)
(-0.00239407 -0.217687 -3.27789e-18)
(-0.00150581 0.00146298 -2.3876e-19)
(0.0119845 0.0012542 -2.06069e-18)
(0.0149818 0.0024676 9.31005e-18)
(0.00172621 -0.00466453 -1.95448e-19)
(-0.00148577 0.00179801 3.44489e-18)
(0.00032239 -0.000157353 5.26765e-21)
(0.00141668 0.00226254 -2.35963e-19)
(0.00199955 0.00353862 -2.42695e-18)
(0.00743041 0.00227721 -6.00336e-18)
(-0.0338681 -0.10263 -3.97017e-21)
(-0.00301344 0.00304737 6.22599e-18)
(-0.000164788 0.00240157 1.95947e-18)
(-0.000794124 -0.000292355 1.1236e-19)
(0.00305013 0.00132301 8.94784e-19)
(-0.000490915 -0.0029202 1.06804e-19)
(-0.0257981 -0.0908526 -4.99476e-19)
(-0.00112004 0.00153258 1.08061e-17)
(-0.000895546 0.000191972 -1.25486e-18)
(0.00158188 0.00559167 4.13207e-19)
(-0.000781349 -0.000126843 -6.53361e-20)
(-0.000832151 0.00162846 -2.62113e-18)
(0.000615812 -0.00417029 1.77526e-17)
(-0.000747665 0.000372757 -5.45479e-19)
(-9.37898e-05 -2.18173e-05 -3.58175e-19)
(0.00530845 0.00183693 -7.04988e-19)
(-0.000560034 0.000473283 -1.67306e-18)
(-0.00296823 -0.000371633 3.6267e-18)
(-0.0286015 -0.0118561 -1.52013e-19)
(0.00153627 -0.0014207 -2.17469e-18)
(0.00330117 0.000537335 -1.07817e-18)
(-0.00331049 0.00515108 -4.48588e-18)
(-0.000786897 -0.000272433 3.52155e-20)
(-0.0461506 0.019133 -1.85756e-18)
(-0.00651496 -0.00481474 1.38539e-19)
(0.124818 -0.0381272 -1.05746e-19)
(0.000548486 0.000424172 3.66555e-19)
(-0.000691492 2.22777e-06 1.23769e-19)
(0.00925124 0.00415356 -8.13639e-18)
(0.000634257 0.00099717 4.0939e-19)
(0.0470642 0.00169013 8.11058e-18)
(0.0113768 0.0052121 1.92657e-18)
(0.070638 0.0438812 -4.13537e-18)
(0.0959968 -0.0279787 5.67608e-19)
(-0.000802703 -0.000172405 4.31315e-20)
(0.00870753 0.00483362 3.25276e-18)
(0.000437393 -0.000470439 -2.2143e-20)
(-0.000567117 -0.00012737 4.03984e-20)
(0.000281353 -1.92239e-05 5.13228e-20)
(-0.000514054 -0.000109725 -1.88581e-19)
(-0.000452111 -0.000702169 -5.75345e-22)
(0.0011444 0.00407947 -1.84471e-19)
(0.000632833 -0.00447332 -7.2441e-20)
(0.000370551 -5.25464e-05 -1.72267e-20)
(-0.075501 -0.0344469 1.01931e-18)
(0.0239666 -0.00328545 -1.45282e-19)
(-0.0736133 -0.0439559 -1.26184e-18)
(-0.000322001 -0.000382428 -7.70716e-21)
(0.000276435 -2.32675e-05 -9.3458e-21)
(3.04939e-05 2.83729e-05 -1.537e-19)
(-0.00718194 -0.00934164 -1.47768e-18)
(-0.0291 -0.0817788 -5.41893e-19)
(-0.00221548 0.00170854 -1.33405e-17)
(-0.000811605 0.00169057 3.38564e-19)
(0.000446292 -0.000516163 3.21557e-20)
(-0.000531879 1.3767e-05 7.56953e-21)
(-0.000742457 -4.76888e-05 -5.75488e-21)
(-0.000118823 -0.000423852 9.65812e-21)
(0.00171434 0.00963811 2.62411e-18)
(0.00616182 0.0911267 -2.93834e-19)
(-0.000594629 0.000455838 -1.64081e-18)
(0.000365049 -5.91106e-05 3.17256e-21)
(-0.000835336 0.000230088 -5.26423e-19)
(-0.000135565 -0.000398064 1.98651e-21)
(-0.0404743 0.0518073 -6.70769e-19)
(-0.0121946 0.0698224 6.36727e-18)
(0.00310008 0.00171592 2.21242e-18)
(0.0233079 -0.00284962 -2.70847e-18)
(0.0333054 -0.140381 2.41875e-18)
(-0.000139387 -2.36397e-05 -2.0518e-19)
(0.000226109 0.00461956 -2.328e-17)
(-0.0777599 -0.00771553 -2.70761e-18)
(-0.00155527 0.00181381 1.32996e-17)
(-0.076252 0.102784 -4.9582e-18)
(-0.000542492 0.000592173 -5.47241e-18)
(0.000317509 0.00254651 3.48779e-20)
(-0.00215632 0.00169621 1.26635e-17)
(0.000919141 0.00300861 4.37673e-20)
(0.00806808 0.0281481 -3.94743e-18)
(-0.000785547 0.000238395 3.37808e-18)
(0.0358868 -0.00900838 -9.89045e-19)
(0.000173343 -5.35418e-06 -5.74399e-20)
(-0.00160493 0.000882463 -6.59093e-18)
(0.0130143 0.00339078 -1.36168e-17)
(-0.00107493 -0.000668309 4.64861e-20)
(0.000771343 0.000820105 -9.06556e-19)
(0.0135976 0.0174545 1.26871e-18)
(-0.000656437 -0.000203573 -3.1137e-20)
(0.00011627 0.00169963 -1.82865e-18)
(-0.030625 -0.0469154 -1.24441e-18)
(0.0221057 -0.0525393 -2.3776e-18)
(-0.00126577 0.00142126 -1.74328e-17)
(-0.00470968 -0.0191094 7.30344e-19)
(-0.016794 0.0412963 1.71064e-19)
(0.000342169 -8.80247e-05 2.70697e-20)
(-0.000340506 -0.00036257 3.14003e-20)
(-0.0202751 -0.0838168 8.62757e-18)
(-0.0039161 0.00607404 9.37957e-18)
(-0.00951758 -0.00203944 1.66145e-20)
(0.0104991 0.00555781 2.16215e-18)
(-0.000885419 -0.000116994 1.43346e-19)
(-0.00175673 5.82257e-06 2.78104e-18)
(0.000285264 -1.49368e-05 -1.05513e-21)
(-0.0145864 -0.205932 -2.177e-18)
(0.001751 0.00949456 -1.24038e-19)
(0.000623674 0.000404106 7.31367e-19)
(0.000558186 -3.89953e-05 -1.54551e-19)
(0.0179159 -0.0180699 -3.21154e-19)
(-0.000621535 0.00124773 1.5652e-19)
(5.18476e-05 3.06599e-05 1.22732e-19)
(0.0514149 0.034772 6.23053e-18)
(0.061826 -0.00865911 8.66604e-20)
(0.00618781 0.00819289 -7.62389e-18)
(0.00041368 -8.91726e-06 7.93007e-20)
(-0.000595403 0.000442385 -2.45688e-18)
(0.00984709 0.00149519 -1.93967e-18)
(-0.00860767 0.057221 -6.87939e-18)
(-0.00478481 0.00522914 -2.45572e-18)
(-0.000747171 -0.00253278 -1.36133e-19)
(0.00461943 0.00632998 2.62821e-18)
(-0.000710427 0.000240916 -2.09923e-18)
(0.0253223 -0.013033 -3.15057e-19)
(-0.0209952 0.00875352 -1.13968e-18)
(-0.00587196 0.0104639 -5.19708e-18)
(0.000549034 0.00131366 -5.42083e-18)
(0.0820813 0.0316244 -5.36252e-18)
(-0.00484821 0.00157288 -4.05231e-19)
(-0.00397877 -0.0031542 -4.87116e-19)
(-0.000989485 0.00862709 -1.80517e-18)
(-0.00069432 2.96193e-07 8.89757e-20)
(-0.000906376 -2.87018e-06 -2.16744e-19)
(0.000332614 0.000658572 9.80344e-19)
(-0.000806325 -0.000257968 5.23392e-21)
(0.0604066 0.0489899 9.00588e-18)
(0.00099899 0.00310328 2.8387e-18)
(0.00151717 0.00203578 -5.4566e-18)
(-0.000181359 -0.00466017 8.32091e-19)
(0.011025 -0.0106632 -2.33287e-19)
(-0.000787041 -0.000309797 2.24273e-19)
(-0.00963437 -0.0648187 1.21696e-18)
(-0.000733238 -2.9868e-05 -1.64863e-21)
(-0.00431785 0.00266396 -5.70309e-19)
(0.000276222 -1.69223e-05 2.12197e-21)
(-0.000136117 -4.73407e-05 1.07902e-18)
(-0.000759918 -2.50043e-05 1.28621e-19)
(0.00756358 0.0069777 1.91158e-18)
(-0.000212522 -0.000306452 8.28139e-20)
(0.000315664 1.56541e-05 -1.24125e-20)
(0.0353714 -0.0296354 -6.15774e-19)
(-0.000758958 0.000310438 -3.19311e-18)
(0.0103151 0.00214448 -1.16236e-18)
(0.000127328 7.85939e-07 -1.92455e-20)
(0.000500198 -0.00213321 -5.52373e-19)
(-0.00198013 0.00242735 -3.9653e-19)
(-0.0433821 0.0574686 3.33153e-18)
(-0.0230438 -0.016888 4.49215e-19)
(-0.00079677 -5.58951e-05 -2.49705e-20)
(-0.0349113 -0.028548 -9.79606e-19)
(0.0212787 -0.0071384 -3.33129e-19)
(-0.00026859 0.000650271 -8.92911e-20)
(0.00486371 0.00765527 -1.26853e-17)
(-0.00156738 0.000899337 1.58092e-18)
(-0.000792152 -0.000227463 -1.74479e-20)
(-0.0176348 -0.00912738 4.88992e-19)
(0.0331187 0.0290561 2.48033e-17)
(-0.039666 -0.0207212 2.10038e-18)
(0.000934207 0.00111387 3.09931e-18)
(-0.000746215 -6.54407e-05 2.46976e-20)
(0.000348132 -5.56449e-05 -3.27987e-20)
(-0.000737681 0.110536 2.67646e-18)
(-0.00698356 0.013353 -5.89837e-19)
(0.00809878 -0.0106468 1.53569e-19)