/*--------------------------------*- C++ -*----------------------------------*\
| =========                 |                                                 |
| \\      /  F ield         | OpenFOAM: The Open Source CFD Toolbox           |
|  \\    /   O peration     | Version:  v2012                                 |
|   \\  /    A nd           | Website:  www.openfoam.com                      |
|    \\/     M anipulation  |                                                 |
\*---------------------------------------------------------------------------*/
FoamFile
{
    version     2.0;
    format      ascii;
    class       volScalarField;
    location    "400";
    object      p;
}
// * * * * * * * * * * * * * * * * * * * * * * * * * * * * * * * * * * * * * //

dimensions      [0 2 -2 0 0 0 0];


internalField   nonuniform List<scalar> 
13851
(
0.000982641
0.016805
-0.0239493
0.000908002
-0.0423333
0.00902264
-0.0185882
-0.0275362
0.000977946
-0.0174942
-0.00661645
-0.0287507
-0.0672357
-0.11912
-0.0114567
-0.0144927
-0.0234755
0.000176895
-0.0497664
0.000928982
0.000670386
-0.0253919
0.000645552
0.000563359
0.000680104
-0.0261953
-0.033072
-0.0646937
0.000522787
-0.00661589
0.00906312
-0.0237139
-0.0236453
-0.0182319
0.000522086
-0.0784143
-0.0825553
-0.0173053
-0.0183156
-0.0132915
-0.00364122
0.000476081
-0.120289
-0.0119905
-0.0112701
-0.110958
-0.0119279
-0.000188751
-0.0338616
-0.000820163
-0.0582739
-0.0627177
-0.0800446
-0.0112863
-0.00527953
0.000466852
0.000907124
-0.0738347
-0.0066154
-0.0189774
-0.0150517
-0.0135458
0.0037421
-0.0458396
0.0243213
0.00251247
-0.0817434
-0.0119627
-0.0442851
0.000369723
-0.0816362
-0.0832841
0.00486374
-0.0113893
-0.00444789
0.00133957
-0.0262846
-0.094137
-0.0403981
-0.0803262
-0.0205371
0.000241877
-0.0116507
-0.134303
0.00408768
-0.0328508
0.00669711
0.0135732
-0.0298049
0.00109233
-0.0780205
0.00406891
-0.0100469
-0.0334076
-0.0303948
0.00102213
-0.0437355
-0.0875076
-0.000711527
0.00101995
-0.0928412
-0.0478564
-0.00315484
-0.0391073
0.000184884
0.00451808
-0.0514715
0.000295436
-0.0838923
0.00942934
0.00076357
0.00106141
0.00395092
0.000596622
0.000776957
-0.0170094
-0.0842839
0.000411631
-0.0012253
-0.00459685
-0.119132
-0.0382392
-0.0666385
-0.01928
0.00114432
0.00117154
0.00214212
-0.0437556
0.000654778
-0.0378959
-0.00375514
-0.000234994
-0.0826667
-0.011728
-0.0201944
-0.0006188
0.0004113
-0.0827208
-0.0320368
-0.0274666
-0.0919124
-0.00487573
0.00229339
0.000856216
-0.0170492
-0.0116308
0.000376682
-0.0352928
-0.0180797
-0.00860358
-0.0715483
-0.00419382
-0.120998
0.000959611
-0.0244824
-0.0164505
-0.000204163
-0.00901292
-0.0612271
-0.0567727
9.25369e-05
-0.0402196
-0.0759931
-0.000154551
-0.00581863
0.000700075
0.000522376
-0.0456139
0.000419601
-0.0949476
-0.0936336
0.000937265
-0.000300589
-0.0337293
-0.000182749
-0.0025133
-0.0426729
0.0022781
-0.0548474
0.000280752
-0.0233299
-0.081012
-0.0118973
-0.0256091
3.61306e-05
0.000904277
0.00233708
-0.0045779
-0.0390626
-0.00553825
-0.0113306
-0.0797937
0.00099359
-0.0403504
-0.00769871
-0.023209
0.00219715
-0.0096348
0.00223453
0.00135338
0.00114002
-0.077697
-0.00209865
-0.00824075
-0.0108949
-0.0121427
0.0116882
-0.0255898
-0.0876731
0.000162379
-0.0879786
-0.00335074
-0.00978511
0.000185689
0.000761536
-0.000577306
0.00584184
-0.113585
-0.0115123
-0.0879364
-0.025594
-0.0211853
-0.0909772
-0.0523252
-0.084861
0.000898508
-0.0344215
0.000199365
-0.0895545
0.000170156
-0.0252466
0.0184571
0.000932746
0.0010506
-0.0586939
0.00554476
0.0146288
0.0258436
0.000811166
-0.00845579
0.00758522
-0.0153036
0.000187063
-0.0111517
0.00019885
-0.0865496
-0.0470764
-0.0143176
-0.0153635
-0.0168395
0.00347813
-0.0159024
-0.0154725
-0.016043
-0.0566709
0.00338895
-0.00417316
-0.0845084
-0.106321
-0.0131797
0.000778053
6.47746e-05
0.0100086
0.00102724
-0.0405154
-0.0226054
-0.0155967
-0.0332999
-0.0902681
0.000596154
0.00355012
-0.0239076
0.0139718
-0.0402308
-0.0138713
-0.000201672
-0.00119495
0.00145845
-0.0832032
-0.00432722
0.000140673
0.000101981
0.000114579
-0.0562242
0.00657157
-0.00762571
0.00111306
-0.0119644
0.0123503
0.00303751
-0.0347603
-0.00728581
-0.0190997
-0.0434792
0.00286966
-0.0466134
-0.00830361
-0.0241347
-0.000208755
-0.0860701
-0.0399317
-0.0224112
-0.0842206
-0.00670067
0.00601231
-0.0927402
0.00105975
-0.0521026
-0.032439
-0.00721597
-0.0223536
-0.00782389
-0.0139623
-0.0923281
0.000554354
-0.0173566
0.00115544
-0.0849758
-0.0749756
-0.0116512
-0.0514535
-0.0120318
-0.105303
0.00455649
0.000782678
0.00069879
-0.0741479
-0.0341914
-0.025458
-0.0118578
-0.00693372
-0.013552
-0.00777194
-0.107494
-0.0722838
0.00226904
-0.0828875
0.00741498
-0.0113614
-0.0397937
-0.0321523
0.00475123
0.00976549
-0.0633157
-0.0436799
0.00355722
-0.00678008
-0.0898855
-0.0114627
-0.000545637
-0.000305057
-0.0104059
-0.0259135
0.0110733
-0.0875488
-0.000227155
-0.00673294
0.000739407
-0.0119593
0.000178276
0.000266291
-0.000538082
-0.0895516
-0.0116183
-0.00918978
-0.0516387
0.000600113
-0.0185604
-0.00946515
-0.009405
-0.0860496
-0.00897822
0.00647113
-0.0305252
-0.00837158
-0.00342824
0.000446044
0.00469775
-0.0862515
-0.00439467
-0.0137239
0.00477592
-0.0646671
-0.0994728
-0.00382572
-0.00367676
0.00296584
-0.000753653
-0.0113942
0.00191469
-0.0525573
-0.121543
-0.0472683
-0.0867356
-0.0901811
0.000652006
-0.0134624
-0.0824311
-0.0816013
0.0167829
-0.0851377
0.00471019
-0.0309819
0.00093972
0.0043323
0.000968387
-0.015654
0.00295609
-0.0168624
0.000143099
0.00105633
0.000677475
-0.0472561
0.00813741
-0.106639
0.00101137
-0.0522767
0.00608925
-0.015005
-0.015388
-0.0129197
-0.0219918
0.00216892
0.000387968
0.00101233
0.000949651
-0.00931635
-0.00983983
-0.0478355
0.00587553
-0.103513
-0.0144326
0.00568238
-0.00427238
-0.0600328
-0.00351774
-0.0120308
0.000305505
-0.0218975
-0.0123912
-0.0226859
-0.0886143
0.00226257
0.00210713
-0.0127483
-0.0808014
8.03272e-05
-0.0316727
-0.0415374
0.000407478
0.000902835
-0.0128864
-0.0708533
-0.0626213
0.00249162
0.00288435
0.000883888
0.000868025
-0.122829
-0.00502378
0.000101826
0.0135998
-0.000692364
0.00110622
0.000842877
0.000470105
-0.00840695
0.000145174
0.00225704
-0.0881643
-0.0117807
-0.0476305
-0.000670486
0.00377219
0.00279622
0.000452128
-0.0019324
0.000569632
0.000508807
-0.00584692
-0.0163399
0.00670941
-0.0119799
0.000934195
-0.101995
-0.0881495
-0.0126922
0.00390506
-0.0161572
-0.0137765
-0.130105
0.000792548
-0.0144163
-0.00365698
-0.0362219
-0.0175192
-0.103
0.00033535
-0.0817186
-0.00109325
0.000503711
0.00372616
-0.0960992
-0.0243754
-0.00481083
-0.00135229
-0.016044
-0.00540831
0.000140763
-3.76738e-05
-0.0171312
-0.082665
-0.0544983
-0.0698032
-0.0697056
0.00411805
0.000133342
-0.0443685
-0.0129758
-0.0243261
-0.0394124
-0.0130805
-0.0178108
-0.0863379
-0.0106644
-0.101143
-0.120087
-0.0824773
-0.00662954
0.00375317
-0.0080636
0.00183145
0.00629273
-0.0110588
-0.0193565
-0.00845496
-0.0174834
-0.08362
0.000350975
0.00198721
-0.0560648
-0.087352
-0.0147671
-0.00908702
-0.000284558
-0.00580493
-0.0407972
0.00356987
0.0136764
-0.00168516
0.000179042
-0.121568
-0.0934569
0.00347206
-0.0130663
-0.0463155
7.8887e-05
0.00100963
0.00150862
-0.0505222
-0.0253311
-0.0714314
-0.0774318
0.000441844
0.00701219
-0.00844927
-0.011785
-0.0586691
-0.0829587
-0.0849975
-0.00354823
-0.0171755
0.0100392
-0.0914969
-0.0737356
-0.048242
0.00344535
0.000282843
-0.00556196
-0.0186955
0.000419994
-0.0140961
0.000248391
-0.00135887
-0.0828526
-0.0439728
0.00523469
0.000399091
-0.00435435
-0.0109551
-0.000425771
0.000981905
0.00103211
-0.0114144
-0.0847978
-0.0122472
-0.00995656
-0.0772454
-0.0220935
-0.0474062
-0.0870735
-0.0864721
0.0036507
-0.0435972
5.49448e-05
0.00105104
-0.0181188
-0.0818162
-0.000606839
-0.0705046
-0.0265434
0.000896423
-0.0120135
0.00235484
-0.00434839
-0.053527
-0.0117756
0.00235143
0.000878413
-0.0347663
-0.046228
-0.018409
-0.00330098
-0.0105871
-0.0159843
-0.0409414
-0.0107936
-0.0527419
-0.00993298
-0.0745977
0.000862898
0.0124377
0.00436504
-0.0833176
-0.00376243
0.000946679
-0.0851829
-0.00375706
-0.107098
-0.0886666
-0.118429
0.0172484
0.000938292
-0.085594
0.000133272
-0.00113424
0.000311628
-0.00136633
0.000112924
0.00150781
-0.000228571
0.000376981
0.00977859
-0.00271394
0.00951967
-2.78765e-05
0.000240838
0.000719919
-0.0301933
0.00303022
-0.0615784
-0.0346291
0.000193024
0.000957444
0.000134856
0.000152796
-0.0785488
0.000727172
-0.0156796
0.000344428
-0.0173295
1.54046e-05
-0.0220537
-0.0765193
-0.0128861
-0.0835741
-0.0156864
-0.00337755
-0.0684792
-0.0849307
-0.044243
-0.0233255
-0.0200017
-6.68841e-05
-0.0605479
0.000585929
-0.00989566
-0.0124473
-0.0118752
0.000328724
-0.0533226
-0.0887341
0.00151681
-0.00348891
0.00317932
0.000168128
-0.0230102
0.00402546
-0.059584
-0.0518812
-0.0375921
-0.00286699
0.000228749
-0.000112332
-0.0980935
-0.0769407
0.00674632
-0.0882995
0.00114549
-0.0111901
0.000375281
-0.0203804
-0.08323
-0.00888207
-0.00146024
0.0016495
-0.0308803
0.000691409
-0.125959
-0.00127239
-0.0981631
0.000521163
-0.0158184
-0.0893271
-0.0704371
-0.0775974
0.00219818
-0.0852666
-0.0120568
0.000959169
-0.0172905
-0.022218
-0.0173435
-0.122251
0.00274314
0.00240468
-0.0824307
0.000875625
-0.00210224
-0.00839708
0.000877963
-0.130435
-0.0210327
-0.0607268
0.00501659
0.0020732
0.00088193
0.00444467
-0.000234837
0.00269789
0.000293878
-0.00324805
-0.00294026
-0.0910087
-0.000453131
0.000527459
0.00463565
-0.0176972
-0.0898727
0.000470352
0.00225636
-0.0630556
-0.0241817
-0.00662108
0.000388401
0.0120733
-0.0767154
-0.0161604
-0.0907832
-0.0522751
0.000868319
0.00275941
-0.121606
0.0086262
-0.0144712
0.000156068
0.000328405
-0.0154554
-0.0208282
0.00276108
-0.00794673
0.00303573
-0.0108681
0.00229221
-0.0737644
-0.0155034
-0.0374597
0.00188021
-0.0155057
-0.0377187
-0.0615627
-0.0834284
-0.00816242
-0.0050913
-0.0660014
-0.0180639
-0.120274
0.0117386
-0.0271409
-0.0692201
-0.0941961
-0.0143461
-0.0175695
0.000851244
0.00189544
-0.075593
-0.131812
0.000950773
0.000927551
-0.0582722
0.00186001
0.000572146
-0.0759301
0.00112406
-0.0103499
-0.126757
-0.090385
-0.00216016
-0.00106886
-0.0118961
-0.0717204
-0.0776185
-0.0728436
0.00304278
-0.0699226
-0.0112111
0.00222083
-0.0500092
-0.0503165
-0.0132759
-0.0174577
0.0011526
-0.0640914
-0.0819584
0.0043213
-0.0460695
-0.133328
-0.034854
-0.0932846
-0.0138931
-0.0473626
-0.000366909
-0.0109159
-0.00322912
-0.0235649
-0.011506
-0.0840391
0.000573697
-0.062138
-0.00473204
-0.014792
-0.0483567
-0.0460419
-0.0857889
-0.0547837
0.00201214
0.000525624
-0.0612575
-0.00487592
0.00388994
-0.0128555
-0.0906531
0.000976193
-0.0697469
-0.0145779
-0.0117722
-0.0909899
-0.089309
-0.0906411
-0.0147076
0.00422014
0.000560245
-0.09903
-0.0114485
-0.0122877
-0.0866272
-0.000239556
-0.0305113
-0.0119808
-0.0113806
-0.00814667
-0.0137624
0.000974869
0.00448084
-0.0873809
-0.0579774
-0.0143676
0.00270658
-0.0169858
-0.124819
-0.0614232
0.000548798
-0.0181884
3.15811e-05
-0.0020339
0.00030663
0.000948039
-0.0127759
-0.00766566
-0.0101653
0.00225955
0.000644656
-0.00898372
-0.0839054
-0.0945927
-0.032567
-0.00246523
-0.00492058
-0.03055
0.000582641
-2.74767e-05
-0.00816654
-0.00977468
-0.0849985
-0.0126607
-0.0596177
-0.0138886
-0.0153226
0.000379517
-0.0664142
-0.00119356
0.00728937
0.00286128
-0.0764097
-0.0216702
-0.0270426
-0.0812368
-0.0354118
0.00462745
-0.0255046
0.00786344
-0.0905197
-0.0301796
-0.00673121
-0.00394212
-0.0537779
-0.0493287
-0.00617593
0.000388345
-0.0216406
-5.48091e-05
-9.17946e-05
-0.111616
0.00108095
-0.0553406
-0.0176734
-9.87158e-05
0.00683625
-0.000262832
-0.0119994
0.000251712
-0.0195161
-0.0809872
-0.000304502
-0.0772988
-0.121187
-0.00946983
-0.0576214
-0.0169946
-0.000175248
0.00104061
-0.00557985
-0.00026785
-0.0636206
-0.024203
0.00107817
-0.00160268
0.000822451
-0.0943777
0.00287733
0.00365545
-0.0887738
-0.0803871
-0.00541573
-0.00889849
-0.0274451
-0.000456917
-0.0134293
0.00261262
-0.00285215
-0.00468724
-0.0121208
-0.0132446
-0.0872699
0.000846588
-0.0631614
-0.0208756
-0.0301831
0.000282393
0.00112689
-0.0176221
0.00862887
-0.0105593
0.00145469
-0.0107827
0.00384401
-0.0122067
-0.0208451
-0.0156861
0.0437305
-0.0597839
-0.010786
0.000912471
-0.00750102
0.00583315
0.00407015
-0.0375778
-0.015678
-0.0308026
-0.0248734
0.00273072
0.0120566
0.00113631
-0.106471
-0.0802149
-0.00885133
-0.0632815
-0.0112151
0.000945513
-0.0015021
-0.000497092
-0.0154837
0.000867769
-0.000151901
0.00143701
-0.0591048
0.000681799
0.00138187
-0.0212891
-0.038083
-0.0825268
0.00465116
0.00202107
-0.00316193
-0.0649366
-0.0298188
-0.02873
-0.116455
0.00380863
-0.0655901
0.000800698
-0.0532797
-0.00898265
0.000844872
-0.00167556
-0.0951342
-0.0740173
-0.00865566
-0.0383243
0.00222855
-0.01017
0.000199487
-0.00529729
-0.00801251
0.0147867
0.000109232
-0.0369841
0.009217
-0.0847065
0.000495129
0.0316709
0.000214996
0.00421414
-0.0189864
-0.0894162
-0.0737654
-0.0631722
-0.00796336
-0.0929129
-0.011972
-0.0649147
0.00100362
-0.020183
0.000663673
-0.0135275
-0.0407481
-0.0141245
-0.0904632
-0.0215368
-0.0311969
-0.0175228
-0.0597548
-0.00270697
-0.0117654
-0.0295882
-0.00882415
0.000957952
0.00232142
0.0106208
-0.0273977
0.00454935
-0.00384454
-0.0363385
0.00325388
-0.0122244
-0.0824199
0.00547977
0.000941298
-0.0232591
-0.105173
-0.0234471
-0.0223719
-0.0224542
0.00320189
0.000783262
-0.0844965
0.00237241
-0.0387972
-0.0330303
-0.089589
-0.00130153
-0.0396721
0.0168801
-0.00327563
0.00382276
-0.0109092
-0.0966654
0.00684942
-0.0909275
0.000858777
-0.0398323
-0.073234
-0.0209053
-0.0886847
-0.07877
0.000667085
-0.000331171
-0.0894343
-0.00420241
-0.0834178
-0.00766345
-0.00755996
-0.0857092
-0.0244785
-0.11222
-0.00819281
-0.0173516
-0.0095833
-0.0915022
-0.0772984
-0.0189708
0.00228736
-0.0208992
0.00532061
-0.0851319
-0.011895
-0.0133181
-0.0851107
-0.030857
-0.00178656
-0.0711925
-0.00243254
-0.0189396
0.000127611
-0.0654474
-0.0902163
0.00107115
-0.003333
-0.0197132
0.000686678
0.000849403
-0.0039153
-0.00964514
-0.00695428
-0.0594504
0.000110227
-0.0839436
-0.0228427
-0.121912
-0.00762766
0.00704453
-0.0611173
0.00323873
0.00417412
-0.00678214
0.0013097
0.000403564
-0.0119088
0.000958019
-0.00102936
-0.0031797
-0.0819937
7.59105e-05
0.00241089
-0.103263
-0.0206136
-0.0149717
-0.0175389
0.00088768
-8.10797e-05
-0.0455948
-0.0846764
-0.101893
-0.000522412
-0.0537613
-0.0124353
-0.00470159
0.0011555
-0.0929339
-0.0415571
-0.0125699
-0.068385
-0.0282009
0.0131436
-0.0840247
-0.0843072
0.00492491
-0.00219035
-0.0177043
0.0486132
-0.0512557
0.000226455
-0.0713741
-0.00633094
-0.00482974
0.00543727
-0.0906488
-0.00446843
-0.126512
0.00571209
-0.103072
0.00267621
0.00469353
-0.00488284
0.00859699
-0.00244201
0.00100146
-0.0234319
-0.0938522
-0.0988964
0.0317704
-0.0882533
-0.00399982
-0.0844286
-0.0899153
-0.0443319
-0.00822192
-0.00111102
0.00135734
-0.00301602
-0.080049
-0.00697663
-0.0216071
-0.00436385
-0.0394812
-0.084226
-0.0875841
-0.000981907
-0.0849937
-0.0082742
-0.00463181
-0.00432995
0.000575005
-0.0716749
-0.0147152
-0.086163
-0.00871367
0.00243677
-0.0718054
-0.0114211
-0.00858498
-0.0082806
-0.0779494
0.00226673
-0.0186922
-0.00116503
-0.00388884
-0.0741683
-0.0231333
-0.0201101
0.000969436
-0.0188537
-0.0124718
-0.0834311
-0.000488246
-0.0450289
0.000232331
0.00288644
0.00121703
-0.0160878
-0.0209429
-0.0480629
-0.0323477
-0.011395
0.00024406
-0.00414487
0.00171411
-0.0119394
0.0014928
0.00222818
-0.0922733
-0.0306824
0.00213842
0.00460069
0.000676928
-0.0693742
-0.0895636
-0.0308177
-0.0421642
-0.0114412
0.000555241
0.000191551
0.00139475
-0.0609966
-0.0845199
0.000489927
-0.00377564
0.0181865
-0.0862838
-0.0205363
-0.0210499
-0.0853976
-0.020611
-0.000807388
-0.0797636
-0.0834791
-0.0066865
0.00131478
-0.00865434
-0.0838101
-0.0775496
-0.0261731
-0.0703699
-0.0897363
-0.0270629
-0.0844146
-0.0260054
-0.00198503
-0.035
-0.0650761
-0.00983799
-0.0696641
-0.0155583
0.000951164
0.00107295
-0.0575118
0.00164475
-0.0760523
-0.0168037
-0.0295573
-0.0516068
-0.00752838
-0.081571
-0.0846678
-0.0137942
-0.0239936
-0.0773754
-0.0311482
-0.102485
-0.018447
0.00221338
-0.00316842
0.00487212
0.00113104
0.00574837
-0.00154639
-0.00850182
0.00623973
-0.0204135
-0.0260499
0.0028799
0.000145171
0.000605141
-0.0120329
-0.020655
0.00412457
-0.0486929
-0.022136
-0.0081485
-0.03429
-0.0263883
0.00384296
-0.0856361
-0.000318451
0.000904985
-0.0789408
-0.0899838
-0.102588
0.00726225
0.000323614
-0.110375
-0.0145471
0.00153248
-0.0388973
-0.00198356
-0.0496409
-0.0589665
0.0015133
-0.0779378
-0.0815244
-0.0242063
-0.0140116
-0.0959476
-0.0131137
0.015111
-0.0449515
-0.110995
-0.0303703
-0.0668463
0.000142465
-0.00841796
0.00100698
-0.0135141
-0.0856154
-0.0861508
-0.0626382
-0.0859916
-0.0298405
-0.0078819
-0.00728704
0.000626716
-0.00483819
0.00110118
-0.0827597
-0.00238445
-0.0875558
-0.00455015
0.00385315
-0.0211772
-0.0809067
-0.0906062
-0.0854773
-0.0481907
0.000647063
0.00111293
-0.0848482
-0.0793725
-0.0300536
-0.00148214
0.000918752
-0.0261605
-0.021659
-0.0753557
-0.0151291
-0.0314979
0.00109746
-0.0769924
-6.77826e-05
-0.0841671
-0.0289799
-0.00332289
-0.0509226
-0.00211973
-0.087586
0.000795646
-0.0843378
0.00114996
-0.0308676
0.00274993
-0.011421
0.00327159
-0.035369
-0.0456599
-0.0796348
-0.0981984
-0.0287897
-0.0263887
-0.00510028
-0.0852189
-0.0895415
8.0665e-05
0.000875599
-0.012099
0.000348565
-0.0808068
0.000327539
0.0027355
-0.0211123
0.00026208
0.000576521
0.00160307
-0.0177964
-0.0659663
-0.0912585
-0.00659075
0.00752831
-0.120284
-0.0220936
-0.0207409
-0.00614896
-0.105384
-0.0448359
-0.0195088
-0.0103012
-0.0112036
-0.0143162
-0.136259
-0.122313
-0.0228991
0.00104101
0.00417471
0.000289689
-0.0836671
-0.00978165
-0.0931515
-0.0781032
-0.0137942
-0.0272473
-0.0093601
-0.00575665
-0.00511353
-0.0179663
-0.0844601
-0.0158945
-0.066416
-0.000224641
-0.00460074
-0.000115017
-0.010415
-0.0738514
-0.0803413
-0.0180483
-0.10178
-0.0600794
0.00102794
-0.0106506
0.00118064
0.00366086
-0.0833465
-0.0812443
-0.0119567
-0.00576121
0.013915
-0.0211997
-0.0449984
-0.0758999
-0.0178108
-0.0859704
-0.0516494
0.00103436
-0.0103324
-7.50523e-05
-0.0492824
-0.0133075
-0.00723874
-0.0847621
-0.0243072
-0.017149
0.00261706
-0.0263903
0.000865162
-0.0637782
-0.0882555
-0.0200982
0.00388884
-0.0286832
-0.0112794
-0.00182817
-0.0120411
0.00110923
-0.109585
-0.0205096
-0.0837888
-0.0101802
-0.0151673
-0.025906
-0.0873301
0.00440317
-0.0380157
-0.108101
-0.00524252
0.0372377
-0.0834766
0.000185859
-0.000241866
-0.0289104
-0.0770819
-0.126562
-0.00882017
0.00202897
-0.0146853
-0.00148048
0.00784958
-0.0112462
-0.0884315
-0.0102549
-0.0261036
-0.0178375
-0.0108574
-0.022882
-0.0500878
-0.00515693
-0.070003
0.00379479
0.000243296
-0.0291991
-0.0841908
-0.0177759
-0.045529
-0.076945
-0.0934527
0.000246481
-0.013313
-0.0267528
-0.0914943
-0.0892683
-0.0118238
-0.0853186
-0.0241185
-0.00103203
-0.00728971
-0.0972542
-0.0181736
0.000957119
-0.105853
-0.00501648
-0.0179706
-0.00233563
-0.134592
-0.00664657
-0.0249748
0.00135023
0.0254779
-0.0228982
-0.00613503
-0.0437477
-0.112591
-0.0148901
-0.0134569
0.00990844
8.34739e-05
-0.0137071
-0.0135936
-0.0278969
-0.0470939
-0.0496915
0.00269943
-0.0889236
-0.0305543
-0.0338148
0.0195793
-0.0287015
0.00157724
-0.0859127
-0.0862201
-0.0436625
-0.00954241
-0.065615
-0.0875557
-0.0147918
-0.0095019
0.00152821
0.0375983
-0.0835929
0.015256
-0.08904
-0.00334147
-0.0627829
-0.00569066
-0.0875508
0.000723452
-0.00172602
-0.0145784
-0.0165706
-0.0910637
-0.0845562
-0.0677268
-0.0240819
0.00107035
0.0168055
0.00286432
0.000991903
-0.0777462
0.00018694
-0.045918
-0.0107402
-0.0182493
-0.00564405
-0.0127267
-0.00301167
0.00341378
0.0043493
-0.0130907
-0.0806533
-0.00182609
0.000366333
0.018565
0.000270634
-0.0116596
-0.0131386
-0.0231517
-0.0263102
-0.00191734
-0.00258475
-0.0648714
0.00129199
0.00306907
-0.00241865
-0.0187329
0.0011489
-0.089298
-0.0139593
-0.00403078
-0.0744572
-0.0367857
0.027394
-0.0894739
-0.0718527
0.00168128
-0.018271
-0.0165648
-0.0235559
0.00355647
0.000918936
-0.0359041
-0.0668627
-0.0843846
-0.0777253
-0.0158527
-0.12804
0.0101376
-0.0239105
0.00189848
-0.0884407
-0.0121007
-0.0323824
-0.0111032
-0.084997
-0.0957842
-0.00712892
0.000893284
-0.023869
0.00286154
-0.0178785
-0.0558919
-0.00505456
0.00110204
-0.0628036
-0.086457
0.00049258
-0.033197
-0.0374551
-0.0859405
8.45117e-05
-0.0995272
-0.065792
0.00140655
0.0013341
-0.0667603
-0.0177443
0.00236906
-0.00931459
-0.00249761
-0.0289019
0.00105198
-0.00149775
-0.0884943
-0.115547
-0.130956
0.000788441
-0.0859865
-0.0137701
-0.0256327
0.00107188
-0.0128067
-0.0269988
0.000464459
-0.0909288
-0.0306123
-0.00802931
-0.10432
-0.10325
-0.0225154
-0.0632071
-0.0993224
-0.0915041
-0.000971991
-0.121944
0.00114025
0.000450844
-0.0106189
0.00127481
0.0011156
-0.082044
0.00309202
0.0022399
0.00257266
-0.0680222
-0.0937064
0.0168755
0.000482454
-0.00855004
-0.017051
-0.0935565
0.00167216
5.14739e-05
-0.00709715
0.0189355
0.000726406
0.000407377
-0.0826694
-0.0453245
-0.0254283
0.00158301
-0.000432676
-0.0199962
-0.0841914
0.000986961
-0.123222
-0.0495745
-0.0151962
-0.0843093
-0.111524
0.00100669
-0.0689209
-0.0163723
-0.130922
0.000437529
0.0262757
0.00243313
-0.0183566
-0.00594519
-0.0730565
0.00102225
0.00113353
0.00289121
-0.0664569
-0.043659
-0.0674651
-0.104933
-0.0150742
-0.0853015
-0.0229719
-0.0364412
-0.0765747
-0.0845605
-0.000362365
-0.0942234
-0.0164737
-0.0180801
0.00055274
-0.0758662
-0.0436323
-0.0294929
-0.0212041
0.00102222
-0.0660458
0.00172717
-0.019457
-0.0115404
0.00189145
-0.0898534
-0.0377319
-0.00299987
-0.0230776
-0.0233557
0.0148564
-0.0336137
-0.0442216
-0.0899394
-0.0116926
-0.0839798
-0.00590192
-0.0283759
0.00200921
-0.0855757
-0.0126908
0.00109509
-0.00016222
-0.0888677
0.00318129
-0.0018316
0.000816138
-0.0170386
0.000988943
-0.0123273
-0.0873385
-0.0829958
-0.097061
-0.0965183
-0.00257012
-0.0746992
-0.0908277
-0.0724505
-0.1188
-0.0915927
0.00192508
-0.0629906
-0.0315221
-0.0436667
-0.0842896
-0.0433313
0.00118466
-0.119244
-0.00165067
-0.0129514
0.00358776
-0.103039
-0.083978
-0.0834059
-0.014052
-0.0182647
-0.00577191
-0.0883121
-0.115127
-0.00724155
-0.0618989
-0.0100512
-0.0138765
-0.0120488
-0.0841844
-0.0534944
-0.0133248
-0.0130812
-0.0280993
-0.00562512
0.00672083
-0.0226974
0.00158883
-0.0127742
0.00299184
-0.0366957
0.000854583
-0.0227599
-0.0149617
-0.00899091
-0.0965087
-0.0903918
-0.00455383
0.014916
-0.0113359
-0.0343117
0.0014829
0.00124012
-0.0192109
0.00146906
0.00212449
-0.00523914
0.00123524
-0.00902554
0.00234587
0.0140885
-0.0916521
-0.0141924
-0.00709004
-0.0894779
-0.0230724
-0.0321473
0.00155406
-0.0134616
-0.00199893
-0.011807
0.000299117
-0.0237982
-0.0113649
-0.0935278
0.00393062
-0.0166227
-0.0191957
0.000862955
-0.00574061
-0.00127203
-0.00740824
-0.0544583
-0.118795
0.00407837
-0.0192761
-0.0109812
-0.0147481
-0.000416905
-0.0179087
-0.00464547
-0.00489398
-0.0743202
0.00252397
-0.0483906
-0.0946527
0.00192019
-0.0039196
-0.0018523
-0.0340895
0.0050828
-0.000559299
-0.018057
-0.0816465
0.00349901
0.00145295
-0.0936542
0.000772425
0.000635768
0.000962056
0.000788925
0.000690288
0.00138878
0.00331064
-0.0611697
0.00197111
-0.0253797
-0.0292222
0.00509484
0.00831993
-0.042318
-0.100798
-0.11052
-0.0408085
0.00549366
-0.0867683
-0.0691426
0.00119426
-0.0224248
0.00106053
-0.0174312
-0.00166635
-0.0209987
-0.000407322
0.000116705
-0.0276906
-0.0182301
0.000711826
0.00117141
-0.0118601
0.00101524
0.00105023
-0.00215634
-0.0939709
-0.0749998
-0.00275275
-0.0105244
0.00103565
-0.0603121
-0.116311
-0.0913129
-0.0190264
-0.0828429
-0.00135751
-0.0826421
-0.0814988
0.0107964
-0.0058844
-0.0106726
5.70909e-05
-0.00356322
-0.00254367
-0.00157155
-0.0206844
-0.0942738
-0.056464
-0.0876746
0.00171047
-0.00195197
-0.0786126
-0.0101535
0.00100549
0.00205793
0.000984171
-0.0218111
-0.00658197
0.00499972
-0.00964921
-0.0850217
-0.0364817
-0.0935875
-0.0247879
-0.0907752
-0.0840284
-0.00577061
0.00136131
-0.00762429
-0.00915585
0.00101169
-0.00688827
-0.0924126
-0.0834127
-0.0118035
-0.0133454
0.00263783
-0.0197016
0.00214947
0.00115064
0.000351173
-0.0732582
0.000123131
-0.0121341
-0.0187752
-0.000154759
-0.0189165
-0.0814628
-0.109096
-0.00673181
-0.0889606
-0.0614815
-0.0847561
0.000820793
-0.0119184
0.000216735
-0.0167829
-0.0800483
0.000844751
-0.0718269
0.00196104
-0.000245705
-0.0128341
-0.0874905
-0.0473356
-0.0556662
-0.0109146
0.000883659
-0.00275793
-0.0713036
-0.0108881
0.00104792
0.00254725
-0.00777031
0.00598048
0.00144142
0.00139102
-0.0844232
-0.0856524
-0.0879783
-0.0233819
-0.0556967
-0.0873587
-0.0676379
-0.0847182
-0.0290366
0.000761326
0.000649091
0.000379672
-0.00618347
-0.0884275
-0.0889579
0.000988961
-0.0688976
-0.0841352
-0.0486363
0.00253478
-0.0101671
-0.00427749
-0.0802109
-0.0917812
-0.00341735
-0.0902294
0.000336403
-0.0545439
-0.0406322
-0.00211501
-0.0834353
-0.0116123
-0.0746863
-0.0774138
-0.00818814
-0.106929
-0.00499562
-0.00162398
-0.0819332
-0.0849167
-0.0684334
-0.0190345
-0.0970285
-0.0766713
-0.0828474
-0.0870648
-0.0949864
-0.0675762
-0.0176193
-0.0131594
0.00320425
-0.0479381
-0.0847088
-0.00629527
-0.0839695
0.000529875
-0.0200602
-0.00359042
0.000597014
-0.0887197
-0.012084
-0.0712048
-0.0908749
-0.0121091
-0.0209037
0.00773932
-0.0849557
-0.0107574
-0.00424561
-0.00291934
0.000459806
-0.087915
0.00189712
0.00123942
-0.0408724
-0.025141
-0.084644
-0.0288796
-0.00793717
-0.0224982
0.00137846
0.00505944
-0.0145043
-0.0688998
0.0021504
0.000299555
-0.0818229
-0.0445073
0.00265543
-0.0659742
-0.0758833
-0.011418
0.0121053
-0.0193659
-0.0847642
0.000751391
0.000999599
-0.0762127
-0.0152596
-0.0864036
-0.0883918
-0.056072
0.00271546
0.00269286
-0.0137239
-0.000728442
-0.0367652
0.000141816
-0.084666
-0.0612211
-0.00179096
0.00119549
-0.0261333
-0.0124661
-0.0953859
-0.0603502
-0.000352016
-0.0871594
-0.0628553
-0.024271
0.00070839
-0.0859569
-0.0828382
-0.0896387
-0.0129312
0.000983122
-0.0452759
-0.013181
-0.0170222
9.48594e-05
-0.00814068
0.00132903
0.00866629
0.000345481
-0.000172383
-0.0150639
-0.0705674
-0.0820833
-0.0131642
-0.0864471
-0.0895783
0.000459088
-0.0829652
-0.0825248
-0.0848018
0.000897083
-0.0135192
-0.0849671
-0.124563
-0.0730516
-0.0378657
-0.00126613
-0.0851683
-0.0623957
-0.0711659
0.00049991
-0.0494797
-0.0602658
-0.0113023
-0.0646344
-0.0903435
0.000398896
-0.113542
-0.0821747
-0.00717251
0.000263584
0.00514322
-0.0114956
-0.0015021
0.00115914
0.000769255
-0.0841122
-0.0799449
0.00240009
-0.0480021
0.000533426
-0.018104
-0.0989357
-0.0857848
-0.0979309
-0.0436481
-0.0866706
0.00205779
0.000986945
-0.0354653
-0.09198
-0.081341
-0.0492121
-0.0800617
-0.0237443
0.000980817
-0.0114104
-0.0228791
-0.0375907
-0.0988329
-0.0828996
-0.0222979
-0.0891445
-0.0974414
-0.00091145
-0.103715
-0.0135628
-0.0298334
0.00517614
-0.0133096
0.00128622
-0.0277581
-0.0279569
-0.0163504
-0.0850229
0.00117011
-0.0598631
-0.0236548
-0.0197445
-0.0804916
-0.0162921
-0.0857717
0.000963033
-0.0717576
-0.0861913
-0.0687746
-0.0751566
0.00276346
-0.00970256
-0.0831675
-0.084781
0.00111456
-0.0234951
0.00099664
0.000177408
-0.0107037
-0.0274353
-0.0840753
-0.089518
-0.00809785
-0.133246
-0.0277596
0.000988722
-0.00160519
-0.0127302
-0.00316716
-0.0434779
-0.0846446
-0.0841528
-0.0695826
0.0049949
-0.0055737
-0.0257151
0.000113358
-0.0845639
0.0130704
0.000802589
-0.0172623
-0.0515473
-0.0271393
-0.0833668
-0.0231787
-0.118352
-0.0164646
-0.086175
-0.0761719
-0.0843873
-0.00708851
0.00190352
-0.0238395
-0.0132768
-0.0767789
-0.0935513
-0.0284071
-0.0295203
-0.0720205
-0.0325686
-0.0238695
-0.0185123
0.00521695
-0.00285885
-0.0759882
-0.0107083
-0.027663
-0.0220914
-0.0249769
-0.0190466
-0.0697766
-0.0750759
-0.0078346
-0.0148385
-0.0354921
-0.0072432
0.00266303
-0.0239949
-0.0363144
0.00187971
-0.135893
-0.0119473
-0.084207
-0.0131393
0.000232862
-0.0115835
-0.0852096
-0.0076923
-0.0823077
-0.0846361
-0.0235412
0.00403618
-0.0716335
0.00235677
-0.075493
0.000526316
-0.00404043
-0.0605914
0.00133849
-0.0820905
-0.00592716
-0.00325785
0.000962721
-0.00651898
-0.035495
-0.0155573
-0.0608629
-0.0580521
-0.0146348
-0.00411598
-0.0630597
-0.099258
0.0237793
-0.043131
0.000570789
0.00176879
-0.0416665
-0.0643483
0.0152102
-0.0615779
-0.0286521
0.00102673
-0.00989116
0.000894921
-0.00332924
-0.00600446
-0.0820531
0.00285139
-0.00289943
-0.00247835
-0.089447
-0.0803048
-0.0369466
0.00122343
-0.0637822
-0.0794309
-0.13796
0.00526086
-0.0247835
-0.0594049
-0.0255857
0.00296649
-0.0771687
-0.0819356
-0.016016
-0.00286089
-0.0808057
-0.0213568
-0.00577033
-0.0098983
-0.0425813
0.00158207
-0.0158249
0.00719858
-0.0186837
-0.0233105
-0.00176198
-0.00197725
-0.0254788
-0.0951048
-0.00146403
-0.0279555
-0.0782106
0.000993337
0.00116526
-0.0822255
-0.0303619
-0.0549529
-0.0123605
-0.026082
-0.016581
0.000963146
-0.000754981
0.00635895
-0.0270151
-0.0819502
-0.0683842
-0.0325618
-0.0840103
-0.018697
-0.0274717
-0.00248411
-0.0105728
-0.0478252
-0.0295025
-0.00517703
-0.0439642
-0.00539104
-0.0191161
-0.0281361
0.00323903
0.000953884
0.0339042
-0.0107073
0.0112931
-8.91319e-05
-0.0368712
0.00139947
-0.0163522
-0.0416828
-0.0751663
-0.0191603
-0.0851271
-0.0202032
-0.0849405
-0.000276257
-0.0540742
-0.038167
-0.0064149
-0.0147949
-0.0273835
-0.04164
0.0122816
0.00124512
-0.0482514
-0.0837403
-0.036615
-0.000208826
0.0130979
-0.0343913
0.0110003
-0.000573476
0.00147109
0.000738913
0.0111254
-0.0036572
-0.0110994
-0.0253949
-0.0851336
-0.0237684
-0.0881521
-0.0018214
0.0309472
-0.0126439
-0.0290656
-0.0133414
-0.00627682
-0.0164513
0.0119739
-0.00159657
-0.131086
-0.0271322
-0.0894707
0.0012162
-0.0120231
-0.042308
-0.0696652
-0.0233959
-0.0577867
-0.0258581
-0.0159147
-0.0172693
-0.00260832
-0.0856536
-0.0808296
0.00401773
-0.0100236
-0.0247519
-0.0078924
-7.52085e-05
-0.0660703
0.00166473
-0.122716
-0.074092
-0.0623594
0.0134646
0.00103631
0.0348924
-0.0624602
-0.028949
-0.00939964
-0.0075578
-0.0127847
-0.00560985
0.0057082
0.0065191
-0.0841285
-0.00607836
-0.00487994
-0.0848959
-0.0403737
-0.0224548
0.00391974
-0.0112279
0.00106429
-0.0120481
-0.0850904
0.000693211
-0.0252953
-0.0900881
-0.0638159
-0.0434516
0.00926738
0.00625773
-0.0846258
-0.0890061
0.0324912
-0.0203775
-0.0162302