/*--------------------------------*- C++ -*----------------------------------*\
| =========                 |                                                 |
| \\      /  F ield         | OpenFOAM: The Open Source CFD Toolbox           |
|  \\    /   O peration     | Version:  v2012                                 |
|   \\  /    A nd           | Website:  www.openfoam.com                      |
|    \\/     M anipulation  |                                                 |
\*---------------------------------------------------------------------------*/
FoamFile
{
    version     2.0;
    format      ascii;
    class       volVectorField;
    location    "800";
    object      ddt0(U);
}
// * * * * * * * * * * * * * * * * * * * * * * * * * * * * * * * * * * * * * //

dimensions      [0 1 -2 0 0 0 0];


internalField   nonuniform List<vector> 
13917
(
(-0.00302943 -0.00315543 -6.22218e-18)
(-0.00129593 -0.000535342 -4.2142e-19)
(-0.103375 0.0701315 -5.64407e-17)
(0.000839469 -0.000589611 5.29074e-18)
(-0.000280923 0.00029192 -2.71589e-18)
(0.000547533 0.00747632 -1.94556e-17)
(-0.123522 0.0600022 -1.09396e-17)
(-0.0858138 0.0701967 -6.58032e-18)
(0.0218746 0.0182722 7.13891e-18)
(-0.00344501 -0.00683602 -5.30885e-18)
(0.0483461 0.0268266 2.19206e-18)
(0.0202253 -0.0018838 1.1985e-18)
(0.000905114 -0.000689254 -1.6827e-19)
(0.0226088 0.00426725 -1.41154e-17)
(0.000195373 -0.00103369 -3.61358e-18)
(-0.000283587 -0.0011355 1.71294e-18)
(-0.00112806 -0.000751074 -4.69738e-19)
(-0.00894616 0.0101002 3.18756e-18)
(0.0193867 -0.00252678 -1.18783e-19)
(-0.000930551 0.00018663 -1.33336e-18)
(-0.000152879 0.000210662 -3.24667e-18)
(-0.125718 0.0577767 2.68872e-18)
(-0.000341172 0.000173263 6.11036e-19)
(-0.0895887 0.0736023 -2.49786e-17)
(-0.00073333 -0.000630031 -8.59559e-19)
(-0.150809 0.0445807 4.3159e-18)
(0.000422613 0.00193341 3.71869e-18)
(0.00182915 0.00242904 -2.74273e-17)
(0.00938965 0.006519 8.73059e-18)
(-0.0134285 -0.00831308 -2.39349e-17)
(-0.00426751 -0.0030338 1.02014e-17)
(-0.00205608 -0.00101902 -1.33553e-18)
(0.000875674 0.000988132 3.45601e-17)
(-1.7635e-05 -0.000299817 -1.10279e-17)
(-0.000360507 -0.000648765 -4.8025e-18)
(0.0577501 0.0279839 -3.40485e-17)
(-0.000352814 0.000230902 -5.83521e-19)
(0.0128834 0.0231831 -6.91674e-18)
(0.00212187 -0.00105878 4.74654e-18)
(-0.174912 -0.00445182 6.59296e-18)
(-0.00333174 -2.67746e-05 1.70294e-19)
(-5.14093e-05 8.15311e-05 2.41041e-18)
(-0.0028723 0.000192656 -3.70207e-19)
(0.00297077 0.00352255 2.07849e-17)
(-0.00146485 0.000630854 2.75573e-18)
(6.57104e-05 0.000163842 -4.06846e-18)
(-0.00818677 0.0103019 -8.1442e-18)
(-0.00402899 0.021283 1.46872e-17)
(0.000449718 0.00880357 4.36334e-17)
(-0.00218078 -1.83378e-06 6.84531e-19)
(-0.000479301 0.00400315 -1.25238e-17)
(-0.000141282 -0.00118177 3.96449e-18)
(0.000240872 0.0084584 9.63393e-18)
(-1.34997e-05 -0.000214804 1.64813e-17)
(-0.00114093 -0.000777112 -9.76657e-19)
(-0.00248323 0.00264176 -1.64923e-18)
(0.0464967 0.0277726 4.47693e-18)
(-0.000789531 -0.00114305 -3.29783e-18)
(-0.00218691 0.00149894 -8.72098e-18)
(-0.00147684 0.000566377 4.55858e-19)
(0.0857586 0.00468211 -4.01537e-17)
(-0.00130832 -0.000469729 -4.84302e-19)
(0.0144609 0.00213377 2.36373e-17)
(-0.00106114 0.000171955 -4.61083e-19)
(0.000584605 0.00771419 -2.65042e-17)
(0.0488029 -0.0012334 5.21255e-18)
(5.76971e-05 0.000261261 6.08651e-19)
(6.79167e-05 -0.000582524 9.78222e-18)
(-0.00210168 0.050949 2.85338e-17)
(-0.00114348 -0.0029586 9.95032e-19)
(-0.000179611 0.0003394 4.4992e-18)
(0.0128635 0.0210301 -1.10212e-17)
(0.0960288 0.000450807 -2.35404e-17)
(-0.0005756 -0.000581407 -1.0764e-18)
(0.000294815 0.0087089 1.34358e-16)
(0.0187611 -0.0123357 1.41445e-17)
(0.0951933 0.00395985 -2.10911e-17)
(-0.00126002 0.00128664 1.78561e-18)
(-0.15777 0.0132595 -1.5234e-18)
(-0.000114028 0.000371794 -4.18579e-18)
(6.89869e-05 0.000400317 -4.28845e-18)
(0.00010452 0.000330816 5.87668e-18)
(0.00161746 0.00677612 1.134e-17)
(0.0106333 0.0268974 -1.59967e-17)
(0.0110019 -0.00177223 7.39845e-18)
(-0.00120118 0.00127569 7.66596e-18)
(-0.00033 0.000381443 1.72862e-18)
(0.0325981 -0.00620693 2.42996e-17)
(-0.000335818 0.00384922 8.35813e-19)
(-0.00282573 0.000204206 9.44647e-20)
(0.0850414 0.0076607 3.80211e-17)
(-0.00713108 -0.00873471 -1.97866e-17)
(-0.00164916 -0.000149546 -1.52991e-19)
(-0.000241938 -0.00107914 2.57386e-18)
(0.036415 -0.00349316 -6.75243e-19)
(0.000127362 0.00682403 -3.55886e-17)
(0.0170332 0.0383957 1.5615e-17)
(-0.00627964 0.0175708 4.61844e-17)
(0.0334707 -0.0191398 7.03108e-19)
(0.0015765 0.00473981 1.65157e-17)
(-0.0027776 -0.000212926 -5.52281e-19)
(-1.50776e-05 0.000862933 -6.6277e-18)
(0.00257688 0.00355174 -1.89264e-17)
(-0.00083527 0.00181589 3.65901e-18)
(-0.00209383 -0.000203311 8.67525e-21)
(0.0194918 0.0108539 -1.02404e-17)
(0.00958408 0.00417454 3.7306e-17)
(-0.00488126 0.0222463 -2.12172e-17)
(-0.00116452 -0.000662237 -2.00991e-18)
(-0.00362891 -0.00400822 1.36041e-17)
(0.0441216 -0.0142843 4.20206e-17)
(-0.175231 -0.00467851 -4.9825e-18)
(0.0266959 -0.00514835 -7.39804e-18)
(0.0225805 0.0116483 -8.15038e-18)
(6.23943e-06 -0.000984249 6.22009e-18)
(-0.000118399 0.00874849 -1.11318e-16)
(-0.000777923 -0.000393943 7.81732e-18)
(0.00047877 0.00839064 -3.23663e-17)
(-0.098229 0.013188 8.96267e-18)
(0.000112647 -0.000194802 -6.98e-18)
(-4.28303e-05 0.00015678 8.19132e-19)
(-0.00339458 0.0490003 -4.32159e-17)
(-0.0598018 0.014328 -2.38474e-17)
(0.00166173 0.00234964 3.73475e-17)
(-0.00253903 -1.71014e-05 -8.91792e-19)
(-0.000261822 -0.00109039 2.83895e-18)
(-0.00150707 0.000324033 1.80456e-19)
(-0.00258665 -6.7224e-06 3.25911e-19)
(-0.0034905 8.08465e-05 -1.21049e-18)
(0.000652737 0.00699303 -4.91048e-19)
(-0.082801 0.0296418 -3.31289e-19)
(-1.06459e-05 -0.00101468 -1.63552e-17)
(-0.00142529 0.000618236 4.10246e-19)
(-0.000110589 0.000173852 2.38716e-18)
(0.0828831 0.00421804 2.10853e-17)
(-0.0929872 0.0754007 3.26438e-17)
(-0.00273947 -0.00335369 -4.03495e-18)
(0.00148875 0.00495081 -5.38118e-17)
(6.3803e-05 0.000184646 1.78218e-18)
(7.24928e-05 -0.000235647 3.26652e-17)
(0.0844051 0.0243903 -8.08304e-18)
(-0.00189876 0.000190199 -6.9657e-20)
(-0.000155414 -0.00116299 -1.37233e-18)
(0.0026965 0.00428779 1.61677e-17)
(8.22522e-05 -0.000638432 -1.30691e-17)
(-0.010131 0.0270194 9.94861e-18)
(0.0107508 0.00530998 -1.11148e-17)
(-0.000106816 -0.00118904 6.7037e-18)
(-0.00177121 0.000191794 -8.32605e-20)
(-0.00178612 -0.00148927 6.80428e-19)
(0.00769781 0.0156762 2.36139e-17)
(-2.8091e-05 0.00874768 8.04371e-18)
(0.0256352 0.0164447 -1.31089e-17)
(0.00111989 -0.0029855 -7.40228e-19)
(-0.00286566 0.000587313 -5.70462e-18)
(0.00360393 -0.000293547 1.33205e-16)
(-0.00106676 -0.00272075 9.20501e-19)
(-0.0777595 0.0846261 2.33227e-17)
(0.0994028 0.00310686 9.58176e-18)
(0.0822105 0.0015645 1.3599e-17)
(0.000108501 -0.000742784 7.16042e-18)
(-0.000392412 0.00192121 4.51461e-17)
(0.000122902 0.000327144 -1.84978e-18)
(0.0183836 0.0344105 8.36624e-18)
(0.0261734 -0.00392324 4.67627e-19)
(0.0335696 -0.0177161 -1.4065e-18)
(-0.000900544 0.00175349 7.15682e-18)
(0.00158048 0.0182997 -4.51526e-18)
(-0.00155724 0.000383462 -5.61715e-19)
(-9.093e-05 0.000996024 -2.00658e-18)
(0.000526789 -0.00339141 -1.18999e-18)
(0.0304819 -0.00535343 1.50056e-17)
(0.0270409 -0.00955505 -6.7633e-18)
(-0.00105495 -0.000832763 3.79597e-19)
(-0.037241 0.0463001 1.62527e-17)
(0.00209317 -0.00301061 -5.16597e-18)
(-0.0928337 0.0338149 9.49207e-18)
(0.000349618 0.00858262 -9.75257e-18)
(-0.017096 0.0306544 5.25877e-18)
(-0.00144797 -0.000752498 -6.50256e-19)
(-0.00787864 -0.00923993 1.85231e-18)
(-0.00467329 -0.00318649 -4.44048e-18)
(-0.00183192 0.000228866 -1.228e-18)
(-0.000200408 0.000397231 -1.35967e-18)
(0.000953166 -0.000679098 1.4794e-17)
(-0.14765 0.0463979 4.6524e-18)
(-0.0079961 -0.0188962 -3.26107e-17)
(0.0144558 0.000168621 -1.16076e-16)
(-0.00556075 0.0041362 1.69188e-17)
(0.0389227 -0.00577776 5.87876e-18)
(-0.0048662 0.0743151 -5.66794e-18)
(0.0142877 -0.00242783 -2.40891e-17)
(-0.0032937 -0.0170036 1.13313e-17)
(-0.000504193 0.000254887 -5.55235e-18)
(0.000726172 0.00525816 -1.69762e-17)
(0.000428335 0.00176167 1.04964e-17)
(-0.00392529 -9.69942e-06 6.31451e-20)
(-0.00171414 -0.000155587 -2.61835e-19)
(0.00898632 0.00194657 -2.32718e-17)
(0.020041 -0.00919874 -5.26192e-17)
(0.00202005 0.00254377 4.1151e-18)
(-0.00216021 9.25857e-07 -4.02853e-19)
(0.00371185 0.0159487 -1.98747e-17)
(0.0082328 0.0147118 -2.08296e-17)
(0.100015 0.000557508 3.14105e-17)
(0.00595384 0.0345705 2.09943e-17)
(-0.000362386 -0.000575783 4.12991e-18)
(-0.000806923 -0.00116765 1.66566e-18)
(-0.00503331 0.0176585 1.80449e-17)
(-0.131848 0.0624396 1.11567e-17)
(-0.000256886 -0.00114891 9.6029e-19)
(-0.117406 0.0620472 -1.37117e-17)
(0.106513 0.000344687 -8.43003e-18)
(0.0391571 -0.00493638 -9.67028e-18)
(-0.00195224 -0.000234128 8.51118e-20)
(0.00457458 0.00785745 2.19658e-17)
(-0.00280302 0.0156502 4.09286e-18)
(0.0715067 -0.00565178 -6.82337e-17)
(-0.000962223 -0.000718897 7.11238e-19)
(0.0981213 0.00611751 3.08734e-17)
(-0.00140129 -0.000753709 -2.3021e-19)
(-0.0162077 -0.00420701 1.9369e-17)
(-0.00328689 -3.67415e-05 -7.51596e-20)
(0.0380706 0.0210172 4.95204e-17)
(0.0237426 0.00717564 4.69155e-17)
(-0.000276981 -0.00118239 -7.44684e-19)
(0.0161829 -0.00832858 -1.13661e-17)
(-0.00300191 0.000723109 1.29099e-17)
(-0.00191554 -0.000264436 3.77021e-19)
(0.0803642 0.0173909 4.71449e-17)
(0.0255015 -0.0100463 1.08945e-17)
(-0.00524946 0.00440323 -2.10501e-17)
(-0.102459 0.0756554 -2.40784e-17)
(0.108595 0.000252673 2.37456e-19)
(-0.00330543 -8.12806e-05 -2.07562e-19)
(-0.00220155 -0.00107469 2.34565e-18)
(0.0808449 0.00849521 -1.02855e-17)
(0.00478186 -0.00243917 -3.82916e-18)
(-0.000199883 0.000369006 -1.6241e-18)
(-0.00164803 -0.000315131 9.11216e-19)
(-0.15606 -0.0111789 2.22195e-18)
(0.0140751 0.0414958 -2.98533e-17)
(-0.000264193 1.44876e-05 4.26163e-19)
(0.0881576 -0.00354115 3.34158e-17)
(-0.020468 0.0136084 5.9074e-18)
(-0.000440645 0.0017969 -4.86846e-17)
(-0.00342262 -0.00229906 7.0282e-18)
(4.57668e-05 0.000335797 3.91841e-18)
(0.00259348 -0.00202399 -1.06302e-17)
(0.105821 0.000737478 -1.19407e-17)
(-0.000787554 0.000520354 3.12833e-18)
(-0.00663616 -0.0116141 -1.76541e-17)
(0.00212918 0.00541665 -9.69013e-18)
(-0.00149504 0.000339245 7.143e-19)
(-0.000748607 -0.00113181 6.23206e-18)
(0.0200504 0.0112052 -2.97807e-17)
(-0.157752 -0.0117484 -3.91922e-18)
(0.0247965 0.0141773 4.14591e-17)
(0.00106303 -0.000713957 -9.72879e-18)
(0.000191048 -0.00106819 -5.27292e-18)
(-0.000206857 2.55248e-05 1.79399e-19)
(-0.0632336 0.0101996 8.84436e-18)
(0.0557205 -0.0140467 -1.28788e-17)
(0.0782544 -0.0296746 -2.6066e-17)
(-0.00213282 -0.00029989 -4.19604e-19)
(0.0935484 -0.00356919 -8.09617e-18)
(0.0323799 0.00524838 -3.75576e-18)
(-0.0780881 0.0834052 2.15957e-17)
(-0.161885 0.0115217 1.0901e-18)
(0.0197551 -0.0132442 -4.37438e-18)
(4.78373e-05 0.000386811 4.8696e-18)
(-0.00282848 -2.70708e-05 1.86115e-19)
(-0.00729448 0.011496 7.02334e-18)
(0.0614108 0.0131007 -3.09937e-17)
(-0.013875 0.0327865 4.33657e-17)
(-0.00206657 0.00154829 1.03034e-17)
(0.0157364 0.030791 -2.07895e-17)
(0.00942418 -0.00473611 1.09718e-17)
(-0.00375527 5.58967e-05 6.79394e-19)
(0.113351 -0.0147828 -2.60579e-17)
(-0.00110392 0.000120347 -1.82282e-19)
(-0.0358407 0.0474342 -3.1014e-17)
(0.0018676 0.0023541 2.41072e-18)
(-0.000543939 1.46999e-05 -7.77811e-20)
(-8.17851e-05 -0.0013785 -2.44476e-18)
(0.0013368 -0.00294929 -2.66101e-18)
(-0.000160537 0.00187613 5.05332e-17)
(0.0996565 -0.00250833 -1.62049e-17)
(0.000690445 -0.00180385 8.21711e-18)
(-0.000892824 0.00089663 -1.10046e-17)
(-0.0785131 -0.0210478 -1.37586e-17)
(-0.100268 0.0763128 3.28423e-17)
(0.0483532 -0.0164057 1.40891e-17)
(-0.000957226 -0.000677062 -9.23634e-19)
(-0.0679465 0.074295 2.24429e-17)
(-4.94375e-05 0.000627502 1.79731e-18)
(-0.000857941 0.000870706 -5.64088e-18)
(-0.000760706 -0.00033494 -8.93955e-18)
(0.0117793 0.00596813 1.26538e-17)
(-0.00168964 3.65395e-05 3.69104e-19)
(-0.0169867 -0.00497077 4.46428e-17)
(-0.00317422 -0.00216525 -7.57222e-18)
(-0.00156592 0.00039269 -3.58589e-18)
(0.00464075 0.0164492 2.94934e-17)
(-0.00152809 -0.00020212 1.66299e-18)
(-5.50869e-06 0.0086997 -5.61303e-17)
(0.00187042 -0.00293497 2.52995e-18)
(-0.00702475 -0.00799955 -8.5771e-18)
(-0.00165534 0.000429719 -1.23924e-18)
(-0.000755789 -0.00110625 -4.17448e-18)
(0.0397702 -0.0131437 6.356e-17)
(-0.040487 0.0128426 -2.88386e-17)
(-0.000790737 -0.000446974 3.78342e-18)
(-0.00313451 -3.61169e-05 -6.73541e-20)
(0.117943 -0.0111782 -3.92175e-18)
(-0.00146345 -0.000579466 5.1561e-19)
(0.0933024 0.00107376 2.26967e-18)
(-0.00169571 0.000396266 1.27409e-18)
(0.0369493 0.0235237 -4.77761e-17)
(-0.000219284 -0.000100301 1.19558e-17)
(0.00811498 -0.0135193 2.13352e-17)
(0.000786296 0.00719334 -2.15888e-17)
(0.000583477 0.00910136 5.85344e-17)
(6.59471e-05 -0.00079485 3.49113e-18)
(0.0760288 0.00147968 -1.78672e-17)
(0.0033961 0.00677153 2.76412e-17)
(-0.00022714 -0.00137594 -5.29803e-18)
(0.0125534 0.0435335 3.2825e-17)
(0.0121406 0.00124843 3.52138e-19)
(-0.000726649 -0.00113777 -1.03264e-18)
(-0.0390235 0.0274644 3.89882e-18)
(0.000409339 0.00517729 -4.72451e-17)
(0.0347095 0.00769119 -1.59381e-18)
(-7.6129e-06 -0.000396989 -1.81837e-17)
(-0.162272 0.00566575 -1.17999e-18)
(-0.00251652 -0.00101897 -8.89461e-19)
(0.00872781 -0.00935476 -5.18754e-17)
(0.00316077 0.00646158 4.87378e-17)
(0.00704806 -0.000326056 1.83732e-17)
(0.0068383 -0.000583956 -2.91396e-18)
(-0.102775 0.0670389 3.21944e-17)
(-0.000243025 0.000475402 2.09462e-18)
(0.000550409 -0.00369547 -1.07881e-18)
(0.0392831 -0.0166285 -2.41407e-17)
(-0.000464577 -0.00123465 2.41521e-18)
(-0.000641521 -0.00104421 -4.15343e-18)
(0.0189156 0.0082611 -2.14524e-17)
(0.00940879 0.00263673 2.03445e-17)
(-0.00120059 -0.000710218 -1.34399e-18)
(0.0360558 0.0655737 -2.76781e-17)
(0.0084393 0.00667537 -4.95452e-18)
(-0.00253965 -0.000211005 -1.67124e-19)
(-0.095155 0.00910767 -3.32722e-18)
(0.0457281 0.0458779 -2.14979e-17)
(-0.0011496 0.000106008 1.00206e-18)
(-0.00165282 -0.000519888 7.99039e-19)
(5.9028e-05 0.000622282 -1.62521e-18)
(-0.0018328 0.000215866 -2.05657e-19)
(-0.0829938 -0.0179989 -1.3816e-17)
(-0.024417 0.0361489 -3.98025e-17)
(-0.00222907 0.00781235 -2.78756e-17)
(0.035819 -0.0156595 4.06386e-17)
(-0.000632809 -0.000494146 -1.87776e-18)
(-0.00682559 -0.0123133 9.12868e-18)
(-0.00574939 -0.000947298 5.85284e-17)
(0.00229865 0.0110759 -3.3676e-17)
(-0.118938 0.0598045 1.67151e-17)
(0.0580755 0.0158681 -3.12483e-17)
(0.0267134 0.00823475 -1.73349e-17)
(-0.00291933 -0.000122858 -6.59489e-20)
(0.0651638 -0.0256537 2.51098e-17)
(-0.00193582 -0.000496895 6.50522e-21)
(0.108766 0.0074037 2.03796e-17)
(-0.00149401 0.000515238 8.66507e-19)
(0.000573893 0.00977412 2.39038e-18)
(-0.0213973 0.0125292 1.9346e-17)
(0.00181562 0.000538065 5.07978e-18)
(-0.000309582 0.000528245 -1.93167e-18)
(-0.00446253 0.0167359 1.33929e-17)
(-0.00788339 -0.00989687 -1.12728e-18)
(-0.0131532 0.0154362 -2.10424e-19)
(0.00524743 0.0195966 -1.7677e-17)
(0.00794049 -0.00909082 -5.0124e-17)
(0.0729035 -0.00476803 9.89489e-17)
(0.00279341 -0.00218181 1.06925e-17)
(-0.00343647 -0.00646703 1.0708e-17)
(-0.00163606 -0.000282512 -1.08494e-18)
(0.00614424 -0.00274053 3.49875e-17)
(-0.135398 0.0533039 -1.40724e-17)
(-0.000854051 -0.00112251 7.62475e-18)
(0.0089469 -0.00500798 -1.46e-17)
(-0.000359386 -0.000305238 -1.00109e-18)
(-0.0738754 0.0241434 -3.4354e-17)
(-0.000222402 -3.2032e-05 1.16513e-18)
(-0.000249853 0.000434787 3.04309e-19)
(-0.0013657 -0.000395218 -6.4659e-19)
(-0.104729 -0.0459631 -6.93791e-19)
(-0.00132043 -0.000456263 1.94264e-20)
(-0.155164 -0.0148577 -3.59017e-18)
(0.00600524 0.00234618 -7.47023e-18)
(0.045269 0.0137119 -2.96698e-17)
(0.00271921 0.00732299 -1.52161e-16)
(-0.000760132 -0.00111382 -2.60752e-18)
(0.00398378 0.00732329 -5.8826e-17)
(0.00295545 0.00726187 -8.86578e-17)
(-0.000804943 -9.78598e-05 -1.16542e-18)
(0.00906562 0.00338151 -3.19465e-17)
(-0.000538549 -0.00123035 2.08305e-18)
(-0.000508713 -0.000510579 -8.12825e-19)
(-0.0124441 -0.00843588 -1.9053e-17)
(-0.000414855 3.8372e-05 7.10343e-19)
(-0.000422532 -0.000650424 -1.78449e-18)
(-0.00173836 -0.000465416 -6.27998e-19)
(-0.0479572 -0.0116354 1.97844e-17)
(-0.000111976 0.000312257 2.60892e-18)
(-0.157702 0.00748186 -4.85975e-19)
(-0.0772468 -0.0467954 4.28378e-19)
(-0.00781342 0.00101794 -2.18527e-17)
(-0.00269927 -0.0165567 -4.61464e-17)
(-0.171039 0.00283789 -3.04658e-19)
(0.0859739 -0.0046096 2.27475e-17)
(0.00275696 0.0106965 2.70674e-17)
(-0.000660183 -0.000435824 1.77226e-18)
(-0.0350472 0.00812791 -1.66231e-17)
(0.00203784 -0.000830674 -6.0951e-18)
(-0.00227906 -0.00133027 2.74277e-18)
(-0.000510866 0.000187057 -8.38858e-19)
(-0.0165557 0.0324064 5.81172e-18)
(-0.132285 0.0595408 1.31908e-17)
(-0.0469176 -0.056032 -6.72189e-19)
(-0.000114186 -0.00109793 -4.1774e-18)
(-0.0226009 0.0181566 1.26859e-17)
(7.85785e-05 -0.000342306 2.12158e-17)
(0.0024297 -0.00101886 1.1782e-17)
(-0.0121462 0.0158671 2.69173e-18)
(-0.00113038 -0.000752051 2.87679e-19)
(0.0623757 -0.0307649 1.20979e-18)
(-0.00124242 -0.0006732 1.73459e-18)
(-0.00155275 4.27708e-05 -4.00244e-19)
(0.088466 0.0010125 3.07426e-17)
(-0.0944175 0.0307628 7.20205e-19)
(-0.102778 0.0336987 -4.50563e-18)
(-0.000172699 -0.0113635 2.85505e-19)
(-0.00929234 0.00130584 1.6832e-17)
(-0.0410755 0.032176 -3.44333e-17)
(0.0644435 -0.0135745 -4.42167e-17)
(0.077893 0.00639661 1.9498e-17)
(-0.0036037 5.33624e-05 8.1042e-20)
(-0.00658001 0.014412 4.72088e-17)
(-0.00118855 -0.000686544 9.88543e-19)
(-0.000589788 -0.00118212 -1.31981e-18)
(0.00635424 0.0357123 5.91009e-17)
(-0.00806472 0.0112935 -1.14886e-17)
(-0.00400223 1.89887e-05 -1.34739e-18)
(-0.0129103 0.00293222 -2.60837e-17)
(0.0011392 0.0100878 1.19998e-17)
(0.0714753 0.00489147 2.97392e-17)
(-0.000790885 -0.000157325 2.2384e-18)
(0.00134371 0.0373023 5.69093e-17)
(0.0129589 0.00926358 -2.20305e-17)
(0.0102186 -0.0149315 -9.4628e-18)
(-0.143374 0.012269 9.56252e-19)
(-0.000151317 0.000285908 -2.04296e-18)
(-0.000839639 -0.00112709 7.146e-19)
(-0.00398573 -1.80559e-05 6.39334e-20)
(-0.000808992 -0.00276058 -1.55346e-18)
(-0.00288561 -0.000112727 3.44194e-20)
(-0.141808 0.0358306 -1.15413e-18)
(-0.00196907 0.00749843 3.83727e-17)
(0.000550343 -0.00184055 4.08904e-18)
(0.00636425 -0.00356585 2.11777e-17)
(-0.00230603 0.00278263 -7.58239e-18)
(0.0223112 0.0340104 -2.51804e-18)
(0.059926 -0.0154888 8.59927e-18)
(0.0108331 0.00479022 -5.16696e-18)
(0.0437608 0.0116724 3.19098e-17)
(0.0716091 0.0320295 7.1931e-18)
(0.00291591 0.0384391 -3.40664e-17)
(-0.0113577 -0.00010731 -2.60251e-17)
(-0.0329696 0.0198765 8.7717e-18)
(0.0105332 0.00473855 6.3336e-18)
(0.0528755 -0.000694842 -1.82226e-17)
(0.00117783 0.00809525 1.03782e-17)
(0.0133491 0.000637283 3.41928e-18)
(-0.00179059 0.0263005 2.46191e-17)
(-0.00423607 -1.20612e-05 -7.22906e-19)
(0.0471479 0.0167411 3.30008e-17)
(-0.000762419 0.00426844 7.29094e-18)
(-0.00163292 0.000377092 -4.68007e-18)
(-0.000767996 -0.00254549 -1.3188e-18)
(-0.00119568 0.00146101 1.22618e-19)
(0.0735827 0.00633864 5.78959e-18)
(0.0186755 0.0145034 1.21511e-17)
(-0.00149747 -0.000605435 -1.34876e-18)
(-0.00401619 4.05438e-05 9.37429e-20)
(-0.135465 0.0594516 4.46623e-18)
(0.0871702 -0.00373294 -1.9794e-17)
(-0.00048015 2.89854e-05 1.04726e-18)
(-0.146308 0.00869252 -2.56196e-18)
(8.11664e-05 0.00121243 7.51584e-18)
(-0.00489438 -0.0157516 2.29453e-17)
(-0.00142161 -0.000653462 -1.91219e-18)
(0.10093 -0.00145499 2.20304e-17)
(-0.0480142 0.0543416 -6.06796e-17)
(-0.00189996 -0.00133222 -3.82349e-18)
(-0.00148326 0.000223979 -6.92127e-19)
(-0.172003 0.00333632 -2.35004e-18)
(-0.00716231 -0.0177219 4.65828e-17)
(-0.0026167 -0.00105998 -9.81544e-18)
(-0.000209444 3.46354e-05 -5.52412e-19)
(0.105602 0.000761508 5.16956e-17)
(0.00028895 0.00854336 -6.40464e-17)
(0.119833 -0.0091796 3.63399e-17)
(-0.00159481 0.000406041 1.1414e-18)
(0.00839454 -0.00158144 2.94158e-17)
(0.0439104 -0.0194621 -5.90002e-18)
(0.00414393 0.0106536 2.78866e-17)
(-0.00161545 -0.00051534 3.21566e-19)
(-0.00101971 -0.000888144 -2.44443e-18)
(0.0168219 -0.0139799 8.16824e-18)
(-0.0449756 0.0329813 2.57316e-17)
(-0.00424249 2.51716e-05 1.17156e-18)
(-0.00161063 -0.000495802 9.15921e-19)
(-0.00219922 -6.87177e-05 9.66245e-19)
(-0.00227846 -8.18883e-05 -3.87221e-19)
(0.0982145 -0.0027742 1.97088e-17)
(0.00296185 0.0338828 1.63903e-17)
(0.00357626 0.0103827 -1.6094e-17)
(-0.00978988 -0.0194114 3.70486e-17)
(-0.00273186 -1.59162e-05 -8.38516e-19)
(-0.00267024 -0.000210081 5.77589e-19)
(-0.0210255 0.0189589 -2.11123e-17)
(0.0549354 -0.00643398 1.88684e-17)
(-0.00478497 0.00240653 -8.46367e-18)
(-0.0016073 0.000395999 1.33637e-18)
(-0.000504723 -0.000527201 -3.51176e-19)
(5.59347e-05 -0.000185286 5.54923e-18)
(0.113044 -0.0124358 -8.61375e-18)
(0.0196834 -0.00115803 -9.75674e-19)
(-0.0003079 0.000339277 3.16552e-18)
(-0.000134758 -0.000208777 -7.35275e-18)
(0.0595387 -0.0274734 -5.02031e-18)
(0.00994309 0.00515127 -8.9787e-18)
(0.00121861 0.00717147 -1.87464e-17)
(-0.000766804 -0.00114396 -9.24409e-19)
(-0.00138237 -0.000580152 -1.0821e-19)
(-0.00141902 -0.00128441 6.79353e-19)
(-0.000436152 0.025827 -8.63589e-18)
(0.0113733 0.000845916 3.41469e-19)
(-0.00858363 -0.0194527 1.48331e-17)
(-0.0371301 0.0100092 2.42702e-17)
(-0.0138646 0.0258404 -4.73765e-18)
(0.0048853 0.0334292 2.03773e-17)
(-0.00754837 -0.00749868 -9.51835e-18)
(-0.000877127 -0.000638595 -4.80854e-18)
(0.104073 0.000959732 -1.53545e-17)
(0.000106146 -0.000170504 -9.30002e-18)
(-0.000604967 -0.00106209 6.65175e-18)
(0.00119908 0.00157647 4.94374e-18)
(0.0428506 0.0218215 -1.00025e-17)
(0.00529842 -0.00273843 3.89642e-18)
(-0.00341562 -5.63994e-05 2.01607e-19)
(0.0086857 -0.0151193 2.69954e-17)
(-0.0153163 -0.00925821 -1.73578e-17)
(0.00362344 0.00524495 -1.18247e-17)
(-0.014834 0.0248001 1.82981e-17)
(0.0016915 0.000185997 1.96409e-17)
(0.00102221 0.0107037 1.34823e-17)
(-0.000263937 0.000551077 -4.8718e-19)
(0.0444188 -0.0168902 1.04265e-18)
(0.00775774 -0.0142162 -1.27694e-17)
(-0.0708147 0.0543272 -2.48602e-18)
(-0.00125545 -0.000684274 -6.10651e-19)
(-0.00338359 0.00304552 1.26824e-17)
(-0.0101277 -0.0198848 -1.13835e-17)
(0.0589667 0.0162623 -1.31376e-17)
(0.0724163 -0.000601669 8.34298e-19)
(-0.00700058 0.0185362 2.5325e-17)
(-0.000118128 -0.0120887 -5.40364e-18)
(-0.00024802 -0.00113468 -5.06076e-19)
(-0.00196576 0.000367689 -3.21675e-18)
(-0.000858194 -0.00116031 -3.69301e-18)
(0.0036531 0.000115028 1.51238e-18)
(0.00251971 0.00399735 -2.0241e-17)
(4.93191e-05 -0.00113792 -6.72228e-18)
(-0.00175308 0.0154661 -5.65661e-18)
(0.00175823 0.00532719 1.03604e-16)
(-0.0695106 0.0555747 2.01556e-17)
(-0.00153867 -0.00126314 9.32291e-18)
(-0.00136029 -0.000757614 1.46324e-19)
(0.0234502 0.0319969 3.40805e-18)
(-0.0515766 0.0580534 3.8986e-17)
(6.40881e-06 -0.00164368 -2.33146e-18)
(-0.000127452 -0.00117936 3.34022e-18)
(0.00193048 0.0114561 1.30372e-17)
(0.017078 0.00379649 -1.77092e-17)
(-0.0148396 0.0369033 -1.43931e-17)
(-0.0125581 -0.0198923 1.25781e-17)
(-0.00347111 8.17301e-05 1.3709e-18)
(-0.0938703 0.0094628 2.26105e-17)
(0.0174596 -0.0126241 -2.03185e-17)
(-0.00376468 -3.72019e-05 -2.29781e-19)
(-0.00395512 8.88178e-05 5.76613e-18)
(0.0106309 0.0232048 1.16357e-17)
(0.000851785 0.000843111 -5.48353e-17)
(-0.0137711 -0.0073404 3.76052e-17)
(-0.159442 0.0209382 -2.92874e-18)
(-0.0307967 0.0208512 5.4482e-18)
(0.00839778 0.0037446 8.01686e-18)
(0.0430963 -0.0163722 1.19053e-17)
(-0.00138417 0.00141995 2.54143e-18)
(0.0819996 0.00515807 -2.03579e-17)
(-0.000108627 0.000336571 4.58694e-18)
(-0.000347439 0.000342601 -4.65133e-18)
(-0.0695188 0.0748541 4.19052e-17)
(0.0166447 0.00417361 1.2472e-17)
(0.00175581 0.00787717 1.74183e-17)
(-0.00132873 0.00149729 1.77459e-18)
(-0.00106592 -0.000805347 6.39607e-18)
(-0.000154208 -0.000165587 6.28975e-18)
(0.0100018 -0.00446241 -4.77381e-18)
(0.000569903 0.00898746 -6.83228e-17)
(0.0324078 -0.0168905 -1.21593e-17)
(-0.00204912 0.000421334 -2.85605e-18)
(0.0412017 0.0116825 1.13805e-17)
(-0.00330883 0.0166804 2.26103e-19)
(-0.00141477 -0.000668976 -7.0751e-19)
(0.0164303 -0.00663452 -3.4701e-18)
(0.0305277 -0.0174803 1.33791e-18)
(0.0356092 -0.0415217 3.99546e-20)
(-0.00110362 -0.00076985 4.6853e-19)
(-0.0286043 0.0239836 1.27147e-17)
(-0.00126635 0.00136762 -1.70777e-18)
(0.0140269 0.00734146 1.46509e-17)
(-0.00409686 -0.00714898 6.85004e-19)
(0.00501739 -0.00310865 -3.05783e-18)
(-0.00360929 0.00293447 -4.74628e-18)
(-0.00285538 -0.000125343 -8.92035e-19)
(-0.00185432 0.000432375 -1.17425e-18)
(-0.00149355 0.000374101 -1.70806e-18)
(0.00713846 -0.00156405 2.61134e-18)
(0.000252436 0.000245904 6.27969e-18)
(-0.026464 -0.0196514 5.85646e-17)
(0.00873793 0.0139301 6.55081e-17)
(0.000686611 0.0175818 9.69466e-19)
(-0.00251621 -0.000209083 3.55843e-19)
(-0.0326169 0.0155602 -4.24418e-17)
(0.00221018 0.00827334 -3.40467e-17)
(-0.00797809 0.0584198 3.82914e-17)
(-0.000907906 0.000540156 -1.42965e-18)
(0.000201114 -0.000135069 -7.8243e-18)
(-0.0015896 -0.000490296 1.5846e-18)
(0.00461931 0.000650185 7.27224e-19)
(-0.00223513 0.00159437 9.23362e-18)
(0.0443988 -0.0189273 4.0297e-18)
(-0.000232528 0.000412084 8.48643e-19)
(0.0142788 -0.0105376 -1.17797e-17)
(0.00423297 0.00143656 1.37246e-18)
(0.0497649 0.0232225 1.67876e-17)
(-0.00563753 -0.00902765 -1.71547e-18)
(0.0961804 -0.00094999 2.51271e-17)
(0.00491091 -0.0039022 1.84926e-20)
(-0.00104212 -0.00088129 2.65027e-18)
(0.0727088 0.0101565 -2.26524e-17)
(0.105832 -0.00144651 -3.59952e-18)
(-0.00105327 -0.000991332 3.7703e-19)
(0.00122692 0.00141085 -1.05735e-18)
(-0.0390052 0.0461776 -6.66235e-17)
(-0.0113334 -0.0183448 -2.61846e-18)
(-0.0120591 0.0325968 -5.8542e-17)
(-0.000720098 4.08296e-05 -3.27604e-18)
(-0.0014945 0.000287249 1.91419e-18)
(0.0073361 -0.0128363 2.06457e-17)
(0.00199547 0.000447393 -5.55587e-18)
(-0.0132084 0.0139936 1.00698e-17)
(0.0187118 0.0108146 1.54336e-17)
(-0.00182475 0.000446613 2.40029e-18)
(0.00985201 0.0137064 -1.09441e-17)
(-0.101199 0.0714485 -2.70115e-17)
(-0.000877638 0.000421251 -1.31113e-18)
(0.000447836 -0.000152451 -2.59459e-18)
(-0.00206046 -5.64917e-05 -9.13241e-19)
(-0.0449051 0.0109805 2.85295e-18)
(-9.46745e-05 0.000222703 1.28228e-18)
(-0.000161961 -0.00108104 -2.73297e-18)
(0.0281226 -0.00588123 2.37836e-17)
(-0.000504261 -0.00106003 1.68078e-18)
(0.0111305 0.00763725 -1.77352e-17)
(-0.0028589 0.000375432 -9.58808e-19)
(0.00103932 0.0010709 2.48211e-17)
(-0.00206231 -7.34527e-05 -9.33532e-19)
(0.0024871 -0.00340723 -1.9428e-18)
(-0.000693187 -0.000275678 2.05053e-18)
(-0.0104696 -0.00130698 1.60891e-17)
(-0.00289948 -7.78266e-05 4.16272e-19)
(0.00391847 -0.00628275 1.36648e-17)
(-2.59588e-06 0.00124006 -9.74844e-18)
(0.0270362 0.0111871 2.89764e-17)
(0.00610594 0.0121368 1.20582e-17)
(0.0554682 -0.00773009 2.25131e-17)
(-0.00389678 -2.06532e-05 -4.29314e-20)
(-0.000277148 0.000517061 -1.36603e-18)
(-0.00751576 -0.00697695 -2.52687e-18)
(-0.00514577 -0.0038245 5.4189e-18)
(0.00504632 0.0121248 3.82089e-17)
(0.0432126 0.00320804 6.92545e-18)
(-0.0091707 0.00915691 -1.26268e-17)
(-0.000522032 -0.000533236 4.1787e-18)
(-0.0415251 -0.00764941 3.34911e-18)
(0.00163281 0.00740333 9.99616e-17)
(0.0371867 -0.0397897 -3.91624e-18)
(-0.0317932 -0.019666 -4.53175e-17)
(-0.00563444 0.0119487 -7.52217e-18)
(-0.140907 -0.00897308 1.1812e-18)
(-0.00220134 -0.0033144 -9.02644e-19)
(0.00894787 -0.00427231 -8.06626e-18)
(-0.0308188 0.00327317 -2.12312e-17)
(0.00824036 0.00213251 -2.07349e-17)
(-0.00886021 0.00847335 7.27715e-18)
(0.00230456 0.00850708 5.47626e-17)
(-0.0094294 0.00701679 5.80113e-18)
(0.00094113 0.000368598 -3.36353e-18)
(0.0110409 0.0247151 1.60522e-18)
(-0.00027789 -0.00144605 -9.89222e-19)
(-0.00139578 0.000493127 -5.08031e-19)
(0.00437488 0.000795985 -4.2842e-18)
(-0.00396187 -0.00375766 -1.02413e-17)
(-0.00169026 -0.00134884 -3.98249e-18)
(-0.000666737 -0.000272185 -5.27687e-18)
(-0.00276083 -1.66459e-05 1.55276e-19)
(-0.00132462 0.0173434 -4.10779e-18)
(-0.000127684 0.00188115 2.75751e-19)
(-0.0143079 0.0136544 -2.5361e-17)
(-0.000350141 -0.000476732 -4.73934e-20)
(-0.000420547 -0.000183554 6.59588e-19)
(-0.000116498 0.000186312 -3.97018e-19)
(-0.00121437 -0.000681478 -1.39807e-18)
(-0.00254281 0.000172041 5.16362e-19)
(-0.00174977 -0.000822061 -8.83722e-19)
(-0.00202452 -4.23046e-05 -1.50298e-18)
(0.101427 -0.00174753 -1.49957e-17)
(0.0185546 -0.00460223 2.08262e-17)
(-0.00274098 0.00716635 -3.72818e-17)
(-0.00288405 -0.000157199 -1.38256e-19)
(-6.75972e-05 0.000219943 -8.81067e-19)
(0.00206201 0.00174166 1.46128e-18)
(-0.0119841 1.23899e-05 1.0405e-17)
(-1.49157e-05 -0.00106085 6.33472e-18)
(0.0962921 -0.0206969 1.98068e-17)
(-0.000314222 -0.00808145 1.13912e-17)
(0.117818 0.0086931 2.57732e-17)
(0.00446322 0.00121799 2.35366e-18)
(-0.026298 0.018473 1.86069e-17)
(-0.000845036 0.00129371 -4.2075e-18)
(-4.4306e-05 0.000177442 1.02347e-19)
(-0.00245769 -7.69512e-05 9.07404e-19)
(-0.00149291 -0.000293779 -2.15948e-18)
(0.00925391 -0.00154478 -8.50553e-18)
(-9.44779e-05 0.000185362 -4.46968e-19)
(0.00556169 0.0282454 -1.20682e-17)
(-0.00178495 -0.000906085 -8.74527e-19)
(-0.00471158 -0.000908604 -1.06088e-16)
(0.00325701 -0.00190289 6.46463e-18)
(-0.000608945 -0.00848077 7.10034e-18)
(0.0490756 0.0212161 -1.53968e-17)
(-0.00249948 0.000192301 -1.63019e-18)
(1.6274e-07 4.90307e-06 3.61552e-20)
(0.0196637 -0.00408106 -1.72669e-17)
(-6.53174e-05 -0.00060183 -1.1849e-17)
(-0.000525909 -0.00120211 -1.28455e-17)
(0.101273 -0.0205953 1.57414e-18)
(-0.00105522 -0.00082464 -7.58146e-20)
(-0.000329147 0.000632099 1.18798e-19)
(-0.00321535 0.00149252 1.86832e-17)
(-0.00175104 -0.000272613 4.7885e-19)
(-0.00415955 9.96135e-06 1.94414e-18)
(-0.00192079 -0.00113159 -9.00599e-19)
(-0.000294057 0.000161532 3.86295e-17)
(0.003752 0.00844652 -4.33426e-17)
(-0.00266003 -0.00221342 -1.25858e-18)
(-0.000867874 0.000385933 -2.68789e-19)
(-0.00345577 -3.89545e-05 4.20852e-19)
(0.0542673 0.01879 1.91965e-17)
(0.00730412 -0.00108277 5.72563e-18)
(-0.000911946 -0.00105241 1.58562e-18)