/*--------------------------------*- C++ -*----------------------------------*\
| =========                 |                                                 |
| \\      /  F ield         | OpenFOAM: The Open Source CFD Toolbox           |
|  \\    /   O peration     | Version:  v2012                                 |
|   \\  /    A nd           | Website:  www.openfoam.com                      |
|    \\/     M anipulation  |                                                 |
\*---------------------------------------------------------------------------*/
FoamFile
{
    version     2.0;
    format      ascii;
    class       volScalarField;
    location    "800";
    object      omega;
}
// * * * * * * * * * * * * * * * * * * * * * * * * * * * * * * * * * * * * * //

dimensions      [0 0 -1 0 0 0 0];


internalField   nonuniform List<scalar> 
13917
(
0.039296
0.0222204
4.72229
0.0235647
0.022108
0.452927
4.71068
4.83562
4.67984
0.061245
0.239619
0.0860816
0.023645
21.0428
0.0261392
0.0250205
0.0223501
0.0576823
0.0845622
0.0221121
0.0222665
4.70245
0.0220909
4.76754
0.0220235
4.4718
0.0415479
0.053343
0.637897
0.091535
0.0418756
0.0279171
0.0356999
0.0256563
0.0220376
1.48674
0.0220994
4.88507
0.0256533
6.52957
0.0219003
0.0222857
0.0215862
0.0805291
0.0221075
0.0273549
0.0567236
0.0819192
2.93106
0.0220185
0.0277503
0.0223613
3.93117
0.0260011
0.0223617
0.027431
0.239104
0.0220711
0.0252149
0.0220627
10.1042
0.0222239
30.2139
0.0221005
0.42361
12.3541
0.022105
0.022045
0.250423
0.0358387
0.0221159
4.71322
5.45459
0.0220272
2.88557
0.103002
7.3503
0.0228097
4.11682
0.0222361
0.0222034
0.0221128
0.383819
4.80874
4.63859
0.0227066
0.0221786
6.91823
0.0274018
0.0215761
5.06487
0.0790358
0.0219085
0.0230506
10.0141
0.386177
0.156808
0.0734858
0.186476
0.108438
0.0218259
0.0324492
0.0816592
0.0232709
0.0218131
4.66494
0.390542
0.0866864
0.0223538
0.0445049
4.56651
6.06918
0.114838
4.63601
0.0229804
2.99394
0.0220146
1.48299
5.73274
0.0259858
0.0222737
0.250317
5.76585
0.0501888
0.0219768
0.0228899
0.0220751
0.0219842
0.0216119
0.428472
4.89713
0.0228831
0.0221328
0.0222741
6.51028
4.72193
0.0397764
0.113447
0.0220977
0.0258652
0.880542
0.021788
0.0226091
0.098354
0.0220456
4.86081
0.672371
0.0223103
0.0217593
0.0284665
0.0680916
3.13226
0.115819
0.0404656
0.0272632
6.9733
0.0344034
4.49178
10.3509
6.49809
0.024267
0.0416549
0.022236
0.15337
0.112108
0.18331
0.0232287
0.0707851
0.0219366
0.0333893
0.0407623
6.47801
0.125354
0.0226641
4.91001
0.0440842
4.90259
1.98265
4.89097
0.0219532
0.082616
0.0432596
0.0217815
0.0221693
0.0298688
4.33963
0.273828
9.5635
0.0383624
0.171322
2.78449
5.27851
0.247077
0.0221014
0.119622
0.0399898
0.0224306
0.0219172
0.207508
4.07542
0.0270049
0.0220339
0.0658933
0.067471
6.1041
5.59865
0.0220376
0.022087
0.0721189
4.49441
0.0225102
4.76018
8.49369
0.171856
0.0218208
0.541147
0.0633244
6.85436
0.02198
10.8114
0.0219464
0.0851687
0.0218936
4.89089
4.6407
0.0253434
1.3967
0.0276122
0.0218236
1.26348
0.122917
0.0379836
4.65182
11.1769
0.0217826
0.0283964
4.84465
4.42835
0.022228
0.0219521
5.50248
0.177008
0.0222668
0.343666
0.10057
0.040702
0.0368808
0.022228
0.0440796
9.29486
0.0219318
0.102178
0.139758
0.0220503
0.022058
0.0906796
4.47123
0.10902
0.0301956
0.026276
0.0222712
7.36194
5.48294
0.341392
0.0218313
5.70585
9.64344
4.53883
4.1037
0.111174
0.0222142
0.0219356
0.057744
5.2757
0.140135
0.024916
5.75502
0.0501381
0.0216037
7.98895
0.0220887
4.87819
0.0263687
0.022262
0.0272292
0.0401224
0.0420109
0.375616
0.0321328
0.0220572
0.666588
4.6656
5.20301
0.0219805
4.69321
0.0221741
0.0220481
0.0220209
0.959238
0.0221054
0.0929508
0.0358873
0.0219153
0.0666846
0.0231767
2.53446
0.0431007
0.073664
0.0218226
0.0220467
4.65723
6.15488
0.0220096
0.0219137
8.09265
0.0219327
5.16697
0.0218162
4.83027
0.0223556
0.362951
0.0364308
2.98986
0.023971
6.29489
0.293661
0.0272531
0.17793
0.445454
0.0223191
4.88741
0.124659
8.32788
0.0248207
7.03924
0.0291564
4.24208
0.238441
0.10139
0.0990797
4.81253
0.0222159
0.0422092
4.34918
0.022214
0.0235108
8.84647
0.250785
0.0225868
1.71607
0.593332
0.0218646
6.97744
1.75024
0.0220821
0.0219043
0.0221819
0.0217538
0.508638
4.91014
0.703665
4.3941
0.0220229
0.113169
5.84088
0.0489809
4.75692
4.95133
4.61385
0.0217772
0.330389
0.0218845
10.7311
0.0220604
3.68547
0.100386
0.0249093
0.0221974
0.0683471
0.0895354
0.07953
9.79466
4.13278
9.64132
0.0458684
0.0576283
0.0219592
4.67982
4.68151
0.0220954
4.16035
0.0220455
0.49611
0.0223562
0.022226
0.0232125
3.16736
0.0231737
4.37647
9.23601
0.196044
0.467297
0.0223081
0.458749
0.41393
0.0220381
0.278411
0.0221968
0.0220344
0.0916571
0.0222616
0.0220267
0.0218808
0.299425
0.0222473
6.13374
2.86249
4.69989
0.247095
4.65569
7.1465
0.0481421
0.0220271
0.173247
0.0254009
0.0296733
0.0220939
4.86995
4.61196
2.43481
0.0249484
0.116772
0.0245793
0.0262595
0.0795346
0.0229876
0.335632
0.0223395
0.0220962
4.88524
4.89824
4.90479
0.111439
5.47795
4.85984
4.52002
7.62898
0.0216439
0.0645175
0.0230441
0.0221187
5.38242
0.0585343
0.0219101
0.0622999
0.0449454
7.98499
0.0220343
0.146306
17.9782
0.563968
5.26832
0.0222548
0.0221032
0.0223974
0.0346313
0.0217801
4.01087
0.547024
0.0319666
5.61232
0.0272762
0.154468
4.38162
0.680528
0.189688
1.23568
0.146974
0.0599406
0.173074
0.0507044
0.229002
0.499215
0.059192
0.0988354
0.0219004
5.99904
0.0286292
0.0216624
0.0332493
0.0229326
7.10704
4.65602
0.0219258
0.0216251
4.2588
9.45296
0.0222618
6.29931
0.0228998
0.186965
0.0219429
6.40531
4.95752
0.0283883
0.0223579
4.6251
0.21563
6.17225
0.0222694
8.31627
2.62714
8.33721
0.0216734
4.35788
4.53314
0.0494423
0.0218976
0.0223385
0.102993
2.091
0.0218373
0.0219088
0.0219589
0.0219534
6.45424
5.08184
0.0486164
0.266526
0.0219592
0.0218324
0.114709
4.39661
0.03435
0.0219498
0.02203
0.0220658
8.17179
5.93244
0.022173
0.022065
0.330075
0.0502904
0.0363891
0.0220931
0.0232935
0.0269215
0.0971508
0.353231
0.273041
0.184103
0.112026
5.61627
0.0714813
0.0219885
7.87169
0.0220691
0.0237788
0.024538
6.07428
0.0712499
0.0218369
0.563558
0.102465
20.0769
0.112655
0.0352281
0.0476923
0.0221885
4.91993
0.393566
4.90107
0.022255
0.030413
0.26906
4.87685
23.9911
0.0769094
0.127032
0.0249758
0.0242303
0.0220962
0.0529116
0.0853633
0.0221627
0.0628072
0.13529
4.90179
5.58015
0.0240856
0.152977
4.87525
0.0283205
0.0224245
3.5733
4.93325
4.82146
0.243607
0.0216279
6.06874
0.100897
0.0218667
0.0319055
0.0956988
0.0342982
0.0909783
4.22096
0.171159
0.0437102
4.87331
0.0232614
9.84905
0.0222368
0.0221662
4.67827
4.85436
0.611537
0.0232579
0.0226076
0.0220679
0.0510315
3.15608
0.171125
0.0244596
0.174255
0.0676633
0.0219479
1.41598
0.167224
0.342623
0.0219655
0.168047
0.0229088
14.0123
0.0622496
0.0711243
0.0307361
0.0218839
0.021688
0.0221106
0.108909
0.0277667
0.309613
7.2268
0.0697932
0.0218731
0.159411
0.637045
2.81078
0.02191
0.0270897
0.0219162
0.0304988
0.0254029
4.46859
0.022228
2.53387
0.0301859
0.241469
0.0798033
5.46059
0.0737728
0.0222928
5.59295
18.7293
0.022075
0.0244205
5.09488
0.200384
0.140695
0.0222376
0.0223914
0.281824
0.0250797
0.0780504
0.084598
0.0216892
0.067883
4.75135
0.0218879
0.0229646
0.0219786
6.63549
0.0222654
0.0246771
5.94942
0.023371
4.95062
0.0272856
0.0364597
0.0219713
0.048769
0.0220283
0.0577642
0.0218887
0.0785005
0.0229014
28.0828
2.93901
4.3871
0.0222664
0.0222053
0.0684232
0.0472983
6.40253
4.51932
0.0565151
0.0220387
0.301232
0.673642
0.340514
0.268059
0.0560007
3.73557
0.0387488
0.0468486
0.143185
0.167607
0.055685
1.06295
0.0540816
0.0236224
0.101797
0.0273759
0.0217414
0.0301893
0.044429
0.0277986
0.0220357
0.0219252
0.0689783
0.023489
0.0787051
0.0220403
0.0220587
0.0222732
0.0231824
0.0215337
0.0258692
0.0219986
6.62244
0.0843893
0.36958
0.0218025
0.0222468
0.0474817
0.0608912
0.0226989
7.43544
0.0738021
10.6179
0.0303285
0.131599
0.0224751
0.0222686
0.0219364
0.0231865
6.98733
0.0222548
5.59234
0.0261305
5.32772
0.0481491
0.0750285
0.230199
0.0216895
0.022291
0.0859261
0.0220487
0.0224544
7.29193
0.0227476
0.0221813
0.0283186
0.0219452
0.0216889
0.0279352
0.0284392
8.42241
0.0347985
0.0218849
0.0218785
4.76438
0.106728
0.0222418
0.0222584
7.47101
4.9992
8.54975
0.0352191
0.0236402
0.0217936
0.0216692
0.0603552
0.0358945
1.11831
0.0252041
4.9777
0.0223404
0.0236738
8.99025
0.0220513
0.0289105
0.022027
0.0220801
0.0431307
0.0432871
0.0225315
4.87258
4.95231
0.0811235
0.021986
0.021592
0.167347
5.64748
0.0222612
5.36345
0.0215924
0.0420238
0.0217103
0.021785
3.66609
0.0220075
0.431377
0.0400983
0.022273
0.0216216
0.0220695
0.0219302
0.0228774
4.11585
0.0218576
0.0217791
4.74669
4.80387
0.0452965
0.0460126
0.0761848
0.0255506
0.0218026
0.0278774
6.52627
0.0827046
0.0221288
0.0223008
4.53814
0.0391406
4.20101
0.022266
0.0228094
8.51536
0.0363376
0.0226147
6.95672
1.75695
0.0219259
0.130196
0.0219339
0.0219822
0.02179
5.29279
0.0215258
0.0218798
0.0217967
0.487223
0.0248908
0.185748
0.0639122
0.0217713
0.0328221
0.0221732
4.31603
0.0219677
0.0218739
0.022182
0.17397
0.0221745
0.171045
6.11687
4.55561
0.0265807
1.785
5.26362
0.022044
7.71874
9.47341
4.81649
4.69983
4.74863
34.445
0.148406
0.022367
4.23297
0.0360951
4.73787
0.021669
0.0219041
0.0222454
0.0221662
0.0265881
0.0308118
5.84917
0.0218929
0.0220721
5.709
0.254078
0.0220701
0.0380758
0.0302029
0.0222411
2.77628
0.0402969
0.0237838
0.0248366
6.15501
7.62654
1.35225
0.0216973
0.217044
0.102191
4.25815
4.59589
0.122772
0.021939
0.0225433
0.0223422
0.0214916
0.0232805
0.0216355
0.0270349
0.0377395
5.91804
0.166056
0.0218971
0.129636
4.51288
0.0409401
0.0223461
8.85688
0.0218983
0.0223721
0.0377109
7.13887
0.0221758
0.021969
4.81575
0.800665
4.75292
0.123911
1.56284
0.0219418
0.18709
0.0223752
0.0220009
0.0223577
4.17938
6.68274
0.021769
0.0216174
0.0220487
5.07795
0.0230658
0.0307266
0.0220487
0.0224722
0.176864
0.0217852
0.0594202
0.288122
4.91485
0.0220192
0.0771392
0.024256
5.72519
4.60501
0.0220275
4.80519
0.0815455
1.45151
0.022174
3.41884
0.0222458
0.0271125
0.0418934
0.123557
4.37736
0.35505
0.233117
4.90606
0.0218665
1.3118
0.0217739
0.0273809
4.86477
0.022131
0.0222532
0.0228552
0.022212
5.28267
0.0216841
0.022082
0.0688382
0.0464346
0.0583471
0.579912
0.183463
6.77618
0.0849444
0.0381022
0.0455303
6.06585
0.0470014
13.7589
4.46365
0.0260337
0.021784
4.34158
0.340193
0.0223195
0.117201
0.0349831
0.022316
0.0270746
0.0222558
0.041927
0.0222921
0.0551398
0.104952
0.0218916
0.0610058
0.0218196
0.0570457
0.0218847
0.0261167
0.0655183
0.023654
0.0221203
0.0217798
2.03666
0.0744937
4.97791
0.0220254
0.0221692
0.0704024
0.0220278
0.0897752
0.0746651
0.0223185
0.102583
0.0218029
9.68229
0.0222807
0.04314
7.41623
1.0645
0.0219495
0.0236458
6.74248
0.0220036
0.0219275
4.14299
4.94054
0.0242381
0.221683
0.0221028
0.0221121
4.1853
0.0230657
0.0217003
3.42313
0.0218218
4.63374
0.0221969
0.0217036
0.0222462
0.187624
4.86623
0.022161
0.0223211
0.0219421
0.0258004
0.0220769
0.955598
0.0600012
0.0222688
4.89066
0.0482524
2.0662
4.87598
3.6877
0.0217567
0.022284
0.0220845
0.650007
0.0263204
4.88717
5.74528
0.0239021
4.87179
2.30915
0.0563604
0.20361
0.0656984
0.387849
4.36562
0.0601543
0.773754
4.8015
0.0838367
0.025202
5.87031
0.0535699
0.0216823
0.0234457
13.833
0.037463
0.0219189
0.0504598
0.0972186
0.0379928
5.73246
0.0237692
5.10225
0.0458342
0.33215
0.130445
0.229248
0.0295143
0.0217958
0.0226131
4.63763
0.022001
0.0241411
0.021821
0.0233048
0.021896
0.0349355
0.219777
1.90932
0.0444122
0.0586377
2.3091
0.306718
0.0218874
4.98101
3.71003
0.0217428
0.021919
0.0315308
6.04776
0.0222545
0.0736444
0.513634
0.0464595
0.0220813
0.02319
0.0218361
0.11668
0.0387536
0.0219898
29.63
3.89595
0.0419275
5.5242
0.0853908
2.42683
0.0233099
0.0258984
3.7228
5.36598
0.123502
1.68905
0.0283027
0.0222762
0.0219632
0.0222166
0.0220411
0.0226615
0.0505744
0.0219581
0.171242
0.0219445
0.0288891
0.0217537
0.0744416
0.172189
0.601822
0.0220286
0.227494
0.0219615
4.03254
0.0220414
0.0255736
0.0221225
0.364062
5.93236
0.19821
0.0219534
0.166783
0.0220623
0.029713
5.06104
0.0219553
0.0223792
0.0448787
0.0318211
4.82278
0.0219608
0.0296063
0.0231084
0.022043
0.0321299
0.0225072
0.0217583
0.0236923
8.33091
0.0245324
2.26963
4.84281
0.0553828
4.83865
0.0242753
0.0217644
0.0307475
9.78976
0.0233799
0.0358933
0.0495079
2.08652
0.0219153
5.76334
0.0632486
0.0757275
0.0217328
0.021638
0.227916
0.0224623
0.0222859
0.0334561
0.021682
0.0244131
0.0286687
0.0930239
0.290593
4.61975
0.0254206
0.0974497
0.418443
7.75134
0.0434564
0.241789
5.87363
0.0421032
13.0495
0.0236792
14.8167
4.78174
0.0216568
0.0222619
0.0219586
0.0226142
0.0442612
0.0217523
0.0238829
0.12268
0.0233933
0.0350466
5.3546
0.030029
0.0244283
4.66116
0.0226188
6.25827
0.0246141
0.0532113
0.0219041
8.42353
6.09927
0.0220612
0.0227525
2.909
0.0294191
5.871
0.0220218
0.0218178
4.88808
0.022757
0.0437419
12.0449
0.0220669
0.0566636
0.0292064
0.0216335
0.0219033
3.93495
5.40661
0.0222362
0.0236736
0.0220935
0.0265186
0.0369646
8.14672
0.0227105
2.56355
4.62775
0.342197
5.43607
0.0227017
0.168883
0.178807
0.0289361
0.0220629
0.07652
5.11453
0.02341
0.0447345
4.80751
3.5881
0.279519
0.0252281
0.0223101
0.0222465
0.0220692
7.19169
0.0644741
0.0240524
0.0228748
0.0245616
0.0222698
0.0220111
0.0220467
0.0955835
0.04371
4.89481
0.04651
6.52406
4.38185
0.0302221
0.0571423
0.0218192
0.0283648
10.0006
0.0221661
0.0235938
0.0598096
0.141998
0.056125
2.25023
1.0475
0.0219028
5.03055
0.0215976
0.0222876
0.0449544
0.0222733
0.0219232
0.246276
5.57239
0.0218282
3.51805
0.0221469
0.0217452
0.0235186
2.71469
0.0290707
0.0245656
13.1424
0.0229753
1.17989
4.52833
0.0222462
0.0476244
0.0220103
6.36963
0.0755281
0.0220477
3.87179
0.0608481
0.0769709
0.0222784
6.53005
0.0291459
0.428534
0.0229172
0.0689684
8.23593
0.02177
1.41172
0.0221483
0.0622841
0.0517716
0.0222453
4.24101
0.0236186
0.139847
0.0592377
0.0963735
0.0396339
0.0431655
0.0226417
4.78665
0.0316089
7.37294
0.0298053
0.0832893
0.021997
0.0432212
0.0220697
0.0914756
4.47353
0.0228011
0.0218481
3.34811
0.0229045
0.438319
0.0225199
3.8666
0.343441
0.0349442
0.0219971
0.0219486
0.0221087
0.0216354
0.106491
0.0540986
0.0386855
0.0258446
0.0220822
5.76102
0.023783
0.0337645
0.394796
0.0220532
17.5571
0.058965
0.0317093
1.28754
5.5663
0.644613
4.14322
8.60371
0.0219094
0.302146
4.57558
0.342763
0.0221726
0.0222408
0.157239
3.92056
6.15492
0.486688
0.0222492
0.0501965
0.0432686
4.68407
4.82748
0.0491922
0.16785
0.023936
0.0744491
0.123026
0.0221643
0.100692
7.27496
0.0221307
4.67513
0.0222531
0.0219838
6.21493
4.8777
0.0218553
0.0223279
0.0225195
0.0218285
0.0471277
0.247397
0.0231596
0.0219908
0.0220976
0.0473297
0.0279291
0.0276217
0.487255
0.0220376
4.78669
6.62899
4.78397
0.142591
0.0525905
4.61926
0.0355323
4.11456
4.20191
6.5931
0.0224657
4.9777
4.68108
0.0217782
0.0220384
0.0942871
4.14055
9.42583
0.0217701
0.0220684
4.9018
2.23084
4.17259
0.0240604
0.0239465
1.94998
0.0222484
4.88977
8.04836
2.5955
1.21153
0.0220876
0.0219451
0.0218894
0.0261584
5.33649
0.0466146
0.0261183
0.0226419
0.0797352
6.67636
0.0472238
5.11263
4.77555
5.92164
2.16495
0.0220544
0.0221717
3.86221
0.0216716
0.0216813
0.0231002
3.3009
0.0402648
10.7411
0.125766
0.0220317
4.48094
0.0396209
0.0219003
5.32096
0.16176
0.0251112
0.02211
5.50996
4.24341
0.0221806
6.32313
4.61982
6.24815
1.14442
0.0762541
0.0219581
0.0226116
1.2063
0.025878
4.14015
0.0416333
1.60784
2.84796
0.0229413
0.0288943
0.0219567
0.022757
4.25359
7.27143
0.0220695
4.42347
0.0500696
0.0220761
0.0248222
0.0219456
0.190973
0.0224931
2.09774
0.0500933
0.0219484
0.0218767
0.0911676
10.9445
0.0413307
0.0240373
0.0425732
0.022061
0.0232284
0.0284757
8.08187
5.07753
4.17608
0.0217321
0.0218703
0.022404
0.170968
0.021888
0.0224526
0.250878
0.0707522
4.02775
0.0216434
4.34363
5.05534
0.0222843
7.87896
0.148553
0.0428801
2.05569
0.0223499
5.18063
0.029354
0.023104
0.0239321
0.0216676
0.322897
0.0223921
0.0227731
0.0309019
4.50111
4.85465
0.0222459
0.0220211
0.0236008
0.0220213
0.137979
0.0224733
0.0832798
0.0237445
5.24014
0.0227045
4.89559
0.0217343
4.37549
0.0224481
0.0216503
7.18385
0.298766
0.109138
2.16462
0.0443149
0.0447162
0.0220481
5.81952
0.0220654
0.0218941
0.0881784
0.0837446
11.3859
4.18016
0.130496
5.58172
0.121274
1.0206
0.02192
0.02528
0.029218
4.75903
0.0248826
4.69091
5.48213
0.022199
0.0220753
0.0220555
1.11768
3.29933
0.0235281
0.0221077
0.0257598
0.028207
0.0411714
0.339981
0.267384
0.0220635
0.679652
0.0795232
10.5332
0.0778145
0.0233281
0.0240195
4.48256
0.0218864
0.0869128
4.57242
0.0227823
0.0254626
0.252047
0.136043
0.0228181
8.33559
0.0245729
1.35316
0.0472108
0.0301247
0.0228188
4.26016
0.0218672
0.0902628
1.43741
4.32329
0.0514203
0.0636576
0.0262784
0.0466392
0.0222658
4.50914
0.0276297
0.0220017
0.0308992
0.0220912
0.0222692
3.58728
0.0220695
0.0221793
0.0220911
0.178082
0.0222661
0.0329328
0.0947376
0.194395
0.111723
0.0222539
0.211627
0.430672
0.193276
0.0788041
0.0274076
0.186273
4.55448
0.494909
0.0222845
7.13614
3.69615
0.0222839
0.0242852
0.0216566
0.690351
0.0962186
0.0220606
1.30824
4.76893
0.0218193
0.0222361
2.60349
5.18016
0.0858763
0.0216717
10.3841
4.23843
3.23812
0.0220311
4.7174
0.112294
0.0677446
4.16993
0.0267153
0.0216693
0.0307913
0.164456
0.0339382
3.52492
4.3336
0.0218424
5.19745
0.447767
4.25925
0.021732
0.0527854
0.0223029
0.0219557
4.79091
5.18389
0.816122
4.65908
0.0291229
0.0528938
0.0221362
4.16453
6.32949
0.0220507
0.0222966
0.0317375
0.0218065
0.0580149
4.89735
6.20101
0.0541095
0.0225254
0.0221558
4.7163
0.0249985
0.0589533
0.0218204
0.0230426
0.55395
5.26276
4.17423
2.88899
0.0221704
0.43208
0.02224
0.0468687
9.42675
5.98981
0.022074
0.0222938
0.0404527
0.0257318
0.0222118
4.81625
4.72611
0.0218014
0.0215154
0.0221913
0.0219715
2.63182
0.0217432
2.84742
0.108672
0.0831596
0.021884
0.0465122
4.26456
0.0361804
0.391919
6.07039
0.0223081
9.05768
0.0331639
0.0357062
0.317392
8.01487
4.32651
0.0776962
0.0219198
0.218975
0.0217555
0.0253107
0.0222503
2.47138
0.0315491
1.20905
0.358133
0.0517007
0.0221251
0.23928
0.0278588
0.0222704
0.256155
0.021606
0.0434653
0.0355446
0.022208
9.45018
0.0234281
0.546467
0.0228807
0.0219465
5.51945
4.86916
0.0241536
0.0325846
0.0458019
0.0555042
0.0755551
0.0271402
0.0258504
0.025657
0.381296
0.0251504
2.73911
0.0570995
0.752756
0.16343
0.0227289
4.82255
0.0216173
4.61931
0.0242583
4.28467
3.54131
7.95149
7.43446
0.502878
0.0736966
0.0220277
4.90124
0.080667
0.0220474
7.73223
4.85423
0.0233327
0.0240254
0.0309257
0.0309727
0.0351102
6.74125
0.022284
0.0319063
0.0397292
0.0320115
0.0221639
0.116792
0.0216178
3.24974
0.0237091
0.123561
0.0324084
0.0426057
0.108858
5.1542
0.081728
0.0218572
0.21159
4.87922
23.6334
0.022436
3.25205
0.0299209
1.77167
0.0220655
0.0245296
4.80967
0.0648461
4.55318
7.74293
0.0332529
4.42516
0.0220094
0.0216052
9.56753
0.0595013
0.0244872
4.73864
0.0270808
0.0449922
0.0292915
0.0672835
0.0222066
4.96715
4.85017
6.2235
1.06042
0.0258473
0.0549413
4.58725
0.0241001
0.0223633
0.0760443
0.0217112
0.271236
8.54039
6.57743
6.98872
0.0693714
0.0225073
4.67955
0.0216037
0.0969705
0.0222347
25.6803
0.0238498
0.046709
4.9076
0.122882
0.0220273
0.0319859
11.8969
0.0220813
0.194773
0.021813
9.14857
4.60398
0.148605
0.0777481
0.0219539
0.31032
0.195069
0.0420051
0.0218185
0.0225317
0.022147
0.0682985
0.0221238
0.117336
0.0221239
0.0218218
4.79573
0.0218927
0.0270159
0.0256305
0.0222746
4.87094
0.0218882
0.0335067
4.73428
0.0600522
2.1025
0.0220823
4.1911
0.0639826
4.71765
0.0236249
0.171161
0.0221765
0.0451363
0.172061
0.158121
0.230983
4.80501
0.205519
1.2992
0.0270241
0.155632
0.0411141
1.07798
0.0250979
0.0221192
0.0220491
0.0631869
0.044981
5.34912
0.0614558
4.46481
5.80151
0.100186
0.0220479
5.28785
0.18845
0.0224998
0.0241214
0.0221111
4.6482
0.022047
8.04328
0.0218793
0.0282193
5.52003
0.0737098
0.022049
0.0220424
9.88037
0.0219005
0.0241158
0.025687
0.03228
0.0279581
0.0222155
0.215816
0.0821264
0.0430894
0.286911
4.11345
4.86807
7.52447
0.021749
0.022017
0.0948937
0.0225235
0.0466766
3.0004
4.92251
0.0216673
0.0220486
4.43791
4.57946
0.0216848
0.02186
0.0265295
14.8122
4.06407
0.0268005
0.0339017
0.0221987
0.330937
0.174143
0.13708
0.0316732
0.0433592
0.0224329
0.0386552
0.439166
0.0228124
0.0221921
0.0265183
4.67763
0.0252559
6.61694
0.0221057
4.80395
0.0360232
0.0281337
0.0217894
0.0219364
0.623545
7.12034
0.0582081
4.77777
10.736
0.0225925
4.82069
0.200015
0.0219236
4.76107
1.90462
0.147577
0.0222538
4.8355
4.18083
0.0219744
0.0389159
5.16159
0.0439025
0.0220967
0.0218139
0.0224508
0.0242061
0.079443
1.59423
0.0793401
0.0740597
0.0217444
0.0222474
4.36257
0.0218679
0.0471356
0.0265932
0.0221001
0.0529641
0.0220309
0.023785
0.293644
0.0220018
4.98178
0.0220291
9.76811
4.92264
0.0979197
0.0222947
0.0222927
4.65051
0.021655
0.0242995
0.0223629
0.27426
1.21483
0.0351754
4.89623
0.0412691
4.76568
0.0225507
0.087902
0.0218071
0.0221383
4.53663
4.85477
0.81029
0.0238658
0.0833997
0.085795
4.67936
4.71947
0.26187
0.0395362
0.0215982
4.94923
0.0219366
0.0220009
0.394958
0.157931
0.0282964
0.189658
0.0465131
0.0314175
0.0279431
4.4288
0.0246275
0.0219962
5.98716
0.0457916
0.0217322
4.68154
0.0220335
0.0221103
0.190072
0.132121
13.8477
0.0217496
0.0248124
0.0219375
2.17546
0.0218937
0.519442
4.73326
4.9174
4.51317
30.2137
0.030233
5.48804
0.8935
0.0222093
0.0304928
0.0429979
0.030398
1.27616
5.2369
4.11525
4.73638
2.22098
0.0222068
0.136874
0.0220409
4.41154
0.0295379
0.0232903
0.0242913
0.0227792
0.021908
0.129595
4.13998
0.0217354
0.0237794
0.0218691
5.99667
0.023635
4.30479
1.85107
0.780383
0.0220954
0.0219151
5.78842
0.361925
0.0221385
0.257586
0.0222276
0.123145
0.177397
0.104203
0.0613454
9.60032
0.0218195
0.0218059
0.292563
4.47923
0.0295779
0.0457556
0.0219669
9.80469
0.022024
0.0219519
0.023257
0.0220283
6.45302
5.1464
4.50892
0.0771522
4.62759
3.79302
0.0216726
0.0334891
0.0217136
1.25903
0.0220209
0.0248672
0.0220181
0.0219303
0.0217981
2.39269
0.0228776
1.6557
0.0215895
0.032615
0.0229949
1.60541
0.0220489
0.0335302
0.0398418
0.0657779
5.88497
0.0219284
5.31472
0.0654285
0.0445512
0.0220241
0.0219662
4.79978
13.6782
0.0220384
0.0219137
1.39165
0.43773
0.0381
4.81265
0.0228167
2.74652
0.0338681
0.0217212
4.87899
0.0230215
4.34634
0.0220443
0.0227626
0.0221192
5.52267
4.90778
0.0216893
0.236985
0.274747
0.0220602
0.0218934
0.0218977
0.254468
4.73884
0.0618622
0.0245396
0.0402137
0.0220342
0.0220865
0.0238539
0.0220068
0.24823
0.0220955
0.083054
0.507879
0.0361536
0.0216274
1.89348
0.0921518
0.0220421
0.0748613
0.0324259
4.37036
0.0245668
10.1804
0.057281
0.0220335
0.0832294
0.082621
0.0249541
4.39069
0.0772939
0.0317975
4.53225
0.0219751
0.131641
0.0860239
0.112556
0.0219497
0.0220119
0.0216513
0.0330216
0.0706578
0.0684822
5.3873
4.23152
2.15806
0.0222665
1.95342
4.82771
4.70847
0.0220229
0.0220691
0.0634019
4.53779
0.024243
0.0396179
29.7261
6.61015
12.0317
0.11448
0.196848
4.55149
0.380353
0.021617
8.24301
0.230442
0.0223756
0.0224031
0.0228705
4.181
0.0919902
4.86137
0.0240847
5.32764
0.0221729
5.41457
4.93129
0.0222696
0.0375267
5.0483
4.4505
0.0554189
0.0229615
0.0237906
0.0224172
0.199288
0.172424
1.21037
4.70571
0.0217692
4.74012
0.143619
0.366984
0.0220295
0.0221644
0.391179
0.282498
0.0219938
0.0506143
0.0733114
0.0392313
2.97663
4.81865
4.19328
4.71327
0.0254648
0.0216745
0.0661474
5.31807
9.86706
0.021972
0.254736
0.0914615
0.47175
0.0224466
0.0222561
1.16981
5.22165
6.75572
1.60298
4.79597
0.0219692
0.246371
4.74258
0.0222715
0.0620717
0.115132
0.021699
0.234802
4.81605
0.243971
0.0222551
5.4421
0.139137
26.9482
0.0215052
0.0239025
0.0222072
0.0231584
0.0221726
0.0523212
0.039719
0.0419994
0.355607
0.0370472
5.39392
0.0253321
0.0305368
0.0280966
9.23187
0.0584754
4.68439
0.0281085
0.0278316
16.5739
0.0976187
0.0220901
0.0422341
5.3359
4.85029
0.522777
0.0220142
0.0219396
0.0219685
5.04987
0.0232198
2.48372
1.33609
0.251646
0.031883
0.228784
5.35313
0.0221748
6.19059
0.0333565
0.0513452
0.0219776
0.0219386
0.0558317
4.51923
0.0220797
4.4904
0.410858
0.0973859
0.164239
0.0219033
0.0220254
0.031424
0.0229815
25.6333
26.5142
0.0804814
0.628004
0.0219988
0.0221303
0.0222211
0.0222461
6.65959
0.0233991
4.62356
0.0863426
0.022475
0.36343
1.27011
4.79153
7.81103
0.0237832
0.0217864
0.0221295
0.0235523
0.797242
0.236353
4.41488
0.022154
0.0224735
0.149917
0.0222602
0.319196
0.0237364
0.144774
0.164757
0.040805
0.0392894
0.0217449
0.0493945
0.0377265
0.189617
0.0832901
0.0417177
0.021876
0.211699
0.021914
1.62987
4.65092
0.931226
0.0221126
0.107328
0.0220629
0.0538937
0.0230903
0.0227514
0.0282806
8.36951
4.22116
0.0781295
0.0461083
0.200469
0.072737
3.05509
4.59566
0.0308969
4.84225
0.290237
0.0218778
0.0578215
4.61338
0.101524
0.0222356
0.054482
2.24174
4.27581
11.8516
0.0221922
4.52897
0.0221
0.0219598
0.0506912
2.80815
0.0222639
5.10902
4.63461
0.334385
11.1349
0.358744
4.17861
0.271302
0.021743
0.0249919
0.0216574
0.0422879
0.248817
3.16408
0.0243959
0.0411259
0.0216388
4.30754
0.043778
0.0484208
4.54661
0.100857
7.40323
4.24228
0.0220058
5.92564
0.0221192
0.0282486
0.0470034
4.76413
0.239867
0.0279056
0.023259
0.568043
0.0343669
4.42913
6.67789
0.0320802
4.26262
0.0553339
0.0222731
1.15174
0.0603362
0.0230513
8.04192
16.7854
0.0312738
0.0261073
0.185956
5.25656
0.0219866
0.0222674
0.021684
0.0217774
0.0223433
4.76328
0.0313328
4.90424
0.0219575
0.0219665
0.839498
0.0222408
0.0239295
0.0220578
0.0220406
4.86947
0.021781
4.35715
0.0220269
0.0232461
0.0407646
0.0221838
0.145875
0.0217946
0.0222651
0.0218132
0.0281604
0.0877765
0.0249736
4.80893
0.0219694
0.0430888
0.0311029
4.6385
0.0227808
0.0222687
0.0216992
0.0217021
0.354455
0.0219335
0.0219268
0.0249773
1.06038
0.0219369
0.0419054
0.0324604
0.022061
4.62784
7.05102
1.12476
4.66729
0.0254099
0.15739
0.0221872
0.10339
0.290654
0.0223655
4.62757
0.183998
4.35651
0.0305621
0.0220388
1.53005
0.0425336
0.605266
4.81834
0.021576
0.022014
6.54241
4.15095
0.0768272
0.054129
0.0231251
11.8519
5.00025
0.0215096
0.0219725
0.0221511
0.0221719
0.0222477
0.0220448
0.0357452
4.65735
0.0308907
0.0222322
0.503905
0.0219929
0.640937
0.0451787
0.0220705
0.0280985
0.0219358
0.301525
0.0249433
0.0526229
0.0219914
0.0223122
4.83296
4.74256
0.022177
0.064066
0.04425
0.0308934
0.0239457
0.0222713
0.0228236
1.09474
0.432791
0.047419
4.64815
0.0225587
24.4045
0.127593
0.0259604
18.8801
0.0231227
4.90286
4.85576
4.73453
2.58963
4.82604
4.79184
0.0216455
0.0274727
0.0247535
0.0216448
0.0217538
0.0306022
0.0757727
0.0218012
0.0293588
0.169467
0.0729624
0.330629
0.316491
0.0335423
1.22075
9.11794
0.0341024
0.024914
0.182359
9.73896
4.80116
0.0255625
0.0216268
0.021896
0.0218028
0.0325022
4.97715
0.301014
0.0217497
5.31141
0.0219835
0.194373
3.50284
0.0834368
0.162411
0.0927882
0.323672
0.0228843
0.0334457
0.0218834
0.21999
0.0219993
0.0230685
0.035762
0.228972
0.0221755
0.0244875
4.62296
0.0218275
0.0220841
0.0291115
5.97943
0.109911
4.1727
0.0384522
0.022149
4.32067
0.0372863
0.0234216
0.0220353
0.0305335
0.0266167
0.0220442
0.0293286
5.75766
0.0236331
0.0216644
0.0468678
0.0219001
0.0315841
0.0300912
0.0220681
0.0220013
4.44008
0.0217341
0.0220374
0.0216698
0.0257539
0.0214746
5.05299
0.0260474
0.180196
0.0219613
0.021933
0.022072
4.74329
0.0855098
0.0220479
0.02161
4.86319
0.0251429
0.0787846
0.0218722
0.149193
0.0234326
0.0215601
1.59662
0.021768
0.0223009
0.0221451
0.0220193
0.024219
0.0221289
0.0220354
1.58449
1.58761
4.32708
0.344391
8.44943
0.0218847
4.17796
0.0219681
3.71358
8.16193
0.0218079
10.389
0.0219795
4.81215
11.5889
0.288397
4.96035
5.05167
0.637526
0.391381
6.43742
4.85563
0.0423369
0.0511151
6.07985
0.0235471
0.0216761
5.48969
0.0240299
0.0281586
11.1576
0.0230322
0.354489
4.86395
4.81666
0.343173
0.158068
0.0222517
0.0282577
0.048113
0.0223199
5.43942
0.293897
0.108956
0.0219391
0.0220684
9.01988
0.0217116
0.552924
0.0218759
8.81642
4.14532
0.0339045
0.0261374
0.0220388
9.96581
2.65211
0.0254314
0.0335563
0.0222857
0.0222855
0.0757754
0.0231944
0.0321407
0.0635653
0.0242761
0.0364464
0.022045
0.0319886
16.7155
0.022597
10.3394
0.0219915
0.777125
0.0556225
0.0220421
8.7597
0.174013
0.0218724
0.148739
0.0220449
4.37921
0.0222491
0.0220201
2.53162
0.0221448
0.11817
0.0234855
0.198372
0.0218742
0.022391
0.021872
0.0299776
0.0242699
0.0223462
0.022651
0.0253485
0.0225004
0.173785
0.061221
0.0317269
0.0233698
0.0216299
2.33969
4.82428
0.0228268
0.0225856
0.0227039
0.0373097
0.0222721
0.0348368
0.0215728
0.0222853
0.685502
0.0233903
0.0222846
0.0219214
4.52867
12.1078
0.0216039
0.0673676
0.0591029
0.201712
0.289757
4.99936
4.20241
0.510985
0.0230572
0.196297
0.0219294
0.0316024
7.52073
4.51421
0.127086
0.0239374
17.04
0.0220427
0.0453821
0.366441
0.0222775
0.193443
0.023512
0.0233089
0.0696278
0.206106
1.70697
4.44687
0.0218642
0.0216041
4.33771
4.92207
0.022289
0.0289978
0.172131
0.0220592
0.0220155
0.0241409
0.387562
0.0217915
5.46049
0.0293905
0.0222734
0.327658
0.0999128
0.0914348
0.102543
6.50758
0.0244552
0.0369416
0.0275176
0.0238007
9.73065
0.0343416
3.51023
4.68164
0.0631823
4.19658
0.0451236
0.0464518
0.289483
0.0217441
4.3863
0.0860547
0.0333829
0.0290925
0.0221766
0.0216757
3.28542
0.0423158
3.86737
3.89429
0.0221153
5.29037
0.0218485
0.0219861
0.0286937
11.435
0.102047
0.0216804
2.596
0.0220255
0.023871
4.45174
0.0237281
4.56768
0.0222726
4.15015
6.30402
0.0681549
1.28016
0.0234289
4.77044
0.0216238
4.79729
4.36541
4.11877
4.84231
0.0219462
0.0218512
0.19764
4.6363
4.79371
4.63557
4.866
0.0221886
4.5026
4.71449
0.0224725
3.16575
0.031582
0.0329705
11.7933
0.0376994
4.39934
0.0219599
0.0373405
0.0371671
0.174567
6.52118
0.0363336
4.81857
4.14365
0.0221705
0.0246587
0.0238251
0.0252006
4.82392
0.0220176
0.021779
0.0386722
4.8702
4.75202
0.0284442
4.62989
4.61663
0.0219945
8.24504
5.78888
0.238093
4.77407
0.0633159
0.0244083
0.0221716
0.134855
0.0265762
0.0755355
9.68569
4.20451
0.0289259
0.0995333
0.0258031
0.0459007
0.0216636
0.05044
0.0247488
0.0835182
4.36703
6.13248
3.78286
0.0216692
0.18445
0.0827499
4.93915
0.0232501
4.30059
4.55089
4.58941
0.0221269
0.165538
5.28528
10.5089
7.51857
0.0360698
4.88004
1.67992
0.0815011
0.08998
0.0243263
0.0292278
4.21779
0.0454373
0.0221851
4.47515
0.0220862
0.0223456
0.173373
0.173234
0.0218451
0.0839751
0.0247133
4.91087
10.0184
0.0239109
1.42544
0.022093
0.0219274
0.0750616
4.25862