/*--------------------------------*- C++ -*----------------------------------*\
| =========                 |                                                 |
| \\      /  F ield         | OpenFOAM: The Open Source CFD Toolbox           |
|  \\    /   O peration     | Version:  v2012                                 |
|   \\  /    A nd           | Website:  www.openfoam.com                      |
|    \\/     M anipulation  |                                                 |
\*---------------------------------------------------------------------------*/
FoamFile
{
    version     2.0;
    format      ascii;
    class       volVectorField;
    location    "700";
    object      ddt0(U);
}
// * * * * * * * * * * * * * * * * * * * * * * * * * * * * * * * * * * * * * //

dimensions      [0 1 -2 0 0 0 0];


internalField   nonuniform List<vector> 
13851
(
(-0.000573501 0.00196169 -4.39726e-17)
(-4.27809e-05 0.000103241 8.3942e-18)
(-5.14165e-05 0.00010128 1.6647e-18)
(-0.00315288 -0.00362785 1.43342e-17)
(-0.000128665 3.289e-07 1.15572e-18)
(7.54235e-06 8.02715e-05 6.50543e-18)
(-0.000219563 9.03109e-05 -6.43688e-19)
(-0.000278187 2.85216e-06 -7.90454e-19)
(0.00762909 0.00456529 -7.27033e-18)
(-7.63207e-06 2.63371e-05 -6.28931e-18)
(5.76241e-05 -0.000204256 1.31873e-17)
(-5.08596e-05 3.04945e-05 -9.75277e-19)
(1.6658e-06 -7.25034e-05 9.26594e-18)
(0.00297616 0.000947229 1.46957e-17)
(-0.000168126 0.000485704 7.11342e-18)
(-0.000166023 -0.00253058 -1.41024e-18)
(0.00290585 -0.000815231 -1.68056e-17)
(-9.38447e-05 1.80303e-05 -2.29541e-18)
(0.0122187 -0.00239471 -4.13113e-17)
(-0.000545805 0.00203484 3.19148e-17)
(1.72566e-05 0.000539975 9.09769e-19)
(2.66468e-05 7.40949e-05 -2.94707e-18)
(0.00667599 0.00816817 3.62318e-17)
(-2.54251e-05 -4.16124e-06 1.24247e-18)
(0.0138399 0.0189853 1.42622e-17)
(-0.000630553 -6.64645e-05 -6.0705e-18)
(-0.0102349 0.00722316 8.23928e-18)
(0.00455508 0.0232266 3.68907e-17)
(0.00894832 -0.00281818 5.80607e-18)
(-0.000138322 3.60152e-05 -4.12751e-20)
(0.00714407 0.00357711 -2.35013e-17)
(-0.000217361 0.000100501 1.64321e-18)
(-0.000552334 0.00189297 2.80762e-17)
(0.00172667 -0.000516018 -1.56404e-17)
(6.30857e-05 -5.18151e-05 -1.55676e-17)
(0.00658476 -0.00283907 2.87609e-18)
(-1.08731e-05 -3.71673e-06 -1.24011e-18)
(-0.00594742 -0.00940921 5.04156e-17)
(0.00619553 0.00317019 -4.92421e-17)
(-2.23851e-05 4.36657e-05 1.69615e-18)
(0.000250832 0.00334331 -2.13966e-17)
(0.00871965 -0.00339796 -3.01788e-18)
(0.00334409 9.62915e-05 -2.58526e-18)
(0.000124539 -0.00110986 -3.36005e-17)
(0.0114242 -0.00295584 2.56661e-18)
(-6.25847e-05 4.19874e-05 -6.9602e-20)
(-0.000305336 5.50604e-06 -5.89221e-19)
(-0.00289822 -0.00131478 -5.9132e-18)
(-1.24002e-05 6.20095e-05 -5.21225e-18)
(6.66293e-06 -7.3593e-05 -6.92406e-18)
(0.000830478 -0.00125343 -3.07522e-17)
(2.98753e-07 -7.93306e-05 1.66549e-20)
(-0.000519699 -0.00243517 -4.30882e-18)
(-0.000363618 0.000217242 1.35499e-17)
(0.00964567 0.00110492 1.55576e-17)
(-2.19727e-05 4.14698e-05 -1.73848e-18)
(-0.000519922 0.00189552 -3.8715e-17)
(-0.000879072 0.00308764 2.17358e-17)
(-0.0151442 -0.00615834 -6.89763e-18)
(-0.00156086 0.000235078 1.42912e-17)
(-5.13998e-05 2.43607e-05 -7.50436e-19)
(-0.00779168 0.00613572 1.28663e-17)
(-2.55998e-06 3.22276e-05 1.86545e-18)
(-1.34832e-05 5.95681e-05 2.10225e-18)
(0.000283965 -0.000130596 -1.15346e-17)
(0.00028325 -0.000110991 -1.262e-18)
(-0.00149175 0.000173925 -2.42793e-17)
(0.000132495 -0.000216896 -1.07765e-17)
(-3.53836e-05 9.53754e-05 -7.96807e-19)
(-0.00616294 0.00104352 -2.81023e-17)
(0.00714009 -0.00207656 -3.99163e-17)
(0.000138041 0.000695201 -1.04975e-17)
(-1.88307e-05 -5.2765e-05 -5.20011e-19)
(-0.00132536 0.0001684 1.36311e-18)
(-0.000346335 0.000302721 2.92352e-18)
(1.24319e-05 9.43623e-05 6.09039e-19)
(0.00317907 -0.00130533 -1.19826e-17)
(-0.000176478 3.7624e-07 -8.23849e-20)
(0.0109923 0.0183026 -2.49976e-19)
(-5.98697e-05 -3.09329e-05 2.86478e-19)
(-3.82218e-05 9.69742e-05 6.92487e-20)
(0.00773234 -0.000320567 -9.12728e-18)
(5.52679e-05 -4.23391e-05 3.41636e-18)
(0.00176503 0.000832312 -1.10591e-17)
(-0.00136404 0.00025641 -9.48931e-19)
(0.00816311 0.000907763 -8.05774e-17)
(2.70281e-05 7.21394e-05 1.12258e-18)
(0.011919 -0.000511347 1.18193e-17)
(-2.0851e-05 8.52965e-06 1.632e-18)
(0.00664438 0.00434941 2.48668e-19)
(4.2733e-06 -7.53156e-05 5.43749e-19)
(-0.000222653 0.000112589 -3.21603e-18)
(0.00347273 -0.000200378 -3.27921e-17)
(0.00738488 0.00120831 9.12439e-17)
(0.00472212 -0.00443124 -5.94869e-17)
(0.00063116 -0.000614872 -1.21133e-17)
(-4.8279e-05 5.94572e-06 -7.52224e-19)
(-0.00199806 -0.00247143 2.86999e-18)
(-0.00670247 -0.00022681 -3.29948e-17)
(-0.0022416 0.000511736 -4.54357e-17)
(-0.0024683 -0.00259272 6.45786e-18)
(0.000120423 -9.9561e-05 4.55429e-18)
(0.000143594 -0.000102864 1.34725e-17)
(-5.21593e-06 -5.09785e-05 5.04481e-18)
(-6.98164e-05 6.86645e-05 7.57639e-19)
(0.000303414 0.000409014 -4.95994e-17)
(-7.12333e-05 6.17418e-05 5.0006e-19)
(0.0076852 -0.00201189 3.29898e-17)
(-0.000218581 0.000120888 5.03579e-18)
(-0.000100879 1.85365e-05 2.02182e-18)
(6.64163e-05 8.91568e-05 -2.53499e-18)
(-6.04521e-05 5.10455e-05 -1.97323e-20)
(-0.00180082 -0.00187014 -3.81139e-18)
(0.000210316 -0.000119953 -1.63867e-17)
(-0.00122159 0.00226875 -8.78125e-19)
(-0.000349267 0.000213605 -2.11573e-19)
(-0.000155835 3.32834e-05 -2.0408e-18)
(-0.000283011 3.63864e-06 3.39137e-20)
(-0.00204865 -0.00323351 -4.27946e-17)
(-0.00672261 0.00103031 -5.71409e-18)
(0.00112808 -0.00016394 1.07869e-17)
(-0.000112909 1.9603e-05 3.04056e-19)
(-3.11991e-05 8.95429e-05 1.04144e-19)
(-0.00145247 0.000383518 1.35998e-17)
(0.00524602 0.00721775 5.93565e-18)
(0.000221183 -0.000341389 -4.08388e-18)
(-5.37835e-05 5.01927e-06 -4.45232e-19)
(-0.000160063 5.65964e-05 2.32601e-17)
(0.000867176 8.25376e-05 -6.01909e-18)
(-0.000130745 0.000705032 -3.68359e-17)
(2.77282e-05 7.77824e-05 2.58429e-19)
(5.29765e-05 2.16005e-05 3.20653e-18)
(-0.00999333 -0.0111217 -5.26737e-17)
(0.00077695 8.41133e-05 -1.68027e-17)
(9.42386e-05 -0.000209936 4.09827e-18)
(0.00705215 -0.00293746 3.65979e-17)
(0.000119708 -0.000209118 -1.5108e-19)
(0.00805429 -1.18356e-05 8.62524e-18)
(8.53889e-05 -4.65408e-05 -3.25473e-18)
(-0.000240199 0.000672024 7.02359e-18)
(0.00668374 -0.00116943 1.64666e-17)
(1.77328e-05 1.82206e-05 2.61012e-18)
(-1.69508e-05 7.65719e-07 -8.00413e-19)
(0.000277852 -0.000171717 1.26333e-17)
(0.00269866 -0.0104634 4.97012e-18)
(1.58792e-05 9.84267e-05 2.869e-18)
(-0.000175874 -4.98181e-08 1.22632e-18)
(0.00721774 0.00232461 -3.4174e-17)
(0.0124219 0.000218889 -2.82522e-18)
(-0.000195372 5.97927e-05 -1.20336e-17)
(-0.00282617 -0.00227399 2.95328e-17)
(-0.00167161 -0.00140652 8.8214e-18)
(0.000198144 -0.000139722 -1.622e-17)
(0.00874129 0.000761378 -8.08362e-18)
(5.34722e-06 -5.09631e-05 -4.09631e-18)
(2.93872e-06 -4.37276e-05 4.44553e-18)
(-5.04121e-05 9.74343e-06 2.99651e-20)
(0.00580462 0.0029917 2.94883e-17)
(-0.000206013 0.000608652 8.75238e-18)
(-0.000163535 0.000158488 2.97618e-19)
(-3.4589e-05 -9.40253e-06 -8.29597e-19)
(0.0079902 -0.00289283 -1.4821e-17)
(0.000262322 0.000418295 3.6582e-17)
(-0.00302237 -0.00099972 -8.25277e-18)
(0.0032241 0.00106862 1.45627e-18)
(0.0100812 0.00443371 -1.15057e-17)
(0.00952007 0.00513958 4.89001e-22)
(0.00127623 -0.0014882 1.31871e-17)
(6.07679e-05 8.86691e-05 -5.38886e-18)
(-0.01101 0.00423586 -1.64518e-17)
(-4.74401e-05 1.19317e-05 -3.27628e-18)
(-0.000171221 3.28624e-05 1.27783e-18)
(0.000529405 0.00025587 -7.10577e-18)
(-0.000103814 -2.49561e-06 1.86391e-19)
(0.00517705 -0.00496573 2.14879e-17)
(0.00477811 0.00563892 -1.13895e-17)
(-0.00455132 1.02097e-05 -1.09915e-18)
(-0.000175029 3.23596e-05 -2.81146e-18)
(-0.000360426 0.000277721 7.34787e-18)
(-0.00425843 -0.000243015 -1.34034e-19)
(0.0040139 0.00673349 -1.13692e-17)
(0.000473593 -0.00105832 2.43951e-17)
(5.29124e-05 8.49457e-05 1.61862e-19)
(-0.000161617 0.000678387 2.69318e-17)
(0.00297104 -0.000432088 -2.03263e-18)
(0.0123788 2.32981e-05 2.03551e-17)
(-0.000546393 0.00197787 2.05532e-17)
(5.48361e-05 -1.04777e-06 -1.0751e-17)
(3.38692e-06 -5.81325e-05 3.55308e-18)
(-0.000105927 6.07877e-05 -8.14292e-20)
(0.00270518 -0.0125985 9.84628e-18)
(-0.000178359 0.000608263 -2.6198e-19)
(0.00294655 0.000506234 -1.7272e-17)
(8.19431e-06 9.00879e-05 1.40138e-19)
(1.14663e-05 9.82553e-05 -4.95793e-19)
(-0.00124371 -0.00256004 8.718e-18)
(-0.00059563 0.00196434 -1.42159e-17)
(-0.000110198 5.74744e-05 -4.07168e-18)
(-7.11425e-05 3.10999e-05 1.40198e-18)
(0.000154297 -0.000216674 -1.98014e-17)
(0.00559676 -0.00392057 -5.25871e-18)
(-0.00407598 -0.00414374 1.693e-18)
(-0.00263446 0.00349856 -7.55309e-18)
(-0.000192688 0.000476098 4.58589e-18)
(-0.000716867 0.000208891 -3.06352e-17)
(-0.00451308 -0.00363791 -8.62205e-18)
(1.28636e-05 2.28836e-06 4.04174e-19)
(-0.000430617 0.000590816 7.63209e-19)
(0.00573018 0.00501067 -1.00152e-17)
(7.82179e-06 5.54079e-05 3.88471e-18)
(0.000392591 -0.00221523 1.21032e-17)
(-3.27321e-05 8.46692e-05 -6.50477e-19)
(0.0071169 -0.00323563 -1.20637e-17)
(-1.23942e-05 -4.60958e-05 -7.17225e-19)
(7.48163e-05 -4.3626e-05 2.66275e-17)
(1.90996e-05 8.91735e-05 1.22165e-18)
(7.62192e-06 -6.94569e-05 1.11154e-17)
(-0.00253548 0.00215772 8.79358e-18)
(-8.44049e-05 2.78581e-05 -4.77689e-19)
(0.000315898 -0.00109959 -3.31146e-17)
(-0.000171309 3.09317e-05 1.89723e-18)
(-0.000477204 0.00225152 7.81717e-18)
(0.00174061 0.000541832 6.71176e-18)
(0.00596643 -0.00457353 8.17673e-18)
(6.21861e-05 1.31666e-05 -1.6158e-17)
(-0.000447489 0.00059675 1.35801e-18)
(-1.89857e-05 -2.50189e-05 1.14764e-18)
(0.000266202 -0.000176987 -8.24945e-18)
(-5.79546e-05 2.32208e-05 1.88141e-18)
(6.71658e-05 -4.15538e-05 -1.84833e-17)
(-0.000196482 -0.00885091 4.86624e-17)
(5.39333e-05 5.76684e-06 2.07404e-17)
(2.07675e-06 5.85312e-05 2.03878e-18)
(-1.19502e-06 2.78143e-06 3.46737e-18)
(-0.00251028 0.00318368 1.21766e-17)
(-0.000139628 3.16828e-05 -1.81688e-20)
(-0.00160418 0.00471469 1.37853e-17)
(-0.00374588 0.00312243 1.1896e-17)
(-0.00185853 0.000287369 -1.13046e-17)
(-1.98787e-05 -9.04544e-06 8.51587e-19)
(0.00334114 0.00789208 -1.13956e-17)
(-0.00114816 0.000266041 -1.22253e-17)
(0.0111515 -0.00359347 -3.97189e-18)
(7.11264e-05 -0.00217878 -9.38488e-18)
(4.24875e-05 0.000293488 -4.77952e-18)
(0.000318254 -0.000205092 -2.57934e-18)
(-0.00187334 0.00227697 3.87306e-17)
(-0.000372277 0.000269604 7.94159e-18)
(0.000714195 -0.000552345 -3.67995e-18)
(5.37921e-05 9.12326e-05 5.14416e-18)
(0.0130475 0.000144693 -8.90455e-18)
(0.00236747 0.0023585 -1.22677e-18)
(-0.000239795 3.18711e-06 1.32419e-18)
(-5.89517e-05 0.000185117 5.85776e-18)
(-0.00167209 -0.00279533 -6.19411e-18)
(0.00787924 -0.00253392 9.34174e-18)
(0.00877477 -0.000622986 -8.58185e-18)
(-0.000122966 6.06403e-05 7.69367e-19)
(0.000198871 -0.000343638 -1.65763e-18)
(-1.52785e-05 8.18587e-06 -9.77724e-18)
(0.000231193 0.00182942 -1.22415e-17)
(0.00683251 0.00513043 3.16864e-18)
(-5.99249e-05 0.000196283 -5.63053e-19)
(0.000255319 0.000481886 -2.08704e-17)
(0.00280102 0.00237105 1.32677e-19)
(-2.18359e-05 -4.67388e-05 9.39962e-19)
(0.000128927 -0.000104713 3.46305e-18)
(-0.002417 -0.000321646 5.42394e-18)
(-5.67427e-05 0.0162005 -2.11831e-17)
(-2.53203e-05 4.09267e-05 -5.02869e-18)
(7.97197e-06 -6.98906e-05 -1.33844e-17)
(5.70269e-05 1.1874e-05 -9.67578e-19)
(0.00293149 0.0070311 1.03167e-18)
(-0.00385545 -0.000979097 -4.57418e-17)
(2.3851e-05 0.000642935 1.61415e-17)
(-0.000112441 1.97677e-05 2.39286e-18)
(0.00301576 0.00762545 -1.57133e-17)
(0.00813206 0.0031762 5.44816e-18)
(-0.000935149 0.00190121 -7.38818e-18)
(0.000214293 0.000490764 1.27514e-17)
(0.00273614 0.00640734 -1.33646e-19)
(-0.00598355 0.000372652 -2.71892e-17)
(-1.81016e-05 0.000164173 -3.22527e-19)
(-0.000160299 0.000426234 5.66337e-18)
(0.0142312 0.00541038 2.80621e-17)
(-8.45087e-05 6.989e-05 -1.97791e-19)
(-5.12585e-05 9.27502e-06 5.30036e-19)
(-0.000820882 0.00196766 1.65312e-18)
(-4.97158e-05 -0.00015264 -1.1276e-17)
(-0.000136598 2.54151e-05 -1.73498e-18)
(-2.91635e-05 -4.38022e-05 1.05004e-18)
(-6.17682e-05 2.10336e-05 -1.87196e-18)
(-0.000186089 7.64534e-07 1.87376e-20)
(-2.67581e-05 0.000352909 1.80116e-17)
(-5.11825e-05 1.46088e-05 9.26465e-19)
(0.00690806 0.00505669 -2.55394e-18)
(3.01363e-05 0.000580115 -7.18219e-18)
(-3.80578e-05 4.69143e-05 1.33789e-18)
(0.00735068 -0.00254067 -7.49749e-19)
(-0.00146036 0.00039944 -7.92938e-18)
(4.37975e-06 -6.61359e-05 4.72931e-18)
(-0.000592211 0.00215747 1.05602e-17)
(-0.00418871 -0.000897856 -6.47128e-17)
(1.90755e-05 2.59768e-05 7.06672e-18)
(6.17762e-06 -6.73861e-05 -5.00956e-18)
(7.23529e-05 0.000592527 1.49619e-18)
(0.00036838 0.000331414 -8.19932e-18)
(-0.0035527 -0.0101484 7.07486e-18)
(0.00067654 0.000546203 -4.01911e-18)
(-0.000139589 1.44168e-06 -1.49899e-18)
(-0.0103642 0.00645822 2.09938e-17)
(-4.75902e-05 2.03205e-05 2.14256e-19)
(0.000843052 0.000462088 1.26173e-17)
(-0.00379693 -0.00126891 5.64704e-17)
(-0.000950094 0.0105435 1.031e-18)
(-0.00016472 0.000151618 1.36401e-17)
(0.0116872 0.00490773 -5.18118e-17)
(-0.013998 -0.00750951 -2.6079e-19)
(0.00587417 -0.0045716 -5.68402e-17)
(-0.00174493 -0.000488513 2.34305e-17)
(9.7556e-05 -0.000129219 -2.39113e-17)
(0.00764379 -0.00328922 -1.63374e-17)
(-0.00105479 0.000324718 1.30841e-17)
(0.00333225 0.0230233 2.12313e-18)
(-6.53344e-05 3.24522e-05 -1.52217e-18)
(0.0061397 0.000332915 5.63917e-17)
(0.00901846 -0.000320582 -1.71252e-17)
(0.000532658 -0.000479286 -5.14846e-19)
(0.000517739 -0.000432107 -1.38181e-17)
(2.16383e-05 8.28909e-06 9.88729e-19)
(0.000673474 0.000307016 1.47663e-17)
(8.75491e-05 4.9455e-05 1.24381e-17)
(0.0116651 -0.000600272 -8.68998e-18)
(0.000140937 -0.00013557 -1.29976e-17)
(-0.000218488 -1.38299e-06 6.1908e-19)
(-0.000315622 6.87003e-06 1.91497e-18)
(2.22092e-05 3.90243e-05 -6.78533e-18)
(0.00553959 -0.00393696 5.47475e-17)
(0.000389919 -0.00111086 -6.42513e-17)
(-8.78539e-05 7.01428e-05 6.98939e-19)
(0.00528056 -0.00429581 2.78836e-18)
(9.10433e-05 3.66141e-05 -5.30833e-18)
(5.05836e-05 1.95737e-05 -7.10838e-18)
(-0.000173466 0.000157353 -1.97303e-18)
(0.000644042 0.000187951 1.19102e-17)
(0.00197727 0.00712171 1.78205e-17)
(-0.00085609 -0.00275947 -5.54086e-19)
(2.00221e-05 9.15514e-05 -4.66277e-19)
(-6.23034e-06 5.5948e-05 8.06167e-18)
(0.00390427 -0.00107564 1.74484e-17)
(1.17323e-06 -5.20444e-05 -1.01284e-17)
(0.00931893 0.00230752 7.14722e-18)
(-2.75134e-05 0.000165237 -1.34873e-19)
(9.98597e-05 0.000578342 -2.26349e-17)
(9.79909e-05 3.96218e-05 -1.52156e-18)
(-1.72013e-05 2.67113e-06 8.83149e-18)
(-4.33443e-05 5.09325e-05 -8.32121e-19)
(0.00168023 0.000102539 -8.50436e-17)
(-0.00270102 0.000224479 1.22048e-17)
(0.00178828 0.00277459 -1.22082e-17)
(-0.00927979 -0.00816372 1.01203e-16)
(0.00348389 -0.00133476 -1.68039e-17)
(1.76764e-05 0.000100491 -2.09169e-18)
(-0.00355682 0.0029954 -2.89331e-17)
(0.00045832 0.000795605 -3.41657e-17)
(-0.000143045 6.48108e-06 -8.88529e-19)
(0.00190336 0.00805765 1.10571e-18)
(-3.17799e-05 0.00169787 1.58983e-17)
(-0.00654416 -0.000468574 2.84474e-17)
(2.11878e-05 4.09183e-05 4.04907e-18)
(-0.000325506 -0.000162198 2.02351e-18)
(-0.0121179 -0.0055204 1.41251e-18)
(-0.015623 -0.0110561 -4.36039e-17)
(0.00136799 -0.000650712 -8.8462e-17)
(0.0122113 -0.000580397 2.1648e-18)
(-3.92331e-05 4.49484e-05 -1.07781e-17)
(0.00566959 0.00505713 1.81938e-17)
(0.00487309 0.000605372 1.79644e-17)
(4.96364e-05 0.000183658 -1.43732e-17)
(0.0128716 0.000138225 4.55281e-18)
(8.7922e-05 0.000178842 -7.19686e-18)
(-0.00448759 0.00301012 3.12118e-17)
(-0.000155643 0.000397698 -6.94857e-18)
(-0.000463836 0.000194733 1.19477e-17)
(0.00306523 0.00145008 3.46634e-18)
(-0.0039633 -0.00229272 -2.03721e-17)
(2.93784e-06 -4.56228e-05 1.7468e-19)
(-1.03378e-05 0.000128507 1.5181e-17)
(-7.83007e-05 -0.000151078 -7.65176e-18)
(-0.000360791 0.000295593 -8.86393e-18)
(-6.29303e-05 3.46911e-05 -1.06806e-19)
(-3.59526e-06 0.000685645 -1.42203e-17)
(0.0108619 -0.00416095 2.58066e-17)
(-1.41785e-05 -5.13497e-05 -3.4414e-18)
(-0.000408704 0.00060951 1.05889e-17)
(0.00123688 -0.0023299 -3.18534e-17)
(-1.77551e-05 5.03624e-05 1.55407e-17)
(-0.00255761 -0.00332504 9.75898e-18)
(-0.000524355 0.000293156 -1.07763e-17)
(-0.00547635 -0.0100301 1.47315e-17)
(1.43387e-05 5.39101e-05 1.46756e-18)
(-0.00061313 -1.41782e-05 8.72536e-18)
(-0.000289936 0.00116675 2.6797e-17)
(0.0065685 0.0063022 2.69312e-18)
(0.000298096 0.00033003 -2.4602e-18)
(0.00900694 -0.000476482 1.60534e-18)
(-0.00109322 0.000180078 1.56101e-17)
(0.00449175 0.00555424 -6.51021e-18)
(-3.01352e-05 -4.76321e-05 -3.47446e-18)
(0.00140815 0.00025233 8.40818e-17)
(0.000100096 0.000136067 1.29494e-17)
(-0.000404103 -0.000154597 6.25997e-18)
(-0.000106933 3.38778e-05 2.09752e-18)
(0.0043985 2.61675e-05 5.73149e-18)
(0.014381 -0.00153519 -1.36422e-17)
(-0.00234885 0.0117781 -5.50712e-18)
(-4.938e-06 5.67796e-05 -6.51232e-18)
(0.0031535 0.0018454 -8.71912e-18)
(-0.00347562 0.00837773 6.70708e-18)
(-0.00350704 -0.00159173 3.40169e-17)
(-0.000178202 2.47796e-05 -2.6455e-18)
(0.00600266 0.00016984 -1.07294e-16)
(-0.00336655 -0.00464385 3.32706e-17)
(0.0115799 0.000419772 4.25348e-17)
(5.18741e-05 9.52859e-05 -5.32769e-18)
(-0.0104721 -0.00786046 8.03628e-17)
(-1.08993e-05 -5.40079e-05 -3.45963e-18)
(-0.000105359 -2.00346e-06 -4.24165e-19)
(0.0100479 0.000761041 -2.86243e-17)
(-0.00121535 0.00866587 -2.69639e-18)
(-6.11255e-06 1.85284e-05 -1.09418e-17)
(-3.98158e-05 9.76253e-05 -1.44263e-17)
(-0.000387212 0.000642342 -3.62247e-18)
(-0.000151899 2.58386e-05 -9.4201e-20)
(0.0145516 -0.00145224 3.15677e-17)
(0.00071491 0.000377031 -8.3642e-18)
(4.46933e-05 0.00164736 -2.17e-17)
(-0.000151631 0.000224282 -3.19301e-18)
(-4.02865e-05 4.16484e-05 9.75859e-18)
(1.14426e-05 -7.66137e-05 -3.73921e-18)
(-0.0112928 -0.0140404 2.39517e-17)
(-3.58606e-05 3.64731e-05 -9.49877e-19)
(1.03736e-05 -7.74667e-05 -2.46192e-19)
(0.00650704 -0.0109111 1.03625e-19)
(0.0121086 -0.00490977 -2.92384e-17)
(2.67457e-05 8.12038e-05 -7.23656e-19)
(-0.00835679 -0.00338963 -1.53476e-17)
(8.59202e-06 2.38216e-05 7.09006e-18)
(-5.89977e-05 1.36608e-05 -1.16599e-18)
(-1.10657e-05 5.19891e-05 3.79953e-18)
(0.00215349 0.00285109 1.80249e-17)
(-0.000508301 0.00024311 -8.22999e-18)
(-4.47657e-05 3.78515e-05 -3.86978e-19)
(-4.31011e-05 4.07038e-05 1.34089e-17)
(0.00115849 -3.74713e-05 -1.24406e-17)
(-7.33044e-05 9.52336e-05 -2.18185e-18)
(0.00381349 -0.0129258 6.51819e-17)
(-5.7163e-05 2.57803e-05 6.85087e-19)
(-0.000249013 0.000242636 -3.46883e-18)
(0.0118618 -0.0026453 4.47583e-18)
(0.000144864 2.17154e-05 1.21729e-17)
(-0.000279468 4.26661e-06 1.34722e-18)
(-4.19619e-05 -5.24901e-06 -3.90352e-19)
(-0.000142078 0.000221396 5.98672e-18)
(-0.000109728 7.27742e-05 -8.35714e-18)
(0.00551761 -0.000264004 8.56277e-18)
(0.00656218 -0.00931262 -1.54894e-17)
(4.66927e-05 0.000314742 6.92228e-18)
(0.00120069 -0.0012884 -9.96341e-19)
(-9.92493e-06 5.75645e-05 -9.49039e-18)
(-4.63545e-05 4.46778e-05 1.34722e-18)
(-0.00100185 0.00111712 -1.73838e-17)
(-0.0117799 -0.00387666 -3.69366e-18)
(0.000115558 -2.59229e-05 -2.25605e-17)
(-2.0812e-05 -3.89487e-05 -3.39743e-18)
(-0.00130151 0.000359751 5.1239e-18)
(8.54722e-05 -6.09288e-05 9.12744e-19)
(-0.00789653 -0.00108353 1.50055e-17)
(-8.35499e-06 -5.27463e-05 -4.90459e-19)
(5.71664e-05 3.23269e-05 2.27783e-17)
(0.00164691 -0.000490522 1.0074e-16)
(-0.000338578 0.000373319 -2.85944e-17)
(-0.000567187 0.000237635 1.11749e-17)
(-0.00477552 0.00879648 -2.80272e-18)
(-0.00205552 0.0104934 -1.69389e-18)
(3.53066e-05 7.58156e-05 -3.39833e-18)
(-0.00205045 -0.00091582 -4.89918e-17)
(-3.15392e-05 -4.04002e-05 8.34535e-19)
(0.00874061 -0.0026033 1.7811e-18)
(-0.000523915 0.000313469 9.2358e-18)
(-0.000648429 0.0019968 1.84499e-18)
(9.24151e-05 0.000146498 -1.07821e-17)
(1.4694e-05 9.37671e-05 -4.8892e-19)
(0.000148623 4.08713e-05 -4.08772e-18)
(0.000573477 0.000314502 -3.86802e-18)
(-0.000122224 -1.03249e-07 5.05481e-19)
(-0.00376271 0.000969201 -7.64478e-17)
(-0.00110385 0.000986294 1.00707e-17)
(0.00520696 -0.0128887 -5.49598e-17)
(0.00128694 0.0027043 2.89853e-17)
(0.0073793 -0.00991026 -1.24201e-18)
(0.000918241 0.00115631 7.08735e-17)
(0.0082761 0.00459943 -1.0286e-17)
(6.42761e-05 1.88448e-05 1.01257e-17)
(-7.72423e-06 -8.08524e-05 3.47267e-18)
(-0.0069583 -7.26022e-05 -7.5826e-17)
(-3.03827e-06 2.83591e-05 9.6487e-18)
(-5.29997e-05 2.77969e-05 2.05054e-19)
(8.1613e-05 1.29267e-05 4.39417e-18)
(0.00401126 -0.00620195 2.44149e-18)
(-7.3015e-05 0.000122127 -1.13709e-17)
(1.53777e-05 3.02898e-06 2.23035e-18)
(0.000517778 0.000256264 -2.16486e-17)
(0.000251484 6.34573e-05 5.97757e-18)
(1.65547e-06 2.80596e-05 -6.03326e-18)
(0.00357566 0.0108069 4.05302e-17)
(-4.55626e-05 -1.03184e-05 3.32296e-19)
(0.000827596 -0.000302344 1.49778e-17)
(0.00559249 0.000819596 1.31673e-17)
(-5.86412e-05 -3.17808e-05 2.29513e-18)
(-0.000112311 0.000138127 -3.7502e-18)
(0.000875166 -0.00620764 -2.0244e-17)
(0.00299257 0.0137624 5.19231e-18)
(-0.000134492 3.09394e-05 1.15079e-18)
(-0.00761257 -0.0161236 9.51895e-18)
(-0.00815847 -0.00573704 5.23609e-17)
(-0.000161166 5.47057e-05 -1.89629e-19)
(-0.00303508 0.000264657 -2.17382e-17)
(0.0113243 -0.000660747 1.2488e-18)
(-0.000280287 0.00249852 -2.35106e-17)
(3.10227e-05 7.14803e-05 5.35465e-18)
(0.00696343 -0.0110757 -1.12084e-17)
(-0.00366823 0.000621351 -1.3941e-18)
(-0.000150798 5.52625e-05 2.05297e-18)
(-0.00634918 -0.00572113 -2.20112e-17)
(-3.0761e-05 9.11659e-05 -2.2265e-19)
(-4.11486e-05 -3.36495e-06 1.98036e-21)
(-0.00125921 -0.00588867 -8.06111e-18)
(-0.00485024 0.00283634 -1.19687e-18)
(0.000166816 0.000131272 4.52501e-18)
(-0.000494991 0.000233647 1.04877e-17)
(-1.61853e-06 3.88226e-05 3.19656e-18)
(-0.000720082 0.000259447 5.05515e-18)
(0.00128042 -0.000172047 -2.3714e-17)
(0.00750802 0.000168391 -1.19204e-16)
(-0.00013193 4.75307e-05 -1.22987e-18)
(0.000562876 -0.000717724 -3.35102e-17)
(-5.49307e-05 3.09174e-05 3.59029e-19)
(-3.11537e-05 9.36591e-05 8.98869e-19)
(0.000317081 0.000362016 1.89363e-18)
(-0.000280691 0.00020527 -4.19049e-18)
(-0.000176165 2.79943e-05 1.15917e-18)
(9.12473e-06 9.69086e-05 -3.59942e-20)
(-0.00284352 0.00237261 -3.41742e-17)
(-0.00322669 -0.00240816 4.06081e-17)
(-0.00276864 0.0012063 7.99617e-18)
(-7.32319e-05 0.000112121 3.65964e-18)
(-1.88399e-05 2.90462e-06 -8.04443e-19)
(0.00421877 0.00741759 -5.5486e-18)
(-1.99319e-05 -7.01637e-05 2.53482e-18)
(0.00108434 0.000850482 5.19188e-17)
(-0.000201899 0.000267958 1.26729e-17)
(-0.000327347 0.000327132 1.45638e-17)
(6.43542e-05 0.000252166 1.37077e-18)
(0.0111881 -0.00497798 -1.31488e-18)
(-0.00603435 0.000421079 4.34307e-17)
(-4.16382e-06 0.000105186 -2.24554e-18)
(0.00490785 0.00102691 -4.50362e-17)
(-0.000153281 0.000143917 5.99848e-18)
(0.00052646 -2.05626e-05 6.08689e-18)
(0.00923955 -0.00355397 -4.69333e-18)
(0.00942184 0.00162606 2.46982e-17)
(-2.30176e-05 7.46608e-05 2.01629e-19)
(-2.21393e-05 -4.41544e-05 -9.61787e-19)
(0.000156216 -0.000103326 -1.35696e-17)
(-0.00238262 0.00249604 3.88368e-17)
(-0.000884275 -0.00737545 2.53474e-19)
(-0.000684721 0.000244151 -2.76885e-18)
(-0.00894366 -0.000661665 4.5923e-18)
(-0.000281704 0.00020096 5.28432e-19)
(-0.000171906 0.000391536 -1.51789e-17)
(-0.0018025 -0.00984481 -1.63111e-18)
(1.88699e-05 0.0138271 3.14624e-17)
(0.000830319 1.3667e-05 7.05941e-18)
(0.000183424 -9.04662e-05 -1.80008e-17)
(-0.00167426 0.00390242 3.09026e-17)
(0.00406413 -0.00263841 -2.3874e-17)
(-4.36705e-05 5.06322e-05 -1.49751e-18)
(-0.0132559 -0.00798313 6.61018e-18)
(0.00121784 -0.0081645 -2.69569e-17)
(-3.96238e-05 3.7899e-05 1.30583e-18)
(0.00537023 2.39782e-05 2.42925e-17)
(0.00388062 -0.0135199 3.86562e-17)
(5.72726e-05 8.58169e-05 4.09958e-18)
(-0.000203278 0.000695646 5.57341e-18)
(-1.78862e-05 1.32013e-05 -6.99216e-18)
(0.00314837 -0.000228925 -5.10952e-18)
(-0.000330412 0.000340159 2.58651e-17)
(-0.00953564 -0.00636681 -1.24993e-16)
(-3.43539e-05 3.69665e-05 2.65421e-19)
(-7.6746e-05 -4.95543e-06 -4.54627e-19)
(3.93575e-05 1.72167e-05 5.14515e-18)
(0.000229317 5.51695e-05 5.07711e-19)
(-6.46428e-05 2.29735e-05 -2.4375e-18)
(0.00387433 -0.00549944 -1.82435e-17)
(-7.84854e-05 -4.4171e-06 4.03755e-20)
(-0.00133752 0.00357913 -2.49691e-17)
(3.68727e-05 6.56255e-05 6.46027e-18)
(-0.000441699 -0.000206378 -3.38501e-18)
(-1.29498e-05 -4.85693e-05 -1.56683e-18)
(1.61096e-06 2.18962e-05 -3.1441e-18)
(-1.20486e-05 0.000143496 -9.16811e-18)
(0.000403044 -0.000649069 -9.70715e-17)
(0.000300771 0.000252071 -1.4605e-17)
(0.00660747 -0.0034151 1.7025e-17)
(5.95761e-05 2.36791e-05 -1.82768e-17)
(-0.000129476 2.71468e-05 2.92829e-19)
(-0.000122595 7.38432e-06 -2.05784e-18)
(0.000548648 0.000195254 -6.78735e-18)
(-4.13753e-05 3.82996e-05 -4.44389e-18)
(-8.65239e-05 -0.000558425 2.86062e-17)
(-5.51697e-05 0.000129607 1.01397e-17)
(0.000108945 -2.40618e-05 5.47433e-18)
(-0.0130234 -0.00832099 4.86063e-19)
(-6.18652e-07 -7.31383e-05 7.89117e-18)
(0.00814942 -0.000449981 -1.12815e-18)
(-1.7843e-05 -3.32214e-05 -2.26668e-18)
(-0.000109354 -0.000712517 -1.82423e-18)
(0.00440114 0.00144678 -1.81547e-17)
(0.0125195 0.00191788 6.09758e-18)
(2.90768e-05 -9.79269e-06 5.56647e-17)
(-0.00822681 -0.00634655 1.1097e-16)
(0.000484014 0.000206665 -7.7371e-18)
(-0.0012408 0.00291591 6.70733e-18)
(0.00258225 -0.0132466 -6.62282e-17)
(-0.000126235 4.88306e-05 -5.06781e-18)
(0.00338018 0.0110077 -5.59681e-17)
(9.35815e-05 4.2675e-05 2.59164e-19)
(6.49037e-05 0.000187975 2.37868e-18)
(0.00284603 0.00315703 6.40024e-17)
(-0.0150099 -0.00872258 4.07471e-17)
(-0.00015051 5.99747e-06 2.63438e-18)
(-6.17662e-05 -0.000464764 -2.74837e-17)
(-0.000111459 5.86198e-05 -3.31569e-18)
(0.00483054 -0.00222882 1.08999e-17)
(0.00465188 -0.000590978 2.61945e-17)
(-3.49196e-05 9.47337e-05 2.41327e-18)
(0.000142516 -0.000226098 2.41475e-17)
(0.0106169 0.00580459 3.93377e-17)
(-1.71229e-05 -3.55641e-05 -6.60289e-19)
(-1.64876e-05 -4.62622e-05 -4.40514e-19)
(-0.000585553 -0.000114488 6.07611e-18)
(0.00815165 -0.00040104 -1.09027e-17)
(0.00554555 -0.0115187 8.48724e-18)
(4.15317e-06 -6.71704e-05 -2.22144e-18)
(0.00326859 0.000601516 -1.89061e-17)
(-7.82198e-05 8.93257e-05 -8.27752e-19)
(-2.19904e-06 4.43465e-06 7.8862e-18)
(-0.0098011 -0.0114085 -1.04706e-17)
(0.003474 0.00102229 1.11076e-17)
(-0.00212439 -0.000454309 1.01279e-17)
(-0.000195984 2.21528e-05 4.32207e-19)
(-0.00243615 -4.71423e-05 -7.49208e-18)
(0.000206598 -2.97403e-05 1.65068e-18)
(-0.000555983 5.79857e-05 -1.29562e-17)
(1.12601e-05 -2.92194e-05 -1.15191e-17)
(1.04231e-05 9.90713e-05 4.63052e-19)
(-0.000248794 0.000324971 -2.19514e-17)
(4.06538e-05 2.20246e-05 1.12466e-17)
(-0.00269045 -0.000760936 8.30717e-18)
(9.64033e-05 0.00069662 -5.57091e-18)
(0.000174048 0.00064789 1.45359e-17)
(0.000729076 6.53385e-05 -9.27685e-18)
(-0.00410534 -0.00244254 6.95674e-18)
(0.0109166 -0.00393761 2.2499e-20)
(0.00229025 0.0107067 -3.13762e-18)
(-0.0138469 -0.0178581 -3.63253e-18)
(-0.00273863 -0.00193468 -3.36898e-17)
(0.0019927 0.00149223 -2.52743e-18)
(0.000135677 0.000111299 5.17836e-19)
(-0.00085564 -0.00644905 4.28245e-18)
(-0.000482998 0.00242699 -1.54299e-18)
(-9.59096e-05 2.95202e-05 9.64131e-19)
(-0.000166366 0.000372027 1.1475e-17)
(0.00924411 -0.00328391 6.19209e-17)
(2.13317e-05 5.41602e-05 -1.22689e-18)
(-6.40792e-05 -2.89777e-05 5.62866e-19)
(-6.71193e-05 -2.67829e-05 -1.23278e-18)
(-0.000354548 -0.000812882 -1.36598e-17)
(0.0122175 -0.000575939 -1.93996e-17)
(-0.000244524 0.000255062 6.10804e-18)
(-0.00442287 0.00268573 -1.85769e-17)
(-0.000138016 2.59012e-05 -5.66102e-19)
(0.00689143 -0.0103648 -9.98481e-18)
(0.000451276 -0.000167432 -1.35552e-18)
(-0.00339503 -0.000910492 1.44161e-17)
(-0.000113425 -0.000346953 -9.74507e-18)
(1.94845e-05 5.93187e-05 -7.71736e-19)
(-5.61072e-05 0.000109825 -6.0046e-18)
(-0.00287901 -0.00134557 9.82685e-19)
(-0.00202976 -0.000825373 4.15413e-17)
(0.00012453 0.000108706 -3.01314e-18)
(-0.00234723 0.00927303 -4.53624e-18)
(-4.47557e-05 4.16106e-05 -5.91265e-18)
(-0.00132641 -0.00618642 -3.63561e-17)
(-0.000203502 -0.000847821 2.23372e-18)
(-0.000902013 0.0035391 4.6892e-18)
(8.37365e-05 8.22265e-05 -1.05015e-17)
(-0.00242016 -0.00933686 2.94358e-17)
(-1.04666e-05 -5.26223e-05 -1.76909e-18)
(-1.33626e-05 -3.93987e-05 3.54669e-18)
(1.20004e-05 -2.39888e-06 5.14144e-18)
(-5.17605e-07 -6.11137e-06 -5.28536e-18)
(0.0103058 -0.00310083 1.88284e-19)
(-0.000183849 1.53708e-06 -1.82413e-19)
(-0.00920861 -0.0104842 8.92155e-18)
(0.00388364 0.00683079 -7.32248e-18)
(-0.000181418 -0.000285849 1.24307e-17)
(0.00776835 -0.000970575 -8.34646e-17)
(-0.00667922 -0.000217319 5.2696e-17)
(-0.000509644 0.00364051 7.58669e-18)
(-0.00193805 0.00339933 -1.006e-18)
(3.12759e-05 -6.25932e-06 -3.35466e-18)
(3.1094e-06 -8.40444e-05 1.90617e-19)
(4.78414e-06 -6.74472e-05 -1.729e-17)
(-0.000180371 3.31783e-06 7.38649e-19)
(-0.00012441 5.43879e-06 2.64715e-18)
(-8.54083e-05 -2.95815e-06 -4.78985e-19)
(0.000622114 7.99857e-05 9.82596e-18)
(-0.000797426 -0.00244683 5.46587e-17)
(0.000215838 -3.69272e-05 3.4266e-19)
(0.00315533 0.0232173 1.60447e-18)
(9.53485e-07 9.80722e-05 4.38352e-19)
(0.00648747 0.00467384 1.2122e-17)
(-1.07046e-06 -9.59076e-06 2.26998e-19)
(-0.0028364 -0.00444067 5.34311e-17)
(4.00494e-05 -4.5345e-05 6.75569e-18)
(-9.35423e-06 -2.08112e-05 -1.50515e-18)
(3.76286e-07 -2.24265e-05 3.94508e-19)
(0.0118707 0.00303366 -1.42468e-18)
(1.10981e-05 7.82812e-05 -1.48722e-17)
(0.00975518 0.008372 -1.85931e-17)
(0.00132473 -0.0142912 -1.27192e-17)
(-0.000243349 0.000640922 -2.99093e-17)
(0.000131438 0.00114562 -8.10132e-18)
(-0.000159591 5.56564e-05 1.46329e-18)
(0.00127453 -0.000597709 2.63684e-17)
(3.4056e-05 8.78561e-05 6.85733e-18)
(-6.83806e-05 0.000120958 1.07945e-17)
(-0.0109868 -0.0102753 -5.98718e-18)
(-1.54474e-07 -8.81098e-05 4.83573e-19)
(1.49005e-05 1.10722e-05 -6.37541e-18)
(-0.000112889 1.73296e-05 6.00573e-19)
(-0.000525786 0.000357733 1.02831e-17)
(0.0129479 -0.000282948 2.14933e-17)
(4.13888e-05 4.16194e-05 -1.92977e-17)
(8.77003e-05 0.000106177 -5.01123e-18)
(-0.00464095 -0.00437628 -5.22237e-17)
(0.00722206 0.000499205 5.11404e-17)
(5.63483e-05 -4.1349e-06 -5.94573e-18)