/*--------------------------------*- C++ -*----------------------------------*\
| =========                 |                                                 |
| \\      /  F ield         | OpenFOAM: The Open Source CFD Toolbox           |
|  \\    /   O peration     | Version:  v2012                                 |
|   \\  /    A nd           | Website:  www.openfoam.com                      |
|    \\/     M anipulation  |                                                 |
\*---------------------------------------------------------------------------*/
FoamFile
{
    version     2.0;
    format      ascii;
    class       pointVectorField;
    location    "550";
    object      pointDisplacement;
}
// * * * * * * * * * * * * * * * * * * * * * * * * * * * * * * * * * * * * * //

dimensions      [0 1 0 0 0 0 0];


internalField   nonuniform List<vector> 
14332
(
(0 0 0)
(-0 -0.044454 -0)
(0 0 0)
(-0 -0.044454 -0)
(0 0 0)
(0 0 0)
(0 0 0)
(0 0 0)
(0 0 0)
(0 0 0)
(0 0 0)
(0 0 0)
(0 0 0)
(0 0 0)
(0 0 0)
(0 0 0)
(0 0 0)
(0 0 0)
(0 0 0)
(0 0 0)
(0 0 0)
(0 0 0)
(0 0 0)
(0 0 0)
(0 0 0)
(0 0 0)
(0 0 0)
(0 0 0)
(0 0 0)
(0 0 0)
(0 0 0)
(0 0 0)
(0 0 0)
(0 0 0)
(0 0 0)
(0 0 0)
(0 0 0)
(0 0 0)
(0 0 0)
(0 0 0)
(0 0 0)
(0 0 0)
(0 0 0)
(0 0 0)
(0 0 0)
(0 0 0)
(0 0 0)
(0 0 0)
(0 0 0)
(0 0 0)
(0 0 0)
(0 0 0)
(0 0 0)
(0 0 0)
(0 0 0)
(0 0 0)
(0 0 0)
(0 0 0)
(0 0 0)
(0 0 0)
(0 0 0)
(0 0 0)
(0 0 0)
(0 0 0)
(0 0 0)
(0 0 0)
(0 0 0)
(0 0 0)
(0 0 0)
(0 0 0)
(0 0 0)
(0 0 0)
(0 0 0)
(0 0 0)
(0 0 0)
(0 0 0)
(0 0 0)
(0 0 0)
(0 0 0)
(0 0 0)
(0 0 0)
(0 0 0)
(0 0 0)
(0 0 0)
(0 0 0)
(0 0 0)
(0 0 0)
(0 0 0)
(0 0 0)
(0 0 0)
(0 0 0)
(0 0 0)
(0 0 0)
(0 0 0)
(0 0 0)
(0 0 0)
(0 0 0)
(0 0 0)
(0 0 0)
(0 0 0)
(0 0 0)
(0 0 0)
(0 0 0)
(0 0 0)
(0 0 0)
(0 0 0)
(0 0 0)
(0 0 0)
(0 0 0)
(0 0 0)
(0 0 0)
(0 0 0)
(0 0 0)
(0 0 0)
(0 0 0)
(0 0 0)
(0 0 0)
(0 0 0)
(0 0 0)
(0 0 0)
(0 0 0)
(0 0 0)
(0 0 0)
(0 0 0)
(0 0 0)
(0 0 0)
(0 0 0)
(0 0 0)
(0 0 0)
(0 0 0)
(0 0 0)
(0 0 0)
(0 0 0)
(0 0 0)
(-0 -0.044454 -0)
(-0 -0.044454 -0)
(-0 -0.044454 -0)
(-0 -0.044454 -0)
(-0 -0.044454 -0)
(-0 -0.044454 -0)
(-0 -0.044454 -0)
(-0 -0.044454 -0)
(-0 -0.044454 -0)
(-0 -0.044454 -0)
(-0 -0.044454 -0)
(-0 -0.044454 -0)
(-0 -0.044454 -0)
(-0 -0.044454 -0)
(-0 -0.044454 -0)
(-0 -0.044454 -0)
(-0 -0.044454 -0)
(-0 -0.044454 -0)
(-0 -0.044454 -0)
(-0 -0.044454 -0)
(-0 -0.044454 -0)
(-0 -0.044454 -0)
(-0 -0.044454 -0)
(-0 -0.044454 -0)
(-0 -0.044454 -0)
(-0 -0.044454 -0)
(-0 -0.044454 -0)
(-0 -0.044454 -0)
(-0 -0.044454 -0)
(-0 -0.044454 -0)
(-0 -0.044454 -0)
(-0 -0.044454 -0)
(-0 -0.044454 -0)
(-0 -0.044454 -0)
(-0 -0.044454 -0)
(-0 -0.044454 -0)
(-0 -0.044454 -0)
(-0 -0.044454 -0)
(-0 -0.044454 -0)
(-0 -0.044454 -0)
(-0 -0.044454 -0)
(-0 -0.044454 -0)
(-0 -0.044454 -0)
(-0 -0.044454 -0)
(-0 -0.044454 -0)
(0 0 0)
(0 0 0)
(0 0 0)
(0 0 0)
(0 0 0)
(0 0 0)
(0 0 0)
(0 0 0)
(0 0 0)
(0 0 0)
(0 0 0)
(0 0 0)
(0 0 0)
(0 0 0)
(0 0 0)
(0 0 0)
(0 0 0)
(0 0 0)
(0 0 0)
(0 0 0)
(0 0 0)
(0 0 0)
(0 0 0)
(0 0 0)
(0 0 0)
(0 0 0)
(0 0 0)
(0 0 0)
(0 0 0)
(0 0 0)
(0 0 0)
(0 0 0)
(0 0 0)
(0 0 0)
(0 0 0)
(0 0 0)
(0 0 0)
(0 0 0)
(0 0 0)
(0 0 0)
(0 0 0)
(0 0 0)
(0 0 0)
(0 0 0)
(0 0 0)
(0 0 0)
(0 0 0)
(0 0 0)
(0 0 0)
(0 0 0)
(0 0 0)
(0 0 0)
(0 0 0)
(0 0 0)
(0 0 0)
(0 0 0)
(0 0 0)
(0 0 0)
(0 0 0)
(0 0 0)
(0 0 0)
(0 0 0)
(0 0 0)
(0 0 0)
(0 0 0)
(0 0 0)
(0 0 0)
(0 0 0)
(0 0 0)
(0 0 0)
(0 0 0)
(0 0 0)
(0 0 0)
(0 0 0)
(0 0 0)
(0 0 0)
(0 0 0)
(0 0 0)
(0 0 0)
(0 0 0)
(0 0 0)
(0 0 0)
(0 0 0)
(0 0 0)
(0 0 0)
(0 0 0)
(0 0 0)
(0 0 0)
(0 0 0)
(0 0 0)
(0 0 0)
(0 0 0)
(0 0 0)
(0 0 0)
(0 0 0)
(0 0 0)
(0 0 0)
(0 0 0)
(0 0 0)
(0 0 0)
(0 0 0)
(0 0 0)
(0 0 0)
(0 0 0)
(0 0 0)
(0 0 0)
(0 0 0)
(0 0 0)
(0 0 0)
(0 0 0)
(0 0 0)
(0 0 0)
(0 0 0)
(0 0 0)
(0 0 0)
(0 0 0)
(0 0 0)
(0 0 0)
(0 0 0)
(0 0 0)
(0 0 0)
(0 0 0)
(0 0 0)
(0 0 0)
(0 0 0)
(0 0 0)
(0 0 0)
(0 0 0)
(0 0 0)
(0 0 0)
(-0 -0.044454 -0)
(-0 -0.044454 -0)
(-0 -0.044454 -0)
(-0 -0.044454 -0)
(-0 -0.044454 -0)
(-0 -0.044454 -0)
(-0 -0.044454 -0)
(-0 -0.044454 -0)
(-0 -0.044454 -0)
(-0 -0.044454 -0)
(-0 -0.044454 -0)
(-0 -0.044454 -0)
(-0 -0.044454 -0)
(-0 -0.044454 -0)
(-0 -0.044454 -0)
(-0 -0.044454 -0)
(-0 -0.044454 -0)
(-0 -0.044454 -0)
(-0 -0.044454 -0)
(-0 -0.044454 -0)
(-0 -0.044454 -0)
(-0 -0.044454 -0)
(-0 -0.044454 -0)
(-0 -0.044454 -0)
(-0 -0.044454 -0)
(-0 -0.044454 -0)
(-0 -0.044454 -0)
(-0 -0.044454 -0)
(-0 -0.044454 -0)
(-0 -0.044454 -0)
(-0 -0.044454 -0)
(-0 -0.044454 -0)
(-0 -0.044454 -0)
(-0 -0.044454 -0)
(-0 -0.044454 -0)
(-0 -0.044454 -0)
(-0 -0.044454 -0)
(-0 -0.044454 -0)
(-0 -0.044454 -0)
(-0 -0.044454 -0)
(-0 -0.044454 -0)
(-0 -0.044454 -0)
(-0 -0.044454 -0)
(-0 -0.044454 -0)
(-0 -0.044454 -0)
(0 -0.044454 0)
(0 -0.00147925 0)
(0 -0.044454 0)
(0 -0.044454 0)
(0 -0.044454 0)
(0 -0.00170542 0)
(0 -0.0444539 0)
(0 -0.00119356 0)
(0 -0.000736741 0)
(0 -0.000310909 0)
(0 -0.0025514 0)
(0 -0.000520676 0)
(0 -0.000861521 0)
(0 -0.044454 0)
(0 -0.00243297 0)
(0 -0.000343238 0)
(0 -0.00274663 0)
(0 -0.000347775 0)
(0 -0.00314 0)
(0 -0.044454 0)
(0 -0.000301114 0)
(0 -0.000322638 0)
(0 -0.000202394 0)
(0 -0.000198654 0)
(0 -0.000161034 0)
(0 -0.00136078 0)
(0 -0.000560018 0)
(0 -0.044454 0)
(0 -0.044454 0)
(0 -0.044454 0)
(0 -0.000136008 0)
(0 -9.13445e-05 0)
(0 -0.00237235 0)
(0 -0.00252111 0)
(0 -0.00252733 0)
(0 -0.00317519 0)
(0 -0.00169093 0)
(0 -0.00119163 0)
(0 -0.000762531 0)
(0 -0.000386759 0)
(0 -0.000509513 0)
(0 -0.000305902 0)
(0 -0.000257464 0)
(0 -0.000104285 0)
(0 -0.044454 0)
(0 -0.044454 0)
(0 -5.49205e-05 0)
(0 -5.2664e-05 0)
(0 -0.00350843 0)
(0 -0.0019924 0)
(0 -0.00166578 0)
(0 -0.00144451 0)
(0 -0.0011888 0)
(0 -0.00104185 0)
(0 -0.000460641 0)
(0 -0.000622976 0)
(0 -0.000807843 0)
(0 -0.000165852 0)
(0 -0.000604939 0)
(0 -0.000277576 0)
(0 -0.000183838 0)
(0 -0.000163693 0)
(0 -0.000133697 0)
(0 -0.000244831 0)
(0 -2.64541e-05 0)
(0 -0.0417289 0)
(0 -0.0415789 0)
(0 -0.041805 0)
(0 -0.0416496 0)
(0 -0.04187 0)
(0 -0.0417088 0)
(0 -0.0419233 0)
(0 -0.0417574 0)
(0 -0.0419685 0)
(0 -0.041795 0)
(0 -0.0420016 0)
(0 -0.0418212 0)
(0 -0.0420237 0)
(0 -0.0418367 0)
(0 -0.0420368 0)
(0 -0.0418439 0)
(0 -0.0420388 0)
(0 -0.0418469 0)
(0 -0.0420265 0)
(0 -0.041829 0)
(0 -0.0420025 0)
(0 -0.0417797 0)
(0 -0.0419645 0)
(0 -0.0417225 0)
(0 -0.0419108 0)
(0 -0.0416632 0)
(0 -0.0418364 0)
(0 -0.041589 0)
(0 -0.0417656 0)
(0 -0.0415087 0)
(0 -0.0416944 0)
(0 -0.0414201 0)
(0 -0.041594 0)
(0 -0.0413054 0)
(0 -0.0414698 0)
(0 -0.0411285 0)
(0 -0.0409957 0)
(0 -0.040814 0)
(0 -0.0128881 0)
(0 -0.0124769 0)
(0 -0.040668 0)
(0 -0.0404787 0)
(0 -0.012584 0)
(0 -0.0121911 0)
(0 -0.0403196 0)
(0 -0.0401217 0)
(0 -0.0122956 0)
(0 -0.0119009 0)
(0 -0.0120088 0)
(0 -0.0116101 0)
(0 -0.0399468 0)
(0 -0.0397437 0)
(0 -0.0117014 0)
(0 -0.0113144 0)
(0 -0.0395506 0)
(0 -0.0393385 0)
(0 -0.011385 0)
(0 -0.0110099 0)
(0 -0.0109349 0)
(0 -0.0391256 0)
(0 -0.0389004 0)
(0 -0.0393598 0)
(0 -0.0110636 0)
(0 -0.0106991 0)
(0 -0.0386649 0)
(0 -0.0384312 0)
(0 -0.0107411 0)
(0 -0.0110844 0)
(0 -0.0103838 0)
(0 -0.0421997 0)
(0 -0.0417557 0)
(0 -0.0416299 0)
(0 -0.0419072 0)
(0 -0.0417957 0)
(0 -0.042048 0)
(0 -0.0419322 0)
(0 -0.0421725 0)
(0 -0.0420435 0)
(0 -0.0422867 0)
(0 -0.0421563 0)
(0 -0.0423919 0)
(0 -0.0422567 0)
(0 -0.0424897 0)
(0 -0.0423467 0)
(0 -0.0425737 0)
(0 -0.0424294 0)
(0 -0.042645 0)
(0 -0.0425053 0)
(0 -0.0427124 0)
(0 -0.0425715 0)
(0 -0.042771 0)
(0 -0.0426279 0)
(0 -0.0428219 0)
(0 -0.0426769 0)
(0 -0.0424701 0)
(0 -0.0425169 0)
(0 -0.0427227 0)
(0 -0.0425627 0)
(0 -0.0427595 0)
(0 -0.0425955 0)
(0 -0.0427865 0)
(0 -0.0426223 0)
(0 -0.0428114 0)
(0 -0.0426342 0)
(0 -0.0428241 0)
(0 -0.0426473 0)
(0 -0.042827 0)
(0 -0.0426756 0)
(0 -0.0428389 0)
(0 -0.0426861 0)
(0 -0.0428482 0)
(0 -0.042682 0)
(0 -0.0428427 0)
(0 -0.042671 0)
(0 -0.0428299 0)
(0 -0.0426572 0)
(0 -0.0428183 0)
(0 -0.0426416 0)
(0 -0.0428057 0)
(0 -0.042624 0)
(0 -0.0427876 0)
(0 -0.0426028 0)
(0 -0.042766 0)
(0 -0.0425795 0)
(0 -0.0422974 0)
(0 -0.0424943 0)
(0 -0.0424442 0)
(0 -0.0426147 0)
(0 -0.0104139 0)
(0 -0.0100637 0)
(0 -0.038172 0)
(0 -0.0379365 0)
(0 -0.0429517 0)
(0 -0.010081 0)
(0 -0.0097382 0)
(0 -0.0376503 0)
(0 -0.0374146 0)
(0 -0.00974203 0)
(0 -0.00940887 0)
(0 -0.00939756 0)
(0 -0.0371036 0)
(0 -0.036865 0)
(0 -0.00939744 0)
(0 -0.00907645 0)
(0 -0.0430217 0)
(0 -0.0365353 0)
(0 -0.0362871 0)
(0 -0.0367438 0)
(0 -0.0429539 0)
(0 -0.00905018 0)
(0 -0.00933861 0)
(0 -0.00874256 0)
(0 -0.0359363 0)
(0 -0.0356816 0)
(0 -0.00870712 0)
(0 -0.00840801 0)
(0 -0.00836518 0)
(0 -0.00807308 0)
(0 -0.0353085 0)
(0 -0.0350491 0)
(0 -0.00802585 0)
(0 -0.00773839 0)
(0 -0.0077777 0)
(0 -0.0346496 0)
(0 -0.0343834 0)
(0 -0.00745278 0)
(0 -0.00748949 0)
(0 -0.00740385 0)
(0 -0.0339632 0)
(0 -0.0337039 0)
(0 -0.0340904 0)
(0 -0.0334305 0)
(0 -0.0338075 0)
(0 -0.0331503 0)
(0 -0.033533 0)
(0 -0.0328521 0)
(0 -0.0324423 0)
(0 -0.0321448 0)
(0 -0.032535 0)
(0 -0.0318484 0)
(0 -0.00712623 0)
(0 -0.00707187 0)
(0 -0.0314068 0)
(0 -0.0311152 0)
(0 -0.0315565 0)
(0 -0.0308177 0)
(0 -0.0416615 0)
(0 -0.00681219 0)
(0 -0.00674301 0)
(0 -0.0312492 0)
(0 -0.030507 0)
(0 -0.0300498 0)
(0 -0.0297424 0)
(0 -0.0301913 0)
(0 -0.0294244 0)
(0 -0.0298612 0)
(0 -0.0290925 0)
(0 -0.0295082 0)
(0 -0.0287474 0)
(0 -0.0291488 0)
(0 -0.0283948 0)
(0 -0.0279672 0)
(0 -0.0276219 0)
(0 -0.0381907 0)
(0 -0.00647067 0)
(0 -0.00641409 0)
(0 -0.0280379 0)
(0 -0.0272716 0)
(0 -0.026829 0)
(0 -0.0264843 0)
(0 -0.0269166 0)
(0 -0.0261363 0)
(0 -0.0265554 0)
(0 -0.0257833 0)
(0 -0.00615179 0)
(0 -0.00608895 0)
(0 -0.00636413 0)
(0 -0.0253393 0)
(0 -0.0249965 0)
(0 -0.0254264 0)
(0 -0.0246491 0)
(0 -0.0250645 0)
(0 -0.0242944 0)
(0 -0.0246959 0)
(0 -0.0239331 0)
(0 -0.0243207 0)
(0 -0.0235675 0)
(0 -0.0231575 0)
(0 -0.0228018 0)
(0 -0.0232004 0)
(0 -0.0224463 0)
(0 -0.00583488 0)
(0 -0.00591715 0)
(0 -0.00576391 0)
(0 -0.0220233 0)
(0 -0.0216803 0)
(0 -0.0220894 0)
(0 -0.0213348 0)
(0 -0.0217294 0)
(0 -0.0209843 0)
(0 -0.0213696 0)
(0 -0.0206295 0)
(0 -0.0202321 0)
(0 -0.0198904 0)
(0 -0.0202703 0)
(0 -0.0195462 0)
(0 -0.0199071 0)
(0 -0.0192011 0)
(0 -0.0188153 0)
(0 -0.0184871 0)
(0 -0.0188558 0)
(0 -0.0181573 0)
(0 -0.0185052 0)
(0 -0.0178247 0)
(0 -0.0055172 0)
(0 -0.00544277 0)
(0 -0.0174539 0)
(0 -0.0171392 0)
(0 -0.0174923 0)
(0 -0.0168221 0)
(0 -0.0171601 0)
(0 -0.0165035 0)
(0 -0.0168271 0)
(0 -0.0161849 0)
(0 -0.0158431 0)
(0 -0.0155393 0)
(0 -0.0158658 0)
(0 -0.0152332 0)
(0 -0.0155435 0)
(0 -0.0149256 0)
(0 -0.014601 0)
(0 -0.0143083 0)
(0 -0.0421981 0)
(0 -0.0442727 0)
(0 -0.0442413 0)
(0 -0.044259 0)
(0 -0.044226 0)
(0 -0.0442431 0)
(0 -0.0442041 0)
(0 -0.0442249 0)
(0 -0.0441875 0)
(0 -0.0442057 0)
(0 -0.0441661 0)
(0 -0.0441849 0)
(0 -0.0442227 0)
(0 -0.0442023 0)
(0 -0.0442384 0)
(0 -0.044216 0)
(0 -0.0442524 0)
(0 -0.0442278 0)
(0 -0.0442623 0)
(0 -0.0442375 0)
(0 -0.0442692 0)
(0 -0.0442434 0)
(0 -0.0442749 0)
(0 -0.0442479 0)
(0 -0.0442788 0)
(0 -0.0442138 0)
(0 -0.0441465 0)
(0 -0.0442505 0)
(0 -0.0442806 0)
(0 -0.00521057 0)
(0 -0.00512583 0)
(0 -0.044144 0)
(0 -0.0298825 0)
(0 -0.0139686 0)
(0 -0.0136911 0)
(0 -0.0342124 0)
(0 -0.0152201 0)
(0 -0.0442518 0)
(0 -0.0442804 0)
(0 -0.0245268 0)
(0 -0.0292576 0)
(0 -0.00490866 0)
(0 -0.00481183 0)
(0 -0.00504356 0)
(0 -0.0334951 0)
(0 -0.0337294 0)
(0 -0.0329802 0)
(0 -0.0332034 0)
(0 -0.0324176 0)
(0 -0.0326329 0)
(0 -0.0318054 0)
(0 -0.0320032 0)
(0 -0.0311354 0)
(0 -0.0313098 0)
(0 -0.0443016 0)
(0 -0.04425 0)
(0 -0.0442779 0)
(0 -0.0133365 0)
(0 -0.0130743 0)
(0 -0.0421004 0)
(0 -0.0250623 0)
(0 -0.0303969 0)
(0 -0.0305591 0)
(0 -0.03148 0)
(0 -0.0307115 0)
(0 -0.0316292 0)
(0 -0.0308447 0)
(0 -0.0317618 0)
(0 -0.0309634 0)
(0 -0.0318809 0)
(0 -0.0310672 0)
(0 -0.0319828 0)
(0 -0.0311503 0)
(0 -0.0320659 0)
(0 -0.0312116 0)
(0 -0.0321326 0)
(0 -0.0312571 0)
(0 -0.032179 0)
(0 -0.0312842 0)
(0 -0.0322058 0)
(0 -0.0312917 0)
(0 -0.0322135 0)
(0 -0.0312786 0)
(0 -0.0322015 0)
(0 -0.0312469 0)
(0 -0.0321686 0)
(0 -0.00459909 0)
(0 -0.00471043 0)
(0 -0.00449879 0)
(0 -0.0311983 0)
(0 -0.0321176 0)
(0 -0.044245 0)
(0 -0.0442728 0)
(0 -0.0442149 0)
(0 -0.0311313 0)
(0 -0.032048 0)
(0 -0.0127057 0)
(0 -0.0124594 0)
(0 -0.0128109 0)
(0 -0.0122109 0)
(0 -0.0310469 0)
(0 -0.031958 0)
(0 -0.00429472 0)
(0 -0.0041908 0)
(0 -0.0296021 0)
(0 -0.0442385 0)
(0 -0.0442654 0)
(0 -0.0309348 0)
(0 -0.0318456 0)
(0 -0.0329724 0)
(0 -0.0125457 0)
(0 -0.0119592 0)
(0 -0.0116135 0)
(0 -0.011376 0)
(0 -0.0307979 0)
(0 -0.0317154 0)
(0 -0.0442918 0)
(0 -0.0330484 0)
(0 -0.0110199 0)
(0 -0.0107999 0)
(0 -0.030648 0)
(0 -0.0315711 0)
(0 -0.0325898 0)
(0 -0.0324552 0)
(0 -0.0314144 0)
(0 -0.0323232 0)
(0 -0.0312449 0)
(0 -0.0321592 0)
(0 -0.0310542 0)
(0 -0.0319715 0)
(0 -0.0442299 0)
(0 -0.0442561 0)
(0 -0.0442875 0)
(0 -0.0442792 0)
(0 -0.0442452 0)
(0 -0.044268 0)
(0 -0.0443007 0)
(0 -0.0442886 0)
(0 -0.0442542 0)
(0 -0.0442733 0)
(0 -0.0443059 0)
(0 -0.0442906 0)
(0 -0.0443199 0)
(0 -0.044306 0)
(0 -0.0443324 0)
(0 -0.0443194 0)
(0 -0.0443425 0)
(0 -0.0443304 0)
(0 -0.0443516 0)
(0 -0.0443397 0)
(0 -0.0443604 0)
(0 -0.0443477 0)
(0 -0.044367 0)
(0 -0.0443543 0)
(0 -0.044372 0)
(0 -0.0443599 0)
(0 -0.0443765 0)
(0 -0.0443643 0)
(0 -0.0443805 0)
(0 -0.0443687 0)
(0 -0.0443839 0)
(0 -0.0443728 0)
(0 -0.0443868 0)
(0 -0.044376 0)
(0 -0.0443894 0)
(0 -0.0443789 0)
(0 -0.0443917 0)
(0 -0.0443817 0)
(0 -0.0443939 0)
(0 -0.0443838 0)
(0 -0.0443954 0)
(0 -0.0443857 0)
(0 -0.0443965 0)
(0 -0.044387 0)
(0 -0.0443977 0)
(0 -0.0443881 0)
(0 -0.044375 0)
(0 -0.0443649 0)
(0 -0.0443411 0)
(0 -0.0443068 0)
(0 -0.0442374 0)
(0 -0.0444073 0)
(0 -0.044403 0)
(0 -0.0308418 0)
(0 -0.0317475 0)
(0 -0.0330615 0)
(0 -0.0300968 0)
(0 -0.00399937 0)
(0 -0.00389459 0)
(0 -0.0306051 0)
(0 -0.0315011 0)
(0 -0.0116979 0)
(0 -0.0124502 0)
(0 -0.0303489 0)
(0 -0.0312562 0)
(0 -0.0443943 0)
(0 -0.0104315 0)
(0 -0.0102286 0)
(0 -0.0037115 0)
(0 -0.00360569 0)
(0 -0.00377073 0)
(0 -0.0302975 0)
(0 -0.044357 0)
(0 -0.0443073 0)
(0 -0.00343128 0)
(0 -0.00352317 0)
(0 -0.00984869 0)
(0 -0.00966169 0)
(0 -0.00332288 0)
(0 -0.0302151 0)
(0 -0.0415813 0)
(0 -0.00927217 0)
(0 -0.00910158 0)
(0 -0.00944015 0)
(0 -0.00947233 0)
(0 -0.00892768 0)
(0 -0.00928029 0)
(0 -0.00875039 0)
(0 -0.00315874 0)
(0 -0.00304969 0)
(0 -0.00908543 0)
(0 -0.00857006 0)
(0 -0.00822745 0)
(0 -0.00806212 0)
(0 -0.0294526 0)
(0 -0.0286072 0)
(0 -0.0284729 0)
(0 -0.027573 0)
(0 -0.027444 0)
(0 -0.0264905 0)
(0 -0.0263676 0)
(0 -0.0298352 0)
(0 -0.0399253 0)
(0 -0.0429604 0)
(0 -0.0253746 0)
(0 -0.0252618 0)
(0 -0.00771222 0)
(0 -0.00756202 0)
(0 -0.00789414 0)
(0 -0.00740884 0)
(0 -0.0299028 0)
(0 -0.00289499 0)
(0 -0.00278608 0)
(0 -0.00707023 0)
(0 -0.00693165 0)
(0 -0.0129503 0)
(0 -0.0242347 0)
(0 -0.0241332 0)
(0 -0.0243348 0)
(0 -0.00885375 0)
(0 -0.009001 0)
(0 -0.00772437 0)
(0 -0.00263959 0)
(0 -0.00253267 0)
(0 -0.0026563 0)
(0 -0.00658723 0)
(0 -0.00646289 0)
(0 -0.0230572 0)
(0 -0.0229744 0)
(0 -0.0420352 0)
(0 -0.0084052 0)
(0 -0.00852992 0)
(0 -0.00239381 0)
(0 -0.00249366 0)
(0 -0.0022831 0)
(0 -0.00611342 0)
(0 -0.00600308 0)
(0 -0.0358559 0)
(0 -0.0355591 0)
(0 -0.035996 0)
(0 -0.0356898 0)
(0 -0.0361191 0)
(0 -0.0358057 0)
(0 -0.0362818 0)
(0 -0.035904 0)
(0 -0.0363319 0)
(0 -0.0359657 0)
(0 -0.0363813 0)
(0 -0.0360103 0)
(0 -0.0355496 0)
(0 -0.0364147 0)
(0 -0.0360353 0)
(0 -0.0364295 0)
(0 -0.0360264 0)
(0 -0.0364224 0)
(0 -0.03683 0)
(0 -0.0359986 0)
(0 -0.0368174 0)
(0 -0.0372196 0)
(0 -0.0372 0)
(0 -0.0375958 0)
(0 -0.021847 0)
(0 -0.0217863 0)
(0 -0.042286 0)
(0 -0.0443833 0)
(0 -0.0327422 0)
(0 -0.00213312 0)
(0 -0.00204339 0)
(0 -0.00792616 0)
(0 -0.00802771 0)
(0 -0.00564966 0)
(0 -0.00555327 0)
(0 -0.00588874 0)
(0 -0.00545201 0)
(0 -0.00574129 0)
(0 -0.00577008 0)
(0 -0.00534615 0)
(0 -0.00502546 0)
(0 -0.00493246 0)
(0 -0.0366045 0)
(0 -0.00564733 0)
(0 -0.0439846 0)
(0 -0.0439211 0)
(0 -0.0439769 0)
(0 -0.0375699 0)
(0 -0.037959 0)
(0 -0.0174579 0)
(0 -0.0221057 0)
(0 -0.00830568 0)
(0 -0.0117843 0)
(0 -0.0167485 0)
(0 -0.037164 0)
(0 -0.0217787 0)
(0 -0.0179651 0)
(0 -0.0161806 0)
(0 -0.0212344 0)
(0 -0.0334283 0)
(0 -0.0206108 0)
(0 -0.0205731 0)
(0 -0.0217094 0)
(0 -0.0205197 0)
(0 -0.0216214 0)
(0 -0.0204518 0)
(0 -0.0215187 0)
(0 -0.0203632 0)
(0 -0.0213997 0)
(0 -0.0202566 0)
(0 -0.019181 0)
(0 -0.0190922 0)
(0 -0.0201473 0)
(0 -0.0190022 0)
(0 -0.0206309 0)
(0 -0.0417688 0)
(0 -0.0193413 0)
(0 -0.0356031 0)
(0 -0.0355522 0)
(0 -0.0351469 0)
(0 -0.0350786 0)
(0 -0.0346635 0)
(0 -0.00444557 0)
(0 -0.00476118 0)
(0 -0.00453636 0)
(0 -0.00422284 0)
(0 -0.0043077 0)
(0 -0.0046192 0)
(0 -0.0043846 0)
(0 -0.00407561 0)
(0 -0.00414712 0)
(0 -0.00469329 0)
(0 -0.00384031 0)
(0 -0.00390711 0)
(0 -0.00360232 0)
(0 -0.00366509 0)
(0 -0.0039658 0)
(0 -0.00371973 0)
(0 -0.00353198 0)
(0 -0.00401575 0)
(0 -0.0037658 0)
(0 -0.00191115 0)
(0 -0.00347283 0)
(0 -0.0035156 0)
(0 -0.00181898 0)
(0 -0.00192188 0)
(0 -0.017906 0)
(0 -0.0178403 0)
(0 -0.0189024 0)
(0 -0.0177637 0)
(0 -0.042397 0)
(0 -0.029114 0)
(0 -0.0425069 0)
(0 -0.0424123 0)
(0 -0.0414948 0)
(0 -0.0439119 0)
(0 -0.0439685 0)
(0 -0.0046095 0)
(0 -0.0045293 0)
(0 -0.0414124 0)
(0 -0.00741593 0)
(0 -0.00749721 0)
(0 -0.0440284 0)
(0 -0.04402 0)
(0 -0.0439594 0)
(0 -0.0440108 0)
(0 -0.0439492 0)
(0 -0.0440016 0)
(0 -0.0439366 0)
(0 -0.0439899 0)
(0 -0.0439201 0)
(0 -0.0439753 0)
(0 -0.0441868 0)
(0 -0.0187911 0)
(0 -0.0176751 0)
(0 -0.0379267 0)
(0 -0.0383087 0)
(0 -0.0166149 0)
(0 -0.0165506 0)
(0 -0.0175781 0)
(0 -0.0164732 0)
(0 -0.0174705 0)
(0 -0.0163838 0)
(0 -0.0173565 0)
(0 -0.0162884 0)
(0 -0.01529 0)
(0 -0.0152187 0)
(0 -0.0161862 0)
(0 -0.0151384 0)
(0 -0.0439023 0)
(0 -0.0439589 0)
(0 -0.00405642 0)
(0 -0.00170281 0)
(0 -0.00178897 0)
(0 -0.0081226 0)
(0 -0.00757181 0)
(0 -0.00821004 0)
(0 -0.00763459 0)
(0 -0.00829383 0)
(0 -0.00768782 0)
(0 -0.0083726 0)
(0 -0.00322558 0)
(0 -0.00326564 0)
(0 -0.00773301 0)
(0 -0.00844129 0)
(0 -0.0160734 0)
(0 -0.0150458 0)
(0 -0.0141007 0)
(0 -0.0140185 0)
(0 -0.0149435 0)
(0 -0.0139375 0)
(0 -0.0148314 0)
(0 -0.0138488 0)
(0 -0.0147097 0)
(0 -0.0137499 0)
(0 -0.0128662 0)
(0 -0.0127915 0)
(0 -0.013643 0)
(0 -0.0127078 0)
(0 -0.0135279 0)
(0 -0.0126149 0)
(0 -0.00160341 0)
(0 -0.0117787 0)
(0 -0.0117076 0)
(0 -0.0125139 0)
(0 -0.0116276 0)
(0 -0.0345847 0)
(0 -0.0341655 0)
(0 -0.0353711 0)
(0 -0.00777121 0)
(0 -0.004205 0)
(0 -0.00413732 0)
(0 -0.00444399 0)
(0 -0.00406381 0)
(0 -0.00435318 0)
(0 -0.00398461 0)
(0 -0.0382684 0)
(0 -0.00369513 0)
(0 -0.00362728 0)
(0 -0.0420778 0)
(0 -0.0386451 0)
(0 -0.038674 0)
(0 -0.043563 0)
(0 -0.0434526 0)
(0 -0.0435121 0)
(0 -0.0433985 0)
(0 -0.0434578 0)
(0 -0.0440752 0)
(0 -0.0154615 0)
(0 -0.044442 0)
(0 -0.0444368 0)
(0 -0.0444397 0)
(0 -0.0444349 0)
(0 -0.0444378 0)
(0 -0.0444328 0)
(0 -0.0444359 0)
(0 -0.0444301 0)
(0 -0.0444336 0)
(0 -0.0444269 0)
(0 -0.0444305 0)
(0 -0.0444366 0)
(0 -0.0444336 0)
(0 -0.044439 0)
(0 -0.0444361 0)
(0 -0.0444231 0)
(0 -0.044441 0)
(0 -0.0444383 0)
(0 -0.0444328 0)
(0 -0.044435 0)
(0 -0.0444408 0)
(0 -0.0444369 0)
(0 -0.0444309 0)
(0 -0.0444329 0)
(0 -0.0444384 0)
(0 -0.0444346 0)
(0 -0.0444397 0)
(0 -0.0444357 0)
(0 -0.0444406 0)
(0 -0.0444365 0)
(0 -0.0444411 0)
(0 -0.0444367 0)
(0 -0.0444412 0)
(0 -0.0444365 0)
(0 -0.0444407 0)
(0 -0.0444266 0)
(0 -0.0444415 0)
(0 -0.0444359 0)
(0 -0.0444397 0)
(0 -0.0444311 0)
(0 -0.0444308 0)
(0 -0.0444261 0)
(0 -0.0438811 0)
(0 -0.0439398 0)
(0 -0.0124003 0)
(0 -0.010805 0)
(0 -0.0068833 0)
(0 -0.0029786 0)
(0 -0.00301652 0)
(0 -0.0032972 0)
(0 -0.00304615 0)
(0 -0.0261812 0)
(0 -0.043335 0)
(0 -0.0015023 0)
(0 -0.00140175 0)
(0 -0.0130341 0)
(0 -0.0440575 0)
(0 -0.0438849 0)
(0 -0.0438596 0)
(0 -0.0439191 0)
(0 -0.0385984 0)
(0 -0.0382074 0)
(0 -0.00425723 0)
(0 -0.0432766 0)
(0 -0.0033198 0)
(0 -0.00306702 0)
(0 -0.00279708 0)
(0 -0.00281686 0)
(0 -0.0444346 0)
(0 -0.0444382 0)
(0 -0.0438389 0)
(0 -0.0438956 0)
(0 -0.0438136 0)
(0 -0.0438681 0)
(0 -0.0390016 0)
(0 -0.0390194 0)
(0 -0.0367512 0)
(0 -0.00333824 0)
(0 -0.00328171 0)
(0 -0.0107474 0)
(0 -0.00990644 0)
(0 -0.0340738 0)
(0 -0.033655 0)
(0 -0.033745 0)
(0 -0.0332298 0)
(0 -0.0333146 0)
(0 -0.0327972 0)
(0 -0.0328779 0)
(0 -0.0323527 0)
(0 -0.0324316 0)
(0 -0.0319147 0)
(0 -0.0319669 0)
(0 -0.0314682 0)
(0 -0.0314925 0)
(0 -0.0309837 0)
(0 -0.0310131 0)
(0 -0.0304948 0)
(0 -0.0305282 0)
(0 -0.0300127 0)
(0 -0.0344865 0)
(0 -0.0300362 0)
(0 -0.0295233 0)
(0 -0.0304301 0)
(0 -0.0295379 0)
(0 -0.0290285 0)
(0 -0.0289938 0)
(0 -0.0285019 0)
(0 -0.028529 0)
(0 -0.0280057 0)
(0 -0.0320025 0)
(0 -0.0317727 0)
(0 -0.0280244 0)
(0 -0.0275046 0)
(0 -0.02747 0)
(0 -0.0269725 0)
(0 -0.0270007 0)
(0 -0.0264752 0)
(0 -0.0264947 0)
(0 -0.0259762 0)
(0 -0.0259871 0)
(0 -0.0254711 0)
(0 -0.0254751 0)
(0 -0.0249635 0)
(0 -0.0249437 0)
(0 -0.0244415 0)
(0 -0.0244586 0)
(0 -0.0239418 0)
(0 -0.0239053 0)
(0 -0.0234112 0)
(0 -0.0264289 0)
(0 -0.0234445 0)
(0 -0.0229206 0)
(0 -0.022868 0)
(0 -0.0223863 0)
(0 -0.0224302 0)
(0 -0.0219053 0)
(0 -0.021939 0)
(0 -0.0214244 0)
(0 -0.021449 0)
(0 -0.0209446 0)
(0 -0.0209608 0)
(0 -0.0204662 0)
(0 -0.0204743 0)
(0 -0.0199901 0)
(0 -0.00681472 0)
(0 -0.0225208 0)
(0 -0.00627804 0)
(0 -0.0435656 0)
(0 -0.0435105 0)
(0 -0.00255051 0)
(0 -0.00256976 0)
(0 -0.0437826 0)
(0 -0.0438372 0)
(0 -0.043208 0)
(0 -0.0158224 0)
(0 -0.0154847 0)
(0 -0.016071 0)
(0 -0.0157195 0)
(0 -0.0162896 0)
(0 -0.0159248 0)
(0 -0.0440091 0)
(0 -0.00329557 0)
(0 -0.00322168 0)
(0 -0.00298639 0)
(0 -0.00290913 0)
(0 -0.00426709 0)
(0 -0.00386178 0)
(0 -0.00390472 0)
(0 -0.021373 0)
(0 -0.00705042 0)
(0 -0.00130565 0)
(0 -0.00121203 0)
(0 -0.00128989 0)
(0 -0.0184245 0)
(0 -0.0444429 0)
(0 -0.0444414 0)
(0 -0.0444356 0)
(0 -0.0444397 0)
(0 -0.044444 0)
(0 -0.0444421 0)
(0 -0.0444457 0)
(0 -0.0444439 0)
(0 -0.044447 0)
(0 -0.0444454 0)
(0 -0.044448 0)
(0 -0.0444465 0)
(0 -0.0444488 0)
(0 -0.0444474 0)
(0 -0.0444495 0)
(0 -0.0444481 0)
(0 -0.0444457 0)
(0 -0.0444465 0)
(0 -0.0444487 0)
(0 -0.0444473 0)
(0 -0.0444492 0)
(0 -0.0444479 0)
(0 -0.0444497 0)
(0 -0.0444484 0)
(0 -0.04445 0)
(0 -0.0444488 0)
(0 -0.0444503 0)
(0 -0.0444492 0)
(0 -0.0444506 0)
(0 -0.0444495 0)
(0 -0.0444508 0)
(0 -0.0444497 0)
(0 -0.044451 0)
(0 -0.04445 0)
(0 -0.0444512 0)
(0 -0.0444502 0)
(0 -0.0444513 0)
(0 -0.0444504 0)
(0 -0.044449 0)
(0 -0.0444493 0)
(0 -0.0444506 0)
(0 -0.0444495 0)
(0 -0.0444508 0)
(0 -0.0444497 0)
(0 -0.044451 0)
(0 -0.0444499 0)
(0 -0.0444478 0)
(0 -0.0444481 0)
(0 -0.044447 0)
(0 -0.0444438 0)
(0 -0.0444377 0)
(0 -0.00622455 0)
(0 -0.0436112 0)
(0 -0.0435571 0)
(0 -0.0434492 0)
(0 -0.0434956 0)
(0 -0.0435999 0)
(0 -0.0435366 0)
(0 -0.0436379 0)
(0 -0.043572 0)
(0 -0.0436702 0)
(0 -0.043602 0)
(0 -0.0436972 0)
(0 -0.0436261 0)
(0 -0.0437191 0)
(0 -0.0436454 0)
(0 -0.0435455 0)
(0 -0.0435622 0)
(0 -0.0436595 0)
(0 -0.0435741 0)
(0 -0.043669 0)
(0 -0.0435808 0)
(0 -0.0436742 0)
(0 -0.0435817 0)
(0 -0.043673 0)
(0 -0.0434875 0)
(0 -0.0434667 0)
(0 -0.0434563 0)
(0 -0.0435772 0)
(0 -0.0436652 0)
(0 -0.0199628 0)
(0 -0.0195003 0)
(0 -0.0195166 0)
(0 -0.0190417 0)
(0 -0.0391316 0)
(0 -0.0435661 0)
(0 -0.043652 0)
(0 -0.00333299 0)
(0 -0.0394748 0)
(0 -0.0444439 0)
(0 -0.0438509 0)
(0 -0.0393363 0)
(0 -0.0334185 0)
(0 -0.038531 0)
(0 -0.0381251 0)
(0 -0.0339565 0)
(0 -0.0343606 0)
(0 -0.0444517 0)
(0 -0.0156701 0)
(0 -0.00987545 0)
(0 -0.043145 0)
(0 -0.00299374 0)
(0 -0.00294829 0)
(0 -0.00321904 0)
(0 -0.00289602 0)
(0 -0.0439448 0)
(0 -0.044451 0)
(0 -0.0430713 0)
(0 -0.0190458 0)
(0 -0.0185764 0)
(0 -0.00568213 0)
(0 -0.00564739 0)
(0 -0.00901686 0)
(0 -0.00901871 0)
(0 -0.00262714 0)
(0 -0.00258526 0)
(0 -0.00283715 0)
(0 -0.00253629 0)
(0 -0.00111413 0)
(0 -0.00119791 0)
(0 -0.0435488 0)
(0 -0.0436339 0)
(0 -0.043457 0)
(0 -0.0437308 0)
(0 -0.0437119 0)
(0 -0.043611 0)
(0 -0.0436881 0)
(0 -0.0444521 0)
(0 -0.0144848 0)
(0 -0.00267446 0)
(0 -0.00259418 0)
(0 -0.00349924 0)
(0 -0.00352224 0)
(0 -0.0316161 0)
(0 -0.0153687 0)
(0 -0.0155612 0)
(0 -0.0150184 0)
(0 -0.0151986 0)
(0 -0.0146683 0)
(0 -0.0148364 0)
(0 -0.0143189 0)
(0 -0.014475 0)
(0 -0.0139703 0)
(0 -0.0141144 0)
(0 -0.0136228 0)
(0 -0.0137558 0)
(0 -0.0132776 0)
(0 -0.0142331 0)
(0 -0.013864 0)
(0 -0.0143266 0)
(0 -0.013948 0)
(0 -0.0143958 0)
(0 -0.0147865 0)
(0 -0.0148403 0)
(0 -0.0144414 0)
(0 -0.00833097 0)
(0 -0.00798726 0)
(0 -0.00808529 0)
(0 -0.00770747 0)
(0 -0.00783399 0)
(0 -0.00749076 0)
(0 -0.00759015 0)
(0 -0.00725858 0)
(0 -0.00733837 0)
(0 -0.00701201 0)
(0 -0.00708088 0)
(0 -0.00230705 0)
(0 -0.00232633 0)
(0 -0.00227937 0)
(0 -0.00258013 0)
(0 -0.00233677 0)
(0 -0.00102284 0)
(0 -0.0405047 0)
(0 -0.0437474 0)
(0 -0.0438035 0)
(0 -0.0437524 0)
(0 -0.039244 0)
(0 -0.03958 0)
(0 -0.0388976 0)
(0 -0.0185776 0)
(0 -0.0437499 0)
(0 -0.0148701 0)
(0 -0.0437831 0)
(0 -0.043814 0)
(0 -0.0338107 0)
(0 -0.0342069 0)
(0 -0.00901116 0)
(0 -0.00982982 0)
(0 -0.0305389 0)
(0 -0.0444484 0)
(0 -0.00282584 0)
(0 -0.00250831 0)
(0 -0.00273653 0)
(0 -0.00241715 0)
(0 -0.0026426 0)
(0 -0.0050984 0)
(0 -0.00508425 0)
(0 -0.00515436 0)
(0 -0.0144633 0)
(0 -0.00208725 0)
(0 -0.00209863 0)
(0 -0.00233805 0)
(0 -0.00210104 0)
(0 -0.00868361 0)
(0 -0.0435814 0)
(0 -0.0181195 0)
(0 -0.0181085 0)
(0 -0.019457 0)
(0 -0.0131307 0)
(0 -0.0127983 0)
(0 -0.00675506 0)
(0 -0.00682061 0)
(0 -0.012638 0)
(0 -0.0123187 0)
(0 -0.0124678 0)
(0 -0.0120007 0)
(0 -0.0121386 0)
(0 -0.0116837 0)
(0 -0.0115337 0)
(0 -0.0112292 0)
(0 -0.0113682 0)
(0 -0.0109262 0)
(0 -0.0107756 0)
(0 -0.0104852 0)
(0 -0.0103232 0)
(0 -0.0100459 0)
(0 -0.0110545 0)
(0 -0.00228713 0)
(0 -0.00224778 0)
(0 -0.00907299 0)
(0 -0.000938086 0)
(0 -0.0219457 0)
(0 -0.00813666 0)
(0 -0.0444505 0)
(0 -0.0264928 0)
(0 -0.00916638 0)
(0 -0.00815572 0)
(0 -0.0390031 0)
(0 -0.0384435 0)
(0 -0.0388431 0)
(0 -0.0380229 0)
(0 -0.0198357 0)
(0 -0.043708 0)
(0 -0.000855003 0)
(0 -0.0437582 0)
(0 -0.0438477 0)
(0 -0.0437577 0)
(0 -0.0430044 0)
(0 -0.0429254 0)
(0 -0.00740808 0)
(0 -0.0096059 0)
(0 -0.00606822 0)
(0 -0.00592906 0)
(0 -0.00634632 0)
(0 -0.00619152 0)
(0 -0.00660458 0)
(0 -0.00643504 0)
(0 -0.00684336 0)
(0 -0.00665985 0)
(0 -0.00706264 0)
(0 -0.00626343 0)
(0 -0.034165 0)
(0 -0.00277169 0)
(0 -0.00235977 0)
(0 -0.00987202 0)
(0 -0.00961177 0)
(0 -0.00186623 0)
(0 -0.00187023 0)
(0 -0.00648686 0)
(0 -0.00655043 0)
(0 -0.0277039 0)
(0 -0.0387504 0)
(0 -0.0391421 0)
(0 -0.012305 0)
(0 -0.0125309 0)
(0 -0.0148768 0)
(0 -0.00311711 0)
(0 -0.00311954 0)
(0 -0.0336377 0)
(0 -0.0332414 0)
(0 -0.0340276 0)
(0 -0.0345925 0)
(0 -0.014462 0)
(0 -0.0140607 0)
(0 -0.00642079 0)
(0 -0.00200174 0)
(0 -0.00197189 0)
(0 -0.0393445 0)
(0 -0.0396517 0)
(0 -0.00452373 0)
(0 -0.00453534 0)
(0 -0.00977124 0)
(0 -0.00935977 0)
(0 -0.0390374 0)
(0 -0.00686612 0)
(0 -0.00622579 0)
(0 -0.00627927 0)
(0 -0.00597056 0)
(0 -0.00601029 0)
(0 -0.0386495 0)
(0 -0.00918997 0)
(0 -0.015301 0)
(0 -0.0444433 0)
(0 -0.00726521 0)
(0 -0.00731007 0)
(0 -0.00726248 0)
(0 -0.0056233 0)
(0 -0.0023299 0)
(0 -0.0157266 0)
(0 -0.000779373 0)
(0 -0.0396068 0)
(0 -0.0392438 0)
(0 -0.0397151 0)
(0 -0.0393535 0)
(0 -0.0398132 0)
(0 -0.0394525 0)
(0 -0.0399043 0)
(0 -0.0395442 0)
(0 -0.0399844 0)
(0 -0.0396275 0)
(0 -0.0400544 0)
(0 -0.039702 0)
(0 -0.0401167 0)
(0 -0.0397649 0)
(0 -0.0401704 0)
(0 -0.0398175 0)
(0 -0.0393963 0)
(0 -0.0394383 0)
(0 -0.0398628 0)
(0 -0.0394632 0)
(0 -0.0398963 0)
(0 -0.0394977 0)
(0 -0.0398949 0)
(0 -0.0395149 0)
(0 -0.0398883 0)
(0 -0.0395237 0)
(0 -0.0399075 0)
(0 -0.0395295 0)
(0 -0.0399221 0)
(0 -0.0395232 0)
(0 -0.039921 0)
(0 -0.0395014 0)
(0 -0.0390853 0)
(0 -0.0390581 0)
(0 -0.0394687 0)
(0 -0.0390204 0)
(0 -0.0394218 0)
(0 -0.0389689 0)
(0 -0.0393633 0)
(0 -0.0389034 0)
(0 -0.0389536 0)
(0 -0.0390993 0)
(0 -0.0390715 0)
(0 -0.0386187 0)
(0 -0.0392911 0)
(0 -0.038824 0)
(0 -0.0384142 0)
(0 -0.0383308 0)
(0 -0.0378913 0)
(0 -0.0378065 0)
(0 -0.0397984 0)
(0 -0.0392028 0)
(0 -0.0403149 0)
(0 -0.0401524 0)
(0 -0.0373377 0)
(0 -0.0372497 0)
(0 -0.0377099 0)
(0 -0.0371478 0)
(0 -0.0402526 0)
(0 -0.0404266 0)
(0 -0.0375997 0)
(0 -0.0370316 0)
(0 -0.0374142 0)
(0 -0.0368289 0)
(0 -0.0368969 0)
(0 -0.00070953 0)
(0 -0.000779786 0)
(0 -0.00353819 0)
(0 -0.00311396 0)
(0 -0.00354634 0)
(0 -0.00309963 0)
(0 -0.0438213 0)
(0 -0.0439062 0)
(0 -0.0439261 0)
(0 -0.00243752 0)
(0 -0.0016399 0)
(0 -0.00164607 0)
(0 -0.00716833 0)
(0 -0.018555 0)
(0 -0.0180773 0)
(0 -0.0344043 0)
(0 -0.0349507 0)
(0 -0.00212265 0)
(0 -0.00219873 0)
(0 -0.0333788 0)
(0 -0.0396496 0)
(0 -0.0399484 0)
(0 -0.0399485 0)
(0 -0.0376036 0)
(0 -0.0176853 0)
(0 -0.0180646 0)
(0 -0.00209533 0)
(0 -0.0402355 0)
(0 -0.0402251 0)
(0 -0.0402326 0)
(0 -0.0436462 0)
(0 -0.0436018 0)
(0 -0.00570477 0)
(0 -0.00573725 0)
(0 -0.00603525 0)
(0 -0.00575722 0)
(0 -0.0330467 0)
(0 -0.0326563 0)
(0 -0.00358979 0)
(0 -0.00359533 0)
(0 -0.00385629 0)
(0 -0.00385429 0)
(0 -0.00411973 0)
(0 -0.0035905 0)
(0 -0.00172946 0)
(0 -0.00170913 0)
(0 -0.00193474 0)
(0 -0.00168104 0)
(0 -0.00174202 0)
(0 -0.00705359 0)
(0 -0.00744396 0)
(0 -0.00354617 0)
(0 -0.00307607 0)
(0 -0.0148591 0)
(0 -0.0144375 0)
(0 -0.00949687 0)
(0 -0.0374771 0)
(0 -0.0369029 0)
(0 -0.0364297 0)
(0 -0.0380149 0)
(0 -0.00725824 0)
(0 -0.00640638 0)
(0 -0.00647718 0)
(0 -0.00632372 0)
(0 -0.043661 0)
(0 -0.00142025 0)
(0 -0.00142922 0)
(0 -0.00164333 0)
(0 -0.0014295 0)
(0 -0.0101387 0)
(0 -0.00396402 0)
(0 -0.0430787 0)
(0 -0.0429341 0)
(0 -0.0430066 0)
(0 -0.000633205 0)
(0 -0.000692736 0)
(0 -0.0390449 0)
(0 -0.0394285 0)
(0 -0.0376979 0)
(0 -0.0375782 0)
(0 -0.000569932 0)
(0 -0.0018901 0)
(0 -0.00164529 0)
(0 -0.00144067 0)
(0 -0.0014137 0)
(0 -0.00140289 0)
(0 -0.043879 0)
(0 -0.0439579 0)
(0 -0.00271547 0)
(0 -0.00272641 0)
(0 -0.00384098 0)
(0 -0.00357498 0)
(0 -0.0118713 0)
(0 -0.0120799 0)
(0 -0.0127552 0)
(0 -0.0122864 0)
(0 -0.0129748 0)
(0 -0.0124837 0)
(0 -0.0131897 0)
(0 -0.0126733 0)
(0 -0.0134014 0)
(0 -0.0128598 0)
(0 -0.0136082 0)
(0 -0.00546466 0)
(0 -0.00547905 0)
(0 -0.0387465 0)
(0 -0.00188358 0)
(0 -0.00195905 0)
(0 -0.00180371 0)
(0 -0.0347647 0)
(0 -0.0443332 0)
(0 -0.0362966 0)
(0 -0.0357926 0)
(0 -0.0428571 0)
(0 -0.0429258 0)