/*--------------------------------*- C++ -*----------------------------------*\
| =========                 |                                                 |
| \\      /  F ield         | OpenFOAM: The Open Source CFD Toolbox           |
|  \\    /   O peration     | Version:  v2012                                 |
|   \\  /    A nd           | Website:  www.openfoam.com                      |
|    \\/     M anipulation  |                                                 |
\*---------------------------------------------------------------------------*/
FoamFile
{
    version     2.0;
    format      ascii;
    class       surfaceVectorField;
    location    "650";
    object      ddtCorrDdt0(Uf);
}
// * * * * * * * * * * * * * * * * * * * * * * * * * * * * * * * * * * * * * //

dimensions      [0 1 -2 0 0 0 0];


internalField   nonuniform List<vector> 
20673
(
(0.000451582 -9.30071e-05 -3.8523e-18)
(0.000451794 -9.85886e-05 -5.1716e-18)
(0.000440783 -9.58075e-05 -3.30138e-20)
(0.000145351 -9.56971e-05 -1.05504e-19)
(0.000141504 -9.08478e-05 7.95068e-20)
(0.000147143 -8.89638e-05 1.80451e-19)
(0.00909192 -0.0052564 -4.97019e-18)
(0.00971121 -0.00537043 -2.31942e-19)
(0.0102278 -0.00532554 -9.47216e-18)
(-0.000288518 -0.000386171 -1.25892e-18)
(-0.000273968 -0.000391635 5.40339e-18)
(-0.000279781 -0.000376654 1.82794e-18)
(1.94281e-05 6.75263e-05 5.63389e-19)
(7.04336e-06 5.90568e-05 1.11756e-18)
(7.68653e-06 6.46757e-05 5.14024e-18)
(-1.64639e-05 0.00103132 5.65919e-17)
(1.36497e-05 0.00105327 9.1556e-17)
(7.41422e-06 0.00102455 3.81252e-17)
(0.00836477 -0.00417879 1.49963e-18)
(0.00819756 -0.00432575 1.36455e-18)
(0.00907981 -0.00434842 -6.51485e-18)
(0.00947341 -0.00565699 3.17185e-18)
(0.00876118 -0.00553116 -7.9852e-18)
(0.00893823 -0.00565201 -3.05033e-18)
(-0.00107445 0.000115009 -4.84592e-18)
(-0.00125968 0.000344617 -1.75143e-17)
(-0.00117593 0.000246746 5.76862e-18)
(0.000475254 -0.000151285 3.29892e-18)
(0.000467591 -0.000160557 4.16998e-18)
(0.000481326 -0.000164729 7.1774e-18)
(-0.00162105 -0.0034036 -2.24866e-18)
(-0.00177293 -0.00332175 1.14192e-18)
(-0.00178193 -0.00354898 -1.5824e-17)
(-0.000908295 -0.00113513 1.91754e-19)
(-0.000964747 -0.00114106 -4.26038e-18)
(-0.000904272 -0.00118262 5.10491e-18)
(-0.000298504 -0.000399055 -3.67905e-18)
(-0.00126959 -0.000572331 4.95447e-18)
(-0.00144148 -0.000812951 7.76283e-18)
(-0.00156237 -0.000552305 -1.3541e-17)
(0.000265377 8.09825e-05 -2.30928e-18)
(0.000257148 8.85221e-05 1.30221e-18)
(0.0002525 7.40614e-05 5.75755e-18)
(0.000269083 2.15953e-05 -5.55565e-19)
(0.000259793 2.84827e-05 2.54863e-19)
(0.000257593 1.46814e-05 6.37288e-19)
(0.000159031 -6.13937e-05 -4.57772e-19)
(0.000158213 -6.76687e-05 9.37604e-20)
(0.000155013 -6.08747e-05 -1.34385e-19)
(0.000764598 -0.000565817 -4.30985e-18)
(0.000762966 -0.000525557 -7.1238e-18)
(0.000804857 -0.000558981 -3.16777e-18)
(-0.000898378 -0.00107798 9.19681e-18)
(-0.000857236 -0.00113553 5.0942e-18)
(2.89521e-05 2.16985e-05 8.55653e-19)
(2.87338e-05 2.10746e-05 7.2557e-19)
(2.79445e-05 2.88781e-05 9.61588e-19)
(1.50597e-06 3.85504e-05 5.24097e-21)
(2.21999e-06 5.14108e-05 4.18685e-18)
(1.42678e-06 3.73865e-05 1.46933e-18)
(0.00839296 -0.00406514 3.71821e-18)
(0.00798335 -0.00412523 8.05728e-18)
(3.44439e-05 2.68498e-05 1.1947e-18)
(3.49246e-05 1.88862e-05 1.29989e-18)
(3.50269e-05 1.77061e-05 3.22516e-19)
(0.00994979 -0.00585117 3.04836e-18)
(0.00984958 -0.00592792 1.23861e-17)
(4.21717e-05 5.33532e-05 -1.91631e-18)
(3.90061e-05 5.90277e-05 -6.69768e-18)
(4.84295e-05 6.28971e-05 -3.56835e-18)
(0.00914951 -0.00280786 -1.64975e-18)
(0.00904712 -0.00268339 -4.25782e-19)
(0.00897796 -0.00285848 -2.08316e-18)
(7.08529e-05 0.000484024 -8.93961e-18)
(7.95486e-05 0.000505641 -3.35984e-18)
(5.31849e-05 0.000497165 -1.8028e-17)
(0.000215434 0.000562418 -1.45888e-17)
(0.000233922 0.000573405 -4.26231e-18)
(0.000215557 0.000591729 -7.40748e-18)
(0.000740298 0.00116175 -4.4889e-19)
(0.000793123 0.00115523 -3.25515e-18)
(0.000783265 0.00122208 -5.75885e-18)
(0.000333208 6.0886e-05 2.65464e-17)
(0.000360664 8.47232e-05 6.43628e-18)
(0.000320763 0.000106369 1.25491e-17)
(0.00045005 -0.000113276 6.51953e-18)
(0.000449995 -0.000110357 -2.51372e-18)
(0.000442963 -0.000111864 3.67213e-19)
(0.000346481 -9.28974e-05 9.86614e-19)
(0.000343949 -8.89041e-05 1.27672e-18)
(0.000335759 -9.39086e-05 -7.04083e-19)
(0.000140521 0.000384046 6.09815e-18)
(0.000143162 0.000401662 -3.78662e-18)
(0.000126038 0.000393866 4.09595e-18)
(-4.56719e-06 0.000231629 1.33708e-17)
(-9.32603e-06 0.000227077 -8.65009e-18)
(-2.18067e-06 0.000226146 3.53625e-18)
(3.23946e-05 5.98732e-05 -1.36917e-18)
(3.44404e-05 7.17584e-05 -2.1028e-18)
(3.58014e-05 6.46107e-05 -1.98437e-18)
(-0.00628269 -0.00411931 -8.95068e-18)
(-0.00607561 -0.00463672 1.30436e-17)
(-0.00488158 -0.00429414 2.72504e-18)
(3.25273e-05 3.60505e-05 4.34607e-19)
(3.34618e-05 3.33693e-05 -4.30933e-19)
(-0.00142888 -0.00242952 7.68164e-18)
(-0.00163754 -0.0021592 2.2095e-18)
(-0.00128664 -0.00229324 4.91284e-18)
(-0.000369661 -0.000490133 7.38655e-19)
(-0.000386762 -0.000502002 -6.21527e-18)
(0.0122074 -0.000102653 6.95937e-18)
(0.0122062 -0.000174936 1.35389e-17)
(0.012139 -8.68026e-05 -2.06471e-18)
(2.86327e-05 1.5036e-06 3.7182e-20)
(2.92491e-05 8.9224e-07 -7.90947e-20)
(3.24979e-05 8.32546e-07 -3.18001e-21)
(4.84888e-07 2.29615e-05 2.91153e-19)
(2.6198e-07 1.04906e-05 -8.08089e-19)
(9.84235e-08 1.08645e-05 2.18677e-18)
(-2.09855e-05 -4.17154e-05 -7.17151e-19)
(-1.7771e-05 -3.7243e-05 5.28156e-19)
(-1.99956e-05 -3.7988e-05 -3.64483e-19)
(0.000308101 0.000721363 1.1972e-17)
(0.000333393 0.000713708 -2.40392e-17)
(0.000327686 0.000751648 -4.44077e-17)
(7.63666e-05 -0.000118412 9.82668e-19)
(8.03876e-05 -0.000122007 -2.98854e-18)
(7.52676e-05 -0.000120807 -6.91962e-19)
(3.36157e-05 0.000263072 5.82781e-18)
(1.54464e-05 0.000265525 2.54835e-18)
(2.37283e-05 0.000255127 1.64777e-17)
(0.000767828 -0.000619133 1.67623e-17)
(0.000726324 -0.000579675 2.53746e-18)
(0.00101079 -0.00133306 2.55007e-17)
(0.000964687 -0.00123244 -7.44635e-18)
(0.000901173 -0.00133773 -8.28567e-19)
(6.43502e-06 0.00106749 1.41049e-17)
(2.36663e-05 0.00112862 2.51931e-17)
(6.38224e-05 0.00108956 2.29403e-17)
(2.25855e-05 -1.09751e-06 3.00297e-19)
(2.28979e-05 -1.17517e-06 1.62435e-19)
(2.19544e-05 -1.31458e-06 -1.32653e-19)
(0.000136821 -0.000501304 4.87634e-18)
(0.000154298 -0.000496857 6.04908e-18)
(0.000144323 -0.0005176 2.50202e-18)
(1.99208e-05 0.000218988 -5.1211e-18)
(1.54914e-05 0.000225297 -3.53333e-18)
(2.84835e-05 0.000216802 1.31144e-17)
(4.15627e-05 0.00106043 -8.55746e-17)
(-2.22442e-05 0.00133715 -4.69228e-17)
(1.97085e-06 0.000235858 6.22071e-18)
(-7.30536e-06 0.000237593 -9.46243e-18)
(0.000163553 -6.07296e-05 -1.07759e-19)
(0.000159469 -5.46335e-05 -1.45265e-19)
(0.000270246 -0.000305467 1.54519e-17)
(0.000273252 -0.000289477 1.0371e-17)
(0.000285421 -0.000301501 5.40125e-18)
(-0.00142967 -0.00350426 1.05993e-18)
(-0.00146234 -0.00326781 5.86848e-18)
(9.57436e-05 0.000125579 1.0963e-18)
(9.22675e-05 0.000129372 -9.0048e-19)
(9.56916e-05 0.000123365 4.87687e-18)
(0.000235199 -0.000209269 3.8376e-18)
(0.000245242 -0.000213751 -4.59855e-18)
(0.000244421 -0.000200402 6.1221e-18)
(7.73096e-05 -0.000115886 -1.08095e-19)
(7.2792e-05 -0.000114976 6.90422e-19)
(0.00302621 -0.00147459 3.19282e-17)
(0.00254324 -0.00154583 1.54861e-17)
(0.00271494 -0.0015229 5.53237e-17)
(0.000144228 -9.98319e-05 1.95691e-20)
(0.000150005 -9.84299e-05 -2.16228e-19)
(-0.00104902 -0.000561299 1.23534e-17)
(2.86891e-05 2.14198e-05 -1.30392e-18)
(2.92087e-05 1.53744e-05 5.80083e-19)
(6.94643e-05 0.00109812 -4.14779e-17)
(6.59718e-05 0.00100713 -6.3402e-17)
(0.002394 8.17791e-05 -1.78404e-17)
(0.00235154 0.000230524 7.23823e-19)
(0.00138901 -4.92048e-05 -4.57981e-17)
(-3.26236e-06 6.44704e-05 -3.22612e-18)
(-2.83673e-06 5.18816e-05 -1.61336e-19)
(-2.12226e-06 6.57514e-05 -9.58859e-19)
(-6.69639e-06 5.52546e-05 -6.82823e-18)
(0.00207154 -0.00308934 -4.70613e-18)
(0.00194577 -0.00322121 -4.38218e-19)
(0.00218374 -0.00325235 -3.03558e-17)
(0.000437146 -4.10661e-05 -1.29384e-18)
(0.000448778 -5.29232e-05 4.7429e-18)
(0.000455889 -2.99037e-05 9.08725e-18)
(1.6902e-05 8.16755e-05 -6.96847e-18)
(1.53478e-05 6.60094e-05 -5.10266e-18)
(-0.0010967 -8.12722e-05 2.07248e-17)
(-0.000877741 -0.000139301 -2.89844e-18)
(-0.00401223 0.00052519 -1.19583e-17)
(-0.00380853 0.000687928 -2.90049e-18)
(-0.00363957 0.00070521 8.41177e-18)
(4.50739e-05 5.10893e-05 2.9826e-18)
(4.11481e-05 4.23784e-05 8.86629e-18)
(3.51259e-06 0.00116246 -1.86952e-17)
(1.42988e-05 0.0011487 -1.50964e-17)
(-6.23617e-06 0.00118169 5.79663e-17)
(-0.000833037 -0.000668654 -2.23638e-18)
(-0.000783988 -0.000711503 -1.46746e-18)
(-0.000846182 -0.000740731 -2.27828e-18)
(-0.00629658 -0.000262064 2.69284e-18)
(-0.00604745 -0.000257018 -2.54375e-18)
(-0.00624631 -0.000251515 2.18535e-18)
(0.000104574 -0.000184169 -3.91e-18)
(0.000110944 -0.000189846 -5.49567e-19)
(0.000114802 -0.000180223 -1.71722e-18)
(0.00941957 -0.000959825 -1.09626e-18)
(0.00941787 -0.00115176 6.8436e-18)
(0.00914588 -0.00100063 6.81818e-18)
(4.54704e-06 7.42384e-05 -4.69428e-18)
(5.70199e-06 8.693e-05 -1.24973e-18)
(5.65029e-06 8.50928e-05 1.48798e-18)
(1.14357e-05 8.81649e-05 1.17887e-18)
(1.30097e-05 9.1285e-05 2.83157e-18)
(1.08493e-05 8.50555e-05 2.57957e-18)
(-1.14917e-06 7.74441e-05 -2.33052e-18)
(4.72882e-05 0.00104733 3.74607e-17)
(9.7986e-05 0.00104935 -5.17847e-17)
(7.3874e-05 0.00100533 6.76416e-17)
(-0.00109262 -0.00277173 1.52622e-18)
(-0.00147233 -0.00263089 -9.04221e-18)
(9.00095e-05 -0.00107633 1.52567e-17)
(1.61522e-05 -0.00103491 1.68293e-17)
(8.35684e-05 -0.00110291 2.46724e-17)
(9.88966e-05 -0.000176497 -5.86458e-19)
(9.48788e-05 -0.000185817 -1.5828e-18)
(1.91388e-05 8.29553e-05 -4.80631e-22)
(1.96954e-05 7.99756e-05 5.39121e-20)
(1.67678e-05 8.28205e-05 -8.87248e-19)
(0.00327509 -0.00105669 5.06759e-17)
(0.00195916 0.000370872 9.5704e-18)
(0.000116315 -0.000501235 -8.08625e-19)
(0.00013103 -0.000479808 2.09732e-18)
(-2.3903e-05 -4.52819e-05 -4.4968e-19)
(-2.1731e-05 -4.48807e-05 -8.05353e-19)
(-0.00510672 1.74927e-05 -9.14344e-18)
(-0.0054288 -4.39521e-05 7.58153e-18)
(-0.00539846 -8.40226e-05 -1.01199e-18)
(0.00034675 -0.000137206 -1.49684e-17)
(0.000370536 -0.000142647 7.1471e-19)
(0.000361984 -0.000163165 1.51751e-18)
(8.0724e-05 -0.00010428 -1.84033e-19)
(7.67372e-05 -0.000104783 2.22278e-19)
(7.8159e-05 -0.000101617 -5.18207e-19)
(0.000152552 0.00010312 3.63457e-19)
(0.000151872 0.000102734 1.55312e-19)
(0.00015852 9.4552e-05 -1.98476e-18)
(0.0011195 -0.00155433 7.74727e-18)
(0.00377041 7.09224e-05 5.58048e-17)
(3.76841e-05 0.00103218 1.10642e-17)
(1.15468e-05 0.00101612 -8.21713e-18)
(9.68843e-06 0.00105203 8.2079e-17)
(0.000180319 -0.00301978 -2.9274e-18)
(0.00031888 -0.00306047 -7.38271e-18)
(0.00020897 -0.00317808 -3.90855e-18)
(0.000882429 -0.00107183 -5.81992e-18)
(0.000952399 -0.00105303 -3.68023e-18)
(0.000906713 -0.000993219 -1.01714e-17)
(-0.00189789 -0.000178978 -7.29785e-18)
(-0.00200607 -8.90959e-05 -4.81252e-18)
(-0.00183273 -1.24234e-05 -1.73158e-17)
(0.000150557 0.000829896 2.60336e-17)
(0.000153986 0.000802309 -7.19318e-18)
(0.000184174 0.000821727 -5.00557e-19)
(3.47203e-05 -1.32129e-05 1.88598e-20)
(3.4317e-05 -1.79653e-05 -5.62467e-20)
(3.62282e-05 -1.5396e-05 6.98625e-19)
(1.26898e-06 0.000383067 2.23181e-17)
(5.55031e-06 0.00032247 -1.67154e-17)
(-5.04407e-05 0.000359289 -3.4551e-18)
(0.000280171 0.000747867 2.22943e-17)
(0.000276411 0.000702754 7.17345e-17)
(8.29368e-05 -0.000260944 1.59411e-18)
(8.39448e-05 -0.000272909 3.6084e-18)
(7.48905e-05 -0.000272968 2.85831e-18)
(4.44498e-05 -6.11271e-05 1.73098e-19)
(4.23047e-05 -6.16893e-05 6.69197e-21)
(4.42362e-05 -6.45009e-05 -2.27894e-19)
(-0.00191089 0.00105891 2.22655e-17)
(-0.00201508 0.00126164 -2.23173e-17)
(-0.00223258 0.00103602 -8.96434e-18)
(0.000867018 0.000954591 5.72963e-18)
(0.000836028 0.00102818 -6.39931e-18)
(0.000930986 0.000995579 9.54944e-18)
(0.00104041 -0.00138765 -2.38077e-17)
(0.00108663 -0.00132715 2.59676e-17)
(0.000158417 -7.62398e-05 4.59488e-20)
(0.000164439 -7.45958e-05 -5.81161e-20)
(0.000456018 -0.000109118 -1.33973e-17)
(0.000458511 -0.000105525 -1.27167e-17)
(0.000461986 -0.000109926 -2.00588e-18)
(0.00337679 0.000110484 -1.99124e-17)
(0.00338638 5.7908e-05 -4.55589e-17)
(0.00333346 0.0001446 1.59765e-18)
(0.0122125 -3.64888e-05 -1.66474e-17)
(0.0123477 -0.000220474 -1.57015e-17)
(-0.00126425 -0.00108645 -3.43341e-18)
(-0.00125819 -0.00101483 1.00832e-18)
(-0.00134279 -0.00106477 7.1626e-18)
(-0.0018044 0.00089225 2.09415e-17)
(-0.00169148 0.00111891 4.6208e-17)
(1.60801e-05 0.00020894 -7.6879e-18)
(2.33608e-05 0.000203859 -3.36657e-18)
(1.8493e-05 0.000210616 4.38737e-18)
(-9.9845e-05 0.00120293 2.65768e-17)
(-0.000147543 0.00114924 2.68448e-17)
(-5.54528e-05 0.00111939 5.85674e-18)
(4.2988e-05 1.32949e-05 8.71735e-19)
(4.50175e-05 2.02889e-05 -1.12408e-18)
(4.41223e-05 1.66804e-05 -3.17656e-18)
(9.86378e-05 0.00112972 6.21655e-17)
(8.26289e-05 0.0011477 7.3878e-18)
(8.43742e-05 0.00112933 -4.1681e-18)
(0.00868893 -0.00104313 -1.09543e-18)
(0.00898155 -0.00117259 8.04573e-18)
(0.00849228 -0.00138132 -1.04498e-18)
(2.46682e-05 0.000231195 4.4319e-18)
(3.24705e-05 0.00023753 -1.21338e-17)
(3.62265e-05 0.000227667 -9.78663e-18)
(1.68252e-06 3.54528e-05 6.01739e-19)
(1.25809e-06 3.6146e-05 2.18061e-19)
(0.00219944 -0.00295033 1.24511e-17)
(0.00197859 -0.00294108 1.75071e-17)
(0.00565681 -0.00131085 6.57044e-20)
(0.00558405 -0.00162164 1.67665e-18)
(0.00525766 -0.00159352 1.74547e-18)
(0.00019421 0.000555415 -1.33123e-17)
(0.000213538 0.00053965 2.71496e-17)
(2.30238e-05 6.01511e-07 2.34233e-19)
(2.26842e-05 5.66719e-07 -1.86865e-19)
(2.34018e-05 1.60148e-07 -3.4505e-19)
(0.000144339 0.000110569 -2.55589e-18)
(0.000149598 9.96253e-05 1.80558e-18)
(9.11833e-05 -0.000118736 5.91454e-19)
(9.5587e-05 -0.000119583 9.86877e-19)
(9.49382e-05 -0.000119093 3.18489e-19)
(2.24286e-05 2.73678e-07 -4.31287e-19)
(2.62587e-05 4.43848e-07 3.01944e-19)
(-7.67411e-06 -1.43791e-05 6.93729e-19)
(-9.63382e-06 -1.47902e-05 4.11114e-19)
(-8.19207e-06 -1.25923e-05 1.13524e-18)
(2.02806e-05 0.00105472 1.07906e-17)
(0.00636846 -0.00265475 2.22714e-18)
(0.00617743 -0.00259301 -3.35937e-18)
(0.00652777 -0.00238001 -6.15673e-18)
(1.25186e-05 0.000212328 -1.55445e-17)
(1.78052e-05 0.000213364 2.56239e-18)
(8.57218e-05 -0.000124989 1.82956e-18)
(8.59757e-05 -0.000122013 -1.65589e-18)
(1.25662e-06 3.91931e-05 -1.58107e-18)
(8.70112e-07 2.53343e-05 -1.78338e-18)
(0.000382521 0.00294121 -1.67702e-17)
(0.000501074 0.00312351 -1.44136e-18)
(-0.000111638 0.00281955 -1.80741e-17)
(0.0102512 -0.00596493 -4.92975e-18)
(0.0100335 -0.00577583 -4.27546e-18)
(0.000457534 -9.20936e-05 1.67772e-18)
(0.000452522 -8.78935e-05 -2.25551e-19)
(0.000161979 0.000860498 2.31136e-17)
(0.000149263 0.000850075 4.2188e-17)
(5.54159e-07 5.05386e-05 3.46578e-18)
(-6.3383e-07 4.34746e-05 1.37793e-18)
(1.16718e-05 0.000234366 3.84669e-18)
(1.54895e-05 0.000226834 9.20389e-18)
(-0.00445067 -0.00451188 9.20944e-19)
(-0.00455717 -0.00423655 3.05589e-18)
(-0.00339628 -0.00418739 -7.38694e-19)
(2.57617e-05 -7.16045e-05 -1.9422e-18)
(2.90416e-05 -7.5141e-05 9.20299e-20)
(2.80474e-05 -7.21199e-05 -2.15964e-18)
(5.21331e-05 0.000202581 1.41486e-18)
(6.0267e-05 0.000192971 -5.62159e-19)
(5.41524e-05 0.000210026 1.09286e-17)
(0.000274654 0.000785203 1.1416e-17)
(0.000274728 0.000815179 -3.93415e-18)
(0.000301418 0.000800392 5.77558e-18)
(-3.66534e-07 6.57471e-05 8.73403e-18)
(-2.01137e-06 7.61753e-05 -1.93051e-18)
(-0.000913918 -0.00111493 -6.83614e-18)
(-0.000998272 -0.000698687 -1.02047e-17)
(-0.00127527 -0.000781005 -1.08146e-17)
(0.000956451 0.00116735 -9.61768e-20)
(0.000930791 0.00108735 -1.03644e-18)
(0.000862 0.00113387 4.13568e-18)
(2.84306e-05 0.000219927 -1.5964e-18)
(2.16163e-05 0.000217926 5.48931e-18)
(1.75358e-05 -6.06422e-05 -9.94548e-19)
(2.02643e-05 -6.43091e-05 -3.15438e-19)
(2.00219e-05 -6.10727e-05 -1.71387e-19)
(0.000354469 -7.66761e-05 -3.23845e-18)
(0.000349421 -7.22217e-05 -1.9664e-18)
(0.00036288 -6.88566e-05 2.77201e-19)
(0.000124751 -0.00150154 1.44999e-18)
(0.000146861 -0.00157035 1.05651e-17)
(0.000188269 -0.00148967 -1.53739e-18)
(-1.98167e-06 0.00120136 -1.24065e-17)
(-2.49365e-05 0.00114702 4.53866e-18)
(-0.000738719 -0.00209775 1.14431e-17)
(-0.000706326 -0.00220097 -5.76691e-18)
(-0.000828332 -0.0021468 5.38964e-18)
(0.000517788 7.18586e-05 3.11737e-19)
(0.000508271 6.40697e-05 3.46997e-19)
(0.000522036 5.48893e-05 -2.86253e-18)
(0.000319979 -0.000168489 -4.01797e-18)
(0.000317636 -0.000159464 1.4581e-18)
(0.000309367 -0.000166079 -3.49596e-18)
(-0.000451164 -0.000280346 3.02551e-17)
(-0.000538811 -0.000241877 -1.851e-17)
(-0.000603758 -0.000255872 1.17965e-17)
(0.000438086 -3.37042e-05 1.50909e-19)
(0.000428158 -3.83761e-05 2.51885e-18)
(0.00227531 -0.0074322 3.42717e-18)
(0.00153094 -0.00745339 6.32812e-18)
(0.000961604 -0.00717901 2.97746e-18)
(-0.00660058 -0.000334909 -3.86034e-17)
(-0.00626408 -0.00026086 -2.99482e-17)
(0.000630482 0.00294963 6.67197e-18)
(-0.000393356 0.00324408 -1.81807e-17)
(0.000109091 0.000171213 2.2725e-18)
(0.000113582 0.00017122 1.19319e-17)
(0.000104683 0.000177505 1.26634e-18)
(-6.01576e-05 0.000483598 1.20562e-18)
(-5.78401e-05 0.00048812 2.22249e-17)
(-5.86411e-05 0.000501753 8.90482e-18)
(5.69751e-06 7.59974e-05 -4.83128e-19)
(5.81812e-06 7.21673e-05 -9.17766e-20)
(3.5813e-06 6.3022e-05 -1.70156e-18)
(2.06678e-05 -0.0030057 9.03314e-18)
(0.000139974 -0.00288717 6.39005e-18)
(-0.00126155 -0.00117905 -1.37019e-18)
(-0.00119224 -0.00111637 6.37546e-18)
(-0.00182315 -0.00025164 9.74235e-18)
(-0.0019626 -0.000323786 3.63345e-18)
(9.05311e-05 -0.000252541 -4.38544e-18)
(8.14792e-05 -0.000251133 -3.56461e-18)
(0.000569771 -0.00136429 1.43193e-18)
(0.000512117 -0.00141551 -2.39554e-18)
(0.00058885 -0.00144924 6.3433e-18)
(5.72783e-05 -0.000102585 3.45368e-18)
(6.08703e-05 -0.000105374 -4.96812e-19)
(6.25007e-05 -0.000104693 2.26074e-18)
(-2.05744e-05 0.000379394 4.01607e-17)
(-7.74782e-06 0.000401937 1.7955e-17)
(0.000524709 1.65921e-05 3.36318e-18)
(0.000514767 2.92133e-05 1.36225e-18)
(0.000510592 1.19384e-05 1.37178e-18)
(0.00340685 -0.000480032 -8.86636e-18)
(0.00342473 -0.00044338 -1.03046e-18)
(0.0034291 -0.000464101 2.01863e-17)
(-0.00128443 -0.000777557 -2.57791e-18)
(-0.00137974 -0.000759088 -7.96433e-19)
(-0.00133597 -0.000855006 2.39528e-18)
(0.000183399 -5.70672e-05 -1.08364e-18)
(0.000187753 -5.56006e-05 1.70364e-19)
(0.000182589 -4.99691e-05 -4.93106e-19)
(0.00168789 -0.0036664 -2.12046e-18)
(0.00129829 -0.00328157 -6.5465e-18)
(0.00161545 -0.00376483 -1.65756e-17)
(0.000561972 0.000109263 8.28481e-20)
(0.00057823 0.000121066 1.85281e-19)
(0.000579696 0.00010105 7.24885e-20)
(0.00670037 -0.0026973 -5.52829e-19)
(0.00634531 -0.00297365 5.80942e-18)
(0.00011554 0.0011151 1.12027e-16)
(9.96801e-05 0.00110236 2.07085e-17)
(-0.0005555 -0.00147682 3.18369e-18)
(-0.000675845 -0.00156008 -4.17076e-18)
(9.66798e-05 -7.43756e-06 -7.32456e-20)
(9.84224e-05 -1.76197e-05 -3.82082e-19)
(9.94504e-05 -5.71794e-06 -3.55308e-19)
(0.000320364 -0.000132494 -3.14735e-17)
(0.000337814 -0.00011392 9.55273e-18)
(0.00045163 -0.000114095 -4.63429e-18)
(0.000450338 -0.000115155 -5.89843e-19)
(2.44259e-05 -7.08542e-05 8.27607e-19)
(2.26396e-05 -6.8764e-05 -4.46694e-19)
(1.9132e-05 8.45097e-05 1.31288e-18)
(2.14041e-05 8.03523e-05 2.10548e-18)
(0.000290719 0.000185705 7.0333e-18)
(0.0002798 0.000193906 -2.50736e-19)
(0.000279192 0.000178746 -1.20685e-18)
(0.00939422 -0.00270258 -1.0129e-18)
(0.00942192 -0.00291874 2.33459e-18)
(-0.000239079 -0.000392657 2.15696e-17)
(-0.000332992 -0.000409881 -1.54776e-17)
(-0.000297984 -0.000487901 2.10272e-17)
(-0.000393913 -0.000278852 4.14782e-17)
(-0.000179987 -0.000234884 3.60539e-17)
(0.0004682 -0.000360636 7.38357e-18)
(0.000464757 -0.000338977 -9.12685e-18)
(0.000484011 -0.000349656 -8.53405e-18)
(-0.00206924 -0.00124327 1.13279e-18)
(-0.00204427 -0.00111979 7.6683e-18)
(-0.00217607 -0.00121465 4.15636e-19)
(-0.00112443 -0.00564267 -2.99761e-18)
(-0.00173068 -0.00581041 2.21822e-18)
(-0.00138363 -0.00593709 -2.93802e-18)
(0.000282354 -0.0011582 -2.0882e-17)
(0.000147423 -0.00108275 -1.28626e-18)
(0.000133214 -0.000750948 -2.09596e-17)
(6.53626e-05 -0.000706473 -1.68598e-17)
(3.75428e-05 -0.000803272 1.43117e-17)
(3.23257e-05 3.61821e-05 9.56324e-19)
(3.20922e-05 4.51721e-05 2.86305e-19)
(3.14536e-05 4.87725e-05 -1.60082e-18)
(3.3549e-05 0.000842294 5.45826e-17)
(9.17767e-05 0.00085082 -2.88303e-17)
(4.9219e-05 0.000883723 -3.51463e-17)
(6.98112e-05 0.000463186 1.13034e-17)
(8.40482e-05 0.000472851 -1.45048e-17)
(2.26069e-05 -1.91241e-06 -9.48397e-20)
(2.43021e-05 -2.01697e-06 1.56132e-19)
(8.38699e-05 -0.000103823 1.85593e-19)
(8.33555e-05 -0.000106205 5.06035e-19)
(0.000910691 0.000827191 4.34759e-19)
(0.0008643 0.000779913 -5.63199e-18)
(0.000927099 0.000757977 -6.90594e-19)
(0.00149161 0.00181375 5.37815e-18)
(8.70619e-05 0.000273047 -8.85468e-18)
(0.00333714 -2.41862e-05 8.01165e-18)
(-0.000103336 -0.000602972 -3.85147e-18)
(-0.000107478 -0.000620659 3.67337e-18)
(-8.76054e-05 -0.000612396 -2.43674e-18)
(2.32396e-05 -1.16935e-06 5.22853e-19)
(2.2783e-05 -3.56182e-07 5.357e-19)
(0.000361266 -0.0014067 -8.81005e-19)
(0.000345657 -0.00134238 1.74689e-17)
(0.000416882 -0.00135631 5.5184e-18)
(7.03022e-05 -0.00152248 1.598e-18)
(9.29026e-05 -0.00145274 2.11149e-18)
(-0.00436175 0.000351289 2.67127e-19)
(-0.00417751 0.000359358 -6.88775e-19)
(0.00448581 0.0014436 -7.59036e-18)
(0.00480454 0.00114706 -3.57046e-18)
(0.0051443 0.0011807 7.84519e-18)
(2.99234e-05 4.97835e-05 3.76402e-18)
(2.96826e-05 5.70175e-05 7.37074e-19)
(9.64425e-05 0.000129803 -1.12322e-19)
(9.99302e-05 0.000120543 -2.87108e-18)
(0.000842297 -0.00106488 -7.84424e-18)
(0.000842689 -0.00111641 2.51684e-17)
(0.00950789 -0.00403816 5.944e-18)
(0.0103545 -0.00393688 1.39594e-18)
(0.0101549 -0.00415242 8.31426e-18)
(5.39812e-05 0.000202346 4.33839e-18)
(6.22846e-05 0.000202251 1.30257e-18)
(0.00802623 -0.00443167 -1.50599e-18)
(0.00777152 -0.00452498 -4.68883e-18)
(0.00881284 -0.00459048 -3.748e-19)
(-0.00456233 7.0821e-05 1.95169e-19)
(-0.00434438 0.000219085 1.9946e-17)
(-0.00474104 5.62866e-05 -8.799e-18)
(-0.00196572 -0.00130847 -1.56144e-18)
(-0.0020836 -0.001394 -1.19323e-17)
(4.69689e-05 -5.62113e-05 2.41259e-19)
(4.78949e-05 -6.23064e-05 -2.09526e-19)
(0.00036287 0.00113072 1.85152e-17)
(0.000408767 0.00115217 -7.43159e-18)
(0.000350185 0.00118871 -5.15527e-17)
(0.000660826 -0.00111339 -1.32028e-18)
(0.000739435 -0.00107713 1.09426e-17)
(0.000660578 -0.0010299 3.11386e-19)
(0.00232038 -2.38077e-05 -1.11617e-17)
(0.0024727 0.000107586 6.33612e-17)
(0.00223855 5.34719e-05 -2.96566e-17)
(5.78653e-05 6.56894e-05 -2.36531e-18)
(6.03841e-05 6.75302e-05 -5.87471e-19)
(6.09614e-05 7.20781e-05 -1.10763e-18)
(0.00332557 -0.00131544 -2.09978e-17)
(0.00335533 -0.00121462 -2.65153e-17)
(9.51713e-05 4.61844e-06 1.0743e-18)
(9.3994e-05 -5.73918e-06 6.36411e-19)
(0.0005279 0.000161565 1.14673e-17)
(0.000562866 0.000139799 -2.73181e-18)
(0.000528614 0.000126334 2.01087e-18)
(2.80499e-05 1.73362e-06 -1.26362e-20)
(2.8225e-05 1.32296e-06 -4.02889e-20)
(-0.00340213 -0.00201923 1.30171e-18)
(-0.00358851 -0.00182467 -3.09901e-18)
(-0.00326838 -0.00200397 -3.99656e-19)
(-0.0020913 0.00142366 -1.52503e-17)
(-0.0021666 0.00156605 1.55532e-17)
(-0.00244901 0.00139195 1.34651e-17)
(0.000277334 2.61479e-05 -3.74177e-18)
(0.000276157 1.47061e-05 -2.99032e-19)
(0.00176349 0.000492536 -7.08329e-18)
(0.00117455 0.000501929 -5.77712e-17)
(0.00206609 0.000606654 5.61363e-18)
(0.000329653 -0.000172683 1.41253e-19)
(0.000319553 -0.000179179 3.41585e-18)
(4.74564e-05 -5.091e-05 -3.26606e-20)
(4.57746e-05 -5.1996e-05 -2.64297e-19)
(-0.00553838 -0.00381892 -8.62312e-18)
(-0.00661445 -0.00396296 -2.73363e-18)
(-0.00122507 -0.000706532 2.16454e-18)
(-0.00119995 -0.000803352 -6.77317e-18)
(0.000451611 -0.000371069 1.548e-17)
(0.000469088 -0.00038338 4.6278e-18)
(0.0106106 -0.00574362 -3.20349e-18)
(0.0102305 -0.0055986 -2.61891e-18)
(0.0108635 -0.00564561 -2.47336e-18)
(-0.00439639 3.61812e-05 4.08706e-18)
(-0.00459385 -0.000102877 -4.97967e-18)
(2.5217e-05 -1.67869e-05 1.12221e-19)
(2.36408e-05 -1.85895e-05 -2.83817e-19)
(2.39299e-05 -1.59928e-05 1.42219e-19)
(0.000349881 -9.82006e-05 4.50171e-19)
(0.00035545 -9.07888e-05 -4.48945e-18)
(-0.00475619 0.000143728 1.5101e-17)
(-0.0047114 6.52732e-05 -1.64257e-17)
(-0.000463718 -0.00066556 -3.72971e-18)
(-0.000494679 -0.000636765 1.48628e-17)
(-0.000502957 -0.000629518 2.11808e-17)
(6.06835e-06 7.75835e-05 5.42397e-19)
(7.52589e-06 8.60615e-05 -4.61352e-19)
(3.53079e-05 1.85099e-05 2.38375e-19)
(3.64067e-05 2.18693e-05 2.04242e-19)
(3.61594e-05 2.071e-05 1.61904e-20)
(0.0112131 0.000223319 1.18706e-17)
(0.011086 0.000332856 2.11308e-18)
(0.00068235 -0.00326458 3.02232e-18)
(0.000530606 -0.00327546 -4.20017e-18)
(0.000610489 -0.00343266 -1.50893e-18)
(1.19848e-06 2.89148e-06 -6.49414e-20)
(5.25403e-07 2.13552e-06 3.58826e-19)
(1.1549e-06 3.61832e-06 1.06582e-18)
(-0.00440563 -0.00275419 2.74602e-18)
(-0.00436583 -0.00240894 8.7195e-19)
(-0.00359631 -0.00264423 6.81901e-18)
(0.00137106 -0.000185053 2.76215e-18)
(0.00142426 -0.000263143 -6.1438e-18)
(0.00133128 -0.000276053 -1.67236e-17)
(-6.55209e-05 0.000471439 -2.19e-17)
(-7.43543e-05 0.000485626 -2.66655e-17)
(0.000419558 -0.000103758 -3.26858e-18)
(0.00042627 -0.000102293 -5.24776e-18)
(0.000421865 -0.000108559 6.89887e-18)
(6.36304e-06 8.18741e-05 -1.69354e-19)
(6.35108e-06 7.12234e-05 8.92532e-20)
(0.000558305 0.000199305 6.99248e-19)
(0.000538955 0.000183884 1.85646e-18)
(0.000536262 0.000212447 -4.25991e-19)
(-0.00537488 1.19132e-05 -6.75814e-18)
(-0.00551516 -3.05144e-05 -1.69981e-17)
(-0.00569103 -0.000135664 6.23044e-18)
(-7.22518e-05 -0.000217898 -6.49542e-19)
(-8.0275e-05 -0.000224138 1.65207e-18)
(-7.50267e-05 -0.000227459 -3.98462e-19)
(0.000246129 -0.000237417 -1.43712e-17)
(0.000288265 -0.000244831 -7.22912e-18)
(0.00027152 -0.000201627 -6.71121e-18)
(0.000183166 0.00088796 2.76568e-17)
(0.000231184 0.000877065 -2.9131e-18)
(0.000218025 0.000931348 4.07348e-17)
(8.82308e-05 -0.000115915 -4.35505e-19)
(8.65692e-05 -0.000115855 -9.91134e-20)
(8.79753e-05 0.000131286 -1.08147e-18)
(8.86272e-05 0.000134948 -5.80675e-19)
(-0.000591258 -0.00171351 1.77564e-18)
(-0.000601123 -0.0017879 1.61202e-18)
(-0.000665637 -0.00173238 -4.65841e-18)
(0.0114179 0.0003847 1.01163e-18)
(0.0114576 0.00028598 3.66233e-18)
(0.0116185 0.000261862 1.3724e-18)
(-0.000765559 -0.00201751 -7.33257e-19)
(-0.000653176 -0.00205343 -2.48593e-18)
(0.000303356 0.000181052 6.6803e-18)
(0.000301538 0.000201409 -6.07755e-18)
(0.000277128 8.12915e-05 -1.45558e-18)
(0.000268222 8.96666e-05 1.313e-18)
(1.13404e-06 6.25795e-06 4.35652e-19)
(1.0627e-06 5.42454e-06 -4.58743e-20)
(3.7638e-07 3.51317e-06 1.07964e-18)
(0.00569234 -0.00102096 2.53197e-18)
(0.00603201 -0.00106472 -2.20297e-18)
(-0.00394937 0.00257494 9.99098e-18)
(-0.00410332 0.00266513 1.61914e-18)
(-0.004006 0.00260187 -3.39143e-19)
(-0.00581849 -0.00052043 1.29045e-18)
(-0.00629541 -0.000688738 9.6985e-18)
(-0.00699234 -0.000352636 2.83846e-19)
(4.92658e-05 -4.56103e-05 -6.51662e-19)
(4.9634e-05 -5.18301e-05 -5.18753e-19)
(-0.00144277 0.000613629 -3.20868e-17)
(-0.00125133 0.000855937 1.1452e-17)
(-0.00106338 0.000790264 -1.97657e-17)
(-0.00272515 -0.000887556 -8.19204e-19)
(-0.00243295 -0.000891166 3.33038e-18)
(-0.00242525 -0.000656282 3.05471e-18)
(0.00375611 -0.00740472 -2.89469e-18)
(0.00330615 -0.00736704 1.66714e-17)
(0.00948206 -0.000778293 -3.997e-18)
(0.00973085 -0.000913949 2.16754e-19)
(-0.000888478 -0.000634985 -2.33361e-18)
(-0.000813969 -0.000597164 4.51715e-18)
(1.08115e-05 9.37562e-05 -2.6501e-19)
(2.50839e-05 1.24419e-06 1.08801e-19)
(2.36448e-05 9.70452e-07 7.37907e-19)
(2.44988e-05 2.60213e-06 3.95671e-19)
(0.000768065 -0.000659558 2.06652e-18)
(0.000728593 -0.000677307 -8.35035e-18)
(0.000767083 -0.000711278 -7.76298e-18)
(-0.00492282 -0.00128976 -1.90801e-17)
(-0.00498373 -0.00122149 1.45528e-18)
(-0.00515703 -0.00111389 5.37229e-18)
(0.00190863 -0.00153546 -3.89836e-18)
(0.00195049 -0.00140352 1.02781e-18)
(0.00206661 -0.00154053 -1.63821e-17)
(0.000225092 -0.000203617 -8.27889e-19)
(0.000225835 -0.000215196 1.2298e-18)
(0.00390663 0.00176955 -1.03973e-17)
(0.00223154 0.001492 -3.16465e-17)
(-0.000677023 -0.000933113 3.74776e-18)
(-0.000675976 -0.000917941 6.40963e-18)
(-1.01411e-05 -9.56443e-06 -4.44389e-19)
(-8.78684e-06 -1.11149e-05 4.22546e-19)
(-1.09929e-05 -1.15942e-05 -6.3805e-20)
(-0.000795212 0.000679605 -9.57561e-18)
(-0.000922021 0.000842543 2.0757e-18)
(-0.000735161 0.000590875 1.30343e-17)
(2.90707e-05 7.82813e-06 -4.33579e-19)
(2.84519e-05 7.55961e-06 -6.8675e-19)
(2.82472e-05 1.33302e-05 -1.55917e-18)
(0.00199682 -0.00400704 1.24871e-17)
(0.00180341 -0.0034988 -8.99254e-19)
(-9.63357e-05 -0.000579972 1.94249e-18)
(-0.000118029 -0.000588752 2.78628e-18)
(1.30809e-06 2.24141e-06 -3.833e-19)
(2.05512e-06 3.5907e-06 -1.85379e-19)
(0.000315669 2.70748e-05 1.84314e-18)
(0.000327292 3.70764e-05 2.05067e-18)
(0.000312353 3.48068e-05 -2.16674e-18)
(0.000534396 7.85611e-05 1.33452e-19)
(0.000517292 8.35667e-05 4.79088e-19)
(-5.77071e-05 0.000511887 1.1634e-18)
(-4.44634e-05 0.000489487 1.75992e-17)
(-0.00583146 -0.00288764 1.13835e-17)
(-0.00453597 -0.00306721 -2.20869e-18)
(0.000402621 7.94614e-05 8.59344e-19)
(0.000417187 8.7886e-05 3.54456e-19)
(0.000401228 9.27411e-05 -9.09751e-19)
(-1.84113e-05 -0.000196438 -1.30592e-18)
(-1.3081e-05 -0.000196514 1.83158e-18)
(-1.19447e-05 -0.000187389 -5.29488e-19)
(0.000714478 0.0021735 -4.69566e-17)
(0.000584632 0.00191333 -8.266e-18)
(0.000694287 0.00219498 -3.95058e-17)
(0.0106739 -0.00595323 -1.11263e-19)
(0.010312 -0.00574377 5.61797e-18)
(-0.00369016 0.0025657 -6.02596e-18)
(-0.00363263 0.00253421 1.60407e-17)
(5.68869e-05 6.35836e-05 -6.6777e-19)
(5.52854e-05 6.09663e-05 3.00689e-19)
(0.00388997 -0.00678525 -4.4725e-18)