/*--------------------------------*- C++ -*----------------------------------*\
| =========                 |                                                 |
| \\      /  F ield         | OpenFOAM: The Open Source CFD Toolbox           |
|  \\    /   O peration     | Version:  v2012                                 |
|   \\  /    A nd           | Website:  www.openfoam.com                      |
|    \\/     M anipulation  |                                                 |
\*---------------------------------------------------------------------------*/
FoamFile
{
    version     2.0;
    format      ascii;
    class       surfaceScalarField;
    location    "650";
    object      meshPhiCN_0;
}
// * * * * * * * * * * * * * * * * * * * * * * * * * * * * * * * * * * * * * //

dimensions      [0 3 -1 0 0 0 0];
oriented        oriented;


internalField   nonuniform List<scalar> 
20673
(
-0.000427639
-0.000269878
0.000697193
0.000463445
0.000573398
-0.00104166
-0.000346718
0.000109036
0.00023768
-0.00106671
-9.68631e-05
0.00116027
0.00128974
-0.00133031
3.38181e-05
0.000295828
-0.000306113
1.02842e-05
-0.000241074
-8.96035e-05
0.000330676
0.000291502
-0.000234243
-5.72598e-05
0.000278343
-4.99331e-05
-0.000228411
0.000547435
-0.000113908
-0.000433656
0.000394063
1.78425e-05
-0.000411934
0.000550137
-0.000576102
2.58135e-05
-0.000781235
-0.000160409
0.000253952
-9.35424e-05
0.000600639
-0.00101498
0.000413514
-0.000416019
-0.000524258
0.000939012
-0.001279
0.000414777
0.00086033
0.000583931
-2.714e-05
-0.000556978
-0.000121452
0.000671415
-0.000774369
0.000787555
-3.82526e-05
-0.000219263
5.80756e-06
0.000209933
2.56594e-05
-0.000266734
4.97548e-05
-0.000945999
0.000880021
0.00014353
0.00014797
0.00140511
-0.0013192
-9.3874e-05
0.000332395
-0.000197022
-0.000135374
0.000241949
0.000310231
-0.000552194
-9.03752e-05
0.000383619
-0.000293261
-0.00017233
0.000338356
-0.000166029
-3.6505e-05
0.000453507
-0.000417073
-0.000328242
-0.000340446
0.000668397
-0.000470325
-0.000349567
0.000819055
0.000525247
0.000102773
-0.000628091
0.000202552
-0.000835807
0.000633228
-0.000551866
-0.000763626
0.00131117
0.000211972
9.11866e-05
-0.000303167
-0.000818933
0.000852689
0.000267307
-0.000210861
-5.64457e-05
0.000851727
-0.00106942
0.000201416
-0.000213591
1.21754e-05
-0.000116545
-0.000116365
0.000151694
-9.57498e-06
-7.19763e-05
7.90901e-05
-0.000906497
-0.000190416
0.00104351
-0.000467075
0.000432454
3.46085e-05
0.00094537
-0.00124739
0.000295468
0.000837687
-0.000785842
-5.19282e-05
-0.000121597
0.000705308
-0.000636938
0.000365185
0.000271624
-0.000251547
0.000221108
3.0439e-05
1.63757e-05
0.000138895
-0.000209845
0.00100744
-0.000418649
-0.000589835
0.000812839
-0.00120018
0.000386494
-0.000274301
2.27536e-05
0.000789224
-0.000586709
-0.000991965
-0.000290831
0.000529182
0.000310543
-0.000840855
-0.000108122
0.000502149
-0.00123975
-0.000294806
0.00152817
0.00108289
-0.000889721
-0.000195044
-0.000192798
0.00113173
0.000321882
-0.000291652
-3.02333e-05
0.0012857
-0.000827682
6.19943e-05
-0.000876337
7.80676e-05
0.000333185
-3.73575e-05
9.06235e-05
0.000209197
-0.000299824
-7.79468e-05
0.00128148
0.00122218
0.000131843
0.000307105
5.53229e-05
-0.000362451
0.00055146
0.000105576
-0.000657405
1.36899e-05
0.00127027
0.000246414
3.19276e-05
-0.000266526
0.0001798
8.67255e-05
0.00144559
-4.95368e-05
-0.000230683
7.64473e-06
0.000223038
-0.000640133
0.000335466
0.000304534
-0.000192583
0.000215332
-2.27492e-05
0.00128128
-0.00112123
-0.000164027
-0.000255359
-8.42009e-05
0.000339559
-1.38185e-05
-0.000460388
0.000470553
-0.000631723
0.000129276
0.000491566
0.00107535
-0.000300273
0.000307082
-6.80965e-06
0.000181808
8.54983e-05
0.000298649
-0.000276102
-2.25483e-05
0.000870295
0.000406774
-0.000701128
0.000661226
2.46949e-05
-0.000146588
0.000237209
0.000385739
0.000620425
-5.00762e-05
-0.000900248
0.000270039
-0.000207137
-6.29028e-05
-0.000205819
0.000654875
-0.000449155
-0.00150948
0.000496472
0.00100066
0.000463351
-0.00108231
0.000617409
0.000115261
-0.000261851
0.000248291
7.27265e-05
-0.000321018
0.000445763
-5.28708e-05
-0.000392935
0.000306157
-0.000612271
0.000305976
0.000479862
-0.000445922
-3.39792e-05
-0.000258291
-0.000221467
0.000479749
0.000628738
0.000228654
-0.000903401
-0.000395418
0.000703891
-0.000308479
-0.000341596
-0.000125495
0.000506048
-0.00103384
0.000525032
-0.00076073
0.0012221
-0.000485
-0.000142072
-0.000162208
0.000304278
0.000397266
-0.000354301
-4.29734e-05
-0.00043034
-0.0002067
0.00135279
-0.000942236
0.00034493
0.000270772
-0.000615945
0.00028172
-0.000249353
-3.2367e-05
0.000286706
-8.52898e-05
0.000481441
-2.02254e-05
-0.000461298
0.000105937
-0.000248011
-0.000190784
0.000861645
-0.000671031
-0.000268861
0.000173163
9.56987e-05
0.00103021
0.00029045
-0.0013344
-2.1401e-05
-0.000233535
0.000254935
-0.000195683
-4.38506e-05
0.000239534
-0.000837806
0.000182155
0.000655604
0.000200402
-0.000212111
-0.000127895
0.000434974
-0.000243533
0.000155055
8.84782e-05
-0.000508711
0.000418316
0.000102147
-0.000217125
5.99834e-05
-0.000649339
0.00111096
0.00116858
-0.000938087
-0.00023666
-7.41976e-05
0.00011238
-0.000616213
-0.000156665
0.000688554
-5.78218e-05
0.000244494
-4.73253e-05
-0.000197169
-0.00102948
0.000838465
-0.00115264
-0.000100887
-0.000221881
8.43785e-08
-1.80215e-05
0.000291101
-0.000273088
0.000292644
-0.000149117
-0.00066918
0.000241223
0.000105737
-0.000364032
0.00129535
-1.34376e-05
-0.000673358
-0.000164523
-0.000293754
-8.60629e-05
0.000379804
0.000348689
-0.00130329
0.000936429
0.00116593
3.28017e-05
-0.00119987
-1.45684e-06
-0.000360193
0.000361639
0.00119959
2.26027e-05
0.000233254
-0.000348334
0.000115076
-0.000226036
0.000356711
-0.00013068
0.00127269
-0.000460788
0.000297919
-0.00123311
0.000915185
0.000472427
0.000336716
-0.000810009
0.000562516
-0.000577904
1.52088e-05
-0.000129967
-0.000138894
0.000675127
-0.000264319
-0.0004109
-0.000651868
0.000654717
-3.05255e-06
-0.000373498
-0.000535097
0.000907472
0.000322129
-6.85757e-05
-0.000253554
-0.000244967
0.000795979
-0.000398334
0.000140156
0.00025817
-0.000234973
4.23902e-05
0.000266103
-0.000284133
0.000800307
0.000100825
-0.000901671
-0.00043232
0.000631561
-0.000199227
-0.000460018
0.000510734
-5.43587e-05
-6.70893e-05
0.000512801
-0.000113912
0.000595246
0.000472756
7.06663e-06
-0.00049347
0.0009969
0.000313808
0.00024914
-0.000563103
0.00146006
-0.00123661
-0.000234188
-0.00065884
0.00026342
-0.000333232
-0.000334059
0.000667037
5.35787e-05
-0.000219576
0.000165998
0.000340541
-0.000523809
0.000183194
0.00128415
-0.000734628
-0.000552507
-0.000157757
-0.000199766
0.000357519
0.000617653
-0.000537306
-8.04948e-05
-1.98793e-05
0.000264373
-0.000241325
0.000219924
-9.72253e-05
0.000330476
0.00128666
-0.000101062
-0.0011961
-0.000566902
0.000360999
-0.000741836
0.000413278
-0.000938042
0.00126874
-0.000800077
8.5005e-05
2.95215e-05
-0.000667653
0.000637766
0.000206204
0.000126189
0.000413389
-0.000172854
-0.000240555
4.5389e-05
0.000276739
0.000435071
0.000219407
-0.000654833
0.000333261
1.77945e-05
-0.000351088
0.000452844
-0.000263097
-0.000189757
0.000233161
6.54871e-05
5.01761e-05
0.000297124
-0.000347318
-0.000280895
0.00116039
-0.000896083
-0.000396757
0.000398016
-1.26052e-06
-0.000285939
0.000527868
-4.4311e-05
-5.83004e-05
-0.000745416
-0.000774355
-0.000360508
4.56894e-05
0.000314804
6.50063e-05
0.000183539
-0.000248548
0.00104139
-0.000704827
-0.000337968
-0.000133336
0.000108493
-0.000515346
0.000690201
-0.000175066
-8.95509e-05
0.00065187
-8.60248e-05
-0.000180501
-0.000234266
-0.000108218
0.000342476
0.000678795
-0.00123431
-0.00127712
3.19128e-05
0.000652767
-0.000346758
-0.00036115
0.000222832
0.000138316
-0.000110993
0.00127504
-0.000178401
-0.000129795
0.000308195
-0.000207845
0.000280337
-7.24915e-05
0.000514759
-0.000181543
0.000466897
-0.00125001
-0.000226849
0.000353747
-0.0001269
0.000346749
-0.00064973
0.000302786
-0.000242317
0.00025575
-1.34332e-05
1.81935e-05
0.000939629
-0.000967845
0.000262829
5.90493e-05
-0.000278217
0.00155268
-0.00051072
0.000277595
0.000233052
-0.00027527
9.27445e-05
0.000249238
-0.00023028
-1.89582e-05
-9.70017e-05
-0.000175095
0.000272095
-0.000949923
0.000532794
-7.45776e-05
-0.00029691
0.00037148
-0.000862327
0.000487857
-0.000946271
0.00138808
0.000316389
-0.000104425
-0.000182856
0.00052332
0.000670451
-0.000235753
7.58019e-05
-0.000303575
0.000227771
-6.73793e-06
-0.000201107
-0.000232398
-0.000378682
0.000548517
0.000294707
-0.0007658
8.52688e-05
0.00018477
0.000224078
-0.000248753
2.46748e-05
-0.000460632
-8.94649e-06
0.000712904
0.000465842
-0.00120673
-3.52018e-05
0.00022211
0.000124319
0.000271165
-0.000395519
3.29596e-05
1.51432e-07
-3.8419e-05
-0.000329752
-0.00010756
0.000437297
-0.000277655
-0.00024074
0.000518314
8.38715e-05
-0.000516181
0.000546081
-0.000689743
0.00014325
3.35989e-05
0.000468861
-0.000342761
0.000687009
-0.000344449
0.000143855
7.84237e-05
-0.000222279
0.0010285
0.000183975
-0.0012216
-0.000554128
0.000105035
0.000449025
-0.000408991
0.000396406
1.2582e-05
0.0010019
0.000159854
0.00105195
-0.00135234
0.000654181
-0.000394357
-0.000259952
0.000291187
-0.000180143
-0.000111045
0.000248137
0.000426894
0.000536563
-0.000507332
0.0008684
-0.000268536
-6.87775e-05
6.58409e-05
-1.55286e-06
-0.000166093
-7.74404e-05
-0.000374107
0.000251453
0.000122651
0.000432314
-9.16706e-05
-0.000340655
0.000265551
-0.00123447
-0.000275679
0.00018336
9.23191e-05
0.000188328
6.31276e-05
-0.000251456
-0.000313489
-8.48516e-05
8.59769e-06
-0.000263958
-0.000248136
-0.000392102
-0.000606075
0.000185546
-1.07104e-05
-0.000249726
-0.000403685
0.000633458
-0.000229968
0.000281224
-0.000151185
-0.000130039
0.000376573
8.10945e-05
-0.000457716
0.000753198
0.000327748
9.51621e-05
-0.000329437
-0.000414966
0.000717925
0.000538401
-0.000367776
-0.000255605
0.000196594
8.47749e-05
-0.000281373
-0.000754265
0.000757605
-2.7716e-05
0.000142783
-0.000300544
0.00056044
0.000479251
2.65008e-05
-2.48781e-06
0.00100015
-0.000532871
-0.000468006
-0.000488095
-0.000163968
0.000331467
0.000300121
-0.00031724
-1.25228e-05
0.000840304
-0.000310552
-0.000530154
0.000140457
-0.00111445
0.000966401
0.000267769
0.000136126
-0.000403909
0.000269531
-0.000193731
-0.000182243
-0.000191867
-0.00106967
0.0010764
-0.000204573
0.000400753
-0.000196187
-0.000866069
0.00100358
-0.000137214
0.00119779
-0.00106531
-0.000456188
0.00147169
6.40006e-05
-0.00029004
-0.000278462
0.00011427
0.000118986
-0.000298129
-0.000212651
-0.000252902
0.000798506
0.00104743
0.000400719
-0.000575032
5.95071e-05
-0.000756112
0.00122197
-0.00046845
6.85673e-06
-0.000135756
0.000128899
0.00045404
0.000163453
0.000343754
0.000311004
0.00139334
-0.00122234
-0.000184842
0.00139441
-0.0003484
0.00030628
-0.000153475
-0.000152805
-6.39063e-05
-0.000161736
0.000225642
-0.000926423
0.00120516
0.000182034
-2.39777e-05
-0.000227348
-0.000145533
0.000342121
0.00109131
-0.001585
0.000481956
0.000272901
-9.31013e-05
0.0015137
-0.000136842
3.33463e-05
0.000215892
0.000564977
0.000576292
-0.00114655
-0.000130193
0.000414362
-0.000284185
0.00010385
0.000646184
-0.000750677
0.000202964
-0.000232234
2.92698e-05
0.00107037
-0.000270755
0.000463793
-0.0001977
-3.675e-05
-0.000224215
0.000260963
0.000249452
0.00074989
0.000380355
-0.000256065
0.000325816
-2.27662e-05
-0.000303058
0.00129609
-0.000585428
-0.000713999
0.000282043
-0.000208709
-7.33344e-05
-0.000123371
-0.000273389
0.000199451
-1.11232e-05
-0.000399641
-0.000496511
0.000895929
0.000179308
-0.000222403
4.30952e-05
0.000610037
-0.00075476
0.00014396
-0.000293763
7.62789e-05
0.000217483
-0.000352847
0.000316094
0.000545863
-0.000216855
-0.000329039
0.000128716
0.000417113
-8.76693e-05
-0.00025905
-4.12264e-05
-0.000531071
0.00056759
0.000344447
-0.000677915
0.000211267
7.04521e-05
0.00125915
-0.000259377
-0.00100243
-0.000642089
0.00108269
-0.000442321
0.000131189
0.000122762
-0.000361206
6.85943e-07
0.00110059
-0.00145978
0.000355064
0.00019536
0.00025747
-0.000293159
0.000120825
0.000103614
-0.000850764
0.000696461
4.88221e-05
-0.000244506
6.97905e-05
-0.000346317
0.000276516
-0.000789822
1.04295e-05
0.000408602
0.0008732
-0.00130545
-0.00088177
1.95749e-05
-0.000877146
0.00115639
0.000394258
-0.000126503
-0.0002226
-9.27389e-05
0.000315336
0.000263295
-0.000353859
9.05648e-05
8.94051e-05
0.000216874
0.00104411
-0.00153343
0.00047999
-0.000450485
-0.000103694
0.000117526
0.000102118
-0.000219644
0.000738865
-8.32212e-05
-0.000655961
-0.000268006
0.000109394
0.00017183
-0.000259211
0.00102536
-0.000450944
-0.000617605
4.56018e-05
0.000386698
0.0011486
-0.00019922
-0.000972646
0.000339047
-7.62224e-05
-0.00109879
0.000899746
0.000225846
-2.28824e-05
-0.000523156
0.000245426
-0.00102283
0.00108076
-6.03712e-05
-0.000464751
-0.000132561
0.00059147
0.00033926
0.000313338
-0.000378293
-0.000188672
0.000398994
8.7387e-05
-0.000486473
5.83633e-05
-0.000205302
0.000146939
-0.000128863
-0.0001649
-2.61888e-05
-0.000216128
-0.000637028
0.000294101
0.000538776
8.54296e-06
0.000922724
-0.000233648
6.27933e-05
0.000161284
-0.000204669
0.000304453
-9.97854e-05
-0.00167266
0.000638575
0.00102828
0.000274206
0.000189575
-0.00140676
0.000161991
0.00123773
-0.000424514
0.000292852
0.000131644
0.00111054
-0.000550523
0.000464192
-0.000510486
-0.000321531
0.000808532
-0.000488669
-0.000171933
0.000275358
-0.000103426
-0.00091312
0.000589643
0.000146341
0.000144846
0.000228537
-0.000265248
3.67108e-05
0.000307081
-2.03792e-05
-0.00028672
0.000377061
-0.000278436
-9.8627e-05
0.000818084
0.000474785
7.38135e-05
-0.000300664
0.000152846
-0.000307936
0.00116971
-0.00088111
3.60464e-05
-8.1838e-06
0.00126343
0.00137212
-0.000117108
-0.00125985
-0.000367038
0.000330475
-8.39584e-05
5.98356e-06
0.00117047
0.000339923
-0.00151687
-4.14211e-05
0.00117097
0.000296226
9.80169e-05
-0.000340418
0.000323221
-8.35322e-05
0.00026284
0.000339013
-0.000193598
-0.000145417
-0.000251706
0.000233843
1.78625e-05
-0.000281951
0.00033211
0.000284873
-0.000205351
-7.95229e-05
-0.000227184
0.000233662
-6.47836e-06
1.59958e-05
0.000722515
-0.000287698
0.0013215
-0.000341645
0.000462528
-0.000120918
6.62388e-05
0.000783794
0.000396974
0.000372324
-0.000769961
-0.00108153
0.000786211
-0.000319829
-9.74519e-05
-0.0002637
0.000162043
0.000176967
0.000459821
0.000442415
-0.000903211
0.000336203
-0.000463025
0.000126764
0.000642052
-0.00104192
-0.00033774
-0.000733622
0.000612448
-0.000213564
0.00106899
-3.7062e-05
-0.00103427
0.000338002
3.24591e-06
-0.00034126
0.00100643
0.000341964
-0.000144051
-0.000169314
0.000192546
8.03552e-05
0.000218938
-0.000238817
-2.45138e-05
0.000243451
-0.000431453
0.000401893
2.9509e-05
-3.83864e-05
-0.000213319
0.000172989
0.000109054
0.000265794
-0.000113271
-0.000152524
-0.000177685
0.000266209
-8.85246e-05
0.000656452
-0.000584266
-0.000142722
-0.000320935
0.000609111
-0.000288336
-4.75264e-05
0.00111422
0.000299867
0.000991146
-0.00129528
6.62144e-05
-0.000334687
0.000268462
-0.000525447
-0.000225026
-6.97377e-05
0.000203313
0.000653765
-0.000403946
-0.00024997
-0.000794696
0.000388973
0.000405328
6.84838e-05
0.000163306
-0.00023179
0.000686789
-0.00100983
-0.000362172
0.00049727
-0.00013515
0.000264959
-0.000217513
-4.74468e-05
0.000274362
-0.000371678
9.73056e-05
-0.000241973
0.000110985
0.000130988
-0.000338136
-0.000804163
-0.000873542
4.29654e-05
-0.00017569
0.000396771
-0.000642098
0.000184804
0.000790596
-0.000221367
0.000333476
-0.000112111
-3.78729e-05
0.000301169
0.000409121
0.000430733
0.000276778
-8.56517e-05
-0.000191127
0.00096949
-0.000441499
0.000362447
-0.00042958
9.60313e-05
0.000169762
0.000186642
0.000170066
0.000512772
-0.000205725
-0.000362042
6.82764e-05
9.4478e-05
-0.000456694
-0.000531195
-0.000132864
0.000663891
0.000441115
-0.000403884
-3.72653e-05
0.000413721
0.000213003
-0.00062702
0.000338287
7.42635e-05
-0.00041258
3.29126e-05
-0.000344637
0.000631459
-0.000287066
0.000342511
-0.000501144
0.000158562
-0.000167054
-9.07248e-05
0.000170977
0.000140302
-0.000328441
0.00018813
-0.000649115
0.000988641
-0.000340598
-0.000664399
-0.000798131
0.00144281
-0.000337796
0.000734159
4.86476e-05
0.00108583
-0.00113817
0.000242908
-0.000174424
0.000252482
-0.000146546
0.0014211
-0.000341727
0.000177916
0.000275545
-0.000231493
0.000338837
-0.000107347
-1.94159e-05
-0.000207768
-3.75085e-06
5.84614e-05
-0.00013029
-0.000111683
0.000268395
0.000629475
-0.000901132
-6.75319e-05
-0.000308464
0.000375971
-0.00166701
0.000732772
0.000922857
-4.24392e-05
0.000208459
-0.00016602
0.000391082
-7.74256e-05
-0.000313664
0.000866125
-0.000394549
-0.000202486
0.000977908
-0.000778878
0.000170347
0.000114526
0.000111604
0.000301761
0.000122728
0.00010002
-0.000222748
-8.48331e-05
-3.47762e-06
0.000263617
-0.000101015
-0.000162602
-0.000234468
-0.00016295
0.000339246
-0.000176301
0.000531078
-0.00121187
-0.000243708
-3.23938e-05
-0.000141567
0.000311967
-0.000170402
0.000706082
-5.37143e-05
-0.000652682
0.00121102
-0.000824166
0.000867809
0.000285644
-0.00115673
0.000331328
-0.000356924
-6.76048e-05
-0.000339131
3.01315e-05
-0.000460747
0.0013091
-0.000145213
-0.000287503
0.000387854
0.000277502
-0.000468568
-0.000233969
-4.17108e-05
0.000325795
-0.000259591
0.000721728
-0.000167072
-0.000271231
0.000438282
-2.65858e-07
0.000120329
0.000805279
-0.000211495
0.000514444
-0.000178301
-2.18285e-05
0.000276182
-0.000254355
-0.000464865
-0.000262867
0.000727268
-0.00119529
-5.06118e-05
0.00015561
0.00120945
-0.00113512
0.00118663
-5.18226e-05
-0.000308487
0.000278887
-4.57264e-05
-0.000600093
0.000656439
-7.00276e-05
0.00111942
-0.00112867
7.04729e-06
0.000383591
0.000724571
-0.000311183
0.000579552
-0.000476177
-0.00164351
0.000834228
-0.000991067
0.000287561
0.00070142
0.000700192
8.73472e-05
-0.000788457
0.000557673
-0.000215241
0.000317729
8.07732e-06
-0.000339943
0.000118575
-0.00046025
3.4508e-05
-0.000377079
0.000342514
-0.000334196
0.000225969
0.000590003
-0.000246349
0.000290633
0.000930599
-0.00123163
-0.000132435
0.000276291
-3.799e-05
0.000248974
-0.000892492
0.000762362
-0.000960074
0.000195541
-0.000178749
0.000319044
0.000508807
-0.000436852
-7.20139e-05
0.000292726
-0.000161929
-0.000184476
0.000337792
-6.34399e-05
0.000371158
2.69256e-05
-0.000398135
0.000163515
-0.000226852
6.33366e-05
0.000351899
-0.000317442
0.000787228
-0.000303517
-0.000483875
-0.00051485
-0.000280187
0.000388504
-0.000858491
3.5523e-05
-0.000217768
0.000207585
0.000146786
0.000112261
-0.000259048
0.00127137
-0.000270158
-0.000684572
-0.000104952
0.000788842
9.22958e-05
-0.000363545
0.000271518
-0.000162125
0.00014033
8.20735e-05
-0.000293195
-0.000319195
-0.000406939
-2.45526e-05
-0.000989943
0.000464465
-0.000538993
-0.00036678
0.000904197
-0.000991621
-0.000656519
-0.00050147
0.000532129
-3.07259e-05
-0.000343062
0.00118029
-0.000307928
0.000654478
-0.000303259
-0.000140689
0.000287474
0.000224282
-0.000101554
-0.00111553
0.000571491
0.000542149
0.000480954
-0.000118552
-2.18548e-05
0.000412927
0.000936845
-0.000659632
-0.00027787
-0.00048014
0.00134183
-0.000862842
-0.000270555
0.000117729
0.000152826
-0.000182287
-0.000158185
0.000340468
0.000100152
0.000191772
-0.000291927
0.00044718
-0.000393622
-5.35816e-05
4.77649e-05
-0.000730692
-0.000160332
0.000209154
0.000666645
9.26699e-05
0.00012988
0.000564966
0.000162547
-0.000728102
-0.000620721
0.000309065
0.000311554
-0.000202582
0.000727742
0.000548442
-9.50125e-05
-0.00018331
0.000324434
-0.000141125
-4.15641e-05
0.000482642
-0.000814139
0.000428432
0.000385179
0.000263974
-0.000228453
0.000144007
0.000785076
-0.000931476
6.08239e-05
-0.000238508
-0.000447989
-1.88119e-05
-0.000705853
9.50338e-05
0.000114032
-0.000318609
0.000102061
-0.00028435
0.000296197
-0.00033711
4.09122e-05
0.000886549
-0.000744793
0.000696787
0.000583807
3.25629e-05
0.00108433
-0.000661758
0.00024648
-9.57488e-06
0.000215411
0.000257301
0.000351549
-0.000892051
0.000261804
0.000250922
-0.000310641
-0.000958052
-0.000717996
0.000179232
-0.000253814
-0.000294647
0.000510004
0.000304916
0.000135067
-0.000439997
-0.00153545
0.000623131
0.000900977
-0.000343151
0.000400461
-5.73408e-05
-0.00107619
1.62265e-05
0.00021231
-0.000546286
0.000432243
3.61166e-05
0.000472625
-4.68055e-05
-0.000638361
-0.000548696
1.38008e-05
0.00048047
-0.00113089
0.00141226
-0.000301894
-0.00118182
0.000237888
-0.00048068
0.000432076
4.85687e-05
0.000137319
0.000700306
0.000450419
-9.76014e-05
-0.000352836
-0.000149084
0.000207448
-0.000262715
0.000576368
0.000710184
-0.000653823
0.000501433
-0.000175321
-0.000326145
3.28277e-05
0.000263369
0.000125309
0.000222128
-0.000347446
0.00132355
-0.00030458
0.00053081
0.000240964
-0.000771965
-0.0012944
0.000809573
0.000826712
-0.000766416
-6.11556e-05
-0.000883888
-7.15809e-06
-0.000256846
0.000115278
-0.000473729
7.3414e-06
-0.000231907
-0.000580878
0.00087899
-0.000299035
0.000393993
-0.000376176
-9.12423e-05
0.00048855
-0.000397392
-0.000178345
0.000254244
-7.58985e-05
0.000450633
-0.000453919
3.22452e-06
0.00127357
-0.00040954
-0.000161124
-8.38167e-05
0.00024494
-0.000111202
0.000251532
0.000312905
0.000979751
-0.00129874
-0.000355035
0.00111515
-0.000206139
-0.000177433
0.000383564
0.000331896
0.000115255
-0.000107707
0.000484231
-9.16339e-05
8.09816e-05
-4.39628e-06
-0.000880642
0.000674693
7.40553e-05
0.000340287
-0.000132156
-0.00089253
-0.000515633
0.000602908
0.000305107
0.000348911
0.000104718
-0.00125416
-0.000489416
-0.000192901
0.000682111
-0.000194542
-2.27585e-06
-0.00105162
0.00104475
0.00097458
-0.00126263
0.000283536
-0.00013423
-0.000359181
0.000446086
0.000174395
-0.000238302
-0.00024408
2.02819e-05
-0.000496381
0.000955146
0.000216997
-0.000163418
0.00102965
-0.00049994
-0.000531239
-0.000236253
0.000338311
-0.000976179
0.000439951
-0.000404438
0.000507155
-0.000463679
-0.000338504
0.000620095
-0.000281736
-0.00132721
0.000858199
-0.000403018
0.000676604
-0.000273756
-0.00042986
3.90971e-05
0.000324573
-0.000227184
-0.000284173
0.000511292
-0.000625031
0.000890238
3.90856e-05
0.000225872
0.000243055
-0.000119474
-0.000123581
-0.000213083
0.000191253
4.41633e-05
-0.000203953
-0.000669815
0.000325298
0.000264591
0.00041687
0.000176746
-0.000593843
-0.00024097
9.61174e-05
0.000144852
0.000126634
0.000116041
-0.000242676
0.000518416
-0.000545737
0.001055
-0.00149715
0.0004358
-9.86071e-05
0.000394817
-0.000291631
-4.54789e-05
-3.88288e-05
0.000343735
0.000353064
9.73315e-05
0.000329365
-0.000632374
0.000302795
-0.00022089
0.000312841
-9.19522e-05
0.000110586
0.000478625
-0.000589512
0.000458362
0.000259152
0.000451506
-0.000213675
-0.000237863
-0.000311088
0.000356762
-0.000131801
0.000650007
0.00022172
8.363e-05
-0.00030535
-0.000483009
-0.000210708
0.000693487
-0.000480143
0.00110705
-0.000629798
-0.000399701
-0.000221108
0.000797033
-0.000548209
-0.000403084
-0.000930544
0.00131882
-0.000109852
0.000935579
0.000640692
-0.00029601
-0.000512192
0.000848062
0.000981628
-0.00147724
0.000483684
0.000121746
-0.000309658
0.000637897
-0.00032841
-0.00102309
0.000256399
0.000764207
-3.1469e-05
-0.000484262
0.0013171
-0.00026636
0.00126015
-0.000159812
-0.0011066
-0.000245403
-9.24512e-07
2.62768e-05
0.00104082
-0.00106906
0.00120022
-0.00104946
-0.000187842
-0.000921901
0.000577487
0.000343255
-8.11286e-05
0.000442705
-0.000404117
0.000148447
-0.000190886
-0.000443191
-0.000206124
0.000649146
-2.26887e-05
0.000314502
-0.0010508
0.000149528
0.000846479
0.000276311
-0.000288953
6.25256e-06
0.000584441
-7.10936e-05
-0.000513401
-3.07118e-06
-0.000528261
0.00032816
0.00071289
-0.00104115
0.000305564
-0.000314333
8.76504e-06
-0.000156014
0.000510447
-0.000354515
7.10089e-05
0.000268033
-0.000691466
0.000338072
9.28793e-05
-0.000430996
-0.00111658
0.000256959
0.000855559
0.000128512
-0.000229913
9.74031e-05
-0.000208891
0.000434265
0.000136827
-0.000895056
0.000131838
8.64376e-05
-0.000218276
5.41701e-06
0.000264838
0.000108299
-0.000328275
0.000219969
-0.000771252
-0.000151446
0.000218537
-0.000101012
0.000498571
-5.10631e-06
-0.000493593
0.000278123
-0.000434207
0.000454677
-6.07133e-05
-0.000502879
0.00124662
-0.000775966
-1.63267e-05
1.63267e-05
-0.00056479
-2.18188e-05
-0.00115104
0.00117147
0.000609657
-0.00126334
0.000650965
-0.000295169
0.000335416
-4.02518e-05
0.000362796
-0.00110008
0.000899299
-0.000831828
-7.18435e-05
-0.000833793
0.00043319
0.000399797
-0.00118857
0.000830076
0.000325214
-0.000390134
-3.67477e-06
0.000320554
0.000515696
0.000689404
-0.000145879
-9.50907e-05
-0.000444928
-0.000297239
0.000741706
0.000868724
-0.000878623
0.000138971
-0.000340782
0.000164265
0.000107253
-0.000351993
0.000468665
-0.00132667
0.000853484
0.00104254
0.000224889
-1.3754e-05
0.000319314
-0.000129188
-0.000247165
0.000376345
0.000204326
-0.000243715
3.93886e-05
0.000432504
0.000354553
-0.00102987
0.000546887
-0.000647049
0.000356886
-6.9036e-05
-0.000389442
-0.00063153
0.000286653
-0.000698254
-0.000395409
0.00017217
0.000223226
-0.00084091
0.000344258
1.99658e-05
-0.000228675
-0.000421612
0.00112936
-0.000711453
-0.00105399
0.000476666
0.000576226
0.000175778
6.26962e-06
-0.000182048
-0.00146246
4.85896e-05
-0.000813777
0.000163788
-0.000994497
-0.000326314
0.00131401
0.000271678
-0.000273685
-3.71294e-05
0.000642359
-0.000371844
-0.000213311
0.000544788
-0.000822055
-0.00024801
0.00106643
3.88315e-05
-0.000275087
-0.000243384
0.000113784
0.0001296
-0.000540495
-0.000787517
0.000917345
-0.00115683
0.000213519
-0.000399116
0.000540011
-0.000140942
-0.000225904
-9.02071e-05
-4.48986e-06
-0.000211085
-0.000105058
0.000316135
-0.000245737
0.00113571
0.000299966
0.000967708
0.000153332
-0.00113234
0.000442278
-0.00135128
0.000894619
-3.11412e-05
0.0012935
-0.00114873
-0.000152719
-0.000317183
6.50786e-05
0.000531083
-0.000573155
4.1759e-05
0.000254096
-2.29887e-06
-0.000252792
-0.000752904
-0.000261759
0.000971324
-0.00137695
0.000938795
0.000437356
0.00158537
-0.000614323
-0.000983701
-0.000217584
0.00118724
-0.000122197
0.000272666
-0.000150469
-0.000933026
0.00133737
-0.000414574
-0.00141382
0.000481675
0.000916767
-0.000115589
0.000274944
-0.000159357
-0.000171237
-0.000177099
-0.000367916
-0.000446639
-0.000325246
-0.00055394
0.000228196
0.000325633
-0.00098227
0.00062915
0.000351653
0.000357079
-0.00129392
0.000919852
-0.000204482
-0.0005814
0.000177592
0.000163985
-0.00039122
0.000932203
2.01869e-05
-0.00095883
-0.000259141
0.00123214
0.000252445
-0.000125813
0.000843043
-0.00052752
-0.000315913
-0.000266037
8.03148e-05
0.000185722
5.59037e-06
-0.000701462
-0.000244802
8.30656e-05
0.000543615
0.000240308
-0.000784397
-0.000277792
0.00114428
0.000120869
9.9917e-05
-0.000220786
-0.000228046
-2.46703e-05
0.000252717
0.000605513
0.000965887
0.000256221
0.000195245
0.000166172
-0.000418356
-2.71076e-07
0.00128471
-0.000275073
-0.000814931
0.000265034
-8.16744e-05
0.000350179
0.000810107
-0.000411046
-0.000963444
-0.000188218
0.000203485
-0.000772527
0.000567319
-0.000385981
0.000318423
0.00014706
0.000326088
-0.00085173
0.00131884
-0.000480168
-0.000429903
-0.000246742
0.000676613
-0.000669712
0.000639084
1.51008e-05
-0.000176632
0.000461131
0.000525971
-0.00100746
0.000380192
-0.00087405
0.000813308
5.61714e-05
-0.000381357
2.28113e-05
-0.000384744
-0.000203399
-2.38856e-05
0.000227284
-0.000353356
0.00013458
0.000218774
0.000808094
-0.000277534
0.000301104
-0.000231323
0.000157418
7.60401e-05
-0.000233458
0.000999932
0.000388473
-0.000232265
7.19324e-05
-9.06712e-05
-0.000200982
-5.84371e-05
0.000215855
0.000296931
-0.000182384
-0.000114547
-0.000261594
0.000146004
-0.00010014
0.000263655
0.000238436
0.000262964
-0.000906856
0.00118921
-0.000267512
-0.00029141
0.000834523
-0.000287896
8.32264e-05
-0.000921703
0.00143337
0.00140209
-0.000916737
-0.000797229
0.00126129
-3.09396e-05
-0.000751968
7.35151e-06
0.000743455
-0.000510926
-0.000225312
0.000736017
0.000218273
-2.06573e-05
-0.000197616
0.000451638
0.0009388
1.06492e-05
-0.0010496
0.0010365
0.000240162
-0.000124755
-0.000115407
-0.000351302
3.33867e-05
0.000317901
-0.000610074
-0.000766996
0.000621211
0.00087985
-0.000405981
-0.000474564
-0.00136539
0.00094516
0.000414466
2.17173e-05
0.000221337
0.000247128
0.000374108
-0.00066744
-0.000327145
0.000993811
-0.000589625
0.00079144
-0.000134592
-0.000108792
-4.49332e-05
0.000220711
-0.000248252
1.47176e-05
-0.000244292
0.00119966
-0.000295568
0.000407149
0.000442283
-7.11787e-05
0.000202913
-0.000240372
3.74592e-05
7.73482e-05
-0.00035427
-0.000194405
0.000548592
-0.00086232
-0.000844264
-0.000275973
-0.00104362
0.000618662
0.000311316
-0.000512801
-0.000966587
0.000262352
0.000329053
-0.000168322
0.000867715
0.000384982
-0.000274572
-0.000132235
-0.000145329
0.000277564
0.000166916
-0.00046935
0.000302389
-0.00120139
0.00078256
-0.000125002
-0.000159423
-0.000116002
0.000275425
0.000372188
0.000222313
0.000990218
-0.0012145
-0.000179437
0.000265222
-8.57856e-05
-0.0003203
0.00135674
-0.000508024
0.00111476
-0.000466252
-0.00015852
0.000624731
0.000217204
5.95733e-05
-3.52682e-05
-0.000963634
-0.000582713
-0.000160669
-0.000135221
0.000295889
-1.5666e-05
0.000316759
0.000367115
-7.65084e-05
-0.000290616
0.00010188
-0.000400957
0.000299029
0.000264039
-0.000172859
0.000307227
-0.00103258
0.000714233
0.000326854
4.52998e-05
-0.000372175
-0.000945054
0.00116548
0.00143823
-0.000715737
-0.000741193
-0.0013405
0.00085932
0.000120304
-0.000341673
0.000211155
-6.82908e-06
-0.000480116
0.00134149
-0.000875156
0.000249435
-0.00104454
-0.00131458
0.000313624
-0.000335335
0.000991217
-0.00065245
0.000897831
-0.000246148
-0.00121735
0.00119408
-0.000236058
0.00133226
0.000445401
0.000403318
-0.00126695
-0.000536021
-0.000390852
0.000391402
-5.66245e-07
-0.000214338
0.00027922
-6.48823e-05
-0.000329431
0.00132378
-9.34866e-05
0.000447699
-0.000354272
-0.000352243
-0.000764779
-4.94692e-05
0.000257928
4.29975e-05
-0.00020242
-5.49779e-05
-0.000194375
-0.000327438
-0.000226601
-0.000256818
2.87719e-05
0.000169915
-0.000256813
8.4879e-05
0.000396302
4.23981e-05
0.000768133
-0.000458498
0.000423271
0.000220362
-0.000643903
-0.000275242
9.70274e-05
-0.000328522
0.000405665
-0.00034021
-6.54648e-05
0.00035244
-0.000409653
5.71849e-05
0.000313884
-0.000127839
-0.000186048