/*--------------------------------*- C++ -*----------------------------------*\
| =========                 |                                                 |
| \\      /  F ield         | OpenFOAM: The Open Source CFD Toolbox           |
|  \\    /   O peration     | Version:  v2012                                 |
|   \\  /    A nd           | Website:  www.openfoam.com                      |
|    \\/     M anipulation  |                                                 |
\*---------------------------------------------------------------------------*/
FoamFile
{
    version     2.0;
    format      ascii;
    class       surfaceScalarField;
    location    "950";
    object      meshPhiCN_0;
}
// * * * * * * * * * * * * * * * * * * * * * * * * * * * * * * * * * * * * * //

dimensions      [0 3 -1 0 0 0 0];
oriented        oriented;


internalField   nonuniform List<scalar> 
20673
(
-0.000418828
-0.000264314
0.000682848
0.000455214
0.000563241
-0.00102307
-0.000339413
0.000106738
0.000232672
-0.00104622
-9.50112e-05
0.00113811
0.00125937
-0.00129837
3.30335e-05
0.000289595
-0.000299663
1.00676e-05
-0.000235994
-8.77155e-05
0.000323709
0.00028536
-0.000229308
-5.60533e-05
0.000272478
-4.88811e-05
-0.000223598
0.00053602
-0.000111531
-0.000424606
0.000385774
1.74672e-05
-0.000403267
0.000538622
-0.000564037
2.52732e-05
-0.000766152
-0.000157029
0.000248601
-9.15714e-05
0.000588428
-0.000994303
0.000405115
-0.000407694
-0.000513773
0.000920297
-0.00125569
0.000407239
0.000844746
0.000571787
-2.65756e-05
-0.000545385
-0.00011891
0.000657368
-0.000758646
0.000770935
-3.74454e-05
-0.000223873
5.92336e-06
0.000214762
2.51188e-05
-0.000261114
4.93253e-05
-0.000937495
0.000871602
0.000140506
0.000144852
0.00138322
-0.00129826
-9.23888e-05
0.000325392
-0.000192871
-0.000132522
0.000236841
0.000303684
-0.000540535
-8.84706e-05
0.000375537
-0.000287081
-0.0001687
0.000331228
-0.000162531
-3.57401e-05
0.000444005
-0.000408329
-0.000321463
-0.000333418
0.000654616
-0.000460903
-0.000342573
0.000802699
0.000514182
0.000100608
-0.000614852
0.000198204
-0.000817813
0.000619623
-0.000542012
-0.000749911
0.00128811
0.000207508
8.92661e-05
-0.000296782
-0.000812648
0.00084564
0.000261674
-0.000206418
-5.52563e-05
0.00083488
-0.00104821
0.000197172
-0.000209091
1.19189e-05
-0.000116035
-0.000115934
0.000151186
-9.79356e-06
-7.38108e-05
8.06916e-05
-0.000903061
-0.000189761
0.00104028
-0.000457238
0.000423347
3.38797e-05
0.000929805
-0.00122662
0.000290578
0.0008199
-0.000769129
-5.08236e-05
-0.000119068
0.000690652
-0.000623619
0.000357554
0.000265947
-0.000246247
0.000216449
2.97977e-05
1.60694e-05
0.000136492
-0.000206103
0.000987399
-0.000410309
-0.000578071
0.00079525
-0.00117411
0.000378157
-0.000268521
2.22742e-05
0.000772326
-0.000574121
-0.000973794
-0.00028552
0.000518665
0.000304374
-0.000824094
-0.000105848
0.000491588
-0.00121775
-0.00028962
0.00150134
0.00106183
-0.000872334
-0.000191243
-0.000189641
0.00111331
0.000315102
-0.000285508
-2.95964e-05
0.00126291
-0.000812908
6.0688e-05
-0.000859381
7.65539e-05
0.000326165
-3.65704e-05
8.87143e-05
0.00020479
-0.000293508
-7.56249e-05
0.00124406
0.0011899
0.0001283
0.000300647
5.41594e-05
-0.000354828
0.000540134
0.000103406
-0.000643876
1.33594e-05
0.00124068
0.000241222
3.12549e-05
-0.00026091
0.000176012
8.48981e-05
0.00142351
-4.87778e-05
-0.000225822
7.48367e-06
0.000218339
-0.000626702
0.000328429
0.000298146
-0.000188525
0.000210795
-2.22699e-05
0.0012581
-0.00110081
-0.000161052
-0.000249979
-8.24269e-05
0.000332404
-1.40415e-05
-0.000466555
0.000476963
-0.000633032
0.000129427
0.000491895
0.00104372
-0.000293946
0.000300612
-6.66618e-06
0.000177977
8.36968e-05
0.000292358
-0.000270285
-2.20733e-05
0.000854677
0.000399439
-0.000695846
0.000654994
2.45104e-05
-0.0001435
0.000232212
0.000378081
0.000608124
-4.98685e-05
-0.000896255
0.000264349
-0.000202772
-6.15774e-05
-0.00020151
0.000641174
-0.000439753
-0.0014863
0.000488934
0.000985498
0.000454094
-0.00106061
0.000605081
0.000112832
-0.000256334
0.00024306
7.11941e-05
-0.000314254
0.000436399
-5.17601e-05
-0.000384679
0.000299767
-0.000599486
0.00029959
0.00046977
-0.000436543
-3.32645e-05
-0.000252849
-0.000216801
0.000469641
0.000624135
0.000227041
-0.000896415
-0.000387028
0.000688964
-0.00030193
-0.0003344
-0.000122852
0.000496647
-0.00101453
0.000515283
-0.000752086
0.00120862
-0.0004795
-0.000139079
-0.000158791
0.000297868
0.000388898
-0.000346837
-4.20681e-05
-0.000421337
-0.000202376
0.00132828
-0.000925061
0.000337793
0.000265171
-0.000603185
0.000275784
-0.000244099
-3.1685e-05
0.000280664
-8.34927e-05
0.000471337
-1.98008e-05
-0.000451614
0.000103705
-0.000242786
-0.000186658
0.00084309
-0.000656518
-0.000263196
0.000169514
9.36822e-05
0.00101711
0.00028667
-0.00131722
-2.09501e-05
-0.000228614
0.000249564
-0.00019156
-4.29266e-05
0.000234487
-0.000819933
0.000178275
0.000641635
0.000204263
-0.000216574
-0.000125205
0.000425828
-0.000238402
0.000151788
8.66138e-05
-0.000497989
0.000409501
0.000100938
-0.000214624
5.93674e-05
-0.000636371
0.00108886
0.0011493
-0.000922451
-0.000232734
-7.32533e-05
0.000111081
-0.000617387
-0.00015696
0.000690523
-5.66035e-05
0.000239343
-4.63281e-05
-0.000193015
-0.00100712
0.000820329
-0.00113327
-9.92005e-05
-0.000226203
8.6373e-08
-1.7642e-05
0.000284971
-0.000267337
0.000286479
-0.000145975
-0.000655371
0.000236255
0.000103509
-0.000356361
0.00125877
-1.30523e-05
-0.000658967
-0.000161005
-0.000287568
-8.42505e-05
0.000371807
0.000344449
-0.00128719
0.000925128
0.00114152
3.21149e-05
-0.0011746
-1.42615e-06
-0.000352605
0.000354022
0.00116849
2.20114e-05
0.00022834
-0.000340995
0.000112652
-0.000221273
0.000349196
-0.000127927
0.0012453
-0.000450799
0.000294617
-0.00121915
0.000905141
0.000462939
0.00032996
-0.000793698
0.000550787
-0.000565846
1.48917e-05
-0.000127229
-0.000135968
0.000660969
-0.000258775
-0.00040228
-0.000638331
0.000641134
-2.98916e-06
-0.000366049
-0.000524436
0.00088944
0.000315341
-6.71308e-05
-0.000248211
-0.000239939
0.000779665
-0.000389944
0.000137204
0.000252732
-0.000230022
4.1497e-05
0.000260499
-0.000278149
0.000783676
9.87285e-05
-0.000882887
-0.000423181
0.000618212
-0.000195018
-0.000462929
0.000513032
-5.46987e-05
-6.56799e-05
0.000502031
-0.000111522
0.000582759
0.000462815
6.91803e-06
-0.000484295
0.000978475
0.000307264
0.000243945
-0.000551352
0.00143777
-0.00121747
-0.000230582
-0.000644861
0.000257838
-0.000326317
-0.000327129
0.000653214
5.24497e-05
-0.00021495
0.0001625
0.000333391
-0.000512807
0.000179347
0.00126019
-0.000720856
-0.000542164
-0.000154434
-0.000195558
0.000349988
0.000604787
-0.000526104
-7.88169e-05
-1.94604e-05
0.000258803
-0.00023624
0.00021529
-9.51771e-05
0.000323514
0.00126604
-9.94319e-05
-0.00117677
-0.000555027
0.000353441
-0.00072649
0.000404738
-0.00092655
0.00125356
-0.000795548
8.43654e-05
2.89091e-05
-0.000653792
0.000624549
0.00020186
0.00012353
0.000404694
-0.000169218
-0.000235494
4.44326e-05
0.000270908
0.000426148
0.000214908
-0.000641385
0.000326254
1.74203e-05
-0.000343704
0.000443308
-0.000257557
-0.000185761
0.000228249
6.41076e-05
4.91206e-05
0.000290874
-0.000340011
-0.000277959
0.00114957
-0.000887047
-0.000388396
0.000389629
-1.23396e-06
-0.000279902
0.000516729
-4.44632e-05
-5.85006e-05
-0.000733846
-0.000762317
-0.000352916
4.47274e-05
0.000308175
6.36368e-05
0.000179672
-0.000243312
0.00102071
-0.000690782
-0.000331242
-0.000130739
0.000106371
-0.000504608
0.000675831
-0.000171419
-8.76834e-05
0.000638287
-8.42122e-05
-0.000176698
-0.000229333
-0.00010594
0.000335265
0.000666783
-0.001212
-0.00125425
3.13423e-05
0.000639151
-0.00033952
-0.000353541
0.000218137
0.000135401
-0.000108672
0.00124854
-0.000174643
-0.000127061
0.000301702
-0.000203466
0.00027443
-7.0964e-05
0.000503938
-0.000177726
0.000461594
-0.00123543
-0.00022207
0.000346294
-0.000124226
0.00033953
-0.000636194
0.000296483
-0.000237211
0.000250361
-1.31501e-05
1.79314e-05
0.000925997
-0.000953752
0.000257293
5.78055e-05
-0.000273787
0.00152801
-0.000500021
0.000271782
0.000228172
-0.000273831
9.2229e-05
0.000243987
-0.000225428
-1.85587e-05
-9.4958e-05
-0.000171406
0.000266363
-0.000930854
0.000522135
-7.30066e-05
-0.000290655
0.000363655
-0.000845075
0.000478123
-0.000935444
0.00137263
0.000309726
-0.000102226
-0.000179016
0.000512334
0.00065672
-0.000230917
7.42049e-05
-0.000297179
0.000222972
-6.59595e-06
-0.00019687
-0.000232002
-0.000378155
0.000548167
0.000288797
-0.000750414
8.34722e-05
0.000180877
0.000219357
-0.000243512
2.4155e-05
-0.000464331
-9.00323e-06
0.000701732
0.000458678
-0.00118792
-3.44601e-05
0.00021743
0.000121706
0.000265466
-0.000387205
3.15315e-05
1.44789e-07
-3.67533e-05
-0.000322808
-0.000105295
0.000428089
-0.000271835
-0.000235693
0.000507454
8.20977e-05
-0.000505268
0.0005349
-0.000675591
0.000140314
3.37087e-05
0.000470125
-0.000335601
0.000672673
-0.000337254
0.000140824
7.67713e-05
-0.000217595
0.00101252
0.000181096
-0.00120234
-0.000542502
0.000102832
0.000439608
-0.000400374
0.000388055
1.23169e-05
0.000985541
0.000157232
0.00103359
-0.00132849
0.00064049
-0.0003861
-0.000254509
0.000285052
-0.000176347
-0.000108705
0.000242935
0.000417946
0.000525436
-0.000496792
0.000850795
-0.000263075
-6.58783e-05
6.30714e-05
-1.48536e-06
-0.000162593
-7.58087e-05
-0.000366226
0.000246156
0.000120067
0.00042321
-8.97401e-05
-0.000333481
0.000262501
-0.00122003
-0.00026987
0.000179497
9.03739e-05
0.00018436
6.17975e-05
-0.000246157
-0.000306886
-8.30644e-05
8.41654e-06
-0.000258396
-0.00024293
-0.000383874
-0.000608182
0.000184102
-1.06119e-05
-0.000247557
-0.000395288
0.000620292
-0.000225184
0.000275299
-0.000147999
-0.000127299
0.000368667
7.9392e-05
-0.000448104
0.000738622
0.000321387
9.31583e-05
-0.000322499
-0.000406341
0.000703009
0.000540733
-0.000369066
-0.000256494
0.000192453
8.29893e-05
-0.000275446
-0.000738077
0.00074091
-2.70968e-05
0.000139775
-0.000294212
0.000549359
0.000469764
2.53155e-05
-2.37855e-06
0.000979934
-0.000522071
-0.000458538
-0.000477947
-0.000160562
0.000324463
0.000293777
-0.000310559
-1.22591e-05
0.000823013
-0.000304149
-0.000519231
0.000138211
-0.00109648
0.000951021
0.000262133
0.000133261
-0.000395406
0.000263852
-0.000189649
-0.000178403
-0.000187825
-0.00105441
0.0010611
-0.000200264
0.000392313
-0.000192054
-0.000843052
0.000978104
-0.000133468
0.00117872
-0.00104812
-0.00045054
0.00145325
6.26522e-05
-0.000283928
-0.000271094
0.000111347
0.000115714
-0.000291882
-0.000208194
-0.000247729
0.00078219
0.00103171
0.000394671
-0.000563041
5.82669e-05
-0.000741888
0.00119904
-0.000459609
6.71225e-06
-0.000132896
0.000126183
0.00044459
0.000160051
0.000336566
0.000304501
0.00137451
-0.0012055
-0.000182322
0.00137035
-0.000342374
0.000299826
-0.000150241
-0.000149585
-6.25598e-05
-0.000158328
0.000220888
-0.000914116
0.00118932
0.000180761
-2.38087e-05
-0.000225643
-0.000142467
0.000334916
0.00107439
-0.00156017
0.000474481
0.000267151
-9.11395e-05
0.00149366
-0.000135011
3.26437e-05
0.000211343
0.000555003
0.000566118
-0.00112614
-0.000127453
0.000405641
-0.000278203
0.000101727
0.000632988
-0.000735312
0.000198688
-0.000227341
2.86531e-05
0.00104819
-0.000265132
0.000454028
-0.000193537
-3.59758e-05
-0.000219491
0.000255465
0.000244415
0.000734776
0.000372362
-0.000250683
0.000318954
-2.22867e-05
-0.000296674
0.00127202
-0.000574514
-0.000700647
0.0002761
-0.000204311
-7.17892e-05
-0.000120771
-0.000267628
0.000195249
-1.08888e-05
-0.000391129
-0.00048594
0.000876892
0.00017553
-0.000217717
4.21871e-05
0.000597787
-0.000739561
0.000141065
-0.000287573
7.46717e-05
0.000212901
-0.000345413
0.000309435
0.000534382
-0.000212294
-0.000322117
0.000126009
0.000408342
-8.58221e-05
-0.000253592
-4.14609e-05
-0.000532145
0.000570245
0.000337298
-0.000663829
0.000206816
6.89677e-05
0.00123493
-0.000254367
-0.000983021
-0.000629563
0.00106166
-0.000433707
0.000128425
0.000120176
-0.000353599
6.71496e-07
0.0010803
-0.00143272
0.000348502
0.000191247
0.000252049
-0.000286982
0.00011828
0.000102659
-0.000843191
0.000690631
4.77934e-05
-0.000239354
6.83207e-05
-0.000339023
0.000270692
-0.000773335
1.02144e-05
0.000402989
0.000861045
-0.00128723
-0.000856943
1.90631e-05
-0.000867339
0.00114387
0.000385961
-0.00012384
-0.000217911
-9.07852e-05
0.000308693
0.000257748
-0.000346404
8.86567e-05
8.75213e-05
0.000212305
0.00102955
-0.00151164
0.000473189
-0.00044103
-0.000101518
0.000115049
9.99663e-05
-0.000215016
0.000723574
-8.14988e-05
-0.00064237
-0.000262359
0.000107089
0.000168209
-0.00025375
0.00102025
-0.000448409
-0.000614279
4.46415e-05
0.000378555
0.00113359
-0.000196575
-0.000959839
0.000331906
-7.46168e-05
-0.00108068
0.000885088
0.000221088
-2.24003e-05
-0.000512186
0.000240282
-0.00100283
0.00105973
-5.91938e-05
-0.000462133
-0.00013228
0.000590019
0.000332187
0.000306806
-0.000370366
-0.000184718
0.000390651
8.55597e-05
-0.000476295
5.71334e-05
-0.000200976
0.000143843
-0.000126148
-0.000161426
-2.56369e-05
-0.000211574
-0.000623709
0.000287958
0.00052755
8.36491e-06
0.000908207
-0.000229922
6.14705e-05
0.000157886
-0.000200356
0.000298038
-9.76829e-05
-0.0016431
0.000627321
0.00101027
0.000268433
0.000185584
-0.00138448
0.000159456
0.00121861
-0.000415579
0.000286689
0.000128874
0.00109109
-0.000540796
0.000468423
-0.000513421
-0.000315472
0.000793324
-0.000479432
-0.000168311
0.000269557
-0.000101247
-0.000895879
0.000578564
0.000143258
0.000141794
0.000223722
-0.000259659
3.59373e-05
0.000300623
-1.99506e-05
-0.000280689
0.000369117
-0.00027257
-9.65491e-05
0.000802989
0.000465996
7.22584e-05
-0.00029433
0.000149625
-0.000304027
0.00115485
-0.000870276
3.52872e-05
-8.0274e-06
0.00123934
0.00135013
-0.000115236
-0.00123933
-0.000359345
0.000323552
-8.04628e-05
5.7376e-06
0.00115149
0.000334333
-0.00149176
-4.08892e-05
0.00115581
0.000289992
9.59543e-05
-0.000346579
0.000329198
-8.17721e-05
0.000257302
0.000331871
-0.000189519
-0.000142354
-0.000246402
0.000228916
1.74861e-05
-0.00027602
0.000325125
0.000278871
-0.000201024
-7.78474e-05
-0.000222397
0.000228739
-6.34185e-06
1.56649e-05
0.000707582
-0.000283758
0.00130345
-0.000334463
0.000452808
-0.000118377
6.49312e-05
0.000768342
0.000388968
0.000364822
-0.000754402
-0.00106945
0.000777986
-0.000313091
-9.53986e-05
-0.000258144
0.000158629
0.000173239
0.000450583
0.000433519
-0.000885005
0.000329151
-0.000453308
0.000124104
0.000628367
-0.00101966
-0.000331029
-0.000719019
0.000599647
-0.000209098
0.00104882
-3.63627e-05
-0.00101468
0.000330885
3.17756e-06
-0.000334073
0.000988291
0.000335782
-0.000140106
-0.000164921
0.000188489
7.8662e-05
0.000214324
-0.000233785
-2.39973e-05
0.000238321
-0.000422394
0.000393458
2.88896e-05
-3.75775e-05
-0.000208825
0.000169344
0.000106756
0.000260194
-0.000110884
-0.00014931
-0.000173941
0.0002606
-8.66594e-05
0.00065854
-0.000585618
-0.000143091
-0.000314247
0.000596425
-0.000282326
-4.66296e-05
0.00109328
0.000294406
0.000973217
-0.00127162
6.48203e-05
-0.000327639
0.00026281
-0.000514509
-0.000225874
-7.00154e-05
0.000204249
0.000640143
-0.000395524
-0.000244758
-0.000778274
0.000380947
0.000396962
6.70408e-05
0.000159865
-0.000226906
0.000677827
-0.000997056
-0.000354567
0.000486831
-0.000132312
0.000259376
-0.000212929
-4.64471e-05
0.000268585
-0.000363852
9.52569e-05
-0.000236875
0.000108646
0.000128228
-0.000343863
-0.000789908
-0.000857963
4.31935e-05
-0.000176444
0.000388631
-0.000628898
0.000184014
0.000787037
-0.000216703
0.00032645
-0.000109749
-3.70749e-05
0.000294823
0.00040072
0.000421881
0.000270947
-8.38472e-05
-0.0001871
0.000950271
-0.000432717
0.000354833
-0.000420554
9.40079e-05
0.000166186
0.00018271
0.000166483
0.000501989
-0.000201398
-0.000354417
6.68385e-05
9.2494e-05
-0.000447101
-0.000520125
-0.000130096
0.000650067
0.000431845
-0.000395394
-3.64822e-05
0.000405145
0.000208587
-0.000614011
0.000331169
7.27009e-05
-0.000403897
3.22191e-05
-0.000337461
0.000618318
-0.000281087
0.000335339
-0.000490646
0.000155242
-0.000168031
-9.12575e-05
0.000172136
0.000137348
-0.000321525
0.000184169
-0.000636122
0.00096891
-0.000333786
-0.000656465
-0.000788511
0.00142593
-0.00033087
0.000719129
4.7757e-05
0.00106597
-0.00111721
0.000237789
-0.000170749
0.000247163
-0.000143459
0.00139931
-0.000336436
0.000178801
0.000276919
-0.000226615
0.000331698
-0.000105085
-1.90068e-05
-0.00020339
-3.59401e-06
5.5964e-05
-0.000127545
-0.00010933
0.000263513
0.000618037
-0.000884629
-6.61122e-05
-0.000301979
0.000368068
-0.00164035
0.00072118
0.000908254
-4.1545e-05
0.000204067
-0.000162522
0.000382846
-7.57951e-05
-0.000307058
0.000848765
-0.000386613
-0.000198893
0.000960617
-0.000765007
0.000166757
0.000112113
0.000109257
0.000295416
0.000120142
9.79126e-05
-0.000218055
-8.12944e-05
-3.32679e-06
0.000258062
-9.88863e-05
-0.000159176
-0.000229528
-0.000159517
0.000332101
-0.000172588
0.000524781
-0.00119708
-0.000238574
-3.17113e-05
-0.000138584
0.000305394
-0.000166812
0.000691465
-5.2602e-05
-0.000639156
0.00119463
-0.000812975
0.000851948
0.000280408
-0.00113548
0.000324377
-0.000349411
-6.61817e-05
-0.000340119
3.02229e-05
-0.00045424
0.0012909
-0.000143235
-0.000283379
0.000382494
0.000273942
-0.000462276
-0.000229039
-4.08319e-05
0.000318936
-0.000254125
0.000706807
-0.000163557
-0.000265525
0.000429064
-2.63955e-07
0.00011944
0.000799598
-0.00020985
0.000503656
-0.00017456
-2.13686e-05
0.000270363
-0.000248996
-0.00045538
-0.000257507
0.000712457
-0.00117653
-4.98238e-05
0.000153123
0.0011905
-0.0011036
0.00115465
-5.04039e-05
-0.000301989
0.000273012
-4.47631e-05
-0.000591589
0.000645884
-6.8997e-05
0.0010936
-0.00110187
6.8837e-06
0.000375514
0.000709566
-0.000304734
0.000567716
-0.000466429
-0.00161426
0.000819514
-0.000972299
0.000282121
0.0006882
0.000686236
8.56067e-05
-0.000772693
0.000546
-0.000210734
0.000311038
7.90721e-06
-0.00033279
0.000116082
-0.000450574
3.37844e-05
-0.000369169
0.000335332
-0.000327159
0.000221211
0.000577672
-0.000241197
0.000286508
0.000917604
-0.00121428
-0.000129645
0.000270469
-3.69162e-05
0.000244108
-0.000874997
0.00074764
-0.000941446
0.000191768
-0.000174985
0.000312326
0.000498129
-0.00042768
-7.05024e-05
0.000292346
-0.000161702
-0.000184093
0.00033068
-6.21042e-05
0.000363373
2.63609e-05
-0.000389781
0.00016007
-0.000222072
6.20021e-05
0.000344521
-0.000310784
0.000770749
-0.000297158
-0.000473741
-0.000504198
-0.000274393
0.00038495
-0.000850662
3.47746e-05
-0.00021318
0.000203216
0.000143693
0.000109896
-0.00025359
0.00124862
-0.000265312
-0.000670747
-0.000102832
0.000772947
9.03543e-05
-0.000355896
0.000265797
-0.000158709
0.000137373
8.03441e-05
-0.000287069
-0.000312527
-0.000398391
-2.40369e-05
-0.000970085
0.000455185
-0.000528582
-0.000359708
0.0008868
-0.000973907
-0.000644735
-0.000490937
0.000520956
-3.00805e-05
-0.000335835
0.00115266
-0.000301516
0.000640862
-0.00029687
-0.000137725
0.000281417
0.000219556
-9.94142e-05
-0.00109393
0.000560473
0.000531687
0.000470853
-0.000116062
-2.13946e-05
0.000404232
0.000917835
-0.000646212
-0.000272229
-0.00047024
0.00131433
-0.000845028
-0.000264855
0.000115249
0.000149606
-0.000178447
-0.000154852
0.000333296
9.80419e-05
0.000187732
-0.000285776
0.000437776
-0.000385342
-5.24546e-05
4.78584e-05
-0.000731543
-0.000156954
0.000204747
0.000652664
9.25278e-05
0.000129817
0.000553499
0.00015925
-0.000713296
-0.000607719
0.000302594
0.00030503
-0.000198314
0.00071242
0.000536956
-9.30216e-05
-0.000179448
0.000317598
-0.000138152
-4.06907e-05
0.000472502
-0.000797305
0.000419583
0.000377226
0.000258413
-0.00022364
0.000141332
0.000770539
-0.000914126
5.95423e-05
-0.000233483
-0.000452416
-1.90086e-05
-0.000696727
9.36803e-05
0.00011163
-0.000311898
9.99104e-05
-0.000278359
0.000289956
-0.000330007
4.00503e-05
0.000870107
-0.000730899
0.000683833
0.000572969
3.18169e-05
0.00106006
-0.000647997
0.000241357
-9.37314e-06
0.000210882
0.000251892
0.000344747
-0.000874752
0.0002563
0.000245646
-0.000304165
-0.000942622
-0.000706437
0.000175456
-0.000248468
-0.000288453
0.000499284
0.000298496
0.000132223
-0.000430731
-0.00151256
0.000613811
0.000887648
-0.00033594
0.000392048
-5.61359e-05
-0.00105645
1.58846e-05
0.000207836
-0.000534878
0.000423224
3.53587e-05
0.000462711
-4.58602e-05
-0.000625438
-0.00054391
1.36907e-05
0.000476449
-0.00111823
0.00139696
-0.00029856
-0.00116193
0.000233907
-0.00047057
0.000422992
4.75473e-05
0.000134407
0.000685454
0.000440943
-9.55479e-05
-0.000345412
-0.000145943
0.000203076
-0.000257237
0.000564357
0.000703502
-0.000647359
0.000490898
-0.000171637
-0.000319291
3.21361e-05
0.00025782
0.00012267
0.00021745
-0.000340128
0.0013033
-0.000299884
0.000519586
0.000235874
-0.000755619
-0.00127581
0.000797957
0.000809922
-0.000750816
-5.99127e-05
-0.000866555
-7.01797e-06
-0.000251434
0.000112849
-0.000479312
7.41535e-06
-0.000227022
-0.000569093
0.000861197
-0.000292971
0.000385705
-0.000368262
-8.93323e-05
0.000478327
-0.000389071
-0.000174587
0.000248887
-7.42993e-05
0.000441182
-0.000444394
3.15687e-06
0.00125042
-0.000402082
-0.000157729
-8.20506e-05
0.000239779
-0.000108859
0.000246232
0.000307469
0.000962842
-0.00127614
-0.000348169
0.00109371
-0.000201798
-0.000173696
0.000375487
0.000324918
0.000112832
-0.000105445
0.000474068
-8.7884e-05
7.75955e-05
-4.21739e-06
-0.0008649
0.000662717
7.24969e-05
0.000333126
-0.000129567
-0.000875009
-0.000504851
0.000590308
0.000298726
0.000341613
0.000103528
-0.00123965
-0.000479209
-0.000188878
0.000667896
-0.000190443
-2.24066e-06
-0.00103526
0.00102875
0.000956509
-0.00123904
0.000278265
-0.000132198
-0.000353465
0.000439178
0.000170721
-0.00023328
-0.000247678
2.05839e-05
-0.00048642
0.000936028
0.000212425
-0.000159975
0.00100958
-0.000490149
-0.000520846
-0.000231276
0.000331184
-0.000956688
0.000431198
-0.000395916
0.000496474
-0.000456787
-0.000331435
0.000607157
-0.000275853
-0.00131094
0.000847847
-0.000394623
0.000662522
-0.000268055
-0.000426587
3.87851e-05
0.000322271
-0.000222419
-0.000278212
0.000500572
-0.000613641
0.000874144
3.8262e-05
0.000221113
0.000237933
-0.000116956
-0.000120977
-0.000208593
0.000187224
4.42548e-05
-0.000204525
-0.000668622
0.000318503
0.000259066
0.000408234
0.000173083
-0.000581524
-0.000235892
9.40921e-05
0.0001418
0.000123965
0.000113596
-0.000237563
0.000507638
-0.000534381
0.00103701
-0.00147112
0.000428328
-9.65321e-05
0.00038651
-0.000285487
-4.45208e-05
-3.80112e-05
0.000336497
0.000345637
9.52841e-05
0.000322523
-0.000619227
0.000296506
-0.000216236
0.00030625
-9.00149e-05
0.00010831
0.000468771
-0.000577354
0.000448845
0.000253771
0.000442023
-0.000209186
-0.000232867
-0.000304537
0.000349251
-0.000129062
0.000636506
0.000217049
8.18681e-05
-0.000298917
-0.000472973
-0.000206331
0.000679092
-0.000471034
0.00108611
-0.000617809
-0.000391325
-0.000216475
0.000780954
-0.000537119
-0.000397691
-0.000918014
0.00130142
-0.000107623
0.00091662
0.000627449
-0.000289882
-0.000501918
0.000831095
0.000969476
-0.00145858
0.000477575
0.000120986
-0.000303202
0.000624606
-0.000321563
-0.00100388
0.000251604
0.000749947
-3.0811e-05
-0.00047413
0.00129505
-0.000261838
0.00123881
-0.000157119
-0.00108742
-0.000248329
-9.40262e-07
2.57793e-05
0.00102114
-0.00104878
0.00119253
-0.00104222
-0.000186602
-0.000903649
0.000566086
0.000336484
-7.97686e-05
0.000435065
-0.000397001
0.000145319
-0.000186864
-0.000433914
-0.000201809
0.000635565
-2.22107e-05
0.000307875
-0.00104473
0.000148664
0.000842069
0.000273827
-0.000287071
6.20015e-06
0.000572141
-6.95973e-05
-0.000502594
-3.00716e-06
-0.000517244
0.000320996
0.000697324
-0.00101832
0.000299128
-0.000307712
8.58041e-06
-0.000152748
0.000499767
-0.000347093
6.95134e-05
0.000262388
-0.000677406
0.000330975
9.09294e-05
-0.000421946
-0.00109697
0.00025247
0.000840683
0.000130272
-0.000233565
9.85501e-05
-0.000206385
0.000429024
0.000134257
-0.000878147
0.00012906
8.46163e-05
-0.000213677
5.36536e-06
0.000261849
0.000106018
-0.000321361
0.000215336
-0.000755952
-0.00014844
0.000213933
-9.88833e-05
0.000488138
-4.99944e-06
-0.000483255
0.000272302
-0.000425113
0.000445114
-5.9436e-05
-0.000499361
0.00123844
-0.000770486
-1.56115e-05
1.56115e-05
-0.000552961
-2.13113e-05
-0.00112402
0.00114475
0.000597919
-0.00123887
0.000638425
-0.000288952
0.000328352
-3.9404e-05
0.000355983
-0.00107936
0.000879317
-0.000811865
-7.02193e-05
-0.000817069
0.00042452
0.000391802
-0.00117033
0.000817209
0.000320327
-0.000392109
-3.69375e-06
0.000322339
0.000505392
0.00067459
-0.000142805
-9.3087e-05
-0.00043583
-0.000291165
0.000726573
0.000855322
-0.000864867
0.000138667
-0.000339663
0.000160804
0.000104993
-0.000344588
0.000460143
-0.00130249
0.000838039
0.00102398
0.000220867
-1.34643e-05
0.000312588
-0.000126468
-0.00024196
0.00036842
0.000200021
-0.000238579
3.85587e-05
0.000423458
0.000347135
-0.00101026
0.000536536
-0.000645452
0.000356218
-6.93687e-05
-0.000391226
-0.000618372
0.000280685
-0.000683947
-0.000387084
0.000168546
0.000218526
-0.000822984
0.000336937
1.95451e-05
-0.000223857
-0.000414058
0.00110918
-0.000698676
-0.00103261
0.000467027
0.000564576
0.000172075
6.13752e-06
-0.000178212
-0.00143872
4.781e-05
-0.000797443
0.000160507
-0.000977578
-0.000320806
0.00129187
0.000265202
-0.000267137
-3.62047e-05
0.000629092
-0.000364155
-0.000208805
0.000533279
-0.000807414
-0.00024361
0.00104757
3.80134e-05
-0.000269292
-0.000238256
0.000111386
0.00012687
-0.000529174
-0.000776187
0.000909764
-0.00114678
0.000211714
-0.000390724
0.000528659
-0.000137979
-0.000221147
-8.64701e-05
-4.30726e-06
-0.000206641
-0.000102846
0.000309479
-0.000243754
0.00112683
0.000293776
0.000953887
0.000151128
-0.00111588
0.000436183
-0.00133244
0.00088242
-3.04857e-05
0.00127321
-0.00113049
-0.000150307
-0.000310501
6.37078e-05
0.000520157
-0.000561345
4.08999e-05
0.000256177
-2.32267e-06
-0.000254445
-0.000749984
-0.000260811
0.000968191
-0.00134377
0.000916434
0.000427022
0.00156152
-0.000605047
-0.00096884
-0.000213567
0.00116543
-0.000119623
0.00026692
-0.000147298
-0.000918985
0.00131756
-0.000408379
-0.00139521
0.000475437
0.000904983
-0.000113153
0.000269151
-0.000155999
-0.00016763
-0.000173368
-0.000360303
-0.000437395
-0.000318511
-0.000542361
0.000223428
0.00031883
-0.000963031
0.000616876
0.000344785
0.0003526
-0.00127743
0.000908379
-0.000200133
-0.00056901
0.00017385
0.000160545
-0.00038301
0.000911741
1.97254e-05
-0.000936852
-0.000254583
0.00121054
0.000247126
-0.000123162
0.000825753
-0.000516689
-0.000309426
-0.000260431
7.86225e-05
0.000181808
5.63844e-06
-0.000686155
-0.000239643
8.13153e-05
0.000532508
0.000235397
-0.000768345
-0.000272825
0.00112389
0.000118323
9.78119e-05
-0.000216134
-0.000223242
-2.41506e-05
0.000247392
0.000596467
0.000951466
0.000250842
0.000191146
0.000164296
-0.000413307
-2.66852e-07
0.0012648
-0.000273494
-0.00080983
0.00025945
-7.99535e-05
0.000348021
0.000805388
-0.000404412
-0.000951276
-0.000184253
0.000199497
-0.000757326
0.0005562
-0.000377864
0.000311729
0.000143958
0.000319211
-0.000839796
0.00130072
-0.000473481
-0.00042081
-0.000241521
0.000662308
-0.000657961
0.000626937
1.48241e-05
-0.00017291
0.000453876
0.000517613
-0.000991566
0.000374426
-0.000855249
0.000796631
5.50692e-05
-0.000373337
2.22888e-05
-0.000376658
-0.000199113
-2.33823e-05
0.000222495
-0.000345912
0.000131744
0.000214165
0.000791041
-0.000271664
0.000294763
-0.000226451
0.000154101
7.44378e-05
-0.000228539
0.00098286
0.000381781
-0.000227371
7.04167e-05
-8.87612e-05
-0.000196748
-5.72057e-05
0.000211307
0.000290674
-0.000178541
-0.000112134
-0.000256082
0.000142928
-9.80304e-05
0.0002581
0.000233428
0.00025744
-0.000890178
0.00116745
-0.000261875
-0.000285457
0.000817499
-0.00028183
8.14728e-05
-0.000910854
0.0014169
0.00138104
-0.000902792
-0.000782676
0.00123844
-3.04196e-05
-0.000737093
7.20635e-06
0.0007288
-0.000500225
-0.000220594
0.000720616
0.000213674
-2.0222e-05
-0.000193452
0.000444938
0.000924901
1.04191e-05
-0.00102639
0.00101422
0.000235102
-0.000122126
-0.000112975
-0.000343904
3.26838e-05
0.000311208
-0.000595102
-0.000748325
0.000608066
0.00086211
-0.000397782
-0.000464973
-0.00134208
0.000929185
0.000407441
2.12596e-05
0.000216673
0.000241902
0.00036619
-0.000653702
-0.000320416
0.000973414
-0.000578057
0.000775976
-0.000131756
-0.0001065
-4.39864e-05
0.000216061
-0.000243022
1.44075e-05
-0.000240828
0.00118284
-0.000289352
0.000398588
0.000433011
-6.96859e-05
0.000198638
-0.000235308
3.667e-05
7.57185e-05
-0.000346832
-0.000190324
0.000537078
-0.000848672
-0.000829318
-0.00027111
-0.00102487
0.000607605
0.000311977
-0.000513563
-0.000948221
0.000263279
0.000330344
-0.000164963
0.000850459
0.000377068
-0.000268918
-0.000129449
-0.000142268
0.000271716
0.000163408
-0.000459485
0.000296036
-0.00118186
0.000770005
-0.000122378
-0.000156064
-0.000113558
0.000269621
0.000364512
0.000217795
0.000970119
-0.00118967
-0.000175656
0.000259634
-8.39781e-05
-0.000315514
0.00133671
-0.000498264
0.00109346
-0.000456422
-0.000155177
0.000611564
0.000212628
5.83182e-05
-3.42368e-05
-0.000949156
-0.000574051
-0.000157284
-0.000132372
0.000289655
-1.53361e-05
0.000310088
0.000359385
-7.48973e-05
-0.000284496
9.97422e-05
-0.000392542
0.000292755
0.000258478
-0.000169219
0.000302625
-0.00101707
0.000703501
0.000319984
4.43476e-05
-0.00036435
-0.000925779
0.00114188
0.001417
-0.000705357
-0.000730458
-0.0013127
0.000841621
0.000117769
-0.000334474
0.000206706
-6.68518e-06
-0.000473803
0.00132408
-0.000863551
0.000248402
-0.00103986
-0.00129201
0.000308249
-0.000328273
0.00097255
-0.000639269
0.000879733
-0.000241174
-0.00118855
0.00116663
-0.000231718
0.00130784
0.00043604
0.00039763
-0.00124885
-0.000524847
-0.000382625
0.000383164
-5.54325e-07
-0.000209822
0.000273337
-6.35152e-05
-0.000324079
0.00130241
-9.15255e-05
0.000438311
-0.00034684
-0.000345395
-0.000749924
-4.84268e-05
0.000252493
4.20915e-05
-0.000198155
-5.38194e-05
-0.000190279
-0.000320591
-0.000221862
-0.000251407
2.81657e-05
0.000165686
-0.000251402
8.30906e-05
0.000387123
4.13946e-05
0.000752913
-0.000449385
0.000414525
0.00021581
-0.00063058
-0.000269466
9.49832e-05
-0.0003216
0.000397122
-0.000333045
-6.40862e-05
0.000345024
-0.000401031
5.59816e-05
0.000307272