/*--------------------------------*- C++ -*----------------------------------*\
| =========                 |                                                 |
| \\      /  F ield         | OpenFOAM: The Open Source CFD Toolbox           |
|  \\    /   O peration     | Version:  v2012                                 |
|   \\  /    A nd           | Website:  www.openfoam.com                      |
|    \\/     M anipulation  |                                                 |
\*---------------------------------------------------------------------------*/
FoamFile
{
    version     2.0;
    format      ascii;
    class       surfaceScalarField;
    location    "950";
    object      phi;
}
// * * * * * * * * * * * * * * * * * * * * * * * * * * * * * * * * * * * * * //

dimensions      [0 3 -1 0 0 0 0];
oriented        oriented;


internalField   nonuniform List<scalar> 
20673
(
-0.172365
0.161722
0.0106427
0.371542
-0.307127
-0.0644098
0.0203712
-0.0442724
0.0239012
0.153397
-0.278898
0.125504
-0.360082
-0.118052
0.47814
-0.0204071
-0.00213213
0.0225392
0.0309512
-0.0262268
-0.00472434
0.00753455
0.0172955
-0.02483
0.0114741
-0.0221028
0.0106286
-0.0555548
0.157422
-0.101867
-0.107537
0.106749
0.000788407
0.151808
0.00420719
-0.156015
-0.0982799
-0.00110529
-0.000367952
0.00147324
0.204193
-0.0380985
-0.166094
0.241517
-0.242402
0.000885664
-0.10594
0.300687
-0.194744
0.142147
-0.164111
0.0219641
0.152324
-0.000515831
0.336331
0.265548
-0.601856
-0.377787
0.57354
-0.19575
0.0285479
0.00240327
-0.599319
0.333503
0.265832
0.040297
-0.0327625
-0.307526
-0.0605478
0.368082
-0.00383267
0.0286809
-0.0248482
-0.105841
0.0776108
0.0282305
-0.0998048
0.0513425
0.0484623
-0.0650504
0.0521806
0.0128698
-0.148073
0.11046
0.0376131
0.156311
-0.171192
0.0148809
0.195418
-0.20641
0.0109924
-0.0968894
0.137981
-0.0410913
0.174295
-0.0482462
-0.126049
-0.387916
0.361944
0.0259756
0.0896378
-0.109039
0.0194012
-0.367525
-0.231779
-0.00377442
-0.00167516
0.00544958
-0.188508
-0.0547855
-0.0136703
0.000708489
0.0129618
-0.584706
0.594841
-0.0100533
0.685159
-0.391282
-0.293875
0.36873
-0.542135
0.173457
-0.0493471
-0.0184857
0.0678328
-0.171819
-0.156079
0.327905
0.0960081
0.0715682
-0.167576
0.148081
-0.00593443
-0.0178557
-0.112214
0.13007
-0.0033224
0.0100313
-0.00670893
-0.683837
0.439065
0.244827
0.0436407
-0.166274
0.122634
-0.282938
0.0329508
0.249988
-0.00640794
0.00308555
0.0550944
0.1192
0.168008
-0.273945
0.214002
-0.22491
0.0109093
-0.113664
0.00612643
0.270983
-0.35317
0.082193
0.0853027
0.161485
-0.246786
-0.334084
0.16227
-0.0167842
-0.0178954
0.0346796
0.164413
0.207134
-0.00110529
-0.167511
0.503865
0.0155113
-0.0359184
-0.0779858
0.0857041
-0.00771827
-0.51566
0.324933
0.263567
-0.361725
-0.10641
0.104983
0.00142692
-0.161986
0.182063
-0.0200762
-0.52555
0.165472
-0.0138778
0.025352
-2.20935e-05
-0.0045171
0.0045392
0.143969
-0.451486
-0.00733445
-0.00698759
0.014322
-0.0188967
0.146421
-0.127524
0.00517246
0.000378719
-0.00555118
0.0728468
0.192103
-0.264946
0.0304488
-0.0281816
-0.00226723
-0.612357
0.323584
0.288776
-0.328965
0.60182
-0.272845
-0.255776
0.00819024
0.024453
-0.0326432
0.00472505
-0.00849946
0.00236449
0.00335535
-0.00571984
-0.214135
0.286986
0.366448
0.207157
-0.573591
-0.0884316
0.0104458
0.213575
-0.169933
0.520267
-0.151493
-0.00125402
0.00254549
-0.00129147
0.121784
-0.00297642
-0.118807
-0.051259
0.367235
-0.315964
-0.26156
0.0526817
0.20888
-0.0391191
-0.0493126
0.024668
-0.0351723
0.0105043
0.0874983
-0.125873
0.0383744
0.130182
-0.00198696
-0.128195
-0.0657862
-0.0376241
0.10341
0.0519539
-0.0638301
0.0118761
-0.458447
0.563216
-0.104723
0.122328
0.0078542
-0.130182
0.0191729
-0.0685201
-0.273751
0.0734961
0.200257
-0.486281
0.0892464
0.397058
0.0300975
-0.0225358
-0.00756165
-0.00297355
-0.0621351
0.0651087
0.0946286
-0.112484
0.103716
0.196976
0.162323
-0.150623
-0.0116995
0.00260606
0.00623981
-0.00884588
-0.00252784
-0.0111424
-0.112292
0.133352
-0.0210594
0.0273121
0.00278536
-0.274463
0.117099
0.157365
0.00737387
-0.00786971
0.000495839
-0.362471
0.501342
-0.138858
0.0109796
-0.0116521
0.000672503
-0.00620315
0.00803608
-0.00183293
-0.0769761
0.165347
-0.0883705
0.501798
0.183363
-0.097827
-0.00858328
0.00143701
0.00467212
-0.00610913
-0.0558585
-0.0439463
-0.612445
0.123861
0.488639
-0.245917
-0.0156416
0.0997047
0.220352
-0.320051
-0.538072
-0.0743088
-0.496866
0.592635
-0.0956844
0.0225359
0.00719217
-0.0111362
0.00394406
-0.0825406
-0.191922
0.149714
-0.305787
0.204197
-0.581981
-0.12745
0.0654051
0.0620452
0.00678368
0.0335134
-0.0170545
-0.15531
0.0512957
0.000658176
-0.1127
0.437632
0.101585
-0.178561
-0.0962968
0.114414
-0.0181174
0.45405
-0.191864
-0.262168
-0.216131
0.277188
-0.0610561
-0.0714771
0.0247775
0.0466996
-0.06815
0.331717
0.0393088
0.00523193
-0.0445407
0.0177441
0.0432279
-0.060972
0.0183178
-0.301255
0.506864
-0.168258
-0.338587
0.224437
-0.214433
-0.0100038
0.156493
0.00386601
-0.160358
-0.000314871
0.00768874
0.022565
-0.117057
0.0944924
-0.0818385
-0.043545
0.125384
0.21949
-0.214911
-0.00457867
0.00226577
0.00210144
-0.00436721
-0.174464
0.012478
0.0320841
-0.0888845
0.0568004
-0.000696216
0.00586868
-0.0748526
-0.0525977
-0.148414
0.219068
-0.0706533
-0.0855259
-0.00631673
0.0918426
0.240162
0.360542
-0.600701
0.113559
-0.0260605
-0.13639
0.0240977
0.0295821
-0.0953683
-0.203841
-0.0699078
-0.158699
0.155628
0.0030705
0.134216
0.222472
-0.356677
0.025397
0.0969307
0.15001
-0.142617
-0.00739237
0.0163255
-0.00702162
-0.00930387
0.110942
0.00537877
-0.116321
-0.00702142
0.236591
-0.229567
0.0561325
-0.0435121
-0.0126203
-0.0429487
-0.0699318
0.112881
0.0127831
-0.00559091
0.000648491
0.0103311
0.0535099
-0.0142011
-0.259779
0.403419
-0.143629
0.00491051
0.116873
-0.0137306
0.170042
0.300235
0.153832
-0.0924244
0.458885
0.190058
-0.0918079
-0.0982496
0.0310961
-0.0349287
-0.0315001
0.127645
-0.0961447
-0.000206438
0.00247221
0.152638
-0.151636
-0.00100123
-0.107928
0.0989014
0.00902665
-0.0102977
0.076506
-0.0662083
0.000114686
0.0022498
-0.113845
0.0952934
0.0185518
0.625446
-0.277631
-0.347798
-0.0312321
-0.0141246
0.0453566
-0.102023
-0.00381775
0.63793
-0.637826
-0.305467
0.254218
0.00636482
-0.0807832
0.0744184
-0.0881613
0.0880752
8.60728e-05
0.024428
0.177918
-0.202345
-0.341684
-0.342111
0.164637
-0.00166795
-0.162969
0.154985
0.00150803
-0.00587086
0.00584876
-0.0766547
0.104841
-0.0281865
-0.280012
-0.1079
-0.0911693
0.362158
0.00911238
0.12107
0.0146941
0.0277437
-0.0424378
-0.287134
0.0710054
0.033185
-0.0246284
-0.00855654
0.00745089
0.000419462
-0.00787035
-0.00552409
-0.102404
-0.416819
-0.0694404
-0.0581486
0.0414292
0.0167193
0.150289
-0.00602514
-0.144264
0.00968831
0.00384978
-0.0135381
-0.492888
0.292198
0.200699
0.0392507
-0.0560349
-0.397819
0.138052
-0.000851233
0.115871
-0.115019
-0.128992
-0.455647
-0.00478979
0.00052473
0.00426506
0.027914
-0.0208145
-0.00709956
0.0636171
0.177901
-0.119087
0.0184222
0.100664
0.0376178
0.181873
-0.457978
0.0411837
0.00522699
0.0844108
0.125507
-0.0145651
-0.00989039
0.162528
-0.0514474
0.0189577
0.0324897
0.00873979
-0.0012889
-0.595871
0.493464
0.10247
0.194408
0.0010104
-0.000542896
-0.000711119
-0.00325507
-0.00230122
0.0055563
-0.306939
0.547109
-0.46292
0.444396
0.0185519
-0.0151418
0.00124805
-0.119607
0.0958062
0.0238003
0.400384
-0.602372
0.201994
-0.0787278
0.0927054
-0.0139776
-0.146294
0.142326
0.00396802
-0.103251
0.017725
-0.167423
-0.0130498
0.180473
0.583035
-0.222486
0.1399
0.00534442
-0.145244
0.00745436
-0.0080786
0.000624231
-0.28998
0.389183
-0.0991942
0.053159
-0.133632
0.0804735
-0.0376175
-0.0102748
0.0478923
-0.240503
0.340214
-0.282164
-0.0710005
-0.0257237
-0.106975
0.132699
0.0006454
0.0118805
-0.0125259
0.106805
-0.0842402
0.1222
0.0678577
0.0132914
0.190902
0.2405
0.371968
-0.612464
-0.00291662
0.00435363
0.00354568
0.0371083
-0.040654
0.0577917
-0.0910419
0.0332501
-0.383999
-0.0739568
-0.00209867
-0.00575579
0.00785446
-0.000172043
-0.000217547
0.00038959
-0.0408666
0.0729507
0.0304516
-2.80583e-06
-0.12498
0.106084
0.254077
0.475784
-0.665926
0.190218
-0.143584
0.0032811
0.140303
-0.00159273
0.000781821
0.00081091
0.118912
-0.135182
0.0162701
-0.171466
0.25677
-0.107475
0.0308204
-0.146617
-0.015416
-0.0941395
-0.457884
0.552109
-0.0688191
0.0654361
0.00338305
0.254394
0.283294
-0.537664
0.0519732
0.00415926
-0.210937
0.235366
-0.0719707
0.472363
0.0835756
0.112664
-0.196239
0.0491226
-0.130961
0.105649
-0.111966
0.022129
-0.100857
-0.00384847
0.131485
-0.127636
0.379214
-0.0906907
-0.288516
0.0850165
-0.0967347
0.0117182
-0.0253944
-0.026053
0.0239135
-0.0203678
-0.228104
-0.264772
0.0777873
-0.0246026
-0.0531848
-0.485928
0.0180209
0.467906
0.186386
0.192835
-0.476053
0.113596
0.0613512
-0.0436072
-0.059461
0.522279
-0.462773
-0.108045
0.107194
-0.180379
0.012957
-0.266921
0.401149
0.00309123
0.161546
-0.246671
0.0277903
0.218883
-0.00821563
0.00236217
0.00585346
0.0847926
-0.127741
0.125866
-0.128842
-0.277916
-0.107923
0.385852
0.0686875
-0.350846
0.000713541
-0.00874838
0.00803484
0.00513882
-0.00330412
-0.00183471
0.288109
0.213245
-0.394883
0.630222
-0.23527
-0.0605691
-0.00824999
-0.290847
-0.0679515
0.35881
-0.0005584
-0.0039587
0.102624
-0.380524
-0.00470922
-8.05719e-05
-0.334714
0.256245
0.0784737
0.103484
-0.0109043
-0.0925798
0.218308
-0.144526
-0.0737813
0.0173575
-0.0116952
-0.00566232
0.0619287
-0.210342
0.00104953
-0.0759021
-0.051839
0.0110254
0.0408136
0.182117
-0.0985408
-0.062299
-0.0573075
-0.00773197
0.0713194
-0.0635875
0.0550369
-0.280964
0.22593
-0.00400074
-0.00468208
0.00868282
-0.0520851
0.020853
-0.000622382
0.000450338
-0.188581
0.170165
0.0184167
-0.0102278
0.000238251
0.00998953
-0.159916
-0.0580442
0.217961
-0.00122654
0.00369933
-0.00247279
-0.0438854
-0.00795359
0.0720659
-0.0937429
0.021677
0.0942975
-0.0222316
0.0316603
-0.0112891
-0.564045
0.333669
0.230381
0.14408
0.00592992
-0.00523617
0.00784223
-0.179116
0.294132
-0.115013
0.223131
-0.00183899
-0.22129
-0.00106598
0.000698029
-0.065966
0.0723309
-0.214311
-0.0523318
0.266646
-0.0827272
0.0724295
-0.0369043
-0.0281461
-0.605137
0.326833
0.278354
-0.00746382
0.00126067
-0.111615
0.0344057
0.0772093
-0.268552
0.52297
0.510608
-0.360739
-0.149846
0.107388
-0.59332
0.238005
0.268877
-0.0114492
0.0964657
-0.0360003
0.0533411
-0.0173408
-0.0384378
0.0223727
0.0160651
0.00765705
-0.00694351
-0.373249
-0.00522546
0.378483
-0.0628553
0.116014
-0.00930087
0.00992226
-0.000621394
0.126311
-0.167095
0.0407843
0.00695816
-0.00265689
0.00106416
0.00537824
0.212295
-0.483052
0.2708
0.0929359
-0.0351441
0.323819
-0.497626
0.173829
-0.0145265
0.0537773
-0.144411
-0.189667
0.0156964
0.00166108
-0.0295977
-0.116696
0.183671
0.0872366
-0.270906
0.459284
-0.573395
0.114118
0.141563
-0.132451
-0.0939529
0.0988635
0.125932
-0.12908
0.0031476
-0.0132522
-0.0375925
0.0508447
-0.00652878
0.00530223
0.0132893
-0.00360101
0.00573583
0.134164
0.0626488
-0.118203
0.0181069
-0.481004
-0.00608907
0.002834
-0.0184366
-0.00871407
0.0271506
-0.0304488
0.289482
-0.259028
0.0949576
-0.0939081
-0.306643
0.501781
-0.195131
0.037521
0.0751684
-0.112689
-0.100627
-0.234082
-0.316045
-0.247995
-0.294788
0.110865
0.183924
-0.023171
-0.00651227
0.0296833
-0.0773205
-0.217465
-0.0168189
0.0174643
0.00373544
-0.00118784
-0.00254761
0.0811032
-0.0851869
0.00408365
0.0269894
-0.0444603
0.0174709
-0.215093
0.270133
-0.0335068
-0.0246418
0.0380148
0.590098
-0.243679
-0.346401
-0.0689396
-0.296871
0.117759
0.215421
-0.340066
0.12465
-0.0762898
-0.0717835
-0.366762
0.607272
-0.392078
0.462137
-0.0700528
0.390851
-0.0670128
0.0924244
-0.103874
-0.332247
-0.280107
-0.00894498
-0.0012828
-0.00193792
0.0337351
-0.0317972
0.00350399
0.00291229
-0.00641628
-0.081598
-0.0322472
-0.00530176
-0.0116093
0.0169111
0.00924405
0.00220714
-0.0114512
0.167211
-0.0409006
-0.474112
0.100873
0.110716
0.0151218
-0.125838
-0.268878
0.0803721
0.207474
-0.194997
-0.0124769
0.225825
0.399635
0.0175096
0.0323269
-0.0176328
-0.0456293
0.0436914
-0.189421
0.208552
-0.0191302
0.110791
0.0261754
-0.136966
-0.165726
-0.0228553
-0.261823
0.20704
0.00610148
0.119831
0.19525
-0.242753
0.0475055
-0.0809432
0.0871621
-0.00621891
-0.175145
0.278865
-0.439956
0.38053
-0.00270528
0.00214688
0.0100238
0.00275925
0.0138973
-0.00387344
0.0432082
0.0909409
-0.134149
0.00605089
-0.0025469
0.00810865
-0.0121094
-0.000276938
-0.00471743
0.00499437
0.00431199
-0.000799073
-0.00351292
0.148674
0.36955
-0.518153
-0.132968
0.00241005
0.130559
0.225998
-0.0307456
0.347203
-0.263904
-0.0832949
-0.114433
0.0305335
0.0838995
0.0044974
0.489964
-0.544221
0.0543495
0.0133549
-0.139017
0.125663
-0.00538845
-0.150315
0.155703
0.00320155
-0.00225882
-0.000942729
0.345668
0.244445
0.122168
-0.00833687
-0.113831
0.0012786
0.000677762
-0.00195636
0.102259
-0.0179509
-0.0843081
0.000834992
-0.00964473
0.00880974
0.241296
-0.252168
0.221724
0.526408
0.111611
-0.149507
-0.024956
0.512352
-0.300008
-0.0286308
-0.00884307
0.0374739
-0.0321844
-0.00625346
-0.154886
0.151038
0.0027085
-0.0051517
0.0024432
0.0232541
0.190749
0.0995219
0.014037
0.00217785
-0.00245479
-0.00892776
0.0521557
-0.0117223
0.0928255
-0.004191
-0.0921057
0.106008
0.0161601
0.122355
-0.148725
0.02637
0.087867
0.0318485
-0.119715
-0.173042
0.17946
-0.00641796
0.0931463
-0.109792
0.0166456
0.0237015
-0.139783
-0.0140015
0.153785
0.106293
0.00337728
-0.10967
-0.53565
0.549717
-0.0139786
0.108015
-0.0301503
-0.0778644
0.21676
-0.0153843
-0.201375
-0.433473
0.306933
0.126559
-0.160809
0.0113018
-0.266036
0.185342
0.0806974
-0.000509687
0.00371123
0.0100531
0.017259
0.0904277
-0.381263
-0.52206
0.428006
-0.0309884
-0.0087972
0.0397856
0.0118941
-0.00265006
0.594421
-0.222441
-0.00756168
0.00839667
-0.315532
0.233765
0.0817699
0.12552
-0.0969452
-0.0285744
0.00745065
0.325423
-0.332863
0.00837344
-0.00535595
-0.00301749
0.0635244
-0.0952609
0.0317365
0.0439529
0.180485
0.306509
-0.191451
-0.115055
0.0168574
-0.0221591
-0.116255
0.0847545
-0.0124383
0.0123557
8.26106e-05
0.240032
-0.60679
1.17725e-05
-0.00766137
0.00764959
-0.00756714
0.0748643
-0.0118781
-0.0629862
-0.356492
-0.0769643
-0.00367664
0.007032
0.020413
-0.0103466
-0.0100664
-0.130555
0.168049
-0.0374932
0.126919
0.38371
-0.217837
0.266029
-0.0481887
-0.141692
-0.0649204
0.102441
-0.0443772
0.534425
-0.520456
0.159741
0.65355
-0.441318
-0.212187
0.410396
0.2432
0.00523386
-0.00733253
-0.0472115
-0.0672215
0.0366563
-0.102923
0.116159
-0.0132354
0.576387
-0.100538
-0.0486122
-0.4098
-0.00975168
0.120542
-0.0104871
0.00439235
0.00609473
0.15089
-0.16888
0.017991
-0.115234
0.337714
0.452619
-0.237192
-0.287447
-0.0901149
0.377561
0.0142951
0.000592063
-0.000477376
0.395396
0.168059
-0.563443
-0.265274
-0.143288
0.408564
0.0119927
-0.0228524
-0.150189
0.106714
0.111595
0.0428973
-0.29506
-0.14949
0.262368
-0.112876
0.183724
-0.220749
0.0370259
-0.0040211
0.110314
0.0636612
-0.0713932
0.0247215
0.101092
0.00962468
-0.150722
0.060618
0.0901037
0.0182551
0.0865861
0.00839528
0.117471
0.454153
-0.293165
-0.160978
0.00752616
-7.17927e-05
-0.452672
0.250362
-0.0272299
0.253711
0.00617931
-0.259888
0.0764624
0.0315523
0.0824584
0.0201703
-0.102629
-0.0145464
0.402805
-0.388205
-0.000758319
0.103017
0.111476
-0.140099
0.028623
0.00229459
0.00157093
-0.00386551
-0.0820422
-0.0686794
0.00379442
0.0935978
-0.0973921
0.142784
-0.148172
0.324535
0.134755
0.0371631
-0.0132496
0.102726
-0.0211921
0.0162169
0.00497519
0.170656
-0.345796
-0.158039
0.18738
-0.0293403
0.111695
0.00446415
-0.00246052
-0.000196373
0.012107
-0.012107
0.119255
-0.121242
-0.066038
0.109246
-0.0370406
-0.20536
0.19949
-0.228497
0.0290085
-0.21236
0.255262
-0.0748216
-0.0151943
0.090016
-0.0523041
0.0267821
0.148071
0.00221844
0.0136783
-0.0138706
-0.00732151
-0.00312652
-0.00931177
0.0202692
-0.218782
0.198514
-0.00942503
0.108947
0.0928326
-0.0293081
0.0859321
0.0922451
-0.178176
-0.291312
0.0882784
0.203034
-0.0300871
0.00277725
0.0273099
0.0481355
-0.0312145
-0.016921
-0.043846
0.0334863
0.0103598
-0.0376082
-0.0700619
0.10767
-0.544004
0.0472045
-0.00567936
-0.00178446
0.00472902
-0.471253
0.456777
0.186916
-0.183737
-0.00317873
-0.00737454
-0.113572
0.120946
-0.124942
0.0280522
-0.0145169
0.124977
0.0323818
-0.00893212
-0.0234496
0.112543
-0.0246756
-0.0207766
0.193995
-0.173217
0.0190245
0.0181386
0.266457
-0.199064
-0.067391
0.00428585
2.61403e-05
0.268512
-0.575445
-0.0142031
0.409609
0.063548
0.0142393
0.0361713
0.0119642
0.0319263
-0.00703068
-0.0248956
0.0976426
0.168817
0.258233
-0.265251
-0.448423
0.183151
0.00479224
-0.151409
0.00269688
0.116732
-0.0871502
0.221817
-0.0223248
0.10157
-0.113292
0.135538
-0.26325
0.270709
-0.0516826
-0.0674039
0.117439
-0.000707005
-0.0822388
0.0747578
0.00748095
-0.0481868
0.360895
-0.312698
-0.0854615
-0.0248686
0.11033
-0.0739303
0.000103979
0.00363147
0.0321921
0.12523
0.109205
-0.0267462
-0.190153
0.0321154
-0.260766
0.540559
-0.279739
0.294425
0.0857079
-0.380113
-0.0915991
0.311957
-0.0882908
-0.0100669
0.0983577
0.154712
-0.0587038
-0.0546171
0.104632
-0.0500148
-0.0380032
0.024751
-0.141854
-0.0168442
-0.223702
-0.381388
0.0293921
-0.0916374
0.0622453
0.022494
0.00943228
-0.103267
0.0856634
0.0176034
0.0576838
-0.347655
-0.180326
0.148082
0.0322441
-0.121563
-0.398869
-0.161812
-0.0421338
0.203947
-0.0533417
0.214828
0.00440676
0.0160062
-0.291042
0.614632
-0.0697391
0.190589
-0.00290435
-0.187684
0.0847277
0.0220213
0.148626
-0.0602594
-0.0883668
0.00518223
0.000358766
-0.005541
-0.0215062
-0.0903649
0.111871
0.0485608
-0.266395
0.00223679
-0.00111292
-0.00112386
0.00970453
0.00240246
0.355094
-0.26607
-0.0890188
0.223384
0.0303294
0.105548
-0.0766495
-0.0288987
0.0859944
-0.123603
0.119377
-0.000465126
-0.349157
-0.242041
0.591213
0.0345904
0.271922
-0.10373
0.0928258
0.24525
-0.0615765
-0.114229
-0.0148501
-0.151829
0.126105
0.390521
-0.0960775
-0.146752
0.151861
-0.00510952
-0.0253147
0.403125
-0.176441
-0.226676
-0.268999
-0.0308511
0.299854
0.675962
-0.395223
-0.280691
0.003324
0.00181482
-0.418231
0.62243
-0.201835
0.0124154
0.00378137
0.0125441
0.00939461
0.201827
-0.21122
0.0436425
-0.00747127
-0.027773
-0.187137
0.0665226
0.0714582
0.234685
0.121983
-0.00467891
-0.117304
-0.100051
-0.37599
0.139069
-0.00469465
-0.134375
0.327306
-0.589851
0.262611
0.111336
-0.101771
-0.0095647
-0.220482
-0.0950468
-0.019484
0.0207626
0.0493333
-0.0431567
-0.00617664
-0.00252851
-0.00795857
-0.564972
-0.0727514
-0.239719
0.129933
-0.121537
-0.147574
0.163731
-0.0161559
0.00100221
-0.00262648
0.00162428
0.0152015
-0.0149297
-0.000271886
-0.135319
-0.0287917
-0.331996
-0.0141777
0.346179
0.107152
-0.014728
-0.0261884
0.0191577
-0.0866769
0.00443818
0.0587998
-0.113417
0.143761
-0.000143175
-0.143618
-0.0260653
-0.00496013
0.0310254
-0.16532
0.152075
0.0132453
0.162196
-0.177611
0.00297946
0.0938325
-0.0968119
-0.0770268
-0.0037564
-0.150143
0.0148244
-0.00215284
0.0194125
-0.0172596
0.1478
-0.154281
0.00648084
-0.282474
0.0806134
0.201863
0.0996507
-0.107025
0.0709048
0.111213
-0.407605
0.320493
0.0871267
-0.187112
0.0253006
0.0154357
0.146887
-0.16981
-0.0446217
-0.381825
-0.0423005
0.424137
0.181565
0.149519
-0.0142659
-0.135252
-0.063286
0.244195
-0.180907
-0.139867
0.0256372
0.0104764
-0.342468
-0.225442
0.463107
-0.23766
0.13087
-0.549099
0.215753
-0.158946
-0.0568057
0.223988
0.226419
-0.45037
0.0264767
0.186639
-0.213114
0.628662
-0.284326
-0.344293
0.00699195
0.00138149
-0.149199
0.147974
0.00122491
0.0391641
-0.0382761
0.239112
-0.520134
0.281076
-0.351684
-0.208397
0.560087
-0.0354284
0.0859842
-0.0505558
0.152785
-0.0304299
0.25013
-0.194698
-0.055432
0.0396382
0.0146685
-0.0543066
0.136418
-0.0397684
-0.0966497
-0.0728427
0.0583161
0.0034776
0.098772
-0.125986
0.0272141
-0.0891898
0.262216
-0.173023
-0.631536
0.0204151
0.611124
0.60194
-0.191492
-0.257175
0.010506
0.0145891
-0.0149261
0.000337005
-0.603652
0.251974
-0.0900494
0.0182172
0.0718322
-0.12824
0.154718
-0.00157669
-0.00772418
0.110014
-0.136909
0.0268951
0.112532
0.0238863
-0.0121262
0.0968539
-0.443252
0.102699
0.340584
0.280027
0.316988
0.00312577
-0.429841
0.274935
0.154908
-0.300008
0.0809432
0.219067
-0.0459805
-0.0190913
0.0650718
0.251958
-0.0153644
0.100716
0.446341
-0.547053
-0.00822135
0.178491
-0.170269
-0.0594244
-0.41909
0.478547
0.328035
-0.479155
0.151193
-0.162456
0.0131665
-0.000280958
0.00128317
0.166458
-0.177936
0.0114782
0.252102
0.15103
0.468247
0.12668
0.00240246
-0.00486297
0.00600674
0.332529
-0.102105
-0.23042
-0.109375
0.280035
0.0601985
-0.0205603
-0.0843812
0.10165
-0.0172692
-0.0116461
-0.00169994
0.013346
-0.112644
0.116439
-0.0498716
-0.232599
-0.236687
-0.359126
0.510718
-0.182613
0.00910957
-0.148892
-0.0139207
0.0213265
-0.0910082
0.0696817
0.0502854
0.11988
-0.00841665
0.00373457
-0.287393
0.0878072
0.19959
0.0342453
-0.216135
0.18189
0.0105704
-0.0131359
0.00256553
0.144019
-0.450654
0.00228634
0.214474
0.274561
-0.358356
0.0838017
0.337529
0.260595
-0.598085
0.00527702
-0.1559
0.0872715
0.0183776
0.206223
-0.278145
0.0719257
0.0398084
0.00383417
0.00104326
0.0116594
-0.0127026
0.0298191
0.226057
-0.313748
-0.118935
0.432708
-0.0928288
-0.0113295
0.104158
-0.0717943
-0.327077
0.567119
-0.0854084
0.103706
-0.0182977
-0.440607
0.126886
-0.155756
-0.2828
0.367416
-0.0846056
0.440844
-0.154714
-0.286117
-0.112132
-0.24381
-0.102735
0.346553
0.026183
-0.0833294
0.145914
0.040571
-0.186485
0.397714
-0.586543
0.188831
0.377931
-0.508656
0.130767
-0.0166828
-0.266887
0.28357
0.0304009
-0.321569
0.29118
-0.341811
0.0728172
-0.031887
0.0441799
-0.0122929
0.292064
0.0507286
-0.342783
-0.10986
0.403171
-0.293296
0.0192465
-0.00737794
-0.0118686
-0.0235343
0.0287662
-0.153531
0.132755
-0.161305
-0.000140295
-0.121911
0.122052
-0.0516796
-0.167228
0.218909
0.474614
-0.163554
-0.311044
0.125298
-0.0537301
-0.00585908
0.11383
-0.00249432
0.274915
-0.482671
0.207762
-0.303841
0.112395
-0.00303823
0.0182398
-0.0515994
-0.0838892
0.135489
-0.00123459
0.00537018
-0.00413559
0.528587
0.167589
0.000620238
-0.00392436
-0.183937
0.156738
0.0271993
-0.278762
0.0646302
0.014734
-0.0141804
-0.000553581
-0.0185039
0.0101927
0.00831119
0.354904
-0.32449
0.104398
-0.101419
0.494596
0.107387
-0.341064
0.0972625
0.432037
-0.192886
0.000347928
-0.00610372
0.475974
-0.251947
-0.330726
0.282766
-0.0461438
-0.275929
0.0751114
0.20082
0.0322567
0.0932629
-0.092251
0.045791
0.307333
0.0737336
-0.381054
0.098114
-0.123648
0.0255342
0.370943
0.169085
-0.540013
0.00642246
0.506911
-0.483794
-0.0230969
0.349758
0.358149
0.221951
-0.580095
0.00607262
0.458867
0.0270811
-0.0105739
0.0137837
-0.00320983
0.0150327
-0.0482135
0.0331808
0.000569279
-0.180895
-0.0426536
-0.0689614
-0.0112541
0.0128852
-0.00163103
-0.281103
0.349796
0.000357047
-0.00603641
-0.0253762
0.00748087
-0.0127343
0.0014802
-7.21249e-05
0.0140333
-0.0139612
0.00590181
0.0133447
-0.0164089
0.0187035
-0.0718401
0.101232
0.179577
0.0864547
0.00420016
-0.155297
-0.0286395
0.00596415
-0.0244007
-0.4145
0.0580261
0.0909953
0.27625
0.277341
0.0551927
0.539019
0.164703
-0.232014
0.0673123
0.12047
-0.146601
0.0261312
-0.00373339
0.00432678
-0.000593394
0.373557
-0.28255
0.425504
-0.18704
-0.238462
-0.00240102
0.0103314
-0.00793038
0.00895206
-0.0776787
0.0687267
-0.269606
0.252923
0.0223986
0.0232243
-0.177029
0.153805
-0.0729419
-0.207286
0.280233
0.0248933
0.02444
0.0885635
-0.0661649
0.16159
-0.211966
0.0503761
-0.167395
-0.108533
0.0112041
-0.0101608
0.0116587
-0.0010883
0.00357191
-0.015224
-0.365768
0.0829796
-0.0879143
-0.0283403
-0.00854505
0.120021
-0.00717842
-0.00383501
0.0110134
-0.0238527
-0.123185
0.125117
-0.0019327
0.257481
0.171021
-0.260208
-0.0766983
-0.210692
-0.513691
-0.115031
0.0662647
0.516578
-0.367839
0.169835
0.013889
-0.0628887
-0.102431
-0.00439649
0.00233329
0.0020632
-0.133576
0.035202
0.0983742
-0.094804
-0.235915
0.124947
-0.00361363
0.0045051
-0.000891466
0.167
0.327531
-0.245382
-0.0821475
-0.00367518
-0.000925962
0.00460114
-0.36297
0.0960593
-0.305422
0.00541638
0.0740392
-0.108458
0.0344191
0.00229876
0.000409742
0.482349
0.299844
-0.348021
-0.021361
0.0302556
-0.00889456
-0.10338
0.0607261
-0.028831
0.09402
-0.065189
-0.138953
0.0370911
0.101862
-0.0445248
-0.0645142
-0.488812
0.174074
0.314749
-0.101974
0.101178
0.000795844
0.172848
0.154685
0.0132747
0.35772
-0.370977
-0.0802077
-0.211103
-0.0411798
0.012549
0.00113463
-0.0127807
-0.371367
0.0896164
0.281764
0.504315
-0.126342
-0.0736382
0.348205
0.0211671
0.0670537
-0.183295
-0.00497722
0.188273
-0.233338
-0.196502
-0.303446
0.0891393
-0.000882069
0.366468
-0.059123
-0.00965559
-0.0756494
-0.0139355
0.0895849
-0.010688
-0.00446411
0.0151521
-0.328511
0.088015
0.117443
-0.0256461
-0.091797
0.184049
-0.163778
-0.00671972
0.00136377
-0.0043622
0.000748571
0.00961569
-0.00337588
-0.122408
0.122268
-0.00474988
-0.013754
0.464363
0.00463266
-0.0278036
-0.462804
0.480249
-0.0732752
-0.151634
0.17267
-0.156733
-0.015937
-0.0783353
-0.0389733
0.00798487
0.0488138
0.0292615
-0.0780753
0.0939391
0.0159592
-0.109898
-0.0130518
0.0402094
-0.0271576
-0.287921
-0.275759
0.563739
-0.059599
0.102162
-0.0425631
0.10598
0.334879
-0.0853449
0.15625
0.0267644
-0.0191938
-0.00757051
0.230318
0.116889
0.178993
-0.641792
0.219018
-0.267998
0.0489834
0.102145
-0.256935
0.154795
-0.00299708
-0.00139941
0.471131
-0.102915
-0.368176
0.514402
-0.180884
0.00823311
-0.0204037
0.131715
-0.111311
0.148524
-0.147967
-0.000557512
-0.026218
2.96132e-05
-0.102362
-0.00739889
0.109761
0.0140187
0.000421305
-0.01444
-0.00168078
-0.133977
0.114309
-0.165908
-0.00122489
0.00143771
-0.176383
0.00468306
0.0536517
-0.0583347
0.0016186
0.0270623
0.206564
-0.00675096
-0.199812
-0.309856
-0.0575837
0.367452
0.00174641
0.0178446
-0.019591
-0.0378631
-0.247132
0.265451
-0.147029
0.0370361
0.109993
0.156723
-0.00583267
-0.347703
0.119245
0.228462
-0.0283016
0.193006
-0.143995
0.246145
0.155616
0.284305
0.31271
0.137943
0.00581841
-0.0258621
0.0506396
-0.370682
0.139563
-0.131
-0.00856333
0.109971
0.210622
-0.32058
0.104187
-0.0975041
-0.00668292
-0.254231
0.581606
0.15668
0.00130254
-0.134271
-0.233124
0.16984
0.322375
-0.0821262
-0.240243
-0.298942
-0.0724121
0.0384676
-0.0372999
-0.00116773
-0.0919447
-0.0290493
0.120994
-0.0210744
0.0469682
-0.0258938
0.264274
0.197868
-0.325324
0.26815
0.0571786
0.00766432
-0.271756
-0.086594
0.0179939
0.117415
-0.135409
-0.126721
0.0347763
-0.236201
-0.111497
0.0269734
0.115353
-0.260414
0.370399
-0.017877
0.0489537
-0.0310767
-0.290864
0.0437329
1.48715e-05
0.19398
-0.000144653
-0.000921328
-0.0772421
0.10221
-0.0249676
-0.0940608
0.402083
-0.308009
-0.223669
0.192662
0.0310085
0.00163117
-0.012205
0.356073
-0.342782
0.476371
-0.119265
-0.357083
-0.0107031
0.00352467
-0.00436085
0.00470878
0.0306649
-0.196391
-0.00904227
-0.0885049
0.0975471
0.545802
-0.280229
0.23169
-0.0100838
0.239275
-0.211483
-0.356469
-0.086753
-0.0947333
0.0232784
0.0714549
0.308692
-0.288558
-0.020123
0.0229254
0.0663282
-0.0892535
0.201021
0.400807
-0.449313
0.0928752
-0.29745
0.195348
0.00549985
-0.107861
0.0109002
0.00218431
-0.0130846
-0.221079
-0.0757882
0.000980514
-0.237134
0.236157
-0.35
-0.138801
0.198062
-0.18477
0.483898
-0.146334
0.0203412
0.137989
-0.124634
-0.584992
0.257919
0.0149309
0.0384102
0.11575
-0.0967194
0.0371204
0.0119056
-0.0037969
-0.0212462
-0.00884095
0.397698
-0.308067
-0.302007
0.0566267
-0.258569
0.339109
-0.0805341
-0.00879139
-0.178479
0.140381
0.0010543
0.0109792
-0.0120335
-0.00436692
-0.0089481
0.013315
0.230716
-0.168787
0.00540334
0.00800958
-0.0149972
-0.144543
0.146777
-0.00223383
-0.0984687
0.0894265
-0.113864
0.0923581
-0.00176501
-0.0112296
0.110134
-0.00594695
0.035289
0.0548034
-0.0900924
0.00880736
-0.00408232
0.135918
0.00378886
-0.139707
0.171512
-0.00162261
-0.0250798
0.0764223
-0.401817
-0.0126656
0.216253
-0.142755
0.0369538
-0.0322707
-0.126695
0.144562
-0.0178664
0.374709
-0.28427
0.12338
-0.00139737
-0.10103
0.119024
-0.00323504
0.000713049
-0.00113581
0.00042276
0.215304
-0.00188942
-0.213413
-0.0486046
0.0355528
0.0288336
0.132291
-0.161124
-0.0177
0.0895722
-0.0718722
-0.0529368
-0.0517214
0.104658
0.1219
-0.0896438
-0.160217
0.183442
-0.37026
0.205905
0.0389339
0.308044
-0.432252
0.124219
-0.045609
0.2072
-0.508692
-0.0268738
0.18505
-0.37156
0.113133
0.258437
0.0054863
0.109856
-0.115342
-0.0154177
0.108564
0.0116931
0.00535375
-0.0170468
0.0783217
0.0304557
-0.108777
-0.0326181
-0.059633
-0.0370927
-0.0085366
0.0726133
0.262428
-0.36561
0.103192
0.00638949
0.00689164
-0.037527
0.0306353
0.326126
-0.394701
0.0685927
0.354829
-0.15244
-0.0112233
0.163664
0.00234942
0.0122397
0.333974
-0.593846
0.259875
0.130497
-0.00642122
-0.124076
0.0740065
-0.00292447
-0.071082
0.121599
-0.152538
0.030939
0.374038
-0.268123
-0.105912
-0.289475
0.231561
0.0579159
-0.181898
0.324997
-0.143088
-0.0809718
-0.0660569
-0.146786
0.103242
0.233478
0.00547679
-0.0249607
0.0308443
-0.0213932
-0.00945115
-0.118907
0.124252
-0.100717
0.0153088
-0.0191905
0.155109
0.100017
-0.089987
-0.0100298
-0.213386
0.222782
-0.205847
0.154169
0.0100557
0.0387429
-0.0487986
-0.068027
0.0973877
-0.0293607
0.00232235
-0.00468908
0.0344931
-0.0394022
-0.592131
-0.418273
0.312481
0.105802
-0.147164
0.311582
0.347014
-0.0715381
-0.275472
0.117902
0.159286
-0.0562699
-0.07725
0.13352
0.372498
-0.0775764
-0.294911
4.46095e-05
0.10051
-0.100555
-0.504535
0.445143
-0.168437
-0.301612
0.128375
-0.0158425
-0.00564577
0.107216
-0.0591779
0.0944669
-0.355934
0.0748373
0.0339862
-0.175651
-0.242612
0.0112394
0.0403148
-0.0515542
0.273241
0.228545
-0.184578
0.136331
0.458631
-0.183709
0.0197928
0.076801
-0.0965938
-0.00153748
0.0665198
-0.104144
0.278448
-0.0749471
-0.058629
0.359999
-0.145081
-0.214912
0.149431
0.00429672
-0.00393795
0.235613
0.102644
-0.338249
0.195204
-0.275411
-0.139221
0.118818
0.171817
0.0150997
0.00562715
0.28333
0.116658
-0.177777
0.0611193
0.252673
-0.28352
0.120693
-0.502506
0.137308
-0.0168386
-0.0959825
-0.169266
-0.217165
-0.238618
0.455825
-0.163181
-0.0487839
-0.00352217
-0.00455642
-0.202487
-0.0143352
0.216824
-0.0667944
0.0881209
-0.0289151
-0.00234272
-0.00268096
0.0135812
-0.222847
0.0203614
-0.451522
0.234403
0.0524719
0.125546
-0.178017