/*--------------------------------*- C++ -*----------------------------------*\
| =========                 |                                                 |
| \\      /  F ield         | OpenFOAM: The Open Source CFD Toolbox           |
|  \\    /   O peration     | Version:  v2012                                 |
|   \\  /    A nd           | Website:  www.openfoam.com                      |
|    \\/     M anipulation  |                                                 |
\*---------------------------------------------------------------------------*/
FoamFile
{
    version     2.0;
    format      ascii;
    class       volScalarField;
    location    "700";
    object      k_0;
}
// * * * * * * * * * * * * * * * * * * * * * * * * * * * * * * * * * * * * * //

dimensions      [0 2 -2 0 0 0 0];


internalField   nonuniform List<scalar> 
13851
(
0.000199444
0.000154257
0.000154054
0.0198336
0.000148432
0.000156735
0.000154835
0.000147592
0.0496416
0.000148397
0.000176125
0.000148441
0.000148976
0.0278645
0.000168088
0.000199595
0.0180094
0.00014837
0.000232271
0.000199265
0.000171176
0.000155785
0.0328658
0.000149734
0.014907
0.000183566
0.00022243
0.00427035
0.0447064
0.000146654
0.046131
0.000154814
0.000199418
0.0662952
0.000169432
0.044215
0.00014981
0.0173211
0.0681297
0.000148791
0.0694615
0.0463959
0.00637782
0.000216075
0.0488754
0.000147581
0.000145553
0.000199049
0.000152375
0.00014894
0.0260557
0.000149216
0.000199511
0.000163522
0.0258703
0.000148794
0.000199722
0.067162
0.00014695
0.0300968
0.000148492
0.000240053
0.000148588
0.000152643
0.000180887
0.000181445
0.0246151
0.000165828
0.000149028
0.028949
0.0415368
0.000175763
0.000148464
0.026842
0.000164906
0.000152611
0.0235262
0.000145898
0.010819
0.000147701
0.000149095
0.0002302
0.000168935
0.030233
0.03123
0.0450704
0.000156033
0.019954
0.000148348
0.0459078
0.000149336
0.00015498
0.00981834
0.0407049
0.0616053
0.000197761
0.000147734
0.000200275
0.0270456
0.000193185
0.000201298
0.000162072
0.00016295
0.000148727
0.000147573
0.00017442
0.000147566
0.0439043
0.000154948
0.000148225
0.000159627
0.000147596
0.000200255
0.000178206
0.000199347
0.000162711
0.00014648
0.000147106
0.0172666
0.0324544
0.000188831
0.000147508
0.00014895
0.0485051
0.000222656
0.000171885
0.000147726
0.000171128
0.063645
0.000174606
0.000155704
0.000161895
0.00552131
0.065639
0.000176721
0.0614089
0.000165469
0.0436329
0.00016005
0.000174505
0.000224152
0.000150441
0.000148372
0.000170686
0.0235833
0.00015217
0.000145838
0.0412514
0.0394582
0.000171771
0.00020108
0.000199028
0.000179338
0.000220079
0.000149518
0.000148652
0.000148589
0.064136
0.000172239
0.000153489
0.000149583
0.0445465
0.000173853
0.000199091
0.0284362
0.0527972
0.0538449
0.0307935
0.000159391
0.0641225
0.000148597
0.000146483
0.000178229
0.000148825
0.0651184
0.000222785
0.000203932
0.00014641
0.000164932
0.000203109
0.0002191
0.00021567
0.000158866
0.000174351
0.00745414
0.0400947
0.000199473
0.000157362
0.000149311
0.000147083
0.0077876
0.000172193
0.0225294
0.000156952
0.000151907
0.000199893
0.000198792
0.000149404
0.000149436
0.000166725
0.000224512
0.0658188
0.0680138
0.000168098
0.000324475
0.0618404
0.000152273
0.000174375
0.051073
0.000155864
0.000199292
0.000148891
0.000227666
0.000149532
0.000170053
0.000153702
0.000148853
0.000216113
0.000149507
0.000497199
0.00014638
0.000199098
0.0259641
0.0631308
0.000157035
0.000174683
0.000149741
0.000169505
0.000148031
0.00016971
0.0334065
0.000157003
0.000155814
0.000148718
0.0659146
0.000146635
0.0171479
0.0672975
0.00018978
0.000149645
0.000343604
0.0317665
0.048823
0.000199152
0.000164604
0.000174217
0.000210615
0.000165191
0.000196667
0.000161024
0.0211687
0.000198902
0.00014713
0.000157049
0.000200652
0.0434143
0.0227868
0.000147031
0.000172412
0.000148313
0.000209828
0.000220915
0.000157611
0.000174468
0.000199537
0.000148148
0.000162319
0.000195377
0.00179992
0.000148479
0.000148833
0.00015721
0.0583426
0.0120761
0.000174118
0.000147663
0.00022066
0.000220414
0.000196334
0.000174027
0.0574825
0.0262301
0.000157977
0.000165443
0.020857
0.000147545
0.000148583
0.000197033
0.000173137
0.000146682
0.000149513
0.000147981
0.000147868
0.000164614
0.000148537
0.0512505
0.000172385
0.000148267
0.0431685
0.045897
0.000149281
0.000199585
0.0263282
0.000150666
0.000149366
0.000173603
0.0290748
0.0786705
0.000180927
0.000148349
0.0602519
0.000148544
0.000182561
0.0314892
0.00098237
0.000153191
0.00938356
0.000735824
0.0491145
0.000198283
0.000162376
0.0665496
0.0546503
0.00432567
0.000149658
0.0253747
0.00807984
0.000209926
0.000205761
0.000152303
0.000180264
0.000157717
0.0210584
0.000163755
0.000146999
0.000144875
0.000157717
0.0456058
0.000375951
0.000147483
0.0604351
0.000157773
0.000162153
0.000153712
0.0251562
0.000218919
0.000200104
0.000153327
0.00015516
0.0423443
0.000149337
0.000221952
0.000157867
0.000173522
0.000158349
0.000148332
0.000148242
0.000195341
0.000196017
0.000199105
0.00170895
0.0430803
0.000152287
0.0651666
0.000216346
0.000146559
0.00171405
0.000189612
0.0317461
0.00015721
0.000184969
0.000237873
0.00781023
0.000193731
0.023527
0.000150773
0.000207942
0.00690756
0.000161851
0.0259389
0.000164042
0.0706029
0.000165091
0.000171171
0.000198677
0.000206905
0.000148662
0.000157306
0.000174145
0.0001652
0.000147742
0.000174427
0.0568252
0.00014844
0.00017442
0.012192
0.000153781
0.00105271
0.000173805
0.0811484
0.000156523
0.000182267
0.000306576
0.000221552
0.000173817
0.01936
0.0270396
0.00031739
0.000148186
0.000194854
0.000164081
0.000184615
0.000147544
0.00750339
0.0639219
0.0107643
0.000155093
0.000199256
0.000239276
0.0131574
0.000145473
0.0188762
0.000213066
0.0328402
0.000161624
0.0119666
0.000148543
0.000148749
0.0221327
0.00023782
0.000148411
0.000154289
0.000174902
0.000146701
0.0592641
0.000180579
0.000189146
0.000157006
0.00015081
0.000149293
0.00476747
0.000148228
0.000149222
0.0261545
0.0549957
0.000155192
0.000232371
0.000148631
0.000148527
0.000154312
0.000199526
0.000173631
0.000147828
0.000151477
0.000188021
0.00015268
0.0799178
0.000148405
0.000159486
0.0494671
0.000160631
0.000145208
0.000148719
0.000156871
0.000149911
0.00028537
0.0341185
0.000164836
0.000615298
0.000154416
0.000148297
0.0606625
0.000232227
0.000160039
0.000148549
0.052372
0.000159503
0.00291658
0.000148732
0.000162225
0.000194615
0.000166613
0.058398
0.00023663
0.0050164
0.000152513
0.000199258
0.000148144
0.0435559
0.000173691
0.00019878
0.000163895
0.000153004
0.00016065
0.000178692
0.000148507
0.0139368
0.0590056
0.0803824
0.00718837
0.0323905
0.0347002
0.000221937
0.000156529
0.000149332
0.00268762
0.000148402
0.000147713
0.000157687
0.0678025
0.000153939
0.000150438
0.000172983
0.000172896
0.000148474
0.0770261
0.000147726
0.0647459
0.000266515
0.000147694
0.000153002
0.000216613
0.00183599
0.000146709
0.0466501
0.0121662
0.000146735
0.0585728
0.000231894
0.000198817
0.000152467
0.024473
0.0309997
0.000146952
0.000225989
0.000148978
0.00014774
0.017539
0.0716236
0.000168222
0.000173048
0.00014842
0.000179702
0.0650274
0.0641278
0.000147783
0.0247411
0.000147797
0.000149045
0.000174022
0.000159623
0.000145436
0.000152614
0.0605445
0.000204578
0.0567943
0.000153382
0.000148299
0.057967
0.000149132
0.000195548
0.00015929
0.000164913
0.000164364
0.0477777
0.0309449
0.000156784
0.0175524
0.000152702
0.000179776
0.0470802
0.0317105
0.00014892
0.00014818
0.000163075
0.0580674
0.000219478
0.000179287
0.00609981
0.000159806
0.000164273
0.0413259
0.0800871
0.000181043
0.0632474
0.000209264
0.0447559
0.000150227
0.000143132
0.00150468
0.000148432
0.011206
0.0846211
0.000159407
0.000174458
0.000148698
0.000513485
0.000174753
0.0481789
0.000148253
0.000149019
0.000155299
0.000172433
0.00014847
0.0646606
0.000148979
0.000208056
0.00015251
0.000185134
0.000148704
0.000148497
0.000167059
0.0249837
0.000173521
0.059421
0.000162264
0.000146779
0.00014721
0.00017846
0.00015144
0.000187654
0.000154721
0.000159755
0.000149068
0.000149143
0.0187842
0.000149667
0.000191016
0.0201284
0.0521535
0.000156888
0.0376804
0.000172436
0.000201329
0.0846473
0.000148208
0.082814
0.000157832
0.000162692
0.00917812
0.000350387
0.0001467
0.000187131
0.000149303
0.0436687
0.0269057
0.000149408
0.000166597
0.0627262
0.000149738
0.000149658
0.000183813
0.0156869
0.0152578
0.000149381
0.000198455
0.000152269
0.000148525
0.000143657
0.000198977
0.00019224
0.000145258
0.000195397
0.000163588
0.000180627
0.000150525
0.000151627
0.00017357
0.000155103
0.000197313
0.000175592
0.000175506
0.000177736
0.000340544
0.000232523
0.0470559
0.0345011
0.000200043
0.0367197
0.000163115
0.0211273
0.000199673
0.000148111
0.000163683
0.000222868
0.000156857
0.000147707
0.00014766
0.00019114
0.0211098
0.000159712
0.0644254
0.00014681
0.0192512
0.000177564
0.0250252
0.000186641
0.000156696
0.000154093
0.0292969
0.000192374
0.000162762
0.000239289
0.000150446
0.00170414
0.000191309
0.000208624
0.000163225
0.000250645
0.000148528
0.000149608
0.000151854
0.000148537
0.0473272
0.000147861
0.000172432
0.0573286
0.000187175
0.0659001
0.029907
0.00020975
0.000204792
0.000156689
0.000149133
0.000148759
0.000145929
0.000147192
0.00014884
0.000180249
0.000199775
0.000164286
0.00299311
0.000151534
0.0496659
0.000149953
0.0229871
0.000167692
0.00014988
0.000148812
0.052653
0.000156985
0.014968
0.0839875
0.000173425
0.000182635
0.000146584
0.0663172
0.000153314
0.000154041
0.000147493
0.000149154
0.000150409
0.000147992
0.000173695
0.0225595
0.000160059
0.000163662
0.000216798
0.0603454
0.000157023
0.000156087
0.0462714
0.00014589
0.0456061
0.000149287
0.000152744
0.00880835
0.000187424
0.000198967
0.00018272
0.000173763
0.000149469
0.000149953
0.000181098
0.000150383
0.000149525
0.00016041
0.000211596
0.000147751
0.00019847
0.000493428
0.00957817
0.000182504
0.0460549
0.000160285
0.000149099
0.000192566
0.000146902
0.000157428
0.0422398
0.0426794
0.082076
0.0466585
0.000149586
0.000149282
0.000168762
0.000151324
0.000147395
0.0271106
0.000210931
0.0276605
0.00019127
0.000187848
0.000148578
0.0001467
0.00177683
0.000189144
0.000153308
0.000149657
0.000198946
0.000202354
0.0662041
0.000149481
0.000148929
0.019267
0.000150475
0.000164211
0.000146717
0.0692724
0.000148009
0.0226623
0.000148462
0.00018711
0.000169233
0.000168419
0.000163532
0.00014846
0.000154268
0.000148008
0.000195329
0.000150466
0.0269645
0.000150658
0.0126825
0.0606776
0.000161898
0.000147872
0.0135797
0.0347806
0.00015734
0.000187324
0.000148747
0.0184035
0.000148227
0.00022294
0.000148356
0.000147986
0.0104999
0.000164573
0.000148651
0.00016401
0.0645941
0.000426709
0.0665718
0.000147019
0.0392087
0.000148441
0.000147798
0.000149505
0.000144486
0.000149522
0.0731551
0.0455939
0.000149558
0.000148952
0.000168645
0.000147607
0.0171049
0.000193561
0.0322993
0.0679481
0.000154197
0.00019724
0.000148386
0.000171017
0.000174734
0.00014809
0.000149348
0.000394832
0.0286897
0.000182065
0.00883797
0.000180986
0.000148612
0.000169463
0.000187688
0.0215082
0.000163584
0.000332006
0.000189676
0.000149452
0.0565337
0.0556389
0.0276496
0.00416234
0.0161724
0.000152441
0.000174006
0.000149234
0.000141362
0.000156369
0.000147021
0.0703046
0.000151306
0.000147878
0.000148926
0.000151021
0.0660585
0.000221775
0.000147147
0.000169969
0.0289591
0.000151724
0.00805454
0.000151535
0.000186477
0.0708717
0.000148559
0.000233699
0.000159281
0.000162964
0.000478252
0.000151288
0.000228598
0.000181894
0.0681143
0.000149684
0.0252327
0.00016143
0.0408112
0.0227352
0.0203905
0.000173491
0.000148556
0.000149653
0.000149736
0.000169961
0.000148749
0.0603216
0.000158229
0.000156435
0.000156867
0.000152337
0.000146966
0.000158525
0.000157471
0.000152982
0.000156771
0.0839344
0.000205541
0.000160999
0.000168894
0.0692754
0.000150523
0.0489945
0.00014594
0.000160654
0.000150493
0.000148144
0.000166205
0.000148266
0.000147106
0.000162436
0.000148698
0.000208722
0.000151054
0.0099016
0.000236368
0.000211525
0.000218188
0.000148999
0.0623111
0.00020259
0.00014947
0.000157306
0.000150231
0.0526017
0.000151523
0.000162441
0.00106223
0.0100445
0.000176579
0.000149172
0.048724
0.000786109
0.0199556
0.000159185
0.000146722
0.000147693
0.000181
0.000148545
0.0265724
0.00019596
0.000149264
0.000216133
0.000210935
0.000147895
0.0837353
0.020587
0.000209871
0.000150913
0.0478817
0.000180086
0.00014803
0.0223886
0.00015587
0.000147704
0.000147761
0.000163888
0.000170181
0.0539424
0.0493161
0.000170977
0.0543466
0.000165318
0.000148369
0.000168664
0.000147692
0.000717051
0.000147954
0.000148176
0.000152897
0.00015028
0.0590371
0.0206602
0.000219767
0.0301512
0.085896
0.000157023
0.000148485
0.000151059
0.000229706
0.000147857
0.000148416
0.000168328
0.012015
0.000226661
0.000145898
0.000164917
0.000163797
0.000198691
0.00747927
0.000146727
0.000145334
0.000153017
0.00471789
0.000160333
0.0652026
0.000151585
0.00014901
0.000147755
0.000147745
0.000153684
0.000209493
0.0447549
0.0519054
0.000156865
0.000148301
0.00114005
0.000149935
0.0173815
0.0379337
0.000158032
0.0282716
0.0465289
0.041437
0.000178163
0.00016337
0.0437178
0.000161823
0.000160091
0.000169067
0.00020203
0.000150237
0.000478418
0.000148395
0.0377928
0.00904123
0.000145968
0.000152659
0.000166474
0.000224653
0.000164588
0.00014886
0.000159573
0.000151527
0.000156676
0.000233998
0.000149012
0.038462
0.0225496
0.000148432
0.000162487
0.000169844
0.00014847
0.0418693
0.0108497
0.0643304
0.0320127
0.000148185
0.000153964
0.0001566
0.000149535
0.000217292
0.000164985
0.000149683
0.00018093
0.00015477
0.0237402
0.000169384
0.0245237
0.000151402
0.000151754
0.000163736
0.000188862
0.000182571
0.000148147
0.00860776
0.0444979
0.0257456
0.0392187
0.0421699
0.0530092
0.0388308
0.000148143
0.000148283
0.000148687
0.000218987
0.000173162
0.000182224
0.01414
0.000149472
0.000145629
0.000148425
0.000210145
0.000145769
0.000157681
0.000152451
0.022702
0.000151051
0.000146942
0.000148507
0.000148188
0.000149002
0.000159835
0.000217565
0.000160181
0.050575
0.000148263
0.000147767
0.0634618
0.0626391
0.019789
0.0119776
0.000163541
0.0175782
0.000146681
0.000168705
0.000151747
0.000148485
0.000154353
0.0269481
0.000151764
0.000189248
0.00127217
0.000149616
0.000148073
0.000155074
0.000210402
0.000149798
0.022776
0.000148603
0.000210149
0.000148766
0.000149532
0.000157526
0.000170628
0.000149006
0.000224583
0.0424491
0.000205755
0.0650919
0.000148543
0.0254775
0.000196716
0.000148302
0.00893752
0.000149514
0.000161768
0.000149321
0.000149317
0.000147613
0.000148515
0.000150011
0.000155698
0.000182023
0.000149368
0.000148594
0.000165111
0.00014655
0.0820374
0.00014877
0.000162874
0.000165229
0.0348652
0.000345654
0.000148907
0.000210595
0.000146671
0.000162374
0.000172253
0.00938171
0.000174642
0.000149801
0.000194436
0.000167828
0.0001876
0.0002096
0.000160701
0.000196637
0.000179267
0.000182623
0.000150949
0.000147573
0.0087334
0.0115909
0.000154095
0.000148005
0.00866541
0.000146851
0.000170523
0.0001477
0.000175965
0.00990012
0.000144952
0.0160272
0.000156611
0.000149064
0.000203094
0.000147009
0.000161384
0.0336425
0.000168791
0.0106152
0.00014758
0.000149747
0.00016188
0.000149467
0.000149607
0.000159455
0.000160681
0.000182077
0.000177425
0.000148835
0.000164893
0.000147435
0.000148343
0.000149389
0.000148319
0.000449524
0.000148043
0.000151619
0.000231544
0.000146812
0.000147926
0.0602904
0.000149631
0.0122847
0.000152091
0.05789
0.00021756
0.000164227
0.00115969
0.000176747
0.000272334
0.000149989
0.000203305
0.000157069
0.000147474
0.000147599
0.000151589
0.000162198
0.000148116
0.000170431
0.000147272
0.000151725
0.00709033
0.0258775
0.000106974
0.00015421
0.000163027
0.0373428
0.0294906
0.000149087
0.000157374
0.000322118
0.000149303
0.000167593
0.000360465
0.0516777
0.000158448
0.000171709
0.000150785
0.000213178
0.000149892
0.000160898
0.00800223
0.000149122
0.000147778
0.0803819
0.000169905
0.000223041
0.0655348
0.000191366
0.000149906
0.000147293
0.000149652
0.0330744
0.00106692
0.0398465
0.000173609
0.000148556
0.0432628
0.000148661
0.000198281
0.00015535
0.000152518
0.00017109
0.000148323
0.0842316
0.0860237
0.000146512
0.000181769
0.000173971
0.000878982
0.000170765
0.000179118
0.000220578
0.000165216
0.000213061
0.00018009
0.000148676
0.000166394
0.000168263
0.0282306
0.000148161
0.000259245
0.000171664
0.000180385
0.000149803
0.0845309
0.000156859
0.000152203
0.000147439
0.000165934
0.000165367
0.000166013
0.000148792
0.000150552
0.000171271
0.00869766
0.000174742
0.000148975
0.000150444
0.000166334
0.000212872
0.000149079
0.000179148
0.0148955
0.00016711
0.0528405
0.00016969
0.0264836
0.000227626
0.000148161
0.000887784
0.000149551
0.00015435
0.000163962
0.000165083
0.000188155
0.000173774
0.000165331
0.000166559
0.000161489
0.000153069
0.000145711
0.000169171
0.000155965
0.00015721
0.000208172
0.000155886
0.000158896
0.000147653
0.0244014
0.000177914
0.00014883
0.00015469
0.000151627
0.0292189
0.000195986
0.000163984
0.0483772
0.000234507
0.000339235
0.000188148
0.000234858
0.000147273
0.00018472
0.000148364
0.000155509
0.0162762
0.041586
0.000230296
0.000472631
0.000148736
0.0256839
0.00014725
0.000187181
0.000154337
0.0142171
0.0742411
0.000157143
0.000148007
0.000225717
0.000161885
0.000148117
0.0393826
0.000148474
0.000152316
0.000156013
0.000149307
0.000160988
0.000151759
0.000148564
0.000162636
0.00024552
0.000169415
0.000174805
0.0001481
0.0307981
0.0420677
0.000147886
0.000238531
0.000154262
0.000157178
0.0403464
0.000147865
0.00015054
0.000156555
0.0474393
0.000148158
0.000149152
0.000168496
0.0189029
0.000147766
0.000159439
0.000161251
7.1276e-05
0.00017078
0.000168144
0.000215513
0.000148491
0.000171661
0.000146012
0.0284031
0.000160168
0.000148411
0.00015845
0.000185252
0.00014892
0.000149197
0.000199548
0.0436412
0.000149891
0.0296907
0.000149194
0.000145967
0.000180166
0.000148152
0.00014805
0.0807892
0.000149811
0.000169309
0.000202361
0.0552568
9.33738e-05
0.000147755
0.000152683
0.00015639
0.000148394
0.000148544
0.000148564
0.00363569
0.000149252
0.00022594
0.000196131
0.00014775
0.000146679
0.000160658
0.000196118
0.000237473
0.000166138
0.000175773
0.000152679
0.0509348
0.000175005
0.000162292
0.000170094
0.000171074
0.000186455
0.0254253
0.000168758
0.0284911
0.0128316
0.0233598
0.000154618
0.000148183
0.000166396
0.000159236
0.000147491
0.000149931
0.000177138
0.000149593
0.00014959
0.000148269
0.000145296
0.0001528
0.000148736
0.0225872
0.000147986
0.0277914
0.000148447
0.000172731
0.000150358
0.000196595
0.000172532
0.000148577
0.0477928
0.000152607
0.000149467
0.000169419
0.000147326
0.000158641
0.000148381
0.0447983
0.000153281
0.00016992
0.000170497
0.0445119
0.000157596
0.000211565
0.000293617
0.000168838
0.000148953
0.000151399
0.000174866
0.000179287
0.0256214
0.000146757
0.0328203
0.000148813
0.000168936
0.0815974
0.000164484
0.011972
0.000154719
0.000163094
0.000153938
0.0862629
0.000160984
0.000148852
0.000168019
0.000197736
0.000152066
0.000148291
0.000148866
0.0669828
0.000149659
0.000156939
0.0640149
0.000155196
0.000148161
0.000170634
0.000154337
0.0287765
0.000145636
0.000148353
0.000147025
0.000154823
0.000149884
0.000149005
0.000181017
0.0607432
0.000148027
0.000148627
0.0331676
0.000149601
0.0164321
0.000153382
0.0827858
0.000147508
0.00015323
0.000146667
0.0297836
0.0643132
0.000158868
0.000168671
0.00015561
0.000148034
0.000148711
0.0448598
0.000148814
0.000187043
0.000147357
0.000171348
0.000149208
0.0480322
0.000146867
0.000172812
0.000147644
0.000214557
0.000295413
0.000147121
0.00016569
0.0864666
0.000182425
0.0189701
0.0093674
0.000200576
0.000151851
0.000164245
0.000188458
0.00241114
0.000149445
0.000168498
0.000156511
0.000148273
0.0266051
0.0380133
0.000182492
0.000201981
0.000225981
0.00016203
0.0574141
0.00014741
0.000147035
0.000185992
0.0842126
0.000211481
0.000197102
0.000440246
0.000146701
0.0854058
0.0343214
0.0800281
0.000149295
0.0324662
0.0463035
0.000309377
0.000396578
0.0456873
0.000187822
0.000160676
0.000200386
0.000154394
0.000148205
0.000894273
0.000189253
0.000145587
0.0359589
0.000149202
0.000158232
0.000170744
0.000155461
0.00015579
0.00016016
0.0122229
0.000172478
0.000154883
0.00480473
0.0741259
0.000198779
0.000149858
0.000154533
0.000181801
0.00016798
0.00014678
0.000172104
0.000166957
0.000194911
0.000148158
0.000205872
0.000153351
0.000167987
0.0300138
0.000214353
0.000151314
0.00018347
0.0345757
0.000149116
0.000150794
0.0790885
0.000219307
0.000153704
0.00015445
0.000148526
0.000173539
0.000156074
0.0460873
0.000187699
0.000150139
0.000149442
0.000166078
0.000158869
0.000173862
0.0300271
0.00014746
0.000148173
0.00015765
0.000149242
0.000153654
0.000151042
0.000150893
0.000154655
0.00014778
0.000153942
0.000149251
0.000173958
0.00259699
0.000149742
0.0573887
0.0169167
0.000146022
0.000181599
0.000185192
0.000178015
0.000150624
0.000189282
0.000157821
0.000168366
0.00016074
0.000151832
0.000149341
0.0252601
0.000159646
0.0118378
0.000150591
0.000148435
0.000148084
0.000172307
0.00014796
0.000174621
0.000180109
0.000309208
0.00014744
0.000250563
0.00554583
0.0465221
0.000146644
0.000192339
0.000218525
0.00710588
7.68207e-05
0.000150285
0.00014949
0.000191759
0.000258969
0.00386395
0.000169389
0.000239228
0.000149499
0.000147681
0.000164054
0.000149256
0.00014908
0.00019649
0.000149752
0.00016922
0.000147462
0.0736135
0.0575091
0.0217215
0.0283393
0.043518
0.00014902
0.000148896
0.0769781
0.000146928
0.000147233
0.00014599
0.000182031
0.0678535
0.0270206
0.000156141
0.000149145
0.000151599
0.000162556
0.0289873
0.000148113
0.0105185
0.0751464
0.000149202
0.000149119
0.0343162
0.000186018
0.00015241
0.000148277
0.0655382
0.0453742
0.00014855
0.000211004
0.000149668
0.0483212
0.000388002
0.000153001
0.0267168
0.0164174
0.0429963
0.000147306
0.000149405
0.000149605
0.000149897
0.0635553
0.000147706
0.000194809
0.000236294
0.023686
0.000150698
0.000173088
0.000240635
0.000172591
0.0740414
0.0540209
0.000145427
0.00015616
0.000156312
0.000198392
0.0523537
0.000145159
0.0231732
0.000160273
0.000171201
0.000150647
0.000147501
0.000215692
0.000167389
0.0189238
0.000149254
0.000172897
0.000150454
0.000196783
0.000153926
0.0593936
0.00237234
0.000199188
0.000190022
0.000148095
0.000152737
0.00018771
0.000180944
0.0570723
0.0840614
0.000148911
0.0137769
0.000169815
0.0745777
0.00015807
0.000169371
0.000167838
0.000148929
0.051117
0.00014839
0.000163453
0.029598
0.0715536
0.000497674
0.0677231
0.000157591
0.000174112
0.000146774
0.0742566
0.000156612
0.0280959
0.000146708
0.0365056
0.000144996
0.000147965
0.000162947
0.000158439
0.00015966
0.000148239
0.0362834
0.000171991
0.000147737
0.000165323
0.0305283
0.000229326
0.000148501
0.058905
0.000153599
0.000165228
0.000163674
0.000145824
0.00017689
0.000147929
0.0139475
0.000172188
0.000158116
0.000148276
0.000222128
0.000168271
0.000146703
0.0343724
0.00179085
0.000218223
0.000146338
8.66307e-06
0.000148863
0.000189363
0.000158851
0.000179934
0.0056512
0.035374
0.000159523
0.0673559
0.000169029
0.000157471
0.000146946
0.0464899
0.000178392
0.000188169
0.000165034
0.000149589
0.0171195
0.000181899
0.000227028
0.000227001
0.0854923
0.0364337
0.00341367
0.034476
0.000157781
0.000158589
0.000148566
0.000148856
0.000145306
0.000206304
0.000158241
0.000159716
0.0650958
0.000147726
0.000146943
0.000170467
0.000198142
0.000158843
0.000147122
0.0671584
0.000153674
0.000173947
0.000149271
0.0235834
0.000157039
0.0713398
0.000166233
0.00016434
0.000170663
0.000148523
0.0106113
0.000242437
0.000178847
0.000148594
0.000147236
0.0221404
0.0459455
0.0431523
0.000147808
0.000179086
0.000164118
0.000148821
0.000147943
0.000148844
0.0669426
0.000170947
0.000162664
0.000158739
0.000156841
0.0400461
0.000178242
0.000220235
0.000157508
0.00016329
0.000145264
0.000181743
0.000172255
0.00014832
0.043441
0.0562859
0.0622102
0.0420909
0.0423664
0.0834623
0.0787518
0.000151405
0.000147869
0.0586217
0.0395444
0.0240549
0.000148714
0.000168931
0.000148567
0.000147998
0.00714393
0.0732899
0.000180441
0.000147975
0.00023259
0.000189094
0.00017324
0.0374705
0.000622037
0.000237732
0.000147272
0.059337
0.00266813
0.00021914
0.000163637
0.00017024
0.000149243
0.000147176
0.00016716
0.000171167
0.000153629
0.000169614
0.000158808
0.000154195
0.000214964
0.0341247
0.000159051
0.000170955
0.0458424
0.000209204
0.000148678
0.000191763
0.000224838
0.0257955
0.000168259
0.000149095
0.000160415
0.000156778
0.000158273
0.000145824
0.00015892
0.000162616
0.000173239
0.000198735
0.000149495
0.00015142
0.0361971
0.0469072
0.0717576
0.000238992
0.000193983
0.000144824
0.00014849
0.000160995
0.000146654
0.0868447
0.000148445
0.00014981
0.000146257
0.0434976
0.0171566
0.000149907
0.000180495
0.000157986
0.000161416
0.000160498
0.000159702
0.000169253
0.000165616
0.0212167
0.000156862
0.0413697
0.000166431
0.0707973
0.0001596
0.000147406
0.00014688
0.000189814
0.000199564
0.00014673
0.000162718
0.000159897
0.000174754
0.0258947
0.0239481
0.0214955
0.000149809
4.08235e-05
0.000158415
0.000163966
0.00014826
0.000178319
0.000152463
0.0276755
0.000274678
0.000165375
0.000148472
0.0462293
0.000155759
0.033904
0.0382636
0.000214792
0.00015333
0.000195261
0.0302421
0.000174985
0.0495806
0.000175894
0.000148227
0.000166506
0.000147841
0.0805725
0.000153732
0.000161565
0.000234868
0.0685137
0.000148019
0.000148086
0.0430041
0.000168551
0.0810616
0.000158684
0.000148275
0.000169631
0.000213759
0.000162305
0.0101859
0.000163829
0.000153034
0.000154916
0.000149605
0.000147994
0.000209827
0.000150515
0.000180852
0.000148611
0.000148511
0.000206276
0.000156963
0.000148938
0.000148172
0.000163694
0.000170516
0.000171306
0.000167467
0.000155159
0.000176784
0.00014856
0.000189055
0.000161187
0.000170655
0.0001669
0.000159419
0.0001736
0.000162989
0.000147713
0.000182075
0.0492635
0.0326299
0.000149059
0.000513133
0.0332556
0.000148065
0.000150529
0.000221885
0.040088
0.000156163
0.0326979
0.000229162
0.000148918
0.000187596
0.000145267
0.000156547
0.000177491
0.0246631
0.000201196
0.000227883
0.000246776
0.0419162
0.0526433
0.000152601
0.0438627
0.000148375
0.00216514
0.0499515
0.000148591
0.000148431
0.0318483
0.000149003
0.000148508
0.000251404
0.0550033
0.000213349
0.000157023
0.0451521
0.000148586
0.0461693
0.0377662
0.000149204
0.000175619
0.00629714
0.0453502
0.0343679
0.0385166
0.0309526
0.00014721
0.00015151
0.000178135
0.000180913
0.000148482
0.000208218
0.000148311
0.0392139
0.000247716
0.000164072
0.00023082
0.0399052
0.000243798
0.000214691
0.000165094
0.0197494
0.000240294
0.000155716
0.000145552
0.0045459
0.000161089
0.000146852
0.0842223
0.000148096
0.00691124
0.000149116
0.0697374
0.000156057
0.000148052
0.00561286
0.00015596
0.0001604
0.0286427
0.0669021
0.000410184
0.00015897
0.000172901
0.000151707
0.000169348
0.000196457
0.000169773
0.000149347
0.000308926
0.000178947
0.000161279
0.03004
0.000169099
0.000162013
0.000195789
0.000182027
0.000172472
0.000148021
0.000202278
0.000146899
0.000196539
0.000178122
0.0411443
0.000147071
0.000167166
0.0256401
0.000152192
0.000177221
0.000162749
0.000169068
0.0662671
0.000179109
0.000151874
0.0217211
0.000147125
0.0455425
0.000148756
0.000151505
0.000196548
0.0439248
0.000161343
0.000188157
0.00021624
0.000162769
0.00014935
0.000176762
0.000170732
0.0649369
0.000155224
0.00414592
0.000199512
0.00016276
0.00016027
0.000176976
0.000165499
0.000167608
0.000179171
0.000162338
0.000153772
0.000149113
0.000552513
0.000148375
0.000159248
0.000145411
0.000193816
0.000159787
0.00017925
0.042406
0.000151212
0.000213519
0.000144588
0.000149137
0.000149205
0.000149321
0.000157625
0.000147585
0.000187982
0.0260464
0.000179246
0.000172343
0.000155428
0.000148645
0.000216659
0.000148495
0.0228309
0.0258849
0.0288493
0.000200716
0.000163257
0.000158427
0.000149125
0.000157924
0.000169844
0.000168279
0.0488597
0.000179202
0.0599802
0.000200605
0.00014935
0.000146839
0.0322816
0.000148024
0.000160867
0.000166087
0.000226096
0.000152406
0.0642921
0.000149086
0.000155484
0.000148578
0.00015041
0.000176748
0.000193133
0.000149373
0.000163917
0.000159485
0.000172987
0.000178911
0.000211814
0.000197425
0.000206672
0.000197925
0.000157239
0.000151287
0.000178723
0.0432904
0.0732973
0.0481916
0.000163147
0.0126092
0.000192522
0.000151036
0.000147921
0.000180785
0.000148888
0.000163867
0.0228834
0.000147944
0.000147414
0.000256625
0.00848189
0.000174071
0.000394914
0.000148991
0.0259484
0.000168166
0.0721655
0.000157151
0.000148551
0.047013
0.000164836
0.000148494
0.000171192
0.000149661
0.000188046
0.000159213
0.000164477
0.0859316
0.000159454
0.0413557
0.000147592
0.0539487
0.000149015
0.00015637
0.000150109
0.000170297
0.000148871
0.000165833
0.0460465
0.000228348
0.000173558
0.000160751
0.000168192
0.000147928
0.000148935
0.000151657
0.000603272
0.000155779
0.072863
0.0348399
0.000186877
0.000149393
0.00019009
0.000201605
0.000198903
0.000156933
0.0396745
0.000148153
0.000144822
0.000148016
0.00398482
0.000148859
0.000148409
0.0475585
0.000147987
0.000197746
0.000171153
0.000147606
0.0585146
0.000159719
0.0696162
0.000148139
0.000292985
0.000151008
0.000167088
0.0286467
0.0001808
0.000147785
0.00015853
0.0267414
0.000163704
0.000191359
0.000162049
0.000156252
0.000185454
0.00015798
0.000149615
0.00720217
0.000159713
0.000159737
0.000199196
0.000148061
0.000147403
0.000149194
0.000162632
0.000149006
0.00015504
0.047357
0.0146771
0.000170738
0.00952406
0.000180502
0.000165752
0.0701018
0.0511792
0.000149977
0.0167077
0.0421418
0.0341688
0.000929017
0.000161288
0.0235814
0.0502883
0.0446219
0.000931885
0.0744333
0.000162703
0.000169197
0.000157663
0.000157018
0.000149604
0.000243136
0.000149893
0.0185607
0.000173858
0.000196369
0.000145161
0.000184469
0.000163505
0.000152098
0.000149951
0.000148679
0.000173353
0.000152968
0.000149679
0.00017008
0.058058
0.000153977
0.000189851
0.000146774
0.000173351
0.000168912
0.000149132
0.000156
0.000147595
0.069573
0.0595728
0.000202877
0.0028548
0.000160914
0.000187046
0.000148807
0.000170547
0.000148693
0.000149673
0.00014952
0.0464831
0.000146758
0.000173505
0.000239824
0.000157192
0.000162139
0.00014807
0.0696402
0.000201959
0.0404956
0.0329234
0.000197746
0.000226913
0.0300545
0.00022643
0.000199198