/*--------------------------------*- C++ -*----------------------------------*\
| =========                 |                                                 |
| \\      /  F ield         | OpenFOAM: The Open Source CFD Toolbox           |
|  \\    /   O peration     | Version:  v2012                                 |
|   \\  /    A nd           | Website:  www.openfoam.com                      |
|    \\/     M anipulation  |                                                 |
\*---------------------------------------------------------------------------*/
FoamFile
{
    version     2.0;
    format      ascii;
    class       volScalarField;
    location    "850";
    object      ddt0(k);
}
// * * * * * * * * * * * * * * * * * * * * * * * * * * * * * * * * * * * * * //

dimensions      [0 2 -3 0 0 0 0];


internalField   nonuniform List<scalar> 
13851
(
3.40385e-07
0.00268524
-8.955e-07
1.5225e-07
-1.37136e-07
0.000111751
6.77865e-08
-1.13491e-07
3.44413e-08
-8.15749e-07
-0.000127602
-0.00771208
-0.00119813
-0.00537969
7.4187e-08
4.40225e-07
7.28044e-08
-4.57202e-07
-0.000471876
3.76788e-08
1.29241e-07
-7.58234e-07
-1.7734e-07
-6.59313e-08
-2.13476e-07
-8.95544e-08
5.31925e-08
-0.000179477
3.07829e-07
-8.59218e-08
0.000197082
6.91706e-08
-7.16289e-07
-0.000769467
-6.42851e-08
2.10919e-06
0.00018285
1.41416e-05
-1.66844e-06
0.000127322
7.13981e-08
-2.21578e-08
-5.08975e-05
-0.00026679
0.000174531
0.00168153
-0.000135105
0.00327752
5.35296e-08
0.000123832
5.32028e-07
1.49444e-06
-0.000350463
8.1808e-08
9.23757e-08
-1.9654e-08
-8.18515e-08
-0.000358879
-7.06318e-08
7.22553e-08
-2.42621e-05
0.00338405
-3.52927e-06
2.20169e-08
0.000924208
8.47115e-07
0.00071357
-0.000340273
8.91329e-08
-3.86684e-07
0.000195129
0.00173633
0.00370105
8.62184e-08
6.08616e-08
5.8877e-08
-6.50049e-07
8.38343e-05
5.41632e-08
0.000151293
5.37888e-08
0.000207318
5.3565e-08
0.000469212
-4.15928e-06
-0.00958622
6.47711e-07
0.00252229
5.95771e-08
-7.555e-08
2.09392e-06
2.32816e-05
-0.000515203
6.39936e-08
5.86225e-08
-1.36986e-07
-7.92092e-08
-0.000421593
0.000208517
-1.45523e-07
-0.0104749
2.0062e-07
1.44905e-07
5.69142e-08
-5.64981e-08
8.04757e-06
2.68154e-07
-7.92714e-09
0.00190262
0.000175598
-1.15354e-07
-7.59421e-08
5.49897e-06
-7.54293e-08
-1.06878e-07
-0.00890558
-0.000489662
-7.2491e-09
2.293e-08
9.15106e-08
-0.000117556
5.5074e-08
-0.00115087
-0.00684657
0.00174443
-7.17637e-07
0.00142305
9.89726e-08
5.18993e-08
1.35791e-08
7.21923e-08
4.2171e-08
0.000247469
5.38363e-08
-0.00520665
4.98812e-08
-7.21611e-09
0.00158769
0.000434111
0.00512707
-0.00802083
9.53307e-08
8.15693e-08
-6.17921e-08
4.72159e-08
-0.000629196
-1.32005e-05
-1.33762e-07
6.89985e-08
0.00106632
9.35653e-09
8.05251e-08
-0.00858658
-9.33828e-08
4.77003e-08
4.82363e-08
7.48167e-08
1.45437e-09
1.43499e-06
5.40334e-07
-5.25177e-08
6.29876e-08
-0.000426775
4.18394e-08
-1.94258e-07
-3.86648e-08
-6.33539e-05
8.71574e-08
3.92229e-08
0.0011151
8.78002e-05
2.30924e-08
7.94218e-08
0.0051183
4.11769e-08
0.00588049
9.40339e-08
-4.56868e-07
-0.000505975
-1.15237e-08
8.6132e-08
0.0016888
5.65684e-08
-9.27055e-07
-1.47215e-08
-1.69237e-07
9.41128e-07
9.34668e-08
-4.36989e-07
2.79904e-06
-0.000384305
-0.000418026
9.42116e-08
7.38732e-08
0.00222715
4.65353e-08
1.47003e-07
0.003091
-3.34563e-07
6.42669e-08
-4.72389e-07
0.00323721
3.37421e-08
6.78229e-08
9.83032e-07
5.53047e-08
-0.00409849
6.75804e-08
0.000117762
-2.2186e-08
-0.000213333
1.32787e-07
0.000868117
-8.20722e-09
-4.36136e-08
-8.9296e-05
-4.31765e-06
0.00184234
6.88419e-08
9.3678e-05
6.44879e-08
5.3474e-08
-0.000856898
9.85896e-07
0.000177567
-1.87529e-07
6.16602e-08
-6.98411e-08
-0.000291551
-1.13672e-08
-9.69029e-08
7.22501e-05
2.31525e-08
5.43711e-08
3.93639e-07
-2.69243e-06
-0.00385865
0.00241296
-5.71495e-08
6.82664e-08
0.000109707
-0.00370661
1.57158e-08
1.20098e-06
-3.92173e-08
9.8567e-05
1.61734e-07
0.00210028
4.55363e-08
1.00826e-07
1.02535e-06
-0.00305315
5.00864e-08
4.40499e-08
2.4157e-07
-0.00666642
1.51424e-06
0.00128883
0.000233344
6.76788e-08
-4.53009e-08
-2.11012e-07
0.0111231
-7.96634e-08
-0.000232649
4.61816e-08
4.99435e-08
6.24163e-08
-0.000971287
-0.000329761
6.63334e-07
4.70092e-08
0.00467633
5.04412e-08
3.62667e-07
4.30061e-08
0.000338331
-0.000618767
0.000634536
0.000209739
-8.00057e-08
-1.9465e-08
-4.61554e-08
2.09561e-07
0.00973036
0.00656416
5.37916e-08
7.74718e-08
0.00367096
7.10196e-05
1.41448e-06
-4.51463e-08
7.12672e-08
8.4802e-08
-1.20925e-05
-0.000676118
-5.61072e-08
-0.00745435
4.20416e-08
6.1458e-05
6.30232e-08
7.04387e-08
0.000525859
8.73334e-08
2.27682e-06
-0.00040675
5.29412e-08
1.55421e-07
6.30647e-08
-2.89341e-08
0.00104849
-9.81785e-08
5.02363e-08
-0.000800935
-2.90245e-08
1.05058e-07
7.74011e-07
0.000788682
-4.56549e-08
6.73992e-08
2.18648e-07
7.01409e-08
0.00021395
4.79657e-06
-1.67568e-07
9.65266e-08
6.07699e-09
6.40181e-08
4.82513e-08
7.83395e-08
8.86778e-08
5.0872e-08
-3.64269e-05
-0.00514407
0.0012304
-2.71022e-07
0.000678661
0.00172283
7.46964e-08
6.64756e-08
6.63593e-07
1.20771e-05
-4.1967e-06
1.49528e-06
-0.000464938
2.11895e-06
0.00771074
-0.000204567
7.8044e-08
0.000299736
0.000251381
-0.00018597
4.83693e-08
-4.48746e-06
-0.000373385
8.41528e-08
0.00663405
9.31252e-08
7.32063e-08
-4.00608e-08
-8.54921e-09
6.76296e-08
-0.000264857
0.00114432
6.77069e-08
1.35007e-07
-3.91622e-08
-0.00423731
7.99904e-07
0.00396534
0.00106653
7.16991e-08
-5.10013e-06
6.8339e-08
0.00493387
6.28324e-08
-8.41567e-09
6.2231e-06
-0.00996662
7.71819e-08
-0.000141734
1.56997e-05
1.69671e-06
0.00134057
0.000479819
0.000495692
-2.48955e-06
4.16328e-08
9.85255e-08
-1.55788e-07
2.25854e-07
-0.00669828
9.23571e-08
0.000209928
-0.000364395
-3.86605e-08
7.01046e-08
0.00134078
0.0002274
1.80026e-05
-0.000658112
1.75541e-06
7.28559e-08
-1.6377e-07
0.00210242
2.48408e-08
3.44865e-07
-2.19543e-06
7.1912e-08
-5.91079e-08
4.71087e-08
-3.91154e-08
2.50441e-07
-3.22645e-06
0.000177995
-2.94763e-07
2.5231e-07
2.46338e-06
-0.00209124
1.33123e-07
0.00114444
6.78017e-08
-4.4789e-06
-6.51738e-09
4.42846e-08
-1.77559e-07
0.000266476
-0.000195409
8.09941e-07
2.8355e-06
0.000350858
-0.00137925
-9.95336e-06
8.10415e-08
3.84999e-07
6.2072e-08
-0.00116414
-8.57335e-08
0.00211749
0.00162883
-6.41427e-07
9.52663e-05
-2.00772e-07
5.56095e-05
0.00141493
-0.00384178
-1.16185e-08
6.57388e-08
5.79589e-08
-0.000733193
2.32557e-08
5.07227e-08
3.72759e-08
1.74765e-06
-9.10753e-07
0.00182999
-1.82461e-07
1.07755e-07
-0.000429664
-3.7873e-07
-2.01328e-08
0.00325873
4.14371e-08
2.46718e-07
2.66659e-08
8.26394e-07
2.14092e-08
-1.91595e-08
-1.66493e-08
-0.000844662
5.29546e-08
1.01852e-07
5.13215e-08
-1.78175e-06
-0.000253625
-6.59047e-08
6.09283e-08
-7.70994e-08
-8.24692e-08
0.000520247
5.15039e-08
1.36164e-05
5.77717e-08
-1.61778e-07
-0.00444585
0.000117281
5.73908e-08
-1.52096e-06
1.40963e-07
-0.0037662
0.000712673
1.11138e-07
0.000504748
6.40899e-08
-3.98197e-07
7.56717e-08
0.00031611
-1.15876e-08
-0.000173225
3.51675e-06
-2.45631e-08
-1.78119e-06
1.64742e-05
-2.99181e-08
0.000738225
3.45964e-08
-0.00174726
9.62282e-08
3.98852e-08
4.23127e-08
6.56307e-08
0.0002212
4.11167e-07
1.36022e-06
-0.000273929
-2.91216e-06
-5.59264e-08
8.82451e-05
-0.000154752
8.70909e-08
6.26454e-08
-0.000238203
-0.00789192
-0.000252062
1.06188e-07
0.000402532
0.00133066
0.0032505
-1.08712e-07
-1.74441e-06
0.00250102
-7.60066e-05
-0.00676872
0.00250587
0.00143343
-9.70376e-09
0.00135321
0.000186431
-6.40231e-09
-0.000349025
4.02989e-07
0.000134022
3.88271e-08
6.19708e-08
7.08388e-08
8.07113e-08
-2.38381e-07
-2.33722e-06
0.00352859
0.00157393
4.42407e-08
-0.000424471
-6.34997e-06
-9.04788e-06
0.000785193
9.62539e-08
-1.56774e-08
3.9505e-08
0.000154031
-1.40417e-05
4.77459e-08
1.66414e-07
1.18569e-06
-1.83777e-08
5.71438e-06
-0.00496223
-0.00120767
1.40421e-06
0.000222917
0.000437449
6.72006e-08
7.1609e-08
-0.001779
-0.000355729
5.29389e-07
9.58731e-08
-1.0644e-05
-8.62994e-09
5.91244e-08
0.00174099
-1.64083e-08
4.09305e-08
-9.13423e-09
4.77128e-08
-3.62862e-06
-4.10248e-08
1.48365e-06
-1.49088e-08
-4.05198e-06
0.00174224
4.2113e-08
-7.51699e-08
-9.3888e-08
9.88294e-08
-0.00844867
0.00234017
0.00181786
0.0038407
-0.00101615
8.56325e-08
0.000141169
0.000138731
2.50175e-06
8.09121e-08
-1.66305e-08
-1.26444e-06
2.82031e-07
-0.000892829
0.00930018
2.17137e-07
9.17976e-08
3.42571e-08
4.40957e-07
5.58632e-07
0.00042187
4.1896e-07
5.84133e-08
-6.30944e-07
2.3761e-08
6.02981e-08
5.97808e-07
7.43879e-08
5.97644e-08
9.95634e-07
6.56515e-08
-2.19845e-07
0.000194143
1.06456e-06
6.38895e-07
4.4819e-07
3.27742e-08
-1.23486e-05
2.61698e-06
0.00401402
1.24111e-07
-1.28245e-07
0.00184615
2.61265e-08
0.00126524
-9.38329e-05
0.00155941
0.00247516
2.38711e-08
0.00192611
-7.57517e-08
4.6085e-08
-1.14454e-08
4.82641e-08
-1.08975e-05
-3.70865e-07
1.85262e-07
-1.3043e-08
0.00113744
4.21418e-06
0.000256698
5.52677e-08
-1.50707e-08
-1.09067e-07
5.1044e-07
0.00172895
1.75169e-07
6.07955e-08
-1.07218e-08
-1.75896e-07
1.49827e-08
7.75855e-08
-2.07892e-05
-0.000500353
6.78416e-08
-1.13983e-08
6.49064e-08
7.90887e-08
0.000579115
-0.000630619
5.75014e-07
-0.000166559
-0.00311209
5.79649e-08
1.49785e-06
-0.00588416
8.7652e-08
-0.00956988
5.31824e-08
-2.92129e-07
1.80199e-07
-2.30088e-07
0.00105784
5.71381e-08
0.000608868
-8.54084e-08
7.064e-08
6.47715e-05
4.83945e-08
1.32338e-07
-1.6105e-05
4.0656e-08
8.01058e-08
0.00510853
0.00609271
3.68734e-07
-0.000388379
0.000390994
-9.17986e-09
5.16065e-08
-0.00043348
2.73938e-06
-3.0545e-06
-0.000138908
3.07654e-08
1.34335e-07
-7.19519e-09
0.000849358
-0.000963548
-5.75267e-08
6.27369e-08
-0.000369085
5.41172e-08
-1.07176e-07
-0.000688088
-0.0110427
-0.000279746
-2.80371e-08
6.92523e-08
0.000118664
-0.000569438
7.97271e-07
4.76397e-07
0.000415117
5.50694e-08
-0.000260888
-1.7338e-06
-7.35694e-07
8.05138e-08
0.0013345
-2.02268e-06
9.875e-07
8.70046e-05
-1.19619e-07
4.46174e-08
1.23051e-08
3.08932e-08
-0.000704191
1.69385e-07
1.54255e-06
1.50634e-06
-0.000656011
3.77709e-08
0.00918471
-2.38424e-08
-2.49356e-06
-2.26982e-08
5.56027e-08
7.22308e-08
-0.000352906
7.15265e-08
-1.26439e-08
-0.00149069
7.22308e-08
0.000100052
-1.28007e-07
3.3418e-07
3.57305e-07
0.000317345
0.00265363
4.49993e-08
0.00196462
-0.000116756
5.04345e-08
-0.000643632
6.95521e-08
2.77443e-08
5.62418e-05
-0.000209466
0.000939011
8.98724e-08
4.82224e-08
-9.22242e-09
0.00145751
-1.10979e-06
5.01246e-06
-7.16918e-08
5.24366e-05
9.75128e-08
3.70254e-07
2.47299e-08
-0.00231829
-4.38921e-07
0.0110141
6.706e-08
-3.57177e-07
7.93257e-07
0.000954202
-9.85059e-08
-0.0039658
-0.000144255
7.07292e-08
0.00209683
-7.38584e-06
0.00103101
0.00316023
-0.000684823
-0.00239892
4.02412e-07
2.87651e-08
8.75754e-08
-0.000361041
0.000825302
6.48089e-08
-1.69442e-07
4.15335e-07
-0.000142932
-2.2599e-08
-0.000729251
3.07028e-08
5.5677e-08
-0.000547242
0.000110615
0.000380343
4.80025e-08
7.3003e-08
-0.000605169
-2.16801e-05
5.13593e-07
1.0503e-06
0.000698076
0.000111603
0.00105768
2.42653e-07
1.37767e-07
5.02237e-08
7.52417e-08
0.00509538
1.19322e-07
0.000225223
1.02175e-06
9.36857e-08
-0.00067631
0.000987916
3.08017e-05
6.2803e-08
7.68755e-08
4.07872e-08
5.52994e-07
1.36415e-07
-0.00623877
1.38341e-07
0.000225843
-2.17071e-08
3.88398e-07
5.62347e-08
1.13551e-05
8.86245e-08
7.70981e-08
-0.000288787
1.52472e-07
5.45605e-07
-8.77812e-08
3.99633e-07
0.00558885
-6.58462e-06
3.23876e-08
9.04681e-05
-4.9886e-08
-0.00149374
0.000312285
5.31093e-08
-0.000130174
-0.011654
7.82484e-05
-0.00233687
1.92734e-06
8.11192e-08
-0.00026364
1.44137e-07
-0.00562428
0.000136173
5.9305e-08
5.03726e-08
0.000242269
0.000292333
-0.00400563
5.60538e-08
-2.81055e-08
-0.00438245
9.17766e-05
1.47245e-06
7.48149e-08
6.99176e-07
-0.00120482
0.000134376
8.43795e-07
-1.28233e-08
2.06558e-07
4.17359e-08
4.21444e-08
0.000293025
-1.57791e-07
0.00230846
-0.000520334
5.88516e-08
-4.24646e-08
8.43281e-08
1.02917e-08
0.000221219
0.000310847
6.41251e-08
-0.00373686
5.86861e-08
6.94713e-08
7.49586e-08
4.12017e-08
8.13858e-08
6.01542e-08
0.000186238
5.62191e-08
2.07724e-07
6.21533e-08
1.14739e-07
0.000455097
-0.000187553
2.25582e-08
-0.000910326
4.78772e-06
-0.000147352
1.74185e-07
1.00584e-07
0.000191894
5.96657e-08
-2.73283e-06
-0.00546016
-0.000443757
8.1196e-05
-1.8008e-08
0.000714994
1.14595e-07
1.34685e-07
2.01224e-07
-0.00383497
1.20362e-08
0.000189472
4.94136e-08
5.8944e-08
-0.00267413
7.11128e-07
-0.000976626
8.75753e-08
4.24267e-08
4.62394e-06
4.23053e-08
7.42865e-08
-3.61738e-07
5.77217e-08
-1.26986e-05
6.31548e-08
-1.21921e-05
4.6475e-05
1.9153e-06
0.00639767
7.44675e-08
-3.51969e-08
2.61628e-07
8.14584e-08
4.40718e-08
5.83271e-07
5.57149e-08
7.18781e-08
7.10625e-08
-1.8371e-07
4.70051e-05
0.000292414
-4.6343e-06
-0.000654623
5.62537e-05
6.14805e-08
0.00184829
8.70653e-08
6.30279e-08
-0.00068152
-3.33823e-05
-0.00106614
6.18208e-08
-0.000134743
-0.00199534
-0.00027965
2.56797e-08
-0.00106491
1.8751e-07
5.24652e-08
-2.80936e-07
2.74619e-08
-0.00112447
-7.80454e-06
0.00350402
3.95247e-08
5.42191e-08
-8.67327e-05
5.16011e-08
0.000669565
-0.00126935
0.0108396
-0.000478791
-0.0011487
-1.77797e-07
8.35279e-08
-4.72514e-06
-3.27177e-06
5.40332e-08
-3.01134e-06
-3.36344e-08
5.39543e-08
6.17218e-07
0.000568882
7.05699e-08
1.37601e-05
-0.000987585
-0.00241301
3.51944e-06
1.01609e-07
-5.40821e-08
4.88915e-08
-0.000147421
-0.00027906
2.48928e-08
-5.6007e-08
3.21667e-08
6.68257e-07
-2.28634e-08
2.85132e-08
5.20393e-08
6.42637e-08
-0.000307489
-2.74846e-06
-7.76021e-07
7.21263e-08
1.12312e-07
0.000376182
5.30243e-08
0.00207331
0.00281835
5.05676e-07
-3.64894e-08
1.62659e-07
6.27476e-08
-1.76219e-07
4.60367e-08
8.32219e-05
1.9841e-07
-0.000623759
5.50895e-08
-0.000100329
5.76182e-08
-6.93335e-08
9.51007e-08
0.00133278
0.00156445
-5.121e-08
6.12452e-08
-3.11609e-06
0.00019165
-7.14698e-08
0.00398643
-1.3414e-05
-0.00439853
-8.04862e-07
-0.000808669
-1.0948e-09
6.19212e-07
0.000198393
-1.46306e-05
-0.00136793
0.00375036
-9.82844e-08
-2.11165e-06
-2.56367e-08
3.04858e-08
5.75236e-08
5.43319e-08
4.30703e-05
1.61838e-07
6.76815e-08
-0.00230925
2.9716e-06
0.00225662
6.96029e-08
5.06601e-08
-6.18044e-08
-5.24085e-08
-4.40222e-08
-0.00125437
0.00313717
0.00613735
5.7615e-08
6.03821e-08
1.16531e-06
-0.00520477
-0.000723685
-4.51869e-06
-1.84679e-08
5.53733e-08
0.000643116
-7.55171e-08
0.000678697
0.00102847
4.89236e-05
-3.74969e-08
-0.000360777
2.66458e-07
2.60981e-08
6.80681e-08
-0.000437944
0.000237195
-3.0095e-08
1.58829e-06
1.48442e-07
-2.49144e-06
5.21927e-08
0.000180984
-3.14859e-06
4.67413e-05
-0.00100814
5.66193e-08
1.17375e-06
4.78833e-08
-0.000439714
-4.7541e-06
-1.06156e-07
-0.00386062
3.42235e-05
-0.00586134
0.0012317
7.95281e-08
8.55352e-08
0.000176252
0.00071525
0.000368262
1.08694e-07
6.97768e-08
6.50038e-08
5.96454e-05
1.89773e-07
5.69759e-08
1.18111e-05
-1.28738e-06
-0.00265524
-0.000490027
0.00569019
6.55464e-08
0.000349641
5.47901e-08
6.42397e-08
1.49943e-06
0.00256976
6.8583e-08
4.69395e-08
-0.000196719
-0.000662113
-8.03642e-07
5.54721e-08
0.000826794
-1.03072e-07
0.000354012
5.93001e-08
-0.00388553
8.98506e-08
2.14648e-07
0.00258817
-0.000791168
4.87677e-08
-0.000508127
2.02766e-05
0.0011865
-0.000780587
-0.00446363
4.27767e-05
6.55527e-08
0.00289645
-6.6608e-08
6.92809e-08
-6.4686e-08
-0.000651159
5.69786e-08
0.000116754
4.82315e-08
1.19029e-06
0.000147302
-4.62703e-07
0.00243803
4.85069e-08
5.17092e-06
4.31215e-08
8.20449e-08
0.000578502
-0.00685444
4.97729e-08
3.8788e-07
0.00013918
9.36483e-08
3.08016e-08
-6.1639e-05
7.39723e-08
6.20131e-07
1.50856e-06
0.00531279
0.000401207
0.00064179
0.00136559
5.59705e-05
3.73961e-05
9.46838e-06
0.0111032
3.38449e-07
-2.595e-08
8.09459e-07
6.48947e-08
6.50091e-08
-3.38826e-05
7.37029e-06
4.22968e-08
-0.00973753
-4.65346e-06
3.14759e-05
-5.71349e-05
6.37618e-06
7.14576e-08
-8.97534e-06
4.09536e-05
-9.19562e-07
4.84696e-08
-0.000513989
-0.000550315
0.00551414
-0.00054288
1.56086e-06
0.000263255
-0.000359077
8.01978e-08
8.47679e-08
8.15701e-08
3.91213e-05
5.41844e-08
-6.73685e-06
9.64307e-08
5.05326e-08
1.81106e-08
-8.39052e-05
0.000686782
-0.000828886
4.13696e-08
-0.000162182
-8.15326e-08
-2.75639e-07
5.8647e-08
-1.06288e-07
-2.38215e-05
1.43287e-07
0.000155325
0.00520207
2.24661e-05
5.43625e-07
7.84618e-08
1.14888e-06
7.74012e-08
-7.16441e-07
-3.98753e-07
4.83845e-08
3.71619e-08
8.77529e-08
1.69916e-06
4.92143e-08
2.19592e-07
-8.60289e-07
2.62623e-07
-9.27433e-06
0.000219817
8.7668e-08
1.25384e-07
-8.11899e-08
-1.36264e-05
-8.89375e-07
0.00130045
2.43196e-06
8.1239e-08
5.13053e-08
1.04503e-07
2.41932e-05
6.76522e-08
-0.000428196
7.71486e-08
5.58574e-08
1.89643e-07
-0.000752161
6.55529e-08
5.32183e-07
4.94215e-06
-1.74772e-07
6.2761e-08
-0.000739324
0.000195927
7.78302e-08
5.17583e-08
6.50816e-06
-2.01088e-08
8.9985e-08
3.4373e-06
0.000210667
-1.29246e-07
-5.37714e-07
2.18559e-05
8.99191e-06
5.49031e-08
5.07219e-08
0.000222749
4.92115e-08
3.21743e-05
-1.63236e-05
0.00117328
9.15516e-08
-1.27415e-06
6.19025e-08
0.000148226
-4.23983e-07
-6.13786e-09
8.88131e-07
-0.000521643
5.05866e-08
0.00069413
-0.00050874
5.81413e-08
0.000239496
5.24938e-07
9.576e-08
0.000200743
6.80646e-08
6.62299e-08
2.72816e-08
3.12295e-06
-1.03151e-05
1.21012e-06
4.79339e-08
5.34649e-08
7.23745e-08
0.00204471
-0.00107475
0.000547553
0.000811385
5.34506e-08
-4.40811e-07
-4.1243e-07
0.00015821
-4.58404e-07
-0.000185843
5.40032e-08
7.1052e-06
2.74345e-08
-0.00957637
3.8276e-07
6.10647e-08
-4.6462e-05
3.37837e-06
8.53881e-08
7.7275e-06
-2.60748e-08
-1.72271e-07
9.28372e-07
2.2272e-07
-0.000968739
2.58839e-07
-5.40296e-07
1.39079e-06
-5.09735e-07
-0.00412201
1.30391e-05
0.000313324
8.84245e-08
6.84313e-08
-2.53494e-05
0.00111218
0.000113298
1.60777e-05
-5.26185e-08
0.000399594
0.000648456
5.46919e-08
5.81271e-08
5.22492e-08
1.30633e-07
5.04571e-07
-0.000180671
-0.000612415
-0.000740305
4.88614e-08
0.00130155
0.000103443
6.74516e-08
1.06408e-05
0.00107153
-2.61553e-06
5.12372e-08
2.76428e-07
-1.21094e-08
1.14509e-07
-4.73713e-07
6.2919e-08
0.00027548
0.000176507
0.00050391
0.00214875
5.2213e-08
8.35058e-07
1.76714e-06
-1.27263e-07
8.78458e-08
2.48082e-08
-0.000999054
5.91961e-08
-0.000218934
1.04826e-06
-2.50265e-06
-1.14245e-06
-1.80524e-05
8.29107e-05
-0.000221874
1.31649e-07
-4.07808e-08
5.84028e-06
-0.000519357
-0.000689953
5.8534e-08
4.85447e-08
1.65709e-08
-4.80873e-07
1.68134e-07
7.27991e-07
-0.000863383
5.22031e-08
2.77343e-08
-2.58002e-07
1.67476e-05
0.00019625
-0.00420765
5.50611e-08
2.53595e-07
5.64429e-08
0.000512886
-4.89086e-08
0.00023573
-4.83035e-07
5.36399e-08
3.80674e-07
9.81744e-08
-1.32192e-05
6.21786e-08
1.11411e-07
-0.000524729
-0.000620261
6.02661e-08
9.91063e-08
7.17017e-08
-0.000398979
-0.000230047
1.05786e-08
-1.74037e-08
-0.000144322
-5.78333e-09
0.000202435
-9.86893e-08
-1.16593e-06
-6.02495e-07
-0.0162916
-4.6219e-07
-2.2689e-07
6.06787e-08
2.72499e-07
-0.00055145
6.5851e-08
-0.00966977
-0.00704853
-0.00378051
1.09907e-05
6.30477e-07
-4.31067e-05
6.04881e-08
3.87266e-06
5.73595e-08
0.000941133
0.00108824
-0.00044822
0.000434615
-0.00350161
1.14303e-06
7.9131e-05
4.69744e-08
0.000182616
-0.000720486
-0.000518547
-0.000481998
1.32867e-07
-0.00217476
0.00604778
8.67502e-07
6.57979e-08
7.59214e-08
0.000191971
9.30077e-08
2.62275e-07
-5.71307e-08
9.56242e-08
4.15677e-08
6.17873e-08
-0.000244568
6.35436e-05
2.46778e-07
0.000695069
-0.00102841
4.19673e-07
5.50779e-08
3.41248e-08
3.39609e-07
0.00023778
-1.78263e-05
3.91226e-08
1.89514e-07
0.00630265
-8.97326e-07
1.15727e-07
-0.000675681
2.49708e-07
3.91471e-05
7.31589e-08
-5.23433e-07
5.58249e-08
-6.25993e-08
2.32492e-07
-0.00279682
0.000797599
0.000184164
-6.29265e-07
0.0082352
-1.66274e-06
6.02726e-08
-1.91854e-07
0.000689833
0.00209249
-0.0052165
-4.81409e-05
5.01071e-08
5.24504e-08
6.0858e-08
7.51439e-08
2.49858e-08
1.98623e-05
1.6906e-07
-0.000109218
5.81395e-07
0.00121039
0.00132698
1.05645e-05
8.83427e-06
5.77284e-08
0.000287238
1.7478e-06
0.0156765
0.000218246
3.93334e-08
8.42728e-05
7.16493e-08
-0.002065
-0.000800068
8.605e-07
0.000100873
0.00166572
2.77723e-08
-3.57135e-06
1.42868e-07
0.00368341
0.00104555
5.5333e-08
6.66316e-08
0.00109803
1.33432e-05
8.83635e-07
-0.00862314
1.16855e-06
-1.59684e-06
3.2194e-08
-0.0183066
0.000214162
-6.50936e-07
7.53555e-08
-0.000470572
0.00518236
4.74491e-08
6.19875e-08
5.75453e-08
-0.000614113
-0.000826832
5.91413e-08
0.00018323
5.24055e-08
8.49928e-08
8.69831e-08
0.00182432
5.43881e-05
4.68938e-05
4.83667e-05
5.80365e-08
4.77767e-08
5.85664e-08
-0.000664445
9.57161e-08
0.00765364
3.38939e-07
0.0021671
5.4822e-08
6.40668e-08
3.26883e-07
-0.000104106
-0.000313279
4.82452e-07
0.00202573
-1.73837e-07
5.62021e-08
6.24168e-08
-5.62828e-08
2.55889e-07
3.31379e-07
-2.21006e-06
-0.000964213
5.52875e-08
-3.61859e-07
4.2634e-05
-0.00484819
3.50379e-08
0.000153278
0.000134645
5.96907e-08
-0.000954988
2.46445e-07
-0.00426309
5.83156e-08
1.50458e-06
9.1671e-08
0.0154932
0.000195014
8.21989e-06
-0.000233004
6.1214e-08
1.31197e-07
7.2911e-08
0.000136129
-4.82549e-08
4.99923e-08
0.004074
-8.01575e-07
-0.00030568
0.00037287
1.38937e-07
1.17232e-07
2.74653e-08
0.00937094
6.40232e-07
-9.28007e-07
-1.50343e-07
-6.38517e-07
1.22333e-07
5.4939e-08
-0.00796174
9.37732e-08
-0.000507678
0.000589161
1.43223e-06
-9.59712e-06
7.90181e-07
0.000579521
6.14445e-08
0.000398109
0.00214825
4.5613e-08
5.32145e-08
3.69881e-08
5.5626e-08
9.87028e-09
6.51615e-08
-0.00121266
4.22581e-07
-0.00070119
1.70903e-05
6.25576e-08
5.24854e-08
2.59976e-08
-8.06907e-05
5.83285e-08
7.15231e-08
1.83181e-06
5.42608e-08
0.00698184
-0.000321807
2.01242e-08
4.36097e-07
2.79815e-07
4.70048e-08
5.14673e-08
-9.25187e-06
-2.54784e-08
5.35472e-08
9.39263e-05
0.000255571
-0.000172479
4.59246e-08
-0.00040405
-0.00355881
5.47539e-08
-0.000771228
-0.00105723
6.05127e-08
5.02451e-08
6.59292e-08
0.000877234
0.00169765
0.00342582
-1.4216e-08
5.87158e-08
8.009e-07
7.01856e-08
1.2275e-06
9.34719e-08
4.67543e-05
0.000179051
3.24899e-05
3.83045e-08
5.25033e-08
5.55861e-08
0.00376823
-3.62353e-08
0.00117594
0.000558456
4.59985e-05
-0.00135028
0.00173912
0.000601435
4.54283e-07
0.00202314
-0.00411086
5.0472e-08
2.76145e-08
5.63179e-08
-0.000332034
-0.000136855
-5.09984e-05
-1.74e-07
0.000155845
5.48818e-08
-6.74331e-07
-1.07156e-09
3.24274e-08
5.13213e-08
3.70301e-08
0.00227308
5.27656e-08
-0.00284973
0.00246323
0.00116441
3.30007e-08
1.58887e-07
0.00170782
-0.000652997
5.30013e-08
-0.000185391
2.91585e-08
-9.96894e-09
5.54777e-08
7.25553e-05
5.40428e-08
-0.000447618
1.29993e-06
0.00180761
-2.26973e-06
0.000188923
0.000110081
9.13323e-06
3.41637e-08
1.83919e-06
-2.70887e-07
0.00234917
7.96128e-09
-1.76419e-08
1.0953e-07
0.00183928
1.00352e-07
-5.67147e-05
-0.000438766
1.03446e-07
-4.36286e-07
3.14e-08
-8.70389e-05
5.91196e-08
0.000261801
1.36734e-08
-0.00049745
7.91334e-08
6.71968e-08
-0.000389532
0.000819786
5.30776e-09
1.05257e-07
6.74855e-08
-0.00035554
1.51624e-05
0.000495471
0.00174262
5.49068e-08
2.03235e-06
0.000125133
-9.72476e-08
5.0494e-05
7.04334e-07
3.63248e-07
7.85283e-08
0.000638604
-0.000232722
6.51027e-08
0.000169311
4.77292e-08
-1.04913e-08
-0.000637178
-0.000449283
-6.98241e-07
-5.05492e-05
0.000143701
6.42677e-08
-6.64449e-05
-1.83906e-07
7.25691e-08
5.14038e-08
0.00105105
4.79636e-09
0.00142932
0.000855195
-1.93891e-06
6.97695e-08
-5.20896e-07
7.13917e-05
1.89025e-08
0.00125033
5.14872e-08
5.69551e-08
-1.70162e-06
0.00070741
6.07061e-08
-0.000437727
0.00680082
-0.00048082
9.24589e-08
0.000927716
0.0026904
0.00301929
6.6838e-08
4.2535e-06
9.81954e-08
-0.000273319
1.16357e-05
-0.00022639
0.00153759
5.21593e-08
-9.81982e-09
6.30917e-08
0.00308918
0.00198825
-0.00968463
0.000338837
5.67948e-08
0.000415467
-0.000871629
7.00891e-07
-0.000239642
1.53592e-05
-1.9336e-06
0.00137063
4.99854e-08
6.04837e-08
0.00115861
-0.000201858
-1.87546e-08
-0.00920969
5.57529e-08
5.67926e-08
-0.00324283
-0.000188227
0.000857221
0.000171638
3.85068e-07
5.45742e-08
9.92844e-08
-0.000690978
0.000579911
6.5002e-08
1.28197e-07
-0.000191825
6.45657e-08
5.29499e-08
-0.00118736
0.00368097
3.73466e-08
6.76888e-08
5.11509e-08
6.53575e-08
-0.000292924
5.56426e-08
9.89416e-08
6.49731e-08
-0.000332155
0.00576056
0.000170897
0.00136863
6.19661e-08
-5.15659e-08
-0.00022046
-0.000749312
-4.06608e-07
-3.04408e-06
6.82744e-08
3.77614e-08
-2.46239e-07
1.11544e-06
-3.52639e-07
8.73213e-08
0.00526919
3.71594e-07
6.12419e-08
-5.43113e-08
0.00259003
0.00122697
6.11326e-05
6.46818e-08
1.54535e-07
-0.000556511
0.00324415
5.3023e-08
2.15482e-08
6.64573e-08
0.000475294
5.37352e-08
-1.74367e-08
1.09917e-07
5.25785e-08
-0.000112501
1.50602e-05
5.4019e-08
6.62961e-08
-3.04503e-08
9.35218e-08
-0.00990384
-0.000963681
4.8645e-07
-0.000147513
2.48661e-06
5.22041e-08
6.7965e-08
6.32973e-08
9.7177e-08
5.83129e-08
1.07587e-07
2.57473e-06
-0.000547572
4.9784e-07
7.30577e-07
1.12842e-05
0.00101569
6.48805e-08
5.07212e-08
5.2186e-08
-0.00165569
9.71203e-08
0.000599902
-0.000211732
-1.78261e-06
1.16008e-08
9.37687e-05
-5.40376e-08
9.72707e-06
1.09353e-09
-4.14621e-08
9.39873e-08
2.97747e-08
-1.54914e-05
-0.00093976
-3.18817e-05
5.64141e-08
-0.0137959
-0.00309644
-0.00562982
7.5543e-08
-0.000142029
5.28832e-05
-1.41871e-07
0.000296873
-0.00118759
8.48299e-07
0.000133323
5.55265e-08
1.51091e-09
0.00545553
7.19786e-08
6.64226e-08
-0.00386398
4.81104e-05
-0.00278445
5.80516e-06
5.89949e-08
-1.52154e-05
5.36559e-08
6.77568e-05
-6.93789e-09
0.000165626
0.000208194
-0.000764965
0.00651524
6.04858e-08
2.3137e-09
4.88682e-07
-0.00990174
-3.03649e-05
-2.06191e-06
-0.001185
5.6267e-08
0.00115534
0.000209443
0.000460073
-6.76489e-08
5.90127e-08
-1.58264e-07
8.90644e-08
6.15681e-08
5.97838e-08
6.36361e-08
-0.000105262
6.46154e-07
0.000115231
-0.00390924
0.00187128
1.83648e-06
5.91521e-08
-7.15158e-08
2.67798e-07
-8.06525e-09
5.77568e-08
-0.000129952
0.00202897
-0.0105906
0.000113653
5.44029e-08
0.000311169
-5.39198e-07
-0.000445837
0.00022217
9.52405e-08
2.88151e-08
-0.000291869
7.27048e-08
5.14894e-09
-0.00317819
-6.79187e-05
0.000534956
5.19467e-08
5.5291e-08
-1.41404e-06
2.29921e-07
0.00300927
3.15647e-08
5.65638e-07
-7.98948e-05
-1.57732e-08
-0.00127107
2.60967e-07
-0.00397087
5.58145e-08
-0.000959802
-0.00791934
1.05976e-06
-0.000836693
1.41518e-06
0.000179357
-5.87619e-08
2.55538e-08
4.72532e-08
2.39213e-07
0.0028145
-1.86073e-07
-0.000348713
1.82474e-07
3.91111e-08
6.9296e-08
7.63976e-06
1.38194e-07
1.14251e-06
-0.000121149
1.08366e-08
2.75712e-06
0.000128948
1.02531e-06
-4.73351e-08
4.30473e-07
8.60835e-08
-2.77664e-06
3.09091e-08
5.51516e-08
0.000337765
0.000245888
-0.000187122
-5.15271e-05
-0.00022903
-0.000363819
1.90638e-07
0.000386243
-6.25989e-07
-5.22043e-08
-1.28012e-07
-6.61917e-09
9.14262e-08
-0.000534817
-0.000684839
5.77249e-08
-7.9053e-05
0.000288296
7.18891e-08
3.99686e-07
1.48459e-07
0.00125505
-0.00114862
-2.54474e-05
-0.0122398
3.82877e-06
-6.31068e-09
-4.38423e-05
-2.89243e-07
-2.51707e-05
0.00107509
5.55945e-08
3.3619e-07
-0.000641878
6.42789e-07
-0.00308943
9.95741e-08
0.000102947
-0.000706865
0.000190978
1.79847e-07
2.32847e-07
9.25734e-05
-3.05693e-07
0.000239636
4.79268e-05
-0.000163505
1.01477e-06
0.00121418
5.39111e-08
-4.56602e-08
1.40486e-07
0.000206595
0.00091456
0.000203706
-6.92518e-08
-1.55024e-06
3.40375e-06
-9.35643e-08
-0.00115561
6.02552e-08
9.86329e-07
8.35077e-05
6.34449e-08
-0.00452358
-0.000880379
0.000206664
0.00133189
0.00118532
-0.000832111
7.28843e-08
-0.000380951
1.07689e-07
6.25199e-08
5.88135e-08
5.5917e-08
0.000187474
5.41754e-08
1.54928e-07
6.33782e-08
2.89185e-08
0.00251467
4.30107e-08
1.04577e-06
-0.00011456
3.82095e-08
0.000212246
-2.86643e-08
3.75892e-07
0.0010094
1.24197e-05
7.27583e-08
2.20359e-05
4.85098e-08
0.000244134
-0.00352704
6.11944e-08
-1.95216e-07
4.28458e-08
-7.07906e-05
6.33909e-05
4.93093e-07
-0.00324771
1.18757e-06
6.49202e-08
-0.00369537
5.39803e-08
1.05169e-07
0.000268818
9.01946e-08
5.54338e-08
6.35226e-08
-7.20989e-07
3.84064e-08
3.31202e-05
-2.87588e-05
5.6946e-05
-0.00347259
1.734e-07
-4.99799e-07
6.92672e-08
9.08851e-05
0.000212659
0.00180459
6.63916e-08
-1.83552e-08
1.09265e-07
3.0932e-07
-0.00375822
1.06262e-07
-8.97545e-05
3.66161e-08
-0.000450677
-1.46806e-08
-2.35987e-06
1.08037e-05
7.03785e-07
0.000207713
0.00588148
-0.00103332
3.70414e-05
-1.02222e-08
0.000257671
0.000204889
0.000212839
-4.4182e-08
-3.20995e-05
0.000191309
0.000659352
2.9504e-07
-0.000128476
0.00276852
0.000402387
1.05569e-07
5.84407e-06
3.5553e-08
1.81389e-07
1.11295e-07
5.83924e-08
3.35403e-07
-0.00140284
6.37613e-05
0.00118336
0.00111439
6.53572e-08
4.61906e-08
-4.32467e-07
5.75438e-08
0.00722495
3.28414e-08
6.14715e-08
0.000807167
0.000104017
-1.23699e-06
5.09307e-07
-6.81442e-08
-9.52307e-07
0.000161516
0.000155226
0.000157017
6.0433e-08
0.000112368
-2.68889e-07
3.41271e-10
5.43459e-08
2.14927e-05
-1.05581e-05
-3.0992e-05
0.000102621
4.85768e-08
7.11239e-08
5.69182e-08
5.56652e-08
5.99103e-08
-0.00659549
0.000361325
1.31461e-07
-0.0011006
2.5193e-05
-0.00598466
0.00235978
6.01859e-08
7.15906e-08
-0.000128331
6.22178e-08
-3.13236e-05
7.52404e-08
5.46772e-08
0.00250892
0.00017252
3.26805e-08
9.91081e-08
1.23755e-07
-5.19432e-07
0.00385923
-0.00575033
0.000174776
1.25596e-07
2.9239e-08
-3.66078e-06
2.60626e-07
-1.1987e-07
-0.00280973
0.00128473
0.00121239
0.000404075
2.99014e-08
0.000998115
-8.03674e-09
2.31151e-07
5.44315e-08
-4.12623e-07
0.000863067
0.000106942
0.000917319
0.000119474
-2.73278e-07
6.57325e-09
4.91653e-08
5.39007e-08
6.1346e-08
9.47643e-08
0.000446573
0.000322316
1.55629e-07
-0.000397415
9.57524e-08
-2.93716e-07
4.17008e-08
0.000215568
4.8291e-06
1.28102e-07
-2.70039e-06
7.72157e-07
-0.0144323
0.000207392
-9.05018e-07
-0.000165749
7.22097e-08
0.0029631
-4.83395e-07
0.000263009
-0.000510084
-2.69911e-07
-2.16293e-07
5.48674e-08
-0.000915898
0.000104874
-1.71247e-08
0.00399195
-9.26324e-06
-0.000280298
-5.67773e-07
7.96555e-07
-2.57679e-06
5.5904e-08
-1.55942e-07
9.21763e-07
5.64753e-08
-2.05286e-07
1.24419e-07
2.49092e-07
0.000220097
1.55749e-06
-9.69574e-09
2.78513e-07
3.82343e-08
5.3708e-07
5.16331e-07
-0.00819462
-3.11577e-07
0.00250838
0.000331944
5.19595e-08
0.000195692
6.74452e-08
6.02242e-07
2.17751e-08
0.000168935
1.37146e-06
0.000265248
0.00306244
-4.1931e-07
-7.30105e-06
7.38975e-07