/*--------------------------------*- C++ -*----------------------------------*\
| =========                 |                                                 |
| \\      /  F ield         | OpenFOAM: The Open Source CFD Toolbox           |
|  \\    /   O peration     | Version:  v2012                                 |
|   \\  /    A nd           | Website:  www.openfoam.com                      |
|    \\/     M anipulation  |                                                 |
\*---------------------------------------------------------------------------*/
FoamFile
{
    version     2.0;
    format      ascii;
    class       surfaceVectorField;
    location    "850";
    object      Uf_0;
}
// * * * * * * * * * * * * * * * * * * * * * * * * * * * * * * * * * * * * * //

dimensions      [0 1 -1 0 0 0 0];


internalField   nonuniform List<vector> 
20537
(
(1.01377 -0.0121881 -1.62991e-22)
(1.01376 -0.011939 -5.33228e-23)
(1.01367 -0.0121566 2.30079e-22)
(0.564655 0.0990092 2.43743e-21)
(0.596835 0.0886568 -7.00866e-22)
(0.604487 0.0701374 -1.51891e-21)
(1.04438 -0.0760445 5.16538e-21)
(1.04194 -0.0759689 -3.88868e-22)
(1.04282 -0.0783703 6.8045e-21)
(1.0137 -0.0115719 4.19269e-23)
(1.01372 -0.0116972 6.24628e-23)
(1.01373 -0.011413 5.66357e-23)
(1.06679 -0.0660127 0)
(1.06577 -0.0668367 6.64729e-21)
(1.06565 -0.0654799 -5.43303e-21)
(1.03949 -0.0458109 1.0565e-22)
(1.0439 -0.0365387 0)
(1.03587 -0.037371 0)
(1.03158 -0.00347668 -5.7666e-23)
(1.03222 -0.0037687 -3.53866e-21)
(1.0321 -0.00320101 7.4878e-23)
(1.04289 -0.0566303 -4.63247e-21)
(1.04402 -0.0553523 -3.6928e-21)
(1.04468 -0.0574039 1.53121e-21)
(1.00682 -0.000211124 0)
(1.00699 -0.000183359 0)
(1.00686 -0.000126831 -1.48996e-22)
(1.00298 -0.0714993 3.34599e-22)
(1.00356 -0.0672904 3.69508e-22)
(1.00754 -0.0703317 -6.96025e-22)
(0.915723 0.00691603 4.36064e-23)
(0.909299 -0.00983347 2.25243e-21)
(0.919965 -0.0184611 4.46954e-23)
(0.46815 -0.144239 1.66732e-21)
(0.456625 -0.15328 -1.03189e-21)
(0.415526 -0.145775 1.18307e-21)
(0.964642 -0.0603531 7.92596e-21)
(1.00569 -0.0610218 -5.399e-21)
(0.971559 -0.060371 -2.10309e-21)
(0.0904955 0.187908 -8.99813e-21)
(0.0980204 0.17494 0)
(0.039349 0.184767 8.58387e-21)
(1.01941 -0.000789313 0)
(1.01951 -0.000715435 0)
(1.01958 -0.000874088 0)
(1.02921 -0.037452 1.53614e-22)
(1.02997 -0.0382729 -8.75554e-22)
(1.0288 -0.0386062 -4.98078e-22)
(1.04067 -0.0293862 0)
(1.03981 -0.0287405 -1.99508e-21)
(1.04084 -0.0285285 0)
(1.01512 -0.0264084 0)
(1.01605 -0.0263441 1.59046e-22)
(1.01565 -0.0274599 -1.44018e-23)
(1.07755 -0.0664965 -8.09178e-21)
(1.07858 -0.0676154 5.56028e-21)
(1.08147 -0.0681811 -4.61154e-21)
(1.00665 -0.000241777 -1.06657e-22)
(1.00678 -0.000300888 0)
(1.0136 -0.0113052 6.62738e-23)
(1.01373 -0.0116538 -3.24921e-23)
(1.04665 -0.0739373 7.28802e-21)
(1.04751 -0.0764002 -4.83176e-21)
(1.00371 5.15762e-05 0)
(1.00429 0.000108555 1.93082e-22)
(1.00493 0.000174312 8.63239e-23)
(1.0023 -4.1652e-05 2.3585e-23)
(1.00095 2.13445e-05 8.9244e-23)
(1.00246 -3.90227e-05 -2.2991e-22)
(1.00318 4.3918e-05 5.05195e-23)
(1.00239 -3.1051e-05 -1.76933e-22)
(1.041 -0.0562093 0)
(1.04176 -0.0583608 0)
(1.05242 -0.0232612 -8.27172e-21)
(1.05198 -0.0223684 0)
(1.05135 -0.0230697 6.82066e-21)
(0.0112402 -0.10454 1.09596e-21)
(0.0208321 -0.107772 -2.90234e-20)
(1.01388 -0.0122628 1.00332e-22)
(1.01381 -0.0125973 1.03446e-22)
(1.02275 -0.0233531 -7.85087e-22)
(1.02329 -0.0238049 -6.59551e-22)
(1.02262 -0.0238526 1.85023e-21)
(1.03344 -0.0526414 1.05874e-22)
(1.04479 -0.0559705 -3.20665e-21)
(1.04038 -0.0303423 0)
(1.04154 -0.030166 -3.11698e-21)
(1.04073 -0.0737069 -2.70413e-22)
(1.03898 -0.0760646 0)
(0.900511 0.0753845 -6.22549e-21)
(0.893895 0.105542 -3.10894e-21)
(0.886172 0.094624 -6.03641e-21)
(1.00217 -1.42818e-05 2.06391e-23)
(1.00347 -6.45538e-05 3.08278e-23)
(1.08573 -0.0723333 -4.75543e-21)
(1.08649 -0.0729345 6.38015e-21)
(1.08375 -0.0735939 2.19824e-20)
(1.08536 -0.0789823 2.36086e-21)
(1.09108 -0.0778077 2.1614e-20)
(1.09241 -0.0790009 4.87342e-21)
(1.07354 -0.0943302 -5.39881e-21)
(1.07653 -0.0919379 0)
(1.07254 -0.0911039 6.60115e-21)
(0.999059 -0.0726769 3.09778e-22)
(1.00328 -0.0764302 0)
(0.922404 0.0447428 -3.30372e-21)
(0.906534 0.032041 -5.45175e-21)
(1.01344 -0.00821145 -1.43284e-22)
(1.01338 -0.00832624 -7.86296e-22)
(1.01368 -0.00851293 7.78258e-22)
(1.01118 0.000803453 -8.37813e-23)
(1.01106 0.000806643 -4.1309e-23)
(1.01087 0.000757985 3.65557e-23)
(-0.00102949 0.0289709 -3.4963e-22)
(-0.000470174 0.0255066 1.29922e-20)
(-0.00490708 0.0267103 -9.64064e-21)
(0.894677 -0.0447859 -2.00217e-21)
(0.8969 -0.0709524 -1.1444e-21)
(0.899313 -0.051297 -6.22893e-22)
(0.893889 -0.0150175 8.29268e-22)
(0.893524 -0.0377237 -9.4495e-23)
(0.0491573 0.0396448 -1.45249e-21)
(0.0760461 0.0278778 -9.86595e-22)
(0.0871988 0.0358939 1.54375e-20)
(0.899389 -0.0934842 -2.63874e-21)
(0.896924 -0.0780576 -7.38818e-22)
(0.904662 -0.068524 3.46886e-22)
(0.801212 0.0766786 -7.0859e-21)
(0.794117 0.0566402 1.37612e-21)
(0.804103 0.0998801 1.48662e-21)
(1.0528 -0.0241826 2.90157e-21)
(1.05345 -0.0234238 -8.04276e-21)
(1.00496 -0.0317666 1.59581e-22)
(1.00658 -0.0246445 -2.34664e-21)
(1.01262 -0.0302195 7.28894e-24)
(1.07434 -0.0594909 -6.97454e-21)
(1.07487 -0.0600735 9.79358e-21)
(1.0751 -0.059167 1.8942e-21)
(1.07466 -0.0651499 -7.32192e-22)
(1.07464 -0.0650309 0)
(1.07495 -0.0651891 5.49154e-21)
(-0.0304593 -0.0809904 5.87599e-21)
(-0.0253558 -0.0749891 5.06197e-22)
(-0.0218197 -0.086801 8.623e-21)
(1.01903 -0.000701986 4.98185e-22)
(1.01858 -0.000445746 1.23925e-21)
(1.01909 -0.000780763 -6.35953e-22)
(1.00972 -0.000834533 8.28247e-24)
(1.0097 -0.000799316 0)
(1.01067 -0.000986194 -1.27541e-21)
(1.0113 0.000800051 -8.81174e-23)
(1.0115 0.000852583 -9.14058e-23)
(1.00418 0.000155223 -3.16849e-22)
(1.00466 0.000194497 -1.59076e-22)
(1.00369 0.000142387 -1.32947e-22)
(-0.0400857 -0.09033 0)
(-0.0469174 -0.0848082 0)
(-0.0296031 -0.0929084 1.3743e-20)
(1.02288 -0.0226784 0)
(1.02213 -0.0227817 0)
(1.0326 -0.00675678 -1.82003e-21)
(1.03209 -0.00637771 -2.09169e-22)
(1.0328 -0.0062472 -4.38518e-21)
(1.07927 -0.0978444 4.34946e-21)
(1.06981 -0.0968159 -4.95166e-21)
(0.605165 -0.0214304 8.773e-21)
(0.589904 -0.0122294 -1.67369e-20)
(0.545207 -0.00894881 1.82061e-20)
(0.990979 -0.0368752 -1.33429e-21)
(0.98732 -0.0336738 7.53228e-22)
(0.992101 -0.0323069 -5.05413e-21)
(1.06962 -0.0664308 0)
(1.06893 -0.0670593 0)
(1.06993 -0.0673701 0)
(1.08124 -0.0261244 1.08856e-22)
(1.07997 -0.0364436 1.32538e-21)
(1.0733 -0.0273913 -2.24464e-22)
(1.01393 -0.0111589 1.58895e-22)
(1.01401 -0.0112307 9.32367e-23)
(1.01423 -0.0109162 1.58412e-22)
(1.06976 -0.0797331 -5.36636e-22)
(1.0728 -0.0799524 9.33767e-22)
(0.904871 -0.115524 -3.6456e-22)
(0.902775 -0.106802 -1.80402e-21)
(1.06487 -0.0415004 6.71881e-22)
(1.06374 -0.0418918 -5.61339e-22)
(1.06383 -0.0405978 7.36935e-21)
(1.0148 -0.0253541 0)
(1.01408 -0.0263416 -1.01432e-22)
(0.312185 -0.0120264 0)
(0.301269 -0.0108307 8.34184e-21)
(0.279545 -0.00683178 -2.19818e-20)
(1.00251 -0.0812815 -1.50068e-20)
(1.00027 -0.0826223 7.05945e-21)
(1.03819 -0.0825705 -3.18326e-22)
(0.549014 0.105701 1.91805e-21)
(0.537486 0.123353 1.56044e-21)
(1.01925 -0.000714138 -1.07259e-21)
(1.01893 -0.000677654 -3.58133e-21)
(1.01037 -0.00125754 -1.1345e-21)
(1.01062 -0.00142122 -2.06629e-21)
(1.01039 -0.00148856 -1.53127e-21)
(1.00842 -0.000186277 -2.2867e-22)
(1.00849 -9.3967e-05 0)
(1.00828 -0.000160513 9.8688e-23)
(1.04833 -0.0730683 2.01785e-21)
(1.04635 -0.0727195 -8.00017e-21)
(0.427472 -0.0124351 5.32809e-21)
(0.447737 -0.0153748 5.56671e-21)
(0.430135 -0.0112964 -4.55561e-21)
(1.05999 -0.0538286 -3.80834e-21)
(1.06095 -0.0547786 -9.95329e-22)
(1.05964 -0.0551678 1.34337e-22)
(0.286625 -0.013135 0)
(0.259802 -0.0109486 9.98714e-21)
(1.03574 -0.0112881 5.21652e-21)
(1.0349 -0.0111967 4.20908e-21)
(1.03517 -0.010581 -5.49904e-21)
(0.912269 0.0400298 3.25338e-23)
(0.926187 0.0490431 -9.37006e-22)
(0.915867 0.0639056 3.07848e-23)
(1.02102 -0.0056161 1.60564e-21)
(1.0212 -0.00594104 1.4556e-21)
(1.02072 -0.00574822 4.97707e-22)
(0.053647 0.0119197 -9.83775e-21)
(0.0734836 0.00325872 -2.68122e-21)
(0.0403495 0.0074869 1.2382e-21)
(0.994603 -0.0393297 1.25133e-21)
(0.989962 -0.0414284 1.90515e-21)
(0.476806 -0.1355 0)
(0.526328 -0.14348 -1.01418e-20)
(1.01814 -0.0319675 9.76851e-22)
(1.023 -0.0342934 1.95503e-21)
(1.02149 -0.0293127 9.29813e-22)
(0.611164 0.0726973 -4.51961e-21)
(0.681132 0.066154 -2.74842e-21)
(0.659913 0.0571794 5.61432e-21)
(1.04829 -0.0288063 2.02952e-22)
(1.04735 -0.0292461 2.44555e-21)
(1.0485 -0.0300394 -4.89301e-21)
(1.01285 0.00264045 3.14561e-22)
(1.01259 0.00249314 -2.09875e-23)
(1.01287 0.00269594 0)
(1.08486 -0.0713857 -9.82145e-21)
(1.08493 -0.0718658 -4.07098e-21)
(1.00523 0.00748718 1.07745e-22)
(1.00186 0.0089179 1.22773e-22)
(1.00592 0.0106613 3.14782e-22)
(0.899637 -0.123035 1.32725e-21)
(1.05196 -0.0339522 0)
(1.05152 -0.0347318 0)
(1.05267 -0.0348554 6.69108e-21)
(1.04839 -0.0279393 -2.44179e-21)
(1.04948 -0.0284932 -4.72388e-21)
(1.00205 9.21448e-05 -3.93137e-22)
(1.00207 0.000102059 3.17847e-22)
(1.00307 5.40695e-05 2.93082e-22)
(1.06784 -0.0667676 0)
(1.06777 -0.0655018 -4.55078e-21)
(0.636095 -0.0329854 -4.35452e-21)
(0.610011 -0.0294082 0)
(0.613282 -0.0320882 0)
(1.00436 -0.0392586 1.47457e-22)
(0.997899 -0.0310536 8.51962e-23)
(1.00085 7.95642e-05 -2.64102e-22)
(1.002 6.04298e-05 -9.56833e-23)
(-0.0258826 0.158033 4.70402e-21)
(0.0409357 0.171551 -2.23963e-22)
(-0.00169996 0.175653 2.39723e-20)
(1.067 -0.054453 5.82696e-21)
(1.06807 -0.0540496 -6.85037e-22)
(1.06703 -0.0533141 1.08428e-20)
(1.0161 -0.0141064 -9.84944e-22)
(1.01629 -0.0145534 -5.20836e-22)
(1.01592 -0.0142368 2.19e-22)
(1.05936 -0.0150462 -2.48836e-21)
(1.06039 -0.0154915 -2.22762e-20)
(1.00461 5.09518e-05 1.77605e-23)
(1.0058 7.19483e-05 -3.50876e-23)
(1.00484 4.22212e-05 0)
(1.00914 -0.0359946 0)
(1.00445 -0.0363931 4.0973e-22)
(1.00677 -0.0314213 0)
(1.07075 -0.0551466 -8.7319e-21)
(1.06986 -0.0554812 6.24736e-21)
(1.0707 -0.0562584 -1.78312e-21)
(1.01042 0.000520583 1.32246e-23)
(1.01033 0.000533822 -3.23723e-23)
(1.01018 0.000481945 7.52753e-24)
(0.920188 -0.0798542 -1.26511e-21)
(0.872242 -0.0786779 1.58895e-20)
(1.05349 -0.0354317 0)
(1.04534 -0.028728 -1.79805e-22)
(1.00163 2.62106e-05 3.88538e-23)
(1.00048 2.94595e-05 2.12862e-23)
(1.00158 2.62425e-05 2.52397e-22)
(1.01309 0.00281132 -1.63894e-22)
(1.01285 0.00252056 7.25116e-23)
(1.00788 0.00661445 2.43693e-21)
(1.00494 0.00515048 -1.46387e-21)
(0.999826 4.82183e-05 8.90935e-23)
(0.99985 3.97877e-06 4.61875e-22)
(1.0026 2.00642e-05 9.07946e-23)
(1.00149 3.0025e-05 1.11818e-22)
(0.803488 0.149012 1.35375e-22)
(0.79358 0.165995 1.58089e-23)
(0.665993 -0.0380838 -3.44335e-21)
(0.664157 -0.0364109 -9.02291e-21)
(1.00946 0.000429515 1.06751e-22)
(1.00949 0.000462028 -7.35391e-23)
(1.00955 0.000457775 2.49141e-23)
(1.00386 -0.000307708 -4.57223e-22)
(1.00369 -0.000296188 -5.4259e-22)
(1.00192 -0.000148433 1.54564e-22)
(1.00906 -0.00070856 2.46915e-22)
(1.00772 -0.000604879 -1.88533e-22)
(1.00734 -0.00048974 -1.13088e-22)
(-0.00160009 0.0293817 1.77985e-20)
(-0.00172452 0.0339565 -2.94256e-20)
(1.0586 -0.0161029 1.58947e-20)
(1.05804 -0.0148154 1.27975e-20)
(0.960029 -0.060666 -3.30871e-22)
(0.919827 -0.0595426 3.94034e-21)
(0.883939 0.161835 -1.55514e-21)
(0.812128 0.0919314 5.66655e-21)
(0.810633 0.0625148 3.61555e-21)
(1.01587 0.0029438 3.81509e-22)
(1.01611 0.00328785 -2.36832e-22)
(1.01598 0.00370101 5.70766e-23)
(0.827147 0.103604 4.5599e-21)
(0.818933 0.123181 1.10655e-22)
(1.06331 -0.0540919 -3.39838e-21)
(1.06431 -0.0539799 6.52313e-21)
(1.06389 -0.0552211 7.44754e-21)
(1.01353 -0.011123 4.51573e-23)
(1.01351 -0.0110471 1.72058e-22)
(1.07336 -0.0750021 2.91068e-21)
(1.07277 -0.0738919 0)
(1.07454 -0.0738956 -1.78299e-21)
(1.0132 -0.00789984 7.36544e-22)
(1.0135 -0.00806889 -5.42458e-22)
(1.00598 -0.00104873 -1.48205e-22)
(1.00611 -0.00114398 -7.98116e-24)
(1.00604 -0.00109416 -2.69951e-23)
(0.322066 -0.0144104 0)
(0.332956 -0.018293 0)
(1.02127 -0.00541987 -1.60382e-21)
(1.02077 -0.00523964 -8.98948e-22)
(0.786056 0.140416 -5.31944e-21)
(1.00602 -0.000548573 -3.18255e-22)
(1.00591 -0.000508357 6.41031e-23)
(1.00556 -0.000438507 -7.98116e-23)
(1.00944 0.000386335 -6.25789e-23)
(1.00938 0.000389541 8.72287e-23)
(1.00863 -0.0803059 -8.595e-21)
(1.01461 -0.0799444 1.33322e-20)
(1.04512 -0.0813186 1.3157e-20)
(0.122398 -0.0051047 7.30399e-21)
(0.0707558 0.0211978 -2.72245e-21)
(0.100527 -0.00178779 0)
(0.153294 -0.0127631 -2.44403e-21)
(0.194012 -0.0123657 -8.60532e-22)
(0.161542 -0.0317184 -9.59406e-22)
(-0.0545919 0.13019 -2.47003e-20)
(-0.0746875 0.138483 -2.35701e-20)
(1.01002 -0.000995339 6.24238e-22)
(1.0083 -0.000513352 -1.21297e-21)
(1.00955 0.00098426 -7.94385e-22)
(1.00921 0.000885895 -7.98705e-23)
(1.00954 0.00161667 4.39894e-22)
(1.01424 0.00153842 -1.31744e-22)
(1.01398 0.00154546 0)
(1.01442 0.001622 5.19135e-24)
(1.03291 -0.0229897 -1.21283e-21)
(1.03342 -0.0237581 4.29356e-22)
(1.03357 -0.0228587 -5.62178e-21)
(0.896145 -0.0891704 4.49096e-23)
(0.902831 -0.0906637 1.25811e-21)
(1.03053 0.00780831 3.47882e-21)
(1.03131 0.00576615 -1.51111e-22)
(1.02839 0.00657289 -7.52202e-23)
(1.07491 -0.0766026 2.75411e-21)
(1.0722 -0.076478 -2.25803e-21)
(1.03089 -0.00311436 5.30213e-21)
(1.03094 -0.00366427 1.61705e-21)
(0.89729 0.00745464 -4.98312e-22)
(0.895537 0.0181427 -5.12757e-22)
(1.08849 -0.0576151 -1.81931e-20)
(1.08792 -0.0586764 1.37125e-20)
(1.00794 -0.000714931 2.44686e-22)
(1.00822 -0.000719744 3.23246e-22)
(1.00917 -0.000826652 2.17875e-22)
(0.0616388 0.198213 8.17949e-23)
(0.145223 0.189763 -5.79088e-21)
(1.00373 0.000132292 -1.50515e-22)
(1.00462 0.000163601 2.02084e-22)
(1.04117 -0.0199666 -1.22873e-21)
(1.04196 -0.0201609 -3.96034e-21)
(1.04147 -0.0192444 -2.35055e-21)
(1.03222 -0.0232378 2.26295e-21)
(1.03226 -0.0223271 0)
(1.00868 -0.0036468 -1.06359e-22)
(1.00853 -0.00346843 -2.42914e-22)
(1.00863 -0.00352838 -1.13362e-22)
(1.02419 -0.0216256 -9.81368e-23)
(1.02425 -0.0210817 3.89336e-21)
(1.02476 -0.0216087 2.15646e-21)
(1.07532 -0.0653796 9.08949e-21)
(1.07447 -0.0652807 1.07296e-20)
(1.07369 -0.0588221 -7.04342e-21)
(1.07355 -0.059759 1.03544e-21)
(1.01453 0.000850305 1.81684e-23)
(1.01411 0.000808829 -1.13467e-22)
(1.0144 0.000797144 1.1641e-23)
(1.05991 -0.0310943 -1.42146e-20)
(1.05964 -0.0319184 -7.43325e-21)
(1.06074 -0.0318044 -1.60915e-20)
(-0.0330114 -0.0953985 1.88904e-20)
(-0.0437693 -0.0874148 0)
(1.00586 -0.000962575 1.51365e-22)
(1.00595 -0.00100409 0)
(1.0247 -0.029326 1.16349e-23)
(1.02536 -0.0293579 -4.09242e-22)
(1.02484 -0.0287362 5.88702e-22)
(1.01255 0.00118808 0)
(1.01273 0.00124489 8.81669e-23)
(1.01236 0.00118644 0)
(1.02966 0.0103388 1.98637e-22)
(1.03336 0.00964436 -2.71415e-22)
(1.0659 -0.0424014 -2.5499e-23)
(1.06596 -0.0410544 7.03876e-21)
(1.01355 -0.011115 -4.88994e-23)
(1.01338 -0.0108845 2.54545e-22)
(0.489646 -0.00871014 2.61443e-21)
(0.4306 -0.00778638 6.91368e-21)
(0.491176 -0.0119169 1.27693e-20)
(0.400565 -0.00824159 -1.07916e-20)
(0.423632 -0.012551 2.18963e-23)
(1.0055 0.000314079 -2.62267e-22)
(1.00555 0.000313632 -3.33547e-24)
(1.00564 0.000351173 -2.41002e-22)
(1.00883 -0.00383615 -2.01625e-22)
(1.00875 -0.00376037 6.46466e-23)
(0.127915 -0.0117318 1.54745e-21)
(0.150385 0.00721822 9.34427e-22)
(1.00574 -0.000879304 2.75515e-22)
(1.00578 -0.000912842 -6.72714e-24)
(0.791131 0.032042 1.70446e-22)
(0.793774 0.0192699 8.92486e-22)
(1.06196 -0.054486 -8.64819e-21)
(1.06235 -0.0531308 -1.16388e-20)
(1.00912 -0.00133542 -2.05543e-22)
(1.00924 -0.00174382 -7.37493e-22)
(1.00894 -0.00160503 -1.34522e-22)
(1.0535 -0.0641017 1.16433e-20)
(1.08143 -0.0661007 6.37774e-21)
(1.01094 0.000595379 2.08369e-23)
(1.01104 0.00058399 7.17198e-23)
(1.01124 0.000632495 6.1612e-23)
(1.0409 -0.0319252 0)
(1.04015 -0.0312139 0)
(1.03991 -0.0321125 -2.19578e-21)
(0.966074 -0.0800954 -2.72932e-20)
(1.02122 -0.0048418 3.36554e-21)
(1.02099 -0.00452901 -2.65602e-21)
(1.02078 -0.0047217 -1.79086e-21)
(1.04824 -0.0785192 -7.44697e-21)
(1.04988 -0.0766776 -7.67144e-21)
(1.00952 0.000186035 1.29662e-22)
(1.00913 0.000156089 8.24714e-24)
(1.00939 0.000165981 9.09252e-24)
(1.00315 4.23528e-05 -1.51283e-22)
(1.00355 8.37079e-05 -7.12843e-23)
(1.00425 0.000162777 7.87698e-23)
(1.01369 -0.0110952 -2.66958e-22)
(1.01365 -0.0114706 0)
(1.01008 -0.00103878 1.05944e-21)
(1.01008 -0.000991315 2.04709e-21)
(1.0664 -0.0694241 1.22013e-20)
(1.06544 -0.070353 -3.26494e-22)
(1.06694 -0.0708784 -1.67291e-21)
(1.00057 -0.0246932 -2.57423e-22)
(0.995495 -0.0236514 0)
(0.998329 -0.0288766 0)
(0.897451 -0.111489 -3.6521e-22)
(-0.0326635 -0.0883576 1.31126e-20)
(-0.0399677 -0.0771545 -1.25843e-20)
(1.01324 0.00297363 -2.60974e-22)
(1.01318 0.00276986 1.53363e-22)
(1.01336 0.00313258 0)
(1.05945 -0.0436388 7.09598e-21)
(1.06046 -0.0431293 3.5515e-21)
(1.05945 -0.0423881 1.65123e-21)
(0.618304 -0.0342539 0)
(0.650535 -0.0345651 0)
(1.03941 -0.0194168 -2.43861e-21)
(1.04023 -0.0197545 -2.65655e-21)
(1.03976 -0.0188905 -5.92461e-22)
(1.00989 0.00103601 -3.90361e-22)
(1.00962 0.000552363 -3.3865e-22)
(0.921501 -0.117293 8.62834e-21)
(0.932074 -0.132127 4.17426e-21)
(0.938957 -0.107734 9.1833e-22)
(1.00906 -0.00078976 2.02095e-22)
(1.00923 -0.00104195 4.46569e-22)
(1.00835 -0.000279848 5.66495e-23)
(1.00854 -0.000212159 -3.56158e-22)
(1.01563 0.00258723 2.62317e-22)
(1.01597 0.00242203 5.15385e-22)
(0.157961 0.0498921 -2.25849e-21)
(0.217228 0.0389884 5.63858e-21)
(0.206163 0.0309303 6.75814e-21)
(1.00117 -0.000121509 3.70366e-22)
(1.00288 -0.000183334 1.59603e-21)
(1.00081 -0.000135362 -2.48981e-22)
(1.017 -0.00662159 -4.46352e-22)
(1.01665 -0.00632494 3.68117e-21)
(1.01671 -0.00668955 1.87133e-21)
(1.00331 -0.042007 -4.71054e-22)
(1.0061 -0.0402818 -1.96821e-22)
(1.00664 -0.0434676 1.0253e-21)
(1.02169 -0.00493918 1.13931e-21)
(1.02147 -0.00517128 3.80386e-21)
(0.5041 -0.129788 -1.12956e-20)
(0.440829 -0.129366 7.01096e-21)
(0.46474 -0.132517 -8.71831e-21)
(1.04297 -0.029628 -9.48769e-22)
(1.04263 -0.028648 -3.24631e-23)
(1.04385 -0.0289908 -3.25568e-21)
(0.460551 -0.0282448 -4.2055e-21)
(0.440857 -0.0246342 -1.39997e-20)
(0.458308 -0.028748 -8.15514e-21)
(1.01228 0.000635611 -8.73434e-24)
(1.01261 0.000668189 -1.38734e-23)
(1.01249 0.000689712 -3.39483e-23)
(0.72297 -0.0603161 7.76686e-21)
(0.683161 -0.0582465 5.69892e-23)
(0.69462 -0.0577638 6.73836e-21)
(1.01628 -0.0138813 6.52582e-22)
(1.01591 -0.0136138 -5.83514e-23)
(0.889883 -0.101737 1.39142e-21)
(0.900125 -0.127685 -1.69357e-21)
(0.896465 -0.129326 8.3993e-22)
(1.01081 0.00048617 -7.36052e-24)
(1.01068 0.000493971 1.95288e-23)
(1.01052 0.000448315 -5.94185e-23)
(1.01374 0.00139901 2.72077e-22)
(1.01396 0.00137798 -3.35259e-23)
(1.01351 0.00133573 1.19941e-22)
(0.954775 0.0480013 5.79501e-22)
(0.944152 0.0417799 1.40793e-22)
(0.953226 0.0312615 4.27735e-21)
(0.999972 -0.0451291 -9.25677e-21)
(0.998211 -0.0408775 1.32251e-21)
(1.00307 -0.0417193 8.78186e-22)
(0.017563 0.0392918 -1.82464e-20)
(0.0246858 0.0486137 1.19321e-21)
(1.01968 -0.00186675 -1.49249e-21)
(1.01956 -0.00164519 -2.42804e-21)
(1.0194 -0.00177993 -7.30295e-22)
(0.464421 -0.0281489 9.18513e-21)
(0.482164 -0.0318445 4.08471e-21)
(1.04235 -0.0300956 -2.88789e-22)
(1.04329 -0.0303353 2.44186e-21)
(1.03628 -0.0118418 1.56366e-21)
(1.03653 -0.0112109 4.67994e-21)
(0.74559 -0.0514435 0)
(0.718001 -0.0499022 -4.06773e-21)
(0.716698 -0.0504433 -4.98053e-22)
(1.07366 -0.0671698 -1.1707e-20)
(1.074 -0.0676962 -6.20195e-22)
(1.07446 -0.0670774 -3.79613e-21)
(0.620819 -0.0559489 -2.20229e-20)
(0.591185 -0.0529096 8.90967e-21)
(0.590585 -0.0541591 -1.27883e-20)
(1.00307 6.70363e-05 1.52276e-22)
(1.00313 5.35169e-05 -1.09849e-22)
(1.00186 4.75641e-05 -8.12716e-24)
(1.05295 -0.0376642 -4.32468e-21)
(1.05388 -0.0386517 -2.34934e-21)
(1.05254 -0.038834 1.66278e-21)
(1.00436 4.48957e-05 -6.35053e-24)
(1.00322 -2.08707e-09 2.79869e-23)
(-0.0693603 -0.0442031 -3.07167e-21)
(-0.0655675 -0.0366602 1.16259e-20)
(-0.0612541 -0.0454348 0)
(1.01094 0.000480407 2.51447e-23)
(1.01111 0.000526304 6.0863e-23)
(1.03919 -0.0559737 3.69325e-21)
(1.04014 -0.0544901 3.06288e-21)
(1.03632 -0.0909557 6.34855e-22)
(1.0436 -0.085494 0)
(1.04866 -0.0975831 0)
(1.0054 0.000286526 1.89973e-23)
(1.00547 0.000318351 -3.02625e-22)
(1.0133 0.00306639 -3.92703e-22)
(1.07651 -0.0570239 1.60951e-20)
(1.07561 -0.0574034 -3.9849e-21)
(1.07567 -0.0563785 2.86756e-22)
(1.02345 -0.0390125 1.35478e-22)
(1.02264 -0.0373184 7.42193e-23)
(1.02127 -0.0383993 -1.26332e-22)
(0.555421 -0.127819 -1.66145e-20)
(0.536144 -0.126122 -7.27861e-21)
(1.07174 -0.0241006 8.56156e-23)
(1.07289 -0.0158541 6.42461e-22)
(1.01399 0.00146111 1.19022e-23)
(1.01446 0.00151834 1.55848e-23)
(1.01723 -0.00657552 -9.63786e-22)
(1.01728 -0.00690257 -2.95498e-21)
(1.02545 -0.0489056 -1.593e-22)
(1.02521 -0.0590808 0)
(0.927597 -0.0320889 -5.47463e-23)
(0.939614 -0.0393051 0)
(0.941837 -0.0236012 0)
(1.01815 0.00142672 1.66265e-22)
(1.01756 0.00132735 -6.62651e-23)
(1.01796 0.0015551 -1.88805e-22)
(1.00083 -0.0443496 -8.07878e-22)
(1.00013 -0.0404274 -1.66053e-21)
(1.00685 9.15911e-05 2.32376e-23)
(1.00664 9.01401e-05 5.08447e-24)
(0.558623 -0.0474549 5.04105e-21)
(0.5342 -0.0442645 -5.02095e-21)
(0.553518 -0.0471648 -2.10374e-21)
(1.06609 -0.0549633 -1.48403e-20)
(1.0671 -0.0556983 -6.59838e-21)
(0.88212 -0.0281774 -3.62673e-21)
(0.879399 0.0138233 -4.24091e-21)
(0.871716 0.00490472 -1.09336e-21)
(1.03167 -0.0234058 2.17052e-21)
(1.03099 -0.0235127 -3.12199e-21)
(1.03108 -0.0226983 -1.93666e-21)
(1.0337 -0.0307463 1.18981e-21)
(1.03387 -0.029805 -5.81284e-22)
(1.03296 -0.0301015 3.64182e-21)
(1.01781 -0.00742287 -3.79605e-22)
(1.01916 -0.00654666 2.40653e-22)
(1.01739 -0.00577887 2.31191e-22)
(0.916687 -0.0225004 -2.41033e-21)
(0.917039 -0.0424107 3.85126e-23)
(1.02934 -0.0147186 -3.40193e-23)
(1.02964 -0.015237 0)
(1.02895 -0.014987 -5.14403e-24)
(1.03224 -0.0240203 1.91715e-21)
(1.07532 -0.0514143 6.88821e-21)
(1.07619 -0.0520727 -2.9571e-21)
(1.07487 -0.0523874 9.31102e-21)
(0.930899 0.0317994 -3.9164e-21)
(0.917203 0.0229578 -3.94095e-21)
(0.93954 0.0197466 8.62149e-22)
(1.00355 -0.0205319 -2.54513e-22)
(1.0052 -0.0257208 -2.91158e-22)
(0.978173 -0.0788039 1.4283e-20)
(1.01737 -0.0790367 -1.0239e-20)
(0.421667 -0.018552 -1.08753e-20)
(0.34528 -0.00510864 0)
(0.317435 -0.0125521 -1.42446e-20)
(1.023 -0.00202188 1.66427e-21)
(1.02262 -0.00179196 -1.9567e-21)
(1.0226 -0.0020755 -6.53771e-21)
(1.01352 0.00141053 -1.34916e-22)
(1.01448 -0.0242856 0)
(1.01367 -0.0237648 0)
(1.01438 -0.023012 0)
(0.980813 -0.0918499 3.10654e-21)
(1.00639 -0.0855643 4.46811e-21)
(0.960164 -0.0481978 0)
(1.01482 0.00217707 0)
(1.01466 0.00217729 0)
(1.01501 0.00229841 1.14957e-22)
(1.02562 -0.0671721 3.65558e-21)
(1.0331 -0.0687287 1.93662e-21)
(0.987289 -0.0658634 6.6123e-21)
(1.03919 -0.0201152 3.56156e-21)
(1.03868 -0.0192499 -9.47125e-22)
(1.0297 -0.0144427 -2.15288e-21)
(1.02902 -0.0141802 -3.4349e-23)
(1.05255 -0.0332288 0)
(1.05141 -0.0332487 6.44367e-21)
(0.776072 -0.0536802 0)
(0.773655 -0.053641 0)
(1.00935 0.0225669 -1.58461e-21)
(1.01134 0.0187803 5.04679e-22)
(1.00672 0.0186442 4.03353e-22)
(1.01743 -0.00951166 -4.27885e-22)
(1.01621 -0.0080189 4.13132e-23)
(1.04076 -0.0206966 5.97058e-21)
(1.06979 -0.0767126 5.39804e-21)
(1.07454 -0.0633282 -1.68611e-21)
(1.07027 -0.0552696 -1.31713e-20)
(1.05898 -0.0529162 -8.23583e-21)
(1.06027 -0.0525191 -5.58235e-22)
(1.02839 -0.0367876 -1.47487e-21)
(1.02923 -0.0364545 -1.13691e-21)
(1.00622 -0.00124004 2.27611e-22)
(1.00617 -0.0011788 -6.34954e-23)
(0.907304 0.0134954 -1.00664e-22)
(0.90179 0.0326159 0)
(1.01923 0.0273422 1.19842e-22)
(1.01309 0.0305964 -4.3373e-22)
(1.01498 0.0249241 -4.60492e-23)
(0.628307 -0.0632253 -2.10531e-21)
(0.596165 -0.0593212 8.94299e-21)
(0.593963 -0.0612279 -1.76891e-20)
(0.923664 0.0192228 2.46363e-22)
(0.915633 0.0323324 -7.71282e-23)
(1.0187 0.00153718 4.53627e-23)
(1.01824 0.00133066 -1.43189e-23)
(1.01187 0.000533316 2.05304e-23)
(1.01208 0.000592556 -1.522e-23)
(1.01218 0.000566377 0)
(1.005 1.98101e-05 -5.69136e-24)
(1.00526 4.05997e-05 -4.35672e-24)
(1.00619 0.000102465 -1.02896e-22)
(1.0758 -0.0505666 4.77443e-21)
(1.07464 -0.0508262 -1.89664e-21)
(0.945843 -0.0910619 3.06485e-21)
(0.991216 -0.126519 1.43472e-20)
(0.789901 0.00137643 3.03434e-21)
(0.792385 -0.0392718 -2.55638e-22)
(0.795539 -0.0331952 -7.78693e-21)
(1.0075 -0.000373941 -7.7298e-24)
(1.00768 -0.000316924 -1.12238e-22)
(1.00766 -0.000423494 2.63165e-22)
(1.02058 -0.00043121 0)
(1.02058 -0.000591205 0)
(1.0208 -0.000497565 0)
(1.05793 -0.0974593 -4.6309e-21)
(1.05964 -0.0896177 -4.20968e-21)
(0.944473 0.0182098 1.00068e-21)
(0.928747 -0.0130175 7.00005e-21)
(0.944966 -0.0117619 -4.50887e-22)
(1.07613 -0.0778313 -1.28013e-21)
(1.07708 -0.0761293 5.80265e-21)
(1.02293 -0.0221714 0)
(1.02346 -0.0226427 -2.33879e-21)
(1.03314 -0.00709987 -1.39919e-21)
(1.03243 -0.00715608 0)
(1.06349 -0.0443786 8.6464e-21)
(1.0624 -0.0447742 -1.8188e-21)
(1.06343 -0.0457218 1.60536e-20)
(0.939678 0.0385477 1.11146e-21)
(0.955934 0.0345866 -3.87758e-21)
(1.05589 -0.0691754 6.18045e-21)
(1.01386 -0.0656727 -7.32466e-21)
(1.02614 -0.0292323 9.81032e-22)
(1.02615 -0.0288762 2.20169e-22)
(1.0266 -0.0292022 0)
(0.455862 -0.125677 2.05891e-21)
(0.509862 -0.122075 0)
(1.00639 -0.00136171 -8.47749e-23)
(1.00644 -0.00142421 -8.17187e-23)
(1.00632 -0.00132067 3.20874e-24)
(0.56489 -0.0474196 0)
(0.586057 -0.0502625 -4.03922e-21)
(1.05925 -0.0304841 -8.3035e-21)
(1.06033 -0.030294 -6.97359e-21)
(1.03907 -0.0281517 -3.7956e-21)
(1.03891 -0.0289457 3.92929e-21)
(0.643126 -0.0642606 -1.91256e-20)
(0.604565 -0.0620771 1.46876e-21)
(0.616162 -0.0616397 -1.94391e-21)
(1.01846 -0.0125298 7.31839e-22)
(1.01817 -0.0126024 1.65851e-21)
(1.0186 -0.0128906 -1.14102e-21)
(1.01409 -0.0344842 -2.48986e-22)
(1.01351 -0.0404179 -2.07585e-22)
(0.63248 -0.0454801 -6.28477e-21)
(0.632298 -0.0436613 4.96504e-21)
(0.659047 -0.0470638 9.51834e-21)
(1.00736 -0.000324372 1.11718e-22)
(1.00733 -0.000431663 1.14322e-22)
(1.07158 -0.0471961 2.42469e-21)
(1.0726 -0.0479026 -3.22351e-21)
(1.07133 -0.0484335 2.89913e-21)
(1.05024 -0.0349211 0)
(1.0512 -0.0359158 0)
(1.02301 -0.0216032 -5.06283e-22)
(1.02242 -0.0216066 0)
(0.184263 -0.0319761 9.81968e-21)
(0.155865 -0.00781982 5.4902e-22)
(1.02576 -0.0293495 1.04643e-21)
(1.02622 -0.0296955 -1.10475e-21)
(1.02728 -0.0145956 -7.27838e-22)
(1.02771 -0.0145473 -1.97532e-21)
(1.02774 -0.0151026 -1.35328e-21)
(0.707641 -0.0478539 3.77833e-21)
(0.700168 -0.046819 1.35772e-20)
(0.676589 -0.044072 9.2559e-21)
(1.01141 0.000905251 -1.3051e-22)
(1.01156 0.000947221 -1.19827e-22)
(1.01124 0.000900835 3.18585e-23)
(1.03372 -0.0314423 0)
(1.03446 -0.0311242 4.67959e-21)
(1.0153 0.00192168 1.73628e-22)
(1.0153 0.00105581 -8.41834e-23)
(1.01581 0.00135152 5.58009e-23)
(0.666474 -0.0671535 -2.03315e-21)
(0.668445 -0.0665496 1.57694e-20)
(1.08471 -0.0671544 -3.25033e-21)
(1.08487 -0.0680357 -1.80206e-20)
(1.08566 -0.0672085 3.9882e-21)
(1.01996 -0.00193752 7.89608e-22)
(1.01981 -0.00208738 8.00741e-22)
(1.07119 -0.0531866 -5.47247e-21)
(1.07089 -0.0542327 -2.03875e-20)
(1.07013 -0.0532773 -1.01931e-21)
(1.02037 -0.00132246 -2.3531e-21)
(1.02036 -0.00148852 8.78705e-22)
(1.02063 -0.00139993 -3.65067e-21)
(0.446987 -0.0258154 2.95833e-21)
(0.454336 -0.019167 2.49019e-21)
(1.02149 -0.00637873 -4.55818e-22)
(1.02339 -0.00833369 -1.23842e-21)
(1.02428 -0.00523768 -4.4745e-22)
(1.00378 5.18879e-05 -3.70316e-23)
(1.00422 8.75658e-05 6.1121e-23)
(1.00494 0.000170949 3.40368e-23)
(1.00938 -0.00407241 1.21842e-23)
(1.00948 -0.00422716 -1.04548e-23)
(1.00937 -0.00417212 1.90705e-24)
(1.08371 -0.0668786 -2.40637e-21)
(1.08439 -0.0660458 -6.40905e-21)
(1.05215 -0.0367244 0)
(1.05335 -0.0366496 1.53009e-23)
(1.04277 -0.0185147 9.94446e-23)
(1.04275 -0.0192488 -2.16976e-21)
(1.04205 -0.0187284 1.83238e-22)
(1.02042 -0.000381305 0)
(1.01873 -0.0124595 2.2275e-22)
(1.01832 -0.0122122 3.78569e-23)
(1.02677 -0.0147631 3.32128e-22)
(1.02671 -0.0141581 1.1245e-21)
(0.901954 -0.000337608 -2.88648e-22)
(0.902766 -0.0311606 -3.9503e-23)
(0.267049 0.200865 -1.11933e-20)
(0.275156 0.203583 1.36344e-20)
(0.494778 -0.00103124 4.91842e-21)
(0.53937 -0.00375147 1.01016e-20)
(0.500206 0.00257348 2.07425e-22)
(1.00844 -0.0232483 8.42925e-22)
(1.00805 -0.0249148 1.17549e-21)
(1.00686 -0.0235788 -2.26251e-22)
(0.685763 -0.0664955 -1.02883e-20)
(0.67523 -0.0666086 -4.70187e-21)
(0.867226 -0.0936619 -7.88802e-21)
(0.833904 -0.0888814 -5.54327e-21)
(0.830214 -0.0943835 -2.93229e-21)
(1.01933 -0.000893313 1.63014e-21)
(1.05937 -0.0448567 7.38048e-23)
(1.05841 -0.0440508 4.29825e-21)
(1.07553 -0.0798322 7.39887e-21)
(1.07648 -0.0792242 1.69436e-22)
(0.998396 0.00746246 1.20585e-21)
(0.995913 0.00580886 1.03081e-21)
(0.998918 0.00400183 5.48717e-22)
(1.02527 -0.0486202 -6.22427e-24)
(1.02237 -0.0476205 -8.46783e-22)
(1.02541 -0.0459455 -1.16128e-21)
(1.07508 -0.0646549 1.26589e-20)
(1.07498 -0.0644189 1.36766e-20)
(1.07531 -0.0643459 1.2235e-21)
(1.08335 -0.0693072 8.50106e-21)
(1.0128 0.000447691 -4.51493e-22)
(1.01335 -0.00028759 8.58617e-23)
(1.01233 -0.000449794 3.44235e-22)
(0.85297 -0.0800208 3.46718e-21)
(0.881408 -0.0852169 1.90999e-21)
(0.83377 -0.0307048 5.12201e-21)
(0.630376 -0.0484191 -5.88107e-23)
(0.602223 -0.0457343 3.9353e-21)
(0.607929 -0.0456916 -9.89252e-22)
(1.01932 -0.000568213 -2.18075e-23)
(1.01962 -0.000646854 -7.12485e-22)
(1.02143 -0.0270641 2.33239e-21)
(1.02402 -0.0203044 -3.45791e-23)
(1.02711 -0.0275213 -3.11228e-22)
(1.01496 -0.0324037 -1.99472e-21)
(1.01646 -0.024718 3.11074e-22)
(1.03569 -0.132617 3.48572e-22)
(1.04354 -0.127527 4.22115e-21)
(1.03897 -0.131509 3.72455e-21)
(1.04286 -0.017872 2.3801e-21)
(1.04359 -0.0184447 5.52049e-21)
(1.02859 -0.0501277 9.04323e-22)
(1.02495 -0.0519763 1.32237e-21)
(-0.0711926 -0.0518996 -1.33399e-20)
(-0.0769419 -0.042502 1.62198e-20)
(1.00899 -0.00403114 -6.93856e-23)
(1.00892 -0.00390896 -1.4814e-23)
(0.827849 -0.0728814 -2.64241e-21)
(0.867255 -0.121315 3.6616e-21)