/*--------------------------------*- C++ -*----------------------------------*\
| =========                 |                                                 |
| \\      /  F ield         | OpenFOAM: The Open Source CFD Toolbox           |
|  \\    /   O peration     | Version:  v2012                                 |
|   \\  /    A nd           | Website:  www.openfoam.com                      |
|    \\/     M anipulation  |                                                 |
\*---------------------------------------------------------------------------*/
FoamFile
{
    version     2.0;
    format      ascii;
    class       pointVectorField;
    location    "800";
    object      pointDisplacement;
}
// * * * * * * * * * * * * * * * * * * * * * * * * * * * * * * * * * * * * * //

dimensions      [0 1 0 0 0 0 0];


internalField   nonuniform List<vector> 
14386
(
(0 0 0)
(0 0.0692771 0)
(0 0 0)
(0 0.0692771 0)
(0 0 0)
(0 0 0)
(0 0 0)
(0 0 0)
(0 0 0)
(0 0 0)
(0 0 0)
(0 0 0)
(0 0 0)
(0 0 0)
(0 0 0)
(0 0 0)
(0 0 0)
(0 0 0)
(0 0 0)
(0 0 0)
(0 0 0)
(0 0 0)
(0 0 0)
(0 0 0)
(0 0 0)
(0 0 0)
(0 0 0)
(0 0 0)
(0 0 0)
(0 0 0)
(0 0 0)
(0 0 0)
(0 0 0)
(0 0 0)
(0 0 0)
(0 0 0)
(0 0 0)
(0 0 0)
(0 0 0)
(0 0 0)
(0 0 0)
(0 0 0)
(0 0 0)
(0 0 0)
(0 0 0)
(0 0 0)
(0 0 0)
(0 0 0)
(0 0 0)
(0 0 0)
(0 0 0)
(0 0 0)
(0 0 0)
(0 0 0)
(0 0 0)
(0 0 0)
(0 0 0)
(0 0 0)
(0 0 0)
(0 0 0)
(0 0 0)
(0 0 0)
(0 0 0)
(0 0 0)
(0 0 0)
(0 0 0)
(0 0 0)
(0 0 0)
(0 0 0)
(0 0 0)
(0 0 0)
(0 0 0)
(0 0 0)
(0 0 0)
(0 0 0)
(0 0 0)
(0 0 0)
(0 0 0)
(0 0 0)
(0 0 0)
(0 0 0)
(0 0 0)
(0 0 0)
(0 0 0)
(0 0 0)
(0 0 0)
(0 0 0)
(0 0 0)
(0 0 0)
(0 0 0)
(0 0 0)
(0 0 0)
(0 0 0)
(0 0 0)
(0 0 0)
(0 0 0)
(0 0 0)
(0 0 0)
(0 0 0)
(0 0 0)
(0 0 0)
(0 0 0)
(0 0 0)
(0 0 0)
(0 0 0)
(0 0 0)
(0 0 0)
(0 0 0)
(0 0 0)
(0 0 0)
(0 0 0)
(0 0 0)
(0 0 0)
(0 0 0)
(0 0 0)
(0 0 0)
(0 0 0)
(0 0 0)
(0 0 0)
(0 0 0)
(0 0 0)
(0 0 0)
(0 0 0)
(0 0 0)
(0 0 0)
(0 0 0)
(0 0 0)
(0 0 0)
(0 0 0)
(0 0 0)
(0 0 0)
(0 0 0)
(0 0 0)
(0 0.0692771 0)
(0 0.0692771 0)
(0 0.0692771 0)
(0 0.0692771 0)
(0 0.0692771 0)
(0 0.0692771 0)
(0 0.0692771 0)
(0 0.0692771 0)
(0 0.0692771 0)
(0 0.0692771 0)
(0 0.0692771 0)
(0 0.0692771 0)
(0 0.0692771 0)
(0 0.0692771 0)
(0 0.0692771 0)
(0 0.0692771 0)
(0 0.0692771 0)
(0 0.0692771 0)
(0 0.0692771 0)
(0 0.0692771 0)
(0 0.0692771 0)
(0 0.0692771 0)
(0 0.0692771 0)
(0 0.0692771 0)
(0 0.0692771 0)
(0 0.0692771 0)
(0 0.0692771 0)
(0 0.0692771 0)
(0 0.0692771 0)
(0 0 0)
(0 0 0)
(0 0 0)
(0 0 0)
(0 0 0)
(0 0 0)
(0 0 0)
(0 0 0)
(0 0 0)
(0 0 0)
(0 0 0)
(0 0 0)
(0 0 0)
(0 0 0)
(0 0 0)
(0 0 0)
(0 0 0)
(0 0 0)
(0 0 0)
(0 0 0)
(0 0 0)
(0 0 0)
(0 0 0)
(0 0 0)
(0 0 0)
(0 0 0)
(0 0 0)
(0 0 0)
(0 0 0)
(0 0 0)
(0 0 0)
(0 0 0)
(0 0 0)
(0 0 0)
(0 0 0)
(0 0 0)
(0 0 0)
(0 0 0)
(0 0 0)
(0 0 0)
(0 0 0)
(0 0 0)
(0 0 0)
(0 0 0)
(0 0 0)
(0 0 0)
(0 0 0)
(0 0 0)
(0 0 0)
(0 0 0)
(0 0 0)
(0 0 0)
(0 0 0)
(0 0 0)
(0 0 0)
(0 0 0)
(0 0 0)
(0 0 0)
(0 0 0)
(0 0 0)
(0 0 0)
(0 0 0)
(0 0 0)
(0 0 0)
(0 0 0)
(0 0 0)
(0 0 0)
(0 0 0)
(0 0 0)
(0 0 0)
(0 0 0)
(0 0 0)
(0 0 0)
(0 0 0)
(0 0 0)
(0 0 0)
(0 0 0)
(0 0 0)
(0 0 0)
(0 0 0)
(0 0 0)
(0 0 0)
(0 0 0)
(0 0 0)
(0 0 0)
(0 0 0)
(0 0 0)
(0 0 0)
(0 0 0)
(0 0 0)
(0 0 0)
(0 0 0)
(0 0 0)
(0 0 0)
(0 0 0)
(0 0 0)
(0 0 0)
(0 0 0)
(0 0 0)
(0 0 0)
(0 0 0)
(0 0 0)
(0 0 0)
(0 0 0)
(0 0 0)
(0 0 0)
(0 0 0)
(0 0 0)
(0 0 0)
(0 0 0)
(0 0 0)
(0 0 0)
(0 0 0)
(0 0 0)
(0 0 0)
(0 0 0)
(0 0 0)
(0 0 0)
(0 0 0)
(0 0 0)
(0 0 0)
(0 0 0)
(0 0 0)
(0 0 0)
(0 0 0)
(0 0 0)
(0 0 0)
(0 0 0)
(0 0 0)
(0 0.0692771 0)
(0 0.0692771 0)
(0 0.0692771 0)
(0 0.0692771 0)
(0 0.0692771 0)
(0 0.0692771 0)
(0 0.0692771 0)
(0 0.0692771 0)
(0 0.0692771 0)
(0 0.0692771 0)
(0 0.0692771 0)
(0 0.0692771 0)
(0 0.0692771 0)
(0 0.0692771 0)
(0 0.0692771 0)
(0 0.0692771 0)
(0 0.0692771 0)
(0 0.0692771 0)
(0 0.0692771 0)
(0 0.0692771 0)
(0 0.0692771 0)
(0 0.0692771 0)
(0 0.0692771 0)
(0 0.0692771 0)
(0 0.0692771 0)
(0 0.0692771 0)
(0 0.0692771 0)
(0 0.0692771 0)
(0 0.0692771 0)
(0 0.00235179 0)
(0 0.0692771 0)
(0 0.0692771 0)
(0 0.0692771 0)
(0 0.00295044 0)
(0 0.00131487 0)
(0 0.000954799 0)
(0 0.00170507 0)
(0 0.00379549 0)
(0 0.000679543 0)
(0 0.00412492 0)
(0 0.000474317 0)
(0 0.00441442 0)
(0 0.00494262 0)
(0 0.000463996 0)
(0 0.069277 0)
(0 0.000413227 0)
(0 0.000363326 0)
(0 0.000350112 0)
(0 0.000271818 0)
(0 0.000244457 0)
(0 0.00208984 0)
(0 0.00169059 0)
(0 0.00112078 0)
(0 0.0692771 0)
(0 0.0692771 0)
(0 0.000158256 0)
(0 0.000154992 0)
(0 0.00445899 0)
(0 0.00476941 0)
(0 0.0042982 0)
(0 0.00355222 0)
(0 0.00247484 0)
(0 0.000631924 0)
(0 0.000808471 0)
(0 0.000455198 0)
(0 0.000445368 0)
(0 0.000429402 0)
(0 0.069277 0)
(0 0.00010106 0)
(0 8.27072e-05 0)
(0 0.00462734 0)
(0 0.00315838 0)
(0 0.00253236 0)
(0 0.00221725 0)
(0 0.00225399 0)
(0 0.00158119 0)
(0 0.00132202 0)
(0 0.00123738 0)
(0 0.00107349 0)
(0 0.000202476 0)
(0 0.000443679 0)
(0 0.000750693 0)
(0 0.000514827 0)
(0 0.000206958 0)
(0 0.00024714 0)
(0 0.000325943 0)
(0 0.000642101 0)
(0 3.37896e-05 0)
(0 0.0650141 0)
(0 0.0645771 0)
(0 0.0648386 0)
(0 0.0643909 0)
(0 0.064658 0)
(0 0.0650862 0)
(0 0.0649076 0)
(0 0.0644714 0)
(0 0.0647244 0)
(0 0.0651398 0)
(0 0.0649602 0)
(0 0.0645335 0)
(0 0.0647733 0)
(0 0.0643345 0)
(0 0.064579 0)
(0 0.064995 0)
(0 0.0648111 0)
(0 0.0643772 0)
(0 0.0646137 0)
(0 0.0650804 0)
(0 0.0648304 0)
(0 0.0644003 0)
(0 0.0646177 0)
(0 0.065019 0)
(0 0.0648173 0)
(0 0.0651971 0)
(0 0.0650016 0)
(0 0.06461 0)
(0 0.0647995 0)
(0 0.0651732 0)
(0 0.0649744 0)
(0 0.0653339 0)
(0 0.0651352 0)
(0 0.0654833 0)
(0 0.0652848 0)
(0 0.064923 0)
(0 0.0650746 0)
(0 0.0654263 0)
(0 0.0652173 0)
(0 0.0655602 0)
(0 0.0653491 0)
(0 0.0656893 0)
(0 0.0654691 0)
(0 0.0657938 0)
(0 0.0655767 0)
(0 0.0658761 0)
(0 0.065677 0)
(0 0.0659536 0)
(0 0.0657558 0)
(0 0.066027 0)
(0 0.0658147 0)
(0 0.0660947 0)
(0 0.0658733 0)
(0 0.0661489 0)
(0 0.0659254 0)
(0 0.0661924 0)
(0 0.0659656 0)
(0 0.0662267 0)
(0 0.0659944 0)
(0 0.0662534 0)
(0 0.0660113 0)
(0 0.0662677 0)
(0 0.0660125 0)
(0 0.0662695 0)
(0 0.0660014 0)
(0 0.0662616 0)
(0 0.065984 0)
(0 0.0662427 0)
(0 0.0659634 0)
(0 0.0662159 0)
(0 0.0659362 0)
(0 0.0661817 0)
(0 0.0658919 0)
(0 0.0661247 0)
(0 0.0658287 0)
(0 0.066049 0)
(0 0.0657525 0)
(0 0.0659699 0)
(0 0.0656643 0)
(0 0.0658805 0)
(0 0.0655612 0)
(0 0.0657758 0)
(0 0.0654499 0)
(0 0.0656601 0)
(0 0.0653269 0)
(0 0.0655232 0)
(0 0.0651897 0)
(0 0.0653694 0)
(0 0.0650309 0)
(0 0.0652076 0)
(0 0.0648556 0)
(0 0.0650318 0)
(0 0.064671 0)
(0 0.0648363 0)
(0 0.0644656 0)
(0 0.0642926 0)
(0 0.0640798 0)
(0 0.0653087 0)
(0 0.0656966 0)
(0 0.0655306 0)
(0 0.0646983 0)
(0 0.0638969 0)
(0 0.0636769 0)
(0 0.0646215 0)
(0 0.0634814 0)
(0 0.0632545 0)
(0 0.0630408 0)
(0 0.0628015 0)
(0 0.0625741 0)
(0 0.0623269 0)
(0 0.062086 0)
(0 0.0618315 0)
(0 0.0615769 0)
(0 0.0613146 0)
(0 0.0615609 0)
(0 0.0610321 0)
(0 0.0612665 0)
(0 0.0607269 0)
(0 0.0604873 0)
(0 0.0601702 0)
(0 0.0609456 0)
(0 0.0599229 0)
(0 0.0595922 0)
(0 0.0593335 0)
(0 0.058991 0)
(0 0.058715 0)
(0 0.0583666 0)
(0 0.058066 0)
(0 0.0577199 0)
(0 0.0574 0)
(0 0.0570508 0)
(0 0.0567167 0)
(0 0.0563614 0)
(0 0.0566815 0)
(0 0.0559865 0)
(0 0.0563019 0)
(0 0.0555884 0)
(0 0.0558812 0)
(0 0.0551664 0)
(0 0.0548758 0)
(0 0.0544477 0)
(0 0.054141 0)
(0 0.0537081 0)
(0 0.0554318 0)
(0 0.0533893 0)
(0 0.0529526 0)
(0 0.0526203 0)
(0 0.0521814 0)
(0 0.0518321 0)
(0 0.0513914 0)
(0 0.0510263 0)
(0 0.0505862 0)
(0 0.0509288 0)
(0 0.0501199 0)
(0 0.0504382 0)
(0 0.0496302 0)
(0 0.0492991 0)
(0 0.0488099 0)
(0 0.0484578 0)
(0 0.0479298 0)
(0 0.0476093 0)
(0 0.0471061 0)
(0 0.0490852 0)
(0 0.0467649 0)
(0 0.0462841 0)
(0 0.0459043 0)
(0 0.0454292 0)
(0 0.0450348 0)
(0 0.0445633 0)
(0 0.0649844 0)
(0 0.044157 0)
(0 0.0436887 0)
(0 0.0440656 0)
(0 0.0431934 0)
(0 0.0435378 0)
(0 0.042672 0)
(0 0.0423192 0)
(0 0.041812 0)
(0 0.0414431 0)
(0 0.0409506 0)
(0 0.0421384 0)
(0 0.0405622 0)
(0 0.0400729 0)
(0 0.0396734 0)
(0 0.0391828 0)
(0 0.0387809 0)
(0 0.0382964 0)
(0 0.0378879 0)
(0 0.0374134 0)
(0 0.0369971 0)
(0 0.0365338 0)
(0 0.0369163 0)
(0 0.036047 0)
(0 0.036396 0)
(0 0.0355376 0)
(0 0.035183 0)
(0 0.0346833 0)
(0 0.0350078 0)
(0 0.0341643 0)
(0 0.0338333 0)
(0 0.0333266 0)
(0 0.032988 0)
(0 0.0324934 0)
(0 0.0321471 0)
(0 0.0316651 0)
(0 0.0319797 0)
(0 0.0311641 0)
(0 0.0308433 0)
(0 0.0303551 0)
(0 0.0300289 0)
(0 0.029553 0)
(0 0.0292214 0)
(0 0.0287583 0)
(0 0.029059 0)
(0 0.0282772 0)
(0 0.0279709 0)
(0 0.0275028 0)
(0 0.0271914 0)
(0 0.0267361 0)
(0 0.0264196 0)
(0 0.0259776 0)
(0 0.0262643 0)
(0 0.0255187 0)
(0 0.025228 0)
(0 0.0247822 0)
(0 0.0244877 0)
(0 0.0240547 0)
(0 0.0237562 0)
(0 0.0233353 0)
(0 0.0236065 0)
(0 0.0228979 0)
(0 0.0226246 0)
(0 0.0221993 0)
(0 0.0219222 0)
(0 0.0215102 0)
(0 0.0647593 0)
(0 0.0651119 0)
(0 0.0648815 0)
(0 0.0652272 0)
(0 0.0212295 0)
(0 0.0208327 0)
(0 0.0210844 0)
(0 0.0204222 0)
(0 0.0201684 0)
(0 0.0206367 0)
(0 0.0199916 0)
(0 0.0201593 0)
(0 0.0195428 0)
(0 0.0660836 0)
(0 0.0570502 0)
(0 0.0374416 0)
(0 0.0446027 0)
(0 0.0661687 0)
(0 0.0664074 0)
(0 0.0664736 0)
(0 0.0514422 0)
(0 0.0688549 0)
(0 0.0688938 0)
(0 0.0688415 0)
(0 0.0688812 0)
(0 0.0688273 0)
(0 0.0688677 0)
(0 0.0689175 0)
(0 0.068904 0)
(0 0.0688534 0)
(0 0.0688904 0)
(0 0.0688384 0)
(0 0.068876 0)
(0 0.0689475 0)
(0 0.0688219 0)
(0 0.0688601 0)
(0 0.0688034 0)
(0 0.0688426 0)
(0 0.0687832 0)
(0 0.0688233 0)
(0 0.0688792 0)
(0 0.0688607 0)
(0 0.068913 0)
(0 0.0688951 0)
(0 0.068944 0)
(0 0.0689268 0)
(0 0.0688758 0)
(0 0.0689081 0)
(0 0.068973 0)
(0 0.0688541 0)
(0 0.0688872 0)
(0 0.0687407 0)
(0 0.0688296 0)
(0 0.0688633 0)
(0 0.0688019 0)
(0 0.0688366 0)
(0 0.0688948 0)
(0 0.0688682 0)
(0 0.0689226 0)
(0 0.0688964 0)
(0 0.068947 0)
(0 0.0689213 0)
(0 0.068969 0)
(0 0.0689437 0)
(0 0.0689898 0)
(0 0.0689639 0)
(0 0.0690091 0)
(0 0.0689829 0)
(0 0.069026 0)
(0 0.0689985 0)
(0 0.0690388 0)
(0 0.0690052 0)
(0 0.0690492 0)
(0 0.0690204 0)
(0 0.0690592 0)
(0 0.0690285 0)
(0 0.0690664 0)
(0 0.0690349 0)
(0 0.0690709 0)
(0 0.0690386 0)
(0 0.0690738 0)
(0 0.0690413 0)
(0 0.0690749 0)
(0 0.0690423 0)
(0 0.069074 0)
(0 0.06904 0)
(0 0.0690708 0)
(0 0.0690353 0)
(0 0.0690655 0)
(0 0.0690284 0)
(0 0.0690579 0)
(0 0.0690196 0)
(0 0.0690479 0)
(0 0.0690086 0)
(0 0.0690351 0)
(0 0.0689942 0)
(0 0.0690196 0)
(0 0.0689751 0)
(0 0.0690008 0)
(0 0.0689528 0)
(0 0.0689797 0)
(0 0.0689858 0)
(0 0.0690051 0)
(0 0.0689293 0)
(0 0.0689519 0)
(0 0.0689127 0)
(0 0.0690509 0)
(0 0.0687713 0)
(0 0.0618212 0)
(0 0.0690449 0)
(0 0.0657319 0)
(0 0.0690984 0)
(0 0.0690928 0)
(0 0.0687336 0)
(0 0.0686993 0)
(0 0.0686582 0)
(0 0.0686215 0)
(0 0.0685745 0)
(0 0.0685351 0)
(0 0.0684833 0)
(0 0.0684396 0)
(0 0.0683854 0)
(0 0.0683357 0)
(0 0.0682816 0)
(0 0.0683905 0)
(0 0.0682806 0)
(0 0.0683376 0)
(0 0.0682211 0)
(0 0.068279 0)
(0 0.0681565 0)
(0 0.068214 0)
(0 0.0561239 0)
(0 0.0556656 0)
(0 0.0680861 0)
(0 0.0681429 0)
(0 0.0680243 0)
(0 0.0691042 0)
(0 0.0664998 0)
(0 0.0656689 0)
(0 0.0658807 0)
(0 0.0649654 0)
(0 0.0326097 0)
(0 0.0216135 0)
(0 0.0189037 0)
(0 0.0241617 0)
(0 0.0268452 0)
(0 0.0344574 0)
(0 0.0285511 0)
(0 0.0257761 0)
(0 0.0401401 0)
(0 0.0563546 0)
(0 0.0566666 0)
(0 0.0559558 0)
(0 0.0562422 0)
(0 0.0555173 0)
(0 0.055775 0)
(0 0.0550194 0)
(0 0.0552654 0)
(0 0.0545002 0)
(0 0.0547014 0)
(0 0.0539138 0)
(0 0.0540801 0)
(0 0.0532422 0)
(0 0.0534382 0)
(0 0.0525667 0)
(0 0.0527939 0)
(0 0.0518286 0)
(0 0.0519025 0)
(0 0.0510224 0)
(0 0.0510834 0)
(0 0.0501823 0)
(0 0.0502381 0)
(0 0.0493122 0)
(0 0.0511192 0)
(0 0.0502503 0)
(0 0.0511325 0)
(0 0.0502207 0)
(0 0.0511217 0)
(0 0.0501707 0)
(0 0.0510643 0)
(0 0.0500667 0)
(0 0.0509643 0)
(0 0.0499216 0)
(0 0.0488868 0)
(0 0.0508332 0)
(0 0.0497371 0)
(0 0.0506461 0)
(0 0.0494867 0)
(0 0.0504049 0)
(0 0.049218 0)
(0 0.0501366 0)
(0 0.0489045 0)
(0 0.0498271 0)
(0 0.0485421 0)
(0 0.0494756 0)
(0 0.0475962 0)
(0 0.051314 0)
(0 0.0481346 0)
(0 0.0490721 0)
(0 0.0476748 0)
(0 0.0486175 0)
(0 0.0499829 0)
(0 0.0495316 0)
(0 0.0508538 0)
(0 0.0504122 0)
(0 0.0490502 0)
(0 0.049935 0)
(0 0.0516921 0)
(0 0.0485243 0)
(0 0.0494094 0)
(0 0.0479387 0)
(0 0.0488295 0)
(0 0.0472912 0)
(0 0.0481966 0)
(0 0.0497004 0)
(0 0.049078 0)
(0 0.0505405 0)
(0 0.0499239 0)
(0 0.0484084 0)
(0 0.049258 0)
(0 0.0513371 0)
(0 0.0476856 0)
(0 0.0485433 0)
(0 0.0519521 0)
(0 0.0492453 0)
(0 0.0483571 0)
(0 0.0483099 0)
(0 0.0473845 0)
(0 0.0468851 0)
(0 0.0477647 0)
(0 0.0473585 0)
(0 0.0464009 0)
(0 0.0463846 0)
(0 0.0454078 0)
(0 0.0453997 0)
(0 0.0444036 0)
(0 0.0444037 0)
(0 0.0433919 0)
(0 0.0433489 0)
(0 0.0423217 0)
(0 0.0422327 0)
(0 0.0411884 0)
(0 0.0410492 0)
(0 0.0399892 0)
(0 0.0401441 0)
(0 0.0389263 0)
(0 0.0390931 0)
(0 0.0378402 0)
(0 0.0380368 0)
(0 0.0367632 0)
(0 0.0369842 0)
(0 0.0357074 0)
(0 0.0359309 0)
(0 0.0346471 0)
(0 0.0348795 0)
(0 0.0335903 0)
(0 0.0338308 0)
(0 0.0325415 0)
(0 0.0327865 0)
(0 0.0314999 0)
(0 0.0317555 0)
(0 0.0397791 0)
(0 0.0304629 0)
(0 0.0307243 0)
(0 0.0294371 0)
(0 0.0296605 0)
(0 0.0284293 0)
(0 0.02866 0)
(0 0.0354182 0)
(0 0.0274388 0)
(0 0.027704 0)
(0 0.0264479 0)
(0 0.0267467 0)
(0 0.0254775 0)
(0 0.0257739 0)
(0 0.0245158 0)
(0 0.0248193 0)
(0 0.0235715 0)
(0 0.0238797 0)
(0 0.0311797 0)
(0 0.0226377 0)
(0 0.0229563 0)
(0 0.0241309 0)
(0 0.0232128 0)
(0 0.0220555 0)
(0 0.0223151 0)
(0 0.0211703 0)
(0 0.0214355 0)
(0 0.0225325 0)
(0 0.0216603 0)
(0 0.0205756 0)
(0 0.0208062 0)
(0 0.0197337 0)
(0 0.0199676 0)
(0 0.0189086 0)
(0 0.0191458 0)
(0 0.0181007 0)
(0 0.0183426 0)
(0 0.0193444 0)
(0 0.0185467 0)
(0 0.0175588 0)
(0 0.0177681 0)
(0 0.0167947 0)
(0 0.0170094 0)
(0 0.0160515 0)
(0 0.0162706 0)
(0 0.017187 0)
(0 0.0164508 0)
(0 0.0155522 0)
(0 0.0157348 0)
(0 0.0148529 0)
(0 0.0150391 0)
(0 0.0141723 0)
(0 0.0143618 0)
(0 0.0151883 0)
(0 0.0145118 0)
(0 0.0137031 0)
(0 0.0138608 0)
(0 0.0130666 0)
(0 0.0132158 0)
(0 0.0139805 0)
(0 0.0133387 0)
(0 0.0124675 0)
(0 0.0127191 0)
(0 0.0134366 0)
(0 0.012834 0)
(0 0.0121686 0)
(0 0.012243 0)
(0 0.012866 0)
(0 0.0122954 0)
(0 0.0116617 0)
(0 0.0117264 0)
(0 0.0123359 0)
(0 0.011769 0)
(0 0.0123417 0)
(0 0.0117797 0)
(0 0.0112058 0)
(0 0.0112224 0)
(0 0.0117639 0)
(0 0.0112122 0)
(0 0.0117165 0)
(0 0.0111745 0)
(0 0.0106668 0)
(0 0.0106347 0)
(0 0.011117 0)
(0 0.0105803 0)
(0 0.0110415 0)
(0 0.0105028 0)
(0 0.0100469 0)
(0 0.00996991 0)
(0 0.0104049 0)
(0 0.00987642 0)
(0 0.0094441 0)
(0 0.0102879 0)
(0 0.00976331 0)
(0 0.0101522 0)
(0 0.00963328 0)
(0 0.00999823 0)
(0 0.00948123 0)
(0 0.00982559 0)
(0 0.009305 0)
(0 0.0096436 0)
(0 0.00910546 0)
(0 0.00877689 0)
(0 0.00943468 0)
(0 0.00889632 0)
(0 0.00920247 0)
(0 0.00867849 0)
(0 0.00895957 0)
(0 0.00843576 0)
(0 0.00869778 0)
(0 0.00973526 0)
(0 0.010526 0)
(0 0.00816816 0)
(0 0.00842106 0)
(0 0.00790844 0)
(0 0.0227118 0)
(0 0.0271002 0)
(0 0.0078936 0)
(0 0.00813478 0)
(0 0.00865811 0)
(0 0.00835766 0)
(0 0.00888042 0)
(0 0.00856543 0)
(0 0.0281496 0)
(0 0.00804656 0)
(0 0.00824026 0)
(0 0.0460116 0)
(0 0.0469154 0)
(0 0.0486256 0)
(0 0.0477895 0)
(0 0.0494445 0)
(0 0.0486242 0)
(0 0.0502237 0)
(0 0.0494187 0)
(0 0.050983 0)
(0 0.0501746 0)
(0 0.0485464 0)
(0 0.0493153 0)
(0 0.0508619 0)
(0 0.0500811 0)
(0 0.0484116 0)
(0 0.0491862 0)
(0 0.0508298 0)
(0 0.0499376 0)
(0 0.0482315 0)
(0 0.0489973 0)
(0 0.0506623 0)
(0 0.0497374 0)
(0 0.0513579 0)
(0 0.0504477 0)
(0 0.0487521 0)
(0 0.0494777 0)
(0 0.0511351 0)
(0 0.0501844 0)
(0 0.0484463 0)
(0 0.0491755 0)
(0 0.0508698 0)
(0 0.0498778 0)
(0 0.0515262 0)
(0 0.0505499 0)
(0 0.0488279 0)
(0 0.049514 0)
(0 0.0512258 0)
(0 0.0501914 0)
(0 0.0484316 0)
(0 0.00772412 0)
(0 0.00790534 0)
(0 0.0339984 0)
(0 0.0450742 0)
(0 0.0441408 0)
(0 0.0231775 0)
(0 0.00908853 0)
(0 0.0554729 0)
(0 0.00739146 0)
(0 0.00756122 0)
(0 0.0178207 0)
(0 0.0431019 0)
(0 0.0421464 0)
(0 0.00704961 0)
(0 0.00720893 0)
(0 0.00771862 0)
(0 0.00687894 0)
(0 0.046372 0)
(0 0.0409963 0)
(0 0.040012 0)
(0 0.0381928 0)
(0 0.0453571 0)
(0 0.0387544 0)
(0 0.0377276 0)
(0 0.0308597 0)
(0 0.0139473 0)
(0 0.0173276 0)
(0 0.0472249 0)
(0 0.0651409 0)
(0 0.0679486 0)
(0 0.0678819 0)
(0 0.0656299 0)
(0 0.0641071 0)
(0 0.068988 0)
(0 0.0690142 0)
(0 0.0690276 0)
(0 0.069051 0)
(0 0.069063 0)
(0 0.0690836 0)
(0 0.0690937 0)
(0 0.0691118 0)
(0 0.0691208 0)
(0 0.0691368 0)
(0 0.0691445 0)
(0 0.0691586 0)
(0 0.0691651 0)
(0 0.0691774 0)
(0 0.069183 0)
(0 0.0691939 0)
(0 0.0691986 0)
(0 0.0692082 0)
(0 0.069212 0)
(0 0.0692029 0)
(0 0.0692155 0)
(0 0.0692068 0)
(0 0.0692183 0)
(0 0.0692104 0)
(0 0.0692211 0)
(0 0.0692137 0)
(0 0.0692242 0)
(0 0.0692166 0)
(0 0.0692268 0)
(0 0.0692192 0)
(0 0.0692291 0)
(0 0.0692216 0)
(0 0.0692311 0)
(0 0.0692238 0)
(0 0.069233 0)
(0 0.0692204 0)
(0 0.069217 0)
(0 0.0692378 0)
(0 0.069228 0)
(0 0.0692252 0)
(0 0.0692347 0)
(0 0.0692317 0)
(0 0.0692406 0)
(0 0.0692373 0)
(0 0.0692459 0)
(0 0.0692432 0)
(0 0.0692483 0)
(0 0.0692527 0)
(0 0.0692546 0)
(0 0.069234 0)
(0 0.0692404 0)
(0 0.0692583 0)
(0 0.0692597 0)
(0 0.0692308 0)
(0 0.0692372 0)
(0 0.0692628 0)
(0 0.0692639 0)
(0 0.0691302 0)
(0 0.0692057 0)
(0 0.0687837 0)
(0 0.0683276 0)
(0 0.0682193 0)
(0 0.0682662 0)
(0 0.0681492 0)
(0 0.0681989 0)
(0 0.0680799 0)
(0 0.0681244 0)
(0 0.0680012 0)
(0 0.0680421 0)
(0 0.0679037 0)
(0 0.0679518 0)
(0 0.0678007 0)
(0 0.067854 0)
(0 0.0678776 0)
(0 0.067695 0)
(0 0.0677492 0)
(0 0.067581 0)
(0 0.0676361 0)
(0 0.0677989 0)
(0 0.0676875 0)
(0 0.0692269 0)
(0 0.0692334 0)
(0 0.0692427 0)
(0 0.0692391 0)
(0 0.0692476 0)
(0 0.0692441 0)
(0 0.0692519 0)
(0 0.0692483 0)
(0 0.0692555 0)
(0 0.0692519 0)
(0 0.0689877 0)
(0 0.0692665 0)
(0 0.0692673 0)
(0 0.0692649 0)
(0 0.069268 0)
(0 0.0678439 0)
(0 0.067735 0)
(0 0.0692394 0)
(0 0.0363764 0)
(0 0.035325 0)
(0 0.0374136 0)
(0 0.0523539 0)
(0 0.0678873 0)
(0 0.0677792 0)
(0 0.0679304 0)
(0 0.0678207 0)
(0 0.0676584 0)
(0 0.0677009 0)
(0 0.0675117 0)
(0 0.0678602 0)
(0 0.0677416 0)
(0 0.0678986 0)
(0 0.0677805 0)
(0 0.0692658 0)
(0 0.0692686 0)
(0 0.0692582 0)
(0 0.0692549 0)
(0 0.0692665 0)
(0 0.0692692 0)
(0 0.0692709 0)
(0 0.0692714 0)
(0 0.0692698 0)
(0 0.0692717 0)
(0 0.0692702 0)
(0 0.0692721 0)
(0 0.0692707 0)
(0 0.0692724 0)
(0 0.0692711 0)
(0 0.0692727 0)
(0 0.0692714 0)
(0 0.069273 0)
(0 0.0692717 0)
(0 0.0692732 0)
(0 0.069272 0)
(0 0.0692734 0)
(0 0.0692722 0)
(0 0.0692693 0)
(0 0.0691297 0)
(0 0.0675273 0)
(0 0.0675199 0)
(0 0.0408687 0)
(0 0.0395468 0)
(0 0.0517196 0)
(0 0.0692619 0)
(0 0.0682664 0)
(0 0.068194 0)
(0 0.0683131 0)
(0 0.0682403 0)
(0 0.0681153 0)
(0 0.0681616 0)
(0 0.068283 0)
(0 0.0682035 0)
(0 0.0683219 0)
(0 0.0682393 0)
(0 0.0683539 0)
(0 0.0682691 0)
(0 0.0683791 0)
(0 0.0682934 0)
(0 0.0683996 0)
(0 0.0683121 0)
(0 0.0684151 0)
(0 0.0683257 0)
(0 0.0682161 0)
(0 0.0682282 0)
(0 0.0683347 0)
(0 0.0682353 0)
(0 0.0683396 0)
(0 0.0682373 0)
(0 0.0683397 0)
(0 0.0682336 0)
(0 0.0683335 0)
(0 0.0682233 0)
(0 0.0683211 0)
(0 0.0682072 0)
(0 0.0681024 0)
(0 0.0680824 0)
(0 0.0681861 0)
(0 0.0680553 0)
(0 0.06816 0)
(0 0.0680216 0)
(0 0.0681316 0)
(0 0.0679851 0)
(0 0.0680934 0)
(0 0.0679407 0)
(0 0.0680388 0)
(0 0.0678867 0)
(0 0.067982 0)
(0 0.0678233 0)
(0 0.067916 0)
(0 0.067747 0)
(0 0.0681495 0)
(0 0.0679693 0)
(0 0.0676639 0)
(0 0.0681119 0)
(0 0.0692223 0)
(0 0.0692605 0)
(0 0.0692573 0)
(0 0.0692508 0)
(0 0.0692533 0)
(0 0.0692595 0)
(0 0.0692553 0)
(0 0.0692611 0)
(0 0.0692569 0)
(0 0.0692623 0)
(0 0.0692581 0)
(0 0.0692628 0)
(0 0.0692584 0)
(0 0.0692627 0)
(0 0.0692577 0)
(0 0.0692622 0)
(0 0.0692567 0)
(0 0.0692613 0)
(0 0.0692554 0)
(0 0.0692601 0)
(0 0.0692534 0)
(0 0.0692588 0)
(0 0.069251 0)
(0 0.0692505 0)
(0 0.0692447 0)
(0 0.0692524 0)
(0 0.0406416 0)
(0 0.0392854 0)
(0 0.0403633 0)
(0 0.0389464 0)
(0 0.0400323 0)
(0 0.0385528 0)
(0 0.0374541 0)
(0 0.036997 0)
(0 0.0358842 0)
(0 0.0353576 0)
(0 0.0342341 0)
(0 0.033636 0)
(0 0.0325062 0)
(0 0.0347705 0)
(0 0.0329804 0)
(0 0.0341168 0)
(0 0.0322615 0)
(0 0.0333957 0)
(0 0.0314598 0)
(0 0.0325971 0)
(0 0.0305651 0)
(0 0.0317166 0)
(0 0.0294246 0)
(0 0.0295947 0)
(0 0.0307556 0)
(0 0.028542 0)
(0 0.0297125 0)
(0 0.0319178 0)
(0 0.0308825 0)
(0 0.0366778 0)
(0 0.0342203 0)
(0 0.035571 0)
(0 0.033047 0)
(0 0.034343 0)
(0 0.0318695 0)
(0 0.0332025 0)
(0 0.030711 0)
(0 0.0677999 0)
(0 0.0677275 0)
(0 0.0692457 0)
(0 0.0349181 0)
(0 0.0359829 0)
(0 0.0680304 0)
(0 0.0677858 0)
(0 0.028594 0)
(0 0.0675671 0)
(0 0.0345404 0)
(0 0.0330773 0)
(0 0.0365397 0)
(0 0.036951 0)
(0 0.0360371 0)
(0 0.0364112 0)
(0 0.0354891 0)
(0 0.0358198 0)
(0 0.0348969 0)
(0 0.0351831 0)
(0 0.0342605 0)
(0 0.0361107 0)
(0 0.0345092 0)
(0 0.0335788 0)
(0 0.0337949 0)
(0 0.0328545 0)
(0 0.0326506 0)
(0 0.0319168 0)
(0 0.031728 0)
(0 0.0309828 0)
(0 0.0308106 0)
(0 0.0300472 0)
(0 0.0298975 0)
(0 0.0674776 0)
(0 0.0443697 0)
(0 0.0452785 0)
(0 0.0443001 0)
(0 0.0451663 0)
(0 0.0441953 0)
(0 0.063264 0)
(0 0.0321722 0)
(0 0.0295464 0)
(0 0.0291324 0)
(0 0.0290047 0)
(0 0.0692727 0)
(0 0.0333478 0)
(0 0.0344451 0)
(0 0.02825 0)
(0 0.0281129 0)
(0 0.0273725 0)
(0 0.0272297 0)
(0 0.0265037 0)
(0 0.0263787 0)
(0 0.0450214 0)
(0 0.0440548 0)
(0 0.0256473 0)
(0 0.0255257 0)
(0 0.0459471 0)
(0 0.0247943 0)
(0 0.0246751 0)
(0 0.0569425 0)
(0 0.0673731 0)
(0 0.0692742 0)
(0 0.0692736 0)
(0 0.0157995 0)
(0 0.0395527 0)
(0 0.0466248 0)
(0 0.0682627 0)
(0 0.0596912 0)
(0 0.0301552 0)
(0 0.0692685 0)
(0 0.0643959 0)
(0 0.0315856 0)
(0 0.0614774 0)
(0 0.0611376 0)
(0 0.0692688 0)
(0 0.069271 0)
(0 0.0676385 0)
(0 0.0675595 0)
(0 0.0692706 0)
(0 0.0270646 0)
(0 0.0616614 0)
(0 0.0684359 0)
(0 0.0330321 0)
(0 0.0339837 0)
(0 0.0680429 0)
(0 0.0316618 0)
(0 0.0327827 0)
(0 0.0537111 0)
(0 0.0680281 0)
(0 0.069265 0)
(0 0.0239523 0)
(0 0.0238393 0)
(0 0.0245299 0)
(0 0.0237116 0)
(0 0.0672766 0)
(0 0.0448483 0)
(0 0.0438755 0)
(0 0.0684608 0)
(0 0.0692724 0)
(0 0.069272 0)
(0 0.0671641 0)
(0 0.0296652 0)
(0 0.0320422 0)
(0 0.0342243 0)
(0 0.023133 0)
(0 0.023004 0)
(0 0.0229095 0)
(0 0.0236577 0)
(0 0.0227687 0)
(0 0.0221109 0)
(0 0.0219786 0)
(0 0.0213317 0)
(0 0.0212088 0)
(0 0.0205726 0)
(0 0.0204529 0)
(0 0.019829 0)
(0 0.0197119 0)
(0 0.0203005 0)
(0 0.0195687 0)
(0 0.0189852 0)
(0 0.0188509 0)
(0 0.0182738 0)
(0 0.0181481 0)
(0 0.0186944 0)
(0 0.0179994 0)
(0 0.0185157 0)
(0 0.0178285 0)
(0 0.0173182 0)
(0 0.0171548 0)
(0 0.0176342 0)
(0 0.0169698 0)
(0 0.0174194 0)
(0 0.0167639 0)
(0 0.0171855 0)
(0 0.0165378 0)
(0 0.0161191 0)
(0 0.0159024 0)
(0 0.0162928 0)
(0 0.0156678 0)
(0 0.0160307 0)
(0 0.0154166 0)
(0 0.0157555 0)
(0 0.0151512 0)
(0 0.0154696 0)
(0 0.0148728 0)
(0 0.0151739 0)
(0 0.0145819 0)
(0 0.0148637 0)
(0 0.0142746 0)
(0 0.0145301 0)
(0 0.0139478 0)
(0 0.0141799 0)
(0 0.013604 0)
(0 0.0138171 0)
(0 0.0132493 0)
(0 0.0134443 0)
(0 0.0128975 0)
(0 0.0130536 0)
(0 0.0124519 0)
(0 0.0136936 0)
(0 0.0148105 0)
(0 0.0126468 0)
(0 0.0692698 0)
(0 0.0154867 0)
(0 0.0686649 0)
(0 0.0692659 0)
(0 0.0279659 0)
(0 0.0267672 0)
(0 0.06899 0)
(0 0.061307 0)
(0 0.0607785 0)
(0 0.0298373 0)
(0 0.0310057 0)
(0 0.0286612 0)
(0 0.0331798 0)
(0 0.0341394 0)
(0 0.0297126 0)
(0 0.0681345 0)
(0 0.0473935 0)
(0 0.0338651 0)
(0 0.0321996 0)
(0 0.00444446 0)
(0 0.00392726 0)
(0 0.00429201 0)
(0 0.00377275 0)
(0 0.00413331 0)
(0 0.0692632 0)
(0 0.0687178 0)
(0 0.0686706 0)
(0 0.0166513 0)
(0 0.0140046 0)
(0 0.0541707 0)
(0 0.0225686 0)
(0 0.0692737 0)
(0 0.0692733 0)
(0 0.0692739 0)
(0 0.0674633 0)
(0 0.067377 0)
(0 0.0430713 0)
(0 0.0428839 0)
(0 0.0420791 0)
(0 0.0419089 0)
(0 0.041084 0)
(0 0.0409263 0)
(0 0.0417641 0)
(0 0.040684 0)
(0 0.0399353 0)
(0 0.0519024 0)
(0 0.0526654 0)
(0 0.0531666 0)
(0 0.0538984 0)
(0 0.0543558 0)
(0 0.0550403 0)
(0 0.0554567 0)
(0 0.0560997 0)
(0 0.056461 0)
(0 0.0570832 0)
(0 0.0573939 0)
(0 0.0579955 0)
(0 0.0582634 0)
(0 0.0588424 0)
(0 0.0590876 0)
(0 0.058575 0)
(0 0.0585083 0)
(0 0.059305 0)
(0 0.0587217 0)
(0 0.0594975 0)
(0 0.0589052 0)
(0 0.05967 0)
(0 0.0590609 0)
(0 0.0598 0)
(0 0.059195 0)
(0 0.0599007 0)
(0 0.0593171 0)
(0 0.0599945 0)
(0 0.0594088 0)
(0 0.0600621 0)
(0 0.0594677 0)
(0 0.0600957 0)
(0 0.0594971 0)
(0 0.0601103 0)
(0 0.0595063 0)
(0 0.0600551 0)
(0 0.0593871 0)
(0 0.0591267 0)
(0 0.0604822 0)
(0 0.0601005 0)
(0 0.059497 0)
(0 0.0606842 0)
(0 0.0599025 0)
(0 0.0596494 0)
(0 0.0606556 0)
(0 0.0612182 0)
(0 0.0603921 0)
(0 0.0601408 0)
(0 0.061171 0)
(0 0.058877 0)
(0 0.0588699 0)
(0 0.0587195 0)
(0 0.0593775 0)
(0 0.0598687 0)
(0 0.0608523 0)
(0 0.0610853 0)
(0 0.0617103 0)
(0 0.0616457 0)
(0 0.0611046 0)
(0 0.061759 0)
(0 0.0590756 0)
(0 0.0595714 0)
(0 0.0582224 0)
(0 0.0582122 0)
(0 0.0622271 0)
(0 0.0622791 0)
(0 0.0615208 0)
(0 0.0617301 0)
(0 0.062718 0)
(0 0.0627643 0)
(0 0.058743 0)
(0 0.0592462 0)
(0 0.0600434 0)
(0 0.0597276 0)
(0 0.0588983 0)
(0 0.0593798 0)
(0 0.0605098 0)
(0 0.058523 0)
(0 0.0590022 0)
(0 0.0615633 0)
(0 0.0610201 0)
(0 0.0582586 0)
(0 0.0621488 0)
(0 0.0623275 0)
(0 0.0581288 0)
(0 0.0586144 0)
(0 0.0594645 0)
(0 0.0590752 0)
(0 0.0598929 0)
(0 0.0594944 0)
(0 0.0602973 0)
(0 0.0598979 0)
(0 0.0590715 0)
(0 0.0594848 0)
(0 0.0603013 0)
(0 0.0598882 0)
(0 0.0590576 0)
(0 0.0594639 0)
(0 0.0602413 0)
(0 0.0598429 0)
(0 0.0590258 0)
(0 0.0594322 0)
(0 0.0602214 0)
(0 0.0598369 0)
(0 0.0590199 0)
(0 0.0593946 0)
(0 0.0602954 0)
(0 0.0597341 0)
(0 0.0283468 0)
(0 0.0255577 0)
(0 0.0331208 0)
(0 0.0313776 0)
(0 0.069215 0)
(0 0.0692093 0)
(0 0.0520848 0)
(0 0.0320263 0)
(0 0.0302533 0)
(0 0.030908 0)
(0 0.0291415 0)
(0 0.0284279 0)
(0 0.0273136 0)
(0 0.0265202 0)
(0 0.0254075 0)
(0 0.0245303 0)
(0 0.0234237 0)
(0 0.0243095 0)
(0 0.0223333 0)
(0 0.023224 0)
(0 0.0212499 0)
(0 0.0221554 0)
(0 0.0201906 0)
(0 0.02111 0)
(0 0.0191599 0)
(0 0.0200891 0)
(0 0.0181533 0)
(0 0.0190866 0)
(0 0.0224811 0)
(0 0.0171728 0)
(0 0.0181043 0)
(0 0.0162198 0)
(0 0.0171542 0)
(0 0.0153002 0)
(0 0.0162326 0)
(0 0.0192221 0)
(0 0.0144055 0)
(0 0.0153332 0)
(0 0.0135347 0)
(0 0.0144577 0)
(0 0.0219639 0)
(0 0.0180141 0)
(0 0.0298351 0)
(0 0.0161752 0)
(0 0.0126887 0)
(0 0.0136074 0)
(0 0.057545 0)
(0 0.0575324 0)
(0 0.0587331 0)
(0 0.0592121 0)
(0 0.00361227 0)
(0 0.0039673 0)
(0 0.0314516 0)
(0 0.00344588 0)
(0 0.00379493 0)
(0 0.0600706 0)
(0 0.0596023 0)
(0 0.0586925 0)
(0 0.0591094 0)
(0 0.060001 0)
(0 0.0397427 0)
(0 0.0403862 0)
(0 0.0389531 0)
(0 0.0290868 0)
(0 0.0302719 0)
(0 0.0333522 0)
(0 0.0314304 0)
(0 0.0343926 0)
(0 0.0325565 0)
(0 0.0294291 0)
(0 0.0306093 0)
(0 0.0336659 0)
(0 0.0317647 0)
(0 0.0347525 0)
(0 0.0328822 0)
(0 0.0297558 0)
(0 0.0308955 0)
(0 0.0339678 0)
(0 0.0320159 0)
(0 0.0674737 0)
(0 0.0672835 0)
(0 0.0446439 0)
(0 0.0163627 0)
(0 0.0350216 0)
(0 0.0331075 0)
(0 0.0299449 0)
(0 0.0310719 0)
(0 0.0341754 0)
(0 0.0321861 0)
(0 0.039655 0)
(0 0.0670617 0)
(0 0.0669411 0)
(0 0.0670441 0)
(0 0.00940724 0)
(0 0.068087 0)
(0 0.0153086 0)
(0 0.0144543 0)
(0 0.0127849 0)
(0 0.0136269 0)
(0 0.0119877 0)
(0 0.0128249 0)
(0 0.0112164 0)
(0 0.0120501 0)
(0 0.0136004 0)
(0 0.0128188 0)
(0 0.0113059 0)
(0 0.0120601 0)
(0 0.0105923 0)
(0 0.011352 0)
(0 0.0135345 0)
(0 0.00990876 0)
(0 0.0106684 0)
(0 0.015459 0)
(0 0.0411207 0)
(0 0.0407521 0)
(0 0.027444 0)
(0 0.0581856 0)
(0 0.0574909 0)
(0 0.058128 0)
(0 0.0482398 0)
(0 0.0345594 0)
(0 0.0195055 0)
(0 0.0437108 0)
(0 0.0546179 0)
(0 0.0506209 0)
(0 0.0510121 0)
(0 0.0501741 0)
(0 0.0505408 0)
(0 0.0574213 0)
(0 0.0580282 0)
(0 0.0673804 0)
(0 0.0671816 0)
(0 0.0672776 0)
(0 0.0631811 0)
(0 0.0632144 0)
(0 0.0631275 0)
(0 0.0577289 0)
(0 0.00924793 0)
(0 0.00998604 0)
(0 0.0113154 0)
(0 0.0106474 0)
(0 0.00932474 0)
(0 0.00999029 0)
(0 0.00868569 0)
(0 0.00936172 0)
(0 0.0692311 0)
(0 0.0532595 0)
(0 0.0112453 0)
(0 0.00812832 0)
(0 0.00877233 0)
(0 0.061463 0)
(0 0.0559843 0)
(0 0.0692697 0)
(0 0.00327437 0)
(0 0.00361737 0)
(0 0.00413331 0)
(0 0.00394871 0)
(0 0.00446025 0)
(0 0.00426768 0)
(0 0.00375982 0)
(0 0.00407058 0)
(0 0.00457365 0)
(0 0.00436732 0)
(0 0.00386957 0)
(0 0.00415694 0)
(0 0.00366533 0)
(0 0.00394327 0)
(0 0.00442901 0)
(0 0.00420504 0)
(0 0.00468504 0)
(0 0.00444987 0)
(0 0.00397865 0)
(0 0.0042121 0)
(0 0.00467684 0)
(0 0.0044271 0)
(0 0.00397256 0)
(0 0.00417582 0)
(0 0.00462381 0)
(0 0.00435973 0)
(0 0.00480165 0)
(0 0.00452357 0)
(0 0.00495939 0)
(0 0.00466678 0)
(0 0.00424413 0)
(0 0.00437273 0)
(0 0.00478868 0)
(0 0.00447952 0)
(0 0.00407841 0)
(0 0.00417041 0)
(0 0.00456415 0)
(0 0.00424015 0)
(0 0.00462657 0)
(0 0.00428687 0)
(0 0.00466563 0)
(0 0.00391768 0)
(0 0.00430936 0)
(0 0.00468067 0)
(0 0.00430733 0)
(0 0.00467128 0)
(0 0.00428054 0)
(0 0.00463714 0)
(0 0.00393482 0)
(0 0.00422865 0)
(0 0.00457818 0)
(0 0.00500742 0)
(0 0.00494171 0)
(0 0.00449319 0)
(0 0.00484809 0)
(0 0.00531774 0)
(0 0.0052153 0)
(0 0.00472652 0)
(0 0.00508669 0)
(0 0.00502282 0)
(0 0.00559636 0)
(0 0.00546173 0)
(0 0.0037322 0)
(0 0.00493017 0)
(0 0.00529815 0)
(0 0.00585103 0)
(0 0.00568082 0)
(0 0.00510553 0)
(0 0.00548161 0)
(0 0.00607836 0)
(0 0.00587298 0)
(0 0.00649117 0)
(0 0.00627988 0)
(0 0.00563686 0)
(0 0.006037 0)
(0 0.00524963 0)
(0 0.00670347 0)
(0 0.00645416 0)
(0 0.00576111 0)
(0 0.00617083 0)
(0 0.00688768 0)
(0 0.00659748 0)
(0 0.00585308 0)
(0 0.00627266 0)
(0 0.0070415 0)
(0 0.00670981 0)
(0 0.00750302 0)
(0 0.00716459 0)
(0 0.00634126 0)
(0 0.00678829 0)
(0 0.00763725 0)
(0 0.00725308 0)
(0 0.00637314 0)
(0 0.00682923 0)
(0 0.0077359 0)
(0 0.00730146 0)
(0 0.00823311 0)
(0 0.00778387 0)
(0 0.00682796 0)
(0 0.00729145 0)
(0 0.00825254 0)
(0 0.0331983 0)
(0 0.0353682 0)
(0 0.0362942 0)
(0 0.0374112 0)
(0 0.0382479 0)
(0 0.0575338 0)
(0 0.06904 0)
(0 0.0634538 0)
(0 0.0692012 0)
(0 0.0691942 0)
(0 0.0250421 0)
(0 0.049685 0)
(0 0.0500241 0)
(0 0.0332943 0)
(0 0.0675435 0)
(0 0.0673603 0)
(0 0.0674412 0)
(0 0.017838 0)
(0 0.0627236 0)
(0 0.0628839 0)
(0 0.0625705 0)
(0 0.0692746 0)
(0 0.0692743 0)
(0 0.0240373 0)
(0 0.0609332 0)
(0 0.0456537 0)
(0 0.0446987 0)
(0 0.0568332 0)
(0 0.0567953 0)
(0 0.0624914 0)
(0 0.0630274 0)
(0 0.0626385 0)
(0 0.0631508 0)
(0 0.06277 0)
(0 0.0632566 0)
(0 0.036509 0)
(0 0.0628698 0)
(0 0.0633461 0)
(0 0.0629418 0)
(0 0.0634168 0)
(0 0.0686453 0)
(0 0.0685929 0)
(0 0.0686194 0)
(0 0.0668119 0)
(0 0.0669114 0)
(0 0.0134029 0)
(0 0.0586412 0)