/*--------------------------------*- C++ -*----------------------------------*\
| =========                 |                                                 |
| \\      /  F ield         | OpenFOAM: The Open Source CFD Toolbox           |
|  \\    /   O peration     | Version:  v2012                                 |
|   \\  /    A nd           | Website:  www.openfoam.com                      |
|    \\/     M anipulation  |                                                 |
\*---------------------------------------------------------------------------*/
FoamFile
{
    version     2.0;
    format      ascii;
    class       volScalarField::Internal;
    location    "350";
    object      V0;
}
// * * * * * * * * * * * * * * * * * * * * * * * * * * * * * * * * * * * * * //

dimensions      [0 3 0 0 0 0 0];


value           nonuniform List<scalar> 
13917
(
0.0119232
0.0427391
0.0027527
0.0348242
0.120466
0.00224694
0.00229236
0.00146111
0.0017734
0.00789096
0.00440166
0.00916283
0.0250074
0.00135547
0.0216406
0.0262988
0.0405289
0.00906943
0.0104537
0.157902
0.136653
0.00192098
0.123806
0.00200041
0.0720116
0.00214553
0.00739648
0.00499488
0.0020796
0.00595848
0.0111259
0.0178141
0.0111497
0.0171175
0.0709423
0.00311374
0.121753
0.0014485
0.026983
0.00123652
0.173956
0.172455
0.133003
0.00483657
0.0436231
0.0172173
0.0102398
0.00766843
0.00167524
0.1701
0.0157299
0.0390868
0.00147121
0.0159067
0.0381466
0.019601
0.00563328
0.0663702
0.0270441
0.0423218
0.00237617
0.0482602
0.00125092
0.13656
0.00319296
0.00242702
0.113769
0.0676557
0.0036886
0.0125055
0.12884
0.00179869
0.00141576
0.0956894
0.00149377
0.00896136
0.0012454
0.0371515
0.0023379
0.146834
0.153326
0.109264
0.00263236
0.00171304
0.00193398
0.0383805
0.141686
0.00191681
0.0209778
0.107072
0.0014511
0.00756621
0.0693804
0.0310179
0.00154037
0.00296809
0.00507699
0.00778056
0.00482607
0.00523788
0.126678
0.0119338
0.00419258
0.0273056
0.0899712
0.0022615
0.00350396
0.00664712
0.0433389
0.00977946
0.00166248
0.00155961
0.00630864
0.00196038
0.0264272
0.00132617
0.103248
0.00174511
0.00140008
0.0157235
0.164123
0.0042107
0.00125291
0.00675481
0.150135
0.0342258
0.0427543
0.170239
0.173522
0.00224777
0.00129601
0.0330547
0.0439919
0.140591
0.00326393
0.00205946
0.0111967
0.00359971
0.101375
0.0171972
0.00417144
0.0761673
0.040936
0.00437437
0.0567177
0.00259532
0.00231827
0.0469916
0.0880094
0.0191426
0.0092868
0.00117923
0.00733209
0.00899955
0.020988
0.00189671
0.0145699
0.00313198
0.00125196
0.00319941
0.0233811
0.00817999
0.162268
0.00558902
0.00798123
0.00460909
0.0265173
0.00879087
0.0623685
0.00952811
0.0105737
0.00132025
0.00610852
0.035083
0.00272076
0.00734843
0.00161459
0.00163624
0.00277702
0.0657651
0.00651323
0.0122258
0.0772187
0.126593
0.0150519
0.00234283
0.0042304
0.00206684
0.0100984
0.00353717
0.00311981
0.00194294
0.00349657
0.142864
0.00370221
0.00783034
0.188532
0.0555167
0.00375696
0.00202071
0.0215958
0.12951
0.0112653
0.0101685
0.00134395
0.00298516
0.0607136
0.0585743
0.00808437
0.00270145
0.0443124
0.00225974
0.00138392
0.00544209
0.0917716
0.00270877
0.00948933
0.00154424
0.0701327
0.00271234
0.0781214
0.00560176
0.142964
0.00137394
0.00201627
0.0233398
0.00351987
0.0185666
0.103838
0.00271119
0.00642883
0.0108144
0.00256711
0.00105146
0.14128
0.0160004
0.00172797
0.00120055
0.138908
0.116043
0.00131733
0.00435486
0.16247
0.00393685
0.00712364
0.00732732
0.0126936
0.163923
0.0113453
0.00128497
0.0565392
0.0064702
0.00388066
0.0465305
0.059029
0.0080862
0.00133778
0.00669126
0.0119238
0.0199089
0.177317
0.00112597
0.00261853
0.00341902
0.0832743
0.00153656
0.00126815
0.00287575
0.00192223
0.00771306
0.160073
0.185439
0.00885514
0.00140299
0.00581853
0.0270173
0.00296976
0.0116195
0.162441
0.00230263
0.138588
0.00243034
0.0249777
0.133598
0.0180061
0.00801108
0.00989957
0.00324242
0.0124536
0.0494785
0.00337803
0.00219334
0.0019405
0.080153
0.00296305
0.124121
0.0520976
0.109938
0.00201884
0.183677
0.0051786
0.014654
0.0677451
0.00931429
0.031768
0.00103641
0.00802565
0.00807252
0.0659419
0.0608817
0.00153543
0.00135366
0.0880536
0.155566
0.00269219
0.0713304
0.00150816
0.0771693
0.00126336
0.0396129
0.00385331
0.0160504
0.00142564
0.0255247
0.00307667
0.00263716
0.0183127
0.00370439
0.00268343
0.0404904
0.00158788
0.00325387
0.00104002
0.0201446
0.00128316
0.0166185
0.00184685
0.00361774
0.00441775
0.00500941
0.00220891
0.123922
0.0107317
0.00186499
0.0406968
0.0279571
0.0013997
0.00335286
0.0433598
0.00351366
0.00198958
0.144618
0.00145635
0.00358335
0.133157
0.104913
0.138947
0.0790422
0.00330238
0.00244481
0.00240267
0.00183555
0.0890002
0.0054908
0.00127607
0.0114203
0.00194335
0.00166184
0.00193199
0.108931
0.0037888
0.0901439
0.00249931
0.0411848
0.00133845
0.0065167
0.0313519
0.109663
0.00882758
0.00522099
0.00606576
0.00123932
0.00163841
0.00122891
0.00998225
0.00641619
0.0993891
0.00124474
0.00195667
0.0586487
0.00383371
0.104404
0.00396847
0.0370368
0.135509
0.0230538
0.00167928
0.0277362
0.00168293
0.00148011
0.00246351
0.00248603
0.0393683
0.00261863
0.00240579
0.125315
0.00377015
0.0470153
0.065879
0.00486974
0.1775
0.0979466
0.0820832
0.00361779
0.142032
0.00145385
0.00213145
0.001346
0.00327426
0.00157977
0.00128462
0.0123207
0.0941793
0.0052223
0.0235558
0.0165028
0.125059
0.00259151
0.00240392
0.00258671
0.020952
0.00571796
0.0233094
0.0283338
0.00725058
0.0291431
0.00299636
0.0405857
0.152825
0.00156958
0.0014745
0.0015327
0.00543912
0.00119471
0.00178498
0.00151148
0.00150092
0.143646
0.00790432
0.028862
0.0537141
0.00325579
0.0076303
0.16159
0.00829771
0.012337
0.00134819
0.0999673
0.00562137
0.00164624
0.00305554
0.00121094
0.133938
0.0502854
0.161452
0.0113896
0.131325
0.00229614
0.00268967
0.0145606
0.00170589
0.0206066
0.00473531
0.00158294
0.00148555
0.00454948
0.00333748
0.00487589
0.00927395
0.00462722
0.0114095
0.00444924
0.0023244
0.00956602
0.00533413
0.155392
0.0027767
0.0214342
0.0798674
0.0123672
0.0335718
0.00150152
0.00164247
0.0694785
0.153931
0.002403
0.00112586
0.180783
0.0012428
0.029576
0.00412987
0.0725791
0.00107879
0.00311602
0.0187341
0.0305838
0.00184745
0.00403767
0.00127972
0.177011
0.00135699
0.0018633
0.0029539
0.0681621
0.00170488
0.00211092
0.0113258
0.09976
0.0351422
0.00929947
0.00374985
0.137261
0.110799
0.138023
0.136825
0.00124537
0.00306159
0.0121803
0.00423313
0.166678
0.098449
0.00574187
0.00216926
0.0121047
0.0512681
0.0877924
0.070055
0.00258232
0.00184901
0.141256
0.0728528
0.00354185
0.0118919
0.0118683
0.0567943
0.0246586
0.018738
0.00595112
0.00279474
0.00350609
0.00442787
0.00527004
0.00300418
0.00686552
0.0778182
0.00147786
0.0793793
0.0250075
0.0270359
0.0026727
0.0053067
0.116489
0.0031751
0.00515615
0.00144711
0.00483299
0.00961544
0.0117451
0.104265
0.00191778
0.00324366
0.00158835
0.0472967
0.0150226
0.00367742
0.00150798
0.00136609
0.0072047
0.0043654
0.0255173
0.0215528
0.04968
0.00601947
0.00414748
0.0424542
0.00969525
0.00333233
0.0017156
0.00108639
0.0260772
0.00508769
0.00357989
0.0162762
0.0432005
0.00155872
0.00259026
0.00225819
0.00414371
0.140172
0.00123945
0.00985519
0.13688
0.0139762
0.00723791
0.0113824
0.00633838
0.00216502
0.00499723
0.0153851
0.00233284
0.0265226
0.00138095
0.1411
0.107809
0.00245856
0.0021681
0.002447
0.0247718
0.0394294
0.0781612
0.0102862
0.00135973
0.00496965
0.0207756
0.00554994
0.00888973
0.0591067
0.00242626
0.00607968
0.00341241
0.0765356
0.0040228
0.0325962
0.00155635
0.00813933
0.00587198
0.0127438
0.136702
0.0777216
0.0417479
0.00495062
0.0149437
0.00375917
0.00126126
0.00855877
0.135008
0.00380767
0.00179583
0.00335448
0.0556253
0.0154511
0.110686
0.0167873
0.0203969
0.00188216
0.145806
0.00229538
0.0175248
0.00405766
0.00644442
0.00133484
0.00551925
0.038562
0.00135553
0.00136609
0.0543244
0.0284077
0.00333893
0.00462397
0.00556217
0.167981
0.0305936
0.00400907
0.0246526
0.00742027
0.0092443
0.0706603
0.0103338
0.00243672
0.0530784
0.0418442
0.154706
0.00138236
0.153759
0.0218776
0.00135427
0.0249696
0.0024153
0.0207412
0.00849103
0.137388
0.00818994
0.100437
0.00899253
0.162942
0.00568665
0.0289516
0.00174782
0.00135542
0.00166133
0.189193
0.135552
0.00718116
0.00947852
0.00119877
0.00156322
0.00875415
0.0755807
0.00371257
0.00238694
0.00298209
0.00413028
0.00903214
0.00207508
0.010031
0.012868
0.00399718
0.00375588
0.00943349
0.00169652
0.0104164
0.0305048
0.00642535
0.0144858
0.0688533
0.0182237
0.0100149
0.0181179
0.101982
0.152754
0.00901156
0.0258611
0.00663126
0.0671285
0.0900077
0.141105
0.0261399
0.100466
0.0204978
0.142123
0.00110546
0.00986546
0.00280674
0.139728
0.138306
0.00676146
0.00785228
0.0300294
0.00241015
0.00628872
0.00262379
0.0136997
0.00489639
0.0311058
0.158396
0.145309
0.0258832
0.00123902
0.145247
0.00267896
0.015108
0.00106716
0.00794409
0.00550315
0.00434442
0.0961764
0.182508
0.00876039
0.0710893
0.04001
0.00268212
0.0316148
0.130195
0.0152867
0.128582
0.132304
0.0176387
0.0135341
0.0010517
0.0134843
0.0442564
0.1788
0.00157656
0.00406028
0.0479384
0.0380651
0.00253136
0.00326117
0.00130489
0.0113396
0.0295803
0.13037
0.125077
0.00938044
0.0127758
0.00320525
0.0147409
0.00156518
0.0339873
0.0253426
0.000927962
0.103141
0.0183219
0.0571446
0.160193
0.0100336
0.0075106
0.0321146
0.00205542
0.00121586
0.00745927
0.0633125
0.0809973
0.00554888
0.00273837
0.158751
0.00280488
0.0842411
0.0106628
0.0535373
0.0696686
0.00344152
0.0506471
0.00293423
0.0107011
0.151706
0.109862
0.0509085
0.0718496
0.0444559
0.00152694
0.0560004
0.0706883
0.00165184
0.00200217
0.0120816
0.0116091
0.00660149
0.0210857
0.0794337
0.0107805
0.00136376
0.00455819
0.0981223
0.040742
0.00181583
0.00993466
0.00157029
0.136231
0.0284653
0.00134027
0.0132603
0.0344899
0.001242
0.0016233
0.0795262
0.00434113
0.118798
0.0544516
0.10687
0.00137682
0.0988906
0.0474829
0.079972
0.00251812
0.0215857
0.004227
0.00587892
0.062422
0.0103473
0.143869
0.00150952
0.0984751
0.0554947
0.131088
0.00383546
0.110393
0.00395685
0.00127138
0.00255634
0.0184233
0.00302558
0.00134802
0.0602052
0.00123367
0.00165951
0.00127799
0.00156285
0.00157759
0.00152284
0.00404336
0.0349032
0.00189612
0.0141199
0.00178151
0.0803438
0.0622214
0.0480523
0.141714
0.0183868
0.0129942
0.00104508
0.0638672
0.0732696
0.00109425
0.00317148
0.0479334
0.00712631
0.0152316
0.0414867
0.00108629
0.00697078
0.0236294
0.0214746
0.00121434
0.00100236
0.00174882
0.0568055
0.00399453
0.00491829
0.00135298
0.00172555
0.00697326
0.0621153
0.0306237
0.0315274
0.160425
0.0239379
0.133038
0.0163681
0.00593148
0.00165029
0.00551768
0.0445171
0.00517274
0.00152874
0.0108286
0.0473095
0.00122104
0.060048
0.0413855
0.00859201
0.00175296
0.112538
0.0740352
0.00208568
0.00317063
0.0030528
0.00499616
0.00246249
0.0665183
0.00350792
0.0430979
0.102669
0.0437802
0.00256988
0.00114182
0.0627171
0.107446
0.0551967
0.00298549
0.0261127
0.0173902
0.0753949
0.0453195
0.00418988
0.0575783
0.007648
0.00355064
0.00173877
0.0502401
0.00528957
0.0222228
0.00139299
0.00120438
0.0861787
0.0012281
0.0065905
0.00164061
0.121801
0.00153471
0.119913
0.0158648
0.0108122
0.00444289
0.00234575
0.00286309
0.00448131
0.0022587
0.141006
0.0037267
0.0726443
0.0118288
0.00185903
0.0480667
0.154919
0.0334395
0.039194
0.0013047
0.114744
0.123207
0.00894799
0.00757729
0.00957498
0.00227398
0.00542729
0.00120181
0.00910509
0.0122773
0.0142108
0.00135155
0.0123048
0.00265149
0.00150659
0.0213114
0.0646731
0.00160124
0.00334946
0.0414252
0.00594676
0.0094144
0.035643
0.018836
0.0360829
0.0111538
0.173376
0.00916132
0.00335746
0.101509
0.00846326
0.0613652
0.00635145
0.166068
0.0148513
0.00768063
0.024078
0.0410558
0.0650882
0.00165158
0.00610252
0.00258066
0.072682
0.0382739
0.00825788
0.0580258
0.0067814
0.00563249
0.0345682
0.00649681
0.0698419
0.00239085
0.0437155
0.0162852
0.00103619
0.0035988
0.0804638
0.026915
0.00127359
0.0989731
0.102365
0.00142846
0.00148891
0.0219044
0.00435247
0.145474
0.0403679
0.00253424
0.0316258
0.0905812
0.00329722
0.0560157
0.00298378
0.115509
0.0982156
0.0437832
0.00520748
0.00143075
0.0434057
0.0406383
0.0731435
0.0193389
0.13456
0.0016477
0.00836718
0.15898
0.00231893
0.00842408
0.00283983
0.00158031
0.00150645
0.0678473
0.0481781
0.0532565
0.00197764
0.019516
0.00149616
0.00141005
0.0273463
0.00180492
0.00155131
0.00926237
0.00440644
0.00570108
0.00239457
0.00223745
0.00475111
0.00278444
0.00155968
0.00915501
0.0221666
0.00133735
0.00543482
0.0711785
0.0237752
0.00247054
0.0101379
0.0673163
0.00718036
0.00599799
0.0115311
0.00122787
0.0266583
0.002239
0.0127115
0.00378767
0.0044692
0.00398426
0.0157956
0.0658719
0.0399732
0.00238252
0.0818058
0.022651
0.153704
0.0247327
0.0591649
0.010392
0.00503775
0.00142982
0.00806483
0.00644687
0.00237158
0.00287814
0.0588501
0.00302107
0.00220494
0.0569892
0.1007
0.0125179
0.00132502
0.14119
0.00743683
0.00255159
0.00831896
0.0573433
0.0279094
0.0574871
0.00526625
0.00938576
0.134058
0.00172195
0.00206938
0.00954177
0.00276945
0.00770599
0.00212772
0.0262694
0.0193568
0.002291
0.00276987
0.00683718
0.00186357
0.0177404
0.147856
0.0617749
0.0491852
0.0586472
0.027246
0.0088339
0.0756974
0.00458851
0.133265
0.0143741
0.0672458
0.00644381
0.00526306
0.00294026
0.0616791
0.00399047
0.0595226
0.00225974
0.0922675
0.0176189
0.0938378
0.00360721
0.00124319
0.0040044
0.0725149
0.00527153
0.0461126
0.0142126
0.00149256
0.0530897
0.0424266
0.00805536
0.015599
0.00191902
0.07355
0.0145397
0.0383892
0.105547
0.0122325
0.0326896
0.101427
0.0244109
0.00100088
0.0221455
0.00305491
0.00227199
0.00908061
0.00142735
0.0220878
0.1097
0.0143271
0.00116934
0.0340125
0.010214
0.010762
0.00159877
0.0749027
0.00113421
0.00713977
0.00736713
0.0670266
0.114513
0.00504404
0.0390709
0.144509
0.00999663
0.081233
0.0159017
0.0156359
0.00539844
0.00333651
0.00208121
0.0220974
0.0055384
0.00246723
0.00110375
0.0139309
0.00280064
0.00132789
0.0117265
0.00200623
0.020208
0.00178856
0.00119277
0.0733822
0.164488
0.107087
0.0385252
0.00979842
0.0658158
0.0189371
0.00657222
0.0255809
0.0109158
0.00106118
0.00972158
0.0225625
0.00156966
0.0328081
0.00122426
0.0255076
0.00423118
0.0769697
0.00106449
0.00130441
0.0460852
0.0368637
0.00180815
0.0106369
0.00126597
0.133488
0.0479602
0.00169062
0.0309605
0.00627544
0.00156411
0.0763761
0.00837978
0.0123227
0.111646
0.133168
0.0018425
0.00131562
0.0400382
0.0227329
0.0545301
0.0139145
0.00873648
0.00145341
0.0270429
0.00169927
0.00280528
0.00338919
0.00270194
0.0314661
0.00571984
0.00348384
0.0142138
0.0908295
0.0088368
0.00146369
0.0250723
0.00728108
0.00184989
0.0013214
0.00272942
0.0195522
0.047998
0.130907
0.0794217
0.00130119
0.00895933
0.0249107
0.0284056
0.0239223
0.135876
0.059054
0.0759775
0.00620366
0.0154906
0.00236753
0.00571014
0.00119647
0.00149049
0.0134337
0.00924966
0.114627
0.0170586
0.00105569
0.0365624
0.0245534
0.0091121
0.00453365
0.00604754
0.00221567
0.00201811
0.0584767
0.00106402
0.121518
0.0383581
0.00794666
0.14503
0.0470978
0.00435236
0.00238026
0.0541625
0.00233061
0.0372158
0.0674364
0.0205645
0.00168853
0.015952
0.0273225
0.00200174
0.0316346
0.00338686
0.00164734
0.169418
0.00502306
0.130167
0.00120063
0.00640541
0.0670093
0.00195841
0.00870435
0.00463959
0.129049
0.00104965
0.0137687
0.00283181
0.0407268
0.00423911
0.00129448
0.0692367
0.00174624
0.0460725
0.0076006
0.00633184
0.159627
0.00103017
0.0240068
0.00432443
0.00813187
0.00473644
0.00956118
0.00923174
0.0282147
0.00187917
0.0106939
0.00117176
0.0133554
0.00988545
0.0491699
0.0113218
0.0554475
0.00917904
0.0022357
0.0357224
0.0704621
0.0013425
0.0287188
0.00226896
0.0325944
0.00228898
0.00257841
0.0127792
0.0726145
0.100692
0.0856172
0.120837
0.00576487
0.00652098
0.00729509
0.0189691
0.136179
0.00302986
0.0249281
0.013739
0.00274514
0.0562086
0.0018097
0.00958967
0.0175633
0.00173226
0.00132832
0.00313424
0.00230684
0.00269835
0.0716732
0.00254433
0.00148536
0.00259956
0.148578
0.0441268
0.00473807
0.00210513
0.0012848
0.00298351
0.0499672
0.00715963
0.0110133
0.00185977
0.00126949
0.0121343
0.00337219
0.0217201
0.00643525
0.00639837
0.144685
0.00547269
0.00245545
0.106738
0.0028228
0.142677
0.0463164
0.00103165
0.00152924
0.127619
0.0391276
0.0229676
0.0459761
0.00971942
0.00432296
0.0260119
0.100349
0.102531
0.00880879
0.0163311
0.0205339
0.0032658
0.070292
0.0017627
0.00122488
0.00147894
0.00346718
0.00960497
0.00304764
0.013308
0.00184418
0.00268791
0.00270059
0.0403879
0.00187853
0.00113043
0.11558
0.0966726
0.00533316
0.00149628
0.00230173
0.0632066
0.049617
0.00150323
0.00183891
0.00270205
0.0243234
0.0209544
0.00184763
0.0490731
0.00148635
0.00172366
0.00313716
0.00247581
0.0512132
0.0775493
0.131254
0.0154663
0.0011557
0.0110768
0.0224518
0.0297693
0.00451342
0.00107766
0.0100641
0.00277916
0.00110088
0.00103304
0.0017195
0.0801709
0.152432
0.0022627
0.114637
0.0694083
0.0282221
0.00112449
0.0115597
0.00196909
0.00443238
0.0876839
0.0014657
0.0118272
0.0594897
0.00134423
0.00303712
0.0182163
0.0413384
0.00119352
0.00156465
0.118852
0.00228165
0.00230283
0.00182796
0.00208395
0.00536721
0.0636474
0.0317026
0.00347741
0.0201444
0.00217611
0.00835238
0.00280527
0.00325514
0.0266778
0.0164204
0.0546509
0.034234
0.00168501
0.00113787
0.0809854
0.00126706
0.0100441
0.0472389
0.020302
0.0930011
0.00414335
0.0261537
0.00168417
0.00646422
0.0655029
0.134271
0.00492003
0.000988003
0.0108102
0.0227151
0.00954754
0.0640464
0.0246963
0.0175007
0.000937006
0.00136598
0.00155779
0.109648
0.13122
0.024592
0.00656346
0.0985626
0.0340968
0.00386746
0.00716072
0.00272622
0.0716925
0.00161996
0.00132993
0.163951
0.00100863
0.00523746
0.0104931
0.0015344
0.0358572
0.00144385
0.0146463
0.0240248
0.0225884
0.12247
0.00356093
0.167126
0.0363566
0.0114215
0.0015002
0.0015
0.140378
0.161194
0.0239412
0.0489029
0.00412069
0.0380777
0.0061523
0.0290629
0.00144996
0.0353398
0.0015743
0.103153
0.00162613
0.0349539
0.113572
0.00181159
0.00261569
0.00392134
0.00299698
0.00565976
0.0101203
0.0725254
0.00142749
0.0656307
0.0994381
0.00449837
0.00908356
0.00179636
0.00143643
0.00487443
0.00276022
0.00476367
0.00281044
0.141514
0.0221451
0.016564
0.00154886
0.0202717
0.00137949
0.00102516
0.0366754
0.046329
0.051795
0.00261824
0.00105878
0.0235998
0.123963
0.020779
0.0183162
0.0108733
0.00346003
0.00303851
0.126457
0.00201535
0.00624752
0.000967116
0.00647
0.0243121
0.0243332
0.00139296
0.141926
0.00601694
0.00219645
0.0284124
0.0195252
0.00380088
0.00419619
0.0330515
0.00125795
0.0243785
0.00331884
0.0096524
0.0137022
0.0304889
0.00166483
0.101328
0.00499381
0.00178503
0.00154699
0.0090596
0.0071301
0.0211834
0.00954885
0.138285
0.00172306
0.0190833
0.0495132
0.0146779
0.139071
0.164484
0.000880483
0.0929224
0.146943
0.0534036
0.0039463
0.0462324
0.0129211
0.00614424
0.00352162
0.0053371
0.137511
0.00310039
0.00200255
0.0041274
0.00744044
0.0121067
0.00418714
0.00265606
0.0026632
0.166824
0.00246928
0.00216807
0.168783
0.0248717
0.119722
0.00222201
0.00514391
0.0344534
0.00169015
0.00149171
0.136578
0.0425485
0.00208575
0.00111403
0.00838506
0.107889
0.00264383
0.0015953
0.00130817
0.100251
0.00151672
0.00677511
0.004021
0.00128789
0.0209511
0.119168
0.0134651
0.00423878
0.0129029
0.00204883
0.00150162
0.0686307
0.0023177
0.0015329
0.00133824
0.0866669
0.00621959
0.0288171
0.0632246
0.00121908
0.00307012
0.00335369
0.00293249
0.0145224
0.00998665
0.158247
0.00162307
0.00118483
0.07178
0.0375375
0.0111112
0.0608696
0.00916695
0.0016774
0.00191324
0.00904111
0.0341008
0.0368099
0.00162453
0.0195636
0.00896326
0.0754237
0.0288939
0.00330814
0.00280546
0.00311423
0.00156355
0.142428
0.00365456
0.153636
0.00778296
0.00177138
0.00136487
0.0955688
0.144851
0.0145479
0.0164813
0.0444417
0.00138516
0.0015226
0.0760477
0.141729
0.11805
0.0954769
0.00145196
0.0660096
0.00150629
0.00513432
0.00854576
0.0614551
0.00909817
0.00162709
0.0141119
0.00262908
0.00162398
0.0320909
0.00102431
0.00988423
0.00635962
0.00316383
0.0012282
0.00136024
0.00931247
0.0719455
0.0038249
0.0654413
0.0155739
0.0438599
0.0023259
0.010344
0.00277902
0.00346257
0.00995052
0.114475
0.00341577
0.018
0.161691
0.00268824
0.109582
0.0146672
0.0104968
0.0438551
0.00214067
0.0278041
0.00228563
0.0269848
0.093883
0.00179476
0.00151428
0.0211272
0.0109053
0.0123966
0.00657766
0.00886063
0.0148704
0.0148063
0.0222208
0.00368085
0.0181823
0.00218813
0.00556439
0.00262824
0.00571218
0.0297898
0.00159963
0.156449
0.00234721
0.0206741
0.00195128
0.00268183
0.00269086
0.0026966
0.00398293
0.00463007
0.03305
0.00166437
0.00441148
0.0729313
0.00106241
0.00230139
0.0252492
0.027721
0.012042
0.011688
0.0148471
0.0013731
0.184686
0.0154
0.0110948
0.011054
0.140634
0.00585034
0.0937673
0.00212541
0.0192516
0.00447122
0.0130115
0.0109635
0.00501362
0.00284103
0.00691005
0.0694791
0.00370079
0.00178142
0.00173745
0.0381548
0.00231017
0.0167661
0.00142695
0.0638146
0.0221282
0.00145726
0.010013
0.0012297
0.00123047
0.010172
0.00123216
0.0485927
0.0935125
0.00103156
0.00568009
0.02394
0.00171658
0.0181405
0.00719834
0.0147867
0.00704433
0.0415395
0.00253419
0.00180471
0.00123175
0.00322919
0.0168772
0.00840558
0.0012437
0.023751
0.0424562
0.00524097
0.113892
0.00210101
0.00179414
0.00121444
0.00131998
0.00883954
0.0346556
0.00158225
0.124469
0.00507017
0.147317
0.00165702
0.0273061
0.00648177
0.00125553
0.00469007
0.124465
0.0124569
0.00182975
0.0473359
0.00537048
0.067989
0.00214151
0.00132168
0.00546315
0.00432329
0.123935
0.00404105
0.00497883
0.0102649
0.0681385
0.0381297
0.165841
0.0095968
0.0999255
0.00564067
0.0433429
0.0633229
0.00182855
0.058507
0.0182401
0.0220096
0.13496
0.00146738
0.0621193
0.0117193
0.00159449
0.0100941
0.0026152
0.0490739
0.00173371
0.0101513
0.00176457
0.0259075
0.00395022
0.0436069
0.00944842
0.00512361
0.00540667
0.00387407
0.0015335
0.00427157
0.00285114
0.0157099
0.00524275
0.00904341
0.00265677
0.0185075
0.0416443
0.0595511
0.00970363
0.00680601
0.00287576
0.0089681
0.00220763
0.00237043
0.00384742
0.0536919
0.00277021
0.00259584
0.0396055
0.0251474
0.0506889
0.00218303
0.0584686
0.000883377
0.061957
0.0179983
0.001429
0.0051752
0.0870921
0.0593376
0.00122232
0.0737784
0.0233027
0.0167993
0.0121638
0.0200575
0.0398971
0.00315579
0.00437007
0.00915367
0.00365443
0.00146072
0.00137267
0.00110576
0.116577
0.0634206
0.00417614
0.035338
0.0055427
0.00223756
0.0012769
0.112422
0.0712924
0.00153074
0.00304974
0.108179
0.071201
0.0148532
0.00185104
0.0019996
0.0183764
0.0125327
0.130492
0.00354922
0.00547985
0.00326194
0.0114583
0.010094
0.0269084
0.0109179
0.00331265
0.0233445
0.0399764
0.0184909
0.00209251
0.0177365
0.00122191
0.0907155
0.00151469
0.0111169
0.0124277
0.0868344
0.0932558
0.00277981
0.00234944
0.00598423
0.00118485
0.00189777
0.0347882
0.00148576
0.00475719
0.145238
0.0026091
0.00286655
0.0033996
0.139223
0.00146207
0.00143918
0.0642169
0.00964924
0.00128262
0.0100417
0.0487563
0.069169
0.034891
0.0242336
0.00660683
0.00370794
0.00447804
0.00671897
0.12124
0.0514424
0.00228513
0.0636326
0.00836545
0.0137972
0.0478429
0.00873454
0.0801305
0.0238602
0.00357445
0.102805
0.00134998
0.0983089
0.00181869
0.00166793
0.00585902
0.042424
0.162544
0.00156826
0.120493
0.0227926
0.0355131
0.00367705
0.00297666
0.011362
0.00156788
0.00974073
0.00281752
0.0300094
0.00696666
0.0589323
0.0966104
0.00122281
0.0013487
0.00301016
0.0236023
0.0076142
0.00664547
0.00106585
0.00150798
0.0035202
0.00762895
0.119636
0.00157469
0.0514661
0.0467212
0.00413641
0.0053015
0.0138867
0.00299555
0.00693682
0.0123109
0.0174469
0.00141805
0.0233916
0.0907836
0.000990688
0.00552678
0.0903783
0.00110282
0.127627
0.10733
0.00398927
0.0049957
0.00189604
0.0993989
0.0194419
0.0615522
0.00181887
0.0665641
0.00226898
0.00258317
0.00152328
0.00143413
0.00157709
0.0116203
0.00148825
0.00198019
0.133432
0.0126627
0.009391
0.0114669
0.00177522
0.0012795
0.00127151
0.0015633
0.00169935
0.0436661
0.00584011
0.144468
0.00142579
0.0164898
0.0254932
0.0233142
0.0276845
0.0660978
0.00477691
0.00133586
0.108047
0.0249775
0.14452
0.00149228
0.0264933
0.00168813
0.00216219
0.00291668
0.0863171
0.0659606
0.00115637
0.00260095
0.102988
0.00317822
0.137138
0.004645
0.00295154
0.00583568
0.00978278
0.00262385
0.0577226
0.0606739
0.00362246
0.00147865
0.0148224
0.00684783
0.0629389
0.00110091
0.0812007
0.14216
0.0308749
0.0621944
0.00174492
0.00142569
0.00287602
0.00872411
0.00149758
0.00336827
0.119838
0.0139488
0.0856847
0.00174167
0.0365881
0.0195363
0.0613583
0.0968118
0.0647172
0.00202453
0.0394311
0.00154675
0.0778751
0.0115998
0.156145
0.00182479
0.0999189
0.0137952
0.0105933
0.00582828
0.0017821
0.0925186
0.00117181
0.00722877
0.00836875
0.143387
0.0796421
0.00142204
0.00101233
0.0407744
0.0648579
0.00342707
0.00362483
0.00889563
0.00155741
0.0276337
0.00214454
0.0168639
0.0928436
0.00178575
0.0359753
0.00188222
0.0592195
0.0278356
0.109706
0.000986883
0.00145625
0.11125
0.0027981
0.00367952
0.139029
0.056966
0.144667
0.00282763
0.00153875
0.00747675
0.0282326
0.010181
0.0994995
0.0506959
0.0244617
0.106735
0.00394653
0.0461863
0.00785272
0.00286455
0.0105067
0.131486
0.00237481
0.0056922
0.0960606
0.00538618
0.0146203
0.00288442
0.0200659
0.00230433
0.00837101
0.0524764
0.00608661
0.00611595
0.0254872
0.00170381
0.00815951
0.0183513
0.00292652
0.0565632
0.00447469
0.00389957
0.00474899
0.0960696
0.060235
0.121222
0.0105522
0.008931
0.00880971
0.00237
0.00129794
0.00224121
0.13319
0.00159265
0.00163114
0.00158275
0.0600392
0.0463369
0.0088708
0.00188821
0.0230377
0.0107536
0.00150523
0.00129956
0.00167662
0.00377022
0.00403001
0.00154114
0.00289427
0.0885995
0.00180015
0.00362415
0.0363842
0.0380378
0.0276431
0.00143019
0.00594606
0.00181706
0.0227636
0.00272155
0.0421079
0.00254326
0.00133795
0.0357168
0.00875073
0.00146485
0.00234442
0.00834941
0.0285142
0.0236699
0.0332224
0.00358874
0.00546404
0.00248979
0.00155081
0.0782257
0.00104723
0.00429772
0.00271096
0.144276
0.137293
0.00355767
0.00295259
0.0612397
0.0090189
0.00488533
0.00614466
0.00209363
0.00192367
0.00158867
0.00149158
0.0192594
0.0771228
0.00519526
0.0012693
0.0022471
0.0494896
0.00187913
0.00429941
0.00208811
0.032087
0.146266
0.0017643
0.00266358
0.0024816
0.00182659
0.00133015
0.0855459
0.00282506
0.00158196
0.0459598
0.00541086
0.00648764
0.0999979
0.00388662
0.00185537
0.00282759
0.142161
0.00112062
0.0049154
0.00161148
0.108109
0.025518
0.0319704
0.0363031
0.0357603
0.00728994
0.00939797
0.00797907
0.00288375
0.0104035
0.00135781
0.0186282
0.0185744
0.0144165
0.00105627
0.00581446
0.00145241
0.0143546
0.013914
0.00102937
0.00361354
0.0480306
0.00834286
0.00284541
0.00227984
0.00368244
0.0542272
0.0801057
0.0493245
0.00311226
0.0281181
0.00149278
0.00182263
0.00262932
0.013241
0.00382919
0.0013264
0.0470806
0.00249089
0.011048
0.00512143
0.047671
0.0512904
0.00781206
0.00147927
0.14005
0.00152727
0.00316332
0.00446203
0.0042492
0.0741347
0.113224
0.0147937
0.0378121
0.00167518
0.00169149
0.00509273
0.00284258
0.0558368
0.043274
0.0405211
0.132043
0.00182017
0.0299885
0.00135975
0.00441593
0.0285875
0.00246661
0.00213527
0.00146793
0.00108055
0.0239024
0.0670359
0.104109
0.0242674
0.00212408
0.0034694
0.00162299
0.113093
0.0363183
0.00332649
0.149447
0.00340086
0.0229814
0.00332088
0.00293462
0.00845098
0.00939375
0.0754857
0.00914276
0.00977663
0.00343762
0.00442909
0.00915042
0.0974487
0.00375887
0.0685254
0.00249039
0.0016096
0.00187512
0.0503075
0.00565577
0.0559761
0.010703
0.0271319
0.0357536
0.012654
0.00139722
0.0018877
0.00465097
0.00770539
0.00342164
0.00565829
0.00209745
0.00151825
0.0151768
0.00146297
0.00345542
0.0637245
0.00582224
0.00152809
0.00476341
0.142445
0.00804501
0.00161377
0.00324351
0.00103323
0.0414613
0.00300656
0.0745458
0.0635441
0.0108905
0.00186937
0.159427
0.0014754
0.00162934
0.00334904
0.00260052
0.00264569
0.00157315
0.00369984
0.108479
0.019924
0.0815584
0.00726285
0.00373259
0.00221879
0.0189888
0.0105234
0.0748625
0.00158537
0.0111286
0.00914083
0.00174551
0.0033685
0.00167408
0.00157622
0.0590723
0.00104395
0.10408
0.0147463
0.00532931
0.00166102
0.00436494
0.0143066
0.0317645
0.00201625
0.0144368
0.00201472
0.00100973
0.00998472
0.00153783
0.010534
0.144032
0.00188278
0.00729155
0.0275687
0.000988553
0.00188739
0.0147799
0.0149797
0.00499772
0.00130799
0.0632744
0.0480337
0.111508
0.0894466
0.0285046
0.00151081
0.0107037
0.00165347
0.12037
0.0470909
0.00199966
0.0364072
0.167772
0.110907
0.0503471
0.00269674
0.0677408
0.00158109
0.0362675
0.0272665
0.00761148
0.0387106
0.00266616
0.069806
0.149433
0.0648203
0.0126465
0.00506221
0.021954
0.00144611
0.0469759
0.00773799
0.015901
0.00151507
0.0333727
0.104976
0.0603646
0.0751665
0.00338405
0.068229
0.0569802
0.0254772
0.00279507
0.142175
0.00803975
0.00874818
0.0536197
0.00166473
0.00160944
0.00304867
0.00259788
0.0222371
0.00538936
0.0441447
0.00350907
0.00360186
0.0370323
0.0029247
0.00509148
0.00241995
0.0132427
0.0627142
0.00163354
0.00869533
0.00294668
0.00187345
0.0790386
0.0624227
0.00122027
0.00153487
0.00865101
0.00599461
0.0275872
0.00182525
0.00248421
0.111804
0.091555
0.0401434
0.0989881
0.134128
0.059927
0.00960343
0.00152236
0.0145099
0.0431044
0.00230757
0.0841389
0.00299854
0.00503233
0.04495
0.0163411
0.0621347
0.00302264
0.0176108
0.00649907
0.0627366
0.0381822
0.00117965
0.00147387
0.131995
0.00896961
0.0076141
0.0151979
0.0212018
0.16033
0.0355477
0.00291104
0.00295188
0.0110951
0.00211964
0.0372506
0.00163335
0.00457374
0.0247762
0.00126044
0.026413
0.0018036
0.0024012
0.00142297
0.00268957
0.00151118
0.00151759
0.0711259
0.0173841
0.0225215
0.0775937
0.0655848
0.0150303
0.00464194
0.0598126
0.0133465
0.00419915
0.00488982
0.00265086
0.00360434
0.0129251
0.00254774
0.00212962
0.0103443
0.018431
0.00387
0.00175237
0.00181412
0.0188146
0.0775981
0.0661996
0.0672489
0.0127683
0.00127861
0.00330813
0.0621154
0.00128023
0.106702
0.00458954
0.00209877
0.00460676
0.00385526
0.00396573
0.00325308
0.0284425
0.0108078
0.0772128
0.00358027
0.0620177
0.0269709
0.0132845
0.0031359
0.0959396
0.0242841
0.00117994
0.116137
0.041163
0.0161804
0.00158262
0.0048564
0.00302566
0.00920953
0.138341
0.00164931
0.00831582
0.0265905
0.0672017
0.0102976
0.014968
0.0564593
0.0221625
0.00125517
0.0234693
0.0806984
0.00654877
0.080156
0.0113584
0.00981225
0.0913391
0.0994025
0.00140358