/*--------------------------------*- C++ -*----------------------------------*\
| =========                 |                                                 |
| \\      /  F ield         | OpenFOAM: The Open Source CFD Toolbox           |
|  \\    /   O peration     | Version:  v2012                                 |
|   \\  /    A nd           | Website:  www.openfoam.com                      |
|    \\/     M anipulation  |                                                 |
\*---------------------------------------------------------------------------*/
FoamFile
{
    version     2.0;
    format      ascii;
    class       volScalarField;
    location    "400";
    object      omega;
}
// * * * * * * * * * * * * * * * * * * * * * * * * * * * * * * * * * * * * * //

dimensions      [0 0 -1 0 0 0 0];


internalField   nonuniform List<scalar> 
13917
(
5.30364
0.0424704
0.189213
0.0223753
0.0293916
0.0418451
0.0272963
0.0789518
0.0259019
9.84643
0.0762869
0.0218592
0.024545
0.846413
0.0286344
7.04208
0.0218645
0.0670431
0.112307
8.26244
0.0352462
0.0218377
0.0460681
0.0218392
0.0235965
0.0375397
2.18175
10.6493
0.0486644
0.0201528
9.50132
0.0667745
0.0224246
2.99145
0.0213974
0.0933801
0.0245088
0.0232916
0.0273276
0.0398654
0.0219887
0.0217679
0.0242815
0.106629
0.106067
0.201209
0.0333787
5.38801
1.2873
0.0214182
0.0218224
0.114839
16.2871
0.0217816
0.0218675
0.113618
5.24714
0.0460946
0.0216095
0.152727
2.45026
0.0308889
0.0211838
0.0233795
3.14428
0.101952
0.0529845
0.0918066
0.0715891
5.86255
3.02281
3.13472
0.021794
0.0213355
0.0362025
0.0241653
0.0249773
0.021241
0.0239067
0.0225123
0.0224412
0.0219267
0.0217733
3.18
0.0211534
0.116649
0.064277
0.0216208
0.0394418
0.0217918
0.0207364
0.024465
1.25135
0.0210719
0.0224031
0.0527698
1.69415
0.0221081
0.0215227
0.125982
0.0215981
0.0214598
0.0224951
0.0213939
0.0249041
3.48208
3.07586
0.0305367
0.0220159
2.21555
0.0215415
2.94713
0.0485565
4.31015
3.15343
0.0246536
0.105006
0.020927
0.192525
0.0216923
0.0218211
0.0209884
0.0576719
0.0925046
5.36258
3.25619
0.0231831
0.0381266
0.0211551
0.0933651
0.0332081
0.145621
3.48038
0.0246065
0.0780147
2.16391
2.50299
5.25342
0.0400679
0.0232451
0.272841
0.0210903
3.47904
0.0212219
0.0217074
0.0246044
3.02104
0.48214
5.84033
0.0218233
0.036486
0.0213473
0.0216823
0.0217017
1.85086
0.0225882
0.0213367
3.44033
0.0216112
0.0211451
0.021144
2.82041
0.0268311
0.257047
2.50993
0.120413
23.7558
2.91366
0.0196143
0.0424938
0.0219875
3.36651
0.0258553
2.46081
0.070558
0.0214677
0.0223772
0.124211
0.0324057
0.0275042
0.024168
0.0218825
0.0218206
0.159249
0.191438
0.137788
0.0217905
0.156093
0.0201518
0.101056
0.0707435
0.0977189
0.136222
5.20243
0.0210804
5.19052
0.0264371
3.56958
0.0213504
0.0223306
0.0312342
5.65899
6.71991
0.0240564
2.24998
0.037656
0.0369506
0.021095
0.124239
0.0224352
0.0208795
0.0360958
0.0379809
5.66711
0.0758204
0.0393953
2.91944
0.0225347
0.0203325
0.0203215
3.34027
0.165478
0.15269
0.0213667
0.0212939
2.11218
6.29109
0.0202843
0.0202733
0.0219787
0.0203433
0.0203346
3.29728
4.42918
0.0220281
0.0196257
0.0750873
3.3743
0.0217161
0.0213636
2.26365
3.53429
0.173419
2.91125
0.0959623
0.0212308
2.65195
0.0779122
0.0455719
0.0752222
0.023758
5.11468
0.0217089
0.0429608
0.0641046
0.022155
0.0220734
0.0233538
0.027623
0.0214385
3.71765
1.33609
0.0209896
0.0202741
0.0227423
0.0202782
0.0217138
0.024535
0.0378002
0.0211099
4.16823
2.93201
0.0215576
0.0254712
0.585205
0.0202322
0.0936891
3.32154
0.0202422
4.3161
0.0213455
2.81573
0.0215746
0.0268322
0.0222394
0.0211865
0.149699
0.0225215
0.483236
0.0290899
1.2476
0.0246212
1.93109
5.45695
0.0211974
0.0524036
0.028246
0.0249992
0.0289016
0.023857
0.0211402
0.0222486
0.122695
0.0371123
0.0416947
0.0236648
0.0213468
3.49148
8.32046
0.0210699
0.0241218
0.0250432
0.0723752
0.125768
2.85455
2.4718
0.0735576
0.152022
0.0251038
3.08609
0.0953632
0.192629
0.0243614
0.028267
2.17291
0.0222764
0.0457211
0.0969695
0.0217728
3.36566
0.0211976
0.0418914
0.0204643
17.7026
0.0207959
0.0392596
0.0382752
0.0569482
0.0216641
0.0753552
3.32315
0.0222836
0.0222662
2.9064
3.38339
2.62916
0.597521
0.0202203
0.0219787
3.59256
0.15172
0.0202325
0.0288724
0.0217918
0.0549947
0.0403786
0.111581
0.0928662
0.0941476
0.0414434
3.22003
0.0211961
0.0222932
0.0311391
0.184634
0.0217802
6.29347
0.0412034
0.259239
0.0219179
0.119599
0.0253454
1.21816
0.0216884
0.188147
0.587389
0.0410457
0.0215864
2.44506
0.0206575
2.48886
0.158468
0.0216741
1.25349
0.0226701
0.284836
0.0206815
7.10036
0.287955
0.0239455
2.10502
0.0815472
0.0233382
2.59361
0.227852
0.0234783
0.15038
0.0218731
0.0825489
0.190048
0.0212218
0.0266477
0.0236327
0.0211702
0.0209374
0.0212494
2.5695
0.133957
0.0220871
0.0213114
0.0216579
0.0513114
0.120304
0.0202924
0.0196326
0.123774
0.118824
0.0212153
0.0237836
2.54145
1.77199
0.139732
0.118592
2.9407
0.0207078
0.0202588
0.0322478
0.0209267
0.0203041
0.0221186
0.0202722
0.0206533
2.97421
0.021924
0.0428115
3.80531
0.0520841
0.0208982
0.0216608
2.62645
0.0312492
6.55457
0.0203872
0.0213576
0.0207158
0.0203542
0.0243708
0.0228905
2.53124
0.0261639
3.56403
0.0213517
0.0358885
0.0276688
0.0223566
0.0936007
2.61081
0.0217517
1.75449
0.0209327
0.0213209
0.0216037
0.0226902
0.0208343
0.0221863
3.43897
2.4445
0.0208166
1.96746
0.121168
0.0218745
0.0567238
0.0726434
2.56327
0.0274677
3.48811
0.299368
0.302091
0.0229159
0.0758387
0.0299798
0.0235954
2.50404
0.0208791
0.0217199
0.0224109
0.0262735
0.0343539
0.168078
0.0539146
0.0257915
0.0264028
0.0641868
0.0553145
0.0220894
1.1828
0.0369954
0.0291135
2.46161
0.0211615
0.0575624
0.146758
0.0208388
3.2439
0.0214188
0.020351
0.0526218
0.0204001
0.0223697
0.122601
3.51156
1.84739
0.0211388
0.0225994
0.0234227
2.24902
2.19105
0.0219684
0.0218289
0.0211182
0.0594819
0.56443
0.0212144
0.0217207
0.0222285
0.0211482
0.0258468
0.0291726
0.0210892
0.0546178
0.020841
0.0217052
0.0234683
2.88027
0.0203921
0.02401
0.0214448
0.0347893
0.0662738
0.0584581
0.0665901
0.135011
0.0232094
0.0586697
3.5926
3.09422
3.42912
0.0209917
0.0215499
0.0269905
0.0214548
3.19608
0.0202623
0.777516
0.0264207
3.50965
0.103504
0.0242707
3.31922
0.0208057
0.0627946
0.0220216
0.0224062
3.49656
0.0203374
0.212292
0.0214271
0.0228601
0.0216018
0.155912
0.0262033
0.0202564
0.107825
0.0555989
0.641434
2.94051
3.58288
2.54113
0.0203993
6.11189
0.020692
2.46813
0.55376
0.0229379
0.0291603
0.0215452
0.0364854
0.0238925
0.0203487
0.0220362
0.0242458
2.79839
0.0211913
0.0603389
0.0216823
0.020246
0.0216019
0.135832
2.77454
7.08052
0.0704308
0.0290195
1.74099
3.2564
0.0207063
2.60733
0.024016
0.0982133
0.0214502
2.22096
0.0211272
0.0261099
0.0217331
0.662338
0.0380024
3.10067
0.0211526
0.0363393
0.0213993
0.0216834
3.07818
0.110377
0.0215967
0.121608
0.0213467
0.0221455
0.0214867
2.92387
0.0211949
0.0281676
0.0202526
0.0214876
0.185766
0.0213825
0.113568
0.0220416
0.0208139
2.46535
0.0621237
0.0219048
17.5444
0.214236
0.0938747
0.150243
0.0207894
0.0297481
3.01978
0.21709
0.0308318
0.0245276
0.0264017
0.0218955
0.0212434
0.109505
0.0713966
0.0255227
2.46949
0.0384632
0.137615
2.30023
0.0376452
0.0373412
0.136153
3.86131
0.0211465
0.0326532
0.109875
0.0208257
0.0212515
0.0216044
0.0245962
0.0224546
5.79578
0.0353644
0.0211404
0.0900078
0.02105
2.81191
0.0213379
0.0211528
3.40956
0.0625025
0.289207
0.0218668
0.0213423
0.0211159
0.0222424
0.0289083
0.0211711
6.04027
0.0313289
0.506037
0.285354
0.0320749
3.61334
0.0226063
0.0219542
0.0214651
3.19981
1.98328
0.0268824
5.76099
0.747136
0.0208067
0.0211075
0.0243825
3.41221
0.326031
0.0383032
0.0222052
0.0240086
0.101449
0.0244119
0.111339
0.0355067
0.0223316
0.0225451
0.0219733
0.0288183
0.0264005
0.207133
0.0254423
0.0244878
5.79873
0.0217331
0.777805
0.0241588
0.0353444
0.0262024
0.217281
0.0217935
0.0592093
2.77381
0.225266
0.0214796
0.0254726
0.0229636
0.021359
0.0217129
0.0328721
0.027138
0.153968
0.113641
0.0207614
0.213082
0.0258452
0.0263132
0.124402
0.022083
0.0626761
1.53548
0.0202812
0.0625357
0.0823432
0.0351871
0.0210505
0.020863
0.0212316
7.21714
0.0223778
0.0215057
0.0413701
0.0211987
0.0209464
0.108831
0.678682
0.0388763
1.82782
0.0510866
3.64359
0.021718
0.0254982
1.00167
0.0229752
0.0263946
0.0216398
0.0212092
0.0218404
0.0259879
0.0605799
0.0210456
0.208756
0.0220259
0.645703
0.0242042
0.0274011
0.0204677
0.0760241
0.0271627
2.72549
0.040306
0.0220405
2.90074
0.0226508
3.95357
0.0236723
0.0551358
0.0238923
0.0209165
0.021461
3.2981
0.0287321
0.103896
1.7356
0.0213512
0.0354674
0.01961
0.0270654
0.488471
0.0196429
2.71201
0.0240945
0.0571786
0.102747
0.448545
0.0203957
0.0212801
0.101066
0.020778
0.0217394
0.0232371
0.0214953
0.0414793
0.0203848
0.102448
0.0223266
5.70183
4.06148
0.0821001
3.626
1.81464
7.52399
0.28639
0.0207437
0.0220352
0.0216103
0.0226686
0.0211233
0.0288544
0.0212439
0.119254
0.0217805
2.35291
0.0222799
0.0314125
0.0891192
0.0210257
0.0425924
0.0226493
0.0226116
0.0264903
0.0206492
3.71405
0.0764372
0.144648
0.0210661
0.0215183
0.0220796
0.0221235
2.48012
0.0207663
0.123345
0.0211082
0.28541
0.0264035
0.0212314
0.0609925
0.03154
0.0207777
0.28379
2.58932
0.0244812
0.0758159
0.0207539
0.125669
0.0210389
0.0221253
3.60784
0.0215146
0.0224629
0.0887927
3.95654
0.0214225
0.702028
1.91407
0.0218467
0.0233509
0.0215488
2.75616
0.0214893
0.11592
0.021749
3.28962
0.0268447
2.4968
0.0213145
0.0201795
0.293394
0.0229018
0.0216305
3.64637
0.0231808
0.0209259
0.444894
0.0218251
0.0220297
0.0707106
0.0233597
3.18395
0.0404791
0.0723436
0.144406
0.0239349
3.23435
0.0225724
0.0663322
0.0214001
3.66044
0.300097
0.0219267
0.0210776
0.02207
0.0219728
0.0208811
0.0207072
0.0210589
0.0214493
0.0297391
0.0202818
0.0229711
0.0709628
2.58802
2.7269
0.0823547
0.0220917
0.294966
0.0211948
0.833044
0.539651
24.7834
0.0203137
0.0207535
0.0217251
0.0216757
0.0202939
0.0207276
0.021261
0.0385687
0.0209337
11.2973
0.448556
0.0209624
3.33999
0.0214117
0.0212604
0.0299304
2.88911
0.0601888
0.0213437
0.303084
0.0212224
0.0212669
0.46532
0.0221425
1.74595
0.0225569
0.0655405
0.020909
0.0210469
0.0314768
0.0907278
0.0230964
3.05695
0.033928
0.0228121
0.0236868
0.0215177
0.0208439
0.0893246
0.0344189
0.0253367
3.07254
9.69427
0.0831804
0.0944798
0.0209956
3.20225
0.0209888
2.50378
0.0621923
0.0267411
0.022898
2.54751
1.71028
2.89674
0.0224362
0.699388
0.0208861
0.021249
0.0356608
0.0222621
0.021722
0.296808
4.24291
0.021048
0.0277361
3.44146
0.0213755
0.0202403
0.768974
2.76688
0.0225303
0.0207847
0.0268464
0.0216376
0.0212159
0.0328492
0.0261808
0.0215876
0.5068
0.022528
0.021573
0.533491
0.0324988
3.54748
0.0218973
0.0222269
0.129681
4.00619
0.269816
0.0276186
0.0328477
0.0220864
0.0225943
0.0214108
2.69245
0.0253652
0.0224739
0.0522683
0.021187
0.220188
0.0740265
0.113068
0.0582826
0.518862
0.343532
2.52036
3.06441
0.0232646
0.526935
0.0202545
0.0578755
0.0763039
0.433735
0.0249365
0.0224109
0.0258646
0.0907188
0.0233307
2.5319
0.0355454
0.0857626
2.51338
0.0211944
0.0971647
0.0237055
0.0217209
0.0271774
0.0195114
0.0202932
0.0207078
0.0229275
3.2146
0.0209235
0.0231915
0.0238916
0.0225726
0.0216028
0.089451
0.0676047
0.022479
0.0210244
0.0838279
0.0987161
0.0379728
3.30935
0.0219296
0.0214602
1.88805
0.0215141
0.0234409
3.09741
3.42057
0.0294956
0.0579688
0.0270609
7.69638
0.115742
0.033013
2.92895
0.0211673
0.0774027
2.5458
0.19617
0.552201
1.20164
0.0206368
0.021658
0.0243601
0.0216293
0.0217627
0.207358
0.0215257
0.0450042
0.0204794
0.0560412
2.61303
0.0233897
2.35276
1.77274
0.0214613
0.073765
0.0266392
0.0230458
0.0213624
3.27834
0.0693429
3.70536
0.0279083
2.57957
0.0841072
0.0213512
0.0834763
0.0357416
0.019974
0.0212476
0.152897
0.0213692
0.026002
0.0371411
0.0259147
0.0221196
0.0543834
2.45874
0.0211569
0.15487
0.0656656
0.0217373
0.0211712
0.0246877
2.79023
0.686323
0.020847
0.0305319
0.0414644
0.483871
6.68811
0.0216715
0.0209434
0.0206359
0.0215238
0.0242253
0.024218
3.01235
0.0222248
0.0245844
0.0204973
0.045333
0.081513
2.77589
2.4978
0.0218967
0.0214853
0.0208973
0.0228715
0.0677548
3.80047
0.155842
0.0920808
0.0308163
0.0493889
0.0237993
0.076669
0.0257112
0.104597
0.02108
0.120294
0.0848001
0.0207492
0.0218385
2.9426
0.0489591
0.0151631
2.54854
0.118965
0.0211185
0.399236
0.0233045
0.0212378
2.63895
0.467194
0.0210941
0.0294892
0.101624
0.0342334
0.022403
0.0203676
0.0211852
0.0208694
0.0213533
0.0300849
0.0510668
4.48611
0.0347518
0.0260443
0.0318171
0.0813116
0.0209855
0.0344462
0.157454
0.222063
2.98737
0.023073
0.020352
3.52912
0.0210479
0.25721
0.0230773
0.0430474
0.0220155
0.021096
0.355657
0.0265755
0.0229628
0.0215077
2.58253
0.866824
3.32209
0.0218643
0.0216235
1.22386
0.0211327
0.0207292
0.116043
0.534276
0.0271974
0.0337839
0.0223267
3.15047
0.0212531
0.0245642
0.0221208
0.0203384
0.222288
0.0212501
0.020851
0.449853
0.05715
2.55397
0.210685
0.0211904
0.0304761
0.0209541
0.0210746
0.0237522
0.0225326
0.02171
0.195648
0.0216613
0.0702376
0.0267228
0.0246612
0.0216584
0.0218067
0.021197
3.31131
0.0202756
0.115961
0.0674018
0.0228321
0.0514068
0.0337271
0.0308225
0.0215902
0.0280496
0.0209404
0.0207435
0.207868
0.0376375
0.0283833
0.0213067
0.0212829
0.0210591
0.0659828
0.0211897
2.86746
0.0457822
0.021113
0.0213154
0.0206006
0.0455578
0.0410633
1.80016
0.0335045
0.226664
0.0247829
0.0919695
0.0240619
2.81883
0.020472
0.0202431
0.0252357
0.138313
0.020628
2.91521
0.0216775
0.021404
0.119223
0.149939
8.26361
0.198902
0.0259863
0.148416
0.0419944
0.0206705
2.84287
0.0214217
0.021462
2.23914
0.020532
2.92924
0.1714
0.0210893
0.0214664
0.0207011
3.63592
0.0216872
0.0203653
0.072408
0.0211954
0.0209221
0.0224726
0.0206871
0.044868
0.0217829
0.0244215
0.0207021
2.07133
0.0506704
0.0207225
0.0207303
0.0224742
0.0212997
0.024094
0.0219547
0.0212555
0.0218119
0.0214538
0.022693
0.0215559
0.0604886
0.0205936
0.0764016
0.0217397
0.0489464
0.0208128
0.021685
0.0211776
0.0203117
0.0366079
0.0264389
0.025369
2.56905
0.0279363
3.34689
2.80036
0.0764228
3.68129
0.0216903
0.0215282
1.65568
2.51172
0.0211329
3.36445
0.0206878
0.11497
0.715059
0.0239592
0.0785228
1.3747
1.89661
0.0212935
0.0466169
0.0209789
0.398867
0.0244891
3.0868
6.97525
0.0218069
0.0498067
0.517924
0.0219771
2.10559
0.211324
0.0234338
0.020958
0.144103
3.31413
0.0206673
0.0321913
0.0220232
0.776579
0.122192
0.0216309
0.0208416
2.48462
0.0210288
0.0214674
0.0222387
0.0207238
1.59716
0.0289621
0.0287992
3.14392
0.0213576
0.05589
0.0217771
0.147852
0.0548988
0.388108
0.0207807
0.0279202
0.0210479
0.021605
0.0240035
0.0215565
2.4324
0.0228581
0.0207648
0.0211686
0.151086
0.020941
0.366949
2.4866
0.780425
0.0215861
0.020911
0.0212571
0.618207
0.0219062
3.38302
0.0213593
1.54629
0.0232869
0.0225897
0.291458
0.0216969
0.0217927
3.38045
0.103537
2.90087
0.0218158
3.52448
1.66111
0.0216332
3.1275
0.0217916
0.0256722
2.51144
0.0237459
0.0417722
3.78978
0.0305343
0.0654814
0.0216406
2.93583
0.0214487
0.375369
0.0212585
4.34515
0.0214702
0.0215769
0.0236556
0.705058
0.0209469
0.0261162
0.063012
1.47933
0.0212814
0.0296658
3.43197
0.110582
1.28719
0.0745345
0.0208072
0.103404
1.20912
0.0243237
1.86962
0.0202091
0.133821
6.24459
0.0209872
6.60083
0.0213181
3.50166
1.07823
0.0240809
0.0241062
0.403923
0.771288
0.0214853
0.0229929
0.0207373
0.0216557
3.26047
0.0633339
0.199404
0.0217129
0.0277456
2.95821
0.0274085
0.701868
2.63643
0.0211511
0.0213997
0.189115
2.52474
2.33347
0.734741
0.198335
0.0386962
0.0476914
3.40481
2.51404
0.556166
0.020958
0.0766331
0.0447734
0.0694864
0.0214994
0.0263341
0.0588627
0.123072
0.787689
0.0219925
0.124322
3.1335
0.0428395
0.0214412
0.0214469
0.0810852
0.0209424
3.48807
0.0284029
0.0221838
0.155352
0.0693367
0.0207077
0.0361475
0.0299514
0.0215286
3.71116
0.0247057
3.70148
0.0209634
3.00317
0.621863
0.197544
0.0203104
0.0267858
0.031043
0.105464
0.107132
0.0659704
3.25935
0.401853
0.0196812
0.0260314
0.0222566
0.116004
6.42826
0.0209254
0.0206825
0.0229072
0.490613
0.109752
0.0210165
0.0497646
0.15569
0.0209302
0.0496154
0.0242335
3.68568
0.0273097
0.408255
3.45119
0.0286214
0.0247957
1.84189
0.0211617
0.0456422
3.06469
0.0244942
0.079755
0.0317082
0.0567049
2.51912
3.48243
0.0216177
0.997386
0.282994
0.020541
0.124297
0.0648741
0.105219
2.33436
0.808026
0.752077
0.100794
2.86267
0.0272113
0.0646531
0.0207115
0.0218258
0.0215903
0.0209252
0.320382
0.120452
0.0202968
0.0466472
0.165376
0.021147
0.548012
3.1215
0.0201757
0.0218585
0.0208289
0.0227442
0.0443298
0.0214451
2.61055
0.0297936
0.0682892
0.0262444
0.0675
0.0457296
0.0335941
0.129156
0.0215279
0.0228618
0.0202614
0.0209081
3.48275
0.0915783
0.0292573
2.49286
0.0217837
0.0222065
0.0325424
0.0207186
0.0210549
0.0723013
0.0255996
3.25578
2.54924
2.46286
0.0216685
2.5908
0.021284
0.652619
0.0206859
0.131449
2.541
0.0214946
0.333542
3.50536
0.0328577
0.0224209
0.0210382
0.0281234
2.58635
0.0206977
0.0218856
0.0223471
0.0234166
0.195389
0.0228366
0.02591
0.0211205
0.022284
1.88919
0.0343622
0.0241102
0.116472
0.0870225
3.16365
1.00537
0.0231214
0.0226493
3.09464
0.0215218
0.0640148
0.0217043
3.3143
0.0221783
0.022043
0.0320656
2.77022
0.0214014
0.0207752
0.0204553
0.137958
11.491
0.110216
0.0214904
0.0240656
0.0209318
3.20123
0.0213211
2.63755
0.0559586
0.0217878
0.147048
0.0343775
0.160312
0.0221723
0.0207148
0.0304641
0.0413582
0.117794
0.0218126
0.0220873
0.0220533
2.86123
0.0216125
0.0224151
3.44224
0.0232961
0.0266221
0.0248203
0.0211105
0.0212311
0.34368
0.0235944
1.47844
0.175597
0.0200178
1.39501
0.0220132
0.0990566
0.0486874
0.0226526
0.0203442
0.0199926
0.0214333
1.11567
0.0471238
3.36352
2.74204
0.0209582
0.0258251
0.0387067
2.04918
0.021441
0.355006
3.47188
3.23531
0.0212454
0.0231643
0.0221444
0.28687
3.4471
0.0219287
0.0215512
0.0307307
2.80979
0.0217462
0.0232464
0.0231997
0.11248
1.47686
0.0204946
2.66674
0.0289924
0.021429
2.55155
0.0556455
1.6174
1.07821
0.0323914
0.0259749
0.0224749
0.0271015
0.0222619
0.06365
0.0465545
0.0212635
0.024625
0.180452
2.55649
0.020682
0.102284
2.59804
1.84291
0.0214041
0.0216147
0.209386
3.01159
0.0894483
0.0211877
2.59997
0.0648379
0.020079
4.48883
0.0276354
0.0218266
0.154437
0.0214903
0.0335989
0.020876
0.0198954
0.0216441
0.0204493
3.13268
0.0202766
0.0211752
0.0744275
0.0252311
0.0247274
0.126366
0.0215961
0.0214935
0.0231265
0.0226077
0.198364
0.230001
1.12579
1.00382
0.0343506
0.433278
0.0418111
2.8444
2.60145
3.05679
0.0209029
0.0305243
0.021462
0.021632
0.0209643
0.0222853
0.188902
0.0580553
0.0383488
0.0211227
0.0214053
0.0548926
0.0218709
0.0220281
0.0216046
3.1956
0.0313147
7.85659
0.0216546
0.196714
0.022147
0.0219528
0.0223285
0.0425822
0.0210801
0.0818998
2.91952
0.0411483
3.60954
0.42491
0.0227778
0.0277356
0.340199
0.105705
0.020422
0.0209174
0.0200125
2.78466
0.0198798
0.0860258
0.0485496
0.074946
0.293611
0.166368
0.0632339
3.74318
0.0206826
0.0204501
0.247391
3.22392
0.0214746
0.0216433
1.18893
0.0209706
0.160593
0.0228542
0.0212763
0.025707
0.0215678
0.0695401
2.87496
3.13766
0.0249637
0.0214819
0.0756784
0.0227626
0.0757922
0.0209105
0.130259
0.0876003
0.0220282
0.0217727
0.0200634
0.116607
0.0442201
0.196822
1.84574
0.0299429
3.15081
0.0717063
0.10636
3.40522
0.0213036
2.71748
0.0225256
3.22638
0.316554
2.69678
3.25323
0.022
0.0536447
0.194035
0.0215171
3.90478
0.0215608
0.0215605
0.0261686
0.0222344
0.030869
0.195062
2.11073
2.45665
0.0260598
0.0400343
0.0227699
0.0219299
0.0217361
0.120436
0.0831675
2.51066
0.0448458
0.0203386
0.0207504
0.0222338
0.2255
0.0243895
0.0226282
0.025314
0.082758
0.0317207
0.0420552
0.0373122
2.73981
0.0295712
0.0328947
0.0214468
0.0262436
0.347987
0.027011
0.0459267
0.0207122
2.56438
0.0329826
0.0211585
0.0483003
2.88657
0.408569
0.0334485
0.0209814
2.50509
0.0220873
0.0209385
0.020379
2.34201
2.1485
0.0227658
2.24844
3.04923
0.0245179
0.0373884
0.0591873
3.65712
0.0308627
3.4168
0.0221331
0.0433994
0.0247055
3.63978
0.0335372
0.0208265
2.98233
0.0216913
0.0225299
1.65305
3.32283
0.0709197
0.526801
0.0246242
0.0228433
2.76646
0.0211646
0.0211972
0.0216229
0.0452311
0.021425
0.0316365
0.0245264
0.25871
2.49862
0.0223221
3.8664
0.0244121
2.94446
3.47217
0.0215985
0.0218265
0.0256905
0.403572
0.188849
0.0651903
2.88988
2.59959
0.262216
0.0226682
3.12871
3.41336
0.0424697
2.16974
0.0216954
0.0213898
0.0216353
0.0226587
0.0213033
0.033272
3.17599
0.0311898
0.17132
4.41189
3.12052
2.48066
3.21427
0.0283694
3.56614
0.101652
0.0721325
0.020664
0.0215741
0.066352
4.05384
0.0227446
2.75369
3.07467
0.0209441
0.0216597
0.0216741
0.0849137
0.0221979
0.0706456
2.75342
0.0206562
0.0214104
0.020921
0.0224213
0.0951058
2.96126
0.0363915
3.25821
0.103944
0.02118
0.238764
0.119899
0.0217575
0.895732
2.21464
2.51462
1.71614
3.47405
0.0214371
2.92248
2.98061
0.149627
3.19367
0.0209514
0.0234601
0.0241067
0.0235544
3.35377
0.0647094
0.0217976
0.027466
0.295157
3.05698
0.0225347
0.0215455
3.41814
3.19691
0.0218001
0.0282224
0.100345
0.0213374
0.0214256
2.54147
0.0211368
0.213156
0.219252
3.44683
0.0210619
0.0710156
0.13538
0.0211244
0.0201366
2.44801
2.31751
0.0220195
0.0336859
0.160554
0.216467
3.42899
1.95989
0.0259442
0.269844
0.306397
0.0348574
0.0211199
0.0764438
0.0204056
0.0202425
3.31024
0.0378353
0.0903302
0.0246072
0.0255973
0.0209476
0.0204455
0.0222722
0.0225079
2.48637
0.0243399
1.33882
6.17062
0.0439208
0.069299
2.57587
3.56477
2.51027
0.0209472
0.0250389
0.0354446
0.0257053
0.159287
0.296416
0.0222398
1.27569
3.24409
0.0268206
0.0885974
0.0731662
0.0967627
0.105686
0.0229132
0.117542
0.129266
0.143041
0.160876
0.10959
0.0797302
0.0268537
0.0210974
0.0330469
0.0877557
0.0210995
0.398884
3.61739
0.154884
2.94612
0.0201028
0.0206999
0.0416312
2.98677
0.0224156
0.024085
0.0629195
2.51843
1.11483
0.0215564
0.0313449
0.0254205
2.6883
0.303753
0.0243254
0.720549
3.03088
0.0972682
3.3144
0.0912823
0.323002
3.54733
0.0196047
3.71133
3.08927
0.0226886
0.0684468
0.0943288
0.0256449
0.0208798
0.549051
1.12803
0.0208282
0.0208726
2.51826
1.47315
0.0768976
0.0218414
0.187551
0.122029
3.04371
3.71475
0.0216325
0.0213881
0.0223616
0.0227716
3.3931
1.2069
2.99305
0.0819423
0.282783
0.558928
0.0227641
0.0210537
3.08822
0.0209055
3.50383
0.0211819
3.29779
0.0226865
0.0225482
0.741239
0.0215726
0.107591
0.411478
0.0243952
0.0237407
0.0228341
0.181514
3.32977
0.147309
2.96772
0.023653
0.0225032
0.0279701
0.0742184
3.81413
2.45627
0.0934508
0.210911
0.119324
2.8657
0.021618
0.0208711
0.0206721
0.0206654
0.236838
0.0652501
0.407787
0.0410332
0.142783
0.0211444
0.269906
0.104236
2.87728
0.0214782
0.0230098
0.0199122
2.95311
0.0194457
0.716466
0.192676
0.116157
0.253355
0.0200374
0.037322
0.143377
0.287083
1.30133
0.0216497
0.128177
0.0221446
0.0219562
0.0977284
0.991725
1.31011
0.0219144
0.0834451
0.138387
2.49043
5.29089
3.43227
3.49579
0.0210278
0.0600891
0.0216434
0.133236
0.0211533
0.105956
0.0233872
0.049102
0.252263
0.415473
0.02322
0.0947215
3.06381
0.113976
0.0236996
1.70656
0.104502
0.0221594
0.0222967
3.39962
0.0289943
0.118926
0.778423
0.400103
4.16035
0.0228527
3.04852
2.90476
1.10386
0.465168
0.0317195
0.104616
0.0945599
3.40099
0.0713149
0.0222785
2.18487
0.049162
0.407631
0.0279259
2.53929
0.46279
2.59591
0.0263777
0.0950059
0.0244194
3.11167
0.145355
2.56122
7.39462
0.0209468
0.0198989
3.09383
3.67606
0.0332608
0.0221854
0.0421421
0.030177
3.09582
0.0719448
3.1154
0.0262516
3.17186
0.115768
1.14146
0.0222287
0.140094
2.44355
0.0234355
0.0829091
0.0200835
0.0245189
0.0216856
0.275864
0.0212183
0.0216684
3.52374
3.07221
0.0206463
3.74089
0.0224785
0.0215734
0.0213247
0.0209106
0.0218382
1.00361
3.39731
0.0206198
1.30487
0.0669012
0.0480879
2.04731
0.0840869
0.025778
0.0322663
0.0213006
0.273579
0.0307086
3.78506
0.0244407
3.27746
1.61227
0.0695905
2.47651
3.24128
0.0207851
3.71354
0.055675
0.0649804
0.037394
0.0212057
0.0444213
0.193822
0.0216346
0.0671115
0.0214219
3.45372
0.140578
2.50122
0.176104
0.167383
3.49625
0.021653
0.0211498
0.0623337
0.0231258
0.021824
0.0218559
0.0274993
0.0211128
0.0212095
0.0228333
0.0426918
0.0234314
0.0276137
0.0228533
0.0358992
0.0991756
0.0237881
3.54835
0.023526
0.0212741
0.0914439
0.0426235
0.0229165
0.021098
0.955482
0.0235907
3.16995
0.0237938
0.108124
0.0213193
0.0214588
0.0919685
3.58761
0.0700708
0.0354086
0.0201594
3.05453
0.0217116
0.0211731
0.0761584
0.0241664
0.133705
3.04136
0.0959427
0.0903466
0.0418013
4.20891
0.0215589
0.0217033
0.063223
0.263683
0.0595018
0.0966373
2.46657
0.0278826
0.0216406
0.0281976
0.18663
0.0573289
0.021656
0.0998622
0.0958013
0.0641836
0.021827
0.0216864
0.157894
0.0631825
2.62432
0.449199
0.0238596
0.0699518
0.0218
0.0447707
2.14008
0.0217993
0.160235
0.122006
0.0816546
1.11426
0.0215931
0.021425
0.0212559
3.53745
0.208768
0.0236972
0.0922336
0.109161
0.0217734
0.0214795
0.130307
3.6788
0.158412
3.10136
0.149312
0.0309562
0.97914
0.119977
0.0307481
0.121731
0.0871825
0.175705
0.0215806
0.0964969
0.132462
0.022539
1.0018
0.0399258
0.0749374
0.0274437
0.146262
0.0211212
4.01232
0.0247505
0.0208059
0.0209256
0.0207489
0.0228453
0.0226081
0.0208862
0.0243235
0.0217036
0.0224722
0.263579
0.0779615
0.0223211
0.0636476
0.0248965
0.0209324
0.02041
0.0469428
0.0264809
2.8392
0.021613
0.0216269
0.0686643
0.143613
0.0216742
0.0216121
0.108621
0.0237139
0.0907559
0.0606051
0.0216054
3.54934
0.0239536
0.0224754
0.0737696
3.77621
0.0221949
0.0584033
0.0208245
0.0260343
0.0213398
0.0275594
0.0212088
0.0216439
0.0415785
0.0609825
8.21981
0.0516972
0.0215566
0.0289431
3.18999
0.0497309
0.182343
0.0984839
0.0216865
0.0546023
0.192035
0.193474
1.45779
0.0262145
3.33107
0.288054
0.0299926
0.0217846
0.0750511
0.0224135
0.0567333
3.03193
0.0216436
0.308928
0.0219095
2.85817
0.0491818
0.0225472
0.0616619
2.93719
0.395952
0.0240601
0.0726931
0.0309619
0.0206294
2.5419
0.0205047
0.0345197
0.021111
0.0252691
2.52443
0.0717997
0.0208181
0.0294506
0.168235
0.021624
0.022035
0.0287591
0.02561
0.0215053
0.0239645
0.0247004
0.022177
0.0211167
0.0618178
0.103483
0.184989
0.0210374
0.0584095
3.00237
4.36012
0.0209229
0.0216816
0.0253495
0.0889967
0.022342
0.0210907
0.0212502
0.0208625
0.0262426
0.0279201
0.024471
0.0653973
0.0235471
0.0204221
0.0235463
0.0638372
0.0481872
0.107063
0.0223228
0.0290561
3.21188
0.0300067
0.0248916
4.19582
3.16585
0.0986056
0.0676674
0.163221
0.0214047
0.168886
0.0274154
5.03786
0.021426
0.021235
2.30546
0.0208148
0.201856
2.52303
0.0221106
10.8112
0.0313598
0.0325937
0.0272905
0.0735337
0.0294392
0.0266073
0.221095
0.0208849
0.0244394
3.58267
0.0231775
0.0215286
0.0308643
3.15402
0.0223647
0.0223686
3.15069
0.0231457
0.0272489
0.058676
0.0203423
8.20022
0.0243238
0.0225369
0.103433
0.0575565
3.10658
0.0236314
1.73147
0.0343955
0.0884646
2.52243
0.0216316
0.0333359
0.0910919
0.0223148
1.68938
0.0224059
0.0233882
2.94087
0.02227
0.0421768
0.0874291
0.761905
0.03067
0.0269126
0.0224753
0.0240553
0.0899569
0.024786
0.0313118
0.0729211
0.0543966
0.0217092
3.36601
0.0391096
0.020433
0.0230618
0.021244
0.0207475
0.0203476
0.021655
0.0215906
0.0304778
0.0240712
0.0419509
0.0202088
0.0204366
0.0233269
0.0781275
0.0207413
0.030389
0.0625453
0.0293151
0.0305854
0.0214806
0.0234
0.0245246
0.0385859
0.0288776
0.0244784
2.60958
0.0218264
2.3161
0.0250805
0.0887542
0.0864067
0.0216146
0.0592266
0.0319492
3.12053
2.97034
0.0256755
0.0218413
0.023709
0.0302401
0.0489983
0.0216749
0.0442188
0.0542046
0.0227181
0.0565216
0.0489319
0.0622784
0.0288715
0.150706
0.0820966
0.0274152
0.483075
0.0228041
0.127339
0.0226325
0.0212926
0.0819397
0.0836628
0.0214087
0.0509396
0.0214534
0.0217183
0.0215205
0.0221509
0.0215537
0.0214215
0.0214268
0.0223509
0.164183
0.022627
0.0213642
0.0226426
0.0227508
0.203129
2.91686
0.0609085
0.0244376
3.26668
0.0214828
0.0213786
0.481449
0.032885
0.0222365
0.0224059
0.0217579
0.154628
0.021879
0.0258516
0.0224805
0.0346499
3.77778
0.0214656
0.0569117
0.0657347
0.0254166
0.0445367
0.0206927
0.0217698
0.0601459
1.74985
0.0234282
0.0368009
2.50158
0.0909862
0.0207789
2.60935
0.0228772
0.0196788
0.0592378
3.54334
0.0215157
0.0207235
0.0233148
0.0304132
0.0345667
0.0214409
0.0226026
0.0401534
0.0217618
0.029333
0.0260931
1.41035
0.0204536
2.96425
0.776734
0.0363042
0.0213821
0.0923653
0.0210148
0.0236757
0.0216677
0.0563546
0.0201851
0.0201663
0.0417477
0.059944
1.8048
0.0220333
0.0201052
0.0234663
0.0207883
2.87575
0.0235496
0.0230096
0.0222716
0.0622769
0.0487481
0.023732
0.023275
0.0458538
0.0217645
0.0215525
0.0236158
0.0222729
0.102074
0.021197
0.0303371
0.0220825
0.0215639
0.0504348
0.0893869
2.83686
0.0215229
0.0578702
0.410088
2.96267
3.27282
0.0310737
0.0215967
0.0248466
0.0304977
2.42257
0.0219841
0.0254636
0.0274844
0.0314248
0.0202336
0.0552089
0.0477268
1.03237
0.0222317
0.0217535
0.0896565
1.0152
0.0201178
0.0248455
0.0342107
0.0200008
0.0226794
0.0466705
0.0211285
0.021508
0.021793
0.0247224
0.0816169
0.0370826
0.02269
0.0206562
0.0223307
0.146667
0.0199448
0.0208219
0.0263094
0.0880291
0.0259211
4.05241
0.0247921
0.0215218
0.0215703
0.0233094
0.0212141
0.0338471
0.0629821
0.0208794
0.0210155
0.0221425
0.0213194
0.0222324
0.0458817
2.57134
0.0225735
0.0985951
0.023008
0.0213394
0.181552
0.0237776
3.60215
0.0218818
0.0218626
0.0207328
0.0215324
0.0227542
0.0311423
0.0391471
0.19049
0.0283517
0.0544112
0.0218836
0.0331574
0.0214493
0.0236583
0.0340733
2.54767
3.09353
0.0219711
3.26164
0.111187
0.0433719
0.682809
0.0198884
0.0214262
0.0217722
0.0231474
2.69131
0.0207458
0.0719299
0.613181
0.0225768
0.0824936
0.0199873
0.0320188
0.29335
2.00527
0.0219335
0.177435
0.116094
0.704577
0.0266411
3.24181
0.0227729
0.0961024
0.101102
0.020503
0.0406695
0.0323109
0.0238541
0.4062
0.0312548
0.0209047
0.0221511
0.129906
0.0218516
0.0563818
0.0216056
0.0199127
0.023049
0.0333434
0.0215871
0.0813249
0.0270003
0.0236915
0.0199105
0.0215747
0.465448
0.08055
0.146717
0.034544
0.0253413
0.028375
0.0258944
0.0214883
0.0229231
0.0346645
0.023416
0.0244412
0.0203806
0.0263088
2.89787
0.0220857
2.76193
0.133892
0.0216696
0.0217568
0.0202526
0.0293175
0.0379263
0.0200938
0.0258697
0.0231205
0.0220951
0.021152
0.022197
0.0212641
0.0216968
0.19767
0.0219525
0.0259922
0.0214695
0.169227
0.0852862
0.021518
0.177584
0.0217194
0.0242169
0.0307043
0.307495
0.0296211
0.0210129
0.0213865
0.033237
0.0427697
0.147757
0.0229142
0.0513156
0.11264
0.0220683
0.02156
0.117025
0.0538592
0.0318784
0.0217386
0.0221129
0.0229152
0.0236104
0.0208693
2.4803
0.0242722
0.0242345