/*--------------------------------*- C++ -*----------------------------------*\
| =========                 |                                                 |
| \\      /  F ield         | OpenFOAM: The Open Source CFD Toolbox           |
|  \\    /   O peration     | Version:  v2012                                 |
|   \\  /    A nd           | Website:  www.openfoam.com                      |
|    \\/     M anipulation  |                                                 |
\*---------------------------------------------------------------------------*/
FoamFile
{
    version     2.0;
    format      ascii;
    class       volScalarField::Internal;
    location    "800";
    object      V0;
}
// * * * * * * * * * * * * * * * * * * * * * * * * * * * * * * * * * * * * * //

dimensions      [0 3 0 0 0 0 0];


value           nonuniform List<scalar> 
13917
(
0.00162473
0.0421548
0.00431515
0.0433023
0.089945
0.0535915
0.0226356
0.043677
0.021113
0.00125583
0.0471633
0.0621654
0.175738
0.0444461
0.0626943
0.00135924
0.163363
0.0468856
0.00641293
0.00164825
0.0322633
0.106475
0.0117087
0.117161
0.0324545
0.0331701
0.0212255
0.00135143
0.0417468
0.163307
0.0013077
0.00761481
0.0452831
0.00169827
0.141044
0.0445401
0.0502644
0.172853
0.020598
0.0279753
0.200588
0.140415
0.0308779
0.00554429
0.00664031
0.00834326
0.0395465
0.00324255
0.0513076
0.113607
0.061761
0.00934328
0.00143017
0.0788055
0.0775345
0.00695523
0.00118712
0.0131671
0.150369
0.0103888
0.00767047
0.123376
0.161824
0.0371284
0.00246329
0.153384
0.0407318
0.0415842
0.0420056
0.00128154
0.00370086
0.00126322
0.0722035
0.149425
0.0320887
0.0383177
0.0747292
0.156781
0.0438738
0.0331292
0.0844585
0.180011
0.0772366
0.00346784
0.149021
0.0368069
0.00829474
0.169003
0.0292751
0.137986
0.151778
0.0278505
0.0605813
0.149258
0.0682019
0.040777
0.0289553
0.174893
0.139175
0.026685
0.170501
0.131468
0.0709586
0.151799
0.0973718
0.00282998
0.00261823
0.137065
0.139412
0.0200547
0.16922
0.00195745
0.0384132
0.00329565
0.00272341
0.0380652
0.00727318
0.167651
0.00476341
0.0720013
0.172295
0.157735
0.0386373
0.00822561
0.00146955
0.00210206
0.0333366
0.0313328
0.134639
0.00658817
0.0127432
0.0119062
0.00208435
0.042625
0.00656491
0.0211062
0.00827471
0.00138195
0.0366706
0.183799
0.0620901
0.156274
0.00308766
0.0982342
0.068032
0.152027
0.00342585
0.121296
0.00221022
0.0891805
0.0264979
0.19993
0.0697091
0.0613327
0.0243124
0.0956898
0.144266
0.0017138
0.183133
0.156569
0.137854
0.00374664
0.0545102
0.0702444
0.00454034
0.0236614
0.00122529
0.00451661
0.173353
0.036225
0.104062
0.00230683
0.0245571
0.00790579
0.0102686
0.167681
0.0389793
0.00973527
0.0158687
0.0508763
0.030812
0.114157
0.0512894
0.0055255
0.00460263
0.0140632
0.058817
0.00764977
0.168966
0.0384387
0.0135678
0.00657561
0.00680298
0.00149559
0.113732
0.00149924
0.0264146
0.00213307
0.139263
0.101629
0.0345735
0.00137465
0.00119484
0.0514303
0.0161699
0.0429804
0.0254482
0.152833
0.00885885
0.0834158
0.142844
0.0755364
0.0735093
0.0029317
0.00653804
0.0307586
0.00290444
0.169133
0.151907
0.144276
0.0042927
0.00770837
0.00754528
0.149586
0.167956
0.0217819
0.0014724
0.130698
0.14578
0.152357
0.146911
0.151104
0.00112458
0.00298498
0.0763493
0.169109
0.0111985
0.00143284
0.159117
0.152077
0.020782
0.0027043
0.0055217
0.00260569
0.0109611
0.0866898
0.00495209
0.00982943
0.0333321
0.00856252
0.0508949
0.00235053
0.0585402
0.0145048
0.0143002
0.0837712
0.179692
0.0317737
0.101513
0.130138
0.00144044
0.0375952
0.157857
0.143323
0.0955646
0.138983
0.0668903
0.177633
0.0158951
0.15757
0.00131745
0.00275608
0.0941251
0.0956709
0.010383
0.158965
0.0227355
0.00146838
0.154244
0.00126911
0.134832
0.00451651
0.1809
0.066212
0.0706817
0.124228
0.00518056
0.169309
0.0222785
0.0255817
0.0390861
0.124621
0.0206333
0.00132791
0.139368
0.012406
0.101426
0.0395526
0.0970476
0.0358981
0.14152
0.172255
0.0117391
0.101995
0.0171284
0.0361193
0.124401
0.00178914
0.00109804
0.135503
0.16705
0.0368427
0.084331
0.00496922
0.00277009
0.00672814
0.188962
0.0141518
0.0924264
0.00325836
0.0847334
0.00366673
0.139456
0.0595816
0.0191584
0.0958687
0.0404785
0.00646759
0.17849
0.00187341
0.146868
0.0100775
0.161598
0.00165461
0.127741
0.0152095
0.038406
0.179422
0.187641
0.00733344
0.00304823
0.0702778
0.0939599
0.00187099
0.00290423
0.00541303
0.0428776
0.164417
0.0761523
0.00262271
0.0118877
0.175069
0.120263
0.0572765
0.0289936
0.0133076
0.00773997
0.0147661
0.0239447
0.00902055
0.00165317
0.124802
0.0719961
0.0645739
0.00484697
0.170547
0.0012421
0.0107237
0.118419
0.0599297
0.0145241
0.166207
0.0547254
0.128193
0.00679189
0.00897427
0.0434004
0.0824781
0.00361887
0.159163
0.00499503
0.00615483
0.126355
0.0523867
0.0785912
0.132507
0.13585
0.00157612
0.126507
0.0424048
0.0201565
0.0264664
0.0577065
0.00606547
0.00398762
0.0441207
0.00552788
0.0766661
0.0264548
0.00453827
0.126725
0.0197201
0.0300177
0.134023
0.130273
0.134685
0.00767058
0.0231492
0.0589961
0.13092
0.104038
0.0139497
0.0456683
0.164979
0.190442
0.00581143
0.016369
0.102145
0.051015
0.00657728
0.029165
0.144127
0.00586831
0.00304847
0.1454
0.163303
0.0368312
0.132894
0.162734
0.0651912
0.137619
0.142289
0.00406648
0.0730679
0.021433
0.00136441
0.0123244
0.135577
0.0708551
0.00552209
0.0395845
0.00122745
0.165867
0.0859982
0.152544
0.145048
0.0483757
0.0806191
0.00818462
0.145204
0.00242649
0.0939427
0.0132767
0.134372
0.0717853
0.0104361
0.00666315
0.0555331
0.0234366
0.134135
0.143577
0.102174
0.0793581
0.141939
0.157151
0.00186506
0.0064572
0.141654
0.017256
0.00489329
0.148756
0.0121838
0.00662352
0.00382696
0.0179967
0.0027639
0.131806
0.131698
0.074462
0.156527
0.133514
0.0559043
0.00603831
0.14089
0.0753541
0.0579012
0.02013
0.0271348
0.0042894
0.00816055
0.126375
0.0955673
0.0409002
0.0202566
0.0552212
0.0349133
0.0129917
0.0249971
0.00518671
0.127811
0.0169772
0.00831061
0.13372
0.00164434
0.11954
0.132835
0.0119291
0.154911
0.16949
0.0122685
0.00171123
0.0205735
0.128586
0.031006
0.116812
0.00686421
0.00964382
0.060594
0.085685
0.116458
0.0144729
0.108066
0.126637
0.197667
0.104103
0.11595
0.107286
0.0172275
0.157937
0.00782671
0.137436
0.106921
0.0324159
0.00187961
0.135853
0.0260585
0.130287
0.0150915
0.0109032
0.0284146
0.0117697
0.0225014
0.0432408
0.0412242
0.00207589
0.00371534
0.00141973
0.13936
0.103422
0.120024
0.0762409
0.00284419
0.147144
0.0823339
0.0273784
0.00247094
0.0217897
0.0267518
0.00142568
0.143944
0.00628354
0.179169
0.139713
0.00162854
0.167488
0.00325927
0.176443
0.138266
0.101453
0.0044939
0.106829
0.118142
0.00568254
0.0122876
0.100563
0.00332939
0.00209849
0.00370603
0.122494
0.00108469
0.16082
0.00702058
0.110711
0.129648
0.155616
0.132283
0.0137283
0.0281224
0.162667
0.13628
0.152667
0.00369319
0.0921189
0.00801848
0.0762062
0.122773
0.166789
0.00795602
0.00410031
0.00175914
0.00931568
0.0163915
0.00470631
0.0013286
0.134052
0.00629092
0.146814
0.00599683
0.0721703
0.0035214
0.116798
0.101538
0.0585646
0.093806
0.0160307
0.00260522
0.153386
0.0151518
0.11995
0.135047
0.00157771
0.0263954
0.10307
0.00737625
0.111105
0.134689
0.177712
0.0016452
0.109428
0.0931626
0.124151
0.099687
0.00422028
0.189183
0.00687155
0.168925
0.140805
0.0071133
0.00667452
0.0792614
0.00114632
0.0030775
0.0490144
0.00680465
0.147012
0.0545247
0.00162401
0.00291097
0.0364385
0.0407076
0.0843344
0.13669
0.111544
0.155334
0.00968662
0.0266724
0.0051135
0.0159647
0.0470614
0.00922418
0.0963992
0.0153571
0.0066459
0.00124449
0.136427
0.087008
0.132489
0.134462
0.126255
0.183857
0.109918
0.149963
0.000961378
0.0136594
0.161125
0.00624137
0.122062
0.00227161
0.135127
0.127838
0.00164312
0.00916367
0.139026
0.0498412
0.15724
0.130254
0.0319003
0.011388
0.115497
0.0011966
0.022591
0.112351
0.138743
0.084824
0.00153441
0.029952
0.133285
0.108949
0.00145522
0.0174371
0.0233246
0.00136226
0.0871241
0.132668
0.132765
0.0483053
0.00257937
0.140378
0.0143218
0.0370524
0.0236102
0.0048281
0.0947207
0.00748779
0.0119008
0.0667755
0.0265815
0.131857
0.0178143
0.0963132
0.00308016
0.0404171
0.122322
0.0012931
0.168598
0.085741
0.0462254
0.048219
0.02121
0.002992
0.173763
0.00765264
0.0037783
0.168992
0.0811324
0.0367654
0.146798
0.078503
0.0696554
0.0610906
0.143876
0.00810373
0.00687049
0.138638
0.00331925
0.0173857
0.0163171
0.00710483
0.0758602
0.00637298
0.0225632
0.134346
0.00970203
0.0120403
0.0110738
0.0959567
0.137363
0.0924983
0.00115176
0.0504351
0.142904
0.0113501
0.114372
0.134533
0.00597374
0.0232652
0.0613412
0.0280833
0.0306058
0.0024659
0.0499809
0.0622744
0.00427158
0.130273
0.132389
0.152154
0.149061
0.0543427
0.0369911
0.0261801
0.0942644
0.159082
0.10597
0.0843825
0.0421581
0.0164107
0.146777
0.00678601
0.0599072
0.00446909
0.059104
0.141592
0.00215155
0.0326509
0.00147611
0.0299644
0.0629514
0.0931688
0.132495
0.0786678
0.00158036
0.0191265
0.0472738
0.0268644
0.0850676
0.0104879
0.179091
0.115277
0.115328
0.135165
0.0044378
0.0260653
0.057529
0.00638865
0.0844811
0.151986
0.127407
0.0146218
0.136952
0.0757208
0.0442384
0.105362
0.00973379
0.122247
0.0315322
0.0637845
0.00124016
0.00142512
0.0708747
0.00239276
0.021748
0.0012323
0.0865548
0.146442
0.129319
0.0767127
0.0425552
0.113117
0.0175446
0.094554
0.0340229
0.0732882
0.00309462
0.0469392
0.0145674
0.0151954
0.130826
0.0232298
0.0311397
0.134645
0.0204914
0.159562
0.00187869
0.00879852
0.149023
0.12937
0.0888914
0.102063
0.104254
0.00509319
0.141548
0.0236365
0.113879
0.16019
0.07042
0.0980917
0.00521356
0.0924686
0.146417
0.140048
0.005369
0.0557412
0.00677404
0.138754
0.0262657
0.161209
0.102345
0.00136354
0.132926
0.0339537
0.0068215
0.0014452
0.156821
0.0841575
0.00435708
0.146807
0.0869666
0.102266
0.00302019
0.104235
0.00515253
0.049725
0.00171959
0.0599336
0.0116838
0.118894
0.163363
0.143531
0.163663
0.169
0.00214991
0.0516876
0.129162
0.0793491
0.137607
0.130774
0.00890491
0.0437362
0.00244837
0.0217122
0.00697417
0.00808053
0.0248578
0.00129939
0.0615412
0.00945496
0.0915556
0.00123429
0.136945
0.0455944
0.163148
0.134325
0.0500142
0.153639
0.139322
0.136747
0.0833547
0.0179127
0.137196
0.0523517
0.00727638
0.00451269
0.00396469
0.00695774
0.0895127
0.118206
0.109513
0.00424378
0.107785
0.00112499
0.121219
0.145024
0.15815
0.0785419
0.126833
0.149217
0.109363
0.0146779
0.130135
0.00141605
0.0831068
0.123032
0.00177232
0.0871319
0.104156
0.118219
0.00168346
0.0181198
0.156584
0.137227
0.148834
0.125684
0.00298265
0.133153
0.0274204
0.0371055
0.0615687
0.147155
0.13989
0.0247794
0.0865105
0.0276464
0.00146084
0.0949504
0.122238
0.080323
0.0920062
0.136577
0.00546515
0.0122063
0.024265
0.00148976
0.00174333
0.0883933
0.00539516
0.1402
0.00146158
0.133777
0.00790649
0.0127919
0.0178406
0.0364009
0.0107652
0.0164532
0.00273066
0.165354
0.102079
0.159317
0.0842263
0.0123993
0.0645275
0.0486396
0.01273
0.000789126
0.140967
0.01852
0.00136807
0.175298
0.123326
0.0773646
0.00264805
0.0396282
0.165212
0.0162412
0.069584
0.125198
0.0604694
0.0386532
0.0852394
0.111469
0.164477
0.143544
0.113254
0.0962197
0.00142989
0.0477719
0.0473147
0.128506
0.00140104
0.139136
0.155495
0.0377405
0.0453165
0.0273129
0.159772
0.0048648
0.11887
0.0962061
0.00860862
0.0969502
0.182869
0.00842671
0.00472225
0.00742051
0.00709382
0.139442
0.00749457
0.00189536
0.180391
0.006682
0.105786
0.0136118
0.0103261
0.111855
0.0219952
0.130572
0.0239709
0.0425617
0.0538012
0.00561535
0.0153992
0.0116488
0.00580709
0.106339
0.00527613
0.0410769
0.0773044
0.0964632
0.135338
0.15588
0.136362
0.0278336
0.00272526
0.131454
0.0502588
0.02715
0.060901
0.0583509
0.0143294
0.0060959
0.0879707
0.133304
0.0290036
0.113341
0.0481705
0.00136109
0.0499567
0.0961852
0.0234071
0.142798
0.0496539
0.00195612
0.00132091
0.0608394
0.0148165
0.0402006
0.00106771
0.0254617
0.0252373
0.00347487
0.127567
0.00794517
0.00292788
0.00431019
0.108531
0.0519647
0.145782
0.102998
0.145574
0.0667554
0.0928644
0.00286955
0.135348
0.0125573
0.142352
0.00815607
0.00446661
0.0481185
0.00673471
0.0246494
0.0909129
0.00640679
0.0529443
0.0483439
0.0907063
0.00142538
0.00950191
0.00114028
0.0264351
0.00525263
0.0131488
0.153344
0.0717594
0.0155437
0.146686
0.0883466
0.0104415
0.0662641
0.0357636
0.0337869
0.0404511
0.0427969
0.00908231
0.0109218
0.106284
0.0110828
0.051561
0.0754297
0.111347
0.133552
0.00276276
0.00521253
0.142129
0.014835
0.154482
0.0852805
0.00121543
0.0579631
0.139527
0.135002
0.0794676
0.152511
0.0476226
0.00278706
0.103127
0.01967
0.13779
0.157042
0.0069373
0.00283889
0.00552387
0.0512239
0.175232
0.139777
0.0524218
0.00715197
0.00185615
0.14828
0.0142389
0.03606
0.0100938
0.0274744
0.153697
0.0366101
0.00548032
0.0936948
0.0252321
0.150256
0.130821
0.0565255
0.00179467
0.0148166
0.143038
0.00459326
0.0107992
0.128904
0.00946459
0.12743
0.134878
0.00527888
0.10447
0.100909
0.0573277
0.00619616
0.0260138
0.0430111
0.143265
0.103208
0.140728
0.0905746
0.0182785
0.0185238
0.00113575
0.024977
0.0221229
0.0138349
0.0136346
0.131954
0.0329769
0.00719069
0.00387647
0.0025409
0.0582697
0.123184
0.00132862
0.115677
0.119495
0.0315902
0.0199273
0.0509247
0.143621
0.00326275
0.0193826
0.0535968
0.0876826
0.0115827
0.00330067
0.00137185
0.1071
0.096142
0.0507555
0.149197
0.138318
0.0148825
0.10871
0.0262358
0.0135266
0.0463974
0.00288501
0.117021
0.0642605
0.0443652
0.14867
0.00355303
0.112875
0.142726
0.0131154
0.00760978
0.0128856
0.00409022
0.105594
0.014352
0.122955
0.127663
0.0834419
0.16346
0.0527819
0.0038358
0.0482121
0.0125821
0.0972243
0.134881
0.0689713
0.150594
0.136225
0.00143805
0.157606
0.0466621
0.00707665
0.15139
0.00941291
0.010541
0.0138715
0.0739864
0.115619
0.121622
0.135917
0.151042
0.0477603
0.109485
0.130096
0.139802
0.126356
0.0373029
0.0985166
0.0029399
0.0124576
0.141296
0.115506
0.126608
0.0129588
0.133413
0.0245808
0.103809
0.154493
0.131741
0.0114922
0.0586635
0.00362243
0.128425
0.156945
0.0276833
0.15922
0.148114
0.00178487
0.0813972
0.133162
0.0141158
0.00990312
0.00102659
0.155057
0.0226928
0.0145873
0.132369
0.144807
0.00433507
0.0963759
0.180723
0.0117498
0.126905
0.00182412
0.157839
0.115818
0.081149
0.131207
0.0023828
0.133955
0.146691
0.00751415
0.0886035
0.130914
0.14784
0.125564
0.00991607
0.0600189
0.0940157
0.151409
0.0179612
0.0861803
0.148414
0.146523
0.0448136
0.13038
0.0235352
0.103091
0.136256
0.0580365
0.158463
0.0523666
0.0756696
0.0357688
0.133717
0.00650664
0.0901161
0.0346968
0.141438
0.0435075
0.106931
0.157523
0.0246814
0.065333
0.0212851
0.0105549
0.128372
0.00151517
0.00293233
0.00632815
0.00234187
0.0924802
0.079341
0.0213692
0.00839658
0.119707
0.00135511
0.140498
0.00471284
0.0834876
0.0198249
0.00663112
0.0314231
0.0144334
0.141315
0.00954772
0.120772
0.124868
0.0181329
0.00191704
0.00160336
0.0479381
0.0879465
0.0178864
0.141774
0.00689153
0.152383
0.0411209
0.146163
0.121154
0.00142841
0.119696
0.0132748
0.0736621
0.0207683
0.0115041
0.0752771
0.138022
0.00281016
0.128467
0.0918082
0.0464196
0.137032
0.00693541
0.0635042
0.0175826
0.00147676
0.0933968
0.0228592
0.0661972
0.117608
0.0136009
0.126398
0.141016
0.0133444
0.12584
0.134916
0.0276317
0.0750253
0.00560051
0.0481713
0.138125
0.115171
0.152922
0.129332
0.114304
0.00777293
0.0803185
0.101308
0.128536
0.111498
0.0864885
0.0696853
0.00270216
0.140166
0.0248239
0.0485086
0.127939
0.00342505
0.0786712
0.144202
0.00146389
0.00618183
0.00178855
0.123356
0.00221072
0.0267347
0.0833911
0.00142167
0.0804893
0.0645808
0.0051791
0.056039
0.0364956
0.001466
0.040633
0.00844403
0.0739902
0.00279809
0.0920771
0.114007
0.109073
0.00143805
0.0879335
0.148079
0.0889269
0.0794934
0.13053
0.117658
0.0149583
0.0294327
0.103798
0.0346533
0.00140267
0.0494907
0.0105619
0.0107353
0.138185
0.00716564
0.0254405
0.0611651
0.00371599
0.158396
0.0075905
0.00120204
0.130069
0.00125217
0.120026
0.00238707
0.00711193
0.0381987
0.0726519
0.113277
0.0822996
0.104147
0.0341951
0.140485
0.0766683
0.00153291
0.0142229
0.00303128
0.106172
0.0201029
0.00178308
0.107934
0.0848444
0.00271261
0.100558
0.104964
0.00404712
0.00857234
0.0113603
0.0839522
0.00366127
0.0266724
0.0622942
0.00180996
0.00452674
0.108035
0.147946
0.00599879
0.0130645
0.013505
0.0754139
0.0188074
0.0144195
0.0246802
0.0797216
0.132654
0.0357978
0.00147087
0.0318127
0.101269
0.0963684
0.0481209
0.131192
0.00166995
0.0212959
0.119228
0.0103571
0.13622
0.146148
0.0153798
0.0113093
0.0878686
0.00249618
0.105973
0.00177823
0.133359
0.00144511
0.00336994
0.00422297
0.154267
0.0290169
0.0371113
0.0293835
0.0116763
0.00748771
0.00197593
0.025339
0.145758
0.0272142
0.130613
0.00593749
0.00134127
0.162899
0.15008
0.0447014
0.0105672
0.0285993
0.156026
0.0179143
0.0110462
0.139081
0.133914
0.0471434
0.00162373
0.0672892
0.131915
0.00257612
0.0178601
0.0415905
0.00446528
0.110625
0.0329865
0.00257401
0.15302
0.0235397
0.0146034
0.00805552
0.00812106
0.00244733
0.0712445
0.0536952
0.026087
0.121298
0.00446693
0.0103518
0.0143402
0.0058224
0.0168164
0.0830399
0.00862322
0.00268688
0.0246654
0.00523443
0.132074
0.0544936
0.0726766
0.124851
0.00355261
0.0251308
0.152972
0.0390647
0.00390206
0.114935
0.104618
0.00195624
0.125413
0.0731788
0.151512
0.0582888
0.00990102
0.0709786
0.0050734
0.0130082
0.0109504
0.0570772
0.0134309
0.0693736
0.0499448
0.0368223
0.0834597
0.0588226
0.153757
0.137782
0.00170345
0.00538923
0.0353298
0.00545095
0.104349
0.0693616
0.0390169
0.135341
0.133526
0.0177705
0.0233443
0.00152679
0.0131219
0.00706355
0.0735971
0.00830026
0.099013
0.00289246
0.147093
0.00399041
0.00778492
0.139427
0.0111628
0.00129798
0.0429469
0.122389
0.135835
0.0269945
0.00670112
0.137932
0.0483271
0.129038
0.159734
0.00315752
0.126812
0.0239334
0.12278
0.181655
0.00431362
0.0155089
0.0612653
0.00474151
0.0491885
0.00197716
0.0555116
0.140601
0.0488674
0.00136273
0.0724902
0.00847818
0.0441175
0.00267704
0.11191
0.10373
0.0578049
0.00378474
0.103809
0.139819
0.145564
0.00428793
0.00152308
0.0105275
0.106197
0.0561851
0.119333
0.00138545
0.139445
0.00367008
0.00761544
0.107213
0.00914297
0.0479527
0.153187
0.0331675
0.114496
0.0228541
0.0261448
0.0152605
0.0574293
0.0669776
0.112056
0.00178932
0.142215
0.171821
0.00247923
0.0490092
0.107618
0.0232639
0.128271
0.138429
0.101796
0.0279823
0.0300477
0.152471
0.154159
0.027723
0.0506809
0.0100757
0.0159319
0.134685
0.156823
0.154356
0.0745616
0.0541217
0.00892302
0.00141705
0.0027339
0.120462
0.136201
0.0278912
0.00317666
0.0854676
0.133528
0.0024481
0.00304482
0.123882
0.0335061
0.047746
0.0873434
0.00168893
0.113725
0.124814
0.0159392
0.00508674
0.0600116
0.0299246
0.0530436
0.0042457
0.00376424
0.136171
0.00399109
0.0610891
0.104142
0.00597085
0.00819776
0.0268138
0.0551631
0.0259279
0.063206
0.137442
0.0384037
0.0658696
0.0419846
0.0271115
0.134935
0.022063
0.00340244
0.0107857
0.140229
0.0116498
0.00845022
0.0142802
0.134533
0.0560199
0.149837
0.00302809
0.0471658
0.108861
0.00919627
0.00497027
0.157332
0.00130313
0.025507
0.081766
0.0104115
0.100669
0.10099
0.131698
0.151944
0.100373
0.120931
0.00215891
0.153039
0.131616
0.00721113
0.0221792
0.0580869
0.00442655
0.0759834
0.104079
0.0432368
0.0490773
0.146853
0.156446
0.00331826
0.0540126
0.0538495
0.112843
0.0681547
0.00294087
0.00911262
0.00276602
0.149509
0.0421681
0.0806252
0.0834164
0.134441
0.13382
0.00382211
0.00687881
0.0313287
0.111376
0.103506
0.00806468
0.0501701
0.0681429
0.076896
0.0014255
0.0193042
0.00102404
0.085295
0.153999
0.0653072
0.104701
0.0863665
0.0101476
0.115705
0.00716511
0.00169678
0.0257726
0.00126324
0.0991431
0.159999
0.0145393
0.132953
0.0110987
0.154503
0.133808
0.152711
0.0027055
0.15228
0.0468277
0.0869554
0.00741835
0.0358974
0.0379921
0.00758206
0.00227111
0.117541
0.150544
0.131561
0.00267848
0.077532
0.0733131
0.0550088
0.140653
0.00933247
0.126103
0.1475
0.0380251
0.0724363
0.0120776
0.00166811
0.00176848
0.0222243
0.170253
0.0173705
0.0358861
0.0135211
0.12723
0.00442719
0.00567845
0.0682575
0.0816119
0.155496
0.0138401
0.0700159
0.00310934
0.00640871
0.0231893
0.00338918
0.00619006
0.00496295
0.00237886
0.0960538
0.00273723
0.0414958
0.00144228
0.00330425
0.00274937
0.00220377
0.145983
0.0137916
0.131338
0.101579
0.00118055
0.0768913
0.0744579
0.0163219
0.0437986
0.0144558
0.0030924
0.00275576
0.00530015
0.0225101
0.0259792
0.048828
0.102465
0.0619522
0.010743
0.00637919
0.00799467
0.0188534
0.156243
0.138214
0.0969346
0.00348109
0.0523934
0.0805544
0.0271843
0.020439
0.0142916
0.0284825
0.0596929
0.00291862
0.0228702
0.0135965
0.083252
0.0165107
0.0103567
0.126341
0.0294862
0.137699
0.00630408
0.0154654
0.110441
0.0139925
0.00171404
0.131774
0.0363413
0.141613
0.00507085
0.066973
0.115644
0.154462
0.0117589
0.00395974
0.159366
0.00701001
0.00331688
0.140477
0.052344
0.013192
0.00135461
0.0215535
0.00133608
0.0676263
0.12447
0.0963739
0.00214648
0.0131054
0.135296
0.00172124
0.0794738
0.0501964
0.0268888
0.00300016
0.0496252
0.00955897
0.0227582
0.0355334
0.00339855
0.11162
0.108309
0.0718827
0.0129691
0.0869355
0.0498108
0.154368
0.131688
0.00261734
0.0443001
0.0014195
0.154569
0.00161522
0.0013564
0.0720841
0.0533264
0.0212242
0.0246871
0.00368169
0.0104374
0.00172107
0.00307814
0.0265102
0.110776
0.00273753
0.00138517
0.0687847
0.00341625
0.0748229
0.106541
0.0739362
0.0577116
0.146001
0.0132823
0.00130217
0.0449914
0.15366
0.0032102
0.00269135
0.00740448
0.00225486
0.065
0.00205707
0.00773812
0.00555227
0.146928
0.103268
0.00745126
0.00132286
0.0901419
0.0043992
0.00183768
0.0954334
0.0646486
0.12514
0.0175138
0.0676146
0.0104216
0.00263701
0.141347
0.0932858
0.138234
0.0430322
0.00491052
0.0020025
0.0340421
0.00258892
0.0115712
0.0933248
0.155183
0.0155651
0.152015
0.00324246
0.00300958
0.00811711
0.0107204
0.00155791
0.105169
0.00278645
0.00150838
0.00984178
0.00261032
0.155597
0.0504128
0.0374772
0.0266544
0.00246659
0.0107506
0.0514154
0.022747
0.138044
0.00146403
0.108433
0.151437
0.0017932
0.00192377
0.058776
0.0283859
0.0110789
0.110794
0.10564
0.0109639
0.110763
0.00284037
0.158207
0.00236477
0.115556
0.0202081
0.00537021
0.111673
0.147404
0.0121352
0.0106005
0.101374
0.0498615
0.00851659
0.00365622
0.00215651
0.00718918
0.0290254
0.154467
0.139535
0.0171212
0.1213
0.045155
0.136349
0.152171
0.00145676
0.0268508
0.00975051
0.0234547
0.086582
0.129733
0.118352
0.0430124
0.0361436
0.00639894
0.0239522
0.00722374
0.000879585
0.0214282
0.00798744
0.0058944
0.00220722
0.00659332
0.154923
0.0205266
0.0169572
0.02768
0.00716335
0.139245
0.0434821
0.0067159
0.00144499
0.0274189
0.00585928
0.00755095
0.00556003
0.00527076
0.0328104
0.00485074
0.00453383
0.004277
0.00406381
0.00474272
0.00694235
0.0905961
0.128948
0.014613
0.00581107
0.111767
0.00727091
0.00215038
0.0106531
0.0018078
0.153799
0.132697
0.122035
0.00294683
0.0375394
0.0527056
0.00594148
0.00633216
0.0545334
0.0776278
0.0454502
0.023549
0.00192052
0.155313
0.0233462
0.00457168
0.00149702
0.00606899
0.00198676
0.00867986
0.130845
0.00206497
0.125422
0.0020945
0.00147213
0.0509827
0.0150776
0.0121106
0.062473
0.130664
0.0253783
0.0411101
0.139571
0.130337
0.00804099
0.00308182
0.0123385
0.060277
0.00345467
0.00781022
0.00179364
0.0015739
0.0655304
0.104151
0.0412883
0.173953
0.00195095
0.0529694
0.00297948
0.00626589
0.0033406
0.108054
0.142709
0.141757
0.00144615
0.137303
0.00228587
0.122804
0.00214449
0.0377552
0.0600959
0.0837075
0.143023
0.00588639
0.113066
0.145895
0.0547285
0.0358509
0.00355144
0.00132504
0.0108417
0.00165941
0.177219
0.147093
0.0219663
0.0127587
0.00197053
0.00587694
0.013039
0.00348795
0.00528404
0.00321347
0.170888
0.132885
0.139378
0.143841
0.00437436
0.0424192
0.124672
0.0250813
0.00415139
0.113519
0.105027
0.0305153
0.00139901
0.105874
0.0351781
0.151334
0.00155098
0.120157
0.0720592
0.00461594
0.0057498
0.00349442
0.151217
0.0124005
0.010704
0.00392932
0.00308686
0.112918
0.00446103
0.0719026
0.107221
0.0177857
0.0538252
0.0113636
0.0779106
0.0137205
0.0148126
0.00769657
0.00142871
0.00234329
0.00232819
0.128408
0.0111893
0.107124
0.00434112
0.110973
0.0118062
0.0677927
0.0122166
0.153147
0.113159
0.157074
0.0241895
0.00149801
0.00423973
0.0641012
0.0271475
0.00506405
0.153744
0.105451
0.00244945
0.0188973
0.011227
0.0034868
0.12972
0.00130238
0.153726
0.00282875
0.00170149
0.0526889
0.0235128
0.01629
0.00554029
0.00608801
0.0021518
0.049468
0.042307
0.0032885
0.0513535
0.00721405
0.0326623
0.00508169
0.011371
0.00290376
0.0177033
0.0387438
0.0391059
0.00154911
0.0107201
0.00333158
0.00113833
0.106076
0.151885
0.00150277
0.00215649
0.0943885
0.0449757
0.0218533
0.0579192
0.00270641
0.041797
0.00145239
0.0292471
0.00143521
0.0111139
0.0611516
0.0439359
0.0072771
0.00548401
0.15683
0.00585362
0.152996
0.0232116
0.0635772
0.154759
0.0992703
0.0772814
0.00204255
0.00270846
0.147964
0.0024211
0.0441379
0.097966
0.0913766
0.12557
0.0523264
0.00312061
0.0018071
0.139599
0.0260402
0.00741176
0.00875344
0.00399218
0.00607809
0.0278508
0.0161257
0.119725
0.155619
0.0461291
0.00195396
0.141872
0.0025334
0.00342273
0.0106532
0.00279189
0.00140843
0.132638
0.00141936
0.0117942
0.00841368
0.0710986
0.110798
0.0873696
0.00374814
0.0664435
0.0701776
0.119962
0.00242617
0.00428361
0.0078834
0.00383465
0.00387978
0.00231947
0.0753749
0.0971657
0.00750869
0.0403712
0.0553316
0.0528485
0.0287409
0.112112
0.108076
0.0428159
0.0271076
0.0378765
0.0343288
0.148138
0.0612265
0.0049137
0.0370819
0.00225719
0.0387808
0.0993522
0.0056586
0.00955665
0.125837
0.112652
0.0267732
0.0284065
0.00139751
0.0267789
0.0100341
0.0961653
0.105256
0.0253768
0.00202797
0.00724363
0.0360533
0.14906
0.00174835
0.0619021
0.109557
0.0066517
0.0196025
0.00787406
0.00148773
0.00645826
0.0262492
0.0250209
0.00140585
0.0919988
0.0607599
0.0137262
0.153397
0.00772812
0.00948407
0.00529207
0.0320403
0.0634674
0.0187929
0.00356816
0.00717761
0.0647751
0.00546208
0.00535739
0.0103131
0.0579309
0.0603658
0.00846422
0.0110073
0.00279976
0.112389
0.0628334
0.00929023
0.0554972
0.00906567
0.00734354
0.0671045
0.00887463
0.153484
0.0099504
0.0558155
0.0706603
0.0988184
0.116319
0.00205287
0.00354962
0.0467951
0.0248866
0.00502046
0.0587885
0.101612
0.0145957
0.00217932
0.00751732
0.0015256
0.0152017
0.0140047
0.00326358
0.00471307
0.0143281
0.0971985
0.00567276
0.0952053
0.0674775
0.00523235
0.00440259
0.0465038
0.0272136
0.020266
0.0292904
0.0278695
0.00417342
0.114556
0.00153043
0.0229656
0.135605
0.13464
0.135344
0.0461051
0.0447142
0.128312
0.0239428
0.066865
0.0488055
0.152737
0.00643613
0.0431653
0.0106585
0.027109
0.155738
0.133106
0.00960043
0.0947643
0.0030817
0.0688084
0.0707493
0.0137196
0.0110331
0.0618186
0.0638778
0.011475
0.026531
0.012625
0.0108025
0.104969
0.00211891
0.02544
0.043456
0.0182419
0.00192071
0.133492
0.0114741
0.145925
0.0242784
0.107928
0.0333762
0.0915627
0.0689485
0.0898027
0.0108316
0.00126915
0.0124925
0.071255
0.0281395
0.00142379
0.0327424
0.00381048
0.00580558
0.0759552
0.0137718
0.0733008
0.00368836
0.0276953
0.0281443
0.00136871
0.136686
0.0432409
0.0581554
0.0136387
0.0425232
0.00701006
0.00180419
0.0764
0.0887448
0.0635755
0.0018489
0.0497233
0.0389618
0.0099878
0.00158114
0.116178
0.0226382
0.00829794
0.0142644
0.146491
0.0128845
0.140497
0.0354442
0.111669
0.0503205
0.00493133
0.00696985
0.113259
0.0453076
0.00480603
0.0714621
0.0558945
0.0195813
0.055412
0.0776431
0.0247493
0.0525347
0.0532439
0.112491
0.00770139
0.00490979
0.00392552
0.115008
0.00792183
0.0013991
0.00102478
0.153474
0.0738038
0.0198184
0.00631122
0.0530451
0.113249
0.0908115
0.134955
0.0540588
0.0187571
0.144276
0.00752778
0.0373139
0.125967
0.0471234
0.00775962
0.0132057
0.00479506
0.0446761
0.0296011
0.0013756
0.0431725
0.0222651
0.00132579
0.00143835
0.00521853
0.00841566
0.00371223
0.105215
0.14158
0.0472674
0.00335877
0.101588
0.119203
0.00274804
0.135636
0.15261
0.00791153
0.0445719
0.00120862
0.016444
0.0152735
0.0362313
0.0136485
0.0442616
0.0257909
0.0373043
0.127893
0.0233724
0.0014325
0.0797714
0.0972583
0.0223572
0.00142786
0.0457344
0.0458903
0.00188973
0.136252
0.0353694
0.00788024
0.133825
0.00189861
0.0237093
0.0515952
0.0150857
0.00688326
0.00329095
0.0265964
0.0115601
0.0138458
0.00955869
0.00826297
0.0742646
0.0142424
0.0061069
0.0424279
0.0100156
0.0511429
0.0284604
0.00167515
0.136439
0.0104052
0.00988196
0.0828375
0.0147639
0.0222583
0.0382709
0.0248009
0.00561363
0.0375526
0.0145003
0.0463942
0.00791092
0.105701
0.00142218
0.0122307
0.12162
0.0469828
0.117043
0.136729
0.133581
0.0784141
0.0731001
0.0227869
0.0242123
0.0594818
0.148227
0.149088
0.147189
0.0077278
0.137443
0.0622333
0.0399513
0.0400562
0.0185373
0.102321
0.0289776
0.0256687
0.0364092
0.0496398
0.0607901
0.00486511
0.0813778
0.011636
0.022044
0.00556158
0.0182621
0.0817042
0.00803052
0.0136785
0.00140194
0.00173702
0.0233887
0.0504986
0.0259623
0.0152276
0.00977646
0.152839
0.121802
0.012184
0.15323
0.0404582
0.0548328
0.0406022
0.0475911
0.0108718
0.0387755
0.0509719
0.11479
0.158249
0.00457742
0.0359783
0.0886676
0.00593495
0.00770397
0.105491
0.0187851
0.103174
0.0609077
0.0770029
0.0447778
0.0749373
0.10365
0.0862178
0.0732239
0.00383287
0.128073
0.105425
0.081693
0.043646
0.00378539
0.00178207
0.0422045
0.0377063
0.00138651
0.0777818
0.100717
0.087849
0.0153262
0.138624
0.0633816
0.0668543
0.00955257
0.0810157
0.0210428
0.0632593
0.0362396
0.00148992
0.101308
0.0415046
0.0100639
0.0196895
0.0184527
0.118443
0.0552123
0.0222287
0.0283848
0.0274141
0.0376851
0.0123823
0.00781803
0.139113
0.00892688
0.0533366
0.131346
0.045941
0.00218221
0.104515
0.135533
0.0285366
0.0674189
0.0420488
0.101878
0.048245
0.0271548
0.0558076
0.0391438
0.0175971
0.0369878
0.152614
0.00314993
0.00323943
0.0736493
0.09965
0.00623679
0.140639
0.0514867
0.0690595
0.00740072
0.167778
0.145547
0.0206788
0.041061
0.00271262
0.0631082
0.149077
0.0267687
0.13608
0.00175788
0.0662521
0.0418362
0.0461481
0.0136928
0.00935555
0.0257091
0.0527967
0.00966949
0.074587
0.138612
0.0300627
0.0467964
0.025617
0.0980697
0.0630652
0.0440427
0.0816361
0.0128391
0.00813383
0.00212828
0.0785033
0.0439067
0.126885
0.00298406
0.00197785
0.0677792
0.0777383
0.0261568
0.0231012
0.00677101
0.0669188
0.0233736
0.0217789
0.014164
0.146413
0.00820256
0.0111985
0.0484535
0.0480503
0.0590534
0.0133607
0.0519928
0.151274
0.0231435
0.012692
0.153645
0.0466735
0.00987206
0.152084
0.0732521
0.0561307