/*--------------------------------*- C++ -*----------------------------------*\
| =========                 |                                                 |
| \\      /  F ield         | OpenFOAM: The Open Source CFD Toolbox           |
|  \\    /   O peration     | Version:  v2012                                 |
|   \\  /    A nd           | Website:  www.openfoam.com                      |
|    \\/     M anipulation  |                                                 |
\*---------------------------------------------------------------------------*/
FoamFile
{
    version     2.0;
    format      ascii;
    class       volScalarField;
    location    "950";
    object      k;
}
// * * * * * * * * * * * * * * * * * * * * * * * * * * * * * * * * * * * * * //

dimensions      [0 2 -2 0 0 0 0];


internalField   nonuniform List<scalar> 
13851
(
0.000155524
0.0190042
0.000188242
0.000154524
0.000190024
0.000229134
0.000147186
0.000178328
0.000139795
0.000193432
0.00230335
0.0257991
0.0158133
0.01374
0.000144153
0.000169814
0.000158047
0.000162894
0.00232856
0.000139646
0.00015403
0.000187935
0.000144162
0.000150986
0.000145345
0.000178984
0.000156226
0.00223577
0.000155096
0.000156977
0.00139372
0.000158687
0.000187528
0.00329029
0.00015111
0.000210442
0.00134648
0.000162149
0.000195103
0.00304295
0.000145974
0.000132299
0.00611656
0.00267128
0.00245616
0.0184684
0.00298525
0.00108945
0.00015668
0.000796972
0.000187773
0.000200414
0.0101299
0.000146098
0.000154271
0.000132394
0.000143872
0.0136646
0.000156467
0.000147972
0.000108266
0.0289998
0.000187047
0.000193358
0.000498404
0.000159401
0.00592265
0.0035927
0.000168604
0.0001627
0.0158926
0.0176787
0.016967
0.000147
0.000141468
0.00014275
0.000187396
0.0175288
0.000178536
0.0182144
0.000149685
0.00286295
0.000144304
0.0130867
0.000189955
0.0250435
0.000215343
0.0106924
0.000158689
0.000141614
0.000210555
0.00017709
0.00377305
0.000162084
0.000158295
0.000148606
0.000190626
0.0301392
0.00126764
0.000148598
0.0156631
0.000179936
0.000151662
0.00015524
0.000142995
0.000251558
0.000182145
0.000131334
0.03136
0.000323052
0.00015062
0.000142002
0.000173826
0.000152929
0.000150653
0.00783819
0.0310358
0.000131484
0.000156386
0.000157957
0.00640262
0.000155043
0.0182944
0.00702122
0.000598939
0.000146465
0.00189041
0.000179306
0.000153367
0.000200839
0.000145699
0.000139294
0.0193054
0.000144232
0.00654879
0.000141051
0.000131576
0.0161117
0.0289124
0.0315362
0.0163028
0.000154001
0.000150849
0.000135845
0.000154645
0.0030497
0.000282992
0.000200379
0.000146964
0.00238921
0.000187527
0.00015438
0.0134204
0.00014438
0.00015342
0.000154465
0.000143217
0.000154472
0.000200378
0.000187502
0.00013341
0.000161673
0.0130675
0.000139167
0.00016347
0.000134061
0.000250204
0.000168995
0.000152954
0.0214779
0.0151832
0.000136693
0.000143413
0.0311387
0.000139016
0.000658858
0.000178549
0.000150559
0.00259177
0.000131626
0.000160052
0.0203748
0.00014407
0.000188999
0.000132884
0.000145382
0.000159929
0.000148862
0.000192524
0.000199429
0.00327348
0.0114734
0.000142944
0.000168901
0.0295275
0.000153017
0.000150068
0.004374
0.000150006
0.000143
0.000147476
0.0215104
0.000163586
0.000143726
0.000190981
0.000144222
0.0346748
0.000158248
0.0303236
0.00013216
0.0407143
0.000151273
0.00402465
0.000131168
0.000135124
0.00156911
0.000186774
0.0202971
0.000143509
0.0315762
0.000158575
0.000149893
0.0346206
0.000199925
0.0434979
0.00014587
0.000164586
0.000144367
0.0145543
0.000131244
0.000178114
0.00434679
0.000136605
0.000142541
0.000185314
0.000178808
0.0361106
0.000563057
0.000135709
0.000143859
0.00101228
0.00218792
0.000136346
0.000192828
0.000140971
0.0407001
0.000180471
0.00251344
0.00015476
0.000160021
0.000166536
0.00208829
0.000150134
0.000154925
0.000180123
0.000280293
0.000197423
0.0181527
0.00558204
0.00014443
0.000135259
0.000161624
0.0158904
0.000138691
0.0100753
0.000152994
0.000149964
0.000161391
0.0336354
0.000234431
0.000165936
0.000153439
0.0115658
0.000177138
0.00016902
0.000139422
0.00276165
0.000391227
0.0467961
0.00222159
0.000136515
0.000131753
0.000142665
0.000179149
0.0145807
0.00108686
0.000141271
0.000144181
0.0126178
0.00290739
0.000209104
0.000155788
0.000148107
0.000170885
0.00297563
0.00818769
0.000162519
0.0247285
0.000139689
0.0412015
0.000161138
0.000157866
0.0459096
0.000148768
0.000277671
0.0374543
0.00014097
0.000175609
0.00016228
0.000155267
0.0300348
0.000162826
0.000149884
0.0335379
0.000132782
0.000160457
0.000155349
0.046529
0.00019712
0.000143543
0.000180466
0.000143769
0.0125598
0.000178088
0.000144182
0.000146107
0.000196725
0.000163746
0.000153105
0.000144185
0.000148615
0.000149704
0.00236873
0.0158814
0.0239898
0.000166797
0.0456167
0.0284914
0.000143766
0.000169562
0.000209346
0.000185432
0.000192567
0.000197303
0.00210725
0.000159548
0.00731815
0.0390764
0.000144407
0.00188183
0.00180651
0.00456477
0.000153074
0.000201127
0.0149025
0.000143815
0.00758048
0.000146047
0.00014382
0.000139425
0.000131366
0.000142259
0.0396662
0.00384567
0.00014539
0.0001745
0.000133396
0.0249957
0.000175916
0.00185245
0.02312
0.000145662
0.000191636
0.000162533
0.00151077
0.000144806
0.000131602
0.000168949
0.0158843
0.000145027
0.0311731
0.000184871
0.000198275
0.0178573
0.00368234
0.0038168
0.000158102
0.000139753
0.000150554
0.000165391
0.000180152
0.0140861
0.000168895
0.0437116
0.0381086
0.00013351
0.000144541
0.0224584
0.0207886
0.00261492
0.0317665
0.000175896
0.000163398
0.000148178
0.0253948
0.000138028
0.000169075
0.000156373
0.00014649
0.000143746
0.000140644
0.000133937
0.000192724
0.000186856
0.0169112
0.000163468
0.000181733
0.000177002
0.00167372
0.00016168
0.00728816
0.00015733
0.00171699
0.000131478
0.000140376
0.000146951
0.000662189
0.00278647
0.000199017
0.000174211
0.0133053
0.00380538
0.000207741
0.000160678
0.000185692
0.000144497
0.00144486
0.000142694
0.0164518
0.0017841
0.000186763
0.027427
0.000150923
0.00097575
0.00199875
0.016459
0.00013156
0.000165083
0.000179146
0.000267607
0.000137434
0.000149801
0.000186331
0.00019823
0.000167436
0.0256872
0.000145905
0.000146661
0.0101385
0.00016446
0.000131536
0.0207438
0.000139673
0.000155421
0.000138265
0.000177852
0.000153381
0.000131899
0.000150437
0.0328556
0.000144468
0.000170844
0.00014028
0.000163473
0.00143373
0.000153921
0.000145889
0.000153129
0.000152897
0.00152301
0.000149818
0.000223014
0.000143992
0.000146666
0.0166253
0.0258433
0.000144523
0.000165318
0.000161843
0.00304206
0.0150071
0.000146735
0.00405676
0.000145083
0.000189776
0.000147165
0.0159805
0.000132871
0.00984649
0.00019908
0.000132418
0.000165521
0.0254757
0.000179025
0.00290116
0.000156245
0.00431579
0.000157721
0.000138598
0.000139615
0.000146329
0.0252939
0.000185653
0.000199224
0.00154546
0.000183433
0.000133814
0.0253359
0.00301924
0.000160232
0.00016201
0.00287532
0.00691648
0.0395469
0.000153022
0.0164548
0.0155611
0.0242187
0.000163898
0.000167093
0.00789203
0.000819618
0.000278173
0.00367907
0.0229076
0.000154929
0.0238944
0.0205366
0.000131689
0.000330276
0.000186128
0.0210626
0.00015521
0.000143045
0.000142866
0.000144663
0.000192237
0.000175904
0.00811846
0.0257821
0.000140043
0.00903618
0.0261208
0.000732184
0.00238165
0.000170344
0.000131126
0.000140078
0.00232868
0.0275001
0.000153656
0.000191654
0.000210226
0.000132281
0.000191968
0.00838078
0.000205436
0.000197409
0.0266555
0.0210261
0.000145401
0.000146621
0.0292957
0.0374895
0.000198293
0.000168673
0.000194931
0.000131553
0.000142381
0.0183807
0.000132022
0.000155038
0.000131513
0.000139647
0.0221342
0.000192388
0.000169745
0.000131937
0.033821
0.00487618
0.000139887
0.00014182
0.000139035
0.000149717
0.0162186
0.00292506
0.00347366
0.0276118
0.00303893
0.00016708
0.0170738
0.0275369
0.000160932
0.000169095
0.000131101
0.000152972
0.000170886
0.0309772
0.0100799
0.000191266
0.000163964
0.00013914
0.000169671
0.000150479
0.00301608
0.000187959
0.000143856
0.000167117
0.000137417
0.000160957
0.000199749
0.000147594
0.000144223
0.000175849
0.000147774
0.000190333
0.000407657
0.000198668
0.00017033
0.00019903
0.000138947
0.00056631
0.000171433
0.0281743
0.000150963
0.0001492
0.028176
0.000155703
0.0163749
0.0391437
0.0182374
0.0249594
0.000137964
0.021368
0.00013762
0.000139643
0.000132864
0.000139726
0.000149882
0.000164445
0.000175795
0.000131722
0.0291569
0.000201209
0.0302382
0.000142094
0.000134325
0.000141342
0.00020884
0.0311116
0.000180394
0.000161355
0.000137668
0.000147289
0.000146609
0.00014405
6.85074e-05
0.0282404
0.000147466
0.000131619
0.000146465
0.000143919
0.00607686
0.0119367
0.000170165
0.0284753
0.00571677
0.00014395
0.000199017
0.0160377
0.000170371
0.025746
0.000149642
0.000161834
0.000179998
0.00016238
0.0041029
0.000144363
0.00798409
0.000143373
0.000164611
0.030331
0.000143546
0.000154219
0.000192812
0.000138732
0.000159213
0.0163603
0.026625
0.000187454
0.00669702
0.00394137
0.000131301
0.00014179
0.0186285
0.000207851
0.000181845
0.0394817
0.000139024
0.000166206
0.000131792
0.00241816
0.00612942
0.000160055
0.000149971
0.00106877
0.000156667
0.000141041
0.00778774
0.000311352
0.0300997
0.000132636
0.000147299
0.0175223
0.00711199
0.000203654
0.000149628
0.0327437
0.000144346
0.00128752
0.000197936
0.000187561
0.000158606
0.018208
0.000161455
0.000152041
0.00110536
0.000148682
0.00016357
0.00015384
0.000138744
0.00864039
0.00016801
0.000197477
0.000168562
0.000435487
0.000139388
0.016877
0.000154686
0.000160977
0.000134877
0.00014346
0.000145195
0.0368094
0.000142548
0.000131877
0.00033134
0.00014691
0.021544
0.000144067
0.000150589
0.000186727
0.00860653
0.0035482
0.000141652
0.00478438
0.0293891
0.000149981
0.0374504
0.000164279
0.000138418
0.000197658
0.00670674
0.00301808
0.000160454
0.000141143
0.000131434
0.00225386
0.000189245
0.000190297
0.000161801
0.000198455
0.000150612
0.000150089
0.000191226
0.00537393
0.000191971
0.0104007
0.000147013
0.000190246
0.000190812
0.0463788
0.000159762
0.0298823
0.000844036
0.000147033
0.0127774
0.000331591
0.0299875
0.0247038
0.0335365
0.00429045
0.000175983
0.00013858
0.000165153
0.0146048
0.0117495
0.000145542
0.000146771
0.000186055
0.00348216
0.000132468
0.00947715
0.000138734
0.000145275
0.00995802
0.0174077
0.00411297
0.000139613
0.000143934
0.00839057
9.48245e-05
0.000197063
0.000155402
0.0262448
0.000440193
0.0308364
0.000181811
0.000173985
0.00014994
0.000146979
0.0148741
0.000178616
0.0196671
0.000182006
0.000168482
0.008617
0.0295294
0.0233936
0.000145118
0.000165462
0.000139774
0.000170897
0.000154001
0.0269784
0.000166745
0.0364148
0.000132365
0.000186309
0.000143004
0.000165544
0.00016769
0.000165046
0.0288914
0.000175637
0.000179876
0.000151437
0.000186404
0.000732528
0.000204164
0.000155302
0.0155024
0.000138238
0.0233921
0.00454426
0.00014848
0.041427
0.015639
0.0232023
0.00358494
0.00018115
0.000145361
0.0287676
0.000167705
0.00881651
0.0307828
0.000142053
0.000152547
0.000595296
0.00497004
0.0293955
0.000147298
0.00014126
0.0201099
0.0302121
0.000197498
0.00015964
0.000153444
0.00462154
0.0132664
0.000191641
0.000131927
0.000176298
0.000138813
0.000160234
0.00257126
0.000148561
0.0184462
0.0010086
0.000145514
0.00015133
0.000145607
0.00015399
0.0170844
0.0247929
0.000164558
0.0301775
0.000142903
0.000164682
0.000144991
0.000138931
0.000148124
0.000145332
0.0232151
0.0001446
0.000180121
0.000145264
0.000160681
0.00325557
0.00644379
0.000156472
0.0298442
0.000191789
0.00203195
0.000168613
0.000168697
0.0171579
0.000160918
0.000176573
0.0266992
0.0153002
0.0113665
0.000174647
0.00232098
0.000150496
0.000174306
0.000180387
0.0294043
0.00014523
0.0329119
0.000141565
0.000142326
0.016214
0.000146192
0.00874844
0.000159124
0.000139747
0.000184345
0.000139821
0.000143971
0.000139917
0.000149358
7.69842e-05
0.000142272
8.6291e-05
0.0131493
0.000188436
0.0281355
0.000146692
0.000154785
0.000163486
0.000144911
0.000139553
0.000189422
0.000149553
0.000141949
0.000150231
0.000145818
0.0215428
0.0286113
0.000198197
0.0317849
0.000119573
0.000142374
0.00941946
0.000163706
0.00014203
0.00347849
0.000285117
0.00508897
0.000141968
0.00275755
0.00540762
0.0166954
0.000136844
0.0165593
0.000167038
0.000156073
0.000141871
0.000139014
0.0255528
0.00026765
0.00175188
0.000143055
0.000143853
0.00103732
0.00014856
0.00849452
0.00487407
0.0307364
0.00243128
0.00441795
0.000146531
0.00014527
0.000192106
0.000163821
0.000155365
0.000201377
0.000175864
0.000149735
0.000152956
0.0330071
0.000142215
0.0209373
0.00837412
0.00752381
0.000187481
0.000152588
0.000136707
0.000149308
0.00311502
0.00282861
0.000136842
0.000156528
0.000142826
0.000189183
0.000133176
0.000142376
0.000150087
0.000168051
0.00440529
0.000178201
0.000166288
0.000145621
0.000179771
0.0154463
0.000150881
0.0131035
0.0193396
0.000189626
0.000134456
0.000176329
0.000143036
0.000144465
0.000148929
0.0174814
0.000197183
0.00340321
0.000155459
0.00154113
0.000143422
0.000143533
0.000148865
0.00938839
0.00474707
0.000133128
0.000167672
0.000191043
0.0267069
0.000153789
0.0308855
0.000153566
0.0340663
0.000189361
0.035486
0.000191558
0.000189542
0.000666748
0.0275085
0.00417734
0.0224554
0.000143827
0.000202095
0.000133042
0.000155481
0.000159594
0.000148145
0.0276753
0.000165296
0.000162077
0.00474548
0.000214355
0.000805953
0.000143647
0.000155206
0.00016085
0.000137379
0.000166811
0.0208843
0.00212691
0.0187632
0.000140729
0.000160985
0.000156503
0.00794262
0.0318706
0.000191139
0.000136591
0.000149192
0.0166532
0.000178185
0.0218336
0.029265
0.000270221
0.000134265
0.0145173
0.000166593
0.000176633
0.000163319
0.0391125
0.00295493
0.000198203
0.00040906
0.000151966
0.000161348
0.000145235
0.0111009
0.000183675
0.0262799
0.000843054
0.00015941
0.000202334
0.000152983
0.0390553
0.000225645
0.000141289
7.44329e-05
0.0315812
8.57523e-05
0.0280962
0.000146748
0.000145595
0.0174758
0.0178177
0.0149385
0.000156065
0.000146557
0.000145584
0.0218718
0.000200634
0.000149298
0.000328101
0.000189922
0.0332604
0.0130611
0.00141532
0.000144455
0.0296251
0.000157372
0.000145739
0.000200976
0.030982
0.000147301
0.000141584
0.00525637
0.0372549
0.000144195
0.000140626
0.0336592
0.000140918
0.00278668
0.000140726
0.00772543
0.000145658
0.000180501
0.0178166
0.0320216
0.000152263
0.00631964
0.00101645
0.028556
0.0073416
0.033465
0.000214666
0.000142739
0.0163719
0.000154206
0.000143766
0.00013722
0.00435774
0.00014372
0.000783444
0.000141805
0.000152871
0.0168152
0.00018652
0.0159682
0.000153589
0.000216295
0.000139476
0.000167332
0.0152454
0.0157204
0.000140661
0.000186256
0.00251681
0.000148604
0.000139258
0.0299807
0.000169258
0.000171705
0.000199195
0.0295698
0.00284501
0.0122502
0.0256206
0.000227383
0.00179996
0.00303372
0.0277264
0.00018632
0.000136361
0.000198275
0.000142706
0.000142544
0.0331688
0.0302629
0.000154612
0.014016
0.000359798
0.0202289
0.00055765
0.000289841
0.000144399
0.000475235
0.000409761
0.000142607
0.000152601
0.0376488
0.0309133
0.0311238
0.037541
0.000175436
0.0393234
0.0394182
0.000166826
0.000147682
0.000143202
0.00298803
0.000141747
0.000127644
0.000153119
0.000150595
0.000155107
0.0170585
0.0445075
0.0184221
0.000150043
0.0160908
0.00015902
0.000165803
0.000141142
0.000141276
0.0132331
0.000162317
0.0279305
0.014425
0.000282451
0.000196523
0.000144586
0.000176602
0.000148485
0.000200544
0.000150087
0.000153271
0.000149629
0.00015383
0.000205401
0.000150761
0.000170839
0.000142743
0.000171515
0.000108576
0.0178775
0.000143694
0.000178977
0.000144974
0.00020141
0.000154394
0.0281023
0.000203519
0.0001663
0.000155376
0.000153354
0.00100736
0.000145042
0.000948259
0.000144061
0.000143507
0.000149687
0.0341386
0.000161368
0.000158209
0.000171031
0.000144711
0.000184413
0.0324452
0.00872779
0.0001705
0.000145195
0.000262218
0.000137005
0.000144259
0.000191227
0.0365174
0.000143707
0.00016685
0.000232579
0.0179705
0.000149444
0.000150511
0.0346941
0.000152646
0.00046561
0.000555743
0.0446957
0.000145917
0.00016344
0.000143531
0.0428117
0.000198669
0.000175817
0.000197088
0.0188622
0.000151726
0.0414519
0.0225473
0.000148658
0.0194155
0.000189776
0.000153169
0.0137773
0.000146793
0.000145754
0.000138273
0.000214691
0.000502268
0.000207372
0.000153461
0.000151123
0.000164395
0.00308766
0.000495435
0.0435634
0.00233789
0.000150205
0.000198833
0.000199623
0.0130417
0.00018894
0.00356226
0.00014189
0.000170389
0.000139237
0.000318809
0.000173767
0.000143458
0.0345403
0.000201671
0.000168248
0.000165226
0.000132253
0.000144278
0.000183695
0.00017034
0.000139897
0.000186422
0.000186224
0.000187384
0.000197032
0.0242291
0.000206648
0.0430373
0.000143934
0.000141806
9.34796e-05
0.0205538
0.0120388
0.000519371
0.000153307
0.0172676
0.00242867
0.000143778
0.000160014
0.00013987
0.000174624
0.000187087
0.000219606
0.0111464
0.000544602
0.000152705
0.0300275
0.0147545
0.000144352
0.000219388
0.0283364
0.0118919
0.00015565
0.000187815
0.000131177
0.000159289
0.00014237
0.000159382
0.0439136
0.0263827
0.0104673
0.0198408
0.000152322
0.000171066
0.000184992
0.000142388
0.000149223
0.000139026
0.0304197
0.00014149
0.0390712
0.0001736
0.000182415
0.000209168
0.000104513
0.0189442
0.0199862
0.000174136
0.000133716
0.000151275
0.0164896
0.00713856
0.00015775
0.000139636
0.000139384
0.000185059
0.000166279
0.000201958
0.0261111
0.0001521
0.000138529
0.000197178
0.000232192
0.0167804
0.00947735
0.000140737
0.000188036
0.000148251
0.046117
0.000135174
0.0401941
0.000141138
0.000151869
0.000168469
0.000149518
0.000199165
0.000165074
0.000178487
0.0157196
0.0315082
0.000158656
0.000165432
0.000144176
0.0183169
0.0170925
0.000149116
0.000135545
0.00274508
0.000131319
0.02631
0.000144492
0.000168183
0.000187053
0.000369557
0.000175077
0.000152427
0.000146596
0.000186631
0.0379416
0.000142825
0.000308099
0.0144544
0.00462253
9.13456e-05
0.000170486
0.0215362
0.000158223
0.000479242
0.000143361
0.00250996
0.00222297
0.00991792
0.0145193
0.0270988
0.000148201
0.000322138
0.00014159
0.0134127
0.00342182
0.0366314
0.0149931
0.000162169
0.0237556
0.00615255
0.000171898
0.000153584
0.00014754
0.0282079
0.000159918
0.000186402
0.000156985
0.000148967
0.000138906
0.000147807
0.030617
5.61533e-05
0.000167383
0.0174687
0.010067
0.000144112
0.000143948
0.000139303
0.000162902
0.0390645
0.000106459
0.000159884
0.000172023
0.00274058
0.00018831
0.000176978
0.00800984
0.000166408
0.042365
0.000164638
0.000164035
0.000143583
0.000156412
0.000187544
0.00526635
0.00304157
0.031095
0.000186714
0.0371114
0.000154867
0.000157137
0.000145294
0.011679
0.0216586
0.00539418
0.000332517
0.000155088
0.000145421
0.000142505
0.000144056
0.000139245
0.0101333
0.000164956
0.0109395
0.000168986
0.0304169
0.01589
0.0407654
0.000180386
0.000159419
0.0152978
0.000175935
0.0258341
0.0306973
0.000138496
0.000435557
0.000161759
0.0162965
0.007345
0.000171683
0.000310366
0.00258317
0.000157819
0.000186188
0.000166159
0.0248364
0.00337618
0.000156226
0.00014668
0.00236609
0.000107499
0.000199954
0.0116963
0.000198464
0.000163116
0.000144065
0.0155212
0.0351436
0.000190123
0.000165668
0.0310331
0.0218987
0.00014182
0.000144658
0.000156731
0.0368729
0.0339367
0.000143808
0.021513
0.000150403
0.00014356
0.000148589
0.0178185
0.000781818
0.000371159
0.0114747
0.000154028
0.000153191
0.000141676
0.00790618
0.000152248
0.0359176
0.000156402
0.0224086
0.000149153
0.000142793
0.000198569
0.00954321
0.00306452
0.000172311
0.0266624
0.000135553
0.00014675
0.00014482
0.000177433
0.000185896
0.00018581
0.000172481
0.0335273
0.000156898
0.000198623
0.00118646
0.0231342
0.000147039
0.0264158
0.0322558
0.000157574
0.00392176
0.000185222
0.0172665
0.000147961
0.000190161
0.00014476
0.0277762
0.0153308
0.000221595
0.0406536
0.000155593
0.000178361
0.000152648
0.0225344
0.000134383
0.000139755
0.00360566
0.000192832
0.0192681
0.0144311
0.000184552
0.000163929
0.000138084
0.0262662
0.000168091
0.000142668
0.000201482
0.000139541
0.000176108
0.000145467
0.00264743
0.00015511
0.00298597
0.00346114
0.000169576
0.000562887
0.000184263
0.0464824
0.00014637
0.01793
0.0278827
0.0001397
0.000144582
0.000153856
0.000149325
0.000174166
0.000144088
0.000682259
0.000188333
0.000981535
0.000207062
0.000148036
0.000149854
0.000138536
0.0225389
0.000147037
0.000145503
0.00013195
0.000155635
0.0262872
0.0399393
0.000191133
0.000157141
0.000169885
0.000153058
0.000150382
0.000180922
0.000136119
0.000155979
0.0105053
0.0421084
0.00256627
0.000152926
0.0109807
0.000224458
0.000149367
0.000651411
0.0322814
0.000143878
0.000154967
0.000143277
0.0254883
0.0204059
0.00850155
0.000135994
0.000156441
0.00015394
0.000146857
0.000199896
0.000148354
0.00028668
0.00751583
0.0413083
0.000138508
0.00015579
0.000154605
0.0250747
0.000132252
0.0188446
0.0122363
0.0013492
0.0143741
0.0236618
0.0233943
0.000152543
0.00827139
0.000687705
0.0001516
0.000137846
0.000140662
0.0399255
0.0111287
0.0122631
0.000144019
0.0431482
0.000147847
0.000210724
0.000139234
0.000154789
0.000151462
0.000138352
0.0219214
0.000151729
0.0315031
0.0190949
0.0180738
0.000179215
0.000179959
0.019803
0.0371484
0.000149532
0.00598021
0.000138517
0.000131629
0.000143693
0.000468363
0.000140982
0.0160076
0.000167717
0.00210099
0.000173958
0.0116589
0.0171259
0.000235799
0.000138081
0.000185408
0.000189656
0.0216615
0.000147086
0.000134287
0.000158037
0.0371389
0.000148589
0.00218461
0.0150049
0.000174855
0.000184233
0.000147302
0.00497364
0.000149211
0.0402753
0.000135695
0.0079084
0.000165974
0.000146506
0.0156277
0.0163107
0.000135366
0.000184987
0.000157819
0.0109749
0.000304459
0.000139984
0.00219231
0.000149424
0.000185964
0.0287108
0.000142803
0.00041046
0.000153369
0.000188398
0.000167452
0.0132813
0.0245167
0.000146866
0.0265407
0.000152005
0.000176836
0.0312446
0.0146191
0.000172747
0.0273898
0.000242906
0.000146792
0.00329014
0.000198226
0.000165794
0.000151609
0.0302704
0.000135682
0.015522
0.00119048
0.000193601
0.000143517
0.000165662
0.0262641
0.000177259
0.0303833
0.000150569
0.000155955
0.000233419
0.0294915
0.00015939
0.0384294
0.00458618
0.0165257
0.000148764
0.0284297
0.0157673
0.0232499
0.000144128
0.000149774
0.000146592
0.0400985
0.000169521
0.00442607
0.00532641
0.000149685
0.000137641
0.000143946
0.0233728
0.017861
0.0153769
0.0174921
0.000141403
0.0268696
0.0352901
0.000198974
0.0112564
0.027603
0.000170656
0.0148078
0.000154566
0.000158831
0.0232689
0.0210675
0.000145813
0.0139485
0.000149548
0.000144822
0.0326879
0.0246426
0.0404478
0.0142378
0.000167673
0.000149608
0.000159911
0.0357393
0.0152508
0.000142778
0.00017724
0.00288595
0.000144944
0.0001474
0.0288991
0.0279488
0.000154318
0.00014439
0.000151304
0.000153087
0.00324453
0.000149282
0.000145073
0.000160134
0.000253696
0.030652
0.000511038
0.0296601
0.000147108
0.000158334
0.0305369
0.0365175
0.000163921
0.000927721
0.000143391
0.000171016
0.000152471
0.000148356
0.000186793
0.000144702
0.013931
0.000169788
0.000142276
0.000157603
0.0187653
0.0268334
0.0231038
0.000145119
0.000171221
0.0381514
0.00202514
0.000156171
0.000146651
0.000144756
0.00247498
0.000147614
0.000149046
0.000163073
0.000144431
0.0310141
0.000501797
0.000149394
0.000156999
0.000135345
0.000148276
0.0214814
0.00163048
0.000187429
0.0122014
0.000199108
0.000149935
0.000143243
0.000146587
0.000146244
0.000149143
0.000165563
0.000194578
0.0311563
0.00015215
0.000196871
0.023136
0.00129176
0.000144871
0.00013987
0.000154725
0.0310829
0.00014572
0.00523779
0.00068015
0.000181142
0.00014775
0.0150055
0.000135859
0.000396329
0.000137526
0.00013609
0.000148833
0.00014226
0.00017671
0.0188326
0.000415916
0.000173762
0.00945346
0.000254315
0.000313848
0.000166946
0.0249249
0.0129172
0.000196554
0.0290069
0.0300264
0.000196612
0.00537179
0.00014942
0.000141033
0.0263676
0.000142616
0.000157163
0.0331898
0.000270235
0.0242455
0.000212782
0.000140865
0.000157298
0.000147023
0.000255505
0.000139006
0.000492542
0.0193752
0.0299286
0.01409
0.000147211
0.000136147
0.000187583
0.0153807
0.031371
0.000194275
0.00458016
0.000140738
0.00878486
0.0284822
0.000359463
0.000156347
0.000147604
0.000135298
0.000155024
0.000147592
0.000146605
0.000156655
0.0298131
0.000189145
0.0272505
0.00035782
0.00862927
0.000210649
0.000143256
0.00014231
0.000148161
0.000138764
0.000149217
0.00226898
0.0263093
0.0108936
0.0429519
0.000154498
0.0179974
0.000203247
0.0387294
0.0317418
0.00014789
0.000142155
0.00185425
0.000147396
0.000135539
0.00596519
0.0311932
0.0116113
0.000145384
0.000147151
0.000153791
0.000173667
0.0196861
0.000138742
0.000157402
0.00086862
0.000139341
0.00389648
0.000173365
0.0313518
0.000149485
0.000406868
0.0167383
0.00017255
0.0346534
0.000197028
0.0281775
0.000135544
0.000159129
0.000141294
0.000165991
0.0199702
0.000144952
0.0115594
0.000147503
0.000147185
0.000144383
0.0422074
0.000176727
0.00019702
0.00716446
0.000139502
0.000179951
0.0146559
0.000184818
0.000141288
0.000153289
0.000147602
0.000180434
0.000146339
0.000142988
0.0445672
0.0417314
0.0402624
0.000293848
0.00119877
0.0174109
0.000186536
0.0445907
0.000198474
0.000134946
0.000142358
0.000131417
0.000148952
0.0368174
0.0365051
0.000138245
0.00985567
0.0430636
0.00016383
0.000151656
0.00017073
0.0305323
0.0277984
0.0301353
0.00132272
0.0314902
0.000131492
0.000155797
0.000195184
0.00140912
0.0249219
0.000143938
0.000198536
0.0160454
0.000169698
0.0173221
0.00015
0.000636566
0.0168067
0.0364937
0.000187657
0.000167521
0.0171625
0.000198557
0.0368544
0.0403636
0.0308114
0.000196737
0.0250527
0.000147416
0.000157395
0.000178356
0.0228324
0.00278045
0.0279949
0.000150971
0.000194394
0.000193086
0.000151467
0.0311339
0.000143919
0.000199038
0.0214809
0.000143842
0.0282773
0.0306738
0.039941
0.029108
0.00485658
0.000903536
0.000144664
0.0378184
0.000147065
0.000142283
0.000175112
0.000156124
0.032535
0.000156423
0.000171803
0.000156828
0.000142205
0.0250103
0.000154051
0.000197156
0.00381924
0.000138403
0.0278239
0.000195354
0.000151868
0.0137345
0.00017732
0.000143501
0.0052339
0.000150856
0.0427064
0.000381808
0.000138474
0.000196506
0.000154206
0.0398336
0.0316544
0.000187924
0.0213155
0.000161107
0.000144858
0.0327852
0.00015604
0.000146646
0.0110137
0.000173492
0.000140561
0.000142112
0.000199003
0.000153703
0.0213951
0.000180442
0.000237972
0.0173564
0.000180313
0.000185075
0.000145089
0.0407682
0.0174602
0.0212631
0.000144235
0.000137414
0.000188262
0.000167084
0.00596487
0.000146844
0.00226031
0.000145907
0.000261327
0.000149541
0.000237775
0.000164129
0.000196552
0.0281772
0.0106979
0.0316158
0.0303078
0.000131671
0.00390664
0.00520552
0.0212026
0.000143202
0.000105007
0.0172037
0.0151813
0.000196586
0.00159067
0.0144695
0.0426442
0.000176649
0.000117871
0.000138224
0.000178506
0.00017497
0.000143604
0.000186596
0.0185753
0.000541096
0.0169608
0.00746256
0.000142635
0.00014109
0.000168781
0.000143738
0.0135205
0.000139031
0.000141177
0.0455558
8.00681e-05
0.000167931
0.000195546
0.000152432
0.000191181
0.0133612
0.0323588
0.014135
0.000158636
0.0320802
0.000152916
0.000138602
0.000154125
0.0262164
0.000169271
0.000149745
6.21171e-05
0.000151764
0.000142058
0.000143797
0.000149461
0.000160623
0.0160929
0.00708989
0.000164376
0.0321328
0.0210632
0.000564274
0.016134
0.00014513
0.000165284
0.000224585
0.00014458
0.000175635
0.000161481
0.000156334
0.0282403
0.032472
0.000139063
0.000172962
0.000165493
0.000187369
0.0248065
0.0265894
0.0421823
0.000148704
0.000189467
0.0422554
0.000189452
0.000196476
0.000313207
0.0303141
0.0427037
0.0449819
0.000138515
0.0231418
0.000138076
0.000154459
0.000144569
0.000184313
0.0425572
0.0150692
0.00191774
0.0129243
0.000183146
0.000134991
0.000139761
0.000147296
0.000159225
0.000176641
0.0438741
0.044364
0.000188146
0.00644137
0.000149048
0.000183112
0.000138856
0.0389927
0.000208185
0.000148285
0.000194285
0.000195555
0.0171496
0.0263151
0.000198753
0.00776539
0.000158414
0.0225751
0.000163588
0.023352
0.0032172
0.000152689
0.000183079
0.000146575
0.029235
0.0126201
0.000174852
0.0298894
0.000147626
0.0289998
0.000186072
0.000203701
0.000176949
0.000140358
0.000197122
0.000186554
0.000156783
0.000183138
0.000166931
0.000168997
0.0150358
0.000206007
0.000154764
0.000166741
0.000171582
0.000169096
0.000152427
0.0261198
0.000196608
0.00437414
0.00917799
0.000145179
0.0311037
0.000144565
0.000157867
0.000155598
0.0310504
0.000174755
0.0376779
0.0190351
0.000184253
0.000185903
0.000197068
0.0270236
0.000199304
0.0210219
0.00016856
0.000176843
0.00014284
0.0333695
0.00431899
0.000167257
0.000145629
0.00017418
0.000159775
0.000157612
0.000178643
0.000173115
0.000148125
0.000171262
0.0223279
0.0149755
0.000239431
0.000174976
0.000132938
0.0299247
0.000167601
0.000184846
0.00361664
0.00017524
0.0224979
0.000135857
0.000167973
0.000157777
0.000170482
0.000143878
0.0316589
0.00376713
0.0178842
0.000174559
0.0332602
8.86998e-05
0.000159305
0.0269219
0.000185384
8.49828e-05
0.0106265
0.000178477
0.000156568
0.000173679
0.000186207
0.000155817
0.00106569
0.0265679
0.00429749
0.000140419
0.000138008
0.000973283
0.00415207
0.000143308
0.000177056
0.000144839
0.000167094
0.0251982
0.00016544
0.0001647
0.000140726
0.00014035
0.00315602
0.0260216
0.000147065
0.0106946
0.000113911
0.000135164
0.000159188
0.0332933
0.000196476
0.000195597
0.000144538
0.000162
0.000199235
0.000146651
0.000143627
0.0352045
0.00016492
0.0317697
0.000190042
0.00016026
0.0416143
0.000194215
0.000209119
0.000140974
0.00582587
0.000164759
0.00016107
0.0264969
0.000174393
0.000148527
0.000190472
0.000157427
0.000157633
0.000135793
0.0305723
0.000144988
0.000198718
0.0149312
0.000194826
0.000142424
0.00102429
0.00016594
0.0289801
0.000177348
0.0265277
0.000193227
0.0351997
0.000139002
0.000189095
0.00015889
0.000142329
0.00591713
0.0177873
0.000157785
0.000335315
0.000157073
0.000188136
0.026654
0.000159797
0.000391112
0.00519226
0.0328598
0.0298797
0.000251131
0.000193323
0.000140655
0.000201154
0.000172882
0.00925043
0.0215284
0.0387943
0.025554
0.0416876
0.00014015
0.0159028
0.000144115
0.000151825
0.000147811
0.00436922
0.000164716
0.000209546
0.000142896
0.00932289
0.000162233
0.0232165
0.000142331
0.000187438
0.000165377
0.000186092
0.000176621
0.000195642
0.000153439
0.000113495
0.000205289
0.000141252
0.0163298
6.10843e-05
0.000190818
0.000155763
0.00016583
0.000146385