/*--------------------------------*- C++ -*----------------------------------*\
| =========                 |                                                 |
| \\      /  F ield         | OpenFOAM: The Open Source CFD Toolbox           |
|  \\    /   O peration     | Version:  v2012                                 |
|   \\  /    A nd           | Website:  www.openfoam.com                      |
|    \\/     M anipulation  |                                                 |
\*---------------------------------------------------------------------------*/
FoamFile
{
    version     2.0;
    format      ascii;
    class       volScalarField;
    location    "950";
    object      k_0;
}
// * * * * * * * * * * * * * * * * * * * * * * * * * * * * * * * * * * * * * //

dimensions      [0 2 -2 0 0 0 0];


internalField   nonuniform List<scalar> 
13851
(
0.000155522
0.0189785
0.000188248
0.000154521
0.000190021
0.000236105
0.000147186
0.000178333
0.000139794
0.000193481
0.00229066
0.0257848
0.0158025
0.0137629
0.000144153
0.000169817
0.000158048
0.0001629
0.00232878
0.000139646
0.000154027
0.000187935
0.000144163
0.000150984
0.000145346
0.00017899
0.000156227
0.00224083
0.000155094
0.000156977
0.00140151
0.000158689
0.000187537
0.00326597
0.000151109
0.000210475
0.00134249
0.000162206
0.000195158
0.00303154
0.000145974
0.000132299
0.00610871
0.00265678
0.00244971
0.0185828
0.00297193
0.00118762
0.000156681
0.0007927
0.000187781
0.000200431
0.0101299
0.000146098
0.000154271
0.000132394
0.000143871
0.0136634
0.000156468
0.000147973
0.000108077
0.0289981
0.000187039
0.000193353
0.000507461
0.000159395
0.00591964
0.00357947
0.000168606
0.000162709
0.0158954
0.0176797
0.0169539
0.000147
0.000141468
0.000142749
0.000187397
0.0175271
0.000178538
0.0182174
0.000149686
0.00285873
0.000144304
0.0131781
0.000189919
0.0250284
0.000216181
0.0109188
0.00015869
0.000141612
0.000210587
0.000177079
0.00376935
0.000162086
0.000158296
0.000148606
0.000190625
0.0301417
0.00125746
0.000148597
0.0156104
0.000179939
0.000151663
0.000155241
0.000142997
0.000251188
0.000182149
0.000131334
0.031361
0.000329658
0.000150619
0.000142
0.000173833
0.000152927
0.000150652
0.0077195
0.0310383
0.000131484
0.000156384
0.000157955
0.00639577
0.000155044
0.0182868
0.00697633
0.000631655
0.000146441
0.00202715
0.000179309
0.000153364
0.000200807
0.000145699
0.000139293
0.0193087
0.000144232
0.00642047
0.000141051
0.000131576
0.0161088
0.02892
0.0316549
0.0162547
0.000154001
0.000150855
0.000135846
0.000154646
0.00303168
0.000285817
0.000200343
0.000146964
0.00238989
0.000187535
0.00015438
0.0134069
0.00014438
0.000153421
0.000154466
0.000143217
0.000154473
0.000200393
0.000187511
0.00013341
0.000161674
0.013068
0.000139167
0.000163467
0.000134061
0.000252585
0.000168997
0.000152951
0.0214789
0.015182
0.000136692
0.000143412
0.0312474
0.000139016
0.000655454
0.000178551
0.000150564
0.00259103
0.000131626
0.000160053
0.0203729
0.00014407
0.000188993
0.000132884
0.000145383
0.000159926
0.000148862
0.000192505
0.000199487
0.00325822
0.0114732
0.000142941
0.000168904
0.0295219
0.000153017
0.000150073
0.00440306
0.000150011
0.000142999
0.000147446
0.0216093
0.000163582
0.000143727
0.000191013
0.000144222
0.0345343
0.000158249
0.0303228
0.000132161
0.0407042
0.000151274
0.00405154
0.000131169
0.000135124
0.00157022
0.000186706
0.0203643
0.000143509
0.0315748
0.000158576
0.000149894
0.0346107
0.000199925
0.0434948
0.00014587
0.000164588
0.00014437
0.0145458
0.000131244
0.00017812
0.00433787
0.000136604
0.00014254
0.000185322
0.000178755
0.0359347
0.000574986
0.00013571
0.000143859
0.00101613
0.00215714
0.000136346
0.000192867
0.000140974
0.0406974
0.000180474
0.0025188
0.00015476
0.000160022
0.000166503
0.00205992
0.000150134
0.000154926
0.000180128
0.000280126
0.00019747
0.0181474
0.0055826
0.00014443
0.00013526
0.000161635
0.0158919
0.000138688
0.0100832
0.000152994
0.000149965
0.000161392
0.0336238
0.000234332
0.000165899
0.00015344
0.0116269
0.00017714
0.000169023
0.000139422
0.00276032
0.000393457
0.0467975
0.00221961
0.000136519
0.000131753
0.000142668
0.000179154
0.0145946
0.00105292
0.000141271
0.000144181
0.0126763
0.00290518
0.00020908
0.000155789
0.000148107
0.000170888
0.00297022
0.00818896
0.000162516
0.0247212
0.000139689
0.0411978
0.000161139
0.000157867
0.0459092
0.000148769
0.000277174
0.0374455
0.000140969
0.000175613
0.000162282
0.000155268
0.0300108
0.000162823
0.000149885
0.0335315
0.000132782
0.000160458
0.000155278
0.0465299
0.000197141
0.000143543
0.00018047
0.000143769
0.0125591
0.000177919
0.000144183
0.000146106
0.000196745
0.000163748
0.000153105
0.000144185
0.000148616
0.000149705
0.00235953
0.0158162
0.0239873
0.000166832
0.0456159
0.0284944
0.000143766
0.000169564
0.000209336
0.000185462
0.000192504
0.00019732
0.00210777
0.000159549
0.00741804
0.0390692
0.000144407
0.0018712
0.00179517
0.00456447
0.000153074
0.000200761
0.0148941
0.000143815
0.00769651
0.000146047
0.00014382
0.000139427
0.000131366
0.000142259
0.0396577
0.00386126
0.00014539
0.000174504
0.000133396
0.0249988
0.000175921
0.00187835
0.023121
0.000145662
0.000191555
0.000162535
0.0015368
0.000144806
0.000131602
0.000168971
0.0158363
0.000145027
0.0311314
0.00018489
0.000198292
0.0178638
0.00365618
0.00380339
0.000158089
0.000139753
0.000150554
0.000165421
0.000180156
0.0141331
0.000168897
0.0437073
0.0380999
0.00013351
0.000144541
0.0224571
0.020792
0.00260853
0.0317668
0.000175982
0.0001634
0.000148178
0.0254094
0.000138028
0.000169078
0.000156367
0.00014649
0.000143749
0.000140643
0.000133937
0.000192724
0.000186819
0.0169095
0.000163485
0.000181738
0.000176996
0.00165202
0.00016168
0.00726826
0.00015733
0.0017413
0.000131479
0.000140375
0.000146951
0.000666152
0.00275809
0.000199012
0.000174213
0.0133057
0.0037719
0.000208468
0.000160676
0.000185699
0.000144497
0.00141881
0.000142696
0.0163968
0.00178256
0.000186787
0.0274258
0.000150929
0.000996114
0.00199599
0.0164235
0.00013156
0.000165085
0.000179147
0.000266854
0.000137434
0.000149801
0.000186339
0.000198244
0.00016745
0.0257228
0.000145906
0.000146661
0.010135
0.000164454
0.000131536
0.0210257
0.000139673
0.000155418
0.000138265
0.000177844
0.000153383
0.0001319
0.000150442
0.032851
0.000144468
0.000170846
0.000140279
0.000163475
0.00146653
0.000153919
0.00014589
0.000153127
0.000152895
0.00148883
0.000149818
0.000225723
0.000143992
0.000146666
0.0165901
0.0258426
0.000144523
0.000165317
0.000161843
0.00299789
0.015098
0.000146734
0.00407215
0.000145083
0.000189761
0.000147166
0.015976
0.000132871
0.00984502
0.00019913
0.000132418
0.000165527
0.0254769
0.000179032
0.00289735
0.000156242
0.00424394
0.000157721
0.000138598
0.000139615
0.00014633
0.0252969
0.000185659
0.000199248
0.00153878
0.000183417
0.000133814
0.0253529
0.00298016
0.000160233
0.000162011
0.00283325
0.00684857
0.0395347
0.000153022
0.016451
0.0156709
0.0243319
0.000163894
0.000167097
0.00792434
0.000834191
0.000278874
0.00370932
0.0228466
0.000154929
0.0238247
0.0205179
0.000131689
0.000333095
0.000186135
0.0210624
0.00015521
0.000143045
0.000142866
0.000144663
0.000192221
0.000175883
0.00840442
0.025825
0.000140043
0.00903068
0.0261177
0.000723748
0.00235958
0.000170347
0.000131126
0.000140077
0.00234611
0.0275154
0.000153657
0.000191666
0.000210281
0.000132281
0.000191981
0.00837441
0.000204746
0.00019742
0.0266584
0.0210094
0.000145401
0.000146622
0.0293012
0.037481
0.000198316
0.000168675
0.000194917
0.000131553
0.000142381
0.0183314
0.000132022
0.000155038
0.000131513
0.000139646
0.0221148
0.000192382
0.000169724
0.000131937
0.0337446
0.00490397
0.000139886
0.000141819
0.000139032
0.000149717
0.016174
0.0029585
0.00351191
0.0276795
0.00298751
0.000167082
0.0170739
0.0275366
0.000160934
0.000169097
0.000131101
0.000152915
0.00017089
0.0309745
0.0101369
0.000191279
0.000163966
0.000139139
0.000169673
0.000150479
0.00300825
0.000187965
0.000143856
0.000167144
0.000137417
0.000160958
0.000199734
0.000147594
0.000144223
0.000175854
0.000147774
0.000190324
0.000409648
0.000198669
0.000170331
0.000199051
0.000138947
0.000564592
0.000171388
0.0281766
0.000150964
0.000149199
0.0281758
0.000155707
0.0163851
0.0391381
0.0182502
0.0252217
0.000137963
0.02137
0.000137636
0.000139643
0.000132864
0.000139726
0.000149788
0.000164466
0.000175786
0.000131722
0.0291066
0.000201269
0.0301826
0.000142094
0.000134326
0.000141343
0.000208804
0.0311063
0.0001804
0.000161356
0.000137678
0.000147288
0.000146608
0.00014405
8.31401e-05
0.0281821
0.000147466
0.000131619
0.000146466
0.000143918
0.00604251
0.0119387
0.000170168
0.0284793
0.00563083
0.00014395
0.00019904
0.0159944
0.000170373
0.0257291
0.000149642
0.000161845
0.000180003
0.000162397
0.00413009
0.000144363
0.00799203
0.000143376
0.000164613
0.0303291
0.000143545
0.000154222
0.000192861
0.000138732
0.000159214
0.0163729
0.0267261
0.00018746
0.00670145
0.00392125
0.000131301
0.00014179
0.0186108
0.000207923
0.000181801
0.0394751
0.000139023
0.000166206
0.000131792
0.00239147
0.00611986
0.000160054
0.00014997
0.00108226
0.000156667
0.000141042
0.00778009
0.000310593
0.0300937
0.000132636
0.0001473
0.0175217
0.00712105
0.00020368
0.000149627
0.0327292
0.000144346
0.00129594
0.000197914
0.00018759
0.000158607
0.0182524
0.000161429
0.000152034
0.00110273
0.000148681
0.000163566
0.000153841
0.000138743
0.00863744
0.000168013
0.00019749
0.000168548
0.000435634
0.000139388
0.01689
0.000154684
0.000160952
0.000134878
0.00014346
0.000145195
0.0368012
0.000142548
0.000131877
0.000337279
0.00014691
0.021543
0.000144069
0.000150593
0.000186736
0.00855234
0.003564
0.000141652
0.00484683
0.0293959
0.000149982
0.0374372
0.000164281
0.000138418
0.000198471
0.00669903
0.0030547
0.000160454
0.000141142
0.000131434
0.00222863
0.000189277
0.000190304
0.000161799
0.000199299
0.000150612
0.00015009
0.000191236
0.00536654
0.000191951
0.010438
0.000147013
0.000190231
0.000190823
0.0463799
0.00015976
0.0298555
0.000840463
0.000147033
0.0128325
0.000330269
0.0299918
0.024808
0.0335295
0.00425705
0.000175991
0.00013858
0.000165184
0.0145999
0.0118164
0.000145542
0.000146771
0.000186062
0.00346921
0.000132468
0.00948109
0.000138734
0.000145275
0.0099576
0.0174068
0.004113
0.000139613
0.000143934
0.00839902
9.6974e-05
0.000197085
0.000155404
0.026246
0.000440631
0.0308262
0.000181815
0.000173988
0.000149941
0.000146979
0.0148571
0.000178621
0.0196705
0.000182079
0.000168485
0.00862207
0.0295296
0.0233911
0.000145118
0.000165464
0.000139774
0.0001709
0.000154004
0.0269548
0.000166745
0.0364162
0.000132365
0.000186317
0.000143004
0.000165471
0.000167692
0.000165049
0.0288943
0.000175641
0.000179866
0.000151435
0.000186412
0.000743634
0.00020397
0.000155303
0.0155016
0.000138236
0.0234908
0.00455292
0.000148481
0.0414189
0.0155856
0.0232008
0.00355264
0.000181138
0.00014536
0.0287617
0.000167705
0.00869754
0.0307823
0.000142052
0.000152548
0.000598224
0.00499496
0.0293779
0.000147298
0.000141259
0.0200561
0.0302108
0.000197506
0.00015964
0.000153445
0.00462744
0.0132819
0.000191652
0.000131928
0.000176306
0.000138813
0.000160231
0.00255117
0.00014856
0.0184034
0.000993149
0.000145515
0.000151337
0.000145607
0.000153991
0.0170863
0.0247948
0.00016456
0.0301452
0.000142903
0.000164684
0.00014499
0.000138931
0.000148125
0.000145333
0.0232161
0.0001446
0.000180127
0.000145264
0.000160681
0.0032342
0.00645402
0.00015647
0.0299122
0.000191806
0.00202082
0.000168617
0.0001687
0.0171607
0.00016092
0.000176535
0.0266834
0.0152575
0.0113585
0.00017465
0.00232001
0.000150496
0.000174309
0.000180391
0.029388
0.000145229
0.0329779
0.000141565
0.000142325
0.0163156
0.000146175
0.0087454
0.000159125
0.000139747
0.000184431
0.000139821
0.000143971
0.000139939
0.000149358
7.45554e-05
0.000142271
8.35127e-05
0.0131572
0.000188461
0.028235
0.000146692
0.000154782
0.000163371
0.000144911
0.000139553
0.000189433
0.000149554
0.000141949
0.000150231
0.000145819
0.0215405
0.0285448
0.000198082
0.0317837
0.000124261
0.000142374
0.00940969
0.000163708
0.00014203
0.00346097
0.00028354
0.00515328
0.000141968
0.00274484
0.00542621
0.0166833
0.000136844
0.0165539
0.000167042
0.000156074
0.000141907
0.000139014
0.0254502
0.000267197
0.00170053
0.000143054
0.000143853
0.00111744
0.000148561
0.00844964
0.00487644
0.0308896
0.00242613
0.0044132
0.000146531
0.000145271
0.000191998
0.000163809
0.000155366
0.000201349
0.000175868
0.000149736
0.000152954
0.0329155
0.000142215
0.020933
0.0083528
0.00739262
0.00018766
0.000152588
0.000136707
0.000149307
0.00310669
0.00278157
0.000136842
0.000156525
0.000142825
0.000189193
0.000133176
0.000142375
0.000150087
0.000168053
0.00439912
0.000178169
0.000166302
0.000145621
0.000179777
0.0154652
0.000150882
0.0131338
0.0193501
0.000189637
0.000134456
0.000176333
0.000143036
0.000144465
0.000148929
0.0174795
0.000197205
0.00337052
0.00015546
0.00157184
0.000143423
0.000143536
0.000148865
0.00933145
0.00497045
0.000133128
0.000167675
0.000191012
0.0267082
0.000153787
0.0308513
0.000153464
0.0339762
0.000189399
0.0354695
0.000191569
0.000189553
0.000669543
0.0275053
0.00416145
0.0225477
0.000143827
0.000202147
0.000133042
0.000155482
0.000159595
0.000148146
0.027673
0.000165298
0.000162079
0.00473477
0.000214347
0.00077361
0.000143647
0.000155207
0.000160849
0.000137378
0.000166846
0.0208116
0.00210486
0.0188267
0.000140729
0.000160986
0.000156507
0.00790657
0.0318707
0.000191038
0.00013659
0.000149193
0.0166534
0.000178193
0.0217823
0.0292844
0.000270327
0.000134265
0.0144944
0.000166622
0.000176635
0.000163321
0.0391005
0.00295185
0.000198176
0.000410119
0.000151968
0.000161344
0.000145235
0.0110898
0.000183643
0.0262778
0.000838463
0.000159411
0.000202352
0.000152983
0.0390425
0.000226313
0.000141291
7.28741e-05
0.0315787
8.37404e-05
0.0280875
0.000146748
0.000145595
0.0174767
0.0178411
0.0149425
0.000156064
0.000146557
0.000145584
0.0218698
0.000200657
0.000149298
0.000325143
0.00018995
0.0330543
0.0130382
0.00137651
0.000144455
0.0296089
0.000157373
0.000145739
0.000200992
0.0309824
0.000147302
0.000141584
0.00526606
0.0372406
0.000144181
0.000140626
0.0337345
0.00014092
0.00279704
0.000140726
0.00764718
0.000145659
0.000180507
0.0179238
0.0320205
0.000152263
0.00630646
0.00100325
0.0284834
0.00733254
0.0333779
0.000215635
0.00014274
0.0163809
0.000154205
0.000143766
0.000137218
0.00442963
0.00014372
0.000782212
0.000141804
0.000152864
0.0168127
0.000186542
0.0159201
0.00015359
0.000215944
0.000139475
0.000167335
0.0152299
0.0156712
0.000140661
0.000186262
0.00250939
0.000148604
0.000139258
0.0299768
0.00016926
0.000171709
0.000199217
0.0296816
0.00297882
0.0122377
0.0256139
0.000229037
0.00180707
0.00298243
0.0279702
0.000186324
0.000136363
0.000198302
0.000142706
0.000142543
0.0331038
0.0302599
0.000154615
0.0140151
0.000356971
0.0202252
0.000552059
0.000288541
0.000144399
0.000470136
0.000407924
0.000142607
0.000152601
0.0376386
0.0309068
0.0310711
0.0375261
0.000175434
0.039325
0.0394081
0.000166828
0.000147682
0.000143202
0.00298229
0.000141747
0.000105116
0.000153118
0.000150595
0.000155111
0.0170716
0.0445049
0.0183997
0.000150043
0.0160684
0.000159019
0.000165798
0.000141142
0.000141277
0.0132342
0.000162318
0.0279307
0.0143713
0.000280854
0.000196543
0.000144586
0.000176607
0.000148485
0.000200566
0.000150091
0.000153271
0.000149629
0.000153829
0.000205422
0.000150761
0.000170844
0.00014274
0.00017152
0.000108328
0.0178797
0.000143694
0.000178979
0.000144976
0.000201401
0.000154454
0.0281278
0.000203669
0.000166303
0.000155376
0.000153353
0.00100093
0.000145042
0.000965691
0.000144061
0.000143506
0.000149691
0.0341311
0.000161369
0.000158204
0.000171035
0.000144712
0.00018442
0.0324417
0.00874103
0.000170503
0.000145195
0.000261377
0.000137007
0.000144259
0.000191368
0.0365183
0.000143709
0.000166842
0.000232711
0.0179493
0.000149444
0.000150511
0.0346958
0.000152646
0.000463336
0.000341051
0.0446961
0.000145917
0.000163586
0.000143531
0.0428087
0.000198684
0.000175822
0.000197112
0.0188417
0.000151726
0.0414458
0.0225006
0.000148658
0.0194331
0.000189787
0.000153169
0.0137765
0.000146794
0.000145753
0.000138273
0.000214675
0.000499038
0.000207415
0.000153462
0.000151124
0.000164397
0.00309599
0.000494589
0.0435589
0.00234019
0.000150205
0.00019885
0.000199585
0.0130293
0.000188971
0.00354874
0.00014189
0.000170385
0.000139236
0.000319422
0.00017376
0.000143458
0.0345011
0.000201713
0.000168251
0.000165141
0.000132253
0.00014428
0.000183712
0.000170344
0.000134958
0.000186425
0.000186249
0.000187405
0.000197
0.0241797
0.000206801
0.0430313
0.000143934
0.000141805
9.37914e-05
0.0205353
0.0120253
0.000519623
0.000153305
0.0172669
0.00241927
0.000143776
0.000160016
0.00013987
0.000174627
0.000187096
0.000221037
0.0111492
0.000543842
0.000152705
0.0300234
0.0147529
0.000144352
0.000219465
0.0283603
0.0118808
0.000155651
0.000187825
0.000131177
0.000159288
0.000142372
0.000159382
0.043909
0.0263863
0.0104759
0.0198463
0.000152323
0.000171066
0.000185009
0.00014239
0.000149223
0.000139025
0.0304143
0.00014149
0.0390584
0.000173598
0.00018243
0.000209104
0.000102206
0.0189427
0.0199635
0.00017414
0.000133716
0.000151231
0.0164652
0.00711792
0.000157751
0.000139636
0.000139384
0.00018507
0.000166281
0.000201992
0.0259979
0.000152101
0.000138528
0.000197195
0.000231639
0.016782
0.00933324
0.000140737
0.00018804
0.000148251
0.0461173
0.000135174
0.0401947
0.000141135
0.00015187
0.000168499
0.000149518
0.000199155
0.000165076
0.000178489
0.0157095
0.0315022
0.000158657
0.000165435
0.000144176
0.0182928
0.0170801
0.000149115
0.000135545
0.00272982
0.00013132
0.0263132
0.000144494
0.000168187
0.000187083
0.000365963
0.000175065
0.000152426
0.000146597
0.00018664
0.0379301
0.000142826
0.000306861
0.014387
0.00449346
8.74781e-05
0.000170484
0.0215316
0.000158224
0.000475728
0.000143361
0.00253978
0.00222179
0.00993658
0.014536
0.0269889
0.00014818
0.000322215
0.00014159
0.0134144
0.00340572
0.0366219
0.0149863
0.00016217
0.0236955
0.00635786
0.000171896
0.000153587
0.000147541
0.0282091
0.000159919
0.000186411
0.000156982
0.000148968
0.000138906
0.000147808
0.0306241
5.5559e-05
0.000167386
0.0174651
0.0100608
0.000144097
0.000143948
0.000139303
0.000162928
0.0390656
0.000104211
0.000159884
0.000172021
0.00285715
0.000188343
0.000176981
0.00801304
0.00016641
0.0423574
0.00016464
0.000164047
0.000143583
0.000156409
0.000187548
0.00527243
0.00307487
0.0310958
0.000186728
0.037005
0.000154865
0.000157138
0.000145295
0.0116852
0.0216386
0.00532401
0.000330205
0.000155089
0.000145421
0.000142505
0.000144056
0.000139245
0.0101201
0.000164958
0.010936
0.000168986
0.030424
0.0158337
0.040761
0.000180427
0.00015942
0.0152972
0.000175936
0.0260269
0.0306998
0.000138496
0.000431924
0.000161761
0.0162622
0.00733177
0.000171684
0.000308154
0.00258228
0.000157817
0.000186119
0.000166159
0.0247882
0.00339224
0.000156227
0.00014668
0.00239624
0.000103524
0.00019995
0.0116923
0.000198492
0.000163132
0.000144064
0.0154691
0.035145
0.000190159
0.00016567
0.0310384
0.0220024
0.00014182
0.000144658
0.000156732
0.0368623
0.0339293
0.000143808
0.021514
0.000150403
0.000143561
0.00014859
0.0178264
0.000774628
0.000370801
0.0114604
0.00015403
0.000153192
0.000141676
0.00790941
0.000152248
0.0358013
0.000156398
0.0223412
0.000149154
0.000142793
0.000198553
0.00953081
0.00304462
0.000172315
0.0266369
0.000135559
0.00014675
0.00014482
0.000177438
0.000185898
0.000185814
0.000172444
0.0335088
0.000156899
0.000198588
0.00119827
0.023096
0.000147038
0.0264159
0.0322553
0.000157575
0.0038662
0.000185231
0.0172295
0.000147961
0.000190189
0.00014476
0.0279188
0.0153327
0.000221695
0.0406441
0.000155597
0.000178366
0.00015265
0.0225342
0.000134383
0.000139755
0.00368874
0.000192876
0.0192474
0.0144137
0.000184559
0.000163931
0.000138083
0.0262478
0.000168112
0.000142672
0.000201504
0.000139555
0.000176111
0.000145467
0.00256148
0.000155109
0.00297109
0.00349268
0.000169595
0.000553884
0.00018428
0.0464835
0.00014637
0.0180859
0.0278676
0.0001397
0.000144582
0.000153857
0.000149325
0.000174171
0.000144088
0.000671731
0.000188343
0.000974573
0.000207119
0.000148036
0.000149854
0.000138535
0.0225179
0.000147038
0.000145503
0.000131923
0.000155636
0.0262234
0.0399281
0.000191145
0.000157137
0.000169889
0.000153058
0.000150382
0.000180932
0.000136118
0.000155979
0.0105142
0.0421085
0.00255623
0.000152927
0.0109878
0.000219941
0.000149367
0.00064762
0.0322701
0.000143878
0.000154968
0.000143277
0.0254746
0.0203898
0.00852216
0.000135994
0.000156442
0.000153939
0.000146858
0.000199903
0.000148354
0.000285418
0.00752558
0.0412991
0.000138508
0.000155791
0.000154606
0.0250218
0.000132252
0.0188367
0.0122413
0.00133884
0.0142729
0.023657
0.0233342
0.000152547
0.00828894
0.000678794
0.000151601
0.000137845
0.000140662
0.0399147
0.011121
0.0122872
0.00014402
0.0431421
0.000147848
0.000210686
0.000139234
0.000154789
0.000151463
0.000138352
0.0218967
0.00015173
0.031482
0.0191951
0.0180712
0.000179224
0.000179964
0.0197922
0.037137
0.000149531
0.0059693
0.000138517
0.000131629
0.000143693
0.000466935
0.000140982
0.0159966
0.000167735
0.00212552
0.000173934
0.0116655
0.0171167
0.000235946
0.000138081
0.000185424
0.000189688
0.0216382
0.000147085
0.000134288
0.000158036
0.0370822
0.00014859
0.0022344
0.0149979
0.000174858
0.000184244
0.000147301
0.00497133
0.000149212
0.0402766
0.000135695
0.00790004
0.000165976
0.000146506
0.0156183
0.0163164
0.000135365
0.000184995
0.000157819
0.0109904
0.000303913
0.000140631
0.002214
0.000149424
0.000185981
0.0287172
0.000142801
0.000408792
0.000153366
0.000188408
0.000167455
0.0132824
0.0245108
0.000146866
0.0265413
0.000152006
0.000176839
0.0312482
0.0146125
0.000172733
0.0273861
0.000241976
0.000146793
0.00332406
0.000198249
0.000165796
0.00015161
0.0302839
0.000135682
0.0155062
0.0012037
0.000193603
0.000143517
0.000165685
0.0262624
0.000177261
0.0303764
0.000150569
0.000155956
0.000235164
0.0295095
0.000159392
0.0384192
0.00473088
0.0165127
0.000148765
0.0284527
0.0157907
0.0232194
0.000144128
0.000149746
0.000146593
0.0400893
0.000169367
0.00441225
0.00533244
0.000149685
0.000137641
0.000143946
0.0233378
0.0178661
0.0153189
0.0174848
0.000141403
0.026874
0.0352755
0.000198999
0.0112521
0.0276003
0.000170624
0.0147983
0.000154566
0.000158832
0.023257
0.0210796
0.000145811
0.0138964
0.000149548
0.000144822
0.0324965
0.0246371
0.0404418
0.0142394
0.000167675
0.000149608
0.000159911
0.0357223
0.015259
0.000142778
0.000177244
0.00283747
0.000144944
0.000147401
0.028888
0.0279392
0.000154319
0.00014439
0.000151305
0.000153089
0.00338264
0.000149282
0.000145073
0.000160134
0.000254117
0.0305811
0.000502911
0.029655
0.000147108
0.000158333
0.0305313
0.0365041
0.000163914
0.000922731
0.000143391
0.000171019
0.00015247
0.000148356
0.000186813
0.000144702
0.0139614
0.000169785
0.000142276
0.000157602
0.0187882
0.0268347
0.0231018
0.000145119
0.000171219
0.0381378
0.00201542
0.000156172
0.00014665
0.000144756
0.00250134
0.000147614
0.000149045
0.000163075
0.000144431
0.0310095
0.000498132
0.000149395
0.000157
0.000135344
0.000148276
0.0214173
0.00160067
0.000187436
0.0121992
0.000199212
0.000149936
0.000143243
0.000146588
0.000146244
0.000149143
0.00016556
0.000194617
0.0311612
0.000152149
0.000196869
0.0231331
0.00130589
0.000144871
0.00013987
0.000154725
0.0308951
0.00014572
0.00521529
0.000679177
0.000181195
0.000147749
0.0150041
0.000135859
0.000394384
0.000137526
0.000136091
0.000148835
0.00014226
0.000176734
0.0188312
0.000410739
0.000173767
0.00938923
0.000254936
0.000311061
0.000166948
0.0249199
0.0129085
0.000196534
0.0289
0.0300127
0.000196633
0.00537492
0.00014942
0.000141033
0.0264394
0.000142616
0.000157164
0.0330902
0.000269038
0.0242544
0.000213038
0.000140865
0.000157223
0.000147023
0.000254447
0.000139005
0.000488199
0.0193586
0.0299305
0.0141431
0.000147211
0.000136147
0.000187591
0.0154451
0.0313675
0.000194281
0.00457617
0.000140738
0.00878093
0.0284852
0.000374781
0.000156349
0.000147604
0.000135303
0.000155028
0.000147592
0.000146605
0.000156656
0.0298087
0.000189153
0.0272497
0.000356547
0.00864223
0.000210675
0.000143256
0.00014231
0.000148157
0.000138763
0.000149218
0.00222664
0.0262645
0.0108365
0.0429461
0.000154498
0.0179865
0.000203214
0.0387186
0.0317441
0.00014789
0.000142154
0.00183194
0.000147397
0.000135538
0.00591079
0.0311891
0.0115972
0.000145385
0.000147151
0.000153793
0.000173673
0.0196806
0.000138742
0.000157406
0.000863962
0.000139343
0.00385873
0.000173371
0.0312582
0.000149486
0.000406006
0.016852
0.000172549
0.0346355
0.000197044
0.0281783
0.000135544
0.000159129
0.000141294
0.000165993
0.0199805
0.000144953
0.0115649
0.0001475
0.000147185
0.000144383
0.0422015
0.00017673
0.000197027
0.00718783
0.000139502
0.000179953
0.0146506
0.000184836
0.000141287
0.000153294
0.000147603
0.000180362
0.000146339
0.000142987
0.0445662
0.0417235
0.0402542
0.000289234
0.0011964
0.0173959
0.000186545
0.0445875
0.000198433
0.000134946
0.000142359
0.000131417
0.000148952
0.0368015
0.0364892
0.000138244
0.00986504
0.0430638
0.000163832
0.000151653
0.00017073
0.0305345
0.0277909
0.0301319
0.00131613
0.0314871
0.000131493
0.000156345
0.000195163
0.00143951
0.0249124
0.000143938
0.000198556
0.0160327
0.000169698
0.0174597
0.000150001
0.000630541
0.0167911
0.0364941
0.000187666
0.000167524
0.0171603
0.000198577
0.0368563
0.04036
0.0308063
0.000196757
0.0250806
0.000147417
0.000157415
0.000178359
0.0228339
0.0028175
0.0279966
0.000150969
0.000194379
0.000193114
0.000151465
0.0311183
0.000143919
0.000199062
0.0214794
0.000143842
0.0281568
0.0305216
0.039941
0.0291268
0.00487072
0.000888573
0.000144663
0.0378037
0.000147062
0.000142282
0.000175114
0.000156125
0.0325358
0.000156424
0.000171802
0.000156829
0.000142204
0.0249865
0.000154051
0.000197178
0.00384291
0.000138403
0.0278273
0.000195342
0.000151863
0.0137338
0.000177436
0.000143501
0.00518289
0.000150857
0.0427059
0.000379219
0.000138474
0.000196522
0.000154206
0.0398222
0.0316524
0.000187932
0.0213717
0.000161103
0.000144858
0.0326505
0.000156041
0.000146647
0.0109989
0.000173496
0.000140561
0.000142111
0.000198961
0.000153703
0.0213924
0.000180843
0.000237144
0.017322
0.000180318
0.000185091
0.000145088
0.0407585
0.0174626
0.0212473
0.000144235
0.000137414
0.000188263
0.000167085
0.00596492
0.000146845
0.00223337
0.000145906
0.000261293
0.00014954
0.000236988
0.000164094
0.000196573
0.02818
0.0106376
0.0316071
0.0303053
0.000131671
0.00389961
0.00519565
0.0212043
0.000143202
0.000104734
0.017205
0.015204
0.000196605
0.00159213
0.0144814
0.042638
0.000176653
0.000117931
0.000138224
0.000178509
0.000174975
0.000143604
0.000186605
0.018551
0.000536192
0.0169692
0.0074692
0.000142636
0.00014109
0.000168754
0.000143738
0.0136057
0.00013903
0.000141177
0.0455552
7.96903e-05
0.000167924
0.000195542
0.00015243
0.000191223
0.0133491
0.0323588
0.0141237
0.000158637
0.0320793
0.000152919
0.000138602
0.000154125
0.0262137
0.000169224
0.000150475
6.21807e-05
0.000151764
0.000142058
0.000143797
0.000149461
0.000160624
0.0160451
0.00708247
0.000164378
0.0321161
0.0210602
0.000558789
0.0161797
0.00014513
0.000165287
0.00022456
0.00014458
0.00017555
0.000161483
0.000156335
0.0282337
0.0324725
0.000139062
0.000172966
0.000165496
0.000187394
0.0247655
0.0265133
0.0421747
0.000148705
0.000189476
0.0422482
0.000189462
0.000196494
0.000310428
0.0303235
0.0427023
0.0449801
0.000138515
0.0231692
0.000138075
0.000154458
0.000144569
0.000184318
0.0425533
0.0150687
0.00190743
0.0129618
0.000183154
0.000134991
0.000139761
0.000147296
0.000159222
0.000176644
0.0438697
0.0443636
0.000188156
0.00654801
0.000149049
0.000183121
0.000138856
0.0389932
0.000208255
0.000148286
0.000194315
0.000195557
0.0171059
0.026317
0.000198712
0.00775845
0.000158415
0.0225599
0.000163378
0.0233339
0.0031997
0.000152691
0.000183089
0.000146576
0.0292338
0.012611
0.000174856
0.0298511
0.000147738
0.0290232
0.00018609
0.000203824
0.000176902
0.000140358
0.00019714
0.000186576
0.000156784
0.00018315
0.000166934
0.000169001
0.0150276
0.000206035
0.000154765
0.000166743
0.000171584
0.000169095
0.000152423
0.0260703
0.000196579
0.00439394
0.00919874
0.000145179
0.0311049
0.000144565
0.000157873
0.000155598
0.0310508
0.000174757
0.0376809
0.0190772
0.000184268
0.000185957
0.00019709
0.0269775
0.000199328
0.0210123
0.000168555
0.000176848
0.000142839
0.0333721
0.00431145
0.000167252
0.000145629
0.000174181
0.000159776
0.000157612
0.000178648
0.000173119
0.000148125
0.000171257
0.0223619
0.0149165
0.000238803
0.000174979
0.000132938
0.029856
0.000167604
0.000184854
0.00378258
0.000175245
0.0224872
0.000135856
0.000167973
0.00015778
0.000170475
0.000143878
0.031662
0.00378914
0.0179137
0.000174553
0.0332431
8.7383e-05
0.000159307
0.0268811
0.000185392
8.51077e-05
0.0106669
0.000178434
0.000156569
0.000173683
0.000186215
0.000155825
0.00106004
0.0265709
0.00430327
0.000140419
0.000135483
0.000961508
0.00413201
0.000143308
0.000177058
0.000144839
0.000167096
0.0251922
0.000165442
0.000164702
0.000140726
0.00014035
0.00311214
0.0260181
0.000147065
0.0106304
0.000114185
0.000135163
0.000159179
0.0332963
0.00019644
0.000195603
0.000144538
0.000162002
0.000199299
0.000146652
0.000143627
0.0350134
0.000164922
0.0317726
0.000190053
0.000160261
0.0416106
0.000194234
0.00020909
0.000140974
0.00584407
0.000164761
0.000161071
0.0265587
0.000174395
0.000148528
0.000190517
0.000157428
0.00015765
0.000135792
0.0306321
0.000144988
0.000198706
0.0149625
0.000194798
0.000142423
0.00102785
0.000165942
0.0289129
0.000177172
0.0265287
0.000193218
0.0352001
0.000139002
0.000189101
0.000158891
0.000142329
0.00592455
0.0177386
0.000157786
0.000347659
0.000157068
0.000188139
0.0266556
0.000159799
0.000389762
0.00547779
0.0327533
0.0298033
0.000251507
0.000193088
0.000140655
0.000201162
0.000172877
0.00917733
0.0215257
0.0387943
0.0254944
0.0416818
0.00014015
0.0161242
0.000144115
0.000151825
0.000147811
0.00437561
0.000164726
0.000209583
0.000142896
0.00932625
0.000162235
0.0232154
0.00014233
0.000187462
0.000165379
0.0001861
0.000176628
0.000195651
0.000153439
0.000113329
0.000205382
0.000141252
0.0162819
5.94969e-05
0.000190879
0.000155763
0.000165833
0.000146385
0.000144