/*--------------------------------*- C++ -*----------------------------------*\
| =========                 |                                                 |
| \\      /  F ield         | OpenFOAM: The Open Source CFD Toolbox           |
|  \\    /   O peration     | Version:  v2012                                 |
|   \\  /    A nd           | Website:  www.openfoam.com                      |
|    \\/     M anipulation  |                                                 |
\*---------------------------------------------------------------------------*/
FoamFile
{
    version     2.0;
    format      ascii;
    class       surfaceScalarField;
    location    "950";
    object      meshPhi;
}
// * * * * * * * * * * * * * * * * * * * * * * * * * * * * * * * * * * * * * //

dimensions      [0 3 -1 0 0 0 0];
oriented        oriented;


internalField   nonuniform List<scalar> 
20537
(
0.00126802
5.88099e-05
-0.00133611
-0.00159678
0.00117854
0.000418026
0.000160877
0.000618695
-0.000779952
0.0020967
-0.00114149
-0.000963559
-0.000466332
-0.00029712
0.000763201
-0.00111684
-0.000392176
0.00150564
0.00150572
-0.00120745
-0.000316826
-0.000462949
0.000944811
-0.000482606
0.000623496
-0.000816759
0.000170856
-0.00108343
0.000481662
0.00060122
0.00015256
-0.000415217
0.000261511
0.000732531
4.0367e-05
-0.000772971
-0.000355923
0.000454634
-9.87381e-05
-0.000188718
-0.000281657
0.000470377
0.000116523
0.000314787
-0.00051511
0.000644711
0.000447144
-0.00109377
-0.00144494
0.000425085
0.00101597
0.000179073
0.000989177
-0.00117208
-0.000297135
-0.000247398
0.000544471
0.000791102
-0.000191026
0.000947999
0.00113478
0.000909465
-0.000749018
2.80625e-05
-5.73583e-06
-3.12708e-05
-6.77779e-05
7.18649e-05
-4.19148e-05
3.85528e-06
1.522e-05
0.000483447
-0.000947232
-0.00111884
0.000896938
0.00021904
0.000183305
9.31456e-05
0.00169451
-0.000436018
0.00163158
-0.000244268
-0.0013937
0.000362236
-0.00148211
-0.000768896
-0.000679458
0.000972625
-0.000354385
0.00052418
0.000322201
-0.000847316
4.91902e-05
-0.000156258
0.000333295
7.851e-05
-0.00041184
-0.000461819
0.000227154
0.000234649
-0.000342923
-0.000304327
0.000647146
-0.000791162
-0.000292684
0.00114437
-0.000621279
0.00161064
-0.000903863
-0.000727784
-5.53145e-05
-1.8219e-05
7.02837e-05
-0.000236288
7.89535e-05
0.000157335
-0.000289797
-0.000108376
0.000397653
9.40048e-05
-0.000384212
-0.000376044
0.000213469
0.000162574
-0.00011069
0.000388751
-0.000278004
0.00139793
-0.000405795
-0.000993164
-0.000858965
-0.000262436
-0.00104715
0.000904477
0.000137633
0.00039082
-0.00069351
0.000302482
-0.000297787
0.000594346
-0.000296632
-9.2771e-05
0.000223721
-0.00013095
-5.32894e-05
0.000227704
-0.000254363
5.55814e-05
0.000156408
-0.000287282
1.61651e-05
-7.44314e-05
2.30236e-05
-0.000110011
6.66462e-05
0.000127245
0.000163365
-0.00029061
0.00133403
0.00029002
-0.00124131
0.00152166
-0.000297016
-0.000662577
0.000319534
0.000361619
8.97663e-05
-0.000451402
-0.000540017
-0.000928382
0.00146563
0.000280303
0.000362125
-0.000642582
-0.00127616
0.000252599
0.00102258
-0.000412996
0.00145345
-0.00104703
-0.000253668
-0.000208164
-6.8554e-05
0.000395894
-0.000465314
-0.000459498
0.00092389
0.0012159
-0.00104096
0.000215972
-4.26478e-06
-0.000211707
-0.000163965
-0.00020277
0.000366726
-0.000982642
-0.000614274
-0.000366524
0.000219891
0.000413681
-7.89996e-05
-0.00040133
-0.000273935
-0.000502136
0.000761513
0.000238694
0.000670498
-0.000199515
0.000285177
-8.56614e-05
0.00086951
-0.000506283
-0.000363746
4.56962e-05
-0.000232302
-0.00151704
0.000455694
0.00104844
-2.24452e-05
3.29872e-05
-1.04856e-05
0.00100912
-0.00141433
0.000366707
-0.000207984
0.000370524
-0.000162541
0.000823915
-0.00136674
-5.91303e-05
0.000791585
0.000408381
-0.00145842
0.00104588
-0.000988305
0.000762831
0.000225217
0.000994887
9.18516e-05
-0.00108978
-0.000613937
0.000474081
0.000130026
0.000503918
-0.000170656
0.00180598
-0.00104088
-0.00077129
0.000268333
0.0011016
-0.000577045
-0.000526194
0.00151065
-0.000519077
5.319e-05
8.59675e-06
-8.25097e-05
-0.00067831
0.000211755
0.000422535
-0.000344662
-7.78793e-05
-0.000833559
-0.000218105
4.4451e-05
-1.56564e-05
0.000359078
-0.000375775
1.67011e-05
-0.00048734
-0.000306957
0.000793901
0.00162975
-0.000698891
-0.000941561
0.000735023
-0.00102549
4.63815e-06
-7.15829e-06
8.08254e-07
-0.000411555
-0.000990154
0.00139758
0.000382078
0.000311229
-0.000693613
-3.13759e-05
-7.74677e-06
3.68806e-05
0.000200322
-0.000329089
-0.00146406
0.0010686
-4.91518e-05
4.64613e-05
-2.33738e-05
-0.000455766
-0.000168299
0.000998701
0.000801022
-1.86413e-05
-1.75666e-05
-0.000110962
3.39041e-05
-0.000605987
0.00130432
0.000255596
0.00016693
5.35443e-05
-3.76482e-05
-1.89779e-05
-9.32062e-05
-5.73237e-05
9.74719e-05
-0.000241203
5.04376e-05
0.000126344
-0.000233075
-3.21286e-06
-0.000562132
0.00129384
0.000133985
-0.000489935
0.00139405
0.000426741
0.000969535
-5.79346e-05
0.000267545
-0.000213893
0.00142411
-0.000998968
0.000654402
-6.70036e-06
-0.0006481
0.00185969
-0.0009229
-0.000245714
0.000556669
-0.000311055
0.000663511
0.000921607
0.000208279
-0.000704748
0.000460832
-2.90794e-06
0.000218879
-0.000278306
0.00124649
0.000717995
-0.000167598
-0.000116325
0.000241188
2.1962e-05
2.76029e-05
-0.000189065
-0.000188905
0.000377961
0.000601129
-0.000373037
-0.000228097
0.000336853
-0.000649674
0.00031285
5.40239e-05
0.000305056
-0.000223853
0.000197578
0.00117673
-0.000508882
-0.000678957
1.3582e-05
0.0001257
-0.000142988
0.000641142
-0.00122572
0.000578974
-0.000394385
0.000285433
-2.74995e-05
1.19705e-06
2.5421e-05
-0.000645877
0.000400026
0.00116298
0.00031946
0.000364378
-0.000270755
0.000625243
-0.00028971
0.000174624
2.03461e-05
-0.000263137
0.000229603
-0.000418319
7.45258e-05
-6.92016e-05
-1.73104e-05
-0.000896581
0.000909475
-0.000750162
0.00138503
-0.000185991
0.00109667
-0.000933364
-0.00115213
0.00141317
-0.000267651
-0.000472029
0.00017417
0.000694752
-0.000304159
-1.79267e-05
1.76762e-05
-1.91686e-07
0.000982856
-0.00053472
-0.000449402
-0.000122774
0.000250019
0.000579585
-0.000403411
-0.00117521
-0.000388818
0.0015595
1.57222e-05
-0.000132302
0.000112407
-5.4411e-06
-2.2655e-05
-0.000875
0.000408813
0.00103174
0.000816294
0.000226016
-0.000360408
0.000134388
-0.000222044
2.25287e-05
0.000340743
-7.65185e-05
-0.000283909
-0.00111462
0.000906525
0.000658456
-0.000321582
0.000166964
0.000379278
-0.0013792
0.000972313
-0.000239126
0.000892988
0.000610207
0.000309164
-0.000928324
-0.000579844
0.000282654
3.17997e-05
8.82111e-06
-4.24291e-05
-0.000450787
0.00124238
-0.000794291
-0.000353037
-0.00127577
0.000878469
0.000358076
-0.00067771
-7.1572e-05
-5.73674e-06
5.08023e-06
1.36295e-07
3.73291e-05
2.07696e-06
-5.34217e-05
-0.00144953
0.00103008
-0.000260402
-4.76072e-05
0.000328916
0.000348759
-0.000677874
0.000786665
-0.00106595
0.000278533
0.000285206
-0.000234371
0.0001416
0.000560319
-9.37191e-05
-0.000474454
-0.000497531
-0.000367596
0.000864272
-0.000221694
0.000583291
-2.37537e-05
-0.00101207
0.00103032
0.000369356
0.000796386
-0.00102786
0.000336409
0.000690134
-0.000529023
0.00112823
0.000513907
-0.000802506
-0.000279803
0.000217422
-0.000452559
0.0002211
0.000231455
3.28857e-05
-0.000117806
2.61226e-05
-0.000531287
0.00118921
-0.000692242
-0.00102757
0.000481995
0.000544889
-0.000293199
-0.00102039
0.000703502
-0.000477036
-0.000226491
-0.00128739
0.00119476
8.91945e-05
0.000164507
-0.000295811
0.000131304
2.80484e-05
-2.10813e-05
-8.00218e-06
0.000348214
-0.000259701
-8.8517e-05
0.00115431
0.000462698
-0.000368361
0.00106532
-0.000697174
-2.22374e-05
-6.5419e-06
2.71123e-05
-3.25855e-05
-0.000106999
0.000135746
0.000109402
-0.000354261
0.000243196
-0.0015774
0.000548779
0.00102532
-0.000171058
-0.000204988
-0.000831493
0.000489541
0.000282529
-0.000110647
0.000275153
-0.000354514
-0.000935548
-0.00127704
-0.000251212
0.000364247
-0.00020824
-0.000156013
0.000590397
-0.000216117
-0.000374371
0.000347251
-0.000201738
-0.000145515
-2.17664e-05
-1.34305e-05
2.21042e-05
0.00109718
-0.000741431
-0.000357248
-1.26132e-06
3.75015e-06
-0.000166175
0.000234256
-6.80809e-05
9.20637e-07
-2.41176e-05
-0.000554487
0.00103704
0.000404071
0.00074711
-0.00115199
0.000268557
5.27532e-05
9.65619e-05
-0.000257869
-0.000411374
0.000669021
-0.00137664
0.00104278
0.000331675
0.000545203
0.000158274
-0.00103169
-0.000245096
0.000140148
-0.000130619
0.00051139
-0.00107363
0.00146473
-0.00110552
-0.000957421
5.28745e-05
0.000902354
-1.56531e-05
2.34427e-05
-8.0055e-06
-0.000451655
-0.000576485
-7.4753e-06
-1.67719e-06
0.000187464
-0.000268226
8.07607e-05
0.000201825
-0.000689513
0.000314637
0.000662968
-0.000977786
-0.000471944
-0.000840115
0.00130616
-0.00124658
0.0010636
0.000179282
-0.000260688
-0.000831008
0.00108465
-0.000136646
-0.000821469
0.00117462
-0.00126288
7.89289e-05
-0.00122761
0.000918617
-0.000537145
-0.000381821
0.000281262
-0.0013592
0.00107629
-0.000406013
0.00119176
-0.000338363
0.000149451
0.00029846
-0.000111022
-0.000187439
-0.00120098
0.000856105
0.000298158
0.000103887
-0.000195822
-0.00115812
0.00134945
-0.000863921
0.00142726
-0.00056426
-0.000112268
0.000299428
-0.000192754
0.000201489
0.000302448
-0.000503982
-0.000895522
0.000866987
6.68497e-06
0.00115869
5.0574e-05
0.00104942
0.000156865
0.000207376
-0.000442732
0.000508119
-6.91304e-05
-0.00107935
0.000811601
-0.00103438
-0.000665185
0.00139448
-0.000731029
0.000446256
0.000422688
-0.000606885
0.00124947
-0.000295024
-0.000443721
2.47937e-06
-2.49533e-05
8.65687e-05
-0.000296056
0.000207381
0.000356344
-0.000222164
-0.000134181
0.000329833
-0.000178291
-1.67466e-05
1.43002e-06
1.9141e-05
-9.14384e-06
-1.13692e-05
3.97276e-06
2.28016e-07
-5.45025e-06
0.000400519
0.00051773
-0.00137875
0.000514035
0.000352287
0.001089
-0.0014417
0.00095739
-0.000538409
-0.000439212
0.000645906
9.91259e-05
-0.000806111
-0.00138523
0.000718347
4.15863e-06
-1.04016e-05
6.68063e-06
-0.000332764
-0.00031322
0.00140609
-7.79046e-05
-0.00121152
-4.3825e-05
0.000472743
0.000372048
-0.000845558
-1.4627e-05
1.90257e-05
0.000541774
-0.000340333
-0.00134285
0.00120738
0.000132987
-0.000874829
0.00081562
-0.000434743
-0.000252364
0.000657447
-9.18946e-05
0.000279357
0.000901067
8.05067e-05
0.001348
-0.000926446
0.000347634
-0.000253106
-9.45297e-05
0.00169042
-0.000539522
-0.00116446
0.00102125
-0.00143693
-9.15762e-05
-0.000269423
0.000360996
0.000375595
0.000558719
0.000875967
-0.00054269
-0.000333737
0.000553082
-0.0011321
0.00119974
0.000199932
0.000388694
0.000212421
-0.000688479
-0.00065674
0.000793069
0.000372421
-0.00117511
0.000269901
6.52974e-05
-0.000335206
2.69124e-05
-9.67974e-05
6.62856e-05
-0.00120411
-4.52026e-05
3.08893e-05
-0.000303327
0.000268565
0.00015387
0.000202471
0.00023068
-0.000499215
0.000268478
-0.000338306
-0.000548283
0.000275131
-0.000710508
0.000435018
0.00098072
-0.000267594
-0.000772168
6.70266e-05
0.000231433
0.00145085
-0.000883883
-0.000574012
2.62214e-05
4.95239e-06
-4.19856e-05
2.05018e-05
-0.000896322
0.00085997
-0.000301916
0.00053253
0.00053102
0.000564556
0.00061659
-0.00113569
0.000514533
0.000700156
0.000374424
0.00130061
-0.000623725
0.00140549
-0.000302997
-0.000113219
0.000223792
0.000233454
-0.000223045
0.000415144
-0.000192106
0.00148191
-0.000550762
-0.000935271
0.000205019
0.000142612
0.00059795
-0.00026731
-0.000330681
-0.000325957
-0.000846508
0.000348153
0.000256981
-0.000589846
-0.000146279
-0.000926589
0.00106774
-0.0014368
0.000612112
0.000822709
-0.000538927
0.000194548
0.000344302
0.00029432
-0.0013077
0.000218724
0.00108091
-0.000975181
0.00138779
-0.000412823
0.000313394
-0.000190813
-0.000122583
0.000369736
-0.00013961
-0.00020241
0.000356167
-0.000156229
-0.000383824
0.000178813
-0.000367288
0.000688106
-0.000320939
0.00118732
-0.000575286
-0.000856608
-0.000581515
-0.000227402
6.12266e-05
-0.000197248
-0.000938457
-0.00137079
0.000395506
0.000872758
-0.000868121
0.000185772
0.00072891
-1.07633e-05
1.61569e-06
-4.21499e-05
8.78045e-06
-0.00106609
0.000313876
0.000725753
0.000197971
0.000115421
8.15814e-05
-0.000680033
0.000597341
-0.00103635
-0.000218502
0.00123325
0.000423133
0.000452253
-1.02388e-05
-8.86712e-05
9.53579e-05
-8.31628e-05
-0.000791758
-0.000161776
-0.000932077
0.00109224
0.00151264
-0.000148101
-0.000183482
0.000409492
-0.00125558
0.000198599
-0.00044462
-0.00113394
-0.00118352
0.000765254
0.00041642
0.00110542
0.000406666
0.00155478
-0.000636941
-0.000944441
-4.18102e-05
1.01181e-06
-0.00151473
0.00115929
0.000349137
9.05935e-05
-0.000285624
0.000195033
7.89996e-05
0.000670723
-0.000282042
-0.00119307
-0.000180871
-0.00035812
-0.000144928
-0.000215483
0.000185096
-0.000369408
0.000182483
0.000382997
-0.00019976
0.00138164
-0.000819791
-0.000568637
0.000246919
-0.000597606
0.00032004
-0.000160808
-0.000107334
0.000183204
0.000483334
0.000994145
0.000640285
-0.000365429
0.000204932
-0.000486583
0.00023994
0.000549304
-0.000790062
0.000168635
0.000178613
-0.000195106
0.000345152
-0.000150049
-8.27727e-05
6.98683e-05
-0.0010257
-0.000213331
-0.000406532
0.000228858
-2.96796e-05
-0.000199179
0.0011273
-0.000724083
-0.000184598
0.000440184
-0.000382666
-0.00113815
-0.000525416
-0.000659756
-4.64251e-05
-1.07782e-05
3.83126e-05
0.000310533
0.000287367
0.000357982
0.000136288
-0.000513011
0.000993963
-0.000548275
0.000501749
0.000872237
-0.000399641
-0.000951949
0.0013309
3.08279e-06
0.000884716
-0.000530167
9.24242e-05
-7.9773e-05
-0.000309314
0.000589483
-0.0010376
0.00136134
-0.000325524
-0.00027772
0.000293064
-1.53443e-05
-0.00102453
0.00153516
-0.000515499
-0.000328719
0.00100034
-0.00141635
0.000411376
-0.000864593
0.00072736
-0.000391765
0.00126865
-0.000880111
0.000336803
-0.000704224
0.000423866
0.000920363
0.000323763
-0.000215988
4.71703e-05
-2.90339e-05
0.000313269
0.000549391
3.02494e-05
-7.13782e-06
0.000329347
0.000317148
-0.000646601
0.000911218
-0.000303799
-0.000607454
-0.000342087
-0.000349473
0.000691441
0.00139719
-0.000401207
-0.000210694
-0.000663755
0.000985076
0.00142547
0.000151774
-0.000609948
0.000351906
0.000600508
0.00092651
4.68227e-06
-0.000871689
1.81192e-06
7.6262e-06
-1.28099e-05
-0.000343781
0.000792373
-0.00044873
-0.00097122
0.000146886
0.000822461
-0.000927419
0.000511798
0.000415142
-0.000164392
0.000268135
-0.000103743
0.000538262
-0.0010782
-7.58256e-05
0.000260769
-0.000186796
-0.00019483
-0.000777263
0.000308878
0.000103228
-5.90554e-06
-7.50222e-07
0.00054402
0.000457875
-0.00100327
-0.000745864
2.5872e-05
-0.000471479
0.000319103
8.31996e-05
-0.000421686
-0.000470152
0.00132686
-0.000867543
0.000325103
0.000658787
-6.45147e-05
0.00154721
-0.000641677
-0.000909346
0.000335641
0.000466263
-0.000801877
1.67045e-05
-5.20718e-05
0.000119953
-0.00103088
0.000125215
0.000145785
-0.000271
-0.0014169
0.000238023
1.1839e-05
6.62917e-06
-0.000443581
-0.000544909
-0.000303917
0.000521462
-0.00109059
-0.000582239
0.000394718
0.00016551
0.00138969
-0.00116439
-0.000227466
-0.00139132
0.00107287
0.000311063
1.75986e-05
-0.000519699
0.00104721
0.000440417
-0.000170527
-0.00078315
-0.000663113
0.000448738
0.000393698
-0.000843155
-0.000350761
0.00014111
-0.00138571
9.37341e-05
0.00128702
-8.25125e-05
0.000296318
-0.000215398
-2.20691e-05
-1.43864e-05
0.00030536
-0.00124919
0.000924601
1.72986e-05
-6.64415e-05
1.56173e-05
-0.00145932
0.000448932
0.00100894
-0.00120368
0.00138452
-0.00019199
-0.00105627
-0.000405995
0.00121673
-0.000377956
-6.65874e-05
2.04984e-06
0.000444369
-0.000249993
-0.000194374
-0.000243593
7.91999e-05
0.00127486
-0.000958226
-0.000348849
6.23791e-05
-0.00145383
0.000761524
-0.0011563
0.000924985
-0.000874098
0.000145349
-0.000353333
-0.000746673
0.000854286
0.000592764
-0.000512253
-0.00153728
0.000874653
-0.000353682
0.000710327
-0.000356879
0.000957361
-0.00138919
0.000413968
-9.61034e-05
0.000238919
-0.000142816
-3.79736e-05
1.30058e-05
2.15159e-05
0.000220106
3.61552e-06
-0.000595426
-0.000487864
0.00108251
-7.91827e-05
5.77872e-05
-0.00138461
0.00144119
-0.000119889
0.000380404
-0.000260519
0.000334015
-0.000889228
0.000356492
0.000120367
-0.000477025
6.03129e-05
-0.000204281
-0.000872503
-0.000470267
0.00134217
-8.4047e-05
0.000161321
-0.000501783
0.000157898
0.000313825
-0.000241529
0.000706909
-0.000495976
-0.000346226
-0.000991914
0.00131651
0.000108771
0.000120088
-0.000361236
-0.000332194
0.000693192
0.000242808
-0.000520014
0.000277142
0.000194639
0.000220711
-0.000415377
0.00136955
-1.59408e-05
-2.55524e-06
-0.000376411
0.000502114
-0.000125736
0.000297936
0.000612558
-0.00114913
0.00069588
-0.000962099
0.000425892
0.000279526
0.000642815
0.000948334
0.000445771
0.000139039
0.00020917
-0.00019247
0.000175005
-6.84323e-05
0.000168203
-0.000264307
0.000358817
-0.000269591
-0.000182972
-0.0010802
-0.00110211
-0.000287007
0.000358327
0.000995954
0.000196743
-0.000274476
-0.00120101
0.00148041
-0.000741758
-0.000286294
-0.000346101
0.000722271
-0.000376292
0.000262488
-0.00142112
0.000411326
-0.000757532
-0.000292062
0.000436434
-0.000144381
-1.63332e-05
-2.529e-05
0.000281239
0.000333285
-0.000253747
0.000103436
0.000150311
0.000400744
-0.00124628
-0.000943015
0.00105773
-0.000159128
0.000765164
0.000307149
-0.000961577
0.00115144
-0.000211973
0.000668719
-0.000339996
-0.00103745
0.00137646
-0.000341168
0.00120773
-0.000445206
-0.0004666
0.000802245
0.000183335
4.59212e-05
-0.000262484
0.000285364
-0.00016015
-0.000288014
0.000139219
0.000148795
0.000384703
0.00100805
-0.00139614
0.000973683
-0.000676295
-0.000427031
-6.21553e-06
-4.24447e-06
1.01031e-05
-0.000524901
-2.1733e-05
3.11016e-05
-9.40606e-06
9.50367e-05
-0.000471475
0.000224739
-0.00112452
0.000379324
0.000192858
-0.000572271
0.000408947
-1.10837e-05
-0.000397893
6.30594e-05
-4.97638e-05
0.00107025
0.000330953
-0.00140513
-0.00139527
0.00041482
0.000979992
0.00022804
0.000459898
-0.000258381
-0.000334583
0.000592847
0.000208697
-9.99269e-05
0.000381772
-0.000204874
-0.000176906
-0.000897745
-0.00135795
0.000937695
0.0005337
0.00051947
-0.00105322
-0.000286684
-0.00027235
0.000521286
-0.000248987
0.000725059
-0.000485782
0.000481614
-0.00141248
-1.26498e-05
-0.000942071
0.00104048
-0.000137533
0.000378366
1.22015e-05
4.818e-05
-0.000872422
0.00126761
3.29944e-05
-2.59163e-05
-0.000538094
0.000369777
0.000126564
2.07706e-05
-0.00031284
-0.000316363
0.000801789
0.000590065
4.9768e-05
-4.00265e-05
0.000359591
0.000311123
-0.000626655
0.000961761
0.000259665
-0.000663191
0.000374398
6.83167e-05
1.532e-05
-9.8899e-05
-0.000283305
0.000165663
0.000118272
-0.000208975
0.00029957
-0.000632006
0.000946434
-0.00100084
-0.00041681
0.000147217
0.000479708
-0.00135273
-0.000957364
0.000464869
0.000491536
-0.000157465
-9.62824e-05
-0.000114778
-0.000181034
-0.00104002
-0.000274347
-0.000890286
0.000429908
-8.13479e-06
1.71591e-06
-0.000252767
-0.000653517
0.00116426
-0.000512208
-0.000438245
0.000216926
0.000221305
0.000940264
0.000446887
0.000608311
-0.000229082
0.00039157
-0.000930333
0.000537075
0.000746006
-0.00029466
-0.000474394
-0.000472707
-0.000719247
0.00118996
0.00102655
-0.000348126
-0.000687712
0.00046496
-0.000108573
0.000346592
0.000299702
-0.000646483
0.000872526
0.000301896
0.000944863
-0.00149973
0.000399005
-0.00010009
-0.00104938
0.000197315
0.000850515
0.000228327
-0.000570509
0.000456852
0.0010463
0.00140231
-0.00082749
-0.00101672
0.000853501
0.00147763
-0.000451216
-0.00104001
0.00037138
-0.00035745
0.00068668
0.00051072
7.96019e-05
-0.000406457
0.00120826
-0.000803802
-0.000484899
0.000212502
0.000276152
0.000446917
0.00138376
-0.000562962
-0.000822274
0.000613804
-0.000349
-6.78114e-05
0.00155703
-0.000416897
-1.51496e-05
6.00148e-05
-7.0077e-05
0.000344163
-0.000143847
0.0011935
4.18897e-05
-0.00124216
-0.000261566
0.000116635
0.000216467
8.17121e-05
-0.000298181
0.00036792
-0.000206636
-0.000161285
-0.00104685
0.000603061
0.000458559
-0.000118611
0.000141385
-1.50202e-05
-1.98494e-06
-0.000587681
2.19734e-05
0.000526474
2.75744e-05
-1.77348e-05
-0.000478715
-0.000100275
-1.10489e-06
6.68476e-06
-5.74248e-06
-0.00149986
0.000470919
0.000994083
0.000393168
9.45945e-06
3.80481e-05
-0.00043075
0.000690729
-0.000260046
-0.00100218
-0.000572977
0.000142176
0.000949892
-0.000280547
-0.000693119
1.63104e-05
-6.82754e-06
-1.1661e-05
-1.75746e-05
3.01569e-05
-1.97375e-05
0.000765082
-0.00050823
0.000539565
-0.000298072
-0.000241516
0.000714435
-5.85186e-05
-0.000656172
-0.00100031
-1.57171e-05
2.41513e-07
3.63709e-05
-6.34063e-05
-0.000192523
0.000128023
3.02797e-05
0.00111301
-0.000258343
-0.000869633
0.000375953
0.000106044
-0.000482019
-0.000384587
-0.000321132
0.000705726
0.000976487
0.000486513
4.29066e-05
-3.57815e-05
-0.00132699
0.000959766
-0.000154056
0.00124463
-0.000482299
-0.000363132
0.000845245
0.000109409
-0.000240521
0.000131112
-0.00108144
0.000286184
0.000121089
-0.000407282
0.000900539
-0.00137144
0.000477848
0.000897521
-0.000293991
0.000536727
2.32561e-05
-0.000418341
-0.000644375
0.000684677
0.00142839
-0.00098552
0.00101612
-2.02555e-05
0.000734399
0.000372134
0.000323238
0.000945926
0.00145088
-8.78771e-06
7.19271e-06
0.000857186
-0.00078378
0.000163228
0.000104906
0.000819237
-0.000242656
-0.00059037
0.000221169
-0.00126081
0.00103253
-0.000953756
0.00143282
-0.000166454
-0.00036452
0.0004705
-0.00150987
0.00012245
-0.000283805
0.000569934
-0.000286118
0.000690125
-0.000343735
-0.000244948
0.000547345
-0.000366095
-4.94253e-06
2.49195e-05
0.000273137
0.000651844
0.000236474
0.000207896
1.8378e-05
0.000390541
-0.000339561
-0.00103909
0.000289126
-7.26604e-05
0.000613736
-0.000205231
-0.000426226
-0.000167848
3.902e-05
4.49309e-05
2.70961e-05
-0.000887481
0.00136678
0.000244877
-0.000412732
0.000167843
0.000261831
-0.00127432
0.00100852
-0.000442272
0.00139057
-0.000959997
-0.000295117
0.000210969
0.00127771
-0.00094973
-0.000331404
1.51491e-05
-3.87306e-05
-0.000136238
0.000310609
-0.000174372
-0.00133647
-2.36163e-05
-0.000151448
-0.000115724
0.000267171
-5.56514e-05
0.00147834
-0.000517364
0.000244253
-0.0001267
-0.000117553
0.000215003
5.21182e-06
-0.000220215
0.000474228
2.96543e-05
0.000653462
0.000363117
0.000171693
0.000160738
-0.000332436
-0.00133915
8.68157e-05
0.000235503
-0.000842932
0.000417344
0.000425354
-0.000410256
-0.000517611
-0.00132189
0.000416354
0.00090184
0.000196861
-0.000249343
0.000885235
-0.000641367
-0.000237772
-0.00066025
0.000890084
0.000431575
-0.000204437
-9.42795e-05
5.38262e-05
-2.85892e-05
-0.000269492
-0.00112873
0.000661499
-0.000406539
-0.00028654
0.000150302
-0.000540135
0.00114913
-0.000610295
0.000400292
-0.000520092
0.00131764
-0.000209487
-8.84846e-05
0.000473223
-8.43927e-05
7.57173e-05
-0.000183351
6.17577e-05
-0.00107642
1.56691e-05
8.97011e-06
-0.00123187
0.000817933
0.000387858
-5.90449e-05
0.000239664
-0.000236845
-0.000260144
-9.28095e-06
-0.00032612
-5.21221e-05
6.37218e-05
-1.49163e-05
-0.00139745
0.000356971
0.00103814
-0.000407367
-0.000969974
0.000126521
0.000117731
-8.09955e-06
8.28584e-06
-4.66075e-06
0.000359158
0.000718243
-0.00108733
0.000538959
-0.000480709
-5.83731e-05
-0.000839184
0.000356716
-0.000680805
0.000102522
0.000576986
0.000208005
-0.000176457
-6.50583e-05
0.00158219
-0.000190055
0.000497448
-0.000211275
-0.00120648
0.000177934
-0.000377514
0.000199575
3.41836e-06
0.000852885
-0.000203002
-0.000399798
-0.000290397
-0.000493803
0.000779668
0.000189946
-0.000110993
0.00114898
0.000429823
0.00120834
-0.000294338
-0.000917354
-4.22559e-05
3.30463e-05
0.000777813
-0.00042066
0.000876877
-0.000456587
-0.00105842
6.04864e-05
0.000996856
0.00109673
0.000106839
0.000472337
-0.000767291
5.59776e-05
-0.000323935
-0.000687101
0.00103658
-0.000525132
0.000545745
-0.000322268
-0.000591582
0.000912965
0.000695799
-0.000347248
-0.000439065
0.00102085
0.000439336
0.000341894
-0.000470048
2.13706e-05
0.000448583
0.000329942
0.00137928
-0.0011218
0.000119753
-0.000557208
0.000437432
0.000442213
-0.000247605
0.00112315
-0.00155267
-0.000229964
0.000352473
-0.000122511
0.000404461
0.000977849
-0.000228737
-0.000261071
0.00048979
-0.000592694
0.000308905
0.000371945
-0.000229917
-0.000142033
0.000118222
-0.00056335
0.000443275
-0.000631315
0.0010964
-0.000466287
0.000436265
-0.000962899
0.00144187
0.00032015
-0.000156785
0.000140559
-0.000365978
0.00110967
-0.000760231
-2.22732e-05
-2.57334e-05
3.08329e-05
-0.000750229
0.000338614
-2.5703e-05
5.93257e-08
2.53859e-05
6.27153e-05
1.73072e-05
-8.32908e-05
0.000124962
0.000114308
-0.000239271
0.000431973
0.000164045
-0.001125
-0.00022241
0.00132304
-0.000140754
-0.000176629
0.000276622
-9.9993e-05
-0.000358964
-8.87761e-06
-0.00011997
-0.000499386
-0.000643223
0.000765668
4.65838e-05
0.000168419
-7.20403e-06
0.000383137
0.000280303
0.000240923
-0.00136591
0.00104064
0.000316251
0.000193611
0.000221525
0.000639887
-0.000411992
0.000249265
0.000290275
0.000729459
-0.000418554
-0.000409736
0.000832328
-0.00110288
0.00137298
-0.000434197
-0.00116556
0.000183165
-0.000690034
0.000296413
0.00039335
0.000113087
-0.000142767
0.000816514
-0.0012049
0.000957166
-0.000149797
0.000300098
-0.000466347
0.000237596
-0.00014525
-0.000142764
-0.00100307
0.0012584
-0.000281296
0.000448419
-0.000938288
0.000488909
-0.000373614
0.000604313
-0.00112756
-0.0009954
0.00120964
7.60755e-05
0.000452829
-0.000528935
-5.21799e-05
-6.39255e-05
-0.000205608
0.000278311
-7.27031e-05
-1.18505e-05
7.134e-05
-4.44897e-05
0.000583311
0.000789814
0.000143417
-0.000959852
0.000551207
-0.00081639
0.000264991
-0.000232991
-0.000499677
0.000947077
-0.000223579
0.000892665
-0.000307129
-0.000585991
-0.00103124
-0.000135022
-6.03066e-05
-3.64176e-05
-0.000654589
-0.00102734
0.00045215
-0.00131079
0.000857079
-0.00039803
0.00135565
-0.000963381
-0.000211427
3.47975e-05
0.000231495
6.21948e-05
9.2946e-05
0.000498802
-0.000575699
0.00146021
-0.000898525
-2.53002e-05
-0.000234403
-0.000180741
0.000264096
-0.000137575
-0.000450937
0.000567344
0.00151406
-0.000704759
-0.00133946
0.000484812
0.000836681
-0.000264898
0.000113448
-0.000206822
5.03695e-05
0.00127691
2.75298e-05
-0.000271212
0.000130014
0.000141198
-0.000690572
-0.000314364
0.000979603
0.00135652
-0.000876983
-0.000484245
-0.000345537
0.000374669
-0.00100284
0.000272223
-0.000612394
0.000340164
0.000976629
0.000431806
-0.00142493
-9.79611e-05
-2.92697e-05
0.00110891
-0.000596947
-0.000511851
-0.000277944
0.000167297
0.00028271
-0.000617403
0.000303688
0.000901154
0.000301189
-0.00129283
0.000982187
0.000583636
-0.000491638
-0.00014162
-0.000164745
0.000306364
-0.00058146
0.000111298
1.08947e-05
-6.65504e-05
-0.000945652
0.000313259
-0.000172962
-0.000366516
0.000508462
-5.2332e-05
-0.000105825
-0.000412366
2.59272e-05
3.44025e-05
-1.45113e-05
0.000347846
0.000392863
-0.00074083
-0.000867012
0.000869211
0.000129547
-0.00127686
-0.00103886
-0.000482657
0.00113675
-7.1102e-05
-0.000198854
0.000269956
0.00023228
-0.000352174
0.00112976
-0.000587292
0.000466505
-0.00034677
0.000941893
-0.000179001
-0.000593693
0.00105016
0.00115899
-0.000691284
0.000363761
-0.000568095
-0.00155779
0.000431997
0.00110827
-0.00118791
0.00129404
-0.000104952
0.000257144
-0.000152192
-0.00113471
0.000148549
-0.000738114
0.00071757
0.000254204
-0.00128236
0.000970788
-3.21549e-05
-0.000212448
5.10372e-05
0.000161411
-0.000161096
6.37795e-05
0.00103601
-0.000502379
-0.000797625
-0.000261691
-0.000363283
1.83142e-05
0.000344946
0.0002941
-0.000835386
0.000458169
-0.0009864
0.0005271
-0.000203444
-0.000834309
0.00102994
-0.000308026
0.00134869
-0.000568336
-0.00142993
0.000319355
0.00110976
0.000119068
0.000127659
-0.000246727
-0.000787484
-0.00014726
0.000933984
6.05877e-05
0.000359057
0.00118536
0.000390362
0.000501727
0.000422131
-0.000284988
0.000120175
5.96858e-05
-0.000518229
0.000604637
-8.63867e-05
-0.000643482
0.000891887
-0.000994886
0.000488094
-0.000283155
-0.000351876
0.000112753
0.000234253
-0.000125189
-0.000454696
-0.000261539
-0.000704834
-0.000349999
-0.00065342
0.000126264
-0.000827738
-2.87013e-05
1.34509e-05
1.47107e-05
0.000398242
0.00101803
0.000247029
0.000184529
0.000656174
-0.000995128
-0.000428575
0.000421349
0.000152794
-0.000294413
0.00057344
-0.00111234
0.000537996
0.000289564
0.000280382
0.000401265
8.09199e-05
-4.92801e-05
-0.000330582
2.37017e-05
0.000220527
-0.00120377
0.000333062
-0.000419559
-0.000244015
0.000663445
-0.00129852
0.000874534
0.000415224
-0.000648185
-0.00014207
0.000773716
-0.00135709
0.000903623
2.41364e-05
-9.42372e-06
0.000139926
0.000342397
-0.000726963
-0.000916379
0.000199582
-0.000384188
0.000479584
-0.000187659
-0.000291946
-0.000134022
-0.000837163
0.00122639
-0.000893943
-0.000334027
0.000895641
-0.00050547
0.000945165
-0.000637439
0.000176344
0.00046096
-0.00105774
-0.000343492
0.0013976
0.000397476
0.000545643
-0.00094431
0.000303176
-0.000440888
0.000277787
0.000110694
-0.000582954
0.000956226
0.000125585
-0.000301298
0.000175713
-0.000266473
0.000291716
-4.66042e-05
0.000461572
-0.000327613
0.000779559
0.000367769
0.000951
0.000323245
-1.06032e-05
-1.86811e-05
-0.000391337
-0.000215083
0.000588882
5.63335e-05
-0.000567373
0.000510963
-0.000937467
0.00134042
-0.000370998
0.000237939
0.00056684
-0.000857805
0.00114517
-0.00032176
0.00102094
0.000401159
0.000791069
-0.00137972
0.000429077
8.60245e-05
0.000496342
0.00085699
-0.00127956
0.000422179
-0.000510254
0.000242117
0.000268096
-0.000670907
-0.00018039
0.000851004
2.33185e-05
-6.10124e-05
-0.00132783
0.000285467
0.00101945
-0.000527934
0.00121426
-0.000687849
0.00145063
-0.00136205
-0.000480286
0.00110504
-0.000627627
-0.000291906
-6.21559e-05
-0.000725938
-0.000413864
-0.000892975
-0.000985581
0.00127722
-0.000793331
0.000377893
0.000415478
-0.000771837
0.000108612
0.000140995
0.000152068
0.000157677
0.000217518
-0.000375213
0.00130924
-3.20055e-05
0.000272775
0.000181432
-0.00045425
-0.000124657
-0.000117102
4.28916e-05
-0.000215608
0.000167869
0.00152055
-0.00101716
-0.000517672
-0.000333772
0.00045045
-0.000117442
-0.00104884
0.000608833
0.00043818
4.00537e-05
-0.000326377
-2.00353e-05
-1.7797e-05
0.000810512
-0.000587344
-0.000419635
-0.000274033
1.58842e-05
-0.000111066
9.11916e-05
0.00022232
0.000572918
-0.000164408
-0.00112207
0.00032304
0.000505821
-0.000829743
0.000414676
-0.000169812
-0.00134752
0.000559011