/*--------------------------------*- C++ -*----------------------------------*\
| =========                 |                                                 |
| \\      /  F ield         | OpenFOAM: The Open Source CFD Toolbox           |
|  \\    /   O peration     | Version:  v2012                                 |
|   \\  /    A nd           | Website:  www.openfoam.com                      |
|    \\/     M anipulation  |                                                 |
\*---------------------------------------------------------------------------*/
FoamFile
{
    version     2.0;
    format      ascii;
    class       volScalarField;
    location    "200";
    object      ddt0(omega);
}
// * * * * * * * * * * * * * * * * * * * * * * * * * * * * * * * * * * * * * //

dimensions      [0 0 -2 0 0 0 0];


internalField   nonuniform List<scalar> 
13851
(
-0.00224874
2.14804e-05
2.17509e-05
0.00939995
6.19281e-06
2.92753e-05
1.6441e-05
1.19229e-05
0.0465699
-3.36504e-07
-0.000232794
2.55492e-06
5.34958e-06
0.0990372
0.000144093
0.00114838
-0.0272296
5.46484e-06
-0.00491986
-0.00268974
9.5264e-05
7.46134e-06
-0.201582
1.16709e-06
0.030683
0.00108069
0.0565588
0.0122583
0.10386
5.4392e-06
-0.00396382
1.71684e-05
-0.000266135
-0.065281
-1.98958e-05
0.101364
5.11974e-07
0.120236
-0.00668229
2.77163e-06
-0.0621866
0.120905
0.133978
0.0122305
0.126939
4.13255e-06
1.25086e-05
8.30567e-05
7.10349e-06
4.47681e-06
-0.0430494
4.22756e-06
0.00111142
8.5762e-05
-0.0551358
3.23788e-06
3.34602e-05
-0.052537
0.0354885
0.0634376
2.71596e-06
-0.02453
4.56356e-07
7.62937e-06
0.00764205
0.00383223
0.0990445
0.00402305
-1.28109e-06
0.00983538
-0.00392452
5.70629e-05
6.69985e-06
0.0645668
0.000131689
-6.01895e-06
-0.0376548
7.46851e-06
-0.0595115
4.8357e-06
-1.206e-06
0.005558
-1.51647e-07
0.14042
0.0591505
0.00222279
7.41538e-06
-0.036555
7.09931e-07
-0.00709928
3.49815e-06
1.97697e-05
-0.198586
-0.000425246
-0.0422714
-0.00925018
5.47126e-06
0.00109337
-0.0255432
0.00460857
0.000446382
-0.0030065
0.00155109
6.85471e-06
3.23778e-06
-6.11963e-06
3.41293e-06
-0.000693419
2.00524e-05
5.42221e-06
0.000148851
3.78637e-06
-0.00776887
-0.000569174
-0.00139336
7.04437e-05
7.09625e-06
1.19692e-05
0.0146282
-0.016382
-0.00656261
4.76412e-06
-7.37022e-07
0.00997671
0.00372545
-0.00197341
5.57078e-06
0.000510145
-0.0407036
0.000148529
5.88119e-06
2.59448e-05
-0.772002
-0.0552651
-0.000173753
-0.0347414
0.00044856
0.00261436
0.00224348
0.000200092
0.0084879
2.91024e-06
7.05354e-07
0.00695368
0.0364177
-9.14351e-06
7.48271e-06
-0.000768753
0.0436483
0.000592665
0.000323048
-0.00813746
-0.000625234
-0.00359584
5.61509e-06
1.22233e-06
3.04025e-06
-0.0126269
0.000168943
1.92915e-05
1.64187e-06
0.104139
5.30714e-07
4.85577e-05
0.0682973
0.0681212
0.0688052
-0.0362829
2.5968e-05
-0.0717278
2.69946e-06
7.74108e-06
-0.000204699
5.01771e-06
-0.0479191
0.0653468
0.000125077
7.64765e-06
0.000127028
7.94251e-05
0.00878995
-0.0021946
2.18124e-05
0.000176976
0.245857
0.0481182
-0.000347374
-2.78105e-05
5.80532e-06
4.3669e-06
-0.00847134
0.000166039
0.425361
3.00925e-05
-8.62651e-06
0.00100904
-0.0012518
8.07046e-06
6.56081e-06
0.00602981
0.00600812
-0.0550535
-0.0559654
0.00015032
0.357431
-0.0445179
5.37426e-07
0.000283177
0.0393794
2.66426e-05
0.00198365
3.00266e-07
0.00232871
8.21097e-07
-5.15716e-05
-4.80426e-06
4.25194e-06
0.00179582
7.84609e-06
-0.00999769
7.50167e-06
0.000193871
0.295775
-0.0394065
-3.53377e-05
0.000318684
9.32185e-07
0.00026338
2.05195e-06
-3.2124e-05
0.105341
-6.70091e-05
2.66801e-05
2.31827e-07
-0.0481964
5.45546e-06
-0.268463
-0.0535387
-0.000236949
9.60079e-07
-0.165306
0.0418196
0.132001
0.00179194
6.11675e-05
0.00933269
0.00194554
0.000121546
-0.00403933
-1.47444e-05
-0.0412468
0.00238223
1.11738e-05
3.61995e-05
0.000847237
0.0923551
-0.0317749
5.28292e-06
0.00804835
2.9795e-07
-0.000925415
0.00281531
4.00828e-05
-2.72583e-07
0.000641831
5.71449e-06
0.00624958
0.000561142
0.0250041
1.44334e-06
3.62099e-06
-4.14334e-05
0.0254789
0.0149918
0.000101555
4.92e-06
0.0105058
-0.00058158
-0.00169006
1.225e-05
0.0264675
-0.0229268
3.56109e-05
0.000117319
0.242673
3.2539e-06
3.09976e-06
-0.00184206
0.000100018
5.28908e-06
1.62289e-06
2.37937e-06
8.3674e-06
7.93882e-05
3.02967e-06
0.0470914
9.36484e-05
3.37512e-06
0.0883882
0.0174206
5.51068e-06
-0.00273962
-0.0384537
1.57568e-06
4.81155e-06
8.34681e-05
0.133426
0.179459
-0.000189331
6.58837e-06
-0.0629721
2.58708e-06
-0.000256966
-0.0248556
0.0317182
1.84264e-05
0.360051
0.536423
0.0172723
-0.0059656
0.00740881
-0.0391042
-0.00580641
0.0235482
7.08002e-06
0.0119382
0.323079
-0.261411
0.02648
8.60592e-07
-0.000239007
-1.00137e-05
-0.0437384
-0.0124771
1.01567e-05
1.30309e-05
2.45113e-05
0.00545343
-0.00443282
3.46606e-06
-0.0385652
-3.03399e-05
2.29982e-05
1.99523e-05
0.252495
0.0114419
0.000703386
-7.35916e-06
2.53881e-05
0.0718359
6.12719e-06
-0.00297176
3.73016e-05
8.21088e-05
0.000379677
5.6112e-07
3.23005e-06
0.00532575
0.00684831
0.00275416
1.8926
0.0832395
-9.39333e-06
-0.0459341
-0.00101827
6.42998e-06
0.0251121
-0.000394941
-0.0161699
2.52781e-05
0.00127087
-0.0264504
-0.165396
0.00603674
-0.0345708
8.35418e-06
0.101747
0.206941
4.14104e-05
-0.0232303
3.35532e-05
-0.0649453
0.000114127
0.00019208
-0.00296268
0.009945
1.37203e-06
3.30277e-05
0.000207048
0.000128612
4.7109e-06
0.000118838
-0.0476549
6.58818e-06
0.000284327
-0.0132789
1.96444e-05
-0.453862
0.000355427
0.191569
2.71968e-05
0.000943166
0.119289
-0.00133781
-3.43252e-05
-0.0423602
0.0689097
0.106564
6.18295e-06
0.00259447
1.98478e-05
0.00118274
4.30114e-06
0.225864
-0.0495496
-0.218818
2.50892e-05
-0.00182566
-0.00342109
0.0179093
8.35643e-06
0.0491864
0.00609597
-0.0981183
2.20234e-05
-0.0194347
3.35003e-06
5.11919e-06
-0.0681325
0.00255073
-1.96156e-07
2.22148e-05
0.000266848
7.55668e-06
-0.0221136
-0.000223033
-0.000229879
4.04213e-05
8.69237e-06
1.97343e-06
-0.525803
3.93459e-06
1.64653e-06
-0.0747456
-0.032961
2.35903e-06
-0.0116427
-5.68848e-08
3.39317e-06
2.14267e-05
0.00265395
0.000313659
4.06346e-06
1.28208e-05
-0.00289747
1.68271e-05
0.0967967
3.036e-06
5.79072e-05
0.126759
0.000537256
1.26016e-05
2.54729e-06
3.9693e-05
8.99368e-06
-0.0885478
0.0141579
6.08482e-05
0.0243825
2.23166e-05
1.92893e-06
-0.0197661
0.00599569
0.000404312
7.28947e-06
0.000642709
0.00079886
14.1811
6.92938e-06
1.95128e-05
0.00575297
0.000162042
-0.0179013
0.00817185
-0.297377
-8.38991e-06
-0.0096518
6.62058e-06
0.0899358
0.000357318
-0.00138862
2.65514e-05
-6.36714e-06
0.00114472
-0.000175732
5.85953e-06
0.0619707
-0.0140685
0.0730628
0.0239225
0.00140238
-0.0519168
-0.00172161
-7.651e-06
1.03907e-06
0.0413627
-6.06637e-07
4.83847e-06
-1.46875e-06
-0.0556181
2.1831e-05
3.55455e-06
-0.00383469
-0.000134477
-3.16672e-07
0.104639
5.69469e-06
-0.0465626
-0.151899
5.06721e-06
1.79244e-05
0.00420455
0.0584019
5.2125e-06
0.0424001
0.103236
8.04726e-06
0.0303243
-0.00864944
0.00291533
-7.49708e-06
-0.100886
0.0115422
7.59876e-06
-0.0101222
-1.14402e-06
5.48345e-06
-0.0663311
-0.0701907
-5.82952e-06
0.000317029
-3.46661e-07
0.000658911
-0.0484442
-0.0240507
7.53357e-06
-0.06702
4.85372e-06
-1.18333e-06
-3.66349e-05
5.04818e-05
8.22341e-06
-7.01978e-06
0.0323237
0.00625892
0.0176422
1.94311e-05
5.41839e-07
0.0336578
1.77495e-06
-0.00405761
6.13396e-05
0.000134373
5.28333e-05
0.125465
-0.00961302
3.05044e-05
0.0713504
1.73618e-05
-0.000547236
0.126367
-0.00480789
5.10931e-07
6.17467e-06
0.00338197
0.0164595
-0.0116066
0.000687894
-2.18769
4.90693e-05
0.000109092
0.173839
0.117916
0.00099934
-0.0373211
-0.00196779
0.111862
5.50001e-06
0.0420228
0.193768
2.28464e-06
-0.282189
-0.0440628
2.96839e-05
0.000182876
5.09621e-06
0.0443302
0.00099527
0.038162
4.11069e-06
3.82498e-06
-5.94197e-06
-0.000140104
3.48766e-06
-0.0491792
3.94495e-06
-0.00273426
-7.77227e-06
0.00128701
7.42362e-06
-3.50997e-07
0.000227771
-0.0646756
-7.75544e-05
-0.034706
2.17983e-05
6.63538e-06
5.77118e-06
-0.000246593
1.27209e-05
-0.00212369
2.41169e-05
0.000588549
0.0228566
1.31353e-06
-0.0132007
9.50217e-07
0.00213206
0.0514816
0.099699
0.00285151
-0.0148309
-0.00308161
-0.0170108
-0.0631906
7.31657e-06
0.101775
-9.59566e-06
3.74676e-05
0.00533753
0.39706
6.80088e-06
-0.00223414
8.14848e-06
0.0937289
-0.0468725
-1.91108e-06
0.00897209
-0.0204481
6.50904e-07
6.32597e-07
0.00110587
-0.00216463
-0.178616
4.81853e-06
-0.00267427
1.5556e-05
-9.90159e-09
0.000387407
-0.00360521
0.000172498
9.03724e-06
0.000576715
0.00038388
0.000779948
3.06497e-06
-8.15612e-06
0.00142415
-6.42277e-06
0.000622773
7.44829e-05
4.60381e-05
0.00215174
-0.114607
-0.00256693
-0.0434964
0.0750541
0.000290289
0.0560648
-5.05464e-05
-0.0396165
0.00132692
4.59058e-06
9.8395e-05
-0.00803504
1.65723e-05
4.7068e-06
4.59672e-06
0.00195002
-0.0369874
6.04325e-05
-0.0439375
7.10464e-06
-0.136274
0.00184888
-0.0447692
-0.00186188
2.7273e-05
2.17667e-05
-0.0387383
0.00271212
-0.000120803
-0.00173593
8.11362e-06
0.486283
0.00201199
-0.00396071
1.81195e-05
-0.00712565
3.81179e-06
7.63091e-07
6.20783e-07
1.07021e-08
0.121862
8.20665e-06
-0.0120767
0.0332486
-0.00140056
-0.0299123
-0.0202329
-0.00412531
-0.00417214
7.64631e-05
-3.66278e-08
3.11782e-06
7.45908e-06
5.68013e-06
4.2309e-06
-0.000450187
-0.00220942
0.00167886
0.118539
-5.70562e-06
0.0395172
-2.01279e-08
0.00177463
1.5674e-06
6.64821e-07
2.34747e-07
0.0917975
2.92869e-05
0.00454552
-0.0611385
0.000186469
1.16945e-05
7.78988e-06
-0.0576848
-1.28464e-05
2.17379e-05
0.0194704
3.33059e-07
3.0494e-06
6.1695e-06
0.000353061
-0.0248811
2.71573e-05
1.81739e-05
0.00344195
-0.0234948
-0.000145682
-0.000117144
0.129042
7.85136e-06
0.120074
2.83444e-06
1.71067e-05
-0.192981
0.000417114
-0.00150633
0.000896937
-7.39683e-05
8.58271e-07
-1.38342e-08
-0.000707909
6.77436e-06
4.83856e-07
6.52199e-05
0.0348443
5.8042e-06
-0.000894246
-0.924678
-0.00427573
0.000971833
-0.0674261
0.000834986
3.08001e-07
-0.0014764
6.30325e-06
3.40088e-05
-0.0390639
0.0740843
0.111905
0.139639
-1.23362e-06
-9.27804e-07
-0.00415829
-7.52164e-06
3.6184e-06
-0.306819
-0.000195321
-0.0101354
0.00238757
0.000253266
4.64266e-07
5.47528e-06
-1.22753
0.000107259
1.93033e-05
-6.3254e-08
-0.000688614
-0.00165249
-0.0495277
5.66154e-06
2.95605e-06
-0.0275379
2.95719e-06
4.06288e-05
7.50879e-06
-0.0620247
1.17495e-05
0.0289028
1.7235e-08
-0.000598313
8.59436e-05
0.000373648
1.77457e-05
6.42978e-06
2.23387e-05
5.47202e-06
-0.0169443
3.46704e-06
-0.0236601
9.65839e-06
0.0617481
-0.0134828
2.46217e-05
7.62116e-06
-0.00958942
0.00773533
3.16823e-05
0.000424301
3.25898e-06
-0.0462675
4.89761e-06
-0.00795028
1.71963e-06
5.471e-06
0.0458261
5.36331e-05
2.47388e-06
8.68989e-05
-0.0434653
0.0688322
-0.0375487
5.38035e-06
0.0343496
1.18989e-06
5.68689e-06
5.44983e-06
1.28609e-05
5.79661e-07
-0.0656677
-0.042824
8.1548e-06
4.03581e-06
-1.14116e-05
3.73445e-06
0.0125903
0.00447047
0.101565
-0.036896
2.19586e-05
0.000540704
2.10834e-06
9.08525e-05
0.000540321
7.57727e-06
1.94618e-06
1.02037
-0.0574211
2.11518e-05
0.143211
0.000198077
1.02414e-06
-6.68758e-05
0.000509109
-0.0886747
7.33344e-05
0.26021
0.000197818
1.91957e-06
0.193965
0.220227
-0.0117739
-0.0485468
-0.0639821
-1.03499e-05
0.0117167
1.57382e-06
0.237225
1.97361e-05
9.93384e-06
-0.0487907
-6.29166e-06
6.85819e-06
1.60912e-07
-6.80967e-06
-0.0540092
-0.00551302
5.65472e-06
-6.70213e-05
0.11794
2.00647e-06
0.21578
1.65204e-06
0.000110311
-0.0673178
3.63198e-06
-0.0172186
2.282e-05
1.49846e-05
0.0705619
-5.89107e-06
0.00264964
0.000899891
-0.0580505
9.51777e-06
-0.0304938
3.81829e-05
0.0323555
-0.100302
-0.037553
0.000211452
5.85523e-06
-1.65123e-06
3.96702e-07
0.000147975
1.14091e-06
-0.0259301
2.00684e-05
-1.03826e-05
-0.000158469
-1.01344e-05
5.25324e-06
3.03491e-05
2.0298e-05
1.79706e-05
1.29091e-05
-0.11579
-0.0298904
4.51735e-05
0.000526944
-0.042329
3.51686e-06
0.0151463
7.53143e-06
0.000133121
3.64145e-06
1.37748e-06
5.33841e-05
1.82945e-06
6.07616e-06
0.0117682
1.4271e-06
0.0191759
1.13223e-05
-0.297171
0.504363
0.00481537
-0.00466364
7.02145e-06
-0.0277951
0.000540964
1.45872e-06
1.9156e-05
4.827e-06
0.0309417
-7.79407e-07
0.0040739
0.0170816
-0.0215557
0.00146917
4.81487e-06
0.128047
-0.0476881
-0.0344945
3.36578e-05
6.57192e-06
7.80434e-06
-0.000180171
4.75263e-06
0.00132841
-0.00239901
1.10851e-06
-0.000641897
0.00740157
6.69709e-06
-0.114229
0.0434503
-0.000859747
9.48033e-06
0.133888
-0.000368183
3.72344e-06
-0.0486272
-1.60306e-05
5.56849e-06
6.07476e-06
0.00010983
0.000177371
0.0413157
-0.0241129
0.000256863
0.0611067
0.000136198
2.63052e-06
-0.00326525
4.36888e-06
1.37823
7.39975e-06
5.18854e-06
-1.04254e-05
6.78874e-06
0.0109203
-0.0350413
-0.00943783
-0.0126066
0.168052
-1.50906e-05
7.28972e-06
1.13527e-05
0.00335308
7.59812e-06
1.29701e-05
3.32537e-07
0.0232708
0.0115413
1.28029e-05
7.8515e-05
1.83206e-05
-0.0010491
0.279999
8.11299e-06
8.42944e-06
1.83297e-05
-0.42379
6.52504e-05
-0.0491252
-8.30497e-06
2.9536e-06
5.7327e-06
6.05085e-06
-4.529e-06
-0.00263269
0.116177
0.0878451
-0.000206159
1.78591e-06
1.42736
9.07282e-06
-0.0612478
0.0175093
-0.000236821
-0.0623613
0.116704
-0.0277017
0.000585006
7.31958e-05
0.0258503
4.64164e-05
0.000131833
0.00150946
-0.0117242
4.49194e-06
0.0117247
2.57286e-06
-0.038544
-0.306676
7.51174e-06
-8.05181e-06
4.79257e-05
0.0023401
7.16016e-05
3.64058e-06
6.10041e-05
1.64608e-06
3.7756e-05
-0.0780611
1.28527e-06
0.0318583
-0.0324861
3.18257e-06
6.95998e-05
0.000197365
2.33075e-06
0.0629865
0.0629651
-0.0332327
-0.000948523
2.01961e-06
1.91565e-06
2.12829e-05
6.95661e-06
-0.00818877
7.82227e-05
1.30368e-07
0.0004799
-4.41697e-06
0.031818
8.72236e-05
0.210917
1.85398e-06
-3.93905e-07
-0.00772798
-4.61555e-05
-0.000254806
5.72679e-06
0.125817
0.0214744
-0.249653
-0.0417706
-0.0418187
0.0635599
0.0445884
4.92168e-06
8.14441e-07
6.64691e-06
-0.0106771
0.000343076
-0.00030824
0.0869078
9.27367e-06
9.66417e-06
-4.63687e-07
-0.000731865
7.54304e-06
4.29027e-05
-9.10346e-06
-0.116753
-8.49229e-08
6.47953e-06
1.56581e-06
5.7962e-06
3.69874e-06
0.000232907
-0.00507416
8.69574e-05
0.0154584
1.93143e-07
6.08523e-06
-0.0392458
-0.0259649
-0.0348238
-0.109969
0.00210087
-0.148741
7.20638e-06
-0.00200392
-4.45096e-07
4.99189e-07
2.21967e-05
0.00536504
1.36854e-05
0.000218304
0.519268
8.53559e-06
1.9932e-06
-5.28062e-06
-0.00365483
4.01062e-07
-0.120718
6.75903e-06
-0.00128391
1.43747e-07
8.01447e-06
3.25497e-05
0.00665295
5.70892e-06
0.0983474
-0.00204023
-0.000425482
-0.0549145
2.83469e-06
-0.0767315
0.105883
1.28927e-07
-0.228668
7.32891e-06
-0.000207049
6.06078e-06
8.81185e-06
5.339e-06
-5.9533e-07
-3.1265e-06
-7.19146e-05
3.52904e-05
5.27851e-06
-2.19496e-07
0.0104839
6.94561e-06
0.185409
2.56862e-07
3.73145e-05
0.000132111
0.0337365
0.2446
1.62418e-06
-0.00165501
7.80307e-06
7.12143e-05
-0.000384993
-0.145787
0.000234688
5.81393e-07
0.000869144
-0.00441039
-4.2789e-05
0.405115
0.00077563
-0.000241296
0.000654722
0.00018368
-3.78408e-08
4.31427e-06
0.0397399
-0.0166505
1.46338e-05
3.76091e-06
0.221351
6.28811e-06
4.69579e-05
4.05479e-06
0.000392471
0.187723
8.5225e-06
0.0609891
2.90734e-05
2.77623e-06
-0.000915231
9.52661e-06
-0.00283566
0.00859231
-2.40385e-05
0.0239457
6.0338e-06
9.94962e-07
0.00126252
1.04457e-06
3.45757e-07
5.95585e-05
3.8849e-05
2.36854e-05
-0.000241898
7.26501e-06
8.29152e-05
4.19528e-06
2.08576e-06
1.1271e-06
2.10977e-07
0.101009
6.72088e-06
1.20993e-06
-0.0138297
6.47467e-06
4.09475e-06
0.00635152
-1.21726e-07
-0.233456
1.46431e-05
0.0308314
0.00871919
-0.00209409
-0.241209
-0.000145171
0.072462
8.33022e-06
-0.000181801
2.46216e-05
4.67285e-06
5.10769e-06
-7.73695e-07
5.05876e-05
6.12907e-06
-1.40061e-05
6.00889e-06
1.19112e-06
0.277832
-0.0446449
-0.0574085
2.23637e-05
0.00157529
0.000506904
0.0220238
1.74486e-06
4.04284e-05
0.00534281
7.58126e-06
-2.52119e-05
0.559188
0.095477
5.31768e-05
0.000222656
-6.68966e-06
0.0114533
-9.03808e-08
-5.43817e-05
-0.00262259
7.28306e-06
1.20835e-05
0.181345
-8.92497e-05
-0.00973313
-0.0649528
0.00189802
5.72412e-06
5.98008e-06
7.9122e-06
-0.0484997
0.531724
0.0401931
-9.71515e-05
3.71824e-07
-0.0126593
1.2238e-06
0.00315318
0.000659819
1.63934e-05
5.58054e-05
1.55997e-06
-0.0767935
0.14954
7.06722e-06
-2.19562e-05
0.000342228
0.437542
-9.01335e-05
0.00069597
-0.00876259
0.000133356
0.0188989
0.000646041
7.1349e-07
0.000161565
0.00224232
-0.0697414
1.79665e-06
0.382244
-0.00013293
0.000777204
4.67902e-07
0.19771
3.56943e-05
-9.23019e-06
3.47001e-06
3.81895e-05
2.9767e-05
-0.000778755
5.98769e-06
-6.14011e-06
0.000106341
-0.201865
-8.93994e-05
1.40994e-06
3.92984e-06
0.000161413
-0.00738254
2.03252e-06
0.00178716
0.0220105
5.07129e-05
0.0928635
0.000169673
-0.0295475
-0.00807518
5.06395e-06
-0.349549
1.99915e-06
7.56232e-07
0.000109507
6.81149e-05
-0.0019568
0.000350726
0.000122533
0.000182715
2.14272e-05
-1.10133e-05
8.08866e-06
0.00363744
3.10858e-05
-1.56993e-05
0.1236
1.67114e-05
-0.0002315
4.89287e-06
-0.0280029
0.00123867
7.01166e-06
2.40726e-05
3.07891e-06
0.131147
-0.00628254
0.000110728
0.13213
0.102403
-0.065616
-0.000430517
-0.0149897
5.80915e-06
-0.0189323
1.3195e-05
-0.000127327
0.243008
0.0557134
-0.0123597
-0.500681
5.82059e-07
0.164655
5.72381e-06
0.000628839
-1.23666e-05
-0.165438
-0.070151
2.52383e-05
6.54275e-06
-0.00741076
-0.00171235
1.24224e-06
-0.0289121
-1.20733e-07
-9.3147e-06
3.11763e-05
5.48841e-06
2.17285e-05
6.19029e-07
8.11368e-07
2.62785e-05
0.0386987
0.000101689
-9.26739e-05
1.62577e-06
-0.0202374
0.0622909
6.69817e-06
-0.0218163
-1.26722e-05
-1.09401e-05
0.0171992
5.84908e-06
-4.699e-08
-9.20045e-06
-0.0155464
1.27697e-06
2.76249e-06
-1.47056e-05
-0.0315837
6.51762e-06
3.62518e-05
-3.94102e-05
0.21298
-9.69886e-05
-4.75855e-05
-0.00229081
-8.68626e-09
0.0103081
8.1101e-06
0.035297
2.49794e-05
-4.07966e-07
4.19623e-05
-0.000954368
3.24364e-06
7.46288e-06
-0.00130065
0.132262
9.10992e-06
0.0548416
2.30329e-06
8.10651e-06
-0.000239441
2.2431e-06
6.76167e-06
-0.0389187
-4.74046e-09
5.23515e-05
-0.000830046
0.0416059
0.0298157
7.8977e-06
3.53302e-06
-1.02255e-05
3.59132e-06
5.05195e-06
1.86095e-06
-0.485361
2.06896e-06
-0.00104739
-0.000291186
1.20759e-05
6.85038e-06
2.79812e-05
-0.000328277
-0.022286
-0.00528638
-0.000302621
-8.14536e-06
0.0529703
0.00106658
6.08984e-05
0.000191809
-0.00145814
-0.0015036
-0.315646
0.000159164
-0.0152752
0.0750903
0.0542938
2.43609e-05
2.43351e-06
7.59775e-06
-0.00120331
5.95213e-06
9.41005e-06
0.00178385
1.78464e-06
7.51248e-08
1.71752e-06
9.66177e-06
1.785e-05
6.41605e-06
-0.0152754
6.98253e-06
0.129508
3.30477e-06
-0.00254121
5.11933e-06
-0.00119357
-0.00091554
5.71496e-06
-0.0451963
4.31626e-06
5.25143e-07
0.000133425
4.34742e-06
-2.47951e-05
5.54063e-06
0.127928
-1.15251e-06
-3.20484e-05
-0.0108898
-0.0422503
2.0297e-06
-0.00244392
-0.0631016
7.3917e-05
6.93932e-06
1.29919e-05
0.000194589
-0.000515388
-0.0888555
5.5473e-06
-0.0184163
1.39039e-06
0.00118304
0.114763
4.3753e-05
-0.15516
4.22427e-06
4.38843e-05
-1.13105e-05
0.143518
3.22941e-05
4.35627e-06
-0.000256893
-0.000740756
6.14523e-06
2.25494e-07
3.63976e-06
-0.0140298
3.16921e-07
-3.32085e-06
-0.0394822
-1.01863e-05
5.82042e-06
0.000504007
6.60097e-07
0.0118039
9.35274e-06
2.63427e-06
6.6874e-06
-5.01576e-05
8.25489e-06
6.85546e-06
0.000205294
-0.0171419
5.78192e-06
-6.60419e-08
0.0426676
9.47453e-06
0.0540676
1.26239e-05
0.196002
3.2254e-06
-1.25508e-05
7.49226e-06
-0.00959036
-0.0511001
-0.000315062
0.000510234
-0.000662041
4.64616e-06
1.50656e-08
0.133681
4.47349e-06
0.000789227
1.3182e-05
0.000227209
1.22333e-06
0.0321935
7.1865e-06
0.000289879
1.2189e-05
-0.00100055
0.171544
5.01711e-06
0.000125833
0.0567283
0.000182665
-0.123539
-0.273002
0.0081811
1.3007e-07
2.94998e-05
-0.00118593
0.0314049
9.11506e-06
0.00017494
-1.01951e-05
1.76583e-06
-0.0233475
-0.0409357
2.21271e-05
-0.000304122
-0.0131873
2.0353e-05
0.0422669
5.76001e-06
4.90917e-06
-0.00104201
0.158846
-0.00802626
0.00254841
0.0440191
7.13252e-06
0.185715
0.0181855
0.00344805
2.36972e-06
-0.0623186
-0.041078
0.0913502
0.29058
0.0234501
0.00055097
2.33574e-05
-0.00578625
4.79014e-05
4.85292e-06
-1.623
-0.000575642
8.46174e-06
0.0466621
2.03205e-06
0.000679662
0.000108109
-1.13076e-05
2.27899
3.56336e-05
-0.00935523
0.000294823
0.000377171
0.107745
-0.0810236
-0.00051051
2.66992e-06
-6.57831e-06
-0.000583603
-0.00338955
7.61731e-06
-0.000153628
-0.000732852
-0.0030241
6.71509e-06
-0.00777226
-9.0013e-06
3.37707e-05
-0.0671708
0.0076573
1.45297e-06
0.00455572
-0.043515
7.51846e-06
-6.57435e-06
0.029627
0.00422407
1.38622e-05
2.26286e-05
2.49291e-06
0.00139283
3.34052e-05
0.122211
-0.00173343
4.66168e-06
2.14373e-06
0.00957565
9.54807e-07
0.00993801
-0.0350353
4.84576e-06
1.22934e-06
2.17358e-05
2.40075e-06
1.98938e-05
-6.69066e-06
9.43783e-06
-3.81147e-06
6.12475e-06
-1.13634e-05
4.40552e-06
0.000346605
0.0504131
9.12569e-07
-0.0119527
-0.00689374
8.25994e-06
-0.000247996
-0.0014959
-0.000613729
1.43529e-07
-0.000174959
3.5627e-05
-0.00206028
4.94919e-05
5.46451e-06
2.15298e-06
-0.0920162
3.37068e-05
-0.0218684
1.32721e-06
1.63938e-07
1.95053e-06
-0.00270106
5.86158e-06
2.12198e-05
0.000487306
0.0227779
5.68074e-06
0.022986
0.0120163
0.0155013
6.86783e-06
-0.00675372
0.0034053
-0.176698
-1.82668
2.78253e-06
-2.72728e-06
0.0084826
0.0836506
0.0702793
8.58299e-05
-0.0256572
2.00047e-06
5.03217e-06
4.70069e-05
2.29484e-06
1.33645e-06
-0.00774652
7.66523e-07
-0.00044781
3.38897e-06
-0.0783074
-0.0383922
0.042432
-0.0854861
0.0226239
4.4244e-06
1.98488e-06
-0.038495
4.87916e-06
4.63788e-06
7.285e-06
0.00474099
-0.0709907
-0.079334
-1.15293e-05
8.88963e-06
-8.06504e-07
3.13023e-05
0.196605
5.15583e-06
-0.256541
-0.0835098
1.87606e-06
4.26633e-07
0.00449563
0.000719933
1.58835e-05
5.29727e-08
-0.030448
-0.00363948
5.87582e-06
-0.000888741
7.87087e-07
0.0104494
-0.279362
1.33023e-05
0.185214
0.0774382
0.0347028
3.94358e-06
9.1448e-06
5.18661e-07
4.46691e-07
-0.0355284
5.12147e-06
0.00861056
-0.0170307
-0.101347
9.77665e-06
0.000127796
0.0370346
-0.000156786
-0.0477855
0.0189928
1.01681e-05
3.15024e-05
3.18557e-05
0.00287634
0.0912341
9.1439e-06
-0.0289016
5.62329e-05
0.000221322
7.11633e-07
6.82502e-06
-0.00368584
1.92492e-06
0.0127732
2.12537e-06
-0.000106168
7.99789e-06
-0.00148451
2.15114e-05
-0.00942911
0.154943
-0.00479369
0.00178352
6.62964e-06
-9.16058e-06
-0.000167198
0.0114197
0.0412133
-0.00686915
3.39762e-06
-0.204541
0.00537039
-0.0472571
2.55726e-05
-7.35228e-05
-3.75555e-05
4.87999e-06
0.0275674
2.14566e-06
5.96511e-05
-0.0130293
-0.0685691
0.134807
-0.0642864
-2.85334e-06
3.56818e-05
5.80548e-06
-0.0804289
-1.93952e-06
0.025834
6.61998e-06
-0.0110873
8.65369e-06
2.4168e-06
4.93979e-05
5.24356e-05
3.29547e-05
4.57427e-06
0.0271791
0.000299258
5.20022e-06
3.53248e-05
-0.000203796
0.170906
2.05651e-06
0.0466697
2.03898e-06
0.000136924
0.000105017
9.49977e-06
-0.000307666
2.61275e-06
0.202
-0.000456456
3.91736e-05
5.17774e-07
0.00556799
-2.44268e-05
6.59084e-06
0.0267955
0.384072
0.0104771
6.96091e-06
0.0419139
1.47612e-06
0.0072515
5.36965e-05
-0.00170394
0.0290454
0.0184057
-0.000787757
-0.0638294
7.06491e-05
-0.000491382
5.3548e-06
-0.0145925
0.000674282
-0.00202549
0.00578889
1.56337e-06
-0.0958566
-0.000173173
-0.0041494
-0.00999691
-0.0302571
0.0256545
0.305491
-0.0550128
1.38328e-05
-6.94094e-05
1.32023e-06
5.06705e-06
9.01754e-06
0.000155291
1.24774e-05
0.00227674
0.0277608
6.01951e-06
7.37601e-06
0.000259946
7.39161e-05
4.23266e-05
1.20791e-05
-0.0592571
1.88282e-05
0.000357859
2.46247e-06
-0.00668903
-1.27407e-05
-0.0529816
-0.00184769
3.52747e-05
0.000152566
1.14015e-06
-0.0144257
0.0367489
-0.000570548
5.16927e-06
8.61653e-06
-0.108853
0.00562586
0.087914
5.64797e-06
-0.000593197
-0.0440472
6.47816e-06
3.8479e-06
-6.26554e-07
-0.0624652
0.00359977
3.03473e-05
3.36966e-05
3.95183e-05
-0.0369565
-0.00124416
0.0126589
3.48082e-05
5.14087e-05
9.49684e-06
-0.00207454
7.10374e-05
2.25221e-06
0.12123
0.0243145
-0.0340588
0.127484
-0.0220521
0.191964
-0.0494399
1.76772e-06
7.27523e-06
-0.0393877
-0.0186719
0.0319869
5.45127e-06
3.56336e-05
8.57507e-08
5.98469e-06
-0.282315
-0.0763125
3.68577e-05
2.3573e-06
0.0410196
0.000222591
-9.40455e-05
0.0482662
-2.87152
-0.0118611
8.33341e-06
-0.0123275
-0.772495
0.00674279
0.000107169
2.69726e-05
2.78787e-06
5.74078e-06
-2.03882e-05
-0.000106295
-1.28159e-06
0.000206823
4.31119e-05
-1.03675e-05
-0.00932005
0.00501687
-3.13427e-05
0.00024776
0.0157338
-0.000927451
1.90366e-07
0.0204188
-0.00630952
-0.0330504
-5.06415e-05
5.32401e-06
4.2718e-05
2.22649e-05
-4.37268e-06
9.16085e-06
-1.47754e-05
8.71195e-05
0.000256885
-0.00145954
1.56918e-06
2.95748e-06
0.0262469
0.14207
-0.073254
0.0565245
0.000974308
8.8712e-06
-8.4509e-08
3.10736e-05
6.00239e-06
0.0585062
1.84512e-07
3.26861e-07
6.51422e-06
0.113449
0.261658
5.71194e-06
0.000148327
2.23132e-05
0.000251277
2.80199e-05
0.000310148
8.82598e-05
1.77344e-05
0.0217623
3.44466e-05
-0.00645038
8.01366e-06
-0.068152
2.6158e-05
8.19155e-06
5.67899e-06
-0.000619403
0.000547091
7.82823e-06
-0.000330481
2.5511e-05
-0.000216758
-0.0984798
0.202716
0.0344173
3.13609e-07
-0.122139
-0.000189386
5.28184e-05
2.66983e-07
-0.000485514
-9.23181e-06
-0.0212186
0.0590754
3.40947e-05
6.57582e-07
0.140812
5.68511e-06
-0.0152845
-0.00810538
-0.00648472
-7.14679e-06
-0.000210996
-0.00589777
0.425156
0.0177001
-0.000263226
2.18214e-06
2.16021e-05
6.30508e-06
0.120886
-9.15914e-06
2.42454e-05
0.0380373
-0.0469344
2.85816e-06
5.94846e-06
-0.0161615
-5.68459e-05
0.133571
0.000320281
1.40054e-07
-7.00392e-05
-0.00140275
0.000125522
-0.151851
4.39719e-05
0.272639
2.14488e-05
1.68668e-07
4.97542e-06
0.00259694
4.54616e-06
-0.00593335
1.00963e-06
6.37228e-07
0.00489514
4.04965e-05
4.07434e-06
2.15452e-06
2.6536e-05
0.120316
0.000248629
-4.89439e-05
-1.08572e-05
-0.000432352
6.91681e-06
-0.00132838
2.90477e-05
5.70712e-06
-0.00633503
3.78902e-05
0.00135868
-0.00061365
6.14197e-06
0.000109613
-0.138446
-0.00179758
6.98138e-06
1.76177
-0.0129266
6.61658e-06
2.80184e-06
0.00242827
0.0412069
0.000234582
0.00886291
-0.0154637
8.45804e-06
0.000133153
9.31546e-06
3.16359e-05
-0.000356598
0.104142
-0.00173661
-0.00299341
0.124816
0.124124
-0.000107794
1.66876e-05
0.0191244
-1.09151e-07
-0.602666
0.00227728
1.70642e-06
5.45462e-06
7.29511e-05
2.8331e-06
7.84948e-07
0.0139401
0.0557657
-0.00139136
4.09085e-05
0.0135625
5.46871e-06
0.138474
0.00764821
2.3898e-06
0.261794
0.272372
-0.019825
0.0198737
0.0200209
-0.00383124
5.65182e-06
1.31919e-06
-0.000345239
4.95636e-05
5.96206e-07
0.000272608
-9.23407e-08
0.0302796
-0.0212734
0.000227878
-0.00886489
0.039842
-0.0220805
-0.00553004
0.0102086
-0.000115855
-0.00852344
3.07142e-05
8.59123e-06
-0.409844
1.92355e-05
5.09252e-06
0.190824
6.20176e-06
-0.261268
3.01121e-06
-0.066526
3.36793e-05
4.45414e-06
12.7012
-3.91324e-05
-0.000339399
-0.0148679
-0.0404963
-1.55287
5.67812e-05
0.000291012
-3.31869e-06
0.000219163
0.0024539
0.000213268
5.52328e-07
0.0462552
-0.000117453
4.01547e-05
-0.000154435
3.91169e-05
-0.000137903
0.00445543
-0.000598978
0.000294416
4.74596e-06
-0.00453815
5.24777e-06
-0.00139717
-0.0196403
0.0183085
6.76589e-06
-3.06545e-05
0.0177448
1.51284e-05
-0.000337572
8.6313e-05
-4.29625e-05
-0.0513028
-6.41144e-06
4.94546e-07
0.0287104
6.40352e-06
0.137814
2.56619e-06
1.30809e-05
-0.000351302
0.0975218
1.23784e-05
-0.0384295
-0.0348576
9.54543e-05
6.05848e-06
-0.00762682
-9.23799e-05
0.00710709
-2.64147e-06
-4.1806
0.00123262
9.30938e-05
3.31392e-05
-0.00324348
-3.58021e-06
-0.00255812
2.61648e-05
4.12999e-05
1.63666e-05
8.65679e-06
-1.42456
5.84662e-06
3.19685e-05
1.26068e-05
-6.36357e-05
3.14746e-05
5.44715e-05
0.0300177
1.94176e-06
-0.0033184
1.10833e-05
4.7673e-06
2.60634e-06
3.50072e-07
3.98759e-05
5.04412e-06
0.000260927
-0.0243038
0.000144126
4.3333e-05
2.99341e-05
3.6913e-07
-0.0236887
6.91046e-06
0.0184875
0.0390726
0.0100015
-0.000437428
4.2082e-05
4.89803e-05
1.34369e-06
-1.06096e-05
0.00376702
-1.98239e-05
-0.00799088
0.000212769
0.072045
0.000110201
2.02282e-06
7.64833e-06
-0.00213649
5.73737e-06
5.58033e-05
-0.000815438
-0.0110604
1.60557e-05
-0.0423023
4.92303e-07
1.23234e-05
-1.67158e-09
2.13215e-06
-0.00936929
0.000239658
-2.22024e-07
0.000113013
0.000759036
9.81495e-05
0.000391895
-0.0149254
-0.000258349
0.00309599
0.00122126
2.40929e-05
3.70266e-06
0.000483004
0.087592
-0.0658361
0.136765
9.27781e-05
-0.0254619
0.00082412
1.18767e-05
2.68958e-06
0.000789764
2.47688e-06
0.000105575
0.0422262
5.44424e-06
4.99293e-06
-0.0149777
-0.171753
0.000355785
0.250793
3.87699e-06
-0.0543691
-1.0524e-05
-0.0736907
-0.000583566
6.04044e-06
0.137381
0.00226784
3.85633e-06
8.82076e-05
5.03766e-07
0.00258187
2.67651e-05
-0.00664988
0.16236
-6.02942e-05
0.0228781
5.53341e-06
0.019987
6.25674e-06
2.69208e-05
-3.63208e-06
-8.24636e-05
3.52112e-06
-0.000280022
0.137202
-0.159643
-9.63633e-05
4.70753e-05
-0.00441445
2.06826e-06
1.19506e-05
1.325e-05
0.580217
3.10739e-05
-0.0753462
0.0682327
-0.00137342
9.47894e-07
0.000135101
0.00537461
-0.00102241
2.45431e-05
-0.000227529
6.75494e-06
9.21443e-06
6.49344e-06
-0.395564
4.41549e-06
6.01298e-06
0.140582
4.53039e-06
0.000136138
0.00239596
7.2768e-06
0.0192343
3.95007e-05
-0.0640865
2.33667e-06
0.104019
6.52814e-07
-0.00613433
0.203031
8.04569e-06
5.87566e-06
4.8316e-05
0.0150593
9.79427e-05
-0.00527457
4.53835e-05
1.84358e-05
0.00556655
-0.000109136
9.3927e-06
0.229752
2.76015e-05
5.27181e-05
0.00251307
6.81392e-06
4.43789e-06
2.69763e-06
6.16288e-05
6.71476e-06
-1.1246e-05
0.016677
-0.162159
0.00345379
-0.0262887
0.000773349
9.42914e-05
-0.0449525
0.0236829
4.79008e-06
-0.0377438
0.152624
0.018233
0.576048
2.33688e-05
0.0292705
0.12221
-0.0638006
0.0718435
-0.0870747
-0.00045037
-0.000772894
-7.26616e-06
3.59535e-05
1.14187e-05
0.755762
1.90404e-09
0.00387992
-0.00510599
5.00805e-05
1.13533e-05
0.000100163
-8.21246e-05
-2.84515e-07
-1.55822e-08
5.18667e-06
-0.00355875
1.82434e-05
8.69123e-06
0.000237052
-0.00110583
2.06609e-05
0.00479999
7.55645e-06
-0.0034024
0.00206956
6.81015e-06
-5.52065e-06
4.72509e-06
-0.0685166
0.0125588
0.00151706
-0.0721382
-1.52507e-05
-0.000436789
8.72019e-07
0.000257825
1.00649e-05
-6.78349e-07
9.7623e-07
-0.0435619
4.91567e-06
0.000288933
-0.0675775
2.48781e-06
6.43882e-05
2.16191e-06
0.0245766