/*--------------------------------*- C++ -*----------------------------------*\
| =========                 |                                                 |
| \\      /  F ield         | OpenFOAM: The Open Source CFD Toolbox           |
|  \\    /   O peration     | Version:  v2012                                 |
|   \\  /    A nd           | Website:  www.openfoam.com                      |
|    \\/     M anipulation  |                                                 |
\*---------------------------------------------------------------------------*/
FoamFile
{
    version     2.0;
    format      ascii;
    class       volScalarField;
    location    "200";
    object      omega;
}
// * * * * * * * * * * * * * * * * * * * * * * * * * * * * * * * * * * * * * //

dimensions      [0 0 -1 0 0 0 0];


internalField   nonuniform List<scalar> 
13851
(
0.143039
0.0245024
0.0243736
4.72981
0.0220828
0.0265866
0.0243519
0.021851
3.785
0.0220442
0.0702813
0.0220811
0.02212
5.28823
0.0384992
0.145844
7.55674
0.0219703
0.365544
0.143168
0.0438587
0.0265196
23.1514
0.0222638
7.95549
0.0689316
0.32345
5.32779
3.55293
0.021778
4.44171
0.024358
0.140845
4.72088
0.0467011
3.52247
0.022274
10.5804
4.40694
0.0221013
4.48571
3.67663
19.1573
0.718182
3.89665
0.0219
0.0215826
0.139995
0.0236321
0.0221132
7.86652
0.0221698
0.145485
0.0315752
5.47392
0.022099
0.143009
4.35148
0.390906
6.16866
0.0220886
0.240848
0.0220967
0.0237814
0.240161
0.25736
8.47053
0.069853
0.0221586
4.4328
4.14309
0.0530767
0.0220329
7.45992
0.0334534
0.0238895
6.12902
0.0216791
7.60747
0.0219597
0.022178
0.434439
0.0459052
5.10886
5.8849
4.293
0.0267351
7.00039
0.0220352
4.46457
0.0222068
0.0244614
23.9531
4.19937
4.13054
0.415688
0.0219294
0.149659
7.52948
0.206675
0.154922
0.0437106
0.0473302
0.0220785
0.0218881
0.051174
0.0218895
4.17433
0.024459
0.0219423
0.0316449
0.0218986
0.185214
0.0677924
0.137937
0.0306604
0.0217832
0.0218078
4.91378
4.6097
0.256862
0.0218345
0.0221409
3.93905
0.287626
0.128711
0.0219282
0.0603167
4.26945
0.049467
0.0264456
0.0327713
7.88468
4.6274
0.0718316
4.12549
0.0660828
4.22647
0.0363238
0.0489131
0.400296
0.0226463
0.0220351
0.112601
7.10917
0.0236093
0.0216717
4.21846
3.57665
0.0629801
0.154051
0.177334
0.0727927
0.288878
0.0222766
0.0220558
0.0221032
4.26218
0.0450503
0.0237053
0.022243
3.53967
0.0502737
0.140263
5.12908
4.00814
4.08742
6.45691
0.0311822
6.08168
0.0221038
0.0217862
0.0631145
0.0221393
4.20802
0.366605
0.167165
0.0217728
0.0333894
0.163445
0.276903
0.669137
0.0303165
0.048971
20.8499
3.55088
0.140587
0.029645
0.0222103
0.0218333
6.90539
0.0449993
7.14342
0.0266717
0.0234558
0.147558
0.136508
0.0221778
0.0222447
0.0734458
0.406228
4.18964
4.34822
0.0385722
3.03291
4.11199
0.023697
0.0479471
3.83558
0.0259233
0.144815
0.022124
0.427004
0.0222352
0.0477523
0.0247097
0.0220924
0.240794
0.0222484
3.82738
0.0217707
0.143424
6.39007
4.15382
0.0292763
0.0485027
0.0222641
0.0969167
0.0220169
0.0469794
6.67606
0.0291599
0.0259081
0.0221177
4.2626
0.0217726
19.0271
4.29895
0.178802
0.0222513
1.56026
5.53982
3.98053
0.143593
0.0345534
0.15175
0.216753
0.0334825
0.386559
0.0336676
6.32202
0.150677
0.0218528
0.0264559
0.151261
3.48184
4.74147
0.0218294
0.134827
0.0220324
0.201285
0.285125
0.0268708
0.0509099
0.154187
0.021992
0.0454714
0.118802
4.3549
0.022083
0.0220899
0.0293705
4.31181
6.62143
0.049111
0.0218544
0.276345
0.286303
0.123879
0.0502542
4.19358
7.86748
0.0273868
0.0349044
11.0395
0.0218795
0.0221025
0.127273
0.061018
0.0217704
0.0222324
0.0220089
0.022001
0.0343104
0.0220959
3.85061
0.0461221
0.021993
3.45793
3.97942
0.022194
0.144895
8.06986
0.0227784
0.02222
0.0482855
5.72955
6.6868
0.0694633
0.0220729
6.04762
0.0220961
0.0758245
6.37837
4.22061
0.0235945
10.7867
2.68937
4.2139
0.174471
0.04627
4.26125
3.95385
5.16907
0.0223223
5.35308
22.7533
0.838748
0.762972
0.0237136
0.0688846
0.0300189
6.27198
0.0495382
0.0218763
0.021524
0.0281985
4.14285
3.235
0.0218708
4.10385
0.030281
0.0330858
0.0238578
7.15759
0.272985
0.148344
0.0244233
0.0253463
3.42416
0.0222199
0.301293
0.027264
0.0482118
0.0306811
0.0220316
0.0219906
0.17464
0.228633
0.15046
5.17672
3.48209
0.0236935
4.21932
0.253858
0.0217251
4.31212
0.0975247
6.24572
0.0275742
0.0728637
0.224277
8.38585
0.166836
5.37184
0.0227531
0.423341
15.1813
0.0314145
4.94064
0.0344005
4.43959
0.0343837
0.0412516
0.151034
0.311038
0.0220561
0.0268947
0.0658377
0.0335892
0.0219209
0.0494981
5.30384
0.022029
0.0481774
5.68629
0.024353
5.84583
0.0459153
7.1277
0.0265052
0.0649402
2.38444
0.293396
0.0503897
5.6677
7.39877
1.32515
0.021995
0.169215
0.0346306
0.0720325
0.0218489
20.2154
5.42151
8.25167
0.0252869
0.154344
0.243832
6.29167
0.021605
6.98162
0.355928
23.286
0.0347602
6.04865
0.0220444
0.022127
6.64436
0.260561
0.0220426
0.0245502
0.0491297
0.0218205
5.47019
0.0691613
0.0954585
0.0261225
0.0227691
0.0221873
7.53384
0.0219908
0.0221664
4.05526
5.33036
0.0259849
0.256757
0.0221035
0.0220947
0.0247321
0.152455
0.0453341
0.0219305
0.0230167
0.241151
0.023527
7.83665
0.0220763
0.0279224
3.97164
0.0361311
0.0215832
0.0221213
0.0260528
0.0223257
1.2948
4.16864
0.0348879
7.51157
0.0247771
0.0220577
4.19273
0.240387
0.0355997
0.0220471
3.91971
0.0348
8.63891
0.0220806
0.0330673
0.172301
0.0356322
4.03926
0.257938
8.08014
0.0238917
0.181211
0.0219881
3.49362
0.0459048
0.136391
0.0344055
0.0241809
0.036195
0.0635843
0.0220945
6.63288
4.0913
8.24593
5.842
4.17322
4.76763
0.297432
0.0282582
0.0222081
10.1057
0.0220468
0.02192
0.0303806
4.27284
0.0242704
0.0226442
0.0948776
0.0504683
0.0220483
7.36088
0.0219339
4.39113
1.17869
0.0219561
0.0235995
0.364348
4.58578
0.0217768
10.3811
15.1962
0.0217017
4.23891
0.360107
0.143195
0.0238611
4.02773
6.28763
0.0217188
0.377093
0.022147
0.0219345
3.71758
4.48866
0.0410285
0.0444698
0.0220475
0.058793
4.37694
4.21639
0.0218225
6.06122
0.0219271
0.0221661
0.0509375
0.0278755
0.0215985
0.0239055
4.28905
0.289907
4.17034
0.0239031
0.0220291
4.35085
0.0221799
0.170643
0.0279394
0.0335803
0.0344453
4.20215
6.38843
0.0264731
7.06512
0.0233673
0.0689871
3.74582
4.33935
0.022134
0.0219935
0.0476152
4.1851
0.256054
0.0577844
14.0199
0.0280133
0.0333307
8.67531
7.42153
0.174321
4.29381
0.192598
3.61506
0.0225392
0.387789
5.60718
0.0220783
18.38
6.15056
0.031167
0.0489335
0.022079
6.79915
0.0823897
16.3155
0.0219908
0.0221659
0.0265997
0.0497593
0.0220858
4.18585
0.0221602
0.184272
0.0239496
0.0736137
0.0220731
0.0220483
0.0481657
6.43716
0.0503353
4.09635
0.0330611
0.02183
0.021783
0.0635996
0.0230131
0.108295
0.024751
0.0350093
0.317937
0.0221817
5.68494
0.0222539
0.0985862
6.07397
4.08881
0.0283687
16.9093
0.0914804
0.311222
5.98896
0.0218894
7.19018
0.0302704
0.032575
5.58421
4.85721
0.0217363
0.105139
0.0221536
3.49836
7.00874
0.0222607
0.0744075
5.60533
0.0222637
0.0222526
0.0697539
7.02211
3.79609
0.0222269
0.15156
0.0233054
0.0220474
0.298192
0.15406
0.191316
0.0215863
0.119261
0.047415
0.0604285
0.0226657
0.0232892
0.0772313
0.0264522
0.129473
0.0529852
0.0530346
0.142104
3.46642
0.368698
4.89322
10.2223
0.146664
4.1601
0.0408324
3.80643
0.146747
0.0219292
0.0326134
0.314682
0.0274095
0.0219619
0.0219579
0.0991068
6.02712
0.0281128
4.18543
0.021834
3.9342
0.160846
8.6143
0.104775
0.026661
0.0243653
7.13879
0.18989
0.0392349
0.241226
0.022612
7.88858
0.0996962
0.188024
0.0338765
0.614432
0.0220418
0.0222457
0.0234119
0.0220466
3.74273
0.0220008
0.276417
4.22732
0.107507
4.25745
6.70911
0.193473
0.338484
0.0285699
0.02218
0.0220742
0.0216877
0.0217833
0.0221414
0.0695758
0.178432
0.0511307
4.93759
0.0232203
3.78192
0.0222935
4.64005
0.043082
0.0222836
0.0221329
4.09002
0.0267794
4.0783
6.15402
0.0467698
0.0712599
0.0216837
4.6048
0.0245063
0.0243072
0.364483
0.0221836
0.0226549
0.021876
0.0460785
5.70359
0.0301918
0.0342252
0.393055
4.13178
0.0291809
0.0271229
3.72262
0.0216846
3.64647
0.0222022
0.023539
7.3393
0.0843804
0.136643
0.0993405
0.050672
0.0222276
0.0222936
0.0745327
0.0225941
0.022235
0.0286348
0.377581
0.0219851
0.285551
4.26768
3.77462
0.097847
5.04287
0.0367762
0.0221756
0.164405
0.0218474
0.0269399
4.83507
3.46069
7.2249
3.86404
0.0223397
0.0222271
0.0724374
0.0231147
0.0218517
23.6015
0.204482
4.74606
0.0998052
0.0861069
0.022049
0.0217838
7.5883
0.0961475
0.0238774
0.022253
0.136198
0.210337
4.24581
0.0222604
0.022152
6.95767
0.022642
0.0344394
0.021825
4.32372
0.0219255
5.47077
0.0220748
0.158833
0.0410497
0.0726619
0.0341301
0.0220324
0.0245715
0.0220227
0.246181
0.0226567
3.86098
0.0226868
4.70667
4.25468
0.0321556
0.0220042
5.0091
4.25108
0.0269976
0.0838927
0.0220744
6.55164
0.0219511
0.314219
0.0220656
0.0220196
3.90741
0.034648
0.0221113
0.0319684
4.25014
5.49665
5.59812
0.0218323
3.96523
0.0220762
0.0219922
0.0222774
0.0214902
0.022234
5.71565
4.9647
0.022259
0.0221563
0.0413908
0.021899
4.74441
0.168786
4.70102
4.31917
0.0245317
0.129487
0.0220714
0.0439023
0.12624
0.0218715
0.0222105
2.03789
6.90768
0.0698976
16.5933
0.0643603
0.0221011
0.0435401
0.0852811
7.58075
0.0329467
2.32289
0.0984629
0.0222242
13.8977
12.3868
4.39656
6.72458
3.65536
0.0238428
0.146782
0.0221677
2.19787
0.0268612
0.0218782
5.59011
0.023101
0.0220051
0.0221343
0.0229423
4.21914
0.304111
0.0218753
0.0441944
5.53089
0.0232875
16.1258
0.0232486
0.081386
4.40752
0.0220988
0.242974
0.0303436
0.0337074
6.11472
0.0230866
0.411585
0.0640497
4.43451
0.0222296
4.46972
0.0311201
4.20835
7.94029
5.79111
0.0466718
0.0220474
0.0223464
0.0222636
0.0392797
0.0221237
4.1084
0.0294454
0.0280638
0.0289189
0.0237783
0.0218297
0.0268865
0.0279739
0.0236032
0.0275499
5.5736
0.234083
0.0302614
0.0523217
5.67616
0.0226948
4.16663
0.021696
0.0336265
0.0226632
0.0219585
0.0464345
0.0220526
0.0218697
0.0460305
0.0220623
0.351267
0.0228359
19.227
2.6432
0.227155
0.313228
0.0220993
4.16218
0.16667
0.0222266
0.0278588
0.022558
4.27876
0.0232245
0.0451087
4.49061
6.44141
0.0878133
0.0221753
4.14587
3.58754
3.74918
0.0302417
0.0218207
0.0218046
0.0696403
0.0220453
7.60554
0.175556
0.0221987
0.253049
0.362973
0.0218608
5.75495
6.08788
0.199075
0.0228022
4.12583
0.0692004
0.0220229
6.23023
0.026958
0.0218467
0.0219469
0.0321233
0.0397107
3.97875
4.80088
0.0416364
4.08519
0.034036
0.0220269
0.0845772
0.0219638
4.36902
0.0218418
0.0220468
0.0241486
0.0225529
4.24693
5.63742
0.261236
6.57933
6.89168
0.0292216
0.0220342
0.0228413
0.431844
0.0218224
0.0219041
0.0451952
7.68024
0.228764
0.0216433
0.0402698
0.0344109
0.145473
16.2095
0.0216971
0.0215861
0.0235256
7.88337
0.0286052
4.35762
0.0232677
0.0221634
0.0218497
0.0219404
0.0246808
0.193302
3.66687
3.98415
0.0288882
0.0220581
5.75667
0.0223268
6.22138
4.92727
0.030765
5.30916
3.67135
4.58982
0.0544407
0.0326832
3.80438
0.0313218
0.0341062
0.0748009
0.318843
0.0225537
5.41943
0.0220287
4.68348
8.06086
0.0217001
0.0239645
0.0473301
0.419652
0.0344334
0.022143
0.0281663
0.0232176
0.0258322
1.28538
0.0221634
4.30285
5.74345
0.0220321
0.0315604
0.0395157
0.0220842
3.40181
15.4682
4.20302
3.43719
0.0220415
0.0248379
0.0269618
0.0222809
0.257097
0.0347649
0.0222568
0.0631274
0.025873
4.8294
0.0411563
7.17873
0.0231227
0.0233091
0.0512417
0.0969374
0.0755137
0.0219943
17.3229
4.10876
26.2852
4.41941
4.76901
3.98615
4.3637
0.0219979
0.02203
0.022014
0.255032
0.0448116
0.0752028
7.08844
0.022168
0.0216648
0.0220458
0.23117
0.0216615
0.0268493
0.0237972
4.046
0.0229682
0.0218551
0.0220878
0.0219841
0.022163
0.0346119
0.255878
0.0342292
5.48044
0.022037
0.0219412
4.28196
4.4439
6.72716
3.77806
0.0488027
3.86556
0.021816
0.0632774
0.0233112
0.0220803
0.0242079
4.91737
0.0230581
0.0984255
8.27734
0.0222439
0.0219463
0.0264591
0.199167
0.022272
4.04512
0.0219975
0.235467
0.0221259
0.022258
0.0270846
0.100552
0.0221281
0.367418
4.17617
0.197221
4.70054
0.022045
6.33815
0.755654
0.0220515
8.23787
0.0222725
0.0425441
0.0222139
0.0220943
0.0219634
0.022046
0.0224692
0.0273187
0.0687261
0.0222403
0.0220971
0.0630818
0.0217138
8.11838
0.0221263
0.0327816
0.033713
5.10653
4.41556
0.0221481
0.200996
0.0218197
0.0303844
0.0727464
3.54312
0.048863
0.0222724
0.11473
0.0773659
0.0857685
0.992255
0.0360609
0.15704
0.0579259
0.0691506
0.0229356
0.0218486
3.78717
5.4239
0.0248018
0.0220192
15.4559
0.0218374
0.0435149
0.0219666
0.0865248
8.85466
0.0215321
6.13018
0.026417
0.0221709
0.163527
0.0218787
0.0408459
3.35837
0.0414184
3.83619
0.0219584
0.022265
0.0442394
0.0222267
0.0222466
0.0279938
0.0301257
0.0693811
0.0908464
0.0221016
0.040241
0.0218363
0.0220647
0.0222159
0.0220542
2.35059
0.0218751
0.0232852
0.255185
0.0218324
0.0220078
4.41349
0.02225
18.6146
0.0232225
4.54697
0.260487
0.0525243
6.08789
0.0690465
2.15776
0.022405
0.216455
0.0274097
0.0218353
0.0219043
0.0232636
0.0315664
0.0219758
0.0561431
0.0219085
0.0232934
16.8227
7.81242
4.75557
0.02415
0.0466951
5.10412
5.41117
0.0221739
0.0265301
2.15749
0.022183
0.0419572
6.04724
3.99832
0.0272657
0.0435421
0.0228307
0.38796
0.0222853
0.0362231
5.86347
0.0221756
0.0218658
8.28281
0.0455523
0.264529
4.78955
0.100131
0.0224274
0.0219124
0.022294
4.66367
4.81823
5.42424
0.0591082
0.0220479
4.58862
0.0221098
0.180058
0.0266722
0.0232981
0.0442092
0.0220602
5.98156
6.90921
0.021658
0.0698929
0.0460649
5.76992
0.0464649
0.0571159
0.261707
0.0338029
0.22991
0.0602032
0.0221126
0.0355834
0.0827614
4.1345
0.0220377
1.62887
0.0491155
0.0600536
0.0222728
6.77457
0.02626
0.023676
0.021861
0.0405899
0.0393663
0.0573203
0.0221287
0.0227225
0.0592865
24.9147
0.063775
0.0221581
0.0226354
0.0354257
0.253771
0.0221728
0.0947879
10.6704
0.0493222
4.25719
0.0391712
8.00749
0.401281
0.0219982
3.66384
0.0222385
0.0251919
0.0326821
0.0350235
0.107021
0.0464195
0.0441784
0.0462842
0.0318229
0.0242515
0.0216547
0.0866721
0.0255578
0.0289344
3.77485
0.0264492
0.0307284
0.0219547
4.88032
0.0874556
0.0221009
0.0247562
0.0232744
5.91111
0.171003
0.0326551
3.89427
0.714363
1.39451
0.0985639
0.240972
0.021898
0.318885
0.0218929
0.0268885
11.1216
3.37883
0.426119
2.62382
0.022122
7.1979
0.0218947
0.0831711
0.025353
3.72391
5.63113
0.0258498
0.0220238
0.380603
0.0435103
0.0220246
4.19938
0.0220699
0.0237561
0.0255439
0.0222059
0.0314674
0.0233483
0.0220465
0.0354699
0.564689
0.0410307
0.0638449
0.0220207
6.61545
3.43622
0.0220055
0.246674
0.025289
0.0292869
5.23798
0.0220022
0.0227163
0.0280508
4.28701
0.022034
0.0221831
0.0413755
3.69287
0.0219886
0.0324303
0.0347845
3.35468
0.0482038
0.0410637
0.247353
0.0220749
0.123825
0.0217154
6.76827
0.0307223
0.0220498
0.0269356
0.102679
0.022151
0.0221583
0.149982
3.98482
0.0223131
6.05982
0.0221885
0.0217049
0.0676369
0.0220371
0.0218739
6.39239
0.0222739
0.0414085
0.160283
4.34506
2.27872
0.0218042
0.0240214
0.0281442
0.0220758
0.022045
0.0220968
3.17188
0.0221963
0.21753
0.1221
0.0218574
0.0217253
0.0306493
0.12204
0.249834
0.057015
0.0649494
0.0239326
3.84393
0.0819513
0.0302331
0.0409334
0.0683521
0.0978422
16.9365
0.0377495
3.73839
4.69127
5.13375
0.0247064
0.0219743
0.0394174
0.0342571
0.0218111
0.022318
0.142159
0.0222437
0.0223349
0.0220535
0.0215882
0.023484
0.0220445
6.39048
0.0220208
9.31716
0.0220832
0.0922214
0.0225895
0.124707
0.0825303
0.0220516
4.95824
0.0239687
0.0222265
0.0402141
0.021825
0.031065
0.0219703
3.79406
0.0243146
0.0434695
0.105342
4.913
0.028789
0.224263
2.84684
0.0529711
0.0220966
0.0229773
0.116387
0.0674164
7.2477
0.0217752
4.725
0.0221046
0.0915351
8.23563
0.0372899
3.62355
0.0254608
0.0329103
0.0249774
6.66853
0.0318945
0.0221423
0.050473
0.151461
0.0234665
0.0220414
0.0221437
4.34015
0.0222528
0.0280111
4.50108
0.0262434
0.0219948
0.0588464
0.0251725
4.77247
0.0216645
0.0220243
0.0218698
0.0260555
0.0223901
0.0221171
0.0644809
4.22548
0.0219793
0.022103
5.33225
0.0221944
5.73016
0.023585
6.32251
0.0218694
0.0244287
0.0218181
3.8668
4.73763
0.0307451
0.0735892
0.0268807
0.0219576
0.0221172
3.86897
0.0221371
0.0824456
0.0217878
0.0416604
0.0221909
5.48344
0.021844
0.0448157
0.0218697
0.577981
1.23816
0.021806
0.0456901
6.50295
0.0686611
3.97699
3.50686
0.273907
0.0234058
0.0346751
0.10004
4.95614
0.0221268
0.037685
0.028212
0.0219929
4.04778
5.58547
0.0699199
0.165092
0.382296
0.0342735
4.37169
0.0218041
0.0218005
0.104879
7.38659
0.247379
0.172489
3.17277
0.0218172
6.86008
3.83339
9.01187
0.022203
5.4147
4.81063
1.32882
4.24382
3.79306
0.0855532
0.0310735
0.183937
0.0256641
0.021984
2.48997
0.0955653
0.021638
4.9298
0.0221896
0.029722
0.0432888
0.026814
4.4446
0.0350938
6.02183
0.0439306
0.0262028
4.57493
4.52467
0.14719
0.0223693
0.0258324
0.0756327
0.0606919
0.0218365
0.0496361
0.0642737
0.154806
0.0219843
0.209326
0.024462
0.0510059
4.20115
0.216562
0.0230734
0.144335
4.48923
0.0221744
0.0228405
8.18713
0.377932
0.0245177
0.0248205
0.0220926
0.0781817
0.0253845
3.66811
0.106726
0.0225258
0.0222234
0.0668309
0.0301748
1.04153
6.53452
0.0218859
0.0220365
0.0281844
0.0221952
0.0243127
0.0229626
0.0227976
0.0258192
0.0219469
0.024989
0.0221869
0.0469661
4.68966
0.0222643
5.49942
10.767
0.0217147
0.261706
0.144019
0.0914887
0.0227476
0.0949549
0.0272964
0.0817213
0.0300578
0.0233325
0.0222095
7.11319
0.0277156
3.83425
0.0227256
0.0220401
0.0220259
0.0736716
0.0219734
0.0509064
0.06079
1.84449
0.0219251
0.288727
7.7103
4.03281
0.0218095
0.15042
1.0667
7.80982
5.1423
0.0225449
0.0223019
0.17694
2.82107
3.42763
0.0413443
0.245997
0.0222315
0.0218545
0.0411021
0.0221969
0.0221303
0.176374
0.0222656
0.0927001
0.0218595
4.5854
5.35606
4.82501
4.17024
4.17502
0.0221287
0.0221463
6.42434
0.0217893
0.0218169
0.0217058
0.131756
4.71832
6.5999
0.0276851
0.0220806
0.0232352
0.0381233
5.33378
0.022038
3.56807
4.67716
0.02219
0.0221783
4.04167
0.0782675
0.0232307
0.0220439
5.63794
4.3323
0.0220016
0.206594
0.0222539
3.9593
3.6437
0.0233926
6.51258
6.55668
5.51188
0.0218441
0.0221262
0.0222455
0.0222862
4.53457
0.0219224
0.265208
0.238662
8.73142
0.0227033
0.0606945
0.60544
0.0503498
6.3929
4.15637
0.0216358
0.0257148
0.0259051
0.139649
4.32647
0.0215749
5.46319
0.0327327
0.0429986
0.0227535
0.0219499
0.320295
0.0414217
4.74444
0.0221967
0.0573516
0.0226131
0.126558
0.0242823
4.14709
4.30757
0.303445
0.0936004
0.0219777
0.0240025
0.0882699
0.238285
4.26481
6.39417
0.0221499
3.72336
0.0952062
4.62841
0.026451
0.0449672
0.0408035
0.0221077
5.55739
0.0220714
0.0330501
3.52808
4.51433
2.07042
4.56281
0.0287467
0.0499682
0.0217545
4.59992
0.0276395
6.92117
0.021742
4.87923
0.021539
0.0220067
0.0325912
0.0315546
0.0329157
0.0219898
3.75059
0.0434314
0.0219254
0.0388063
3.93917
0.684548
0.0220405
4.35435
0.0245247
0.0341148
0.0319802
0.0216953
0.0658888
0.0220002
10.6169
0.0850389
0.0266877
0.0220326
0.41118
0.040848
0.021741
5.13978
5.21524
0.266193
0.0216425
2.84593
0.022142
0.157489
0.0275769
0.127922
6.33558
3.90468
0.0347747
4.58678
0.0511862
0.0287914
0.0218337
5.22172
0.121153
0.109023
0.0625826
0.0222436
3.75468
0.0914332
0.426184
0.255499
6.07812
3.7033
7.39853
4.89361
0.0293218
0.0318134
0.022097
0.022097
0.0215949
0.179664
0.0295363
0.0332297
4.40102
0.0219473
0.0218624
0.040996
0.151694
0.0280388
0.0218188
4.22974
0.0243635
0.0462732
0.0222261
5.52792
0.0289376
5.69368
0.0576034
0.0346465
0.0542444
0.02209
7.82333
0.528292
0.072327
0.0220552
0.0219122
6.77854
4.28225
3.45649
0.0218625
0.0735782
1.46689
0.0220655
0.02201
0.0221102
4.60892
0.104654
0.0353569
0.0270311
0.0260774
4.76354
0.0939398
0.271958
0.0262049
0.0330087
0.0215807
0.136436
0.0570532
0.0220215
3.81455
4.1919
4.1503
4.01118
4.53405
7.8773
6.34726
0.0231272
0.0218403
5.89027
4.98383
6.95642
0.0220823
0.0410111
0.0220481
0.0219753
3.36749
4.61352
0.0648803
0.0220076
0.306886
0.0968691
0.0502046
4.26118
5.04779
0.247182
0.0219174
4.12305
2.76366
0.39923
0.0320536
0.0435086
0.0221763
0.0218821
0.040006
0.0468505
0.0246019
0.0404612
0.0280489
0.0251883
0.249597
4.09961
0.0318729
0.0422485
4.07814
0.221225
0.0221114
0.479731
1.03914
4.78632
0.0423417
0.0221609
0.0299137
0.0272117
0.0304818
0.0216936
0.0331969
0.0313008
0.0458516
0.26599
0.0222307
0.0231077
3.79153
3.94685
4.40315
0.61003
0.112553
0.0215224
0.0220468
0.0308619
0.0217468
6.26426
0.0220404
0.0222736
0.0217311
3.75097
19.9441
0.0224277
0.0633255
0.0287246
0.0359793
0.0305311
0.0352756
0.0408593
0.0384435
4.63472
0.0263164
4.67362
0.040173
4.37972
0.0298542
0.0219371
0.021828
0.0973857
0.151247
0.0218298
0.0400427
0.0300732
0.0605699
4.09284
6.22714
4.56817
0.0222734
3.36146
0.0300632
0.0373521
0.0220333
0.0715847
0.0238336
3.71764
2.22234
0.0406398
0.0220796
3.92005
0.027313
4.25057
5.09437
0.250153
0.0244415
0.136073
4.62702
2.70018
3.80258
0.0617067
0.0219663
0.04078
0.0218569
8.77889
0.0248
0.0324111
0.278926
4.32119
0.0219311
0.0219701
4.1129
0.0428644
7.79694
0.0327828
0.0220449
0.043886
0.223948
0.0437174
3.66616
0.0367431
1.99903
0.025323
0.0222454
0.0219556
0.307851
0.0226739
0.136816
0.0220513
0.0220291
0.286954
0.0261345
0.0221142
0.0220401
0.0361698
1.37419
0.0425245
0.0402609
0.0264761
0.0625802
0.0220503
0.168335
0.0310212
0.0441659
0.0701066
0.0276203
0.0903195
0.0457235
0.0218374
0.0684113
6.11287
3.33364
0.0221211
3.03738
4.25294
0.0219754
0.0226702
0.91352
4.22346
0.0278944
4.13431
0.41939
0.02203
0.0853998
0.0215931
0.0261756
0.0630442
11.193
0.563416
0.249294
0.416367
3.91864
3.93306
0.0233012
3.75446
0.0220396
2.95678
3.99482
0.0221012
0.0220836
3.48903
0.0221183
0.0220862
0.257098
4.51586
0.241967
0.026107
4.13607
0.022104
4.08009
3.88001
0.0221904
0.804685
7.76498
4.44753
3.60566
3.79065
3.70506
0.0218871
0.0232117
0.0633588
0.0658039
0.0220806
0.217478
0.0220432
3.70604
0.257612
0.0498906
0.267276
3.6451
0.260789
0.253443
0.0615998
7.52396
0.547809
0.0252537
0.0216374
3.25456
0.0352931
0.0217848
6.47167
0.021987
3.44636
0.0221455
4.56466
0.0254098
0.0219899
21.667
0.0275062
0.0357785
3.76393
6.47788
2.78983
0.0275933
0.0440828
0.0233649
0.0390648
0.131266
0.0401423
0.0222098
1.7626
0.0630438
0.0336114
4.03429
0.0414835
0.0376313
0.22364
0.0764152
0.0445744
0.0219854
0.215471
0.0218273
0.129172
0.246168
4.44857
0.0218779
0.040189
4.47329
0.0232486
0.0667912
0.0308669
0.0431489
5.86501
0.0623936
0.0234528
16.1203
0.0218881
3.89495
0.0221264
0.0230209
0.127463
3.50843
0.033163
0.401327
0.65036
0.0312471
0.0222304
0.169113
0.0463949
4.33236
0.0265537
14.2923
0.148713
0.0310513
0.0298906
0.109124
0.0384356
0.0753243
0.0620355
0.0386943
0.0244604
0.0220803
3.07671
0.0220214
0.0291848
0.021604
0.111421
0.0295669
0.0612161
3.94522
0.0230175
0.250062
0.0215126
0.0221581
0.0221899
0.0222071
0.0263913
0.0219491
0.0868576
7.89178
0.0603519
0.0462864
0.0249929
0.0220643
0.226863
0.022038
4.50997
5.04485
4.65948
0.148058
0.0358012
0.0270935
0.022179
0.0299786
0.0991164
0.0438178
4.16108
0.0594892
4.65849
0.150149
0.0222104
0.0218465
3.38601
0.0219627
0.0300912
0.0651926
0.385362
0.0232749
4.39281
0.0221738
0.0260864
0.022049
0.0226475
0.171854
0.10798
0.022253
0.0322368
0.0356284
0.0467803
0.0578102
0.560937
0.38528
0.298911
0.135016
0.025888
0.0230474
0.0567669
3.48053
6.2864
3.97287
0.0318685
5.92841
0.1052
0.0228005
0.0220006
0.0610769
0.0221453
0.032027
5.38369
0.0219745
0.021823
0.637623
3.4286
0.0466202
1.84641
0.0221205
5.52604
0.0433816
4.43229
0.0295943
0.0220471
4.10712
0.0602054
0.0220385
0.0750546
0.0222534
0.170227
0.0295055
0.0553839
6.61724
0.0338724
5.31558
0.0219402
4.76177
0.022133
0.0264139
0.0225353
0.0476951
0.0221442
0.0567767
3.84066
1.13547
0.0506748
0.0326498
0.0789384
0.0219218
0.0219701
0.0230415
2.64407
0.0253992
4.67538
4.60339
0.15078
0.0222164
0.155193
0.245325
0.155269
0.0256933
4.79969
0.0219862
0.0215282
0.0219711
7.59249
0.0221016
0.0220247
3.96737
0.0219843
0.17371
0.1032
0.0217959
4.26997
0.0278162
4.52083
0.0219488
3.67201
0.0228983
0.0718745
8.83029
0.0671873
0.021955
0.0271039
4.68664
0.0318914
0.15985
0.0315213
0.026698
0.152066
0.0294217
0.0221932
22.561
0.0299162
0.0280053
0.144197
0.0219812
0.0218735
0.0221892
0.0305198
0.0221352
0.0260726
5.40296
12.6897
0.105136
7.20815
0.0606275
0.033922
4.39501
4.3966
0.0224474
8.90479
9.18401
3.9018
3.34424
0.0316777
4.66104
4.11481
16.9834
3.53423
6.0966
0.0433289
0.0854105
0.0296465
0.0259091
0.0221793
1.67741
0.0222852
4.72081
0.128328
0.362315
0.0215974
0.0751116
0.0465923
0.0235736
0.0222931
0.0221187
0.126642
0.023561
0.0222529
0.040117
4.14041
0.0243374
0.167763
0.0218346
0.129012
0.0853202
0.0221691
0.0269873
0.0219517
4.5982
4.52272
0.17087
10.6793
0.0337196
0.090493
0.0221323
0.0412755
0.0220664
0.0223485
0.0222341
4.90281
0.0217884
0.0449823
0.840864
0.0282539
0.031309
0.022006
4.56142
0.210981
13.0246
4.46092
0.179628
0.346554
4.30605
0.387112
0.226729
8.2767
0.12891
0.0339221
4.85743
4.66493
0.0220471
4.99562
0.162289
5.39384
0.0216157
0.0637886
4.67639
0.0222733
4.5744
0.0253812
6.68305
0.0220925
0.0221004
0.0698223
0.234709
0.0266146
0.066044
0.0218104
0.0221592
3.65425
5.61114
6.36468
0.0534502
0.0221751
0.0224405
0.0221369
0.0366137
1.20655
4.53876
4.47457
5.32007
0.0328597
0.021955
0.0219847
5.95135
6.01245
0.319874
0.0264235
0.0249418
0.0850859
4.66748
5.86412
0.0215208
0.0219672
4.94547
0.023115
0.268969
0.028052
0.0220792
0.0328976
0.0469748
4.65016
4.52108
0.0222024
0.021823
0.0249807
0.214575
4.73196
0.0222654
0.139041
4.33442
0.0215298
3.30716
4.18069
11.3295
0.0221106
5.21151
4.82621
0.0395326
0.332098
0.0245609
0.314253
0.386382
0.0257113
0.0219537
6.09426
2.76266
0.021867
0.147627
0.149796
0.0303088
0.293422
4.48559
5.33349
4.65608
0.0280886
0.0235471
0.0231508
4.33825
4.98891
4.73134
5.86904
4.6465
0.0217359
0.0448483
0.0220683
0.022116
0.0249398
0.0219734
0.022061
0.0221496
4.46601
13.1515
6.77914
0.0583169
0.205203
0.036096
0.0218682
0.0219882
4.47356
0.02214
5.97635
3.89547
0.0221801
0.0219153
3.60366
0.0225843
0.596802
0.0260946
0.0217562
0.0217324
4.42817
0.0216879
4.15692
4.23637
0.0215737
0.0478762
0.0219352
0.0229998
0.0218918
0.119748
4.09578
0.0219763
4.73849
0.498393
0.0240947
0.0219074
0.0226686
0.0236936
0.0222272
0.595556
5.36252
5.67222
0.0404226
6.17659
0.0222729
0.02606
0.0221757
0.185405
0.0234012
4.89352
0.0218656
3.98434
0.293829
5.524
0.160178
0.0218614
0.0445979
0.0219319
4.24047
0.0219551
0.0289028
0.0267734
0.0258453
0.0221668
0.0222512
0.0327301
4.81441
0.0221902
0.0229095
0.0241178
0.0339028
0.18047
0.0221893
4.96581
3.81805
0.0240251
4.8543
4.49076
3.66761
6.19194
0.0215406
0.0231045
3.88214
4.28006
0.146965
4.01827
4.48685
0.0330659
0.050483
0.0312455
4.32567
0.0220391
0.0219673
5.54945
0.132885
4.69677
0.0249752
0.0217132
0.022048
4.91316
0.0737333
0.0237324
0.246907
0.021855
0.0627819
0.031019
0.0313171
0.021998
0.0221899
0.0219271
0.0249294
1.45076
5.40366
0.0215826
0.0219322
4.26092
0.0220811
0.0644417
0.0259443
0.025516
0.0383947
0.0222858
4.23324
0.0303031
0.0252326
19.7594
0.0888695
0.0232859
0.0327435
0.0220357
0.0225183
6.51469
0.292107
3.46374
0.0223313
0.0221555
0.0625384
0.0271873
0.0220341
0.0394266
4.13576
0.0260827
0.0421347
0.0254616
0.126361
0.0221161
0.0217261
4.56866
5.3329
5.23637
0.0219819
0.163927
0.0216238
0.0220263
0.0694974
4.62751
0.0705746
0.0287067
0.167061
0.0228818
0.0302502
0.0509816
0.783049
0.0223505
0.021646
0.0225597
0.0238815
0.0272864
0.0219675
1.34191
9.6803
0.0221433
0.0322611
0.0224068
0.0216722
3.73706
5.82199
5.4333
0.0791993
0.022376
0.0583672
4.57235
0.104303
0.101118
0.0341499
0.0299501
4.99429
0.233326
0.868992
0.021768
0.0306798
0.0221138
0.0311107
6.55261
0.0216296
0.0411026
0.0253723
0.0302855
0.0230891
0.0218244
0.0218829
4.27313
0.0476551
0.0312709
0.0699971
0.0352234
6.68995
0.0314647
0.5011
0.0219339
4.53786
4.90912
6.6831
0.0222646
0.0326756
0.0220851
0.0219745
5.45367
0.0478376
4.56403
0.0220014
0.0453393
0.140151
4.56213
0.0280912
0.0216643
6.50514
0.0222853
0.0222842
0.0226227
0.0220385
5.75413
0.0218371
0.0218851
0.0366799
0.0273097
0.147811
0.135431
0.0332448
4.41485
0.0220141
0.183175
0.0218142
4.46915
0.0345022
0.508118
0.152409
2.94306
0.113807
4.3734
0.0232163
6.05481
0.0326814
4.74196
0.208757
0.0279649
0.232649
0.0221632
6.70725
0.0232529
0.0386325
0.0272033
7.70288
0.150854
4.12717
0.0311232
0.0220234
4.73673
0.252392
0.0571275
0.154291
8.1567
4.55646
0.0395833
0.289659
0.0439066
0.0218895
0.0492153
0.276311
0.0703901
26.9875
0.125676
0.0218006
0.021984
0.144385
0.0220867
5.51511
0.0727496
0.0220851
3.76982
4.17992
3.55368
0.11295
0.0220438
0.0290252
0.0257373
4.16694
3.68822
0.025729
5.02979
0.0218979
0.031631
1.23392
0.0220095
0.0414503
0.0219369
0.026525
0.0222514
0.167358
2.03348
0.0301727
0.0294969
0.0217293
0.147292
0.0219115
0.0218353
0.0332128
0.0219306
0.227115
4.50336
4.45524
4.25316
0.0217965
4.76678
0.0221901
0.0371214
0.137255
0.0220952
7.55672
0.0710002
0.0220533
0.021658
0.0432554
0.0380915
0.186715
0.253699
0.0257723
0.0240086
3.96867
0.0648535
0.305439
0.992441
14.4566
4.1362
4.60069
1.55661
0.0221562
0.0221153
0.047691
0.0222301
0.052082
0.0380832
6.15425
4.81709
6.70254
0.0217115
0.0217993
0.124378
0.32934
4.20717
1.60399
3.64635
0.0561675
0.0328259
1.43744
0.262943
0.0268037
4.454
0.0333149
0.0311734
4.28171
0.0429981
0.0220054
4.7457
1.01847
0.0248529
0.146242
0.0233977
4.19535
5.58579
6.18031
0.0220208
0.0216888
0.143266
0.0220218
0.0219637
0.0220248
0.0217381
0.0220295
0.0220355
4.46365
0.0282643
0.0467777
4.08671
0.0219069
0.0220438
0.0324915
0.0262051
0.0267457
0.0220514
0.0673845
0.0310685
0.0264217
0.0870631
4.32159
0.0220622
0.0441786
0.0220742
0.0220382
0.0215808
0.0220866
4.2007
0.0219236
0.0220335
0.0220998
0.0443938
4.08654
4.14385
4.62528
2.09927
0.0466715
4.24584
6.15654
0.0219618
0.0425518
5.84509
0.246264
0.022114
0.0286226
0.045265
0.0376353
0.0220636
0.0418464
0.0586484
0.0444347
0.0216363
0.0547871
5.74968
0.0215815
2.42124
4.538
0.0427099
0.674037
0.0362381
0.0220917
0.0259535
0.022023
0.242018
4.49163
0.0216978
0.0437635
0.021984
0.0219816
0.0222095
0.022286
0.0378258
0.0221735
0.131113
0.151156
0.0261063
0.0246963
0.046885
0.0220499
0.0444492
0.0336235
0.022414
0.0221039
0.0221428
4.71339
0.0220254
0.287546
0.043112
0.0222539
0.0220471
0.0217783
4.6064
0.025581
0.042961
0.0534137
4.65674
0.0281716
4.06818
2.62048
0.0432086
0.0219814
0.247542
0.0395341
5.0336
0.0722139
4.52435
0.0216677
0.0507824
0.0496608
4.31117
0.022016
0.0465668
4.76034
0.0218693
7.65903
10.0096
3.85302
0.0219882
0.0218083
4.70257
0.0220512
4.30612
0.176113
4.08608
4.46066
0.0218852
0.206673
0.248844
5.76613
0.0244018