/*--------------------------------*- C++ -*----------------------------------*\
| =========                 |                                                 |
| \\      /  F ield         | OpenFOAM: The Open Source CFD Toolbox           |
|  \\    /   O peration     | Version:  v2012                                 |
|   \\  /    A nd           | Website:  www.openfoam.com                      |
|    \\/     M anipulation  |                                                 |
\*---------------------------------------------------------------------------*/
FoamFile
{
    version     2.0;
    format      ascii;
    class       volVectorField;
    location    "600";
    object      ddt0(U);
}
// * * * * * * * * * * * * * * * * * * * * * * * * * * * * * * * * * * * * * //

dimensions      [0 1 -2 0 0 0 0];


internalField   nonuniform List<vector> 
13917
(
(-0.0184775 0.00467388 1.41187e-17)
(0.0121873 -0.012964 2.23165e-19)
(-0.000491261 0.024936 -5.82567e-18)
(-0.00149109 0.00104705 1.85531e-18)
(0.00563978 0.00325169 -3.78616e-20)
(0.0123428 -0.0106704 -3.77887e-19)
(-0.000476973 0.00421122 2.57558e-18)
(0.0121193 -0.0671173 -5.40446e-19)
(0.00190716 0.00154759 -1.45905e-18)
(-0.000161711 -0.000359332 -1.01761e-18)
(0.0114773 -0.0593958 -3.12934e-19)
(-0.00195559 0.000363935 5.49261e-19)
(-0.00426452 4.07682e-07 1.34498e-18)
(-0.0477379 -0.0231841 -1.01737e-19)
(0.00449051 -0.00343247 -1.06887e-20)
(-0.0157214 0.00318423 -1.82544e-17)
(-0.000886906 5.43222e-06 5.15394e-21)
(-0.00295851 -0.0460477 5.91518e-20)
(0.00099822 0.0189169 5.70618e-18)
(-0.00119966 -0.00339234 2.65841e-17)
(-0.010925 -0.00416585 1.21588e-19)
(0.000414054 -0.000109415 1.2893e-19)
(0.00102222 0.0105353 5.8313e-18)
(0.000385821 1.01986e-05 2.11042e-20)
(-0.00275646 0.00134394 -6.43611e-18)
(-0.0117466 -0.00724935 3.33299e-19)
(0.121464 -0.034557 -3.0052e-19)
(0.00055355 -0.000236849 4.04667e-18)
(-0.0136297 -0.0215425 5.60891e-20)
(0.00183797 -0.00130508 -2.31811e-20)
(0.00125718 -0.00178134 -3.4568e-18)
(0.00727644 0.0138846 2.75468e-18)
(-0.00205633 0.000871422 -4.64179e-18)
(-0.0222922 0.016805 3.13875e-18)
(-0.000865993 -0.00168586 -1.94396e-20)
(0.00769783 -0.0833215 1.88714e-20)
(-0.00273678 -0.00260659 -1.66655e-18)
(-0.00246602 6.1112e-06 5.40491e-19)
(-0.000237296 0.00425966 1.55486e-18)
(-0.0108027 0.00424255 1.25258e-18)
(-0.000529875 -1.87169e-07 1.72475e-19)
(-0.000396418 0.003706 2.03515e-19)
(0.000905967 0.00102384 2.51599e-18)
(0.00393227 0.019859 3.91167e-18)
(0.00353333 0.0195152 5.67753e-18)
(-0.010868 0.0242565 1.50457e-18)
(-0.00992514 -0.0037424 -3.53138e-19)
(-0.0352024 -0.0325011 2.05712e-17)
(0.0195112 0.00671623 -2.78411e-19)
(-0.00109027 -0.00164152 -1.66388e-20)
(-0.0019822 0.000334177 -9.74543e-19)
(-0.00575356 0.0184865 4.26212e-18)
(-0.0717267 0.00421574 -8.57671e-19)
(-0.00135919 -0.000723619 -1.91097e-18)
(-0.00152632 -0.000664933 -2.74518e-19)
(-0.00516151 0.01841 -8.4785e-18)
(-0.001706 -0.00341682 6.81638e-19)
(0.000652673 0.010429 4.95987e-18)
(-0.000812287 0.003486 1.00995e-19)
(-0.012422 0.0239637 4.4474e-18)
(0.193971 0.0293187 1.94211e-17)
(0.00852244 -0.00889715 6.48929e-20)
(-4.67308e-05 -3.48476e-06 -2.64407e-20)
(-0.00261834 0.00127753 -1.30557e-19)
(-0.0100142 0.0193622 -2.60391e-19)
(0.0172982 0.00327019 -3.41174e-19)
(-0.0123543 -0.0280621 6.98323e-20)
(0.0265819 -0.0764578 2.98606e-21)
(-0.00476862 -0.0552535 1.25606e-19)
(-0.0494833 0.00752715 7.87309e-18)
(-0.00672515 0.0214582 -1.34236e-17)
(-0.0260046 0.014553 5.95294e-19)
(-0.00131614 0.000312384 1.87419e-18)
(-0.000965352 0.00299432 -3.02953e-19)
(-0.0116632 -0.00345565 -1.92347e-19)
(-0.0035569 0.000472335 -2.17083e-18)
(0.0032106 0.00113116 -4.8764e-19)
(-0.00127273 0.00276366 9.39834e-20)
(-0.00338875 0.000462589 4.56499e-20)
(-0.0020163 0.000903094 -7.03622e-19)
(6.28074e-05 -0.00160746 8.38686e-20)
(-0.00105244 3.95981e-06 -1.21038e-20)
(-0.00139652 0.000270919 -4.19841e-18)
(-0.00798133 0.0285737 -2.01642e-18)
(-0.0030265 -2.53334e-05 3.30513e-18)
(-0.0421802 -0.0279784 2.49867e-18)
(0.00703606 0.0133787 -9.42147e-19)
(-0.00305512 -3.03946e-06 -5.95107e-19)
(-0.0108228 0.00358353 1.68907e-20)
(-0.000912172 6.56375e-06 -3.39268e-20)
(-0.000855594 2.12915e-05 -5.27488e-20)
(0.00114523 0.00101836 -5.42611e-18)
(0.0268632 0.0494069 1.14903e-18)
(-0.000168576 -0.000923745 -1.80438e-21)
(-0.00116099 -0.00147981 1.17053e-18)
(-0.0157694 -0.0243159 1.77738e-19)
(0.148465 -0.0203654 2.45155e-18)
(-0.00167486 -1.22602e-06 -3.854e-20)
(-0.00299754 -3.42273e-07 7.5775e-19)
(-0.0135378 0.0168976 1.44495e-18)
(-0.000302652 -8.55805e-07 8.02425e-20)
(-0.000278611 -2.53428e-06 -1.6489e-20)
(-2.19965e-05 -0.00172456 -2.71618e-19)
(-0.0016639 7.20915e-07 1.26735e-19)
(0.00306057 0.00140774 1.66591e-19)
(0.0109325 0.0510196 -2.38816e-19)
(0.0153512 -0.00385386 1.34125e-17)
(0.0092021 -0.00686099 -3.13464e-19)
(-0.000428618 0.00429474 -5.99423e-20)
(0.125095 -0.0454181 -5.9965e-19)
(-0.00371891 -3.50699e-05 7.7476e-19)
(-0.0178929 0.0174392 3.4242e-18)
(-0.0159385 -0.018261 6.76415e-19)
(-0.0266868 -0.0274945 2.46943e-18)
(-0.00931952 0.0198558 -1.79031e-18)
(-0.00390791 1.6799e-05 2.13256e-19)
(0.00141151 0.0186089 -3.87244e-19)
(-0.000713359 6.47609e-07 -9.74328e-21)
(0.000379285 0.0230403 7.65695e-18)
(-0.00138877 1.53246e-05 4.97872e-18)
(-0.00104803 3.38536e-06 -4.59155e-22)
(-0.000623248 0.0018892 2.58335e-19)
(-0.0146033 -0.0321436 -5.11786e-19)
(-0.00137376 0.0168355 -2.35561e-18)
(-0.0944566 0.0110842 2.55389e-19)
(-0.00811798 0.0282368 -1.34296e-17)
(-0.00242983 0.00129301 4.87362e-18)
(-0.0127283 -0.00365654 9.8575e-19)
(-0.00189284 0.000503239 -2.16779e-20)
(-0.00107695 0.017032 4.09599e-18)
(0.00378625 0.00507098 1.2082e-18)
(-0.0155238 0.0121518 1.90475e-19)
(-0.0218018 0.055502 1.68426e-18)
(-0.00387369 -0.000220303 4.51094e-21)
(0.00682444 0.0162216 -9.12088e-18)
(0.137766 -0.0543941 1.77206e-18)
(0.188268 0.0720105 4.85306e-19)
(-0.143883 0.00903032 2.35575e-18)
(-0.0129194 -0.00954584 2.20849e-20)
(-0.00248005 5.94608e-06 7.87113e-20)
(0.0954558 -0.00823354 -1.13863e-18)
(-0.00106695 0.00236088 -1.04797e-19)
(0.0121312 0.0510156 -1.93113e-18)
(-0.00124546 -0.000240753 3.01167e-19)
(-0.00154499 0.000305157 9.13607e-19)
(-0.000387214 0.00867703 2.2706e-19)
(-0.0071056 0.0222851 -6.75594e-18)
(0.01164 0.203996 1.45717e-18)
(-0.0232993 -0.024046 4.53336e-17)
(-0.00138677 -0.000743336 1.73282e-18)
(-0.0101028 0.00266824 -1.35248e-18)
(-0.000220999 -4.00661e-06 -1.67322e-20)
(-0.00157901 0.000262835 -1.05628e-18)
(-0.00142749 -1.84576e-05 -3.19999e-18)
(0.162439 -0.0272735 -4.24186e-18)
(0.000594609 0.00193581 -8.69101e-21)
(-0.00170017 -5.80863e-06 -1.48792e-19)
(-0.0423912 0.0548458 7.18299e-19)
(-0.000612241 1.21165e-06 5.52741e-20)
(-0.000637247 2.44235e-06 -4.86003e-20)
(-0.00195667 -0.00020546 -6.42608e-19)
(0.00434095 0.00908857 -7.99416e-18)
(-0.00149439 -0.00564019 1.99092e-19)
(0.0787852 0.0400067 6.02355e-19)
(0.0972567 -0.0203964 1.89814e-17)
(-0.00628565 0.0203959 6.04123e-19)
(-0.0455229 0.00202543 -4.91828e-19)
(0.0146703 -0.0629979 -2.15442e-17)
(7.70048e-05 -2.24181e-05 -8.67363e-21)
(-0.0145754 -0.0104325 -1.94664e-21)
(0.000566123 0.000216261 -1.0778e-19)
(-0.0141449 0.0453509 4.09745e-18)
(0.00192926 0.00133366 -1.18483e-18)
(0.165336 0.0401988 7.62319e-18)
(-0.00715102 0.013344 -5.528e-19)
(-0.000399748 -7.39835e-07 -1.35061e-20)
(-0.00143145 0.0010389 -1.49298e-18)
(-0.00654809 0.0194589 7.658e-18)
(0.00364958 0.00473684 -8.13608e-18)
(-0.00124708 -0.00624284 1.05542e-19)
(0.000722216 0.00124841 -1.2727e-19)
(0.000378046 0.000207214 3.76043e-23)
(-0.00199661 0.000277908 -1.30455e-18)
(-0.00200538 0.0206498 6.41681e-19)
(-0.000207217 0.022757 -5.84728e-18)
(-0.0149687 0.011149 -3.8059e-19)
(-0.00184999 0.00024329 1.35354e-18)
(-0.00225899 0.021156 -4.95293e-18)
(0.00169101 -0.00151497 -1.02018e-20)
(-0.0566207 -0.0342062 9.76742e-20)
(-0.00760104 0.0132045 3.41476e-18)
(0.00380608 0.0188341 2.23161e-18)
(-0.00232957 0.0192059 5.73182e-18)
(-0.0139255 0.00376043 -2.34818e-17)
(-0.000309736 -0.000966016 3.49218e-20)
(-0.0863923 0.0108348 6.2854e-19)
(-0.00389147 0.00296791 1.97416e-18)
(-0.00755621 0.0568513 4.10998e-19)
(-0.000725655 -0.00151256 7.91303e-21)
(0.00038981 0.00165536 1.01118e-19)
(-0.00838111 -0.00285254 5.32013e-19)
(-0.0432142 0.00685937 7.11823e-18)
(-0.141897 0.00715164 -2.04734e-19)
(-0.00142069 -0.00293765 9.62769e-19)
(0.0873876 -0.0209356 1.72062e-18)
(-0.00323632 -0.0148195 3.9304e-20)
(-0.0101277 0.00327907 1.80908e-18)
(-0.000664464 0.00221733 2.1679e-20)
(-0.005821 0.0191767 -1.09455e-18)
(0.000229136 -0.00158646 3.13564e-19)
(-0.00160533 0.00023838 8.12454e-20)
(0.00756521 0.00552844 4.34359e-19)
(0.00857955 0.005771 -4.87099e-19)
(-0.024261 -0.0297502 -1.23609e-17)
(0.0071228 0.0157597 5.09918e-18)
(-0.0131255 -0.0077005 -1.66572e-20)
(-0.000728222 0.0131523 1.11463e-17)
(-0.00266455 -2.1404e-05 -2.22703e-19)
(-0.000948547 -5.19555e-05 -7.22873e-20)
(-0.000921228 -8.68813e-05 -4.45068e-20)
(-0.0309946 -0.0696004 1.1933e-17)
(-0.00252268 0.0199708 1.11996e-17)
(-0.00235771 0.0226007 8.9068e-18)
(-0.00313572 5.08848e-05 1.17459e-18)
(-2.12781e-05 -2.95051e-06 3.18431e-20)
(0.13841 -0.0682042 2.82945e-18)
(-0.0812066 0.00831587 -4.11063e-18)
(-0.000948581 3.37783e-05 6.32013e-20)
(-0.00085666 4.16293e-05 -2.8197e-20)
(-0.000530234 -9.3225e-07 -1.67074e-20)
(-0.000910412 -0.000167544 -2.43113e-20)
(-0.00085822 -0.000209186 2.44914e-20)
(-0.0264612 0.0128065 2.61491e-18)
(0.0245941 -0.029001 1.02439e-17)
(8.11888e-05 -0.000890668 -6.26395e-19)
(0.000218496 -0.000113005 -1.16183e-20)
(-0.00421254 0.0148885 -2.03878e-18)
(-0.041187 0.0146725 9.11901e-18)
(-0.000717742 1.28284e-06 -9.92923e-21)
(-0.00326582 5.18091e-05 -1.5457e-19)
(0.103181 -0.0288687 -9.16966e-19)
(0.0189592 0.0544193 -1.8558e-19)
(-0.0022898 0.0202345 7.14818e-18)
(0.0017665 0.0133642 -1.69654e-17)
(-0.00895048 0.0155891 -1.95104e-18)
(-0.0012413 -0.00027932 -1.67343e-18)
(0.0758471 -0.0499362 8.25862e-18)
(-0.00393486 0.0153159 -7.61996e-19)
(-0.0142207 -0.0164239 -2.49825e-19)
(0.00192381 0.0156036 -6.86619e-18)
(-0.00163251 -0.00264406 -1.68296e-18)
(0.00988292 -0.0276719 -1.17621e-17)
(-0.00139358 8.60867e-05 2.17048e-18)
(-0.00742297 0.00787024 -1.17464e-18)
(-0.00659762 0.012671 2.76571e-18)
(0.000422543 -0.000831995 5.03992e-19)
(-0.000495478 1.5958e-06 -1.75605e-19)
(-0.00249688 0.00136076 6.0164e-19)
(0.00301824 0.0052224 2.8275e-19)
(0.0010143 -0.00124502 2.76274e-20)
(-0.0856561 0.0166495 -1.52461e-18)
(-0.0385586 -0.198562 -2.64438e-18)
(0.000221048 0.00122107 -2.74906e-20)
(-0.000855586 7.27953e-05 8.47467e-20)
(0.000907199 0.00193745 8.12172e-20)
(-0.000869215 8.59743e-05 -4.22749e-20)
(-0.00134985 5.81521e-05 -3.36613e-18)
(-0.00420241 8.35878e-07 -2.37781e-18)
(-0.00260217 0.00831552 7.70448e-18)
(0.000448586 0.00142918 -1.61357e-19)
(-0.153 0.0105331 -3.90032e-19)
(0.0191858 -0.00274833 -1.05333e-17)
(-0.00182989 5.84575e-05 1.42656e-18)
(0.0027364 0.00361266 -6.56524e-20)
(-0.0146387 0.0254433 -1.36028e-18)
(8.71275e-05 -0.000339732 -4.33967e-20)
(-0.0165093 0.0150564 -2.93283e-18)
(-0.0824548 0.0206154 -1.99799e-19)
(3.66661e-05 -0.000369066 -8.9238e-20)
(-0.0482661 0.0106738 1.757e-18)
(0.000886208 -0.00104886 -1.58763e-20)
(0.00200327 0.0100529 1.62269e-17)
(-0.00039664 1.75562e-07 7.55224e-20)
(0.00332503 -0.00294524 -1.59299e-20)
(0.000790104 -0.000858396 -1.55911e-20)
(-0.00104206 -6.22727e-05 -1.40451e-19)
(-0.00087929 0.0190243 4.54507e-18)
(-0.00211937 1.15061e-05 -4.33857e-19)
(0.0162803 0.0147224 1.24316e-18)
(-0.00566545 0.00331248 8.83798e-19)
(-0.0227633 -0.193605 -1.18016e-18)
(0.000700275 0.00912485 -1.08619e-19)
(0.016222 0.00224102 -1.16716e-18)
(-0.156759 0.00773664 1.10258e-18)
(-0.00072392 3.07228e-06 4.03485e-20)
(-0.00153849 0.0119527 -1.00243e-17)
(0.00393792 0.00449045 -4.04886e-19)
(-0.00417292 -0.000618415 -2.64691e-18)
(0.00503134 0.00354652 9.60136e-20)
(-0.00322258 0.00070424 2.50319e-19)
(0.00020791 -0.000981373 1.7652e-20)
(-0.00210025 1.30096e-05 3.88188e-19)
(-0.00799585 0.0191659 2.18933e-18)
(-0.0185503 0.0229538 -6.93548e-19)
(-0.00730523 0.00759963 -1.98515e-18)
(-0.00309789 0.000691383 -4.01852e-19)
(-0.0031067 5.82075e-05 2.52442e-18)
(-0.0293668 0.0567695 -1.33665e-18)
(-0.0356683 0.00470702 -2.709e-18)
(-0.0018116 0.00019795 -3.58377e-21)
(0.00180271 0.0101039 -1.54445e-19)
(-0.00418384 -0.00033768 -2.02126e-19)
(0.00475686 0.024281 1.47113e-18)
(0.0103477 0.0236566 6.71735e-18)
(0.0132303 0.00261207 -2.40983e-18)
(0.146134 0.0361289 3.91222e-18)
(0.0152222 0.00693032 9.9804e-22)
(-0.0138715 0.0126162 -8.32235e-19)
(0.00222671 0.00371988 3.18688e-19)
(-0.00742603 0.0277456 1.09411e-18)
(0.0071769 0.0292646 -1.94997e-18)
(0.000106836 0.0253252 -1.12561e-17)
(-0.0042927 -9.52945e-07 -2.7534e-19)
(0.00414379 -0.00311357 -4.28473e-20)
(0.10357 -0.0269621 -2.09406e-18)
(0.000825933 0.000741768 -3.91814e-20)
(0.0143196 -0.0146387 -3.13681e-20)
(0.00342771 0.0185109 1.32079e-18)
(-0.000870711 4.69449e-06 9.8475e-20)
(-0.0114121 0.0442292 -4.92022e-18)
(-0.00325493 -1.93834e-05 2.51133e-19)
(0.00828963 0.00482795 -6.78881e-18)
(0.00127734 0.000605341 -1.59178e-21)
(0.00623874 -0.00416942 4.36467e-18)
(-0.00175918 0.000143622 -5.55341e-20)
(-0.00670784 0.00729083 -2.11863e-18)
(-0.00476239 -0.015416 2.4798e-20)
(0.0131054 0.00571225 -2.25192e-20)
(-0.000863121 8.30809e-06 -1.12168e-19)
(0.0028095 0.0156889 1.09522e-17)
(0.000614896 0.0434279 1.86428e-18)
(-0.0013067 -0.00122891 -3.76734e-20)
(0.000757244 0.000954146 -2.85819e-20)
(-0.0140738 0.0201866 -6.97207e-18)
(0.00449569 0.0464817 -1.29611e-18)
(0.017155 0.0245225 -1.26535e-18)
(-0.0597308 -0.0483134 -5.64766e-21)
(-0.000132475 -0.000305401 -1.35048e-20)
(0.000103531 -0.00104767 8.60617e-19)
(0.0265261 0.0579398 -1.61232e-18)
(-0.0138514 0.0132984 -2.93051e-19)
(-0.000188663 -0.000332498 -2.02046e-21)
(0.00474701 0.00437999 1.25794e-21)
(-0.00189509 -0.000175871 -4.56813e-18)
(-0.0218677 -0.00023608 -2.52542e-19)
(-0.00682048 0.00757035 -2.62314e-18)
(-0.00259134 0.018099 -4.06179e-18)
(-0.0109455 0.0130958 -1.06416e-18)
(-0.0178545 0.0150173 5.25954e-19)
(0.00705921 0.00611726 7.83351e-18)
(-0.0141781 0.00997247 3.67276e-18)
(-0.00203805 0.000578034 8.11539e-21)
(-0.00139927 -0.00114458 5.94021e-19)
(0.00641502 0.00348621 -6.46513e-19)
(-0.00117046 0.0198717 1.02425e-17)
(-0.000750201 1.87197e-06 6.86199e-20)
(-0.0124925 0.00346334 1.10454e-17)
(0.00713761 0.00573758 -6.47289e-18)
(0.0144336 0.0142219 3.93322e-20)
(-0.00174209 -0.000747616 -4.54213e-18)
(-0.012671 0.0136163 -4.50616e-19)
(0.00263122 0.00877681 -2.06876e-19)
(0.0420443 0.117859 7.10825e-18)
(-0.00281601 0.00407264 -3.7395e-20)
(-0.00191543 0.0217729 -6.6268e-18)
(-0.0132651 0.0259923 -1.10955e-18)
(-0.00566287 -0.0174297 -1.42249e-22)
(-0.00191345 3.82605e-05 -1.09635e-19)
(-0.00365915 0.0186666 4.26213e-18)
(0.00169612 0.00115865 -3.60494e-20)
(0.108623 -0.0217737 -1.09106e-17)
(-0.00220649 0.01947 -4.96795e-18)
(-0.00341827 0.00410255 1.34616e-19)
(0.0377268 0.0935975 -3.89223e-18)
(0.00128896 -0.00077591 5.31889e-21)
(0.0105111 0.00229372 2.51911e-20)
(-0.000577546 -0.000234472 -1.83036e-21)
(-4.10977e-05 -0.00349251 -1.23404e-18)
(0.0110254 0.00227465 -1.25143e-19)
(-0.00289929 -0.00151812 3.72859e-19)
(0.123801 -0.070619 -1.07263e-18)
(-0.019647 0.0121531 -1.15724e-18)
(-0.00137431 -0.0023177 -3.78153e-19)
(0.0751771 0.00537296 -4.61388e-18)
(0.0242742 0.0347046 -1.00796e-17)
(-0.00283419 -0.000959608 -2.31226e-19)
(-0.00104728 0.0189779 -1.83948e-18)
(-0.000270414 -0.00102829 -2.81747e-19)
(-0.0216284 0.0134238 8.50217e-19)
(-0.000432285 0.0242388 3.65263e-18)
(-0.00303282 -1.06349e-05 4.38468e-19)
(0.000802271 0.00332887 1.03996e-17)
(-0.00306447 0.000869573 2.72854e-18)
(-0.0011919 -0.000148196 1.57342e-19)
(-0.0018488 -5.12396e-05 -5.33406e-19)
(-0.0020089 0.000750004 4.36779e-20)
(0.176757 0.0789675 4.76851e-19)
(-0.0136784 0.017289 1.12655e-18)
(-0.00129472 -0.000922172 -1.24898e-18)
(-0.00212292 0.00072181 2.84281e-20)
(-0.000116406 -2.41718e-05 -3.49881e-21)
(-0.00340318 0.0113867 -6.32545e-18)
(0.0710956 -0.0483398 -3.5627e-19)
(0.000723957 -5.96765e-05 -9.4484e-21)
(2.39039e-05 -1.71992e-05 5.82682e-21)
(0.009772 0.022962 -6.19066e-18)
(-0.0125716 0.0131099 3.33442e-19)
(-0.00097786 -8.23128e-05 -3.39943e-19)
(-0.00286569 -0.00138671 -5.96955e-19)
(0.0829691 0.0383335 -6.15383e-18)
(0.166629 0.0393832 -1.4308e-18)
(0.0137843 0.00413762 2.69576e-19)
(0.00104206 0.0193472 -1.23977e-17)
(-0.00632719 0.0278278 -2.31643e-18)
(-0.00162813 -0.00153877 -1.00729e-19)
(0.000477206 -0.00016649 -1.05227e-19)
(-0.00814471 -0.00557078 -5.01521e-20)
(-0.00194413 -4.26452e-05 -1.32152e-20)
(0.000718971 -0.000149671 5.653e-20)
(0.000110216 -0.000914851 -4.24641e-19)
(0.000465593 -0.000241613 1.77511e-19)
(-0.00135561 -0.00141354 7.27046e-20)
(0.0444372 -0.0481265 -1.10352e-18)
(-0.00031009 -0.00110224 3.71458e-19)
(-0.0106041 0.00549786 -6.35985e-19)
(-0.148793 0.0127896 2.74708e-18)
(-0.00187983 0.011663 9.51818e-18)
(-0.00165303 0.000261766 1.30905e-20)
(-0.00162302 0.000265091 2.35265e-18)
(0.0579762 0.00635908 9.05059e-18)
(-0.00842081 -0.00373136 -5.67641e-19)
(-0.0968832 0.00902502 -3.2259e-19)
(0.00110868 0.000321892 -4.3135e-20)
(-0.00253407 0.000180897 1.55654e-18)
(0.00196945 0.00112101 4.92565e-20)
(-0.000977738 -0.000326341 1.22102e-19)
(-0.00249142 -0.00257493 1.23722e-18)
(0.00159881 -0.000597538 -1.37539e-19)
(0.0673431 0.0386284 5.04939e-18)
(-0.0114764 0.0117156 5.48824e-21)
(0.0176586 0.0546865 2.43085e-18)
(-0.00243751 0.000178554 -2.68349e-19)
(0.00245391 0.00704583 -1.97278e-18)
(-0.00710344 0.0144396 -1.63062e-19)
(0.000166588 -0.00145583 -1.46163e-19)
(-0.00832206 0.0157162 2.82577e-18)
(0.0212604 0.0269409 3.12805e-20)
(-0.00176567 -0.000124558 3.60185e-18)
(0.177189 -0.00372605 8.25933e-19)
(-0.00168955 0.000316898 1.5034e-20)
(-0.00234845 -1.82256e-06 -1.11904e-18)
(-0.000138336 2.97634e-05 -1.73501e-19)
(0.00124227 -0.000905148 2.92594e-19)
(-0.00158272 0.000192224 1.507e-19)
(-0.00307793 -1.82814e-05 4.27089e-19)
(-0.032279 0.0549272 -2.06363e-18)
(0.190147 0.0362673 1.40891e-17)
(-0.00156423 0.00017592 -8.7715e-20)
(0.0194872 -0.00240148 9.49412e-19)
(0.00833532 0.0224543 -5.06148e-18)
(-0.00395908 -3.41528e-06 -1.05546e-18)
(-0.00223594 0.0126328 2.23699e-18)
(0.0154345 0.0112288 -8.50022e-18)
(0.0756595 -0.00390881 2.83016e-17)
(0.00137987 0.00356048 -5.55995e-18)
(0.00777982 0.0491378 2.2176e-18)
(0.017702 0.00529142 8.57642e-20)
(0.0177624 0.00265033 -2.11773e-20)
(0.00151711 -0.000753237 -1.04576e-19)
(0.0169916 0.00481 4.42295e-19)
(-0.00530491 0.016261 2.70837e-19)
(-0.00132567 -0.00256518 1.57395e-18)
(0.00647995 0.0224135 5.58972e-18)
(-0.000839533 1.96386e-05 9.14854e-20)
(-0.00141305 -0.000632207 -5.7908e-19)
(-0.00128791 -0.00139116 3.08837e-19)
(0.00134269 0.00260919 -5.29924e-18)
(-0.0103586 -0.00121941 1.88077e-19)
(0.000267702 0.0217297 -3.48105e-18)
(0.00258671 0.0120234 -9.26503e-18)
(0.00216115 0.00583043 -6.99269e-20)
(0.00310094 0.00403709 2.15476e-19)
(-0.0111816 -0.0422051 6.8497e-20)
(-0.0114374 0.00844953 1.99152e-18)
(-0.00133118 -0.000948229 -6.3262e-19)
(-0.0273866 -0.0304598 3.29478e-19)
(-0.00108743 0.00823346 1.64019e-18)
(-0.00540346 0.00348922 2.32126e-18)
(0.128473 -0.0119357 -7.14295e-18)
(-0.00330213 -2.17432e-05 -3.71729e-18)
(-0.0116314 0.00881059 -3.27028e-19)
(-0.00676711 0.0203087 3.69903e-19)
(-0.00189455 5.67489e-05 -2.30541e-19)
(-0.0967747 0.042471 -1.54843e-19)
(-0.0023427 -8.69643e-06 -2.63869e-19)
(-0.000912634 -0.000363618 -6.93212e-20)
(-0.00316971 0.0117384 3.79599e-18)
(0.00113481 0.00018432 1.98746e-20)
(-0.00265277 -2.12381e-05 5.09103e-19)
(-0.00859546 0.0184706 1.76133e-19)
(-0.0795588 0.0492553 4.94416e-20)
(0.12706 -0.094975 -1.1684e-18)
(-0.00213731 -0.000191439 1.70157e-18)
(-0.000942941 0.00108263 -5.12239e-18)
(0.00289061 0.00353064 -2.16885e-20)
(0.0045863 0.0262518 1.38131e-17)
(-0.0300411 0.0236946 -1.13768e-19)
(-0.00129894 -0.000889897 -1.10104e-18)
(-0.00145374 -0.000657462 -2.4806e-18)
(-0.00228394 -0.000166198 2.20813e-19)
(-0.00590113 0.0121596 4.04419e-18)
(-0.00575782 -0.142898 1.66528e-18)
(-0.0020462 0.000277755 -1.61524e-20)
(-0.000706621 2.41983e-06 -4.96464e-20)
(0.000154758 0.00165368 -1.29349e-19)
(-0.00136256 -0.000172631 -2.93956e-19)
(-0.0129415 0.00102968 3.72482e-19)
(-0.00334741 0.0049919 2.82868e-20)
(-0.000831264 1.56975e-05 2.70154e-20)
(0.00220051 0.0122443 6.19463e-18)
(-0.00195441 5.85059e-05 6.83376e-19)
(-1.77167e-05 -0.000223797 6.1785e-19)
(-0.00281533 0.000882184 1.28767e-18)
(0.00510708 0.00680066 -3.03927e-18)
(-0.000956459 -1.49827e-06 -3.0242e-21)
(-0.000267923 0.00203245 -6.95097e-18)
(0.000855236 -0.00138262 2.74712e-20)
(0.00229607 0.00674083 -6.51218e-18)
(-0.00184221 0.0142769 -4.65352e-18)
(-0.0271389 -0.0082711 -1.97271e-18)
(-0.0066666 0.0130722 -4.05941e-18)
(-0.0118308 0.0162589 -9.20781e-19)
(-0.00273044 0.000435971 -2.23499e-19)
(-0.00934708 -0.036368 1.91147e-20)
(-0.000506943 0.0554582 -1.68243e-18)
(0.0515628 -0.0383821 -2.67089e-18)
(-0.146774 0.0156481 -1.45555e-18)
(-0.00155794 -6.63096e-05 -1.85967e-20)
(-0.000293418 0.000192122 2.42121e-20)
(0.00282637 0.00624207 3.55991e-19)
(-0.00204772 0.000225566 -6.6717e-19)
(-0.00964672 0.0214365 -2.42318e-18)
(0.000181255 -0.000384488 1.01704e-19)
(0.0463827 0.07229 2.7423e-18)
(-0.00368214 0.0030646 1.47597e-18)
(-0.000362052 0.0403512 -4.63111e-18)
(-0.0150723 0.0163553 -8.06452e-19)
(0.00084731 0.00122694 -3.18024e-18)
(-0.00670634 -0.00452502 2.43554e-17)
(-0.00156523 0.000143716 -1.47074e-19)
(0.012229 0.0103975 -1.77789e-18)
(-0.00160108 -7.15649e-06 3.62438e-20)
(0.00286094 -0.000421537 1.602e-20)
(-0.000495205 0.0410337 -2.6908e-18)
(0.000916023 0.000103038 9.35718e-20)
(0.0045846 0.0292345 -1.15315e-19)
(-0.000106959 -4.2325e-06 -4.23464e-20)
(-0.00404428 -2.24318e-06 1.58743e-18)
(-0.000145283 0.000156336 7.00408e-20)
(0.000835726 0.0217 -3.2033e-18)
(-0.0141867 -0.00027642 -3.16926e-20)
(-0.000899259 0.000103664 -3.86642e-20)
(0.0049385 0.0201914 -4.31119e-18)
(-0.00252813 0.0123153 -5.20249e-19)
(-0.00109359 -0.0755282 3.35766e-19)
(-0.00650648 0.0227553 -6.45091e-19)
(-0.0254746 0.0601858 -1.64246e-18)
(0.0802329 -0.0108125 -1.27838e-17)
(-0.000978042 -4.45976e-06 7.35556e-21)
(-0.0677835 0.00875385 -2.30214e-19)
(-0.000138735 -4.75527e-06 -2.02747e-20)
(0.190673 0.062458 -8.92088e-19)
(0.0380634 0.181034 -9.58064e-19)
(0.00317545 -0.000370089 -6.61987e-21)
(0.00429134 0.00735579 -8.97643e-20)
(-0.000274252 -1.56014e-06 1.18294e-20)
(-0.00123618 0.00803454 3.3416e-19)
(0.000611637 0.00108496 2.97423e-18)
(0.000927271 -9.96742e-06 2.57836e-20)
(-0.00174413 -2.49001e-06 1.11691e-19)
(-0.00402506 1.81135e-06 -4.69145e-19)
(-0.00565283 0.0229341 -6.05077e-18)
(-0.00201347 -0.000199293 6.56525e-19)
(0.00738987 0.0123781 -6.88913e-18)
(-0.0013992 -0.000620488 9.63393e-19)
(-0.000860319 9.78164e-05 7.02469e-20)
(-0.000619824 1.24878e-06 -8.20148e-20)
(-0.00925206 0.0229634 7.78978e-19)
(0.0003941 0.0148976 -1.74926e-17)
(-0.00841189 -0.00644226 -2.25585e-17)
(0.00201663 0.015115 9.52994e-19)
(-0.00307882 0.00496699 -4.70277e-19)
(-0.00137676 0.0181166 4.76685e-18)
(-0.042581 0.01648 -1.62508e-17)
(-0.000549183 -0.000253766 -5.3164e-21)
(0.00328979 0.0245798 2.4946e-18)
(-0.00398444 -3.1646e-06 1.03299e-18)
(0.0180665 0.017124 2.86292e-19)
(-0.00204568 0.00020063 1.06953e-18)
(-0.00387449 0.019273 -5.31262e-18)
(-0.00135823 -0.000147235 2.57373e-19)
(-0.012877 0.00328287 -3.17163e-19)
(-0.00163087 0.000308935 4.32748e-20)
(0.0172533 -0.0473144 -3.073e-19)
(-0.00199769 0.00842888 1.36773e-17)
(-0.0121724 0.0175334 1.16222e-17)
(-0.000903941 1.50067e-05 -4.79674e-20)
(-0.00246315 0.00792372 -1.20595e-18)
(-0.00217674 -0.000889029 -8.59068e-20)
(-0.000265993 -1.71412e-06 -8.15431e-20)
(-0.0106102 0.0103645 -1.74226e-18)
(-0.000547488 0.0226877 2.20171e-18)
(-0.00198724 -0.00154805 -1.0816e-19)
(-0.00250702 0.0184617 -4.17378e-18)
(-0.00326676 6.48009e-05 -1.52258e-18)
(0.00251465 0.00016473 -5.26236e-20)
(-0.000211001 -3.3393e-06 4.89726e-20)
(-0.00754022 0.0127489 -2.37587e-18)
(-0.00210216 -0.000177176 -2.9177e-19)
(0.00360134 0.00518668 -2.91686e-19)
(0.000214742 -0.00033788 -7.25947e-20)
(-0.00181433 -0.00129971 -2.05989e-20)
(-0.00100737 0.0197024 -1.79219e-17)
(-0.00022554 -3.43656e-06 -2.35941e-21)
(-0.00168687 0.0179864 -3.15066e-18)
(-0.00119632 -2.16874e-06 -3.39046e-21)
(-0.00171636 0.00012101 -1.82071e-20)
(0.201864 0.0473961 -1.47639e-17)
(0.00757647 0.0128241 6.12383e-19)
(-0.00127435 -0.000851832 7.37413e-19)
(-0.152937 0.00257868 1.18242e-18)
(0.00550622 0.029175 -1.29745e-17)
(0.07306 0.00110937 -2.72905e-20)
(-0.00749423 0.0205056 -7.29263e-18)
(-0.00152743 0.000126924 6.50114e-20)
(0.00516349 -0.00323093 -2.16384e-19)
(0.00207369 0.00455939 -5.36878e-18)
(0.013953 0.0346127 -4.22396e-18)
(-0.00750726 -0.00497651 3.12283e-19)
(-0.00291762 -0.00232831 -1.65144e-18)
(-0.0135578 0.0043199 5.94893e-19)
(-0.00121916 -4.87193e-06 -3.70448e-21)
(-0.00159173 0.00081541 -6.28071e-20)
(0.0136374 0.00858507 -6.89408e-20)
(-0.00239179 0.014826 3.50848e-20)
(-0.00407254 0.00187156 -1.13347e-19)
(0.138585 -0.0282017 4.89586e-18)
(-0.0017455 0.00866304 -1.65329e-17)
(0.0635862 -0.0362575 8.68227e-19)
(-0.0224724 0.026263 4.61201e-19)
(-0.0129801 0.0228461 3.06773e-19)
(-0.00544108 0.00736992 -9.76769e-19)
(-0.00205573 0.018899 -1.44256e-17)
(-0.0440465 0.011861 -6.53143e-18)
(8.85663e-05 -0.00105037 -8.40074e-21)
(-0.00512966 0.0145068 -3.07816e-19)
(0.0116497 0.00950667 -1.36884e-20)
(-0.00172143 0.00010745 1.13352e-19)
(-0.00104156 3.41934e-06 4.97295e-20)
(-0.000595991 -4.05571e-07 3.31159e-20)
(0.00326722 0.00385829 -6.66469e-20)
(-0.00287328 -2.18522e-05 7.45865e-19)
(-0.0670347 0.00920779 1.03431e-18)
(0.0057012 0.004094 3.33147e-18)
(-0.00189096 1.82848e-05 1.18922e-19)
(0.00358985 0.017891 4.11848e-18)
(-0.000871939 1.57223e-05 7.53575e-20)
(0.0166551 0.00426117 9.46749e-18)
(0.00102355 -0.000909461 1.01345e-20)
(-0.00198689 0.000414633 -6.97815e-21)
(-0.0967303 0.0443102 -3.62779e-19)
(-0.00136294 0.0137016 2.30507e-18)
(0.0242848 -0.0579366 -3.05594e-19)
(-0.00142161 0.000484612 -6.55583e-19)
(0.00107859 0.00388266 2.04769e-19)
(-0.00181639 -0.000103465 -3.0305e-20)
(-0.00116706 0.000790172 -2.94295e-18)
(-0.000318658 0.0051587 -2.48997e-18)
(-0.00109797 0.000130121 6.05134e-19)
(-0.119873 0.00953012 4.0449e-20)
(-0.00638737 0.00401952 6.47776e-19)
(0.00516781 -0.0459438 1.30597e-18)
(0.0174944 -0.061394 -1.39277e-19)
(-0.00674734 0.0146609 -7.60189e-19)
(-0.0268032 0.0608092 4.55082e-19)
(-0.00101978 0.00113859 6.29813e-19)
(-0.00186188 2.49783e-06 -2.68679e-20)
(-0.00217238 -0.00106051 7.23689e-20)
(-0.0763207 0.0226803 8.79536e-19)
(0.119293 -0.0832456 5.51373e-19)
(-0.00407574 0.00309903 -4.52716e-18)
(-0.102332 0.0106156 -2.88535e-19)
(0.0158855 0.0545627 1.51433e-20)
(-0.00175832 0.00014962 -2.53471e-19)
(-0.00192309 0.000250256 1.53794e-20)
(-0.00228249 -0.00286979 -4.7781e-20)
(0.0031014 0.0454693 -4.13649e-18)
(0.0124651 -0.0690265 8.10337e-19)
(-0.00237455 0.00856656 -5.27411e-18)
(-0.00115811 0.000767421 2.69502e-18)
(-0.000389376 0.00212311 3.76115e-18)
(0.0191734 0.0173603 1.20182e-18)
(0.00194485 0.00329806 -3.92814e-20)
(-0.00221998 0.0179121 -3.31267e-18)
(0.00560106 0.00448586 3.568e-18)
(-0.00109369 -0.00141112 -6.42515e-19)
(-0.00219816 0.000876893 -2.34543e-18)
(-0.0018522 3.18593e-06 1.22769e-20)
(-0.000460913 0.00503728 3.07438e-18)
(0.00274178 0.00465198 1.34982e-19)
(0.0242647 0.0366166 1.29227e-18)
(-0.00445755 -0.0011252 2.47659e-19)
(0.00424916 0.00113797 1.03276e-19)
(-0.11151 0.00941967 1.84731e-20)
(0.00473874 -0.00411109 4.57541e-21)
(0.0254757 0.0618032 -1.24486e-18)
(-0.00280163 -0.00201123 3.47138e-20)
(0.00634435 -0.0104469 5.80292e-21)
(-0.00292344 0.00341139 -2.73513e-18)
(0.013154 0.0336815 4.10312e-18)
(-0.00103997 4.10814e-06 1.06808e-20)
(0.0120153 0.00912464 7.01591e-18)
(0.00216786 0.0151582 1.82954e-17)
(-0.0388666 -0.0224694 -6.37471e-20)
(-0.00196926 0.000265733 1.71698e-18)
(-0.00450352 -0.000786268 2.28702e-18)
(-0.00289216 -1.44079e-05 -1.03011e-19)
(-0.00233392 0.000162083 1.29431e-19)
(-0.00152475 0.000218339 -6.54658e-19)
(0.0045478 -0.00265296 -1.08812e-19)
(-0.0102643 0.014444 1.1261e-19)
(-0.00976842 0.0222596 2.02487e-18)
(-0.00195318 0.0181335 1.08528e-17)
(-0.00147683 7.66873e-05 -1.90309e-19)
(0.0214232 0.0389605 1.5473e-19)
(0.00176068 0.00165529 4.31847e-18)
(0.00127944 0.00276776 -2.01449e-18)
(-0.00214493 0.018629 -7.52661e-19)
(0.000259327 -0.00111126 -3.84041e-19)
(0.0117001 0.0106401 1.78253e-17)
(0.120001 -0.0192421 -4.70586e-18)
(-0.000847631 7.09365e-05 -6.7918e-21)
(-0.000969786 0.0136402 -6.74502e-19)
(-0.00884705 0.0139588 2.06923e-18)
(0.005192 0.00462968 -2.04881e-19)
(-0.00157581 0.000500298 -1.58373e-20)
(-0.00159866 0.000238557 1.82162e-19)
(-0.00165523 0.000804846 -4.51395e-20)
(-0.0429897 0.00579774 -7.13963e-18)
(-0.00206687 0.000790957 3.16161e-18)
(0.00149105 -0.000776667 2.76651e-20)
(0.00774449 0.00506711 3.54069e-18)
(-0.00105234 0.000117275 -6.57305e-19)
(-0.00169489 0.000282578 -7.56612e-20)
(-0.00497455 0.0180222 1.26203e-17)
(0.0601592 0.000494128 -6.75774e-19)
(0.00718613 -0.0046736 -8.13068e-19)
(0.174338 0.0167074 2.06147e-18)
(-0.0201401 -0.00108758 6.17472e-19)
(0.0345547 0.0613863 2.06071e-18)
(-0.0014899 0.000185793 -7.23801e-18)
(0.00347208 0.00114692 5.83979e-19)
(-0.00247122 0.0185107 7.63094e-18)
(0.00327808 -0.00012592 -9.25995e-21)
(0.0218839 -0.00571291 8.81103e-20)
(-0.000855468 7.89647e-06 2.22735e-20)
(-0.00102026 -1.38515e-06 4.63581e-21)
(-0.00154851 0.000532785 9.36664e-18)
(-0.00469628 -0.00173047 -1.52145e-18)
(-0.028973 -0.00590432 1.65761e-18)
(-0.00160181 0.000488709 -3.43931e-20)
(0.0129284 0.0197564 2.40303e-19)
(-0.000628935 0.00198619 -6.83962e-20)
(0.062444 0.125355 7.53814e-19)
(-0.00295108 -0.0018021 -7.77413e-20)
(0.00150088 0.00334368 7.87303e-18)
(0.00132024 0.000434891 1.11417e-19)
(0.00148678 0.0157758 1.17172e-17)