/*--------------------------------*- C++ -*----------------------------------*\
| =========                 |                                                 |
| \\      /  F ield         | OpenFOAM: The Open Source CFD Toolbox           |
|  \\    /   O peration     | Version:  v2012                                 |
|   \\  /    A nd           | Website:  www.openfoam.com                      |
|    \\/     M anipulation  |                                                 |
\*---------------------------------------------------------------------------*/
FoamFile
{
    version     2.0;
    format      ascii;
    class       pointVectorField;
    location    "600";
    object      pointDisplacement;
}
// * * * * * * * * * * * * * * * * * * * * * * * * * * * * * * * * * * * * * //

dimensions      [0 1 0 0 0 0 0];


internalField   nonuniform List<vector> 
14386
(
(0 0 0)
(-0 -4.40785e-05 -0)
(0 0 0)
(-0 -4.40785e-05 -0)
(0 0 0)
(0 0 0)
(0 0 0)
(0 0 0)
(0 0 0)
(0 0 0)
(0 0 0)
(0 0 0)
(0 0 0)
(0 0 0)
(0 0 0)
(0 0 0)
(0 0 0)
(0 0 0)
(0 0 0)
(0 0 0)
(0 0 0)
(0 0 0)
(0 0 0)
(0 0 0)
(0 0 0)
(0 0 0)
(0 0 0)
(0 0 0)
(0 0 0)
(0 0 0)
(0 0 0)
(0 0 0)
(0 0 0)
(0 0 0)
(0 0 0)
(0 0 0)
(0 0 0)
(0 0 0)
(0 0 0)
(0 0 0)
(0 0 0)
(0 0 0)
(0 0 0)
(0 0 0)
(0 0 0)
(0 0 0)
(0 0 0)
(0 0 0)
(0 0 0)
(0 0 0)
(0 0 0)
(0 0 0)
(0 0 0)
(0 0 0)
(0 0 0)
(0 0 0)
(0 0 0)
(0 0 0)
(0 0 0)
(0 0 0)
(0 0 0)
(0 0 0)
(0 0 0)
(0 0 0)
(0 0 0)
(0 0 0)
(0 0 0)
(0 0 0)
(0 0 0)
(0 0 0)
(0 0 0)
(0 0 0)
(0 0 0)
(0 0 0)
(0 0 0)
(0 0 0)
(0 0 0)
(0 0 0)
(0 0 0)
(0 0 0)
(0 0 0)
(0 0 0)
(0 0 0)
(0 0 0)
(0 0 0)
(0 0 0)
(0 0 0)
(0 0 0)
(0 0 0)
(0 0 0)
(0 0 0)
(0 0 0)
(0 0 0)
(0 0 0)
(0 0 0)
(0 0 0)
(0 0 0)
(0 0 0)
(0 0 0)
(0 0 0)
(0 0 0)
(0 0 0)
(0 0 0)
(0 0 0)
(0 0 0)
(0 0 0)
(0 0 0)
(0 0 0)
(0 0 0)
(0 0 0)
(0 0 0)
(0 0 0)
(0 0 0)
(0 0 0)
(0 0 0)
(0 0 0)
(0 0 0)
(0 0 0)
(0 0 0)
(0 0 0)
(0 0 0)
(0 0 0)
(0 0 0)
(0 0 0)
(0 0 0)
(0 0 0)
(0 0 0)
(0 0 0)
(0 0 0)
(0 0 0)
(0 0 0)
(0 0 0)
(0 0 0)
(-0 -4.40785e-05 -0)
(-0 -4.40785e-05 -0)
(-0 -4.40785e-05 -0)
(-0 -4.40785e-05 -0)
(-0 -4.40785e-05 -0)
(-0 -4.40785e-05 -0)
(-0 -4.40785e-05 -0)
(-0 -4.40785e-05 -0)
(-0 -4.40785e-05 -0)
(-0 -4.40785e-05 -0)
(-0 -4.40785e-05 -0)
(-0 -4.40785e-05 -0)
(-0 -4.40785e-05 -0)
(-0 -4.40785e-05 -0)
(-0 -4.40785e-05 -0)
(-0 -4.40785e-05 -0)
(-0 -4.40785e-05 -0)
(-0 -4.40785e-05 -0)
(-0 -4.40785e-05 -0)
(-0 -4.40785e-05 -0)
(-0 -4.40785e-05 -0)
(-0 -4.40785e-05 -0)
(-0 -4.40785e-05 -0)
(-0 -4.40785e-05 -0)
(-0 -4.40785e-05 -0)
(-0 -4.40785e-05 -0)
(-0 -4.40785e-05 -0)
(-0 -4.40785e-05 -0)
(-0 -4.40785e-05 -0)
(0 0 0)
(0 0 0)
(0 0 0)
(0 0 0)
(0 0 0)
(0 0 0)
(0 0 0)
(0 0 0)
(0 0 0)
(0 0 0)
(0 0 0)
(0 0 0)
(0 0 0)
(0 0 0)
(0 0 0)
(0 0 0)
(0 0 0)
(0 0 0)
(0 0 0)
(0 0 0)
(0 0 0)
(0 0 0)
(0 0 0)
(0 0 0)
(0 0 0)
(0 0 0)
(0 0 0)
(0 0 0)
(0 0 0)
(0 0 0)
(0 0 0)
(0 0 0)
(0 0 0)
(0 0 0)
(0 0 0)
(0 0 0)
(0 0 0)
(0 0 0)
(0 0 0)
(0 0 0)
(0 0 0)
(0 0 0)
(0 0 0)
(0 0 0)
(0 0 0)
(0 0 0)
(0 0 0)
(0 0 0)
(0 0 0)
(0 0 0)
(0 0 0)
(0 0 0)
(0 0 0)
(0 0 0)
(0 0 0)
(0 0 0)
(0 0 0)
(0 0 0)
(0 0 0)
(0 0 0)
(0 0 0)
(0 0 0)
(0 0 0)
(0 0 0)
(0 0 0)
(0 0 0)
(0 0 0)
(0 0 0)
(0 0 0)
(0 0 0)
(0 0 0)
(0 0 0)
(0 0 0)
(0 0 0)
(0 0 0)
(0 0 0)
(0 0 0)
(0 0 0)
(0 0 0)
(0 0 0)
(0 0 0)
(0 0 0)
(0 0 0)
(0 0 0)
(0 0 0)
(0 0 0)
(0 0 0)
(0 0 0)
(0 0 0)
(0 0 0)
(0 0 0)
(0 0 0)
(0 0 0)
(0 0 0)
(0 0 0)
(0 0 0)
(0 0 0)
(0 0 0)
(0 0 0)
(0 0 0)
(0 0 0)
(0 0 0)
(0 0 0)
(0 0 0)
(0 0 0)
(0 0 0)
(0 0 0)
(0 0 0)
(0 0 0)
(0 0 0)
(0 0 0)
(0 0 0)
(0 0 0)
(0 0 0)
(0 0 0)
(0 0 0)
(0 0 0)
(0 0 0)
(0 0 0)
(0 0 0)
(0 0 0)
(0 0 0)
(0 0 0)
(0 0 0)
(0 0 0)
(0 0 0)
(0 0 0)
(0 0 0)
(0 0 0)
(-0 -4.40785e-05 -0)
(-0 -4.40785e-05 -0)
(-0 -4.40785e-05 -0)
(-0 -4.40785e-05 -0)
(-0 -4.40785e-05 -0)
(-0 -4.40785e-05 -0)
(-0 -4.40785e-05 -0)
(-0 -4.40785e-05 -0)
(-0 -4.40785e-05 -0)
(-0 -4.40785e-05 -0)
(-0 -4.40785e-05 -0)
(-0 -4.40785e-05 -0)
(-0 -4.40785e-05 -0)
(-0 -4.40785e-05 -0)
(-0 -4.40785e-05 -0)
(-0 -4.40785e-05 -0)
(-0 -4.40785e-05 -0)
(-0 -4.40785e-05 -0)
(-0 -4.40785e-05 -0)
(-0 -4.40785e-05 -0)
(-0 -4.40785e-05 -0)
(-0 -4.40785e-05 -0)
(-0 -4.40785e-05 -0)
(-0 -4.40785e-05 -0)
(-0 -4.40785e-05 -0)
(-0 -4.40785e-05 -0)
(-0 -4.40785e-05 -0)
(-0 -4.40785e-05 -0)
(-0 -4.40785e-05 -0)
(0 -2.68036e-06 0)
(0 -4.41072e-05 0)
(0 -4.40814e-05 0)
(0 -4.40916e-05 0)
(0 8.76231e-07 0)
(0 4.38265e-05 0)
(0 3.98656e-05 0)
(0 1.74678e-05 0)
(0 -3.00318e-05 0)
(0 3.51196e-05 0)
(0 -6.02226e-05 0)
(0 4.62771e-05 0)
(0 -6.63696e-05 0)
(0 -5.96891e-05 0)
(0 2.80381e-05 0)
(0 -4.41094e-05 0)
(0 3.92568e-05 0)
(0 2.45152e-05 0)
(0 3.24435e-05 0)
(0 1.90379e-05 0)
(0 2.25152e-05 0)
(0 2.05446e-06 0)
(0 3.76486e-05 0)
(0 4.41302e-05 0)
(0 -4.40973e-05 0)
(0 -4.41082e-05 0)
(0 1.12887e-05 0)
(0 1.31536e-05 0)
(0 -5.23841e-05 0)
(0 -6.67358e-05 0)
(0 -6.51351e-05 0)
(0 -1.12173e-05 0)
(0 -4.93094e-07 0)
(0 3.51132e-05 0)
(0 3.63464e-05 0)
(0 4.32984e-05 0)
(0 4.27893e-05 0)
(0 2.88526e-05 0)
(0 -4.41485e-05 0)
(0 7.81083e-06 0)
(0 6.77575e-06 0)
(0 -5.36685e-05 0)
(0 5.02507e-07 0)
(0 -2.31825e-06 0)
(0 -3.10996e-06 0)
(0 1.27477e-05 0)
(0 2.42676e-05 0)
(0 3.71169e-05 0)
(0 4.67746e-05 0)
(0 4.25741e-05 0)
(0 1.43e-05 0)
(0 4.25896e-05 0)
(0 3.63316e-05 0)
(0 4.96485e-05 0)
(0 1.84962e-05 0)
(0 2.26678e-05 0)
(0 2.1998e-05 0)
(0 3.46473e-05 0)
(0 2.64084e-06 0)
(0 -0.000139455 0)
(0 -0.00014768 0)
(0 -0.00014013 0)
(0 -0.000148075 0)
(0 -0.000140882 0)
(0 -0.000132693 0)
(0 -0.000133566 0)
(0 -0.000141475 0)
(0 -0.000133931 0)
(0 -0.000125788 0)
(0 -0.000125631 0)
(0 -0.000133643 0)
(0 -0.000125116 0)
(0 -0.000132924 0)
(0 -0.000124674 0)
(0 -0.000116781 0)
(0 -0.000116656 0)
(0 -0.000124696 0)
(0 -0.000117051 0)
(0 -0.000107839 0)
(0 -0.000109277 0)
(0 -0.000117061 0)
(0 -0.000109011 0)
(0 -0.000101542 0)
(0 -0.000100782 0)
(0 -9.37587e-05 0)
(0 -9.29211e-05 0)
(0 -9.93828e-05 0)
(0 -9.16053e-05 0)
(0 -8.53731e-05 0)
(0 -8.3946e-05 0)
(0 -7.80901e-05 0)
(0 -7.63069e-05 0)
(0 -7.08615e-05 0)
(0 -6.84843e-05 0)
(0 -7.33646e-05 0)
(0 -6.52284e-05 0)
(0 -6.09514e-05 0)
(0 -5.76136e-05 0)
(0 -5.41894e-05 0)
(0 -5.06295e-05 0)
(0 -4.8202e-05 0)
(0 -4.42281e-05 0)
(0 -4.28879e-05 0)
(0 -3.87012e-05 0)
(0 -3.79749e-05 0)
(0 -3.38848e-05 0)
(0 -3.29995e-05 0)
(0 -2.90181e-05 0)
(0 -2.78108e-05 0)
(0 -2.3825e-05 0)
(0 -2.26085e-05 0)
(0 -1.87239e-05 0)
(0 -1.76901e-05 0)
(0 -1.38292e-05 0)
(0 -1.29418e-05 0)
(0 -9.0986e-06 0)
(0 -8.4007e-06 0)
(0 -4.43061e-06 0)
(0 -4.02465e-06 0)
(0 4.05972e-07 0)
(0 4.175e-07 0)
(0 5.61134e-06 0)
(0 5.144e-06 0)
(0 1.10681e-05 0)
(0 1.01485e-05 0)
(0 1.67562e-05 0)
(0 1.53756e-05 0)
(0 2.24554e-05 0)
(0 2.05803e-05 0)
(0 2.79225e-05 0)
(0 2.5617e-05 0)
(0 3.34898e-05 0)
(0 3.08391e-05 0)
(0 3.92468e-05 0)
(0 3.63132e-05 0)
(0 4.51397e-05 0)
(0 4.16683e-05 0)
(0 5.12407e-05 0)
(0 4.73473e-05 0)
(0 5.79102e-05 0)
(0 5.38635e-05 0)
(0 6.52602e-05 0)
(0 6.1262e-05 0)
(0 7.33509e-05 0)
(0 6.95979e-05 0)
(0 8.21302e-05 0)
(0 7.88288e-05 0)
(0 9.22323e-05 0)
(0 8.90689e-05 0)
(0 0.000103745 0)
(0 0.000100332 0)
(0 0.000115796 0)
(0 0.000112085 0)
(0 0.000127904 0)
(0 0.000132136 0)
(0 0.000144457 0)
(0 6.27148e-05 0)
(0 1.78961e-05 0)
(0 -2.5608e-05 0)
(0 -6.95038e-05 0)
(0 0.000148789 0)
(0 0.000161493 0)
(0 0.000123547 0)
(0 0.000165696 0)
(0 0.000178995 0)
(0 0.000183463 0)
(0 0.000197601 0)
(0 0.000202549 0)
(0 0.000217569 0)
(0 0.000223311 0)
(0 0.000239267 0)
(0 0.0002456 0)
(0 0.000262568 0)
(0 0.000255346 0)
(0 0.000280324 0)
(0 0.000272361 0)
(0 0.000299022 0)
(0 0.000305877 0)
(0 0.000326131 0)
(0 0.000290665 0)
(0 0.000331871 0)
(0 0.000353851 0)
(0 0.000358124 0)
(0 0.000381832 0)
(0 0.000384624 0)
(0 0.000409682 0)
(0 0.000411324 0)
(0 0.000436846 0)
(0 0.00043727 0)
(0 0.000462867 0)
(0 0.000461725 0)
(0 0.000486841 0)
(0 0.000487282 0)
(0 0.000511814 0)
(0 0.000511198 0)
(0 0.000537084 0)
(0 0.000535025 0)
(0 0.000561313 0)
(0 0.000562371 0)
(0 0.00058753 0)
(0 0.000588221 0)
(0 0.000613943 0)
(0 0.000557043 0)
(0 0.000614422 0)
(0 0.000640633 0)
(0 0.000641116 0)
(0 0.000668097 0)
(0 0.000667896 0)
(0 0.000695933 0)
(0 0.000695237 0)
(0 0.000723934 0)
(0 0.0007224 0)
(0 0.000751347 0)
(0 0.000747212 0)
(0 0.000776778 0)
(0 0.000779958 0)
(0 0.000804451 0)
(0 0.000807572 0)
(0 0.000833515 0)
(0 0.000833459 0)
(0 0.000857685 0)
(0 0.00080052 0)
(0 0.000857835 0)
(0 0.000882555 0)
(0 0.000882784 0)
(0 0.000908725 0)
(0 0.000908708 0)
(0 0.000935137 0)
(0 0.000108638 0)
(0 0.000934472 0)
(0 0.000960662 0)
(0 0.000959884 0)
(0 0.000984905 0)
(0 0.00098288 0)
(0 0.00100787 0)
(0 0.0010095 0)
(0 0.00103178 0)
(0 0.00103365 0)
(0 0.00105548 0)
(0 0.0010284 0)
(0 0.00105695 0)
(0 0.00107916 0)
(0 0.00107996 0)
(0 0.00110264 0)
(0 0.00110192 0)
(0 0.00112448 0)
(0 0.00112112 0)
(0 0.00114397 0)
(0 0.00113764 0)
(0 0.00116071 0)
(0 0.00116638 0)
(0 0.00118328 0)
(0 0.00118808 0)
(0 0.00120552 0)
(0 0.00119893 0)
(0 0.0012214 0)
(0 0.00122714 0)
(0 0.00124306 0)
(0 0.00123673 0)
(0 0.00125846 0)
(0 0.00125145 0)
(0 0.00127282 0)
(0 0.00126441 0)
(0 0.00128511 0)
(0 0.00129225 0)
(0 0.00130379 0)
(0 0.00129608 0)
(0 0.00131464 0)
(0 0.00130637 0)
(0 0.00132414 0)
(0 0.00131512 0)
(0 0.00133167 0)
(0 0.00133835 0)
(0 0.00134477 0)
(0 0.00133725 0)
(0 0.00134985 0)
(0 0.00134147 0)
(0 0.00135286 0)
(0 0.00134364 0)
(0 0.00135352 0)
(0 0.00136008 0)
(0 0.00135991 0)
(0 0.00135233 0)
(0 0.00135849 0)
(0 0.00135015 0)
(0 0.00135537 0)
(0 0.00134584 0)
(0 0.00135008 0)
(0 0.0013583 0)
(0 0.00135259 0)
(0 0.00134337 0)
(0 0.00134583 0)
(0 0.00133545 0)
(0 0.00133726 0)
(0 0.000119355 0)
(0 0.000105427 0)
(0 0.000114919 0)
(0 0.000101535 0)
(0 0.00132552 0)
(0 0.00132633 0)
(0 0.00133666 0)
(0 0.00132438 0)
(0 0.00131275 0)
(0 0.00133342 0)
(0 0.00131996 0)
(0 0.00132641 0)
(0 0.0013128 0)
(0 -4.14397e-05 0)
(0 0.000436098 0)
(0 0.0011146 0)
(0 0.000906546 0)
(0 3.80794e-05 0)
(0 -1.69353e-05 0)
(0 1.39346e-05 0)
(0 0.000665677 0)
(0 -5.12863e-05 0)
(0 -4.9779e-05 0)
(0 -5.08248e-05 0)
(0 -4.93167e-05 0)
(0 -5.03257e-05 0)
(0 -4.88738e-05 0)
(0 -4.80203e-05 0)
(0 -4.75805e-05 0)
(0 -4.84186e-05 0)
(0 -4.7097e-05 0)
(0 -4.78524e-05 0)
(0 -4.64882e-05 0)
(0 -4.69385e-05 0)
(0 -4.71366e-05 0)
(0 -4.57445e-05 0)
(0 -4.62868e-05 0)
(0 -4.48798e-05 0)
(0 -4.53312e-05 0)
(0 -4.40139e-05 0)
(0 -4.36892e-05 0)
(0 -4.29892e-05 0)
(0 -4.27715e-05 0)
(0 -4.22046e-05 0)
(0 -4.20536e-05 0)
(0 -4.15113e-05 0)
(0 -4.15909e-05 0)
(0 -4.08805e-05 0)
(0 -4.13984e-05 0)
(0 -4.09142e-05 0)
(0 -4.01929e-05 0)
(0 -4.69008e-05 0)
(0 -4.02284e-05 0)
(0 -3.95487e-05 0)
(0 -3.96154e-05 0)
(0 -3.90149e-05 0)
(0 -3.90125e-05 0)
(0 -3.85485e-05 0)
(0 -3.86041e-05 0)
(0 -3.81192e-05 0)
(0 -3.82456e-05 0)
(0 -3.76721e-05 0)
(0 -3.79317e-05 0)
(0 -3.72848e-05 0)
(0 -3.76863e-05 0)
(0 -3.70151e-05 0)
(0 -3.75696e-05 0)
(0 -3.68814e-05 0)
(0 -3.75791e-05 0)
(0 -3.68674e-05 0)
(0 -3.7662e-05 0)
(0 -3.67685e-05 0)
(0 -3.77725e-05 0)
(0 -3.6964e-05 0)
(0 -3.79027e-05 0)
(0 -3.70373e-05 0)
(0 -3.79613e-05 0)
(0 -3.70643e-05 0)
(0 -3.79223e-05 0)
(0 -3.69824e-05 0)
(0 -3.78168e-05 0)
(0 -3.68435e-05 0)
(0 -3.76514e-05 0)
(0 -3.66477e-05 0)
(0 -3.74031e-05 0)
(0 -3.63499e-05 0)
(0 -3.70793e-05 0)
(0 -3.59914e-05 0)
(0 -3.67036e-05 0)
(0 -3.55547e-05 0)
(0 -3.62616e-05 0)
(0 -3.50275e-05 0)
(0 -3.57098e-05 0)
(0 -3.44348e-05 0)
(0 -3.50787e-05 0)
(0 -3.3775e-05 0)
(0 -3.44278e-05 0)
(0 -3.30611e-05 0)
(0 -3.37873e-05 0)
(0 -3.23743e-05 0)
(0 -3.31713e-05 0)
(0 -3.60184e-05 0)
(0 -3.55175e-05 0)
(0 -3.17227e-05 0)
(0 -3.25101e-05 0)
(0 -3.64912e-05 0)
(0 -3.82294e-05 0)
(0 -3.91034e-05 0)
(0 0.000228899 0)
(0 -3.51774e-05 0)
(0 -5.31713e-06 0)
(0 -3.8831e-05 0)
(0 -3.73896e-05 0)
(0 -3.98232e-05 0)
(0 -3.92759e-05 0)
(0 -4.0231e-05 0)
(0 -3.95321e-05 0)
(0 -4.0756e-05 0)
(0 -3.99993e-05 0)
(0 -4.1439e-05 0)
(0 -4.07023e-05 0)
(0 -4.2322e-05 0)
(0 -4.16058e-05 0)
(0 -4.34057e-05 0)
(0 -3.9754e-05 0)
(0 -4.07138e-05 0)
(0 -3.87314e-05 0)
(0 -3.9685e-05 0)
(0 -3.76558e-05 0)
(0 -3.85199e-05 0)
(0 -3.63509e-05 0)
(0 0.000530947 0)
(0 0.00055017 0)
(0 -3.70438e-05 0)
(0 -3.46652e-05 0)
(0 -3.95663e-05 0)
(0 -3.8529e-05 0)
(0 -4.20207e-06 0)
(0 -7.24008e-05 0)
(0 5.69179e-05 0)
(0 8.71247e-05 0)
(0 0.0012425 0)
(0 0.00132257 0)
(0 0.0012968 0)
(0 0.00133917 0)
(0 0.00133066 0)
(0 0.00124726 0)
(0 0.00134849 0)
(0 0.00136399 0)
(0 0.00105703 0)
(0 0.00045937 0)
(0 0.000433578 0)
(0 0.000456792 0)
(0 0.000430789 0)
(0 0.000454164 0)
(0 0.000428462 0)
(0 0.000451867 0)
(0 0.000426527 0)
(0 0.00044922 0)
(0 0.000426218 0)
(0 0.000449605 0)
(0 0.000427389 0)
(0 0.000450693 0)
(0 0.000426549 0)
(0 0.000447217 0)
(0 0.00041875 0)
(0 0.000441404 0)
(0 0.000415829 0)
(0 0.000433647 0)
(0 0.000408639 0)
(0 0.000423038 0)
(0 0.000397775 0)
(0 0.00040876 0)
(0 0.000385308 0)
(0 0.000374091 0)
(0 0.000361471 0)
(0 0.000350375 0)
(0 0.000336939 0)
(0 0.000326271 0)
(0 0.000311954 0)
(0 0.000301775 0)
(0 0.000285744 0)
(0 0.00027536 0)
(0 0.000290015 0)
(0 0.000258517 0)
(0 0.000248439 0)
(0 0.000230984 0)
(0 0.000221476 0)
(0 0.000203748 0)
(0 0.00019351 0)
(0 0.000176021 0)
(0 0.000165354 0)
(0 0.000147671 0)
(0 0.000137831 0)
(0 0.00012005 0)
(0 0.000155529 0)
(0 0.000185206 0)
(0 0.000111609 0)
(0 9.4091e-05 0)
(0 8.68931e-05 0)
(0 6.98264e-05 0)
(0 7.67248e-05 0)
(0 5.28425e-05 0)
(0 6.1128e-05 0)
(0 3.82971e-05 0)
(0 2.98915e-05 0)
(0 1.68259e-05 0)
(0 4.92795e-05 0)
(0 8.79414e-06 0)
(0 -2.94276e-06 0)
(0 -9.5491e-06 0)
(0 -2.01596e-05 0)
(0 -2.55469e-05 0)
(0 -3.49078e-05 0)
(0 -2.8534e-05 0)
(0 -4.19413e-05 0)
(0 -3.51917e-05 0)
(0 -4.70186e-05 0)
(0 -5.30647e-05 0)
(0 -5.66032e-05 0)
(0 -4.09698e-05 0)
(0 -6.17631e-05 0)
(0 -6.54661e-05 0)
(0 0.000294974 0)
(0 0.000436564 0)
(0 0.000418998 0)
(0 0.000448241 0)
(0 0.000429646 0)
(0 -7.06135e-05 0)
(0 -7.74132e-05 0)
(0 0.00046027 0)
(0 0.00044184 0)
(0 0.000474943 0)
(0 0.00045698 0)
(0 0.000492778 0)
(0 0.000474842 0)
(0 0.00051259 0)
(0 0.000494401 0)
(0 0.000456549 0)
(0 0.000476315 0)
(0 0.000438539 0)
(0 0.000459009 0)
(0 0.000421504 0)
(0 0.000443354 0)
(0 0.000481058 0)
(0 0.000466647 0)
(0 0.000504668 0)
(0 0.000488706 0)
(0 0.000527154 0)
(0 0.000507993 0)
(0 0.000546601 0)
(0 0.000524718 0)
(0 0.000563282 0)
(0 0.000539386 0)
(0 0.000578337 0)
(0 0.000553171 0)
(0 0.00059275 0)
(0 0.000566709 0)
(0 0.000607067 0)
(0 0.000579679 0)
(0 0.000620452 0)
(0 0.000405689 0)
(0 0.000590537 0)
(0 0.000631376 0)
(0 0.000599206 0)
(0 0.000639177 0)
(0 0.000608292 0)
(0 0.000648466 0)
(0 0.000485252 0)
(0 0.000617712 0)
(0 0.00065851 0)
(0 0.000624676 0)
(0 0.00066699 0)
(0 0.000629148 0)
(0 0.000671023 0)
(0 0.000631748 0)
(0 0.000674121 0)
(0 0.000635494 0)
(0 0.000679074 0)
(0 0.000538501 0)
(0 0.000641425 0)
(0 0.000685552 0)
(0 0.000725417 0)
(0 0.000731171 0)
(0 0.000690744 0)
(0 0.000735863 0)
(0 0.000694461 0)
(0 0.000740459 0)
(0 0.000783016 0)
(0 0.00078807 0)
(0 0.000744881 0)
(0 0.000792566 0)
(0 0.000748548 0)
(0 0.000795723 0)
(0 0.00075071 0)
(0 0.000796461 0)
(0 0.000750034 0)
(0 0.000793637 0)
(0 0.000840228 0)
(0 0.000836019 0)
(0 0.000787987 0)
(0 0.000830726 0)
(0 0.000781191 0)
(0 0.000824856 0)
(0 0.000773784 0)
(0 0.000816886 0)
(0 0.000867303 0)
(0 0.000857325 0)
(0 0.000805855 0)
(0 0.000844553 0)
(0 0.000792579 0)
(0 0.000830029 0)
(0 0.000777999 0)
(0 0.00081398 0)
(0 0.000864588 0)
(0 0.000847039 0)
(0 0.000795868 0)
(0 0.000827639 0)
(0 0.000776474 0)
(0 0.000806967 0)
(0 0.000856507 0)
(0 0.000836273 0)
(0 0.000779857 0)
(0 0.000816655 0)
(0 0.000862857 0)
(0 0.000843626 0)
(0 0.000800016 0)
(0 0.000822031 0)
(0 0.000864653 0)
(0 0.00084158 0)
(0 0.000797457 0)
(0 0.000815711 0)
(0 0.000858648 0)
(0 0.00083207 0)
(0 0.000873144 0)
(0 0.000846799 0)
(0 0.000805064 0)
(0 0.00082012 0)
(0 0.000859571 0)
(0 0.000833035 0)
(0 0.000869881 0)
(0 0.00084334 0)
(0 0.000806415 0)
(0 0.000815765 0)
(0 0.000851214 0)
(0 0.000822566 0)
(0 0.000857409 0)
(0 0.000827704 0)
(0 0.000793186 0)
(0 0.000797345 0)
(0 0.000831358 0)
(0 0.000799892 0)
(0 0.00076517 0)
(0 0.000833132 0)
(0 0.000800336 0)
(0 0.000832732 0)
(0 0.000798633 0)
(0 0.000830252 0)
(0 0.00079467 0)
(0 0.00082537 0)
(0 0.000788024 0)
(0 0.000818324 0)
(0 0.000778592 0)
(0 0.000748458 0)
(0 0.000808186 0)
(0 0.00076776 0)
(0 0.000795535 0)
(0 0.000755242 0)
(0 0.00078093 0)
(0 0.000740084 0)
(0 0.000763768 0)
(0 0.000835232 0)
(0 0.000864357 0)
(0 0.000722215 0)
(0 0.000744187 0)
(0 0.000698132 0)
(0 0.000830282 0)
(0 0.000573445 0)
(0 0.000702032 0)
(0 0.00072266 0)
(0 0.000764301 0)
(0 0.000741681 0)
(0 0.000783283 0)
(0 0.000759491 0)
(0 0.000704775 0)
(0 0.000717532 0)
(0 0.000734285 0)
(0 -8.3819e-05 0)
(0 -9.24047e-05 0)
(0 -8.68605e-05 0)
(0 -0.000100449 0)
(0 -9.71109e-05 0)
(0 -0.000108191 0)
(0 -0.000107203 0)
(0 -0.000116611 0)
(0 -0.000116817 0)
(0 -0.000125915 0)
(0 -0.000126046 0)
(0 -0.00013623 0)
(0 -0.000136481 0)
(0 -0.000148894 0)
(0 -0.000148967 0)
(0 -0.000163273 0)
(0 -0.000164263 0)
(0 -0.000179977 0)
(0 -0.000177872 0)
(0 -0.00019483 0)
(0 -0.000196497 0)
(0 -0.000210287 0)
(0 -0.000210131 0)
(0 -0.000222491 0)
(0 -0.000221597 0)
(0 -0.000231982 0)
(0 -0.00022866 0)
(0 -0.000235588 0)
(0 -0.000238619 0)
(0 -0.000241061 0)
(0 -0.000235436 0)
(0 -0.000242073 0)
(0 -0.00023571 0)
(0 -0.000244194 0)
(0 -0.000250699 0)
(0 -0.000253747 0)
(0 -0.000247764 0)
(0 -0.000256889 0)
(0 -0.000262321 0)
(0 0.000692047 0)
(0 0.000708168 0)
(0 0.000631664 0)
(0 -9.88869e-05 0)
(0 -9.03839e-05 0)
(0 0.000593722 0)
(0 0.000801108 0)
(0 0.000403721 0)
(0 0.000665566 0)
(0 0.000681355 0)
(0 0.000705434 0)
(0 -0.00010593 0)
(0 -9.87917e-05 0)
(0 0.00063822 0)
(0 0.000653391 0)
(0 0.000695869 0)
(0 0.000622174 0)
(0 -1.44673e-05 0)
(0 -0.000116011 0)
(0 -0.000109685 0)
(0 0.000564083 0)
(0 0.000530795 0)
(0 -0.000128239 0)
(0 -0.000122463 0)
(0 0.000672837 0)
(0 0.000740011 0)
(0 0.000905477 0)
(0 0.000832398 0)
(0 -4.64496e-05 0)
(0 -3.78874e-05 0)
(0 -4.08091e-05 0)
(0 3.65796e-05 0)
(0 -0.000155223 0)
(0 -4.18864e-05 0)
(0 -4.13219e-05 0)
(0 -4.17649e-05 0)
(0 -4.13117e-05 0)
(0 -4.17483e-05 0)
(0 -4.13765e-05 0)
(0 -4.18046e-05 0)
(0 -4.15125e-05 0)
(0 -4.19569e-05 0)
(0 -4.17148e-05 0)
(0 -4.21904e-05 0)
(0 -4.19936e-05 0)
(0 -4.24463e-05 0)
(0 -4.22968e-05 0)
(0 -4.2692e-05 0)
(0 -4.25924e-05 0)
(0 -4.2913e-05 0)
(0 -4.28564e-05 0)
(0 -4.30957e-05 0)
(0 -4.31869e-05 0)
(0 -4.33105e-05 0)
(0 -4.34212e-05 0)
(0 -4.35131e-05 0)
(0 -4.36321e-05 0)
(0 -4.36999e-05 0)
(0 -4.38215e-05 0)
(0 -4.38641e-05 0)
(0 -4.39959e-05 0)
(0 -4.40145e-05 0)
(0 -4.41529e-05 0)
(0 -4.41405e-05 0)
(0 -4.4286e-05 0)
(0 -4.42488e-05 0)
(0 -4.44045e-05 0)
(0 -4.43459e-05 0)
(0 -4.30731e-05 0)
(0 -4.28834e-05 0)
(0 -4.41358e-05 0)
(0 -4.31144e-05 0)
(0 -4.29832e-05 0)
(0 -4.32016e-05 0)
(0 -4.30824e-05 0)
(0 -4.32977e-05 0)
(0 -4.31653e-05 0)
(0 -4.33729e-05 0)
(0 -4.32465e-05 0)
(0 -4.34721e-05 0)
(0 -4.35317e-05 0)
(0 -4.36105e-05 0)
(0 -4.30088e-05 0)
(0 -4.31074e-05 0)
(0 -4.36636e-05 0)
(0 -4.37316e-05 0)
(0 -4.28397e-05 0)
(0 -4.29568e-05 0)
(0 -4.378e-05 0)
(0 -4.38327e-05 0)
(0 -4.1315e-05 0)
(0 -4.39633e-05 0)
(0 -5.19854e-05 0)
(0 -4.39716e-05 0)
(0 -4.52632e-05 0)
(0 -4.58818e-05 0)
(0 -4.73803e-05 0)
(0 -4.80269e-05 0)
(0 -4.94993e-05 0)
(0 -5.02256e-05 0)
(0 -5.15651e-05 0)
(0 -5.25806e-05 0)
(0 -5.39256e-05 0)
(0 -5.52955e-05 0)
(0 -5.67621e-05 0)
(0 -5.83711e-05 0)
(0 -5.25677e-05 0)
(0 -6.01292e-05 0)
(0 -6.19443e-05 0)
(0 -6.4072e-05 0)
(0 -6.60296e-05 0)
(0 -6.38283e-05 0)
(0 -6.79775e-05 0)
(0 -4.26546e-05 0)
(0 -4.27917e-05 0)
(0 -4.30569e-05 0)
(0 -4.292e-05 0)
(0 -4.31605e-05 0)
(0 -4.30431e-05 0)
(0 -4.32646e-05 0)
(0 -4.31619e-05 0)
(0 -4.33721e-05 0)
(0 -4.32798e-05 0)
(0 -3.42832e-05 0)
(0 -4.3873e-05 0)
(0 -4.39093e-05 0)
(0 -4.38814e-05 0)
(0 -4.39438e-05 0)
(0 -6.56803e-05 0)
(0 -6.97874e-05 0)
(0 -4.29074e-05 0)
(0 -0.000140438 0)
(0 -0.000134565 0)
(0 -0.000142862 0)
(0 0.000474192 0)
(0 -6.72302e-05 0)
(0 -7.12462e-05 0)
(0 -6.83808e-05 0)
(0 -7.2401e-05 0)
(0 -7.53801e-05 0)
(0 -7.64059e-05 0)
(0 -7.04421e-05 0)
(0 -7.33677e-05 0)
(0 -7.72551e-05 0)
(0 -7.41813e-05 0)
(0 -7.79558e-05 0)
(0 -4.39243e-05 0)
(0 -4.39736e-05 0)
(0 -4.34681e-05 0)
(0 -4.33844e-05 0)
(0 -4.39582e-05 0)
(0 -4.39969e-05 0)
(0 -4.40068e-05 0)
(0 -4.40224e-05 0)
(0 -4.40161e-05 0)
(0 -4.40364e-05 0)
(0 -4.40334e-05 0)
(0 -4.40498e-05 0)
(0 -4.40491e-05 0)
(0 -4.40631e-05 0)
(0 -4.40635e-05 0)
(0 -4.40753e-05 0)
(0 -4.40777e-05 0)
(0 -4.40868e-05 0)
(0 -4.40923e-05 0)
(0 -4.40978e-05 0)
(0 -4.4107e-05 0)
(0 -4.41082e-05 0)
(0 -4.41207e-05 0)
(0 -4.39417e-05 0)
(0 -4.24233e-05 0)
(0 -7.94784e-05 0)
(0 -6.21333e-05 0)
(0 0.000385111 0)
(0 0.000368742 0)
(0 -0.000108679 0)
(0 -4.35745e-05 0)
(0 -3.42949e-05 0)
(0 -3.2475e-05 0)
(0 -3.24097e-05 0)
(0 -3.0524e-05 0)
(0 -3.0431e-05 0)
(0 -2.85207e-05 0)
(0 -2.89086e-05 0)
(0 -2.70528e-05 0)
(0 -2.77252e-05 0)
(0 -2.59628e-05 0)
(0 -2.68529e-05 0)
(0 -2.51731e-05 0)
(0 -2.62213e-05 0)
(0 -2.45963e-05 0)
(0 -2.57562e-05 0)
(0 -2.40634e-05 0)
(0 -2.53062e-05 0)
(0 -2.34389e-05 0)
(0 -2.19966e-05 0)
(0 -2.11171e-05 0)
(0 -2.26594e-05 0)
(0 -2.00942e-05 0)
(0 -2.18044e-05 0)
(0 -1.89862e-05 0)
(0 -2.09371e-05 0)
(0 -1.78804e-05 0)
(0 -1.99943e-05 0)
(0 -1.6726e-05 0)
(0 -1.87607e-05 0)
(0 -1.53457e-05 0)
(0 -1.32075e-05 0)
(0 -1.16656e-05 0)
(0 -1.35949e-05 0)
(0 -9.62297e-06 0)
(0 -1.14614e-05 0)
(0 -7.11897e-06 0)
(0 -9.23789e-06 0)
(0 -4.55917e-06 0)
(0 -7.0161e-06 0)
(0 -2.09802e-06 0)
(0 -4.59762e-06 0)
(0 2.82152e-07 0)
(0 -2.32304e-06 0)
(0 2.70747e-06 0)
(0 1.18719e-07 0)
(0 5.46065e-06 0)
(0 -2.41021e-05 0)
(0 -9.42054e-06 0)
(0 8.34857e-06 0)
(0 -1.93863e-05 0)
(0 -4.24557e-05 0)
(0 -4.35467e-05 0)
(0 -4.34655e-05 0)
(0 -4.32824e-05 0)
(0 -4.33563e-05 0)
(0 -4.35251e-05 0)
(0 -4.34002e-05 0)
(0 -4.35634e-05 0)
(0 -4.34273e-05 0)
(0 -4.35858e-05 0)
(0 -4.34472e-05 0)
(0 -4.35914e-05 0)
(0 -4.34414e-05 0)
(0 -4.35766e-05 0)
(0 -4.34025e-05 0)
(0 -4.35434e-05 0)
(0 -4.33508e-05 0)
(0 -4.34934e-05 0)
(0 -4.32759e-05 0)
(0 -4.34282e-05 0)
(0 -4.31829e-05 0)
(0 -4.33651e-05 0)
(0 -4.30765e-05 0)
(0 -4.31523e-05 0)
(0 -4.28489e-05 0)
(0 -4.32793e-05 0)
(0 0.000349944 0)
(0 0.000333733 0)
(0 0.000316178 0)
(0 0.000300692 0)
(0 0.000285278 0)
(0 0.000269169 0)
(0 0.000286359 0)
(0 0.000252924 0)
(0 0.000271821 0)
(0 0.000237054 0)
(0 0.000256218 0)
(0 0.000220438 0)
(0 0.000237803 0)
(0 0.000204756 0)
(0 0.000188395 0)
(0 0.000178082 0)
(0 0.000162756 0)
(0 0.000156734 0)
(0 0.000141217 0)
(0 0.000135168 0)
(0 0.000120133 0)
(0 0.000111419 0)
(0 0.000127854 0)
(0 9.82203e-05 0)
(0 8.71641e-05 0)
(0 7.65312e-05 0)
(0 6.36167e-05 0)
(0 7.61041e-05 0)
(0 4.9501e-05 0)
(0 -0.000113805 0)
(0 -0.000125986 0)
(0 -0.000104288 0)
(0 -0.000117559 0)
(0 -9.55506e-05 0)
(0 -0.000108562 0)
(0 -8.43844e-05 0)
(0 -9.81269e-05 0)
(0 -3.89846e-05 0)
(0 -4.22442e-05 0)
(0 -4.31503e-05 0)
(0 -0.000155225 0)
(0 -0.000155363 0)
(0 -2.8256e-05 0)
(0 2.88373e-06 0)
(0 3.96224e-05 0)
(0 1.12387e-05 0)
(0 0.000152614 0)
(0 6.39285e-05 0)
(0 0.00112877 0)
(0 0.00110497 0)
(0 0.00111769 0)
(0 0.00109224 0)
(0 0.00110399 0)
(0 0.00107594 0)
(0 0.00108765 0)
(0 0.00105651 0)
(0 0.00106878 0)
(0 0.00104511 0)
(0 0.00103452 0)
(0 0.00104715 0)
(0 0.00100996 0)
(0 0.00102307 0)
(0 0.00105991 0)
(0 0.00103662 0)
(0 0.00107216 0)
(0 0.00104869 0)
(0 0.00108246 0)
(0 0.00105861 0)
(0 0.00109061 0)
(0 1.46264e-05 0)
(0 0.000550833 0)
(0 0.000569376 0)
(0 0.000588788 0)
(0 0.000607548 0)
(0 0.000627119 0)
(0 0.000168746 0)
(0 -7.23305e-05 0)
(0 -8.87977e-05 0)
(0 0.00106622 0)
(0 0.00109734 0)
(0 -4.40318e-05 0)
(0 -0.000170069 0)
(0 -0.0001687 0)
(0 0.00107232 0)
(0 0.00110383 0)
(0 0.00107767 0)
(0 0.00110976 0)
(0 0.00108255 0)
(0 0.00111527 0)
(0 0.000645616 0)
(0 0.00066649 0)
(0 0.00108755 0)
(0 0.00112104 0)
(0 0.000624892 0)
(0 0.00109263 0)
(0 0.00112623 0)
(0 0.000408253 0)
(0 1.76785e-05 0)
(0 -4.40933e-05 0)
(0 -4.40646e-05 0)
(0 0.000730709 0)
(0 0.00110164 0)
(0 0.000880108 0)
(0 -1.33325e-05 0)
(0 0.000334374 0)
(0 0.00102388 0)
(0 -4.40313e-05 0)
(0 -9.72011e-05 0)
(0 -0.00013689 0)
(0 0.000263473 0)
(0 0.00028192 0)
(0 -4.39191e-05 0)
(0 -4.39755e-05 0)
(0 -4.03381e-05 0)
(0 -4.37004e-05 0)
(0 -4.39629e-05 0)
(0 0.0011395 0)
(0 0.000254664 0)
(0 -2.3488e-05 0)
(0 0.000983712 0)
(0 0.000970891 0)
(0 -7.11717e-05 0)
(0 -0.000183994 0)
(0 -0.000181088 0)
(0 0.00040352 0)
(0 -6.46559e-05 0)
(0 -4.36136e-05 0)
(0 0.00109655 0)
(0 0.00112895 0)
(0 0.00115725 0)
(0 0.00115836 0)
(0 2.17432e-05 0)
(0 0.000684955 0)
(0 0.000707378 0)
(0 -2.77648e-05 0)
(0 -4.40091e-05 0)
(0 -4.40012e-05 0)
(0 2.50144e-05 0)
(0 0.00129602 0)
(0 3.50532e-05 0)
(0 5.18347e-05 0)
(0 0.00135968 0)
(0 0.00112901 0)
(0 0.00115581 0)
(0 0.00118958 0)
(0 0.00118079 0)
(0 0.00114969 0)
(0 0.00117188 0)
(0 0.00114164 0)
(0 0.00116208 0)
(0 0.00113138 0)
(0 0.00115058 0)
(0 0.00111908 0)
(0 0.00113766 0)
(0 0.00116875 0)
(0 0.0011554 0)
(0 0.00112426 0)
(0 0.00114154 0)
(0 0.0011102 0)
(0 0.00112631 0)
(0 0.00115657 0)
(0 0.00114025 0)
(0 0.0011697 0)
(0 0.00115291 0)
(0 0.00112321 0)
(0 0.00113486 0)
(0 0.00116416 0)
(0 0.00114443 0)
(0 0.00117294 0)
(0 0.00115225 0)
(0 0.00117944 0)
(0 0.00115843 0)
(0 0.00113114 0)
(0 0.00113666 0)
(0 0.00116277 0)
(0 0.00113991 0)
(0 0.00116463 0)
(0 0.00114082 0)
(0 0.00116395 0)
(0 0.00113899 0)
(0 0.00116033 0)
(0 0.00113448 0)
(0 0.0011542 0)
(0 0.00112766 0)
(0 0.00114589 0)
(0 0.00111872 0)
(0 0.00113559 0)
(0 0.00110777 0)
(0 0.00112341 0)
(0 0.00109477 0)
(0 0.00110904 0)
(0 0.00108017 0)
(0 0.00109269 0)
(0 0.00106428 0)
(0 0.00107375 0)
(0 0.00104092 0)
(0 0.00109104 0)
(0 0.00111613 0)
(0 0.00104837 0)
(0 -4.4082e-05 0)
(0 0.00110934 0)
(0 -3.84658e-05 0)
(0 -4.3702e-05 0)
(0 -0.000113595 0)
(0 -0.000106578 0)
(0 -3.83982e-05 0)
(0 0.000273173 0)
(0 0.000301704 0)
(0 -0.00019435 0)
(0 -0.000191052 0)
(0 -0.000197835 0)
(0 0.000943053 0)
(0 0.000931215 0)
(0 0.0011192 0)
(0 -7.25233e-06 0)
(0 0.00039997 0)
(0 -0.000180582 0)
(0 -0.000190496 0)
(0 0.000415376 0)
(0 0.000369954 0)
(0 0.000401336 0)
(0 0.000355426 0)
(0 0.000387155 0)
(0 -4.38961e-05 0)
(0 -4.58609e-05 0)
(0 -4.76027e-05 0)
(0 0.00110475 0)
(0 0.0011204 0)
(0 0.000476751 0)
(0 0.00120245 0)
(0 -4.40408e-05 0)
(0 -4.40343e-05 0)
(0 -4.40426e-05 0)
(0 -4.16356e-05 0)
(0 -4.4871e-05 0)
(0 0.000688336 0)
(0 0.000729558 0)
(0 0.00071175 0)
(0 0.000752998 0)
(0 0.000735413 0)
(0 0.000777399 0)
(0 0.000795912 0)
(0 0.000819082 0)
(0 0.000799089 0)
(0 -2.72971e-05 0)
(0 -3.48176e-05 0)
(0 -1.82499e-05 0)
(0 -2.80627e-05 0)
(0 -9.11989e-06 0)
(0 -2.2474e-05 0)
(0 -3.07157e-06 0)
(0 -1.93182e-05 0)
(0 -1.93893e-06 0)
(0 -1.82702e-05 0)
(0 -2.01788e-06 0)
(0 -1.78704e-05 0)
(0 -1.46662e-06 0)
(0 -1.64508e-05 0)
(0 -3.69472e-07 0)
(0 -3.29644e-05 0)
(0 1.48486e-05 0)
(0 1.50092e-05 0)
(0 3.09502e-05 0)
(0 3.03036e-05 0)
(0 4.64589e-05 0)
(0 4.52196e-05 0)
(0 6.18865e-05 0)
(0 6.06687e-05 0)
(0 7.73377e-05 0)
(0 7.65568e-05 0)
(0 9.28509e-05 0)
(0 9.29112e-05 0)
(0 0.000109137 0)
(0 0.000109728 0)
(0 0.000126026 0)
(0 0.000125856 0)
(0 0.000142933 0)
(0 0.00014175 0)
(0 0.000159649 0)
(0 1.592e-05 0)
(0 -2.97848e-05 0)
(0 -4.5998e-05 0)
(0 6.01856e-05 0)
(0 0.000158037 0)
(0 0.000176408 0)
(0 0.000139605 0)
(0 -4.04094e-05 0)
(0 -5.56294e-05 0)
(0 0.000155208 0)
(0 0.000136812 0)
(0 -4.78337e-05 0)
(0 -6.17937e-05 0)
(0 0.000151699 0)
(0 0.00017696 0)
(0 0.000194309 0)
(0 0.000108943 0)
(0 -7.02047e-05 0)
(0 -7.53533e-05 0)
(0 -5.25799e-05 0)
(0 -3.94996e-05 0)
(0 0.000133381 0)
(0 0.000148045 0)
(0 0.000167236 0)
(0 0.000119513 0)
(0 -8.4037e-05 0)
(0 -8.80713e-05 0)
(0 0.000193534 0)
(0 0.000211902 0)
(0 0.000115825 0)
(0 0.000103125 0)
(0 -4.42689e-05 0)
(0 -3.2562e-05 0)
(0 9.94317e-05 0)
(0 8.79523e-05 0)
(0 -9.6698e-05 0)
(0 -0.000100144 0)
(0 -9.11382e-05 0)
(0 -0.000103347 0)
(0 -0.000111654 0)
(0 -0.000115084 0)
(0 -9.48165e-05 0)
(0 -0.000122536 0)
(0 -0.000126261 0)
(0 0.000163245 0)
(0 0.000183165 0)
(0 6.34805e-05 0)
(0 -3.77501e-05 0)
(0 -2.75079e-05 0)
(0 -0.000132724 0)
(0 -0.00013711 0)
(0 -0.000130281 0)
(0 -0.000141106 0)
(0 -0.000133934 0)
(0 -0.000144176 0)
(0 -0.000136315 0)
(0 -0.000146159 0)
(0 -0.000154567 0)
(0 -0.000156324 0)
(0 -0.000147155 0)
(0 -0.000156953 0)
(0 -0.000167139 0)
(0 -0.000167391 0)
(0 -0.000158568 0)
(0 -0.000168543 0)
(0 -0.000177117 0)
(0 -0.000177525 0)
(0 -0.000170116 0)
(0 -0.000178438 0)
(0 -0.000185351 0)
(0 -0.000186428 0)
(0 -0.000178866 0)
(0 -0.000187788 0)
(0 -8.21302e-05 0)
(0 -0.00010094 0)
(0 0.000275063 0)
(0 0.000254372 0)
(0 -4.2284e-05 0)
(0 -4.20664e-05 0)
(0 7.17438e-05 0)
(0 0.000292802 0)
(0 0.00027023 0)
(0 0.000308324 0)
(0 0.000285432 0)
(0 0.000244473 0)
(0 0.000257963 0)
(0 0.000215607 0)
(0 0.000226335 0)
(0 0.000186041 0)
(0 0.000192994 0)
(0 0.000234715 0)
(0 0.000197335 0)
(0 0.000238744 0)
(0 0.000198674 0)
(0 0.000238258 0)
(0 0.000197593 0)
(0 0.000237517 0)
(0 0.000197598 0)
(0 0.000239954 0)
(0 0.0001992 0)
(0 0.000242167 0)
(0 0.000157642 0)
(0 0.000198769 0)
(0 0.00023997 0)
(0 0.000195354 0)
(0 0.000236601 0)
(0 0.000192168 0)
(0 0.000234739 0)
(0 0.000158554 0)
(0 0.000191492 0)
(0 0.00023349 0)
(0 0.000191734 0)
(0 0.000232837 0)
(0 0.000279705 0)
(0 0.000277686 0)
(0 0.000323326 0)
(0 0.000155934 0)
(0 0.000192378 0)
(0 0.000235364 0)
(0 0.000210312 0)
(0 0.000230032 0)
(0 -0.000195178 0)
(0 -0.000196728 0)
(0 0.000340843 0)
(0 0.00037274 0)
(0 0.00130891 0)
(0 0.000326178 0)
(0 0.000357819 0)
(0 -0.000189203 0)
(0 -0.00019931 0)
(0 -0.000206778 0)
(0 -0.000210468 0)
(0 -0.000201839 0)
(0 0.000840837 0)
(0 0.000861519 0)
(0 0.000819271 0)
(0 -0.000198073 0)
(0 -0.000196698 0)
(0 -0.000194362 0)
(0 -0.000200806 0)
(0 -0.000202029 0)
(0 -0.000210206 0)
(0 -0.000206495 0)
(0 -0.000215085 0)
(0 -0.000219327 0)
(0 -0.000222882 0)
(0 -0.000226937 0)
(0 -0.000230947 0)
(0 -0.000223672 0)
(0 -0.000234488 0)
(0 -0.000242381 0)
(0 -0.000247732 0)
(0 -4.67519e-05 0)
(0 -4.77837e-05 0)
(0 0.00072534 0)
(0 0.00118663 0)
(0 -0.000254184 0)
(0 -0.000261131 0)
(0 -0.000249774 0)
(0 -0.000265555 0)
(0 -0.000272586 0)
(0 -0.000275783 0)
(0 0.000257565 0)