/*--------------------------------*- C++ -*----------------------------------*\
| =========                 |                                                 |
| \\      /  F ield         | OpenFOAM: The Open Source CFD Toolbox           |
|  \\    /   O peration     | Version:  v2012                                 |
|   \\  /    A nd           | Website:  www.openfoam.com                      |
|    \\/     M anipulation  |                                                 |
\*---------------------------------------------------------------------------*/
FoamFile
{
    version     2.0;
    format      ascii;
    class       surfaceVectorField;
    location    "600";
    object      Uf;
}
// * * * * * * * * * * * * * * * * * * * * * * * * * * * * * * * * * * * * * //

dimensions      [0 1 -1 0 0 0 0];


internalField   nonuniform List<vector> 
20642
(
(0.891605 -0.0221595 -8.09824e-21)
(0.903426 -0.0208841 4.07996e-20)
(0.910044 -0.014506 1.6017e-20)
(1.04773 0.0344912 -2.94013e-23)
(1.05015 0.035445 -2.75195e-23)
(1.04969 0.0323248 0)
(1.02454 0.0622942 -4.47033e-21)
(1.02556 0.0614081 1.03808e-20)
(1.02437 0.0607115 5.45311e-21)
(1.03795 0.0105411 3.16084e-21)
(1.03789 0.0109614 2.93243e-21)
(1.03739 0.0104887 5.0142e-21)
(1.00574 0.023573 0)
(1.00547 0.0251794 8.3211e-22)
(1.00718 0.024568 2.35943e-22)
(1.0452 0.0329497 3.03085e-22)
(1.04522 0.0360029 -3.51291e-23)
(1.04735 0.0247013 -4.68328e-21)
(1.04681 0.0238354 -8.02436e-21)
(1.0465 0.0245799 -4.88398e-21)
(1.11123 0.0270093 -9.65394e-23)
(1.12381 0.0330443 3.4166e-22)
(1.12321 0.0185953 0)
(1.061 0.0184146 4.58409e-21)
(1.06014 0.0188294 -2.7904e-21)
(1.06112 0.0195565 -3.39422e-21)
(0.00668428 -0.112256 -4.1913e-21)
(0.0209745 -0.12345 -1.83578e-21)
(1.09715 0.0200975 -3.73471e-22)
(1.09582 0.0305889 1.06569e-21)
(1.02999 0.00870521 -2.29464e-22)
(1.03032 0.00902661 -2.886e-21)
(1.03042 0.00879685 -8.34294e-21)
(1.01392 0.000152107 0)
(1.01405 9.22762e-05 2.34942e-21)
(0.639942 -0.148707 -1.16607e-21)
(0.607683 -0.16483 -8.79136e-22)
(0.622414 -0.146878 -1.26572e-21)
(1.0308 0.0256654 -9.38805e-24)
(1.03146 0.0265949 1.32336e-23)
(1.03201 0.0254637 3.49101e-23)
(0.873978 -0.0224361 -1.83776e-20)
(0.832383 -0.0301149 -1.849e-20)
(1.0037 4.43818e-05 -2.2612e-23)
(1.00372 3.06607e-05 0)
(1.00228 7.92622e-06 4.60746e-23)
(1.09044 0.014304 -2.0999e-22)
(1.08377 0.0104504 -2.52834e-22)
(1.08361 0.0185427 6.65929e-22)
(1.03457 0.0596242 1.21374e-20)
(1.03414 0.0599109 -6.47115e-21)
(1.03406 0.0593948 6.18745e-21)
(0.835599 -0.00529244 2.38303e-20)
(0.918585 0.00225927 4.79492e-21)
(0.921193 0.00487958 1.83963e-20)
(1.03915 0.00844226 -6.60631e-22)
(1.03904 0.00751872 2.83838e-22)
(1.03992 0.00775878 0)
(1.01642 0.0113892 0)
(1.01679 0.0112414 3.30561e-22)
(1.01677 0.0118903 0)
(1.04326 0.0435514 9.43378e-21)
(1.04424 0.0437802 1.08287e-22)
(1.04328 0.0445921 -1.3509e-20)
(1.01597 0.0114335 -7.5875e-23)
(1.01614 0.0108691 0)
(1.03669 0.0142312 0)
(1.03696 0.0145569 -2.62312e-21)
(1.03663 0.0143103 0)
(1.04324 0.00560393 0)
(1.04203 0.0063359 -3.3777e-22)
(1.04322 0.00688913 -1.38104e-22)
(0.847274 0.0445632 2.18871e-22)
(0.898395 0.0315765 2.0885e-21)
(0.886782 0.0343961 -1.6039e-21)
(0.0267373 -0.102442 -5.78689e-21)
(1.06116 0.00303511 1.60597e-22)
(1.05749 0.00274725 1.20207e-21)
(1.05895 0.00598167 -3.54287e-22)
(1.01744 0.00302524 -1.24157e-23)
(1.0173 0.0036756 -6.33296e-22)
(1.0166 0.00306135 1.09919e-23)
(-0.0288981 -0.0844414 1.07866e-20)
(-1.99309e-05 -0.0975459 3.20251e-20)
(1.05026 0.0613376 0)
(1.05053 0.0626558 -1.15231e-22)
(1.04917 0.0616198 2.81194e-23)
(1.03505 0.0116663 2.23308e-21)
(1.03458 0.0113776 2.7793e-21)
(1.03497 0.0113971 4.06199e-21)
(0.918841 -0.000199484 -6.33407e-21)
(0.936892 0.00391831 1.02628e-22)
(0.932913 0.00453698 -4.45047e-21)
(1.01975 0.00121931 -4.88389e-23)
(1.01946 0.00160017 -1.7966e-22)
(1.02056 0.00161055 7.15868e-23)
(1.12516 0.0441125 -1.76465e-21)
(1.12251 0.031547 1.70987e-21)
(1.03469 0.0138216 2.59431e-22)
(1.03488 0.0137226 -1.32939e-22)
(1.0352 0.013888 2.47029e-22)
(1.00425 0.000128636 1.22017e-22)
(1.00713 0.000321012 -1.61934e-22)
(1.00394 0.000102801 1.11556e-22)
(1.04786 0.0254927 -2.68482e-21)
(1.04812 0.0247152 -3.50557e-21)
(1.0305 0.0123449 8.12673e-22)
(1.02947 0.0123266 0)
(1.03012 0.0134226 0)
(1.00148 -7.04998e-05 2.7577e-22)
(1.00114 -2.37761e-05 8.54212e-23)
(1.00261 7.73915e-06 1.4055e-22)
(1.00617 0.000382401 1.48507e-22)
(1.00535 0.000817733 -5.86499e-22)
(1.00606 0.00146462 1.46821e-22)
(1.057 0.0133662 0)
(1.05586 0.0137331 5.26889e-21)
(1.05614 0.0125679 0)
(1.03612 0.0638776 0)
(1.03652 0.0647348 0)
(1.03538 0.0644926 0)
(1.03685 0.0632042 0)
(1.0358 0.0628817 -7.32414e-21)
(1.00243 0.0601233 7.7363e-21)
(1.00476 0.0597776 -3.25762e-21)
(1.00338 0.0631167 4.0867e-21)
(1.03914 0.00935022 -5.75377e-22)
(1.03835 0.00920757 -1.6303e-21)
(0.366737 -0.0112586 2.21004e-21)
(0.543964 0.00877158 -1.71911e-21)
(0.539686 0.0127873 8.86426e-21)
(0.897978 0.16567 -2.44235e-21)
(0.887473 0.166842 0)
(0.939207 0.165574 3.97814e-22)
(1.01936 0.000924928 -1.76114e-23)
(1.02027 0.000867932 -3.0205e-24)
(1.0296 0.00868583 1.89124e-21)
(1.02963 0.00844895 2.32348e-21)
(1.02044 0.053617 1.17529e-20)
(1.01883 0.0540918 -9.60787e-21)
(1.01917 0.0522459 1.88356e-21)
(0.606875 -0.0247239 -4.26228e-21)
(0.750515 -0.021005 -7.22747e-21)
(0.599312 -0.0268713 1.67719e-22)
(1.02574 0.00972985 3.08405e-22)
(1.02535 0.009427 0)
(1.02534 0.00971322 0)
(1.02699 0.0100682 1.68977e-21)
(1.02656 0.00979095 2.20073e-22)
(1.0269 0.00974701 -6.45057e-22)
(1.02154 0.0533216 1.00015e-21)
(1.02123 0.055026 1.73767e-20)
(0.258357 -0.0530611 2.08433e-20)
(1.04226 0.0431116 3.20919e-21)
(1.04327 0.0423021 8.11825e-21)
(1.00688 2.62869e-05 0)
(1.00645 -0.000819157 1.43228e-22)
(0.999227 0.0605933 -5.55825e-22)
(1.00095 0.0571409 1.88878e-21)
(0.856702 0.200465 -1.98012e-20)
(0.810985 0.217892 -1.84443e-20)
(0.825966 0.221004 1.10204e-20)
(1.04356 0.0149019 7.83245e-22)
(1.04579 0.0125626 -1.77368e-21)
(1.04294 0.0112024 3.38147e-22)
(1.00343 -2.88093e-05 1.30752e-22)
(1.00366 -2.36491e-06 -1.40759e-23)
(1.00432 -2.18336e-06 -6.37365e-23)
(1.03677 0.0140628 0)
(1.03638 0.0139025 -1.49681e-21)
(1.03212 0.0411182 1.09845e-21)
(1.03398 0.0417255 -6.53649e-21)
(1.03639 0.0391082 -1.37272e-20)
(1.04146 0.0456933 -2.57813e-22)
(1.04129 0.0402439 -1.00303e-21)
(1.04636 0.0419717 -2.70622e-22)
(1.06469 0.00359322 3.19323e-22)
(1.06896 0.00432726 0)
(1.06588 0.00778909 0)
(1.11543 0.0511292 8.68445e-22)
(1.12533 0.0601514 -2.95039e-22)
(1.09733 0.00839446 -2.19994e-22)
(0.839655 -0.0158259 0)
(0.827952 -0.0189394 -3.61539e-21)
(0.822012 -0.0194138 -2.09951e-22)
(1.02777 0.0467444 -1.29403e-20)
(1.02985 0.0477472 2.38729e-22)
(1.02829 0.0451149 2.49418e-20)
(0.907571 -0.0036834 -1.85651e-21)
(0.903637 -0.00297071 -8.81055e-21)
(1.03436 0.00405075 -3.00828e-21)
(1.03506 0.00421292 1.93985e-21)
(1.0344 0.00446517 -3.87853e-21)
(1.00756 -0.000178114 -1.00306e-22)
(1.00735 0.00074674 0)
(1.03879 0.00658821 1.3458e-22)
(1.03802 0.00747332 -4.7537e-22)
(1.03553 0.0139424 2.6713e-22)
(1.0357 0.0141889 -7.05283e-22)
(1.03551 0.0138833 9.08077e-22)
(1.01214 0.0194163 4.96967e-22)
(1.01227 0.0202811 -8.05181e-23)
(1.01316 0.0197173 -1.12087e-22)
(1.00809 -0.000285483 -1.93687e-22)
(1.0079 -0.00113608 3.17375e-23)
(1.03554 0.0138898 -4.24783e-21)
(1.03525 0.013711 -1.07437e-21)
(1.03513 0.0117976 1.23137e-21)
(1.03542 0.0118662 2.5131e-21)
(1.02559 0.0138626 -3.22137e-22)
(1.02503 0.0138912 6.99466e-22)
(1.02508 0.0133564 6.56195e-22)
(1.00401 9.0336e-05 1.44539e-23)
(1.00401 8.70126e-05 0)
(1.00248 2.1714e-05 0)
(1.03434 0.00359683 0)
(1.03367 0.00384368 2.9445e-22)
(1.00892 0.0484196 0)
(1.01249 0.0501059 0)
(1.00965 0.0511323 0)
(1.01697 0.0016668 -4.83729e-22)
(1.01706 0.00186411 1.18852e-21)
(1.0168 0.0017882 4.90147e-22)
(1.04003 -0.0531643 2.84526e-21)
(0.99362 -0.0562479 -8.3645e-22)
(0.996476 -0.0558209 1.98878e-21)
(1.05165 0.0608706 0)
(1.05008 0.0600627 5.42055e-21)
(1.01658 0.00100137 -8.54982e-22)
(1.01639 0.00102273 -6.71394e-22)
(1.01587 0.000761113 -1.65967e-21)
(1.03136 0.0124781 7.73414e-22)
(1.031 0.0113215 -1.57176e-21)
(1.0035 5.54933e-05 -1.56694e-22)
(1.0046 5.56712e-05 -2.09745e-23)
(1.00584 8.56798e-05 -8.74484e-23)
(1.00563 7.18022e-05 2.25296e-22)
(1.00615 0.000126901 -6.03152e-23)
(1.05765 0.0143733 1.23846e-20)
(0.90554 0.151445 4.66797e-21)
(0.851858 0.163182 1.86227e-21)
(1.01642 0.00272899 1.79107e-23)
(1.01666 0.00310263 0)
(1.01599 0.00286414 0)
(1.02882 0.0121566 4.53193e-22)
(1.02838 0.0121432 -1.07884e-21)
(1.02888 0.0124686 -1.83465e-21)
(1.06271 -0.000809486 2.65275e-22)
(0.842559 0.0390721 3.53778e-22)
(0.906851 0.020066 2.93365e-21)
(0.873007 0.0257211 0)
(1.00502 0.000115263 8.07712e-23)
(1.00507 0.000104055 -4.29131e-22)
(1.0032 5.70352e-05 1.7539e-22)
(1.01681 0.00117106 1.15229e-21)
(1.01671 0.000967103 1.39087e-21)
(1.00104 -0.00199781 4.66034e-22)
(1.00427 -0.00326023 0)
(1.00223 -0.00563905 0)
(1.00314 6.23048e-06 -3.0759e-23)
(1.00312 -9.62739e-06 8.75769e-23)
(1.00212 2.58408e-06 -6.28073e-23)
(1.00321 1.67536e-06 1.22305e-22)
(1.00398 -5.29838e-05 2.02283e-23)
(1.0261 0.0142549 -6.82122e-22)
(1.02602 0.0137505 -8.00305e-22)
(1.00732 0.000306518 -2.52111e-23)
(1.00727 0.000279236 1.74843e-22)
(1.00633 0.000227171 0)
(1.01208 0.0182287 -4.37092e-22)
(1.01113 0.0187215 -4.85174e-22)
(0.978768 0.0973963 -3.93694e-22)
(0.979461 0.0932096 6.37121e-21)
(0.977365 0.0962058 8.13089e-21)
(0.984126 0.0319148 -7.96262e-21)
(0.980118 0.0281537 -2.96012e-20)
(0.977258 0.0276646 -4.46474e-20)
(1.04046 0.0164085 -2.50872e-21)
(1.04319 0.0183177 -4.61523e-23)
(1.00464 -7.86961e-05 -5.29683e-22)
(1.00452 0.00134015 -4.60166e-22)
(0.797448 0.0590256 2.49423e-23)
(0.808682 0.0521317 4.95889e-22)
(1.02059 -3.87678e-05 1.06963e-22)
(1.02064 -0.000109511 -1.4626e-21)
(0.957028 0.00871739 5.35295e-21)
(0.943298 0.00440246 1.14351e-20)
(1.0546 0.00274907 5.40597e-22)
(1.05561 -0.000422599 6.84e-22)
(1.03053 0.0401688 1.10577e-21)
(1.03014 0.0424438 -6.49652e-21)
(1.03548 0.0138435 4.88363e-22)
(1.03561 0.014029 -1.28855e-21)
(1.03548 0.0139115 1.41146e-21)
(1.03499 0.059144 5.23239e-21)
(1.0351 0.0598482 -4.32557e-22)
(1.00495 9.68588e-06 7.59662e-24)
(1.00563 5.94939e-05 -6.57045e-23)
(1.00519 2.72658e-05 2.84654e-23)
(1.02891 0.0612551 -2.88298e-21)
(1.02814 0.0619972 2.08479e-20)
(1.02935 0.0621802 3.9749e-21)
(1.03287 0.000799472 3.25073e-21)
(1.03305 0.00128351 5.47732e-21)
(1.03236 0.00102851 1.25479e-21)
(1.00513 0.000146115 -1.8102e-23)
(1.00388 8.07843e-05 8.90645e-23)
(1.00855 0.000854382 1.95485e-22)
(1.00882 0.0012406 9.46858e-23)
(1.00893 0.000632154 -8.75805e-23)
(1.07316 0.00592685 -8.11593e-23)
(1.07146 0.000137442 -3.55865e-22)
(1.03185 0.0547099 -4.32839e-21)
(1.03111 0.0543157 8.64046e-21)
(1.03191 0.0537914 1.36715e-20)
(0.735758 -0.0182317 -2.72763e-22)
(0.753905 -0.0100577 0)
(0.746898 -0.0175576 1.15501e-22)
(1.00876 0.0469345 1.60799e-21)
(1.00625 0.0476389 -5.95007e-21)
(1.03683 0.0139282 0)
(1.03691 0.0137404 0)
(1.03651 0.0135861 0)
(1.03957 0.00565584 7.62099e-23)
(1.03836 0.00552844 -1.099e-22)
(1.01345 0.00212042 2.9464e-23)
(1.01357 0.00193368 9.7783e-23)
(1.01331 0.00224094 -7.29857e-23)
(1.03255 0.0549347 -9.95392e-21)
(1.03193 0.0553387 -2.84274e-21)
(1.05984 0.0356096 1.14149e-20)
(1.05897 0.0362821 1.44668e-20)
(1.06028 0.0366004 -4.01818e-21)
(0.994965 0.0291278 7.21628e-22)
(0.996428 0.0302844 1.09542e-21)
(0.994411 0.0310349 3.06867e-22)
(0.975028 0.0791547 0)
(0.965797 0.0773235 0)
(0.970753 0.0738312 0)
(1.03553 0.0138079 7.7523e-22)
(1.03532 0.0136725 5.2007e-22)
(1.04567 0.0644897 1.68909e-22)
(1.04436 0.0641444 7.78069e-21)
(1.04471 0.06563 -1.25057e-21)
(0.746996 0.0748044 -3.2048e-22)
(0.783395 0.0658542 -1.35195e-21)
(0.716823 0.213153 0)
(0.779076 0.198597 0)
(0.76084 0.185898 0)
(0.614699 -0.0061792 -5.14345e-23)
(0.603398 -0.00633766 2.40965e-21)
(0.626431 0.00299233 -9.1595e-24)
(1.04626 0.00416519 1.01031e-22)
(1.04443 0.00485396 0)
(1.04606 0.00573683 0)
(1.00411 0.000164579 1.13476e-22)
(0.933985 0.20702 -9.60724e-21)
(0.965022 0.190275 -2.8145e-21)
(0.956331 0.19864 -1.78489e-21)
(1.00831 0.000325223 2.96478e-22)
(1.0086 -0.000414516 -7.03122e-24)
(0.977986 0.101984 -4.70243e-21)
(0.981971 0.0988533 -7.59322e-21)
(1.01615 0.00675455 0)
(1.01588 0.00652764 0)
(1.01594 0.00686047 2.01957e-22)
(1.03222 0.00402122 3.381e-21)
(1.03279 0.00424083 3.09935e-22)
(1.03232 0.00444657 7.5914e-21)
(0.996058 -0.00178698 -1.36469e-22)
(0.99666 -0.00458312 1.36346e-21)
(0.998254 -0.00242795 1.52349e-21)
(1.02724 0.048115 8.32382e-21)
(1.02528 0.0453009 -3.81942e-21)
(0.822258 0.0285992 2.67016e-21)
(0.580705 0.0171711 -3.48435e-20)
(0.644521 0.0255202 1.61693e-20)
(0.440253 -0.00909897 -2.24014e-20)
(1.02617 0.0097765 1.38562e-21)
(1.02618 0.0100582 -5.04214e-23)
(1.03212 0.0125869 0)
(1.03276 0.0126793 2.55366e-21)
(1.03257 0.0117211 1.51513e-21)
(1.00325 -2.9059e-05 1.80318e-23)
(1.00345 -2.75575e-05 -1.59354e-22)
(1.00428 -7.82731e-06 2.06775e-23)
(1.03166 0.00382222 0)
(1.0321 0.003596 6.43477e-21)
(0.820464 0.0498644 -5.83416e-21)
(0.785196 0.0554522 3.78965e-21)
(1.01156 0.0108726 1.30409e-22)
(1.01124 0.0114102 -1.09774e-23)
(1.01097 0.0106376 4.47439e-23)
(1.00738 0.000302039 3.27454e-22)
(1.00779 0.000267173 1.60038e-22)
(0.955151 0.0842139 6.55706e-22)
(0.948711 0.0868885 1.87825e-21)
(0.939776 0.0814585 2.30019e-21)
(1.00342 7.15847e-06 2.64541e-22)
(1.00341 9.83752e-06 -5.5715e-23)
(1.00216 -1.31014e-05 1.25948e-22)
(1.00463 -1.16193e-05 -1.14588e-22)
(1.00397 -4.96817e-05 2.11225e-22)
(1.01693 0.00386127 -2.06458e-21)
(1.01714 0.00409787 3.80043e-22)
(1.0168 0.00402405 9.61304e-22)
(1.0677 0.0649413 -1.01987e-20)
(1.06609 0.062163 -8.45416e-21)
(1.07021 0.0630564 -1.66533e-20)
(1.0384 0.0164672 0)
(1.03784 0.0159038 0)
(1.03745 0.016515 0)
(0.909593 0.20067 9.56866e-22)
(0.992022 0.113458 -3.49729e-21)
(0.994682 0.103685 -2.22531e-20)
(1.00567 0.104376 -3.23633e-20)
(0.993066 -0.00405069 -8.14075e-22)
(0.996118 -0.00206325 -5.07721e-23)
(0.996572 -0.00570186 1.63693e-21)
(0.613005 -0.0271438 -2.36299e-21)
(0.727541 0.0809555 0)
(0.864359 0.111642 0)
(0.760349 0.10253 0)
(1.00727 -7.91214e-05 9.95647e-24)
(1.00744 -7.64091e-05 1.80814e-23)
(1.00733 -7.52082e-05 8.78075e-24)
(1.04811 0.00360526 -3.54441e-23)
(1.0462 0.00230797 1.3572e-22)
(1.01565 0.011705 -2.34843e-22)
(1.01535 0.0119484 -3.51139e-22)
(1.016 0.0122276 3.18705e-22)
(0.993725 0.0519888 2.3195e-21)
(0.991431 0.0555302 -1.17491e-21)
(0.987001 0.0509963 -2.87372e-21)
(1.06097 0.0172922 -1.10585e-20)
(0.888635 0.158549 -8.89164e-21)
(0.874449 0.182558 -5.78019e-22)
(0.85648 0.170168 0)
(1.02112 0.0374325 -1.18044e-21)
(1.02213 0.0377517 0)
(1.02114 0.0388828 -5.85308e-21)
(1.00325 6.81727e-06 -4.02634e-23)
(1.00413 2.76273e-05 2.28437e-23)
(1.00308 6.32637e-06 -3.69566e-23)
(1.03853 0.0106744 4.69888e-21)
(1.03808 0.0102314 8.94008e-24)
(1.01749 0.0547619 -1.25755e-21)
(1.01579 0.0555794 4.92606e-21)
(1.01605 0.0535118 1.09547e-20)
(1.06066 0.0346965 9.92539e-21)
(1.05939 0.0344326 -4.51046e-21)
(1.03923 0.0162721 -3.10909e-22)
(1.03889 0.017004 0)
(1.05503 0.0139511 8.16461e-21)
(1.05426 0.0132205 -6.40725e-21)
(1.05394 0.0142309 -1.39866e-21)
(1.01539 0.0112665 4.4919e-22)
(1.0293 0.00863661 -9.66343e-22)
(1.02961 0.00888188 1.19559e-22)
(1.02542 0.0646905 -2.12243e-20)
(1.0263 0.0637159 -1.09238e-20)
(1.02641 0.0653873 6.56285e-21)
(1.0296 0.0605135 -8.08469e-21)
(1.02846 0.0602362 -8.49003e-21)
(0.99529 0.0267726 3.65318e-22)
(0.992566 0.0275202 -3.94026e-22)
(1.02893 0.00836913 7.77262e-22)
(1.02893 0.00859135 0)
(1.02414 0.0663664 -8.30579e-21)
(1.02355 0.0641745 -7.61338e-21)
(1.01831 0.00291146 -2.52986e-23)
(1.01724 0.00234066 6.98083e-22)
(1.0761 -0.0459902 3.65368e-22)
(1.06848 -0.0487956 3.77125e-22)
(1.02059 0.0359171 -1.44229e-21)
(1.01958 0.0371657 3.75363e-21)
(1.03754 0.0625256 -3.13521e-21)
(1.03801 0.0634283 0)
(1.02761 0.0603485 1.73986e-21)
(1.02801 0.059521 -5.94577e-21)
(1.02691 0.0594208 -3.89115e-22)
(0.908462 -0.018593 -4.34105e-21)
(0.921992 -0.0111395 -5.20724e-20)
(0.915424 -0.0148623 -2.8701e-20)
(1.01689 0.00264381 9.295e-24)
(1.01629 0.00245871 1.49383e-22)
(0.76531 -0.0151093 -2.46702e-21)
(0.772926 -0.00927134 4.12987e-21)
(0.75554 -0.016733 2.12473e-21)
(1.03785 0.0185373 -5.22068e-21)
(1.03755 0.0184949 -9.38337e-22)
(1.03761 0.0180625 -3.87227e-21)
(0.981098 0.079097 -8.07514e-22)
(0.97845 0.0832326 0)
(1.01935 0.00197736 1.80167e-23)
(1.01845 0.00161529 -9.60281e-24)
(1.01189 0.0103533 -1.53774e-22)
(1.01218 0.0110085 6.84468e-23)
(1.03843 0.010698 5.33026e-23)
(1.0379 0.0107217 -2.56673e-22)
(1.038 0.0112327 9.7342e-22)
(0.835732 -0.0198283 4.03213e-21)
(0.832296 -0.019298 2.90124e-22)
(0.849912 -0.0159895 3.21746e-21)
(0.621865 -0.00812383 0)
(0.595346 -0.0156616 0)
(1.03314 0.014298 -4.20637e-22)
(1.03366 0.014465 0)
(1.03328 0.0146614 0)
(0.919253 0.027473 4.27033e-21)
(0.951501 0.0176158 -2.57075e-22)
(0.925566 0.0235622 -7.12198e-22)
(1.0512 0.0145379 -1.09157e-22)
(1.05133 0.0165912 -2.80281e-22)
(1.04952 0.0153746 -2.9032e-22)
(1.03168 0.0134591 0)
(1.00818 0.00112876 1.3427e-22)
(1.01872 0.0559163 -8.10077e-21)
(1.02443 0.013846 -4.15337e-22)
(1.02489 0.0143431 0)
(1.01196 0.00210392 -9.81863e-23)
(1.01174 0.00208135 -1.92939e-22)
(1.01192 0.00197278 1.48452e-22)
(0.999825 0.0292821 -7.09835e-23)
(0.999732 0.0273382 -1.45362e-22)
(1.00188 0.0284921 1.46065e-22)
(0.997988 0.0301765 2.85073e-22)
(1.0003 0.0316311 3.40278e-22)
(0.757871 0.0317878 2.31603e-21)
(1.0466 0.0636215 5.87063e-21)
(1.04683 0.0648664 5.70039e-21)
(1.04303 0.00414571 -5.02336e-23)
(1.06208 0.0394502 8.39788e-21)
(1.06352 0.0416949 -2.85019e-21)
(1.06186 0.0420177 -9.45277e-22)
(1.01141 0.000705331 -1.46318e-21)
(1.01045 0.000632273 -1.47727e-21)
(1.01215 0.000709853 6.12242e-22)
(1.01077 -0.000360045 -8.50539e-23)
(1.01088 -0.000437802 8.61461e-24)
(1.01042 -0.000293134 6.18276e-23)
(1.01111 -0.000429999 -7.17224e-23)
(1.01062 -0.000272775 8.1367e-24)
(0.692363 0.0645115 -1.99069e-21)
(1.02669 0.0627787 -2.12932e-21)
(1.0271 0.0613551 1.02723e-20)
(1.02554 0.0616416 1.07642e-20)
(1.02325 0.0679797 6.17342e-21)
(1.02225 0.0697878 0)
(1.02098 0.0674692 0)
(1.02074 0.00102984 0)
(1.02096 0.00115622 0)
(1.02093 0.000972717 0)
(1.00325 -2.91816e-05 3.16282e-23)
(1.00237 -3.82409e-05 -2.76825e-24)
(0.709941 0.0824128 -4.88741e-23)
(0.694887 0.0940303 4.54202e-22)
(0.773056 -0.0141818 -2.2966e-21)
(1.00944 -3.58743e-05 1.45678e-22)
(1.00974 -7.75727e-05 -5.04766e-23)
(1.0096 -6.07172e-05 4.67091e-23)
(1.00912 1.67171e-05 -6.28108e-23)
(1.00925 -2.317e-05 -8.19124e-23)
(1.00229 -7.0955e-05 2.0023e-22)
(1.00092 -6.70248e-05 9.14943e-23)
(1.01149 -0.000484145 8.67417e-24)
(1.01165 -0.000594105 6.29268e-23)
(1.01188 -0.000522526 -1.5263e-22)
(1.01134 -0.000371576 -2.61548e-22)
(0.895084 -0.00871347 0)
(0.906735 -0.005557 -9.96029e-21)
(0.889991 0.0498647 2.75463e-20)
(0.887599 0.0520179 -1.04221e-22)
(0.952148 0.0542751 1.67221e-20)
(1.02071 0.0129295 1.10712e-21)
(1.02035 0.0124927 7.00757e-22)
(1.02089 0.0125864 -6.02892e-23)
(1.00868 7.51138e-05 2.27635e-25)
(1.00898 0.000117048 -7.69986e-24)
(1.00878 4.91337e-05 -6.38746e-24)
(1.02709 0.0468385 -4.73072e-21)
(1.02623 0.0459293 5.36915e-21)
(1.02736 0.0457675 4.12458e-21)
(0.873768 -0.00308692 5.94174e-21)
(0.86598 -0.00789082 -2.26932e-22)
(0.880304 -0.00327189 6.43536e-21)
(1.00402 6.16711e-06 -7.88424e-23)
(1.00304 2.23847e-05 4.38135e-24)
(1.00302 7.33764e-06 -7.41511e-23)
(1.02056 0.00109358 -1.62237e-21)
(1.02054 0.000924058 -1.11908e-21)
(0.908228 0.029244 3.84539e-21)
(0.868089 0.0370949 2.529e-21)
(0.977692 0.106026 1.94398e-21)
(0.977697 0.110705 -8.62814e-22)
(0.980553 0.107601 0)
(1.02768 0.0633081 -1.15416e-21)
(1.06171 0.0380867 0)
(1.05564 0.0366794 1.12563e-20)
(1.01484 0.042428 3.99576e-21)
(1.01403 0.0409133 -1.24924e-22)
(1.01312 0.0423596 -2.19291e-22)
(1.01631 0.00665269 0)
(1.0164 0.00697092 0)
(0.955723 0.105521 0)
(0.9624 0.11829 -2.21652e-20)
(1.02783 0.0478535 -1.93202e-21)
(1.02666 0.0479927 -1.6722e-22)
(1.05217 0.00285994 -5.14817e-22)
(1.05379 0.00507176 -4.13917e-22)
(1.0392 0.0554082 -9.72989e-21)
(1.03839 0.0556016 -6.77306e-22)
(1.03905 0.056383 -1.00336e-20)
(1.03261 0.0141354 4.05551e-22)
(1.03298 0.013981 -9.03042e-22)
(0.921065 0.0465488 1.06723e-20)
(1.03322 0.0016921 1.86724e-21)
(1.03279 0.00187539 -2.19117e-21)
(1.03338 0.0021409 0)
(1.02909 0.0237324 -2.83474e-21)
(1.02822 0.0236162 -4.02062e-21)
(1.02878 0.0245405 -3.78791e-21)
(1.0233 0.0374673 -1.70439e-22)
(1.02455 0.0371249 -1.35951e-21)
(1.02342 0.0361539 -4.57592e-22)
(1.02025 0.0136595 -4.41124e-22)
(1.02051 0.013233 1.05953e-22)
(1.01989 0.0132264 -8.24166e-22)
(1.00115 1.09033e-05 -1.67684e-22)
(1.03713 0.0142542 -3.54719e-23)
(1.00216 0.017054 6.82468e-22)
(1.0031 0.0158576 -1.1727e-22)
(1.0015 0.0152301 7.6077e-22)
(1.01816 0.00525999 -2.15207e-22)
(1.01887 0.00509685 1.03356e-23)
(1.01899 0.00568878 -1.18274e-23)
(0.788814 0.00345636 1.71263e-21)
(0.779312 -0.00281211 2.38597e-21)
(0.769618 -0.00287104 3.99002e-22)
(0.66704 0.0179616 3.57808e-21)
(0.683177 -0.000687076 5.76067e-21)
(0.713032 0.0394672 -1.9082e-21)
(1.00952 0.00353772 -3.30185e-22)
(1.00988 0.00359654 -1.2368e-22)
(1.00962 0.0031202 -6.15153e-23)
(1.00895 8.36509e-05 -7.86198e-23)
(1.00883 7.64881e-05 -6.92731e-23)
(1.01155 0.0121498 6.31573e-23)
(1.01084 0.0120021 1.17865e-22)
(1.00907 7.4334e-05 1.82695e-23)
(1.0088 0.000135289 -6.8777e-24)
(1.03375 0.00151584 -2.46074e-22)
(1.0179 0.000226899 8.88815e-22)
(1.01338 0.000160824 0)
(1.03847 0.0322141 3.71857e-21)
(1.03828 0.033147 -1.05854e-21)
(1.03751 0.0324135 7.90898e-22)
(1.00915 0.00347169 6.3004e-23)
(1.00945 0.00409599 2.90242e-23)
(0.578437 0.0028504 2.5038e-21)
(0.599202 0.0127748 3.02122e-22)
(0.987468 0.0356978 1.50107e-20)
(0.999779 0.035808 7.12186e-21)
(1.02596 0.00725452 1.88122e-21)
(1.02591 0.00700496 2.09512e-21)
(1.0255 0.00701068 1.83979e-21)
(1.00646 0.0154268 -3.71776e-22)
(1.00583 0.0165219 3.87273e-22)
(1.00711 0.0167144 -6.7004e-22)
(0.996738 0.060944 5.33448e-22)
(0.995391 0.0575939 -3.4392e-21)
(0.992013 0.0611633 2.7858e-21)
(1.0115 0.000867515 2.20947e-23)
(1.01167 0.00106939 -5.59441e-23)
(1.01119 0.000893788 1.61845e-23)
(1.00906 -0.00436233 -5.8402e-22)
(1.00715 -0.00336224 0)
(1.00962 -0.00158829 -2.3025e-23)
(0.809398 0.00985013 -4.60963e-22)
(0.799551 0.0100568 5.41996e-22)
(1.01131 0.000709549 -1.79364e-23)
(1.01184 0.00085861 -1.64686e-23)
(0.853106 -0.0117048 -7.81353e-22)
(0.84635 -0.0118225 3.91238e-21)
(1.01747 0.00535215 -5.78055e-24)
(1.01737 0.00482889 -4.34649e-24)
(1.0606 0.0669434 2.40375e-20)
(1.06821 0.0689014 0)
(1.00322 6.08158e-06 3.26381e-23)
(1.00212 -1.11166e-05 -5.44058e-25)
(1.02971 0.0238127 1.05166e-23)
(1.02871 0.0237969 -3.34511e-23)
(1.02908 0.0229064 1.14793e-22)
(1.02011 0.0139843 5.75472e-23)
(1.02069 0.0140253 3.82272e-22)
(1.01503 0.00660304 -4.24518e-22)
(1.01475 0.00639972 -7.65842e-22)
(1.0149 0.00633095 0)
(1.03277 0.0591425 -4.7281e-21)
(1.03278 0.0589374 -1.63553e-20)
(1.03297 0.0590479 -6.82474e-21)
(1.00728 0.000354206 1.14369e-23)
(1.0073 0.000329465 3.0094e-22)
(1.0052 0.000183658 3.29362e-22)
(0.981564 -0.000419272 5.19812e-21)
(0.986855 0.000436799 -4.14248e-21)
(1.03557 0.0182443 -2.38324e-21)
(1.03523 0.0180188 -1.26137e-21)
(1.03554 0.0176781 1.35605e-21)
(0.995766 0.000547136 -3.72505e-24)
(0.993718 -0.00132883 -1.02886e-22)
(0.983933 0.0157366 8.90083e-22)
(0.98033 0.014785 2.52524e-21)
(0.990051 0.012307 1.55568e-21)
(0.570074 -0.00639067 -3.88765e-21)
(1.00481 1.40599e-05 -8.77816e-23)
(1.00477 2.25292e-05 2.7389e-22)
(1.03609 0.0426406 -2.98594e-22)
(1.03618 0.0435957 -1.22908e-20)
(1.03704 0.0432038 2.41915e-21)
(1.00369 0.0202669 -2.18333e-22)
(1.00279 0.0186495 7.71424e-23)
(1.00455 0.0190186 1.18783e-22)
(1.03562 0.0137689 4.03976e-21)
(1.03573 0.0136759 -1.36764e-21)
(1.03552 0.0136259 -3.23424e-22)
(1.00469 0.0220902 0)
(1.00635 0.0218328 6.79568e-22)
(1.03557 0.0138923 -4.42714e-21)
(1.03577 0.0141433 3.22424e-21)
(1.0169 0.00348578 0)
(1.01709 0.00388673 -1.5431e-24)
(1.01638 0.00361635 0)
(1.00829 0.000439773 -6.83275e-22)
(1.00704 0.000321884 -1.33352e-22)
(1.01302 0.0511914 -1.65735e-21)
(1.01285 0.0531554 -1.04706e-20)
(1.01464 0.052295 4.09255e-21)
(0.987939 -0.0375762 0)
(0.985967 -0.0446162 0)
(0.994428 -0.0414701 8.19706e-22)
(1.0299 0.0239494 1.51799e-21)
(1.02938 0.0230472 1.73962e-21)
(1.03564 0.0138601 5.70769e-22)
(1.03534 0.0136735 -1.5393e-21)
(1.02042 0.00112127 -2.65169e-21)
(1.02026 0.000999301 -3.04282e-21)
(1.02025 0.00113871 -1.21711e-21)
(0.960868 0.0811933 -1.08021e-21)
(0.966963 0.0864764 -1.61175e-21)
(0.830514 -0.0237868 1.99477e-21)
(0.786251 -0.0244092 -1.0756e-20)
(1.01386 0.00152361 0)
(1.01394 0.00143851 0)
(1.01361 0.00164993 0)
(0.991362 -0.000235951 -2.14865e-22)
(0.988528 -0.00155444 -1.51584e-22)
(0.991494 -0.00331786 -1.42132e-22)
(1.03577 0.0138789 -9.66173e-22)
(0.969298 0.0375203 3.01661e-22)
(0.970197 0.0317014 -9.69913e-22)
(0.975031 0.0356107 4.99825e-22)
(1.03631 0.0792209 7.71902e-21)
(1.03472 0.0799907 1.49711e-20)
(1.03682 0.0811265 1.20749e-20)
(1.00324 0.0301873 5.62854e-21)
(0.991611 0.0260209 -1.59462e-20)
(0.986659 0.027156 -1.85548e-20)
(0.914449 0.153218 -5.36887e-21)
(0.909617 0.145859 -1.33334e-20)
(1.03049 0.0352662 -3.57132e-22)
(1.03616 0.0377282 2.91116e-22)
(1.03233 0.0405686 -6.75001e-22)
(0.998593 0.0317922 1.41239e-21)
(0.998845 0.0294816 3.63255e-22)
(1.00705 0.0144596 -1.86108e-22)
(1.00594 0.0140641 3.72248e-23)
(1.01573 0.0519726 0)
(1.01516 0.0495174 7.19822e-21)
(0.961193 0.0400962 -3.00459e-21)
(0.968026 0.0444583 1.39357e-21)
(1.02342 0.062994 1.13561e-21)
(1.02476 0.0635495 -4.24801e-21)
(1.01754 0.000372039 1.40106e-21)
(1.01265 8.10224e-05 1.28998e-21)
(1.03024 0.0247 0)
(1.02973 0.0256879 -6.66793e-23)
(0.941716 0.0203547 4.58525e-21)
(1.01389 0.0122363 -5.78896e-23)
(1.01438 0.0121438 2.6545e-22)
(1.01428 0.0127671 -5.3139e-23)
(1.05334 0.0348476 -1.74724e-22)
(1.05131 0.0375537 -9.27603e-24)
(1.03806 0.0618656 6.7951e-21)
(1.0371 0.0616848 -2.02699e-21)
(1.00367 1.22216e-05 1.12309e-23)
(1.00343 7.18577e-07 -8.12407e-23)
(1.00223 -1.88438e-05 4.41306e-23)
(0.995515 0.0523093 6.05164e-23)
(0.995598 0.0487605 -1.25029e-21)
(1.01685 0.0013208 2.19353e-22)
(1.0169 0.00151591 -3.53261e-21)
(1.01671 0.001427 -1.46802e-21)
(1.07075 0.0475122 1.98278e-21)
(1.07151 0.0491206 1.10817e-20)
(1.01082 0.00399616 1.96608e-22)
(1.01032 0.00367797 -6.76505e-24)
(1.01049 0.00427773 9.66701e-23)
(0.646699 -0.00911695 2.08483e-21)
(0.669364 -0.0174315 3.23634e-20)
(1.01041 0.00194964 -1.97755e-22)
(1.01028 0.00184255 0)
(1.01029 0.00182372 3.02724e-22)
(1.03059 0.0241596 2.01952e-21)
(1.03094 0.0234775 2.23432e-21)
(1.03128 0.0243464 1.03218e-22)
(1.05269 0.0135277 -3.95817e-23)
(1.05036 0.0128179 -2.51528e-22)
(1.02605 0.0321228 -5.01832e-23)
(1.02867 0.0303071 -1.61031e-23)
(1.00479 0.000103021 4.22205e-23)
(1.00405 5.83709e-05 -1.08997e-22)
(1.0396 0.0570051 5.11874e-21)
(1.0402 0.0577727 -8.31214e-22)
(1.04057 0.0568146 1.04405e-20)
(0.984208 0.083545 -7.04654e-23)
(0.988867 0.0839352 6.6974e-23)
(0.986038 0.0800843 4.34793e-22)
(1.0287 0.0115953 -1.54689e-21)
(1.02877 0.0118879 9.85995e-23)
(1.02828 0.0115196 1.77438e-22)
(1.01336 0.0122893 0)
(1.01357 0.0116935 -9.97963e-24)
(0.970708 0.0122114 7.23842e-22)
(0.976228 0.0124458 -7.96786e-22)
(0.981151 0.0903126 1.43594e-21)
(0.982738 0.0864667 9.41241e-22)
(0.985843 0.0907458 3.50274e-21)
(1.03492 0.0996375 -1.46656e-20)
(1.03529 0.0948558 4.08363e-22)
(1.04125 0.100933 -2.51365e-21)
(0.688976 -0.12958 5.12877e-22)
(0.657551 -0.14144 -5.04372e-22)
(1.01114 0.000564212 5.72708e-23)
(1.01082 0.000590844 3.37062e-23)
(1.02217 0.0124312 1.40717e-21)
(1.02179 0.0120153 -5.15755e-23)
(1.02232 0.0120804 7.27507e-22)
(0.977989 0.115119 2.2694e-21)
(0.97868 0.120135 -4.25405e-21)
(0.980406 0.116784 -7.6433e-22)
(1.00015 0.0330323 4.00048e-22)
(0.997805 0.0338523 1.49625e-21)
(1.01149 0.000539763 5.13048e-23)
(1.01099 0.000416018 -2.1593e-22)
(1.00258 0.0218697 0)
(1.02748 0.00884565 1.94279e-21)
(1.02787 0.00910312 -1.0352e-21)
(1.02745 0.00900793 1.14177e-21)
(1.03527 -0.00473444 -3.18913e-22)
(1.03544 -0.00697493 -1.19661e-23)
(1.03307 -0.00573804 -6.30039e-22)
(1.03025 0.0248827 0)
(1.0278 0.056825 3.78295e-22)
(1.02843 0.0562249 1.45686e-21)
(1.02748 0.0557828 1.29172e-21)
(1.00898 0.0316115 1.58062e-21)
(1.01029 0.0304009 2.03478e-22)
(1.01086 0.0322876 -2.16336e-22)
(1.01183 -0.00518831 4.46656e-22)
(1.00917 -0.00778261 -6.59463e-22)
(1.06621 0.0469038 1.36561e-21)
(1.06491 0.0470604 1.17808e-21)
(1.06561 0.0483795 -7.97398e-22)
(0.940955 0.000686265 0)
(0.927238 -0.00432782 1.14932e-20)
(0.935128 -0.00049502 9.37108e-21)
(1.01357 0.00198884 -2.83366e-23)
(1.01332 0.00234465 4.64152e-23)
(1.02915 0.0116711 -1.06844e-21)
(1.02866 0.011314 9.96929e-22)
(1.00416 0.02569 6.09018e-22)
(1.00558 0.0267646 1.12383e-21)
(1.03313 0.0586299 -6.54185e-21)
(1.03282 0.0588001 4.32834e-21)
(1.03292 0.0583787 2.43309e-20)
(1.00315 -1.2585e-05 4.80547e-23)
(1.00192 -4.38822e-06 -5.75116e-23)
(1.00326 -1.34766e-05 1.58429e-22)
(0.864071 -0.0225497 1.42036e-20)
(1.06759 0.047041 0)
(1.06662 0.0457625 7.64968e-21)
(0.962257 0.0864944 -3.33516e-23)
(0.972275 0.0808768 -1.68029e-22)
(1.02711 0.0102798 1.9347e-21)
(1.0274 0.0102305 -7.32824e-22)
(1.00359 0.031976 -4.25398e-22)
(1.00228 0.0333231 -1.86075e-21)
(1.00444 0.0339657 -2.03115e-21)
(0.991562 0.00291443 3.70309e-22)
(0.993656 0.00103965 5.23768e-22)
(0.908884 0.132669 4.53134e-21)
(0.912584 0.107737 -6.52278e-21)
(0.869759 0.12358 6.24136e-22)
(1.00697 -0.00512202 -3.43312e-22)
(1.00622 -0.00399498 -5.50742e-22)
(1.0072 -0.00391229 -4.97354e-22)
(1.02511 0.0683789 5.37618e-21)
(0.998125 0.06413 -5.31663e-21)
(1.05515 0.0137237 -3.64625e-23)
(1.0542 0.0113549 -4.56285e-23)
(1.02601 0.0074518 6.72509e-22)
(1.02639 0.00746714 8.33408e-22)
(1.03806 0.0543305 -3.2485e-21)
(1.03877 0.0551835 -4.37075e-21)