/*--------------------------------*- C++ -*----------------------------------*\
| =========                 |                                                 |
| \\      /  F ield         | OpenFOAM: The Open Source CFD Toolbox           |
|  \\    /   O peration     | Version:  v2012                                 |
|   \\  /    A nd           | Website:  www.openfoam.com                      |
|    \\/     M anipulation  |                                                 |
\*---------------------------------------------------------------------------*/
FoamFile
{
    version     2.0;
    format      ascii;
    class       surfaceScalarField;
    location    "250";
    object      meshPhiCN_0;
}
// * * * * * * * * * * * * * * * * * * * * * * * * * * * * * * * * * * * * * //

dimensions      [0 3 -1 0 0 0 0];
oriented        oriented;


internalField   nonuniform List<scalar> 
20673
(
-0.000427676
-0.000269901
0.000697253
0.000463528
0.000573504
-0.00104185
-0.000346744
0.000109044
0.000237698
-0.00106682
-9.68731e-05
0.00116039
0.00129054
-0.00133114
3.38387e-05
0.00029585
-0.000306136
1.0285e-05
-0.000241092
-8.96102e-05
0.000330701
0.000291524
-0.000234261
-5.7264e-05
0.000278364
-4.99369e-05
-0.000228428
0.000547479
-0.000113917
-0.000433691
0.000394093
1.78439e-05
-0.000411965
0.00055018
-0.000576147
2.58155e-05
-0.000781314
-0.000160421
0.000253971
-9.35495e-05
0.000600708
-0.0010151
0.000413563
-0.00041607
-0.000524323
0.00093913
-0.00127923
0.00041485
0.00086049
0.000583978
-2.71422e-05
-0.000557024
-0.000121461
0.000671467
-0.000774766
0.000787963
-3.82724e-05
-0.00021943
5.81174e-06
0.000210086
2.56613e-05
-0.000266754
4.97815e-05
-0.000946499
0.000880478
0.000143541
0.000147981
0.00140572
-0.00131977
-9.39138e-05
0.00033242
-0.000197037
-0.000135384
0.000241971
0.000310259
-0.000552244
-9.03829e-05
0.000383652
-0.000293286
-0.000172343
0.000338382
-0.000166042
-3.65079e-05
0.000453542
-0.000417105
-0.00032827
-0.000340475
0.000668454
-0.000470371
-0.000349602
0.000819137
0.000525298
0.000102783
-0.000628151
0.000202582
-0.000835935
0.000633324
-0.000552106
-0.000763949
0.00131173
0.000211988
9.11934e-05
-0.00030319
-0.000819383
0.000853149
0.000267327
-0.000210877
-5.64499e-05
0.000851808
-0.00106952
0.000201431
-0.000213607
1.21763e-05
-0.000116599
-0.000116418
0.000151765
-9.58218e-06
-7.20316e-05
7.91482e-05
-0.000906676
-0.000190455
0.00104372
-0.000467112
0.000432488
3.46112e-05
0.000945507
-0.00124756
0.00029551
0.000837791
-0.00078594
-5.19349e-05
-0.000121607
0.000705366
-0.000636988
0.000365214
0.000271645
-0.000251566
0.000221124
3.04413e-05
1.63868e-05
0.000138987
-0.00020998
0.00100753
-0.000418688
-0.00058989
0.000813073
-0.00120052
0.000386602
-0.000274321
2.27553e-05
0.000789337
-0.000586793
-0.00099214
-0.000290885
0.000529233
0.000310573
-0.000840935
-0.00010813
0.000502187
-0.0012401
-0.000294892
0.00152861
0.001083
-0.000889812
-0.000195065
-0.000192827
0.0011319
0.000321906
-0.000291674
-3.02356e-05
0.00128593
-0.000827826
6.19989e-05
-0.000876784
7.81074e-05
0.00033321
-3.73604e-05
9.06302e-05
0.000209213
-0.000299847
-7.80022e-05
0.00128237
0.00122285
0.000131917
0.000307128
5.5327e-05
-0.000362479
0.000551508
0.000105585
-0.000657462
1.36984e-05
0.00127105
0.000246432
3.193e-05
-0.000266546
0.000179814
8.6732e-05
0.00144622
-4.95587e-05
-0.0002307
7.6453e-06
0.000223055
-0.000640183
0.000335492
0.000304557
-0.000192597
0.000215348
-2.27509e-05
0.00128144
-0.00112137
-0.000164046
-0.000255378
-8.42072e-05
0.000339584
-1.38274e-05
-0.000460679
0.000470841
-0.000632044
0.000129341
0.00049181
0.00107613
-0.000300295
0.000307105
-6.81017e-06
0.000181822
8.55047e-05
0.000298672
-0.000276122
-2.255e-05
0.000870402
0.000406823
-0.000701492
0.000661577
2.47076e-05
-0.000146599
0.000237226
0.000385775
0.000620484
-5.00858e-05
-0.000900424
0.00027006
-0.000207152
-6.29075e-05
-0.000205835
0.000654927
-0.00044919
-0.00150979
0.000496575
0.00100088
0.000463438
-0.00108251
0.000617521
0.000115269
-0.00026187
0.00024831
7.2732e-05
-0.000321042
0.000445797
-5.28749e-05
-0.000392965
0.000306181
-0.00061232
0.000306
0.000479898
-0.000445956
-3.39817e-05
-0.000258311
-0.000221485
0.000479786
0.000628961
0.000228734
-0.000903716
-0.000395459
0.000703965
-0.000308512
-0.000341622
-0.000125505
0.000506105
-0.00103395
0.000525091
-0.000760929
0.00122242
-0.000485126
-0.000142083
-0.00016222
0.000304301
0.000397296
-0.000354328
-4.29766e-05
-0.000430374
-0.000206716
0.00135303
-0.000942396
0.000344959
0.000270795
-0.000615996
0.000281741
-0.000249371
-3.23694e-05
0.000286727
-8.52962e-05
0.000481479
-2.02269e-05
-0.000461334
0.000105945
-0.00024803
-0.000190826
0.000861828
-0.000671173
-0.000268882
0.000173176
9.57058e-05
0.00103067
0.000290577
-0.001335
-2.14026e-05
-0.000233552
0.000254955
-0.000195698
-4.38539e-05
0.000239552
-0.000837925
0.00018218
0.000655698
0.00020054
-0.000212259
-0.000127904
0.000435007
-0.000243552
0.000155067
8.84848e-05
-0.000508755
0.000418352
0.000102201
-0.000217237
6.00139e-05
-0.000649467
0.00111118
0.00116876
-0.00093823
-0.000236697
-7.42388e-05
0.000112443
-0.000616367
-0.000156703
0.00068873
-5.78261e-05
0.000244513
-4.73289e-05
-0.000197184
-0.00102971
0.000838656
-0.0011528
-0.000100902
-0.000222054
8.44479e-08
-1.80228e-05
0.000291123
-0.000273108
0.000292666
-0.000149128
-0.000669237
0.000241244
0.000105745
-0.00036406
0.00129623
-1.34467e-05
-0.000673454
-0.000164547
-0.000293776
-8.60694e-05
0.000379833
0.000348757
-0.00130354
0.000936617
0.00116622
3.28096e-05
-0.00120017
-1.45695e-06
-0.000360221
0.000361667
0.00120023
2.26148e-05
0.000233272
-0.00034836
0.000115085
-0.000226053
0.000356738
-0.00013069
0.00127306
-0.000460925
0.000297981
-0.00123337
0.000915378
0.000472474
0.00033675
-0.000810088
0.000562561
-0.00057795
1.521e-05
-0.000129977
-0.000138905
0.000675179
-0.000264339
-0.000410931
-0.000651923
0.000654772
-3.0528e-06
-0.000373535
-0.000535151
0.000907563
0.000322153
-6.85808e-05
-0.000253573
-0.000244988
0.00079605
-0.000398364
0.000140167
0.000258189
-0.000234991
4.23934e-05
0.000266123
-0.000284154
0.000800434
0.00010084
-0.000901812
-0.00043236
0.000631618
-0.000199245
-0.000460263
0.000511002
-5.43882e-05
-6.70944e-05
0.00051284
-0.000113921
0.000595292
0.000472792
7.06717e-06
-0.000493525
0.000997014
0.000313833
0.00024916
-0.000563147
0.00146029
-0.00123681
-0.000234227
-0.000658908
0.000263447
-0.00033326
-0.000334087
0.000667093
5.35827e-05
-0.000219593
0.00016601
0.000340567
-0.000523849
0.000183208
0.00128436
-0.000734742
-0.000552597
-0.000157769
-0.000199781
0.000357546
0.000617705
-0.00053735
-8.05014e-05
-1.98808e-05
0.000264393
-0.000241343
0.00021994
-9.72326e-05
0.000330501
0.001287
-0.000101088
-0.00119641
-0.000566946
0.000361027
-0.000741898
0.000413312
-0.000938221
0.00126899
-0.000800491
8.50502e-05
2.95245e-05
-0.000667721
0.000637831
0.00020622
0.000126198
0.000413421
-0.000172867
-0.000240573
4.53924e-05
0.000276759
0.000435109
0.000219426
-0.00065489
0.000333286
1.77958e-05
-0.000351114
0.000452878
-0.000263117
-0.000189771
0.000233179
6.5492e-05
5.01799e-05
0.000297146
-0.000347344
-0.000281049
0.00116103
-0.00089658
-0.000396788
0.000398047
-1.26061e-06
-0.000285966
0.000527917
-4.43295e-05
-5.83246e-05
-0.000745571
-0.000774511
-0.000360535
4.56929e-05
0.000314827
6.50111e-05
0.000183552
-0.000248567
0.00104149
-0.000704893
-0.000338
-0.000133427
0.000108571
-0.000515387
0.000690256
-0.00017508
-8.9558e-05
0.000651922
-8.60313e-05
-0.000180515
-0.000234284
-0.000108227
0.000342501
0.000679096
-0.00123486
-0.00127748
3.19216e-05
0.000652819
-0.000346785
-0.000361177
0.000222849
0.000138326
-0.000111022
0.00127536
-0.000178415
-0.000129805
0.000308219
-0.000207861
0.000280358
-7.24969e-05
0.000514798
-0.000181557
0.000467022
-0.00125034
-0.000226866
0.000353774
-0.000126909
0.000346776
-0.000649781
0.000302811
-0.000242335
0.000255769
-1.34342e-05
1.82004e-05
0.000939979
-0.000968207
0.000262848
5.90537e-05
-0.000278291
0.00155309
-0.00051076
0.000277616
0.00023307
-0.0002754
9.27896e-05
0.000249257
-0.000230297
-1.89596e-05
-9.7009e-05
-0.000175109
0.000272116
-0.000950036
0.000532857
-7.45832e-05
-0.000296932
0.000371508
-0.000862411
0.000487905
-0.000946528
0.00138846
0.000316413
-0.000104433
-0.00018287
0.00052336
0.00067051
-0.000235774
7.58076e-05
-0.000303598
0.000227788
-6.73843e-06
-0.000201122
-0.000232479
-0.000378814
0.000548711
0.000294736
-0.000765875
8.52752e-05
0.000184784
0.000224094
-0.000248771
2.46767e-05
-0.000460883
-8.95123e-06
0.000713204
0.000466034
-0.00120723
-3.52045e-05
0.000222126
0.000124329
0.000271186
-0.000395549
3.29899e-05
1.51558e-07
-3.84532e-05
-0.000329777
-0.000107568
0.00043733
-0.000277677
-0.000240758
0.000518354
8.38792e-05
-0.000516228
0.00054613
-0.000689803
0.000143263
3.36161e-05
0.000469103
-0.00034279
0.000687067
-0.000344479
0.000143866
7.84296e-05
-0.000222296
0.00102863
0.000183998
-0.00122175
-0.00055417
0.000105043
0.00044906
-0.000409023
0.000396437
1.25829e-05
0.00100206
0.000159879
0.00105226
-0.00135274
0.000654232
-0.000394388
-0.000259972
0.000291209
-0.000180156
-0.000111053
0.000248156
0.000426927
0.000536617
-0.000507382
0.000868501
-0.000268566
-6.8841e-05
6.59009e-05
-1.55426e-06
-0.000166105
-7.74462e-05
-0.000374135
0.000251472
0.00012266
0.000432346
-9.16774e-05
-0.000340681
0.000265624
-0.00123481
-0.0002757
0.000183374
9.2326e-05
0.000188342
6.31324e-05
-0.000251475
-0.000313512
-8.4858e-05
8.59833e-06
-0.000263978
-0.000248155
-0.000392132
-0.000606387
0.000185633
-1.07155e-05
-0.000249845
-0.000403718
0.00063351
-0.000229986
0.000281245
-0.000151196
-0.000130049
0.000376601
8.11007e-05
-0.000457751
0.000753278
0.000327782
9.51693e-05
-0.000329461
-0.000415
0.000717984
0.000538543
-0.000367871
-0.000255669
0.000196609
8.47813e-05
-0.000281394
-0.000754655
0.000757998
-2.77305e-05
0.000142794
-0.000300566
0.000560493
0.000479297
2.65267e-05
-2.49024e-06
0.00100025
-0.000532927
-0.000468056
-0.000488136
-0.000163982
0.000331496
0.000300148
-0.000317264
-1.25237e-05
0.000840382
-0.000310581
-0.000530204
0.000140475
-0.00111459
0.000966523
0.000267789
0.000136137
-0.000403939
0.000269551
-0.000193745
-0.000182257
-0.000191881
-0.00107008
0.00107681
-0.000204588
0.000400784
-0.000196202
-0.000866732
0.00100433
-0.000137318
0.00119794
-0.00106544
-0.000456396
0.00147235
6.40054e-05
-0.000290061
-0.000278656
0.00011435
0.000119071
-0.000298153
-0.000212667
-0.000252925
0.000798578
0.0010476
0.000400784
-0.000575078
5.95118e-05
-0.00075621
0.00122213
-0.000468509
6.85724e-06
-0.000135766
0.000128909
0.000454077
0.000163466
0.000343781
0.000311028
0.00139358
-0.00122255
-0.000184873
0.00139483
-0.000348508
0.000306303
-0.000153487
-0.000152816
-6.39111e-05
-0.000161748
0.000225659
-0.000926819
0.00120567
0.000182119
-2.3989e-05
-0.000227455
-0.000145543
0.000342147
0.00109158
-0.00158538
0.000482072
0.000272922
-9.31082e-05
0.00151396
-0.000136866
3.33488e-05
0.000215908
0.00056504
0.000576357
-0.00114668
-0.000130203
0.000414393
-0.000284206
0.000103859
0.00064624
-0.000750742
0.000202979
-0.000232251
2.9272e-05
0.00107054
-0.000270799
0.000463828
-0.000197714
-3.67528e-05
-0.000224232
0.000260983
0.000249479
0.000749971
0.000380384
-0.000256085
0.000325841
-2.27679e-05
-0.000303081
0.00129637
-0.000585557
-0.000714152
0.000282064
-0.000208725
-7.33399e-05
-0.00012338
-0.00027341
0.000199466
-1.1124e-05
-0.000399704
-0.000496587
0.000896068
0.000179322
-0.00022242
4.30984e-05
0.000610097
-0.000754833
0.000143974
-0.000293785
7.62846e-05
0.0002175
-0.000352873
0.000316118
0.000545905
-0.000216872
-0.000329064
0.000128726
0.000417145
-8.76759e-05
-0.00025907
-4.12539e-05
-0.000531422
0.000567953
0.000344476
-0.000677971
0.000211283
7.04574e-05
0.0012595
-0.000259448
-0.00100271
-0.000642178
0.00108284
-0.000442383
0.000131199
0.000122772
-0.000361234
6.85995e-07
0.00110077
-0.00146001
0.000355119
0.000195375
0.00025749
-0.000293181
0.000120834
0.000103656
-0.000851102
0.00069674
4.88258e-05
-0.000244524
6.97957e-05
-0.000346343
0.000276536
-0.000790229
1.04349e-05
0.000408744
0.000873509
-0.0013059
-0.000882463
1.95901e-05
-0.000877323
0.00115662
0.000394288
-0.000126512
-0.000222617
-9.27458e-05
0.00031536
0.000263315
-0.000353886
9.05716e-05
8.94118e-05
0.000216891
0.00104458
-0.00153411
0.0004802
-0.00045052
-0.000103702
0.000117534
0.000102126
-0.00021966
0.000738926
-8.32281e-05
-0.000656015
-0.000268026
0.000109402
0.000171843
-0.000259231
0.00102568
-0.000451083
-0.000617791
4.56052e-05
0.000386727
0.00114899
-0.000199289
-0.000972975
0.000339072
-7.62281e-05
-0.00109895
0.000899881
0.000225863
-2.28841e-05
-0.000523197
0.000245445
-0.00102293
0.00108087
-6.0377e-05
-0.000465056
-0.000132649
0.000591846
0.000339287
0.000313363
-0.000378323
-0.000188687
0.000399026
8.73939e-05
-0.000486511
5.83677e-05
-0.000205318
0.00014695
-0.000128872
-0.000164913
-2.61907e-05
-0.000216145
-0.000637081
0.000294125
0.00053882
8.54364e-06
0.000923119
-0.000233748
6.2798e-05
0.000161296
-0.000204684
0.000304476
-9.97928e-05
-0.0016731
0.00063874
0.00102855
0.000274226
0.000189589
-0.00140744
0.000162068
0.00123833
-0.000424546
0.000292874
0.000131654
0.00111067
-0.000550585
0.000464503
-0.000510841
-0.000321573
0.000808637
-0.000488731
-0.000171946
0.000275379
-0.000103434
-0.000913238
0.000589721
0.000146352
0.000144857
0.000228554
-0.000265268
3.67136e-05
0.000307105
-2.03808e-05
-0.000286742
0.00037709
-0.000278457
-9.86344e-05
0.000818265
0.000474886
7.38191e-05
-0.000300687
0.000152857
-0.000308077
0.00117025
-0.000881521
3.60491e-05
-8.18612e-06
0.00126378
0.00137273
-0.000117162
-0.00126042
-0.000367067
0.000330501
-8.40365e-05
5.98912e-06
0.00117098
0.000340067
-0.00151752
-4.14351e-05
0.00117138
0.000296248
9.80243e-05
-0.000340648
0.000323432
-8.35384e-05
0.00026286
0.000339039
-0.000193612
-0.000145428
-0.000251725
0.000233861
1.78639e-05
-0.000281972
0.000332135
0.000284895
-0.000205366
-7.95289e-05
-0.000227201
0.00023368
-6.47884e-06
1.59972e-05
0.000722575
-0.00028783
0.00132209
-0.000341671
0.000462563
-0.000120927
6.62451e-05
0.00078387
0.000397012
0.00037236
-0.000770034
-0.00108212
0.000786635
-0.000319853
-9.74592e-05
-0.00026372
0.000162055
0.00017698
0.00045988
0.00044247
-0.000903323
0.000336229
-0.00046306
0.000126773
0.000642157
-0.00104208
-0.000337772
-0.000733691
0.000612496
-0.000213581
0.00106914
-3.70673e-05
-0.00103441
0.000338028
3.24615e-06
-0.000341285
0.00100661
0.000342023
-0.000144152
-0.00016943
0.00019256
8.03612e-05
0.000218954
-0.000238835
-2.45157e-05
0.000243469
-0.000431486
0.000401924
2.95113e-05
-3.83892e-05
-0.000213335
0.000173002
0.000109062
0.000265814
-0.000113279
-0.000152535
-0.000177698
0.000266229
-8.85313e-05
0.00065663
-0.00058442
-0.000142761
-0.000320961
0.00060916
-0.000288359
-4.75328e-05
0.00111437
0.000299949
0.000991423
-0.00129563
6.62194e-05
-0.000334712
0.000268482
-0.00052549
-0.000225073
-6.97527e-05
0.000203357
0.000653818
-0.000403979
-0.00024999
-0.000794762
0.000389005
0.000405362
6.84889e-05
0.000163319
-0.000231808
0.0006871
-0.00101029
-0.0003622
0.000497308
-0.00013516
0.000264979
-0.000217529
-4.74504e-05
0.000274383
-0.000371706
9.7313e-05
-0.000241992
0.000110993
0.000130998
-0.000338372
-0.000804376
-0.000873768
4.29835e-05
-0.000175763
0.000396806
-0.000642154
0.000184861
0.000790844
-0.000221384
0.000333501
-0.000112119
-3.78757e-05
0.000301191
0.000409159
0.000430772
0.000276799
-8.56582e-05
-0.000191141
0.000969585
-0.000441542
0.000362475
-0.000429612
9.60385e-05
0.000169775
0.000186656
0.000170079
0.000512811
-0.00020574
-0.000362069
6.82815e-05
9.44852e-05
-0.000456729
-0.000531238
-0.000132875
0.000663945
0.000441149
-0.000403915
-3.72682e-05
0.000413755
0.00021302
-0.000627071
0.000338312
7.42691e-05
-0.000412611
3.29151e-05
-0.000344665
0.00063151
-0.000287089
0.000342538
-0.000501182
0.000158574
-0.000167117
-9.07589e-05
0.000171044
0.000140313
-0.000328466
0.000188144
-0.000649174
0.000988733
-0.00034063
-0.000664501
-0.000798252
0.00144303
-0.000337826
0.000734224
4.86534e-05
0.00108596
-0.0011383
0.000242926
-0.000174437
0.000252501
-0.000146557
0.00142145
-0.000341814
0.000177965
0.000275619
-0.00023151
0.000338863
-0.000107355
-1.94173e-05
-0.000207783
-3.75433e-06
5.85146e-05
-0.0001303
-0.000111692
0.000268424
0.000629542
-0.000901227
-6.7537e-05
-0.000308487
0.000375999
-0.00166742
0.000732951
0.00092309
-4.24424e-05
0.000208475
-0.000166032
0.000391111
-7.74315e-05
-0.000313688
0.000866211
-0.000394587
-0.000202516
0.000978054
-0.000778992
0.000170359
0.000114535
0.000111612
0.000301784
0.000122737
0.000100028
-0.000222765
-8.49136e-05
-3.48093e-06
0.000263636
-0.000101022
-0.000162614
-0.000234486
-0.000162962
0.000339271
-0.000176315
0.000531161
-0.00121206
-0.000243727
-3.23962e-05
-0.000141577
0.00031199
-0.000170415
0.00070614
-5.37187e-05
-0.000652736
0.00121144
-0.000824448
0.00086798
0.000285699
-0.00115695
0.000331353
-0.000356951
-6.76099e-05
-0.000339202
3.01379e-05
-0.000460913
0.00130957
-0.000145285
-0.000287646
0.000388048
0.000277638
-0.000468798
-0.000233986
-4.17139e-05
0.00032582
-0.00025961
0.000721788
-0.000167085
-0.000271251
0.000438315
-2.65981e-07
0.000120385
0.000805567
-0.00021157
0.000514484
-0.000178314
-2.18302e-05
0.000276203
-0.000254374
-0.000464907
-0.000262891
0.000727334
-0.00119548
-5.06197e-05
0.000155679
0.00120999
-0.00113584
0.00118736
-5.18544e-05
-0.00030851
0.000278908
-4.57299e-05
-0.00060042
0.000656801
-7.00663e-05
0.00112005
-0.00112932
7.05123e-06
0.00038362
0.00072463
-0.000311208
0.000579602
-0.000476217
-0.00164396
0.000834456
-0.000991194
0.000287597
0.000701513
0.000700264
8.73563e-05
-0.000788538
0.000557716
-0.000215258
0.000317753
8.07793e-06
-0.000339969
0.000118584
-0.000460285
3.45106e-05
-0.000377107
0.00034254
-0.000334221
0.000225986
0.000590049
-0.000246368
0.000290747
0.000930971
-0.00123212
-0.000132445
0.000276311
-3.80144e-05
0.000249008
-0.000892613
0.000762436
-0.000960167
0.000195561
-0.000178763
0.000319068
0.000508847
-0.000436886
-7.20195e-05
0.00029284
-0.000161991
-0.000184549
0.000337817
-6.34447e-05
0.000371186
2.69277e-05
-0.000398165
0.000163527
-0.000226869
6.33414e-05
0.000351926
-0.000317466
0.0007873
-0.000303544
-0.000483919
-0.000514893
-0.00028021
0.000388753
-0.00085906
3.55257e-05
-0.000217784
0.000207601
0.000146797
0.00011227
-0.000259067
0.00127161
-0.000270209
-0.000684636
-0.000104961
0.000788915
9.23028e-05
-0.000363572
0.000271539
-0.000162137
0.00014034
8.20797e-05
-0.000293218
-0.000319221
-0.00040697
-2.45545e-05
-0.000990067
0.000464524
-0.000539054
-0.000366822
0.0009043
-0.00099189
-0.000656693
-0.000501511
0.000532173
-3.07284e-05
-0.000343089
0.00118072
-0.000307952
0.00065453
-0.000303283
-0.0001407
0.000287496
0.000224299
-0.000101562
-0.00111566
0.000571558
0.000542213
0.00048099
-0.000118561
-2.18565e-05
0.000412958
0.00093694
-0.000659698
-0.000277898
-0.000480267
0.00134218
-0.000863062
-0.000270575
0.000117738
0.000152838
-0.000182301
-0.000158196
0.000340494
0.000100159
0.000191787
-0.000291948
0.000447214
-0.000393652
-5.35857e-05
4.77771e-05
-0.000730871
-0.000160344
0.00020917
0.000666697
9.27066e-05
0.000129929
0.000565018
0.000162562
-0.000728169
-0.000620769
0.000309089
0.000311578
-0.000202601
0.000727813
0.000548485
-9.50199e-05
-0.000183324
0.000324458
-0.000141136
-4.15673e-05
0.000482679
-0.000814206
0.000428468
0.000385211
0.000263994
-0.00022847
0.000144024
0.000785167
-0.000931582
6.08284e-05
-0.000238526
-0.00044824
-1.88226e-05
-0.000706237
9.50853e-05
0.00011404
-0.000318633
0.000102068
-0.000284371
0.000296219
-0.000337135
4.09153e-05
0.000886652
-0.000744878
0.000696898
0.000583904
3.25816e-05
0.00108494
-0.000661812
0.0002465
-9.57559e-06
0.000215427
0.000257321
0.000351588
-0.00089215
0.000261824
0.000250941
-0.000310666
-0.000958292
-0.00071817
0.000179245
-0.000253833
-0.00029467
0.000510043
0.000304939
0.000135078
-0.00044003
-0.00153599
0.000623345
0.000901296
-0.000343177
0.000400491
-5.73451e-05
-0.00107631
1.62277e-05
0.000212326
-0.000546329
0.000432278
3.61194e-05
0.000472663
-4.68098e-05
-0.00063842
-0.000548942
1.38069e-05
0.000480686
-0.00113108
0.0014125
-0.000301944
-0.00118199
0.000237923
-0.000480716
0.000432109
4.85724e-05
0.000137336
0.000700393
0.000450453
-9.76088e-05
-0.000352862
-0.000149096
0.000207463
-0.000262736
0.000576413
0.000710484
-0.000654096
0.000501471
-0.000175335
-0.00032617
3.28302e-05
0.000263389
0.000125319
0.000222145
-0.000347472
0.00132372
-0.000304619
0.00053088
0.000240995
-0.000772065
-0.00129487
0.000809871
0.000826786
-0.000766484
-6.11611e-05
-0.000883978
-7.15882e-06
-0.000256865
0.000115286
-0.000474037
7.34598e-06
-0.000231925
-0.00058093
0.000879069
-0.000299062
0.000394023
-0.000376205
-9.12495e-05
0.000488588
-0.000397423
-0.000178359
0.000254263
-7.59042e-05
0.000450668
-0.000453955
3.22477e-06
0.00127382
-0.000409623
-0.000161136
-8.3823e-05
0.000244959
-0.00011121
0.000251551
0.00031298
0.00097999
-0.00129905
-0.00035507
0.00111526
-0.000206155
-0.000177446
0.000383593
0.000331921
0.000115264
-0.000107715
0.000484268
-9.17213e-05
8.10603e-05
-4.40062e-06
-0.000880768
0.000674791
7.40609e-05
0.000340312
-0.000132169
-0.000892614
-0.000515673
0.000602955
0.000305131
0.000348938
0.000104735
-0.00125436
-0.000489454
-0.000192916
0.000682165
-0.000194556
-2.27614e-06
-0.00105175
0.00104489
0.000974684
-0.00126276
0.000283566
-0.000134298
-0.000359365
0.000446314
0.000174408
-0.000238319
-0.000244277
2.02974e-05
-0.000496445
0.00095527
0.000217013
-0.00016343
0.0010298
-0.000500012
-0.000531318
-0.000236271
0.000338336
-0.000976276
0.000439995
-0.000404475
0.000507203
-0.00046391
-0.000338531
0.000620145
-0.000281759
-0.00132782
0.000858598
-0.000403051
0.000676658
-0.000273778
-0.000430058
3.91154e-05
0.000324725
-0.000227202
-0.000284195
0.000511332
-0.000625097
0.000890334
3.90885e-05
0.000225889
0.000243073
-0.000119483
-0.000123591
-0.000213099
0.000191268
4.41807e-05
-0.000204036
-0.000670274
0.000325323
0.000264612
0.000416904
0.00017676
-0.000593892
-0.000240988
9.61246e-05
0.000144863
0.000126643
0.00011605
-0.000242694
0.000518458
-0.000545781
0.00105547
-0.00149782
0.000435992
-9.86146e-05
0.000394847
-0.000291653
-4.54824e-05
-3.88318e-05
0.000343761
0.000353091
9.73389e-05
0.000329392
-0.000632426
0.00030282
-0.000220906
0.000312864
-9.19591e-05
0.000110596
0.000478666
-0.000589562
0.0004584
0.000259173
0.00045154
-0.000213691
-0.000237881
-0.000311111
0.000356789
-0.000131812
0.00065006
0.000221737
8.36363e-05
-0.000305373
-0.000483048
-0.000210725
0.000693544
-0.000480191
0.00110716
-0.000629861
-0.000399732
-0.000221125
0.000797117
-0.000548266
-0.000403142
-0.000930677
0.00131901
-0.000109862
0.000935664
0.000640746
-0.000296034
-0.000512243
0.000848148
0.000982098
-0.00147794
0.00048391
0.000121803
-0.000309683
0.000637947
-0.000328436
-0.00102319
0.000256426
0.000764289
-3.14715e-05
-0.0004843
0.00131769
-0.000266483
0.00126079
-0.000159891
-0.00110717
-0.000245604
-9.25309e-07
2.62802e-05
0.00104096
-0.0010692
0.00120043
-0.00104964
-0.000187874
-0.000921999
0.000577549
0.000343292
-8.11708e-05
0.000442939
-0.000404331
0.000148458
-0.0001909
-0.000443225
-0.00020614
0.000649197
-2.26904e-05
0.000314526
-0.00105114
0.000149578
0.000846757
0.000276446
-0.00028909
6.2556e-06
0.000584491
-7.10997e-05
-0.000513446
-3.07143e-06
-0.000528304
0.000328236
0.000713061
-0.0010414
0.000305587
-0.000314357
8.76569e-06
-0.000156026
0.000510487
-0.000354542
7.10143e-05
0.000268053
-0.000691528
0.000338097
9.28864e-05
-0.000431029
-0.00111671
0.000256989
0.00085566
0.000128597
-0.000230066
9.74634e-05
-0.000208993
0.00043448
0.000136845
-0.000895169
0.000131848
8.64441e-05
-0.000218292
5.41969e-06
0.000264971
0.000108307
-0.000328299
0.000219985
-0.000771333
-0.000151462
0.000218554
-0.000101019
0.000498612
-5.10673e-06
-0.000493633
0.000278145
-0.000434241
0.000454712
-6.07179e-05
-0.00050299
0.00124689
-0.000776134
-1.63399e-05
1.63399e-05
-0.000564834
-2.18299e-05
-0.00115162
0.00117205
0.000609797
-0.00126362
0.00065111
-0.000295192
0.000335442
-4.02548e-05
0.00036285
-0.00110025
0.000899941
-0.000832436
-7.18965e-05
-0.000833872
0.000433231
0.000399836
-0.00118908
0.000830432
0.00032535
-0.000390253
-3.67594e-06
0.000320657
0.000515748
0.000689496
-0.00014589
-9.50978e-05
-0.000444968
-0.000297266
0.000741773
0.000868835
-0.000878734
0.000139029
-0.000340929
0.000164278
0.000107261
-0.00035202
0.000468766
-0.00132696
0.000853674
0.00104274
0.000224929
-1.3755e-05
0.000319338
-0.000129198
-0.000247183
0.000376374
0.000204341
-0.000243733
3.93916e-05
0.000432544
0.000354585
-0.00102998
0.000546943
-0.000647278
0.000357015
-6.90563e-05
-0.000389556
-0.000631581
0.000286676
-0.000698316
-0.000395439
0.000172183
0.000223243
-0.000841037
0.000344309
1.99673e-05
-0.000228692
-0.00042168
0.00112954
-0.000711564
-0.00105415
0.000476744
0.000576317
0.000175792
6.27009e-06
-0.000182062
-0.00146317
4.86138e-05
-0.000813851
0.000163803
-0.000994751
-0.000326399
0.00131435
0.000271859
-0.000273866
-3.71543e-05
0.000642413
-0.000371875
-0.00021333
0.000544837
-0.000822157
-0.000248041
0.00106656
3.88344e-05
-0.000275108
-0.000243402
0.000113792
0.00012961
-0.000540537
-0.00078782
0.000917501
-0.00115702
0.000213555
-0.000399146
0.000540052
-0.000140953
-0.000225921
-9.02942e-05
-4.49412e-06
-0.000211101
-0.000105066
0.000316159
-0.00024578
0.0011359
0.000299991
0.000967839
0.000153353
-0.00113249
0.000442341
-0.00135147
0.000894748
-3.11436e-05
0.00129368
-0.00114889
-0.00015274
-0.000317206
6.50835e-05
0.000531129
-0.000573204
4.17626e-05
0.000254311
-2.30096e-06
-0.000253011
-0.000753063
-0.000261816
0.000971532
-0.00137756
0.000939209
0.000437543
0.00158585
-0.000614512
-0.000983997
-0.000217607
0.00118737
-0.000122206
0.000272686
-0.00015048
-0.000933147
0.00133754
-0.000414628
-0.00141405
0.000481752
0.000916918
-0.000115597
0.000274965
-0.000159369
-0.00017125
-0.000177112
-0.000367946
-0.000446676
-0.000325273
-0.000553984
0.000228214
0.000325659
-0.000982367
0.000629214
0.000351688
0.000357149
-0.00129418
0.000920037
-0.000204507
-0.000581474
0.000177605
0.000163998
-0.000391251
0.000932757
2.01991e-05
-0.000959405
-0.000259181
0.00123233
0.000252464
-0.000125822
0.000843116
-0.000527565
-0.00031594
-0.000266057
8.03208e-05
0.000185736
5.5949e-06
-0.000701619
-0.00024482
8.30718e-05
0.000543663
0.000240329
-0.000784465
-0.000277826
0.00114442
0.000120878
9.99245e-05
-0.000220803
-0.000228063
-2.46722e-05
0.000252736
0.000605697
0.000966187
0.000256241
0.00019526
0.000166253
-0.00041856
-2.71115e-07
0.00128489
-0.000275159
-0.000815192
0.000265054
-8.16806e-05
0.000350238
0.000810246
-0.000411098
-0.000963627
-0.000188232
0.000203505
-0.000772602
0.000567374
-0.00038601
0.000318447
0.000147072
0.000326114
-0.000851847
0.00131902
-0.000480235
-0.000429947
-0.000246768
0.000676681
-0.000670083
0.000639441
1.51093e-05
-0.000176645
0.000461318
0.000526187
-0.00100787
0.000380241
-0.000874668
0.000813883
5.62118e-05
-0.000381385
2.28273e-05
-0.000384774
-0.000203414
-2.38874e-05
0.000227301
-0.000353383
0.00013459
0.00021879
0.000808199
-0.000277571
0.000301127
-0.00023134
0.00015743
7.60458e-05
-0.000233476
0.00100024
0.000388589
-0.000232282
7.19378e-05
-9.0678e-05
-0.000200997
-5.84414e-05
0.000215871
0.000296953
-0.000182398
-0.000114556
-0.000261613
0.000146015
-0.000100148
0.000263675
0.000238455
0.000262984
-0.000907023
0.00118943
-0.000267532
-0.000291436
0.000834596
-0.000287918
8.32327e-05
-0.000921847
0.0014336
0.00140237
-0.000916921
-0.000797396
0.00126156
-3.09565e-05
-0.000752039
7.35221e-06
0.000743527
-0.000510977
-0.000225335
0.000736091
0.00021829
-2.06588e-05
-0.000197631
0.00045173
0.000938996
1.06552e-05
-0.0010502
0.00103708
0.00024018
-0.000124764
-0.000115416
-0.000351328
3.33892e-05
0.000317925
-0.000610353
-0.000767336
0.000621268
0.000879933
-0.000406019
-0.000474608
-0.00136557
0.000945286
0.00041452
2.17189e-05
0.000221354
0.000247151
0.000374143
-0.000667545
-0.000327199
0.000993972
-0.000589682
0.000791517
-0.000134602
-0.0001088
-4.49365e-05
0.000220728
-0.000248271
1.47187e-05
-0.000244325
0.00119983
-0.000295591
0.00040718
0.000442318
-7.11842e-05
0.000202928
-0.00024039
3.7462e-05
7.7354e-05
-0.000354297
-0.00019442
0.000548634
-0.000862525
-0.000844363
-0.000276006
-0.00104379
0.000618764
0.000311379
-0.000512902
-0.000966709
0.000262423
0.000329146
-0.000168339
0.000867806
0.000385016
-0.000274596
-0.000132245
-0.00014534
0.000277584
0.000166928
-0.000469385
0.000302412
-0.00120154
0.000782658
-0.000125011
-0.000159435
-0.000116011
0.000275445
0.000372219
0.000222373
0.000990492
-0.00121483
-0.00017945
0.000265242
-8.57921e-05
-0.000320354
0.00135697
-0.000508143
0.00111502
-0.000466295
-0.000158534
0.000624789
0.00021722
5.95778e-05
-3.52958e-05
-0.000963966
-0.000582919
-0.000160681
-0.000135232
0.000295911
-1.56672e-05
0.000316782
0.000367143
-7.65142e-05
-0.000290637
0.000101888
-0.000400988
0.000299052
0.000264059
-0.000172872
0.00030733
-0.00103292
0.000714466
0.000326879
4.53033e-05
-0.000372203
-0.000945301
0.00116578
0.00143885
-0.000716043
-0.000741515
-0.00134086
0.000859553
0.000120313
-0.000341699
0.000211171
-6.82959e-06
-0.000480191
0.0013417
-0.000875289
0.000249486
-0.00104476
-0.00131491
0.000313702
-0.00033536
0.000991351
-0.00065251
0.000897914
-0.000246171
-0.00121798
0.00119469
-0.000236098
0.00133248
0.000445435
0.000403373
-0.00126712
-0.000536064
-0.000390882
0.000391432
-5.66287e-07
-0.000214354
0.000279241
-6.48872e-05
-0.000329485
0.001324
-9.34939e-05
0.000447734
-0.0003543
-0.000352283
-0.000764867
-4.94729e-05
0.000257947
4.30007e-05
-0.000202436
-5.4982e-05
-0.00019439
-0.000327464
-0.000226618
-0.000256837
2.8774e-05
0.000170038
-0.000256832
8.48854e-05
0.000396604
4.24307e-05
0.000768208
-0.000458542
0.000423306
0.00022038
-0.000643957
-0.000275263
9.70347e-05
-0.000328547
0.000405695
-0.000340236
-6.54697e-05
0.000352467
-0.000409684
5.71892e-05
0.000313908
-0.000127848
-0.000186062
-0.000489553
0.00044488
-1.47674e-05