/*--------------------------------*- C++ -*----------------------------------*\
| =========                 |                                                 |
| \\      /  F ield         | OpenFOAM: The Open Source CFD Toolbox           |
|  \\    /   O peration     | Version:  v2012                                 |
|   \\  /    A nd           | Website:  www.openfoam.com                      |
|    \\/     M anipulation  |                                                 |
\*---------------------------------------------------------------------------*/
FoamFile
{
    version     2.0;
    format      ascii;
    class       volScalarField;
    location    "800";
    object      k_0;
}
// * * * * * * * * * * * * * * * * * * * * * * * * * * * * * * * * * * * * * //

dimensions      [0 2 -2 0 0 0 0];


internalField   nonuniform List<scalar> 
13917
(
0.0175992
0.000181324
0.000219171
0.000151331
0.000169355
0.000180387
0.000160893
0.000223038
0.000158425
0.00224465
0.000219296
0.000149293
0.000167178
0.00281919
0.00016261
0.014381
0.000149224
0.00020495
0.000196635
0.0135975
0.000171145
0.000149008
0.000177372
0.000149011
0.000154882
0.00017385
0.0199493
0.00185067
0.000184734
0.000136313
0.00130061
0.000185528
0.000151621
0.0298506
0.000146222
0.000251043
0.000157203
0.000162764
0.000160985
0.000173995
0.000148046
0.000146491
0.000155673
0.000195111
0.000194969
0.000108897
0.000169577
0.0120928
0.0260614
0.00014633
0.000149073
0.000200217
0.00810016
0.000148883
0.000149379
0.000199579
0.000166978
0.000177344
0.000145966
8.15464e-05
0.0297521
0.000199652
0.000142883
0.000154364
0.0298306
0.000466181
0.000189058
0.000255911
0.000212324
0.017231
0.0179614
0.0276363
0.000148595
0.00014504
0.000172165
0.000156266
0.000158403
0.000144624
0.000155716
0.000151894
0.000151578
0.000149999
0.000148432
0.0195917
0.00014214
0.000261044
0.000184796
0.000146293
0.000173481
0.000149144
0.000140542
0.000156008
0.0256196
0.00014436
0.000151627
0.00018809
0.00477442
0.000152286
0.000145391
0.000209812
0.000145508
0.000144579
0.000151784
0.000146325
0.000158111
0.0221178
0.0245442
0.000200902
0.000147851
0.0256699
0.00014512
0.0308724
0.000183997
0.0117735
0.0292619
0.000157277
0.000195441
0.00014203
0.000209549
0.000147441
0.00014986
0.000143493
0.000192959
0.00019382
0.0194461
0.0238233
0.000153846
0.000173605
0.000144783
0.000194015
0.000167182
0.00017103
0.0438724
0.000157219
0.000188846
0.0260709
0.0348078
0.0209236
0.000176296
0.000162216
0.000453455
0.000144071
0.020764
0.000144269
0.00014787
0.000167547
0.0173672
0.00231275
0.0127519
0.00014917
0.000171292
0.000143851
0.000147587
0.000147499
0.011357
0.000151455
0.000145757
0.0446693
0.000146362
0.000143482
0.000142483
0.0298746
0.000161412
0.000663614
0.0250848
0.000160207
0.00726908
0.02057
0.00013104
0.000178171
0.000149673
0.0417167
0.000158303
0.0292041
0.000188922
0.000144905
0.000151304
0.000202345
0.000166465
0.000162371
0.000155498
0.000149203
0.000149086
0.000213442
0.000209651
0.000163874
0.000148881
0.000222697
0.000136328
0.000225319
0.000189133
0.000193573
0.000202333
0.0175616
0.000144362
0.0197599
0.000160109
0.043511
0.00014595
0.000150717
0.000166918
0.0169695
0.0180158
0.000156131
0.0202381
0.000174938
0.000171846
0.000144045
0.000201939
0.000151567
0.00014145
0.000188039
0.000194918
0.0126368
0.000188307
0.000175296
0.0336096
0.000155651
0.00013756
0.000137461
0.0182376
0.000207157
0.000128059
0.000143612
0.000143571
0.0287609
0.0168783
0.000136758
0.000136591
0.000148022
0.000137861
0.000137782
0.025907
0.0165952
0.000149983
0.000131265
0.000189956
0.0260177
0.000147518
0.000143587
0.022747
0.0216094
0.000223045
0.0338445
0.00019709
0.000144314
0.022321
0.000190891
0.000181574
0.000188763
0.000155496
0.0151722
0.00014769
0.000175866
0.000186551
0.000150479
0.000148556
0.000154263
0.000164722
0.000146317
0.0256219
0.0254067
0.00014365
0.000136497
0.000152061
0.000136532
0.000147709
0.000167738
0.000171843
0.000144194
0.0252213
0.0260082
0.00014697
0.00015938
0.000225634
0.000136997
0.000192871
0.0288466
0.00013707
0.021261
0.000145852
0.0290802
0.000145507
0.000159897
0.000150807
0.000144023
0.000202713
0.000156032
0.000226635
0.000163832
0.0218756
0.0001744
0.00825238
0.0206221
0.00014424
0.00018103
0.00016676
0.000157994
0.000168163
0.000155537
0.000144801
0.000154032
0.000202667
0.000202156
0.000174954
0.00015514
0.00014347
0.0445105
0.014415
0.000144088
0.00014285
0.000158047
0.000229305
0.000198064
0.0279162
0.0285582
0.000371698
0.000227807
0.000158145
0.0162329
0.000371006
0.00021602
0.000166313
0.000161853
0.0183913
0.000150669
0.000184982
0.000193348
0.000148339
0.0413387
0.00014256
0.000173721
0.000139323
0.00594428
0.000139752
0.000173231
0.000175673
0.000308829
0.000147937
0.000188639
0.017637
0.000151201
0.000150645
0.033099
0.0186157
0.0232912
0.00146213
0.000136699
0.000149813
0.0227327
0.000220313
0.000136816
0.000168588
0.000148927
0.000184472
0.000174014
0.000198309
0.000196334
0.000193217
0.000173534
0.0256546
0.000145119
0.000151218
0.000173036
0.000210088
0.000147953
0.0154907
0.000173279
0.00288075
0.000149655
0.000203885
0.000141162
0.0248451
0.000146491
0.000127648
0.000339005
0.000178425
0.000147295
0.00398663
0.000140299
0.0251015
0.000203443
0.000146489
0.0253964
0.000152238
0.00386615
0.000140436
0.0151893
0.00386745
0.000155969
0.0316336
0.000190043
0.000154435
0.0272974
0.00023
0.000154821
0.000202834
0.00014931
0.000192087
0.000217909
0.000142787
0.000159829
0.000155009
0.000143671
0.000140728
0.000145514
0.0376714
0.000156111
0.000150387
0.000145973
0.000148109
0.000180663
0.000241846
0.00013796
0.000131177
0.000197575
0.000203839
0.000144395
0.000155562
0.0255131
0.0154085
0.000751637
0.0001976
0.0105167
0.000141425
0.000137558
0.000168327
0.000140619
0.000138039
0.000150324
0.000137659
0.000141057
0.0200019
0.000149597
0.000175631
0.0273951
0.000180956
0.000141711
0.000147343
0.0275553
0.000167238
0.0166455
0.000138818
0.000143885
0.000140609
0.000138164
0.000156852
0.000152912
0.0241826
0.000167499
0.0241316
0.00014385
0.000169776
0.000165931
0.000151271
0.000196155
0.023583
0.000148697
0.023875
0.000142087
0.000144237
0.000147774
0.000152281
0.000140896
0.000151219
0.0441351
0.0290211
0.000140656
0.00959483
0.000197008
0.000148623
0.000183083
0.000187306
0.027215
0.00016096
0.0230334
0.00374438
0.00405212
0.000152949
0.000372909
0.000164083
0.000155026
0.0117974
0.000141796
0.000148542
0.000151637
0.000159162
0.000169964
0.000203876
0.000181119
0.000155455
0.000161637
0.000200834
0.000181531
0.00015039
0.00813787
0.000171138
0.000163745
0.0261153
0.000142205
0.000182257
0.000205332
0.000139965
0.0426791
0.000145124
0.000138138
0.000181393
0.000138896
0.000153579
0.000202851
0.0467052
0.0297138
0.000142369
0.000151928
0.000153259
0.00764148
0.00940444
0.000149864
0.000149167
0.000142117
0.00018459
0.00687477
0.000145306
0.000147634
0.000150268
0.000143339
0.000160742
0.000163671
0.000143393
0.000181582
0.000139982
0.000148389
0.000154642
0.0286423
0.000136874
0.000155434
0.000146302
0.000168889
0.00018678
0.000188393
0.000187673
0.00021803
0.000153987
0.000194942
0.0424622
0.019884
0.0309208
0.000143394
0.000147443
0.000170185
0.000145372
0.0304925
0.000137424
0.0131491
0.000160018
0.0364557
0.000193824
0.000155741
0.00939625
0.000140621
0.000183943
0.000152127
0.000149682
0.038412
0.000138396
0.00022002
0.000144375
0.000155769
0.000147782
0.000201611
0.000162354
0.000136065
0.000195163
0.000182556
0.00855715
0.0126724
0.0452542
0.0265352
0.000136934
0.0175796
0.000139586
0.0322134
0.00324943
0.000151531
0.000130515
0.000145141
0.00017073
0.000154996
0.000138471
0.000152133
0.000165885
0.00851702
0.000142901
0.000183299
0.000148255
0.000135926
0.000146385
0.000214558
0.0216029
0.00857989
0.000187517
0.000163391
0.000956933
0.027362
0.000140837
0.0184168
0.000164079
0.000193922
0.00014537
0.00341198
0.000143068
0.000161313
0.000148125
0.00864788
0.00017194
0.0322847
0.000144068
0.000170734
0.000146362
0.000145927
0.0269536
0.000179116
0.00014723
0.00019976
0.000143468
0.000148607
0.00014477
0.0294252
0.000142914
0.000166644
0.000137359
0.000146764
0.000210181
0.000144107
0.000197985
0.000151011
0.000139835
0.031895
0.000183929
0.00014952
0.00864749
0.00021445
0.000110432
0.000206158
0.000140405
0.000163979
0.0264246
0.000235016
0.000166856
0.000157198
0.000162016
0.000150563
0.000145346
0.000561431
0.000188594
0.000158713
0.0253816
0.000172361
0.000325174
0.0126993
0.000197231
0.00017172
0.000201926
0.0230268
0.000144813
0.000182806
0.000573614
0.000139915
0.00014545
0.000146394
0.000156573
0.000153961
0.0178585
0.000168782
0.000143385
0.000192039
0.000143437
0.0295888
0.000145846
0.000144798
0.0457302
0.000185249
0.00278056
0.000149083
0.000142292
0.000144577
0.000150733
0.000163033
0.000144075
0.0185477
0.000166291
0.00751894
0.00285367
0.000182196
0.0454799
0.000151997
0.000151855
0.000146685
0.0304111
0.0313432
0.000160748
0.0188132
0.00762389
0.000139871
0.000144443
0.000156941
0.0209206
0.00361729
0.000172283
0.000150589
0.000155461
0.000194707
0.000156607
0.000197892
0.00016905
0.000151328
0.000152019
0.000151327
0.000162879
0.000161644
0.000244606
0.000158865
0.000157991
0.0183469
0.000146907
0.0103348
0.000156454
0.000172861
0.000159654
0.00022764
0.00014972
0.000182549
0.0200184
0.00350709
0.000145611
0.000158865
0.00015919
0.000144211
0.000147874
0.00017083
0.000167884
0.000221462
0.000198305
0.000140147
0.000206216
0.000158344
0.000159265
0.000200143
0.000150207
0.000183948
0.00365018
0.000136033
0.000185127
0.000192914
0.000168733
0.000143368
0.000141165
0.000145318
0.0149412
0.000151441
0.000146522
0.000173327
0.000144398
0.000142401
0.000198789
0.000193211
0.000182629
0.0189251
0.000182396
0.0234127
0.000147865
0.000159658
5.11924e-05
0.000151561
0.000145929
0.000147718
0.000144954
0.000149025
0.00015986
0.000189184
0.000143347
0.0009707
0.000149399
0.00426648
0.000156495
0.000160769
0.000139339
0.00018902
0.000160568
0.0271831
0.000184311
0.000150021
0.0278933
0.000152384
0.0240139
0.000154484
0.00022012
0.00015542
0.000142681
0.000145347
0.0399183
0.000162813
0.000191503
0.015987
0.000144095
0.000169085
0.000131111
0.000162883
0.00408357
0.000131473
0.0219969
0.000155554
0.000221049
0.000195057
0.00385633
0.000137618
0.000145601
0.00019864
0.000140366
0.00014864
0.000154188
0.000147105
0.000173506
0.000137468
0.000218044
0.00015134
0.0167883
0.0237491
0.000327962
0.0254729
0.0241298
0.0150056
0.00184267
0.000139397
0.000148151
0.00014718
0.000152479
0.000142216
0.000163024
0.000143752
0.000274303
0.000148925
0.00271695
0.000151112
0.00016512
0.000194764
0.000143855
0.000175654
0.000152398
0.000150412
0.000159947
0.000140266
0.0468239
0.00019009
0.00064501
0.0001441
0.000145052
0.000150006
0.000149819
0.0259607
0.000139595
0.000174553
0.000142792
0.0033522
0.000159394
0.000144119
0.000183302
0.000204142
0.000139729
0.0029643
0.0159203
0.000157021
0.00018884
0.000140309
0.000212037
0.000142022
0.000149824
0.0228821
0.000147637
0.000151619
0.000191682
0.0213344
0.000143293
0.0117793
0.00213487
0.000147155
0.000154217
0.000147454
0.00749831
0.000144786
0.000196341
0.000148557
0.0436298
0.000159968
0.0263745
0.000145949
0.000136858
0.00399356
0.000157951
0.000145464
0.040765
0.000154015
0.000140791
0.00621282
0.000147148
0.000148153
0.000188193
0.000154472
0.0315257
0.000174246
0.000187202
0.000203524
0.000155318
0.0423132
0.000152172
0.000186607
0.000144274
0.0274151
0.00368886
0.000149376
0.000142162
0.000148534
0.000149866
0.000141416
0.000141662
0.000144057
0.000145121
0.000164323
0.000136035
0.000153488
0.000187023
0.0239997
0.0282266
0.000190302
0.000150041
0.004025
0.000143141
0.00012497
0.00512614
0.00662393
0.000137845
0.000139503
0.000146926
0.000148248
0.000137608
0.000140706
0.000143521
0.000172655
0.00014085
0.00904323
0.00569419
0.000141538
0.0392575
0.000144398
0.000145544
0.000194093
0.0303891
0.000183114
0.000144252
0.00289267
0.000145279
0.000145623
9.84341e-05
0.000148588
0.0102777
0.000151925
0.000214386
0.000141726
0.00014382
0.000167317
0.000352335
0.00015371
0.0299857
0.000197005
0.000159009
0.000155079
0.000145128
0.00014091
0.000191502
0.000168
0.000158364
0.0330729
0.0113874
0.000548104
0.000192456
0.000143664
0.0322763
0.000143478
0.0289306
0.00018566
0.00015996
0.000153159
0.034309
0.0286493
0.00401267
0.000158523
0.00588914
0.000141186
0.000143767
0.00016894
0.000151032
0.000148327
9.25099e-05
0.020979
0.000143831
0.000160881
0.0257899
0.00014398
0.000136798
0.0129283
0.0311348
0.000152074
0.000140098
0.000160375
0.000147132
0.000145277
0.00017131
0.000160177
0.00014684
0.00734202
0.000159573
0.000287548
0.0051679
0.000188686
0.0278024
0.000149264
0.000150893
0.000508325
0.0210549
0.00326869
0.000133201
0.0001692
0.00014995
0.000152062
0.000142932
0.027234
0.000163771
0.000151291
0.000180398
0.000143901
0.00357651
0.000188558
0.000195877
0.000182148
7.57745e-05
0.00401965
0.0207611
0.0385347
0.000162512
0.000165707
0.000137009
0.000183891
0.000190565
0.00287786
0.000157366
0.000149734
0.000159104
0.000487265
0.000154383
0.0268118
0.000170058
0.000194017
0.0272596
0.000144662
0.00019351
0.000155346
0.000148562
0.000167138
0.000258336
0.000137961
0.000139658
0.000153271
0.0109048
0.00014087
0.000154088
0.000154906
0.000152144
0.000147571
0.000195098
0.000185584
0.000151301
0.000143737
0.00020498
0.000191108
0.000176089
0.043395
0.000149506
0.000144646
0.0289432
0.000146535
0.000154691
0.0388556
0.0292969
0.000166725
0.000183946
0.000161671
0.0148244
0.000192926
0.000168782
0.0142102
0.000144925
0.000190538
0.025275
0.000211353
0.00609013
0.0236442
0.000140887
0.000148088
0.000166964
0.000147782
0.000148692
0.000244066
0.00014789
0.000177017
0.000137729
0.000181289
0.0278053
0.000154616
0.00906958
0.0214534
0.000144742
0.000187688
0.000160902
0.00015365
0.000144314
0.031857
0.000187002
0.0229051
0.000162502
0.0244404
0.000193568
0.00014255
0.000335154
0.000170175
0.000150147
0.000144388
0.000115258
0.000144351
0.000159772
0.000173069
0.000159667
0.000150086
0.000181204
0.0235831
0.000142626
0.000223885
0.000208974
0.000148678
0.000142934
0.00016682
0.00374224
0.000137093
0.000142025
0.000164242
0.000164265
0.00472765
0.0177317
0.000147919
0.000140822
0.000140834
0.000145157
0.000170273
0.000156522
0.00472823
0.000150258
0.000156644
0.000172982
0.000167919
0.000190065
0.031423
0.0255179
0.000149207
0.000146478
0.000140399
0.000153139
0.00018572
0.045676
0.000659316
0.000195949
0.000166567
0.000178922
0.000154776
0.000234918
0.000159308
0.00019458
0.000144382
0.00020892
0.000248769
0.000141053
0.000148848
0.0357568
0.000179505
0.000180721
0.0238997
0.000202325
0.000144566
0.00020696
0.000162764
0.000142793
0.0215332
0.00664887
0.000144454
0.000167114
0.000195089
0.000169478
0.000151507
0.000137328
0.00014311
0.000141444
0.000144038
0.000164762
0.000179939
0.022791
0.000170017
0.000159291
0.000165905
0.000192585
0.000143398
0.000170347
0.000156094
0.000221134
0.0246065
0.000153617
0.000137213
0.0287636
0.000141764
0.00288222
0.000153527
0.000175856
0.000150103
0.000142191
8.35516e-05
0.00016018
0.00015328
0.000144931
0.0434137
0.000114959
0.0270611
0.00014884
0.000147958
0.0243064
0.000143589
0.000141555
0.000202259
0.00774935
0.000161493
0.000168297
0.000151252
0.0111227
0.000142943
0.000156762
0.000150057
0.000137032
0.000220741
0.000142993
0.000141177
6.82171e-05
0.000182018
0.0373286
0.000218614
0.00014241
0.000164818
0.000142413
0.000144213
0.00015532
0.000153294
0.000148382
0.000208731
0.000147805
0.000188513
0.000165495
0.00016386
0.000147367
0.000150639
0.000145085
0.0327002
0.000137809
0.000332441
0.00018594
0.000156174
0.000179803
0.000168138
0.000165163
0.000147558
0.000164508
0.000141481
0.000141067
0.0030034
0.000175357
0.000166379
0.00014559
0.00014566
0.000142432
0.000200065
0.000143825
0.0330406
0.00017762
0.000144207
0.000143252
0.000139506
0.000177528
0.000245632
0.0277383
0.000168743
0.00387378
0.000164368
0.000195875
0.000155724
0.0257443
0.000137696
0.00013747
0.000158223
0.000580739
0.000139784
0.0341373
0.000148302
0.000146377
0.000203566
0.000106499
0.0154824
0.000899902
0.000159267
0.000225486
0.000224216
0.000141366
0.0266688
0.000144464
0.000144818
0.0129529
0.00013867
0.0354656
0.000592159
0.000142566
0.000145352
0.00014163
0.0443489
0.000146689
0.000137325
0.000187625
0.000142478
0.000142102
0.000147079
0.000141396
0.000176144
0.000148653
0.000156631
0.000139042
0.0100834
0.000188772
0.00013921
0.000139296
0.000151851
0.000143145
0.000155605
0.000149254
0.000145421
0.000148818
0.000144856
0.000152647
0.000146889
0.000194732
0.000139506
0.000189286
0.000148493
0.000188271
0.000141691
0.000148216
0.000144002
0.000138115
0.000171723
0.000159294
0.000157731
0.0391929
0.000228834
0.0435871
0.0320936
0.000188875
0.0265116
0.000148294
0.000146563
0.0048269
0.0281557
0.000142829
0.0268811
0.000140413
0.000196503
0.00609026
0.000155384
0.000190085
0.0082162
0.0319925
0.000145641
0.000177128
0.000141748
0.00342519
0.000156421
0.0385116
0.0146294
0.000149011
0.000193949
0.000724271
0.000149757
0.00610285
0.0018617
0.000154647
0.000140791
0.000652792
0.0298278
0.000141323
0.000166321
0.000149992
0.000296484
0.000203094
0.000147924
0.000142038
0.00238962
0.000143845
0.000144769
0.000150796
0.000139855
0.00169985
0.000162546
0.000163008
0.0337383
0.00014406
0.000185232
0.000148416
0.000719024
0.000182591
0.00349982
0.00014137
0.000161726
0.000142356
0.000148269
0.000155174
0.000147228
0.0104836
0.000153159
0.00014034
0.000142693
0.00219006
0.000140686
0.00342006
0.0182248
0.014369
0.00014757
0.000142704
0.000143098
0.00909219
0.00014956
0.0144884
0.000146308
0.00350087
0.000154298
0.000150437
9.80837e-05
0.000148378
0.000149187
0.0285717
0.00019538
0.0338984
0.000147765
0.0353921
0.0125583
0.000147988
0.0297263
0.000148947
0.000158254
0.0242762
0.000155081
0.00017917
0.0225361
0.000166706
0.000185819
0.000147067
0.00779678
0.000144701
0.002539
0.000143036
0.0208707
0.000144881
0.000145639
0.000154577
0.00558203
0.000143041
0.000221664
0.000184037
0.0134519
0.0001437
0.000165285
0.0404583
0.000260959
0.00189658
0.000189942
0.000141699
0.000196724
0.00225171
0.000156601
0.00216609
0.000137169
0.000202194
0.0163703
0.000143491
0.0179192
0.000143271
0.0318569
0.00123281
0.000156095
0.000156169
0.00283517
0.0102855
0.0001447
0.000153283
0.000140076
0.000148114
0.0255027
0.000186188
0.000152111
0.000148121
0.000162019
0.0362551
0.000177471
0.0112749
0.00323811
0.000142122
0.000144149
0.000206102
0.025889
0.0162999
0.00505228
0.000210866
0.000173531
0.000198127
0.0382462
0.0263291
0.00707733
0.000140794
0.000190195
0.000176916
0.000188628
0.000146372
0.000159184
0.000184315
0.000210568
0.0138853
0.000147875
0.000228149
0.032716
0.000178946
0.000144412
0.000144518
0.000279546
0.00014316
0.0451152
0.000162905
0.000146631
0.000226999
0.000201269
0.000139109
0.000170617
0.000164257
0.000146656
0.0429774
0.000160681
0.0460128
0.000143598
0.0312251
0.000117413
0.000207043
0.000138135
0.00016085
0.00016748
0.000240582
0.000200342
0.000185445
0.0260243
1.1717e-05
0.000131972
0.000159597
0.0001491
0.00019834
0.0167723
0.000141155
0.0001389
0.000153246
0.000157594
0.000253361
0.000143928
0.000179155
0.000229787
0.000140734
0.000192216
0.000156591
0.0453673
0.000160415
0.00537331
0.0156213
0.000162733
0.000157676
0.00177204
0.000142903
0.000181153
0.0254622
0.00016814
0.000191107
0.0001655
0.000181933
0.0242318
0.0343178
0.000146848
0.0157473
5.68519e-05
0.0001387
0.000197591
0.000186204
0.000200187
0.00825042
0.000837788
0.0077049
0.000197262
0.0258527
0.000161396
0.000184559
0.000139757
0.000148884
0.000147368
0.000141259
0.000108304
0.000211037
0.000137957
0.000185797
0.000202595
0.000142723
0.00750717
0.0317859
0.000136335
0.00014928
0.000140545
0.00015266
0.000175689
0.00014469
0.0234339
0.000164049
0.000187863
0.000160019
0.000187773
0.000196652
0.000170295
0.000249845
0.000146697
0.000153074
0.000137636
0.000143074
0.0396914
0.000192294
0.000164645
0.026743
0.000148463
0.000150757
0.000169168
0.000140737
0.000144048
0.000186393
0.000158672
0.0257271
0.0398933
0.0304896
0.000147144
0.0409833
0.000143705
5.81535e-05
0.000138938
0.000199012
0.0321454
0.000145624
0.000152257
0.0255288
0.000168799
0.000153268
0.000142596
0.000162848
0.0212153
0.000139615
0.000149299
0.000154664
0.000163804
0.000205899
0.000155978
0.000159254
0.000141914
0.000153949
0.00196771
0.000169056
0.000155882
0.000198273
0.000333806
0.03897
0.0180885
0.000160058
0.000152278
0.0255016
0.000146725
0.000185267
0.000147718
0.0258526
0.000149729
0.000149671
0.000176032
0.0282655
0.00014409
0.000141384
0.000137505
0.000202245
0.0104152
0.000200328
0.000144678
0.000155701
0.000140922
0.0334256
0.000143773
0.00614755
0.000181494
0.000148474
0.000191159
0.000171432
0.000738411
0.000150256
0.00014153
0.000165428
0.000178423
0.000202695
0.000148884
0.000150329
0.000149189
0.0323735
0.000146865
0.000152874
0.0332921
0.000154375
0.000167507
0.000157193
0.000144432
0.000145287
0.00173533
0.000154352
0.0108803
0.00285526
0.000134745
0.00537282
0.000150076
0.000196664
0.000179234
0.000154123
0.000138446
0.000134485
0.000144605
0.0214554
0.000177333
0.0323801
0.0282816
0.00014171
0.000167828
0.000173128
0.00253055
0.000144937
0.00244288
0.0355121
0.0210375
0.000144415
0.000153758
0.000150602
0.00145972
0.0391347
0.000145292
0.00014536
0.000165117
0.0217628
0.000148408
0.000153941
0.000153875
0.00019614
0.0003521
0.00013779
0.0283422
0.000162462
0.000144297
0.0159886
0.000181447
0.00814668
0.0208242
0.000168331
0.000158839
0.000153813
0.000161835
0.000151069
0.000203372
0.000179052
0.000145435
0.000156849
0.00021125
0.0353928
0.00013943
0.000198879
0.0413719
0.0125796
0.00014604
0.000147333
0.0023241
0.0119304
0.000265784
0.000144483
0.0431431
0.000184661
0.000135599
0.0224397
0.000162068
0.0001491
0.000105238
0.000147102
0.000190095
0.000142367
0.000133334
0.000147919
0.000137477
0.0297473
0.000137789
0.000142555
0.000189073
0.000157486
0.000157363
0.000198392
0.000147671
0.000144749
0.000153861
0.000152385
0.00351967
0.00388995
0.000273799
0.0173045
0.000169268
0.0023154
0.000206424
0.0322345
0.0422822
0.0299004
0.00014147
0.000166867
0.000145123
0.000148022
0.000143555
0.000149135
0.000207449
0.000182222
0.00017425
0.000142506
0.000144175
0.000180753
0.00014925
0.000150094
0.00014778
0.0356622
0.000166455
0.0135807
0.000146915
0.00314186
0.000150622
0.00014925
0.000151129
0.000174598
0.000142537
0.00019178
0.0308624
0.000175491
0.0276403
0.00226159
0.000157262
0.000161914
0.00442567
0.000198994
0.000138976
0.000143213
0.00013474
0.0287084
0.000133282
0.00025492
0.00023543
0.000189846
0.000286644
5.47053e-05
0.00018461
0.0440175
0.000141422
0.000137261
0.00120581
0.0121215
0.000146038
0.000147046
0.0221285
0.000140897
0.000222301
0.000156588
0.000143484
0.000159422
0.000146507
0.000188114
0.0301338
0.0270847
0.000157487
0.000146834
0.000187589
0.000152783
0.000190802
0.000141069
0.000198373
0.000191013
0.000150062
0.000148781
0.000135279
0.000202579
0.00019711
0.000207854
0.00245927
0.000164893
0.0179018
0.000187181
0.000195077
0.0294194
0.000143894
0.0289568
0.000152006
0.0354402
7.67958e-05
0.0278165
0.0279989
0.000150381
0.00018195
0.000619994
0.00014721
0.0223078
0.000147345
0.000146699
0.000159164
0.000150897
0.000165093
0.000213722
0.00206498
0.0258942
0.000159464
0.000174514
0.000152845
0.000148999
0.000148093
0.000203244
0.000190369
0.0300927
0.000177012
0.000138304
0.000140101
0.000150717
0.000225463
0.00015684
0.000152013
0.000158425
0.000190695
0.000165936
0.000178672
0.000173195
0.0305445
0.000164371
0.000167213
0.000144949
0.000159273
0.000169014
0.000336798
0.000179188
0.000140751
0.0177605
0.000167755
0.000144139
0.000178984
0.0336797
0.00484505
0.000169306
0.000141018
0.0267647
0.000150361
0.000140801
0.000138646
0.0177832
0.0024951
0.00015719
0.00744427
0.0228247
0.000169107
0.000173237
0.000184489
0.0459861
0.000165835
0.0383266
0.000150484
0.000242146
0.000176104
0.0388468
0.000168114
0.000142392
0.0368095
0.000146639
0.000152078
0.0190496
0.0136266
0.000239353
0.000184425
0.000156468
0.000152891
0.0080162
0.000144075
0.000142597
0.000146754
0.000177352
0.000144763
0.000167883
0.00016876
0.00139133
0.00455948
0.000151164
0.0227867
0.00016761
0.0344318
0.0281175
0.000146623
0.000149014
0.000158416
0.000137285
0.000206922
0.000186627
0.0328975
0.0278713
1.37055e-06
0.000150755
0.00991778
0.0234086
0.000193729
0.00163481
0.000148425
0.000146397
0.000146693
0.000152378
0.000143414
0.000167536
0.0275312
0.000165515
0.00215434
0.0157115
0.0055798
0.0304294
0.0392262
0.000161814
0.0415351
0.000196522
0.000187421
0.000138765
0.000147552
0.000185834
0.0244197
0.000152067
0.0255624
0.0381375
0.000142129
0.000147599
0.000147162
0.0001909
0.000150764
0.0001885
0.0294367
0.000139203
0.000143909
0.000141705
0.000151673
0.000192696
0.0296844
0.000172682
0.0163047
0.000198981
0.000142838
0.00388218
0.000203984
0.00014835
0.000344355
0.00320852
0.0291952
0.00410253
0.0263284
0.000146751
0.00999507
0.0312476
0.000210406
0.0185
0.000143437
0.000154777
0.000156212
0.000154425
0.0266486
0.000186551
0.000148854
0.000161581
0.00426497
0.0310644
0.000150237
0.000150989
0.0450156
0.0387302
0.000148677
0.000163117
0.000197511
0.000143641
0.00014422
0.0322639
0.000142684
0.00024051
0.00367807
0.0290401
0.000142318
0.000185944
0.000200355
0.00014381
0.000136426
0.0423874
0.014514
0.000149383
0.000170347
0.000206832
0.000216185
0.0418123
0.00497855
0.000159494
0.00400587
0.00314369
0.000169588
0.000141909
0.000221971
0.00013705
0.000137494
0.0254096
0.000172665
0.000194833
0.000156737
0.00015788
0.000143144
0.000138151
0.000150969
0.000151813
0.0141762
0.000156287
0.00118524
0.0188203
0.000176336
0.000187427
0.0222112
0.036665
0.0159932
0.000141564
0.000157511
0.00017017
0.000159066
0.000219507
0.00337405
0.000150842
0.00173996
0.0301976
0.000161039
0.000191414
0.000188469
0.000193056
0.000194619
0.000153072
0.000196441
0.00019809
0.000200031
0.000201976
0.000195181
0.000190574
0.000163124
0.000141864
0.000167604
0.000191342
0.000142585
3.81365e-05
0.0434214
0.000225543
0.0359415
0.000136006
0.000140853
0.000231544
0.0197848
0.000151513
0.00015622
0.000183953
0.0309585
0.0211532
0.000147283
0.000167961
0.000158337
0.0107903
0.0042358
0.000155978
3.85044e-05
0.0311297
0.000193834
0.0380795
0.000194848
0.00201226
0.0426457
0.000130956
0.0410537
0.0340767
0.00015259
0.000188178
0.000196768
0.000158308
0.000142328
9.96222e-05
0.0187322
0.000142556
0.000142901
0.0263286
0.000593909
0.000191217
0.000149248
0.000208837
0.000200155
0.0379421
0.0277969
0.00014727
0.000143962
0.000151314
0.000158096
0.0359811
0.0225577
0.0324102
0.000189925
8.25263e-05
0.00540677
0.000158427
0.000141664
0.0309596
0.000143087
0.0396902
0.000142847
0.0388675
0.000152415
0.000151992
0.0121329
0.000146434
0.00019547
0.00436373
0.000166598
0.000155058
0.000152834
0.000205856
0.0260591
0.000210398
0.0361952
0.000165784
0.000155918
0.000161837
0.000190217
0.044156
0.0274966
0.000196581
0.000218569
0.000197101
0.0127832
0.000145298
0.000142855
0.000139384
0.000138784
9.65521e-05
0.000205169
0.00543613
0.000174964
0.000199973
0.000143671
0.0029208
0.000174691
0.00996561
0.000144565
0.000153371
0.000133539
0.033452
0.000107497
0.00697465
0.000112516
0.000196796
0.000108364
0.000135003
0.000171157
0.000208569
6.97524e-05
0.000435833
0.000146287
0.000198262
0.00015047
0.000148939
0.000194003
0.0168739
0.00224603
0.000149478
0.000193298
0.000165494
0.0325694
0.0194852
0.0342054
0.03034
0.000143716
0.000184722
0.00014778
0.00019894
0.00014484
0.000200301
0.000154087
0.000179496
0.00304174
0.00391507
0.000161964
0.000194738
0.0342093
0.000196706
0.000154799
0.0188818
0.000194766
0.000152487
0.000150171
0.0278756
0.000163492
0.000203338
9.32204e-05
0.0035009
0.0209051
0.000158177
0.0256044
0.0306555
0.0215492
0.000185267
0.000166458
0.000194928
0.000193242
0.0319297
0.000225521
0.000151032
0.0018606
0.000190793
0.00010756
0.000162788
0.0238234
0.000116444
0.0042778
0.000159321
0.000307803
0.00015682
0.0270778
0.000209183
0.00547618
0.0159226
0.00014074
0.000133503
0.0298316
0.0399907
0.000187457
0.000150692
0.000175896
0.000164272
0.0228551
0.000219144
0.0339207
0.000160107
0.0335848
0.000202277
0.0213828
0.000150832
0.000137104
0.0266967
0.000163845
0.00019
0.000135597
0.000156686
0.000147804
0.00371995
0.00014382
0.000147294
0.0418174
0.0131378
0.000138638
0.0424119
0.000151845
0.000147519
0.000143943
0.000142812
0.000148953
0.000486274
0.0423806
0.000139761
0.00212563
0.000185893
0.000177954
0.00271783
0.000190474
0.000159254
0.000166202
0.000143145
0.00344552
0.000166911
0.0430991
0.000170603
0.021965
0.00121036
0.000188406
0.00292464
0.0331697
0.000139672
0.024555
0.000182857
0.000185781
0.000186378
0.000144411
0.000227542
0.0002091
0.000147248
0.000290671
0.000143997
0.030663
0.000199615
0.0205599
0.000204894
0.000203204
0.0409499
0.000148014
0.000144843
0.000184139
0.000153851
0.000148952
0.000149166
0.000162061
0.000143361
0.000142717
0.000153054
0.000176649
0.000154633
0.000162414
0.000156853
0.000171191
0.000193856
0.000155479
0.0330996
0.000154773
0.00014353
0.00019209
0.000174421
0.000158655
0.000143421
0.00124376
0.000154269
0.029563
0.00015484
0.000198858
0.000143611
0.000146857
0.000196284
0.0443265
0.000186859
0.00017168
0.000135593
0.0382462
0.000148059
0.000142472
0.000188572
0.000155883
0.000202401
0.0343345
0.000193753
0.000222443
0.000175254
0.0209252
0.000147559
0.000148259
0.000186122
0.00406977
0.000183165
0.000196409
0.0266927
0.000162579
0.000147696
0.000162216
0.000211196
0.000181869
0.000147487
0.00019371
0.000192897
0.000186072
0.000148825
0.000147482
0.000215946
0.000185934
0.00287239
0.00274033
0.000155249
0.000187516
0.000148751
0.000175881
0.00611884
0.000149015
0.000207026
0.00041511
0.000192456
0.0195051
0.00014671
0.000146608
0.000142897
0.0406633
0.000217579
0.000155378
0.000194592
0.000195256
0.000148518
0.00014702
0.000157237
0.0417862
0.000222476
0.0329049
0.000226111
0.000164881
0.000179537
0.000196794
0.000164798
0.00051328
0.000190901
0.000746593
0.000147056
0.000193195
0.000198734
0.000152145
0.00100237
0.000173655
0.00020086
0.000161853