/*--------------------------------*- C++ -*----------------------------------*\
| =========                 |                                                 |
| \\      /  F ield         | OpenFOAM: The Open Source CFD Toolbox           |
|  \\    /   O peration     | Version:  v2012                                 |
|   \\  /    A nd           | Website:  www.openfoam.com                      |
|    \\/     M anipulation  |                                                 |
\*---------------------------------------------------------------------------*/
FoamFile
{
    version     2.0;
    format      ascii;
    class       pointVectorField;
    location    "800";
    object      pointDisplacement;
}
// * * * * * * * * * * * * * * * * * * * * * * * * * * * * * * * * * * * * * //

dimensions      [0 1 0 0 0 0 0];


internalField   nonuniform List<vector> 
14386
(
(0 0 0)
(0 5.87713e-06 0)
(0 0 0)
(0 5.87713e-06 0)
(0 0 0)
(0 0 0)
(0 0 0)
(0 0 0)
(0 0 0)
(0 0 0)
(0 0 0)
(0 0 0)
(0 0 0)
(0 0 0)
(0 0 0)
(0 0 0)
(0 0 0)
(0 0 0)
(0 0 0)
(0 0 0)
(0 0 0)
(0 0 0)
(0 0 0)
(0 0 0)
(0 0 0)
(0 0 0)
(0 0 0)
(0 0 0)
(0 0 0)
(0 0 0)
(0 0 0)
(0 0 0)
(0 0 0)
(0 0 0)
(0 0 0)
(0 0 0)
(0 0 0)
(0 0 0)
(0 0 0)
(0 0 0)
(0 0 0)
(0 0 0)
(0 0 0)
(0 0 0)
(0 0 0)
(0 0 0)
(0 0 0)
(0 0 0)
(0 0 0)
(0 0 0)
(0 0 0)
(0 0 0)
(0 0 0)
(0 0 0)
(0 0 0)
(0 0 0)
(0 0 0)
(0 0 0)
(0 0 0)
(0 0 0)
(0 0 0)
(0 0 0)
(0 0 0)
(0 0 0)
(0 0 0)
(0 0 0)
(0 0 0)
(0 0 0)
(0 0 0)
(0 0 0)
(0 0 0)
(0 0 0)
(0 0 0)
(0 0 0)
(0 0 0)
(0 0 0)
(0 0 0)
(0 0 0)
(0 0 0)
(0 0 0)
(0 0 0)
(0 0 0)
(0 0 0)
(0 0 0)
(0 0 0)
(0 0 0)
(0 0 0)
(0 0 0)
(0 0 0)
(0 0 0)
(0 0 0)
(0 0 0)
(0 0 0)
(0 0 0)
(0 0 0)
(0 0 0)
(0 0 0)
(0 0 0)
(0 0 0)
(0 0 0)
(0 0 0)
(0 0 0)
(0 0 0)
(0 0 0)
(0 0 0)
(0 0 0)
(0 0 0)
(0 0 0)
(0 0 0)
(0 0 0)
(0 0 0)
(0 0 0)
(0 0 0)
(0 0 0)
(0 0 0)
(0 0 0)
(0 0 0)
(0 0 0)
(0 0 0)
(0 0 0)
(0 0 0)
(0 0 0)
(0 0 0)
(0 0 0)
(0 0 0)
(0 0 0)
(0 0 0)
(0 0 0)
(0 0 0)
(0 0 0)
(0 0 0)
(0 0 0)
(0 0 0)
(0 5.87713e-06 0)
(0 5.87713e-06 0)
(0 5.87713e-06 0)
(0 5.87713e-06 0)
(0 5.87713e-06 0)
(0 5.87713e-06 0)
(0 5.87713e-06 0)
(0 5.87713e-06 0)
(0 5.87713e-06 0)
(0 5.87713e-06 0)
(0 5.87713e-06 0)
(0 5.87713e-06 0)
(0 5.87713e-06 0)
(0 5.87713e-06 0)
(0 5.87713e-06 0)
(0 5.87713e-06 0)
(0 5.87713e-06 0)
(0 5.87713e-06 0)
(0 5.87713e-06 0)
(0 5.87713e-06 0)
(0 5.87713e-06 0)
(0 5.87713e-06 0)
(0 5.87713e-06 0)
(0 5.87713e-06 0)
(0 5.87713e-06 0)
(0 5.87713e-06 0)
(0 5.87713e-06 0)
(0 5.87713e-06 0)
(0 5.87713e-06 0)
(0 0 0)
(0 0 0)
(0 0 0)
(0 0 0)
(0 0 0)
(0 0 0)
(0 0 0)
(0 0 0)
(0 0 0)
(0 0 0)
(0 0 0)
(0 0 0)
(0 0 0)
(0 0 0)
(0 0 0)
(0 0 0)
(0 0 0)
(0 0 0)
(0 0 0)
(0 0 0)
(0 0 0)
(0 0 0)
(0 0 0)
(0 0 0)
(0 0 0)
(0 0 0)
(0 0 0)
(0 0 0)
(0 0 0)
(0 0 0)
(0 0 0)
(0 0 0)
(0 0 0)
(0 0 0)
(0 0 0)
(0 0 0)
(0 0 0)
(0 0 0)
(0 0 0)
(0 0 0)
(0 0 0)
(0 0 0)
(0 0 0)
(0 0 0)
(0 0 0)
(0 0 0)
(0 0 0)
(0 0 0)
(0 0 0)
(0 0 0)
(0 0 0)
(0 0 0)
(0 0 0)
(0 0 0)
(0 0 0)
(0 0 0)
(0 0 0)
(0 0 0)
(0 0 0)
(0 0 0)
(0 0 0)
(0 0 0)
(0 0 0)
(0 0 0)
(0 0 0)
(0 0 0)
(0 0 0)
(0 0 0)
(0 0 0)
(0 0 0)
(0 0 0)
(0 0 0)
(0 0 0)
(0 0 0)
(0 0 0)
(0 0 0)
(0 0 0)
(0 0 0)
(0 0 0)
(0 0 0)
(0 0 0)
(0 0 0)
(0 0 0)
(0 0 0)
(0 0 0)
(0 0 0)
(0 0 0)
(0 0 0)
(0 0 0)
(0 0 0)
(0 0 0)
(0 0 0)
(0 0 0)
(0 0 0)
(0 0 0)
(0 0 0)
(0 0 0)
(0 0 0)
(0 0 0)
(0 0 0)
(0 0 0)
(0 0 0)
(0 0 0)
(0 0 0)
(0 0 0)
(0 0 0)
(0 0 0)
(0 0 0)
(0 0 0)
(0 0 0)
(0 0 0)
(0 0 0)
(0 0 0)
(0 0 0)
(0 0 0)
(0 0 0)
(0 0 0)
(0 0 0)
(0 0 0)
(0 0 0)
(0 0 0)
(0 0 0)
(0 0 0)
(0 0 0)
(0 0 0)
(0 0 0)
(0 0 0)
(0 0 0)
(0 0 0)
(0 5.87713e-06 0)
(0 5.87713e-06 0)
(0 5.87713e-06 0)
(0 5.87713e-06 0)
(0 5.87713e-06 0)
(0 5.87713e-06 0)
(0 5.87713e-06 0)
(0 5.87713e-06 0)
(0 5.87713e-06 0)
(0 5.87713e-06 0)
(0 5.87713e-06 0)
(0 5.87713e-06 0)
(0 5.87713e-06 0)
(0 5.87713e-06 0)
(0 5.87713e-06 0)
(0 5.87713e-06 0)
(0 5.87713e-06 0)
(0 5.87713e-06 0)
(0 5.87713e-06 0)
(0 5.87713e-06 0)
(0 5.87713e-06 0)
(0 5.87713e-06 0)
(0 5.87713e-06 0)
(0 5.87713e-06 0)
(0 5.87713e-06 0)
(0 5.87713e-06 0)
(0 5.87713e-06 0)
(0 5.87713e-06 0)
(0 5.87713e-06 0)
(0 5.65723e-08 0)
(0 5.88577e-06 0)
(0 5.87868e-06 0)
(0 5.88081e-06 0)
(0 -2.17486e-07 0)
(0 -4.85355e-06 0)
(0 -4.42351e-06 0)
(0 -2.09359e-06 0)
(0 2.90008e-06 0)
(0 -3.89922e-06 0)
(0 5.85308e-06 0)
(0 -5.17417e-06 0)
(0 6.40088e-06 0)
(0 5.74103e-06 0)
(0 -3.12529e-06 0)
(0 5.8857e-06 0)
(0 -4.38694e-06 0)
(0 -2.74245e-06 0)
(0 -3.62878e-06 0)
(0 -2.13736e-06 0)
(0 -2.52706e-06 0)
(0 -4.68855e-07 0)
(0 -4.43573e-06 0)
(0 -4.87183e-06 0)
(0 5.88125e-06 0)
(0 5.88548e-06 0)
(0 -1.27197e-06 0)
(0 -1.47801e-06 0)
(0 5.10185e-06 0)
(0 6.42846e-06 0)
(0 6.29587e-06 0)
(0 1.01934e-06 0)
(0 -1.06249e-07 0)
(0 -3.91298e-06 0)
(0 -4.03963e-06 0)
(0 -4.84138e-06 0)
(0 -4.78628e-06 0)
(0 -3.21458e-06 0)
(0 5.89765e-06 0)
(0 -8.78397e-07 0)
(0 -7.5966e-07 0)
(0 5.182e-06 0)
(0 -1.5986e-07 0)
(0 3.96244e-08 0)
(0 7.80768e-08 0)
(0 -1.61473e-06 0)
(0 -3.03432e-06 0)
(0 -4.18359e-06 0)
(0 -5.15146e-06 0)
(0 -4.72126e-06 0)
(0 -1.60824e-06 0)
(0 -4.7565e-06 0)
(0 -4.0337e-06 0)
(0 -5.57498e-06 0)
(0 -2.08209e-06 0)
(0 -2.54047e-06 0)
(0 -2.46692e-06 0)
(0 -3.85157e-06 0)
(0 -2.96904e-07 0)
(0 1.32147e-05 0)
(0 1.38978e-05 0)
(0 1.31666e-05 0)
(0 1.38221e-05 0)
(0 1.3123e-05 0)
(0 1.24424e-05 0)
(0 1.24081e-05 0)
(0 1.30618e-05 0)
(0 1.2323e-05 0)
(0 1.16463e-05 0)
(0 1.1509e-05 0)
(0 1.21699e-05 0)
(0 1.13312e-05 0)
(0 1.19693e-05 0)
(0 1.11552e-05 0)
(0 1.05097e-05 0)
(0 1.03626e-05 0)
(0 1.10195e-05 0)
(0 1.02597e-05 0)
(0 9.50381e-06 0)
(0 9.48471e-06 0)
(0 1.0117e-05 0)
(0 9.31593e-06 0)
(0 8.71434e-06 0)
(0 8.4998e-06 0)
(0 7.94414e-06 0)
(0 7.71999e-06 0)
(0 8.21978e-06 0)
(0 7.44801e-06 0)
(0 6.97244e-06 0)
(0 6.68935e-06 0)
(0 6.25241e-06 0)
(0 5.93328e-06 0)
(0 5.54011e-06 0)
(0 5.16118e-06 0)
(0 5.49901e-06 0)
(0 4.69475e-06 0)
(0 4.41898e-06 0)
(0 3.94432e-06 0)
(0 3.75417e-06 0)
(0 3.25548e-06 0)
(0 3.16788e-06 0)
(0 2.62541e-06 0)
(0 2.64056e-06 0)
(0 2.08028e-06 0)
(0 2.14859e-06 0)
(0 1.60606e-06 0)
(0 1.65539e-06 0)
(0 1.12479e-06 0)
(0 1.14407e-06 0)
(0 6.05499e-07 0)
(0 6.32144e-07 0)
(0 9.35044e-08 0)
(0 1.42689e-07 0)
(0 -4.02358e-07 0)
(0 -3.32833e-07 0)
(0 -8.8277e-07 0)
(0 -7.90522e-07 0)
(0 -1.35881e-06 0)
(0 -1.23452e-06 0)
(0 -1.85381e-06 0)
(0 -1.68996e-06 0)
(0 -2.39435e-06 0)
(0 -2.17957e-06 0)
(0 -2.96555e-06 0)
(0 -2.70135e-06 0)
(0 -3.56223e-06 0)
(0 -3.25058e-06 0)
(0 -4.15948e-06 0)
(0 -3.80116e-06 0)
(0 -4.73624e-06 0)
(0 -4.33935e-06 0)
(0 -5.33507e-06 0)
(0 -4.91321e-06 0)
(0 -5.96607e-06 0)
(0 -5.5254e-06 0)
(0 -6.61795e-06 0)
(0 -6.124e-06 0)
(0 -7.29588e-06 0)
(0 -6.75911e-06 0)
(0 -8.03869e-06 0)
(0 -7.48375e-06 0)
(0 -8.84998e-06 0)
(0 -8.29958e-06 0)
(0 -9.73659e-06 0)
(0 -9.21958e-06 0)
(0 -1.06977e-05 0)
(0 -1.02349e-05 0)
(0 -1.17976e-05 0)
(0 -1.13469e-05 0)
(0 -1.30393e-05 0)
(0 -1.25594e-05 0)
(0 -1.43311e-05 0)
(0 -1.38245e-05 0)
(0 -1.56356e-05 0)
(0 -1.61902e-05 0)
(0 -1.75203e-05 0)
(0 -8.68359e-06 0)
(0 -3.85803e-06 0)
(0 6.39125e-07 0)
(0 4.97322e-06 0)
(0 -1.80842e-05 0)
(0 -1.94556e-05 0)
(0 -1.50678e-05 0)
(0 -2.00063e-05 0)
(0 -2.14377e-05 0)
(0 -2.20161e-05 0)
(0 -2.35363e-05 0)
(0 -2.416e-05 0)
(0 -2.57697e-05 0)
(0 -2.64689e-05 0)
(0 -2.81715e-05 0)
(0 -2.89228e-05 0)
(0 -3.07284e-05 0)
(0 -2.98914e-05 0)
(0 -3.26169e-05 0)
(0 -3.17075e-05 0)
(0 -3.4599e-05 0)
(0 -3.53929e-05 0)
(0 -3.753e-05 0)
(0 -3.36499e-05 0)
(0 -3.82106e-05 0)
(0 -4.05214e-05 0)
(0 -4.10525e-05 0)
(0 -4.3538e-05 0)
(0 -4.39194e-05 0)
(0 -4.65425e-05 0)
(0 -4.68101e-05 0)
(0 -4.94808e-05 0)
(0 -4.96256e-05 0)
(0 -5.23081e-05 0)
(0 -5.22918e-05 0)
(0 -5.49313e-05 0)
(0 -5.48727e-05 0)
(0 -5.75578e-05 0)
(0 -5.73859e-05 0)
(0 -6.02173e-05 0)
(0 -5.98988e-05 0)
(0 -6.27762e-05 0)
(0 -6.29845e-05 0)
(0 -6.56448e-05 0)
(0 -6.58085e-05 0)
(0 -6.85345e-05 0)
(0 -6.22365e-05 0)
(0 -6.86672e-05 0)
(0 -7.14485e-05 0)
(0 -7.15726e-05 0)
(0 -7.44366e-05 0)
(0 -7.4479e-05 0)
(0 -7.7457e-05 0)
(0 -7.74328e-05 0)
(0 -8.04855e-05 0)
(0 -8.02784e-05 0)
(0 -8.34107e-05 0)
(0 -8.29333e-05 0)
(0 -8.61366e-05 0)
(0 -8.65047e-05 0)
(0 -8.91461e-05 0)
(0 -8.95011e-05 0)
(0 -9.23214e-05 0)
(0 -9.23257e-05 0)
(0 -9.49678e-05 0)
(0 -8.86998e-05 0)
(0 -9.49874e-05 0)
(0 -9.76792e-05 0)
(0 -9.77013e-05 0)
(0 -0.000100519 0)
(0 -0.000100506 0)
(0 -0.000103377 0)
(0 -1.3343e-05 0)
(0 -0.000103281 0)
(0 -0.000106131 0)
(0 -0.000106066 0)
(0 -0.000108773 0)
(0 -0.000108567 0)
(0 -0.000111278 0)
(0 -0.000111428 0)
(0 -0.000113867 0)
(0 -0.000114032 0)
(0 -0.000116429 0)
(0 -0.000113515 0)
(0 -0.00011654 0)
(0 -0.000118979 0)
(0 -0.000119009 0)
(0 -0.000121496 0)
(0 -0.000121362 0)
(0 -0.000123839 0)
(0 -0.000123426 0)
(0 -0.000125941 0)
(0 -0.000125214 0)
(0 -0.000127753 0)
(0 -0.000128392 0)
(0 -0.000130222 0)
(0 -0.000130748 0)
(0 -0.000132638 0)
(0 -0.000131924 0)
(0 -0.000134362 0)
(0 -0.000134966 0)
(0 -0.000136692 0)
(0 -0.000136021 0)
(0 -0.000138359 0)
(0 -0.000137613 0)
(0 -0.000139916 0)
(0 -0.000139014 0)
(0 -0.000141246 0)
(0 -0.000141998 0)
(0 -0.000143247 0)
(0 -0.00014243 0)
(0 -0.000144424 0)
(0 -0.000143541 0)
(0 -0.00014546 0)
(0 -0.000144487 0)
(0 -0.000146282 0)
(0 -0.000146994 0)
(0 -0.000147704 0)
(0 -0.000146896 0)
(0 -0.000148273 0)
(0 -0.000147366 0)
(0 -0.000148626 0)
(0 -0.000147624 0)
(0 -0.00014873 0)
(0 -0.000149443 0)
(0 -0.000149463 0)
(0 -0.000148635 0)
(0 -0.000149349 0)
(0 -0.000148433 0)
(0 -0.000149054 0)
(0 -0.000148006 0)
(0 -0.000148525 0)
(0 -0.000149425 0)
(0 -0.000148853 0)
(0 -0.000147842 0)
(0 -0.00014817 0)
(0 -0.000147027 0)
(0 -0.00014729 0)
(0 -1.45176e-05 0)
(0 -1.28886e-05 0)
(0 -1.39415e-05 0)
(0 -1.23625e-05 0)
(0 -0.000145996 0)
(0 -0.000146157 0)
(0 -0.000147291 0)
(0 -0.000146014 0)
(0 -0.000144739 0)
(0 -0.000146997 0)
(0 -0.000145602 0)
(0 -0.000146298 0)
(0 -0.000144893 0)
(0 2.63517e-06 0)
(0 -4.96033e-05 0)
(0 -0.000122667 0)
(0 -0.00010025 0)
(0 -5.62129e-06 0)
(0 2.28382e-07 0)
(0 -2.94165e-06 0)
(0 -7.42989e-05 0)
(0 6.1152e-06 0)
(0 5.9934e-06 0)
(0 6.04449e-06 0)
(0 5.92336e-06 0)
(0 5.96885e-06 0)
(0 5.85409e-06 0)
(0 5.8216e-06 0)
(0 5.75335e-06 0)
(0 5.78309e-06 0)
(0 5.68134e-06 0)
(0 5.70026e-06 0)
(0 5.59489e-06 0)
(0 5.7359e-06 0)
(0 5.60155e-06 0)
(0 5.49463e-06 0)
(0 5.48863e-06 0)
(0 5.38277e-06 0)
(0 5.36451e-06 0)
(0 5.26937e-06 0)
(0 5.29858e-06 0)
(0 5.20161e-06 0)
(0 5.2403e-06 0)
(0 5.15639e-06 0)
(0 5.20051e-06 0)
(0 5.1195e-06 0)
(0 5.06561e-06 0)
(0 5.02845e-06 0)
(0 5.16682e-06 0)
(0 4.96714e-06 0)
(0 4.9297e-06 0)
(0 5.48501e-06 0)
(0 4.86499e-06 0)
(0 4.83136e-06 0)
(0 4.76537e-06 0)
(0 4.73974e-06 0)
(0 4.81087e-06 0)
(0 4.72551e-06 0)
(0 4.80074e-06 0)
(0 4.71309e-06 0)
(0 4.7936e-06 0)
(0 4.69772e-06 0)
(0 4.78938e-06 0)
(0 4.68721e-06 0)
(0 4.7917e-06 0)
(0 4.68634e-06 0)
(0 4.80587e-06 0)
(0 4.69765e-06 0)
(0 4.82905e-06 0)
(0 4.71769e-06 0)
(0 4.85456e-06 0)
(0 4.71722e-06 0)
(0 4.87976e-06 0)
(0 4.75781e-06 0)
(0 4.90678e-06 0)
(0 4.776e-06 0)
(0 4.9232e-06 0)
(0 4.78791e-06 0)
(0 4.9267e-06 0)
(0 4.78569e-06 0)
(0 4.92178e-06 0)
(0 4.77711e-06 0)
(0 4.90881e-06 0)
(0 4.76136e-06 0)
(0 4.88544e-06 0)
(0 4.73173e-06 0)
(0 4.85187e-06 0)
(0 4.69258e-06 0)
(0 4.81011e-06 0)
(0 4.64287e-06 0)
(0 4.75887e-06 0)
(0 4.58207e-06 0)
(0 4.69439e-06 0)
(0 4.51338e-06 0)
(0 4.62015e-06 0)
(0 4.43456e-06 0)
(0 4.54079e-06 0)
(0 4.34453e-06 0)
(0 4.4589e-06 0)
(0 4.254e-06 0)
(0 4.37805e-06 0)
(0 4.61483e-06 0)
(0 4.59544e-06 0)
(0 4.16743e-06 0)
(0 4.25114e-06 0)
(0 4.56457e-06 0)
(0 4.9314e-06 0)
(0 4.67183e-06 0)
(0 -2.71493e-05 0)
(0 4.65585e-06 0)
(0 -1.42567e-06 0)
(0 5.05812e-06 0)
(0 4.92154e-06 0)
(0 4.70753e-06 0)
(0 4.60653e-06 0)
(0 4.66304e-06 0)
(0 4.54441e-06 0)
(0 4.62496e-06 0)
(0 4.49735e-06 0)
(0 4.598e-06 0)
(0 4.46711e-06 0)
(0 4.58679e-06 0)
(0 4.45242e-06 0)
(0 4.59375e-06 0)
(0 4.3105e-06 0)
(0 4.296e-06 0)
(0 4.14224e-06 0)
(0 4.1217e-06 0)
(0 3.96315e-06 0)
(0 3.92908e-06 0)
(0 3.75632e-06 0)
(0 -5.93775e-05 0)
(0 -6.14286e-05 0)
(0 3.70138e-06 0)
(0 3.50826e-06 0)
(0 3.90825e-06 0)
(0 5.04016e-06 0)
(0 -1.05003e-06 0)
(0 5.83394e-06 0)
(0 -7.69724e-06 0)
(0 -1.13479e-05 0)
(0 -0.000136641 0)
(0 -0.000145605 0)
(0 -0.000143229 0)
(0 -0.000147226 0)
(0 -0.000146188 0)
(0 -0.000137113 0)
(0 -0.000148089 0)
(0 -0.000149899 0)
(0 -0.000116482 0)
(0 -5.21414e-05 0)
(0 -4.94329e-05 0)
(0 -5.19556e-05 0)
(0 -4.922e-05 0)
(0 -5.17448e-05 0)
(0 -4.90331e-05 0)
(0 -5.15498e-05 0)
(0 -4.88654e-05 0)
(0 -5.12935e-05 0)
(0 -4.88439e-05 0)
(0 -5.13314e-05 0)
(0 -4.89501e-05 0)
(0 -5.1418e-05 0)
(0 -4.88216e-05 0)
(0 -5.10016e-05 0)
(0 -4.79355e-05 0)
(0 -5.03197e-05 0)
(0 -4.7551e-05 0)
(0 -4.94241e-05 0)
(0 -4.6713e-05 0)
(0 -4.82171e-05 0)
(0 -4.54743e-05 0)
(0 -4.66059e-05 0)
(0 -4.41831e-05 0)
(0 -4.29004e-05 0)
(0 -4.16038e-05 0)
(0 -4.03287e-05 0)
(0 -3.89617e-05 0)
(0 -3.77291e-05 0)
(0 -3.62788e-05 0)
(0 -3.50987e-05 0)
(0 -3.34745e-05 0)
(0 -3.2263e-05 0)
(0 -3.37164e-05 0)
(0 -3.05677e-05 0)
(0 -2.93799e-05 0)
(0 -2.76325e-05 0)
(0 -2.65017e-05 0)
(0 -2.4746e-05 0)
(0 -2.35255e-05 0)
(0 -2.18035e-05 0)
(0 -2.05307e-05 0)
(0 -1.87975e-05 0)
(0 -1.76058e-05 0)
(0 -1.58731e-05 0)
(0 -1.93296e-05 0)
(0 -2.29024e-05 0)
(0 -1.48222e-05 0)
(0 -1.3126e-05 0)
(0 -1.22e-05 0)
(0 -1.05603e-05 0)
(0 -1.14413e-05 0)
(0 -8.92299e-06 0)
(0 -9.93092e-06 0)
(0 -7.53027e-06 0)
(0 -6.50974e-06 0)
(0 -5.27775e-06 0)
(0 -8.79879e-06 0)
(0 -4.29744e-06 0)
(0 -3.2091e-06 0)
(0 -2.37671e-06 0)
(0 -1.4094e-06 0)
(0 -7.02174e-07 0)
(0 1.31361e-07 0)
(0 -6.61825e-07 0)
(0 7.36854e-07 0)
(0 -7.94385e-08 0)
(0 1.15267e-06 0)
(0 1.89714e-06 0)
(0 2.15164e-06 0)
(0 4.25728e-07 0)
(0 2.80549e-06 0)
(0 3.07496e-06 0)
(0 -3.45479e-05 0)
(0 -4.96215e-05 0)
(0 -4.76603e-05 0)
(0 -5.08365e-05 0)
(0 -4.8762e-05 0)
(0 3.72694e-06 0)
(0 4.3117e-06 0)
(0 -5.20907e-05 0)
(0 -5.00236e-05 0)
(0 -5.36183e-05 0)
(0 -5.15894e-05 0)
(0 -5.54749e-05 0)
(0 -5.34389e-05 0)
(0 -5.75377e-05 0)
(0 -5.54703e-05 0)
(0 -5.13547e-05 0)
(0 -5.34047e-05 0)
(0 -4.92948e-05 0)
(0 -5.14158e-05 0)
(0 -4.73357e-05 0)
(0 -4.95985e-05 0)
(0 -5.37064e-05 0)
(0 -5.2015e-05 0)
(0 -5.61657e-05 0)
(0 -5.43068e-05 0)
(0 -5.85189e-05 0)
(0 -5.63285e-05 0)
(0 -6.05658e-05 0)
(0 -5.80929e-05 0)
(0 -6.23248e-05 0)
(0 -5.96399e-05 0)
(0 -6.39108e-05 0)
(0 -6.10934e-05 0)
(0 -6.54307e-05 0)
(0 -6.25243e-05 0)
(0 -6.69475e-05 0)
(0 -6.39026e-05 0)
(0 -6.83784e-05 0)
(0 -4.55014e-05 0)
(0 -6.50712e-05 0)
(0 -6.95624e-05 0)
(0 -6.602e-05 0)
(0 -7.0412e-05 0)
(0 -6.70114e-05 0)
(0 -7.14214e-05 0)
(0 -5.37589e-05 0)
(0 -6.80318e-05 0)
(0 -7.25091e-05 0)
(0 -6.87869e-05 0)
(0 -7.34369e-05 0)
(0 -6.92813e-05 0)
(0 -7.38889e-05 0)
(0 -6.95741e-05 0)
(0 -7.42316e-05 0)
(0 -6.99753e-05 0)
(0 -7.47562e-05 0)
(0 -5.93901e-05 0)
(0 -7.05941e-05 0)
(0 -7.54282e-05 0)
(0 -7.98174e-05 0)
(0 -8.04113e-05 0)
(0 -7.59589e-05 0)
(0 -8.08886e-05 0)
(0 -7.63276e-05 0)
(0 -8.13484e-05 0)
(0 -8.60254e-05 0)
(0 -8.65342e-05 0)
(0 -8.1785e-05 0)
(0 -8.69789e-05 0)
(0 -8.21385e-05 0)
(0 -8.72778e-05 0)
(0 -8.23309e-05 0)
(0 -8.73196e-05 0)
(0 -8.22237e-05 0)
(0 -8.69883e-05 0)
(0 -9.20997e-05 0)
(0 -9.16243e-05 0)
(0 -8.6361e-05 0)
(0 -9.10348e-05 0)
(0 -8.56121e-05 0)
(0 -9.03836e-05 0)
(0 -8.47977e-05 0)
(0 -8.95115e-05 0)
(0 -9.50288e-05 0)
(0 -9.39469e-05 0)
(0 -8.83166e-05 0)
(0 -9.25697e-05 0)
(0 -8.68828e-05 0)
(0 -9.10061e-05 0)
(0 -8.53098e-05 0)
(0 -8.92813e-05 0)
(0 -9.48265e-05 0)
(0 -9.29447e-05 0)
(0 -8.73405e-05 0)
(0 -9.08711e-05 0)
(0 -8.52614e-05 0)
(0 -8.86577e-05 0)
(0 -9.40954e-05 0)
(0 -9.19245e-05 0)
(0 -8.57326e-05 0)
(0 -8.98166e-05 0)
(0 -9.48959e-05 0)
(0 -9.28284e-05 0)
(0 -8.80337e-05 0)
(0 -9.05018e-05 0)
(0 -9.5195e-05 0)
(0 -9.2708e-05 0)
(0 -8.78538e-05 0)
(0 -8.99199e-05 0)
(0 -9.46416e-05 0)
(0 -9.17785e-05 0)
(0 -9.6295e-05 0)
(0 -9.34603e-05 0)
(0 -8.88675e-05 0)
(0 -9.05799e-05 0)
(0 -9.49292e-05 0)
(0 -9.20585e-05 0)
(0 -9.6128e-05 0)
(0 -9.32532e-05 0)
(0 -8.91691e-05 0)
(0 -9.02564e-05 0)
(0 -9.41833e-05 0)
(0 -9.10648e-05 0)
(0 -9.49271e-05 0)
(0 -9.16884e-05 0)
(0 -8.78561e-05 0)
(0 -8.83693e-05 0)
(0 -9.21469e-05 0)
(0 -8.87041e-05 0)
(0 -8.48495e-05 0)
(0 -9.23962e-05 0)
(0 -8.88061e-05 0)
(0 -9.24049e-05 0)
(0 -8.86701e-05 0)
(0 -9.21823e-05 0)
(0 -8.82817e-05 0)
(0 -9.16926e-05 0)
(0 -8.75944e-05 0)
(0 -9.09627e-05 0)
(0 -8.65967e-05 0)
(0 -8.32472e-05 0)
(0 -8.98893e-05 0)
(0 -8.544e-05 0)
(0 -8.85345e-05 0)
(0 -8.40938e-05 0)
(0 -8.69609e-05 0)
(0 -8.24513e-05 0)
(0 -8.51047e-05 0)
(0 -9.29042e-05 0)
(0 -9.59191e-05 0)
(0 -8.05137e-05 0)
(0 -8.2977e-05 0)
(0 -7.78108e-05 0)
(0 -9.11716e-05 0)
(0 -6.31786e-05 0)
(0 -7.8318e-05 0)
(0 -8.06215e-05 0)
(0 -8.52302e-05 0)
(0 -8.27575e-05 0)
(0 -8.73628e-05 0)
(0 -8.47598e-05 0)
(0 -7.7586e-05 0)
(0 -8.01092e-05 0)
(0 -8.1995e-05 0)
(0 5.08875e-06 0)
(0 5.85865e-06 0)
(0 5.18965e-06 0)
(0 6.60074e-06 0)
(0 6.17643e-06 0)
(0 7.34353e-06 0)
(0 7.17677e-06 0)
(0 8.18237e-06 0)
(0 8.15153e-06 0)
(0 9.13159e-06 0)
(0 9.1965e-06 0)
(0 1.02452e-05 0)
(0 1.02321e-05 0)
(0 1.15607e-05 0)
(0 1.16129e-05 0)
(0 1.30983e-05 0)
(0 1.31746e-05 0)
(0 1.48428e-05 0)
(0 1.46648e-05 0)
(0 1.6433e-05 0)
(0 1.65817e-05 0)
(0 1.80636e-05 0)
(0 1.80406e-05 0)
(0 1.93759e-05 0)
(0 1.93028e-05 0)
(0 2.04305e-05 0)
(0 2.00909e-05 0)
(0 2.08812e-05 0)
(0 2.12032e-05 0)
(0 2.15282e-05 0)
(0 2.09563e-05 0)
(0 2.17089e-05 0)
(0 2.10745e-05 0)
(0 2.19972e-05 0)
(0 2.26597e-05 0)
(0 2.30253e-05 0)
(0 2.24288e-05 0)
(0 2.33965e-05 0)
(0 2.39489e-05 0)
(0 -7.73068e-05 0)
(0 -7.91212e-05 0)
(0 -6.96948e-05 0)
(0 6.6415e-06 0)
(0 5.89793e-06 0)
(0 -6.53759e-05 0)
(0 -8.93638e-05 0)
(0 -4.6441e-05 0)
(0 -7.43872e-05 0)
(0 -7.61614e-05 0)
(0 -7.73535e-05 0)
(0 7.50431e-06 0)
(0 6.91163e-06 0)
(0 -7.13643e-05 0)
(0 -7.30668e-05 0)
(0 -7.77912e-05 0)
(0 -6.95628e-05 0)
(0 -1.70345e-06 0)
(0 8.69588e-06 0)
(0 8.19633e-06 0)
(0 -6.25701e-05 0)
(0 -5.95905e-05 0)
(0 1.01225e-05 0)
(0 9.68688e-06 0)
(0 -7.41227e-05 0)
(0 -8.113e-05 0)
(0 -9.92258e-05 0)
(0 -9.22168e-05 0)
(0 2.70168e-06 0)
(0 3.65671e-06 0)
(0 3.90173e-06 0)
(0 -5.81334e-06 0)
(0 1.45137e-05 0)
(0 5.23973e-06 0)
(0 5.21343e-06 0)
(0 5.27973e-06 0)
(0 5.26212e-06 0)
(0 5.32539e-06 0)
(0 5.3137e-06 0)
(0 5.37328e-06 0)
(0 5.36728e-06 0)
(0 5.42555e-06 0)
(0 5.42306e-06 0)
(0 5.48194e-06 0)
(0 5.48228e-06 0)
(0 5.53706e-06 0)
(0 5.54027e-06 0)
(0 5.58798e-06 0)
(0 5.59444e-06 0)
(0 5.63379e-06 0)
(0 5.64273e-06 0)
(0 5.67306e-06 0)
(0 5.6683e-06 0)
(0 5.7006e-06 0)
(0 5.69836e-06 0)
(0 5.72578e-06 0)
(0 5.72571e-06 0)
(0 5.7497e-06 0)
(0 5.75096e-06 0)
(0 5.77213e-06 0)
(0 5.77433e-06 0)
(0 5.79241e-06 0)
(0 5.79536e-06 0)
(0 5.8099e-06 0)
(0 5.8138e-06 0)
(0 5.82528e-06 0)
(0 5.83069e-06 0)
(0 5.83937e-06 0)
(0 5.6837e-06 0)
(0 5.65877e-06 0)
(0 5.82347e-06 0)
(0 5.69948e-06 0)
(0 5.68077e-06 0)
(0 5.71815e-06 0)
(0 5.70037e-06 0)
(0 5.73691e-06 0)
(0 5.71781e-06 0)
(0 5.75322e-06 0)
(0 5.73575e-06 0)
(0 5.76773e-06 0)
(0 5.78141e-06 0)
(0 5.79292e-06 0)
(0 5.69612e-06 0)
(0 5.71664e-06 0)
(0 5.80488e-06 0)
(0 5.81442e-06 0)
(0 5.67329e-06 0)
(0 5.69598e-06 0)
(0 5.82501e-06 0)
(0 5.83225e-06 0)
(0 5.37233e-06 0)
(0 5.75409e-06 0)
(0 6.10353e-06 0)
(0 4.7114e-06 0)
(0 4.73847e-06 0)
(0 4.86108e-06 0)
(0 4.90517e-06 0)
(0 5.03209e-06 0)
(0 5.07637e-06 0)
(0 5.20876e-06 0)
(0 5.2434e-06 0)
(0 5.4025e-06 0)
(0 5.4304e-06 0)
(0 5.63085e-06 0)
(0 5.66656e-06 0)
(0 5.89524e-06 0)
(0 5.24459e-06 0)
(0 5.95973e-06 0)
(0 6.21025e-06 0)
(0 6.30749e-06 0)
(0 6.57283e-06 0)
(0 6.4637e-06 0)
(0 6.83301e-06 0)
(0 5.64826e-06 0)
(0 5.67293e-06 0)
(0 5.71597e-06 0)
(0 5.69574e-06 0)
(0 5.73518e-06 0)
(0 5.71645e-06 0)
(0 5.75286e-06 0)
(0 5.73558e-06 0)
(0 5.76983e-06 0)
(0 5.75344e-06 0)
(0 4.46009e-06 0)
(0 5.84115e-06 0)
(0 5.84617e-06 0)
(0 5.83895e-06 0)
(0 5.85093e-06 0)
(0 6.70601e-06 0)
(0 7.07494e-06 0)
(0 5.69413e-06 0)
(0 1.15626e-05 0)
(0 1.11197e-05 0)
(0 1.16666e-05 0)
(0 -5.39019e-05 0)
(0 6.9191e-06 0)
(0 7.28076e-06 0)
(0 7.09455e-06 0)
(0 7.45514e-06 0)
(0 7.65081e-06 0)
(0 7.81369e-06 0)
(0 6.96592e-06 0)
(0 7.60933e-06 0)
(0 7.95796e-06 0)
(0 7.74719e-06 0)
(0 8.08626e-06 0)
(0 5.84488e-06 0)
(0 5.85516e-06 0)
(0 5.78397e-06 0)
(0 5.76873e-06 0)
(0 5.84985e-06 0)
(0 5.85876e-06 0)
(0 5.86278e-06 0)
(0 5.86534e-06 0)
(0 5.86198e-06 0)
(0 5.86775e-06 0)
(0 5.865e-06 0)
(0 5.87017e-06 0)
(0 5.86794e-06 0)
(0 5.87263e-06 0)
(0 5.87074e-06 0)
(0 5.87508e-06 0)
(0 5.87348e-06 0)
(0 5.87752e-06 0)
(0 5.87637e-06 0)
(0 5.87999e-06 0)
(0 5.87933e-06 0)
(0 5.8826e-06 0)
(0 5.88228e-06 0)
(0 5.85339e-06 0)
(0 5.48472e-06 0)
(0 8.01754e-06 0)
(0 6.03778e-06 0)
(0 -4.338e-05 0)
(0 -4.14817e-05 0)
(0 7.27827e-06 0)
(0 5.80198e-06 0)
(0 3.59409e-06 0)
(0 3.33179e-06 0)
(0 3.44695e-06 0)
(0 3.17674e-06 0)
(0 3.04189e-06 0)
(0 2.88963e-06 0)
(0 3.05288e-06 0)
(0 2.77807e-06 0)
(0 2.96916e-06 0)
(0 2.69857e-06 0)
(0 2.91022e-06 0)
(0 2.64378e-06 0)
(0 2.86839e-06 0)
(0 2.60533e-06 0)
(0 2.8392e-06 0)
(0 2.5666e-06 0)
(0 2.80767e-06 0)
(0 2.51526e-06 0)
(0 2.25031e-06 0)
(0 2.17298e-06 0)
(0 2.44539e-06 0)
(0 2.07813e-06 0)
(0 2.36593e-06 0)
(0 1.97117e-06 0)
(0 2.28106e-06 0)
(0 1.8607e-06 0)
(0 2.18342e-06 0)
(0 1.73865e-06 0)
(0 2.05279e-06 0)
(0 1.59016e-06 0)
(0 1.25956e-06 0)
(0 1.09228e-06 0)
(0 1.40476e-06 0)
(0 8.74425e-07 0)
(0 1.183e-06 0)
(0 6.06778e-07 0)
(0 9.44309e-07 0)
(0 3.29555e-07 0)
(0 7.02058e-07 0)
(0 6.01495e-08 0)
(0 4.27627e-07 0)
(0 -2.10104e-07 0)
(0 1.64887e-07 0)
(0 -4.92813e-07 0)
(0 -1.18674e-07 0)
(0 -8.16606e-07 0)
(0 2.41169e-06 0)
(0 7.43003e-07 0)
(0 -1.15147e-06 0)
(0 1.87628e-06 0)
(0 5.62048e-06 0)
(0 5.79541e-06 0)
(0 5.7809e-06 0)
(0 5.75036e-06 0)
(0 5.76205e-06 0)
(0 5.7906e-06 0)
(0 5.7702e-06 0)
(0 5.79747e-06 0)
(0 5.77596e-06 0)
(0 5.80173e-06 0)
(0 5.78027e-06 0)
(0 5.80334e-06 0)
(0 5.78041e-06 0)
(0 5.80183e-06 0)
(0 5.77549e-06 0)
(0 5.79772e-06 0)
(0 5.76914e-06 0)
(0 5.79155e-06 0)
(0 5.7599e-06 0)
(0 5.78358e-06 0)
(0 5.74802e-06 0)
(0 5.77602e-06 0)
(0 5.73432e-06 0)
(0 5.73811e-06 0)
(0 5.70054e-06 0)
(0 5.75321e-06 0)
(0 -3.95541e-05 0)
(0 -3.76692e-05 0)
(0 -3.5873e-05 0)
(0 -3.40599e-05 0)
(0 -3.24904e-05 0)
(0 -3.06086e-05 0)
(0 -3.23627e-05 0)
(0 -2.871e-05 0)
(0 -3.06443e-05 0)
(0 -2.68541e-05 0)
(0 -2.88229e-05 0)
(0 -2.49363e-05 0)
(0 -2.67241e-05 0)
(0 -2.33352e-05 0)
(0 -2.14489e-05 0)
(0 -2.04048e-05 0)
(0 -1.86294e-05 0)
(0 -1.80305e-05 0)
(0 -1.62358e-05 0)
(0 -1.56398e-05 0)
(0 -1.38938e-05 0)
(0 -1.3034e-05 0)
(0 -1.46633e-05 0)
(0 -1.14794e-05 0)
(0 -1.0391e-05 0)
(0 -9.10333e-06 0)
(0 -7.83778e-06 0)
(0 -9.31869e-06 0)
(0 -6.46712e-06 0)
(0 8.9729e-06 0)
(0 1.04225e-05 0)
(0 8.19469e-06 0)
(0 9.75978e-06 0)
(0 7.51209e-06 0)
(0 9.03854e-06 0)
(0 6.56412e-06 0)
(0 8.15828e-06 0)
(0 3.63136e-06 0)
(0 3.90897e-06 0)
(0 5.72731e-06 0)
(0 1.31348e-05 0)
(0 1.30152e-05 0)
(0 2.73374e-06 0)
(0 -5.8745e-07 0)
(0 -5.25954e-06 0)
(0 -1.56398e-06 0)
(0 -1.76429e-05 0)
(0 -8.14784e-06 0)
(0 -0.000124208 0)
(0 -0.000121571 0)
(0 -0.000122961 0)
(0 -0.000120145 0)
(0 -0.000121433 0)
(0 -0.00011834 0)
(0 -0.000119618 0)
(0 -0.000116198 0)
(0 -0.000117528 0)
(0 -0.00011495 0)
(0 -0.000113781 0)
(0 -0.00011514 0)
(0 -0.000111089 0)
(0 -0.000112491 0)
(0 -0.000116511 0)
(0 -0.00011394 0)
(0 -0.000117831 0)
(0 -0.000115233 0)
(0 -0.000118947 0)
(0 -0.000116301 0)
(0 -0.000119835 0)
(0 -1.94927e-06 0)
(0 -6.16867e-05 0)
(0 -6.3761e-05 0)
(0 -6.58024e-05 0)
(0 -6.78868e-05 0)
(0 -6.99562e-05 0)
(0 -2.04433e-05 0)
(0 5.50372e-06 0)
(0 7.38599e-06 0)
(0 -0.000117127 0)
(0 -0.000120568 0)
(0 5.86858e-06 0)
(0 1.4734e-05 0)
(0 1.44743e-05 0)
(0 -0.000117795 0)
(0 -0.000121276 0)
(0 -0.000118382 0)
(0 -0.000121918 0)
(0 -0.000118912 0)
(0 -0.000122507 0)
(0 -7.20007e-05 0)
(0 -7.42173e-05 0)
(0 -0.000119447 0)
(0 -0.00012312 0)
(0 -6.97986e-05 0)
(0 -0.000119981 0)
(0 -0.000123666 0)
(0 -4.67729e-05 0)
(0 -2.38595e-06 0)
(0 5.88066e-06 0)
(0 5.87437e-06 0)
(0 -8.00903e-05 0)
(0 -0.000121426 0)
(0 -9.74058e-05 0)
(0 1.49177e-06 0)
(0 -3.85502e-05 0)
(0 -0.000112482 0)
(0 5.86206e-06 0)
(0 7.86309e-06 0)
(0 1.17507e-05 0)
(0 -3.07017e-05 0)
(0 -3.26607e-05 0)
(0 5.85018e-06 0)
(0 5.86015e-06 0)
(0 3.62578e-06 0)
(0 3.91454e-06 0)
(0 5.85818e-06 0)
(0 -0.000125185 0)
(0 -2.97007e-05 0)
(0 2.64617e-06 0)
(0 -0.00010821 0)
(0 -0.000106839 0)
(0 7.53902e-06 0)
(0 1.62604e-05 0)
(0 1.58578e-05 0)
(0 -4.63511e-05 0)
(0 6.75834e-06 0)
(0 5.81034e-06 0)
(0 -0.000120385 0)
(0 -0.000123949 0)
(0 -0.000127074 0)
(0 -0.000127198 0)
(0 -2.84086e-06 0)
(0 -7.62439e-05 0)
(0 -7.86368e-05 0)
(0 3.12081e-06 0)
(0 5.8665e-06 0)
(0 5.86512e-06 0)
(0 -3.30508e-06 0)
(0 -0.000142417 0)
(0 -5.07705e-06 0)
(0 -6.99986e-06 0)
(0 -0.000149616 0)
(0 -0.000123952 0)
(0 -0.00012693 0)
(0 -0.000130655 0)
(0 -0.000129715 0)
(0 -0.000126273 0)
(0 -0.000128758 0)
(0 -0.000125406 0)
(0 -0.000127705 0)
(0 -0.000124301 0)
(0 -0.000126475 0)
(0 -0.000122982 0)
(0 -0.000125091 0)
(0 -0.000128527 0)
(0 -0.000127099 0)
(0 -0.000123657 0)
(0 -0.000125619 0)
(0 -0.00012215 0)
(0 -0.000123987 0)
(0 -0.000127333 0)
(0 -0.000125585 0)
(0 -0.000128839 0)
(0 -0.000127043 0)
(0 -0.000123757 0)
(0 -0.000125108 0)
(0 -0.000128348 0)
(0 -0.000126234 0)
(0 -0.000129387 0)
(0 -0.000127168 0)
(0 -0.000130176 0)
(0 -0.000127922 0)
(0 -0.000124895 0)
(0 -0.000125575 0)
(0 -0.000128474 0)
(0 -0.000126007 0)
(0 -0.000128755 0)
(0 -0.000126184 0)
(0 -0.00012876 0)
(0 -0.000126061 0)
(0 -0.000128442 0)
(0 -0.000125642 0)
(0 -0.000127844 0)
(0 -0.000124963 0)
(0 -0.000126999 0)
(0 -0.000124045 0)
(0 -0.000125925 0)
(0 -0.0001229 0)
(0 -0.000124634 0)
(0 -0.000121526 0)
(0 -0.000123129 0)
(0 -0.000119979 0)
(0 -0.000121394 0)
(0 -0.000118287 0)
(0 -0.000119358 0)
(0 -0.000115768 0)
(0 -0.000121034 0)
(0 -0.000123511 0)
(0 -0.000116511 0)
(0 5.8715e-06 0)
(0 -0.000122539 0)
(0 4.47831e-06 0)
(0 5.82019e-06 0)
(0 9.92961e-06 0)
(0 9.38532e-06 0)
(0 4.86811e-06 0)
(0 -3.16653e-05 0)
(0 -3.47469e-05 0)
(0 1.74452e-05 0)
(0 1.70159e-05 0)
(0 1.7907e-05 0)
(0 -0.000103788 0)
(0 -0.000102518 0)
(0 -0.000122996 0)
(0 8.09734e-07 0)
(0 -4.55318e-05 0)
(0 1.57237e-05 0)
(0 1.68829e-05 0)
(0 -4.65303e-05 0)
(0 -4.14417e-05 0)
(0 -4.49489e-05 0)
(0 -3.98064e-05 0)
(0 -4.33491e-05 0)
(0 5.83766e-06 0)
(0 5.3488e-06 0)
(0 5.48503e-06 0)
(0 -0.000121773 0)
(0 -0.000124417 0)
(0 -5.42212e-05 0)
(0 -0.00013213 0)
(0 5.87249e-06 0)
(0 5.87139e-06 0)
(0 5.8727e-06 0)
(0 3.61116e-06 0)
(0 3.89053e-06 0)
(0 -7.65384e-05 0)
(0 -8.10001e-05 0)
(0 -7.90199e-05 0)
(0 -8.34851e-05 0)
(0 -8.15162e-05 0)
(0 -8.60642e-05 0)
(0 -8.81292e-05 0)
(0 -9.05713e-05 0)
(0 -8.83567e-05 0)
(0 -9.94152e-07 0)
(0 -2.92948e-07 0)
(0 -2.00486e-06 0)
(0 -1.04753e-06 0)
(0 -3.0017e-06 0)
(0 -1.65891e-06 0)
(0 -3.65735e-06 0)
(0 -1.99577e-06 0)
(0 -3.78184e-06 0)
(0 -2.09306e-06 0)
(0 -3.76102e-06 0)
(0 -2.10203e-06 0)
(0 -3.78526e-06 0)
(0 -2.19353e-06 0)
(0 -3.84184e-06 0)
(0 -5.0338e-07 0)
(0 -5.46319e-06 0)
(0 -5.42306e-06 0)
(0 -7.11898e-06 0)
(0 -6.9919e-06 0)
(0 -8.71631e-06 0)
(0 -8.52623e-06 0)
(0 -1.03104e-05 0)
(0 -1.01189e-05 0)
(0 -1.19075e-05 0)
(0 -1.17581e-05 0)
(0 -1.35119e-05 0)
(0 -1.34492e-05 0)
(0 -1.52e-05 0)
(0 -1.51928e-05 0)
(0 -1.69546e-05 0)
(0 -1.68708e-05 0)
(0 -1.87144e-05 0)
(0 -1.85259e-05 0)
(0 -2.04566e-05 0)
(0 -5.42976e-06 0)
(0 -7.55762e-07 0)
(0 9.00191e-07 0)
(0 -9.98187e-06 0)
(0 -2.02233e-05 0)
(0 -2.22083e-05 0)
(0 -1.82255e-05 0)
(0 4.21428e-07 0)
(0 1.97393e-06 0)
(0 -1.98519e-05 0)
(0 -1.78455e-05 0)
(0 1.28657e-06 0)
(0 2.71012e-06 0)
(0 -1.93982e-05 0)
(0 -2.23225e-05 0)
(0 -2.41404e-05 0)
(0 -1.52335e-05 0)
(0 3.4626e-06 0)
(0 4.09528e-06 0)
(0 1.89299e-06 0)
(0 5.60775e-07 0)
(0 -1.73908e-05 0)
(0 -1.89234e-05 0)
(0 -2.10216e-05 0)
(0 -1.59427e-05 0)
(0 4.8758e-06 0)
(0 5.39833e-06 0)
(0 -2.41032e-05 0)
(0 -2.60298e-05 0)
(0 -1.54518e-05 0)
(0 -1.41229e-05 0)
(0 1.17853e-06 0)
(0 -1.63195e-08 0)
(0 -1.36226e-05 0)
(0 -1.24181e-05 0)
(0 6.17261e-06 0)
(0 6.63842e-06 0)
(0 5.83665e-06 0)
(0 7.09026e-06 0)
(0 7.8236e-06 0)
(0 8.29537e-06 0)
(0 6.34837e-06 0)
(0 8.94602e-06 0)
(0 9.44634e-06 0)
(0 -2.0515e-05 0)
(0 -2.26907e-05 0)
(0 -1.05215e-05 0)
(0 6.48826e-07 0)
(0 -4.01659e-07 0)
(0 1.00024e-05 0)
(0 1.05681e-05 0)
(0 9.98728e-06 0)
(0 1.11049e-05 0)
(0 1.04968e-05 0)
(0 1.15548e-05 0)
(0 1.08851e-05 0)
(0 1.18995e-05 0)
(0 1.26275e-05 0)
(0 1.29482e-05 0)
(0 1.21488e-05 0)
(0 1.31574e-05 0)
(0 1.40643e-05 0)
(0 1.42302e-05 0)
(0 1.34635e-05 0)
(0 1.44882e-05 0)
(0 1.5235e-05 0)
(0 1.54152e-05 0)
(0 1.47892e-05 0)
(0 1.56504e-05 0)
(0 1.62365e-05 0)
(0 1.64783e-05 0)
(0 1.58514e-05 0)
(0 1.67462e-05 0)
(0 6.88491e-06 0)
(0 8.97352e-06 0)
(0 -3.07713e-05 0)
(0 -2.84418e-05 0)
(0 5.59206e-06 0)
(0 5.56055e-06 0)
(0 -1.11583e-05 0)
(0 -3.26207e-05 0)
(0 -3.00928e-05 0)
(0 -3.42396e-05 0)
(0 -3.16786e-05 0)
(0 -2.72414e-05 0)
(0 -2.86524e-05 0)
(0 -2.40788e-05 0)
(0 -2.52048e-05 0)
(0 -2.08524e-05 0)
(0 -2.15944e-05 0)
(0 -2.60947e-05 0)
(0 -2.20689e-05 0)
(0 -2.65424e-05 0)
(0 -2.22362e-05 0)
(0 -2.6526e-05 0)
(0 -2.21526e-05 0)
(0 -2.64763e-05 0)
(0 -2.21684e-05 0)
(0 -2.67407e-05 0)
(0 -2.23383e-05 0)
(0 -2.69761e-05 0)
(0 -1.77568e-05 0)
(0 -2.22975e-05 0)
(0 -2.67572e-05 0)
(0 -2.19478e-05 0)
(0 -2.64144e-05 0)
(0 -2.1616e-05 0)
(0 -2.6219e-05 0)
(0 -1.79288e-05 0)
(0 -2.15353e-05 0)
(0 -2.60811e-05 0)
(0 -2.15448e-05 0)
(0 -2.60031e-05 0)
(0 -3.10463e-05 0)
(0 -3.08784e-05 0)
(0 -3.58088e-05 0)
(0 -1.76817e-05 0)
(0 -2.15955e-05 0)
(0 -2.62517e-05 0)
(0 -2.58908e-05 0)
(0 -2.79612e-05 0)
(0 1.735e-05 0)
(0 1.76471e-05 0)
(0 -3.81628e-05 0)
(0 -4.17219e-05 0)
(0 -0.000143768 0)
(0 -3.65088e-05 0)
(0 -4.00387e-05 0)
(0 1.70158e-05 0)
(0 1.8033e-05 0)
(0 1.86611e-05 0)
(0 1.91512e-05 0)
(0 1.84145e-05 0)
(0 -9.28763e-05 0)
(0 -9.51474e-05 0)
(0 -9.04902e-05 0)
(0 1.78952e-05 0)
(0 1.76953e-05 0)
(0 1.7222e-05 0)
(0 1.80691e-05 0)
(0 1.7973e-05 0)
(0 1.8996e-05 0)
(0 1.88484e-05 0)
(0 1.96948e-05 0)
(0 1.99085e-05 0)
(0 2.04722e-05 0)
(0 2.06794e-05 0)
(0 2.12837e-05 0)
(0 2.07567e-05 0)
(0 2.18395e-05 0)
(0 2.24377e-05 0)
(0 2.31646e-05 0)
(0 4.17567e-06 0)
(0 4.14063e-06 0)