/*--------------------------------*- C++ -*----------------------------------*\
| =========                 |                                                 |
| \\      /  F ield         | OpenFOAM: The Open Source CFD Toolbox           |
|  \\    /   O peration     | Version:  v2012                                 |
|   \\  /    A nd           | Website:  www.openfoam.com                      |
|    \\/     M anipulation  |                                                 |
\*---------------------------------------------------------------------------*/
FoamFile
{
    version     2.0;
    format      ascii;
    class       surfaceScalarField;
    location    "450";
    object      meshPhi;
}
// * * * * * * * * * * * * * * * * * * * * * * * * * * * * * * * * * * * * * //

dimensions      [0 3 -1 0 0 0 0];
oriented        oriented;


internalField   nonuniform List<scalar> 
20642
(
0.000421176
6.77594e-05
-0.000488935
-0.00135545
0.00232155
-0.000962581
-0.000267141
-0.000415499
0.000682683
-0.000247929
0.00184214
-0.0015834
-0.00186004
0.0027007
-0.000829793
-0.00237033
0.00101952
0.000758847
-0.00164932
0.000893352
-0.00280503
0.0015933
0.00121385
-0.000730527
-0.000690995
0.00142426
-0.000416462
-6.31286e-05
-0.00122594
-0.00157681
-0.00241245
0.00207931
0.000353187
9.8555e-05
7.9564e-05
-0.00161317
0.00244828
-0.000834118
-0.0019474
0.00259714
-0.000641621
3.885e-05
0.000382326
5.41281e-05
4.25132e-05
-6.39184e-05
0.00274985
-0.00121184
-0.00153569
-0.00100611
0.000713043
0.000293204
0.00050924
-0.000279882
-0.000229358
-0.0019579
0.00127175
0.000689125
-0.000447649
-0.00155804
0.00203013
-0.000585527
-0.000509658
0.00109577
0.00175931
-0.0021802
-0.00221231
0.00115008
0.00106887
0.00208019
-0.000824871
-0.00125243
0.00172741
-0.000973982
-0.000753124
-0.000416462
0.00245234
-0.000902189
-0.00154731
2.20754e-06
4.73326e-05
-4.81715e-05
-0.000365828
-5.06349e-05
-0.00126413
0.000451886
0.000812492
0.00223146
-0.00149018
-0.000729781
0.000493042
-0.000248782
-0.000244259
0.000110354
-0.00162982
0.00154736
-0.000211455
0.00180651
-0.0017975
-0.000204556
0.00201035
-5.88903e-05
0.000214392
-4.84987e-05
0.00151542
-0.00075396
-0.00123552
0.00187697
-0.000639205
-7.15566e-07
-1.48985e-05
3.63297e-05
-0.000957021
0.00144338
-0.000470141
0.00203178
-0.000239203
-0.00178759
-0.000429848
-0.000339476
0.000769433
-0.000905648
0.000475937
0.000280965
-0.000855057
0.000574236
-0.00175167
-0.000202076
0.000674047
-0.000408856
-0.000265187
0.00113936
0.00103375
-0.00217235
-0.0012017
0.00133454
-0.000216321
-0.00217456
-0.000349148
0.00107703
-0.000727626
0.000276311
-0.000453438
0.000177127
0.00208068
-0.00243796
0.000382014
0.00259931
-0.0019718
-0.000604089
-0.000909747
0.000560791
-0.000365828
0.000563184
-0.00114803
-0.00147674
0.000536505
0.00100052
-0.000719369
-0.00109779
0.000583614
0.000514199
0.000776284
0.00116074
-0.00192468
-6.28427e-06
-4.78738e-07
9.67406e-06
-0.000807107
-0.00139767
-0.000455312
-5.58626e-05
0.000511187
9.19582e-05
-5.86121e-05
-3.29649e-05
-0.00102223
0.00240493
-0.00138023
-0.00169685
0.00148706
0.00152612
-0.00046754
0.000282422
0.000185118
-0.000136911
-0.000426352
0.000563283
0.000358949
0.000134094
-0.00258441
0.00220347
0.000405699
-0.00109797
-0.000358629
0.00199471
-0.000720222
-0.00266057
0.00135211
0.00131551
-0.00168231
0.00253825
-0.000844337
-0.00148618
0.000408505
-0.00104359
-0.00160875
0.00139095
0.00084841
0.00170052
0.000813642
-0.00249481
6.46255e-05
6.46205e-05
-8.28932e-05
-0.000349277
-0.00220643
0.000700902
-0.000420242
-0.000280643
-0.00118742
0.00106743
0.000224843
-0.00247899
0.00104332
0.00143715
-0.000691109
-0.000572711
0.000348986
0.000270597
-0.000488837
-0.00178388
0.00055079
-3.45058e-05
0.000116894
-3.82694e-05
-0.000121836
0.000189088
0.00144883
-0.00140049
0.00254071
-0.000174784
0.00163076
-0.0014263
-0.000427889
-0.00184553
0.0022898
0.00143266
0.00227161
-0.00122341
-0.00104757
9.98225e-05
7.34322e-05
-0.000110827
0.000667839
-0.000215741
0.00115814
-0.0018987
0.000741512
1.85459e-05
1.32468e-05
-2.12296e-05
-5.22355e-06
3.14177e-05
0.00237105
-0.000654019
0.000232175
3.38331e-05
-0.000208871
-0.00268478
0.00101792
-0.000501331
-4.98573e-05
0.000551198
-0.000425103
-8.11718e-05
0.000506279
-0.00145403
0.0022445
0.000442855
0.00101633
0.000818117
0.000909635
-0.000329221
0.000921222
-0.00053163
0.000282849
-0.00232389
0.00142433
0.000142777
-0.000598077
0.000142507
0.00136555
-0.00150235
-0.000573808
-0.000432142
-9.94327e-05
0.000121483
1.74976e-06
0.000457018
0.000335756
-0.000792716
0.000543051
0.00157857
-0.00209351
0.000173268
-6.43507e-05
0.00146284
-0.000534179
-0.000906768
0.000951196
0.00145623
0.000586614
0.000382254
-0.00096863
0.000298436
-0.000481045
0.000182609
0.000308
0.000392912
0.00198355
-0.000682691
-0.00129379
0.000656552
0.00134101
0.00162987
0.000378883
-0.00197407
-0.000362307
0.000949115
-0.00145305
0.000426603
0.00102752
0.000447114
-0.00110801
0.00066116
-0.000558653
0.000354696
0.00020396
0.00166208
-0.00151318
-0.00102562
0.000290231
0.000735585
0.00180302
-0.000984549
0.00107754
-0.00056105
-0.000516469
0.000259543
0.000183613
-0.000443156
0.00237397
-0.000927096
-0.00144377
5.31333e-05
0.00225758
-0.00231717
6.05793e-05
-0.000520238
-0.000945698
0.0001772
-0.00067852
0.000447626
-0.0018072
0.00139655
-0.00228083
0.00207972
0.000227708
0.0012163
0.000266413
-0.00146961
-0.000546091
0.000409198
-0.00265685
-0.000134464
-0.000305462
0.000439928
-0.000416475
0.00252405
0.00131652
-0.00184293
0.000528842
-1.85644e-05
-5.89669e-06
3.41648e-05
-0.00194384
-0.000308371
0.000877808
0.00139439
-0.00232265
0.0018917
0.000450055
-4.17481e-05
0.000327827
-0.000346541
-0.000134664
0.000481208
2.66475e-05
3.48855e-05
-3.93697e-05
-7.19985e-06
-7.24232e-05
-0.00209916
0.00166282
0.000506982
-0.000244506
-0.000380465
0.000624991
0.0026931
-0.000972295
-0.00171298
-4.45042e-05
0.000365869
0.000407348
-0.000773201
0.00189783
-0.000978164
-0.00091906
-0.000108895
0.000407295
-0.000823224
0.000415942
-1.45344e-05
1.43238e-05
5.8607e-07
0.000871727
0.00150523
-0.00329071
0.00192465
0.00139102
-0.000171375
-0.000347821
0.0005192
-0.00178269
-0.00115318
0.000755959
0.000397275
0.000309289
-0.00101972
0.000710874
-2.12894e-05
5.62377e-05
-2.08358e-05
0.00146953
-0.00170764
-0.000502431
0.00107857
-0.000575909
-0.000467356
-0.000984354
0.00150743
0.00119232
0.00180089
-0.00194543
0.00014953
-0.001503
-0.00201793
0.00181959
0.000208548
-0.000695897
0.000487441
-0.000257354
0.000714429
-0.000755234
0.00120266
-0.00211463
0.000116528
0.000892018
-0.000683337
7.04265e-05
-6.6819e-05
-0.00131456
-0.00116305
-0.000904562
0.00121443
-0.000509416
-0.00039609
0.0010001
-0.000472731
-0.000527222
0.000301064
-0.000489677
0.000188614
0.00114415
-0.00129636
0.000221732
-0.000477896
0.000256165
-0.000471333
0.00165866
-0.00118361
-0.00033569
-0.000222959
0.000383167
-0.0019856
-0.00192898
-0.000372335
0.000853443
0.00109417
-0.00194372
0.00037478
0.000116544
-0.000491325
-0.000105172
0.000364715
-0.00238095
0.00178051
0.000609917
0.00112979
-0.00145252
0.000322979
0.00156261
0.000546901
-0.00210545
-0.000465051
0.000962518
0.000574816
-0.00177401
0.00260681
0.00138411
-0.00166137
0.000322711
0.0028647
-0.00124752
-0.0016093
0.00192988
0.000941686
-0.000543317
-0.000801486
-0.000223949
0.00115561
0.000263688
0.000311129
-0.000574805
9.95022e-05
-0.000291672
0.000308005
4.2588e-05
0.000547948
-0.000569768
0.0005536
-0.000491264
-0.000385939
0.00107791
-0.000563719
-0.000514036
-0.000393733
0.000959434
-0.000565584
-0.00150599
0.00142233
0.000200805
1.2012e-06
-5.25466e-06
0.000934468
0.000868852
-0.000231707
-0.000773549
0.000506368
0.000289157
-0.00045231
-0.000297388
2.49524e-05
-9.92345e-06
2.91771e-05
0.00054389
0.000575955
-0.000526792
0.000280595
7.83544e-05
0.0002937
0.000317279
-0.000610974
0.00253503
-0.00153552
-0.00098033
-1.84605e-05
2.86724e-05
-8.59981e-06
0.000846771
0.00045654
-0.00130287
-0.000215687
0.000465978
-0.000250291
9.19948e-05
-3.20515e-05
-3.65961e-05
-6.42108e-05
-0.00131706
-0.000567076
0.00169711
0.000357691
0.000244172
-0.000601854
0.000382127
-0.000279238
0.000542935
-0.000511902
-0.000694834
0.00120711
-0.00115182
0.00163223
-0.000368716
-0.000454494
-0.000175173
0.00102231
-0.000876544
-0.00144483
-0.00115567
0.000789012
0.00036692
-0.00172237
-0.000648758
-0.000249613
0.00030917
-0.0016799
0.00139326
-0.00163755
0.00119945
0.00043913
0.00140725
-0.000858426
-0.000548166
0.0028501
-0.00113498
-0.00169372
2.6225e-06
0.00118287
0.00218426
-0.00276734
0.000596392
-0.00126088
-0.000434696
0.00171801
-0.000468767
0.000185244
0.000283523
0.00209822
-0.000492537
-0.00160511
0.00157674
-0.000509201
-0.00104296
8.38193e-05
-0.000511584
-0.00048702
0.00239736
0.000537864
-0.00043016
0.00191297
0.000356586
-8.017e-05
-0.00141962
0.00101244
0.000408379
0.000659873
0.000938309
0.000444581
-0.000287478
0.000184403
-0.000609499
0.00289742
-0.000949323
-0.00191166
-0.00195236
0.0027693
-0.000803155
-0.000447947
-0.000623691
0.0010718
-7.11035e-05
0.000491429
-0.000404593
-0.000628139
0.00150363
-0.000874678
-0.000275068
-0.000193699
-0.000476703
0.000420874
-0.000231165
-0.000236375
0.00045327
-0.00169107
-0.000678835
0.000434354
2.03426e-05
-2.66062e-05
0.00177148
0.000651419
-0.00241403
0.00172238
0.00114366
0.00183232
0.000404776
-0.00219258
0.000604763
-0.000810227
0.000205553
0.000150845
0.000103849
-0.000164474
0.00099057
0.000907879
-0.000503505
0.00157529
-0.00106914
-1.492e-05
0.00124277
0.000780435
0.000724917
-0.00150493
0.000184927
6.01269e-05
5.24773e-05
-0.000783799
0.00133959
-0.00055514
0.00242889
0.000196553
-0.00261081
-0.000328956
0.00176306
-0.00142806
0.000652029
-0.00249993
-0.00229416
0.00125695
-0.000423347
0.00169612
-0.00124622
0.000368951
-0.000126955
-0.000663312
0.00119619
-0.000532578
-0.000574807
0.00219723
-0.00161381
-0.000875997
-0.000760166
-0.000623108
-0.00166393
0.00104087
-0.00103317
9.37108e-05
0.000147863
-0.000494402
2.90053e-05
0.000345775
0.00149921
0.000405228
-0.00186943
-0.000154727
0.000509627
-0.000349455
0.00133875
0.00194983
0.000514226
-0.0024593
-0.000707047
0.000739425
-3.23021e-05
-0.000596169
7.2574e-05
0.0005236
-0.000316957
-0.00083619
-4.23545e-05
-2.23291e-05
6.50606e-05
-0.000160184
-0.00094744
-0.00261774
0.000679126
-0.000672936
0.000252711
0.00236196
-0.000407438
0.000379291
-0.000646395
0.000282703
-6.02516e-05
-0.00234592
0.000406925
-0.00154081
0.000344467
-0.00214536
0.00182111
0.000267644
0.00205739
-0.000888019
0.000378748
7.96187e-05
2.29563e-05
-6.95232e-05
-0.000448291
0.000276919
-0.000804592
0.000786279
0.000134412
-0.000559148
0.00112867
-0.000129729
-0.00041964
0.000560757
0.000371667
0.000137572
0.000849547
0.000144502
-0.00093803
0.00154608
-0.000723476
-0.00082136
0.00222214
-0.000655818
4.95926e-06
-4.69057e-05
0.000129683
-1.4989e-05
0.000517111
0.000473742
-0.000990624
0.000503447
-0.000667354
0.000163919
-0.00038699
0.00202675
-0.00162267
0.00212438
-0.00175988
-0.000250594
-0.000281034
0.000574904
4.07041e-05
-0.000615597
0.000157207
-0.000671375
0.000514211
-0.00216902
0.000557007
4.35062e-05
-0.000501103
0.00250039
-0.00155823
-0.000922609
0.000286681
0.000290408
-0.00057708
-0.000972855
0.000812997
0.000569449
-0.000505453
0.00309648
-0.00209318
0.00165762
0.000453862
-0.00207202
0.00123743
0.000836402
0.000671229
0.00103063
-0.000484028
-0.00054642
0.001455
-0.000838318
-0.000616138
-0.00147659
0.000849476
-0.000866949
-8.14804e-05
0.000948943
-0.000268562
0.000506371
-0.000237807
0.00197089
-0.000307178
0.00170494
-0.00207471
0.00161309
0.00109437
-0.000278814
-0.000435745
0.00071463
4.75231e-05
-4.61434e-05
2.49107e-05
0.000368823
0.000342819
-0.00120917
0.000190601
-0.000785001
0.00115434
0.00146489
-0.000688254
0.00137078
-0.000682089
0.000370345
-0.000519733
-0.000825737
-0.00152137
0.00234822
0.000462318
0.000806034
-0.00125415
0.000498388
0.000552711
0.00143028
0.000795557
0.00126644
0.00166291
-0.000273083
-0.000385699
0.000658815
0.000439527
0.00014142
-0.000571102
-0.000464204
0.000830092
0.000436501
0.00122942
-0.000753073
-0.00222526
-0.000106706
0.00197773
-0.00185491
0.000668654
-0.000475827
-0.000190517
0.00131683
-0.000471248
-0.000813144
0.000159163
-0.000439043
0.000616665
5.49812e-05
-0.00263508
0.00150415
0.00113837
0.00174746
-0.000812745
0.000873806
0.000778946
-0.00165173
0.00252186
-0.000801001
-0.00170942
-0.000503397
0.000940171
-0.000436742
0.000791754
-0.000444259
-0.00148379
0.00228147
-0.000789012
0.000881877
-0.000277022
0.00166585
-0.00246698
0.000822234
-0.000906978
0.00178187
-0.000760842
0.000345391
-4.19478e-05
0.000889902
-0.00166337
0.000775955
-0.00197867
0.00136141
-0.00209877
0.00160891
0.000540006
-0.00152218
0.000901658
0.000687008
0.00189148
3.67782e-05
-0.00189354
-0.00191591
0.000938387
-0.000728629
0.00187478
-0.0011323
-0.000417605
-0.00157048
0.00201875
-0.00186392
-0.000530007
0.002424
0.000912469
-0.00142726
0.000515575
-7.55355e-05
0.00199778
-0.00192012
-7.64299e-05
0.000489432
-0.000399497
-1.78474e-06
-1.09326e-05
0.000209799
-0.000916757
-0.00140615
0.000718405
2.44163e-05
0.00184608
-0.000884445
-0.00174059
-0.00049697
-0.000414099
0.000911126
0.00115651
0.000776458
-0.00193256
6.85569e-05
2.40411e-05
0.00079959
-8.64301e-05
-0.000396382
-0.000276535
-0.00104219
0.000214655
0.000843467
0.000482011
5.20858e-06
-0.000472061
-0.00206197
0.00151021
0.000555746
-0.000808103
-0.000643078
0.000418876
0.00141693
0.000423402
-0.000405407
-0.000241478
-0.000784739
-0.000352177
-0.000405798
0.000757985
0.00238141
-0.000695629
-0.00171256
0.00083673
0.000877453
-0.000447071
0.000159593
-0.00114782
0.000364679
-0.000213627
0.00164222
0.000382768
-0.00229718
-0.000824916
0.000321551
-0.00142209
0.00227993
-9.04759e-05
0.000388912
-9.6739e-05
0.000528817
-0.000419702
-0.000741484
0.00167776
-0.000882167
-0.000148638
0.000598012
-4.56021e-05
0.000640924
0.000346433
-0.00213546
-0.000328508
0.00211752
-0.0017733
-0.00100428
0.000507392
0.00105141
0.000276407
-0.00131709
0.000534899
-0.00168434
0.000999651
-0.00158228
0.000683837
0.000899465
0.00101536
0.000210021
-0.00121536
-0.00230538
0.000548317
0.000662177
-0.00117372
-0.000618649
0.000775906
-0.00174224
-0.000332722
-0.000720003
-0.000995463
0.00171568
-0.00161324
0.00159504
6.21272e-05
1.54452e-05
0.000464593
-0.000391564
0.000469823
-0.00230606
0.00189926
-0.00198973
-0.00122554
-0.000290438
0.00156329
-0.000301204
-5.49413e-05
0.000478971
0.000502562
-0.00034179
0.000224734
-0.00140371
-0.000623348
0.00140413
-0.000830887
0.000521416
0.000309552
-0.000402907
0.000502261
4.64241e-05
-0.000793548
0.00114837
-0.000354227
0.000234127
-0.000882976
0.000749612
-0.00074712
-2.48041e-06
-0.000550942
-0.000833149
0.00138607
0.000525056
-0.000733516
0.000593238
0.000143105
-0.000194422
-0.000536871
0.00166368
-8.06304e-05
0.00128762
-0.00026252
0.000810122
0.000968558
-0.000603664
-0.000364823
0.000128112
-0.000139621
-0.0018378
-0.000575746
0.00161299
0.00092102
0.000741851
-0.00166029
-0.00173347
0.000435655
0.00130042
-0.000793422
0.000644569
0.000148914
0.000545173
-0.00108141
0.000536617
0.00169482
-0.00107738
-0.000604193
0.000833421
0.00194831
-0.00245948
0.00124947
0.00179181
-0.000858607
-0.000932004
-0.00171395
0.00099907
0.000975114
0.00147361
-0.0015285
0.000484137
0.00104539
-0.00154605
0.00104518
0.000833605
-0.000366146
-0.000467438
-0.000299042
0.000960164
0.000832709
0.000523255
0.000555505
-0.00111792
0.00068288
0.00050245
-0.000232106
-0.00020543
0.000437537
0.000399068
-0.000310022
0.000521283
-0.000549183
0.00119781
-0.000284693
-0.000502317
0.000417128
-0.000228254
0.000443837
0.000542032
-0.00120501
0.000504325
-0.000347525
-0.0010281
0.00170079
-0.000672588
-0.00145325
-0.000574054
0.000451817
-0.00173099
0.00128664
0.0015161
-0.000983577
-0.000520372
0.000397213
0.000539481
-0.000936611
0.000587028
0.000552374
-0.00113927
-0.00221032
0.000544924
0.00168225
-0.0023625
0.00170384
-0.00126755
-0.000368123
0.00150049
-0.000812284
-0.000687467
0.000627162
0.00154474
-0.00216917
-0.000417403
-0.00149082
0.00193947
0.000110451
-3.44053e-05
0.000574625
-0.00248174
-0.00155143
-0.000500334
0.00176889
0.000539125
-0.0022949
-0.000536264
-0.000873237
0.0014115
3.68831e-05
0.00102908
-0.000483549
-0.000568643
-0.000478422
-0.00185009
0.00280569
-0.000926161
-0.00156953
-0.000402756
0.000518557
-0.000196083
-0.00032247
-0.000320442
0.000417142
-6.28454e-05
0.000727832
0.000957017
-0.00168066
-0.00170673
0.00129421
-0.000899045
-0.000682031
0.00107182
-0.000386971
-0.000684444
0.00133248
-0.00175814
0.000427409
0.000388024
-0.000757006
-0.00194156
0.00172146
0.000229213
-0.0015057
-0.000546172
0.000210486
0.000371541
-0.000723708
-0.000273579
-0.000173492
0.00138072
0.000425357
-0.00177079
0.00181025
0.000506584
-0.00228814
0.000883931
0.000820281
0.00067133
-0.00212996
0.00149463
0.000386553
-0.000624894
0.000238351
3.67315e-06
0.000503156
0.00171175
0.000716566
-0.00242691
-0.00163591
0.00116842
0.000616146
-0.000258092
-0.000358047
-0.000394295
0.001566
-0.000497835
0.000416113
8.17222e-05
-0.00119637
0.00146845
-0.000242124
-0.000562065
0.000804399
-8.30539e-05
0.000244682
0.0017464
-0.000555329
-0.00117342
0.000291527
0.000324623
-6.63463e-05
-0.000422569
-0.000663139
0.000623419
3.97534e-05
7.09791e-06
6.46772e-06
-8.811e-06
1.92702e-06
-0.000269275
0.00230765
-0.000630718
-0.000162642
0.00219882
-0.00041736
-0.000350677
-0.000138456
0.000511109
0.000897709
-0.00051011
-0.000387487
0.000529716
-0.00132266
-0.00125619
-0.00112615
-0.00080507
0.000258999
-5.94038e-05
-0.000430726
0.000490133
0.000539773
0.000209863
2.68192e-05
-0.000315897
-5.4541e-05
-0.000254497
0.000309038
-1.27412e-05
-1.41843e-05
3.23757e-05
0.000364975
-0.000926015
-0.00107754
-0.0015769
0.000543413
0.00121894
0.000154537
-0.000553207
0.000404158
-2.17683e-05
2.41975e-05
-0.00101262
-0.000514786
-0.000506913
-0.0014336
0.000436097
0.0002026
-7.88207e-05
-1.04545e-05
0.00025575
-9.84152e-05
-0.00041539
-0.000389651
-0.00133193
-0.000336105
0.00171585
0.00115059
-0.000655176
-0.000495125
-0.0023311
0.000517926
0.000144886
-0.000472654
-3.3155e-05
8.01813e-05
-0.00116191
0.000307026
-0.0007419
0.000620097
0.000121838
-0.00030434
-0.000193495
-0.000611992
-0.000543352
0.000838378
-0.00137272
-0.000854319
0.000587362
0.000267009
-0.000449921
0.000234234
0.000432271
0.000915526
-0.000548277
0.000955888
-0.000407555
-9.12001e-05
0.000220777
0.000711063
-0.000928779
0.00021783
0.002055
-0.00134982
-0.000665757
0.000392707
-0.00195884
0.000454506
0.00249039
-0.00193868
9.36022e-05
0.00201011
-0.00220213
0.00115563
0.000264716
-0.00141912
-0.000179533
-0.000334133
0.000513677
6.95359e-05
-0.00012208
8.57859e-05
-0.000878839
-0.000539563
0.00230682
-0.00141363
-0.000867592
4.10865e-07
-1.48505e-05
-0.000478252
0.000209691
-0.000832214
-0.000985836
0.00181884
-0.002026
0.00135406
0.000691911
0.000556358
0.00047445
0.00106759
0.000517698
0.00113271
-0.00163321
-1.58597e-05
5.39272e-06
-0.00025327
-0.00022498
-0.00221125
0.000937404
0.00239421
0.000415724
-0.000399055
-0.000947126
-0.00105988
0.0003613
-0.000640052
2.59087e-05
-2.249e-05
0.000393917
-0.000918359
0.000524605
5.8246e-05
7.63362e-05
-8.64304e-05
-0.000142416
-0.000813763
0.0010181
0.000948589
0.000459736
0.000336768
0.000198635
-0.000398392
0.000199757
-0.000670248
7.14017e-06
0.00175677
0.000535422
-0.00228971
-0.00038439
0.000907801
0.000314593
-0.0014626
0.000989792
0.00161377
0.000200705
0.000317854
-0.000710886
0.000564494
0.000146416
-0.000613764
-0.00144406
-0.00167483
0.00147702
0.000844016
0.00165844
0.000159688
-6.17332e-05
-0.000137156
0.00176387
-0.00159572
3.02308e-05
3.49186e-05
0.0011064
-0.000507354
-0.000598686
-0.0014177
0.00187478
-0.00045296
0.000469919
0.000363708
0.00136585
-0.000209035
-0.000451723
-0.00167592
0.00212947
-0.000513489
0.00110063
0.00160478
-0.0021715
0.00148
-0.000741337
-0.000737402
-0.00100808
0.000535489
0.000234814
0.00123261
-0.000802631
-0.00122778
0.00203995
3.55225e-05
-5.47831e-06
-0.000926697
0.000844052
6.11408e-05
0.000144895
-2.9872e-05
8.65104e-05
0.000502375
0.00102498
-0.000287001
3.9779e-06
0.000392758
-0.000281498
0.000226957
0.000749814
-0.00142511
0.000676243
-6.45448e-05
-0.000255583
0.000388192
-0.00047638
-0.00041148
0.000162598
-6.70727e-05
-0.000189198
-0.000406966
0.00167803
-0.00120177
0.00190695
-0.00149502
0.000329508
0.000174818
-0.000371643
0.000977064
-0.000605059
-0.000865204
-0.000308044
0.00186451
-0.00202334
0.000175657
-0.000156004
0.000528372
-0.000364977
-0.000432199
-0.0013876
0.00185149
-0.00164242
0.00165692
-5.71314e-06
-0.00103387
0.00107762
-4.25232e-05
0.00164232
0.000441836
-0.00204419
-0.000450544
0.000255316
0.000195228
-0.00167974
0.000268271
0.00141388
0.00166746
0.000602061
-0.00226708
0.000294501
-0.00115842
-0.00198852
0.00119503
-0.000382591
0.00032319
0.00169157
-0.00123249
-1.02241e-05
0.000187803
-0.000125922
0.00138162
-0.000454713
0.000179645
0.00071949
0.000313608
0.00134821
0.000355019
-0.000445495
-0.000741553
0.00245561
-0.0017125
-0.00019735
0.00110472
0.00190114
-0.0003674
-0.00180424
0.00215922
0.000544161
-0.000322551
0.00116721
-0.000842064
0.00127825
-0.00191283
0.00028039
-0.000815543
0.00154728
0.000704508
-0.000590965
-0.00201133
0.000517078
-0.00100092
-0.000447863
0.00119847
0.000462069
-0.00229117
4.49441e-05
0.00135241
-0.000136169
0.000176931
0.000391394
-0.00142341
-0.00192129
0.000351574
-0.000377677
0.00188505
-0.00150138
0.00180272
-0.00116831
-0.000621468
0.000324253
-0.000477294
0.000153041
-6.9994e-05
0.000108912
-3.75783e-05
0.00170034
-0.00244036
0.000110256
-0.00177725
0.00240849
-0.00168474
-0.000718943
0.00157457
-0.00120431
-0.000367201
-0.000612796
-9.80631e-05
-6.61329e-05
0.000175014
0.00107505
-0.000458555
-0.000616207
-0.000141801
-0.000600069
-5.30199e-05
4.04337e-05
1.26328e-05
-0.00222757
0.00159287
0.000671216
0.00139088
3.90154e-05
-0.000218824
-0.00225254
0.00116564
0.00113027
0.000138121
0.00208756
-0.00219786
0.000730012
-0.00219054
0.00146678
0.00127229
-0.000916764
-0.00024498
0.000911159
0.00106483
0.000297293
-0.00131728
-0.000737157
0.000280949
0.00045623
-0.00142995
0.000741235
-0.000321039
0.00124418
-0.000451559
0.000805096
0.0017145
-0.00083
0.000588087
-0.00187563
0.000652525
-0.000386297
0.000464482
-4.92978e-05
0.000625321
-0.000996587
0.000718247
0.000520005
-0.00123779
0.000719822
-0.00116692
-0.000400963
-0.00101749
0.00144856
-0.00122782
-0.000386544
0.00129359
-0.00140514
0.000398966
-0.00217073
0.000693522
-0.000436018
-0.0012561
0.00171417
0.000715435
-0.00127395
-0.000317853
0.00199899
-0.000362827
-0.00131629
0.00171851
-0.00097376
6.41827e-05
-0.00088449
0.00165324
0.000476436
-0.00212388
0.00176359
-0.00060677
-0.00118505
-0.000884972
0.000240722
-0.0014332
0.00159122
0.000365181
0.00218338
0.000761043
-0.000325542
-0.000435452
-0.0011818
0.00174135
-0.000335824
0.00201765
-0.00167029
-7.7022e-05
9.05068e-05
9.01061e-05
0.000105423
-0.000157776
-0.0018448
-0.00030074
0.00216397
-0.000467995
-0.00145067
0.00192413
0.00172399
-0.000389992
0.000993908
-0.00136557
0.00014898
-0.000506095
0.000360148
0.0018698
-0.0023333
0.000486368
0.000852342
-0.00192813
0.00162154
0.000794398
-0.00134347
0.0004095
-7.29592e-05
0.000862186
-0.000566187
0.000373707
0.000379442
-0.000753117
0.00214129
-0.000482654
1.84903e-05
-6.87297e-05
0.000454856
-0.000382278
0.00113199
-0.00200099
0.000876472
-0.000292652
0.00190323
-0.00143626
0.00155404
-0.00225674
0.000706948
0.00261399
-0.00187107
-0.000727634
0.000457699
0.00121128
-0.00163522
-0.000686387
-0.00150333
-0.000527194
0.000154059
0.000373139
0.00100682
0.000552382
-0.00155708
0.00216357
-0.000404406
-0.00103546
0.00181228
-0.00104603
-0.00115928
0.00117593
-0.000455339
2.60409e-06
-2.02105e-05
0.00142755
0.000527228
-0.001942
-0.000660219
0.00219813
-0.00153485
1.37088e-05
1.58303e-05
-0.000774499
0.000548068
-0.00171029
0.00116654
0.00220793
-0.000649706
0.000381442
-0.000955101
-0.00252652
0.00189191
0.000639722
-0.000799283
-0.000112941
0.00094078
-0.000196858
3.96227e-05
0.000195164
0.000722862
0.000732619
0.00142463
0.00189681
0.000416889
-0.00229011
0.00218597
-0.00161105
-0.000565634
0.00174592
0.000490541
-0.00220743
0.00105879
-0.000118535
-0.000658104
-0.00212035
0.00104132
0.00108014
-0.00173144
0.00220921
0.000318384
-0.000419476
0.000101092
-0.000197522
-0.000501785
-0.00171678
0.00222248
0.000530861
0.000918991
-0.00163878
0.000357234
0.00248432
-0.00196522
0.00096329
7.6406e-05
-0.000981047
0.000495347
0.00106354
-0.00154235
-0.00267635
0.00109066
0.00161672
-0.00195946
0.00154336
0.000425693
0.000316316
0.00140009
-0.000318684
-0.00142126
0.00177923
-0.00151738
0.00144343
0.00230183
0.000666768
-0.000287224
-0.000379523
-0.00157822
-0.00057995
-0.00136747
0.000907196
0.000461507
0.000807488
-0.00137417
0.00056727
-0.000444672
-0.00128316
0.00175965
0.00070241
0.00117629
-0.000502917
0.00164182
0.000615044
-0.00188811
0.0012903
-0.00173673
0.000834154
0.000905487
0.000563389
-0.000412164
-0.000500537
0.000217314
0.000588623
0.000518085
-0.000125767
0.000432489
-0.000303728
0.00182524
-0.0013864
0.00153005
-0.00200086
-0.000139085
-0.00198389
-0.000527705
0.00241993
-0.000830327
0.000996658
7.98254e-05
-0.00101842
-0.00175056
-0.00142024
-0.000490863
-0.000854585
0.000301926
0.000553919
-0.000745688
0.002479
-0.00172398
0.00218658
-0.001515
-0.000632329
0.000513176
-0.000678251
0.00184796
0.00120307
-0.000145873
-0.000833497
0.000420334
-0.00165036
0.00243235
-0.000772561
0.000884238
-0.000306501
-0.00104322
0.00139249
-0.0010082
0.000535212
-0.000136669
-0.000390053
0.00187248
-0.00237824
0.000254812
0.000251559
-3.74269e-06
-0.000155882
0.00147509
0.000375679
-0.000892044
0.000415833
-0.000234122
0.000155691
0.000386841
-0.00054262
-0.00186832
0.00241488
0.000393085
0.000368001
0.000554652
0.00091313
-0.0014522
0.00274925
-0.00210508
-0.000627403
0.00228085
0.000270405
-0.0019947
0.00181771
0.000240308
0.000444057
0.000453744
-0.00118259
-0.000721052
0.00192162
0.000263044
-0.000495149
-0.00156281
0.00222213
-0.000693652
0.00131188
-0.000618101
0.00150198
0.000334714
-0.000431871
0.000107554
0.00026321
0.000356509
-0.000289824
0.000116555
1.80132e-05
-8.66963e-05
-0.000343384
-0.000202784
-0.00232551
0.000671557
0.00166481
-0.000150084
0.00120357
-0.000995801
-0.00190619
-0.000561581
0.00247117
0.00137542
0.00158145
-0.00106903
0.000564801
0.000660385
-0.00213537
0.000529341
-0.000700577
-0.00101022
0.000638553
-0.00096177
0.000323405
0.000811984
0.000965913
-0.00177709
-0.000445153
0.000168621
0.000276532
-0.00062144
0.00230464
-0.00166907
0.000590448
0.00191467
0.000106382
-0.00196864
-0.000170505
0.000421491
-0.000250986
-0.000259687
-0.00202329
0.00187637
0.000161355
-0.000548117
0.000420045
-0.00181183
0.00134241
0.00048828
-0.000144832
-0.000394441
0.000431573
-0.0010238
0.000609765
0.000453188
0.00095163
-0.0013839
0.00222647
-0.00160602
-0.000579057
0.000886974
-0.00144105
0.000556072
4.73321e-05
-0.00040527
-0.00162535
-0.00068896
-0.000976464
0.000597743
0.000378948
-0.000838822
0.00036714
0.000471698
-0.000345244
0.000718977
-0.000448422
-0.000443438
0.00180529
-0.000287364
0.000553757
0.000250384
0.00173587
-0.00193327
-0.000763206
0.000437713
-0.00151526
0.00214518
-0.000186571
-0.000810354
0.000255445
0.000570948
0.00110253
-0.000616531
0.000284625
0.000458971
0.00169404
0.000643918
-0.00231389
-0.000600972
-0.000194201
0.000454496
-0.000593529
0.00149553
-0.00194106
0.000501727
0.000752221
0.000728953
-0.00115663
0.00106446
-0.000278581
-0.000136175
0.000414756
0.000459667
0.0012989
0.000338541
-0.00158867
-0.000356459
-0.000170731
0.000109919
0.00185506
0.00151264
-0.00144898
-0.00195095
0.000509289
-0.000492193
0.000238924
0.00160875
-0.000647598
-5.53344e-05
1.94976e-05
5.24761e-05
-0.00118324
0.00145205
-0.0017915
0.000371603
0.000431073
-0.000708409
0.000275906
0.000432523
0.00159813
-0.00183256
0.000931684
0.000901353
0.00171734
-0.000233367
0.00118213
0.00102949
-0.00177832
0.000613819
0.000726414
-0.00132225
0.00185427
-0.000757351
-0.00188675
-0.000634
-0.00159484
-0.000341157
-0.000251853
-0.000198067
-0.00188164
-4.74118e-05
0.00194078
8.38119e-05
0.000204998
0.000969328
0.00179334
-0.000154865
-0.00159276
0.0017968
-0.00147268
0.000866048
-0.000481098
-0.000384824
0.00130047
-0.000705241
0.000219952
-0.00163358
-0.000169211
-0.000285501
0.000194397
-0.000472977
-0.00248567
0.000605046
0.000379289
0.000486873
0.0009046
-0.00139271
0.000447125
-0.000276595
-0.000170529
0.000701548
-0.00121825
-0.000624512
0.000993691
-0.000369121
0.000642709
0.00137468
-0.000482456
0.000969524
0.00074821
-0.00170978
-2.72491e-05
-0.000970879
0.000998252
0.000612098
-0.000258353
-0.000353732
-0.000131233
0.000535835
-0.000397782
-0.00228755
-8.02144e-05
0.000427639
0.00130915
-0.00159246
0.00059368
0.000564916
-0.00228025
-0.00176509
0.000600008
0.000742555
-0.00123861
0.000496352
-0.000365895
0.000306862
5.90333e-05
0.00133348
0.000518472
-0.000231015
0.000465249
-5.47672e-06
1.69454e-05
0.00062478
-8.68868e-05
-0.000523032
-0.000748394
-0.000331398
-0.000252081
0.000583488
-0.0016548
-0.000294778
-1.90171e-05
1.17345e-05
-0.00113514
-0.000512084
0.00185048
-0.00220696
0.000385628
0.00152045
-0.00146898
0.00220544
-0.00242388
0.00166283
0.000767257
-0.00192708
-0.000713383
-0.00233399
0.000418871
-0.000543375
-0.000962165
0.0012395
-0.000269622
-0.0021726
-0.00203154
0.000161074
-0.000195783
0.000470951
-0.000275168
-9.06633e-05
0.00197071
-0.0021152
0.000549802
-0.000527614
-1.14368e-05
0.000543261
-0.000238118
-0.00057957
0.000106954
0.000530294
-0.000532745
0.00204689
0.00194547
-0.00206837
0.000136128
-9.26748e-05
0.00181668
-0.000371496
0.000534649
-0.000445441
0.000651439
0.00116275
-0.000370371
0.00227643
-0.00188615
0.00116112
-0.000639073
-0.00052164
-0.000289772
0.00193468
-2.90402e-08
-5.26196e-05
0.000875258
-0.00110708
0.000232111
-0.000512461
-0.000318339
-0.00107742
0.000619134
-0.00040288
0.000950605
-0.00054762
-0.00119687
0.000876841
-0.000554872
-0.000449339
-0.000360161
0.000474768
-0.000114605
-5.3123e-05
0.00021453
0.000556661
0.000463766
0.000174111
-0.00134562
0.000534083
-0.000691022