/*--------------------------------*- C++ -*----------------------------------*\
| =========                 |                                                 |
| \\      /  F ield         | OpenFOAM: The Open Source CFD Toolbox           |
|  \\    /   O peration     | Version:  v2012                                 |
|   \\  /    A nd           | Website:  www.openfoam.com                      |
|    \\/     M anipulation  |                                                 |
\*---------------------------------------------------------------------------*/
FoamFile
{
    version     2.0;
    format      ascii;
    class       volScalarField;
    location    "700";
    object      ddt0(k);
}
// * * * * * * * * * * * * * * * * * * * * * * * * * * * * * * * * * * * * * //

dimensions      [0 2 -3 0 0 0 0];


internalField   nonuniform List<scalar> 
13851
(
-3.53514e-07
1.01488e-07
1.05108e-07
-4.35992e-05
6.95165e-08
1.08897e-07
9.04451e-08
1.34623e-07
0.000741901
5.29871e-09
2.4877e-08
3.29965e-08
2.99317e-08
0.000219708
1.97365e-07
4.90061e-07
8.59071e-06
6.81271e-08
5.40802e-06
-7.37858e-07
1.64957e-07
3.53011e-08
-0.00103588
1.29216e-08
0.00213262
4.90925e-07
1.82035e-05
0.00171449
-0.000533099
7.29098e-08
2.87808e-05
9.00322e-08
3.05702e-07
-0.000359317
7.63328e-08
-0.000449938
5.64108e-09
-0.00118825
-0.000732646
4.2111e-08
-0.000435384
-0.000863609
5.86596e-05
2.40612e-06
-0.000745923
6.08628e-08
1.31369e-07
7.50894e-08
4.4197e-08
2.264e-08
-0.000106631
2.07971e-08
2.92853e-07
1.76211e-07
6.34971e-05
4.43302e-08
5.56966e-08
-0.000527652
4.72412e-05
4.26965e-05
3.42302e-08
6.08933e-06
6.27155e-09
4.84693e-08
-2.05673e-06
-2.32089e-06
-2.57163e-05
-1.9663e-06
2.77705e-08
-0.000163567
9.09984e-05
1.17775e-07
5.09e-08
5.33626e-05
1.94131e-07
1.73651e-08
-1.10955e-06
8.63535e-08
0.00123836
5.22959e-08
2.78753e-08
-1.26516e-05
6.38343e-08
0.000177049
0.000123397
6.19795e-05
3.58916e-08
0.000473763
1.44102e-08
-2.33337e-05
1.51658e-08
9.1145e-08
-7.84691e-06
4.30635e-05
-8.52663e-05
4.64784e-06
6.357e-08
-6.21346e-07
-0.000345018
-2.21394e-08
-8.55895e-07
2.49903e-07
-8.82582e-07
4.36769e-08
5.38865e-08
1.27307e-07
5.58919e-08
9.99114e-05
9.18586e-08
6.93292e-08
4.30424e-08
5.71238e-08
2.27063e-07
5.9585e-08
1.36168e-06
1.636e-07
8.49561e-08
1.34427e-07
-5.43394e-05
-0.000215509
3.65145e-06
6.75355e-08
3.14012e-08
0.000318935
1.5271e-06
-2.16236e-06
6.56512e-08
-1.74008e-08
-0.000288423
1.78322e-07
3.24314e-08
1.0522e-07
2.31282e-05
-0.00023433
7.06556e-08
-0.000255472
-2.6066e-06
8.93256e-05
2.19665e-07
2.26652e-07
-1.88348e-06
2.63878e-08
1.32536e-08
-2.48538e-06
0.00614445
1.16373e-08
8.52273e-08
1.76806e-05
-0.000114834
8.79036e-08
-7.98218e-07
-4.10066e-07
7.10493e-08
-3.66818e-06
2.62094e-08
1.1347e-08
3.41856e-08
-0.000638608
2.13315e-07
8.69712e-08
1.7928e-08
-0.000508679
1.3265e-07
7.6219e-08
0.000223283
0.00101278
0.00131977
-9.78089e-05
-1.2184e-08
0.000847505
3.36714e-08
9.08209e-08
7.37668e-08
5.60445e-08
-0.000105972
1.65405e-05
7.08982e-07
9.08387e-08
1.96076e-07
8.30798e-07
2.9062e-06
-3.01885e-07
2.44606e-08
1.96297e-07
7.02679e-06
-0.000135164
3.29831e-07
-4.07624e-09
3.0675e-08
6.55512e-08
0.00661255
2.10512e-07
0.000278141
1.11009e-07
1.29405e-08
-2.63716e-07
6.02722e-07
8.45201e-08
6.51633e-08
-1.10469e-06
1.17777e-05
0.000155617
-0.000360115
2.00042e-07
0.00101687
4.92249e-05
4.42157e-09
2.77571e-07
0.00100033
9.81133e-08
8.00518e-07
3.3511e-08
9.72847e-06
8.53591e-09
1.2107e-07
2.03096e-08
2.26078e-08
-1.81427e-06
8.17455e-08
7.2575e-06
8.81353e-08
-1.03999e-06
4.01611e-05
-0.00019059
2.78475e-08
2.82991e-07
9.58047e-09
-3.79357e-06
2.98568e-08
1.09764e-07
-0.00032532
1.60923e-08
1.00468e-07
3.74996e-09
-0.000456903
7.33822e-08
-0.0211432
-0.000330468
3.55422e-06
1.04794e-08
0.000405573
0.000165582
-0.000758892
7.04272e-07
1.44094e-07
3.15278e-07
-3.31702e-06
1.96699e-07
6.61339e-06
-1.88182e-07
0.000363803
-4.16127e-07
1.21881e-07
1.1907e-07
-4.89542e-07
-0.000304279
0.00032247
7.39311e-08
-3.59165e-06
1.11591e-08
-1.66184e-06
1.21158e-05
1.21618e-07
1.06652e-07
-4.07206e-07
5.10944e-08
-1.55917e-06
4.59942e-07
0.00165015
1.94791e-08
1.92091e-08
6.23762e-08
0.00188567
-9.33206e-05
1.68024e-07
6.90961e-08
-1.89302e-06
-1.22274e-06
8.75345e-07
1.07467e-07
0.00173743
-0.000320498
1.19008e-07
1.76101e-07
0.00246018
5.69658e-08
3.44334e-08
7.69303e-07
-8.80624e-09
7.21324e-08
1.6873e-08
3.27195e-08
9.34484e-08
1.52957e-07
3.40853e-08
0.000961004
1.67716e-07
4.89331e-08
-0.000213471
0.000349978
2.63194e-08
-8.94341e-07
-0.000252167
2.42291e-08
2.14825e-08
1.40764e-07
5.8927e-05
0.000431102
2.67501e-08
7.34961e-08
0.00111098
3.27853e-08
1.88257e-08
-0.000248678
0.00162671
8.64124e-08
0.00234688
-0.000132106
0.000157156
-2.42155e-07
-1.52983e-06
-0.000364773
0.000173793
-0.000540598
6.65964e-08
5.82988e-05
0.000160932
2.58029e-05
-3.01359e-06
2.47849e-09
9.1116e-08
3.11657e-09
0.000501084
2.64386e-06
1.10108e-07
1.38176e-07
7.07521e-08
0.000127916
-1.19995e-06
5.68289e-08
-0.000122244
9.22835e-10
1.0333e-07
8.85028e-08
-0.000107246
-4.06009e-06
7.13287e-08
1.73676e-08
9.81409e-08
8.55676e-05
3.1007e-08
-2.53892e-06
1.20515e-07
1.31487e-07
-1.85535e-08
1.24553e-08
4.96561e-08
8.91154e-08
1.13226e-06
-7.18408e-07
0.00017611
-0.000112788
1.18708e-08
-0.000424895
2.06659e-06
8.26077e-08
0.00254056
-1.65532e-07
-0.00035312
6.97882e-08
6.27158e-07
-2.63224e-05
-0.00124269
-1.15276e-07
0.000504588
6.00141e-08
3.48306e-05
4.81892e-05
1.311e-07
0.000298234
1.33493e-07
-9.86728e-05
1.75595e-07
2.78322e-07
-4.76098e-07
1.42779e-06
1.21336e-08
1.17313e-07
6.6264e-08
1.94825e-07
6.34522e-08
1.63936e-07
0.000845373
4.89157e-08
2.65553e-07
-3.54712e-05
9.07053e-08
0.00155734
3.08626e-07
0.000304865
1.00046e-07
4.53208e-07
-0.000165746
2.44552e-06
9.76258e-08
0.000283571
8.61603e-05
0.00022503
5.27678e-08
3.43125e-07
1.28526e-07
6.17711e-07
6.23326e-08
5.24065e-05
0.00230107
-0.00367033
9.82552e-08
-5.31637e-07
-4.14576e-05
-8.20262e-05
9.20059e-08
7.3509e-05
1.97326e-06
-0.000403052
-1.11194e-08
-0.0041682
2.68476e-08
5.76273e-08
8.47816e-05
-5.10218e-05
6.05378e-09
1.03875e-07
2.56519e-07
8.7467e-08
0.00342529
3.36232e-08
-1.25977e-07
1.15181e-07
6.08861e-08
6.89153e-09
-0.0030132
5.0558e-08
5.09935e-09
0.000369439
0.00143804
2.69541e-08
-6.98792e-07
6.42399e-11
3.80507e-08
9.23139e-08
-4.82517e-07
3.09002e-07
5.47595e-08
8.24894e-08
2.2159e-06
9.76504e-08
7.01531e-05
3.58334e-08
1.33799e-07
-0.000576583
3.25566e-08
1.31792e-07
3.2229e-08
1.14357e-07
8.37062e-08
5.85964e-06
-0.00154229
1.44764e-07
4.39083e-06
9.54131e-08
2.69429e-08
0.000586939
-5.39128e-06
1.55239e-07
5.3563e-08
0.000298749
-7.91957e-08
-0.0905422
4.4281e-08
1.1028e-07
-4.00768e-07
2.05873e-07
5.72767e-05
-5.61992e-05
-0.0039417
1.02762e-08
-4.30632e-07
5.97221e-08
-0.00034387
3.06851e-07
6.67273e-07
1.28689e-07
1.75124e-08
8.75237e-08
4.745e-08
6.56632e-08
-7.11561e-05
0.000629281
2.99551e-05
1.96352e-05
-0.000842514
-0.00016889
4.72088e-06
-1.12877e-09
1.15933e-08
0.00421563
1.08538e-09
5.85957e-08
3.95141e-08
-1.09186e-05
1.04436e-07
2.4667e-08
2.02705e-08
7.77537e-08
8.19671e-10
0.00248509
6.34127e-08
-0.000184184
-0.000285135
5.44987e-08
9.15627e-08
2.00002e-06
0.00237899
7.11804e-08
-2.94884e-05
0.000998481
1.0316e-07
-0.00015997
5.27299e-06
-1.13049e-06
1.11802e-08
0.00124787
-0.000224286
1.00007e-07
-2.15117e-06
2.86975e-08
6.13243e-08
-0.00383639
1.40923e-05
1.12307e-07
3.0758e-07
1.01306e-09
4.0301e-07
-0.000328293
-0.000545062
8.7744e-08
-7.88335e-05
6.10296e-08
2.70896e-08
9.79772e-08
1.32336e-07
9.11348e-08
1.63228e-08
-0.000238826
1.22151e-06
-0.000207653
1.0097e-07
1.26469e-08
0.00201358
2.05706e-08
-2.63836e-07
1.32529e-07
1.93766e-07
1.39641e-07
-0.000676584
-0.000349391
1.13236e-07
7.62386e-05
8.5496e-08
5.81403e-08
-0.000970669
3.13623e-05
3.48023e-08
5.29209e-08
2.11405e-07
-0.000286002
1.0621e-05
3.88372e-07
-0.00222883
1.35034e-07
1.70606e-07
-0.000433008
0.00217774
-1.25242e-06
1.45888e-05
3.59855e-06
-0.000802576
5.00278e-08
4.60491e-05
-0.00190485
2.63636e-08
-5.63447e-06
-0.00173496
1.26233e-07
2.20295e-07
5.09284e-08
-1.07287e-06
2.94676e-08
0.00329359
5.19615e-08
4.223e-08
6.15022e-09
7.18611e-08
3.99497e-08
4.00664e-06
4.36603e-08
3.65583e-06
1.08628e-08
5.99663e-07
4.97431e-08
1.38222e-09
5.98758e-08
-7.85298e-05
5.31332e-08
-0.000182277
1.07177e-07
7.8263e-08
8.09468e-08
1.1411e-07
8.08231e-08
1.07185e-07
1.05671e-07
-7.61081e-08
1.21318e-05
1.19779e-08
9.25524e-05
9.78855e-09
8.82086e-07
6.74809e-05
0.000683089
2.2522e-06
0.00376336
2.02437e-07
-7.43277e-08
-0.00157321
8.44758e-08
0.00164524
1.40347e-08
1.31631e-07
-1.19295e-05
0.00118227
8.76354e-08
8.932e-08
8.41331e-08
-0.000303441
-3.8774e-05
2.48836e-08
-7.44545e-07
0.00433488
8.96551e-09
9.49884e-09
5.33118e-07
8.18321e-05
0.0029359
2.05783e-08
-3.74128e-08
9.66071e-08
4.19346e-09
-7.04369e-05
-4.27769e-07
-1.82617e-07
9.775e-08
4.73386e-07
-7.4475e-07
4.53009e-07
1.28403e-08
1.30727e-08
2.77369e-07
-1.61308e-08
1.59869e-07
1.43323e-07
9.1069e-08
-7.2802e-08
0.00203782
6.74059e-06
0.000413193
-0.000656393
-3.38772e-07
0.000339827
1.24954e-08
-0.00381338
-1.13974e-06
6.16409e-08
1.67606e-07
2.85434e-06
5.45165e-08
5.15798e-08
5.21598e-08
6.84966e-07
0.00049179
1.34608e-07
-0.00039648
8.28695e-08
0.0029189
-8.30706e-07
-0.000217199
9.06507e-08
1.0102e-07
1.03821e-07
-0.00020073
-2.78757e-07
9.18508e-08
-6.3506e-05
6.19002e-08
0.000924702
8.44005e-07
3.94235e-06
1.21215e-07
-7.18474e-05
2.79232e-08
7.95869e-09
5.38247e-09
4.98196e-09
-0.000857981
9.17285e-08
-7.66345e-05
0.00183622
9.9901e-08
-0.000512292
-0.000354596
3.19826e-06
-3.57898e-06
4.15554e-07
5.21527e-09
1.80491e-08
8.64454e-08
7.83662e-08
4.7083e-08
8.11495e-08
9.158e-07
-6.70864e-07
0.00133154
1.66562e-08
0.000811986
-5.83823e-11
-6.10838e-05
6.19521e-08
5.1178e-09
3.26964e-09
0.000852354
1.0826e-07
0.000481065
-0.00162782
2.35082e-07
7.26455e-08
1.00179e-07
-0.000319563
9.14819e-09
1.0408e-07
-1.8703e-06
9.7045e-09
2.72459e-08
7.9403e-08
3.0342e-07
0.000427635
1.04008e-07
1.25545e-07
2.68957e-06
-0.000471556
8.03404e-08
-7.92763e-08
-0.0010943
8.95836e-08
-0.000920882
3.06972e-08
9.61843e-08
0.00245077
5.57711e-07
1.31445e-06
-2.27017e-08
8.03186e-08
2.15979e-08
-6.08094e-11
8.90686e-08
5.57118e-08
1.29307e-08
1.42913e-07
-2.16682e-06
6.4221e-08
3.08977e-06
-0.00119509
0.00150277
6.14748e-08
-0.000288819
2.47727e-07
6.03193e-09
-3.73666e-07
7.29041e-08
1.18548e-07
4.76578e-05
1.11163e-05
0.00183724
-0.00140568
2.51267e-08
2.7872e-08
-6.00908e-08
1.40114e-08
5.9579e-08
-0.000508043
-1.65833e-06
0.000154966
1.09612e-06
5.59365e-07
7.87353e-09
7.41676e-08
0.0015722
-2.38673e-07
1.01111e-07
-3.31237e-09
1.45787e-06
-1.13963e-06
-0.000322527
2.39774e-08
3.13786e-08
0.000431456
1.21157e-08
1.35027e-07
8.65603e-08
7.23255e-05
1.31245e-07
6.75988e-05
6.49024e-09
2.42875e-06
1.52685e-07
1.67889e-07
1.24067e-07
4.87318e-08
1.02436e-07
6.01727e-08
-7.42074e-05
2.05859e-08
0.000405405
6.76199e-08
0.00370232
0.000967416
1.19032e-07
8.45412e-08
-8.86488e-06
-4.01038e-05
1.14328e-07
5.58473e-07
1.92583e-08
0.000375813
6.26556e-08
2.10184e-06
2.24782e-08
6.02911e-08
4.51536e-05
1.42339e-07
3.15443e-08
1.7976e-07
-0.000568645
5.81803e-05
0.00376031
7.40988e-08
0.000424623
1.76439e-08
6.28779e-08
2.98602e-08
1.36926e-07
1.10292e-08
0.00316638
-0.000841452
8.36064e-08
4.43438e-08
1.05285e-07
5.63498e-08
-6.36408e-06
-2.2378e-07
0.000226998
-0.000463966
1.01298e-07
2.84425e-07
2.52471e-08
1.5879e-07
8.06124e-07
8.64217e-08
2.14627e-08
-0.000121697
-4.7973e-05
9.00237e-08
8.49467e-06
3.16168e-07
1.36642e-08
7.21314e-08
5.77236e-07
-8.78417e-05
1.50453e-07
-0.000247633
-2.14332e-07
1.99511e-08
0.000365318
-0.00017128
0.000398418
0.00421149
-0.00448636
9.54436e-09
7.52085e-07
6.07593e-09
0.000646428
5.4729e-08
1.08123e-07
0.00342082
1.56379e-08
7.56275e-08
3.30814e-08
1.39642e-08
5.41134e-05
2.35421e-06
6.69767e-08
7.75608e-08
0.000103423
3.28158e-08
1.71682e-05
1.52847e-08
4.57731e-07
6.88021e-05
4.10232e-08
6.87866e-06
6.11804e-08
1.17952e-07
1.17306e-05
1.4494e-08
-1.45536e-05
4.76809e-07
-0.000554847
7.97791e-08
0.000529168
1.27769e-07
0.00032945
-4.90244e-05
0.00047401
2.49792e-07
4.21929e-08
2.66093e-08
7.76463e-09
2.53643e-07
1.13683e-08
-0.000106581
2.71625e-08
1.12584e-10
1.58414e-07
1.17071e-08
7.1265e-08
1.21021e-07
6.29592e-08
9.25972e-08
4.06047e-08
-0.000358961
-5.96739e-05
1.32923e-07
7.99966e-08
0.00374433
2.47261e-08
9.93353e-05
8.75373e-08
2.28731e-07
1.79596e-08
3.91531e-08
2.96235e-09
2.6515e-08
7.16963e-08
-9.95361e-07
1.11403e-08
3.3661e-06
7.81726e-08
-4.67088e-06
0.00040907
-4.00285e-06
-9.01373e-07
7.95595e-08
-0.000449739
-1.7954e-06
1.54327e-08
5.69822e-08
2.79316e-08
0.000138375
1.31827e-08
2.27551e-07
0.00215613
-5.98626e-05
9.63388e-08
5.40981e-08
-0.000547232
0.00451794
-0.00440834
6.14445e-08
7.78981e-08
9.07468e-08
2.52778e-08
3.47388e-08
-0.000175758
1.57199e-07
1.22041e-08
9.0572e-07
3.95494e-06
8.56176e-08
-0.000447672
7.48615e-05
-4.55639e-07
6.73208e-08
-0.000958148
1.26244e-07
4.34825e-08
0.00024106
-3.4469e-09
7.54295e-08
6.27739e-08
1.78327e-07
2.61352e-07
0.0013626
-4.95485e-05
2.66968e-07
0.00144525
1.90688e-07
2.43021e-08
3.06055e-06
4.86135e-08
0.00250759
8.64477e-08
5.64527e-08
1.12502e-08
5.67601e-08
0.00157875
0.000457368
8.60572e-06
-0.000345774
0.000815785
-1.37672e-08
5.42522e-08
7.74491e-08
-1.32944e-05
8.76597e-08
1.50141e-07
1.6913e-08
0.00374416
-2.56741e-05
1.34728e-07
1.99972e-07
1.2592e-07
-1.38677e-06
5.03772e-05
1.04466e-07
9.3021e-08
8.74173e-08
-0.00364787
1.43165e-07
-0.000416175
1.33716e-08
3.12666e-08
7.69564e-08
6.40866e-08
2.07026e-08
1.05503e-06
-0.00102426
0.000620392
3.35817e-07
2.36897e-08
-0.000237396
8.25058e-08
-0.00480476
-0.000256466
2.07769e-08
-7.2753e-05
-0.000788473
-0.000214699
3.58565e-07
1.50928e-07
0.000618743
1.34253e-07
-2.67577e-09
-1.85069e-07
4.26479e-06
4.37295e-08
3.53082e-05
2.36504e-08
0.000912754
-0.00360647
8.74929e-08
9.0572e-09
2.09482e-08
4.95412e-06
1.48513e-07
3.93397e-08
1.3455e-07
8.99612e-09
1.12974e-07
1.3054e-05
1.05367e-08
-0.000105379
0.000460292
2.70444e-08
1.46798e-07
2.61766e-07
2.65806e-08
0.000195495
0.00036785
-0.000413028
0.000516499
2.9097e-08
3.09964e-08
6.96373e-08
3.1521e-08
-6.84128e-06
1.54676e-07
3.57329e-09
3.99853e-07
-1.17286e-08
0.00179486
1.59581e-07
-4.45076e-05
8.49913e-09
2.79649e-08
1.42128e-06
-2.56477e-07
6.39364e-09
4.91296e-08
0.00027665
0.000112048
0.000697312
-0.000205844
0.00111631
0.00113421
0.00031276
4.41418e-08
1.62122e-08
8.06669e-08
9.43213e-06
3.04125e-07
6.23115e-08
6.59311e-06
8.1031e-08
1.06205e-07
1.6612e-09
2.53255e-06
8.54799e-08
1.22262e-07
1.29652e-08
0.00340117
2.0786e-08
7.49428e-08
2.05917e-08
5.81654e-08
4.06757e-08
-5.59405e-08
-4.0015e-06
-1.47225e-08
0.00530218
1.16337e-08
6.47935e-08
-0.000150332
0.000770481
0.000477964
0.00344415
-9.41898e-08
0.00225234
8.4529e-08
2.78844e-07
2.61261e-08
1.0293e-08
9.21082e-08
5.9037e-05
9.38025e-08
-2.9613e-07
0.00766192
8.56988e-08
4.54981e-08
-3.56356e-09
1.21207e-06
4.03832e-09
0.0032066
8.25552e-08
-3.64702e-06
1.44134e-09
8.14243e-08
1.16055e-07
-1.60486e-06
3.11817e-08
0.000358063
9.60749e-05
2.94495e-06
-0.000141298
2.34375e-08
-0.000103725
0.000158727
9.4796e-09
-0.00436607
2.98903e-08
-1.25042e-06
3.08796e-08
7.62152e-08
5.89193e-08
-3.48911e-09
2.1422e-08
-6.59049e-08
1.64644e-07
5.53966e-08
-1.67029e-09
-3.84024e-06
8.84482e-08
-0.00011153
4.23898e-09
1.32117e-07
1.92356e-07
3.97712e-05
-0.00111258
1.57571e-08
-2.56317e-07
8.93196e-08
1.63256e-07
8.39855e-08
0.00249221
2.3354e-07
6.10397e-09
3.4002e-07
3.04775e-06
5.30094e-07
0.000365187
-4.31488e-08
7.55874e-07
4.01085e-07
3.26238e-07
2.09533e-08
6.36493e-08
0.000314905
-4.38383e-05
6.04579e-08
4.40487e-08
4.23983e-05
7.41378e-08
1.3108e-07
4.67826e-08
-1.14257e-07
-0.00136495
1.00486e-07
-7.45033e-05
1.11048e-07
2.97036e-08
-1.89495e-07
1.0434e-07
-1.3738e-07
0.000520153
1.42349e-07
0.00100616
6.60031e-08
1.00755e-08
-2.12975e-06
9.9487e-09
-2.40194e-09
1.33491e-07
1.27966e-07
1.22194e-07
2.48049e-07
4.68652e-08
2.14085e-07
6.47094e-08
2.79524e-08
1.06924e-08
9.65486e-09
0.00286616
8.36761e-08
1.88288e-08
-1.15034e-05
7.63281e-08
4.73901e-08
0.00158162
-1.32228e-08
-6.29854e-06
9.58268e-08
0.00225522
-6.46586e-06
8.78893e-07
0.00135191
2.93125e-08
-1.59853e-05
7.68081e-08
-3.79407e-07
7.57459e-08
6.59137e-08
6.69007e-08
1.15801e-08
1.36992e-07
6.11658e-08
-1.01648e-08
6.63734e-08
3.01941e-08
4.15774e-05
-8.57531e-05
-0.00683088
9.30556e-08
1.61917e-06
-0.00037949
-0.000210755
1.61635e-08
1.19836e-07
-0.000169891
8.11067e-08
9.29556e-08
0.000202656
0.000494722
1.26487e-07
2.49743e-07
1.44607e-08
3.13998e-06
-1.00826e-09
-7.45547e-08
-0.00394732
4.55814e-08
1.38432e-07
-0.00042199
4.98279e-08
1.18269e-05
-0.000307921
5.70712e-07
3.15255e-08
6.6396e-08
8.03345e-08
-8.04661e-05
-0.00194801
0.00648732
4.37257e-08
6.81194e-09
-0.000240213
1.48401e-08
1.56184e-07
2.0966e-07
8.4622e-08
1.4759e-07
2.1265e-08
-0.00135267
0.000823154
1.00825e-07
2.09328e-08
3.10075e-07
0.000509583
1.33672e-07
3.71677e-07
2.96537e-06
1.94271e-07
-4.07499e-05
4.0086e-07
7.83382e-09
2.092e-07
1.45585e-06
0.00123094
2.71775e-08
-0.000402214
1.14582e-07
4.21443e-07
4.70041e-09
0.000598549
1.1745e-07
1.22066e-08
5.77944e-08
-2.97245e-08
9.21223e-08
8.80899e-08
6.76571e-08
1.56439e-08
-1.13604e-07
-6.11736e-06
6.46374e-08
1.22968e-08
1.59545e-08
2.07757e-07
3.49693e-06
2.05967e-08
1.37687e-07
0.00455653
3.78351e-08
0.00124449
2.56996e-07
-0.000329367
-4.74761e-06
4.55711e-08
-0.000547395
2.21473e-08
2.96905e-08
1.75186e-07
1.49197e-07
3.6591e-07
2.95132e-07
8.3122e-08
5.01033e-08
1.13309e-07
1.00778e-08
9.10673e-08
-1.13316e-06
1.12771e-07
2.99423e-09
5.75118e-05
5.25254e-08
-1.23574e-07
5.34771e-08
0.000511822
1.35884e-07
4.37974e-08
1.05938e-07
-1.9867e-08
5.39319e-05
-1.30066e-06
1.75589e-07
-0.000996634
5.08789e-05
0.000480042
-2.63817e-08
-3.84961e-06
6.65728e-08
2.68744e-06
1.51362e-07
1.4461e-07
0.00197368
0.000289552
-5.68009e-06
0.0013127
5.52472e-09
-8.1685e-05
6.55152e-08
5.20653e-07
1.14215e-08
0.000439519
0.00293834
1.08472e-07
7.20153e-08
-5.12681e-06
-6.45954e-07
2.15321e-08
-4.45639e-05
6.21933e-10
1.2862e-08
1.11697e-07
2.43872e-08
1.0536e-07
4.45552e-09
9.79337e-09
2.76233e-08
-2.52613e-05
1.81591e-07
6.29952e-08
2.57601e-08
-0.000333708
0.00018643
7.42865e-08
6.23961e-06
1.09102e-08
-2.85943e-09
0.00419028
6.47032e-08
2.44019e-08
5.27886e-09
-0.000204602
2.14048e-08
2.95287e-08
1.28689e-07
-0.00480748
7.2375e-08
8.98613e-09
6.94369e-08
0.000556832
6.1037e-08
1.39328e-07
3.62389e-06
1.01666e-09
-2.01191e-06
9.37383e-08
-1.2375e-05
9.26196e-08
7.107e-10
1.21623e-07
-5.73252e-08
3.48869e-08
8.20536e-08
-1.37855e-06
-0.00238017
8.30177e-08
0.000113178
2.47728e-08
9.38301e-08
3.49763e-08
3.12684e-08
8.35541e-08
-0.00207793
1.91092e-09
1.63718e-07
-3.84965e-07
0.000144784
0.000359286
9.13908e-08
9.69338e-09
1.09596e-08
4.07266e-08
3.72474e-08
2.26581e-08
0.000841919
1.77402e-08
-2.11441e-05
1.16368e-06
1.39694e-07
8.74977e-08
1.14468e-07
1.15118e-06
-1.33252e-06
-2.73288e-07
3.38016e-08
1.40419e-08
0.000851048
-3.97351e-08
1.61812e-07
2.36139e-07
-1.73511e-08
2.71361e-07
0.000350307
2.38261e-07
0.000464275
0.0038763
-2.8372e-05
1.07713e-07
4.66297e-08
8.0494e-08
-2.73096e-07
8.01986e-08
8.27278e-08
-3.30908e-09
1.84164e-08
2.92203e-08
2.40885e-08
1.0418e-07
9.04039e-08
7.44564e-08
3.61126e-05
7.68307e-08
-0.00377653
3.75152e-08
-2.59297e-07
4.79502e-08
9.47035e-07
-2.51731e-07
4.07635e-08
-0.000456065
-3.537e-08
1.27494e-08
2.02092e-07
6.49201e-08
9.48923e-09
6.93591e-08
-0.00156339
2.49911e-08
1.25524e-07
2.22781e-06
-0.000534946
1.97686e-08
-1.49219e-05
-0.000203038
8.57556e-08
7.84403e-08
8.81892e-08
5.67075e-07
6.97949e-08
-6.50203e-05
7.55761e-08
-0.000244316
3.66208e-08
-3.36666e-06
-0.000126971
8.03831e-08
-0.00172449
3.20576e-08
1.37177e-07
1.20458e-08
0.000589584
9.18802e-08
4.74334e-08
1.96204e-08
1.185e-06
4.16976e-08
1.14101e-08
3.94252e-08
-0.000690281
6.70255e-09
1.55002e-08
0.000238228
6.73312e-09
4.86203e-08
1.79994e-07
2.99687e-08
-0.00113501
1.03366e-07
2.59906e-08
7.48794e-08
-5.47511e-09
7.54183e-08
7.53369e-08
3.1847e-07
0.000758689
5.60581e-08
1.85596e-09
0.00697583
7.75676e-08
-8.40884e-05
8.36924e-08
0.000484009
5.54807e-08
1.04829e-08
8.6083e-08
0.000500976
7.93083e-05
1.87748e-08
2.15694e-08
2.61776e-07
5.73328e-08
1.39334e-09
-0.0018893
4.82789e-08
4.72513e-07
1.46583e-07
2.86096e-07
1.09725e-08
0.00585748
8.3024e-08
2.81557e-07
1.34495e-07
-3.58218e-05
3.19238e-05
7.25587e-08
5.63229e-08
-0.000651586
3.3229e-07
0.00362904
-3.1832e-05
1.50132e-06
7.49022e-09
1.31284e-07
1.31247e-08
0.00268323
7.57824e-08
2.43167e-07
-9.12353e-09
4.24893e-08
0.000489008
-0.000450593
1.48908e-07
-1.82255e-06
-3.48859e-06
5.68359e-08
0.00206507
7.91593e-08
7.12692e-08
4.56133e-08
0.00122896
2.58327e-06
-3.2891e-07
0.000942276
8.46775e-08
0.000680084
1.84122e-05
0.000126726
2.53921e-08
-0.000140745
-0.000172453
-7.04935e-05
-0.000776905
0.000717154
5.5893e-07
1.05205e-07
5.10978e-07
-1.70696e-08
5.50291e-08
-6.06946e-05
-1.53675e-08
9.34499e-08
8.18899e-05
2.15018e-08
1.63345e-07
1.7138e-07
5.84448e-09
-0.000535556
-4.49008e-08
-5.50518e-05
2.89042e-07
-1.31522e-07
0.00446643
0.000430657
-1.2546e-06
7.88438e-09
1.10787e-08
7.83368e-08
6.46786e-08
8.71885e-08
7.17993e-08
-3.22456e-07
-4.47113e-08
6.17391e-08
2.17459e-06
1.16605e-08
9.51221e-09
0.00197063
-3.93951e-05
5.20031e-09
2.61869e-07
-5.91833e-05
4.46522e-08
1.46783e-08
0.000208523
4.10205e-07
5.74319e-08
9.61918e-08
2.76204e-08
1.02941e-07
1.06663e-07
-0.000882342
2.27626e-07
2.98971e-08
2.36523e-08
-6.45895e-07
2.93741e-08
0.000256262
-8.35396e-05
6.61326e-08
2.06754e-08
6.47031e-08
2.52585e-08
8.79213e-08
1.42823e-08
6.60573e-08
6.80488e-09
6.44123e-08
1.14596e-08
1.89242e-08
2.9028e-07
0.00201414
9.32253e-09
0.00418081
-3.67549e-05
9.6264e-08
-1.37699e-06
4.17215e-06
7.52677e-08
2.3347e-08
1.27165e-07
1.17821e-07
-3.05712e-07
1.32442e-07
4.06338e-08
2.37505e-08
-8.3844e-05
1.30221e-07
0.00197767
2.49251e-08
8.21359e-09
2.93726e-08
8.0548e-08
5.73758e-08
7.89165e-08
3.70304e-07
-3.67034e-05
6.23756e-08
-0.000129118
-0.00106729
4.81422e-05
8.07694e-08
-5.45873e-07
3.49939e-06
0.000583242
0.00054284
7.26109e-09
2.45488e-08
-1.11037e-06
0.00150484
0.000403982
1.51662e-07
-1.13395e-06
2.21707e-08
6.955e-08
3.8767e-08
1.95722e-08
5.05004e-09
-1.09797e-06
8.05479e-09
-2.30822e-06
5.74865e-08
0.000255155
0.00167417
0.0025325
0.00251819
4.16992e-05
2.36947e-08
1.83672e-08
-0.0024115
6.94698e-08
6.89767e-08
8.46444e-08
2.17419e-06
-0.000486186
-8.41693e-05
4.39436e-09
8.00811e-08
2.53143e-08
2.18108e-08
0.000123141
5.63168e-08
0.000759948
0.000393271
2.16468e-08
-1.49983e-09
2.36575e-05
4.66014e-07
8.27548e-08
1.00449e-08
0.00415058
-0.000400422
7.11912e-08
-2.72445e-06
8.28699e-09
0.000212034
0.0167491
8.14422e-08
5.63887e-05
-5.20204e-08
0.00623973
6.28553e-08
7.62662e-08
1.06401e-08
4.10457e-09
0.000495925
6.19802e-08
-8.75228e-06
1.00881e-05
-2.5744e-05
6.90064e-08
2.99783e-08
-9.50053e-05
5.78471e-08
-0.00244282
-3.81795e-05
1.09586e-07
1.13448e-07
1.15165e-07
1.53009e-06
0.00125375
9.84502e-08
0.000473716
2.39382e-07
2.41394e-07
2.35467e-08
7.60485e-08
-1.28994e-06
1.11559e-07
-7.39601e-06
2.06636e-08
7.47317e-08
6.11632e-08
6.50875e-07
1.05244e-07
0.000932513
0.00388492
5.63014e-06
6.23628e-07
6.17251e-08
1.40085e-08
1.4904e-07
-3.32629e-06
0.00192312
-0.00178806
3.68955e-08
0.0022581
-1.74301e-06
-0.000570362
1.16352e-07
6.60292e-08
1.00951e-07
5.48917e-08
0.00573375
2.47794e-08
1.44398e-07
0.000382709
-8.12367e-05
0.000200963
-0.00052216
2.04884e-08
8.79764e-08
7.84259e-08
0.00032885
2.39377e-08
0.00344207
8.60749e-08
-0.00132226
1.01049e-07
3.29915e-08
1.3968e-07
5.99057e-09
7.61851e-09
5.28068e-08
-3.36934e-05
2.8129e-07
6.11312e-08
8.27598e-08
0.000399904
-2.7606e-05
2.14041e-08
2.65538e-05
3.05123e-08
1.91603e-07
1.78143e-07
1.05976e-07
8.41402e-08
3.33433e-08
-0.000671049
-3.20853e-07
1.18955e-07
1.46788e-08
4.91967e-06
1.22214e-07
8.61963e-08
0.00437485
-0.000740083
-8.40257e-06
9.65386e-08
0.000279734
1.48817e-08
-3.64496e-07
1.2769e-07
1.50595e-07
0.00283736
5.20952e-07
3.54851e-07
-0.00049455
6.21606e-08
-2.33778e-07
7.01191e-08
0.0015651
4.1922e-07
1.26857e-07
-3.63491e-06
1.73179e-08
-0.00282408
9.12162e-09
-9.09823e-06
1.53722e-06
-0.00167662
-2.83794e-05
4.77893e-05
-0.000170535
-2.74209e-07
2.20324e-08
1.6734e-08
5.71071e-08
9.72747e-08
1.34798e-06
2.76147e-08
-1.56227e-07
-0.000471787
6.32906e-08
8.33714e-08
2.64103e-07
7.82628e-07
1.24817e-07
1.33769e-07
0.000196663
8.27382e-08
3.1163e-07
3.82246e-08
6.59742e-05
8.14843e-09
0.00345433
-9.88596e-08
1.35306e-07
6.95709e-08
1.55508e-08
-6.43065e-05
-0.000190471
9.26432e-08
5.14894e-08
9.61845e-08
9.97343e-05
0.000128609
-0.000189437
7.58667e-08
8.07425e-08
0.00584588
7.39425e-08
4.48578e-08
3.1848e-08
-0.000413528
-6.08646e-07
6.29865e-08
1.22601e-07
1.14927e-07
0.000439729
3.48576e-08
-8.67959e-06
1.13553e-07
1.39692e-07
1.03347e-07
1.04686e-06
6.10354e-08
2.46536e-08
-0.00181178
-9.24068e-05
-0.000542835
-0.00274825
-0.000151729
-7.56796e-05
-0.00217603
7.30138e-09
8.65111e-08
0.00337792
-0.000149259
0.00526535
5.02178e-08
1.54403e-07
3.99188e-09
5.78537e-08
-0.00138828
0.000107495
1.13315e-07
3.25724e-08
-2.22195e-05
-2.33712e-07
1.18078e-07
0.000336448
-0.000698089
-2.46328e-05
9.33386e-08
0.000759393
0.000444679
4.70732e-06
1.77369e-07
1.28115e-07
1.3059e-08
6.668e-08
1.02214e-07
4.5343e-08
2.50996e-08
2.32647e-07
1.24265e-07
1.0055e-08
5.20976e-06
4.70134e-05
1.43663e-08
2.57272e-07
-2.68348e-05
-1.85716e-06
1.51327e-09
-3.57329e-06
8.67711e-06
0.000514998
5.30302e-08
5.70691e-08
1.27321e-07
6.78726e-08
5.69143e-08
1.02945e-07
-1.64979e-07
1.57145e-07
2.66446e-07
3.57697e-06
1.73868e-08
3.58944e-08
-2.66291e-05
-0.00151712
0.000314213
1.72709e-05
2.93154e-07
1.02368e-07
5.3149e-09
1.22597e-07
7.91048e-08
-0.000868932
7.53274e-09
5.06747e-09
8.02231e-08
-0.00139985
0.00444929
3.10615e-08
3.04106e-07
5.91534e-08
-1.98759e-08
1.14911e-07
3.51512e-07
1.70377e-07
9.25161e-08
-8.84477e-05
1.17404e-07
-0.000366613
9.59377e-08
0.000163333
9.96172e-08
9.0889e-08
7.2268e-08
-8.01581e-08
-9.95482e-07
8.86613e-08
9.73158e-08
1.05887e-07
6.75086e-08
0.00211424
0.000108304
-0.00197854
4.46098e-09
0.00552364
1.8809e-07
5.62715e-08
1.14846e-08
6.55268e-08
1.19191e-08
0.000363189
0.000150548
2.8974e-08
1.15244e-08
-0.00166702
6.51248e-08
0.000196037
-0.000328051
4.11407e-06
1.70348e-08
6.64057e-07
-0.00129511
-0.000901975
0.00092083
6.62701e-08
4.55951e-08
7.65771e-08
8.20425e-08
-0.000730699
1.51263e-08
9.92355e-08
-3.17521e-05
-0.00028621
4.81194e-08
6.01021e-08
-4.59992e-05
7.2678e-08
-1.60914e-05
-1.09972e-07
9.94278e-09
1.19546e-07
-1.87494e-06
-2.73684e-07
0.00327725
6.70745e-08
-0.00172934
7.97639e-08
3.88704e-09
5.94193e-08
3.61258e-06
2.04226e-08
5.11447e-07
9.697e-09
3.54724e-08
3.42673e-08
1.15082e-07
4.98057e-08
2.95709e-08
8.33192e-08
-2.4868e-06
2.65868e-07
1.2036e-07
3.49327e-09
8.75576e-08
5.58669e-08
-1.30222e-06
1.22104e-07
1.27599e-07
2.473e-06
1.29525e-07
3.32109e-07
-2.26845e-07
8.0952e-08
2.39333e-07
-0.00057451
0.000455597
7.7006e-08
0.000514491
0.000103614
6.16035e-08
1.42802e-08
1.94049e-06
0.000367458
-2.77998e-07
1.02186e-05
-6.98155e-06
8.13229e-08
5.20837e-07
1.00328e-07
1.15649e-07
1.07666e-07
0.000358411
3.0699e-06
-4.61522e-06
-0.000101025
-0.00250337
0.000152408
8.36436e-08
0.000571719
5.91504e-09
1.69826e-05
-0.000184302
2.03518e-08
5.90755e-08
0.000533789
1.45573e-08
1.24341e-08
-4.31903e-05
0.00234459
-2.84404e-07
1.14292e-07
-9.52052e-05
6.14056e-08
-0.00170311
0.000185382
2.55916e-08
-6.66225e-05
-0.00030888
-9.93993e-05
0.000272099
0.000104738
0.000530527
6.65393e-08
1.03871e-08
1.27125e-07
1.18247e-07
1.11219e-08
-3.26247e-07
7.65002e-09
1.30914e-05
-3.77979e-06
1.65855e-07
1.28056e-05
-6.39818e-05
1.15354e-05
-9.82599e-06
-3.14129e-06
3.46044e-05
8.28637e-05
1.09026e-07
9.45099e-08
0.00139274
1.95572e-08
7.18409e-08
0.000484284
5.78457e-08
0.00256871
1.50354e-08
-0.000505805
1.0959e-07
4.61936e-08
-0.000848551
2.15816e-08
8.91074e-09
0.000501455
-0.00281871
0.000337267
1.30308e-07
3.07441e-07
1.65701e-08
2.46821e-07
-8.44889e-07
2.40956e-07
4.78508e-09
0.00088078
9.18358e-08
4.27572e-08
0.000367
1.20845e-07
-1.14327e-08
2.11678e-06
7.87942e-08
2.81317e-07
4.85454e-08
-7.61169e-07
6.88066e-08
-6.72368e-07
-9.86109e-05
-0.000147121
7.56827e-08
1.20147e-07
-0.000144066
9.62784e-08
1.03825e-07
1.65906e-07
1.36513e-07
0.00342794
3.5674e-08
1.01498e-08
0.00397782
7.07359e-08
-0.00175601
3.01658e-08
8.70826e-08
-2.36433e-08
-0.000341639
5.16661e-08
-9.41274e-08
1.98231e-05
1.62481e-07
6.14365e-08
8.85164e-07
1.43087e-07
-0.000638291
8.10563e-09
0.0217134
-1.28402e-06
1.64604e-07
1.22792e-07
1.53822e-07
9.14052e-08
2.23866e-06
7.93221e-08
-4.74274e-08
6.87097e-08
8.06302e-08
0.000972792
4.63792e-08
1.0835e-07
1.31884e-07
9.4318e-07
1.16285e-07
1.49667e-07
0.000514397
2.23429e-08
1.23204e-06
1.17068e-07
2.39628e-08
2.46372e-08
-1.1902e-08
1.16507e-07
5.55451e-08
5.56538e-07
-0.000321592
1.93037e-07
1.22252e-07
1.04424e-07
3.40085e-08
-2.90886e-05
5.72043e-08
-0.00192485
0.00552436
4.11359e-05
5.59829e-07
6.82263e-08
1.23874e-07
1.90933e-08
9.21672e-09
-2.75615e-06
4.13326e-08
-0.000415777
2.9311e-07
0.000249635
-4.16879e-07
2.163e-08
8.6784e-08
0.000489914
6.07794e-08
1.34778e-07
1.93062e-07
-1.3217e-06
8.94474e-08
-4.67088e-06
3.20027e-09
4.75592e-08
2.38344e-09
2.6796e-08
1.18448e-06
6.55494e-07
2.99426e-08
1.78243e-07
-1.79002e-06
1.70395e-07
3.60809e-07
1.25818e-06
6.84988e-06
-1.66202e-06
1.38888e-08
1.09295e-07
3.76107e-08
3.23561e-07
-0.000198466
-0.00180239
-0.00109381
1.62987e-07
-0.00407327
3.60974e-07
8.62183e-08
3.59105e-08
4.07203e-07
2.31514e-08
1.78993e-07
2.38701e-05
5.38325e-08
6.99169e-08
-4.60157e-05
-0.00391715
3.03303e-07
0.000258303
2.10973e-08
5.47191e-05
6.51143e-08
0.000239099
-1.93958e-07
5.44375e-08
-0.00136941
-3.36536e-06
3.24303e-08
-2.97427e-07
4.87981e-09
-1.6438e-06
9.53535e-08
2.03988e-06
0.000617111
6.32385e-08
0.00562002
6.01745e-08
0.000130841
3.39602e-08
9.58858e-08
2.06514e-08
5.78221e-08
3.76923e-08