/*--------------------------------*- C++ -*----------------------------------*\
| =========                 |                                                 |
| \\      /  F ield         | OpenFOAM: The Open Source CFD Toolbox           |
|  \\    /   O peration     | Version:  v2012                                 |
|   \\  /    A nd           | Website:  www.openfoam.com                      |
|    \\/     M anipulation  |                                                 |
\*---------------------------------------------------------------------------*/
FoamFile
{
    version     2.0;
    format      ascii;
    class       volScalarField;
    location    "700";
    object      omega_0;
}
// * * * * * * * * * * * * * * * * * * * * * * * * * * * * * * * * * * * * * //

dimensions      [0 0 -1 0 0 0 0];


internalField   nonuniform List<scalar> 
13851
(
0.138907
0.024261
0.0241368
4.81752
0.0220828
0.0262616
0.024001
0.0218483
3.93822
0.0220428
0.0698161
0.0220808
0.0221154
5.42135
0.0373909
0.138857
7.82373
0.0219335
0.356716
0.139097
0.042643
0.0263263
23.1819
0.0222638
7.87503
0.0668159
0.247936
4.85753
3.71244
0.0217694
4.5669
0.0240091
0.136487
4.96432
0.046158
3.68183
0.0222741
10.4769
4.67888
0.0220867
4.76609
3.83969
19.3522
0.713482
4.05088
0.0218921
0.0215795
0.132697
0.0235085
0.0221089
8.03425
0.0221678
0.138622
0.0306676
5.63149
0.022085
0.138674
4.61947
0.263553
6.16382
0.0220884
0.263616
0.0220967
0.023653
0.237492
0.254102
8.33671
0.0692366
0.0221306
4.53537
4.29143
0.051734
0.0220262
7.45096
0.0324718
0.0237895
6.36119
0.0216716
7.31167
0.0219554
0.0221465
0.42479
0.0453912
5.1078
5.91141
4.42765
0.0265269
7.04439
0.0220321
4.58886
0.0222051
0.0241096
24.5949
4.33755
4.36024
0.41314
0.0219229
0.14175
7.65211
0.204551
0.146344
0.042843
0.0471638
0.0220714
0.0218778
0.0500198
0.0218795
4.31917
0.0241078
0.0219094
0.0314302
0.02189
0.183789
0.0669083
0.132606
0.0298201
0.02178
0.0218053
5.0017
4.70683
0.255213
0.0218147
0.0221178
4.10452
0.26365
0.126295
0.0219218
0.0597288
4.51861
0.0480538
0.0262533
0.0323002
7.60084
4.87207
0.0713066
4.35414
0.0654649
4.36501
0.0360215
0.0474398
0.3916
0.022633
0.0220318
0.111455
7.0617
0.023533
0.0216645
4.35458
3.69948
0.0623212
0.145513
0.176287
0.0719923
0.266541
0.0222726
0.0220533
0.022103
4.50805
0.0437058
0.0234621
0.022243
3.69891
0.0491137
0.132924
5.29049
4.16069
4.23576
6.60731
0.0309555
6.20402
0.0221036
0.0217834
0.0617898
0.0221393
4.46112
0.276825
0.157608
0.0217695
0.0323986
0.154009
0.255442
0.66458
0.0300874
0.0475294
21.212
3.67495
0.136306
0.0295875
0.0222054
0.0218247
6.47593
0.0436579
7.12718
0.0263348
0.0233844
0.14016
0.132199
0.0221061
0.0221877
0.0747266
0.397372
4.44045
4.61719
0.0374542
3.03022
4.34027
0.0236975
0.0464055
3.99522
0.025651
0.138154
0.0221009
0.416434
0.0222351
0.0471847
0.0245797
0.0220881
0.22807
0.0221796
3.82654
0.0217677
0.139321
6.15113
4.39352
0.02926
0.0469312
0.0222641
0.094898
0.0220147
0.0464261
6.73174
0.0291467
0.0256328
0.0221177
4.51964
0.0217635
18.9417
4.56384
0.177214
0.0222513
1.56
5.62347
4.12364
0.137306
0.0337538
0.153168
0.207257
0.0324796
0.383522
0.0334059
6.42269
0.144649
0.0218516
0.0260657
0.143278
3.63765
4.75732
0.0218214
0.132432
0.0220292
0.193205
0.261034
0.0264419
0.0497157
0.147874
0.0219854
0.0445538
0.113398
3.48107
0.0220826
0.0220858
0.0293491
4.48235
6.71619
0.0477732
0.0218312
0.254621
0.262551
0.119757
0.0490459
4.36979
7.97189
0.0269714
0.0339583
10.8651
0.0218677
0.0221024
0.123283
0.0604651
0.0217598
0.0222323
0.0220064
0.0220009
0.0334744
0.0220958
4.00808
0.044871
0.0219814
3.61036
4.12947
0.0221906
0.140906
8.21778
0.0227604
0.022217
0.0470229
5.68
6.84714
0.0678074
0.0220729
6.13325
0.0220959
0.0740739
6.51046
3.28283
0.0233567
10.5255
2.485
4.36073
0.174291
0.0457713
4.52354
4.15193
4.50882
0.0222591
5.53921
22.6913
0.861356
0.764573
0.0237143
0.0673666
0.0299062
6.32354
0.0505227
0.0218755
0.0215219
0.0279139
4.29134
3.23142
0.0218596
4.3243
0.0301753
0.0326121
0.0235929
6.8653
0.25266
0.140888
0.024304
0.0250973
3.57157
0.0222147
0.277071
0.0268483
0.0469498
0.0305662
0.0220282
0.0219788
0.174281
0.225774
0.144572
4.77433
3.63413
0.0236139
4.47108
0.232952
0.0217082
3.3913
0.0948587
6.36542
0.0272998
0.0707432
0.228401
8.19988
0.166379
5.4114
0.0226644
0.268269
15.3997
0.0308195
5.03152
0.0336933
4.72275
0.0334651
0.0398243
0.145107
0.307712
0.0220536
0.0265211
0.065317
0.0325954
0.0219128
0.0481244
5.39397
0.0220221
0.0466424
5.77546
0.0241572
5.89761
0.044363
7.27295
0.0262079
0.0629195
2.38824
0.270399
0.0492825
5.66014
7.37504
1.31205
0.0219886
0.169868
0.0339664
0.0698313
0.0218302
20.4938
5.55667
8.06813
0.0250363
0.148028
0.264226
6.38892
0.0215946
7.1899
0.351019
23.4011
0.0344767
5.74818
0.0220394
0.022127
6.79539
0.266303
0.0220408
0.0243092
0.0475863
0.0218181
5.56421
0.0675969
0.0928296
0.0256962
0.022679
0.0221874
7.23603
0.0219801
0.0221666
3.90787
5.40341
0.0258123
0.257086
0.0221035
0.0220946
0.0245161
0.146458
0.043786
0.0219219
0.0228974
0.239379
0.0233455
7.93637
0.0220759
0.0273194
4.11992
0.0358975
0.0215812
0.0221212
0.0256389
0.022234
1.29894
4.08572
0.0340744
7.52736
0.024554
0.0220568
4.41863
0.231578
0.0356104
0.0220393
4.10575
0.0347373
8.69991
0.0220736
0.0325688
0.172205
0.0345714
4.25847
0.262921
7.85446
0.0238427
0.180579
0.0219814
3.64383
0.0443588
0.132096
0.0337269
0.0240697
0.0357396
0.0621984
0.0220945
6.75057
4.30875
8.33392
5.90218
4.07054
4.91794
0.273374
0.0282129
0.0222078
10.1169
0.0220456
0.0219129
0.0303316
4.54085
0.0240276
0.0226335
0.0940246
0.0496105
0.022048
7.54287
0.0219278
4.64214
1.17574
0.0219516
0.0233892
0.358036
3.71511
0.0217666
10.3862
15.1906
0.0216746
4.42969
0.345313
0.13878
0.0238142
3.86666
6.35753
0.0216893
0.364103
0.0221219
0.0219283
3.50431
4.78075
0.0402035
0.0429627
0.0220464
0.0569128
4.63178
4.46254
0.0217841
6.25887
0.0219191
0.0221376
0.0498135
0.0272443
0.0215883
0.0238068
4.49067
0.284434
4.35809
0.0236917
0.0220256
4.51151
0.0221796
0.171149
0.0273683
0.0326067
0.0336786
4.29337
6.48575
0.026133
7.25643
0.0231557
0.0676948
3.9065
4.45841
0.0221144
0.0219866
0.0492487
4.37984
0.243426
0.0559135
14.0231
0.0273627
0.0324677
8.7219
7.59913
0.173912
4.53683
0.183267
3.77402
0.0224678
0.24595
4.53129
0.0220779
18.8864
6.51069
0.0309369
0.047486
0.0220677
6.80895
0.0816335
16.324
0.0219803
0.0221658
0.0265894
0.0489273
0.0220856
4.43226
0.0221602
0.177882
0.0239059
0.0713952
0.022066
0.0220478
0.0477332
6.65194
0.0492828
4.31363
0.0325646
0.0218271
0.0217613
0.0622913
0.0228956
0.107552
0.0244806
0.0349008
0.238463
0.0221814
5.70969
0.0222539
0.0953197
6.2547
4.23145
0.0292051
16.9151
0.0907825
0.309306
6.36696
0.0218454
7.40289
0.0301583
0.0319364
5.6465
3.09925
0.0217184
0.104379
0.0220816
3.65489
7.16372
0.0222224
0.0750008
5.70175
0.0222637
0.0222525
0.0675494
7.06092
3.53262
0.022224
0.145858
0.0231419
0.0220465
0.211464
0.147982
0.189242
0.0215787
0.11373
0.0470511
0.0585795
0.0226648
0.0232243
0.0764979
0.0264349
0.123159
0.0515958
0.0516882
0.141194
3.46554
0.353493
4.8956
10.201
0.138801
4.263
0.0405335
3.64238
0.142395
0.0219007
0.0317846
0.291446
0.027167
0.0219578
0.0219541
0.0956891
6.03212
0.027503
4.43274
0.021831
3.74462
0.159348
8.78081
0.104187
0.0263566
0.024127
7.28468
0.187469
0.0389545
0.26355
0.0225312
7.8832
0.0963573
0.180763
0.0332869
0.591036
0.0220364
0.0222456
0.0234124
0.0220455
3.90334
0.0220007
0.224836
4.39518
0.106992
4.51542
6.82453
0.18663
0.333745
0.0286867
0.02218
0.0220702
0.0216808
0.0217619
0.0221413
0.068165
0.176262
0.050876
4.13852
0.0231412
3.93671
0.0222935
4.72502
0.0426077
0.0222836
0.0221329
4.234
0.0264498
3.93342
6.49946
0.0453418
0.0692999
0.021657
4.85918
0.0244282
0.0240661
0.252049
0.0221834
0.0226407
0.0218405
0.0445313
5.76345
0.0297761
0.0335884
0.387505
4.3539
0.0291623
0.0269899
3.88302
0.0216779
3.80887
0.0222022
0.0233532
6.93907
0.0813639
0.131644
0.0990075
0.0496081
0.0222275
0.0222936
0.0732352
0.0225171
0.0222349
0.0279692
0.370749
0.0219845
0.284863
4.33338
3.53662
0.0975866
5.15772
0.0370276
0.0221755
0.163349
0.0218447
0.0265571
4.81496
3.60872
7.43201
4.01171
0.0222933
0.02219
0.0718264
0.0230599
0.021839
23.6442
0.195972
4.84097
0.0966203
0.0831299
0.0220473
0.0217752
7.49037
0.0935293
0.023663
0.022253
0.130852
0.20981
4.5045
0.0222567
0.022152
7.00946
0.0226418
0.0337044
0.0218228
4.60131
0.0219239
5.65501
0.0220744
0.15776
0.0399516
0.0721787
0.033509
0.0220256
0.0243362
0.0220225
0.219697
0.0226529
3.88885
0.0225988
4.44269
4.46868
0.0316321
0.022004
5.08905
4.15463
0.0266328
0.0808986
0.0220704
6.5528
0.0219195
0.294222
0.0220649
0.0220193
3.66539
0.0338764
0.0221111
0.0310448
4.50908
5.50881
5.72444
0.0218252
4.0931
0.0220755
0.0219918
0.0222731
0.0214885
0.0222338
5.89971
4.97879
0.0221917
0.0221563
0.040541
0.0218903
4.81387
0.16807
4.76991
4.59223
0.024301
0.123057
0.0220708
0.0427039
0.125576
0.0218274
0.0222105
1.95843
7.07583
0.0679992
17.0449
0.06237
0.0221009
0.042732
0.0821667
7.81034
0.0321822
1.49959
0.0957087
0.0222241
13.9248
12.4258
4.45681
5.8792
3.42772
0.0237891
0.148497
0.0221685
1.0169
0.0266263
0.0218774
5.75931
0.0230294
0.022005
0.0221137
0.0228809
4.47406
0.280955
0.0218714
0.0433956
5.51612
0.0231873
16.5318
0.0232339
0.0786922
4.68811
0.0220986
0.243589
0.0300256
0.0331478
6.12651
0.023014
0.409463
0.0620654
4.71107
0.0221387
4.51505
0.0305545
4.32566
8.14359
5.83581
0.0452182
0.022041
0.0223009
0.0222635
0.037935
0.0221237
4.33973
0.0292227
0.028005
0.0289258
0.0237239
0.021823
0.0263039
0.0277043
0.023394
0.0273231
5.97646
0.219215
0.0296818
0.0518124
5.81847
0.0226833
4.31921
0.0216907
0.0333811
0.0226597
0.0219388
0.0460488
0.0220515
0.021866
0.0463519
0.0220599
0.345471
0.0227312
19.7817
1.8595
0.215022
0.30565
0.0220474
4.39571
0.160399
0.0222265
0.0275961
0.0225488
4.43214
0.0232142
0.044996
3.64651
6.53442
0.0872074
0.0221273
4.26037
2.48821
3.58063
0.0299364
0.0218178
0.0217664
0.0679784
0.0220394
7.66912
0.175396
0.0221984
0.234002
0.35711
0.0218284
6.13517
6.28433
0.191277
0.0227078
4.23749
0.067771
0.0220221
6.35742
0.0268303
0.0218201
0.0219414
0.0312266
0.0383637
4.14265
4.92313
0.0402481
4.23964
0.0330621
0.0220219
0.0864955
0.0219602
4.05027
0.0218032
0.0220467
0.0240545
0.0224782
4.43302
5.68213
0.242503
6.68544
7.13688
0.0291772
0.022027
0.0227371
0.420738
0.0217838
0.0218985
0.0447025
7.53426
0.238604
0.0216401
0.0398849
0.0337649
0.140246
16.5854
0.0216688
0.021576
0.0232991
7.64693
0.0279299
4.6158
0.0232072
0.0221633
0.0218217
0.0219346
0.0245476
0.186875
3.82119
4.13257
0.028974
0.0220571
5.80722
0.0222338
6.13049
5.03396
0.0306393
5.48079
3.83341
4.70501
0.0527281
0.031924
3.94612
0.0307036
0.0339335
0.0742475
0.316949
0.0224837
5.43899
0.0220239
4.62867
7.84798
0.0216948
0.0239189
0.0469338
0.409671
0.033616
0.0221429
0.0275889
0.0232181
0.025417
1.28133
0.0221632
4.24703
5.79615
0.0220268
0.0308524
0.0381707
0.0220838
3.54752
15.7191
4.44975
3.50412
0.0220402
0.0246861
0.0267019
0.0222756
0.242503
0.0339215
0.0222567
0.061012
0.0258591
4.7297
0.0400452
6.92264
0.0231227
0.0232135
0.0499748
0.0941327
0.0737839
0.021988
17.5789
4.24281
26.3238
4.57219
4.7327
4.14019
4.45301
0.0219919
0.0220266
0.0219635
0.241067
0.0432989
0.0735332
7.23543
0.0220861
0.0216617
0.0220445
0.212723
0.0216542
0.0264066
0.0237108
3.87938
0.0229472
0.0218525
0.0220874
0.0219758
0.0221629
0.0344651
0.233158
0.0340723
5.50616
0.0220347
0.0219352
4.52762
4.66118
6.73373
3.53877
0.0488207
3.65757
0.0218133
0.0630016
0.0232166
0.0220799
0.0239063
5.08962
0.0229121
0.0956968
7.78967
0.0221633
0.0219278
0.0264346
0.190557
0.022272
3.88583
0.0219479
0.20903
0.0221259
0.022192
0.0267062
0.10068
0.0221234
0.23462
4.32163
0.182783
4.93163
0.0220403
6.53393
0.309715
0.0220501
8.04405
0.0222679
0.04217
0.0222097
0.0220074
0.0219622
0.0220458
0.0224231
0.0272202
0.0667434
0.022187
0.0220972
0.0622469
0.0216948
8.22129
0.0221262
0.032143
0.0327269
5.19148
3.11803
0.0221479
0.192565
0.0218177
0.0295556
0.0720328
3.20261
0.0473542
0.0222724
0.109526
0.077056
0.0830158
0.534274
0.0358835
0.155167
0.0560388
0.0669972
0.0229136
0.0218291
3.53237
5.50918
0.0246239
0.0220183
15.7899
0.0218342
0.042406
0.0219633
0.0859386
8.64604
0.0215224
6.25526
0.0260892
0.0221708
0.154075
0.0218779
0.0402165
3.43538
0.0405238
3.5893
0.0219571
0.0222649
0.0433585
0.0222265
0.0222466
0.0274148
0.0295901
0.0674418
0.090499
0.0220941
0.03986
0.0218191
0.0220639
0.0222157
0.022053
2.25473
0.0218372
0.0232716
0.256079
0.0218293
0.0220068
4.60087
0.0222498
19.1335
0.0230597
4.68556
0.243444
0.052418
5.81276
0.0685347
2.15069
0.0223297
0.21425
0.0271427
0.0218163
0.0218967
0.0232522
0.0309204
0.0219679
0.0556034
0.0219063
0.0231939
17.096
7.97897
4.73092
0.0238588
0.0484066
5.22023
5.48646
0.0221737
0.0261041
2.1627
0.0221228
0.0414134
5.51415
4.14632
0.0267508
0.0421438
0.0227774
0.381314
0.0222852
0.0361669
5.52967
0.0221668
0.0218627
8.36678
0.0449392
0.256043
5.01938
0.0964908
0.0224181
0.0219102
0.0222265
4.824
3.14746
5.39199
0.0585123
0.0220461
4.73391
0.0221098
0.180182
0.0267756
0.0230891
0.0430684
0.0220593
6.35207
7.16087
0.0216265
0.0680408
0.044495
5.36658
0.0457574
0.0552885
0.250546
0.032826
0.222113
0.0582458
0.0221125
0.0345266
0.0847044
3.99568
0.0220363
1.06001
0.0483909
0.0581753
0.0222728
7.0024
0.025877
0.0236212
0.0218491
0.0401478
0.0389337
0.05713
0.0221287
0.0226769
0.0587724
25.5962
0.0632397
0.0221579
0.0226322
0.0343587
0.24259
0.0221725
0.0942227
10.4343
0.0489102
4.38231
0.0378251
8.14481
0.400838
0.0219921
3.42588
0.0222385
0.0250317
0.0318197
0.0341868
0.105521
0.0448687
0.0438186
0.0458703
0.0313238
0.0241537
0.0216475
0.0857433
0.0252181
0.0288356
2.3733
0.0262366
0.0305278
0.0219506
4.89492
0.086612
0.0220935
0.0244876
0.0232804
5.84551
0.171209
0.0317911
4.04732
0.379372
1.36072
0.0958477
0.24603
0.0218945
0.315697
0.0218869
0.0268913
10.9463
3.52024
0.408822
2.54407
0.022122
7.01518
0.0218914
0.0800838
0.0252384
3.4614
5.8393
0.025356
0.0220237
0.371838
0.0431681
0.022022
4.3543
0.0220699
0.0237004
0.0252029
0.0222025
0.031018
0.0233507
0.0220441
0.035138
0.549353
0.0398895
0.0633141
0.0220178
6.74184
3.57926
0.0220052
0.262495
0.0251783
0.0292331
5.22766
0.0220018
0.0226949
0.0279656
4.44531
0.022032
0.0221831
0.0405698
3.51943
0.0219882
0.0322618
0.0345199
2.03716
0.0475706
0.040305
0.228931
0.0220749
0.123878
0.0217117
6.79371
0.0303281
0.0220489
0.0263884
0.102425
0.0221509
0.0220987
0.144592
4.08067
0.0222207
6.10209
0.0221883
0.0217004
0.066064
0.0220357
0.0218349
6.67758
0.0222739
0.0403562
0.151063
4.50621
1.55611
0.0217659
0.0240138
0.0280965
0.0220755
0.0220391
0.0220965
2.48276
0.0221961
0.229358
0.117172
0.0218538
0.0217051
0.0301843
0.117152
0.261093
0.056665
0.0643967
0.0238364
3.99869
0.0812986
0.0293998
0.0396365
0.0680333
0.0962542
17.1189
0.0364974
3.78518
4.36292
5.18951
0.0244329
0.0219607
0.0388641
0.034383
0.0217866
0.0222231
0.141294
0.0222436
0.0222869
0.0220524
0.0215802
0.023276
0.021999
6.61748
0.0220207
9.28992
0.022083
0.0914537
0.0225151
0.12035
0.0821806
0.0220452
4.97755
0.0239798
0.0222262
0.0389968
0.0218085
0.0309208
0.0219331
3.93468
0.0241884
0.0425393
0.103781
4.91427
0.0285944
0.229368
1.99806
0.0524807
0.0220444
0.0228557
0.115759
0.0661441
7.43675
0.0217635
4.81862
0.0220878
0.0904733
8.32155
0.0368537
3.31207
0.0252976
0.032242
0.0248678
6.95049
0.0314846
0.0221422
0.0500226
0.146773
0.0233504
0.0220393
0.0221436
4.60431
0.0222527
0.0278348
4.73741
0.0261261
0.0219884
0.058281
0.0250087
4.71953
0.0216612
0.0220192
0.0218677
0.0260658
0.0223172
0.0220651
0.0624687
4.44711
0.0219732
0.022103
5.26211
0.0221046
5.84536
0.0233125
6.56744
0.0218569
0.0243486
0.0218158
3.91954
4.95464
0.0305419
0.0730982
0.0270286
0.0219486
0.0221172
3.99801
0.0221371
0.0794013
0.0217831
0.0402313
0.0221906
5.49171
0.0218414
0.0433329
0.0218675
0.57667
1.23001
0.0217912
0.0453153
6.83324
0.066495
3.80075
3.07909
0.269994
0.0234045
0.0339826
0.0973526
4.30442
0.0220378
0.0364348
0.0281576
0.0219777
4.08637
5.68518
0.0679235
0.158615
0.378463
0.0339344
4.52302
0.021779
0.0217866
0.104658
7.57612
0.237003
0.172863
2.08099
0.0218142
7.09691
3.93476
9.09405
0.022203
5.56942
4.92767
1.32091
4.22139
3.94025
0.0824713
0.0306389
0.182117
0.0256453
0.0219748
2.29667
0.0929017
0.021631
4.98796
0.0221893
0.0295552
0.0420797
0.0267614
2.39525
0.03501
6.11643
0.0424526
0.0260858
4.0593
4.82886
0.141706
0.0223707
0.0258217
0.0741383
0.0605204
0.0218346
0.0488593
0.0638182
0.154555
0.021977
0.202407
0.0243544
0.0505616
4.07191
0.222211
0.0230773
0.143277
4.64572
0.0221659
0.0227869
8.28617
0.371611
0.0243499
0.0245937
0.0220923
0.0773139
0.0250053
3.83167
0.10569
0.0225147
0.0222234
0.0684583
0.0299338
0.475754
6.68579
0.0218786
0.0220347
0.0279089
0.022195
0.0241225
0.0229004
0.022704
0.0257965
0.0219413
0.0248797
0.0221844
0.045409
3.83338
0.0222643
5.57332
11.1437
0.021711
0.258499
0.143201
0.0909705
0.0227269
0.0922264
0.0268926
0.0812194
0.0294891
0.0232238
0.0222095
7.30918
0.0270621
3.61366
0.0227079
0.0220375
0.022024
0.0732502
0.0219676
0.0496734
0.058793
1.84199
0.0219216
0.25541
7.38222
4.18348
0.0218068
0.149891
1.07138
7.52178
4.13803
0.0225474
0.0222687
0.175653
1.74269
3.01444
0.0402589
0.262551
0.0222315
0.021831
0.0407771
0.0221966
0.0221308
0.176104
0.0222656
0.0912457
0.0218461
4.88807
5.44505
4.67693
4.03199
4.30659
0.0221253
0.0221461
6.67243
0.0217761
0.0218014
0.0217006
0.130837
4.97868
6.77428
0.0276226
0.0220072
0.0231415
0.0378459
5.28818
0.0220378
3.17717
4.98655
0.0221897
0.0221781
4.16324
0.0754504
0.0230226
0.0220421
5.75577
4.47787
0.0219601
0.198133
0.0222539
4.1227
3.62838
0.0231443
6.51549
6.71271
5.49151
0.0218323
0.0220379
0.0222454
0.0222862
4.75807
0.0219156
0.26455
0.243757
8.94029
0.0226139
0.0601744
0.319389
0.0495434
6.61845
4.32942
0.0216327
0.0253745
0.025559
0.133787
4.43563
0.0215681
5.50017
0.0324939
0.0416495
0.0227345
0.0219492
0.31517
0.0408476
4.81647
0.0221964
0.0568394
0.0225324
0.122632
0.0240461
4.3604
3.58021
0.302336
0.0903995
0.0219706
0.0239093
0.0858562
0.236128
4.42386
6.71601
0.0221499
3.42444
0.0950833
4.95725
0.0259032
0.0443603
0.0400901
0.0220649
5.5783
0.0220708
0.0323288
3.57577
4.80203
1.94307
4.83076
0.0285436
0.0487267
0.0217382
4.90254
0.0274514
6.90219
0.0217252
4.86089
0.0215298
0.022004
0.0319061
0.0314686
0.0327462
0.02198
3.86335
0.0419839
0.0219186
0.0383579
4.01006
0.681302
0.0220362
4.53589
0.0243869
0.0331417
0.0310952
0.0216927
0.0652819
0.0219971
10.4527
0.0843516
0.0261521
0.0220297
0.403697
0.0399852
0.0217239
5.09339
3.54628
0.247602
0.0216129
1.6255
0.0221418
0.156578
0.0270386
0.126924
5.36132
4.01912
0.0345496
4.84981
0.0507005
0.0286192
0.0218282
5.25222
0.120663
0.10806
0.0607012
0.0222435
3.53383
0.0908882
0.415933
0.253079
6.46307
3.81255
6.94685
5.04717
0.0291528
0.0317291
0.0220967
0.0220541
0.0215878
0.173214
0.0293304
0.0331146
4.63631
0.0219419
0.0218607
0.0396346
0.146397
0.0275662
0.0218167
4.49006
0.0241769
0.0447171
0.02221
5.72347
0.0288413
5.8589
0.0572879
0.0339297
0.0537062
0.0220897
7.92996
0.321003
0.0716238
0.0220443
0.0219116
6.97509
4.42026
3.60922
0.0218348
0.0729475
0.774278
0.0220193
0.022009
0.0220846
4.86707
0.105031
0.0350097
0.0264487
0.0256701
4.72451
0.0933173
0.251412
0.0257145
0.0323123
0.0215719
0.135141
0.0564881
0.0220166
3.93379
4.37271
4.39458
4.07911
4.65388
7.99162
6.61176
0.0231286
0.0218022
5.95434
5.12229
6.92103
0.0220715
0.0399849
0.0220471
0.0219692
2.84821
4.91254
0.0631291
0.022005
0.270952
0.0941083
0.049212
4.35553
4.46483
0.263601
0.0219168
4.34044
1.77038
0.393346
0.0311778
0.0424846
0.0221754
0.0218786
0.0393205
0.0460505
0.0244657
0.0391954
0.0275703
0.0250691
0.22837
4.22134
0.0317172
0.0408808
4.2274
0.201377
0.0221115
0.473691
1.03037
4.83318
0.0416852
0.0221134
0.029389
0.0269611
0.0303301
0.0216908
0.0331918
0.0305357
0.044373
0.263022
0.0222307
0.023013
3.90409
4.08267
4.69456
0.358474
0.107593
0.0215146
0.0220459
0.030348
0.0217321
6.63291
0.0220383
0.0222736
0.0217242
3.88127
19.8801
0.0224187
0.0614313
0.0284499
0.0357645
0.0300674
0.0354336
0.0397307
0.0379095
4.73151
0.025938
4.80318
0.0396699
4.66817
0.0294602
0.0219366
0.0218229
0.0946754
0.145638
0.021828
0.0397987
0.0296569
0.0599473
3.9394
6.20401
4.46666
0.0222734
1.52745
0.0298788
0.0369696
0.0220305
0.070965
0.0237454
3.74822
2.22137
0.0402404
0.0220792
4.05478
0.0272991
4.40751
5.22195
0.236364
0.0243245
0.132133
4.56708
1.16738
3.96616
0.060997
0.0219419
0.0403003
0.0218262
8.83988
0.0246877
0.0319655
0.262297
4.59843
0.0219088
0.0219622
4.27063
0.0422486
7.90417
0.0328439
0.0220431
0.0431397
0.213539
0.0437714
3.37269
0.0363564
0.893112
0.0251021
0.0222452
0.0219472
0.301901
0.0226682
0.13595
0.0220493
0.0220038
0.284338
0.0257188
0.0220724
0.0220389
0.0357485
0.704518
0.0411246
0.0395325
0.026429
0.0617187
0.022042
0.166609
0.0305046
0.0431433
0.070569
0.0269792
0.0898824
0.0453195
0.021809
0.0663711
6.2468
3.40302
0.0220685
2.95557
4.39094
0.0219687
0.022668
0.907742
4.32294
0.0278456
4.24286
0.405173
0.0219646
0.0825658
0.0215866
0.0258322
0.0620066
11.0951
0.563842
0.245667
0.258351
4.00186
4.11992
0.0230909
3.90302
0.022037
2.06237
4.17081
0.0221009
0.0220836
3.5566
0.0221164
0.0220859
0.277118
4.6217
0.226782
0.0256816
4.28533
0.022104
4.18379
4.01138
0.0221904
0.367087
7.40783
4.60025
3.69584
3.91571
3.76749
0.0218835
0.0232073
0.0621373
0.0639993
0.0220801
0.196801
0.0220412
3.82873
0.284624
0.0497365
0.266795
3.76904
0.283959
0.232386
0.0616986
7.77864
0.537723
0.0249084
0.0216312
2.64653
0.0350643
0.0217729
6.72776
0.0219806
3.01062
0.0221439
4.84824
0.0250315
0.0219842
21.5747
0.0274984
0.0357061
3.81225
6.66203
2.81026
0.0270349
0.0425792
0.0233344
0.0378027
0.127236
0.0388546
0.0222098
1.76916
0.0615646
0.0333104
4.1072
0.0405033
0.0374385
0.221037
0.0749105
0.0431122
0.0219797
0.213288
0.0218218
0.125837
0.206626
4.57556
0.0218757
0.0395597
4.57675
0.0230838
0.0660541
0.0300409
0.0423953
5.9794
0.0608243
0.0234472
16.124
0.0218863
4.02704
0.0221263
0.0228978
0.12382
3.666
0.0328352
0.3937
0.645686
0.0304559
0.022176
0.16733
0.0456503
4.57683
0.0265506
14.1679
0.143493
0.0302433
0.0294016
0.108413
0.0379433
0.0740963
0.0604304
0.0385539
0.0242829
0.0220076
2.93311
0.022015
0.0287896
0.0216017
0.107133
0.0291253
0.0595593
4.07238
0.0230227
0.236387
0.0215103
0.0221549
0.0221896
0.0222069
0.0258989
0.0219457
0.083819
8.00184
0.0586307
0.0451027
0.0246512
0.022036
0.225892
0.0220297
4.42106
4.9526
4.82426
0.13997
0.0354168
0.0265717
0.0221787
0.0298669
0.0985077
0.0433165
4.32393
0.0577057
4.81748
0.141858
0.0222104
0.0218447
3.45325
0.021955
0.0295026
0.0672336
0.378648
0.023086
4.64119
0.0221737
0.0258804
0.0220483
0.0226318
0.169497
0.103217
0.0222104
0.0313488
0.0350055
0.045497
0.0559813
0.555584
0.381984
0.293113
0.128671
0.0253864
0.0229554
0.0549512
3.63454
6.49571
4.1135
0.0310726
5.69197
0.100755
0.0226923
0.0219979
0.0591714
0.0221451
0.0311203
5.54936
0.0219687
0.0218035
0.613049
3.01545
0.0450605
1.73475
0.0221174
5.68199
0.0428437
4.73054
0.0294013
0.0220373
4.21356
0.0581191
0.022033
0.0746876
0.0222532
0.169031
0.0291374
0.0537563
6.89371
0.0337624
5.30044
0.0219359
4.88869
0.022128
0.0261294
0.0224853
0.047106
0.0221441
0.0565404
3.98694
1.13471
0.0496691
0.0323571
0.0774105
0.0219049
0.0219671
0.0228976
1.30009
0.0250565
4.96785
4.6638
0.149547
0.0222162
0.154233
0.242841
0.149411
0.0252141
4.92544
0.0219792
0.0215217
0.0219645
7.31333
0.0220602
0.0220183
4.10486
0.0219788
0.17409
0.103344
0.0217625
4.45361
0.0271666
4.8037
0.0219261
2.33863
0.0228165
0.0729976
8.77641
0.0654733
0.0219497
0.0265601
4.62245
0.0309979
0.158658
0.0308999
0.0264565
0.151154
0.0292363
0.0221031
23.0306
0.0295236
0.0273672
0.138079
0.0219748
0.0218652
0.0221892
0.0296741
0.0221289
0.0259509
5.41701
12.7377
0.105434
7.31035
0.0586959
0.0328353
4.68521
4.53709
0.0224419
9.21189
9.17697
4.00561
3.06723
0.0312031
4.57345
4.24499
17.0233
3.3204
6.31315
0.0431931
0.0848857
0.0295291
0.0254605
0.0221783
1.71753
0.0222852
4.80186
0.128522
0.359695
0.0215944
0.0727939
0.0463386
0.0235792
0.0222931
0.0221187
0.127216
0.0233486
0.0221706
0.0387702
4.34401
0.0241101
0.166143
0.0218325
0.129643
0.0842978
0.0221624
0.0268177
0.0219485
4.87876
4.68538
0.163657
10.405
0.0334577
0.0881925
0.0221323
0.0399159
0.0220661
0.0223
0.0222338
4.90799
0.0217796
0.0434403
0.844749
0.0280421
0.0306307
0.0220015
4.83394
0.210249
13.0044
4.61622
0.179512
0.329497
4.40154
0.372392
0.210629
8.50573
0.129114
0.0335913
4.30134
4.98645
0.0220455
5.03614
0.161213
5.51205
0.0216127
0.0619788
4.98299
0.0222733
4.66671
0.0253655
6.83364
0.0220925
0.0221008
0.069268
0.233293
0.0261118
0.0652527
0.0217906
0.0221089
3.72708
5.66063
6.47611
0.0517245
0.0220842
0.0224379
0.0221368
0.0363631
1.19794
4.68964
4.00088
4.44217
0.0323997
0.0219544
0.0219843
5.9605
6.0093
0.313968
0.0263883
0.0247983
0.0836198
4.75559
5.87424
0.0215123
0.0219624
5.09293
0.0230131
0.268388
0.0279688
0.0220689
0.0326363
0.0467348
4.74105
4.67017
0.0222023
0.0218024
0.0247884
0.230442
5.07522
0.0222653
0.13797
4.49197
0.0215222
2.7421
4.26621
11.3423
0.0221106
5.26886
4.96823
0.0392344
0.333545
0.0242137
0.310237
0.370899
0.0253717
0.0219482
6.06554
1.73615
0.0218614
0.142772
0.149902
0.0297082
0.27336
4.63575
5.46825
4.98882
0.0274858
0.0235461
0.0229836
4.59916
5.13002
4.87448
5.95072
4.76661
0.0217217
0.0434209
0.0220682
0.0221159
0.0248462
0.0219703
0.02206
0.0221377
4.54281
13.5026
6.98556
0.0577877
0.198131
0.0360405
0.0218604
0.0219879
4.57368
0.0221398
6.01582
4.04623
0.0221799
0.0218915
3.7467
0.0225422
0.600131
0.02583
0.0217529
0.0217174
4.55662
0.0216807
4.36527
4.37273
0.0215676
0.0468507
0.0219141
0.0228547
0.0218482
0.11891
3.93471
0.0219734
5.0282
0.498473
0.0240116
0.0218823
0.0226458
0.0235643
0.022227
0.578352
5.49822
5.76354
0.0390614
6.26956
0.0222728
0.0256806
0.0220832
0.184339
0.0233715
4.88221
0.021864
4.01679
0.268716
5.731
0.151026
0.0218599
0.0440629
0.0219176
4.38692
0.021948
0.028672
0.0265115
0.0255466
0.02214
0.0222512
0.032593
5.09566
0.0221877
0.0228239
0.0239133
0.0336882
0.170855
0.022189
5.01658
3.96168
0.0238554
5.05141
4.5877
3.38362
6.34887
0.021537
0.0230531
3.65278
4.41538
0.146467
4.11697
4.57163
0.0327852
0.0495288
0.0305338
4.3404
0.022037
0.0219668
5.58948
0.128752
4.77551
0.0246638
0.0217095
0.0220465
4.99861
0.0715132
0.0237098
0.245186
0.0218289
0.0606717
0.0304795
0.0307476
0.0219275
0.0221897
0.0219237
0.0246684
1.44956
5.38622
0.0215766
0.0219098
4.52566
0.0220652
0.0642219
0.0259127
0.0255231
0.0371404
0.0222858
4.28921
0.0296659
0.0252588
20.4188
0.0865368
0.0232348
0.0317299
0.0220306
0.0224788
6.64322
0.291352
3.56024
0.022266
0.0221553
0.0620251
0.0271391
0.0220317
0.0381582
4.31482
0.0259109
0.0416507
0.0253578
0.122681
0.0221161
0.0216978
4.65655
5.28821
5.17649
0.0219752
0.157837
0.0215971
0.0220235
0.0673975
4.77402
0.0686016
0.0283547
0.160235
0.0227528
0.0295842
0.052572
0.785828
0.0222927
0.0216407
0.0225542
0.0238638
0.0266969
0.0219629
1.35481
9.69605
0.0220931
0.0321232
0.0224074
0.0216476
3.88895
5.9453
5.52161
0.0763443
0.0223771
0.0565433
4.879
0.103906
0.0975327
0.0340091
0.0298198
5.15532
0.222126
0.85848
0.0217655
0.0305473
0.0221123
0.0306965
6.82057
0.0216266
0.0407724
0.0254246
0.0300798
0.0230475
0.0217951
0.021881
4.41271
0.0464852
0.0305756
0.0680889
0.0349977
6.43631
0.0312948
0.497939
0.0219281
4.72877
5.02751
6.91141
0.0222646
0.0320102
0.022085
0.0219651
5.57226
0.0467612
4.71247
0.0219968
0.0450906
0.134585
4.77395
0.028023
0.0216425
6.78496
0.0222853
0.0222842
0.022584
0.0220365
5.86624
0.0218255
0.0218786
0.0364286
0.0272459
0.146851
0.13497
0.0332771
4.6436
0.0219373
0.182163
0.0217805
4.61015
0.0341971
0.504485
0.150752
2.93623
0.110248
4.59189
0.0230784
6.36615
0.0325406
4.89943
0.207119
0.0278576
0.23115
0.0221517
6.84978
0.0231141
0.0382258
0.0271334
7.60685
0.143454
4.29382
0.0309904
0.0220179
4.90785
0.248929
0.0553768
0.154182
8.24954
4.81182
0.0392832
0.28689
0.0430358
0.0218826
0.0487367
0.272214
0.0697602
27.0089
0.125016
0.0217975
0.0219409
0.143063
0.0220867
5.4786
0.0722917
0.022085
3.90645
2.09397
3.20287
0.111884
0.0219981
0.028954
0.0257186
4.39699
3.8453
0.0256985
5.18632
0.0218766
0.0315752
1.20744
0.0220049
0.0409408
0.0219334
0.026307
0.0222514
0.16558
1.02955
0.0301024
0.0293626
0.0217164
0.146269
0.0218921
0.0218293
0.0327968
0.0219269
0.225466
4.79651
4.07694
4.50477
0.0217878
4.88887
0.0221898
0.0371033
0.136008
0.0220303
7.71917
0.0704027
0.0220416
0.0216346
0.0425966
0.0378163
0.186311
0.240743
0.025769
0.023921
4.16022
0.0629664
0.290613
0.965362
14.3634
4.03381
4.73642
1.47408
0.022154
0.0221152
0.0472427
0.0222144
0.0515585
0.0368304
6.36675
4.96743
6.80344
0.021686
0.0217807
0.123225
0.262576
4.36448
1.50574
3.79677
0.0532272
0.0327419
1.37658
0.261482
0.0263013
4.75684
0.0331634
0.0306307
4.43759
0.0415973
0.0219413
4.70646
1.02916
0.0245164
0.1448
0.0233753
4.17102
5.75069
5.83625
0.0220163
0.0216841
0.138442
0.0220178
0.0219263
0.0220213
0.0217311
0.0220266
0.0220331
4.64348
0.0280537
0.0464428
4.2478
0.0219036
0.022042
0.0319029
0.025715
0.0263194
0.02205
0.0667681
0.0308176
0.0263831
0.0863667
4.47007
0.0220613
0.0431148
0.0220736
0.0220357
0.0215707
0.0220862
4.45438
0.0219005
0.0220282
0.0220996
0.044002
4.29106
4.29895
4.82917
1.96307
0.0455735
4.41272
6.45242
0.0219586
0.0424664
5.86843
0.24463
0.0221138
0.0279593
0.0437981
0.0381242
0.022063
0.0403982
0.0572162
0.0444539
0.0216313
0.0542887
4.65686
0.0215763
2.2658
4.84898
0.0425805
0.701101
0.0358647
0.0220915
0.0256181
0.0220172
0.241698
4.72995
0.0216789
0.0435843
0.0219781
0.0219815
0.022199
0.0222859
0.0375725
0.0221733
0.130339
0.150345
0.0259113
0.0245719
0.0461249
0.0220484
0.0444992
0.0326623
0.0223697
0.0221037
0.0221427
5.03216
0.0220193
0.277233
0.0416672
0.0222538
0.0220393
0.0217456
4.74372
0.0254177
0.042553
0.0528943
4.93302
0.0281321
4.29916
2.46076
0.0427765
0.0219767
0.239113
0.0390588
5.15211
0.0715718
4.65875
0.021635
0.0502839
0.0491892
4.57317
0.0220098
0.0452465
5.05848
0.0218605
7.81125
10.0531
3.55152
0.021982
0.02178
4.99344
0.0220497
4.46524
0.171475
4.24775