/*--------------------------------*- C++ -*----------------------------------*\
| =========                 |                                                 |
| \\      /  F ield         | OpenFOAM: The Open Source CFD Toolbox           |
|  \\    /   O peration     | Version:  v2012                                 |
|   \\  /    A nd           | Website:  www.openfoam.com                      |
|    \\/     M anipulation  |                                                 |
\*---------------------------------------------------------------------------*/
FoamFile
{
    version     2.0;
    format      ascii;
    class       volScalarField;
    location    "550";
    object      nut;
}
// * * * * * * * * * * * * * * * * * * * * * * * * * * * * * * * * * * * * * //

dimensions      [0 2 -1 0 0 0 0];


internalField   nonuniform List<scalar> 
13917
(
0.00314964
0.00353797
0.00111122
0.0059701
0.0058645
0.00408339
0.00353924
0.00223774
0.00307776
0.000291134
0.0026464
0.00683754
0.00332876
0.0200441
0.00591214
0.00198343
0.00685802
0.00214855
0.00157517
0.00185714
0.00311068
0.00683091
0.0023913
0.00683055
0.0061114
0.00278667
0.00400309
0.000179022
0.00209202
0.00682217
0.000127182
0.0026198
0.00680336
0.00927319
0.00681883
0.00187362
0.00654719
0.00696499
0.00306735
0.00254707
0.00679795
0.00673275
0.00315657
0.00166295
0.00173099
0.000593978
0.00335092
0.00280602
0.0160244
0.00681731
0.006837
0.00183119
0.00046912
0.0068415
0.0068419
0.00184761
1.54742e-05
0.00265639
0.0067484
0.000502233
0.0111055
0.00617099
0.0068096
0.00585928
0.00791977
0.00736068
0.00202024
0.00201913
0.00219082
0.00282224
0.00451073
0.00828382
0.00681822
0.00678486
0.00282721
0.0063376
0.00642141
0.00679185
0.00627603
0.00679358
0.00679289
0.00686347
0.00681523
0.00493833
0.00671775
0.00220378
0.00202286
0.00676363
0.00245106
0.00687957
0.00678797
0.00292622
0.0157174
0.00683457
0.00680588
0.00207102
0.000259358
0.00688723
0.00675282
0.0016495
0.00682548
0.00681105
0.00678857
0.00682513
0.00642212
0.00513038
0.00806205
0.00615976
0.00669415
0.00643156
0.00673588
0.00968919
0.00213584
0.00249353
0.00775968
0.00551492
0.00170405
0.00682067
0.00122917
0.00678975
0.00688801
0.00682324
0.00202298
0.0018117
0.00344272
0.00507214
0.00599814
0.00260835
0.00683018
0.00199835
0.00260339
0.00111082
0.0115738
0.00640291
0.00204186
0.00691769
0.0123517
0.0037914
0.00255522
0.00695759
0.0185984
0.0068114
0.00477266
0.00678817
0.00680647
0.00654387
0.00442383
0.0137752
0.0022615
0.00684384
0.00274348
0.00681406
0.00679987
0.00679014
0.00195869
0.00672807
0.00681779
0.0119472
0.00683476
0.00683281
0.00673504
0.0092761
0.00620437
0.0174021
0.0081982
0.00132745
0.000179634
0.0060769
0.00669602
0.0023757
0.00681823
0.0112908
0.00297138
0.0107925
0.00287144
0.00682445
0.00639454
0.001685
0.00269589
0.00610743
0.00334382
0.00682655
0.00683787
0.000779398
0.00118836
0.000528387
0.00683636
0.000961282
0.00681589
0.00217681
0.00286965
0.00174193
0.00136373
0.00329408
0.00683215
0.00362414
0.00438961
0.0111573
0.00681942
0.0067684
0.00379797
0.00288809
0.00257409
0.00659864
0.00448715
0.00416292
0.0025989
0.00680998
0.00170398
0.00679395
0.0067654
0.00523386
0.00483486
0.00283411
0.0022766
0.00256712
0.00999264
0.00688331
0.00676849
0.00676813
0.0048194
0.0013528
0.00113471
0.00672005
0.00679553
0.00845192
0.00258493
0.00674291
0.0067392
0.0067919
0.00678015
0.00677993
0.007422
0.00569138
0.00682638
0.00670901
0.0027148
0.00729045
0.00685307
0.00671986
0.0048666
0.00497713
0.000926919
0.0101575
0.00215704
0.00678788
0.00608527
0.00262397
0.0022465
0.00230026
0.00664245
0.00484567
0.00679682
0.00332872
0.00313728
0.00681449
0.00677528
0.0058967
0.00603223
0.00680448
0.00652358
0.0193002
0.00682682
0.00673322
0.00671328
0.00673379
0.00679649
0.00683764
0.00301173
0.00681223
0.00572929
0.00869285
0.00680919
0.00631768
0.000358497
0.00678361
0.00126248
0.00818085
0.00678307
0.00469679
0.00681091
0.00905033
0.0068247
0.00615677
0.00680729
0.00678823
0.00113465
0.00690941
0.000982143
0.00369727
0.0180573
0.00662301
0.00179699
0.00357181
0.00684759
0.00289337
0.0059721
0.00620481
0.00590964
0.00646886
0.00683173
0.00689754
0.00170325
0.00584709
0.00290672
0.00640723
0.00671956
0.011715
0.00164562
0.00682433
0.00660277
0.00619137
0.0116467
0.00172116
0.00917069
0.0107743
0.00882802
0.00151329
0.00635616
0.0041083
0.0145395
0.00110623
0.00682845
0.00595312
0.00395855
0.00678173
0.00322734
0.00183915
0.00684932
0.011172
0.00672363
0.00223624
0.00682396
0.000338019
0.00671664
0.00315418
0.00349526
0.00814382
0.00686658
0.0020731
0.0040082
0.00681744
0.00678331
0.0104063
0.00423139
0.00842283
0.0201313
0.00677154
0.00683242
0.00526741
0.00145879
0.00677262
0.00591352
0.00683947
0.00161379
0.00305478
0.00170549
0.00223649
0.0014281
0.00221838
0.00754097
0.00683389
0.00681582
0.00567807
0.000871853
0.00684305
0.00242315
0.00261069
0.0119543
0.00684144
0.00176179
0.00657395
0.0111963
0.00671576
0.000712829
0.00064233
0.00315669
0.00681626
0.000826503
0.00679887
0.00808563
0.00130941
0.00671195
0.0123068
0.00675783
0.0102071
0.00678083
0.00241799
0.0104051
0.00662577
0.0098239
0.00141907
0.00669714
0.00908145
0.00101258
0.00668837
0.00118195
0.00683793
0.0013488
0.00111452
0.00672671
0.00332539
0.00648284
0.00677761
0.00671842
0.00683658
0.0124535
0.00140262
0.00683125
0.00683842
0.0068399
0.00358654
0.0035386
0.00681375
0.00669659
0.00174441
0.00176852
0.00679593
0.00664783
0.0104143
0.00399823
0.00761818
0.00141016
0.00241393
0.00682381
0.00680456
0.00403983
0.00671688
0.00681283
0.00681786
0.00680455
0.00682617
0.00568637
0.00683744
0.00242183
0.00680608
0.00265618
0.0067709
0.00679551
0.00918846
0.00393281
0.00241896
0.00682192
0.00673385
0.00678972
0.00679249
0.00656243
0.00672906
0.0101618
0.00631044
0.00557519
0.0067341
0.00301114
0.00651207
0.00680031
0.00220179
0.00875562
0.00683883
0.0100484
0.00677721
0.00675784
0.0068386
0.00675534
0.0067544
0.00680874
0.0118028
0.0105679
0.00674921
0.00184431
0.00177596
0.0067931
0.00291008
0.00216043
0.00876038
0.00301154
0.0053246
0.0126733
0.012984
0.00672538
0.00831942
0.00656156
0.00666002
0.00403095
0.00680543
0.00684177
0.00680432
0.00348151
0.00299575
0.00126157
0.00237341
0.00635742
0.00618705
0.00212147
0.00205388
0.00683077
0.0213928
0.00341361
0.00368134
0.00841143
0.00671829
0.00193069
0.00153315
0.00671391
0.0121906
0.00676718
0.00679273
0.00308794
0.00682132
0.00684371
0.00171805
0.0122562
0.0118913
0.00673154
0.00519797
0.00655853
0.00289101
0.00574092
0.00683782
0.00684191
0.00672655
0.00335029
0.0123066
0.00683582
0.00685222
0.0067748
0.00676971
0.00627354
0.00355918
0.00682354
0.00245252
0.00671405
0.00683985
0.00658386
0.00924848
0.00671038
0.00425077
0.006803
0.00257393
0.00279115
0.00166538
0.00302956
0.00169753
0.00671971
0.00203641
0.0107805
0.00683081
0.00850099
0.00681766
0.00683845
0.00640523
0.00676867
0.00804814
0.00679467
0.0114422
0.00404897
0.00920775
0.00136095
0.00353525
0.000858182
0.00675083
0.00188989
0.00690548
0.00664728
0.00828711
0.00682081
0.00105035
0.00681087
0.00681499
0.00684028
0.00139235
0.00623368
0.00671757
0.00176675
0.00354645
0.00539329
0.00298462
0.0116021
0.00966431
0.00671085
0.00275644
0.00679992
0.0118681
0.0114672
0.00658279
0.00641609
0.00682297
0.00301059
0.00341357
0.00681933
0.00689916
0.00683432
0.00183441
0.00673953
0.0022764
0.00683866
0.00671409
0.00684817
0.00103597
0.00629454
0.000783896
0.00207504
0.00354673
0.000302255
0.0079061
0.00679135
0.0065418
0.00682551
0.00216101
0.00677017
0.00104384
0.00676429
0.00625015
0.00681102
0.00433155
0.00319116
0.00880793
0.00682702
0.00309982
0.00682527
0.00680652
0.00821646
0.00150581
0.00680398
0.00160063
0.00671952
0.0066859
0.0068143
0.00932346
0.00673885
0.00597994
0.00679534
0.00681585
0.000974917
0.00681257
0.00169021
0.00686641
0.00671525
0.0117029
0.00224214
0.00683876
0.000457077
0.00107408
0.00066459
0.00146382
0.00674626
0.00575715
0.00830001
0.00102695
0.00435497
0.00654394
0.00622831
0.00688879
0.00683188
0.00430367
0.00272774
0.0048599
0.00798608
0.00295388
0.00321504
0.00677903
0.00573344
0.00319682
0.00127068
0.00567546
0.00683042
0.00585496
0.00333755
0.0067153
0.0068513
0.00685387
0.00632407
0.00683767
0.00293159
0.00238702
0.00677271
0.00186847
0.00682497
0.00969864
0.00681235
0.00683188
0.0123912
0.00274607
0.0114913
0.0068243
0.00671964
0.00683242
0.00613279
0.00308908
0.00679561
0.0029167
0.00342812
0.00719128
0.0118472
0.00586116
0.0115487
0.00529273
0.00690228
0.00681962
0.00890501
0.0108562
0.00422529
0.0030887
0.0150593
0.00671858
0.00682914
0.00656162
0.0048224
0.0118804
0.00337025
0.00627227
0.00402077
0.00210185
0.00646781
0.00163511
0.00234028
0.00681009
0.00679162
0.00687505
0.00320611
0.00618776
0.0010304
0.00616439
0.00646891
0.00300923
0.00674761
0.014667
0.00659736
0.00513495
0.00408271
0.00103399
0.0068942
0.00219754
0.00585298
0.0149054
0.00677179
0.00625518
0.00690643
0.00674732
0.00680423
0.00504615
0.00638329
0.00111508
0.0016883
0.00674332
0.00111189
0.00289085
0.00316204
0.00138308
0.00682323
0.00218718
0.00045233
0.00670689
0.00256614
0.00248782
0.00245898
0.00679966
0.00675782
0.00683389
0.0019926
0.00680713
0.00678938
0.00236869
0.00680143
0.00678677
0.00192567
0.00103196
0.00412631
0.00562289
0.0017344
0.0054543
0.00680265
0.00635052
3.64976e-05
0.00658667
0.00567354
0.00686191
0.00683852
0.00682763
0.00622625
0.00152836
0.00680002
0.00839918
0.006793
0.00816732
0.00659029
0.0031021
0.00682199
0.00191619
0.00611558
0.00877476
0.00374908
0.00684403
0.00905072
0.00678238
0.0057724
0.00346973
0.00390471
0.00655328
0.00680947
0.00676643
0.00988207
0.0033173
0.000112123
0.00493701
0.00674428
0.00239691
0.00670514
0.00623467
0.0149808
0.00671603
0.00705662
0.00390053
0.00390946
0.00166996
0.00616479
0.00674588
0.00683756
0.00204257
0.00674794
0.00684171
0.00671914
0.00683859
0.002304
0.00674192
0.00199835
0.00681202
0.00281607
0.00555726
0.00548434
0.00590493
0.0089371
0.00189319
0.0118151
0.0067162
0.00670004
0.00680247
0.00678259
0.00672935
0.0034161
0.00676124
0.000548148
0.00684394
0.000645142
0.00681604
0.00243795
0.00208424
0.00682786
0.00249927
0.00678327
0.00662316
0.00414402
0.00680001
0.0115617
0.00266966
0.00417267
0.00682641
0.00673817
0.00680745
0.00678513
0.00866366
0.00671829
0.0014742
0.00675782
0.0119982
0.00622824
0.00677918
0.00220829
0.00624896
0.00672073
0.0119529
0.00541566
0.00653525
0.00204029
0.00675287
0.0016325
0.00677471
0.00678366
0.00606531
0.00686612
0.0061433
0.00190963
0.0051772
0.00668292
0.0175399
0.000731911
0.00670432
0.00665774
0.00683999
0.00192589
0.00673547
0.00184724
0.00682996
0.0122772
0.00616206
0.0096779
0.00683619
0.00680969
0.0124978
0.00687692
0.00673349
0.0099693
0.00672049
0.00672454
0.0193698
0.00670285
0.00670087
0.00272522
0.0067014
0.00836455
0.0025293
0.00218016
0.0015865
0.00453175
0.0120833
0.00678684
0.00260483
0.0067384
0.00710514
0.0121048
0.00682346
0.00676848
0.0067086
0.00683684
0.0067975
0.00682843
0.00682086
0.00676056
0.00357051
0.00670683
0.00674871
0.00216319
0.00832676
0.00913869
0.00194886
0.00680611
0.0128176
0.0067488
8.86526e-05
0.0126728
0.000184143
0.00679447
0.00671791
0.00676196
0.00684153
0.0067891
0.00679221
0.00674621
0.00321085
0.00672488
0.000822584
0.018539
0.00674635
0.010248
0.00674043
0.00683474
0.00629954
0.00969102
0.00182046
0.00681991
0.0113701
0.00683026
0.00683461
0.000586019
0.00668657
0.00207256
0.00631405
0.00380575
0.00676884
0.00681739
0.00400859
0.00233504
0.00673412
0.00915021
0.0063418
0.00693246
0.00660732
0.00674164
0.00675232
0.00222554
0.00230175
0.00487291
0.0100267
0.00142277
0.0024641
0.00222435
0.00682452
0.00946871
0.00682137
0.0110663
0.00321642
0.00309603
0.00675761
0.0108429
0.0129372
0.000895472
0.00676137
0.00558627
0.00678754
0.00676012
0.00229265
0.00681483
0.00682668
0.00040614
0.00475447
0.00681932
0.00256562
0.00709743
0.00679898
0.00676794
0.0084054
0.0101072
0.00679775
0.0067896
0.0034277
0.00679277
0.00683349
0.00472214
0.00628474
0.00679395
0.00547963
0.0067572
0.00198531
0.0143631
0.00623836
0.00741788
0.00682528
0.00681938
0.00357981
0.00507951
0.00777867
0.00648368
0.00375531
0.00588479
0.00552711
0.00668585
0.00852105
0.00640156
0.00675369
0.00238395
0.00678253
0.0147927
0.00212175
0.00189073
0.00221629
0.000122297
0.0117191
0.00898811
0.0113769
0.00696432
0.000312682
0.00677369
0.00343426
0.00267302
0.0138175
0.00415449
0.00664702
0.00426948
0.00445253
0.00669734
0.00867042
0.0032528
0.0023986
0.0105851
0.00683025
0.00217905
0.00665847
0.00684373
0.00615132
0.00262249
0.00682316
0.00673806
0.00675496
0.00245835
0.00672867
0.00672009
0.00369885
0.00678577
0.00682503
0.00230397
0.00219702
0.00675295
0.0068227
0.00162959
0.00334789
0.00442657
0.012091
0.00682873
0.00673759
0.0108662
0.00678779
0.00668601
0.0113136
0.00808394
0.00584186
0.00342989
0.0061813
0.00182826
0.00156701
0.00340324
0.00352564
0.00683172
0.00263915
0.00795806
0.0011559
0.00764566
0.00596227
0.00682663
0.00683822
0.00683992
0.00682825
0.00683773
0.00102651
0.00687474
0.00326189
0.00672108
0.00221806
0.00949364
0.0066986
0.00377144
0.00807717
0.00674124
0.00243852
0.0062129
0.00673984
0.00675073
0.00914645
0.00211112
0.00586719
0.00421032
0.00760862
0.00244343
0.00671758
0.00673606
0.00324883
0.00669241
0.00678632
0.000687411
0.00675045
0.00618916
0.00278562
0.00632144
0.00573875
0.00236486
0.00887564
0.00673727
0.00142109
0.00366282
0.0068441
0.0067465
0.00650251
0.00129895
0.000306239
0.00680189
0.00249211
0.006276
0.00785791
0.0025266
0.00682027
0.00672108
0.00682547
0.00674131
0.006975
0.00658018
0.00108653
0.00677677
0.00393544
0.0018101
0.00625116
0.00200475
0.0100589
0.00882542
0.00682309
0.00680406
0.00671613
0.00675737
0.00211829
0.0109787
0.00762452
0.00211841
0.00422516
0.00238582
0.00361164
0.00610332
0.00638136
0.00173276
0.00683385
0.00171871
0.00586099
0.00678813
0.00681968
0.0109703
0.00347636
0.00222537
0.00815864
0.00176723
0.00683018
0.000427761
0.00694708
0.00672204
0.00763269
0.00678599
0.00683261
0.00585742
0.00165065
0.00299587
0.0068033
0.00674132
0.00675018
0.00676769
0.00674162
0.00350044
0.00229274
0.00482724
0.00289452
0.00373755
0.00273539
0.00251811
0.00681976
0.0029487
0.000731711
0.00103944
0.00837693
0.00672471
0.00674121
0.00770488
0.00673144
0.00593887
0.00588089
0.00225856
0.00683663
0.00673579
0.000246462
0.00404539
0.00673741
0.0067364
0.0106645
0.00010046
0.00767915
0.00681358
0.00684235
0.0080201
0.00684355
0.00682178
0.00164595
0.00684681
0.00447076
0.00283977
0.00681061
0.00219633
0.00672351
0.00649981
0.00546871
0.00673678
0.0010826
0.0067265
0.00676192
0.00151496
0.00229254
0.00987543
0.00107059
0.00671894
0.00363024
0.00678538
0.00682776
0.00659711
0.0068024
0.00683495
0.001222
0.00681796
0.00288078
0.00618534
0.00645209
0.00679697
0.00668197
0.00683191
0.00927931
0.00681883
0.00266975
0.00216183
0.00683708
0.00244376
0.00277348
0.00332688
0.00682966
0.00615641
0.00675006
0.00679023
0.0136175
0.00490693
0.00648002
0.0068169
0.00682884
0.00676965
0.00199367
0.00677863
0.0100586
0.00313745
0.00681434
0.00671913
0.00676451
0.0032848
0.00905153
0.0116301
0.0054029
0.0140779
0.00644015
0.002236
0.00657925
0.00780514
0.00672201
0.00681458
0.00508426
0.00546964
0.00676845
0.0106547
0.0068434
0.00682443
0.00155955
0.000663176
0.00176713
0.00715015
0.0040763
0.00156827
0.00945883
0.00682788
0.00802133
0.00674048
0.00682267
0.00586313
0.00674742
0.0108995
0.00658424
0.00675362
0.00676512
0.006829
0.0108461
0.00684377
0.00674182
0.00228223
0.00671978
0.00678119
0.00666324
0.00682484
0.00239427
0.00682505
0.0064662
0.00671297
0.00142495
0.00266611
0.00671432
0.0067157
0.00680179
0.00671898
0.00384097
0.0068063
0.00681776
0.00682548
0.00674977
0.00677987
0.00680616
0.00185392
0.00676638
0.00201787
0.00683446
0.00300376
0.00679744
0.00683339
0.00678971
0.00681734
0.00264535
0.00621487
0.0032349
0.010361
0.00299861
0.0119993
0.0101733
0.00203632
0.00616875
0.00683918
0.00679901
0.000599322
0.0109837
0.00676232
0.0075388
0.00677806
0.00186656
0.0161423
0.00408328
0.00222158
0.0180203
0.0126353
0.00683686
0.00236829
0.00675061
0.00539073
0.00413255
0.0112082
0.0025446
0.00683871
0.00348964
0.000622959
0.00684896
0.00257941
0.0135731
0.00669321
0.00671554
0.00609019
0.0084683
0.00682662
0.00272534
0.00682958
0.000706539
0.00170751
0.00683635
0.00680391
0.000538485
0.00682577
0.00674081
0.0063173
0.00674193
0.000837322
0.00588027
0.00340112
0.0100468
0.00674103
0.00151219
0.0068134
0.00450859
0.0035987
0.00569007
0.0067928
0.00342974
0.00682704
0.00685264
0.00362926
0.00682445
0.00390164
0.00676374
0.00675087
0.00673709
0.0125087
0.00671572
0.0113553
0.00839073
0.0165875
0.00683454
0.0068122
0.00672901
0.0170505
0.00684028
0.00317802
0.00684607
0.000123136
0.00670907
0.00661814
0.000833874
0.00684115
0.00687789
0.0079751
0.0015905
0.0106117
0.00674544
0.00858208
0.00327448
0.00684107
0.00889469
0.00684281
0.00632834
0.00670223
0.00662648
0.00285204
0.00565839
0.00571843
0.00219652
0.00678884
0.00175324
0.00674343
0.012589
0.00672593
0.00458426
0.00674494
0.00674869
0.00657602
0.00544912
0.00681596
0.00324057
0.0018768
0.019204
0.00674799
0.00456608
0.00948023
0.00132924
0.00226493
0.00273257
0.00679926
0.00165091
0.000237696
0.00655139
0.000762233
0.00681421
0.00137051
0.00246138
0.00682301
0.002594
0.00671922
0.00779404
0.00104977
0.00660757
0.00654342
0.0137806
0.0121051
0.0067329
0.00592998
0.00674765
0.00684025
0.0065909
0.00316712
0.000689527
0.00682321
0.00381063
0.010993
0.00585544
0.0139703
0.00112464
0.00671757
0.00673341
0.00124131
0.0106531
0.00704699
0.0146751
0.00120423
0.00242506
0.00399151
0.010076
0.0096812
0.010104
0.00671565
0.00266372
0.00329692
0.00291909
0.00679969
0.00313163
0.00338608
0.00167828
0.0167881
0.00669549
0.00628757
0.00977342
0.0023465
0.00673306
0.00673587
0.000715366
0.00682273
0.0118979
0.0038607
0.00662358
0.00143305
0.00593883
0.00671421
0.00317177
0.00287941
0.00680379
0.0105516
0.00614364
0.0113399
0.00683298
0.00964008
0.000186514
0.0012006
0.00682006
0.00474356
0.00566433
0.00203438
0.00194411
0.0021545
0.0067223
0.00117868
0.00673481
0.00485216
0.00668924
0.0014604
0.00249398
0.00680332
0.00671254
0.00675852
0.000313496
0.00206556
0.00683168
0.00224208
0.00143765
0.0067208
0.00598592
0.0065785
0.00980565
0.00609065
0.00767177
0.00353354
0.00340909
0.00648787
0.000611764
0.00674784
0.00228381
0.00821069
0.00372932
0.0014035
0.00240421
0.002241
0.0102859
0.00877123
0.00678592
0.0139301
0.00137507
0.0067459
0.00173746
0.00283903
0.00199367
0.00280055
0.00044149
0.0164698
0.00206024
0.00890023
0.00452046
0.00216413
0.00679459
0.00682422
0.00681891
0.00674487
0.000718393
0.00173178
0.00682085
0.00325654
0.00135406
0.00674421
0.00567037
0.00859474
0.00681658
0.00684003
0.00679025
0.00676507
0.00244825
0.00674365
0.00752041
0.00315647
0.00296113
0.00626221
0.00298999
0.00438592
0.00530517
0.0100712
0.00680571
0.00675416
0.00681896
0.00682784
0.0103219
0.00229315
0.00507214
0.009148
0.00681927
0.00681616
0.00548478
0.0067832
0.00682257
0.00150282
0.00418647
0.00747669
0.0100516
0.011257
0.00678377
0.0130948
0.00674751
0.000333034
0.00671317
0.00153741
0.0108537
0.0067667
0.000491325
0.00691105
0.00376113
0.00682664
0.00682177
0.00455458
0.00810642
0.00673936
0.00682986
0.00689726
0.00697171
0.00122042
0.00682843
0.00420753
0.00671736
0.00689844
0.000538769
0.0032903
0.00656782
0.00132854
0.00149823
0.0110263
0.00764293
0.00689852
0.00677122
0.00802806
0.00680936
0.00236715
0.00679963
0.00656024
0.00674481
0.00680115
0.00558348
0.00898654
0.00673054
0.00679486
0.0067188
0.00160222
0.00105005
0.00189533
0.00673048
0.00657503
0.00672861
0.00979076
0.00679141
0.00168015
0.00227389
0.00681838
0.00090085
0.00522505
0.00288062
0.00502537
0.00682352
0.00364552
0.00284206
0.00150104
0.00682805
0.00682846
0.00675608
0.0102888
0.00678494
0.00682051
0.00856661
0.00670883
0.00643295
0.00429766
0.00682736
0.00682387
0.0143987
0.00375031
0.0175266
0.0129054
0.00675102
0.00124447
0.00683615
0.00209595
0.00286364
0.00680318
0.00682099
0.0067465
0.00674344
0.0127343
0.00231538
0.00905343
0.00963166
0.0067548
0.00604365
0.00246849
0.000857938
0.00675506
0.00888601
0.00856123
0.00529156
0.00678635
0.00592218
0.00682632
0.00894084
0.0102302
0.00664087
0.00674385
0.00321623
0.00602733
0.00682204
0.00575768
0.006704
0.00190681
9.80856e-05
0.00671925
0.0090181
0.00586179
0.00673156
0.00586828
0.00230155
0.00158547
0.00642514
0.00337828
0.00628915
0.00684379
0.00617463
0.00681644
0.00232868
0.00192836
0.00681638
0.00422288
0.00111858
0.0102019
0.00673583
0.00201375
0.0128688
0.00229681
0.00679758
0.00680884
0.0134576
0.00275979
0.0020578
0.00680904
0.0135049
0.00218664
0.00677479
0.00474642
0.00438144
0.00684029
0.0006594
0.00684046
0.00631141
0.00680806
0.00671547
0.006835
0.00671938
0.00792122
0.00681629
0.00672988
0.00221851
0.00327348
0.00648941
0.00154853
0.00683443
0.00673268
0.00673106
0.00679063
0.0145401
0.0143007
0.000107236
0.0116681
0.00451021
0.0127229
0.00485311
0.00990004
0.0112013
0.00816711
0.00675979
0.00571868
0.00675718
0.00684284
0.00683069
0.0066664
0.00124647
0.00226403
0.00252268
0.00674173
0.00673296
0.00219174
0.00683161
0.00683289
0.00683807
0.0104505
0.00337702
0.00167257
0.00677817
0.0134539
0.00682621
0.00680704
0.00679683
0.00245005
0.006755
0.00250492
0.00975126
0.00225718
0.00725467
0.0133779
0.0069013
0.00369906
0.013597
0.0019605
0.00682256
0.0068294
0.00675305
0.00959701
0.00672055
0.00283946
0.00504104
0.0027192
0.0164729
0.016539
0.0021989
0.01065
0.00682685
0.0067094
0.00460055
0.00249257
0.00679199
0.00678724
0.0034805
0.00671655
0.00111294
0.00684619
0.00680393
0.00638251
0.0067852
0.00291306
0.00965928
0.00810346
0.00422001
0.00682166
0.00153318
0.00677305
0.00269402
0.00674092
0.00166326
0.00226237
0.00683166
0.00684023
0.00676154
0.00174903
0.00451125
0.00120371
0.000975927
0.00361547
0.00452675
0.00201671
0.00200433
0.007509
0.00674985
0.00982929
0.00679634
0.0102958
0.000266971
0.00966803
0.00730024
0.00685955
0.0036726
0.00535183
0.00683846
0.00544558
0.00682971
0.00679513
0.00388001
0.0068173
0.00291003
0.00113441
0.000743325
0.00781196
0.00426413
0.00233854
0.00677126
0.00680142
0.00680899
0.00173042
0.00195692
0.0113135
0.00267181
0.00682197
0.00674465
0.00680269
0.0010223
0.00654813
0.0067532
0.00516818
0.00131344
0.0028597
0.00251287
0.00388209
0.0100324
0.00357083
0.00288826
0.00675418
0.00334535
0.0003919
0.00196114
0.00198779
0.00678552
0.00671787
0.00326196
0.00680261
0.00297499
0.0105737
0.00796004
0.00319404
0.00671879
0.00907572
0.00682973
0.00672133
0.00682513
0.006753
0.000617501
0.00690277
0.00355735
0.00591054
0.00686932
0.00421377
0.00336701
0.0115257
0.00350507
0.0100689
0.00682345
0.00478078
0.00658455
0.00921136
0.00325298
0.00682247
0.0111472
0.0067592
0.00679626
0.0103115
0.00288331
0.00334173
0.000320962
0.00356258
0.00606988
0.00165668
0.00679727
0.00672476
0.00678031
0.00336335
0.00675235
0.00553267
0.00399662
0.00775679
0.0012177
0.00680654
0.00560163
0.00684808
0.0106899
0.00765842
0.00678153
0.00683143
0.00336707
0.00131615
0.00124795
0.00308229
0.0103814
0.00873799
0.00149648
0.00664467
0.00220226
0.00695797
0.00469044
0.000456309
0.00684375
0.00683666
0.00677378
0.0067738
0.00673059
0.00273672
0.00813231
0.00559576
0.012755
0.00497175
0.00133464
0.0112122
0.0109328
0.00595076
0.0106019
0.00188208
0.00191714
0.00671206
0.00683777
0.00219283
0.00569469
0.00671236
0.00791357
0.0110984
0.00677611
0.00680746
0.00676228
0.00155919
0.00681909
0.0028628
0.00981369
0.00673365
0.00672041
0.00676464
0.00680685
0.00207299
0.00930461
0.00311665
0.00370137
0.00198584
0.00673979
0.0132407
0.00171364
0.00685832
0.000232495
0.00100603
0.0111618
0.0030204
0.0071534
0.00683971
0.00242568
0.00970464
0.00145563
0.00460334
0.00683168
0.00668402
0.00660575
0.00406662
0.00679912
0.0031049
0.00683129
0.00397234
0.0123467
0.00945106
0.00665908
0.00669064
0.0121396
0.0108041
0.00682144
0.00456274
0.00207065
0.00672929
0.00672935
0.0104342
0.00674533
0.00102659
0.0133044
0.00729691
0.0067509
0.00144558
0.00125018
0.00679812
0.00680208
0.0110527
0.00705532
0.00679472
0.0052987
0.00118256
0.00110397
0.0111163
0.00241941
0.0050666
0.0126629
0.0117602
0.0032073
0.0067173
0.00272904
0.00671392
0.00681694
0.00726838
0.00257194
0.00228798
0.0041722
0.0062701
0.00682039
0.00675429
0.0068105
0.00664925
0.00566494
0.00424613
0.000741259
0.00290996
0.00290214
0.00223821
0.008683
0.00888244
0.0065459
0.00678105
0.00397077
0.00327721
0.00506347
0.00134936
0.0132215
0.00681226
0.00116293
0.00873954
0.00489137
0.00197109
0.00213159
0.00195806
0.00188155
0.00558552
0.00182454
0.00167485
0.0015322
0.00139344
0.00194619
0.00205317
0.00614232
0.00672213
0.0030706
0.00192829
0.00675152
7.0321e-05
0.0107212
0.00144212
0.0109055
0.0067892
0.00679376
0.00887544
0.00505111
0.00658943
0.00659515
0.0024275
0.0102975
0.00445699
0.00682684
0.00559588
0.00433455
0.00130289
0.0117403
0.00360387
0.000244629
0.00953934
0.00168458
0.0102253
0.00226718
0.0075365
0.0109823
0.00669489
0.00955395
0.010287
0.00677907
0.00295065
0.00219305
0.00633863
0.00680517
0.0010766
0.0183862
0.0068302
0.00683139
0.0107625
0.000158091
0.00265575
0.00684201
0.00111327
0.00146587
0.0112013
0.0070703
0.00680004
0.00672871
0.00680403
0.00691383
0.009001
0.00429184
0.00921763
0.00198688
0.000310881
0.0103295
0.00692473
0.00672601
0.00934063
0.00682965
0.010258
0.0067984
0.0105365
0.00656178
0.00678446
0.0140108
0.00677868
0.0017621
0.013188
0.00683672
0.00662509
0.00634238
0.00128102
0.00739519
0.00147681
0.0110761
0.00697832
0.00691481
0.00347468
0.00274324
0.0101043
0.0101472
0.00221537
0.00106678
0.001576
0.00310645
0.0067409
0.0068275
0.00673694
0.00671247
0.000446856
0.00230085
0.0075495
0.002292
0.00153253
0.00678524
0.0119548
0.00155035
0.00245186
0.00672914
0.00597106
0.00672136
0.0104094
0.00559235
0.00206335
0.000579941
0.00183468
0.000962855
0.00675709
0.00288231
0.00152795
0.000311139
0.000130635
0.00675597
0.00147311
0.00681944
0.00677649
0.00141194
0.0102813
0.0024801
0.00683433
0.00246558
0.00106112
0.0117839
0.00348895
0.00883541
0.00754298
0.00682054
0.00331781
0.00682692
0.00153324
0.00683104
0.00196506
0.00666811
0.00288276
0.0122096
0.0144493
0.00695435
0.00137141
0.0103886
0.00188699
0.00662593
0.00822982
0.00203894
0.00688342
0.00674507
0.00706506
0.00365631
0.00175086
0.000129826
0.00819013
0.00482516
0.00691571
0.00676658
0.00972812
0.00830831
0.00125158
0.00328288
0.00163174
0.00179313
0.00818487
0.00325985
0.00681212
0.000499684
0.00336804
0.000298157
0.00489948
0.00735564
0.0002884
0.000904639
0.00308836
0.0180538
0.00656136
0.00816529
0.00151144
0.00150208
0.00204073
0.0067164
0.00672635
0.00901059
0.00943819
0.00633001
0.00682031
0.00220834
0.00571815
0.00591195
0.0026027
0.0101777
0.00488646
0.00991873
0.00179686
0.0159882
0.00681566
0.00127735
0.00918633
0.00696824
0.00223618
0.00677242
0.00437805
0.00681001
0.0123076
0.0067703
0.00679073
0.0108195
0.00305691
0.00671171
0.0102819
0.00680058
0.00683624
0.00674585
0.00681721
0.00682508
0.000229901
0.0114043
0.00676962
5.91447e-05
0.00213681
0.00234425
0.000849817
0.00202735
0.00501411
0.0025343
0.00671883
0.0122373
0.00566381
0.00980656
0.00692241
0.00550034
0.000471563
0.00290723
0.000991158
0.00960673
0.00671626
0.00628322
0.00354916
0.00231426
0.00444815
0.00680015
0.00531332
0.001225
0.00679862
0.00141378
0.00672101
0.00771863
0.00155504
0.009194
0.00130218
0.00135447
0.0106537
0.00683315
0.00683249
0.00231937
0.00673261
0.00682904
0.00683104
0.0047516
0.00678115
0.00672635
0.00676732
0.00215901
0.00669433
0.00549313
0.00685318
0.00433725
0.00213802
0.00664773
0.00791763
0.00647657
0.00674259
0.00200746
0.00241179
0.00689339
0.00678831
0.000290568
0.00357422
0.0087415
0.00361592
0.00192799
0.00673324
0.00683891
0.00133128
0.0113294
0.00209951
0.00303757
0.00673262
0.011293
0.00681433
0.00672629
0.00206825
0.00410051
0.00142945
0.0104789
0.00168788
0.00178701
0.00231595
0.00477619
0.00684172
0.00682821
0.00318191
0.0128974
0.00227825
0.00214231
0.00896847
0.00482685
0.00681831
0.00335172
0.00110948
0.00222775
0.00680309
0.00193238
0.00220128
0.00312425
0.00682171
0.00679406
0.00108285
0.00316979
0.000634556
0.0128049
0.00660683
0.00223582
0.00682435
0.00239045
0.00342249
0.00684236
0.00133343
0.00683059
0.00251036
0.0172814
0.00678697
0.00683559
0.00672062
0.0104401
0.00108601
0.00665781
0.00135241
0.00194054
0.00682076
0.0068396
0.000540622
0.0102741
0.000990484
0.00990646
0.00153236
0.0026836
9.76498e-05
0.00179207
0.00280135
0.000784145
0.00218402
0.00212648
0.00680566
0.00218995
0.00163826
0.00679787
0.000309907
0.00262261
0.00169919
0.00478745
0.00149758
0.00677944
0.00608207
0.00340717
0.00671363
0.00683143
0.00673815
0.00676366
0.00679117
0.00679903
0.00361644
0.00683928
0.00680386
0.0121864
0.00206701
0.00680471
0.00314826
0.00523756
0.00669071
0.00674589
0.00247692
0.00620434
0.00217617
0.00679131
0.00677873
0.00295536
0.000611956
0.00682388
0.00681287
0.00192013
0.00377941
0.00226387
0.00329111
0.00683336
0.00120249
0.00373907
0.00680339
0.00151549
0.0107668
0.00690909
0.00340215
0.0068324
0.00309107
0.00682529
0.00532765
0.00675245
0.00678283
0.00489168
0.0032299
0.000292738
0.00358946
0.00680079
0.0043601
0.0108265
0.00185529
0.00127313
0.00179968
0.00679824
0.00361829
0.0191832
0.00111258
0.00146752
0.0048356
0.00892738
0.0124664
0.00577272
0.00682776
0.00272395
0.00680585
0.00223653
0.011098
0.00683739
0.00416843
0.006841
0.0104495
0.00313772
0.00679221
0.00284468
0.0104374
0.00215299
0.00439395
0.00224667
0.00327625
0.00671145
0.0101991
0.00672403
0.00340015
0.00673764
0.00640405
0.00883629
0.00211707
0.00681039
0.00583131
0.000739452
0.00683206
0.00683532
0.00367309
0.00636168
0.00679393
0.00439495
0.00649541
0.00682669
0.0067564
0.00223161
0.00205406
0.00127514
0.00671987
0.0022746
0.00932429
0.00521216
0.00678431
0.006841
0.00307481
0.00188033
0.00681412
0.00677536
0.00677223
0.00682698
0.00626293
0.00340224
0.00690939
0.00218345
0.00660512
0.0067505
0.00667477
0.00236207
0.00349337
0.00199542
0.00681471
0.00431027
0.00859148
0.00577309
0.00332558
0.00525929
0.00962386
0.00214609
0.00236543
0.00137774
0.0068368
0.0122078
0.00609604
0.00393366
0.00673451
0.00671941