/*--------------------------------*- C++ -*----------------------------------*\
| =========                 |                                                 |
| \\      /  F ield         | OpenFOAM: The Open Source CFD Toolbox           |
|  \\    /   O peration     | Version:  v2012                                 |
|   \\  /    A nd           | Website:  www.openfoam.com                      |
|    \\/     M anipulation  |                                                 |
\*---------------------------------------------------------------------------*/
FoamFile
{
    version     2.0;
    format      ascii;
    class       volScalarField;
    location    "550";
    object      omega;
}
// * * * * * * * * * * * * * * * * * * * * * * * * * * * * * * * * * * * * * //

dimensions      [0 0 -1 0 0 0 0];


internalField   nonuniform List<scalar> 
13917
(
5.2229
0.0384834
0.195506
0.0221484
0.0283555
0.0378844
0.0260729
0.0846135
0.0249864
8.94042
0.0789153
0.0217263
0.0244822
1.55582
0.0273359
6.81622
0.0220008
0.0662783
0.102319
7.09892
0.0327355
0.0216938
0.0420127
0.0216952
0.0230821
0.0347516
1.67173
11.4535
0.045559
0.0200928
9.90753
0.0606717
0.0221716
2.98211
0.0214067
0.104634
0.0237754
0.0238439
0.0261074
0.0365912
0.0218707
0.0217719
0.0236863
0.096901
0.096227
0.199507
0.0310928
5.08885
1.29341
0.0214216
0.0216953
0.105924
16.3237
0.0216536
0.0217212
0.104968
6.71016
0.0420181
0.0216464
0.14822
3.49574
0.0295275
0.0209057
0.0229151
3.08213
0.0362235
0.0501524
0.0909673
0.073096
5.73226
2.84458
3.09845
0.0217078
0.0214156
0.033558
0.0235129
0.0243378
0.0213269
0.0233159
0.0222401
0.0221947
0.0221202
0.0216936
3.01013
0.021148
0.123211
0.0585957
0.0216208
0.0363023
0.0219264
0.0207882
0.0238359
1.26491
0.0211119
0.0221446
0.0498293
0.532232
0.022407
0.0215216
0.112205
0.0213412
0.0212503
0.0222366
0.0215234
0.02427
3.32604
2.79006
0.0294245
0.0220558
1.76623
0.0215367
2.9431
0.0454114
5.76696
3.08874
0.023895
0.0958211
0.0209328
0.165031
0.0216385
0.0220218
0.021066
0.0554371
0.0847457
5.32687
3.11322
0.0227622
0.0353363
0.0211411
0.0859646
0.0309372
0.128419
3.52289
0.0238558
0.070885
1.77724
3.29597
5.23037
0.0370883
0.0237906
0.881348
0.0211837
3.3154
0.021184
0.02164
0.0242768
2.81835
0.575761
5.55136
0.0216866
0.0337787
0.0211164
0.0216208
0.0216468
1.18316
0.0223506
0.0214584
3.49782
0.0215489
0.0211239
0.0211282
2.85624
0.025618
0.853301
2.62302
0.115399
23.0109
3.52683
0.0196064
0.0394016
0.0218191
3.40971
0.0249493
3.1253
0.0641592
0.0213097
0.0221515
0.116159
0.0302805
0.0261542
0.0235922
0.021731
0.0216936
0.167701
0.170772
0.110228
0.0216683
0.167744
0.0201106
0.109583
0.0642484
0.0889523
0.127347
4.99152
0.0211188
5.13547
0.0253543
3.59084
0.0213723
0.0221251
0.0292454
5.5128
6.65813
0.0234355
1.73983
0.0346628
0.0341018
0.0211848
0.114777
0.0221904
0.0208816
0.0348511
0.0367312
4.84865
0.0689302
0.0365081
2.93599
0.0226951
0.0203711
0.0203595
3.83963
0.148363
0.13732
0.0213621
0.021047
1.7946
6.16927
0.0203163
0.020302
0.0218869
0.0203848
0.0203752
3.24602
3.22083
0.0218532
0.0196158
0.0685629
3.33202
0.0217033
0.0213595
1.78961
3.37178
0.172631
2.92759
0.0876846
0.0211917
2.90303
0.0712923
0.0423114
0.068751
0.0232026
3.51736
0.0216496
0.0390867
0.0582316
0.0219577
0.0220041
0.0228939
0.0265722
0.0214854
3.69998
1.11357
0.0210612
0.020302
0.0224639
0.0203058
0.0216539
0.0244606
0.0347099
0.0211824
4.18546
2.72204
0.0214855
0.0247444
0.827926
0.0202682
0.084935
3.3217
0.0202791
4.23709
0.0213944
2.85031
0.0213856
0.0258969
0.0220276
0.0211526
0.135074
0.0228699
0.130721
0.0275052
1.08239
0.0248797
1.15157
5.47634
0.0212024
0.0477665
0.0271217
0.0241638
0.0278134
0.023275
0.0211847
0.0224732
0.114261
0.0363352
0.0379966
0.0231281
0.0213427
3.53764
8.24798
0.0210642
0.0230534
0.024198
0.742081
0.113463
2.74648
2.88797
0.0258534
0.139465
0.0244595
2.85482
0.822452
0.194996
0.0242833
0.0270773
1.59899
0.0220648
0.0413357
0.0880429
0.021868
3.40725
0.0211938
0.0382678
0.0205098
18.683
0.0207956
0.0359273
0.0352701
0.0267565
0.0217574
0.0687954
3.11621
0.0220482
0.0220566
2.92799
3.18522
2.72099
1.55471
0.0202552
0.0218142
3.43463
0.1393
0.0202682
0.027729
0.0216634
0.0514275
0.0369195
0.103141
0.084244
0.0856851
0.0378958
3.14782
0.0211779
0.0220553
0.0298587
0.164935
0.0218134
6.01297
0.037678
0.277561
0.021761
0.109364
0.0232386
1.21511
0.0217904
0.156646
0.699944
0.0377897
0.0215066
1.70905
0.0207496
2.63975
0.136832
0.0217969
1.22565
0.0223859
0.271562
0.0207141
6.02421
0.272083
0.0233397
1.83534
0.0750122
0.0228769
2.70019
0.210905
0.022971
0.136418
0.0217281
0.0766239
0.194197
0.0212184
0.0255646
0.0231027
0.021139
0.0209312
0.0212256
3.05673
0.114247
0.0218928
0.0212843
0.0215468
0.0466538
0.272602
0.0203311
0.0196255
0.111704
0.1091
0.0211774
0.0232078
2.65734
1.53852
0.0372152
0.108152
2.59452
0.0207903
0.0202939
0.0300649
0.0209214
0.0203435
0.0219282
0.0203092
0.0207306
2.89538
0.0217699
0.0392368
3.82937
0.0474067
0.0209
0.0216032
2.72328
0.0292884
6.5012
0.020439
0.0213411
0.0208302
0.0203984
0.023668
0.0225698
2.62866
0.0254779
3.41949
0.0213355
0.0331692
0.0254631
0.0221266
0.0857621
2.7094
0.0216324
1.74541
0.0209322
0.0213435
0.0215039
0.0224037
0.0208386
0.0222006
3.49229
3.33032
0.0208213
1.32201
0.109527
0.0218576
0.05175
0.0654467
2.66153
0.0262381
3.34775
0.281784
0.286581
0.0225927
0.0287969
0.0259426
0.0230793
2.46825
0.0209378
0.0216045
0.0221502
0.025275
0.0319564
0.145947
0.0491656
0.0243173
0.0255426
0.0635943
0.0504172
0.0218948
1.43393
0.0340545
0.0275253
2.67878
0.0211566
0.0523179
0.128247
0.0208371
3.31609
0.0214494
0.0203952
0.0478477
0.0204473
0.0224783
0.113053
3.57357
1.79846
0.0211247
0.0223342
0.0231427
2.26119
2.332
0.0218009
0.0216909
0.0211063
0.054071
0.487466
0.0211982
0.0217285
0.0220519
0.0211202
0.0255929
0.0275795
0.021149
0.0499226
0.0208399
0.0215847
0.0229767
2.80654
0.0204126
0.0234517
0.0214905
0.0322509
0.0606398
0.0557063
0.0605682
0.120415
0.0227663
0.0564367
3.59802
2.82389
3.46408
0.0209942
0.0214617
0.0256337
0.0214116
3.13513
0.0203004
0.709404
0.0253431
3.4604
0.0927372
0.0236787
5.13527
0.0208121
0.0569343
0.0223055
0.0224525
3.46841
0.0203763
0.199253
0.0211349
0.0228131
0.0215025
0.139465
0.0260321
0.0202775
0.0978846
0.0506824
0.374528
2.67384
3.61944
2.63644
0.0204201
6.00726
0.0205332
3.37958
0.520133
0.0229322
0.0237431
0.0212862
0.0336291
0.0233766
0.0203898
0.0223218
0.0242219
2.36963
0.021173
0.054982
0.0215744
0.0202661
0.0215139
0.131708
2.7549
12.1389
0.0644633
0.0274528
0.821987
3.23084
0.02074
2.66028
0.0239895
0.0881445
0.0214057
1.35728
0.0211016
0.0259203
0.0216604
0.321509
0.0348867
3.08117
0.0212402
0.0334861
0.0213834
0.0214451
3.024
0.118025
0.0215674
0.112189
0.0213423
0.0221573
0.021228
2.89724
0.0211769
0.0270258
0.0202896
0.0214704
0.164032
0.0211524
0.104332
0.0222799
0.0208127
3.43978
0.0565716
0.0217507
17.8143
0.191338
0.114345
0.134254
0.0207961
0.0282715
2.90271
0.214351
0.0289158
0.0237886
0.0261954
0.0221323
0.0212163
0.0397737
0.0654424
0.0246061
2.91534
0.0352947
0.919591
2.39199
0.0371044
0.0343059
0.124717
3.79524
0.0211898
0.0302048
0.0764369
0.0208242
0.0213667
0.0214937
0.0245658
0.0224793
5.7223
0.0327271
0.0212017
0.0820788
0.0211356
2.73492
0.0213873
0.0211392
3.4798
0.0570757
0.321014
0.0217593
0.0212397
0.0211118
0.0220555
0.0273899
0.0211399
6.01588
0.0293476
0.491069
0.326325
0.030009
3.64472
0.0223397
0.0221957
0.0214428
3.21382
1.83266
0.0257136
5.74658
0.698895
0.020806
0.0210992
0.0236803
3.25211
0.319409
0.0351447
0.0220245
0.0234492
0.0909178
0.0238567
0.102458
0.0328699
0.0220907
0.0222627
0.0222364
0.0273062
0.025526
0.216921
0.0245141
0.0240711
5.75818
0.0212616
0.70743
0.0235016
0.0325241
0.0251748
0.20658
0.0219829
0.053744
2.72858
0.256118
0.0214343
0.0245372
0.0231912
0.0213325
0.0216478
0.0317092
0.0255974
0.148239
0.104975
0.0207702
0.190753
0.0249384
0.0253034
0.115593
0.0219002
0.0568342
0.414832
0.0202995
0.05711
0.0749176
0.0325827
0.0210395
0.0208652
0.0212063
7.06939
0.0221328
0.0215551
0.0378143
0.0211636
0.0209456
0.100291
0.122728
0.0374166
1.65123
0.0475489
3.48764
0.021653
0.0247816
0.338023
0.0229056
0.0301268
0.0217364
0.0213252
0.0217351
0.0249522
0.057614
0.0210353
0.0465096
0.0219038
0.453356
0.0235359
0.026178
0.020517
0.0695567
0.02614
2.79051
0.0387696
0.0221558
2.78579
0.0223418
3.91671
0.0232057
0.056612
0.0234091
0.020928
0.0214196
3.34155
0.0272298
0.148684
1.6281
0.0213273
0.0328338
0.0196007
0.0257429
0.518629
0.0196308
2.76114
0.023522
0.056503
0.0937465
0.53297
0.0204302
0.0214121
0.0927293
0.0207866
0.0216199
0.0227826
0.021419
0.0379224
0.0204185
0.101805
0.0220878
5.56969
4.02939
0.621307
3.48927
1.74444
7.43154
0.782694
0.0207458
0.022046
0.0215447
0.0223467
0.0211099
0.0273402
0.0212139
0.337107
0.0216529
1.5351
0.0220577
0.0294658
0.0810421
0.0210342
0.0390904
0.0223403
0.0226559
0.0254145
0.0207493
3.73767
0.0699731
0.0443244
0.0210619
0.021502
0.0218972
0.0219776
2.6355
0.0207675
0.11508
0.0210855
0.274764
0.0256007
0.021195
0.0553543
0.0299681
0.0207786
0.330569
2.61079
0.0237817
0.0693131
0.0207676
0.114277
0.0210338
0.0219771
3.50611
0.0216866
0.0222167
0.0807757
3.84051
0.0214929
0.830507
1.0576
0.0219239
0.0229476
0.0214613
2.24675
0.0214747
0.105075
0.0216458
3.36257
0.0259261
2.3661
0.0212871
0.0201961
0.285168
0.0229936
0.0211233
3.61809
0.0227418
0.0209199
0.869334
0.0219201
0.0220383
0.0646103
0.0228766
3.13986
0.037077
0.0652601
0.12251
0.0233955
3.30495
0.0222819
0.0606254
0.0213816
3.65989
0.27706
0.0218105
0.0210681
0.0220986
0.0218039
0.0208967
0.0207862
0.0211235
0.021413
0.0280363
0.0203001
0.0225784
0.0645372
2.61994
2.79428
0.0751751
0.0219066
0.286188
0.021172
0.338232
0.487579
23.9767
0.0203559
0.0207552
0.0217154
0.021567
0.020335
0.0208145
0.0212377
0.0353555
0.0209272
11.5541
0.856868
0.0209546
3.36471
0.0213919
0.0212351
0.0281699
2.86581
0.0548529
0.0212531
0.314745
0.0212394
0.0212449
0.205546
0.0221501
1.03871
0.0222909
0.0635198
0.0209087
0.0211223
0.0294887
0.241259
0.0226784
3.05457
0.0317221
0.023048
0.0232339
0.0214989
0.0208467
0.0809674
0.0319551
0.0244559
3.10364
8.21707
0.151467
0.0854283
0.0210658
3.22951
0.0210673
2.83156
0.0565576
0.0256483
0.022524
2.54916
1.77905
2.2082
0.0225178
0.41267
0.0209068
0.0212195
0.0329747
0.0220376
0.0216234
0.392646
4.12664
0.0211217
0.0264732
3.39765
0.0211263
0.0202761
0.707967
2.74761
0.0222417
0.0206234
0.0257158
0.0215819
0.0211997
0.0316331
0.025136
0.0215282
0.43024
0.0225523
0.111589
0.512824
0.0309116
3.54633
0.0217849
0.0220153
0.0657467
3.85795
0.217793
0.023555
0.030627
0.0219435
0.0223175
0.0214435
2.77204
0.0250902
0.0222333
0.0477327
0.0211535
0.253929
0.0676444
0.102313
0.0528469
0.361268
0.319057
2.61693
3.12622
0.0238368
0.353422
0.0202925
0.0525637
0.0697273
0.512974
0.0241671
0.0224616
0.0248965
0.846701
0.0228668
2.64526
0.0328137
0.0780484
2.67666
0.0213099
0.0873431
0.0231441
0.0216048
0.0271773
0.098985
0.0203236
0.0207203
0.0225494
2.8495
0.0209177
0.0227533
0.0233753
0.022279
0.0215166
0.0814756
0.0610453
0.0222374
0.0210256
0.0853455
0.0465192
0.0346685
3.37789
0.0218009
0.021444
1.78148
0.0215628
0.0229465
3.15911
3.432
0.0285379
0.0526389
0.0257918
7.66434
0.117815
0.0307845
2.67253
0.021157
0.0708471
2.6073
0.176137
0.414725
1.04153
0.02071
0.0215469
0.0243763
0.0215365
0.0216312
0.217728
0.0216953
0.0409582
0.0204984
0.0509066
2.70914
0.0229028
2.39936
1.73341
0.0214422
0.0665762
0.0255205
0.0226332
0.0213332
3.30776
0.063302
3.63724
0.0265288
3.82104
0.0764324
0.0212703
0.495196
0.032981
0.0228279
0.0212076
0.147571
0.0213399
0.0249579
0.0344391
0.0249346
0.0219712
0.0495834
2.30196
0.0211403
0.147309
0.0659706
0.0216185
0.0211499
0.0242259
1.93232
0.251128
0.020867
0.0287548
0.0254049
0.715703
6.65339
0.0215856
0.0209452
0.0207075
0.0215048
0.0246355
0.0235542
2.38295
0.0220505
0.0239019
0.126994
0.0256511
0.0742633
2.77999
3.70293
0.0217851
0.0215696
0.020896
0.0225017
0.061226
3.79507
0.0322888
0.0833465
0.0288725
0.0450353
0.0232985
0.031984
0.0247201
0.0948324
0.0211111
0.106651
0.0320904
0.0207777
0.0217435
2.98802
0.0445093
0.0987802
2.62397
0.10923
0.0211143
0.518541
0.0235848
0.0212343
2.72087
0.496531
0.0211274
0.0284984
0.0929219
0.031826
0.0221568
0.0204003
0.021162
0.0208737
0.0213308
0.0283171
0.0464818
4.46766
0.0322422
0.0250586
0.0297787
0.0739038
0.0209911
0.0320233
0.147771
0.201017
2.70887
0.0226805
0.0203844
3.54286
0.021056
0.201109
0.0226856
0.0394141
0.0218372
0.0211076
0.17645
0.025473
0.022603
0.0214924
2.51615
0.35106
3.29535
0.0217547
0.0215183
1.05155
0.021108
0.0208092
0.105566
0.461619
0.0259585
0.031375
0.0220978
2.80849
0.0212428
0.0240223
0.0219724
0.0203691
0.193102
0.0212381
0.0208555
0.493047
0.0520828
2.27451
0.195121
0.0211829
0.0286632
0.0209518
0.0210766
0.0232816
0.0225084
0.0215998
0.165983
0.0215768
0.0641785
0.0267116
0.0254291
0.021599
0.0221752
0.0211785
3.3558
0.0203101
0.602246
0.0613578
0.0228165
0.0468532
0.0313308
0.0289387
0.0215027
0.0262799
0.020935
0.020774
0.275163
0.0344378
0.0278743
0.0214174
0.0212892
0.0210837
0.0663091
0.0211561
2.88376
0.0416456
0.0211829
0.0213107
0.0206321
0.0414221
0.0226922
1.76586
0.0309468
0.241299
0.0253339
0.0841589
0.0235303
2.83099
0.0204912
0.0202709
0.0243713
0.169317
0.0206594
2.9486
0.0215686
0.0215355
0.107922
0.14608
8.28791
0.0415254
0.0249979
0.134013
0.0252157
0.0207468
2.84814
0.0214022
0.0212933
2.19517
0.0205612
2.9704
0.0469704
0.0210688
0.0214263
0.0207797
3.64936
0.0215533
0.0203985
0.0660315
0.0211883
0.0209227
0.0218045
0.0207653
0.0409278
0.0216851
0.0238677
0.0207064
1.26704
0.0479884
0.0207256
0.0207331
0.0221964
0.0212952
0.0235217
0.0218213
0.0213063
0.0217104
0.0214522
0.0223632
0.021485
0.0584157
0.020627
0.0699767
0.0216145
0.0445013
0.0208363
0.0215809
0.0211452
0.0203531
0.0338486
0.0256202
0.0245469
2.36436
0.0315568
3.41086
2.79725
0.0698051
3.54726
0.0215731
0.0214643
0.578029
2.74438
0.0211633
3.34011
0.0207186
0.103754
0.724395
0.0234067
0.0718963
1.66197
2.03048
0.021429
0.0424807
0.02097
0.153902
0.023822
3.14717
5.6156
0.0216782
0.0452759
0.262673
0.0221064
2.1929
0.241587
0.0229342
0.0209529
0.155378
3.3258
0.0207436
0.0300989
0.021851
0.140574
0.113691
0.0215341
0.0208645
1.53079
0.0210361
0.0214488
0.0220419
0.0207362
1.55655
0.0278398
0.0272884
3.17915
0.0213359
0.0524935
0.021698
0.13582
0.0498833
0.177661
0.0208071
0.0265744
0.0209256
0.0217876
0.0234679
0.0214752
2.43685
0.0224886
0.0207762
0.0211516
0.257282
0.0209355
0.525029
2.58199
0.749143
0.0215072
0.0209256
0.0212435
0.832518
0.0217527
3.13398
0.021507
0.407963
0.0228217
0.0226685
0.180455
0.0215857
0.0219384
3.38069
0.0946567
2.92886
0.0218717
3.46025
1.54988
0.0215312
3.12725
0.0216618
0.0249389
3.03993
0.023256
0.0384686
3.70429
0.0285915
0.0598422
0.0215873
2.4155
0.021427
0.52224
0.0212469
4.25656
0.021448
0.0215708
0.0232313
0.388058
0.020957
0.0311173
0.0576616
1.54001
0.0212565
0.0279431
3.4483
0.171252
1.83023
0.0679783
0.0208333
0.0957534
0.297522
0.0236721
1.0777
0.0202301
0.123315
6.21726
0.021
6.55355
0.0213129
3.40283
0.983324
0.0234435
0.0235865
0.524272
0.693619
0.0214726
0.0226162
0.0207506
0.021552
3.13077
0.0575444
0.17465
0.0216365
0.0264091
3.00885
0.0294249
0.778708
1.70317
0.0211457
0.021385
0.162786
2.63838
2.27849
0.687603
0.168896
0.0356662
0.0470491
3.40445
2.62568
0.464144
0.0209529
0.0701676
0.0407385
0.0630386
0.0214365
0.0253262
0.05346
0.114025
0.738105
0.0220488
1.40373
3.16157
0.0397056
0.0214279
0.0214318
0.0978825
0.020962
3.54083
0.0269433
0.0220201
0.148009
0.0313609
0.0207116
0.0333167
0.028239
0.021461
3.6917
0.0257085
3.7193
0.0210077
3.01283
0.292607
0.168633
0.0203528
0.0256046
0.0290225
0.12611
0.098131
0.0600615
3.13554
0.112066
0.0196661
0.025013
0.0222647
0.106971
6.34534
0.0207887
0.0206879
0.0225311
0.820484
0.130254
0.0210589
0.0453662
0.148045
0.0209241
0.0300293
0.02357
3.70201
0.0264122
0.185783
3.22237
0.0271367
0.0240383
0.980883
0.0211399
0.0424432
2.82439
0.024547
0.0741357
0.0297243
0.0517213
2.60078
3.40995
0.0215661
1.11477
0.117779
0.0205689
0.112266
0.0592316
0.0956316
2.28469
0.317833
0.721602
0.0930821
2.66802
0.0259655
0.0584926
0.0205196
0.0217288
0.0215086
0.0209205
0.186572
0.113432
0.0203256
0.0423574
0.147551
0.0211271
0.4145
3.09221
0.0201227
0.0217145
0.020626
0.0224189
0.0404446
0.0214236
3.64073
0.0281049
0.0622389
0.025213
0.0613414
0.0463292
0.0311314
1.49006
0.0214598
0.0225103
0.0202863
0.0209471
3.47934
0.0825253
0.0275715
3.7388
0.0216932
0.0220019
0.0302386
0.0207486
0.02112
0.0655921
0.0246884
3.19124
2.24067
3.22985
0.021619
2.99188
0.0212592
0.284347
0.020691
0.119141
2.56921
0.0215233
0.527836
3.46042
0.0306246
0.0224458
0.0210167
0.0266843
2.68501
0.0207117
0.0217673
0.022603
0.0239948
0.165439
0.0228128
0.0249315
0.0211146
0.0226159
1.06529
0.0318211
0.0236239
0.107131
0.0851921
3.21888
1.03084
0.0232355
0.0223641
2.89536
0.0214523
0.0584541
0.0216432
3.186
0.022076
0.0218868
0.0308534
2.82271
0.0213889
0.0208039
0.0204743
0.122968
10.1049
0.101403
0.0214794
0.0235309
0.0209253
3.24102
0.0210789
2.01376
0.0509359
0.0216957
0.139087
0.0317381
0.127736
0.0220148
0.0207989
0.0286309
0.0382255
0.105886
0.0217099
0.0218975
0.021967
2.86204
0.0216535
0.0223829
3.36688
0.0228318
0.0255044
0.0240712
0.0211012
0.0212779
0.584162
0.0231386
1.65994
0.261454
0.0200314
0.827786
0.0218354
0.0911985
0.0441886
0.0226244
0.0203929
0.0200048
0.0214115
1.18775
0.0429224
3.40843
2.66415
0.0209518
0.0262459
0.0357061
1.20378
0.0214093
0.0653904
3.41875
3.07593
0.0213208
0.0227477
0.0219525
0.670019
3.45047
0.0218804
0.0215457
0.02886
3.86365
0.0216585
0.0228164
0.0227982
0.101297
0.549893
0.0205115
2.74763
0.0278466
0.0214167
2.61377
0.0506782
1.11574
1.04491
0.0302551
0.0251624
0.0224372
0.0258235
0.0220386
0.0622978
0.0430569
0.0213141
0.0239217
0.197146
2.36643
0.0206959
0.094246
2.99917
1.2902
0.0214548
0.0215416
0.273411
2.70784
0.0724447
0.021156
2.59707
0.0587095
0.0200968
4.46554
0.0262983
0.0216892
0.147062
0.0214156
0.0329942
0.0208949
0.0199019
0.0215514
0.0204686
3.07822
0.0203112
0.0211734
0.0682609
0.0244323
0.0240073
0.114702
0.0215057
0.0214809
0.0226955
0.0222952
0.250955
0.245154
0.462423
1.12737
0.0322108
0.494435
0.0433659
2.86516
2.70085
3.01661
0.0209015
0.0285871
0.0214292
0.0215302
0.0210083
0.0223022
0.162311
0.0528065
0.0354934
0.0211041
0.0213914
0.0498225
0.0217486
0.0218528
0.0215113
3.25088
0.0293319
7.67675
0.0216079
0.271359
0.0219443
0.0218209
0.0221005
0.0389093
0.0210605
0.075126
2.91405
0.0379028
3.60934
0.55648
0.0232807
0.0264044
0.339385
0.0974959
0.0204625
0.0209625
0.0200254
2.69598
0.0198842
0.0676971
0.0408659
0.0685284
1.61293
1.56255
0.0577454
3.72891
0.0207622
0.0204672
0.232855
2.9133
0.0214171
0.0215916
0.646674
0.0209662
0.159799
0.0228512
0.0209976
0.0247259
0.0215149
0.0634262
2.83823
3.0983
0.0241887
0.0216085
0.0687496
0.0224239
0.0687784
0.0209064
0.117832
0.0792471
0.0218518
0.0216438
0.0200801
0.106817
0.0457605
0.168572
1.69844
0.0282044
2.9442
0.0651659
0.0958916
3.29696
0.0212768
2.67026
0.0222385
3.28157
0.167853
2.64356
3.14913
0.0221901
0.0487061
0.214088
0.0214442
3.81882
0.0214766
0.0214996
0.0251784
0.0220283
0.0290031
0.191394
1.1538
3.21037
0.0250562
0.0369925
0.0224199
0.0218293
0.0216643
0.111717
0.0758233
2.86202
0.0407606
0.0203702
0.020761
0.0220209
0.206433
0.0237071
0.0223471
0.0244285
0.0760665
0.0296867
0.0389466
0.0346591
2.73349
0.0279013
0.0306608
0.0214159
0.0252402
0.510139
0.16979
0.0425929
0.0207439
2.6435
0.0306844
0.0211307
0.0439516
2.90876
0.15102
0.0311554
0.0209789
2.6369
0.0218986
0.020932
0.0204121
2.20169
1.27353
0.0232698
2.35109
2.92624
0.0246139
0.0347024
0.0537788
3.68363
0.0289679
3.41576
0.0219382
0.020207
0.0250102
3.59069
0.0311625
0.0208662
3.03765
0.0216822
0.0222344
1.75022
3.057
0.0614836
0.834923
0.0239432
0.022502
2.31605
0.021135
0.0211865
0.0215754
0.0411128
0.021395
0.029529
0.0246066
0.0352882
1.71276
0.0221032
3.7988
0.0244504
2.982
3.46971
0.0215502
0.0217144
0.0247905
0.118845
0.162052
0.0594931
2.90658
2.6729
0.11494
0.022578
2.72746
3.09149
0.0432964
1.15948
0.0215846
0.0213356
0.0215921
0.0223603
0.0213002
0.0309801
3.14862
0.0294619
0.261841
3.25829
2.55812
3.1209
3.26417
0.0273783
3.56784
0.0941108
0.0656922
0.0206705
0.021488
0.0605366
4.0474
0.0224655
2.79623
3.13279
0.0209414
0.0215911
0.0217235
0.0767443
0.0219892
0.0646803
2.6957
0.0206712
0.0214076
0.0209191
0.022159
0.086214
2.9482
0.0337386
3.0347
0.0958899
0.021162
0.264808
0.109101
0.021842
0.45066
1.3716
2.75374
2.03291
3.45137
0.0213739
2.54081
2.98826
0.136372
2.99947
0.0209882
0.0229653
0.0234629
0.0230944
3.22895
0.0589759
0.0216887
0.0261852
0.294423
3.0704
0.0224716
0.0224297
3.48146
3.24415
0.0217065
0.0267686
0.0923741
0.0213239
0.0214148
2.44173
0.0211168
0.215809
0.267449
3.33231
0.0210443
0.0646203
0.12414
0.0211019
0.0201532
2.47899
2.34162
0.0218998
0.0312322
0.145781
0.187353
3.46288
2.14492
0.024937
0.251564
0.316939
0.0322631
0.0211137
0.0760052
0.020424
0.0202698
3.25046
0.0349986
0.0826296
0.0239072
0.0251533
0.0209642
0.0204831
0.0220629
0.0222443
2.57536
0.0236992
1.42493
6.13925
0.0400926
0.0634646
2.67873
3.50559
2.60682
0.020955
0.0242517
0.0327185
0.0247437
0.156954
0.338982
0.0220417
1.08642
3.2576
0.0256391
0.0804486
0.0668935
0.0877064
0.0956999
0.02256
0.106422
0.116839
0.128842
0.142975
0.0990666
0.0731733
0.0259281
0.0210937
0.0307543
0.0797745
0.0210786
0.317137
3.62601
0.147853
2.99272
0.0201214
0.0207351
0.0265927
2.82661
0.0221747
0.0234633
0.0569804
3.4798
0.836343
0.0214747
0.0292663
0.0245423
4.12147
0.28043
0.0237119
0.285041
3.04176
0.0887641
3.3308
0.0836398
0.0520827
3.56579
0.0195982
3.67391
3.12532
0.0223581
0.0622224
0.0859879
0.0249236
0.0208958
0.115254
1.06585
0.0209087
0.0209532
2.61614
0.633155
0.0698601
0.0217013
0.197212
0.113426
3.1035
3.73099
0.0215707
0.0213768
0.0221301
0.0229774
3.36076
0.763644
2.99812
0.0744964
0.159422
0.438874
0.0229887
0.0210544
3.10224
0.020945
3.4985
0.0209408
3.32932
0.0223832
0.0222725
0.782158
0.021607
0.0978512
0.545343
0.024278
0.0232488
0.0224949
0.157295
3.28464
0.133683
3.01693
0.0241799
0.0228845
0.0266174
0.0673733
3.78988
3.6304
0.0849978
0.196441
0.108188
2.5864
0.0210752
0.0209168
0.0206874
0.0206716
0.146101
0.0634729
0.223107
0.0378339
0.128921
0.0211168
0.276164
0.149558
3.90891
0.0214682
0.022629
0.0199189
2.98308
0.0228543
0.218361
0.146866
0.105566
0.173364
0.0200524
0.0343543
0.128905
0.148251
0.549755
0.021641
0.116162
0.0219511
0.021875
0.0874927
1.09783
1.76068
0.021761
0.0757167
0.111876
3.18436
5.24179
3.37074
3.38632
0.0210268
0.0546926
0.0215794
0.12066
0.0211866
0.09686
0.0230003
0.0446857
0.241981
0.543277
0.0237905
0.0860758
3.10076
0.102493
0.023251
1.73851
0.0940578
0.0224647
0.0221914
3.28045
0.027432
0.110061
0.310781
0.0995379
4.0436
0.0233849
2.96136
2.89122
1.0725
0.121829
0.0296491
0.0950474
0.0861411
3.31644
0.0598533
0.0220658
1.24529
0.0430069
0.304765
0.0265174
2.7898
0.780183
1.92411
0.02536
1.54436
0.0237074
3.06544
0.131355
1.8508
7.38668
0.0209412
0.0199041
3.09203
3.63319
0.0320457
0.0219889
0.0387276
0.0286542
2.95821
0.070479
3.1502
0.0251794
3.21032
0.106979
1.20153
0.0220259
0.135385
3.0879
0.0240071
0.0751349
0.0201017
0.0238343
0.0216137
0.244629
0.0211855
0.0216143
3.53775
2.80009
0.0206539
3.71503
0.0222067
0.0214856
0.0212993
0.0209315
0.0217345
0.511856
3.44271
0.0206528
0.310521
0.060972
0.0438075
1.19581
0.0765675
0.0247971
0.0301584
0.0212956
0.243081
0.0287395
3.75412
0.024705
3.12609
0.863646
0.0634652
1.50519
3.28133
0.0207852
3.67097
0.0506587
0.0594093
0.0379694
0.0211691
0.0388663
0.165605
0.0215742
0.130028
0.0214191
3.35049
0.126758
2.57979
0.154424
0.147701
3.50463
0.0215539
0.0211851
0.0568039
0.0226981
0.0217146
0.0217409
0.0261847
0.0210898
0.0211979
0.0224717
0.0394769
0.022938
0.0262524
0.0228783
0.0338295
0.0892279
0.0232179
3.4546
0.0230138
0.0212524
0.0831483
0.0389259
0.0230838
0.0210784
0.229613
0.0231341
3.16987
0.0232948
0.0998751
0.0213026
0.0213986
0.0852774
3.61256
0.0637852
0.0328507
0.0201838
3.11595
0.0216355
0.0211616
0.0693514
0.0235689
0.125346
3.07879
0.0877474
0.124724
0.0384684
4.098
0.0214652
0.0216057
0.0573496
0.257399
0.0543045
0.0888113
2.66276
0.0264768
0.0215576
0.0268002
0.195854
0.0520754
0.0215921
0.090631
0.0863838
0.0585714
0.0217302
0.0216292
0.163946
0.0575726
1.75473
0.488409
0.0233786
0.064054
0.0217059
0.0408243
2.31126
0.0216678
0.142316
0.0383949
0.0745567
1.14311
0.0215403
0.0213543
0.0212478
3.53583
0.192161
0.0231414
0.0851711
0.0989613
0.021683
0.0214011
0.101634
3.65414
0.164569
3.13134
0.13609
0.0290828
0.399132
0.10854
0.0289026
0.254177
0.078946
0.235291
0.0215109
0.0868709
0.119794
0.0222432
0.253001
0.036651
0.0747114
0.0261348
0.132255
0.0210966
4.00931
0.0240471
0.0208057
0.0209757
0.0207571
0.022478
0.0222979
0.0208983
0.023708
0.0215925
0.0221906
0.241832
0.0710588
0.0221036
0.0580489
0.0241007
0.0227059
0.0204447
0.0428079
0.0259913
2.3963
0.021557
0.0215807
0.0622385
0.134272
0.0215814
0.0215341
0.0997025
0.0232274
0.0829387
0.0552113
0.0215363
7.99456
0.0234158
0.0221969
0.0673079
3.76443
0.0224734
0.0531448
0.0209063
0.0250745
0.0213467
0.0262042
0.0211841
0.0215947
0.0434566
0.0556156
8.77005
0.0469416
0.0214912
0.027351
3.24962
0.0463827
0.15844
0.0897104
0.0216262
0.0495954
0.875514
0.164315
1.04336
0.0251483
3.36038
0.335067
0.0281625
0.0216846
0.0680385
0.0221544
0.0515769
3.08934
0.0215431
0.0622296
0.0217543
2.86448
0.0440767
0.0222635
0.0562795
2.96622
0.100207
0.0234801
0.0664629
0.0290468
0.0206379
2.35341
0.0205239
0.0320646
0.0210945
0.0244512
2.64743
0.0655228
0.020699
0.0277403
0.151793
0.0215302
0.0218515
0.0272386
0.0247094
0.0214454
0.0234014
0.0239882
0.0219615
0.0210935
0.0563732
0.0932962
0.157682
0.0210284
0.0532456
2.99802
4.36231
0.0209396
0.0215739
0.0245311
0.0813962
0.0220897
0.0210703
0.021215
0.0209039
0.0252384
0.0265727
0.0246783
0.0595953
0.0230317
0.0204584
0.0230243
0.0582455
0.0437569
0.096365
0.022085
0.0274517
3.21179
0.0281637
0.0241642
4.16519
3.1932
0.0888664
0.0618433
0.144833
0.0213529
0.290698
0.0261309
4.14296
0.0214115
0.0212279
1.32651
0.0208151
0.25753
3.12088
0.0219325
13.691
0.0293575
0.0304407
0.0259848
0.0666917
0.027709
0.0254953
1.597
0.0208822
0.023806
3.53784
0.02281
0.0214406
0.0289659
3.16877
0.022114
0.0221156
3.20309
0.0237255
0.0259436
0.0533165
0.020361
6.556
0.0236854
0.022241
0.0932329
0.0524043
2.98968
0.0231581
1.9553
0.03187
0.0809887
2.8482
0.0215347
0.0309881
0.0817967
0.0220904
2.05698
0.0221389
0.0229748
2.92245
0.0222351
0.0385429
0.0799352
0.780197
0.0288339
0.0257354
0.0222255
0.0235003
0.0809148
0.0239911
0.0293844
0.0738727
0.0494131
0.0216343
3.39922
0.0358782
0.0204686
0.0226469
0.021237
0.0208033
0.0203673
0.0215515
0.0215031
0.0286518
0.0234923
0.0378817
0.0202341
0.0204528
0.0228051
0.071542
0.0207433
0.0290871
0.0589417
0.0276044
0.0287286
0.0214019
0.0229847
0.0238113
0.0357482
0.0273089
0.0238941
2.71702
0.0216891
2.37629
0.0243082
0.0800806
0.0778666
0.0215178
0.0539117
0.0298843
3.13446
3.02376
0.0247877
0.0217054
0.0232242
0.0285068
0.0446439
0.021607
0.0790429
0.0492771
0.0228183
0.0537616
0.0437719
0.0593502
0.0272788
0.143595
0.0817108
0.0261562
0.111324
0.0233212
0.115165
0.0223378
0.0212648
0.0743089
0.0767482
0.0213969
0.0464462
0.0214424
0.0216351
0.0214477
0.0219668
0.021475
0.0214086
0.0213919
0.0221221
0.144443
0.0226189
0.0213514
0.0223567
0.0224066
0.169938
2.95332
0.0553723
0.0237191
3.30911
0.0214274
0.0213642
0.0801077
0.0306154
0.022235
0.0221574
0.0216348
0.147054
0.0217329
0.0249341
0.0222134
0.0321637
3.77631
0.0214537
0.0541559
0.060065
0.0245765
0.0405251
0.0207654
0.0216647
0.0549706
1.24369
0.0229981
0.0340607
2.20586
0.0834479
0.0208591
2.86066
0.0225084
0.0196648
0.0519892
3.50058
0.0214408
0.020731
0.022913
0.0295481
0.0319214
0.0214225
0.0222904
0.0370703
0.0216605
0.0276142
0.0251115
1.15218
0.0204973
2.76269
0.384134
0.0363559
0.0213189
0.0831009
0.0210577
0.023122
0.0215637
0.0512655
0.0202145
0.0201928
0.0380474
0.0557833
0.800125
0.0218525
0.0201241
0.0230204
0.0208429
2.8854
0.0231349
0.0226068
0.0220426
0.056563
0.0444156
0.0232201
0.0228776
0.0418184
0.0216404
0.0217197
0.0231344
0.0220542
0.121055
0.0211662
0.0290662
0.0219336
0.0215074
0.0458175
0.0818911
2.77325
0.0214479
0.0523368
0.189499
2.96676
3.30205
0.0302053
0.0215062
0.0240639
0.0286674
2.54356
0.021815
0.024575
0.0261952
0.0294815
0.0202603
0.0503081
0.0434514
1.053
0.0220173
0.0216598
0.0817973
1.11311
0.0201386
0.0240908
0.0317486
0.0200124
0.0223507
0.0425686
0.0210064
0.0214499
0.0216877
0.024002
0.0742627
0.0340998
0.0223653
0.0207216
0.0220997
0.131307
0.0199493
0.0208635
0.0252006
0.0806495
0.0249551
3.61732
0.0239953
0.0214463
0.0215188
0.0228399
0.0212062
0.0314083
0.090172
0.0209305
0.0210075
0.0219522
0.0213001
0.0220192
0.0425555
2.68077
0.0229491
0.0907952
0.0235718
0.0213124
0.197691
0.0232075
3.5482
0.0217661
0.0217162
0.0207391
0.0214721
0.0224092
0.0292389
0.0405946
0.119906
0.0268934
0.0496624
0.0217364
0.0313995
0.0214364
0.0231122
0.0316582
2.65401
3.05522
0.0218083
3.26229
0.132082
0.0395781
0.192057
0.0198766
0.021409
0.0216433
0.0227125
2.76656
0.0208025
0.064971
0.270887
0.0222993
0.0754848
0.0199984
0.029812
0.334057
1.03366
0.0217759
0.224298
0.104572
0.343227
0.0255098
3.31496
0.0224438
0.123972
0.0928797
0.0205215
0.0368054
0.0301435
0.0233338
0.18181
0.029334
0.0209717
0.0219045
0.100489
0.0217085
0.0494149
0.0215611
0.0199181
0.0229168
0.031045
0.0215293
0.0742869
0.0258666
0.0234394
0.0199084
0.0214838
0.358656
0.0731156
0.131167
0.0319788
0.0244873
0.0269478
0.0249655
0.0214209
0.0225386
0.0320078
0.022925
0.0237821
0.0204016
0.0252637
2.84258
0.0219357
1.99676
0.123073
0.0216623
0.0216392
0.0202803
0.0276344
0.0348591
0.0201124
0.0249288
0.0227584
0.0219063
0.0211261
0.0219892
0.0212686
0.0215825
0.245533
0.0218707
0.025613
0.0214559
0.150454
0.0407342
0.021448
0.253425
0.0216031
0.0235978
0.0295542
0.320169
0.0279409
0.0210058
0.0213337
0.0314435
0.0395273
0.133938
0.022582
0.0465702
0.104938
0.0218968
0.0214759
0.103857
0.0489233
0.0297838
0.0216593
0.0218768
0.0225511
0.0230962
0.0209152
2.30744