/*--------------------------------*- C++ -*----------------------------------*\
| =========                 |                                                 |
| \\      /  F ield         | OpenFOAM: The Open Source CFD Toolbox           |
|  \\    /   O peration     | Version:  v2012                                 |
|   \\  /    A nd           | Website:  www.openfoam.com                      |
|    \\/     M anipulation  |                                                 |
\*---------------------------------------------------------------------------*/
FoamFile
{
    version     2.0;
    format      ascii;
    class       volScalarField;
    location    "500";
    object      k_0;
}
// * * * * * * * * * * * * * * * * * * * * * * * * * * * * * * * * * * * * * //

dimensions      [0 2 -2 0 0 0 0];


internalField   nonuniform List<scalar> 
13851
(
0.000154793
0.020318
0.000206461
0.000154576
0.000209248
0.000215356
0.000147065
0.00018647
0.000139412
0.000211643
0.00176966
0.00134493
0.00083228
0.0274035
0.000144096
0.000171798
0.00015821
0.000159852
0.000247713
0.000139211
0.000153898
0.00020569
0.000146495
0.000152395
0.000147879
0.000187149
0.000156615
0.00242698
0.00015395
0.000154768
0.000196506
0.00015894
0.000204432
0.00681282
0.000152416
9.41604e-05
0.026564
0.000253803
0.000215515
0.00733261
0.000145481
0.000132369
0.00547765
0.00408646
0.00406695
0.0185192
0.00389783
0.00588287
0.000157179
0.000222223
0.000204022
0.000233397
0.00784275
0.000146115
0.000154185
0.000132457
0.000145587
0.0109188
0.000154162
0.000147662
0.000252626
0.015839
0.000177944
0.000215804
0.000240929
0.000159297
0.0326344
0.00346908
0.000172927
0.000159424
0.0236492
0.046966
0.0224593
0.000147048
0.000141562
0.000141988
0.000204395
0.0228211
0.000187539
0.0263139
0.00014921
0.00261756
0.000143819
0.0147857
0.000182644
0.0010962
0.0001858
0.00191321
0.000159428
0.000143591
9.54441e-05
0.0001845
0.00323929
0.000163877
0.000158955
0.000151728
0.000210245
0.0222187
0.000224132
0.000151704
0.0208896
0.000189984
0.00014976
0.000155528
0.000143708
0.000182029
0.000193442
0.000131318
0.058163
0.000225781
0.000153613
0.000144383
0.000180405
0.000155155
0.000153464
0.0138365
0.0195528
0.000131527
0.000157642
0.000158438
0.00526936
0.000155272
0.000777816
0.00708947
0.00324102
0.00015701
0.00482242
0.000188864
0.000153691
0.000233062
0.000145232
0.000138932
0.0285035
0.000143792
0.012962
0.000140749
0.000131637
0.0429008
0.0360056
0.0458795
0.0200885
0.000153809
0.000156887
0.0001371
0.000153796
0.00439908
0.00137203
0.000233691
0.000146833
0.00358285
0.000197696
0.000154759
0.0267855
0.000146192
0.000153097
0.000153563
0.000142793
0.000152555
0.000233127
0.000203659
0.000134316
0.000163471
0.0104841
0.000138815
0.00016205
0.000134575
0.00184825
0.000173377
0.000153214
0.0189772
0.0201007
0.000136756
0.000143063
0.0436602
0.000138705
0.00369414
0.000187589
0.000155356
0.0002428
0.0001316
0.000160585
0.047903
0.000143691
0.000208256
0.00013285
0.000147127
0.000159234
0.000148786
0.000214345
0.000214618
0.00389382
0.00891229
0.000148233
0.000173413
0.0140258
0.000152594
0.000154192
0.00743611
0.000153625
0.00014216
0.000158154
0.0270107
0.000167064
0.000143206
0.00020255
0.000143829
0.0530829
0.000158607
0.0403762
0.000132187
0.0472703
0.00014948
0.00593324
0.000131151
0.00013587
0.000512469
0.000196957
0.0170055
0.00014332
0.0415369
0.00015898
0.00014944
0.0231475
0.000231901
0.0565883
0.000147901
0.000167309
0.000145275
0.0109389
0.000131238
0.000185846
0.000252829
0.000136659
0.000147034
0.00019849
0.000178479
0.0473578
0.000257899
0.000136795
0.000143308
0.000186984
0.000646383
0.000145597
0.000206317
0.000141575
0.0526982
0.000190918
0.00683248
0.000153722
0.000159797
0.000176241
0.000833638
0.000149165
0.000153952
0.000189363
0.0171921
0.000212667
0.0437351
0.00642496
0.000144299
0.000136166
0.000157852
0.012293
0.000142527
0.000250956
0.000152548
0.000149033
0.000162996
0.0199989
0.00189412
0.000176275
0.000153084
0.000513591
0.000185188
0.000170429
0.000139049
0.00225772
0.000182027
0.0640611
0.00148866
0.000147429
0.000131808
0.000143197
0.000187777
0.0145402
0.00329897
0.000140499
0.000144152
0.000524516
0.00309979
0.000239853
0.000153604
0.000147751
0.000176089
0.00308796
0.000255292
0.000161214
0.00107146
0.000139274
0.0527201
0.000162801
0.000157859
0.0624373
0.000147301
0.000183939
0.0379635
0.000140242
0.000182517
0.000164138
0.000152997
0.0403518
0.000161575
0.000148773
0.0216955
0.000132959
0.000160325
0.000165528
0.0644504
0.000215637
0.000143343
0.000190643
0.00014362
0.0151337
0.000181391
0.000146297
0.00014596
0.000216237
0.000166142
0.000152837
0.000144166
0.000147158
0.000148572
0.00275717
0.0219412
0.0181988
0.00016256
0.0627045
0.000592353
0.000143677
0.000174283
0.000239647
0.000188095
0.000189351
0.000225078
0.000249512
0.000165868
0.0172708
0.044978
0.000144392
0.000611718
0.00055755
0.000272238
0.000152807
0.000191232
0.011297
0.0001435
0.0150888
0.000145833
0.000143695
0.000139892
0.000131344
0.000141885
0.0444938
0.00284258
0.000144452
0.000180883
0.000133638
0.00119541
0.000178743
0.00802597
0.0190811
0.000144656
0.000204323
0.000164352
0.00764835
0.000144551
0.000131671
0.000177175
0.019481
0.000145083
0.0452575
0.000187946
0.000229131
0.0167695
0.000868031
0.000967762
0.000177272
0.000139483
0.000150931
0.000160953
0.000190018
0.028425
0.000173125
0.0566988
0.0403177
0.000133806
0.00014442
0.0183421
0.029916
8.89553e-05
0.0184595
0.000178803
0.000165436
0.00015073
0.00025945
0.000138119
0.000170923
0.000172211
0.000146211
0.000144441
0.000140064
0.000134387
0.000214628
0.000186779
0.019631
0.000159731
0.000192879
0.000176229
0.000674345
0.000161586
0.000279356
0.000157243
0.000416393
0.000131522
0.000139824
0.000148924
0.000272725
0.00550538
0.000230621
0.000174893
0.0156844
0.00641017
0.000183003
0.000161227
0.000198969
0.000144256
0.000774318
0.000143983
0.000308018
0.00225878
0.000201562
0.0361699
0.000156834
0.000194988
0.00300373
0.0163939
0.000131529
0.000167808
0.000188575
0.00272016
0.000137501
0.000148585
0.000195835
0.000229036
0.000165249
0.0261395
0.000147894
0.000146678
0.00885963
0.000163103
0.000131584
0.00938673
0.000139387
0.000154877
0.000138168
0.000178496
0.000151308
0.000131977
0.000155105
0.0177848
0.000143956
0.000175835
0.00014004
0.000170542
0.000216944
0.000156007
0.000145904
0.000155395
0.000155347
0.00136873
0.000148961
0.000194458
0.000143651
0.000148952
0.022458
0.0345145
0.000144111
0.000171743
0.000161883
0.000825933
0.0153051
0.000146847
0.00368558
0.000144745
0.000209005
0.000146789
0.0125868
0.000132959
0.00745146
0.000213315
0.00013253
0.000172621
0.0235354
0.000186856
0.00374504
0.000156822
0.00920468
0.000157468
0.000138305
0.000139163
0.000146202
0.0357441
0.000199801
0.000231307
0.0002221
0.00019756
0.00013486
0.00154368
0.00580108
0.000160913
0.00016393
0.000383936
0.008875
0.0455787
0.000152872
0.0130637
0.0185199
0.0269085
0.000162738
0.00017359
0.00764085
0.000193644
0.0150789
0.00774324
0.000393614
0.000152914
0.000409381
0.0305775
0.000131729
0.000182504
0.000200469
0.0286172
0.000154111
0.000142713
0.000142427
0.000144018
0.000213696
0.000175341
0.00129914
0.0275381
0.000139735
0.00787603
0.0324845
0.000210444
0.00480782
0.000175276
0.000131174
0.000139657
0.0038785
0.00244826
0.000153381
0.000206534
0.000151473
0.000132311
0.000184348
0.00989209
0.000249734
0.000225944
0.037463
0.034554
0.000145039
0.000146368
0.0269736
0.039846
0.000227616
0.000172811
0.000202449
0.000131523
0.000142213
0.000322332
0.000132047
0.000153864
0.000131484
0.000139492
0.0307266
0.000213919
0.00017042
0.000131937
0.049329
0.00743936
0.0001395
0.000142891
0.000143183
0.000149945
0.0185764
0.00704147
0.00602208
0.0261938
0.00929892
0.000170544
0.0237387
0.0370942
0.000167598
0.000173592
0.000131159
0.000164104
0.000173996
0.0108504
0.0180484
0.000206432
0.000165939
0.000138851
0.000170872
0.000156357
0.00432122
0.000204971
0.000143521
0.000163788
0.000137466
0.000162512
0.000231371
0.000147284
0.000144051
0.000178901
0.000147004
0.00020974
0.000265033
0.00022898
0.000171307
0.000229952
0.000138694
0.000145147
0.000178503
0.0235993
0.000149225
0.000152361
0.0552027
0.00015254
0.0170319
0.0475464
0.0149549
0.0140772
0.00013801
0.0509526
0.000154838
0.000139449
0.000132923
0.000139555
0.000339431
0.000160508
0.000175983
0.000131717
0.00116147
0.000215089
0.00199243
0.000141478
0.000134409
0.000143423
0.000238134
0.0131593
0.000188649
0.000163016
0.000155133
0.000149926
0.000146355
0.000143563
0.00050269
0.0215303
0.000146696
0.000131607
0.000146363
0.000143479
0.000272176
0.00956932
0.000171847
0.0221789
0.00970572
0.000143787
0.000231114
0.0182996
0.000175391
0.00196225
0.000149141
0.000158187
0.00018822
0.00015834
0.00711122
0.000143968
0.00722014
0.000144595
0.000166708
0.0393713
0.000143483
0.000151278
0.000184363
0.000138405
0.000159548
0.00487993
0.0376697
0.000204095
0.000254016
0.00102526
0.000131277
0.000141183
0.0219321
0.000161897
0.000181822
0.0468648
0.000139447
0.000166871
0.000131856
0.00832793
0.0241006
0.000158601
0.000149573
0.000227755
0.000157051
0.000143234
0.00801955
0.0215492
0.0334821
0.000132772
0.000146572
0.0238426
0.00642553
0.000210823
0.000153804
0.0466884
0.000143902
0.000302862
0.000226853
0.00020382
0.000158199
0.0152061
0.000176587
0.000162936
0.0213429
0.000151704
0.000166812
0.000151783
0.00013855
0.00893525
0.000170463
0.000225848
0.000169505
0.000188076
0.000139018
0.00472594
0.000154924
0.000177447
0.000135191
0.000143354
0.000145321
0.0377326
0.00014219
0.000132009
0.000487215
0.00014666
0.0285791
0.000145904
0.000156166
0.000200649
0.000290231
0.00149094
0.000141334
0.000223128
0.0196139
0.000149097
0.0341865
0.000166324
0.000138293
0.00025153
0.00635493
0.000225865
0.000159921
0.000140748
0.000131422
0.00383418
0.000207708
0.00019445
0.000160452
0.000241423
0.000150583
0.000154717
0.000203448
0.00671171
0.000213329
0.0184982
0.000146302
0.000209705
0.000209635
0.0651787
0.00015813
0.0482751
0.000225318
0.000146824
0.0192582
0.00017715
0.0119169
0.0362517
0.0271477
0.00526118
0.000180987
0.000138414
0.0001603
0.011586
0.01705
0.00014489
0.000148828
0.000200016
0.0033408
0.000132683
0.00784435
0.000139116
0.000144427
0.00933402
0.0235331
0.00127261
0.000139382
0.000143837
0.0073134
0.000304334
0.000218394
0.000160058
0.0193984
0.000250334
0.0108375
0.000193215
0.000180357
0.000148739
0.000146643
0.0253268
0.000184989
0.0288433
0.000181427
0.000172676
0.00965048
0.0143596
0.0295797
0.000144706
0.000168316
0.000139394
0.000172385
0.000151136
0.00786716
0.000166826
0.0497482
0.000132584
0.000199849
0.000142797
0.000234285
0.00017138
0.000167851
0.0225513
0.000182136
0.000180658
0.000153426
0.000200557
0.0059853
0.000153897
0.000153978
0.0206965
0.000141614
0.0360868
0.00393592
0.000147171
0.0493591
0.0206599
0.0302972
0.00559105
0.000180605
0.000144951
0.0322614
0.000167758
0.0158456
0.0412949
0.000141553
0.000152454
0.000267574
0.00730804
0.0372153
0.000146296
0.000142147
0.0248762
0.0397261
0.000226074
0.000158993
0.000157017
0.00465515
0.0118277
0.000211437
0.000132077
0.000181555
0.000138495
0.0001624
0.000624362
0.000151252
0.000303206
0.000637528
0.000144586
0.000158666
0.000145246
0.000152035
0.0249859
0.0223863
0.000167171
0.0495105
0.000142688
0.000167211
0.000144408
0.000138594
0.000146674
0.000144437
0.0322241
0.000144146
0.000188815
0.000144793
0.000160325
0.000828
0.00593955
0.000156915
0.027309
0.000197087
0.00040426
0.000171491
0.000172236
0.0247243
0.000162499
0.000175922
0.00612654
0.0090702
0.00817487
0.000181121
0.00274896
0.000148884
0.000180339
0.000190645
0.0400903
0.000145115
0.0383121
0.000140957
0.000141726
0.0293385
0.000157889
0.00024904
0.000158783
0.000139282
0.000181605
0.000139393
0.000143882
0.000173264
0.000148852
0.0132657
0.000141794
0.000237393
0.0113099
0.000197568
0.0365223
0.000146359
0.000155199
0.000172955
0.000144263
0.000139172
0.000205846
0.00014938
0.000140856
0.000149637
0.000148083
0.027354
0.0191603
0.000141746
0.0217879
0.00279431
0.000142217
0.00754754
0.0001656
0.000141639
0.0041974
0.000190024
0.0060052
0.000142044
0.00425006
0.00715006
0.0130659
0.000136871
0.000578205
0.000169234
0.000156348
0.00018478
0.000139366
0.00334401
0.000156731
0.00165533
0.000142975
0.000143419
0.00280918
0.000147279
0.000284496
0.00477425
0.00813685
0.000235335
0.00625801
0.000148595
0.000144372
0.000195678
0.000170411
0.000155656
0.000230445
0.000183018
0.000149562
0.000156353
0.0261735
0.000141129
0.0242679
0.000993943
0.0162123
0.000251401
0.000153237
0.000138881
0.000149082
0.00452818
0.00278938
0.000136873
0.000158729
0.000142865
0.000206695
0.000133645
0.000142427
0.000149606
0.000172063
0.0190511
0.000177695
0.000163654
0.000145782
0.00018651
0.000263571
0.000150764
0.0178376
0.000274108
0.000205707
0.000135425
0.000183264
0.0001427
0.000146708
0.000148712
0.0223886
0.000217021
0.00577275
0.000155786
0.000270012
0.000143054
0.000144495
0.000147522
0.00711022
0.00302016
0.000133609
0.00017158
0.000188441
0.0369607
0.000155992
0.0149608
0.000375384
0.0549451
0.000205096
0.031091
0.00020415
0.000206494
0.000268856
0.034168
0.00640438
0.0276462
0.000145306
0.000241046
0.000133466
0.000154245
0.0001608
0.000147069
0.035478
0.000167061
0.000163766
0.00529099
0.000251028
0.000932992
0.000143471
0.000155325
0.000159502
0.000139946
0.000161804
0.0239371
0.0107598
0.0265936
0.000140747
0.000162567
0.000161748
0.00936944
0.0149931
0.000200351
0.000138641
0.000149032
0.0135366
0.000185602
0.000364841
0.00253468
0.000204512
0.000135157
0.0147827
0.000161253
0.000184656
0.000165453
0.0408798
0.00460631
0.000230144
0.000206421
0.000149886
0.000168512
0.000144437
0.00789521
0.000183092
0.0337126
0.000224248
0.000160551
0.000240177
0.000152394
0.0411905
0.000317687
0.000143423
0.000293154
0.0403988
0.000307679
0.0495415
0.000146325
0.000144608
0.0248118
0.000248064
0.0122371
0.000155106
0.000146379
0.000144613
0.0281462
0.000240132
0.000148751
0.000202795
0.00020986
0.0248636
0.0107573
0.00478881
0.000144283
0.0428739
0.000157915
0.000145759
0.00024147
0.0153723
0.00014717
0.000140873
0.00507318
0.0341755
0.000153742
0.000140636
0.0405394
0.000143081
0.00380597
0.000140748
0.00979331
0.00014469
0.000189456
0.023506
0.0144632
0.000151792
0.00685915
0.00076646
0.00112333
0.000265054
0.0552384
0.000202155
0.000142458
0.000277187
0.000156263
0.000143612
0.000139677
0.00608923
0.000143606
0.0243677
0.000141089
0.000164875
0.0205254
0.000199306
0.000291424
0.000152731
0.000198295
0.000139054
0.000171
0.0299344
0.0221898
0.000140378
0.000200943
0.00406052
0.000147401
0.000139688
0.0364837
0.00017385
0.000173831
0.000231038
0.0482048
0.00466374
0.0292005
0.0489378
0.000195757
0.000702501
0.00406439
0.00539361
0.000201208
0.000136659
0.000228121
0.000142444
0.000142638
0.0266528
0.038151
0.000151716
0.026399
0.00010972
0.0241855
0.000201468
0.000185133
0.000143948
0.000258105
0.000190225
0.000150668
0.000152157
0.0363077
0.0299474
0.0140419
0.0386356
0.000176726
0.0535552
0.0425062
0.000170369
0.000147196
0.000143112
0.00299339
0.000141721
0.000835249
0.000152453
0.000150098
0.000152131
0.000321974
0.0614578
0.01685
0.000149943
0.0194537
0.000157306
0.000164549
0.000141219
0.000143472
0.0105377
0.000162182
0.0378996
0.0274828
0.000199214
0.0002187
0.000144691
0.000179464
0.000147007
0.000239886
0.000153785
0.00015251
0.000149522
0.000154088
0.000238547
0.000150355
0.000174278
0.000152547
0.000174962
0.000237602
0.0260064
0.00014348
0.000188293
0.000146027
0.000414658
0.000159734
0.00170191
0.000250645
0.000169443
0.000155614
0.000153329
0.00021364
0.000144613
0.000201232
0.000144003
0.000143101
0.000153041
0.025936
0.000162865
0.00015825
0.000177923
0.00014708
0.000192861
0.0213478
0.000255105
0.000175608
0.000144451
0.000180828
0.000137209
0.000142865
0.000251532
0.0496658
0.000145882
0.000165763
0.000216824
0.0244206
0.000149005
0.00014999
0.0476519
0.000152031
0.000197978
0.00168038
0.0646481
0.000144931
0.000163048
0.000143063
0.0555605
0.000220074
0.000182484
0.000221179
0.0175851
0.000151508
0.058108
0.000347835
0.000148333
0.000270996
0.000206204
0.000152619
0.0108404
0.000146145
0.000145233
0.000138545
0.000250606
0.000253955
0.0002054
0.000152524
0.000151014
0.000166614
0.00206456
0.0128729
0.0593801
0.00402355
0.000149907
0.000222302
0.000232334
0.00951911
0.000203414
0.00332151
0.000141859
0.000177635
0.000139571
0.0154479
0.000173939
0.000143008
0.0303607
0.000242409
0.000171556
0.000198417
0.000132407
0.00014691
0.000191007
0.000173612
0.000572781
0.000201487
0.000199582
0.00019573
0.000225603
0.00162356
0.000505765
0.0566516
0.0001437
0.000140652
0.000582258
0.0191743
0.00868272
0.000190198
0.000154143
0.0194888
0.00405409
0.000143582
0.000161354
0.000139781
0.000181269
0.000202458
0.000177873
0.0089348
0.0124723
0.000152339
0.0112009
0.0191226
0.000144171
0.000205778
0.0330763
0.00902596
0.000155855
0.000201155
0.000131179
0.000158241
0.000148583
0.000158531
0.0574272
0.0221245
0.00810724
0.0175085
0.000152212
0.00017182
0.000191294
0.000144867
0.000149229
0.000139284
0.0106955
0.000141451
0.0459847
0.000174431
0.000182745
0.000236214
0.00919744
0.0248523
0.0240186
0.000180757
0.000134034
0.000207688
0.0145773
0.00126355
0.000158271
0.000139489
0.000139659
0.000198263
0.000168363
0.000234238
0.00439237
0.000152031
0.000138836
0.000211723
0.000177284
0.0243007
0.0077113
0.000140739
0.000205221
0.000147968
0.0624917
0.000136191
0.0541955
0.000148658
0.000151786
0.000163238
0.000149852
0.000301571
0.000167973
0.000187404
0.012382
0.0285319
0.000159334
0.00016783
0.000143717
0.0192581
0.0136042
0.000148578
0.00013702
0.00410307
0.000131331
0.0369025
0.000146024
0.000166613
0.000201234
0.0216275
0.000175024
0.000154693
0.000146557
0.000199376
0.0362466
0.000142542
0.0119225
0.0239321
0.0116938
0.000271607
0.000170743
0.0252101
0.000158953
0.000243795
0.000143022
0.00434144
0.00419161
0.0104824
0.0126109
0.0111289
0.00016183
0.000206022
0.000140778
0.0199939
0.00427779
0.0346352
0.0117835
0.000161911
0.0017772
0.0122961
0.000172415
0.000150952
0.000147166
0.0389314
0.000159523
0.000198232
0.000159269
0.000147708
0.000138593
0.000146443
0.0170915
0.00571961
0.000169173
0.0141654
0.000273938
0.000155243
0.000143475
0.000139831
0.000170658
0.0529515
0.0170695
0.000158862
0.000171818
0.00157408
0.00020519
0.000184847
0.00666825
0.000167933
0.0528365
0.000166921
0.000160715
0.000143184
0.00015862
0.000204415
0.00688373
0.00461244
0.042541
0.000202059
0.0430074
0.000168269
0.000157362
0.00014763
0.00881756
0.020066
0.00937587
0.00019242
0.000155131
0.000144596
0.000142422
0.000143989
0.000139479
0.00733182
0.000166433
0.00817519
0.000169711
0.00684547
0.000319322
0.0513834
0.000184428
0.000160593
0.012227
0.000177657
0.00285261
0.0426231
0.000138213
0.000994045
0.000163246
0.0140397
0.00782137
0.000172944
0.000217591
0.00738376
0.000159366
0.000185463
0.00016641
0.0196991
0.00276926
0.000156305
0.000146583
0.00457491
0.000279436
0.000231886
0.00817491
0.000228916
0.000170596
0.000143683
0.000467107
0.0480585
0.000205598
0.000168674
0.0165189
0.0295086
0.000140997
0.000144307
0.000156906
0.0329593
0.0218544
0.00014351
0.0300001
0.00015009
0.000143492
0.000147098
0.0177579
0.000249844
0.000208873
0.00832605
0.00015131
0.000152351
0.000141637
0.0100188
0.000151603
0.0396783
0.000156223
0.0182728
0.000148965
0.000142534
0.000230168
0.00696428
0.00414057
0.000174877
0.00027874
0.000141365
0.00014584
0.000144456
0.000185018
0.000200542
0.00020034
0.000171681
0.0271139
0.000157322
0.000230056
0.000213593
0.00116953
0.000146694
0.0358772
0.0431684
0.000158218
0.00594848
0.000196294
0.0184328
0.000146994
0.00020105
0.000143469
0.00183741
0.022585
0.00020277
0.0467145
0.000152399
0.000184832
0.000150258
0.0305753
0.000134987
0.000139635
0.00708799
0.000209969
0.0191858
0.0255956
0.000193951
0.000165526
0.000138345
0.0247496
0.000162947
0.000151108
0.000238205
0.000169741
0.000183761
0.000144589
0.0127492
0.000154819
0.00450047
0.00459127
0.00016497
0.00127428
0.000192201
0.0631078
0.00014636
0.0191772
0.0278586
0.000139406
0.000144016
0.000152543
0.000149121
0.000179973
0.000144036
0.00743865
0.000203139
0.000264768
0.000755327
0.000147629
0.000149215
0.000138934
0.0295284
0.000146089
0.000145019
0.000198082
0.000155974
0.015523
0.0444168
0.000204927
0.000156772
0.00017255
0.000152095
0.000150037
0.000182917
0.000137921
0.000156376
0.00850914
0.0564415
0.000636507
0.000151891
0.0101873
0.00837325
0.000149204
0.00020756
0.0160496
0.000143612
0.000155129
0.000143064
0.0426471
0.0169793
0.0068634
0.000137706
0.000156373
0.000157957
0.000146689
0.000231968
0.000147137
0.000652041
0.00633669
0.0515692
0.000138209
0.000156112
0.000154804
0.0205081
0.000132524
0.015471
0.00943188
0.000280993
0.0130299
0.01794
0.000365502
0.000155629
0.00745734
0.00801097
0.00015145
0.000138086
0.000140505
0.0439608
0.00874759
0.0115529
0.000146565
0.055282
0.000146773
0.000239392
0.000139093
0.000153434
0.000151236
0.000138091
0.0186633
0.000151644
0.0317626
0.028846
0.0148087
0.000186744
0.000187525
0.0162562
0.0333083
0.000149067
0.0063165
0.00013893
0.000131699
0.000143283
0.000300388
0.000141491
0.0124706
0.000163372
0.000202678
0.00017325
0.00926092
0.013608
0.000210699
0.000137871
0.000192239
0.00020386
0.0179274
0.000146698
0.000134255
0.000157026
0.0335225
0.000149573
0.00485453
0.0115546
0.000181857
0.000196569
0.000147209
0.00106987
0.000148775
0.0545805
0.000135655
0.00739562
0.000168862
0.000145874
0.0120382
0.0134653
0.000135214
0.000194324
0.000157175
0.0107066
0.000196974
0.00022872
0.000204247
0.000148805
0.000192102
0.0196949
0.0001458
0.000266934
0.000157237
0.000202525
0.000171226
0.0101354
0.0272464
0.000146114
0.0363113
0.000151541
0.000184912
0.011833
0.0111865
0.00017235
0.0333955
0.000241384
0.000146727
0.00464667
0.000218903
0.000168904
0.000151491
0.00617061
0.00013551
0.00886611
0.000221203
0.000216753
0.000143351
0.000162172
0.0341719
0.000185317
0.00960753
0.000150178
0.000155805
0.000199393
0.00384247
0.00016045
0.0391031
0.012894
0.013001
0.000147358
0.00257668
0.000271611
0.0204564
0.000143945
0.000186634
0.000146914
0.0452049
0.000215451
0.00157413
0.000700028
0.000148912
0.000138874
0.000143714
0.0197829
0.0497086
0.0215697
0.0141538
0.000141371
0.0202781
0.0268072
0.000229438
0.00926883
0.0348468
0.000169837
0.00884845
0.000154667
0.000159781
0.0422846
0.000381015
0.000155075
0.0248779
0.000149159
0.00014435
0.03589
0.0280887
0.0583082
0.0206584
0.000168841
0.000148957
0.000159478
0.0349233
0.0127836
0.000142484
0.000183249
0.00542506
0.000144596
0.000146197
0.00965547
0.0304097
0.000153029
0.00014429
0.000151142
0.000150619
0.00155602
0.000149048
0.000143901
0.000159326
0.000264814
0.0351105
0.000245261
0.0133871
0.000146295
0.00015666
0.0347147
0.0305259
0.000162321
0.000183701
0.000143199
0.000176198
0.000154604
0.000157825
0.00019907
0.000143307
0.0160572
0.000169624
0.00014141
0.000155888
0.00026335
0.0277621
0.029808
0.000144768
0.000170247
0.0377229
0.00830697
0.000156532
0.000146056
0.000144746
0.000912431
0.000146368
0.000149372
0.000164449
0.000143882
0.0368838
0.00018996
0.000148587
0.000156595
0.000136708
0.000146968
0.0239905
0.0079336
0.000203827
0.0100759
0.000303504
0.000149334
0.000143036
0.00014586
0.0001465
0.000148495
0.000166246
0.000204728
0.0123245
0.000155028
0.000224372
0.0287942
0.000204346
0.000144511
0.000139772
0.000154903
0.00973797
0.000145906
0.000268167
0.0171975
0.000180467
0.000153081
0.0196786
0.00013684
0.000167571
0.000137585
0.000137277
0.000149936
0.000142933
0.000181131
0.000604327
0.00078943
0.000179235
0.000388089
0.00714044
0.011764
0.000170587
0.0290073
0.0098595
0.000223343
0.0019373
0.0127168
0.000221367
0.000965851
0.000149137
0.000141823
0.0104093
0.000142569
0.000156931
0.0543517
0.000178136
0.00102113
0.000256971
0.000139957
0.000261109
0.000145871
0.000525006
0.000138826
0.000634347
0.0208647
0.00804292
0.0160497
0.000145935
0.000135926
0.00020315
0.0285539
0.0388406
0.000219243
0.0232064
0.000140549
0.0342218
0.0397328
0.000247632
0.000153886
0.000146276
0.000139804
0.000151889
0.000147253
0.000146699
0.000156354
0.0355514
0.000207079
0.0363141
0.00738315
0.000282423
0.000122306
0.000142933
0.000143349
0.000152948
0.000138991
0.000148928
0.00738967
0.000296209
0.0094809
0.0545266
0.000154663
0.0147445
0.000234882
0.0397533
0.043984
0.000146652
0.000142302
0.00441723
0.000146045
0.00013537
0.0072152
0.0378913
0.0250084
0.000144616
0.000146112
0.000165255
0.000178044
0.000280988
0.000139176
0.00015436
0.000234872
0.000139545
0.00667149
0.000177504
0.0519673
0.000148907
0.00868718
0.030131
0.000173584
0.0310647
0.000224525
0.0386761
0.000136655
0.000158026
0.000140522
0.000167211
0.0190383
0.000147282
0.00947479
0.000151367
0.000146558
0.000144323
0.0526794
0.000184397
0.000224903
0.00702578
0.000139866
0.000182327
0.0115828
0.000192253
0.000142542
0.000156833
0.000146238
0.000181332
0.000145611
0.00014236
0.0593822
0.0546291
0.0467822
0.000269536
0.000241256
0.0141144
0.00019824
0.0592787
0.000229634
0.000135756
0.000144742
0.000131442
0.000147479
0.0387256
0.0348905
0.000140501
0.00824094
0.0577701
0.000166034
0.000154321
0.000170062
0.00548743
0.00689324
0.037346
0.000377387
0.0396704
0.000131514
0.000254952
0.000220273
0.00497619
0.0461316
0.000143563
0.000227963
0.0128481
0.000170192
0.0305146
0.000148404
0.000622401
0.0135083
0.0493629
0.00019991
0.000169572
0.0216696
0.000220405
0.0504444
0.0515231
0.0358255
0.0002228
0.000406623
0.000146325
0.000163731
0.000187114
0.0321095
0.00466045
0.0388281
0.000152354
0.000220415
0.000203471
0.000153505
0.0160903
0.000143617
0.00023069
0.0281544
0.000143618
0.0216523
0.00568811
0.0535488
0.00164155
0.000281892
0.00685599
0.000144023
0.0422247
0.000150793
0.000143449
0.000182299
0.000156107
0.0444305
0.000156691
0.000170567
0.000156698
0.000142614
0.000275818
0.00015289
0.000222587
0.00455686
0.000138132
0.0390209
0.000220556
0.000154965
0.0101221
0.000203944
0.000143333
0.000507615
0.000150183
0.056887
0.00776489
0.00014117
0.000211682
0.00015311
0.0489137
0.041063
0.000204693
0.0160574
0.000160159
0.000144854
0.0527216
0.000156463
0.000146957
0.0206598
0.000177896
0.000140434
0.000141185
0.000231586
0.00015232
0.0267276
0.000244002
0.000175598
0.017659
0.000188157
0.000197826
0.000144486
0.0518641
0.0255564
0.0208338
0.000144045
0.000138658
0.000205658
0.00016789
0.00603281
0.000147214
0.00476738
0.000145047
0.000264832
0.000149483
0.000175765
0.000233538
0.000220061
0.0392806
0.0298134
0.0140326
0.0387952
0.000131747
0.0147898
0.0195482
0.030183
0.000144631
0.000248885
0.0247799
0.0132648
0.000217441
0.000260524
0.0157685
0.0571018
0.000182082
0.000210186
0.000137996
0.000187249
0.000180106
0.000143296
0.000199667
0.0184864
0.00110006
0.0141196
0.0395606
0.000142379
0.000140329
0.000171795
0.00014341
0.0158496
0.000139506
0.000140181
0.0634226
0.0033464
0.000166658
0.000221083
0.000153713
0.000208202
0.00971925
0.0436611
0.0104199
0.000159494
0.0425488
0.000156246
0.0001389
0.000154247
0.0331379
0.0191238
0.000260632
0.00301832
0.00015135
0.000140863
0.000143433
0.000149208
0.000162125
0.021491
0.0284664
0.00016592
0.0195792
0.0259484
0.00817044
0.0219768
0.000144657
0.000167953
0.00179687
0.000144272
0.000163994
0.000162785
0.000156522
0.0154824
0.0441081
0.000139564
0.000177413
0.000167602
0.000200908
0.0217743
0.00769571
0.0542232
0.000149739
0.000201532
0.0522444
0.000203705
0.000213263
0.0077119
0.0050617
0.0629765
0.0600659
0.000138874
0.000485738
0.000139495
0.00015362
0.000143929
0.000197047
0.0604709
0.0206675
0.00451894
0.0123
0.000194893
0.000134864
0.000139635
0.00014617
0.000160922
0.000184666
0.058837
0.0593603
0.000200162
0.00338616
0.000147621
0.000194441
0.000138506
0.0526075
0.000198669
0.000149151
0.000224912
0.000221247
0.000506103
0.0367089
0.000230736
0.00618491
0.00015782
0.0218112
0.00021204
0.035114
0.00441214
0.000155727
0.000193956
0.000145646
0.00797522
0.00914607
0.000181254
0.0371861
0.000206916
0.0355063
0.000200072
0.000245897
0.000176681
0.000140347
0.000213611
0.000195045
0.000157041
0.000193569
0.000169646
0.000171516
0.0118103
0.000229768
0.000152622
0.000167843
0.000177021
0.000169181
0.000155688
0.00396769
0.000224462
0.000316343
0.0125879
0.000144487
0.0427194
0.00014453
0.000154426
0.000154123
0.042223
0.000176695
0.0516667
0.0246354
0.000196089
0.000194207
0.000219845
0.0154722
0.000231846
0.0140944
0.000170501
0.000182836
0.000144476
0.0460597
0.00546263
0.000170064
0.000147456
0.000175624
0.000160983
0.000156809
0.000185783
0.000177998
0.000147115
0.00017129
0.0204045
0.0218396
0.000222308
0.000182092
0.000133144
0.0227384
0.000171461
0.000195962
0.0010613
0.000180196
0.000721552
0.000135676
0.000166991
0.000155256
0.000170072
0.000143392
0.0438469
0.00465698
0.000253372
0.000175117
0.0233141
0.00599132
0.000160403
0.0178975
0.0001973
0.00169096
0.0116122
0.00017939
0.000156607
0.000178535
0.000200897
0.000161485
0.000286541
0.0372596
0.00462664
0.00014039
0.0124643
0.000253317
0.000422045
0.000142954
0.000185042
0.000143718
0.000168444
0.000282005
0.000166782
0.000166525
0.000140606
0.000140284
0.000323775
0.031774
0.000147149
0.000421487
0.000370506
0.000135008
0.00016485
0.0460098
0.000224837
0.000221434
0.000144075
0.000163318
0.000220671
0.000148767
0.000143497
0.0316257
0.000167225
0.0440146
0.000205032
0.000161532
0.0607628
0.000218411
0.000239155
0.000140923
0.00594229
0.000167351
0.000162392
0.0261316
0.000181349
0.000147232
0.00020777
0.000157817
0.000164272
0.000136371
0.004599
0.000144239
0.000197349
0.000264437
0.000219718
0.000142768
0.000272475
0.000169135
0.0236905
0.000234914
0.0365838
0.000217739
0.0476625
0.000138703
0.000207169
0.000159872
0.000142152
0.00644564
0.000337933
0.000158501
0.000795705
0.000163574
0.00020545
0.0370022
0.000161068
0.00719625
0.00750839
0.0363428
0.0208008
0.000275391
0.000167204
0.000139791
0.000198499
0.000173225
0.00936567
0.000886454
0.0520391
0.0047907
0.0518599
0.000140073
0.00076593
0.000143945
0.000151689
0.000146694
0.0055348
0.00022945
0.000206806
0.000142858
0.0123503
0.000163723
0.0306857
0.000143601
0.000197065
0.000168445
0.000195849
0.000182944