/*--------------------------------*- C++ -*----------------------------------*\
| =========                 |                                                 |
| \\      /  F ield         | OpenFOAM: The Open Source CFD Toolbox           |
|  \\    /   O peration     | Version:  v2012                                 |
|   \\  /    A nd           | Website:  www.openfoam.com                      |
|    \\/     M anipulation  |                                                 |
\*---------------------------------------------------------------------------*/
FoamFile
{
    version     2.0;
    format      ascii;
    class       volVectorField;
    location    "500";
    object      U;
}
// * * * * * * * * * * * * * * * * * * * * * * * * * * * * * * * * * * * * * //

dimensions      [0 1 -1 0 0 0 0];


internalField   nonuniform List<vector> 
13851
(
(1.13667 0.047635 8.54833e-21)
(1.07066 -0.0247657 2.63044e-20)
(1.06913 -0.0237664 -1.34172e-20)
(-0.186849 -0.0186408 0)
(1.00202 -0.000448322 1.88162e-21)
(1.08013 -0.0387157 2.26731e-21)
(1.05866 0.0106166 0)
(1.01322 -0.000781565 2.40265e-21)
(0.289946 0.0373884 0)
(0.991035 -0.00717492 2.87512e-21)
(1.15765 -0.0996364 -1.63146e-21)
(1.00119 -0.0081937 0)
(0.980439 -0.0188975 4.13597e-21)
(0.0823213 0.0110489 0)
(1.10077 0.00738547 2.11123e-20)
(1.08753 0.0537358 0)
(-0.303645 -0.00467505 6.01375e-20)
(1.03486 -0.0198225 5.86358e-21)
(1.20226 0.0338587 7.65953e-20)
(1.1379 0.0457666 1.6018e-20)
(1.11242 0.00173729 2.26597e-20)
(1.0373 -0.0905683 6.69061e-21)
(0.561306 -0.273224 -1.09407e-19)
(1.00007 -0.000208844 -4.48796e-21)
(1.19756 -0.0165497 0)
(1.08789 0.0417992 -2.81411e-20)
(1.09639 0.0702595 -2.042e-20)
(1.14482 0.0690292 4.3418e-20)
(0.435157 0.0384042 0)
(1.02043 -0.0123597 0)
(-0.0804972 -0.0149546 0)
(1.05883 0.0099682 -9.65912e-21)
(1.12858 0.0496321 4.49539e-20)
(0.358509 0.0589015 0)
(1.12684 -0.0843084 0)
(0.468919 0.0390981 4.79949e-21)
(1.00004 -0.000187424 4.51252e-21)
(1.20899 -0.149833 -1.07733e-19)
(0.0140457 0.0171267 -5.64258e-20)
(1.0059 -0.0379506 8.38522e-21)
(0.193149 0.043949 -2.25604e-20)
(0.471145 0.0421933 0)
(-0.233243 -0.00672871 -1.18534e-19)
(1.09544 -0.471125 -6.41335e-20)
(0.483974 0.0471983 5.53842e-21)
(1.01421 -0.0226099 6.84329e-23)
(1.01987 -6.20324e-05 -8.57737e-21)
(1.09463 0.0547898 -1.38326e-20)
(1.04451 -0.0568346 0)
(0.980127 -0.0179423 0)
(-0.226133 0.00170375 -1.107e-19)
(0.97333 -0.0121142 -1.70131e-20)
(1.08822 0.0536287 -1.10546e-20)
(1.07556 0.0202178 1.95895e-20)
(0.145211 0.00845681 -4.04426e-20)
(1.00486 -0.0382268 -2.67474e-21)
(1.13037 0.0504683 -6.72988e-20)
(0.160721 0.0383885 -4.2342e-21)
(1.09181 0.0655177 -3.33377e-20)
(-0.0343613 0.0100112 5.9812e-20)
(1.00109 -0.00774061 1.28319e-22)
(1.09787 0.0690655 -3.81223e-20)
(0.995459 -0.00248744 -5.1769e-22)
(1.0449 -0.0590523 8.02006e-21)
(0.874859 -0.441953 2.09098e-20)
(0.856421 -0.461992 -1.84349e-22)
(-0.0555487 0.00617813 -5.25951e-20)
(0.6932 -0.120281 0)
(1.01962 -0.0393841 0)
(-0.15485 -0.0142943 -2.14603e-19)
(-0.151838 -0.00728585 -3.35119e-22)
(1.12208 0.00528432 0)
(0.993377 -0.0260383 -9.11345e-21)
(-0.0374525 0.00796865 0)
(1.08225 0.0176433 0)
(1.01949 -0.0732945 -1.08719e-22)
(-0.279247 -0.00698151 8.68841e-20)
(1.02144 -0.00648928 1.49563e-21)
(1.24513 -0.0228425 0)
(1.00463 -0.0177134 -1.81827e-21)
(1.02083 -0.0400051 0)
(1.25855 -0.0851969 0)
(1.1233 -0.0859599 0)
(0.0716215 0.0112364 1.35715e-20)
(-0.0197135 0.0105523 0)
(-0.104775 -0.0120385 -7.48999e-20)
(1.04051 -0.0917784 -2.37535e-20)
(0.253918 0.00628323 2.13686e-22)
(0.991655 -0.0113562 -4.0976e-22)
(-0.0771074 -0.0137425 1.81449e-19)
(0.972091 -0.0113092 -1.69735e-20)
(1.06004 0.00973398 -1.09489e-20)
(-0.216765 -0.00582022 -7.95957e-22)
(-0.137825 -0.0113913 -8.38894e-20)
(-0.0333263 0.0159899 -2.51898e-20)
(1.0801 -0.431827 3.47683e-20)
(1.00931 -0.0241377 -1.30151e-21)
(1.09118 0.0549225 -1.73549e-20)
(-0.165707 0.00398353 7.14722e-20)
(1.21111 -0.192182 -7.78484e-20)
(1.09172 0.0557594 2.58856e-20)
(0.809855 -0.114199 -3.1467e-21)
(0.810101 -0.147016 5.67272e-20)
(0.989265 -0.0277107 0)
(1.01776 -0.0223646 0)
(1.12745 -0.00925251 0)
(1.01705 -0.0220907 0)
(-0.132346 -0.00937688 0)
(1.06014 0.00896536 2.07596e-20)
(1.03394 -0.019243 0)
(1.02496 -0.128728 -1.28059e-21)
(1.01496 -0.0230368 0)
(1.2079 -0.0214304 1.14129e-20)
(1.15741 -0.0468504 0)
(1.11632 0.053628 3.11671e-20)
(1.07489 0.0190307 -2.16857e-20)
(1.0143 -0.00819978 -6.75175e-23)
(1.01388 -0.000915495 -1.08574e-21)
(-0.202636 -0.0163647 0)
(-0.119001 -0.0177961 1.3348e-19)
(1.10952 -0.357052 0)
(1.02832 -0.0162583 0)
(1.01477 -0.0399395 0)
(0.0845314 0.0259985 2.49985e-20)
(1.17774 0.0445328 5.92533e-20)
(0.614565 -0.200809 1.16925e-19)
(1.00982 -0.0238372 1.05457e-21)
(1.12659 -0.14934 -4.82172e-20)
(0.213094 0.0454928 -2.03428e-20)
(1.11154 0.0127473 -3.7933e-21)
(1.03395 -0.0924913 -7.0393e-22)
(1.09604 -0.0656295 4.10598e-21)
(1.31222 -0.16654 -9.32246e-20)
(0.342039 0.0569623 0)
(1.16189 -0.0967901 0)
(-0.0435637 0.0168688 7.95372e-20)
(0.706367 -0.112749 0)
(-0.120164 -0.0108492 0)
(0.847632 -0.0862381 0)
(1.10735 0.0157459 0)
(1.25586 -0.0893063 -5.74706e-21)
(0.974324 -0.0434912 2.63143e-21)
(0.990959 -0.0114491 0)
(0.742949 -0.305779 0)
(1.14391 0.00694536 7.52725e-20)
(1.00613 -0.0714649 -2.54774e-21)
(1.02123 -0.0060669 0)
(-0.12898 -0.0119608 8.44673e-20)
(0.290895 0.0264136 1.37614e-20)
(1.13164 -0.151553 0)
(1.09275 0.0557347 0)
(1.20657 -0.0242966 0)
(1.16131 -0.0459863 7.39469e-20)
(1.19099 0.0320155 0)
(0.97217 -0.0219785 0)
(0.983525 -0.00824196 5.03664e-21)
(1.00124 -0.00651419 0)
(-0.0222001 0.0134572 1.37953e-19)
(1.10546 0.0124322 -2.92315e-20)
(1.06145 0.000372988 6.98092e-21)
(1.00014 -0.00048699 0)
(0.448631 0.0381793 -2.18897e-20)
(1.12478 -0.00843741 0)
(1.09564 0.0547107 2.27629e-20)
(0.0860612 0.00965777 1.4823e-20)
(0.381747 0.0478579 -1.05317e-20)
(0.393462 0.0494009 0)
(-0.209591 0.00338751 8.31446e-20)
(1.02571 -0.12391 -4.72993e-21)
(0.7081 0.0640143 7.94036e-20)
(1.00082 -0.00714667 -2.814e-21)
(1.01423 -0.00779811 -1.32755e-21)
(1.14206 -0.0127979 0)
(1.00106 -0.00041732 0)
(-0.0057098 0.0207375 0)
(1.11703 0.0760949 0)
(1.0989 0.0585796 -3.78487e-21)
(1.01481 -0.00776005 -1.76083e-21)
(1.08052 0.0190551 2.49281e-20)
(1.09828 0.0575855 6.36272e-21)
(1.17419 0.0439156 -7.37539e-20)
(1.10207 -0.452833 7.0313e-20)
(1.03119 -0.117034 0)
(1.10961 0.0129536 -1.05144e-20)
(-0.245617 -0.00730483 -5.70574e-20)
(0.299538 0.0266317 -3.31805e-22)
(1.12724 0.0512926 1.70434e-20)
(0.888692 -0.0643263 0)
(0.976606 -0.0228127 -2.72896e-20)
(1.01867 -0.0167047 1.19656e-21)
(1.23179 0.00103986 6.55774e-20)
(1.10621 0.0113288 4.68803e-20)
(0.0623251 0.00519324 -2.28567e-20)
(1.08155 -0.0366826 1.69505e-20)
(1.00795 -0.0694171 -6.0649e-22)
(1.08967 0.0542914 1.6057e-20)
(1.12544 0.0504015 -1.06787e-20)
(1.04531 -0.0117742 -4.77501e-21)
(1.04044 -0.0281043 7.3731e-21)
(0.709198 -0.155637 -6.5376e-20)
(1.25714 -0.101474 -1.16729e-20)
(0.026828 0.0271065 -4.52131e-20)
(0.144276 0.0409086 0)
(1.09924 0.00818971 4.84637e-21)
(0.939728 -0.70462 0)
(-0.00441254 0.0250804 0)
(0.937187 -0.0196365 -2.44002e-20)
(1.10004 0.0220636 0)
(0.283059 0.0394052 8.84736e-21)
(1.07454 -0.0461283 9.83841e-21)
(1.08637 0.0532028 4.75301e-20)
(1.01415 -0.0391133 1.31614e-21)
(1.26025 -0.0968639 0)
(1.00011 -0.00209846 2.48516e-21)
(1.13035 -0.0772731 7.77751e-20)
(1.02299 -0.0809647 0)
(0.981405 -0.0168713 0)
(1.14869 0.0572172 -6.41356e-20)
(1.04451 -0.0201098 8.63852e-21)
(0.153205 -0.534998 0)
(1.01485 -0.00734508 -1.93976e-21)
(1.14185 0.0440088 4.07403e-20)
(0.0517888 0.00764387 1.57655e-22)
(-0.0274724 0.0175208 -7.17119e-20)
(0.900585 -0.0737891 3.17789e-20)
(1.09978 0.0229661 -7.90023e-21)
(1.00002 -0.00104843 4.55178e-21)
(0.745853 -0.28453 -3.98423e-20)
(1.00144 -0.0129708 -8.69992e-21)
(1.12711 -0.0785651 -6.81514e-20)
(-0.0336367 -0.0416642 -4.43201e-20)
(0.894347 -0.0650353 2.84516e-20)
(1.0744 -0.0440489 -8.30155e-21)
(0.996254 -0.000564321 -1.473e-20)
(0.130335 0.0396622 -2.56017e-22)
(1.0211 -0.0121837 -3.09138e-21)
(0.909746 -0.432567 -1.15488e-19)
(0.123991 0.0373196 5.18636e-20)
(1.20365 -0.187253 6.83309e-20)
(1.0001 -0.000465332 0)
(1.28407 -0.317098 -4.34051e-20)
(-0.00834763 0.010663 0)
(0.51449 0.0500356 0)
(1.08696 0.0530814 -4.38813e-20)
(1.10342 -0.0152902 -3.61065e-20)
(0.70691 -0.337419 0)
(1.14824 0.0550736 1.82906e-21)
(1.08014 0.0201761 -3.72484e-20)
(1.08274 -0.413969 -3.43417e-20)
(1.04389 -0.130728 6.43952e-21)
(0.191601 0.00547118 1.0624e-20)
(1.16454 0.0274653 9.1054e-20)
(1.01022 -0.000830634 -9.02452e-22)
(1.08045 -0.0161398 -3.08595e-20)
(1.09031 0.0551399 0)
(0.437452 0.0361006 1.99379e-20)
(0.330041 0.00874855 0)
(1.01821 -0.0160016 -1.15404e-21)
(0.590482 -0.196459 -1.7513e-19)
(0.992515 -0.0122162 0)
(1.12938 0.0608305 2.09986e-20)
(1.18169 0.0398516 -3.54162e-21)
(1.08222 -0.0155849 -2.03145e-22)
(1.12497 -0.00525783 6.75024e-20)
(1.16771 0.027412 -8.80443e-20)
(0.999154 -0.0243645 -4.79271e-21)
(0.805067 -0.123887 8.84516e-20)
(1.09719 0.0517996 -2.35394e-20)
(1.17378 0.0681442 -5.11266e-20)
(0.997702 -0.0080772 9.76242e-21)
(0.981325 -0.0158752 0)
(0.895094 -0.0722388 -7.35044e-20)
(0.376788 0.054226 -7.46208e-21)
(-0.253776 -0.00946691 -1.7735e-21)
(1.11563 0.00638534 -8.45849e-21)
(1.02932 -0.0167735 -3.59304e-21)
(1.17298 0.0469265 -6.62947e-20)
(1.18627 0.0361852 -3.51797e-20)
(1.11901 0.0491511 0)
(1.12302 -0.0045137 -6.35725e-20)
(0.34602 0.0499419 0)
(-0.132869 0.00420838 7.0008e-27)
(1.0854 -0.02351 0)
(1.09575 0.00515659 6.3761e-20)
(1.15533 -0.173071 -1.61694e-21)
(1.01981 -0.0215371 -2.53478e-21)
(1.00137 -0.00617856 4.97101e-21)
(1.12093 0.049862 1.85339e-20)
(1.14323 -0.114734 5.31077e-20)
(1.02245 -0.012409 4.68626e-22)
(1.00012 -0.00206674 -4.6795e-21)
(1.00121 -0.0133434 1.1061e-20)
(1.00418 -0.000623919 9.86501e-22)
(1.10036 -0.00697162 -5.67177e-20)
(1.00141 -0.0065884 -1.49521e-22)
(0.301385 0.0398664 -2.39683e-20)
(1.11419 0.0029891 0)
(1.01095 -0.0321886 1.10574e-21)
(0.444675 0.0349918 -5.41893e-21)
(0.0728221 0.0239451 0)
(0.974443 -0.0174982 0)
(1.14076 0.0460722 -5.87335e-20)
(-0.198533 0.00241077 0)
(0.973178 -0.0458239 -1.17744e-20)
(0.973073 -0.0167898 0)
(1.11651 0.00262538 0)
(0.0414273 0.00795241 4.125e-21)
(0.23952 -0.00834028 3.6674e-20)
(1.14297 -0.000836129 2.53025e-20)
(1.00224 -0.000589667 -1.72416e-21)
(0.744878 0.0660432 -6.39777e-20)
(1.00091 -0.00758883 -4.80215e-21)
(1.14873 -0.00116995 3.51123e-21)
(-0.181844 0.0045209 0)
(1.17477 0.0691036 -5.21191e-20)
(1.06026 2.19934e-05 -1.46556e-20)
(1.25322 -0.205914 0)
(1.31715 -0.176254 7.59719e-20)
(-0.104353 -0.00629404 1.76675e-19)
(1.20836 -0.0316284 7.3015e-20)
(0.780091 -0.0927273 4.5933e-20)
(0.000602875 0.0184576 2.78668e-20)
(0.125028 0.0338662 0)
(1.16294 0.0675564 -2.33227e-20)
(1.04174 -0.0288847 0)
(-0.250938 -0.00741806 -9.99562e-20)
(0.145973 -0.000406666 0)
(0.461102 -0.448297 0)
(0.496303 -0.454155 0)
(0.935558 -0.020818 2.82974e-20)
(1.14562 -0.00829427 0)
(0.946282 -0.115581 -1.6211e-20)
(0.262502 0.00715722 9.95787e-21)
(0.784944 -0.139516 0)
(1.00803 -0.00192959 -9.17614e-23)
(1.0199 -0.000137365 4.56099e-21)
(1.06772 -0.0807962 -2.03327e-20)
(-0.131428 -0.00921777 -1.93024e-19)
(0.206912 -0.541666 0)
(1.01983 -0.0207475 2.78776e-21)
(-0.0428099 0.0162858 1.30381e-19)
(0.935541 -0.112812 1.79252e-20)
(1.09678 -0.068538 -2.05862e-20)
(1.06171 0.00121047 -3.72514e-21)
(0.0324208 0.00540457 0)
(1.17002 0.0467246 5.91821e-20)
(1.0888 0.0544166 -1.22608e-20)
(1.02075 -0.078738 0)
(1.07188 -0.0431968 -1.66808e-20)
(0.515189 0.0373689 -2.21955e-20)
(0.976465 -0.0244419 2.67804e-20)
(1.19028 0.0354803 -3.58246e-20)
(1.08399 -0.0223135 0)
(1.11776 0.00133917 2.98954e-20)
(0.929665 -0.115121 -1.10921e-20)
(0.991855 -0.012194 0)
(1.01173 -0.0317901 1.71069e-22)
(1.22023 -0.0861934 -8.52917e-21)
(1.21901 -0.188232 0)
(1.16109 0.0309968 -2.73922e-21)
(1.34884 -0.179937 1.76292e-19)
(0.524667 0.0390216 3.55191e-20)
(1.00733 -0.0729074 1.13541e-20)
(0.107631 0.0366288 -3.72881e-20)
(1.13463 0.0649519 2.28695e-20)
(1.02755 -0.00879992 -3.44908e-22)
(1.15877 0.0713426 7.39093e-20)
(1.1351 0.0317517 -7.635e-21)
(-0.15145 0.00617141 -7.16913e-21)
(1.06576 -0.078317 0)
(1.0843 0.0443582 -1.41155e-20)
(1.08776 0.0648683 0)
(1.28481 -0.0898498 2.35482e-20)
(1.21709 -0.0964554 -1.26206e-19)
(0.252311 0.00725851 1.62789e-20)
(1.04504 -0.0395259 -1.44523e-20)
(1.11995 0.0777773 0)
(-0.327456 -0.00624134 2.13478e-19)
(1.09874 -0.0266376 -8.85252e-21)
(0.212216 0.00935057 2.27354e-20)
(1.10555 -0.0286082 1.05166e-20)
(0.150231 0.0382207 6.80029e-20)
(1.09488 0.00412417 -5.74539e-20)
(1.07789 0.0312835 2.29635e-20)
(1.17066 0.0220255 -2.25184e-20)
(1.24254 -0.166398 6.14766e-20)
(0.983568 -0.00916164 0)
(1.08279 -0.0284924 -7.76461e-21)
(1.14742 -0.117576 0)
(1.08193 0.0188116 0)
(1.01245 -0.024702 0)
(1.11544 0.00822612 2.72027e-20)
(0.622375 0.0752855 -4.23047e-20)
(0.99417 -0.0259932 -1.08762e-20)
(1.10144 0.0210156 0)
(-0.213152 -0.0170848 2.19345e-19)
(1.06518 -0.0405923 -6.06865e-21)
(1.25489 -0.47864 0)
(1.0873 0.0296071 4.85975e-20)
(0.302429 -0.00900849 0)
(1.07694 -0.04757 0)
(1.08749 0.0408683 -1.66456e-21)
(0.916812 -0.679031 0)
(1.18111 0.0420075 0)
(1.12795 -0.0143764 -6.58674e-20)
(0.310977 0.0058616 0)
(-0.0284893 0.00716525 2.51429e-21)
(1.25357 -0.312838 0)
(0.998385 -0.0244166 -5.92086e-21)
(1.21649 -0.0829935 8.30192e-21)
(1.10695 -0.0351206 -4.60065e-20)
(1.08496 0.0436835 -1.19468e-20)
(1.02686 -0.0178818 -2.79843e-21)
(-0.237505 -0.00551068 -5.13658e-22)
(0.576815 0.0693034 -2.54903e-20)
(1.24993 -0.0497936 1.07172e-20)
(1.07152 -0.0412337 1.19013e-20)
(1.17049 0.0242764 0)
(1.10263 0.0711285 -4.15693e-20)
(-0.239218 -0.0120798 0)
(1.02439 -0.00356719 0)
(-0.286394 -0.00493032 0)
(1.25249 -0.152857 -9.99751e-20)
(0.30833 -0.187342 -1.05481e-19)
(1.04815 -0.133524 -9.21099e-21)
(1.15478 0.0534522 -4.70206e-20)
(0.98724 -0.0164005 0)
(1.00124 -0.000357486 1.37383e-22)
(0.135501 0.0061327 4.94103e-20)
(1.10561 0.0725016 2.92929e-21)
(0.990346 -0.00771744 -3.27145e-21)
(1.07051 -0.026228 5.45611e-21)
(1.10311 0.0211325 0)
(1.01255 -0.00876446 9.24687e-22)
(0.650424 0.0717728 2.57201e-20)
(1.14568 -0.00568425 0)
(1.13547 0.0303633 0)
(1.07527 -0.00187114 0)
(1.04573 -0.0383971 1.1915e-20)
(0.971839 -0.00610585 -4.20709e-20)
(1.31843 -0.101699 0)
(1.00982 -0.031431 3.06292e-21)
(0.972919 -0.00508135 2.97043e-20)
(0.873794 0.063458 -2.45203e-20)
(0.656622 0.0732018 3.98085e-20)
(1.03085 -0.0899999 0)
(1.09308 0.0641305 8.61143e-21)
(0.995667 -0.00197004 7.26728e-21)
(1.00153 -0.00624601 -7.39088e-21)
(1.06742 -0.0415151 1.26852e-20)
(1.1637 0.0310075 0)
(1.08417 0.0311037 0)
(1.01229 -0.026133 1.67065e-21)
(1.05487 -0.031317 0)
(1.11108 -0.346031 0)
(1.06271 -0.0188335 2.68324e-20)
(0.346407 -0.0212254 7.19377e-20)
(1.00137 -0.007673 -2.64164e-21)
(1.07519 0.00922146 4.89916e-21)
(0.490029 0.0485444 1.12206e-20)
(0.937032 -0.158354 7.2281e-21)
(1.01902 -0.000755449 2.21348e-21)
(1.00039 -0.00662932 0)
(1.0749 -0.00283072 0)
(1.04814 -0.0107813 0)
(1.23718 -0.365437 -3.99046e-20)
(0.793103 0.0619153 7.03068e-21)
(1.10439 -0.0137577 4.40449e-20)
(0.3222 -1.12228 0)
(1.06907 -0.0401578 0)
(1.00013 -0.0103521 -5.08539e-21)
(0.250166 0.0463694 2.52884e-20)
(1.08921 0.065057 -8.81861e-21)
(0.876677 -0.120855 0)
(0.995269 -0.0298694 8.48195e-21)
(0.112951 0.03147 -7.50811e-21)
(0.856991 -0.0915889 2.27531e-20)
(1.18205 -0.640673 1.6877e-20)
(0.988649 -0.0268559 7.33663e-21)
(1.09873 -0.0604394 -2.21768e-21)
(1.22092 -0.0932852 1.2291e-19)
(1.0881 0.0167092 0)
(0.158724 0.0389823 -2.47675e-20)
(1.10149 0.0712266 5.12506e-20)
(1.30109 -0.0605278 0)
(0.975458 -0.0694578 8.48652e-21)
(1.20965 -0.0284125 -7.77481e-20)
(1.00026 -0.0256627 4.63912e-21)
(0.424414 0.0367337 0)
(1.08783 0.0289189 -5.01432e-20)
(1.12395 0.0509005 2.35842e-20)
(1.10543 -0.0332382 2.81016e-20)
(1.02132 -0.0756065 -1.13468e-21)
(0.943441 -0.156049 -2.921e-20)
(1.14247 -0.00956405 4.77765e-20)
(1.0018 -0.000539709 0)
(-0.269914 -0.00680992 -1.52784e-20)
(0.220579 0.0426409 -1.3746e-20)
(0.388632 -0.0267801 -5.97856e-20)
(-0.178848 -0.00626704 6.45393e-20)
(0.813437 0.0631262 8.17257e-21)
(-0.22558 0.00259477 7.70074e-20)
(1.18571 0.0390781 7.52418e-20)
(0.911785 -0.077489 -1.96116e-22)
(0.99966 -0.00277937 0)
(1.23557 -0.481811 4.47956e-20)
(0.991084 -0.0064585 -5.95207e-21)
(1.01214 -0.0240229 0)
(0.90566 -0.0940797 -3.0025e-20)
(0.0175721 0.0239486 -5.81225e-21)
(1.06825 -0.0180977 -3.29114e-21)
(0.969955 -0.0387241 1.284e-20)
(1.07171 -0.278367 2.68744e-20)
(1.13486 -0.0357805 0)
(0.989116 -0.00180729 6.70189e-21)
(0.69749 0.019369 0)
(1.00801 -0.0231349 1.76781e-21)
(0.258237 0.0499889 0)
(1.2274 -0.349775 -1.68789e-20)
(1.00504 -0.0183253 -1.90045e-21)
(1.06322 -0.00951217 0)
(1.2559 -0.126365 0)
(1.15955 0.0697013 5.88394e-20)
(1.02182 -0.0126695 5.78954e-21)
(0.999774 -0.0951159 7.2264e-20)
(1.07886 -0.404732 0)
(1.03172 -0.00354801 0)
(-0.0585141 0.00575405 -6.64774e-20)
(1.19941 0.0343877 -7.39455e-20)
(1.14549 0.0418089 -4.28191e-20)
(0.974044 -0.0677189 -1.48099e-20)
(0.89163 0.0645583 1.68811e-20)
(-0.0814033 0.00813385 -5.94869e-20)
(1.03242 -0.00377253 -4.85472e-21)
(1.22649 -0.00951859 -8.64982e-20)
(1.0172 -0.0395986 9.58418e-23)
(1.00846 -0.0237059 0)
(0.945478 0.060279 -3.11293e-20)
(0.15444 0.0386569 0)
(1.11861 -0.0343336 0)
(1.08308 0.0309425 0)
(0.990456 -0.00518216 -8.17141e-21)
(1.09205 0.035975 -3.36074e-21)
(0.24389 0.0485815 2.61241e-20)
(-0.0229201 0.0148348 0)
(1.03551 -0.00698935 0)
(-0.280994 -0.000774371 2.33294e-19)
(1.01192 -0.025496 -1.36253e-21)
(1.01843 -0.0403488 -1.12923e-22)
(1.12882 -0.0124738 7.03724e-20)
(1.07178 0.0136016 -1.14477e-20)
(1.02464 -0.00328271 2.39172e-21)
(1.01669 -0.0734 -4.92938e-22)
(-0.0429225 0.00622118 6.83014e-20)
(1.23763 -0.163059 -9.70739e-20)
(-0.0737076 0.00532336 -7.27627e-20)
(1.06618 -0.0185191 0)
(0.99272 -0.0129446 6.86974e-21)
(0.400405 0.054008 3.23101e-20)
(0.999442 -0.0039175 -9.31711e-21)
(1.21692 -0.073327 0)
(1.07884 0.00382676 0)
(1.08402 0.0159842 3.02824e-20)
(1.10431 -0.0194895 0)
(0.593563 0.0557105 -1.11519e-20)
(-0.119117 0.00618959 0)
(1.08074 -0.0325285 -2.17609e-20)
(-0.286748 -0.00593079 0)
(1.05915 -0.00195033 -2.30288e-20)
(1.15209 -0.0211762 1.79129e-21)
(0.480172 0.0441771 1.1106e-20)
(0.170696 0.0140722 -1.97945e-20)
(1.01094 -0.0401489 -1.28228e-21)
(0.999528 -0.0255452 -5.77174e-21)
(0.817227 -0.155832 -2.23196e-20)
(-0.0628379 0.00640912 0)
(1.08868 0.0602189 1.49994e-20)
(1.09099 0.0356401 7.05897e-21)
(1.07705 -0.563623 1.12612e-19)
(1.0717 0.0143115 3.10507e-21)
(1.09292 0.00470713 4.13746e-20)
(0.0611731 -0.0542325 4.3915e-20)
(0.646023 0.0136523 8.62504e-20)
(1.08461 -0.336073 -2.60545e-20)
(0.242182 0.0481678 0)
(1.113 0.0623143 -4.90986e-20)
(0.529795 0.0427922 2.7957e-21)
(1.04088 -0.0381415 1.45273e-20)
(1.09307 0.0656067 3.65532e-20)
(1.22266 0.0487934 6.89618e-22)
(0.999805 -0.00897222 4.85904e-21)
(-0.29823 -0.00172474 8.87443e-20)
(0.440555 0.0403502 -4.02686e-20)
(1.03084 -0.122218 6.32726e-21)
(1.1092 0.015105 1.35359e-20)
(1.00164 -0.0352888 6.14608e-21)
(0.472161 -0.838139 -9.04874e-21)
(1.14105 -0.18441 4.88981e-21)
(0.603508 -0.198334 -1.39309e-19)
(1.00913 -0.0319395 0)
(1.00074 -0.000490862 1.09817e-21)
(0.909842 -0.0452995 0)
(1.13358 -0.038374 0)
(1.00144 -0.00739489 0)
(-0.0119604 0.0214733 0)
(1.00086 -0.000586098 0)
(1.11451 0.0616409 3.70795e-20)
(0.968846 -0.0661174 0)
(1.08576 0.0440826 0)
(0.990196 -0.0273726 -1.13491e-20)
(0.988387 -0.00192158 -8.78507e-21)
(1.09078 -0.1587 2.7225e-20)
(-0.279168 -0.00263804 2.77814e-22)
(1.12949 -0.0193007 -3.41047e-20)
(-0.0574002 0.0162329 -5.97872e-20)
(1.09906 -0.0634417 -4.99067e-21)
(1.01273 -0.00978486 0)
(1.03041 -0.0112841 -7.5713e-21)
(1.14467 -0.0145468 0)
(1.05373 -0.0322527 0)
(1.18461 -0.0326161 0)
(1.07237 -0.0201264 1.47469e-20)
(0.876641 -0.113161 0)
(1.08945 0.0646961 0)
(0.999324 -0.00364342 0)
(0.333962 0.00377143 0)
(1.00006 -0.00142591 4.841e-21)
(1.08571 0.0485883 4.64749e-21)
(-0.269924 -0.00564907 0)
(0.448926 0.049698 -1.22446e-20)
(0.881645 -0.0256392 9.46022e-21)
(0.81507 -0.279305 1.40203e-19)
(1.06062 -0.277754 6.35185e-22)
(1.21813 -0.239115 -3.87369e-20)
(0.409491 0.0418008 0)
(1.03787 -0.00810458 -1.72234e-20)
(0.605767 0.017874 -2.68202e-20)
(0.94087 -0.117649 1.85687e-20)
(1.10124 -0.026681 2.93264e-20)
(-0.166637 -0.00811362 1.42697e-19)
(1.26491 -0.0067303 0)
(1.02798 -0.009271 -7.93393e-21)
(1.18261 -0.0348229 2.19987e-20)
(1.04465 -0.0109847 4.83093e-21)
(0.495715 0.0387602 -2.83036e-21)
(-0.243748 0.000409045 4.2733e-20)
(1.0235 -0.0417989 7.80205e-23)
(0.691538 -0.145371 0)
(0.643185 0.0693624 -3.21448e-20)
(0.999984 -0.00117893 -4.26132e-21)
(0.999976 -0.00158964 -1.74673e-21)
(1.08733 0.0423515 3.27796e-20)
(0.315512 0.00129604 -4.75287e-21)
(0.967348 0.0674776 1.88655e-20)
(0.973304 -0.0154054 -3.81392e-21)
(1.17462 0.0176674 0)
(1.06098 -0.018765 0)
(0.987266 -0.0029226 2.06032e-20)
(1.08937 0.0645423 0)
(1.1742 0.0203364 2.22924e-20)
(1.21303 -0.174087 -6.65543e-20)
(1.02307 -0.00299402 0)
(1.0983 0.0516194 0)
(0.905305 -0.205206 -1.91319e-20)
(1.0861 0.0393379 1.36814e-20)
(0.956894 -0.0177962 -5.25079e-20)
(1.00665 -0.0667837 6.98902e-21)
(1.13359 -0.184336 0)
(0.91401 -0.0464369 -1.28187e-20)
(1.09601 0.0533188 2.39777e-20)
(1.11972 0.00627299 -3.84405e-21)
(1.12252 0.00313155 4.93123e-20)
(1.07309 -0.323621 -1.4501e-20)
(1.17109 -0.649142 5.50401e-20)
(1.20437 0.0301795 -4.31144e-20)
(0.703222 0.0751621 8.07507e-21)
(1.10152 -0.101751 -1.35082e-19)
(1.0933 0.05516 0)
(0.111858 0.0173293 2.24715e-20)
(1.02101 -0.174614 -9.11843e-22)
(0.915074 0.060027 3.58455e-20)
(1.14451 0.0440416 3.89277e-20)
(1.03143 -0.0207627 0)
(1.09183 0.00367467 -3.62782e-20)
(1.20031 0.0269019 1.10137e-19)
(1.05534 -0.0864633 0)
(1.00472 -0.0170651 -3.31633e-21)
(1.00523 -0.0161712 -3.05808e-21)
(1.08704 0.0485991 2.06521e-20)
(0.245936 0.00444132 2.19399e-20)
(1.07657 0.0090756 0)
(0.0898923 0.0331745 -4.84814e-20)
(1.01254 -0.0101561 0)
(0.936623 0.0673012 -2.44399e-20)
(0.998783 -0.367707 0)
(-0.207955 0.00218833 0)
(1.18306 -0.0398597 0)
(1.07915 -0.0469943 -1.43871e-21)
(1.06973 -0.0221723 1.40587e-20)
(-0.19507 0.00472174 0)
(1.21485 -0.168734 0)
(1.02148 -0.167789 6.43283e-21)
(1.10368 0.0727076 0)
(1.04449 -0.0363675 0)
(1.25627 -0.4374 -3.61752e-21)
(1.08642 0.0488777 -3.09406e-20)
(1.11649 0.0619868 0)
(1.10423 -0.0446582 -2.99432e-20)
(1.26997 -0.141229 1.50775e-20)
(0.987966 -0.0168311 -1.19805e-20)
(1.00007 -0.00167455 0)
(0.940492 -0.0192855 -2.14278e-20)
(0.986615 -0.00369046 -1.74719e-20)
(0.461264 0.043153 0)
(1.00393 -0.000763677 7.62448e-22)
(1.08628 0.0634913 7.66058e-21)
(0.365566 0.0514854 -3.33019e-20)
(1.18641 -0.0414111 0)
(-0.00658806 0.0170369 5.70591e-20)
(-0.152212 0.00514202 -1.15628e-19)
(1.11784 0.0628753 0)
(1.22661 -0.235076 1.09753e-19)
(0.884497 -0.0330504 2.39998e-20)
(0.998593 -0.000229264 -1.17248e-20)
(0.982569 -0.0151257 0)
(1.02032 -0.0065845 0)
(1.02969 -0.0113239 7.24106e-21)
(1.00102 -0.000546017 0)
(1.15043 -0.0149932 -2.81188e-20)
(1.20209 -0.0152837 3.0888e-20)
(0.902024 -0.216692 0)
(1.17217 0.0675231 -8.8103e-20)
(1.02246 -0.0629934 0)
(0.275741 0.0370531 -1.71157e-22)
(0.99998 -0.000147058 3.62832e-21)
(-0.156062 -0.022352 1.18969e-19)
(1.11603 -0.0909089 8.97761e-21)
(0.999933 -0.000289847 1.04972e-21)
(0.996987 -0.000860077 -1.34547e-23)
(0.431555 0.050133 2.64768e-20)
(1.08102 -0.0404695 5.26568e-21)
(0.975496 0.0729764 -1.33043e-20)
(0.457176 0.0400344 0)
(1.10585 0.0148335 -1.78563e-20)
(1.12933 0.0193709 6.87446e-20)
(1.03131 -0.00271167 -7.98665e-21)
(0.322307 0.0547959 0)
(0.984192 -0.0802048 1.63959e-21)
(1.0693 -0.019331 0)
(1.09064 0.0647093 2.94649e-22)
(0.998627 -0.000720705 5.61538e-21)
(0.973259 -0.0417304 -5.0038e-21)
(1.03522 -0.0124121 0)
(1.08982 0.0277501 2.74256e-20)
(0.219238 0.00627174 -2.09275e-20)
(1.09039 -0.0597996 2.83774e-20)
(1.1052 -0.0395771 -3.99995e-20)
(1.25578 -0.160012 1.08461e-19)
(-0.0544808 0.0132384 -2.97522e-20)
(0.886012 -0.0552579 0)
(0.986081 -0.103553 0)
(0.512545 0.0446205 0)
(1.0199 -0.00637934 0)
(0.501972 0.0432009 -5.0242e-21)
(1.00039 -0.00122134 -1.80784e-22)
(1.06326 -0.0173374 -1.50359e-20)
(1.24897 -0.0198183 1.16458e-19)
(1.10569 0.0417423 2.70324e-21)
(1.11778 0.0525359 -3.53523e-20)
(1.18556 -0.097136 -8.21215e-20)
(1.13031 -0.0170002 0)
(0.999511 -0.000915999 -5.27937e-21)
(0.99999 -0.000154764 7.65666e-21)
(1.15573 -0.0203773 -1.94565e-21)
(1.04242 -0.0380658 -5.05541e-21)
(0.999634 -0.000736399 0)
(1.07536 0.0128533 0)
(1.24395 -0.198762 0)
(1.00466 -0.0055464 2.32657e-21)
(1.2061 -0.253052 -8.94359e-20)
(1.27706 -0.466198 -6.00553e-20)
(1.01936 0.0705116 -1.04687e-20)
(1.18397 -0.0926928 4.49993e-20)
(-0.0398823 -0.0198258 2.67034e-22)
(0.838215 -0.0891668 0)
(0.998452 -0.000543938 0)
(1.21607 -0.107618 -3.13284e-20)
(1.01198 -0.0105849 2.43561e-22)
(1.08343 -0.0266037 -2.93363e-21)
(0.750005 0.0786359 0)
(0.536045 0.0376676 2.09425e-20)
(0.596199 0.0189692 -7.74097e-20)
(0.552156 0.0488306 2.09483e-20)
(1.0272 -0.0421836 -8.43712e-22)
(1.0234 -0.0409748 1.05801e-21)
(0.977277 -0.275727 2.90805e-21)
(1.00315 -0.0641657 5.36112e-21)
(1.0219 -0.0191648 3.60345e-21)
(0.585919 -0.298642 3.17455e-21)
(1.12764 0.062368 -2.3335e-20)
(0.199635 0.0113773 -1.49059e-21)
(1.08524 0.0488774 0)
(1.10695 0.0422313 -5.71031e-21)
(0.985205 -0.00555351 -1.21751e-20)
(1.02022 -0.0128404 0)
(1.30738 -0.324629 1.50687e-19)
(1.1374 0.0288726 0)
(1.06524 -0.0172125 5.8094e-21)
(0.999803 -0.000139027 0)
(1.11468 0.0532625 1.9465e-20)
(1.21849 -0.0416619 7.81688e-20)
(0.101766 0.0339857 3.88509e-20)
(0.972334 -0.0200521 9.45297e-21)
(1.00091 -0.00337254 -3.45944e-21)
(0.200796 0.00392821 2.77976e-20)
(0.958028 -0.0164307 2.87869e-20)
(1.10494 -0.0240867 -1.54927e-20)
(1.01218 -0.00828117 1.14357e-21)
(0.0364416 0.0258701 2.32947e-20)
(1.00967 -0.000482105 -5.28058e-22)
(-0.261078 -0.00857032 0)
(0.994793 -0.00551684 0)
(1.19561 -0.191118 -6.70494e-20)
(1.11017 -0.00405293 6.13314e-21)
(0.953856 -0.279619 -4.52385e-21)
(1.10613 -0.0429864 4.60116e-20)
(0.992737 -0.0250559 4.38282e-21)
(1.07023 -0.0289381 8.9004e-21)
(1.0033 -0.00397407 -2.01819e-21)
(1.0839 0.0625676 8.60016e-21)
(0.961035 -0.025557 -1.45201e-20)
(0.349992 0.0123129 0)
(1.04661 -0.0355817 3.8262e-21)
(1.0087 0.0857023 -1.46842e-20)
(0.29126 0.0490042 -2.08127e-20)
(1.10003 -0.0490842 -3.02283e-20)
(1.0039 -0.00284878 1.99209e-21)
(-0.186022 -0.0221032 1.66423e-19)
(0.792152 0.0631348 -4.85176e-21)
(1.08305 -0.0324502 2.86139e-20)
(1.10411 0.0420143 7.99338e-21)
(0.982605 -0.0141687 -1.60841e-21)
(0.283384 0.00471102 -3.34558e-20)
(1.0323 -0.0214344 0)
(1.20217 0.0239034 0)
(0.999144 -0.00976047 2.77528e-21)
(1.00358 -0.00414617 0)
(1.01282 0.0759152 2.46414e-20)
(1.10508 -0.0177592 5.6774e-21)
(1.00045 -0.00711091 0)
(1.07673 0.020336 0)
(0.15652 0.0395162 -3.40999e-20)
(0.724951 -0.789622 4.30061e-21)
(0.594151 0.0679873 1.36746e-20)
(1.01737 -0.0159837 1.1257e-21)
(0.129712 0.0203432 -2.54253e-20)
(0.997462 -0.00854107 -7.46495e-21)
(1.00446 -0.00523043 -1.79478e-21)
(0.97362 -0.0228998 2.9266e-20)
(1.0199 -0.000223661 0)
(0.999876 -0.00218163 0)
(0.539663 0.0640317 1.53743e-20)
(0.716836 0.0793726 0)
(1.04503 -0.0211414 -1.10008e-20)
(1.0009 -0.000802757 0)
(1.11989 -0.0315654 0)
(1.01552 -0.022923 0)
(-0.153949 -0.0267767 -4.88481e-20)
(1.21994 -0.103839 0)
(0.0929151 0.0130621 4.76423e-21)
(0.0132918 0.0185077 -8.43109e-20)
(1.0698 -0.030005 -9.44202e-21)
(1.09695 0.0531781 -2.64803e-20)
(0.999819 -0.00949835 -5.18662e-21)
(1.11254 -0.000660424 -2.43691e-20)
(0.993415 -0.350098 5.24404e-21)
(1.03718 -0.00748338 2.05795e-20)
(1.00033 -0.00120057 4.07464e-22)
(1.29125 -0.299698 -3.54721e-20)
(-0.233325 0.000947417 4.59309e-20)
(1.1272 0.0196168 -3.60192e-20)
(-0.328534 -0.00817899 -6.72374e-20)
(1.11133 0.028572 0)
(0.995778 -0.00282397 0)
(1.1234 -0.0430421 -3.27308e-20)
(1.10336 0.0426844 -2.79916e-21)
(-0.290858 -0.00188929 -1.05989e-19)
(1.09827 -0.00800034 0)
(1.10341 0.0713558 -2.35148e-20)
(1.13976 0.0290439 0)
(1.0002 -0.00230944 3.15721e-21)
(0.386069 -0.126509 0)
(0.282186 -0.0903783 0)
(0.250535 0.0111307 2.62988e-20)
(1.25978 -0.00550819 0)
(0.955886 0.0581617 -8.45233e-21)
(0.97838 -0.0703307 0)
(0.727832 -0.350728 2.62712e-20)
(0.972321 -0.00333769 -1.86432e-20)
(1.15723 0.0776885 3.15746e-20)
(1.05432 -0.0831887 0)
(1.00785 -0.00153536 2.80004e-22)
(0.546611 0.0659667 1.15011e-20)
(1.01876 -0.0620838 -3.11661e-22)
(1.00382 -0.00261544 1.59876e-21)
(1.01221 -0.0402016 -7.57554e-22)
(1.01739 -0.0603609 -3.52697e-22)
(0.00588111 0.0234673 6.58891e-21)
(1.19512 0.0312451 0)
(1.01176 -0.0147641 0)
(1.1253 -0.040467 3.37982e-20)
(0.0559499 0.00921103 -7.71137e-21)
(1.03635 -0.0571729 5.90883e-21)
(-0.343456 -0.00608497 1.01233e-19)
(0.957178 -0.0423041 1.95047e-20)
(1.11169 0.0379588 8.17981e-22)
(0.118056 0.0363999 -3.68324e-20)
(1.00124 -0.00681824 0)
(1.08504 0.0609604 0)
(1.06399 -0.0981076 1.25851e-20)
(1.103 -0.0501018 1.02312e-20)
(0.680772 -0.816893 0)
(1.02115 -0.061465 -4.23667e-22)
(1.2517 -0.0742612 -9.49245e-20)
(1.08636 0.0405303 0)
(0.200123 0.0442534 -3.21575e-20)
(1.04631 -0.0055567 -2.5872e-22)
(0.304322 0.0100938 1.88832e-20)
(1.09751 -0.0289717 0)
(0.0506103 0.0185166 0)
(-0.273297 -0.000290943 -1.06859e-19)
(0.282379 0.00590855 -2.03626e-20)
(1.10358 0.0173455 0)
(0.989797 -0.0233991 -2.56156e-20)
(1.02655 -0.0433351 -3.18514e-21)
(0.999967 -0.0011374 -5.68208e-21)
(1.07723 0.0302626 -4.19945e-21)
(0.996966 -0.00270462 0)
(0.171747 0.0405506 5.08266e-20)
(1.02734 -0.114079 0)
(0.924825 -0.0859194 2.11292e-20)
(0.888947 -0.0519026 0)
(0.980449 -0.068978 -1.86379e-20)
(1.01697 -0.0154225 1.92636e-21)
(1.0658 0.0155199 -1.73119e-20)
(1.06112 -0.084247 -1.77357e-20)
(1.06311 -0.0106933 1.29486e-20)
(1.04128 -0.0952837 9.38353e-21)
(0.332869 0.0421323 -2.32588e-20)
(1.08195 0.0614705 0)
(1.09479 -0.020699 -4.08425e-20)
(1.11028 -0.148285 0)