/*--------------------------------*- C++ -*----------------------------------*\
| =========                 |                                                 |
| \\      /  F ield         | OpenFOAM: The Open Source CFD Toolbox           |
|  \\    /   O peration     | Version:  v2012                                 |
|   \\  /    A nd           | Website:  www.openfoam.com                      |
|    \\/     M anipulation  |                                                 |
\*---------------------------------------------------------------------------*/
FoamFile
{
    version     2.0;
    format      ascii;
    class       volVectorField;
    location    "750";
    object      ddt0(U);
}
// * * * * * * * * * * * * * * * * * * * * * * * * * * * * * * * * * * * * * //

dimensions      [0 1 -2 0 0 0 0];


internalField   nonuniform List<vector> 
13851
(
(-0.00268715 -0.000706508 -1.34388e-17)
(-0.000370049 -0.000149649 -1.13337e-19)
(-0.000355419 -0.000152746 3.22262e-18)
(0.00474919 -0.00303682 3.47491e-17)
(-3.3283e-05 4.2855e-06 5.58221e-19)
(-0.000467756 -8.34385e-05 -1.03975e-17)
(4.26193e-05 -0.000453056 8.37152e-18)
(-5.79407e-05 -2.51984e-06 -1.56602e-19)
(0.00313987 -0.00525843 -6.19191e-18)
(-3.3257e-05 9.50268e-05 -1.8214e-18)
(-0.000590932 -0.000100445 1.54117e-17)
(-4.73338e-05 6.83953e-05 -9.96077e-19)
(-7.40652e-05 0.000260417 -7.19138e-20)
(0.00755913 -0.000843856 6.67811e-18)
(-0.000636216 -0.000757123 -1.21259e-17)
(0.00231757 -3.12081e-05 1.49486e-19)
(0.00340986 -0.00022989 -1.19966e-17)
(-0.000162361 -6.74676e-05 9.55022e-19)
(-0.0103728 -0.00371987 2.64406e-18)
(-0.00245361 -0.000734818 1.09108e-17)
(-0.000893576 -0.000597484 -4.04144e-19)
(-0.000418111 9.93723e-05 3.51154e-18)
(0.0182138 -0.000874179 1.64048e-17)
(-1.66286e-06 1.82941e-06 6.12805e-19)
(-0.0136216 -0.0045255 3.10282e-17)
(0.000570061 -0.00136187 -4.94244e-18)
(0.00410056 -0.0164759 1.04321e-17)
(-0.0025995 -0.0111859 2.31411e-17)
(-0.00765533 -0.000769537 1.09282e-17)
(-9.78048e-05 -4.66723e-05 4.98092e-19)
(-0.00176098 0.00473847 5.17314e-17)
(2.66448e-05 -0.000449363 5.80098e-19)
(-0.00308093 -0.00160461 -8.23741e-18)
(0.00494978 0.0042145 -6.83273e-18)
(-0.00058473 5.45537e-05 1.47983e-17)
(-0.00701234 -2.34667e-06 1.84053e-18)
(-8.00102e-07 1.44411e-06 -6.48797e-19)
(0.00747224 0.00519679 -1.10245e-17)
(-0.00894255 0.000290706 -1.55561e-17)
(-0.000184372 0.000167841 4.2474e-19)
(-0.000437017 0.000722431 9.25513e-18)
(-0.0082762 -0.000631924 -1.94042e-18)
(-0.00168261 0.000144497 5.30993e-17)
(-0.00221902 0.00130978 -2.27269e-18)
(-0.00876991 -0.00245795 -4.73588e-18)
(-0.000139717 7.18026e-05 -3.13626e-20)
(-8.02487e-06 -1.41622e-05 1.73106e-19)
(0.00294437 -0.00279329 3.34764e-18)
(-0.00034475 -3.18213e-06 -1.61249e-18)
(-6.82098e-05 0.000256379 -2.11034e-18)
(-0.0012246 0.000803573 1.91021e-17)
(-4.94598e-05 0.000299461 6.47872e-18)
(0.00248473 -0.000260004 -1.17634e-19)
(2.29842e-05 -0.000822736 1.09797e-17)
(0.00196006 -0.00156671 1.48835e-17)
(-0.000184997 0.000172093 1.11291e-18)
(-0.00321133 -0.00136252 8.66193e-18)
(0.00011735 0.000522243 -1.36599e-17)
(0.0122921 -0.00460904 4.28343e-19)
(0.00515851 0.000421832 5.01338e-18)
(-4.50183e-05 7.61229e-05 1.26823e-18)
(0.00209431 -0.0142443 -6.52249e-18)
(-1.361e-05 0.00015322 -1.0301e-17)
(-0.000354826 1.66705e-06 -2.17473e-19)
(-0.000846505 0.00137756 -9.18908e-19)
(-0.000764665 0.0014596 -3.10739e-19)
(0.00530755 0.000291332 -4.40093e-18)
(-0.000129624 0.000842274 -1.07199e-17)
(-0.000221984 4.64707e-05 1.29899e-19)
(-0.00120582 -0.00430124 -3.28985e-17)
(0.00352391 0.00243275 2.12546e-17)
(-0.0011311 -0.000626078 1.03048e-17)
(-0.000112495 0.000208163 1.64008e-18)
(0.00588674 0.000510333 5.05466e-19)
(-0.000130758 -0.0008647 -3.23171e-18)
(-0.000332151 0.000106102 4.20321e-19)
(0.0035887 -0.000293407 -1.76475e-18)
(-6.16491e-05 -2.95354e-05 -1.64598e-18)
(-0.00717197 0.000779122 -1.2094e-17)
(-8.89933e-05 8.4119e-05 -6.37717e-19)
(-0.00022736 3.8002e-05 -9.97188e-20)
(-0.0012749 -0.00783948 3.49491e-18)
(-0.000587747 5.33899e-05 -2.59171e-19)
(0.00812723 -0.000544409 -2.92763e-17)
(0.00585458 0.000629474 4.99865e-19)
(0.000523683 0.00438759 -6.39966e-18)
(-0.000429387 9.76841e-05 -4.49198e-18)
(-0.00811889 -0.000566846 -5.98284e-18)
(-4.97736e-05 9.74254e-05 1.46454e-18)
(-0.0022869 0.00450286 -1.97715e-17)
(-4.52216e-05 0.000306201 -4.18716e-18)
(1.39489e-05 -0.000465789 -6.95329e-18)
(-0.00538367 -1.68874e-05 -4.85503e-17)
(-0.000135372 0.00376403 1.08794e-17)
(-0.00289805 0.00474599 6.63288e-18)
(-0.00228859 0.000855948 1.58295e-17)
(-0.000131928 0.000120793 1.6099e-19)
(0.00333178 -0.00132449 3.46589e-18)
(0.00342338 -0.000224649 -2.79791e-19)
(-0.00127357 0.00114555 -1.14248e-18)
(0.00367947 -0.00154378 -2.87989e-18)
(-0.000201821 0.000675604 -4.58739e-19)
(-0.000255626 0.000706862 -8.75194e-18)
(-0.00011665 0.000241416 -1.1904e-18)
(-0.00014491 2.30197e-05 -6.86316e-19)
(-0.00109718 -0.000240759 4.39531e-18)
(-0.000141447 3.34424e-05 -5.95224e-19)
(0.00309339 0.00311132 -2.46846e-17)
(-1.17175e-07 -0.000457629 5.85305e-18)
(-0.000157967 -6.62907e-05 -1.53208e-18)
(-0.000490269 0.000206376 1.08895e-19)
(-0.0001432 6.22686e-05 -3.14161e-19)
(0.00023199 0.00464792 3.66117e-19)
(-0.00060123 0.0004589 5.98862e-18)
(-0.00255446 -0.00391165 7.9693e-18)
(1.31999e-05 -0.000793503 5.2382e-18)
(-7.87661e-05 -1.04149e-05 2.4087e-19)
(-5.58284e-05 -3.85901e-06 -1.05896e-18)
(0.00501937 -0.00257316 -3.73963e-17)
(-0.000304628 -0.00528457 -5.05009e-18)
(-0.00165888 -0.000135832 8.78755e-18)
(-0.000127057 -6.15176e-05 2.10773e-18)
(-0.000214411 8.96493e-05 8.03958e-20)
(0.00632137 0.00169149 2.51939e-18)
(-0.00166083 -0.00486561 1.35815e-17)
(-0.000110161 0.000989142 3.59927e-18)
(-0.000131389 0.000118575 3.77462e-19)
(-0.000744272 0.000131469 4.19177e-18)
(0.00335067 0.00353356 5.55815e-18)
(-0.000910037 -0.000899487 1.44474e-17)
(-0.000416257 0.000108602 -3.32083e-18)
(-0.000551097 2.16823e-05 -1.4748e-18)
(0.00230177 0.00490139 1.96055e-17)
(0.00547685 0.00355124 1.0464e-17)
(-0.000546649 -0.000129768 -2.99226e-17)
(-0.0056781 0.0044541 3.12191e-19)
(-0.000111717 0.000816414 -1.06789e-17)
(0.0012144 0.00385863 -2.4886e-17)
(-0.000169996 0.0005776 -3.91599e-18)
(-0.000786223 -0.00100491 -1.09632e-17)
(-0.00178996 -0.00667623 -7.57451e-18)
(-0.000165022 0.00031713 -3.59796e-18)
(-4.92078e-05 0.00010378 1.29427e-18)
(-0.00034865 0.00105842 -1.09022e-18)
(0.0126889 0.0228131 1.01776e-17)
(-0.000301889 0.000154805 1.73769e-18)
(-5.85084e-05 -2.70439e-05 1.46607e-18)
(-0.000968858 0.00383702 -2.39764e-17)
(-0.00443344 -0.0028675 2.2962e-18)
(-0.000767008 0.000137913 2.66495e-18)
(0.00366365 -0.00203768 -5.93723e-18)
(0.000574717 0.0040708 4.9163e-19)
(-0.000559654 0.000526836 -2.33645e-17)
(-0.00714165 -0.00328176 7.17743e-18)
(-8.35303e-05 0.000321247 3.43811e-18)
(-3.19436e-05 0.000173954 4.29779e-19)
(-3.93712e-05 7.55208e-05 -1.80705e-18)
(-0.00875197 -0.00018808 1.32432e-17)
(-0.000738285 -0.000905481 4.3916e-18)
(-0.000127044 -0.000362532 -1.90856e-18)
(-2.96095e-06 5.88605e-06 7.01757e-19)
(-0.00747363 -0.000380107 -1.6386e-18)
(-0.00106601 -0.000276314 2.5549e-18)
(0.00276124 -0.00310392 4.92815e-18)
(0.00748475 -0.000898117 -2.75898e-18)
(-0.000328977 -0.00676275 -2.69542e-18)
(0.000213022 -0.00733149 3.3901e-18)
(-0.00156091 0.00113464 -4.45366e-17)
(-0.0004765 0.000194619 1.0193e-18)
(0.0125569 -0.00834055 9.17947e-18)
(-4.08095e-05 9.00552e-05 -1.70303e-18)
(-7.74917e-05 -1.12625e-05 -6.58569e-19)
(-0.00130191 4.76102e-05 4.89266e-18)
(-2.12616e-05 6.28353e-06 -4.78619e-19)
(-0.00245457 0.00539278 8.2682e-18)
(-0.0157821 -0.00631099 8.35498e-18)
(0.00325281 -0.00532072 6.29429e-18)
(-7.67869e-05 -1.76131e-05 -2.38865e-19)
(-7.52118e-05 -0.000872307 -3.61063e-18)
(0.00317802 -0.00471114 -4.58653e-18)
(-0.00128873 -0.00406511 -1.72235e-17)
(-0.00268455 0.000766291 -8.22245e-18)
(-0.000472378 0.000169714 1.749e-18)
(-0.0008536 -0.000912537 -1.01236e-17)
(0.00218942 -0.000162458 -4.76899e-17)
(-0.00474979 -0.00291466 -3.05984e-18)
(-0.00329322 -0.00196037 -1.28813e-18)
(-0.000155998 0.000486302 -3.60937e-19)
(-9.04999e-05 0.000303086 -3.24188e-18)
(-0.000121934 -1.69231e-05 -2.12116e-18)
(0.0144803 0.0250515 -2.05113e-17)
(-0.000761208 -0.000868574 7.96673e-18)
(0.00744433 -0.000588478 4.56074e-18)
(-0.000474294 -9.56239e-05 8.86959e-18)
(-0.000297425 0.00014582 -7.79331e-20)
(0.00292175 -0.000759728 4.39378e-18)
(-0.00310071 -0.00214508 2.83096e-18)
(-0.000152232 -0.000114733 1.99279e-18)
(-0.00022313 -7.29308e-05 5.05775e-18)
(-0.000159053 0.000880165 3.61595e-18)
(-0.00365922 -0.00529302 -2.33981e-17)
(0.00397168 0.00128023 -7.4826e-18)
(0.000431609 -0.000672687 7.38648e-18)
(-0.000598277 -0.000773491 -2.24771e-18)
(-0.00142264 0.00433647 4.09126e-18)
(0.00364667 0.00110866 2.06345e-17)
(-6.05546e-05 0.000415032 -8.40493e-18)
(-0.000505821 -0.00119277 -8.70668e-18)
(0.00495628 -0.00496653 4.73542e-18)
(-0.000446665 -4.94481e-05 1.72275e-18)
(0.00182988 0.000170139 -7.30299e-18)
(-0.000209712 9.38179e-05 -5.77256e-20)
(-0.00350208 -0.00654314 1.29645e-17)
(-4.2809e-06 3.80348e-05 -4.20619e-19)
(-0.000581774 7.07951e-05 7.70487e-18)
(-0.000366734 0.000112226 1.0292e-18)
(-6.65287e-05 0.000239201 -9.88471e-18)
(-0.00143003 0.00160832 -3.43305e-18)
(-0.000197081 -8.14385e-05 -8.6265e-19)
(0.00016885 0.00078842 4.42152e-17)
(-7.44459e-05 -1.91271e-05 8.39555e-19)
(-0.00209999 -0.000627689 2.34048e-17)
(0.00818158 -0.000262405 3.18449e-17)
(-0.00437962 0.00501511 -3.61275e-17)
(-0.000182415 0.000468714 -4.25854e-18)
(-0.000475154 -0.00122909 3.1378e-18)
(-1.59389e-06 1.23654e-05 3.19766e-19)
(-0.000350456 0.00100534 6.86799e-18)
(-6.46646e-05 3.92443e-05 -2.74119e-19)
(-0.000585802 6.43131e-05 -6.45097e-18)
(0.0062145 -0.00390083 -6.29219e-18)
(-0.000161932 0.000479154 1.10001e-17)
(-0.000441285 -5.73529e-05 -2.56836e-18)
(-4.29457e-06 0.000174447 7.85019e-19)
(0.000416565 -0.000391068 -4.34768e-18)
(-9.73622e-05 -4.89372e-05 -5.91434e-19)
(0.00769177 0.00543976 8.26977e-18)
(0.000981864 -0.00106925 -1.57001e-18)
(-0.00127246 0.000924803 2.85437e-18)
(-1.85876e-06 5.12468e-06 -3.71815e-19)
(0.00525995 -0.00319485 -5.081e-19)
(0.00639578 0.000471482 1.40823e-17)
(-0.00946199 -0.00226439 -2.32497e-19)
(0.00198244 -2.25546e-05 6.60824e-18)
(-0.000690289 -0.000301765 -1.28743e-18)
(-0.000292536 0.00113636 2.25954e-18)
(-0.00157779 0.00108087 3.32773e-18)
(-4.73119e-05 -0.000887944 9.41749e-18)
(-0.00208351 0.00062449 -1.55993e-17)
(-0.000530292 0.00017879 -5.81953e-19)
(-0.00452092 -0.00113288 -8.85907e-18)
(-0.00244714 -0.00137055 -1.55833e-17)
(-5.95578e-05 1.56146e-06 4.65216e-19)
(-0.000420713 -0.000266228 1.41707e-18)
(0.0033367 -0.000906931 -5.41302e-18)
(-0.00721344 -0.000452526 5.88898e-18)
(-0.00887505 -0.000423003 3.37229e-18)
(-0.000119168 -1.51852e-05 6.85326e-20)
(-9.11812e-05 0.000984121 -4.65149e-18)
(-5.28411e-05 9.38202e-05 -2.68273e-18)
(-0.00570021 -0.00143845 7.45207e-18)
(-0.00401058 -0.00470955 7.63016e-18)
(-0.000435402 -0.000276431 3.79968e-18)
(-0.00109845 -0.000342778 -1.54112e-17)
(-0.00268208 -0.00148335 1.30343e-17)
(-0.000110706 0.000163449 4.16028e-18)
(-0.000216355 0.000693066 7.5897e-18)
(0.00168741 -0.00299434 -1.55574e-18)
(-0.00148791 -0.00216886 1.09372e-17)
(-4.07543e-05 0.000113172 1.66383e-18)
(-6.15921e-05 0.0002352 1.15256e-17)
(-0.000174344 0.000473927 4.14089e-18)
(0.00641899 -0.00592189 2.29223e-18)
(0.00308069 -0.00161548 5.71436e-17)
(-0.000993946 -0.000695725 8.26511e-18)
(-0.000132253 -6.25561e-05 2.95141e-19)
(-0.000400831 -0.00366034 -4.75265e-18)
(-0.00549127 -0.00418274 1.14309e-17)
(-0.00238142 -0.00286579 1.76423e-17)
(-0.0010688 -0.000378703 1.43421e-17)
(0.0067274 -0.00515351 -2.63507e-19)
(0.00304119 -0.000262392 4.64578e-18)
(-0.000489281 -0.00019998 7.93369e-18)
(-0.000534738 -0.000688809 1.52519e-18)
(0.0140721 0.00569403 -2.14928e-17)
(-0.000144995 -5.47652e-06 5.13245e-19)
(-3.84505e-05 7.01611e-05 4.34782e-19)
(-0.00268523 -0.00275896 -2.81464e-18)
(-0.000687743 -1.78023e-05 -1.30366e-17)
(-9.85948e-05 -5.22062e-05 5.37146e-19)
(-5.11575e-06 3.66456e-05 5.48012e-19)
(-6.63954e-05 4.13701e-05 -8.05079e-19)
(-4.15682e-05 1.09696e-06 3.1997e-22)
(-0.000653114 -0.000442781 -1.45015e-17)
(-4.07921e-05 6.91068e-05 1.25129e-18)
(0.00374209 -0.00549424 1.76822e-18)
(-0.000940319 -0.000621291 3.52586e-18)
(-0.000171983 0.000123905 5.9192e-19)
(-0.00696372 -0.000234044 -3.27534e-18)
(0.00661791 0.0014729 1.24199e-18)
(-6.8744e-05 0.000300219 -3.33026e-18)
(-0.00229341 -0.000505463 -1.80531e-17)
(0.00245205 0.000263705 -2.72084e-17)
(-0.000170069 0.000317978 -1.25019e-18)
(-6.39451e-05 0.000307585 -2.39456e-18)
(-0.000997221 -0.000593805 1.28953e-18)
(0.00834515 -0.000203704 7.41188e-18)
(0.00776109 -0.00505995 2.13007e-17)
(-0.00155099 -0.0001972 -1.56468e-17)
(-3.48441e-05 4.40921e-06 -2.75706e-19)
(0.0115224 -0.00890393 1.04345e-17)
(-4.31727e-05 8.31461e-05 -3.40598e-19)
(-0.00168322 -7.79517e-05 -7.69497e-19)
(0.00214585 0.000502606 2.52999e-17)
(-0.00113237 0.00133626 1.27944e-17)
(-0.000124312 -0.000350678 -9.93927e-18)
(0.013807 0.00477042 2.15223e-17)
(-0.00605175 0.00455916 3.09985e-18)
(0.00557653 0.00112966 5.70647e-18)
(0.00155317 0.00332985 -1.38862e-17)
(-0.00013924 0.000710078 2.64954e-17)
(-0.0059392 0.0052885 -1.99139e-17)
(0.00546043 0.00229616 4.73615e-18)
(-0.00290688 -0.0113541 -7.54472e-18)
(-0.000230793 -6.81701e-05 -1.47811e-18)
(0.000858107 0.00157517 -2.11608e-17)
(-0.00592662 -0.000228495 2.06354e-18)
(7.26433e-05 0.00118585 -5.31858e-18)
(5.12351e-05 0.00123375 1.21945e-17)
(-6.95603e-05 0.000415054 2.29922e-17)
(-0.00146266 3.85568e-05 1.99268e-18)
(-0.000333334 0.000383044 -2.22462e-18)
(-0.00809331 -0.000604842 2.98738e-19)
(-0.00021847 0.000741754 6.95873e-18)
(-5.20551e-05 7.76126e-06 -2.91787e-19)
(-1.31761e-05 -1.62787e-05 5.08294e-19)
(-0.000475729 4.5633e-05 4.14454e-18)
(0.00499221 0.00112297 3.62361e-18)
(0.000159602 0.000845647 -2.72596e-17)
(-0.000142652 -9.97502e-06 2.23003e-19)
(-0.00381392 0.00448944 3.18569e-17)
(-0.000315292 0.000413828 3.45636e-18)
(-0.000552661 3.04016e-05 3.09842e-18)
(-0.000118575 -0.000377666 -7.12305e-19)
(0.00936817 -6.00718e-05 -1.09213e-17)
(-0.00064294 -0.00324347 -6.66008e-18)
(0.00287019 -0.000369348 -8.08721e-19)
(-0.000353137 0.000108335 -9.62646e-19)
(-0.000426525 -5.88951e-05 -6.20257e-19)
(-0.00475673 -0.000367732 -5.45067e-18)
(-9.37394e-05 0.000306301 1.75222e-18)
(-0.00653245 -0.0043262 5.02151e-19)
(-0.000472084 -0.000209297 -4.8089e-18)
(-0.00101016 -0.000552544 -4.79566e-18)
(-0.000323983 0.000415316 3.83382e-18)
(-5.27825e-05 9.89869e-05 5.02458e-19)
(-0.000172405 0.000116094 -4.80049e-19)
(0.000262837 -0.00226542 1.36649e-18)
(-0.00153938 0.00129985 5.66328e-20)
(-0.00206333 -0.00137554 -1.47599e-17)
(-0.000114675 0.00544245 3.57013e-17)
(-0.00490014 -0.000101331 5.01528e-18)
(-0.000312074 0.000152571 -1.32798e-18)
(0.000843073 -0.000739067 1.17114e-17)
(-0.00643445 0.00074454 3.71728e-18)
(-8.117e-05 -4.08941e-05 -9.91131e-19)
(-0.00149403 0.0026483 -1.04165e-17)
(-0.00184727 -0.00107214 -1.55565e-17)
(0.00325884 -0.000160637 -2.84941e-17)
(-0.000465545 4.1386e-05 -4.72522e-18)
(0.000611173 -0.00107585 -1.10917e-17)
(0.0140112 -0.00433936 1.0591e-18)
(-0.00856714 -0.010791 3.72041e-18)
(-0.000510677 -0.00187656 8.66576e-18)
(-0.00741064 -0.000748374 -2.27542e-18)
(-0.000288637 -4.89579e-05 -8.62764e-18)
(-0.0165235 -0.00530721 -1.92104e-19)
(-0.00249137 0.000305926 -4.41943e-18)
(-0.000616749 -0.000170297 5.32684e-18)
(-0.00444953 -0.00145366 4.22318e-18)
(-0.000675798 -0.000134769 1.59907e-17)
(0.00173559 -0.0017132 2.88926e-17)
(-0.00052641 -0.000661812 -7.56749e-18)
(0.000206813 -0.00103765 -6.43662e-18)
(-0.0031162 -0.00106211 -2.37626e-17)
(-0.00300957 0.00126859 1.3918e-17)
(-3.85668e-05 0.000178115 5.47969e-18)
(-0.000472996 -0.000151489 4.25989e-18)
(-0.000717886 -2.64189e-05 -2.82918e-18)
(-0.000103299 -0.000885768 3.6495e-18)
(-0.000145423 9.6196e-05 1.31913e-20)
(-0.000997645 -0.000749637 -5.42792e-18)
(0.000402264 0.00729019 -3.99229e-18)
(-0.00011283 0.000203536 -3.86793e-18)
(-0.000569238 -0.00117367 6.40737e-18)
(0.00616252 -0.000369326 -6.26466e-17)
(-0.000383005 -6.37341e-05 -1.09618e-18)
(-0.00659705 0.00448067 7.24455e-18)
(3.88305e-05 -0.00121302 3.66833e-18)
(0.00741373 -0.00638872 -1.78762e-17)
(-0.000461004 -4.48775e-05 -6.35465e-18)
(0.000494696 -0.00134481 7.19904e-18)
(-0.00181067 0.00189064 -8.50464e-18)
(-0.00304421 -0.00543746 -5.88088e-18)
(-0.00104725 -0.000153652 1.41257e-17)
(-0.00929496 -0.000340914 -1.38283e-18)
(0.00637836 0.000338635 -2.28672e-17)
(0.00448941 -0.00346035 -1.31474e-17)
(-0.000108974 0.000165258 7.13013e-19)
(0.000529038 -0.001989 -5.98606e-18)
(-0.000662264 -7.341e-05 4.6949e-18)
(0.000609555 -0.00114632 3.97475e-18)
(-0.000134772 -6.13314e-05 2.71378e-19)
(0.000671374 0.000387681 -2.32627e-17)
(-0.00472367 0.00697975 -2.41546e-18)
(-0.0167376 -0.0196005 -6.3171e-17)
(-0.000419169 -6.59087e-05 3.03156e-19)
(-0.0030326 -0.00134041 1.90453e-17)
(-0.00556627 -0.0146924 9.23178e-18)
(0.00348066 -0.0018372 -6.18637e-17)
(-4.43123e-05 -4.30373e-05 1.09791e-18)
(0.00106411 0.000994494 7.87571e-17)
(-0.00421811 0.00073856 1.52513e-17)
(0.0107167 -0.00495806 1.99136e-17)
(-0.000543893 0.000179451 3.5328e-19)
(0.0103905 -0.00682702 1.21862e-17)
(-6.78844e-05 0.000176671 -1.36705e-18)
(-2.39277e-05 5.18345e-06 -2.2892e-19)
(0.00146427 -0.00119719 -1.87744e-17)
(-0.00871172 -0.0139639 -1.87393e-18)
(-3.44826e-05 9.83182e-05 -5.76065e-18)
(-0.000372868 -0.000138678 -1.08167e-17)
(-0.000622704 -0.00118259 -2.29089e-18)
(-8.01034e-05 1.42876e-05 -1.76389e-19)
(-0.00475419 0.00725475 -1.14563e-17)
(-0.00152301 -2.63536e-05 -1.07982e-17)
(-0.00180732 -0.00105789 1.08963e-17)
(-0.000275448 -0.000434027 1.4714e-18)
(-0.000285867 -5.33172e-05 2.49455e-18)
(-2.6028e-05 0.000296906 -4.51779e-18)
(-0.00716949 -0.00997369 -3.23977e-17)
(-0.000166342 0.000134856 -1.16503e-18)
(-2.18299e-05 0.000285986 8.44454e-18)
(-0.0116994 0.00212925 4.36017e-18)
(-0.00139916 0.00592563 3.57731e-18)
(-0.000405392 0.000110095 1.50008e-18)
(0.00953784 -0.00495744 -9.28102e-19)
(-9.9311e-06 0.000159185 4.08683e-18)
(-4.01324e-05 6.39458e-05 -1.19256e-20)
(-0.000396846 -6.16988e-05 -2.08724e-18)
(-0.00219096 -0.00149682 1.82825e-17)
(0.00012878 -0.00116328 1.52029e-17)
(-0.00015058 0.000101442 3.51725e-19)
(-0.000298831 -7.93817e-05 6.55321e-19)
(-0.00148112 -0.000196802 1.70872e-17)
(-0.000287425 -0.000160468 8.17113e-18)
(0.00657109 0.0026822 -1.47694e-17)
(-4.60957e-05 6.68739e-05 -2.5488e-19)
(-0.000148867 -0.00062524 2.95651e-18)
(-0.00872664 -0.00298415 2.76678e-18)
(-0.000433759 0.000465735 8.61879e-18)
(-3.19181e-05 -8.37066e-06 8.02521e-19)
(-3.57485e-05 0.00010925 7.74036e-19)
(-0.000285226 -0.00041585 3.57815e-19)
(-0.00015638 -0.000139096 1.00626e-18)
(-0.00195757 -0.00523781 1.0637e-18)
(-0.0131166 0.00253123 1.39221e-18)
(-0.000704517 -0.000323579 8.69193e-19)
(0.000604849 0.00118542 -5.76478e-18)
(-0.0004027 -6.8081e-05 4.70406e-18)
(-5.39877e-05 6.18911e-05 -3.93744e-18)
(0.00766967 0.00170137 -4.99295e-18)
(0.0127202 -0.00541102 4.78467e-18)
(-0.000274876 0.000549794 -3.2347e-17)
(-0.000131423 0.000222741 -2.60694e-18)
(0.00613938 0.00202302 2.51001e-18)
(-0.000190617 0.000571273 5.69805e-18)
(0.00372085 -0.00360615 1.43877e-17)
(-0.000111573 0.000239527 3.03027e-18)
(-0.000563351 1.53369e-05 -1.98234e-17)
(-0.000303451 -0.00220616 -9.99565e-18)
(-0.000260948 -0.000916298 -5.45768e-19)
(0.00494065 0.00274506 -7.60436e-18)
(-0.00388119 -0.015794 -1.07701e-17)
(-0.0136916 -0.0195344 5.29065e-17)
(-0.000264529 0.000278184 1.64883e-19)
(0.00136422 0.004002 1.37608e-17)
(-0.000118967 0.000170813 1.09687e-18)
(-0.00739068 -0.00068392 -8.56765e-18)
(1.21644e-06 -0.00120646 -2.89837e-18)
(-0.00310281 -0.00237218 1.36693e-17)
(-0.000658273 -9.34087e-05 -3.36257e-18)
(-0.000342708 9.97873e-05 -5.40538e-19)
(-0.00045601 0.000424632 9.10172e-18)
(-0.00136971 -1.19289e-05 3.05509e-17)
(-3.08373e-05 5.42558e-06 -2.45067e-19)
(-0.00152594 -0.00119169 -2.52278e-18)
(0.0076345 0.00167367 1.6384e-18)
(0.00597399 0.00448684 -6.21161e-18)
(-0.00206816 0.00197126 2.26041e-17)
(-0.012955 0.00204429 3.62318e-18)
(-0.00430845 -0.00262781 -8.72497e-18)
(-0.00482015 -0.00495995 -1.21923e-17)
(-0.000206392 0.000445264 4.20474e-18)
(-8.19877e-06 9.87922e-05 2.29346e-18)
(-0.0091584 0.00693067 6.79842e-18)
(-2.87973e-05 9.51775e-05 1.71232e-19)
(-0.000140248 9.81927e-05 -2.28574e-20)
(-0.000240478 0.000467349 1.10365e-17)
(-0.000872224 0.00553018 -3.26117e-17)
(-0.00032358 -0.000194504 9.34467e-18)
(-0.000142548 0.000334513 -2.17507e-18)
(-0.00095246 0.000208393 -3.48123e-18)
(-0.000832917 0.000148734 1.17175e-17)
(-1.19264e-05 0.000105129 5.62047e-18)
(-0.00732911 0.00261121 -1.96828e-17)
(-0.000123876 0.000126695 -1.13984e-19)
(0.0044944 0.0038689 5.59429e-18)
(-0.000113974 -0.00484815 -5.56116e-18)
(-9.29598e-05 9.17882e-05 -1.07916e-18)
(-0.000233624 -0.000253787 -1.19265e-18)
(-0.00487073 -0.00196014 -1.68069e-18)
(-0.00212727 -0.00100481 -1.10323e-17)
(-0.000100174 -5.08138e-05 1.91109e-18)
(0.00359986 0.00470968 2.23365e-17)
(-0.00564936 0.00372901 -1.06094e-18)
(-5.36676e-05 -0.000101154 -1.45778e-19)
(0.001696 -0.00706225 -1.32874e-17)
(-0.00869482 -0.00413849 -3.73324e-18)
(-0.00182883 -0.000672039 4.58927e-18)
(-0.000245731 0.000294914 -3.72561e-18)
(-0.0114464 0.00123043 -2.46018e-18)
(0.00292371 1.44481e-05 9.12998e-18)
(-5.592e-05 -0.000102938 -2.40831e-18)
(0.000273326 0.0115384 -3.45972e-17)
(-0.000216938 6.87857e-05 -6.27332e-20)
(-0.000128139 0.000127443 -5.15268e-19)
(-0.00621134 0.005431 6.0398e-18)
(0.00213901 -0.00191797 -9.12543e-19)
(-0.000758244 -1.55022e-05 3.71944e-18)
(0.000139874 -0.00113713 -1.38051e-17)
(-2.34922e-05 9.72248e-05 -1.53417e-18)
(0.000152191 -0.00152391 1.35501e-17)
(0.00344969 0.00393093 1.13027e-17)
(-0.00852753 0.00264311 1.24101e-17)
(-8.65573e-05 -8.95177e-05 1.40471e-18)
(0.00169374 -0.00154055 1.44489e-17)
(-0.00014709 0.000104557 -3.32731e-19)
(-0.000222679 5.97201e-05 -2.80968e-19)
(-0.00108385 -0.0001778 -1.18339e-17)
(-3.82291e-05 -0.000656989 -4.70093e-18)
(-4.15659e-05 -4.84554e-05 1.03933e-18)
(-0.000325224 0.000113505 4.93502e-20)
(-2.18243e-05 -0.00761121 -1.40049e-17)
(-0.00297653 0.00109004 -5.93628e-18)
(0.00060233 -0.00672362 4.03173e-17)
(-0.000310245 -0.000181929 -1.3208e-18)
(-5.60539e-05 9.5134e-05 -4.63614e-18)
(0.00521693 -0.00685386 1.00795e-17)
(-1.52866e-05 0.000133351 2.74509e-18)
(0.00138105 -0.00160802 -4.57731e-17)
(-0.000264541 -0.000561929 1.82625e-17)
(-0.000192185 -0.000852658 -4.38604e-18)
(-0.00069064 -0.000241466 -1.11187e-17)
(-0.0110863 -0.00189836 4.99556e-18)
(0.00287063 -0.000296953 2.81391e-17)
(-0.000463368 -0.000119908 -1.31035e-17)
(-0.000790893 0.00092093 3.07362e-17)
(-0.000137611 -0.000316094 -6.58878e-18)
(-0.00122085 0.000405357 8.91332e-18)
(-0.00862615 -0.000892648 -2.40636e-18)
(0.0020511 -0.00222979 7.21792e-18)
(-0.000205791 0.000124619 2.61802e-19)
(-0.000116408 0.000172217 -4.36169e-19)
(-0.000283486 0.000708243 -1.12372e-17)
(-0.000977945 -0.00681096 1.61505e-17)
(0.00522724 0.00175202 -1.14942e-18)
(0.000166836 -0.00147608 -9.9885e-18)
(-0.00916201 -0.00131647 2.07035e-17)
(-2.07323e-05 -0.000668585 6.98185e-18)
(-0.000486149 -0.000665689 -1.39616e-17)
(0.00396576 -0.00477853 -5.06698e-17)
(-0.00763258 -0.00342343 1.97328e-17)
(-0.00135975 0.000158281 6.70723e-18)
(0.00523863 0.00342495 1.32813e-17)
(-0.00359456 -0.0069376 -1.50303e-17)
(-0.00636423 0.000517047 4.46067e-18)
(-0.000269827 -4.92288e-05 -6.67495e-20)
(0.0104853 -0.00277714 1.20712e-18)
(0.00762879 -0.00702056 1.37633e-17)
(-4.95238e-05 8.80559e-05 -1.81779e-18)
(-0.00802701 2.36906e-05 -1.62478e-17)
(0.00845023 0.0117671 -4.13443e-18)
(-0.000481845 0.000182969 -5.62344e-19)
(-0.000841681 -0.000984245 5.12328e-18)
(-0.000167714 0.000199071 2.1129e-18)
(0.00156157 0.00173296 5.04316e-18)
(-0.000783287 0.000267169 -5.77464e-18)
(-0.00344193 -0.00229816 4.35767e-17)
(-0.000167359 0.000138197 3.8264e-19)
(-1.47255e-05 8.27688e-06 3.51128e-19)
(-0.000125888 0.000447843 1.58885e-18)
(-0.000794336 0.000140191 -1.02963e-17)
(-4.52891e-05 6.63495e-05 4.01233e-19)
(-0.00116206 0.0051361 2.28493e-17)
(-1.69724e-05 9.80719e-06 2.94777e-19)
(-0.00374989 -0.00633782 1.38343e-17)
(-0.000228289 0.00030449 4.47138e-18)
(0.000660328 -0.00117447 2.23192e-18)
(-0.000117518 0.000233249 1.85269e-18)
(-1.41473e-05 0.000105449 3.32589e-18)
(-0.000657983 0.000175225 -9.16527e-18)
(0.00142373 -0.00154311 6.89554e-17)
(-0.00100767 -6.20098e-05 7.83137e-18)
(-0.0051062 0.00421112 -1.13522e-17)
(-0.000561882 2.24856e-05 1.15736e-17)
(-8.30332e-05 1.8075e-05 -4.53319e-19)
(-0.000103146 -4.82717e-05 -5.45066e-18)
(-0.00130427 0.000128128 -2.81725e-18)
(-0.000296933 -7.49666e-05 3.25308e-18)
(-0.000407643 0.00162039 4.50791e-18)
(-0.000364352 -0.000193914 -8.93538e-18)
(-0.000259288 0.00054287 1.32571e-17)
(0.0127507 -0.00101112 -2.14982e-18)
(-1.33671e-05 0.000136829 6.90009e-20)
(-0.00985737 -0.000308598 -7.72814e-18)
(-2.42864e-06 2.05341e-05 -1.55603e-18)
(0.00101572 -0.000806913 -3.70099e-18)
(-0.00137898 0.000874493 -4.50789e-17)
(-0.00490797 -0.0065175 5.06528e-18)
(-6.34107e-05 0.000499873 -1.47151e-17)
(-0.00693206 -0.000223843 -3.20876e-17)
(-0.000940526 0.000264873 -7.62019e-18)
(0.00033895 0.00124744 3.35647e-18)
(0.00917393 0.010595 7.97057e-18)
(-0.000100719 -9.48962e-05 -6.42757e-18)
(-0.00819901 0.00111597 2.70542e-17)
(-0.000336517 0.00039967 1.44382e-17)
(-0.000641507 -0.000164493 7.49752e-18)
(-0.00131799 0.0022099 -3.40547e-17)
(0.0104887 0.0247856 -5.74151e-20)
(-8.59667e-05 -4.24002e-05 2.8615e-18)
(-0.00032519 0.00142169 -1.31271e-17)
(-0.000143879 -0.000116142 1.51492e-18)
(-0.00601301 0.000155543 6.28822e-19)
(-0.0057573 0.000782865 6.15765e-18)
(-0.000238049 2.12241e-05 7.93762e-19)
(-0.000128854 0.000845191 1.77423e-17)
(-0.00348158 0.00200959 7.75098e-18)
(-1.28277e-06 1.91618e-05 -8.89133e-19)
(-2.06524e-06 3.09986e-05 1.97903e-18)
(0.000611717 -0.0013205 3.05183e-18)
(-0.00991892 -0.000222343 1.27178e-17)
(-0.0103409 0.000519412 9.44536e-18)
(-5.82236e-05 0.000302637 -3.46915e-18)
(-0.00353773 -0.000594272 -9.14429e-18)
(-0.000277035 -0.000153576 -1.44219e-17)
(-1.41827e-05 0.000113922 5.42189e-18)
(0.011428 0.00162183 3.49284e-20)
(-0.00350497 -0.000943265 1.96387e-17)
(-0.00172975 0.000840526 -2.02185e-17)
(-3.99189e-05 -3.78156e-05 9.28416e-19)
(0.00145363 -0.00326232 -1.09066e-18)
(-0.000498845 0.000613083 7.47305e-18)
(0.000409797 -0.00128057 5.21117e-18)
(-6.50934e-05 0.000378355 -8.02662e-18)
(-0.000288154 0.000150604 1.76678e-19)
(-0.000762108 0.000241553 9.21746e-18)
(-0.000129003 0.000439372 8.40626e-18)
(0.00231648 -0.00294555 4.42562e-19)
(-0.00109097 -0.00066914 4.72497e-18)
(-0.0011238 -0.000564772 4.5819e-18)
(-0.00125105 0.000210359 -2.94854e-18)
(-0.00486649 0.00147488 -2.57981e-18)
(-0.0103349 -0.00165545 -9.06826e-18)
(0.00456745 -0.0104585 2.88267e-18)
(0.0019334 0.00218253 -1.22619e-17)
(0.00334146 -0.00218499 2.91548e-18)
(0.008158 -0.000967128 -7.02093e-18)
(-0.000592069 0.000297735 -3.37451e-19)
(-0.00745925 0.00528381 -7.23393e-18)
(-0.00192809 -0.000516775 -8.01652e-18)
(-0.00016049 -6.6725e-05 -8.94279e-19)
(-0.000474224 -0.000639022 -2.39497e-18)
(-0.00961627 -0.000952286 1.28904e-18)
(-0.000454026 6.6484e-05 -1.22911e-18)
(-8.586e-05 7.69616e-05 5.63895e-19)
(-8.31409e-05 6.98813e-05 -3.54779e-19)
(0.00117612 -0.000955719 -5.97644e-18)
(-0.00773152 -0.000584147 -9.83139e-20)
(-0.00017041 -0.000635381 -4.37676e-18)
(0.00132682 -0.000983059 3.75118e-18)
(-8.46908e-05 2.26875e-05 -5.12744e-19)
(-0.011117 -0.00083758 -1.1998e-17)
(-0.00123275 0.000783776 3.35084e-19)
(0.00203631 0.000301234 1.49393e-17)
(-0.000113133 0.00129902 -2.8918e-18)
(-0.000470767 -4.46336e-05 5.47961e-18)
(-0.000352433 -0.000166978 -1.78736e-18)
(0.00159526 0.000647268 -1.45874e-17)
(-0.00192206 0.000678249 9.0191e-18)
(-0.000582052 0.000283356 -5.58949e-18)
(-0.00758447 -0.0153832 2.47654e-18)
(-0.00027387 -5.80975e-05 1.38691e-18)
(-0.010005 -0.000846807 -4.27685e-18)
(0.00114762 -0.000848853 1.08317e-17)
(-0.0043788 -0.00585356 2.7939e-18)
(-0.000614249 -2.71125e-05 -8.53769e-18)
(-0.00638973 0.000245563 -2.16763e-17)
(-6.9287e-05 0.000172939 -6.4435e-18)
(-2.99663e-06 2.66244e-05 1.07248e-18)
(-6.16043e-05 0.000409844 -1.80814e-18)
(-1.84889e-05 0.000122028 -1.94534e-18)
(-0.00843833 -0.0015653 -4.96335e-18)
(-4.03704e-05 1.18581e-06 2.87573e-20)
(0.0121049 0.00230643 -2.3479e-18)
(0.00581049 -0.0061029 -2.68497e-18)
(0.000101328 0.00130757 8.02537e-18)
(-0.00773327 0.00390519 1.11888e-17)
(0.0032734 -0.000285921 4.65141e-18)
(-0.00510447 -0.00599698 8.71439e-19)
(0.000363556 0.00172613 -5.14116e-18)
(-7.8952e-05 0.000492198 9.36853e-19)
(-1.44716e-06 0.000158505 -1.42948e-18)
(-5.98491e-05 0.000218211 -2.84214e-18)
(-6.36552e-05 -3.16069e-05 -5.05339e-19)
(-0.000101491 -4.76807e-05 4.47766e-18)
(-1.99225e-05 8.60518e-06 -7.89484e-19)
(-0.00137218 0.000291824 -6.2799e-18)
(-0.00118395 0.00436437 1.87013e-17)
(-0.000518211 0.000640635 -2.20931e-18)
(-0.00257542 -0.0093317 -3.46763e-17)
(-0.000308972 7.20911e-05 -1.0159e-19)
(0.00433026 -0.00488957 -6.06408e-18)
(1.55524e-07 3.2666e-06 -3.39608e-18)
(0.00568198 -0.00356766 2.32406e-17)
(-0.000590314 5.4929e-05 1.63852e-18)
(5.95971e-07 8.79349e-06 3.16558e-18)
(-4.99879e-06 0.000182653 2.29737e-18)
(-0.00343127 -0.00696882 -7.37753e-19)
(-0.000476384 -7.55808e-05 1.51929e-17)
(-0.00804777 -0.016163 5.4333e-18)
(0.0109805 0.0102095 5.15278e-19)
(-0.000739777 -0.000977756 -6.15742e-19)
(-0.00147977 -0.000913869 1.40168e-17)
(-4.45695e-05 -0.000109527 -8.67575e-19)
(0.00487601 0.00412286 1.28606e-18)
(-0.000297596 0.00025262 -1.53145e-18)
(-0.000336954 -0.000188526 -1.10173e-17)
(0.0111204 0.000111108 2.23802e-18)
(-2.83253e-06 0.000159682 -1.56511e-18)
(-0.000155215 0.000322493 7.04065e-18)
(-0.000120779 -6.19659e-05 -1.56753e-18)
(-7.86386e-05 -0.00122602 1.84021e-18)
(-0.00607426 -0.000966531 -1.06821e-17)