/*--------------------------------*- C++ -*----------------------------------*\
| =========                 |                                                 |
| \\      /  F ield         | OpenFOAM: The Open Source CFD Toolbox           |
|  \\    /   O peration     | Version:  v2012                                 |
|   \\  /    A nd           | Website:  www.openfoam.com                      |
|    \\/     M anipulation  |                                                 |
\*---------------------------------------------------------------------------*/
FoamFile
{
    version     2.0;
    format      ascii;
    class       volVectorField;
    location    "750";
    object      ddtCorrDdt0(U);
}
// * * * * * * * * * * * * * * * * * * * * * * * * * * * * * * * * * * * * * //

dimensions      [0 1 -2 0 0 0 0];


internalField   nonuniform List<vector> 
13851
(
(-0.00268688 -0.000706497 -1.34388e-17)
(-0.000367722 -0.000149705 -1.13337e-19)
(-0.000352808 -0.000152806 3.22262e-18)
(0.0047492 -0.00303682 3.47491e-17)
(-2.68629e-05 4.28248e-06 5.58221e-19)
(-0.000465701 -8.35153e-05 -1.03975e-17)
(4.50441e-05 -0.000453028 8.37152e-18)
(-4.48837e-05 -2.53031e-06 -1.56602e-19)
(0.00313986 -0.00525843 -6.19191e-18)
(-3.19183e-05 9.50148e-05 -1.8214e-18)
(-0.000590238 -0.000100508 1.54117e-17)
(-4.38508e-05 6.83645e-05 -9.96077e-19)
(-7.27539e-05 0.000260389 -7.19141e-20)
(0.0075591 -0.000843868 6.67811e-18)
(-0.000635083 -0.000757115 -1.21259e-17)
(0.00231778 -3.1196e-05 1.49486e-19)
(0.00340989 -0.00022989 -1.19966e-17)
(-0.000157615 -6.75615e-05 9.55023e-19)
(-0.0103726 -0.00371987 2.64406e-18)
(-0.00245334 -0.000734808 1.09108e-17)
(-0.000892518 -0.000597483 -4.04144e-19)
(-0.000416243 9.92023e-05 3.51154e-18)
(0.0182138 -0.000874171 1.64048e-17)
(-4.64441e-07 1.82915e-06 6.12805e-19)
(-0.0136215 -0.0045255 3.10282e-17)
(0.000570594 -0.00136185 -4.94244e-18)
(0.00410067 -0.0164759 1.04321e-17)
(-0.00259943 -0.0111859 2.31411e-17)
(-0.00765525 -0.000769529 1.09282e-17)
(-9.07672e-05 -4.6761e-05 4.98092e-19)
(-0.00176098 0.00473847 5.17314e-17)
(2.9044e-05 -0.000449337 5.80099e-19)
(-0.00308066 -0.0016046 -8.23741e-18)
(0.00494978 0.0042145 -6.83273e-18)
(-0.000583696 5.44725e-05 1.47983e-17)
(-0.00701234 -2.34678e-06 1.84053e-18)
(-2.70437e-07 1.444e-06 -6.48797e-19)
(0.00747242 0.00519677 -1.10245e-17)
(-0.00894255 0.000290707 -1.55561e-17)
(-0.000180991 0.000167706 4.2474e-19)
(-0.000437012 0.000722433 9.25513e-18)
(-0.00827615 -0.000631918 -1.94042e-18)
(-0.00118482 0.000151328 5.30996e-17)
(-0.00221888 0.00130972 -2.27269e-18)
(-0.00876987 -0.00245794 -4.73588e-18)
(-0.000134969 7.16912e-05 -3.13625e-20)
(6.08657e-06 -1.41621e-05 1.73105e-19)
(0.0029446 -0.00279328 3.34764e-18)
(-0.000342106 -3.33233e-06 -1.61249e-18)
(-6.74957e-05 0.000256364 -2.11034e-18)
(-0.00122458 0.000803573 1.91021e-17)
(-4.83814e-05 0.000299445 6.47872e-18)
(0.00248494 -0.000259992 -1.17634e-19)
(2.44989e-05 -0.000822704 1.09797e-17)
(0.00196005 -0.00156671 1.48835e-17)
(-0.000181627 0.000171957 1.11291e-18)
(-0.00321106 -0.0013625 8.66194e-18)
(0.000117354 0.000522244 -1.36599e-17)
(0.0122922 -0.00460904 4.28343e-19)
(0.00515851 0.000421832 5.01338e-18)
(-4.14821e-05 7.60934e-05 1.26823e-18)
(0.00209444 -0.0142443 -6.52249e-18)
(-1.28612e-05 0.000153217 -1.0301e-17)
(-0.000351971 1.4986e-06 -2.17473e-19)
(-0.000846412 0.00137751 -9.18908e-19)
(-0.00076459 0.00145956 -3.10739e-19)
(0.00530755 0.000291332 -4.40093e-18)
(-0.000129563 0.000842263 -1.07199e-17)
(-0.000218451 4.63272e-05 1.29899e-19)
(-0.00120579 -0.00430123 -3.28985e-17)
(0.00352392 0.00243275 2.12546e-17)
(-0.00113026 -0.000626075 1.03048e-17)
(-0.000109709 0.000208084 1.64008e-18)
(0.00588675 0.000510333 5.05466e-19)
(-0.000129383 -0.000864675 -3.23171e-18)
(-0.000329856 0.000105929 4.20321e-19)
(0.00358877 -0.000293406 -1.76475e-18)
(-5.29681e-05 -2.95914e-05 -1.64598e-18)
(-0.00717186 0.000779121 -1.2094e-17)
(-8.46392e-05 8.40375e-05 -6.37716e-19)
(-0.000223631 3.78484e-05 -9.97189e-20)
(-0.00127471 -0.00783949 3.49491e-18)
(-0.000586693 5.33054e-05 -2.59171e-19)
(0.00812719 -0.000544426 -2.92763e-17)
(0.00585459 0.000629473 4.99865e-19)
(0.000523664 0.00438759 -6.39966e-18)
(-0.000427532 9.75137e-05 -4.49198e-18)
(-0.008119 -0.000566852 -5.98284e-18)
(-4.76058e-05 9.73969e-05 1.46454e-18)
(-0.0022869 0.00450286 -1.97715e-17)
(-4.46531e-05 0.000306193 -4.18716e-18)
(1.63604e-05 -0.000465763 -6.95329e-18)
(-0.00488693 -1.19025e-05 -4.85504e-17)
(-0.000135361 0.00376403 1.08794e-17)
(-0.00289805 0.00474599 6.63288e-18)
(-0.00228842 0.000855879 1.58295e-17)
(-0.000127703 0.000120687 1.6099e-19)
(0.003332 -0.00132447 3.46589e-18)
(0.00342339 -0.00022465 -2.79791e-19)
(-0.00127324 0.00114549 -1.14248e-18)
(0.0036797 -0.00154377 -2.87989e-18)
(-0.00020166 0.00067558 -4.58739e-19)
(-0.000255378 0.000706815 -8.75194e-18)
(-0.000114662 0.000241356 -1.1904e-18)
(-0.000140129 2.29092e-05 -6.86316e-19)
(-0.00109633 -0.000240767 4.39531e-18)
(-0.000136605 3.33318e-05 -5.95224e-19)
(0.00309338 0.00311132 -2.46846e-17)
(2.32929e-06 -0.000457605 5.85305e-18)
(-0.000152852 -6.63891e-05 -1.53208e-18)
(-0.000488923 0.000206201 1.08895e-19)
(-0.000138626 6.21593e-05 -3.14161e-19)
(0.000232288 0.00464792 3.66117e-19)
(-0.000600507 0.000458869 5.98862e-18)
(-0.00255417 -0.00391164 7.9693e-18)
(1.47314e-05 -0.000793472 5.2382e-18)
(-7.06991e-05 -1.04831e-05 2.4087e-19)
(-4.26434e-05 -3.87138e-06 -1.05896e-18)
(0.00501938 -0.00257315 -3.73963e-17)
(-0.000304619 -0.00528457 -5.05009e-18)
(-0.00165865 -0.00013591 8.78755e-18)
(-0.000121368 -6.16107e-05 2.10773e-18)
(-0.000210874 8.95027e-05 8.03958e-20)
(0.00632137 0.00169148 2.51939e-18)
(-0.00166067 -0.00486561 1.35815e-17)
(-0.000110118 0.000989127 3.59927e-18)
(-0.000126981 0.000118465 3.77462e-19)
(-0.000743471 0.000131359 4.19177e-18)
(0.00335066 0.00353356 5.55815e-18)
(-0.000909169 -0.000899477 1.44474e-17)
(-0.00041438 0.000108427 -3.32083e-18)
(-0.000549678 2.15934e-05 -1.4748e-18)
(0.00230198 0.00490136 1.96055e-17)
(0.00547685 0.00355125 1.0464e-17)
(-0.000545945 -0.00012983 -2.99226e-17)
(-0.00567809 0.0044541 3.12191e-19)
(-0.00011166 0.000816405 -1.06789e-17)
(0.00121438 0.00385863 -2.4886e-17)
(-0.000169752 0.000577574 -3.91599e-18)
(-0.000785347 -0.0010049 -1.09632e-17)
(-0.00178975 -0.00667625 -7.57451e-18)
(-0.000163484 0.000317057 -3.59796e-18)
(-4.72683e-05 0.000103755 1.29427e-18)
(-0.000348553 0.00105837 -1.09022e-18)
(0.012689 0.0228131 1.01776e-17)
(-0.000299767 0.000154647 1.73769e-18)
(-4.99766e-05 -2.70952e-05 1.46607e-18)
(-0.000968846 0.00383702 -2.39764e-17)
(-0.00443346 -0.0028675 2.2962e-18)
(-0.000766331 0.000137818 2.66495e-18)
(0.00366387 -0.00203767 -5.93723e-18)
(0.000575023 0.00407079 4.9163e-19)
(-0.000558995 0.000526808 -2.33646e-17)
(-0.00714147 -0.00328176 7.17743e-18)
(-8.2495e-05 0.00032122 3.43811e-18)
(-3.10868e-05 0.000173946 4.29779e-19)
(-3.58772e-05 7.54965e-05 -1.80705e-18)
(-0.00875197 -0.000188081 1.32432e-17)
(-0.000737304 -0.00090547 4.3916e-18)
(-0.000124213 -0.000362529 -1.90856e-18)
(-1.28525e-06 5.88522e-06 7.01757e-19)
(-0.00747361 -0.000380104 -1.6386e-18)
(-0.00106513 -0.000276322 2.5549e-18)
(0.00276148 -0.00310391 4.92815e-18)
(0.00748471 -0.000898126 -2.75898e-18)
(-0.000328991 -0.00676276 -2.69542e-18)
(0.000213006 -0.00733149 3.3901e-18)
(-0.00156088 0.00113464 -4.45366e-17)
(-0.000475129 0.000194447 1.0193e-18)
(0.0125569 -0.00834055 9.17947e-18)
(-3.74569e-05 9.00294e-05 -1.70303e-18)
(-6.87724e-05 -1.13325e-05 -6.58569e-19)
(-0.00130121 4.76009e-05 4.89266e-18)
(-1.60334e-05 6.28126e-06 -4.78619e-19)
(-0.00245457 0.00539278 8.2682e-18)
(-0.0157819 -0.00631098 8.35498e-18)
(0.00325303 -0.00532071 6.29429e-18)
(-6.79982e-05 -1.76833e-05 -2.38865e-19)
(-7.38942e-05 -0.000872281 -3.61063e-18)
(0.00317822 -0.00471113 -4.58653e-18)
(-0.00128855 -0.00406511 -1.72235e-17)
(-0.00268441 0.000766232 -8.22245e-18)
(-0.000470949 0.000169546 1.749e-18)
(-0.000852749 -0.000912527 -1.01236e-17)
(0.00272826 -0.000153651 -4.76901e-17)
(-0.00474982 -0.00291466 -3.05984e-18)
(-0.00329294 -0.00196036 -1.28813e-18)
(-0.000155636 0.000486274 -3.60937e-19)
(-8.93273e-05 0.000303055 -3.24188e-18)
(-0.000115895 -1.70269e-05 -2.12116e-18)
(0.0144804 0.0250515 -2.05113e-17)
(-0.000760225 -0.000868564 7.96673e-18)
(0.0074443 -0.00058849 4.56074e-18)
(-0.000472232 -9.56969e-05 8.86959e-18)
(-0.000295162 0.000145657 -7.79332e-20)
(0.00292196 -0.000759716 4.39378e-18)
(-0.00310043 -0.00214507 2.83096e-18)
(-0.000147856 -0.000114782 1.99279e-18)
(-0.000219029 -7.30458e-05 5.05775e-18)
(-0.000158986 0.000880149 3.61595e-18)
(-0.00365901 -0.00529304 -2.33981e-17)
(0.00397168 0.00128023 -7.4826e-18)
(0.00043161 -0.000672686 7.38648e-18)
(-0.000597136 -0.000773482 -2.24771e-18)
(-0.00142276 0.00433656 4.09126e-18)
(0.00364667 0.00110866 2.06345e-17)
(-6.03109e-05 0.000415026 -8.40493e-18)
(-0.000504901 -0.00119275 -8.70668e-18)
(0.00495626 -0.00496654 4.73542e-18)
(-0.000444558 -4.95425e-05 1.72275e-18)
(0.00183009 0.000170151 -7.30299e-18)
(-0.000206102 9.36713e-05 -5.77256e-20)
(-0.00350188 -0.00654315 1.29645e-17)
(-3.41897e-06 3.80329e-05 -4.20619e-19)
(-0.000580781 7.07237e-05 7.70487e-18)
(-0.000364631 0.000112053 1.0292e-18)
(-6.57969e-05 0.000239187 -9.88471e-18)
(-0.00142984 0.00160833 -3.43305e-18)
(-0.000193044 -8.15184e-05 -8.6265e-19)
(0.000168851 0.000788418 4.42152e-17)
(-6.585e-05 -1.91921e-05 8.39555e-19)
(-0.00209971 -0.000627679 2.34048e-17)
(0.00818156 -0.00026242 3.18449e-17)
(-0.00437962 0.00501511 -3.61275e-17)
(-0.000181958 0.000468674 -4.25854e-18)
(-0.000474265 -0.00122907 3.1378e-18)
(-6.2084e-07 1.23643e-05 3.19766e-19)
(-0.000350356 0.0010053 6.86799e-18)
(-6.09322e-05 3.91922e-05 -2.74119e-19)
(-0.000584759 6.42368e-05 -6.45097e-18)
(0.00621451 -0.00390082 -6.29219e-18)
(-0.000161449 0.000479116 1.10001e-17)
(-0.000439056 -5.74482e-05 -2.56836e-18)
(-3.81894e-06 0.000174446 7.85019e-19)
(0.000416566 -0.000391067 -4.34768e-18)
(-9.03241e-05 -4.90244e-05 -5.91434e-19)
(0.00769181 0.00543974 8.26977e-18)
(0.000981863 -0.00106925 -1.57001e-18)
(-0.00127209 0.000924743 2.85437e-18)
(-8.72818e-07 5.12421e-06 -3.71814e-19)
(0.00526005 -0.00319487 -5.081e-19)
(0.00639578 0.000471482 1.40823e-17)
(-0.00946193 -0.00226439 -2.32497e-19)
(0.00198265 -2.25427e-05 6.60824e-18)
(-0.000688958 -0.000301785 -1.28743e-18)
(-0.000292466 0.00113633 2.25954e-18)
(-0.00157757 0.00108088 3.32773e-18)
(-4.59856e-05 -0.000887916 9.41749e-18)
(-0.00208332 0.000624419 -1.55993e-17)
(-0.000529002 0.000178623 -5.81952e-19)
(-0.00452092 -0.00113288 -8.85907e-18)
(-0.00244685 -0.00137054 -1.55833e-17)
(-4.80781e-05 1.55154e-06 4.65216e-19)
(-0.000418554 -0.000266261 1.41707e-18)
(0.00333691 -0.000906918 -5.41302e-18)
(-0.00721342 -0.000452525 5.88898e-18)
(-0.00887505 -0.000423004 3.37229e-18)
(-0.000112238 -1.52995e-05 6.8533e-20)
(-9.11272e-05 0.000984103 -4.65149e-18)
(-5.10666e-05 9.37954e-05 -2.68273e-18)
(-0.00569999 -0.00143844 7.45207e-18)
(-0.00401041 -0.00470954 7.63016e-18)
(-0.000433274 -0.000276463 3.79968e-18)
(-0.00109757 -0.000342783 -1.54112e-17)
(-0.00268181 -0.00148335 1.30343e-17)
(-0.000107926 0.000163376 4.16028e-18)
(-0.000216213 0.000693043 7.5897e-18)
(0.0016877 -0.00299433 -1.55574e-18)
(-0.00148783 -0.00216885 1.09372e-17)
(-3.83802e-05 0.00011315 1.66383e-18)
(-6.10285e-05 0.000235189 1.15256e-17)
(-0.000173914 0.00047389 4.14089e-18)
(0.00641899 -0.00592189 2.29223e-18)
(0.0030807 -0.00161548 5.71436e-17)
(-0.000993059 -0.00069572 8.26511e-18)
(-0.000126589 -6.26516e-05 2.95141e-19)
(-0.000400655 -0.00366034 -4.75265e-18)
(-0.00549108 -0.00418273 1.14309e-17)
(-0.00238109 -0.00286577 1.76423e-17)
(-0.00106793 -0.000378707 1.43421e-17)
(0.00672741 -0.00515351 -2.63507e-19)
(0.00304119 -0.000262392 4.64578e-18)
(-0.000487463 -0.000200021 7.93369e-18)
(-0.000533536 -0.000688803 1.52519e-18)
(0.0140723 0.005694 -2.14928e-17)
(-0.000139735 -5.59315e-06 5.13246e-19)
(-3.49856e-05 7.01382e-05 4.34782e-19)
(-0.0026849 -0.00275895 -2.81464e-18)
(-0.000686932 -1.78876e-05 -1.30366e-17)
(-9.18144e-05 -5.22915e-05 5.37146e-19)
(-3.48469e-06 3.66421e-05 5.48012e-19)
(-6.24321e-05 4.13131e-05 -8.05079e-19)
(-3.29175e-05 1.0913e-06 3.20007e-22)
(-0.000651724 -0.00044279 -1.45015e-17)
(-3.72283e-05 6.90817e-05 1.25129e-18)
(0.00374207 -0.00549424 1.76822e-18)
(-0.000939358 -0.000621289 3.52586e-18)
(-0.000168193 0.000123778 5.9192e-19)
(-0.00696371 -0.000234043 -3.27534e-18)
(0.00661791 0.0014729 1.24199e-18)
(-6.75539e-05 0.000300194 -3.33026e-18)
(-0.00229313 -0.000505453 -1.80531e-17)
(0.00245205 0.000263705 -2.72084e-17)
(-0.000168596 0.000317904 -1.25019e-18)
(-6.31749e-05 0.00030757 -2.39456e-18)
(-0.000996284 -0.000593803 1.28953e-18)
(0.00834515 -0.000203708 7.41188e-18)
(0.00776109 -0.00505995 2.13007e-17)
(-0.00155035 -0.000197202 -1.56468e-17)
(-2.8012e-05 4.40497e-06 -2.75706e-19)
(0.0115224 -0.00890393 1.04345e-17)
(-3.98483e-05 8.31189e-05 -3.40598e-19)
(-0.00168267 -7.79534e-05 -7.69497e-19)
(0.00214585 0.000502606 2.52999e-17)
(-0.00113229 0.00133627 1.27944e-17)
(-0.0001213 -0.000350675 -9.93927e-18)
(0.0138071 0.00477039 2.15223e-17)
(-0.00605152 0.00455913 3.09985e-18)
(0.00557654 0.00112966 5.70647e-18)
(0.00155348 0.00332984 -1.38862e-17)
(-0.000139158 0.000710068 2.64954e-17)
(-0.00593921 0.0052885 -1.99139e-17)
(0.00546042 0.00229616 4.73615e-18)
(-0.00290681 -0.0113541 -7.54472e-18)
(-0.000226934 -6.82813e-05 -1.4781e-18)
(0.000858318 0.00157518 -2.11608e-17)
(-0.00615152 -0.000236296 2.06356e-18)
(7.26506e-05 0.00118584 -5.31858e-18)
(5.12474e-05 0.00123374 1.21945e-17)
(-6.94613e-05 0.000415051 2.29922e-17)
(-0.00146204 3.85509e-05 1.99268e-18)
(-0.000332434 0.000382929 -2.22462e-18)
(-0.00809343 -0.000604848 2.98738e-19)
(-0.000218349 0.000741732 6.95873e-18)
(-4.16175e-05 7.74038e-06 -2.91787e-19)
(1.52933e-06 -1.62797e-05 5.08294e-19)
(-0.000473888 4.54878e-05 4.14454e-18)
(0.00499223 0.00112297 3.62361e-18)
(0.000159603 0.000845646 -2.72596e-17)
(-0.00013732 -1.00889e-05 2.23003e-19)
(-0.00381392 0.00448944 3.18569e-17)
(-0.000314497 0.000413728 3.45636e-18)
(-0.000551169 3.03041e-05 3.09842e-18)
(-0.000115689 -0.000377661 -7.12305e-19)
(0.00936818 -6.00786e-05 -1.09213e-17)
(-0.000642763 -0.00324346 -6.66008e-18)
(0.0028704 -0.000369336 -8.08721e-19)
(-0.00035105 0.000108167 -9.62646e-19)
(-0.000424132 -5.89957e-05 -6.20257e-19)
(-0.00475673 -0.000367732 -5.45067e-18)
(-9.2585e-05 0.000306269 1.75222e-18)
(-0.00653226 -0.00432619 5.02151e-19)
(-0.000470147 -0.000209339 -4.8089e-18)
(-0.00100922 -0.000552544 -4.79566e-18)
(-0.000323144 0.000415208 3.83382e-18)
(-5.08695e-05 9.89601e-05 5.02458e-19)
(-0.000168318 0.000115959 -4.80049e-19)
(0.000263161 -0.00226545 1.36648e-18)
(-0.00153906 0.00129979 5.6633e-20)
(-0.00206305 -0.00137553 -1.47599e-17)
(-0.000114437 0.00544242 3.57013e-17)
(-0.00490016 -0.000101332 5.01528e-18)
(-0.000309928 0.000152408 -1.32798e-18)
(0.000843074 -0.000739067 1.17114e-17)
(-0.00643425 0.000744551 3.71728e-18)
(-7.42523e-05 -4.09539e-05 -9.91131e-19)
(-0.00149395 0.0026483 -1.04165e-17)
(-0.00184685 -0.00107213 -1.55565e-17)
(0.00325886 -0.000160638 -2.84941e-17)
(-0.000463626 4.1239e-05 -4.72522e-18)
(0.000611631 -0.00107583 -1.10917e-17)
(0.0140113 -0.00433935 1.0591e-18)
(-0.00856703 -0.010791 3.72041e-18)
(-0.00051033 -0.00187659 8.66576e-18)
(-0.00741076 -0.000748381 -2.27542e-18)
(-0.000285419 -4.90848e-05 -8.62764e-18)
(-0.0165234 -0.0053072 -1.92104e-19)
(-0.00175188 0.000312313 -4.41943e-18)
(-0.000615131 -0.000170338 5.32684e-18)
(-0.00444954 -0.00145366 4.22318e-18)
(-0.00067438 -0.000134807 1.59907e-17)
(0.00173559 -0.0017132 2.88926e-17)
(-0.000524928 -0.000661806 -7.56749e-18)
(0.000207831 -0.00103762 -6.43662e-18)
(-0.00311591 -0.00106211 -2.37626e-17)
(-0.00300927 0.00126855 1.3918e-17)
(-3.76671e-05 0.000178105 5.47969e-18)
(-0.000470872 -0.000151547 4.25989e-18)
(-0.000717071 -2.65063e-05 -2.82918e-18)
(-0.000101948 -0.000885742 3.6495e-18)
(-0.000140472 9.60687e-05 1.31913e-20)
(-0.000996793 -0.000749631 -5.42792e-18)
(0.000402293 0.0072902 -3.99229e-18)
(-0.00011028 0.000203464 -3.86793e-18)
(-0.000568317 -0.00117365 6.40737e-18)
(0.00616253 -0.000369325 -6.26466e-17)
(-0.000380419 -6.38367e-05 -1.09618e-18)
(-0.00659696 0.00448063 7.24455e-18)
(3.97028e-05 -0.00121299 3.66833e-18)
(0.00741372 -0.00638872 -1.78762e-17)
(-0.00045892 -4.49736e-05 -6.35465e-18)
(0.000495273 -0.00134479 7.19904e-18)
(-0.00181074 0.0018907 -8.50464e-18)
(-0.00304404 -0.00543745 -5.88088e-18)
(-0.00104638 -0.000153664 1.41257e-17)
(-0.00929496 -0.000340914 -1.38283e-18)
(0.00637836 0.000338635 -2.28672e-17)
(0.00448952 -0.00346038 -1.31474e-17)
(-0.000105831 0.000165176 7.13013e-19)
(0.00052938 -0.00198902 -5.98605e-18)
(-0.000660821 -7.34584e-05 4.6949e-18)
(0.000610006 -0.0011463 3.97475e-18)
(-0.000129192 -6.14324e-05 2.71379e-19)
(0.0011692 0.000392088 -2.32628e-17)
(-0.00472367 0.00697975 -2.41546e-18)
(-0.0167375 -0.0196005 -6.3171e-17)
(-0.000416926 -6.59987e-05 3.03157e-19)
(-0.00303233 -0.0013404 1.90453e-17)
(-0.00556614 -0.0146924 9.23178e-18)
(0.00348066 -0.0018372 -6.18637e-17)
(-3.57706e-05 -4.3066e-05 1.09791e-18)
(0.00106453 0.000994496 7.87571e-17)
(-0.00421784 0.000738524 1.52513e-17)
(0.0107167 -0.00495803 1.99136e-17)
(-0.000542609 0.000179281 3.5328e-19)
(0.0103906 -0.00682702 1.21862e-17)
(-6.61041e-05 0.000176638 -1.36705e-18)
(-1.85657e-05 5.18146e-06 -2.2892e-19)
(0.00146427 -0.00119719 -1.87744e-17)
(-0.00871158 -0.0139639 -1.87393e-18)
(-3.31597e-05 9.83056e-05 -5.76065e-18)
(-0.000370369 -0.000138742 -1.08167e-17)
(-0.000621822 -0.00118257 -2.29089e-18)
(-7.18684e-05 1.42129e-05 -1.76389e-19)
(-0.00475418 0.00725475 -1.14563e-17)
(-0.00152236 -2.63582e-05 -1.07982e-17)
(-0.00180689 -0.00105788 1.08963e-17)
(-0.000273283 -0.00043403 1.4714e-18)
(-0.000282646 -5.34404e-05 2.49455e-18)
(-2.59516e-05 0.000296905 -4.51779e-18)
(-0.00716937 -0.0099737 -3.23977e-17)
(-0.000162623 0.000134734 -1.16503e-18)
(-2.18594e-05 0.000285987 8.44454e-18)
(-0.0116994 0.00212925 4.36017e-18)
(-0.00139914 0.00592563 3.57731e-18)
(-0.000403482 0.000109921 1.50008e-18)
(0.00953798 -0.00495743 -9.28102e-19)
(-9.83318e-06 0.000159184 4.08683e-18)
(-3.62848e-05 6.39202e-05 -1.19253e-20)
(-0.000394455 -6.17956e-05 -2.08724e-18)
(-0.00219067 -0.00149682 1.82825e-17)
(0.000129703 -0.00116325 1.52029e-17)
(-0.000146592 0.000101334 3.51725e-19)
(-0.000295887 -7.94723e-05 6.55321e-19)
(-0.00148088 -0.000196879 1.70872e-17)
(-0.000284562 -0.00016052 8.17113e-18)
(0.0065711 0.0026822 -1.47694e-17)
(-4.23058e-05 6.68427e-05 -2.5488e-19)
(-0.000147055 -0.000625222 2.95651e-18)
(-0.0087266 -0.00298415 2.76678e-18)
(-0.000433122 0.000465624 8.61879e-18)
(-1.85937e-05 -8.38018e-06 8.0252e-19)
(-3.2676e-05 0.000109228 7.74036e-19)
(-0.000283103 -0.000415855 3.57815e-19)
(-0.000152388 -0.000139137 1.00626e-18)
(-0.00195747 -0.00523784 1.0637e-18)
(-0.0131166 0.00253123 1.39221e-18)
(-0.000703205 -0.000323597 8.69194e-19)
(0.000357136 0.00206054 -5.76479e-18)
(-0.000400314 -6.81744e-05 4.70406e-18)
(-5.06571e-05 6.18535e-05 -3.93744e-18)
(0.00766967 0.00170137 -4.99295e-18)
(0.0127203 -0.00541101 4.78467e-18)
(-0.000274467 0.000549736 -3.2347e-17)
(-0.000128561 0.000222649 -2.60694e-18)
(0.00613938 0.00202301 2.51001e-18)
(-0.000190328 0.000571241 5.69805e-18)
(0.00372088 -0.00360617 1.43877e-17)
(-0.000109459 0.000239465 3.03027e-18)
(-0.000561845 1.52501e-05 -1.98234e-17)
(-0.000303127 -0.00220618 -9.99565e-18)
(-0.000259765 -0.000916278 -5.45768e-19)
(0.00494064 0.00274506 -7.60436e-18)
(-0.00388106 -0.015794 -1.07701e-17)
(-0.0136915 -0.0195344 5.29065e-17)
(-0.000263038 0.000278072 1.64883e-19)
(0.00136453 0.00400199 1.37608e-17)
(-0.000115527 0.000170719 1.09687e-18)
(-0.00739064 -0.000683916 -8.56765e-18)
(2.08194e-06 -0.00120644 -2.89837e-18)
(-0.00310253 -0.00237216 1.36693e-17)
(-0.000656857 -9.34536e-05 -3.36257e-18)
(-0.000340519 9.9618e-05 -5.40538e-19)
(-0.000455262 0.000424504 9.10172e-18)
(-0.00136899 -1.19363e-05 3.05509e-17)
(-2.4744e-05 5.42213e-06 -2.45067e-19)
(-0.00152591 -0.00119169 -2.52278e-18)
(0.00763449 0.00167366 1.6384e-18)
(0.005974 0.00448684 -6.21161e-18)
(-0.00206811 0.00197126 2.26041e-17)
(-0.0129549 0.00204429 3.62318e-18)
(-0.00430843 -0.00262781 -8.72497e-18)
(-0.00481997 -0.00495995 -1.21923e-17)
(-0.000205796 0.00044521 4.20474e-18)
(-7.02601e-06 9.87887e-05 2.29346e-18)
(-0.00915833 0.00693064 6.79842e-18)
(-2.79071e-05 9.51702e-05 1.71232e-19)
(-0.00013593 9.80847e-05 -2.28574e-20)
(-0.000239942 0.00046729 1.10365e-17)
(-0.000872224 0.00553018 -3.26117e-17)
(-0.000320934 -0.00019455 9.34467e-18)
(-0.000141145 0.000334452 -2.17507e-18)
(-0.000952078 0.00020829 -3.48123e-18)
(-0.000831999 0.000148703 1.17175e-17)
(-1.15249e-05 0.000105128 5.62047e-18)
(-0.00732906 0.00261122 -1.96828e-17)
(-0.000119766 0.000126596 -1.13984e-19)
(0.00449438 0.0038689 5.59429e-18)
(-0.000113869 -0.00484818 -5.56116e-18)
(-8.85832e-05 9.17036e-05 -1.07916e-18)
(-0.000230961 -0.00025381 -1.19265e-18)
(-0.00487048 -0.00196017 -1.68069e-18)
(-0.00212718 -0.0010048 -1.10323e-17)
(-9.34062e-05 -5.09009e-05 1.91109e-18)
(0.00359997 0.00470967 2.23365e-17)
(-0.00564932 0.003729 -1.06094e-18)
(-4.67061e-05 -0.000101176 -1.45778e-19)
(0.00169601 -0.00706225 -1.32874e-17)
(-0.00869467 -0.00413848 -3.73324e-18)
(-0.00182854 -0.000672029 4.58927e-18)
(-0.000244184 0.0002948 -3.72561e-18)
(-0.0114463 0.00123043 -2.46018e-18)
(0.00292373 1.44461e-05 9.12998e-18)
(-4.95096e-05 -0.000102959 -2.40831e-18)
(0.00027352 0.0115384 -3.45972e-17)
(-0.000213511 6.86454e-05 -6.27332e-20)
(-0.000124256 0.000127347 -5.15268e-19)
(-0.00621131 0.005431 6.0398e-18)
(0.00213901 -0.00191797 -9.12543e-19)
(-0.000757075 -1.55404e-05 3.71944e-18)
(0.00014079 -0.0011371 -1.38051e-17)
(-2.27301e-05 9.72195e-05 -1.53417e-18)
(0.000152899 -0.00152389 1.35501e-17)
(0.00344968 0.00393093 1.13027e-17)
(-0.00852754 0.00264312 1.24101e-17)
(-8.09057e-05 -8.9555e-05 1.40471e-18)
(0.00169376 -0.00154055 1.44489e-17)
(-0.000142452 0.000104434 -3.32731e-19)
(-0.000219287 5.95787e-05 -2.80968e-19)
(-0.00108301 -0.00017781 -1.18339e-17)
(-3.64379e-05 -0.000656963 -4.70093e-18)
(-3.32058e-05 -4.8481e-05 1.03933e-18)
(-0.000322814 0.000113323 4.93502e-20)
(-2.18214e-05 -0.00761121 -1.40049e-17)
(-0.0029762 0.00109 -5.93628e-18)
(0.000602334 -0.00672362 4.03173e-17)
(-0.000307512 -0.000181978 -1.3208e-18)
(-5.40779e-05 9.51049e-05 -4.63614e-18)
(0.00521692 -0.00685387 1.00795e-17)
(-1.33503e-05 0.000133343 2.74509e-18)
(0.00138138 -0.00160804 -4.57731e-17)
(-0.000262737 -0.000561922 1.82625e-17)
(-0.000190838 -0.000852636 -4.38604e-18)
(-0.00068925 -0.000241492 -1.11187e-17)
(-0.0110862 -0.00189836 4.99556e-18)
(0.00287063 -0.000296953 2.81391e-17)
(-0.000461234 -0.000119975 -1.31035e-17)
(-0.000790702 0.000920932 3.07362e-17)
(-0.000134529 -0.000316098 -6.58878e-18)
(-0.00122016 0.000405343 8.91332e-18)
(-0.00862608 -0.00089264 -2.40636e-18)
(0.00205108 -0.00222979 7.21792e-18)
(-0.000202481 0.000124481 2.61802e-19)
(-0.000113579 0.00017214 -4.36169e-19)
(-0.000283299 0.000708206 -1.12372e-17)
(-0.000977941 -0.00681096 1.61505e-17)
(0.00522738 0.00175202 -1.14942e-18)
(0.000167486 -0.00147605 -9.9885e-18)
(-0.00916197 -0.00131649 2.07035e-17)
(-1.89183e-05 -0.000668558 6.98185e-18)
(-0.000484654 -0.000665682 -1.39616e-17)
(0.00396576 -0.00477853 -5.06698e-17)
(-0.00763254 -0.00342343 1.97328e-17)
(-0.00135948 0.000158196 6.70723e-18)
(0.00523862 0.00342495 1.32813e-17)
(-0.00359434 -0.00693759 -1.50303e-17)
(-0.00636423 0.000517046 4.46067e-18)
(-0.000266486 -4.93566e-05 -6.67501e-20)
(0.0104854 -0.00277713 1.20712e-18)
(0.00762889 -0.00702055 1.37633e-17)
(-4.64816e-05 8.8026e-05 -1.81779e-18)
(-0.00730207 1.97215e-05 -1.62478e-17)
(0.00845024 0.0117671 -4.13443e-18)
(-0.000480472 0.0001828 -5.62344e-19)
(-0.000840812 -0.000984233 5.12328e-18)
(-0.000164527 0.000198951 2.1129e-18)
(0.00156159 0.00173293 5.04316e-18)
(-0.000782692 0.000267069 -5.77464e-18)
(-0.00344194 -0.00229816 4.35767e-17)
(-0.00016369 0.000138074 3.8264e-19)
(-1.08059e-05 8.27489e-06 3.51128e-19)
(-0.000125457 0.000447819 1.58885e-18)
(-0.000793373 0.000140156 -1.02963e-17)
(-4.10795e-05 6.63161e-05 4.01233e-19)
(-0.00116206 0.0051361 2.28493e-17)
(-1.29167e-05 9.80473e-06 2.94777e-19)
(-0.00374968 -0.00633781 1.38343e-17)
(-0.000227099 0.000304404 4.47138e-18)
(0.000660773 -0.00117445 2.23192e-18)
(-0.000114843 0.000233169 1.85269e-18)
(-1.37451e-05 0.000105447 3.32589e-18)
(-0.000657136 0.000175097 -9.16527e-18)
(0.00142375 -0.00154311 6.89554e-17)
(-0.00100678 -6.20266e-05 7.83137e-18)
(-0.0051062 0.00421112 -1.13522e-17)
(-0.000560465 2.24e-05 1.15736e-17)
(-7.57895e-05 1.80017e-05 -4.53319e-19)
(-9.70609e-05 -4.83395e-05 -5.45066e-18)
(-0.00130355 0.000128118 -2.81725e-18)
(-0.000294021 -7.50591e-05 3.25308e-18)
(-0.000407195 0.00162038 4.50791e-18)
(-0.000361987 -0.00019396 -8.93538e-18)
(-0.000258878 0.000542815 1.32571e-17)
(0.0127508 -0.00101111 -2.14982e-18)
(-1.23365e-05 0.000136825 6.9001e-20)
(-0.00985738 -0.000308599 -7.72814e-18)
(-1.45145e-06 2.05326e-05 -1.55603e-18)
(0.00101605 -0.000806896 -3.70099e-18)
(-0.00137881 0.000874495 -4.50789e-17)
(-0.00490799 -0.0065175 5.06528e-18)
(-6.32982e-05 0.000499869 -1.47151e-17)
(-0.00693207 -0.000223842 -3.20876e-17)
(-0.000940145 0.00026477 -7.62019e-18)
(0.000339195 0.00124739 3.35647e-18)
(0.00917393 0.010595 7.97057e-18)
(-9.53266e-05 -9.49378e-05 -6.42757e-18)
(-0.00819897 0.00111597 2.70542e-17)
(-0.000335647 0.000399557 1.44382e-17)
(-0.00063991 -0.000164534 7.49751e-18)
(-0.00131792 0.00220991 -3.40547e-17)
(0.0104888 0.0247856 -5.74151e-20)
(-7.85935e-05 -4.24675e-05 2.8615e-18)
(-0.000324719 0.00142168 -1.31271e-17)
(-0.000139522 -0.000116188 1.51492e-18)
(-0.00601303 0.000155541 6.28822e-19)
(-0.00575717 0.000782863 6.15765e-18)
(-0.000234716 2.10812e-05 7.93762e-19)
(-0.000128792 0.000845178 1.77423e-17)
(-0.00348157 0.00200959 7.75098e-18)
(-4.08585e-07 1.91607e-05 -8.89133e-19)
(-1.16847e-06 3.09971e-05 1.97903e-18)
(0.000612238 -0.00132048 3.05183e-18)
(-0.00991893 -0.000222343 1.27178e-17)
(-0.0103408 0.000519418 9.44536e-18)
(-5.74879e-05 0.000302623 -3.46915e-18)
(-0.00353744 -0.000594269 -9.14429e-18)
(-0.000273899 -0.000153633 -1.44219e-17)
(-1.35419e-05 0.000113919 5.42189e-18)
(0.0114281 0.00162184 3.49284e-20)
(-0.00350468 -0.000943261 1.96387e-17)
(-0.00172938 0.000840471 -2.02185e-17)
(-3.05349e-05 -3.7842e-05 9.28416e-19)
(0.00145392 -0.0032623 -1.09066e-18)
(-0.000498412 0.000612982 7.47305e-18)
(0.000410439 -0.00128054 5.21117e-18)
(-6.4597e-05 0.000378344 -8.02662e-18)
(-0.000285869 0.000150445 1.76678e-19)
(-0.000761509 0.000241452 9.21746e-18)
(-0.000128573 0.000439348 8.40626e-18)
(0.00231675 -0.00294553 4.42562e-19)
(-0.00109014 -0.000669136 4.72497e-18)
(-0.00112295 -0.00056477 4.5819e-18)
(-0.00125074 0.000210263 -2.94854e-18)
(-0.00486646 0.00147487 -2.57981e-18)
(-0.0103347 -0.00165545 -9.06826e-18)
(0.00456748 -0.0104585 2.88267e-18)
(0.00193351 0.00218252 -1.22619e-17)
(0.00334169 -0.00218497 2.91548e-18)
(0.00815798 -0.000967133 -7.02093e-18)
(-0.000591183 0.000297578 -3.37451e-19)
(-0.00745922 0.00528382 -7.23393e-18)
(-0.0019278 -0.000516764 -8.01652e-18)
(-0.000155407 -6.68312e-05 -8.9428e-19)
(-0.000472742 -0.000639017 -2.39497e-18)
(-0.00961608 -0.000952283 1.28904e-18)
(-0.000452199 6.63281e-05 -1.22911e-18)
(-8.14265e-05 7.68817e-05 5.63895e-19)
(-7.86071e-05 6.9804e-05 -3.54779e-19)
(0.00117645 -0.000955702 -5.97644e-18)
(-0.00773166 -0.000584153 -9.8314e-20)
(-0.000168687 -0.000635364 -4.37676e-18)
(0.00132681 -0.00098306 3.75118e-18)
(-7.6981e-05 2.26064e-05 -5.12745e-19)
(-0.011117 -0.000837574 -1.1998e-17)
(-0.00123251 0.000783686 3.35084e-19)
(0.00203631 0.000301233 1.49393e-17)
(-0.000112661 0.00129901 -2.8918e-18)
(-0.000468693 -4.47279e-05 5.47961e-18)
(-0.000349819 -0.000167034 -1.78736e-18)
(0.00159526 0.000647267 -1.45874e-17)
(-0.00192171 0.000678197 9.01911e-18)
(-0.00058109 0.000283192 -5.58949e-18)
(-0.00758433 -0.0153832 2.47654e-18)
(-0.000270493 -5.822e-05 1.3869e-18)
(-0.0100049 -0.000846834 -4.27685e-18)
(0.00114795 -0.000848836 1.08317e-17)
(-0.00437858 -0.00585355 2.7939e-18)
(-0.000612771 -2.71754e-05 -8.53769e-18)
(-0.0063895 0.000245536 -2.16763e-17)
(-6.74894e-05 0.000172905 -6.4435e-18)
(-2.15766e-06 2.6623e-05 1.07248e-18)
(-6.12531e-05 0.000409835 -1.80814e-18)
(-1.78699e-05 0.000122025 -1.94534e-18)
(-0.00843825 -0.00156529 -4.96335e-18)
(-3.18516e-05 1.17897e-06 2.87573e-20)
(0.012105 0.00230643 -2.3479e-18)
(0.00581049 -0.0061029 -2.68497e-18)
(0.000101801 0.00130755 8.02537e-18)
(-0.00773328 0.0039052 1.11888e-17)
(0.00327341 -0.000285921 4.65141e-18)
(-0.00510425 -0.00599697 8.71439e-19)
(0.000363808 0.00172608 -5.14116e-18)
(-7.87636e-05 0.00049219 9.36853e-19)
(-1.3051e-06 0.000158505 -1.42948e-18)
(-5.92918e-05 0.000218201 -2.84214e-18)
(-5.48179e-05 -3.16652e-05 -5.05339e-19)
(-9.54696e-05 -4.77481e-05 4.47766e-18)
(-1.55369e-05 8.60268e-06 -7.89484e-19)
(-0.0013715 0.000291814 -6.2799e-18)
(-0.00118365 0.00436436 1.87013e-17)
(-0.000517799 0.000640533 -2.20931e-18)
(-0.00257534 -0.0093317 -3.46763e-17)
(-0.000306584 7.19371e-05 -1.0159e-19)
(0.00433024 -0.00488957 -6.06408e-18)
(1.55523e-07 3.2666e-06 -3.39608e-18)
(0.00568199 -0.00356766 2.32406e-17)
(-0.000589136 5.48285e-05 1.63852e-18)
(1.08757e-06 8.79332e-06 3.16558e-18)
(-4.59323e-06 0.000182653 2.29737e-18)
(-0.00343129 -0.00696883 -7.37753e-19)
(-0.000474271 -7.56634e-05 1.51929e-17)
(-0.00804773 -0.016163 5.4333e-18)
(0.0109805 0.0102095 5.15278e-19)
(-0.00073877 -0.000977742 -6.15742e-19)
(-0.00147917 -0.00091386 1.40168e-17)
(-3.78719e-05 -0.000109543 -8.67574e-19)
(0.00487601 0.00412286 1.28606e-18)
(-0.000295927 0.000252477 -1.53145e-18)
(-0.00033428 -0.000188575 -1.10173e-17)
(0.0111205 0.000111115 2.23802e-18)
(-2.47026e-06 0.000159682 -1.56511e-18)
(-0.000153718 0.000322424 7.04065e-18)
(-0.000115571 -6.20292e-05 -1.56753e-18)
(-7.77397e-05 -0.00122599 1.84021e-18)
(-0.00607429 -0.000966533 -1.06821e-17)