/*--------------------------------*- C++ -*----------------------------------*\
| =========                 |                                                 |
| \\      /  F ield         | OpenFOAM: The Open Source CFD Toolbox           |
|  \\    /   O peration     | Version:  v2012                                 |
|   \\  /    A nd           | Website:  www.openfoam.com                      |
|    \\/     M anipulation  |                                                 |
\*---------------------------------------------------------------------------*/
FoamFile
{
    version     2.0;
    format      ascii;
    class       volScalarField;
    location    "750";
    object      k;
}
// * * * * * * * * * * * * * * * * * * * * * * * * * * * * * * * * * * * * * //

dimensions      [0 2 -2 0 0 0 0];


internalField   nonuniform List<scalar> 
13851
(
0.000200845
0.000155134
0.000154929
0.0194822
0.000148436
0.00015762
0.000156069
0.000147709
0.051819
0.000148411
0.000176946
0.000148466
0.00014907
0.0282992
0.000169813
0.000205223
0.0170354
0.00014879
0.000240611
0.000200756
0.00017279
0.000156204
0.0341225
0.000149734
0.0304115
0.000186574
0.000127064
0.020989
0.0486632
0.000146861
0.0443768
0.000156037
0.00020057
0.0700234
0.000170185
0.048308
0.00014981
0.0277705
0.0648424
0.000149041
0.0687046
0.0510133
0.00613782
0.00021762
0.0541419
0.00014782
0.000145648
0.000203128
0.000152806
0.000149022
0.0244524
0.000149277
0.000205077
0.000165392
0.027128
0.000149041
0.000200936
0.0661253
0.000330954
0.0285694
0.000148517
0.000135416
0.0001486
0.000153085
0.000181564
0.000182069
0.0230401
0.000166557
0.000149296
0.028206
0.0397134
0.000177038
0.000148609
0.0253358
0.000166784
0.000152917
0.0222881
0.000146076
0.0196569
0.000147801
0.000149365
0.00024076
0.000169672
0.0300515
0.0298711
0.0432759
0.000156468
0.0213047
0.000148375
0.0443228
0.000149392
0.000156205
0.0093014
0.0390996
0.0583647
0.000199099
0.000147956
0.000205607
0.0253495
0.00019468
0.000206684
0.000162184
0.000163066
0.000148883
0.000147828
0.000175526
0.000147818
0.0420174
0.000156167
0.000148631
0.000159928
0.000147839
0.000202545
0.000179146
0.000200465
0.000164504
0.000146597
0.000147207
0.0169734
0.0316622
0.000189344
0.000147864
0.000149211
0.0474812
0.000223541
0.000172517
0.000147948
0.000171738
0.0638799
0.000176207
0.000156115
0.000162789
0.00915138
0.0687129
0.000177574
0.0581644
0.000166229
0.0418615
0.000160176
0.000176207
0.000231904
0.000150621
0.000148399
0.000171338
0.0333456
0.000152436
0.000146005
0.0396486
0.0418664
0.000172426
0.000206246
0.000201229
0.000180282
0.000220902
0.000149617
0.000148681
0.000148609
0.060956
0.000174029
0.00015452
0.000149583
0.0485961
0.000175066
0.000203131
0.028949
0.0564311
0.0577459
0.0289781
0.00015974
0.0753363
0.000148622
0.000146576
0.000179261
0.000148826
0.0617677
0.000157945
0.000207597
0.00014651
0.000166843
0.00020695
0.000222929
0.000217631
0.000159257
0.000175977
0.00710446
0.0426648
0.00020056
0.000157484
0.000149428
0.000147312
0.01584
0.00017397
0.0230836
0.000157855
0.000152173
0.00020537
0.000199833
0.000150049
0.000149877
0.000167064
0.000231177
0.0622336
0.0662484
0.000169835
0.000318913
0.0584052
0.000152338
0.000176386
0.0530186
0.000156636
0.000205014
0.000149151
0.000237402
0.000149534
0.000170864
0.000154038
0.00014893
0.000219434
0.00015007
0.00049835
0.000146475
0.000200633
0.0255623
0.0598154
0.000157137
0.000176679
0.000149741
0.000169903
0.000148063
0.000170471
0.0326271
0.000157083
0.000156603
0.000148723
0.0642256
0.000146855
0.0183719
0.0651763
0.000191132
0.000149645
0.000357904
0.0305039
0.0547706
0.000204805
0.000165952
0.000174534
0.0002151
0.000167134
0.000197802
0.000161361
0.0228341
0.000199943
0.000147198
0.00015813
0.00020614
0.0471041
0.0247233
0.000147251
0.000173029
0.000148343
0.000212161
0.000221633
0.00015875
0.000175641
0.000200587
0.000148308
0.000162575
0.000198523
0.0099977
0.000148507
0.000148903
0.000157292
0.0617124
0.0118233
0.000175594
0.000148039
0.000222837
0.000220844
0.000197513
0.000175289
0.060149
0.0246991
0.000159031
0.000167061
0.028303
0.000147819
0.000148601
0.000198107
0.000173863
0.000146929
0.000149514
0.000148017
0.00014788
0.000166049
0.000148557
0.0535188
0.000173923
0.000148519
0.0468796
0.0448378
0.000149366
0.000201082
0.0246152
0.000150849
0.000149444
0.000175023
0.0279798
0.0761422
0.00018201
0.000148353
0.0725385
0.00014857
0.000183541
0.0295367
0.00828994
0.000154201
0.0154074
0.000934228
0.0469094
0.000200533
0.000162615
0.0631943
0.0538344
0.0169692
0.000150123
0.0243174
0.00803461
0.000211201
0.000206814
0.000152365
0.000181281
0.000157893
0.02255
0.000163447
0.000147026
0.000144963
0.000158329
0.0435445
0.000375467
0.000147748
0.057214
0.000157937
0.000163037
0.00015477
0.0238411
0.000222936
0.000205679
0.00015364
0.000155921
0.0462477
0.000149459
0.000224857
0.000158938
0.000174929
0.000158515
0.000148362
0.000148493
0.00019719
0.000197885
0.000200319
0.00235428
0.0472421
0.000152555
0.0631666
0.000219142
0.000146943
0.0103742
0.000190897
0.0298543
0.000157814
0.00018826
7.9712e-05
0.01923
0.000195393
0.0252026
0.000151236
0.000101425
0.00665437
0.000163023
0.0277172
0.000165247
0.0682897
0.000166697
0.000173687
0.000199652
0.000209992
0.000148692
0.000158302
0.000174877
0.000167107
0.00014798
0.000175937
0.0712362
0.000148596
0.000176357
0.0120518
0.000154478
0.00145544
0.000176268
0.0792784
0.000157318
0.000185136
0.00031064
0.000225018
0.000174928
0.0210681
0.025596
0.000348621
0.000148333
0.000196634
0.000165234
0.000187878
0.000147877
0.00719287
0.0745811
0.0233936
0.000155866
0.000200243
9.16035e-05
0.0129182
0.000145727
0.0180663
0.000216726
0.0330702
0.000161982
0.0267259
0.00014861
0.00014875
0.0232863
9.66017e-05
0.000148427
0.000155159
0.000176774
0.000146795
0.0721534
0.000181618
0.000190439
0.000158229
0.000151276
0.000149324
0.0105814
0.000148476
0.000149249
0.0381653
0.0702232
0.000155571
0.000211344
0.000148641
0.000148545
0.000155028
0.000200686
0.00017618
0.000148071
0.000152094
0.000189017
0.000153508
0.0791318
0.000148428
0.000160956
0.0549605
0.000160812
0.000145292
0.000148744
0.000158069
0.00015061
0.000321022
0.0450278
0.000166193
0.000604865
0.000155159
0.000148326
0.0613979
0.000101178
0.000160154
0.000148736
0.0515124
0.000159591
0.00186075
0.000148876
0.000163161
0.000196314
0.000168486
0.0579123
0.000103833
0.0159901
0.000152721
0.000201689
0.000148323
0.0472485
0.000176107
0.000199785
0.00016506
0.000153316
0.000160846
0.000179749
0.00014851
0.0135423
0.0592795
0.080027
0.00725281
0.0435982
0.0328513
0.000224976
0.000156638
0.00014934
0.00328573
0.000148414
0.000147948
0.000157803
0.0643292
0.000154856
0.0001506
0.000173489
0.000173857
0.000148479
0.0810451
0.000147932
0.0658177
0.000290028
0.000147804
0.000153926
0.000220719
0.0117101
0.000146945
0.0564447
0.0143383
0.000147373
0.0553106
0.000238136
0.000200359
0.000152671
0.0366045
0.0293507
0.00014763
0.00023566
0.000149242
0.000147957
0.0277845
0.0691072
0.000169421
0.000175567
0.000148429
0.000182152
0.0658229
0.0608757
0.000148372
0.0234167
0.000148036
0.000149311
0.000175141
0.000161164
0.000145703
0.000152909
0.0572238
0.000207439
0.0536381
0.000154259
0.00014833
0.0618978
0.000149148
0.000197533
0.000160673
0.000166754
0.000165649
0.0553015
0.0292777
0.000157715
0.0168606
0.000153669
0.000180748
0.051992
0.0330127
0.000149178
0.00014835
0.000163127
0.0548873
0.000242498
0.000181774
0.0069407
0.000161364
0.000165862
0.0400313
0.0833967
0.000181843
0.0639745
0.000210503
0.0494779
0.000150641
0.000254987
0.00890794
0.000148461
0.0106098
0.0864624
0.000159764
0.000176149
0.000148933
0.000511005
0.000175443
0.0515117
0.000148503
0.000149021
0.000155391
0.000173393
0.000148492
0.0612845
0.00014898
0.000209536
0.000152704
0.00018837
0.000148865
0.000148503
0.000167511
0.0236329
0.000174583
0.0562556
0.000163189
0.000146875
0.000147681
0.000179495
0.000152045
0.000188764
0.000155658
0.000159869
0.000167544
0.000149158
0.0206163
0.000149668
0.00019519
0.0193546
0.0572012
0.000156455
0.043102
0.000172895
0.000203527
0.0860742
0.000148784
0.0850311
0.000158002
0.000163873
0.00922546
0.000452209
0.00014711
0.000188222
0.00014995
0.047786
0.0253986
0.000149697
0.000167019
0.073592
0.000149738
0.000149659
0.000186901
0.0174095
0.0279156
0.000149457
0.000199323
0.000153067
0.000148533
3.64646e-05
0.000199881
0.000193759
0.000145463
0.000198479
0.000163805
0.000183397
0.000150601
0.000151887
0.000174195
0.000155194
0.000200836
0.000176949
0.000176801
0.000178418
0.000420327
0.000239597
0.0622599
0.0461618
0.000204711
0.0366992
0.000163403
0.0315978
0.000201238
0.000148474
0.000165241
0.000225421
0.000157391
0.000147795
0.000147744
0.000195206
0.0225042
0.000161177
0.062175
0.000146911
0.0322549
0.000178208
0.0233991
0.000187773
0.000157501
0.000154982
0.0274451
0.000193976
0.000163059
7.84084e-05
0.000150911
0.00251009
0.000195442
0.000210038
0.000164286
0.000269837
0.000148602
0.000149609
0.000151917
0.000148548
0.0520281
0.000147872
3.2736e-05
0.0604714
0.000188324
0.0625972
0.0281153
0.000211404
0.000207689
0.000156686
0.000149134
0.000148822
0.000146089
0.000147637
0.000148843
0.000181237
0.000201525
0.000164514
0.0138507
0.000151831
0.0515819
0.000149953
0.0225866
0.000168393
0.00014988
0.00014882
0.0573612
0.000157857
0.0334808
0.0864457
0.000175242
0.000183967
0.000147218
0.0687643
0.000153552
0.000154952
0.000268745
0.000149159
0.000150586
0.000148486
0.000176048
0.0241277
0.000160928
0.000164782
0.000221566
0.057208
0.000157083
0.000156336
0.0513614
0.000146036
0.050341
0.000149288
0.00015359
0.0164434
0.000189383
0.000199966
0.000183749
0.000174853
0.000149473
0.000149954
0.000182017
0.000150813
0.000149527
0.000161968
0.000216086
0.000147768
0.0001999
0.000790693
0.0254875
0.000183566
0.0445456
0.000160369
0.000149103
0.000194098
0.000147003
0.000158436
0.0592586
0.0467987
0.0845849
0.0526132
0.00014988
0.00014956
0.000169066
0.000151574
0.000147675
0.0285021
0.000213039
0.0292817
0.000195538
0.000189714
0.000148595
0.000146913
0.00316381
0.000190385
0.000154191
0.000149657
0.000200054
0.000205715
0.0638248
0.000149576
0.000148936
0.0207152
0.000150546
0.000165454
0.000146801
0.0657404
0.000148122
0.021766
0.000148481
0.0001883
0.000170787
0.000168672
0.000164631
0.0001486
0.000155113
0.000148021
9.20836e-05
0.000150571
0.0290442
0.000151158
0.034987
0.0621559
0.000162901
0.000147883
0.0134656
0.0460445
0.000158301
0.000189405
0.000148805
0.0197776
0.000148599
0.000225597
0.000148384
0.000147998
0.0286204
0.000165897
0.000148678
0.000165906
0.0637194
0.000421034
0.0756905
0.000147223
0.0393403
0.000148469
0.000147814
0.000149607
0.000144568
0.000149526
0.0791261
0.0628739
0.000150112
0.000148953
0.00016988
0.000147851
0.0169422
0.000195187
0.0322488
0.064602
0.000155024
0.000200689
0.000148415
0.000172542
0.00017513
0.000148679
0.000149349
0.000524514
0.0270973
0.000183394
0.00839626
0.000182694
0.000148626
0.000170568
0.000189799
0.02039
0.000164982
0.00831149
0.000190971
0.000149454
0.0569686
0.0551197
0.0294598
0.00864031
0.026064
0.000152662
0.000174216
0.000149253
0.00170643
0.000156889
0.000147046
0.0774556
0.000151591
0.000147888
0.000149184
0.000151291
0.0626001
0.000224631
0.000147286
0.00017103
0.028441
0.000152096
0.00766412
0.000151672
0.000188113
0.0678507
0.000148581
0.000169712
0.000159862
0.000163984
0.000486315
0.000151575
0.000238734
0.000184807
0.0676781
0.000150414
0.0271317
0.000162565
0.0396818
0.0215279
0.0220806
0.000175379
0.000148675
0.000149952
0.000149737
0.000172371
0.000148764
0.0599715
0.000158594
0.00015657
0.000156919
0.000152559
0.000147161
0.000160047
0.000158047
0.000153899
0.000157214
0.0835483
0.000108231
0.000162199
0.000169417
0.077102
0.000150688
0.0466014
0.00014607
0.000161027
0.000150592
0.000148413
0.000166627
0.000148293
0.00014724
0.000162526
0.000148731
0.000212638
0.000151632
0.00937392
0.00278048
0.000215981
0.000224742
0.000149518
0.0591003
0.000204596
0.000149473
0.000157851
0.00015039
0.0500638
0.000151648
0.00016254
0.00966143
0.00990418
0.000177336
0.000149557
0.0556596
0.00686804
0.0299864
0.000159767
0.000146827
0.000148308
0.000182088
0.000148637
0.0250423
0.000198015
0.000149275
0.000219958
0.000215693
0.000148378
0.0845643
0.0197606
0.000211805
0.000151411
0.0549661
0.000181071
0.00014805
0.0239727
0.000156142
0.000148132
0.000147932
0.000165696
0.000172581
0.0563394
0.0476166
0.000173222
0.0578569
0.000167108
0.000148424
0.000168125
0.000147765
0.00137654
0.000148516
0.000148187
0.000153176
0.000150716
0.0613364
0.022536
0.000236068
0.0284754
0.0848577
0.00015714
0.00014866
0.000151626
0.000239996
0.000148451
0.00014859
0.000169024
0.0252259
0.000158925
0.000146011
0.000165455
0.000164925
0.000200224
0.00719247
0.000147392
0.000145588
0.00015401
0.0127914
0.000161905
0.0656754
0.00015184
0.000149015
0.000148196
0.000147932
0.000154019
0.00021123
0.0498267
0.0560619
0.000156896
0.00014833
0.00152015
0.000150641
0.0359531
0.0362423
0.000158157
0.0267381
0.0509518
0.0400852
0.000180638
0.000164777
0.0438825
0.000163047
0.000160305
0.000169394
0.000204384
0.000150627
0.000488114
0.00014845
0.0546902
0.0212528
0.000146097
0.000152855
0.000166898
0.000231714
0.00016598
0.000148865
0.000160952
0.000151602
0.000157902
0.000235455
0.000149028
0.049229
0.0241557
0.000148499
0.000163863
0.000172216
0.0001485
0.0456758
0.0120451
0.0610468
0.0343858
0.000148213
0.00015435
0.0001572
0.000149668
0.000237183
0.000166407
0.000149684
0.000183058
0.000154874
0.0463492
0.000170971
0.0238623
0.000151469
0.000152107
0.000163809
0.000190044
0.000183577
0.000148276
0.00948785
0.0432253
0.0268485
0.0370925
0.0579546
0.0562995
0.0376749
0.000148254
0.000148313
0.000149227
0.000239071
0.000175633
0.000183181
0.0136697
0.000150179
0.000145706
0.000148434
0.000232554
0.000145945
0.000158857
0.000152727
0.0360447
0.000151236
0.000147036
0.000148537
0.000148419
0.000149003
0.000159991
0.000233975
0.000160403
0.0657532
0.000148286
0.000147966
0.0639622
0.0651588
0.0212202
0.0261611
0.00016364
0.0301891
0.000146779
0.000169116
0.000152083
0.000148506
0.000155461
0.0258493
0.000152539
0.000190425
0.00309041
0.000150281
0.000148342
0.00015518
0.000211591
0.000149798
0.036036
0.000149147
0.000231883
0.000148775
0.00015007
0.000158507
0.000171025
0.000149105
0.000103488
0.0406515
0.000214624
0.0690748
0.000148601
0.0241327
0.000336576
0.000148327
0.0213556
0.000149642
0.000161969
0.000149424
0.000150075
0.00014764
0.000148517
0.000150291
0.0001558
0.000183474
0.000149768
0.000148603
0.000165807
0.000146999
0.0845553
0.000148775
0.000164054
0.0001671
0.0334694
0.00508379
0.000148928
0.000212183
0.00014675
0.000164161
0.000172799
0.0219902
0.000176419
0.000149801
0.000197706
0.000167809
0.000189192
5.1123e-05
0.000160905
0.000198154
0.000181657
0.000184282
0.000151138
0.000147912
0.025561
0.0114587
0.000154616
0.000148027
0.00829173
0.000146965
0.000171945
0.000147766
0.000176702
0.0183161
0.000145214
0.0155681
0.000157522
0.000149068
0.000207326
0.000147036
0.000161507
0.0361576
0.000170074
0.027771
0.000147609
0.000149747
0.000162292
0.000149471
0.000149608
0.00016086
0.000161801
0.000183465
0.000178178
0.000149005
0.00016542
0.000147759
0.000148371
0.000149396
0.000148343
0.000547635
0.000148573
0.000151762
0.000206112
0.000146921
0.000147948
0.0634475
0.000149632
0.0116231
0.000152908
0.0634419
0.000221878
0.000164344
0.00208622
0.000177611
0.00027869
0.000150527
0.000206829
0.000157701
0.000147822
0.000147838
0.000151719
0.000163454
0.000148342
0.000171036
0.000147336
0.000152087
0.00680013
0.0243225
0.000240106
0.000155297
0.000162821
0.0354627
0.0289173
0.000149105
0.000158551
0.000329988
0.000149838
0.000168396
0.00109749
0.0561667
0.00015977
0.000173723
0.000151046
0.000218525
0.000149892
0.000161121
0.0252767
0.00014931
0.000147898
0.0839256
0.000170752
0.000239419
0.0702347
0.000195308
0.000150072
0.000147358
0.000150191
0.0312655
0.00695957
0.0561553
0.000174426
0.000148573
0.0407962
0.000148674
0.000200745
0.000155355
0.00015348
0.000172574
0.000148352
0.0859814
0.0854912
0.000147234
0.000183006
0.00017648
0.00288473
0.000171692
0.000181671
0.000238045
0.000167047
9.82155e-05
0.00018246
0.000148691
0.000168261
0.000167938
0.0404283
0.000148189
0.00559037
0.000172583
0.00018313
0.000149804
0.0826517
0.000157953
0.000152431
0.000147711
0.000166519
0.000166012
0.000166221
0.000148796
0.000150805
0.000171904
0.00824708
0.000175543
0.000148991
0.000150533
0.000168239
0.000215357
0.000149098
0.000180008
0.0218405
0.000167565
0.0587806
0.000172084
0.0247904
0.000238526
0.000148276
0.00161395
0.000149551
0.000154734
0.000165618
0.000166468
0.000189099
0.000176052
0.000165733
0.000167053
0.000162452
0.000153354
0.000145878
0.00016956
0.000157017
0.000157388
0.00355404
0.000156386
0.000159192
0.000147749
0.0259477
0.00017874
0.000148992
0.000155614
0.00015167
0.0278524
0.000198155
0.000165647
0.0538926
0.000599494
0.000376596
0.000189092
0.00016343
0.000147392
0.000184927
0.000148547
0.000155547
0.0240423
0.0453462
0.000244738
0.000649753
0.000148749
0.0241725
0.000147368
0.000189501
0.000154614
0.0258409
0.0791618
0.000158563
0.000148016
0.000237711
0.000162055
0.000148149
0.03723
0.000148479
0.000152542
0.000157072
0.000149396
0.000161856
0.000151812
0.000148587
0.000163132
0.000252419
0.000171056
0.000175622
0.000148134
0.0289203
0.0461043
0.000147899
0.000161736
0.000154536
0.000157288
0.0591583
0.00014788
0.000150747
0.000156727
0.0447709
0.000148187
0.000149155
0.000169685
0.0284467
0.00014778
0.000159666
0.000161631
0.00257859
0.000171641
0.000169283
0.000218262
0.000148495
0.000172264
0.000146113
0.0269029
0.000160944
0.00014842
0.000159895
0.000186439
0.000148926
0.00014974
0.000201068
0.0509092
0.000150601
0.0282616
0.000149202
0.000146079
0.000181231
0.000148179
0.000148583
0.0855136
0.000149812
0.000170795
0.000206813
0.0524923
0.00194442
0.000148386
0.000152733
0.000156514
0.000148412
0.000148641
0.000148594
0.0134356
0.000149262
9.52095e-05
0.000197689
0.000147882
0.000147138
0.000161616
0.000197686
0.000174025
0.00016643
0.000176616
0.000152971
0.0534452
0.000175714
0.000164097
0.000172046
0.000171584
0.00018743
0.0251363
0.000171023
0.0306695
0.0333441
0.0229994
0.000155565
0.000148441
0.000167298
0.000159318
0.000147932
0.000150652
0.00017777
0.000149594
0.000149896
0.000148297
0.000145516
0.000153737
0.000149208
0.0214602
0.000147995
0.0445288
0.000148466
0.000173344
0.000150765
0.000197789
0.000173058
0.000148694
0.0637405
0.000152664
0.000149472
0.000171205
0.000147657
0.000158861
0.00014881
0.0506241
0.000153634
0.000171146
0.000170426
0.0615336
0.000157939
9.89595e-05
0.00331455
0.000169358
0.00014946
0.000152055
0.000175317
0.000180253
0.0242663
0.000147026
0.0320683
0.000149069
0.000169389
0.0815366
0.000165184
0.0226815
0.000155117
0.000164319
0.000154217
0.0852561
0.000161768
0.000148854
0.000168509
0.000198452
0.000152478
0.000148313
0.000148872
0.0637189
0.000149661
0.000157264
0.0664597
0.00015547
0.000148295
0.000171229
0.000154721
0.0511349
0.000145722
0.000148415
0.000147104
0.000154873
0.000150403
0.00014949
0.00018273
0.0618464
0.000148176
0.000148637
0.050482
0.000150338
0.0159875
0.000154503
0.0797855
0.000147782
0.000153474
0.000146748
0.0317506
0.0689544
0.000159186
0.000168946
0.000155599
0.000148279
0.000148721
0.0511245
0.000148816
0.000189548
0.000147499
0.000173845
0.00014922
0.0633474
0.000146957
0.000175022
0.000147759
0.000220202
0.000314474
0.000147449
0.000166094
0.0869333
0.000184097
0.0325584
0.0201997
0.000203074
0.000151924
0.00016544
0.00018939
0.0151781
0.000150204
0.00017075
0.000156649
0.00014853
0.0286182
0.0371342
0.000183935
0.000203968
0.000238478
0.00016258
0.0617631
0.000147869
0.000147358
0.000187171
0.0852873
0.000213545
0.000199341
0.00483176
0.000146804
0.0840006
0.0362061
0.0807514
0.000149297
0.0307642
0.0447568
0.000330144
0.000392191
0.0457631
0.000190037
0.000161542
0.000202449
0.000154469
0.000148446
0.00126325
0.000190535
0.000145755
0.0345268
0.000149214
0.000158484
0.00017235
0.000155604
0.000871968
0.000160321
0.012049
0.000174815
0.00015497
0.0251948
0.0705596
0.000200174
0.000149893
0.000154613
0.000182726
0.000168325
0.000146852
0.000173047
0.000167242
0.000196917
0.000148366
0.00020744
0.000153642
0.000168477
0.0423702
7.98299e-05
0.000151362
0.000184657
0.0326867
0.000149299
0.000151056
0.0779995
0.00022388
0.000154208
0.000155204
0.000148556
0.000174144
0.000157239
0.0508006
0.000188718
0.000150308
0.000149442
0.000166134
0.000159258
0.000178477
0.0282873
0.000147702
0.000148202
0.000158232
0.000149249
0.000154329
0.000151314
0.000151383
0.000154755
0.000147965
0.000154222
0.00014932
0.000176151
0.0127152
0.000149742
0.0708001
0.0160162
0.000146128
0.000182153
0.000186312
0.000178786
0.000150823
0.000190585
0.000158859
0.000168555
0.000161942
0.000152234
0.000149342
0.0239381
0.000161248
0.0277922
0.000150783
0.000148455
0.000148112
0.000172851
0.000148108
0.000175846
0.000182216
0.000316829
0.000147544
0.000152744
0.0100992
0.0452522
0.000146745
0.00019425
0.000219854
0.0122427
0.00131893
0.000150322
0.000149757
0.000193039
0.00366329
0.0189488
0.000170927
0.000154859
0.000149499
0.000148058
0.000164445
0.000149265
0.000149096
0.000198778
0.000149752
0.00016954
0.000147739
0.0708737
0.0714769
0.0441179
0.0409513
0.0421883
0.000149088
0.00014892
0.0834784
0.000147232
0.000147565
0.000146106
0.000182995
0.0707587
0.0255943
0.000156282
0.00014983
0.000151942
0.000162893
0.0286415
0.000148125
0.0218014
0.072477
0.000149216
0.000149125
0.0357589
0.00018849
0.000153378
0.000148301
0.0751103
0.0431832
0.000149004
0.000213612
0.000149669
0.0471964
0.000343893
0.000154084
0.0262232
0.0158699
0.0585624
0.000147579
0.000150156
0.000149608
0.000149898
0.0665447
0.000147936
0.00019602
0.000145563
0.0223919
0.000151203
0.000173809
3.76383e-05
0.000173524
0.0818736
0.0510231
0.000145505
0.0001572
0.000157336
0.000203997
0.0589562
0.000145355
0.0247238
0.000160621
0.000173139
0.000150841
0.00014752
0.000221449
0.000168265
0.0186885
0.000149263
0.000173695
0.000150917
0.000197884
0.000154819
0.0602795
0.0186102
0.000201675
0.000193715
0.000148296
0.000153021
0.000188968
0.000181766
0.0607064
0.0865511
0.000148916
0.0259622
0.000170251
0.0713203
0.000159548
0.000170215
0.00016893
0.000149308
0.0653933
0.000148419
0.000164768
0.031872
0.0696341
0.000591581
0.0691503
0.000157932
0.000175412
0.000147152
0.0713323
0.000156974
0.0385787
0.000147095
0.0572578
0.000145263
0.000148002
0.000164217
0.00015858
0.000159891
0.000148483
0.0382385
0.000174264
0.000147963
0.000165988
0.0325509
0.000234456
0.000148554
0.055717
0.00015398
0.000167008
0.000165453
0.000145897
0.000177801
0.00014797
0.0227452
0.000172706
0.000159549
0.000148301
0.000227308
0.000169517
0.000147101
0.0541417
0.00791105
0.00022232
0.000147047
0.00163971
0.000148885
0.000190603
0.000160196
0.000180825
0.0118649
0.03695
0.000159561
0.0692352
0.000169638
0.000157744
0.00014712
0.0648415
0.000179045
0.000189244
0.000165714
0.000149589
0.0277904
0.000182942
0.000235162
0.000221895
0.0863329
0.0385119
0.00518106
0.0326553
0.000158006
0.000158729
0.000148595
0.000149242
0.000145501
0.000207771
0.000158606
0.00015989
0.0616725
0.000147893
0.000147005
0.000172702
0.000198887
0.00015998
0.00014722
0.063522
0.000154317
0.000176342
0.000149508
0.022531
0.000157207
0.0781631
0.0001665
0.000165575
0.000171349
0.000148552
0.0104407
0.000103255
0.000179796
0.000148835
0.000147256
0.0234806
0.0440535
0.0469595
0.000148232
0.000179994
0.000556821
0.000149285
0.000147965
0.00014911
0.0692063
0.000171295
0.00016317
0.00016026
0.000158018
0.0570464
0.000179031
0.000222632
0.000158885
0.000164559
0.0001455
0.000182779
0.000172991
0.00014838
0.0495311
0.0531412
0.0610692
0.0498499
0.0409834
0.0839206
0.0845442
0.000151463
0.000148426
0.0708765
0.0372203
0.0337817
0.000148951
0.000170377
0.000148577
0.000148153
0.0167215
0.0712643
0.000181811
0.000148012
0.000119785
0.00019033
0.000174282
0.0367694
0.00246017
0.000144688
0.000147291
0.0599001
0.00945907
0.000223569
0.00016538
0.000171561
0.000149282
0.000147301
0.000168229
0.000172128
0.000153987
0.000171544
0.00015995
0.000154471
0.000239432
0.0353914
0.000159266
0.000173024
0.044492
0.000226365
0.000148686
0.000192658
0.000226886
0.0275129
0.000169224
0.000149488
0.000161537
0.000157365
0.000158497
0.000145902
0.000158996
0.000164142
0.000175302
0.000200499
0.000149496
0.000151794
0.0380441
0.0532931
0.0680579
0.000118547
0.000197505
0.000145049
0.000148499
0.000162045
0.000146988
0.0863236
0.000148464
0.00014981
0.000146426
0.0492007
0.0188647
0.000150065
0.000182132
0.000158537
0.0001617
0.000161462
0.000159764
0.000170857
0.000166507
0.0207647
0.000157932
0.0391597
0.000167213
0.0671956
0.000160431
0.000147421
0.000147038
0.000191142
0.000200893
0.0001468
0.000162992
0.000160774
0.000175618
0.0383369
0.0236185
0.0443582
0.000149809
0.000631671
0.000158733
0.000164536
0.000148286
0.000179235
0.000152742
0.0298215
0.000286665
0.000165937
0.000148496
0.0525891
0.000155829
0.0345531
0.0360944
0.000241015
0.000153645
0.000195935
0.0505026
0.000489596
0.049817
0.000176808
0.000148524
0.000167235
0.000148306
0.0828415
0.000154023
0.000162411
7.26513e-05
0.0651078
0.000148309
0.000148318
0.0406331
0.000169446
0.0803858
0.000158803
0.0001483
0.000170658
0.000216864
0.000162439
0.023582
0.00016443
0.00111178
0.000155548
0.000149607
0.000148233
0.000213223
0.000150632
0.000181756
0.000148634
0.000148788
0.000208406
0.000158159
0.000149298
0.0001482
0.000164407
0.000234064
0.000173443
0.000168576
0.000155301
0.000177728
0.000148771
0.000190388
0.000162232
0.000171979
0.000166674
0.000161
0.000174155
0.000163145
0.000148175
0.000183596
0.0476661
0.0350938
0.000149557
0.000616731
0.0342878
0.000148257
0.000150618
0.000224203
0.039011
0.000156246
0.0340897
0.000243846
0.000149573
0.000189331
0.000145443
0.000157528
0.000178465
0.0337019
0.000202512
0.000231159
0.000128942
0.0489723
0.0516596
0.000153574
0.0445329
0.000148395
0.00998925
0.0485583
0.000148621
0.000148437
0.0341769
0.000149049
0.000148533
0.000204565
0.0615829
0.000216253
0.000158248
0.0437307
0.000148589
0.0534983
0.0388236
0.000149207
0.000667904
0.0103338
0.0427405
0.0366501
0.039909
0.0331206
0.000147342
0.000151602
0.000179146
0.00018233
0.000148505
0.00022286
0.000148333
0.0409669
0.000222797
0.000164218
0.000239179
0.0419778
0.000227641
0.000236685
0.000165606
0.0187252
0.000246361
0.000156807
0.000145701
0.0150213
0.000161377
0.000147134
0.0817863
0.000148241
0.0188059
0.000149161
0.0698337
0.000157226
0.000148164
0.00610443
0.000156042
0.000160562
0.0307711
0.076407
0.000518541
0.000160366
0.000175458
0.000151896
0.000171507
0.000197759
0.000171814
0.000149348
0.000306313
0.000180081
0.000161718
0.031996
0.000170486
0.000162286
0.000197685
0.000182939
0.000174613
0.000148138
0.000206006
0.000147067
0.000197822
0.000214119
0.0396299
0.000147145
0.000168164
0.0249969
0.000153008
0.000178139
0.000164487
0.00017013
0.0758076
0.000180338
0.000151969
0.0263968
0.000147187
0.0518629
0.000148779
0.000152151
0.000197743
0.0480401
0.000161861
0.000188662
0.000216593
0.000164377
0.000149774
0.000177042
0.000171671
0.0616779
0.000155298
0.00504351
0.000201123
0.000164436
0.00016131
0.000177638
0.000166307
0.000167641
0.000180447
0.000162609
0.000154338
0.000149789
0.00077512
0.000148501
0.000160125
0.000145497
0.000195437
0.000160746
0.000180644
0.0417994
0.000151242
0.000215742
0.000144689
0.000149207
0.000149215
0.000149326
0.000158986
0.000147666
0.000189762
0.0245237
0.000180752
0.00017377
0.000156544
0.000148924
9.38977e-05
0.000148704
0.044552
0.0460847
0.0277324
0.000203999
0.000163882
0.000159794
0.000149142
0.000158112
0.000170366
0.000169009
0.046595
0.000180872
0.0571214
0.000205236
0.000149351
0.000146905
0.0347068
0.000148251
0.000162108
0.000165891
0.000239019
0.000153312
0.0655316
0.000149092
0.000155963
0.000148586
0.0001506
0.000176944
0.000195734
0.000149671
0.00016569
0.000159732
0.000174536
0.000180846
0.000213893
0.000198737
0.000209657
0.000202821
0.000158676
0.000151669
0.000180855
0.0473902
0.0816126
0.054344
0.000164709
0.0318682
0.000195906
0.000151662
0.00014796
0.000183493
0.000148913
0.000165709
0.0220688
0.000148078
0.00014778
0.000279731
0.0180498
0.000176396
0.00045412
0.000149051
0.0270985
0.000168933
0.068505
0.000157299
0.000148784
0.0542644
0.000165276
0.000148575
0.000171649
0.000149662
0.000189222
0.000159999
0.000164444
0.0843509
0.000159588
0.0588565
0.000147714
0.05183
0.00014912
0.000157132
0.00015039
0.000171138
0.000148878
0.000166141
0.0519762
0.000275273
0.000174611
0.000161224
0.000168346
0.000148198
0.000149118
0.000152424
0.00721433
0.000156844
0.0719232
0.0339918
0.000188063
0.0001494
0.000191362
0.00020374
0.000199682
0.000158339
0.0376751
0.000148347
0.000145019
0.000148201
0.0102424
0.000149223
0.000148535
0.0538955
0.000148099
0.000199984
0.000171531
0.000148204
0.0612787
0.000161303
0.0692376
0.000148424
0.00495336
0.000151357
0.000166787
0.0281745
0.000182045
0.000147937
0.000159943
0.0489835
0.000165517
0.000192742
0.000163264
0.00015681
0.00018636
0.000158316
0.000150358
0.00686673
0.000160536
0.000161265
0.000205042
0.000148214
0.000147656
0.000149196
0.000164447
0.000149137
0.000155314
0.0637923
0.0151904
0.000171136
0.00937791
0.000183183
0.000167851
0.0667066
0.0489765
0.000150096
0.0157974
0.0565971
0.0359768
0.00159429
0.000162205
0.0465431
0.0564673
0.0450427
0.00162549
0.0818634
0.000162903
0.000169521
0.000157858
0.000158322
0.000149662
0.000302656
0.000149893
0.0182881
0.000174079
0.00019722
0.000145246
0.000186024
0.000163714
0.000152135
0.00014995
0.000148681
0.000173523
0.000153908
0.000150357
0.000172392
0.0550949
0.000154815
0.000191196
0.000146853
0.000173438
0.000169262
0.00014927
0.00015634
0.000147666
0.0701999
0.0641576
0.000204669
0.00522928
0.000161277
0.000188112
0.000148819
0.000172727
0.000148762
0.00014998
0.000149523
0.062413
0.000146983
0.000176095
0.00024463
0.000157582
0.000163484
0.000148129
0.0662698
0.00020544
0.0400772
0.0333373
0.000200254
0.000231013
0.0317452
0.000237205
8.48592e-05
0.0163706
0.000174036
0.000159268
0.00239601