/*--------------------------------*- C++ -*----------------------------------*\
| =========                 |                                                 |
| \\      /  F ield         | OpenFOAM: The Open Source CFD Toolbox           |
|  \\    /   O peration     | Version:  v2012                                 |
|   \\  /    A nd           | Website:  www.openfoam.com                      |
|    \\/     M anipulation  |                                                 |
\*---------------------------------------------------------------------------*/
FoamFile
{
    version     2.0;
    format      ascii;
    class       volVectorField;
    location    "750";
    object      U;
}
// * * * * * * * * * * * * * * * * * * * * * * * * * * * * * * * * * * * * * //

dimensions      [0 1 -1 0 0 0 0];


internalField   nonuniform List<vector> 
13851
(
(1.14903 0.0456211 0)
(1.07545 -0.0257804 0)
(1.07382 -0.0247047 0)
(-0.189001 -0.0151252 -5.8321e-20)
(1.00209 -0.000471393 -1.26544e-21)
(1.08538 -0.0406219 1.90843e-20)
(1.06283 0.0123937 0)
(1.01376 -0.000813552 0)
(0.230967 0.0350817 -2.24415e-20)
(0.991226 -0.00884594 -1.4066e-20)
(1.16545 -0.105581 0)
(1.00138 -0.00883494 -3.61215e-21)
(0.980904 -0.0212281 0)
(0.0385661 0.0129284 0)
(1.10873 0.00759833 2.04809e-22)
(1.09821 0.06398 3.2013e-21)
(-0.308135 -0.0021774 6.13101e-20)
(1.03713 -0.0205317 0)
(1.21187 0.0272843 0)
(1.15008 0.0438389 0)
(1.12084 0.0010601 2.39798e-20)
(1.04055 -0.0946243 0)
(0.516775 -0.255275 -8.87433e-20)
(1.00007 -0.000213703 0)
(1.12332 -0.00974345 0)
(1.09686 0.0471563 -1.61099e-20)
(1.13326 0.076885 -4.74553e-20)
(1.0895 0.0685105 9.14922e-20)
(0.372721 0.0420148 0)
(1.02162 -0.0128833 0)
(-0.0924126 -0.0117999 -1.52075e-19)
(1.06302 0.0116675 -1.02245e-20)
(1.14176 0.0480628 -6.41652e-20)
(0.30482 0.0523789 4.1657e-20)
(1.13369 -0.0889954 1.09995e-20)
(0.407272 0.0435141 0)
(1.00004 -0.000192159 0)
(1.14122 -0.147101 -9.60511e-20)
(-0.0194031 0.020192 -2.86495e-20)
(1.00732 -0.0401458 0)
(0.152267 0.0448118 -1.57638e-20)
(0.408609 0.0460003 0)
(-0.231368 -0.00316047 0)
(1.09492 -0.481236 -1.97974e-20)
(0.41959 0.0504836 0)
(1.01541 -0.0238222 0)
(1.02037 2.00743e-06 9.32356e-21)
(1.10854 0.0627374 -1.51033e-20)
(1.04786 -0.0595336 0)
(0.980555 -0.0202629 -7.16936e-21)
(-0.241713 0.00525668 3.78455e-20)
(0.973591 -0.0146361 0)
(1.09919 0.0635593 -1.17942e-20)
(1.08179 0.0226436 -2.11204e-20)
(0.0899918 0.0101496 -5.04316e-20)
(1.00625 -0.040447 5.58518e-21)
(1.14346 0.0486436 7.23479e-20)
(0.122833 0.039587 0)
(1.12054 0.0808847 3.76318e-20)
(-0.0602734 0.0119085 -5.26959e-21)
(1.00126 -0.00833874 0)
(1.12382 0.075072 -4.35381e-20)
(0.995508 -0.0036032 0)
(1.04828 -0.0618435 0)
(0.874044 -0.449916 5.73322e-21)
(0.855318 -0.469878 8.74439e-21)
(-0.0812622 0.00870053 -4.21159e-20)
(0.692957 -0.125886 -8.67565e-20)
(1.02158 -0.0414891 -4.19991e-22)
(-0.15998 -0.0111579 0)
(-0.160117 -0.00548401 -1.72444e-19)
(1.13118 0.00429037 3.34897e-20)
(0.994157 -0.0280023 0)
(-0.0648325 0.00991276 3.02895e-21)
(1.08911 0.0195753 -2.4199e-22)
(1.02203 -0.076822 -2.67415e-22)
(-0.284534 -0.00494048 -1.76734e-19)
(1.02248 -0.00659491 0)
(1.19441 -0.0135439 -3.18841e-20)
(1.00531 -0.0188016 0)
(1.02285 -0.0421292 1.55526e-21)
(1.27276 -0.0962871 -6.54884e-21)
(1.12997 -0.0906481 0)
(0.0306304 0.012884 4.70319e-20)
(-0.047121 0.0120719 -2.63264e-21)
(-0.115332 -0.0091983 7.51308e-20)
(1.04387 -0.0958808 -8.97311e-21)
(0.190243 0.00970886 -1.02369e-20)
(0.991957 -0.0130392 6.43322e-21)
(-0.0893156 -0.0105758 0)
(0.972325 -0.0138688 -1.6855e-20)
(1.06435 0.0113928 1.12792e-20)
(-0.226716 -0.00227336 0)
(-0.146265 -0.00839651 -8.41253e-20)
(-0.0600502 0.020772 -1.03242e-19)
(1.08043 -0.441773 -3.35902e-20)
(1.01037 -0.0254797 1.34213e-21)
(1.1038 0.0643223 0)
(-0.183311 0.00683336 6.66553e-20)
(1.21776 -0.202217 0)
(1.10482 0.0652787 0)
(0.81002 -0.119756 3.68548e-20)
(0.810291 -0.152744 0)
(0.990044 -0.0298983 -2.51374e-21)
(1.01913 -0.0235422 0)
(1.13608 -0.0110342 -8.85552e-20)
(1.01837 -0.0232597 0)
(-0.141573 -0.00743774 1.83422e-19)
(1.06445 0.0105391 0)
(1.03615 -0.0199351 0)
(1.02791 -0.133933 -2.54649e-21)
(1.01622 -0.024273 -8.25953e-22)
(1.2184 -0.023762 0)
(1.16625 -0.0506223 -3.48875e-20)
(1.13145 0.0538705 0)
(1.08101 0.0213487 0)
(1.01505 -0.00858095 4.14735e-21)
(1.01445 -0.000952332 -2.94031e-21)
(-0.20409 -0.0128938 1.24867e-19)
(-0.125854 -0.0147496 4.44792e-20)
(1.11113 -0.367132 0)
(1.0301 -0.0168518 7.64551e-22)
(1.01655 -0.0421311 -1.15429e-23)
(0.0526957 0.0248563 -1.79174e-20)
(1.19085 0.0411425 -7.84791e-20)
(0.614037 -0.206587 -1.39423e-20)
(1.01089 -0.0251565 1.89889e-21)
(1.13223 -0.156246 0)
(0.172574 0.042835 2.14232e-20)
(1.12062 0.0126656 4.01392e-21)
(1.03711 -0.0966154 2.99502e-21)
(1.1018 -0.0690371 1.66262e-20)
(1.28044 -0.170778 -1.21197e-20)
(0.289615 0.0501491 0)
(1.16994 -0.102721 3.39154e-20)
(-0.0709303 0.0215695 -2.73781e-20)
(0.706105 -0.11833 0)
(-0.129835 -0.00824269 7.06914e-20)
(0.847928 -0.091496 4.83223e-20)
(1.11637 0.0161379 0)
(1.26919 -0.100226 2.47357e-20)
(0.975289 -0.046676 2.78559e-21)
(0.991261 -0.0131742 0)
(0.742382 -0.31219 0)
(1.08338 0.0174029 6.95855e-20)
(1.00826 -0.0750364 0)
(1.02223 -0.00615431 -7.66171e-22)
(-0.137863 -0.00887943 8.51418e-20)
(0.229198 0.0280949 8.14596e-21)
(1.13737 -0.15862 0)
(1.10633 0.0648772 5.17549e-20)
(1.21722 -0.0268228 0)
(1.17034 -0.0497776 -1.72292e-22)
(1.20226 0.0269991 0)
(0.972637 -0.0246749 -9.68857e-21)
(0.983733 -0.0102828 -1.00889e-20)
(1.00137 -0.00696207 2.30289e-21)
(-0.0531254 0.0166059 0)
(1.11414 0.0127127 0)
(1.06576 0.00113682 0)
(1.00014 -0.000498374 0)
(0.386539 0.0420954 -3.06077e-20)
(1.13334 -0.0101046 6.80704e-20)
(1.10979 0.0622543 2.48525e-20)
(0.0415825 0.0111707 -1.73217e-20)
(0.317106 0.0463136 8.46255e-21)
(0.328416 0.0475698 -7.55443e-21)
(-0.225909 0.0070496 0)
(1.02869 -0.128987 0)
(0.636419 0.0592399 0)
(1.00095 -0.00768715 -3.47496e-21)
(1.01496 -0.00815939 7.68961e-22)
(1.1511 -0.0151751 0)
(1.00109 -0.000433769 0)
(-0.0339545 0.0253643 7.88477e-20)
(1.14276 0.0679924 1.27809e-20)
(1.11553 0.0656731 2.83663e-20)
(1.01557 -0.00811135 1.00697e-21)
(1.08727 0.0211976 1.52857e-20)
(1.1143 0.064783 -1.42469e-20)
(1.18702 0.0407332 6.24937e-20)
(1.10206 -0.46304 0)
(1.0343 -0.121916 0)
(1.11858 0.0130163 0)
(-0.245242 -0.00403168 1.74905e-19)
(0.237672 0.0283181 1.83344e-20)
(1.14079 0.049814 1.83047e-20)
(0.889132 -0.0691849 1.67751e-20)
(0.977129 -0.0253682 0)
(1.01991 -0.0175397 -1.2e-21)
(1.18403 0.0112725 -6.93258e-20)
(1.11485 0.011499 0)
(0.019922 0.00816643 0)
(1.0869 -0.0384971 -1.97111e-20)
(1.0101 -0.072904 1.93014e-21)
(1.10147 0.0639991 -2.88773e-20)
(1.13904 0.0492118 -6.73098e-22)
(1.04821 -0.0118726 5.11453e-21)
(1.04323 -0.0292768 -8.21029e-21)
(0.708919 -0.161429 0)
(1.26905 -0.113071 4.99533e-20)
(-0.00229016 0.0290226 4.66507e-20)
(0.106707 0.0424075 3.11443e-20)
(1.10715 0.00852981 2.09529e-20)
(0.938881 -0.716182 0)
(-0.0312857 0.0271105 0)
(0.93743 -0.0234043 0)
(1.10901 0.0234699 -7.66117e-21)
(0.225477 0.0360531 -2.15267e-22)
(1.07941 -0.0483563 1.02715e-20)
(1.09626 0.0636158 4.98361e-20)
(1.01588 -0.0412625 0)
(1.27296 -0.108771 -2.91766e-20)
(1.00012 -0.00218254 -4.7724e-21)
(1.13745 -0.0817387 7.81663e-21)
(1.02574 -0.0847442 1.22939e-21)
(0.981825 -0.0191134 0)
(1.15993 0.0546904 2.05802e-21)
(1.04745 -0.0207416 -8.98103e-21)
(0.152133 -0.537904 3.44969e-21)
(1.01559 -0.0076743 0)
(1.15374 0.0420171 -3.86612e-20)
(0.0115918 0.0101964 -5.4881e-20)
(-0.0551033 0.0223362 -7.36516e-20)
(0.901138 -0.078629 0)
(1.10884 0.0244737 0)
(1.00003 -0.00109005 -4.23692e-21)
(0.74542 -0.290859 0)
(1.00184 -0.0139909 0)
(1.13405 -0.0830246 -1.07547e-21)
(-0.0439014 -0.0377861 1.31858e-19)
(0.894824 -0.0698588 5.60095e-20)
(1.07928 -0.0461657 -8.80462e-21)
(0.996266 -0.00151604 1.47288e-20)
(0.0941824 0.040981 1.66095e-20)
(1.02233 -0.0126803 3.54873e-21)
(0.875943 -0.423717 0)
(0.0878162 0.0390572 0)
(1.21029 -0.196998 0)
(1.0001 -0.000476633 0)
(1.2977 -0.333255 -5.46258e-21)
(-0.0372185 0.0117957 8.89649e-20)
(0.449784 0.0537224 1.16403e-20)
(1.0972 0.0632546 -4.77758e-20)
(1.11059 -0.0164664 0)
(0.706022 -0.343751 -5.65075e-20)
(1.15982 0.0525189 -3.26834e-20)
(1.08689 0.0224553 -1.54747e-20)
(1.08332 -0.423872 -3.67589e-20)
(1.04734 -0.136057 -7.53865e-22)
(0.13089 0.00798703 -2.53701e-20)
(1.17565 0.0245999 9.05996e-20)
(1.01065 -0.000872854 1.32669e-21)
(1.08606 -0.0167906 0)
(1.10259 0.0649987 1.21824e-20)
(0.375282 0.0399661 2.26926e-20)
(0.268691 0.0129841 -1.56993e-20)
(1.01941 -0.0168025 0)
(0.589907 -0.202083 0)
(0.992845 -0.0138641 1.07242e-22)
(1.14356 0.0575165 -4.58481e-20)
(1.19425 0.0357583 -3.73876e-21)
(1.08797 -0.0162313 -1.70278e-20)
(1.13366 -0.00680396 -7.49548e-20)
(1.17884 0.0243908 -9.29773e-20)
(0.999964 -0.0260236 -4.68598e-21)
(0.805218 -0.129502 1.56427e-21)
(1.11077 0.0579901 -1.28268e-20)
(1.14665 0.070156 -5.46537e-20)
(0.997879 -0.00910698 6.27002e-21)
(0.981711 -0.0181074 0)
(0.895602 -0.0771021 -5.54837e-20)
(0.314575 0.0479664 0)
(-0.253447 -0.00593755 0)
(1.12453 0.00577088 4.53044e-20)
(1.03117 -0.0173901 0)
(1.1861 0.0441873 -4.44083e-21)
(1.19828 0.0315588 0)
(1.13289 0.0491044 -1.50448e-20)
(1.13167 -0.00595072 5.89127e-20)
(0.286391 0.0441703 0)
(-0.15232 0.00731935 -6.19171e-20)
(1.0912 -0.024688 0)
(1.10325 0.00546774 3.38981e-20)
(1.08944 -0.166424 0)
(1.02125 -0.0226454 1.66247e-21)
(1.00149 -0.00659043 1.4002e-22)
(1.13485 0.0494515 0)
(1.15014 -0.120915 0)
(1.02377 -0.0128864 0)
(1.00014 -0.00214436 -4.36637e-21)
(1.00162 -0.0143997 5.25508e-21)
(1.00437 -0.000657708 5.54803e-22)
(1.10765 -0.00760832 -1.98603e-20)
(1.00155 -0.00704397 0)
(0.242124 0.036959 2.2318e-20)
(1.1228 0.00230305 0)
(1.01235 -0.0339979 -2.33412e-21)
(0.382893 0.0391386 0)
(0.041149 0.0230815 0)
(0.974841 -0.0200307 -8.10571e-21)
(1.15278 0.0439812 4.20076e-20)
(-0.214472 0.00559327 1.84005e-20)
(0.974166 -0.0491015 -1.78355e-20)
(0.973443 -0.0193744 4.76518e-21)
(1.12524 0.00176913 1.51754e-20)
(0.00433891 0.00938105 -1.41759e-20)
(0.192898 -0.0137211 -3.72512e-20)
(1.1525 -0.0029591 0)
(1.00232 -0.00062193 1.30712e-21)
(0.672243 0.0611487 7.36476e-21)
(1.00107 -0.00817718 0)
(1.15839 -0.00351229 3.70343e-21)
(-0.198321 0.00763768 -4.34776e-21)
(1.15067 0.0703628 -7.07174e-20)
(1.06446 0.000765802 -2.09077e-20)
(1.20108 -0.202714 0)
(1.32666 -0.188244 1.98147e-20)
(-0.11623 -0.00617549 2.65633e-20)
(1.2195 -0.0344022 4.0784e-20)
(0.780085 -0.0982371 4.37509e-20)
(-0.0296064 0.023437 2.82645e-20)
(0.0910447 0.0320023 0)
(1.1165 0.0662414 -9.96169e-20)
(1.04461 -0.0301037 8.79601e-21)
(-0.253954 -0.00431128 2.68514e-22)
(0.10208 0.00353932 0)
(0.459408 -0.453335 0)
(0.494539 -0.459487 0)
(0.935835 -0.0246312 1.12703e-20)
(1.15493 -0.0106751 3.87584e-20)
(0.947632 -0.120654 2.96226e-20)
(0.198885 0.0104388 1.12278e-20)
(0.784992 -0.145233 0)
(1.00838 -0.00201686 2.18962e-22)
(1.02042 -6.97744e-05 -9.89095e-21)
(1.07212 -0.0845535 -3.2507e-20)
(-0.141791 -0.00844027 -3.8899e-20)
(0.205665 -0.544824 5.2273e-20)
(1.02125 -0.0218117 0)
(-0.0693933 0.0209172 1.07e-19)
(0.936728 -0.117915 -1.75315e-20)
(1.10253 -0.0720858 2.1683e-20)
(1.06605 0.00204487 -7.69119e-21)
(-0.00484736 0.00731445 3.6609e-22)
(1.1828 0.0441611 2.40767e-22)
(1.10023 0.0644996 3.55475e-20)
(1.02341 -0.0824418 0)
(1.07662 -0.045247 0)
(0.455391 0.0438096 -1.19076e-20)
(0.977035 -0.0270401 0)
(1.20205 0.0304412 0)
(1.08973 -0.0233988 0)
(1.12646 0.000375573 4.74824e-20)
(0.930815 -0.120242 0)
(0.992183 -0.0138793 -7.27497e-21)
(1.01315 -0.0335697 -1.11408e-21)
(1.23181 -0.0937183 8.57425e-21)
(1.22589 -0.198411 0)
(1.17237 0.0283469 0)
(1.34033 -0.188969 -1.11781e-19)
(0.464938 0.0453736 -5.49082e-21)
(1.00952 -0.0765306 0)
(0.0731674 0.0383638 -3.85682e-20)
(1.149 0.0601512 -2.46191e-20)
(1.02904 -0.00890209 0)
(1.12479 0.0729662 7.21289e-20)
(1.14643 0.030436 1.6603e-20)
(-0.16943 0.00891207 -5.90903e-20)
(1.07008 -0.0819637 9.08199e-21)
(1.09231 0.0506181 4.45806e-20)
(1.11274 0.0790867 -3.27289e-22)
(1.22256 -0.0985968 0)
(1.22784 -0.104376 -1.24272e-22)
(0.189249 0.010622 1.44887e-20)
(1.04824 -0.0413432 1.21066e-20)
(1.14834 0.0688342 0)
(-0.325607 -0.00278213 2.69095e-20)
(1.10531 -0.0282742 -9.34351e-21)
(0.151134 0.01173 2.74289e-20)
(1.11246 -0.0305012 2.17354e-20)
(0.111723 0.0398282 -5.3184e-20)
(1.10226 0.00439674 2.00136e-20)
(1.08472 0.0349611 1.93966e-20)
(1.18148 0.0188816 -7.0723e-20)
(1.25004 -0.17707 0)
(0.983806 -0.0112051 2.23731e-20)
(1.08834 -0.0298953 3.37579e-20)
(1.15441 -0.123943 0)
(1.08882 0.0208794 -3.54191e-20)
(1.01365 -0.0260531 6.64675e-23)
(1.12444 0.00770387 -3.58323e-20)
(0.548911 0.067559 1.41865e-21)
(0.994955 -0.027927 1.04301e-20)
(1.11043 0.0221887 -2.31754e-20)
(-0.213592 -0.0134946 2.19381e-19)
(1.06954 -0.0424535 6.99504e-21)
(1.24894 -0.488836 0)
(1.09539 0.0327348 -5.14494e-20)
(0.249054 -0.0149036 0)
(1.08192 -0.0498876 1.69907e-22)
(1.09627 0.046019 -1.4121e-20)
(0.914007 -0.689077 1.72167e-20)
(1.19402 0.0380465 0)
(1.13642 -0.0163287 8.69936e-20)
(0.24936 0.00988884 0)
(-0.0570311 0.00892662 -8.69462e-20)
(1.26244 -0.327592 0)
(0.999179 -0.0261033 1.10068e-20)
(1.22798 -0.0901568 8.65069e-21)
(1.11376 -0.03736 0)
(1.09319 0.0497287 -1.43218e-20)
(1.02859 -0.0186243 -1.13965e-20)
(-0.23604 -0.00206062 -4.82602e-22)
(0.503772 0.0669429 2.66048e-20)
(1.18079 -0.0562984 -1.12215e-20)
(1.07624 -0.0431748 0)
(1.1815 0.0211148 9.68571e-20)
(1.12909 0.0724115 0)
(-0.239466 -0.00853706 0)
(1.02545 -0.00344816 0)
(-0.287958 -0.00172703 -1.14129e-19)
(1.26043 -0.163942 -5.13047e-20)
(0.279321 -0.172184 -1.05315e-19)
(1.0517 -0.138962 -1.00971e-20)
(1.09458 0.0446381 4.86303e-20)
(0.987676 -0.0183754 -1.05326e-20)
(1.00127 -0.000371782 0)
(0.0803543 0.00817569 5.98666e-20)
(1.13227 0.0711086 -3.31789e-21)
(0.990551 -0.0094308 -3.25094e-21)
(1.07528 -0.0273271 -5.78768e-21)
(1.11224 0.0222308 3.22595e-20)
(1.01323 -0.0091822 -1.18947e-21)
(0.57354 0.0697695 0)
(1.1551 -0.00801569 -2.93425e-20)
(1.14664 0.0290581 0)
(1.08078 -0.00146739 0)
(1.04896 -0.0401423 -1.29528e-20)
(0.971967 -0.00861817 -2.47468e-20)
(1.27608 -0.113219 0)
(1.01116 -0.0332124 7.04339e-22)
(0.973024 -0.00754384 1.51757e-20)
(0.813659 0.0743647 8.99758e-21)
(0.581381 0.0658391 0)
(1.0339 -0.0940493 -3.21883e-21)
(1.10852 0.0762883 3.14699e-22)
(0.995703 -0.00304243 -8.25487e-21)
(1.00166 -0.00666493 -1.32987e-22)
(1.0719 -0.0434397 -2.66433e-20)
(1.17497 0.0282433 -2.05099e-22)
(1.09188 0.0345823 -6.07463e-21)
(1.01354 -0.0275772 1.24319e-21)
(1.05858 -0.0326174 0)
(1.11291 -0.356083 -3.03416e-20)
(1.06696 -0.0194135 2.85204e-20)
(0.291593 -0.023204 0)
(1.00155 -0.0082457 9.76854e-21)
(1.08101 0.0105483 5.18107e-21)
(0.424942 0.0518272 0)
(0.938366 -0.164138 0)
(1.01961 -0.000729611 -1.2021e-21)
(1.0005 -0.00713573 0)
(1.08035 -0.00249228 0)
(1.05125 -0.0108082 1.18129e-20)
(1.24339 -0.379871 -7.42813e-20)
(0.731476 0.0709923 0)
(1.11168 -0.0148819 -2.79092e-21)
(0.3187 -1.12564 0)
(1.07366 -0.0420225 1.43182e-20)
(1.0004 -0.0112933 -5.40669e-21)
(0.204537 0.0410195 0)
(1.11332 0.0782575 1.969e-20)
(0.877289 -0.126283 0)
(0.996191 -0.0319319 0)
(0.0794525 0.0296579 0)
(0.857383 -0.0969152 2.25431e-20)
(1.1701 -0.645146 0)
(0.989393 -0.0290347 -1.06069e-20)
(1.10469 -0.0636588 3.82448e-20)
(1.23211 -0.101246 -8.57965e-21)
(1.09552 0.0183092 0)
(0.122413 0.0365842 -7.78983e-20)
(1.13114 0.0733331 -3.38852e-21)
(1.24625 -0.0694208 0)
(0.976848 -0.0733485 -4.4486e-22)
(1.22066 -0.0309139 -6.41864e-22)
(1.00114 -0.0273391 4.33018e-21)
(0.362075 0.0403603 1.02049e-20)
(1.09594 0.0319185 5.30893e-20)
(1.13777 0.0498597 2.54184e-20)
(1.11222 -0.0353553 0)
(1.02396 -0.0791993 0)
(0.944914 -0.161723 0)
(1.15164 -0.0118648 -3.74364e-20)
(1.00186 -0.000566709 0)
(-0.269864 -0.00345836 1.22738e-19)
(0.177613 0.0380732 -1.49556e-20)
(0.330597 -0.0276298 6.11078e-20)
(-0.179895 -0.00176827 -2.09743e-19)
(0.751308 0.0726792 -9.1108e-21)
(-0.242603 0.00404314 0)
(1.19816 0.0345119 0)
(0.912504 -0.0822849 -2.54052e-20)
(0.999684 -0.00301052 -4.12919e-21)
(1.21515 -0.485688 9.40538e-20)
(0.991249 -0.00812298 5.6992e-21)
(1.01331 -0.0253351 -1.52158e-22)
(0.90643 -0.0991049 2.96111e-20)
(-0.0117611 0.0281773 9.63603e-20)
(1.07293 -0.0186854 6.80153e-21)
(0.970769 -0.0418882 -3.26892e-21)
(1.07417 -0.286964 -7.57841e-22)
(1.14299 -0.0387057 7.90608e-20)
(0.989165 -0.00355131 -7.65988e-21)
(0.628451 0.0271647 4.4358e-20)
(1.009 -0.0244414 0)
(0.213781 0.0457804 -3.36394e-20)
(1.23315 -0.364106 5.01111e-20)
(1.00576 -0.019431 -3.53013e-21)
(1.06758 -0.00949385 -2.30049e-20)
(1.26532 -0.138008 0)
(1.12088 0.0721905 -1.02055e-20)
(1.02311 -0.0131797 5.75976e-23)
(0.917727 -0.0938149 -7.44806e-20)
(1.04105 -0.398783 -1.15157e-19)
(1.03335 -0.00326824 0)
(-0.0822283 0.00279754 -1.68968e-19)
(1.21022 0.0282753 0)
(1.15719 0.0397612 4.62674e-20)
(0.975406 -0.0715436 0)
(0.831672 0.0760122 -1.92647e-20)
(-0.103017 0.0105746 -1.18723e-20)
(1.03411 -0.00349681 4.60683e-23)
(1.23549 -0.00933314 1.03202e-19)
(1.01906 -0.041742 -3.88984e-22)
(1.00948 -0.0250429 -2.318e-21)
(0.898256 0.0725744 -3.32439e-20)
(0.115159 0.0406903 -2.14204e-20)
(1.12604 -0.0368166 0)
(1.09062 0.0344394 0)
(0.990588 -0.00685119 0)
(1.10132 0.0397466 0)
(0.200759 0.0452776 -2.0641e-20)
(-0.0531868 0.0191926 -1.19508e-19)
(1.03753 -0.00686649 0)
(-0.289979 0.000812646 5.34165e-23)
(1.01313 -0.0268986 -1.18158e-21)
(1.02036 -0.0425174 -1.53495e-21)
(1.1374 -0.0143855 -7.41994e-20)
(1.07739 0.0154367 3.81922e-22)
(1.0257 -0.00314209 -2.60354e-21)
(1.01914 -0.0769461 -1.01503e-22)
(-0.0689229 0.00365623 0)
(1.24532 -0.173628 0)
(-0.0970481 0.00302562 1.12578e-19)
(1.0707 -0.0191107 -6.25895e-21)
(0.993074 -0.0145934 -6.92655e-21)
(0.336066 0.048268 0)
(0.999486 -0.0042679 0)
(1.22889 -0.0796973 1.47875e-19)
(1.08484 0.00459709 2.33579e-20)
(1.091 0.0176807 -4.78428e-20)
(1.1114 -0.0209042 4.93698e-20)
(0.527442 0.0605942 -1.2827e-20)
(-0.138844 0.00919507 5.5094e-20)
(1.0861 -0.034117 2.30275e-20)
(-0.287721 -0.00258718 -2.50382e-20)
(1.06323 -0.00135663 -9.99171e-21)
(1.16121 -0.0240382 -3.15013e-20)
(0.417302 0.0479258 6.41625e-21)
(0.11488 0.01505 2.55866e-20)
(1.01258 -0.0423903 0)
(1.00039 -0.027244 0)
(0.817478 -0.161629 1.1495e-20)
(-0.0881532 0.00458807 2.51826e-21)
(1.09807 0.0733792 5.05679e-20)
(1.10006 0.0394448 -3.767e-21)
(1.05585 -0.561667 0)
(1.07732 0.0162265 0)
(1.10016 0.00510003 -6.54521e-20)
(0.0393072 -0.0491664 2.19267e-19)
(0.575946 0.0192656 9.41349e-20)
(1.08638 -0.34557 -1.74846e-20)
(0.198983 0.0437859 0)
(1.13156 0.0623519 5.41104e-20)
(0.469422 0.0482262 -1.23926e-20)
(1.04385 -0.0399187 -5.06606e-21)
(1.1186 0.0818916 -4.38343e-20)
(1.18972 0.0396204 0)
(1.00001 -0.00981897 -4.61277e-21)
(-0.314093 0.00171488 -2.31269e-20)
(0.384381 0.0438684 0)
(1.03394 -0.127246 0)
(1.11829 0.015334 0)
(1.00286 -0.0374302 0)
(0.463525 -0.843458 -3.8072e-20)
(1.14641 -0.19253 6.24779e-20)
(0.552896 -0.18587 0)
(1.01046 -0.033753 2.32353e-21)
(1.00076 -0.000506828 -4.39855e-22)
(0.910269 -0.0497777 1.42655e-20)
(1.14159 -0.0413659 -7.83122e-20)
(1.0016 -0.00793414 -2.4599e-21)
(-0.0394123 0.0258157 -1.09798e-19)
(1.00089 -0.00060749 0)
(1.13214 0.0615387 -4.08531e-20)
(0.970117 -0.070012 4.79391e-22)
(1.09424 0.0502327 0)
(0.990975 -0.029506 5.61288e-21)
(0.98844 -0.00369794 4.41571e-23)
(1.09527 -0.165258 0)
(-0.28864 -0.00100299 1.11985e-19)
(1.13785 -0.0214829 0)
(-0.0836065 0.0208242 0)
(1.105 -0.0667971 -4.26763e-20)
(1.01345 -0.0102557 1.19091e-21)
(1.03217 -0.0115007 -8.28709e-21)
(1.15374 -0.017048 2.61057e-20)
(1.05738 -0.0336092 9.55517e-21)
(1.19465 -0.0360383 0)
(1.07732 -0.0208853 0)
(0.877237 -0.118516 0)
(1.11693 0.0806592 0)
(0.999365 -0.00400559 0)
(0.274182 0.00843912 1.79087e-20)
(1.00006 -0.00148097 -4.48828e-21)
(1.09437 0.05651 4.88647e-21)
(-0.27162 -0.00228519 0)
(0.382127 0.0504903 -1.45292e-20)
(0.881746 -0.0303535 0)
(0.761931 -0.266442 0)
(1.06294 -0.286198 -4.19471e-20)
(1.22377 -0.250086 4.48908e-20)
(0.354634 0.0445135 0)
(1.04011 -0.00802415 3.40105e-22)
(0.536239 0.0245065 -5.72692e-20)
(0.942159 -0.122786 -1.85656e-20)
(1.10796 -0.0283808 -1.06668e-20)
(-0.167404 -0.00373426 2.28446e-19)
(1.27835 -0.000199949 0)
(1.02953 -0.00940452 4.29434e-21)
(1.19257 -0.0383488 0)
(1.04749 -0.0110355 0)
(0.434954 0.043996 0)
(-0.260791 0.00400371 4.37427e-20)
(1.02568 -0.043975 -1.0375e-22)
(0.691212 -0.150979 8.92752e-20)
(0.564815 0.0700559 0)
(0.999989 -0.00124588 -5.44781e-21)
(0.999983 -0.00167513 0)
(1.09618 0.0479089 0)
(0.256068 0.00579052 -2.51904e-20)
(0.912301 0.0807493 -7.47157e-22)
(0.973641 -0.0179608 -3.7768e-21)
(1.18518 0.0143704 9.2277e-20)
(1.06511 -0.0193281 0)
(0.987338 -0.00476618 4.12388e-21)
(1.11491 0.081259 0)
(1.18494 0.0170003 -1.36205e-19)
(1.2202 -0.183873 -6.85349e-20)
(1.02401 -0.00288088 1.97135e-21)
(1.11206 0.0574143 0)
(0.906173 -0.21151 -4.20089e-21)
(1.09448 0.0442065 -2.84182e-20)
(0.957205 -0.0209742 0)
(1.00873 -0.0701975 -1.33429e-21)
(1.13877 -0.192292 -6.85038e-20)
(0.914459 -0.050861 1.27079e-20)
(1.1098 0.0603365 2.63781e-20)
(1.1288 0.00544202 4.06811e-21)
(1.13153 0.00204399 -5.15813e-20)
(1.07491 -0.332802 -2.19871e-20)
(1.17078 -0.662428 1.85613e-20)
(1.21388 0.0239934 4.52227e-20)
(0.621164 0.0666497 -3.78022e-20)
(1.02271 -0.100892 1.36374e-19)
(1.10686 0.0639224 -4.14662e-20)
(0.0683201 0.0177029 3.69271e-21)
(1.02372 -0.180874 -5.12263e-21)
(0.865029 0.0714563 3.82262e-20)
(1.15629 0.0419369 5.93229e-21)
(1.03352 -0.021603 2.67846e-21)
(1.09893 0.00403342 1.95511e-20)
(1.21018 0.0214429 3.74663e-20)
(1.05924 -0.0903906 -1.70392e-20)
(1.00538 -0.0181109 0)
(1.00587 -0.0171434 0)
(1.09633 0.056367 0)
(0.182702 0.00813458 2.07983e-20)
(1.08252 0.0103554 8.47885e-21)
(0.0567006 0.0351463 0)
(1.01326 -0.0106474 -1.31523e-21)
(0.877826 0.0797638 1.06175e-20)
(0.999402 -0.37634 0)
(-0.223522 0.00538021 0)
(1.19305 -0.0435757 0)
(1.08425 -0.0493096 7.55018e-21)
(1.07448 -0.0230211 0)
(-0.211112 0.00786618 8.0999e-20)
(1.22226 -0.178517 0)
(1.02424 -0.1739 1.38573e-20)
(1.1338 0.0723393 0)
(1.04763 -0.038008 4.00227e-22)
(1.24045 -0.443938 4.2278e-20)
(1.09546 0.056878 -1.08584e-20)
(1.13377 0.0610426 -2.04007e-20)
(1.11071 -0.0472632 -1.01147e-20)
(1.27867 -0.153714 0)
(0.988416 -0.0187832 -1.17321e-20)
(1.00008 -0.0017408 -4.45187e-21)
(0.940748 -0.0229602 3.18888e-20)
(0.98671 -0.00557213 0)
(0.398019 0.0465271 0)
(1.00411 -0.000805916 0)
(1.1104 0.0792482 -1.71133e-20)
(0.303795 0.0457855 -9.65931e-21)
(1.19659 -0.0451935 0)
(-0.037339 0.0217059 5.93484e-20)
(-0.170242 0.00795034 0)
(1.13519 0.0614066 2.18942e-20)
(1.23242 -0.246152 -1.05543e-19)
(0.884658 -0.0377533 3.08049e-20)
(0.998597 -0.000663236 3.63555e-22)
(0.982939 -0.0172899 0)
(1.0213 -0.00673168 -3.49043e-21)
(1.03142 -0.0115494 8.04475e-21)
(1.00105 -0.000567939 0)
(1.15966 -0.0176719 5.11947e-20)
(1.21209 -0.0178303 9.4439e-20)
(0.902841 -0.223108 0)
(1.13331 0.067413 -4.68243e-20)
(1.02498 -0.0661133 0)
(0.218137 0.0342574 -2.14345e-20)
(0.999979 -0.000168673 0)
(-0.159364 -0.0188702 -1.187e-19)
(1.12231 -0.0956668 -4.56388e-20)
(0.999927 -0.000336972 0)
(0.997002 -0.00166988 0)
(0.364981 0.0500881 -2.76488e-20)
(1.0863 -0.0424821 -1.0716e-20)
(0.908721 0.0785935 -1.47233e-20)
(0.400437 0.0419766 8.4927e-20)
(1.11469 0.0152541 0)
(1.13962 0.018341 -1.64275e-20)
(1.03288 -0.00238241 -4.34553e-21)
(0.272032 0.0492754 -2.2015e-20)
(0.98591 -0.084266 0)
(1.07404 -0.0200051 0)
(1.11478 0.0812183 0)
(0.998635 -0.0011559 1.68496e-20)
(0.974167 -0.0448871 9.35223e-21)
(1.03736 -0.0126282 -3.86124e-23)
(1.09813 0.0304733 3.98123e-22)
(0.15718 0.00941596 -1.49453e-21)
(1.09596 -0.0628702 2.99746e-20)
(1.11183 -0.0419709 -4.21548e-20)
(1.26332 -0.171139 0)
(-0.0829039 0.0172873 1.2223e-19)
(0.886421 -0.0600994 -6.50058e-20)
(0.988033 -0.108193 -8.02225e-22)
(0.450735 0.0491426 -2.73502e-20)
(1.02085 -0.00651856 0)
(0.440437 0.0477435 1.13834e-20)
(1.0004 -0.00125555 0)
(1.06756 -0.0178313 1.04177e-20)
(1.20487 -0.00844252 3.47929e-20)
(1.1177 0.0442716 4.72681e-20)
(1.1325 0.0525439 0)
(1.1947 -0.103789 -2.80783e-20)
(1.13879 -0.0191288 -2.99185e-20)
(0.999519 -0.00112655 -5.28793e-21)
(0.99999 -0.000174146 -7.52636e-21)
(1.16499 -0.0232805 2.04556e-21)
(1.04546 -0.0398222 2.58516e-22)
(0.999637 -0.000915351 -9.37168e-21)
(1.08131 0.0145262 3.07721e-21)
(1.25064 -0.20956 -3.3757e-21)
(1.00492 -0.00586411 0)
(1.21132 -0.264054 0)
(1.27599 -0.478632 -4.18512e-20)
(0.961133 0.0809089 0)
(1.19317 -0.0990903 5.33625e-20)
(-0.0540705 -0.0164179 -8.64378e-20)
(0.838465 -0.0944727 0)
(0.998459 -0.00101411 -1.23287e-20)
(1.22614 -0.116023 1.58362e-20)
(1.01269 -0.0110952 1.08928e-24)
(1.08905 -0.0279086 2.53055e-20)
(0.667317 0.0703312 3.23915e-20)
(0.476901 0.0445066 3.14689e-20)
(0.526401 0.0243837 0)
(0.490259 0.0536831 2.96162e-21)
(1.02954 -0.0443322 -3.61812e-21)
(1.02555 -0.0431076 1.04073e-22)
(0.978565 -0.283232 -8.40031e-23)
(1.00509 -0.067524 7.14228e-21)
(1.02338 -0.0200995 0)
(0.548628 -0.283591 2.9521e-21)
(1.14267 0.0588289 7.29736e-20)
(0.139725 0.013624 0)
(1.09368 0.0570105 0)
(1.11918 0.0446091 -4.32094e-20)
(0.985339 -0.00750003 -9.99604e-21)
(1.02143 -0.0133995 0)
(1.29317 -0.333887 0)
(1.14844 0.0273858 0)
(1.0697 -0.0177157 0)
(0.999802 -0.000272035 2.0931e-21)
(1.1298 0.0539263 0)
(1.231 -0.0448164 8.70374e-20)
(0.0674124 0.0358077 0)
(0.972766 -0.022705 0)
(1.00095 -0.00352791 2.83875e-21)
(0.139461 0.00723468 -1.35478e-20)
(0.958312 -0.0195535 -1.3931e-20)
(1.11193 -0.0257523 0)
(1.01283 -0.00867297 1.00968e-21)
(0.00630265 0.0295003 2.36214e-20)
(1.01009 -0.000506939 -7.82217e-22)
(-0.263406 -0.00529559 0)
(0.994916 -0.00681296 0)
(1.20203 -0.200711 0)
(1.11817 -0.00491242 -2.65916e-20)
(0.954888 -0.286985 1.136e-20)
(1.11274 -0.0455537 6.22478e-21)
(0.993473 -0.0270066 -4.32356e-21)
(1.07495 -0.0301862 9.24022e-21)
(1.00347 -0.00421671 -1.55337e-21)
(1.10539 0.0776083 8.95194e-21)
(0.961499 -0.0287146 2.86744e-20)
(0.288261 0.0168436 -7.01668e-21)
(1.04987 -0.0371552 -4.14178e-21)
(0.940277 0.0730375 -7.88989e-21)
(0.24042 0.0427403 0)
(1.10622 -0.0518163 2.10257e-20)
(1.00409 -0.00301402 1.38605e-21)
(-0.187155 -0.0181641 1.10941e-19)
(0.72719 0.0723546 0)
(1.08855 -0.0340724 -2.40996e-20)
(1.11609 0.0449359 0)
(0.982956 -0.0163363 1.68688e-21)
(0.221043 0.00865155 1.16251e-21)
(1.03446 -0.0223041 2.83215e-21)
(1.21159 0.018702 -4.5436e-20)
(0.99938 -0.0107508 0)
(1.00377 -0.00439823 -5.54618e-23)
(0.950577 0.082696 0)
(1.11228 -0.0191148 -5.30663e-20)
(1.00058 -0.00767291 4.08274e-21)
(1.0831 0.0227433 3.04141e-20)
(0.119871 0.0399104 -5.34763e-20)
(0.719806 -0.797068 -1.43699e-20)
(0.517573 0.0687674 1.4099e-20)
(1.01852 -0.0167903 0)
(0.0846636 0.0199154 0)
(0.997659 -0.00963729 3.66269e-21)
(1.00471 -0.00553254 -6.0018e-22)
(0.974121 -0.0255675 9.48516e-21)
(1.02042 -0.000149633 0)
(0.999888 -0.00232097 0)
(0.46535 0.0642405 0)
(0.636062 0.0679178 0)
(1.04802 -0.021833 0)
(1.00092 -0.000832447 -4.62463e-22)
(1.12745 -0.0339609 0)
(1.01679 -0.0241485 1.12131e-21)
(-0.156212 -0.0228804 0)
(1.23047 -0.112308 -9.46501e-21)
(0.0499257 0.0142815 -5.51308e-21)
(-0.0181238 0.0234666 0)
(1.07449 -0.0313133 -9.91513e-21)
(1.11093 0.0597949 1.47198e-20)
(1.00005 -0.0103937 0)
(1.12085 -0.0014716 0)
(0.994203 -0.358536 5.79083e-21)
(1.03936 -0.00737155 4.28988e-21)
(1.00034 -0.00123347 3.48299e-22)
(1.30444 -0.315673 -3.61578e-20)
(-0.250471 0.00475088 -1.41928e-19)
(1.13745 0.0187427 0)
(-0.329545 -0.00508148 -5.09957e-22)
(1.12182 0.0293872 6.37214e-20)
(0.995829 -0.00389421 -4.47419e-21)
(1.13085 -0.0459931 0)
(1.11548 0.0457864 0)
(-0.303672 0.000341371 1.10099e-19)
(1.10538 -0.00862742 -1.93547e-20)
(1.08141 0.0832101 5.52094e-20)
(1.15082 0.0274494 0)
(1.00022 -0.00239595 5.79136e-21)
(0.34168 -0.116679 -1.15545e-20)
(0.243236 -0.0819417 0)
(0.188097 0.0141175 -2.5573e-20)
(1.22772 0.00506212 7.56391e-20)
(0.910941 0.0709602 0)
(0.979866 -0.074205 -7.87553e-21)
(0.726983 -0.357279 0)
(0.972381 -0.00582053 -1.85898e-20)
(1.16534 0.0699677 0)
(1.05818 -0.0869896 0)
(1.00819 -0.00160584 -6.31345e-22)
(0.471657 0.067011 -6.77299e-20)
(1.02114 -0.0652036 -1.03895e-22)
(1.004 -0.00276728 4.83945e-22)
(1.01389 -0.0424303 -7.0061e-22)
(1.01969 -0.0634203 0)
(-0.022322 0.0273113 0)
(1.20601 0.0258944 -3.78463e-20)
(1.01259 -0.0155107 0)
(1.1329 -0.0433567 -4.55094e-21)
(0.0166523 0.0120104 -8.8973e-21)
(1.03934 -0.0599295 6.72764e-21)
(-0.343787 -0.00305851 -1.02203e-19)
(0.957928 -0.045881 0)
(1.12348 0.0392435 5.61962e-20)
(0.0817435 0.0374465 3.87927e-20)
(1.00137 -0.0073032 -2.56044e-21)
(1.09603 0.0747715 -2.02432e-20)
(1.06816 -0.102499 -7.30523e-21)
(1.10933 -0.0529323 0)
(0.67427 -0.824788 2.39906e-20)
(1.0236 -0.0645366 -7.02801e-22)
(1.26688 -0.0836532 1.11537e-19)
(1.09486 0.0456595 2.53376e-20)
(0.15949 0.0445205 1.66176e-20)
(1.04923 -0.0052403 -2.18611e-20)
(0.241208 0.0139767 4.05865e-20)
(1.10395 -0.0306964 -4.52049e-20)
(0.0189907 0.018127 0)
(-0.290373 0.00298404 1.23913e-20)
(0.219227 0.00973156 -2.32545e-20)
(1.11245 0.018084 -9.34361e-22)
(0.990456 -0.0254313 0)
(1.02889 -0.045549 2.17093e-21)
(0.999971 -0.00120956 -1.38316e-21)
(1.08395 0.0338225 -3.03026e-22)
(0.997012 -0.00355482 0)
(0.134562 0.0383429 3.82504e-20)
(1.03034 -0.118876 -1.59665e-21)
(0.925722 -0.0906892 2.08031e-20)
(0.889321 -0.0566913 7.40454e-20)
(0.981945 -0.0727789 0)
(1.01807 -0.016198 -1.10448e-21)
(1.07085 0.0176901 2.73054e-20)
(1.06524 -0.0881104 1.67407e-20)
(1.06745 -0.0107534 -1.33053e-20)
(1.04468 -0.0995046 1.05015e-20)
(0.281045 0.0426004 7.09759e-20)
(1.1009 0.0761399 0)
(1.10126 -0.0219298 -1.72253e-20)
(1.11546 -0.154863 0)
(0.50058 0.0663758 2.66779e-20)
(0.971449 -0.044424 0)
(-0.127645 -0.00508835 -1.46198e-19)
(1.02021 -0.00649729 3.08e-21)
(1.03146 -0.143262 1.52545e-21)
(0.959701 -0.0274299 -1.63455e-20)
(1.02443 -0.0294299 -2.39182e-21)
(1.07965 -0.168602 -2.62324e-20)
(1.00021 -0.0116883 8.25263e-21)
(1.01287 -0.0151464 0)
(0.787397 -0.109565 0)
(0.982705 -0.0100923 1.71549e-21)
(1.24869 -0.202596 0)