/*--------------------------------*- C++ -*----------------------------------*\
| =========                 |                                                 |
| \\      /  F ield         | OpenFOAM: The Open Source CFD Toolbox           |
|  \\    /   O peration     | Version:  v2012                                 |
|   \\  /    A nd           | Website:  www.openfoam.com                      |
|    \\/     M anipulation  |                                                 |
\*---------------------------------------------------------------------------*/
FoamFile
{
    version     2.0;
    format      ascii;
    class       volScalarField::Internal;
    location    "850";
    object      V0;
}
// * * * * * * * * * * * * * * * * * * * * * * * * * * * * * * * * * * * * * //

dimensions      [0 3 0 0 0 0 0];


value           nonuniform List<scalar> 
13851
(
0.00531018
0.0200951
0.026512
0.00134029
0.171764
0.0235881
0.0282603
0.151529
0.00141712
0.0771486
0.00915377
0.0979308
0.0347901
0.00115765
0.0128257
0.00429886
0.00118529
0.049345
0.00369331
0.00601613
0.0136622
0.0221852
0.00165134
0.181755
0.00301059
0.00740089
0.00312874
0.00282587
0.00183472
0.0854647
0.00185561
0.0291888
0.00590175
0.00224987
0.00893413
0.00212331
0.183561
0.00233197
0.00186493
0.0426202
0.0018735
0.00185358
0.00138009
0.00330396
0.00198618
0.0690059
0.164308
0.00397572
0.0331981
0.0407143
0.00138192
0.0400651
0.00485527
0.0143733
0.00156877
0.0313034
0.00514732
0.00159663
0.00334625
0.0014567
0.103401
0.00340744
0.0938986
0.0244625
0.00379139
0.00307037
0.0011306
0.00497084
0.0460831
0.00138589
0.0014791
0.0107461
0.0415461
0.00130872
0.0139869
0.0240542
0.00162509
0.122197
0.00344102
0.0826257
0.041822
0.0040598
0.011228
0.00151183
0.00142423
0.00185423
0.0198896
0.00137635
0.0633863
0.00147789
0.0409189
0.0261756
0.00135332
0.00164335
0.00178607
0.00315291
0.0697421
0.00492241
0.00132507
0.00477331
0.00426662
0.00838743
0.00815549
0.0405486
0.0668643
0.0106796
0.0754968
0.00136181
0.027346
0.0481982
0.0141815
0.0782442
0.00423509
0.00693558
0.00492514
0.0173092
0.0885113
0.154999
0.0010913
0.0017333
0.00390792
0.0766789
0.033862
0.00129084
0.0041862
0.00454752
0.0715375
0.00795337
0.00171757
0.0101089
0.0200252
0.0167597
0.00257009
0.00213686
0.00756636
0.00177434
0.00660638
0.00137151
0.0110737
0.0115055
0.00434341
0.0295618
0.0545314
0.00398424
0.00265464
0.0262551
0.126637
0.00162479
0.00168496
0.00655036
0.00340451
0.00513227
0.00654197
0.00401378
0.0359979
0.0534397
0.135716
0.00146596
0.00796909
0.0223172
0.176812
0.00199911
0.0110193
0.00524456
0.00123668
0.0017491
0.00208307
0.00149755
0.0154712
0.00217417
0.106926
0.109688
0.00897353
0.161493
0.00175007
0.00346497
0.00416628
0.0967353
0.01434
0.00493004
0.00428673
0.00384905
0.0152284
0.0145231
0.00135309
0.0013912
0.00494725
0.0127887
0.0374603
0.0797405
0.00263682
0.0116306
0.000860253
0.0228241
0.0263245
0.00510328
0.00397776
0.0435782
0.0462861
0.00645355
0.00426393
0.0016858
0.00206516
0.0136485
0.00158943
0.00145185
0.0236739
0.00938413
0.001596
0.0192824
0.00440056
0.0315858
0.00350293
0.159062
0.00971405
0.019647
0.0428625
0.00326631
0.0473453
0.00116073
0.107578
0.00538381
0.00135393
0.00192711
0.0124442
0.00896162
0.169448
0.00431711
0.095385
0.0113709
0.00187805
0.0142497
0.023786
0.102406
0.00176588
0.0943048
0.0019418
0.00178475
0.00511043
0.161805
0.00269088
0.00147138
0.00221021
0.00483203
0.0161652
0.00309254
0.00345186
0.013638
0.00317813
0.0132814
0.00126151
0.00562747
0.173354
0.020593
0.00417831
0.00183776
0.00141003
0.0686944
0.00386787
0.0568907
0.00400941
0.00459436
0.013539
0.00965888
0.00534979
0.0569165
0.00703119
0.00506382
0.00340566
0.0964779
0.0426367
0.0109113
0.00211228
0.00145596
0.00929187
0.0644198
0.00359822
0.00396301
0.00574002
0.0111518
0.00181967
0.00129588
0.0166352
0.0120867
0.00241871
0.0671271
0.128374
0.00425581
0.00826106
0.0815866
0.155282
0.0776983
0.15939
0.014779
0.134109
0.00143171
0.01076
0.0430021
0.00183977
0.00101312
0.0397286
0.00487057
0.00129313
0.027135
0.0361062
0.0110454
0.00133867
0.0017134
0.00793179
0.166342
0.00249989
0.100153
0.00770902
0.00135293
0.00324867
0.029528
0.00223896
0.0031189
0.00186427
0.00462305
0.00793823
0.00173485
0.00162766
0.0025901
0.0430186
0.00144877
0.00135617
0.00192797
0.00230928
0.0120155
0.00860624
0.0149459
0.00112285
0.00778174
0.144298
0.154469
0.0167453
0.00163724
0.00132601
0.0783371
0.00174246
0.0148174
0.0130946
0.0200605
0.001083
0.00419616
0.00439925
0.0254059
0.0220935
0.00158419
0.0354056
0.00373495
0.0195577
0.0105813
0.0127664
0.0556015
0.0482778
0.00516647
0.00433588
0.00519197
0.00280955
0.00177426
0.0177909
0.00162626
0.00391562
0.084319
0.00299832
0.00606694
0.00147547
0.0198871
0.00713712
0.0033715
0.00246347
0.00550415
0.00143685
0.0262895
0.00274709
0.00153461
0.0157207
0.00112338
0.014429
0.00187526
0.0132126
0.0104274
0.00550808
0.00312472
0.0482813
0.0206191
0.00656909
0.012291
0.0490558
0.00869849
0.00191587
0.0328116
0.00955398
0.00150387
0.0263159
0.00277519
0.00902434
0.00190117
0.0193456
0.00837623
0.00215237
0.00411676
0.0112496
0.00148403
0.0013983
0.00279833
0.0492909
0.00500382
0.0127813
0.00762991
0.065453
0.00140982
0.00187109
0.00256606
0.0230212
0.00529926
0.00332741
0.00141532
0.0957323
0.00132274
0.00413428
0.0015247
0.0109657
0.00331542
0.0448056
0.153319
0.00129308
0.00299572
0.0673535
0.0161063
0.00904326
0.106399
0.00192516
0.00748557
0.00650288
0.0200417
0.0324257
0.0412352
0.00262245
0.052949
0.0468256
0.00276067
0.00211055
0.0185435
0.00333997
0.0930163
0.126662
0.0268691
0.00466575
0.00923715
0.0482017
0.0325433
0.00358233
0.035431
0.00175021
0.133631
0.0194176
0.0019173
0.00804767
0.148735
0.103274
0.0204586
0.0411792
0.00265726
0.00235867
0.0137941
0.00112143
0.025797
0.0949627
0.00152302
0.00325763
0.0100471
0.0398024
0.00149025
0.0109998
0.00167424
0.0307592
0.0153864
0.00516309
0.0137308
0.00190472
0.00274337
0.00298061
0.0175133
0.00399609
0.0545599
0.00160743
0.0113151
0.00328921
0.0161891
0.0260832
0.00962227
0.00844478
0.147286
0.00130961
0.00134636
0.00222211
0.0013006
0.00269873
0.00154135
0.00344089
0.0139442
0.133421
0.00271657
0.0748764
0.060757
0.011985
0.00188058
0.0266008
0.0269548
0.00502444
0.00832058
0.0603888
0.00242495
0.0664123
0.00172815
0.00323001
0.0699799
0.0293135
0.00372381
0.00287054
0.0952141
0.00250021
0.00250956
0.0700633
0.00177845
0.00387772
0.00468685
0.0204711
0.00267888
0.00142175
0.0590509
0.00350406
0.050693
0.0674498
0.00287286
0.00146213
0.0134489
0.00980918
0.0678359
0.00654791
0.00172541
0.00172462
0.0631119
0.00110383
0.0535237
0.0408762
0.0103637
0.0153274
0.0901006
0.0186475
0.00168543
0.00384786
0.0015634
0.0289332
0.0552324
0.00187244
0.121745
0.00548178
0.0208754
0.0145272
0.0155803
0.00192482
0.00142921
0.0198592
0.00157785
0.0310313
0.00801759
0.00187461
0.00152927
0.0407901
0.046773
0.00633038
0.00135462
0.00358469
0.00818196
0.00170369
0.0139523
0.0120319
0.00191404
0.00238329
0.00546234
0.00154874
0.00372195
0.00167259
0.0339798
0.00275459
0.00317711
0.100168
0.00134269
0.0021725
0.0143542
0.0109248
0.0402767
0.00151005
0.00583784
0.00205782
0.044493
0.169767
0.0128501
0.00913838
0.129474
0.00159915
0.162945
0.00402268
0.0228287
0.00694816
0.036971
0.0473321
0.00995667
0.00117256
0.0110355
0.00154831
0.0135056
0.0988196
0.0661791
0.00846421
0.0280476
0.00574942
0.0248205
0.00995991
0.00329592
0.122917
0.00119343
0.15356
0.00576379
0.0013745
0.00199206
0.011691
0.00200089
0.00555635
0.00445084
0.00178846
0.0579326
0.00179797
0.0130634
0.0144711
0.00147537
0.00307787
0.0584867
0.00618587
0.0419523
0.00164247
0.00126737
0.0326644
0.00504838
0.00212215
0.170335
0.13964
0.00561696
0.00109214
0.0026042
0.0220561
0.0054333
0.0346878
0.0600048
0.00282765
0.00478663
0.00498877
0.110784
0.003881
0.00822175
0.00788896
0.0247994
0.0250545
0.00672629
0.0132441
0.00488528
0.0107996
0.0103961
0.00559081
0.00236517
0.0032134
0.00191778
0.00283562
0.00296281
0.00141602
0.0100514
0.00253867
0.00446237
0.0482666
0.0135253
0.00378361
0.0173418
0.0861514
0.0836774
0.00580809
0.00133235
0.0184253
0.00160936
0.0994707
0.00247522
0.00410762
0.00127623
0.00597185
0.0183663
0.0248517
0.0015228
0.00394266
0.0111865
0.00255731
0.0371856
0.00278803
0.00497239
0.00414529
0.0150266
0.003591
0.0384994
0.155615
0.0256162
0.0647758
0.00176032
0.12684
0.0035208
0.00179182
0.00553492
0.00169835
0.00100793
0.0038648
0.00357955
0.0138879
0.117619
0.0403684
0.100956
0.069382
0.152539
0.00773507
0.00514738
0.00683626
0.00283562
0.025946
0.00155395
0.170602
0.00130558
0.00962396
0.150243
0.105178
0.00192571
0.0209068
0.0022209
0.00205861
0.00804251
0.00570871
0.0675357
0.00209413
0.0175211
0.0252193
0.00279332
0.122227
0.0340319
0.0511222
0.00957436
0.00127006
0.0172176
0.0150724
0.00367016
0.00167898
0.0129147
0.0145251
0.00188127
0.106321
0.0020151
0.149705
0.0315067
0.00300568
0.00642408
0.00554226
0.00526814
0.0097187
0.12298
0.159755
0.00737275
0.0333232
0.102048
0.0184988
0.00368178
0.104825
0.0039301
0.00274421
0.00267074
0.00556485
0.00170705
0.0102701
0.111626
0.00554337
0.0943475
0.0185824
0.00239516
0.00183393
0.00183693
0.00192835
0.0441853
0.0325274
0.00557012
0.0248645
0.0679509
0.00157417
0.00374293
0.0010802
0.00507396
0.00610898
0.0521308
0.064598
0.00226746
0.00615654
0.0277434
0.156099
0.00367447
0.00429614
0.00161209
0.0358637
0.151495
0.00116608
0.0306442
0.014397
0.125627
0.00185997
0.144198
0.00169213
0.0814711
0.0048977
0.012268
0.0061825
0.0126897
0.0422488
0.0199619
0.148281
0.00312078
0.0287198
0.00157237
0.0267383
0.00277401
0.00174768
0.0137925
0.109009
0.00148029
0.00231614
0.0189044
0.0063642
0.0421202
0.00130013
0.0467268
0.00309418
0.0941528
0.112924
0.00240484
0.0128674
0.100795
0.0111893
0.00153126
0.00173013
0.00201096
0.0704967
0.00140516
0.0856405
0.134334
0.0343226
0.113538
0.12547
0.00202375
0.00219774
0.0365968
0.158477
0.0128514
0.0409562
0.00168826
0.00476964
0.000940357
0.00169623
0.0184433
0.00445824
0.0965015
0.0129881
0.00503688
0.0657588
0.137109
0.0033392
0.00111662
0.00760273
0.00108352
0.00736099
0.0850675
0.0109984
0.00594877
0.00123836
0.0147626
0.00251332
0.00561391
0.116183
0.00167995
0.00152461
0.00120176
0.00261452
0.00248348
0.0176736
0.00282018
0.0369436
0.0029605
0.0181651
0.149932
0.00172927
0.0247806
0.129325
0.0382801
0.0290695
0.00163989
0.00387933
0.0744407
0.0106416
0.00135935
0.0259846
0.00154928
0.0226813
0.00567433
0.00182301
0.121684
0.00318206
0.012322
0.0138576
0.00176348
0.0261222
0.00425515
0.00891498
0.00164819
0.0420514
0.00123178
0.0158183
0.00129333
0.00126604
0.00120134
0.010196
0.0418597
0.0411563
0.179258
0.0112657
0.0976114
0.00158764
0.0153084
0.0144607
0.0111553
0.0208342
0.0784964
0.0186797
0.0177774
0.0231769
0.0170716
0.00168041
0.00311258
0.0157606
0.00855773
0.00218521
0.0303426
0.00166177
0.105898
0.0115287
0.0256258
0.0497366
0.00937546
0.0839947
0.0786014
0.00761429
0.0406482
0.00382501
0.0286683
0.00116126
0.003191
0.00354902
0.00341191
0.0451479
0.00161157
0.00462755
0.137227
0.0153167
0.0281268
0.0018746
0.0224517
0.00772595
0.00294631
0.00142198
0.0065291
0.0407801
0.00208119
0.00334146
0.00233023
0.0129206
0.0955049
0.0595743
0.00617716
0.0406674
0.00124699
0.00451568
0.121867
0.00366666
0.00311071
0.0457851
0.00184767
0.00151709
0.00452142
0.0228217
0.00192439
0.00866291
0.113421
0.00109894
0.0136657
0.0460576
0.0694731
0.0147582
0.0111917
0.00165405
0.00144663
0.0114003
0.00161337
0.0144416
0.0460203
0.00417751
0.0828751
0.00255755
0.068258
0.133754
0.01722
0.038494
0.00161568
0.00148245
0.0034485
0.00129407
0.00212176
0.0135601
0.042538
0.0288515
0.00380694
0.0597852
0.14077
0.00973757
0.00286405
0.00341444
0.150101
0.0102634
0.0126229
0.00480974
0.00106216
0.0550646
0.099206
0.0284688
0.00333644
0.0185697
0.00170869
0.024337
0.153164
0.0569865
0.064932
0.0212323
0.00406305
0.00181117
0.00164479
0.011681
0.0890125
0.00261191
0.0328021
0.00274663
0.00139112
0.0115746
0.000958509
0.00175155
0.00161287
0.00763949
0.0145009
0.00139261
0.0152908
0.0107251
0.0045507
0.00363175
0.0384165
0.00154666
0.0464094
0.00199529
0.00265704
0.101363
0.0181817
0.00836933
0.0034714
0.0144174
0.13732
0.0181528
0.0245324
0.0243136
0.00203553
0.094273
0.00220834
0.00123844
0.0458587
0.0146663
0.0111793
0.0958694
0.00153953
0.00127742
0.00165138
0.00142169
0.0856919
0.0213546
0.0176344
0.0330258
0.00364084
0.0125312
0.140294
0.00658671
0.0176182
0.00224286
0.0120524
0.00108251
0.0243201
0.0216008
0.00664165
0.00596607
0.00675059
0.0524531
0.0012032
0.00148203
0.00137754
0.00124763
0.00195732
0.00154195
0.00136008
0.0526744
0.0529618
0.0414882
0.00345106
0.0103215
0.00696481
0.0012392
0.0415679
0.120295
0.0678723
0.00360546
0.0997642
0.0195011
0.0184065
0.00186475
0.0210362
0.0757142
0.100071
0.0451344
0.177746
0.00987478
0.00363905
0.00877205
0.00226341
0.058854
0.0598864
0.00174486
0.00175109
0.00126364
0.00266157
0.00640858
0.00257022
0.0758265
0.00612347
0.0251826
0.082341
0.017187
0.00138662
0.0324983
0.00561019
0.00212057
0.0407387
0.0430125
0.0152762
0.00345126
0.154648
0.00178788
0.0465105
0.00354772
0.0989557
0.0392222
0.0214826
0.00460891
0.0294953
0.00278196
0.00108119
0.00366224
0.00199312
0.0461018
0.00133386
0.00293258
0.0635097
0.00270314
0.0343706
0.00645626
0.03656
0.0449881
0.102353
0.0518391
0.0312658
0.0134558
0.0072135
0.0397947
0.094278
0.00672509
0.0696796
0.00189142
0.102809
0.0142717
0.0133535
0.00137722
0.00297055
0.0954966
0.00402482
0.11913
0.0153789
0.0065333
0.00302211
0.0101907
0.155688
0.0054287
0.00511983
0.00563048
0.003595
0.00905195
0.00589093
0.00724248
0.00670719
0.0200714
0.0672416
0.00227528
0.00131108
0.0218
0.0888876
0.00124617
0.103559
0.0106167
0.0856716
0.00626049
0.00306397
0.0817962
0.00104195
0.0201103
0.145412
0.0042545
0.138517
0.00598142
0.00140608
0.0102256
0.00268871
0.085906
0.160604
0.007291
0.130882
0.119889
0.019706
0.0162276
0.0070362
0.00529001
0.0334075
0.00966381
0.0635861
0.0920473
0.127412
0.0623739
0.00281565
0.0488913
0.0142503
0.00335646
0.105237
0.113252
0.0013569
0.130384
0.00114716
0.0317815
0.00191493
0.00346647
0.0059483
0.00225333
0.00643771
0.00187537
0.0332912
0.00412556
0.0171231
0.0663131
0.0475482
0.014661
0.016548
0.0458406
0.00760394
0.0847752
0.0207136
0.00131021
0.00123368
0.00217347
0.0188327
0.00722185
0.00133436
0.0015849
0.108907
0.0215642
0.00220541
0.0454988
0.0116261
0.00210261
0.00173522
0.0184818
0.0111378
0.0273459
0.00311771
0.137278
0.00851798
0.0024708
0.0301323
0.137897
0.00173835
0.00969421
0.00344393
0.00195647
0.00532706
0.0293671
0.0793386
0.0302131
0.0013246
0.00290626
0.00238728
0.00811618
0.0485209
0.00104698
0.0890374
0.00445399
0.0156857
0.0308057
0.0105067
0.079065
0.00165455
0.00217733
0.0743413
0.00691982
0.00870916
0.00238809
0.00955768
0.00772152
0.00332335
0.0131959
0.00305845
0.0058636
0.0886422
0.0120768
0.00437002
0.00246535
0.0831278
0.00250818
0.00937524
0.00761473
0.159045
0.00192382
0.021528
0.0220738
0.0635351
0.00977303
0.0118021
0.00602461
0.161092
0.0283684
0.00646558
0.00122603
0.00868789
0.0918621
0.0292156
0.0134799
0.00393985
0.0895916
0.00563808
0.00208532
0.00819743
0.00190101
0.0119543
0.00123322
0.00357377
0.0457748
0.00274416
0.132551
0.0210656
0.0110855
0.0131222
0.00549847
0.00964231
0.0096859
0.0101202
0.0146104
0.0171797
0.10271
0.00555852
0.0227493
0.0144153
0.0029733
0.0182156
0.0142571
0.0879269
0.00144116
0.00581059
0.0322612
0.0244153
0.021942
0.00121063
0.00456369
0.0106213
0.0019074
0.00307014
0.00286189
0.00549066
0.00291882
0.0722384
0.00260232
0.116143
0.0144197
0.00278008
0.0014753
0.00277634
0.00215148
0.0728797
0.00111577
0.0753315
0.00644222
0.0141095
0.00247067
0.00186976
0.0164011
0.150439
0.00365153
0.00745852
0.0661716
0.00152092
0.0733059
0.017872
0.0219991
0.0358959
0.0147707
0.0227398
0.0589761
0.0120772
0.00374146
0.0120457
0.00897293
0.057013
0.00124348
0.00185196
0.117987
0.00329391
0.0184864
0.0121981
0.00237104
0.113712
0.0289587
0.0142232
0.0011487
0.0691582
0.145657
0.0139629
0.00236623
0.119263
0.0131317
0.0110801
0.00294221
0.00942716
0.0117009
0.00444604
0.0720086
0.00323021
0.11112
0.00125042
0.0138181
0.0657842
0.0193148
0.00576453
0.134744
0.0440472
0.00449453
0.0019348
0.0351135
0.00128267
0.112774
0.109807
0.00803513
0.0871283
0.0463915
0.00211351
0.151983
0.011436
0.00531732
0.0016409
0.00303305
0.0558477
0.0141592
0.0140868
0.126423
0.0333979
0.0869777
0.00267039
0.125197
0.0031682
0.00407182
0.103132
0.0680476
0.0154141
0.003935
0.00332899
0.0064668
0.00731546
0.019728
0.00139843
0.00618828
0.0152066
0.0115257
0.00659611
0.00565962
0.00132162
0.0118015
0.00150287
0.00219556
0.00159341
0.0236187
0.0410401
0.0114293
0.00960011
0.0656612
0.0308926
0.00502415
0.161551
0.036389
0.0599038
0.0912889
0.0286929
0.0449945
0.00122812
0.132709
0.00199645
0.125724
0.00497151
0.034058
0.00571646
0.0054914
0.0344373
0.00196593
0.014997
0.115598
0.00889581
0.0695157
0.012879
0.0387683
0.00191097
0.0220325
0.00979573
0.00368818
0.00222668
0.0147402
0.00246171
0.00331201
0.0079142
0.0449857
0.031197
0.00518547
0.00796686
0.000982291
0.0712853
0.00189783
0.0402123
0.00504438
0.00195581
0.0122432
0.00272112
0.0220102
0.0139209
0.0165633
0.00205725
0.0134154
0.131521
0.00900809
0.00471004
0.0222303
0.0604198
0.135157
0.00157027
0.162287
0.0147897
0.00181913
0.0138196
0.0467804
0.00831276
0.0198639
0.00222316
0.116624
0.0449014
0.0878711
0.0161556
0.0307337
0.04486
0.00597916
0.00167946
0.0559937
0.105912
0.00237337
0.0420274
0.00126653
0.0280251
0.00188132
0.061689
0.0170285
0.13813
0.00145432
0.00193521
0.0110619
0.00490232
0.0151054
0.0507501
0.0966872
0.00188708
0.138938
0.0058963
0.121802
0.0107812
0.119749
0.00218233
0.101653
0.00976519
0.135112
0.00364583
0.00251168
0.0648123
0.00798158
0.00190849
0.00588424
0.00237171
0.00264093
0.0040272
0.0259034
0.0124553
0.00531541
0.0028605
0.0417256
0.0119723
0.0139602
0.04273
0.00133499
0.00176809
0.00683812
0.00478312
0.00347918
0.0122101
0.0017982
0.0548722
0.0701837
0.00548444
0.0021402
0.00409298
0.00467438
0.00277492
0.0614285
0.00205824
0.00142698
0.00192983
0.14981
0.00121248
0.00150831
0.00290954
0.00160296
0.00140327
0.00515247
0.0136122
0.00392895
0.0166303
0.0490789
0.00290233
0.00615592
0.0976792
0.0012967
0.120726
0.0142374
0.0112547
0.0147295
0.00286164
0.00937477
0.00128
0.00924803
0.0159174
0.00249137
0.00151955
0.00512202
0.0291425
0.018877
0.00657751
0.00592178
0.113803
0.00991604
0.00583381
0.00471752
0.0470535
0.00411102
0.0149647
0.00858604
0.00224052
0.00290678
0.0247633
0.00506796
0.00127644
0.0284621
0.026307
0.00197501
0.00379869
0.021086
0.0193909
0.0970686
0.0062254
0.0263619
0.00183849
0.00608975
0.0298683
0.141832
0.0056998
0.0145826
0.00284468
0.00128431
0.0644957
0.0663366
0.0123316
0.107241
0.0232218
0.0262136
0.0242084
0.0151901
0.0597609
0.0183554
0.0390329
0.0096007
0.00304803
0.145623
0.00206141
0.000822234
0.0975532
0.00244906
0.00499447
0.00624249
0.0200693
0.00566368
0.0167568
0.00497509
0.0156738
0.0216357
0.148955
0.00116262
0.0169787
0.00188434
0.021558
0.0415811
0.0879892
0.00607346
0.0559697
0.00852823
0.00700889
0.00230488
0.0835652
0.00299313
0.00280823
0.00143626
0.0721757
0.00521118
0.00198847
0.00285846
0.00299385
0.0270344
0.0346866
0.00404046
0.00276349
0.00285746
0.0117371
0.00313567
0.123438
0.0508084
0.00848453
0.125698
0.0428466
0.00423185
0.153372
0.00462488
0.0596846
0.00137448
0.00214558
0.00215205
0.00137529
0.00141222
0.0382808
0.0969683
0.00236796
0.074184
0.0655533
0.0950357
0.00531212
0.00188664
0.00139249
0.0145611
0.0460981
0.0216543
0.00977821
0.00102743
0.130714
0.00254168
0.00157319
0.132354
0.108636
0.00150836
0.00601122
0.0299758
0.0671409
0.00223096
0.00133407
0.0458919
0.00449924
0.150788
0.00141971
0.00223013
0.0281374
0.00161239
0.001011
0.00231727
0.0636746
0.0450385
0.13963
0.153312
0.00182774
0.0687938
0.00373454
0.00313198
0.0010924
0.0180494
0.00891376
0.00316416
0.00934253
0.00215072
0.00156
0.121323
0.0215652
0.0217118
0.0043575
0.00185398
0.107121
0.00129922
0.0123786
0.0106608
0.0171057
0.12939
0.00360807
0.0111917
0.00150065
0.13089
0.00838809
0.0303454
0.00332504
0.0250806
0.00153439
0.0024366
0.00367007
0.00521436
0.0479326
0.0141526
0.00578022
0.00335898
0.00169164
0.00198572
0.132792
0.0025422
0.00468238
0.00182984
0.0151422
0.0103453
0.0114568
0.045801
0.00216338
0.0917564
0.014358
0.00129269
0.00180775
0.00251389
0.0017739
0.0156131
0.00811488
0.0686053
0.00151865
0.0159841
0.0019233
0.0680373
0.00217543
0.0799044
0.0980701
0.0137072
0.00874673
0.00964078
0.0403068
0.00144764
0.0102763
0.0565837
0.0113985
0.00136634
0.00328981
0.0525426
0.0015893
0.0209382
0.0119521
0.0154674
0.11764
0.00790475
0.0863457
0.00234531
0.00571925
0.019676
0.0567499
0.00360334
0.0110855
0.0566875
0.00238911
0.00319363
0.00369541
0.0866246
0.00321462
0.0914619
0.00429558
0.0140434
0.00509591
0.00293086
0.00120199
0.0100052
0.00186709
0.00839888
0.0134723
0.0804241
0.00210213
0.00534841
0.00493471
0.0073871
0.156439
0.00151092
0.00532102
0.00350307
0.00333212
0.0020227
0.00129424
0.00301079
0.00151483
0.0128913
0.00819165
0.0878159
0.0467782
0.099659
0.00399859
0.0164522
0.0101371
0.00166081
0.0666765
0.112507
0.0111499
0.00496604
0.0187536
0.128422
0.00171808
0.0249803
0.00868517
0.0306659
0.00141385
0.0138138
0.00197975
0.00625892
0.013083
0.00764897
0.0834673
0.00115813
0.003166
0.00720553
0.0433428
0.103218
0.0012388
0.00111184
0.00160669
0.0505312
0.00536563
0.00297095
0.0452245
0.100972
0.0452626
0.00186357
0.00340469
0.0121205
0.0196163
0.0200845
0.00209258
0.00495295
0.00336366
0.019769
0.0142819
0.0981435
0.00474978
0.00856648
0.0451729
0.00189125
0.00166412
0.00144778
0.00193572
0.0014517
0.00168415
0.00242838
0.0254365
0.06515
0.00217166
0.00122039
0.00268044
0.0300836
0.0114077
0.0544663
0.0535441
0.00262774
0.00212591
0.00769778
0.0553811
0.00325371
0.00628117
0.0100331
0.00141244
0.00274679
0.00356701
0.115704
0.00169259
0.00263111
0.0034587
0.0142459
0.0107303
0.0411525
0.0822646
0.0116211
0.00993065
0.02043
0.0112992
0.0170895
0.0151978
0.0033093
0.00136348
0.0141327
0.0105966
0.00144636
0.00350195
0.0957087
0.00249671
0.00246303
0.00109361
0.0108291
0.0424725
0.0156291
0.0210882
0.0129674
0.11573
0.0100153
0.0141406
0.00877932
0.00416676
0.155036
0.0234085
0.00126465
0.00189241
0.00171133
0.00307525
0.00496277
0.10297
0.0569413
0.0148557
0.0698949
0.00183573
0.0388512
0.156201
0.0842541
0.00187883
0.00209059
0.0284545
0.00851182
0.0156539
0.00971613
0.0154989
0.00768823
0.0116521
0.0113581
0.00127416
0.0193198
0.00142236
0.0109516
0.00161339
0.0165561
0.14521
0.0795039
0.00513305
0.00462734
0.117378
0.00909553
0.0156704
0.00785685
0.00248952
0.00162225
0.00227321
0.147947
0.00265828
0.0112664
0.0109694
0.0593023
0.00727679
0.0193786
0.00133136
0.00242861
0.0105585
0.0798419
0.00189248
0.0114584
0.00116502
0.00127657
0.00328639
0.0228565
0.00478339
0.0021584
0.00305103
0.00143803
0.00772939
0.0450314
0.0109027
0.0464454
0.00249426
0.0142158
0.014675
0.0029627
0.00183354
0.0560333
0.0485861
0.00148349
0.0108615
0.00167752
0.00994501
0.0534537
0.0109905
0.00309217
0.00815004
0.00272833
0.0109034
0.00283294
0.0185481
0.102366
0.0490886
0.00372255
0.0270118
0.00374245
0.0591812
0.0433513
0.0039681
0.0170141
0.0434309
0.0917255
0.0122943
0.00268802
0.0104526
0.0115618
0.014873
0.00775136
0.0394937
0.0054975
0.0146885
0.0108668
0.00508997
0.0181713
0.00532448
0.00711855
0.0527413
0.00716015
0.0015824
0.00141245
0.0458111
0.00237207
0.00118579
0.0493744
0.0246769
0.00259851
0.0013446
0.0137039
0.00137055
0.00330808
0.0464306
0.00633
0.10299
0.0198307
0.00717303
0.00212511
0.00271475
0.00343541
0.00308847
0.00193671
0.00146744
0.0300043
0.00118678
0.0584759
0.00259004
0.00137985
0.0867007
0.127808
0.00139837
0.0416273
0.0820814
0.0031247
0.00191516
0.004466
0.0190783
0.00126167
0.14378
0.00194607
0.00127796
0.146696
0.00256655
0.00315396
0.001312
0.00134279
0.00140968
0.00132038
0.0740066
0.0226441
0.00865255
0.00716764
0.0773943
0.00352279
0.0612907
0.00137323
0.00361107
0.00706663
0.00409978
0.00135656
0.00324229
0.00358699
0.00572209
0.00153398
0.00362252
0.0203698
0.100246
0.00256267
0.0102128
0.0744159
0.00195537
0.0503468
0.00251991
0.0398264
0.00173358
0.0251885
0.0521557
0.00145712
0.0103874
0.00818847
0.00121722
0.0022722
0.00250252
0.0171503
0.00893513
0.0213762
0.011086
0.00477377
0.0110287
0.116458
0.00236792
0.0083556
0.0112552
0.00130924
0.0110447
0.0106531
0.00405334
0.00515177
0.00987396
0.0522238
0.0041921
0.0811027
0.00521175
0.00272189
0.00114292
0.0721329
0.0112738
0.000982512
0.0315138
0.00796249
0.015432
0.010861
0.00212265
0.00736025
0.0211708
0.00191083
0.114811
0.00184135
0.109842
0.0291814
0.00516415
0.00178902
0.0123877
0.00258545
0.00355222
0.0149062
0.0425599
0.00390667
0.0102991
0.00152848
0.0154991
0.00223601
0.0046045
0.0145025
0.0154698
0.00600654
0.0115264
0.00504117
0.00766053
0.0101758
0.0215104
0.0438328
0.00270917
0.0490003
0.0162539
0.0855174
0.00508433
0.0158642
0.00784295
0.00134382
0.0249939
0.00460463
0.108511
0.0389494
0.124262
0.078307
0.0196277
0.0826854
0.00506157
0.00121239
0.00775467
0.00997603
0.0224479
0.0424485
0.00299904
0.0382942
0.00227937
0.00239773
0.00140167
0.00479143
0.0120765
0.0182776
0.126787
0.0128738
0.00452289
0.0108173
0.00133967
0.00896241
0.00163682
0.00277585
0.145647
0.110255
0.00146286
0.0513234
0.015483
0.00552786
0.00342043
0.0275045
0.00167842
0.109618
0.0185366
0.055584
0.0305558
0.00425453
0.0046447
0.0363483
0.0144376
0.00917656
0.00953259
0.00685219
0.00305567
0.00331853
0.00428444
0.00498366
0.0171204
0.0253784
0.00776212
0.00178957
0.00208412
0.00194554
0.0121568
0.00193994
0.00513935
0.0306965
0.0836271
0.00772188
0.0961249
0.015062
0.00111979
0.0558361
0.0744054
0.00336831
0.00253371
0.008975
0.00327157
0.0389889
0.00123571
0.00974502
0.00166745
0.0119091
0.0376512
0.00187737
0.0070276
0.0431179
0.00579924
0.134999
0.00485012
0.0155161
0.00638849
0.00200131
0.00938291
0.00225455
0.0603354
0.0018518
0.0275373
0.0161083
0.0257432
0.010165
0.135272
0.00597321
0.00186054
0.00247534
0.00932013
0.0128237
0.00505055
0.0502172
0.120931
0.0320669
0.00269889
0.0219315
0.00178306
0.00130649
0.00599924
0.130033
0.00474669
0.00388136
0.00456488
0.0122761
0.00125434
0.049263
0.106665
0.0507838
0.00258918
0.0433953
0.0454256
0.0018051
0.0551731
0.00472801
0.00464012
0.0626451
0.00161702
0.0189647
0.00175521
0.0476848
0.00262511
0.0295596
0.00520253
0.00166233
0.00649452
0.0605724
0.018314
0.00226625
0.0160145
0.00478355
0.0149882
0.0187371
0.00479215
0.0151335
0.0376164
0.00122862
0.0153504
0.0151681
0.00394459
0.0479233
0.0667913
0.134707
0.0150963
0.0353286
0.0150038
0.00232767
0.000937107
0.00360135
0.00103041
0.00752575
0.0129796
0.00173868
0.00166512
0.0279974
0.000836814
0.00226686
0.00137611
0.0028603
0.0143848
0.0021807
0.00139454
0.00177914
0.00279905
0.00190657
0.007727
0.00501258
0.0133133
0.0201113
0.153171
0.00270724
0.153123
0.00169675
0.00419026
0.00359175
0.108804
0.00637241
0.00735345
0.0238696
0.149185
0.145632
0.00411685
0.0272172
0.0394153
0.0104589
0.00119175
0.0226283
0.00379681
0.111913
0.00392174
0.00588987
0.0338775
0.0162755
0.0844844
0.00169079
0.00191965
0.0043208
0.00187456
0.0120648
0.00529588
0.106628
0.0105898
0.154505
0.0341749
0.125872
0.00190685
0.0633882
0.00871225
0.0034078
0.0151898
0.0147405
0.0566727
0.00155346
0.00449321
0.00173364
0.00114939
0.00450213
0.00276373
0.00117328
0.0035642
0.00286055
0.00127076
0.00395774
0.00992281
0.00299505
0.0015566
0.0629106
0.00157294
0.00464033
0.00211085
0.124348
0.00741722
0.00200926
0.148548
0.00147025
0.0168719
0.000962948
0.131507
0.0436827
0.00683446
0.00345985
0.0188418
0.00712132
0.0617853
0.0448143
0.00130891
0.00222329
0.00169538
0.00805833
0.0423964
0.0290272
0.11631
0.0100254
0.0023488
0.00191417
0.00277237
0.00336741
0.011831
0.118093
0.129559
0.00126618
0.00140417
0.0041777
0.015297
0.0196107
0.00549488
0.00151219
0.00155438
0.082053
0.0642078
0.00145957
0.0252146
0.00343082
0.0141388
0.0373174
0.0147747
0.00845797
0.00136544
0.00122558
0.140895
0.0694849
0.0193055
0.0024939
0.00179014
0.140922
0.00487365
0.0013463
0.113757
0.00264769
0.00191267
0.00178444
0.0715288
0.00157402
0.00145531
0.00886122
0.00300297
0.020772
0.00261996
0.00332221
0.0213898
0.0583554
0.00147214
0.00274122
0.126765
0.00436003
0.00476549
0.0158362
0.00422998
0.00127068
0.00160933
0.00171315
0.0159453
0.0241354
0.0315905
0.00159448
0.0014627
0.00141071
0.00122135
0.00126715
0.0746766
0.00834651
0.126541
0.124026
0.0158656
0.081285
0.0540532
0.151343
0.00185191
0.00163109
0.000995085
0.006563
0.00414351
0.00923501
0.0667407
0.117761
0.00123635
0.0931812
0.000909309
0.00189869
0.106124
0.0526791
0.00141974
0.0289703
0.00371503
0.0195172
0.0963561
0.0860701
0.00119624
0.0890355
0.00123472
0.00133928
0.105854
0.0102056
0.050242
0.0312779
0.045384
0.00528054
0.00247731
0.0821696
0.0017523
0.00286793
0.0221419
0.0533135
0.0258555
0.0253741
0.134542
0.00351188
0.00132416
0.00113514
0.0103203
0.00160535
0.142647
0.0212494
0.0318221
0.00442482
0.0210171
0.00222747
0.114615
0.00132907
0.00308678
0.00157826
0.00427344
0.115765
0.0106568
0.0431912
0.00131331
0.161771
0.0149384
0.0172715
0.0210771
0.0306069
0.144072
0.0102296
0.00172498
0.0214633
0.0295527
0.0291933
0.0106104
0.00366007
0.13724
0.00152463
0.00186318
0.024954
0.00185797
0.00145842
0.00244909
0.00205367
0.114669
0.0240582
0.00239272
0.00175395
0.00501453
0.00190459
0.00184997
0.0146112
0.00876762
0.0145972
0.00123555
0.0636911
0.122237
0.00204617
0.00508604
0.00181673
0.0223105
0.148878
0.0684497
0.0013168
0.00631974
0.159997
0.00461188
0.045032
0.00705078
0.0153034
0.0163248
0.0460777
0.120105
0.0876361
0.0191422
0.00245569
0.0017634
0.104616
0.0581168
0.00152797
0.0415935
0.00585989
0.0160537
0.016516
0.0110005
0.148789
0.00124366
0.0154632
0.0169439
0.000951975
0.00652152
0.0224627
0.0134403
0.0367812
0.0295955
0.00165865
0.00271608
0.00139564
0.0335245
0.102965
0.00865805
0.0143327
0.0673655
0.0111995
0.00152888
0.0169661
0.00996279
0.0156413
0.00499961
0.0674216
0.0730052
0.00140355
0.00244198
0.00234261
0.0509671
0.00450246
0.0750252
0.0540972
0.00522718
0.00183951
0.00650896
0.0157595
0.0044721