/*--------------------------------*- C++ -*----------------------------------*\
| =========                 |                                                 |
| \\      /  F ield         | OpenFOAM: The Open Source CFD Toolbox           |
|  \\    /   O peration     | Version:  v2012                                 |
|   \\  /    A nd           | Website:  www.openfoam.com                      |
|    \\/     M anipulation  |                                                 |
\*---------------------------------------------------------------------------*/
FoamFile
{
    version     2.0;
    format      ascii;
    class       volVectorField;
    location    "250";
    object      ddt0(U);
}
// * * * * * * * * * * * * * * * * * * * * * * * * * * * * * * * * * * * * * //

dimensions      [0 1 -2 0 0 0 0];


internalField   nonuniform List<vector> 
13851
(
(0.00401734 -0.000149524 -3.45106e-17)
(0.000406091 -0.00010428 -1.8111e-18)
(0.000405893 -9.81986e-05 1.42861e-18)
(-0.00249099 -0.00118039 9.46336e-18)
(0.000306671 -5.01692e-06 1.50999e-20)
(0.000419646 -0.000180601 4.29902e-18)
(0.000190216 0.00029573 3.93057e-18)
(0.000602888 1.35059e-06 -5.72292e-19)
(-0.0106535 0.0023609 -7.38196e-18)
(5.63298e-05 -2.23614e-05 1.11401e-17)
(-0.000103273 -0.000464647 -1.66195e-18)
(0.00017741 -6.49857e-05 -1.59653e-18)
(7.9125e-05 -0.000214347 4.73463e-18)
(-0.0106985 -0.000357683 2.9017e-17)
(0.000843017 0.000262662 1.17848e-17)
(-0.00503578 0.0027343 3.56096e-18)
(0.00551953 0.000234506 6.3096e-17)
(0.000301213 -1.68981e-05 3.16858e-18)
(-0.00249715 -0.00441943 -2.10008e-18)
(0.00385326 -0.00029488 2.42083e-17)
(0.000986592 -2.52748e-05 -2.21874e-18)
(0.00029722 -7.37402e-05 8.84243e-19)
(-0.0132441 0.00922793 1.82813e-17)
(5.21899e-05 -4.28096e-07 1.45177e-19)
(-0.008946 -0.00724768 -2.29008e-17)
(-0.000451898 0.00130034 -1.10964e-17)
(0.00789598 0.0092758 -1.81481e-17)
(-0.00708909 -0.00622452 1.32255e-17)
(0.0073559 0.00824286 -1.10705e-17)
(0.000348254 2.80878e-05 -1.59696e-18)
(-0.00247261 0.0042185 2.6404e-17)
(0.000201276 0.000288472 -3.51049e-18)
(0.0039865 0.000773843 4.57916e-17)
(-0.0026245 -0.00464452 4.68565e-19)
(0.00022028 -0.000376226 4.57809e-18)
(0.0114335 0.00684195 3.12861e-18)
(2.27986e-05 6.5933e-09 -9.38695e-20)
(0.0168598 0.00657744 6.36078e-17)
(0.000423652 -0.00110107 7.11902e-17)
(0.000232059 -0.000172335 5.5875e-19)
(0.000656822 -0.00418874 -1.07864e-17)
(0.00655021 0.00945713 5.22739e-18)
(-0.00170197 -2.34931e-05 5.8868e-17)
(0.00112428 -0.000835525 -1.47376e-17)
(0.000821468 0.0112983 1.70495e-18)
(0.000268561 -9.51841e-05 -2.23767e-18)
(0.000612448 8.94793e-06 -2.1751e-18)
(-0.00127434 0.00538373 1.49318e-17)
(0.000300259 -4.847e-05 -4.9339e-18)
(5.81672e-05 -0.000208224 -2.71124e-18)
(0.00453515 -0.000143451 1.37958e-18)
(5.67515e-05 -0.000250649 2.91675e-18)
(-0.00455133 0.00303095 4.21285e-18)
(0.000270727 0.000598111 2.18953e-17)
(-0.00871335 0.000730797 4.17543e-18)
(0.000231308 -0.000177349 -1.92645e-18)
(0.00414998 0.00060276 -5.33223e-17)
(0.000950615 -0.0039498 1.48352e-17)
(-0.000553543 0.015372 2.32216e-17)
(-0.00495454 -0.00117404 -1.70126e-17)
(0.000177714 -7.69712e-05 -1.24122e-21)
(0.00626787 0.00864728 -2.08307e-17)
(3.10523e-05 -0.000144573 -5.52675e-18)
(0.000309128 -5.20025e-05 -2.00556e-18)
(0.000657842 -0.00101303 1.31964e-17)
(0.000608948 -0.00106897 -3.47504e-20)
(-0.00504122 -0.000977691 1.5608e-17)
(9.81994e-05 -0.000652403 2.4747e-18)
(0.000265091 -5.32367e-05 4.52872e-20)
(-0.00370355 -0.00124177 -2.31662e-18)
(0.00234587 0.00347283 7.66895e-17)
(0.00119369 -0.000159829 2.74738e-17)
(0.000157277 -0.000185382 -5.34292e-19)
(-0.00584144 -0.00115741 3.12022e-18)
(0.000416175 0.000586473 4.11757e-18)
(0.000274268 -6.99691e-05 -7.99546e-19)
(0.00530044 0.000553784 -2.93813e-17)
(0.000396981 -1.18983e-05 -1.92435e-18)
(-0.00778142 -0.00520308 2.35634e-17)
(0.000212791 -6.84611e-05 3.19169e-21)
(0.000273484 -4.49456e-05 4.28057e-19)
(-0.00444675 -0.00579645 -2.62607e-17)
(0.000219936 -0.000348222 2.07582e-17)
(-0.0106502 -0.000446499 1.14063e-17)
(-0.00576334 -0.00130356 -4.63562e-18)
(-0.000747979 0.00416612 4.25649e-18)
(0.000300553 -7.74248e-05 -4.31375e-19)
(0.0114054 0.00123537 -8.49108e-19)
(9.71718e-05 -2.35464e-05 1.11598e-18)
(-0.00282979 0.00390858 6.60359e-17)
(3.94948e-05 -0.00025772 -5.91407e-18)
(0.000213681 0.000298938 1.02664e-18)
(0.00218703 -0.000283346 3.0409e-17)
(-0.00113342 0.0035555 -4.47054e-17)
(0.00275125 0.00110988 1.68949e-17)
(0.00127475 -0.000836472 -2.77271e-17)
(0.000235125 -0.000140897 -9.74676e-21)
(-0.00334261 0.00483768 -4.56456e-18)
(0.00415948 -0.000710458 1.49028e-17)
(0.000113947 0.00179111 6.93616e-17)
(-0.00318742 0.00570561 -1.64214e-18)
(0.000157399 -0.0004901 4.60502e-18)
(0.000206676 -0.000523931 -1.09209e-17)
(0.0001352 -0.000219085 -3.39039e-18)
(0.000277722 -4.42894e-05 5.38474e-19)
(0.000920652 -0.00042135 -1.71949e-17)
(0.000278079 -5.42388e-05 4.73334e-20)
(0.00160324 0.00377367 -7.82865e-17)
(0.000226629 0.000288921 -3.39943e-18)
(0.000311887 -1.42353e-05 4.49724e-18)
(0.000345682 -0.000108851 -1.96517e-18)
(0.000265355 -8.51713e-05 -1.04953e-18)
(0.00102937 -0.000153926 -2.32284e-18)
(0.000460321 -0.000774336 -1.15506e-17)
(0.00372572 0.00263674 1.01354e-17)
(0.000271326 0.000570423 1.13471e-17)
(0.000387257 -8.60858e-07 9.07874e-19)
(0.000605954 2.14607e-06 -1.18196e-18)
(-0.00244573 -0.00104473 2.58685e-18)
(-0.00331874 -0.00163308 7.17919e-17)
(0.00144809 -0.000423123 6.21111e-18)
(0.000311689 7.07767e-06 1.02928e-18)
(0.000257468 -9.49674e-05 8.43374e-19)
(-0.00553782 -0.00254956 -1.109e-17)
(0.00217065 -0.00472995 2.58069e-17)
(0.00011703 -0.000783175 6.30972e-17)
(0.000245683 -0.000137917 1.0608e-19)
(0.000172346 7.53358e-05 2.2008e-18)
(-0.00264712 -0.00416091 -1.26636e-17)
(0.00117231 0.000243051 -3.8662e-17)
(0.000299428 -7.45473e-05 1.91273e-18)
(0.000353442 -0.000262377 1.03227e-17)
(0.0129888 0.00787801 1.73131e-18)
(-0.00304261 -0.00433265 -1.55876e-18)
(-0.00012067 -0.000541126 -1.52666e-17)
(0.0018888 0.000930408 2.21092e-17)
(9.43188e-05 -0.000631568 3.42824e-17)
(-0.000134337 0.00390367 -3.70543e-18)
(0.000136589 -0.000415276 1.52354e-17)
(0.00110374 0.000424449 -3.24022e-18)
(-0.00447364 -0.00474807 2.15502e-17)
(0.000156115 -0.00027785 -7.13814e-18)
(8.671e-05 -2.77445e-05 -5.17041e-18)
(0.00031164 -0.000805602 -6.03241e-17)
(-4.26198e-05 0.00679684 -1.66342e-17)
(0.00025538 -0.00010621 -1.64786e-18)
(0.000394287 -1.40805e-05 3.84653e-18)
(-0.00185425 0.00352983 -3.45798e-17)
(-0.0027731 0.00519082 4.12223e-18)
(0.000157678 0.000112358 9.12651e-18)
(-0.00253979 0.00574 -7.26354e-18)
(0.00110535 -0.000393099 -2.92235e-18)
(0.00047219 -0.000810996 1.92539e-18)
(-0.000734615 -0.00401568 -2.98432e-17)
(8.5601e-05 -0.000291171 -2.64036e-18)
(4.18891e-05 -9.77728e-05 4.34218e-19)
(0.000179374 -8.20754e-05 8.6475e-19)
(0.00096178 -0.00106992 -2.4079e-17)
(0.00101292 0.000348917 -1.99655e-17)
(0.000320026 0.000166655 1.56453e-18)
(7.34444e-05 -3.88296e-06 -1.89718e-19)
(0.00914188 0.00776547 -2.33206e-17)
(0.00092978 -0.000379482 1.38187e-17)
(-0.000816217 0.00536927 1.30919e-17)
(-0.0107741 -0.000459593 2.7087e-18)
(-0.0089078 0.00498188 1.60712e-17)
(-0.00876013 0.00472048 -3.64742e-19)
(0.0044498 -5.68337e-05 2.97941e-17)
(0.000336343 -0.000103643 5.65498e-18)
(-0.00312508 -0.00476782 4.00569e-19)
(0.000165245 -9.65324e-05 3.67812e-18)
(0.000416777 6.64121e-08 -2.82153e-18)
(0.000872798 -0.000683858 2.00552e-17)
(0.000242468 -7.26336e-06 -5.26497e-20)
(0.00254656 0.00128425 -1.24546e-17)
(0.00911094 0.00250103 5.90173e-17)
(0.00107662 0.00675117 1.71009e-18)
(0.000419139 7.31337e-06 -5.37334e-20)
(0.000364504 0.000611693 8.25591e-18)
(0.000580248 0.00645273 -1.10009e-17)
(0.00220156 -0.00441764 -2.5364e-17)
(0.00103661 -0.00103003 4.10153e-17)
(0.000323675 -9.13885e-05 -3.79005e-18)
(0.00112506 0.000287677 3.26829e-17)
(0.00313139 -0.000114025 -3.92503e-17)
(-0.00222694 0.00580545 -1.74518e-17)
(0.00411713 0.00108716 3.76041e-17)
(0.00012106 -0.000347277 -1.18082e-17)
(8.72527e-05 -0.000264448 -6.36164e-18)
(0.000320362 1.12342e-07 -3.20925e-19)
(0.00242133 0.00780866 -7.44751e-17)
(0.00101525 0.000299295 2.17385e-17)
(-0.0103954 -0.0002297 -4.6931e-17)
(0.000431091 -0.000180337 1.01218e-17)
(0.000256695 -0.000100627 1.87181e-19)
(-0.00413762 0.00393945 -1.38853e-17)
(0.00392559 0.00121434 -3.71018e-17)
(0.000323313 -3.81802e-05 -1.08391e-17)
(0.000309897 -2.34588e-05 2.77996e-18)
(0.000142603 -0.000659071 -3.47198e-17)
(-0.00550634 -0.00293839 -5.7349e-17)
(0.00476172 -0.000539488 1.44309e-17)
(0.00187403 -0.00364228 -4.9686e-18)
(0.000817669 0.000296762 2.19653e-18)
(0.00211936 -0.00476996 -7.16067e-18)
(0.00501535 -0.000596173 -6.33937e-18)
(4.27803e-05 -0.000341787 -1.75191e-18)
(0.000903318 0.000753593 -1.48193e-17)
(-0.0107806 0.00118878 5.31358e-21)
(0.000377914 -0.000166804 -5.13707e-19)
(-0.00528897 0.00156779 9.96295e-18)
(0.000257655 -0.000100327 -6.78821e-19)
(-0.00581877 -0.00401827 4.75931e-17)
(3.35804e-05 -2.98219e-05 1.23418e-18)
(0.000247392 -0.000435917 -1.05681e-17)
(0.000285867 -7.3029e-05 3.76889e-18)
(5.68284e-05 -0.000190224 -6.59201e-18)
(0.0052375 -0.00153913 -4.77643e-18)
(0.000313223 -5.91775e-05 3.40889e-18)
(2.71791e-05 -0.000921476 -7.82184e-18)
(0.000408721 9.56267e-06 1.68343e-19)
(0.00368799 -0.000712729 -6.37452e-18)
(-0.0106346 -0.000345704 -1.74774e-17)
(0.00212285 0.00116535 2.18775e-17)
(0.000146635 -0.000331483 -1.28255e-17)
(0.00088874 0.000803222 1.24265e-17)
(3.69956e-05 -3.09202e-06 4.51041e-19)
(0.000310776 -0.000763063 -8.84925e-19)
(0.000180085 2.57888e-06 2.3345e-18)
(0.000248354 -0.000407672 3.26689e-18)
(-0.0010498 -0.00155946 2.79238e-17)
(0.000126795 -0.000342481 -1.2928e-19)
(0.000384776 -0.000165203 -5.50316e-19)
(9.52545e-06 -0.000177833 2.19945e-18)
(0.00176902 -0.00352619 -7.82828e-18)
(0.000348604 2.69463e-05 -3.48498e-18)
(0.00516996 0.0068192 1.12928e-17)
(0.00242433 -0.00337695 -1.4813e-17)
(-3.5975e-06 0.00154912 -4.95122e-17)
(4.26364e-05 -2.83143e-06 1.43909e-19)
(0.0027575 -0.000402077 1.02236e-17)
(-0.00643073 -0.00125065 2.67197e-17)
(0.00145837 0.0120007 7.00768e-18)
(-0.00487495 0.00190865 -1.05574e-17)
(0.000678578 -0.000155574 -1.56292e-17)
(0.000275727 -0.000867592 -2.05903e-17)
(0.00496509 -0.00137913 1.84432e-17)
(0.000342894 0.000633933 -3.55921e-18)
(0.00131172 -0.000765591 -2.47941e-18)
(0.000349886 -8.90884e-05 6.8918e-18)
(0.00023715 0.00140161 -1.7148e-18)
(0.00169562 -0.00231958 2.54853e-17)
(0.000547877 -4.01942e-06 -1.91597e-18)
(0.000485569 -5.19895e-05 3.96302e-18)
(-0.00405643 0.00490346 1.13986e-17)
(0.0102333 0.00680553 1.29747e-17)
(0.0183197 0.000185626 -1.00971e-18)
(0.000350882 -2.82015e-06 8.1285e-19)
(0.000110601 -0.000795226 -3.01113e-17)
(8.79919e-05 -2.12412e-05 -6.20342e-18)
(0.00543571 0.00109379 -3.40475e-18)
(0.000906071 -0.00473728 1.317e-17)
(0.000500474 -5.04407e-05 1.17302e-17)
(0.000983941 -0.000354539 -8.10812e-17)
(0.00152515 -0.00249508 -8.38633e-18)
(0.000158766 -0.000147547 -4.4505e-18)
(0.000169835 -0.000503226 2.54119e-18)
(-0.000128391 0.00426896 1.69785e-17)
(-0.00442921 -0.0054473 5.23028e-18)
(0.00011487 -0.000100747 1.0515e-18)
(4.67475e-05 -0.000183045 6.52418e-18)
(0.000140029 -0.000339678 -1.53004e-17)
(-0.0078094 -0.000299078 1.55769e-18)
(-0.00316331 -0.000734065 -5.59266e-17)
(0.00113045 4.18255e-06 -1.48605e-17)
(0.000313878 4.51425e-06 6.18549e-18)
(0.00275715 -0.00455884 -1.27777e-17)
(3.36857e-05 -0.00443384 1.88354e-18)
(0.00338721 0.0018735 5.35397e-18)
(0.000992187 -0.000312706 7.464e-17)
(-0.00852905 -0.000558513 5.32007e-19)
(0.00195395 -0.000960802 2.34545e-17)
(0.000496076 -0.00013103 4.4063e-18)
(0.000724934 0.000252314 3.515e-17)
(0.0151864 0.00425664 -3.51563e-17)
(0.000298601 -1.17115e-05 -1.1409e-18)
(0.000179278 -7.69412e-05 -1.03251e-18)
(0.00361683 0.00174182 -2.57484e-19)
(-1.77137e-05 -0.00023619 -5.0165e-17)
(0.000338729 2.33162e-05 4.64848e-19)
(7.40459e-05 -2.9495e-05 -1.50166e-18)
(0.000190728 2.10324e-06 -2.21757e-19)
(0.000414664 -8.32976e-08 -9.24868e-20)
(0.000720857 -2.23501e-05 -7.95124e-18)
(0.000186213 -7.41786e-05 4.33382e-19)
(-0.0105599 0.00199726 7.71455e-18)
(0.0010408 -2.93212e-05 9.66586e-18)
(0.000244164 -0.000138481 2.54919e-20)
(0.0111112 0.00645976 -5.5475e-18)
(-0.00607025 -0.00227947 -6.41113e-18)
(7.50088e-05 -0.000259232 -7.3587e-18)
(0.0039071 -0.000603672 8.24129e-19)
(0.0050472 -0.000419197 -6.92323e-17)
(0.000158934 -0.00027463 -6.84712e-18)
(6.04291e-05 -0.000269332 9.40134e-19)
(0.0010787 -9.25837e-05 1.34142e-18)
(-0.009772 -0.000941041 2.45268e-18)
(0.00836838 0.00084142 6.96267e-18)
(0.00110421 -0.000763447 6.66572e-18)
(0.000326697 -5.10483e-06 4.64638e-21)
(-0.0036311 -0.00529143 -3.24665e-17)
(0.000166502 -8.62165e-05 -8.97462e-19)
(0.00105379 -0.000888776 3.5753e-18)
(0.00507154 -0.000381145 5.41105e-17)
(-0.00407451 -0.00445113 -3.20831e-17)
(0.000320388 0.000158774 9.75523e-18)
(0.0142072 0.00445752 6.06625e-17)
(-0.000221652 0.00949328 3.38458e-17)
(0.00442452 0.0033601 -1.97945e-17)
(0.00134634 -0.000760561 -5.09094e-17)
(0.000110786 -0.000520485 3.48321e-17)
(0.00126848 0.00119348 -2.34751e-17)
(-0.00439684 -0.0031542 -6.79472e-18)
(-0.00633142 -0.00794669 -1.26216e-17)
(0.000307042 -2.76672e-05 -6.25435e-18)
(0.000380131 0.00156015 1.9734e-17)
(0.007165 7.16152e-05 1.21453e-17)
(9.6746e-05 -0.000990336 1.10367e-17)
(0.000102326 -0.000996929 -1.19563e-17)
(4.02242e-05 -0.000340483 -1.18341e-17)
(0.000936703 -0.000756446 1.96064e-17)
(0.000266028 -0.000248177 6.76839e-18)
(0.0119982 0.00153287 4.1211e-18)
(0.000177252 -0.000556347 -1.88977e-17)
(0.000499112 -1.13232e-05 -2.27547e-20)
(0.000639813 9.35567e-06 6.11464e-18)
(0.000311622 -0.000128644 -3.93143e-18)
(0.0041547 0.0030041 -9.32847e-18)
(3.84772e-05 -0.000950553 1.21784e-17)
(0.000301223 -7.67494e-06 1.01656e-18)
(0.00253051 0.00100349 -4.10951e-17)
(0.000252164 -0.000271559 1.8176e-17)
(0.000343464 -0.000263723 7.87873e-19)
(0.000318167 0.000183275 3.81742e-18)
(-0.0100929 -0.000833508 -2.67354e-18)
(0.00306466 -0.0041463 2.23279e-17)
(-0.00462602 0.00382969 1.03172e-17)
(0.000277523 -7.08707e-05 -9.32426e-20)
(0.0003824 -0.000155143 5.71098e-19)
(0.0163074 0.00143226 1.09559e-17)
(9.20603e-05 -0.000273355 4.31433e-18)
(-0.000386933 -0.00457355 -1.00268e-17)
(0.000492692 -0.000118384 -2.49874e-18)
(0.00106092 -0.000139516 -8.01666e-18)
(0.000257311 -0.000278596 -4.59613e-18)
(9.15333e-05 -2.52633e-05 7.50518e-18)
(0.000254148 -0.000131285 -7.491e-20)
(-0.00114072 -0.00240022 4.77025e-17)
(-7.87855e-05 0.00209084 -6.79804e-17)
(0.00212346 -0.0022356 -1.1291e-17)
(0.0083469 0.00949637 -4.64617e-17)
(0.0158157 0.00218532 -4.46387e-18)
(0.000260084 -0.000103902 1.67523e-18)
(0.00231284 -0.00334257 1.43049e-17)
(0.0062391 0.000387501 -1.80507e-17)
(0.000344893 -3.39723e-05 3.14609e-19)
(-0.0053084 -0.00434562 2.42375e-17)
(0.00257953 -0.000274808 -2.64454e-17)
(0.00439504 -0.000763627 -2.49632e-17)
(0.000312017 -0.00012464 1.18177e-18)
(-0.000726412 0.000698112 1.69018e-17)
(-0.000250671 0.0139052 -1.90068e-17)
(0.00404384 -0.00628137 -2.08254e-17)
(-0.00147351 -0.00167208 5.23711e-17)
(0.00883592 0.00186396 7.11009e-18)
(0.000306414 -3.75012e-05 -2.45244e-17)
(0.00980886 0.0023922 -7.16129e-17)
(-0.00255588 0.000165447 -3.0538e-17)
(0.000564451 -0.000218434 1.30867e-17)
(-9.56697e-05 0.00219263 2.05878e-17)
(0.000585475 -0.00027481 1.01309e-17)
(0.00264003 -0.00330784 4.2607e-18)
(0.000711635 0.00023272 -3.43124e-17)
(0.00014092 0.000813848 3.69501e-18)
(0.00108085 -0.00229219 -3.15761e-17)
(-0.00157789 0.0028998 5.1887e-17)
(4.27802e-05 -0.000103301 -7.12273e-18)
(0.000468424 -0.000154622 -9.63036e-18)
(-6.03258e-05 -0.000192874 -9.41968e-18)
(0.000395172 0.000614343 6.29572e-18)
(0.000274667 -0.000119649 1.44553e-20)
(0.00116613 4.15923e-05 1.35746e-17)
(-0.00417498 -0.00412151 5.19133e-18)
(0.000149136 -0.000181045 1.03637e-17)
(0.000961423 0.000703987 -2.36979e-18)
(-0.00189331 -0.000819307 7.6119e-17)
(0.000361971 -0.000126098 1.23361e-18)
(0.00289545 -0.00515638 -4.59702e-17)
(0.000312734 0.000973317 -1.65226e-18)
(0.00898477 -8.95401e-05 -1.68837e-17)
(0.000380617 -0.000177633 1.0528e-18)
(-0.000327385 0.00123993 -2.23332e-18)
(0.000640501 -0.00207624 6.5711e-18)
(0.00156145 -0.00495904 -1.27263e-17)
(0.000842738 -0.000449609 3.24971e-17)
(0.0183467 8.75359e-05 -8.9939e-19)
(-0.00643418 -0.00105178 -2.79847e-17)
(0.00217465 -0.000150432 -6.17404e-18)
(0.000173147 -0.000148227 3.14767e-19)
(-0.000773448 -0.00229292 -4.68156e-17)
(0.000539714 -0.000314208 -3.04022e-17)
(-0.000670905 0.000876113 -2.00583e-18)
(0.000307536 2.28473e-05 7.32449e-18)
(0.000621999 0.000223531 4.75015e-18)
(-0.0050789 -0.0046113 7.04497e-18)
(-0.00656496 -0.0130192 1.01907e-16)
(0.000378567 -0.000151276 1.27726e-18)
(0.00122987 -0.00244525 8.07626e-18)
(0.00765044 0.00630234 3.60005e-17)
(-0.0029502 -0.000832158 6.3465e-17)
(0.000398034 -7.4577e-06 -3.01345e-18)
(0.000717075 0.000937204 3.03847e-17)
(-0.00320847 0.00299129 -1.86755e-17)
(-0.00708014 0.0028141 -5.99243e-17)
(0.000355033 -8.55016e-05 -5.98876e-18)
(-0.00081075 -0.00539373 -9.20866e-18)
(9.47454e-05 -0.000115691 -3.25133e-18)
(0.00025037 -5.95436e-06 -3.00074e-20)
(-0.00799447 0.00045626 -1.32674e-17)
(0.00816387 0.00522446 -6.91964e-18)
(5.77197e-05 -2.24647e-05 -3.89578e-18)
(0.000406383 -0.000112537 1.19168e-17)
(0.0010197 0.000696641 -2.34592e-18)
(0.00039215 -3.0718e-05 -2.59814e-19)
(-0.00663872 -0.0044465 1.12503e-17)
(0.000995845 -0.000768198 -4.65649e-18)
(0.00245565 -0.000306935 1.64406e-17)
(0.000438901 0.000154573 -3.08646e-18)
(0.000307084 -3.99723e-05 1.32778e-17)
(1.09223e-05 -0.000246553 -2.73388e-17)
(0.00366352 -0.00504401 -1.13399e-17)
(0.000237606 -0.000149264 -4.89186e-19)
(6.10004e-06 -0.000233203 2.87079e-17)
(0.0120039 0.0152966 2.58593e-18)
(-0.00508705 -0.00395508 -3.46291e-18)
(0.00029629 -7.44102e-05 8.67547e-19)
(2.60454e-05 0.0119643 3.76961e-18)
(1.30991e-06 -0.000155424 9.33853e-18)
(0.000196771 -6.92088e-05 -1.67808e-20)
(0.000364072 -0.000135543 -5.24655e-18)
(0.0019676 -0.00240259 1.84305e-18)
(0.000209153 0.00092928 -1.22487e-17)
(0.000244236 -0.000123359 -3.46879e-20)
(0.000333264 -8.46109e-05 9.32188e-18)
(0.00142174 -0.000346866 3.20267e-17)
(0.000374033 -6.63706e-05 5.63103e-18)
(0.00904529 0.0055176 -2.63041e-19)
(0.000198243 -6.64893e-05 3.3268e-18)
(0.000376691 0.000369781 4.06717e-18)
(-0.00014671 0.0114786 -7.83313e-18)
(0.000345621 -0.000301948 7.89927e-18)
(0.000592452 -2.13426e-06 5.33966e-19)
(0.000150556 -0.000120306 -9.54538e-19)
(0.000439211 0.000135603 3.70776e-18)
(0.000320359 -2.34069e-05 -1.40538e-17)
(0.000900973 0.000179707 -2.21252e-18)
(0.0102158 0.0138894 -4.94725e-18)
(0.000699867 -0.000145798 1.12583e-17)
(-0.0002452 -0.0012651 -1.07498e-17)
(0.000372193 -0.00014156 4.78297e-18)
(0.00016501 -3.93442e-05 -1.08267e-18)
(-0.00561375 -0.0035709 1.2834e-17)
(0.000939609 0.0130903 8.88433e-18)
(0.000215936 -0.000385825 -2.70979e-17)
(0.000176624 -0.000212103 -1.64982e-18)
(-0.00514051 -0.00288137 -9.52145e-20)
(0.000151477 -0.000403339 2.23785e-18)
(-0.00425937 -8.75494e-06 3.05916e-17)
(0.000135172 -0.000215335 7.01153e-19)
(0.000379053 -0.000283948 2.46947e-17)
(-0.0014912 -0.00199361 -4.59492e-17)
(0.000550984 0.000586484 1.60108e-17)
(-0.00382595 -0.00353728 3.73551e-17)
(0.00803861 0.00679236 -4.60135e-17)
(-0.00621181 -0.0136567 -1.07633e-16)
(0.000212527 -0.0002076 6.53034e-18)
(0.00136653 -0.000493188 6.06416e-17)
(0.000186799 -0.00016327 -1.59736e-18)
(0.0085334 0.00744952 2.12258e-17)
(0.000356034 0.000956061 6.1259e-18)
(0.00393354 0.00139921 -2.48453e-18)
(0.000549243 -0.000297854 1.80049e-17)
(0.000276305 -6.77041e-05 1.87102e-18)
(0.000353053 -0.00027943 3.25064e-18)
(0.000921482 -0.000694373 -2.03081e-17)
(0.000290174 -6.22554e-06 -5.60933e-21)
(-0.00405395 -0.000518507 4.24338e-17)
(-0.00593953 -0.00344286 -1.98944e-17)
(0.00910914 0.00640656 -1.53889e-17)
(0.00307224 -0.00100488 -5.82376e-17)
(0.0102994 0.014883 2.50996e-18)
(0.00472047 -0.00120486 -7.40558e-17)
(0.000426994 -0.00492408 -9.54467e-18)
(0.000164404 -0.000313412 4.49499e-18)
(4.2078e-05 -9.35504e-05 1.10125e-18)
(-7.36446e-05 -0.0052724 9.68383e-17)
(3.85389e-05 -2.41933e-05 -1.29918e-17)
(0.000250488 -0.00012108 -8.21557e-20)
(0.000190456 -0.000323269 1.32947e-17)
(0.0028527 0.00130338 -5.30337e-18)
(0.000405215 -5.95208e-05 1.15633e-17)
(0.000132932 -0.000294367 -6.31144e-18)
(0.000952112 -0.000155818 -1.17453e-17)
(0.000581195 -0.000568446 1.48788e-17)
(9.00029e-06 -2.477e-05 5.03746e-19)
(-0.00604753 -0.00200952 1.27581e-18)
(0.000222258 -0.000142678 -1.71803e-19)
(-0.00319873 -0.00429496 -2.01348e-17)
(0.00104069 0.000319951 -5.84178e-18)
(0.000215768 -8.16751e-05 3.16128e-19)
(0.000365803 2.62239e-05 6.57612e-18)
(-0.00518443 0.000601895 -6.73784e-18)
(-0.00595737 -0.0047896 6.35366e-18)
(0.000338872 2.67651e-05 2.51051e-18)
(0.0119508 0.00726482 -4.10417e-17)
(0.00265154 -0.00531489 -1.02589e-16)
(0.000355822 2.5494e-05 -1.58139e-18)
(0.0061414 -0.0021262 4.67949e-17)
(-0.00159868 -0.00491569 3.76829e-18)
(0.00346326 -0.00109479 -4.44738e-17)
(0.000208163 -0.00021657 -1.06551e-17)
(0.0117993 0.0160984 3.60439e-19)
(-0.000678175 -0.00130762 -3.47286e-17)
(0.000335647 2.447e-05 3.95074e-19)
(0.00132132 0.00267189 3.03731e-17)
(0.00025748 -7.34494e-05 -1.34563e-18)
(0.000219189 -0.000145309 4.37142e-20)
(0.0127822 0.00338573 -1.7144e-18)
(0.00272858 -0.00313946 -3.12631e-17)
(0.000585432 -0.000410486 -4.17786e-18)
(0.000196298 0.00090343 1.11918e-17)
(3.0822e-05 -2.52273e-05 2.66788e-18)
(0.000258742 0.00137885 1.64223e-17)
(-0.00269833 -0.00431805 -1.8345e-17)
(0.000751067 0.00013334 -4.40279e-17)
(0.000322816 -1.57585e-05 -1.7929e-18)
(0.00626706 -0.000340597 -3.32619e-17)
(0.000262856 -0.00012647 -9.43789e-20)
(0.00025964 -6.37461e-05 1.03725e-18)
(0.000877094 -0.000454614 -3.44394e-17)
(0.000286477 0.000438156 3.17707e-17)
(0.000391438 -6.71363e-07 -2.62867e-19)
(0.000275217 -7.56898e-05 1.26445e-18)
(0.00543762 -0.00275076 1.16221e-18)
(-0.00177795 0.00275662 9.18305e-18)
(0.00582193 -0.00222674 -2.81076e-17)
(0.000393201 -6.25318e-05 7.98777e-19)
(9.72467e-05 -2.30392e-05 1.37997e-18)
(-0.00764335 0.00058623 -1.9286e-18)
(7.87792e-05 -0.000141313 2.56264e-18)
(-0.000219866 -0.00249549 1.06867e-16)
(0.000458145 0.000265856 3.87185e-18)
(0.000467129 0.000553283 -8.21693e-18)
(0.000650235 -0.000201689 1.48458e-17)
(0.00207348 0.0136735 1.73057e-18)
(0.00231683 -0.00109342 -2.64914e-17)
(0.000442553 -0.000165693 1.51755e-17)
(-0.00145955 0.000808756 -3.38311e-17)
(0.000326796 0.000124868 1.20136e-17)
(0.000710804 -0.000787232 -1.72583e-18)
(0.00525675 0.0101889 -2.75432e-18)
(-0.00925313 0.00126669 -8.04143e-18)
(0.000242609 -0.000127671 7.00812e-20)
(0.000165416 -0.000160826 7.50319e-19)
(0.000221671 -0.000520395 6.78171e-18)
(0.00522171 -0.00252019 1.01481e-17)
(-0.00814749 0.00902619 -3.08814e-18)
(0.00021607 0.0013201 -9.93687e-18)
(-0.00039883 -0.00618402 -7.20682e-17)
(0.00027485 0.000454453 -2.79155e-17)
(0.000676718 0.00025686 6.96988e-19)
(-0.000355125 -0.00163523 9.59692e-17)
(-0.00534606 -0.00450845 -1.52246e-17)
(0.00122374 -0.000372659 -4.79822e-18)
(-0.00378154 -0.00409763 -7.17986e-18)
(0.00506899 0.00395508 3.16281e-17)
(0.0133758 0.00552821 6.36741e-19)
(0.000297657 -1.90673e-05 7.98514e-18)
(-0.00195248 0.016351 -3.02279e-17)
(-0.000693349 -0.00632165 -1.55366e-17)
(0.000151393 -7.96219e-05 1.62009e-18)
(0.00328333 -0.000254743 -1.36724e-17)
(-0.000646887 0.00314636 -1.3193e-17)
(0.000331747 -9.70222e-05 -4.42185e-18)
(0.00114637 0.000371954 -1.41708e-18)
(0.000212112 -0.000202105 7.19781e-19)
(-0.000131562 -0.00104303 4.66283e-18)
(0.000343803 0.000386054 -1.74967e-17)
(0.000207347 0.000288991 -1.98207e-16)
(0.000235666 -0.000153343 -3.16891e-19)
(0.000181387 -9.27628e-06 -1.6208e-19)
(9.83816e-05 -0.000329579 -1.87733e-18)
(0.00055513 -0.000553278 2.61664e-18)
(0.000214709 -6.72353e-05 -1.66336e-18)
(0.00316692 0.00117858 2.12802e-17)
(0.0001891 -1.14756e-05 9.17813e-20)
(0.0049139 0.00369126 -2.75202e-17)
(0.000190078 -0.000231124 -5.84916e-18)
(-0.000776626 0.000967966 9.58406e-18)
(0.000155012 -0.000213393 3.43088e-18)
(1.024e-05 -2.65137e-05 -2.81254e-18)
(0.000351969 1.53176e-05 2.22871e-17)
(0.00625365 -0.000374545 7.59643e-17)
(0.000774159 -0.000488852 5.53867e-18)
(0.00224025 0.000865773 -4.64844e-18)
(0.00036441 -0.000281863 -2.66392e-17)
(0.000350636 -3.56399e-05 1.1961e-18)
(0.000321824 -3.57133e-05 8.69038e-18)
(0.000835625 -0.000717149 9.15754e-18)
(0.00032706 -8.00613e-05 -3.10835e-19)
(0.000644159 -0.000896438 5.23053e-17)
(0.000422894 -7.68762e-05 5.66045e-18)
(0.000203241 -0.000380375 2.23417e-18)
(-0.00344567 0.0154862 5.38822e-18)
(4.14199e-05 -0.000143899 4.7504e-18)
(0.0187572 -0.000604239 -1.09269e-17)
(3.70709e-05 -1.11763e-05 -2.1113e-18)
(-0.00214446 0.000621441 1.75743e-17)
(-0.00182255 0.000785424 -3.70525e-18)
(-0.00610085 0.00872094 3.68795e-18)
(4.08572e-05 -0.000362262 -5.19624e-17)
(0.000278966 0.00197522 2.03782e-16)
(0.000908015 -0.000197924 1.34961e-17)
(0.00163142 0.00149529 1.09327e-17)
(-0.000282063 0.00272386 2.41169e-18)
(0.000316266 -2.06424e-05 7.32486e-18)
(-0.00566105 -0.00230473 2.45849e-17)
(0.000267759 -0.000261126 -6.37267e-18)
(0.000580111 -0.00023499 -2.83478e-17)
(0.00280733 -0.00116111 -1.33766e-17)
(0.00277627 0.00856125 1.5843e-17)
(0.00036191 -3.37579e-05 1.66253e-18)
(0.000627585 -0.000929034 -5.42083e-17)
(0.000319478 -3.30657e-05 2.98227e-18)
(0.0141059 0.00474794 -8.68096e-18)
(0.00346606 -8.78601e-05 -9.95469e-18)
(0.000268874 -2.79613e-05 -2.72978e-18)
(0.000117495 -0.000662808 1.50415e-17)
(-0.00708803 -0.00475746 -1.24025e-17)
(3.5905e-05 -5.94618e-06 -3.84098e-18)
(3.72378e-05 -1.78569e-05 -7.81369e-20)
(-0.000556703 0.00124894 1.43842e-17)
(0.018817 -0.000534142 2.31603e-17)
(0.0121486 0.0169434 1.16819e-17)
(5.50621e-05 -0.000261248 -2.68014e-18)
(0.000658462 -0.00215386 -1.02193e-16)
(0.000372944 -6.61421e-05 5.72733e-18)
(2.05592e-05 -3.25514e-05 -1.06637e-17)
(-0.00626644 0.0159633 -9.08239e-18)
(0.000785736 -0.00235296 1.21593e-16)
(-0.000567395 0.00168234 -1.18484e-17)
(0.000432694 -5.09162e-06 1.5953e-18)
(0.00020839 0.00423359 -7.82044e-18)
(0.00040491 -0.000429414 4.04148e-18)
(-0.000191729 0.00109789 -5.67596e-18)
(5.20309e-05 -0.000331893 2.35531e-18)
(0.000251487 -0.000108233 1.75667e-19)
(0.000374555 0.000318347 2.59763e-18)
(0.000101551 -0.000327802 -1.14546e-17)
(-0.000627608 0.00479782 -7.40345e-18)
(0.00118309 -9.2989e-05 -2.3308e-17)
(0.00114194 -0.000203374 -1.30289e-17)
(0.00112859 -0.000343456 -3.19067e-18)
(0.00131406 -0.00245917 -2.99383e-17)
(-0.00232532 -0.00387365 1.51396e-17)
(0.00201895 0.000127071 -7.51851e-19)
(0.0122534 0.00544691 6.21969e-17)
(-0.00214473 0.00537629 -6.81814e-18)
(-0.0109605 -0.00062246 -2.07607e-17)
(0.000453892 -0.000145626 4.04097e-18)
(0.0131618 0.00493756 3.55919e-18)
(0.00370175 -0.000997071 6.41176e-17)
(0.000305685 7.85736e-06 -5.65449e-18)
(0.000655976 0.000240171 -1.19327e-17)
(-0.00217671 -0.00323319 -1.65011e-17)
(0.000303995 -9.52839e-05 -7.8081e-18)
(0.000218688 -5.97478e-05 -3.68009e-19)
(0.000224372 -5.47089e-05 5.46123e-19)
(-0.00213731 0.00122033 -4.18809e-18)
(0.00980723 0.00139768 -3.70445e-18)
(0.000394805 0.000369915 6.43706e-19)
(0.00282561 -0.00306999 -9.8315e-18)
(0.000370107 -4.15505e-05 -1.37554e-18)
(0.0119454 0.0169876 -1.61988e-17)
(0.000950331 -0.00063697 -6.39313e-18)
(0.00503441 -0.000361671 -2.31499e-17)
(0.0006181 -0.000975766 -1.97537e-17)
(0.000388849 -0.000187248 -7.4705e-19)
(0.000410889 -8.87183e-05 1.02402e-17)
(0.00505368 -0.000274537 -8.8161e-19)
(-0.000898855 0.00161718 -4.01365e-18)
(0.000441967 -0.000135077 2.60439e-19)
(0.00855835 0.0057599 1.25902e-17)
(0.00030745 -3.39161e-05 -1.64477e-18)
(0.00497407 0.0022662 4.77029e-18)
(-0.00232231 0.000985922 -3.79169e-18)
(0.0050488 0.00328594 4.48074e-18)
(0.000467599 -0.000314304 -2.68056e-17)
(-0.00662208 0.00364467 -5.95666e-17)
(9.50762e-05 -0.00011265 2.58882e-18)
(3.18041e-05 -1.67751e-05 -9.56665e-19)
(4.70232e-05 -0.000341646 9.52672e-18)
(2.27056e-05 -3.8073e-05 3.91083e-18)
(0.00339757 0.0102552 1.01843e-17)
(0.000407189 1.37254e-08 -1.2488e-19)
(-0.00758873 0.0146223 1.38841e-17)
(-0.00856239 0.000338413 1.21358e-17)
(0.000627361 -0.00101745 -3.74856e-19)
(0.000749353 0.000638673 -1.7638e-18)
(0.00401054 -0.000823648 -7.16934e-17)
(0.00534482 0.00316069 -4.65039e-18)
(0.00167475 0.00182551 -8.92433e-18)
(5.61517e-05 -0.00035799 1.00576e-17)
(-2.23267e-06 -0.000164978 -1.52036e-18)
(4.56845e-05 -0.000162087 3.07469e-18)
(0.000404096 -1.89891e-06 -1.1096e-19)
(0.000316638 -3.12491e-05 -8.6067e-18)
(0.000205661 -1.02278e-05 1.46678e-19)
(0.000794403 -0.000806186 -1.10721e-18)
(0.000545779 -0.000214782 -2.35422e-17)
(0.000422563 -0.000453485 -4.23288e-18)
(-0.00622023 -0.00604501 -5.3851e-18)
(0.000266698 -5.48523e-05 1.02518e-18)
(-0.0109016 0.00156941 8.27984e-19)
(7.01062e-07 2.33244e-06 -1.23546e-18)
(-0.00216386 -0.0013494 4.45369e-17)
(0.000225688 -0.000279793 -7.41017e-19)
(1.86316e-05 1.76598e-06 3.61144e-18)
(7.27635e-06 -0.000193374 3.80324e-18)
(-0.00730312 0.00757332 -2.27608e-17)
(0.0004201 -0.000188072 -2.2668e-18)
(0.00468899 0.0102284 2.02381e-18)
(-0.000143929 0.00248653 -2.09828e-17)
(0.00104428 0.000416391 4.047e-18)
(0.00175943 -0.000183764 -3.4536e-17)
(0.000341481 4.07597e-05 -4.10679e-18)
(-0.00282617 -0.00461993 1.35899e-17)
(0.000241793 -0.000168925 3.53008e-18)
(0.000412646 -6.89053e-05 -4.7007e-19)
(-0.00469718 0.0159119 -4.67276e-18)
(9.88217e-06 -0.000163506 1.06723e-17)
(0.00014927 -0.000283979 1.08857e-17)
(0.000310448 -4.6426e-05 -1.77334e-18)
(0.000451077 0.000956849 -1.6951e-17)
(0.00406827 0.00166268 -1.02707e-17)
(0.00037167 -0.000244172 -3.7604e-18)
(0.000501837 -0.000312385 -3.18146e-17)
(-0.00287346 0.00365937 -3.1126e-18)
(0.00108549 -8.71586e-05 5.22081e-17)
(0.000101258 -0.00035365 1.7242e-17)
(0.000281771 -0.000156968 -5.90019e-19)
(0.00906637 0.00898494 -3.21097e-19)
(0.000415736 -1.31324e-06 4.08351e-19)