/*--------------------------------*- C++ -*----------------------------------*\
| =========                 |                                                 |
| \\      /  F ield         | OpenFOAM: The Open Source CFD Toolbox           |
|  \\    /   O peration     | Version:  v2012                                 |
|   \\  /    A nd           | Website:  www.openfoam.com                      |
|    \\/     M anipulation  |                                                 |
\*---------------------------------------------------------------------------*/
FoamFile
{
    version     2.0;
    format      ascii;
    class       volScalarField;
    location    "250";
    object      k_0;
}
// * * * * * * * * * * * * * * * * * * * * * * * * * * * * * * * * * * * * * //

dimensions      [0 2 -2 0 0 0 0];


internalField   nonuniform List<scalar> 
13851
(
0.000203717
0.000155222
0.000155015
0.0193137
0.000148436
0.000157775
0.000156298
0.000147733
0.0530277
0.000148446
0.00017721
0.000148472
0.000149051
0.0296446
0.00017041
0.000204696
0.0166401
0.00014884
0.000273994
0.00020352
0.000173465
0.000156401
0.0336881
0.000149734
0.0425205
0.000186782
8.2114e-05
0.0257498
0.0496435
0.000146892
0.0436651
0.000156263
0.000203739
0.0706237
0.000170409
0.0493633
0.00014981
0.034454
0.0651073
0.000149032
0.0704204
0.0520426
0.00600835
0.000222574
0.0550757
0.000147824
0.00014557
0.00020467
0.000152959
0.000149005
0.0247228
0.000149257
0.000204717
0.000165846
0.027959
0.000149025
0.000204014
0.0677647
0.000105087
0.0298813
0.00014852
0.000208422
0.000148604
0.000153235
0.00018154
0.000182154
0.0241798
0.000166292
0.000149369
0.0278398
0.0392139
0.000177785
0.000148587
0.0266212
0.000167259
0.000153064
0.0218714
0.000146079
0.0297164
0.000147825
0.000149452
0.000249055
0.000169883
0.0314764
0.0312858
0.0426056
0.000156668
0.0215011
0.000148426
0.0435554
0.00014937
0.000156435
0.00941164
0.0385268
0.059383
0.00020048
0.000147937
0.000206311
0.0259653
0.000195264
0.000207918
0.000162064
0.000163086
0.000148847
0.000147859
0.000176142
0.000147844
0.041451
0.000156394
0.000148683
0.000160071
0.000147848
0.000204646
0.000179711
0.000203819
0.000164936
0.000146599
0.000147223
0.0168381
0.0312526
0.000190451
0.000147922
0.000149256
0.0489958
0.000227043
0.000172327
0.00014793
0.000171898
0.0651314
0.000176946
0.00015631
0.000163063
0.0130729
0.0693415
0.000177873
0.0589663
0.000165948
0.0412627
0.000160224
0.000176946
0.000236574
0.000150592
0.000148448
0.000171124
0.044613
0.00015255
0.000146005
0.0390506
0.042813
0.000172573
0.000207541
0.000203051
0.000180862
0.000226567
0.000149583
0.000148696
0.000148609
0.0612404
0.000174731
0.000154659
0.000149584
0.0496033
0.000175699
0.000204742
0.0302955
0.0572927
0.0584895
0.0293254
0.000159899
0.0794966
0.000148622
0.000146576
0.000180025
0.000148827
0.0628264
0.000170651
0.000211281
0.000146511
0.000167318
0.00021015
0.000226734
0.000217884
0.000159423
0.000176717
0.00692583
0.0436021
0.000203718
0.000157517
0.000149389
0.000147348
0.0284099
0.000174672
0.0243529
0.000158013
0.000152284
0.000205533
0.000202998
0.000150055
0.000149951
0.000167138
0.000235714
0.0637119
0.0679974
0.000170432
0.000272846
0.059765
0.00015232
0.000177073
0.0542319
0.000156782
0.000203892
0.000149192
0.000244655
0.000149538
0.000171114
0.000154212
0.000148917
0.00022174
0.000150094
0.000495954
0.000146476
0.000203311
0.0268982
0.0607201
0.00015717
0.000177372
0.000149744
0.000169648
0.000148107
0.000170705
0.0321488
0.000157104
0.000156747
0.000148722
0.0658762
0.000146888
0.0171244
0.0668959
0.000191618
0.000149645
0.000393331
0.031953
0.0556812
0.00020395
0.000166378
0.000174777
0.000219833
0.000167614
0.000199452
0.000161496
0.0231734
0.000202449
0.000147213
0.000158304
0.000206786
0.0480953
0.0250602
0.000147284
0.000172746
0.000148396
0.0002178
0.000225989
0.000158944
0.000176284
0.000203051
0.000148296
0.000162354
0.000199946
0.0129436
0.000148519
0.000148895
0.000157308
0.0622577
0.011698
0.000176302
0.000148095
0.00022597
0.000225936
0.00020029
0.000175948
0.0609408
0.0255361
0.000159224
0.000167558
0.0326733
0.000147865
0.000148601
0.00020096
0.000174081
0.000146969
0.000149518
0.000148062
0.000147884
0.000166497
0.000148558
0.0546776
0.000174608
0.00014851
0.0478744
0.0463611
0.000149331
0.000203858
0.0250128
0.000150831
0.000149415
0.000175704
0.0294076
0.0748233
0.000182961
0.000148353
0.0768252
0.000148572
0.00018455
0.030081
0.0109315
0.000154335
0.0201733
0.00133293
0.0462774
0.000202135
0.000162371
0.0640006
0.0552725
0.0213421
0.000150197
0.0239318
0.00821791
0.000212039
0.000207119
0.000152344
0.000182153
0.000157976
0.0227555
0.000163906
0.000147033
0.000144896
0.00015854
0.0429941
0.000375235
0.000147795
0.0581469
0.000158013
0.000163316
0.000154925
0.0251156
0.000226086
0.000205729
0.000153807
0.000156049
0.0475789
0.000149417
0.000230152
0.00015913
0.000175607
0.000158594
0.000148413
0.00014849
0.000198199
0.000198581
0.00020284
0.00372717
0.0485887
0.000152679
0.0648056
0.000227047
0.000146968
0.0127972
0.000192624
0.0305511
0.000158017
0.000188212
0.000128851
0.027885
0.000196247
0.0254971
0.000151341
0.000134954
0.00652086
0.00016334
0.0282238
0.00016563
0.0701401
0.000167174
0.000174228
0.000201963
0.000211713
0.000148705
0.000158474
0.000175105
0.000167585
0.000147972
0.000176664
0.0704191
0.000148574
0.000177063
0.0119929
0.000154583
0.00192655
0.000176803
0.0782403
0.000157478
0.000185377
0.000309431
0.000232836
0.000175517
0.0212737
0.0269099
0.000382018
0.000148322
0.000197402
0.000165601
0.000187861
0.000147942
0.00702018
0.0755266
0.0325873
0.000155994
0.000202673
0.000171121
0.0127956
0.000145691
0.0177255
0.000219666
0.0322806
0.000162125
0.0336536
0.000148626
0.000148751
0.0239284
0.000156689
0.000148463
0.000155248
0.000177484
0.000146796
0.0731612
0.000182528
0.000192113
0.000158445
0.00015138
0.000149308
0.0159831
0.000148461
0.000149235
0.0385215
0.0694408
0.00015576
0.000250188
0.000148642
0.000148546
0.000155143
0.000203213
0.000176702
0.000148062
0.000152156
0.000189643
0.000153563
0.0780235
0.000148434
0.000161285
0.0558406
0.00016089
0.000145242
0.000148742
0.000158273
0.000150625
0.000343306
0.046228
0.000166632
0.000585941
0.00015527
0.000148349
0.0624964
0.000146342
0.000160194
0.000148698
0.0529894
0.000159637
8.72624e-05
0.000148845
0.000163447
0.000197147
0.000168994
0.0592742
0.00016124
0.0253087
0.000152779
0.000203513
0.000148302
0.048209
0.000176654
0.000202977
0.000165432
0.000153474
0.000160933
0.000180534
0.00014851
0.0133255
0.0604952
0.079235
0.00724905
0.0444946
0.0328036
0.000230572
0.000156667
0.000149343
0.00443517
0.000148446
0.000147941
0.000157843
0.0655447
0.000154944
0.000150565
0.000173661
0.000174322
0.000148492
0.0858272
0.000147914
0.0668998
0.000308322
0.000147825
0.00015401
0.000224502
0.0148751
0.000146982
0.0620317
0.0169223
0.000147362
0.0548532
0.0002696
0.000202924
0.000152726
0.0364277
0.0304679
0.000147623
0.000243469
0.0001493
0.000147939
0.0303606
0.0709955
0.00016989
0.000176075
0.000148455
0.000182651
0.066992
0.061399
0.000148367
0.0230881
0.000148025
0.000149381
0.000175748
0.000161516
0.000145662
0.000153054
0.0568215
0.000208965
0.0532826
0.000154331
0.000148384
0.0623267
0.000149148
0.000198407
0.000160976
0.000167231
0.000166058
0.0561036
0.0302
0.000157868
0.0165657
0.000153779
0.000181524
0.0530163
0.0340577
0.000149196
0.00014833
0.000163382
0.0546009
0.000249394
0.000182251
0.00704864
0.000161721
0.000166316
0.0393029
0.0872981
0.000182146
0.0650879
0.000216441
0.0507478
0.000150752
3.52168e-05
0.015111
0.000148472
0.0105832
0.0885279
0.000159923
0.000176886
0.000148895
0.000502846
0.000175641
0.0537632
0.000148481
0.000149021
0.0001554
0.000173835
0.000148496
0.0624578
0.000148981
0.000215359
0.000152745
0.000188379
0.000148827
0.000148518
0.000167607
0.0233063
0.000175136
0.0570978
0.000163476
0.000146876
0.000147714
0.000180239
0.000152112
0.000189763
0.000155763
0.000159908
4.43724e-05
0.000149157
0.020903
0.00014967
0.00019459
0.019023
0.0579003
0.000156943
0.0457491
0.000173067
0.000204968
0.088022
0.000148779
0.0883362
0.000158081
0.000164223
0.00919639
0.00349336
0.000147143
0.000189177
0.000149954
0.0489597
0.0256165
0.000149802
0.000167016
0.075948
0.000149741
0.000149663
0.000187029
0.0175777
0.0263829
0.00014943
0.000201583
0.000153116
0.000148549
8.7811e-06
0.000202188
0.000194406
0.000145421
0.000200023
0.000163821
0.000183678
0.000150574
0.000151992
0.000174361
0.000155196
0.000202385
0.000177728
0.000177555
0.000178602
0.000232446
0.000266316
0.0587796
0.0529263
0.000206033
0.0381942
0.000163512
0.0341032
0.000203946
0.000148541
0.00016568
0.000230147
0.0001576
0.000147825
0.000147773
0.000194802
0.0227448
0.00016151
0.0637722
0.000146914
0.0306947
0.000178288
0.0237573
0.000188653
0.000157661
0.000155067
0.0278227
0.000194649
0.000163164
0.000157703
0.000151007
0.00308423
0.00019493
0.000215654
0.000164615
0.000286874
0.000148616
0.000149612
0.000151896
0.000148564
0.0530216
0.000147875
9.41247e-05
0.0611547
0.000189203
0.0632267
0.0288225
0.000217646
0.000209342
0.000156745
0.000149134
0.00014882
0.000146094
0.000147677
0.000148843
0.000182062
0.000203785
0.000164608
0.0174095
0.000151972
0.0528338
0.000149954
0.0223724
0.000168568
0.000149881
0.000148818
0.0580841
0.000158019
0.0273363
0.0886841
0.000175961
0.000185106
0.000147197
0.0695702
0.000153651
0.000155038
3.60727e-05
0.000149159
0.000150558
0.000148502
0.000176621
0.0244645
0.000161172
0.000165133
0.000224913
0.0577138
0.000157098
0.00015646
0.0524885
0.00014604
0.0514706
0.000149289
0.000153649
0.0266291
0.000190685
0.000203322
0.000184202
0.000175433
0.000149476
0.000149954
0.000182817
0.000150923
0.00014953
0.000162327
0.000218199
0.000147779
0.000200433
0.00116499
0.020231
0.000183986
0.0436765
0.000160457
0.000149102
0.000194821
0.000147009
0.000158608
0.0549896
0.0482248
0.0879934
0.053799
0.000149998
0.000149661
0.000169149
0.00015166
0.000147734
0.026765
0.000218675
0.0299567
0.000194812
0.000191119
0.000148613
0.000146945
0.00427538
0.000192039
0.000154266
0.000149659
0.000203387
0.000207568
0.0654699
0.000149536
0.000148935
0.0209511
0.000150519
0.000165851
0.000146801
0.0670537
0.000148159
0.0214064
0.000148497
0.000188841
0.000171414
0.000168776
0.000164975
0.000148581
0.000155204
0.000148026
9.90601e-05
0.000150537
0.0295509
0.000151243
0.0325473
0.0630789
0.000163197
0.000147888
0.0134219
0.0465239
0.00015847
0.000190615
0.000148808
0.019937
0.000148666
0.00023224
0.000148403
0.000148004
0.0225778
0.000166319
0.000148677
0.000166371
0.0652062
0.000454172
0.0781175
0.000147249
0.0408466
0.000148485
0.000147823
0.00014958
0.000144505
0.000149531
0.0823994
0.0591565
0.00015014
0.000148954
0.000170374
0.000147864
0.0168706
0.000195996
0.0336822
0.0653405
0.000155114
0.000202361
0.000148431
0.000173201
0.00017538
0.000148672
0.000149349
0.000606895
0.0273475
0.000184531
0.00818177
0.000183699
0.000148628
0.000170991
0.000191047
0.0201553
0.000165396
0.00391133
0.000192655
0.000149457
0.057516
0.0550071
0.0299464
0.0182609
0.0289774
0.000152725
0.000174525
0.000149241
0.00217311
0.000157091
0.000147053
0.080281
0.000151724
0.000147892
0.000149213
0.000151408
0.0638331
0.000229677
0.000147291
0.000171458
0.0298669
0.000152249
0.0074602
0.000151655
0.00018953
0.0696885
0.000148581
0.000213193
0.000160082
0.000164299
0.000480112
0.000151712
0.000245456
0.000185031
0.0692298
0.000150437
0.0274562
0.000162865
0.0412237
0.0214883
0.0222371
0.00017609
0.000148664
0.000150068
0.00014974
0.000172921
0.000148762
0.061307
0.000158762
0.000156619
0.00015694
0.000152622
0.000147185
0.000160386
0.000158263
0.000153979
0.000157425
0.0855835
0.000100023
0.000162494
0.000169544
0.0801328
0.000150655
0.0460034
0.000146075
0.000161143
0.000150558
0.000148487
0.000166737
0.000148322
0.000147243
0.000162393
0.000148741
0.000214142
0.000151698
0.00934602
0.00411126
0.000220854
0.000229812
0.000149543
0.0597034
0.000207466
0.000149476
0.000158063
0.000150349
0.0493676
0.000151632
0.00016257
0.0124522
0.0098569
0.000177586
0.000149647
0.0564538
0.00881991
0.0328229
0.000159993
0.000146829
0.0001483
0.000183045
0.00014864
0.0261078
0.000199013
0.000149277
0.000228031
0.000217565
0.000148396
0.0868413
0.0194258
0.000217701
0.000151507
0.0558669
0.000181895
0.000148069
0.0244365
0.000156282
0.000148169
0.000147929
0.00016615
0.000173127
0.0573782
0.046706
0.000173818
0.0586349
0.000167589
0.000148461
0.000168514
0.000147796
0.00202061
0.000148512
0.000148189
0.000153315
0.000150821
0.0621212
0.0227016
0.000244276
0.0293386
0.0856389
0.00015718
0.000148624
0.000151697
0.000248661
0.000148442
0.00014858
0.000169203
0.0378354
0.000164399
0.000145951
0.000165555
0.000165282
0.000202568
0.0070433
0.000147377
0.000145542
0.000154134
0.0210768
0.000162268
0.0669237
0.000151933
0.000149015
0.00014823
0.000147921
0.000154195
0.000217254
0.0511914
0.0569256
0.000156933
0.000148356
0.00177051
0.000150658
0.0430844
0.0374847
0.000158226
0.0264085
0.0519508
0.0393674
0.000181073
0.000165191
0.0453997
0.000163375
0.000160402
0.000169474
0.000205789
0.000150747
0.000482335
0.000148485
0.0500258
0.0295572
0.000146103
0.000152903
0.000167002
0.000237532
0.000166423
0.000148865
0.000161261
0.000151579
0.000158122
0.000238057
0.000149026
0.0497167
0.0244621
0.000148526
0.000164238
0.000172755
0.000148508
0.0470739
0.0119779
0.0617499
0.0350852
0.000148243
0.000154526
0.000157397
0.000149618
0.000242433
0.000166858
0.000149687
0.000183859
0.000154891
0.0429132
0.000171608
0.0252057
0.000151444
0.000152253
0.000163878
0.000191597
0.00018458
0.000148279
0.00942178
0.0446994
0.024769
0.0370496
0.05391
0.0572072
0.0392072
0.000148271
0.000148368
0.000149236
0.000249169
0.000176153
0.000184149
0.0134271
0.000150195
0.0001457
0.000148465
0.000229991
0.00014594
0.000159063
0.000152854
0.0338997
0.000151229
0.000147041
0.000148546
0.000148384
0.000149003
0.00016005
0.000240414
0.000160503
0.0673583
0.000148338
0.000147952
0.0651464
0.0658026
0.0214107
0.0226177
0.000163767
0.0293272
0.00014678
0.000169184
0.000152238
0.000148519
0.000155639
0.0254539
0.000152578
0.000192011
0.00494643
0.000150289
0.00014841
0.000155197
0.000217624
0.0001498
0.0341015
0.000149155
0.000227817
0.000148771
0.000150104
0.000158681
0.000171042
0.000149079
3.47467e-05
0.0401021
0.000212023
0.0694654
0.000148621
0.0239053
0.00024928
0.000148364
0.0293965
0.000149591
0.000161825
0.00014939
0.000150103
0.000147657
0.000148526
0.000150398
0.000155796
0.00018463
0.00014986
0.000148602
0.000165482
0.000147015
0.0860082
0.000148774
0.000164403
0.000167577
0.0348691
0.00773415
0.000148924
0.000217961
0.00014675
0.000164588
0.00017295
0.0186293
0.000177149
0.000149802
0.000198951
0.000167901
0.000190716
6.15003e-05
0.000161008
0.000199932
0.000182202
0.000185416
0.00015113
0.000147975
0.0198029
0.0114146
0.00015478
0.000148046
0.00809562
0.000146971
0.000172566
0.000147799
0.000176925
0.0252795
0.000145151
0.0153232
0.000157675
0.000149068
0.000210326
0.000147043
0.000161474
0.0369495
0.000170596
0.0220432
0.000147626
0.00014975
0.000161981
0.000149476
0.000149609
0.000161172
0.000162074
0.000184619
0.00017841
0.000148961
0.000165532
0.000147821
0.000148389
0.000149399
0.000148376
0.000761751
0.000148577
0.000151752
0.000243331
0.000146926
0.000147968
0.0639375
0.000149634
0.0116186
0.000152951
0.0632727
0.000223881
0.000164432
0.00275266
0.000177959
0.000282247
0.000150578
0.000209264
0.000157899
0.000147883
0.000147838
0.000151704
0.000163798
0.00014831
0.00017117
0.000147348
0.000152243
0.00663881
0.0245827
0.000332698
0.000155464
0.000163181
0.03646
0.0285615
0.000149103
0.000158755
0.000331023
0.000149866
0.000168639
0.00219291
0.0569956
0.000160038
0.000174395
0.000151146
0.000220729
0.000149895
0.000161234
0.0316828
0.000149259
0.000147921
0.085596
0.000171046
0.000245874
0.070564
0.000195156
0.000150028
0.00014737
0.000150226
0.0309426
0.0111283
0.0586074
0.000174704
0.000148593
0.0416885
0.000148676
0.000202319
0.000155379
0.000153594
0.000173213
0.000148377
0.0880744
0.0867903
0.000147196
0.000184079
0.000177013
0.00416825
0.000172056
0.00018209
0.000244262
0.000167525
0.000110043
0.000183039
0.000148691
0.000168778
0.000168242
0.0402428
0.000148224
0.00261441
0.000172953
0.000183443
0.000149805
0.0825221
0.000158129
0.000152501
0.000147765
0.000166672
0.000166185
0.000166262
0.000148799
0.000150888
0.000172059
0.00833453
0.000175811
0.000148987
0.000150499
0.000168751
0.000220499
0.000149095
0.00018028
0.025768
0.00016767
0.0591755
0.000172625
0.0253235
0.000245052
0.00014829
0.00306303
0.000149551
0.000154923
0.000166068
0.000166911
0.000190254
0.000176653
0.000165844
0.000167186
0.000162735
0.000153493
0.000145872
0.000169495
0.000157167
0.000157468
0.00500122
0.000156582
0.00015932
0.000147774
0.0262825
0.000179
0.000148951
0.000155717
0.000151647
0.02926
0.000199133
0.000166098
0.0548852
0.000336388
0.000439178
0.000190476
0.000214806
0.000147397
0.000184893
0.000148527
0.00015556
0.0293864
0.0467819
0.000255365
0.000811973
0.000148747
0.0254745
0.000147372
0.00019058
0.000154753
0.026307
0.0822716
0.000158861
0.000148018
0.000241909
0.000161875
0.0001482
0.0368507
0.000148483
0.000152611
0.000157222
0.000149364
0.000162124
0.000151789
0.000148608
0.000163271
0.000261952
0.000171703
0.000175909
0.000148187
0.0295437
0.0476522
0.000147906
0.000220891
0.000154671
0.000157316
0.0585959
0.000147887
0.000150738
0.000156801
0.0457525
0.000148231
0.000149155
0.000170149
0.0315284
0.000147787
0.00015977
0.000161736
0.00402049
0.000171948
0.000169717
0.000226675
0.000148497
0.000172339
0.000146116
0.0281283
0.000161196
0.000148443
0.000160206
0.000187093
0.000148925
0.000149762
0.000203473
0.0524675
0.000150617
0.0296111
0.000149202
0.000146083
0.000182136
0.000148212
0.000148586
0.0884071
0.000149815
0.000171406
0.000209314
0.0517394
0.00311473
0.000148373
0.000152717
0.000156554
0.000148416
0.000148642
0.000148598
0.0139983
0.000149264
0.000117916
0.000200346
0.000147904
0.000147165
0.000161875
0.000200316
0.000231589
0.000166444
0.000176956
0.000153109
0.0545728
0.000175916
0.000164528
0.000172703
0.000171733
0.000188509
0.0249302
0.000171556
0.0312176
0.0313942
0.0228306
0.00015567
0.00014846
0.000167589
0.000159323
0.000147965
0.000150672
0.000177958
0.000149596
0.000150018
0.000148326
0.000145474
0.000153828
0.000149245
0.0210441
0.000147998
0.0527147
0.000148469
0.000173502
0.000150882
0.000200595
0.000173236
0.000148684
0.060352
0.000152645
0.000149477
0.000171864
0.000147718
0.000158965
0.000148855
0.0521051
0.000153795
0.00017166
0.000170498
0.0575838
0.000158104
0.00011431
0.00473174
0.000169486
0.000149488
0.000152103
0.000175529
0.000181014
0.0242964
0.000147069
0.0316679
0.00014908
0.000169091
0.0810067
0.000165384
0.0243476
0.000155303
0.000164684
0.000154363
0.0862662
0.00016202
0.000148854
0.000168624
0.000200742
0.000152634
0.000148361
0.000148872
0.0640737
0.000149666
0.000157428
0.067158
0.000155607
0.000148294
0.000171382
0.000154911
0.0461137
0.000145717
0.00014845
0.000147111
0.000154853
0.000150458
0.00014953
0.000183743
0.0628518
0.000148177
0.000148637
0.0527854
0.000150362
0.015749
0.000154687
0.0791269
0.000147836
0.000153577
0.000146748
0.0322569
0.0691608
0.0001593
0.000169037
0.000155597
0.000148262
0.00014872
0.0525874
0.000148816
0.00019046
0.000147471
0.000174379
0.000149221
0.0654147
0.000146959
0.000175651
0.000147786
0.000218884
0.000340065
0.000147506
0.000166209
0.0887167
0.000185236
0.0295853
0.0213721
0.0002038
0.000151905
0.000165822
0.000190783
0.0192196
0.000150237
0.00017128
0.000156698
0.000148556
0.0290448
0.0366154
0.000185091
0.000206846
0.000243142
0.000162749
0.0620668
0.000147902
0.000147412
0.000187921
0.0874056
0.000217607
0.000200592
0.00620196
0.000146805
0.0842804
0.0370839
0.0806348
0.000149298
0.0308239
0.0438968
0.00036788
0.000402306
0.0472803
0.000191185
0.0001618
0.00020461
0.000154462
0.000148417
0.00185927
0.000192302
0.000145741
0.0359323
0.000149214
0.00015864
0.00017302
0.000155649
0.00241553
0.000160389
0.0119765
0.000175399
0.000154973
0.0238438
0.0724384
0.000202544
0.000149869
0.000154622
0.000183602
0.00016838
0.000146854
0.000173448
0.000167292
0.000198185
0.000148331
0.000210929
0.000153789
0.000168601
0.0416587
0.000101227
0.000151338
0.00018511
0.0323375
0.000149247
0.000151156
0.0769946
0.000227887
0.000154379
0.000155316
0.000148561
0.000174314
0.000157437
0.0518698
0.000189786
0.000150272
0.000149443
0.000166258
0.000159425
0.000255478
0.0286328
0.000147716
0.000148243
0.000158448
0.00014925
0.000154437
0.000151431
0.00015148
0.00015477
0.000147956
0.000154367
0.000149298
0.000176781
0.0160801
0.000149744
0.0721353
0.0157172
0.000146132
0.000182291
0.000186727
0.000179029
0.000150816
0.000192392
0.000159045
0.000168496
0.000162233
0.000152388
0.000149343
0.023869
0.00016162
0.0226026
0.000150762
0.000148494
0.000148153
0.000173002
0.000148111
0.000176515
0.000182975
0.000293472
0.000147555
9.18387e-05
0.0144881
0.046723
0.000146746
0.000195068
0.000221467
0.0173452
0.00543061
0.000150296
0.000149829
0.000193592
0.00462882
0.0135163
0.000171552
0.000225461
0.000149499
0.000148112
0.00016458
0.000149267
0.000149087
0.000199865
0.000149755
0.000169326
0.000147797
0.0728695
0.0711827
0.0411068
0.0397906
0.0436499
0.000149071
0.000148917
0.0869673
0.000147282
0.000147626
0.000146111
0.000183364
0.0716752
0.0256018
0.000156334
0.00014984
0.0001521
0.000163026
0.0300263
0.000148128
0.0223531
0.0745669
0.000149216
0.000149124
0.0368566
0.00018933
0.000153497
0.000148346
0.0778492
0.0442667
0.000149042
0.00021902
0.000149672
0.0486856
0.000279977
0.00015425
0.0260976
0.0155976
0.0615289
0.000147631
0.000150185
0.000149613
0.000149898
0.0670949
0.000147924
0.000197387
0.000203391
0.0224808
0.000151286
0.000174023
0.000364954
0.00017395
0.0856417
0.0504912
0.00014549
0.000157346
0.000157484
0.000202441
0.059156
0.000145309
0.0250433
0.000160759
0.000173808
0.000150826
0.000147531
0.00022502
0.000168541
0.0185814
0.000149265
0.000173942
0.000151015
0.000200715
0.000154903
0.0613549
0.0171833
0.000202848
0.0001936
0.000148266
0.000153162
0.000190575
0.000181656
0.061269
0.0890113
0.000148916
0.0251563
0.000170197
0.0721503
0.000159875
0.000170486
0.000169333
0.000149393
0.0679915
0.000148436
0.000165163
0.0325554
0.0715665
0.00072876
0.0703253
0.000158099
0.000176092
0.000147191
0.0733702
0.000157159
0.0488974
0.000147131
0.0526607
0.000145201
0.000148048
0.000164595
0.000158636
0.000159994
0.000148458
0.0391932
0.000174857
0.000147948
0.00016616
0.033099
0.000228808
0.000148579
0.055035
0.000154144
0.000167495
0.000165901
0.000145894
0.000178259
0.00014802
0.0289638
0.000172895
0.000159857
0.000148356
0.000232231
0.000170018
0.000147133
0.0532891
0.0124613
0.000224673
0.000147005
0.00282941
0.000148881
0.000191203
0.000160476
0.000181164
0.0201907
0.0380265
0.000159598
0.0702888
0.000169786
0.000157863
0.000147134
0.0631136
0.00017933
0.000190288
0.000165358
0.00014959
0.0298583
0.000183439
0.000242054
0.000246358
0.0880952
0.0394248
0.00775129
0.0326206
0.000158163
0.000158789
0.000148599
0.000149323
0.000145463
0.000212174
0.000158773
0.000159987
0.061455
0.000147893
0.000147009
0.000173278
0.000201155
0.000160208
0.000147236
0.0650192
0.000154436
0.000176901
0.000149489
0.0221357
0.000157285
0.0813309
0.000166579
0.00016597
0.000171524
0.000148559
0.0103717
0.000190035
0.000180315
0.000148799
0.000147265
0.0241469
0.0434213
0.0480025
0.000148272
0.000180494
0.000896209
0.000149329
0.000147986
0.000149178
0.0701314
0.000171442
0.000163312
0.000160602
0.000158216
0.0525483
0.000179303
0.000224633
0.000159173
0.000164939
0.000145453
0.000183099
0.000173202
0.000148419
0.0512418
0.0526415
0.0625359
0.0515943
0.0402544
0.08389
0.087703
0.000151438
0.000148425
0.0750066
0.0378785
0.044568
0.000148915
0.000170972
0.000148592
0.000148149
0.0189121
0.0733026
0.000182839
0.000148059
0.000150166
0.000191942
0.000174802
0.0383149
0.00640733
0.000202967
0.0001473
0.0610489
0.00987656
0.000227609
0.000165826
0.000172132
0.000149267
0.000147305
0.000168615
0.000172527
0.000154158
0.000172173
0.000160183
0.000154613
0.000242925
0.0365378
0.000159363
0.000173661
0.0459429
0.000224221
0.000148684
0.000192303
0.000232382
0.0278798
0.000169551
0.000149573
0.000161804
0.000157564
0.00015862
0.0001459
0.000159029
0.000164542
0.000175977
0.000201814
0.000149497
0.000151944
0.0390433
0.054429
0.0697001
0.000443554
0.000198413
0.000144985
0.000148517
0.000162319
0.000147025
0.0875656
0.0001485
0.000149813
0.000146442
0.0508786
0.0191414
0.000150022
0.000183126
0.000158751
0.000161802
0.000161714
0.0001598
0.000171495
0.000166792
0.0205414
0.0001581
0.0400753
0.000167435
0.0686127
0.000160661
0.000147429
0.00014705
0.000192875
0.000203359
0.0001468
0.000163087
0.000161009
0.000175959
0.0375636
0.0235977
0.0385144
0.000149812
0.000991241
0.000158846
0.000164684
0.000148341
0.000179686
0.000152878
0.0303987
0.000296456
0.000166051
0.000148509
0.0538312
0.000155849
0.0358807
0.0368989
0.000242675
0.000153808
0.000197852
0.044821
0.000709782
0.0512732
0.000177244
0.000148612
0.000167447
0.00014833
0.0839121
0.000154169
0.000162678
0.000135291
0.0660352
0.000148391
0.000148286
0.040235
0.000169744
0.0793805
0.000158821
0.000148342
0.000171048
0.000219569
0.000162464
0.0206768
0.000164578
0.000676053
0.000155702
0.000149611
0.000148212
0.000215807
0.000150597
0.000182109
0.000148649
0.000148872
0.000209841
0.000158365
0.000149391
0.000148228
0.000164625
0.000592224
0.000174079
0.000168992
0.00015534
0.00017825
0.000148726
0.000190897
0.000162511
0.000172547
0.000166977
0.000161364
0.000174357
0.000163145
0.000148201
0.00018475
0.046723
0.0359173
0.000149593
0.000734545
0.0354967
0.00014823
0.000150593
0.000227993
0.0405635
0.000156228
0.035116
0.000253539
0.000149576
0.00019078
0.000145406
0.000157676
0.000179085
0.0388272
0.000203618
0.000236246
9.42596e-05
0.0508442
0.0531105
0.000153691
0.0459882
0.000148442
0.0116687
0.0499837
0.000148624
0.000148437
0.0348301
0.000149038
0.000148543
0.000150074
0.0612855
0.00022176
0.000158462
0.0451594
0.000148589
0.054634
0.0401417
0.000149208
0.000333026
0.0141525
0.0435477
0.0373285
0.0411597
0.0336622
0.000147347
0.000151583
0.000179848
0.000183374
0.000148517
0.000221241
0.000148378
0.0421353
0.000214281
0.00016428
0.000246573
0.0430611
0.000229156
0.000240421
0.000165303
0.0183262
0.000254866
0.000156967
0.000145687
0.0149163
0.000161508
0.000147179
0.081381
0.000148241
0.0172754
0.000149148
0.0713937
0.000157422
0.000148189
0.00380049
0.00015606
0.000160624
0.0312945
0.081012
0.000577809
0.000160665
0.000175964
0.000151914
0.000172074
0.000199989
0.000172435
0.00014935
0.000316064
0.000180924
0.000161864
0.0325516
0.000171055
0.000162395
0.00019838
0.000183832
0.000175254
0.00014816
0.000207814
0.000147084
0.000200208
7.52411e-05
0.0409981
0.000147153
0.000168508
0.0246838
0.000153059
0.000178573
0.00016491
0.000170519
0.0796021
0.000181231
0.000151957
0.0287357
0.000147195
0.053211
0.000148776
0.000152205
0.000200347
0.049149
0.000162025
0.000188598
0.00022331
0.000164789
0.000149854
0.000177136
0.000172036
0.0617603
0.000155302
0.0038532
0.000203591
0.000164852
0.000161563
0.000177882
0.000166557
0.000167691
0.000181363
0.000162709
0.000154485
0.000149796
0.0010316
0.000148496
0.000160347
0.00014545
0.00019775
0.000160981
0.000181576
0.0433593
0.000151218
0.000221255
0.000144629
0.000149187
0.000149216
0.000149327
0.000159266
0.000147689
0.000191256
0.0253266
0.000181685
0.000174407
0.000156715
0.000149016
0.000114685
0.00014866
0.0384249
0.0456621
0.027315
0.00020663
0.00016407
0.000160073
0.000149141
0.000158197
0.000170146
0.000169226
0.0477574
0.000181761
0.0562084
0.000206925
0.000149352
0.000146907
0.0354629
0.000148222
0.00016241
0.000166218
0.000244038
0.000153388
0.0665432
0.000149091
0.000156159
0.000148598
0.000150575
0.000177042
0.00019733
0.000149788
0.000166143
0.000159523
0.000175222
0.000181619
0.000220675
0.000199222
0.000211925
0.000202738
0.000158981
0.000151811
0.000181508
0.0486348
0.0852986
0.0553228
0.000165134
0.0382754
0.000196685
0.000151708
0.000148005
0.000183822
0.000148909
0.000166165
0.0217109
0.000148091
0.000147835
0.000303848
0.0209445
0.000176979
0.000587919
0.000149039
0.0279756
0.000169157
0.0700304
0.000157274
0.000148742
0.0552666
0.000165017
0.000148588
0.000171826
0.000149667
0.000189811
0.000160222
0.000164448
0.0848712
0.000159663
0.0595881
0.000147727
0.0509265
0.000149091
0.000157291
0.000150501
0.000171405
0.000148877
0.000166149
0.0532559
0.000193428
0.000175152
0.000161382
0.000168322
0.000148263
0.000149172
0.000152459
0.00397367
0.000156993
0.0739072
0.0355213
0.000188583
0.000149404
0.000191861
0.000204869
0.000202006
0.00015863
0.0386765
0.000148317
0.000144956
0.000148181
0.0160846
0.000149313
0.000148524
0.0549393
0.000148127
0.000201476
0.000171581
0.0001482
0.0619766
0.00016167
0.0708827
0.000148508
0.006374
0.000151501
0.00016716
0.0283736
0.000183048
0.000147943
0.000160246
0.043501
0.000165968
0.000193345
0.000163595
0.000157008
0.000186879
0.000158453
0.000150384
0.00671758
0.000160774
0.000161615
0.000203717
0.00014821
0.000147686
0.000149197
0.000164883
0.000149102
0.000155454
0.064716
0.0153591
0.000171106
0.00932011
0.000183552
0.000168355
0.067563
0.0482339
0.000150057
0.0154599
0.0635154
0.0368933
0.00248405
0.000162481
0.0411501
0.0571971
0.0463134
0.00288156
0.0853953
0.000162965
0.00016953
0.000157948
0.00015858
0.000149693
0.000338417
0.000149895
0.0181521
0.000174373
0.000198509
0.000145216
0.000187309
0.000163764
0.000152111
0.000149951
0.000148681
0.000173826
0.000153998
0.000150367
0.00017294
0.0551245
0.000154898
0.000191775
0.000146854
0.00017378
0.000169207
0.000149232
0.000156524
0.000147692
0.0716591
0.0642363
0.000207507
0.00699772
0.000161393
0.000189471
0.000148817
0.000173322
0.000148807
0.000150102
0.000149528
0.0588829
0.000147019
0.000176609
0.000247732
0.000157781
0.000163844
0.000148185
0.0662391
0.000207013
0.0406613
0.0347407
0.000201606
0.000239181
0.0324859
0.000245177
6.93511e-05
0.0160579
0.000174355
0.000159118
0.00573921
0.0749635
0.000148381