/*--------------------------------*- C++ -*----------------------------------*\
| =========                 |                                                 |
| \\      /  F ield         | OpenFOAM: The Open Source CFD Toolbox           |
|  \\    /   O peration     | Version:  v2012                                 |
|   \\  /    A nd           | Website:  www.openfoam.com                      |
|    \\/     M anipulation  |                                                 |
\*---------------------------------------------------------------------------*/
FoamFile
{
    version     2.0;
    format      ascii;
    class       surfaceVectorField;
    location    "50";
    object      ddtCorrDdt0(Uf);
}
// * * * * * * * * * * * * * * * * * * * * * * * * * * * * * * * * * * * * * //

dimensions      [0 1 -2 0 0 0 0];


internalField   nonuniform List<vector> 
20580
(
(-0.0119299 0.000488751 3.02147e-18)
(-0.0130372 0.000543345 8.3282e-18)
(-0.0120259 -0.000422739 1.73265e-17)
(-0.000279678 0.000221952 1.3654e-18)
(-0.000258336 0.000243762 3.82275e-18)
(-0.000277904 0.000242443 -2.0557e-18)
(-0.000285724 0.000203464 -7.20247e-18)
(-0.000279962 0.000216028 -8.88674e-18)
(0.00880788 0.000977608 8.74008e-18)
(0.0094454 0.000982116 1.51063e-18)
(0.0091044 0.000488443 1.4851e-17)
(-1.62144e-05 1.1704e-05 2.95539e-20)
(-1.14643e-05 1.2382e-05 5.18698e-19)
(-4.94996e-06 7.51936e-06 -8.13475e-20)
(-0.000222854 0.000368527 -5.40925e-18)
(-0.000214874 0.000372347 1.19548e-18)
(-0.000217323 0.000363206 -6.5319e-18)
(-0.000215532 -0.000517831 -2.8917e-19)
(-0.000222446 -0.000522933 4.25893e-18)
(-3.65092e-05 -1.01242e-05 -2.89108e-19)
(-4.18309e-05 -9.68004e-06 2.99267e-19)
(-3.91072e-05 -4.30507e-06 9.29631e-20)
(0.0257577 -0.0116057 -9.04152e-18)
(0.0246386 -0.0121987 -5.88759e-18)
(0.0268678 -0.010966 -9.5962e-18)
(-2.87913e-05 -0.000125043 -1.49114e-18)
(-3.92734e-05 -7.69066e-05 -2.14459e-18)
(-9.23535e-06 -6.92455e-05 -1.73898e-18)
(0.000450135 -0.00126982 4.81483e-18)
(0.000355839 -0.00112327 -2.16552e-18)
(0.000281549 -0.00128491 2.00785e-18)
(-2.70462e-05 0.000202789 -1.05449e-18)
(-3.10753e-05 0.000175497 -1.27893e-18)
(-3.0549e-05 0.000185795 9.90921e-19)
(-4.92959e-05 0.000258757 -2.31383e-18)
(-4.17604e-05 0.000289016 -3.36315e-18)
(-4.56597e-05 0.000260153 -6.99923e-18)
(0.0415308 -0.00236815 -1.47975e-18)
(0.0408922 -0.00261877 -4.42071e-18)
(0.0416439 -0.002316 -2.5728e-18)
(-0.00105117 -0.000379484 7.87839e-19)
(-0.00110124 -0.000290557 -8.82664e-18)
(-0.000988811 -0.000282366 1.78531e-18)
(0.0151201 -0.00173554 1.28997e-18)
(0.0153131 -0.000615454 -1.19355e-18)
(0.016149 -0.00185901 -3.14332e-19)
(0.0159517 -0.000291542 5.08234e-17)
(0.016738 4.69589e-05 2.13609e-17)
(0.0159921 -0.00049931 7.47629e-17)
(-0.000105863 0.000100756 -1.772e-18)
(-0.000106451 0.00011689 -1.71796e-18)
(-0.000104524 9.55501e-05 -2.72261e-18)
(9.18565e-05 0.011789 1.13693e-17)
(9.69801e-05 0.0121154 -2.76743e-18)
(-0.000759489 0.0119911 -2.18296e-17)
(-0.0117363 0.00164785 -1.53187e-17)
(-0.0108478 0.000500342 -3.92707e-18)
(-0.00134566 0.000390289 1.0478e-18)
(-0.00120019 0.000403272 -4.87116e-18)
(-0.00124931 0.000256886 1.07082e-17)
(-0.000267211 -9.53227e-05 5.97803e-19)
(-0.000270093 -0.000106874 -1.90162e-18)
(-0.000253936 -0.000103369 -3.277e-18)
(0.0192747 -0.00296372 8.22868e-18)
(0.0181227 -0.00410449 2.91041e-17)
(0.0194655 -0.00415325 5.12422e-18)
(4.81289e-06 -1.62734e-05 -6.08179e-21)
(7.58059e-06 -1.88246e-05 -3.74948e-19)
(5.00602e-06 -1.36839e-05 -2.59025e-19)
(-0.0336059 -0.0174038 2.50349e-18)
(-0.0390173 -0.02208 -1.45043e-19)
(-0.0398147 -0.0221305 1.93489e-18)
(0.00300395 -2.38859e-05 5.37153e-18)
(0.00335151 0.000149213 -3.64458e-18)
(0.00332408 -0.000321637 4.93619e-18)
(0.00727268 -0.03207 8.89822e-18)
(0.00676223 -0.035259 1.9346e-18)
(0.0102378 -0.0338605 -1.28445e-18)
(0.0072589 0.0211962 1.30834e-18)
(0.00575517 0.0236627 1.45604e-17)
(0.0133381 0.0232096 1.92855e-17)
(-0.0101746 -0.0183476 2.64109e-18)
(-0.0100916 -0.0172271 -2.816e-18)
(-0.00853214 -0.0170715 8.29832e-18)
(-5.59921e-05 -8.86493e-05 2.34679e-19)
(-6.06298e-05 -0.00010079 -6.16823e-20)
(-5.59267e-05 -9.44311e-05 2.54148e-20)
(0.00495509 0.00672515 -3.39e-17)
(0.00644895 0.00636775 2.9551e-17)
(0.00521128 0.00733278 -2.86653e-18)
(-0.000242453 -0.000514203 -1.41732e-18)
(-0.000214258 -0.000492939 -3.26443e-18)
(-0.0117869 -0.00371601 1.26919e-18)
(-0.0114128 -0.00484622 -9.20333e-18)
(-0.0105526 -0.00359969 -1.19929e-17)
(0.0280548 0.00931403 -2.19326e-17)
(0.0275085 0.0106427 2.61743e-18)
(0.0270159 0.0107619 -4.10862e-18)
(0.000214669 -0.000173525 -1.3315e-17)
(0.000298386 -0.000135021 6.38448e-18)
(0.000254495 -0.000250623 -5.08686e-18)
(-0.0149375 -0.017504 -3.39106e-18)
(-0.0159645 -0.0187463 -2.13793e-18)
(-0.0166918 -0.0174624 9.27457e-18)
(1.44177e-06 -1.16564e-05 -2.96724e-19)
(5.1233e-06 -1.9765e-05 6.88199e-19)
(0.00578821 0.00514983 3.25736e-17)
(0.0107088 0.00654666 -3.44193e-18)
(0.00887667 0.00572696 2.21197e-17)
(-0.0133486 -0.0111425 1.30193e-17)
(-0.0143076 -0.010584 -2.90111e-18)
(-0.0135206 -0.0118971 1.00539e-17)
(-0.000130107 0.00026713 2.62313e-19)
(-0.000122978 0.000266929 2.42134e-18)
(-0.000133503 0.000233632 2.19224e-18)
(0.00144293 0.0202407 -2.70854e-18)
(0.00175437 0.0216694 3.02108e-17)
(0.00302766 0.0207267 3.05241e-17)
(-0.0105914 -0.0193273 -3.51044e-18)
(-0.0120561 -0.0194437 -1.53874e-18)
(0.00826241 0.000690771 -2.36856e-18)
(0.00896389 0.000576563 8.09561e-19)
(-0.00109984 0.00420513 -9.91956e-18)
(-0.000568846 0.00437872 4.1099e-18)
(-0.000737937 0.00409169 5.79314e-18)
(-0.00916766 -0.0202693 4.2456e-18)
(-0.00772899 -0.0196332 7.21336e-18)
(-0.00581492 -0.0191111 1.11563e-17)
(-9.61209e-05 0.000135281 -1.66631e-20)
(-9.94396e-05 0.000164211 -2.035e-19)
(-9.38857e-05 0.000159518 -1.8906e-19)
(-4.83565e-06 -1.69302e-05 -9.38693e-19)
(-3.77685e-06 -1.2196e-05 1.82536e-18)
(0.00951176 -0.00942172 5.25091e-18)
(0.0104821 -0.00954706 -2.05845e-18)
(0.00973194 -0.00848379 1.48144e-18)
(-0.000179137 -3.27564e-05 6.7501e-19)
(-0.000179012 -3.89262e-05 7.89418e-19)
(-0.000171657 -1.71703e-05 -4.49811e-19)
(-4.8291e-05 0.000216401 -3.68867e-18)
(-4.68052e-05 0.000261262 5.66626e-18)
(-0.0237649 0.0003877 -1.52935e-18)
(-0.0235341 0.000522986 -3.54997e-17)
(-0.0238126 0.000168438 -4.36623e-17)
(-2.75915e-05 0.000354374 7.7177e-18)
(-2.40002e-05 0.000318049 7.20952e-18)
(-2.79807e-05 0.000364545 -1.10057e-17)
(0.014908 -0.00291054 6.95562e-18)
(0.0139716 -0.00173115 6.66174e-18)
(-0.000504756 -0.000504086 8.90199e-18)
(-0.000482262 -0.000494725 -1.89509e-18)
(-0.000508497 -0.000461014 -6.53821e-19)
(0.0279538 -0.00349383 -3.95665e-19)
(0.0291027 -0.00491721 -1.30551e-17)
(0.0297073 -0.00342473 -7.87685e-18)
(-0.000130247 0.000261264 -1.42947e-19)
(-0.00012553 0.000292377 -1.22074e-18)
(-0.0131256 -0.00386887 1.40391e-18)
(-0.0120298 -0.00271964 4.18529e-18)
(-6.53049e-06 0.0194141 -1.89453e-17)
(0.00183471 0.0183355 -1.99833e-17)
(0.0254905 -0.0184721 -6.31544e-18)
(0.025199 -0.0188826 -1.9584e-20)
(0.023108 -0.0210184 3.47946e-18)
(0.0308107 0.00291145 1.04385e-17)
(0.0315102 0.00346638 6.54328e-18)
(0.0293401 0.00396179 7.55535e-19)
(-2.30275e-05 0.000225282 -3.60445e-19)
(-2.33587e-05 0.000216147 -1.2368e-18)
(0.00672418 -0.029372 -1.1465e-18)
(0.00410554 -0.0306246 9.397e-18)
(-4.41282e-06 0.000391017 -4.75984e-19)
(-5.26011e-06 0.000387775 -4.16445e-18)
(-7.22099e-06 0.00035755 -5.31048e-19)
(-0.000174338 -5.30717e-05 -2.32886e-18)
(-0.000179093 -1.2725e-05 -4.71357e-19)
(0.00057606 0.00155054 3.9807e-18)
(0.00045014 0.00169022 4.62349e-18)
(0.000404573 0.00150635 6.08497e-18)
(0.000670102 0.0014194 2.79954e-19)
(0.000771102 0.00158299 -1.39743e-18)
(0.0299884 0.00255802 -8.44966e-19)
(0.0330768 0.00164271 6.17061e-18)
(8.47008e-05 0.000266147 -1.51568e-17)
(9.76304e-05 0.000280537 9.63962e-18)
(-0.00014225 -0.000100551 1.36758e-19)
(-0.000138732 -8.13094e-05 2.45951e-20)
(-0.000140194 -9.20993e-05 9.02578e-20)
(0.00780232 -0.00273652 1.27394e-17)
(0.00751077 -0.00215601 -1.01909e-17)
(0.00699856 -0.00234454 1.90446e-17)
(0.0138838 0.00468835 -6.22085e-18)
(0.0146135 0.00346661 -2.5234e-17)
(0.0147888 0.00400369 -1.77924e-17)
(-0.00173417 0.000758717 4.01671e-18)
(-0.00164947 0.000891676 8.88478e-18)
(-0.00183525 0.000925628 2.95701e-18)
(-6.17935e-05 0.000259893 -6.64071e-19)
(-6.38946e-05 0.000245637 1.23552e-18)
(-6.00701e-05 0.000280808 3.15821e-18)
(0.0332963 0.00400052 1.38535e-18)
(0.0354732 0.00207192 -6.06126e-18)
(-0.000470327 -0.000592216 7.02943e-19)
(-0.000485527 -0.000586725 3.17455e-18)
(-0.000483017 -0.000604247 4.5421e-18)
(-0.000201465 -0.000163586 -7.55473e-20)
(-0.000201214 -0.00015715 -2.20562e-20)
(-0.000192429 -0.000161272 -6.28068e-20)
(0.0164267 0.000149274 -1.68863e-17)
(0.0165029 -0.000646116 -2.81745e-17)
(-4.39341e-05 6.48979e-05 -8.25894e-20)
(-4.19023e-05 5.96083e-05 -1.78829e-18)
(-4.56831e-05 6.91253e-05 -5.85997e-19)
(-0.0283239 -0.0131307 7.54434e-18)
(0.00366006 -0.0177586 2.99615e-17)
(-3.63994e-05 5.29977e-05 1.01814e-18)
(-3.33345e-05 1.87359e-05 4.26095e-19)
(-3.28503e-05 1.57564e-05 1.4837e-18)
(-0.000131853 -0.000123727 -3.12926e-20)
(-0.000143711 -0.000122573 -1.25628e-19)
(-0.00125727 -0.0155207 2.42097e-18)
(0.000632743 -0.016826 5.47741e-18)
(-0.001684 -0.0176533 6.40572e-17)
(0.000155077 -0.00012598 -9.14926e-18)
(0.000115438 -0.00023392 1.05363e-17)
(0.0429121 -0.000664835 8.52002e-18)
(0.0423694 -0.00120087 1.43326e-17)
(0.0426054 -0.00122819 2.27257e-17)
(0.0320033 0.00112041 -3.53075e-17)
(0.0334659 0.00235817 -1.06153e-18)
(0.00857288 0.00622394 2.75963e-17)
(0.00970081 0.00641214 8.61309e-18)
(0.0077485 0.00750742 -3.29734e-18)
(-0.000279068 -7.9164e-05 1.77101e-18)
(-0.000266364 -7.63497e-05 3.1234e-18)
(-0.0181848 -0.00468092 -2.2362e-17)
(-0.0183053 -0.00287264 -6.37713e-18)
(-0.0160513 -0.00503238 -7.48844e-18)
(-2.896e-05 -0.000148173 2.38832e-19)
(-2.69898e-05 -0.000147819 1.49277e-19)
(-2.87403e-05 -0.000137952 2.08401e-18)
(0.00398915 0.00679311 -2.90582e-18)
(0.00502583 0.0058036 -1.89167e-17)
(-3.22323e-05 0.000378628 1.84734e-18)
(-3.07139e-05 0.000353463 -5.91676e-18)
(-0.000255014 -0.000514488 -8.16066e-19)
(-0.000265292 -0.000523497 -2.04274e-18)
(-0.0192358 -0.000682164 3.46766e-17)
(-0.0196967 -0.00054813 2.75326e-17)
(0.00789074 0.00575231 5.22893e-17)
(0.00926513 0.00503719 4.63564e-17)
(-0.0192319 0.000242103 -1.4397e-18)
(-0.0197967 -0.000461704 -5.15946e-19)
(-0.0205983 0.000205374 6.61146e-18)
(-0.00142396 0.00358687 -1.42229e-17)
(-0.00144692 0.00313947 -6.13808e-18)
(-0.00107257 0.0031787 -1.85243e-17)
(-9.07992e-05 0.000277037 3.00213e-19)
(-7.98659e-05 0.00028387 1.30389e-19)
(-8.45901e-05 0.00028107 3.34501e-19)
(0.0133643 -0.00723793 1.03129e-20)
(0.013837 -0.00615668 1.43494e-18)
(0.0127234 -0.00625567 3.6101e-18)
(-0.0139864 0.00203992 5.60098e-18)
(-0.0129699 0.00210504 1.40482e-18)
(-0.0128247 0.00105851 1.30113e-17)
(-0.00285878 -0.000308282 2.02954e-18)
(-0.00311497 -9.84633e-05 -3.17226e-17)
(-0.00281248 -2.99003e-05 -1.47691e-17)
(0.0129062 -0.00832185 -2.29315e-18)
(0.0141027 -0.00824459 -7.53211e-18)
(8.47961e-06 0.000252138 -6.74377e-18)
(2.51148e-05 0.000232291 1.3923e-17)
(4.1228e-06 0.000217802 -9.91637e-18)
(-4.01475e-06 0.000332254 1.21835e-18)
(-1.82084e-05 0.000297217 1.19178e-18)
(1.39866e-05 0.000307636 9.46116e-18)
(-8.24572e-05 0.000334957 -2.89157e-20)
(-7.26294e-05 0.000337351 -4.20645e-18)
(-7.92223e-05 0.000357208 -1.1075e-18)
(-0.000116884 1.09694e-05 2.32715e-20)
(-0.000110101 -2.51472e-05 1.42735e-19)
(-0.000101408 -1.83817e-05 -6.59404e-19)
(-0.000793636 0.00133247 3.74911e-19)
(-0.000655467 0.00143562 -1.33167e-17)
(-0.000811461 0.00147701 -3.02262e-18)
(-0.000101284 3.12361e-05 3.12662e-19)
(-0.000117105 5.25973e-05 -3.81444e-20)
(0.0128188 0.00527073 2.28618e-17)
(0.0125424 0.00611652 -2.73382e-17)
(-0.000249219 -0.000500823 -3.68563e-18)
(-0.000267968 -0.000509171 9.39525e-19)
(-9.65193e-05 8.84002e-05 -1.09859e-18)
(-9.54215e-05 9.90577e-05 -2.0999e-19)
(-0.000419306 -1.32073e-05 -7.55326e-19)
(-0.000444715 5.98981e-06 3.31184e-19)
(-0.000427222 9.71968e-08 2.22334e-19)
(-0.000103419 9.62427e-05 4.67691e-19)
(-9.91117e-05 0.000111229 6.97271e-20)
(0.009119 0.00463849 4.69043e-19)
(0.00877298 0.00556814 -1.98565e-17)
(0.00993931 0.00513382 3.1862e-17)
(0.0019791 0.000910292 -9.09521e-18)
(0.0017407 0.000985871 5.5055e-18)
(0.0017729 0.000771538 -1.87129e-17)
(-0.00720697 -0.0101807 8.2732e-18)
(-0.00630399 -0.0107936 -2.32231e-18)
(-0.00743778 -0.0113156 3.15236e-18)
(-0.000511922 -0.00050941 -5.02275e-19)
(-0.000503205 -0.000515954 3.74893e-18)
(-6.36261e-05 -3.96268e-05 1.72151e-20)
(-6.29007e-05 -2.94307e-05 -1.68085e-19)
(-6.15558e-05 -4.7574e-05 4.34819e-19)
(-3.23329e-05 -7.86122e-06 2.21979e-20)
(-3.06497e-05 -1.3233e-05 -2.60653e-19)
(0.00853049 0.000771003 -4.09852e-18)
(0.00857416 0.00120829 -1.00938e-17)
(0.00873412 -0.00312064 7.35153e-18)
(0.00804008 -0.00369753 -3.20142e-17)
(-0.00235056 0.00189177 1.14109e-17)
(-0.00215575 0.00209046 1.2597e-17)
(-0.00251771 0.00216804 -1.51773e-17)
(-7.67596e-05 3.3592e-05 9.15894e-19)
(-7.2672e-05 8.8601e-06 1.07481e-18)
(-7.38175e-05 3.3242e-05 -6.92295e-19)
(-0.000149333 2.91915e-05 -8.03466e-20)
(-0.000140538 3.96393e-06 4.41845e-19)
(-0.000142274 1.27697e-05 6.60416e-19)
(0.0344851 0.00675939 3.56965e-18)
(0.0332734 0.0076932 1.81744e-18)
(0.0332045 0.00734125 -4.43317e-19)
(-0.00306114 0.0128636 -4.06528e-18)
(-0.00223219 0.0126522 7.52953e-18)
(-0.00231012 0.01365 1.20066e-17)
(0.000273343 0.000221803 1.31811e-19)
(0.000212713 0.000154016 8.37154e-18)
(0.000259023 0.000300104 8.94767e-17)
(-9.40582e-05 0.000251392 -2.2763e-19)
(-7.59466e-05 0.000275558 -5.69578e-19)
(-0.000959291 -0.000529353 -7.70317e-18)
(-0.000823599 -0.000555297 -7.95507e-19)
(-0.000893766 -0.000450442 -3.41649e-19)
(0.0246734 0.0149077 3.52784e-19)
(0.0253615 0.0139535 3.23348e-18)
(0.0232234 0.0158189 -2.91497e-19)
(-0.00169372 -0.000291353 8.10865e-18)
(-0.00184067 -0.000297434 1.69312e-17)
(-0.00170191 -0.000132634 1.57864e-17)
(-0.000267964 -0.000113208 1.44929e-19)
(-0.000283509 -0.000105954 5.20731e-19)
(-4.35607e-05 0.00022714 5.09415e-18)
(-2.46341e-05 0.00025155 4.78884e-18)
(-5.37892e-05 0.000248041 -2.62221e-18)
(-0.000497392 0.00642192 9.88182e-18)
(-0.0011132 0.00345306 1.49966e-17)
(0.0281636 0.00777894 -1.03537e-17)
(0.0297094 0.00780053 9.66935e-19)
(0.000507116 -0.0015054 -1.41e-17)
(0.000677155 -0.00128179 4.47579e-19)
(-0.0186761 -0.00274332 -1.80761e-17)
(-0.0196467 -0.00207563 2.82662e-17)
(-0.0194162 -0.00259395 -1.06171e-17)
(7.26321e-05 0.000243457 9.64206e-19)
(0.0105227 0.00634846 -4.45306e-18)
(0.0107374 0.00532624 5.60378e-18)
(-2.5392e-05 0.000135209 -1.41833e-18)
(-3.04646e-05 0.00016576 9.6042e-18)
(5.72341e-06 0.000164557 4.32217e-18)
(-0.00161895 -0.000624549 1.00897e-18)
(-0.00151361 -0.000637946 6.39727e-19)
(-0.00157559 -0.000769616 -3.88407e-18)
(-0.00294965 -0.0145361 -1.96654e-17)
(-0.000838849 -0.013951 -2.44348e-17)
(-0.000109087 0.000387278 1.11894e-17)
(-0.000105267 0.000409653 3.47192e-18)
(-0.000108836 0.000400969 -2.42104e-18)
(-3.16953e-05 -0.00014695 4.05489e-18)
(-3.14653e-05 -0.000152089 -3.45498e-18)
(0.000265835 0.000642342 -1.04268e-17)
(0.000344345 0.000643444 2.43436e-18)
(0.000310477 0.000734271 6.62084e-18)
(-0.00297083 0.0272492 -5.42567e-17)
(-0.01075 0.0232488 -3.49649e-17)
(-0.00691209 0.026425 -1.61886e-17)
(-0.000192172 -0.000106413 -8.50289e-19)
(-0.000201055 -0.000103773 1.19926e-18)
(-0.00019142 -8.99578e-05 -1.25974e-18)
(-4.67363e-05 6.57028e-05 2.1234e-18)
(-4.08005e-05 6.07671e-05 2.79486e-18)
(0.00736319 0.0051849 -1.0171e-17)
(0.00962956 -0.0119251 -2.04978e-18)
(0.0110054 -0.0120817 2.78188e-18)
(0.0104675 -0.0103279 -3.44489e-19)
(-0.00104936 -0.000516323 -3.86283e-18)
(-0.000990279 -0.000606945 6.88676e-18)
(0.0120947 -0.00840092 2.47529e-18)
(0.0127037 -0.00939741 2.89231e-18)
(0.00946477 0.0035456 -1.93644e-18)
(0.00836171 0.00405491 2.33182e-17)
(0.00220479 0.000812878 -6.69811e-18)
(0.00217277 0.0010833 -1.85137e-18)
(-0.000651329 0.0112184 2.04787e-17)
(-0.000379273 0.011255 -4.50095e-18)
(-0.000489692 0.0109939 1.79269e-17)
(-4.70085e-05 0.000447962 3.06077e-18)
(-5.52263e-05 0.000451277 5.55238e-18)
(-5.67698e-05 0.000483348 -1.84859e-18)
(-4.8513e-06 -2.56538e-05 8.29369e-19)
(2.42145e-06 -1.92073e-05 2.3118e-18)
(-4.82535e-07 -6.31183e-05 -1.03219e-19)
(-1.57244e-05 0.00020375 -9.57906e-19)
(-1.59491e-05 0.000211552 1.82849e-19)
(-8.23284e-06 0.000209893 -2.27602e-18)
(-0.0127416 -0.0112516 3.67366e-17)
(-0.0137631 -0.0102613 -4.04695e-18)
(-0.00141328 -0.000436511 -1.64683e-18)
(-0.00143077 -0.000560395 -2.25426e-19)
(-0.00133034 -0.000505296 -6.05312e-18)
(-0.000268821 -0.000398695 8.06797e-19)
(-0.000271215 -0.000410122 -2.64037e-18)
(-0.000281274 -0.000397301 -2.28989e-18)
(9.34669e-06 -3.17383e-05 -2.28362e-19)
(9.81164e-06 -2.81028e-05 1.15291e-18)
(1.32944e-05 -3.06745e-05 -1.68611e-19)
(-0.012651 -0.0172665 3.13338e-18)
(-0.0112285 -0.0172233 -1.18033e-17)
(-0.0129334 -0.018453 -3.76894e-18)
(-0.000912921 0.00126099 7.10782e-18)
(-0.000811996 0.00122701 1.16395e-17)
(0.00845838 -0.00922361 6.86943e-19)
(0.00890918 -0.0103745 -9.66683e-18)
(0.04147 -0.00252064 7.37909e-19)
(0.0412929 -0.00233632 6.13804e-18)
(0.014182 -0.0162401 -2.97847e-18)
(0.0164505 -0.0154206 -1.80757e-17)
(0.0130765 -0.0165275 9.69691e-18)
(0.0160465 -0.0157158 7.69149e-18)
(0.011337 -0.0171347 -1.24722e-18)
(-0.0239144 0.000243018 9.11201e-18)
(-0.0237765 0.000469077 2.94521e-17)
(-0.000401721 -2.77038e-05 1.71061e-19)
(-0.000388709 -2.72037e-05 -1.71916e-19)
(0.0271374 0.0069763 7.31258e-18)
(0.0266454 0.0064793 1.30215e-17)
(0.0270872 0.0062977 2.01771e-18)
(-1.73783e-05 0.00024105 -8.14239e-19)
(-1.33569e-05 0.000249929 -1.23226e-18)
(-1.36477e-05 0.000243904 -1.69229e-18)
(-5.92489e-05 -5.1055e-05 1.5187e-19)
(-6.02989e-05 -3.47047e-05 -3.12079e-19)
(-0.000282562 0.0023513 8.19316e-18)
(-8.0293e-05 0.00233714 4.14325e-18)
(-0.000216133 0.00215201 -4.26703e-18)
(1.02041e-05 8.29876e-06 3.916e-19)
(1.20814e-05 1.14629e-05 8.25836e-19)
(1.59903e-05 6.15257e-06 3.66872e-19)
(-0.0186021 0.00069665 -3.13709e-17)
(-0.0174419 0.000420527 -5.00549e-18)
(-0.0336562 -0.0267169 2.79638e-18)
(-0.0256681 -0.024971 1.13271e-17)
(-0.0298367 -0.0286006 -2.12221e-18)
(0.00795219 -0.0143994 1.5794e-19)
(0.00693109 -0.0152212 4.47304e-18)
(0.00845458 -0.0156284 1.07394e-18)
(-5.79795e-05 -5.95118e-05 -1.07579e-19)
(-5.71548e-05 -6.33988e-05 2.99662e-19)
(-0.000455267 -0.000550001 -1.2816e-19)
(-0.000460476 -0.000579606 -6.04416e-19)
(-0.000467958 -0.000556585 3.43427e-18)
(0.00896561 -0.0135563 -3.06958e-18)
(0.00762009 -0.0131911 -3.11214e-19)
(-0.00398618 0.0133065 -2.36331e-18)
(-0.0035297 0.0121207 1.5598e-17)
(-0.00172336 0.00406262 1.53165e-18)
(-0.00038921 -3.87221e-05 2.57814e-19)
(-0.00036674 -5.39301e-05 -1.60738e-18)
(-0.00037765 -4.95472e-05 -2.63041e-19)
(-0.0016283 -0.000462976 -9.82391e-18)
(-0.001566 -0.000288494 -5.04888e-18)
(0.015459 1.83246e-05 -2.86412e-17)
(0.0152966 6.80391e-05 1.28719e-17)
(0.00845233 -0.0132993 9.2492e-19)
(0.00872456 -0.011693 -4.18589e-18)
(-0.0108057 -0.00568043 2.3679e-18)
(-0.0122202 -0.00586815 9.11407e-18)
(-8.04819e-05 0.00013209 -5.84686e-18)
(-6.19609e-05 0.000134973 -2.8516e-17)
(-7.56872e-05 0.000127288 -2.88202e-18)
(-8.63512e-05 0.000452212 -1.33402e-19)
(-3.22133e-05 0.00043306 -9.87258e-18)
(-6.35523e-05 0.00036108 -5.95317e-18)
(-8.97123e-05 -8.35002e-05 1.80334e-19)
(-9.06482e-05 -8.3481e-05 2.39303e-20)
(-8.56361e-05 -0.000100744 5.6832e-19)
(0.00540079 0.0254202 -2.18198e-17)
(0.00548077 0.0293805 -7.41e-18)
(-0.00144446 -0.000318948 -1.98977e-18)
(-0.00133117 -0.000327218 6.21755e-18)
(0.0400088 -0.00172629 -1.1274e-17)
(0.0414951 -0.00363273 1.93708e-19)
(-0.000233103 0.000367656 -5.70651e-18)
(-0.00022602 0.000375931 1.82058e-18)
(-0.000183214 -9.79098e-05 6.76839e-19)
(-0.000188175 -0.000121226 2.77729e-19)
(0.0142439 -0.0051942 -6.54478e-18)
(0.0146285 -0.00397932 -1.42939e-18)
(0.013453 -0.00398523 -1.0002e-17)
(-0.0102698 -0.00616021 -5.25965e-18)
(-0.00977909 -0.00519559 -1.19833e-18)
(-0.000170013 -9.24003e-06 -2.2634e-19)
(-0.000177781 -2.15695e-06 -3.10924e-18)
(-0.000171502 2.32443e-05 -5.28959e-18)
(-0.000137689 0.000106019 -3.25408e-18)
(-0.000125435 8.41427e-05 -2.84681e-18)
(-0.000129024 0.000102053 -1.68729e-18)
(0.000104771 0.000293771 1.59451e-17)
(0.000113078 0.000294094 3.13384e-18)
(0.000129959 0.000319575 -1.54372e-17)
(-0.0044079 -0.0136244 -8.80291e-18)
(-0.00561299 -0.0122597 3.98234e-18)
(-0.00375864 -0.0121091 -3.67288e-17)
(-0.0173931 0.00411759 -6.70413e-18)
(-0.0163205 0.00400659 1.39892e-17)
(-0.0155492 0.00437177 1.01462e-17)
(-0.00399647 0.0168028 8.0251e-18)
(-0.00550758 0.0159759 -2.10606e-17)
(-0.00422401 0.0178103 -1.85222e-17)
(-0.00100346 -0.000370168 3.86783e-18)
(-0.0010181 -0.000436203 -4.08187e-19)
(0.00213556 0.0022717 6.51095e-18)
(0.00275104 0.00222626 1.68763e-17)
(0.00230955 0.00226094 2.22774e-17)
(-0.0187158 0.0039814 -1.5832e-17)
(-0.018077 0.00433273 -1.48376e-17)
(-3.86872e-05 0.000401679 1.27201e-18)
(-4.36734e-05 0.00041548 -6.41574e-19)
(-3.28079e-05 0.000401606 -5.04061e-18)
(-0.00101657 -0.00130253 1.2677e-19)
(-0.00112102 -0.00120563 -3.09029e-19)
(-0.000976419 -0.00120461 -1.25289e-17)
(0.028461 -0.0105468 -3.84254e-19)
(0.0273288 -0.0111147 -7.21295e-18)
(0.0301229 -0.00978757 -1.09376e-17)
(-0.000187078 0.000326615 2.4084e-19)
(-0.000177254 0.000333251 1.53017e-18)
(-0.000178171 0.000321624 -5.78546e-19)
(0.0154721 0.00061482 4.24103e-19)
(0.0157679 0.00173024 -2.13555e-18)
(0.0165949 0.000391023 9.42596e-20)
(-0.000141245 5.2687e-05 -2.57691e-19)
(-0.000144013 2.73785e-05 1.22049e-19)
(-0.00494237 -0.0152949 -4.4554e-18)
(1.39425e-05 -0.000130879 -1.951e-18)
(1.8202e-05 -0.000123458 -1.30419e-19)
(1.75456e-05 -0.000128533 -1.53684e-18)
(0.00032861 -4.13536e-05 -5.90707e-19)
(0.000459827 -1.59447e-05 -1.97674e-18)
(0.000390638 -0.000173221 -1.20709e-17)
(-0.000226414 -0.000153803 -6.2958e-19)
(-0.00023441 -0.000148974 -2.4237e-20)
(-0.00023476 -0.000141482 -5.15087e-19)
(-3.55281e-05 0.000191548 5.98171e-19)
(-3.69994e-05 0.000176711 -1.41256e-17)
(-0.0172522 0.00766796 -9.92689e-19)
(-0.018861 0.00789082 4.69644e-18)
(-0.0176978 0.00929162 -5.21701e-18)
(-0.000160524 0.000189496 -4.73121e-19)
(-0.000155486 0.000185946 -1.66788e-19)
(-0.000161902 0.000180328 8.61221e-22)
(0.000367302 -0.000558475 3.28292e-17)
(0.000288501 -0.000703924 9.61352e-18)
(-5.4484e-05 -5.47437e-05 -4.0016e-19)
(-5.2414e-05 -6.56385e-05 -6.33876e-19)
(-0.0113477 0.00249991 -4.1335e-18)
(-0.0108709 0.0034317 1.68887e-17)
(-0.0102871 0.00235839 -2.42711e-18)
(0.0436416 -0.000666989 -1.13271e-17)
(0.0440373 -0.000127327 -8.71211e-18)
(-0.0196766 -0.00103893 -1.59269e-17)
(-0.0197471 -0.00147226 3.27504e-17)
(-0.0182168 -0.00131977 -1.0826e-17)
(-0.000109109 0.00013099 3.19797e-18)
(-8.93418e-05 0.000151267 6.66632e-18)
(-8.56494e-05 0.000116564 -7.11928e-19)
(-0.000861774 -0.0012692 -4.0523e-18)
(-0.000941103 -0.00143173 1.64072e-18)
(7.51574e-06 -0.000112631 1.45015e-18)
(4.11853e-06 -9.37581e-05 4.2447e-19)
(4.6532e-06 -9.68754e-05 -6.58226e-19)
(0.000231483 0.000609765 -8.41609e-18)
(0.000263858 0.000572763 -3.20382e-18)
(-4.52422e-05 -0.000108761 1.42931e-18)
(-4.39789e-05 -8.64002e-05 -8.4236e-19)
(-4.07223e-05 -0.000109754 -2.65461e-19)
(0.00028059 -3.67617e-05 2.02105e-18)
(0.0107238 0.00402823 1.70151e-17)
(0.0100105 0.00310198 2.99605e-17)
(0.00955375 0.00494852 -1.27253e-17)
(-7.7932e-05 0.000115729 -3.89168e-18)
(-6.64859e-05 0.000130415 7.65028e-18)
(-0.00019595 0.000329035 -1.98393e-18)
(-0.000189517 0.000339966 -3.83769e-18)
(-5.58013e-07 0.000405992 -2.80825e-18)
(-1.99331e-08 0.000414875 1.86336e-18)
(-0.00331733 0.0154658 8.55635e-18)
(-0.00272722 0.0172848 1.41371e-17)
(-5.5418e-05 -7.6462e-05 -2.65818e-19)
(-5.19281e-05 -7.03142e-05 5.8068e-19)
(0.0187126 -0.000109192 1.61578e-17)
(0.015741 -0.000265465 -1.09318e-17)
(-0.00668112 0.0151441 -1.6292e-18)
(-0.00798471 0.0142061 9.94347e-18)
(-0.00678521 0.0157908 1.46756e-17)
(-0.00263729 -0.000401861 1.00581e-17)
(-0.00286014 -0.00058979 2.42326e-17)
(9.65244e-06 -3.56899e-05 3.81871e-19)
(5.52855e-06 -2.92946e-05 -1.68127e-19)
(-0.00390965 -0.00278461 5.26755e-18)
(-0.00315416 -0.0037936 -3.29969e-19)
(-0.00476732 -0.00361372 -9.6238e-18)
(0.0349554 0.00556756 -4.51256e-18)
(0.0356634 0.00230061 1.62964e-17)
(0.0365639 0.00567288 2.80757e-17)
(-0.0141735 -0.0212263 -7.2995e-18)
(-0.0107115 -0.0204937 -9.37177e-18)
(0.0143299 0.000555129 -6.75191e-18)
(-0.000590852 0.000471016 1.95853e-18)
(-0.000535623 0.000497622 -1.16436e-17)
(-0.000575409 0.00043344 -9.29901e-18)
(0.000458627 0.000666888 -3.66851e-18)
(0.000425446 0.000637752 -1.14898e-17)
(0.000463567 0.000621514 -1.59677e-17)
(-0.0166483 0.00619916 5.63933e-18)
(-0.0156194 0.00737527 -6.552e-18)
(-0.000432581 -0.000540545 -7.2043e-18)
(-0.000460469 -0.000529748 -2.02532e-19)
(-0.00173151 0.00301316 -5.61778e-18)
(-0.00147427 0.00283827 2.53608e-18)
(-0.000502857 2.97297e-06 -6.65942e-19)
(-0.000478606 4.02882e-06 -4.97306e-19)
(-0.000463526 -1.94193e-05 -1.3154e-18)
(0.00711962 -0.00497436 2.01116e-17)
(0.00785707 -0.00361444 -3.20862e-18)
(0.00553219 -0.00345227 -2.21777e-18)
(-0.0031591 0.00815073 1.99867e-18)
(-0.0038271 0.00809162 -2.61977e-17)
(-0.00330226 0.00756701 -3.40508e-17)
(-5.04612e-05 1.03523e-05 2.6038e-20)
(-4.89378e-05 1.31058e-05 1.37854e-19)
(-4.1728e-05 1.36018e-05 -9.80208e-20)
(-0.000415299 0.000123294 -3.54795e-18)
(-0.000391046 9.78076e-05 -4.24875e-18)
(-0.000377875 0.000137223 -5.60679e-18)
(0.0148838 -0.00620121 -1.05399e-17)
(-0.0137759 -0.0169603 4.48184e-18)
(-0.013181 -0.0159559 9.3609e-18)
(-0.0406013 -0.00382614 -1.11458e-18)
(-0.039067 -0.00478075 -1.13103e-18)
(-0.0415677 -0.00363323 3.29589e-18)
(-8.98269e-05 -6.41789e-05 -9.21051e-20)
(-8.22834e-05 -8.93275e-05 -3.35767e-19)
(0.000244754 0.000213238 -8.77317e-18)
(-2.9971e-05 -0.00014794 -7.71052e-19)
(-3.22861e-05 -0.000148544 2.38728e-18)
(-3.04931e-05 -0.000138807 -3.05357e-19)
(-0.0184528 -0.00920911 2.48642e-18)
(-0.0189295 -0.00744891 -3.09194e-18)
(-0.0172925 -0.00793949 -1.26391e-18)
(-0.00176682 0.0120633 -7.38564e-18)
(-0.00134477 0.011731 5.057e-18)
(-0.00190409 0.0116176 -4.17043e-18)
(-0.0004164 0.000127848 2.22824e-18)
(-0.000415646 0.000116282 5.04785e-19)
(-0.0010768 0.00116652 -1.26014e-18)
(-0.0010982 0.00133863 -1.91468e-17)
(-0.00257571 0.00833652 2.40413e-17)
(-0.00305461 0.00879517 3.29634e-17)
(-5.74435e-05 0.000193343 -1.68276e-18)
(-6.44473e-05 0.000216745 -1.9222e-18)
(-5.2997e-05 0.000174624 -2.15312e-19)
(-7.86722e-07 0.000262948 1.1686e-17)
(1.71328e-05 0.000265218 -3.31743e-17)
(0.0056619 -0.00862947 -3.67573e-18)
(0.00671464 -0.00884722 5.37878e-18)
(0.00619433 -0.00784919 -5.62145e-18)
(-0.00497948 0.0325424 -3.45485e-18)
(-0.00128106 0.0300752 6.60255e-20)
(-0.00951237 0.029382 -1.30154e-17)
(-3.12144e-05 0.000258382 -3.77888e-18)
(-2.86433e-05 0.000285843 -3.54201e-18)
(-2.68596e-05 0.000299444 2.4439e-18)
(-3.04142e-05 0.000157596 6.29065e-18)
(-2.50089e-05 0.000196155 5.03902e-18)
(-8.10077e-05 0.000152464 -1.50922e-17)
(0.025008 -0.0114673 9.79937e-20)
(0.023355 -0.0125432 -6.32133e-18)
(0.0215842 -0.0127202 4.28213e-18)
(0.00877719 -2.93019e-05 4.83174e-18)
(0.00905738 3.16536e-05 -1.05878e-19)
(0.00867981 -0.00029014 -7.4468e-18)
(-0.00163211 0.000290152 1.76052e-18)
(-0.00153888 0.000295756 -1.79249e-18)
(-0.00160114 0.000408483 -1.11784e-17)
(-7.95508e-05 5.26978e-05 -7.57229e-19)
(-7.79584e-05 2.84499e-05 4.74792e-19)
(-0.00470394 0.0135408 -4.35084e-18)
(-0.00410021 0.0142524 -6.53366e-19)
(-0.000841187 0.0112788 -6.69551e-18)
(-0.00109974 0.0114771 1.10245e-17)
(-0.00110655 0.011152 -1.29213e-17)
(-0.00790375 -0.00727018 -4.355e-18)
(-0.00703501 -0.00801762 -8.93577e-18)
(-0.00686337 -0.00693474 -1.35358e-17)
(-0.00117016 0.00108565 -2.41958e-19)
(-0.00107062 0.00107249 5.7801e-18)
(0.0267489 -0.0101241 -7.95056e-18)
(0.02799 -0.00997364 -4.25789e-18)
(-0.00314976 0.00323383 -1.73008e-18)
(-0.00170869 0.00336253 3.87043e-18)
(-0.00175153 0.00178003 9.69415e-18)
(-0.000375202 0.000267613 -9.38168e-19)
(-0.000324482 0.00030427 -6.0355e-18)
(-0.000371385 0.000314114 7.03893e-18)
(-0.000842637 -0.000270483 1.2902e-17)
(-0.00088527 -0.000268211 6.85069e-18)
(-0.000852155 -0.000316565 2.47262e-19)
(0.0126008 0.00730803 -1.20914e-17)
(0.013176 0.00798911 -3.28448e-18)
(0.0104514 0.00697126 -6.65911e-17)
(-0.000100568 -8.75032e-05 4.07855e-19)
(-9.91058e-05 -0.000102116 3.56898e-19)
(-0.000104129 -6.73683e-05 2.53384e-19)
(-1.45558e-05 0.000197539 -1.96647e-19)
(-1.44687e-05 0.000190738 2.0289e-19)
(-8.18919e-06 0.000196931 6.93875e-19)
(-0.00854546 -0.00670076 1.13699e-17)
(-0.00878074 -0.00778459 3.79694e-18)
(-0.000275022 -0.000982863 -3.3461e-18)
(-0.000134455 -0.000923135 1.11111e-19)
(-0.000250561 -0.000848127 7.27907e-18)
(-5.65997e-05 -5.79293e-05 -6.26147e-19)
(-5.80226e-05 -4.23201e-05 -4.34628e-19)
(-5.47444e-05 -4.08274e-05 5.22987e-19)
(1.97607e-05 -0.000109322 -1.47779e-18)
(1.87486e-05 -0.000120118 6.66019e-19)
(1.32017e-05 -0.000122474 -2.78014e-18)
(-4.56999e-05 -0.000115736 2.85157e-19)
(-4.31136e-05 -0.000103755 1.68615e-18)
(-2.50619e-05 -4.64417e-06 3.29251e-19)
(-2.21942e-05 -6.34946e-06 -7.15724e-20)
(-1.92268e-05 -2.64918e-06 1.91071e-19)
(-0.000687691 0.000199506 -2.15815e-18)
(-0.000705356 0.000269084 -7.09517e-18)
(-0.00076063 0.000191335 2.94696e-18)
(-2.12489e-05 0.000185996 -1.85554e-18)
(0.0270277 -0.011157 6.26601e-18)
(0.0241967 -0.0123554 -4.84878e-18)
(-0.0014182 0.000468553 1.71902e-19)
(-0.00144318 0.000347738 6.03953e-19)
(-0.000136007 0.000199082 6.12493e-19)
(-0.000126299 0.000216746 1.08482e-18)
(-0.000126721 0.000198864 -5.84176e-19)
(-0.0153272 -0.0161049 -5.34519e-18)
(0.0358616 0.0058666 4.83264e-18)
(0.035642 0.00555252 1.02311e-17)
(-4.0157e-05 0.000397308 -3.815e-18)
(-4.72587e-05 0.000405139 -1.50573e-19)