/*--------------------------------*- C++ -*----------------------------------*\
| =========                 |                                                 |
| \\      /  F ield         | OpenFOAM: The Open Source CFD Toolbox           |
|  \\    /   O peration     | Version:  v2012                                 |
|   \\  /    A nd           | Website:  www.openfoam.com                      |
|    \\/     M anipulation  |                                                 |
\*---------------------------------------------------------------------------*/
FoamFile
{
    version     2.0;
    format      ascii;
    class       volVectorField;
    location    "350";
    object      cellDisplacement;
}
// * * * * * * * * * * * * * * * * * * * * * * * * * * * * * * * * * * * * * //

dimensions      [0 1 0 0 0 0 0];


internalField   nonuniform List<vector> 
13917
(
(0 -0.0634708 0)
(0 -0.0576268 0)
(0 -0.0634296 0)
(0 -0.056271 0)
(0 -0.0488007 0)
(0 -0.0573734 0)
(0 -0.0613214 0)
(0 -0.0593214 0)
(0 -0.0613262 0)
(0 -0.0634706 0)
(0 -0.0592555 0)
(0 -0.0517701 0)
(0 -0.00170791 0)
(0 -0.0602967 0)
(0 -0.0550397 0)
(0 -0.0634709 0)
(0 -0.00131117 0)
(0 -0.0593847 0)
(0 -0.0633374 0)
(0 -0.0634707 0)
(0 -0.0600449 0)
(0 -0.0443291 0)
(0 -0.0628282 0)
(0 -0.0439275 0)
(0 -0.0581825 0)
(0 -0.0599207 0)
(0 -0.0624358 0)
(0 -0.0634709 0)
(0 -0.0596694 0)
(0 -0.000869472 0)
(0 -0.0634706 0)
(0 -0.063202 0)
(0 -0.0558278 0)
(0 -0.0634705 0)
(0 -0.0296945 0)
(0 -0.0592194 0)
(0 -0.0568879 0)
(0 -0.00194934 0)
(0 -0.0614046 0)
(0 -0.0613708 0)
(0 -0.000398124 0)
(0 -0.0204636 0)
(0 -0.0604689 0)
(0 -0.0633474 0)
(0 -0.0633393 0)
(0 -0.0632081 0)
(0 -0.0599548 0)
(0 -0.0634606 0)
(0 -0.0578898 0)
(0 -0.030021 0)
(0 -0.0512895 0)
(0 -0.0631722 0)
(0 -0.0634709 0)
(0 -0.0489104 0)
(0 -0.0501808 0)
(0 -0.0631851 0)
(0 -0.0634709 0)
(0 -0.0627989 0)
(0 -0.0199492 0)
(0 -0.063193 0)
(0 -0.0633731 0)
(0 -0.0335923 0)
(0 -0.000134546 0)
(0 -0.0579696 0)
(0 -0.0634596 0)
(0 -0.00131899 0)
(0 -0.0595818 0)
(0 -0.0590442 0)
(0 -0.0594402 0)
(0 -0.0634709 0)
(0 -0.0634537 0)
(0 -0.0634706 0)
(0 -0.0518075 0)
(0 -0.0197303 0)
(0 -0.0602362 0)
(0 -0.058159 0)
(0 -0.0483757 0)
(0 -0.0192172 0)
(0 -0.0579699 0)
(0 -0.0561389 0)
(0 -0.0506593 0)
(0 -0.00152591 0)
(0 -0.0513211 0)
(0 -0.0634588 0)
(0 -0.0167177 0)
(0 -0.0605146 0)
(0 -0.0631824 0)
(0 -0.0085978 0)
(0 -0.0612453 0)
(0 -0.00156735 0)
(0 -0.00255157 0)
(0 -0.0606177 0)
(0 -0.0576949 0)
(0 -0.0259729 0)
(0 -0.0526063 0)
(0 -0.0597365 0)
(0 -0.0620248 0)
(0 -0.00213313 0)
(0 -0.00967854 0)
(0 -0.0620419 0)
(0 -0.000382394 0)
(0 -0.000465365 0)
(0 -0.0511498 0)
(0 -0.00389705 0)
(0 -0.0479292 0)
(0 -0.0634629 0)
(0 -0.063467 0)
(0 -0.0332632 0)
(0 -0.0206731 0)
(0 -0.0624542 0)
(0 -0.0111144 0)
(0 -0.0634704 0)
(0 -0.0598256 0)
(0 -0.0634613 0)
(0 -0.0634591 0)
(0 -0.05836 0)
(0 -0.063325 0)
(0 -0.00160712 0)
(0 -0.063413 0)
(0 -0.0491758 0)
(0 -0.00189506 0)
(0 -0.0189737 0)
(0 -0.0596457 0)
(0 -0.0632248 0)
(0 -0.0634709 0)
(0 -0.0634605 0)
(0 -0.0577431 0)
(0 -0.0603225 0)
(0 -0.0317567 0)
(0 -0.0632405 0)
(0 -0.0624451 0)
(0 -0.062885 0)
(0 -0.0634688 0)
(0 -0.0582551 0)
(0 -0.0632692 0)
(0 -0.0623898 0)
(0 -0.0633372 0)
(0 -0.0634708 0)
(0 -0.059898 0)
(0 -0.00105327 0)
(0 -0.0522236 0)
(0 -0.0189778 0)
(0 -0.0634623 0)
(0 -0.0363898 0)
(0 -0.050085 0)
(0 -0.0210944 0)
(0 -0.0634541 0)
(0 -0.0424993 0)
(0 -0.0634634 0)
(0 -0.0495331 0)
(0 -0.0610345 0)
(0 -0.000412803 0)
(0 -0.0494564 0)
(0 -0.0493301 0)
(0 -0.0620552 0)
(0 -0.0438737 0)
(0 -0.00447735 0)
(0 -0.0634693 0)
(0 -0.0007749 0)
(0 -0.00131662 0)
(0 -0.0293132 0)
(0 -0.0634445 0)
(0 -0.0571073 0)
(0 -0.0520489 0)
(0 -0.063432 0)
(0 -0.0621018 0)
(0 -0.0634709 0)
(0 -0.0634367 0)
(0 -0.000179777 0)
(0 -0.0599731 0)
(0 -0.0445516 0)
(0 -0.0634686 0)
(0 -0.0612867 0)
(0 -0.0633582 0)
(0 -0.0628453 0)
(0 -0.0006588 0)
(0 -0.056334 0)
(0 -0.0631797 0)
(0 -0.0623848 0)
(0 -0.0572786 0)
(0 -0.0603102 0)
(0 -0.0440524 0)
(0 -0.0511938 0)
(0 -0.0633225 0)
(0 -0.0634147 0)
(0 -0.062859 0)
(0 -0.050732 0)
(0 -0.0633148 0)
(0 -0.00107481 0)
(0 -0.0604621 0)
(0 -0.0628231 0)
(0 -0.0633246 0)
(0 -0.0632982 0)
(0 -0.0634708 0)
(0 -0.0263087 0)
(0 -0.0634709 0)
(0 -0.060292 0)
(0 -0.0634683 0)
(0 -0.0290975 0)
(0 -0.0435696 0)
(0 -0.0597242 0)
(0 -0.0634709 0)
(0 -0.0634709 0)
(0 -0.0556952 0)
(0 -0.0626007 0)
(0 -0.058734 0)
(0 -0.0611635 0)
(0 -0.0192637 0)
(0 -0.0631894 0)
(0 -0.0505087 0)
(0 -0.0250533 0)
(0 -0.0490363 0)
(0 -0.0492579 0)
(0 -0.0634618 0)
(0 -0.0632569 0)
(0 -0.0600129 0)
(0 -0.0634614 0)
(0 -0.00495545 0)
(0 -0.0107659 0)
(0 -0.0106074 0)
(0 -0.0634422 0)
(0 -0.0633075 0)
(0 -0.0633173 0)
(0 -0.0213839 0)
(0 -9.09504e-05 0)
(0 -0.0624005 0)
(0 -0.0634709 0)
(0 -0.00980118 0)
(0 -0.00941822 0)
(0 -0.000369045 0)
(0 -0.0109411 0)
(0 -0.0107777 0)
(0 -0.0634707 0)
(0 -0.0634588 0)
(0 -0.047295 0)
(0 -0.000383432 0)
(0 -0.0630374 0)
(0 -0.0634708 0)
(0 -0.00103416 0)
(0 -0.0198865 0)
(0 -0.0625608 0)
(0 -0.0634627 0)
(0 -0.0633194 0)
(0 -0.063463 0)
(0 -0.0629792 0)
(0 -0.0367716 0)
(0 -0.0634354 0)
(0 -0.0630719 0)
(0 -0.0597621 0)
(0 -0.0632067 0)
(0 -0.0554838 0)
(0 -0.0634609 0)
(0 -0.049767 0)
(0 -0.0620965 0)
(0 -0.0627922 0)
(0 -0.0475165 0)
(0 -0.000174906 0)
(0 -0.0579671 0)
(0 -0.0466029 0)
(0 -0.0271099 0)
(0 -0.0634708 0)
(0 -0.0589073 0)
(0 -0.0204051 0)
(0 -0.00921591 0)
(0 -0.0444616 0)
(0 -0.00942543 0)
(0 -0.0498579 0)
(0 -0.00318743 0)
(0 -0.0623162 0)
(0 -0.0207332 0)
(0 -0.0634708 0)
(0 -0.0634658 0)
(0 -0.0466236 0)
(0 -0.0466446 0)
(0 -0.0631897 0)
(0 -0.00854291 0)
(0 -0.0619537 0)
(0 -0.0634708 0)
(0 -0.00868905 0)
(0 -0.0634708 0)
(0 -0.0264756 0)
(0 -0.0634403 0)
(0 -0.000522048 0)
(0 -0.0542074 0)
(0 -0.0479197 0)
(0 -0.0352217 0)
(0 -0.0633608 0)
(0 -0.00312682 0)
(0 -0.0621324 0)
(0 -0.0607557 0)
(0 -0.0588603 0)
(0 -0.0214898 0)
(0 -0.062613 0)
(0 -0.0634709 0)
(0 -0.00142419 0)
(0 -0.0628694 0)
(0 -0.0474534 0)
(0 -0.0583557 0)
(0 -0.0483312 0)
(0 -0.058006 0)
(0 -0.0260667 0)
(0 -0.00384395 0)
(0 -0.0631425 0)
(0 -0.0413671 0)
(0 -0.0620335 0)
(0 -0.0578213 0)
(0 -0.018488 0)
(0 -0.063469 0)
(0 -0.0634709 0)
(0 -0.0297822 0)
(0 -0.00730195 0)
(0 -0.0584588 0)
(0 -0.0492151 0)
(0 -0.0633905 0)
(0 -0.0634675 0)
(0 -0.0633587 0)
(0 -0.000820186 0)
(0 -0.0628695 0)
(0 -0.0461039 0)
(0 -0.0634569 0)
(0 -0.0495531 0)
(0 -0.0634288 0)
(0 -0.00281089 0)
(0 -0.0547103 0)
(0 -0.0624855 0)
(0 -0.0446851 0)
(0 -0.0577757 0)
(0 -0.0633152 0)
(0 -0.00115807 0)
(0 -0.0634684 0)
(0 -0.0133925 0)
(0 -0.0628947 0)
(0 -0.00832924 0)
(0 -0.0634707 0)
(0 -0.0165557 0)
(0 -0.0619722 0)
(0 -0.0589386 0)
(0 -0.000608122 0)
(0 -0.00157498 0)
(0 -0.0632188 0)
(0 -0.0634608 0)
(0 -0.0523784 0)
(0 -0.0444157 0)
(0 -0.0634701 0)
(0 -0.0634615 0)
(0 -0.0633867 0)
(0 -0.0601542 0)
(0 -0.00844788 0)
(0 -0.047887 0)
(0 -0.0634632 0)
(0 -0.0628991 0)
(0 -0.00864542 0)
(0 -0.0479575 0)
(0 -0.0501621 0)
(0 -0.0609979 0)
(0 -0.0620317 0)
(0 -0.0632548 0)
(0 -0.062787 0)
(0 -0.0618723 0)
(0 -0.062865 0)
(0 -0.0634706 0)
(0 -0.0325008 0)
(0 -0.0525333 0)
(0 -0.0489904 0)
(0 -0.0633965 0)
(0 -0.000919031 0)
(0 -0.0634708 0)
(0 -0.062845 0)
(0 -0.0106721 0)
(0 -0.0506514 0)
(0 -0.0628733 0)
(0 -0.00751741 0)
(0 -0.0572468 0)
(0 -0.0191546 0)
(0 -0.0633249 0)
(0 -0.0632047 0)
(0 -0.0590598 0)
(0 -0.047279 0)
(0 -0.0634354 0)
(0 -0.00841317 0)
(0 -0.0634273 0)
(0 -0.0633107 0)
(0 -0.0189228 0)
(0 -0.0574652 0)
(0 -0.0485244 0)
(0 -0.00956895 0)
(0 -0.0195269 0)
(0 -0.0634704 0)
(0 -0.0095089 0)
(0 -0.0569122 0)
(0 -0.0624746 0)
(0 -0.0617257 0)
(0 -0.0548502 0)
(0 -0.0634207 0)
(0 -0.06344 0)
(0 -0.0565082 0)
(0 -0.0633615 0)
(0 -0.0477703 0)
(0 -0.0616715 0)
(0 -0.063425 0)
(0 -0.0118711 0)
(0 -0.0613429 0)
(0 -0.0579058 0)
(0 -0.0345714 0)
(0 -0.0198935 0)
(0 -0.0335526 0)
(0 -0.0633394 0)
(0 -0.0621691 0)
(0 -0.0516538 0)
(0 -0.0337496 0)
(0 -0.0428169 0)
(0 -0.0627492 0)
(0 -0.0585149 0)
(0 -0.00831953 0)
(0 -0.000205767 0)
(0 -0.0633843 0)
(0 -0.0628249 0)
(0 -0.0361083 0)
(0 -0.0566765 0)
(0 -0.0633332 0)
(0 -0.0617903 0)
(0 -0.0012713 0)
(0 -0.0633493 0)
(0 -0.0634544 0)
(0 -0.0133588 0)
(0 -0.00828951 0)
(0 -0.0594304 0)
(0 -0.0187294 0)
(0 -0.0084794 0)
(0 -0.0476852 0)
(0 -0.00846214 0)
(0 -0.0130375 0)
(0 -0.0634446 0)
(0 -0.0483568 0)
(0 -0.061606 0)
(0 -0.0634708 0)
(0 -0.0628314 0)
(0 -0.0258789 0)
(0 -0.0488138 0)
(0 -0.0634252 0)
(0 -0.059643 0)
(0 -0.0634709 0)
(0 -0.00834841 0)
(0 -0.0336873 0)
(0 -0.00870846 0)
(0 -0.0110647 0)
(0 -0.0565809 0)
(0 -0.0485475 0)
(0 -0.063318 0)
(0 -0.0192861 0)
(0 -0.0634633 0)
(0 -0.0333204 0)
(0 -0.0625245 0)
(0 -0.0199632 0)
(0 -0.0499506 0)
(0 -0.0629939 0)
(0 -0.0633793 0)
(0 -0.0497531 0)
(0 -0.0619732 0)
(0 -0.0269733 0)
(0 -0.00756015 0)
(0 -0.0421111 0)
(0 -0.0487905 0)
(0 -0.0233711 0)
(0 -0.00631075 0)
(0 -0.0634692 0)
(0 -0.0633719 0)
(0 -0.0225171 0)
(0 -0.0626694 0)
(0 -0.0633797 0)
(0 -0.00690769 0)
(0 -0.0629163 0)
(0 -0.0632689 0)
(0 -0.0634364 0)
(0 -0.061622 0)
(0 -0.0634626 0)
(0 -0.0104381 0)
(0 -0.0104913 0)
(0 -0.0488158 0)
(0 -0.00110535 0)
(0 -0.0203335 0)
(0 -0.0551017 0)
(0 -0.0633799 0)
(0 -0.00247929 0)
(0 -0.0484128 0)
(0 -0.0527698 0)
(0 -0.0613072 0)
(0 -0.0603579 0)
(0 -0.063402 0)
(0 -0.0630141 0)
(0 -0.0224021 0)
(0 -0.0468231 0)
(0 -0.0595493 0)
(0 -0.0620612 0)
(0 -0.0513431 0)
(0 -0.0603119 0)
(0 -0.0624053 0)
(0 -0.0607932 0)
(0 -0.0634143 0)
(0 -0.0152776 0)
(0 -0.0621126 0)
(0 -0.0631975 0)
(0 -0.0145398 0)
(0 -0.0634701 0)
(0 -0.00761209 0)
(0 -0.0108481 0)
(0 -0.0627966 0)
(0 -0.00851821 0)
(0 -0.00535761 0)
(0 -0.0631115 0)
(0 -0.0634695 0)
(0 -0.0624295 0)
(0 -0.0282657 0)
(0 -0.0574928 0)
(0 -0.0233508 0)
(0 -0.0633501 0)
(0 -0.0631511 0)
(0 -0.0505375 0)
(0 -0.0496282 0)
(0 -0.0259614 0)
(0 -0.0627536 0)
(0 -0.0377171 0)
(0 -0.0318148 0)
(0 -0.00111117 0)
(0 -0.0429481 0)
(0 -0.0336938 0)
(0 -0.0386905 0)
(0 -0.0613235 0)
(0 -0.00212023 0)
(0 -0.0630184 0)
(0 -0.0133956 0)
(0 -0.0436818 0)
(0 -0.0577304 0)
(0 -0.0634691 0)
(0 -0.00609365 0)
(0 -0.0598876 0)
(0 -0.0274156 0)
(0 -0.0624666 0)
(0 -0.063055 0)
(0 -0.060625 0)
(0 -0.0628325 0)
(0 -0.0621428 0)
(0 -0.0570413 0)
(0 -0.0594838 0)
(0 -0.0634679 0)
(0 -0.0634478 0)
(0 -0.0634708 0)
(0 -0.0278463 0)
(0 -0.0411911 0)
(0 -0.0225612 0)
(0 -0.0427389 0)
(0 -0.0634608 0)
(0 -0.00876902 0)
(0 -0.0496824 0)
(0 -0.0603219 0)
(0 -0.0634659 0)
(0 -0.0620285 0)
(0 -0.060452 0)
(0 -0.0634701 0)
(0 -0.0224034 0)
(0 -0.0632031 0)
(0 -0.00259738 0)
(0 -0.0268668 0)
(0 -0.0634667 0)
(0 -0.00834653 0)
(0 -0.0634329 0)
(0 -0.000175301 0)
(0 -0.0050312 0)
(0 -0.0419029 0)
(0 -0.0633972 0)
(0 -0.0385265 0)
(0 -0.00831041 0)
(0 -0.0633523 0)
(0 -0.0628773 0)
(0 -0.0448877 0)
(0 -0.0634522 0)
(0 -0.0634688 0)
(0 -0.0634358 0)
(0 -0.00579441 0)
(0 -0.0634709 0)
(0 -0.000419337 0)
(0 -0.0633486 0)
(0 -0.0425591 0)
(0 -0.0271113 0)
(0 -0.00798975 0)
(0 -0.000412361 0)
(0 -0.0623475 0)
(0 -0.0601461 0)
(0 -0.00851437 0)
(0 -0.00254949 0)
(0 -0.00337634 0)
(0 -0.0634493 0)
(0 -0.0320198 0)
(0 -0.0631541 0)
(0 -0.0478023 0)
(0 -0.00790858 0)
(0 -0.000961386 0)
(0 -0.0632053 0)
(0 -0.0634247 0)
(0 -0.0634699 0)
(0 -0.0631827 0)
(0 -0.0613265 0)
(0 -0.063408 0)
(0 -0.0634707 0)
(0 -0.0200726 0)
(0 -0.0633805 0)
(0 -0.00332081 0)
(0 -0.0633547 0)
(0 -0.0427828 0)
(0 -0.0634357 0)
(0 -0.0327693 0)
(0 -0.0392702 0)
(0 -0.0506397 0)
(0 -0.0445382 0)
(0 -0.0623817 0)
(0 -0.0634598 0)
(0 -0.0022955 0)
(0 -0.0622515 0)
(0 -0.031352 0)
(0 -0.000286291 0)
(0 -0.0634704 0)
(0 -0.0619332 0)
(0 -0.0317725 0)
(0 -0.0632706 0)
(0 -0.0199771 0)
(0 -0.0254779 0)
(0 -0.00029956 0)
(0 -0.0634702 0)
(0 -0.0316964 0)
(0 -0.0470802 0)
(0 -0.00858436 0)
(0 -0.0314187 0)
(0 -0.0633911 0)
(0 -0.000396262 0)
(0 -0.0632799 0)
(0 -0.00163498 0)
(0 -0.0164044 0)
(0 -0.0633626 0)
(0 -0.0631751 0)
(0 -0.0499934 0)
(0 -0.0634709 0)
(0 -0.0634302 0)
(0 -0.0579021 0)
(0 -0.0631889 0)
(0 -0.0215557 0)
(0 -0.0551739 0)
(0 -0.0634696 0)
(0 -0.0634405 0)
(0 -0.0593231 0)
(0 -0.0570052 0)
(0 -0.0396071 0)
(0 -0.00193271 0)
(0 -0.0344707 0)
(0 -0.000795029 0)
(0 -0.0630802 0)
(0 -0.0595913 0)
(0 -0.0634162 0)
(0 -0.0624381 0)
(0 -0.0583063 0)
(0 -0.0631781 0)
(0 -0.0417532 0)
(0 -0.0620037 0)
(0 -0.0633024 0)
(0 -0.0634708 0)
(0 -0.0263659 0)
(0 -0.0425537 0)
(0 -0.00058433 0)
(0 -0.0164265 0)
(0 -0.00255836 0)
(0 -0.000924891 0)
(0 -0.0235049 0)
(0 -0.00536225 0)
(0 -0.0634709 0)
(0 -0.0626181 0)
(0 -0.00534569 0)
(0 -0.0632995 0)
(0 -0.00251931 0)
(0 -0.0634665 0)
(0 -0.0261738 0)
(0 -0.0315314 0)
(0 -0.0634698 0)
(0 -0.0630282 0)
(0 -0.017446 0)
(0 -0.0527599 0)
(0 -0.0075009 0)
(0 -0.0298705 0)
(0 -0.0560218 0)
(0 -0.0617282 0)
(0 -0.0346597 0)
(0 -0.0634709 0)
(0 -0.0610958 0)
(0 -0.0392917 0)
(0 -0.0171861 0)
(0 -0.0421861 0)
(0 -0.0634688 0)
(0 -0.0575189 0)
(0 -0.00315861 0)
(0 -0.0317043 0)
(0 -0.0634707 0)
(0 -0.0624863 0)
(0 -0.060413 0)
(0 -0.0634709 0)
(0 -0.0486331 0)
(0 -0.0175465 0)
(0 -0.0305482 0)
(0 -0.0564731 0)
(0 -0.0634619 0)
(0 -0.0176161 0)
(0 -0.0623752 0)
(0 -0.055732 0)
(0 -0.0599149 0)
(0 -0.0633623 0)
(0 -0.0459221 0)
(0 -0.0632585 0)
(0 -0.0626331 0)
(0 -0.0521068 0)
(0 -0.0562208 0)
(0 -0.00318393 0)
(0 -0.0616595 0)
(0 -0.0464563 0)
(0 -0.0634433 0)
(0 -0.0584364 0)
(0 -0.0257067 0)
(0 -0.0634709 0)
(0 -0.00145701 0)
(0 -0.0490062 0)
(0 -0.0568116 0)
(0 -0.0573546 0)
(0 -0.0605035 0)
(0 -0.0634375 0)
(0 -0.00184303 0)
(0 -0.0631729 0)
(0 -0.0634235 0)
(0 -0.00078045 0)
(0 -0.04352 0)
(0 -0.0585383 0)
(0 -0.00394762 0)
(0 -0.0376171 0)
(0 -0.050114 0)
(0 -0.0524649 0)
(0 -0.0196624 0)
(0 -0.0631875 0)
(0 -0.0632776 0)
(0 -0.0206058 0)
(0 -0.063447 0)
(0 -0.0612565 0)
(0 -0.0613509 0)
(0 -0.0632893 0)
(0 -0.0483011 0)
(0 -0.0631993 0)
(0 -0.0620988 0)
(0 -0.00696379 0)
(0 -0.0630321 0)
(0 -0.0628659 0)
(0 -0.0625925 0)
(0 -0.030751 0)
(0 -0.0243299 0)
(0 -0.0341016 0)
(0 -0.0634709 0)
(0 -0.0554757 0)
(0 -0.0261982 0)
(0 -0.0628618 0)
(0 -0.0355251 0)
(0 -0.0273826 0)
(0 -0.0631774 0)
(0 -0.0620637 0)
(0 -0.052192 0)
(0 -0.0618841 0)
(0 -0.06092 0)
(0 -0.0634635 0)
(0 -0.0502359 0)
(0 -0.0486684 0)
(0 -0.0634184 0)
(0 -0.0267946 0)
(0 -0.0338913 0)
(0 -0.00154755 0)
(0 -0.00264029 0)
(0 -0.0523253 0)
(0 -0.0585024 0)
(0 -0.0607606 0)
(0 -0.0302776 0)
(0 -0.00712255 0)
(0 -0.0410886 0)
(0 -0.0429259 0)
(0 -0.0569691 0)
(0 -0.0615962 0)
(0 -0.00850048 0)
(0 -0.0632142 0)
(0 -0.0545688 0)
(0 -0.0634249 0)
(0 -0.0525131 0)
(0 -0.00114291 0)
(0 -0.0634684 0)
(0 -0.056348 0)
(0 -0.0634708 0)
(0 -0.0599532 0)
(0 -0.0529566 0)
(0 -0.0460657 0)
(0 -0.0259329 0)
(0 -0.0426814 0)
(0 -0.063468 0)
(0 -0.061579 0)
(0 -0.0581076 0)
(0 -0.0616977 0)
(0 -0.0366387 0)
(0 -0.0626116 0)
(0 -0.000277969 0)
(0 -0.032112 0)
(0 -0.0364959 0)
(0 -0.000385369 0)
(0 -0.0634396 0)
(0 -0.0600411 0)
(0 -0.0532461 0)
(0 -0.0633113 0)
(0 -0.0477484 0)
(0 -0.0120595 0)
(0 -0.00320037 0)
(0 -0.0628159 0)
(0 -0.0214541 0)
(0 -0.0482173 0)
(0 -0.0563361 0)
(0 -0.0402468 0)
(0 -0.0628751 0)
(0 -0.0115691 0)
(0 -0.0608431 0)
(0 -0.0519779 0)
(0 -0.0634709 0)
(0 -0.0634708 0)
(0 -0.0499198 0)
(0 -0.0634637 0)
(0 -0.0620518 0)
(0 -0.0634709 0)
(0 -0.0488497 0)
(0 -0.0156641 0)
(0 -0.0246846 0)
(0 -0.0479085 0)
(0 -0.0557662 0)
(0 -0.0270853 0)
(0 -0.0616654 0)
(0 -0.0363054 0)
(0 -0.0587029 0)
(0 -0.0488109 0)
(0 -0.0634494 0)
(0 -0.0551053 0)
(0 -0.0623504 0)
(0 -0.0626563 0)
(0 -0.0279585 0)
(0 -0.061457 0)
(0 -0.0563769 0)
(0 -0.0280678 0)
(0 -0.0608392 0)
(0 -0.00823295 0)
(0 -0.0634687 0)
(0 -0.0631075 0)
(0 -0.00643281 0)
(0 -0.0295651 0)
(0 -0.0375316 0)
(0 -0.0443076 0)
(0 -0.0417264 0)
(0 -0.0634201 0)
(0 -0.0166005 0)
(0 -0.0620015 0)
(0 -0.0319156 0)
(0 -0.0106482 0)
(0 -0.0533948 0)
(0 -0.0365949 0)
(0 -0.0631919 0)
(0 -0.0340353 0)
(0 -0.0175242 0)
(0 -0.0168583 0)
(0 -0.0633854 0)
(0 -0.0556202 0)
(0 -0.0632236 0)
(0 -0.0211028 0)
(0 -0.061968 0)
(0 -0.00806458 0)
(0 -0.0420226 0)
(0 -0.0634707 0)
(0 -0.00263825 0)
(0 -0.0565783 0)
(0 -0.063288 0)
(0 -0.0634708 0)
(0 -0.00815729 0)
(0 -0.0484618 0)
(0 -0.0634241 0)
(0 -0.0199067 0)
(0 -0.0477355 0)
(0 -0.0409787 0)
(0 -0.0634522 0)
(0 -0.0355653 0)
(0 -0.063363 0)
(0 -0.0505926 0)
(0 -0.06347 0)
(0 -0.0540137 0)
(0 -0.0631205 0)
(0 -0.0340188 0)
(0 -0.00593476 0)
(0 -0.00965891 0)
(0 -0.00472423 0)
(0 -0.00125951 0)
(0 -0.0634671 0)
(0 -0.0553205 0)
(0 -0.0215075 0)
(0 -0.0498489 0)
(0 -0.0196349 0)
(0 -0.0244258 0)
(0 -0.0630849 0)
(0 -0.056188 0)
(0 -0.0634611 0)
(0 -0.0615307 0)
(0 -0.0632656 0)
(0 -0.0631625 0)
(0 -0.0597463 0)
(0 -0.06347 0)
(0 -0.0528063 0)
(0 -0.0630595 0)
(0 -0.035834 0)
(0 -0.0634708 0)
(0 -0.0106843 0)
(0 -0.0535912 0)
(0 -0.00825483 0)
(0 -0.0272471 0)
(0 -0.0507716 0)
(0 -0.00815759 0)
(0 -0.0156313 0)
(0 -0.0214509 0)
(0 -0.0417413 0)
(0 -0.0613192 0)
(0 -0.00652506 0)
(0 -0.0550456 0)
(0 -0.0632195 0)
(0 -0.0634421 0)
(0 -0.0634312 0)
(0 -0.063269 0)
(0 -0.0446347 0)
(0 -0.0098865 0)
(0 -0.0335374 0)
(0 -0.0634191 0)
(0 -0.037299 0)
(0 -0.0634709 0)
(0 -0.0102048 0)
(0 -0.0165426 0)
(0 -0.00923755 0)
(0 -0.046325 0)
(0 -0.00991316 0)
(0 -0.00889135 0)
(0 -0.034767 0)
(0 -0.0620712 0)
(0 -0.0215998 0)
(0 -0.06347 0)
(0 -0.0495246 0)
(0 -0.0264694 0)
(0 -0.0634674 0)
(0 -0.0368017 0)
(0 -0.0339079 0)
(0 -0.0327436 0)
(0 -0.0634699 0)
(0 -0.0620844 0)
(0 -0.000935881 0)
(0 -0.0177793 0)
(0 -0.0288812 0)
(0 -0.0330136 0)
(0 -0.0634505 0)
(0 -0.0252072 0)
(0 -0.0618617 0)
(0 -0.0569268 0)
(0 -0.0533283 0)
(0 -0.0260905 0)
(0 -0.0199241 0)
(0 -0.0598903 0)
(0 -0.0477294 0)
(0 -0.056869 0)
(0 -0.0634706 0)
(0 -0.0354751 0)
(0 -0.00353762 0)
(0 -0.0479642 0)
(0 -0.0387633 0)
(0 -0.0234745 0)
(0 -0.063322 0)
(0 -0.0625908 0)
(0 -0.0594298 0)
(0 -0.0634706 0)
(0 -0.0634696 0)
(0 -0.0473442 0)
(0 -0.0633352 0)
(0 -0.0206672 0)
(0 -0.0634707 0)
(0 -0.0191917 0)
(0 -0.0633274 0)
(0 -0.0627919 0)
(0 -0.0614191 0)
(0 -0.0563531 0)
(0 -0.0631491 0)
(0 -0.0624519 0)
(0 -0.063458 0)
(0 -0.00765531 0)
(0 -0.0434799 0)
(0 -0.00834369 0)
(0 -0.0363677 0)
(0 -0.0626479 0)
(0 -0.0514807 0)
(0 -0.0501022 0)
(0 -0.0628031 0)
(0 -0.0634708 0)
(0 -0.0197362 0)
(0 -0.0618311 0)
(0 -0.0634708 0)
(0 -0.000197191 0)
(0 -0.00878503 0)
(0 -0.0499853 0)
(0 -0.063462 0)
(0 -0.0554834 0)
(0 -0.00034825 0)
(0 -0.0611984 0)
(0 -0.0482129 0)
(0 -0.0320532 0)
(0 -0.0522297 0)
(0 -0.0563588 0)
(0 -0.0471978 0)
(0 -0.039568 0)
(0 -0.00787586 0)
(0 -0.0182521 0)
(0 -0.0369243 0)
(0 -0.0350736 0)
(0 -0.0634708 0)
(0 -0.0531803 0)
(0 -0.0547198 0)
(0 -0.00926015 0)
(0 -0.0634707 0)
(0 -0.00932097 0)
(0 -0.00777242 0)
(0 -0.059641 0)
(0 -0.0553116 0)
(0 -0.0571233 0)
(0 -0.00796638 0)
(0 -0.0634211 0)
(0 -0.025854 0)
(0 -0.044456 0)
(0 -0.0630052 0)
(0 -0.0353809 0)
(0 -0.000636161 0)
(0 -0.0631867 0)
(0 -0.0633707 0)
(0 -0.0631659 0)
(0 -0.0633186 0)
(0 -0.017941 0)
(0 -0.0633116 0)
(0 -0.0634695 0)
(0 -0.00189638 0)
(0 -0.0633267 0)
(0 -0.00908286 0)
(0 -0.062704 0)
(0 -0.0630279 0)
(0 -0.0364361 0)
(0 -0.0601457 0)
(0 -0.0271674 0)
(0 -0.0601922 0)
(0 -0.0584973 0)
(0 -0.0549888 0)
(0 -0.0634236 0)
(0 -0.0621092 0)
(0 -0.0629116 0)
(0 -0.063369 0)
(0 -0.00290882 0)
(0 -0.0633508 0)
(0 -0.0567449 0)
(0 -0.0469687 0)
(0 -0.0376801 0)
(0 -0.0179259 0)
(0 -0.00657014 0)
(0 -0.0187714 0)
(0 -0.0565757 0)
(0 -0.06346 0)
(0 -0.0225732 0)
(0 -0.0552128 0)
(0 -0.0601307 0)
(0 -0.0529547 0)
(0 -0.0473093 0)
(0 -0.0627348 0)
(0 -0.0632395 0)
(0 -0.0447451 0)
(0 -0.0286026 0)
(0 -0.0608037 0)
(0 -0.00933818 0)
(0 -0.0572632 0)
(0 -0.0634697 0)
(0 -0.0532221 0)
(0 -0.0363727 0)
(0 -0.0623527 0)
(0 -0.0265112 0)
(0 -0.0554786 0)
(0 -0.0634692 0)
(0 -0.0634708 0)
(0 -0.0512878 0)
(0 -0.0626436 0)
(0 -0.0576425 0)
(0 -0.0634709 0)
(0 -0.061832 0)
(0 -0.0602796 0)
(0 -0.0634506 0)
(0 -0.031076 0)
(0 -0.0630859 0)
(0 -0.0634413 0)
(0 -0.0634186 0)
(0 -0.0383661 0)
(0 -0.056796 0)
(0 -0.0126726 0)
(0 -0.0430073 0)
(0 -0.00276005 0)
(0 -0.0479196 0)
(0 -0.0442018 0)
(0 -0.0634442 0)
(0 -0.00260341 0)
(0 -0.0625994 0)
(0 -0.0122532 0)
(0 -0.0631421 0)
(0 -0.0634322 0)
(0 -0.0561149 0)
(0 -0.0633427 0)
(0 -0.0618864 0)
(0 -0.0377415 0)
(0 -0.0632766 0)
(0 -0.0562232 0)
(0 -0.0555968 0)
(0 -0.0382385 0)
(0 -0.0634708 0)
(0 -0.0631619 0)
(0 -0.0634708 0)
(0 -0.0599368 0)
(0 -0.0634191 0)
(0 -0.0628482 0)
(0 -0.00769202 0)
(0 -0.0502485 0)
(0 -0.0621833 0)
(0 -0.00795608 0)
(0 -0.0372919 0)
(0 -0.0631195 0)
(0 -0.0383415 0)
(0 -0.058605 0)
(0 -0.0600292 0)
(0 -0.0561444 0)
(0 -0.0556473 0)
(0 -0.0630365 0)
(0 -0.0630884 0)
(0 -0.0304245 0)
(0 -0.06307 0)
(0 -0.0536126 0)
(0 -0.0481016 0)
(0 -0.0324747 0)
(0 -0.0207677 0)
(0 -0.0634581 0)
(0 -0.0634008 0)
(0 -0.0240899 0)
(0 -0.0622753 0)
(0 -0.00711736 0)
(0 -0.0481162 0)
(0 -0.0634709 0)
(0 -0.0494108 0)
(0 -0.0103156 0)
(0 -0.0126268 0)
(0 -0.0386425 0)
(0 -0.00212013 0)
(0 -0.0561592 0)
(0 -0.0634587 0)
(0 -0.0426522 0)
(0 -0.0602814 0)
(0 -0.017628 0)
(0 -0.00733709 0)
(0 -0.0632547 0)
(0 -0.0634597 0)
(0 -0.0634113 0)
(0 -0.0531942 0)
(0 -0.00530633 0)
(0 -0.0116038 0)
(0 -0.0546506 0)
(0 -0.0632487 0)
(0 -0.0634681 0)
(0 -0.00665911 0)
(0 -0.0627112 0)
(0 -0.0594233 0)
(0 -0.062966 0)
(0 -0.0599785 0)
(0 -0.0068983 0)
(0 -0.0582416 0)
(0 -0.0633431 0)
(0 -0.0269008 0)
(0 -0.0616923 0)
(0 -0.00712849 0)
(0 -0.0213666 0)
(0 -0.0524215 0)
(0 -0.0634696 0)
(0 -0.0627029 0)
(0 -0.0173077 0)
(0 -0.0634379 0)
(0 -0.0630634 0)
(0 -0.030099 0)
(0 -0.0631623 0)
(0 -0.00335815 0)
(0 -0.013914 0)
(0 -0.0633873 0)
(0 -0.0396533 0)
(0 -0.0268135 0)
(0 -0.0510635 0)
(0 -0.0632986 0)
(0 -0.0608154 0)
(0 -0.0558159 0)
(0 -0.0112288 0)
(0 -0.0334579 0)
(0 -0.0249313 0)
(0 -0.0358441 0)
(0 -0.0614242 0)
(0 -0.0620358 0)
(0 -0.0634709 0)
(0 -0.0609552 0)
(0 -0.0607055 0)
(0 -0.0622887 0)
(0 -0.0627993 0)
(0 -0.0276429 0)
(0 -0.0602581 0)
(0 -0.0632987 0)
(0 -0.0634369 0)
(0 -0.0634649 0)
(0 -0.0538616 0)
(0 -0.0109969 0)
(0 -0.0634708 0)
(0 -0.00918507 0)
(0 -0.00937556 0)
(0 -0.0578219 0)
(0 -0.0615736 0)
(0 -0.0520071 0)
(0 -0.00925633 0)
(0 -0.0634452 0)
(0 -0.0606252 0)
(0 -0.0531403 0)
(0 -0.0365162 0)
(0 -0.0630558 0)
(0 -0.063441 0)
(0 -0.0634708 0)
(0 -0.0407296 0)
(0 -0.0433882 0)
(0 -0.0570254 0)
(0 -0.00126731 0)
(0 -0.0137269 0)
(0 -0.0626626 0)
(0 -0.0388636 0)
(0 -0.0598686 0)
(0 -0.062243 0)
(0 -0.055496 0)
(0 -0.063459 0)
(0 -0.0265754 0)
(0 -0.0509976 0)
(0 -0.0556667 0)
(0 -0.0105288 0)
(0 -0.0634358 0)
(0 -0.0282289 0)
(0 -0.0241033 0)
(0 -0.0628481 0)
(0 -0.0631249 0)
(0 -0.0630139 0)
(0 -0.0634292 0)
(0 -0.022428 0)
(0 -0.0619558 0)
(0 -0.027581 0)
(0 -0.0291398 0)
(0 -0.0476739 0)
(0 -0.00674382 0)
(0 -0.0491576 0)
(0 -0.0634314 0)
(0 -0.0489272 0)
(0 -0.0630086 0)
(0 -0.0372549 0)
(0 -0.0205617 0)
(0 -0.0488513 0)
(0 -0.00678224 0)
(0 -0.032766 0)
(0 -0.0634708 0)
(0 -0.00701584 0)
(0 -0.0581125 0)
(0 -0.0631984 0)
(0 -0.00546688 0)
(0 -0.0629994 0)
(0 -0.0622513 0)
(0 -0.0620118 0)
(0 -0.0467737 0)
(0 -0.0326002 0)
(0 -0.0261413 0)
(0 -0.0212323 0)
(0 -0.00629306 0)
(0 -0.0574423 0)
(0 -0.0248662 0)
(0 -0.00420664 0)
(0 -0.0295661 0)
(0 -0.0107957 0)
(0 -0.0598887 0)
(0 -0.0354905 0)
(0 -0.0634611 0)
(0 -0.0626505 0)
(0 -0.0204969 0)
(0 -0.0196128 0)
(0 -0.0171941 0)
(0 -0.0625981 0)
(0 -0.0185227 0)
(0 -0.0622866 0)
(0 -0.0342776 0)
(0 -0.000153991 0)
(0 -0.0208655 0)
(0 -0.0629382 0)
(0 -0.0534232 0)
(0 -0.0634306 0)
(0 -0.0122696 0)
(0 -0.00673893 0)
(0 -0.0592241 0)
(0 -0.0061891 0)
(0 -0.0179738 0)
(0 -0.06347 0)
(0 -0.0461845 0)
(0 -0.00417526 0)
(0 -0.0627189 0)
(0 -0.063149 0)
(0 -0.0634709 0)
(0 -0.00688842 0)
(0 -0.0603607 0)
(0 -0.0627437 0)
(0 -0.0188212 0)
(0 -0.0150005 0)
(0 -0.0634357 0)
(0 -0.036921 0)
(0 -0.000616578 0)
(0 -0.0630456 0)
(0 -0.0152347 0)
(0 -0.0634694 0)
(0 -0.00713034 0)
(0 -0.0309534 0)
(0 -0.0426207 0)
(0 -0.0154838 0)
(0 -0.0634683 0)
(0 -0.000672469 0)
(0 -0.0113346 0)
(0 -0.0632356 0)
(0 -0.0236966 0)
(0 -0.026558 0)
(0 -0.00756236 0)
(0 -0.0143137 0)
(0 -0.0629017 0)
(0 -0.0513695 0)
(0 -0.0462755 0)
(0 -0.0138332 0)
(0 -0.0625724 0)
(0 -0.0473157 0)
(0 -0.0147392 0)
(0 -0.0156102 0)
(0 -0.0551435 0)
(0 -0.0183924 0)
(0 -0.0600576 0)
(0 -0.0419525 0)
(0 -0.0252626 0)
(0 -0.0518608 0)
(0 -0.00961891 0)
(0 -0.0543535 0)
(0 -0.0465761 0)
(0 -0.0598476 0)
(0 -0.0171189 0)
(0 -0.0632059 0)
(0 -0.0432219 0)
(0 -0.0581948 0)
(0 -0.0231552 0)
(0 -0.0488092 0)
(0 -0.0349974 0)
(0 -0.00759215 0)
(0 -0.060974 0)
(0 -0.053618 0)
(0 -0.0610339 0)
(0 -0.0630478 0)
(0 -0.010542 0)
(0 -0.0634695 0)
(0 -0.0634627 0)
(0 -0.0632348 0)
(0 -0.063464 0)
(0 -0.0438658 0)
(0 -0.0458917 0)
(0 -0.0622493 0)
(0 -0.0633109 0)
(0 -0.0110701 0)
(0 -0.0634708 0)
(0 -0.0196597 0)
(0 -0.0633782 0)
(0 -0.0479327 0)
(0 -0.0598051 0)
(0 -0.0631854 0)
(0 -0.0608482 0)
(0 -0.0628514 0)
(0 -0.00338558 0)
(0 -0.0629389 0)
(0 -0.0274322 0)
(0 -0.0232916 0)
(0 -0.0601567 0)
(0 -0.063469 0)
(0 -0.0634702 0)
(0 -0.0505949 0)
(0 -0.0469057 0)
(0 -0.0625276 0)
(0 -0.00118032 0)
(0 -0.0633272 0)
(0 -0.000925583 0)
(0 -0.0565801 0)
(0 -0.0161479 0)
(0 -0.000548652 0)
(0 -0.0634708 0)
(0 -0.0149223 0)
(0 -0.06234 0)
(0 -0.0487857 0)
(0 -0.0622248 0)
(0 -0.063099 0)
(0 -0.0472576 0)
(0 -0.023932 0)
(0 -0.0634556 0)
(0 -0.0281831 0)
(0 -0.0375583 0)
(0 -0.0555467 0)
(0 -0.0195797 0)
(0 -0.0633193 0)
(0 -0.0538347 0)
(0 -0.0615912 0)
(0 -0.0634707 0)
(0 -0.0361035 0)
(0 -0.0609528 0)
(0 -0.0513271 0)
(0 -0.000695757 0)
(0 -0.062661 0)
(0 -0.0236313 0)
(0 -0.0222469 0)
(0 -0.0615158 0)
(0 -0.000887691 0)
(0 -0.00345825 0)
(0 -0.0603037 0)
(0 -0.0460989 0)
(0 -0.0633627 0)
(0 -0.0553182 0)
(0 -0.0212183 0)
(0 -0.0305644 0)
(0 -0.00589871 0)
(0 -0.0178577 0)
(0 -0.0354686 0)
(0 -0.0632939 0)
(0 -0.0494196 0)
(0 -0.0397599 0)
(0 -0.0257503 0)
(0 -0.029593 0)
(0 -0.0488327 0)
(0 -0.049844 0)
(0 -0.0634611 0)
(0 -0.00294016 0)
(0 -0.0618388 0)
(0 -0.0557793 0)
(0 -0.0277375 0)
(0 -0.0634403 0)
(0 -0.0474793 0)
(0 -0.00163094 0)
(0 -0.0634708 0)
(0 -0.063312 0)
(0 -0.0634698 0)
(0 -0.0270332 0)
(0 -0.0634655 0)
(0 -0.0615973 0)
(0 -0.0455157 0)
(0 -0.0634707 0)
(0 -0.0473084 0)
(0 -0.0536314 0)
(0 -0.0634237 0)
(0 -0.0534047 0)
(0 -0.0589942 0)
(0 -0.0634708 0)
(0 -0.0581122 0)
(0 -0.0631352 0)
(0 -0.0481056 0)
(0 -0.0634577 0)
(0 -0.0381248 0)
(0 -0.0359121 0)
(0 -0.0280165 0)
(0 -0.0634708 0)
(0 -0.0388795 0)
(0 -0.00931728 0)
(0 -0.0455121 0)
(0 -0.043291 0)
(0 -0.0266812 0)
(0 -0.0103252 0)
(0 -0.0621418 0)
(0 -0.060978 0)
(0 -0.0357849 0)
(0 -0.0593047 0)
(0 -0.0634678 0)
(0 -0.0583219 0)
(0 -0.0631109 0)
(0 -0.0629928 0)
(0 -0.0230105 0)
(0 -0.063263 0)
(0 -0.0617374 0)
(0 -0.0552609 0)
(0 -0.0634082 0)
(0 -0.0061924 0)
(0 -0.0632797 0)
(0 -0.0634709 0)
(0 -0.0272266 0)
(0 -0.0634709 0)
(0 -0.0211532 0)
(0 -0.0634644 0)
(0 -0.063302 0)
(0 -0.0578351 0)
(0 -0.0479124 0)
(0 -0.0359931 0)
(0 -0.0493196 0)
(0 -0.0342814 0)
(0 -0.057561 0)
(0 -0.020294 0)
(0 -0.0467146 0)
(0 -0.063461 0)
(0 -0.062744 0)
(0 -0.0634449 0)
(0 -0.0391082 0)
(0 -0.0606124 0)
(0 -0.0634693 0)
(0 -0.0272646 0)
(0 -0.0481156 0)
(0 -0.0634574 0)
(0 -0.0180684 0)
(0 -0.0336473 0)
(0 -0.0634225 0)
(0 -0.0633062 0)
(0 -0.0630797 0)
(0 -0.0485709 0)
(0 -0.0634315 0)
(0 -0.06098 0)
(0 -0.0528888 0)
(0 -0.0634668 0)
(0 -0.0634306 0)
(0 -0.0380823 0)
(0 -0.015041 0)
(0 -0.0631046 0)
(0 -0.0625431 0)
(0 -0.0627495 0)
(0 -0.0450681 0)
(0 -0.0613717 0)
(0 -0.0626307 0)
(0 -0.0617978 0)
(0 -0.0490534 0)
(0 -0.0203974 0)
(0 -0.0598593 0)
(0 -0.0634707 0)
(0 -0.0598395 0)
(0 -0.0340249 0)
(0 -0.0353211 0)
(0 -0.0576916 0)
(0 -0.0260883 0)
(0 -0.0634692 0)
(0 -0.0606794 0)
(0 -0.0113276 0)
(0 -0.0631032 0)
(0 -0.0207582 0)
(0 -0.0146989 0)
(0 -0.0621808 0)
(0 -0.0618688 0)
(0 -0.0458892 0)
(0 -0.0634677 0)
(0 -0.0247304 0)
(0 -0.0634685 0)
(0 -0.0240755 0)
(0 -0.0634705 0)
(0 -0.0634376 0)
(0 -0.0634241 0)
(0 -0.00744578 0)
(0 -0.0594915 0)
(0 -0.0583499 0)
(0 -0.0610325 0)
(0 -0.0629883 0)
(0 -0.0631808 0)
(0 -0.0634608 0)
(0 -0.0617132 0)
(0 -0.00029684 0)
(0 -0.0597159 0)
(0 -0.0278396 0)
(0 -0.0632969 0)
(0 -0.0634709 0)
(0 -0.000699805 0)
(0 -0.0129589 0)
(0 -0.0563471 0)
(0 -0.0630984 0)
(0 -0.0609315 0)
(0 -0.025275 0)
(0 -0.061948 0)
(0 -0.0630524 0)
(0 -0.0204595 0)
(0 -0.0203906 0)
(0 -0.0560318 0)
(0 -0.0634684 0)
(0 -0.0535636 0)
(0 -0.0226177 0)
(0 -0.0634616 0)
(0 -0.0614982 0)
(0 -0.0558446 0)
(0 -0.0634167 0)
(0 -0.0324361 0)
(0 -0.0599085 0)
(0 -0.0634678 0)
(0 -0.00140137 0)
(0 -0.0615586 0)
(0 -0.0624018 0)
(0 -0.0631114 0)
(0 -0.0632873 0)
(0 -0.0634651 0)
(0 -0.0474927 0)
(0 -0.0571566 0)
(0 -0.0616062 0)
(0 -0.0153102 0)
(0 -0.0633865 0)
(0 -0.0630204 0)
(0 -0.0627936 0)
(0 -0.0633686 0)
(0 -0.0625908 0)
(0 -0.0483107 0)
(0 -0.0631536 0)
(0 -0.0634632 0)
(0 -0.0599307 0)
(0 -0.0632221 0)
(0 -8.77904e-05 0)
(0 -0.0522815 0)
(0 -0.0473884 0)
(0 -0.0253039 0)
(0 -0.0634424 0)
(0 -0.0616204 0)
(0 -0.00671858 0)
(0 -0.0580364 0)
(0 -0.0634167 0)
(0 -0.0314187 0)
(0 -0.0387905 0)
(0 -0.0634599 0)
(0 -0.000763635 0)
(0 -0.0492837 0)
(0 -5.75709e-05 0)
(0 -0.0531202 0)
(0 -0.0628938 0)
(0 -0.0384279 0)
(0 -0.063425 0)
(0 -0.0618218 0)
(0 -0.0629688 0)
(0 -0.0558822 0)
(0 -0.0626945 0)
(0 -0.0525835 0)
(0 -0.0566193 0)
(0 -0.0597059 0)
(0 -0.0458253 0)
(0 -0.0535744 0)
(0 -0.00630845 0)
(0 -0.0241132 0)
(0 -0.0634672 0)
(0 -0.0633389 0)
(0 -0.0590846 0)
(0 -0.0634042 0)
(0 -0.039779 0)
(0 -0.049582 0)
(0 -0.0584558 0)
(0 -0.0205146 0)
(0 -0.0212352 0)
(0 -0.062136 0)
(0 -0.0602259 0)
(0 -0.0634706 0)
(0 -0.0629841 0)
(0 -0.0633449 0)
(0 -0.0484068 0)
(0 -0.0632736 0)
(0 -0.0356756 0)
(0 -0.0634481 0)
(0 -0.0138121 0)
(0 -0.0633715 0)
(0 -0.0631711 0)
(0 -0.00773784 0)
(0 -0.0630647 0)
(0 -0.0634708 0)
(0 -0.0597539 0)
(0 -0.00617042 0)
(0 -0.00145501 0)
(0 -0.0595999 0)
(0 -0.0633679 0)
(0 -0.0186975 0)
(0 -0.0527975 0)
(0 -0.00367395 0)
(0 -0.00185006 0)
(0 -0.0634262 0)
(0 -0.00627183 0)
(0 -0.0601714 0)
(0 -0.0172205 0)
(0 -0.00267364 0)
(0 -0.0634158 0)
(0 -0.0620378 0)
(0 -0.0507931 0)
(0 -0.0632997 0)
(0 -0.0574719 0)
(0 -0.0634685 0)
(0 -0.056487 0)
(0 -0.00409848 0)
(0 -0.0515273 0)
(0 -0.063469 0)
(0 -0.0456934 0)
(0 -0.0631118 0)
(0 -0.0498896 0)
(0 -0.0634616 0)
(0 -0.0351803 0)
(0 -0.0425985 0)