/*--------------------------------*- C++ -*----------------------------------*\
| =========                 |                                                 |
| \\      /  F ield         | OpenFOAM: The Open Source CFD Toolbox           |
|  \\    /   O peration     | Version:  v2012                                 |
|   \\  /    A nd           | Website:  www.openfoam.com                      |
|    \\/     M anipulation  |                                                 |
\*---------------------------------------------------------------------------*/
FoamFile
{
    version     2.0;
    format      ascii;
    class       volScalarField;
    location    "700";
    object      ddt0(omega);
}
// * * * * * * * * * * * * * * * * * * * * * * * * * * * * * * * * * * * * * //

dimensions      [0 0 -2 0 0 0 0];


internalField   nonuniform List<scalar> 
13851
(
0.00180895
9.52253e-06
8.76019e-06
-0.013753
3.03565e-06
1.67218e-05
3.43565e-06
6.01304e-06
0.0200579
9.9108e-07
0.000340659
1.27125e-06
9.65912e-07
-0.00141127
6.68511e-05
0.00288825
0.0025038
3.50647e-06
0.00604857
0.00205196
0.000124033
1.81375e-05
-0.0827499
5.87458e-07
-0.0161012
2.2645e-05
0.0120744
0.226013
-0.0279959
3.2128e-06
-0.00804635
3.4093e-06
0.000627709
0.0427482
5.77768e-05
-0.0428825
2.59399e-07
-0.0748073
-0.0201154
-8.72486e-07
0.0656356
-0.0222566
-0.100176
0.0299511
0.00968974
1.17538e-06
6.11185e-06
0.00240898
1.05498e-05
6.69137e-07
0.0502935
4.66204e-07
0.00273577
-5.31147e-06
-0.00950204
-1.02045e-06
0.00142732
0.0573379
-0.0220449
0.0116675
1.27604e-06
-0.021365
8.39323e-08
1.11534e-05
0.0203241
0.0215021
0.0228797
0.00764621
1.38314e-06
-0.00663672
-0.0125692
0.000243233
1.33213e-06
0.0156608
3.26502e-06
8.68216e-06
-0.00669797
4.15231e-06
-0.166734
2.37218e-06
2.06914e-06
0.00743097
4.06068e-05
-0.00702321
0.0102455
-0.0120599
1.9222e-05
0.0198718
1.76376e-06
-0.00546291
2.79912e-07
3.55009e-06
-0.180641
-0.00821253
-0.0249833
-0.00386196
8.90613e-07
0.00330356
0.0275254
-0.00238791
0.00356188
0.00481633
-0.000970663
2.84345e-07
1.49296e-06
0.000193436
1.47394e-06
-0.0133628
3.58176e-06
3.56154e-06
0.000132619
1.12537e-06
-0.00309992
9.29834e-05
-0.00101527
-5.21623e-06
3.415e-06
6.0705e-06
-0.0230348
0.0260648
-0.0031247
3.30317e-06
4.67591e-07
0.00419238
0.00222153
0.0110461
1.042e-06
0.000276324
0.0339657
0.000164073
1.79767e-05
3.3694e-05
-0.529378
0.0338928
0.000161845
-0.0216313
0.0108237
-0.0131442
0.00102218
0.000130719
0.00836741
-3.14058e-06
1.76345e-06
0.00924504
0.0622863
4.92642e-06
4.12502e-06
-0.00664637
-0.00570438
0.000432414
0.00293301
-0.00303061
-6.3086e-05
-0.0168405
-1.93835e-07
1.22039e-06
1.28152e-06
-0.0173357
0.00010795
4.51141e-06
8.25612e-07
-0.0346481
0.000204026
0.00228917
-0.00150294
0.0352769
0.036435
0.0432216
3.13198e-05
-0.095439
1.1795e-06
3.69144e-06
0.000168687
2.50573e-06
-0.03657
-0.00175789
0.000652058
3.8048e-06
-1.42671e-06
0.00159038
0.00617501
0.0198595
3.80631e-05
0.000144748
-0.0597717
-0.00670061
0.000416294
7.76944e-05
-6.22928e-07
2.42919e-06
-0.411569
0.000109198
0.00251673
1.62159e-05
4.26351e-06
0.00315735
-9.67579e-05
3.75748e-06
4.5752e-06
-0.00739586
0.0127136
-0.0207364
0.0484214
6.69667e-05
0.0625387
-0.0108824
-1.85645e-06
8.84093e-05
0.0198901
1.49325e-05
0.00261781
6.18945e-07
0.00641945
4.31968e-07
5.91341e-05
1.27595e-05
7.84934e-07
0.0106215
3.88447e-06
-0.0102136
3.66649e-06
0.00387695
0.00164085
-0.0282115
-1.18051e-05
8.11967e-05
4.82867e-07
0.0110817
2.0689e-06
6.07221e-05
-0.0634792
-2.60354e-05
1.48854e-05
8.06405e-08
0.046417
3.27403e-06
0.6003
0.0405416
-0.00119406
4.83461e-07
0.239137
0.00388542
0.0125302
0.00246476
5.622e-05
-0.0216708
0.00669377
-6.72171e-06
0.00601644
-2.16985e-05
0.000293286
0.00251865
5.36484e-06
1.42989e-05
0.00362908
-0.0367703
0.00760019
2.77528e-06
0.00817268
1.62451e-06
0.000150184
0.00219688
1.46597e-05
0.000189362
0.000166362
1.48207e-06
0.00665755
0.00124468
-0.0841806
7.28611e-07
8.18532e-07
-1.83652e-05
0.018669
-0.0240224
0.000181285
3.46027e-06
0.00733589
-0.00163847
-0.000534056
0.000199327
0.0178762
0.014583
1.9094e-05
4.39511e-05
-0.200263
1.93899e-06
1.31821e-06
-0.000242304
-0.000464902
3.27594e-06
8.16728e-07
2.21378e-06
4.09795e-06
5.53427e-05
1.29582e-06
0.0232077
0.000152794
-1.16923e-07
-0.041114
0.00100774
-4.05491e-07
0.00306064
0.064879
-2.66233e-06
-2.43074e-07
0.000181584
0.00263289
-0.137518
0.000418542
3.22968e-06
-0.0953662
1.17064e-06
0.000345626
0.0472126
-0.349357
4.81674e-06
-0.347196
-0.606653
-0.0226475
0.000992855
0.00475848
-0.0361685
0.012213
0.521826
4.8576e-06
-0.00940043
0.000173463
-0.228743
-0.0359963
-1.8559e-06
0.000248707
9.91404e-06
0.0221798
-0.00815313
5.09308e-06
6.27287e-06
2.27769e-05
-0.0183521
-0.013378
2.00034e-06
-0.0198509
-2.87334e-05
3.25142e-05
4.64191e-06
0.0197344
0.00856896
0.00320713
1.13069e-05
1.32902e-05
-0.0601321
-9.27911e-07
-0.00383866
1.79517e-05
0.000180414
2.00923e-05
1.74153e-06
-1.52016e-08
0.00397071
-0.00111807
0.00503591
-0.0939647
-0.0604567
5.47087e-06
0.0405164
-0.00103724
3.68091e-06
-0.344046
0.0015194
0.0214212
2.19015e-05
-0.000180119
-0.0112592
0.505585
-0.0016426
-0.00365009
6.70887e-06
-0.0188373
-0.134901
3.7318e-05
-0.00710614
5.1301e-05
0.0334592
4.33142e-05
-4.68664e-05
-0.00203013
-0.00400567
1.25807e-06
1.7078e-05
-0.000126459
-6.42099e-07
1.05002e-06
0.00017408
0.0432726
8.66442e-07
9.43976e-05
0.0125796
1.05102e-05
-2.12026
-5.09971e-06
-0.140227
1.67648e-05
-1.47356e-05
0.131634
0.00201842
0.000159273
0.0171976
0.0204309
-0.017504
1.36299e-06
0.00724992
4.87189e-05
-0.000170923
3.14671e-06
-0.100425
0.0643528
0.320912
1.27415e-05
-0.00179175
-0.0225627
-0.0221965
3.90585e-06
-0.0189341
-0.016746
0.231115
8.70599e-06
0.290002
1.77287e-06
2.55293e-06
-0.0104936
-0.0352011
1.07078e-06
9.52857e-06
0.000106126
3.44317e-06
0.0605728
0.000259973
0.00166288
8.79044e-06
6.73148e-06
2.9636e-08
0.75882
-1.72566e-07
1.42566e-07
0.0422746
0.0441984
1.62837e-05
0.00601613
-1.39186e-07
1.50495e-06
1.1719e-05
0.00384618
-2.66243e-05
4.0885e-07
6.17987e-06
0.000931034
6.24606e-06
-0.119998
1.43185e-06
4.9383e-06
0.0178269
-0.000546013
5.98811e-06
1.07607e-06
9.32509e-06
3.94077e-06
0.0159576
0.0265822
5.96907e-05
0.0903771
1.14857e-05
1.34608e-06
0.0119428
-0.00712607
-0.000232314
2.14142e-07
0.00768202
0.000342774
6.4101
5.03293e-07
3.37318e-05
0.00158477
1.81909e-05
0.0185013
-0.0202814
0.479438
4.21739e-08
-0.000681264
1.30541e-06
-0.0308277
8.98302e-06
-0.000130084
4.93473e-05
1.01849e-05
-0.00194153
0.00023009
2.88992e-06
-0.0544544
0.00936881
-0.105249
-0.0127975
0.0298407
-0.0134505
0.00458161
4.06888e-06
4.79291e-07
-0.0554384
6.72116e-07
8.9054e-07
9.29351e-06
-0.0427623
7.94827e-06
-3.29109e-06
-0.000299912
8.13011e-05
4.18964e-07
0.0884813
1.01119e-06
0.0326988
-0.176949
2.30815e-06
5.49031e-06
-0.00604811
-0.200689
3.22938e-06
-0.0987902
0.395949
3.45268e-06
-0.0166597
0.0103808
0.00457984
-1.41462e-07
0.0447741
0.00768752
3.30373e-06
-0.0103706
8.66107e-07
8.74656e-07
0.0295028
0.0241804
8.30426e-05
-3.44895e-05
6.34249e-07
7.77034e-05
0.0376399
-0.0229932
3.449e-06
-0.0222491
7.77017e-07
1.39906e-06
0.000170504
1.29933e-06
3.77867e-06
8.46429e-06
-0.0115076
-0.00357453
-0.0149289
6.63104e-06
1.78647e-06
0.0225784
7.35207e-07
0.00687081
9.83565e-06
8.56967e-06
5.54573e-05
0.0282052
0.0138387
1.52581e-05
-0.0348664
4.59583e-06
7.08387e-05
-0.0148271
-0.0103342
-2.67973e-07
1.17223e-06
-0.00724385
-0.0123086
0.0149249
6.32585e-05
-4.39478
3.41106e-07
3.65316e-05
-0.165945
0.0739961
-0.0024028
0.0248695
-0.00324799
-0.050989
6.24826e-06
-0.0801142
0.793655
1.01219e-06
-0.142208
-0.0512288
4.12788e-05
0.00014175
-7.59568e-07
0.0714163
-0.000182588
-0.0166541
-1.91906e-07
1.9077e-06
1.47263e-06
5.60071e-05
1.58259e-06
-0.0316247
1.96701e-06
-0.00277348
-1.33176e-06
-9.92796e-05
4.6308e-07
4.28138e-07
0.000403026
-0.0236298
0.000127004
-0.0177124
3.4528e-05
2.98297e-06
3.44593e-06
0.000146054
6.30689e-06
-0.000672248
9.53407e-06
0.000422923
-0.050527
3.41042e-07
0.0238476
4.93939e-07
-1.12851e-05
-0.0243334
0.0385723
-0.00563321
0.0823821
0.00413717
-0.00791308
-0.0629915
3.51636e-06
0.0587747
-2.38909e-05
4.43944e-05
0.00256163
0.454238
3.87231e-06
-0.000605869
3.74098e-06
-0.0528752
0.025503
3.01512e-06
-0.00794339
0.0353278
4.60137e-07
4.89369e-07
-6.2544e-07
0.0402396
0.0246423
-1.86929e-07
-0.000258257
5.80997e-06
5.95414e-07
-0.0930402
-0.0017506
-0.00299431
4.19793e-06
0.00124596
0.000603978
-5.94463e-05
-1.1705e-06
3.37765e-06
-0.00220062
9.1862e-07
0.0018948
0.000257191
0.00024574
0.00259146
0.700518
-0.0127373
-0.0217932
-0.133417
0.00313593
-0.00528657
-0.000576613
0.0213982
0.00477657
3.48347e-06
3.25929e-05
-0.00495823
2.04722e-05
2.46191e-06
2.43503e-06
0.00066367
-0.0121903
5.87404e-06
0.0344445
3.20155e-06
0.0287795
0.00516053
0.0654787
-0.000200054
1.7387e-05
8.66111e-06
0.0551261
-0.00331677
-0.000330691
-0.0263287
6.16258e-06
0.0893811
0.000503659
-0.00330942
4.02665e-05
-0.0423472
1.73732e-06
4.1208e-07
-1.47041e-06
6.99697e-07
-0.00807767
4.03073e-06
-0.104223
0.0226053
0.00050158
-0.0298424
0.0231169
-0.00244824
0.00405827
-0.000408388
-3.95039e-09
9.96378e-07
4.19015e-06
3.41614e-06
2.103e-06
6.64542e-05
-0.00278793
0.00113521
0.339065
6.8405e-06
0.018012
1.23122e-08
-0.000372821
3.50108e-05
2.45636e-07
2.0603e-08
0.0389837
1.70797e-05
-0.0929
-0.0606991
0.000111805
0.000539806
3.19838e-06
0.0414631
3.87176e-06
8.20914e-06
-0.059001
1.02213e-07
-2.72947e-06
3.5079e-06
1.97256e-05
-0.00988976
2.72874e-05
4.45748e-05
-0.0102869
-0.0152755
-6.34062e-05
-9.61561e-05
-0.0311483
4.27676e-06
-0.0381514
1.40953e-06
5.95862e-06
-0.524655
0.000324298
-0.00111955
-0.000847764
0.000130568
2.39995e-07
6.67286e-09
-1.5339e-05
6.23153e-06
9.29025e-08
2.37774e-06
0.00718176
3.04865e-06
-0.010267
-0.312916
-0.123143
-0.000974166
0.0611691
-0.00209941
7.56426e-08
-0.00393507
2.80045e-06
1.67463e-05
-0.0303259
-0.0628658
0.0656328
-0.0220568
4.03391e-06
2.94854e-06
0.000587257
1.87004e-06
2.53236e-06
-0.169553
0.000775563
-0.0132807
-4.36676e-05
0.00035369
8.2241e-07
3.23326e-06
-0.384928
0.00172139
7.05397e-06
1.28803e-07
-0.000979419
0.00175495
0.0332703
-9.43976e-07
1.35982e-06
-0.0105055
-9.77057e-07
5.31468e-05
3.4422e-06
-0.0482731
5.50048e-06
-0.00957777
3.35849e-07
0.00218104
0.000109969
0.00155356
4.28859e-05
1.21885e-06
9.61414e-06
2.74632e-06
-0.0987899
-1.54291e-06
-0.00792765
6.03458e-06
0.0386219
0.0101485
3.43952e-05
3.80761e-06
0.00856283
0.0338361
1.78667e-05
0.000394391
1.16763e-06
0.0177821
3.5351e-06
-0.00430871
1.05832e-06
2.75935e-06
-0.129035
5.73257e-05
1.03832e-06
-4.90619e-07
0.0499533
0.0648083
0.0315418
2.68838e-06
-0.0031126
7.66051e-07
2.95958e-06
7.72632e-07
6.20742e-06
5.54445e-07
-0.0452261
-0.0290968
4.14313e-06
2.00731e-06
8.09069e-05
1.14964e-06
-0.013357
-0.00406199
-0.00428908
-0.0383621
9.7268e-06
0.00173468
1.07136e-06
0.000128297
-0.00051008
3.5018e-06
9.77039e-07
0.0704438
0.0256552
0.000504222
-0.0256028
0.000182329
3.72649e-07
6.16085e-05
0.000372038
-0.0393519
4.60481e-05
-0.335743
0.00160185
9.32856e-07
-0.208511
-0.19612
-0.0137098
-0.219963
0.0231563
2.237e-07
-0.0197057
1.88151e-07
-0.58284
2.09996e-05
4.988e-06
0.00360536
5.46377e-06
3.40227e-06
-2.19945e-08
4.18691e-06
-0.0363672
-0.0112561
2.23208e-06
6.59744e-05
-0.0060498
9.12124e-06
-0.0297043
-3.2481e-06
0.000232036
0.00567336
1.56942e-06
0.0421647
2.52355e-05
3.78157e-05
0.0879358
5.56484e-06
0.0283846
-4.55286e-05
0.0640202
3.65333e-06
0.00480926
3.5816e-05
-0.00172214
-0.0319299
0.0240343
0.00010486
1.41549e-06
4.02911e-06
4.14518e-07
-3.73336e-05
2.60305e-07
0.024525
3.37049e-05
5.12668e-06
-0.000153279
2.48186e-07
2.54759e-06
8.54774e-07
2.27393e-05
5.52255e-06
2.25191e-05
-0.105212
-0.0764904
3.08631e-05
0.000808367
-0.00837551
-3.5058e-06
-0.0221415
4.19596e-06
0.000197621
-1.86808e-06
2.12074e-06
-9.52661e-07
1.49366e-06
2.41342e-06
-0.00182337
8.94536e-07
-0.00644147
5.95362e-06
-0.169835
0.50464
0.00971245
-0.00412352
3.78618e-06
-0.0211786
0.00380931
7.33441e-07
2.22319e-05
-3.13369e-06
-0.0274466
-3.06437e-06
0.00157464
-0.578192
0.0240735
3.4527e-05
4.40914e-06
0.0260513
-0.346119
0.0132712
3.06488e-05
2.97003e-06
3.40218e-06
0.000444417
1.69069e-06
0.00523642
0.00632323
4.50877e-07
-8.94176e-06
-0.00248525
3.81618e-06
-0.0998217
-0.0160529
-9.65651e-05
6.87461e-06
0.018368
0.000115918
2.17794e-06
-0.00184934
4.75749e-06
3.50897e-06
1.60106e-06
3.28244e-06
-3.56852e-05
0.0236871
0.00291529
1.63456e-05
0.0336339
1.75305e-05
2.07164e-06
-0.0102076
2.48531e-06
-1.88531
3.58118e-06
2.54443e-06
7.4942e-06
6.20132e-06
0.0137484
0.021229
-0.00708923
0.0143075
0.0139048
2.17726e-06
6.18114e-07
6.05073e-06
0.0132296
3.45698e-06
6.88105e-06
4.61967e-05
0.0744878
0.0339253
6.0785e-06
5.95065e-05
4.57476e-05
0.00262287
-0.081824
3.42605e-06
3.83378e-06
4.63743e-06
0.663001
2.12078e-06
0.0420083
2.53019e-06
1.37216e-06
3.54939e-06
1.30011e-06
1.31316e-05
-0.000832644
-0.0523414
0.0347464
-0.000417775
1.26412e-06
3.5967
3.90058e-06
0.0516492
0.00523114
-0.000257227
-0.0179103
-0.0157328
0.0218379
6.78976e-07
4.3537e-05
-0.000534988
3.84979e-05
-4.13592e-05
-0.00501623
-0.0134757
6.28015e-06
0.0359863
2.04612e-06
-0.0338613
0.528934
4.17252e-06
-7.93924e-07
-1.63648e-06
-0.00698224
5.81266e-05
1.73042e-06
1.19196e-05
-2.1573e-06
7.85525e-06
-0.0293059
2.34787e-07
0.0343815
-0.00508471
2.02385e-06
3.50757e-05
-3.30452e-05
9.60924e-07
-0.0610145
0.107261
-0.0278495
-0.0234043
1.64657e-06
1.42809e-05
2.04692e-05
-1.42688e-06
0.00017538
5.52892e-05
2.27589e-07
0.000194375
4.16045e-07
0.0121195
0.00010261
0.0143272
-1.20903e-06
8.74502e-06
0.00356196
0.000981049
0.00040499
1.70823e-06
0.133579
0.00520864
-0.470702
-0.0121369
-0.0237755
0.0322221
-0.00141104
2.03926e-06
1.94474e-06
3.58319e-06
0.0141639
-1.84104e-05
0.000270108
-0.0619196
3.66911e-06
5.1629e-06
8.72855e-07
0.00605704
4.09968e-06
1.35861e-05
6.5703e-06
0.0258824
-2.8363e-06
2.88416e-06
7.0275e-07
1.27972e-07
1.83777e-06
-9.33367e-05
-0.003024
-9.42393e-05
0.0641828
1.52669e-06
1.25958e-06
0.0294072
0.0125935
-0.00853515
-0.0282666
-0.00135873
0.0366769
3.29029e-06
-0.000428852
8.5915e-06
4.3491e-07
4.77976e-06
-0.00627706
5.33159e-06
0.00115062
-0.801124
3.87201e-06
2.20527e-06
2.60684e-07
-0.0026144
2.17577e-07
0.0346958
3.61884e-06
-0.000508712
-9.56113e-08
4.1976e-06
1.76739e-05
0.000307633
7.21833e-07
0.0315634
-0.0121112
0.000521958
0.0291119
1.73299e-06
-0.0309528
-0.0994356
9.86859e-07
0.475804
-1.48769e-06
0.00210688
-5.82705e-08
3.09958e-06
2.91655e-06
4.36525e-08
3.1387e-06
-4.72022e-05
0.000356471
4.71667e-06
-1.93181e-07
0.00602332
3.68468e-06
-0.0952113
1.01506e-07
4.43203e-05
4.49253e-06
0.00262434
0.761782
3.60992e-07
-0.000297393
3.64497e-06
-6.09154e-06
0.0017051
-0.0719144
0.000121075
3.0765e-07
0.00134091
0.000758541
4.12239e-05
0.0944491
-4.0532e-05
-0.000997843
9.34455e-05
0.000266313
-2.53273e-06
3.23714e-06
-0.145873
0.014804
1.50138e-05
2.19067e-06
-0.0636552
2.75413e-06
0.000125388
2.45103e-06
0.000517479
-0.0569392
3.85061e-06
-0.050115
1.60972e-05
1.3163e-06
0.00169667
4.79741e-06
0.00107465
-0.027559
7.66112e-05
-0.136339
3.2589e-06
5.08753e-07
0.00894919
4.78282e-07
3.49314e-07
9.45309e-06
3.02284e-05
0.000458647
-0.000106761
-6.79151e-08
5.53456e-05
3.18587e-06
1.28419e-06
4.70833e-07
8.41093e-07
-1.36695
3.55362e-06
-2.87334e-06
0.00197536
2.86575e-06
2.43215e-06
0.0124528
2.28843e-07
-0.117239
5.21813e-06
0.0207652
0.00956372
0.000141046
-1.9921
8.75047e-05
0.0801863
4.73607e-06
0.00272936
2.15544e-05
3.23835e-06
1.31745e-06
-3.27917e-06
3.89111e-05
3.86521e-07
-0.000418817
2.85824e-06
8.96464e-06
-0.11382
0.0477328
-0.0691074
5.07279e-06
-0.0101445
0.00811051
0.0102328
4.6871e-07
1.19229e-05
0.0289635
3.92697e-06
4.74333e-05
-1.12869
0.0349813
9.8595e-06
6.83827e-05
2.72631e-06
-0.00414976
-2.17156e-08
0.000343281
0.379432
-1.07222e-06
6.2031e-06
-0.112284
3.816e-05
-0.0080735
0.0375084
0.000806855
-2.10132e-06
2.89124e-06
4.45018e-06
-0.0173956
0.188523
0.0592353
-0.00019195
8.20151e-07
0.0131349
4.43894e-07
0.00235971
0.000251801
4.55316e-06
0.000142016
1.11487e-06
-0.0697666
0.0295081
2.95199e-06
0.000564522
-7.16665e-06
-0.224992
7.28599e-05
2.04204e-05
-0.0055326
9.81102e-06
-0.0196531
0.000124303
1.28185e-07
2.0782e-05
-0.0165376
0.0425202
1.65788e-06
-0.303355
5.43957e-05
-2.17481e-05
2.48737e-07
-0.0299968
1.32429e-05
1.2308e-06
2.26698e-06
2.55732e-05
1.85274e-05
0.000415523
3.00351e-06
1.47737e-06
0.000369353
-0.197075
2.53686e-05
2.73707e-07
-2.17228e-06
1.49529e-05
-0.00291397
6.527e-07
-0.00127872
-0.398811
-0.000109618
0.0444617
-3.7563e-05
0.0424
0.0174326
1.99935e-06
2.4181
1.00289e-06
1.57089e-05
2.52134e-05
5.75422e-05
-0.000547625
3.95118e-05
2.76535e-05
0.000227318
3.2985e-05
8.25977e-06
4.36904e-06
0.00501608
1.09589e-05
4.38123e-06
0.614742
2.01918e-05
-0.000278347
2.38379e-06
-0.0180935
-0.00152212
-3.28583e-08
9.60675e-06
-1.04884e-06
0.00983871
0.00216124
2.28552e-05
0.00276764
0.00108415
0.504649
2.93183e-05
0.0582644
2.31332e-06
0.0169088
6.93393e-06
-0.000121324
-0.203265
-0.0611237
0.00493364
-0.552332
1.09932e-08
0.0279051
2.25251e-06
0.000431127
9.0378e-06
0.0475307
-0.0310268
2.36988e-06
3.20385e-06
0.00789536
0.00464098
1.89161e-06
-0.0173333
1.10811e-07
8.14809e-07
1.07559e-05
-1.81437e-07
2.99703e-05
-1.20399e-06
1.2275e-06
1.50905e-05
-0.032034
9.99921e-05
-3.26759e-05
2.14706e-06
0.0323077
-0.063754
3.39605e-06
-0.0189422
8.31071e-06
4.25277e-06
0.0539954
2.98341e-06
-2.5382e-06
7.16492e-06
0.00796592
1.70496e-06
1.32517e-06
8.1012e-05
0.00562428
3.31979e-06
1.81723e-05
2.6719e-05
0.46558
3.62434e-05
5.53851e-05
-0.00329037
7.96171e-08
0.00101444
4.30572e-06
0.011769
2.72677e-05
5.55728e-07
2.67274e-06
-0.00124271
1.52618e-06
3.86969e-06
0.00336966
-0.0259554
3.95795e-06
0.00851507
1.04718e-06
4.41887e-06
0.000278722
1.8536e-06
3.56064e-06
-0.0475341
1.3585e-07
0.00011176
0.00219054
-0.0312597
0.210267
3.40701e-06
1.17527e-05
3.96947e-06
1.69477e-06
1.72324e-06
6.78215e-07
0.0616493
7.10372e-07
0.00459906
-0.000241391
6.31935e-06
3.67348e-06
2.87916e-05
-0.000310995
-0.0102127
-0.000133192
0.000245913
7.68619e-06
0.0251295
0.000575821
-7.02372e-06
5.99231e-05
0.000934457
-6.01163e-05
0.424879
-2.49754e-05
-0.0124156
0.0387204
-0.0551517
9.18371e-06
6.40766e-07
5.65275e-05
-0.00143985
3.58443e-06
3.96895e-06
0.0020045
8.8512e-07
4.5788e-06
1.38793e-06
4.46489e-06
5.1082e-06
3.70541e-06
-0.00179681
3.43179e-06
-0.209397
1.5158e-06
-0.00312745
6.21825e-06
-0.000547209
0.00200548
1.39963e-06
-0.0240768
5.82913e-06
6.13595e-07
8.23617e-05
3.12405e-06
-1.45292e-06
3.50714e-06
-0.0460886
1.16187e-05
9.03242e-05
0.00984462
-0.0317326
1.86489e-05
-0.0465745
0.490487
-0.00110497
3.80521e-06
5.83233e-06
0.00139771
2.89737e-05
-0.0188201
3.46303e-06
0.0326053
-6.39742e-07
0.00571478
-0.120827
4.29062e-05
0.0517538
1.64349e-05
4.67442e-05
9.79954e-06
0.0302172
3.18143e-05
2.14263e-06
-0.000905759
-0.000990141
1.00135e-05
1.42618e-06
1.71825e-06
-0.0219471
3.91293e-07
1.46704e-05
0.0207815
1.20994e-05
1.50678e-06
7.17065e-05
1.56649e-05
-0.0425535
5.02456e-06
2.09877e-06
3.06896e-06
-0.000113835
4.71941e-06
3.90663e-06
0.000177786
0.0108907
1.83753e-06
-5.57703e-08
0.0555648
3.47678e-06
-0.047395
3.51854e-06
-0.0358241
2.18111e-06
4.12468e-06
3.46982e-06
-0.0183239
0.0220271
-0.000198735
0.000706243
-0.000806356
3.72613e-07
-7.95818e-08
-0.0379688
2.1838e-06
0.000496655
6.7762e-06
-3.89719e-05
3.58778e-07
0.0588834
3.23028e-06
4.78366e-05
5.86324e-06
0.0080106
0.117614
3.35107e-06
2.63558e-05
0.0115382
0.000244583
0.0159953
0.0726839
-0.000809407
-1.67911e-06
5.18628e-05
0.000266797
0.0159407
3.14302e-06
-2.38252e-05
4.88918e-06
5.92214e-07
-0.00471935
0.0893993
0.000406456
0.00405609
0.0126138
1.87423e-05
0.0271186
3.46324e-06
3.16732e-06
-0.0013212
0.0109879
-0.00441847
0.00176596
-0.699545
3.27432e-06
-0.00645009
-0.0107267
-0.0558575
1.16152e-06
-0.00979401
0.0259274
0.164782
0.212383
-0.000202615
0.000363924
2.86594e-05
-0.00440445
4.71883e-05
-2.77196e-08
-1.58369
0.000703036
4.42587e-06
0.00584318
8.3535e-07
0.000643079
0.000121192
2.16412e-06
-0.464423
0.000365031
0.00457143
1.68478e-05
0.000421428
0.0311566
-0.0436703
0.00436792
-2.84106e-07
1.09229e-06
4.37263e-05
-0.000170075
3.55034e-06
5.0694e-05
-0.000487784
0.0020677
5.97788e-07
-0.00451755
8.57488e-06
0.000770847
0.042835
-0.0427272
-9.80981e-07
-0.00191202
-0.0163597
-1.10925e-06
2.7774e-06
-0.0751057
-0.00800366
1.38571e-05
1.15245e-05
9.30028e-07
-0.00211227
7.77819e-06
-0.0301894
-0.000726684
-2.42777e-06
1.08291e-06
-0.0116517
1.89391e-05
-0.133303
0.0415526
1.61404e-06
1.60313e-06
2.33422e-05
1.10031e-06
1.05735e-05
4.1571e-06
6.75322e-06
-2.38233e-07
1.5496e-06
9.84359e-06
2.38233e-07
6.01887e-05
0.162389
4.66365e-07
0.0596119
-0.0104473
4.45739e-06
0.019247
0.00277491
-0.000734538
-2.76494e-06
0.000470202
1.83108e-05
0.003236
3.04498e-05
9.60319e-06
1.08059e-06
-0.0318962
7.85198e-07
-0.102984
-3.28999e-06
1.41661e-06
1.95919e-06
0.00225538
1.89354e-06
0.0002036
0.00015331
0.026304
2.41966e-06
0.0281057
0.28659
0.00673098
3.14614e-06
0.00313574
-0.0727115
0.708083
-0.896092
-5.25351e-07
1.29719e-06
-0.00292191
-0.461071
-0.238337
0.000119109
-0.0128771
1.00506e-06
3.46103e-06
2.39244e-05
8.04303e-07
2.19506e-07
0.00415065
4.16495e-07
0.00654677
2.49266e-06
0.00619218
0.0525055
0.0271991
0.0396854
0.00518438
6.61986e-07
4.42232e-07
-0.0480658
3.15535e-06
3.20145e-06
4.04132e-06
-0.00310669
0.0605042
-0.0169197
4.09928e-06
3.58646e-06
8.58532e-06
3.26925e-05
-0.00319329
2.5513e-06
0.0589757
-0.00277909
8.18937e-07
3.01082e-08
-0.0069029
0.000392741
4.15741e-06
1.26509e-06
0.0173354
0.0094289
3.52559e-06
0.00190857
4.32175e-07
0.0058279
0.0966047
3.52776e-06
-0.213715
-0.0518343
0.0401464
2.56188e-06
3.25453e-06
5.58011e-07
2.7224e-07
0.0160012
9.74286e-07
-0.00120185
0.0430102
-0.0139563
6.06129e-06
0.000280343
-0.00793907
4.6941e-05
-0.0574397
-0.0218222
5.30449e-06
1.18836e-05
1.28305e-05
0.00165207
0.0469518
4.17706e-06
-0.00940679
0.000118601
7.29617e-05
-3.2794e-06
3.54031e-06
0.00665307
5.16823e-05
-0.0159458
8.60727e-07
-5.63103e-05
6.17809e-06
-0.000224974
8.25593e-06
0.00873557
-0.0586621
0.00234366
0.000604018
8.22075e-07
7.39637e-06
0.000581933
0.0191067
0.0271874
-0.0262954
1.61695e-06
0.0356587
-0.000417951
-0.0597542
2.8878e-06
4.80264e-05
5.45615e-05
4.10845e-06
0.0475505
1.06778e-06
4.85565e-05
-0.0165349
0.0426951
-0.290321
0.0564923
1.4442e-05
0.000198281
3.48887e-06
-0.00713773
1.84723e-05
0.0898902
3.84118e-06
-0.0464202
3.84919e-06
2.28829e-06
4.68314e-05
1.8024e-05
1.51748e-05
-1.6983e-07
-0.00698537
2.13723e-05
9.09537e-07
2.86521e-05
-0.0156923
0.148829
1.82831e-06
-0.0246672
1.29641e-05
1.95594e-05
9.03926e-06
4.98999e-06
6.21682e-05
2.37078e-06
-0.165
0.000617721
2.59337e-06
1.84835e-06
-0.0117467
6.99433e-05
3.83069e-06
0.0513596
1.36382
0.0109306
2.83245e-06
0.140313
2.92307e-07
-0.00107058
1.10321e-05
-0.00247425
-0.18656
-0.00579915
0.00106572
0.0518376
3.89212e-05
-0.000387065
2.42177e-06
0.0268411
0.00351714
-0.000822257
0.0113061
7.99729e-07
0.0403003
0.00079539
0.021025
0.00520469
-0.0442849
-0.00853359
-0.751193
-0.0138214
-0.000286938
5.17557e-05
4.28755e-07
4.1091e-06
4.25445e-06
0.00191421
1.81864e-05
0.000439911
-0.00854284
1.7799e-06
3.48249e-06
1.07181e-05
0.00179998
2.21928e-05
5.96145e-06
-0.0287084
1.11851e-05
9.7777e-06
-1.72362e-06
7.08108e-05
8.83136e-06
-0.0280486
-0.000523866
5.36136e-05
0.000436706
4.53837e-07
0.0184571
-0.00491161
-3.64094e-05
-8.83041e-07
4.41732e-06
-0.00692085
-0.0163178
-0.0459677
3.61228e-06
6.14931e-05
-0.105936
3.87323e-06
2.28407e-06
1.45203e-06
0.0464692
-0.00397251
2.52132e-05
1.79956e-06
1.01187e-05
-0.0325743
-7.04563e-05
0.00644373
3.8074e-06
4.85065e-05
4.345e-06
-0.00345718
7.6602e-05
2.12805e-06
-0.0528641
-0.0195103
0.0421749
-0.0253642
0.0134575
-0.125073
-0.0546739
-1.31663e-06
3.56375e-06
-0.0660051
0.0260875
0.0975732
-8.9952e-07
0.000100352
6.40045e-07
1.67704e-06
0.0957549
0.0324109
0.000413944
2.255e-06
-0.017206
0.000850744
0.000123658
-0.00841522
0.126292
-0.0258515
4.28556e-06
0.00924036
0.0947641
-0.0178234
1.29957e-05
0.000125393
4.50078e-07
2.22749e-06
5.67085e-05
5.28236e-05
1.30061e-05
5.5622e-05
2.23984e-05
1.06021e-05
0.0146286
-0.00696037
2.55087e-05
4.98207e-05
0.00695842
0.00541505
-1.6536e-08
0.0328613
0.00196631
0.00222611
3.97439e-05
4.41631e-06
2.91843e-05
2.06009e-05
1.66004e-05
4.87116e-06
0.000113638
2.16366e-05
7.06562e-05
-0.00345606
8.00681e-07
8.51086e-06
-0.00628751
-0.0120588
-0.0478731
-0.00879583
0.00156448
4.01862e-06
6.70918e-07
3.26158e-05
3.62155e-06
0.00732734
1.27855e-06
2.80445e-07
3.70556e-06
-0.0584816
0.796158
-1.89038e-06
0.000201922
2.4101e-05
0.000100144
2.90012e-05
-0.00119438
9.90602e-05
5.0297e-05
-0.0231619
1.35751e-05
0.0119594
3.69302e-05
-0.0537584
2.71422e-05
4.19424e-06
2.58719e-06
0.00108305
0.00490395
3.63938e-06
0.000721876
2.67691e-05
-7.24395e-05
0.0435348
-0.244542
-0.0583271
2.55519e-07
0.248987
0.000107411
4.61652e-05
1.63424e-06
0.000127312
7.06619e-06
-0.00963688
0.0840009
2.51356e-05
4.51676e-07
-0.0212424
9.79738e-06
-0.00243757
0.0167312
0.0141156
1.10044e-05
0.00158244
-0.0700468
0.656867
0.00330979
0.00014014
3.10714e-06
4.85983e-05
3.69706e-06
-0.127007
9.45916e-06
2.96848e-05
-0.0355167
-0.045603
3.02755e-06
3.27519e-07
-0.018969
5.28817e-05
-0.128373
-0.000180205
1.11445e-06
6.1876e-05
0.00433656
0.000284419
-0.0333734
4.16975e-05
0.338108
1.52636e-05
2.41626e-07
4.11549e-07
-0.00643831
-1.51289e-06
-0.000879939
8.11737e-07
2.40828e-06
-0.00976226
9.51323e-06
4.12965e-06
1.63595e-06
2.14385e-05
0.375463
4.4907e-05
4.31607e-05
8.0592e-07
7.40964e-05
-1.56975e-07
-0.0042413
3.2174e-05
0.000123545
-0.00266136
-4.02276e-07
-0.00250581
0.00147245
3.66332e-06
0.000316468
0.168458
-0.0264854
3.88665e-06
0.391048
-0.00504313
1.08647e-06
-1.42447e-06
0.00384255
-0.00263046
0.000343937
-0.0100089
0.0114169
3.6317e-06
0.000124277
4.44883e-06
1.41124e-05
2.46153e-05
-0.108263
-0.0290182
0.0254069
-0.000924751
-0.0441959
0.0104079
4.3447e-06
0.00348367
1.3499e-06
0.132863
0.0136243
5.4448e-07
2.63223e-06
-0.0223668
7.09937e-07
3.87663e-07
0.0355561
0.0368296
0.000160981
8.34347e-06
0.00708872
2.69466e-06
0.000642038
-0.00106132
1.15631e-06
0.0106558
0.0184393
0.0141835
-0.0189873
-0.00130917
-0.0177451
2.25279e-06
-2.23017e-06
8.54497e-05
0.000360034
4.37089e-07
0.00280422
1.21839e-06
0.000194414
0.00476474
0.000575731
-0.0137181
-0.000477192
-0.00192046
0.00310909
0.00505499
-0.00130164
-0.0414789
8.9113e-06
4.52343e-06
0.0330142
3.20115e-05
3.23079e-06
-0.0137613
2.17791e-06
-0.0103631
5.94455e-07
0.0734808
7.98156e-06
2.30378e-06
21.9218
-1.68134e-05
0.000377988
-0.012062
-0.0539382
-0.0175107
7.65247e-06
-4.54293e-05
-2.00744e-06
4.04861e-06
0.00338159
3.73761e-05
1.31587e-07
0.0769903
0.000317518
3.98346e-05
-0.0146217
0.000110964
0.000140125
-0.000855014
6.00617e-05
5.34696e-05
2.20035e-06
0.00192921
2.40156e-06
0.00245936
-0.131836
0.00513706
3.14296e-06
4.92271e-05
-0.0165322
5.68643e-06
0.000154052
-3.32199e-07
6.89758e-05
-0.0623018
0.000377321
-1.88899e-06
0.263792
3.04326e-06
-0.0296795
9.94904e-07
6.0714e-06
0.00115147
-0.0482055
1.42433e-05
0.0618172
-0.008547
1.41938e-05
4.64388e-06
0.00663176
6.1479e-05
-0.0103315
1.59252e-06
-3.65328
0.00343714
5.74649e-06
2.85121e-05
0.00246068
3.36809e-05
0.0047807
0.000362927
0.000224961
1.28758e-05
3.5876e-06
-1.05806
1.70984e-06
2.54189e-05
6.04812e-06
0.000136458
2.70633e-05
0.000330794
-0.00585718
-7.50601e-07
-0.00434129
5.12744e-06
4.83234e-07
9.94276e-07
6.99365e-09
4.30631e-06
2.53056e-06
0.000251667
0.0177142
0.000266868
0.000154298
7.56109e-06
2.7006e-06
-0.0190202
-1.07331e-07
-0.0739098
0.0499196
-0.00486059
0.00173105
3.8764e-05
6.67291e-06
6.43079e-07
1.09697e-05
0.00128496
2.294e-05
0.0115917
0.000189387
-0.0460318
0.00264802
9.95894e-07
3.57879e-06
-0.0248579
4.78728e-07
2.99352e-05
-0.00859609
0.0103556
5.03165e-06
0.027987
8.97099e-08
1.88353e-05
4.53469e-07
-3.02254e-06
0.0112966
0.000788933
3.98225e-06
7.64007e-06
0.00343116
0.000157472
0.000154927
0.0207411
0.0102453
-0.00754893
0.00223226
2.65027e-06
8.60367e-06
0.000113358
-0.0567377
-0.0723468
0.00513698
2.59412e-05
0.19243
0.00140631
5.43454e-06
2.36619e-06
-2.88248e-06
6.53601e-07
-7.40457e-07
-0.0240454
1.99084e-06
3.34817e-06
0.00656963
0.0614422
2.43182e-05
0.191631
7.561e-07
-0.0115089
4.85902e-05
-0.0578029
9.9792e-05
-6.95092e-07
0.010053
0.0109075
1.9257e-06
0.00162585
2.8954e-07
0.00306027
2.48826e-05
0.00686158
0.0209433
-0.00070425
0.0668664
2.20785e-06
-0.0311412
4.56915e-07
1.66408e-05
3.75982e-06
4.77936e-05
1.63812e-06
0.00136648
-0.0304904
-0.543142
0.000130656
4.20219e-05
0.00416297
2.16755e-06
5.51382e-06
5.1176e-06
0.406102
9.86685e-06
0.0634972
-0.00711546
-0.00360797
5.8442e-07
0.00375959
-0.00736296
0.00123352
2.87319e-06
0.00807075
8.15869e-07
4.13517e-06
1.11611e-06
0.854706
4.15231e-06
1.65866e-06
-0.00288937
2.27327e-06
0.00358034
-0.0013931
3.49946e-06
0.015088
6.12637e-07
0.0697987
2.93712e-06
-0.703429
7.32039e-06
-0.00473058
-0.409207
0.000483574
1.86806e-06
4.07524e-06
-0.056436
5.25568e-06
8.19389e-06
3.87035e-05
1.96932e-05
0.0014018
-4.64145e-05
3.42193e-06
-0.0398569
2.6966e-05
1.56176e-06
0.00227574
1.79303e-06
1.84551e-06
1.32916e-06
-6.36764e-06
7.82472e-08
9.78802e-06
0.0673271
0.343038
-0.00408044
0.0257169
2.35425e-05
-1.50871e-05
-0.048637
-0.0258889
-1.23894e-06
-0.00479212
-0.211114
-0.0101925
-0.8677
3.2834e-05
-0.0433093
0.0311126
-0.229779
-1.57692
-0.0886526
0.000360931
0.00131083
2.0516e-05
5.32896e-06
4.72479e-06
-1.48877
1.17721e-07
-0.00982529
-0.00577205
0.00993615
5.64553e-06
0.00028667
-6.89637e-05
4.16337e-07
2.11925e-09
2.58315e-06
-0.00666155
5.22172e-06
3.92691e-06
-1.42142e-05
-0.00887206
9.1125e-06
-0.00510238
3.48271e-06
-0.00755558
0.00506332
-1.91001e-07
1.63281e-05
2.54179e-06
0.0737999
0.0139476
0.00579408
-0.523583
-9.66105e-06
0.00125556
1.44652e-07
2.40531e-05
4.43505e-06
4.32123e-06
4.66432e-07
-0.0282447
2.94362e-06
-4.20844e-05
-0.105931
2.09392e-05
3.49552e-05
2.40406e-06
-0.00684129
0.000341681
-0.411829
-0.0025275