/*--------------------------------*- C++ -*----------------------------------*\
| =========                 |                                                 |
| \\      /  F ield         | OpenFOAM: The Open Source CFD Toolbox           |
|  \\    /   O peration     | Version:  v2012                                 |
|   \\  /    A nd           | Website:  www.openfoam.com                      |
|    \\/     M anipulation  |                                                 |
\*---------------------------------------------------------------------------*/
FoamFile
{
    version     2.0;
    format      ascii;
    class       volVectorField;
    location    "800";
    object      U;
}
// * * * * * * * * * * * * * * * * * * * * * * * * * * * * * * * * * * * * * //

dimensions      [0 1 -1 0 0 0 0];


internalField   nonuniform List<vector> 
13917
(
(1.09956 0.126425 0)
(1.02203 0.0436607 0)
(0.520323 -0.0636164 0)
(1.05979 -0.0107536 0)
(0.996267 0.00383328 0)
(0.358663 0.0571863 -3.41951e-19)
(0.454697 -0.0545977 0)
(0.524698 -0.0626107 2.57257e-20)
(0.354494 -0.0619412 -5.37378e-20)
(1.14357 0.15677 -5.52457e-20)
(1.12731 -0.0585833 0)
(1.10156 -0.0443975 -4.43787e-22)
(1.06036 -0.0115378 0)
(-0.0332891 -0.00604505 -6.21281e-20)
(0.972792 0.0975881 0)
(0.996336 0.0921397 0)
(1.01631 0.0490226 -6.64664e-22)
(1.147 0.0231302 1.19492e-20)
(1.10031 -0.0440038 1.55689e-21)
(1.00155 0.0049324 -2.64488e-21)
(0.99998 0.00108691 3.75284e-21)
(0.434448 -0.0532309 2.97058e-21)
(1.00104 0.00824767 0)
(0.580748 -0.0668833 -1.91075e-20)
(0.995187 0.0161616 1.2418e-21)
(0.465212 -0.0527859 0)
(0.783024 0.0374481 4.71625e-20)
(0.757459 0.125358 -1.09219e-19)
(0.730983 0.575122 -3.80492e-20)
(1.20097 0.0969658 -1.01214e-19)
(1.11454 0.116385 -3.13225e-20)
(1.06301 0.0930459 0)
(0.837321 0.0722975 0)
(0.910375 0.00357846 0)
(0.991574 0.013251 0)
(1.13218 -0.0723765 2.32849e-20)
(1.00095 0.00776191 0)
(0.0905723 -0.0281071 -5.95791e-20)
(1.06759 -0.0161678 6.16205e-21)
(0.231952 -0.0107743 0)
(1.00879 0.000836299 0)
(0.999989 0.000468089 -6.14366e-21)
(1.02146 0.00261826 -7.82092e-21)
(0.70283 0.208104 0)
(1.04092 0.0259171 0)
(0.8918 0.0175838 0)
(1.14446 0.021272 -5.17498e-21)
(1.14864 -0.0103109 -1.42865e-20)
(0.104418 0.139596 -2.65787e-19)
(1.00356 0.000819765 6.65218e-22)
(1.0904 0.0167369 -1.55515e-20)
(0.965411 0.0114402 5.15039e-21)
(0.0755014 0.118469 3.06251e-19)
(0.905741 0.00488755 0)
(1.01511 0.0500436 6.9094e-22)
(1.08955 0.0412566 1.25087e-20)
(1.12784 -0.0578795 -1.54065e-20)
(0.996033 0.0310886 -1.32012e-22)
(1.07481 0.0474827 1.44514e-20)
(1.03941 0.0254411 0)
(0.493828 0.0464329 0)
(1.0236 0.0437522 -2.0608e-21)
(-0.0425585 -0.000976631 4.58093e-20)
(1.00166 0.00535298 0)
(0.385762 0.0695315 2.97132e-19)
(1.0012 0.340083 -1.33274e-19)
(0.99543 5.95501e-05 -1.29515e-20)
(0.98802 -0.00020638 -3.10929e-20)
(1.16269 -0.0459691 0)
(1.06573 0.140651 2.22635e-22)
(0.996663 0.00393983 5.64503e-21)
(0.410133 -0.0687023 0)
(-0.10798 -0.0207804 -6.93691e-20)
(0.995762 0.0157509 0)
(0.105749 0.213034 0)
(1.09415 -0.0521161 -1.93886e-20)
(-0.110391 -0.013674 -2.86571e-20)
(1.0569 0.0286807 0)
(0.475813 -0.0496236 -1.26514e-20)
(0.999909 0.00217756 0)
(1.0001 0.00325434 0)
(0.995985 9.90139e-05 -7.83661e-21)
(0.404566 0.13298 -5.884e-21)
(0.115706 -0.0320524 2.53891e-20)
(-0.100873 0.0126394 -1.9065e-20)
(1.05578 0.027433 2.12596e-20)
(1.00039 0.00418681 -2.42742e-21)
(1.1553 0.419928 3.29999e-20)
(1.08846 0.0166085 1.16387e-20)
(1.02194 0.00262833 0)
(-0.0336514 -0.0272488 -4.50639e-20)
(1.181 0.137023 0)
(1.02431 0.0246791 -1.21419e-21)
(0.974382 0.05578 -9.92724e-21)
(1.10678 0.413356 -1.4571e-19)
(0.386187 -0.00376948 -6.35494e-20)
(1.14032 -0.0453657 7.38855e-20)
(1.1487 -0.000584327 -5.62717e-20)
(1.10154 -0.0616896 0)
(0.608193 0.133194 2.11695e-19)
(1.01168 0.00607274 -3.27551e-21)
(0.844655 0.00372847 -4.79405e-20)
(0.692588 0.192842 0)
(1.06481 0.0218067 -1.2182e-20)
(1.01717 0.0128854 -1.37147e-21)
(0.420807 -0.0634644 6.34745e-20)
(0.811748 0.514204 -1.96459e-20)
(1.15112 -0.0114053 -1.71879e-20)
(1.01823 0.0495652 -2.49864e-22)
(1.11453 0.131486 1.21684e-21)
(-0.181025 -0.012867 0)
(0.239921 -0.0113496 -4.20759e-21)
(1.1038 -0.05102 -4.1055e-20)
(0.385337 -0.063244 -6.85067e-20)
(0.948147 0.0105418 -2.81355e-20)
(0.0827291 -0.11235 -8.44316e-20)
(1.00108 0.0147103 -8.11073e-21)
(0.200625 0.0982374 0)
(0.126964 -0.0122942 0)
(0.9072 0.0174737 -2.43126e-20)
(0.999986 0.000908748 7.27416e-22)
(1.1631 -0.044476 0)
(0.0982451 -0.0137648 0)
(0.76631 0.118589 -2.69672e-20)
(1.00531 0.000721148 1.60786e-22)
(0.975795 0.0531169 0)
(1.03613 0.0295727 -6.79398e-21)
(1.00492 0.000584238 -4.07661e-22)
(1.01858 0.00184462 -2.11708e-21)
(0.361706 0.0104247 0)
(0.191931 -0.0263433 1.16983e-20)
(0.950588 0.00958058 7.54869e-21)
(1.04131 0.0269652 0)
(0.99998 0.00086403 0)
(1.2427 -0.00319403 0)
(0.596352 -0.0700665 1.83246e-20)
(1.09687 0.131066 0)
(0.584408 0.134064 -2.33011e-19)
(0.995118 0.000495013 1.55098e-20)
(0.908107 0.013201 -2.19287e-20)
(1.13538 -0.0701077 4.74212e-21)
(1.02585 0.0138921 2.84824e-21)
(0.962399 0.0237157 0)
(0.6547 0.204727 0)
(0.987386 0.000128372 3.04411e-20)
(0.618925 -0.0711806 -2.66489e-20)
(0.801448 0.581376 1.34282e-20)
(0.967349 0.0118585 0)
(1.0244 0.0117001 -2.19866e-21)
(1.05778 0.102387 1.63626e-20)
(1.12467 -0.0204815 0)
(0.0926189 -0.146162 -9.28986e-20)
(1.1216 -0.0437731 9.37744e-24)
(1.02759 0.184746 0)
(1.0803 0.0667195 2.52778e-21)
(-0.0617717 0.04619 8.89735e-20)
(1.06087 0.13781 -1.06891e-20)
(1.09537 -0.0750522 0)
(-0.131733 -0.0112348 6.0733e-20)
(1.23883 -0.00217754 0)
(0.940133 0.0465583 0)
(0.783504 -0.0230336 -8.7253e-20)
(1.00004 0.00226494 0)
(1.13844 -0.0447099 -8.6481e-20)
(1.10437 -0.0502317 4.19621e-20)
(1.10236 -0.061116 0)
(1.06384 0.0227057 1.18728e-20)
(1.13563 -0.0128018 4.29145e-20)
(1.03385 0.0222003 -2.23907e-21)
(0.83772 -0.000522449 1.20506e-19)
(1.04742 0.177682 1.15346e-20)
(-0.299036 -0.00140648 -4.93889e-20)
(1.10181 -0.0539577 4.133e-20)
(1.01399 0.0584774 1.47825e-21)
(0.767567 -0.0757656 1.10437e-20)
(1.01672 0.205678 -5.72229e-22)
(0.212554 -0.0300768 0)
(0.163391 0.100059 0)
(0.676559 -0.0735555 0)
(1.01338 0.0280312 0)
(1.18662 0.131884 -2.22891e-20)
(1.12006 0.114985 -2.98675e-20)
(1.02638 0.0134226 2.19203e-22)
(1.00039 0.00456965 -1.44619e-21)
(0.936798 0.117155 0)
(0.515774 -0.0561007 0)
(1.26672 0.144594 1.00458e-19)
(-0.0105592 0.0466368 8.26295e-20)
(1.12137 0.0450615 -3.42072e-20)
(1.10938 -0.0580841 0)
(1.15477 -0.0702404 -2.93317e-20)
(-0.0529207 0.0166978 0)
(1.25619 0.184721 2.66105e-20)
(0.999807 0.0081484 -6.81516e-21)
(0.56339 0.0673807 8.24105e-20)
(0.793662 0.0392199 -4.48197e-20)
(1.00768 0.00031795 -2.11781e-21)
(1.02454 0.0257325 -1.37648e-21)
(0.873123 0.448639 -1.08798e-20)
(1.20396 0.479887 5.14761e-20)
(1.08147 -0.00146117 -2.00948e-20)
(1.00325 0.000732027 0)
(1.12924 -0.0134163 -1.263e-22)
(1.12278 -0.0206365 0)
(-0.133513 -0.0171648 -1.5571e-20)
(1.24294 -0.0383941 5.4421e-20)
(0.991887 0.0123889 -6.67354e-21)
(0.99532 0.0321926 2.97571e-21)
(1.14621 -0.00237374 5.75322e-22)
(0.534946 -0.0613536 -1.21207e-20)
(0.964658 0.0240686 0)
(0.440061 -0.0558346 4.34569e-20)
(-0.177848 -0.0114436 3.17725e-20)
(1.11023 -0.0575828 0)
(1.01678 0.0131582 -1.7527e-21)
(0.492919 0.412393 0)
(1.13862 -0.00129325 0)
(-0.267145 -0.00911468 1.55586e-19)
(1.00334 0.0191727 0)
(0.643599 0.0679982 -5.0814e-20)
(1.01297 0.0270103 2.51115e-22)
(1.19344 0.0730753 0)
(1.0086 0.00103804 -5.28817e-22)
(0.0724718 -0.0319883 0)
(0.400306 -0.062136 0)
(0.997332 0.0957099 6.26849e-21)
(1.19191 0.486083 2.91727e-20)
(1.08345 0.0657104 2.4276e-20)
(1.01604 0.0126782 -3.50351e-21)
(1.13843 -0.071764 -6.72703e-21)
(1.10053 -0.0535117 -1.98641e-20)
(1.12009 0.0425041 3.19777e-20)
(0.603691 -0.067527 -1.44858e-20)
(-0.197344 -0.00900246 1.60031e-20)
(1.01267 0.0031888 -1.47384e-21)
(1.06636 0.0942609 0)
(-0.00630539 -0.0310208 0)
(-0.141691 0.0151535 -7.28473e-20)
(1 0.00253367 -6.58523e-21)
(1.00643 0.00947608 -8.55386e-23)
(0.279908 -0.0110591 0)
(1.14523 -0.0467712 -1.11965e-20)
(1.00004 0.000133784 9.4337e-22)
(1.11991 -0.0691511 0)
(1.18179 0.0138203 -1.17731e-21)
(0.793382 -0.0280773 8.35946e-20)
(1.0974 0.111504 0)
(1.00005 0.0024545 0)
(0.979855 0.209918 -7.96327e-21)
(-0.167444 -0.00986297 0)
(1.04344 0.00372139 -1.46887e-20)
(1.20266 0.148852 1.55084e-21)
(0.569844 0.178668 7.03037e-20)
(1.03583 0.0282471 -1.37095e-21)
(0.995418 0.0294126 1.3967e-20)
(1.11625 -0.0381797 -3.91741e-20)
(0.29635 -0.0173579 0)
(1.12049 -0.0426818 -2.47874e-20)
(0.93766 0.121907 1.9832e-20)
(0.976195 0.100286 -6.96857e-21)
(1.00004 0.000234926 -1.17651e-22)
(0.0777417 -0.0102447 3.49267e-20)
(0.600419 -0.0408876 3.93796e-20)
(1.12537 -0.072722 0)
(1.01556 0.012934 5.30261e-21)
(-0.161584 -0.0157989 -5.95591e-20)
(-0.0219808 -0.0102841 0)
(1.0358 -0.0772226 1.69168e-20)
(0.457816 -0.0480517 -4.77149e-21)
(1.09463 -0.0532511 7.84154e-21)
(1.00005 0.00303611 0)
(1.0065 0.000870849 1.37861e-22)
(1.1436 0.0162138 0)
(0.00167783 -0.0236349 3.89347e-20)
(1.17091 -0.0229951 1.07113e-20)
(1.07325 0.0453079 -1.39438e-20)
(1.22495 -0.0395698 0)
(1.08575 -0.0367394 0)
(1.01847 0.00122517 0)
(0.879087 0.02093 0)
(1.00197 0.00485285 0)
(0.728264 -0.0749768 0)
(1.07957 -0.00112921 -1.67385e-20)
(1.00007 0.000135711 5.84031e-22)
(1.00118 0.113064 -8.9898e-21)
(1.02184 0.186637 -1.17813e-21)
(0.783724 -0.0106457 -2.63546e-21)
(1.12632 -0.0703075 -2.74118e-21)
(0.998727 0.149209 1.63686e-21)
(1.04615 0.0106216 4.56713e-21)
(1.26399 0.0194407 0)
(0.613738 -0.0674299 0)
(0.501597 -0.0434669 5.08905e-20)
(1.00303 0.0186462 -4.34296e-21)
(1.00566 -0.0766885 0)
(0.998392 0.000546682 1.12296e-20)
(1.04623 0.00964348 1.72075e-20)
(1.00119 0.014029 3.82289e-21)
(0.813612 0.621136 -7.73246e-21)
(1.00162 0.000864355 1.1995e-21)
(1.19841 0.0729824 5.94709e-20)
(1.09277 0.111236 -2.24566e-21)
(1.03341 0.021189 -4.26584e-21)
(1.12914 -0.0156407 0)
(1.03998 0.0596229 0)
(0.113516 0.0617795 1.33559e-20)
(1.01594 0.200489 0)
(1.1752 0.134281 0)
(1.03183 0.0148832 -8.3558e-21)
(0.996088 0.028395 -1.08456e-20)
(-0.199919 -0.0104014 3.69226e-20)
(0.071255 -0.0125917 0)
(1.00135 0.015323 4.55404e-21)
(1.0074 0.000919285 8.54509e-22)
(0.932364 0.0294788 -2.18513e-20)
(1.01675 0.0265722 1.70149e-21)
(-0.0864872 -0.0235317 6.94032e-22)
(1.03084 0.0147656 2.83804e-21)
(0.0876391 -0.0332617 -1.72777e-20)
(1.05053 -0.00473082 -5.91256e-21)
(1.21023 0.332516 -5.25781e-20)
(1.10742 0.0056644 -9.23435e-20)
(0.111115 0.285165 1.40344e-19)
(0.94397 0.0462492 0)
(1.30071 0.00671808 2.14249e-21)
(0.50974 0.305921 -1.2647e-19)
(1.00428 0.110811 4.68985e-21)
(1.14697 -0.0455654 0)
(0.953422 0.527442 0)
(0.996607 0.0457932 9.94215e-21)
(0.141495 -0.0266077 0)
(0.571512 0.0463015 -1.7908e-19)
(-0.0149473 -0.0128963 -3.09299e-21)
(0.921803 0.0221692 4.1167e-21)
(0.165685 -0.00975827 4.84298e-20)
(1.07276 0.0924689 5.78451e-21)
(-0.0870927 -0.00168655 7.00023e-20)
(0.527853 0.284899 1.96246e-20)
(0.920904 0.357813 1.58724e-20)
(0.937187 0.352732 8.06608e-21)
(0.469029 -0.0612524 -3.30691e-20)
(0.999736 0.0027177 8.92671e-21)
(1.05375 0.181025 -1.57459e-20)
(-0.148596 -0.0136345 1.23234e-19)
(0.983043 0.0313807 0)
(1.00321 0.0747261 -8.25487e-21)
(-0.00129578 -0.0103446 -4.05934e-22)
(0.859971 0.483235 1.83597e-20)
(1.01891 0.0552556 1.54977e-22)
(1.14084 -0.0684356 -2.65602e-20)
(0.700879 0.547475 6.36314e-20)
(1.00963 0.00526879 0)
(0.108674 -0.00932132 0)
(1.14525 -0.0706894 1.12518e-20)
(1.00211 0.00524166 0)
(1.00996 0.0135553 -1.53187e-22)
(0.998579 0.000359883 -7.50139e-21)
(1.02481 0.0113069 -5.25882e-21)
(1.25203 0.0168132 0)
(0.715415 -0.0750435 5.15183e-20)
(0.386446 -0.275052 0)
(-0.167803 -0.0116656 3.20026e-20)
(0.998213 0.0155663 0)
(1.20965 0.148368 -2.96553e-20)
(-0.198649 0.0177571 -2.6408e-19)
(1.11919 -0.00495615 -5.77551e-20)
(0.421435 -0.0540301 -4.02248e-20)
(0.0287903 -0.0283416 -6.60333e-20)
(0.365753 -0.0616208 0)
(1.01399 0.00583085 -1.89123e-21)
(1.1185 -0.0709644 0)
(1.01119 0.0131106 0)
(0.766385 0.0821561 5.39253e-20)
(1.03847 0.0261424 8.03785e-21)
(0.0855064 0.333037 0)
(1.18477 0.0159793 2.05249e-20)
(1.06976 -0.00779948 1.26102e-20)
(0.999589 0.00327282 2.50773e-21)
(1.14361 -0.00110572 4.74322e-20)
(1.1927 0.13325 -2.91419e-20)
(1.16341 0.00969301 0)
(0.326057 1.09684 0)
(-0.128514 -0.00288918 3.8912e-22)
(-0.292552 -0.00661592 -2.00729e-19)
(0.984918 0.218076 0)
(1.13712 0.153669 1.01792e-19)
(1.0061 0.00901876 0)
(-0.117245 0.0160519 5.58895e-20)
(0.424603 -0.0514576 0)
(1.00017 0.0351083 4.86539e-21)
(1.30145 0.012624 -1.72884e-21)
(0.995856 0.0118122 1.66376e-21)
(1.21492 -0.0198519 8.37119e-20)
(1.05058 -0.00410319 -6.60798e-21)
(0.999802 0.00230519 -8.01095e-21)
(1.03522 0.0628057 5.18214e-21)
(0.508102 -0.0484554 0)
(1.0334 0.0630918 -1.90235e-21)
(0.31654 -0.0213144 0)
(-0.0648815 0.040125 2.85883e-20)
(1.12031 -0.0576638 -6.10738e-20)
(0.441759 0.286023 2.32514e-19)
(0.998374 0.0454054 -9.23194e-21)
(0.494754 0.369714 4.84097e-20)
(0.467808 0.310809 1.57312e-20)
(1.00229 0.0106358 -1.24486e-22)
(0.824617 0.483705 0)
(0.984447 0.0310926 1.0578e-20)
(0.994663 0.0138273 -5.5974e-21)
(1.19926 0.101645 -6.06842e-20)
(1.00007 0.000351364 2.1659e-21)
(0.994033 0.0156353 1.49143e-20)
(1.01143 0.0128968 4.26255e-23)
(1.2441 0.0204737 2.64767e-20)
(0.999954 0.00174096 -1.7026e-22)
(0.175307 -0.0114056 -4.22122e-20)
(0.599578 -0.0573749 0)
(-0.130333 0.015846 1.26823e-19)
(1.25136 0.190928 8.88335e-20)
(0.300208 -0.0270355 1.56128e-20)
(-0.249234 -0.0108792 0)
(1.11708 -0.00541765 6.55787e-20)
(0.998556 0.0148978 -5.81981e-21)
(1.21588 0.0135613 -4.75166e-20)
(1.06719 -0.0149043 -1.75585e-21)
(1.07124 0.0999808 -1.33914e-21)
(0.999825 0.00873611 0)
(0.645777 -0.0748329 -9.82621e-20)
(0.481632 -0.0580911 1.34392e-20)
(0.652535 -0.0605683 -1.96272e-20)
(0.98495 0.090729 1.05198e-20)
(1.18557 0.00370932 0)
(0.925165 0.019204 0)
(1.06905 -0.0166158 -1.23126e-20)
(1.16128 0.00812862 -4.09372e-21)
(1.02078 0.0644582 -2.13806e-21)
(1.11849 -0.0716614 -4.24568e-20)
(1.01933 0.0483134 -4.77531e-22)
(1.0016 0.00101928 -1.48929e-21)
(-0.0573645 -0.0274689 0)
(0.208059 -0.0284492 0)
(0.227271 -0.0310758 0)
(1.18255 0.218201 6.20847e-20)
(-0.138314 0.0112984 -1.44147e-19)
(0.168104 -0.0307074 -4.1586e-20)
(-0.105463 -0.0236656 -3.134e-20)
(-0.0739874 -0.0140257 4.07904e-20)
(1.01776 0.00200077 -1.1613e-21)
(1.14542 0.00695821 -2.60074e-20)
(1.02286 0.0642858 1.26718e-21)
(0.992977 0.0328462 -3.59751e-21)
(1.25516 -0.0310293 2.57166e-20)
(1.14569 0.017905 3.46666e-21)
(1.01937 -9.71711e-05 2.55508e-21)
(1.16384 0.0524146 6.0336e-20)
(1.11762 3.64822e-05 -2.51246e-20)
(-0.0658116 -0.0113538 4.5948e-20)
(1.00248 0.0110496 5.96647e-21)
(1.15383 -0.0348499 5.78148e-20)
(-0.0148417 0.00789135 1.59742e-19)
(1.22957 0.347431 1.19999e-19)
(0.179823 -0.0145547 -2.46886e-20)
(0.999953 0.00152618 7.70301e-21)
(0.99902 0.035588 -1.19752e-20)
(1.01178 0.000453697 0)
(1.0556 0.141679 1.33266e-20)
(1.01391 0.00540753 7.55259e-22)
(0.573822 -0.0599243 6.17355e-21)
(0.397873 -0.235475 -6.53345e-20)
(1.00167 0.143756 -1.39933e-21)
(-0.0778632 0.0237638 9.13032e-20)
(1.08899 0.0387851 -2.67105e-20)
(1.13698 -0.0463545 -3.85728e-20)
(-0.0685411 -0.0259413 -3.06895e-20)
(0.822754 0.582266 -1.89271e-22)
(1.11913 -0.0574061 3.4462e-20)
(1.14186 -0.070992 0)
(1.15311 -0.0363914 -5.46984e-20)
(1.16166 0.0697816 0)
(1.20479 -0.00347131 6.46918e-20)
(1.10213 -0.0254318 -2.03008e-20)
(1.11519 -0.0620277 3.16292e-20)
(0.375046 0.112587 -2.41619e-19)
(1.09828 -0.0341688 5.30199e-20)
(1.14993 -0.019825 0)
(1.01531 0.000741643 -5.45683e-21)
(1.26488 -0.0123756 -6.45142e-20)
(1.09348 0.0197652 -3.02346e-20)
(1.03168 0.00376135 1.13237e-20)
(1.05116 0.138001 0)
(1.05947 0.026948 7.94584e-21)
(-0.0627607 -0.0144416 1.06131e-20)
(0.40795 -0.0667999 0)
(1.01599 0.0255199 -4.20249e-22)
(1.01835 0.000989165 4.583e-21)
(0.597667 -0.0633959 0)
(-0.270334 -0.00803186 0)
(1.00006 0.000266396 -1.80085e-21)
(0.157477 -0.010566 5.11289e-20)
(1.06066 0.005653 1.01331e-20)
(1.24032 0.170404 0)
(1.01537 0.0275084 2.05704e-22)
(-0.164386 -0.0138504 7.71528e-20)
(1.16698 -0.0675273 0)
(1.06083 0.100044 -1.57237e-20)
(1.03913 0.0395783 0)
(0.325239 -0.0309009 -1.34631e-20)
(1.25543 0.14268 5.09412e-20)
(-0.256267 0.007063 0)
(1.00005 0.00031795 -1.93368e-21)
(-0.167057 -0.0120463 6.30214e-20)
(0.135774 0.0612967 -7.65141e-21)
(0.906299 0.0312516 0)
(1.03182 0.00429 -1.10631e-20)
(-0.131742 0.0128553 0)
(0.267045 -0.0435774 0)
(1.1168 -0.00901375 -1.09623e-20)
(1.01053 0.0136131 0)
(1.01013 0.0493922 0)
(1.09171 -0.0528457 0)
(1.22699 -0.0228361 0)
(1.01981 -9.84227e-05 -5.94415e-21)
(1.00946 0.012822 1.02844e-22)
(1.00521 0.00254156 -1.41386e-22)
(1.00554 0.00265819 0)
(-0.184913 -0.0139225 0)
(1.25519 -0.0267534 2.67884e-20)
(1.11625 -0.00770487 1.6802e-21)
(1.2661 0.131125 4.95537e-20)
(1.00653 0.00068025 -8.36414e-23)
(1.01122 0.00576106 2.39269e-21)
(1.1821 0.00215084 -5.89065e-20)
(0.136925 -0.0429979 -7.6823e-20)
(1.11087 0.0555592 2.61063e-20)
(1.03506 0.0224709 -5.82633e-21)
(0.995019 0.0142941 2.02816e-21)
(0.992345 0.000847388 7.75903e-22)
(0.847071 0.0221902 0)
(-0.0104276 0.0187331 4.06036e-20)
(1.00054 0.0039505 2.24868e-21)
(0.992594 0.00385465 0)
(1.11649 -0.0711252 4.58592e-20)
(1.10257 -0.0238864 -2.3276e-20)
(1.10653 0.00427878 -4.76128e-20)
(0.997974 0.0340256 -5.27988e-21)
(1.0306 0.0660263 -3.33535e-21)
(1.04613 0.0983699 -2.51632e-21)
(1.14761 -0.0206012 0)
(0.949217 0.50103 0)
(1.27014 0.139626 -5.74537e-20)
(1.21667 0.00944088 1.10267e-19)
(1.16919 -0.0117358 -4.48658e-20)
(1.23221 -0.0425924 1.2563e-20)
(1.17497 0.127272 -3.60578e-20)
(1.00219 0.0180904 4.93272e-21)
(-0.154815 -0.0122214 1.43157e-20)
(0.992681 0.000303576 6.04088e-21)
(1.00385 0.0776967 7.55968e-21)
(1.07144 5.81223e-05 2.00617e-20)
(1.26898 -0.0136606 3.37413e-20)
(0.993099 0.295392 1.06328e-20)
(1.01036 0.00129699 4.11046e-23)
(1.23203 0.336345 -1.33819e-19)
(1.2099 0.0899432 -2.3558e-20)
(-0.0987992 -0.00887457 0)
(1.17068 -0.00967936 4.80421e-20)
(0.887702 0.139383 -4.27594e-20)
(1.1201 -0.000701556 -1.80463e-21)
(0.999456 0.00357966 -5.49512e-21)
(0.432826 -0.0448709 -2.37013e-20)
(1.22164 0.326095 6.0296e-20)
(0.31893 -0.0498124 -5.48565e-21)
(1.01862 0.0460623 0)
(1.10064 0.0447037 9.44892e-21)
(1.26907 0.126654 -9.70444e-20)
(0.0365425 -0.030465 5.44288e-20)
(-0.199614 0.000773722 0)
(1.15142 -0.00206528 6.2975e-20)
(1.19132 0.220129 0)
(0.992403 0.0911543 0)
(1.05917 0.0590801 0)
(0.996871 0.0345625 6.50413e-21)
(0.889392 0.236008 0)
(0.670515 0.186539 0)
(0.973371 -0.00196958 1.22661e-20)
(1.13619 -0.00273199 0)
(0.568739 0.153244 1.69028e-19)
(0.332043 -0.0514043 -2.09458e-20)
(-0.249629 0.00866895 7.32237e-20)
(1.03373 0.0763886 3.9497e-21)
(1.13528 -0.0459413 3.88359e-20)
(1.18713 -0.0674553 1.38087e-20)
(1.00578 0.121412 -8.28262e-22)
(0.968271 0.0260124 8.49698e-21)
(0.17424 0.545033 8.52087e-20)
(0.600616 -0.062618 6.15965e-20)
(0.5621 -0.0723084 3.96331e-20)
(1.26192 0.11432 -7.57286e-20)
(1.01847 0.00209284 0)
(0.11472 -0.0110766 -3.63274e-20)
(1.09275 -0.0518589 2.38896e-20)
(1.01028 0.000965275 -1.19009e-22)
(1.09763 0.0776267 3.92329e-20)
(1.13369 -0.0306056 3.2796e-20)
(0.846718 0.0739516 1.17958e-20)
(1.19763 0.0920314 9.87423e-20)
(0.46478 -0.050757 3.57427e-20)
(1.20131 -0.00403081 -9.15203e-20)
(1.09795 -0.0221522 3.36311e-20)
(0.433723 -0.0445141 -2.02406e-20)
(1.06167 0.0333212 5.83566e-21)
(-0.0939514 -0.0119641 0)
(1 0.00225882 -1.79112e-22)
(1.00054 0.00426719 -5.53668e-21)
(0.979267 -0.0780118 0)
(0.570471 -0.0637007 -1.39769e-19)
(0.376203 0.244128 -1.45677e-19)
(1.06226 0.0318643 1.22923e-20)
(1.01529 0.0564985 -5.31923e-22)
(0.993032 0.00427233 1.06393e-20)
(1.08707 -0.0368835 -1.0637e-20)
(0.0784919 0.178394 0)
(1.10207 -0.0601251 -3.85997e-22)
(1.06154 0.0595366 0)
(1.1192 -0.0558804 0)
(1.14122 -0.00268612 0)
(1.01525 0.0282779 1.02414e-22)
(1.16948 0.494343 3.23037e-20)
(1.10077 -0.059833 -3.21899e-22)
(1.11402 -0.0732611 0)
(1.00515 0.0206369 3.5645e-21)
(1.19662 -0.00854528 1.76322e-20)
(1.05854 0.0285412 1.01294e-20)
(-0.0231543 0.0508408 -1.36947e-20)
(1.14953 0.153522 0)
(1.00394 0.288432 -1.00594e-20)
(1.10179 0.0466805 2.7276e-21)
(1.0081 0.00298838 8.6058e-22)
(1.02943 0.00657814 -3.53226e-21)
(1.03744 0.0301706 8.11646e-23)
(0.967727 0.358611 -8.39123e-22)
(0.890258 0.0226762 0)
(1.25893 0.0519002 0)
(0.468262 0.811545 -2.66187e-20)
(1.13579 -0.0104247 -5.015e-20)
(1.00915 0.00521325 5.40664e-22)
(1.20591 0.00344961 0)
(0.373264 0.274672 9.02995e-20)
(1.12691 -0.0731937 0)
(1.04264 0.00426041 1.8666e-20)
(0.899875 0.0356439 -2.57248e-20)
(1.00891 0.0127264 5.28591e-22)
(1.08219 -0.0166651 -3.10513e-21)
(1.07731 0.0471194 0)
(0.246008 -0.04378 2.47937e-20)
(0.999874 0.00237051 -7.50237e-21)
(1.23731 0.512972 -5.09476e-20)
(1.0834 -0.0135864 -1.22535e-20)
(1.12573 -0.0592961 -9.82248e-21)
(1.17768 0.149353 -2.18019e-20)
(-0.121229 -0.0186846 -9.07953e-20)
(1.02688 0.286583 0)
(1.0097 0.0476621 1.69944e-21)
(-0.0301439 -0.0214245 -5.4836e-20)
(-0.27381 -0.00508307 0)
(1.00716 0.0366307 0)
(1.07034 -0.000788549 -2.56924e-20)
(1.17494 -0.0646338 -6.07043e-20)
(1.25267 0.11617 -8.54535e-20)
(1.16802 -0.0233464 2.19586e-20)
(1.00016 0.000385461 1.79278e-21)
(1.04046 0.0395254 1.08723e-20)
(1.1979 0.323397 9.18599e-20)
(1.07041 -0.0087686 0)
(1.16323 0.0133264 0)
(1.11532 -0.0364968 0)
(1.03014 0.00644022 4.05381e-21)
(1.12059 -0.0233715 -1.62137e-20)
(0.529208 -0.0642245 1.51814e-20)
(1.04213 0.00262909 -2.95946e-23)
(1.05698 -0.00678567 0)
(1.00465 0.00270307 2.08374e-22)
(0.0685526 -0.010623 0)
(0.999956 0.0010558 0)
(0.985244 0.0867717 5.53462e-22)
(-0.293891 -0.00355332 4.96787e-20)
(0.994432 0.0711725 4.00529e-22)
(0.630921 -0.0620311 4.09492e-20)
(1.07912 0.0695157 0)
(0.831494 0.0781276 -1.33837e-19)
(1.005 0.00283055 -2.3355e-22)
(1.024 0.220398 1.60631e-20)
(1.00089 0.0133186 -3.33029e-24)
(1.15945 0.07802 2.74976e-20)
(1.00775 0.00179607 7.43921e-22)
(1.0857 0.267462 2.9905e-20)
(1.06034 0.00645069 -2.0265e-22)
(0.220017 0.130789 -9.313e-20)
(0.432362 0.686684 4.66441e-20)
(0.13418 -0.0438882 4.90517e-20)
(1.01126 0.000437708 4.05778e-21)
(0.999671 0.00292793 -8.18241e-21)
(1.16931 0.123981 -4.17524e-20)
(1.12971 0.1186 2.06131e-20)
(0.0339356 -0.0152327 -1.90263e-20)
(0.240623 -0.0545026 4.53635e-20)
(1.14791 0.0268095 0)
(0.992918 0.0126927 0)
(1.24245 0.0183207 0)
(0.343384 0.219173 3.5688e-20)
(1.11284 -0.0722282 -4.85518e-21)
(1.25897 0.0557801 0)
(1.139 0.0123719 4.4604e-20)
(0.50645 -0.0518949 0)
(1.08946 0.135374 0)
(1.08519 -0.0354033 1.61188e-20)
(1.2132 0.0271362 0)
(0.855331 0.427534 -2.47768e-20)
(1.14618 0.0287765 0)
(0.304665 0.295075 0)
(1.14647 0.0351298 -2.05799e-20)
(1.0631 -0.00514695 0)
(1.13513 -0.0319218 -7.40422e-21)
(1.00851 0.112372 1.44424e-21)
(1.03539 0.00528368 7.43233e-21)
(1.08206 -0.0156512 0)
(1.11642 0.126308 -7.03941e-20)
(1.05355 0.100744 6.64039e-21)
(0.999747 0.013279 0)
(1.00699 0.000544418 -5.88562e-22)
(1.13863 -0.0070295 4.41804e-20)
(1.06671 0.012214 -6.56425e-21)
(1.16627 0.0148353 0)
(0.993607 0.0123311 3.5379e-22)
(0.995397 0.0096926 -1.62501e-22)
(0.999964 0.000843341 0)
(1.02633 0.0661793 0)
(1.02433 0.00125059 0)
(1.0518 0.0861115 5.90456e-21)
(1.00412 0.00286654 -1.76321e-22)
(-0.171686 -0.0129206 -3.84241e-20)
(1.09821 -0.0452286 0)
(0.471178 -0.28116 -1.11217e-19)
(1.01268 0.00548448 0)
(1.00007 0.00170335 5.1823e-21)
(0.802441 0.148576 -5.90905e-20)
(1.16513 0.067648 -1.65091e-20)
(0.953439 0.00542732 4.69047e-20)
(0.753499 0.00442251 -5.92403e-21)
(1.13812 0.204191 -3.68256e-20)
(0.937264 0.108656 -1.00204e-19)
(1.08346 -0.0146358 3.09856e-20)
(1.19209 0.00160343 -2.87039e-20)
(1.05442 0.0165429 4.3113e-21)
(0.999904 0.00110009 -2.86398e-21)
(1.00581 0.00236994 6.40869e-23)
(1.03818 0.0606912 3.94231e-21)
(-0.317239 -0.00168794 1.19601e-19)
(1.00006 0.00144688 -2.31865e-21)
(1.14398 -0.0516618 -1.22346e-22)
(1.05321 0.0885959 7.87551e-21)
(-0.19671 0.0203974 2.30102e-19)
(0.968058 0.229528 -3.32875e-21)
(1.14553 0.202276 1.95364e-20)
(1.12407 -0.0588209 0)
(1.0218 0.00668489 2.01463e-21)
(1 4.52555e-05 0)
(1.0996 -0.0454858 9.03411e-22)
(0.98821 0.00468778 0)
(0.986161 0.0451067 1.16793e-20)
(0.891323 0.00255704 4.14676e-20)
(1.01505 0.0604581 -2.05741e-21)
(0.998618 0.00102991 2.62895e-21)
(1.08989 0.0575471 -3.23207e-20)
(1.00656 0.00809831 9.80893e-23)
(1.01726 0.000946073 -2.47876e-21)
(1.06022 0.0957477 0)
(0.884781 -0.0205219 -3.19483e-20)
(0.0131849 -0.0117776 -4.57787e-20)
(1.08489 0.114972 0)
(1.04212 0.00208931 3.50406e-23)
(1.00947 0.00100595 1.26111e-21)
(0.066109 -0.0350261 -5.041e-20)
(0.953105 0.366135 2.54783e-22)
(1.00309 0.0440744 0)
(1.01967 0.0453823 -6.98254e-22)
(0.843835 0.00725555 -3.90155e-20)
(1.18167 -0.0650092 -3.05498e-20)
(-0.304673 -0.00661087 1.24679e-19)
(0.895546 0.139877 -3.30606e-20)
(1.06403 -0.00431141 1.07894e-20)
(1.01227 0.00331257 -2.77979e-21)
(1.01749 0.00111089 -2.62809e-21)
(1.09982 -0.0341826 -2.55504e-20)
(1.08965 0.116089 1.26192e-21)
(1.13556 -0.0656442 -1.51541e-20)
(0.917837 0.022192 2.33684e-20)
(0.118741 -0.0229469 1.80685e-20)
(1.03038 0.0448988 2.59837e-21)
(0.965827 0.061935 0)
(-0.312798 -0.0032924 3.44961e-20)
(0.995651 0.0112365 0)
(1.09459 0.0181199 2.01672e-20)
(1.00593 0.0329441 0)
(1.00206 0.00132026 -1.26272e-21)
(1.1089 0.131779 1.28797e-21)
(0.7737 -0.00438528 9.65205e-20)
(1.05184 0.0291553 1.5675e-20)
(0.594819 -0.0626786 0)
(0.25225 -0.0144481 2.06421e-20)
(1.18225 0.144476 1.92701e-20)
(1.00253 0.0187067 0)
(1.02634 0.0028799 -3.12639e-21)
(1.10736 -0.0582764 -4.91893e-20)
(1.17243 -0.0483677 1.47774e-20)
(1.00007 0.00043634 -1.38248e-22)
(1.23631 -0.0455576 -1.3427e-20)
(1.02581 0.0030396 0)
(1.11289 0.121058 6.20246e-20)
(1.03635 -0.00143466 4.83273e-21)
(1.03659 0.00705352 -1.48619e-20)
(1.24166 -0.0231073 -3.70982e-20)
(1.04224 0.0169029 1.97241e-21)
(0.95781 -0.0728706 0)
(1.11879 0.0932829 -1.64416e-20)
(0.999957 0.000784068 -2.34705e-22)
(1.02106 0.00362512 -7.40043e-21)
(0.981284 0.00268685 -1.09849e-20)
(1.0103 0.0211499 7.62749e-22)
(1.05647 -0.00575168 0)
(0.270868 0.688599 -6.06078e-21)
(1.04077 0.00455019 3.58479e-21)
(1.03255 0.0110929 8.28972e-21)
(0.311525 -0.0615472 -1.64255e-20)
(0.531464 -0.0696544 6.43608e-20)
(1.0994 -0.0234674 0)
(1.1242 0.119804 3.25535e-20)
(1.15627 0.00447015 -6.86035e-20)
(1.08106 0.0261474 -2.02091e-20)
(1.02575 0.0151438 0)
(0.887867 0.0153682 2.0435e-20)
(-0.139606 -0.0160581 -3.04267e-20)
(1.09551 0.268946 -3.59066e-20)
(0.99833 0.00575825 -6.40547e-21)
(1.03775 0.0386823 0)
(0.269712 -0.0568484 -3.91008e-20)
(1.11939 0.0223093 -6.9087e-20)
(-0.122366 -0.0126944 7.26341e-20)
(0.999963 0.00101603 0)
(0.951048 0.00630073 -5.13638e-20)
(0.0532455 -0.0101723 1.62767e-20)
(1.11179 0.0161433 -1.19839e-20)
(1.05406 0.0277146 -1.5539e-20)
(-0.30877 -0.000450632 -1.33289e-19)
(0.21279 0.241475 -1.19458e-19)
(1.01056 0.0205882 0)
(1.20866 0.0284489 -7.1846e-20)
(1.00613 0.00248943 -1.09342e-22)
(1.04103 0.0168637 0)
(1.01307 0.00577688 0)
(-0.137246 -0.0189277 9.60799e-20)
(1.0239 0.00109931 4.69884e-21)
(1.04148 -0.00357146 -2.66319e-23)
(1.02632 0.014682 0)
(0.905316 -0.0720377 1.87983e-20)
(1.06679 -0.0126171 7.52356e-21)
(1.24477 0.163779 0)
(0.701541 -0.0902751 0)
(1.03717 0.00518376 2.90636e-21)
(0.844845 0.0307685 1.33596e-20)
(1.00056 0.00374583 0)
(-0.157872 -0.0112978 7.59389e-20)
(1.00576 0.0108404 1.19579e-21)
(1.04149 0.00400232 -3.66583e-21)
(0.998681 0.00152771 1.28934e-21)
(1.10828 -0.0587119 6.79824e-20)
(0.998507 0.00142137 0)
(1.20004 -0.00808416 0)
(0.25895 -0.0106194 -9.78715e-21)
(0.639043 -0.0685564 0)
(0.904784 0.0360832 0)
(1.1447 -0.0699171 -1.28124e-20)
(-0.268592 -0.00474514 2.41689e-20)
(0.997263 0.0285768 4.95835e-21)
(0.0967198 -0.00852268 4.5918e-20)
(0.37117 0.0401171 0)
(-0.247779 -0.0048028 0)
(0.288201 -0.0261762 1.19391e-20)
(0.294172 -0.0603208 0)
(0.100839 0.157761 0)
(1.20229 0.00481333 0)
(1.01185 0.0503937 0)
(0.450025 -0.0491981 -1.32277e-20)
(1.11111 0.018172 0)
(0.394556 -0.0486829 -1.68132e-20)
(1.03109 0.0046815 0)
(1.02521 0.0242088 1.22871e-21)
(1.00459 0.0450696 3.08812e-21)
(1.0006 0.00405088 2.1097e-21)
(1.08626 0.0215906 0)
(0.891684 0.0953015 9.54354e-20)
(0.0744775 -0.0170531 0)
(1.02502 0.023194 1.30895e-21)
(0.993894 0.00500287 1.72314e-22)
(-0.226342 0.013452 2.98609e-19)
(0.971624 0.45844 0)
(0.981432 0.00140199 3.26256e-22)
(0.81184 -0.0496319 0)
(1.09754 0.0596786 0)
(1.0475 0.0228113 5.4968e-21)
(0.494219 0.723567 0)
(0.805655 -0.0444334 0)
(0.952485 0.0540506 -2.00459e-20)
(1.06717 -0.0118449 -7.55665e-21)
(0.230524 -0.0106621 2.16257e-20)
(-0.298372 -0.00265382 3.16264e-20)
(0.222673 0.0639054 -1.50962e-20)
(1.03586 -0.000957661 6.01919e-23)
(1.25187 0.150107 0)
(1.20644 0.0858944 0)
(-0.225778 0.00192085 0)
(0.350171 -0.0610059 -4.19801e-20)
(1.09833 -0.054152 0)
(1.01649 0.0275778 3.03867e-22)
(1.05549 0.017315 -1.8145e-20)
(1.02893 0.0452542 -2.00159e-22)
(1.02025 4.04691e-05 2.55387e-21)
(1.02905 0.0673019 3.48057e-21)
(1.0177 0.00174975 2.49771e-21)
(1.04857 0.0967748 0)
(1.08521 0.13513 3.52123e-22)
(-0.0594338 0.0237694 -4.63284e-20)
(1.1576 -0.0389311 8.19538e-22)
(1.04196 -0.00300359 1.76992e-20)
(1.18859 0.000614568 0)
(-0.0896186 -0.02502 0)
(1.10555 0.126451 0)
(0.97275 0.0258166 7.26473e-21)
(-0.101324 -0.0104363 0)
(1.03212 0.0208095 4.42788e-21)
(0.987006 0.0430236 -1.12977e-20)
(0.817806 0.0674561 2.72438e-21)
(-0.0224008 0.0304231 0)
(0.998421 3.49041e-05 -3.09115e-21)
(1.00471 0.0209954 0)
(0.42269 -0.0551551 -3.16984e-20)
(1.13253 -0.06805 2.22521e-20)
(1.18995 -0.0671526 -1.58951e-19)
(1.17017 -0.0168292 2.39781e-20)
(1.1369 -0.0718785 -2.78399e-20)
(1.00838 0.0198779 0)
(1.21299 0.00352492 8.86687e-20)
(0.971842 0.0277591 -2.42908e-20)
(1.00382 0.0114173 0)
(0.969599 0.0237342 0)
(0.534856 -0.0583916 0)
(-0.2833 -0.00742421 -1.05722e-19)
(1.03379 0.00942696 0)
(1.02157 0.00364601 9.49129e-21)
(1.00591 0.0343749 0)
(1.15528 -0.0668404 4.25746e-20)
(1.02515 0.0649177 0)