/*--------------------------------*- C++ -*----------------------------------*\
| =========                 |                                                 |
| \\      /  F ield         | OpenFOAM: The Open Source CFD Toolbox           |
|  \\    /   O peration     | Version:  v2012                                 |
|   \\  /    A nd           | Website:  www.openfoam.com                      |
|    \\/     M anipulation  |                                                 |
\*---------------------------------------------------------------------------*/
FoamFile
{
    version     2.0;
    format      ascii;
    class       surfaceVectorField;
    location    "200";
    object      Uf_0;
}
// * * * * * * * * * * * * * * * * * * * * * * * * * * * * * * * * * * * * * //

dimensions      [0 1 -1 0 0 0 0];


internalField   nonuniform List<vector> 
20580
(
(1.1331 0.055142 8.68109e-22)
(1.13332 0.0578771 3.69701e-21)
(1.13071 0.0558379 -2.57324e-20)
(1.06911 -0.0220394 -4.96639e-21)
(1.06961 -0.0230994 0)
(1.0709 -0.0219405 4.16069e-22)
(1.06841 -0.0204819 -6.50059e-21)
(1.06712 -0.0217018 -8.85753e-22)
(-0.195836 -0.0164234 3.66429e-20)
(-0.170632 -0.0198751 2.93111e-20)
(-0.195346 -0.0173295 -5.10088e-21)
(1.0021 -0.000521944 3.36464e-22)
(1.00189 -0.000484824 -7.09036e-22)
(1.00198 -0.000288804 -8.14104e-22)
(1.08031 -0.0349735 -1.89344e-20)
(1.08014 -0.0370512 -9.68921e-22)
(1.07806 -0.0358989 -9.53906e-21)
(1.0562 0.0125849 4.71707e-21)
(1.05661 0.0135311 -4.14724e-21)
(1.01315 -0.00081775 -1.18296e-21)
(1.01286 -0.000834349 1.30012e-21)
(1.01215 -0.000513641 6.54799e-22)
(0.331414 0.0469529 -1.98493e-20)
(0.338049 0.0468732 -9.83533e-22)
(0.308874 0.0424466 -8.7076e-21)
(0.990709 -0.00719178 -1.67338e-21)
(0.991121 -0.00652817 3.5772e-21)
(0.991517 -0.00713004 2.58585e-21)
(1.16086 -0.0943721 1.30408e-20)
(1.15574 -0.0944991 1.28217e-20)
(1.15885 -0.0992574 -1.10131e-20)
(1.00115 -0.00779865 -1.47441e-22)
(1.00131 -0.00809094 -3.53229e-21)
(1.00116 -0.00816177 6.37359e-22)
(0.980502 -0.0182036 -5.97963e-21)
(0.980112 -0.0191161 5.7738e-21)
(0.981296 -0.0187882 -2.21047e-21)
(0.108038 0.0140463 0)
(0.094108 0.0103131 1.55492e-20)
(0.111942 0.0164253 9.97126e-21)
(1.09781 0.0117932 0)
(1.09957 0.0120151 -9.24011e-21)
(1.09848 0.0102982 -1.31966e-20)
(1.08342 0.0531288 1.61621e-21)
(1.08311 0.0528156 -1.06842e-21)
(1.08305 0.0534192 3.29451e-21)
(-0.293739 -0.00537063 -3.70729e-20)
(-0.317195 -0.00506518 3.6305e-20)
(-0.304416 -0.00190665 9.7173e-20)
(1.03375 -0.018395 0)
(1.03463 -0.0184059 -4.28188e-21)
(1.03431 -0.0192768 -3.45486e-21)
(1.20477 0.0401433 0)
(1.20705 0.0373731 2.35538e-20)
(1.20565 0.041411 2.37963e-20)
(1.13544 0.054416 1.83624e-20)
(1.13291 0.0528455 1.9596e-20)
(1.11149 0.00697415 -1.58348e-22)
(1.11071 0.00500527 -1.28085e-20)
(1.10909 0.00688968 -2.3093e-20)
(1.0394 -0.0894746 1.67325e-22)
(1.03612 -0.0898711 0)
(1.03772 -0.0864462 0)
(0.729968 -0.349904 0)
(0.581093 -0.286721 -4.62028e-20)
(0.44604 -0.223699 -2.39074e-20)
(1.00006 -0.000197879 9.87948e-23)
(1.00009 -0.000262691 9.6208e-22)
(1.00006 -0.000166402 -1.64275e-21)
(1.23505 -0.0148035 -1.42078e-20)
(1.22813 -0.0134561 0)
(1.13143 -0.00182233 4.64654e-20)
(1.08401 0.0442123 1.88183e-20)
(1.0839 0.0448752 0)
(1.08467 0.0446841 0)
(1.08536 0.0749116 2.74944e-20)
(1.08303 0.0767606 9.78965e-21)
(1.08177 0.0749923 -8.73859e-22)
(1.17158 0.0842372 0)
(1.17589 0.0847957 -4.48181e-20)
(1.12765 0.0871942 2.606e-20)
(0.496863 0.0400843 1.7426e-23)
(0.473402 0.0377872 4.8934e-21)
(0.464561 0.0373001 -4.0257e-21)
(1.02028 -0.0116182 1.44076e-21)
(1.01992 -0.0119872 -1.42047e-22)
(1.01966 -0.0113638 0)
(-0.0764802 -0.00992187 6.87385e-20)
(-0.106192 -0.0102631 1.18529e-19)
(-0.0586649 -0.00960049 1.60555e-20)
(1.05691 0.0121818 -9.24133e-22)
(1.05574 0.0119279 4.63995e-21)
(1.12467 0.0575869 0)
(1.12265 0.058085 9.22703e-21)
(1.12334 0.0556442 1.89126e-20)
(0.381458 0.0672373 -4.66584e-21)
(0.370522 0.0659905 -4.61753e-21)
(0.431208 0.0714847 1.50459e-20)
(1.12572 -0.0817814 0)
(1.12691 -0.0782551 -4.60082e-22)
(1.12906 -0.0824485 1.23036e-20)
(0.497691 0.0371853 2.20024e-21)
(0.528543 0.0398649 4.89664e-21)
(0.506025 0.0364638 1.38064e-20)
(1.00002 -0.000128377 3.77043e-21)
(1.00005 -0.000236643 1.85489e-21)
(1.27514 -0.153873 4.46232e-20)
(1.2087 -0.142236 4.17167e-20)
(1.19032 -0.134248 3.61186e-20)
(0.000627943 0.0181572 -1.79225e-20)
(0.0171301 0.0190651 -2.09504e-20)
(0.049167 0.0200497 -1.83746e-20)
(1.00533 -0.0370837 -9.76505e-22)
(1.00609 -0.0362257 -2.31974e-21)
(1.00647 -0.0374531 -3.36225e-21)
(0.188988 0.0482178 -1.70795e-20)
(0.237251 0.0533797 1.60989e-20)
(0.199891 0.0497415 2.15423e-20)
(0.519718 0.0432304 -5.30547e-21)
(0.52909 0.042889 1.74779e-21)
(-0.280072 -0.0042893 -7.4089e-20)
(-0.28248 -0.00558745 -1.93291e-20)
(1.10302 -0.462593 0)
(1.09461 -0.470109 -2.43608e-20)
(1.08895 -0.47555 0)
(0.543462 0.0502651 -4.92577e-22)
(0.533564 0.0500773 -2.54006e-21)
(0.506208 0.045913 7.14432e-21)
(1.01439 -0.0220806 1.45539e-22)
(1.01367 -0.0221325 -3.55656e-24)
(1.01393 -0.0213198 -5.36178e-24)
(1.01893 1.24474e-05 2.23752e-21)
(1.01872 4.83522e-05 2.39018e-21)
(1.08821 0.0561871 -4.866e-21)
(1.08753 0.0564737 1.19277e-20)
(1.08784 0.0555076 -9.26108e-21)
(1.04478 -0.0565545 -3.46075e-21)
(1.04293 -0.0547172 -1.16554e-21)
(1.04548 -0.054627 1.06665e-21)
(0.980892 -0.0171328 -9.3524e-21)
(0.979504 -0.0174373 1.44756e-20)
(-0.219847 0.00353767 0)
(-0.218091 0.00266715 -8.45728e-23)
(-0.255598 0.00136601 -5.76143e-20)
(0.97299 -0.0113073 4.34057e-22)
(0.974201 -0.0114289 -1.2773e-20)
(0.973363 -0.0125788 2.39375e-22)
(1.08366 0.0535222 -1.12835e-20)
(1.08372 0.0529785 0)
(1.07227 0.022742 7.38737e-21)
(1.07332 0.0233018 -5.7297e-21)
(1.07223 0.0238869 -6.31278e-21)
(0.174903 0.0101145 8.4462e-21)
(0.192988 0.0148831 1.83744e-20)
(0.168412 0.0100984 8.65605e-21)
(1.00477 -0.0379897 2.79477e-21)
(1.00433 -0.036682 1.14656e-21)
(1.12545 0.0600871 -3.8519e-20)
(1.12692 0.0572988 1.81265e-20)
(0.175083 0.0471033 -3.46766e-20)
(0.147725 0.0409026 -2.52573e-20)
(1.07578 0.0634992 -2.42681e-20)
(1.07455 0.0632701 -4.26824e-22)
(1.07486 0.0646635 -1.74303e-20)
(-0.0400397 0.0111295 -4.18946e-21)
(-0.0283801 0.0119883 1.88598e-20)
(-0.0161856 0.0152052 1.87681e-20)
(1.00101 -0.00750133 9.16566e-22)
(1.00113 -0.00744326 9.54978e-22)
(1.0886 0.0734148 5.91034e-21)
(1.08943 0.0748347 2.57418e-20)
(0.995603 -0.00207377 7.36607e-22)
(0.995668 -0.00249288 6.56474e-21)
(0.995186 -0.00241058 -1.30478e-21)
(1.04388 -0.0579918 -2.03669e-21)
(1.04622 -0.0576838 5.45421e-21)
(0.867568 -0.451253 1.12019e-20)
(0.891709 -0.446074 8.41731e-21)
(0.875048 -0.42919 2.58476e-21)
(0.841396 -0.455772 0)
(0.860918 -0.480413 -2.25334e-21)
(-0.0523883 0.00713149 -2.6701e-20)
(-0.0676295 0.00566273 -3.66907e-20)
(0.700468 -0.117409 5.3512e-20)
(0.694013 -0.13374 3.36184e-20)
(1.02017 -0.0385534 3.37195e-22)
(1.019 -0.0387763 -4.68194e-22)
(1.01948 -0.03751 -4.75607e-22)
(-0.139965 -0.016964 0)
(-0.171212 -0.0135157 -4.34573e-20)
(-0.158858 -0.0141165 3.07195e-20)
(-0.138735 -0.00516662 -1.5158e-20)
(-0.171093 -0.00371269 5.51689e-20)
(-0.140426 -0.00658285 6.4128e-20)
(1.11908 0.0106985 -1.79645e-20)
(1.12042 0.00913578 9.49592e-21)
(1.12142 0.0114333 -1.42019e-20)
(0.993947 -0.025472 -4.02912e-21)
(0.993146 -0.0251262 1.37488e-24)
(0.993312 -0.0262554 -9.82599e-21)
(-0.0210136 0.0125569 0)
(-0.0490471 0.00625984 2.95628e-20)
(1.07919 0.0216266 9.09123e-21)
(1.07883 0.0204685 -6.65304e-21)
(1.08011 0.0208742 -8.02082e-21)
(1.02047 -0.073064 -6.4399e-22)
(1.01816 -0.0718503 -2.59978e-22)
(1.02026 -0.0703102 4.14065e-22)
(-0.277015 -0.00528139 -4.33083e-20)
(-0.261111 -0.00447474 3.01405e-20)
(1.02071 -0.00577272 1.27684e-21)
(1.02054 -0.00612296 2.08938e-21)
(1.02121 -0.00610183 -2.63272e-21)
(1.2371 -0.0121984 2.61053e-20)
(1.27016 -0.0180659 -1.50589e-20)
(1.00484 -0.0177011 2.62487e-21)
(1.00466 -0.0170563 8.22241e-22)
(1.00432 -0.0173857 -2.999e-21)
(1.02145 -0.0385929 -2.87599e-22)
(1.02078 -0.0399211 2.52778e-22)
(1.25875 -0.0844386 0)
(1.25858 -0.0788481 -3.9277e-20)
(1.26361 -0.083821 0)
(1.12205 -0.0816002 0)
(1.12385 -0.0856625 0)
(0.0822237 0.0120187 -2.03424e-21)
(0.09286 0.013311 -1.61242e-20)
(0.105441 0.018096 6.01037e-21)
(-0.01579 0.0119269 0)
(0.00165543 0.0166138 0)
(-0.121389 -0.00769395 0)
(-0.112331 -0.00784065 -1.37575e-20)
(-0.0791559 -0.00989692 0)
(1.04144 -0.0920072 6.16079e-21)
(1.04237 -0.0885771 -4.21245e-21)
(0.302495 0.00778965 7.36786e-21)
(0.276721 0.00391395 7.64918e-21)
(0.303983 0.00835145 6.27032e-22)
(0.991387 -0.0110801 5.70847e-22)
(0.99184 -0.0115327 -2.38149e-21)
(0.991946 -0.0107102 1.00565e-20)
(-0.0587474 -0.0112185 -2.6168e-20)
(-0.099909 -0.00831382 3.51694e-20)
(0.971022 -0.0112448 7.95253e-21)
(0.972429 -0.00960023 1.58237e-20)
(1.05767 0.0117491 -2.72964e-22)
(1.05799 0.0126057 -4.77516e-21)
(-0.258333 -0.0017634 -9.03849e-20)
(-0.258868 -0.00386471 4.28157e-20)
(-0.132484 -0.00793239 4.35235e-20)
(-0.158118 -0.00722526 -4.93645e-20)
(-0.0124944 0.0195947 1.30962e-20)
(-0.0288011 0.0157783 5.37002e-20)
(-0.0492028 0.0137774 -4.14983e-20)
(1.09414 -0.439957 -1.17322e-21)
(1.08501 -0.421546 -1.30739e-21)
(1.0725 -0.433915 -1.93483e-20)
(1.00949 -0.023312 1.78675e-21)
(1.00882 -0.023323 6.18151e-22)
(1.00947 -0.0241001 -5.02493e-22)
(1.08524 0.0553554 -7.02779e-21)
(1.08477 0.0548567 0)
(1.08531 0.0546976 -9.90227e-21)
(-0.16265 0.00657148 2.36575e-20)
(-0.160716 0.00563379 -7.07459e-20)
(-0.194266 0.00218375 1.86031e-21)
(1.20977 -0.185208 -3.12702e-20)
(1.21741 -0.185275 2.17103e-21)
(1.21328 -0.192297 2.26115e-21)
(1.0857 0.0559887 1.17841e-20)
(1.08484 0.0561491 -6.15565e-21)
(0.808278 -0.119319 5.41308e-20)
(0.806481 -0.108848 -1.74353e-20)
(0.817406 -0.113418 -1.7811e-20)
(0.815555 -0.152209 -2.14403e-21)
(0.813575 -0.14063 -1.47191e-21)
(0.802677 -0.148972 1.77166e-20)
(0.988985 -0.02666 0)
(0.989937 -0.026964 -5.94256e-21)
(0.989134 -0.0280288 0)
(1.01716 -0.0214396 0)
(1.0177 -0.0221759 9.03333e-22)
(1.01774 -0.0213076 -5.35646e-22)
(1.12524 -0.00448706 -2.10016e-20)
(1.12681 -0.0061367 -4.06914e-20)
(1.12774 -0.00311628 -2.14132e-20)
(1.01661 -0.0206492 -5.51188e-22)
(1.01636 -0.0215701 0)
(-0.136934 -0.00565684 -8.33397e-20)
(-0.103229 -0.00805114 2.98459e-20)
(1.05714 0.0108776 4.89424e-21)
(1.05844 0.0112031 -8.42179e-21)
(1.03296 -0.0184058 -2.5938e-21)
(1.03326 -0.0176834 0)
(1.02632 -0.124735 1.79561e-21)
(1.02842 -0.129022 1.61981e-21)
(1.02324 -0.128002 8.37574e-22)
(1.01511 -0.022123 -1.15303e-21)
(1.015 -0.0229448 9.36568e-23)
(1.20822 -0.0173914 0)
(1.20731 -0.0140922 0)
(1.21102 -0.0159965 -2.70328e-20)
(1.15974 -0.0419604 -1.36786e-20)
(1.15646 -0.0408352 -9.63647e-21)
(1.15704 -0.0444183 -3.57176e-20)
(1.1106 0.0594413 -1.17477e-20)
(1.10887 0.0595174 -2.01004e-20)
(1.10994 0.0612554 -2.6525e-21)
(1.07126 0.0221151 2.39406e-21)
(1.07224 0.0215786 1.65643e-20)
(1.01398 -0.00763393 9.20204e-22)
(1.01378 -0.00786667 7.27336e-22)
(1.01432 -0.00795638 1.52646e-23)
(1.01349 -0.000718794 2.66206e-22)
(1.01356 -0.00109946 -1.18725e-21)
(-0.220315 -0.0129045 9.2345e-21)
(-0.199432 -0.0169099 5.88671e-20)
(-0.113552 -0.0200945 0)
(-0.0997287 -0.019894 0)
(1.11368 -0.349302 3.12224e-20)
(1.10473 -0.359867 5.11028e-21)
(1.11969 -0.360523 -2.46211e-20)
(1.02829 -0.0155925 2.343e-21)
(1.02733 -0.0155378 7.1889e-21)
(1.02769 -0.0149179 1.57376e-21)
(1.01444 -0.0384711 0)
(1.01546 -0.0391188 0)
(1.01446 -0.0398298 0)
(0.0898346 0.0294496 -9.18354e-21)
(0.110829 0.0339268 1.30346e-20)
(0.0855722 0.0302101 -3.64473e-21)
(1.1779 0.054151 7.62393e-21)
(1.18143 0.0532365 -2.99903e-20)
(1.18168 0.0573533 -2.33235e-22)
(0.604283 -0.197285 1.2994e-20)
(0.627347 -0.190065 -7.08501e-20)
(0.623731 -0.2198 -1.112e-20)
(1.0103 -0.0235138 1.6441e-21)
(1.00969 -0.0225565 1.20233e-21)
(1.1305 -0.148178 0)
(1.12843 -0.142199 1.75745e-20)
(1.12524 -0.147792 1.08981e-20)
(0.249556 0.0548779 2.6754e-20)
(0.210015 0.0503482 1.27962e-20)
(0.24092 0.0540052 6.70488e-21)
(1.10846 0.0172537 -2.07726e-21)
(1.10981 0.0187408 2.05334e-20)
(1.10989 0.0162065 3.5652e-20)
(1.0329 -0.0895074 0)
(1.0343 -0.0927016 -3.0557e-21)
(1.09673 -0.0646216 6.00239e-21)
(1.09789 -0.0614537 2.28607e-20)
(1.09439 -0.0627086 0)
(1.33653 -0.163437 -2.85468e-20)
(1.33157 -0.155842 -8.79967e-22)
(0.400674 0.0680995 0)
(0.345788 0.0639453 -2.46816e-20)
(1.16518 -0.0950317 0)
(1.16231 -0.0909008 -2.81782e-20)
(-0.0131614 0.0180979 -5.68499e-20)
(-0.04347 0.0174546 1.25894e-20)
(-0.0539613 0.0166865 1.27415e-20)
(0.717487 -0.115581 -2.4717e-20)
(-0.108889 -0.00754271 -1.07154e-20)
(-0.141181 -0.00610816 8.86427e-20)
(0.853197 -0.0886109 -3.55585e-20)
(0.843964 -0.0872857 4.84735e-21)
(0.848896 -0.0800621 5.62949e-21)
(1.10561 0.0199858 1.55706e-21)
(1.10381 0.0193523 5.66246e-21)
(1.10434 0.0213255 1.68325e-20)
(1.25904 -0.0907746 8.03337e-21)
(1.25327 -0.085542 0)
(0.974013 -0.0440056 -2.94183e-22)
(0.974139 -0.041971 2.31727e-21)
(0.97588 -0.0427845 -1.10662e-20)
(0.990859 -0.0107007 -6.74282e-21)
(0.990745 -0.0116126 -7.17079e-21)
(0.746314 -0.295995 -1.99864e-20)
(0.729623 -0.310627 -3.3549e-20)
(0.753022 -0.313875 4.19878e-21)
(1.20528 0.0102286 -5.24142e-22)
(1.14228 0.0129935 2.15972e-21)
(1.13861 0.0152858 2.07406e-21)
(1.00744 -0.069103 -1.78349e-21)
(1.00713 -0.0711008 -1.43888e-21)
(1.00501 -0.0699702 3.42326e-22)
(1.02084 -0.00542528 3.11784e-21)
(1.02024 -0.00550907 -6.89406e-23)
(-0.145623 -0.00753978 1.32172e-20)
(0.338901 0.0296992 -6.39446e-21)
(0.340382 0.0321276 1.59313e-21)
(0.315438 0.0259207 -1.11612e-20)
(1.13381 -0.152559 -1.8726e-20)
(1.13589 -0.147044 0)
(1.08629 0.0559138 1.46653e-20)
(1.08603 0.0567335 2.30894e-21)
(1.20913 -0.0213855 4.43535e-20)
(1.20496 -0.0192606 2.58959e-20)
(1.16288 -0.0430848 1.81847e-20)
(1.16223 -0.0395091 -1.06176e-20)
(1.19369 0.0411433 3.30353e-20)
(1.19611 0.038412 -2.06639e-21)
(1.19222 0.0376084 6.95643e-20)
(0.972454 -0.0206026 0)
(0.973154 -0.0219972 0)
(0.971363 -0.0221082 -1.21001e-20)
(0.983686 -0.00850008 0)
(0.983117 -0.00784163 -9.90758e-22)
(0.984101 -0.00760826 0)
(1.00134 -0.00642485 1.2645e-21)
(1.00125 -0.00654781 -2.35735e-21)
(1.00116 -0.00613766 -2.41106e-21)
(-0.0136206 0.0167357 1.42722e-20)
(-0.0382997 0.0137856 -3.09171e-21)
(1.10329 0.0163922 0)
(1.10306 0.0181004 -9.10444e-21)
(1.10206 0.0168381 -8.49174e-21)
(1.05897 0.002602 -9.20856e-23)
(1.05955 0.00319283 -7.92783e-21)
(1.06005 0.00233215 -8.61892e-21)
(1.00012 -0.00047991 5.91763e-22)
(1.00012 -0.00042103 -4.09643e-22)
(1.00018 -0.000572625 2.09631e-21)
(0.48504 0.0358658 -4.37247e-21)
(0.478546 0.0372518 7.31658e-21)
(0.51206 0.0395484 3.62926e-21)
(1.12411 -0.00199849 2.59583e-20)
(1.12251 -0.00509078 3.21416e-20)
(1.08909 0.0557548 -1.16429e-20)
(1.08897 0.056903 7.06748e-21)
(0.121757 0.0161505 0)
(0.102307 0.0101115 0)
(0.427076 0.0562883 3.57746e-21)
(0.398592 0.0528976 2.95301e-21)
(0.433636 0.0547071 -3.42143e-21)
(0.415505 0.056193 1.00171e-20)
(0.459956 0.0603468 7.18581e-21)
(-0.224454 0.00361049 -4.69752e-20)
(-0.192716 0.00545911 0)
(1.02939 -0.121394 6.53315e-22)
(1.02457 -0.120459 -4.13057e-22)
(0.752251 0.0710646 -8.89617e-21)
(0.764327 0.069974 -8.24177e-21)
(0.680638 0.0670104 -2.00389e-20)
(1.00088 -0.00723082 0)
(1.00076 -0.00694694 2.40397e-21)
(1.00086 -0.00687848 0)
(1.01425 -0.0073791 0)
(1.01368 -0.00725075 1.05437e-21)
(1.14165 -0.00602704 -3.41146e-20)
(1.14279 -0.00865219 -2.77569e-21)
(1.13975 -0.0083861 -3.64078e-20)
(1.00116 -0.000384658 0)
(1.00105 -0.000491906 0)
(1.00098 -0.00032407 0)
(-0.00100309 0.0210417 2.67289e-20)
(0.0275429 0.0220195 -8.35351e-22)
(1.10887 0.0862013 -4.87886e-21)
(1.11089 0.0839115 -3.20058e-20)
(1.10681 0.0855414 4.56756e-21)
(1.09041 0.0604171 2.02984e-21)
(1.0914 0.0612262 -4.66082e-21)
(1.08971 0.0616277 4.04668e-21)
(1.01451 -0.0071574 0)
(1.01479 -0.00749884 1.00717e-21)
(1.0774 0.022943 7.5332e-21)
(1.07834 0.0222538 9.11964e-21)
(1.077 0.0218782 0)
(1.08945 0.0597137 1.86966e-21)
(1.09059 0.0593127 1.30517e-20)
(1.17467 0.0561754 -3.03245e-21)
(1.17509 0.0517147 6.18388e-20)
(1.11825 -0.448345 -2.35293e-20)
(1.03194 -0.117876 0)
(1.03003 -0.113898 -2.3628e-21)
(1.03423 -0.114355 0)
(1.10678 0.0188031 -2.38386e-20)
(1.1064 0.0164004 -5.07159e-21)
(-0.293289 -0.00621792 1.32662e-20)
(-0.290599 -0.00438677 5.0626e-21)
(0.356956 0.0333216 -2.58394e-20)
(0.334128 0.0271624 -2.85528e-21)
(1.12077 0.0581352 7.55962e-21)
(1.12174 0.0601463 1.80293e-20)
(0.892406 -0.0634754 1.87234e-20)
(0.888108 -0.0594406 2.53772e-20)
(0.886936 -0.0660446 7.40211e-20)
(0.976654 -0.0231822 -1.86331e-22)
(0.976173 -0.0219755 -6.71375e-22)
(0.977596 -0.0219779 7.60017e-21)
(1.01813 -0.0156133 -9.88625e-22)
(1.01818 -0.0162534 -5.72838e-22)
(1.01889 -0.0159314 -2.81079e-21)
(1.25643 0.00459881 3.36356e-20)
(1.25209 0.00844079 -3.95484e-20)
(1.10469 0.0156685 6.76531e-24)
(1.10306 0.0145991 -9.45227e-21)
(0.0816041 0.0079667 3.1013e-22)
(0.0709331 0.00569064 5.25883e-21)
(1.0799 -0.0326612 -8.06834e-21)
(1.0821 -0.033737 1.70614e-20)
(1.00764 -0.0667985 0)
(1.00984 -0.0681507 -8.86974e-22)
(1.08439 0.0544408 9.78124e-21)
(1.08398 0.053911 -1.50227e-21)
(1.08446 0.0537166 2.21505e-20)
(1.11905 0.0578551 -3.76108e-20)
(1.11991 0.0559582 -2.61729e-20)
(1.04382 -0.00976369 2.46609e-21)
(1.04478 -0.0101445 -2.77378e-21)
(1.04392 -0.0106713 0)
(1.04058 -0.0270792 -4.33015e-21)
(1.03929 -0.0270788 -3.98594e-21)
(1.0399 -0.0260873 4.96836e-22)
(0.700537 -0.147596 5.92628e-21)
(0.721102 -0.151358 -8.72574e-21)
(0.710084 -0.16476 2.4934e-20)
(1.25969 -0.0961552 2.98982e-20)
(1.25954 -0.102403 -1.14333e-20)
(1.25385 -0.0976215 4.9846e-20)
(0.0151966 0.0260899 -6.33252e-20)
(0.0368866 0.0272922 -2.35252e-20)
(0.0519569 0.0288838 5.14911e-21)
(0.146988 0.045205 1.60849e-20)
(0.133532 0.043634 -1.97916e-20)
(0.186106 0.0482926 -1.30228e-20)
(1.09604 0.0114733 3.35516e-20)
(1.09692 0.0132666 7.38759e-21)
(0.932109 -0.698259 3.4863e-20)
(0.931374 -0.753272 -1.10173e-20)
(0.983116 -0.751676 4.43309e-20)
(-0.0165142 0.0245021 2.57543e-20)
(-0.00152841 0.0255893 -1.19575e-21)
(0.936745 -0.0200548 1.53907e-20)
(0.939199 -0.01896 -7.50749e-21)
(0.936598 -0.0170254 -1.14183e-20)
(1.09671 0.0267068 -4.68613e-21)
(1.09762 0.0257573 1.44071e-20)
(1.09611 0.0258106 1.03833e-20)
(0.313898 0.046822 1.68436e-20)
(0.335182 0.050705 8.603e-21)
(0.301582 0.0458823 3.59247e-21)
(1.07421 -0.0428446 0)
(1.07539 -0.0441102 0)
(1.07312 -0.0444718 0)
(1.08296 0.0525369 -2.69752e-21)
(1.08271 0.0523398 -1.37918e-20)
(1.08266 0.0527836 0)
(1.01369 -0.0381372 0)
(1.01438 -0.037663 0)
(1.26432 -0.0948954 -4.24318e-20)
(1.00009 -0.00191826 -2.63086e-21)
(1.00013 -0.00224375 1.9079e-22)
(1.00011 -0.00230117 3.23624e-21)
(1.12917 -0.0745998 -4.81744e-22)
(1.13095 -0.0718853 -2.42346e-20)
(1.13239 -0.0762587 3.01636e-20)
(1.02239 -0.0785024 -3.41084e-22)
(1.02482 -0.0788756 -8.87864e-23)
(1.02338 -0.0810715 2.81372e-22)
(0.981541 -0.016114 -9.4507e-23)
(0.982225 -0.0169108 -8.18853e-21)
(1.14419 0.0667365 -1.43529e-20)
(1.14336 0.068918 0)
(1.14577 0.0682432 3.91603e-21)
(1.04402 -0.0191807 2.63004e-21)
(1.04298 -0.0185506 -4.27897e-21)
(1.0442 -0.0180394 -7.62388e-22)
(0.179299 -0.540139 2.28202e-20)
(0.134488 -0.585649 0)
(1.01426 -0.00675082 7.34482e-22)
(1.01484 -0.00692703 0)
(1.1376 0.0536691 5.57763e-21)
(1.13988 0.0526838 -1.44528e-20)
(1.13744 0.0512516 -1.80747e-20)
(0.0733091 0.0112356 -3.95439e-21)
(0.0561924 0.00692612 -1.95039e-20)
(-0.0292947 0.0163606 2.30193e-20)
(-0.0373191 0.0174352 -3.24897e-20)
(0.00649279 0.0187835 -4.87009e-20)
(0.898411 -0.0723328 1.8957e-20)
(0.903639 -0.070886 1.39757e-20)
(0.902008 -0.0766516 -1.01954e-21)
(1.0957 0.0276873 -1.38569e-20)
(1.09717 0.0277098 -1.36352e-20)
(1.00005 -0.00126986 4.75906e-21)
(1.00002 -0.000950852 -2.51026e-22)
(1.00002 -0.000963665 -6.12559e-22)
(0.756287 -0.282059 2.04539e-20)
(0.736418 -0.276071 4.77643e-20)
(1.00131 -0.0128828 -1.03853e-21)
(1.00134 -0.0122968 -8.81932e-23)
(1.00164 -0.0127576 5.69073e-22)
(1.1256 -0.0736305 -1.78999e-20)
(0.0163546 -0.0451052 9.06616e-20)
(-0.0592977 -0.0381964 -1.38733e-20)
(-0.03342 -0.040942 2.14678e-19)
(0.895486 -0.0685459 -4.75541e-21)
(0.897316 -0.0622044 -5.35527e-20)
(1.07268 -0.0411216 0)
(1.07511 -0.0406416 0)
(0.996536 -0.000455728 -1.31575e-22)
(0.996165 -0.000681522 2.39783e-22)
(0.113234 0.0421653 5.99925e-21)
(0.155428 0.044786 2.26025e-20)
(1.02098 -0.0117846 1.52259e-21)
(1.02059 -0.0111492 -2.23715e-21)
(0.910732 -0.419254 0)
(1.03391 -0.491089 0)
(0.125333 0.0418356 -8.60106e-21)
(0.114266 0.0397719 -8.55408e-21)
(0.161589 0.0440315 1.73509e-20)
(1.20181 -0.184842 8.20394e-22)
(1.20629 -0.177989 -3.97772e-20)
(1.00011 -0.000535381 0)
(1.00007 -0.000384542 0)
(1.274 -0.314588 0)
(1.29658 -0.311539 -3.54619e-21)
(1.30456 -0.327118 2.61254e-20)
(-0.00888827 0.0114444 4.36887e-21)
(-0.000166567 0.0114877 -1.3943e-21)
(0.0149565 0.0173765 -3.70483e-20)
(0.584332 0.0536669 5.04596e-21)
(0.55214 0.0497288 -3.77002e-21)
(1.08312 0.0524453 -2.75034e-21)
(1.1027 -0.0106015 5.4304e-21)
(1.1031 -0.012881 -4.45273e-20)
(1.10067 -0.0114825 -1.71861e-20)
(0.719803 -0.345162 -1.35848e-20)
(0.712949 -0.325777 0)
(0.695048 -0.34075 -3.17454e-20)
(1.14276 0.0652224 -1.52545e-20)
(1.14511 0.0644554 8.8748e-22)
(1.07767 0.0240223 7.04897e-21)
(1.07637 0.0236032 -4.73101e-21)
(1.09607 -0.410036 3.64244e-20)
(1.07901 -0.406821 -1.77071e-21)
(1.04716 -0.130437 -4.30752e-21)
(1.04248 -0.130452 -6.67064e-22)
(1.04496 -0.126547 -1.0191e-21)
(0.244287 0.00955592 0)
(0.225079 0.00732259 -1.49811e-21)
(0.226058 0.00620591 -3.75425e-21)
(1.16648 0.035007 -7.06916e-21)
(1.16401 0.0375224 9.56252e-20)
(1.16357 0.0332931 1.37257e-20)
(1.00975 -0.000546616 8.10654e-23)
(1.01031 -0.00077726 -8.56291e-22)
(1.00986 -0.00116976 1.2627e-21)
(1.08018 -0.0128662 -9.73694e-21)
(1.07836 -0.0126304 0)
(1.07897 -0.0143273 -1.12049e-20)
(1.08417 0.0550852 -1.5318e-20)
(0.485919 0.03473 -1.00129e-20)
(0.460847 0.0341823 -1.67527e-20)
(0.360579 0.00779172 3.88055e-21)
(0.379582 0.0105751 4.00438e-21)
(0.368278 0.00788202 -1.18359e-20)
(1.01751 -0.0152882 0)
(1.01812 -0.0150911 0)
(0.585498 -0.211026 1.57513e-20)
(0.992248 -0.0119214 -4.18964e-21)
(0.992685 -0.0122979 7.08145e-21)
(0.992802 -0.0115371 7.26288e-21)
(1.12191 0.0700759 1.02585e-20)
(1.12399 0.0698248 -1.64543e-20)
(1.1227 0.0680507 -1.03518e-20)
(1.18398 0.050424 0)
(1.1867 0.0482299 0)
(1.18232 0.0475669 0)
(1.08153 -0.0134331 -6.37631e-21)
(1.08102 -0.0120834 -9.91513e-22)
(1.12291 -0.000354807 6.77384e-21)
(1.12496 0.000721004 1.18744e-20)
(1.16913 0.0335706 -4.44758e-20)
(1.16914 0.0376397 -3.42858e-20)
(0.998782 -0.0238774 -4.18211e-21)
(0.999452 -0.0246025 2.12979e-21)
(0.999419 -0.0234052 -4.58482e-21)
(0.810794 -0.129195 7.55143e-20)
(0.799096 -0.124816 4.41918e-20)
(1.09158 0.0543192 -1.18475e-20)
(1.09058 0.0548924 -8.23363e-21)
(1.09075 0.0536712 1.60798e-21)
(1.17548 0.0868513 2.82376e-21)
(1.17605 0.0867985 1.37909e-21)
(1.18147 0.0854603 3.81467e-20)
(0.997606 -0.00809148 8.2558e-22)
(0.997901 -0.00785686 -3.41497e-21)
(0.997692 -0.00755265 5.56556e-22)
(0.982111 -0.0152218 1.29442e-20)
(0.980777 -0.0154023 1.2601e-20)
(0.893344 -0.0739674 -3.85383e-21)
(0.395279 0.0631993 0)
(0.406882 0.0635591 4.2152e-21)
(0.440678 0.0681578 -8.24049e-21)
(-0.246822 -0.0092434 7.30684e-21)
(-0.275078 -0.0068309 3.67562e-20)
(-0.249725 -0.0100044 7.32816e-20)
(1.11334 0.012066 6.18509e-21)
(1.11253 0.010713 2.63887e-20)
(1.11446 0.0106515 1.89802e-20)
(1.02914 -0.0156649 -1.5212e-21)
(1.0288 -0.0163341 -2.61092e-21)
(1.17244 0.05764 -1.79501e-20)
(1.17572 0.0597427 -1.14954e-20)
(1.19134 0.0436378 -1.20266e-21)
(1.18891 0.0460963 0)
(1.18743 0.0428107 -1.62902e-20)
(1.11455 0.0559806 0)
(1.11241 0.0561653 -1.36523e-20)
(1.11319 0.0543721 0)
(1.12178 0.00194695 9.18972e-21)
(1.1205 -0.000840895 -5.73071e-22)
(0.384175 0.0611142 9.73256e-21)
(0.357255 0.0559041 1.07411e-20)
(-0.128898 0.00719231 -4.46256e-20)
(-0.125645 0.00653744 -1.58881e-20)
(-0.159736 0.00361601 -8.32499e-20)
(1.08377 -0.0200743 0)
(1.08416 -0.0216751 0)
(1.08555 -0.0200443 0)
(1.09312 0.00846125 5.55189e-21)
(1.09451 0.00889532 -8.36165e-21)
(1.09292 0.00986825 -2.32656e-21)
(1.234 -0.179832 2.53759e-20)
(1.20542 -0.168874 6.09566e-21)
(1.06884 -0.143017 8.4791e-20)
(1.01953 -0.020233 1.34706e-21)
(1.01999 -0.0210374 -5.95217e-22)
(1.01885 -0.0205954 -2.9071e-22)
(1.0014 -0.00625203 -2.14042e-22)
(1.00146 -0.00609692 -5.23964e-24)
(1.00128 -0.00585346 -2.38068e-21)
(1.11629 0.0560258 3.85578e-20)
(1.11525 0.057859 -3.11182e-20)
(1.14664 -0.113033 1.91172e-20)
(1.14457 -0.108758 1.7924e-21)
(1.14158 -0.112823 2.40834e-20)
(1.0217 -0.0118291 2.11671e-21)
(1.02232 -0.0119124 -5.74466e-22)
(1.02189 -0.0113884 2.20421e-21)
(1.00018 -0.00224051 -9.12734e-22)
(1.00014 -0.00223974 1.88647e-22)
(1.0001 -0.0019096 -2.32302e-21)
(1.00127 -0.0133033 1.09113e-21)
(1.00104 -0.0128607 1.94957e-21)
(1.00399 -0.000682038 0)
(1.00428 -0.000705325 0)
(1.00399 -0.000406594 6.69879e-22)
(1.09768 -0.0037428 -2.86438e-20)
(1.09965 -0.00377602 -1.13534e-20)
(1.09876 -0.00192649 5.95526e-21)
(1.00152 -0.00669293 6.16998e-21)
(0.324022 0.0470489 -3.7506e-21)
(0.356172 0.0513162 -1.77937e-20)
(1.11354 0.00728122 0)
(1.11169 0.00877505 0)
(1.01127 -0.0310785 -5.18426e-22)
(1.0105 -0.0310529 -6.74375e-22)
(1.01115 -0.0318511 -1.08954e-22)
(0.470988 0.0311528 0)
(0.0882204 0.0290841 -1.83e-21)
(0.0698797 0.0265975 -4.48243e-21)
(0.973968 -0.0166924 -7.99259e-21)
(0.974476 -0.0180252 -6.9759e-22)
(0.975438 -0.0168789 5.77777e-22)
(1.1377 0.0562671 1.76242e-20)
(-0.194034 0.00429369 -8.5267e-21)
(-0.228418 0.00205776 -1.57434e-20)
(-0.191957 0.00375117 -2.36282e-20)
(0.972219 -0.0452222 1.25829e-20)
(0.974432 -0.046001 -1.18297e-20)
(0.973234 -0.0153494 4.65126e-21)
(0.972096 -0.0168506 -8.87912e-21)
(1.1154 0.00666827 1.54344e-20)
(1.11529 0.00900761 -7.46956e-21)
(0.0530874 0.00895058 1.34243e-21)
(0.0478057 0.00972683 8.39435e-23)
(0.0714955 0.0140885 1.57134e-20)
(0.283381 -0.00846278 -6.9422e-21)
(0.209368 -0.00510876 7.35036e-20)
(0.270307 -0.0106346 1.24025e-19)
(1.14092 0.00549213 -1.15502e-20)
(1.14379 0.00542686 5.0139e-21)
(1.1419 0.00324078 2.44792e-20)
(1.00235 -0.000503901 1.28266e-22)
(1.00224 -0.000717724 1.83956e-21)
(0.747548 0.0722033 2.85283e-20)
(0.824181 0.0735991 1.92424e-20)
(1.00088 -0.0075931 -2.33432e-21)
(1.14653 0.00540394 -7.34193e-21)
(1.14799 0.0028432 -8.31441e-21)
(1.14977 0.00568354 -4.50432e-20)
(-0.198988 0.0044598 6.65012e-20)
(-0.167878 0.00801517 6.64562e-20)
(1.1735 0.0881285 5.27196e-21)
(1.1757 0.0876091 -3.85402e-20)
(1.17561 0.0860702 4.6506e-21)
(1.05832 0.00164983 1.05777e-20)
(1.05776 0.00253031 0)
(1.25338 -0.195065 0)
(1.30905 -0.206921 -6.31065e-20)
(1.33266 -0.170061 -9.09981e-20)
(1.3072 -0.163092 -5.26196e-20)
(1.3048 -0.169978 -9.31875e-21)
(-0.11538 -0.00434131 -2.54644e-23)
(-0.105389 -0.00324669 0)
(-0.0740562 -0.00512732 4.24562e-20)
(1.21003 -0.0247047 7.89884e-21)
(1.20708 -0.0269707 -6.74175e-20)
(1.21103 -0.0283233 -3.60938e-20)
(0.784767 -0.0985345 2.04231e-20)
(0.78508 -0.0870965 4.28728e-20)
(0.772778 -0.0917437 1.39522e-20)
(0.0161124 0.0194067 -6.91183e-20)
(0.028038 0.0202515 -5.57099e-20)
(0.13312 0.0389631 5.51564e-21)
(0.155779 0.042595 -2.61282e-20)
(0.126336 0.0382661 -9.58396e-21)
(1.19195 0.0827757 0)
(1.16369 0.082448 1.41705e-20)
(1.04184 -0.0271721 -3.65927e-21)
(1.04118 -0.0283062 -1.41699e-21)
(-0.270853 -0.00446575 6.00205e-20)
(-0.246686 -0.00602087 -5.3605e-20)
(-0.237294 -0.00531911 0)
(0.216791 0.00129806 9.59535e-21)
(0.219695 0.000793366 0)
(0.479383 -0.451608 2.31839e-20)
(0.446357 -0.424936 1.25851e-20)
(0.44788 -0.472852 7.46341e-20)
(0.508449 -0.431029 -8.07338e-20)
(0.518297 -0.472991 -6.24398e-20)
(0.934745 -0.021394 1.63818e-20)
(0.936162 -0.022522 2.30327e-20)
(1.14496 -0.00158184 -2.18372e-21)
(1.14336 -0.00373181 -4.91532e-20)
(1.14641 -0.0038217 -1.84887e-20)
(0.94437 -0.115673 -1.68442e-20)
(0.947704 -0.111187 -7.19197e-21)
(0.950318 -0.116894 -1.36714e-21)
(0.317009 0.0104529 -4.68762e-21)
(0.296477 0.00608277 -6.63007e-21)
(0.791109 -0.145842 2.55014e-20)
(0.789324 -0.13264 -2.29876e-20)
(0.776064 -0.141821 0)
(1.00781 -0.00169194 -1.45036e-22)
(1.00778 -0.0020121 -2.07335e-22)
(1.00815 -0.0018871 -1.56567e-22)
(1.01897 -6.84462e-05 3.56121e-21)
(1.01887 -5.58734e-05 -4.73826e-22)
(1.0671 -0.0775937 -1.33251e-20)
(1.07002 -0.078157 -2.83811e-20)
(1.0675 -0.080234 4.198e-21)
(-0.150017 -0.00709659 -5.55688e-20)
(-0.126415 -0.00546081 8.43326e-20)
(0.245645 -0.569111 4.00539e-20)
(1.02012 -0.0198692 9.15532e-22)
(1.0191 -0.0195613 0)
(-0.0612505 0.0163846 4.36222e-20)
(0.93351 -0.112813 4.00091e-21)
(0.939423 -0.114664 -1.82683e-20)
(0.937102 -0.108754 -3.83127e-21)
(1.09584 -0.0670634 6.57377e-21)
(1.09895 -0.0657487 -1.05505e-20)
(1.0604 0.00382588 -1.54809e-20)
(1.05937 0.00400489 -8.21788e-21)
(0.0543418 0.00757962 -1.19668e-21)
(0.0336203 0.00678467 1.17212e-20)
(1.16922 0.059307 3.01471e-20)
(1.17002 0.0553912 -8.58695e-21)
(1.0835 0.0541842 -1.18283e-20)
(1.02146 -0.0756051 -9.51621e-22)
(1.01969 -0.0775205 -4.32557e-22)
(1.07125 -0.0398507 -2.02006e-21)
(1.07052 -0.0416071 0)
(0.559434 0.0355467 -4.52865e-21)
(0.56416 0.0347394 -1.18617e-20)
(0.538215 0.0329171 -1.1128e-20)
(0.97587 -0.0245941 -8.75814e-21)
(0.977449 -0.0243989 -2.53961e-20)
(1.19582 0.04457 -5.41486e-23)
(1.08192 -0.0198019 0)
(1.08336 -0.0181014 0)
(1.11553 0.00461262 -2.42154e-20)
(1.11748 0.00649702 2.954e-20)
(0.930722 -0.117871 2.87379e-21)
(0.927373 -0.111544 -3.89392e-22)
(0.991691 -0.0123409 -1.09245e-20)
(1.01243 -0.0312884 7.49674e-23)
(1.01163 -0.0302271 -7.89412e-22)
(1.21999 -0.0810955 -4.10317e-21)
(1.22108 -0.0858028 -6.66632e-20)
(1.22566 -0.0806525 -3.26882e-20)
(1.22526 -0.18605 0)
(1.22117 -0.178946 -4.59725e-20)
(1.16212 0.0391878 1.64925e-20)
(1.15974 0.0409089 -4.25727e-20)
(1.15959 0.0372418 -9.3407e-20)
(1.33951 -0.17279 -4.30518e-20)
(0.551136 0.0352951 1.06496e-20)
(0.581203 0.0374258 1.62737e-20)
(1.00901 -0.0722235 0)
(1.00687 -0.0732514 3.13168e-21)