/*--------------------------------*- C++ -*----------------------------------*\
| =========                 |                                                 |
| \\      /  F ield         | OpenFOAM: The Open Source CFD Toolbox           |
|  \\    /   O peration     | Version:  v2012                                 |
|   \\  /    A nd           | Website:  www.openfoam.com                      |
|    \\/     M anipulation  |                                                 |
\*---------------------------------------------------------------------------*/
FoamFile
{
    version     2.0;
    format      ascii;
    class       volScalarField;
    location    "250";
    object      omega;
}
// * * * * * * * * * * * * * * * * * * * * * * * * * * * * * * * * * * * * * //

dimensions      [0 0 -1 0 0 0 0];


internalField   nonuniform List<scalar> 
13851
(
0.147553
0.0246216
0.0244905
4.65149
0.0220828
0.0267613
0.0245115
0.021852
3.77663
0.0220449
0.0706054
0.0220816
0.0221239
5.51094
0.0393849
0.148689
7.47238
0.0219807
0.379236
0.147709
0.0447849
0.0265849
23.0033
0.0222638
7.97323
0.0713632
0.526881
5.4811
3.63849
0.0217803
4.33335
0.0245179
0.14529
4.54635
0.0470068
3.62616
0.022274
10.5675
4.25811
0.0221103
4.29292
3.759
18.8686
0.706893
3.94572
0.0219044
0.0215775
0.14342
0.0236759
0.0221171
7.79705
0.0221741
0.148498
0.0322724
5.38212
0.0221081
0.147441
4.18057
0.616492
6.29285
0.022089
0.234861
0.0220971
0.0238263
0.238369
0.255163
8.72721
0.0683929
0.0221683
4.36035
4.05361
0.0541111
0.0220375
7.5932
0.0342521
0.0239194
6.0491
0.0216797
7.71937
0.0219616
0.0221881
0.449405
0.0461828
5.30063
5.98535
4.18963
0.0268107
7.05556
0.0220363
4.35796
0.0222107
0.0246285
23.6522
4.10778
4.00216
0.410589
0.021934
0.152886
7.53952
0.205288
0.158171
0.0436177
0.0474358
0.0220846
0.0218926
0.0519873
0.0218939
4.07989
0.0246263
0.0219516
0.0317034
0.021903
0.188261
0.0683917
0.142038
0.0312756
0.0217845
0.0218084
4.82709
4.55086
0.254925
0.0218395
0.0221501
3.91914
0.302958
0.127792
0.0219326
0.0604833
4.13189
0.0506178
0.026512
0.0330226
8.06163
4.46182
0.0722241
3.99996
0.0660983
4.12757
0.0363851
0.0501611
0.409481
0.022659
0.0220362
0.111993
7.12541
0.0236329
0.0216722
4.12732
3.62567
0.0631892
0.157509
0.1801
0.0733546
0.29894
0.0222829
0.0220574
0.0221035
4.12722
0.0461542
0.0238163
0.022243
3.63323
0.0510791
0.143749
5.36077
3.98314
4.05729
6.39684
0.0312495
5.95295
0.0221041
0.0217876
0.0638777
0.0221393
4.06292
0.586531
0.17144
0.0217741
0.0341969
0.167684
0.284998
0.659317
0.0303899
0.0501706
20.5701
3.6029
0.144995
0.0296516
0.0222168
0.0218365
7.00354
0.0460954
7.72981
0.0268558
0.0234784
0.150624
0.140829
0.0222
0.0222633
0.0730204
0.414462
4.03532
4.16825
0.0394715
2.98972
3.98164
0.0237087
0.0493141
3.81597
0.0260595
0.147542
0.0221334
0.440225
0.0222351
0.0480903
0.0247441
0.0220963
0.256903
0.0222714
3.82448
0.021772
0.147704
6.77756
4.02064
0.0292885
0.0499283
0.0222641
0.0968352
0.0220176
0.0472813
6.66981
0.029184
0.0260468
0.0221178
4.10013
0.0217749
18.7654
4.12489
0.178148
0.0222513
1.52832
5.60345
4.02924
0.146659
0.0351054
0.150453
0.226385
0.034299
0.382503
0.033737
6.33851
0.152654
0.0218535
0.0266825
0.154266
3.57571
4.81288
0.0218324
0.134361
0.0220335
0.210031
0.297315
0.0271268
0.0517681
0.156205
0.0219959
0.045272
0.121848
4.90503
0.0220837
0.0220934
0.0293858
4.23112
6.5126
0.0501456
0.0218601
0.291956
0.297427
0.127569
0.0511181
4.12254
7.90077
0.0276299
0.0356383
10.9998
0.0218839
0.0221028
0.131037
0.0612768
0.0217729
0.0222323
0.0220097
0.0220011
0.0349066
0.0220962
3.83256
0.0470828
0.0219998
3.55791
3.97927
0.0222006
0.149481
8.04031
0.0227904
0.0222241
0.0492337
5.94277
6.40969
0.0704554
0.022073
5.93478
0.0220965
0.0767663
6.3537
4.78725
0.0237
10.7389
2.90829
4.10228
0.177472
0.0459653
4.11465
3.89141
5.43466
0.0223431
5.27083
23.1763
0.840055
0.759536
0.0237259
0.0697124
0.0300463
6.31101
0.0501895
0.0218766
0.0215208
0.0283197
4.04285
3.22939
0.0218749
3.98117
0.0302958
0.0333376
0.0239806
7.50364
0.281548
0.151273
0.0244558
0.0254687
3.55156
0.0222265
0.307231
0.0275093
0.049157
0.0307304
0.0220327
0.0219972
0.176304
0.226883
0.153015
5.6547
3.61019
0.0237171
4.06294
0.270058
0.0217277
4.81619
0.0998246
6.24707
0.0276908
0.0755163
0.227712
8.67283
0.167586
5.45086
0.0227851
0.748272
14.8896
0.0317928
4.97785
0.034854
4.23886
0.0350807
0.0426039
0.153114
0.309569
0.0220578
0.0271071
0.066113
0.0343986
0.0219259
0.0505834
5.204
0.0220341
0.049535
5.6033
0.0244439
5.7598
0.0474387
6.85292
0.0266566
0.0672639
2.3456
0.300358
0.0511443
5.75095
7.53231
1.2983
0.0219995
0.170913
0.0350477
0.0747642
0.021854
19.8974
5.28106
8.4507
0.0254115
0.156298
0.271819
6.17564
0.0216049
6.8761
0.354921
23.2776
0.034841
6.11236
0.0220471
0.022127
6.52423
0.324653
0.0220432
0.0246703
0.0504901
0.0218219
5.37061
0.0700678
0.0976553
0.0263762
0.0228018
0.0221906
8.10201
0.0219974
0.0221691
4.06157
5.24867
0.0260404
0.234125
0.0221038
0.0220949
0.0248339
0.154903
0.0468521
0.0219357
0.0230654
0.239546
0.0236101
7.57406
0.0220766
0.0283239
4.01137
0.0361431
0.0215817
0.0221216
0.0262992
0.0223556
1.27892
4.18608
0.0354518
7.55007
0.0248847
0.0220582
4.08353
0.259192
0.0356261
0.0220536
3.87438
0.0348212
8.29907
0.0220865
0.0333417
0.173234
0.0365163
3.94793
0.332499
8.36346
0.0239111
0.184726
0.0219927
3.58131
0.0473974
0.140764
0.034831
0.0242127
0.0361939
0.0644164
0.0220945
6.51055
3.99861
7.99218
5.7909
4.18515
4.68958
0.304072
0.02828
0.022208
9.96732
0.0220475
0.0219246
0.0304014
4.11352
0.0243925
0.0226556
0.095089
0.050991
0.0220488
7.25071
0.0219382
4.24253
1.15649
0.0219582
0.0236961
0.368269
5.00748
0.0217793
10.2561
15.0697
0.0217047
4.11356
0.372651
0.146967
0.0238807
4.04278
6.33769
0.0217221
0.392773
0.0221565
0.0219389
3.69195
4.27823
0.0415395
0.0459741
0.0220481
0.0608181
4.22612
4.08192
0.0218301
5.99077
0.0219321
0.0221761
0.0516984
0.028288
0.0215983
0.0239346
4.16047
0.289253
4.05301
0.0240055
0.0220302
4.27409
0.02218
0.172886
0.0283205
0.0343704
0.0349616
4.23867
6.41304
0.0266604
6.94879
0.0234579
0.0697133
3.82148
4.3347
0.0221432
0.021998
0.0476594
4.06617
0.244844
0.0598013
13.7392
0.0284394
0.0339886
8.64735
7.2956
0.172957
4.16055
0.199861
3.73081
0.0225626
0.638605
5.91909
0.0220789
18.0898
5.93232
0.0312416
0.0501499
0.0220872
6.77606
0.0822875
16.1809
0.0219976
0.0221659
0.0266126
0.0502759
0.0220862
4.04326
0.0221602
0.189968
0.0239684
0.076236
0.0220794
0.0220488
0.0482591
6.35936
0.0510289
3.97759
0.0333349
0.0218315
0.0217875
0.0643599
0.0230607
0.109062
0.0248905
0.0350244
0.509046
0.0221818
5.74405
0.0222539
0.101682
5.97443
4.0862
0.0282397
16.7853
0.0918306
0.30813
5.75554
0.0218992
7.05094
0.030291
0.0329821
5.53746
5.35732
0.0217393
0.105973
0.0221752
3.61506
6.92594
0.0222723
0.0735884
5.47568
0.0222636
0.0222525
0.0722957
7.07705
3.8555
0.0222309
0.1535
0.0233776
0.0220481
0.492794
0.156151
0.190371
0.0215858
0.122435
0.0474074
0.0626486
0.0226731
0.0233098
0.0772676
0.0264666
0.132619
0.0540628
0.0540475
0.141187
3.43348
0.385133
4.85403
10.1257
0.149882
4.25749
0.0409283
3.79489
0.150946
0.0219372
0.0332322
0.320489
0.027504
0.0219637
0.0219595
0.102151
6.15434
0.0285201
4.03456
0.0218355
3.97905
0.15981
8.56696
0.105662
0.0268172
0.024483
7.09874
0.189041
0.0393128
0.308711
0.0226402
7.76296
0.102749
0.194779
0.0342284
0.637066
0.0220448
0.0222456
0.0234211
0.0220473
3.80986
0.0220008
0.392106
4.15887
0.108493
4.11551
6.71728
0.200214
0.334544
0.0285855
0.0221801
0.0220772
0.0216884
0.0217877
0.0221414
0.0703413
0.180464
0.0511457
5.28707
0.0232425
3.77136
0.0222935
4.57593
0.0433278
0.0222836
0.0221331
4.0795
0.0269554
4.19568
5.93557
0.0479444
0.0727999
0.021686
4.43503
0.0245298
0.0244274
0.566983
0.0221836
0.0226666
0.0218844
0.0475523
5.78106
0.0304131
0.0346182
0.393569
4.01068
0.0292056
0.0271559
3.81656
0.0216852
3.74688
0.0222022
0.0236246
7.47702
0.0868205
0.140978
0.0997768
0.0513722
0.0222275
0.0222936
0.0751976
0.0226204
0.0222349
0.0290914
0.373878
0.0219853
0.282347
4.22069
3.93912
0.098384
4.95229
0.0369117
0.0221757
0.165112
0.0218489
0.0271596
4.82096
3.59414
7.08468
3.95067
0.0223534
0.0222386
0.0725546
0.0231334
0.0218557
23.4485
0.213666
4.77936
0.102964
0.0885086
0.0220501
0.0217862
7.40579
0.098225
0.0239802
0.022253
0.140438
0.214132
4.08087
0.0222683
0.0221521
7.04609
0.0226491
0.0349222
0.0218263
4.1539
0.0219267
5.38309
0.0220754
0.158394
0.0418652
0.0726547
0.0345093
0.0220371
0.0246896
0.0220229
0.304998
0.0226646
3.9389
0.0227187
4.77618
4.14548
0.0324564
0.0220043
4.94208
4.26412
0.0272026
0.0863265
0.0220772
6.66214
0.02196
0.322883
0.0220663
0.0220197
4.07999
0.0351708
0.0221117
0.0326628
4.09943
5.43787
5.44182
0.0218352
4.02842
0.0220768
0.0219924
0.0222818
0.0214875
0.0222339
5.50924
4.92928
0.0222815
0.0221563
0.0419361
0.0219035
4.6858
0.169075
4.87569
4.16731
0.0246454
0.132787
0.0220719
0.0448074
0.125971
0.021881
0.0222105
1.95973
6.81987
0.0714562
16.3995
0.0661201
0.0221013
0.0439974
0.0877998
7.49319
0.0334847
2.98872
0.10059
0.0222241
13.7995
12.3136
4.47467
6.90365
3.61942
0.0238622
0.145428
0.0221702
3.12783
0.0269495
0.0218786
5.40494
0.0231215
0.0220052
0.0221436
0.0229612
4.06786
0.309521
0.0218775
0.04468
5.70185
0.0233197
15.8842
0.0232636
0.0836459
4.21079
0.0220991
0.223582
0.0304675
0.0340329
6.07339
0.0231084
0.422828
0.0664256
4.25346
0.022256
4.5257
0.0314719
4.24549
7.82842
5.8398
0.0478874
0.0220517
0.0223599
0.0222635
0.0405024
0.022124
3.99978
0.0295164
0.0280898
0.0289324
0.023798
0.0218325
0.0272284
0.0280825
0.0236996
0.0276254
5.30279
0.259469
0.0306337
0.0524537
5.50443
0.0227065
4.05858
0.0216966
0.0336982
0.0226719
0.0219649
0.0465268
0.0220531
0.021872
0.0457242
0.022064
0.347748
0.0228768
18.9222
3.89316
0.235951
0.321532
0.0221156
4.0347
0.17149
0.0222265
0.0279637
0.0225683
4.15597
0.0232369
0.0449905
4.88511
6.35256
0.0880141
0.0221901
4.18165
4.3988
3.73163
0.0303556
0.0218222
0.0218117
0.0706424
0.0220488
7.66859
0.178252
0.0221987
0.268691
0.36044
0.0218688
5.48993
5.99011
0.207399
0.0228361
4.17268
0.0699443
0.0220232
6.19527
0.026994
0.0218532
0.0219506
0.0328286
0.0409493
3.9414
4.68154
0.0428933
4.04913
0.0348192
0.0220289
0.0854811
0.0219653
4.24846
0.0218498
0.0220469
0.0241748
0.0225779
4.15932
5.69549
0.254557
6.59956
6.68095
0.0292414
0.02204
0.0228818
0.447691
0.02183
0.021903
0.0454536
7.7327
0.211739
0.0216408
0.0404036
0.0348104
0.148832
15.9087
0.0216998
0.0215857
0.0236261
8.26979
0.0290752
4.20465
0.023288
0.0221634
0.0218565
0.0219445
0.0247152
0.200242
3.78512
3.98066
0.0289302
0.0220586
5.65022
0.022357
6.22812
4.9446
0.0307992
5.24519
3.74569
4.50335
0.0563232
0.0332204
3.83094
0.0317237
0.0341415
0.074235
0.31605
0.022576
5.35403
0.0220309
4.70023
8.34878
0.0217008
0.0239835
0.047428
0.429605
0.0350061
0.022143
0.0285485
0.0232289
0.0260724
1.26436
0.0221636
4.32167
5.81442
0.0220346
0.0320549
0.0407683
0.0220847
3.53334
15.4182
4.06693
3.52332
0.022042
0.024889
0.0270714
0.02229
0.254042
0.0353708
0.0222568
0.0651104
0.0258871
4.86634
0.0419942
7.39932
0.0231317
0.0233391
0.0516154
0.0986323
0.0764708
0.021998
17.2242
4.11466
26.0975
4.33863
4.76074
3.96221
4.4215
0.022001
0.0220311
0.0220279
0.243195
0.046312
0.0760835
6.96096
0.0221913
0.0216647
0.0220466
0.230985
0.0216619
0.0271166
0.0238228
4.09421
0.0229819
0.0218566
0.0220884
0.0219903
0.022163
0.034635
0.252685
0.0342732
5.41106
0.0220379
0.0219453
4.14689
4.31325
6.84462
3.88705
0.0487856
3.90197
0.0218174
0.063287
0.0233408
0.0220809
0.0243545
4.84046
0.0231194
0.100221
8.05748
0.0222696
0.0219524
0.0264784
0.20803
0.022272
4.08291
0.022011
0.239318
0.0221262
0.0222799
0.0272989
0.0999929
0.0221332
0.674018
4.0833
0.202069
4.53657
0.0220475
6.25748
1.45201
0.0220522
8.53328
0.0222827
0.0426876
0.0222202
0.0221137
0.0219638
0.0220465
0.0224837
0.0273353
0.0704297
0.0222572
0.0220975
0.0626151
0.0217164
7.92946
0.0221264
0.0331836
0.0345144
5.16072
5.14413
0.0221484
0.210018
0.0218208
0.0309967
0.0727833
3.70637
0.0501659
0.0222724
0.117932
0.0776814
0.0881135
1.88073
0.0360875
0.15862
0.0599021
0.0710403
0.0229492
0.0218537
3.97448
5.34757
0.0248702
0.0220195
15.215
0.0218391
0.0443029
0.0219679
0.0864505
9.07593
0.0215305
6.01653
0.0265951
0.0221709
0.167661
0.0218791
0.0411954
3.44997
0.0420025
4.01093
0.0219588
0.0222649
0.0438064
0.0222266
0.0222466
0.0283753
0.0304561
0.0710177
0.0908616
0.0221085
0.0403712
0.0218407
0.0220652
0.0222159
0.0220549
2.31007
0.0218838
0.0233005
0.235363
0.021834
0.0220082
4.30958
0.0222499
18.3123
0.0232927
4.46106
0.271965
0.052508
5.86802
0.0694913
2.11951
0.022432
0.221136
0.0275218
0.0218402
0.0219087
0.0232773
0.0319953
0.0219817
0.0563231
0.0219096
0.0233255
16.5073
7.73723
4.65138
0.0242919
0.0468821
5.10544
5.39272
0.0221741
0.0267836
2.12363
0.0222028
0.0422585
6.02425
3.99969
0.0275964
0.0447389
0.0228479
0.385362
0.0222852
0.036249
5.94042
0.0221844
0.0218666
8.09878
0.0459285
0.255983
4.61733
0.103157
0.0224379
0.0219134
0.0223165
4.59459
5.48496
5.38513
0.0595069
0.022049
4.54833
0.0221101
0.182584
0.0266459
0.0233859
0.0450216
0.0220609
5.74194
6.71195
0.0216585
0.0712006
0.0475958
5.70904
0.0468999
0.05915
0.255831
0.0345928
0.232115
0.0622541
0.0221129
0.0364598
0.0832584
4.14577
0.0220382
2.34
0.0495627
0.0622564
0.0222727
6.53661
0.026482
0.0236965
0.0218651
0.0408078
0.0395621
0.0573588
0.0221285
0.0227383
0.0594578
24.6045
0.0641365
0.0221583
0.0226441
0.0363179
0.259833
0.0221729
0.0945677
10.6096
0.0494179
4.23929
0.0404147
8.00756
0.412489
0.0220014
4.2983
0.0222385
0.0252389
0.0333402
0.0356147
0.107889
0.0478753
0.0442596
0.046406
0.0321069
0.0242767
0.021655
0.0861539
0.0257474
0.0289606
4.70333
0.0265212
0.0307711
0.0219566
4.99829
0.0874967
0.0221075
0.0248945
0.0232818
6.10012
0.173027
0.0333184
3.9529
1.36638
1.36087
0.0995626
0.221096
0.0219001
0.316826
0.0218912
0.0269064
11.094
3.51291
0.446011
2.54407
0.0221222
7.43116
0.0218968
0.0857471
0.025383
3.73852
5.40922
0.0261155
0.0220239
0.393074
0.0433267
0.0220254
4.12085
0.0220703
0.023777
0.0257344
0.0222119
0.0317077
0.0233588
0.022048
0.0355997
0.568643
0.0419086
0.0642249
0.0220216
6.61192
3.57426
0.0220056
0.244822
0.0253179
0.0293087
5.21668
0.0220023
0.0227299
0.0280758
4.23132
0.0220346
0.0221831
0.0418802
3.6703
0.0219888
0.0324681
0.0348609
4.42803
0.0485927
0.0415303
0.263973
0.0220753
0.122922
0.021716
6.86885
0.0309209
0.0220504
0.0272722
0.103334
0.022151
0.0221774
0.15353
4.07742
0.0223428
6.16097
0.0221885
0.0217055
0.06854
0.0220376
0.0218827
6.21988
0.0222739
0.0421627
0.164195
4.21233
3.49144
0.0218113
0.0240309
0.0281677
0.022076
0.0220487
0.0220974
3.22443
0.0221963
0.203747
0.125627
0.0218579
0.0217283
0.0309105
0.125523
0.239061
0.0573961
0.0653672
0.0239633
3.8304
0.0818866
0.0308378
0.0420181
0.0685113
0.0987293
17.0624
0.0388725
3.8156
4.78132
5.08781
0.0248465
0.0219809
0.039721
0.0343199
0.0218164
0.0223483
0.14121
0.0222437
0.022349
0.0220541
0.0215879
0.023578
0.0220582
6.30783
0.0220209
9.23296
0.0220835
0.0920147
0.0226146
0.128242
0.0825377
0.0220559
4.91206
0.0239794
0.0222264
0.0411956
0.0218294
0.0311011
0.021981
3.90647
0.0243586
0.0440558
0.105921
4.88771
0.0288473
0.213786
4.18338
0.053075
0.0221126
0.0230271
0.116013
0.0680919
7.14121
0.0217779
4.67533
0.0221136
0.091398
7.98579
0.0374943
3.60773
0.02551
0.0333409
0.0250091
6.45918
0.0320967
0.0221423
0.050613
0.152463
0.0235074
0.0220422
0.0221437
4.19586
0.0222527
0.0280635
4.35387
0.026279
0.0219988
0.0590191
0.0252226
4.80862
0.0216644
0.0220264
0.0218711
0.0260675
0.0224161
0.0221334
0.0662796
4.11503
0.0219828
0.0221033
5.31089
0.0222193
5.62382
0.0236906
6.07678
0.0218737
0.0244521
0.0218193
3.95601
4.57948
0.0307902
0.0734865
0.0269489
0.0219635
0.0221175
3.97313
0.0221371
0.0850397
0.0217857
0.0430295
0.0221909
5.42477
0.0218456
0.0461518
0.0218709
0.571645
1.20297
0.0218097
0.0457824
6.30876
0.070568
4.03857
3.49762
0.271034
0.0234151
0.0351155
0.101146
5.22776
0.0221478
0.0388115
0.0282367
0.0219996
4.1184
5.57486
0.0716039
0.169672
0.393979
0.0344067
4.29979
0.0218093
0.0218039
0.105754
7.21053
0.253353
0.174232
4.07163
0.0218188
6.6353
3.88311
8.78906
0.022203
5.33006
4.70698
1.29145
4.18492
3.80511
0.0880261
0.0313055
0.186525
0.0256816
0.0219904
2.86164
0.0979966
0.0216381
5.00382
0.0221896
0.0297799
0.0442165
0.0268328
5.02223
0.0351223
5.92468
0.045303
0.0261604
4.71657
4.31096
0.15031
0.0223736
0.0258393
0.0763721
0.0608112
0.0218376
0.0501161
0.0641414
0.157472
0.0219898
0.213691
0.0244939
0.0511255
4.21476
0.214573
0.0230812
0.14307
4.4194
0.0221832
0.0228576
7.93185
0.382501
0.0245839
0.0249313
0.0220931
0.0780896
0.0255956
3.75968
0.107482
0.0225368
0.0222234
0.0663483
0.0302542
1.78512
6.47003
0.0218899
0.0220372
0.0282957
0.0221952
0.0244001
0.0229813
0.0228319
0.0258413
0.0219506
0.0250205
0.0221909
0.048406
5.12436
0.0222643
5.40288
10.6299
0.0217154
0.259591
0.143898
0.0913813
0.022762
0.0974626
0.027532
0.081991
0.0304245
0.023369
0.0222095
7.00813
0.0281165
3.98219
0.0227409
0.0220409
0.0220265
0.0738437
0.0219768
0.051822
0.062709
1.81159
0.021927
0.524375
8.25449
4.02279
0.0218109
0.152917
1.05822
8.32561
5.70145
0.0225502
0.0223133
0.175584
3.75867
3.71261
0.0421421
0.230094
0.0222315
0.0218605
0.0411917
0.0221969
0.0221323
0.179367
0.0222655
0.0927078
0.0218637
4.35949
5.26426
4.86619
4.19179
4.18383
0.0221325
0.0221466
6.27944
0.0217925
0.0218209
0.0217065
0.130709
4.53162
6.50314
0.027707
0.0220994
0.0232642
0.0382033
5.62711
0.0220381
3.58242
4.44011
0.02219
0.0221783
4.04971
0.0807073
0.023315
0.0220447
5.49137
4.29711
0.0220136
0.216056
0.0222539
3.93905
3.56899
0.0234865
6.44961
6.43799
5.45837
0.0218479
0.0221475
0.0222454
0.0222862
4.39154
0.0219269
0.261991
0.217796
8.60803
0.0227363
0.0609716
1.15618
0.0508397
6.25996
4.04021
0.0216354
0.025906
0.0260993
0.142441
4.30793
0.0215743
5.55464
0.0327972
0.0441571
0.022769
0.0219501
0.327708
0.0417277
4.68116
0.0221967
0.0576864
0.0226412
0.130403
0.0243996
4.05026
4.549
0.300335
0.09648
0.021983
0.0240295
0.0904304
0.236458
4.19963
6.20695
0.02215
3.77169
0.0946316
4.44429
0.0267501
0.0453338
0.0412363
0.0221208
5.4852
0.022072
0.0335367
3.61248
4.30468
2.11374
4.38393
0.0288102
0.0508846
0.0217577
4.37418
0.0276873
6.93331
0.021745
4.88897
0.0215376
0.0220074
0.0330467
0.0315831
0.0329545
0.0219964
3.79404
0.0447844
0.02193
0.0390056
4.01623
0.674144
0.0220425
4.21833
0.0245741
0.0348967
0.0326497
0.0216954
0.0663481
0.0220011
10.6172
0.0850211
0.0270111
0.0220336
0.416348
0.0413974
0.021744
5.13582
5.74529
0.275707
0.0216427
4.09042
0.0221423
0.156959
0.0279241
0.12791
6.54401
3.93142
0.0346243
4.41121
0.05138
0.0288253
0.0218363
5.18147
0.121249
0.109793
0.0624023
0.0222435
3.73764
0.0922095
0.43831
0.238656
5.85143
3.75202
7.52194
4.81326
0.0293542
0.0318431
0.0220976
0.0221099
0.0215946
0.186844
0.0295978
0.0332284
4.26143
0.0219506
0.0218634
0.0422485
0.153079
0.0283284
0.0218197
4.06701
0.0244475
0.0477778
0.0222367
5.45559
0.0289635
5.50513
0.0577401
0.0351111
0.0544773
0.0220907
7.70537
0.893283
0.072874
0.0220634
0.0219125
6.56352
4.176
3.56318
0.0218695
0.074114
2.32452
0.0220795
0.0220104
0.0221193
4.43547
0.104097
0.0354958
0.0273762
0.0263182
4.76558
0.0941703
0.289388
0.0264889
0.0334678
0.0215802
0.135625
0.057392
0.0220235
3.93322
4.07127
4.01924
4.09916
4.43944
7.63781
6.18307
0.0231358
0.0218482
5.7786
4.94235
6.97513
0.0220904
0.0417336
0.0220489
0.0219791
3.30258
4.38728
0.0663254
0.0220085
0.461462
0.098758
0.0508419
4.3314
5.76993
0.25563
0.0219177
4.02673
2.83085
0.401302
0.0327178
0.0441914
0.0221795
0.0218843
0.0404122
0.0473495
0.0246457
0.041544
0.0283475
0.0252235
0.242413
4.10034
0.0319105
0.0434611
4.06768
0.226161
0.0221117
0.476415
1.02001
4.8457
0.0427041
0.0221755
0.0302391
0.0273114
0.0305162
0.0216938
0.0331889
0.0318633
0.0471381
0.264025
0.0222307
0.0231384
3.83164
4.02384
4.2105
1.03849
0.115663
0.0215207
0.0220473
0.0311676
0.0217495
6.04784
0.0220411
0.0222735
0.0217325
3.87645
19.6916
0.0224373
0.0649999
0.0288262
0.0360066
0.0307951
0.0352794
0.0417168
0.0387362
4.55263
0.026535
4.65208
0.0404249
4.19837
0.0300612
0.0219373
0.0218304
0.0997367
0.154368
0.021831
0.0401011
0.0302988
0.0610166
4.11168
6.15969
4.63446
0.0222733
4.26559
0.0301075
0.0375085
0.0220342
0.0721063
0.0238591
3.79685
2.18229
0.0407991
0.0220802
4.007
0.0273238
4.33036
5.07841
0.242963
0.0244737
0.137109
4.6706
3.83363
3.78759
0.0622166
0.0219734
0.041021
0.0218644
8.56953
0.0248315
0.0326409
0.434522
4.16373
0.0219376
0.021976
4.02441
0.0432133
7.53324
0.0328906
0.0220456
0.0443314
0.23911
0.0438968
3.78632
0.0369035
3.10972
0.0254208
0.0222452
0.0219612
0.311143
0.0226836
0.137034
0.022053
0.022037
0.286153
0.0263807
0.0221267
0.0220407
0.0363671
2.42538
0.0437583
0.0407001
0.0264957
0.0631365
0.0220573
0.16772
0.0313264
0.0448301
0.0704807
0.0280225
0.0899729
0.0456632
0.0218441
0.0701834
6.0692
3.42672
0.0221378
2.92378
4.24333
0.0219802
0.0226769
0.897712
4.27523
0.0279172
4.15703
0.438501
0.0220461
0.0877405
0.0215927
0.0263668
0.0636626
11.149
0.555611
0.234365
0.794085
4.02574
3.88422
0.0233892
3.77437
0.0220405
2.92509
3.95228
0.0221017
0.0220836
3.57229
0.0221215
0.0220868
0.296474
4.45591
0.248805
0.026362
4.12221
0.022104
4.14533
3.89326
0.0221904
1.33604
8.24493
4.39047
3.681
3.80544
3.78444
0.0218892
0.0232211
0.0640626
0.0673149
0.0220812
0.226993
0.022044
3.73244
0.246617
0.049907
0.252958
3.68195
0.241389
0.251058
0.0610883
7.4297
0.545881
0.0254427
0.0216374
3.33617
0.0353467
0.0217878
6.23184
0.0219905
3.56363
0.0221489
4.36763
0.025621
0.0219926
21.3338
0.0275241
0.0358136
3.83979
6.38596
2.74539
0.0279595
0.0455825
0.0233804
0.0401964
0.134079
0.0412552
0.0222097
1.73926
0.0640239
0.0337214
4.10815
0.0421542
0.0377115
0.22224
0.0771519
0.0459014
0.0219882
0.219845
0.0218298
0.132688
0.353528
4.45163
0.0218791
0.0405553
4.39671
0.0233201
0.06732
0.0314896
0.0435717
5.71595
0.0635284
0.0234613
16.002
0.0218892
3.99077
0.0221267
0.0230717
0.131057
3.61909
0.0332897
0.397124
0.642374
0.0318429
0.0222479
0.168831
0.0468548
4.19653
0.0265651
13.9916
0.152276
0.0316642
0.0301795
0.109384
0.0386891
0.0756118
0.0632542
0.0387548
0.0245333
0.0220992
2.99628
0.0220254
0.0293938
0.0216024
0.114637
0.0298156
0.0625648
3.97799
0.0230246
0.255549
0.0215108
0.0221621
0.0221899
0.022207
0.0266852
0.0219506
0.08935
7.92021
0.0618278
0.0471059
0.0251771
0.0220729
0.222052
0.022045
4.57645
5.05825
4.58076
0.152049
0.0359645
0.0274217
0.0221791
0.0300101
0.0987815
0.0440987
4.10721
0.0610711
4.49935
0.15373
0.0222104
0.0218475
3.47556
0.0219682
0.030477
0.0652852
0.398306
0.0233555
4.24751
0.0221739
0.0261584
0.0220498
0.0226615
0.171757
0.110931
0.0222655
0.0329325
0.0354325
0.0477636
0.0595207
0.553789
0.381276
0.299924
0.138073
0.0261554
0.0230772
0.0585406
3.60258
6.14243
4.03135
0.0324586
5.95637
0.108054
0.0228431
0.0220014
0.063267
0.0221456
0.0327404
5.29142
0.0219776
0.0218279
0.67478
3.35436
0.0481058
1.83295
0.0221237
5.40993
0.0436915
4.23977
0.0297041
0.0220548
4.16326
0.0602783
0.0220414
0.0752504
0.0222532
0.169414
0.029691
0.0558755
6.39638
0.033914
5.28412
0.0219426
4.62011
0.0221388
0.0265556
0.0225499
0.0480509
0.0221442
0.0569272
3.93652
1.08786
0.0513181
0.0327543
0.0789432
0.0219275
0.021972
0.0231014
3.39896
0.0255886
4.45156
4.70617
0.150442
0.0222163
0.155816
0.245305
0.157136
0.0259465
4.78857
0.0219914
0.0215267
0.0219757
8.1139
0.0221139
0.0220288
4.03503
0.0219868
0.176309
0.102793
0.0218022
4.18509
0.0282239
4.32573
0.0219556
4.34747
0.0229239
0.0722295
8.67486
0.0684315
0.0219583
0.0274473
4.73374
0.0325624
0.16074
0.0319254
0.0267944
0.151071
0.0294707
0.0222181
22.2969
0.0301194
0.0284267
0.147133
0.0219854
0.0218774
0.0221892
0.0311304
0.0221415
0.02611
5.35255
12.6589
0.104541
7.10367
0.062808
0.0347941
4.23131
4.27437
0.0224558
8.80686
9.07246
3.94671
3.75566
0.0319389
4.71593
4.13992
16.8147
4.07435
5.91975
0.0433618
0.0850331
0.02968
0.0261678
0.0221791
1.65703
0.0222852
4.64788
0.128428
0.358898
0.0215967
0.0771098
0.0465954
0.0235792
0.0222931
0.0221187
0.126564
0.0236569
0.0222791
0.04137
4.02521
0.0244472
0.166715
0.0218358
0.12883
0.0849394
0.0221757
0.0270282
0.0219531
4.40237
4.42167
0.175045
10.3952
0.0337904
0.0918949
0.0221325
0.0425103
0.0220663
0.0223629
0.0222339
4.87105
0.021791
0.0465027
0.830502
0.0283097
0.0317747
0.0220075
4.40943
0.21457
12.8288
4.58814
0.181679
0.361744
4.34939
0.401994
0.277657
8.14573
0.128982
0.0342321
5.61944
4.43258
0.0220479
4.93712
0.160963
5.27257
0.0216152
0.0653517
4.51028
0.0222733
4.49877
0.0253885
6.62856
0.0220926
0.022102
0.0703066
0.232741
0.026921
0.0665666
0.021815
0.0221752
3.74044
5.51237
6.37132
0.0553519
0.0221989
0.0224486
0.0221372
0.0366803
1.1844
4.44552
4.628
5.85892
0.033099
0.0219553
0.0219849
6.08283
5.92626
0.326981
0.0264651
0.0249815
0.0847225
4.61496
5.7986
0.0215191
0.0219695
4.86346
0.0231511
0.267488
0.0280754
0.0220873
0.0329767
0.0469761
4.69732
4.44133
0.0222023
0.021828
0.0250596
0.193896
4.54324
0.0222653
0.140303
4.27449
0.0215284
3.21208
4.22662
11.2446
0.0221111
5.17494
4.75795
0.0396373
0.328425
0.0247343
0.312163
0.400157
0.0259012
0.0219572
5.9836
3.50756
0.0218646
0.151348
0.151765
0.0307011
0.303112
4.41698
5.19803
4.43686
0.0284949
0.0235597
0.0232216
4.1838
4.93501
4.67799
5.82239
4.64998
0.0217384
0.0460951
0.0220684
0.0221162
0.024966
0.0219745
0.0220617
0.0221377
4.43863
12.8944
6.69164
0.0579135
0.208902
0.0357143
0.0218719
0.0219883
4.51201
0.0221404
6.0155
3.96321
0.0221802
0.0219219
3.64982
0.0225984
0.593488
0.0262241
0.0217572
0.0217349
4.41554
0.0216887
4.0399
4.23898
0.021573
0.0485425
0.0219415
0.0230597
0.0219017
0.118954
4.21992
0.0219773
4.51741
0.491605
0.0241203
0.0219142
0.0226828
0.0237419
0.0222271
0.61173
5.32675
5.5713
0.0416853
6.1817
0.0222728
0.0262802
0.0221995
0.183849
0.0234177
4.89455
0.0218665
4.05864
0.448742
5.45086
0.16396
0.0218622
0.044911
0.0219376
4.21607
0.0219513
0.0289691
0.0268897
0.0260033
0.0221766
0.0222512
0.0327509
4.5976
0.0221943
0.0229373
0.0242159
0.0339542
0.185888
0.0221893
4.91177
3.92257
0.0240986
4.69558
4.416
3.66768
6.06215
0.0215394
0.0231231
3.94807
4.24512
0.147868
4.1025
4.44822
0.0331598
0.0510816
0.0317493
4.39839
0.0220398
0.0219676
5.46415
0.135503
4.63818
0.0251403
0.0217113
0.0220487
4.82879
0.0756717
0.0237151
0.244525
0.0218615
0.0648125
0.0313475
0.0316708
0.0220131
0.0221899
0.0219289
0.0250642
1.42738
5.28938
0.021582
0.0219388
4.09961
0.0220899
0.0644683
0.0259713
0.02553
0.0395287
0.0222858
4.29189
0.0307315
0.0252354
19.5286
0.0909406
0.0233048
0.0335193
0.0220381
0.0225326
6.5079
0.291349
3.54928
0.0223533
0.0221557
0.062841
0.0272125
0.0220349
0.0405527
4.02173
0.026136
0.0423933
0.0254943
0.130011
0.0221165
0.0217298
4.50569
5.30854
5.22483
0.0219864
0.168595
0.0216237
0.0220272
0.0719938
4.52445
0.0721956
0.0288821
0.171422
0.0229343
0.0307104
0.0512333
0.777825
0.0223685
0.021646
0.0225683
0.0238579
0.0276464
0.0219695
1.31461
9.58465
0.0221588
0.0322913
0.0224125
0.0216743
3.74627
5.65915
5.41887
0.0816076
0.0223805
0.0600451
4.3513
0.105146
0.104095
0.0341763
0.029984
4.91919
0.252937
0.846476
0.021769
0.0307131
0.0221168
0.0313244
6.32149
0.0216291
0.0412182
0.0254139
0.0303429
0.0231066
0.0218308
0.0218839
4.2275
0.0484773
0.0317562
0.0714098
0.0352733
6.7421
0.0314992
0.496027
0.0219378
4.38635
4.90838
6.56872
0.0222646
0.0331096
0.0220852
0.0219806
5.35529
0.0485528
4.41687
0.0220029
0.045311
0.143065
4.42416
0.0281103
0.021666
6.34761
0.0222853
0.0222841
0.0226373
0.0220392
5.73779
0.0218407
0.0218888
0.0367444
0.027331
0.146947
0.134644
0.0332819
4.28052
0.0220296
0.182639
0.0218211
4.33492
0.0346089
0.50034
0.153718
2.88781
0.117115
4.2382
0.0232754
5.83013
0.0327043
4.66138
0.207057
0.0279398
0.232046
0.022173
6.68286
0.0233123
0.0388087
0.0272255
7.57967
0.155415
4.01585
0.0311548
0.0220259
4.66547
0.250594
0.0592107
0.156159
7.92616
4.40638
0.039674
0.290057
0.0444046
0.0218934
0.0494284
0.274178
0.0703391
26.5533
0.125046
0.0218007
0.021996
0.143766
0.0220868
5.4662
0.0720222
0.0220856
3.88925
4.90786
3.51964
0.112373
0.0220576
0.0290545
0.0257628
4.04084
3.7991
0.0257517
4.94296
0.0219039
0.031653
1.20362
0.0220111
0.041721
0.0219386
0.0266029
0.0222513
0.167
3.42879
0.0301947
0.029528
0.0217315
0.146403
0.0219173
0.021838
0.0332167
0.0219326
0.225559
4.3444
4.50527
4.11427
0.0217992
4.63694
0.0221901
0.0371814
0.137016
0.0221136
7.40797
0.0709841
0.0220614
0.0216596
0.0436373
0.0381717
0.185034
0.24473
0.0257824
0.0240331
3.91049
0.0664938
0.313771
0.976642
14.2381
4.14479
4.45888
1.52196
0.02216
0.0221154
0.0478647
0.0222405
0.052333
0.0392142
6.07249
4.64744
6.73181
0.0217147
0.0218034
0.12352
0.559442
4.09092
1.62494
3.77103
0.0562948
0.0328472
1.4385
0.401402
0.0271168
4.27967
0.0333355
0.031502
4.20157
0.0442146
0.0220208
4.76609
1.0073
0.0250326
0.145611
0.0233935
4.10568
5.40373
6.26179
0.0220223
0.0216893
0.146661
0.0220232
0.0219741
0.0220259
0.0217396
0.0220305
0.0220363
4.31738
0.0283207
0.0467632
3.99252
0.0219088
0.0220446
0.0328503
0.02649
0.027001
0.0220521
0.0675495
0.031151
0.0264457
0.0865243
4.28079
0.0220629
0.0448924
0.0220749
0.0220391
0.0215803
0.0220872
4.04644
0.0219302
0.022036
0.0221004
0.0445372
3.97837
4.06067
4.46901
2.30361
0.0473876
4.17539
5.95146
0.0219631
0.0425766
5.75879
0.226089
0.0221145
0.0290833
0.0465747
0.0376241
0.0220641
0.0432222
0.058367
0.0444978
0.0216362
0.0550326
6.03272
0.0215809
2.69532
4.32529
0.042725
0.684762
0.0363934
0.0220923
0.0261398
0.0220261
0.240568
4.34721
0.0217001
0.0437651
0.0219871
0.0219817
0.0222189
0.0222859
0.0379069
0.0221737
0.130916
0.150898
0.0261684
0.0247291
0.0473537
0.0220506
0.0444805
0.0343989
0.0224276
0.0221044
0.0221431
4.47445
0.022029
0.2953
0.0444796
0.0222538
0.0220537
0.021784
4.57656
0.0256316
0.0427365
0.0536858
4.49978
0.028191
3.96118
3.02555
0.0431627
0.0219832
0.253565
0.0397544
5.0283
0.0723533
4.39339
0.0216686
0.0510184
0.0498295
4.15675
0.0220195
0.0476069
4.59378
0.0218732
7.47673
9.95967
4.05922
0.0219915
0.0218141
4.4807
0.0220519
4.23063
0.178322
3.98479
4.44307
0.0218861
0.21053