/*--------------------------------*- C++ -*----------------------------------*\
| =========                 |                                                 |
| \\      /  F ield         | OpenFOAM: The Open Source CFD Toolbox           |
|  \\    /   O peration     | Version:  v2012                                 |
|   \\  /    A nd           | Website:  www.openfoam.com                      |
|    \\/     M anipulation  |                                                 |
\*---------------------------------------------------------------------------*/
FoamFile
{
    version     2.0;
    format      ascii;
    class       surfaceScalarField;
    location    "950";
    object      meshPhi;
}
// * * * * * * * * * * * * * * * * * * * * * * * * * * * * * * * * * * * * * //

dimensions      [0 3 -1 0 0 0 0];
oriented        oriented;


internalField   nonuniform List<scalar> 
20580
(
-0.000379317
0.000424273
-4.49168e-05
-0.000939006
0.000415598
0.00052484
-3.45766e-05
-0.000902306
0.000209039
-0.000274066
6.5027e-05
7.47361e-05
5.59318e-05
-8.42464e-05
5.45242e-05
0.000788306
-0.000841436
-0.000590988
0.000924885
0.000146442
8.6496e-05
-0.000152493
-0.000104909
-0.00012885
0.000233759
-0.000242521
0.00134655
-0.00110057
0.000361634
-0.000618788
0.000257302
-0.000178636
-0.000730241
0.000921574
0.00108194
-0.000202036
-0.000878392
-8.08072e-05
0.000207324
-0.000126517
-0.000378772
0.00071044
-0.000331236
-0.00034028
-6.06771e-05
0.000400989
-0.000264265
0.00019939
6.48757e-05
-0.00126197
0.000388999
0.000880889
-0.000222863
-0.000145249
0.000368126
0.000115663
-0.000494936
0.000781578
-0.00030277
-0.000478396
0.000314527
0.000571493
-0.000884868
-0.000273265
0.000131189
0.000142077
5.21296e-05
1.95112e-06
-4.47503e-05
-0.000325979
7.68616e-06
0.0003183
-0.000609804
0.000372029
0.00023791
-0.000394807
0.000262734
0.000132084
-0.000123357
-0.000199694
0.000323057
-0.000285182
0.000155507
0.000129675
0.000260416
0.000924168
-0.00116233
-3.72194e-05
0.000245897
-0.000208677
0.000416557
-0.00100528
0.000387599
7.62151e-05
-0.00046377
0.000120055
0.000159329
-0.000279383
-0.000434622
-0.000142329
0.000577175
0.000274297
-0.000325093
5.07966e-05
8.28159e-09
5.62761e-05
-0.00036555
0.000216474
0.000149082
0.000217957
6.21511e-05
-0.000280107
0.00127187
-0.00101405
-0.000253229
0.000231021
-0.000291754
6.07344e-05
-0.000128335
-0.000156846
-0.000139625
-7.83617e-05
-0.000420553
0.000339576
8.09873e-05
-0.000202515
-5.95331e-05
0.000262049
0.000250253
0.000933264
-0.00117224
0.000183245
-0.000343038
-0.000133429
0.000344122
-0.000210663
0.00123964
-0.000543517
-0.000693559
5.30632e-05
0.0010298
-0.000160217
-5.77706e-05
0.000217987
0.00128561
-0.000374491
-0.000909636
0.000104482
-0.000444726
-0.000812873
0.000619964
0.000193618
0.000165776
-0.000269722
0.000103946
0.000898854
0.000376392
0.00041566
-2.8022e-05
1.52964e-05
0.000215725
-0.000408548
0.000220843
0.000187716
0.000234912
1.74129e-05
-0.000252325
0.00072985
-0.000894822
-0.000275608
-0.000119186
0.00119733
-0.00123429
3.95483e-05
0.000525485
0.00071619
0.000408464
-0.000183382
-0.000225067
0.000255064
0.000153411
2.98197e-05
0.000205092
6.82462e-05
-0.000369782
0.000440455
0.000745712
-0.001181
-0.000262154
0.000223571
3.85829e-05
-0.000151275
0.000226257
-7.49812e-05
-0.000359753
-0.000228845
0.000588851
-0.00128121
0.00085769
0.000427262
-0.000205314
0.000222727
0.000350367
-0.000761343
0.000411588
0.000439103
0.000510113
-0.000947608
-5.87722e-05
-0.000205493
-0.00135658
0.000232234
0.00116417
5.24749e-05
-0.000378446
0.000235297
-0.00129014
0.00106748
-0.000653702
0.00109909
-0.000366528
-8.39557e-06
0.000374941
-0.000769207
0.000334874
0.00020038
5.32625e-05
-0.000253642
4.14261e-05
-0.00024674
0.000171893
0.000127288
-0.00029918
0.000846459
-0.000530912
-6.24039e-05
0.000214735
-0.000152331
0.00116594
-0.00113634
-2.48286e-05
-0.000207846
0.000170627
0.000190201
0.0010962
-0.000465223
0.00088382
-0.000123243
-9.47439e-05
-7.10912e-05
0.000242984
-0.000289062
5.46505e-05
0.000234412
0.000273986
-0.000381956
0.000107983
-0.00170586
0.000698744
0.00101707
0.000254423
0.000219244
-0.000473629
-0.000133219
-8.71548e-05
0.000220374
-0.000478349
0.000249969
0.000228413
-0.000141052
0.000395507
-0.000204491
0.00056157
-0.000357034
-0.000533502
7.70547e-05
0.000456517
0.00114769
-0.00129867
0.0001535
-0.000452118
0.0011553
-0.000692138
-0.000679297
9.51468e-05
0.000584396
-0.00129306
0.000853592
5.91197e-05
-0.000210395
-0.000908425
0.000445372
-0.000303975
-0.000949577
-0.000843679
0.000312893
0.000531295
-0.00104975
0.00131229
-0.000374149
-8.43044e-06
0.00038261
0.000564176
-0.000386522
-0.00017753
-0.000277376
-0.000147751
0.000425169
-0.000554291
-0.000257722
-0.00126549
0.000538712
0.000754374
-0.000114716
0.000344275
0.000187924
2.11153e-05
-5.72072e-05
-0.000204946
-0.000427365
8.39935e-05
0.000343394
0.00137883
-0.000118075
-0.00124547
-0.000715898
-0.00023931
0.00095902
0.000206125
-0.00027121
6.50851e-05
-0.000417193
5.0049e-05
0.000367163
0.000387574
-2.80751e-05
-0.000359494
-0.000494428
-0.00120072
0.000581382
-0.00041133
-0.000169902
-0.000151484
0.000276077
-0.000124592
-0.000633132
0.000589862
4.35237e-05
-0.000312974
0.000885514
0.000802714
6.57547e-05
-0.000867842
-0.000183188
-0.000182355
-0.000167452
0.000287508
0.000528372
-0.000166613
-0.000278182
0.000130291
0.000147892
-0.000395481
-8.7134e-05
0.000214423
-0.000677202
0.000270087
0.000407206
0.000428814
-0.000735807
0.000307289
7.53127e-05
-0.000441822
0.000208966
0.000758449
-0.000965987
0.00128543
-0.000115879
-4.29547e-05
0.000332224
-0.000289254
-0.000382153
0.000205405
0.000176753
-0.00106041
0.000571881
0.000490182
-0.000115875
-0.00119968
0.000174807
-8.8467e-05
-0.000139593
0.00022806
0.000474917
0.000106568
-0.000366331
0.000225304
0.00011641
-0.000490521
0.000377225
0.000187058
0.000194992
0.000217816
-0.000412787
0.000861754
-0.00122495
0.000364462
-0.00131264
0.00112378
0.000190435
-0.000944797
0.00100303
-4.07381e-05
4.89537e-06
0.000213062
-3.1155e-05
0.000424225
-0.000392841
-0.00107369
0.000571507
0.000504223
0.000118619
-0.000108453
2.53211e-06
0.000213394
8.01276e-05
-0.000293521
-7.70079e-06
-0.000671328
-0.000432598
0.000299211
-0.000222766
0.000141959
-0.000205595
0.000247488
-4.18922e-05
9.58198e-05
-0.000301414
8.93593e-05
-0.000249576
-0.000553344
-0.000289766
-0.000159276
-0.000128483
0.000287762
9.92903e-05
0.000751786
-0.000837662
-0.00024048
-0.000987613
0.000251753
0.000339131
-0.000590714
-5.90875e-05
0.000143186
-4.84996e-05
-2.67555e-05
-0.000262306
0.000285496
-0.000394129
0.000108645
-0.000338342
-5.08355e-05
0.000389206
-0.00114742
0.000940184
0.000456353
0.00031329
-0.000769043
0.000112811
-0.000451121
1.38376e-05
-0.00043101
-0.000146554
0.00078971
-0.00028327
-0.000505855
0.000160256
-0.000793029
-7.41771e-05
-0.00014381
-0.000204041
0.000115574
-0.00032544
0.000401693
-0.000808732
0.000693608
0.000115276
-0.000780397
0.00125812
-0.000476272
-0.00151468
0.00120699
0.000325017
-0.000216588
-0.000165558
0.000575253
-0.000606072
1.68138e-05
0.00019051
-0.000772193
0.00082807
-0.000422492
-0.000636152
0.000172677
0.000297225
-0.000469864
4.41181e-06
-0.00032982
-0.00101209
0.00124509
-0.000226654
0.00130666
-0.000207306
-0.00109324
0.000528007
-0.00025387
-0.000274122
0.000274901
0.000137891
-0.000412774
0.000290847
-0.00010276
-0.000188087
0.000176346
0.000114173
-0.000290518
-0.00071534
0.000337033
-0.000249126
0.000219904
2.92243e-05
0.000233584
5.72636e-05
-0.000540399
-0.000380123
0.000920719
0.000600263
6.87501e-05
-0.000668753
0.000114648
-0.000261984
0.000147337
-0.000716642
0.000903836
-0.000186022
-0.000398817
2.94651e-06
0.000395904
0.000285105
-0.000997363
0.00035023
1.15026e-05
-0.000395873
0.000389416
-0.000614096
2.30518e-05
0.000591279
-0.000229909
-0.000603816
0.000834911
0.00113172
-0.00107766
-0.000401292
0.000202614
0.000198695
0.00124663
-0.00123603
-4.3928e-06
-6.36295e-05
-0.000141922
-0.000978983
-0.000132364
0.000293008
0.000177328
-0.000470294
-3.63527e-05
0.000236733
0.000188229
0.000101623
-0.000289851
0.000758267
-0.000235755
-0.000522332
-7.13704e-06
0.000607641
1.41641e-05
-0.000184316
0.000176718
-0.000372939
0.000330001
0.0012701
-0.000134532
-0.00112262
-0.000756137
-0.000295595
0.000234331
6.12648e-05
-0.000581613
-0.000226894
-0.000945421
0.000230312
-5.28229e-05
-0.00106283
0.000245398
-6.9051e-05
0.00134873
-0.00106375
-0.000146523
-0.00012674
0.000121872
0.000143227
-0.000265098
-0.000228403
-0.000249905
0.000120452
4.94192e-06
-0.000340802
-1.24137e-05
0.000353224
0.000201055
2.97777e-05
-0.000230833
-0.000309265
0.000106752
-0.000459457
0.000636869
0.000226214
-0.000862489
-0.000283348
-3.41513e-05
0.000317509
-0.000193601
-0.000207671
0.000759277
-0.000302345
-0.000112746
-0.000269196
0.000395332
0.000376175
-0.000771058
-0.000266378
8.78814e-05
0.000178497
0.000437734
5.80899e-05
-0.00049578
-0.000230454
9.96019e-05
0.000213642
0.000936229
-0.000760391
-0.000174513
0.000391953
-3.4784e-05
0.000248178
0.000222367
-0.000270164
4.77966e-05
-0.000544205
-0.000953247
-8.44974e-06
0.00113668
-0.00112823
-5.00857e-06
0.000216955
0.000190355
-0.000407286
0.000324463
0.000126439
-0.000450881
0.000550644
0.000386441
-0.000596836
0.00058937
1.93051e-05
0.000418467
0.00149944
-0.000401275
-0.00109309
-0.000491261
0.000286803
-6.78206e-05
0.000397778
-0.000329909
0.000241726
0.000149385
-0.000391103
0.000310344
-0.00123966
0.000937717
3.46696e-05
0.00109779
0.000176805
0.000255559
3.52616e-05
-0.00029082
-0.000210253
0.000241634
-3.13807e-05
0.00041379
-0.000631532
0.000217976
0.000413848
0.000977695
-0.000347089
0.000360944
0.000188437
0.000217193
-0.00040561
0.000323623
0.000190435
-0.000514005
9.74894e-05
-0.000694056
1.56295e-08
0.000255544
-0.000149977
-6.80097e-05
0.000217987
-0.000830997
5.61568e-05
0.000775716
-0.00078338
0.00065963
0.000124186
-0.000184944
-0.000107447
0.000292396
-0.00165211
0.00111373
0.000550692
0.000910953
-0.000874081
-2.01572e-05
-5.77421e-05
0.000381404
0.000622127
-0.000320098
-0.000301871
-8.98793e-05
0.00118996
-0.00107981
-0.000309027
0.000408636
-8.94158e-05
0.000370243
0.000910967
9.2009e-05
7.98618e-05
-0.000113246
-0.000843119
0.000583745
0.000259963
-1.63625e-05
0.000133127
-0.000238036
0.00054179
0.000240083
-0.00131577
0.00032136
0.000999673
0.000239514
2.87971e-05
0.000177328
0.00121476
-0.000855958
-0.000357193
0.000408708
-0.000183001
0.000217987
-3.49861e-05
0.000935842
-0.000725627
0.00100633
0.000209373
0.000100038
0.000442045
0.00020125
5.04053e-05
-0.000251655
-0.000234381
0.000271928
-3.75453e-05
-0.000155709
0.000521982
-0.000366134
-7.33083e-05
0.000195938
0.000151919
-0.000311192
0.000841584
-0.000284818
-0.000238312
0.000523243
5.16551e-05
-0.000234656
0.000294544
8.37335e-05
-0.000378269
-0.000280265
-0.000790557
8.19534e-05
-0.000266893
0.000412195
-0.000224087
-0.000188099
0.000276947
-1.0814e-05
-0.000266132
0.000260517
-0.000448665
0.000188182
-0.000586679
0.00023936
0.000347342
-0.00010086
-0.000177322
0.000157029
-0.000314235
0.000157206
-0.0003163
0.00019295
0.000431905
0.000880059
0.000243305
-8.11005e-05
-0.000162204
-0.000112246
-0.000105741
-0.000273571
0.000268527
5.04497e-06
-6.1561e-06
-0.000267413
8.85851e-05
-0.000628942
0.000263592
-0.000579953
0.000316505
0.000829584
-0.000312539
-0.000516652
-0.000192726
0.000130322
-0.000600249
0.000263776
0.000336504
-0.000391856
0.000395133
6.04528e-05
0.000545888
-0.000273699
-0.000914291
0.000219941
0.000695179
0.000231051
4.58962e-05
-0.000225029
-0.000288616
-0.00134891
0.000242879
0.000806485
-0.000577783
-0.000228352
0.000157637
0.000645585
0.000719124
-0.000145746
-7.27127e-07
0.000201977
9.59726e-05
-0.000443041
0.000401739
-0.00104163
0.000813246
-0.000765478
-0.000178396
-0.000160966
-8.79543e-05
0.000248921
0.00037033
-0.00114938
0.000383447
-0.000875581
4.56962e-05
-0.000419994
0.000520314
0.000197376
0.000609436
3.95082e-06
-6.22979e-05
-0.00124707
-0.000437415
2.70935e-05
0.000410358
0.00042046
-0.000170462
0.000350165
9.36375e-05
-0.000443764
0.000229014
0.000132974
-0.00029394
-0.000184364
0.000757373
0.000236045
-9.37929e-05
-0.000284344
0.000378157
0.00131174
-2.98673e-05
-0.00126081
-2.92254e-05
0.000323776
-0.000514067
4.00348e-05
0.000474102
0.000131935
-0.000265154
-0.000565648
-0.000347612
-0.000138477
0.000505727
-0.000183491
-0.000225044
-0.00016714
-0.000163417
0.000330563
0.000389988
9.53414e-05
-0.000485288
0.000114915
0.000123126
-0.000238041
-0.000543915
-0.00033455
0.000881085
0.000298306
-1.28005e-05
-0.000255907
0.000116282
0.000843631
-0.000334771
-0.00050816
-0.000122617
-0.000143761
-0.000797341
0.000562939
0.000234957
-5.97021e-05
0.000254242
-0.000194539
-0.000594328
-0.000188462
-0.000665619
0.000344294
0.000400177
8.63174e-05
-0.000486453
-0.000454371
0.000132677
0.000321712
-0.000383765
-0.000927423
4.73205e-05
0.000774997
-0.000821049
0.000375406
0.000246846
0.000664184
-0.0010269
0.00112666
-9.1507e-05
0.000530773
-0.000116772
-0.000293289
0.00028619
7.10021e-06
-0.000653613
-0.000624911
0.000710829
-0.000641814
0.000199957
3.56754e-05
-0.000235632
0.000986068
-0.000141063
-0.00084298
0.000360303
-0.000222919
-0.000137378
-0.000513012
-5.06785e-05
0.000563941
-0.000303491
6.91113e-05
0.000696848
0.000208133
-0.000324856
-0.000284786
8.2014e-05
-0.000331137
0.000374531
0.000498085
0.000198689
-0.00069651
-2.63041e-07
0.00022263
0.000242481
1.58847e-05
-0.000356678
0.000639026
0.000865544
1.91155e-05
-0.000456493
-0.000761117
9.64672e-05
0.000665143
0.000406981
-0.000545335
0.000153722
-0.00120577
0.00106476
-0.000108994
-0.000108994
-0.000307549
0.000143291
0.00016426
-0.000298047
-1.2205e-05
0.000310258
-0.000908057
0.0001441
0.00041952
0.00028395
0.000117901
-0.000401839
3.40381e-05
-0.000244291
0.000379057
-0.00122842
0.000879582
7.58958e-05
0.000167409
0.000286938
0.00014612
-0.000433038
-0.000168926
0.000267024
-9.80974e-05
-0.000219294
0.000614991
-0.000391666
0.000280103
0.000111571
-0.00123695
0.000855823
0.000383839
3.87781e-05
-6.33269e-05
0.000217987
-5.22109e-05
0.000184133
-0.000351714
0.000167592
-0.00115806
0.000918562
-0.000236392
0.000653221
0.000128042
0.000583024
-0.00119607
0.000340429
0.000889276
-0.000140531
-0.000167015
0.000520684
-0.000256961
1.04867e-05
-0.000524476
-0.00063319
-0.000197299
0.000831839
-0.000987377
0.000446699
0.000734362
0.000407098
-0.00114134
0.000187437
-0.00035457
0.00149803
-0.00117032
0.00115962
-0.000425295
0.00035555
-0.000132156
-0.00022339
1.80215e-05
-0.000311308
0.000555354
-0.000867334
0.000391394
-0.000164515
-0.000226865
0.00110978
8.76048e-05
2.29467e-05
-0.000878432
0.000258473
0.000729504
0.000408291
-0.000494033
-0.000123897
0.000618207
-0.000858258
0.00116686
-0.000302173
7.49274e-05
-0.000947621
0.000875654
-0.00027992
-0.000147423
-0.00119947
0.000363892
0.000838749
-0.000156413
-9.48247e-05
0.000251239
-0.00114005
0.00071976
0.000439147
0.000761046
-0.000874529
0.000114611
0.000210356
-0.000269889
-0.000707289
0.000398195
0.000309246
-0.000338282
-4.33441e-05
0.000459889
6.35491e-05
-0.000828828
0.000777228
0.000279114
-0.000910978
0.000451323
-0.00124087
0.000794964
-0.000367976
9.10059e-05
0.000276978
-0.000176586
-0.000115045
0.000291634
-5.1807e-05
0.000689183
-6.39934e-05
0.000188861
-0.000124867
-0.000647755
0.00109203
-7.95698e-05
-0.00100087
0.000191886
6.51025e-05
-0.000256988
0.000207915
0.000201173
0.000378885
-0.000579925
-0.000466373
-0.000592803
0.00106285
-0.00011418
-0.000202936
-0.00047416
3.12194e-05
-0.000245279
0.000214062
0.000213992
0.000935749
0.000624778
-0.000868399
0.000244231
0.000417117
-0.000235076
-0.000454387
0.000689968
-0.000145561
-0.000168674
-1.90096e-05
0.00030297
6.87016e-05
-0.000366741
0.000332301
-0.000736669
0.000405148
0.000376956
0.00135012
-0.00124269
-0.000101295
0.000235635
0.000237416
-0.000750121
-0.00027052
0.000274958
0.0001189
-0.000879404
-0.000600871
-0.000358727
-0.00034835
-0.000328036
-5.59158e-05
0.000149593
-9.82149e-05
-0.000123535
0.00022175
0.00023544
-4.35532e-05
-0.000313695
0.000157284
-0.000146327
0.000209927
-6.36003e-05
0.000178968
-0.000233096
3.54014e-05
0.000197694
0.000343649
0.000284033
-0.000786421
0.000502652
-8.31928e-06
0.00059021
-0.000576816
0.000262923
9.73842e-05
0.00120788
0.000140819
0.000180219
-0.00119816
0.000715942
-0.000237076
-0.000478668
0.000266993
1.12949e-05
-0.000278288
-0.000998746
0.000880942
0.000119983
-0.000622343
-0.000364607
0.000988155
1.47403e-05
-0.000344162
0.00032947
-0.000370553
0.000580053
-0.000209303
-3.86487e-05
-0.00100141
0.0010409
0.000268627
-0.000317991
4.93668e-05
0.000451551
0.000741102
-0.00118346
0.000120946
0.000150754
-0.000271699
3.3716e-05
-0.000401682
0.00111484
-0.000868812
2.29166e-05
-0.000879111
0.000858669
0.000181726
0.000215248
-0.000396956
0.000325466
0.00128247
-0.000259933
-3.56421e-05
0.00029558
0.000290593
-2.76659e-05
0.00145141
-0.000215535
-0.00121837
0.000143662
0.000126508
-0.00027017
-0.00039125
0.000168403
0.00023182
0.000212487
-0.000444268
0.000794622
-0.000461377
-0.000333514
0.000201363
0.000151625
-0.000262193
0.000110569
0.000557261
0.000907655
-0.000427175
0.000294189
0.000133002
0.000223827
0.00100304
-0.00122134
0.00115909
0.000257116
8.27173e-05
-0.000339828
-0.000216586
0.000156884
0.000231415
0.000471363
-0.000702363
0.000168715
-0.000662455
-0.00115721
7.88054e-05
0.00108011
-0.000460526
-5.77137e-05
0.00051839
0.000126846
-0.00027833
0.000187196
7.98706e-05
-0.000267066
0.00109771
0.000134996
-0.00122017
-6.97699e-05
-0.000123874
0.000193643
0.000276764
0.000973935
0.000593469
0.000629279
0.000239127
-0.000867516
-0.000749405
0.00115628
0.000927699
-0.000416273
9.43364e-05
0.000180457
-0.000274792
-0.00019825
-0.000256096
0.000237999
-0.00090841
-8.78714e-05
-0.00114153
1.70366e-05
0.000215593
7.9851e-05
-0.000295443
0.000790948
-0.000621203
-0.000161529
0.000393109
-0.000494944
0.000101875
0.000750592
4.98368e-05
-0.000799255
0.000309675
0.000465737
-0.000774794
0.000446768
-0.000867315
0.000421144
0.000171738
0.000113714
-0.000285451
0.000100101
-0.000250078
0.000832212
-7.20864e-05
-0.000758895
-9.30398e-05
-0.000162868
0.00107586
-0.000875217
-0.000197551
0.000623291
-0.000357886
-0.000265262
0.000159314
-0.000287648
-0.000154488
-0.000115234
-0.000741359
-0.000328229
0.00107389
0.000953095
-0.000488792
-4.467e-05
-2.96302e-05
0.000210087
0.000413366
-0.000169285
-0.000244063
-0.00058852
0.000128168
-0.00019806
0.000229282
-6.43395e-05
0.000694437
-0.000831172
0.000237389
-0.000192148
-0.000103446
0.000181638
-0.000335845
0.00015421
-0.000394914
-6.12423e-05
0.000456193
-0.000123963
0.00024491
-0.000394246
5.78007e-06
0.000388489
0.000270561
-0.000158108
-0.000112453
0.000283096
0.00073856
-0.00101812
-9.70371e-05
0.000317889
-0.000222649
-0.000169008
5.54593e-05
-0.000978142
0.000933739
0.000104624
-0.000227868
0.000164606
-0.000325307
0.000160703
0.000236892
0.000589346
-1.32101e-05
-0.0010079
0.00102519
0.000169278
-0.000233271
-0.000356592
-0.00011812
0.000474791
-0.000222659
-4.86577e-05
0.000271319
0.000664332
0.000838995
8.86734e-05
-0.000107215
4.69325e-05
-0.000671039
-0.000137617
0.000808838
0.000282533
-0.00065286
-0.000202322
-0.000917533
0.000240238
-5.42642e-05
0.000171024
1.28522e-05
-0.000407074
-0.000566513
-0.000297212
0.000864535
0.00050368
-9.65888e-05
-0.00057161
-0.000723906
0.000796025
-0.000834005
0.000548658
-0.000693701
0.000145251
-0.000208739
0.000138969
0.000389608
0.000291198
-0.000680545
0.000231913
0.000691035
0.00103054
1.72356e-05
-0.00102058
-0.000934246
0.001162
-0.000213511
0.000578714
-0.000239422
-0.000736594
0.000814049
-0.00048951
2.12278e-05
0.000468345
-4.84868e-05
-0.000815035
0.000865315
-0.000337634
0.000538938
0.000290272
-0.000387299
-0.000766479
3.13724e-05
0.000739204
0.000148809
9.50649e-05
-0.000243874
0.000273068
-0.000252922
9.86452e-05
0.000416316
-0.000514893
0.000144936
-0.000237976
0.000221881
-0.000303023
8.11435e-05
-0.000668028
-0.000317381
9.47242e-05
-0.000363686
0.00037848
0.000266559
0.000179767
-0.000446302
-9.38088e-05
0.000258417
-0.00127193
0.000180613
0.00110214
5.64954e-05
0.000212134
0.000252137
0.000486974
0.000357286
-0.000263077
0.000116751
0.000388217
-0.000228983
-0.000159226
0.000374633
0.000952554
2.6296e-05
-0.000515735
-0.00115326
0.000147317
0.0001608
0.000109762
-6.98113e-05
0.000203737
-0.000133926
-0.0013406
0.000634462
0.000709555
0.000158235
0.00022943
-0.000333982
0.000104555
-4.26167e-05
-0.000219798
0.000268553
0.000294554
-0.00033196
-4.73717e-05
0.000419502
-7.26118e-05
0.000221421
0.000203054
0.000131836
-0.000334885
0.000266351
0.000740541
0.00033321
0.000155157
-0.000488326
-0.000929947
-0.000266124
-0.000776209
-0.000378567
0.00115613
-0.000348375
2.96085e-05
0.000318776
0.000419564
-0.000143786
-0.000284961
0.000428785
0.00127136
-0.000963219
-0.000269035
-0.000322091
0.000254307
0.000338787
-0.000556016
0.000217339
0.000592855
-0.000252464
-0.000340221
0.000481928
-0.000894972
0.000413465
0.000569054
-0.000989842
0.000188003
-0.000544502
-0.000151754
-0.000519099
-0.000182786
-0.00024977
-0.000660252
0.000300753
0.00039207
-0.000620669
7.86539e-05
-0.000473524
5.65567e-05
-0.000301832
-0.000350859
0.000205624
-0.000296521
4.48404e-05
0.000251683
-0.000360083
0.000100155
1.30979e-05
-0.000379406
-0.000164862
0.000262477
-9.76148e-05
-0.000736565
0.000547032
0.000189768
0.00029544
-3.83189e-05
0.000409184
0.00120861
-0.000933714
-0.000266575
-0.000527767
-0.000302801
-8.19422e-05
-0.000268898
-0.000881745
0.000385612
0.000496993
-0.00122426
-5.23221e-05
1.34194e-05
0.00115309
-0.00115294
0.000332722
0.000189619
-0.000522272
0.000220724
-0.000105808
-8.17733e-05
0.000843827
-9.83489e-05
0.000241576
0.00111334
-5.36166e-05
0.000312263
-0.000109205
-0.000375159
1.73489e-05
0.000357838
-0.000166332
0.000217987
0.000510829
-0.000484465
0.000824656
-0.000126725
0.000851389
-0.000883976
-0.000265192
9.88595e-05
-0.000384824
0.000241066
-0.00026799
-0.000468292
0.000302044
-0.00045677
-0.000526674
-9.64899e-05
-0.000237449
0.000333944
0.000431426
0.000425491
-0.000412613
0.000430755
-0.000842169
0.000412002
-0.000223206
-0.000138252
0.000361472
-0.000709384
-0.000525289
0.000289356
-0.00101377
0.000633957
0.000596003
-0.00137077
0.000112084
-0.000275325
0.000163243
-6.10584e-05
0.00019892
6.49583e-05
-0.000413321
0.000250855
5.78864e-05
0.000453006
0.00017297
9.05285e-05
-0.000263498
-0.000199421
0.000112266
4.88263e-05
0.000376687
0.000362894
-9.63164e-05
-0.000292
-0.000375937
-0.000841263
0.00105937
-0.00102402
-0.00146163
0.00073036
0.00076488
-0.00115106
0.000231585
0.000117168
-0.00030213
-0.000257292
0.00055956
-0.000516921
0.000360374
0.000156585
-0.000203642
0.000542516
-0.000342392
0.000142705
-0.000690036
0.000945601
-0.000253725
0.000247775
0.000107069
-0.000107069
-0.000117608
-0.000156458
0.000668739
-0.000298153
-0.000370307
0.000149873
-3.98593e-05
-0.00104609
0.00104616
1.00552e-06
0.000250971
3.10586e-05
-0.000282029
0.0008992
-0.000109628
-0.000352925
0.000277755
7.51742e-05
0.000223767
-0.000317574
-0.000311342
-0.000490034
5.14655e-05
0.000438663
0.00119931
-0.00120929
2.61995e-05
0.000285242
-0.000125912
-0.000919889
0.000402891
0.000517851
0.000941744
-5.87209e-05
0.00031989
0.000840819
-0.00084125
1.8023e-06
0.00111859
-0.000358524
-0.00130418
0.000942131
0.000371302
-0.000660257
0.000346546
0.000313981
0.000162591
9.12121e-05
-0.000253803
0.000889403
-0.000375804
-0.000512829
0.000249093
0.000575849
-0.000824377
-6.35905e-05
0.000350547
-5.26455e-05
0.000239842
0.000365449
0.000328245
-0.000849984
0.000432424
0.00041815
0.000137746
-0.000298604
0.000160859
-0.000649826
-0.000774859
-0.000187346
0.000263356
-0.000253276
8.27153e-06
0.000996689
-0.000630093
0.000265332
-0.000357217
9.18918e-05
0.000546585
-2.62822e-05
-0.000520211
-0.000499767
0.000222437
-0.000327612
0.00049752
-0.000169845
0.000588526
0.000228565
0.000402888
-0.000629263
9.44679e-05
-9.44679e-05
0.000351027
0.000272385
-0.000697137
0.000983754
0.000426756
-0.000197717
-0.000425122
-0.000376956
0.000803116
-0.00035156
0.000360006
-8.42807e-06
-0.000709838
-8.62452e-05
0.000823621
0.000188063
0.000223431
-0.000411472
-0.000319404
0.000109044
0.00029112
-0.000400158
-0.00048969
0.000162143
0.000298137
-0.000210039
-8.80967e-05
0.000597571
-0.000327409
8.32561e-07
0.000319044
0.000175753
-0.000494755
0.000293321
-0.00106954
0.000800057
0.00075424
-0.000705769
-0.000345798
4.92789e-05
0.000213826
-0.000301779
0.000238135
-0.000120868
-0.000177735
0.00131402
-0.000175151
-0.00113426
-0.000504161
-0.00083246
6.11717e-05
0.000359408
-0.000420518
0.00039505
0.000564622
-0.000957987
0.00125147
-0.0012706
3.25528e-05
0.0002587
-0.000127511
-0.000163144
0.00038012
0.000232691
-9.50661e-05
-0.000137625
0.000420135
6.30676e-05
0.000483599
-0.000650247
-0.000501498
0.00115304
0.00123605
-0.000294887
-0.000177784
-0.000154688
0.000332477
0.000502101
-0.00049154
9.06784e-05
0.000357518
-0.000412769
5.68467e-05
-0.000362677
0.000214956
0.000207444
-0.000431589
0.000224174
0.000155894
-0.000291523
0.00115431
-7.3901e-06
-0.000532273
0.000558131
-5.65805e-05
0.000219171
-0.000455138
0.000937517
-0.000810422
0.000482035
0.000328948
-0.00097427
-0.000182376
0.000230982
5.06817e-05
-0.000281663
-1.99238e-05
-0.00013935
7.95553e-05
-0.000242423
-0.00107653
0.00120805
-0.000128252
-0.00047059
0.000242226
0.000320194
0.000380158
-0.000699967
-8.47226e-05
-0.000345476
0.000430257
0.000680329
-0.000218324
0.0010797
0.000215619
-0.000808858
0.0005947
0.000187452
0.000540355
-0.000691624
-0.000383774
0.000257666
0.00012612
0.00107749
-0.000407356
-0.000669204
-0.000107013
-0.000163151
0.00100375
-0.00054362
-0.000457409
-2.81148e-05
0.000292348
-0.000264228
-0.000284792
0.000188971
9.58218e-05
0.000775928
-0.000323656
-0.00045168
-0.00057841
0.000193154
0.0004221
-0.000290937
0.000175671
0.000115266
0.000189278
-0.000307868
0.000118593
0.00015143
0.000681851
0.000503078
-0.000529271
0.00113861
-7.8004e-05
-0.000166275
0.000217987
-5.17123e-05
0.000216914
0.000999546
-0.00031261
0.000230683
0.000214033
-0.00115087
0.000946599
-0.000365905
0.000580998
-4.597e-05
-0.00030695
0.000673455
-0.000803539
0.000878645
7.38159e-05
0.000546669
-0.00025666
0.000166558
9.01023e-05
0.000295179
-0.000150469
-0.000144709
-6.06847e-05
0.000290117
-0.00150818
0.000981638
-0.000249557
8.46953e-05
0.00111678
-0.000799275
1.82076e-05
-0.000693499
-0.000489707
-0.000733609
0.000231674
0.000379191
-0.000427365
-3.42394e-05
0.00046676
0.000143661
-0.000307121
0.000163462
0.0001688
-0.000328056
0.000159259
0.000240984
0.00101083
0.000178567
2.03131e-05
-0.000471636
0.000703447
-0.00107765
3.43439e-05
-0.000104503
-0.000186433
0.000414422
0.00013596
0.000167803
-0.000268662
-0.000484572
0.000701531
0.00021503
-0.000934021
0.00100011
-0.000695347
0.000392967
-0.000448146
7.3025e-05
-0.00138478
0.000125438
0.000253681
2.12793e-05
0.000291958
0.000104622
-0.000396571
-0.000196114
0.000126303
0.00015277
-0.000642672
0.000125213
-0.00015963
0.000489058
-0.000329292
-0.000238797
-0.000990825
0.000304061
-0.000693387
0.000389646
2.3544e-05
0.000479616
-0.000131067
-8.98631e-05
0.00022093
-0.000517148
-0.000325331
-0.000199882
0.000350892
-0.000151004
4.4854e-05
0.000457314
-0.000412319
0.000112183
0.000204866
-0.000280119
7.5255e-05
0.00023211
-2.72427e-05
0.000231703
-0.000149319
-8.23837e-05
0.000171637
0.000201166
0.00012114
-0.000322302
-0.00091082
0.000174988
1.9273e-05
-0.000302613
-0.00039023
0.000216398
0.000173841
-0.000365781
-0.000514993
-0.000122038
-0.000205019
-0.00020909
-3.56279e-05
0.000244719
-0.000648325
-0.000282366
0.000932616
-0.000159971
-0.000379218
-0.00117793
0.000440688
0.000446907
-0.00109297
0.000242277
-0.000173415
-0.00122738
9.5407e-05
0.00114763
0.000668389
-0.000364017
0.000202508
-0.00023886
0.000997848
-0.000865235
-0.000130479
-0.000267316
0.000123506
0.000918985
-0.000251418
-0.000666777
0.00051415
-0.000241831
-0.000272234
-0.000297624
0.000214363
8.32615e-05
0.000819795
0.000183893
0.000229487
9.20434e-05
0.000463881
-0.000555397
0.000328127
0.000448345
0.000189515
0.000105665
-0.000970406
0.000357846
-0.000450433
9.26053e-05
0.000268173
-0.000183496
-7.31637e-05
-0.00119662
0.000251285
0.000951324
0.000233643
-0.000111777
-0.000121866
-0.000852933
0.000518874
9.46043e-05
-0.000229289
0.000134684
-9.83058e-05
-0.000124833
0.000223139
0.000116997
0.000116646
0.000749273
-0.000459882
-0.000289096
0.00115733
-0.000929066
-0.000225155
0.00102681
0.00029176
0.000226686
5.19831e-05
-0.000272856
-0.000334364
0.000296593
-0.00118906
0.000896526
0.000130516
0.000514558
-0.000797223
0.000796267
-0.000296254
-0.000499693
0.00060925
-0.000243753
-0.000675119
-0.000234648
-0.000366978
-0.00112235
-0.000900578
0.000539366
0.000362468
0.000388845
0.000551598
-0.000939548
-0.000670667
0.000695535
0.000719049
0.000128222
-0.000213634
0.000271969
-5.83328e-05
-0.000387501
0.000223314
0.000164198
0.000813182
-0.000508119
-0.00030431
0.00037568
-0.000586461
0.000210953
0.00013217
-0.000341257
0.000497664
-0.000247861
0.000237047
0.000431066
-0.00104435
0.000284746
-0.000722423
0.000438055
0.000791819
0.000286343
-0.00123551
0.000299977
0.000942823
0.000510902
0.000142228
-0.000652919
0.00105075
5.19519e-05
-0.00127633
6.7247e-05
-0.000379504
-0.000207137
0.00102865
9.60979e-05
4.94746e-05
-0.000401018
0.000180778
-0.000914651
0.000113363
-0.000217076
0.000103713
0.000214622
0.000149886
-0.000364499
0.000395931
-0.0001586
-0.00023731
-0.000254047
-0.00017311
0.00119001
-0.00017508
-0.00100818
0.000252841
-0.000205419
-0.000213825
0.000419276
2.07575e-05
0.000775214
-0.00102218
0.000658864
-0.000287003
3.91431e-05
-0.000460561
-0.000404322
0.00086549
-0.000414145
-0.000339228
0.00031001
-5.51214e-05
0.000255078
0.000128211
0.000431428
-0.000559554
0.00111988
-0.000976169
-0.000138263
-0.000137526
-0.000395512
5.62921e-05
0.000283888
0.000581325
-0.000488726
-0.000987887
0.00103137
0.00102771
0.000164579
-0.00118009
-0.000447535
0.00029193
-0.000688918
-0.000360326
0.00105199
0.000209461
-5.78362e-05
0.000412258
0.000624891
-0.000628574
-0.000383521
0.000289747
0.000281016
-0.000393573
0.000112572
-0.000339706
-0.000954693