/*--------------------------------*- C++ -*----------------------------------*\
| =========                 |                                                 |
| \\      /  F ield         | OpenFOAM: The Open Source CFD Toolbox           |
|  \\    /   O peration     | Version:  v2012                                 |
|   \\  /    A nd           | Website:  www.openfoam.com                      |
|    \\/     M anipulation  |                                                 |
\*---------------------------------------------------------------------------*/
FoamFile
{
    version     2.0;
    format      ascii;
    class       volVectorField;
    location    "150";
    object      U;
}
// * * * * * * * * * * * * * * * * * * * * * * * * * * * * * * * * * * * * * //

dimensions      [0 1 -1 0 0 0 0];


internalField   nonuniform List<vector> 
13917
(
(0.469101 0.00509492 3.35013e-20)
(0.98375 0.0216992 0)
(1.10539 0.0720432 1.59133e-20)
(1.03497 0.0165412 6.44749e-21)
(1.00429 0.0171613 0)
(0.985024 0.0175177 3.57076e-21)
(1.0491 0.0339754 0)
(0.961612 0.085669 4.41513e-21)
(1.06279 0.0239153 0)
(0.0422776 -0.125428 0)
(0.96536 0.079353 6.23389e-22)
(1.0249 0.0139875 5.54852e-21)
(1.009 0.000146319 0)
(0.976804 0.27629 0)
(1.00849 0.00873223 4.77185e-22)
(0.445541 0.0040025 -4.01746e-20)
(1.00154 -7.32973e-05 -7.25262e-22)
(0.982837 0.0742791 3.34822e-21)
(1.08422 0.086341 -2.29045e-20)
(0.434943 -0.0300889 3.3149e-20)
(1.02442 0.0387471 0)
(1.01136 0.00827082 -4.3394e-22)
(1.05771 0.059474 1.12409e-20)
(1.0112 0.00805572 0)
(1.03174 0.0242386 -6.31091e-21)
(1.02235 0.0422741 6.24813e-22)
(0.718088 -0.146397 -2.22243e-21)
(0.0264646 -0.0757001 0)
(1.01045 0.057828 -9.22505e-22)
(1.01396 -0.00247436 0)
(0.0328529 -0.0781386 0)
(1.07886 0.0636544 0)
(1.03019 0.0185184 -2.46198e-21)
(0.537109 0.0182957 -1.45059e-20)
(1.00988 0.000575949 -5.02612e-22)
(0.947476 0.0898384 -2.9947e-21)
(1.01905 0.0242293 -3.06778e-22)
(1.00125 0.000111691 -2.22182e-22)
(1.0503 0.0342488 -1.08214e-20)
(1.02822 0.0352136 0)
(1.00162 -7.68716e-05 9.31581e-22)
(1.01326 -0.00142743 -5.71666e-22)
(1.05737 0.0186377 -2.24001e-21)
(1.08683 0.0750172 -2.62336e-20)
(1.08578 0.0760416 1.48502e-20)
(0.973286 0.159905 0)
(1.0239 0.0374643 2.21182e-22)
(0.47731 0.0165657 -4.6971e-20)
(0.72242 0.0487879 -5.73198e-22)
(1.00976 0.000714485 -2.0087e-22)
(1.02441 0.0135946 -5.59442e-21)
(1.02185 0.11602 -1.26316e-20)
(0.373541 0.00502331 -1.9241e-20)
(1.01709 0.0125435 -1.7732e-21)
(1.01832 0.0136726 0)
(1.02785 0.115767 -7.05083e-21)
(-0.0128372 -0.0201353 -5.78751e-21)
(1.05616 0.0590842 9.56498e-21)
(1.01291 -0.00108906 0)
(0.96186 0.156834 -6.32743e-22)
(0.5007 0.262962 -1.75e-20)
(1.01346 -0.0161755 0)
(1.00535 -0.000109046 -3.82773e-23)
(1.03162 0.0235804 2.93785e-21)
(0.870566 0.0640708 0)
(1.00249 -0.00971747 -9.32248e-22)
(1.00361 0.0630971 -2.78625e-21)
(0.940047 0.0818306 -1.32901e-21)
(0.978662 0.0815853 4.97205e-22)
(0.437112 0.00916677 2.0328e-20)
(0.993154 0.072968 0)
(0.517012 0.0156523 -9.11403e-21)
(1.03269 0.00776047 -4.13255e-21)
(1.01225 -0.00103808 0)
(1.02577 0.0390583 2.11279e-22)
(1.0277 0.0257582 1.92132e-21)
(1.01071 0.0121479 2.11911e-21)
(1.01191 -0.000850807 0)
(1.02772 0.0251301 -1.68259e-21)
(1.03049 0.0189808 0)
(1.01426 0.0127317 0)
(1.00138 -4.86877e-05 6.65192e-22)
(1.03227 0.0072433 3.70214e-21)
(0.98197 0.0568141 0)
(1.01245 0.00233263 2.46203e-21)
(1.03244 0.13082 -1.85192e-21)
(1.07803 0.0629423 0)
(1.01189 0.00121825 0)
(1.02851 0.0353768 0)
(1.00205 -8.07063e-05 -4.18982e-22)
(1.00393 -0.000162732 -3.83962e-22)
(1.0587 0.0189987 0)
(0.714682 0.00817194 -6.34212e-22)
(1.00934 0.000551469 0)
(1.01719 0.0159188 5.97785e-22)
(1.00982 0.0624654 -1.13936e-21)
(0.958262 -0.102513 -9.37904e-24)
(1.00129 6.3296e-06 1.20239e-21)
(1.01235 0.00135302 -1.29006e-21)
(1.06538 -0.0271471 0)
(1.00337 -6.11338e-05 -3.35522e-22)
(1.00388 -0.00011467 4.3141e-22)
(1.01439 0.0131507 -3.12851e-23)
(1.00326 0.000154847 0)
(1.01013 0.0114029 -1.64383e-21)
(0.973317 0.0524864 0)
(0.617331 -0.00712533 1.47737e-20)
(1.01865 -0.0171849 9.35137e-22)
(1.0141 -0.00158007 1.16145e-21)
(0.630689 -0.160611 0)
(1.01885 0.0003116 1.06964e-21)
(0.551701 0.0198384 1.44959e-20)
(1.01553 0.0568562 4.24127e-21)
(0.41264 -0.0108779 0)
(0.884275 0.064642 2.80587e-21)
(1.0262 0.0268561 2.74929e-21)
(1.08229 0.0847264 6.62767e-21)
(1.00404 -0.000140282 1.92459e-23)
(1.10217 0.0772964 0)
(1.03133 0.00395701 7.99641e-21)
(1.00188 -5.10025e-05 -5.29528e-22)
(1.01072 -0.000889034 -9.83209e-22)
(1.00234 0.0686195 2.63056e-21)
(1.05994 0.094975 1.37034e-22)
(0.411115 0.00812248 0)
(0.942566 0.0574053 0)
(1.03216 0.0226508 6.55271e-21)
(1.02662 0.0401727 3.64102e-22)
(1.00875 0.00276422 5.03909e-22)
(1.06299 0.095534 -1.15949e-20)
(1.0673 0.0409812 0)
(0.9166 0.0446128 0)
(0.674375 0.041114 1.94118e-20)
(1.02554 0.0267746 3.21278e-22)
(1.08131 0.0672837 1.45014e-20)
(0.610685 -0.184729 0)
(0.46958 0.277874 -2.01464e-20)
(0.37407 0.0107987 1.54785e-20)
(1.02111 0.0454684 -1.83253e-21)
(1.00045 6.70855e-05 0)
(0.957466 0.264702 1.20231e-20)
(1.01138 -0.00084792 0)
(0.990305 0.0521324 0)
(1.01049 0.00595825 4.76433e-23)
(1.03027 0.00747335 0)
(1.01998 0.00040416 -9.95901e-22)
(0.997055 0.0726274 0)
(0.923259 0.136353 -1.80323e-20)
(0.476915 -0.0287865 5.92292e-20)
(1.01742 0.0130668 1.98379e-21)
(1.0284 0.0356851 1.67064e-22)
(1.00443 -0.000123773 1.23268e-22)
(1.02989 0.00687768 0)
(1.03168 0.00360684 4.76263e-21)
(0.877145 -0.127704 1.28323e-21)
(1.00991 0.00612505 0)
(1.00356 0.000138495 2.10164e-22)
(0.637254 0.0407071 -2.78218e-20)
(1.00253 -8.32788e-05 1.06272e-21)
(1.00355 -0.000171709 3.22283e-22)
(1.01165 0.00465121 -1.84634e-21)
(0.829638 0.111472 0)
(1.01297 0.0249991 -3.26594e-22)
(0.939433 0.267918 -1.03196e-20)
(0.66511 0.183061 8.06019e-20)
(1.07619 -0.0580969 -5.33736e-22)
(0.251552 0.00566272 2.24464e-20)
(0.532986 0.220377 5.10688e-20)
(1.00874 -0.000739046 -3.5853e-23)
(1.02165 0.0479239 1.21465e-21)
(1.01114 0.00800856 3.18049e-22)
(0.688506 0.0388947 0)
(1.0632 0.0229031 0)
(0.59221 0.256356 -1.23717e-20)
(1.01467 0.0711525 2.04407e-21)
(1.00354 -9.3184e-05 2.33564e-22)
(1.03564 0.0162309 0)
(1.01361 0.124355 1.49316e-20)
(1.06699 0.0397803 2.02269e-20)
(1.01213 0.025774 3.49602e-22)
(1.05542 0.0193908 1.07818e-20)
(1.01107 0.00786873 2.6564e-22)
(1.02392 0.0137579 0)
(1.05753 0.148146 1.53571e-20)
(1.10355 0.0791487 3.75385e-22)
(0.911272 0.0313052 0)
(1.02345 0.0133962 0)
(1.0514 0.151641 -1.9908e-20)
(1.01385 -0.00242093 1.4891e-22)
(1.03197 0.119748 0)
(1.01163 0.0690324 -2.25215e-21)
(1.08394 0.0752506 0)
(1.05901 0.12652 -1.21388e-20)
(0.472088 0.00249347 4.51735e-21)
(1.00928 0.000562097 0)
(0.419079 0.00913528 1.61889e-20)
(1.03432 0.0319478 4.14696e-21)
(0.711806 0.0436295 -1.93675e-20)
(1.00976 0.000557977 3.28868e-22)
(1.01008 0.00622695 0)
(1.02358 0.0351708 0)
(0.440723 0.00862052 0)
(0.362836 0.00979839 2.24073e-21)
(1.01658 0.0208971 0)
(0.725715 -0.0938348 -1.69357e-20)
(1.0051 0.0397195 5.24942e-22)
(1.02838 0.0357135 0)
(1.0112 -0.000972199 0)
(1.02029 0.122719 -8.75675e-21)
(1.014 0.0124036 -1.63552e-22)
(1.00713 0.00191305 7.085e-22)
(0.993246 0.0233341 -6.03475e-21)
(0.991592 0.0265643 1.49379e-21)
(0.511609 0.00427299 -2.35933e-20)
(1.08088 0.0665617 -7.51336e-21)
(1.02317 0.0439937 -6.72933e-22)
(0.759479 0.0531833 -1.91065e-20)
(1.00633 0.000553168 -8.198e-22)
(1.00755 -0.000876203 -8.3712e-24)
(1.00759 -0.0009 0)
(0.516318 0.214742 0)
(1.05754 0.137406 -2.0528e-20)
(1.04605 0.166548 0)
(1.01838 0.00180508 0)
(1.00453 -0.000121187 8.33056e-23)
(0.540866 -0.202639 -2.01211e-21)
(0.408854 0.0086527 0)
(1.0068 -0.000721727 0)
(1.0066 -0.000712389 0)
(1.00142 -0.000104832 -5.5983e-22)
(1.00793 -0.000976705 0)
(1.00798 -0.00099935 1.50725e-24)
(0.506293 0.0138668 0)
(0.617851 0.0645432 0)
(1.01291 0.010159 6.03463e-22)
(1.00978 -0.00120089 1.32723e-23)
(1.03477 0.0852751 0)
(0.489731 0.0148961 -2.07909e-21)
(1.00236 -7.85647e-05 -4.21309e-23)
(1.01811 0.00171552 2.75044e-22)
(0.691704 -0.111372 2.52774e-20)
(0.983371 0.0546849 0)
(1.06082 0.142065 0)
(0.740785 0.0462471 0)
(0.99524 0.0864137 8.5314e-22)
(1.01068 0.0060933 -3.62629e-22)
(0.583916 0.206948 0)
(1.03701 0.0882286 0)
(1.01552 0.0531784 -3.43989e-21)
(1.07093 0.0761086 4.90104e-21)
(1.01704 0.0204899 -1.66492e-22)
(0.587277 0.0361765 2.83937e-20)
(1.03162 0.00491814 7.21563e-21)
(1.02629 0.0435252 -2.45205e-22)
(1.01952 0.0675171 0)
(1.01278 0.0101288 0)
(1.00083 -3.35478e-05 -1.0436e-21)
(1.03229 0.0233157 -3.39927e-21)
(1.00254 0.0048655 -3.92811e-21)
(1.01108 0.000506979 -6.9832e-22)
(0.445755 0.0131775 0)
(0.771075 0.200339 -1.74428e-21)
(1.01006 -0.00088573 0)
(1.00636 -0.000637121 -2.15257e-22)
(1.00985 0.00655136 0)
(1.00635 -0.000607999 2.21695e-22)
(1.0319 0.00458707 -2.01854e-21)
(1.01361 0.000287316 -4.49122e-21)
(1.04248 0.0502138 0)
(1.01039 -0.00103709 0)
(0.379271 0.0141027 1.32886e-20)
(0.642016 0.00737003 1.55108e-20)
(1.02022 0.0107457 0)
(1.00637 0.00759088 -3.15649e-23)
(0.944745 0.169322 2.08569e-22)
(1.00861 -0.00102565 8.80558e-22)
(1.0568 -0.0057493 -3.15403e-21)
(0.465469 0.0161168 0)
(1.00856 -0.00101006 -1.81534e-22)
(0.458035 0.0110016 0)
(1.01071 0.00056066 0)
(0.84559 0.12232 -4.9469e-20)
(1.00308 -7.72411e-05 0)
(1.01123 0.0100995 0)
(1.01279 0.0102373 0)
(1.0098 0.00523522 7.62945e-24)
(1.08729 0.105756 -9.78715e-21)
(1.00263 0.000192245 -1.273e-22)
(1.05528 -0.0784476 3.30492e-21)
(1.0314 0.0348235 0)
(0.755564 0.217509 3.72961e-21)
(1.02193 -0.000490142 1.20919e-21)
(0.857073 -0.0773757 0)
(0.358709 0.0107686 -1.38366e-20)
(1.00331 -0.000123548 8.19071e-22)
(1.04843 0.0666468 -4.64149e-21)
(1.00224 0.00959879 -9.48176e-22)
(1.02475 0.0275246 0)
(1.00358 0.0146474 0)
(1.02851 0.0250375 -4.5384e-21)
(1.0098 0.000517738 -5.85786e-22)
(1.00342 0.000244249 2.73715e-22)
(1.00097 0.119898 4.70157e-21)
(1.04521 0.0275465 0)
(1.02723 0.043111 3.44788e-21)
(1.02854 0.0244746 2.08828e-21)
(1.01769 0.00174919 5.26973e-21)
(0.661686 0.0422751 2.17486e-20)
(0.425939 0.00760241 0)
(1.00839 0.00225872 2.62885e-22)
(1.01321 0.00345141 1.59098e-23)
(1.02543 0.0276239 -2.71182e-21)
(0.914451 0.0568468 0)
(1.08947 0.0651194 4.0038e-20)
(0.623971 0.00415026 -2.58325e-20)
(0.638256 0.248967 3.12869e-20)
(1.00894 -0.0182126 0)
(0.932983 0.0466717 0)
(1.00688 0.00637836 9.08805e-22)
(1.01012 0.0592813 1.74956e-20)
(0.912051 0.0774965 5.35575e-22)
(1.10435 0.0705974 2.87445e-20)
(1.01334 0.000284525 -4.55365e-21)
(1.00981 0.00865914 0)
(0.749763 -0.125082 5.80615e-21)
(1.01074 0.00781034 -5.55585e-22)
(0.979148 0.0234471 -3.87093e-21)
(1.08272 0.0760842 7.26094e-21)
(1.00169 -8.68832e-05 6.56472e-22)
(0.699223 0.0393159 1.13169e-20)
(1.01233 0.00181916 2.43568e-21)
(1.08078 0.0455316 0)
(1.01146 -0.00194018 6.52495e-22)
(0.314852 -0.0283703 -7.32133e-21)
(1.006 0.0014239 7.22696e-23)
(1.0292 0.0433216 2.49995e-21)
(1.00653 0.0421429 6.37013e-22)
(1.01336 -0.0178153 -1.79331e-22)
(1.00245 -8.23093e-05 -9.33858e-22)
(1.07343 0.0739061 -3.5169e-20)
(1.0114 0.0499559 2.90874e-20)
(1.01785 0.0157973 7.56947e-22)
(1.01055 0.00746412 -5.60772e-22)
(0.57724 0.0233933 -1.65433e-21)
(1.00571 0.0515679 0)
(0.877371 0.207152 1.18523e-20)
(0.957083 0.255016 -1.37878e-23)
(1.00823 -0.000949898 0)
(1.01351 0.0107297 -3.5726e-23)
(0.974931 0.057589 0)
(0.936424 0.057334 -7.59613e-21)
(1.0082 -0.000947205 6.56175e-22)
(1.00139 0.0122068 0)
(1.02054 0.0135585 -2.06917e-21)
(1.04079 0.0443762 -2.84462e-23)
(1.02838 0.0439273 -2.37377e-21)
(1.05476 0.111574 7.09314e-21)
(0.981494 0.0546913 0)
(1.06203 0.00058707 4.25189e-21)
(1.07677 0.047078 -2.60051e-21)
(0.523234 0.0107314 1.54775e-20)
(1.00893 0.00288197 -5.80969e-22)
(1.01832 0.0160399 0)
(1.00283 0.0190413 -1.59222e-21)
(1.10107 0.0987772 2.22208e-20)
(1.00185 -8.20883e-05 -7.81366e-22)
(0.455187 0.00345422 0)
(1.07723 0.046304 0)
(0.888666 -0.138565 4.73092e-22)
(1.01827 0.0140041 -1.22999e-21)
(0.956246 0.0584048 4.54133e-21)
(1.0153 0.0037409 -3.27371e-22)
(0.73126 -0.0906929 -8.18574e-22)
(1.01325 -6.79096e-05 5.98506e-22)
(1.05323 0.161714 0)
(0.957272 0.171583 2.99779e-22)
(1.00516 0.0453885 -5.64744e-22)
(1.02033 0.0111645 0)
(1.10179 0.104336 1.83375e-20)
(1.01259 -0.00229174 -9.98536e-22)
(0.640104 0.196575 -8.03482e-20)
(1.06211 0.130754 1.5077e-20)
(1.01314 0.000231788 -1.81401e-21)
(0.723888 -0.0340698 2.72322e-21)
(1.0128 0.0104651 1.17438e-22)
(1.05806 -0.0138896 5.18718e-21)
(1.00711 0.000401775 0)
(0.474811 -0.0341986 -5.25665e-20)
(1.05456 -0.00401598 -5.72038e-21)
(1.02148 0.0237001 2.00303e-22)
(0.494118 -0.192115 8.46068e-21)
(1.05725 0.015983 -2.05731e-21)
(1.01711 0.0191867 0)
(0.766986 0.179137 1.54771e-20)
(1.0855 0.0640089 -1.32055e-20)
(1.02255 0.0226654 -4.93457e-22)
(1.0871 0.109761 1.17969e-21)
(1.01404 0.0109534 1.75365e-22)
(1.06484 0.0199757 2.06454e-21)
(1.10529 0.0742371 1.16427e-22)
(1.01249 0.0016077 -1.40393e-21)
(1.05503 0.0306235 -2.58631e-20)
(1.02924 0.0243708 -1.26058e-22)
(1.00994 0.00529136 0)
(1.00777 0.00228903 8.33718e-22)
(1.00912 0.00311286 -3.31539e-23)
(0.409453 0.286427 -1.55143e-20)
(1.05853 -0.0585189 -1.57586e-21)
(1.01831 0.0150858 -1.2314e-21)
(1.00935 0.00302338 0)
(1.01108 0.00759209 3.87867e-22)
(1.0391 0.0637293 5.02967e-21)
(0.90113 0.0557961 0)
(1.0099 -0.00141628 -6.49858e-22)
(1.00857 -0.000665995 3.1298e-23)
(1.08928 0.0656306 -4.44093e-20)
(0.958702 0.050156 0)
(1.00999 0.00551949 3.69418e-24)
(1.02163 0.0232835 1.58167e-21)
(0.781581 0.247572 -3.78361e-20)
(0.813751 -0.10875 0)
(0.997087 -0.0119272 0)
(1.08666 0.0856677 2.05115e-20)
(1.05262 0.0614614 0)
(1.01074 -0.00159349 -4.5987e-22)
(1.00946 -0.00127182 -6.58662e-22)
(1.02038 0.0365508 0)
(1.00768 0.00218361 -2.68625e-22)
(1.00984 -0.00136741 6.59117e-22)
(1.01292 0.0102953 0)
(1.00942 -0.00122894 0)
(1.01054 -0.0015607 4.61935e-22)
(0.60219 0.184763 -6.0232e-20)
(1.01424 0.0113412 -4.25883e-22)
(1.02683 0.0352972 9.35888e-23)
(0.394453 0.0160833 1.08697e-22)
(1.04649 0.0653917 8.19765e-21)
(1.00731 0.00203874 -7.44972e-22)
(1.02913 0.00683529 -3.61724e-21)
(0.786535 0.167588 0)
(1.02265 0.0356505 0)
(0.393426 0.00641198 2.41327e-21)
(1.0109 -0.00175497 -8.29023e-25)
(1.0189 0.00469283 3.62447e-21)
(1.01281 -0.00242568 6.97584e-22)
(1.00834 -0.00106747 -7.51426e-22)
(1.01875 0.0233473 3.19782e-22)
(1.01274 0.010487 -1.25539e-21)
(0.802105 0.248973 1.95012e-20)
(1.00997 0.008051 -5.75812e-22)
(0.9629 0.0543735 0)
(1.01858 0.00473498 -5.4658e-23)
(1.06189 0.0467578 -1.41294e-20)
(1.01502 0.0103158 0)
(1.01392 0.0119951 1.14312e-22)
(1.00094 0.0886031 -1.57307e-21)
(0.864983 0.214197 -1.99516e-20)
(1.02058 0.0131847 -1.02628e-21)
(0.588197 -0.24627 -7.17775e-21)
(1.00753 0.00228329 0)
(1.0068 0.000765997 -2.17272e-22)
(1.01089 0.00726534 0)
(1.01296 0.0106021 -9.96346e-22)
(1.00677 0.0016607 5.14813e-22)
(1.0097 0.000857964 0)
(0.650814 0.0404683 -1.84e-20)
(0.551959 0.256133 -3.87128e-20)
(1.0066 0.00154312 -6.82591e-22)
(0.828443 -0.0643067 0)
(1.08951 0.0669297 5.2322e-21)
(1.01745 0.00055145 0)
(1.04564 0.0702114 1.26461e-20)
(1.08831 0.0593462 0)
(0.732888 0.15273 -1.26435e-20)
(1.05781 0.0322987 -9.39412e-21)
(0.974737 0.0503481 0)
(0.986685 -0.10421 -2.80724e-21)
(1.00032 -0.105373 0)
(1.01291 0.0105892 -1.1551e-21)
(1.00621 -0.0117119 9.13351e-22)
(1.01831 0.0127835 0)
(1.01673 0.0196419 7.01216e-22)
(1.03234 0.19472 0)
(1.00373 -0.000152241 6.80146e-25)
(1.01717 0.0121675 -1.92944e-21)
(1.01766 0.0162162 -1.798e-21)
(1.05828 0.0278718 1.39141e-20)
(1.02662 0.0366496 0)
(1.09946 0.0824021 0)
(1.06538 0.0635537 1.85484e-20)
(1.0175 -0.00521271 0)
(1.00493 0.00767376 -1.00487e-21)
(0.992651 0.0752866 1.52799e-21)
(1.02048 0.0311528 -5.12049e-22)
(1.01798 0.0147724 0)
(0.954672 0.294104 0)
(1.04851 0.0502856 1.60313e-20)
(1.03204 0.0349643 0)
(0.633582 0.213225 0)
(1.01256 0.00208489 -2.86392e-21)
(1.01879 0.0297678 6.11023e-22)
(1.01146 0.131971 0)
(1.00637 0.00134449 1.90577e-23)
(0.551282 0.0356707 0)
(1.00686 0.000774489 -2.97465e-22)
(1.00836 -0.00107493 -1.16729e-22)
(1.04033 0.0655893 -1.61738e-20)
(1.01079 -0.00169268 -6.97884e-22)
(1.00654 0.000589286 3.29986e-22)
(0.996265 0.113442 -1.83021e-22)
(0.607216 0.0464424 0)
(0.451947 -0.237041 3.47666e-21)
(1.01167 0.0043973 3.89249e-21)
(1.04098 0.0158968 -2.3115e-20)
(1.01263 -0.00526787 -4.03459e-22)
(1.03687 0.208158 -1.44661e-20)
(0.884951 0.17046 -7.71308e-21)
(1.01757 0.0138641 -2.14231e-21)
(1.0179 0.0132153 -4.33015e-22)
(1.01134 0.00394664 0)
(1.02507 0.0655525 8.79262e-22)
(0.838125 0.0207329 0)
(1.00897 0.0025461 -9.38463e-22)
(1.00235 -0.00010275 5.41034e-22)
(1.01009 0.00585048 4.68282e-22)
(1.00988 0.0051041 -1.2396e-22)
(1.01385 0.00989717 0)
(1.03861 0.037665 0)
(1.00338 -0.000126953 1.10989e-21)
(1.06439 0.0647283 -1.68401e-20)
(1.00632 0.00127044 5.3297e-23)
(1.01147 0.00812231 6.30988e-22)
(1.02932 0.0238656 -1.40873e-21)
(0.594178 0.00434993 3.05926e-20)
(1.00445 -0.000116605 0)
(1.04781 0.0227543 4.03809e-21)
(1.01097 0.000398808 2.11004e-21)
(1.06134 0.0456281 2.4449e-21)
(1.04958 0.0790793 5.38359e-21)
(1.03707 0.0596504 1.32172e-21)
(1.01825 0.0699248 -3.08766e-21)
(1.0562 -0.0420739 8.59895e-21)
(1.02731 0.0226272 3.66384e-21)
(0.994536 0.0685834 1.67868e-21)
(0.737918 0.0445421 2.49607e-20)
(0.628521 0.160714 0)
(0.414141 0.0197106 0)
(1.00808 0.00170441 -5.12426e-22)
(1.01055 0.00670268 -1.80048e-22)
(1.01879 -0.00651164 6.98351e-22)
(1.02045 0.00815534 2.04143e-21)
(0.868695 0.0608073 0)
(1.00895 -0.00107807 -4.76625e-24)
(0.832799 0.189705 -4.03284e-21)
(1.03506 0.0319208 -4.01441e-21)
(0.820609 0.0457193 -1.93613e-20)
(1.05667 -0.0161072 2.768e-21)
(1.05662 0.0196535 2.55883e-21)
(0.216035 -0.150207 0)
(1.00659 0.00144623 -6.96227e-22)
(1.08503 0.0574121 3.22381e-20)
(1.00193 1.11036e-05 -5.84339e-22)
(1.01225 0.0022737 2.04273e-21)
(0.785844 0.0435422 0)
(1.01039 -0.00157541 0)
(1.09797 0.0620942 0)
(1.00403 -9.27823e-05 -1.50302e-22)
(1.01618 0.000309826 2.37506e-21)
(1.01073 0.00702818 -2.35715e-22)
(1.09757 0.0816098 -2.32901e-20)
(1.01256 0.0110332 6.11728e-22)
(1.00563 -0.000447246 0)
(1.08756 0.0725226 -1.76002e-20)
(1.04395 0.0685687 -8.36858e-21)
(0.894815 -0.238001 -9.9163e-21)
(1.03493 0.0723872 0)
(0.678642 0.0449646 1.8726e-20)
(0.712871 0.160748 -2.5771e-20)
(1.00441 -0.00010131 -1.23416e-22)
(0.42361 0.00722555 -1.60739e-20)
(1.00605 -0.000214843 -2.05805e-22)
(0.502576 0.271103 2.29192e-20)
(0.957563 0.120453 0)
(1.01247 0.0031239 -1.48876e-21)
(1.0198 0.00445253 -2.28908e-22)
(1.0038 -7.04705e-05 2.16597e-22)
(1.04798 0.0495163 -7.58178e-21)
(1.05496 0.0181385 -9.42172e-21)
(1.01031 -0.00151664 0)
(1.00185 3.03778e-05 -7.7464e-22)
(1.01184 0.000392969 -2.98346e-21)
(1.06965 0.0745325 0)
(1.01275 0.00525101 9.6935e-23)
(1.07793 0.0608713 -2.35791e-20)
(1.01681 0.0117407 1.90607e-21)
(1.00553 -0.000447436 0)
(1.00295 -9.85321e-05 -2.86368e-22)
(0.982689 0.150689 0)
(0.957288 0.147358 -1.96346e-20)
(0.251441 -0.124112 0)
(1.06935 0.0746684 -4.50548e-21)
(1.03946 0.0375208 0)
(1.11905 0.139874 -2.94741e-20)
(0.495607 0.0159292 1.29455e-20)
(1.00737 0.000398648 -5.40125e-22)
(0.963549 0.203405 3.21786e-20)
(1.01146 0.000193618 1.47502e-21)
(1.08889 0.0633241 3.72539e-20)
(1.02013 0.00830812 -2.07907e-21)
(1.11016 0.10074 -2.3555e-22)
(1.00965 0.00484078 -2.30997e-22)
(1.01601 0.0101501 -1.27922e-21)
(1.03098 0.00760058 0)
(0.904274 -0.212301 2.21921e-20)
(1.04491 0.05088 -7.39334e-22)
(0.837078 0.0627503 -1.80134e-20)
(1.00313 -9.44032e-05 -7.70454e-22)
(1.043 0.048622 -1.129e-20)
(1.00941 0.00168476 -7.58814e-22)
(1.00302 -0.000108922 2.07309e-22)
(0.538116 0.0110562 0)
(1.10812 -0.0295268 6.2223e-22)
(1.00971 0.00137963 0)
(1.05638 0.116109 1.2356e-20)
(1.01793 0.00187816 -9.20637e-21)
(1.01089 0.00112908 1.39408e-21)
(1.00373 -0.000100261 0)
(0.5615 0.0148867 -3.08568e-20)
(1.01296 0.00521137 6.93673e-22)
(1.00111 0.00670707 3.13102e-21)
(1.00898 -0.00109625 4.56531e-22)
(1.00959 0.00141696 0)
(1.09937 0.100556 -2.48618e-20)
(1.00408 -9.89754e-05 0)
(1.06484 0.1063 5.66704e-21)
(1.00119 -4.12023e-05 -7.02834e-22)
(1.00615 0.00147796 1.44242e-22)
(0.471182 0.270237 -4.04601e-21)
(1.07861 0.0614983 0)
(1.01729 0.0133566 1.27085e-21)
(0.314158 0.00655392 -1.88652e-20)
(1.09661 0.0623369 -5.2644e-22)
(0.909226 0.0104656 0)
(1.00452 0.132807 0)
(1.00643 0.00133201 1.03045e-21)
(1.00757 0.00714637 -5.48434e-22)
(0.5693 -0.00321574 0)
(1.08906 0.0594766 -8.65533e-21)
(1.02049 0.0352454 -2.48129e-22)
(1.01975 0.0244749 -1.04866e-21)
(1.01822 0.0110477 1.54252e-21)
(1.00161 -3.93427e-05 0)
(1.00912 0.00350942 5.28528e-22)
(1.00595 -0.0219205 0)
(1.04725 0.0833855 0)
(1.03146 0.0296047 2.56117e-21)
(0.586582 0.222537 3.50396e-20)
(1.0459 0.0519501 0)
(0.866306 0.0461927 6.13728e-21)
(0.882614 0.189753 8.00497e-21)
(1.05266 0.0207001 0)
(1.03267 0.0448432 -3.15378e-21)
(1.06296 0.12188 -3.06223e-21)
(0.47133 0.0124768 2.22903e-20)
(1.00971 0.000503042 0)
(1.03221 -0.0031726 0)
(1.00865 -0.0298189 0)
(1.00623 0.00150135 9.32272e-23)
(1.0029 -2.82e-05 -2.40507e-22)
(1.00307 -0.000108034 -2.57719e-22)
(1.01293 -0.00684107 -1.28719e-21)
(1.00767 0.000697094 0)
(0.428953 0.00741597 6.01359e-21)
(1.07469 0.0404035 3.38544e-20)
(1.00421 0.000247529 4.82111e-22)
(1.08114 0.0751303 -2.23321e-20)
(1.00334 -9.74008e-05 0)
(0.649856 0.0149013 6.20466e-22)
(1.01076 0.000631082 -1.30527e-21)
(1.00875 0.00265019 0)
(0.57647 0.0428072 1.09036e-20)
(1.0516 0.0750303 -6.89638e-21)
(0.885728 -0.207593 0)
(1.03264 0.00994288 -5.77201e-21)
(1.01499 -0.00133713 6.31417e-22)
(1.00862 0.00196398 6.07131e-22)
(1.03801 0.0132951 5.18164e-21)
(1.05035 0.0381859 5.90045e-22)
(1.00939 0.00473835 -2.08306e-22)
(0.386532 0.00931806 1.87423e-20)
(1.03081 0.0364734 3.04832e-21)
(0.87347 0.188592 1.68076e-21)
(0.898912 -0.194125 3.63986e-21)
(1.03206 0.000734685 0)
(0.679591 0.04675 0)
(1.04055 0.0163938 1.74006e-20)
(1.00248 7.94859e-05 6.93768e-22)
(1.00953 0.00167003 0)
(0.480164 0.0178567 3.67239e-21)
(0.453332 -0.20424 0)
(1.03408 0.0325899 4.50973e-21)
(0.401178 0.00782363 0)
(0.810783 0.0330193 -1.08329e-21)
(1.00615 0.00154187 0)
(1.00857 0.00239581 0)
(1.01787 0.0230134 7.2307e-22)
(0.986458 0.0505706 -3.93282e-20)
(0.922976 -0.185524 4.50441e-21)
(1.04346 0.0513421 -1.54448e-21)
(1.03725 0.0130946 4.3605e-21)
(1.04726 0.023272 0)
(1.08923 0.0635576 -4.45662e-20)
(1.0078 0.0066047 0)
(1.05816 0.10838 -1.93164e-21)
(1.0739 0.0413489 -2.6787e-20)
(1.01696 0.0152799 -1.00567e-21)
(1.03016 0.0192304 -2.38263e-22)
(1.00242 7.62367e-05 6.68356e-22)
(1.04953 0.0376199 0)
(1.00442 0.00556849 1.92286e-21)
(1.08382 0.0635008 0)
(1.02383 0.0281593 -1.10828e-22)
(1.00725 -4.16668e-05 0)
(0.39106 0.00853731 8.86571e-21)
(1.01526 -0.00326433 1.90263e-22)
(0.810251 0.105775 4.00908e-21)
(1.02014 0.0238009 1.10252e-21)
(0.995448 0.0218237 -2.8996e-21)
(1.0381 0.0319958 -1.28113e-20)
(1.08998 0.0598376 0)
(1.00195 -5.90059e-05 -5.17408e-22)
(1.08527 0.0557267 0)
(0.983942 0.143903 0)
(0.904047 -0.117627 1.10532e-22)
(1.02136 0.00822206 -4.16933e-21)
(1.02455 0.0282345 3.33727e-21)
(1.00595 0.000370132 0)
(1.0185 0.006373 0)
(1.03099 0.00647067 0)
(1.02749 0.0142446 0)
(1.01137 0.0105839 0)
(0.982013 0.145302 8.77683e-22)
(1.06256 0.109642 -1.10175e-20)
(1.00626 0.00113405 1.59504e-23)
(1.08017 0.0615288 0)
(1.06172 0.0240931 0)
(1.05783 0.028509 1.29269e-22)
(1.06146 0.117317 2.86916e-21)
(1.01349 0.0109061 8.84419e-23)
(1.0842 0.0577335 0)
(0.97989 -0.100882 9.90887e-22)
(1.00488 -0.000246484 -1.14233e-22)
(1.05342 0.074248 -5.30641e-22)
(0.999962 0.0718326 2.36842e-23)
(1.07245 0.0412408 0)
(1.0083 0.00300374 0)
(1.00696 0.0018871 -6.77206e-22)
(1.00906 0.00342996 0)
(0.425403 0.00854459 0)
(1.02938 0.0181454 4.04503e-21)
(1.0112 0.000822545 0)
(1.0793 0.0454043 4.35105e-21)
(1.00957 0.00499778 2.0991e-22)
(1.00766 0.00219613 0)
(1.03013 0.111964 1.18573e-20)
(1.05188 -0.0767152 -2.52815e-21)
(1.03449 0.0280033 -2.24929e-21)
(0.730572 -0.164439 0)
(1.03736 0.0441059 -8.14747e-22)
(0.969372 0.0601429 1.71026e-20)
(1.03149 0.00610798 1.1175e-20)
(1.01063 0.0128213 0)
(1.12481 0.118437 0)
(1.0116 0.00305297 -1.03171e-23)
(1.01594 -0.0312515 0)
(1.00226 -8.18229e-05 0)
(1.00285 -5.35582e-05 5.04542e-24)
(1.0311 0.0106913 2.46198e-21)
(1.02284 0.0288205 0)
(1.0419 0.0595546 0)
(1.00821 0.0029284 0)
(0.990916 0.0161297 0)
(1.01017 0.0044796 -1.89584e-21)
(0.972269 0.0512276 -1.63366e-20)
(1.02084 0.0241177 1.48282e-21)
(1.05851 0.0314903 8.16988e-21)
(1.0113 -0.00187871 1.45383e-21)
(1.07038 0.0775391 2.95588e-21)
(1.01028 0.0101313 0)
(0.8498 0.158333 1.07627e-21)
(1.03992 0.0273535 3.89941e-21)
(1.00145 -3.32581e-05 0)
(0.608186 0.00107479 0)
(1.02956 0.0199602 -6.16363e-21)
(0.43999 0.0120236 0)
(1.05501 0.0163657 0)
(1.06855 0.0419707 1.47964e-21)
(1.00882 0.0077224 -1.58799e-21)
(1.00782 0.00121037 5.36745e-22)
(1.02113 0.007781 -2.14584e-21)
(0.711243 0.0378685 -4.2726e-20)
(1.0476 0.0375877 -1.20787e-20)
(0.899171 0.0246121 0)
(0.807717 -0.0883904 -1.21592e-20)
(1.01826 0.0061803 0)
(1.07195 0.0422055 8.21277e-21)
(1.00968 -0.00115582 3.26574e-23)
(1.01858 -0.00719986 -4.47677e-22)
(0.860798 -0.147181 -4.47899e-21)
(1.01002 -0.00127027 2.08782e-23)
(0.613021 0.190483 4.16033e-20)
(1.04955 0.0225175 2.42104e-22)
(1.08139 0.0395275 -2.23356e-21)
(1.07989 0.0854988 0)
(0.898108 -0.0139591 0)
(1.0065 -0.00037594 8.67268e-22)
(1.00309 5.03052e-06 7.05438e-22)
(0.974044 0.0561004 3.51951e-21)
(1.00643 0.00123548 -7.61622e-22)
(1.01635 0.0119419 0)
(1.02337 0.0221175 1.1473e-21)
(1.01025 0.00614154 1.28235e-21)
(1.07858 0.0462346 2.49325e-21)
(1.00635 -0.000376162 -1.07245e-21)
(1.06311 0.100181 -1.09886e-21)
(1.0165 0.0149993 -2.09501e-22)
(0.458313 0.00671726 -1.05675e-20)
(0.431908 0.011541 0)
(0.946186 0.0743863 0)
(0.954173 0.0564514 4.27268e-21)
(0.583269 -0.246489 0)
(0.443523 0.0060969 -5.4184e-21)
(0.894735 0.0439292 2.69257e-21)
(1.00558 0.00113484 -4.5928e-22)
(1.01048 0.000273866 0)
(1.02506 0.00953317 0)
(1.02615 0.0200947 0)
(1.01135 0.00417051 -2.17039e-21)
(1.04858 0.0382193 1.01442e-20)
(1.01273 0.0064405 -1.17331e-21)
(0.909603 0.0693689 3.50966e-21)
(1.01667 0.0123847 -8.08578e-22)
(1.10505 0.0648904 1.82654e-20)
(1.02926 0.0173398 0)
(1.07259 0.0345362 0)
(0.984812 0.0379569 0)
(1.00836 0.00139258 -5.9527e-22)
(1.02801 0.0346287 2.21054e-22)
(1.02908 0.020134 -7.67085e-22)
(1.014 0.00189898 7.11179e-22)
(1.04259 0.0326194 0)
(1.01285 -0.00227078 0)
(0.679774 0.0522584 -2.94713e-20)
(1.04744 0.0865648 -6.76099e-21)
(0.988017 -0.0114627 -1.16502e-21)
(1.0084 0.00211783 -2.74905e-22)
(1.02361 0.00163552 0)
(1.01081 0.00769499 -8.497e-22)
(1.01014 0.00467941 2.95629e-21)
(0.658756 0.201918 3.82116e-20)
(1.00578 0.00129543 -2.27234e-22)
(1.09284 -0.0381348 0)
(1.00959 0.00469026 2.3682e-22)
(0.943762 -0.132641 -5.06335e-21)
(1.01363 0.00918667 -1.37279e-21)
(1.01119 0.00626771 0)
(1.08562 0.0564395 2.62239e-22)
(1.01024 -0.0176511 0)
(1.00593 0.00140492 0)
(0.898098 -0.162804 0)
(0.994147 0.195056 0)
(1.01452 0.0201431 -4.86701e-22)
(1.07293 0.0754811 2.45867e-20)
(1.00648 0.000978394 -8.23961e-22)
(1.082 -0.0216117 2.60897e-21)
(1.01464 -0.00220367 6.25232e-22)
(1.01008 0.00509518 -2.03469e-21)
(0.502972 0.00772009 1.86791e-20)
(1.00245 -5.88147e-05 -8.97573e-22)
(1.03528 0.0173419 2.06306e-21)
(1.0797 0.0756972 1.35595e-22)
(0.489284 0.00757311 0)
(1.01554 -0.00221561 0)
(0.849384 0.0291587 -3.45267e-22)
(1.11868 0.118973 0)
(1.01389 -0.000674936 0)
(1.01175 0.0102796 0)
(1.01041 0.00644794 -6.44868e-22)
(1.07447 0.0641611 0)
(1.02266 0.00201201 0)
(1.08899 0.0728636 0)
(1.0255 0.0122046 -1.0591e-22)
(0.559771 0.0381466 -1.05215e-20)
(1.01203 0.0092141 0)
(0.759184 0.166196 1.19134e-20)
(1.00934 0.00311093 0)
(1.01054 -0.00151416 -2.75936e-22)
(1.04703 -0.0159971 -2.19135e-21)
(1.00812 0.000506073 0)
(1.01543 -0.0034552 -3.90199e-22)
(0.779305 0.0465697 4.8424e-21)
(1.01971 0.0203743 1.84545e-21)
(1.00744 0.0023754 2.31956e-22)
(0.889748 0.116907 0)
(1.01394 -0.000186698 0)
(1.01039 -0.000244175 6.84438e-22)
(1.04976 0.082121 -6.54227e-21)
(1.022 0.0220395 0)
(0.854902 0.0601381 0)
(1.02736 0.0357927 -9.24354e-23)
(1.08706 0.0597987 -1.58613e-20)
(0.998901 0.125841 5.60595e-21)
(1.04622 0.0230761 -8.07187e-21)
(0.576007 0.0336535 0)
(1.01647 0.0159097 -2.00105e-21)
(1.05168 0.0779202 6.23076e-21)
(1.02033 0.00467677 -4.54132e-23)
(0.42048 0.0153217 0)
(0.959298 -0.130846 3.68781e-22)
(1.03454 0.00975865 -6.69437e-21)
(1.01441 -0.00244833 -9.47273e-22)
(1.01259 0.00139828 -2.10075e-21)
(1.01792 0.0140859 1.43646e-21)
(1.01369 -0.00231748 9.95363e-22)
(1.00979 -0.000683589 1.52112e-21)
(1.00984 -0.000593976 6.13056e-22)
(1.02121 0.00716787 -2.89264e-23)
(1.03683 0.0379252 0)
(1.00481 -0.000240112 0)
(1.01992 0.0198432 7.5831e-22)
(1.07717 0.0678455 -2.52741e-20)
(0.669119 0.161245 0)
(0.826782 0.147968 -4.73157e-20)
(1.07814 0.0745649 0)
(1.011 0.00799596 -9.04141e-22)
(1.04102 -0.0391567 1.87809e-21)
(1.01221 0.00566642 -2.53612e-22)
(1.12347 0.112419 2.68392e-20)
(0.840684 -0.047191 -7.35975e-21)
(0.210392 0.00502026 2.08056e-20)
(1.00862 -0.00107355 -5.0321e-22)
(1.00572 0.00123759 4.58196e-22)
(1.01475 0.00120459 0)
(1.01415 0.0103167 5.98715e-23)
(1.00845 -0.00104978 4.73586e-22)
(1.0125 -0.00236375 1.09778e-21)
(1.01472 0.00611304 -3.5234e-21)
(1.03192 0.0457997 3.39747e-21)
(1.00757 0.00243893 -2.9902e-22)
(0.336634 -0.0646266 0)
(0.888358 0.0935923 6.25554e-22)
(1.00772 0.00286982 0)
(0.737602 0.0414963 2.61898e-20)
(1.02076 0.00479823 4.09599e-21)
(1.00915 0.00320698 -6.44623e-22)
(1.02047 -0.0130871 -2.61856e-21)
(0.577972 0.0158942 1.48354e-20)
(1.02035 0.0262896 0)
(1.00356 -0.00014401 0)
(0.887032 -0.208272 -7.11381e-21)
(1.00926 0.00088658 -5.85399e-22)
(1.00916 0.00290363 2.95111e-22)
(1.07837 0.0589784 0)
(1.01058 0.000745283 0)
(0.923926 -0.0869877 9.17201e-21)
(1.03609 0.0177824 7.8393e-21)
(1.10454 0.0528087 0)
(1.00732 0.00214546 0)
(1.01049 -0.00103368 -1.70153e-21)
(1.02445 0.0354586 -6.36938e-22)
(0.923243 -0.0123561 0)
(1.02752 0.0221177 0)
(0.515478 0.0184944 3.99441e-21)
(0.996542 -0.00954635 -1.04949e-22)