/*--------------------------------*- C++ -*----------------------------------*\
| =========                 |                                                 |
| \\      /  F ield         | OpenFOAM: The Open Source CFD Toolbox           |
|  \\    /   O peration     | Version:  v2012                                 |
|   \\  /    A nd           | Website:  www.openfoam.com                      |
|    \\/     M anipulation  |                                                 |
\*---------------------------------------------------------------------------*/
FoamFile
{
    version     2.0;
    format      ascii;
    class       pointVectorField;
    location    "700";
    object      pointDisplacement;
}
// * * * * * * * * * * * * * * * * * * * * * * * * * * * * * * * * * * * * * //

dimensions      [0 1 0 0 0 0 0];


internalField   nonuniform List<vector> 
14324
(
(0 0 0)
(-0 -0.0612811 -0)
(0 0 0)
(-0 -0.0612811 -0)
(0 0 0)
(0 0 0)
(0 0 0)
(0 0 0)
(0 0 0)
(0 0 0)
(0 0 0)
(0 0 0)
(0 0 0)
(0 0 0)
(0 0 0)
(0 0 0)
(0 0 0)
(0 0 0)
(0 0 0)
(0 0 0)
(0 0 0)
(0 0 0)
(0 0 0)
(0 0 0)
(0 0 0)
(0 0 0)
(0 0 0)
(0 0 0)
(0 0 0)
(0 0 0)
(0 0 0)
(0 0 0)
(0 0 0)
(0 0 0)
(0 0 0)
(0 0 0)
(0 0 0)
(0 0 0)
(0 0 0)
(0 0 0)
(0 0 0)
(0 0 0)
(0 0 0)
(0 0 0)
(0 0 0)
(0 0 0)
(0 0 0)
(0 0 0)
(0 0 0)
(0 0 0)
(0 0 0)
(0 0 0)
(0 0 0)
(0 0 0)
(0 0 0)
(0 0 0)
(0 0 0)
(0 0 0)
(0 0 0)
(0 0 0)
(0 0 0)
(0 0 0)
(0 0 0)
(0 0 0)
(0 0 0)
(0 0 0)
(0 0 0)
(0 0 0)
(0 0 0)
(0 0 0)
(0 0 0)
(0 0 0)
(0 0 0)
(0 0 0)
(0 0 0)
(0 0 0)
(-0 -0.0612811 -0)
(-0 -0.0612811 -0)
(-0 -0.0612811 -0)
(-0 -0.0612811 -0)
(-0 -0.0612811 -0)
(-0 -0.0612811 -0)
(-0 -0.0612811 -0)
(-0 -0.0612811 -0)
(-0 -0.0612811 -0)
(-0 -0.0612811 -0)
(-0 -0.0612811 -0)
(-0 -0.0612811 -0)
(-0 -0.0612811 -0)
(-0 -0.0612811 -0)
(-0 -0.0612811 -0)
(-0 -0.0612811 -0)
(-0 -0.0612811 -0)
(-0 -0.0612811 -0)
(-0 -0.0612811 -0)
(-0 -0.0612811 -0)
(-0 -0.0612811 -0)
(-0 -0.0612811 -0)
(-0 -0.0612811 -0)
(-0 -0.0612811 -0)
(-0 -0.0612811 -0)
(-0 -0.0612811 -0)
(-0 -0.0612811 -0)
(-0 -0.0612811 -0)
(-0 -0.0612811 -0)
(-0 -0.0612811 -0)
(-0 -0.0612811 -0)
(-0 -0.0612811 -0)
(-0 -0.0612811 -0)
(-0 -0.0612811 -0)
(-0 -0.0612811 -0)
(-0 -0.0612811 -0)
(-0 -0.0612811 -0)
(-0 -0.0612811 -0)
(-0 -0.0612811 -0)
(-0 -0.0612811 -0)
(-0 -0.0612811 -0)
(-0 -0.0612811 -0)
(-0 -0.0612811 -0)
(-0 -0.0612811 -0)
(-0 -0.0612811 -0)
(-0 -0.0612811 -0)
(-0 -0.0612811 -0)
(-0 -0.0612811 -0)
(-0 -0.0612811 -0)
(-0 -0.0612811 -0)
(-0 -0.0612811 -0)
(-0 -0.0612811 -0)
(-0 -0.0612811 -0)
(-0 -0.0612811 -0)
(-0 -0.0612811 -0)
(-0 -0.0612811 -0)
(-0 -0.0612811 -0)
(-0 -0.0612811 -0)
(-0 -0.0612811 -0)
(-0 -0.0612811 -0)
(-0 -0.0612811 -0)
(-0 -0.0612811 -0)
(-0 -0.0612811 -0)
(-0 -0.0612811 -0)
(-0 -0.0612811 -0)
(-0 -0.0612811 -0)
(-0 -0.0612811 -0)
(-0 -0.0612811 -0)
(-0 -0.0612811 -0)
(-0 -0.0612811 -0)
(-0 -0.0612811 -0)
(-0 -0.0612811 -0)
(-0 -0.0612811 -0)
(-0 -0.0612811 -0)
(-0 -0.0612811 -0)
(-0 -0.0612811 -0)
(-0 -0.0612811 -0)
(-0 -0.0612811 -0)
(-0 -0.0612811 -0)
(-0 -0.0612811 -0)
(-0 -0.0612811 -0)
(-0 -0.0612811 -0)
(-0 -0.0612811 -0)
(-0 -0.0612811 -0)
(-0 -0.0612811 -0)
(-0 -0.0612811 -0)
(-0 -0.0612811 -0)
(-0 -0.0612811 -0)
(-0 -0.0612811 -0)
(-0 -0.0612811 -0)
(-0 -0.0612811 -0)
(-0 -0.0612811 -0)
(-0 -0.0612811 -0)
(-0 -0.0612811 -0)
(-0 -0.0612811 -0)
(-0 -0.0612811 -0)
(-0 -0.0612811 -0)
(-0 -0.0612811 -0)
(-0 -0.0612811 -0)
(-0 -0.0612811 -0)
(-0 -0.0612811 -0)
(-0 -0.0612811 -0)
(-0 -0.0612811 -0)
(-0 -0.0612811 -0)
(-0 -0.0612811 -0)
(-0 -0.0612811 -0)
(-0 -0.0612811 -0)
(-0 -0.0612811 -0)
(-0 -0.0612811 -0)
(-0 -0.0612811 -0)
(-0 -0.0612811 -0)
(-0 -0.0612811 -0)
(-0 -0.0612811 -0)
(-0 -0.0612811 -0)
(-0 -0.0612811 -0)
(-0 -0.0612811 -0)
(-0 -0.0612811 -0)
(-0 -0.0612811 -0)
(-0 -0.0612811 -0)
(-0 -0.0612811 -0)
(-0 -0.0612811 -0)
(-0 -0.0612811 -0)
(-0 -0.0612811 -0)
(-0 -0.0612811 -0)
(-0 -0.0612811 -0)
(-0 -0.0612811 -0)
(-0 -0.0612811 -0)
(-0 -0.0612811 -0)
(-0 -0.0612811 -0)
(-0 -0.0612811 -0)
(-0 -0.0612811 -0)
(-0 -0.0612811 -0)
(-0 -0.0612811 -0)
(-0 -0.0612811 -0)
(-0 -0.0612811 -0)
(-0 -0.0612811 -0)
(-0 -0.0612811 -0)
(-0 -0.0612811 -0)
(-0 -0.0612811 -0)
(-0 -0.0612811 -0)
(-0 -0.0612811 -0)
(-0 -0.0612811 -0)
(-0 -0.0612811 -0)
(-0 -0.0612811 -0)
(-0 -0.0612811 -0)
(-0 -0.0612811 -0)
(-0 -0.0612811 -0)
(-0 -0.0612811 -0)
(-0 -0.0612811 -0)
(-0 -0.0612811 -0)
(-0 -0.0612811 -0)
(0 0 0)
(0 0 0)
(0 0 0)
(0 0 0)
(0 0 0)
(0 0 0)
(0 0 0)
(0 0 0)
(0 0 0)
(0 0 0)
(0 0 0)
(0 0 0)
(0 0 0)
(0 0 0)
(0 0 0)
(0 0 0)
(0 0 0)
(0 0 0)
(0 0 0)
(0 0 0)
(0 0 0)
(0 0 0)
(0 0 0)
(0 0 0)
(0 0 0)
(0 0 0)
(0 0 0)
(0 0 0)
(0 0 0)
(0 0 0)
(0 0 0)
(0 0 0)
(0 0 0)
(0 0 0)
(0 0 0)
(0 0 0)
(0 0 0)
(0 0 0)
(0 0 0)
(0 0 0)
(0 0 0)
(0 0 0)
(0 0 0)
(0 0 0)
(0 0 0)
(0 0 0)
(0 0 0)
(0 0 0)
(0 0 0)
(0 0 0)
(0 0 0)
(0 0 0)
(0 0 0)
(0 0 0)
(0 0 0)
(0 0 0)
(0 0 0)
(0 0 0)
(0 0 0)
(0 0 0)
(0 0 0)
(0 0 0)
(0 0 0)
(0 0 0)
(0 0 0)
(0 0 0)
(0 0 0)
(0 0 0)
(0 0 0)
(0 0 0)
(0 0 0)
(0 0 0)
(-0 -0.0612811 -0)
(-0 -0.0612811 -0)
(-0 -0.0612811 -0)
(-0 -0.0612811 -0)
(-0 -0.0612811 -0)
(-0 -0.0612811 -0)
(-0 -0.0612811 -0)
(-0 -0.0612811 -0)
(-0 -0.0612811 -0)
(-0 -0.0612811 -0)
(-0 -0.0612811 -0)
(-0 -0.0612811 -0)
(-0 -0.0612811 -0)
(-0 -0.0612811 -0)
(-0 -0.0612811 -0)
(-0 -0.0612811 -0)
(-0 -0.0612811 -0)
(-0 -0.0612811 -0)
(-0 -0.0612811 -0)
(-0 -0.0612811 -0)
(-0 -0.0612811 -0)
(-0 -0.0612811 -0)
(-0 -0.0612811 -0)
(-0 -0.0612811 -0)
(-0 -0.0612811 -0)
(-0 -0.0612811 -0)
(-0 -0.0612811 -0)
(-0 -0.0612811 -0)
(-0 -0.0612811 -0)
(-0 -0.0612811 -0)
(-0 -0.0612811 -0)
(-0 -0.0612811 -0)
(-0 -0.0612811 -0)
(-0 -0.0612811 -0)
(-0 -0.0612811 -0)
(-0 -0.0612811 -0)
(-0 -0.0612811 -0)
(-0 -0.0612811 -0)
(-0 -0.0612811 -0)
(-0 -0.0612811 -0)
(-0 -0.0612811 -0)
(-0 -0.0612811 -0)
(-0 -0.0612811 -0)
(-0 -0.0612811 -0)
(-0 -0.0612811 -0)
(-0 -0.0612811 -0)
(-0 -0.0612811 -0)
(-0 -0.0612811 -0)
(-0 -0.0612811 -0)
(-0 -0.0612811 -0)
(-0 -0.0612811 -0)
(-0 -0.0612811 -0)
(-0 -0.0612811 -0)
(-0 -0.0612811 -0)
(-0 -0.0612811 -0)
(-0 -0.0612811 -0)
(-0 -0.0612811 -0)
(-0 -0.0612811 -0)
(-0 -0.0612811 -0)
(-0 -0.0612811 -0)
(-0 -0.0612811 -0)
(-0 -0.0612811 -0)
(-0 -0.0612811 -0)
(-0 -0.0612811 -0)
(-0 -0.0612811 -0)
(-0 -0.0612811 -0)
(-0 -0.0612811 -0)
(-0 -0.0612811 -0)
(-0 -0.0612811 -0)
(-0 -0.0612811 -0)
(-0 -0.0612811 -0)
(-0 -0.0612811 -0)
(-0 -0.0612811 -0)
(-0 -0.0612811 -0)
(-0 -0.0612811 -0)
(-0 -0.0612811 -0)
(-0 -0.0612811 -0)
(-0 -0.0612811 -0)
(-0 -0.0612811 -0)
(-0 -0.0612811 -0)
(-0 -0.0612811 -0)
(-0 -0.0612811 -0)
(-0 -0.0612811 -0)
(-0 -0.0612811 -0)
(-0 -0.0612811 -0)
(-0 -0.0612811 -0)
(-0 -0.0612811 -0)
(-0 -0.0612811 -0)
(-0 -0.0612811 -0)
(-0 -0.0612811 -0)
(-0 -0.0612811 -0)
(-0 -0.0612811 -0)
(-0 -0.0612811 -0)
(-0 -0.0612811 -0)
(-0 -0.0612811 -0)
(-0 -0.0612811 -0)
(-0 -0.0612811 -0)
(-0 -0.0612811 -0)
(-0 -0.0612811 -0)
(-0 -0.0612811 -0)
(-0 -0.0612811 -0)
(-0 -0.0612811 -0)
(-0 -0.0612811 -0)
(-0 -0.0612811 -0)
(-0 -0.0612811 -0)
(-0 -0.0612811 -0)
(-0 -0.0612811 -0)
(-0 -0.0612811 -0)
(-0 -0.0612811 -0)
(-0 -0.0612811 -0)
(-0 -0.0612811 -0)
(-0 -0.0612811 -0)
(-0 -0.0612811 -0)
(-0 -0.0612811 -0)
(-0 -0.0612811 -0)
(-0 -0.0612811 -0)
(-0 -0.0612811 -0)
(-0 -0.0612811 -0)
(-0 -0.0612811 -0)
(-0 -0.0612811 -0)
(-0 -0.0612811 -0)
(-0 -0.0612811 -0)
(-0 -0.0612811 -0)
(-0 -0.0612811 -0)
(-0 -0.0612811 -0)
(-0 -0.0612811 -0)
(-0 -0.0612811 -0)
(-0 -0.0612811 -0)
(-0 -0.0612811 -0)
(-0 -0.0612811 -0)
(-0 -0.0612811 -0)
(-0 -0.0612811 -0)
(-0 -0.0612811 -0)
(-0 -0.0612811 -0)
(-0 -0.0612811 -0)
(-0 -0.0612811 -0)
(-0 -0.0612811 -0)
(-0 -0.0612811 -0)
(-0 -0.0612811 -0)
(-0 -0.0612811 -0)
(-0 -0.0612811 -0)
(-0 -0.0612811 -0)
(-0 -0.0612811 -0)
(-0 -0.0612811 -0)
(-0 -0.0612811 -0)
(-0 -0.0612811 -0)
(-0 -0.0612811 -0)
(-0 -0.0612811 -0)
(-0 -0.0612811 -0)
(-0 -0.0612811 -0)
(-0 -0.0612811 -0)
(0 -0.0612811 0)
(0 -0.0612811 0)
(0 -0.0612811 0)
(0 -0.0612811 0)
(0 -0.0612811 0)
(0 -0.0612809 0)
(0 -0.0612811 0)
(0 -0.061281 0)
(0 -0.061281 0)
(0 -0.0612811 0)
(0 -0.0612811 0)
(0 -0.061281 0)
(0 -0.0612811 0)
(0 -0.0612811 0)
(0 -0.0612811 0)
(0 -0.0612807 0)
(0 -0.0612804 0)
(0 -0.00353398 0)
(0 -0.00392439 0)
(0 -0.00401755 0)
(0 -0.00405626 0)
(0 -0.00429512 0)
(0 -0.00471321 0)
(0 -0.061281 0)
(0 -0.00260281 0)
(0 -0.00284379 0)
(0 -0.00490063 0)
(0 -0.00407709 0)
(0 -0.0021595 0)
(0 -0.0612809 0)
(0 -0.0612811 0)
(0 -0.061281 0)
(0 -0.0612811 0)
(0 -0.0612811 0)
(0 -0.0612811 0)
(0 -0.0612811 0)
(0 -0.061281 0)
(0 -0.0612811 0)
(0 -0.0612811 0)
(0 -0.0612811 0)
(0 -0.0612811 0)
(0 -0.061281 0)
(0 -0.0612811 0)
(0 -0.0612811 0)
(0 -0.00212111 0)
(0 -0.00417349 0)
(0 -0.00372191 0)
(0 -0.00393221 0)
(0 -0.0014534 0)
(0 -0.00160288 0)
(0 -0.0612809 0)
(0 -0.000813627 0)
(0 -0.00453877 0)
(0 -0.00476225 0)
(0 -0.00322398 0)
(0 -0.00418146 0)
(0 -0.00381993 0)
(0 -0.00481277 0)
(0 -0.00257252 0)
(0 -0.00300126 0)
(0 -0.00250051 0)
(0 -0.00186415 0)
(0 -0.000918073 0)
(0 -0.00033728 0)
(0 -0.0589465 0)
(0 -0.0586872 0)
(0 -0.0589097 0)
(0 -0.0586466 0)
(0 -0.0589012 0)
(0 -0.0585549 0)
(0 -0.0588133 0)
(0 -0.0585314 0)
(0 -0.058762 0)
(0 -0.0584686 0)
(0 -0.0587008 0)
(0 -0.0584216 0)
(0 -0.0586389 0)
(0 -0.058364 0)
(0 -0.0585761 0)
(0 -0.0582858 0)
(0 -0.0585068 0)
(0 -0.0582149 0)
(0 -0.0584284 0)
(0 -0.0581171 0)
(0 -0.0583467 0)
(0 -0.0580155 0)
(0 -0.0582515 0)
(0 -0.0579314 0)
(0 -0.0581462 0)
(0 -0.0578224 0)
(0 -0.0580421 0)
(0 -0.0577072 0)
(0 -0.0579316 0)
(0 -0.057591 0)
(0 -0.0578092 0)
(0 -0.0574501 0)
(0 -0.0576624 0)
(0 -0.0573002 0)
(0 -0.0575157 0)
(0 -0.0571473 0)
(0 -0.0573764 0)
(0 -0.0569767 0)
(0 -0.0572285 0)
(0 -0.0567992 0)
(0 -0.0570559 0)
(0 -0.0566245 0)
(0 -0.0568726 0)
(0 -0.0582208 0)
(0 -0.057727 0)
(0 -0.0570771 0)
(0 -0.0564226 0)
(0 -0.0566689 0)
(0 -0.0562061 0)
(0 -0.0564531 0)
(0 -0.0559135 0)
(0 -0.0559777 0)
(0 -0.0562215 0)
(0 -0.0557096 0)
(0 -0.0559663 0)
(0 -0.0554167 0)
(0 -0.0556844 0)
(0 -0.0550976 0)
(0 -0.05538 0)
(0 -0.0576609 0)
(0 -0.0582591 0)
(0 -0.0567085 0)
(0 -0.0547593 0)
(0 -0.0550505 0)
(0 -0.0543989 0)
(0 -0.0546913 0)
(0 -0.0553249 0)
(0 -0.0549631 0)
(0 -0.0555783 0)
(0 -0.0552193 0)
(0 -0.0545713 0)
(0 -0.05482 0)
(0 -0.0541572 0)
(0 -0.0543967 0)
(0 -0.0550184 0)
(0 -0.0546092 0)
(0 -0.0552172 0)
(0 -0.0539841 0)
(0 -0.058704 0)
(0 -0.0548047 0)
(0 -0.055394 0)
(0 -0.0549823 0)
(0 -0.055557 0)
(0 -0.0551419 0)
(0 -0.0557331 0)
(0 -0.0552779 0)
(0 -0.055849 0)
(0 -0.0590464 0)
(0 -0.0553763 0)
(0 -0.0559327 0)
(0 -0.0554422 0)
(0 -0.0548399 0)
(0 -0.0559964 0)
(0 -0.0554913 0)
(0 -0.0560517 0)
(0 -0.0562909 0)
(0 -0.0555209 0)
(0 -0.0560705 0)
(0 -0.0555192 0)
(0 -0.0560464 0)
(0 -0.0554845 0)
(0 -0.056015 0)
(0 -0.0544562 0)
(0 -0.0554359 0)
(0 -0.0559491 0)
(0 -0.054875 0)
(0 -0.0553398 0)
(0 -0.0558422 0)
(0 -0.0551958 0)
(0 -0.0565584 0)
(0 -0.0557116 0)
(0 -0.0550393 0)
(0 -0.0563197 0)
(0 -0.05619 0)
(0 -0.0567664 0)
(0 -0.0566431 0)
(0 -0.0571738 0)
(0 -0.0570543 0)
(0 -0.0575159 0)
(0 -0.0573948 0)
(0 -0.0578323 0)
(0 -0.057706 0)
(0 -0.0571925 0)
(0 -0.0581425 0)
(0 -0.0580016 0)
(0 -0.0584097 0)
(0 -0.0582597 0)
(0 -0.0586448 0)
(0 -0.0587764 0)
(0 -0.0589878 0)
(0 -0.0591019 0)
(0 -0.0588585 0)
(0 -0.0591759 0)
(0 -0.0590512 0)
(0 -0.0593429 0)
(0 -0.0592179 0)
(0 -0.0594899 0)
(0 -0.0593625 0)
(0 -0.0596211 0)
(0 -0.0594937 0)
(0 -0.0592196 0)
(0 -0.0593481 0)
(0 -0.0597348 0)
(0 -0.0596119 0)
(0 -0.0594667 0)
(0 -0.0597165 0)
(0 -0.059566 0)
(0 -0.0597993 0)
(0 -0.0596199 0)
(0 -0.0598702 0)
(0 -0.059737 0)
(0 -0.0599411 0)
(0 -0.0598104 0)
(0 -0.0599979 0)
(0 -0.0590575 0)
(0 -0.0600734 0)
(0 -0.059621 0)
(0 -0.0612031 0)
(0 -0.0611898 0)
(0 -0.0612047 0)
(0 -0.0611916 0)
(0 -0.0612062 0)
(0 -0.0611933 0)
(0 -0.0612077 0)
(0 -0.0611947 0)
(0 -0.0612084 0)
(0 -0.0611959 0)
(0 -0.0612091 0)
(0 -0.061197 0)
(0 -0.0611822 0)
(0 -0.0611835 0)
(0 -0.0611717 0)
(0 -0.0611981 0)
(0 -0.0611852 0)
(0 -0.0611993 0)
(0 -0.0611866 0)
(0 -0.0612002 0)
(0 -0.0611869 0)
(0 -0.0612009 0)
(0 -0.0611877 0)
(0 -0.0612015 0)
(0 -0.0611886 0)
(0 -0.0612022 0)
(0 -0.06119 0)
(0 -0.0612028 0)
(0 -0.0611905 0)
(0 -0.0612031 0)
(0 -0.0611902 0)
(0 -0.0612032 0)
(0 -0.0611902 0)
(0 -0.0612031 0)
(0 -0.0611902 0)
(0 -0.0612031 0)
(0 -0.0611902 0)
(0 -0.0611757 0)
(0 -0.0611763 0)
(0 -0.0611758 0)
(0 -0.0611669 0)
(0 -0.0611909 0)
(0 -0.0611766 0)
(0 -0.0611911 0)
(0 -0.0611764 0)
(0 -0.0611909 0)
(0 -0.0611762 0)
(0 -0.0611905 0)
(0 -0.0611762 0)
(0 -0.0611903 0)
(0 -0.0611764 0)
(0 -0.0611904 0)
(0 -0.0611762 0)
(0 -0.0611903 0)
(0 -0.0611756 0)
(0 -0.0611899 0)
(0 -0.0611749 0)
(0 -0.0611894 0)
(0 -0.0611746 0)
(0 -0.0611581 0)
(0 -0.0611577 0)
(0 -0.0611605 0)
(0 -0.061177 0)
(0 -0.0611574 0)
(0 -0.0611736 0)
(0 -0.0611563 0)
(0 -0.0611729 0)
(0 -0.0611554 0)
(0 -0.0611724 0)
(0 -0.061155 0)
(0 -0.0611723 0)
(0 -0.061154 0)
(0 -0.061171 0)
(0 -0.0611521 0)
(0 -0.0611693 0)
(0 -0.0611506 0)
(0 -0.0611681 0)
(0 -0.0611491 0)
(0 -0.0611668 0)
(0 -0.0611473 0)
(0 -0.0611273 0)
(0 -0.061125 0)
(0 -0.0611358 0)
(0 -0.0611456 0)
(0 -0.0611227 0)
(0 -0.0611437 0)
(0 -0.0611209 0)
(0 -0.0611416 0)
(0 -0.0611181 0)
(0 -0.0610968 0)
(0 -0.0611391 0)
(0 -0.0611143 0)
(0 -0.0611364 0)
(0 -0.0611108 0)
(0 -0.0611333 0)
(0 -0.061107 0)
(0 -0.0611298 0)
(0 -0.0611026 0)
(0 -0.0610768 0)
(0 -0.0610716 0)
(0 -0.0610981 0)
(0 -0.0610664 0)
(0 -0.0610931 0)
(0 -0.06106 0)
(0 -0.0610873 0)
(0 -0.0610524 0)
(0 -0.0610228 0)
(0 -0.061011 0)
(0 -0.0610439 0)
(0 -0.0610002 0)
(0 -0.0610341 0)
(0 -0.0609895 0)
(0 -0.0610252 0)
(0 -0.0609787 0)
(0 -0.0610155 0)
(0 -0.0609599 0)
(0 -0.0609665 0)
(0 -0.0610034 0)
(0 -0.0609543 0)
(0 -0.0609909 0)
(0 -0.0609385 0)
(0 -0.0609745 0)
(0 -0.0609034 0)
(0 -0.0609177 0)
(0 -0.0609542 0)
(0 -0.060894 0)
(0 -0.0609336 0)
(0 -0.0608684 0)
(0 -0.0611887 0)
(0 -0.0611838 0)
(0 -0.0609103 0)
(0 -0.0608391 0)
(0 -0.0612026 0)
(0 -0.0612049 0)
(0 -0.0611586 0)
(0 -0.0611602 0)
(0 -0.0611396 0)
(0 -0.0610592 0)
(0 -0.0612146 0)
(0 -0.0612139 0)
(0 -0.060882 0)
(0 -0.0608052 0)
(0 -0.0607575 0)
(0 -0.0607177 0)
(0 -0.060665 0)
(0 -0.0610055 0)
(0 -0.061218 0)
(0 -0.0608495 0)
(0 -0.0612163 0)
(0 -0.0609218 0)
(0 -0.0606178 0)
(0 -0.0605598 0)
(0 -0.0608886 0)
(0 -0.0609562 0)
(0 -0.0609228 0)
(0 -0.0433313 0)
(0 -0.0609856 0)
(0 -0.0609527 0)
(0 -0.061012 0)
(0 -0.0605029 0)
(0 -0.0604407 0)
(0 -0.0417365 0)
(0 -0.0429869 0)
(0 -0.0609792 0)
(0 -0.0610344 0)
(0 -0.0610631 0)
(0 -0.0413672 0)
(0 -0.0426388 0)
(0 -0.0441766 0)
(0 -0.0438365 0)
(0 -0.0422762 0)
(0 -0.0434824 0)
(0 -0.0418975 0)
(0 -0.0431029 0)
(0 -0.041491 0)
(0 -0.0426962 0)
(0 -0.0410495 0)
(0 -0.0422651 0)
(0 -0.0609176 0)
(0 -0.0610015 0)
(0 -0.0610538 0)
(0 -0.0610193 0)
(0 -0.0610694 0)
(0 -0.0452906 0)
(0 -0.0610341 0)
(0 -0.061081 0)
(0 -0.0405792 0)
(0 -0.0418059 0)
(0 -0.0610461 0)
(0 -0.0610909 0)
(0 -0.0610546 0)
(0 -0.0610968 0)
(0 -0.0610081 0)
(0 -0.0438251 0)
(0 -0.0400787 0)
(0 -0.0413214 0)
(0 -0.0603762 0)
(0 -0.0603072 0)
(0 -0.0610589 0)
(0 -0.0610988 0)
(0 -0.0455551 0)
(0 -0.0468634 0)
(0 -0.0455981 0)
(0 -0.0468427 0)
(0 -0.0456411 0)
(0 -0.046855 0)
(0 -0.0456314 0)
(0 -0.0395489 0)
(0 -0.040807 0)
(0 -0.0389913 0)
(0 -0.0402637 0)
(0 -0.0419801 0)
(0 -0.0414504 0)
(0 -0.0396987 0)
(0 -0.0408994 0)
(0 -0.0391073 0)
(0 -0.0403243 0)
(0 -0.0384946 0)
(0 -0.0397534 0)
(0 -0.0468932 0)
(0 -0.0455549 0)
(0 -0.0378678 0)
(0 -0.0391146 0)
(0 -0.0611119 0)
(0 -0.061061 0)
(0 -0.0611049 0)
(0 -0.0371884 0)
(0 -0.0384026 0)
(0 -0.0602371 0)
(0 -0.0601575 0)
(0 -0.0602288 0)
(0 -0.0600733 0)
(0 -0.0601377 0)
(0 -0.0599807 0)
(0 -0.0600489 0)
(0 -0.0598794 0)
(0 -0.0599581 0)
(0 -0.0468252 0)
(0 -0.0454525 0)
(0 -0.0442655 0)
(0 -0.0364465 0)
(0 -0.0376763 0)
(0 -0.042521 0)
(0 -0.0395499 0)
(0 -0.0388348 0)
(0 -0.036934 0)
(0 -0.038101 0)
(0 -0.0361664 0)
(0 -0.0373306 0)
(0 -0.0391923 0)
(0 -0.0384185 0)
(0 -0.0365129 0)
(0 -0.0376014 0)
(0 -0.0356442 0)
(0 -0.0367087 0)
(0 -0.0347309 0)
(0 -0.0357641 0)
(0 -0.0376117 0)
(0 -0.0366872 0)
(0 -0.0347966 0)
(0 -0.0357288 0)
(0 -0.037498 0)
(0 -0.0365874 0)
(0 -0.0380833 0)
(0 -0.0376753 0)
(0 -0.0355764 0)
(0 -0.0363286 0)
(0 -0.0382431 0)
(0 -0.036947 0)
(0 -0.0351001 0)
(0 -0.0357175 0)
(0 -0.0375362 0)
(0 -0.0362496 0)
(0 -0.0379833 0)
(0 -0.0366664 0)
(0 -0.0349653 0)
(0 -0.0383195 0)
(0 -0.0369924 0)
(0 -0.0385926 0)
(0 -0.0372 0)
(0 -0.0387878 0)
(0 -0.0373502 0)
(0 -0.0389026 0)
(0 -0.03745 0)
(0 -0.0389323 0)
(0 -0.0358683 0)
(0 -0.037448 0)
(0 -0.0388822 0)
(0 -0.0373852 0)
(0 -0.0387858 0)
(0 -0.0371554 0)
(0 -0.0385651 0)
(0 -0.0367963 0)
(0 -0.0382251 0)
(0 -0.0352451 0)
(0 -0.0597679 0)
(0 -0.0598462 0)
(0 -0.06106 0)
(0 -0.0610972 0)
(0 -0.0467101 0)
(0 -0.0452927 0)
(0 -0.0481346 0)
(0 -0.040133 0)
(0 -0.0465392 0)
(0 -0.0450852 0)
(0 -0.0463338 0)
(0 -0.0448506 0)
(0 -0.0435246 0)
(0 -0.0432493 0)
(0 -0.0446186 0)
(0 -0.0429861 0)
(0 -0.0600793 0)
(0 -0.0601738 0)
(0 -0.036397 0)
(0 -0.0402284 0)
(0 -0.0397841 0)
(0 -0.0610544 0)
(0 -0.0610918 0)
(0 -0.0443857 0)
(0 -0.0596455 0)
(0 -0.0597223 0)
(0 -0.0415148 0)
(0 -0.0412399 0)
(0 -0.0611316 0)
(0 -0.0611222 0)
(0 -0.0610845 0)
(0 -0.0611154 0)
(0 -0.0611513 0)
(0 -0.0611418 0)
(0 -0.0611084 0)
(0 -0.0611341 0)
(0 -0.0611657 0)
(0 -0.0611554 0)
(0 -0.0611243 0)
(0 -0.0611469 0)
(0 -0.0611773 0)
(0 -0.0611658 0)
(0 -0.0611341 0)
(0 -0.0611529 0)
(0 -0.0611311 0)
(0 -0.0611826 0)
(0 -0.0611705 0)
(0 -0.061138 0)
(0 -0.0611559 0)
(0 -0.06112 0)
(0 -0.0611386 0)
(0 -0.0611723 0)
(0 -0.061012 0)
(0 -0.0599888 0)
(0 -0.0596941 0)
(0 -0.0600653 0)
(0 -0.0595122 0)
(0 -0.0595913 0)
(0 -0.0597926 0)
(0 -0.059663 0)
(0 -0.0598552 0)
(0 -0.0597283 0)
(0 -0.0599117 0)
(0 -0.0597875 0)
(0 -0.0599627 0)
(0 -0.059841 0)
(0 -0.06001 0)
(0 -0.0598904 0)
(0 -0.060055 0)
(0 -0.0599332 0)
(0 -0.060088 0)
(0 -0.0599683 0)
(0 -0.0601146 0)
(0 -0.0599997 0)
(0 -0.060143 0)
(0 -0.060029 0)
(0 -0.060171 0)
(0 -0.0600608 0)
(0 -0.0601974 0)
(0 -0.0600801 0)
(0 -0.060216 0)
(0 -0.0600942 0)
(0 -0.0602312 0)
(0 -0.0601181 0)
(0 -0.0602475 0)
(0 -0.0601369 0)
(0 -0.0602617 0)
(0 -0.0601511 0)
(0 -0.060274 0)
(0 -0.0603751 0)
(0 -0.0603852 0)
(0 -0.0602854 0)
(0 -0.0603938 0)
(0 -0.0602957 0)
(0 -0.0604015 0)
(0 -0.0603054 0)
(0 -0.0604091 0)
(0 -0.0603127 0)
(0 -0.0604169 0)
(0 -0.0603163 0)
(0 -0.0604204 0)
(0 -0.0376395 0)
(0 -0.0603194 0)
(0 -0.0604216 0)
(0 -0.0605105 0)
(0 -0.0605118 0)
(0 -0.0604238 0)
(0 -0.0605115 0)
(0 -0.0396283 0)
(0 -0.0393054 0)
(0 -0.0594501 0)
(0 -0.0604867 0)
(0 -0.0604249 0)
(0 -0.0605097 0)
(0 -0.0365221 0)
(0 -0.0598178 0)
(0 -0.0611174 0)
(0 -0.0605862 0)
(0 -0.0604246 0)
(0 -0.0605117 0)
(0 -0.0477016 0)
(0 -0.060301 0)
(0 -0.0598832 0)
(0 -0.0599671 0)
(0 -0.0604239 0)
(0 -0.0605147 0)
(0 -0.0606001 0)
(0 -0.0605948 0)
(0 -0.0605138 0)
(0 -0.0605975 0)
(0 -0.0605126 0)
(0 -0.0605961 0)
(0 -0.0605091 0)
(0 -0.0605922 0)
(0 -0.0606787 0)
(0 -0.060504 0)
(0 -0.0605872 0)
(0 -0.0606679 0)
(0 -0.0606627 0)
(0 -0.060582 0)
(0 -0.0606573 0)
(0 -0.0605757 0)
(0 -0.0606523 0)
(0 -0.0605678 0)
(0 -0.0606445 0)
(0 -0.0605581 0)
(0 -0.0606338 0)
(0 -0.0605464 0)
(0 -0.0335991 0)
(0 -0.0610425 0)
(0 -0.0596568 0)
(0 -0.0375966 0)
(0 -0.0372495 0)
(0 -0.0601909 0)
(0 -0.0565419 0)
(0 -0.0544925 0)
(0 -0.0543084 0)
(0 -0.0537282 0)
(0 -0.0607336 0)
(0 -0.0400278 0)
(0 -0.0604881 0)
(0 -0.0574419 0)
(0 -0.0584545 0)
(0 -0.0580368 0)
(0 -0.0598981 0)
(0 -0.0599687 0)
(0 -0.0545266 0)
(0 -0.0402058 0)
(0 -0.0576962 0)
(0 -0.0597628 0)
(0 -0.0598451 0)
(0 -0.0607361 0)
(0 -0.0389452 0)
(0 -0.0368558 0)
(0 -0.0602223 0)
(0 -0.0535078 0)
(0 -0.0528873 0)
(0 -0.0379167 0)
(0 -0.0357535 0)
(0 -0.0360627 0)
(0 -0.059624 0)
(0 -0.0595502 0)
(0 -0.0603251 0)
(0 -0.0602073 0)
(0 -0.0596991 0)
(0 -0.0599191 0)
(0 -0.0601234 0)
(0 -0.0337462 0)
(0 -0.0340467 0)
(0 -0.0558978 0)
(0 -0.0567648 0)
(0 -0.0562179 0)
(0 -0.0565954 0)
(0 -0.0560342 0)
(0 -0.0564227 0)
(0 -0.0558318 0)
(0 -0.056242 0)
(0 -0.0556036 0)
(0 -0.0551676 0)
(0 -0.0594675 0)
(0 -0.0612123 0)
(0 -0.0385211 0)
(0 -0.0364218 0)
(0 -0.0604134 0)
(0 -0.0526329 0)
(0 -0.0519707 0)
(0 -0.0532492 0)
(0 -0.0601474 0)
(0 -0.0612768 0)
(0 -0.0612754 0)
(0 -0.061277 0)
(0 -0.0612758 0)
(0 -0.0612773 0)
(0 -0.0612761 0)
(0 -0.0612775 0)
(0 -0.0612763 0)
(0 -0.0612777 0)
(0 -0.0612765 0)
(0 -0.0612749 0)
(0 -0.0612752 0)
(0 -0.0612768 0)
(0 -0.0612755 0)
(0 -0.061277 0)
(0 -0.0612758 0)
(0 -0.0612772 0)
(0 -0.061276 0)
(0 -0.0612774 0)
(0 -0.0612763 0)
(0 -0.0612776 0)
(0 -0.0612765 0)
(0 -0.0612777 0)
(0 -0.0612767 0)
(0 -0.0612752 0)
(0 -0.0612754 0)
(0 -0.0612769 0)
(0 -0.0612757 0)
(0 -0.0612771 0)
(0 -0.0612759 0)
(0 -0.0612773 0)
(0 -0.0612762 0)
(0 -0.0612745 0)
(0 -0.0612748 0)
(0 -0.0612764 0)
(0 -0.0612751 0)
(0 -0.0612766 0)
(0 -0.0612754 0)
(0 -0.0612769 0)
(0 -0.0612757 0)
(0 -0.0612771 0)
(0 -0.0612759 0)
(0 -0.0612773 0)
(0 -0.0612762 0)
(0 -0.0612745 0)
(0 -0.0612748 0)
(0 -0.0612764 0)
(0 -0.0612751 0)
(0 -0.0612765 0)
(0 -0.0612754 0)
(0 -0.0612767 0)
(0 -0.0612756 0)
(0 -0.061277 0)
(0 -0.0612759 0)
(0 -0.0612772 0)
(0 -0.0612761 0)
(0 -0.0612745 0)
(0 -0.0612748 0)
(0 -0.0612764 0)
(0 -0.0612752 0)
(0 -0.0612766 0)
(0 -0.0612755 0)
(0 -0.0612768 0)
(0 -0.0612757 0)
(0 -0.0612739 0)
(0 -0.061277 0)
(0 -0.0612759 0)
(0 -0.0612772 0)
(0 -0.0612762 0)
(0 -0.0612774 0)
(0 -0.0612764 0)
(0 -0.0612749 0)
(0 -0.0612752 0)
(0 -0.0612766 0)
(0 -0.0612754 0)
(0 -0.0612737 0)
(0 -0.0612741 0)
(0 -0.061276 0)
(0 -0.0612744 0)
(0 -0.0612762 0)
(0 -0.0612748 0)
(0 -0.0612764 0)
(0 -0.0612751 0)
(0 -0.0612767 0)
(0 -0.0612754 0)
(0 -0.0612735 0)
(0 -0.0612739 0)
(0 -0.0612757 0)
(0 -0.0612743 0)
(0 -0.061276 0)
(0 -0.0612746 0)
(0 -0.0612726 0)
(0 -0.061273 0)
(0 -0.061275 0)
(0 -0.0612735 0)
(0 -0.0612753 0)
(0 -0.0612739 0)
(0 -0.0612711 0)
(0 -0.0612756 0)
(0 -0.0612742 0)
(0 -0.0612759 0)
(0 -0.0612746 0)
(0 -0.0612763 0)
(0 -0.061275 0)
(0 -0.061273 0)
(0 -0.0612734 0)
(0 -0.0612753 0)
(0 -0.0612739 0)
(0 -0.0612757 0)
(0 -0.0612743 0)
(0 -0.0612721 0)
(0 -0.0612726 0)
(0 -0.0612747 0)
(0 -0.0612731 0)
(0 -0.0612751 0)
(0 -0.0612737 0)
(0 -0.0612754 0)
(0 -0.0612741 0)
(0 -0.0612757 0)
(0 -0.0612743 0)
(0 -0.061272 0)
(0 -0.0612727 0)
(0 -0.0612747 0)
(0 -0.0612732 0)
(0 -0.0612708 0)
(0 -0.0612713 0)
(0 -0.0612737 0)
(0 -0.0612719 0)
(0 -0.0612691 0)
(0 -0.0612698 0)
(0 -0.0612725 0)
(0 -0.0612704 0)
(0 -0.0612731 0)
(0 -0.0612711 0)
(0 -0.061274 0)
(0 -0.0612718 0)
(0 -0.0612742 0)
(0 -0.0612723 0)
(0 -0.0612695 0)
(0 -0.0612701 0)
(0 -0.0612727 0)
(0 -0.0612708 0)
(0 -0.0612676 0)
(0 -0.0612684 0)
(0 -0.0612714 0)
(0 -0.0612691 0)
(0 -0.061272 0)
(0 -0.0612699 0)
(0 -0.0612664 0)
(0 -0.0612672 0)
(0 -0.0612706 0)
(0 -0.0612681 0)
(0 -0.0612713 0)
(0 -0.0612689 0)
(0 -0.0612651 0)
(0 -0.0612661 0)
(0 -0.0612697 0)
(0 -0.061267 0)
(0 -0.0612705 0)
(0 -0.0612678 0)
(0 -0.0612637 0)
(0 -0.0612647 0)
(0 -0.0612687 0)
(0 -0.0612657 0)
(0 -0.061261 0)
(0 -0.0612622 0)
(0 -0.0612667 0)
(0 -0.0612632 0)
(0 -0.0612675 0)
(0 -0.0612642 0)
(0 -0.0612591 0)
(0 -0.0612603 0)
(0 -0.0612656 0)
(0 -0.0612613 0)
(0 -0.0612701 0)
(0 -0.0612553 0)
(0 -0.0612566 0)
(0 -0.0612633 0)
(0 -0.061258 0)
(0 -0.0612665 0)
(0 -0.0612719 0)
(0 -0.0612507 0)
(0 -0.0612521 0)
(0 -0.0612592 0)
(0 -0.0612534 0)
(0 -0.0612603 0)
(0 -0.0612546 0)
(0 -0.0612736 0)
(0 -0.0612729 0)
(0 -0.0612613 0)
(0 -0.0612556 0)
(0 -0.0612475 0)
(0 -0.0612435 0)
(0 -0.0612485 0)
(0 -0.0612566 0)
(0 -0.0612729 0)
(0 -0.0612739 0)
(0 -0.0612752 0)
(0 -0.0612388 0)
(0 -0.0612733 0)
(0 -0.061277 0)
(0 -0.0612493 0)
(0 -0.0612573 0)
(0 -0.0612766 0)
(0 -0.0612775 0)
(0 -0.0612659 0)
(0 -0.061278 0)
(0 -0.0612778 0)
(0 -0.0612778 0)
(0 -0.0612498 0)
(0 -0.0612577 0)
(0 -0.0612783 0)
(0 -0.0612782 0)
(0 -0.0612636 0)
(0 -0.0612639 0)
(0 -0.0612579 0)
(0 -0.061264 0)
(0 -0.0612578 0)
(0 -0.0612639 0)
(0 -0.0612573 0)
(0 -0.0612632 0)
(0 -0.0612497 0)
(0 -0.0612783 0)
(0 -0.0612782 0)
(0 -0.0595392 0)
(0 -0.0549074 0)
(0 -0.0553443 0)
(0 -0.0346379 0)
(0 -0.034189 0)
(0 -0.032268 0)
(0 -0.0318046 0)
(0 -0.0522262 0)
(0 -0.0512624 0)
(0 -0.0515168 0)
(0 -0.0505024 0)
(0 -0.0507501 0)
(0 -0.0496919 0)
(0 -0.0499319 0)
(0 -0.0494075 0)
(0 -0.0485491 0)
(0 -0.0546129 0)
(0 -0.0550509 0)
(0 -0.0592892 0)
(0 -0.0612743 0)
(0 -0.0612558 0)
(0 -0.0612617 0)
(0 -0.0544423 0)
(0 -0.0612683 0)
(0 -0.0315415 0)
(0 -0.0317987 0)
(0 -0.0482122 0)
(0 -0.0523406 0)
(0 -0.0529521 0)
(0 -0.0380621 0)
(0 -0.0593574 0)
(0 -0.0297087 0)
(0 -0.0292701 0)
(0 -0.0605575 0)
(0 -0.0473021 0)
(0 -0.0590865 0)
(0 -0.0590124 0)
(0 -0.054284 0)
(0 -0.0547246 0)
(0 -0.0606083 0)
(0 -0.055798 0)
(0 -0.0612532 0)
(0 -0.0612591 0)
(0 -0.0520007 0)
(0 -0.0612689 0)
(0 -0.0572384 0)
(0 -0.0313184 0)
(0 -0.0288031 0)
(0 -0.0266189 0)
(0 -0.0261806 0)
(0 -0.0291208 0)
(0 -0.0293214 0)
(0 -0.0319824 0)
(0 -0.0294618 0)
(0 -0.0319677 0)
(0 -0.0295441 0)
(0 -0.0319673 0)
(0 -0.0296722 0)
(0 -0.0321111 0)
(0 -0.0297181 0)
(0 -0.0322011 0)
(0 -0.0296648 0)
(0 -0.0322384 0)
(0 -0.0539217 0)
(0 -0.0554606 0)
(0 -0.0551293 0)
(0 -0.0481675 0)
(0 -0.0283027 0)
(0 -0.0256989 0)
(0 -0.0378347 0)
(0 -0.0612496 0)
(0 -0.0612555 0)
(0 -0.0612637 0)
(0 -0.0612601 0)
(0 -0.0612669 0)
(0 -0.0612635 0)
(0 -0.0612553 0)
(0 -0.0612589 0)
(0 -0.0612662 0)
(0 -0.0612617 0)
(0 -0.0612681 0)
(0 -0.0612636 0)
(0 -0.0612694 0)
(0 -0.0612648 0)
(0 -0.0612704 0)
(0 -0.0612659 0)
(0 -0.061271 0)
(0 -0.0612667 0)
(0 -0.0612714 0)
(0 -0.0612669 0)
(0 -0.0612716 0)
(0 -0.061267 0)
(0 -0.0612715 0)
(0 -0.0612669 0)
(0 -0.0612711 0)
(0 -0.0612656 0)
(0 -0.0612707 0)
(0 -0.0469118 0)
(0 -0.0612423 0)
(0 -0.0587881 0)
(0 -0.0587032 0)
(0 -0.027754 0)
(0 -0.0251662 0)
(0 -0.0271939 0)
(0 -0.0246716 0)
(0 -0.0269049 0)
(0 -0.0236986 0)
(0 -0.0258384 0)
(0 -0.0233508 0)
(0 -0.0251274 0)
(0 -0.0226312 0)
(0 -0.0243329 0)
(0 -0.0215469 0)
(0 -0.0235014 0)
(0 -0.0210981 0)
(0 -0.0226927 0)
(0 -0.0203112 0)
(0 -0.0218112 0)
(0 -0.0194583 0)
(0 -0.0209422 0)
(0 -0.0186056 0)
(0 -0.0203906 0)
(0 -0.0176727 0)
(0 -0.0189935 0)
(0 -0.0166178 0)
(0 -0.0177424 0)
(0 -0.0200679 0)
(0 -0.0187144 0)
(0 -0.0165207 0)
(0 -0.0173399 0)
(0 -0.0152602 0)
(0 -0.0194838 0)
(0 -0.0179827 0)
(0 -0.0200528 0)
(0 -0.0184513 0)
(0 -0.0204685 0)
(0 -0.0187737 0)
(0 -0.0207521 0)
(0 -0.0189517 0)
(0 -0.0209073 0)
(0 -0.0167985 0)
(0 -0.0189831 0)
(0 -0.0209281 0)
(0 -0.0188794 0)
(0 -0.0208146 0)
(0 -0.0221129 0)
(0 -0.0231195 0)
(0 -0.0186345 0)
(0 -0.020566 0)
(0 -0.0228609 0)
(0 -0.0169361 0)
(0 -0.0612613 0)
(0 -0.0182609 0)
(0 -0.0201943 0)
(0 -0.0224593 0)
(0 -0.0220427 0)
(0 -0.0197103 0)
(0 -0.0215294 0)
(0 -0.0612561 0)
(0 -0.0186732 0)
(0 -0.0591521 0)
(0 -0.0594176 0)
(0 -0.0459527 0)
(0 -0.0463442 0)
(0 -0.0238378 0)
(0 -0.0612745 0)
(0 -0.0612741 0)
(0 -0.0612704 0)
(0 -0.0612736 0)
(0 -0.0526217 0)
(0 -0.0509504 0)
(0 -0.0501235 0)
(0 -0.051102 0)
(0 -0.0502674 0)
(0 -0.0512153 0)
(0 -0.0503691 0)
(0 -0.0493833 0)
(0 -0.0494691 0)
(0 -0.0504267 0)
(0 -0.0495124 0)
(0 -0.0504391 0)
(0 -0.0495128 0)
(0 -0.0485472 0)
(0 -0.0485267 0)
(0 -0.0494702 0)
(0 -0.0484696 0)
(0 -0.0493806 0)
(0 -0.0483805 0)
(0 -0.0492519 0)
(0 -0.0482381 0)
(0 -0.0490818 0)
(0 -0.0480328 0)
(0 -0.0488587 0)
(0 -0.0477731 0)
(0 -0.048587 0)
(0 -0.0474745 0)
(0 -0.0482701 0)
(0 -0.0471243 0)
(0 -0.0479083 0)
(0 -0.0467243 0)
(0 -0.0475038 0)
(0 -0.0469141 0)
(0 -0.0486492 0)
(0 -0.0482369 0)
(0 -0.0493427 0)
(0 -0.048921 0)
(0 -0.0474975 0)
(0 -0.0477795 0)
(0 -0.0484546 0)
(0 -0.0495576 0)
(0 -0.0490822 0)
(0 -0.0479525 0)
(0 -0.0485802 0)
(0 -0.0474167 0)
(0 -0.0480423 0)
(0 -0.0491725 0)
(0 -0.0486366 0)
(0 -0.0497344 0)
(0 -0.0491969 0)
(0 -0.0502578 0)
(0 -0.0497237 0)
(0 -0.0507453 0)
(0 -0.0502115 0)
(0 -0.0511926 0)
(0 -0.0506665 0)
(0 -0.0516087 0)
(0 -0.0510861 0)
(0 -0.0519892 0)
(0 -0.0513937 0)
(0 -0.0523607 0)
(0 -0.0518892 0)
(0 -0.052721 0)
(0 -0.0522214 0)
(0 -0.051442 0)
(0 -0.0517279 0)
(0 -0.0525424 0)
(0 -0.0520239 0)
(0 -0.0528689 0)
(0 -0.0523525 0)
(0 -0.0531691 0)
(0 -0.0526473 0)
(0 -0.053381 0)
(0 -0.0529025 0)
(0 -0.0535954 0)
(0 -0.0531347 0)
(0 -0.0538411 0)
(0 -0.0533466 0)
(0 -0.054098 0)
(0 -0.0535877 0)
(0 -0.0543189 0)
(0 -0.0538328 0)
(0 -0.0545137 0)
(0 -0.0540373 0)
(0 -0.0546911 0)
(0 -0.0542193 0)
(0 -0.0548569 0)
(0 -0.0543885 0)
(0 -0.0537134 0)
(0 -0.0538828 0)
(0 -0.0545547 0)
(0 -0.0540533 0)
(0 -0.054708 0)
(0 -0.0531759 0)
(0 -0.052549 0)
(0 -0.0510878 0)
(0 -0.0486365 0)
(0 -0.0501597 0)
(0 -0.0545645 0)
(0 -0.0539879 0)
(0 -0.0551229 0)
(0 -0.0225669 0)
(0 -0.0612715 0)
(0 -0.0191445 0)
(0 -0.0210495 0)
(0 -0.0612744 0)
(0 -0.0612696 0)
(0 -0.0612728 0)
(0 -0.0268682 0)
(0 -0.0567733 0)
(0 -0.0162105 0)
(0 -0.0209227 0)
(0 -0.0266398 0)
(0 -0.0459039 0)
(0 -0.045463 0)
(0 -0.0592079 0)
(0 -0.0594672 0)
(0 -0.0516355 0)
(0 -0.0535091 0)
(0 -0.0612615 0)
(0 -0.0239486 0)
(0 -0.0468391 0)
(0 -0.0612684 0)
(0 -0.0521115 0)
(0 -0.0558306 0)
(0 -0.050959 0)
(0 -0.0288946 0)
(0 -0.0184636 0)
(0 -0.0204562 0)
(0 -0.0534448 0)
(0 -0.0612 0)
(0 -0.0530445 0)
(0 -0.0400497 0)
(0 -0.0395561 0)
(0 -0.0500932 0)
(0 -0.0554974 0)
(0 -0.0176286 0)
(0 -0.0195923 0)
(0 -0.0531852 0)
(0 -0.0222753 0)
(0 -0.0214663 0)
(0 -0.0612373 0)
(0 -0.0505531 0)
(0 -0.0498191 0)
(0 -0.0513018 0)
(0 -0.0610139 0)
(0 -0.034407 0)
(0 -0.0612283 0)
(0 -0.0568376 0)
(0 -0.061275 0)
(0 -0.0594636 0)
(0 -0.0599676 0)
(0 -0.0507644 0)
(0 -0.0601743 0)
(0 -0.0612768 0)
(0 -0.0584579 0)
(0 -0.0583623 0)
(0 -0.0586034 0)
(0 -0.0582522 0)
(0 -0.0584873 0)
(0 -0.0581255 0)
(0 -0.058359 0)
(0 -0.0612643 0)
(0 -0.0186644 0)
(0 -0.0206744 0)
(0 -0.0449457 0)
(0 -0.0453344 0)
(0 -0.0612763 0)
(0 -0.0600288 0)
(0 -0.0612787 0)
(0 -0.0559128 0)
(0 -0.0561439 0)
(0 -0.056453 0)
(0 -0.0566632 0)
(0 -0.0569459 0)
(0 -0.0571414 0)
(0 -0.0573974 0)
(0 -0.0575751 0)
(0 -0.0578043 0)
(0 -0.0579643 0)
(0 -0.0577394 0)
(0 -0.0581191 0)
(0 -0.0578873 0)
(0 -0.0582464 0)
(0 -0.0580187 0)
(0 -0.0583662 0)
(0 -0.0581393 0)
(0 -0.0584717 0)
(0 -0.0576309 0)
(0 -0.0580179 0)
(0 -0.0578561 0)
(0 -0.0582181 0)
(0 -0.0580674 0)