/*--------------------------------*- C++ -*----------------------------------*\
| =========                 |                                                 |
| \\      /  F ield         | OpenFOAM: The Open Source CFD Toolbox           |
|  \\    /   O peration     | Version:  v2012                                 |
|   \\  /    A nd           | Website:  www.openfoam.com                      |
|    \\/     M anipulation  |                                                 |
\*---------------------------------------------------------------------------*/
FoamFile
{
    version     2.0;
    format      ascii;
    class       volVectorField;
    location    "700";
    object      U_0;
}
// * * * * * * * * * * * * * * * * * * * * * * * * * * * * * * * * * * * * * //

dimensions      [0 1 -1 0 0 0 0];


internalField   nonuniform List<vector> 
13917
(
(1.0948 0.122522 -2.7422e-21)
(1.02028 0.0420466 1.18611e-21)
(0.567514 -0.0657536 -2.48136e-20)
(1.05722 -0.00906297 -1.89237e-21)
(0.996227 0.00308295 -3.90336e-22)
(0.358831 0.0524497 1.08134e-20)
(0.497365 -0.0572005 0)
(0.571618 -0.0633138 -2.39083e-20)
(0.395652 -0.0543845 0)
(1.13781 0.151584 0)
(1.1195 -0.058328 0)
(1.09525 -0.0409698 3.976e-22)
(1.05775 -0.00979434 1.05209e-20)
(-0.0132522 -0.00221692 4.77582e-21)
(0.971181 0.0939503 0)
(0.994364 0.0888074 -6.83387e-21)
(1.01462 0.0471523 -1.00746e-21)
(1.14001 0.0233036 1.10173e-20)
(1.09414 -0.0405143 0)
(1.00147 0.00473262 -3.4008e-21)
(0.999975 0.00098278 -4.06803e-21)
(0.476123 -0.055832 0)
(1.00091 0.00779075 -6.98951e-21)
(0.629633 -0.0678668 3.57419e-20)
(0.994823 0.0147852 -2.23526e-20)
(0.508696 -0.0550781 -2.17432e-20)
(0.782834 0.0326698 0)
(0.756998 0.120317 7.0995e-20)
(0.732054 0.56859 0)
(1.192 0.0928615 0)
(1.10925 0.112726 -2.89934e-20)
(1.05936 0.090174 1.59139e-20)
(0.836889 0.0677274 0)
(0.910346 -1.08044e-05 6.38158e-20)
(0.9913 0.0117273 1.48051e-21)
(1.12855 -0.0754771 4.10907e-20)
(1.00083 0.0073465 4.13149e-22)
(0.110609 -0.0251831 -1.40619e-20)
(1.0645 -0.0141213 5.50289e-21)
(0.279345 -0.00646413 0)
(1.00845 0.000806895 0)
(0.999989 0.000423738 6.64618e-21)
(1.02083 0.00274994 -2.50753e-21)
(0.70245 0.202741 0)
(1.03883 0.0253463 1.39005e-20)
(0.891629 0.0136821 -5.55182e-20)
(1.13761 0.0215221 0)
(1.14185 -0.00867856 -1.31381e-20)
(0.104141 0.134961 2.31614e-19)
(1.00343 0.000782205 0)
(1.08604 0.0171264 2.85644e-20)
(0.965209 0.00912368 1.01725e-20)
(0.0751613 0.113595 -2.66691e-19)
(0.905701 0.00122467 -2.3285e-20)
(1.01343 0.0481254 -1.22494e-21)
(1.08515 0.0405227 -1.13402e-20)
(1.12037 -0.0575134 -1.39705e-20)
(0.995222 0.0294595 0)
(1.07101 0.0463863 0)
(1.03739 0.0248579 -7.02649e-21)
(0.546625 0.049857 1.17298e-19)
(1.0218 0.0421471 3.22954e-22)
(-0.0271234 0.00249926 -2.08581e-20)
(1.00157 0.00512508 3.93483e-21)
(0.385574 0.064664 0)
(1.04656 0.352073 2.28562e-20)
(0.995437 -0.000774916 0)
(0.988042 -0.00182925 0)
(1.15661 -0.0429588 5.61305e-20)
(1.06194 0.13646 -1.97354e-22)
(0.996617 0.00324005 0)
(0.453259 -0.0613441 8.16331e-21)
(-0.0847205 -0.0155019 5.17006e-20)
(0.995417 0.0144102 1.4973e-20)
(0.105753 0.208554 -1.41308e-19)
(1.08803 -0.0469523 2.31681e-20)
(-0.0917657 -0.00892846 -1.36609e-20)
(1.05405 0.0282582 0)
(0.520221 -0.049969 -9.14827e-21)
(0.999896 0.00201656 7.37454e-21)
(1.00007 0.00309578 -8.74524e-21)
(0.995993 -0.000648667 6.84902e-21)
(0.404843 0.12774 -2.74007e-19)
(0.136914 -0.0292777 0)
(-0.0926226 0.0168781 7.49513e-20)
(1.053 0.0270591 -6.34947e-21)
(1.00034 0.00402013 2.71834e-21)
(1.18967 0.426625 -1.5162e-19)
(1.0842 0.017002 -2.05746e-20)
(1.0213 0.0027764 0)
(-0.0119961 -0.0218779 -2.80954e-22)
(1.17377 0.131783 3.72018e-20)
(1.02294 0.0238382 8.86722e-22)
(0.973295 0.0530302 -1.08148e-20)
(1.14102 0.421432 2.06353e-19)
(0.386022 -0.00875763 -1.91781e-19)
(1.13434 -0.0438257 -6.77039e-20)
(1.14179 0.000662581 0)
(1.09221 -0.0564481 -2.52305e-20)
(0.608355 0.128054 1.2795e-20)
(1.01121 0.00589262 -3.94463e-22)
(0.844598 -0.000643406 -9.31936e-20)
(0.692255 0.187623 5.25156e-20)
(1.06168 0.021821 -1.0589e-20)
(1.01637 0.0124732 0)
(0.465328 -0.0559799 9.63579e-22)
(0.812123 0.507334 3.11959e-20)
(1.1443 -0.00972182 -4.60824e-20)
(1.01647 0.0476962 -8.87937e-22)
(1.10936 0.127345 3.14304e-20)
(-0.162411 -0.0110055 6.45378e-20)
(0.287041 -0.00732455 -3.26377e-21)
(1.09646 -0.0473208 0)
(0.428855 -0.0557191 6.34735e-20)
(0.947998 0.00776345 -9.51547e-21)
(0.0829007 -0.116965 8.32261e-20)
(1.00072 0.0137275 8.92912e-21)
(0.200297 0.0933759 1.5339e-19)
(0.158679 -0.00972385 0)
(0.906997 0.0138207 -5.9626e-20)
(0.999984 0.000830149 -7.69049e-22)
(1.15704 -0.0413964 -2.48157e-20)
(0.12429 -0.0111504 2.60601e-20)
(0.765872 0.113571 -5.24143e-20)
(1.0051 0.000689079 4.59343e-22)
(0.974731 0.0504491 1.88138e-20)
(1.03417 0.0287116 5.82469e-21)
(1.00473 0.000557782 -1.01032e-21)
(1.01804 0.00187662 0)
(0.361414 0.00554574 3.37031e-19)
(0.22173 -0.025958 0)
(0.950454 0.00685971 2.14452e-20)
(1.03917 0.0263482 -7.89494e-21)
(0.999978 0.000775564 7.77138e-21)
(1.2653 -0.00016528 5.37199e-20)
(0.646001 -0.0714839 -5.23198e-20)
(1.09222 0.12703 -7.41263e-22)
(0.584498 0.129194 -7.84096e-20)
(0.995118 -0.000390107 -3.58167e-21)
(0.907969 0.00957058 2.22582e-20)
(1.1202 -0.072114 -4.14932e-21)
(1.02467 0.0135824 4.27271e-21)
(0.962005 0.0212357 1.28613e-21)
(0.654531 0.199372 5.20331e-20)
(0.987395 -0.00151229 5.47455e-22)
(0.664734 -0.0635136 2.4801e-20)
(0.802391 0.574344 6.56524e-21)
(0.967137 0.00957954 0)
(1.02333 0.0114691 -3.55428e-21)
(1.05425 0.0992067 8.20786e-22)
(1.11863 -0.0187875 0)
(0.0924135 -0.150803 9.15396e-20)
(1.11489 -0.0419371 2.04995e-20)
(1.02469 0.17969 -5.89865e-23)
(1.07617 0.064863 1.84093e-20)
(-0.0547023 0.0528952 0)
(1.0572 0.13369 1.24434e-21)
(1.12633 -0.0748992 -3.00551e-20)
(-0.11332 -0.00655695 0)
(1.26007 0.00135157 5.50766e-20)
(0.939477 0.0433076 0)
(0.783551 -0.0277528 -8.62448e-20)
(1.00002 0.00212904 1.45117e-21)
(1.13235 -0.0431724 6.34888e-20)
(1.09718 -0.0466493 7.57258e-21)
(1.09328 -0.0560692 0)
(1.06075 0.0226671 1.08777e-20)
(1.12933 -0.011275 3.93462e-20)
(1.03213 0.0216555 1.91707e-21)
(0.837714 -0.00495053 2.82706e-20)
(1.04412 0.172703 -1.77187e-20)
(-0.287797 0.00177708 -4.80202e-20)
(1.09419 -0.0496493 3.68e-20)
(1.01216 0.0562614 0)
(0.811933 -0.0696783 -1.03466e-20)
(1.01402 0.200307 1.53089e-21)
(0.243166 -0.0301079 0)
(0.163235 0.0951781 -3.31312e-20)
(0.722073 -0.0659152 -2.19536e-20)
(1.01229 0.0269645 -2.04461e-21)
(1.17908 0.126704 -8.52315e-20)
(1.11458 0.111331 2.66832e-20)
(1.02519 0.0131523 -2.43047e-21)
(1.00034 0.00438319 1.60279e-21)
(0.935447 0.112946 -1.8203e-20)
(0.562182 -0.0586498 1.09402e-20)
(1.25664 0.136268 0)
(-0.000471328 0.0533051 1.21351e-19)
(1.11557 0.0442118 1.57652e-20)
(1.10051 -0.0550536 2.00311e-21)
(1.14182 -0.0719555 0)
(-0.0424742 0.0209514 -7.62748e-20)
(1.2482 0.175974 1.64875e-19)
(0.999689 0.00762966 -3.36795e-21)
(0.563345 0.0621925 6.46676e-22)
(0.793443 0.0344877 0)
(1.00739 0.000307501 -1.32362e-21)
(1.02313 0.0248504 9.7264e-22)
(0.872816 0.441701 -6.03194e-21)
(1.21178 0.473526 -5.84593e-20)
(1.07758 -0.000225049 0)
(1.00313 0.00069928 0)
(1.12312 -0.0119045 0)
(1.1168 -0.0189218 0)
(-0.111283 -0.0120228 -2.78228e-20)
(1.23921 -0.0306263 2.43025e-20)
(0.991635 0.0108925 -1.54253e-22)
(0.994486 0.0305175 -3.54074e-21)
(1.13943 -0.00108535 0)
(0.583013 -0.0645037 -1.05694e-20)
(0.96425 0.0216269 8.97521e-21)
(0.48196 -0.0583597 2.55438e-20)
(-0.156861 -0.00669237 2.94866e-20)
(1.10148 -0.054706 -1.77185e-22)
(1.01598 0.0127334 0)
(0.493614 0.407424 2.28666e-19)
(1.13214 -0.000115872 0)
(-0.248782 -0.00564947 7.28699e-20)
(1.00277 0.0181295 -2.68264e-21)
(0.700679 0.0714716 -4.89659e-20)
(1.01193 0.025982 1.56663e-21)
(1.18434 0.0703153 4.90874e-20)
(1.00827 0.00100153 -4.91579e-23)
(0.0923062 -0.0285094 3.81445e-21)
(0.444829 -0.0552034 -1.67363e-20)
(0.995288 0.0923099 7.17176e-21)
(1.18871 0.475709 2.80117e-20)
(1.0792 0.0639102 -2.19162e-20)
(1.01527 0.0122697 -2.01088e-21)
(1.12713 -0.0746721 -5.39623e-20)
(1.09314 -0.0490514 -1.76184e-20)
(1.11435 0.041768 -2.22002e-20)
(0.654038 -0.0697672 1.31938e-20)
(-0.17657 -0.00427057 1.4865e-20)
(1.01221 0.00309615 -7.8984e-22)
(1.0626 0.0913636 -1.81677e-20)
(0.0168071 -0.0253927 -3.59532e-20)
(-0.135851 0.020094 -4.29195e-20)
(0.999985 0.00238742 -2.17648e-22)
(1.00607 0.00904235 0)
(0.328444 -0.00624246 -3.56631e-21)
(1.13975 -0.0450552 1.02979e-20)
(1.00004 0.000127483 -1.31053e-21)
(1.10321 -0.0699669 4.13301e-21)
(1.17292 0.0146995 0)
(0.79344 -0.0328374 9.41954e-20)
(1.09264 0.108072 -1.27566e-21)
(1.00003 0.00231542 0)
(0.977697 0.204543 5.8396e-21)
(-0.14742 -0.00514602 6.13762e-20)
(1.0417 0.00437062 -6.48635e-21)
(1.19503 0.142727 0)
(0.569783 0.173467 -6.93345e-20)
(1.03391 0.0274445 6.36267e-21)
(0.994655 0.0278002 -1.18928e-20)
(1.10983 -0.0360236 -8.68706e-21)
(0.34351 -0.0131527 1.35082e-20)
(1.11386 -0.0407703 1.60925e-24)
(0.936247 0.117637 -1.43923e-21)
(0.974492 0.0966303 0)
(1.00003 0.000223469 0)
(0.103344 -0.00709088 3.05832e-20)
(0.65481 -0.0381685 -7.54845e-20)
(1.10169 -0.0706278 0)
(1.01481 0.0125149 3.29041e-21)
(-0.138077 -0.011662 1.66702e-19)
(-0.00424609 -0.00674973 -4.00232e-20)
(1.07373 -0.0770669 -1.59475e-20)
(0.502016 -0.0482642 2.57453e-21)
(1.08825 -0.0479313 0)
(1.00002 0.00287719 0)
(1.00624 0.000834387 0)
(1.13681 0.0166869 -4.44403e-20)
(0.0200769 -0.0193015 3.64709e-20)
(1.16357 -0.0201704 8.74749e-20)
(1.06953 0.0442934 1.28505e-20)
(1.23597 -0.0314652 7.58779e-20)
(1.08127 -0.0333742 1.44479e-20)
(1.01795 0.00125194 0)
(0.945647 0.0208952 0)
(1.00188 0.00464441 3.3987e-21)
(0.773267 -0.0690962 4.25452e-20)
(1.07579 8.86238e-05 0)
(1.00007 0.000129612 7.89653e-22)
(0.998923 0.109332 -3.29432e-21)
(1.01902 0.18155 -4.03021e-21)
(0.783811 -0.0153477 -7.40848e-20)
(1.10756 -0.0713116 2.43339e-21)
(0.996315 0.144766 2.17778e-21)
(1.04411 0.0109762 0)
(1.23848 0.0181599 1.08236e-19)
(0.664232 -0.0695177 3.00442e-20)
(0.555267 -0.0410066 5.88937e-21)
(1.0025 0.0176044 9.99025e-21)
(1.04486 -0.0742734 1.69371e-20)
(0.998383 0.000171854 8.98771e-21)
(1.0442 0.0100483 2.25847e-20)
(1.00086 0.0130949 -8.42318e-21)
(0.814767 0.61411 -5.65193e-21)
(1.00157 0.000834982 0)
(1.18904 0.0701264 -5.5627e-20)
(1.08816 0.107828 -2.04409e-21)
(1.03174 0.0206882 -1.00702e-20)
(1.123 -0.01406 0)
(1.03737 0.0576427 -7.54309e-21)
(0.113171 0.0569123 -2.39251e-19)
(1.01326 0.195195 0)
(1.1681 0.129255 3.18702e-20)
(1.03037 0.0146839 6.86939e-21)
(0.995348 0.0268265 5.80463e-21)
(-0.182968 -0.00845123 3.54733e-20)
(0.0946026 -0.00944975 0)
(1.00097 0.0143233 0)
(1.0071 0.000883495 0)
(0.999328 0.0296683 8.24659e-20)
(1.0156 0.0256005 0)
(-0.0626481 -0.0181191 -4.79825e-20)
(1.02943 0.014551 -5.91697e-21)
(0.108329 -0.0295138 0)
(1.04852 -0.00350751 0)
(1.20612 0.32345 -1.08659e-21)
(1.10225 0.006542 -4.22935e-20)
(0.111221 0.28076 1.368e-19)
(0.9433 0.043069 2.04312e-20)
(1.29818 0.00728171 -1.28719e-19)
(0.510011 0.300771 1.00658e-19)
(1.002 0.10715 0)
(1.14145 -0.0437044 -2.40092e-20)
(0.953124 0.519521 -2.85496e-21)
(0.995421 0.043741 1.08066e-20)
(0.166182 -0.0249911 0)
(0.571507 0.0413217 0)
(0.00242166 -0.00930356 4.52296e-20)
(0.921525 0.0187618 4.10033e-21)
(0.206568 -0.00644927 0)
(1.0688 0.0896517 0)
(-0.0725477 -0.00093949 -1.35707e-19)
(0.528176 0.279698 0)
(0.919878 0.351187 -2.96073e-20)
(0.936007 0.346064 1.18511e-21)
(0.513167 -0.0633427 1.47876e-20)
(0.999717 0.00251136 -9.23883e-21)
(1.05034 0.175956 1.86665e-20)
(-0.129128 -0.0122324 -1.16624e-19)
(0.982364 0.0293857 0)
(1.00135 0.0719154 0)
(0.0170477 -0.00679653 -3.8642e-20)
(0.859944 0.476115 2.17448e-23)
(1.01701 0.0531985 0)
(1.12878 -0.0696805 7.20893e-20)
(0.701779 0.541224 0)
(1.00923 0.00510552 -1.59075e-22)
(0.139517 -0.00608891 -1.08642e-20)
(1.13207 -0.0734119 1.01674e-20)
(1.00201 0.00500731 -3.53574e-21)
(1.00938 0.0130533 -7.62215e-22)
(0.998579 1.05116e-05 -9.57946e-21)
(1.02374 0.0111122 0)
(1.23138 0.0160396 -2.87126e-20)
(0.7604 -0.067815 -7.19828e-20)
(0.386054 -0.279902 8.62088e-20)
(-0.149895 -0.010187 -1.51575e-19)
(0.997859 0.0143708 -3.3764e-21)
(1.20181 0.142066 2.93471e-20)
(-0.19229 0.0226274 2.01151e-21)
(1.11344 -0.00368917 -6.62269e-20)
(0.462172 -0.0565372 -2.85543e-20)
(0.0481704 -0.023891 0)
(0.40908 -0.0546494 -5.89933e-20)
(1.01344 0.00565949 -1.23949e-21)
(1.09631 -0.0688012 1.51212e-20)
(1.01058 0.0126571 0)
(0.82953 0.0858802 -5.19379e-20)
(1.03648 0.0255042 -1.91482e-22)
(0.0855149 0.328408 -1.44817e-19)
(1.17569 0.0167416 0)
(1.06655 -0.00625402 0)
(0.999565 0.00303422 1.05592e-20)
(1.13693 0.000107884 4.36101e-20)
(1.18496 0.127883 0)
(1.15571 0.0106374 0)
(0.326222 1.0917 0)
(-0.115722 -0.00176584 0)
(-0.274785 -0.00303464 -1.87753e-19)
(0.982699 0.21259 0)
(1.13151 0.148637 9.49962e-22)
(1.00576 0.00859564 8.48893e-23)
(-0.110752 0.0210237 0)
(0.46594 -0.0540643 -1.98655e-20)
(0.999194 0.033485 -5.40108e-21)
(1.27475 0.0118352 9.97828e-20)
(0.995621 0.010616 -1.37038e-20)
(1.20633 -0.0153077 0)
(1.04855 -0.00291834 5.81648e-21)
(0.999788 0.00211629 0)
(1.03271 0.0606668 0)
(0.552635 -0.0443109 1.27727e-20)
(1.03094 0.0609279 2.68856e-21)
(0.363281 -0.0171157 0)
(-0.0571189 0.0381712 0)
(1.11253 -0.0567018 4.0571e-22)
(0.441981 0.281013 2.47363e-19)
(0.997166 0.0434038 -2.10865e-21)
(0.495462 0.364544 -1.87805e-19)
(0.468195 0.305659 0)
(1.00205 0.00999802 0)
(0.824775 0.47681 -2.9058e-20)
(0.983779 0.0291203 1.1081e-20)
(0.994376 0.0124712 0)
(1.1905 0.0973702 0)
(1.00007 0.000335153 -2.53676e-21)
(0.993688 0.0142024 0)
(1.01082 0.0124559 7.79436e-23)
(1.23335 0.0200787 -1.21339e-19)
(0.999944 0.00159963 1.50263e-20)
(0.21568 -0.00849076 8.56054e-21)
(0.645761 -0.0545229 -2.6514e-20)
(-0.127109 0.0172714 -1.5437e-20)
(1.24372 0.182252 0)
(0.343926 -0.0249896 0)
(-0.228921 -0.00709711 4.90662e-21)
(1.11143 -0.00412149 7.35065e-20)
(0.998218 0.0137555 -6.18377e-21)
(1.20469 0.0145601 0)
(1.06413 -0.0129369 6.13259e-21)
(1.06731 0.0969182 -1.28369e-21)
(0.999687 0.00816085 1.95053e-22)
(0.691527 -0.0674143 4.56885e-20)
(0.526222 -0.0610679 3.61348e-20)
(0.70013 -0.0574298 1.57659e-20)
(0.983245 0.0873517 1.90303e-22)
(1.17658 0.00530192 0)
(0.92493 0.015881 -6.98344e-21)
(1.06586 -0.0145436 1.10163e-20)
(1.1537 0.00912361 3.77638e-21)
(1.01867 0.0621327 6.62296e-23)
(1.0963 -0.0680797 0)
(1.01756 0.0465029 3.43602e-22)
(1.00155 0.000984456 4.57356e-21)
(-0.0322261 -0.0218922 0)
(0.239129 -0.0283664 0)
(0.259055 -0.0313494 -4.36966e-21)
(1.17697 0.210936 -4.58134e-20)
(-0.135905 0.0133032 -3.49965e-20)
(0.1937 -0.0295291 2.99831e-22)
(-0.0804697 -0.0211984 8.87133e-20)
(-0.0568164 -0.00957276 -4.07503e-20)
(1.01721 0.00200583 -9.15788e-22)
(1.13859 0.00786331 -2.46947e-20)
(1.02071 0.0619671 6.39995e-23)
(0.992154 0.0310763 0)
(1.23629 -0.0249119 -1.37929e-22)
(1.13879 0.018315 4.99812e-20)
(1.019 -6.16259e-05 -4.11171e-21)
(1.15603 0.0510891 -5.25333e-20)
(1.11198 0.00111992 1.57068e-21)
(-0.0490092 -0.00715172 -2.11626e-20)
(1.00222 0.0103831 0)
(1.14765 -0.0325024 -1.81042e-20)
(-0.00594731 0.0143715 1.55946e-19)
(1.22592 0.338167 1.71761e-20)
(0.217886 -0.0123259 0)
(0.999946 0.00139306 -1.21479e-20)
(0.998059 0.0339153 6.854e-21)
(1.01135 0.000439505 0)
(1.05206 0.137465 0)
(1.01338 0.00524956 -1.94076e-21)
(0.622951 -0.0621177 -1.03786e-20)
(0.397513 -0.240388 6.43304e-20)
(0.999246 0.139439 -8.3251e-21)
(-0.0697026 0.0291176 0)
(1.08463 0.0381603 4.33785e-20)
(1.13086 -0.0449413 0)
(-0.0420888 -0.0237493 -2.87508e-20)
(0.823693 0.575052 1.73198e-21)
(1.11134 -0.0562172 0)
(1.12654 -0.0734943 0)
(1.14703 -0.0340735 1.00847e-20)
(1.1541 0.0676218 5.02616e-20)
(1.19456 -0.00101393 3.04107e-20)
(1.09678 -0.0231761 -2.69289e-21)
(1.10489 -0.060475 0)
(0.375069 0.107727 2.00154e-19)
(1.09288 -0.0313009 2.40923e-20)
(1.14331 -0.0178917 0)
(1.0148 0.000725621 -2.59296e-21)
(1.26302 -0.00817427 0)
(1.08897 0.0200203 -1.10282e-20)
(1.03057 0.0041601 -9.55122e-21)
(1.04772 0.133872 0)
(1.05652 0.0266488 0)
(-0.0456938 -0.0100866 -1.95703e-20)
(0.451878 -0.0593608 0)
(1.01489 0.0245862 0)
(1.01784 0.00101012 0)
(0.648928 -0.0666113 0)
(-0.250391 -0.0041902 0)
(1.00006 0.000254093 -2.10428e-21)
(0.195805 -0.00774922 0)
(1.05792 0.00643103 -1.78487e-20)
(1.23243 0.162568 0)
(1.01424 0.0264847 -9.46661e-22)
(-0.141648 -0.00914518 0)
(1.18504 -0.0613755 0)
(1.05722 0.096947 0)
(1.03685 0.0383351 -8.14547e-21)
(0.368658 -0.0292446 0)
(1.24587 0.134857 0)
(-0.252576 0.0118773 0)
(1.00004 0.000302667 2.54352e-21)
(-0.146339 -0.00719082 -1.47942e-20)
(0.135873 0.0563502 1.51683e-20)
(0.974179 0.0313163 7.55985e-20)
(1.03068 0.0046691 5.54621e-21)
(-0.124857 0.01731 -2.08369e-20)
(0.311417 -0.0415288 4.20354e-20)
(1.11111 -0.00760408 1.64828e-20)
(1.00993 0.0131219 5.64225e-22)
(1.00858 0.0474377 4.31477e-21)
(1.08599 -0.0473219 0)
(1.20884 -0.0186883 6.40631e-20)
(1.01945 -5.23294e-05 4.81844e-21)
(1.00891 0.0123381 7.22821e-22)
(1.00499 0.00242605 -1.24844e-21)
(1.00531 0.0025405 0)
(-0.162037 -0.00973761 -6.8244e-20)
(1.23521 -0.0211412 2.48165e-20)
(1.1106 -0.00633013 0)
(1.25516 0.123219 -4.57164e-20)
(1.00627 0.000651185 1.15496e-22)
(1.01076 0.00559075 1.25442e-21)
(1.17335 0.0037901 -3.27915e-20)
(0.172214 -0.0382948 0)
(1.10552 0.0542453 2.3925e-20)
(1.03328 0.0219363 6.16411e-22)
(0.994709 0.0129413 0)
(0.992343 -0.00040589 -6.03406e-21)
(0.913441 0.0218249 -1.66022e-19)
(0.00288599 0.0231913 -4.00821e-20)
(1.00049 0.00380549 6.22921e-21)
(0.992537 0.00260618 0)
(1.09366 -0.0680335 7.85124e-21)
(1.09724 -0.0217112 0)
(1.1014 0.00521085 -1.0914e-20)
(0.997054 0.0323727 1.12238e-20)
(1.0282 0.0637372 0)
(1.04295 0.0952505 -9.45981e-21)
(1.14108 -0.0187007 0)
(0.948852 0.493272 0)
(1.25991 0.131327 0)
(1.20534 0.0107831 0)
(1.16155 -0.00955945 4.14089e-20)
(1.23546 -0.0344954 -9.09924e-22)
(1.16774 0.1225 3.33198e-20)
(1.00169 0.0170209 0)
(-0.134316 -0.00723516 -5.26901e-20)
(0.992691 -0.000905333 6.52162e-22)
(1.00193 0.0748128 6.52558e-22)
(1.06811 0.0011931 0)
(1.26292 -0.00916384 2.9981e-20)
(0.991097 0.288937 2.97434e-23)
(1.00998 0.00125679 -5.56672e-22)
(1.22843 0.327149 0)
(1.20035 0.0859282 2.74002e-20)
(-0.0919645 0.000778548 1.85714e-21)
(1.1629 -0.0075632 4.43565e-20)
(0.88667 0.134647 -7.94165e-23)
(1.11434 0.000410636 -1.64945e-21)
(0.999429 0.00331623 -1.11793e-20)
(0.484368 -0.0424148 0)
(1.21749 0.316979 5.76767e-20)
(0.352819 -0.0501217 0)
(1.01692 0.0443245 -4.02524e-22)
(1.09575 0.0438535 0)
(1.25823 0.118847 0)
(0.0566563 -0.0258287 -1.69464e-20)
(-0.185557 0.00504126 0)
(1.14441 -0.000723931 0)
(1.18561 0.212645 0)
(0.990542 0.0878166 1.46333e-20)
(1.05589 0.0573503 0)
(0.995962 0.0328638 -6.98794e-21)
(0.88826 0.230486 3.36535e-21)
(0.670295 0.181229 -5.27415e-20)
(0.973435 -0.00407295 0)
(1.12981 -0.00151691 0)
(0.568789 0.148209 1.68335e-19)
(0.366723 -0.0516054 1.93031e-20)
(-0.245924 0.0135663 0)
(1.03109 0.0738056 -2.852e-21)
(1.12906 -0.0445212 1.85104e-20)
(1.19368 -0.0608691 0)
(1.00338 0.117541 -5.19477e-21)
(0.96779 0.0236456 0)
(0.174903 0.540912 -1.09726e-19)
(0.649503 -0.0559107 0)
(0.607324 -0.065663 2.4803e-20)
(1.25027 0.107115 2.35229e-20)
(1.01791 0.00212059 0)
(0.14498 -0.00826868 3.69414e-20)
(1.08691 -0.0466392 -2.13102e-20)
(1.0099 0.000934532 0)
(1.09282 0.0753982 0)
(1.1275 -0.0288293 0)
(0.846263 0.0694445 1.18471e-20)
(1.18872 0.0882242 0)
(0.50893 -0.0517283 0)
(1.19132 -0.00158016 0)
(1.09294 -0.0199674 2.26442e-20)
(0.485078 -0.0419718 0)
(1.05855 0.0327342 -3.46019e-23)
(-0.0768752 -0.00750636 -2.35876e-20)
(0.99998 0.00211402 -4.35848e-22)
(1.00049 0.00410873 -7.35347e-21)
(1.0199 -0.075938 0)
(0.619096 -0.0569718 -3.002e-22)
(0.376507 0.239243 -3.50759e-20)
(1.05913 0.0313562 -5.46353e-21)
(1.01346 0.0543604 2.37857e-21)
(0.992967 0.00306873 -1.06266e-20)
(1.08247 -0.0335133 -9.58024e-21)
(0.0781598 0.173714 1.57921e-19)
(1.09315 -0.0550566 -2.18139e-20)
(1.05817 0.0578135 -1.29385e-20)
(1.11136 -0.0545195 0)
(1.13465 -0.001437 0)
(1.0141 0.0272205 1.31421e-22)
(1.16692 0.484053 -3.69211e-20)
(1.09206 -0.0545012 0)
(1.09197 -0.0652051 2.95211e-20)
(1.00448 0.0196488 8.75534e-21)
(1.18709 -0.00580751 -6.60754e-20)
(1.05563 0.0281461 0)
(-0.0133981 0.0488627 1.20718e-19)
(1.14355 0.14833 2.60585e-20)
(1.00179 0.282004 -3.66786e-21)
(1.09685 0.0457449 0)
(1.00777 0.00288802 -2.62828e-22)
(1.02831 0.0067912 3.08255e-21)
(1.03542 0.0293123 -5.96515e-21)
(0.966353 0.351715 -1.44735e-21)
(0.890016 0.0187368 5.67497e-20)
(1.24757 0.0488073 1.47502e-19)
(0.471651 0.806496 4.01904e-20)
(1.12947 -0.00896518 -1.51124e-20)
(1.00876 0.00504662 -3.13329e-23)
(1.19523 0.00527343 7.445e-20)
(0.373526 0.269703 0)
(1.13351 -0.0767144 2.0444e-20)
(1.04093 0.00486918 3.1699e-21)
(0.89953 0.031822 1.2882e-20)
(1.00838 0.0122286 -1.41004e-21)
(1.07818 -0.01463 8.51639e-21)
(1.07341 0.0460543 0)
(0.289059 -0.0417534 -1.13104e-19)
(0.999858 0.00219383 -7.42384e-21)
(1.23556 0.502099 0)
(1.07935 -0.0117295 0)
(1.11766 -0.0589637 -8.86524e-21)
(1.17082 0.143806 -6.00238e-20)
(-0.0975663 -0.0136959 0)
(1.02445 0.280038 -9.94708e-21)
(1.00821 0.0457668 -3.0082e-21)
(-0.0119299 -0.0168655 0)
(-0.25239 -0.000950206 0)
(1.00599 0.0351174 4.98233e-21)
(1.06708 0.000384992 -2.81552e-21)
(1.1909 -0.0565113 -1.92129e-20)
(1.24207 0.109377 -4.05639e-20)
(1.16086 -0.0206251 -6.19099e-20)
(1.00015 0.00037101 -2.56108e-21)
(1.03814 0.0383101 6.76013e-21)
(1.1939 0.314605 0)
(1.06716 -0.0071679 -9.76864e-21)
(1.15549 0.0140772 0)
(1.10901 -0.0343252 -7.65193e-21)
(1.02901 0.0066774 -6.59875e-21)
(1.11462 -0.0215701 0)
(0.576733 -0.0660994 1.36245e-20)
(1.04049 0.0033066 2.5666e-23)
(1.05458 -0.00536713 -2.9555e-21)
(1.00445 0.00257515 0)
(0.0921335 -0.00749813 0)
(0.999952 0.000945368 6.4474e-21)
(0.983559 0.0834738 0)
(-0.282925 -0.000536851 4.66077e-20)
(0.992782 0.0683738 0)
(0.679097 -0.0549054 -2.25946e-20)
(1.07502 0.0675456 -1.62895e-20)
(0.831024 0.0735855 -6.57257e-20)
(1.00479 0.0026998 1.25235e-21)
(1.02126 0.214763 -7.0578e-21)
(1.00059 0.0124114 -4.58795e-21)
(1.15207 0.0754955 -1.24536e-20)
(1.00744 0.00173241 9.24423e-23)
(1.08235 0.260726 -2.5241e-20)
(1.0576 0.00718811 8.98846e-21)
(0.252304 0.148345 -9.0067e-20)
(0.434015 0.681962 5.71635e-20)
(0.169583 -0.0392704 -4.52041e-20)
(1.01084 0.000423775 1.56318e-22)
(0.999649 0.00270086 8.46851e-21)
(1.16221 0.119433 3.90628e-20)
(1.12394 0.114755 -7.6006e-23)
(0.0528562 -0.0112837 3.49421e-20)
(0.27926 -0.0478481 0)
(1.14087 0.026812 -4.48971e-20)
(0.992663 0.0112747 0)
(1.23244 0.0183649 9.41281e-20)
(0.343604 0.214245 0)
(1.08972 -0.0650074 -3.26898e-20)
(1.24407 0.0520138 -1.32965e-19)
(1.13244 0.012994 -4.10134e-20)
(0.551735 -0.0511671 -1.93569e-20)
(1.08504 0.131252 2.35511e-20)
(1.08077 -0.0321462 4.63708e-20)
(1.20197 0.0269938 0)
(0.854973 0.420845 2.00376e-20)
(1.13922 0.0286802 4.77342e-20)
(0.304707 0.290516 1.58242e-19)
(1.13949 0.0347257 0)
(1.06029 -0.00378059 0)
(1.12893 -0.0301354 0)
(1.00612 0.108706 0)
(1.03405 0.00569901 6.4103e-21)
(1.07807 -0.0136748 -5.34537e-21)
(1.11115 0.12232 3.31366e-20)
(1.05014 0.0976012 0)
(0.999461 0.0123046 5.15256e-21)
(1.00671 0.000521861 0)
(1.13219 -0.00565307 0)
(1.06357 0.0127216 -5.85946e-21)
(1.15835 0.0155303 0)
(0.993358 0.0109631 -3.62319e-22)
(0.995225 0.00856814 -2.05991e-21)
(0.999962 0.000748168 -8.03381e-21)
(1.02403 0.0638474 -9.80296e-23)
(1.02369 0.00153213 -1.95054e-21)
(1.04854 0.0833885 1.02795e-20)
(1.00395 0.0027284 -2.08408e-21)
(-0.14897 -0.00843928 0)
(1.09213 -0.041435 0)
(0.470621 -0.286317 0)
(1.01218 0.00532414 -1.8144e-21)
(1.00006 0.00161014 2.87342e-21)
(0.801857 0.143515 -9.1476e-20)
(1.1574 0.0655625 -4.29953e-20)
(0.95337 0.00278531 0)
(0.815339 0.00392488 -5.56275e-21)
(1.13316 0.197947 3.45236e-20)
(1.00802 0.113299 1.44802e-19)
(1.07939 -0.012722 6.91125e-21)
(1.18265 0.00344765 0)
(1.05186 0.0167106 0)
(0.999908 0.00101423 0)
(1.00556 0.002268 0)
(1.0356 0.0586592 1.01977e-20)
(-0.312313 0.00203898 -3.60932e-21)
(1.00005 0.00136587 2.43128e-21)
(1.17752 -0.0425004 -7.93879e-23)
(1.04988 0.0858071 0)
(-0.190608 0.0255622 7.49302e-20)
(0.966077 0.223929 6.70936e-21)
(1.14037 0.195972 -3.85962e-20)
(1.11612 -0.0583862 0)
(1.02098 0.00665119 -1.57271e-21)
(1 4.28185e-05 0)
(1.09337 -0.0417633 -8.08725e-22)
(0.988124 0.00309225 -1.36722e-20)
(0.985141 0.0428686 5.86307e-21)
(0.9549 0.00335651 -5.81627e-20)
(1.01315 0.0581871 1.12403e-21)
(0.99861 0.000684674 0)
(1.08541 0.0561086 1.4806e-20)
(1.00622 0.00773965 5.74058e-22)
(1.01673 0.000943798 0)
(1.05665 0.092778 0)
(0.884963 -0.0245264 0)
(0.0321915 -0.00755222 0)
(1.08053 0.111456 0)
(1.0405 0.00279144 -3.03914e-23)
(1.00911 0.000972693 -2.05665e-22)
(0.0877322 -0.0302417 1.57939e-20)
(0.951897 0.359281 1.14245e-21)
(1.00183 0.0422021 -5.13268e-21)
(1.01796 0.0436783 -1.56205e-22)
(0.907471 0.0073694 0)
(1.19451 -0.0579823 1.85599e-20)
(-0.289453 -0.00310612 2.34509e-20)
(0.894443 0.135167 3.34974e-20)
(1.06116 -0.00298652 0)
(1.01182 0.00321664 8.53424e-22)
(1.01696 0.00111111 0)
(1.09432 -0.0313678 -4.95873e-20)
(1.08515 0.112526 -1.14845e-21)
(1.13008 -0.0659246 2.67229e-20)
(0.917575 0.0187268 -2.31433e-20)
(0.142431 -0.0207772 -2.72953e-20)
(1.02834 0.0433306 -1.75839e-22)
(0.964735 0.0589066 -7.13723e-21)
(-0.299115 0.000375094 1.30728e-19)
(0.995441 0.0100533 1.39205e-20)
(1.09003 0.0184521 3.26226e-20)
(1.00489 0.0315376 0)
(1.00199 0.00126899 -1.9934e-21)
(1.10391 0.127673 -3.08767e-20)
(0.773705 -0.00929729 1.4521e-19)
(1.04921 0.0286292 0)
(0.643102 -0.055578 -1.0228e-21)
(0.298672 -0.0108707 1.61088e-20)
(1.17513 0.138985 1.80969e-20)
(1.00199 0.0176311 -6.51233e-21)
(1.02553 0.00316963 -2.5894e-21)
(1.09848 -0.054714 -7.98621e-21)
(1.19872 -0.0393867 2.72649e-20)
(1.00006 0.000416202 0)
(1.22744 -0.0375511 0)
(1.02501 0.00330679 2.42488e-21)
(1.10769 0.11725 2.80688e-20)
(1.03518 -0.000664911 1.42552e-21)
(1.03513 0.0074161 -8.41306e-21)
(1.21709 -0.0181985 -1.35072e-19)
(1.04026 0.016844 -1.69364e-21)
(0.994571 -0.0629161 -6.6874e-21)
(1.11323 0.0904208 -1.04777e-20)
(0.999956 0.000685829 2.41142e-22)
(1.02038 0.00370891 5.88889e-21)
(0.981257 0.000791032 1.41202e-21)
(1.0095 0.0203179 -2.66999e-22)
(1.05408 -0.0044004 1.11196e-20)
(0.272356 0.68452 0)
(1.03915 0.00511113 -9.07546e-21)
(1.03116 0.0111423 0)
(0.348605 -0.055433 1.5894e-20)
(0.576916 -0.0621774 0)
(1.09427 -0.0212339 -1.00105e-20)
(1.11863 0.115969 0)
(1.14896 0.00559229 -3.21369e-20)
(1.07711 0.0260691 -9.39282e-21)
(1.02454 0.0147635 -2.05644e-21)
(0.887777 0.0114327 0)
(-0.117931 -0.0109389 9.8197e-20)
(1.09205 0.262091 8.93983e-21)
(0.99826 0.00523902 0)
(1.03555 0.0374647 6.24229e-21)
(0.309593 -0.0502273 -3.62874e-20)
(1.11369 0.0224689 3.14605e-20)
(-0.103402 -0.011965 6.92761e-20)
(0.999957 0.000898619 0)
(0.950962 0.00359351 1.71376e-20)
(0.0754878 -0.00650792 -1.45538e-20)
(1.10643 0.0165693 -4.30169e-20)
(1.05136 0.027298 0)
(-0.306369 0.0036857 1.29283e-19)
(0.212725 0.23683 0)
(1.00977 0.0197878 2.41345e-22)
(1.19789 0.0282706 0)
(1.00588 0.00238585 0)
(1.03911 0.0167822 0)
(1.01255 0.00560682 0)
(-0.112914 -0.014811 -8.93453e-20)
(1.02329 0.00137263 -3.86093e-21)
(1.04003 -0.00255941 -7.2054e-21)
(1.0251 0.014341 0)
(0.945059 -0.0625261 7.58455e-21)
(1.06377 -0.0107918 6.72141e-21)
(1.23657 0.15593 -4.42929e-20)
(0.701582 -0.0953603 0)
(1.03574 0.00564373 -7.29265e-21)
(0.844633 0.0263648 5.23796e-20)
(1.00052 0.00361313 2.24756e-21)
(-0.140098 -0.0100449 0)
(1.00539 0.0103042 0)
(1.03985 0.00460159 -3.17587e-21)
(0.998669 0.00118973 0)
(1.09938 -0.0553654 -4.66974e-22)
(0.9985 0.00105817 0)
(1.19029 -0.00531698 6.67117e-20)
(0.306689 -0.00616774 -7.58955e-21)
(0.690784 -0.0712868 -1.36475e-20)
(0.904405 0.0323375 0)
(1.13159 -0.0722819 -1.16188e-20)
(-0.258122 -0.00196125 0)
(0.996503 0.027043 0)
(0.126131 -0.00535727 -4.07754e-20)
(0.419099 0.0436256 -1.60115e-19)
(-0.236565 -0.00237415 4.63638e-20)
(0.331004 -0.0243916 1.59707e-20)
(0.32995 -0.054431 3.15597e-20)
(0.116334 0.171525 0)
(1.19193 0.00651004 -3.46597e-20)
(1.01024 0.0484302 0)
(0.493827 -0.0499276 1.07371e-20)
(1.10578 0.0185106 1.02264e-20)
(0.434156 -0.0509942 7.26102e-21)
(1.02997 0.00502645 0)
(1.02381 0.023401 2.25358e-21)
(1.00326 0.0431967 4.73732e-21)
(1.00056 0.00390511 -5.02116e-21)
(1.08209 0.0217463 1.17419e-20)
(0.890898 0.0909896 -9.58798e-20)
(0.0966023 -0.0136942 0)
(1.02365 0.0224265 -2.02434e-21)
(0.993819 0.00388474 1.11067e-20)
(-0.221606 0.0186955 -7.28693e-20)
(0.970826 0.450797 -2.05733e-21)
(0.981419 -0.000477226 -1.49881e-21)
(0.812004 -0.0543662 4.3456e-20)
(1.09275 0.0581757 -2.03686e-20)
(1.04517 0.0225362 1.40216e-20)
(0.496365 0.718718 0)
(0.805748 -0.0491483 -4.75805e-20)
(0.95164 0.050922 -2.95005e-20)
(1.06412 -0.0100669 -6.75091e-21)
(0.277428 -0.00682989 3.36257e-20)
(-0.284342 0.000691162 -1.18318e-19)
(0.222563 0.0590206 0)
(1.0347 -0.000227275 -2.58475e-21)
(1.24279 0.142227 0)
(1.19695 0.082163 -4.5391e-20)
(-0.22072 0.00541538 0)
(0.393358 -0.0542682 0)
(1.09116 -0.0492541 0)
(1.01532 0.0265608 0)
(1.05286 0.0174567 0)
(1.02693 0.0436548 -1.94157e-22)
(1.01989 0.000126042 4.13707e-21)
(1.02666 0.0649669 1.06424e-22)
(1.01716 0.00175703 3.83915e-21)
(1.04534 0.0937141 7.88675e-21)
(1.0809 0.131031 -3.34294e-20)
(-0.0500197 0.0288397 4.56629e-20)
(1.15163 -0.0363504 3.73008e-20)
(1.04047 -0.00202022 -3.77484e-21)
(1.17943 0.00248208 0)
(-0.0637867 -0.0224125 7.14474e-20)
(1.10061 0.122515 2.66988e-20)
(0.972254 0.023587 0)
(-0.0839441 -0.00592673 2.66033e-20)
(1.03051 0.0202936 1.10666e-20)
(0.986013 0.0408509 -1.18305e-20)
(0.817402 0.0627377 3.54152e-20)
(-0.0115334 0.0359692 0)
(0.998423 -0.000335959 7.67959e-22)
(1.00405 0.0199523 0)
(0.463396 -0.057408 0)
(1.11887 -0.0700249 0)
(1.19143 -0.0614704 -1.11321e-19)
(1.16267 -0.0143513 -6.55406e-20)
(1.13001 -0.0747243 -5.3856e-23)
(1.00766 0.0190346 -1.60985e-21)
(1.20195 0.0053908 -8.19165e-20)
(0.971307 0.025481 0)
(1.00351 0.0107746 -7.66752e-23)
(0.969155 0.0214197 0)
(0.582262 -0.0606642 0)
(-0.267509 -0.0042292 -6.16202e-21)
(1.03239 0.00960206 3.87386e-23)
(1.02088 0.00374865 -7.55817e-21)
(1.00484 0.0329151 0)