/*--------------------------------*- C++ -*----------------------------------*\
| =========                 |                                                 |
| \\      /  F ield         | OpenFOAM: The Open Source CFD Toolbox           |
|  \\    /   O peration     | Version:  v2012                                 |
|   \\  /    A nd           | Website:  www.openfoam.com                      |
|    \\/     M anipulation  |                                                 |
\*---------------------------------------------------------------------------*/
FoamFile
{
    version     2.0;
    format      ascii;
    class       volScalarField::Internal;
    location    "700";
    object      V0;
}
// * * * * * * * * * * * * * * * * * * * * * * * * * * * * * * * * * * * * * //

dimensions      [0 3 0 0 0 0 0];


value           nonuniform List<scalar> 
13917
(
0.0119231
0.0427371
0.0027527
0.0348229
0.120464
0.00224694
0.00229236
0.00146111
0.0017734
0.00789091
0.00440165
0.00916277
0.0250065
0.00135547
0.0216403
0.0262983
0.0405273
0.00906936
0.0104536
0.157891
0.136651
0.00192098
0.123798
0.00200041
0.072008
0.00214553
0.00739648
0.00499487
0.0020796
0.00595846
0.0111258
0.0178138
0.0111497
0.0171175
0.0709404
0.00311374
0.121745
0.0014485
0.0269821
0.00123652
0.173914
0.172454
0.132977
0.00483657
0.0436204
0.0172173
0.0102397
0.00766838
0.00167524
0.170072
0.0157295
0.0390864
0.00147121
0.0159067
0.038145
0.0196005
0.00563327
0.0663675
0.0270433
0.0423191
0.00237617
0.0482579
0.00125092
0.136548
0.00319296
0.00242702
0.11377
0.0676559
0.00368859
0.0125054
0.128839
0.00179869
0.00141576
0.0956854
0.00149377
0.00896131
0.0012454
0.0371499
0.0023379
0.146832
0.15332
0.109265
0.00263236
0.00171304
0.00193398
0.0383788
0.141679
0.00191681
0.0209773
0.107051
0.0014511
0.00756617
0.069375
0.0310172
0.00154037
0.00296809
0.00507697
0.00778051
0.00482606
0.00523788
0.126656
0.0119338
0.00419257
0.0273045
0.0899606
0.0022615
0.00350395
0.00664708
0.0433371
0.00977937
0.00166248
0.00155961
0.0063086
0.00196038
0.0264272
0.00132617
0.103242
0.00174511
0.00140008
0.0157235
0.164122
0.00421069
0.00125291
0.0067548
0.150107
0.0342251
0.0427516
0.170206
0.173479
0.00224777
0.00129601
0.0330546
0.0439893
0.14059
0.00326393
0.00205946
0.0111966
0.00359971
0.101376
0.0171972
0.00417144
0.0761592
0.0409356
0.00437437
0.0567179
0.00259532
0.00231826
0.0469912
0.0880005
0.0191423
0.00928673
0.00117923
0.00733205
0.00899947
0.0209875
0.00189671
0.0145697
0.00313198
0.00125196
0.0031994
0.0233809
0.00818
0.162267
0.005589
0.00798119
0.00460908
0.0265163
0.00879081
0.0623639
0.00952812
0.0105737
0.00132025
0.00610849
0.0350817
0.00272076
0.00734837
0.00161459
0.00163624
0.00277702
0.0657604
0.0065132
0.0122257
0.0772106
0.126587
0.0150517
0.00234283
0.00423039
0.00206685
0.0100982
0.00353715
0.0031198
0.00194294
0.00349656
0.142856
0.00370221
0.00783033
0.188477
0.0555123
0.00375696
0.00202071
0.0215953
0.129489
0.0112652
0.0101685
0.00134395
0.00298515
0.0607121
0.058572
0.00808432
0.00270145
0.0443116
0.00225974
0.00138392
0.00544207
0.0917615
0.00270877
0.00948925
0.00154424
0.0701281
0.00271234
0.078116
0.00560173
0.14293
0.00137394
0.00201627
0.0233393
0.00351987
0.0185662
0.103826
0.00271118
0.0064288
0.0108143
0.00256711
0.00105146
0.141249
0.0160001
0.00172797
0.00120055
0.138903
0.11603
0.00131733
0.00435484
0.162467
0.00393685
0.00712361
0.00732732
0.0126934
0.163919
0.0113453
0.00128497
0.0565354
0.00647018
0.00388067
0.0465276
0.0590267
0.00808615
0.00133778
0.00669122
0.0119237
0.0199086
0.177315
0.00112597
0.00261853
0.00341901
0.0832639
0.00153656
0.00126815
0.00287575
0.00192223
0.00771301
0.160069
0.185401
0.00885507
0.00140299
0.00581851
0.0270166
0.00296975
0.0116194
0.162397
0.00230263
0.138577
0.00243034
0.0249771
0.133593
0.0180058
0.00801101
0.00989959
0.00324241
0.0124535
0.0494753
0.00337803
0.00219334
0.0019405
0.0801478
0.00296305
0.124121
0.0520943
0.109931
0.00201883
0.183654
0.00517858
0.0146538
0.0677401
0.00931422
0.031767
0.0010364
0.00802559
0.00807248
0.065936
0.0608792
0.00153543
0.00135366
0.0880483
0.155531
0.00269218
0.0713253
0.00150816
0.0771622
0.00126336
0.0396108
0.00385331
0.0160501
0.00142565
0.0255244
0.00307666
0.00263716
0.0183124
0.00370437
0.00268343
0.040489
0.00158788
0.00325387
0.00104002
0.0201445
0.00128316
0.0166182
0.00184685
0.00361774
0.00441774
0.0050094
0.00220891
0.12392
0.0107316
0.00186499
0.0406957
0.0279564
0.0013997
0.00335285
0.0433581
0.00351366
0.00198958
0.144593
0.00145635
0.00358335
0.133145
0.104903
0.13895
0.0790339
0.00330237
0.00244481
0.00240267
0.00183555
0.0889963
0.00549078
0.00127607
0.0114201
0.00194335
0.00166184
0.00193199
0.10891
0.00378879
0.0901332
0.00249931
0.0411822
0.00133846
0.00651667
0.0313509
0.10966
0.00882752
0.00522097
0.00606573
0.00123933
0.00163841
0.00122891
0.00998218
0.00641615
0.099378
0.00124474
0.00195667
0.0586463
0.00383371
0.104401
0.00396846
0.0370348
0.135506
0.0230531
0.00167928
0.0277354
0.00168293
0.00148011
0.0024635
0.00248603
0.0393669
0.00261863
0.00240579
0.125306
0.00377014
0.0470136
0.0658768
0.00486972
0.177496
0.0979437
0.0820743
0.00361778
0.142031
0.00145385
0.00213145
0.001346
0.00327425
0.00157977
0.00128462
0.0123206
0.0941748
0.00522229
0.0235552
0.0165026
0.125052
0.00259151
0.00240392
0.00258671
0.0209516
0.00571794
0.0233094
0.0283331
0.00725054
0.0291421
0.00299636
0.0405838
0.152807
0.00156958
0.0014745
0.0015327
0.0054391
0.00119471
0.00178498
0.00151148
0.00150092
0.14361
0.00790426
0.028861
0.0537124
0.00325579
0.00763024
0.161542
0.00829766
0.0123369
0.00134819
0.0999602
0.00562135
0.00164624
0.00305554
0.00121094
0.133937
0.0502833
0.161405
0.0113894
0.131301
0.00229614
0.00268967
0.0145605
0.00170589
0.0206062
0.0047353
0.00158294
0.00148555
0.00454947
0.00333748
0.00487588
0.00927389
0.00462721
0.0114094
0.00444923
0.0023244
0.00956592
0.00533411
0.155345
0.0027767
0.0214338
0.0798587
0.0123671
0.0335704
0.00150152
0.00164247
0.0694733
0.153886
0.002403
0.00112586
0.180778
0.0012428
0.0295748
0.00412986
0.0725743
0.00107879
0.00311602
0.0187337
0.0305824
0.00184745
0.00403766
0.00127972
0.177009
0.00135699
0.0018633
0.0029539
0.0681548
0.00170488
0.00211092
0.0113257
0.0997501
0.0351408
0.00929941
0.00374984
0.137217
0.110787
0.138
0.136803
0.00124537
0.00306159
0.0121801
0.00423312
0.166645
0.0984323
0.00574185
0.00216926
0.0121045
0.0512642
0.0877892
0.0700552
0.00258232
0.00184901
0.141249
0.0728523
0.00354185
0.0118918
0.0118681
0.0567922
0.0246578
0.0187377
0.00595109
0.00279473
0.00350608
0.00442786
0.00527002
0.00300418
0.00686548
0.0778135
0.00147786
0.0793798
0.0250069
0.0270351
0.0026727
0.00530667
0.116461
0.00317509
0.00515613
0.00144711
0.00483297
0.00961537
0.011745
0.104262
0.00191778
0.00324365
0.00158835
0.0472945
0.0150223
0.00367742
0.00150798
0.00136609
0.00720465
0.00436539
0.0255168
0.0215522
0.049678
0.00601945
0.00414748
0.0424543
0.00969517
0.00333233
0.0017156
0.00108639
0.0260764
0.00508767
0.00357989
0.016276
0.0432001
0.00155873
0.00259026
0.00225819
0.0041437
0.140139
0.00123945
0.00985513
0.136844
0.013976
0.00723787
0.0113823
0.00633835
0.00216502
0.00499722
0.0153849
0.00233284
0.0265216
0.00138095
0.141097
0.107803
0.00245856
0.0021681
0.002447
0.0247709
0.0394279
0.0781606
0.0102861
0.00135973
0.00496963
0.020775
0.00554992
0.00888966
0.0591027
0.00242626
0.00607966
0.00341241
0.0765304
0.00402278
0.0325947
0.00155635
0.00813928
0.00587196
0.0127436
0.136675
0.0777126
0.0417454
0.0049506
0.0149437
0.00375916
0.00126127
0.00855871
0.134985
0.00380766
0.00179583
0.00335447
0.0556213
0.015451
0.110675
0.0167869
0.0203963
0.00188216
0.145803
0.00229538
0.0175245
0.00405765
0.00644439
0.00133484
0.00551923
0.0385604
0.00135553
0.00136609
0.0543218
0.0284068
0.00333892
0.00462396
0.00556215
0.167973
0.0305921
0.00400906
0.0246519
0.00742023
0.00924424
0.0706522
0.0103337
0.00243672
0.0530746
0.0418425
0.154683
0.00138236
0.153758
0.0218772
0.00135428
0.024969
0.0024153
0.0207408
0.00849101
0.137367
0.00818989
0.100431
0.00899247
0.162909
0.00568662
0.0289504
0.00174782
0.00135543
0.00166133
0.189139
0.135549
0.00718112
0.00947843
0.00119877
0.00156322
0.00875408
0.0755779
0.00371256
0.00238694
0.00298209
0.00413027
0.00903206
0.00207508
0.0100309
0.0128678
0.00399717
0.00375587
0.00943341
0.00169652
0.0104163
0.0305037
0.00642532
0.0144855
0.0688468
0.0182233
0.0100148
0.0181176
0.101977
0.152723
0.00901149
0.0258601
0.00663122
0.0671267
0.090005
0.141104
0.0261391
0.100448
0.0204973
0.142103
0.00110546
0.00986539
0.00280673
0.139702
0.138303
0.00676144
0.00785222
0.0300293
0.00241015
0.0062887
0.00262379
0.0136995
0.00489638
0.0311042
0.158394
0.145283
0.0258823
0.00123902
0.145244
0.00267896
0.0151077
0.00106717
0.00794404
0.00550313
0.00434441
0.0961617
0.182508
0.00876033
0.071089
0.0400089
0.00268212
0.0316137
0.130193
0.0152864
0.128566
0.132266
0.0176383
0.0135342
0.0010517
0.0134841
0.0442532
0.178756
0.00157656
0.00406027
0.0479365
0.0380634
0.00253136
0.00326117
0.00130489
0.0113395
0.0295792
0.130341
0.125041
0.00938034
0.0127757
0.00320524
0.0147408
0.00156518
0.0339857
0.0253422
0.000927962
0.103138
0.0183216
0.0571418
0.160173
0.0100335
0.0075106
0.0321131
0.00205542
0.00121586
0.00745923
0.0633086
0.0809852
0.00554886
0.00273837
0.158746
0.00280488
0.0842284
0.0106627
0.0535324
0.0696623
0.00344152
0.0506438
0.00293423
0.010701
0.151705
0.109842
0.0509084
0.0718438
0.044454
0.00152694
0.055996
0.0706817
0.00165184
0.00200217
0.0120814
0.011609
0.00660144
0.0210851
0.079426
0.0107805
0.00136376
0.00455817
0.0981193
0.0407399
0.00181583
0.00993451
0.00157029
0.136229
0.0284652
0.00134027
0.0132601
0.0344884
0.001242
0.0016233
0.07952
0.00434112
0.118776
0.0544477
0.106851
0.00137682
0.0988714
0.0474794
0.0799642
0.00251812
0.0215851
0.004227
0.00587893
0.0624164
0.0103473
0.143861
0.00150952
0.0984658
0.0554903
0.131087
0.00383545
0.110392
0.00395684
0.00127138
0.00255634
0.0184232
0.00302558
0.00134802
0.0602027
0.00123367
0.00165951
0.00127799
0.00156285
0.00157759
0.00152284
0.00404334
0.0349018
0.00189612
0.0141197
0.00178151
0.0803353
0.0622166
0.0480503
0.141706
0.0183863
0.0129942
0.00104508
0.0638621
0.073269
0.00109425
0.00317147
0.0479336
0.00712632
0.0152314
0.0414844
0.00108629
0.00697079
0.0236291
0.0214739
0.00121434
0.00100236
0.00174882
0.0568002
0.00399452
0.00491827
0.00135298
0.00172555
0.00697322
0.0621111
0.0306223
0.031526
0.160386
0.0239372
0.133004
0.0163678
0.00593141
0.00165029
0.00551766
0.0445139
0.00517272
0.00152874
0.0108285
0.0473087
0.00122104
0.0600433
0.0413843
0.00859199
0.00175296
0.112538
0.0740303
0.00208568
0.00317063
0.0030528
0.00499614
0.00246249
0.0665132
0.00350791
0.0430971
0.10266
0.0437798
0.00256988
0.00114182
0.0627111
0.107426
0.055194
0.00298549
0.0261119
0.0173899
0.0753947
0.0453176
0.00418987
0.0575732
0.00764795
0.00355064
0.00173877
0.0502368
0.00528955
0.0222222
0.00139299
0.00120438
0.0861756
0.0012281
0.00659046
0.00164062
0.121801
0.00153471
0.119911
0.0158645
0.0108121
0.00444287
0.00234575
0.00286309
0.0044813
0.0022587
0.140977
0.0037267
0.0726377
0.0118286
0.00185903
0.048065
0.154917
0.0334383
0.0391918
0.0013047
0.114725
0.1232
0.00894792
0.00757722
0.00957489
0.00227398
0.00542727
0.00120181
0.00910502
0.0122771
0.0142106
0.00135155
0.0123046
0.00265148
0.00150659
0.0213109
0.0646675
0.00160124
0.00334945
0.0414248
0.00594673
0.00941426
0.0356411
0.0188355
0.0360809
0.0111537
0.173376
0.00916123
0.00335745
0.101497
0.0084632
0.0613598
0.00635142
0.166034
0.0148512
0.00768058
0.0240772
0.0410533
0.065082
0.00165158
0.00610249
0.00258066
0.0726797
0.0382719
0.00825782
0.0580229
0.00678137
0.00563247
0.0345663
0.00649678
0.0698353
0.00239084
0.0437151
0.016285
0.00103619
0.00359879
0.0804575
0.0269143
0.00127359
0.0989652
0.102355
0.00142846
0.00148891
0.0219043
0.00435246
0.145462
0.0403655
0.00253424
0.0316246
0.0905675
0.00329722
0.0560109
0.00298378
0.115505
0.098201
0.0437815
0.00520746
0.00143075
0.0434041
0.0406368
0.073138
0.0193386
0.134542
0.00164771
0.00836711
0.158978
0.00231893
0.00842402
0.00283983
0.00158031
0.00150646
0.0678406
0.0481772
0.0532541
0.00197763
0.0195157
0.00149616
0.00141005
0.027346
0.00180492
0.00155132
0.00926229
0.00440643
0.00570106
0.00239457
0.00223745
0.00475109
0.00278444
0.00155968
0.00915495
0.0221661
0.00133735
0.00543481
0.0711709
0.0237743
0.00247054
0.0101378
0.0673113
0.00718031
0.00599796
0.011531
0.00122787
0.0266576
0.002239
0.0127113
0.00378766
0.00446918
0.00398425
0.0157953
0.0658657
0.0399716
0.00238252
0.0818002
0.0226507
0.153659
0.0247319
0.0591602
0.0103919
0.00503774
0.00142982
0.00806479
0.00644687
0.00237158
0.00287813
0.0588455
0.00302107
0.00220494
0.056981
0.10069
0.0125177
0.00132502
0.14119
0.00743679
0.00255158
0.00831889
0.0573422
0.0279083
0.0574822
0.00526623
0.00938568
0.134039
0.00172195
0.00206938
0.00954169
0.00276945
0.00770594
0.00212772
0.0262687
0.0193563
0.00229099
0.00276987
0.00683714
0.00186357
0.01774
0.147855
0.0617706
0.0491828
0.0586457
0.0272457
0.00883385
0.0756922
0.0045885
0.133249
0.0143739
0.0672394
0.00644378
0.00526304
0.00294026
0.0616765
0.00399046
0.0595185
0.00225974
0.0922648
0.017619
0.0938346
0.00360721
0.00124319
0.00400439
0.0725098
0.00527151
0.0461103
0.0142124
0.00149256
0.0530859
0.042426
0.00805528
0.0155988
0.00191902
0.0735449
0.0145395
0.0383877
0.105542
0.0122324
0.0326884
0.101406
0.0244106
0.00100088
0.0221449
0.00305491
0.00227199
0.00908053
0.00142735
0.0220872
0.109677
0.014327
0.00116934
0.0340112
0.0102139
0.0107619
0.00159876
0.0748967
0.00113421
0.00713973
0.00736708
0.0670188
0.114492
0.00504403
0.0390703
0.144509
0.00999662
0.0812237
0.0159015
0.0156356
0.00539841
0.00333651
0.00208121
0.0220968
0.00553836
0.00246723
0.00110375
0.0139307
0.00280064
0.00132789
0.0117263
0.00200623
0.020208
0.00178856
0.00119277
0.0733742
0.164484
0.107077
0.0385234
0.00979832
0.0658097
0.0189371
0.00657219
0.02558
0.0109157
0.00106118
0.00972154
0.0225618
0.00156966
0.0328066
0.00122426
0.0255068
0.00423116
0.0769631
0.00106449
0.00130441
0.0460829
0.0368621
0.00180815
0.0106368
0.00126597
0.133471
0.0479561
0.00169062
0.0309591
0.00627542
0.00156411
0.0763754
0.00837971
0.0123225
0.111625
0.133138
0.0018425
0.00131562
0.0400361
0.0227322
0.0545281
0.0139142
0.00873649
0.00145341
0.0270423
0.00169928
0.00280528
0.00338919
0.00270194
0.0314647
0.00571982
0.00348383
0.0142137
0.0908267
0.00883673
0.00146369
0.0250719
0.00728107
0.00184989
0.00132139
0.00272942
0.0195522
0.0479965
0.130908
0.0794216
0.00130119
0.00895925
0.0249098
0.0284044
0.0239216
0.135875
0.059051
0.0759767
0.00620362
0.0154904
0.00236753
0.00571011
0.00119647
0.00149049
0.0134335
0.00924958
0.114607
0.0170584
0.00105569
0.0365607
0.0245528
0.00911202
0.00453364
0.00604754
0.00221567
0.00201811
0.0584722
0.00106402
0.121494
0.0383561
0.00794661
0.145029
0.0470946
0.00435236
0.00238026
0.0541579
0.00233061
0.0372138
0.0674297
0.0205639
0.00168853
0.0159517
0.0273217
0.00200174
0.0316335
0.00338685
0.00164734
0.169413
0.00502304
0.13015
0.00120063
0.00640538
0.0670091
0.00195841
0.00870428
0.00463958
0.129048
0.00104965
0.0137686
0.0028318
0.040725
0.0042391
0.00129448
0.0692302
0.00174625
0.0460708
0.00760055
0.00633183
0.159622
0.00103017
0.0240062
0.00432441
0.00813181
0.00473644
0.00956111
0.00923168
0.0282141
0.00187917
0.0106938
0.00117176
0.0133553
0.00988539
0.0491666
0.0113217
0.0554462
0.00917898
0.0022357
0.0357211
0.0704551
0.00134251
0.0287176
0.00226896
0.0325929
0.00228898
0.0025784
0.012779
0.0726095
0.100684
0.0856163
0.120808
0.00576485
0.00652094
0.00729509
0.0189686
0.136167
0.00302986
0.0249273
0.0137388
0.00274514
0.0562072
0.0018097
0.00958958
0.017563
0.00173226
0.00132832
0.00313423
0.00230683
0.00269834
0.0716673
0.00254433
0.00148536
0.00259956
0.14857
0.0441264
0.00473805
0.00210513
0.0012848
0.0029835
0.0499643
0.00715959
0.0110131
0.00185977
0.00126949
0.0121342
0.00337218
0.0217195
0.00643521
0.00639834
0.144677
0.00547267
0.00245545
0.106737
0.0028228
0.142674
0.0463132
0.00103165
0.00152924
0.127597
0.0391255
0.0229665
0.0459722
0.00971935
0.00432295
0.0260108
0.10034
0.102524
0.00880868
0.0163308
0.0205335
0.00326579
0.0702904
0.0017627
0.00122489
0.00147894
0.00346717
0.00960489
0.00304764
0.0133079
0.00184418
0.00268791
0.00270058
0.0403862
0.00187853
0.00113043
0.115554
0.0966674
0.00533314
0.00149628
0.00230173
0.063201
0.0496146
0.00150323
0.00183891
0.00270205
0.0243227
0.0209543
0.00184763
0.0490714
0.00148635
0.00172366
0.00313715
0.00247581
0.0512121
0.0775432
0.131229
0.0154662
0.0011557
0.0110767
0.0224512
0.0297692
0.0045134
0.00107766
0.010064
0.00277915
0.00110088
0.00103304
0.00171951
0.0801684
0.152424
0.0022627
0.114616
0.0694009
0.0282213
0.00112449
0.0115596
0.00196909
0.00443237
0.0876799
0.0014657
0.011827
0.059485
0.00134423
0.00303712
0.0182163
0.0413359
0.00119352
0.00156465
0.118851
0.00228165
0.00230282
0.00182796
0.00208395
0.00536719
0.0636431
0.0317012
0.00347741
0.0201439
0.00217611
0.00835229
0.00280527
0.00325513
0.0266775
0.0164202
0.0546471
0.0342333
0.00168501
0.00113787
0.080985
0.00126706
0.010044
0.0472366
0.0203017
0.0929933
0.00414334
0.0261525
0.00168417
0.00646419
0.0654983
0.134241
0.00492003
0.000988003
0.0108101
0.0227145
0.00954744
0.0640451
0.0246954
0.0175003
0.000937006
0.00136598
0.00155779
0.109628
0.131194
0.0245909
0.00656344
0.0985531
0.0340953
0.00386745
0.00716067
0.00272621
0.0716842
0.00161996
0.00132993
0.163947
0.00100863
0.00523745
0.010493
0.0015344
0.0358557
0.00144385
0.0146462
0.0240243
0.0225882
0.122448
0.00356092
0.167079
0.036355
0.0114215
0.0015002
0.0015
0.140375
0.161166
0.0239404
0.0488997
0.00412067
0.0380771
0.00615227
0.0290619
0.00144996
0.0353382
0.0015743
0.103137
0.00162613
0.0349523
0.11355
0.00181159
0.0026157
0.00392134
0.00299697
0.00565973
0.0101202
0.0725246
0.00142749
0.0656305
0.0994289
0.00449837
0.00908349
0.00179636
0.00143643
0.00487442
0.00276022
0.00476365
0.00281044
0.141472
0.0221445
0.0165637
0.00154886
0.0202718
0.00137949
0.00102516
0.0366734
0.0463289
0.0517925
0.00261823
0.00105878
0.0235989
0.123957
0.0207786
0.0183159
0.0108732
0.00346002
0.00303851
0.126445
0.00201535
0.00624749
0.000967116
0.00646996
0.0243114
0.0243325
0.00139296
0.141898
0.00601691
0.00219645
0.0284117
0.0195247
0.00380087
0.00419619
0.0330508
0.00125795
0.0243778
0.00331884
0.00965227
0.013702
0.0304876
0.00166483
0.101313
0.0049938
0.00178503
0.00154699
0.00905952
0.00713006
0.0211829
0.0095488
0.138285
0.00172306
0.0190828
0.0495099
0.0146776
0.13906
0.164482
0.000880482
0.0929195
0.146931
0.0534014
0.00394629
0.0462322
0.0129209
0.00614421
0.00352161
0.00533708
0.137511
0.00310039
0.00200254
0.00412739
0.0074404
0.0121068
0.00418713
0.00265606
0.0026632
0.166821
0.00246928
0.00216807
0.168781
0.024871
0.119697
0.002222
0.00514389
0.0344511
0.00169015
0.00149171
0.136544
0.0425482
0.00208575
0.00111403
0.008385
0.107871
0.00264383
0.0015953
0.00130817
0.100246
0.00151672
0.00677507
0.00402098
0.00128789
0.0209507
0.119144
0.0134649
0.00423877
0.0129027
0.00204883
0.00150162
0.068624
0.0023177
0.00153289
0.00133824
0.0866516
0.0062196
0.0288172
0.0632203
0.00121908
0.00307012
0.00335368
0.00293249
0.0145222
0.00998656
0.158205
0.00162307
0.00118483
0.0717797
0.0375356
0.0111112
0.0608645
0.00916686
0.0016774
0.00191324
0.00904103
0.0340992
0.0368075
0.00162453
0.0195633
0.00896319
0.0754158
0.0288931
0.00330814
0.00280546
0.00311422
0.00156355
0.142421
0.00365455
0.153593
0.00778292
0.00177138
0.00136487
0.0955658
0.144851
0.0145477
0.0164812
0.0444412
0.00138516
0.0015226
0.0760402
0.141691
0.11805
0.0954679
0.00145196
0.0660031
0.00150629
0.0051343
0.0085457
0.0614502
0.0090981
0.00162709
0.0141117
0.00262907
0.00162398
0.0320899
0.00102431
0.00988421
0.00635963
0.00316382
0.0012282
0.00136024
0.00931239
0.0719399
0.00382489
0.0654348
0.0155739
0.0438591
0.0023259
0.0103439
0.00277902
0.00346256
0.00995043
0.114473
0.00341576
0.0179996
0.161689
0.00268824
0.109555
0.014667
0.0104967
0.0438543
0.00214067
0.0278033
0.00228563
0.0269843
0.0938749
0.00179476
0.00151428
0.021127
0.0109053
0.0123964
0.00657761
0.00886057
0.0148701
0.0148061
0.0222202
0.00368085
0.0181821
0.00218813
0.00556436
0.00262824
0.00571216
0.0297885
0.00159963
0.156407
0.00234721
0.020674
0.00195128
0.00268183
0.00269086
0.00269659
0.00398293
0.00463005
0.0330479
0.00166437
0.00441146
0.0729306
0.00106241
0.00230139
0.0252488
0.02772
0.0120418
0.0116878
0.0148469
0.0013731
0.184683
0.0153997
0.0110946
0.0110539
0.140626
0.00585031
0.0937529
0.00212541
0.0192512
0.00447121
0.0130113
0.0109633
0.0050136
0.00284103
0.00691002
0.0694725
0.00370078
0.00178142
0.00173745
0.0381529
0.00231017
0.0167658
0.00142695
0.0638146
0.0221277
0.00145726
0.0100129
0.0012297
0.00123047
0.010172
0.00123216
0.0485898
0.0934984
0.00103156
0.00568009
0.0239396
0.00171658
0.0181401
0.0071983
0.0147865
0.00704429
0.0415374
0.00253419
0.00180471
0.00123175
0.00322918
0.0168768
0.00840552
0.0012437
0.0237505
0.042455
0.00524094
0.113859
0.002101
0.00179414
0.00121444
0.00131998
0.00883947
0.034654
0.00158225
0.124444
0.00507014
0.147314
0.00165702
0.0273053
0.00648173
0.00125553
0.00469005
0.124452
0.0124567
0.00182975
0.047336
0.00537047
0.0679821
0.00214151
0.00132168
0.00546314
0.00432329
0.123919
0.00404104
0.00497882
0.0102648
0.0681317
0.0381279
0.165823
0.00959672
0.0999241
0.00564065
0.043343
0.0633171
0.00182855
0.0585024
0.0182397
0.0220091
0.134959
0.00146738
0.0621144
0.0117191
0.00159449
0.010094
0.0026152
0.0490731
0.00173371
0.0101512
0.00176457
0.0259067
0.0039502
0.0436043
0.00944832
0.0051236
0.00540665
0.00387406
0.0015335
0.00427157
0.00285114
0.0157099
0.00524273
0.00904334
0.00265677
0.0185073
0.0416417
0.0595496
0.00970355
0.00680596
0.00287575
0.00896802
0.00220763
0.00237043
0.00384742
0.0536893
0.0027702
0.00259584
0.039605
0.0251471
0.0506873
0.00218303
0.0584674
0.000883377
0.061952
0.017998
0.001429
0.00517518
0.0870882
0.0593359
0.00122232
0.0737726
0.0233022
0.0167989
0.0121636
0.0200572
0.0398953
0.00315578
0.00437007
0.00915362
0.00365443
0.00146072
0.00137267
0.00110576
0.116558
0.0634178
0.00417613
0.0353363
0.00554268
0.00223756
0.0012769
0.112401
0.0712917
0.00153073
0.00304974
0.108162
0.0711944
0.0148531
0.00185104
0.0019996
0.018376
0.0125325
0.130489
0.00354922
0.00547983
0.00326194
0.0114583
0.0100939
0.0269083
0.0109178
0.00331264
0.0233443
0.0399742
0.0184905
0.00209251
0.0177363
0.00122191
0.0907105
0.00151469
0.0111168
0.0124277
0.0868191
0.0932474
0.00277981
0.00234944
0.00598424
0.00118485
0.00189777
0.0347874
0.00148576
0.00475717
0.145196
0.0026091
0.00286654
0.00339959
0.139223
0.00146207
0.00143918
0.0642124
0.00964915
0.00128262
0.0100416
0.0487543
0.0691626
0.0348894
0.0242328
0.00660679
0.00370793
0.00447804
0.00671894
0.121207
0.0514407
0.00228513
0.0636272
0.00836538
0.0137972
0.04784
0.00873447
0.0801265
0.0238597
0.00357444
0.102796
0.00134998
0.0983051
0.00181869
0.00166793
0.00585899
0.0424223
0.162544
0.00156826
0.12047
0.0227919
0.0355128
0.00367705
0.00297665
0.0113618
0.00156788
0.00974066
0.00281751
0.0300093
0.00696662
0.0589272
0.0966069
0.00122281
0.0013487
0.00301016
0.0236016
0.00761415
0.00664543
0.00106585
0.00150798
0.00352019
0.00762886
0.11961
0.00157469
0.0514624
0.0467183
0.0041364
0.00530149
0.0138866
0.00299555
0.00693678
0.0123108
0.0174465
0.00141805
0.023391
0.0907754
0.000990688
0.00552674
0.0903667
0.00110282
0.127614
0.107325
0.00398926
0.00499569
0.00189604
0.0993865
0.0194417
0.0615477
0.00181887
0.0665588
0.00226898
0.00258316
0.00152328
0.00143413
0.00157709
0.0116203
0.00148825
0.00198019
0.133429
0.0126625
0.00939096
0.0114668
0.00177522
0.0012795
0.00127151
0.0015633
0.00169935
0.0436646
0.00584009
0.144451
0.00142579
0.0164895
0.0254922
0.0233136
0.0276833
0.0660927
0.00477689
0.00133586
0.108027
0.0249767
0.14449
0.00149228
0.0264925
0.00168813
0.00216219
0.00291668
0.0863157
0.0659556
0.00115637
0.00260095
0.102986
0.00317822
0.137136
0.00464498
0.00295153
0.00583566
0.00978269
0.00262385
0.0577165
0.0606689
0.00362245
0.00147865
0.0148221
0.00684777
0.0629348
0.00110091
0.0811973
0.142131
0.0308738
0.0621918
0.00174492
0.00142569
0.00287602
0.00872404
0.00149758
0.00336826
0.119815
0.0139486
0.0856719
0.00174167
0.0365858
0.019536
0.0613557
0.0968025
0.0647111
0.00202453
0.0394294
0.00154676
0.0778661
0.0115999
0.156097
0.00182479
0.0999129
0.013795
0.0105932
0.00582824
0.0017821
0.0925101
0.00117181
0.00722873
0.00836869
0.143343
0.0796365
0.00142204
0.00101233
0.0407717
0.0648531
0.00342707
0.00362483
0.00889563
0.00155741
0.027633
0.00214454
0.0168636
0.0928273
0.00178575
0.0359737
0.00188222
0.0592183
0.0278345
0.109701
0.000986883
0.00145625
0.111232
0.0027981
0.00367951
0.139014
0.0569615
0.144629
0.00282763
0.00153874
0.00747671
0.0282316
0.0101809
0.0994934
0.0506943
0.0244609
0.106725
0.00394652
0.0461851
0.00785267
0.00286455
0.0105066
0.131452
0.00237481
0.00569217
0.0960549
0.00538615
0.01462
0.00288442
0.0200659
0.00230433
0.00837093
0.0524736
0.00608658
0.00611592
0.0254865
0.00170381
0.00815945
0.018351
0.00292651
0.0565598
0.00447468
0.00389957
0.00474898
0.0960612
0.0602319
0.121198
0.0105522
0.00893093
0.00880964
0.00237
0.00129794
0.00224121
0.133189
0.00159264
0.00163114
0.00158275
0.0600369
0.0463346
0.00887072
0.0018882
0.0230372
0.0107535
0.00150523
0.00129956
0.00167662
0.00377022
0.00403
0.00154114
0.00289426
0.0885861
0.00180016
0.00362414
0.0363824
0.038036
0.0276422
0.00143019
0.00594603
0.00181706
0.022763
0.00272155
0.0421055
0.00254325
0.00133795
0.0357157
0.0087506
0.00146485
0.00234442
0.00834934
0.0285131
0.0236694
0.0332221
0.00358873
0.00546402
0.00248979
0.00155081
0.078217
0.00104723
0.00429771
0.00271096
0.144259
0.137285
0.00355766
0.00295259
0.0612364
0.00901882
0.00488533
0.00614465
0.00209363
0.00192367
0.00158867
0.00149158
0.0192591
0.0771133
0.00519526
0.0012693
0.00224709
0.0494861
0.00187913
0.0042994
0.00208811
0.0320854
0.146264
0.00176431
0.00266357
0.00248159
0.0018266
0.00133015
0.0855396
0.00282505
0.00158196
0.0459589
0.00541086
0.00648761
0.0999819
0.00388661
0.00185537
0.00282759
0.14216
0.00112062
0.00491539
0.00161148
0.108087
0.0255172
0.031969
0.0363017
0.0357586
0.00728988
0.0093979
0.00797902
0.00288375
0.0104033
0.00135781
0.018628
0.018574
0.0144163
0.00105627
0.00581446
0.00145241
0.0143544
0.013914
0.00102937
0.00361354
0.0480297
0.00834281
0.0028454
0.00227984
0.00368243
0.0542242
0.0801001
0.0493213
0.00311226
0.0281174
0.00149279
0.00182263
0.00262932
0.0132408
0.00382918
0.0013264
0.0470783
0.00249089
0.0110479
0.00512142
0.0476678
0.0512866
0.007812
0.00147927
0.140036
0.00152727
0.00316332
0.00446203
0.00424919
0.0741289
0.113215
0.0147934
0.0378105
0.00167518
0.00169149
0.00509271
0.00284257
0.0558334
0.0432716
0.0405189
0.132043
0.00182017
0.0299874
0.00135975
0.00441593
0.0285861
0.00246661
0.00213526
0.00146793
0.00108055
0.0239017
0.0670298
0.104106
0.0242665
0.00212407
0.0034694
0.00162299
0.11309
0.0363165
0.00332648
0.149443
0.00340086
0.0229812
0.00332088
0.00293462
0.00845092
0.00939367
0.0754751
0.00914268
0.00977654
0.00343762
0.00442909
0.00915036
0.0974349
0.00375887
0.0685202
0.00249039
0.0016096
0.00187511
0.0503059
0.00565577
0.0559736
0.0107029
0.0271309
0.035752
0.012654
0.00139722
0.0018877
0.00465097
0.00770534
0.00342163
0.00565826
0.00209745
0.00151825
0.0151766
0.00146297
0.00345541
0.0637193
0.00582224
0.00152809
0.00476341
0.142442
0.00804494
0.00161377
0.0032435
0.00103323
0.0414589
0.00300655
0.0745459
0.0635398
0.0108904
0.00186937
0.159423
0.0014754
0.00162934
0.00334903
0.00260052
0.00264569
0.00157315
0.00369984
0.108465
0.0199234
0.0815483
0.00726282
0.00373258
0.00221879
0.0189885
0.0105233
0.0748539
0.00158537
0.0111285
0.00914074
0.00174551
0.0033685
0.00167408
0.00157622
0.0590692
0.00104395
0.10408
0.0147462
0.00532929
0.00166102
0.00436493
0.0143065
0.0317632
0.00201625
0.0144365
0.00201472
0.00100973
0.00998474
0.00153783
0.0105339
0.144033
0.00188278
0.00729151
0.0275683
0.000988553
0.00188739
0.0147797
0.0149796
0.00499771
0.00130799
0.0632709
0.0480313
0.111488
0.0894355
0.0285046
0.00151081
0.0107035
0.00165347
0.120354
0.0470876
0.00199965
0.0364052
0.167718
0.110901
0.0503456
0.00269674
0.067734
0.00158109
0.0362652
0.0272654
0.0076114
0.0387106
0.00266616
0.069799
0.149431
0.0648139
0.0126462
0.00506221
0.0219534
0.00144611
0.0469729
0.00773794
0.0159007
0.00151507
0.0333725
0.104975
0.060359
0.0751569
0.00338405
0.068224
0.056976
0.0254765
0.00279506
0.142154
0.00803973
0.0087481
0.0536174
0.00166473
0.00160944
0.00304866
0.00259788
0.0222365
0.00538934
0.0441439
0.00350907
0.00360185
0.0370304
0.0029247
0.00509146
0.00241995
0.0132426
0.0627122
0.00163354
0.00869526
0.00294668
0.00187345
0.079029
0.0624199
0.00122027
0.00153487
0.00865095
0.00599458
0.0275864
0.00182525
0.00248421
0.111784
0.0915479
0.040141
0.0989844
0.134125
0.0599262
0.00960342
0.00152236
0.0145097
0.0431035
0.00230756
0.0841325
0.00299854
0.0050323
0.0449472
0.0163408
0.0621297
0.00302263
0.0176106
0.00649908
0.0627332
0.0381803
0.00117965
0.00147387
0.131983
0.00896953
0.00761408
0.0151977
0.0212016
0.160328
0.0355461
0.00291104
0.00295187
0.0110949
0.00211964
0.0372488
0.00163335
0.00457372
0.0247757
0.00126044
0.0264126
0.0018036
0.0024012
0.00142297
0.00268957
0.00151118
0.00151759
0.0711184
0.0173837
0.0225214
0.0775841
0.0655784
0.01503
0.00464194
0.059807
0.0133465
0.00419913
0.0048898
0.00265086
0.00360433
0.0129249
0.00254774
0.00212962
0.0103443
0.018431
0.00386999
0.00175237
0.00181412
0.0188143
0.0775888
0.0661942
0.067242
0.0127681
0.00127861
0.00330813
0.0621098
0.00128023
0.106693
0.00458952
0.00209877
0.00460676
0.00385525
0.00396573
0.00325308
0.028442
0.0108078
0.0772055
0.00358026
0.0620144
0.02697
0.0132843
0.00313589
0.0959358
0.0242841
0.00117994
0.116108
0.0411605
0.0161803
0.00158262
0.00485639
0.00302566
0.00920952
0.138333
0.00164931
0.00831582
0.0265896
0.0671999
0.0102975
0.0149677
0.0564583
0.022162
0.00125517
0.0234687
0.0806883
0.00654876
0.0801488
0.0113583