/*--------------------------------*- C++ -*----------------------------------*\
| =========                 |                                                 |
| \\      /  F ield         | OpenFOAM: The Open Source CFD Toolbox           |
|  \\    /   O peration     | Version:  v2012                                 |
|   \\  /    A nd           | Website:  www.openfoam.com                      |
|    \\/     M anipulation  |                                                 |
\*---------------------------------------------------------------------------*/
FoamFile
{
    version     2.0;
    format      ascii;
    class       volScalarField;
    location    "250";
    object      omega;
}
// * * * * * * * * * * * * * * * * * * * * * * * * * * * * * * * * * * * * * //

dimensions      [0 0 -1 0 0 0 0];


internalField   nonuniform List<scalar> 
13851
(
0.126233
0.0240074
0.0238929
4.92254
0.0220824
0.0257936
0.0238047
0.0218427
3.77957
0.0220423
0.0659507
0.0220798
0.0221061
5.61283
0.0354297
0.128503
7.80467
0.0219137
0.3227
0.126371
0.0400695
0.0260052
23.1121
0.0222638
7.01288
0.0619924
0.240009
3.47317
3.5401
0.0217655
4.81691
0.0238098
0.124332
4.92452
0.0441619
3.51906
0.0222741
9.16472
4.93853
0.0220735
4.83645
3.64898
19.4011
0.643319
3.83828
0.0218851
0.0215829
0.122651
0.0233682
0.0221015
7.87324
0.0221626
0.128214
0.0296958
5.63971
0.0220724
0.126145
4.66729
0.278272
5.77357
0.0220873
0.259535
0.0220964
0.0234982
0.224467
0.23838
7.71886
0.0699821
0.0221103
4.68192
4.4401
0.0484152
0.0220167
6.95187
0.0312106
0.0236763
6.34669
0.0216699
5.67796
0.0219501
0.0221241
0.370088
0.043515
5.22722
5.55666
4.63401
0.0261754
7.01229
0.0220301
4.84831
0.0221984
0.023894
24.4873
4.50246
4.49324
0.377358
0.0219156
0.131299
7.4374
0.18599
0.135676
0.0422741
0.0468988
0.0220609
0.0218707
0.0470903
0.0218723
4.49097
0.0238919
0.0218922
0.0309527
0.0218831
0.165569
0.0627151
0.121865
0.028959
0.0217778
0.0218015
5.06404
4.9423
0.235517
0.0218052
0.0221002
3.99846
0.239928
0.124014
0.0219144
0.0572214
4.47861
0.0448878
0.0259358
0.0312343
5.4888
4.81889
0.067299
4.50515
0.0653858
4.54587
0.0357864
0.0443189
0.346467
0.0226121
0.0220295
0.109319
6.62389
0.0234452
0.0216631
4.53067
3.58345
0.0597112
0.134966
0.159375
0.0674009
0.243684
0.0222621
0.0220501
0.0221021
4.72287
0.0409831
0.0233022
0.0222429
3.52997
0.0461259
0.122889
5.42239
3.96909
4.04288
6.46818
0.0304546
6.25263
0.0221025
0.0217813
0.0578292
0.0221391
4.63195
0.255628
0.146931
0.0217676
0.0311625
0.143412
0.232099
0.599058
0.0296209
0.0444023
21.362
3.55487
0.12438
0.0294395
0.0221949
0.0218195
5.28216
0.0409422
7.62955
0.025854
0.0233059
0.129757
0.120611
0.0220691
0.0221474
0.0741866
0.35072
4.58589
4.70557
0.0354783
2.87773
4.44351
0.023679
0.0433909
3.83861
0.0252588
0.127947
0.0220833
0.364262
0.0222346
0.0450594
0.0243963
0.0220819
0.207989
0.0221376
3.85719
0.0217659
0.126848
6.35698
4.55454
0.0291256
0.0438744
0.0222639
0.0936968
0.0220127
0.0443807
7.50701
0.0290603
0.0252402
0.0221176
4.58039
0.0217596
17.2283
4.6573
0.162065
0.0222513
1.17575
5.38179
3.91033
0.126873
0.0323327
0.147985
0.186081
0.0312534
0.351254
0.0327793
6.41466
0.133497
0.0218476
0.0255922
0.132761
3.48166
4.72807
0.0218162
0.131954
0.0220271
0.174373
0.238662
0.0259319
0.0467273
0.136925
0.0219769
0.0444486
0.104499
1.98114
0.0220819
0.0220795
0.0292725
4.32421
6.74566
0.0446938
0.02182
0.231458
0.240505
0.109265
0.0460119
4.21248
7.65916
0.0263969
0.0324456
9.23302
0.0218603
0.0221015
0.11262
0.057408
0.0217555
0.0222319
0.0220043
0.0220001
0.0320492
0.0220949
3.84194
0.0421
0.0219712
3.45973
4.0157
0.0221854
0.128108
7.97563
0.0227298
0.0222091
0.0440866
5.53723
7.43993
0.0631237
0.0220726
6.16937
0.0220948
0.0689446
6.32921
1.7813
0.0232056
8.28634
1.75774
4.56583
0.157604
0.0463251
4.72623
4.06552
2.82233
0.0222119
5.58786
22.1084
0.812493
0.74528
0.0236985
0.0628898
0.0296648
6.30312
0.0494544
0.021874
0.0215246
0.0273834
4.45984
3.25376
0.0218527
4.45111
0.0299094
0.0315245
0.0234182
6.69378
0.228842
0.130445
0.0241339
0.024763
3.44123
0.0222048
0.252062
0.0262879
0.044017
0.0304491
0.022026
0.0219686
0.159345
0.203725
0.133191
3.03107
3.49421
0.0235193
4.53552
0.207483
0.0217031
1.98454
0.086851
6.19051
0.0268149
0.0657676
0.22496
6.54627
0.152826
5.3777
0.0225856
0.246923
15.302
0.0297873
5.00628
0.0323229
4.86496
0.0320272
0.0378582
0.134945
0.274967
0.0220507
0.0260066
0.0619915
0.0313431
0.0219049
0.0449855
5.36501
0.0220125
0.0435995
5.81113
0.0239252
4.49455
0.0417401
7.82115
0.0257597
0.0585264
2.20428
0.245691
0.0464282
5.63155
6.76584
1.03842
0.0219812
0.155924
0.032606
0.0648627
0.0218209
20.5379
5.5792
6.37835
0.0247059
0.136994
0.259851
6.40322
0.0215937
7.21762
0.31046
24.0479
0.0337792
4.69105
0.0220343
0.0221268
6.79104
0.259069
0.0220398
0.0240498
0.0444446
0.0218154
5.56589
0.0630246
0.0852658
0.0252738
0.0225991
0.0221847
4.83746
0.0219698
0.0221636
3.95956
5.37144
0.0255373
0.247943
0.0221032
0.0220937
0.0242466
0.135256
0.0413006
0.0219142
0.0227881
0.220303
0.0231854
8.46145
0.022075
0.0267163
3.90441
0.0355804
0.0215822
0.02212
0.0252234
0.0221865
1.04914
4.0545
0.0326049
7.91086
0.0242794
0.0220557
4.32455
0.232984
0.0353418
0.0220279
4.01217
0.0345462
6.27371
0.0220631
0.0314571
0.15797
0.0330295
4.18669
0.258726
5.76588
0.0237737
0.162839
0.0219725
3.48855
0.0416974
0.120405
0.0323696
0.0239261
0.0355761
0.0582005
0.0220942
6.76638
4.2127
8.82672
5.9422
4.0599
4.93534
0.248825
0.0280949
0.0222069
7.7193
0.0220449
0.0219051
0.0301589
4.73052
0.0237931
0.0226153
0.0895534
0.0469165
0.0220474
7.66656
0.0219204
4.59452
0.955834
0.0219461
0.0232273
0.31924
2.15447
0.0217621
10.1946
13.5843
0.0216695
4.67619
0.308873
0.126628
0.0237476
3.93802
6.06356
0.021684
0.310931
0.0221033
0.0219208
3.63089
4.94541
0.0381678
0.040548
0.0220458
0.0529552
4.59599
4.66396
0.021772
6.27438
0.0219115
0.0221168
0.0468787
0.0266782
0.0215876
0.0236906
4.74474
0.253533
4.57179
0.0234953
0.0220234
4.34472
0.0221784
0.157018
0.0267364
0.0313095
0.0322763
4.09823
6.22294
0.0256665
7.27007
0.0230241
0.0632809
3.70828
4.40486
0.0220988
0.0219776
0.0487809
4.59794
0.229913
0.0520213
12.2103
0.026791
0.0311558
9.85932
7.76398
0.161273
4.4763
0.169093
3.60718
0.022407
0.273455
2.48
0.0220769
18.4483
6.70329
0.0304369
0.0443593
0.0220555
6.80905
0.0774937
16.5573
0.0219702
0.0221657
0.0265343
0.0463309
0.0220847
4.58716
0.02216
0.163321
0.0238409
0.0662498
0.0220557
0.0220472
0.0462649
6.65418
0.0464726
4.43951
0.0314559
0.0218242
0.0217535
0.058363
0.0227867
0.0993184
0.0241987
0.034678
0.245507
0.0221803
5.66041
0.0222536
0.0881136
6.28554
4.0192
0.0289858
16.7096
0.0866273
0.276218
6.58204
0.0218299
7.57788
0.0299022
0.0307706
5.70945
1.42669
0.0217129
0.0966394
0.0220468
3.50289
7.07688
0.0221922
0.0750019
5.73455
0.0222634
0.0222521
0.0626564
6.99264
3.72993
0.0222161
0.135727
0.0230031
0.0220456
0.226
0.13745
0.172696
0.0215785
0.104772
0.0462736
0.0546729
0.0226529
0.0231555
0.0726246
0.0263708
0.113688
0.0481637
0.0483259
0.132067
3.08526
0.31442
4.85587
9.84823
0.128512
4.22541
0.0397339
3.72039
0.129671
0.0218854
0.0305648
0.26312
0.0267388
0.0219527
0.0219495
0.0882794
5.9963
0.0268774
4.50122
0.021828
3.86087
0.149263
8.53493
0.0964063
0.0258943
0.0238839
7.05834
0.171427
0.0381505
0.259519
0.0224616
6.09693
0.0889091
0.165747
0.0320364
0.485677
0.0220307
0.0222453
0.0233952
0.0220444
3.70423
0.0219999
0.228206
4.23077
0.0990371
4.72562
6.60903
0.170935
0.296578
0.0286107
0.0221799
0.022065
0.0216791
0.0217541
0.0221411
0.0636468
0.158988
0.0501147
2.43219
0.0230572
3.78542
0.0222934
4.89166
0.0409853
0.0222835
0.0221327
4.02648
0.0259608
3.98544
6.67184
0.0424397
0.0640477
0.0216527
4.81462
0.0243183
0.023829
0.283284
0.0221831
0.0226165
0.021826
0.0418154
5.73034
0.0289647
0.0322809
0.340537
4.51856
0.0290979
0.0267522
3.69311
0.0216768
3.62842
0.0222021
0.0231922
5.2088
0.0748149
0.120414
0.092556
0.0467455
0.0222271
0.0222936
0.068416
0.0224509
0.0222345
0.0273035
0.326447
0.0219835
0.25556
3.28135
3.66246
0.0912719
5.54051
0.0367882
0.0221753
0.150852
0.0218413
0.0260364
4.78264
3.47746
7.62217
3.81544
0.022258
0.0221639
0.0696229
0.0230032
0.021832
23.3202
0.177543
4.80085
0.0893148
0.0764394
0.0220457
0.0217711
5.06533
0.0858405
0.0234666
0.0222529
0.120062
0.187341
4.59805
0.0222505
0.0221515
6.97534
0.0226305
0.0323151
0.0218203
4.80133
0.0219152
5.69164
0.022074
0.144799
0.03772
0.0700264
0.03222
0.0220169
0.0240767
0.0220218
0.21119
0.022637
3.85726
0.0225219
4.20033
4.35921
0.0305616
0.0220033
5.14926
4.13078
0.0261139
0.0743892
0.0220644
6.51504
0.0219022
0.265192
0.022064
0.0220185
3.71678
0.0324421
0.02211
0.03005
4.51773
5.28393
5.78314
0.0218203
4.03979
0.0220747
0.0219908
0.0222583
0.0214912
0.0222331
6.02359
4.93599
0.022148
0.0221562
0.0384528
0.0218832
4.95709
0.154786
4.78968
4.81406
0.0240447
0.113563
0.0220698
0.0401356
0.119447
0.0218128
0.0222104
1.43266
6.95334
0.0627525
17.0586
0.0576848
0.0221006
0.040488
0.0755598
7.78927
0.0309224
1.50095
0.0879366
0.0222236
14.7276
13.4983
4.41109
3.95988
3.56777
0.0237183
0.143561
0.0221665
0.607879
0.0262272
0.021876
5.85995
0.0229571
0.0220043
0.0220974
0.0228192
4.63982
0.2546
0.0218667
0.0412091
5.63389
0.0230822
16.4703
0.0232048
0.0723041
4.85158
0.0220977
0.222005
0.0293565
0.0319334
5.99967
0.0229385
0.357799
0.0577836
4.75165
0.0221
4.48962
0.0295551
4.17779
8.05147
5.81184
0.0423254
0.0220322
0.0222655
0.0222633
0.0362075
0.0221232
4.28132
0.0287988
0.0278852
0.0288472
0.0236534
0.0218184
0.0258685
0.0271976
0.023231
0.0268967
6.2504
0.203379
0.0287692
0.0499056
5.90247
0.0226638
4.5079
0.0216896
0.0328266
0.0226463
0.021927
0.0445999
0.0220504
0.0218616
0.0466898
0.0220567
0.306268
0.0226387
19.3514
0.808659
0.194879
0.267492
0.0220163
4.57133
0.146204
0.022226
0.0271099
0.0225316
4.66518
0.0231875
0.0446469
2.01294
6.54002
0.082024
0.0220947
4.05351
1.49947
3.66514
0.0292805
0.0218151
0.0217555
0.0632865
0.0220325
7.32317
0.160352
0.0221973
0.208106
0.315738
0.0218149
6.36895
6.30243
0.173441
0.022621
4.03492
0.063326
0.0220209
6.36061
0.0265864
0.0218081
0.0219344
0.0301356
0.0365466
3.97626
5.26013
0.0380241
4.0523
0.0317098
0.0220173
0.084032
0.0219558
2.52378
0.0217896
0.0220461
0.0239366
0.0224143
4.29189
5.65322
0.225524
6.43921
7.54131
0.0290336
0.0220163
0.0226444
0.366386
0.0217716
0.0218915
0.0429483
6.53138
0.198308
0.0216407
0.038745
0.0324345
0.128549
16.448
0.0216641
0.0215755
0.0231518
5.41604
0.0272633
4.5919
0.0231423
0.0221629
0.0218093
0.0219272
0.0243483
0.17023
3.65386
3.93016
0.0288773
0.022056
4.3512
0.0221867
5.62713
4.86061
0.0304173
5.53117
3.64244
4.97813
0.0492927
0.0306958
3.85648
0.0296608
0.0335095
0.071827
0.281532
0.0224233
5.1952
0.0220196
4.61721
6.08073
0.0216937
0.023851
0.0454633
0.357509
0.0321805
0.0221426
0.0269377
0.0232081
0.0250298
1.17931
0.0221622
4.17733
5.7621
0.0220218
0.0297671
0.0363259
0.0220828
3.42522
15.6582
4.63717
3.45044
0.0220389
0.0244783
0.0262483
0.0222658
0.227101
0.0324523
0.0222565
0.0564746
0.0258008
4.60564
0.037793
7.0432
0.0231092
0.0231137
0.0494437
0.0869054
0.0686185
0.0219806
17.3943
4.11287
26.0243
4.61486
4.70723
3.95384
4.2635
0.0219851
0.0220245
0.0219402
0.230393
0.040799
0.0684766
7.24016
0.0220513
0.0216616
0.0220438
0.20213
0.0216529
0.0258953
0.0236075
3.97051
0.0229149
0.0218492
0.0220864
0.0219661
0.0221628
0.0341743
0.219433
0.033643
5.4745
0.0220334
0.0219275
4.4763
4.56199
6.68789
3.71596
0.0481888
3.79249
0.0218107
0.0607088
0.023118
0.0220793
0.0236972
5.15937
0.0227975
0.088134
4.45248
0.0221219
0.0219167
0.0263557
0.174301
0.0222719
3.96794
0.0219252
0.196957
0.0221257
0.0221484
0.0261722
0.0973221
0.0221153
0.22862
4.47866
0.172692
4.8684
0.0220356
6.53184
0.235246
0.0220491
6.35164
0.02226
0.0423299
0.0222002
0.021982
0.0219605
0.0220455
0.0223864
0.0271273
0.0615322
0.022149
0.0220969
0.0626462
0.0216897
8.53444
0.0221262
0.0309521
0.031444
5.0017
1.23537
0.0221468
0.175392
0.0218154
0.0287197
0.0685255
3.49178
0.0442385
0.0222723
0.100732
0.0754554
0.0762574
0.318994
0.035449
0.140922
0.0520888
0.0618042
0.0228793
0.0218194
3.61745
5.53555
0.0243762
0.0220169
15.8073
0.0218307
0.0399393
0.0219593
0.0811641
7.11495
0.0215236
6.28034
0.0256326
0.0221704
0.143595
0.0218765
0.0403811
3.37567
0.0383996
3.68378
0.0219553
0.0222648
0.0433559
0.0222257
0.0222465
0.0267914
0.0287069
0.0622007
0.085218
0.0220825
0.0387108
0.0218107
0.0220629
0.0222148
0.022052
1.5504
0.0218224
0.0232454
0.24839
0.021826
0.0220054
4.45991
0.0222496
18.8645
0.0229348
4.52537
0.21916
0.0515985
3.89429
0.0645535
1.99736
0.0222749
0.190562
0.0266696
0.0218073
0.0218896
0.0232257
0.0298525
0.0219583
0.053199
0.021903
0.0230896
17.0084
7.82845
4.24403
0.0236516
0.0475689
5.06806
5.95002
0.0221725
0.0256278
1.9687
0.022086
0.0397033
3.19079
3.939
0.0261957
0.039611
0.0227283
0.335772
0.0222851
0.0355974
4.42391
0.0221537
0.0218563
8.65983
0.0428835
0.243118
4.96885
0.0888955
0.0224015
0.0219072
0.0221793
4.88009
1.9967
5.32849
0.0555776
0.0220443
4.67226
0.0221094
0.162061
0.0267417
0.0229636
0.0405172
0.0220583
6.55737
7.5182
0.0216248
0.0630734
0.0418844
3.47696
0.0435212
0.0515169
0.237554
0.0315168
0.195541
0.0540817
0.0221121
0.0329646
0.0828634
4.03461
0.0220349
0.975414
0.0459419
0.0542236
0.0222726
7.49071
0.0254257
0.0235529
0.0218421
0.0388912
0.0376805
0.055578
0.0221278
0.0226357
0.0561758
25.5008
0.0598059
0.022157
0.0226213
0.0328224
0.218225
0.0221712
0.088591
8.30814
0.0472078
4.17709
0.0360626
7.89523
0.349654
0.0219851
2.13841
0.0222385
0.0247919
0.0306049
0.032704
0.0976958
0.0420784
0.0425749
0.0444668
0.0303155
0.0240343
0.0216464
0.0832744
0.0248472
0.0286362
0.925206
0.0258862
0.0301065
0.0219454
4.85365
0.0816165
0.0220819
0.0242049
0.02327
5.5234
0.156771
0.0305813
3.83645
0.287187
1.01461
0.0891103
0.22148
0.02189
0.307825
0.0218805
0.0268502
9.27382
3.40416
0.345166
1.7815
0.0221216
6.63799
0.0218869
0.0736181
0.0250673
3.65027
5.97404
0.0250239
0.0220232
0.321386
0.0425877
0.02202
4.45322
0.0220697
0.0236304
0.0248337
0.0221951
0.0300683
0.023337
0.0220416
0.0343194
0.467683
0.0376371
0.0599408
0.0220157
6.5374
3.45828
0.0220044
0.257716
0.0250119
0.0290876
5.1487
0.0220009
0.0226672
0.0277972
4.4208
0.0220305
0.0221827
0.0385167
3.61051
0.0219875
0.0318976
0.0338811
0.789073
0.045298
0.0383226
0.205008
0.0220749
0.121147
0.0217107
6.43593
0.0294917
0.0220484
0.0259167
0.0950327
0.0221505
0.0220631
0.132875
3.91476
0.0221745
5.75501
0.0221876
0.0216994
0.0616096
0.0220343
0.0218205
6.77907
0.0222736
0.0381164
0.140469
4.76878
0.659842
0.0217549
0.0239847
0.0279847
0.0220747
0.022032
0.0220956
3.09766
0.0221951
0.185368
0.107504
0.0218478
0.0216993
0.0292971
0.107644
0.255425
0.055322
0.060704
0.023726
3.82737
0.0770211
0.0286003
0.0374046
0.0648275
0.0892704
18.7749
0.0348783
3.74578
4.07631
5.55069
0.0241551
0.0219503
0.0372387
0.0342381
0.0217768
0.0221771
0.132227
0.0222434
0.02225
0.0220514
0.0215798
0.0231266
0.0219725
6.6356
0.0220201
8.92982
0.0220821
0.0873355
0.0224521
0.110223
0.0779634
0.0220365
4.93428
0.0239669
0.0222255
0.0368422
0.0218007
0.0306082
0.0219134
3.76235
0.0240414
0.0402465
0.101078
4.87539
0.028225
0.19194
0.880441
0.0503499
0.0220138
0.0227492
0.109774
0.0619067
7.34529
0.0217586
5.09481
0.022073
0.0887628
8.78609
0.0356035
3.54393
0.0250637
0.0310223
0.0247101
7.33705
0.0305619
0.0221421
0.0483484
0.135592
0.0232258
0.0220382
0.0221432
4.84451
0.0222522
0.0275149
4.65805
0.0259229
0.0219807
0.0558594
0.0247502
4.64605
0.021661
0.0220146
0.0218646
0.0260132
0.0222637
0.0220335
0.057746
4.3457
0.0219656
0.0221028
5.15202
0.0220693
5.87978
0.0231858
7.1153
0.0218493
0.0242381
0.0218133
3.86653
4.87945
0.030122
0.0708664
0.026926
0.0219396
0.0221169
3.82294
0.0221369
0.0730204
0.0217802
0.038173
0.0221896
5.4548
0.0218382
0.0407046
0.0218612
0.514572
0.973538
0.0217843
0.0440024
7.07575
0.0612764
3.91369
3.42312
0.241647
0.0233851
0.0325927
0.0903851
2.64516
0.0220092
0.0347668
0.0280385
0.0219665
4.05447
6.20193
0.0627047
0.144196
0.328159
0.0331171
4.34978
0.0217694
0.0217805
0.0969318
7.88467
0.213017
0.156574
1.19753
0.0218114
7.54483
3.85497
9.52795
0.0222027
5.54174
5.26479
1.04951
4.0548
3.84311
0.0758848
0.0297427
0.164243
0.0255559
0.021965
1.68903
0.084931
0.0216301
4.74432
0.0221883
0.0292275
0.0395684
0.0266436
1.22448
0.0346458
6.14169
0.0399847
0.0261227
3.65191
5.06286
0.130361
0.0223665
0.0257618
0.0691808
0.0584285
0.0218321
0.0463228
0.0621187
0.140575
0.0219677
0.183629
0.024219
0.048706
4.09922
0.184419
0.0230673
0.13236
4.71825
0.0221533
0.0227361
8.82264
0.330646
0.0241183
0.0243149
0.0220912
0.0733731
0.0246655
3.64451
0.0976515
0.0224952
0.0222233
0.0675677
0.0294571
0.293766
6.56535
0.0218721
0.0220333
0.0273845
0.0221944
0.0238957
0.0228392
0.0226195
0.0257353
0.0219337
0.0247201
0.0221773
0.0425286
2.31449
0.0222642
5.56686
11.0376
0.0217099
0.242593
0.131852
0.0855667
0.0227002
0.0843116
0.0263343
0.0792782
0.0285904
0.0231067
0.0222094
7.23653
0.0265538
3.73837
0.0226858
0.0220355
0.0220222
0.0696666
0.0219602
0.0466256
0.0545034
1.66369
0.0219167
0.274053
4.95361
4.07712
0.0218042
0.137985
1.02203
5.24747
1.79101
0.022542
0.0222433
0.161188
1.00006
3.16946
0.0380033
0.257515
0.0222315
0.0218197
0.0397829
0.0221957
0.022129
0.160882
0.0222654
0.0898279
0.0218387
5.08551
5.42399
4.51658
4.07589
4.18377
0.0221194
0.0221448
6.75083
0.0217704
0.021794
0.0216993
0.121268
4.96758
6.71267
0.0274879
0.0219791
0.0230439
0.0370735
5.35609
0.0220372
3.49176
5.20264
0.0221886
0.0221776
4.09988
0.069473
0.0229062
0.022041
5.81118
4.40321
0.0219376
0.178998
0.0222535
4.01617
3.16645
0.02303
7.23805
6.72473
5.44807
0.0218259
0.0220093
0.0222448
0.0222861
4.66915
0.021908
0.239193
0.221116
8.79407
0.0225362
0.0571595
0.280928
0.0469195
6.67634
4.54404
0.0216329
0.0249848
0.025148
0.123909
4.23648
0.0215681
5.46032
0.0319602
0.0391436
0.0227105
0.021948
0.280147
0.039092
4.96779
0.0221955
0.0540706
0.0224628
0.111805
0.0238112
4.25094
3.00888
0.270284
0.0833834
0.0219613
0.0237906
0.0788353
0.223297
4.25125
6.8733
0.0221495
3.6552
0.0929794
5.24048
0.0255188
0.0423887
0.038171
0.022037
5.56129
0.0220698
0.0310664
3.533
4.94313
1.3808
4.82964
0.0281687
0.0456877
0.0217325
5.10782
0.0271043
6.5496
0.0217198
4.80478
0.0215308
0.0220014
0.0307085
0.0312628
0.0323561
0.0219696
3.76897
0.0395218
0.0219111
0.0370202
3.95164
0.603814
0.0220323
4.81665
0.0242206
0.0317645
0.0300271
0.0216924
0.0614395
0.0219942
8.80842
0.0804739
0.0257082
0.022028
0.351909
0.0379327
0.0217186
4.99235
2.29195
0.223361
0.0216115
0.615543
0.0221408
0.143849
0.0264575
0.118411
3.88747
3.93322
0.0342135
4.83465
0.0487942
0.0282935
0.0218239
5.19152
0.112593
0.099895
0.0611751
0.0222435
3.66978
0.0847564
0.362745
0.243658
6.69372
3.72209
4.49499
5.05368
0.0288001
0.0314944
0.0220959
0.022026
0.0215874
0.157003
0.0289193
0.0330531
4.91195
0.021935
0.0218582
0.0374659
0.135778
0.0269207
0.0218126
4.65436
0.023948
0.0420152
0.0221935
5.77375
0.0286418
5.9654
0.0559116
0.0325242
0.051468
0.0220889
7.94432
0.292465
0.0671126
0.0220328
0.0219104
7.01309
4.62292
3.46054
0.021822
0.0683982
0.384716
0.0219916
0.0220077
0.0220677
4.83789
0.101731
0.0341596
0.0259941
0.0252464
4.70276
0.0874572
0.228165
0.0253185
0.0310689
0.0215718
0.125602
0.0538578
0.0220122
3.77993
4.60363
4.38797
3.93186
4.91022
8.4247
6.69926
0.0231161
0.021789
5.98874
5.02939
6.51479
0.0220582
0.037797
0.0220459
0.0219615
3.26569
5.08483
0.0584551
0.0220027
0.254808
0.0867194
0.0464565
4.26248
2.13304
0.259178
0.0219156
4.23709
2.6689
0.346026
0.0300809
0.0401007
0.0221713
0.0218741
0.0374895
0.0437355
0.0242837
0.0369921
0.0269145
0.024901
0.220159
4.15038
0.0313883
0.0384896
4.12685
0.189589
0.0221113
0.462298
0.941799
4.8075
0.0397268
0.0220809
0.0285212
0.026521
0.0300055
0.0216904
0.033066
0.0294903
0.0415927
0.235585
0.0222306
0.0229171
3.80995
3.88409
4.91182
0.299792
0.098901
0.0215161
0.022045
0.0294029
0.021727
6.94331
0.0220366
0.0222733
0.0217218
3.72938
18.54
0.0224019
0.0568703
0.0279049
0.0351719
0.0291848
0.0352317
0.0375104
0.0363854
4.8198
0.0254866
4.6949
0.0381296
4.8823
0.028696
0.0219357
0.021819
0.0868689
0.134293
0.0218256
0.0389895
0.0288541
0.0567535
4.00208
6.82448
4.39102
0.0222731
0.845078
0.0295189
0.0359616
0.0220288
0.066581
0.0236368
3.71449
2.02765
0.0390033
0.0220785
3.86288
0.0272398
4.37873
5.10469
0.222141
0.0241615
0.122706
4.54202
0.671537
3.85342
0.0575807
0.0219272
0.0388134
0.021813
9.17325
0.0245236
0.0309564
0.254698
4.81459
0.0218964
0.0219529
4.39076
0.0403556
8.42869
0.0327962
0.0220419
0.0410219
0.194494
0.0432914
3.60988
0.0353212
0.457013
0.0247838
0.0222447
0.0219382
0.269402
0.0226523
0.126412
0.0220473
0.0219881
0.255775
0.0252896
0.0220452
0.0220376
0.0346007
0.366679
0.0387416
0.0376445
0.0263283
0.0581262
0.0220299
0.15317
0.0295521
0.0406902
0.0689272
0.026465
0.0848424
0.0448243
0.0217969
0.0611727
6.89954
3.34741
0.0220363
2.03918
4.34275
0.0219599
0.0226545
0.826089
4.14575
0.0278242
4.17319
0.344289
0.0219402
0.0758941
0.0215864
0.025394
0.0582774
9.87768
0.517482
0.22305
0.275323
3.86062
4.03035
0.0229669
3.80324
0.0220351
2.8346
4.09413
0.0220999
0.0220832
3.5026
0.0221122
0.0220853
0.274813
4.45084
0.207651
0.0252636
4.18591
0.0221037
3.99433
3.93265
0.0221901
0.28654
4.98249
4.56101
3.61636
3.8187
3.71368
0.0218788
0.0231859
0.0582912
0.059254
0.0220796
0.185981
0.0220401
3.72047
0.27089
0.0490176
0.25456
3.65043
0.268497
0.218052
0.0615853
7.78226
0.457714
0.0245773
0.0216305
3.19536
0.0344698
0.0217677
7.24332
0.0219725
3.39783
0.0221394
4.90366
0.0246875
0.0219779
19.5708
0.0274244
0.0352652
3.77273
6.6674
2.22965
0.0264544
0.0402538
0.0232883
0.0359019
0.116589
0.0367446
0.0222095
1.5951
0.0574528
0.0326026
4.05017
0.0383073
0.0367116
0.200142
0.0698918
0.0404702
0.0219732
0.191316
0.0218178
0.114672
0.200439
4.44744
0.0218725
0.0377776
4.69004
0.022951
0.062016
0.0291175
0.0402457
6.04929
0.0566145
0.0234166
15.1493
0.0218835
3.84309
0.0221251
0.0227877
0.11269
3.50894
0.0320661
0.378257
0.581351
0.0294304
0.0221377
0.159587
0.0434134
4.82181
0.0265066
11.6546
0.131309
0.029266
0.0285616
0.10159
0.0364999
0.0728694
0.0561835
0.0378085
0.0240539
0.0219796
1.949
0.022007
0.0280658
0.0216025
0.0981834
0.0283412
0.0553137
3.96361
0.0230147
0.214783
0.021512
0.0221484
0.0221887
0.0222064
0.0254709
0.0219413
0.0769559
7.70124
0.0544017
0.0423856
0.0243518
0.0220181
0.194545
0.022019
4.38024
4.81154
4.89877
0.12988
0.0343983
0.0260545
0.0221775
0.029629
0.0963991
0.0415724
4.27867
0.0535319
5.15414
0.131448
0.0222101
0.0218421
3.39925
0.021946
0.028594
0.0658068
0.326702
0.022959
4.5794
0.0221733
0.0255414
0.0220474
0.0226102
0.162713
0.095014
0.0221798
0.0302291
0.0349838
0.0426743
0.0520237
0.503347
0.350055
0.261034
0.118745
0.0250551
0.0228647
0.0511376
3.48944
6.56077
3.90394
0.0299532
4.73413
0.092631
0.0226024
0.0219951
0.0551316
0.0221438
0.0300576
5.5921
0.0219618
0.0217943
0.502824
3.32715
0.0422909
1.25871
0.0221116
5.6722
0.0411238
4.95922
0.029188
0.0220259
4.01775
0.0583675
0.022027
0.0712908
0.0222528
0.154627
0.0284214
0.0526027
7.32999
0.0334718
5.22737
0.0219302
5.21221
0.0221202
0.025697
0.0224425
0.0449274
0.0221437
0.0551339
3.79774
1.0118
0.0468581
0.0317035
0.0758215
0.0218946
0.0219545
0.0227873
0.968264
0.0247056
5.09536
4.54911
0.13792
0.0222153
0.142486
0.219242
0.138675
0.024898
4.80342
0.0219701
0.021523
0.021956
4.90188
0.022033
0.0220102
3.90027
0.0219726
0.157286
0.0995884
0.0217523
4.30262
0.0266376
4.86658
0.021913
1.24892
0.0227398
0.0714025
9.57733
0.060796
0.0219429
0.0260533
4.55805
0.0299657
0.146856
0.0298454
0.0260417
0.138882
0.0288557
0.0220682
23.163
0.0287554
0.0267808
0.127746
0.0219666
0.021859
0.022189
0.028848
0.0221191
0.025756
5.36743
13.014
0.102387
7.31644
0.0546199
0.0316499
4.9227
4.78729
0.0224276
9.16499
9.02292
3.92574
2.08464
0.0302167
4.48643
4.02897
18.0608
2.14094
6.41064
0.0424216
0.0823632
0.0292963
0.0250828
0.022158
1.35586
0.0222851
4.89784
0.123059
0.329739
0.0215948
0.0669609
0.0454725
0.0235655
0.0222931
0.0221185
0.122066
0.0231935
0.0221285
0.0367763
4.52887
0.0238733
0.152652
0.0218299
0.125009
0.081974
0.0221509
0.0265166
0.0219445
4.92302
4.54106
0.150458
7.05498
0.0328302
0.0816953
0.0221319
0.0376841
0.0220579
0.022263
0.0222332
4.86773
0.0217755
0.0410387
0.732365
0.0276282
0.0295695
0.0219975
5.13463
0.188493
14.2938
4.65047
0.162066
0.289463
4.34587
0.318312
0.189172
8.51186
0.123636
0.0334253
2.1755
5.24617
0.0220445
5.2886
0.147841
5.51432
0.0216129
0.0573676
5.29802
0.0222731
4.77931
0.0253626
6.69398
0.0220919
0.0220997
0.0651238
0.219794
0.0256581
0.0613096
0.0217821
0.0220759
3.65937
5.66762
7.18439
0.0483556
0.0220512
0.022428
0.0221357
0.0356917
1.10184
4.53599
3.6466
1.97847
0.0313528
0.0219531
0.0219833
5.63121
6.64287
0.280273
0.0262794
0.0245876
0.0814636
5.00071
6.27683
0.0215139
0.0219566
5.07118
0.022911
0.248494
0.0278012
0.0220565
0.0320288
0.0460178
4.57162
4.68442
0.0222022
0.0217932
0.0245222
0.184484
5.37954
0.022265
0.127953
4.46734
0.0215234
3.19358
4.07742
12.7003
0.0221102
5.66574
4.94298
0.0383583
0.308662
0.0239784
0.301065
0.318002
0.0249827
0.0219408
6.81566
0.962335
0.0218565
0.130265
0.136434
0.0287843
0.24875
4.62238
5.47641
5.2635
0.0268524
0.0235347
0.0228615
4.58634
5.06123
4.81064
5.94228
4.62406
0.0217171
0.0407181
0.0220676
0.0221152
0.0247109
0.0219666
0.0220592
0.022136
4.3657
11.6665
6.96536
0.0564161
0.180357
0.036157
0.0218544
0.0219872
4.3957
0.0221386
5.97671
3.83847
0.0221789
0.0218786
3.58458
0.0225038
0.536406
0.0254379
0.0217513
0.0217125
4.44483
0.021679
4.55308
4.25723
0.0215677
0.0441909
0.0219018
0.0227478
0.0218324
0.110799
3.96387
0.0219701
5.12996
0.456396
0.0239103
0.0218689
0.0226187
0.0234204
0.0222262
0.488406
5.37528
5.79587
0.0370812
6.95761
0.0222726
0.0252529
0.0220511
0.168763
0.0233282
4.83481
0.0218616
3.98567
0.274457
5.7451
0.140366
0.0218577
0.0421955
0.0219083
4.28875
0.0219429
0.0282138
0.0260839
0.0251505
0.0221191
0.022251
0.0322226
5.16947
0.022181
0.0227433
0.0236939
0.0331784
0.158584
0.0221879
5.26352
3.78069
0.0236578
4.98016
4.70718
3.59185
6.40194
0.021538
0.0229989
3.81493
4.21454
0.134489
3.94218
4.39723
0.0321481
0.0467769
0.029477
4.31114
0.0220358
0.0219657
5.57814
0.118666
4.95786
0.0243622
0.0217082
0.0220455
5.05526
0.0657596
0.023676
0.221524
0.0218168
0.0561876
0.0295055
0.0297384
0.0219073
0.0221886
0.0219191
0.0243685
1.29776
4.81389
0.0215765
0.0218969
4.70444
0.0220517
0.062139
0.0258735
0.0255094
0.0353785
0.0222857
4.25527
0.0287398
0.02523
20.2089
0.0794799
0.023177
0.030688
0.0220254
0.0224439
7.38715
0.280709
3.472
0.0222182
0.022154
0.0587748
0.0270431
0.0220301
0.0361892
4.51721
0.0256296
0.0401624
0.0251984
0.111761
0.0221157
0.0216917
4.83265
5.20588
5.07438
0.0219667
0.142773
0.0215966
0.0220215
0.0625852
4.6336
0.0633572
0.0277069
0.146351
0.0226548
0.0286636
0.0509293
0.758293
0.0222485
0.0216401
0.0225379
0.0238369
0.0262042
0.0219575
1.18081
10.4316
0.02206
0.0317744
0.0224032
0.0216438
3.77867
6.0334
6.00812
0.0702617
0.022373
0.0525221
5.11302
0.0962214
0.0898501
0.0335855
0.0295522
5.17737
0.205477
0.704936
0.0217638
0.0302726
0.022109
0.0298125
7.30056
0.0216269
0.0397803
0.0253795
0.0296394
0.0230009
0.0217832
0.0218783
4.22158
0.0436835
0.0295165
0.0630323
0.0344082
5.68369
0.0309089
0.471201
0.0219208
5.06355
4.88782
6.95718
0.0222646
0.0308195
0.0220845
0.0219549
6.06281
0.0440411
5.01323
0.0219926
0.0445163
0.124692
4.6749
0.0278643
0.021639
6.89172
0.0222852
0.0222842
0.0225496
0.0220352
6.42391
0.0218193
0.0218725
0.0357477
0.027113
0.13734
0.124699
0.0330269
4.55413
0.0219172
0.167041
0.0217689
4.88078
0.0334532
0.464784
0.137409
2.5715
0.100674
4.8666
0.0229498
6.51966
0.0321673
4.97469
0.187525
0.0278071
0.209503
0.0221382
7.64811
0.0229824
0.0370776
0.0269927
6.34289
0.132839
4.49088
0.0307162
0.0220122
4.96311
0.223843
0.0517555
0.139903
8.6492
5.12338
0.0384039
0.258285
0.0406937
0.0218759
0.047035
0.24332
0.0667611
25.2609
0.115946
0.0217939
0.0219194
0.132726
0.0220861
5.41314
0.0701085
0.0220847
3.74389
1.11351
3.46547
0.104811
0.0219715
0.0288062
0.0256655
4.58455
3.66969
0.0256375
5.24439
0.0218652
0.0313623
0.891646
0.0220011
0.0393285
0.0219287
0.025948
0.0222513
0.15747
0.432022
0.0299229
0.0290879
0.0217122
0.135162
0.0218812
0.0218248
0.0327563
0.021922
0.204439
5.07772
2.6056
4.47499
0.0217836
5.22743
0.0221889
0.0370507
0.126436
0.0219997
7.95933
0.0675505
0.0220301
0.0216313
0.0406227
0.0370481
0.17335
0.225764
0.0257287
0.023811
4.09443
0.0582543
0.25966
0.767944
12.5743
4.02489
5.03749
1.04137
0.0221483
0.0221145
0.0456727
0.022198
0.0495253
0.0351379
6.3996
5.33099
6.56533
0.0216803
0.021773
0.114924
0.250144
4.57691
1.10317
3.63847
0.0531684
0.032494
1.00647
0.274596
0.0258129
5.00437
0.0329108
0.0296495
4.51929
0.0391402
0.0219188
4.67898
0.873562
0.0242319
0.134265
0.023327
3.67274
5.83373
4.84749
0.0220126
0.0216833
0.126563
0.0220146
0.0219064
0.0220188
0.0217286
0.0220246
0.0220318
4.95597
0.027649
0.0458322
4.37802
0.0218991
0.0220408
0.0307668
0.0253175
0.0258154
0.022049
0.0637186
0.0302909
0.0263062
0.0835841
4.40745
0.0220604
0.0406281
0.0220726
0.0220342
0.0215706
0.0220852
4.61005
0.0218877
0.0220231
0.0220984
0.0427032
4.36315
4.41252
5.18483
1.39152
0.042914
4.40867
6.58111
0.0219544
0.0418207
5.88448
0.222413
0.0221126
0.0272813
0.0410579
0.037629
0.0220619
0.0383742
0.057194
0.0439105
0.0216308
0.0518799
2.74337
0.0215763
1.5845
5.09607
0.0418451
0.654966
0.0349199
0.0220908
0.025206
0.0220107
0.22264
5.02991
0.0216744
0.0428481
0.0219711
0.0219806
0.0221843
0.0222859
0.0368837
0.0221722
0.120809
0.138618
0.0256019
0.0244131
0.0438007
0.0220475
0.0439443
0.0313422
0.0223357
0.0221027
0.0221416
5.28801
0.0220124
0.246191
0.0392756
0.0222533
0.022028
0.0217366
4.66436
0.0251748
0.0421409
0.0507066
5.25946
0.0280126
4.26285
1.73445
0.0421151
0.0219716
0.213411
0.0376095
5.01044
0.068153
4.93555
0.0216329
0.0484166
0.0474341
4.56939
0.0220024
0.0424027
5.40326
0.0218543
8.12976
10.9381
3.5367
0.0219745
0.0217696
5.10799
0.0220489
4.54968
0.156914