/*--------------------------------*- C++ -*----------------------------------*\
| =========                 |                                                 |
| \\      /  F ield         | OpenFOAM: The Open Source CFD Toolbox           |
|  \\    /   O peration     | Version:  v2012                                 |
|   \\  /    A nd           | Website:  www.openfoam.com                      |
|    \\/     M anipulation  |                                                 |
\*---------------------------------------------------------------------------*/
FoamFile
{
    version     2.0;
    format      ascii;
    class       volVectorField;
    location    "250";
    object      U_0;
}
// * * * * * * * * * * * * * * * * * * * * * * * * * * * * * * * * * * * * * //

dimensions      [0 1 -1 0 0 0 0];


internalField   nonuniform List<vector> 
13851
(
(1.12499 0.0463695 6.79139e-20)
(1.06848 -0.024118 -9.04961e-21)
(1.067 -0.0231542 0)
(-0.183393 -0.0193681 -1.74789e-19)
(1.00195 -0.000429783 0)
(1.07776 -0.0376567 2.69089e-20)
(1.05706 0.00974905 5.06135e-21)
(1.01291 -0.000765302 0)
(0.323162 0.0333563 1.79404e-20)
(0.990944 -0.00647597 0)
(1.15508 -0.0972027 0)
(1.00106 -0.00780374 -5.85345e-21)
(0.980228 -0.0177143 1.6606e-20)
(0.11902 0.0101121 -2.96538e-20)
(1.09672 0.0069661 0)
(1.08923 0.0465448 -6.5518e-21)
(-0.300929 -0.00581849 6.01641e-20)
(1.03382 -0.019477 -5.95399e-21)
(1.19531 0.0446588 3.74953e-20)
(1.12643 0.0449369 -5.36019e-20)
(1.10785 0.00209774 4.59996e-20)
(1.03583 -0.0889097 3.6386e-21)
(0.582652 -0.279806 -8.78355e-20)
(1.00007 -0.000208807 -4.66031e-21)
(1.21236 -0.0154602 0)
(1.08585 0.0379737 2.93881e-20)
(1.08761 0.0548404 -5.16108e-21)
(1.16225 0.0802259 -5.26415e-20)
(0.452296 0.0286884 2.50744e-20)
(1.01984 -0.0121429 0)
(-0.0729726 -0.0145564 -1.89607e-19)
(1.05721 0.00914376 0)
(1.11766 0.0465569 0)
(0.394228 0.0634199 -7.00435e-20)
(1.12425 -0.082102 6.13561e-20)
(0.482325 0.028992 -5.70529e-21)
(1.00004 -0.000187817 4.61123e-21)
(1.22466 -0.152045 1.29516e-20)
(0.0178379 0.0141352 1.71844e-19)
(1.00521 -0.0367817 -4.37923e-21)
(0.217425 0.0526742 5.18539e-20)
(0.48788 0.0315994 0)
(-0.230637 -0.00741369 0)
(1.0942 -0.465906 0)
(0.503462 0.0366155 6.03521e-21)
(1.01361 -0.0219272 -7.29179e-23)
(1.01951 -7.44921e-05 -7.72172e-21)
(1.09249 0.0459747 6.90647e-23)
(1.04302 -0.0557171 8.82182e-21)
(0.979931 -0.0167729 -2.16412e-20)
(-0.233743 0.00164207 1.77944e-26)
(0.973231 -0.01081 -1.7325e-20)
(1.08941 0.0463476 -9.02521e-21)
(1.07319 0.018626 -2.71347e-20)
(0.178902 0.00655932 3.90006e-20)
(1.00417 -0.037042 5.92873e-21)
(1.11902 0.0475669 -4.18055e-21)
(0.183014 0.0466439 -6.45343e-20)
(1.0889 0.0497028 3.54618e-20)
(-0.00690981 0.0110192 0)
(1.00097 -0.00735104 -5.51993e-21)
(1.09166 0.054525 -3.33554e-20)
(0.995435 -0.00177912 8.79244e-21)
(1.04339 -0.0578988 -4.22721e-21)
(0.87472 -0.437786 -1.56353e-22)
(0.856449 -0.457811 1.89512e-22)
(-0.0275851 0.00653106 1.22752e-20)
(0.693301 -0.117422 0)
(1.01869 -0.0384129 0)
(-0.150808 -0.0149457 1.07373e-19)
(-0.144274 -0.00840094 -1.71066e-19)
(1.11679 0.00594258 -3.16057e-20)
(0.99299 -0.0250206 -9.23138e-21)
(-0.00821405 0.00880263 -2.5274e-21)
(1.07941 0.0162076 -1.9324e-20)
(1.01831 -0.0718033 9.75792e-23)
(-0.275736 -0.00844057 -8.6832e-20)
(1.02093 -0.00638443 -8.66794e-21)
(1.25617 -0.02013 -3.06294e-20)
(1.00429 -0.0171994 3.93564e-21)
(1.01987 -0.0390415 2.42325e-21)
(1.25758 -0.0850411 6.29052e-21)
(1.12075 -0.0837811 -3.32728e-20)
(0.10818 0.010377 1.2317e-20)
(0.00914831 0.0117635 -8.82729e-21)
(-0.0969733 -0.0120967 0)
(1.03899 -0.0901008 -7.01482e-21)
(0.267958 0.00357513 1.0056e-20)
(0.9915 -0.010664 0)
(-0.0696432 -0.0132388 2.26557e-19)
(0.972007 -0.00997789 1.70477e-20)
(1.05835 0.00890862 -1.65184e-20)
(-0.223816 -0.00665587 9.15244e-20)
(-0.130787 -0.0115046 8.37084e-20)
(-0.0342037 0.0164963 7.811e-20)
(1.07866 -0.426965 -3.44308e-20)
(1.00878 -0.0233646 1.3246e-21)
(1.09088 0.0463078 1.83759e-20)
(-0.162289 0.00504485 7.87762e-21)
(1.20755 -0.189315 0)
(1.09122 0.0465726 1.39245e-20)
(0.809743 -0.111497 -3.74004e-20)
(0.80993 -0.144227 1.85268e-20)
(0.988877 -0.0265507 0)
(1.01709 -0.0217561 -7.62128e-22)
(1.1228 -0.00768363 0)
(1.0164 -0.0214752 0)
(-0.124475 -0.0103116 1.82175e-19)
(1.05843 0.00819013 2.64865e-20)
(1.03293 -0.0189104 0)
(1.02354 -0.126586 1.24104e-21)
(1.01434 -0.0223542 0)
(1.20595 -0.0157098 0)
(1.15419 -0.0438968 -6.69429e-20)
(1.107 0.0474279 -9.56089e-22)
(1.07255 0.0175218 0)
(1.0139 -0.00799609 1.74613e-21)
(1.01357 -0.000897088 0)
(-0.199405 -0.0170839 1.24713e-19)
(-0.114382 -0.0185392 0)
(1.10754 -0.352652 0)
(1.0275 -0.0159936 0)
(1.01391 -0.0388695 2.32203e-23)
(0.114301 0.0287272 -1.46189e-20)
(1.16613 0.0523879 -5.81957e-20)
(0.614763 -0.197797 -6.17717e-20)
(1.00929 -0.0230787 0)
(1.12419 -0.146817 2.37608e-20)
(0.243414 0.0511631 0)
(1.10649 0.0123308 -5.97168e-20)
(1.03252 -0.090802 -6.96985e-22)
(1.0936 -0.0639433 0)
(1.31297 -0.166789 -1.16789e-20)
(0.377299 0.0611282 1.82814e-20)
(1.15932 -0.0943312 0)
(-0.0446577 0.0163237 5.50207e-20)
(0.706476 -0.109921 -6.76266e-20)
(-0.112429 -0.0112061 9.37998e-20)
(0.847476 -0.0837051 -4.8969e-20)
(1.10251 0.0148745 2.56303e-20)
(1.25451 -0.0889941 0)
(0.973849 -0.0418098 2.47587e-20)
(0.990803 -0.0107404 0)
(0.743005 -0.302477 -4.19745e-20)
(1.16948 0.0147331 6.82754e-20)
(1.00512 -0.0698855 -6.44816e-21)
(1.02073 -0.00596545 5.54092e-21)
(-0.121977 -0.0118763 -8.4288e-20)
(0.317946 0.0207363 2.12161e-20)
(1.12919 -0.149006 0)
(1.0917 0.0465164 -3.34068e-20)
(1.20464 -0.0188705 3.14427e-20)
(1.15811 -0.0429253 3.69381e-20)
(1.18275 0.0410515 6.91425e-20)
(0.971953 -0.0205202 -2.93464e-20)
(0.983442 -0.00734069 -2.0782e-20)
(1.00114 -0.00618439 0)
(-0.0200674 0.0103809 -1.71999e-19)
(1.10088 0.0117707 0)
(1.05961 8.21678e-05 -1.38832e-20)
(1.00014 -0.000481466 0)
(0.464208 0.0282529 8.72604e-21)
(1.12016 -0.00699946 -1.60572e-20)
(1.09302 0.0459281 6.79174e-23)
(0.122908 0.00888971 2.77658e-20)
(0.411312 0.0414095 -3.00575e-20)
(0.422888 0.0429045 2.40311e-20)
(-0.217025 0.00340108 0)
(1.02429 -0.121823 -1.138e-21)
(0.75258 0.0769165 1.5865e-20)
(1.00071 -0.00675401 0)
(1.01384 -0.00760527 1.33888e-21)
(1.13729 -0.0103283 -5.63665e-21)
(1.00103 -0.000399465 0)
(-0.00500003 0.0217151 -1.19064e-19)
(1.10121 0.0658088 5.49704e-20)
(1.09461 0.0481882 0)
(1.01441 -0.00758292 0)
(1.07782 0.0175131 0)
(1.09438 0.0475875 0)
(1.16255 0.0512243 5.45134e-20)
(1.10057 -0.447705 0)
(1.02974 -0.115045 1.25307e-21)
(1.1047 0.0124294 3.22203e-20)
(-0.243421 -0.0082021 -5.69617e-20)
(0.326058 0.0205248 1.62721e-20)
(1.11622 0.0475425 -1.6319e-20)
(0.888489 -0.0619829 1.69083e-20)
(0.976363 -0.0214494 -6.21135e-21)
(1.01805 -0.016304 -1.21823e-21)
(1.24888 0.0100769 4.59e-21)
(1.10162 0.0107955 -5.01282e-20)
(0.0981031 0.00417383 0)
(1.07912 -0.0356504 0)
(1.00694 -0.0678768 3.12224e-21)
(1.09016 0.0462865 1.16959e-20)
(1.11488 0.0465412 3.9704e-20)
(1.04401 -0.011529 0)
(1.03918 -0.0275848 -1.87082e-20)
(0.709273 -0.15271 -6.57398e-20)
(1.25505 -0.101271 -9.60947e-20)
(0.0315861 0.0321151 -4.58993e-20)
(0.164166 0.0491974 1.42664e-20)
(1.09527 0.00767127 0)
(0.93931 -0.697976 -7.43149e-21)
(-0.00114522 0.0297275 2.61028e-20)
(0.937119 -0.0176612 2.45703e-20)
(1.0957 0.0203655 2.87022e-20)
(0.317075 0.0361337 -8.3211e-21)
(1.07238 -0.0449955 -1.00463e-20)
(1.08865 0.0467849 0)
(1.01331 -0.0380526 9.80931e-22)
(1.25851 -0.0969096 1.26724e-19)
(1.0001 -0.00204056 -2.53569e-21)
(1.12766 -0.0750327 2.46886e-21)
(1.02172 -0.0793911 -2.06448e-21)
(0.981214 -0.0157596 -2.66159e-20)
(1.13368 0.0580583 -1.85963e-21)
(1.04319 -0.0197058 0)
(0.15372 -0.533118 -5.62428e-20)
(1.01445 -0.00718189 4.24204e-22)
(1.13041 0.0441353 -3.53193e-20)
(0.0876256 0.00653845 -1.43598e-20)
(-0.0279534 0.0174709 -1.23932e-19)
(0.900304 -0.0714688 -6.30178e-20)
(1.09548 0.0211579 -2.98851e-20)
(1.00002 -0.00104182 -8.58578e-21)
(0.745863 -0.281294 -4.00872e-20)
(1.00121 -0.0125575 0)
(1.12445 -0.076365 -1.67563e-20)
(-0.0272046 -0.0423249 4.4316e-20)
(0.894123 -0.0627062 0)
(1.07223 -0.0429565 -8.34283e-21)
(0.996254 0.000116731 6.56539e-21)
(0.149982 0.0475703 0)
(1.0205 -0.0119785 3.15586e-21)
(0.924639 -0.434703 -1.31726e-19)
(0.141863 0.0453762 -1.65504e-20)
(1.20025 -0.184456 0)
(1.0001 -0.000461428 -3.39787e-22)
(1.27729 -0.311711 -5.31693e-21)
(0.0216973 0.0116029 0)
(0.532538 0.0387744 -5.54995e-21)
(1.08877 0.0465855 6.06514e-21)
(1.09987 -0.0144566 0)
(0.70714 -0.334089 0)
(1.13371 0.0557733 1.76123e-21)
(1.07748 0.0185537 -1.49581e-20)
(1.08121 -0.409235 3.40097e-20)
(1.04228 -0.12857 -6.38266e-21)
(0.216724 0.0031341 -1.11509e-20)
(1.1556 0.0322774 8.47447e-20)
(1.00997 -0.000801187 -9.27465e-22)
(1.07785 -0.0156669 -1.05674e-20)
(1.09058 0.0465021 -4.02928e-20)
(0.452489 0.026721 -7.65237e-22)
(0.33197 0.00576221 0)
(1.01762 -0.01561 0)
(0.590693 -0.19349 1.39824e-19)
(0.992342 -0.01154 -1.11173e-22)
(1.11593 0.0559024 0)
(1.17133 0.0480517 0)
(1.07955 -0.0151138 1.58851e-20)
(1.12018 -0.00393581 0)
(1.15885 0.0326379 -8.69979e-20)
(0.998748 -0.0235158 0)
(0.804947 -0.12115 1.31915e-19)
(1.09384 0.0442054 -3.03737e-20)
(1.16682 0.0764424 -1.64369e-20)
(0.997584 -0.00746732 6.57569e-21)
(0.98115 -0.0147802 2.67714e-20)
(0.894837 -0.0698992 1.75948e-20)
(0.409693 0.0510202 0)
(-0.25099 -0.0102008 1.76986e-21)
(1.11063 0.00661597 -4.31516e-20)
(1.02846 -0.0164967 0)
(1.16042 0.0540024 8.20389e-21)
(1.17696 0.0448546 0)
(1.10984 0.0444318 1.37542e-20)
(1.11824 -0.00332122 0)
(0.379461 0.0473495 0)
(-0.121599 0.00524424 8.48526e-28)
(1.08269 -0.0227417 2.71245e-20)
(1.09207 0.00476206 3.16075e-20)
(1.17566 -0.174086 1.60425e-21)
(1.01911 -0.0210087 3.72115e-21)
(1.00127 -0.00587212 -5.07378e-21)
(1.11125 0.0452572 0)
(1.14072 -0.11236 0)
(1.02182 -0.0122096 0)
(1.00012 -0.002011 -2.4573e-21)
(1.00097 -0.012918 0)
(1.00406 -0.000608903 0)
(1.09671 -0.00656412 -6.16494e-20)
(1.00131 -0.00626592 -1.52578e-22)
(0.334575 0.0359385 -1.7855e-20)
(1.10944 0.00334827 -2.95481e-20)
(1.01026 -0.0312131 1.04208e-21)
(0.458778 0.0255042 6.41095e-21)
(0.103094 0.0262539 3.64733e-20)
(0.974268 -0.0161605 0)
(1.12897 0.0458138 3.84578e-20)
(-0.20178 0.00298728 0)
(0.97269 -0.0441081 -1.18859e-20)
(0.972911 -0.0154207 0)
(1.11162 0.00314054 0)
(0.0761561 0.00757132 0)
(0.253751 -0.0128278 -3.65104e-20)
(1.13734 0.00154616 5.08876e-20)
(1.00216 -0.000566311 0)
(0.789883 0.079181 -6.90227e-21)
(1.0008 -0.00718952 0)
(1.14302 0.00166551 -3.49676e-21)
(-0.18528 0.00541056 0)
(1.16412 0.076325 -1.6911e-20)
(1.05846 -0.00025543 1.01811e-20)
(1.26781 -0.205793 0)
(1.30875 -0.174476 1.05977e-22)
(-0.0958417 -0.0084426 -1.41155e-19)
(1.20675 -0.0267353 0)
(0.780091 -0.0900142 9.02502e-20)
(0.00199319 0.0178393 0)
(0.154546 0.0377175 -2.56546e-20)
(1.17296 0.0789208 2.27917e-20)
(1.04044 -0.0283405 8.16866e-21)
(-0.245789 -0.00800129 9.93801e-20)
(0.155629 -0.00184995 0)
(0.461845 -0.445416 1.27647e-19)
(0.497058 -0.45114 -1.57607e-19)
(0.935479 -0.0188247 -3.43445e-20)
(1.14051 -0.00563252 -1.20073e-20)
(0.945564 -0.113292 3.1377e-20)
(0.27591 0.00412937 -1.14132e-20)
(0.78486 -0.136706 1.29165e-19)
(1.00783 -0.00187286 -3.47949e-22)
(1.01954 -0.000147429 2.37969e-21)
(1.06582 -0.0791951 2.03396e-20)
(-0.123582 -0.0112477 1.15492e-19)
(0.207508 -0.539667 -5.33809e-20)
(1.01914 -0.020242 -2.83032e-21)
(-0.044225 0.0164454 1.3762e-19)
(0.934901 -0.110484 -1.80684e-20)
(1.09436 -0.0668046 0)
(1.05986 0.000864172 0)
(0.0671373 0.00504982 0)
(1.15745 0.0532038 0)
(1.08987 0.0464651 1.30311e-20)
(1.01952 -0.077184 1.71373e-22)
(1.06976 -0.0421471 0)
(0.522065 0.0285625 2.82812e-20)
(0.976194 -0.0230464 9.12588e-21)
(1.18137 0.0446771 0)
(1.08132 -0.0215971 -2.32598e-20)
(1.11289 0.00199139 0)
(0.929039 -0.112775 0)
(0.991685 -0.0115025 0)
(1.01104 -0.0308349 -1.90939e-21)
(1.21846 -0.0841851 -8.55774e-21)
(1.21529 -0.185456 -2.59504e-21)
(1.15149 0.0352579 0)
(1.34276 -0.178322 -8.68755e-20)
(0.532215 0.0296543 -3.22856e-20)
(1.00629 -0.0713143 8.78418e-21)
(0.125162 0.0443044 3.62012e-20)
(1.11872 0.0607242 -1.57088e-20)
(1.02684 -0.00863037 5.1197e-21)
(1.15596 0.0777616 8.62419e-21)
(1.12626 0.031773 0)
(-0.148806 0.0076911 4.99746e-20)
(1.06389 -0.0767615 0)
(1.08307 0.0409598 0)
(1.08702 0.0498177 -1.78664e-20)
(1.28793 -0.0939911 -9.19331e-20)
(1.21499 -0.0945079 0)
(0.269246 0.00405625 2.31394e-20)
(1.0436 -0.0387535 1.82204e-20)
(1.10101 0.067398 -5.29793e-20)
(-0.323488 -0.00681477 2.65677e-20)
(1.09564 -0.0255536 8.88565e-21)
(0.237834 0.00626291 0)
(1.10229 -0.0273276 1.05457e-20)
(0.168296 0.0467013 0)
(1.09127 0.00378262 -3.88468e-20)
(1.07563 0.0289136 0)
(1.16263 0.0274316 8.89079e-20)
(1.23836 -0.164318 6.03557e-20)
(0.98347 -0.00825238 2.28622e-20)
(1.08023 -0.0276235 0)
(1.14489 -0.115179 -3.52569e-20)
(1.07913 0.0172844 2.15905e-21)
(1.01184 -0.0239358 -1.84569e-22)
(1.11034 0.00833717 3.61119e-20)
(0.666047 0.0789513 0)
(0.993779 -0.024992 0)
(1.09696 0.0194436 7.16213e-21)
(-0.210377 -0.0175333 2.19004e-19)
(1.06323 -0.0396598 6.24854e-21)
(1.25381 -0.473152 7.82228e-20)
(1.08434 0.0270932 -1.96116e-22)
(0.317382 -0.013744 0)
(1.07474 -0.0463904 1.60918e-22)
(1.08533 0.0372047 -2.5658e-20)
(0.917541 -0.67335 0)
(1.17013 0.0502774 3.86538e-21)
(1.12355 -0.0126642 -1.65978e-20)
(0.312759 0.00342703 3.6139e-23)
(0.00206242 0.00788265 1.16838e-20)
(1.2486 -0.30788 0)
(0.997986 -0.023558 -6.00513e-21)
(1.21477 -0.0808448 0)
(1.10382 -0.0336606 4.61397e-20)
(1.08354 0.0401394 0)
(1.02605 -0.0175789 2.84797e-21)
(-0.23463 -0.0062771 -4.96698e-22)
(0.622448 0.0767809 4.76784e-20)
(1.25634 -0.0526999 -1.08002e-20)
(1.0694 -0.0402271 -4.07468e-21)
(1.16207 0.0297547 -9.0969e-20)
(1.09399 0.0575698 -5.09181e-20)
(-0.236301 -0.0128074 0)
(1.02383 -0.00349253 0)
(-0.281745 -0.00554049 0)
(1.24835 -0.151375 1.20916e-20)
(0.322469 -0.193655 2.64416e-20)
(1.04649 -0.131328 9.77177e-21)
(1.18084 0.0679332 -9.64372e-20)
(0.987029 -0.015499 1.08697e-20)
(1.0012 -0.000342541 0)
(0.168664 0.00455649 -4.75694e-20)
(1.09541 0.0595325 0)
(0.990248 -0.0070076 0)
(1.06835 -0.0255437 0)
(1.09849 0.0195902 -7.7967e-21)
(1.01219 -0.00850515 9.46016e-22)
(0.697354 0.0790562 0)
(1.14036 -0.00305031 1.31615e-20)
(1.12687 0.0305399 -1.42947e-20)
(1.07279 -0.00206567 -1.94208e-20)
(1.04429 -0.0376479 -1.20108e-20)
(0.971816 -0.00481611 -4.24908e-20)
(1.31846 -0.105279 4.50857e-20)
(1.00916 -0.0304565 -9.2362e-22)
(0.972904 -0.0038338 4.46078e-20)
(0.87514 0.0481391 -2.79663e-20)
(0.700869 0.0771061 0)
(1.02946 -0.0883344 0)
(1.0919 0.0498953 0)
(0.99565 -0.00126588 1.03406e-21)
(1.00143 -0.00594724 7.2431e-21)
(1.06542 -0.0405441 0)
(1.1542 0.03566 0)
(1.0815 0.028566 -1.44656e-20)
(1.01167 -0.0253229 -2.15047e-21)
(1.0532 -0.0306478 1.96717e-21)
(1.10905 -0.341717 0)
(1.06079 -0.0183848 0)
(0.362184 -0.0241305 -7.1278e-20)
(1.00125 -0.00731048 -5.34697e-21)
(1.07273 0.00838003 -9.9427e-21)
(0.509853 0.038018 1.19603e-20)
(0.936246 -0.155759 -4.6713e-20)
(1.01865 -0.000737282 -1.12065e-21)
(1.0003 -0.00622069 4.20658e-21)
(1.07244 -0.00296916 2.39745e-20)
(1.04674 -0.010567 1.11955e-20)
(1.23262 -0.360067 -1.1434e-19)
(0.795494 0.0474779 -1.07241e-20)
(1.10077 -0.0129579 0)
(0.323794 -1.12012 0)
(1.06702 -0.039194 0)
(0.99996 -0.00987947 5.81615e-21)
(0.284186 0.0492613 2.29329e-20)
(1.08786 0.050125 1.83598e-20)
(0.876317 -0.118294 4.28782e-20)
(0.994808 -0.028757 0)
(0.142996 0.0346903 5.48837e-20)
(0.856783 -0.0890515 0)
(1.18626 -0.637154 -1.32208e-19)
(0.988279 -0.0257076 7.42343e-21)
(1.09618 -0.0587728 -1.78705e-20)
(1.21895 -0.0913914 -8.24661e-21)
(1.08484 0.015346 -3.33247e-20)
(0.188595 0.043431 -2.27022e-20)
(1.09219 0.0571471 4.71836e-20)
(1.30425 -0.0631011 0)
(0.974757 -0.067606 -8.5691e-21)
(1.20806 -0.0232104 -3.80248e-20)
(0.999826 -0.0247758 4.8961e-21)
(0.440948 0.0274042 -4.17082e-20)
(1.08477 0.0264765 5.29552e-21)
(1.11351 0.0467053 2.25374e-20)
(1.10229 -0.0318482 -3.72921e-20)
(1.02011 -0.0740949 -1.6682e-22)
(0.942602 -0.153513 -4.52231e-20)
(1.1375 -0.00711745 5.99379e-20)
(1.00174 -0.000517555 0)
(-0.267039 -0.00740671 1.21878e-19)
(0.254092 0.0454741 -2.49838e-20)
(0.40476 -0.0294372 -5.91394e-20)
(-0.177973 -0.00718022 -1.93753e-19)
(0.815538 0.0484331 9.36537e-21)
(-0.227545 9.84162e-05 3.87968e-20)
(1.17574 0.0478996 1.1674e-21)
(0.911421 -0.0752037 1.03373e-21)
(0.999646 -0.00257293 0)
(1.2401 -0.478355 9.23612e-20)
(0.991003 -0.00575615 2.94228e-21)
(1.01156 -0.0232732 0)
(0.905252 -0.0917134 0)
(0.019671 0.0257606 2.42021e-20)
(1.06612 -0.0176469 0)
(0.969558 -0.037033 1.2959e-20)
(1.06988 -0.274782 5.39259e-20)
(1.13125 -0.0334984 0)
(0.989111 -0.00108137 1.46492e-20)
(0.720691 0.0189096 -8.75622e-20)
(1.00752 -0.0223892 -3.43091e-21)
(0.290689 0.0550885 0)
(1.22331 -0.344628 2.47868e-21)
(1.00468 -0.0177827 -4.1e-21)
(1.06127 -0.00936853 0)
(1.25253 -0.12575 -6.62526e-21)
(1.16067 0.0775339 1.82135e-20)
(1.0212 -0.0124598 -3.13366e-21)
(1.02002 -0.0983186 0)
(1.09123 -0.404997 -9.92129e-20)
(1.03093 -0.00352023 0)
(-0.0519312 0.00106381 -2.33416e-19)
(1.19151 0.0446764 -7.36389e-20)
(1.13425 0.0428534 0)
(0.973364 -0.065872 1.10416e-20)
(0.893605 0.0489058 1.9213e-20)
(-0.063122 0.0100177 7.84516e-20)
(1.03159 -0.00373886 -5.01466e-21)
(1.22615 -0.00187599 0)
(1.01631 -0.0385814 0)
(1.00795 -0.0229375 1.60961e-21)
(0.944176 0.0476872 -3.57097e-20)
(0.172619 0.0468317 0)
(1.11518 -0.0325787 1.23989e-20)
(1.08049 0.0284467 1.9395e-20)
(0.990396 -0.0044715 -8.43025e-21)
(1.08883 0.0325704 3.44016e-21)
(0.275347 0.0542825 -1.78781e-20)
(-0.0219808 0.0127999 -1.78229e-19)
(1.03456 -0.00685208 1.0323e-20)
(-0.279807 -0.00258315 -2.34041e-19)
(1.01132 -0.0247022 2.49112e-21)
(1.01751 -0.039338 -1.04093e-22)
(1.12429 -0.0107694 0)
(1.06957 0.0124979 0)
(1.02408 -0.00322055 -2.45114e-21)
(1.01554 -0.0718888 5.26788e-22)
(-0.0365963 0.00116037 -1.36835e-19)
(1.23365 -0.161034 -1.56385e-21)
(-0.0679441 0.000687722 1.84609e-19)
(1.06413 -0.0180661 -2.89945e-21)
(0.992534 -0.0122698 0)
(0.432219 0.049835 -7.5445e-21)
(0.999411 -0.00357757 2.37969e-21)
(1.21544 -0.0708749 0)
(1.07616 0.00333094 -1.74644e-20)
(1.08105 0.0146736 -3.7743e-21)
(1.10085 -0.0184937 -3.76775e-20)
(0.608378 0.0433321 1.23244e-20)
(-0.108733 0.00772072 5.18436e-20)
(1.07829 -0.0315898 2.18865e-20)
(-0.28235 -0.00641335 -2.47293e-20)
(1.05738 -0.00212847 1.4326e-20)
(1.14779 -0.0181261 0)
(0.497376 0.0333892 -6.25873e-21)
(0.204661 0.0116368 3.83067e-20)
(1.01015 -0.039015 0)
(0.999099 -0.0246563 2.13002e-22)
(0.817018 -0.15302 -2.24523e-20)
(-0.057414 0.00168432 1.38871e-19)
(1.0916 0.0482544 3.27664e-20)
(1.0879 0.0323155 0)
(1.08575 -0.562877 -1.42205e-19)
(1.06952 0.0131598 0)
(1.08943 0.00429459 2.06742e-20)
(0.0719697 -0.0556138 1.30823e-19)
(0.668243 0.0118546 0)
(1.08279 -0.331924 0)
(0.274558 0.05277 6.1319e-21)
(1.1028 0.0532256 -3.89426e-20)
(0.540159 0.0320542 -1.03464e-20)
(1.03955 -0.0374051 -5.00453e-21)
(1.09077 0.0495321 -4.40557e-20)
(1.22664 0.0632215 4.90518e-20)
(0.999664 -0.00847191 0)
(-0.308342 -0.00259091 7.01009e-22)
(0.470592 0.0452197 8.21034e-20)
(1.02937 -0.120169 1.8282e-21)
(1.10424 0.0143615 6.73389e-21)
(1.00103 -0.0341156 6.23201e-21)
(0.47655 -0.834942 0)
(1.13848 -0.181576 0)
(0.623666 -0.202364 1.37922e-19)
(1.00847 -0.0309452 2.84044e-21)
(1.00072 -0.000471422 -5.5203e-22)
(0.909665 -0.0430914 -1.44856e-20)
(1.13007 -0.0361282 1.04469e-20)
(1.00131 -0.00704617 2.74345e-21)
(-0.0116976 0.0229318 -1.40542e-20)
(1.00084 -0.000560231 -5.7043e-22)
(1.10417 0.053008 3.8596e-20)
(0.968216 -0.0642313 1.59466e-20)
(1.08435 0.0403704 8.00404e-21)
(0.989812 -0.0262423 -1.14869e-20)
(0.988383 -0.00118749 1.2492e-21)
(1.08871 -0.15618 0)
(-0.278216 -0.0045127 2.30442e-22)
(1.12529 -0.0174125 -3.38182e-20)
(-0.0593914 0.0158709 0)
(1.09654 -0.0617378 4.57965e-20)
(1.01235 -0.00949432 0)
(1.0296 -0.0110742 7.71714e-21)
(1.13998 -0.0119144 0)
(1.0521 -0.031574 6.7347e-21)
(1.18159 -0.0284327 0)
(1.07011 -0.0195932 -1.30166e-20)
(0.876298 -0.11063 -4.32077e-20)
(1.08831 0.0493176 0)
(0.999297 -0.00329575 0)
(0.331397 0.00176062 1.70776e-20)
(1.00006 -0.00140472 -6.27406e-22)
(1.08583 0.0443634 -9.89664e-21)
(-0.265512 -0.00607421 0)
(0.473778 0.0409072 -9.287e-21)
(0.881663 -0.023327 -7.61469e-20)
(0.8351 -0.283131 -1.38882e-19)
(1.05889 -0.27419 0)
(1.21458 -0.235451 -8.52425e-20)
(0.438711 0.0470781 -9.53018e-20)
(1.03684 -0.00794208 -5.74749e-21)
(0.628529 0.0164439 1.92794e-19)
(0.940177 -0.115321 -1.87263e-20)
(1.09806 -0.0255416 2.98456e-20)
(-0.165877 -0.00895528 1.07538e-22)
(1.26599 0.0025398 0)
(1.02725 -0.00909352 -4.00116e-21)
(1.17963 -0.0308058 2.20649e-20)
(1.04337 -0.0107594 2.5152e-21)
(0.506069 0.0288244 1.04516e-20)
(-0.252581 -0.000356266 4.30775e-20)
(1.02248 -0.0408483 -2.27846e-21)
(0.691653 -0.142508 0)
(0.690831 0.0790946 -2.40578e-20)
(0.999983 -0.00116403 5.9567e-21)
(0.999975 -0.00155165 3.51707e-21)
(1.08546 0.0385127 -3.90956e-20)
(0.312865 -0.000418747 -3.19873e-20)
(0.970096 0.0507702 -2.56077e-20)
(0.973159 -0.0140572 1.13843e-20)
(1.16734 0.0234371 -9.2583e-20)
(1.05912 -0.0183247 -8.74155e-21)
(0.987249 -0.00216664 8.24339e-21)
(1.08951 0.0491103 0)
(1.16649 0.0262107 1.02829e-19)
(1.20952 -0.171537 -3.4479e-20)
(1.02256 -0.00293143 1.83302e-21)
(1.09454 0.0440926 -7.57053e-21)
(0.904668 -0.202287 0)
(1.0839 0.0360016 1.42099e-20)
(0.956783 -0.0160707 -3.57378e-20)
(1.00567 -0.0652549 -1.63958e-21)
(1.13109 -0.181511 0)
(0.913818 -0.0442479 -1.29006e-20)
(1.0932 0.045119 1.26362e-20)
(1.11449 0.00674627 2.72322e-20)
(1.11734 0.00392801 6.5611e-20)
(1.07134 -0.319622 0)
(1.1698 -0.641518 2.98082e-20)
(1.19769 0.0406898 8.62979e-20)
(0.733079 0.0665597 -7.44515e-21)
(1.11792 -0.105814 -5.63912e-22)
(1.09192 0.0462591 -1.26715e-21)
(0.148375 0.0166774 2.04776e-20)
(1.01958 -0.172017 0)
(0.91375 0.0470231 4.11936e-20)
(1.13286 0.0447248 5.43051e-21)
(1.03047 -0.0204064 5.04825e-21)
(1.08842 0.00330737 -1.83665e-20)
(1.19362 0.0366712 -3.71631e-20)
(1.05363 -0.0848397 1.4542e-20)
(1.00439 -0.0165802 -2.24729e-22)
(1.00491 -0.0157205 -3.11427e-21)
(1.08683 0.0438158 -2.45968e-21)
(0.261681 0.00157679 -3.55467e-20)
(1.07404 0.00824697 2.70459e-21)
(0.105466 0.0405461 4.73531e-20)
(1.01216 -0.00984997 -7.86811e-22)
(0.939775 0.0508258 0)
(0.997715 -0.363584 0)
(-0.212245 0.00257373 0)
(1.18024 -0.0359924 -4.58784e-20)
(1.0769 -0.0457963 4.27084e-21)
(1.06757 -0.0215997 0)
(-0.199687 0.00534331 0)
(1.21138 -0.16631 8.0762e-20)
(1.02004 -0.165258 -4.60199e-21)
(1.09317 0.0591165 1.26306e-20)
(1.04308 -0.0356632 -1.03801e-20)
(1.25812 -0.433497 0)
(1.08652 0.0442118 1.14796e-20)
(1.10563 0.0537998 -2.04639e-20)
(1.10135 -0.043107 -9.62029e-21)
(1.26548 -0.140789 0)
(0.987747 -0.0159423 0)
(1.00007 -0.00164263 -5.1827e-21)
(0.940417 -0.0173467 1.08472e-20)
(0.986589 -0.0029181 -1.00146e-20)
(0.480093 0.0328047 0)
(1.00381 -0.000744997 0)
(1.08753 0.0488399 8.42891e-21)
(0.398366 0.0478966 7.65772e-21)
(1.18376 -0.037535 -1.29824e-20)
(-0.00516377 0.0156346 0)
(-0.148095 0.00654669 0)
(1.10636 0.0546609 0)
(1.22293 -0.231392 7.64613e-20)
(0.884472 -0.030746 0)
(0.998594 0.000171387 1.49306e-20)
(0.982395 -0.0140895 0)
(1.01983 -0.0064848 -3.17017e-21)
(1.02889 -0.0111231 -9.27387e-21)
(1.00099 -0.00052101 0)
(1.14578 -0.0119878 -2.76682e-20)
(1.19945 -0.00928513 6.08559e-20)
(0.901389 -0.213706 0)
(1.17508 0.0781495 8.179e-22)
(1.02129 -0.061667 0)
(0.309693 0.0336331 1.70381e-20)
(0.999979 -0.000146495 -1.84955e-21)
(-0.152154 -0.023084 5.94784e-20)
(1.11358 -0.0887834 8.9747e-21)
(0.999934 -0.000284483 -2.12858e-21)
(0.996982 -0.000224779 0)
(0.457895 0.0419382 0)
(1.07865 -0.039362 -1.54626e-20)
(0.98746 0.055344 -7.35372e-23)
(0.488724 0.0460887 0)
(1.10118 0.0139912 0)
(1.12248 0.0197236 0)
(1.03053 -0.00272297 8.43796e-21)
(0.356785 0.0594507 3.82077e-20)
(0.983348 -0.0783567 1.42598e-20)
(1.06714 -0.0188396 -1.7527e-21)
(1.09005 0.0491518 0)
(0.998624 -0.000322042 5.72035e-21)
(0.972812 -0.0400544 -1.93642e-20)
(1.03424 -0.0121653 0)
(1.08654 0.0253798 -3.06266e-21)
(0.240929 0.00346247 -3.07679e-20)
(1.08798 -0.0582497 0)
(1.1022 -0.0380862 -1.99347e-20)
(1.25139 -0.158365 0)
(-0.054998 0.0111411 1.52359e-19)
(0.885843 -0.0529132 1.27911e-21)
(0.985111 -0.101524 -6.97013e-21)
(0.526559 0.0333246 -9.48393e-21)
(1.01943 -0.00628432 -3.01346e-21)
(0.51538 0.0323369 1.7911e-20)
(1.00038 -0.00118297 3.0149e-21)
(1.06132 -0.0169258 -1.99771e-20)
(1.2605 -0.0154017 -1.66765e-20)
(1.10008 0.0371807 4.1515e-20)
(1.10831 0.0468538 0)
(1.18311 -0.0947209 2.69909e-20)
(1.12597 -0.0151159 5.65362e-20)
(0.999509 -0.000761542 -5.38163e-21)
(0.999989 -0.000154137 7.80623e-21)
(1.1514 -0.0171618 0)
(1.04105 -0.0373308 1.04428e-20)
(0.999631 -0.000625304 -9.62016e-21)
(1.07292 0.0117697 0)
(1.23969 -0.19574 1.04983e-19)
(1.00449 -0.00542144 -2.36121e-21)
(1.20281 -0.249285 -1.08298e-20)
(1.27396 -0.46025 -6.02437e-20)
(1.02693 0.0524005 0)
(1.18154 -0.0902198 -5.13027e-20)
(-0.0332371 -0.0193095 8.63093e-20)
(0.838077 -0.0865996 -7.0266e-21)
(0.998451 -0.000109707 -3.14478e-21)
(1.21367 -0.105748 -1.60936e-20)
(1.01161 -0.0102597 1.50341e-24)
(1.08083 -0.0257808 2.40755e-20)
(0.778136 0.0687203 0)
(0.542312 0.0288736 2.70815e-20)
(0.618638 0.0169199 -2.68368e-20)
(0.565447 0.0367856 -2.7618e-20)
(1.02612 -0.0412771 -8.47955e-22)
(1.02239 -0.0400432 7.83995e-23)
(0.976195 -0.272326 0)
(1.00222 -0.0626277 9.22562e-21)
(1.02118 -0.0187583 3.42245e-21)
(0.603697 -0.304188 8.75267e-20)
(1.11404 0.0567351 3.382e-22)
(0.228428 0.00832352 -1.52258e-21)
(1.08566 0.044766 0)
(1.10106 0.0376273 -4.61936e-20)
(0.985155 -0.00473901 1.99774e-20)
(1.01963 -0.0126054 -2.55271e-22)
(1.3084 -0.321441 1.00331e-19)
(1.12888 0.0295342 0)
(1.06323 -0.0168 -3.02643e-21)
(0.999803 -8.11106e-05 0)
(1.1058 0.0469319 -1.92041e-20)
(1.21765 -0.0374896 -7.88058e-20)
(0.117389 0.0416489 -7.64999e-20)
(0.972137 -0.0186266 1.94318e-20)
(1.00087 -0.00321035 0)
(0.222561 0.00153909 2.40194e-20)
(0.957928 -0.0147349 0)
(1.10158 -0.0229317 0)
(1.01183 -0.00803497 -1.80065e-21)
(0.0399648 0.0285463 -9.61018e-20)
(1.00942 -0.000465075 0)
(-0.256309 -0.00898497 8.81254e-20)
(0.994718 -0.0048225 1.19184e-20)
(1.19236 -0.188236 -7.99652e-21)
(1.10596 -0.00347624 2.76377e-22)
(0.952926 -0.27622 -4.64038e-21)
(1.10317 -0.0414199 1.72303e-20)
(0.992369 -0.0240569 8.98567e-21)
(1.06809 -0.028198 0)
(1.00318 -0.00385988 0)
(1.08682 0.0487193 9.21537e-21)
(0.960826 -0.0238472 -1.48345e-20)
(0.353279 0.0085311 -1.62988e-20)
(1.04515 -0.0348837 3.57245e-21)
(1.03726 0.0811831 6.85931e-21)
(0.326063 0.0505593 0)
(1.09731 -0.0475395 9.68403e-21)
(1.00377 -0.0027797 9.81104e-22)
(-0.183357 -0.0221733 0)
(0.79573 0.048519 -2.188e-20)
(1.08053 -0.0314819 -4.05733e-20)
(1.09883 0.0373267 5.69515e-20)
(0.982448 -0.0131491 -3.35266e-21)
(0.288842 0.0024467 1.29677e-21)
(1.03131 -0.0210648 -5.35762e-21)
(1.19607 0.0335506 0)
(0.998989 -0.00923036 0)
(1.00345 -0.00403432 1.188e-21)
(1.02266 0.057498 0)
(1.10153 -0.0167996 4.47226e-20)
(1.00035 -0.00668775 0)
(1.07429 0.0187246 3.37496e-20)
(0.180907 0.0468971 -6.39095e-20)
(0.727418 -0.785128 1.43523e-20)
(0.640993 0.078034 2.5559e-20)
(1.01679 -0.0155741 -2.09629e-21)
(0.166278 0.0196714 -2.31427e-20)
(0.997335 -0.00792944 -3.68695e-21)
(1.00431 -0.00511145 1.83792e-21)
(0.973391 -0.0214646 -2.95573e-20)
(1.01954 -0.000234027 2.02489e-23)
(0.999871 -0.00208487 0)
(0.583927 0.0758084 -1.45992e-20)
(0.750287 0.0728358 -1.42088e-20)
(1.04369 -0.02072 -5.53259e-21)
(1.00087 -0.000768817 2.9739e-21)
(1.11635 -0.029818 0)
(1.01489 -0.0222565 2.6881e-23)
(-0.150805 -0.0267334 -9.76357e-20)
(1.21767 -0.102051 9.10828e-21)
(0.129508 0.0123478 -1.2951e-20)
(0.0155447 0.017578 -5.84558e-20)
(1.06768 -0.0292391 -2.80156e-20)
(1.09373 0.0450324 -4.08318e-20)
(0.999666 -0.00900194 0)
(1.10805 -0.000148461 -1.24979e-20)
(0.992327 -0.34612 0)
(1.03618 -0.00733658 1.04988e-20)
(1.00033 -0.00116614 -2.86737e-21)
(1.28474 -0.29426 0)
(-0.241923 0.000254434 -4.6872e-20)
(1.12048 0.0197629 1.16961e-20)
(-0.325723 -0.00914226 5.37907e-22)
(1.10546 0.0265129 5.01104e-20)
(0.995748 -0.0021238 -1.35673e-20)
(1.12014 -0.041056 -3.27731e-20)
(1.09822 0.0378017 -4.8699e-20)
(-0.293339 -0.00359437 2.01024e-19)
(1.09475 -0.00759377 -1.37405e-20)
(1.1005 0.0526565 -2.53499e-20)
(1.13108 0.0299218 -1.71478e-20)
(1.0002 -0.0022367 -1.58762e-21)
(0.40353 -0.129845 5.67414e-20)
(0.29801 -0.0931902 -3.7709e-20)
(0.27166 0.00730146 2.61539e-21)
(1.27038 0.00338863 0)
(0.95456 0.0468773 1.05926e-20)
(0.977643 -0.0685027 3.93695e-21)
(0.728009 -0.3473 -2.64764e-20)
(0.972337 -0.00207751 -9.65636e-21)
(1.12909 0.0742577 0)
(1.05262 -0.0816153 0)
(1.00766 -0.0014903 2.43729e-22)
(0.592046 0.0767268 -3.68399e-21)
(1.01766 -0.0607352 2.66211e-22)
(1.00369 -0.00255087 0)
(1.01139 -0.0390888 0)
(1.01631 -0.0590275 -3.30772e-22)
(0.00743176 0.0256943 1.07645e-19)
(1.18734 0.0407321 -7.06482e-20)
(1.01134 -0.0143039 2.34874e-23)
(1.12195 -0.0384523 0)
(0.0918363 0.00852596 -4.99778e-20)
(1.035 -0.056045 -4.65301e-21)
(-0.339932 -0.00702344 -7.58142e-20)
(0.956825 -0.0404425 9.50037e-21)
(1.10517 0.0344891 0)
(0.132042 0.044353 0)
(1.00113 -0.00647284 -2.9544e-21)
(1.08893 0.0484207 0)
(1.06217 -0.0963009 6.46137e-21)
(1.10024 -0.0484925 1.03917e-20)
(0.684018 -0.812201 -4.67121e-22)
(1.02001 -0.0601505 1.58651e-22)
(1.25138 -0.0735248 -1.19141e-19)
(1.08428 0.0370235 2.54616e-20)
(0.226012 0.0524216 -3.04709e-20)
(1.045 -0.00552062 2.61365e-22)
(0.313776 0.00626259 1.80404e-20)
(1.09449 -0.027852 4.29923e-20)
(0.0817293 0.019913 7.94931e-21)
(-0.280831 -0.00157299 0)
(0.290702 0.00304923 2.50431e-20)
(1.09902 0.0161978 -8.84593e-22)
(0.989472 -0.0223793 -3.09832e-22)
(1.02547 -0.0423955 1.8542e-21)
(0.999964 -0.00111992 5.79645e-21)
(1.07498 0.0279696 0)
(0.996938 -0.00205599 -7.51801e-21)
(0.201259 0.0455913 5.33439e-20)
(1.02595 -0.112109 -2.96185e-21)
(0.924357 -0.0836698 0)
(0.888795 -0.0495777 1.8198e-20)
(0.979711 -0.0671767 0)
(1.01641 -0.0150242 7.76238e-22)
(1.06393 0.0143087 -8.74103e-21)
(1.05931 -0.0826304 -2.10205e-21)