/*--------------------------------*- C++ -*----------------------------------*\
| =========                 |                                                 |
| \\      /  F ield         | OpenFOAM: The Open Source CFD Toolbox           |
|  \\    /   O peration     | Version:  v2012                                 |
|   \\  /    A nd           | Website:  www.openfoam.com                      |
|    \\/     M anipulation  |                                                 |
\*---------------------------------------------------------------------------*/
FoamFile
{
    version     2.0;
    format      ascii;
    class       volScalarField;
    location    "500";
    object      k;
}
// * * * * * * * * * * * * * * * * * * * * * * * * * * * * * * * * * * * * * //

dimensions      [0 2 -2 0 0 0 0];


internalField   nonuniform List<scalar> 
13851
(
0.000155955
0.0257534
0.000191604
0.000155038
0.000191724
0.00016414
0.000147365
0.000179583
0.000139312
0.000191603
0.003616
0.0297387
0.0177182
0.0186414
0.000144131
0.000170595
0.00015861
0.000164114
0.00267035
0.0001392
0.000154507
0.000191311
0.000146796
0.000150175
0.000148187
0.000180138
0.0001567
0.00202965
0.000155477
0.00015768
0.000223271
0.000159278
0.000190559
0.00549162
0.000150271
0.00021677
0.00217852
0.000141089
0.00019358
0.00517829
0.000146003
0.000132705
0.00664857
0.00341243
0.00340336
0.0107699
0.00387551
0.0028424
0.00015717
0.00188322
0.000188848
0.000201945
0.010528
0.000146061
0.000153851
0.000132842
0.000144051
0.0138599
0.000157129
0.000148181
0.000102769
0.0291305
0.000191921
0.000195093
0.000277495
0.000160047
0.00798236
0.00381788
0.000169541
0.000163707
0.0164871
0.0199476
0.0229926
0.000146962
0.000141426
0.000142051
0.000190264
0.0184147
0.000179827
0.0188399
0.000149893
0.00385165
0.000144361
0.0101534
0.00019721
0.0294419
0.000194539
0.00788491
0.000159272
0.000141329
0.000215508
0.000174877
0.0035154
0.000162796
0.000158864
0.000148813
0.00019227
0.031526
0.00317247
0.000148903
0.0201979
0.000181099
0.000151864
0.000155638
0.000146613
0.000183604
0.000183291
0.000131623
0.0337296
0.000200607
0.00015033
0.000141793
0.000171343
0.000152317
0.000150299
0.0128294
0.0324528
0.00013164
0.000154843
0.000157017
0.00661235
0.000155437
0.0200744
0.0056348
0.00199466
0.000154939
0.00149973
0.00018056
0.000153853
0.000204222
0.000145721
0.00013913
0.0200711
0.000144285
0.013028
0.000140883
0.000131713
0.018341
0.0319856
0.0244668
0.0204449
0.000153718
0.000149746
0.000136365
0.000155086
0.00340316
0.000202649
0.000203807
0.000147129
0.00322741
0.000188586
0.000153776
0.01881
0.000144652
0.000153792
0.000154895
0.000142926
0.000154962
0.000201914
0.000188582
0.000134384
0.000162351
0.0132457
0.000139003
0.000164557
0.000134593
0.000228761
0.000169938
0.000153421
0.0214797
0.0159116
0.000136475
0.000143134
0.0243799
0.00013888
0.0037879
0.000179798
0.000149907
0.00313836
0.000132052
0.000160695
0.0227614
0.000144112
0.000192753
0.00013345
0.000146902
0.000160351
0.000148777
0.000194829
0.000197035
0.00383907
0.0118298
0.000143171
0.000169873
0.0299502
0.000153372
0.000149051
0.00308068
0.00014929
0.00014232
0.000156311
0.0170078
0.000160785
0.000143744
0.000189846
0.00014427
0.0432312
0.000158817
0.0316957
0.000132829
0.0430334
0.000151475
0.00299685
0.00013154
0.000135694
0.0034381
0.000194921
0.0113811
0.000143503
0.0330296
0.00015916
0.000150111
0.0370085
0.000201922
0.0454178
0.000147834
0.000165403
0.000148292
0.015179
0.000131654
0.000179263
0.001113
0.000136401
0.000142547
0.000186358
0.000182419
0.0450449
0.000293905
0.000136252
0.000143881
0.000103033
0.00633051
0.000137834
0.000191296
0.000144288
0.0424959
0.000181682
0.00398824
0.000155208
0.000160688
0.000170838
0.00624341
0.000150399
0.000155383
0.000181139
0.00054859
0.000195632
0.0205157
0.0055989
0.000144449
0.000135812
0.000162125
0.0154175
0.0001394
0.0102401
0.000153348
0.000150226
0.000162077
0.0361013
0.000415796
0.000170589
0.000153813
0.00272413
0.0001784
0.000169855
0.000139258
0.00359084
0.000668845
0.0486197
0.00358191
0.000137784
0.000132343
0.000146269
0.000180164
0.0154747
0.00671663
0.000140668
0.000144172
0.00478276
0.00393395
0.00021422
0.000156398
0.000148317
0.000171914
0.0039516
0.00885622
0.000163501
0.0283401
0.000139509
0.0430742
0.000161793
0.000158427
0.0478014
0.000148941
0.000187775
0.0396495
0.000140392
0.000176671
0.000162999
0.000155822
0.0358375
0.000163822
0.000150155
0.0357269
0.000133222
0.000161132
0.000170416
0.0484474
0.000198304
0.00014354
0.000181578
0.000143762
0.0130454
0.000188671
0.000146424
0.000145852
0.000197907
0.000164522
0.000153461
0.000144174
0.000148784
0.000149969
0.00349349
0.0203878
0.0240763
0.000166215
0.0476021
0.0267423
0.000143744
0.000170562
0.000214543
0.000182564
0.000195935
0.000198374
0.00239479
0.000159499
0.00835057
0.0411722
0.00014438
0.00240618
0.00266403
0.00341121
0.000153428
0.000199461
0.0155529
0.000143527
0.0060291
0.000145783
0.000143813
0.000142131
0.000131705
0.000142013
0.0418792
0.00303183
0.000145477
0.000175563
0.000133936
0.0277497
0.000176672
0.00555458
0.0232285
0.000145754
0.000202155
0.000163259
0.00566793
0.000144785
0.000131754
0.000170875
0.0196818
0.000144952
0.0378734
0.000181907
0.000199339
0.0169369
0.00401697
0.0039969
0.000161117
0.000139634
0.000150524
0.000164768
0.000181235
0.0179522
0.000169819
0.0457332
0.0402883
0.000134048
0.000144561
0.0224429
0.0215859
0.000537461
0.0334863
0.000172444
0.000164155
0.00014896
0.022975
0.000137668
0.000169882
0.000158342
0.000146637
0.000147618
0.000140083
0.00013449
0.000194292
0.000190255
0.0176519
0.000163949
0.000182854
0.000177486
0.00549722
0.000162424
0.0064707
0.000157869
0.00291572
0.000131612
0.000139837
0.000148376
0.000375926
0.00438361
0.000201159
0.000175155
0.0136536
0.00555401
0.00019083
0.000159698
0.000186729
0.000144475
0.00538594
0.000146324
0.0204072
0.00430207
0.000188387
0.0287222
0.000150037
0.00053483
0.00433671
0.0195021
0.000131845
0.00016591
0.000180442
0.00046765
0.000137158
0.000150067
0.000187346
0.000199329
0.000169041
0.0263506
0.000147764
0.000146425
0.0105641
0.000165743
0.00013208
0.0117322
0.000139554
0.000155935
0.000137945
0.000179421
0.0001538
0.000132506
0.000149521
0.0349908
0.000144534
0.000171835
0.000140167
0.000164604
0.00133539
0.000153114
0.00014584
0.00015246
0.000152333
0.00700052
0.000150072
0.000177971
0.000144026
0.000147473
0.0214761
0.0270442
0.000144583
0.000166069
0.000162555
0.00659574
0.0102831
0.000146506
0.00302822
0.000145083
0.000192062
0.000147352
0.0158041
0.000133249
0.0101871
0.000197254
0.000132834
0.00016539
0.0265299
0.00018001
0.00351911
0.00015476
0.00771745
0.0001572
0.000138448
0.000139414
0.000146458
0.0262472
0.000186779
0.000200229
0.00231301
0.00018945
0.000134846
0.0254352
0.00447092
0.00016087
0.000162705
0.00673949
0.00583234
0.041992
0.000152941
0.0161612
0.0104902
0.016048
0.000164981
0.000167412
0.00159376
0.000629594
0.000431283
0.00301049
0.0306337
0.000155464
0.0322003
0.0231074
0.000131838
0.000525518
0.000187249
0.0220391
0.000155687
0.000143048
0.000142585
0.00014468
0.000194319
0.000178504
0.00466477
0.0250924
0.000139826
0.00956178
0.0274878
0.00113814
0.00443853
0.000171337
0.000131576
0.000139564
0.000660091
0.0278161
0.000154037
0.000192751
0.00021435
0.000132717
0.000188206
0.00338346
8.55868e-05
0.000198675
0.0276699
0.0235522
0.000145403
0.000146772
0.0215105
0.0396512
0.000199503
0.000169586
0.000202961
0.000131949
0.000142374
0.0224085
0.000132425
0.000155504
0.000131937
0.000139586
0.0247724
0.000194174
0.000171003
0.000132335
0.0412235
0.00295129
0.000139719
0.000142176
0.000139671
0.000149677
0.0196449
0.00351054
0.00331545
0.0183461
0.00774609
0.000167933
0.017859
0.0287752
0.000160832
0.000170057
0.000131552
0.000167513
0.000171692
0.032911
0.0116218
0.000192342
0.000164728
0.000138739
0.000170536
0.000149805
0.00365032
0.000189155
0.000143884
0.000167221
0.000137149
0.000161627
0.000202182
0.000147793
0.000144186
0.000176563
0.000148006
0.000192196
0.000278441
0.000200388
0.000171251
0.000200287
0.000138567
0.000230476
0.000175292
0.0191362
0.000151164
0.000149233
0.0305367
0.000156096
0.0152844
0.0411087
0.0133812
0.0123148
0.000137629
0.0237218
0.000138675
0.000139567
0.000133215
0.000139657
0.000149422
0.000164569
0.000177412
0.000132086
0.030407
0.000198825
0.0317164
0.000141801
0.000135116
0.000143561
0.000214213
0.031043
0.000181376
0.000162039
0.000139099
0.000148058
0.000145948
0.000143741
9.5275e-05
0.0303297
0.000147689
0.000131984
0.0001466
0.000143612
0.00712289
0.0121383
0.000170976
0.029504
0.00693311
0.000143912
0.000200188
0.0195772
0.000171382
0.0303825
0.000149852
0.000162462
0.00018098
0.000162585
0.00280874
0.000144415
0.00205424
0.000147079
0.000165341
0.0317698
0.000142861
0.000154462
0.000196611
0.000138554
0.000159819
0.0122922
0.0188031
0.000188672
0.00696844
0.00389923
0.000131664
0.000141508
0.0226853
0.000212361
0.000185677
0.0415312
0.000138463
0.000166288
0.000131948
0.00734964
0.00817378
0.000160878
0.000150176
0.00158362
0.000157165
0.000143234
0.00891877
0.000966276
0.0318842
0.000133067
0.000147516
0.018362
0.0067505
0.000206029
0.000148941
0.0353541
0.000144403
0.0023931
0.000206791
0.000189886
0.000159215
0.0117836
0.000166144
0.000152659
0.00178434
0.000148645
0.000160817
0.000154287
0.000138381
0.00970522
0.000168832
0.000198652
0.000169619
0.000913277
0.000138968
0.0129101
0.000153273
0.000165901
0.000135912
0.000143407
0.000145105
0.0389512
0.000142291
0.000132087
0.000606304
0.00014708
0.022586
0.000147593
0.000149422
0.00018774
0.011807
0.0035313
0.000141321
0.000216597
0.0302432
0.000150239
0.039939
0.000164999
0.000138086
0.000185088
0.00747307
0.00036935
0.000161171
0.000140902
0.00013174
0.00486805
0.000191963
0.000190756
0.000162748
0.000183208
0.000150557
0.000149067
0.000192378
0.00378581
0.000194418
0.0145319
0.000147215
0.000192407
0.000191845
0.0483622
0.000160606
0.0312752
0.00125547
0.000147204
0.0111796
0.000243444
0.0299429
0.0169846
0.0357067
0.00444485
0.000176632
0.000138238
0.000164155
0.0150598
0.0102898
0.000145229
0.000147859
0.000187135
0.00340701
0.000132826
0.00963222
0.000138204
0.000145378
0.0104913
0.0182702
0.00383908
0.000139521
0.000143926
0.00810218
0.000100132
0.000198085
0.000154986
0.0265318
0.00026822
0.0310761
0.000182974
0.000175049
0.000150213
0.000147157
0.0202005
0.000179562
0.02042
0.000178342
0.000169402
0.00959487
0.029648
0.0245988
0.000145201
0.000166259
0.00013961
0.000171752
0.00015423
0.029629
0.000166695
0.0378118
0.000132698
0.00018732
0.00014299
0.000177961
0.000168558
0.000165839
0.0301191
0.00017668
0.000181438
0.000150735
0.000187441
0.00503589
0.000218116
0.000155791
0.0162263
0.000138824
0.0165655
0.00316449
0.000148722
0.0436399
0.0199421
0.0243452
0.00452907
0.00017809
0.000145075
0.0304876
0.000167638
0.0122686
0.0321416
0.000141787
0.000152862
0.000415371
0.00283831
0.0284469
0.000147522
0.000141237
0.0236381
0.0316085
0.000198789
0.000160322
0.00015318
0.00318769
0.0122192
0.00019274
0.000132139
0.000177031
0.000138655
0.000158145
0.00359687
0.000149216
0.0205302
0.00405398
0.000145623
0.000150223
0.000145325
0.000154456
0.0178132
0.0255792
0.000165371
0.0324722
0.000142892
0.000165493
0.000144668
0.000138768
0.000148298
0.000145429
0.0242201
0.000144667
0.000181122
0.000145361
0.000161382
0.00379675
0.00593623
0.000154947
0.0206327
0.000191704
0.00308182
0.000169438
0.000169593
0.0178002
0.000161585
0.000179654
0.0295809
0.00952681
0.011927
0.000175818
0.00332795
0.00015069
0.00017534
0.000181541
0.0288605
0.000144634
0.0273682
0.000141288
0.00014203
0.0175273
0.00014833
0.00991553
0.000159751
0.000139541
0.000181929
0.000139634
0.000143963
0.000140894
0.000149576
4.58725e-05
0.000142003
7.32049e-05
0.0125963
0.000187877
0.0212703
0.000146852
0.000153365
0.000187649
0.000144932
0.000139389
0.000190441
0.000149746
0.000141334
0.000150447
0.000148116
0.0226599
0.0312418
0.000208138
0.0335818
0.000307444
0.000142365
0.00849277
0.000164467
0.000141788
0.00375682
0.000387333
0.00112409
0.000141924
0.00370962
0.00309123
0.0174529
0.00013665
0.0180823
0.000167825
0.000156548
0.000142401
0.00013848
0.0396328
0.000209958
0.00831704
0.000142368
0.000143892
0.00101127
0.000148807
0.0103193
0.00371
0.00443247
0.00323513
0.00288648
0.000147826
0.000145322
0.000203031
0.000165711
0.00015578
0.00021509
0.000177095
0.000149934
0.000152909
0.0329712
0.000141582
0.0220749
0.0107083
0.0129438
0.000170959
0.000152583
0.000137114
0.000149474
0.00410259
0.00541406
0.000136645
0.000154981
0.000142114
0.000190254
0.000133543
0.000141674
0.000150312
0.000168992
0.00577075
0.000180979
0.000167415
0.000145493
0.000180739
0.0148878
0.000151121
0.0116001
0.0164114
0.000190642
0.000134875
0.000177384
0.00014304
0.000146864
0.000149073
0.0183627
0.000198266
0.00434827
0.000155873
0.00201372
0.000143439
0.000147226
0.000149021
0.00961686
0.000338138
0.000134054
0.000168604
0.000194646
0.0278161
0.000153016
0.0204164
0.00015198
0.0411325
0.000189077
0.0381421
0.000192711
0.000190566
0.000349598
0.0289406
0.00330679
0.0195312
0.000144362
0.000213089
0.000133405
0.000155981
0.000160186
0.000148391
0.0290444
0.000166069
0.000162787
0.00384179
0.000217663
0.00475901
0.000143642
0.000155645
0.000161725
0.000137784
0.000165379
0.0244022
0.00664511
0.0164919
0.000140709
0.000161649
0.000155918
0.00396641
0.0336167
0.000202256
0.00013704
0.000149372
0.0159955
0.000179178
0.0304877
0.0284819
0.000186018
0.000134709
0.0171725
0.000164904
0.0001779
0.000164076
0.0415136
0.00380813
0.00020112
0.000232053
0.000152171
0.000162768
0.000145344
0.0116525
0.000186831
0.0275876
0.00199668
0.000160001
0.000203671
0.00015334
0.0415032
0.000304853
0.00014408
6.13667e-05
0.0331086
8.61413e-05
0.0305479
0.000146635
0.000145658
0.0182447
0.0168616
0.0142264
0.000155811
0.0001467
0.000145684
0.0229804
0.000202097
0.000149521
0.000644989
0.000193305
0.044418
0.0156924
0.00735412
0.00014448
0.0322537
0.000157899
0.000145665
0.000202069
0.0305166
0.000147485
0.000141276
0.0047767
0.0397951
0.000150161
0.000140602
0.0274926
0.000143537
0.00078745
0.000140709
0.00549822
0.000145715
0.000181503
0.0148566
0.0338607
0.000152585
0.00721385
0.00410065
0.0319583
0.00886916
0.0402146
0.000184047
0.000142737
0.0130379
0.000153296
0.00014376
0.000137684
0.00124895
0.000143671
0.00127481
0.000141493
0.000153211
0.0176133
0.000186925
0.0177033
0.000153977
0.000271375
0.00013929
0.000168213
0.0176986
0.0208857
0.000140511
0.000187436
0.00385008
0.000148748
0.000138676
0.0315598
0.000170237
0.000172515
0.00020021
0.022792
0.000423952
0.0145698
0.0280152
0.000190753
0.00343727
0.00510187
0.00102722
0.000187575
0.000137937
0.000199412
0.000142702
0.000142478
0.0314981
0.0317741
0.000154979
0.0197884
0.000347545
0.0213158
0.000840752
0.000264798
0.000144404
0.00050352
0.000937079
0.000142008
0.000152935
0.0399493
0.0329117
0.0237525
0.0401076
0.000176574
0.0407865
0.0417044
0.000167692
0.000147556
0.000142991
0.00390801
0.00014169
0.000192256
0.000152831
0.000150843
0.000155513
0.0171155
0.046612
0.0206208
0.000150258
0.0187594
0.000159821
0.000167097
0.000141113
0.000143966
0.013157
0.000163067
0.0291588
0.0196918
0.000482081
0.000197568
0.000144569
0.000177322
0.000148672
0.00020212
0.000149572
0.000153642
0.000149815
0.000153487
0.00020764
0.000151016
0.000171666
0.000142161
0.000172314
0.000120257
0.0186206
0.000143425
0.000180192
0.000148778
0.000209462
0.000166856
0.026775
0.00020799
0.000167129
0.000155814
0.000153281
0.00172762
0.000145052
0.00102077
0.00014405
0.000142816
0.00014868
0.0363736
0.000162054
0.000158854
0.000169865
0.000147636
0.000185428
0.0344213
0.00829358
0.00017153
0.000145306
0.000541221
0.000138761
0.000143607
0.000176537
0.0379556
0.000147476
0.000168316
0.000225746
0.0206173
0.000149644
0.000150758
0.0360167
0.000152986
0.00113362
0.000256057
0.0468053
0.00014598
0.00018731
0.000143547
0.0446917
0.000200202
0.000176911
0.000198065
0.0211664
0.000152014
0.0437506
0.0322289
0.000148786
0.0191419
0.000190785
0.000153027
0.0137352
0.000146984
0.000145469
0.000137824
0.000218342
0.000874639
0.000210281
0.000153841
0.000151371
0.000165131
0.00345775
0.00103832
0.0457277
0.0034831
0.00015043
0.000200362
0.000203831
0.0133572
0.000188259
0.0035415
0.000141835
0.000169767
0.000138682
0.000434301
0.00017528
0.000143472
0.0308732
0.000214615
0.000169139
0.000174266
0.00013296
0.00014767
0.000183632
0.000171167
0.000979536
0.000187771
0.000187395
0.000187024
0.000200634
0.0359311
0.000207497
0.0452243
0.000143662
0.000141256
7.86258e-05
0.0232622
0.0124697
0.000184034
0.000152161
0.0178439
0.00377466
0.000143107
0.000160632
0.000139824
0.000175713
0.000188128
0.000265727
0.0113348
0.00104776
0.000153044
0.0301347
0.0154756
0.000144374
0.000214409
0.0300151
0.0121135
0.000156107
0.000188825
0.000131591
0.000158944
0.000142146
0.000160064
0.0459834
0.027137
0.0096495
0.0190363
0.000152629
0.000172069
0.000184927
0.000145457
0.000149018
0.000138516
0.032523
0.000141404
0.0415506
0.000174744
0.000185264
0.000217019
4.75608e-05
0.0198976
0.0226928
0.000175229
0.000134278
0.000155442
0.019274
0.00929509
0.000158292
0.000139578
0.000139084
0.000186871
0.00016708
0.000203453
0.0398503
0.000152386
0.000138045
0.000198534
0.000431293
0.0174993
0.016449
0.000140708
0.000189319
0.000148358
0.0479311
0.0001357
0.0417554
0.000143457
0.000152151
0.000166354
0.000149493
0.000202031
0.000165907
0.0001797
0.0165719
0.0335512
0.000159241
0.000166236
0.000144179
0.0210823
0.0178173
0.000148283
0.000135965
0.00399678
0.000131471
0.0272585
0.000148315
0.000170418
0.00018783
0.00182348
0.000176882
0.000152837
0.000146738
0.000187626
0.0403255
0.000142822
0.000356236
0.0200922
0.0161419
0.000499866
0.000171608
0.0227795
0.00015873
0.000502383
0.000143375
0.00322286
0.00362308
0.0101285
0.0128332
0.0397
0.000149601
0.000210865
0.000141249
0.0139722
0.00368176
0.0388829
0.0156301
0.000162952
0.0361323
0.00409348
0.000173015
0.000153911
0.000147744
0.0293693
0.00016059
0.000187406
0.000155307
0.000149121
0.000138762
0.000148011
0.0316024
0.000107516
0.000168176
0.0169425
0.0115436
0.000146587
0.000143988
0.000138677
0.000161662
0.0405567
0.000102411
0.000160624
0.000170658
0.000333143
0.000190149
0.00017816
0.00823283
0.000167193
0.0445677
0.00016538
0.000164874
0.000143609
0.000154887
0.000188857
0.00335098
0.00288358
0.0323775
0.000188939
0.0372777
0.000155936
0.000157661
0.000147866
0.0109593
0.0246616
0.00685303
0.000480213
0.000155525
0.000145541
0.000142386
0.000144047
0.000138714
0.0104504
0.000165724
0.0113323
0.000169909
0.0299862
0.0211716
0.042684
0.000194282
0.000160015
0.0150173
0.000176903
0.0022655
0.0318493
0.000138334
0.000959986
0.000162457
0.018977
0.00840934
0.000172596
0.000718699
0.00427191
0.000156109
0.000190769
0.000166121
0.0226096
0.00299072
0.000156714
0.000146829
0.00338908
0.00070661
0.000202068
0.00237909
0.000199613
0.000162725
0.000143595
0.0197747
0.036513
0.000188969
0.000166483
0.032341
0.0200722
0.000141475
0.000144715
0.000157239
0.0392229
0.0361897
0.000143829
0.0224489
0.000150637
0.00014334
0.000148768
0.0165807
0.000892725
0.000474198
0.0119468
0.000154373
0.00015356
0.000141586
0.00901874
0.000151989
0.0362845
0.000156977
0.027351
0.000149331
0.000142787
0.000201025
0.00994862
0.00382813
0.000173072
0.0261294
0.000136864
0.00014695
0.000144884
0.0001786
0.000187246
0.000187072
0.000175262
0.0362667
0.000157407
0.000202602
0.00010774
0.0334615
0.000146828
0.0275834
0.0336654
0.000158058
0.00587308
0.000186218
0.0207272
0.000148204
0.000189376
0.000144083
0.00138334
0.0159577
0.00021385
0.0429391
0.000155929
0.000179311
0.000152948
0.0235771
0.000134944
0.000139704
0.00339483
0.000190785
0.0223411
0.0169244
0.000185561
0.000164682
0.000137653
0.0283896
0.000166019
0.000142322
0.000203171
0.000140183
0.000177258
0.000145583
0.0162613
0.000154681
0.00351443
0.00247873
0.000167753
0.00096797
0.000184213
0.0482606
0.000146337
0.0128587
0.0311867
0.000139498
0.000144655
0.000154272
0.000149512
0.000175218
0.000143937
0.00289805
0.000189323
0.00253708
0.00021529
0.000148135
0.000150084
0.000137989
0.0252418
0.000147253
0.000145521
0.000141975
0.000156067
0.0281026
0.0423169
0.000192239
0.000157711
0.000170687
0.00015342
0.000150616
0.000184498
0.00013653
0.000156431
0.0098615
0.0437573
0.00366797
0.000153282
0.0111107
0.000327515
0.000149553
0.00157982
0.0347403
0.000143895
0.000155388
0.000143271
0.0280105
0.0206222
0.00597846
0.00013646
0.000156941
0.000153921
0.000147021
0.000201485
0.000148491
0.000510338
0.0069337
0.0436286
0.000138267
0.000156244
0.000154984
0.0247971
0.000133
0.0184348
0.0116664
0.00234555
0.0104772
0.0237909
0.033166
0.000152119
0.00519899
0.00292985
0.000151876
0.000137442
0.000140554
0.0422674
0.011364
0.0111919
0.000146911
0.0452774
0.000148089
0.000217193
0.000138803
0.000155256
0.00015174
0.000138135
0.0232664
0.000152001
0.0286871
0.0190675
0.0171453
0.000180019
0.000180931
0.0190889
0.0395436
0.000148955
0.00678988
0.000137981
0.000131809
0.000143722
0.000504363
0.000140541
0.0168629
0.000166201
0.000681127
0.000176477
0.0111212
0.0174418
0.000221878
0.000137905
0.000185346
0.000188272
0.0217861
0.000146858
0.000135151
0.000157652
0.0324157
0.000148454
0.00186593
0.0156633
0.000176004
0.000185945
0.000147119
0.0046395
0.000149423
0.0417977
0.000135518
0.00879419
0.000166779
0.00014668
0.0163639
0.0149552
0.000135207
0.000185992
0.000158404
0.0107534
0.000400743
0.000293913
0.000985896
0.000149655
0.000185985
0.0293049
0.000142843
0.000498291
0.00015356
0.000189383
0.000168349
0.0129662
0.0260444
0.000147067
0.0276895
0.000152315
0.000178135
0.0327211
0.0152604
0.000174585
0.0288545
0.000180831
0.000146945
0.00176181
0.000199592
0.000166624
0.000151883
0.0297158
0.000135485
0.0163875
0.000773569
0.000199621
0.000143509
0.000166137
0.0275411
0.000178547
0.0305517
0.000150814
0.000156436
0.000199092
0.029109
0.000159954
0.0407202
0.00559149
0.017479
0.000148926
0.0276305
0.0121999
0.0259641
0.000144142
0.000151139
0.000146417
0.0423361
0.000183347
0.00466283
0.00413617
0.000149931
0.000137572
0.00014396
0.0248451
0.0201764
0.0203448
0.0176098
0.00014133
0.0272812
0.0378754
0.000200098
0.01142
0.0290029
0.000173441
0.0151941
0.000154971
0.000159376
0.0257345
0.0214087
0.000152389
0.0199004
0.000149731
0.0001449
0.0438376
0.026129
0.0427839
0.0148213
0.000168496
0.000149843
0.000159341
0.0384053
0.0141004
0.000142776
0.000178198
0.00594627
0.000145012
0.000147617
0.0312869
0.0328186
0.000154749
0.000144401
0.000151569
0.000153405
0.000279247
0.000149467
0.000144407
0.000160868
0.000237501
0.0376648
0.00174529
0.0299313
0.00014732
0.000159071
0.0322869
0.0390341
0.000165181
0.000390765
0.000143384
0.000172091
0.000152905
0.000159858
0.000186561
0.000144047
0.0144397
0.000171004
0.000141616
0.000158303
0.0156661
0.0280015
0.0242758
0.000145195
0.000170305
0.040656
0.00637713
0.000156645
0.00014636
0.000144776
0.0031565
0.000147834
0.000148212
0.000163799
0.000144497
0.0326844
0.000404606
0.000149644
0.000157534
0.000135797
0.000148417
0.0236056
0.00643255
0.000188568
0.0121845
0.000196864
0.000150163
0.000143234
0.000146772
0.000146072
0.000149379
0.000163959
0.000193253
0.0325064
0.000152108
0.000198601
0.0243564
0.000783654
0.000144868
0.000139824
0.000155126
0.0419706
0.000145532
0.00506219
0.00131822
0.000181873
0.000146523
0.0157371
0.000136391
0.000642106
0.000137465
0.000136602
0.00014873
0.000141502
0.000176532
0.0201668
0.00063208
0.000174772
0.0143489
0.000282852
0.000372257
0.000167828
0.0263784
0.0130234
0.000199011
0.0352064
0.032563
0.000197625
0.0043984
0.000149612
0.000140628
0.0245484
0.000142455
0.000157698
0.04004
0.000672143
0.0263873
0.000203669
0.00014041
0.000159316
0.000147223
0.000399736
0.000138588
0.00187648
0.0230884
0.0315099
0.00705644
0.000147396
0.000135896
0.000188619
0.0184398
0.0329692
0.000201059
0.00599289
0.000140616
0.0108929
0.0295143
0.000166566
0.000156994
0.000147806
0.000136516
0.000155312
0.000147672
0.000146574
0.00015717
0.0314295
0.000190257
0.0285038
0.000834588
0.00573468
0.000216433
0.000143264
0.000142759
0.00014835
0.000138753
0.000149407
0.00778113
0.0274919
0.00544687
0.0450516
0.000154878
0.0184887
0.000208353
0.041059
0.0329461
0.000148018
0.000141432
0.00493392
0.000147562
0.000135356
0.00367035
0.0328255
0.0139164
0.000145507
0.00014737
0.0001543
0.000174485
0.0174643
0.000138176
0.000157402
0.00127911
0.00014203
0.00519658
0.000174143
0.037405
0.000149712
0.000855907
0.0174752
0.000173561
0.0373627
0.000198152
0.0293597
0.000136077
0.000159829
0.000140969
0.000166788
0.0190761
0.000147512
0.0113349
0.000147555
0.000146642
0.000144387
0.0442735
0.000177869
0.000198452
0.00325761
0.000139222
0.000180797
0.0149636
0.000184743
0.000140932
0.000152787
0.000147749
0.000185548
0.000146049
0.000142305
0.0463924
0.0440253
0.0424307
0.000915138
0.00157129
0.018427
0.000187534
0.0465955
0.000203074
0.000135498
0.000145198
0.000131569
0.000149126
0.0394322
0.039123
0.000138245
0.00931183
0.0447361
0.000164553
0.000151741
0.000170497
0.030091
0.029963
0.0316804
0.00261386
0.033053
0.000131644
0.000112937
0.000197745
0.00232868
0.0273636
0.000143975
0.000199801
0.0170715
0.000170707
0.0168992
0.00015019
0.00224783
0.0180001
0.037966
0.000188678
0.000168305
0.0180283
0.000200015
0.0382235
0.0422083
0.0325217
0.000197762
0.0236593
0.000147642
0.000156358
0.000179523
0.0238113
0.00296144
0.0291269
0.000150142
0.000201204
0.000192242
0.000150757
0.0337615
0.000143943
0.000200098
0.0225442
0.000143852
0.0395532
0.0393752
0.0415396
0.0278842
0.00308893
0.00380217
0.000144321
0.0403839
0.000147052
0.000141709
0.00017632
0.00015661
0.0338632
0.000156915
0.000171074
0.000157346
0.000141464
0.0241306
0.000154464
0.000198129
0.00154055
0.000138229
0.0288229
0.000197512
0.000152176
0.0135387
0.00023103
0.000143491
0.00300868
0.00015112
0.0444205
0.000821336
0.000138571
0.000197827
0.000154631
0.0422695
0.0331457
0.00018905
0.00827113
0.00016149
0.000144884
0.0411561
0.000156489
0.00014645
0.0133163
0.000174454
0.000140468
0.000141458
0.000204061
0.000154114
0.0225176
0.000160262
0.000522696
0.0204649
0.000181286
0.000186488
0.000144775
0.043133
0.0181681
0.0247685
0.000144253
0.000137386
0.000189787
0.00016794
0.00403638
0.000146665
0.00592574
0.000145572
0.000247911
0.000148666
0.000576426
0.000175347
0.000197576
0.0292125
0.0182174
0.0339238
0.0317833
0.000131859
0.00525927
0.00714244
0.0220994
0.000143012
0.000101555
0.0179561
0.0124874
0.000197675
0.00159709
0.0147202
0.0448733
0.000177622
0.000109287
0.000138017
0.000179622
0.000175964
0.000143621
0.000187595
0.02155
0.00131399
0.0148655
0.00945595
0.000142631
0.000140767
0.000170932
0.000143761
0.00832385
0.000138448
0.000140694
0.0475797
0.000110746
0.000170732
0.000197425
0.000151459
0.000190233
0.0137707
0.0337409
0.0145145
0.000159171
0.0335153
0.000153071
0.00013845
0.00015449
0.0275542
0.000194403
8.574e-05
6.45515e-05
0.000152062
0.000141484
0.000143826
0.000149655
0.00016127
0.0209174
0.00920705
0.000165139
0.0348154
0.0221818
0.00210103
0.0132255
0.000145222
0.000166112
0.000228709
0.000144629
0.000202988
0.000162168
0.000156824
0.0289038
0.0338279
0.000138459
0.000173922
0.00016629
0.000187337
0.0278827
0.036744
0.0444367
0.000148537
0.000190555
0.044425
0.000190489
0.000197713
0.000653352
0.029569
0.0449194
0.0469096
0.00013801
0.0219775
0.00013796
0.000154852
0.000144639
0.000186257
0.044788
0.0157709
0.00500387
0.0107038
0.000184741
0.000134878
0.000139708
0.000147516
0.000157582
0.000177837
0.046
0.0461217
0.000189162
0.000216883
0.000149216
0.000184459
0.000138666
0.0405264
0.00020728
0.000148117
0.000202321
0.000197103
0.020747
0.0273657
0.000204387
0.00800429
0.000159025
0.0264044
0.00018047
0.0259767
0.00396948
0.000152918
0.000184095
0.000146768
0.0310303
0.0131611
0.000175999
0.0369716
0.00015007
0.0298515
0.000187963
0.000207802
0.000180807
0.000140327
0.000198398
0.000186225
0.000157291
0.000183786
0.000167773
0.000169804
0.0154934
0.000208406
0.000155278
0.000167558
0.000172671
0.000170188
0.000152606
0.0344728
0.000199659
0.00251575
0.00947142
0.00014529
0.0323586
0.000144577
0.000157769
0.000156119
0.0323583
0.000175615
0.0389751
0.0162554
0.00018551
0.000182943
0.00019806
0.0307735
0.00020065
0.0115769
0.000165944
0.000177829
0.00014199
0.0345753
0.0056695
0.000164393
0.000147267
0.000175171
0.000160395
0.000158199
0.000179605
0.00017409
0.000148372
0.000172541
0.0215876
0.0198111
0.000246313
0.000176156
0.000133402
0.0308046
0.000168513
0.000185847
0.000240222
0.000176215
0.0253412
0.000135637
0.000167651
0.000157843
0.000171873
0.000143883
0.0327721
0.00118631
0.0150824
0.000175904
0.0359582
0.000145648
0.000159903
0.0300178
0.000186386
0.000103645
0.00994508
0.000183543
0.000157072
0.000174656
0.000188584
0.000155693
0.00151841
0.0275433
0.00319965
0.000140387
0.000131427
0.00145751
0.00713113
0.000143323
0.000178281
0.000144152
0.000167892
0.023164
0.000166219
0.000165472
0.000140631
0.000140304
0.00696605
0.0274191
0.000147057
0.0155859
0.000101333
0.000135025
0.000170294
0.0344726
0.000200813
0.000196975
0.000144603
0.000162701
0.000196011
0.000147794
0.000143381
0.0446663
0.000165725
0.0329126
0.000191064
0.000160906
0.0438853
0.000200351
0.000214976
0.000140902
0.0034487
0.000165529
0.000161745
0.0236911
0.000175543
0.000148675
0.000190572
0.000157961
0.000156938
0.00013582
0.00911666
0.000145079
0.000200036
0.0116674
0.000197867
0.000141709
0.000735231
0.000166785
0.024301
0.000193421
0.0276548
0.000199559
0.0366371
0.000138873
0.000190266
0.000159466
0.000142321
0.00357312
0.023657
0.00015829
0.000297082
0.00016436
0.000189524
0.0277378
0.000160414
0.00112111
0.00051047
0.0373318
0.0327509
0.000238093
0.00024735
0.000140201
0.000201396
0.000174176
0.00749642
0.0236001
0.0403639
0.0362068
0.0437197
0.000140104
0.000857624
0.000144122
0.000152111
0.00014805
0.0053511
0.000175123
0.000207434
0.000142731
0.00954454
0.000162942
0.0243352
0.000141815
0.000186917
0.000166204
0.000187116
0.000177595
0.000196888
0.000153809
0.000109005
0.00020152
0.00014118
0.0202436
5.35181e-05
0.000188365
0.000155608
0.000166629
0.000146281
0.00014371
0.000185705