/*--------------------------------*- C++ -*----------------------------------*\
| =========                 |                                                 |
| \\      /  F ield         | OpenFOAM: The Open Source CFD Toolbox           |
|  \\    /   O peration     | Version:  v2012                                 |
|   \\  /    A nd           | Website:  www.openfoam.com                      |
|    \\/     M anipulation  |                                                 |
\*---------------------------------------------------------------------------*/
FoamFile
{
    version     2.0;
    format      ascii;
    class       surfaceVectorField;
    location    "1000";
    object      ddtCorrDdt0(Uf);
}
// * * * * * * * * * * * * * * * * * * * * * * * * * * * * * * * * * * * * * //

dimensions      [0 1 -2 0 0 0 0];


internalField   nonuniform List<vector> 
20537
(
(-0.000395759 0.000675275 5.34727e-20)
(-0.000257347 0.00081457 -5.15679e-20)
(-0.000490144 0.000896958 -4.72882e-20)
(-0.0539519 0.140378 -1.69425e-18)
(-0.069255 0.131334 8.63418e-19)
(-0.050059 0.125702 -7.24405e-19)
(0.00693788 -0.00620666 7.82827e-19)
(0.00644809 -0.00710236 4.81269e-19)
(0.00762597 -0.00734586 2.63683e-18)
(2.25151e-05 0.000646137 5.53351e-20)
(-9.33273e-05 0.000770157 -6.04011e-20)
(0.000144658 0.00076152 4.03078e-20)
(0.00348376 0.00246433 2.01115e-18)
(0.00396051 0.00228708 -1.21494e-18)
(0.00357155 0.00198276 -1.00228e-18)
(0.0333561 -0.00819065 -1.18485e-18)
(0.0330529 -0.00203262 2.4233e-19)
(0.0287225 -0.00506792 9.38174e-19)
(9.90785e-05 1.42442e-05 -4.43105e-19)
(0.000101634 1.27987e-05 -1.47466e-18)
(0.000100075 2.07681e-05 8.57706e-19)
(0.00126007 -0.00326952 -4.92981e-19)
(0.00123347 -0.00290157 -3.9042e-20)
(0.00163227 -0.00305128 2.89501e-18)
(-0.000167047 -1.48136e-05 -1.32144e-20)
(-0.000169011 -1.23677e-05 -6.9032e-20)
(-0.000165973 -9.18766e-06 8.50358e-21)
(-0.00975478 -0.0198085 6.08173e-19)
(-0.0112318 -0.0172844 1.21012e-19)
(-0.00803719 -0.0175459 -6.17285e-20)
(-0.0300349 -0.0472426 -3.82654e-19)
(-0.0258681 -0.0603977 -1.21415e-19)
(-0.0237331 -0.0598939 -4.67171e-19)
(0.0362621 -0.122829 -1.42797e-18)
(0.0397048 -0.121073 6.87452e-18)
(0.0326472 -0.127807 1.32635e-18)
(-0.00568514 0.0135611 -3.6043e-18)
(-0.00507172 0.0134319 -4.37031e-18)
(-0.00537312 0.0120405 -5.45848e-18)
(0.0541907 0.129824 -6.62248e-19)
(0.044833 0.130715 2.51625e-19)
(0.0270345 0.146297 -5.6623e-18)
(3.33454e-05 -6.97627e-06 2.04231e-18)
(3.47073e-05 -5.19122e-06 4.03479e-19)
(3.46827e-05 -7.39048e-06 5.35757e-19)
(-0.00194845 0.000439423 -1.27066e-19)
(-0.00190994 0.000106651 1.56406e-18)
(-0.00228904 0.000262536 1.52513e-18)
(1.0578e-05 -0.000289099 -2.81573e-18)
(1.82077e-06 -0.000251754 1.92507e-18)
(3.80986e-05 -0.000269614 1.35588e-18)
(0.00120659 -0.00316399 -6.56111e-20)
(0.00136895 -0.00269705 -6.39133e-20)
(0.00172155 -0.00324007 3.17516e-19)
(-0.00194788 0.0177995 -7.97621e-19)
(-0.000368623 0.0189064 -4.61646e-19)
(-2.80898e-05 0.0165582 -8.85953e-20)
(-0.000164759 -1.68622e-05 1.34156e-20)
(-0.000167617 -2.02936e-05 1.88134e-20)
(0.000139756 0.000545111 3.50509e-20)
(-5.07745e-05 0.000530419 6.1403e-20)
(0.00649585 -0.00503356 1.79466e-18)
(0.00759952 -0.00505116 -6.22638e-19)
(-1.9602e-05 4.97261e-06 -1.38344e-20)
(-1.81311e-05 5.5935e-06 6.83916e-20)
(-2.21602e-05 7.56013e-06 8.23297e-21)
(-0.000132271 2.50289e-07 7.4775e-20)
(-0.000107745 -1.17927e-07 -2.94658e-20)
(-0.00013583 7.84138e-07 1.12305e-19)
(-1.99223e-05 3.72023e-06 -1.38207e-19)
(-1.35215e-05 2.79198e-06 6.72467e-20)
(0.000882941 -0.00350458 -3.56069e-18)
(0.00137268 -0.00375289 -3.59178e-18)
(0.000302083 -0.000128732 -2.26807e-18)
(0.000290365 -0.000116719 -3.73976e-19)
(0.000286353 -0.00013788 -1.04224e-18)
(0.00372606 -0.0189232 9.37422e-18)
(0.0113121 -0.0234948 -2.85237e-17)
(-0.000366747 0.000523365 -1.18281e-20)
(-0.000548938 0.0005513 -9.40106e-21)
(0.000681576 -0.000222973 1.22282e-20)
(0.0007064 -0.000122255 -3.74634e-19)
(0.000782007 -0.000232192 -4.41857e-19)
(0.0327954 -0.0135784 -9.27445e-20)
(0.0389882 -0.0123463 -7.49415e-19)
(-2.40236e-05 -0.000310151 -2.37904e-19)
(2.08737e-05 -0.000329394 -2.32593e-18)
(0.00534142 -0.00702714 -1.54025e-19)
(0.00573825 -0.00833348 -8.93084e-19)
(-0.00547918 0.141427 1.53447e-18)
(-0.0126235 0.167681 -3.25158e-19)
(-0.012719 0.160042 2.57338e-18)
(-0.000130114 -3.44676e-07 5.56124e-20)
(-0.000140803 -8.37447e-07 2.14607e-20)
(-0.00037971 -0.00222764 3.81808e-18)
(-0.000156552 -0.00231013 -1.77196e-18)
(-0.000560611 -0.00254319 -4.43389e-18)
(-0.00095032 -0.00480996 7.51808e-18)
(-0.000620184 -0.0043914 5.49873e-18)
(-4.58028e-05 -0.00440753 -6.09658e-19)
(0.0209731 0.00686829 -5.22634e-18)
(0.0218383 0.00994352 -3.84734e-19)
(0.0181675 0.00779321 5.78127e-18)
(-0.0111707 -0.0218651 1.78092e-19)
(-0.00774639 -0.0220293 5.98125e-19)
(0.00374101 0.109468 7.45147e-19)
(0.0016371 0.0948619 4.62288e-19)
(-4.17413e-05 -0.000102145 1.31197e-19)
(-4.32722e-05 -9.90564e-05 3.89805e-19)
(-4.22386e-05 -0.000107315 -4.99835e-19)
(4.4521e-05 6.40519e-05 1.01594e-20)
(4.21531e-05 6.36962e-05 3.24496e-20)
(4.39075e-05 6.13432e-05 1.02971e-20)
(-0.0124769 -0.037071 -7.85618e-19)
(-0.017601 -0.0340571 -1.63167e-18)
(-0.0144555 -0.0313615 5.77338e-18)
(-0.0157546 -0.0881405 5.68062e-20)
(-0.0131161 -0.0964772 -3.06179e-20)
(-0.0169348 -0.0872091 -1.44958e-19)
(-0.0175307 -0.0720076 -1.28852e-18)
(-0.0139963 -0.0866504 -1.78891e-18)
(-0.0542155 -0.0207839 -4.3932e-18)
(-0.0570689 -0.0205228 -3.57654e-18)
(-0.0614673 -0.01297 -5.86077e-18)
(-0.0073393 -0.111951 -6.45653e-19)
(-0.00844513 -0.107657 -2.27389e-19)
(-0.00530619 -0.104717 5.86933e-19)
(-0.0347992 -0.0174699 7.92089e-19)
(-0.0267549 -0.0302435 1.85928e-18)
(-0.016552 -0.00483961 -4.82201e-19)
(0.000313289 -0.000141372 -1.30818e-19)
(0.000316892 -0.000118062 -5.01677e-18)
(0.0105994 -0.0204557 1.12239e-18)
(0.00889989 -0.017399 1.74338e-18)
(0.0132168 -0.017221 -4.0873e-19)
(0.000437137 0.0012334 6.91463e-18)
(0.000266736 0.00127192 8.6229e-19)
(0.000354119 0.00109821 7.43867e-19)
(-0.00185408 0.00405753 -3.38803e-18)
(-0.0017917 0.00367527 -9.48523e-18)
(-0.00227907 0.00367824 1.85424e-18)
(0.00214865 -0.0709887 4.95549e-18)
(0.00125879 -0.0708776 -5.31259e-18)
(0.00131975 -0.0690315 9.38768e-19)
(3.04663e-05 -5.53318e-06 -4.06041e-18)
(2.98895e-05 -4.74138e-06 -1.79597e-18)
(2.89588e-05 -6.75505e-06 6.21293e-19)
(-4.63455e-05 -8.07196e-06 -1.02865e-18)
(-4.2901e-05 -7.3674e-06 1.55036e-19)
(-4.33783e-05 -1.14715e-05 1.64771e-19)
(4.6903e-05 6.40188e-05 -4.35753e-20)
(4.50897e-05 6.67134e-05 3.09246e-20)
(-0.000118414 6.08807e-06 -4.97438e-20)
(-0.000122309 6.43388e-06 -8.26657e-20)
(-0.000117398 4.75163e-06 5.46622e-20)
(0.0215825 -0.0717034 4.45762e-18)
(0.0213057 -0.0734441 -1.02796e-18)
(0.0285323 -0.0724149 -7.37667e-18)
(0.000584684 -0.000206194 -1.42872e-19)
(0.000641551 -0.00030777 -5.17293e-19)
(0.000112135 -3.02248e-05 6.00447e-19)
(0.000109365 -2.75061e-05 1.93096e-18)
(0.000112403 -2.07157e-05 1.3191e-19)
(0.0244482 0.00809023 -1.89787e-18)
(0.0223846 0.00460309 7.07348e-19)
(0.0328837 0.0797564 -8.77693e-19)
(0.0168352 0.0855415 -1.54967e-19)
(0.014638 0.0964626 6.50319e-18)
(-0.00384787 -0.0214386 1.16759e-18)
(-0.00761632 -0.022511 -1.05595e-18)
(-0.00585253 -0.0185593 7.05486e-19)
(0.00273692 0.00360526 3.8326e-18)
(0.00327375 0.00356241 1.85894e-18)
(0.00302329 0.00405593 9.98481e-18)
(0.0530009 0.0312603 4.28522e-19)
(0.049654 0.0246274 -4.9015e-19)
(0.041505 0.0293312 -1.6695e-18)
(-0.000334203 0.00214744 -4.33082e-19)
(-2.18587e-05 0.00189843 -3.07814e-20)
(0.000107722 0.00239575 -6.14359e-20)
(-0.00163738 -0.00495511 1.43769e-18)
(-0.00131481 -0.00499624 -1.90125e-18)
(-0.00692112 -0.107398 -3.09677e-19)
(-0.00627104 -0.112718 -2.02453e-18)
(0.000833921 -9.93722e-05 1.08452e-19)
(0.000854063 -0.000149167 7.3072e-19)
(0.000802944 -0.000142349 4.55688e-18)
(0.000749548 -0.00306557 -2.69092e-19)
(0.000841371 -0.00372003 2.22059e-19)
(-0.00963751 -0.000804698 -6.78369e-19)
(-0.00981485 -0.000637184 -2.64776e-18)
(-0.00922632 -0.000519542 3.74839e-18)
(-0.00212481 -0.00519937 2.14021e-18)
(-0.00224342 -0.00523612 -1.75252e-18)
(-0.00164737 -0.00531249 -3.55314e-18)
(-0.0368123 0.145045 -1.01621e-18)
(-0.0496021 0.145921 1.01569e-18)
(3.21438e-05 -6.07395e-06 3.39964e-19)
(3.2085e-05 -3.39818e-06 -5.53088e-19)
(-5.48958e-05 -1.10917e-05 2.40414e-19)
(-5.23416e-05 -1.34768e-05 -6.28515e-19)
(-5.53307e-05 -1.36785e-05 2.38042e-19)
(-0.000220591 1.37935e-05 -1.93536e-19)
(-0.00021108 2.72298e-05 -4.9066e-21)
(-0.000206964 1.15208e-05 -8.8188e-20)
(0.00635008 -0.00443983 1.43538e-18)
(0.0058437 -0.0050972 -2.73013e-19)
(-0.00174157 -0.000849087 -2.72572e-18)
(-0.00201592 -0.00114722 4.15254e-18)
(-0.00139447 -0.000975612 1.93452e-18)
(0.00182416 -0.000329521 -5.57755e-18)
(0.00191278 -0.000176444 -7.6953e-19)
(0.00201818 -0.000343208 -6.63345e-18)
(-0.0110796 -0.00064787 -4.15896e-18)
(-0.0111027 -0.000489906 -4.99432e-18)
(0.000136943 -6.85049e-05 1.34677e-18)
(0.000132592 -7.15694e-05 2.02748e-18)
(0.000133502 -6.36201e-05 -3.8125e-19)
(0.00887725 0.07155 -1.09409e-18)
(0.0121017 0.0743831 3.40132e-19)
(0.00868234 0.0837456 -7.02142e-19)
(4.0373e-05 -3.72035e-05 -5.41232e-19)
(4.1996e-05 -3.88039e-05 -4.99794e-19)
(3.83418e-05 -3.5477e-05 1.71681e-19)
(-0.0496906 -0.0318913 -6.98943e-18)
(-0.0490752 -0.0311105 -9.83815e-18)
(-0.0461472 -0.036106 2.73939e-18)
(-0.000864606 -0.020482 2.82075e-19)
(-0.00127249 -0.0242574 -8.02749e-19)
(0.0311243 -0.123103 7.8894e-19)
(0.0356148 -0.117627 -2.95941e-18)
(0.0172008 -0.00970822 -2.29519e-20)
(0.0207117 -0.00876796 -2.08856e-18)
(0.0173531 -0.0064257 -1.23416e-18)
(-0.115909 0.0811233 1.06517e-18)
(-0.121456 0.0901871 1.22067e-18)
(-0.115522 0.07359 1.05647e-18)
(0.000245123 -0.000307567 -9.16928e-19)
(0.000222265 -0.000330186 2.31602e-18)
(0.00025814 -0.00034053 1.18198e-18)
(-0.000457489 -0.000165528 2.36409e-20)
(-0.000381923 -0.000125367 -1.02625e-19)
(-0.00048402 -8.43698e-05 -1.65025e-19)
(-0.000470618 -0.00198756 4.82511e-18)
(-0.000637906 -0.00214336 -5.18844e-18)
(-0.0121078 0.00539186 -6.99815e-19)
(-0.0158336 0.00477437 8.32642e-19)
(-0.0135568 0.00846074 2.73014e-20)
(-0.00496885 -0.0973361 7.38984e-19)
(0.000392903 -0.000423356 -6.96522e-19)
(0.000397221 -0.000462328 -3.93196e-18)
(0.000436816 -0.000428642 -4.99885e-18)
(0.000245469 -0.00027967 -1.78989e-18)
(0.000277489 -0.000286263 1.94222e-18)
(-0.000107171 1.52641e-06 -2.34472e-19)
(-0.000108731 1.9521e-06 1.26966e-19)
(-0.000118586 3.34413e-06 8.09552e-20)
(0.00342745 0.00303811 -3.54075e-18)
(0.00300143 0.0026667 2.37694e-20)
(-0.0174826 0.00984227 3.27183e-18)
(-0.0195211 0.00940484 4.89617e-19)
(-0.0176722 0.00700875 2.58949e-18)
(0.0140318 -0.0229496 -3.71065e-19)
(0.00894194 -0.022993 -2.82218e-20)
(-8.11111e-05 6.2593e-07 -8.05056e-20)
(-0.000105027 1.86405e-06 -1.04407e-19)
(0.0587571 0.0514911 -1.05823e-18)
(0.0918097 0.056728 4.19022e-19)
(0.0691912 0.0640459 -2.70106e-19)
(0.00145415 0.000453806 -2.77604e-18)
(0.00133222 0.000482536 2.42317e-18)
(0.00136857 0.000355337 -3.87718e-18)
(-0.000193174 -0.000261339 -1.88782e-19)
(-0.000203661 -0.000299924 3.70435e-19)
(-0.000235468 -0.000265182 -2.78084e-19)
(0.000301589 6.89717e-05 3.45519e-18)
(0.000311316 7.49955e-05 -3.01287e-18)
(4.45299e-05 2.49017e-06 6.46028e-21)
(5.29769e-05 4.03502e-06 -7.42528e-21)
(4.77522e-05 2.28902e-06 -4.30939e-21)
(0.0149229 -0.0165013 1.31798e-19)
(0.0128672 -0.0198783 -1.56133e-18)
(0.011333 -0.0160921 2.30872e-19)
(0.00109576 0.000706011 2.63823e-18)
(0.00121338 0.00071285 9.8629e-19)
(0.00112248 0.000835807 -1.70272e-18)
(6.36975e-05 3.96218e-05 6.06098e-21)
(6.09928e-05 4.17816e-05 -4.48691e-20)
(6.32033e-05 3.69353e-05 -2.1163e-20)
(-0.00282674 -0.00472388 3.27403e-18)
(-0.00312125 -0.00442405 -5.92664e-18)
(0.0385441 0.000970427 9.15755e-19)
(0.0315059 0.0033653 1.33168e-19)
(-0.000117454 2.12192e-06 2.12704e-20)
(-9.06149e-05 1.27571e-06 -2.87272e-20)
(-0.000115645 2.1821e-06 6.00537e-22)
(-0.000587633 -0.000228857 5.6606e-20)
(-0.000428246 -0.00027638 8.5388e-20)
(-0.00919971 0.00597657 2.27684e-19)
(-0.0106697 0.00344164 8.87037e-19)
(-7.21511e-05 -1.01856e-06 -7.99436e-21)
(-7.24462e-05 4.21748e-07 2.65311e-19)
(-0.000128845 3.22936e-06 -7.52122e-21)
(-0.000117332 1.95374e-06 9.21246e-20)
(0.0111435 0.156809 2.94391e-18)
(0.00177861 0.16113 1.83339e-19)
(-0.0154675 0.00961701 -2.98474e-18)
(-0.0167681 0.0122406 6.22953e-18)
(4.20673e-05 3.70431e-05 3.0883e-20)
(4.07342e-05 3.91216e-05 -2.44166e-22)
(4.40128e-05 3.94066e-05 -5.25773e-21)
(-0.000106393 -4.40098e-06 -1.10375e-19)
(-0.00010819 -3.42589e-06 -1.57436e-19)
(-8.49623e-05 -2.24601e-06 -2.45089e-20)
(-5.46939e-05 -6.70334e-06 -2.48746e-19)
(-5.61301e-05 -3.51415e-06 -5.86192e-19)
(-5.13533e-05 -3.28659e-06 -2.30341e-19)
(-0.0106767 -0.0411573 6.04221e-18)
(-0.00764032 -0.0385694 -2.5646e-18)
(0.000307713 5.21948e-05 3.71612e-18)
(0.000293539 5.81961e-05 -9.22933e-19)
(-0.00602236 0.0153063 5.3077e-18)
(-0.00709635 0.0138984 1.17282e-19)
(0.0343293 0.0911738 1.22636e-18)
(-0.0441883 0.00230168 2.11956e-18)
(-0.0476938 -0.0249706 1.10524e-18)
(-0.00153568 -0.000928543 -1.24658e-20)
(-0.0014407 -0.000484884 3.52784e-20)
(-0.001881 -0.000645688 9.14445e-20)
(-0.0586144 0.0262551 8.95609e-20)
(-0.0426974 0.0304076 -1.02625e-19)
(0.00171342 7.41727e-05 2.07351e-18)
(0.00162199 0.000165528 8.53723e-19)
(0.00178628 0.000193928 6.57488e-19)
(0.00018539 0.000423195 -6.87678e-20)
(0.00030936 0.000495726 -1.19884e-19)
(0.00719089 0.00784849 -8.25108e-19)
(0.00649535 0.00729236 -6.15533e-19)
(0.00644628 0.00848286 3.57425e-19)
(-4.28691e-05 -9.68806e-05 6.14543e-20)
(-4.01441e-05 -0.000102681 -5.32484e-19)
(-0.000129517 -7.65977e-06 2.59326e-20)
(-0.000130021 -8.77884e-06 -1.96907e-20)
(-0.000128511 -8.5816e-06 -5.72891e-20)
(-0.00946517 -0.000870357 -3.25068e-18)
(-0.00965959 -0.00100078 6.52937e-18)
(4.1883e-05 -3.8943e-05 -4.69221e-19)
(3.8707e-05 -3.54493e-05 -2.51497e-20)
(-0.0144157 0.18617 -9.40403e-18)
(-0.000121901 -4.77943e-06 -7.184e-20)
(-0.00012265 -3.55595e-06 1.07499e-19)
(-0.000122919 -3.53124e-06 1.3038e-21)
(4.40641e-05 3.39676e-05 6.68775e-21)
(4.00752e-05 3.37285e-05 1.07515e-20)
(-0.00199319 -0.00519017 1.60268e-18)
(-0.00189903 -0.00516296 -4.24023e-18)
(-0.00161776 -0.00522081 -7.27655e-18)
(-0.0133947 0.0863437 -5.42518e-18)
(-0.0200877 0.101771 -2.55163e-18)
(-0.00757579 0.0848091 -3.15034e-18)
(-0.0356072 0.0343766 -5.6388e-19)
(-0.0521232 0.0221954 7.67732e-19)
(-0.039331 0.0178171 8.04198e-19)
(0.044783 0.0362967 -5.19288e-18)
(0.0302369 0.043717 3.1395e-18)
(-5.01909e-05 -8.26997e-06 -9.73503e-19)
(-4.66016e-05 -5.75089e-06 -9.83064e-20)
(-0.00185469 -0.000148588 -1.05807e-19)
(-0.0020964 -0.000483972 4.82214e-20)
(-0.00227399 8.01966e-06 -1.56942e-19)
(7.51841e-05 0.000127376 2.89604e-20)
(5.50234e-05 0.000129047 5.11622e-20)
(6.92165e-05 0.000148904 5.08091e-20)
(0.000101009 -3.46946e-05 -4.69228e-19)
(8.41964e-05 -3.51619e-05 1.40573e-18)
(9.73195e-05 -5.39632e-05 2.08124e-18)
(-0.00869365 -0.103334 2.37201e-20)
(-0.00590475 -0.0966123 7.27064e-19)
(0.00257081 0.00632516 -2.57891e-19)
(0.00397416 0.00501791 1.85985e-20)
(0.00206278 0.0048704 -1.06925e-19)
(0.00827895 0.00881114 3.66077e-18)
(0.00846701 0.0072303 -6.60499e-19)
(9.55909e-05 1.50275e-05 6.08932e-19)
(9.79699e-05 7.39239e-06 5.22776e-19)
(-0.0204611 -0.0558094 -2.33169e-19)
(-0.0155295 -0.0496462 -7.70399e-19)
(0.000608323 -9.94944e-05 7.62205e-18)
(0.000579797 -0.000133371 5.82926e-18)
(-6.03838e-05 -3.2152e-06 -2.42163e-19)
(-6.35767e-05 -4.55316e-06 -4.7845e-20)
(-5.98739e-05 -6.96537e-06 8.36375e-19)
(0.0545589 0.12078 -1.82193e-18)
(0.0678834 0.11728 -5.8069e-19)
(-0.000114115 5.18931e-06 3.18611e-20)
(-0.000118787 7.97062e-06 -3.79393e-20)
(0.000161409 -0.000141009 -2.74759e-18)
(0.000166655 -0.000141767 -5.82813e-19)
(0.000166643 -0.000133467 -1.88045e-18)
(0.000107258 -9.30937e-06 -8.80912e-19)
(0.000115466 -3.0883e-05 -9.18666e-19)
(-0.000137016 -8.51604e-05 -3.11325e-20)
(-0.000135462 -7.97633e-05 1.97162e-21)
(-0.000139702 -7.98576e-05 1.76412e-20)
(0.00040034 -9.58352e-05 8.05626e-20)
(0.0003559 -9.99154e-05 8.26919e-19)
(0.00037269 -6.01356e-05 1.12913e-18)
(-0.00216078 0.00457339 8.32218e-19)
(-0.00151827 0.00443833 1.43514e-18)
(0.000603037 0.00117614 1.06554e-17)
(0.000554092 0.001378 3.13906e-18)
(0.000105648 8.22949e-05 1.26433e-21)
(0.000101998 7.21797e-05 1.97114e-20)
(0.000114012 7.26989e-05 -3.27724e-21)
(0.000499531 -0.000152165 4.85866e-18)
(0.000515222 -0.000170291 1.18022e-18)
(0.000525648 -0.000135067 2.55941e-18)
(0.0195514 -0.0688595 -1.39447e-17)
(0.015632 -0.0738302 1.09885e-19)
(-0.000129196 -6.76693e-06 -2.63221e-21)
(-0.000130818 -7.47033e-06 4.05016e-20)
(0.0014454 0.00126468 -1.82781e-19)
(0.0010797 0.00128991 -8.34504e-19)
(0.00124342 0.000976154 -4.85775e-19)
(4.33324e-05 7.65021e-05 -1.20131e-19)
(4.3799e-05 8.0751e-05 -2.08584e-20)
(3.71897e-05 7.64734e-05 8.07761e-21)
(0.00104452 0.00765508 -2.93937e-20)
(0.00380256 0.00848155 -2.18787e-19)
(0.000857376 -5.72286e-05 -1.73662e-18)
(0.000810439 -5.94149e-05 4.58135e-19)
(8.86622e-05 0.000366975 -9.90302e-21)
(0.000211343 0.000334499 -4.25643e-20)
(-0.0390631 0.0109004 6.3438e-18)
(-0.0443185 0.00542463 1.47166e-17)
(-0.0347011 0.0058178 2.10049e-17)
(-0.00147114 -0.00057802 2.5496e-18)
(-0.00197943 -0.000744423 1.6856e-18)
(-0.000137573 1.11224e-05 5.49621e-20)
(-0.00013906 1.29118e-05 4.60943e-21)
(-0.000138954 1.14823e-05 -2.37199e-20)
(-0.000138264 -9.0161e-05 2.09753e-20)
(-0.000132841 -8.86247e-05 4.83288e-20)
(-0.0221085 0.0464503 -8.90647e-20)
(-0.0344134 0.0501074 -2.38637e-19)
(-0.000128753 -6.27164e-06 1.25984e-20)
(-0.000127687 -6.12476e-06 -1.63475e-20)
(-0.0302049 -0.0431924 2.0136e-18)
(-0.0370267 -0.0616144 4.64745e-18)
(0.00182132 -5.17502e-05 6.93266e-18)
(0.00165469 -5.48691e-05 7.97046e-18)
(-0.000928374 -0.00136854 -3.7681e-20)
(-0.00066069 -0.00146668 -4.51822e-20)
(-0.000909496 -0.00172405 -1.78927e-19)
(-0.00327901 0.0183355 3.32845e-18)
(-0.00318233 0.0162366 -1.87952e-18)
(6.47938e-05 4.39638e-05 4.66202e-21)
(6.76647e-05 4.15302e-05 1.90367e-20)
(6.50644e-05 4.66171e-05 1.05634e-20)
(-5.1462e-05 -0.00038447 2.34202e-19)
(-6.06649e-05 -0.000334082 2.14494e-18)
(-0.000104633 -0.00036565 -9.13456e-20)
(-0.00216076 -0.00507889 -3.11007e-18)
(4.1341e-05 -3.87149e-05 4.24487e-19)
(3.99124e-05 -3.69985e-05 -7.09236e-19)
(3.8132e-05 -3.56237e-05 -2.76129e-19)
(0.0084946 -0.0052554 -2.64851e-18)
(0.0079574 -0.00427751 -1.32227e-18)
(7.96788e-05 1.04735e-05 3.91179e-20)
(7.94624e-05 8.80365e-06 1.77767e-21)
(8.11955e-05 1.00664e-05 -8.25754e-22)
(-6.40263e-05 4.50237e-06 8.06697e-21)
(-6.48816e-05 4.54059e-06 -3.60737e-21)
(-6.98276e-05 5.31565e-06 4.53115e-20)
(-0.00076273 0.0023584 2.28814e-19)
(-0.000671281 0.00187255 -1.51443e-19)
(-5.52767e-05 -9.09904e-06 -2.48496e-19)
(-5.24944e-05 -9.13717e-06 -9.09928e-20)
(0.004925 0.00304097 -3.26291e-20)
(0.00555194 0.00273243 7.29039e-19)
(0.00556659 0.00351659 2.85013e-18)
(-0.0242037 0.0112572 2.2763e-19)
(-0.0289132 0.0109735 -2.35261e-19)
(-0.0250146 0.00720474 -7.60019e-20)
(-0.00478025 -0.11009 5.09596e-19)
(0.00363658 -0.0720351 1.51787e-18)
(0.00190439 -0.0728072 1.47483e-18)
(-0.000708734 -0.00027359 -1.56804e-19)
(-0.000667659 -0.000455722 5.40264e-20)
(-0.000884723 -0.000371967 -4.75078e-20)
(0.000931346 -0.000384251 1.92397e-18)
(0.000914453 -0.000317514 1.50429e-18)
(0.000867065 -0.000363404 -5.00639e-18)
(0.0453354 0.0694486 7.93843e-18)
(0.0385786 0.0660109 2.00185e-18)
(0.0001452 -0.000136309 1.81904e-18)
(0.000152953 -0.000139836 5.35113e-19)
(0.000150762 -0.000129748 1.96228e-18)
(-0.0016221 7.56449e-05 2.0736e-19)
(-0.00148976 -0.000225317 -4.58827e-20)
(0.0243885 -0.0323981 8.77517e-19)
(0.0328051 -0.0424552 2.81414e-19)
(0.0308364 -0.033568 1.62707e-18)
(-0.00122922 -0.00122771 -1.81905e-20)
(-0.000951254 -0.00103847 -2.5744e-19)
(-0.000227815 1.55667e-06 3.54179e-20)
(-0.000239256 1.58739e-05 -1.11522e-19)
(-0.00155765 -0.00139775 -1.67738e-19)
(-0.00111315 -0.00104834 -2.0229e-20)
(-0.0780703 0.0234807 8.37834e-19)
(-0.0852942 0.0352865 -2.3996e-18)
(-0.081146 0.0195046 3.85274e-18)
(-4.68796e-05 -1.43726e-06 2.24499e-20)
(-7.51833e-05 -2.95613e-06 -3.1349e-19)
(-4.42942e-05 -1.03212e-06 3.28548e-19)
(1.6884e-05 -4.98847e-05 2.17301e-19)
(1.42384e-05 -5.04632e-05 -5.2105e-19)
(1.48844e-05 -5.52703e-05 5.51451e-20)
(-0.0181973 -0.00180162 -2.41525e-19)
(-0.0165885 -8.65785e-05 1.55331e-19)
(-0.0155497 -0.0022135 6.87123e-20)
(4.47172e-05 -4.16391e-05 8.37163e-19)
(4.31529e-05 -4.04596e-05 2.45094e-19)
(0.0736344 0.0127044 2.19788e-18)
(0.0712062 0.0157933 -1.49985e-18)
(0.074427 0.0121337 -1.08079e-18)
(8.42166e-05 -0.000331185 1.99807e-18)
(8.91251e-05 -0.000300652 -1.21198e-18)
(0.000118994 -0.000317309 2.22762e-19)
(-0.0057991 -0.00172638 9.43443e-19)
(-0.00585661 -0.00153662 -5.6854e-18)
(-0.0060431 -0.00176637 -7.67611e-18)
(8.07192e-05 4.49085e-05 1.64732e-20)
(8.28061e-05 4.8568e-05 1.6916e-20)
(7.75975e-05 5.00825e-05 1.49242e-20)
(-0.00216782 -0.00298443 -4.1141e-18)
(-0.00326728 -0.00297919 3.60661e-19)
(-0.00299587 -0.00291413 -6.06714e-18)
(-0.000156065 -0.000251692 1.14764e-19)
(-0.000181132 -0.000227787 1.9389e-19)
(0.00222246 -0.0119988 1.94047e-18)
(0.0126259 -0.0288595 4.12457e-19)
(0.00450229 -0.0300544 2.42351e-19)
(7.47118e-05 3.11873e-05 1.52208e-21)
(7.19034e-05 3.28328e-05 2.74716e-20)
(7.38128e-05 2.90466e-05 1.79133e-20)
(6.85634e-05 9.71941e-05 -2.85461e-20)
(7.74481e-05 8.94644e-05 -4.81311e-20)
(6.31464e-05 8.71803e-05 5.54887e-20)
(-0.031988 -0.00191863 1.75048e-19)
(-0.0325754 -0.0116103 -1.81756e-19)
(-0.0307016 -0.0152273 1.34566e-19)
(0.00534585 -0.0203131 -7.14825e-18)
(0.00189077 -0.0188459 7.86095e-19)
(0.00440858 -0.0165529 5.14483e-19)
(-0.0486493 -0.0273588 -2.74439e-18)
(-0.0512325 -0.0187981 2.78015e-18)
(3.24102e-05 -2.00579e-05 -3.61809e-19)
(3.19963e-05 -1.77065e-05 1.09259e-18)
(3.01193e-05 -1.89176e-05 -5.89435e-19)
(-0.00558785 -0.00170463 6.85005e-18)
(-0.00570178 -0.00192961 6.29082e-18)
(5.31285e-05 -0.000343307 1.81443e-18)
(8.60427e-05 -0.000363162 2.7073e-18)
(0.000140541 -7.25923e-05 -5.91218e-19)
(0.000141807 -6.41984e-05 1.50074e-18)
(-0.00605117 0.00141658 4.67905e-18)
(-0.00665146 0.0011531 6.02612e-19)
(-0.00600898 0.000658421 5.73659e-18)
(0.00086819 0.0059956 2.92929e-18)
(0.00116367 0.00667146 2.57874e-18)
(0.000327595 0.00657143 3.08969e-18)
(-0.00484957 -0.00312707 -8.22016e-18)
(-0.00537154 -0.00299692 9.11014e-19)
(-0.00546926 -0.00304576 -3.45418e-18)
(-4.99947e-05 3.4089e-06 6.41474e-21)
(-4.86462e-05 3.5653e-06 1.19773e-19)
(-3.5594e-05 1.73758e-06 5.87263e-20)
(0.000519954 -0.000525578 -1.42208e-18)
(0.000582918 -0.000535136 -2.86058e-19)
(0.000540947 -0.000591866 1.71939e-18)
(4.17066e-05 2.23445e-06 -3.72359e-20)
(3.59608e-05 1.0437e-06 -3.5905e-20)
(-0.00788126 -0.0699998 -1.66663e-18)
(-0.00880262 -0.0682557 -1.42657e-18)
(-0.00643966 -0.069409 1.05537e-17)
(7.7467e-05 3.01827e-05 -6.80563e-21)
(7.55658e-05 3.41851e-05 -1.76842e-20)
(0.000485458 -0.00378216 6.22787e-19)
(0.00046111 -0.00329523 -2.90107e-18)
(0.0467656 -0.0186934 -5.03425e-19)
(0.046363 -0.0127696 -5.36742e-19)
(0.05473 -0.0161991 -1.97341e-20)
(-0.000136297 1.06619e-05 -9.44493e-20)
(-0.000136149 9.4649e-06 1.71112e-20)
(-0.000720091 -0.000131185 -1.34081e-19)
(0.000436683 0.000709331 7.64018e-18)
(0.000489421 0.000819042 2.3869e-18)
(0.000546959 0.000719465 3.90381e-18)
(0.0115561 -0.00179963 -1.96589e-19)
(0.00988538 -0.00137173 -1.01398e-19)
(0.0102225 -0.00299547 -1.14824e-19)
(0.0730609 0.011135 2.32424e-18)
(0.0721258 0.0141779 1.22598e-18)
(0.051697 0.0342687 1.60763e-19)
(0.0480177 0.0384862 8.23112e-19)
(7.20755e-05 0.000108916 -6.66934e-22)
(9.16834e-05 0.000120406 1.66257e-20)
(1.91388e-05 -4.51774e-05 3.20057e-20)
(1.94367e-05 -5.05972e-05 4.15076e-19)
(0.0279779 -0.0149758 5.11852e-19)
(0.0312695 -0.0189432 -4.79199e-19)
(-0.00602227 -0.0640503 1.0783e-18)
(0.00517406 -0.0569977 -1.10886e-19)
(-0.00393294 -0.0543838 -9.5479e-19)
(0.000232707 0.000337501 9.30956e-20)
(0.00018349 0.000269172 -6.7525e-21)
(0.000151612 0.000361442 2.00522e-20)
(-0.0194958 -0.00404051 -3.25868e-19)
(-0.0208465 -0.00138427 -7.5606e-19)
(6.04237e-05 5.71461e-06 1.19701e-20)
(5.71592e-05 6.23457e-06 3.17045e-20)
(-0.00569143 -0.00277624 -1.15816e-19)
(-0.00611881 -0.00263579 -2.76903e-18)
(-0.0058709 -0.00276457 -5.96757e-18)
(0.00157984 0.00042327 1.54961e-18)
(0.00153436 0.000580869 -4.58861e-18)
(-0.00946437 0.0367253 -4.25368e-18)
(-0.0128312 0.0755243 -1.67111e-18)
(-0.0187372 0.0680015 -1.98348e-18)
(0.000118236 1.00337e-05 2.43083e-19)
(0.00013092 3.34685e-05 7.25613e-19)
(0.000134242 8.94596e-06 -3.30219e-19)
(-0.000275664 7.47028e-05 9.327e-20)
(-0.000198255 5.75383e-05 -1.95743e-18)
(-0.000245466 0.000143583 -2.99954e-18)
(0.00732272 0.000422129 -8.2611e-20)
(0.00781313 0.00203205 3.12034e-19)
(0.00619534 0.00137279 -2.76955e-19)
(-0.017385 -0.0654995 7.10012e-20)
(-0.00580126 -0.0758197 -5.87381e-20)
(0.000116748 -8.09995e-05 -1.06131e-18)
(0.000119738 -8.08802e-05 -4.65485e-19)
(0.000117678 -7.78676e-05 2.87826e-18)
(9.7336e-05 1.52305e-05 7.79073e-19)
(0.000756178 0.000415353 -4.037e-18)
(0.0006935 0.000435345 2.74035e-18)
(0.0007607 0.000479386 -5.35575e-19)
(-0.0588909 -0.0128989 1.68886e-18)
(-0.041727 -0.0321388 4.04877e-19)
(-0.0513429 -0.0200819 3.25904e-18)
(-0.0225654 0.0159442 -7.49499e-19)
(-0.0199822 0.0115953 -5.96114e-19)
(-0.00176732 -0.00502449 -6.33989e-19)
(-0.00176857 -0.00517404 1.58641e-18)
(0.00836653 -0.00789987 -1.14116e-17)
(0.00808269 -0.00362912 9.75379e-18)
(0.011741 -0.00805348 -9.15775e-18)
(5.51866e-05 -1.02716e-05 2.95554e-18)
(5.3291e-05 -8.58974e-06 -4.53123e-19)
(5.35937e-05 -1.35033e-05 2.92601e-18)
(5.56448e-05 0.000100841 -3.53768e-20)
(0.000333117 -0.00284012 -7.84035e-21)
(-5.80842e-05 -0.00308882 -1.58172e-19)
(-3.0811e-05 -0.0025645 8.30125e-20)
(0.0691423 -0.0505283 4.03522e-19)
(0.0778823 -0.0454467 6.36228e-18)
(0.0544516 -0.011449 2.81587e-19)
(-0.00025655 -4.48179e-05 -4.8626e-20)
(-0.000241007 1.7285e-05 -5.02192e-21)
(-0.000307504 8.43778e-06 -9.29317e-20)
(-0.000885291 0.022984 -3.39787e-18)
(0.000742236 0.0235523 -2.94078e-18)
(-0.00155666 0.0248019 -4.78319e-19)
(0.000140093 -0.000135951 1.10357e-18)
(0.000144748 -0.000131195 1.2111e-19)
(0.000115997 -8.37341e-05 -3.03058e-18)
(0.000113534 -8.05169e-05 1.10467e-18)
(0.000400145 -0.000382605 4.86959e-18)
(0.000361172 -0.000404167 2.95039e-18)
(-0.00599758 0.00223583 4.21174e-18)
(-0.00540933 0.00158588 4.82778e-19)
(-0.0146548 0.00539979 -1.62463e-18)
(-0.0118888 0.00421511 -9.1729e-20)
(-0.0145609 0.00153014 -2.08616e-19)
(0.00790641 -0.00109492 -1.60296e-20)
(0.00639123 -0.0010479 6.09882e-20)
(0.000154347 -0.000150669 6.70251e-20)
(0.0733736 -0.0264401 -3.16505e-19)
(0.0684207 -0.015244 -5.09661e-18)
(0.0804699 -0.0145525 -3.26735e-18)
(0.00173301 -0.000456286 1.07278e-18)
(0.00165597 -0.000320218 -4.22421e-18)
(-0.00197098 0.000802992 -1.09988e-19)
(-0.00166938 0.000603748 1.39367e-19)
(-0.000130153 -1.03111e-05 -1.3612e-20)
(-0.000131529 -9.01739e-06 4.88034e-20)
(0.00813681 0.0541488 -6.5719e-19)
(0.00604862 0.0688848 -6.81096e-19)
(-0.0110031 0.0140339 2.80124e-19)
(-0.0146995 0.0135584 8.75541e-19)
(-0.0126556 0.0100037 2.69621e-19)
(-0.00569668 -0.00302003 5.98805e-18)
(-0.00633531 -0.00284337 -1.69609e-19)
(-0.0065226 -0.00287167 -1.20778e-18)
(-0.03237 -0.0351416 -7.79618e-19)
(-0.0323925 -0.0299146 -7.55249e-18)
(0.000297674 0.000396264 3.14169e-20)
(0.000292429 0.000302338 1.69879e-20)
(8.47106e-05 3.68989e-05 -1.83021e-20)
(8.32094e-05 4.12063e-05 -7.36701e-21)
(8.80389e-05 3.96266e-05 2.41994e-22)
(4.96317e-05 1.96514e-06 -2.11119e-20)
(5.27766e-05 2.01213e-06 -2.19773e-20)
(5.85916e-05 3.82455e-06 -6.49926e-21)
(0.000755954 0.000375008 -2.07179e-18)
(0.000805812 0.000396802 2.20413e-19)
(0.0558697 -0.0498652 8.56356e-19)
(0.075186 -0.0695056 2.77933e-18)
(-0.0349917 -0.0643265 1.19753e-18)
(-0.0416827 -0.111969 3.36636e-19)
(-0.0393659 -0.0943022 -1.71832e-18)
(-0.000186598 -2.10954e-05 -5.25043e-20)
(-0.000191224 -1.45517e-05 4.81166e-20)
(-0.000194587 -2.31007e-05 -7.48593e-20)
(4.05746e-05 5.02226e-06 -2.64762e-19)
(4.13676e-05 2.78599e-06 1.79878e-18)
(4.19179e-05 5.1488e-06 4.38314e-18)
(0.0739787 -0.039353 1.41119e-18)
(0.0624217 -0.0306318 6.75009e-18)
(0.0183273 0.0522688 9.23527e-20)
(0.0141695 0.0299651 4.02276e-18)
(0.0169449 0.02772 3.99816e-18)
(0.00932534 0.00967187 -5.5164e-19)
(0.00787049 0.0104471 4.71304e-19)
(0.000522023 -0.000200153 -1.86722e-20)
(0.000557939 -0.000141969 1.71876e-18)
(0.000115605 -3.11161e-05 -3.30589e-18)
(0.000112083 -3.81729e-05 5.68501e-19)
(0.000966774 -0.000151847 1.62328e-18)
(0.000998667 -0.000211136 -9.70747e-19)
(0.00103794 -0.000145587 3.21814e-18)
(0.0162524 0.0665976 -9.4861e-19)
(0.0182252 0.060358 -2.27825e-19)
(-0.000545614 0.0206718 8.94892e-19)
(-0.00278738 0.0216085 3.59175e-18)
(0.000687217 0.00114255 1.55924e-18)
(0.000709613 0.00100621 7.62355e-20)
(0.000520771 0.0010528 -9.86381e-20)
(0.0260739 -0.125677 2.69809e-18)
(0.0249565 -0.120418 2.79248e-18)
(-0.000132248 -1.22802e-05 -1.02773e-20)
(-0.000130925 -1.43405e-05 4.03234e-20)
(-0.000130537 -1.20957e-05 1.67424e-20)
(-0.00548726 -0.00277658 3.17371e-19)
(-0.0051724 -0.00290906 5.35983e-18)
(0.000478656 -0.000150434 4.64139e-19)
(0.000491472 -0.00012695 3.6341e-18)
(5.14303e-07 -0.000215648 1.09598e-18)
(-3.19369e-05 -0.000228749 4.06253e-19)
(-0.00503183 -0.00321489 -5.07382e-18)
(-0.00597948 -0.00306075 -3.5128e-18)
(-0.00560331 -0.00315309 -3.23078e-18)
(1.64413e-05 -0.000159811 7.09088e-19)
(5.80803e-06 -0.000171477 1.68502e-19)
(2.05883e-05 -0.000168199 1.52272e-19)
(0.0162116 -0.0132209 -1.98161e-18)
(0.019121 -0.0166156 -9.77512e-19)
(-0.00416297 -0.00175048 -1.05675e-17)
(-0.00427232 -0.00162359 5.80198e-18)
(-0.00405446 -0.001596 -5.18972e-18)
(-0.000179866 -1.9051e-05 2.46384e-20)
(-0.000181557 -2.50284e-05 -5.47559e-20)
(0.000880868 0.000223481 -1.73014e-20)