/*--------------------------------*- C++ -*----------------------------------*\
| =========                 |                                                 |
| \\      /  F ield         | OpenFOAM: The Open Source CFD Toolbox           |
|  \\    /   O peration     | Version:  v2012                                 |
|   \\  /    A nd           | Website:  www.openfoam.com                      |
|    \\/     M anipulation  |                                                 |
\*---------------------------------------------------------------------------*/
FoamFile
{
    version     2.0;
    format      ascii;
    class       volScalarField;
    location    "1000";
    object      k;
}
// * * * * * * * * * * * * * * * * * * * * * * * * * * * * * * * * * * * * * //

dimensions      [0 2 -2 0 0 0 0];


internalField   nonuniform List<scalar> 
13851
(
0.000153559
0.0159049
0.000191602
0.00015288
0.000189627
0.000228105
0.000146779
0.00017863
0.000139142
0.000199279
0.00367524
0.0383236
0.0119068
0.0328216
0.000144055
0.000168435
0.000157432
0.000164361
0.00101156
0.000139024
0.000152478
0.000190509
0.000148078
0.000152534
0.0001499
0.000179264
0.00015578
0.00283396
0.000153269
0.000156541
0.000240188
0.00015808
0.000190508
0.00446847
0.000152595
0.000210914
8.83527e-05
0.000192259
0.000202618
0.0033617
0.000144958
0.000132689
0.00564577
0.00358451
0.00311497
0.0162876
0.0031482
0.00622056
0.000156245
0.000254955
0.000187966
0.000199543
0.011162
0.000145953
0.000153555
0.000132809
0.000145538
0.013735
0.000156013
0.000147469
0.000197751
0.0198241
0.000204561
0.000192426
0.000229047
0.000156409
0.000408872
0.00336959
0.000168387
0.000164096
0.0156132
0.00664132
0.0163549
0.000146818
0.000141293
0.000141628
0.000189681
0.0164434
0.000178416
0.0181382
0.000149201
0.00273267
0.000144007
0.0146719
0.000203731
0.0394475
0.000200646
0.0306543
0.000158193
0.000141178
0.000210871
0.000177464
0.00356726
0.000161652
0.000157809
0.000151605
0.000190092
0.0294694
0.000232872
0.000151744
0.0270142
0.000179823
0.000150541
0.000154882
0.000146122
0.000223285
0.000182099
0.000131584
0.0191703
0.000236586
0.000153234
0.000141506
0.000180391
0.00015508
0.000153099
0.0126512
0.0303211
0.000131662
0.000156182
0.000156838
0.00551429
0.000154676
0.0147433
0.00808707
0.0087144
0.000145444
0.00920615
0.00017921
0.000151989
0.00019958
0.000144715
0.000138951
0.018792
0.000143959
0.0116427
0.000140679
0.000131741
0.00547827
0.0267886
0.0314674
0.0253118
0.000153389
0.000150259
0.000136471
0.000154006
0.00394875
0.000279408
0.000199575
0.000146576
0.00299035
0.000189151
0.00015363
0.0342278
0.000146271
0.000152902
0.000153819
0.000142184
0.000153851
0.000199374
0.000187615
0.000134133
0.000161332
0.0136721
0.000138836
0.000162619
0.000134603
0.000347899
0.000168809
0.000151644
0.017816
0.0143053
0.000136494
0.000142362
0.0310144
0.00013873
0.00548782
0.000178404
0.000150189
0.00110566
0.000131974
0.000159412
0.00809164
0.000143835
0.000191941
0.000133306
0.00014899
0.000156672
0.000148445
0.000192227
0.000199562
0.00342043
0.0125249
0.000142338
0.000168645
0.0209283
0.000152483
0.00014912
0.00240055
0.000149372
0.000141855
0.000145718
0.0171784
0.000162802
0.000143328
0.000191121
0.000143967
0.0279786
0.000157677
0.0289214
0.000132649
0.0352816
0.000150152
0.00343686
0.000131462
0.000135757
0.0037069
0.000195304
0.0164814
0.000143403
0.0300471
0.000158005
0.00014942
0.0319442
0.000198217
0.0394039
0.000149902
0.000164207
0.000148013
0.0147822
0.00013156
0.000178424
0.000257155
0.000136412
0.000142044
0.000185606
0.000178769
0.0264551
0.000226234
0.000136358
0.000143451
0.000237762
0.00510955
0.000137652
0.000193635
0.000143524
0.0379218
0.000180386
0.00218192
0.000154094
0.000159224
0.000165402
0.00531764
0.00014954
0.000154267
0.000180337
0.011901
0.000196792
0.0067363
0.00499919
0.000144253
0.000135869
0.000162508
0.00121961
0.000138878
0.00629688
0.000152461
0.000149379
0.000160948
0.0304537
0.00056044
0.000165085
0.000152919
0.000514698
0.000176986
0.00016769
0.000139068
0.00272525
0.00153449
0.0418838
0.00352995
0.000137759
0.000132188
0.000145643
0.000179325
0.001092
0.002858
0.000140344
0.000144075
0.000442249
0.00269277
0.000203713
0.000155282
0.000147596
0.000170694
0.00272731
0.00591212
0.000161621
0.0388693
0.000139287
0.0380792
0.000160781
0.000157232
0.0408299
0.000147844
0.00021425
0.034559
0.000140096
0.000175617
0.000161847
0.000154727
0.0243119
0.000161948
0.000149264
0.0319233
0.000133214
0.000159652
0.000149442
0.0403892
0.000200474
0.000143421
0.000180482
0.000143647
0.0113611
0.00017635
0.000147908
0.000144749
0.000199835
0.000163349
0.000152609
0.000144084
0.000147689
0.000149073
0.00347358
0.0296563
0.0193781
0.000169098
0.0392851
0.0201941
0.00014368
0.000169315
0.000204771
0.000190966
0.000189426
0.000197126
0.000743143
0.000157057
0.00123206
0.0359292
0.000144307
0.000406327
0.000417883
0.000498105
0.000152581
0.000191943
0.0152445
0.000142692
0.00110031
0.000144689
0.000143707
0.000141616
0.000131655
0.000141419
0.0359747
0.00317377
0.000144779
0.000174472
0.000133928
0.0355461
0.000173236
0.00207934
0.0191641
0.000145002
0.000200383
0.000162063
0.0017796
0.000143907
0.000131779
0.000169342
0.0256127
0.000144708
0.0252051
0.000180594
0.000198631
0.0150656
0.00117542
0.000972824
0.000160094
0.000139427
0.00015028
0.000167094
0.000180179
0.034787
0.000168742
0.0387652
0.0349911
0.000134045
0.000144357
0.018303
0.0203757
0.000260038
0.0308946
0.000174311
0.000162926
0.000151656
0.017057
0.000137661
0.000167935
0.000158336
0.000146071
0.0001471
0.000139827
0.000134499
0.000191725
0.000183852
0.0152146
0.000165041
0.000181765
0.000169933
0.00553253
0.000160774
0.000540036
0.000156702
0.00370359
0.00013164
0.000139605
0.000150763
4.39605e-05
0.00353922
0.000197497
0.000167999
0.0117116
0.00520726
0.000196633
0.000159618
0.000186092
0.000143655
0.00531733
0.000146037
0.00441163
0.00301278
0.000189478
0.0261063
0.000150578
0.00143304
0.00290782
0.0212769
0.00013181
0.000164674
0.000179058
0.00113106
0.00013716
0.000149156
0.000187755
0.000198248
0.000171031
0.0252986
0.000149888
0.000145273
0.010845
0.000163692
0.000131935
0.0297273
0.00013935
0.00015353
0.000137884
0.000174256
0.000152728
0.000132349
0.000149782
0.0313045
0.00014415
0.000170704
0.000139933
0.00016889
0.00348966
0.00015593
0.00014483
0.000155322
0.000155225
0.00670129
0.000149244
0.000209215
0.000143775
0.000149947
0.0265372
0.0246292
0.000144238
0.000173002
0.000160941
0.0045131
0.015567
0.000145349
0.00374722
0.00014417
0.000190007
0.000146675
0.0160839
0.000133217
0.0105182
0.000195889
0.000132816
0.000172521
0.0240658
0.000179291
0.0028076
0.000155895
0.00620705
0.00015686
0.000138322
0.000139198
0.000145988
0.0247588
0.000185635
0.000200683
0.000287268
0.000192013
0.000134565
0.0228159
0.00332112
0.000159609
0.000161664
0.00342788
0.00806119
0.0329977
0.000152571
0.0165353
0.0158668
0.0168017
0.000162927
0.000179925
0.0053968
0.00164593
0.0116717
0.00270352
0.0136996
0.000154339
0.0153909
0.010122
0.000131866
0.00133518
0.000186219
0.0200382
0.000154537
0.000142829
0.000141899
0.000143918
0.000191548
0.000174915
0.0266381
0.0253721
0.000139637
0.00940064
0.0247482
0.000247648
0.00300623
0.000170189
0.000131464
0.000139366
0.00158161
0.0252645
0.000153141
0.000193349
0.000210555
0.000132688
0.00017996
0.00802001
6.91866e-05
0.00019648
0.026027
0.0101659
0.000144429
0.000146207
0.0242531
0.034687
0.000201499
0.000168526
0.000217052
0.000131884
0.000142046
0.00688334
0.00013239
0.000154358
0.000131853
0.000139421
0.0117056
0.000191469
0.000164178
0.000132298
0.023132
0.00336884
0.000139477
0.000143352
0.000139167
0.000149461
0.0240309
0.00214205
0.00277102
0.0164578
0.00483262
0.000166895
0.0162024
0.0263051
0.000158734
0.000168883
0.000131439
0.000149516
0.000170027
0.0290631
0.00105992
0.000192924
0.000163425
0.00013861
0.000168055
0.000149146
0.00297041
0.000187827
0.00014365
0.000170248
0.000137146
0.000160538
0.000198317
0.000147102
0.00014341
0.000173416
0.000147167
0.00019001
8.7935e-05
0.000197307
0.0001684
0.000202526
0.000138451
0.000235618
0.000168988
0.016156
0.000149885
0.000152036
0.0158938
0.000155181
0.0147064
0.0362737
0.0166444
0.0283278
0.000137613
0.00899581
0.000138745
0.000139389
0.000133184
0.00013948
0.000156205
0.000166426
0.000172857
0.000132048
0.0195804
0.000198605
0.0213603
0.000141241
0.000134935
0.000144213
0.000202431
0.0213698
0.000180857
0.00016094
0.00013885
0.000150811
0.000146635
0.000142875
0.000127971
0.0279431
0.000146873
0.000131937
0.000146126
0.000142764
0.000471417
0.0132292
0.000168516
0.0274258
0.00720058
0.000143187
0.000200127
0.0241679
0.000170187
0.0393775
0.000149155
0.000162931
0.000180409
0.000163526
0.00361171
0.000144097
0.00691803
0.000146806
0.000164496
0.0288486
0.000142447
0.000153337
0.000216443
0.000138418
0.000158579
0.000563739
0.0323751
0.000187304
0.00469102
0.00223513
0.000131594
0.000141003
0.0244834
0.000207533
0.000181133
0.0363461
0.000138492
0.000165528
0.000131974
0.00351701
0.000641592
0.000159302
0.000148828
0.00348353
0.000156185
0.000143798
0.00945034
0.0170144
0.028698
0.000133061
0.000146711
0.0165553
0.00878173
0.000206507
0.000148172
0.0220018
0.000144063
0.00366721
0.0002047
0.000190886
0.000157861
0.0164337
0.000163281
0.000150825
0.000124725
0.000151299
0.000162575
0.000153205
0.000138283
0.0108481
0.00016729
0.000196871
0.000163189
0.00228985
0.000138817
0.000858266
0.000155213
0.000163092
0.000135739
0.00014277
0.000144776
0.0342899
0.000141653
0.000132099
0.012518
0.00014647
0.0204299
0.000147783
0.00014953
0.000187446
0.00117614
0.00222393
0.00014115
0.000354764
0.0282909
0.000149401
0.0331317
0.000164153
0.000138014
0.000212677
0.00696149
0.000290721
0.000159599
0.000140669
0.000131707
0.00298383
0.000193948
0.000181931
0.000160962
0.000209089
0.00015029
0.000148819
0.000193246
0.00469787
0.00019166
0.00152168
0.000146452
0.000190218
0.000190963
0.0393827
0.000159099
0.0335997
0.000178623
0.000146609
0.0145121
0.000225078
0.0252471
0.0341605
0.0321344
0.00390254
0.000175204
0.000138153
0.000166026
0.0144427
0.0141425
0.000144243
0.000150332
0.000186292
0.00292871
0.00013282
0.0110821
0.00013824
0.000144757
0.0115115
0.0163763
0.00225214
0.000139332
0.000143824
0.00996984
0.000162951
0.000199708
0.000153173
0.0228592
0.000115097
0.0230836
0.000181783
0.00017391
0.000149304
0.000146505
0.0165297
0.000179136
0.0193018
0.000180924
0.000168296
0.0113906
0.0248906
0.0221362
0.000144778
0.000165259
0.000139379
0.00016891
0.000153077
0.0358218
0.000165931
0.035001
0.000132694
0.000186903
0.000142497
0.000216115
0.000167512
0.000164823
0.0280389
0.000175711
0.000175809
0.000153393
0.000186883
0.00320609
0.000218174
0.000154618
0.0146931
0.000138491
0.0375911
0.0036219
0.00014778
0.0366151
0.0272159
0.0220008
0.00417378
0.000175052
0.000144059
0.0274356
0.00016679
0.0113358
0.0294092
0.000141227
0.000152122
0.000135612
0.00414334
0.0334372
0.000146676
0.000141905
0.023969
0.028785
0.000196505
0.000158808
0.000151325
0.00404778
0.0147318
0.000191573
0.000132148
0.000175788
0.000138513
0.000159586
0.000551108
0.000151961
0.00611062
0.00540803
0.000144946
0.00015107
0.000144283
0.000153362
0.0163711
0.0227218
0.000164149
0.0327314
0.000142429
0.000164242
0.000143704
0.000138621
0.000147268
0.000144773
0.0222558
0.000144294
0.00018045
0.000144895
0.000159803
0.000607883
0.00734358
0.000156273
0.0247837
0.000183327
0.000111699
0.000167941
0.000168238
0.0168496
0.000160519
0.000176563
0.0356625
0.00875963
0.0111115
0.000174531
0.00311155
0.000149424
0.000174331
0.000180332
0.0335004
0.000145267
0.0296036
0.000140818
0.000141429
0.0329175
0.000143858
0.00500086
0.000158365
0.000139311
0.000174745
0.000139397
0.000143858
0.000140667
0.000148849
0.000181256
0.000141404
0.000170699
0.0141897
0.000186939
0.0302391
0.000146245
0.000155569
0.000153839
0.000144113
0.000139186
0.000190049
0.000149167
0.000140915
0.000149076
0.000149949
0.0203045
0.027267
0.000221714
0.0309968
9.08872e-05
0.000142026
0.00361232
0.000163172
0.000141234
0.00373223
0.000197902
0.00560027
0.000141782
0.0032321
0.00461723
0.0168067
0.000136641
0.0131403
0.000166279
0.000155596
0.000141737
0.000138493
0.0245817
0.000225422
0.00391567
0.000142008
0.000143601
0.0111908
0.000147876
0.0008289
0.00383774
0.0115179
0.000778203
0.00414962
0.000150286
0.000144554
0.000198205
0.000169378
0.000154985
0.000207815
0.000175852
0.000149346
0.000150787
0.0274824
0.000141147
0.0194238
0.00298117
0.010326
0.000217209
0.000152279
0.000137104
0.0001482
0.00311571
0.00376841
0.000136638
0.000157972
0.000141803
0.000189305
0.000133548
0.00014141
0.000149604
0.000167747
0.0005342
0.000176946
0.000169416
0.000145196
0.000180401
0.0119342
0.000150501
0.0144963
0.00889881
0.000190511
0.000134893
0.000176368
0.00014281
0.000148379
0.000147835
0.0163612
0.000200249
0.00397041
0.000155087
0.00369873
0.000143205
0.000146909
0.000147865
0.00274612
0.011239
0.000133797
0.000167364
0.000187024
0.0257371
0.000155923
0.0161232
0.000159039
0.0276431
0.00019337
0.0297337
0.000193652
0.000190014
2.57149e-05
0.0260849
0.00422567
0.0177476
0.000145877
0.000220608
0.00013341
0.0001548
0.00015926
0.000147489
0.0262846
0.000164558
0.000161611
0.00416838
0.000209156
0.00655314
0.000143527
0.000154737
0.000160063
0.000137724
0.000167998
0.0216295
0.00255315
0.011923
0.000140554
0.000160587
0.000154379
0.00785784
0.0307454
0.000197305
0.000137006
0.00014881
0.0167917
0.000178461
0.0145516
0.0251815
0.000227287
0.000134717
0.00597751
0.000166795
0.000176558
0.000162884
0.034366
0.00282833
0.000197405
0.000226628
0.00015086
0.000165937
0.000144752
0.0102236
0.00018144
0.0249504
0.00316799
0.000159063
0.000203768
0.00015242
0.0337788
0.00014393
0.000144256
0.00426735
0.0299762
0.00715935
0.0162398
0.000146446
0.00014483
0.0166656
0.0137169
0.0154373
0.000155332
0.000146177
0.000144972
0.0206761
0.000204624
0.000148779
0.000164727
0.000195252
0.0254233
0.00512098
0.00223754
0.000144258
0.0188027
0.000156902
0.000144657
0.000202085
0.0204315
0.000146886
0.000140813
0.00615837
0.0323829
0.000143942
0.000140442
0.02948
0.000143745
0.00154427
0.00014056
0.00795429
0.00014484
0.000180842
0.0152833
0.0306821
0.000151739
0.00710025
0.00473209
0.0190166
0.00347255
0.0283586
0.000206822
0.000142418
0.00574498
0.00015618
0.000143644
0.000137589
0.00522662
0.000142986
8.48216e-05
0.000140996
0.000151733
0.0154054
0.000188711
0.00338103
0.000152968
0.000166936
0.000139091
0.000167115
0.00456178
0.0274032
0.000140295
0.000186225
0.00295016
0.00014756
0.000138697
0.028428
0.000169023
0.000170144
0.000200122
0.0340375
0.0150296
0.00315147
0.01372
0.000211533
0.00366782
0.00340037
0.0114347
0.000186201
0.000137616
0.000200548
0.000142358
0.000142327
0.028055
0.0287194
0.000153973
0.0369715
0.000252601
0.0188271
0.000218231
0.000231504
0.000143643
0.000246881
0.000217565
0.000142685
0.000152078
0.0343868
0.0299096
0.0134026
0.0312747
0.000171965
0.0376489
0.0354626
0.000166588
0.00014735
0.000142292
0.00275125
0.000141341
0.000138704
0.00015249
0.000150105
0.00015455
0.0139082
0.0372156
0.0195203
0.000148911
0.00680307
0.000158379
0.000164815
0.00014098
0.000144238
0.0127716
0.000161346
0.0267338
0.0182002
0.000111205
0.000198818
0.000144492
0.00017346
0.000147638
0.000204977
0.000149558
0.000152672
0.000148525
0.000153115
0.000205486
0.000150288
0.00017013
0.00014302
0.000170713
0.000223641
0.0172038
0.000142615
0.000178859
0.00014871
0.000210523
0.000153415
0.0234787
0.000233642
0.000166118
0.000154937
0.000152905
0.000217581
0.000144154
0.00273123
0.000143953
0.000142365
0.000148504
0.0324253
0.000160893
0.000155578
0.000176716
0.000148678
0.000185535
0.0313885
0.00495483
0.000170295
0.000144743
0.000202945
0.000138282
0.000142985
0.000216892
0.0349814
0.000147779
0.000165898
0.000208841
0.00796482
0.000148971
0.000150012
0.0335088
0.000152085
0.000236619
9.14887e-05
0.0361196
0.000145061
0.000157964
0.0001432
0.0392089
0.00020305
0.000175794
0.000198841
0.0199844
0.000151281
0.0324697
0.0192548
0.000147557
0.0160078
0.000190551
0.000152677
0.012567
0.000146251
0.00014445
0.000137858
0.000208553
0.000223814
0.000207767
0.00015283
0.000150739
0.000164245
0.00243184
6.52211e-05
0.0361619
0.00287723
0.000149767
0.000203212
0.000199748
0.0121517
0.000192187
0.00296936
0.000141468
0.000175293
0.000138684
0.0170906
0.000171189
0.000143134
0.028282
0.000222874
0.000167784
0.000169842
0.000132766
0.000148635
0.000182461
0.000169599
0.0122809
0.000186256
0.000188444
0.000185411
0.000196974
0.0307156
0.000176364
0.0362569
0.000142813
0.000140834
0.00022111
0.0199959
0.0110224
0.000222348
0.000154622
0.0152086
0.0029527
0.000142648
0.000159662
0.000139664
0.000174546
0.000187407
0.000457839
0.0125017
8.98102e-05
0.000152195
0.0240033
0.0137381
0.000144163
0.000197826
0.0269837
0.0111367
0.000155183
0.000188969
0.000131494
0.00015843
0.000142316
0.000158574
0.038315
0.0246003
0.0091885
0.0161674
0.000151896
0.000168789
0.000181477
0.000145889
0.000148746
0.00013851
0.0280361
0.000141049
0.0319374
0.000170548
0.000193878
0.000206349
0.000189175
0.0178377
0.00996058
0.000174019
0.000134278
0.000154395
0.00760839
0.00264211
0.000157246
0.000139416
0.000139192
0.000186619
0.000165558
0.000204628
0.023597
0.000151706
0.000138073
0.00020096
0.000189019
0.0160621
0.0146584
0.000140534
0.000187803
0.000147155
0.0417198
0.000135754
0.0381274
0.000141602
0.000151471
0.000168867
0.000149271
0.000209609
0.000164721
0.000178384
0.015719
0.0305874
0.000158151
0.000164899
0.000143469
0.00883804
0.0172513
0.000149114
0.000135987
0.00315175
0.00013149
0.0259165
0.000148344
0.000172037
0.000189807
0.0210622
0.000172726
0.000151745
0.000146273
0.000187605
0.0342732
0.000142475
0.0157192
0.0336679
0.0163028
0.000265463
0.000168248
0.0201039
0.000157928
0.000105297
0.000143169
0.00295971
0.00295812
0.012605
0.0155771
0.0311797
0.000145007
0.00022467
0.000140797
0.0128645
0.00370559
0.0339126
0.0151147
0.000161202
0.025979
0.00297446
0.000169346
0.000152838
0.000147026
0.0271939
0.000159113
0.000187433
0.000158393
0.000147935
0.000138617
0.000147064
0.0296189
0.000199456
0.000166419
0.0172412
0.00661844
0.000142695
0.000143666
0.000138725
0.000167762
0.0373001
0.000171772
0.000159058
0.000170072
0.00616424
0.000192257
0.000176821
0.00968767
0.000165437
0.0367215
0.000164495
0.000166091
0.000143347
0.000158001
0.000187317
0.00470361
0.00309791
0.0299029
0.00018918
0.0145857
0.000156454
0.000156588
0.000149492
0.00983101
0.0198493
0.00717914
0.000224622
0.000154605
0.000144926
0.000142124
0.000143945
0.000138696
0.00888584
0.000164173
0.0114116
0.00016715
0.0251859
0.00522958
0.0376151
0.000185181
0.000159039
0.0156178
0.000172228
0.00282664
0.0298931
0.000138215
0.000162772
0.000161253
0.0195312
0.00878903
0.00016931
0.000450858
0.00242786
0.000157528
0.000187008
0.000165282
0.0168129
0.00323102
0.000155688
0.000146322
0.00306954
0.000475886
0.00019845
0.0100954
0.000200222
0.000169271
0.000143759
0.0392334
0.0338178
0.000194122
0.000165438
0.0302027
0.0292453
0.000140988
0.00014438
0.000156189
0.0337458
0.0320188
0.000143621
0.0206022
0.000149961
0.000142582
0.000147693
0.01558
9.99763e-05
0.000237459
0.0104446
0.000153317
0.000152582
0.000141205
0.0107374
0.000151661
0.0140919
0.000154272
0.0164282
0.000148766
0.000142415
0.000197346
0.00839967
0.00343436
0.00017068
0.0164364
0.000136721
0.000146167
0.000144521
0.00017755
0.000185632
0.000185589
0.000172822
0.0274572
0.000156417
0.000198502
0.000250852
0.0305055
0.000145746
0.0252849
0.0308017
0.000157259
0.00513938
0.000186081
0.022099
0.000147328
0.000189348
0.000143445
0.00161197
0.0147804
0.000196949
0.0357233
0.000154992
0.000178846
0.000151849
0.0214559
0.000134969
0.000139541
0.00215205
0.000197986
0.0212306
0.00404203
0.00018556
0.000163284
0.00013769
0.00142336
0.000167449
0.000142799
0.00020555
0.000140433
0.000175996
0.000144938
0.0187924
0.000154335
0.0037289
0.00357885
0.000168153
0.000252675
0.00018357
0.0418921
0.000145267
0.0169555
0.0243975
0.000139279
0.000144235
0.000153195
0.000148925
0.000174026
0.000143647
0.00458146
0.000189179
0.00361777
0.000187812
0.000146933
0.00014933
0.000138069
0.0122897
0.000146423
0.000144542
0.000133499
0.00015524
0.0113476
0.0345437
0.000193012
0.000154813
0.000168942
0.000152432
0.00014993
0.000193634
0.000136544
0.00015557
0.0102586
0.03953
0.000399289
0.00015229
0.0126833
0.01634
0.000148988
0.00325851
0.0290113
0.000143699
0.00015453
0.000143171
0.0139836
0.018032
0.00234887
0.000136451
0.00015586
0.000151623
0.000146453
0.000198617
0.000147322
0.000196941
0.00727843
0.0345356
0.000138148
0.000155355
0.000154233
0.0169118
0.000132797
0.017727
0.0107367
0.000260037
0.0101582
0.0186642
0.0172806
0.000150972
0.00431591
0.00640249
0.000151184
0.000137479
0.000140254
0.0350533
0.0106759
0.0142683
0.00014815
0.0376551
0.000147201
0.000204346
0.000139001
0.000154118
0.000151024
0.00013803
0.0182148
0.000151341
0.0306228
0.0302689
0.0174015
0.000179411
0.000180496
0.0177245
0.0336922
0.000149025
0.00639766
0.000138046
0.000131824
0.000143456
0.000207377
0.000140568
0.0161181
0.00016565
0.00127404
0.000173296
0.011018
0.0171916
0.00020263
0.000137813
0.000182809
0.00019264
0.0178477
0.000145843
0.000134896
0.000157201
0.0276215
0.000147344
0.00449852
0.015444
0.000174711
0.000185625
0.000146002
0.00309757
0.000148717
0.0383428
0.000135552
0.00865871
0.000165821
0.000145994
0.0158925
0.0165203
0.000135332
0.000186109
0.000157083
0.0132284
0.000220177
0.000236887
0.000982545
0.000148892
0.000181864
0.0269744
0.000142199
0.000199691
0.000151099
0.000189463
0.000167208
0.0113386
0.023318
0.000146298
0.0254565
0.00015149
0.000176811
0.0300388
0.0151634
0.000170979
0.0259678
8.75194e-05
0.000146446
0.0044414
0.000202332
0.000165538
0.000151203
0.025768
0.000135625
0.0123011
0.000491719
0.000199616
0.000143417
0.000168255
0.0249616
0.000177132
0.0235265
0.000150103
0.000155379
0.000221259
0.0263782
0.000159095
0.0348599
0.00161845
0.0166392
0.000147799
0.0249084
0.00650929
0.0184408
0.000143957
0.000150172
0.000145326
0.0360521
0.000178696
0.00368888
0.00271559
0.000149125
0.000137868
0.000143777
0.0178619
0.0064743
0.0277639
0.0174668
0.000141005
0.0243544
0.0309416
0.000201523
0.0114
0.0261943
0.000171273
0.010874
0.000154126
0.000158519
0.0117065
0.0181646
0.000146074
0.0353219
0.000148432
0.000144492
0.0274055
0.023372
0.0307338
0.0136884
0.000166306
0.00014907
0.000158952
0.0290577
0.015898
0.000142485
0.000177607
0.00434546
0.00014464
0.000146717
0.0254616
0.0215777
0.000153645
0.000144231
0.000150891
0.000152319
0.0112577
0.000148877
0.000143741
0.000159266
0.000557787
0.0168384
0.00061163
0.0237828
0.000146524
0.000157681
0.0290327
0.0324082
0.000163298
0.000238116
0.000143289
0.000170776
0.000151761
0.00014766
0.000188888
0.000143406
0.000642391
0.000167804
0.000141208
0.000156986
0.00983066
0.0250848
0.0218488
0.000144798
0.000169508
0.0330656
0.00244534
0.000155721
0.000145416
0.000144603
0.00338863
0.000146928
0.000149708
0.000162432
0.000144098
0.0293967
0.000250481
0.000148817
0.000156329
0.000135817
0.000147276
0.0296883
0.00518061
0.000187397
0.0125506
0.000198863
0.00014942
0.000143149
0.00014605
0.000145004
0.000148589
0.000163821
0.000191181
0.0300797
0.000150075
0.000195516
0.0218497
0.000620727
0.000143991
0.000139659
0.000154313
0.0239203
0.000144506
0.000330485
6.09841e-05
0.000192626
0.000147994
0.0140563
0.000136512
0.000192505
0.000137626
0.000136727
0.000147609
0.000141348
0.00019679
0.0157101
0.000253732
0.000173537
0.0243458
0.00576812
0.0182137
0.000166683
0.0236158
0.0123432
0.000195525
0.0204735
0.0261632
0.000198006
0.00355911
0.000148998
0.000140628
0.0264515
0.000141879
0.000156517
0.0297337
0.000200651
0.0346685
0.000249486
0.00014008
0.000167377
0.00014637
0.000159697
0.000138801
0.000211697
0.0227934
0.0281946
0.00565357
0.000146495
0.00013607
0.000187987
0.0384649
0.0297317
0.000200784
0.000593019
0.000140297
0.00161488
0.0279599
0.000266484
0.000155933
0.000146865
0.000136348
0.000154316
0.000146499
0.000145503
0.000156018
0.0282783
0.000189058
0.0259937
0.00568335
0.00135252
0.000211428
0.000143078
0.000143894
0.000146951
0.00013902
0.000148786
0.00363576
0.0156621
0.0101036
0.0379231
0.000154113
0.0178376
0.000201226
0.0348607
0.0308248
0.000146887
0.000141212
0.00226695
0.000146603
0.00013549
0.00618999
0.0295575
0.00315593
0.000144916
0.000146515
0.00015497
0.000173011
0.00800386
0.000138235
0.000155555
0.000122553
0.000141231
0.00523665
0.000172658
0.031912
0.000148961
8.84404e-05
0.0379623
0.000169824
0.0282563
0.000196421
0.0271063
0.000136159
0.000158334
0.00014056
0.000165003
0.0166831
0.00014911
0.0120793
0.000146333
0.00014679
0.000144241
0.0379966
0.000176604
0.000195848
0.00575817
0.000139406
0.000175
0.0132862
0.000183357
0.000140843
0.000151808
0.000146721
0.000183886
0.000145086
0.00014187
0.0405464
0.0342381
0.0365089
0.000291914
0.000400165
0.0175829
0.000187686
0.0390896
0.00019908
0.000135545
0.000145753
0.00013159
0.000148007
0.0298896
0.0304738
0.000138481
0.0102761
0.0402362
0.000163636
0.000149688
0.000169527
0.0242796
0.0247713
0.0285821
0.0246029
0.0298609
0.000131667
0.000161026
0.000194449
0.0044541
0.013162
0.000143712
0.000202078
0.0157855
0.000167645
0.0348176
0.000149022
0.00026173
0.016884
0.0348626
0.000188989
0.000166649
0.0159709
0.000202803
0.0355404
0.0375132
0.029237
0.000197655
0.0205756
0.000146775
0.000158596
0.000178282
0.021908
0.00341764
0.0270542
0.000152491
0.00019967
0.00018929
0.000153462
0.0268258
0.000143721
0.000201059
0.0203313
0.000143687
0.0336283
0.0225865
0.037776
0.023888
0.0013229
0.00335342
0.000143407
0.030679
0.000145952
0.00014178
0.000174951
0.00015557
0.0312683
0.000155923
0.000170176
0.000156215
0.000141281
0.0134442
0.000153389
0.000198417
0.00444676
0.000138117
0.02739
0.000194288
0.000149945
0.0109977
0.000126396
0.000143404
0.00028322
0.000150323
0.0397722
0.00701669
0.000138656
0.000199937
0.000153549
0.0323818
0.0300836
0.000187936
0.0186777
0.000157514
0.000144699
0.0297719
0.000155644
0.000145343
0.00324118
0.000173744
0.000140203
0.000141056
0.000200164
0.000153036
0.0201374
0.000161363
0.000174643
0.0210584
0.000180843
0.000186799
0.000143818
0.0332797
0.0168857
0.0210197
0.000144053
0.000137678
0.000187988
0.000165764
0.00489382
0.000145552
0.00397269
0.000144667
0.000746262
0.000149978
0.000326308
0.000218494
0.00019842
0.027608
0.0189441
0.0288892
0.0287896
0.000131876
0.000416788
0.000495995
0.0203764
0.000144139
0.00020472
0.0164168
0.0159687
0.000199303
0.000466226
0.000284449
0.0351543
0.000177042
0.000146942
0.000137919
0.000178427
0.000175254
0.000143428
0.000187468
0.0210904
0.000238586
0.016766
0.0013171
0.000142363
0.000140385
0.000166318
0.000143542
0.00169747
0.00013849
0.000140332
0.0385577
0.000206387
0.000171198
0.000194297
0.000154056
0.000196141
0.0126281
0.0309592
0.0136173
0.000158319
0.0305852
0.000152636
0.000138685
0.000153737
0.0248621
0.00016863
0.000161267
0.000208777
0.000151267
0.000141044
0.000143581
0.000149043
0.000160242
0.0264322
0.000792002
0.000163684
0.0273736
0.0197755
0.00715093
0.016115
0.000144773
0.000164846
0.000916721
0.000144322
0.000196064
0.000160946
0.000155815
0.0203768
0.0311326
0.000138514
0.000173158
0.000164873
0.000190048
0.017919
0.0353052
0.0354044
0.000147388
0.000191242
0.0371019
0.000190834
0.000199712
0.00717842
0.024669
0.033187
0.0401207
0.000138052
0.0191495
0.0001383
0.000152789
0.000144179
0.000185466
0.033685
0.0142767
0.00323498
0.0147704
0.000184023
0.000134988
0.000139543
0.000146638
0.000158181
0.000176524
0.037153
0.0408304
0.000189586
0.0108797
0.000148064
0.000184111
0.000138521
0.0370965
0.000193421
0.000146944
0.000208308
0.000194273
0.0400004
0.025501
0.000200999
0.00689226
0.000157658
0.0207107
0.00017347
0.0124001
0.00358744
0.000152236
0.000184156
0.00014599
0.0271512
0.0122227
0.000174778
0.0207142
0.000153145
0.0283515
0.000188238
0.000227086
0.000178347
0.000140169
0.000200721
0.000185508
0.000156261
0.000184212
0.000166365
0.000168137
0.0131469
0.000206334
0.000154179
0.000165605
0.000171374
0.000167185
0.000150304
0.0384329
0.000196049
0.00197919
0.011388
0.000144751
0.0299898
0.000144416
0.000156061
0.000154923
0.0297946
0.000171651
0.0366235
0.0171822
0.000185759
0.000197096
0.000199282
0.0264921
0.000203229
0.0180705
0.000166417
0.000177171
0.000142105
0.0325311
0.0037908
0.000165471
0.000149424
0.000171124
0.00015936
0.000156875
0.000179049
0.000173256
0.000147481
0.000168963
0.0173308
0.0297756
0.000229714
0.000174817
0.000133395
0.0279997
0.000167333
0.000185578
0.00406858
0.000175539
0.039486
0.000135787
0.000166809
0.000155587
0.000168594
0.000143287
0.0310768
0.00424209
0.0105452
0.000171445
0.0281235
0.000197531
0.000158907
0.0271504
0.000186092
0.000213314
0.0131358
0.000183668
0.000156004
0.000173877
0.000188144
0.00015701
0.000119681
0.0260837
0.00426987
0.000140214
0.000186075
0.000118306
0.0325248
0.000143099
0.000176892
0.000143515
0.000165926
0.0145759
0.00016456
0.000164056
0.000140337
0.000140108
0.0100209
0.0246485
0.000145943
0.0305255
0.0002216
0.000135148
0.000165249
0.0325535
0.000197273
0.000194363
0.000144234
0.000161431
0.000207974
0.000150258
0.000142595
0.0256026
0.000164411
0.0310795
0.000191319
0.000159814
0.0319923
0.000202219
0.000205172
0.000140624
0.00287458
0.000164559
0.000160569
0.0255038
0.000174223
0.000147515
0.000195363
0.000156907
0.000159738
0.000136035
0.00209229
0.000144534
0.000188895
0.0071897
0.000194598
0.000141483
0.000131432
0.000165661
0.0157354
0.000217852
0.0254938
0.000198669
0.0336807
0.000138724
0.000188891
0.0001585
0.00014206
0.00454887
0.0096788
0.000157442
0.00251656
0.000161992
0.000187853
0.0257601
0.000159404
0.00528531
0.0182462
0.014319
0.0268187
0.000865988
0.000231899
0.000139895
0.000189278
0.000170194
0.00967633
0.0374813
0.036806
0.0359147
0.0378465
0.000139908
0.000380181
0.000143955
0.000151404
0.000147148
0.00255746
0.000220637
0.000193738
0.000142114
0.00984371
0.000161692
0.0220481
0.000141827
0.000187053
0.000165105
0.000187392
0.000176568
0.000194597
0.000152939
0.000200488
0.000220257
0.000140875
0.0236755
0.000188925
0.000203549
0.00015518
0.000165243