/*--------------------------------*- C++ -*----------------------------------*\
| =========                 |                                                 |
| \\      /  F ield         | OpenFOAM: The Open Source CFD Toolbox           |
|  \\    /   O peration     | Version:  v2012                                 |
|   \\  /    A nd           | Website:  www.openfoam.com                      |
|    \\/     M anipulation  |                                                 |
\*---------------------------------------------------------------------------*/
FoamFile
{
    version     2.0;
    format      ascii;
    class       volVectorField;
    location    "850";
    object      U_0;
}
// * * * * * * * * * * * * * * * * * * * * * * * * * * * * * * * * * * * * * //

dimensions      [0 1 -1 0 0 0 0];


internalField   nonuniform List<vector> 
13917
(
(0.440273 0.026995 -3.20221e-20)
(0.995295 0.0405044 1.42861e-21)
(1.07068 -0.0419937 7.22555e-21)
(1.03736 0.0126123 3.92246e-21)
(1.01439 -0.0230159 1.35198e-21)
(0.994216 0.0381305 5.73469e-22)
(1.05604 0.0203325 -5.90422e-21)
(1.01123 0.0683721 0)
(1.05827 0.0122857 0)
(-0.0118306 -0.0147257 2.74527e-22)
(1.00882 0.0652989 -5.83262e-23)
(1.02716 0.0121984 -3.15084e-21)
(1.00963 0.000116388 1.9267e-21)
(0.946932 -0.0281479 -3.80763e-21)
(0.999201 0.0205752 -1.46181e-21)
(0.420744 0.0244604 3.82619e-20)
(1.00277 -1.97684e-05 -3.28137e-24)
(1.01108 0.0572496 -2.78319e-21)
(1.09473 -0.0132532 1.9402e-20)
(0.414051 0.0834774 4.11025e-20)
(1.0221 0.0460459 -1.76504e-21)
(1.01327 0.00411115 5.41337e-22)
(1.07517 0.0183668 7.32107e-21)
(1.01346 0.0037305 0)
(1.03704 0.0218974 2.85907e-21)
(1.01818 0.0462735 0)
(0.791681 0.170195 0)
(-0.0156264 -0.0140522 1.70793e-20)
(1.01191 0.0478566 -8.76213e-23)
(1.00682 3.46247e-05 -8.44943e-24)
(0.000349406 -0.0326439 -1.76868e-20)
(1.06952 0.00277456 -6.20488e-21)
(1.03342 0.0158763 7.21612e-22)
(0.506306 0.0203142 -7.91153e-21)
(1.01114 0.00533334 0)
(1.00806 0.0772293 0)
(1.02111 0.0274079 1.29491e-23)
(1.00312 0.000117883 2.17284e-22)
(1.05672 0.0199084 -6.74913e-21)
(1.03896 0.0567788 0)
(1.00122 -6.04057e-05 -3.36005e-22)
(1.02585 -0.00467145 -7.89418e-23)
(1.05439 0.0102313 1.26072e-20)
(1.07967 -0.0152484 -1.39756e-20)
(1.08143 -0.0140527 1.62053e-20)
(0.918709 0.0481996 8.01728e-21)
(1.02313 0.0446591 0)
(0.149627 0.0632853 0)
(0.875508 0.0686133 -7.76577e-21)
(1.01153 0.00548326 0)
(1.02659 0.0118641 3.17657e-21)
(1.13096 0.0343411 -1.38156e-20)
(0.402409 0.0215086 -8.70561e-21)
(1.01838 0.0128822 0)
(1.01982 0.0139203 5.45555e-22)
(1.12964 0.0304638 0)
(0.00350062 0.0258501 0)
(1.07521 0.0193638 0)
(1.02495 -0.00327814 1.42097e-22)
(0.907279 0.0494021 -1.31281e-20)
(0.115249 0.126049 1.75523e-20)
(1.00515 0.0186807 8.35071e-22)
(1.00361 -2.43591e-05 1.87553e-24)
(1.03663 0.0211616 2.66198e-21)
(0.684159 0.0131185 -2.86017e-20)
(0.987408 0.0177151 0)
(1.01149 0.0494228 0)
(1.00195 0.0783782 -2.61794e-21)
(1.01339 0.0598554 -5.97683e-21)
(0.436497 0.0213749 1.48928e-20)
(0.781976 -0.000373391 -9.47319e-21)
(0.490882 0.0209923 3.37656e-21)
(1.03319 0.00513342 0)
(1.02303 -0.0030314 -1.81051e-22)
(1.02264 0.0475764 1.77654e-21)
(1.03285 0.025915 2.07991e-21)
(1.01224 -0.00737327 9.70394e-22)
(1.02219 -0.00205765 1.72725e-22)
(1.03267 0.0250675 0)
(1.03388 0.0163468 -9.80842e-22)
(1.013 0.0136452 2.03619e-22)
(1.00281 7.10475e-06 -2.03117e-22)
(1.03272 0.00473608 -2.23526e-21)
(0.820115 -0.00972946 8.14179e-21)
(1.01436 0.00222039 1.29863e-21)
(1.0293 0.0238197 -4.78618e-21)
(1.06967 0.00380793 0)
(1.01394 0.00113707 3.47503e-23)
(1.03708 0.0553252 -8.23394e-23)
(1.00348 -9.27717e-06 0)
(1.00566 -1.34129e-06 1.14726e-22)
(1.05524 0.010342 -1.23628e-20)
(0.865844 0.0495659 0)
(1.00962 0.00267517 -6.67145e-22)
(1.01798 0.017434 0)
(1.01223 0.0483215 0)
(0.90258 0.131004 1.11472e-21)
(1.00343 7.41683e-05 0)
(1.01436 0.00125979 -2.01706e-21)
(0.983702 0.117739 -5.14229e-21)
(1.00249 4.23223e-06 -9.30237e-25)
(1.003 -2.66158e-05 -2.32976e-24)
(1.0131 0.0143946 -5.48906e-22)
(1.00611 0.00030719 0)
(1.01368 -0.00738811 -1.40877e-21)
(0.905445 -0.0141405 2.00798e-22)
(0.4245 0.055613 5.02296e-21)
(1.00302 0.0184789 -7.66794e-22)
(1.02818 -0.00513368 -7.35495e-23)
(0.713382 0.1566 1.92095e-21)
(1.01924 0.000188645 -2.25062e-21)
(0.514253 0.0211976 2.02476e-20)
(1.01264 0.0474926 3.42382e-21)
(0.0935472 0.0639898 0)
(0.697422 0.0103851 2.1899e-20)
(1.03116 0.028162 1.7137e-21)
(1.093 -0.0111326 0)
(1.00495 5.63377e-05 5.31055e-24)
(1.08592 -0.0358209 3.51544e-21)
(1.03133 0.00215137 -9.53397e-21)
(1.00355 2.34749e-05 -5.72412e-23)
(1.01861 -0.00235446 2.53288e-22)
(1.01243 0.0501346 -3.53782e-21)
(1.1061 0.00887914 -7.31766e-21)
(0.453582 0.0188328 0)
(0.788898 -0.0054332 0)
(1.03683 0.0198217 -3.97417e-21)
(1.02155 0.0488546 -3.415e-21)
(1.01393 0.00280906 -2.39558e-22)
(1.10561 0.00669384 1.79184e-20)
(1.06386 0.0155536 0)
(1.03676 0.115797 1.16745e-20)
(0.668071 0.0107648 -2.77563e-21)
(1.03021 0.0282885 1.28238e-21)
(1.07134 -0.00275835 2.13912e-20)
(0.691445 0.155776 -6.88281e-21)
(0.0666023 0.110237 0)
(0.461382 0.0216635 0)
(1.01611 0.046738 -7.13717e-22)
(1.00166 6.04302e-05 1.92656e-23)
(0.77166 0.121952 -1.6507e-21)
(1.02064 -0.00197843 -1.00849e-22)
(0.924914 -0.0180179 -5.60256e-22)
(1.0128 0.00473834 -1.18586e-23)
(1.03095 0.0051007 0)
(1.04229 -0.00143546 0)
(0.790046 -0.000777121 0)
(0.842867 -0.0159229 -1.99815e-22)
(0.189674 0.0661776 0)
(1.01874 0.0134343 3.63186e-22)
(1.03632 0.0513417 -2.34871e-22)
(1.00335 -2.70087e-05 -1.73336e-23)
(1.03051 0.0046291 1.15065e-21)
(1.0316 0.00186169 2.88436e-21)
(0.855601 0.131305 2.81581e-20)
(1.01838 -0.0017659 0)
(1.00642 0.000318477 4.62062e-23)
(0.651289 0.0141304 0)
(1.00271 -1.36955e-06 -1.13125e-23)
(1.0043 -2.93044e-05 0)
(1.01358 0.00452912 -4.40795e-22)
(0.567234 0.0294784 -1.27562e-20)
(1.01399 0.0305884 -4.47712e-22)
(0.759258 0.125817 1.464e-21)
(0.36867 0.0615962 0)
(0.971969 0.137997 1.51378e-20)
(0.269041 0.023571 1.01033e-20)
(0.159471 0.0883132 4.12739e-21)
(1.00688 -0.000180422 0)
(1.01523 0.0474115 2.273e-21)
(1.01373 0.00268951 0)
(0.655043 0.00854781 -7.47229e-21)
(1.0583 0.0118589 -7.66182e-21)
(0.242817 0.0982634 -2.63337e-20)
(1.09793 0.0541149 0)
(1.00312 6.82572e-06 -5.25191e-23)
(1.03788 0.012189 0)
(1.13682 0.0378079 1.84503e-21)
(1.06343 0.0155587 0)
(1.01331 0.0315976 4.79222e-22)
(1.05337 0.0108294 -1.20914e-20)
(1.01381 0.0028659 0)
(1.02611 0.0121689 0)
(1.01742 0.0164127 0)
(1.08659 -0.0366773 -1.34728e-20)
(1.01992 0.121305 -6.81734e-21)
(1.02558 0.011873 0)
(1.00582 0.0191986 0)
(1.00694 0.00066744 0)
(1.02582 0.0319416 0)
(1.09722 0.0576712 0)
(1.08072 -0.011196 0)
(1.12866 0.00654261 7.89131e-22)
(0.442456 0.0334222 -3.73781e-20)
(1.00979 0.00299395 -8.42429e-22)
(0.454293 0.0196312 0)
(1.04464 0.0296534 -2.79363e-21)
(0.694876 0.00874976 0)
(1.01085 0.00484175 1.41645e-22)
(1.01759 -0.000906768 0)
(1.02489 0.0419013 5.01115e-22)
(0.433489 0.0217248 -9.8819e-21)
(0.446719 0.0225158 -3.0633e-22)
(1.01744 0.0244021 2.10244e-22)
(0.785368 0.153418 3.10836e-22)
(1.00991 0.0423434 5.57848e-22)
(1.03784 0.0525915 0)
(1.01997 -0.00272627 1.0305e-22)
(1.13774 0.0338996 1.59761e-20)
(1.01245 0.013032 2.61623e-22)
(1.01087 0.00188106 1.48805e-22)
(1.01685 -0.0397345 2.94637e-21)
(1.01307 -0.0429902 4.91751e-21)
(0.196957 0.062574 0)
(1.0706 -0.00158801 -1.06791e-20)
(1.01734 0.0472213 1.54413e-21)
(0.569901 0.0297982 0)
(1.00861 0.000578403 0)
(1.00977 0.000830053 0)
(1.00964 0.000865411 0)
(0.129035 0.0833407 0)
(1.09605 0.0103064 -1.06516e-20)
(0.930646 0.026128 2.36153e-23)
(1.01933 0.00123427 6.19926e-22)
(1.00281 -5.36224e-05 -5.68062e-24)
(0.614575 0.142169 -1.02432e-20)
(0.440091 0.0211787 0)
(1.00897 0.000470093 -1.23826e-22)
(1.00868 0.000407928 0)
(1.00111 -9.34928e-05 -9.6375e-24)
(1.00992 0.00109202 2.06895e-22)
(1.00978 0.00111865 2.0787e-22)
(0.480511 0.0216746 8.1244e-21)
(0.286624 0.0556978 -2.15143e-20)
(1.01239 0.00828481 0)
(1.00752 -0.000302972 1.14153e-24)
(1.10331 0.0323878 4.61792e-21)
(0.481623 0.019357 1.3897e-21)
(1.00305 9.60184e-06 0)
(1.0191 0.00119322 0)
(0.760519 0.156464 0)
(0.929943 -0.0163456 0)
(1.0584 0.0108632 -1.48097e-20)
(0.564237 0.0313201 8.48691e-21)
(1.11832 0.0633352 -8.22363e-21)
(1.01289 0.00494753 -1.09589e-23)
(0.237096 0.0795064 -3.72946e-21)
(1.10508 0.02977 2.75456e-21)
(1.01291 0.0471492 4.46553e-23)
(1.08619 0.00337053 -1.26008e-20)
(1.018 0.0236451 -1.01052e-22)
(0.270522 0.0580829 0)
(1.03173 0.00289385 -6.70262e-23)
(1.06196 0.0527518 0)
(1.09222 0.0514068 0)
(1.01197 0.00751659 -6.7548e-22)
(1.00052 -1.68683e-05 3.1812e-22)
(1.03725 0.0205357 -2.0743e-21)
(1.02948 -0.0167033 5.65488e-22)
(1.00827 0.00217927 -7.3759e-22)
(0.482675 0.0184966 0)
(0.862901 0.237706 0)
(1.01562 -0.00376685 -1.90808e-22)
(1.00852 0.000306653 2.88498e-22)
(1.01823 -0.00235522 4.60247e-22)
(1.00859 0.000286484 -3.04075e-22)
(1.03193 0.00261088 5.174e-21)
(1.01459 0.000230442 4.9946e-22)
(1.06844 0.0310727 0)
(1.0165 -0.00454503 1.91027e-22)
(0.478684 0.02149 0)
(0.43804 0.0508414 0)
(1.02208 0.00968842 -3.13019e-21)
(1.0225 -0.0117219 -6.65369e-22)
(0.821917 0.0501802 1.01113e-20)
(1.00835 0.000343863 -2.24225e-22)
(0.998421 0.104049 5.54352e-21)
(0.499995 0.0177847 0)
(1.00836 0.000480609 -2.28993e-22)
(0.456085 0.019925 -1.45464e-20)
(1.00852 0.0016387 7.12181e-22)
(0.574927 0.0294172 2.19033e-20)
(1.00256 -3.03885e-06 0)
(1.00183 0.01735 -3.83384e-21)
(1.01162 0.00746295 0)
(1.0126 0.0037813 4.39355e-23)
(1.11584 -0.0167863 -2.15644e-20)
(1.00515 0.000197322 3.57776e-24)
(0.964515 0.151049 9.74543e-21)
(1.04433 0.0373335 2.26471e-21)
(0.821623 0.237318 0)
(1.04565 -0.0036111 0)
(0.896584 0.16656 2.75617e-21)
(0.459709 0.0217248 -9.0738e-22)
(1.00428 1.14567e-05 4.21665e-22)
(1.08296 0.0245633 0)
(1.02411 -0.0198095 -3.78953e-22)
(1.02917 0.0297598 -5.99502e-22)
(1.01751 -0.0213689 0)
(1.03367 0.0245111 2.6898e-21)
(1.00928 0.00230997 2.97835e-22)
(1.00623 0.000250664 0)
(1.13749 0.0465787 1.1387e-20)
(1.02951 0.0254154 0)
(1.06037 0.0515784 0)
(1.03347 0.0237434 0)
(1.01879 0.00125054 2.87425e-21)
(0.665774 0.0127699 0)
(0.416704 0.0229316 4.19966e-21)
(1.01289 0.00296695 0)
(1.05843 -0.00395299 9.33923e-22)
(1.03013 0.0296545 6.40253e-22)
(0.922287 -0.114705 0)
(1.05777 -0.0171517 4.98908e-22)
(0.465746 0.0505537 0)
(0.306056 0.0859234 3.00954e-20)
(0.982886 0.0119597 8.58028e-23)
(1.09368 0.117565 -8.03548e-23)
(1.02349 -0.0100819 0)
(0.837669 -0.0117299 0)
(0.884742 -0.112312 1.20105e-21)
(1.07429 -0.0419353 7.67294e-21)
(1.01418 0.000246938 -2.40949e-21)
(0.99964 0.0190181 -7.41616e-22)
(0.816443 0.171527 2.32886e-22)
(1.01477 0.000672194 8.35402e-22)
(0.994101 0.0425336 3.30044e-21)
(1.08229 -0.00988113 0)
(1.0027 -3.40705e-05 1.50848e-22)
(0.659447 0.00718884 0)
(1.01429 0.00173101 1.92084e-21)
(1.06335 0.0142572 0)
(1.01101 -0.00447391 -4.00541e-22)
(0.390497 0.081308 0)
(1.00905 0.00103001 2.86227e-23)
(1.05991 0.0478295 -2.84563e-21)
(1.01067 0.0433844 -1.29106e-21)
(0.982391 0.00765774 -9.00037e-23)
(1.00383 2.35134e-05 -1.85498e-22)
(1.08314 0.00151389 7.93029e-21)
(0.918041 -0.0204004 1.0908e-20)
(1.01896 0.0169309 -7.11707e-22)
(1.01536 0.000207642 8.53767e-22)
(0.532639 0.0201359 0)
(0.923819 -0.0186305 9.35705e-21)
(0.565248 0.0443933 -3.56371e-20)
(1.00046 0.0305977 4.91735e-23)
(1.00829 0.000484683 0)
(1.01306 0.0100735 3.69079e-22)
(0.933252 -0.0147069 0)
(1.0961 0.110149 -3.65659e-21)
(1.00834 0.000607831 -1.95959e-22)
(1.02192 -0.02275 0)
(1.02251 0.0129251 3.25948e-21)
(1.01242 0.0578461 -3.0212e-21)
(1.06122 0.0489611 0)
(1.12095 0.0113753 6.54445e-21)
(1.10301 0.0900016 0)
(0.995454 0.0979273 -2.78456e-21)
(1.06442 0.0134748 -1.28086e-21)
(0.480466 0.0308094 1.44998e-20)
(1.01436 0.00285752 6.25124e-22)
(1.01958 0.0170725 -5.16322e-22)
(1.01334 -0.0258777 -3.95182e-22)
(1.09594 -0.0274652 -2.21735e-20)
(1.0025 -2.74456e-05 9.31399e-23)
(0.430278 0.0284696 4.31535e-20)
(1.0642 0.0137907 5.59494e-22)
(0.940678 -0.0528417 1.97287e-22)
(1.01971 0.0143851 -3.72375e-23)
(1.12792 0.103869 0)
(1.05582 -0.0107411 -3.16826e-22)
(0.878696 0.0150182 -4.7944e-21)
(1.02678 0.000678826 -1.54891e-23)
(0.947529 0.0234211 -2.48489e-20)
(0.839662 0.049907 2.30439e-20)
(1.01026 0.0446608 -5.16781e-21)
(1.02221 0.0101363 0)
(0.84166 0.000346096 -8.12413e-21)
(1.01279 -0.00728834 1.42659e-22)
(0.336466 0.0697093 0)
(1.11759 0.00600218 1.26652e-20)
(1.02695 0.00209424 1.57056e-23)
(0.885642 0.033085 -2.55364e-21)
(1.01059 0.00600001 0)
(0.949823 -0.113438 -6.04411e-24)
(1.00918 0.000996098 0)
(0.414862 0.0815559 -2.20934e-20)
(0.942004 -0.118882 0)
(1.02424 0.0258222 5.36688e-22)
(0.558738 0.127507 1.81794e-21)
(1.00152 0.085234 -8.91033e-21)
(1.01796 0.0219513 3.21581e-23)
(0.482796 0.0471696 -1.88548e-20)
(1.03101 -0.0167119 -5.43186e-21)
(1.02556 0.0239547 -2.16757e-21)
(1.1157 -0.0154752 1.3728e-20)
(1.01407 0.0109032 -2.48174e-22)
(0.995246 0.0810037 4.68461e-21)
(1.07965 -0.0411856 -1.30127e-20)
(1.01445 0.00151496 -1.48176e-21)
(1.05681 0.0164357 -7.88095e-21)
(1.03432 0.0232601 1.72797e-21)
(1.01248 0.00407025 -1.33216e-23)
(1.01021 0.00189752 -1.31772e-22)
(1.01489 0.00270416 4.56657e-22)
(-0.0057615 0.118838 0)
(0.988181 0.145822 -1.15904e-20)
(1.01968 0.015746 -5.24064e-22)
(1.01539 0.0031435 7.68526e-22)
(1.01348 0.00405065 2.07043e-22)
(1.08236 0.0332201 -1.05123e-20)
(0.972482 0.0819028 0)
(1.00905 -0.00133375 2.34125e-22)
(1.00679 -0.000154994 0)
(1.05961 -0.0164615 -4.14747e-21)
(1.12142 0.107216 0)
(1.01276 0.00397326 -2.35053e-24)
(1.0244 0.025167 -6.88668e-22)
(0.45662 0.0605588 4.0049e-20)
(0.714219 0.0584872 2.17158e-22)
(0.984725 0.0202873 0)
(1.09365 -0.0160329 -5.03088e-21)
(0.875572 -0.0166924 -9.68913e-21)
(1.0122 0.00417479 1.66196e-22)
(1.00876 -0.000702092 0)
(1.0203 0.0416859 -7.30157e-22)
(1.01009 0.00180968 -1.28217e-22)
(1.00884 -0.00106356 0)
(1.01208 0.00828123 8.616e-22)
(1.00861 -0.000480195 0)
(1.01164 0.00379196 -1.79284e-22)
(0.240371 0.0689556 0)
(1.01418 0.0114889 2.6537e-22)
(1.04369 0.0594352 0)
(0.489243 0.0214758 -1.13289e-21)
(1.08251 0.0262822 0)
(1.01115 0.00195224 -8.48194e-23)
(1.02982 0.00465283 -2.15303e-21)
(0.503886 0.0413791 2.53529e-20)
(1.02336 0.0419264 -4.80029e-22)
(0.438554 0.0187887 0)
(1.01012 -0.00321259 0)
(1.02029 0.00360376 -6.31879e-23)
(1.01207 -0.00798171 -1.76951e-22)
(1.00998 0.00138542 -1.89681e-22)
(1.02064 0.0264434 2.37038e-24)
(1.01033 0.00448451 1.29324e-21)
(0.474108 0.0580695 -1.79371e-21)
(1.03457 0.0174954 -3.40327e-22)
(0.907236 -0.012997 1.1968e-21)
(1.02003 0.00367001 -3.65049e-21)
(1.06635 0.0173686 -6.50817e-21)
(1.04132 0.0164669 -4.07337e-22)
(1.01253 0.0122617 -2.76817e-22)
(1.11742 0.058237 9.83751e-21)
(0.552716 0.0464383 -7.38934e-21)
(1.02254 0.0124533 -1.11664e-21)
(0.561363 0.0833253 -1.79738e-21)
(1.01153 0.00198954 0)
(1.0093 0.00069451 -2.40111e-22)
(1.01357 0.00387783 1.843e-23)
(1.01048 0.00683707 1.03053e-21)
(1.01032 0.00173707 -2.92843e-22)
(1.01188 0.000859874 0)
(0.654725 0.0126347 -6.6711e-22)
(0.19386 0.111584 0)
(1.01007 0.00165926 1.5287e-22)
(0.861247 0.152713 -1.20615e-21)
(1.06341 -0.0173297 4.5605e-21)
(1.01824 0.000441372 0)
(1.08698 0.0261836 7.28508e-21)
(1.05576 0.00696109 -1.22246e-20)
(0.453997 0.0436957 0)
(1.05868 0.0162446 9.92064e-21)
(0.90074 -0.015606 -9.52902e-21)
(0.892928 -0.0902034 1.2529e-21)
(0.894287 -0.0841617 -1.28259e-21)
(1.0101 0.00539048 0)
(0.986989 0.0139958 0)
(1.04744 0.0182477 0)
(1.01748 0.0227111 0)
(0.709576 0.0306952 0)
(1.00546 -6.95205e-06 0)
(1.01856 0.0123741 0)
(1.01866 0.0176164 0)
(1.05721 0.014493 -8.15381e-21)
(1.02722 0.0469702 9.14466e-23)
(1.09187 -0.0317574 -6.9984e-21)
(1.07657 0.012026 0)
(1.03745 -0.0145231 1.1364e-22)
(1.02378 -0.0141136 6.66183e-22)
(1.01329 0.0536592 -3.34233e-21)
(1.05072 0.0751861 0)
(1.01928 0.0154612 0)
(0.882753 -0.0570355 4.85418e-21)
(1.06879 0.0259002 -5.7595e-21)
(1.04539 0.0365402 1.70643e-22)
(0.329499 0.0783263 0)
(1.01447 0.00197837 -7.43235e-22)
(1.05129 0.0785124 1.9152e-21)
(1.12107 0.0381654 -1.66311e-21)
(1.00909 0.00100814 8.63006e-23)
(0.597896 0.0188426 -2.27635e-22)
(1.00931 0.000713765 1.77229e-23)
(1.00981 0.00137989 8.56034e-23)
(1.0839 0.0315352 1.37607e-20)
(1.00964 -0.00281716 5.49264e-22)
(1.00891 0.00060439 -1.73402e-22)
(1.13871 0.0511085 -1.0958e-20)
(0.651542 0.0192591 7.20647e-22)
(0.474859 0.110196 0)
(1.0136 0.00429907 1.92043e-21)
(1.0422 0.0107624 -3.686e-21)
(1.02634 -0.0187464 3.51849e-22)
(0.726501 0.0344439 1.51989e-20)
(0.667945 0.0465291 0)
(1.01878 0.0144585 0)
(1.01936 0.0134549 -3.77314e-22)
(1.01329 0.00384946 0)
(1.08844 0.0468406 0)
(1.01376 0.103603 2.20612e-21)
(1.01417 0.00347448 0)
(1.00315 -2.0535e-05 3.46177e-23)
(1.01768 -0.000487482 -3.33427e-22)
(1.01236 0.00404083 0)
(1.02448 0.014702 -8.8301e-23)
(1.05406 0.0306862 -2.90057e-21)
(1.00497 1.98488e-05 -2.19743e-22)
(1.07783 0.0124033 0)
(1.00901 0.000954727 1.8809e-23)
(1.01321 0.00485371 0)
(1.03418 0.0225348 -1.60491e-21)
(0.485119 0.0483586 3.35647e-21)
(1.00654 8.68017e-05 -2.854e-22)
(1.04966 0.0142626 1.2239e-22)
(1.0085 0.00286444 0)
(1.06565 0.0175262 0)
(1.09407 0.0211744 9.09539e-21)
(1.01002 0.0498522 0)
(1.09563 0.051793 0)
(0.98934 0.132712 9.67924e-21)
(1.03149 0.0218464 -4.91502e-22)
(1.0113 0.0523354 9.68185e-23)
(0.709666 0.00689575 -2.96888e-21)
(0.275358 0.0612982 0)
(0.505966 0.0216093 -7.44432e-22)
(1.01185 0.0029551 2.22187e-22)
(1.01384 0.00333066 -1.98966e-22)
(1.04034 -0.0165614 2.51459e-22)
(1.02213 0.00678073 2.25471e-21)
(0.697192 0.0094134 1.28886e-20)
(1.0084 0.000271701 2.42724e-22)
(0.768545 -0.214498 -1.39211e-21)
(1.04539 0.028911 2.7032e-21)
(0.737229 -7.19511e-05 8.24387e-21)
(0.992645 0.111458 0)
(1.05414 0.0108541 4.49341e-21)
(0.0748743 0.105521 3.9139e-20)
(1.01001 0.00170329 0)
(1.06031 0.00772844 1.34337e-20)
(1.00431 0.00010798 0)
(1.00519 -0.00428285 -9.07939e-22)
(0.713271 0.00162299 -5.55781e-22)
(1.0095 -0.00216396 -2.4078e-22)
(1.05949 -0.036237 0)
(1.00257 -3.63875e-05 1.96779e-23)
(1.01699 0.000230855 1.30231e-21)
(1.01381 0.00343583 -2.06852e-22)
(1.08944 -0.0300499 1.36914e-20)
(1.02377 0.0155599 -1.06027e-22)
(1.00783 7.8768e-05 -1.43778e-22)
(1.07553 -0.0154604 0)
(1.08599 0.0280923 -7.31317e-21)
(0.776122 0.0847409 -6.66742e-21)
(0.824217 -0.00712811 0)
(0.685921 0.0126331 0)
(0.429307 0.0482479 0)
(1.0065 0.000106074 3.55315e-22)
(0.442485 0.0187796 0)
(1.00481 -3.12644e-05 -3.88215e-23)
(0.1116 0.112213 0)
(0.860443 0.00252865 1.42085e-21)
(1.00377 -0.00523101 2.72237e-23)
(1.05368 -0.0242834 -4.54097e-24)
(1.00285 1.6089e-05 0)
(1.06792 0.0261006 0)
(1.05284 0.0101851 5.83657e-21)
(1.00917 -0.00183436 0)
(1.00426 0.000124762 -2.88368e-22)
(1.01302 0.000346197 0)
(0.855728 -0.0100473 0)
(1.01464 0.00517596 0)
(1.06821 0.00557924 -1.16133e-20)
(1.01818 0.0119351 3.82581e-22)
(1.00766 7.36192e-05 2.80048e-22)
(1.00333 1.44981e-05 4.02064e-22)
(0.971568 0.045254 0)
(0.658498 0.0253014 -2.14269e-20)
(0.203508 0.12627 -2.08923e-20)
(1.08488 0.00503214 2.22858e-20)
(1.05435 0.0296458 3.03379e-21)
(0.856433 0.0070129 -2.341e-20)
(0.489677 0.0185468 1.09375e-20)
(1.00932 0.000937653 -4.69604e-22)
(0.641443 0.0365817 7.97083e-21)
(1.01255 0.000143297 -1.03729e-21)
(1.05001 -0.000566795 -1.51769e-21)
(1.02185 0.00699658 -2.30508e-23)
(0.862259 -0.00316421 5.77206e-21)
(1.01218 0.00381495 -6.90032e-23)
(1.02611 0.0147253 9.33008e-23)
(1.03161 0.0051463 -3.55563e-22)
(0.790177 0.0979836 6.085e-21)
(1.06914 0.0286947 -2.21384e-21)
(0.647751 0.018394 1.10146e-20)
(1.00491 1.08536e-05 4.66292e-22)
(1.0671 0.0302957 4.495e-21)
(1.01348 0.00522605 3.00263e-22)
(1.00203 -4.6168e-05 -3.86283e-23)
(0.487908 0.0331527 -1.4841e-20)
(0.953277 0.109392 8.46432e-21)
(1.01332 0.00626773 0)
(1.12468 0.00961995 2.39139e-21)
(1.01899 0.00132787 -4.82113e-21)
(1.0084 -0.00687122 -9.36894e-22)
(1.00258 -3.04393e-05 3.19964e-24)
(0.503861 0.0315004 1.33518e-20)
(1.01484 0.00511705 3.48549e-22)
(1.02831 -0.0197421 -3.76376e-22)
(1.00841 0.00010205 1.44521e-22)
(1.01317 0.0057892 -5.61302e-24)
(1.10086 -0.025964 0)
(1.00305 -2.13949e-05 4.75595e-23)
(1.11556 0.00356867 4.87298e-21)
(1.00277 1.52827e-05 -4.74808e-22)
(1.00911 0.00105665 8.37299e-23)
(0.072306 0.127691 4.65858e-21)
(1.06822 0.00465576 0)
(1.01848 0.0138919 1.5183e-22)
(0.403699 0.0232686 1.15826e-21)
(1.05827 -0.0346854 3.21569e-21)
(0.963973 0.0595345 -1.77601e-21)
(1.10905 0.0428869 2.05343e-20)
(1.00977 0.001628 -1.39686e-22)
(0.997451 0.0209115 3.71333e-21)
(0.469294 0.0537095 -1.97926e-20)
(1.04131 -0.0275217 -4.8253e-21)
(1.02114 0.0405003 0)
(1.02204 0.0274469 2.39168e-22)
(1.02732 0.0155009 2.4508e-23)
(1.0034 3.70177e-05 3.04325e-22)
(1.01464 0.0021995 6.94577e-23)
(0.979745 0.0144395 0)
(1.09875 0.0224464 2.77705e-21)
(1.03948 0.0290805 1.64049e-21)
(0.261088 0.090008 -2.71757e-20)
(1.07015 0.0279548 -1.16086e-21)
(0.951802 0.0834287 0)
(0.63147 0.0438373 1.32366e-20)
(1.03193 0.0262825 0)
(1.06195 0.0420596 -3.0115e-21)
(1.12922 0.00346821 -1.16175e-20)
(0.465228 0.0201387 2.48516e-20)
(1.00943 0.00274359 -9.02886e-24)
(1.04105 0.0176587 1.56428e-23)
(0.975703 0.0137975 -3.73633e-23)
(1.00914 0.0010759 1.08652e-23)
(1.00483 8.01777e-05 7.80984e-23)
(1.00334 2.58947e-06 -3.11992e-22)
(1.02855 -0.0220267 -1.00637e-22)
(1.00995 0.000696613 2.92959e-22)
(0.446277 0.0184779 0)
(1.06389 0.0147781 -3.5836e-21)
(1.00731 0.000354848 -3.57581e-22)
(1.08152 -0.00752019 1.36514e-22)
(1.00518 1.22375e-05 -4.48488e-22)
(0.48307 0.0470377 6.45107e-23)
(1.00846 0.000912036 3.66135e-22)
(1.01386 0.00299126 -2.43057e-22)
(0.628046 0.0198999 -1.08995e-21)
(1.09031 0.020213 0)
(0.97809 0.0684172 5.08034e-21)
(1.03359 0.00700732 6.70721e-23)
(1.02694 -0.00986665 -4.26548e-23)
(1.01287 0.0035469 -2.42719e-22)
(1.03903 0.00915208 0)
(1.05923 0.0215422 0)
(1.0127 0.00311709 -6.59692e-23)
(0.451054 0.0211361 -4.58767e-21)
(1.04631 0.0411901 1.93164e-21)
(0.999697 -0.0104157 1.68026e-21)
(0.990798 0.0771424 -3.24033e-21)
(1.03923 0.0185109 0)
(0.690208 0.0134706 0)
(1.04201 0.0112602 0)
(1.00527 0.000192565 3.36513e-23)
(1.01363 0.00562212 -6.68322e-22)
(0.509356 0.0172966 0)
(0.496416 0.111459 0)
(1.04502 0.0307282 -3.09335e-21)
(0.450655 0.0191017 0)
(0.788129 -0.209765 0)
(1.00922 0.00110648 0)
(1.01331 0.00307121 -2.33244e-22)
(1.01946 0.0263915 7.52665e-23)
(0.900477 -0.0167148 -9.67965e-21)
(1.03092 0.0422185 1.10316e-21)
(1.06956 0.0303336 1.22361e-21)
(1.03834 0.0091017 2.67562e-21)
(1.04952 0.014763 8.16755e-21)
(1.04832 -0.000499021 0)
(1.02203 -0.0083124 0)
(1.11785 0.00891871 0)
(1.06403 0.0146897 9.9584e-21)
(1.01763 0.0166587 -6.34671e-23)
(1.03366 0.0167289 1.31327e-21)
(1.00515 0.000182536 -3.39994e-23)
(1.05859 0.0217829 0)
(1.02703 -0.0139796 0)
(1.03115 -0.018297 2.99857e-21)
(1.02784 0.0310751 -1.20155e-21)
(1.00819 -0.0204031 1.90087e-21)
(0.448629 0.0205706 7.79381e-21)
(1.00189 0.00546582 0)
(0.785774 -0.217045 -2.89393e-21)
(1.02253 0.0263982 -1.71181e-22)
(1.00041 0.0358336 1.08914e-21)
(1.04815 0.0263733 2.18673e-21)
(1.04256 -0.0272471 4.9021e-21)
(1.00361 1.20556e-05 2.10487e-22)
(1.06038 0.00947304 -1.77806e-20)
(0.683302 0.0211024 3.44585e-20)
(0.974618 0.06205 2.11101e-23)
(1.02298 0.00670777 1.13247e-21)
(1.02891 0.030953 -6.02989e-22)
(1.00812 0.000361042 -3.22565e-22)
(1.02014 0.0052928 2.06038e-21)
(1.03143 0.00419737 -4.21165e-21)
(0.991276 -0.00279029 -3.94648e-21)
(1.03816 0.0187593 0)
(1.01267 0.0503448 -1.82764e-20)
(1.11819 0.0052934 -2.53619e-21)
(1.00948 0.00158575 -1.51898e-22)
(1.03128 -0.0221161 2.8191e-21)
(1.05781 0.0124584 4.99541e-21)
(1.05724 0.0148094 9.78153e-21)
(1.12519 0.00557581 0)
(1.01271 0.0101888 2.33111e-22)
(1.06097 0.00728084 -5.41488e-23)
(0.925654 0.150667 2.35428e-20)
(1.00701 -1.27273e-05 0)
(1.08909 0.0187352 0)
(1.10503 0.066411 6.91286e-21)
(1.06402 0.0147898 -1.70493e-20)
(1.01279 0.00210939 1.28732e-22)
(1.01063 0.00176407 -4.49982e-22)
(1.0146 0.00227044 2.36882e-22)
(0.422089 0.0224312 -7.12247e-21)
(1.03254 0.0156697 2.38388e-21)
(1.00799 -0.00025336 0)
(1.06369 0.0141491 0)
(1.01286 0.0032602 6.3074e-23)
(1.01173 0.00219027 -1.87232e-22)
(1.12644 0.0303399 -5.37562e-21)
(0.947593 0.139939 1.26761e-21)
(0.985226 -0.0112986 -5.54396e-21)
(0.669774 0.0779372 0)
(1.01501 0.056596 6.63173e-21)
(0.939066 -0.014042 0)
(1.03181 0.00386563 5.92079e-21)
(1.01154 -0.00857716 -6.50886e-22)
(0.90399 -0.00229653 1.8101e-20)
(1.0042 -0.00748495 2.41866e-23)
(1.00261 0.0231904 9.3014e-22)
(1.0036 1.085e-05 1.12702e-22)
(1.00481 5.04632e-05 -2.59187e-22)
(1.03237 0.00786574 1.4816e-21)
(1.02635 0.0323529 0)
(1.00828 0.0507362 1.14286e-22)
(1.01268 0.00211383 1.21237e-22)
(1.05545 0.0236052 -2.74787e-21)
(1.01894 0.000335193 0)
(0.860585 0.0387183 -1.65451e-22)
(1.02345 0.0265727 -5.69256e-22)
(1.05859 0.0157965 9.93047e-21)
(1.01031 -0.00400177 0)
(1.08804 0.00325734 1.73124e-20)
(1.00134 0.0188906 2.8551e-21)
(0.562579 0.034279 -2.30582e-20)
(0.982578 -0.00940119 5.78753e-21)
(1.00252 3.85453e-05 0)
(0.470213 0.0527446 1.18302e-20)
(1.03322 0.0177296 1.72082e-21)
(0.474005 0.0189403 -6.85518e-21)
(1.0525 0.00918659 0)
(0.972546 -0.00688861 -7.13603e-21)
(1.01907 -0.00641805 0)
(1.01089 0.00277107 0)
(1.02271 0.00630262 -1.20959e-21)
(0.650106 0.00602867 -7.28285e-21)
(1.05798 0.0230505 8.59181e-22)
(0.963924 0.0673697 0)
(0.682511 0.0291561 0)
(1.01989 0.00511041 4.30187e-23)
(1.06425 0.0147655 1.11138e-20)
(1.00745 -0.000318548 1.11996e-24)
(1.00323 0.01292 7.53819e-22)
(0.979404 0.10928 5.07164e-22)
(1.00764 -0.000334799 -2.23569e-25)
(0.275551 0.0696305 0)
(1.05066 0.013666 5.2605e-21)
(0.97185 -0.00361987 4.68002e-21)
(1.09409 -0.00852279 0)
(1.00699 -0.106143 0)
(1.00952 -4.94139e-05 -2.49836e-22)
(1.00533 0.000161098 -3.94882e-22)
(1.107 0.0940822 -5.63969e-21)
(1.00971 0.00166602 0)
(1.0175 0.012311 -1.43577e-22)
(1.02654 0.0228506 0)
(1.01409 0.0028888 -9.4185e-22)
(1.06385 0.0137992 0)
(1.00927 -4.1291e-05 5.38247e-22)
(1.00274 0.0284757 1.12244e-20)
(1.01694 0.0164575 1.24511e-22)
(0.433334 0.0248168 3.76663e-20)
(0.473223 0.018931 0)
(0.928437 -0.0898923 2.33628e-21)
(0.910315 -0.0118932 -5.74948e-22)
(0.57369 0.105746 -3.07949e-22)
(0.419563 0.0258997 -3.33529e-20)
(0.922415 -0.128445 0)
(1.00874 0.000966387 -1.42464e-22)
(1.01069 -0.0083462 -6.48464e-22)
(1.02659 0.00752949 1.64204e-21)
(1.02956 0.0190709 -2.08107e-21)
(1.0133 0.00405578 -1.07025e-21)
(1.05877 0.0226893 0)
(1.0145 0.00628598 2.59137e-22)
(0.980829 0.0859134 -4.02067e-21)
(1.01781 0.0128038 -3.0994e-22)
(0.929508 -0.0238785 1.1708e-20)
(1.03222 0.0148533 0)
(1.06308 0.0146331 1.37302e-20)
(1.08875 0.0992076 -7.52053e-21)
(1.01166 0.00338299 7.48151e-24)
(1.03897 0.059248 -1.53894e-22)
(1.03279 0.0180916 -3.68452e-21)
(1.00408 0.000102781 9.81697e-22)
(1.0518 0.0235616 5.36802e-21)
(1.01416 -0.00775381 -1.42314e-22)
(0.707589 0.0153442 1.32857e-21)
(1.10158 0.021564 9.41756e-21)
(1.05259 0.048364 1.82025e-21)
(1.01275 0.00310629 0)
(1.0239 0.000722616 4.16833e-21)
(1.01449 0.00154391 0)
(1.01918 -9.81353e-05 0)
(0.362511 0.0689019 0)
(1.00894 0.00102054 2.0066e-23)
(0.965379 0.119789 -4.14875e-21)
(1.01206 0.0037781 1.00313e-22)
(0.900732 -0.0674221 1.51747e-21)
(1.0011 0.0129026 -2.37909e-21)
(1.01315 0.00548725 -1.57671e-22)
(1.05994 0.00888191 -4.77861e-23)
(1.00625 0.0201607 -1.10523e-21)
(1.00911 0.0010873 -1.13181e-22)
(0.9785 0.0891242 0)
(0.671216 0.0324022 -1.82244e-20)
(1.01456 0.024634 1.47887e-21)
(1.08503 0.00137035 0)
(1.00952 0.00176013 -3.47211e-22)
(0.972587 0.109746 2.96903e-21)
(1.02008 -0.0115482 -1.0816e-22)
(1.01845 -0.000165737 0)
(0.465719 0.0312142 0)
(1.00453 4.5589e-05 3.168e-22)
(1.03787 0.0132882 0)
(1.08283 -0.00605476 1.18371e-22)
(0.457288 0.0280837 1.64889e-20)
(1.02222 -0.0140649 -9.48572e-23)
(0.89137 -0.157196 0)
(0.861291 0.00196825 1.19942e-21)
(1.02795 -0.00200234 -5.00718e-23)
(1.01188 -0.00074955 -1.35866e-21)
(1.0141 0.00294817 9.9352e-22)
(0.891996 -0.018381 7.34301e-21)
(1.02308 0.00107273 2.26496e-21)
(1.07575 -0.017718 0)
(1.02745 0.0101611 -6.95869e-23)
(0.606436 0.0191239 -6.41147e-22)
(1.00091 0.0159389 6.58014e-23)
(0.51699 0.0344201 0)
(1.01543 0.00290899 0)
(1.01348 -0.00186871 0)
(0.919268 -0.123876 -1.69338e-21)
(1.01025 0.000504595 0)
(1.00188 0.00389831 0)
(0.739835 0.00406308 -3.00879e-21)
(1.02163 0.0221849 -2.33104e-22)
(1.01014 0.00182063 0)
(0.810489 -0.120146 0)
(1.02848 -0.000333075 7.77757e-24)
(1.01201 -0.00970446 -1.19005e-23)
(1.0971 0.0203777 0)
(1.02479 0.023338 5.12609e-22)
(0.683427 0.0115611 -7.14061e-21)
(1.04351 0.0569504 0)
(1.05729 0.00533511 -5.87702e-21)
(1.12449 0.047151 -1.68749e-20)
(1.04872 0.0149658 5.00827e-21)
(0.60398 0.0153728 6.75068e-21)
(1.01682 0.0177919 7.26106e-23)
(1.09269 0.0194376 0)
(1.02152 0.00345609 2.19391e-21)
(0.491138 0.0202797 0)
(0.897046 -0.0652157 -1.77343e-21)
(1.03521 0.00663164 0)
(1.01791 -0.0116666 0)
(1.006 -0.000567778 -4.56408e-22)
(1.01925 0.0146357 0)
(1.01666 -0.00963801 -1.3871e-22)
(1.0159 0.0014938 -1.52343e-22)
(1.01374 -0.00395422 8.05333e-22)
(1.0227 0.00568475 -1.16201e-21)
(1.05335 0.032849 -7.73201e-21)
(1.0069 -1.23264e-05 6.53035e-23)
(1.02187 0.0213795 -2.54344e-22)
(1.0747 0.000827208 -1.32859e-20)
(0.362639 0.0556943 0)
(0.546715 0.0338779 2.57601e-20)
(1.08185 -0.00371634 -7.37589e-21)
(1.01398 0.00202734 0)
(0.912257 -0.118553 0)
(1.01408 0.00551255 0)
(0.927301 -0.0064398 -2.39087e-21)
(0.995068 0.120276 1.68033e-21)
(0.266726 0.0232809 0)
(1.00912 0.00127727 1.35589e-22)
(1.0089 0.00102898 1.45899e-22)
(1.01649 0.000998347 0)
(1.01482 0.0102898 -7.87521e-23)
(1.00895 0.00116092 0)
(1.0108 -0.00716123 1.80764e-22)
(1.01657 0.00581586 9.35088e-22)
(1.06325 0.0432067 3.22151e-21)
(1.01021 0.00190336 1.2544e-22)
(0.329726 0.110607 7.54608e-22)
(0.846331 -0.1284 -2.04526e-21)
(1.01093 0.00199178 -2.91036e-23)
(0.665926 0.00604689 6.43341e-21)
(1.02192 0.00353799 -2.29933e-21)
(1.01497 0.00255192 7.4247e-24)
(1.00233 0.0162915 8.86485e-22)
(0.510372 0.0331251 0)
(1.04708 0.081864 4.027e-22)
(1.00366 -1.65748e-05 2.07368e-22)
(0.988352 0.044839 -1.86918e-21)
(1.01131 0.00446701 2.61913e-22)