/*--------------------------------*- C++ -*----------------------------------*\
| =========                 |                                                 |
| \\      /  F ield         | OpenFOAM: The Open Source CFD Toolbox           |
|  \\    /   O peration     | Version:  v2012                                 |
|   \\  /    A nd           | Website:  www.openfoam.com                      |
|    \\/     M anipulation  |                                                 |
\*---------------------------------------------------------------------------*/
FoamFile
{
    version     2.0;
    format      ascii;
    class       volScalarField;
    location    "750";
    object      ddt0(omega);
}
// * * * * * * * * * * * * * * * * * * * * * * * * * * * * * * * * * * * * * //

dimensions      [0 0 -2 0 0 0 0];


internalField   nonuniform List<scalar> 
13917
(
0.0091417
0.000580642
-0.00610514
-4.73665e-06
4.96624e-05
0.0005084
-7.62541e-06
0.00711701
-1.05749e-05
2.08316
0.00169203
-4.499e-06
-1.59985e-05
0.123083
-0.000133476
0.0269427
2.30229e-05
0.00121348
-0.000395938
0.422038
2.86932e-05
-9.01687e-06
1.7309e-05
-9.42534e-06
-3.53723e-06
3.93992e-05
0.144451
0.400533
0.000256411
-2.99801e-05
-0.0557441
-0.000204148
-4.33287e-06
0.011225
-1.51027e-05
-0.0130964
-1.76124e-05
-5.15174e-06
-5.96002e-06
-7.3746e-05
7.04675e-06
1.14088e-05
-8.12064e-06
-0.000870807
-0.000873324
-0.0838613
2.12671e-05
-1.06633
0.0365345
-1.53774e-05
-4.90579e-06
-0.000994516
0.0445078
-9.88094e-06
-1.00115e-05
-0.0011017
55.0239
1.26299e-05
8.89965e-06
-0.0650734
-0.10912
0.0020288
-6.1584e-06
-3.24786e-06
0.000844075
-0.11326
0.000368953
0.0174875
0.000935077
0.0189994
0.0232581
0.0132717
-4.29169e-06
-2.73292e-06
2.38221e-05
-4.10172e-06
6.69852e-06
3.51678e-06
-4.077e-06
-4.33092e-06
-1.52082e-05
2.2091e-05
-4.27464e-06
0.00731626
-3.54157e-06
0.00465321
-0.000181326
-6.34516e-06
-7.94544e-05
2.40162e-05
5.68453e-06
-8.41505e-06
0.00634186
-5.32947e-06
-1.65947e-05
0.00018477
0.212106
1.75017e-05
-5.65236e-06
0.000684517
2.25324e-06
1.92108e-06
-1.73451e-05
1.33998e-06
4.01427e-06
0.0552
0.0113763
0.0018831
3.32779e-06
0.0377897
-4.70908e-06
0.0110056
0.000123967
-0.660423
0.00124077
-1.92866e-06
-0.000322593
9.09073e-06
-0.00165582
-3.85177e-06
2.26852e-05
-3.54416e-06
0.000139473
8.56778e-06
0.025086
-0.000150135
-3.42136e-06
-1.41171e-07
-4.47888e-06
-4.57309e-06
-1.7614e-05
0.0143854
-0.0435946
-2.39001e-06
-0.000331171
-0.00534368
0.049934
0.0236399
6.56896e-05
-5.16198e-06
0.0716633
-1.25192e-06
0.057538
-4.78794e-06
-4.04341e-06
0.000197467
0.0195548
-0.0816916
-0.260358
-1.00788e-05
-4.0859e-05
6.40848e-07
-4.01359e-06
-3.88825e-06
0.106183
-2.70387e-05
1.65719e-06
-0.0420227
1.22136e-05
1.12079e-05
-3.25195e-06
-0.0389108
-2.17169e-05
0.0402297
-0.128789
-0.0150816
0.0470683
-1.41469
3.39486e-07
4.14156e-05
-1.02477e-05
-0.0446216
-1.03469e-05
-0.266777
0.000250754
6.22948e-06
-4.89826e-06
-0.00178731
-1.58196e-05
-1.52581e-05
-7.9877e-06
-1.02674e-05
-4.93204e-06
-0.00460314
-0.000999107
0.0129613
-5.16337e-06
-0.00555047
-1.15836e-05
-0.0101662
0.000382016
-0.000777127
-0.000400651
0.0207595
-6.48263e-06
0.023414
-1.84587e-06
-0.0372991
-1.27062e-05
-2.34271e-05
3.11553e-05
0.0171597
0.0327995
-2.72988e-05
0.168685
0.00015787
-4.45273e-05
-1.96091e-06
-0.00192882
-1.50896e-05
-3.21151e-06
0.000488447
-0.00312714
-0.570437
-0.000321784
-4.44001e-06
-0.0105144
-8.23951e-06
2.07964e-06
1.94922e-06
-1.35539
-0.00153416
-0.0146576
-3.66304e-06
-4.61533e-06
-0.039996
0.0257273
1.46738e-06
1.17317e-06
6.61131e-06
2.02782e-06
1.89149e-06
0.0134718
-0.253175
-7.26492e-06
5.85564e-07
5.92263e-05
0.0141931
1.83327e-05
-3.80624e-06
0.10083
0.0469608
-0.00210033
-0.00532348
0.000708922
-4.60281e-06
-1.30065
4.50275e-05
0.000185481
-8.04906e-05
-2.56047e-05
-0.33342
-3.97604e-06
4.69335e-06
0.000279059
-7.21515e-06
5.06493e-06
-3.58399e-06
7.40072e-05
-6.53834e-07
0.0130096
-0.0137035
-7.85782e-06
1.07733e-06
-2.46309e-05
1.0701e-06
-3.94281e-06
-1.52497e-05
2.14701e-05
-9.99514e-06
0.0127023
-0.000383245
-4.88559e-06
1.31933e-06
-0.1366
3.45109e-06
-0.00120389
0.00663867
3.21675e-06
0.0165838
1.1198e-06
-0.043624
5.1352e-06
-9.36424e-05
-7.36372e-06
-5.57568e-06
0.00097242
2.87844e-06
0.0324267
-4.50234e-06
0.0111133
0.000220348
0.341683
0.0267903
1.18738e-05
3.42369e-05
9.215e-05
-1.13734e-06
7.55715e-05
-3.77899e-06
-3.86189e-06
-2.19811e-06
-0.00110255
-0.000653108
8.44146e-06
-4.45715e-06
-3.77663e-06
-0.0419227
0.0205865
-5.13071e-06
-0.00219692
-1.7165e-06
0.0445856
0.000638106
0.010446
-0.246354
-0.0682549
0.00444228
-1.04184e-05
0.0154598
-0.0236597
-0.00525692
-1.46691e-05
-0.000127025
0.209232
-1.64111e-05
0.000911955
-0.000590638
2.08481e-05
-0.044382
-4.20357e-06
-4.89004e-05
9.11254e-06
-0.603622
-2.60715e-06
2.67779e-06
0.000155327
-0.0567063
2.11131e-05
-0.000107491
0.0910493
-1.46039e-05
-1.68657e-05
0.00841364
0.0833889
0.00157716
0.112362
2.88494e-06
-8.62264e-06
0.0386324
0.00287194
2.43442e-06
6.30672e-05
-7.24561e-06
-0.000580378
1.74057e-05
-0.000349053
0.000744675
-0.00127017
-4.575e-05
0.0146042
-4.52275e-06
-1.45491e-05
-0.000133873
-0.00014676
1.75598e-05
0.0295309
-4.61592e-05
-0.000170408
-1.09074e-05
0.00256742
-0.00148554
0.203422
1.33805e-05
-0.00845056
-0.291868
0.000276113
-5.29645e-06
-0.0398857
1.2592e-05
-0.348637
-0.000410406
1.3565e-05
0.217513
-6.24841e-06
0.0824915
-1.28166e-06
0.362963
0.0945569
-1.32437e-05
-0.0285471
-0.00141549
-2.47149e-05
0.00592965
0.00231405
-1.13398e-05
0.000241282
-9.00357e-06
-0.00160731
-0.00635548
-4.19956e-06
-9.70345e-06
-3.8318e-06
-4.93083e-06
-3.38944e-06
-5.20495e-06
0.108584
-0.0136913
-1.23127e-05
-4.92008e-06
-8.72231e-06
7.22e-05
0.287113
7.87437e-06
4.40588e-07
0.000429866
0.00153743
-5.79604e-06
-1.35371e-05
0.0564683
-0.372472
-0.070989
-0.000604285
0.0799997
2.3563e-06
5.53287e-06
7.15663e-05
-3.36763e-06
7.1239e-06
-7.41216e-06
5.52697e-06
2.15515e-06
-1.09464
-9.94716e-06
-0.0001128
0.00559437
5.89328e-05
-3.39756e-06
-3.91983e-06
-0.00695108
2.06962e-05
0.0314843
7.66837e-06
-3.42207e-06
1.34553e-05
1.7497e-06
-1.81802e-05
-6.0094e-06
0.0839878
-0.00138934
0.0448852
-3.33159e-06
-1.00685e-05
-0.000182624
-1.25497e-05
0.000450725
0.0190152
-6.85152e-06
-0.148509
-3.46933e-06
-5.17948e-06
-9.68378e-06
-6.63956e-06
-3.28665e-06
-8.49849e-06
-0.0445373
-0.312555
-3.1335e-06
0.434337
-0.000257667
-6.09147e-06
5.9055e-05
-8.98004e-05
-0.0114804
-8.81999e-06
0.0453465
-0.00967315
-0.00556367
-5.9717e-06
-0.0922821
9.6216e-05
-2.64441e-05
-0.118038
7.62046e-06
-9.04133e-06
-1.65028e-05
-1.04801e-05
5.46553e-06
-0.0021347
-3.45769e-05
6.09058e-05
3.5483e-05
-0.000502392
-0.000140596
-1.25315e-05
0.140094
2.33196e-05
-3.22056e-06
-0.484674
-3.98833e-06
-9.74523e-05
-0.00167557
-2.90902e-06
-0.0374104
-5.49737e-06
1.65328e-06
0.00010009
6.3253e-06
-9.0832e-06
-0.00107762
-0.0312371
-0.076086
-3.36934e-06
-5.92494e-06
-6.4761e-05
-0.166281
0.113042
-1.15305e-05
-1.00222e-05
-3.25074e-06
0.000140377
-0.0573316
-4.79895e-06
1.8674e-05
-2.30275e-05
-4.7912e-06
-0.000275184
-2.71412e-06
1.11897e-05
-4.66834e-05
-2.95464e-06
-7.74807e-06
-4.33699e-06
0.0163467
-1.205e-06
-7.12017e-06
-1.63083e-06
-7.72614e-06
8.54127e-05
-0.000791935
0.000331363
0.000865675
-5.10576e-06
0.000929857
-0.0344462
-0.53352
-0.00349855
-5.93992e-06
-1.03442e-05
0.00115036
-3.64537e-06
0.00125395
4.36201e-06
-0.042616
-2.88033e-06
-0.0303432
-0.00173598
-8.27069e-06
-3.22294
-3.43018e-06
-0.000139233
1.52425e-05
1.56203e-05
-0.0383214
4.21874e-06
0.00272864
-3.96221e-06
-9.12527e-06
-1.01506e-05
-0.00250173
-0.000139111
3.76302e-07
-0.000688652
5.73424e-05
0.116052
0.0199144
-0.0339441
-0.0210272
-1.23053e-06
0.0237693
-1.33586e-06
-0.00457739
-0.160777
3.64019e-05
0.000321983
1.62991e-06
1.48723e-05
-7.75307e-06
5.60252e-06
1.38824e-05
-1.60004e-05
0.00785863
-3.66285e-06
-0.000173003
-8.7929e-06
2.85477e-07
1.45944e-05
0.0217083
-0.0654793
-1.00108
-0.000146772
-3.92667e-06
0.0519275
0.0126195
-1.26206e-06
-0.048056
-1.50714e-05
0.000278105
-3.84794e-06
-0.0832639
-4.7641e-06
-0.000283197
-4.25805e-06
-0.0666552
2.06323e-05
-0.0070505
1.13392e-05
1.5547e-05
-1.17363e-05
5.86062e-07
0.0141643
-0.0138535
-1.57938e-05
-0.000468347
-3.80583e-06
1.14589e-05
-8.62727e-07
0.0132279
-3.77361e-06
9.31602e-05
4.46601e-06
-1.38763e-05
0.000227052
3.79432e-07
0.000273909
2.24595e-05
-2.5976e-06
0.0598787
-0.000183266
-1.11405e-05
0.114223
-0.000168192
0.0868919
-0.00176711
-3.3152e-06
-0.000128397
0.0197668
0.00650501
4.1444e-05
-1.60145e-05
-0.000357986
2.01926e-05
-6.71936e-06
-0.041597
4.42112e-05
7.56502e-08
-0.988641
3.57375e-05
0.617611
0.106814
0.00124487
4.77228e-06
0.000197064
0.0155187
-4.05614e-06
-0.000378947
-0.0309787
-2.64088e-06
9.80848e-06
1.42165e-05
-7.86851e-05
-9.13002e-06
0.021832
-2.88691e-05
-2.42707e-06
-0.000487389
9.08782e-06
0.00604009
1.73891e-06
-4.40972e-06
-0.0346414
3.79909e-05
-0.0209695
-4.40161e-06
9.53986e-06
-6.21142e-06
-5.31765e-06
-4.94233e-06
-6.50774e-06
0.032658
-1.26787e-05
0.0320148
-0.0161437
-0.000679655
-0.030152
-5.82602e-06
5.38894e-06
-1.20088e-05
0.00214516
-0.0373845
-3.17748e-06
0.0326969
-0.056114
-2.62691e-06
-4.66526e-06
-2.20557e-05
0.0617534
-0.0247398
3.36731e-05
-5.12182e-06
-6.94079e-06
0.000290293
-1.59607e-05
-2.34217e-05
-2.82185e-05
-1.62373e-05
-4.49213e-06
7.85912e-06
-6.01349e-06
3.39657e-05
-0.000582084
-2.13474e-06
0.000142285
0.0304039
1.1792e-05
-0.0533597
-1.38303e-05
0.000147778
-3.70188e-06
0.00716743
2.28973e-05
-0.000123321
-0.0665043
0.0117214
-3.38852e-06
-2.24429e-06
-1.08538e-05
-3.77316e-06
-4.13634e-06
-0.000543776
-0.00131679
0.00756521
7.57359e-05
-3.43142e-06
0.00209006
-1.04931e-05
-1.02208e-05
1.95169e-05
-8.87433e-06
-0.000146866
0.240647
-4.34225e-07
2.63174e-05
0.000583173
-2.76681e-05
-4.6223e-06
-3.13822e-06
-6.42189e-06
0.0192204
-4.42186e-06
3.15942e-06
-4.8285e-05
-6.74509e-06
-3.33928e-06
-0.000871396
0.0245176
-0.00303355
-0.248442
-0.000447837
0.0294082
-4.17039e-06
1.66403e-05
-0.0251478
1.01191e-05
-0.00211328
2.09562e-05
8.61236e-06
-4.15263e-06
-1.71376e-06
-0.000993093
-4.42777e-06
-0.134064
-2.24793e-05
-0.244173
-1.25639e-05
-1.04238e-05
9.60166e-06
-7.93203e-05
-0.000104988
-0.0333407
-0.00420338
2.58802e-05
0.0157943
-4.6856e-06
0.0166421
-7.50116e-06
0.00569797
-1.67272e-05
-6.06618e-06
-3.44265e-06
-0.0339938
-5.94619e-06
0.160247
-0.281329
-3.65628e-06
-2.72303e-05
5.8266e-07
0.000187448
-0.080756
6.24838e-07
-0.728444
-7.51953e-06
0.000963711
-8.75076e-05
0.373997
-4.19778e-07
6.81843e-06
0.000580812
-3.59063e-06
-9.44937e-06
-1.02239e-05
-1.12122e-05
-4.84573e-05
-2.59e-07
-0.0114081
-1.6057e-05
0.0151365
0.0174419
-0.0911532
0.0371674
-0.162429
0.0198682
0.0404201
-2.5974e-06
-8.06646e-07
-3.3945e-06
-6.22793e-06
-3.33152e-06
-4.19313e-06
-3.85733e-06
0.191939
-9.92545e-06
0.263777
-4.46831e-06
-1.90334e-05
0.000328483
-7.14913e-06
-0.000129639
-4.6227e-06
-1.68514e-05
-5.77799e-06
1.6552e-05
-0.0177315
1.31098e-05
-0.0716256
-5.17348e-06
-3.65385e-06
-1.33998e-05
-2.52544e-05
-0.212584
-2.59172e-06
-0.00903868
-4.50435e-06
-0.0101332
-8.31777e-05
-4.01737e-06
-0.000140231
0.000562668
-2.62868e-06
0.0061211
-0.0835945
-3.56398e-05
-0.000136292
-3.97426e-06
-0.00155871
-9.00185e-06
-2.36165e-05
0.0145951
1.20893e-05
-4.80154e-06
-0.000325772
0.0142954
2.25881e-05
0.0136827
-0.0685952
6.13731e-06
-5.86837e-06
-1.08941e-05
0.0977798
-3.61408e-06
-0.000794431
-3.88488e-06
-0.0387969
-9.86626e-05
0.190458
-5.14565e-06
4.13982e-06
0.0807458
-1.11082e-05
8.1587e-05
-0.0250467
-1.72489e-05
-3.39851e-06
-0.0113487
3.02682e-06
-1.77763e-06
5.68512e-05
-1.23106e-05
-0.000825492
-6.77574e-05
-0.000102742
-0.000681661
-7.42609e-06
-0.0412535
-1.92844e-05
5.44932e-05
-3.0789e-06
0.00780788
-0.0104269
-4.75112e-06
-7.6448e-06
4.52245e-06
-1.14453e-05
4.54569e-06
5.86779e-06
-6.94873e-06
-3.28813e-06
-3.60056e-06
-3.88369e-07
-1.61239e-05
-0.000244659
-0.132956
-0.0295517
-0.000348479
-1.32082e-05
0.0570852
-3.66343e-06
-0.0138142
-0.0662429
-0.0203105
1.28328e-06
-2.63522e-06
-6.25484e-06
-7.74392e-06
1.5456e-06
1.12165e-06
-4.33972e-06
2.55627e-05
-3.44997e-06
1.76736
-0.0127672
-4.22274e-06
-0.0334208
-3.18654e-06
-5.72523e-06
0.000920511
0.0132122
-0.000197107
1.01476e-05
-0.0288531
-1.19604e-05
-4.77645e-06
0.00671531
1.28396e-05
-0.0804258
-4.82929e-06
-0.0251067
-3.16391e-06
-6.75597e-06
2.05599e-05
0.21617
-5.45525e-06
0.00992397
0.0017684
-5.65058e-06
-2.98042e-06
-3.50611e-06
-2.94268e-06
-0.000335111
-2.66093e-05
6.11998e-07
-0.00518185
0.8009
0.125556
-0.00027975
-7.33479e-06
-0.00513691
-3.55426e-06
-0.0455248
9.28085e-05
-9.56221e-06
-5.85372e-06
0.393267
-0.0888321
-0.0266758
0.000206933
-0.280392
1.29249e-05
-3.99219e-06
-2.95342e-05
-1.58543e-05
-3.93801e-06
0.135974
0.0150073
-6.39735e-06
-1.28682e-05
0.0144848
-3.61709e-06
1.85375e-06
-0.0336233
-0.00689077
-6.37103e-06
-1.23645e-06
-6.88132e-06
-3.75592e-06
-4.909e-06
-0.00114396
-4.38495e-05
-3.32324e-06
0.0164419
0.000178169
-0.033092
-0.0656835
0.00118444
0.00875935
-4.57651e-06
-4.51433e-06
0.00831966
0.0177077
0.0505653
-0.00152096
3.96748e-05
-5.03399e-06
-4.66923e-06
1.8702e-05
-0.0216672
-0.000984747
-2.00987e-05
-4.9902e-05
-5.02137e-06
0.0103734
-3.29797e-05
-0.000312498
-0.000118313
-0.0278253
-0.0209146
0.0953478
-0.0160549
-2.75488e-06
0.0435075
2.0129e-06
3.26742e-05
7.8961e-05
-0.0757011
-5.165e-06
8.08538e-06
-2.52218e-06
0.335528
-2.27561e-05
-0.020501
1.50246e-05
0.000521593
-0.0699624
8.73557e-06
6.29186e-05
-1.08163e-05
-8.46293e-06
0.000328853
-0.00799436
7.82309e-06
-3.46584e-06
-5.56514e-06
0.0665485
-3.4708e-06
-1.88689e-05
-7.76052e-06
-1.89736e-05
-6.28305e-06
0.000398618
-0.000105869
-1.95436e-05
-5.64985e-06
-0.00500763
0.00286224
0.00025591
-0.0437048
-4.15584e-06
-3.47694e-06
-0.0891102
2.95093e-06
-2.01388e-05
-0.0175628
0.00311654
-9.43989e-05
-7.35439e-06
-6.8739e-06
0.0401871
-0.0127745
4.17647e-06
0.0251942
-5.42643e-06
7.32396e-06
-0.0559604
-0.000342726
-0.115338
0.581987
2.89015e-06
-8.50549e-06
-1.80226e-05
-6.36706e-06
-7.67155e-06
0.000469338
1.20932e-05
3.41721e-05
-1.38068e-06
-0.000110294
-0.00977092
-1.38727e-05
-0.10179
-0.169513
-3.4069e-06
-0.000105101
-5.38689e-05
-1.27176e-05
-3.90255e-06
-0.00497769
-7.06478e-05
0.0140084
3.85405e-06
-0.41619
0.000591553
1.87592e-05
-0.161015
1.72885e-05
0.000215526
-4.32918e-06
-0.0338038
-3.81929e-06
-1.09645e-06
1.45933e-05
-4.96151e-05
-5.0289e-06
-5.35088e-05
0.154449
-3.56238e-06
0.0100845
-0.00928335
-9.43037e-06
-3.42971e-06
-6.40723e-06
-0.259165
-0.00798886
-5.37364e-06
-1.80153e-05
-0.000499158
0.206646
0.0328736
-3.64903e-06
-3.42667e-06
2.23269e-06
-3.53123e-06
-1.95239e-05
-2.29403e-05
-0.12286
-2.51695e-05
-6.74307e-06
-0.00212771
-0.000799738
-0.000193564
-0.0129088
-0.418241
-4.57108e-06
-3.11801e-06
-3.25816e-06
-1.66098e-05
-0.000113268
-0.00892999
-0.104062
0.000474222
5.22634e-05
-4.52493e-05
-7.78222e-06
0.0109067
-2.05879e-06
-0.000727618
-8.29993e-06
-0.00457631
0.0127344
-3.33316e-06
-4.50565e-06
0.00223678
9.33227e-05
0.00265298
-0.222189
-0.000191614
-6.12776e-06
-0.214542
-1.08135e-05
-4.43797e-06
-0.0173636
0.0788325
-8.38197e-06
-0.000118578
-1.12792e-05
-1.94026e-05
-4.25712e-06
2.55343e-07
-3.61088e-06
-3.51215e-06
-3.50805e-06
-1.53467e-06
-9.34957e-05
0.0219118
-3.00247e-05
-5.21059e-06
-1.30771e-05
0.00044447
-6.0626e-06
1.91608e-05
-0.0161801
0.00415291
-0.0123142
-2.52416e-05
6.93219e-07
0.00277292
-3.96133e-06
0.0517711
-3.61129e-06
-0.000112897
-8.92124e-06
-4.11683e-06
0.0111608
-4.124e-06
-2.53973e-05
-3.9518e-06
0.407466
0.0354013
0.0126562
-2.01808e-05
-6.92468e-06
0.503069
1.10688e-05
9.84814e-07
0.000857406
-0.0166229
4.59718e-07
6.58587e-06
-4.30856e-06
0.148216
-3.85908e-06
-1.6556e-05
-4.99388e-06
6.91307e-07
0.00502181
-3.90185e-06
-3.39707e-06
0.217933
-0.000138786
0.252881
0.00182748
-3.69782e-06
-3.87769e-06
-3.18025e-06
-6.80913e-06
-5.49027e-06
-9.8974e-06
-6.78551e-06
0.00201709
-3.68498e-06
7.38974e-05
0.000129992
0.000452756
-3.83771e-06
7.7743e-05
-4.70958e-06
-0.00886617
5.26289e-06
0.550492
-0.000206574
-1.0713e-05
-5.63306e-05
3.5198e-06
-3.75527e-06
-7.42087e-06
0.00032263
-3.84824e-06
-2.78716e-06
0.0179417
0.000215698
0.00074887
9.05393e-07
-1.31129e-05
-8.06673e-06
-0.000986259
-4.55925e-06
-0.00975079
9.4306e-05
-1.01424e-05
-3.81572e-06
-8.57165e-07
0.000100651
0.00414605
-0.111928
-0.00186691
0.00307038
0.000267011
0.000634698
-4.24302e-05
-0.055154
-1.44481e-06
4.72714e-06
7.97256e-07
-0.0272238
-8.12888e-07
0.00649958
-7.584e-06
1.4108e-06
0.0015098
-0.036551
0.0440271
-0.10666
-3.48699e-06
-0.00130548
0.00946412
5.5656e-06
-0.0543149
-3.14787e-06
5.37397e-06
0.117504
-1.28575e-06
0.00398934
-0.0145734
-4.40175e-06
-3.27272e-06
6.29278e-06
-0.0320381
1.23719e-05
4.22802e-07
-0.000307323
-4.00783e-06
-3.34068e-06
6.40771e-05
3.11983e-06
-4.06655e-05
-3.72681e-06
-1.51201e-05
-2.64094e-06
0.464667
0.0146059
-2.61217e-06
-2.64169e-06
-6.33622e-06
-3.93386e-06
-7.40869e-06
-2.02578e-05
2.28362e-06
-3.90107e-06
-5.63847e-06
-1.51157e-05
-4.70967e-06
0.000120769
-1.01884e-06
-6.40935e-05
-9.77003e-06
0.00104744
-4.92694e-06
-6.42403e-06
-5.97915e-06
6.33422e-06
-3.87217e-05
-8.32083e-05
-9.9122e-06
0.334114
-0.00474057
-0.0450577
-0.00516401
-0.000236921
0.0314901
-7.04766e-06
-4.47925e-06
0.340957
0.0279868
-1.35826e-05
0.0123655
-1.64892e-06
0.000442293
-0.100249
-6.7932e-06
5.56254e-05
0.181905
0.125959
7.41394e-06
-4.76034e-05
-4.50671e-06
0.0656299
-6.74998e-06
-0.0140013
0.513899
-6.13366e-06
0.00822957
0.138076
2.39696e-05
-0.152102
0.00776104
-9.86923e-06
-3.41691e-06
-0.0132453
0.00227013
5.28409e-06
-1.32014e-05
-1.05403e-05
0.0737126
-0.000378517
-8.14256e-06
-5.21079e-06
0.0719073
-7.06952e-06
-3.47864e-06
-4.66665e-06
-3.56317e-06
-0.31299
-0.000130268
-3.88753e-06
-0.00896207
-3.5104e-06
-0.000610848
-4.3057e-06
-0.0196714
0.0001014
0.0742494
-4.18383e-06
-7.43679e-06
5.84737e-06
5.85137e-06
-7.52726e-06
-7.2783e-06
-0.115428
-1.19821e-05
-3.79762e-06
-3.63232e-06
0.00223461
-3.35816e-06
-0.0168886
0.0879138
-0.037801
-1.46707e-05
-6.02527e-06
-3.90704e-06
0.0212353
-1.12827e-05
0.0315288
7.9582e-06
0.0207935
-1.47835e-05
-8.94133e-06
-0.00216075
-8.83128e-06
2.28336e-05
0.00683326
-0.000137815
0.00789961
1.24389e-05
-0.0226827
-0.313866
-6.81304e-06
0.00893994
-8.53811e-06
-6.9699e-05
-1.13876
-3.78721e-05
0.000338031
0.01349
3.83981e-05
-7.15701e-05
-3.88607e-06
0.20396
-3.35925e-06
-0.0456206
-3.84459e-06
0.0157526
-3.39984e-06
-4.97771e-06
-2.21988e-05
-0.303991
-6.2333e-06
-0.00242643
-0.000242559
0.210201
-4.45371e-06
2.81327e-05
-0.0426205
0.144415
0.183653
0.000114449
-4.56139e-06
0.000105172
-0.00425095
-3.87934e-05
0.0541666
4.98745e-06
-0.000629134
0.0130841
-7.04932e-06
0.0331579
-3.75434e-06
-0.0113604
-0.485434
-5.11577e-06
-1.24045e-06
-0.0573899
-0.0558766
-3.711e-06
-3.79332e-06
-3.74199e-06
-8.11123e-06
-0.000157425
0.00013301
0.00520835
-1.50343e-05
-1.91812e-06
0.000904995
-0.002941
0.128114
-0.296155
-3.908e-06
-3.17263e-06
7.74306e-05
0.0880085
0.130297
-0.0554426
0.000407846
-8.29362e-05
-0.00282646
-0.0350855
-0.0381968
-0.0574572
-3.52727e-06
1.32844e-06
3.51322e-05
0.000243891
-5.31923e-06
-1.07355e-05
0.000100983
-0.00556187
-0.0727601
1.98107e-06
-0.105135
-0.00642291
0.000105521
-3.44402e-06
-3.40318e-06
0.0799073
-6.77506e-06
-0.0392887
-2.57952e-06
0.00018126
0.0120974
-0.00532919
-2.6909e-06
1.40847e-05
-4.42626e-06
-5.02413e-06
-0.0182822
-0.00115024
-0.0209168
-1.29255e-06
0.00880588
0.0159322
-0.000973283
6.37408e-06
5.94384e-06
5.1442e-05
0.00232101
0.00126967
-0.000165986
0.00153961
-0.0236416
7.76919e-07
1.08434e-06
1.02678e-05
0.000155068
0.0293718
3.20392e-06
-2.66247e-06
-6.44857e-06
0.136862
0.00778272
-3.22397e-06
-8.58901e-05
0.00834932
-3.44466e-06
-0.00517796
-2.62329e-05
-0.0253962
-9.07655e-05
0.138291
0.01786
-5.61198e-06
-3.85518e-05
0.0153612
-3.43566e-06
0.000129631
0.0195344
-2.0109e-05
-0.00164923
-1.75737e-05
-0.000129086
0.125795
-0.0234095
-3.74127e-06
-0.0331524
-0.0161716
-1.13724e-06
8.36568e-05
5.09102e-05
0.00138782
-0.17633
0.132607
-0.0871611
-0.000388578
-0.0187033
2.40393e-06
-0.000120746
-4.70866e-06
-4.32469e-06
-5.63665e-06
-3.67855e-06
0.0119183
-0.00644221
6.54379e-06
0.000873432
0.00147707
-3.29557e-06
-0.0548338
-0.00461983
-2.31831e-05
-1.08583e-05
-5.32093e-06
-2.1753e-05
-4.36748e-05
-3.25742e-06
-0.752627
-4.27536e-06
0.000158934
-5.49043e-05
-2.94798e-05
-0.000728922
-1.5292e-05
-0.0418216
-5.29009e-06
-2.25079e-05
7.07641e-06
-2.90755e-06
-0.0408752
-7.23952e-05
1.12674e-05
-0.181963
-1.79952e-05
-1.19951e-05
4.71396e-05
-2.43148e-06
-7.26327e-06
-0.000272538
-3.1602e-06
0.0139527
0.249692
-0.149873
-4.02433e-06
-0.0754035
-4.39814e-06
0.0412939
-2.69212e-06
-0.00139108
0.335894
-5.91011e-06
0.0579433
0.0146087
5.9083e-05
-9.38935e-06
1.01819e-05
1.20286e-05
0.00517786
-3.40372e-06
-4.16536e-06
-2.20781e-06
-7.77885e-06
0.00117967
-9.67784e-06
-2.15181e-06
-3.38775e-06
8.21196e-06
0.000432453
1.10721e-05
-1.46892e-05
0.000208273
0.0440246
-0.0198
0.289515
-1.15206e-05
-1.86973e-05
0.0243249
-5.79989e-06
-2.61636e-05
-4.06408e-06
-0.00742149
-9.63917e-06
-2.10459e-05
0.000129601
-0.0385827
-3.33182e-06
-3.71803e-06
-1.47304e-06
0.000696775
1.72193
-2.26419e-05
-3.8283e-06
-4.20198e-05
-3.57049e-06
-0.0107528
-5.31215e-06
-0.0372745
-0.000119026
-1.78841e-05
0.00123503
8.27225e-05
-0.0419277
-4.97984e-06
2.61609e-06
-5.34427e-06
0.000278459
0.000723365
-3.87516e-06
-1.36725e-05
-1.25804e-05
0.0115767
-6.29422e-06
-7.89922e-06
-0.0230343
-1.64596e-05
-0.0013153
-4.44107e-06
-4.68491e-06
-1.91227e-06
-0.0575347
-7.62664e-06
0.179367
0.00411063
2.59088e-06
-0.824016
-8.27943e-06
-0.000547655
2.00187e-05
-8.96529e-06
7.73394e-06
2.51241e-06
-3.24334e-06
0.139167
-6.10496e-05
-0.00792836
-0.0162522
-4.12636e-06
-0.00234285
-7.09621e-05
0.28555
-3.19862e-06
0.0396312
-0.0284877
0.00494083
-2.06898e-06
-3.55676e-06
-4.46319e-06
0.113016
-0.0391376
0.00016597
-4.66156e-06
-2.78298e-06
-0.748362
-3.71735e-06
-3.55079e-06
-2.83587e-05
0.000342451
-0.0606954
-1.48953e-06
-0.0174512
-0.000124609
-3.36536e-06
-0.0501796
-0.000111986
-0.40458
0.343948
1.92343e-05
-8.05418e-05
-7.86885e-06
-1.0867e-05
-1.54966e-05
0.00114507
-0.000206309
2.08649e-06
-5.06907e-06
-0.00454896
0.313177
-3.24505e-06
0.000905405
-0.0183898
0.0385985
3.63641e-06
-3.56708e-06
0.0104401
0.0903189
-6.94539e-05
-7.59358e-06
-0.207972
-0.000135847
3.17837e-06
0.0215518
8.20014e-06
-7.46559e-06
-0.0264672
-1.14231e-05
0.00312678
-6.03109e-06
2.05272e-06
-1.53521e-05
-1.53032e-06
-0.00116379
5.28654e-06
-4.19391e-06
2.95684e-05
-9.36365e-06
-4.58905e-05
-0.00121744
-7.90501e-06
-3.71181e-06
-1.07428e-05
-1.17146e-05
0.0141177
0.00385845
0.114845
0.0868882
-0.000273836
-0.0682009
-0.000209059
-0.0172256
0.499779
-0.0167427
-2.94789e-06
3.81932e-05
-3.14606e-06
-6.72756e-06
-1.62244e-06
2.55186e-05
0.00264007
-0.000139981
1.85508e-05
-3.30786e-06
-3.1018e-06
-0.000103897
-3.84128e-06
-1.25788e-05
-7.91153e-06
-0.0171421
-1.51584e-05
0.0188255
-3.88259e-06
0.0141749
-1.43853e-05
-2.12389e-05
-6.65915e-06
-3.60916e-05
-4.64658e-06
-8.56331e-05
0.0115826
-0.0001258
0.00836495
-0.112373
1.74687e-05
-2.90944e-06
-0.0105511
-8.7622e-06
6.08867e-06
-6.91324e-07
2.59753e-06
-0.00395045
2.47672e-06
0.00741576
-0.00104815
6.20005e-05
0.0322367
0.0419883
-0.000139469
-0.0167407
3.60056e-06
-1.63541e-06
0.0493913
0.0769959
-5.15719e-06
-3.91646e-06
0.635117
-3.53949e-06
-0.00586554
-1.20118e-05
-6.65975e-06
-4.44559e-06
-3.31459e-06
0.000103108
0.0127669
0.0129119
-4.75905e-06
1.45582e-07
-0.00038824
-5.4457e-06
0.00022829
-3.46476e-06
-0.00109978
-0.000253674
-1.27745e-05
-6.85658e-06
3.04379e-06
0.00123005
0.00162303
0.00231689
-0.268726
-5.53587e-06
0.0149991
-0.000267733
0.000155564
-0.0126868
-4.51697e-06
-0.0180359
-5.58641e-06
-0.0158127
-0.00610787
-0.0266751
0.00242089
2.3944e-05
9.14121e-05
0.0440154
-1.32641e-05
0.0137856
-7.46088e-06
-3.55695e-06
-9.37313e-06
-4.30181e-06
-7.88177e-06
0.010502
-0.0309194
-0.820452
-2.92291e-06
-7.56935e-05
-1.2531e-05
-1.88841e-05
-4.28856e-06
0.000978375
-0.000436325
0.0756752
-1.15038e-05
5.12196e-06
-3.55984e-06
-7.24606e-06
0.0035059
-3.28993e-05
-6.51614e-06
1.25011e-06
-0.00127355
-7.96951e-06
0.000274884
-0.00038517
-0.0152816
-1.8076e-06
-5.87684e-06
-3.14276e-06
-9.12589e-06
-0.0570288
-0.165542
-0.000195957
-1.9107e-06
-0.021482
6.34133e-06
-7.16851e-06
5.62082e-05
0.00893622
0.0396227
3.22321e-05
-3.56381e-06
-0.0420831
-1.37159e-05
-3.47757e-06
3.45066e-06
0.119769
-0.0491296
1.86361e-05
-0.0806582
0.0153565
-2.09556e-05
-0.000367358
7.3954e-05
-0.0244624
-7.11231e-06
-0.0360937
-1.36335e-05
-0.00722584
0.000428975
-0.0217071
7.24169e-06
-1.07946e-06
-0.00399726
-6.16126e-06
-1.19707e-05
-0.0843233
0.0742602
0.00156059
0.00509402
-8.39312e-06
-4.05096e-06
-0.00803522
-6.85176e-06
-3.73509e-06
-3.92862e-06
0.000100468
-3.19646e-06
-5.94991e-06
-2.10418e-05
-0.0456168
0.320427
-4.57689e-06
0.0148313
-1.89129e-05
0.00319991
0.00781101
-3.64223e-06
-3.80961e-06
-8.89967e-06
-0.00649319
0.00298331
0.000117746
0.00953469
-0.0185602
-0.057418
-2.71989e-05
0.0708398
0.0432455
0.00224431
-0.0153763
-8.77346e-06
-1.09574e-05
-3.92685e-06
-2.1043e-05
-4.81243e-06
-6.34535e-06
0.0125707
-9.51369e-05
0.000390121
-0.586988
-0.150725
-0.111853
-0.024625
-0.000118644
-0.0344922
-0.000182907
-0.000312093
-2.64738e-06
-1.31453e-05
-0.000141824
0.017526
-2.3851e-05
-0.0472058
-0.0103288
-3.28615e-06
-3.46533e-06
8.57376e-06
0.00031123
-1.49458e-05
5.62134e-05
-0.00593332
-2.91608e-06
-4.06118e-06
-3.20238e-06
-5.46377e-06
-0.000510751
0.0116655
8.17445e-05
0.0980299
0.000512751
-3.58998e-06
0.00295407
0.00204073
2.15066e-05
0.111637
0.337306
0.136101
0.152416
0.0126891
-1.15249e-05
0.151285
0.00935682
-0.00158836
0.0195477
-4.48867e-06
-2.23197e-05
-6.77653e-06
-7.4101e-06
-0.00873307
0.000165364
-3.75729e-06
-2.20841e-06
0.00224037
0.00788423
-3.09577e-05
0.000159196
-0.0404392
-0.0193722
-4.12031e-06
9.3797e-06
-0.00018354
-3.5149e-06
-3.49308e-06
0.3274
-3.36787e-06
0.00192298
0.00778846
-0.00500539
-4.48629e-06
-0.000277126
-0.000245775
-6.82179e-06
3.25933e-06
0.347509
0.116181
-2.25587e-05
-2.98718e-05
-0.00254871
0.00578271
-0.0462634
-0.114061
1.37702e-06
-0.00345799
-0.0241078
-4.36228e-06
-3.39892e-06
0.00234673
-1.53601e-06
4.50903e-06
0.0137234
-3.93106e-05
1.6449e-05
-5.47181e-06
-7.40406e-05
-6.6831e-06
-1.41309e-06
-4.35336e-06
-4.37611e-06
-0.0273446
-5.44982e-06
-0.332478
0.0326644
-4.19863e-05
-2.88215e-05
0.0344394
-0.024128
0.00130445
4.97971e-06
-5.91897e-06
-1.72473e-06
2.19868e-06
-0.0046222
0.0928701
-4.66192e-06
-0.426093
0.00165331
1.50115e-06
-0.00045893
3.15188e-06
-0.000465255
-0.000502285
-4.13097e-06
-0.00081997
-0.000937162
-0.000598737
0.000718281
-0.000555922
2.6e-05
6.59317e-05
-3.77567e-06
4.12243e-06
-0.000403207
-4.06459e-06
-0.101453
-0.0320937
0.0118605
0.00279864
3.39822e-06
-9.67362e-07
0.00779347
0.024467
-4.42695e-06
-3.03488e-05
-0.00012419
0.323676
0.654303
-7.33976e-06
3.16796e-05
-2.82501e-06
-2.39285
-0.00718222
-7.97978e-06
-0.0135542
0.00862233
-0.000314048
-0.0270227
-0.000175861
-0.0327558
-0.0381406
4.17136e-07
-0.0161778
-0.00884481
-1.4063e-05
0.000182613
0.000873847
-6.82632e-05
-5.76737e-06
-0.000626265
-0.0567889
-1.95022e-06
-4.43232e-06
0.147205
0.179932
0.000470215
-8.56426e-06
-0.00209752
-0.000625114
-0.00944959
0.00607747
-3.46214e-06
-3.30396e-06
-4.29298e-06
-8.65276e-06
-0.0263866
0.582169
-0.0185015
-0.000305377
-0.0150149
-0.0945436
-6.66898e-06
-4.01501e-06
0.00509585
-2.74623e-06
-0.0377109
-4.25844e-06
-0.0284587
-4.31056e-06
-1.92778e-05
0.049663
-6.2589e-06
-0.000879866
0.0126364
-1.2904e-05
-3.67789e-05
-4.13987e-06
0.00193246
0.014017
-0.000804488
-0.00222258
-1.46156e-05
7.92724e-06
-5.56938e-06
0.00031233
-0.00470167
-0.218158
0.000856899
0.000478553
-0.00126529
0.0285502
-0.000566263
-4.36915e-07
-3.12101e-06
-2.69453e-06
0.013543
0.00152172
0.14537
-0.000111436
-0.0019189
-6.17575e-06
-0.0114409
-0.485713
-1.83039
-3.7748e-06
-3.59398e-06
2.09287e-06
0.00425182
-0.00148079
-0.448121
0.00752568
-0.00108177
-0.0113837
2.75888e-06
8.28011e-06
0.00119412
0.000209532
0.163054
-5.94038e-06
-0.00154414
-1.07758e-05
-6.05245e-06
0.000494761
0.0748407
0.240062
-7.51675e-06
0.000412317
0.0103665
-0.0491482
0.0221492
-0.0249642
-0.00368156
-5.54715e-06
0.000131649
-1.18579e-05
-0.00137982
-8.10616e-06
0.00164512
-1.88213e-05
8.00686e-05
0.0191775
-0.0402337
-3.06915e-06
-0.00265397
-0.00767404
0.000258318
-3.10855e-05
-0.136975
2.4795e-05
1.97684e-05
-6.82216e-06
-0.00764124
-3.01687e-06
0.00185747
0.0148319
0.073029
0.014536
1.48816e-05
0.00105206
0.0124207
0.293985
0.0104491
3.43151e-06
-0.000573491
-0.000167232
-0.0191281
1.72363e-05
-4.40814e-06
0.066954
0.000525996
0.0258571
1.42919e-05
-1.10163
0.237025
0.37116
-1.01815e-05
0.015371
-4.91973e-06
0.0133892
-0.000350465
-0.0571833
0.0428365
-3.39721e-06
2.5512e-06
0.00940773
-0.019341
0.00214291
-4.24472e-06
-0.000152256
-0.000111598
0.0181852
0.00305637
-0.00919925
1.42481e-06
-0.00790601
0.000449747
-0.0627819
-4.22543e-06
-0.009581
-0.734469
-9.44037e-06
-0.000202713
3.30487e-06
-4.56203e-06
-3.62933e-06
-0.00510076
-3.83788e-06
-3.96222e-06
-0.0404537
0.0900812
-2.60232e-06
-0.010357
-5.02721e-06
-1.27436e-05
-4.04591e-06
-6.1429e-06
-4.18519e-06
0.147688
-0.0461209
-7.56969e-07
-0.150268
-0.000178496
-7.24964e-05
-0.00696362
-0.000448006
1.55465e-06
-1.76903e-05
-3.88474e-06
-0.00167737
1.57125e-05
-0.00502603
-2.168e-05
0.00554963
0.00289446
0.000137696
-0.0529283
-0.0100848
-2.61411e-06
0.015186
0.000107831
-4.60146e-05
-0.00262247
-6.32214e-06
0.000957053
0.00164485
-3.53841e-06
-0.0416781
-4.16797e-06
-0.0121635
-0.00102356
0.114014
0.00227449
0.00217041
-0.0412926
-6.90558e-06
-7.74458e-06
-0.000150725
-7.49297e-06
-3.78546e-06
-3.93523e-06
6.5583e-06
-6.17422e-06
-3.76959e-06
-7.65024e-06
-0.000121702
-6.78298e-06
3.67207e-06
-1.18845e-05
-0.000351834
-5.82237e-05
-5.43634e-06
-0.0104999
-4.77535e-06
-4.26515e-06
-0.000503392
-4.5241e-05
-1.06097e-05
-6.40659e-06
-0.162236
-7.36706e-06