/*--------------------------------*- C++ -*----------------------------------*\
| =========                 |                                                 |
| \\      /  F ield         | OpenFOAM: The Open Source CFD Toolbox           |
|  \\    /   O peration     | Version:  v2012                                 |
|   \\  /    A nd           | Website:  www.openfoam.com                      |
|    \\/     M anipulation  |                                                 |
\*---------------------------------------------------------------------------*/
FoamFile
{
    version     2.0;
    format      ascii;
    class       volScalarField;
    location    "750";
    object      nut;
}
// * * * * * * * * * * * * * * * * * * * * * * * * * * * * * * * * * * * * * //

dimensions      [0 2 -1 0 0 0 0];


internalField   nonuniform List<scalar> 
13917
(
0.00304079
0.00320946
0.00109869
0.00642445
0.00584247
0.0036953
0.00376796
0.00163988
0.00324256
0.000307166
0.00246493
0.00683489
0.00330598
0.0211251
0.00592341
0.00192517
0.00684188
0.00208025
0.00184529
0.00184408
0.00320679
0.0068275
0.00263826
0.00682709
0.00667721
0.00283723
0.00400361
0.00017906
0.00202814
0.00679559
0.000129485
0.00283003
0.00680596
0.00898776
0.00682265
0.00206143
0.00655449
0.00697798
0.00326195
0.00253869
0.00677461
0.00673889
0.0033226
0.00187465
0.00194072
0.000658761
0.00350832
0.00278562
0.0152094
0.00682052
0.00683416
0.00182547
0.000456609
0.00683871
0.0068391
0.00184521
3.48635e-05
0.00291669
0.00675463
0.000375698
0.0107503
0.00613403
0.0067838
0.00643287
0.00760637
0.0020527
0.00193482
0.0022394
0.00233401
0.00274918
0.00409914
0.00803981
0.00681539
0.00679125
0.00289639
0.00660921
0.00640065
0.00679989
0.00664239
0.00679705
0.006789
0.00685269
0.00681221
0.00415139
0.00671856
0.00220173
0.00218338
0.00676465
0.00244474
0.00685839
0.00678229
0.00308159
0.0147415
0.00684568
0.00680353
0.00200402
0.000255412
0.00689187
0.00675382
0.00155514
0.00679049
0.0067797
0.00678508
0.00682651
0.00640245
0.00473608
0.00787693
0.00617291
0.00668935
0.00633923
0.00673625
0.00938567
0.00207895
0.00285935
0.00744626
0.00618996
0.00197687
0.00679985
0.00124885
0.00678684
0.00687801
0.00683455
0.00195913
0.00220033
0.00336686
0.00456476
0.00654247
0.00264235
0.00683826
0.00223784
0.00277311
0.000950812
0.0109994
0.00655311
0.00217296
0.00684844
0.0118065
0.00372293
0.00254729
0.00697148
0.0164702
0.00682121
0.00440747
0.00679221
0.00680341
0.00646177
0.00399277
0.0136166
0.00238622
0.00684104
0.00276807
0.00678165
0.00679681
0.0067873
0.00209342
0.00671762
0.00681904
0.0114059
0.006798
0.00680672
0.00673624
0.00898725
0.00621483
0.0135903
0.00779823
0.00119814
0.000171973
0.00629004
0.00668682
0.00237681
0.00681342
0.0107297
0.00313826
0.0102684
0.00289622
0.0067904
0.00680157
0.00167412
0.00287215
0.00611886
0.00351578
0.00682275
0.00683502
0.000837829
0.0012216
0.000566971
0.00683348
0.00100068
0.00679851
0.00217878
0.00289634
0.00193134
0.00154836
0.00319708
0.00684305
0.0035423
0.00470063
0.0105558
0.00682354
0.00676031
0.00407937
0.00281076
0.00253396
0.00660185
0.00459449
0.00401326
0.00260989
0.00681926
0.00169594
0.00679007
0.00677558
0.00515214
0.00453536
0.00296955
0.00252133
0.00257565
0.00960569
0.00688356
0.00677698
0.00677618
0.0051957
0.00135734
0.00103716
0.00672042
0.00676994
0.00849025
0.00253233
0.00675035
0.00674627
0.00676679
0.00678924
0.00678857
0.00720387
0.00568543
0.00682197
0.00669564
0.00273495
0.0070921
0.00682803
0.00672028
0.00494973
0.00463613
0.000997142
0.00976768
0.00215736
0.00679183
0.00555768
0.0026428
0.00218707
0.00264788
0.00664486
0.00442527
0.00679381
0.00325378
0.00317367
0.0068093
0.00675671
0.0064529
0.00601658
0.00680738
0.00637788
0.0190452
0.00683729
0.00673994
0.00670297
0.00674065
0.00679355
0.00683552
0.00319183
0.00681981
0.00561712
0.0084706
0.00680739
0.00629608
0.000564029
0.00678493
0.00121125
0.007989
0.00678544
0.00456845
0.00681529
0.00878366
0.00679105
0.00616221
0.00680151
0.00679383
0.00127248
0.00692207
0.000628367
0.00388279
0.0180833
0.00647875
0.00192451
0.00350188
0.00682196
0.00328112
0.00595428
0.00649966
0.00588922
0.00664761
0.006841
0.00689729
0.00168712
0.00576308
0.00287368
0.0066723
0.00672002
0.0111521
0.00159711
0.00683442
0.00635778
0.00649287
0.0127073
0.00174935
0.00889381
0.01026
0.0041043
0.00152501
0.00633585
0.00336807
0.0158697
0.00110481
0.00682683
0.00596276
0.00400385
0.00677388
0.00288711
0.00207178
0.00683007
0.0106225
0.00672454
0.00235208
0.00682808
0.000331208
0.00671953
0.00315407
0.00343798
0.00546228
0.0068451
0.00233502
0.00357351
0.00681497
0.00677566
0.0100692
0.00384231
0.00858222
0.0209896
0.00677393
0.00682864
0.00492674
0.00151349
0.00677571
0.00589067
0.00683679
0.00154899
0.00303707
0.00189494
0.00201982
0.001337
0.00233584
0.00731265
0.00684225
0.00681346
0.00563896
0.00100924
0.00681645
0.00235454
0.00278647
0.0114527
0.00683841
0.00158305
0.00655198
0.00957865
0.00672502
0.000712942
0.000875668
0.00312865
0.00681408
0.000707696
0.00680757
0.00735707
0.00146453
0.00672569
0.0111826
0.00675018
0.00756856
0.00679538
0.00239169
0.00781967
0.00663231
0.0100079
0.00133162
0.00669774
0.00894102
0.00101073
0.00669344
0.00135444
0.00683478
0.00128799
0.0011017
0.00672767
0.00354616
0.00667526
0.00678247
0.00672026
0.00684366
0.0115298
0.00119998
0.00682861
0.00684404
0.00683879
0.00386314
0.00067454
0.00681538
0.00668741
0.00177463
0.00172297
0.00680108
0.00665369
0.0104366
0.00439265
0.00585974
0.00165224
0.00168715
0.00683452
0.0068046
0.0043135
0.0067186
0.00681475
0.00681316
0.00680539
0.0068376
0.00500501
0.00683415
0.00236218
0.00666413
0.00298237
0.00678047
0.00679266
0.00889924
0.0041613
0.00236789
0.00682435
0.00673392
0.00679825
0.00680162
0.00656885
0.00671986
0.0102392
0.00622545
0.00519056
0.00673416
0.00324169
0.00636048
0.006796
0.00220114
0.008955
0.00683601
0.0115072
0.00678696
0.00675857
0.00683745
0.00674768
0.00676292
0.00680967
0.0112474
0.0102262
0.00675736
0.00192078
0.00180551
0.00679389
0.00340389
0.00222466
0.0084637
0.00319471
0.00486262
0.0128503
0.013034
0.00671631
0.00212541
0.00640079
0.00666149
0.0039997
0.00679727
0.00683951
0.006802
0.00370376
0.00308795
0.00138353
0.00263031
0.00638416
0.00616867
0.00209075
0.00193031
0.00682808
0.0209494
0.00369651
0.00386411
0.00780007
0.00671914
0.00178913
0.00152067
0.00671579
0.0117317
0.00676783
0.00680164
0.00347104
0.00682414
0.0068428
0.00169872
0.0117529
0.0122158
0.00673273
0.00552786
0.00652966
0.00298882
0.00611427
0.00683482
0.00683896
0.00672764
0.00339159
0.0128794
0.00684376
0.00683
0.00676711
0.00677377
0.00620413
0.00375722
0.00681082
0.00273523
0.00671585
0.00683802
0.00669576
0.0089518
0.00671465
0.00452412
0.00680594
0.00276201
0.00306631
0.00160382
0.00306072
0.00155184
0.00672702
0.00195128
0.0101602
0.00616694
0.00830506
0.00682962
0.00683822
0.00637668
0.00676776
0.00769769
0.00679686
0.0120357
0.00432037
0.00847555
0.0012946
0.00374065
0.0007794
0.00675932
0.00194842
0.00690954
0.00663041
0.0077255
0.00682166
0.00107628
0.00678138
0.00681476
0.00683987
0.00144142
0.00616433
0.00672333
0.00195079
0.00359248
0.00504578
0.0024453
0.0110474
0.00929689
0.00671505
0.00269366
0.00677351
0.0113828
0.0128948
0.00655159
0.00662035
0.00678851
0.00322295
0.00359448
0.00682172
0.00690398
0.00683118
0.00134332
0.00674063
0.00245392
0.00683645
0.00671942
0.00682175
0.000905046
0.00599518
0.000747581
0.00236862
0.00374921
0.0002505
0.00768924
0.00680682
0.00663647
0.00682286
0.00218941
0.00676936
0.000924713
0.00676887
0.00618776
0.00680784
0.00381673
0.00342101
0.00847426
0.00681692
0.00328511
0.00682821
0.0067768
0.00795976
0.00138622
0.00680279
0.00175627
0.00671997
0.00667054
0.00678262
0.00902202
0.00674002
0.00596216
0.00679658
0.00681683
0.00114347
0.00678078
0.0018768
0.00686195
0.00671765
0.0113045
0.00241582
0.00683592
0.000446595
0.00110843
0.00105335
0.00144909
0.0067541
0.00577185
0.00805046
0.000998017
0.00471115
0.00655175
0.00616281
0.0068841
0.0068388
0.00757157
0.00286242
0.00527848
0.00793558
0.00318737
0.0035517
0.00711306
0.00569636
0.00325774
0.00148567
0.00552122
0.00683954
0.00584009
0.00943062
0.0067177
0.00684605
0.00682346
0.00633333
0.00683704
0.00285569
0.00252333
0.0067737
0.00208635
0.00681862
0.00938814
0.00681685
0.00684128
0.0118984
0.00323604
0.0114637
0.00682232
0.00674345
0.00684284
0.00652206
0.00329503
0.00680225
0.00286095
0.00356027
0.00742626
0.012031
0.0058087
0.0110023
0.00564047
0.00690522
0.00682099
0.00868091
0.01111
0.00452655
0.0030189
0.0155827
0.00672183
0.0068396
0.00656723
0.00432775
0.0129187
0.00362325
0.00667354
0.00427283
0.00212887
0.00644855
0.00190669
0.00246962
0.0068072
0.00679507
0.00688204
0.00340222
0.00616985
0.000988619
0.00643938
0.00639669
0.00295003
0.00677102
0.0154418
0.00660449
0.00515183
0.0043603
0.00102201
0.00688171
0.00231348
0.00562644
0.0135164
0.00677059
0.00643415
0.00690491
0.00674725
0.00680109
0.00484759
0.00626502
0.00127602
0.00186678
0.00675087
0.00107018
0.00305313
0.00335494
0.00163809
0.00681919
0.00228599
0.000313818
0.0067116
0.0030165
0.00250262
0.00261483
0.00680993
0.00676617
0.00684075
0.00194109
0.00680913
0.00678936
0.00249669
0.00680786
0.00679791
0.00192276
0.000668451
0.00402152
0.00628424
0.00167797
0.00509659
0.00679965
0.00632922
0.000239542
0.0065546
0.00565041
0.00684196
0.00683464
0.00682513
0.00636251
0.00147972
0.00681018
0.00197897
0.00678745
0.0112014
0.00659825
0.00329258
0.00682614
0.00220722
0.00612263
0.0084643
0.00369301
0.00682774
0.00877834
0.00678652
0.00564546
0.00365589
0.00394539
0.00653533
0.00682303
0.00676533
0.00945872
0.00352464
0.000514571
0.00666919
0.0067443
0.00254431
0.00669218
0.00621793
0.0154007
0.00670198
0.00643597
0.00413863
0.00383821
0.00193305
0.00659878
0.0067556
0.00683564
0.00190011
0.00675641
0.00683912
0.00672349
0.00683934
0.0024228
0.00675113
0.00213121
0.00680901
0.00272628
0.00544027
0.0074102
0.00553876
0.00989205
0.00183084
0.0125595
0.00671959
0.00668682
0.00679974
0.00678539
0.0067305
0.00364584
0.0067625
0.00168207
0.00684127
0.000361637
0.00681714
0.00257368
0.00176465
0.00684038
0.00243359
0.00678719
0.00660646
0.00442057
0.0068096
0.0110821
0.002694
0.00530963
0.0068378
0.00673761
0.00680138
0.00677915
0.00828
0.00672159
0.00131788
0.00676137
0.0124052
0.00622962
0.00678245
0.00228941
0.00612039
0.00672446
0.0116389
0.00541413
0.00653891
0.00231943
0.00676254
0.00150339
0.0067765
0.00677745
0.00588511
0.00686282
0.00661451
0.00215089
0.00502339
0.00671419
0.017424
0.00068838
0.00670879
0.00664419
0.00684055
0.00140927
0.00673513
0.00186725
0.00682683
0.0118013
0.00616691
0.00938962
0.00684088
0.00680162
0.00929531
0.00687584
0.00679004
0.00930776
0.00672215
0.00672717
0.0194766
0.00671147
0.00668839
0.00289775
0.00670561
0.00802019
0.00250037
0.00224293
0.00157246
0.00484861
0.0116047
0.00678462
0.00306655
0.00673816
0.0069623
0.0126636
0.00682225
0.00677105
0.0066987
0.00683407
0.00679676
0.00684274
0.00682864
0.00675956
0.00375556
0.0067115
0.00674943
0.00236936
0.00792513
0.00875372
0.00217955
0.00680064
0.00984462
0.0067501
0.000358248
0.0136692
0.000177172
0.00680078
0.00672162
0.00676291
0.00683955
0.00679514
0.00679637
0.00674693
0.00326411
0.00672733
0.000834614
0.0188108
0.00675097
0.00973716
0.0067401
0.00684098
0.00628774
0.00937234
0.00170071
0.00679671
0.0114398
0.00683785
0.00684027
0.000754764
0.00667119
0.00207952
0.00678616
0.003729
0.00677876
0.00682653
0.00428747
0.0028061
0.00674071
0.00889132
0.00623266
0.00693189
0.00659228
0.00674098
0.00676077
0.00231928
0.00242715
0.00531109
0.00975487
0.0014368
0.00282038
0.00225537
0.006834
0.00923591
0.006832
0.0105761
0.0032527
0.00327619
0.00676229
0.0101066
0.0133396
0.00073814
0.00669344
0.00923005
0.00679434
0.00676151
0.00241928
0.00681197
0.00682362
0.000158805
0.00462211
0.00682921
0.00269616
0.00691151
0.00677292
0.00677197
0.0088055
0.00977573
0.00679949
0.0067639
0.00364471
0.00679005
0.00684035
0.0045628
0.00629273
0.00679146
0.00465869
0.00670186
0.00103968
0.0151434
0.00611427
0.00726244
0.0068236
0.0068199
0.00458137
0.00492912
0.00599159
0.00654375
0.00390285
0.00618295
0.0059539
0.00671952
0.00828264
0.00627741
0.00674472
0.00261398
0.0067867
0.0135176
0.00249917
0.00191823
0.0023247
9.29663e-05
0.0126456
0.00929276
0.010979
0.00697953
0.000297015
0.00677829
0.00347762
0.00269112
0.0143461
0.00444296
0.00663021
0.00456992
0.00458705
0.00669836
0.00849501
0.0034164
0.00240906
0.0104324
0.00682674
0.00220838
0.00666474
0.00684156
0.00607905
0.00170103
0.00681844
0.00674517
0.00675998
0.00227135
0.00673182
0.0067213
0.00390521
0.00678377
0.00682314
0.00198153
0.0022891
0.00674353
0.00683492
0.00160734
0.00483737
0.00393944
0.011577
0.00682717
0.00673724
0.0111688
0.00678813
0.00668818
0.0109049
0.00790488
0.00582991
0.0034735
0.00619465
0.00178968
0.00141178
0.00352541
0.00316381
0.00683979
0.00265931
0.0076177
0.00119272
0.0100189
0.00508461
0.00683742
0.00683644
0.00683556
0.00682609
0.00683515
0.000995823
0.0068704
0.00352506
0.00672757
0.00232955
0.00912163
0.00670225
0.00401365
0.0099049
0.00674077
0.00252892
0.00622069
0.00674215
0.00675058
0.00892729
0.00239328
0.00569192
0.0045108
0.00778916
0.00246019
0.00674112
0.00794781
0.00343743
0.00670368
0.0067894
0.000421273
0.00675025
0.00636023
0.00284307
0.00632789
0.00604283
0.00260469
0.00867507
0.00673863
0.00142911
0.00372013
0.00684166
0.00674795
0.00644035
0.00108093
0.000133013
0.0068165
0.00263021
0.00664938
0.00817923
0.00248246
0.00681727
0.0067225
0.00683569
0.00674067
0.00696416
0.00658482
0.000861708
0.00676968
0.00418335
0.00147094
0.00658139
0.00226452
0.00972139
0.00878861
0.00682157
0.0068044
0.00671763
0.0067576
0.00218046
0.0105269
0.00380848
0.00176624
0.00454597
0.00260742
0.00381251
0.00883863
0.00639868
0.00191306
0.00684494
0.00171797
0.00757773
0.00680304
0.00681747
0.0106006
0.00384094
0.00235348
0.00746036
0.00174857
0.00683946
0.000638234
0.00694585
0.00672292
0.00773129
0.00555891
0.00684331
0.00584186
0.00193825
0.0030804
0.00680598
0.0067502
0.00675159
0.00677741
0.00674154
0.00367569
0.00216588
0.00473527
0.00296172
0.00397901
0.00291484
0.00253889
0.00683285
0.00305343
0.000747662
0.0010701
0.00819372
0.0067238
0.00674984
0.00753861
0.00673266
0.00515005
0.0063718
0.00219665
0.00683418
0.00673693
0.000336242
0.00431613
0.00673556
0.00673597
0.00970318
0.000230218
0.00747604
0.00681038
0.00684131
0.00682613
0.00681034
0.00683322
0.00149271
0.00796062
0.00481372
0.00303643
0.00681251
0.00188862
0.00672409
0.00648959
0.00574005
0.00674484
0.00108845
0.0067271
0.00677221
0.000118754
0.00245519
0.00945141
0.00109902
0.00671971
0.00390026
0.00679673
0.00683805
0.00658105
0.00680259
0.00683246
0.00124216
0.00681503
0.00290619
0.0061138
0.00639644
0.00679403
0.00674404
0.00683898
0.00904716
0.00681579
0.00297307
0.00237563
0.00683764
0.00267335
0.00295294
0.00355664
0.00682824
0.00614973
0.00675557
0.00680543
0.0138363
0.00441243
0.00616155
0.00681759
0.00683482
0.00678217
0.00193971
0.00678265
0.00968087
0.00342284
0.00682252
0.00671967
0.00677779
0.00353661
0.00716327
0.0121058
0.00546018
0.0131704
0.00637297
0.0022404
0.00657876
0.00753841
0.00672849
0.00681114
0.0055537
0.0107543
0.00678229
0.0103081
0.00684165
0.00682588
0.00147508
0.000378747
0.00172858
0.00326781
0.00435551
0.00161375
0.00751695
0.0068421
0.00774089
0.00674011
0.00678868
0.00592831
0.00675819
0.0105251
0.00794112
0.0067569
0.00676402
0.00684353
0.0102388
0.00681586
0.00675069
0.00250149
0.00672055
0.00679282
0.00669207
0.00683754
0.00257372
0.00682214
0.00644635
0.00671616
0.00152424
0.00273099
0.00671771
0.00671916
0.00680306
0.00671955
0.00407173
0.00680154
0.0068237
0.00682282
0.00675081
0.00677936
0.00680418
0.00178959
0.00677962
0.00235758
0.00683211
0.00278267
0.0068124
0.00683076
0.00679514
0.00681845
0.00267506
0.00621751
0.00342494
0.00976999
0.00362546
0.0114703
0.00981278
0.0022915
0.0058083
0.00683714
0.00679732
0.000565254
0.0105777
0.00677619
0.0073452
0.00679249
0.00189407
0.0161213
0.00434468
0.00263392
0.0199562
0.0128255
0.00683521
0.00254683
0.00675552
0.0050475
0.00440654
0.010801
0.00254541
0.00683598
0.00349151
0.000538133
0.00683299
0.00285234
0.0151634
0.00669878
0.0067168
0.0125833
0.00826957
0.00684082
0.00290212
0.00682612
0.000372791
0.00168857
0.00683472
0.00681902
0.000466794
0.00683715
0.00674032
0.00679049
0.00674977
0.00083355
0.00588595
0.00362062
0.00978605
0.00674103
0.0014696
0.00681046
0.0119997
0.00364525
0.00499208
0.00680778
0.003672
0.00678927
0.00685501
0.00382333
0.00682314
0.00398453
0.00676506
0.00676054
0.00673827
0.0138103
0.00671726
0.0116646
0.00877412
0.0164707
0.00683444
0.00682668
0.00672957
0.0171433
0.0068373
0.00283474
0.00684454
0.000312732
0.006712
0.00660198
0.00102028
0.00683884
0.0068585
0.00779526
0.00185495
0.0102589
0.00674047
0.00784461
0.00569156
0.0068394
0.00865807
0.00684007
0.00632971
0.00657492
0.00662587
0.0027625
0.00548394
0.00573468
0.00249016
0.00678619
0.00165777
0.00674294
0.0129667
0.00672648
0.00445522
0.00674434
0.00674928
0.00655928
0.00872661
0.00682967
0.00418296
0.00173128
0.0201859
0.00674861
0.00498113
0.00896203
0.00104652
0.00272954
0.00275132
0.0068146
0.00200158
0.000414771
0.00655368
0.000723907
0.006807
0.00161129
0.00237424
0.00683527
0.00255082
0.00671972
0.0070353
0.000853552
0.00661999
0.00652602
0.0142285
0.0134096
0.00673265
0.0064592
0.00675702
0.00683829
0.00589249
0.00320346
0.00104452
0.00682121
0.00404055
0.0106116
0.00585174
0.0137199
0.000967518
0.00671837
0.00673334
0.00127713
0.010533
0.00712206
0.015307
0.001222
0.00242968
0.0040518
0.00950269
0.00923021
0.0110456
0.00671692
0.00268684
0.00351533
0.00295066
0.00679862
0.00330757
0.00342895
0.0015739
0.0167559
0.00669285
0.0100162
0.00952148
0.00230996
0.0067329
0.00673558
0.00101518
0.00683705
0.0113487
0.00407966
0.00665468
0.00133842
0.00581328
0.00671751
0.00333843
0.00306007
0.00680221
0.0099965
0.00616038
0.0107746
0.00684619
0.00935972
0.000316627
0.00123874
0.0068195
0.00519538
0.00568361
0.00209226
0.00193971
0.00236357
0.00606581
0.00121829
0.00671523
0.00528031
0.00667783
0.00173899
0.00244049
0.00677388
0.00671564
0.00676274
0.000616518
0.00213921
0.00684343
0.00213279
0.00129481
0.00672295
0.00584872
0.00658269
0.00927437
0.0060937
0.00780934
0.00316434
0.00362274
0.0064915
0.000560456
0.00674942
0.00224033
0.00800149
0.00366825
0.00133895
0.00253696
0.00240878
0.0102521
0.00804942
0.00678346
0.0128641
0.00136916
0.00675632
0.00176609
0.00312998
0.0016968
0.0027516
0.000392424
0.0166981
0.0020589
0.00869169
0.00488638
0.00226795
0.00677086
0.00682164
0.00681693
0.00674982
0.000916416
0.00165372
0.00681763
0.00300429
0.00138472
0.0067458
0.00810662
0.00827172
0.0067905
0.00683722
0.00676881
0.00676323
0.00262752
0.00674314
0.00766668
0.00336501
0.00298968
0.00626919
0.00302272
0.00432375
0.00532383
0.0134976
0.00680427
0.00675269
0.00681431
0.00684189
0.00968374
0.00232279
0.0055965
0.00916614
0.00681698
0.00681196
0.00550334
0.00679791
0.00683118
0.00139257
0.00447943
0.00725316
0.00968128
0.0107406
0.00678111
0.0120936
0.00674804
0.000283052
0.00671643
0.00165857
0.0101284
0.00676724
0.000767195
0.0067378
0.0039476
0.00682727
0.00679733
0.00495903
0.00840243
0.00674697
0.00682777
0.00690018
0.00698379
0.00126358
0.00682883
0.00449805
0.00671818
0.00690948
0.000501757
0.00346136
0.00655891
0.00153099
0.00168692
0.0105984
0.00669026
0.00689699
0.00676759
0.00781023
0.00680825
0.00270949
0.00679657
0.00586944
0.00673142
0.00679584
0.00538406
0.00853161
0.00673054
0.0068102
0.00672549
0.00161899
0.00103548
0.00188376
0.00673029
0.00657468
0.0067315
0.00953706
0.00676975
0.00127807
0.00243928
0.00681543
0.000988687
0.00524179
0.00924381
0.00526893
0.00683494
0.00380649
0.00273087
0.0014252
0.00682526
0.00682549
0.00674494
0.00993684
0.00678534
0.00682141
0.00785643
0.00671122
0.00629641
0.00459777
0.00683653
0.00683103
0.0139724
0.00395722
0.0197414
0.0137356
0.00674256
0.0018116
0.00683382
0.00209475
0.00270597
0.0068033
0.00682214
0.00673796
0.00674299
0.011479
0.00247995
0.00883136
0.00936637
0.00676075
0.00603435
0.00247497
0.000527309
0.0067543
0.00935862
0.00786614
0.0044693
0.00678717
0.00643402
0.00682611
0.00926066
0.00961385
0.00667697
0.00674442
0.00342378
0.0063811
0.00681883
0.00624882
0.00670254
0.00193481
1.13301e-05
0.00672551
0.00865344
0.0058711
0.00673145
0.00604275
0.00248732
0.00249004
0.00547856
0.003485
0.00629219
0.00684452
0.00618723
0.00681319
0.0022202
0.00189131
0.00682207
0.00451101
0.00112097
0.00966747
0.00674282
0.00201023
0.01177
0.00264335
0.00679937
0.00680613
0.014314
0.00199359
0.00196052
0.00681623
0.01233
0.00228864
0.00676661
0.00465287
0.00472264
0.00683736
0.000489704
0.00684202
0.00623075
0.00682284
0.00671012
0.00683418
0.00672584
0.00762039
0.00681527
0.00673089
0.00265424
0.00345627
0.00649189
0.00171668
0.00683317
0.0067324
0.00673458
0.00679059
0.0137213
0.0132665
9.90283e-05
0.0104941
0.00424826
0.0127516
0.00493651
0.00954257
0.00997405
0.00785709
0.00676813
0.00573437
0.00675624
0.00684156
0.00684336
0.00664924
0.00126754
0.0023926
0.00254871
0.00674344
0.00673286
0.00229856
0.00682929
0.00682962
0.00683695
0.0101591
0.00349395
0.0016298
0.00677584
0.0137307
0.00682324
0.00680285
0.00679069
0.00262549
0.00675867
0.00252189
0.00943891
0.00224299
0.0071058
0.0138489
0.00692091
0.00391582
0.0131469
0.00194783
0.00682532
0.00684281
0.00674458
0.00931057
0.00671297
0.00270446
0.00464774
0.0027425
0.018527
0.0185103
0.00241224
0.0100554
0.00683965
0.00671361
0.00321965
0.00218193
0.00679105
0.00678463
0.00315301
0.00671777
0.00121992
0.0068467
0.0067804
0.00639797
0.00678304
0.00294166
0.00934017
0.00785625
0.00451786
0.0068229
0.00141658
0.00677706
0.00272004
0.00674558
0.00168658
0.00235291
0.00682853
0.00683732
0.00675509
0.00156589
0.00410676
0.00123987
0.000928641
0.00377532
0.00373909
0.00216254
0.0020325
0.00673155
0.00675027
0.00956183
0.00679847
0.0100151
0.000423
0.00942997
0.00676475
0.00684783
0.0037214
0.00347354
0.00683985
0.00528288
0.00682852
0.00679294
0.00414014
0.00681844
0.00310481
0.00108999
0.000612642
0.00801338
0.00455489
0.00234167
0.00677205
0.00679687
0.00680593
0.00171294
0.00216457
0.0106984
0.00257648
0.00682009
0.00675279
0.00679648
0.00103946
0.00655144
0.00674405
0.00566446
0.00123322
0.00305512
0.00247433
0.0036918
0.00972493
0.00374521
0.00309688
0.00675341
0.00356408
0.000680673
0.00188478
0.00196697
0.00680045
0.00696802
0.0034466
0.00681011
0.00328677
0.0102148
0.00643944
0.0033552
0.00672002
0.00880041
0.00682658
0.00672343
0.00682362
0.00678243
0.000574636
0.0069223
0.00398527
0.00563612
0.00686254
0.00398239
0.00340907
0.011006
0.00364581
0.00948608
0.00682016
0.00752746
0.00650051
0.00854034
0.0034912
0.00683748
0.0107706
0.00676021
0.00679583
0.0137389
0.00254285
0.00314132
0.000599379
0.00377384
0.00662647
0.00125745
0.00680407
0.00672552
0.00677801
0.0035565
0.00675172
0.00554935
0.00391993
0.00552188
0.000954353
0.00680911
0.00544189
0.00684307
0.0103546
0.00749342
0.00677924
0.00682867
0.0035707
0.00115738
0.00126914
0.00311605
0.0100378
0.00827988
0.00126445
0.00662932
0.00206969
0.00679846
0.00429692
0.000248747
0.00684164
0.00683951
0.0067716
0.0067712
0.0067316
0.00292694
0.00789348
0.00561784
0.014002
0.00443792
0.00102089
0.0106084
0.0104905
0.00595221
0.00994804
0.00205797
0.00209165
0.00671526
0.0068381
0.00244529
0.00557192
0.00670063
0.00764812
0.0106964
0.00678614
0.0068044
0.0067598
0.00141313
0.006816
0.00288953
0.00952059
0.00674055
0.00672077
0.00677323
0.00680818
0.00220077
0.00901202
0.00317707
0.00322072
0.0019764
0.00674108
0.0133862
0.00157595
0.00684054
0.000183011
0.000659859
0.0106081
0.00343945
0.00697364
0.00684228
0.00186362
0.00941356
0.0014331
0.00378282
0.00684595
0.00668574
0.00661729
0.00431419
0.00600555
0.00313864
0.00682834
0.00422175
0.0128747
0.00918606
0.00664519
0.00676191
0.0116041
0.010375
0.00681873
0.00497458
0.00206612
0.00672952
0.00672933
0.00986765
0.00674711
0.000990188
0.0135442
0.00651288
0.00675434
0.00133804
0.00150415
0.00680619
0.00679203
0.010278
0.0072228
0.00678957
0.00532031
0.00131811
0.00112053
0.0105254
0.00287355
0.00551095
0.0127614
0.0124519
0.00328703
0.00671812
0.00245856
0.0067197
0.00681158
0.00705504
0.00259491
0.00229074
0.00444488
0.00624958
0.00683359
0.0067655
0.00681259
0.0067943
0.00601505
0.00453828
0.000791875
0.00286069
0.00282152
0.0026137
0.00897624
0.00815956
0.00693782
0.00678275
0.00424471
0.00336208
0.00553538
0.00131808
0.0109336
0.00681438
0.000941792
0.0085267
0.00534757
0.00214595
0.00249711
0.00214122
0.0020335
0.00606433
0.0018484
0.00170155
0.00156077
0.00142505
0.00197465
0.00247437
0.00612277
0.00672312
0.00327304
0.00214008
0.00675415
2.16582e-05
0.0101041
0.00134151
0.0105211
0.00677993
0.00680941
0.00837052
0.00482338
0.0068026
0.00659805
0.00251925
0.00945415
0.00386793
0.00682575
0.00561026
0.00465135
0.00119831
0.0121472
0.00381611
0.000318571
0.00927058
0.00190967
0.00973538
0.00227111
0.00502637
0.0103721
0.00668558
0.00895911
0.0100083
0.00677895
0.00298017
0.002199
0.00633873
0.00681915
0.000900651
0.0181323
0.00684369
0.00684439
0.0105088
8.46848e-05
0.00267705
0.00683917
0.0011213
0.00173543
0.0108052
0.00692011
0.00679713
0.00672876
0.00680686
0.00691399
0.00841679
0.00375517
0.00885385
0.00219477
0.000525236
0.0116943
0.00692449
0.00672719
0.00908532
0.00684451
0.00961631
0.00677183
0.0100521
0.00677829
0.0067815
0.0124031
0.00677919
0.00198832
0.0127335
0.00683521
0.00662451
0.00676267
0.00130845
0.00718774
0.00146106
0.0107147
0.00698018
0.00693035
0.00370286
0.00276885
0.00957194
0.0100036
0.00222801
0.00107698
0.00179432
0.00283433
0.00674617
0.00684154
0.00674441
0.00671577
0.000595135
0.00219054
0.00738169
0.00228376
0.00155002
0.00679107
0.0119381
0.001014
0.00206097
0.00672901
0.00651978
0.00671529
0.0100916
0.00607924
0.00271641
0.000759
0.00185415
0.00113023
0.00674966
0.00311584
0.00148901
0.000493678
7.19774e-05
0.00675697
0.00170102
0.0068155
0.00676805
0.00130079
0.00902751
0.00276331
0.00683097
0.00248708
0.000971983
0.0111196
0.00340151
0.00816357
0.00680689
0.00683156
0.0033576
0.0068259
0.00164455
0.00684007
0.00196776
0.00666247
0.0031865
0.0113604
0.0144283
0.00697013
0.00129766
0.0101023
0.00191324
0.00662315
0.0113785
0.00206783
0.00688686
0.00673247
0.00626777
0.00385529
0.00173887
0.0002277
0.00826576
0.00468458
0.00693629
0.00651775
0.00941156
0.0072103
0.00085054
0.00347799
0.0018573
0.00206048
0.00747086
0.00306107
0.00681397
0.000260419
0.0031975
0.000224273
0.00540046
0.00687203
0.000552958
0.000609871
0.00326971
0.0193353
0.00657534
0.00791232
0.00148139
0.00119661
0.00200046
0.0067179
0.0067184
0.00876352
0.00880222
0.00622482
0.00682093
0.00218617
0.00573349
0.00555874
0.00247894
0.00990713
0.00534482
0.00966479
0.00178472
0.0150182
0.006817
0.00115799
0.0089941
0.00697843
0.00233372
0.00676405
0.00468766
0.00680689
0.0124096
0.00677303
0.0067879
0.010201
0.0022872
0.00671501
0.00975194
0.00680277
0.00683636
0.00674604
0.00683105
0.00682268
0.000177707
0.0108342
0.00678329
0.000776706
0.00236076
0.00251324
0.000816353
0.00222027
0.00550179
0.00268287
0.00671941
0.0120767
0.00567806
0.00925483
0.00691243
0.00467877
0.000291017
0.00293242
0.000864296
0.00936125
0.00671924
0.00613496
0.00359398
0.00266092
0.00445224
0.00680656
0.00525872
0.00124348
0.00679577
0.000625782
0.00672134
0.00693244
0.00158105
0.00942137
0.00133011
0.00138471
0.0100282
0.00683102
0.00684164
0.00252908
0.00673783
0.00682639
0.00682857
0.00519218
0.00678732
0.00672712
0.00677032
0.0021488
0.00670177
0.00614515
0.00685361
0.00414255
0.00216671
0.00665803
0.00719631
0.00668909
0.00674323
0.00218628
0.00257187
0.00689189
0.00679607
0.000792188
0.00376375
0.00851594
0.00381573
0.00192133
0.0067335
0.00684136
0.0012674
0.0107443
0.00232494
0.00313362
0.00673621
0.010898
0.0068111
0.00672715
0.00228579
0.00436962
0.00158639
0.0101817
0.00195628
0.00170142
0.00230004
0.00464664
0.00684142
0.00682514
0.00322211
0.0129202
0.00248361
0.00213927
0.00877783
0.00530917
0.00681555
0.00356522
0.00111823
0.00234871
0.00680004
0.00209711
0.0022323
0.00315963
0.00681924
0.00679116
0.00115533
0.00320416
0.000547602
0.0132578
0.00660473
0.00258861
0.00682152
0.00255191
0.00402238
0.00683963
0.00140571
0.00850779
0.00252085
0.0166795
0.00678459
0.00683784
0.00672118
0.00979896
0.00111285
0.00666215
0.00129628
0.00197311
0.00681778
0.00684114
0.000518343
0.00963909
0.00104149
0.00964451
0.00159325
0.00284999
0.000157538
0.00181669
0.00298121
0.00295819
0.00229977
0.00342477
0.00680329
0.00222003
0.00166451
0.00679832
0.00157524
0.00259231
0.00165598
0.0052292
0.00152515
0.00678596
0.00596586
0.00360149
0.0067157
0.00684443
0.00674474
0.00676546
0.00679249
0.00681314
0.00383093
0.00683692
0.00680356
0.0117323
0.0022923
0.00680755
0.00318287
0.00574325
0.00672222
0.00675579
0.00269271
0.00618094
0.00164099
0.00678869
0.00677641
0.00298908
0.000371167
0.00682101
0.00681033
0.00191022
0.00399482
0.0022738
0.00333077
0.00683341
0.00120183
0.0039545
0.00680435
0.00140239
0.010198
0.00691178
0.00344402
0.00684625
0.0032674
0.00682995
0.00594683
0.00675371
0.00678035
0.00489972
0.00330995
0.00029733
0.00383932
0.00679867
0.00471155
0.0105154
0.00183307
0.00129471
0.00205515
0.00679526
0.00357218
0.0193882
0.00125313
0.00301743
0.00527798
0.00871703
0.011354
0.00578668
0.00682474
0.002572
0.00680745
0.00236921
0.0107041
0.00683551
0.00429649
0.00683815
0.010083
0.0028607
0.00679546
0.00327594
0.0101123
0.000837501
0.0047033
0.00268168
0.003502
0.00671481
0.00974467
0.00673079
0.00350671
0.00673935
0.00640834
0.00874591
0.00233322
0.00677802
0.00584449
0.000940075
0.00683027
0.00683274
0.00387174
0.00636681
0.00679259
0.00470476
0.00649793
0.00682459
0.0067595
0.00245558
0.00208432
0.00130882
0.0067211
0.00248877
0.00904301
0.00511158
0.0067864
0.00683906
0.00324369
0.00215727
0.00681262
0.00678219
0.00677469
0.00684232
0.00626935
0.00362154
0.00690022
0.00242075
0.00668785
0.00676107
0.00667823
0.00256535
0.00365589
0.00202247
0.00681561
0.00469358
0.00837695
0.0057875
0.00351234
0.00515341
0.00938272
0.00217547
0.00277712
0.001409
0.00684029
0.0132948
0.00610552