/*--------------------------------*- C++ -*----------------------------------*\
| =========                 |                                                 |
| \\      /  F ield         | OpenFOAM: The Open Source CFD Toolbox           |
|  \\    /   O peration     | Version:  v2012                                 |
|   \\  /    A nd           | Website:  www.openfoam.com                      |
|    \\/     M anipulation  |                                                 |
\*---------------------------------------------------------------------------*/
FoamFile
{
    version     2.0;
    format      ascii;
    class       volScalarField;
    location    "750";
    object      omega_0;
}
// * * * * * * * * * * * * * * * * * * * * * * * * * * * * * * * * * * * * * //

dimensions      [0 0 -1 0 0 0 0];


internalField   nonuniform List<scalar> 
13917
(
5.2078
0.038274
0.196312
0.0221126
0.0284996
0.0377026
0.0258477
0.075059
0.0248271
8.50714
0.0776856
0.0217109
0.0245117
1.47296
0.0272751
6.77123
0.0219119
0.0667353
0.101587
6.93584
0.0323577
0.0217136
0.0412806
0.0217159
0.0230007
0.0343711
1.6698
11.4469
0.0452793
0.0199939
9.79173
0.0597504
0.0221342
2.96541
0.0214996
0.13437
0.0236905
0.0240872
0.0258856
0.0360573
0.0216925
0.0218828
0.0235837
0.0958386
0.0951599
0.21217
0.0307535
5.20792
1.25956
0.0215139
0.0216816
0.105434
16.2816
0.0216489
0.0217122
0.104302
9.69171
0.0412713
0.0217594
0.162441
3.56909
0.0295732
0.020756
0.0228413
3.07018
0.0920658
0.049987
0.10871
0.0778247
5.68336
2.8188
3.0764
0.0216959
0.0215257
0.0331558
0.0234162
0.0243844
0.0214288
0.0232278
0.0221998
0.0221878
0.0220825
0.0216826
2.96589
0.0211503
0.116997
0.0577313
0.0216361
0.0357898
0.021838
0.020771
0.0237278
1.23233
0.0211862
0.0221258
0.049701
0.602442
0.0224799
0.0215337
0.113431
0.0211322
0.0210748
0.0222269
0.021574
0.0243259
3.26288
2.75509
0.0293772
0.0222066
1.76168
0.0215377
2.92642
0.0451454
5.92059
3.07724
0.0237816
0.0949524
0.0208398
0.161936
0.0216311
0.0219881
0.0211491
0.0555845
0.0835554
5.29597
3.08889
0.0226954
0.0349158
0.0211846
0.0848654
0.0305415
0.133498
3.54378
0.0237442
0.0698795
1.77637
3.26398
5.20468
0.0367022
0.0240319
0.851816
0.0212766
3.25261
0.0211945
0.0216309
0.0243081
2.78562
0.603941
5.40798
0.02168
0.0333182
0.0209358
0.0216127
0.0216393
1.24249
0.0224141
0.0215048
3.52098
0.0213811
0.0209931
0.0211315
2.85142
0.0254939
0.83876
2.6445
0.112148
22.7487
4.04721
0.0195796
0.0390136
0.0218437
3.43176
0.0247925
3.28249
0.0632116
0.0211192
0.0221157
0.116137
0.0299105
0.0260162
0.0234926
0.0217537
0.0216799
0.166745
0.165629
0.115961
0.021656
0.1675
0.0199962
0.114914
0.0632724
0.087993
0.126188
4.953
0.0211929
5.1021
0.0251643
3.60567
0.0214661
0.0221775
0.0289411
5.46569
6.61811
0.0233748
1.73198
0.0343861
0.0336221
0.0212774
0.114538
0.0221836
0.0209047
0.0356333
0.0410921
4.7894
0.0679511
0.0361096
2.92125
0.0227932
0.0203901
0.0203775
4.31783
0.146886
0.140609
0.021363
0.0209237
1.79241
6.11737
0.0203312
0.0203157
0.0217457
0.0204043
0.0203944
3.2218
3.20869
0.0218597
0.0195835
0.0675605
3.30881
0.0215146
0.0213606
1.77929
3.31607
0.171753
2.91204
0.0870918
0.0212013
3.24919
0.0702577
0.0419757
0.0677937
0.0231484
3.49589
0.0216414
0.0384108
0.0572429
0.0219653
0.0218772
0.0228204
0.0267874
0.0215964
3.68187
1.09618
0.0211435
0.0203161
0.0225219
0.0203202
0.0216457
0.0244891
0.0341326
0.0212727
4.17384
2.69494
0.0214807
0.0248573
1.09828
0.020272
0.0849169
3.31132
0.0202839
4.20609
0.0214978
2.84669
0.0211891
0.0258537
0.0220356
0.0211656
0.134365
0.0230132
0.138635
0.0272227
1.07491
0.024892
1.16743
5.46143
0.0210845
0.0469279
0.0273201
0.0240421
0.0279848
0.0231869
0.0212679
0.0225875
0.1146
0.0364751
0.0373539
0.0230478
0.0213439
3.55872
8.21073
0.0211074
0.0237251
0.0240752
0.767933
0.111371
2.71886
3.01903
0.129452
0.134653
0.0245845
2.78218
0.840345
0.194715
0.0243053
0.0270249
1.60044
0.0221028
0.0411243
0.0870466
0.0217462
3.42934
0.0211974
0.037686
0.0204853
19.0643
0.0208029
0.0353339
0.0349537
0.115123
0.0216473
0.0678516
3.01393
0.0220303
0.0220951
2.91618
3.09535
2.72167
1.48211
0.0202598
0.0218166
3.38688
0.134701
0.0202744
0.0279244
0.0216534
0.0510492
0.0362895
0.10188
0.0833725
0.0857195
0.0373101
3.12058
0.0212215
0.022037
0.0301787
0.16259
0.021661
5.96553
0.0371016
0.291996
0.0217516
0.10936
0.0232162
1.16312
0.0219062
0.156092
0.864707
0.0374463
0.0215013
1.63203
0.020708
2.71314
0.135163
0.0219027
1.17473
0.0223934
0.216608
0.0207488
5.88593
0.214457
0.0232656
1.81894
0.0749863
0.022835
2.69153
0.205882
0.022908
0.136229
0.0217292
0.0768497
0.195203
0.0212226
0.0253706
0.023022
0.02115
0.0209362
0.0212694
2.95474
0.111166
0.0218788
0.0213345
0.0215662
0.0458121
0.33904
0.0203209
0.0195987
0.109545
0.108809
0.0211906
0.0231381
2.63377
1.70745
0.159686
0.107413
2.42043
0.0208287
0.0202903
0.0297551
0.0209261
0.0203367
0.0219337
0.0203069
0.0207659
3.13995
0.0217694
0.038635
3.82253
0.0465592
0.0209248
0.0215957
2.71846
0.0289999
6.4613
0.0204265
0.0213412
0.0208038
0.020418
0.0235882
0.0225797
2.59602
0.0254014
3.36775
0.0213357
0.0326795
0.0256593
0.0221234
0.0851695
2.70354
0.0216231
1.78678
0.0209575
0.0213675
0.0215259
0.0224108
0.0208595
0.0222386
3.51559
3.49485
0.0208407
1.36177
0.107534
0.0218631
0.0508676
0.0644496
2.65665
0.0260182
3.29165
0.29818
0.299465
0.0226014
0.0797951
0.0260227
0.0230314
2.49705
0.0209101
0.0216
0.0221309
0.0250978
0.0315753
0.144592
0.0483372
0.0241694
0.0256881
0.0645001
0.0496916
0.021881
1.34754
0.0335074
0.02724
2.80801
0.0211591
0.0515303
0.128456
0.0208426
3.33993
0.0214783
0.0204145
0.0469851
0.020436
0.0225552
0.11364
3.59904
1.78658
0.0211278
0.0222905
0.0232788
2.33639
2.294
0.0217913
0.0216839
0.0211092
0.0531407
0.493931
0.0212488
0.0215499
0.0221076
0.0211304
0.0258107
0.0272855
0.0210891
0.0491068
0.0208455
0.0216012
0.0229024
2.77926
0.0204242
0.0233539
0.0216017
0.031795
0.0596677
0.0556215
0.0595902
0.120949
0.022703
0.0564414
3.60668
2.92456
3.46349
0.0210366
0.0214864
0.0252766
0.021409
3.12649
0.0203028
0.688056
0.0251525
3.45773
0.0933566
0.0235765
6.25092
0.0208328
0.0560694
0.0223723
0.0226089
3.4758
0.0203653
0.192316
0.0209766
0.0228231
0.0215252
0.138201
0.026221
0.0202894
0.0966804
0.0497994
0.344182
2.62483
3.63662
2.63431
0.0204318
5.95855
0.0203943
3.3984
0.567993
0.0230849
0.0231716
0.0210824
0.0331
0.023288
0.02038
0.0223968
0.0242648
2.22893
0.021176
0.0541565
0.0215715
0.0202774
0.0213002
0.137627
2.75445
12.6853
0.0635821
0.0271608
0.844202
3.21168
0.0207774
2.67748
0.0240266
0.0867976
0.0214034
1.25818
0.0211116
0.0261218
0.0216506
0.320971
0.0343044
3.06967
0.0212066
0.0329576
0.0214613
0.0212683
2.99878
0.115877
0.0216612
0.110802
0.0213435
0.0222899
0.0210551
2.87517
0.0211798
0.0272356
0.0202911
0.0215582
0.162703
0.0209835
0.103075
0.022276
0.0208192
3.43711
0.0557268
0.0217428
17.8052
0.184276
0.125176
0.134781
0.0208154
0.0282141
2.87153
0.215292
0.0286404
0.0237015
0.0264139
0.0221354
0.0212535
0.181487
0.0644213
0.0244526
3.25962
0.0347097
0.946683
2.3513
0.0370617
0.0337529
0.1233
3.76715
0.0212732
0.0305462
0.197641
0.0208303
0.0213611
0.0212667
0.0244253
0.0225331
5.68471
0.0322826
0.0212361
0.0811614
0.021116
2.70965
0.0214901
0.0211829
3.50586
0.0561306
0.339831
0.0217438
0.0210975
0.021162
0.022026
0.0271099
0.0211559
5.9827
0.0289967
0.460917
0.34491
0.0304832
3.66043
0.022296
0.0222792
0.0215245
3.20878
1.81269
0.0255076
5.72114
0.695028
0.0208136
0.0211426
0.0236037
3.1797
0.343797
0.03456
0.0219963
0.0233511
0.0895573
0.0239522
0.101194
0.0324236
0.0220754
0.0222216
0.0223246
0.0270251
0.0256735
0.223253
0.0243821
0.0241504
5.72238
0.0209577
0.699201
0.0234219
0.0323285
0.0249924
0.204453
0.0219364
0.0529248
2.7261
0.22994
0.021431
0.024404
0.0233162
0.0213325
0.021639
0.0317307
0.0256647
0.151574
0.103701
0.0207896
0.208361
0.0247807
0.0251242
0.114344
0.0219017
0.0559685
0.419649
0.0203103
0.0561608
0.074024
0.0321388
0.0210653
0.0208862
0.0212445
7.01748
0.0220974
0.0216722
0.0372383
0.0211799
0.0209733
0.0996463
0.131062
0.0381404
1.73366
0.0471374
3.44672
0.0216442
0.0248301
0.315518
0.0230583
0.0311154
0.0216327
0.0213269
0.0217203
0.0248103
0.0575338
0.0210618
0.0905213
0.0219667
0.524063
0.0234532
0.0259579
0.020495
0.0685778
0.0260886
2.79118
0.0396702
0.0220312
2.75643
0.0222972
3.89245
0.0231255
0.0553158
0.0234831
0.0209689
0.0214169
3.36198
0.026949
0.170708
1.76869
0.0213273
0.0323829
0.0195714
0.0260041
0.533149
0.0195934
2.92084
0.0234218
0.0583311
0.0927986
0.515128
0.0204519
0.0214344
0.0920231
0.0208071
0.0216173
0.0227256
0.0214463
0.0373436
0.0204392
0.108035
0.0220735
5.53743
4.00515
0.707811
3.44655
1.78414
7.40562
0.794506
0.0207543
0.0221723
0.0215375
0.0223036
0.021113
0.02706
0.0212179
0.429788
0.0216485
1.12878
0.0220261
0.0291349
0.0802219
0.021084
0.0385089
0.0222956
0.0228308
0.0252202
0.0207016
3.75333
0.0688969
0.171557
0.0211052
0.0215007
0.0219274
0.0220386
2.67694
0.0207761
0.113459
0.0210949
0.294195
0.025569
0.0212025
0.054517
0.0303862
0.0207879
0.34264
2.6395
0.0237186
0.0683787
0.0207913
0.114554
0.0209784
0.0220358
3.47603
0.0217
0.0221774
0.079817
3.80938
0.021303
0.8225
1.03373
0.0220561
0.0229744
0.0214867
1.97556
0.0214738
0.10376
0.021634
3.38762
0.0258839
2.28327
0.0213373
0.0201588
0.257185
0.0230759
0.0208322
3.61558
0.0226952
0.0209268
0.85982
0.0220461
0.0221632
0.0635689
0.0228183
3.13191
0.0365172
0.0642575
0.12279
0.0233016
3.32988
0.0222616
0.0596462
0.021381
3.64708
0.294404
0.0217933
0.0210032
0.0222483
0.0217933
0.0208433
0.0208409
0.021209
0.0214107
0.02772
0.020311
0.0225377
0.063619
2.64258
2.79332
0.0742432
0.0219348
0.275473
0.0211759
0.3118
0.496332
23.7809
0.0203694
0.020764
0.0217248
0.0215698
0.0203477
0.0208006
0.0212399
0.0347623
0.0209339
11.1394
0.852027
0.0209671
3.3816
0.0213912
0.0212786
0.0283113
2.84341
0.0541432
0.0210744
0.336263
0.0213171
0.0212954
0.197605
0.0222808
1.17055
0.022248
0.0684342
0.0209317
0.0212092
0.0291825
0.250831
0.0226189
3.04119
0.031751
0.0231827
0.0232619
0.0214972
0.0208662
0.0797732
0.0315451
0.0243082
3.10599
7.93142
0.157273
0.0840645
0.0211479
3.22979
0.0211503
2.88785
0.0556123
0.0254531
0.0224725
2.43378
1.76651
2.00934
0.0222624
0.499169
0.0208489
0.0212231
0.0325282
0.0220246
0.0216126
0.410824
4.09203
0.0212086
0.026255
3.37406
0.0209775
0.0202845
0.678417
2.72968
0.0222036
0.0204981
0.0255122
0.0215748
0.0212502
0.0317828
0.0250446
0.0215218
0.39521
0.0222677
0.0891666
0.520599
0.0310494
3.5335
0.0217686
0.0219858
0.0408657
3.82454
0.143993
0.0232825
0.0303104
0.0219212
0.0222734
0.0212604
2.77215
0.0252124
0.02228
0.0469504
0.0211648
0.230201
0.0666509
0.100639
0.0520385
0.340304
0.340199
2.58436
3.14022
0.0240868
0.323966
0.0203016
0.0516489
0.0687462
0.529033
0.0240294
0.0226188
0.0247249
0.904863
0.0228226
2.64108
0.0323023
0.0772239
2.69841
0.0213105
0.0859799
0.0230737
0.0216062
0.0272821
0.0682326
0.0202843
0.0207392
0.0224968
2.72733
0.0209258
0.0227087
0.0232864
0.0222573
0.0215117
0.0806159
0.0601068
0.0222835
0.021069
0.0868496
0.032105
0.0344581
3.4035
0.0217826
0.021443
1.78163
0.0216796
0.0228952
3.17408
3.42463
0.0285783
0.0517352
0.0256483
7.6231
0.116284
0.0304342
2.63673
0.0212075
0.069801
2.61573
0.170128
0.429688
0.955086
0.0207404
0.0215658
0.0244372
0.0215309
0.0216476
0.223102
0.0217063
0.0402144
0.0205139
0.0501324
2.70318
0.0228457
2.45272
1.79181
0.021441
0.0655786
0.0254285
0.0225853
0.0213331
3.30751
0.0623675
3.61073
0.0262988
4.03068
0.0755184
0.0211218
0.617299
0.0324638
0.0228641
0.021216
0.169754
0.0213396
0.0248127
0.0340507
0.0248528
0.0219481
0.048764
2.23274
0.0211437
0.144775
0.0669431
0.0216161
0.0211541
0.0242834
1.71632
0.253497
0.020906
0.028453
0.0265444
0.713037
6.62256
0.0215765
0.0209529
0.0207371
0.0215031
0.024831
0.023484
2.21053
0.0221083
0.0237817
0.0647733
0.0264259
0.0733033
2.76513
3.91412
0.0217688
0.0216191
0.0209016
0.0224644
0.0603121
3.802
0.128985
0.0824884
0.0285901
0.0442779
0.0232121
0.0241185
0.0245861
0.0936528
0.0211813
0.110266
0.0284002
0.0208136
0.0217297
2.98497
0.0437028
0.0493431
2.66529
0.109753
0.0211646
0.700576
0.0237393
0.0212371
2.72708
0.456733
0.0211999
0.0285374
0.0918992
0.0314222
0.0221201
0.0204201
0.0211663
0.0208987
0.0213307
0.0279907
0.0457546
4.44343
0.0318177
0.0248812
0.0294151
0.0729487
0.0210341
0.0316436
0.149039
0.191644
2.68312
0.0226502
0.0204033
3.53565
0.0210681
0.122763
0.0226222
0.0388238
0.0218209
0.0211219
0.159454
0.0252747
0.0225795
0.0214913
2.37555
0.238714
3.27611
0.0218073
0.0215326
0.973715
0.0209759
0.0208514
0.105205
0.446388
0.0257552
0.0309329
0.022064
2.65835
0.0212443
0.0240202
0.0219492
0.0203869
0.188663
0.0212397
0.0208787
0.531653
0.0512857
2.16688
0.187635
0.0211849
0.0283292
0.0209783
0.0211269
0.0233183
0.0225293
0.0215919
0.162662
0.0215679
0.0631979
0.0268454
0.0253833
0.0215913
0.0218855
0.0212219
3.36
0.0202808
0.603564
0.0604565
0.0228469
0.0460692
0.0308874
0.0285883
0.0214999
0.0264746
0.0209497
0.0208111
0.274419
0.034238
0.0277393
0.021462
0.0213678
0.021082
0.0672995
0.0211659
2.86874
0.0408918
0.0212736
0.0213121
0.0206619
0.0406686
0.0208241
1.77634
0.0316306
0.226802
0.0254047
0.0834641
0.0235004
2.83178
0.0205073
0.0202386
0.0242296
0.239372
0.0206904
2.94022
0.0215718
0.0215867
0.107541
0.168372
8.25773
0.147187
0.0248211
0.130584
0.0273884
0.0207963
2.84564
0.0214013
0.0211033
2.15342
0.0205861
2.96429
0.0233486
0.0210779
0.0214234
0.0208337
3.66146
0.0213147
0.0204183
0.0651556
0.0211903
0.0209492
0.0214932
0.0208118
0.0402526
0.0216722
0.0239614
0.0207148
1.31371
0.0523048
0.0207337
0.0207417
0.0221603
0.0212968
0.0234216
0.0218701
0.0214025
0.0216966
0.0214632
0.0223307
0.0214801
0.0585136
0.0206577
0.0689869
0.0216361
0.0443171
0.0208741
0.0215734
0.0211595
0.0203284
0.0333868
0.0255873
0.0244033
2.23398
0.0274336
3.43622
2.77977
0.0688915
3.51162
0.0215883
0.0214601
0.58372
2.76102
0.0211646
3.32178
0.0207523
0.101995
0.725999
0.0233097
0.0708137
1.58076
1.93521
0.0214502
0.041773
0.0209834
0.10322
0.0237031
3.15964
5.44114
0.0216662
0.0472005
0.293544
0.0219974
2.29115
0.254896
0.0228704
0.0209568
0.228903
3.3196
0.0207927
0.0297306
0.0218494
0.153273
0.114267
0.0215312
0.020905
1.33481
0.0210859
0.0214476
0.0220116
0.0207561
1.66632
0.0277995
0.0270081
3.18247
0.0213358
0.0521952
0.021687
0.223834
0.049015
0.122306
0.0208441
0.0263268
0.020767
0.0218464
0.0233767
0.0214737
2.47932
0.0224466
0.0207985
0.0211547
0.272134
0.0209395
0.533369
2.55145
0.731984
0.0215463
0.0209674
0.0212449
0.826087
0.0217457
3.05258
0.0215333
0.507016
0.0227688
0.0228426
0.166599
0.0215849
0.0218611
3.36989
0.0937242
2.91767
0.0220079
3.44821
1.75069
0.021536
3.11547
0.0216637
0.0249073
3.44211
0.0232267
0.0381791
3.67733
0.0283887
0.05892
0.0215804
2.19532
0.0214258
0.53471
0.0212483
4.22458
0.0214464
0.0215728
0.0233109
0.477092
0.0209999
0.0265526
0.0569279
1.43794
0.0212582
0.0276898
3.46387
0.200982
1.90151
0.0670171
0.0208725
0.0946125
0.327622
0.0236176
1.08982
0.020194
0.121893
6.20548
0.0210493
6.51766
0.0213142
3.37936
1.08722
0.0233519
0.0236243
0.537648
0.682861
0.0214719
0.0225564
0.0207726
0.0215529
3.1131
0.0565835
0.174416
0.0216921
0.0261699
3.00698
0.0292867
0.767497
1.53392
0.021148
0.0213847
0.157721
2.60989
2.22371
0.689336
0.165927
0.0351916
0.0490277
3.41599
2.62737
0.467609
0.0209569
0.0690931
0.0399994
0.0620546
0.0214336
0.0251484
0.0525569
0.114658
0.727606
0.0222024
1.54515
3.16333
0.0393273
0.0214274
0.0214311
0.104705
0.0210104
3.56261
0.0266814
0.0219731
0.147654
0.0313504
0.0207203
0.0327934
0.027923
0.0214572
3.69159
0.0253769
3.73199
0.0210745
3.0011
0.223719
0.163194
0.0203273
0.0254143
0.028796
0.124816
0.097773
0.0591662
3.12117
0.119185
0.0196216
0.0248432
0.0224302
0.105788
6.30052
0.0206456
0.0206966
0.0224806
1.03861
0.130209
0.0211292
0.044649
0.144973
0.0209299
0.0305254
0.0235024
3.71401
0.0263804
0.125727
3.15263
0.0268589
0.0239728
0.98587
0.0211445
0.042107
2.78913
0.0246213
0.0742789
0.0293912
0.0509265
2.55767
3.3992
0.0215598
1.09095
0.121294
0.0205932
0.110232
0.0582614
0.0947303
2.34031
0.351485
0.721092
0.0924036
2.64885
0.025758
0.0575991
0.0204019
0.0217152
0.0215034
0.0209339
0.171592
0.115207
0.020287
0.0421629
0.144035
0.0211316
0.414507
3.08096
0.0200401
0.021709
0.0205143
0.0223958
0.0397845
0.0214223
4.02523
0.0277916
0.0612428
0.0251325
0.0604083
0.0474436
0.0310043
1.55296
0.0214562
0.0224836
0.0202427
0.0210054
3.48962
0.0812849
0.0273323
3.85221
0.0217479
0.0219996
0.03
0.0207835
0.0212058
0.0649147
0.0245272
3.16479
2.13033
3.3295
0.0216123
2.96204
0.0212609
0.238052
0.0206998
0.118331
2.47368
0.0215524
0.717267
3.43658
0.0302906
0.0224929
0.0208961
0.0264534
2.68228
0.0207312
0.0217507
0.0227283
0.0242475
0.15899
0.022837
0.0247604
0.021117
0.0227338
1.07104
0.0313527
0.023619
0.105955
0.0881489
3.23442
0.968661
0.0233331
0.0223535
2.85862
0.0214494
0.0575234
0.0216348
3.16322
0.0221797
0.0219333
0.0310846
2.82201
0.0213889
0.0208421
0.020489
0.12139
9.96778
0.101272
0.0214789
0.0235007
0.0209331
3.24573
0.0209618
1.82934
0.0501343
0.0217501
0.145448
0.0315727
0.221555
0.0219898
0.0208421
0.0283007
0.0379021
0.105576
0.021696
0.0218881
0.0220717
2.84308
0.0216902
0.0223945
3.35838
0.0227808
0.0256004
0.0239379
0.0211444
0.0213706
0.60243
0.0230602
1.57333
0.269745
0.0200125
1.17993
0.0218183
0.0905165
0.0434171
0.022642
0.0203731
0.0199839
0.0214104
1.14132
0.0422124
3.41201
2.64756
0.0209676
0.025943
0.0352243
0.896895
0.0214073
0.0427633
3.41684
3.03096
0.0213611
0.0226812
0.0219262
0.683348
3.46219
0.0218125
0.0215476
0.0285108
4.22101
0.0216472
0.0227461
0.0227718
0.0995774
0.449116
0.0205262
2.74335
0.0278058
0.0214164
2.64087
0.049873
1.3187
0.980027
0.0299255
0.0251225
0.0224466
0.0256827
0.0220274
0.0626868
0.0425611
0.021411
0.023798
0.197241
2.2456
0.0207147
0.0938873
2.97533
1.35282
0.0215628
0.0215342
0.28207
2.54818
0.0729117
0.0211761
2.58755
0.0578136
0.0200762
4.43946
0.0260771
0.0216934
0.155546
0.0214432
0.0327504
0.0209365
0.0198845
0.0215893
0.0204838
3.06574
0.0202823
0.0211805
0.0672502
0.0242922
0.0239517
0.113956
0.0215044
0.0214801
0.0226425
0.0222613
0.234069
0.226791
0.313055
1.08426
0.0321776
0.508654
0.0433596
2.85223
2.5792
3.00286
0.0209215
0.0283881
0.0214268
0.0215351
0.021075
0.0224438
0.158905
0.051996
0.035079
0.021109
0.0213911
0.0490494
0.0217323
0.0218472
0.0215117
3.26136
0.0289852
7.62107
0.0216018
0.272742
0.021933
0.0218708
0.0221093
0.038285
0.0210705
0.0740671
2.89571
0.0374113
3.59647
0.590025
0.0234694
0.026164
0.351218
0.0974238
0.0204356
0.021026
0.0200041
2.67444
0.0198625
0.0684393
0.0410714
0.0674821
1.61248
1.54946
0.0568925
3.73207
0.0208099
0.0204788
0.120606
2.78742
0.0214149
0.0215849
0.565655
0.0209705
0.162811
0.0228927
0.0208587
0.0245971
0.0215092
0.0624074
2.81392
3.07563
0.0240514
0.0216651
0.068166
0.0223766
0.0678092
0.0209189
0.116079
0.0779982
0.0218453
0.0216504
0.0200629
0.106454
0.0451578
0.162575
1.759
0.0278987
2.8711
0.06423
0.0943341
3.27525
0.0212781
2.65518
0.0221996
3.29116
0.156113
2.63277
3.14054
0.0221358
0.0478421
0.127323
0.021479
3.79079
0.0214767
0.0214939
0.0250007
0.0219982
0.0286663
0.207458
1.07735
3.54424
0.0248793
0.0365149
0.0223812
0.0218935
0.0216545
0.112229
0.0748787
2.88171
0.0400611
0.0203364
0.0207811
0.0220345
0.198637
0.023644
0.0223656
0.0242861
0.0760612
0.0293168
0.0385879
0.0347204
2.71982
0.0276033
0.0302579
0.0214138
0.0250608
0.706218
0.158818
0.0421372
0.0207799
2.65724
0.0302636
0.0211502
0.0431536
2.89513
0.111569
0.0308067
0.0209842
2.64074
0.0218901
0.0209377
0.0203833
2.15046
1.26355
0.0234542
2.41262
2.90771
0.0247092
0.0347493
0.0528594
3.6983
0.0286316
3.42698
0.0219314
0.0262067
0.0249366
3.58214
0.0307262
0.0209195
3.04201
0.0216903
0.0222032
1.78892
2.96088
0.0612194
1.09331
0.0238232
0.0224486
2.2004
0.0211525
0.0211885
0.0215694
0.040363
0.0213934
0.0293923
0.0246924
0.0294721
1.41079
0.0220696
3.77122
0.0245213
2.97871
3.45746
0.0215445
0.0216997
0.0246292
0.123241
0.158701
0.0585132
2.89226
2.66782
0.123503
0.022754
2.57822
3.04373
0.042961
0.844895
0.021584
0.0213668
0.0215866
0.022343
0.0213046
0.0305673
3.12876
0.0293787
0.275551
3.32561
2.38259
3.21457
3.28178
0.0273503
3.57455
0.0930237
0.064794
0.0206794
0.0215204
0.0596366
4.03015
0.0225228
2.79975
3.14212
0.0209652
0.0215826
0.0218484
0.0761256
0.0219794
0.0636785
2.6757
0.0206896
0.0214086
0.02094
0.0221238
0.0849861
2.92982
0.0333792
2.9168
0.0957121
0.0211651
0.262202
0.108879
0.0216994
0.324126
1.06653
2.74417
2.05003
3.43319
0.0214037
2.31272
2.97561
0.138303
2.92216
0.0210488
0.0229161
0.0233731
0.0230146
3.20185
0.0579972
0.021675
0.0259564
0.297942
3.06258
0.0226468
0.0220415
3.50587
3.25859
0.0216936
0.0265406
0.0918369
0.0213244
0.0214146
2.33364
0.0211216
0.219764
0.265338
3.30085
0.0210539
0.0639967
0.123789
0.0211222
0.0201225
2.36073
2.29339
0.0219633
0.0311246
0.144849
0.182016
3.48247
2.25858
0.0247721
0.256289
0.342918
0.0317804
0.0211161
0.0756134
0.0204375
0.0202371
3.2246
0.0345423
0.0818798
0.0237825
0.0253664
0.0210126
0.0205085
0.0220311
0.0222033
2.60264
0.0235873
1.61141
6.10576
0.0394155
0.0625245
2.6664
3.49648
2.61669
0.0208934
0.0241102
0.0322255
0.0245869
0.16028
0.333421
0.0220113
1.16605
3.25247
0.0254551
0.0793964
0.0658838
0.0865346
0.0943911
0.0225034
0.10488
0.114838
0.126277
0.13952
0.0974454
0.0720762
0.0260528
0.0210984
0.0303276
0.0787778
0.0210866
0.300378
3.63652
0.150383
2.98746
0.0200965
0.0207732
0.0303016
2.80388
0.0221371
0.023405
0.0561144
3.35526
0.75638
0.0214736
0.0290878
0.0243865
5.00368
0.290036
0.0236048
0.27562
3.03072
0.0878924
3.34469
0.0828298
0.0441285
3.57768
0.0195726
3.6657
3.12999
0.0223241
0.061264
0.0852773
0.0248939
0.0209361
0.122102
1.05346
0.0209789
0.0210277
2.57336
0.461155
0.0688974
0.0216912
0.19599
0.112262
3.11253
3.72246
0.0215631
0.0213769
0.0220948
0.0230974
3.36663
0.679004
2.98525
0.0734856
0.155283
0.456452
0.0231178
0.0210624
3.09555
0.0210032
3.50596
0.020809
3.34568
0.0223357
0.0222584
0.771802
0.0216398
0.0969094
0.547995
0.0242848
0.023219
0.0224414
0.153309
3.26098
0.135128
3.01937
0.024412
0.0230255
0.0263673
0.0663908
3.79092
3.75222
0.0841764
0.191715
0.107214
2.5519
0.0208312
0.0209771
0.0207066
0.0206806
0.151848
0.0637551
0.160815
0.0373278
0.127414
0.0211321
0.293972
0.24948
4.57934
0.0214678
0.0225686
0.0199007
2.97811
0.0231691
0.338032
0.151329
0.104605
0.165974
0.020033
0.0338088
0.131818
0.15092
0.386738
0.0216483
0.115056
0.0219498
0.0219661
0.0871938
1.06132
1.80726
0.0217645
0.0747845
0.114685
3.23132
5.2107
3.3666
3.35429
0.0210697
0.0537542
0.0216359
0.119434
0.0212659
0.0962649
0.022992
0.0438825
0.246308
0.551587
0.0240389
0.0862303
3.1053
0.100828
0.0232323
1.79753
0.092517
0.0225307
0.0222852
3.25076
0.0271445
0.110294
0.223504
0.0630867
4.01092
0.0235928
2.94359
2.87079
1.00754
0.127505
0.029269
0.0941053
0.085183
3.30811
0.0596173
0.0220339
0.899895
0.0429423
0.265251
0.0263029
3.06779
0.947146
1.52508
0.0251808
1.51142
0.0236058
3.04142
0.133451
1.69569
7.35073
0.0209455
0.0198806
3.07934
3.62397
0.0320025
0.0219606
0.0382012
0.0285912
2.94043
0.0705576
3.15453
0.0250108
3.21327
0.1071
1.18022
0.0219958
0.142153
3.39012
0.0242578
0.0739958
0.0200839
0.0237148
0.0216046
0.255006
0.0211921
0.0216071
3.54839
2.65465
0.0206631
3.71093
0.0221688
0.0215164
0.0212999
0.0209792
0.0217199
0.388594
3.46498
0.0206846
0.45339
0.0600747
0.0430927
1.13199
0.0755843
0.0246402
0.0297916
0.021297
0.253663
0.028575
3.75043
0.024853
3.07798
0.639571
0.062496
1.38574
3.2855
0.0207926
3.64717
0.0497798
0.0584729
0.0393959
0.0211841
0.0392482
0.162506
0.0215668
0.195893
0.0214201
3.32801
0.124544
2.53412
0.150512
0.14394
3.51584
0.0215481
0.0212648
0.0559526
0.0226409
0.0217
0.0217252
0.0259772
0.021106
0.0211999
0.0224252
0.0389952
0.0228699
0.0260577
0.0229329
0.0338718
0.0878372
0.0231365
3.43046
0.0229388
0.0212541
0.0821037
0.0383049
0.023191
0.0210977
0.305781
0.0230557
3.15864
0.0232087
0.0994494
0.0213032
0.0214353
0.085735
3.62848
0.0628805
0.0324819
0.0201886
3.12784
0.0216256
0.0211639
0.0683929
0.0234642
0.124279
3.08397
0.0868443
0.123011
0.03793
4.06199
0.0214774
0.0215959
0.0563854
0.257483
0.0534826
0.088222
2.74298
0.0262601
0.0215496
0.0265427
0.195531
0.0512677
0.0215839
0.0894585
0.084981
0.0576034
0.0217168
0.0216215
0.163909
0.0566217
1.55074
0.505359
0.023356
0.0631413
0.0216929
0.0401614
2.3754
0.0216595
0.141482
0.0215292
0.0736754
1.13137
0.0215341
0.0213722
0.0212494
3.54171
0.185188
0.023078
0.0855752
0.0976169
0.021671
0.0214223
0.100638
3.65293
0.165487
3.13358
0.131654
0.0287537
0.269021
0.106926
0.0285719
0.339609
0.0777398
0.33313
0.0215047
0.0854911
0.117721
0.0222083
0.459675
0.036088
0.0757398
0.0259239
0.12959
0.0211113
3.9941
0.0239236
0.0208119
0.0210435
0.0207745
0.0224347
0.0222594
0.0209337
0.0236003
0.0215865
0.0221593
0.253512
0.0701175
0.0220699
0.0570897
0.0239719
0.0225681
0.020467
0.0420901
0.0261951
2.13968
0.0215504
0.0215749
0.0612804
0.166232
0.0215725
0.021527
0.0995224
0.0231431
0.0821405
0.054266
0.0215846
8.84808
0.0233223
0.0221615
0.0667935
3.76792
0.0225891
0.0522224
0.0209765
0.0249032
0.0214316
0.026004
0.021188
0.0215883
0.0438655
0.0546722
8.9498
0.0460868
0.0214858
0.0270991
3.26151
0.0459911
0.155135
0.0888147
0.0216181
0.0487297
0.870351
0.161379
1.42503
0.0249757
3.35968
0.342618
0.0279884
0.0216716
0.0671022
0.0221188
0.0507726
3.09514
0.0215419
0.0599658
0.0217432
2.84594
0.0439265
0.0222227
0.0553374
2.95931
0.144285
0.023378
0.0654306
0.028691
0.0206474
2.21167
0.0205404
0.0317146
0.0210989
0.0243901
2.64762
0.0646575
0.0205572
0.0275929
0.154024
0.0215258
0.0218366
0.0269574
0.02464
0.0214418
0.0233025
0.0239347
0.0219421
0.0211019
0.0555172
0.0917163
0.153514
0.0210317
0.0524092
2.98325
4.34341
0.0208809
0.0215711
0.0243883
0.0804549
0.0220652
0.0210858
0.0212203
0.0209597
0.0251645
0.0263233
0.0248123
0.058699
0.0229578
0.020482
0.0229663
0.0573897
0.04296
0.0948483
0.0220524
0.0272051
3.20094
0.0279804
0.0240379
4.14002
3.19398
0.0874556
0.0608893
0.141201
0.0213891
0.304639
0.0260274
4.31212
0.021411
0.0212297
1.24114
0.0208213
0.26401
3.12945
0.0219072
13.9855
0.0289838
0.0300703
0.0258087
0.0657367
0.0275508
0.0252985
1.608
0.0208949
0.0236959
3.51416
0.0228236
0.0214592
0.0286385
3.16358
0.0220809
0.022083
3.21545
0.0239742
0.0257653
0.0525013
0.0203723
6.18007
0.0235724
0.022211
0.0925219
0.051601
2.97343
0.023076
1.96216
0.0313972
0.0801709
2.82665
0.0215317
0.0305572
0.0805764
0.022057
2.09633
0.0221111
0.0229044
2.90219
0.022239
0.0379243
0.0791699
0.773347
0.0285019
0.0255304
0.0221853
0.023404
0.0796883
0.0238805
0.0290494
0.0757968
0.0486412
0.0216903
3.39891
0.035282
0.0204925
0.0226007
0.0212387
0.0208591
0.0203785
0.0215526
0.0215002
0.0283295
0.0233913
0.0376987
0.0202441
0.0204644
0.0226193
0.0704431
0.020751
0.0290594
0.0590695
0.0274181
0.0283879
0.0214228
0.022914
0.0236959
0.0353858
0.0271865
0.0238648
2.70799
0.0216929
2.26063
0.0241718
0.0788229
0.0772998
0.0215205
0.0530756
0.0295117
3.12849
3.02516
0.0246308
0.0216922
0.0231404
0.0282092
0.0438726
0.0214301
0.0930876
0.0484044
0.0226686
0.0537682
0.0436417
0.0594944
0.0271471
0.168567
0.0901622
0.0260594
0.130469
0.023517
0.113466
0.0222924
0.0212667
0.0731891
0.0755705
0.0213967
0.0457525
0.021442
0.0216247
0.0214464
0.0219398
0.0214726
0.0214083
0.0213902
0.0221193
0.142174
0.0226506
0.0213516
0.0223782
0.0223631
0.166587
2.94439
0.055229
0.0236176
3.31357
0.0214244
0.0213642
0.0746383
0.0301923
0.022264
0.0221452
0.0216283
0.147322
0.0217348
0.0247721
0.0221974
0.031817
3.76306
0.0214531
0.054107
0.0590826
0.0244277
0.0398485
0.0207952
0.021652
0.0543148
1.3552
0.0229241
0.0336945
2.13414
0.0822673
0.0209244
2.8445
0.0224732
0.0196218
0.0517071
3.49686
0.0214736
0.0207459
0.0228445
0.0296737
0.0316677
0.0214214
0.0222551
0.0366078
0.0216482
0.0274243
0.0249349
1.14245
0.020458
2.73407
0.274909
0.0375146
0.0213384
0.0818688
0.0211281
0.0230562
0.0215591
0.0504639
0.0202188
0.0201969
0.0374183
0.0557144
0.610202
0.021842
0.0201025
0.0229433
0.0209015
2.86874
0.0231231
0.0225541
0.0220126
0.0556307
0.0436386
0.0231307
0.0228573
0.0411102
0.0216399
0.0217734
0.0230508
0.0220227
0.119814
0.0211726
0.0290376
0.0219107
0.0215016
0.0449835
0.0809823
2.7463
0.0214473
0.0521192
0.135027
2.9547
3.31619
0.030361
0.0215048
0.0239351
0.0283535
2.56421
0.0218073
0.0244192
0.0259679
0.0291474
0.020272
0.0495005
0.0426626
1.04367
0.0219879
0.0216478
0.0809363
1.09958
0.0201412
0.0239582
0.0312994
0.0199852
0.0223128
0.0418478
0.020923
0.0214461
0.0216742
0.023873
0.0732815
0.033566
0.0223204
0.0207464
0.0220909
0.130354
0.0199286
0.020917
0.0250574
0.0796592
0.0247818
3.5548
0.0238839
0.0214463
0.0215131
0.0227762
0.0212081
0.0309509
0.1193
0.020995
0.0210109
0.0219259
0.0213007
0.0220339
0.0421009
2.66067
0.0230989
0.0896094
0.0238068
0.0213127
0.19697
0.023125
3.53937
0.0217497
0.0217241
0.0207535
0.0214674
0.022367
0.028908
0.0411774
0.124366
0.0267854
0.0488085
0.0217342
0.0313902
0.0214359
0.0230362
0.0312534
2.64302
3.04223
0.0218092
3.25193
0.143862
0.038876
0.313127
0.0198156
0.0214083
0.0216503
0.022661
2.7692
0.0208583
0.0639695
0.211896
0.022286
0.0745772
0.0199752
0.0296054
0.347181
1.0816
0.021771
0.268957
0.102854
0.245951
0.0253245
3.33846
0.0223932
0.122283
0.092315
0.0205335
0.0366559
0.0298468
0.0232432
0.123092
0.0290038
0.0210452
0.0219478
0.176701
0.0216995
0.0491494
0.0215557
0.0198999
0.0231204
0.0306346
0.0215229
0.0733538
0.0257879
0.0235797
0.0198681
0.0214881
0.326078
0.0721654
0.129033
0.0315045
0.0243354
0.0268486
0.0249007
0.0214207
0.0224908
0.0317611
0.0228557
0.0236662
0.0204163
0.0250745
2.83024
0.0219127
1.76355
0.122509
0.0216721
0.0216287
0.0202926
0.0274065
0.0345753
0.0201134
0.0247589
0.0227434
0.0219177
0.0211471
0.021981
0.0213441
0.0215884
0.248958
0.0219619
0.0258277
0.0214551
0.146807
0.0748239
0.0214455
0.276757
0.021604
0.0234887
0.0296665
0.26519
0.027648
0.021009
0.0213655
0.0314259
0.0390592
0.132205
0.0226094
0.045719
0.104327
0.0218732
0.0214762
0.108903
0.0480567
0.0293999
0.0216486
0.0220528
0.0224951
0.0230508
0.0209753
2.16008