/*--------------------------------*- C++ -*----------------------------------*\
| =========                 |                                                 |
| \\      /  F ield         | OpenFOAM: The Open Source CFD Toolbox           |
|  \\    /   O peration     | Version:  v2012                                 |
|   \\  /    A nd           | Website:  www.openfoam.com                      |
|    \\/     M anipulation  |                                                 |
\*---------------------------------------------------------------------------*/
FoamFile
{
    version     2.0;
    format      ascii;
    class       volScalarField;
    location    "750";
    object      omega;
}
// * * * * * * * * * * * * * * * * * * * * * * * * * * * * * * * * * * * * * //

dimensions      [0 0 -1 0 0 0 0];


internalField   nonuniform List<scalar> 
13917
(
5.20795
0.0382834
0.196216
0.0221125
0.0285004
0.0377109
0.0258475
0.0751794
0.024827
8.54059
0.0777128
0.0217109
0.0245115
1.47496
0.0272729
6.77168
0.0219123
0.0667543
0.101581
6.94234
0.0323582
0.0217135
0.0412809
0.0217158
0.0230007
0.0343717
1.67214
11.4533
0.0452834
0.0199934
9.79219
0.0597471
0.0221342
2.96559
0.0214994
0.13412
0.0236903
0.0240872
0.0258855
0.0360562
0.0216926
0.021883
0.0235835
0.0958247
0.0951459
0.210814
0.0307539
5.19091
1.26011
0.0215137
0.0216815
0.105418
16.2824
0.0216488
0.0217121
0.104284
9.52122
0.0412715
0.0217595
0.161381
3.56723
0.0296058
0.0207559
0.0228413
3.0702
0.090205
0.0499928
0.10895
0.0778392
5.68367
2.81917
3.07661
0.0216958
0.0215257
0.0331562
0.0234161
0.0243845
0.0214288
0.0232277
0.0221997
0.0221876
0.0220828
0.0216825
2.966
0.0211503
0.117074
0.0577283
0.0216361
0.0357885
0.0218384
0.0207712
0.0237277
1.23242
0.0211861
0.0221256
0.0497038
0.605948
0.0224802
0.0215337
0.113443
0.0211323
0.0210748
0.0222266
0.021574
0.024326
3.26376
2.75528
0.0294081
0.0222066
1.7623
0.0215377
2.9266
0.0451473
5.90989
3.07726
0.0237816
0.0949469
0.02084
0.16191
0.0216311
0.0219885
0.0211491
0.0555865
0.0835558
5.29637
3.08887
0.0226954
0.0349158
0.0211846
0.0848654
0.0305412
0.133738
3.54309
0.0237442
0.0698742
1.77629
3.26478
5.20506
0.0367032
0.0240318
0.852977
0.0212766
3.25353
0.0211945
0.0216309
0.0243113
2.78592
0.602601
5.40411
0.0216798
0.0333175
0.0209358
0.0216126
0.0216392
1.24425
0.0224136
0.0215048
3.52031
0.0213813
0.0209933
0.0211315
2.85079
0.0254936
0.839412
2.64245
0.111904
22.7495
4.02411
0.0195796
0.0390142
0.0218435
3.43104
0.0247924
3.27811
0.0632156
0.0211193
0.0221156
0.116109
0.0299103
0.026016
0.0234925
0.0217536
0.0216799
0.166675
0.165613
0.116173
0.021656
0.167413
0.019996
0.114754
0.0632785
0.0879804
0.126183
4.95335
0.0211929
5.10248
0.0251643
3.60507
0.0214659
0.0221772
0.0289416
5.46597
6.61864
0.0233743
1.73469
0.0343887
0.0336214
0.0212773
0.114507
0.0221833
0.0209047
0.0356411
0.0410409
4.78064
0.0679459
0.0361096
2.92108
0.0227931
0.0203901
0.0203776
4.29574
0.146862
0.140371
0.021363
0.0209236
1.79178
6.11779
0.0203312
0.0203158
0.0217458
0.0204044
0.0203944
3.22202
3.20472
0.0218596
0.0195835
0.0675615
3.30904
0.0215149
0.0213606
1.78092
3.31681
0.171722
2.91196
0.0871032
0.0212013
3.22837
0.0702585
0.0419786
0.0677924
0.023148
3.49068
0.0216413
0.0384109
0.0572474
0.0219652
0.0218773
0.0228204
0.0267887
0.0215964
3.68208
1.09597
0.0211434
0.0203161
0.0225216
0.0203202
0.0216457
0.0244889
0.0341329
0.0212726
4.17405
2.69494
0.0214807
0.0248573
1.09598
0.0202721
0.0848979
3.31143
0.020284
4.20636
0.0214978
2.84598
0.0211892
0.0258522
0.0220355
0.0211655
0.13438
0.0230133
0.139174
0.0272226
1.0751
0.0248956
1.17296
5.46186
0.0210847
0.0469284
0.0273216
0.0240421
0.027986
0.0231869
0.0212679
0.0225875
0.114582
0.0364661
0.0373541
0.0230477
0.0213439
3.55805
8.21107
0.0211073
0.0236896
0.0240752
0.768627
0.111382
2.71903
3.01499
0.128341
0.134729
0.0245844
2.78243
0.83995
0.194632
0.0243052
0.0270229
1.60382
0.0221026
0.0411391
0.0870368
0.0217466
3.42862
0.0211974
0.0376852
0.0204855
19.0529
0.0208029
0.035334
0.0349563
0.114201
0.0216477
0.0678497
3.01541
0.0220301
0.0220949
2.91632
3.09666
2.72167
1.48394
0.0202598
0.0218165
3.38749
0.134748
0.0202745
0.0279255
0.0216533
0.0510398
0.0362898
0.101875
0.0833847
0.0856994
0.0373093
3.12082
0.0212214
0.0220368
0.0301764
0.162586
0.0216613
5.96602
0.0371009
0.291989
0.0217515
0.109402
0.0231926
1.16632
0.0219064
0.155957
0.859904
0.0374508
0.0215012
1.63121
0.0207082
2.7076
0.135157
0.0219029
1.17819
0.0223933
0.217933
0.0207488
5.89148
0.215976
0.0232654
1.8185
0.0749635
0.0228346
2.69161
0.205918
0.0229078
0.136232
0.0217291
0.0768238
0.195103
0.0212226
0.0253705
0.0230219
0.0211499
0.0209362
0.0212694
2.95653
0.110945
0.0218786
0.0213345
0.021566
0.0458133
0.343647
0.020321
0.0195987
0.109553
0.108834
0.0211905
0.0231379
2.63467
1.70141
0.158531
0.107403
2.42176
0.0208288
0.0202904
0.0297563
0.0209261
0.0203368
0.0219336
0.020307
0.020766
3.12249
0.0217693
0.0386332
3.82262
0.0465601
0.0209248
0.0215956
2.71834
0.0290003
6.46182
0.0204267
0.0213412
0.020804
0.020418
0.0235879
0.0225796
2.59736
0.0253794
3.36846
0.0213357
0.0326793
0.0256568
0.0221232
0.0851766
2.70383
0.0216231
1.78438
0.0209575
0.0213675
0.0215258
0.0224107
0.0208595
0.0222385
3.51487
3.4897
0.0208407
1.3688
0.10753
0.0218631
0.0508685
0.0644482
2.65645
0.0260181
3.29238
0.298024
0.299376
0.0226013
0.0782967
0.0260247
0.023031
2.49514
0.0209103
0.0215998
0.0221306
0.0250977
0.0315754
0.144557
0.0483366
0.0241704
0.0256887
0.0644916
0.0496893
0.0218808
1.34982
0.0335078
0.02724
2.80025
0.0211591
0.0515288
0.128429
0.0208426
3.33933
0.0214782
0.0204145
0.0469867
0.0204361
0.0225551
0.113622
3.59855
1.78537
0.0211278
0.0222904
0.0232778
2.33368
2.29583
0.0217911
0.0216837
0.0211092
0.053143
0.493007
0.0212487
0.0215503
0.0221073
0.0211304
0.0258062
0.0272854
0.0210893
0.0491061
0.0208455
0.021601
0.0229023
2.77953
0.0204242
0.0233538
0.0216017
0.0317949
0.0596691
0.0556086
0.0595955
0.120963
0.022703
0.0564562
3.60613
2.91608
3.46343
0.0210365
0.0214863
0.0252952
0.021409
3.12651
0.0203028
0.687376
0.0251525
3.45724
0.0933289
0.0235764
6.19877
0.0208328
0.0560672
0.0223726
0.0226091
3.47518
0.0203654
0.192362
0.0209766
0.0228231
0.0215251
0.13816
0.0262187
0.0202894
0.0966696
0.0498003
0.34617
2.62513
3.63608
2.63397
0.0204318
5.95894
0.0203943
3.39827
0.565358
0.0230855
0.0231768
0.0210824
0.0331002
0.0232879
0.0203801
0.022397
0.0242646
2.22907
0.0211759
0.0541537
0.0215714
0.0202774
0.0213004
0.137969
2.7534
12.6692
0.0635796
0.0271608
0.844945
3.21188
0.0207774
2.67669
0.0240264
0.0868022
0.0214034
1.25682
0.0211116
0.0261174
0.0216505
0.320134
0.0343048
3.06956
0.0212068
0.0329578
0.0214611
0.0212684
2.99901
0.115654
0.021661
0.110795
0.0213435
0.0222901
0.0210551
2.87539
0.0211798
0.0272371
0.0202911
0.021558
0.162705
0.0209836
0.103079
0.0222764
0.0208192
3.43804
0.0557239
0.0217426
17.807
0.184276
0.126588
0.134752
0.0208154
0.0282121
2.87185
0.215395
0.028641
0.0237013
0.0264083
0.0221357
0.0212534
0.180808
0.064422
0.0244526
3.24364
0.0347103
0.956567
2.35303
0.0370835
0.033753
0.123304
3.7674
0.0212732
0.0305406
0.197135
0.0208303
0.0213613
0.021267
0.024424
0.022533
5.68507
0.0322822
0.0212361
0.0811534
0.0211162
2.70975
0.0214902
0.0211828
3.50531
0.0561312
0.339491
0.0217438
0.0210977
0.021162
0.0220259
0.0271098
0.0211558
5.98324
0.0289965
0.461463
0.344648
0.0304722
3.65995
0.0222959
0.0222793
0.0215243
3.20881
1.8121
0.0255076
5.72167
0.694127
0.0208136
0.0211425
0.0236034
3.18069
0.343393
0.0345605
0.0219963
0.023351
0.0895617
0.0239519
0.101194
0.0324232
0.0220752
0.0222215
0.0223247
0.027025
0.0256741
0.22324
0.024382
0.0241527
5.72287
0.020958
0.698338
0.0234217
0.032331
0.0249924
0.204569
0.0219368
0.0529228
2.72503
0.230133
0.021431
0.024404
0.0233161
0.0213324
0.021639
0.0317223
0.0256439
0.151694
0.103702
0.0207895
0.208384
0.0247805
0.025124
0.114344
0.0219016
0.0559662
0.423586
0.0203104
0.0561612
0.0740334
0.0321384
0.0210652
0.0208862
0.0212445
7.0178
0.0220974
0.0216722
0.0372375
0.0211798
0.0209733
0.0996323
0.131474
0.0380918
1.72976
0.0471301
3.44717
0.0216441
0.0248304
0.315185
0.0230585
0.0310807
0.021633
0.0213271
0.0217203
0.0248103
0.0575177
0.0210617
0.0883525
0.0219663
0.520075
0.0234531
0.0259577
0.0204951
0.0685765
0.0260869
2.79063
0.0396032
0.0220317
2.75669
0.0222971
3.89272
0.0231254
0.0554105
0.0234829
0.0209688
0.0214169
3.36142
0.0269489
0.173317
1.7641
0.0213273
0.0323825
0.0195714
0.0260071
0.531836
0.0195934
2.90924
0.0234217
0.0583425
0.0927971
0.521164
0.0204519
0.0214346
0.0920327
0.0208071
0.0216172
0.0227255
0.0214461
0.0373428
0.0204392
0.107853
0.0220732
5.53769
4.00543
0.706297
3.44714
1.78151
7.40595
0.795142
0.0207543
0.0221723
0.0215374
0.0223035
0.021113
0.0270599
0.0212179
0.432807
0.0216483
1.13318
0.022026
0.0291346
0.0802273
0.0210839
0.0385069
0.0222956
0.0228306
0.0252201
0.0207019
3.75305
0.0688971
0.170388
0.0211052
0.0215006
0.0219272
0.0220382
2.67356
0.0207761
0.113313
0.0210948
0.294032
0.0255677
0.0212025
0.0545147
0.0303943
0.0207879
0.342728
2.63813
0.023718
0.0683764
0.0207913
0.11453
0.0209782
0.0220355
3.47627
0.0217002
0.0221774
0.0798115
3.80962
0.0213033
0.822708
1.03245
0.0220563
0.0229744
0.0214865
1.97723
0.0214738
0.103748
0.021634
3.387
0.0258824
2.28637
0.0213373
0.0201589
0.258469
0.0230758
0.0208337
3.61518
0.022695
0.0209268
0.859641
0.0220462
0.0221632
0.0635699
0.0228181
3.13189
0.0365161
0.0642559
0.122779
0.0233015
3.32922
0.0222613
0.059647
0.021381
3.64721
0.294236
0.0217933
0.0210031
0.0222484
0.0217931
0.0208434
0.020841
0.0212089
0.0214107
0.0277199
0.020311
0.0225375
0.063615
2.64046
2.79283
0.0742375
0.0219346
0.276372
0.0211758
0.311474
0.495267
23.7806
0.0203694
0.020764
0.0217247
0.0215697
0.0203477
0.0208006
0.0212399
0.0347627
0.0209339
11.1688
0.851818
0.020967
3.38105
0.0213912
0.0212785
0.0283264
2.84363
0.05414
0.0210746
0.335794
0.0213169
0.0212953
0.1977
0.022281
1.16929
0.0222479
0.0680387
0.0209317
0.0212091
0.0291829
0.254338
0.0226189
3.04135
0.0317801
0.0231826
0.0232618
0.0214972
0.0208662
0.0797679
0.0315447
0.0243082
3.1059
7.94509
0.159311
0.0840604
0.0211478
3.22971
0.0211503
2.88706
0.0556139
0.025453
0.0224725
2.44012
1.7651
2.00839
0.0222657
0.494587
0.0208491
0.0212231
0.0325278
0.0220243
0.0216125
0.413044
4.09228
0.0212085
0.0262548
3.37429
0.0209774
0.0202845
0.677891
2.72957
0.0222035
0.0204981
0.0255121
0.0215748
0.0212501
0.0317645
0.0250439
0.0215217
0.395521
0.0222706
0.0886175
0.519554
0.0310687
3.53364
0.0217685
0.0219858
0.0410011
3.82484
0.144815
0.0232589
0.0303111
0.0219212
0.0222734
0.0212607
2.77178
0.0251966
0.0222797
0.0469496
0.0211647
0.230372
0.0666503
0.100635
0.0520366
0.339888
0.339869
2.58591
3.13995
0.0240868
0.32468
0.0203017
0.0516495
0.0687475
0.527804
0.0240293
0.022619
0.0247249
0.910191
0.0228222
2.64075
0.0323026
0.0772322
2.69728
0.0213107
0.0859813
0.0230735
0.0216061
0.0272874
0.0680973
0.0202844
0.0207392
0.0224967
2.72829
0.0209258
0.0227084
0.0232863
0.022257
0.0215116
0.0806226
0.0601052
0.0222832
0.0210689
0.0867685
0.0321511
0.0344623
3.4028
0.0217826
0.021443
1.78021
0.0216797
0.0228949
3.17379
3.42468
0.0285768
0.051735
0.0256482
7.62376
0.116076
0.0304343
2.63712
0.0212074
0.0698012
2.61483
0.170123
0.427828
0.964448
0.0207404
0.0215656
0.0244369
0.0215309
0.0216475
0.223105
0.0217065
0.0402149
0.0205139
0.0501307
2.70301
0.0228455
2.45105
1.78907
0.021441
0.0655769
0.0254276
0.0225851
0.0213331
3.30743
0.0623663
3.61096
0.0262989
4.02411
0.0755281
0.0211221
0.614643
0.0324641
0.0228675
0.021216
0.169209
0.0213395
0.0248127
0.034051
0.024852
0.021948
0.0487632
2.23525
0.0211437
0.14494
0.0667994
0.021616
0.021154
0.0242835
1.71204
0.253341
0.020906
0.0284527
0.0265353
0.716244
6.62309
0.0215764
0.0209529
0.0207372
0.0215031
0.0248307
0.0234837
2.20846
0.0221079
0.0237816
0.0647343
0.0264127
0.0733
2.76492
3.90723
0.0217687
0.0216191
0.0209016
0.0224642
0.0603103
3.80186
0.127285
0.0824963
0.028591
0.0442772
0.0232119
0.0243034
0.024586
0.0936413
0.0211811
0.110194
0.0285968
0.0208136
0.0217297
2.98501
0.0437043
0.0493837
2.66176
0.109749
0.0211645
0.696994
0.0237392
0.0212371
2.72678
0.458036
0.0211998
0.0285355
0.0918989
0.0314219
0.02212
0.0204201
0.0211663
0.0208986
0.0213307
0.0279907
0.0457531
4.44378
0.0318172
0.0248811
0.0294149
0.072956
0.021034
0.0316439
0.148778
0.191711
2.68293
0.0226498
0.0204034
3.53569
0.0210681
0.123603
0.0226222
0.038822
0.0218208
0.0211219
0.159652
0.0252746
0.0225792
0.0214913
2.38216
0.239317
3.27632
0.021807
0.0215325
0.981777
0.0209761
0.0208514
0.10522
0.446142
0.0257553
0.030933
0.022064
2.66071
0.0212443
0.02402
0.0219492
0.0203869
0.188741
0.0212397
0.0208787
0.535188
0.0512834
2.17101
0.187664
0.0211849
0.0283292
0.0209783
0.0211268
0.0233182
0.0225292
0.0215918
0.162693
0.0215679
0.0631991
0.0268476
0.0253906
0.0215913
0.0218868
0.0212218
3.35986
0.0202809
0.612461
0.0604532
0.0228468
0.0460682
0.0308875
0.0285882
0.0214998
0.0264799
0.0209497
0.0208111
0.27471
0.0342415
0.0277513
0.021462
0.0213676
0.0210818
0.0672831
0.0211659
2.86858
0.0408933
0.0212734
0.0213121
0.0206619
0.0406702
0.0208978
1.77455
0.0316
0.226853
0.025409
0.0834743
0.0234997
2.83089
0.0205073
0.0202387
0.0242296
0.238927
0.0206904
2.94033
0.0215717
0.0215868
0.107566
0.167769
8.25846
0.145457
0.0248211
0.130564
0.0275423
0.0207964
2.84477
0.0214013
0.0211034
2.15533
0.0205861
2.96436
0.0231286
0.0210779
0.0214234
0.0208338
3.66096
0.021315
0.0204184
0.0651506
0.0211903
0.0209491
0.0214943
0.0208119
0.040252
0.0216721
0.0239612
0.0207148
1.32124
0.0525417
0.0207337
0.0207417
0.0221602
0.0212968
0.0234215
0.0218698
0.0214025
0.0216966
0.0214632
0.0223305
0.0214801
0.0585153
0.0206577
0.0689859
0.0216359
0.044334
0.020874
0.0215733
0.0211595
0.0203285
0.0333862
0.025586
0.0244031
2.23943
0.0273558
3.4355
2.77968
0.0688876
3.51211
0.0215882
0.02146
0.589238
2.76143
0.0211644
3.32198
0.0207523
0.102002
0.724384
0.0233096
0.0708146
1.58369
1.93726
0.0214504
0.0417722
0.0209834
0.104286
0.023703
3.15941
5.44908
0.0216662
0.0473346
0.295759
0.0219978
2.28865
0.255016
0.0228703
0.0209568
0.228686
3.31963
0.0207928
0.0297304
0.0218492
0.154489
0.114261
0.0215311
0.0209049
1.33603
0.0210858
0.0214476
0.0220115
0.020756
1.66129
0.0277974
0.027008
3.18232
0.0213358
0.0521853
0.021687
0.223512
0.0490166
0.12351
0.020844
0.0263266
0.0207671
0.0218465
0.0233766
0.0214736
2.47744
0.0224464
0.0207985
0.0211547
0.272167
0.0209395
0.533065
2.55287
0.731393
0.0215461
0.0209673
0.0212449
0.826419
0.0217456
3.05307
0.0215334
0.507409
0.0227685
0.0228425
0.166575
0.0215848
0.0218615
3.37
0.0937219
2.91779
0.0220082
3.44784
1.74558
0.0215359
3.11562
0.0216636
0.0249062
3.42367
0.0232261
0.0381845
3.67755
0.0283893
0.0589188
0.0215804
2.1986
0.0214258
0.533969
0.0212483
4.22483
0.0214464
0.0215728
0.0233105
0.472137
0.0209999
0.0265129
0.056924
1.44134
0.0212582
0.0276902
3.46318
0.20331
1.90445
0.0670189
0.0208724
0.0946144
0.327601
0.023617
1.09064
0.0201941
0.121884
6.2057
0.0210492
6.51819
0.0213142
3.37918
1.07939
0.0233518
0.0236243
0.536712
0.681962
0.0214718
0.0225564
0.0207725
0.0215528
3.11309
0.0565857
0.174514
0.0216919
0.0261699
3.007
0.0292387
0.769514
1.52915
0.021148
0.0213847
0.157725
2.61129
2.22582
0.688434
0.165932
0.0351903
0.0489793
3.41541
2.62676
0.466686
0.0209569
0.0690931
0.0399999
0.0620586
0.0214336
0.0251483
0.0525584
0.114568
0.726441
0.0222025
1.54343
3.16322
0.039329
0.0214274
0.0214311
0.106012
0.0210103
3.56199
0.0266813
0.021976
0.147849
0.0312648
0.0207203
0.0327936
0.0279229
0.0214571
3.6913
0.0253582
3.73166
0.0210745
3.00124
0.223994
0.16318
0.0203275
0.0254144
0.0287968
0.124848
0.0977932
0.0591635
3.12118
0.118817
0.0196216
0.0248432
0.0224304
0.10579
6.301
0.0206456
0.0206966
0.0224805
1.04076
0.130313
0.0211291
0.0446476
0.145107
0.0209299
0.0304418
0.023502
3.71361
0.0263789
0.127969
3.15288
0.0268588
0.0239722
0.985982
0.0211445
0.042109
2.78946
0.0246211
0.0742524
0.0293909
0.0509244
2.55968
3.39882
0.0215597
1.0904
0.121044
0.0205932
0.110234
0.0582622
0.0947531
2.33746
0.353616
0.719693
0.0923974
2.64856
0.025758
0.0575972
0.0204019
0.0217151
0.0215033
0.0209339
0.171806
0.115103
0.0202871
0.042177
0.144061
0.0211316
0.413654
3.08088
0.0200397
0.0217089
0.0205142
0.0223954
0.0397838
0.0214223
4.01258
0.0277915
0.0612453
0.0251316
0.0604079
0.0474306
0.0310041
1.55228
0.0214561
0.0224832
0.0202428
0.0210054
3.48896
0.0812838
0.0273326
3.84914
0.0217476
0.0219994
0.0300007
0.0207834
0.0212057
0.0649103
0.0245271
3.16502
2.13441
3.32702
0.0216123
2.96083
0.0212609
0.238699
0.0206998
0.118308
2.47907
0.0215524
0.718135
3.43681
0.0302915
0.0224928
0.0208963
0.0264536
2.68234
0.0207312
0.0217506
0.0227283
0.0242474
0.159009
0.0228369
0.0247604
0.021117
0.022734
1.07097
0.0313529
0.0236188
0.105959
0.0888671
3.23409
0.973302
0.0233329
0.0223532
2.85902
0.0214493
0.057523
0.0216348
3.16309
0.0221795
0.021933
0.0310867
2.82138
0.0213888
0.0208421
0.0204889
0.1214
9.99509
0.101272
0.0214788
0.0235
0.0209331
3.24556
0.0209617
1.82875
0.0501323
0.0217498
0.14546
0.0315741
0.220871
0.0219898
0.0208421
0.0283006
0.0379066
0.105588
0.021696
0.0218879
0.0220716
2.84327
0.0216902
0.0223945
3.358
0.0227805
0.0255801
0.0239379
0.0211444
0.0213706
0.60147
0.0230601
1.57621
0.269811
0.0200126
1.16683
0.0218182
0.0905076
0.0434174
0.022642
0.0203732
0.019984
0.0214104
1.14351
0.0422114
3.41188
2.6473
0.0209676
0.0259054
0.0352231
0.901584
0.0214073
0.0434124
3.41638
3.03104
0.0213611
0.0226811
0.0219262
0.685135
3.46156
0.0218152
0.0215476
0.0285107
4.20863
0.0216472
0.0227461
0.0227713
0.0995826
0.448158
0.0205262
2.74305
0.0278038
0.0214164
2.64003
0.0498712
1.31235
0.985461
0.0299258
0.0251212
0.0224465
0.0256825
0.0220272
0.0627053
0.0425577
0.021411
0.0237979
0.197172
2.25072
0.0207146
0.0939017
2.97502
1.35352
0.0215628
0.0215342
0.282232
2.54968
0.0729089
0.021176
2.58421
0.0578114
0.0200763
4.43981
0.0260772
0.0216933
0.155111
0.021443
0.032801
0.0209364
0.0198845
0.0215891
0.0204838
3.06573
0.0202824
0.0211805
0.0672506
0.0242921
0.023951
0.113936
0.0215043
0.0214801
0.0226424
0.0222611
0.234299
0.226856
0.314937
1.08561
0.0321733
0.50755
0.043357
2.85195
2.58712
3.0026
0.0209215
0.0283887
0.0214268
0.021535
0.021075
0.0224443
0.158947
0.0519938
0.0350793
0.021109
0.0213911
0.0490477
0.0217322
0.021847
0.0215116
3.26108
0.028985
7.62138
0.0216017
0.272972
0.0219328
0.0218705
0.0221092
0.0382844
0.0210705
0.0740657
2.89589
0.0374092
3.59661
0.588175
0.0234697
0.0261639
0.35105
0.0974231
0.0204357
0.021026
0.0200041
2.67438
0.0198625
0.068556
0.0410535
0.0674831
1.61295
1.55013
0.0568903
3.7318
0.02081
0.0204788
0.121404
2.78857
0.0214148
0.0215849
0.575935
0.0209705
0.162716
0.0228926
0.0208586
0.024597
0.0215092
0.0624091
2.81413
3.07584
0.0240513
0.0216652
0.0681598
0.0223765
0.0678131
0.0209189
0.116061
0.0779943
0.0218451
0.0216503
0.020063
0.106474
0.0451838
0.162613
1.7547
0.0278986
2.87135
0.0642257
0.0943362
3.27504
0.0212781
2.65489
0.0221995
3.2909
0.15603
2.63234
3.14056
0.0221362
0.0478435
0.128032
0.0214788
3.79102
0.0214766
0.0214939
0.0250005
0.0219981
0.0286662
0.207609
1.07682
3.53089
0.0248793
0.0365137
0.022381
0.0218933
0.0216544
0.112245
0.0748716
2.88287
0.0400609
0.0203365
0.020781
0.0220344
0.19869
0.0236435
0.0223655
0.0242862
0.0760408
0.0293167
0.0385923
0.0347142
2.71957
0.0276032
0.0302578
0.0214138
0.0250607
0.705198
0.156128
0.042134
0.0207799
2.65687
0.0302637
0.0211502
0.0431546
2.89528
0.112258
0.0308073
0.0209842
2.64006
0.0218899
0.0209376
0.0203833
2.15241
1.2626
0.0234545
2.41129
2.90795
0.024709
0.0347435
0.0528607
3.69792
0.0286315
3.4264
0.0219312
0.0261028
0.0249437
3.5818
0.0307264
0.0209195
3.04194
0.0216903
0.0222031
1.78752
2.96204
0.0612437
1.09328
0.0238231
0.0224485
2.20027
0.0211524
0.0211885
0.0215694
0.0403647
0.0213934
0.0293922
0.0246921
0.0288261
1.41591
0.0220696
3.77146
0.0245211
2.97876
3.45758
0.0215444
0.0216996
0.0246291
0.123142
0.158748
0.0585151
2.89242
2.66751
0.122604
0.0227536
2.57933
3.04445
0.0429964
0.844751
0.0215839
0.0213667
0.0215866
0.0223427
0.0213046
0.0305672
3.12896
0.0293772
0.275559
3.31631
2.3801
3.2127
3.28137
0.0273484
3.574
0.093021
0.0647889
0.0206794
0.0215202
0.0596343
4.03043
0.0225224
2.79898
3.14195
0.0209652
0.0215826
0.0218486
0.0761307
0.0219791
0.0636794
2.67561
0.0206896
0.0214085
0.02094
0.0221237
0.0849779
2.93001
0.0333805
2.91838
0.09572
0.0211651
0.262251
0.108912
0.0216998
0.325947
1.07199
2.74632
2.05249
3.43339
0.0214036
2.3152
2.97576
0.138276
2.92249
0.0210487
0.0229158
0.023373
0.0230145
3.20171
0.0579998
0.021675
0.0259564
0.297982
3.0627
0.0226463
0.0220442
3.50523
3.25827
0.0216936
0.0265408
0.0918337
0.0213244
0.0214146
2.33894
0.0211216
0.219791
0.265466
3.30078
0.0210539
0.0639922
0.123784
0.0211221
0.0201226
2.36623
2.29527
0.0219629
0.0311242
0.14481
0.182108
3.48172
2.2567
0.0247721
0.256234
0.342526
0.0317803
0.0211161
0.0756515
0.0204375
0.0202372
3.22482
0.0345417
0.08188
0.0237824
0.0253653
0.0210125
0.0205085
0.0220311
0.0222032
2.60217
0.0235872
1.60602
6.10629
0.0394148
0.062524
2.66693
3.49609
2.61669
0.0208935
0.0241101
0.0322254
0.024587
0.160203
0.334886
0.0220112
1.15923
3.25249
0.0254551
0.079389
0.0658838
0.0865273
0.0943831
0.0225034
0.104867
0.114823
0.126268
0.139534
0.0974369
0.0720766
0.0260539
0.0210984
0.0303277
0.0787712
0.0210866
0.298837
3.63601
0.150575
2.98751
0.0200965
0.0207732
0.0304365
2.80427
0.022137
0.0234045
0.0561124
3.36046
0.766853
0.0214735
0.0290883
0.0243865
4.96486
0.289922
0.0236047
0.275411
3.03086
0.087887
3.34424
0.0828269
0.0436532
3.57707
0.0195726
3.66545
3.12984
0.0223239
0.061267
0.0852914
0.0248928
0.020936
0.1221
1.05258
0.0209789
0.0210276
2.57572
0.464023
0.0689051
0.021691
0.195961
0.112252
3.11237
3.72256
0.0215631
0.0213769
0.0220948
0.0230973
3.36619
0.688438
2.98496
0.0734807
0.155044
0.45492
0.0231178
0.0210624
3.09563
0.0210031
3.50535
0.0208089
3.34521
0.0223357
0.0222581
0.7725
0.0216398
0.0968949
0.548142
0.0242846
0.0232184
0.0224413
0.15334
3.2612
0.135112
3.01933
0.0244118
0.0230256
0.0263672
0.066396
3.79085
3.74861
0.0841904
0.191725
0.107194
2.55234
0.0208223
0.0209771
0.0207066
0.0206806
0.152021
0.0637792
0.163165
0.037326
0.127384
0.021132
0.293786
0.241795
4.54974
0.0214678
0.0225686
0.0199007
2.97817
0.0231452
0.33079
0.151469
0.104587
0.165795
0.0200331
0.033809
0.131837
0.150929
0.389369
0.0216482
0.115032
0.0219496
0.021966
0.0872019
1.06249
1.81113
0.0217644
0.0747913
0.114865
3.23049
5.21106
3.36619
3.35424
0.0210696
0.0537563
0.0216357
0.119412
0.0212658
0.0962914
0.0229917
0.0438838
0.246614
0.550934
0.0240389
0.0861879
3.10517
0.100833
0.0232319
1.7953
0.0925172
0.022531
0.0222851
3.25064
0.0271445
0.110324
0.223762
0.0642882
4.01116
0.0235931
2.94361
2.87099
1.01228
0.127678
0.0292691
0.0940957
0.0851802
3.30779
0.0596182
0.0220338
0.901095
0.0429516
0.265748
0.0263032
3.05012
0.950936
1.53109
0.0251806
1.5117
0.0236058
3.04164
0.133444
1.69476
7.35143
0.0209454
0.0198807
3.07949
3.62366
0.0320374
0.0219606
0.0381988
0.0285894
2.94072
0.0706075
3.15437
0.0250108
3.21314
0.107107
1.17912
0.0219958
0.141988
3.37819
0.0242577
0.0739926
0.0200839
0.0237147
0.0216046
0.254924
0.0211921
0.0216071
3.54775
2.65613
0.020663
3.71077
0.0221687
0.0215162
0.0212999
0.0209792
0.0217199
0.390968
3.46424
0.0206846
0.451047
0.0600718
0.0430915
1.13207
0.0755771
0.0246402
0.0297913
0.021297
0.253633
0.0285753
3.75036
0.0248528
3.07808
0.639685
0.0624982
1.38525
3.28533
0.0207926
3.64742
0.0497816
0.0584721
0.0393525
0.021184
0.0392633
0.162531
0.0215668
0.195179
0.0214201
3.32782
0.124527
2.53595
0.150549
0.143975
3.51517
0.021548
0.0212647
0.0559502
0.0226408
0.0216999
0.0217252
0.0259773
0.0211059
0.0211999
0.0224251
0.0389933
0.0228698
0.0260578
0.0229327
0.0338661
0.0878365
0.0231364
3.43029
0.0229387
0.021254
0.0820956
0.0383042
0.0231909
0.0210976
0.303306
0.0230556
3.15878
0.0232086
0.0994343
0.0213032
0.0214351
0.0856842
3.62788
0.0628771
0.0324825
0.0201886
3.12763
0.0216255
0.0211639
0.0683894
0.0234641
0.124257
3.08384
0.0868408
0.12288
0.0379281
4.06225
0.0214773
0.0215958
0.0563878
0.257451
0.0534803
0.0882195
2.73793
0.0262604
0.0215495
0.0265426
0.195458
0.0512657
0.0215839
0.0894499
0.0849816
0.0576045
0.0217167
0.0216214
0.163812
0.0566232
1.55171
0.504045
0.0233555
0.0631399
0.0216929
0.0401605
2.37463
0.0216594
0.141454
0.0214536
0.0736784
1.12883
0.0215341
0.0213721
0.0212494
3.54112
0.185155
0.0230777
0.0855413
0.0976065
0.021671
0.0214222
0.100538
3.65257
0.165392
3.13348
0.13165
0.0287535
0.270192
0.106913
0.0285717
0.332982
0.0777346
0.325854
0.0215047
0.0854901
0.117708
0.0222082
0.454124
0.036087
0.0756871
0.025924
0.129587
0.0211113
3.99428
0.0239235
0.0208119
0.0210435
0.0207745
0.0224346
0.0222593
0.0209336
0.0236002
0.0215864
0.0221592
0.253675
0.0701121
0.0220699
0.0570912
0.0239719
0.0225724
0.020467
0.0420895
0.026195
2.14192
0.0215503
0.0215749
0.0612835
0.166264
0.0215725
0.021527
0.0995341
0.023143
0.0821519
0.054268
0.0215843
8.81761
0.0233222
0.0221614
0.066785
3.76776
0.0225892
0.0522242
0.0209765
0.024903
0.0214314
0.0260042
0.021188
0.0215883
0.0438424
0.0546738
8.94077
0.0460887
0.0214857
0.0270993
3.26117
0.0459856
0.15518
0.0888053
0.0216181
0.0487321
0.870208
0.161349
1.41165
0.0249758
3.3596
0.343236
0.0279886
0.0216716
0.0671051
0.0221187
0.0507705
3.09503
0.0215418
0.0603782
0.021743
2.84612
0.0439445
0.0222226
0.0553387
2.9594
0.138985
0.0233779
0.0654318
0.028691
0.0206474
2.21796
0.0205404
0.031716
0.0210989
0.0243892
2.64714
0.0646533
0.0205573
0.0275926
0.154114
0.0215257
0.0218365
0.0269574
0.0246391
0.0214418
0.0233025
0.023934
0.0219419
0.0211019
0.0555151
0.0917206
0.15349
0.0210317
0.0524075
2.98341
4.34375
0.0208811
0.0215709
0.0243882
0.080452
0.0220651
0.0210857
0.0212202
0.0209596
0.0251635
0.0263233
0.024812
0.0586967
0.0229577
0.020482
0.022966
0.0573871
0.0429619
0.0948482
0.0220524
0.0272053
3.20106
0.0279808
0.0240378
4.14032
3.19388
0.0874546
0.0608887
0.141232
0.0213889
0.30453
0.0260266
4.29134
0.021411
0.0212297
1.23692
0.0208213
0.264076
3.12965
0.0219072
13.9867
0.0289837
0.03007
0.0258088
0.0657388
0.0275507
0.0252985
1.60831
0.0208948
0.0236958
3.5144
0.0228235
0.0214591
0.0286383
3.16362
0.0220808
0.0220829
3.2152
0.0239743
0.0257653
0.0524992
0.0203723
6.19152
0.0235723
0.0222108
0.092531
0.0515986
2.97365
0.0230759
1.9651
0.0313973
0.080169
2.82982
0.0215316
0.0305573
0.0805787
0.022057
2.09814
0.022111
0.0229043
2.90239
0.0222389
0.0379237
0.0791706
0.773033
0.0285017
0.0255303
0.0221853
0.0234039
0.079688
0.0238804
0.0290491
0.0758439
0.0486394
0.02169
3.39884
0.0352821
0.0204925
0.0226005
0.0212387
0.0208591
0.0203785
0.0215525
0.0215001
0.0283294
0.0233913
0.037707
0.0202441
0.0204644
0.0226254
0.0704436
0.020751
0.0290563
0.05912
0.0274183
0.0283878
0.0214227
0.0229139
0.0236959
0.0353868
0.0271858
0.023864
2.70822
0.0216928
2.26552
0.0241716
0.0788227
0.0772995
0.0215204
0.0530734
0.0295116
3.12855
3.02513
0.0246306
0.0216921
0.0231402
0.0282089
0.0438723
0.0214302
0.0902708
0.0484056
0.0226716
0.0537794
0.0436596
0.0595343
0.0271467
0.168363
0.0902561
0.0260584
0.126572
0.0235173
0.113449
0.0222923
0.0212667
0.0731859
0.0755703
0.0213967
0.0457501
0.021442
0.0216247
0.0214463
0.0219398
0.0214725
0.0214083
0.0213902
0.0221191
0.142143
0.0226504
0.0213515
0.0223781
0.022363
0.1666
2.94448
0.0552854
0.0236175
3.31341
0.0214244
0.0213642
0.0754886
0.0301923
0.0222639
0.022145
0.0216282
0.147458
0.0217347
0.024772
0.0221971
0.0318185
3.76319
0.0214531
0.0541289
0.0590841
0.0244275
0.0398479
0.0207952
0.021652
0.0543101
1.355
0.022924
0.0336967
2.13639
0.0822655
0.0209245
2.84282
0.0224729
0.0196218
0.0517503
3.49638
0.0214734
0.0207459
0.0228444
0.029673
0.0316685
0.0214214
0.022255
0.0366063
0.0216482
0.0274246
0.0249347
1.14253
0.0204581
2.73445
0.276079
0.0374872
0.0213383
0.0818696
0.0211281
0.023056
0.021559
0.0504617
0.0202188
0.0201969
0.0374181
0.0557639
0.613394
0.0218418
0.0201026
0.0229432
0.0209015
2.86891
0.0231228
0.022554
0.0220126
0.0556298
0.0436385
0.0231306
0.0228568
0.0411097
0.0216398
0.0217735
0.0230507
0.0220226
0.119652
0.0211726
0.029035
0.0219106
0.0215016
0.044985
0.0809784
2.74652
0.0214472
0.0521621
0.136517
2.95428
3.31582
0.0303591
0.0215047
0.0239352
0.0283534
2.56416
0.0218071
0.0244192
0.0259679
0.0291471
0.020272
0.0494988
0.0426635
1.04225
0.0219878
0.0216477
0.0809459
1.09804
0.0201412
0.0239581
0.0312993
0.0199853
0.0223126
0.0418473
0.0209211
0.0214461
0.0216741
0.023873
0.0732777
0.0335658
0.0223203
0.0207464
0.0220907
0.130319
0.0199287
0.020917
0.0250574
0.079658
0.0247817
3.55592
0.0238839
0.0214462
0.0215131
0.0227762
0.0212081
0.030951
0.11936
0.020995
0.0210109
0.0219259
0.0213006
0.0220338
0.0420976
2.66144
0.023099
0.0896054
0.023807
0.0213127
0.196944
0.0231249
3.53898
0.0217497
0.021724
0.0207535
0.0214674
0.0223669
0.0289077
0.041183
0.123826
0.0267845
0.0488091
0.021734
0.0313859
0.0214359
0.0230361
0.031253
2.64345
3.04206
0.0218091
3.25204
0.141951
0.0388763
0.311343
0.0198156
0.0214083
0.0216502
0.0226608
2.76873
0.0208583
0.0639674
0.211953
0.0222857
0.0745784
0.0199753
0.0296065
0.347326
1.08988
0.0217708
0.26873
0.102859
0.2466
0.0253245
3.33788
0.0223931
0.122175
0.0923305
0.0205334
0.0366615
0.0298475
0.023243
0.125047
0.0290035
0.0210451
0.0219425
0.175018
0.0216993
0.0491818
0.0215557
0.0198999
0.0231204
0.0306345
0.0215229
0.073353
0.0257867
0.0235791
0.0198681
0.021488
0.328374
0.0721707
0.128997
0.0315047
0.0243354
0.0268474
0.0248997
0.0214206
0.0224907
0.0317625
0.0228557
0.0236662
0.0204163
0.0250745
2.82963
0.0219126
1.76101
0.122512
0.0216721
0.0216286
0.0202926
0.0274065
0.0345774
0.0201134
0.0247588
0.022743
0.0219176
0.021147
0.0219807
0.0213439
0.0215883
0.249271
0.0219618
0.0258263
0.0214551
0.146844
0.070865
0.0214455
0.276707
0.0216038
0.0234886
0.0296668
0.266295
0.027648
0.021009
0.0213654
0.0314219
0.0390569
0.132175
0.0226092
0.0457212
0.104341
0.0218731
0.0214761
0.108796
0.0480575
0.0294
0.0216486
0.0220433
0.022495
0.0230503
0.0209753
2.16609
0.023712