/*--------------------------------*- C++ -*----------------------------------*\
| =========                 |                                                 |
| \\      /  F ield         | OpenFOAM: The Open Source CFD Toolbox           |
|  \\    /   O peration     | Version:  v2012                                 |
|   \\  /    A nd           | Website:  www.openfoam.com                      |
|    \\/     M anipulation  |                                                 |
\*---------------------------------------------------------------------------*/
FoamFile
{
    version     2.0;
    format      ascii;
    class       volScalarField::Internal;
    location    "650";
    object      V0;
}
// * * * * * * * * * * * * * * * * * * * * * * * * * * * * * * * * * * * * * //

dimensions      [0 3 0 0 0 0 0];


value           nonuniform List<scalar> 
13851
(
0.0937783
0.0503815
0.0154334
0.0942116
0.0128104
0.0874159
0.0779092
0.0208167
0.167383
0.0233531
0.173398
0.018095
0.00510014
0.00648617
0.170696
0.0350998
0.0444815
0.0595098
0.00823087
0.167533
0.107164
0.0170142
0.16538
0.187755
0.157955
0.0239786
0.0317389
0.00097282
0.0916274
0.0641637
0.0858707
0.0422504
0.0190029
0.105197
0.20641
0.00540472
0.00431033
0.0113377
0.0196202
0.13457
0.102174
0.17105
0.00132157
0.162864
0.159447
0.00300583
0.155608
0.111565
0.0302437
0.145882
0.0112221
0.00683631
0.00137874
0.151501
0.173895
0.169821
0.169801
0.00212378
0.0746286
0.076599
0.0127293
0.00548716
0.0664594
0.00933492
0.0427554
0.0825922
0.00343638
0.165862
0.0214345
0.0624583
0.00128377
0.00338082
0.0478629
0.172433
0.172498
0.119736
0.0113641
0.00167513
0.0164123
0.00137907
0.0738522
0.166359
0.122779
0.00271531
0.0624902
0.0166864
0.0889688
0.0272144
0.0389747
0.183456
0.00526313
0.109455
0.128869
0.024903
0.0414698
0.155943
0.012157
0.00301036
0.125737
0.184916
0.00375366
0.0147574
0.0800218
0.0292621
0.163066
0.094356
0.0132268
0.183575
0.00289516
0.0844917
0.157987
0.185829
0.107294
0.195022
0.163125
0.0680337
0.00390229
0.135136
0.172564
0.154396
0.00135827
0.036395
0.00515683
0.107882
0.103315
0.175937
0.106919
0.0130759
0.0901912
0.00799613
0.114689
0.162331
0.00133762
0.128236
0.0698637
0.166744
0.166222
0.00332991
0.00675851
0.0101737
0.00335798
0.188873
0.137452
0.162575
0.0536765
0.157103
0.186955
0.01069
0.0921217
0.16026
0.00841398
0.167436
0.005183
0.150042
0.0388567
0.0604108
0.123661
0.0597798
0.0068642
0.0118961
0.173089
0.0198593
0.00166179
0.146365
0.0640146
0.169929
0.197702
0.0203809
0.0915147
0.00301016
0.00136885
0.144849
0.120297
0.00907824
0.15098
0.105127
0.0169832
0.106501
0.00785485
0.180903
0.0353804
0.00312209
0.114452
0.011982
0.170545
0.165462
0.0794299
0.155729
0.0118985
0.0288939
0.149801
0.00151958
0.153685
0.0187745
0.00685829
0.0486709
0.136268
0.132526
0.127144
0.119806
0.175192
0.00387217
0.169293
0.114351
0.0239617
0.116448
0.00927212
0.0408316
0.00193312
0.17869
0.00249074
0.0932969
0.139065
0.192658
0.178711
0.164883
0.0673416
0.00284124
0.128421
0.00192771
0.0328646
0.0654821
0.00250982
0.00752216
0.00220601
0.178469
0.0269154
0.163561
0.00138184
0.178416
0.0248889
0.0449376
0.142663
0.151676
0.0107318
0.0486969
0.00851153
0.035133
0.177349
0.10189
0.0877886
0.135078
0.194629
0.0214894
0.162275
0.00163735
0.0139
0.127108
0.056651
0.0453042
0.121072
0.126862
0.0567007
0.052887
0.0134528
0.0655799
0.0336953
0.00309477
0.00123982
0.123503
0.166857
0.0735157
0.0782007
0.175516
0.00669197
0.0421619
0.0561051
0.0247644
0.00259644
0.142092
0.120028
0.0440388
0.088601
0.0166332
0.0378896
0.150778
0.171691
0.154861
0.002243
0.14829
0.146692
0.191163
0.162539
0.0133903
0.0903462
0.0975168
0.154059
0.128198
0.0897595
0.187513
0.00851229
0.0568319
0.0648008
0.0198418
0.142719
0.00696024
0.0369847
0.0178385
0.141902
0.0017644
0.0190645
0.0400542
0.00228536
0.0795696
0.0938389
0.00246759
0.152473
0.0144562
0.0299317
0.0616512
0.00772754
0.0294668
0.0571397
0.00289829
0.165413
0.0389589
0.176076
0.00263958
0.00614492
0.124847
0.0130592
0.132993
0.00179463
0.120639
0.172734
0.110307
0.00695793
0.0268454
0.037911
0.12966
0.0837287
0.0665156
0.195963
0.00413006
0.00390528
0.0659626
0.00266191
0.0067226
0.150389
0.018155
0.00843544
0.0894838
0.0406719
0.00646702
0.00741241
0.109502
0.0734413
0.0020423
0.163563
0.150908
0.151077
0.0120812
0.037482
0.0398217
0.00140401
0.1193
0.0784
0.110689
0.142086
0.169239
0.169278
0.134188
0.00212683
0.177802
0.0873428
0.0173555
0.16823
0.0162242
0.0362118
0.0926221
0.00361927
0.0850391
0.0395857
0.028543
0.107829
0.121651
0.133661
0.0993216
0.00296931
0.185438
0.00837156
0.100789
0.00583696
0.00320477
0.155815
0.159579
0.0968495
0.14007
0.147582
0.0676627
0.0104654
0.00587596
0.0206852
0.00252792
0.00227279
0.126303
0.0984155
0.00371275
0.00135463
0.0423524
0.00364577
0.105071
0.026483
0.167792
0.00752201
0.133731
0.0268219
0.104132
0.0840091
0.167641
0.141946
0.12646
0.00834191
0.0459945
0.0016192
0.0687077
0.0117939
0.0842622
0.118036
0.04426
0.0139221
0.0406472
0.161604
0.174986
0.148033
0.163821
0.0104853
0.128576
0.0090595
0.0793141
0.00155337
0.101692
0.0903795
0.176068
0.00836015
0.121042
0.122764
0.180367
0.0161116
0.141684
0.0182766
0.00154724
0.127606
0.161919
0.159987
0.00368487
0.185459
0.0250092
0.0144868
0.131703
0.140496
0.0651822
0.00865071
0.0069348
0.0632991
0.0172016
0.187844
0.10872
0.00169148
0.0559583
0.181181
0.0238271
0.133971
0.0800188
0.144542
0.0460117
0.0603379
0.167745
0.127726
0.00366516
0.105906
0.0181236
0.160604
0.0767658
0.167254
0.168594
0.108336
0.179739
0.17266
0.100668
0.0645475
0.092898
0.113664
0.17637
0.0040716
0.00137278
0.101451
0.0871137
0.0418458
0.128513
0.00279579
0.0916977
0.159634
0.116387
0.0116245
0.0752765
0.0017005
0.174423
0.0012122
0.0296639
0.163591
0.0876795
0.00301772
0.0208715
0.138035
0.165282
0.1112
0.179799
0.145563
0.151787
0.0848883
0.0013803
0.0115063
0.0064965
0.00406097
0.0626421
0.183256
0.00621381
0.132102
0.0322321
0.0235086
0.110742
0.110968
0.00283058
0.149133
0.00212732
0.00285204
0.00333163
0.040293
0.06719
0.114955
0.164029
0.0750571
0.129
0.0150499
0.0585492
0.0149659
0.00345838
0.172079
0.15942
0.0114396
0.00129592
0.0524697
0.125488
0.129725
0.0925398
0.0115451
0.0473948
0.0310744
0.0170423
0.155515
0.00183198
0.0016653
0.0944664
0.14104
0.0194005
0.128293
0.145586
0.153559
0.00578475
0.0292514
0.00715585
0.00428748
0.165666
0.0829388
0.105029
0.0144926
0.00901069
0.00132601
0.00302053
0.110112
0.0833139
0.0254678
0.00204037
0.00559031
0.0168646
0.0628411
0.167328
0.128979
0.014062
0.175701
0.053624
0.178383
0.149607
0.00273089
0.0104308
0.0853125
0.158586
0.0075859
0.128851
0.13949
0.143039
0.165826
0.154087
0.0028366
0.122736
0.130888
0.00367637
0.114114
0.019375
0.00123307
0.00146686
0.07739
0.0196762
0.127309
0.173706
0.0295456
0.00395505
0.0776269
0.00760318
0.0269719
0.146282
0.0388927
0.126195
0.131121
0.00954123
0.117517
0.0663962
0.138341
0.0231261
0.00734503
0.081058
0.111264
0.0325532
0.0627838
0.0112093
0.0108655
0.00617805
0.0387002
0.00526182
0.143851
0.0523517
0.102994
0.00293759
0.100354
0.17189
0.00281946
0.0661263
0.00196173
0.00188097
0.00265545
0.0262953
0.129105
0.00302681
0.12783
0.150707
0.165865
0.148978
0.14645
0.0691354
0.0500698
0.161902
0.00989673
0.0282932
0.00828518
0.12824
0.157806
0.138808
0.0101757
0.0064577
0.0106663
0.0232584
0.13053
0.142478
0.154482
0.0930912
0.00401187
0.0136632
0.0620219
0.171714
0.0818524
0.128592
0.0162306
0.00155089
0.035459
0.00407959
0.111199
0.116877
0.00737061
0.002996
0.0199265
0.0155693
0.0733798
0.062814
0.0116011
0.0688031
0.135785
0.109705
0.130665
0.184304
0.0158284
0.00165838
0.130563
0.0613969
0.0643077
0.143583
0.0375567
0.0871204
0.00686279
0.0099763
0.00708426
0.144387
0.169677
0.132258
0.0044404
0.00407441
0.0471341
0.00192468
0.156523
0.137192
0.170044
0.118456
0.00351458
0.0481678
0.0826867
0.156885
0.0396265
0.123057
0.00201299
0.0487308
0.00167673
0.156129
0.0667822
0.00126304
0.00122071
0.00494597
0.121864
0.00256447
0.126802
0.16287
0.0145705
0.0184999
0.0429319
0.0027471
0.0883326
0.127971
0.00435998
0.172214
0.174005
0.059702
0.131852
0.00202325
0.0241177
0.00915157
0.0730693
0.156049
0.143989
0.0841923
0.178794
0.110158
0.162111
0.111467
0.155403
0.00184726
0.130322
0.132592
0.0953187
0.0817547
0.00131075
0.153005
0.125227
0.00646573
0.0160309
0.134891
0.155261
0.0787106
0.00442601
0.057546
0.00281571
0.0175251
0.132794
0.104232
0.0011869
0.0938277
0.0431725
0.149635
0.166507
0.16215
0.0167037
0.0311301
0.0500731
0.103423
0.13538
0.123746
0.00667426
0.127429
0.0115758
0.0762634
0.0777844
0.0111876
0.0064601
0.00228227
0.0527521
0.00989151
0.0043743
0.0938027
0.00262438
0.0517325
0.00517502
0.00701739
0.00251349
0.129952
0.0281948
0.144276
0.0660701
0.0021693
0.00226134
0.119942
0.176271
0.0117696
0.154745
0.130832
0.00129919
0.152326
0.0968267
0.0017841
0.0014538
0.117163
0.118384
0.138265
0.00108529
0.00340159
0.00623753
0.106396
0.00386864
0.0122516
0.00662781
0.0134674
0.0157431
0.053921
0.076746
0.0400017
0.010496
0.000793301
0.0985959
0.022457
0.00205897
0.00480191
0.00142675
0.0886262
0.0193149
0.142009
0.0361644
0.0597151
0.0112136
0.194849
0.00171241
0.11844
0.00741469
0.106486
0.0142333
0.0160721
0.0203553
0.00301011
0.0140993
0.0429609
0.16618
0.00824207
0.0930221
0.0574679
0.0558441
0.00115512
0.169047
0.00719291
0.148411
0.0786537
0.00174815
0.00288223
0.00143211
0.138167
0.121659
0.113899
0.00167207
0.174398
0.0649489
0.00159121
0.133251
0.0399088
0.00967207
0.138029
0.0107511
0.0734616
0.128945
0.0289204
0.00183898
0.00864734
0.0420346
0.101395
0.151142
0.00202294
0.00718879
0.128167
0.0262334
0.145417
0.120004
0.157829
0.140689
0.0133684
0.126089
0.0912552
0.122359
0.106671
0.0598262
0.00129983
0.00296389
0.0279189
0.0078233
0.0996533
0.0252003
0.109304
0.146338
0.0887256
0.0958241
0.00128419
0.0907229
0.011515
0.087007
0.0452605
0.156787
0.00121679
0.128377
0.0248577
0.0268968
0.00416228
0.0215725
0.0215818
0.00122239
0.025299
0.0482174
0.0140686
0.0767079
0.00131203
0.0175083
0.178348
0.0860156
0.017467
0.0131144
0.00905089
0.14447
0.00955381
0.132488
0.127202
0.0056478
0.163627
0.00649892
0.0354109
0.141613
0.0714385
0.131771
0.126046
0.135977
0.0652774
0.00390834
0.129457
0.0037767
0.00188566
0.0285588
0.00669944
0.078687
0.178041
0.156875
0.0910626
0.128424
0.00841215
0.0488422
0.118068
0.0788538
0.175141
0.00148449
0.0132402
0.0594631
0.00330225
0.00420587
0.0904036
0.100616
0.0230859
0.12806
0.13916
0.0928141
0.101291
0.152585
0.157373
0.134932
0.00198949
0.140957
0.00472379
0.0314885
0.0378698
0.165846
0.148425
0.0130235
0.0509165
0.0927345
0.132737
0.10434
0.10049
0.0724349
0.0148679
0.147021
0.0397457
0.00554735
0.128033
0.161548
0.0957515
0.044243
0.0805505
0.0336355
0.0124816
0.0155634
0.0507358
0.103215
0.0152057
0.108784
0.00157173
0.0039859
0.0621606
0.00573738
0.128252
0.157964
0.096428
0.120168
0.141697
0.138393
0.148562
0.136948
0.00956775
0.135019
0.137462
0.0573347
0.0186601
0.00365662
0.0476769
0.0587846
0.162352
0.0101935
0.00677164
0.0496666
0.0018944
0.00959355
0.00717511
0.142085
0.00928037
0.0933242
0.137869
0.0992478
0.00132802
0.00727052
0.127145
0.0317361
0.153207
0.110706
0.147098
0.0870467
0.0964513
0.0685358
0.131559
0.0168828
0.0518139
0.00128804
0.187234
0.0324949
0.134429
0.00685777
0.0189415
0.00278642
0.0062479
0.00687116
0.010839
0.00160383
0.12333
0.00382563
0.147017
0.0206055
0.138512
0.0528321
0.0202761
0.0754108
0.00152494
0.0319317
0.0313683
0.147018
0.00585906
0.0990388
0.137232
0.0370506
0.0442883
0.167297
0.0673578
0.0285546
0.111461
0.0419509
0.11088
0.0246428
0.100078
0.109601
0.00389427
0.035883
0.151406
0.0575069
0.00243761
0.022354
0.0150005
0.0060255
0.112376
0.141352
0.00352292
0.0685082
0.0168514
0.0264197
0.00244712
0.112757
0.00785856
0.0457735
0.058136
0.0735795
0.0960433
0.00122952
0.0460743
0.00150924
0.160414
0.0226115
0.00505364
0.0401076
0.00252624
0.00358704
0.149711
0.0255796
0.0016551
0.0246359
0.0027888
0.130988
0.0929038
0.00111031
0.00694275
0.002082
0.147813
0.086089
0.0992031
0.00147511
0.0050723
0.0629169
0.0914945
0.0155574
0.0115203
0.00341296
0.0918298
0.117368
0.00263048
0.0322529
0.10706
0.0055277
0.00618797
0.0489562
0.136481
0.00101789
0.00262007
0.151901
0.13625
0.0109527
0.147911
0.164031
0.109784
0.102633
0.0921798
0.0106009
0.0400883
0.00369157
0.0534628
0.00125212
0.0989442
0.00990889
0.00532806
0.0076261
0.109393
0.114498
0.0103434
0.128178
0.11404
0.155436
0.0878658
0.104462
0.00374726
0.134398
0.122047
0.00160744
0.0198359
0.0132001
0.0513964
0.134527
0.145544
0.0211169
0.00296415
0.00302266
0.123807
0.0111727
0.139829
0.0871731
0.145708
0.00168452
0.0186449
0.0335435
0.00667528
0.00895971
0.0664403
0.00319888
0.00279802
0.110629
0.141064
0.15563
0.0207994
0.0112552
0.154137
0.00560286
0.114612
0.162907
0.012248
0.00160369
0.0688635
0.00534128
0.0512757
0.00183288
0.0904914
0.079012
0.0898915
0.0506008
0.152293
0.133143
0.0503263
0.00228372
0.00214615
0.0345177
0.00268086
0.0434483
0.00185752
0.00226621
0.0208908
0.116071
0.112675
0.134534
0.114309
0.00393154
0.155676
0.040475
0.0637685
0.00631326
0.00241197
0.00311726
0.0892662
0.00323386
0.0530161
0.05078
0.121511
0.12757
0.00180563
0.0400119
0.00144487
0.0286128
0.0913898
0.006229
0.146531
0.0365543
0.0839067
0.00454501
0.101096
0.0454305
0.0889615
0.120915
0.00438516
0.0474319
0.0246986
0.119078
0.0226856
0.0121046
0.00120383
0.114899
0.0116065
0.115644
0.0614429
0.150167
0.00636872
0.021697
0.0176502
0.0357924
0.13733
0.110191
0.110258
0.161275
0.136235
0.125622
0.128323
0.00207223
0.0355027
0.0767735
0.103646
0.160345
0.00898173
0.00332739
0.0068299
0.019193
0.0908501
0.135453
0.155778
0.120861
0.00560152
0.00165616
0.164682
0.0464842
0.0315697
0.00318724
0.0622903
0.0429748
0.00130948
0.0401221
0.142555
0.00326082
0.00231754
0.0898385
0.147093
0.0962913
0.00155733
0.005374
0.0245655
0.00616655
0.00350025
0.0409096
0.00232774
0.0144489
0.0935434
0.00661836
0.00714855
0.146363
0.00191475
0.0782804
0.113865
0.148422
0.00557883
0.112154
0.0048261
0.0548132
0.0463697
0.0170976
0.119768
0.00372667
0.00227694
0.145337
0.0521924
0.00490536
0.0125401
0.00152206
0.0203149
0.154539
0.112622
0.0965122
0.14383
0.0842171
0.0436823
0.0995253
0.0101949
0.0185345
0.0211573
0.120809
0.141988
0.132583
0.0261289
0.025538
0.0946624
0.0112944
0.0188661
0.0302108
0.012495
0.0144014
0.0622039
0.00232665
0.113467
0.129947
0.00455322
0.00337192
0.00103632
0.089531
0.165751
0.00152075
0.145616
0.126532
0.0256146
0.143829
0.0152366
0.0116109
0.148469
0.00135115
0.00371232
0.0510138
0.00714863
0.00123536
0.127924
0.0405437
0.00473874
0.00163555
0.0370288
0.00822882
0.140339
0.160038
0.14051
0.0445891
0.00220023
0.00365778
0.00152304
0.00341491
0.0378089
0.0379087
0.0293286
0.12844
0.154646
0.130477
0.00378558
0.121084
0.00294478
0.0390027
0.0620587
0.0107064
0.00382965
0.000807205
0.0029775
0.0153593
0.100461
0.12609
0.00311349
0.00350674
0.0341618
0.143009
0.151065
0.0170178
0.0336366
0.00541206
0.01258
0.0401727
0.149992
0.00557935
0.134722
0.00123763
0.0543006
0.128689
0.00959036
0.0951397
0.00154287
0.159976
0.00175052
0.144838
0.0422282
0.0657096
0.140944
0.0632354
0.0173149
0.0148544
0.00193948
0.0023726
0.0314689
0.024805
0.0839862
0.00328594
0.00198747
0.128671
0.150051
0.140734
0.166211
0.00142319
0.178836
0.0535758
0.0195766
0.0468877
0.0496028
0.0728997
0.0786953
0.00875913
0.00216543
0.110357
0.0693038
0.00488783
0.0551001
0.0209614
0.0406625
0.00182782
0.0260359
0.0158821
0.114436
0.14868
0.146461
0.00198762
0.00216165
0.0129099
0.152779
0.110732
0.129457
0.000935949
0.142556
0.00234036
0.00212796
0.0413029
0.0142913
0.0789414
0.0395595
0.0709654
0.0772598
0.00130723
0.043964
0.00889565
0.156401
0.0849955
0.145647
0.0778796
0.00477787
0.0038446
0.0306013
0.00239075
0.00521033
0.164976
0.102161
0.143758
0.104481
0.00188346
0.00385627
0.0449416
0.144302
0.072399
0.0174902
0.017996
0.000958578
0.0333126
0.00220698
0.0149221
0.0623757
0.107671
0.147183
0.0102356
0.1246
0.142865
0.00153175
0.0197415
0.00556396
0.104259
0.0320394
0.134102
0.00155648
0.00357608
0.111808
0.0876752
0.0365179
0.0887712
0.131534
0.10969
0.135044
0.00109037
0.0314894
0.000983334
0.0373288
0.00618403
0.0166084
0.00166758
0.119395
0.0261739
0.0016186
0.0405991
0.0374282
0.00129472
0.140858
0.114222
0.0295138
0.00285922
0.00133618
0.0362717
0.0902313
0.122346
0.148412
0.0460186
0.195839
0.00326825
0.145132
0.0388816
0.0764043
0.142336
0.0198204
0.00807554
0.0863044
0.00614775
0.101086
0.152113
0.0200831
0.00155407
0.0216174
0.0210205
0.00440974
0.00591479
0.128768
0.0978939
0.0346358
0.00257932
0.00229986
0.110227
0.00122542
0.04894
0.111995
0.082659
0.00366123
0.0146749
0.116096
0.000756469
0.0689216
0.0476676
0.120486
0.00197453
0.119542
0.00521337
0.0676001
0.0369341
0.0566888
0.11436
0.00791769
0.000678265
0.139216
0.0311692
0.0108859
0.152693
0.0807942
0.0948952
0.0154945
0.0116478
0.0113352
0.0462429
0.00279546
0.0334501
0.0119308
0.042435
0.015605
0.111865
0.00136754
0.0015057
0.0263864
0.114472
0.00916428
0.00249573
0.0667761
0.0261093
0.128175
0.0350669
0.00115071
0.0378625
0.00213452
0.068679
0.0112902
0.0700094
0.00127104
0.141098
0.143838
0.105891
0.0242404
0.00332991
0.00364769
0.00874643
0.0306495
0.144377
0.0402234
0.0670383
0.126449
0.00520522
0.13519
0.0151538
0.09329
0.0437649
0.146774
0.150837
0.139826
0.0670653
0.0513103
0.0255616
0.00151143
0.099577
0.0426251
0.0243143
0.144531
0.0935388
0.0553703
0.0561627
0.0208155
0.133738
0.113624
0.00674323
0.162626
0.0609596
0.0931009
0.0591412
0.141913
0.0027062
0.0710504
0.117383
0.00509115
0.0314377
0.0377225
0.00239342
0.00743855
0.0797921
0.0291121
0.0533553
0.0521112
0.0763281
0.148438
0.0315254
0.00139291
0.00176193
0.00304044
0.0536418
0.00188361
0.0699817
0.0526424
0.156964
0.00288952
0.113985
0.0353882
0.124371
0.00267117
0.00283309
0.107456
0.162736
0.038854
0.113724
0.0933208
0.00690298
0.0898597
0.114147
0.0014021
0.00232778
0.141566
0.032989
0.0416709
0.00359287
0.150729
0.00256222
0.00172112
0.10961
0.0555326
0.00392022
0.0148501
0.0977754
0.104146
0.113585
0.0421987
0.145938
0.122839
0.00242843
0.0015237
0.00209464
0.137644
0.00269042
0.0767761
0.00693291
0.145932
0.0535848
0.0415001
0.140819
0.00329671
0.0440904
0.0112641
0.00566392
0.00245871
0.0221276
0.0111325
0.00266566
0.00249168
0.123941
0.000965044
0.138367
0.119524
0.107547
0.114925
0.13912
0.00192932
0.0677611
0.140078
0.0446465
0.00163742
0.00217644
0.0329755
0.148577
0.028792
0.021894
0.00305118
0.115957
0.12588
0.163412
0.0138634
0.0987192
0.140116
0.00158372
0.0159562
0.0176165
0.110331
0.128087
0.063403
0.00200118
0.132127
0.00157185
0.017141
0.0804179
0.00188132
0.00246295
0.151494
0.00875283
0.041385
0.00197567
0.13365
0.0434362
0.139515
0.0629954
0.0294041
0.00393277
0.150589
0.114158
0.112055
0.00727511
0.0203633
0.00183425
0.00176646
0.074188
0.00141179
0.0487376
0.0171639
0.00403373
0.00134547
0.044565
0.00161516
0.0146233
0.0733706
0.141486
0.0041875
0.0209091
0.042293
0.00603414
0.146973
0.00229605
0.137388
0.0146527
0.139196
0.0607955
0.00145749
0.0171863
0.00693986
0.0455498
0.0395875
0.0457772
0.00512587
0.0201284
0.00215477
0.0769839
0.00203771
0.0825643
0.00563807
0.00935654
0.00365156
0.111325
0.12621
0.098051
0.00229495
0.112639
0.131405
0.137275
0.060801
0.147188
0.114472
0.0034833
0.00318233
0.00232657
0.00233726
0.124693
0.00404873
0.00252043
0.0057188
0.00163763
0.00157488
0.0460995
0.00220454
0.036585
0.0219512
0.00263533
0.0060012
0.160117
0.00268769
0.0872709
0.086392
0.0129701
0.00170655
0.00238063
0.000959152
0.0395833
0.0614103
0.144172
0.00268164
0.00246142
0.116843
0.0118016
0.114735
0.0905504
0.0782294
0.00350577
0.0035295
0.0545116
0.107834
0.0449465
0.0672508
0.0981294
0.0569919
0.123801
0.0443881
0.0264567
0.00555361
0.0895219
0.0061406
0.0750224
0.0504585
0.00170515
0.00254693
0.0503368
0.0415347
0.127005
0.0196319
0.0668197
0.149264
0.0209492
0.122541
0.0798683
0.0418094
0.115278
0.0512079
0.00869638
0.0215068
0.00152871
0.0896272
0.180991
0.00254337
0.10659
0.0332735
0.115297
0.102574
0.15181
0.0772522
0.135185
0.0318834
0.0992789
0.00168998
0.0821808
0.061501
0.039312
0.148252
0.0869487
0.0299114
0.105387
0.0102531
0.00175232
0.0628797
0.054011
0.126234
0.081682
0.110057
0.0637142
0.124217
0.0340223
0.00403546
0.106538
0.0088391
0.00143868
0.136594
0.107301
0.138402
0.0340882
0.0102717
0.103405
0.0146102
0.00364821
0.0614781
0.133059
0.00123082
0.159487
0.113462
0.147008
0.176055
0.0963599
0.135206
0.0781962
0.00419719
0.0522811
0.022796
0.0191797
0.0672805
0.0666558
0.0207394
0.0015758
0.00177079
0.00858496
0.00980586
0.00335829
0.00641855
0.134729
0.0559424
0.142339
0.0201732
0.114809
0.0394929
0.0106707
0.132419
0.0195435
0.021789
0.130649
0.118561
0.0815696
0.115161
0.144638
0.139619
0.00458207
0.00414266
0.0603103
0.0823478
0.146989
0.0113243
0.00561037
0.00163268
0.0140986
0.00337989
0.120635
0.00243527
0.00132123
0.0761467
0.069822
0.0816564
0.136854
0.0659635
0.0947328
0.101205
0.0416743
0.00166457
0.0093301
0.00150897
0.116648
0.0107546
0.0041765
0.116541
0.12639
0.122671
0.148752
0.058095
0.104973
0.0104041
0.0833535
0.00253152
0.0335129
0.00243384
0.00840553
0.00223059
0.00109156
0.0872071
0.13211
0.128338
0.0795445
0.149539
0.114079
0.00166421
0.00319037
0.0877788
0.0738227
0.0874755
0.0219858
0.0106516
0.137709
0.0696298
0.00431878
0.126637
0.0973282
0.024132
0.0122333
0.0613576
0.00381146
0.00560254
0.0379493
0.00274588
0.00717167
0.00130125
0.149772
0.0451166
0.129766
0.0336283
0.00351157
0.132771
0.00143331
0.127074
0.173265
0.110111
0.0019318
0.0145819
0.00817022
0.105631
0.148684
0.0310381
0.00193662
0.0265512
0.120724
0.0967728
0.0847986
0.0475612
0.120028
0.125345
0.0019597
0.00239094
0.0019946
0.022351
0.00613561
0.00223752
0.008395
0.00216985
0.0117774
0.154813
0.134589
0.164721
0.0693164
0.00262724
0.00269496
0.143379
0.00150705
0.00177963
0.0216534
0.106892
0.133564
0.00661793
0.00387806
0.00163449
0.0249573
0.00162556
0.159316
0.00607013
0.00994155
0.139745
0.00247374
0.116935
0.00638563
0.00198306
0.0382452
0.00555575
0.0753463
0.137747
0.00209767
0.00160892
0.00779282
0.0278273
0.00126482
0.00525866
0.00169101
0.00186515
0.00171299
0.00661964
0.00661037
0.074692
0.0944133
0.0146451
0.00143244
0.138817
0.00133424
0.161342
0.0131902
0.0308827
0.131826
0.00304673
0.112215
0.00578421
0.00152513
0.115613
0.0120844
0.0097406
0.0017483
0.00659547
0.0105011
0.111862
0.0775497
0.00261047
0.128167
0.137013
0.0168937
0.0387712
0.00149604
0.034314
0.136492
0.039245
0.137432
0.0105998
0.0537396
0.0064647
0.142173
0.147438
0.00150566
0.00947772
0.110551
0.00190423
0.00439296
0.139579
0.0463431
0.0539446
0.00185617
0.116203
0.143756
0.00568157
0.0532984
0.00241543
0.00169743
0.0110126
0.0452244
0.0704418
0.0976087
0.0146346
0.0306438
0.0942463
0.00340928
0.0135474
0.127779
0.0876833
0.011142
0.055622
0.0014008
0.00504534
0.132695
0.00227517
0.00898043
0.0185462
0.117219
0.00238833
0.00110644
0.00382838
0.108481
0.15078
0.0120642
0.035608
0.130462
0.091071
0.115292
0.121276
0.0284093
0.126604
0.131511
0.0151535
0.00629745
0.00125107
0.0409607
0.00382621
0.00158452
0.106075
0.00356897
0.0034854
0.00136454
0.157572
0.0112606
0.00116836
0.00231655
0.00637255
0.00701398
0.0809577
0.00233558
0.0115627
0.00459058
0.144586
0.0163104
0.0128196
0.114879
0.0100203
0.00337044
0.114046
0.00239584
0.0032936
0.116296
0.130781
0.0809695
0.113957
0.0579893
0.14606
0.129953
0.0027747
0.00391393
0.0512679
0.00839908
0.200211
0.0204965
0.00138222
0.00151824
0.00146252
0.0271027
0.00165093
0.077722
0.137315
0.0336674
0.00155334
0.00357462
0.00659906
0.00390877
0.0463131
0.126901
0.115307
0.0546251
0.0348748
0.00267293
0.00318262
0.0307606
0.00273696
0.00136823
0.114716
0.00350183
0.0871362
0.022682
0.0640197
0.0974743
0.15076
0.0289565
0.0330003
0.00387159
0.00152777
0.140828
0.0139439
0.026951
0.0194592
0.00381877
0.0143347
0.00246211
0.101374
0.00766912
0.00208591
0.00693467
0.00579432
0.116784
0.00648019
0.00233385
0.00203803
0.14741
0.00651105
0.147263
0.0686874
0.0966643
0.0165973
0.00243202
0.00118566
0.115799
0.00235897
0.016907
0.151917
0.145647
0.075231
0.159449
0.0189531
0.00225415
0.00184009
0.0074855
0.0984138
0.0807242
0.0182569
0.144458
0.00168467
0.039038
0.101028
0.014455
0.00775212
0.0207118
0.00129561
0.0101444
0.00129087
0.0413979
0.00397567
0.00429302
0.00276428
0.141634
0.0796392
0.0193205
0.0790027
0.00398136
0.00120709
0.0177009
0.00767933
0.00492403
0.00652086
0.0183968
0.0218878
0.0484227
0.136167
0.00568826
0.0266057
0.0336273
0.0199267
0.0221572
0.0293981
0.00197335
0.0048563
0.0604818
0.0411396
0.0190384
0.0396194
0.108907
0.0140405
0.0114571
0.135211
0.00190541
0.0878382
0.00144731
0.106081
0.0680188
0.052467
0.00147015
0.0349085
0.00151474
0.00335794
0.0188169
0.062995
0.00611345
0.0152766
0.00576481
0.0478594
0.178771
0.0121834
0.13761
0.0014383
0.140156
0.142666
0.12469
0.0361986
0.0313408
0.0429105
0.0119708
0.0136655
0.0657033
0.0415003
0.00383931
0.00282724
0.0298468
0.0164434
0.137605
0.0110139
0.0202961
0.00908625
0.0732496
0.0121502
0.0217282
0.148501
0.149168
0.0741617
0.0427126
0.103637
0.00141401
0.142185
0.00805652
0.0411484
0.00270264
0.00387814
0.0287213
0.0136134
0.0100727
0.00399944
0.00215929
0.0476265
0.038233
0.0132382
0.0184538
0.0893374
0.00434638
0.00122751
0.140414
0.135103
0.00381892
0.0164109
0.0205822
0.108039
0.0186253
0.116299
0.0365622
0.010594
0.0325967
0.0292714
0.128122
0.144844
0.0201027
0.00152809
0.0920862
0.0204157
0.00446388
0.151544
0.130708
0.00144788
0.0107416
0.0077563
0.111132
0.0356028
0.0219957
0.168318
0.114535
0.00825896
0.022036
0.0014299
0.00637274
0.0263363
0.00239765
0.0144786
0.00781513
0.128183
0.126162
0.0191089
0.028913
0.0193815
0.0163845
0.0919388
0.0177398
0.0388532
0.094023
0.150662
0.0383228
0.0951374
0.0376849
0.00801652
0.0107869
0.135221
0.007747
0.0207406
0.00373923
0.0155029
0.00134249
0.013197
0.00155765
0.145616
0.00871023
0.026686
0.12345
0.130351
0.0162313
0.0254885
0.0715512
0.131183
0.00976713
0.00132976
0.032089
0.116042
0.0662399
0.00461442
0.0150122
0.0254321
0.147114
0.130098
0.037709
0.0399595
0.0842547
0.0214793
0.00168251
0.0142522
0.00174777
0.145901
0.0379093
0.1103
0.0398999
0.0806545
0.121423
0.0143863
0.0375766
0.11377
0.00187022
0.0324624
0.00135755
0.128292
0.0269304
0.0211006
0.00868558
0.0224167
0.00775154
0.0281645
0.0116146
0.0208362
0.126519
0.00271884
0.00380132
0.0638688
0.139334
0.0255629
0.11012
0.111326
0.00897781
0.138142
0.00181636
0.00478134
0.00528335
0.0718639
0.13923
0.0373305
0.00951889
0.0159643
0.0377899
0.0376039
0.127784
0.0393709
0.103835
0.064872
0.00141364
0.0631914
0.0803233
0.00408077
0.0211596
0.0403081
0.073895
0.0364908
0.139062
0.040252
0.00179562
0.132647
0.024947
0.00247637
0.00681682
0.0126369
0.0286452
0.0301995
0.00192284
0.00638313
0.0373561
0.0208211
0.0477433
0.0525828
0.0271119
0.0803013
0.12393
0.00198267
0.120874
0.0436464
0.133343
0.0683437
0.0237676
0.132998
0.141797
0.016641
0.104141
0.0513784
0.0186365
0.0265663
0.0142344
0.0320677
0.129229
0.0291262
0.0108099
0.0354123
0.0189607
0.0229386
0.0192001
0.027224
0.00170613
0.107293
0.00393864
0.0109428
0.00437769
0.021935
0.013783
0.00920471
0.0418909
0.0121281
0.0115116
0.0334824
0.0328756
0.110053
0.112327
0.154758
0.0439028
0.00137851
0.146712
0.00757149
0.0732518
0.0321263
0.0480208
0.00700666
0.0347648
0.0216485
0.0753388
0.0469757
0.0431788
0.136429
0.0394738
0.0355773
0.140055
0.0414033
0.0484829
0.129296
0.0207656
0.0315509
0.00326841
0.0433736
0.00421395
0.011792
0.0300696
0.106085
0.0176733
0.132526
0.0261042
0.0197776
0.00371811
0.0418483
0.0296041
0.0219878
0.138373
0.0159575
0.0407526
0.00281612
0.129471
0.0573831
0.00497436
0.0376534
0.0389267
0.149982
0.11588
0.146555
0.0204163
0.00345523
0.0332525
0.0570707
0.0432247
0.01944
0.117277
0.0550942
0.0445985
0.037608
0.0488371
0.16405
0.005219
0.142142
0.00280189
0.162149
0.00325018
0.139721
0.142761
0.00708668
0.0554037
0.0397763
0.0113678
0.0403824
0.0222125
0.129074
0.132789
0.0766794
0.0448156
0.00148831
0.116534
0.0369531
0.0524957
0.0499986
0.0761625
0.0589622
0.0100047
0.0212779
0.0427901
0.0313067
0.040005
0.154746
0.0626768
0.0144856
0.0818648
0.0641337
0.00747875
0.129233
0.0343903
0.0140216
0.0389798
0.00256994
0.150132
0.040457
0.170435
0.0209723
0.0230906
0.068416
0.00275644
0.145224
0.0689104
0.0393086
0.145152
0.00323188
0.152104
0.0821192
0.016971
0.0156696
0.0380527
0.148085
0.0286362
0.0215408
0.00161972
0.0734993
0.0296169
0.145495
0.13999
0.0399065
0.00786239
0.00247919
0.0761404
0.124728
0.132446
0.0830965
0.0367334
0.00367108
0.00268262
0.0822728
0.139488
0.122216
0.0379949
0.00474423
0.00273574
0.0573513
0.00660501
0.153988
0.097123
0.0160317
0.108645
0.0821907
0.0211075
0.00624467
0.00564571
0.0374626
0.0459016
0.0051784
0.0167961
0.0465519
0.0297075
0.00580405
0.0805575
0.066312
0.0349459
0.119527
0.0822121
0.133454
0.150813
0.0228268
0.0343703
0.0482677
0.0130716
0.0128846
0.0825094
0.0371381
0.15032
0.0967006
0.0454072
0.036586
0.0163104
0.0335339
0.00332141
0.0512777
0.0471221
0.0537631
0.00445851
0.00192542
0.0273971
0.152031
0.0104689
0.0408021
0.097727
0.106446
0.0421373
0.131978
0.129945
0.0565424
0.0530975
0.00659815
0.0531102
0.0946029
0.0453887
0.00265545
0.00144258
0.119662
0.061178
0.0385129
0.0372786
0.00336609
0.055165
0.00427374
0.0114432
0.101652
0.0533662
0.00132417
0.0766894
0.063376
0.0342901
0.0433247
0.0808634
0.0629147
0.0789569
0.00988679
0.121643
0.0206505
0.0474076
0.0393949
0.079071
0.10681
0.0979357
0.0589687
0.0638792
0.119038
0.151369
0.080208
0.0642808
0.0653945
0.0328383
0.0917993
0.0957505
0.082244
0.0645038
0.0296446
0.115068
0.137994
0.0016746
0.0450157
0.00259468
0.0141739
0.133105
0.0566737
0.0159517
0.15003
0.0964419
0.155751
0.0492549
0.0602998
0.0125306
0.0590636
0.111102
0.00649653
0.0036571
0.0175187
0.146927
0.00249694
0.0603467
0.131959
0.0153157
0.15104
0.0809582
0.00286566
0.130664
0.0109344
0.0881181
0.00684621
0.00652592
0.0365315
0.100829
0.129958
0.00874232
0.0515218
0.050137
0.0437103
0.00418569
0.120442
0.00754632
0.0627184
0.00125509
0.0829181
0.10855
0.113943
0.0605836
0.0523893
0.0509102
0.00410811
0.0755924
0.134878
0.0788481