/*--------------------------------*- C++ -*----------------------------------*\
| =========                 |                                                 |
| \\      /  F ield         | OpenFOAM: The Open Source CFD Toolbox           |
|  \\    /   O peration     | Version:  v2012                                 |
|   \\  /    A nd           | Website:  www.openfoam.com                      |
|    \\/     M anipulation  |                                                 |
\*---------------------------------------------------------------------------*/
FoamFile
{
    version     2.0;
    format      ascii;
    class       volScalarField::Internal;
    location    "400";
    object      V0;
}
// * * * * * * * * * * * * * * * * * * * * * * * * * * * * * * * * * * * * * //

dimensions      [0 3 0 0 0 0 0];


value           nonuniform List<scalar> 
13917
(
0.0119186
0.0426712
0.00275267
0.0347778
0.12038
0.00224693
0.00229234
0.00146109
0.00177338
0.00788915
0.00440126
0.00916071
0.0249734
0.00135547
0.0216289
0.0262809
0.0404741
0.00906681
0.0104513
0.157547
0.136605
0.00192096
0.123577
0.00200038
0.0719003
0.00214552
0.00739631
0.00499464
0.00207955
0.0059575
0.0111218
0.0178024
0.0111487
0.0171174
0.0708835
0.00311363
0.121527
0.00144849
0.0269544
0.00123652
0.172786
0.172421
0.13224
0.00483639
0.043531
0.0172164
0.0102367
0.00766664
0.00167524
0.169316
0.0157152
0.0390756
0.00147121
0.0159064
0.0380931
0.0195852
0.00563277
0.0662806
0.0270178
0.0422313
0.00237613
0.0481836
0.00125092
0.136218
0.00319296
0.00242697
0.113789
0.0676621
0.00368827
0.0125003
0.128768
0.00179867
0.00141576
0.0955628
0.00149377
0.00895947
0.0012454
0.0370956
0.00233789
0.146784
0.153172
0.109286
0.00263235
0.00171304
0.00193397
0.0383213
0.141471
0.00191677
0.0209599
0.106447
0.0014511
0.00756482
0.0692061
0.030996
0.00154034
0.00296809
0.00507638
0.00777862
0.00482552
0.00523775
0.126021
0.0119338
0.00419237
0.0272669
0.0896358
0.00226147
0.00350384
0.0066457
0.0432794
0.00977606
0.00166248
0.00155961
0.00630748
0.00196035
0.0264255
0.00132617
0.103055
0.00174511
0.00140008
0.015723
0.164094
0.00421034
0.00125291
0.00675453
0.149344
0.0342015
0.0426673
0.169319
0.17231
0.00224777
0.001296
0.0330522
0.0439053
0.140556
0.00326381
0.00205943
0.0111922
0.00359965
0.101394
0.0171964
0.00417127
0.0759098
0.0409207
0.00437422
0.0567237
0.00259527
0.0023182
0.0469797
0.0877257
0.0191305
0.0092843
0.00117923
0.00733081
0.00899669
0.0209722
0.0018967
0.0145636
0.00313187
0.00125196
0.00319929
0.0233736
0.00818021
0.162217
0.0055883
0.00797974
0.00460854
0.0264806
0.00878871
0.0622168
0.00952816
0.0105702
0.00132024
0.00610748
0.035041
0.00272071
0.00734636
0.00161459
0.00163623
0.00277697
0.0656164
0.00651206
0.0122214
0.0769636
0.126397
0.0150467
0.0023428
0.00423012
0.00206683
0.0100934
0.00353672
0.00311966
0.00194293
0.00349631
0.14263
0.00370219
0.00783008
0.187047
0.0553719
0.00375675
0.00202066
0.0215761
0.128918
0.0112624
0.0101658
0.00134395
0.00298504
0.0606641
0.0584978
0.00808232
0.00270142
0.0442867
0.00225972
0.00138392
0.00544145
0.091454
0.00270875
0.0094866
0.00154424
0.069991
0.00271228
0.0779487
0.00560073
0.142014
0.00137394
0.00201624
0.0233241
0.00351977
0.018553
0.103482
0.00271107
0.00642775
0.0108092
0.00256707
0.00105146
0.140382
0.0159896
0.00172797
0.00120055
0.138773
0.115645
0.00131733
0.00435437
0.162394
0.00393665
0.00712251
0.00732749
0.0126878
0.163806
0.0113425
0.00128497
0.0564105
0.00646926
0.00388063
0.0464344
0.0589506
0.0080844
0.00133778
0.00668993
0.0119197
0.019898
0.177253
0.00112597
0.00261848
0.00341885
0.0829526
0.00153656
0.00126815
0.00287566
0.00192222
0.00771155
0.159961
0.184362
0.00885242
0.00140299
0.00581784
0.0269901
0.00296964
0.0116146
0.161217
0.00230256
0.138242
0.00243029
0.024954
0.133471
0.0179958
0.00800834
0.0099
0.00324226
0.012448
0.0493714
0.00337785
0.00219331
0.00194047
0.0799909
0.00296297
0.124138
0.051985
0.109731
0.00201879
0.18303
0.00517776
0.0146473
0.0675774
0.00931179
0.0317316
0.0010364
0.00802339
0.00807088
0.0657463
0.0607984
0.00153543
0.00135366
0.0878884
0.154569
0.00269211
0.0711645
0.00150816
0.0769362
0.00126335
0.0395385
0.00385309
0.0160414
0.00142564
0.0255151
0.00307654
0.00263713
0.0183014
0.00370397
0.00268333
0.0404435
0.00158788
0.00325384
0.00104002
0.0201417
0.00128316
0.0166078
0.00184684
0.0036177
0.00441731
0.00500893
0.00220889
0.123859
0.0107284
0.00186499
0.0406596
0.0279328
0.0013997
0.00335268
0.0433017
0.00351347
0.00198954
0.143892
0.00145635
0.0035832
0.1328
0.104578
0.139014
0.0787775
0.00330219
0.00244477
0.00240269
0.00183555
0.0888692
0.00549008
0.00127606
0.0114158
0.00194333
0.00166184
0.00193196
0.108314
0.0037886
0.0898135
0.00249925
0.041097
0.00133846
0.00651566
0.0313177
0.109583
0.00882521
0.00522011
0.00606449
0.00123932
0.0016384
0.00122891
0.0099799
0.00641457
0.0990504
0.00124474
0.00195666
0.058567
0.00383353
0.104307
0.00396822
0.0369669
0.135441
0.0230303
0.00167926
0.0277088
0.00168293
0.0014801
0.00246326
0.00248601
0.039323
0.00261861
0.00240578
0.125041
0.00376996
0.046961
0.0658118
0.00486893
0.17737
0.0978566
0.0818123
0.00361757
0.141986
0.00145385
0.00213142
0.001346
0.00327401
0.00157977
0.00128462
0.0123158
0.094034
0.00522181
0.023532
0.0164935
0.124855
0.00259146
0.0024039
0.00258667
0.0209383
0.00571715
0.0233066
0.0283065
0.00724903
0.02911
0.0029962
0.0405237
0.152325
0.00156958
0.0014745
0.00153269
0.00543841
0.00119471
0.00178498
0.00151148
0.00150092
0.142632
0.00790208
0.0288296
0.0536545
0.00325565
0.00762799
0.160269
0.00829561
0.0123315
0.00134819
0.0997535
0.00562064
0.00164623
0.00305539
0.00121094
0.13389
0.0502146
0.160173
0.0113845
0.130611
0.00229611
0.00268968
0.0145543
0.00170588
0.02059
0.00473471
0.00158293
0.00148551
0.004549
0.00333732
0.00487528
0.0092716
0.00462675
0.0114053
0.00444883
0.0023244
0.0095626
0.00533315
0.154137
0.00277658
0.0214193
0.079588
0.0123615
0.0335201
0.00150152
0.00164245
0.0693097
0.152705
0.00240297
0.00112586
0.180625
0.0012428
0.0295302
0.00412952
0.0724189
0.00107879
0.00311591
0.0187221
0.0305352
0.00184745
0.00403733
0.00127972
0.17695
0.00135699
0.0018633
0.00295383
0.0679298
0.00170487
0.00211089
0.0113214
0.0994514
0.035096
0.00929749
0.00374964
0.13605
0.110446
0.13738
0.136169
0.00124537
0.00306146
0.0121754
0.00423284
0.165735
0.0979496
0.00574103
0.00216924
0.0120982
0.0511374
0.0876941
0.0700607
0.00258226
0.001849
0.141061
0.0728294
0.00354167
0.0118872
0.0118617
0.0567226
0.0246292
0.0187251
0.00595001
0.00279459
0.00350586
0.00442744
0.00526925
0.00300406
0.00686412
0.0776715
0.00147786
0.079396
0.0249874
0.0270055
0.00267259
0.00530587
0.115715
0.00317495
0.00515543
0.0014471
0.00483228
0.00961313
0.0117403
0.104193
0.00191775
0.00324347
0.00158834
0.0472231
0.015013
0.00367717
0.00150798
0.00136609
0.00720305
0.00436486
0.0255001
0.0215307
0.0496149
0.00601853
0.00414734
0.0424572
0.00969247
0.00333226
0.00171559
0.00108639
0.0260507
0.00508704
0.00357975
0.016267
0.0431856
0.00155872
0.00259022
0.00225816
0.00414339
0.139214
0.00123945
0.0098531
0.135868
0.0139679
0.00723648
0.0113812
0.0063373
0.00216501
0.00499672
0.0153777
0.00233281
0.026489
0.00138095
0.141013
0.107656
0.00245849
0.00216806
0.00244699
0.0247401
0.0393793
0.0781333
0.0102818
0.00135973
0.00496904
0.0207544
0.00554929
0.00888733
0.058979
0.00242619
0.00607892
0.00341223
0.0763753
0.00402236
0.0325457
0.00155634
0.00813744
0.00587106
0.0127355
0.135921
0.077431
0.0416656
0.00495013
0.014943
0.00375891
0.00126126
0.0085566
0.134332
0.00380721
0.00179583
0.00335435
0.0554909
0.0154485
0.110344
0.0167752
0.0203783
0.00188214
0.145723
0.00229533
0.0175119
0.00405729
0.00644324
0.00133484
0.00551839
0.0385087
0.00135552
0.00136609
0.0542387
0.0283763
0.00333881
0.00462356
0.00556149
0.167767
0.0305448
0.00400879
0.0246266
0.00741871
0.00924203
0.0703978
0.0103309
0.00243669
0.0529491
0.0417809
0.154029
0.00138236
0.153734
0.0218627
0.00135427
0.0249481
0.00241526
0.0207254
0.00849026
0.136787
0.0081879
0.100256
0.00899015
0.161991
0.00568573
0.0289068
0.00174781
0.00135542
0.00166132
0.187725
0.135468
0.00717958
0.00947534
0.00119877
0.0015632
0.00875163
0.0754928
0.00371234
0.00238693
0.00298195
0.00412995
0.00902916
0.00207506
0.0100267
0.0128621
0.00399673
0.00375566
0.00943055
0.00169652
0.0104132
0.0304641
0.00642412
0.0144769
0.0686436
0.0182099
0.0100114
0.018106
0.101814
0.151889
0.00900916
0.0258263
0.00662989
0.0670706
0.0899217
0.141074
0.0261123
0.0999374
0.0204815
0.141515
0.00110546
0.0098631
0.00280676
0.138945
0.138216
0.00676069
0.00785035
0.0300289
0.0024101
0.00628758
0.00262372
0.0136894
0.00489576
0.0310489
0.158339
0.144562
0.0258535
0.00123902
0.145161
0.00267886
0.0150968
0.00106716
0.00794228
0.00550217
0.00434402
0.095718
0.182508
0.00875833
0.0710769
0.039972
0.00268205
0.0315773
0.130145
0.0152754
0.128108
0.131246
0.0176266
0.0135348
0.0010517
0.0134778
0.0441486
0.177569
0.00157656
0.00405987
0.0478747
0.0380096
0.0025313
0.00326106
0.00130489
0.0113372
0.0295404
0.129541
0.124089
0.00937708
0.0127699
0.00320507
0.0147391
0.00156518
0.033935
0.0253272
0.000927962
0.103043
0.0183097
0.0570487
0.159633
0.01003
0.00751078
0.0320634
0.00205538
0.00121586
0.0074579
0.0631928
0.0806279
0.00554822
0.00273828
0.158611
0.00280477
0.0838516
0.0106588
0.0533773
0.0694652
0.00344135
0.0505351
0.00293414
0.0106968
0.151693
0.109243
0.0509018
0.0716703
0.0443868
0.00152693
0.0558558
0.0704711
0.00165183
0.00200215
0.0120757
0.0116052
0.00659994
0.0210652
0.0791928
0.0107802
0.00136376
0.00455747
0.0980342
0.0406729
0.00181582
0.00992922
0.00157028
0.13619
0.0284642
0.00134027
0.0132537
0.0344363
0.001242
0.0016233
0.0793286
0.00434058
0.118177
0.0543237
0.10631
0.00137682
0.0983211
0.0473658
0.0797277
0.00251805
0.0215615
0.00422664
0.00587911
0.0622374
0.0103469
0.14365
0.00150951
0.098187
0.0553488
0.13103
0.00383496
0.110366
0.00395644
0.00127138
0.0025563
0.0184199
0.00302546
0.00134802
0.0601209
0.00123367
0.00165949
0.00127799
0.00156285
0.00157758
0.00152283
0.00404289
0.0348567
0.00189611
0.0141128
0.0017815
0.0800689
0.0620644
0.0479875
0.141465
0.0183705
0.0129911
0.00104508
0.0637026
0.0732416
0.00109425
0.00317128
0.0479363
0.00712676
0.0152219
0.0414057
0.00108629
0.00697117
0.0236186
0.0214511
0.00121434
0.00100236
0.00174882
0.0566308
0.0039942
0.00491755
0.00135298
0.00172553
0.00697209
0.0619732
0.0305723
0.0314803
0.159324
0.0239126
0.132101
0.0163569
0.00592901
0.00165028
0.00551705
0.0444073
0.00517206
0.00152874
0.0108245
0.0472826
0.00122104
0.0598931
0.0413445
0.00859145
0.00175295
0.112541
0.0738812
0.00208566
0.00317047
0.00305268
0.00499548
0.00246239
0.0663608
0.00350763
0.0430719
0.102404
0.0437668
0.00256985
0.00114182
0.0625222
0.106844
0.0551057
0.00298539
0.0260835
0.0173795
0.075382
0.0452575
0.00418948
0.0574102
0.00764606
0.00355041
0.00173876
0.0501337
0.00528873
0.0222018
0.00139299
0.00120438
0.0860828
0.0012281
0.00658911
0.00164061
0.121788
0.00153469
0.119859
0.0158521
0.0108084
0.00444229
0.00234572
0.00286295
0.00448093
0.00225866
0.140153
0.00372648
0.0724303
0.0118216
0.00185902
0.0480121
0.154868
0.0333966
0.0391199
0.0013047
0.11415
0.122981
0.00894554
0.00757471
0.00957196
0.00227398
0.00542668
0.00120181
0.00910271
0.0122709
0.0142042
0.00135155
0.0122993
0.00265142
0.00150657
0.0212909
0.0644883
0.00160123
0.00334929
0.0414126
0.0059459
0.00940911
0.0355752
0.0188194
0.0360167
0.0111499
0.173376
0.00915824
0.00335736
0.101148
0.00846117
0.0611862
0.00635031
0.165081
0.0148506
0.00767848
0.0240475
0.0409695
0.0648868
0.00165157
0.00610133
0.00258061
0.0726115
0.038206
0.00825573
0.0579293
0.00678022
0.00563143
0.0345029
0.00649575
0.0696259
0.00239079
0.0437001
0.0162774
0.00103619
0.00359858
0.0802695
0.0268896
0.00127358
0.0987307
0.102047
0.00142846
0.0014889
0.0219012
0.00435208
0.145113
0.0402833
0.00253421
0.0315854
0.0901534
0.00329704
0.0558562
0.00298367
0.115381
0.0977575
0.0437266
0.00520689
0.00143074
0.0433555
0.0405885
0.0729745
0.019328
0.134054
0.0016477
0.0083648
0.158919
0.00231888
0.00842214
0.00283967
0.0015803
0.00150645
0.0676311
0.0481502
0.0531769
0.00197758
0.0195056
0.00149616
0.00141005
0.0273359
0.0018049
0.00155132
0.00925938
0.00440598
0.00570007
0.00239457
0.00223742
0.00475028
0.00278432
0.00155967
0.00915283
0.0221517
0.00133735
0.00543448
0.0709335
0.0237439
0.00247049
0.0101342
0.0671527
0.00717861
0.00599701
0.0115263
0.00122787
0.0266345
0.00223895
0.0127054
0.00378746
0.00446863
0.00398396
0.0157849
0.065669
0.0399211
0.00238249
0.0816371
0.0226413
0.152494
0.0247038
0.0590134
0.010389
0.00503729
0.00142982
0.00806348
0.00644703
0.00237154
0.00287799
0.0586958
0.00302097
0.00220492
0.0567295
0.100386
0.0125101
0.00132502
0.141161
0.0074352
0.00255148
0.0083164
0.0573062
0.0278685
0.0573269
0.00526549
0.00938246
0.133487
0.00172194
0.00206937
0.00953905
0.00276934
0.00770424
0.00212766
0.0262459
0.0193388
0.00229095
0.00276977
0.00683603
0.00186356
0.0177279
0.147808
0.0616311
0.0491065
0.0585966
0.0272358
0.00883175
0.0755367
0.00458798
0.132794
0.014364
0.0670393
0.00644265
0.00526244
0.00294012
0.0615905
0.00399016
0.0593835
0.00225969
0.0921821
0.0176194
0.0937405
0.00360699
0.00124319
0.004004
0.0723588
0.00527093
0.0460357
0.0142043
0.00149255
0.0529646
0.042407
0.00805232
0.0155902
0.001919
0.0733925
0.0145329
0.0383343
0.105372
0.01223
0.0326483
0.100811
0.0244001
0.00100088
0.0221238
0.00305476
0.00227195
0.00907776
0.00142735
0.0220659
0.109042
0.0143214
0.00116934
0.0339659
0.0102099
0.0107577
0.00159873
0.0747081
0.00113421
0.00713801
0.00736556
0.0667779
0.113866
0.00504361
0.0390523
0.144491
0.00999643
0.0809313
0.0158966
0.0156253
0.00539727
0.00333651
0.00208119
0.0220749
0.00553724
0.00246714
0.00110375
0.0139242
0.00280054
0.00132789
0.0117214
0.00200619
0.0202083
0.00178854
0.00119277
0.0731273
0.164358
0.106767
0.0384603
0.0097947
0.0656185
0.018937
0.0065711
0.0255485
0.0109125
0.00106118
0.00971991
0.0225366
0.00156964
0.0327569
0.00122426
0.0254806
0.00423037
0.0767578
0.00106449
0.00130441
0.0460087
0.0368043
0.00180813
0.0106351
0.00126597
0.132962
0.047824
0.00169061
0.0309095
0.00627467
0.0015641
0.0763466
0.00837725
0.0123149
0.11102
0.13232
0.00184249
0.00131562
0.0399693
0.0227059
0.0544648
0.0139041
0.00873694
0.00145341
0.0270238
0.00169927
0.0028052
0.00338901
0.00270184
0.0314139
0.00571912
0.00348363
0.0142108
0.0907419
0.00883441
0.00146369
0.02506
0.00728042
0.00184987
0.0013214
0.00272941
0.0195522
0.047946
0.130908
0.0794146
0.00130119
0.00895669
0.0248796
0.0283625
0.0238975
0.13585
0.0589519
0.0759455
0.00620235
0.0154831
0.00236749
0.00570924
0.00119647
0.00149049
0.0134277
0.0092466
0.114037
0.0170491
0.00105569
0.0365058
0.0245292
0.0091092
0.00453308
0.00604767
0.00221564
0.00201801
0.058326
0.00106402
0.120822
0.0382877
0.00794494
0.145012
0.0469889
0.00435201
0.00238021
0.0540093
0.00233057
0.0371511
0.0672206
0.0205434
0.00168852
0.0159424
0.0272946
0.0020017
0.0315957
0.00338666
0.00164734
0.16927
0.00502227
0.129654
0.00120063
0.00640405
0.0669998
0.00195839
0.0087018
0.00463935
0.129039
0.00104965
0.0137645
0.00283182
0.0406631
0.00423869
0.00129448
0.0690244
0.00174624
0.0460181
0.00759874
0.00633132
0.159486
0.00103017
0.023987
0.00432386
0.00812964
0.00473647
0.00955838
0.00922963
0.0281946
0.00187915
0.0106899
0.00117176
0.0133511
0.00988307
0.0490626
0.0113176
0.0554061
0.00917687
0.00223567
0.0356788
0.0702452
0.0013425
0.0286769
0.00226888
0.0325434
0.00228894
0.00257826
0.012773
0.0724633
0.100419
0.0855826
0.120011
0.00576401
0.00651979
0.00729523
0.0189538
0.135811
0.00302974
0.0248976
0.0137322
0.00274503
0.0561638
0.00180969
0.00958661
0.0175514
0.00173226
0.00132832
0.00313407
0.0023068
0.00269826
0.0714837
0.00254418
0.00148535
0.00259957
0.148352
0.044113
0.00473746
0.0021051
0.0012848
0.00298336
0.0498678
0.00715836
0.0110084
0.00185977
0.00126949
0.0121294
0.00337179
0.0217004
0.00643404
0.00639729
0.144443
0.00547183
0.00245539
0.106692
0.00282271
0.142593
0.0462076
0.00103165
0.00152924
0.126961
0.0390543
0.0229315
0.045846
0.00971674
0.0043226
0.0259737
0.100072
0.102315
0.00880513
0.0163198
0.0205194
0.00326562
0.0702397
0.0017627
0.00122488
0.00147894
0.00346697
0.009602
0.00304751
0.0133011
0.00184417
0.00268781
0.0027005
0.0403331
0.00187851
0.00113043
0.114843
0.0965092
0.00533235
0.00149628
0.00230167
0.0630239
0.0495349
0.00150323
0.00183886
0.00270196
0.024299
0.0209507
0.00184763
0.0490182
0.00148634
0.00172365
0.00313704
0.00247572
0.0511792
0.0773622
0.13055
0.0154634
0.0011557
0.011072
0.0224304
0.0297674
0.0045127
0.00107766
0.0100599
0.00277909
0.00110088
0.00103304
0.0017195
0.0800936
0.152201
0.00226266
0.114004
0.0691692
0.0281962
0.00112449
0.0115538
0.00196908
0.00443183
0.0875534
0.00146569
0.0118221
0.0593377
0.00134423
0.00303701
0.0182171
0.0412538
0.00119352
0.00156464
0.118822
0.0022816
0.00230276
0.00182794
0.00208387
0.00536623
0.0635126
0.0316541
0.0034773
0.0201269
0.00217608
0.00834903
0.00280517
0.00325496
0.0266697
0.0164141
0.0545282
0.0342131
0.001685
0.00113787
0.080968
0.00126706
0.0100402
0.0471631
0.0202934
0.0927548
0.00414294
0.0261124
0.00168417
0.00646308
0.0653598
0.133426
0.00492
0.000988003
0.0108054
0.0226943
0.00954382
0.0640026
0.0246637
0.0174868
0.000937005
0.00136598
0.00155779
0.109047
0.13047
0.0245583
0.00656264
0.0982679
0.0340501
0.00386713
0.00715881
0.0027261
0.0714267
0.00161996
0.00132993
0.163856
0.00100863
0.0052368
0.0104881
0.0015344
0.0358073
0.00144384
0.0146417
0.0240095
0.0225824
0.121783
0.00356073
0.165848
0.0362979
0.0114214
0.0015002
0.0015
0.140284
0.160387
0.0239127
0.0487991
0.00412019
0.038056
0.0061511
0.0290273
0.00144995
0.0352829
0.00157429
0.102637
0.00162612
0.034899
0.112931
0.00181157
0.00261566
0.00392134
0.00299685
0.00565892
0.0101161
0.0724943
0.00142749
0.0656215
0.0991491
0.00449844
0.00908128
0.00179635
0.00143642
0.00487381
0.00276017
0.00476307
0.0028103
0.14035
0.0221234
0.0165518
0.00154886
0.0202723
0.00137948
0.00102516
0.0366043
0.0463229
0.0517122
0.00261814
0.00105878
0.0235691
0.123784
0.0207658
0.0183036
0.0108689
0.00345981
0.00303831
0.126084
0.00201536
0.00624636
0.000967116
0.00646867
0.0242865
0.0243069
0.00139295
0.141117
0.00601588
0.00219642
0.0283866
0.0195084
0.00380056
0.00419628
0.0330304
0.00125795
0.0243534
0.00331864
0.00964821
0.0136967
0.0304424
0.00166483
0.100888
0.00499332
0.00178503
0.00154699
0.00905665
0.00712837
0.0211631
0.00954726
0.138274
0.00172305
0.0190671
0.0494038
0.0146686
0.138726
0.16441
0.000880483
0.092832
0.146619
0.0533268
0.00394586
0.0462234
0.0129144
0.00614295
0.00352131
0.00533638
0.137517
0.0031002
0.00200251
0.00412704
0.00743906
0.0121077
0.00418673
0.00265602
0.00266306
0.166747
0.00246922
0.00216804
0.168718
0.024846
0.119001
0.00222201
0.00514311
0.0343741
0.00169015
0.0014917
0.135639
0.042539
0.00208573
0.00111402
0.00838302
0.107328
0.00264376
0.00159529
0.00130817
0.100078
0.00151671
0.0067738
0.00402058
0.00128788
0.0209334
0.118448
0.0134566
0.00423836
0.0128953
0.00204881
0.00150162
0.0684179
0.00231765
0.00153284
0.00133823
0.0861999
0.00621984
0.0288193
0.0630898
0.00121907
0.00307001
0.00335348
0.00293239
0.0145157
0.00998357
0.157099
0.00162307
0.00118483
0.071767
0.037474
0.0111109
0.0607003
0.009164
0.00167739
0.0019132
0.00903834
0.0340478
0.0367264
0.00162452
0.0195552
0.0089606
0.0751768
0.0288665
0.00330799
0.00280536
0.00311408
0.00156354
0.142193
0.00365433
0.152462
0.00778155
0.00177135
0.00136487
0.0954725
0.144851
0.0145403
0.0164778
0.0444258
0.00138515
0.0015226
0.075804
0.140669
0.11802
0.0952004
0.00145196
0.0658015
0.00150627
0.00513355
0.00854356
0.0612952
0.00909541
0.00162708
0.0141046
0.00262897
0.00162397
0.0320566
0.00102431
0.00988332
0.00635995
0.00316366
0.0012282
0.00136024
0.00930978
0.0717644
0.00382459
0.065234
0.0155732
0.0438355
0.00232587
0.0103404
0.00277891
0.00346241
0.00994705
0.11441
0.0034155
0.0179845
0.161637
0.00268825
0.108811
0.0146598
0.0104914
0.0438291
0.00214062
0.0277758
0.00228564
0.0269666
0.0936265
0.00179475
0.00151427
0.0211213
0.0109051
0.0123913
0.0065759
0.00885825
0.0148566
0.0147979
0.0222004
0.00368064
0.0181772
0.0021881
0.0055634
0.00262812
0.00571145
0.0297412
0.00159962
0.155279
0.00234718
0.0206712
0.00195128
0.00268173
0.00269078
0.00269651
0.00398269
0.00462952
0.0329774
0.00166436
0.00441102
0.0729068
0.00106241
0.00230136
0.0252374
0.0276867
0.012035
0.0116813
0.0148387
0.0013731
0.184601
0.0153896
0.011089
0.0110496
0.140392
0.00584938
0.0933259
0.00212538
0.0192399
0.00447067
0.0130042
0.0109587
0.00501294
0.00284093
0.00690876
0.0692683
0.00370051
0.00178141
0.00173742
0.0380872
0.00231013
0.0167541
0.00142695
0.0638087
0.0221135
0.00145725
0.0100098
0.0012297
0.00123047
0.010171
0.00123215
0.0484957
0.0930808
0.00103156
0.0056801
0.0239238
0.00171656
0.0181267
0.00719689
0.0147803
0.0070428
0.0414656
0.00253413
0.00180468
0.00123175
0.00322899
0.0168622
0.00840337
0.0012437
0.023734
0.0424158
0.00524
0.112982
0.00210096
0.00179413
0.00121444
0.00131998
0.00883709
0.0345959
0.00158225
0.123754
0.00506904
0.147214
0.001657
0.0272777
0.00648029
0.00125553
0.00468943
0.124065
0.0124517
0.00182974
0.0473341
0.00536994
0.0677718
0.00214146
0.00132168
0.00546251
0.00432323
0.123479
0.00404079
0.00497834
0.0102603
0.0679244
0.0380643
0.165358
0.00959409
0.099872
0.00563976
0.0433454
0.0631311
0.00182853
0.0583537
0.0182264
0.0219875
0.134924
0.00146738
0.0619578
0.0117138
0.00159449
0.0100905
0.00261516
0.0490484
0.00173371
0.010148
0.00176456
0.0258818
0.00394975
0.0435176
0.00944457
0.00512301
0.00540596
0.00387376
0.0015335
0.00427122
0.00285104
0.0157097
0.00524208
0.00904086
0.00265664
0.0185002
0.0415564
0.0595021
0.00970053
0.00680416
0.00287564
0.00896545
0.0022076
0.00237038
0.00384746
0.0536025
0.00277011
0.00259574
0.0395878
0.0251373
0.0506373
0.00218299
0.0584278
0.000883377
0.061795
0.0179839
0.00142899
0.00517439
0.0869702
0.0592844
0.00122232
0.07359
0.023286
0.0167835
0.0121579
0.0200435
0.0398377
0.0031555
0.00437006
0.00915206
0.00365417
0.00146071
0.00137267
0.00110576
0.116004
0.0633271
0.00417575
0.0352773
0.00554193
0.00223752
0.0012769
0.111805
0.0712631
0.00153073
0.0030496
0.107643
0.0709931
0.0148509
0.00185101
0.00199958
0.0183621
0.0125264
0.130384
0.00354899
0.00547921
0.0032619
0.011458
0.0100914
0.0269057
0.0109129
0.00331246
0.0233381
0.0399004
0.0184762
0.00209248
0.0177272
0.00122191
0.0905625
0.00151469
0.0111126
0.0124284
0.0863756
0.0929896
0.00277969
0.00234938
0.00598433
0.00118485
0.00189775
0.0347607
0.00148576
0.0047567
0.144109
0.00260903
0.00286642
0.00339918
0.139212
0.00146207
0.00143918
0.0640672
0.0096462
0.00128262
0.0100384
0.0486886
0.0689606
0.034836
0.0242049
0.00660553
0.00370772
0.00447807
0.00671757
0.12033
0.051383
0.00228509
0.0634569
0.00836277
0.0137965
0.0477441
0.00873178
0.0800034
0.0238424
0.00357423
0.102528
0.00134998
0.0981837
0.00181866
0.00166793
0.00585803
0.0423681
0.162544
0.00156825
0.119817
0.0227701
0.0355034
0.0036768
0.00297652
0.0113555
0.00156787
0.00973836
0.0028174
0.0300076
0.0069651
0.0587641
0.0965033
0.00122281
0.0013487
0.00301003
0.0235782
0.00761246
0.00664398
0.00106585
0.00150797
0.00351997
0.00762584
0.118895
0.00157469
0.0513436
0.0466264
0.00413614
0.00530083
0.0138819
0.00299548
0.00693542
0.0123051
0.0174346
0.00141804
0.0233671
0.0905305
0.000990687
0.0055255
0.0900111
0.00110282
0.12723
0.107174
0.00398889
0.00499514
0.00189602
0.0990035
0.0194339
0.0614149
0.00181886
0.0663905
0.00226899
0.00258308
0.00152328
0.00143413
0.00157708
0.0116198
0.00148824
0.00198019
0.133321
0.0126578
0.00938934
0.0114648
0.00177522
0.0012795
0.00127151
0.00156329
0.00169935
0.0436184
0.00583926
0.143959
0.00142579
0.0164783
0.0254564
0.02329
0.0276444
0.065931
0.00477624
0.00133586
0.107446
0.0249491
0.143662
0.00149228
0.0264622
0.00168812
0.00216216
0.00291655
0.0862688
0.0657992
0.00115637
0.00260096
0.102911
0.00317802
0.137066
0.00464442
0.0029514
0.00583473
0.00977954
0.00262377
0.0575337
0.0605092
0.00362224
0.00147865
0.0148126
0.00684572
0.0628109
0.00110091
0.0810915
0.141339
0.0308373
0.0621066
0.00174491
0.00142569
0.00287591
0.00872165
0.00149757
0.0033681
0.119157
0.0139403
0.0852844
0.00174167
0.036511
0.0195252
0.0612768
0.0965187
0.0645182
0.0020245
0.0393702
0.00154675
0.077585
0.0116001
0.154869
0.00182479
0.099738
0.013787
0.0105877
0.00582708
0.00178208
0.0922499
0.00117181
0.00722714
0.00836641
0.142179
0.0794696
0.00142203
0.00101233
0.0406857
0.0646972
0.00342687
0.00362462
0.00889546
0.00155741
0.027609
0.00214444
0.0168539
0.0923447
0.00178572
0.0359197
0.00188221
0.059178
0.0277971
0.109545
0.000986882
0.00145625
0.110671
0.00279808
0.00367929
0.138566
0.0568152
0.143619
0.00282761
0.00153874
0.00747492
0.0281987
0.0101766
0.0993172
0.050641
0.0244335
0.106447
0.0039462
0.0461473
0.00785077
0.0028644
0.0105016
0.130525
0.00237477
0.00569099
0.0958891
0.00538513
0.0146112
0.0028843
0.0200656
0.00230429
0.00836838
0.0523838
0.00608549
0.00611484
0.0254617
0.0017038
0.0081573
0.0183388
0.0029264
0.0564545
0.00447418
0.00389948
0.00474838
0.0958059
0.0601318
0.120502
0.0105528
0.00892839
0.00880714
0.00236995
0.00129793
0.00224118
0.133143
0.00159265
0.00163113
0.00158274
0.0599632
0.0462598
0.00886815
0.00188819
0.023022
0.0107483
0.00150522
0.00129956
0.0016766
0.00377028
0.00402963
0.00154113
0.00289411
0.0881902
0.00180013
0.00362389
0.0363248
0.0379705
0.0276118
0.00143018
0.00594509
0.00181703
0.0227409
0.00272146
0.0420298
0.00254315
0.00133794
0.0356789
0.00874604
0.00146485
0.00234438
0.00834683
0.0284751
0.0236526
0.0332129
0.00358847
0.00546339
0.00248971
0.0015508
0.0779516
0.00104723
0.00429726
0.00271085
0.143765
0.137047
0.00355752
0.00295258
0.0611296
0.00901606
0.0048854
0.00614431
0.0020936
0.00192365
0.00158866
0.00149157
0.0192483
0.0768171
0.00519529
0.0012693
0.00224703
0.0493737
0.00187908
0.00429934
0.00208813
0.0320284
0.146186
0.0017643
0.00266348
0.0024815
0.00182659
0.00133015
0.0853517
0.00282507
0.00158195
0.0459297
0.00541097
0.00648672
0.0995007
0.00388625
0.00185536
0.0028276
0.142114
0.00112061
0.00491481
0.00161146
0.107477
0.0254858
0.0319241
0.0362514
0.0357052
0.00728777
0.00939526
0.00797739
0.00288378
0.0103978
0.00135781
0.0186211
0.0185606
0.0144068
0.00105627
0.00581454
0.00145241
0.0143458
0.0139111
0.00102937
0.00361359
0.0480043
0.00834103
0.00284531
0.00227981
0.00368222
0.0541283
0.0799257
0.0492172
0.00311212
0.0280918
0.00149278
0.00182263
0.00262931
0.0132337
0.00382888
0.0013264
0.0470053
0.00249084
0.0110439
0.00512111
0.0475694
0.0511644
0.00780966
0.00147927
0.139619
0.00152727
0.00316315
0.00446207
0.00424878
0.0739469
0.112951
0.0147843
0.0377541
0.00167516
0.00169147
0.00509208
0.00284245
0.0557271
0.0431931
0.0404474
0.132038
0.00182015
0.0299486
0.00135974
0.00441582
0.0285372
0.00246661
0.00213519
0.00146793
0.00108055
0.0238751
0.0668378
0.104031
0.0242352
0.00212408
0.00346935
0.00162297
0.113013
0.036253
0.0033263
0.149315
0.00340067
0.0229742
0.00332073
0.00293452
0.00844865
0.00939076
0.0751495
0.00913948
0.00977337
0.00343741
0.00442909
0.00914823
0.0970294
0.00375856
0.0683559
0.00249032
0.00160959
0.00187512
0.0502564
0.00565566
0.0558884
0.0106993
0.0270957
0.035695
0.0126516
0.00139722
0.00188768
0.004651
0.00770326
0.00342138
0.00565725
0.00209743
0.00151825
0.01517
0.00146297
0.00345519
0.0635536
0.00582219
0.00152808
0.00476335
0.142368
0.00804243
0.00161377
0.00324335
0.00103323
0.0413794
0.00300643
0.0745435
0.063411
0.0108861
0.00186928
0.159309
0.0014754
0.00162933
0.00334886
0.00260046
0.00264568
0.00157314
0.00369958
0.108033
0.0199052
0.0812323
0.00726169
0.00373232
0.00221868
0.0189771
0.0105203
0.0745854
0.00158536
0.0111237
0.00913766
0.0017455
0.00336851
0.00167407
0.00157622
0.0589687
0.00104395
0.104081
0.0147426
0.00532858
0.00166101
0.00436454
0.0143032
0.0317194
0.00201624
0.0144294
0.0020147
0.00100973
0.00998549
0.00153782
0.0105301
0.144052
0.00188278
0.00728976
0.0275555
0.000988552
0.00188736
0.0147709
0.0149768
0.00499718
0.00130799
0.0631599
0.0479506
0.110895
0.0890888
0.0285047
0.0015108
0.0106993
0.00165347
0.119885
0.0469838
0.00199966
0.0363389
0.166297
0.110716
0.0503015
0.00269663
0.0675196
0.00158109
0.0361878
0.0272284
0.00760864
0.0387107
0.00266619
0.0695782
0.149346
0.0646152
0.0126373
0.00506206
0.0219303
0.0014461
0.0468804
0.00773629
0.0158911
0.00151507
0.0333685
0.104937
0.0601828
0.074863
0.00338385
0.0680685
0.0568406
0.0254514
0.00279495
0.141569
0.00803892
0.00874511
0.0535386
0.00166471
0.00160943
0.00304852
0.00259783
0.0222146
0.00538864
0.0441197
0.00350905
0.00360163
0.0369643
0.00292459
0.00509089
0.0024199
0.0132373
0.062653
0.00163354
0.00869264
0.00294655
0.00187343
0.0787316
0.0623293
0.00122026
0.00153486
0.00864869
0.00599353
0.0275598
0.00182523
0.00248416
0.111218
0.0913337
0.0400638
0.0988746
0.134029
0.059897
0.00960302
0.00152235
0.0145033
0.0430747
0.00230757
0.0839408
0.00299841
0.00503134
0.0448533
0.0163291
0.0619779
0.00302244
0.0176025
0.00649932
0.0626252
0.038117
0.00117964
0.00147387
0.131662
0.00896676
0.00761365
0.0151909
0.0211963
0.160264
0.0354902
0.00291093
0.00295172
0.0110903
0.00211959
0.0371864
0.00163333
0.00457308
0.0247569
0.00126044
0.0263999
0.00180359
0.00240116
0.00142296
0.00268946
0.00151118
0.00151758
0.0708836
0.0173714
0.0225203
0.0772835
0.0653799
0.0150201
0.00464187
0.0596285
0.0133433
0.00419866
0.00488922
0.00265087
0.00360413
0.0129183
0.00254764
0.00212956
0.0103437
0.0184313
0.00386954
0.00175236
0.00181412
0.0188071
0.0772986
0.0660271
0.0670274
0.0127612
0.00127861
0.00330792
0.0619292
0.00128023
0.106407
0.00458905
0.00209874
0.00460685
0.00385488
0.00396582
0.00325304
0.0284273
0.0108073
0.0769814
0.0035801
0.0619085
0.0269361
0.0132774
0.00313561
0.0958216
0.0242827
0.00117993
0.115351
0.0410803
0.0161769
0.00158261
0.00485575
0.00302552
0.00920931
0.138073
0.00164931
0.00831553
0.0265583
0.0671464
0.0102927
0.0149576
0.0564224
0.0221447
0.00125517
0.0234475
0.0803716
0.00654856
0.0799257
0.0113556
0.00981132