/*--------------------------------*- C++ -*----------------------------------*\
| =========                 |                                                 |
| \\      /  F ield         | OpenFOAM: The Open Source CFD Toolbox           |
|  \\    /   O peration     | Version:  v2012                                 |
|   \\  /    A nd           | Website:  www.openfoam.com                      |
|    \\/     M anipulation  |                                                 |
\*---------------------------------------------------------------------------*/
FoamFile
{
    version     2.0;
    format      ascii;
    class       surfaceVectorField;
    location    "500";
    object      ddtCorrDdt0(Uf);
}
// * * * * * * * * * * * * * * * * * * * * * * * * * * * * * * * * * * * * * //

dimensions      [0 1 -2 0 0 0 0];


internalField   nonuniform List<vector> 
20673
(
(-0.000375498 -0.000394385 8.43199e-19)
(-0.000398985 -0.000385901 -8.74421e-18)
(-0.000382002 -0.000368426 -8.53603e-18)
(-0.00010646 -0.000137323 5.72839e-19)
(-0.000102081 -0.000131855 2.49025e-19)
(-0.000105183 -0.000139968 -1.2231e-19)
(0.00569992 -0.0037042 7.94994e-18)
(0.00613182 -0.00374628 6.62326e-18)
(0.00669826 -0.00396059 -6.95336e-18)
(-0.000164982 0.000184743 5.63986e-18)
(-0.000163673 0.000177353 -1.2283e-18)
(-0.000156513 0.000181619 4.34753e-18)
(2.7028e-06 1.02184e-05 1.43887e-18)
(1.61428e-06 9.41543e-06 4.52501e-19)
(2.0637e-06 -7.00734e-06 3.45469e-18)
(1.05562e-05 0.000100535 -1.97832e-17)
(-1.35212e-05 9.41064e-05 -1.25347e-16)
(2.53934e-06 0.000122212 3.77008e-17)
(0.0060816 -0.0034061 -4.49999e-18)
(0.00577577 -0.00346505 1.60932e-18)
(0.00667775 -0.00366781 3.93174e-18)
(0.00582786 -0.00311239 6.15436e-19)
(0.00507879 -0.00299471 7.2938e-18)
(0.00525934 -0.00302569 8.72057e-18)
(0.00266061 0.00404276 -6.57483e-18)
(0.00277333 0.0040338 -3.65709e-18)
(0.00272774 0.00393656 2.7117e-17)
(-0.000497654 -0.000624846 1.31574e-17)
(-0.00053235 -0.000650531 -1.81163e-17)
(-0.000492963 -0.000672034 -3.81544e-17)
(-0.000582005 -0.00239195 1.5009e-17)
(-0.000785211 -0.00239792 1.38838e-17)
(-0.000623743 -0.00259905 1.63049e-17)
(-0.000823893 0.00010942 1.19194e-18)
(-0.00089613 0.000100157 -7.10674e-18)
(-0.000817184 4.96031e-05 1.03348e-18)
(-0.000171948 0.000184294 -1.39369e-19)
(-0.000856138 0.000511899 3.25293e-18)
(-0.00114683 0.000401955 -3.68929e-18)
(-0.000990623 0.000563431 -1.18656e-17)
(-5.45924e-05 -0.000285297 -4.75142e-19)
(-4.90988e-05 -0.000282858 -1.53781e-17)
(-5.33652e-05 -0.000275666 -2.19244e-18)
(-9.16208e-05 -0.000283337 9.25259e-19)
(-8.63875e-05 -0.000276286 -1.46956e-18)
(-9.37703e-05 -0.00027376 -4.41734e-19)
(-9.6854e-05 -0.000147328 1.48966e-20)
(-9.98506e-05 -0.000148748 -2.42515e-19)
(-9.52355e-05 -0.000140751 -3.06598e-19)
(-0.000370657 0.000471426 -5.27581e-18)
(-0.00040736 0.000471621 -1.20735e-17)
(-0.000385215 0.000510714 -1.46542e-18)
(-0.000826554 0.000178203 7.26076e-18)
(-0.000765331 0.000122261 -1.97084e-18)
(9.93914e-06 1.30894e-05 4.2506e-19)
(9.98993e-06 1.3093e-05 -5.7697e-19)
(9.68611e-06 1.88362e-05 -1.30439e-20)
(-1.76806e-07 -3.58358e-06 1.23741e-18)
(-3.01593e-07 -5.48891e-07 1.83587e-18)
(-2.23776e-07 -3.51438e-06 1.55769e-18)
(0.00619636 -0.00335624 1.92602e-18)
(0.00576064 -0.0032679 -1.85499e-17)
(8.76341e-06 2.44892e-06 1.09338e-18)
(7.65439e-06 -8.00624e-06 -7.64556e-20)
(8.12447e-06 -7.22965e-06 7.61955e-19)
(0.00648383 -0.00342305 -3.01751e-18)
(0.00645348 -0.00328128 2.04185e-18)
(-1.42646e-05 -0.000140534 1.26858e-18)
(-1.38918e-05 -0.000142629 -4.16327e-18)
(-1.6273e-05 -0.000139991 5.67969e-19)
(0.00807308 -0.00253238 -2.42283e-18)
(0.00786041 -0.0023346 4.13299e-18)
(0.0076952 -0.00250844 -2.46127e-18)
(4.92788e-06 -0.00020982 5.3306e-18)
(9.72328e-06 -0.000204387 -1.03704e-17)
(4.26594e-06 -0.000203294 3.91202e-17)
(6.03237e-05 -0.000194229 2.09879e-18)
(6.9823e-05 -0.000194104 -6.73207e-20)
(6.03467e-05 -0.000186443 -8.79014e-20)
(0.000494468 -1.26452e-06 4.93417e-18)
(0.000524091 -3.25152e-05 -1.10797e-18)
(0.000556975 2.62152e-05 -1.56627e-18)
(-0.00133705 -0.000382476 -4.93072e-19)
(-0.00136045 -0.000301404 -1.10354e-17)
(-0.00143735 -0.000357027 2.8888e-18)
(-0.000491059 -0.000335213 8.09863e-18)
(-0.000468515 -0.000351563 9.63283e-18)
(-0.000470352 -0.000321451 1.84319e-17)
(-0.000268144 -0.000249116 3.68629e-19)
(-0.000258813 -0.000255637 2.67046e-18)
(-0.000261976 -0.00024228 1.78639e-19)
(2.4068e-05 -0.000237988 5.93941e-19)
(2.60542e-05 -0.000233496 -2.07581e-17)
(1.91703e-05 -0.000233686 -1.2288e-17)
(7.91853e-07 -0.000191683 1.00705e-18)
(3.75082e-07 -0.000187026 -1.22497e-18)
(8.04539e-07 -0.000185667 1.91227e-19)
(-1.01846e-05 -0.000154932 8.78304e-19)
(-1.14942e-05 -0.000156043 -8.5722e-19)
(-1.13522e-05 -0.000154153 -3.77331e-18)
(-0.000903079 -0.00509985 -1.91182e-18)
(-0.000337448 -0.00543533 1.32335e-19)
(0.00265173 -0.0053061 -1.43681e-17)
(8.53475e-06 1.19541e-05 -2.07324e-19)
(8.63381e-06 1.11877e-05 -3.62756e-20)
(-0.00162337 -0.000275229 -1.20123e-17)
(-0.00169994 -0.000166995 5.58559e-18)
(-0.00156939 -0.000251746 -5.5448e-18)
(-0.000218767 0.000186296 -2.63721e-18)
(-0.000228616 0.000186887 9.73366e-18)
(0.0124267 0.000738226 -6.05741e-18)
(0.0125992 0.00079798 -3.81039e-18)
(0.0124752 0.000742478 -5.53295e-18)
(-8.11819e-06 -6.61503e-07 8.30025e-20)
(-8.16987e-06 -5.07384e-07 1.95923e-19)
(-4.38267e-06 -3.44491e-07 -2.28487e-19)
(-8.92818e-08 -3.67717e-06 -1.47845e-18)
(-1.56057e-07 -2.80185e-06 2.25094e-18)
(-1.08023e-07 -2.91916e-06 -9.08241e-19)
(-9.44432e-06 3.44108e-05 -1.31956e-18)
(-1.13774e-05 3.28509e-05 1.12224e-18)
(-8.25718e-06 3.18763e-05 1.53212e-18)
(0.000112739 -0.000137323 2.65292e-18)
(0.000121804 -0.000152727 9.10135e-19)
(0.000133449 -0.000135121 -4.5497e-17)
(-0.000131229 -2.62437e-05 -5.467e-19)
(-0.000135776 -2.61393e-05 -2.53986e-18)
(-0.000135105 -1.789e-05 -1.58468e-18)
(-5.71866e-07 -0.000215174 -2.5604e-18)
(1.9438e-06 -0.000214732 1.31296e-17)
(-2.52621e-07 -0.000209748 -1.66637e-18)
(-0.000329627 0.000476928 1.09289e-17)
(-0.000351353 0.000439918 1.26144e-18)
(0.000216695 0.000499142 1.62016e-17)
(0.000154172 0.00048241 5.09051e-18)
(0.000201363 0.000450849 -6.69222e-18)
(-1.63108e-05 0.000203683 3.62829e-17)
(-1.4871e-05 0.000211742 -6.97449e-17)
(-9.75891e-06 0.000200281 -4.13935e-17)
(7.5009e-06 -3.05715e-06 -2.46869e-19)
(6.60622e-06 -3.06882e-06 -1.29427e-19)
(5.65122e-06 -4.78064e-06 -6.06378e-20)
(-0.000247299 0.000147208 2.86579e-18)
(-0.000251093 0.000147227 -4.09669e-18)
(-0.000248668 0.000150274 5.48543e-18)
(-7.23493e-06 -9.02383e-05 5.33053e-19)
(-7.2714e-06 -8.97963e-05 -9.79078e-18)
(-6.74392e-06 -9.00705e-05 1.15862e-18)
(-2.19507e-05 0.000198145 3.56481e-17)
(-2.57e-05 0.000212994 -4.97858e-18)
(8.81072e-07 -0.00019595 4.53482e-18)
(6.02556e-07 -0.00019757 2.4478e-17)
(-9.85585e-05 -0.000153396 5.44557e-20)
(-9.33987e-05 -0.00014459 6.28756e-19)
(-0.000295879 7.05513e-05 -3.65819e-18)
(-0.000297934 5.84234e-05 -1.26416e-17)
(-0.000305938 6.73769e-05 2.25523e-18)
(-0.000340861 -0.00237446 -3.46172e-18)
(-0.000488929 -0.00217934 -3.7726e-18)
(-4.16755e-05 -6.56473e-05 -6.6181e-19)
(-4.00588e-05 -6.78062e-05 -1.73086e-18)
(-4.19017e-05 -6.44491e-05 3.33112e-18)
(-0.000260958 -6.77203e-06 -1.82057e-18)
(-0.000269013 -6.00542e-06 8.38614e-19)
(-0.00026462 -2.03541e-05 -9.85671e-19)
(-0.000127925 -3.40786e-05 1.69179e-18)
(-0.00012685 -2.61049e-05 8.88545e-20)
(0.0100643 -0.00060163 1.63754e-17)
(0.00921803 -0.000273495 -1.56851e-18)
(0.00998529 -0.000326889 -5.28028e-17)
(-0.000108406 -0.000137277 -6.84389e-19)
(-0.000111566 -0.000144212 -7.7787e-19)
(-0.000647301 0.000482978 7.22634e-18)
(9.72191e-06 1.24966e-05 5.58231e-19)
(9.91528e-06 6.05937e-06 5.1292e-19)
(7.71977e-06 6.99865e-05 1.08112e-17)
(-1.40944e-05 7.82075e-05 -3.03383e-17)
(0.00749879 0.00141817 6.46261e-17)
(0.00742845 0.00175069 1.6808e-18)
(0.0067593 0.00144174 1.33226e-17)
(-5.46785e-07 3.02701e-07 3.90035e-19)
(-1.95059e-07 -1.6566e-05 -9.33341e-19)
(5.72362e-07 -0.000165197 -1.09532e-18)
(1.14116e-06 -0.000162254 5.01413e-18)
(0.00210974 0.000343445 4.28159e-18)
(0.00212916 0.000160841 -9.01202e-18)
(0.0023301 0.000331632 -2.78022e-17)
(-0.000231644 -0.00041012 -2.68861e-18)
(-0.000243852 -0.000416623 3.55556e-18)
(-0.000223506 -0.000425007 2.99585e-18)
(2.92119e-06 2.58225e-05 2.36418e-18)
(2.40302e-06 1.0409e-05 -1.53736e-18)
(0.00248729 0.00407365 -1.56376e-17)
(0.00257592 0.00399145 -1.94449e-18)
(0.00325175 0.00183318 -1.00608e-17)
(0.00336209 0.0020514 -2.02323e-17)
(0.00358158 0.00198872 -8.32675e-18)
(-1.4747e-05 -0.000138673 -1.16327e-18)
(-1.27931e-05 -0.000139094 7.9873e-20)
(-1.27143e-06 0.00021992 4.66194e-19)
(1.7811e-05 0.000220982 2.39812e-17)
(1.18404e-05 0.000233797 9.86166e-18)
(-0.000930856 0.000813797 -6.23661e-18)
(-0.000822079 0.000785659 1.04364e-18)
(-0.000886167 0.000701725 -1.11531e-17)
(-0.000391111 0.00122745 5.9326e-19)
(-0.000235609 0.00141974 8.0246e-18)
(-0.000529806 0.00127339 4.53874e-18)
(-0.000181787 3.55331e-05 -3.47743e-18)
(-0.000186547 3.66939e-05 1.77301e-18)
(-0.000185072 2.54446e-05 2.22152e-18)
(0.00886119 -0.000795228 -2.16732e-18)
(0.00880879 -0.000967463 2.83934e-18)
(0.0088027 -0.000878612 5.35255e-18)
(-1.29161e-07 9.13172e-06 -7.07831e-19)
(-2.08708e-08 1.61306e-05 3.95345e-19)
(-1.52731e-07 1.58411e-05 1.26699e-18)
(9.40701e-07 2.75136e-05 7.28945e-19)
(1.41292e-06 3.30805e-05 -1.81427e-18)
(1.00803e-06 2.5654e-05 -6.0846e-19)
(-3.57005e-07 1.56853e-05 -1.28719e-18)
(4.30069e-05 7.80222e-05 6.59329e-18)
(6.33496e-05 7.93567e-05 3.01383e-17)
(5.44448e-05 4.6807e-05 -2.46018e-17)
(-0.00145178 -0.000431106 -2.50259e-18)
(-0.00161224 -0.000309313 -2.49001e-18)
(0.000624939 0.000644175 -2.67849e-17)
(0.000209491 0.000642935 2.1842e-17)
(0.000351593 0.000595219 1.57995e-17)
(-0.000176866 3.28921e-05 6.23979e-19)
(-0.000178788 4.3521e-05 4.7143e-18)
(4.06121e-06 4.09387e-05 -7.67136e-19)
(4.03604e-06 3.99748e-05 9.18538e-19)
(3.09308e-06 3.72288e-05 -3.81057e-19)
(0.0080057 -0.00050479 -4.2726e-18)
(0.00392378 0.00013546 2.14882e-17)
(-0.000242495 0.000146805 -8.89135e-19)
(-0.000245047 0.000143372 2.82977e-18)
(-7.83244e-06 3.52741e-05 -4.16363e-18)
(-1.10527e-05 3.68626e-05 -1.56103e-18)
(0.000653195 0.00215083 4.50955e-18)
(0.000453629 0.00194482 -1.19917e-17)
(0.000298603 0.0020011 1.36887e-17)
(-0.000917752 -0.00070307 1.10418e-17)
(-0.000857073 -0.000679289 2.41648e-17)
(-0.000848928 -0.000740796 1.04902e-17)
(-7.97382e-05 -8.17709e-05 7.71192e-19)
(-7.96185e-05 -7.9663e-05 -1.67305e-19)
(-7.56794e-05 -7.81492e-05 1.12564e-19)
(-4.10612e-05 -0.000150987 1.33197e-18)
(-4.06713e-05 -0.000157743 -5.38771e-19)
(-4.30326e-05 -0.000159977 -9.56007e-19)
(0.00338955 -0.00210769 -3.08518e-17)
(0.00982845 0.00137687 -6.38037e-17)
(-3.55579e-05 9.32608e-05 -9.22879e-17)
(-3.67178e-05 7.02741e-05 3.70237e-17)
(-5.02641e-05 8.52878e-05 2.91353e-17)
(0.000771342 -0.000966231 4.70568e-18)
(0.000889643 -0.00091717 1.5904e-17)
(0.000904307 -0.00107577 6.26536e-20)
(-1.37314e-06 0.000517598 -2.42444e-17)
(6.79684e-07 0.000566637 -1.30347e-17)
(-4.42808e-05 0.00054621 -2.09799e-17)
(-0.00242662 0.000783391 -1.87963e-19)
(-0.0026435 0.000794924 -6.89512e-18)
(-0.00248955 0.000970593 -1.61012e-17)
(7.39145e-05 -5.08184e-05 -3.24748e-17)
(6.35178e-05 -7.37458e-05 1.37723e-17)
(8.28836e-05 -7.01203e-05 5.871e-17)
(-1.26074e-05 -1.64477e-06 1.08601e-19)
(-1.31296e-05 -3.69827e-06 -3.86347e-19)
(-1.35995e-05 -2.69237e-06 -1.00086e-19)
(-7.94194e-07 -0.000230109 2.97341e-18)
(-1.74331e-06 -0.000233171 -1.18439e-17)
(-3.58102e-06 -0.000231071 1.50759e-17)
(0.000106813 -0.000127032 -1.33961e-17)
(0.000100733 -0.00013705 -9.26079e-18)
(-0.000193496 9.18025e-05 -1.49382e-18)
(-0.000196635 9.62543e-05 2.69578e-18)
(-0.000191656 9.96965e-05 -6.83271e-18)
(-3.466e-05 -3.23756e-05 6.53213e-19)
(-3.40262e-05 -3.21777e-05 -2.39531e-19)
(-3.61615e-05 -3.53634e-05 7.84057e-20)
(0.00290328 0.00433803 4.70233e-18)
(0.00302107 0.00434857 -2.56972e-19)
(0.00252651 0.0044075 -1.98366e-18)
(0.000477258 -0.000167837 4.49573e-18)
(0.000476465 -0.000119118 7.48251e-19)
(0.000524486 -0.000154215 4.98607e-18)
(0.000292685 0.000505769 -1.42259e-17)
(0.000234334 0.000580931 1.95045e-17)
(-0.000103085 -0.000150094 3.07735e-20)
(-0.00010534 -0.000157024 8.18597e-21)
(-0.000459017 -0.000412784 8.53246e-18)
(-0.000432999 -0.000423154 1.53137e-17)
(-0.000453794 -0.000443941 8.88826e-18)
(0.00608631 -0.000188561 -1.8119e-17)
(0.00609043 -5.17432e-05 -3.69541e-20)
(0.00624682 -4.57751e-05 -4.74986e-18)
(0.0121747 0.000681806 2.75992e-18)
(0.0124144 0.000673777 1.37365e-18)
(-0.00128183 6.63966e-05 -5.84271e-18)
(-0.00130601 0.000149402 -1.42569e-17)
(-0.0013917 5.96405e-05 -9.43569e-18)
(0.00285805 0.00431591 -1.09172e-17)
(0.00313433 0.00426705 1.09443e-17)
(-3.49177e-06 -0.000108585 -1.08995e-17)
(-4.51948e-06 -0.000113168 2.19069e-18)
(-2.16829e-06 -0.000113875 2.25572e-18)
(-3.88726e-05 0.000263175 -8.42838e-17)
(-1.67833e-05 0.000266485 -2.28343e-17)
(-4.28253e-05 0.00030398 4.47863e-18)
(-1.0127e-05 -0.000106259 3.3535e-19)
(-1.31238e-05 -0.000108948 -1.95395e-18)
(-1.1295e-05 -0.000109963 -1.52208e-19)
(-5.21946e-06 0.000179718 -2.60132e-17)
(-7.96051e-06 0.000172642 2.92247e-18)
(3.2048e-06 0.000175274 -3.68051e-17)
(0.00623323 -2.79081e-05 1.99841e-18)
(0.0065482 -0.000191651 -1.19574e-17)
(0.00615046 -0.000379942 -5.89201e-18)
(-1.05285e-06 -0.000194 -2.40306e-18)
(-1.46989e-06 -0.000199189 4.14031e-18)
(-1.88703e-06 -0.000192575 1.09257e-17)
(-4.34183e-07 -2.78034e-06 -5.75629e-19)
(-3.13048e-07 -3.28527e-06 -1.299e-18)
(0.00209225 0.000545287 -4.21209e-18)
(0.00194677 0.000381298 1.52027e-17)
(0.00344155 -8.84808e-05 1.32568e-17)
(0.00344457 -0.000360619 2.0661e-18)
(0.00316252 -0.000300201 3.43315e-18)
(4.56361e-05 -0.000193984 2.33178e-18)
(5.6369e-05 -0.000205787 -1.95648e-17)
(2.02741e-08 -2.99812e-06 -1.23413e-19)
(-2.21877e-06 -4.61609e-06 3.71999e-20)
(-1.41604e-06 -2.48069e-06 -1.93388e-20)
(-3.91232e-05 -0.000140988 -1.01339e-18)
(-4.37204e-05 -0.000143498 7.38405e-19)
(-0.000124115 -6.97703e-05 2.68189e-18)
(-0.000128443 -7.14184e-05 -6.65136e-19)
(-0.000124608 -7.69588e-05 1.53886e-18)
(1.26329e-06 -3.3123e-06 1.22475e-19)
(3.80917e-06 -1.4776e-06 -4.46766e-20)
(-1.25857e-05 1.18339e-05 -3.20018e-19)
(-1.03039e-05 1.33427e-05 7.39142e-19)
(-1.08674e-05 1.03445e-05 -6.06613e-19)
(-3.40088e-05 0.000107593 -1.03805e-16)
(0.00423701 -0.00147737 3.92255e-18)
(0.00404027 -0.0013777 1.59002e-18)
(0.00436596 -0.0012147 -4.5933e-19)
(-2.83887e-06 -0.000104887 8.44129e-18)
(-3.9663e-06 -0.000104217 1.59783e-18)
(-0.000140246 -2.67219e-05 1.54589e-18)
(-0.000136748 -3.55278e-05 -3.03865e-18)
(-1.91611e-07 -3.55137e-06 2.38343e-21)
(-2.11401e-07 -4.09423e-06 -1.97493e-19)
(0.00247504 0.00333165 -4.92858e-21)
(0.000906725 0.00274967 -2.11072e-17)
(0.0038816 0.00258103 2.11473e-17)
(0.00714747 -0.00370238 4.63197e-18)
(0.00649242 -0.0035926 -3.50773e-18)
(-0.000367145 -0.000418253 1.14296e-17)
(-0.000353371 -0.000400398 -4.10918e-18)
(8.13879e-05 -3.53777e-05 -5.72945e-17)
(5.66607e-05 -4.22523e-05 -3.58755e-17)
(6.72186e-07 -1.70511e-05 3.4036e-18)
(3.43303e-07 -3.40607e-05 -1.37224e-18)
(2.23254e-07 -0.000195101 -9.24512e-18)
(-4.87159e-07 -0.000188696 -2.04848e-18)
(-0.00217519 -0.00474601 1.93735e-18)
(-0.00257782 -0.00482697 -1.51713e-18)
(-0.00240907 -0.0043226 8.5345e-18)
(-6.68425e-05 -2.01085e-05 -1.19634e-18)
(-6.76716e-05 -2.54992e-05 -6.10967e-19)
(-6.43848e-05 -2.56722e-05 -2.42049e-18)
(-1.3552e-05 -9.45265e-05 4.16726e-18)
(-1.56859e-05 -9.64527e-05 -6.19383e-18)
(-1.36189e-05 -9.67869e-05 6.19987e-18)
(0.000110295 -0.000111984 -3.44151e-17)
(0.000119106 -8.72668e-05 -1.07985e-18)
(0.000129735 -0.000104817 2.1415e-17)
(2.88323e-07 -0.000165245 -6.00125e-18)
(5.43712e-07 -0.000166152 -2.72773e-18)
(0.00141683 0.00387181 3.53777e-18)
(0.00187432 0.00395088 2.17328e-17)
(0.00137725 0.00400483 -1.67756e-17)
(0.000620915 -5.60797e-05 -4.24073e-19)
(0.000592477 -0.000109739 -1.29245e-18)
(0.000551951 -6.66639e-05 -1.33032e-18)
(-8.40999e-06 -9.09967e-05 4.70569e-18)
(-7.37584e-06 -9.22146e-05 6.72086e-18)
(-5.75526e-05 -1.08913e-05 -3.66865e-20)
(-5.909e-05 -1.6037e-05 -1.40757e-19)
(-5.59306e-05 -1.66135e-05 -1.25787e-19)
(-0.000248973 -0.000282844 4.66646e-18)
(-0.00023707 -0.000287742 1.7146e-18)
(-0.000242619 -0.000298305 4.37389e-18)
(-5.04413e-05 -3.9282e-05 -2.12983e-19)
(-1.41653e-05 -5.98419e-05 5.06818e-18)
(-3.05677e-05 -7.60777e-06 6.01058e-18)
(-4.2094e-05 0.000252683 1.79843e-17)
(-5.29062e-05 0.000262487 -5.86331e-17)
(-0.000425839 -0.000746718 -7.67639e-18)
(-0.000357742 -0.000819448 3.06285e-18)
(-0.000480652 -0.000826141 -9.14196e-19)
(-5.85862e-05 -0.000470275 1.27846e-18)
(-7.42138e-05 -0.000465095 -1.61901e-19)
(-7.34828e-05 -0.000481004 2.81147e-18)
(-0.000317878 -8.71781e-05 3.2702e-18)
(-0.000311641 -0.000103439 -1.79536e-18)
(-0.000306418 -9.00461e-05 -8.73955e-18)
(0.000790904 0.00111569 7.12767e-19)
(0.000660214 0.00120058 5.55564e-17)
(0.000597658 0.00115798 8.8414e-18)
(-0.000214055 -0.000409065 -8.18923e-19)
(-0.000229305 -0.000394141 -1.46425e-18)
(0.00436155 -0.00298953 5.32358e-18)
(0.00405969 -0.00282968 -1.91346e-17)
(0.00410001 -0.0032349 -1.54907e-17)
(-0.000416354 0.00105002 -1.31157e-17)
(-0.000205385 0.00121376 7.21505e-18)
(0.000668475 0.00382295 1.37926e-17)
(0.00484092 0.00387165 1.01948e-17)
(-1.56572e-05 -0.000172771 -5.43448e-18)
(-1.54697e-05 -0.000180189 -2.15631e-17)
(-1.44773e-05 -0.000173857 4.84417e-18)
(-2.32134e-05 -0.00021656 -3.60789e-18)
(-1.4745e-05 -0.000210899 -3.85429e-17)
(-2.67006e-05 -0.000208273 -1.90945e-17)
(-2.11945e-07 1.47353e-05 8.12325e-19)
(-1.27715e-07 1.40007e-05 -5.71328e-19)
(-1.58748e-08 7.48246e-06 2.3333e-18)
(0.000639746 -0.00105454 -2.29642e-18)
(0.000653042 -0.000883667 3.2292e-18)
(-0.00124138 -3.47513e-05 1.40744e-18)
(-0.00117596 6.29025e-05 6.49764e-18)
(-0.00227712 0.000758452 8.21937e-18)
(-0.00240506 0.000615817 1.2385e-17)
(-0.000195056 8.50501e-05 3.51902e-18)
(-0.000190159 8.8238e-05 -3.98293e-18)
(8.1055e-05 0.000219327 2.78006e-18)
(8.20935e-05 0.000183289 -3.16868e-19)
(0.000121345 0.000204934 -1.25505e-18)
(-0.000105421 -3.59743e-05 5.76802e-20)
(-0.0001094 -3.60231e-05 -1.22755e-18)
(-0.000106488 -4.44612e-05 1.62173e-18)
(-4.37896e-06 -0.0002293 9.08131e-19)
(1.83629e-07 -0.000228302 1.28872e-17)
(-0.000120297 -0.000498274 -3.93335e-18)
(-0.000106749 -0.000485695 -8.40646e-19)
(-0.000127436 -0.000482138 9.60181e-19)
(0.00417891 0.000122803 2.94661e-17)
(0.0043373 0.000267747 2.59526e-17)
(0.00432884 7.0729e-05 -5.88685e-18)
(-0.00144247 0.000412694 8.18441e-20)
(-0.00156298 0.000393678 1.72157e-17)
(-0.00146558 0.000298979 9.02834e-18)
(-0.000105932 -0.00017847 -3.06782e-19)
(-0.000107531 -0.000185654 5.65589e-20)
(-0.000102192 -0.000178427 1.01024e-19)
(0.00172562 0.00250552 -7.65225e-18)
(0.00162705 0.00282506 -7.76603e-18)
(0.00150887 0.00258479 1.14883e-18)
(-1.12607e-05 -0.000481995 3.5913e-19)
(3.92981e-06 -0.000482721 -1.00537e-18)
(-8.21928e-06 -0.000496222 2.17987e-19)
(0.00454145 -0.00155179 1.31157e-17)
(0.00421076 -0.00177383 -4.86885e-18)
(-2.62716e-07 0.000180763 -5.3044e-17)
(-1.32635e-05 0.000182942 -2.87633e-17)
(0.00142371 0.00373823 1.27821e-17)
(0.00102647 0.00376084 -2.76603e-18)
(-5.571e-05 -4.04615e-05 6.70377e-20)
(-5.85784e-05 -4.54694e-05 -1.31329e-19)
(-5.73225e-05 -4.30404e-05 -1.64136e-19)
(-0.000983928 -0.000729511 -3.10321e-18)
(-0.000979157 -0.000661405 8.28511e-19)
(-0.000517835 -0.000349326 -4.28233e-19)
(-0.000518026 -0.000317748 -7.48807e-18)
(-6.86123e-05 -1.36394e-05 1.45803e-18)
(-6.54149e-05 -1.45164e-05 6.94486e-19)
(4.26411e-06 4.20263e-05 3.83501e-19)
(5.34768e-06 4.17926e-05 -5.43499e-19)
(-6.10405e-06 -0.000303806 -5.09015e-18)
(-4.84754e-06 -0.000297712 -2.64696e-18)
(-9.98211e-06 -0.000299843 -6.22393e-18)
(0.00851965 -0.00257272 -1.5804e-19)
(0.00837312 -0.00279043 3.22561e-18)
(-0.00150371 -0.00175155 2.13977e-17)
(-0.00157407 -0.00185214 2.84153e-18)
(-0.00144567 -0.0018924 -2.41382e-17)
(0.00088971 0.00114712 -1.23543e-16)
(0.00135593 0.00122607 -6.09303e-17)
(-0.000420231 0.000167503 -1.71645e-18)
(-0.000428681 0.000151324 -3.84497e-18)
(-0.00043864 0.000169292 -1.43849e-17)
(-0.00211452 -0.000465021 2.66186e-18)
(-0.00215997 -0.00036129 6.66567e-18)
(-0.00223639 -0.000517833 1.40978e-18)
(0.000793792 -0.0045168 -1.99709e-18)
(0.000824439 -0.00474646 -2.72536e-18)
(0.00125381 -0.00480145 8.11322e-19)
(0.00110287 0.000658705 -8.2666e-18)
(0.000983208 0.000767256 -3.02698e-17)
(-0.000722317 -0.00184454 -6.9178e-18)
(-0.000802471 -0.00183272 -4.70202e-18)
(-0.000783438 -0.00192383 1.61969e-17)
(6.62989e-06 1.49631e-06 1.12117e-18)
(7.68938e-06 1.21229e-05 8.64651e-19)
(6.96349e-06 1.42558e-05 -2.68825e-18)
(9.94639e-06 -4.48411e-05 -2.39611e-20)
(2.27478e-05 -4.97651e-05 1.58312e-17)
(2.07499e-05 -3.06383e-05 2.9165e-18)
(3.66396e-06 -0.000215246 1.08611e-17)
(6.97171e-06 -0.00021387 -4.76261e-18)
(-4.90507e-06 -1.00832e-06 2.8567e-19)
(-4.11008e-06 -9.82057e-07 5.87699e-19)
(-7.99588e-05 -8.30744e-05 1.17904e-19)
(-8.35481e-05 -8.50282e-05 2.46147e-19)
(0.000457955 -0.00024517 8.63392e-19)
(0.000424814 -0.000253776 1.87078e-19)
(0.000445519 -0.000281588 2.06189e-18)
(0.00022105 0.00287837 -4.28348e-17)
(-0.00133295 0.00135479 1.29785e-18)
(0.00618532 0.00250515 -2.42249e-17)
(-0.000225553 0.000147767 1.1541e-17)
(-0.00022978 0.000146852 -4.32553e-18)
(-0.000228326 0.000147484 5.33009e-18)
(8.19875e-06 -3.39318e-06 -1.2658e-19)
(8.65744e-06 -1.72143e-06 1.64982e-19)
(1.2135e-05 0.000100784 -1.39026e-18)
(-1.00602e-05 0.00011802 -2.93331e-18)
(2.1112e-05 0.000135931 -6.43066e-18)
(-7.35118e-05 -7.1435e-05 -5.138e-18)
(-8.03155e-05 -2.13753e-05 -2.7335e-18)
(0.00292612 0.00165195 4.04812e-18)
(0.00317742 0.00161058 1.3641e-17)
(0.00012945 0.00528469 2.06824e-18)
(0.000126386 0.00522315 1.03023e-17)
(-0.000658045 0.0050545 -9.43273e-18)
(-9.07589e-06 -0.0001532 -9.41925e-19)
(-9.04709e-06 -0.000155229 1.72474e-18)
(-4.1208e-05 -6.7755e-05 -1.61627e-18)
(-4.33542e-05 -6.51567e-05 -1.83384e-18)
(-7.11093e-06 0.00046842 1.84592e-17)
(3.76336e-05 0.000477058 8.5743e-18)
(0.00737772 -0.00360892 2.67761e-18)
(0.00823577 -0.00372231 5.89447e-18)
(0.0078573 -0.00379537 4.68202e-18)
(-1.44516e-05 -9.11906e-05 1.76239e-18)
(-1.64363e-05 -9.43979e-05 3.28349e-18)
(0.00555819 -0.00345448 2.36526e-18)
(0.00523367 -0.00344829 -5.75178e-18)
(0.00615287 -0.00365896 -1.06082e-17)
(0.00300369 0.00124987 2.64778e-18)
(0.00309589 0.00142871 7.52988e-19)
(0.00276895 0.00124728 -7.41657e-18)
(-0.00196307 -0.000468426 -1.27268e-17)
(-0.00204592 -0.000631033 -6.83455e-19)
(-3.34716e-05 -2.88841e-05 -1.49834e-18)
(-3.58479e-05 -3.20916e-05 -8.92398e-20)
(0.00023994 0.00011072 1.49294e-17)
(0.000271136 0.000114811 -3.55351e-17)
(0.000244514 0.000149837 -2.8867e-17)
(-4.19425e-05 0.000349156 2.02332e-18)
(-2.69459e-05 0.000384051 -1.39453e-17)
(-6.80332e-05 0.000376777 9.40799e-18)
(0.00683962 0.000735733 -2.61721e-17)
(0.00683021 0.000697692 3.30937e-17)
(0.00687743 0.000794601 4.41888e-18)
(-2.81929e-05 -8.45498e-05 1.37464e-18)
(-2.98615e-05 -7.74775e-05 1.27641e-18)
(-3.02373e-05 -8.08161e-05 -2.48001e-19)
(0.011078 -0.00140901 6.19556e-17)
(0.0101393 -9.80266e-05 2.23669e-17)
(-5.31111e-05 -3.54292e-05 2.81981e-19)
(-5.4261e-05 -3.74966e-05 2.19527e-19)
(-0.00138373 8.59267e-05 -1.83328e-17)
(-0.00131714 0.000131749 6.9485e-18)
(-0.00131016 5.28875e-05 -8.47845e-18)
(-8.92016e-06 -8.16134e-07 1.87053e-19)
(-7.8786e-06 -7.44954e-07 1.2442e-19)
(-0.00204558 0.000412085 5.16738e-18)
(-0.00218217 0.000409038 -2.49898e-18)
(-0.00210156 0.000326138 -1.47259e-17)
(0.00312538 0.00434843 -4.24597e-18)
(0.00324498 0.0043359 1.53427e-18)
(0.00276656 0.00440974 -6.52936e-18)
(-9.00029e-05 -0.000290129 1.46159e-18)
(-9.71077e-05 -0.000288813 6.93002e-19)
(0.000563796 -0.000507566 2.897e-17)
(-0.000640375 -0.000533158 1.24531e-17)
(0.00108204 -0.000247284 -7.61594e-18)
(-0.000328446 -8.32516e-05 4.51755e-18)
(-0.000321067 -7.11425e-05 5.39106e-18)
(-3.18935e-05 -2.43974e-05 1.99521e-19)
(-3.10203e-05 -2.45172e-05 -1.19309e-18)
(-0.00283276 -0.00453144 8.19661e-18)
(-0.00114775 -0.00487055 9.38025e-18)
(-0.00140691 0.000525518 -3.444e-18)
(-0.00132926 0.000426026 -1.01145e-17)
(-0.000402816 0.000163756 7.18921e-18)
(-0.000409055 0.000182859 -1.05767e-18)
(0.00727688 -0.00390849 -7.96874e-18)
(0.00671132 -0.00386718 -2.71938e-18)
(0.00772871 -0.00407875 -7.99502e-18)
(0.00321511 0.00114065 5.23247e-19)
(0.00308687 0.00105043 -9.83403e-18)
(-8.88203e-06 -6.0024e-06 -8.8674e-19)
(-9.80219e-06 -7.43011e-06 3.95279e-19)
(-8.83947e-06 -5.88721e-06 1.12841e-18)
(-0.000280169 -0.000240779 1.01969e-18)
(-0.000276049 -0.0002589 -3.57599e-19)
(0.00102452 0.00237186 4.49086e-18)
(0.000904802 0.00233997 4.646e-18)
(9.53985e-05 0.000997346 2.99245e-17)
(-2.69264e-05 0.00093562 3.67705e-19)
(0.000146663 0.00100592 4.11189e-17)
(-3.77658e-07 1.50062e-05 -2.40797e-19)
(5.93626e-08 2.18625e-05 1.40979e-18)
(-1.30013e-05 -3.94362e-05 8.61712e-20)
(-1.48113e-05 -3.49724e-05 2.55982e-20)
(-1.42559e-05 -3.9342e-05 -3.44499e-19)
(0.0123742 0.000909629 -1.15114e-17)
(0.0122059 0.000962093 -1.32357e-18)
(0.00132808 -0.000796182 -2.22792e-18)
(0.0012188 -0.000915924 -5.12444e-18)
(0.00137432 -0.00097521 1.02852e-17)
(-1.46647e-07 -3.09241e-08 -8.09488e-20)
(-9.73846e-08 -2.10005e-07 -1.56674e-19)
(-1.43172e-07 -8.5294e-08 9.6843e-19)
(-0.00519952 -0.00336817 4.06639e-18)
(-0.00553906 -0.00303564 -1.78248e-17)
(-0.00439037 -0.0029457 -4.94661e-18)
(-0.000655925 0.00118236 1.09223e-17)
(-0.000562983 0.00121545 3.15074e-18)
(-0.000582896 0.00110013 3.31677e-18)
(-1.95469e-05 -0.000223585 4.05801e-18)
(-2.64403e-05 -0.000222158 1.29781e-17)
(-0.000386031 -0.000305805 4.44621e-18)
(-0.000396144 -0.000323874 9.6883e-18)
(-0.00040494 -0.00029703 6.47763e-18)
(7.54608e-07 2.06078e-05 6.45064e-19)
(-3.22e-07 1.25838e-05 5.78784e-19)
(4.85579e-05 -0.000441583 1.8622e-18)
(3.23009e-05 -0.000435371 1.27139e-18)
(4.87651e-05 -0.000424395 -6.63881e-19)
(0.00176903 0.00129207 8.93364e-18)
(0.00153684 0.00126616 6.25769e-18)
(0.00166215 0.00104509 1.18425e-17)
(-7.96257e-05 0.000109254 -6.95692e-19)
(-7.82317e-05 0.000110075 4.73918e-18)
(-8.37245e-05 0.000112263 3.68985e-18)
(-0.000974814 -0.00102027 2.65584e-17)
(-0.00089303 -0.000993285 2.60195e-17)
(-0.000973086 -0.000934396 1.53556e-17)
(9.38109e-05 -2.96697e-05 -7.09828e-19)
(0.00010677 -3.62989e-05 -2.37468e-18)
(0.000107028 -1.65326e-05 4.50111e-17)
(-0.000120034 -6.84667e-05 5.67642e-19)
(-0.000122994 -6.24426e-05 5.65656e-19)
(-3.85867e-05 -7.04789e-05 3.05306e-20)
(-3.83174e-05 -7.15437e-05 -2.56796e-18)
(-0.000440754 -0.00038307 -3.07209e-18)
(-0.00042422 -0.000445572 2.51792e-18)
(-0.000492916 -0.000420119 -5.47659e-18)
(0.0117353 0.000837081 -1.69805e-18)
(0.0120053 0.00083685 -3.6746e-18)
(0.0119944 0.000804103 6.82514e-18)
(-0.000487355 -0.000690398 7.55648e-18)
(-0.000374369 -0.000678727 -2.32957e-18)
(-7.50841e-06 -0.000311001 1.21646e-18)
(-1.08792e-06 -0.000309151 3.19074e-18)
(-6.12575e-05 -0.000285785 3.38841e-18)
(-5.67514e-05 -0.000293837 2.32172e-18)
(-1.24224e-07 -2.53122e-07 4.7687e-19)
(-1.45938e-07 -2.22121e-07 2.02973e-19)
(-9.96253e-08 -4.77511e-07 1.30749e-18)
(0.00339365 0.000155501 -2.00114e-18)
(0.0036883 0.000105208 2.90723e-18)
(0.00528766 0.00192321 1.16109e-17)
(0.00501883 0.00226021 7.34399e-19)
(0.00534405 0.00195682 3.9243e-17)
(-0.00701119 -0.000946701 -1.40253e-18)
(-0.00619283 -0.00125485 -4.61201e-18)
(-0.00443735 -0.000887839 -2.16298e-17)
(-3.09873e-05 -2.02009e-05 7.11163e-19)
(-3.26455e-05 -2.42535e-05 1.01471e-18)
(0.00576073 0.00140967 -8.91049e-18)
(0.00586146 0.00157919 -1.3286e-19)
(0.0059825 0.0014782 -3.00922e-17)
(-0.00185279 0.000442218 4.62335e-18)
(-0.00175921 0.00043265 -2.24596e-18)
(-0.00173999 0.000514142 1.14172e-17)
(0.00449024 -0.00268299 5.48611e-18)
(0.00470835 -0.00317536 7.04266e-18)
(0.0089075 -0.000655196 -5.0887e-18)
(0.00897302 -0.000750199 -3.19757e-18)
(-0.00103693 0.000806298 1.10896e-19)
(-0.000979008 0.000907597 -5.18359e-18)
(7.91655e-07 2.80658e-05 6.35303e-19)
(-5.52075e-06 -2.20426e-06 1.22148e-19)
(-5.26215e-06 -2.93913e-06 -1.22383e-19)
(-7.24371e-06 -3.1874e-06 -1.86546e-19)
(-0.000298537 0.000476568 1.06625e-18)
(-0.000286501 0.000444254 -1.79331e-17)
(-0.000262653 0.000473054 -6.70199e-18)
(-0.00205332 0.000977247 5.91096e-18)
(-0.00218407 0.000884272 -6.44385e-18)
(-0.00210999 0.000967512 4.98788e-19)
(0.000777983 0.00114695 7.55028e-18)
(0.000695939 0.00124827 3.38669e-18)
(0.000867712 0.00126694 -9.46547e-18)
(-0.000253243 -9.32708e-06 -6.71477e-19)
(-0.000256903 3.60865e-06 -3.86871e-19)
(0.000280001 0.00545605 -9.27134e-18)
(0.00070712 0.00534345 -1.06223e-17)
(-0.000383126 0.000232445 3.10597e-18)
(-0.00037027 0.000223347 1.0343e-17)
(-8.09483e-06 7.77415e-06 6.33073e-19)
(-9.2755e-06 9.12053e-06 -1.39908e-18)
(-6.86092e-06 1.01585e-05 4.72387e-19)
(0.0111151 -0.000275176 -9.1609e-18)
(0.0107956 -0.000348374 7.73138e-18)
(0.010712 -0.000689777 -5.77479e-17)
(1.02248e-05 5.90656e-07 2.96476e-19)
(1.02216e-05 9.37469e-07 -2.90288e-19)
(1.03113e-05 6.78184e-06 -2.41626e-19)
(0.00184057 0.00218304 7.17647e-19)
(0.00204466 0.00246968 -4.0754e-18)
(-0.000221596 0.000148168 3.2738e-18)
(-0.000222498 0.000148205 2.07017e-18)
(-1.80501e-07 -1.52103e-08 3.95372e-19)
(-1.47521e-07 2.80048e-07 5.81629e-20)
(-9.9942e-05 -0.00032311 9.28123e-19)
(-9.63324e-05 -0.000331878 -7.90942e-19)
(-9.26845e-05 -0.000321738 1.21505e-18)
(-4.39858e-05 -0.000477553 -1.31183e-18)
(-4.64909e-05 -0.000462121 2.98772e-19)
(-4.26253e-06 -0.000208633 -1.40064e-17)
(-5.2544e-06 -0.000214866 -5.44383e-17)
(-0.00444022 -0.0035799 8.26356e-18)
(-0.00489439 -0.00359767 3.1557e-18)
(-7.33376e-05 -0.000383804 1.32196e-18)
(-6.77529e-05 -0.000393729 9.87184e-19)
(-6.2066e-05 -0.000382038 -3.20709e-19)
(-0.000111499 0.000108033 4.6203e-18)
(-0.000116634 0.000106831 2.53875e-18)
(-0.000111862 0.000104508 1.06383e-18)
(-0.00606798 0.00213945 1.48851e-17)