/*--------------------------------*- C++ -*----------------------------------*\
| =========                 |                                                 |
| \\      /  F ield         | OpenFOAM: The Open Source CFD Toolbox           |
|  \\    /   O peration     | Version:  v2012                                 |
|   \\  /    A nd           | Website:  www.openfoam.com                      |
|    \\/     M anipulation  |                                                 |
\*---------------------------------------------------------------------------*/
FoamFile
{
    version     2.0;
    format      ascii;
    class       volVectorField;
    location    "150";
    object      ddt0(U);
}
// * * * * * * * * * * * * * * * * * * * * * * * * * * * * * * * * * * * * * //

dimensions      [0 1 -2 0 0 0 0];


internalField   nonuniform List<vector> 
13917
(
(0.00132237 -0.00688134 -1.27328e-17)
(-0.0002111 0.021712 -4.85064e-19)
(-0.00907622 -0.0203413 -1.51904e-18)
(-0.000365004 -8.71149e-05 7.78674e-18)
(0.00807311 0.00600428 1.56958e-20)
(-0.0033023 0.0203046 -6.71964e-19)
(-0.000424598 0.000586037 -7.55188e-20)
(0.0449097 0.0341614 -1.41338e-18)
(-0.0001572 0.000347838 4.08456e-18)
(-0.0154998 0.0489232 9.28424e-19)
(0.0395345 0.031611 1.07765e-18)
(-0.000255319 -0.000169816 -9.81711e-19)
(-0.000665076 -2.95955e-06 -1.24955e-18)
(0.129051 0.0367046 -5.71994e-19)
(-0.00681554 0.00184547 -1.02261e-18)
(0.000846531 -0.00445603 1.15123e-17)
(-3.89427e-05 2.7248e-06 8.91613e-21)
(0.0361003 0.0206987 -6.87445e-19)
(0.00649508 -0.0130062 3.79713e-18)
(-0.0380617 -0.00990875 1.59187e-17)
(0.00497843 -0.00656442 -3.21536e-19)
(6.41142e-05 -0.000145155 -1.01097e-19)
(0.00218269 0.000823747 5.01253e-18)
(7.60392e-05 -8.47108e-05 -5.04447e-20)
(-0.000454645 -0.00051534 -1.44933e-18)
(0.00887339 -0.00610008 1.93013e-19)
(-0.160935 0.0315672 -1.77863e-18)
(-0.00740453 0.0316174 6.2828e-19)
(0.0229995 0.00123665 -2.90993e-19)
(4.73706e-05 0.000164207 -3.07629e-20)
(-0.0206646 0.0330056 5.22917e-18)
(-0.000338321 -0.00295898 9.42308e-19)
(-0.000314848 -0.000298516 1.21061e-18)
(0.0110147 -0.0100131 -2.55427e-18)
(-0.000234083 0.000105428 -5.78013e-20)
(0.0479981 0.0422028 -4.77628e-19)
(0.000956146 0.000300942 1.54554e-19)
(-0.000359905 8.12176e-07 2.83016e-20)
(-0.00037863 0.000611217 6.87208e-18)
(-0.00679451 -0.00714291 -2.00356e-19)
(-2.29469e-05 -2.0525e-07 -2.19311e-19)
(-0.000295461 -0.000776685 1.23857e-19)
(-0.000213113 0.000295465 -9.34381e-19)
(-0.000355054 -0.0105573 -9.13044e-18)
(0.000612598 -0.0104297 -8.50945e-18)
(0.0528386 0.0491501 2.75578e-19)
(0.00409954 -0.00556078 -1.3634e-19)
(-0.0853992 -0.23539 -1.96839e-17)
(0.0582846 0.184831 -2.01094e-19)
(-0.000190818 0.000190377 -1.14072e-19)
(-0.000268812 -0.00015679 2.75166e-18)
(0.02646 0.0194879 1.03668e-18)
(0.0231318 -0.000201528 7.08346e-18)
(-0.00026703 0.000114586 4.43106e-19)
(-0.000224948 0.000138234 -1.44306e-19)
(0.0262263 0.0148343 -4.50093e-18)
(-0.00636902 0.0178573 -1.00248e-17)
(0.00220187 0.00105518 -6.01875e-19)
(-0.000101445 -0.000723695 2.44838e-19)
(0.0505977 0.0557297 8.0406e-20)
(0.123743 -0.0346233 -1.79985e-17)
(-0.0111752 0.00142654 -2.68916e-19)
(3.63622e-05 4.99212e-06 -1.77887e-21)
(-0.00041811 -0.000483073 7.0225e-19)
(-0.00511758 -0.0409932 -3.28183e-18)
(-0.00610957 0.0104955 1.69879e-19)
(0.0273495 0.00604352 -9.23358e-19)
(0.0440554 0.0480211 3.55068e-18)
(0.0409901 0.0228419 1.9683e-18)
(0.0188095 -0.00233619 1.33705e-17)
(-0.00490987 -0.0370719 8.47795e-19)
(0.011729 -0.00887934 3.18565e-18)
(-0.000321205 8.70461e-05 -9.93245e-19)
(-9.25304e-05 -0.000541865 -2.16201e-19)
(0.00451564 -0.00781335 2.77486e-20)
(-0.000166564 -0.000795547 1.32258e-18)
(0.0031632 0.000380947 -2.09307e-20)
(2.57244e-05 -0.000491776 -2.83602e-19)
(-0.000158404 -0.000720936 5.80445e-20)
(-0.000321314 -0.000305831 1.07466e-18)
(-0.000607875 -8.28827e-05 8.47781e-20)
(-6.63025e-05 -1.45626e-06 2.2888e-19)
(-0.000330305 8.91454e-05 2.76761e-18)
(0.00158835 -0.0187017 -2.04324e-18)
(-0.000468885 -6.8908e-06 1.13255e-18)
(0.0746366 -0.0121686 2.17346e-19)
(-9.54665e-05 -0.00264427 2.62724e-18)
(-0.000504145 -6.88132e-06 1.37558e-19)
(-0.00565354 -0.00743662 2.04297e-19)
(-3.36735e-05 4.01412e-06 -7.61907e-20)
(-1.87421e-05 4.94746e-06 -1.68965e-19)
(-0.000192095 0.000302864 -5.64305e-18)
(0.0122032 0.236636 1.0891e-18)
(-7.63955e-05 -0.000231885 2.82992e-20)
(-0.000197512 0.000328598 -1.70692e-19)
(0.0267523 0.00142051 -8.65648e-19)
(-0.224099 -0.190258 -9.20407e-19)
(-0.00014484 -2.34407e-06 -4.29178e-19)
(-0.00048868 -5.45375e-06 1.50653e-19)
(-0.0649283 -0.0747808 2.33853e-18)
(1.37633e-05 3.07807e-06 -1.30837e-21)
(1.95338e-05 4.17765e-06 -4.59122e-20)
(-0.000628397 6.10135e-06 -2.92145e-19)
(-0.000144199 -7.53628e-06 -1.78101e-19)
(0.00287296 0.000878838 8.44213e-19)
(0.0195148 -0.00525085 4.51149e-18)
(-0.0226948 -0.0761788 1.4095e-17)
(-0.0122976 -0.00220908 -6.91162e-19)
(-0.000384472 -0.00105699 7.02261e-20)
(-0.141408 0.0580432 3.29491e-18)
(-0.000606976 9.90727e-06 2.75022e-19)
(0.00929016 -0.0119909 3.42015e-18)
(0.0219582 -0.00263746 -1.04175e-18)
(-0.0542058 -0.234075 -2.73901e-17)
(-0.00564051 -0.0400228 3.48606e-18)
(8.09243e-05 -0.000963197 4.85154e-19)
(0.00613437 -0.011621 -6.30521e-18)
(1.75639e-05 7.56977e-06 2.23933e-19)
(-0.00504364 -0.0196816 -1.38442e-17)
(-0.000311991 0.000102662 -3.63314e-18)
(-5.86338e-05 -2.19081e-06 1.05613e-20)
(-4.22613e-05 -0.000267424 8.77658e-20)
(0.0313423 0.00690091 -2.19766e-19)
(0.0150497 -0.00250682 2.24083e-18)
(0.0245228 -0.000353719 -1.29799e-18)
(0.000871648 -0.018257 2.98748e-18)
(-0.000413605 -0.000408944 1.27541e-18)
(0.00527373 -0.00914375 -4.88588e-20)
(-4.55598e-05 -0.000149896 5.3046e-19)
(0.0146523 -0.003787 1.1488e-18)
(9.66763e-05 0.000357464 -7.958e-18)
(-0.0339857 0.0842465 1.16497e-17)
(0.0148071 0.000785134 -4.99132e-18)
(0.00019196 -0.000917626 1.11265e-18)
(-0.000804737 -0.00473931 2.43066e-18)
(-0.153799 0.0260456 -1.93925e-18)
(0.135107 -0.0121063 1.448e-19)
(0.021003 0.00132782 -4.28786e-18)
(0.0118893 -0.00578889 8.61498e-20)
(-0.000363176 -1.01869e-06 -2.63906e-20)
(0.0723991 0.0362441 3.46581e-19)
(1.96207e-05 -0.000384152 3.07256e-19)
(0.0181906 -0.00497662 -6.57506e-18)
(-0.000205712 -4.25642e-05 -1.71395e-20)
(-0.000346177 4.74826e-05 4.12739e-18)
(0.000809441 -0.00380431 -6.08959e-19)
(-0.00467781 -0.0349105 -1.67316e-17)
(0.0127341 -0.269034 4.73207e-18)
(-0.0890808 -0.182543 2.93199e-18)
(-0.000248829 0.000131851 -4.46504e-19)
(-0.00387403 -0.00641139 5.96837e-20)
(2.33978e-05 1.49453e-06 -5.81707e-20)
(-0.000354408 5.56278e-05 5.13288e-19)
(-0.000317807 9.86021e-05 -3.88643e-19)
(-0.235387 -0.181214 -7.13492e-19)
(8.47108e-07 0.000847612 -7.86241e-19)
(-0.000138022 -7.13266e-06 1.53278e-19)
(0.0156844 0.0024035 -6.4577e-18)
(-5.50756e-06 2.77254e-06 -2.77824e-19)
(1.86871e-05 4.70836e-06 -9.36939e-20)
(-0.000337993 -8.596e-05 2.98618e-19)
(0.0165232 -0.0764681 -1.65604e-18)
(0.00182145 0.00243987 -3.73993e-19)
(0.0642035 0.0659305 -3.07996e-18)
(0.0975398 -0.077832 -3.80101e-17)
(-0.106415 -0.108511 -2.3022e-19)
(0.0149999 -0.000249489 1.36398e-18)
(0.110482 -0.0843609 1.60911e-17)
(3.85119e-05 4.04528e-05 8.45146e-21)
(0.0138878 -0.00673179 3.44594e-19)
(0.000163439 -4.38518e-06 -4.80828e-19)
(0.0107557 -0.00226278 -5.77355e-18)
(-0.000151225 0.000324498 1.24582e-18)
(0.115144 -0.0199093 -7.1349e-18)
(0.00110481 0.0178399 -1.30446e-19)
(2.11302e-05 -1.49694e-07 -1.11218e-19)
(-0.000372883 -5.62186e-05 -2.77415e-18)
(0.0311616 0.0242269 -7.58051e-19)
(7.47338e-05 0.000384201 -9.20653e-19)
(0.00224576 0.00282459 8.18627e-20)
(-0.000238683 0.000312561 3.07839e-18)
(0.000100056 -7.77702e-06 -1.14913e-19)
(-0.000260919 -0.000139483 -1.15674e-20)
(0.0470085 -0.00270807 -3.00413e-18)
(-0.00432726 -0.0214156 7.69724e-18)
(-0.0458547 0.088127 -2.06545e-17)
(-0.000249235 -0.000122934 3.99314e-19)
(0.0489682 0.00118143 -1.57609e-18)
(5.92102e-05 0.000170152 3.96345e-21)
(0.0670093 -0.0102464 -6.13404e-20)
(-0.000714796 0.0189966 6.15398e-20)
(0.000865561 -0.00927482 3.53892e-19)
(0.033002 -0.00325751 2.67078e-18)
(-0.00456891 -0.0086544 1.38822e-17)
(-0.000102743 -0.000201642 9.07933e-19)
(0.0242069 -0.000590942 -4.65855e-18)
(-0.00125151 -0.000601491 1.93455e-18)
(0.015801 7.17471e-05 -4.44635e-19)
(-0.00021402 2.62086e-05 3.66426e-19)
(1.27753e-05 0.000646916 -1.90675e-19)
(0.0028194 -0.00410984 5.28649e-20)
(0.0166929 -0.0028032 -6.27789e-19)
(0.0218011 0.0008873 -7.53776e-19)
(0.000431473 0.000914263 -2.23989e-20)
(-0.0993801 0.0943042 -4.27067e-18)
(0.0109237 0.00631401 -4.312e-19)
(-0.00478337 -0.00630785 -1.22578e-19)
(-6.55245e-05 -0.000337998 -7.39139e-19)
(0.0313408 0.0211213 -3.29345e-18)
(-0.0006368 -0.000189952 2.77773e-19)
(-0.000101944 -2.02387e-06 -4.56382e-19)
(0.012711 0.014014 -1.31131e-18)
(0.0160774 0.0150373 4.10048e-19)
(-0.0857122 -0.206578 -6.15305e-18)
(-0.000753804 -0.00429394 -9.41165e-18)
(0.0102032 -0.00721876 -1.60381e-19)
(-0.00387021 -0.0589376 -6.30237e-18)
(-0.000406932 -8.67804e-07 1.52609e-20)
(3.93134e-05 5.25507e-05 1.64779e-19)
(3.65291e-05 3.6873e-05 3.61311e-19)
(0.0948698 -0.111416 -5.0821e-17)
(0.039832 -0.00213382 -7.1021e-18)
(0.0602436 0.00531801 -7.73343e-19)
(-0.000544386 -1.49947e-05 -3.4048e-19)
(3.45131e-05 2.54316e-06 1.83532e-20)
(-0.125987 0.0458548 -1.83394e-18)
(0.0240097 -0.000476054 2.54845e-18)
(1.59897e-05 4.81225e-05 -1.49644e-19)
(1.63546e-05 4.2722e-05 -6.58341e-19)
(-2.65955e-05 -1.04724e-06 -1.02271e-19)
(3.78748e-05 3.30093e-05 -9.76209e-19)
(3.60744e-05 1.35626e-05 1.07283e-19)
(0.0112522 -0.00843862 2.17146e-18)
(-0.034993 -0.179124 -4.04213e-17)
(-0.000270683 -0.000452478 -8.66011e-19)
(5.02715e-05 7.54763e-05 -4.06661e-20)
(0.0106346 0.00963369 -4.1122e-18)
(0.0171854 -0.00484899 -1.20402e-17)
(-4.59196e-06 9.81852e-07 -1.7121e-19)
(-0.000564023 -1.85792e-05 6.01266e-19)
(-0.112212 0.0929645 5.93226e-18)
(0.020107 -0.00270118 -5.61872e-18)
(0.0429586 -0.00300733 6.18823e-18)
(-0.00495645 -0.0559452 7.40329e-18)
(0.00643815 0.0320519 1.43556e-20)
(-0.000213687 -6.03059e-05 9.40771e-20)
(0.121481 -0.0791424 -3.58895e-17)
(0.0120484 0.00891768 -1.68653e-18)
(0.0189969 -0.00225132 1.99149e-18)
(0.00520999 -0.0043621 -2.7063e-18)
(0.000333465 0.0007695 -3.346e-20)
(-0.0810928 -0.195107 4.31077e-17)
(-0.000315 0.000109614 1.06742e-19)
(-0.00700824 0.00294968 -3.07544e-19)
(-9.19734e-05 0.0145595 -7.33915e-19)
(-0.000224494 -0.000546235 2.42333e-19)
(-3.92669e-05 -6.43168e-07 3.12629e-19)
(-0.000437695 -0.000434804 8.86394e-20)
(-0.000385738 0.0074357 1.86222e-18)
(-1.31718e-06 -0.000525444 -7.35949e-19)
(0.0227753 -0.000496127 -3.97577e-19)
(0.126901 0.0639462 -4.97154e-19)
(-0.000106915 5.32618e-05 1.53708e-19)
(1.58763e-05 4.95263e-05 -1.17903e-19)
(0.000169733 0.000969259 4.74539e-19)
(1.66485e-05 5.80232e-05 -3.6839e-19)
(-0.000309816 0.000106403 3.24911e-18)
(-0.000667231 -3.43784e-06 1.86532e-18)
(-0.000364358 0.0027352 -2.42274e-18)
(-0.000157654 7.00357e-05 1.59201e-19)
(0.0175068 0.00235558 3.13044e-18)
(-0.0132249 -0.0804481 -1.34635e-17)
(-0.000272575 -8.72161e-06 -1.21062e-18)
(0.0011948 0.0041323 2.98366e-19)
(0.059115 0.0723281 9.15646e-19)
(9.09745e-05 2.94005e-05 2.74491e-20)
(-0.0419549 -0.0578363 3.35043e-18)
(0.0214997 -0.000446456 -1.41349e-18)
(8.81625e-05 6.35203e-06 -5.45086e-19)
(0.0186976 -0.00318788 1.7439e-17)
(6.00434e-05 -0.000440934 7.20553e-20)
(0.0213794 -0.0739922 4.23692e-18)
(1.42736e-05 -3.29137e-07 9.67983e-20)
(-0.00476692 1.64528e-05 5.69352e-19)
(-0.000216909 -0.000603637 -1.4655e-19)
(-0.00020608 2.67806e-05 -8.16842e-20)
(0.0181013 -0.019454 5.62319e-18)
(-0.000278683 -5.78474e-06 9.32046e-20)
(-0.149155 -0.114108 -9.127e-19)
(-0.00219679 -0.00139752 -3.47888e-18)
(0.118681 0.0837226 -1.06126e-18)
(0.000459756 -0.00465456 5.67989e-19)
(-0.0905671 0.0640848 4.85186e-18)
(0.0189453 0.00160696 -2.17822e-18)
(1.06003e-05 7.85266e-07 -1.86583e-19)
(0.00390016 0.00315813 -5.74204e-18)
(0.0028454 0.00755713 9.0177e-19)
(0.000396585 -0.00102813 7.51315e-19)
(0.00623394 0.00630173 3.95356e-19)
(-0.000238404 -0.000693562 -1.81401e-18)
(-4.30065e-05 -0.000300761 1.08643e-19)
(-0.000269606 -4.08943e-06 2.09443e-19)
(0.0269479 0.0309688 -5.99577e-19)
(0.0266483 -0.0195463 -1.12369e-19)
(-0.00668788 0.00251061 1.43978e-18)
(-0.000238783 -0.000641358 -3.8508e-18)
(-0.000554975 -2.44896e-05 1.00319e-18)
(0.015819 0.00177185 5.0311e-18)
(0.0148303 -0.00241534 4.03719e-18)
(-2.49404e-05 -9.59356e-06 1.15816e-19)
(0.00325603 0.0019477 3.82526e-19)
(0.00026513 -0.00109161 -9.96889e-19)
(0.0451796 0.0561562 -5.63863e-19)
(-0.00775123 -0.00569059 -2.02692e-17)
(-0.0150727 -0.0591957 1.15752e-17)
(0.107262 -0.018478 1.18062e-17)
(-0.0105854 0.00493972 2.84146e-20)
(-0.0316535 0.0718824 4.66821e-18)
(0.000386411 0.00373381 3.81465e-19)
(0.000249316 -0.0209729 -1.34965e-18)
(0.0549107 0.0556401 6.14438e-20)
(-0.00901677 -0.018754 1.24587e-17)
(-0.000688891 -1.8865e-06 -1.04935e-19)
(-0.00644743 0.000817571 -7.92298e-20)
(-0.146008 0.0476602 -4.8362e-18)
(0.000344659 0.000253682 1.07339e-18)
(0.000935084 0.0244863 -1.31157e-18)
(0.00175085 -0.00902658 -7.69459e-18)
(-4.12527e-05 2.02937e-07 6.45266e-19)
(0.0101163 -0.00294431 -1.16295e-17)
(-0.000519858 -4.31483e-06 -2.19023e-18)
(-0.000289594 0.000134329 1.23002e-19)
(6.39284e-06 6.67994e-05 -9.55932e-20)
(-0.0477692 -0.00318938 4.23062e-18)
(-0.000202844 -4.07972e-05 3.4618e-19)
(-0.0053872 0.00218457 9.55216e-19)
(0.0121987 0.00534782 4.67586e-19)
(-0.0105354 0.00180334 -2.23436e-20)
(-2.63368e-05 3.36695e-06 -3.25422e-19)
(0.00384664 -0.00479132 1.54653e-17)
(0.0125284 -0.00924878 -8.16325e-18)
(-0.000158866 0.000269741 9.36834e-20)
(0.000298871 0.000368497 2.26848e-19)
(0.00850325 -0.0135549 -4.39283e-18)
(0.0149641 -0.00772178 -3.27103e-18)
(0.0519845 -0.0352231 1.60643e-17)
(0.139412 0.0609816 -1.0024e-18)
(7.33215e-05 -2.49058e-06 -1.89497e-19)
(-0.000378914 -0.000327741 1.74945e-19)
(0.0219352 0.000135215 -2.19482e-18)
(-0.0227738 0.0701484 1.45164e-18)
(7.0116e-05 -2.38797e-05 -4.84751e-19)
(0.0047375 0.00816757 -8.27798e-19)
(-0.000207593 2.76141e-05 -8.41898e-19)
(0.0081045 -0.0253579 7.05177e-20)
(-0.00572573 0.00263123 -9.30656e-19)
(0.0242911 -8.52395e-05 4.39587e-18)
(-0.0170978 0.0355974 6.32799e-19)
(-0.0338125 -0.0606699 1.37188e-19)
(-0.000142221 -2.33248e-06 -1.54149e-18)
(0.00167581 -0.0139984 6.30625e-18)
(-6.15338e-05 -0.000184447 -7.20734e-19)
(-0.000129877 0.000250934 -8.55353e-20)
(0.00992621 0.00693292 4.75278e-19)
(0.00980703 -0.0268641 -6.97835e-18)
(-1.81927e-05 -5.41955e-07 2.76623e-19)
(-0.00398998 -0.00628444 -1.0318e-17)
(-0.000136893 3.70172e-05 3.79023e-19)
(-0.0136247 -0.0953612 2.02833e-18)
(-0.000243958 0.000151339 5.60859e-19)
(-0.0195357 0.0557518 1.06451e-18)
(0.00358862 0.000873944 3.47034e-19)
(-0.0537641 0.232082 -3.14785e-19)
(0.000556947 -0.000752633 2.0303e-19)
(0.0575079 0.000279583 -1.13127e-18)
(0.0605458 0.0625413 -7.47061e-19)
(0.0147235 0.00573309 -1.45876e-18)
(-0.000275268 -6.55164e-06 3.24566e-19)
(0.00311495 -0.0496017 -1.94337e-17)
(-6.64514e-05 -5.78891e-05 -3.90517e-20)
(0.104565 -0.0699635 2.9577e-17)
(0.0362131 -0.00481601 1.4655e-17)
(0.000771452 -0.000594668 -5.6376e-19)
(-0.00906002 0.220723 -1.63604e-18)
(-3.66563e-05 -0.000895412 6.22694e-19)
(-0.00508922 -0.0428669 7.95845e-21)
(-1.27353e-05 -4.09348e-05 1.13646e-19)
(-0.0394032 -0.0189896 -1.80217e-17)
(0.00181662 -0.0507844 1.305e-19)
(0.000556565 -0.000138812 8.51228e-19)
(-0.0853437 0.102017 4.01983e-18)
(-0.0201596 -0.0500124 -1.93382e-19)
(0.000120492 0.000660794 4.76644e-20)
(0.0618801 -0.06412 -1.00917e-17)
(-0.0161399 0.00341776 8.5017e-18)
(0.000297266 -0.00019845 -1.30444e-19)
(0.0206238 -0.0200194 -8.17648e-18)
(-0.000382486 -0.000197399 5.1337e-20)
(-0.0139283 -0.0574323 2.43142e-19)
(-0.00764403 -0.0205799 1.39021e-17)
(-0.000495241 -2.11169e-06 1.55042e-18)
(-0.000229467 0.000496988 6.65981e-19)
(-0.000297987 -0.000615291 1.83917e-18)
(-0.000212057 2.70461e-06 -1.41678e-19)
(-0.000290101 5.27978e-06 1.96384e-20)
(-8.82214e-05 -0.000241562 2.63916e-19)
(0.138683 -0.0163936 -1.39029e-18)
(-0.103088 -0.0788269 -9.73921e-19)
(-0.000159152 0.000193463 -2.7674e-19)
(-3.05601e-05 -0.000249679 2.29662e-19)
(-3.62937e-05 -4.83582e-05 -3.60276e-19)
(0.00228461 0.00574376 -1.67144e-18)
(0.0307449 0.0770609 -2.32704e-18)
(7.99856e-05 0.000131156 5.54659e-19)
(3.57986e-05 3.80837e-05 -2.35845e-20)
(-0.00707883 -0.00599403 1.45286e-17)
(-0.0259731 0.0515419 -1.86564e-18)
(-0.000207612 2.12377e-05 -5.35513e-20)
(0.000459902 -0.000123955 1.38316e-19)
(0.0904248 0.00462206 -9.81716e-18)
(-0.237508 -0.293187 -7.86533e-18)
(-0.00861441 0.0149272 -4.65804e-20)
(0.00541482 -0.0140799 -2.08582e-18)
(-0.00114791 -0.0217196 1.02495e-18)
(-2.84002e-05 1.98197e-05 -5.19223e-20)
(8.30032e-05 0.000117928 -2.76805e-19)
(0.00537996 -0.00302145 -1.8677e-19)
(-0.000314865 8.99831e-07 -5.5412e-21)
(8.95683e-05 0.000133643 4.04377e-19)
(-0.000292841 -0.000508294 -4.19889e-19)
(8.99854e-05 0.000111064 -7.55003e-19)
(-1.48313e-05 -4.41782e-06 6.9313e-19)
(0.108299 -0.111639 -3.55971e-20)
(-0.00039534 -0.000156562 -1.1634e-20)
(-0.00919351 -0.00539761 6.91611e-20)
(0.0173937 0.00260401 -8.49478e-19)
(0.00357499 0.00355778 7.49144e-18)
(-0.000109474 -1.8434e-05 5.24003e-19)
(-0.000354936 4.15804e-05 4.30183e-19)
(0.0543426 -0.0684359 1.8392e-17)
(0.00362532 -0.00390317 -1.14705e-20)
(0.0246189 -0.000245476 1.46647e-19)
(3.46736e-05 0.000113271 -5.061e-19)
(-0.00043017 -6.67057e-05 -5.69325e-19)
(-0.000124116 -1.18406e-05 2.4945e-19)
(3.2493e-05 3.76476e-06 6.45617e-19)
(0.000816204 0.000413775 -1.84618e-19)
(0.000224313 -0.00100821 -4.93579e-19)
(0.0940521 0.0182418 8.70442e-18)
(0.00525995 0.00161352 1.55145e-20)
(0.0219501 -0.00334925 1.97211e-18)
(-0.000406887 -6.29288e-05 2.0052e-18)
(0.000474278 0.000540651 -5.98154e-18)
(0.00670851 -0.00116818 -2.86117e-19)
(-0.000579641 -0.000259019 -1.73293e-19)
(0.008536 0.0287026 -5.32784e-19)
(0.0570858 -0.0296659 -1.31684e-17)
(-0.000218302 1.82857e-05 7.50603e-19)
(-0.173489 -0.212832 -3.14997e-18)
(-0.000113479 -6.03494e-05 8.02307e-20)
(-0.000360491 -4.95169e-06 2.32001e-20)
(-4.00907e-05 -8.701e-06 5.84401e-21)
(-0.000179423 -0.000913309 6.82079e-19)
(-0.000114558 2.01865e-05 -7.3824e-19)
(-0.000482046 -1.02388e-05 -4.43867e-21)
(0.0149813 0.00156526 1.07422e-17)
(0.117386 -0.0320013 1.19927e-17)
(-0.000114758 2.62446e-05 1.01289e-18)
(-0.0660599 0.087454 -1.16928e-17)
(-0.00628574 -0.00722293 2.90102e-18)
(-0.000670229 -2.75105e-06 7.74007e-20)
(0.00516288 0.00427171 -3.16401e-19)
(-0.00268788 0.000105202 -4.4754e-18)
(0.065089 -0.0824179 -4.73549e-18)
(-0.00015614 0.000515441 2.89125e-18)
(0.0189145 -0.00629811 5.65841e-18)
(-0.027947 -0.0747127 -1.02513e-18)
(-0.0337697 -0.0579679 1.43126e-18)
(5.41949e-05 -0.00107596 4.09204e-19)
(-0.00716783 0.00743412 -3.73215e-20)
(0.00872301 -0.00233499 3.20138e-20)
(0.000188278 0.000767817 -3.28172e-20)
(0.0409349 -0.0280348 2.27016e-18)
(-1.70442e-05 6.88867e-06 1.69977e-19)
(-0.000266688 0.000103903 -3.07495e-19)
(-0.000154087 0.000313154 3.19014e-19)
(-0.000196139 0.000432271 -2.67201e-18)
(0.00137705 -0.00688592 4.16455e-20)
(-0.000834162 -0.0204077 2.49745e-17)
(0.00254184 -0.000873998 -2.57752e-18)
(-0.00261545 -0.00198028 -2.80102e-20)
(0.00143322 0.00525733 -1.02914e-18)
(0.0365401 0.0137544 2.3079e-18)
(-0.0189851 -0.00304462 -9.60241e-19)
(-0.000177345 0.000192991 2.37874e-20)
(0.104418 0.0150183 1.88075e-18)
(0.000420761 0.00197093 -2.54688e-18)
(-0.00218055 -0.001129 2.02435e-18)
(0.102822 -0.0568731 -1.32589e-17)
(-0.000528983 -1.78823e-06 -8.55116e-19)
(-0.0213771 -0.00253884 -1.666e-18)
(0.0352357 0.0255812 2.5514e-18)
(-0.000273796 -4.42966e-05 8.18799e-20)
(0.01511 0.00402356 3.01401e-18)
(-0.000365772 -1.7717e-06 8.13559e-21)
(3.26398e-05 -1.82339e-05 6.4615e-19)
(0.00302051 0.00551793 3.79056e-18)
(4.8436e-05 0.000143751 5.31e-19)
(-0.000406161 3.96639e-07 1.66721e-19)
(0.0220876 0.0339496 -5.10143e-19)
(0.0173277 0.00591399 -4.40518e-18)
(-0.0553711 0.0943962 -9.22159e-19)
(-0.00036544 -7.63011e-05 2.79761e-19)
(-0.000358179 0.000127993 8.32562e-19)
(-0.00243852 0.00079449 5.6136e-19)
(0.0625874 -0.00312663 2.99181e-19)
(0.0639337 0.119996 -7.0167e-18)
(-0.0002276 0.000164529 -3.46635e-19)
(-0.000232723 0.000130397 1.83668e-19)
(-0.000376083 -7.19028e-05 1.28572e-18)
(0.00036306 0.011585 -3.37879e-20)
(-0.00341929 0.191901 3.07135e-18)
(1.84211e-05 -7.06192e-05 1.1114e-19)
(-2.0467e-06 -8.19862e-07 -5.3262e-20)
(-9.36084e-05 0.000556466 9.33059e-19)
(-0.000229926 1.12536e-06 1.38131e-19)
(0.0061055 -0.00190868 5.17355e-19)
(-0.00154991 0.000539394 8.42566e-19)
(-1.77296e-05 3.58764e-06 5.68134e-20)
(0.00291517 -0.000785363 4.18937e-18)
(-0.000283602 -4.43766e-05 -7.77711e-20)
(-5.33385e-05 -0.000155074 -2.65479e-19)
(-0.000293768 -0.000573428 -2.33772e-18)
(-0.0118117 -0.0388367 6.6253e-18)
(-3.87205e-05 -2.26551e-05 2.28409e-19)
(-0.000363662 0.000283449 -4.39429e-19)
(-0.000104799 -0.000502896 -6.00131e-19)
(0.000397238 0.000572587 -1.96437e-18)
(0.00832812 0.00311782 -7.2797e-21)
(0.0232175 -0.0209927 1.26261e-18)
(0.00120847 0.0158021 7.34115e-19)
(-0.0852258 -0.0706151 -2.31908e-18)
(-0.000156074 -0.000489518 -1.92785e-18)
(0.0315584 0.0125629 -1.0919e-18)
(0.0155884 -0.000899755 -7.96927e-18)
(0.0938205 -0.131565 1.59762e-17)
(0.0161395 0.00330349 -4.72342e-18)
(-3.3874e-05 6.69946e-05 5.30371e-19)
(-6.22002e-05 6.19549e-05 -8.66675e-20)
(-0.00324467 -0.00261969 6.35782e-19)
(-0.000332086 -7.56317e-05 -7.27611e-19)
(-0.004705 -0.0346994 -2.49103e-18)
(9.25785e-05 4.20676e-05 3.88081e-20)
(0.0656312 0.117915 1.46067e-18)
(-0.00122324 -0.000473253 6.83684e-19)
(0.00912381 -0.00630101 1.70912e-17)
(-0.055062 -0.0638483 -3.11766e-18)
(-0.000229728 0.00031269 -1.36803e-18)
(-0.0452714 -0.0128174 1.39953e-17)
(-0.000115744 3.11012e-05 -1.78408e-19)
(-0.00172945 -0.000559292 8.96485e-20)
(-0.000126617 -1.25375e-07 6.27199e-19)
(0.00149499 -0.000318889 6.26452e-19)
(0.00863351 -0.00559514 6.82371e-20)
(6.16664e-05 0.000132544 -7.2463e-20)
(-0.0130408 -0.0111864 2.47054e-17)
(3.18126e-05 -2.18575e-07 -1.46832e-19)
(-0.000664685 -4.90831e-06 8.31523e-19)
(-3.86453e-05 3.98595e-05 2.28965e-19)
(-0.000808189 -0.0192043 -1.49313e-17)
(0.00701897 -0.000881818 -2.68774e-19)
(9.5239e-06 4.85724e-05 8.63075e-19)
(-0.00192985 -0.009647 3.25998e-18)
(0.00447647 0.00480028 1.3178e-18)
(-0.0153789 -0.0783134 -1.97774e-18)
(-0.00428114 -0.0343325 1.32825e-17)
(0.0176973 0.0023101 8.1454e-18)
(0.0761672 -0.0829376 6.77338e-18)
(-4.63342e-05 -2.25013e-05 -2.66844e-19)
(0.0227364 -0.00123356 -2.20551e-18)
(4.38569e-05 -1.31246e-06 -8.21056e-20)
(0.129118 -0.0188583 1.36352e-18)
(0.0132369 -0.256633 2.89324e-18)
(0.00211568 -0.000307351 1.36726e-19)
(0.00446438 -0.00109768 1.52351e-19)
(1.70529e-05 3.22945e-06 2.3923e-20)
(0.000212632 0.00190925 -8.58055e-19)
(-0.000244127 0.000304037 -5.69419e-18)
(7.22613e-05 0.000146526 -5.29489e-19)
(-0.000148805 -2.86038e-06 3.13684e-19)
(-0.000625246 -3.60308e-06 6.97624e-20)
(-0.00379044 -0.0346608 -7.72348e-18)
(-0.000354862 -5.2565e-05 2.51048e-19)
(-0.000219816 -0.00201721 -7.26349e-18)
(-0.00027222 8.64923e-05 9.52101e-19)
(6.43507e-06 4.68333e-05 -3.25326e-19)
(3.48925e-06 4.08286e-06 5.13928e-20)
(0.0457238 0.0440205 -2.81484e-19)
(0.0159077 -0.0610316 3.52716e-17)
(-0.0530987 -0.019949 -5.45923e-18)
(0.00494301 -0.00366119 -3.45774e-18)
(-0.00139673 0.000580677 4.23139e-18)
(0.0331538 -0.0439637 1.21674e-17)
(0.0176895 -0.00474863 1.91302e-18)
(-4.45082e-06 -4.19173e-05 -6.7179e-19)
(0.0430461 -0.0294634 4.3375e-18)
(-0.000621956 -1.56086e-06 -1.9404e-18)
(-0.00536301 0.00021065 1.00702e-17)
(-0.000322466 -5.87031e-05 -8.86044e-19)
(0.0034387 -0.047868 6.36676e-18)
(-0.000228796 1.11414e-05 -1.71873e-19)
(0.00598889 -0.00363566 -2.5814e-19)
(-0.000358099 5.89198e-05 -8.33798e-18)
(-0.0258092 -0.133313 6.84458e-18)
(0.00010132 0.00247253 2.75254e-18)
(-0.00533097 -0.0475322 3.25236e-18)
(-2.1028e-05 5.50192e-06 1.90466e-19)
(-0.000480917 0.00243572 1.02398e-18)
(5.63959e-05 0.000234991 -7.58503e-19)
(1.00115e-05 9.39929e-07 6.82801e-20)
(-0.000342171 -0.017165 -4.35861e-19)
(-0.0654728 -0.12872 -2.70968e-19)
(3.31888e-05 0.000399764 -2.32551e-19)
(0.0268927 -0.00119504 -5.30019e-18)
(-0.000561959 -2.64793e-05 -1.98296e-18)
(0.00100509 0.000551953 -2.45759e-19)
(1.87267e-05 -8.21144e-08 4.72072e-20)
(0.000467363 -0.0193832 -1.01455e-18)
(-0.000367141 -4.43269e-05 -3.25935e-19)
(0.00098866 0.00852942 -2.11876e-18)
(8.99041e-05 6.26308e-05 3.37098e-19)
(2.71259e-05 0.00032067 9.89314e-20)
(0.0120391 -0.0261373 -2.26492e-18)
(2.09543e-05 2.23967e-06 -4.68194e-20)
(0.0208594 -0.00578615 1.25048e-18)
(-9.39661e-05 -1.19193e-06 2.06568e-19)
(-0.000215117 -5.35602e-05 3.12108e-20)
(0.129294 -0.0327858 4.20681e-18)
(-0.00038924 -0.00218895 -7.87262e-18)
(-0.000251586 0.000146829 1.15362e-19)
(0.0203551 0.000705556 -1.80684e-17)
(-0.0130344 -0.0106195 -1.31808e-17)
(-0.00287612 0.0808696 2.29316e-19)
(0.0357349 0.0303163 2.66667e-18)
(-0.000118204 3.09586e-05 3.71226e-19)
(-0.00830943 0.00223684 1.41494e-18)
(-0.0152476 -0.0359396 -8.3615e-19)
(-0.0166958 -0.00401859 -6.43121e-18)
(0.00448669 -0.00258178 -2.96792e-22)
(0.000914125 0.000106063 2.59645e-19)
(0.00656371 -0.0045479 -7.81119e-19)
(-9.37611e-05 -7.34654e-07 -2.38747e-19)
(-0.000178205 -0.000204213 7.02415e-19)
(-0.0138513 0.00737618 4.51141e-19)
(0.0101347 0.00422262 -1.60512e-19)
(-0.000822745 -0.00097476 4.73073e-19)
(0.113789 -0.0552668 7.87463e-19)
(0.000413631 0.0024834 -6.19311e-18)
(0.048367 0.0893953 -1.90396e-18)
(0.0835497 0.112973 2.34525e-18)
(0.0207237 -0.0247861 2.78431e-20)
(-0.00353231 0.00248971 2.23309e-18)
(0.0302041 -0.00563175 -2.68142e-18)
(0.0176901 -0.00403252 -1.75581e-17)
(-8.22741e-05 -0.00028093 5.0019e-19)
(-0.00357118 -0.016081 -1.22864e-18)
(-0.0175475 0.00394052 -1.23467e-19)
(-0.000221939 -5.62365e-05 1.13896e-19)
(-4.81999e-05 -3.654e-06 -3.60847e-19)
(2.96139e-06 3.80878e-06 4.22935e-20)
(-0.00339306 0.000938779 -1.34952e-19)
(-0.000430832 -9.07214e-06 -3.9596e-19)
(0.0225985 -0.00142516 -6.00745e-18)
(-5.62224e-05 0.000248584 1.4665e-17)
(-0.00019546 -3.20724e-06 -1.00103e-19)
(0.00187328 -0.00803507 1.31609e-17)
(-1.54874e-05 5.21803e-06 3.12159e-19)
(-0.0100463 -0.0609511 9.49962e-18)
(0.000154072 -0.000403898 -5.74529e-19)
(-2.5489e-05 -0.000113303 5.24667e-19)
(0.0159295 0.00580435 5.49709e-19)
(0.00694919 0.00247377 4.02752e-18)
(-0.0265544 -0.0214588 -1.48493e-18)
(-0.000338995 3.43787e-05 2.31362e-18)
(0.000592448 -0.000390951 -1.4977e-19)
(-6.46004e-06 7.01419e-05 7.34952e-19)
(-0.000347176 9.0915e-05 -5.18033e-19)
(-0.000320502 0.00080661 7.15851e-18)
(-0.00021169 3.48071e-05 2.07365e-19)
(0.0239095 0.000461661 3.79224e-18)
(-0.0031735 -0.00146024 -7.02568e-20)
(0.0677555 0.0797744 6.63632e-19)
(-0.0306418 -0.0571369 -4.20047e-19)
(-0.00143264 -0.0162994 1.34128e-18)
(0.0184486 0.00265003 -2.91502e-18)
(-0.000370386 0.000107901 -4.02451e-18)
(-0.000159527 -3.38473e-06 -4.47791e-19)
(8.78588e-05 0.000285097 -8.05233e-20)
(0.0207115 -0.000727466 -1.37222e-19)
(-0.0609776 0.118753 1.26151e-20)
(-0.00138605 -0.000644192 1.47034e-18)
(0.0246038 -0.000168298 2.79039e-18)
(-0.0198066 0.294517 5.88097e-19)
(-0.000205813 -4.87345e-05 -2.89584e-19)
(-1.8143e-05 -3.88252e-05 -3.19981e-19)
(0.000834437 0.000635933 3.19131e-20)
(0.0160189 -0.00789807 1.06667e-17)
(-0.0537139 0.0266701 9.20218e-19)
(-5.42733e-05 0.00279364 2.1723e-18)
(-0.000340362 7.54937e-05 5.2035e-19)
(-0.00038659 0.000277813 -1.95483e-18)
(-0.00564457 0.000674752 -1.18986e-17)
(0.000455729 0.00292306 8.75713e-19)
(0.0223031 -0.0020705 3.1764e-18)
(-2.54425e-05 0.000231479 -9.74443e-18)
(-0.000241894 0.000291256 4.12125e-19)
(-0.000317109 -0.000314015 -1.50005e-18)
(-0.000166307 -2.86815e-06 -1.25002e-18)
(-0.000372032 0.000781072 -1.42672e-18)
(1.96833e-05 0.00577698 8.89852e-20)
(-0.0172693 0.00356044 -3.19819e-18)
(0.00069929 -0.0011082 3.61509e-19)
(0.00108517 0.00392739 -4.6582e-19)
(0.0243346 0.000297189 6.53678e-18)
(-0.000278987 0.000934215 -5.98684e-20)
(0.0185568 0.234197 -3.29048e-18)
(0.000737893 6.3282e-05 -1.23593e-19)
(7.43377e-05 0.0130001 -1.02589e-18)
(-0.00107317 -7.72908e-05 -7.66617e-19)
(-0.0158839 -0.00419147 1.3691e-17)
(-5.29159e-05 -6.87414e-08 -4.9298e-19)
(-0.00142011 -0.000322182 -1.19579e-17)
(0.0129026 -0.0598127 -3.10531e-17)
(-0.0145698 0.00999069 -3.17616e-20)
(-0.000330483 -0.000100493 -1.67362e-18)
(0.000525031 -0.00119748 -8.207e-19)
(-0.000430677 -7.38516e-06 4.82132e-19)
(-0.000378547 -3.53244e-05 -3.86041e-18)
(-0.000341534 8.79706e-05 3.91136e-18)
(0.00396037 -0.0150997 1.74085e-18)
(0.0068532 0.000776234 2.30645e-21)
(0.0402974 0.0445721 7.50884e-20)
(0.0225709 -0.00457734 -4.19622e-18)
(-0.000119832 1.98119e-05 -4.36499e-20)
(-0.018236 0.00204282 3.26851e-18)
(-0.000155654 0.000365999 -4.03065e-18)
(-0.000204495 0.000457228 -3.01045e-18)
(0.0272895 -0.00413109 4.51499e-18)
(-0.000412107 -0.000372326 1.77584e-19)
(-0.00164102 -0.000684883 2.22653e-17)
(-0.205057 -0.148505 -1.22359e-18)
(-3.01067e-06 1.44346e-05 -1.0851e-19)
(0.00658709 0.00190335 -2.75973e-18)
(-0.00182563 0.0265092 3.61802e-20)
(1.47666e-05 0.000256312 -2.11779e-18)
(-0.000145859 -0.000167369 8.19249e-20)
(-0.000121939 -6.59672e-06 1.82841e-20)
(-0.000164132 -0.000220802 2.64178e-19)
(0.0171747 -0.00196341 -6.18223e-18)
(-0.000293031 -0.000292813 -1.71279e-19)
(0.000358993 -0.0004085 -2.63089e-19)
(-0.000224726 0.00010835 -2.26727e-18)
(-0.000199431 4.08143e-05 -3.4647e-20)
(-7.87023e-05 -3.04275e-05 2.50588e-19)
(0.0245345 0.0141566 2.98756e-18)
(-0.167465 -0.151083 1.36298e-18)
(0.0174927 -0.0192842 2.77092e-19)
(-0.240081 -0.270077 9.18823e-18)
(0.00734983 -0.02202 1.1617e-18)
(0.0230799 0.00351172 -5.48466e-18)
(-0.000340798 9.85472e-05 1.03333e-18)
(0.00384886 0.000329617 6.81476e-20)
(0.0202311 -0.0450988 1.26617e-17)
(0.00220653 0.000343578 -6.66074e-19)
(-0.0230925 0.00125768 -5.73697e-19)
(-3.00048e-05 4.26017e-06 3.09106e-19)