/*--------------------------------*- C++ -*----------------------------------*\
| =========                 |                                                 |
| \\      /  F ield         | OpenFOAM: The Open Source CFD Toolbox           |
|  \\    /   O peration     | Version:  v2012                                 |
|   \\  /    A nd           | Website:  www.openfoam.com                      |
|    \\/     M anipulation  |                                                 |
\*---------------------------------------------------------------------------*/
FoamFile
{
    version     2.0;
    format      ascii;
    class       volScalarField;
    location    "1000";
    object      p;
}
// * * * * * * * * * * * * * * * * * * * * * * * * * * * * * * * * * * * * * //

dimensions      [0 2 -2 0 0 0 0];


internalField   nonuniform List<scalar> 
13851
(
-0.130498
-0.057852
-0.0565978
-0.409354
0.00324191
-0.0682611
-0.0453591
-0.00854729
-0.102038
0.0307584
-0.16029
0.0119136
0.0406366
-0.113716
-0.0899792
-0.0800479
-0.374596
-0.0237005
-0.208767
-0.131595
-0.103406
-0.0240044
-0.397285
0.00542923
-0.318838
-0.0767869
-0.0994961
-0.1878
-0.0803485
-0.0120857
-0.39419
-0.0455088
-0.121674
-0.136579
-0.122389
-0.0796263
0.00550007
-0.353559
-0.328537
0.0104816
-0.184179
-0.0814744
-0.396452
-0.193989
-0.086873
-0.00206771
-0.0146912
-0.0881357
-0.0306862
0.0412024
-0.281816
0.0487228
-0.0806154
-0.0622852
-0.0973398
0.0116187
-0.123254
-0.188821
-0.0898686
-0.153537
0.0119506
-0.100101
0.0269678
-0.0309856
0.0411544
0.0471574
-0.15475
0.275008
-0.00497203
-0.407738
-0.383036
-0.113923
0.0254121
-0.150904
-0.0696985
-0.00430092
-0.376501
-0.0146529
-0.31763
0.00914997
-0.00618505
-0.287558
-0.118676
-0.116991
-0.14965
-0.389319
-0.0273495
-0.0788804
0.029292
-0.393498
0.0497634
-0.0467648
-0.310527
-0.391342
-0.297025
-0.157654
0.00448091
-0.0844027
-0.229499
-0.236443
-0.0852185
0.18792
0.183266
0.0301286
-0.00615562
-0.119792
-0.00550994
-0.384276
-0.0468013
-0.0229385
-0.0142986
-0.00282529
-0.221158
-0.157245
-0.109681
-0.061665
-0.0074041
-0.00887757
-0.409666
-0.407688
-0.159569
-0.0183301
0.000621104
-0.144047
-0.178883
0.31539
0.00378636
-0.129208
-0.149664
-0.101881
-0.0204296
-0.0861193
-0.349896
-0.132046
-0.165295
-0.304049
0.266933
-0.38792
0.159805
-0.0975138
-0.282742
0.0452835
0.0300054
0.197614
-0.287453
0.0101388
-0.0145907
-0.392815
-0.0903015
-0.134384
-0.0864057
-0.21904
-0.161671
-0.195853
0.0490528
0.0386426
0.0103153
-0.332967
-0.0955738
-0.048749
0.00563807
-0.0792401
-0.117241
-0.089105
-0.112246
-0.0960345
-0.0981555
-0.284203
-0.0144654
-0.224953
0.0125011
-0.0075338
-0.137508
0.00427506
-0.293389
-0.114888
-0.0935232
-0.00815487
-0.0677626
-0.0927093
-0.175565
-0.189084
-0.0195298
-0.0999413
-0.380751
-0.0906308
-0.120478
0.125012
0.0444414
-0.0087675
-0.283969
-0.0963073
-0.112781
-0.0699587
0.00837856
-0.0825714
-0.118709
-0.0339552
-0.0280209
0.258953
-0.283962
-0.251201
-0.195636
-0.0883553
-0.179204
-0.25025
0.0834567
-0.0895811
-0.104332
-0.0623328
-0.0784628
0.00120419
-0.288684
0.0122937
-0.126316
-0.00803196
0.0398649
-0.143456
-0.0326208
0.361298
-0.00832595
-0.136174
-0.11725
-0.297488
0.113987
-0.0894803
0.0119253
0.202776
0.0132431
-0.122636
-0.408172
0.120257
-0.0622064
0.026568
-0.192207
-0.0127605
-0.386656
-0.20179
-0.226503
0.00576005
-0.328406
-0.145435
-0.0858798
-0.0788995
-0.0930433
0.215396
-0.142545
-0.0674001
-0.152359
-0.0347536
-0.0862642
-0.163296
-0.00519905
-0.0684302
-0.0836608
-0.0765465
-0.0725752
-0.00851532
0.329518
0.0280132
-0.12252
-0.184436
-0.0701936
-0.117117
-0.166838
0.0180845
0.190605
-0.0897841
-0.17178
0.0215088
0.0401348
0.119018
-0.10911
-0.408733
-0.106936
-0.0191253
-0.173508
-0.190188
-0.111924
-0.115285
-0.112067
-0.204097
-0.0734885
-0.0846925
-0.363497
-0.00852526
0.00953598
-0.113808
-0.144337
-0.0138687
0.0115072
0.0137843
0.000975517
-0.0897064
0.00981613
-0.103324
-0.10535
0.00404231
-0.0825438
-0.141278
0.0470773
-0.134947
-0.255329
0.0465128
0.0483144
-0.107528
-0.123023
-0.366139
-0.138358
0.00307439
-0.219053
0.0124585
-0.145044
-0.257869
-0.163965
-0.0475237
-0.349695
-0.332329
-0.379127
-0.221939
0.214042
-0.305323
-0.146881
-0.189037
-0.0292228
-0.391009
-0.07785
0.316774
0.297431
0.0844468
-0.14182
0.0669763
-0.078361
0.20414
-0.00279501
-0.0146649
-0.0558874
-0.382855
0.35458
-0.00874273
-0.292972
0.077615
-0.0869798
-0.0488828
-0.120903
-0.170583
-0.081742
-0.00567882
-0.0594883
-0.0748986
0.0444196
-0.194637
-0.0719966
-0.109046
0.0824055
0.0288565
0.00316432
-0.236431
-0.245224
-0.159346
-0.340793
-0.0743301
0.00900065
-0.199442
-0.126916
-0.0191232
-0.160552
-0.129209
-0.232399
-0.0539176
-0.0723652
-0.0899138
-0.34028
-0.23361
-0.0799755
-0.0316671
-0.116037
-0.398188
-0.0883058
-0.0872826
-0.0958495
-0.210174
-0.0837077
-0.0645066
-0.170794
-0.269682
0.038444
-0.0709558
-0.149488
-0.0693403
0.000784471
-0.106744
-0.127852
0.0245383
-0.0910624
-0.408181
-0.0525083
-0.330026
-0.0754502
-0.364256
-0.0653103
-0.0761554
-0.136336
-0.183553
-0.120865
-0.0727525
-0.145996
-0.316115
0.0189982
-0.23205
-0.097049
-0.0732396
-0.0166031
-0.39073
-0.151918
-0.32864
-0.059139
-0.171015
-0.104551
-0.408277
-0.0175527
-0.390386
-0.281084
-0.401547
-0.039492
-0.22991
0.0335853
0.00406796
-0.0961056
-0.106996
0.0315262
-0.0579757
-0.0926573
-0.00544478
-0.152858
-0.141855
-0.129494
-0.062856
-0.0324673
0.0504078
-0.334599
0.00535156
0.0495015
-0.0798873
-0.131003
-0.016973
-0.0912923
0.0268855
0.00906671
-0.054889
-0.162259
-0.0717747
0.00133312
-0.0421179
-0.155849
-0.0502696
-0.368517
0.0109431
-0.062273
-0.0839085
0.0698856
-0.0139391
0.0139954
-0.0623324
-0.0365155
-0.294348
-0.0808623
-0.094369
-0.0937555
-0.0566638
0.0156133
-0.129456
-0.0908168
0.129816
0.0229768
-0.145295
0.151324
-0.318536
0.0308197
-0.088979
-0.238862
-0.076008
-0.147269
-0.103391
-0.329775
0.0421406
-0.223672
0.0166931
-0.0807184
-0.0759283
-0.117116
-0.0954455
-0.00598986
0.0638945
-0.138034
0.00350665
-0.407451
-0.131733
-0.36959
-0.406992
-0.080065
-0.351611
-0.189085
0.103519
0.0194105
-0.341457
0.0308737
0.000969039
0.107425
-0.284627
-0.0557934
0.0500653
-0.0942272
-0.129576
0.0336142
-0.324719
0.00586734
-0.141839
-0.287411
0.0087065
-0.0507136
-0.282649
-0.167755
-0.0131999
-0.361218
-0.373134
-0.0229361
-0.359976
-0.20401
-0.140405
0.043849
-0.0825314
-0.181869
-0.0233315
-0.245441
-0.00227649
0.00544502
-0.0784917
-0.211034
-0.110841
-0.0705699
0.031769
-0.0810287
-0.147088
-0.320616
-0.025826
-0.370056
0.00152042
-0.00348095
-0.122157
-0.0585378
-0.0177573
-0.00119397
-0.357444
-0.263364
-0.358524
-0.0537605
0.0276043
-0.107122
0.0193166
-0.233595
-0.0662035
-0.0716522
-0.0942862
-0.0842567
-0.206785
-0.0687839
-0.397603
-0.0465716
-0.149768
-0.0824509
-0.098429
0.00476952
0.0175744
0.175154
-0.35411
-0.0832886
-0.0798884
-0.365336
-0.0584238
-0.081702
-0.40589
-0.327644
-0.123932
-0.139351
-0.107928
-0.0773188
-0.0275525
-0.0888022
-0.224417
0.0163382
-0.312291
-0.276011
-0.0197504
-0.0995233
0.015382
0.0784751
-0.150604
-0.38959
0.00619869
0.00463054
0.107074
-0.128195
0.0105052
-0.288178
0.00453738
-0.108837
0.0492483
-0.0742289
0.0292258
0.0343236
-0.0892665
-0.368192
-0.122834
-0.30214
-0.0895806
-0.00526561
-0.0212664
-0.140727
-0.0409824
-0.191032
-0.0599644
0.130848
-0.0876289
0.0201044
-0.0705841
0.0118859
-0.0752543
-0.397358
-0.0935238
0.133633
-0.382191
-0.0823655
-0.254738
-0.274703
-0.0276399
-0.333334
0.0720387
-0.0910931
-0.405935
-0.276652
-0.0193131
-0.18858
-0.0334142
-0.0769436
-0.307423
-0.0086495
0.270362
-0.170036
0.0161373
0.0161153
-0.0761712
-0.07024
-0.0852227
0.0481882
-0.175913
-0.0485642
0.0353734
-0.0852717
-0.175535
-0.23569
-0.0166635
-0.0909336
0.0905427
-0.0742674
0.0643473
0.00986584
-0.142434
0.103561
-0.0891701
-0.111338
-0.114645
-0.109197
-0.269543
-0.210117
-0.11176
-0.356817
-0.0869548
-0.115322
-0.016445
-0.080348
-0.139212
-0.0203101
-0.0805691
-0.206212
-0.0430282
0.00878784
0.00767619
-0.0771246
-0.0789878
-0.0636915
-0.205659
-0.00484765
-0.0870867
-0.04527
-0.260635
-0.188436
-0.0676202
-0.0571874
-0.262642
-0.236649
-0.0159451
-0.105918
-0.0314209
-0.353309
-0.0764306
-0.110806
-0.0947546
-0.301397
0.0327404
0.0123162
0.0801752
0.035927
-0.0834332
0.00132406
-0.0852992
-0.106185
-0.192542
-0.314631
-0.227903
-0.111984
-0.264949
0.131116
0.0242637
0.0388647
-0.0135704
-0.0206702
0.00436174
-0.147413
-0.212279
0.0915594
-0.186735
-0.00689057
-0.104138
0.0213738
-0.408429
-0.110615
0.0215548
0.0257755
-0.0941752
-0.0690877
-0.100303
-0.272905
-0.0962542
-0.122237
-0.0225942
-0.139831
0.0326316
-0.0568441
-0.0870731
0.0241008
0.046541
-0.0250781
-0.0782178
-0.0836602
-0.080007
-0.0956306
-0.286778
-0.321771
0.128317
0.0286573
-0.0808048
-0.0133335
-0.0793715
0.00588907
-0.0508738
-0.305778
-0.0972537
-0.111004
-0.194168
-0.123884
0.0227276
0.0207958
-0.153897
-0.0290988
0.0226501
-0.0622962
-0.27909
0.00233547
-0.242865
-0.319373
-0.094639
-0.192037
-0.402342
0.167271
0.0243392
-0.232869
-0.00414546
-0.071725
-0.107918
-0.0748311
-0.322181
-0.0805938
-0.0128843
-0.0087597
0.00431504
0.0136705
-0.0113773
-0.392328
-0.120998
-0.0902103
-0.0748519
-0.098513
0.0372604
-0.0116503
-0.362507
-0.131591
-0.0527661
0.0230075
-0.108039
-0.236133
-0.207628
0.049126
0.00744391
-0.0835769
0.0635344
-0.0949625
-0.00526719
-0.278964
-0.00477625
-0.395837
0.0268723
-0.217369
-0.100683
0.025936
-0.0968155
0.0261884
-0.0576564
0.00320246
-0.0833848
0.0599983
-0.0730131
-0.0334985
-0.122719
-0.123212
-0.0903018
0.0019029
-0.407266
-0.083029
-0.071185
-0.0955732
0.0389341
-0.0738501
-0.0210412
-0.208999
0.017964
0.00291661
-0.100556
-0.0950486
0.0139782
-0.0634145
-0.172753
-0.0398281
-0.171769
-0.00770031
-0.114183
0.0217921
0.00235094
0.047543
-0.0147181
0.0176527
-0.195313
-0.109977
-0.0330052
0.00458211
-0.112453
-0.00330387
-0.406883
-0.237669
-0.113977
-0.309293
-0.0573685
-0.0900623
0.0163146
-0.103326
-0.033684
-0.0271177
0.00607271
-0.323341
-0.305626
-0.11998
-0.376295
-0.102379
0.026559
-0.116684
-0.0949933
-0.357559
-0.0876477
-0.0958447
-0.134019
0.0112119
-0.397473
-0.396304
-0.0830246
-0.283843
-0.0760774
0.0394515
0.195949
0.0501223
-0.133848
-0.0416495
-0.0026825
-0.176303
-0.00292428
0.00187862
0.00348092
-0.00158191
-0.281457
-0.200422
-0.0019663
-0.118812
-0.119419
-0.021875
-0.38243
0.0628262
-0.103327
-0.22466
0.0106616
-0.0829695
-0.0535205
-0.0935235
-0.0130961
-0.00570613
-0.278517
-0.0746824
-0.173704
-0.0349276
-0.0760609
-0.0870318
-0.13987
-0.333708
-0.0752756
-0.0934807
0.0298451
-0.0121009
0.0170579
-0.0637487
0.025216
-0.149853
-0.0152834
0.090386
0.126675
0.0374108
-0.0074909
-0.0521074
-0.0491854
-0.0507397
-0.0279863
-0.261041
-0.0817968
-0.0839351
-0.110051
-0.180432
0.0492826
-0.377466
-0.0128978
-0.0190233
0.0617437
-0.0100071
-0.0735485
0.0160982
-0.00244996
0.206807
0.0396726
-0.274047
-0.0390309
-0.31684
-0.178389
-0.157772
-0.241412
-0.0299011
-0.317061
-0.148067
0.0119279
-0.0467108
0.0485293
-0.376358
0.0663526
0.181343
-0.16048
-0.408328
-0.163854
-0.0240113
-0.0846099
-0.157915
-0.0743699
-0.0500672
-0.00586191
-0.0255691
-0.136053
0.0318286
-0.179601
-0.237379
0.0195146
-0.129089
-0.278812
-0.0244058
-0.257704
-0.393478
-0.118679
-0.0343388
-0.0837746
-0.144441
0.00669952
-0.0895352
0.0256854
-0.022032
0.00901138
-0.0684475
-0.0659452
-0.104859
-0.394608
-0.0771321
-0.100352
-0.0751874
0.0290702
0.292476
0.00816543
-0.346251
-0.0263383
0.00384672
0.00900889
-0.0297366
-0.114986
-0.0746421
-0.0957655
-0.211994
-0.344452
0.106652
0.0228656
-0.0381022
-0.283995
-0.026118
-0.012008
-0.114702
-0.308303
-0.0759975
-0.0139316
-0.0821302
-0.097828
-0.149544
-0.392452
-0.0229316
-0.0176013
-0.0476593
-0.327082
-0.0608513
-0.1524
0.0127617
0.00758531
-0.0225506
0.0074473
-0.0109689
-0.115028
-0.0772386
-0.0986878
0.133819
0.016749
-0.3317
-0.0368744
-0.233501
-0.183269
0.113937
-0.369103
-0.083092
-0.40102
-0.0773187
-0.0856466
-0.114917
-0.0864917
0.0395276
-0.00650408
-0.254467
-0.0255874
-0.106573
0.0300519
-0.102143
-0.329449
-0.0125479
0.0470855
-0.0790452
-0.287852
-0.0908982
0.0061655
-0.0677685
0.0747905
-0.0601291
-0.0321585
0.0227971
-0.0838137
-0.0820551
0.0304587
-0.0836019
-0.0666389
0.0157997
-0.0720744
-0.0781931
-0.311574
-0.0744187
0.0137369
-0.0220042
-0.0529097
0.0458191
-0.0923326
-0.0914136
0.0227823
-0.0906643
0.100079
-0.123029
-0.100891
-0.120892
0.0738975
-0.017902
0.194669
-0.141269
-0.141713
0.0196813
-0.0780125
-0.154397
-0.391914
-0.352308
-0.103061
-0.0997143
-0.13649
0.020717
0.026863
-0.0291844
-0.0842849
-0.0726533
-0.14533
-0.403303
-0.034092
-0.0118466
0.0317849
-0.0766014
-0.0150324
-0.0687039
0.00600397
-0.0833136
0.0476118
-0.00363747
0.020867
0.00994963
0.00473753
0.0835867
-0.0935395
0.0352243
-0.156261
0.0253641
0.00702259
-0.144576
-0.12411
-0.0803261
-0.0894869
0.145728
-0.0823485
-0.00597062
-0.0626881
-0.0162239
0.0262595
-0.0510652
-0.392776
-0.0461376
-0.140329
-0.356543
-0.0350159
-0.00962762
0.0992156
-0.113957
0.0107972
-0.0873795
-0.028786
-0.0843235
0.0258846
-0.0321863
-0.0724937
0.100827
0.0415962
-0.100386
-0.38858
-0.0765162
-0.129989
0.0338413
-0.358973
-0.133382
0.0230582
-0.337251
0.0460172
0.199126
0.0458735
-0.031534
0.00248938
0.034847
-0.00547664
0.116929
-0.112931
-0.0250552
0.0273961
0.246452
-0.0204369
-0.356229
0.0261046
-0.0929885
-0.0712951
-0.160231
-0.185203
0.0221464
-0.117226
-0.0054473
-0.0603024
-0.130099
-0.0881921
-0.0949833
0.0101365
-0.0889221
0.191515
-0.104242
-0.185281
0.0514416
-0.208128
-0.0822503
-0.105715
0.0456779
-0.0174209
-0.0931061
-0.408492
-0.0412944
0.00710604
-0.387603
-0.00481414
-0.107587
0.00790421
-0.160844
-0.344002
-0.017605
-0.407296
-0.0679291
0.0073782
-0.0916234
-0.00256526
0.196371
-0.0743073
-0.110958
-0.091118
0.00232733
0.011125
0.20929
0.0196501
0.0231302
-0.0659976
-0.0844101
-0.116433
-0.171365
0.0299195
-0.0815664
-0.0159067
0.0156862
0.0197475
0.0230842
-0.335476
-0.026081
0.0649254
-0.0922696
-0.00512059
0.00585539
-0.11202
0.0229443
-0.306813
-0.0476387
-0.104302
-0.158956
0.152311
-0.346475
-0.160719
-0.0720719
-0.034006
-0.237867
-0.0550452
-0.0174988
-0.0010668
0.0661702
-0.0873971
0.00946788
-0.123887
6.65094e-05
-0.0206469
-0.39089
-0.287516
-0.23624
-0.0505559
0.202101
-0.213339
-0.406824
0.0198022
-0.0670264
-0.177995
-0.0313681
-0.110248
-0.348568
-0.0933466
-0.0655067
-0.0875955
0.00221248
-0.282318
0.0210487
0.0452014
-0.210803
0.0317061
-0.00920244
-0.354589
-0.122805
-0.0968001
-0.131958
-0.0790848
0.0449451
0.000536666
-0.0326218
-0.370107
-0.222217
-0.158657
-0.146026
0.0363208
-0.251302
0.0260466
-0.22966
0.11654
-0.0454255
-0.10788
0.0179996
-0.264158
-0.340792
-0.0223731
-0.127801
-0.0738721
-0.354648
-0.124471
-0.077727
-0.0945143
-0.0731614
-0.0803292
-0.0832887
0.0256771
-0.0766118
0.287474
-0.0822991
0.0142065
-0.0946079
-0.128582
-0.0750973
0.0115479
-0.351789
-0.0667625
0.03247
-0.0100947
-0.094896
-0.0916531
0.0467147
0.00373301
0.0057012
-0.128462
-0.315324
-0.153539
0.0231814
0.0619212
-0.0743372
-0.21006
0.0190788
-0.181746
-0.377567
-0.0861907
-0.0939951
-0.0644716
-0.234985
-0.278531
0.0206066
-0.330749
0.00520258
-0.0193578
-0.0767218
-0.0928395
-0.181432
-0.0806082
-0.0615041
-0.0850095
-0.0879878
0.00901462
-0.0149164
0.102221
-0.0634548
0.0666299
-0.18394
-0.0381611
-0.00419099
0.00789968
-0.0795283
-0.174185
0.0305887
-0.0592602
0.0788426
-0.12598
-0.231722
-0.0759618
-0.0839848
-0.170871
-0.319514
-0.157343
-0.0822203
0.000471824
0.350771
-0.0122952
0.115265
-0.36417
-0.0770194
-0.26076
-0.327908
0.0249179
-0.124506
2.38299e-05
-0.0918082
0.0184959
-0.0814441
-0.193775
-0.0501663
0.00229658
-0.259488
0.195443
0.0177854
-0.371754
0.0300071
0.034402
-0.0637387
0.0473227
-0.0832807
0.0804754
0.0367162
-0.0612093
-0.29664
-0.0985755
-0.152015
0.0183099
-0.238366
-0.0749002
0.0024335
-0.0989881
0.0215251
0.104208
-0.139499
0.00261641
0.0380812
0.0700669
-0.250393
0.0173198
0.00751626
-0.112928
-0.0759006
0.00196949
0.0355668
-0.0240372
-0.174382
-0.12724
-0.112892
-0.12489
0.0294126
0.216965
-0.0108919
-0.158905
-0.0752757
0.0311091
-0.0574534
-0.192903
0.00691026
-0.0310495
-0.152711
-0.0780055
-0.0362314
-0.142199
0.0112407
-0.0117016
-0.137991
0.0131158
-0.0261872
-0.274558
0.0174754
-0.104955
-0.0904945
-0.373321
-0.172564
-0.0258648
0.0897484
0.0981358
0.00838581
0.0314803
0.0206926
-0.0790073
0.0155287
-0.0777114
-0.102568
-0.00951605
-0.0207139
-0.0848595
-0.104083
-0.0965558
0.0181352
-0.156066
0.000864492
-0.101646
-0.153593
-0.0583791
-0.0868798
-0.117078
-0.17716
-0.406457
-0.0658599
-0.0739325
-0.125473
-0.406768
-0.0587392
-0.00119953
-0.105665
0.165005
-0.0217246
-0.0367561
-0.0924002
0.0114727
-0.0151568
0.017148
-0.0170208
-0.0488908
-0.0271715
-0.381518
0.00225401
-0.347401
0.00887068
-0.0965485
-0.0272149
-0.110451
-0.111948
0.0306506
-0.109609
0.0883099
0.0173104
-0.0920809
-0.0160458
0.0441745
-0.0244837
-0.0773441
-0.0140541
-0.114038
0.306672
-0.109027
-0.00171091
-0.0770586
-0.187826
-0.108218
-0.0291251
-0.0423832
-0.0765366
-0.146695
-0.332629
-0.0143865
-0.408366
0.00572901
0.170586
-0.370692
-0.0889298
-0.0772232
-0.0197554
-0.0922438
0.0115492
-0.338526
-0.0779914
0.0045871
-0.100281
-0.185236
-0.0278291
0.0257016
0.00660478
-0.326244
0.0170863
0.00149657
-0.129159
0.026924
0.0197586
-0.122626
-0.022327
-0.113236
-0.012107
0.028461
-0.00240776
0.108945
-0.0329333
-0.0284829
-0.100634
-0.126003
0.0159695
0.0272599
-0.156778
-0.034108
-0.407941
-0.0415085
-0.355229
-0.00977081
0.0303411
-0.0056924
-0.0783393
-0.125992
0.000337828
0.0134511
0.118752
0.00400254
0.0263362
-0.0777353
0.00459378
-0.0893632
-0.0127906
-0.0666082
0.0199853
-0.158534
-0.00431697
-0.0824746
-0.00688017
-0.234086
-0.301889
-0.0154626
-0.067768
-0.310355
-0.103876
-0.0841727
-0.0790952
-0.2558
0.0778843
-0.0974456
-0.160662
-0.172345
-0.0322416
-0.0665546
0.0958821
-0.00143054
-0.0741528
-0.408438
-0.115343
-0.149656
-0.267815
-0.0617498
-0.103851
-0.0215854
-0.0148871
-0.195203
-0.343236
-0.210739
-0.227746
-0.149404
-0.00605326
-0.348488
-0.0900939
-0.373284
0.00743419
-0.340582
-0.400639
-0.306292
-0.118093
-0.116442
-0.0932311
-0.0828012
-0.21721
0.10475
0.00798582
-0.326156
-0.123864
-0.0152622
-0.155134
0.0159142
0.00706152
-0.100578
0.0872767
-0.26083
0.0776061
-0.40768
-0.0772566
0.111793
-0.13087
-0.243663
-0.154546
0.0587464
0.0996366
-0.152004
-0.0540798
-0.0045317
-0.128749
0.0437648
-0.218766
0.0135324
-0.206463
0.00601511
-0.0975554
-0.0840364
-0.0795059
0.0760394
-0.198695
-0.371648
0.0325736
0.00465279
-0.374546
-0.283325
-0.0397426
-0.0560629
0.0158257
-0.138637
-0.0591006
-0.0807847
-0.183845
0.0462
0.00646696
0.232641
-0.0238273
-0.140853
-0.290008
-0.00340296
0.0175663
-0.052324
0.0109568
-0.0508491
0.00109551
-0.0340138
0.0958628
0.0085359
0.0149487
0.0467813
-0.0833424
-0.177303
0.0104252
-0.15596
-0.369677
-0.0111663
0.0752887
-0.20819
-0.174545
0.0399299
-0.120455
-0.0736196
0.165197
-0.082367
-0.0269145
0.00639464
-0.339623
-0.053699
-0.0916076
0.0426567
0.032409
0.0134252
-0.12604
0.0143466
-0.11516
-0.0898508
-0.162221
0.00347177
-0.141277
-0.340375
-0.157721
-0.00631204
-0.226676
0.157966
-0.339371
-0.297632
0.0634803
-0.000199406
-0.235067
-0.144278
-0.0962574
-0.103012
-0.0976173
0.00515067
-0.0198931
-0.0476987
0.0147026
0.0476242
-0.236377
0.0127835
0.190472
-0.0110794
-0.213475
-0.143053
-0.123622
-0.0820426
-0.159653
0.0440536
0.01991
-0.267008
-0.0149957
-0.0154015
-0.0119377
-0.189222
-0.144892
-0.335872
0.0878646
-0.0324436
-0.0181696
-0.0226898
-0.114369
0.00357892
-0.0795168
-0.21425
0.0191777
0.0238399
-0.0978116
-0.0889725
-0.0442141
0.0242564
-0.176329
-0.217839
-0.0260735
-0.124502
0.0127683
-0.147666
-0.242321
-0.040838
-0.406931
-0.403037
-0.167109
-0.0108236
-0.0324003
0.0175784
0.0227533
-0.126119
0.00211769
-0.230775
-0.0839255
-0.317242
-0.0342702
-0.144483
-0.164167
-0.130751
-0.257884
-0.365846
-0.012442
-0.0649737
-0.0660958
-0.0766825
-0.0925311
-0.0165262
-0.0810914
-0.0194596
-0.0882893
0.0415538
0.000562667
-0.270978
-0.109875
-0.406859
0.0138789
-0.141851
-0.0319334
-0.115687
-0.0560455
-0.124149
-0.131588
-0.242787
-0.0786623
0.0129939
0.00610954
-0.119362
0.0154643
-0.104822
-0.285864
0.00646009
-0.0826781
0.140891
-0.303207
-0.0514105
-0.119822
-0.112449
-0.0231653
-0.16625
0.0174128
-0.0901397
-0.072667
-0.203669
-0.330777
-0.152782
-0.00650028
-0.112826
-0.0181191
-0.22332
4.52149e-05
-0.270246
-0.0186679
-0.113583
-0.0176647
0.0122347
-0.0897052
0.0929744
0.0333996
0.00725184
-0.0913463
-0.0780293
0.00275889
-0.0928495
-0.0818338
-0.249122
0.0332045
-0.366492
-0.0193092
-0.0760956
-0.0687951
-0.0105939
-0.155752
0.0126278
-0.365532
-0.0924292
-0.0559232
0.0264971
-0.286775
-0.109812
-0.0192239
-0.135165
-0.228181
-0.164718
-0.021891
-0.168615
0.0225904
-0.22651
-0.0668222
-0.172861
-0.268409
-0.0957258
0.159401
-0.147935
-0.112923
0.0147721
-0.00646046
-0.13067
-0.155258
-0.187869
0.241781
0.00676561
-0.0757112
-0.187166
-0.28835
-0.0901817
-0.286418
-0.0901938
-0.351138
-0.35013
0.0127263
0.0927583
0.0216112
-0.0233267
-0.0164059
-0.121884
-0.0101279
0.0720077
-0.349663
0.00855689
-0.00309773
-0.0754574
-0.180708
-0.0760855
-0.0080757
-0.256854
-0.0494718
-0.0776399
0.0179521
-0.389244
0.071257
-0.190325
0.025885
-0.0968562
-0.127397
0.0218352
-0.410791
-0.160541
-0.162615
0.0127536
-0.00148248
-0.0979549
-0.389029
-0.0785022
-0.0221519
-0.165283
-0.152574
-0.0273512
0.0063014
-0.0048482
-0.143058
0.113615
-0.0645768
-0.0533788
-0.0631976
-0.105168
-0.175268
-0.168017
-0.0552198
-0.0915693
-0.0172254
-0.186648
-0.138562
0.0275458
-0.0764162
-0.363111
-0.175073
-0.0775325
-0.402073
-0.362396
-0.261019
0.0759056
-0.0257649
-0.19923
-0.267439
-0.272986
0.0148205
-0.104498
0.0368782
0.0149097
-0.0763128
-0.206126
-0.116191
0.0137035
-0.112259
-0.137103
-0.124675
-0.122596
-0.311453
-0.101048
-0.00124354
-0.128286
-0.0784144
-0.28598
-0.0709332
-0.11136
0.0479669
-0.00120794
-0.11011
-0.122638
-0.0165599
-0.0849619
-0.0746929
0.0160777
-0.080872
-0.0995906
0.0423554
-0.0829933
-0.161898
-0.0835179
0.0267404
0.306402
-0.12633
-0.0776089
-0.114096
-0.0242849
-0.0830654
-0.0501436
0.039896
-0.0108424
0.14509
-0.0772141
-0.0878932
-0.249449
0.00669852
-0.0236104
-0.0928333
-0.0812762
-0.257041
-0.166708
-0.0866574
-0.0171242
0.0345247
-0.0864015
-0.017537
-0.314557
0.0326012
0.0157145
-0.0127328
-0.0753027
-0.370107
0.0457072
-0.103018
-0.0481591
0.0026314
-0.0840604
0.149212
-0.0984902
-0.102205
-0.408369
-0.0680946
-0.22777
-0.102615
-0.272698
-0.0770367
-0.000394103
-0.00661705
-0.126338
-0.15777
-0.00489765
-0.00336151
-0.079876
-0.149368
-0.0853133
-0.406075
-0.109791
0.0148458
-0.237805
0.0054741
-0.0774745
0.0257217
-0.162702
0.0037132
-0.0725253
-0.132467
-0.0883535
0.0245839
-0.0798149
0.109711
-0.106756
-0.239915
-0.0800012
-0.00317606
-0.181519
-0.105304
-0.224767
-0.117152
-0.151
-0.0147592
-0.10231
-0.0238033
-0.36188
0.0103514
-0.0824092
-0.110706
-0.299478
-0.0139161
0.00826763
-0.370033
-0.115456
-0.363176
0.157723
0.0236418
-0.118476
-0.132705
0.159497
-0.0846739
-0.0797066
-0.21051
-0.0519014
0.0164277
0.00487192
-0.273457
0.0579996
-0.17345
0.03763
-0.0104739
-0.266436
-0.0635204
-0.0216373
0.0126762
-0.0844565
-0.196313
-0.0822964
-0.110789
0.0826473
-0.149836
0.0193025
-0.225936
-0.0874664
-0.113742
0.198668
-0.0541779
-0.118134
0.128602
-0.0231139
-0.109572
-0.405099
-0.0731548
-0.0293935
-0.334589
-0.103077
0.0135337
0.0636399
-0.122475
-0.132934
0.122587
-0.0956743
-0.269015
-0.0314701
-0.101241
-0.0160435
-0.0679781
-0.146918
-0.358243
-0.0913531
-0.0763647
-0.152563
-0.0765208
-0.148462
-0.0453409
-0.110145
0.0299941
-0.0768219
-0.167684
0.0201416
0.0037159
-0.0750538
0.0454661
0.0242585
-0.127334
-0.0986946
-0.180871
-0.0616058
-0.1666
0.00374973
-0.0816178
-0.1041
0.00732427
-0.110568
-0.341298
-0.268318
-0.0825501
-0.10026
-0.0772248
-0.000736393
0.073361
-0.14295
-0.115049
0.0254566
-0.080899
0.0267767
-0.0965329
-0.115796
0.115849
-0.101395
-0.0935237
-0.112871
-0.0902344
0.232335
-0.381733
-0.295998
-0.0608592
-0.0148672
-0.0799845
0.00124201
-0.014387
-0.351273
0.0176196
-0.082505
0.0469239
-0.171646
-0.0590978
0.018346
-0.360834
0.113925
0.0770909
-0.0744039
-0.257341
-0.314005
-0.0642579
-0.0684426
0.0465315
-0.0746981
-0.143171
-0.0818967
0.0230355
-0.197006
-0.131393
-0.0466477
-0.0828397
-0.108409
-0.00242191
-0.244214
-0.153475
-0.0833199
0.0174699
-0.244011
-0.0069605
-0.13429
-0.0836777
-0.173662
-0.00200347
-0.110082
-0.409078
-0.0482268
-0.157629
-0.0656467
-0.116267
-0.199966
-0.124426
0.0761191
-0.388436
-0.00144813
-0.078823
0.0135445
-0.0429802
-0.125593
-0.0781618
-0.0568845
0.284951
-0.210861
-0.0736151
-0.0266394
0.0463768
-0.122583
-0.339013
0.109325
-0.340476
-0.147974
-0.0696314
-0.0835205
-0.147605
-0.0986919
0.174888
-0.12108
0.000556614
-0.0454754
-0.0323212
-0.344643
0.0251176
-0.077003
-0.0137254
-0.104979
-0.0810752
-0.114532
-0.123593
0.0744389
-0.198613
-0.0150274
0.0454595
0.0142533
0.0231571
-0.0576776
0.00596236
-0.100353
-0.209315
-0.107903
-0.110411
-0.0578166
-0.0109999
-0.0788424
0.0185584
-0.105783
-0.136134
-0.395219
-0.0928199
-0.0766495
-0.0632762
0.0183593
0.0610093
0.160129
-0.114665
-0.215844
-0.101587
-0.373449
-0.0880802
0.00774686
-0.00400512
-0.0737672
0.00785924
-0.081633
0.218011
-0.263477
-0.0476151
-0.137758
0.0240942
-0.0370547
0.0372713
0.0415168
0.0551621
-0.0936568
-0.0142867
-0.0704815
0.170644
-0.104285
-0.0926929
-0.195315
-0.170981
-0.271923
-0.0822705
-0.0491919
-0.0246254
-0.0872448
-0.0765277
-0.246416
-0.0839692
-0.0783959
-0.211825
-0.0864415
-0.0406907
0.011487
-0.0764967
0.0176032
-0.0664281
-0.39969
0.0146958
-0.0183773
-0.302368
-0.0749696
-0.079837
-0.328255
0.0437707
-0.0989867
-0.114169
-0.266357
0.133038
0.0148222
-0.0825723
0.25096
0.0311823
-0.100491
0.0195043
-0.218031
-0.0737614
0.244959
-0.342728
0.114556
-0.146551
0.00614043
-0.385561
0.0403395
-0.0633364
-0.00669087
-0.124964
0.00709504
0.0377135
-0.079108
-0.25672
-0.125679
-0.0450943
0.148035
-0.00997681
-0.00636745
-0.0454229
-0.109577
-0.0621343
-0.18864
-0.124053
-0.216229
0.0189617
-0.228065
-0.25682
-0.18041
-0.0500056
-0.216571
0.0151382
-0.0166852
0.012996
-0.332083
-0.021907
0.0261269
-0.0823556
0.0168149
-0.225027
0.0683092
-0.0250146
-0.109938
-0.055365
-0.176951
-0.0136876
-0.145654
-0.0203169
0.21489
-0.407941
-0.125748
0.0104521
-0.06001
-0.111281
-0.0667832
-0.230769
-0.0880532
-0.0479354
-0.208972
-0.000940107
-0.0341828
-0.373057
-0.0769207
-0.0597982
-0.0773626
0.0166175
-0.00571159
0.00643327
-0.0597124
0.0381693
0.0242656
-0.149435
-0.414469
0.128949
-0.407348
-0.0772742
-0.0604099
-0.302227
-0.381917
0.0526023
-0.367563
-0.355542
-0.0921218
-0.334353
-0.0857544
-0.112958
-0.0887396
-0.401284
-0.333782
-0.233162
0.0793883
0.0889905
0.0564061
-0.0567562
4.53126e-05
-0.290051
0.0174464
-0.408175
0.0415409
-0.166946
-0.0133028
-0.108964
0.0803455
0.0834724
0.0228173
0.00392255
0.0759989
-0.0500586
-0.035467
-0.0709559
-0.347108
-0.0566612
-0.231618
-0.00469382
0.0897192
0.117013
0.0390516
0.00288815
0.00579389
-0.165926
-0.1086
-0.157966
-0.364218
-0.0293465
-0.14312
0.025176
-0.0779912
0.000438359
-0.0144968
0.0199574
-0.103232
-0.0119057
-0.0696713
-0.272987
-0.0120181
-0.0832639
0.0196495
-0.340081
-0.239331
-0.398385
-0.11129
-0.232488
-0.221121
-0.0893699
-0.251508
-0.0823551
-0.390941
0.0557596
0.168138
-0.319001
-0.240633
0.0263694
-0.406316
-0.208841
-0.14516
-0.0128755
-0.109251
-0.328638
0.0132137
-0.409184
0.103011
-0.280623
0.00536756
0.0452379
-0.161457
0.006639
-0.0591121
-0.154155
-0.0190467
-0.0268515
-0.0788316
-0.16989
-0.407253
-0.0759035
-0.0334404
0.0562123
0.0135917
-0.0168423
-0.0891243
-0.107337
-0.122627
-0.307776
-0.0859228
0.000875449
0.00171487
-0.13842
-0.40482
-0.272205
0.110491
-0.0137237
0.136011
-0.408932
-0.403953
-0.0173962
0.011745
-0.331708
-0.0296323
-0.146497
0.0736293
0.0167029
-0.0342134
0.0988501
-0.158619
-0.323921
0.0065332
-0.01921
-0.0437699
-0.0763044
-0.307099
0.0194642
-0.219884
-0.262496
-0.0169928
-0.0759232
-0.0833623
-0.406394
0.0254254
-0.40789
-0.311071
-0.0411796
-0.0407211
-0.0498298
0.33247
-0.250495
-0.0645633
0.0100126
-0.405315
-0.255594
-0.012444
-0.143341
-0.217008
-0.0832486
-0.201846
-0.300061
-0.14148
-0.26717
-0.0642692
0.0789022
-0.0469079
-0.157282
-0.285269
-0.278856
-0.4059
-0.186703
-0.0174989
-0.0888902
0.00488415
0.0081519
0.0284992
0.0083331
0.0225593
-0.0144189
-0.0932608
-0.348353
-0.357061
0.00613279
-0.201743
0.178351
-0.00544611
0.00154391
-0.153466
0.0196128
-0.0731795
-0.0827452
0.0222432
-0.0166272
-0.087853
0.0057051
-0.256234
-0.0605516
-0.00906198
-0.0180413
-0.197885
-0.0142124
-0.345232
-0.164165
-0.0161777
-0.119141
-0.0132544
-0.045159
-0.0275236
-0.178946
-0.0985999
0.00807479
-0.177435
-0.0906271
0.0158695
-0.0186541
0.0339709
-0.0326101
0.0188849
-0.297587
-0.263349
-0.410904
-0.0702269
-0.408392
0.019795
-0.0654454
-0.0330762
-0.218691
0.0494062
-0.110974
-0.0029623
-0.074397
-0.138315
-0.38071
-0.0892698
-0.0031866
-0.117966
-0.00630965
-0.187799
-0.0135402
-0.0155467
-0.0543233
-0.0654856
-0.000822363
0.00909807
0.065763
-0.166515
0.0480396
-0.0233953
-0.0546848
0.00599502
-0.102224
0.0182895
-0.405401
-0.0781883
-0.0472895
-0.12347
-0.408467
-0.0783931
-0.233304
-0.0152614
0.0162296
-0.0879701
-0.0974356
-0.224977
-0.0789464
-0.0947643
-0.0384278
-0.127295
-0.0803876
-0.0719067
0.0211369
0.00127961
-0.16134
-0.152754
-0.408071
-0.0605088
-0.0131028
0.0204143
-0.407437
-0.109898
-0.0145637
-0.23975
-0.0214639
-0.0880424
-0.0869296
-0.0885183
-0.0304086
0.0150706
0.00330779
-0.0598298
-0.184531
-0.257197
-0.0159385
-0.0150551
-0.274715
0.00542087
0.00857857
0.109622
0.101852
-0.0701892
0.0148746
-0.0765214
-0.0812304
0.103025
-0.368957
-0.122883
0.0251167
-0.0597357
0.0319457
0.00475466
-0.406384
0.31032
-0.0794002
-0.0304542
0.0175561
-0.149767
0.0900443
0.0212498
-0.0770842
-0.362299
-0.0136525
-0.106269
0.0278259
-0.121418
0.025056
-0.0232962
-0.409094
-0.153288
-0.146682
0.0161651
-0.144896
-0.0214557
0.0206921
-0.0750485
-0.108334
-0.118733
-0.0709852
-0.154425
-0.043874
-0.0785184
0.231932
0.198528
-0.0237104
-0.014103