/*--------------------------------*- C++ -*----------------------------------*\
| =========                 |                                                 |
| \\      /  F ield         | OpenFOAM: The Open Source CFD Toolbox           |
|  \\    /   O peration     | Version:  v2012                                 |
|   \\  /    A nd           | Website:  www.openfoam.com                      |
|    \\/     M anipulation  |                                                 |
\*---------------------------------------------------------------------------*/
FoamFile
{
    version     2.0;
    format      ascii;
    class       surfaceVectorField;
    location    "950";
    object      ddtCorrDdt0(Uf);
}
// * * * * * * * * * * * * * * * * * * * * * * * * * * * * * * * * * * * * * //

dimensions      [0 1 -2 0 0 0 0];


internalField   nonuniform List<vector> 
20673
(
(-0.00046446 -7.01337e-05 -8.2159e-19)
(-0.00046364 -6.16837e-05 5.42491e-18)
(-0.000453019 -6.70409e-05 -3.03869e-18)
(-0.000179693 -9.06517e-05 6.41038e-20)
(-0.000176926 -9.84902e-05 -7.94199e-20)
(-0.000181889 -9.80288e-05 -1.81652e-19)
(0.00312846 0.00169338 -4.598e-18)
(0.00302132 0.00165888 4.0176e-18)
(0.00257851 0.00205768 -3.63837e-18)
(-8.7376e-05 0.000282529 4.09116e-18)
(-0.000100125 0.000271288 4.09987e-18)
(-8.87897e-05 0.000270018 1.09882e-18)
(-1.08823e-05 -0.000170253 1.52967e-18)
(-9.47176e-06 -0.000171035 -8.33627e-19)
(-1.13765e-05 -0.000168349 3.35219e-18)
(4.48382e-06 -0.000691692 4.63228e-17)
(-1.10902e-06 -0.000693498 7.45059e-17)
(2.66458e-06 -0.000693853 1.30382e-16)
(0.00270009 0.00281993 -3.13598e-18)
(0.00286509 0.00256609 2.71898e-18)
(0.00200543 0.00287935 -3.25318e-18)
(0.00410908 0.00066677 3.55922e-18)
(0.00419954 0.000530712 -5.82619e-18)
(0.00437137 0.000420384 -1.09759e-17)
(0.00456626 -0.00375209 -8.29049e-18)
(0.00395429 -0.00360747 9.03431e-18)
(0.00349093 -0.00353282 -7.86141e-19)
(-0.000591373 7.49955e-06 -6.17875e-18)
(-0.000604489 3.17324e-05 4.53396e-18)
(-0.000625167 8.36718e-06 9.7396e-18)
(-0.00280461 0.00254318 -6.72661e-19)
(-0.00263484 0.0027462 -3.33434e-18)
(-0.00298799 0.0027344 5.65712e-18)
(-0.000302028 0.00132198 -2.73944e-18)
(-0.000288989 0.00140259 7.46115e-18)
(-0.000375643 0.00133966 8.413e-19)
(-9.11961e-05 0.0002937 3.48457e-18)
(0.00742416 0.000210744 3.67933e-19)
(0.00756516 -9.02401e-05 7.30633e-18)
(0.00709808 7.96582e-05 -2.28964e-17)
(-0.000235189 -0.00028311 -6.15998e-19)
(-0.00022777 -0.000292196 6.95182e-18)
(-0.000225748 -0.000285728 -9.29608e-18)
(-0.000256211 -0.000224188 -1.16768e-18)
(-0.000247569 -0.000231001 -7.11566e-19)
(-0.000248278 -0.00021781 -1.46091e-18)
(-0.000183912 -0.000139314 9.79973e-19)
(-0.00018572 -0.000129952 9.76909e-20)
(-0.000179893 -0.000137241 2.63706e-19)
(-0.00057158 -0.000335828 1.58977e-18)
(-0.000541125 -0.000337839 -3.19195e-18)
(-0.000559926 -0.000368388 -5.25801e-18)
(-0.000223623 0.00131149 7.02344e-18)
(-0.000290943 0.00124874 -6.95849e-18)
(-1.84116e-05 -5.88643e-05 -2.59647e-19)
(-1.76723e-05 -5.59216e-05 -3.89824e-19)
(-1.55585e-05 -5.71508e-05 9.28444e-19)
(2.39236e-07 1.01398e-05 6.11338e-19)
(3.31066e-07 8.30493e-06 5.33136e-19)
(2.75028e-07 1.00819e-05 1.5082e-18)
(0.00262441 0.00292392 -4.34437e-18)
(0.00324538 0.00273109 -5.10293e-18)
(-2.66064e-05 -9.58629e-05 2.83545e-19)
(-2.8918e-05 -9.44065e-05 1.46987e-18)
(-2.85927e-05 -9.10561e-05 5.79361e-19)
(0.00390135 0.00102292 3.89493e-19)
(0.00414013 0.000815471 2.42252e-17)
(-4.94249e-05 -6.02225e-05 -1.14198e-18)
(-4.97199e-05 -6.02289e-05 -1.48551e-18)
(-4.94605e-05 -6.11948e-05 1.43534e-18)
(0.000260084 0.00406857 1.0523e-17)
(0.000939379 0.00389306 -6.60711e-18)
(0.00119802 0.00383574 8.24109e-18)
(-4.36178e-05 -0.000509681 -7.00798e-18)
(-4.84141e-05 -0.000517728 8.89929e-18)
(-3.82061e-05 -0.000516225 -1.35847e-17)
(-0.000133334 -0.000551413 1.78457e-17)
(-0.000142066 -0.00055388 1.31701e-17)
(-0.000129596 -0.000557498 -1.54231e-17)
(-0.00012441 -0.000909549 3.95502e-19)
(-0.000142939 -0.00094263 -3.23855e-18)
(-9.89662e-05 -0.000950364 -2.01958e-18)
(-0.000234351 0.000234446 1.30021e-17)
(-0.0001956 0.000202383 8.05491e-18)
(-0.000176715 0.000258372 2.9381e-17)
(-0.000449692 -3.61309e-05 1.91347e-18)
(-0.000454223 -4.2062e-05 5.0562e-18)
(-0.000442806 -4.34073e-05 -1.85765e-18)
(-0.000355176 -6.95334e-05 1.99496e-18)
(-0.000350518 -7.35021e-05 -2.07328e-18)
(-0.000347618 -6.62479e-05 -4.35639e-18)
(-0.000100964 -0.000467344 6.09239e-20)
(-0.000101521 -0.000475571 6.91803e-18)
(-9.17162e-05 -0.000471984 2.36611e-18)
(-1.02334e-05 -0.00041294 7.4949e-18)
(-3.87601e-06 -0.00041041 -1.18708e-17)
(-1.25766e-05 -0.000409445 -1.18464e-17)
(-3.73477e-05 -7.55373e-05 -1.98458e-18)
(-3.89715e-05 -7.52017e-05 2.52538e-18)
(-3.96013e-05 -7.35404e-05 2.26517e-19)
(-0.00350971 0.00559348 -6.02037e-19)
(-0.00359708 0.00566258 -9.36562e-18)
(-0.00274233 0.0058844 -1.20769e-17)
(-2.45158e-05 -9.93144e-05 3.79577e-19)
(-2.42185e-05 -9.58985e-05 1.49008e-19)
(0.00661273 -0.000726077 1.20664e-19)
(0.006746 -0.000601491 3.25894e-19)
(0.00684925 -0.000583749 9.4705e-19)
(-0.000116483 0.000378994 -2.62987e-18)
(-0.000114168 0.000396609 -2.13059e-18)
(-0.0044127 0.00067345 3.96244e-19)
(-0.00467184 0.000394303 4.69033e-18)
(-0.00465993 0.000618785 4.83258e-18)
(-3.06003e-05 -2.9583e-06 -1.28389e-20)
(-3.1406e-05 -3.21376e-06 -1.54495e-20)
(-3.07913e-05 -2.14831e-06 -1.49058e-20)
(1.29462e-07 8.27846e-06 -7.53714e-19)
(1.39656e-07 5.17676e-06 -1.29655e-18)
(5.71222e-08 5.33266e-06 -8.56588e-19)
(-3.3811e-05 4.44843e-06 -9.31503e-20)
(-3.36678e-05 4.3695e-06 2.44756e-18)
(-3.24899e-05 4.2182e-06 -8.29197e-19)
(-0.000138558 -0.000627149 6.804e-18)
(-0.000146763 -0.000629627 8.88984e-18)
(-0.000139214 -0.000642719 4.35925e-17)
(-0.000167671 3.90123e-05 9.33324e-19)
(-0.000173487 3.86118e-05 -9.20498e-19)
(-0.000170792 3.96512e-05 1.71234e-18)
(-4.07968e-05 -0.000426483 -3.34948e-18)
(-3.24579e-05 -0.00042766 3.35622e-18)
(-3.62853e-05 -0.000422475 1.23779e-17)
(-0.000608633 -0.000338723 3.45537e-19)
(-0.000583595 -0.00030675 -5.84784e-18)
(-0.00118766 -0.000498602 1.22964e-17)
(-0.00112193 -0.000461004 -1.42389e-18)
(-0.00120124 -0.00041954 -1.54851e-18)
(-4.92598e-05 -0.000706981 1.95244e-17)
(-3.64008e-05 -0.000726952 2.84105e-17)
(-6.30698e-05 -0.000740919 2.66487e-17)
(-2.39998e-05 -3.35513e-06 -1.4257e-19)
(-2.49886e-05 -2.5836e-06 7.65098e-20)
(-2.40203e-05 -3.59891e-06 4.59866e-21)
(-0.000406317 4.91275e-05 3.76391e-18)
(-0.000410299 4.24872e-05 2.10484e-18)
(-0.000416617 4.95888e-05 -5.43387e-18)
(-2.96059e-05 -0.000267596 3.62401e-18)
(-2.71308e-05 -0.000272021 4.49585e-18)
(-3.01084e-05 -0.000280746 3.57083e-18)
(-7.21015e-05 -0.000697012 7.19402e-17)
(-3.38605e-05 -0.000786408 6.91264e-17)
(-1.70304e-05 -0.000414983 3.53872e-18)
(-7.69522e-06 -0.000416275 5.01796e-18)
(-0.000187533 -0.000141786 -5.46204e-19)
(-0.000181725 -0.000148867 -8.42604e-20)
(-0.000372656 -2.53803e-05 3.61514e-18)
(-0.000368793 -2.67705e-05 -1.00048e-17)
(-0.000376299 -3.04434e-05 -1.49454e-18)
(-0.00295815 0.00236015 -8.25041e-18)
(-0.00270548 0.00235541 -7.21881e-18)
(-9.74393e-05 -0.000176591 -1.82909e-18)
(-9.19761e-05 -0.000164884 1.49485e-18)
(-9.61969e-05 -0.000169496 1.24194e-19)
(-0.000320031 -8.54095e-06 -4.59298e-18)
(-0.000328377 -1.2594e-05 -8.93882e-19)
(-0.0003218 -1.07908e-05 -4.57371e-18)
(-0.000164693 3.87282e-05 6.65335e-19)
(-0.000162316 3.95684e-05 -4.2935e-19)
(-0.000980326 0.000593309 2.6962e-17)
(-0.000631194 0.000455071 -4.29175e-17)
(-0.000942378 0.00056193 3.45216e-17)
(-0.000181284 -8.0452e-05 3.11134e-20)
(-0.000184726 -8.13687e-05 -3.87009e-19)
(0.00742324 -0.000148057 5.72771e-18)
(-1.93909e-05 -6.12689e-05 3.98374e-20)
(-2.14671e-05 -5.79426e-05 1.4705e-19)
(4.0045e-06 -0.000711522 -1.53439e-17)
(-1.33586e-05 -0.000683385 -4.72133e-17)
(0.000856632 0.000173135 3.7257e-18)
(0.00135349 3.65442e-05 1.27044e-17)
(0.00223728 0.000808953 6.95146e-18)
(7.02094e-07 -0.000173611 1.64459e-18)
(3.96182e-07 -0.000171056 -4.8781e-19)
(3.24955e-06 -9.10039e-05 3.2706e-19)
(1.81244e-06 -9.35025e-05 -1.79698e-18)
(-0.00295833 -0.00139728 -2.9424e-18)
(-0.00308244 -0.001282 -3.74234e-18)
(-0.00318062 -0.00151224 1.38672e-18)
(-0.00043259 -0.000139127 -7.50813e-19)
(-0.000449523 -0.000126555 1.00119e-18)
(-0.000456033 -0.00015647 2.85043e-20)
(-9.02193e-06 -0.000168985 4.38998e-18)
(-1.15437e-05 -0.000167997 -1.23785e-18)
(0.00545969 -0.00397392 -2.63458e-19)
(0.005111 -0.00393831 -1.2851e-17)
(-0.00327873 -0.000771071 -1.38889e-17)
(-0.00324699 -0.000948317 -1.23845e-17)
(-0.00342934 -0.00085698 -3.60839e-17)
(-4.91578e-05 -5.7816e-05 1.89751e-18)
(-4.71335e-05 -6.1487e-05 2.79567e-18)
(-1.30191e-05 -0.000726974 -4.67352e-17)
(1.38116e-05 -0.000706542 -1.52685e-17)
(1.7539e-05 -0.000715815 -2.09529e-17)
(0.000413411 0.00122184 2.05475e-18)
(0.000351224 0.00115182 -1.64834e-18)
(0.000293386 0.00122513 -8.75624e-18)
(0.000370185 -0.000651851 -1.34863e-17)
(0.000170757 -0.000912365 -1.99347e-17)
(0.000557503 -0.000745078 -2.03284e-17)
(-0.000230522 2.78188e-05 -1.33782e-18)
(-0.000237558 2.6144e-05 1.27422e-18)
(-0.000233872 2.65078e-05 2.42887e-18)
(-0.00099912 0.00397371 1.9014e-18)
(-0.000771337 0.00405791 -1.47873e-18)
(-0.00157651 0.00419626 -7.41827e-18)
(-5.76196e-09 -9.11989e-07 -8.4985e-19)
(-2.66483e-07 -8.99874e-06 -1.94591e-18)
(-5.66197e-08 -8.51701e-06 6.29822e-19)
(-8.88761e-07 -2.47305e-05 -8.88685e-20)
(-1.03394e-06 -3.43816e-05 -1.15914e-18)
(-7.89416e-07 -2.22265e-05 -5.60785e-19)
(-2.20183e-08 -0.000174685 1.06104e-18)
(8.70093e-06 -0.000717142 3.32392e-17)
(-2.73613e-05 -0.000717192 -6.81412e-17)
(-8.83658e-06 -0.000695126 3.93387e-17)
(0.00643785 -0.000853996 -6.20875e-18)
(0.00634791 -0.000907667 8.55358e-18)
(0.00169832 -0.0001801 2.45662e-17)
(0.00178999 -0.000138529 9.40576e-18)
(0.00180747 -0.00010478 -3.22368e-17)
(-0.000222725 2.90357e-05 -7.31091e-19)
(-0.000225966 2.93952e-05 -7.75407e-19)
(-5.55504e-06 -5.78208e-05 -5.15905e-19)
(-5.06536e-06 -5.61406e-05 1.05498e-18)
(-3.59147e-06 -4.64655e-05 1.10837e-18)
(-0.000509798 0.00111333 4.8749e-18)
(0.00125299 -0.000839567 -1.64818e-17)
(-0.000397634 5.67321e-05 3.78865e-18)
(-0.000394065 4.61122e-05 4.7625e-19)
(-3.3734e-05 5.12141e-06 8.37229e-19)
(-3.50306e-05 4.86869e-06 3.61099e-19)
(-0.000519882 -0.00175538 1.08861e-17)
(-0.000522398 -0.00151691 2.56419e-18)
(-0.000270218 -0.00161564 1.40976e-17)
(-0.000522672 0.000215816 -4.14918e-18)
(-0.000528245 0.000179662 3.09243e-17)
(-0.000562135 0.000198965 2.04131e-18)
(-0.00013213 -1.98609e-05 -2.96034e-21)
(-0.00013045 -1.28764e-05 7.58808e-19)
(-0.000128308 -2.0939e-05 -1.41072e-19)
(-0.000144698 -0.000297368 -6.21539e-18)
(-0.000147022 -0.00030295 -1.01588e-18)
(-0.000151615 -0.000295917 -1.06946e-18)
(0.00170058 0.00165893 4.42117e-17)
(-0.00189638 0.000316774 -4.40496e-17)
(-5.23997e-06 -0.000695772 3.18822e-17)
(-9.00887e-06 -0.000684208 3.43363e-17)
(-5.55921e-06 -0.000688787 -5.30449e-18)
(-0.00268869 0.000515291 4.18097e-19)
(-0.00273438 0.000387841 1.66024e-17)
(-0.00286125 0.000530979 2.55619e-17)
(-0.000955344 -0.00043783 1.43565e-17)
(-0.000942825 -0.000491795 -5.54829e-18)
(-0.00089836 -0.000453178 -9.15273e-18)
(0.000946891 0.00260918 -8.04657e-20)
(0.00110887 0.0027004 -1.06784e-18)
(0.00110304 0.00248865 -2.39969e-18)
(-5.20719e-05 -0.000641199 4.11109e-18)
(-5.53081e-05 -0.000625421 -2.42999e-18)
(-6.60256e-05 -0.000637309 2.07416e-19)
(-4.42597e-05 -2.32499e-05 -6.03087e-20)
(-4.55576e-05 -2.20338e-05 3.40625e-19)
(-4.53993e-05 -2.43258e-05 2.30373e-19)
(-4.39695e-06 -0.00046407 -4.32774e-18)
(-1.54705e-05 -0.000468395 -6.81355e-18)
(-1.20258e-05 -0.000458541 -5.19286e-18)
(-0.00011807 -0.000628013 -7.64173e-18)
(-0.000131334 -0.000612808 1.96639e-18)
(-0.000256753 3.14501e-05 -1.72055e-19)
(-0.000261482 3.3278e-05 3.1969e-18)
(-0.00025447 3.44836e-05 4.99827e-18)
(-7.72291e-05 -2.11126e-05 3.65014e-21)
(-7.57986e-05 -1.77119e-05 -5.10047e-20)
(-7.84439e-05 -1.47842e-05 -2.60906e-19)
(0.00423582 -0.00331472 1.27215e-17)
(0.00397577 -0.00323692 1.94797e-18)
(0.00486808 -0.00343693 5.78493e-17)
(-0.000265822 -0.000913232 -3.33565e-18)
(-0.000227377 -0.000919983 -4.80273e-18)
(-0.000263504 -0.000947658 -2.38036e-18)
(-0.0012402 -0.000531349 -9.66796e-18)
(-0.00116578 -0.000568135 1.20838e-17)
(-0.000187753 -0.00011989 -8.23804e-20)
(-0.000191533 -0.000121632 3.85743e-19)
(-0.000478449 -4.05847e-05 -5.47295e-19)
(-0.000482262 -4.84668e-05 4.35819e-18)
(-0.000493892 -4.08326e-05 2.38065e-17)
(-0.00172261 0.00131981 2.46406e-17)
(-0.00191996 0.00114353 -1.07002e-17)
(-0.00203467 0.0011987 1.74213e-17)
(-0.00401574 0.000936963 4.62249e-18)
(-0.00411505 0.000690977 1.08431e-19)
(-0.000155047 0.00180958 -2.61082e-19)
(-5.19776e-05 0.00181445 8.66982e-18)
(-9.23757e-05 0.00191466 -8.42754e-18)
(0.00432055 -0.00343663 -1.81952e-17)
(0.00333573 -0.00324328 -1.16679e-17)
(-2.28813e-05 -0.000349497 1.57971e-17)
(-2.55868e-05 -0.000354862 1.54075e-18)
(-2.04588e-05 -0.000355934 1.95025e-18)
(-3.29828e-06 -0.000780671 -1.99086e-17)
(2.76835e-05 -0.000788675 5.04639e-17)
(-4.22451e-06 -0.000710478 -4.18694e-17)
(-5.03207e-05 -4.12543e-05 -1.07096e-19)
(-5.16915e-05 -3.79201e-05 -4.92538e-19)
(-5.06099e-05 -4.20792e-05 1.32295e-19)
(-3.38736e-05 -0.000763833 4.55387e-17)
(-2.14896e-05 -0.000753408 1.62587e-17)
(-2.11931e-05 -0.000740527 6.83979e-17)
(0.00601259 0.000744074 -6.15089e-19)
(0.00582996 0.000787816 -3.8089e-18)
(0.00600531 0.000931761 9.54846e-18)
(-3.37399e-05 -0.000411922 6.86819e-19)
(-3.94169e-05 -0.000413749 -8.80763e-19)
(-4.05608e-05 -0.000408994 -9.38775e-18)
(6.52759e-07 9.37603e-06 -4.55255e-19)
(4.03695e-07 9.93732e-06 -1.38459e-18)
(-0.00284282 -0.00154435 4.58829e-18)
(-0.00277896 -0.00133333 5.76944e-19)
(0.00755249 0.000475107 1.41406e-17)
(0.00749208 0.000593315 3.46839e-18)
(0.00760467 0.000519249 4.34777e-19)
(-0.000109103 -0.00055059 6.84799e-18)
(-0.000141294 -0.00054136 -5.39643e-18)
(-2.65444e-05 -5.40313e-07 -2.56922e-19)
(-2.54552e-05 -4.17619e-07 4.35116e-19)
(-2.65068e-05 -6.71388e-07 -2.09431e-19)
(-0.00013834 -0.00029739 2.82243e-18)
(-0.000143117 -0.000291097 -8.35899e-19)
(-0.000166576 2.98831e-05 8.58792e-19)
(-0.000172372 2.82147e-05 5.78229e-20)
(-0.000168477 2.45901e-05 -1.79379e-19)
(-2.6372e-05 -7.00504e-07 3.9157e-21)
(-2.54436e-05 -2.27711e-07 -2.74676e-19)
(-2.76316e-05 5.86016e-06 -1.08432e-19)
(-2.66854e-05 4.9756e-06 -1.21477e-19)
(-2.64897e-05 5.06964e-06 1.51714e-18)
(-1.01608e-05 -0.000708039 -3.49014e-17)
(0.00646203 0.0013553 -7.07242e-18)
(0.00664407 0.00123513 -1.1369e-17)
(0.00661483 0.00120906 -7.73258e-18)
(-1.84452e-05 -0.000343592 -4.13762e-18)
(-2.3015e-05 -0.000340411 -4.45616e-18)
(-0.000179111 3.71648e-05 9.40297e-19)
(-0.000174866 3.67926e-05 -1.27991e-18)
(2.53141e-07 1.00473e-05 -1.79852e-18)
(3.16124e-07 8.72723e-06 2.75241e-18)
(0.00125209 -0.000120955 2.92955e-17)
(0.00227846 -0.000946358 2.13163e-17)
(0.000791347 -0.000529269 -1.50012e-17)
(0.00374817 0.00139057 -1.48504e-18)
(0.00361836 0.00121108 -4.30046e-18)
(-0.00047545 -7.32528e-05 -8.88004e-18)
(-0.000464303 -7.76467e-05 2.58078e-18)
(-5.90606e-05 -0.000652235 1.14431e-17)
(-5.41031e-05 -0.000651964 2.31733e-20)
(-1.22073e-06 -0.000171318 -2.18239e-18)
(3.09336e-07 -0.000165991 -3.94501e-18)
(-2.54846e-05 -0.000413582 -9.25856e-19)
(-2.80779e-05 -0.000409922 -5.55707e-18)
(-0.00469354 0.00518011 1.34174e-18)
(-0.004145 0.00515719 3.59349e-18)
(-0.00382871 0.00464396 1.00566e-18)
(-9.06217e-05 3.62618e-05 -1.60562e-19)
(-9.36492e-05 3.63373e-05 3.02394e-19)
(-9.03175e-05 3.48283e-05 9.10793e-20)
(-5.99733e-05 -0.000304089 3.05109e-18)
(-6.06587e-05 -0.000316387 2.14214e-17)
(-5.44026e-05 -0.00030634 1.14316e-17)
(-0.000107148 -0.00064251 1.55607e-17)
(-9.99677e-05 -0.000653068 -1.4222e-17)
(-0.000112603 -0.000655501 -1.48131e-17)
(4.02557e-07 -9.11008e-05 5.03687e-18)
(2.70994e-06 -9.02087e-05 -1.87528e-19)
(0.00714968 -0.0042772 -1.79797e-18)
(0.00667126 -0.00410737 -3.69924e-18)
(0.00695744 -0.00425142 -1.54069e-18)
(-0.000168163 -0.0010182 -2.66698e-19)
(-0.000203827 -0.0010019 1.97072e-18)
(-0.000168496 -0.000970202 -1.14289e-18)
(-3.3099e-05 -0.00025995 -3.60441e-18)
(-2.76401e-05 -0.000252617 -7.67327e-18)
(-7.84515e-05 3.4252e-05 -1.59344e-19)
(-8.13044e-05 3.4683e-05 -2.19285e-19)
(-7.82068e-05 3.36367e-05 8.57448e-20)
(-0.00035865 -8.66351e-05 -1.10758e-18)
(-0.000354706 -9.15397e-05 2.71214e-18)
(-0.000364087 -9.35618e-05 -5.53021e-19)
(-0.00115851 0.00031686 2.71777e-19)
(-0.00122022 0.000316169 -2.52202e-18)
(-0.00115976 0.000256442 -4.80451e-18)
(-2.72846e-05 -0.000741723 -1.01002e-18)
(8.68278e-07 -0.000778832 -2.80939e-17)
(-0.00153294 0.00136364 -9.74928e-18)
(-0.00165243 0.00135085 3.73864e-18)
(-0.00157773 0.00147033 -1.60216e-18)
(-0.000460594 -0.000287529 5.10422e-19)
(-0.000455441 -0.00027236 8.97644e-19)
(-0.000475873 -0.000269232 3.15635e-19)
(-0.000350053 -3.68769e-05 4.09179e-18)
(-0.000348066 -3.59524e-05 -5.96544e-18)
(-0.000343443 -3.39094e-05 3.11078e-18)
(0.000995433 -0.000104106 1.74137e-18)
(0.000905193 -4.64858e-05 6.55266e-19)
(0.000905751 -5.79329e-05 4.71174e-17)
(-0.00042569 -0.000146948 1.5511e-18)
(-0.000422606 -0.000134799 -9.28394e-19)
(0.00224983 -0.000212595 6.16459e-18)
(0.000167703 -0.000384562 1.1989e-17)
(-0.00090462 6.46774e-05 4.47111e-18)
(0.000471586 -0.000389319 2.07442e-17)
(0.000110455 -0.000604879 2.19366e-17)
(0.00180137 0.00019585 -1.95243e-17)
(0.000480947 0.000186551 3.27469e-17)
(-0.000101973 -0.000364852 -1.9214e-18)
(-0.000104726 -0.000369201 -5.48038e-18)
(-9.70839e-05 -0.000370099 7.72642e-18)
(1.81451e-05 -0.000509835 9.98575e-18)
(9.57668e-06 -0.000512628 4.67962e-17)
(1.78106e-05 -0.000518732 1.67772e-17)
(7.84235e-08 -6.98758e-06 4.46882e-19)
(1.304e-07 -6.10215e-06 -1.06671e-19)
(-1.90588e-08 1.21684e-06 -3.40426e-19)
(-0.00265399 0.00068161 -1.79114e-17)
(-0.00253604 0.000531777 -2.42758e-17)
(-0.000284316 0.0018161 -7.07307e-18)
(-0.000226318 0.0017056 9.34878e-18)
(0.000839925 0.00250724 4.29362e-18)
(0.000782252 0.00265839 2.82486e-18)
(-0.000258127 2.92923e-05 1.21477e-19)
(-0.000252115 3.06978e-05 -2.04534e-18)
(-0.00114617 -0.000111922 -6.04034e-18)
(-0.00117289 -6.31997e-05 4.6043e-18)
(-0.00121418 -0.00012002 -1.35429e-17)
(-0.00013742 4.032e-05 -2.80027e-19)
(-0.000142772 3.98158e-05 3.07784e-19)
(-0.000140021 3.78089e-05 -6.92534e-19)
(7.04165e-07 -0.000467128 1.76931e-17)
(-6.23716e-06 -0.000470538 8.41287e-18)
(-0.000498737 -0.000231202 1.16527e-18)
(-0.000481525 -0.000241953 4.12106e-19)
(-0.00048335 -0.000219022 1.78771e-18)
(-0.00040941 0.000584414 3.07174e-17)
(-0.000617858 0.000471532 2.19063e-17)
(-0.000497094 0.000652446 1.3356e-17)
(0.000221833 0.00184368 -3.8767e-18)
(0.000251384 0.00193413 6.66398e-18)
(0.000145457 0.00191104 2.36427e-18)
(-0.000200632 -0.0001487 -6.75822e-19)
(-0.000205728 -0.000149729 -2.30533e-20)
(-0.000199872 -0.000158338 -4.5187e-19)
(0.00791538 -0.00400003 1.57719e-17)
(0.00788654 -0.00412785 -8.29534e-18)
(0.00770449 -0.00411536 -7.62979e-19)
(-0.000477048 -0.000334278 -7.20799e-19)
(-0.000481247 -0.000351853 -4.58779e-19)
(-0.000497747 -0.000337857 -2.15301e-18)
(0.0062387 0.00147313 -7.0423e-19)
(0.00620288 0.00150634 1.05327e-17)
(-2.47367e-05 -0.000764759 3.70887e-17)
(-4.95449e-05 -0.000760431 1.26243e-17)
(0.00735906 -0.00432801 -6.13067e-19)
(0.00728583 -0.00449056 7.73876e-18)
(-0.000113333 -0.000119906 -3.22158e-19)
(-0.000117548 -0.000120267 -4.90368e-19)
(-0.000115313 -0.000124413 -1.50238e-19)
(-0.000509301 0.00025082 2.19345e-17)
(-0.000482027 0.000222601 -8.48517e-19)
(-0.000455742 -2.74503e-05 -3.26086e-18)
(-0.000443274 -2.99779e-05 -6.25179e-18)
(-9.12995e-05 3.72509e-05 -2.13025e-19)
(-8.78008e-05 3.65142e-05 -5.20118e-19)
(-6.48371e-06 -6.10738e-05 -8.80084e-19)
(-8.52366e-06 -6.74157e-05 -1.17307e-18)
(-0.000232597 -0.000361134 -6.47003e-19)
(-0.000221467 -0.000365661 4.07983e-19)
(-0.000226275 -0.000354176 -6.27314e-19)
(-0.000799551 0.00433378 -2.64982e-18)
(-0.000516189 0.00426193 -2.93395e-18)
(-0.000778928 0.00095232 2.18456e-17)
(-0.000789791 0.00101572 -5.29104e-18)
(-0.000862472 0.000993887 1.4371e-17)
(0.00105942 -0.0001437 -1.453e-17)
(0.00123611 -7.04312e-05 -8.80836e-17)
(-0.000446528 -0.000118472 -6.10347e-18)
(-0.00043766 -0.000114336 -2.71393e-18)
(-0.000442282 -0.000125171 -6.43166e-18)
(-0.000308681 0.0027922 1.22918e-18)
(-0.000174036 0.00282219 6.25274e-18)
(-0.000253887 0.00294895 1.94422e-18)
(-0.00690085 0.00267044 6.58419e-18)
(-0.00746809 0.00302979 -1.45286e-18)
(-0.00776278 0.00255219 4.06048e-18)
(0.00154006 -0.000185664 -1.52314e-17)
(0.00157912 -0.000220543 5.06351e-17)
(-0.00122622 0.0006163 -1.57409e-18)
(-0.00115779 0.00068348 1.27166e-17)
(-0.00126252 0.000720478 2.44238e-17)
(-2.69978e-05 -0.000120592 -4.32931e-18)
(-2.46408e-05 -0.000119997 -2.25081e-18)
(-2.40169e-05 -0.000124197 -1.28645e-18)
(-2.27435e-05 -0.000635153 -2.70322e-17)
(-3.91465e-05 -0.000643217 -3.74801e-18)
(-2.09811e-05 -0.000647239 -1.40044e-17)
(-4.12406e-05 -0.000501751 3.04211e-18)
(-5.41131e-05 -0.000503748 1.54202e-17)
(-3.54783e-05 -1.3224e-07 7.06042e-20)
(-3.53679e-05 -4.10893e-07 1.61893e-19)
(-0.000133787 -2.6069e-05 4.41999e-19)
(-0.000135882 -1.62854e-05 -7.98742e-20)
(-0.000341452 -0.000886999 2.21968e-18)
(-0.000338175 -0.000846094 1.04684e-17)
(-0.000375602 -0.000864619 6.95692e-19)
(0.000126608 -0.00506346 -4.673e-17)
(0.00340732 -0.00256815 1.73301e-17)
(-0.00185541 -0.000686059 -4.5373e-17)
(-0.000330005 0.000217734 1.25542e-18)
(-0.000337476 0.000229547 -1.5627e-19)
(-0.000344328 0.0002118 9.64439e-19)
(-2.30347e-05 -4.33641e-06 3.83896e-19)
(-2.37057e-05 -3.076e-06 -1.69444e-19)
(-0.00114299 8.86086e-05 9.24669e-19)
(-0.00108019 9.05884e-05 1.85987e-18)
(-0.001123 2.36665e-05 -4.51379e-18)
(-0.00115787 0.000385789 3.38334e-18)
(-0.00110074 0.000324231 -1.02418e-17)
(-0.00310389 -0.000667106 -6.69717e-18)
(-0.00329335 -0.000601879 -7.63104e-18)
(0.00134909 -0.00408846 1.23107e-18)
(0.00114617 -0.00419603 -1.21135e-17)
(0.0012112 -0.00393827 -8.38827e-18)
(-3.70555e-05 -7.70454e-05 2.81662e-19)
(-3.59879e-05 -7.70462e-05 9.53118e-19)
(-9.75721e-05 -0.000182209 1.05683e-18)
(-0.000102119 -0.000187176 9.78673e-19)
(-0.000957413 -0.000376317 7.07077e-18)
(-0.00101625 -0.000404348 4.99726e-18)
(0.00111291 0.00338138 -2.88429e-18)
(8.70213e-05 0.00369363 -1.16361e-18)
(0.000589351 0.00343808 -1.90987e-18)
(-5.67648e-05 -0.000292764 -1.10976e-17)
(-6.28047e-05 -0.000299253 -1.56212e-17)
(0.00313247 0.00246731 -1.25904e-18)
(0.00342905 0.00224612 -7.57654e-19)
(0.00249586 0.00255088 -5.42529e-18)
(-0.00321049 -0.000313266 7.63479e-18)
(-0.00326889 -0.00045214 -4.2853e-18)
(-0.00303126 -0.000325247 1.38688e-17)
(-0.000395127 0.00266532 -3.43009e-18)
(-0.000484248 0.0028358 -6.0497e-18)
(-7.46685e-05 -2.66764e-05 2.84292e-19)
(-7.81913e-05 -2.56816e-05 -3.73743e-19)
(-8.23431e-05 -0.000766373 -3.30025e-18)
(-9.16768e-05 -0.000795394 -7.92104e-18)
(-5.01262e-05 -0.000782329 -9.84235e-18)
(-0.00094589 -0.000226305 1.11587e-17)
(-0.000956278 -0.000274655 2.31576e-17)
(-0.000905618 -0.000256165 8.81498e-19)
(-0.0037372 0.000451116 1.39269e-17)
(-0.00357178 0.000613434 -4.40688e-17)
(-0.00385162 0.000446751 -3.40398e-17)
(-6.35272e-05 -4.50771e-05 2.3943e-18)
(-6.47459e-05 -4.95216e-05 -5.00091e-19)
(-6.46882e-05 -5.15703e-05 -7.10089e-19)
(-0.00132834 0.000794111 -3.12267e-17)
(-0.00102018 0.000673726 3.84879e-17)
(-0.000107749 -0.000119502 1.60895e-19)
(-0.000109592 -0.000115685 5.45483e-19)
(-6.56512e-05 2.35128e-05 -1.82144e-17)
(-8.24227e-05 -1.71568e-05 -2.07224e-18)
(-0.000108016 2.09614e-05 4.78504e-18)
(-2.92952e-05 -3.85795e-06 1.11613e-20)
(-2.98801e-05 -2.74522e-06 -1.07512e-20)
(0.00514611 -0.00142263 6.53586e-19)
(0.00532025 -0.00123823 -2.46459e-18)
(0.00540253 -0.0012629 -1.67064e-18)
(0.00376831 -0.00312193 -3.34984e-17)
(0.00352463 -0.00296219 1.71757e-17)
(0.00435682 -0.00318 -1.36738e-17)
(-0.000263295 -0.000228249 -8.625e-19)
(-0.000263889 -0.000215767 -2.3725e-18)
(-0.000711692 -0.00182226 -1.32957e-17)
(2.83406e-05 -0.00210423 8.99957e-18)
(-0.00181611 -0.00172416 1.20885e-18)
(-0.000358757 -3.92786e-05 2.14948e-18)
(-0.000351329 -3.55459e-05 2.6585e-18)
(-7.30758e-05 -3.35196e-05 1.96549e-19)
(-7.19047e-05 -2.99143e-05 2.28972e-19)
(-0.00347277 0.00531469 4.33591e-18)
(-0.00321938 0.0056688 1.99528e-18)
(0.000345192 0.00177548 2.64728e-19)
(0.000220565 0.00170263 -7.96442e-18)
(-0.000449523 -0.000110926 -8.41911e-18)
(-0.000455919 -0.000122039 -2.82372e-19)
(0.00303815 0.00176965 -1.83656e-18)
(0.00298272 0.00173567 1.3276e-18)
(0.0026705 0.00215762 1.08261e-17)
(-0.00336294 -0.000219993 1.0257e-18)
(-0.00325172 -0.000166943 5.94627e-18)
(-4.27289e-05 -6.08773e-06 -4.82979e-20)
(-4.32863e-05 -4.03679e-06 -9.31827e-21)
(-4.23196e-05 -4.23421e-06 3.92447e-19)
(-0.000357685 -6.5583e-05 6.19958e-18)
(-0.000363025 -7.13799e-05 7.25277e-18)
(-0.000710765 -0.00193463 2.00498e-17)
(-0.000431991 -0.00205476 -4.20989e-18)
(0.00153851 -0.000260802 9.86556e-18)
(0.0015583 -0.000215797 -1.53011e-17)
(0.00148588 -0.000260064 7.54448e-18)
(4.32758e-07 -7.55035e-06 1.48071e-18)
(-3.90585e-07 -1.67278e-05 1.57094e-18)
(-3.84465e-05 -6.74052e-06 -1.69051e-19)
(-3.91728e-05 -9.40537e-06 1.41247e-19)
(-4.00574e-05 -8.5372e-06 4.73217e-20)
(-0.00630266 0.000583929 -3.03107e-18)
(-0.00616185 0.000745446 -2.57937e-18)
(-0.00301311 1.3908e-05 7.99667e-18)
(-0.00300896 0.000179333 -3.5522e-18)
(-0.00316031 0.000103151 -3.60156e-18)
(5.72734e-07 9.62158e-07 -7.95558e-20)
(2.9416e-07 9.53389e-07 7.47895e-19)
(5.46526e-07 1.26221e-06 7.91457e-19)
(-0.00228038 0.00534349 4.03828e-19)
(-0.00186888 0.00542585 1.13498e-17)
(-0.00181447 0.00505497 1.05837e-17)
(-0.000241846 -0.000835791 9.80826e-18)
(-0.000296515 -0.000887969 -7.46933e-18)
(-0.000312958 -0.000802252 -1.65254e-17)
(1.60388e-05 -0.000502724 2.96349e-18)
(2.50476e-05 -0.00050534 -3.22491e-17)
(-0.000425449 -6.38263e-05 1.3566e-18)
(-0.000433571 -6.1756e-05 -5.67962e-18)
(-0.000423661 -6.13841e-05 -3.11908e-19)
(-9.47216e-07 -1.47478e-05 1.02089e-18)
(6.43785e-07 -4.21216e-06 -4.44338e-19)
(-0.000433581 -0.000403622 -5.49986e-19)
(-0.000422127 -0.000383651 1.67948e-18)
(-0.000412133 -0.000404754 4.41371e-19)
(-0.00217683 -0.00045802 -2.79835e-18)
(-0.00194034 -0.000451937 -3.77641e-18)
(-0.00204666 -0.000214555 6.75178e-18)
(-0.000105166 5.94877e-05 -4.36736e-19)
(-0.000103541 6.63673e-05 4.26429e-18)
(-0.000108824 6.3544e-05 -1.80329e-18)
(-0.000641257 0.000370964 -1.97901e-17)
(-0.00066184 0.00032601 -2.01555e-17)
(-0.000602984 0.00033708 3.60709e-18)
(-6.29928e-05 -0.000662606 2.70738e-17)
(-7.53433e-05 -0.00066495 -5.26318e-17)
(-6.64735e-05 -0.000674978 -3.9007e-18)
(-0.00016301 2.97612e-05 -2.56785e-19)
(-0.000164011 3.15859e-05 2.55213e-18)
(-8.78506e-05 -0.000153944 5.27793e-19)
(-8.84896e-05 -0.000160512 -2.70781e-19)
(-0.00113052 0.00110518 2.38484e-18)
(-0.00122044 0.0011349 -5.10938e-18)
(-0.00113729 0.00119794 4.40331e-18)
(-0.00491879 0.00119885 7.58145e-20)
(-0.00526415 0.00100877 9.76373e-19)
(-0.00496477 0.0010616 -2.19175e-18)
(-0.00141359 0.00137957 -5.7302e-18)
(-0.00148803 0.0012669 -3.03761e-19)
(-0.000241626 -0.000357161 -1.66448e-18)
(-0.000236121 -0.000368799 1.17127e-18)
(-0.000240755 -0.000274334 -4.58156e-18)
(-0.000243003 -0.000280439 2.95238e-18)
(4.88821e-07 2.27538e-06 4.98079e-19)
(5.07256e-07 1.98439e-06 5.86235e-19)
(2.37713e-07 1.71096e-06 -8.10159e-19)
(0.0075468 0.000393092 1.51263e-18)
(0.00745604 0.000420852 1.36886e-17)
(0.000537528 0.000287088 -4.01982e-18)
(0.000618274 -2.90665e-05 4.17918e-18)
(0.000281297 0.000173156 4.28027e-17)
(0.000476287 0.00571785 -4.03935e-19)
(7.69628e-05 0.00596094 -5.02404e-18)
(0.000466652 0.00607869 -2.28313e-18)
(-7.16116e-05 -3.90228e-05 -2.66356e-19)
(-7.4046e-05 -3.59945e-05 -3.17431e-19)
(-0.00466599 -0.000142297 2.89998e-18)
(-0.00459322 -0.00019825 3.13582e-18)
(-0.00464682 -0.000114149 -3.93183e-17)
(0.00709509 -0.000313881 2.54918e-18)
(0.00705577 -0.000293677 -1.28918e-18)
(0.00731394 -0.000339891 2.31834e-18)
(0.00455449 -0.000329243 3.80938e-18)
(0.00374875 9.56836e-05 5.74901e-18)
(-0.00129875 0.00403395 6.60536e-18)
(-0.000805543 0.00362997 2.50437e-18)
(0.000461013 0.00131639 6.64969e-18)
(0.000531594 0.00122323 2.91627e-18)
(-1.31049e-06 -2.55197e-05 -6.28762e-19)
(-2.64683e-05 -9.75666e-07 1.68897e-20)
(-2.59843e-05 -6.01757e-07 3.86915e-19)
(-2.51683e-05 -1.2705e-06 -1.44079e-19)
(-0.00063883 -0.000338587 -1.65238e-18)
(-0.000647396 -0.000307743 1.65658e-17)
(-0.00067405 -0.000337423 -9.82647e-18)
(0.00380074 -0.00133704 7.51032e-18)
(0.00421874 -0.000958462 -2.33989e-18)
(0.00380431 -0.00113515 -3.80233e-18)
(-0.00143547 -0.00134323 -6.67746e-18)
(-0.0013184 -0.00138554 -1.05825e-17)
(-0.00145229 -0.00148343 -7.08728e-18)
(-0.000311801 -5.15716e-06 -9.10516e-19)
(-0.000317554 -5.75641e-06 4.16221e-18)
(0.00151987 -0.00391049 1.36207e-18)
(0.00196508 -0.00403925 1.48901e-18)
(-0.000171205 0.000827473 -1.37286e-18)
(-0.000168702 0.000808765 -9.54946e-19)
(-2.53303e-05 3.44684e-06 -2.91654e-18)
(-2.57767e-05 4.03686e-06 -8.64697e-19)
(-2.52992e-05 3.19418e-06 -4.60537e-19)
(-0.00345855 0.0018438 -1.6562e-17)
(-0.00334586 0.00179575 -1.25478e-17)
(-0.00315427 0.00198107 3.0908e-17)
(-2.16496e-05 -4.75825e-05 2.51708e-19)
(-2.11348e-05 -4.53271e-05 -9.4091e-20)
(-1.91692e-05 -4.82618e-05 -7.59379e-19)
(0.00792915 -0.00383757 -7.57439e-21)
(0.00782893 -0.00390643 1.85552e-17)
(-0.000319859 0.000203126 5.32801e-18)
(-0.000313683 0.000220497 5.11669e-18)
(6.56283e-07 7.37038e-07 -6.58749e-19)
(8.45347e-07 7.65711e-07 -2.09629e-19)
(-0.000297539 -0.00021921 -1.98631e-18)
(-0.000301258 -0.000224952 -3.97215e-18)
(-0.000291179 -0.000228432 2.33536e-18)
(-0.000468787 -0.000298709 6.63506e-19)
(-0.000451297 -0.000300561 -2.647e-19)
(-6.95275e-07 -0.000517413 2.1811e-17)
(-9.41468e-07 -0.000508394 1.14501e-17)
(-0.00241847 0.0057934 -5.35955e-18)
(-0.00265396 0.00516017 -9.41731e-18)
(-0.000353297 -0.00026597 -7.51814e-20)
(-0.000364856 -0.000271389 -2.15598e-19)