/*--------------------------------*- C++ -*----------------------------------*\
| =========                 |                                                 |
| \\      /  F ield         | OpenFOAM: The Open Source CFD Toolbox           |
|  \\    /   O peration     | Version:  v2012                                 |
|   \\  /    A nd           | Website:  www.openfoam.com                      |
|    \\/     M anipulation  |                                                 |
\*---------------------------------------------------------------------------*/
FoamFile
{
    version     2.0;
    format      ascii;
    class       volScalarField;
    location    "950";
    object      nut;
}
// * * * * * * * * * * * * * * * * * * * * * * * * * * * * * * * * * * * * * //

dimensions      [0 2 -1 0 0 0 0];


internalField   nonuniform List<scalar> 
13917
(
0.000429714
0.00219936
0.0127767
0.00315072
0.00672416
3.56537e-05
0.0125415
0.00952029
0.0110837
0.00027807
0.00117444
0.00155512
0.00329192
0.00145729
0.000597868
0.000816158
0.00225809
0.000632316
0.00180107
0.00672262
0.00672575
0.0135704
0.00672333
0.0120714
0.00673191
0.0128957
0.000162854
0.0001106
3.01246e-05
0.000327694
0.000460922
0.00076828
0.000221641
0.000577384
0.00585331
0.000186645
0.00672336
0.0118544
0.00271121
0.00302512
0.00673365
0.00672614
0.00672732
7.28607e-05
0.00348731
0.000489853
0.000730948
0.0007433
5.3322e-05
0.00672052
0.00146649
0.00197142
6.16798e-05
0.000517619
0.00202992
0.00120708
0.00134933
0.00340584
0.00128618
0.00344897
0.00655849
0.00253958
0.000326822
0.00672249
3.65838e-05
0.00141694
0.00672452
0.00631159
0.000671019
0.000380304
0.00672392
0.0107678
0.010074
0.00673045
4.66276e-05
0.00198921
0.00543757
0.00228811
0.0130326
0.00672512
0.00672455
0.00672415
3.56368e-05
0.0130333
0.00937972
0.00248498
0.00672414
0.000628555
0.00150876
0.00672897
0.0116694
0.000299011
0.00504156
0.00120227
0.000898096
3.6796e-05
0.000969679
0.000757389
0.00152755
5.67417e-05
0.00672251
0.000255226
7.05652e-05
0.00220286
0.00673326
0.010665
4.11717e-05
0.000836428
0.00215962
0.000401833
0.0110465
0.0037721
0.00177205
0.0131845
0.00121358
4.94802e-05
0.00672527
3.8343e-05
0.00510071
0.000530489
0.00672592
0.000904234
0.00635027
0.000131302
0.00672369
0.0013149
0.00334148
0.0067243
0.00672243
3.5453e-05
0.0118039
0.00117732
0.00333533
0.00672589
0.000964297
0.0114025
0.000426356
5.22252e-05
0.00672463
0.000555476
0.000420009
0.00675242
0.00150128
5.83722e-05
0.00528203
0.00894953
3.90087e-05
0.00185592
0.00674562
0.000641944
0.00100032
5.00377e-05
0.00142569
0.000296163
0.000941687
0.00356586
0.000434619
0.00137486
0.00327212
0.0012084
0.000799379
0.000158857
0.00672517
0.000980274
0.00184831
0.00155315
0.00219994
0.000917735
0.00456373
0.00025577
0.000280304
0.00383042
0.00167818
0.00166304
0.00814852
0.000248927
0.0125347
4.08567e-05
0.00944471
0.00504638
0.00029947
0.000455832
0.00675313
0.00672402
0.000417032
0.0123107
0.000300828
0.00333037
0.000775379
0.00153406
0.0001388
0.00934415
0.000236097
0.00672353
5.47719e-05
0.000162433
0.00432567
0.00475533
4.69296e-05
0.000206127
0.00200831
0.00672059
0.0010572
0.00117598
0.00803797
0.000592644
0.00673348
0.00362769
0.000790554
0.0120435
0.00166944
0.0130433
0.00421714
0.00164307
0.00673198
2.66733e-05
0.000862348
0.00477959
0.00672958
0.00696535
0.00549788
0.00038167
0.00672685
0.0125239
0.0109704
0.000759217
0.000203792
0.000954255
0.00673142
0.000206999
0.0017833
0.000826593
0.0109685
0.00258146
0.00672134
0.000715653
0.0129821
0.00742842
0.006725
0.00672219
0.00419011
0.000895293
0.00672561
0.000640111
0.000554278
0.000157764
0.000509089
0.006725
0.00021187
0.00348808
0.00532089
0.000254314
4.81331e-05
0.00349761
0.00363502
0.00133017
0.0072365
0.00120658
0.000351021
0.000660378
0.00672571
0.00400668
0.00876986
0.000241396
0.0067309
0.00897626
0.00356534
0.00309717
0.0130698
0.00219424
0.00672477
0.00672084
0.000757987
0.0102878
0.000642839
0.00138957
0.000606227
0.00212098
0.00672148
0.00609573
0.00672212
0.00900411
0.00194323
0.00672543
0.000582772
0.000275299
0.000167929
0.000261616
0.000364368
0.00420398
0.000161145
0.0110614
0.00778797
0.0067291
0.00394835
0.00672366
0.00431607
0.00672478
3.04221e-05
0.00672086
0.000382741
0.000518026
0.0047854
0.0010223
0.00154373
5.13765e-05
0.000274454
0.000306015
0.00586687
0.00395339
0.010132
0.00533282
0.00672559
0.00672426
0.00559344
0.00478622
0.0112366
0.00634619
0.0132659
0.00438213
0.000174195
0.0012826
4.81633e-05
0.000825033
5.52467e-05
3.40863e-05
0.000641666
0.000884754
4.70243e-05
0.00204768
0.0115281
5.55703e-05
0.00496649
0.000645198
0.00302109
0.000666083
0.0122813
4.03558e-05
7.85942e-05
8.09922e-05
0.011126
0.00672469
0.000296836
0.0122426
0.00239816
0.00112103
0.00420626
4.32409e-05
0.00191904
0.000270511
2.97492e-05
0.00672108
0.00365372
4.76258e-05
0.00672207
0.00672638
0.00672378
0.00674576
0.000523551
0.00849922
3.14153e-05
0.0115863
0.00672782
0.000249094
0.00118568
0.00100979
0.0136882
0.0119206
0.0119081
0.00672367
0.000320056
0.00672666
0.00608816
0.00355818
4.67932e-05
0.00047973
0.0025642
0.00672434
0.000822068
0.00028515
0.000681191
1.38484e-05
0.0118268
0.0024052
0.000196972
0.000292063
0.00672186
0.00788441
0.013622
0.00302532
0.000115699
0.00672692
0.000761772
0.0048317
0.00672488
0.00141457
0.0124883
0.0014565
0.00881653
0.00170518
0.00133677
3.27044e-05
0.00216023
3.07247e-05
3.08473e-05
0.00672308
4.36774e-05
0.00248872
0.00673016
0.000354509
0.00672547
0.00673296
0.00672642
0.000701472
0.00672534
0.00417799
0.0106943
0.000969957
0.000259048
0.0108396
0.00487219
0.00113606
0.00672656
0.000451542
0.00268517
0.000676683
0.00672369
0.00917286
0.0117941
0.0103269
0.000738414
0.000534169
0.000729853
0.00268051
0.000679121
0.00145174
0.000358694
0.0021995
0.00672219
0.0126428
0.0121159
0.0127054
0.000194245
0.000547569
0.0127676
0.0131595
0.00523427
0.00672176
0.000779985
0.00144055
0.00299657
0.000384784
0.000760531
0.00679771
0.00051271
0.00106698
0.00493024
0.00672316
0.000884688
0.000773681
0.000325768
0.0063502
0.00672549
0.00331623
0.00686146
0.00040463
0.00672349
0.0111286
3.39569e-05
0.000406711
0.006793
0.00122454
0.00108801
0.0138834
3.18298e-05
0.00138462
0.000282053
0.000895021
0.000453328
0.000498749
0.00149778
0.00131747
3.83527e-05
0.00172945
0.000797073
0.00677004
0.000767923
0.00135031
0.00676896
0.000433612
0.00242355
0.00576357
0.0114341
0.00554917
0.00672717
0.010667
0.0028203
0.00672546
0.00397571
0.00299632
0.000247731
0.00536775
0.00716373
0.000570737
0.000727085
0.00227814
0.0118688
0.000240601
0.00172502
0.00672567
0.00446121
5.08682e-05
0.00579996
0.00677052
0.00889789
0.0110069
0.0012908
0.0067265
0.00215394
0.00228085
0.000518149
0.00678753
0.00672511
0.00671993
0.00671998
0.00699007
0.000508564
0.00127616
0.000303857
0.00673211
0.00672207
0.000545112
0.0145214
0.000795053
0.00407216
0.00672974
0.00672807
0.00656781
0.00904224
0.00672395
0.00672813
0.000423815
0.00154627
0.00133426
0.0030588
0.00132621
0.000728919
0.000860215
4.91413e-05
0.000366478
0.00047492
0.000636984
0.000439511
0.000313742
0.00672842
0.00488749
0.00672754
0.000990338
0.00226367
0.000841089
0.000119584
0.00672389
0.000321813
0.000323064
0.000344203
0.000642543
0.00022499
0.00113814
0.00672399
0.0121003
0.000211688
0.0144035
0.00240019
0.00104819
0.000369734
0.0124854
0.000383688
0.00073915
0.000189199
0.000745564
0.00132126
0.00320666
0.000126892
6.83605e-05
0.00255255
0.0008876
4.98525e-05
0.0143569
0.00226312
0.00108843
0.00103398
0.000522138
0.000606244
0.00163595
2.94069e-05
0.00935797
0.0105585
0.000296255
0.00672303
0.00457215
0.00199511
0.00673241
0.000746862
0.00102891
0.000232085
0.000340765
0.0131281
0.000497818
0.00155473
0.0118302
0.00196386
0.00351972
0.00672519
0.00672383
0.00443509
0.0108567
3.37068e-05
0.00199498
0.00166429
0.00672747
0.00203237
5.3021e-05
0.00163409
0.00125953
0.00141979
0.000843453
0.00512652
0.000172208
0.00167697
0.000369586
0.00673194
0.000502057
0.00217773
0.00138826
0.000303505
0.000126633
0.000942396
0.00672016
0.00675829
0.00319101
7.89071e-05
0.000371612
0.00053805
1.4722e-05
0.000950573
0.00672089
0.000468189
2.97544e-05
0.000428128
0.0052905
0.000477608
0.00672501
0.0021534
0.00127656
0.0134098
0.00672495
0.000121227
0.00213418
0.00118796
0.000273797
0.00993455
0.00013179
0.00229234
0.00917128
0.000622449
0.00328065
0.00248733
0.00110204
0.000280081
0.000688863
0.00672483
0.0023422
0.000140099
0.00262086
0.000626151
0.00140445
0.00676067
0.00115875
0.0118753
0.00597038
0.00360912
0.00672017
0.0047832
0.0067257
0.000805869
0.00457352
0.00110547
0.00887159
0.000955379
0.000199499
0.00672016
0.00020337
0.00672439
0.000455358
0.00672
0.000154469
0.00324444
0.000643789
1.62997e-05
0.0144245
0.00683678
0.00672428
0.000326138
0.000431632
0.00651627
0.0138636
0.000700545
0.0067317
0.000704768
3.11098e-05
0.000417893
0.000372221
0.000800827
0.0125608
0.000422537
0.00220709
0.000397572
5.31929e-05
0.000685385
3.03094e-05
0.000648574
0.00284014
0.00105655
0.000594237
0.00679118
0.00216214
0.000405513
0.000662715
0.00672498
0.00672484
0.000891413
0.00240056
0.000557382
0.00652984
0.00672643
0.00672584
0.00137718
0.00673507
0.000941704
0.00672041
0.0066888
0.00171344
3.68952e-05
0.00672247
0.00672536
0.000131112
0.000477417
0.00132734
0.00818025
0.000217726
0.00429464
0.00211589
0.000523358
0.00298144
0.00672581
0.00671982
0.00141428
0.00248164
0.00672549
0.00159043
0.000835677
0.00159365
0.000168391
0.000214021
0.00129111
0.00673345
0.00672624
0.00183936
0.00532033
0.00174461
0.00629129
0.00159205
0.00672377
0.000970118
0.0067216
0.00673207
0.000725434
0.000401527
0.00422254
0.000525994
0.00582836
0.00672922
0.0135417
8.95634e-05
0.00232664
0.00260944
0.0068966
0.000683677
0.00266651
0.000247356
0.00285138
0.00672138
0.00673043
0.00170133
0.000479665
0.000997254
0.000586272
0.0104094
0.00235504
0.000940732
0.00205803
0.00672702
0.00148195
0.00381681
0.00672184
0.000408808
0.000147037
0.00251544
0.0106173
0.00580198
0.000286912
0.00672911
0.00674375
0.00162776
0.00187885
0.00672545
0.000342455
0.00674134
0.000440524
0.00681015
0.00679198
0.000278208
0.00401205
0.004784
0.000532924
0.00672582
0.00672804
0.00342585
0.00673633
0.00362433
2.37309e-05
0.00578058
0.00677526
0.0125234
0.0087068
0.00171928
0.000401032
0.000689707
0.00152926
0.00675375
0.000400322
0.00711652
0.000143366
0.00672385
0.0026338
0.0131308
0.000969398
0.0127934
0.00672569
0.00122045
0.00363329
0.00109083
0.00246416
0.00217595
3.97774e-05
0.00673538
0.000411973
0.00671986
0.00402159
0.00672321
0.0104396
0.00673356
0.00582945
0.00675465
0.00626831
0.00266815
0.000237077
8.78749e-05
0.0067856
0.000254056
0.00672383
0.0119095
0.00672274
0.0053821
0.00672381
0.00162593
0.00672366
0.000522387
0.00350388
0.0100588
0.000477078
0.000238079
0.00615373
0.00406572
0.00307795
0.00670218
0.00765035
0.0108482
0.0136808
0.000217365
0.000419202
0.00225792
0.0131955
0.00111524
0.0138071
0.00676527
0.00509729
0.00249962
0.00672372
0.00148279
0.000302912
0.00698826
0.00524739
0.00672641
0.00172112
5.56628e-05
0.00355252
0.000219262
0.000873905
0.00311022
2.24181e-05
0.000163146
0.000870489
0.00313267
0.00358325
0.00307012
3.88993e-05
0.00680806
0.00027254
0.000339037
0.00737327
0.0113134
0.00181057
0.00498427
0.00287257
0.00229567
0.00672954
0.00138546
0.00672009
0.000779453
0.000379101
0.00709182
0.000736455
0.00592904
0.000533257
0.013448
0.000420235
0.00196084
0.00420445
0.00480392
0.00191994
0.00019301
0.00626083
0.00672363
0.00673271
0.01334
0.000312419
0.000306207
0.000652958
0.000337912
0.00673238
0.000496643
0.00195206
0.00672319
0.00192196
0.012651
0.00448377
0.00678107
0.00672914
0.00357976
0.00101594
0.00166529
0.00102414
0.00586413
0.00199179
0.000499766
0.00656781
0.000461098
8.77203e-05
0.0128325
0.00360068
0.000144887
0.000998965
0.00898246
0.013038
0.00673114
0.00978011
0.000682337
3.89122e-05
0.00672367
0.0126054
0.006725
0.00113723
0.000393704
0.000642005
0.0116349
0.000264459
0.00117044
0.00939848
0.00672041
0.000811192
0.00679503
0.000628908
0.0129539
0.00284588
0.00672526
0.0017844
0.00307774
0.00756584
0.00672965
0.00672326
0.00119603
0.000459159
0.00097391
3.27287e-05
0.00153834
0.00244595
0.00208321
0.000876083
0.00211635
0.00784153
0.00158708
0.00415772
0.0133421
0.00195318
0.00653449
0.0108289
0.00037958
0.00191409
0.000495459
0.000773676
0.00395447
0.00151932
0.00276163
0.00038742
0.00672627
0.000846252
5.43833e-05
0.00672594
0.000516349
0.00594911
0.000151589
0.00672023
0.000514078
0.000759649
0.00231649
0.00387726
0.00669139
2.63357e-05
0.000256424
0.00823351
0.00601959
0.00262872
0.000915897
0.00397213
0.000416983
0.000258874
0.00453353
0.000549521
0.00655218
0.00700375
0.00207679
0.0017212
0.00529162
0.000815776
0.0067329
0.00112774
0.00252036
0.00672311
0.00672492
0.00850798
0.0119615
0.000746784
0.00124942
0.00672241
0.00393244
0.0122579
0.00164198
0.0067334
0.000457852
0.00652435
0.000651413
0.00672449
0.0067322
0.00243973
0.00151725
0.00941503
0.00257918
0.00205051
0.00673191
0.00064552
0.00672112
3.27068e-05
0.000525695
0.00672567
0.00872184
0.000187888
0.000756745
0.0133239
3.21213e-05
0.00677642
0.00201124
0.00323779
3.37858e-05
0.000571092
0.00929467
0.00550619
0.000864027
0.0139626
4.29569e-05
0.000896621
0.00140167
0.000143676
3.55695e-05
0.0108291
0.000121607
0.000345268
0.0136528
0.00163165
0.000767913
0.00836506
0.000102352
0.00676756
0.00211778
0.00533538
0.000333727
0.00580185
0.000192664
0.000406603
0.000458726
0.0084443
0.00114569
0.00900722
0.00210059
0.000462154
0.00049809
0.00027285
0.000922853
0.00669868
0.00171794
0.0102897
0.00672522
0.000792673
0.00675305
0.00135966
0.00503364
0.000252122
0.00135835
4.02973e-05
0.000164225
9.71573e-05
0.00964118
5.1067e-05
0.00505673
0.000974758
0.0116741
0.00674199
0.00672518
0.000920742
0.00339899
0.00672526
0.000585002
6.63602e-05
0.000280661
0.0036142
0.00309108
0.00568525
0.000519133
0.000286036
0.00672035
0.000652282
0.0126552
0.000227161
0.000334099
0.00147188
0.000394002
0.00117624
0.00150994
0.00925356
0.000809886
0.00181931
2.04971e-05
0.00076459
0.00672598
0.00474309
0.00286824
0.00501314
0.00139687
0.000220759
0.00673266
0.00117605
0.00672159
0.000937693
0.00679002
0.00022256
0.0014483
0.000405545
0.00428133
0.00024013
0.00479513
0.00871582
0.00672778
0.000574667
0.00672377
0.000847808
0.00845107
0.00144745
0.00673415
0.000791339
0.00350454
0.000669173
0.0116207
0.00420272
0.00182192
0.00048351
0.000767727
0.0138477
0.0067331
0.000450298
0.00318834
0.00672461
0.000299441
0.00191184
0.00672202
0.000915772
0.00442848
0.00116376
0.000462011
0.00922678
0.000665945
0.010257
0.0012363
0.00672202
0.000377693
0.00286772
0.00313273
0.000341502
0.00132442
0.000662522
0.00673528
0.000589171
0.000511705
0.000589446
0.00674145
0.00672723
0.00121889
0.00173192
0.00672613
0.000239902
0.00676209
0.000731162
0.000778651
0.00120799
3.8083e-05
0.0132831
0.00258712
0.00131099
0.00322804
0.0021141
0.00153662
3.55838e-05
0.00332026
0.000826881
0.00527273
0.000984528
0.000407258
0.000631461
0.00677384
0.00672549
0.00672265
0.00333681
0.000452963
0.00679419
0.00084712
0.00187521
0.00184496
0.000285803
0.0104001
0.000338937
0.00180645
0.0129938
0.00245852
0.0040691
0.00241599
0.000120937
0.00673536
0.00414805
0.00479935
0.00334145
0.00308996
0.0122515
0.000345419
0.00225571
0.00672068
0.00562424
0.0142686
0.002616
0.00014767
0.00091141
0.00672713
0.000586595
0.000725929
0.00672834
0.00672213
0.0129295
0.00553285
0.0026861
0.00191192
0.00323647
0.000743815
0.000213121
0.00474308
0.00138417
3.01866e-05
0.00376677
0.000370452
0.000918765
0.0029273
0.0016429
4.75852e-05
0.000366018
0.00672588
0.00134008
0.0112204
0.000973727
0.000134381
0.0122833
3.87247e-05
3.91621e-05
0.000586743
0.00219245
0.00672505
0.00672768
0.00328346
0.000900557
0.0022947
0.00287043
0.00140619
0.00672587
0.00421765
0.00580988
0.0013408
0.00188058
0.00850716
0.000162101
0.00167751
0.0096333
0.000411721
0.000836118
0.00672265
0.000504498
0.00290364
0.00268116
0.00122968
0.000949531
0.000699149
0.000106355
0.0115638
0.000335571
0.0048692
0.0107762
0.00672782
0.00309666
0.000174479
0.00672581
0.00526655
0.000805064
0.00889642
0.00638164
0.010033
0.00269253
0.00677634
0.00128399
3.35877e-05
0.000665776
0.00261298
0.00591087
0.00163347
0.000746184
0.0122798
0.00672506
0.000136058
0.00672061
0.00333613
0.000598114
0.00572001
0.0119121
0.000801983
7.61913e-05
0.00672603
0.0041711
0.000396616
3.39668e-05
0.00327826
9.22381e-05
0.00415857
0.0067759
2.479e-05
0.00274202
0.000466957
0.000108508
0.00672504
0.00683805
0.00106375
0.000730336
0.000555063
6.61445e-05
0.000239833
0.00019124
0.00161928
0.0122933
0.000361219
0.00281482
0.00036835
0.0013085
0.00381713
0.000479018
0.00372495
0.00209102
0.0108928
0.00172886
0.00674475
5.03035e-05
0.00239523
0.00452631
0.00240768
0.0107784
0.000400326
0.000478466
0.00672517
0.00672574
0.0067245
0.00672275
0.000499797
0.000146529
0.000180743
0.000887588
0.00672196
0.000846858
0.00230663
0.000517191
0.00199866
0.00430974
0.00112689
0.000920938
0.00214366
3.84265e-05
0.00950541
0.000140728
0.0100314
0.00240162
0.00673616
8.22351e-05
0.0063522
3.63433e-05
0.00672376
0.00220016
0.00120082
0.0127061
0.00418045
0.000360141
0.0043227
0.000154255
0.000891786
0.0118317
0.000570103
0.00122345
0.000950418
0.00105473
0.000264978
0.00190941
0.00672366
0.000384516
0.007618
0.00672372
0.00206584
0.00672542
0.00396603
0.00732463
0.0126269
0.00672152
0.00403238
0.00212477
0.00555785
0.000235266
0.000696343
0.00350159
0.00672276
0.00672256
0.00177465
0.000814519
0.000777462
0.000408271
0.00582733
0.0133434
0.00216017
0.0147765
5.32061e-05
0.000531353
0.000194612
0.00102126
0.013074
0.000906874
0.00112358
0.00186674
0.0105754
0.01008
0.00672161
0.00672442
0.000305986
0.0123476
0.00649182
0.00675752
0.00339764
0.0122836
0.000389608
0.0011931
0.00124143
0.000795972
4.26043e-05
0.00228981
0.0134393
0.00411344
0.000634868
8.70281e-05
0.0035285
0.00673424
0.00672015
0.000526121
0.00873828
0.00130036
0.0019849
0.00140595
0.000141298
0.00338813
0.00157686
0.00840479
0.00268626
0.00484266
3.92438e-05
0.00672712
0.00672368
0.00996556
0.00672742
0.00676431
0.00125334
5.02948e-05
0.000870206
0.0034609
0.000379165
0.00672624
0.0133911
0.000556082
0.00503057
0.00269696
4.61771e-05
0.0006088
0.00409773
0.00101026
0.0134525
0.00672383
0.00854191
0.00425367
0.00873403
7.75235e-05
0.000227417
0.00539842
0.00231388
0.00018951
0.00125137
0.00944672
0.000577798
0.00017498
0.00063732
0.0011935
0.000401555
0.00436389
0.00140613
0.0119036
0.00287027
0.0067277
0.0044116
0.00109759
0.00316921
0.000699779
0.00672655
0.000582299
0.00209614
4.31326e-05
0.000143661
0.00546077
0.00672047
7.03235e-05
0.00279979
0.000825643
0.00115739
0.000521213
0.004097
0.00190772
0.00156331
0.00220293
0.00742267
0.0129251
0.00672548
0.00672011
0.00207936
0.00162977
0.00672816
0.00199462
0.000683055
0.000966102
9.44477e-05
0.00676968
0.013736
0.00749249
0.00672604
0.00207082
0.00111853
0.00171837
4.11842e-05
0.00212333
0.00705517
0.000400537
0.00111565
0.000836931
0.00672689
0.000811051
0.00426835
0.00340619
0.000299483
0.00884787
0.0101057
0.00672529
0.00672133
0.00147419
0.00366222
0.000444506
0.00160873
0.000435373
0.00216163
0.0106216
0.00322264
0.0143267
0.00672709
0.0127662
0.00246182
0.00672762
0.00831769
3.28572e-05
6.04895e-05
0.000582477
0.000147587
0.000888211
0.00609915
0.00698697
0.00672823
0.00672769
6.63026e-05
0.00184405
0.00377822
0.00896645
0.000496581
0.0098441
0.000384848
0.000229882
0.00679099
0.0014237
0.00150712
0.0133867
0.00066051
0.0128591
0.00679215
0.00385446
0.00346776
0.00346384
0.000226312
3.99873e-05
0.00202599
0.00672371
0.000664793
0.000827074
0.000923531
0.000632363
7.32084e-05
0.00672167
3.05197e-05
0.00036903
0.00261842
0.000613508
0.0012235
0.00144803
0.0140637
0.00671993
0.000429004
0.011309
0.00145589
0.000926068
0.000660944
5.0413e-05
0.00134389
0.00371657
0.00140528
0.000812285
0.00211271
0.000390215
0.00270931
0.0130369
0.00672296
9.05363e-05
4.06505e-05
0.0122437
0.000619396
0.000359331
0.00197131
0.000145549
0.00672555
0.0120583
0.00157845
0.00426835
0.00100779
0.00672226
0.00672569
4.27564e-05
0.00672544
0.00672325
0.00319458
0.000942359
0.00211087
0.000521855
0.00105602
0.000244616
0.000384846
0.00672524
5.89705e-05
3.10749e-05
0.000319147
0.000366665
0.000437907
0.000600624
0.00917345
0.000345509
0.00672606
0.00561576
0.0108971
0.00672603
0.00142909
0.00672468
3.52218e-05
0.000300368
0.00406577
3.78935e-05
0.0128373
0.00672296
0.00216084
0.0119914
0.00790461
0.00188514
0.00672972
0.00324835
0.0113038
4.7633e-05
0.0067245
0.0137153
0.0019268
9.26013e-05
0.011326
0.00127792
0.00672525
0.000926777
0.000293037
0.00105241
0.0123816
0.0140113
0.00674567
0.00880596
3.50454e-05
0.00799756
0.00672785
0.000113754
0.00202042
0.00524066
0.0146168
0.00147743
0.000814051
0.00206523
0.000448798
0.00063291
0.00682165
0.0133716
0.00381449
0.00673334
0.0025465
0.00027142
0.00618138
0.000872934
0.0143532
0.00856972
0.000642587
0.00237897
0.00429433
0.0145498
0.000652002
0.000780014
0.00674444
0.00129893
0.000304616
0.00177673
0.00033822
2.69112e-05
0.00672359
0.000778373
0.00683848
0.000156356
0.00717745
0.00294621
0.00672503
0.00672632
0.00172746
0.000565553
0.00231997
0.0145773
0.0132754
0.00676744
0.00673574
0.00672392
0.00672225
2.30821e-05
0.00678128
0.0119801
0.00046755
0.00195184
0.00524478
0.000314426
0.0141589
0.00104499
4.19994e-05
0.00798107
0.00200367
0.00373863
0.000255629
0.000208326
4.57868e-05
0.00378185
0.00776963
0.00184489
0.00673641
8.87705e-05
0.00678115
0.000605086
0.00216966
0.0103947
0.000322181
9.41848e-05
0.000338372
0.000668178
0.00672369
0.000262909
0.00131104
0.00672572
3.8579e-05
0.00672245
0.00207219
0.000871241
0.00238224
0.00741611
0.00116745
3.48602e-05
0.00129601
0.00672548
0.00967709
0.0129585
0.000753584
0.000250742
0.00155353
0.000349754
0.00140425
0.00206611
0.000604742
0.00148191
0.000847853
0.00062141
0.0105891
0.000134679
0.000285743
0.00169899
0.00291874
0.0146934
0.00672054
0.011919
0.000760868
0.0124746
0.000497591
0.00241349
0.00420939
0.00076112
9.14028e-05
0.00420227
0.0145356
8.52103e-05
0.00522595
0.00278135
0.00906248
0.00104006
0.00232653
0.000603579
0.00068751
0.00122246
0.00663441
0.006726
0.00204139
0.00157889
0.00037958
0.00672356
0.00132428
0.00673794
0.0104085
0.000920648
0.000369433
0.000765462
0.000815114
0.000201315
0.00126034
0.000351536
0.00674256
8.11057e-05
0.0140999
0.00279003
0.00337384
0.00949053
0.00103902
4.12412e-05
0.00672827
0.000793459
0.0138055
0.00178279
0.00548314
0.00355169
0.000240516
0.0142791
0.00348029
0.00673961
0.00253314
8.92949e-05
0.000839607
0.0126265
0.000829304
0.000163255
0.000419079
0.000347345
0.00276581
0.00804566
0.00937647
0.00131478
0.00081543
0.00124768
0.000327231
0.0058732
0.000884974
0.00204135
0.000237197
0.00673321
3.43357e-05
0.00539047
0.0033691
0.00521418
0.00123571
0.00321694
0.0141957
0.00672654
0.00117143
0.00672512
0.00146761
0.0011538
0.000166542
0.0104643
0.000494778
0.00672131
0.000361251
0.00113352
0.00340585
0.000779355
0.00675646
0.00607082
0.0128292
0.000850206
7.19908e-05
0.00672146
0.000681566
0.00147573
0.000785558
0.00675492
0.00340029
0.00672289
0.00121312
0.00672375
0.00142969
0.00278646
0.00615094
0.0117377
0.00503647
0.000887315
0.00201982
0.00672594
0.0123386
0.00522708
0.000424838
0.0140374
0.00183762
0.0107395
0.00350489
0.0132383
0.00184606
0.0131628
0.00118522
0.00113227
0.00434091
0.000864998
0.00127956
0.00141734
0.000340602
0.0130104
0.000320975
0.000210403
0.000535416
0.00121038
0.000215065
0.000251272
0.000651479
0.00442021
0.00445303
0.00116002
0.000199203
0.000613727
0.000853293
0.0101745
0.00808147
5.96706e-05
0.00351842
0.00203449
4.18586e-05
0.00167652
0.000777152
0.00307163
0.00863899
0.00482316
0.00208764
0.00527057
0.00157106
0.00764839
0.000127335
0.00672786
0.00475337
0.00319138
0.0052287
0.000907412
0.00149218
0.000451142
0.000852399
0.00249683
0.00133659
6.86933e-05
0.000165436
0.000476033
0.0100864
0.0118432
0.00498045
0.00672624
0.00481553
7.26865e-05
0.00308949
0.00015338
0.00977395
0.0113399
0.00672867
0.00639471
0.0122967
0.000251591
0.00673183
0.00674526
0.00049099
0.00420263
0.0128359
0.000957771
0.000496561
0.00672457
0.000644105
0.00128806
5.15157e-05
0.000273349
0.000195177
0.00177297
0.000608754
0.00074765
0.0013607
0.00328794
0.000938783
0.0124456
0.000730322
0.00311859
0.00672347
0.0133366
0.000314762
0.000394316
0.00672361
0.0067257
0.000233405
0.00704493
0.000100882
0.00582333
0.0052309
0.00149655
0.0130284
0.00142482
0.00677256
0.0045494
0.000220185
0.000727318
0.00672526
0.0115366
0.00829929
0.00466346
0.000254387
0.00696326
0.000326682
0.00322434
0.00655184
0.00240659
0.00200125
0.000405237
0.000798102
7.24959e-05
0.000366033
0.00674079
0.00242573
0.00931028
0.0058014
0.000356932
0.000480403
0.00482678
0.000620448
0.0067253
0.000950229
0.000711773
0.00672238
0.00967644
0.00672711
0.000274856
0.0134989
0.000464825
0.00236692
0.00672627
0.0139063
0.0067265
0.00117305
0.00190249
0.000137645
0.000148546
0.000799021
0.0132338
0.000196272
0.000166898
0.00146958
0.00103121
0.00608842
0.00672377
0.00417525
0.0125682
0.00020385
0.00126753
0.000877263
0.000920803
0.00802662
0.0139322
0.000734133
0.000538949
0.00672561
0.012096
0.00445595
0.00390239
0.000791754
0.00129703
0.000426427
4.19628e-05
0.000172098
0.000427401
0.00083724
0.0143644
0.00145193
0.00672256
0.00304079
0.000152047
0.00673932
0.0101528
0.0067213
0.0067237
0.000594331
0.000164051
0.00313656
0.00673934
0.000685322
0.00673527
3.39984e-05
0.00552045
3.39596e-05
0.00253643
0.0129294
0.00947364
0.000434742
0.000315067
0.00957651
3.57426e-05
0.0067246
0.000381451
0.000170079
0.000323423
3.91081e-05
0.0107319
0.0116193
0.0130586
5.07764e-05
0.00236807
0.00103411
0.00672094
0.00433959
0.00107981
0.00290787
0.00141222
0.00208962
0.00584259
0.000754735
0.0119769
0.0067249
0.0014623
0.00672009
0.00863124
0.00154781
0.0133802
0.0104542
0.000196067
0.00672445
0.00554945
0.00825426
3.68067e-05
0.00672373
6.70872e-05
0.00672499
0.000207918
4.55879e-05
0.000551064
0.00103471
0.00287918
0.00674518
0.00615781
0.00102493
0.0107625
0.00074132
0.000260104
0.00531893
0.00188506
0.00673019
0.00672287
0.00167139
0.00450806
0.00128145
0.0107997
0.00064853
0.00194145
0.0138606
0.000285886
0.00672584
0.00125893
0.00673195
3.89127e-05
0.00412985
0.000770461
0.00569967
0.00672518
0.00650056
8.60817e-05
0.00333346
3.17986e-05
0.00677045
0.000255912
0.00688118
3.86718e-05
0.00672385
0.001087
0.00165084
0.000205072
0.00980654
0.00672627
0.00762922
0.000333087
0.00020574
0.00680634
0.00673062
0.0105708
0.000600172
0.00423326
0.00458873
0.000886788
0.000983526
0.000179152
0.0142577
0.00137979
5.89834e-05
0.00129186
0.00672822
0.00893138
0.00350118
0.0132539
0.00487945
0.00195354
0.00672366
0.00931088
0.0124561
0.00672824
3.85206e-05
0.0009643
0.00672124
0.00481022
0.00673981
3.99597e-05
0.0138399
0.000348414
0.00256244
0.000587104
0.00672416
0.00335167
0.00153143
0.0067222
0.000640552
0.00334996
0.0015439
0.000294191
0.000576616
0.00672142
0.00911273
0.000913971
0.00672396
0.000266203
0.00113833
0.000507646
0.000667633
0.00647159
0.000501335
0.00359358
0.00036392
0.00038282
0.00138992
0.0129278
0.00151863
0.00227175
0.000530549
0.00469795
0.000158224
6.8981e-05
0.000165958
0.00672495
0.00434442
0.00672583
0.000251445
0.00141236
0.00128767
0.00836019
0.00692736
0.0105413
0.00672575
4.31142e-05
0.0136442
0.0146609
0.00528856
0.00324739
0.000952936
0.0131788
0.000860005
0.00128534
0.000347651
0.00671344
0.000242339
5.64298e-05
0.000571049
0.0119452
0.000153786
0.00673997
0.000159413
0.000772728
0.00251633
0.00316455
0.00146764
0.0127892
0.000356405
0.00833005
0.00118908
0.000908861
0.00295668
0.000172431
0.00888484
0.00233469
0.00113139
0.0113616
0.00915526
0.000463462
0.00194763
0.000978415
0.00174468
7.62798e-05
0.00155156
0.000100564
0.0144399
0.00674742
0.00342698
0.000211956
0.00033002
0.00672088
0.00672348
0.00170611
3.83215e-05
0.0046403
0.000518674
7.73129e-05
0.000175134
0.010218
0.0131327
0.0138539
0.0139614
0.000657149
0.00675183
8.39202e-05
0.00616088
0.00592158
0.0043807
3.51505e-05
5.79788e-05
3.18981e-05
0.00406
0.00672556
2.78132e-05
0.0015981
0.00110421
3.1417e-05
0.00597866
0.00672595
4.16909e-05
0.0137046
0.00226445
9.05444e-05
0.000542444
0.00673092
0.000671116
0.0132581
3.85235e-05
0.00672551
0.00387861
0.000637874
0.00160092
0.00672823
0.00249971
0.00250436
0.0033704
0.00252851
0.000338741
0.000240345
0.000183561
3.44543e-05
0.00124243
0.010125
0.000639197
0.00223936
0.000667509
0.00234967
9.95154e-05
0.00667284
0.000596985
0.000419944
0.000572338
5.80675e-05
0.00332113
0.000191783
0.00229712
0.0100086
0.000761475
0.00390562
0.00517982
0.00433732
1.64964e-05
0.00122602
4.02853e-05
3.82385e-05
3.84917e-05
0.000551923
0.000300408
0.00512251
0.00268078
0.0085943
0.000350737
0.000121738
0.00400071
0.00457811
0.000601149
0.0137261
0.00672159
0.00605694
0.000132565
6.67543e-05
0.000278641
0.00526138
0.00672267
0.00106534
0.0031564
0.00218553
0.00097486
9.21133e-05
0.000190248
0.00402435
0.00304501
0.00279418
0.00672503
0.0094583
0.00220977
0.00925491
6.78705e-05
0.00431353
3.61568e-05
0.000135328
0.0117247
0.00244521
0.00206278
0.00667691
0.00672383
0.00302965
3.72799e-05
3.78455e-05
0.0126701
0.00672378
0.00329873
5.24058e-05
0.00672541
0.000365841
0.000881997
4.67763e-05
4.53257e-05
0.000215872
0.000257491
0.00674117
0.000643717
0.000286106
5.47755e-05
6.81608e-05
0.000216669
0.00672295
8.49837e-05
0.00597506
0.000214228
0.0133693
3.68835e-05
0.00319048
6.57755e-05
0.00338347
0.000792604
0.00192302
0.00338466
0.000385815
0.00247997
0.0129903
7.24748e-05
0.000220035
7.133e-05
0.000195371
0.0113359
0.0137497
0.000448708
0.0123538
0.000112587
0.00544609
0.000110212
0.0143675
6.57223e-05
0.00672509
0.000513423
3.378e-05
0.000484538
0.00273487
0.00308552
0.00021315
0.00672464
0.00565732
0.00173504
5.35365e-05
0.00672558
0.00673697
0.0119164
0.000287403
0.00699952
3.64552e-05
0.0133701
0.000371776
0.00673746
0.00115329
0.00675858
0.000162138
0.000709133
0.000386883
0.000796724
0.000247868
0.00676462
0.0128641
0.00110602
0.000537255
0.0134605
5.47071e-05
0.00535457
0.0141825
0.00434844
0.00281202
0.00672392
0.000407798