/*--------------------------------*- C++ -*----------------------------------*\
| =========                 |                                                 |
| \\      /  F ield         | OpenFOAM: The Open Source CFD Toolbox           |
|  \\    /   O peration     | Version:  v2012                                 |
|   \\  /    A nd           | Website:  www.openfoam.com                      |
|    \\/     M anipulation  |                                                 |
\*---------------------------------------------------------------------------*/
FoamFile
{
    version     2.0;
    format      ascii;
    class       volVectorField;
    location    "950";
    object      U_0;
}
// * * * * * * * * * * * * * * * * * * * * * * * * * * * * * * * * * * * * * //

dimensions      [0 1 -1 0 0 0 0];


internalField   nonuniform List<vector> 
13917
(
(1.09265 0.121822 0)
(1.0195 0.0417302 -5.32375e-24)
(0.569806 -0.0568385 8.01171e-23)
(1.05696 -0.00785793 -1.62016e-20)
(0.996176 0.00258081 0)
(0.358881 0.049204 0)
(0.49904 -0.0480622 -1.22208e-20)
(0.576348 -0.0557586 0)
(0.410372 -0.0586309 0)
(1.13523 0.150847 0)
(1.11645 -0.0500765 6.53146e-20)
(1.09483 -0.03698 0)
(1.05751 -0.00855756 -2.25173e-22)
(0.00232938 -0.000652609 -1.33081e-20)
(0.970186 0.0927375 -1.46906e-20)
(0.993271 0.0878248 0)
(1.01382 0.0466892 0)
(1.13689 0.0235386 8.33998e-20)
(1.09376 -0.0366304 -5.43496e-21)
(1.00139 0.00458522 -4.06723e-21)
(0.999972 0.000918803 -8.23517e-21)
(0.478002 -0.0468456 0)
(1.00079 0.00754215 6.93958e-21)
(0.633462 -0.0596674 -1.64899e-20)
(0.994613 0.014348 -2.60611e-21)
(0.5066 -0.0461889 2.20276e-20)
(0.782622 0.0303497 -4.70118e-20)
(0.756412 0.117812 3.57681e-20)
(0.730962 0.564456 1.52973e-20)
(1.18959 0.0923184 9.30399e-20)
(1.10702 0.112128 -8.36764e-22)
(1.05772 0.0896574 -2.27717e-20)
(0.83646 0.0656463 -1.2938e-20)
(0.910313 -0.00161415 0)
(0.991133 0.0112276 4.58185e-21)
(1.12748 -0.0620819 2.52671e-20)
(1.00072 0.00708802 0)
(0.125653 -0.0227204 0)
(1.06423 -0.0125541 5.3757e-21)
(0.265892 -0.0047561 0)
(1.00832 0.000796757 0)
(0.999989 0.00040521 -6.29094e-22)
(1.02073 0.00283187 -1.05203e-21)
(0.701705 0.19984 -8.88153e-20)
(1.0381 0.0254552 -6.42702e-21)
(0.891484 0.0119574 0)
(1.1345 0.0218462 -7.12346e-20)
(1.13761 -0.00728477 -2.54447e-20)
(0.104004 0.131581 -2.65693e-19)
(1.00335 0.000772814 0)
(1.08445 0.0179123 0)
(0.965091 0.00797419 1.99903e-20)
(0.0750112 0.110083 4.22066e-19)
(0.90566 -0.000406585 0)
(1.01262 0.0476355 -1.47073e-21)
(1.08343 0.0407236 2.17675e-20)
(1.11712 -0.049489 -4.60362e-20)
(0.994791 0.0287391 0)
(1.06952 0.0464307 0)
(1.03668 0.0249584 6.60411e-21)
(0.551642 0.0530599 1.29768e-19)
(1.021 0.041855 0)
(-0.013654 0.00367678 0)
(1.00149 0.00497511 -2.19216e-21)
(0.385456 0.0613678 0)
(1.05576 0.354891 2.69801e-20)
(0.995446 -0.00127461 -1.2863e-20)
(0.988056 -0.00237558 -1.80855e-20)
(1.14832 -0.0401651 0)
(1.05999 0.135555 1.86541e-22)
(0.996562 0.0027623 5.76775e-21)
(0.469388 -0.0656934 0)
(-0.080442 -0.0166177 0)
(0.995212 0.0139949 3.71829e-21)
(0.105751 0.205187 0)
(1.08844 -0.0434887 -5.76268e-21)
(-0.0802626 -0.00879408 -6.35468e-20)
(1.05304 0.0284546 1.30926e-20)
(0.514783 -0.0428378 0)
(0.999885 0.00186391 -7.4642e-21)
(1.00005 0.00290692 6.07007e-21)
(0.996 -0.00115519 1.29392e-20)
(0.404744 0.12444 1.36344e-19)
(0.151797 -0.0267304 2.2006e-20)
(-0.0886848 0.0188014 0)
(1.05204 0.0272635 -5.68719e-21)
(1.0003 0.00380706 -2.50565e-21)
(1.19512 0.427783 0)
(1.08266 0.0177779 -5.41378e-23)
(1.0212 0.00286811 -6.28862e-21)
(-0.00197686 -0.0231873 1.9636e-20)
(1.17117 0.131288 0)
(1.0224 0.0237959 -6.62362e-22)
(0.972649 0.0519361 7.17579e-23)
(1.14687 0.422937 -6.5998e-20)
(0.385927 -0.0120734 6.30353e-20)
(1.12901 -0.0387674 0)
(1.13793 0.00154241 2.42061e-20)
(1.09454 -0.0518179 2.23864e-20)
(0.608054 0.125071 -9.12168e-20)
(1.01103 0.0058494 1.90956e-22)
(0.844569 -0.00267411 -5.35156e-20)
(0.691593 0.184776 1.00705e-19)
(1.06062 0.0222084 2.06628e-20)
(1.01606 0.0124557 1.7856e-21)
(0.482124 -0.0609007 5.73447e-20)
(0.810599 0.503402 -1.93878e-20)
(1.13992 -0.0084241 -2.99507e-20)
(1.01565 0.047263 5.42147e-22)
(1.10709 0.126651 0)
(-0.16617 -0.00898574 1.28699e-19)
(0.274009 -0.00538597 -3.53953e-21)
(1.09664 -0.0427401 2.21503e-21)
(0.444713 -0.0605177 3.0532e-20)
(0.94789 0.00643115 3.79237e-20)
(0.0827436 -0.120558 2.51444e-19)
(1.00051 0.0134599 6.95139e-21)
(0.200094 0.0898866 -2.47445e-19)
(0.161828 -0.00656824 -5.31381e-21)
(0.906838 0.0122014 -1.22193e-20)
(0.999983 0.000786231 7.96754e-22)
(1.14903 -0.0388682 -2.44044e-20)
(0.132731 -0.00807748 0)
(0.765315 0.111102 -8.20197e-20)
(1.005 0.000681942 -1.34648e-21)
(0.974105 0.0493712 -9.67405e-21)
(1.03344 0.028749 0)
(1.00463 0.000551962 1.19233e-21)
(1.01795 0.00190941 -1.52068e-21)
(0.361244 0.00224395 0)
(0.228459 -0.020791 0)
(0.950359 0.00554132 -2.9141e-20)
(1.03842 0.0264499 -7.63913e-21)
(0.999976 0.000724925 8.00834e-21)
(1.26987 -0.00447607 -4.5998e-20)
(0.649202 -0.0627444 1.58273e-20)
(1.09007 0.12629 0)
(0.584196 0.126217 -3.95919e-20)
(0.995119 -0.000887733 1.92607e-20)
(0.907855 0.00795618 4.41931e-20)
(1.11751 -0.0598909 3.27113e-20)
(1.0243 0.0136755 0)
(0.961757 0.0200407 3.90048e-20)
(0.653952 0.19635 -5.324e-20)
(0.987397 -0.00207331 2.16092e-20)
(0.68404 -0.0671502 0)
(0.801001 0.570114 8.77281e-21)
(0.967009 0.00845211 -5.45495e-22)
(1.02302 0.0115596 -1.68837e-21)
(1.0526 0.0985794 0)
(1.11563 -0.0160755 -2.06122e-21)
(0.0921908 -0.15425 -2.77907e-19)
(1.11242 -0.0368058 1.94717e-20)
(1.02278 0.178255 -3.96544e-21)
(1.07448 0.0646748 -1.77115e-20)
(-0.0513988 0.0541002 4.25946e-20)
(1.05533 0.132761 -1.17224e-21)
(1.12784 -0.0656108 5.52138e-20)
(-0.101687 -0.00610287 5.34059e-20)
(1.26473 -0.00242032 -6.16029e-20)
(0.939038 0.0419142 1.19997e-20)
(0.783633 -0.0300357 -9.19223e-20)
(1.00001 0.00200124 -3.06304e-21)
(1.12735 -0.0381176 0)
(1.09717 -0.0420706 7.30736e-21)
(1.09535 -0.0513312 0)
(1.05969 0.0230279 -1.04809e-20)
(1.12576 -0.00931402 3.81194e-20)
(1.03154 0.0217508 -3.47856e-21)
(0.837693 -0.00700401 8.92132e-20)
(1.0421 0.171405 0)
(-0.290854 0.00377457 -4.77904e-20)
(1.09486 -0.0452208 -1.83224e-20)
(1.01127 0.0556995 -2.89938e-21)
(0.829001 -0.0702303 0)
(1.01205 0.198673 3.13516e-22)
(0.249706 -0.0245494 0)
(0.1631 0.0916792 0)
(0.741379 -0.0691196 0)
(1.01179 0.0266096 -2.31255e-21)
(1.1765 0.126238 0)
(1.11231 0.110752 0)
(1.02482 0.0132499 -4.31438e-21)
(1.0003 0.00415213 0)
(0.934467 0.111384 3.24611e-20)
(0.558644 -0.0492823 0)
(1.25398 0.136759 0)
(0.00372103 0.0546629 -7.94297e-20)
(1.11323 0.0443218 -4.581e-20)
(1.10129 -0.0490076 1.96891e-21)
(1.13198 -0.0604926 0)
(-0.0384415 0.022853 1.49955e-19)
(1.24483 0.176282 0)
(0.999583 0.00729823 -7.53436e-21)
(0.563182 0.0591202 -1.61394e-19)
(0.793211 0.0322198 4.46763e-20)
(1.00729 0.00030758 0)
(1.02258 0.0247982 -9.38382e-22)
(0.871005 0.43812 -1.22361e-20)
(1.20964 0.470525 -1.58223e-19)
(1.07649 0.00109675 0)
(1.00305 0.000689749 -1.17238e-21)
(1.11987 -0.00977091 0)
(1.11394 -0.0161867 0)
(-0.10662 -0.0126389 -2.67771e-20)
(1.2337 -0.0366867 2.43987e-20)
(0.99148 0.0104074 -7.06287e-21)
(0.994041 0.0297736 3.67192e-21)
(1.13561 -5.12636e-05 0)
(0.581076 -0.0545287 1.03494e-20)
(0.963994 0.0204482 -3.27497e-20)
(0.48461 -0.0494658 0)
(-0.151954 -0.00648542 -2.84024e-20)
(1.10206 -0.0485999 0)
(1.01567 0.0127015 -1.43038e-22)
(0.493002 0.403691 -1.40135e-19)
(1.12868 0.00113531 3.76841e-20)
(-0.253897 -0.00435099 -1.45031e-19)
(1.00249 0.017774 5.82079e-21)
(0.705793 0.0746555 0)
(1.01144 0.0256296 1.96362e-21)
(1.18182 0.0696165 4.20244e-20)
(1.00814 0.000989388 -1.28347e-22)
(0.107689 -0.0269907 -1.06216e-20)
(0.461207 -0.060449 1.61399e-20)
(0.994149 0.0913198 -7.67908e-21)
(1.18396 0.471671 1.10211e-19)
(1.07747 0.0637389 0)
(1.01498 0.0122231 -2.37836e-21)
(1.1265 -0.0616987 -5.75287e-21)
(1.09378 -0.0448108 -1.68508e-20)
(1.11203 0.0419312 3.55266e-20)
(0.655422 -0.060308 3.67358e-20)
(-0.171855 -0.0039105 1.91702e-20)
(1.01205 0.00309535 2.31416e-21)
(1.06092 0.0908454 1.95042e-20)
(0.0264446 -0.0271498 -5.52538e-22)
(-0.131925 0.0214768 1.13164e-19)
(0.99997 0.00223726 3.79781e-21)
(1.0059 0.00892637 -2.84021e-21)
(0.31384 -0.00481616 0)
(1.13356 -0.0401927 0)
(1.00004 0.000124207 0)
(1.10449 -0.0592741 -1.64053e-20)
(1.16903 0.0139167 0)
(0.793539 -0.0351244 1.1712e-19)
(1.09058 0.107479 -1.23233e-21)
(1.00002 0.00217568 0)
(0.975941 0.2027 -1.3642e-20)
(-0.140017 -0.00473679 3.64272e-21)
(1.04133 0.00486849 0)
(1.19233 0.142385 2.46932e-20)
(0.569356 0.170302 0)
(1.0332 0.0274921 0)
(0.994248 0.0270886 3.2185e-21)
(1.10782 -0.0317408 -8.47923e-21)
(0.330229 -0.0112042 1.83134e-20)
(1.11149 -0.0358097 2.13404e-20)
(0.935219 0.116057 2.35985e-20)
(0.973452 0.095429 1.58649e-20)
(1.00003 0.000217864 0)
(0.111362 -0.0044975 2.93914e-20)
(0.670916 -0.0406953 3.16373e-20)
(1.10757 -0.0616068 -4.10651e-20)
(1.01451 0.0124529 1.67205e-21)
(-0.138994 -0.0120793 7.75481e-22)
(0.011156 -0.00485501 0)
(1.0789 -0.0679334 -1.48061e-20)
(0.496395 -0.0415114 -1.36782e-21)
(1.08881 -0.0444492 6.68942e-21)
(0.999998 0.00269727 0)
(1.00613 0.000824986 0)
(1.13361 0.017172 3.2793e-22)
(0.0349803 -0.0187018 6.46264e-20)
(1.15756 -0.0197215 -8.44644e-20)
(1.06808 0.0443613 0)
(1.23585 -0.0378694 -2.50684e-20)
(1.08105 -0.0304307 1.61418e-20)
(1.01787 0.00127603 2.44576e-21)
(0.954482 0.022885 4.56193e-20)
(1.0018 0.0045286 3.7476e-21)
(0.790168 -0.0693738 1.27219e-21)
(1.07475 0.00137233 0)
(1.00007 0.000126023 0)
(0.997633 0.108265 -1.20296e-20)
(1.01713 0.180078 3.24925e-21)
(0.783876 -0.0176289 8.14021e-20)
(1.10859 -0.0599997 3.50756e-20)
(0.994792 0.143428 -2.47861e-21)
(1.04356 0.0113364 1.93844e-21)
(1.23666 0.015189 0)
(0.665988 -0.0602395 -1.3645e-20)
(0.5709 -0.0432379 5.87596e-21)
(1.00222 0.0172625 -1.07698e-20)
(1.05374 -0.0679985 1.51064e-20)
(0.998376 -0.000262754 0)
(1.04366 0.0104322 1.61651e-20)
(1.00066 0.0128416 -4.42932e-21)
(0.813341 0.609728 -7.35276e-21)
(1.00152 0.000811543 2.10653e-21)
(1.18656 0.069401 -4.78406e-20)
(1.08613 0.107227 1.97077e-21)
(1.03117 0.0207884 -7.03797e-23)
(1.11974 -0.0117576 -4.22615e-21)
(1.03624 0.0573595 6.81967e-21)
(0.112919 0.0532332 -4.39292e-19)
(1.01134 0.193598 -3.93219e-21)
(1.16552 0.128736 6.33178e-20)
(1.02993 0.014807 6.41149e-21)
(0.994955 0.026143 0)
(-0.18658 -0.00627252 3.48551e-20)
(0.105353 -0.00683157 0)
(1.00075 0.0140492 -5.31847e-21)
(1.00699 0.000872213 -9.26242e-22)
(1.00778 0.0316038 0)
(1.01509 0.0253517 0)
(-0.0580216 -0.0195333 0)
(1.029 0.0146721 -7.53478e-21)
(0.123518 -0.0282419 0)
(1.04826 -0.0026474 -1.57576e-20)
(1.20163 0.321578 5.10037e-20)
(1.10017 0.00781232 -4.92075e-20)
(0.111205 0.277354 0)
(0.942857 0.0417021 0)
(1.29789 0.0031276 6.18057e-20)
(0.509494 0.297337 1.27487e-19)
(1.0007 0.106124 -6.70453e-21)
(1.13516 -0.0391689 6.82289e-20)
(0.950776 0.515452 1.40793e-20)
(0.994787 0.0429468 1.1308e-20)
(0.177592 -0.0209466 0)
(0.571419 0.0383601 1.75756e-19)
(0.0183798 -0.00746724 2.5999e-23)
(0.921318 0.0172382 -3.39507e-20)
(0.200206 -0.00408972 0)
(1.06706 0.0891715 -5.04527e-21)
(-0.0708485 0.00272157 0)
(0.527697 0.276337 6.0226e-20)
(0.917946 0.348226 1.8726e-20)
(0.934004 0.343163 -1.07245e-20)
(0.516623 -0.0548146 2.76335e-20)
(0.9997 0.00228066 -1.17632e-21)
(1.04825 0.174666 1.29674e-20)
(-0.13223 -0.0100264 5.82538e-20)
(0.981977 0.0284542 -2.01536e-20)
(1.00036 0.0711164 -1.15582e-21)
(0.0320085 -0.00506629 2.73023e-20)
(0.858203 0.472332 2.26368e-20)
(1.01612 0.0527319 0)
(1.12053 -0.0588598 4.51108e-20)
(0.700759 0.537234 0)
(1.00907 0.0050449 1.87084e-23)
(0.142888 -0.00340052 0)
(1.1272 -0.0606048 3.8231e-20)
(1.00192 0.00488978 -3.89894e-21)
(1.00913 0.0128574 -1.95426e-21)
(0.998576 -0.000402515 0)
(1.02343 0.0112065 0)
(1.23002 0.012983 0)
(0.779158 -0.0702716 -2.21928e-20)
(0.386269 -0.283352 -1.20656e-19)
(-0.152956 -0.00782574 1.51446e-19)
(0.997651 0.0140184 -6.97682e-21)
(1.1991 0.14179 -8.50531e-20)
(-0.188587 0.023888 -1.26296e-19)
(1.11085 -0.00193318 -6.42811e-20)
(0.465168 -0.0477976 2.04786e-20)
(0.062911 -0.02349 -5.51264e-20)
(0.424431 -0.0598569 -7.30816e-20)
(1.01326 0.00566454 0)
(1.10191 -0.060169 3.00556e-20)
(1.01032 0.0124851 3.15644e-22)
(0.83495 0.0892399 5.33359e-22)
(1.03578 0.0255939 -6.28977e-21)
(0.0854623 0.324787 3.6306e-20)
(1.17192 0.015841 1.85704e-20)
(1.06595 -0.0049055 1.87034e-20)
(0.999541 0.00274137 0)
(1.13327 0.00121526 -4.23379e-20)
(1.18237 0.127455 2.76391e-20)
(1.15187 0.0106496 0)
(0.325567 1.08649 6.46226e-20)
(-0.114597 0.00164655 0)
(-0.280133 -0.00169781 1.40452e-19)
(0.980864 0.210719 9.27476e-21)
(1.12898 0.147901 -9.24447e-22)
(1.0056 0.00848988 3.29257e-21)
(-0.106634 0.0223752 -1.62293e-19)
(0.46676 -0.0451801 1.3031e-20)
(0.998685 0.0327974 5.02482e-21)
(1.27163 0.00766692 1.5821e-21)
(0.995467 0.0102274 0)
(1.20287 -0.0194509 -3.82447e-20)
(1.04827 -0.00207378 1.67898e-20)
(0.999776 0.0019242 1.07924e-21)
(1.0316 0.0603119 0)
(0.544094 -0.0411176 2.74347e-21)
(1.02984 0.0605568 -2.29141e-21)
(0.350498 -0.0150343 -2.92537e-21)
(-0.0539621 0.0371036 0)
(1.11114 -0.0490778 0)
(0.44157 0.277571 0)
(0.996533 0.0426413 -1.06694e-20)
(0.494894 0.361043 1.9615e-19)
(0.467797 0.302189 0)
(1.0019 0.00981267 3.07424e-21)
(0.823202 0.473014 0)
(0.983397 0.0282037 4.50769e-22)
(0.994204 0.0120452 -1.44328e-21)
(1.18807 0.0968615 0)
(1.00006 0.000325802 0)
(0.993478 0.0137368 0)
(1.01056 0.0122917 3.17468e-23)
(1.23255 0.0172452 2.42196e-20)
(0.999936 0.00148496 0)
(0.210021 -0.0057304 0)
(0.638233 -0.0495936 0)
(-0.125306 0.0176078 0)
(1.24028 0.182436 0)
(0.335457 -0.0209901 -1.3275e-20)
(-0.233233 -0.00624889 -3.94414e-20)
(1.10893 -0.00233255 7.13521e-20)
(0.998016 0.013423 6.62506e-21)
(1.20139 0.0123527 1.4037e-20)
(1.06383 -0.0114171 5.98539e-21)
(1.06555 0.0963608 1.27542e-21)
(0.999572 0.00783794 -4.31002e-21)
(0.710586 -0.0703534 -2.16057e-20)
(0.525943 -0.0515567 2.13654e-23)
(0.692157 -0.0525121 0)
(0.982235 0.0862773 0)
(1.17224 0.00436903 2.14719e-20)
(0.924753 0.014383 0)
(1.06558 -0.0129188 1.07564e-20)
(1.14982 0.00926022 3.67583e-21)
(1.01767 0.061621 -8.54308e-22)
(1.10293 -0.0602625 0)
(1.01675 0.0461005 4.47937e-22)
(1.0015 0.000956834 2.57529e-21)
(-0.0278166 -0.0238257 0)
(0.244747 -0.022905 4.4436e-21)
(0.264511 -0.0254869 -4.26284e-21)
(1.1737 0.210114 -4.47812e-20)
(-0.134241 0.0138804 6.89777e-20)
(0.20506 -0.0250861 0)
(-0.0835462 -0.021038 -5.88209e-20)
(-0.042188 -0.0089046 -3.78602e-20)
(1.01711 0.00203424 -2.54007e-21)
(1.13511 0.0085905 0)
(1.0197 0.0614674 5.50194e-22)
(0.991708 0.0302827 -3.767e-21)
(1.2284 -0.0308506 0)
(1.13558 0.0187069 0)
(1.01901 -3.99691e-05 -2.91427e-21)
(1.15324 0.0506735 3.07151e-20)
(1.10948 0.00262497 -2.25362e-20)
(-0.0336863 -0.00637445 2.03231e-20)
(1.00205 0.0102023 3.75728e-21)
(1.14154 -0.0298295 6.84062e-20)
(-0.00243779 0.0166968 -5.14254e-20)
(1.22115 0.33626 1.61265e-19)
(0.214891 -0.00891718 0)
(0.99994 0.00129248 4.22384e-21)
(0.997555 0.0332014 -6.41272e-21)
(1.0112 0.000440454 0)
(1.0502 0.136502 0)
(1.0132 0.00525756 -1.98398e-21)
(0.617144 -0.0528317 0)
(0.397692 -0.243795 1.24205e-19)
(0.997743 0.138165 2.11879e-21)
(-0.0658767 0.0304588 0)
(1.08294 0.0384059 2.2957e-22)
(1.126 -0.0395603 0)
(-0.0443735 -0.0236709 0)
(0.82224 0.570809 1.70144e-21)
(1.11018 -0.0487892 0)
(1.12304 -0.0607599 -4.04649e-20)
(1.1408 -0.0311819 -8.66732e-20)
(1.15151 0.0671706 4.91813e-20)
(1.19005 -0.00315969 2.97243e-20)
(1.09539 -0.0203059 -2.04921e-20)
(1.10547 -0.0526983 -2.74111e-20)
(0.374935 0.104478 0)
(1.09202 -0.0280446 -2.63706e-20)
(1.13852 -0.0160685 -3.51939e-20)
(1.01468 0.000734231 -3.48834e-21)
(1.26218 -0.0136962 2.94367e-20)
(1.08727 0.0207382 -3.21234e-20)
(1.03035 0.00444025 6.18166e-21)
(1.04591 0.1329 0)
(1.05549 0.0268949 -1.49138e-20)
(-0.0306088 -0.00935191 -1.81557e-20)
(0.468208 -0.064275 -3.5788e-20)
(1.0144 0.024329 8.03465e-22)
(1.01776 0.00103063 8.3142e-22)
(0.644208 -0.0562153 1.11642e-20)
(-0.25489 -0.00324412 2.32663e-20)
(1.00006 0.000247161 2.67228e-21)
(0.192212 -0.00495392 0)
(1.05721 0.00716651 8.85472e-21)
(1.22941 0.162669 2.02566e-20)
(1.01374 0.0261859 3.14488e-22)
(-0.139752 -0.00955464 0)
(1.1821 -0.0614811 7.13065e-20)
(1.05556 0.0963529 0)
(1.03595 0.0382828 0)
(0.360827 -0.0247783 0)
(1.24331 0.135219 -9.20587e-20)
(-0.248808 0.0133056 0)
(1.00004 0.000294683 0)
(-0.140459 -0.0069972 1.27409e-19)
(0.135843 0.0527306 2.49389e-19)
(0.982015 0.0338069 0)
(1.03046 0.00493625 -5.29854e-21)
(-0.121019 0.0191765 2.05435e-20)
(0.321353 -0.0430009 1.26669e-19)
(1.10864 -0.00561676 -5.38983e-20)
(1.00967 0.0129305 5.46154e-22)
(1.00783 0.0468628 -4.82687e-21)
(1.08639 -0.0440781 2.13782e-20)
(1.20327 -0.0234055 4.09293e-20)
(1.01948 -2.40154e-05 4.53949e-21)
(1.00868 0.0121522 -1.06798e-21)
(1.00489 0.0024028 -7.46068e-22)
(1.00521 0.0025151 7.52396e-22)
(-0.162662 -0.00982561 0)
(1.22792 -0.0269552 0)
(1.10815 -0.0044171 4.76071e-20)
(1.25274 0.123615 0)
(1.00616 0.000643286 -1.91993e-22)
(1.01059 0.00554362 -7.31441e-22)
(1.16893 0.00303521 3.19296e-20)
(0.177924 -0.0420995 -7.85313e-20)
(1.1034 0.0542261 -2.32432e-20)
(1.03268 0.0220336 0)
(0.994524 0.0125181 0)
(0.992339 -0.000884143 -6.08637e-21)
(0.921505 0.0243083 0)
(0.00703433 0.0252625 -1.18838e-19)
(1.00045 0.00361898 0)
(0.992494 0.00213457 -1.16137e-20)
(1.09972 -0.0600863 0)
(1.09578 -0.0189331 -2.05005e-20)
(1.09936 0.00654307 -2.12645e-20)
(0.99657 0.0316527 -1.17308e-20)
(1.0271 0.063307 1.81218e-21)
(1.04143 0.0946065 8.7135e-21)
(1.13642 -0.0166967 3.20117e-20)
(0.946563 0.489377 -1.31838e-20)
(1.2574 0.131875 0)
(1.20189 0.00837888 3.31292e-20)
(1.1564 -0.00930235 -7.89772e-22)
(1.23177 -0.0406717 -5.96835e-20)
(1.16519 0.121984 0)
(1.00143 0.0166865 -2.81379e-21)
(-0.127496 -0.00716514 5.11498e-20)
(0.992694 -0.00138326 5.98889e-21)
(1.00092 0.0740027 0)
(1.06728 0.00230302 -7.50883e-22)
(1.26064 -0.0148044 3.04754e-20)
(0.988891 0.28657 2.65407e-21)
(1.00984 0.00124631 -3.38811e-22)
(1.22372 0.325414 -1.25471e-19)
(1.19803 0.0853372 0)
(-0.088842 0.00424955 0)
(1.15788 -0.00745447 0)
(0.885739 0.132677 0)
(1.11173 0.00193885 -1.60147e-21)
(0.999401 0.00299338 0)
(0.49898 -0.0446048 2.15773e-20)
(1.2129 0.315267 -5.63717e-20)
(0.361991 -0.0440017 2.36228e-20)
(1.01613 0.0439262 -8.78346e-22)
(1.09381 0.0440157 3.29566e-20)
(1.256 0.119288 1.32998e-20)
(0.0710481 -0.025697 0)
(-0.186382 0.00623983 -7.34963e-20)
(1.1404 0.000155715 8.52563e-22)
(1.18224 0.211886 -3.39636e-20)
(0.989493 0.0868051 0)
(1.05453 0.0571836 0)
(0.995481 0.0321232 0)
(0.886886 0.228114 2.76794e-20)
(0.669718 0.178285 8.68623e-22)
(0.973465 -0.00505893 -7.86564e-21)
(1.12642 -0.000138686 3.61217e-20)
(0.568472 0.145112 0)
(0.375857 -0.0455424 -1.78617e-20)
(-0.242206 0.0149533 7.03807e-20)
(1.02986 0.073296 -3.05084e-21)
(1.12449 -0.0391216 -1.98385e-21)
(1.18405 -0.0599829 -6.45797e-20)
(1.00201 0.11646 2.7793e-21)
(0.967494 0.0225079 -1.80498e-20)
(0.174899 0.537229 0)
(0.669482 -0.0611871 0)
(0.624508 -0.0678996 2.31515e-20)
(1.24821 0.107319 7.05581e-20)
(1.01782 0.00215486 4.41591e-22)
(0.149172 -0.00536419 6.10584e-21)
(1.08727 -0.043267 0)
(1.00977 0.000926611 2.00773e-22)
(1.09086 0.0751101 0)
(1.12359 -0.0253647 4.58857e-20)
(0.84582 0.0674346 0)
(1.1863 0.0876548 -1.1273e-19)
(0.50419 -0.044158 3.04697e-20)
(1.18666 -0.00351942 0)
(1.09167 -0.0173901 7.44757e-21)
(0.499863 -0.0445064 -1.92498e-20)
(1.05741 0.0329016 0)
(-0.0621979 -0.00667346 -2.73849e-20)
(0.999965 0.00197764 0)
(1.00045 0.00390968 -6.45714e-22)
(1.02919 -0.0694259 -3.48785e-20)
(0.638875 -0.0622777 0)
(0.376324 0.235815 0)
(1.058 0.0315502 0)
(1.01258 0.0538267 2.52132e-21)
(0.992919 0.00259954 5.12635e-23)
(1.08221 -0.0305262 9.21304e-21)
(0.0780163 0.170237 1.00357e-20)
(1.09496 -0.0504666 -2.1283e-20)
(1.05678 0.0576511 0)
(1.11006 -0.0474364 2.4147e-20)
(1.13105 -0.000200199 0)
(1.01358 0.0269133 1.98463e-22)
(1.16255 0.479951 -3.61925e-20)
(1.09384 -0.050175 3.78417e-20)
(1.10056 -0.0612384 -3.0422e-20)
(1.00416 0.0192661 5.89459e-21)
(1.18205 -0.00750844 -8.02592e-20)
(1.05459 0.0283557 -1.47992e-20)
(-0.00967634 0.0478055 -1.31609e-20)
(1.14096 0.147644 2.70322e-20)
(0.999536 0.279726 -4.47018e-21)
(1.09488 0.0458715 -3.59976e-20)
(1.00764 0.00285107 5.72896e-24)
(1.02806 0.00695856 0)
(1.03466 0.0293549 2.93673e-21)
(0.964139 0.348837 -2.47581e-21)
(0.889823 0.0169996 -2.81037e-20)
(1.24666 0.0474853 -9.67209e-20)
(0.471875 0.802024 2.96407e-20)
(1.12593 -0.00716507 -3.47361e-20)
(1.00861 0.0049833 1.5839e-22)
(1.19115 0.00328063 3.66364e-20)
(0.373288 0.266185 2.34748e-20)
(1.13103 -0.0628561 2.03401e-20)
(1.04057 0.00533608 6.1915e-23)
(0.89925 0.0301568 0)
(1.00815 0.0120423 1.64023e-21)
(1.07745 -0.0126665 0)
(1.07188 0.0461131 0)
(0.298261 -0.0435234 -1.12998e-19)
(0.999845 0.00201498 -8.04778e-21)
(1.23053 0.497539 4.81608e-20)
(1.07848 -0.00987422 0)
(1.11506 -0.0505991 -8.52408e-21)
(1.16814 0.143272 -5.87514e-20)
(-0.0947689 -0.01469 -2.71113e-20)
(1.02204 0.277851 0)
(1.00748 0.0451937 4.42241e-21)
(0.00236173 -0.0165998 0)
(-0.25365 3.82721e-05 -7.35913e-20)
(1.00541 0.0345565 0)
(1.06629 0.00150528 0)
(1.18835 -0.0583849 1.77672e-20)
(1.24003 0.109505 0)
(1.15493 -0.0199241 5.98005e-20)
(1.00015 0.00035821 -2.84836e-21)
(1.03723 0.0382681 0)
(1.18964 0.312806 4.47203e-20)
(1.06657 -0.00577274 -2.19755e-20)
(1.15179 0.0140334 0)
(1.10702 -0.030236 3.71519e-20)
(1.02875 0.00685784 0)
(1.11193 -0.0186154 1.43041e-20)
(0.57927 -0.0573436 2.66578e-20)
(1.04017 0.00381252 1.79101e-22)
(1.05425 -0.00432238 -2.93673e-21)
(1.00436 0.00255145 0)
(0.102311 -0.00508155 -1.24362e-20)
(0.99995 0.00087582 9.42537e-22)
(0.982578 0.0824209 0)
(-0.285694 0.00155789 -4.71756e-20)
(0.991888 0.0674928 7.73953e-21)
(0.699428 -0.0602928 0)
(1.07333 0.0673236 1.56742e-20)
(0.83055 0.071573 1.6499e-20)
(1.00469 0.00267501 0)
(1.01918 0.213055 0)
(1.00041 0.0121589 -9.6323e-21)
(1.14954 0.0750384 -2.49754e-20)
(1.00733 0.00171078 4.0557e-22)
(1.07955 0.258926 2.41943e-20)
(1.05688 0.00789326 8.69153e-21)
(0.263708 0.15427 0)
(0.43379 0.677885 0)
(0.175125 -0.0427598 1.10416e-20)
(1.0107 0.000424404 -2.42855e-22)
(0.999629 0.00243737 0)
(1.15968 0.118896 -6.72645e-20)
(1.1216 0.114166 -1.87563e-20)
(0.0672029 -0.00897786 3.22707e-20)
(0.289857 -0.0526553 -1.01859e-19)
(1.1378 0.0269673 4.3756e-20)
(0.992506 0.0108198 -4.8166e-21)
(1.2313 0.0154815 -2.29819e-20)
(0.343415 0.21081 3.94313e-20)
(1.09802 -0.0605316 2.52478e-20)
(1.24252 0.050713 8.84732e-20)
(1.12928 0.0136957 6.3354e-22)
(0.544954 -0.0449276 -1.01382e-20)
(1.08293 0.130454 5.76321e-21)
(1.08053 -0.0292741 0)
(1.19897 0.0252747 3.67574e-20)
(0.85328 0.417383 -1.47442e-20)
(1.13623 0.0288272 -4.14661e-20)
(0.304365 0.287114 -2.26675e-19)
(1.1366 0.0347531 0)
(1.0598 -0.00265223 0)
(1.12482 -0.0265784 0)
(1.00478 0.107703 0)
(1.03377 0.00600698 1.02322e-20)
(1.07731 -0.0117609 0)
(1.10889 0.121663 3.21872e-20)
(1.04853 0.0969752 -1.61187e-20)
(0.999279 0.0120176 -1.07153e-20)
(1.0066 0.000514734 9.53553e-22)
(1.12859 -0.00412269 -6.00966e-22)
(1.06262 0.013367 -1.13347e-20)
(1.15465 0.015367 0)
(0.993202 0.0105273 0)
(0.995102 0.00816083 -6.1385e-21)
(0.999961 0.000692788 0)
(1.02295 0.0633761 0)
(1.02362 0.00172164 -9.27039e-21)
(1.04706 0.0828924 8.73935e-21)
(1.00385 0.00270256 0)
(-0.147502 -0.00865169 0)
(1.09193 -0.0376698 0)
(0.470829 -0.289764 1.17967e-19)
(1.012 0.00530978 -1.11909e-21)
(1.00006 0.00153636 0)
(0.801124 0.141107 -1.19203e-20)
(1.15477 0.065092 -5.66299e-20)
(0.953312 0.00149423 1.59228e-20)
(0.824793 0.0057252 5.56017e-21)
(1.13032 0.196894 -6.53228e-20)
(1.01407 0.11686 4.80259e-20)
(1.07855 -0.0108182 0)
(1.17821 0.00213541 2.59031e-20)
(1.05107 0.0170727 0)
(0.99991 0.000962584 -3.16984e-21)
(1.00546 0.00224425 -1.79844e-21)
(1.03448 0.0583553 -9.21384e-21)
(-0.311858 0.00391404 -3.57438e-21)
(1.00004 0.00130743 0)
(1.18777 -0.0485272 -2.68725e-20)
(1.04837 0.0852942 1.26469e-20)
(-0.186971 0.0268487 7.37406e-20)
(0.964289 0.221902 7.27006e-21)
(1.1375 0.194969 3.75558e-20)
(1.11389 -0.050214 0)
(1.02078 0.00672746 -2.8991e-21)
(1 4.19886e-05 0)
(1.09313 -0.0378989 6.34778e-21)
(0.988069 0.00254916 6.9442e-21)
(0.984569 0.0419302 1.24008e-20)
(0.965949 0.00394925 -1.93696e-20)
(1.01223 0.0576244 2.16566e-21)
(0.998607 0.000261286 9.34877e-21)
(1.08362 0.0560554 -2.88058e-20)
(1.00607 0.0076432 -1.26701e-21)
(1.01664 0.000959139 1.70514e-21)
(1.05502 0.0922238 7.27239e-21)
(0.885097 -0.0262946 -6.4996e-20)
(0.0462926 -0.00545753 5.73874e-20)
(1.07856 0.110807 1.89899e-21)
(1.04019 0.00331421 0)
(1.00898 0.000961618 0)
(0.101776 -0.0303884 0)
(0.949762 0.356331 -1.04463e-21)
(1.00119 0.0415207 2.89619e-21)
(1.01719 0.0433031 1.22418e-22)
(0.917532 0.00873148 0)
(1.18916 -0.0589581 8.7765e-21)
(-0.294471 -0.0014901 1.17052e-19)
(0.893474 0.133241 0)
(1.06062 -0.00186825 -4.59754e-21)
(1.01167 0.00321151 -6.83468e-22)
(1.01687 0.00112816 1.81061e-21)
(1.09338 -0.0280534 2.39798e-20)
(1.08314 0.111879 -1.10601e-21)
(1.12268 -0.0567534 -2.51715e-20)
(0.917375 0.0171848 2.2196e-20)
(0.154247 -0.0171546 -5.19401e-21)
(1.02747 0.0431293 -2.09934e-21)
(0.964063 0.0577215 -7.29899e-21)
(-0.303783 0.0020034 8.11427e-21)
(0.995298 0.00965699 -7.30768e-21)
(1.08831 0.019225 2.54963e-20)
(1.00437 0.0309727 3.59636e-21)
(1.00193 0.00124064 -4.62223e-21)
(1.10168 0.126963 0)
(0.773716 -0.0117177 -1.42004e-19)
(1.04828 0.0287777 -1.26061e-20)
(0.663305 -0.0608856 0)
(0.286644 -0.00854265 -2.14807e-21)
(1.17248 0.138485 -1.90777e-20)
(1.00172 0.0172816 6.90322e-21)
(1.02539 0.00336176 -7.30553e-21)
(1.09951 -0.0490917 5.32706e-20)
(1.20523 -0.0454322 3.98283e-20)
(1.00006 0.000404246 0)
(1.2183 -0.0428978 -1.20385e-20)
(1.02487 0.00348283 4.65086e-21)
(1.10546 0.116617 -2.72091e-20)
(1.03506 -0.000151476 -2.68848e-21)
(1.03479 0.00770063 -1.21375e-20)
(1.21021 -0.0232247 1.12086e-20)
(1.03966 0.0170439 -1.24909e-20)
(0.989582 -0.0622129 -1.4192e-20)
(1.11103 0.0899888 0)
(0.999955 0.000628246 -7.64159e-21)
(1.02026 0.00377621 1.32815e-21)
(0.981232 2.93281e-05 3.41592e-20)
(1.00913 0.0199858 -1.73434e-21)
(1.05374 -0.00339292 -5.28348e-21)
(0.272431 0.680622 -6.33879e-21)
(1.03881 0.00553629 -5.94426e-21)
(1.03078 0.0112965 0)
(0.361888 -0.0575653 1.44357e-20)
(0.595116 -0.0659496 0)
(1.09296 -0.0185596 -9.99417e-21)
(1.11633 0.115366 0)
(1.14506 0.00605215 3.04521e-20)
(1.07566 0.0265283 -9.0901e-21)
(1.02416 0.0148535 0)
(0.887676 0.00969042 -2.03534e-20)
(-0.112593 -0.011298 1.3786e-20)
(1.08915 0.260307 1.72875e-20)
(0.998193 0.00480397 -7.03545e-21)
(1.03468 0.0374189 2.64101e-21)
(0.32149 -0.0551944 7.11608e-20)
(1.11127 0.0231123 3.09493e-20)
(-0.105321 -0.00918571 -3.44129e-20)
(0.999954 0.000823912 8.78339e-21)
(0.950891 0.00227954 -3.39753e-20)
(0.0863014 -0.0042358 0)
(1.10421 0.0174445 0)
(1.05041 0.0274814 1.30309e-20)
(-0.303763 0.00536738 1.20193e-19)
(0.2125 0.233358 -1.5067e-19)
(1.0094 0.0194696 2.86395e-22)
(1.19487 0.0266968 0)
(1.00577 0.00235955 7.78894e-22)
(1.03852 0.0169702 1.44998e-20)
(1.01237 0.00559532 0)
(-0.113464 -0.0156306 3.79562e-22)
(1.02324 0.00155725 7.3712e-21)
(1.03989 -0.00190381 0)
(1.02471 0.0144361 0)
(0.939224 -0.061648 8.05992e-21)
(1.06341 -0.00935616 0)
(1.23364 0.156108 6.16339e-20)
(0.701836 -0.0980592 0)
(1.03543 0.00598557 -6.97548e-21)
(0.844445 0.02438 0)
(1.00048 0.00344226 -4.81672e-21)
(-0.14275 -0.00748686 3.60168e-20)
(1.00521 0.0101698 -2.19419e-21)
(1.03951 0.00505529 1.49341e-20)
(0.998648 0.000784197 5.25038e-21)
(1.10034 -0.0495384 -5.86209e-20)
(0.998482 0.000616896 0)
(1.18535 -0.0072357 6.5059e-20)
(0.292727 -0.00449419 0)
(0.690511 -0.0610848 -5.00874e-20)
(0.904107 0.0307086 2.59448e-21)
(1.12611 -0.0598084 0)
(-0.260075 0.000326182 4.61537e-20)
(0.996102 0.0263749 0)
(0.130415 -0.00282035 0)
(0.424187 0.0467712 -7.85569e-20)
(-0.238433 8.97842e-05 2.3191e-20)
(0.323533 -0.020145 0)
(0.343001 -0.0562602 1.45781e-20)
(0.12251 0.176236 0)
(1.18784 0.00467961 -3.35129e-20)
(1.00946 0.0478953 1.91619e-21)
(0.488869 -0.0427088 -2.25133e-20)
(1.10358 0.0193193 1.02064e-20)
(0.436028 -0.0425271 0)
(1.02975 0.00526942 -4.35009e-21)
(1.02327 0.0233803 0)
(1.00259 0.0425398 5.096e-21)
(1.00051 0.00372081 5.36061e-21)
(1.08056 0.0223629 -1.13834e-20)
(0.890236 0.0891949 -6.51275e-20)
(0.108735 -0.0109321 0)
(1.02313 0.0224168 1.77342e-21)
(0.99376 0.00342259 1.12591e-20)
(-0.217907 0.0201202 -1.43533e-19)
(0.968397 0.447212 0)
(0.981409 -0.00123212 -1.18975e-20)
(0.812215 -0.0565936 -4.46719e-20)
(1.09084 0.0581053 -1.58289e-20)
(1.0444 0.0227224 0)
(0.496183 0.714542 0)
(0.805895 -0.0513779 0)
(0.951098 0.0496271 0)
(1.06372 -0.00864957 -2.65531e-20)
(0.264799 -0.00481899 2.04566e-20)
(-0.288814 0.00246531 0)
(0.222492 0.055552 2.12723e-19)
(1.03457 0.000266003 0)
(1.2401 0.14255 0)
(1.1946 0.0815369 0)
(-0.218037 0.00759062 0)
(0.408196 -0.0595104 0)
(1.0919 -0.045299 1.57194e-20)
(1.01481 0.0262919 -5.53469e-22)
(1.05204 0.0178185 1.53843e-20)
(1.02607 0.0434299 -1.95138e-22)
(1.01992 0.000180614 0)
(1.02556 0.064516 -1.89043e-21)
(1.01707 0.00178338 1.72587e-21)
(1.04382 0.0930956 -1.27896e-20)
(1.07882 0.13022 0)
(-0.0462076 0.0302108 4.53143e-20)
(1.14478 -0.03362 0)
(1.0403 -0.0013661 0)
(1.17493 0.00138211 2.40902e-20)
(-0.0663852 -0.0226573 -5.70034e-20)
(1.09842 0.121829 0)
(0.971953 0.0225163 -1.44682e-20)
(-0.0706331 -0.00529987 2.40945e-20)
(1.02996 0.0203854 -4.95919e-21)
(0.985458 0.0399234 0)
(0.816987 0.0605038 -3.57835e-20)
(-0.00747597 0.0372842 -8.86841e-20)
(0.998424 -0.000775177 7.74736e-22)
(1.00372 0.0195647 -1.27433e-21)
(0.467265 -0.0489082 0)
(1.11383 -0.0585783 -4.38508e-20)
(1.17872 -0.0594222 -1.04693e-19)
(1.15716 -0.0140287 2.06034e-20)
(1.12858 -0.0614785 -2.427e-20)
(1.00732 0.018693 -3.43196e-21)
(1.19807 0.0029904 0)
(0.970983 0.0243912 -1.67766e-20)
(1.00334 0.0106242 -1.85205e-22)
(0.968883 0.0202998 1.66308e-20)
(0.577632 -0.0514894 -1.94323e-20)
(-0.272376 -0.00255251 -9.31692e-20)
(1.03203 0.00979162 -8.15816e-21)
(1.02076 0.00382375 0)
(1.0043 0.0323367 0)
(1.17838 -0.0601114 0)