/*--------------------------------*- C++ -*----------------------------------*\
| =========                 |                                                 |
| \\      /  F ield         | OpenFOAM: The Open Source CFD Toolbox           |
|  \\    /   O peration     | Version:  v2012                                 |
|   \\  /    A nd           | Website:  www.openfoam.com                      |
|    \\/     M anipulation  |                                                 |
\*---------------------------------------------------------------------------*/
FoamFile
{
    version     2.0;
    format      ascii;
    class       volScalarField;
    location    "550";
    object      ddt0(omega);
}
// * * * * * * * * * * * * * * * * * * * * * * * * * * * * * * * * * * * * * //

dimensions      [0 0 -2 0 0 0 0];


internalField   nonuniform List<scalar> 
13851
(
1.1354e-05
0.214289
0.000306717
2.43966e-05
-0.000377003
-0.109382
4.00699e-06
0.000195957
-5.24198e-06
0.00144753
0.0654666
-0.000258666
0.107888
-0.424394
7.42794e-07
1.57693e-05
4.1412e-05
0.000225742
0.142477
-5.1393e-06
2.59097e-05
-2.45581e-05
2.63941e-05
-2.70963e-05
3.00687e-05
0.00017966
2.34882e-05
-1.07996
1.69512e-05
7.95754e-05
-0.268095
4.35299e-05
0.000277864
-0.0237616
-2.74824e-05
9.94917e-05
0.10803
-0.00668047
0.00154868
0.0133688
7.32835e-06
2.51966e-06
0.799175
-0.00407718
0.0501245
-1.23534
-0.00835576
0.454109
2.39253e-05
-0.0766491
-0.000687014
-0.000681929
-0.213454
2.1072e-06
-3.96956e-06
2.23029e-06
1.25051e-05
0.00352443
7.37529e-05
5.29185e-06
-0.007576
-0.0966605
0.00283052
-0.000889624
-0.0194644
-3.18068e-05
0.0822121
-0.0247439
-4.91494e-06
0.000211481
0.0361805
0.0308295
0.203668
2.83774e-06
1.14259e-06
-1.00412e-05
7.11268e-05
0.0644792
-1.9346e-05
0.0237007
9.64846e-06
0.00787393
3.32104e-06
-2.52419
0.00318427
0.129019
-0.0185832
0.429712
3.47625e-05
-1.25343e-05
0.000765127
0.00119548
-0.0349697
4.20404e-05
3.18841e-05
1.12003e-05
-0.000756066
0.00481666
-0.0329371
1.54831e-05
0.132909
-0.000200771
1.78046e-05
1.6925e-05
-1.1874e-05
-0.0570927
-0.000364472
2.76785e-07
0.0183369
-0.10133
-1.27413e-05
-1.83845e-05
4.15294e-05
-4.2128e-05
-1.62033e-05
-0.0394193
-0.00561127
1.72544e-06
-4.36021e-05
-1.02502e-05
0.820111
1.69119e-05
0.0953605
-0.0834319
0.477264
5.76118e-05
0.318364
-9.11123e-05
2.96121e-05
-0.000846744
7.00221e-06
-1.74644e-06
0.0308174
2.91593e-06
-0.05043
-1.23002e-06
2.0039e-06
0.0396219
0.529884
0.0607586
0.182399
-3.0369e-06
8.98168e-05
1.15418e-05
4.06736e-05
-0.0152279
-0.0479059
-0.00124634
3.83223e-06
0.0639255
-0.00027952
-9.87179e-06
-0.456123
1.53615e-05
2.244e-05
3.96113e-05
-2.0841e-06
5.04759e-05
-0.00088143
-0.000541721
-8.14835e-06
2.43741e-05
-0.00327314
-1.81758e-06
0.000130588
7.12719e-06
-0.0520815
-8.5195e-06
2.95898e-05
0.453975
0.0877366
-2.05299e-06
-1.95877e-06
0.102572
-1.56894e-06
0.386387
-6.85658e-05
5.24462e-05
0.190268
-1.32656e-07
4.87401e-05
0.0281772
2.30674e-06
9.73245e-05
-5.14176e-06
3.86527e-05
-4.92115e-05
-4.07425e-07
-0.000688742
-0.000438716
-0.0199477
-0.0771776
-8.05256e-05
2.17679e-05
-0.101335
2.17516e-05
5.9634e-05
0.0369028
3.53666e-05
-1.0733e-05
-3.86293e-05
1.103
-6.0079e-05
2.69096e-06
-0.000160322
2.55073e-06
0.0275667
3.89818e-05
-0.0174056
-2.61594e-06
-0.0382092
1.72345e-05
0.028706
-1.01286e-06
8.95706e-06
0.0916353
0.00265258
-1.65404
6.98155e-07
-0.0223398
4.01736e-05
1.01088e-05
-0.0175207
-0.00113166
-0.0578763
3.46303e-05
4.85361e-05
-1.20927e-05
0.0192658
-1.62422e-06
0.000216167
-0.446602
-1.86415e-06
-5.49732e-05
-0.000487823
0.000226263
-0.162169
0.00294961
1.10022e-05
2.80588e-06
-0.356029
-0.017516
-0.000118791
-5.7911e-05
-1.12185e-05
-0.059696
-0.000192729
0.181062
4.44092e-05
6.05502e-05
-0.00113418
-0.0194254
1.72671e-05
4.53061e-05
-0.000259335
0.163302
0.00013926
0.0414266
-0.276371
1.1103e-06
9.87595e-06
0.000146484
-0.0416451
9.22731e-06
0.142664
2.22639e-05
1.60945e-05
4.3493e-05
-0.00596115
0.00580493
-0.000262439
2.30127e-05
-0.313276
-1.68465e-05
3.29905e-05
-1.8815e-06
0.00901359
0.00863663
-0.0456446
0.106074
-8.09456e-05
-3.74493e-06
-1.48811e-05
-0.000233077
0.00226097
0.0969517
-8.10674e-06
4.266e-07
-0.243235
0.015194
6.56959e-05
6.53638e-05
5.70811e-06
-2.04766e-06
0.0199237
0.211894
0.000118408
0.220379
-1.93657e-06
-0.0607586
2.89925e-05
4.37421e-05
-0.0452509
1.17297e-05
-0.0702135
-0.0458582
-7.5468e-06
-0.000149576
4.42237e-05
5.89063e-05
0.468752
0.000118218
1.73923e-05
-0.0151035
3.77844e-06
6.18028e-05
-0.000252837
-0.034373
-5.05705e-05
7.02518e-07
-0.000269791
6.47375e-07
0.248462
0.00106801
3.34893e-05
-3.19729e-06
-0.000188382
4.51353e-05
2.00636e-05
4.05527e-07
1.1298e-05
1.66741e-05
0.064741
-0.0428739
0.162555
0.000246724
-0.0316056
-0.099739
5.37688e-07
3.28637e-05
-0.000318428
0.00382661
-0.000702927
-0.000559223
0.138927
-0.000235248
0.0342496
-0.055416
9.11017e-07
-0.0243646
-0.0115969
-0.330627
1.92668e-05
-0.00296965
0.0232458
-1.75688e-06
0.195023
-3.39766e-06
5.27534e-07
-8.89313e-06
-1.9167e-07
-1.74907e-06
-0.0526567
0.022215
5.54067e-06
-0.00011517
4.84193e-06
0.17352
-9.76022e-05
0.115202
0.272483
5.93194e-06
0.00211149
4.80348e-05
0.126844
5.50391e-06
2.05108e-06
-0.00151758
0.104784
4.81297e-07
0.348826
0.00278889
-0.000823887
1.30179
0.00468859
-0.00334642
0.000386082
-9.82903e-07
5.2597e-06
0.000156537
-0.000264545
-0.482243
-2.01493e-05
-0.0512064
-0.0488621
5.28412e-06
1.19489e-06
0.285968
0.0162974
-0.321546
-0.00767467
-0.00329835
5.00619e-05
3.00045e-05
-0.128073
-2.9848e-06
3.85739e-05
0.000204381
3.62406e-06
-1.42336e-05
-6.89462e-06
6.70994e-06
-0.000775621
-0.000869039
0.347123
0.00021122
-0.000311
-0.000993526
-0.0162586
6.72312e-05
-0.299771
4.19709e-05
0.0564809
1.73331e-06
-6.4191e-06
4.62448e-05
-0.025443
-0.0245639
-0.00136108
-0.000563347
0.463208
-0.044862
-0.0165283
-1.50709e-05
-0.000469527
5.08524e-06
-0.018963
-3.467e-06
0.0879778
-0.0120439
0.000488589
-0.00458646
6.93999e-05
-0.0444516
-0.00593269
0.302426
-2.19584e-06
5.86589e-05
-4.40781e-05
0.00841226
-2.29623e-06
1.76091e-05
-0.000333803
-0.00102601
0.000437484
0.0404617
4.02861e-05
-3.46078e-06
-0.0444193
0.000151538
-3.06552e-06
0.206244
-9.53587e-07
1.76803e-05
-2.41071e-06
-0.000182479
3.99666e-05
-2.68126e-06
4.40798e-05
-0.00846873
3.46008e-06
-3.79319e-05
-3.53254e-07
0.000423467
-0.0122094
-5.22835e-05
6.18447e-06
-4.35054e-05
-4.06581e-05
-0.0155927
1.4676e-05
-0.0415948
2.25903e-06
2.93124e-05
0.219798
0.00514266
2.94293e-06
0.00029257
6.08542e-05
-0.0239869
-2.54768
-3.07026e-06
0.00138462
5.97476e-06
-0.000223964
4.51236e-06
-0.070607
2.24481e-07
0.0450116
-0.000715394
2.92497e-06
0.000857321
0.0887383
0.00017105
0.0471828
-3.4145e-05
-0.0952525
-4.08914e-06
-1.74008e-06
-2.39142e-06
3.18294e-06
0.00166331
-0.000463251
-0.000643921
0.280971
0.00124799
-1.20878e-05
-0.0119814
-0.0291969
4.69153e-05
2.79845e-05
-0.0209434
-0.126059
-0.0229214
8.27891e-06
-0.0725355
-1.66713
0.607693
0.00012246
0.00101331
0.0342373
-0.018544
0.104848
0.0558921
0.110384
5.58356e-05
0.0633519
0.0594136
1.65674e-06
0.0101113
-0.000525766
0.0298878
4.99336e-05
1.45207e-06
-2.10513e-06
4.40911e-06
-0.00060545
0.00017031
0.309405
-0.00955449
-1.30837e-06
0.176962
0.00820933
-0.079748
-0.026106
-2.47441e-05
-2.31821e-06
-5.79959e-06
-0.0573204
-0.0148647
2.23445e-05
-0.000311914
0.001178
1.90143e-06
-0.00372742
-0.187217
-0.0405669
-0.000894211
-0.00399332
0.0547544
6.4803e-06
3.72294e-06
-0.0793208
-0.0476257
-0.000355484
-2.76045e-05
0.00479803
5.44428e-08
1.85174e-06
0.0496605
1.50152e-06
4.91666e-05
-5.11063e-07
-1.71081e-07
0.0584283
-0.000674358
-0.000479216
1.25451e-06
0.0536302
0.00261461
-1.43314e-06
1.6669e-05
8.09854e-06
4.77478e-06
0.0978027
0.145231
0.0944087
0.247365
-0.0780579
-8.68238e-06
0.046998
-0.00417076
-0.000210824
5.34511e-06
-2.69941e-06
-0.000145444
6.60559e-05
0.00201213
0.0867417
-0.00038737
5.84627e-05
-4.19192e-06
1.75622e-05
6.93029e-05
0.021863
-0.00062453
1.87443e-06
0.000355339
-2.18151e-06
3.99506e-05
-0.00148574
4.74639e-06
4.60235e-06
-7.76188e-05
7.15187e-06
-0.000662674
0.0103644
-0.00111642
7.82516e-06
-0.000292134
-3.75762e-06
-0.0757807
-0.000638843
0.0141942
1.68359e-05
3.89176e-06
0.021417
4.91676e-05
1.55649
-0.0575936
-1.18272
0.106867
-2.64837e-06
0.0213503
-0.000193681
-5.62252e-07
-2.21596e-07
-4.68536e-07
-0.00133896
0.000206556
-9.8132e-05
1.11328e-06
-0.0469324
-0.000911527
-0.0633605
-2.43529e-06
-3.01456e-06
2.37325e-05
0.00136197
-0.108236
-0.000255384
3.91531e-05
-0.000193338
3.0979e-05
-1.56318e-05
-2.6195e-06
0.0292424
-0.0303535
6.8472e-06
6.18593e-07
3.33604e-06
-2.21123e-06
0.015852
-0.0219899
9.05026e-06
0.0220812
-0.12177
4.1903e-06
-0.000601123
0.155128
-8.41568e-06
-0.105933
9.84864e-06
0.000167854
-0.000267626
0.000160197
0.0120397
2.69479e-06
-0.0201257
-7.52416e-06
-1.39349e-05
-0.0193261
-9.67963e-06
2.76652e-05
0.00254757
-2.12205e-06
4.52948e-05
-0.0771942
0.258136
-0.000465697
0.170755
-0.00172883
-7.21633e-07
-2.32364e-06
0.390564
0.00127814
0.000115593
-0.0574531
-6.4339e-06
1.81973e-05
1.92461e-06
-0.054011
0.134925
9.84664e-05
2.0069e-05
0.019951
2.73149e-05
2.4193e-05
0.0554942
0.331787
-0.00317751
3.41371e-06
6.15746e-06
0.0510055
-0.54358
0.000548196
4.91713e-05
0.0292994
3.08789e-06
0.0491381
-0.00177993
0.000466672
5.60719e-05
-1.60722
9.518e-05
-7.66692e-05
0.0345931
2.17188e-06
-5.5248e-05
4.37884e-05
-3.3756e-06
-0.130392
7.33459e-05
-0.000772963
-0.000312418
0.0175001
-4.72017e-06
-0.0775902
-4.42172e-05
0.000491352
-1.35645e-06
3.30632e-06
4.80114e-08
-0.044306
-1.76888e-06
2.94626e-06
0.209861
4.02237e-06
0.0301044
3.41147e-06
7.70209e-05
-0.00049375
-0.0447648
0.0147326
-1.27105e-06
-0.506183
0.0103561
1.57941e-05
-0.0319017
-1.01817e-05
-2.73916e-06
-0.00256097
0.534871
-0.499264
7.06612e-05
-1.78182e-06
5.18466e-07
-0.0286651
0.000722925
-0.00115758
0.000113122
-0.00395049
6.19434e-06
6.10141e-05
-0.000318305
-0.0672115
-0.000482355
0.0444227
5.97632e-06
-0.000556788
-0.000665404
-0.0256483
0.000101949
0.11949
0.157485
3.98139e-06
-0.649387
-0.0292592
-0.0690132
0.342866
-0.0177174
-0.0140502
3.74063e-05
-3.03607e-06
0.000107098
0.027506
-2.83732
-4.66214e-06
3.87503e-05
-0.000556023
0.00473708
3.90982e-06
-0.245134
-6.04143e-06
5.58639e-06
-0.170163
0.0540358
-0.00591841
-7.18728e-07
4.92963e-07
-0.306149
0.025989
-0.000555755
-6.87402e-05
0.0168063
-0.0407842
-0.0855217
-0.000241407
-9.26552e-05
1.81889e-05
4.20753e-06
0.0859359
-0.000215629
0.0259988
-0.0021121
-1.6305e-05
-0.602731
-0.0649847
0.0230765
3.13724e-06
1.44013e-06
-1.60459e-06
-2.4262e-06
2.62975e-05
-0.281353
2.13355e-05
-0.0417457
3.93e-06
-0.000478673
2.83443e-06
-0.00155913
-1.18372e-05
1.29561e-06
0.0237384
-0.000155373
-0.000298088
-2.83649e-05
-0.00051139
0.343167
0.00433286
5.369e-05
0.0789341
1.01828e-05
0.572946
-0.00334747
1.25383e-05
-0.0529167
0.0921869
0.0194894
-0.0162156
-0.0013875
-3.21658e-06
0.00274543
2.15961e-05
-0.0608176
-0.0183742
-2.05206e-06
1.46912e-05
-0.0104966
-0.054429
-0.0430206
8.26803e-06
6.25654e-06
0.100323
-0.0187718
-0.000991092
6.84977e-05
-4.90457e-05
-0.00885586
-0.562543
-0.000751068
3.09412e-06
0.000157036
-1.86773e-06
-4.76626e-05
-0.00525568
2.70745e-05
-0.0529298
0.00210348
5.93955e-06
0.000107277
-3.341e-06
4.61284e-05
0.0391821
0.106026
5.39414e-05
0.178852
2.75688e-06
5.91762e-05
-3.36635e-06
-1.78248e-06
1.04284e-05
5.61761e-06
0.0139567
3.02983e-06
-0.000315923
3.54126e-06
6.59305e-05
-0.00623003
-0.648055
-3.91548e-05
-0.0722625
-0.00141559
0.358405
6.73193e-05
8.30565e-05
0.0381576
3.75773e-05
0.000222019
-0.250569
-0.210268
0.0413915
0.000125472
0.076243
1.59614e-05
-0.000121635
-0.000234606
0.0176645
-1.10337e-05
-0.0573266
-2.45145e-06
-2.42522e-06
-0.434257
-0.000170255
0.264839
5.75042e-05
-2.04005e-06
-0.00240314
-1.74884e-06
4.80575e-07
-9.45637e-05
9.32286e-06
0.0264005
-2.04691e-06
0.0324259
-0.367247
-0.000233407
0.09829
3.95278e-06
-4.66254e-05
-0.000264579
4.86466e-06
-1.74608e-06
-0.000594373
8.05522e-06
-9.38006e-06
1.95223e-05
3.83379e-05
0.0406115
-0.0142716
0.00347833
-0.00450752
0.0284755
2.09387e-06
-0.0397872
5.62563e-05
-1.76471e-06
-0.0452696
0.0584832
0.0570461
1.12822e-06
-0.00894224
-0.0732917
0.0663734
-1.54193e-06
0.0895415
6.01783e-05
2.54455e-05
-5.67814e-05
-5.78017e-06
-0.0186747
-0.0335856
-0.0333682
-1.00121e-05
2.56492e-06
0.283687
1.28733e-05
-0.126934
-0.0101354
-1.16592
0.280973
-0.0671707
4.43805e-05
5.03345e-06
0.00206901
0.000787362
1.81472e-05
-0.000167945
0.000140291
8.40145e-06
-4.39178e-05
-0.0323205
-9.94256e-06
0.125178
0.26888
-0.0564091
-0.00635986
6.3994e-06
1.09512e-05
1.77076e-05
-0.00291186
-0.0411234
-1.61379e-06
-6.81576e-05
-9.79697e-06
-0.000653745
5.77962e-06
-9.2285e-06
1.08788e-05
4.47179e-05
0.166394
0.000110598
0.000373103
-9.44689e-07
-0.000309939
0.00609714
1.09212e-05
0.286148
-0.270019
-0.00056066
8.72288e-06
-0.000155565
1.59093e-06
3.38522e-05
1.64616e-05
0.0767899
-0.000477257
-0.0373679
1.80441e-05
0.0206999
2.00157e-06
-9.05464e-06
1.17697e-05
-0.0232949
-0.00478126
-7.47959e-06
4.94202e-05
-0.000447157
-0.000394376
-4.94291e-05
-0.168102
-0.00139901
0.12916
0.0010011
-0.00228153
-0.000242053
-0.000606807
-0.0298641
-0.00202263
-0.0643442
0.52566
2.06108e-05
0.0138227
5.46602e-06
5.46151e-05
2.07967e-05
1.02142e-05
-0.00529883
6.22554e-05
4.57807e-05
-0.00997179
-0.00214006
0.179754
6.88473e-07
2.32861e-05
0.000102721
1.01418e-05
0.000105082
0.102155
-0.0243409
-0.0559317
2.85669e-07
3.41475e-05
-6.94263e-05
-0.14442
-0.00711949
0.00207871
1.09935e-05
7.27813e-06
-0.141658
0.000212257
0.191878
-0.0662015
-0.125664
8.34378e-06
0.140118
5.31644e-05
2.7569e-05
4.53833e-05
-0.0365442
0.012648
-0.00224327
-0.076692
1.83125e-05
0.000447476
5.49507e-06
0.191171
-0.000356514
0.00439808
0.0303823
2.20672e-05
0.000878738
2.45783e-05
-0.0291942
0.0772766
1.29438e-05
0.0376328
-0.0229667
0.0629582
0.0303546
2.52833e-06
5.41565e-06
0.0409884
-0.0210312
-0.265512
8.66452e-06
3.52061e-06
5.93281e-06
0.0328879
0.000417444
9.3855e-06
0.166191
0.000743364
-0.191154
0.162789
0.0376884
1.47074e-06
0.0364563
2.98018e-05
5.5005e-06
-8.055e-05
-0.122746
4.14516e-06
-2.95129e-06
-0.955067
-0.0212318
1.31882e-05
1.38237e-07
-0.0753823
1.43902e-05
-0.0382453
3.65671e-07
-0.150596
5.46507e-06
-0.000331188
-0.104924
-0.00455371
1.90137e-05
0.400205
0.00294084
-0.0740879
0.30645
0.162935
-0.0698002
1.67562e-06
-0.36764
-5.35382e-05
6.34619e-07
9.97746e-06
0.135457
3.75257e-06
0.020204
-2.8042e-06
-1.4291e-05
0.179038
0.000491385
-0.0159209
3.33897e-05
-0.00094675
-2.1305e-06
9.44524e-07
0.0750833
0.16389
-1.07287e-06
-0.000469855
-0.00196106
1.15591e-05
-6.63625e-06
-0.0142945
1.90388e-05
1.26189e-05
-0.000792902
0.0949605
0.0832103
0.095956
0.0317277
-0.0773069
0.0846262
-0.0429299
-1.3341
-0.000496465
-5.28194e-06
-0.000197021
1.82783e-06
1.51029e-06
-0.1003
-0.0180043
4.1421e-05
-0.249941
-0.0277629
0.106523
0.0431514
-0.0496261
4.58729e-06
-0.0505551
-0.0146956
9.91673e-06
2.01971e-05
-0.0438256
0.00155734
-0.0797405
-0.0143019
-0.000108433
-0.0485403
-0.0473677
5.05375e-06
3.18003e-06
-5.39857e-07
0.015534
9.26516e-07
0.0360401
2.24324e-06
1.29387e-05
4.73529e-05
0.0337344
-0.0220833
0.323711
2.09841e-05
0.113514
9.61165e-05
0.000161118
8.38752e-07
1.53041e-05
-0.01926
6.67948e-05
-0.00663995
0.00690019
0.1376
-0.000338971
6.3997e-07
-0.000133464
1.15131e-05
0.000404525
2.13909e-05
2.97777e-05
1.97932e-05
-5.9128e-06
0.00132324
1.2246e-05
7.57964e-05
-5.49897e-06
7.01974e-05
-0.000194895
0.0343859
-1.31765e-06
-0.000113527
-8.80447e-06
0.00744611
-0.000265336
-0.0744011
0.0143925
-8.23468e-06
2.17452e-05
8.42617e-06
-0.0553119
5.80276e-06
-0.00341804
4.20769e-07
-1.0906e-05
4.79615e-05
-0.0198549
4.47172e-05
-1.52503e-05
-5.06748e-05
1.93166e-05
-0.000311545
-0.00783306
0.108433
5.6909e-06
5.28938e-06
-0.00276573
-7.78109e-06
-1.29577e-05
-0.00805413
-0.0427385
6.05106e-06
0.000155796
-0.00730519
0.0915855
8.7762e-06
1.26409e-05
-0.035749
2.36345e-05
-0.0557417
0.0863045
-0.0124094
5.89667e-06
-0.000771043
2.25474e-06
-0.0593566
1.63364e-05
0.000117954
-0.0003182
0.358145
1.38084e-05
-0.00649814
0.222419
1.48485e-05
0.00348244
-0.000568629
7.78265e-06
-0.0152497
5.3071e-06
-4.60558e-06
-4.77519e-06
0.00104463
-0.0615938
0.000986726
3.43654e-05
1.14399e-05
-6.87187e-06
0.0409666
0.0893915
-0.0215345
0.0368429
9.87827e-06
0.000183892
-0.00190846
-0.00252933
0.000637769
0.000884724
1.22535e-06
-6.24503e-05
-5.96397e-06
0.0959316
2.13081e-05
2.19555e-06
-0.13124
0.0139151
8.80114e-05
-0.000266766
-4.60151e-06
1.96018e-05
-5.78497e-05
7.07533e-05
0.320901
-0.000458163
0.000496513
-0.00012874
-0.00127114
0.0777688
0.00329837
-0.0263052
-1.82398e-06
-8.06736e-06
-0.00240384
0.447849
0.0671007
-0.194733
-4.14707e-05
0.397018
-0.010825
-1.03511e-05
2.41599e-05
2.19676e-08
-9.99632e-05
-0.000509087
0.00202966
-0.0546203
0.0848074
1.94078e-05
-0.0774916
0.126753
1.14924e-06
-0.0049207
0.50061
0.0266894
2.40599e-05
-0.000430791
-1.31156e-06
7.96729e-06
1.42182e-05
7.24739e-05
-0.0438908
0.0536156
-0.0623851
0.901366
1.4423e-05
-2.75162e-06
-0.00037929
1.77732e-05
-1.46297e-06
-5.23687e-06
0.00562869
1.37859e-07
-0.0154796
-5.77313e-05
0.00193976
-0.00197901
0.0226325
0.0535468
0.0754094
-7.37345e-05
5.72207e-06
6.24975e-05
0.11327
0.295663
3.15082e-05
-1.52264e-07
-4.10829e-07
0.000240948
6.61423e-05
0.000367517
-0.0183613
1.32115e-05
-5.18087e-06
-0.000134272
0.00549369
0.0405941
-0.118606
1.95695e-07
-0.000679045
1.37913e-05
-0.0511637
1.00724e-05
-0.0550168
-3.07756e-06
1.29481e-05
4.16458e-05
4.42928e-06
0.00529519
4.74538e-05
-8.91082e-05
0.0551113
8.3423e-05
3.50619e-05
6.44508e-05
4.17901e-06
0.0909915
0.0886652
-1.70832e-05
1.05332e-05
-0.0192377
1.16514e-06
-0.00582264
-5.93393e-06
0.000487799
0.000515307
0.506927
1.86519e-05
4.61376e-05
3.59696e-06
-0.000479306
-0.0437756
1.70305e-06
0.0590303
-0.196417
-0.0688813
0.197259
2.36888e-05
0.0873962
1.51216e-05
-0.038382
1.83987e-06
0.100456
0.02472
-0.775402
-0.629974
-0.0885915
-0.000222824
-0.133707
-3.54318e-06
0.0560369
-0.0470495
-0.0408474
0.0407793
7.37759e-05
0.127186
0.469873
-8.26859e-06
3.32513e-05
4.78842e-06
-0.00817503
6.48405e-05
-0.000436257
-7.00282e-05
1.22677e-05
-1.64074e-06
1.04318e-05
-0.0123771
0.0212688
5.56458e-05
-0.0911588
0.230774
-6.73017e-05
3.00609e-06
-7.443e-06
0.000597637
-0.0497006
0.0227125
8.18508e-05
-6.64759e-06
-0.0166629
0.00083164
-8.42975e-05
-0.446718
5.57591e-05
-0.0446669
-9.47915e-06
0.000241752
2.28793e-06
-6.88553e-05
-0.000431864
-0.0784227
0.12137
-0.0196205
0.000333136
-0.702246
0.000161278
3.44398e-05
2.80934e-05
-0.0149164
0.441527
-0.117251
0.0630372
2.41009e-05
5.78568e-06
-5.48851e-07
4.61557e-07
-5.37451e-06
0.302454
6.01974e-05
0.0642283
2.71063e-05
-0.0753153
0.176431
-0.0607927
-0.00315831
2.49296e-05
-0.131037
-0.000156348
-1.02572
-0.0187289
-1.83408e-06
0.0860992
4.85306e-05
0.262118
0.0852439
-2.41761e-05
0.225121
0.132724
-4.64697e-05
0.00016372
1.99765e-05
-0.133032
0.0281606
3.07836e-05
3.63703e-06
0.12114
0.258339
-0.00125115
-0.190611
-0.000462425
0.000684397
-5.66083e-06
0.243212
-0.03766
0.00104493
7.35255e-06
-0.0065834
-0.235414
-3.36898e-06
2.53044e-06
3.23032e-05
-0.0404991
-0.0188593
1.80251e-06
0.0235977
1.05591e-05
-2.81851e-07
1.13681e-05
1.4454
-0.0590759
-0.0618285
0.103859
3.62311e-05
3.09182e-05
2.38684e-07
-1.48091
2.4603e-06
-0.727504
6.71139e-06
0.19981
7.17439e-06
1.88991e-06
-0.00186196
0.23803
-0.0348583
9.88024e-06
-0.0940278
-3.71231e-05
7.19533e-06
2.51178e-06
0.000164819
-0.000396168
-0.000479905
0.000334675
0.0156024
2.83871e-05
-0.00116731
-0.221755
0.203945
-1.01482e-05
0.00141342
-0.0268196
1.55579e-05
-0.0620233
-0.000441811
0.244561
9.02291e-06
0.0001175
-1.65921e-05
-2.01659
0.0499208
-0.00504825
-0.0468733
4.33664e-05
-0.000207776
2.80862e-05
0.0203517
8.01192e-06
-8.11507e-08
0.309182
0.0011012
0.436976
0.0898303
-0.000271861
5.68652e-05
-4.84707e-06
0.0919748
-0.000100512
2.84622e-05
0.0005266
-7.91045e-05
-9.46753e-05
5.91885e-06
-0.0715188
-1.96224e-06
-0.0180503
0.0925058
-0.000158304
0.0516209
5.47636e-05
-0.0490042
7.12452e-06
-0.140997
0.166893
-9.45079e-07
3.81076e-06
4.23031e-05
7.57798e-06
0.000142861
-1.54036e-06
-0.000222576
-0.000584631
0.0554265
0.0069485
1.24949e-05
1.21984e-05
-5.39831e-06
0.0510443
7.43643e-06
6.49853e-06
0.0480749
1.95018e-05
0.0275936
-0.0345357
-0.000181615
-2.40458e-06
4.61335e-05
3.21625e-05
1.061e-05
0.00781897
1.07676e-05
2.08629e-05
-0.124471
-0.0589401
0.258394
3.28268e-05
-0.334642
0.0188472
7.67299e-06
0.0283421
0.00499967
1.61196e-06
2.0858e-05
7.12911e-07
0.0399366
0.0374849
-0.0146858
1.10485e-05
3.59806e-05
-8.9766e-05
3.87532e-06
-0.00153132
1.05923e-05
0.0838035
-0.356962
-0.0257301
-2.47359e-06
2.2464e-05
1.64076e-05
-0.0262193
-4.837e-06
-0.0734927
-0.0458922
-0.0758045
-0.177958
0.119973
0.141621
-3.67172e-06
-0.0841693
-0.0128822
1.29271e-05
-4.14981e-06
-7.42397e-07
-0.0363917
0.0247746
-0.774827
2.77708e-05
-0.0449994
9.69769e-06
-0.000402233
4.11187e-06
4.99001e-05
1.29966e-05
-1.97157e-06
0.184609
1.29098e-05
-0.126039
-0.330256
-0.163234
0.000161324
-0.000234336
-0.144439
-0.0402276
-1.60582e-05
0.659249
-5.86148e-06
1.98831e-06
2.28282e-06
-0.00568774
8.88179e-06
0.0530888
-0.000147805
0.00374597
0.000215262
-0.0690922
0.0561071
-0.00556523
-1.49811e-06
-0.000281696
0.000421117
-0.00181714
-1.01941e-05
-7.92172e-06
3.56412e-06
-0.0860153
5.45003e-06
0.0815995
0.034313
-5.90626e-05
0.000309562
-1.01722e-05
-0.0663911
8.28713e-06
-0.0536795
-1.54581e-06
0.231397
-1.33542e-05
5.10945e-06
0.0408384
-0.366145
3.3788e-07
-0.00030595
5.67623e-05
-0.617253
-0.0509836
-0.00115951
-0.016115
1.0567e-05
-0.000481009
-0.00562641
-4.78295e-06
-0.00347417
-0.000120196
-0.000529143
1.04367e-05
-0.0202156
0.0675346
5.99389e-06
0.000778069
1.79954e-05
7.30106e-05
-0.00332399
0.0328518
9.60248e-05
6.23817e-05
-0.0388856
3.77471e-06
0.0477811
7.57904e-05
1.52342e-05
1.26355e-05
-0.0681487
4.35038e-07
0.371394
-0.00718772
-0.000744468
6.28759e-07
0.000289007
0.00369737
1.63063e-05
-0.0758457
1.15417e-05
3.41108e-05
-0.0208818
-0.052694
1.57127e-05
-0.0452198
0.149159
0.0658163
1.14958e-05
-0.0644747
-0.365201
0.310433
1.14126e-06
9.58952e-06
1.6901e-06
-0.0502344
0.000157729
-0.0511954
-0.142382
1.32611e-05
1.35896e-05
1.41361e-06
0.158637
0.0237149
0.129678
0.0477393
2.29355e-07
0.0246616
-0.00793895
-0.000146262
-0.0586974
-0.0040274
0.00032645
0.658542
2.00877e-05
1.70964e-05
0.0423743
0.0166569
7.25754e-05
-0.235278
1.85355e-05
3.24212e-06
-0.0913749
0.0519079
0.000473735
0.0494574
3.92322e-05
1.16082e-05
-3.62732e-06
0.00125628
-0.37414
1.56866e-06
-0.000187882
-0.0320452
2.47707e-06
9.33516e-06
0.0257074
0.510099
4.55677e-05
1.04875e-06
1.21382e-05
3.06902e-05
-0.126093
7.52002e-06
-1.60075e-05
7.60282e-05
-0.0116509
0.0319456
0.255289
-0.0775516
6.73286e-06
8.79834e-05
-0.00907601
-0.0245724
0.000159824
-0.140893
6.78365e-07
7.45833e-05
4.6698e-05
0.000139507
0.000620556
-1.29966e-05
0.100474
6.30139e-05
-9.75809e-06
8.2364e-05
-0.223585
0.102026
0.0216739
2.79838e-06
5.87477e-06
-0.0260332
-0.0157845
2.40845e-05
-9.4557e-06
1.19078e-06
0.0392535
1.00301e-05
-2.0896e-05
5.56608e-05
3.65289e-06
-0.0159601
-0.0963271
1.24773e-05
4.66876e-05
1.0206e-05
1.0189e-05
0.0323903
-0.026771
-0.000459973
-0.156331
0.00140106
1.18737e-05
6.35733e-07
5.78847e-06
1.80931e-06
9.93594e-06
-1.62008e-05
-0.000932391
-0.0107648
-4.1941e-05
-0.000938942
0.028395
-0.00333023
5.59305e-06
-7.38511e-08
1.85913e-05
-0.201109
1.09855e-06
-0.244509
0.129077
0.00156157
0.000133146
0.103997
9.48017e-06
-0.00100035
2.25744e-06
1.03434e-05
7.4738e-06
-1.18092e-05
0.00273793
0.0666724
0.0388657
0.000130694
0.382116
0.0232805
0.0497908
1.73262e-05
0.0369312
-0.0583743
-0.00103817
-0.0968496
0.0229157
-0.000418358
-0.113674
7.9684e-06
1.03753e-05
0.0553765
6.99656e-08
4.41077e-05
0.10535
0.0326166
0.203888
0.00485769
-6.51583e-06
-0.000118044
8.7987e-06
0.0893981
4.32735e-06
0.0127091
0.466954
0.00512184
0.0103286
9.14405e-06
1.07084e-06
-0.000593172
-0.246436
-0.0208606
0.00032366
0.154801
-7.55734e-07
0.0756357
-0.013772
-0.165004
7.10176e-05
9.87683e-06
-1.31021e-05
3.63152e-05
1.14189e-05
7.4238e-06
4.22638e-05
-0.0117704
-0.000699285
-0.00484263
0.257961
-0.467536
0.000425913
1.61501e-06
1.55966e-05
-7.52184e-06
4.01773e-06
7.496e-06
-0.0314495
-0.0766018
-0.41762
-0.0504176
1.68605e-05
0.117162
-0.00107712
-0.0445365
-0.0232522
9.43928e-06
-8.91034e-06
0.0366341
9.09862e-06
3.16522e-07
-0.223436
-0.0185567
0.122457
5.56518e-06
8.15016e-06
0.000113818
0.000112078
-0.263045
-6.51415e-06
-7.10768e-06
0.171414
-1.30598e-05
-0.0648753
8.27746e-05
0.0637549
1.03883e-05
0.0450957
-0.160694
-3.9263e-05
0.0116045
-0.000556884
-0.00789084
1.10286e-05
7.79937e-05
-3.6657e-06
5.51165e-05
0.780416
3.22205e-05
-0.0651997
-1.67607e-05
-1.16072e-05
9.12493e-07
-0.0577088
-0.000109253
-0.00106463
-0.172444
-3.2254e-07
-0.00035641
0.011617
-9.95639e-05
3.00131e-06
1.23889e-06
8.98548e-06
0.000838486
-8.4488e-06
-1.01664e-05
-0.056284
-0.0159948
-0.0561924
0.230419
0.138205
0.126103
-0.000350542
-0.0432537
-0.00101588
9.54888e-06
1.89051e-05
1.37932e-06
1.21042e-05
-0.00622215
-0.00722204
1.67266e-05
-0.153474
-0.0593739
-1.2872e-06
-3.27543e-05
2.46181e-05
-0.080976
0.0287035
-0.0166263
0.514351
-0.022114
1.34252e-06
0.000541886
-0.000913979
0.097952
0.0362651
2.46036e-06
-0.000167772
0.0625976
2.30292e-05
-0.302933
1.48073e-05
0.013812
0.0805481
-0.0435018
-0.000374419
5.60118e-05
0.0953581
0.000155373
-0.040529
-0.0598133
-0.0129965
-0.000763454
-0.0643259
9.01895e-06
0.000169419
-0.000127031
0.0149261
0.168949
-0.0072042
-2.34902e-05
-7.88564e-05
-0.000608318
-2.59885e-05
0.0193041
1.67572e-06
-0.000283642
0.0324582
1.28757e-06
-0.129259
-0.214533
-0.0555355
-0.0774553
-0.222628
-0.0240038
-3.36003e-06
-0.0100438
-6.06506e-06
1.98427e-05
-4.98156e-06
3.20115e-05
-0.0272494
2.80875e-05
1.5097e-05
3.97302e-05
-9.91137e-06
-0.0906668
4.14891e-05
-0.000714529
-0.0221702
-1.95551e-06
-0.0116387
-0.000913261
-8.42815e-05
0.0405654
0.0393721
5.57279e-07
-0.535423
1.61156e-05
-0.0599164
0.263502
1.29057e-05
-2.52224e-05
4.1957e-05
-0.0186649
-0.023579
-0.000663667
-0.0631626
-6.94214e-05
1.2988e-06
0.0496725
2.01955e-05
3.80772e-07
0.146441
-0.000128267
-5.00018e-07
-9.69722e-06
-0.00142835
4.18284e-05
0.04673
0.0070186
0.0238322
0.23671
-0.000210876
0.000334779
-3.63995e-06
-0.0209842
0.0374387
0.538689
1.32232e-06
1.3054e-05
-0.000599701
4.64203e-05
-0.0565808
1.01909e-06
-0.0162143
-7.93754e-06
-0.00718178
-1.73253e-05
0.057221
-0.00494968
-0.000146437
-0.0115661
-0.142448
0.00845356
-0.0186537
2.14383e-06
0.181689
0.177219
0.022779
2.64323e-06
-0.00958509
0.0402197
-0.88515
-0.000522343
0.0858368
0.0847807
-0.0192567
-0.000164335
0.0250071
-2.08943e-06
-0.000177172
-0.000150148
1.78844e-06
-0.000505734
0.385292
-0.0059493
-0.529753
0.0447031
1.41171e-06
-3.71094e-06
-0.000366394
1.98541e-06
0.017447
-6.86754e-06
-6.95015e-06
-0.0280983
0.0103314
0.000434365
-0.000946812
-3.45692e-05
0.00119732
0.00316157
-0.0235468
-0.0166474
1.7353e-05
-0.0271986
6.15684e-05
1.34223e-06
1.64559e-05
0.00620519
0.0194737
-0.00625566
0.0579746
1.61109e-05
-8.97206e-06
2.06674e-06
7.87886e-06
2.95826e-05
0.17923
0.104027
6.00592e-05
0.0153022
0.0575601
0.155498
0.917737
3.53652e-06
6.44205e-05
0.00645349
2.15499e-06
-0.00101793
5.02931e-05
2.93071e-05
-0.0818493
-0.0274564
-6.99877e-06
-0.000111027
6.85252e-05
0.00050396
0.246846
-0.125852
-0.025382
2.98821e-06
-0.000277257
-0.0490416
-0.000451889
4.92621e-05
0.212648
-0.0780942
-0.0042988
-0.0493086
-5.67409e-06
-0.0533714
1.40953e-05
2.0827e-05
4.13612e-06
0.000219334
-0.00916848
0.0744268
0.100511
-1.24313
0.000201363
2.05517e-07
-1.23118e-07
8.84141e-06
-3.00743e-05
-5.9986e-05
-0.029153
-0.058432
-0.000392453
-0.446524
1.22932e-05
0.000249061
-2.05822e-06
-0.0506795
-0.00401028
1.39758e-06
0.0031574
-0.000968087
0.233548
0.000508917
-0.00180399
0.541832
5.88762e-05
0.538893
0.0113118
0.0512406
-0.0316342
5.22633e-05
0.00028419
7.04993e-06
0.0102992
0.0171663
0.000112948
0.359469
0.0267847
0.425393
0.00037766
0.0108356
0.00039427
2.01752e-08
0.000100543
0.000102006
3.12146e-05
0.000312729
7.33969e-05
6.13401e-05
0.0209319
0.00112405
5.30689e-05
5.09666e-05
7.26969e-05
5.27255e-05
-7.54249e-05
-0.0921303
-0.00111988
-0.0932023
-2.59018
5.02538e-06
-0.0194968
9.93563e-07
-4.73813e-06
5.86795e-05
-0.019387
-0.000101849
-0.0417501
1.22957
0.000381439
0.000792133
-0.000284588
0.0301275
3.53309e-05
-0.0712835
-3.22235e-05
-0.000170162
-6.65805e-06
-0.0301762
0.000329492
-4.42731e-05
4.02499e-05
-7.73817e-05
3.01428e-05
5.94338e-05
-0.000216581
-0.000107542
9.68181e-06
2.955e-05
0.303709
0.0442659
-0.0150139
-3.25022e-05
4.19636e-06
-0.0647319
2.27051e-05
-0.00049279
-0.169159
-0.000157897
0.263605
5.1948e-07
2.10202e-05
-1.21814e-05
7.49554e-05
3.34672e-06
-0.023562
-0.0568977
-0.159277
-6.45854e-05
0.0110757
0.0219216
2.6486e-05
-0.00112126
-0.000452509
0.0212737
-1.90149
0.00115887
3.41757e-05
-0.000123821
0.000163781
0.000144624
0.207337
-0.00422145
-0.0308692
-5.13138e-08
0.0210141
0.0110683
0.621895
1.88017e-06
-4.8856e-05
-1.18831e-05
4.91577e-05
-0.129822
5.84266e-05
6.20599e-05
-5.73007e-07
4.79175e-07
0.677467
0.0117395
8.62276e-06
0.316699
0.00453947
5.11214e-07
0.00242762
-0.0292986
-0.00102438
-0.000964074
3.26509e-06
5.35193e-05
0.00206609
4.29592e-05
-8.31006e-07
-0.216121
6.90715e-05
-0.0232717
-0.000466488
3.72731e-05
-0.0022459
0.000174283
-0.000831507
-6.88674e-08
0.00902543
-2.1205e-06
4.72163e-05
-0.053112
-3.01928e-05
1.10428e-05
0.000955896
3.31739e-05
0.000224024
8.94901e-06
-1.16518
5.09704e-06
-0.00206089
-0.310232
-0.000831169
-9.75108e-06
0.0181443
2.39117e-05
-0.213947
0.00195718
0.00114462
-7.84111e-06
-0.038926
-1.38539e-06
-0.000696591
2.37875e-05
1.34519e-06
-0.0590985
0.208961
1.73283e-05
0.0105587
0.00143058
-0.000621518
-0.000409468
2.87832e-05
0.264036
0.131851
-0.417996
0.0284867
-0.000421782
-0.00141007
-6.36712e-06
-0.00273517
-1.43953e-05
-0.312044
0.18763
-0.0511507
-0.0318527
-0.0599463
6.40511e-07
-0.73
1.04396e-06
1.33804e-05
9.73347e-06
0.0822561
0.0021628
-0.00382897