/*--------------------------------*- C++ -*----------------------------------*\
| =========                 |                                                 |
| \\      /  F ield         | OpenFOAM: The Open Source CFD Toolbox           |
|  \\    /   O peration     | Version:  v2012                                 |
|   \\  /    A nd           | Website:  www.openfoam.com                      |
|    \\/     M anipulation  |                                                 |
\*---------------------------------------------------------------------------*/
FoamFile
{
    version     2.0;
    format      ascii;
    class       volScalarField;
    location    "550";
    object      p;
}
// * * * * * * * * * * * * * * * * * * * * * * * * * * * * * * * * * * * * * //

dimensions      [0 2 -2 0 0 0 0];


internalField   nonuniform List<scalar> 
13851
(
1.81769e-05
0.0148544
-0.0203486
-2.35915e-05
-0.0427983
0.0115248
-0.0233124
-0.0271372
1.84603e-05
-0.013565
-0.0053297
-0.0326563
-0.0726457
-0.0694575
-0.0153162
-0.0152986
-0.0261878
-0.000280135
-0.0539604
-4.57286e-05
-0.00028676
-0.0222284
0.000575033
-0.000360896
0.000587548
-0.025612
-0.0376899
-0.0691599
-0.000461608
-0.00795579
0.0112829
-0.0263902
-0.0200904
-0.0106737
-0.000427545
-0.0807218
-0.0815065
-0.0151997
-0.0136839
-0.00751525
-0.00538979
0.000442087
-0.109528
-0.00914044
-0.00853575
-0.151803
-0.00811364
-0.0175704
-0.0385235
0.00301538
-0.0608253
-0.063339
-0.0809926
-0.0149864
-0.00746709
0.000432612
0.000412847
-0.0745025
-0.00801241
-0.0233907
-0.0119777
-0.0262563
0.00475934
-0.0465453
0.0199858
0.00174358
-0.0809751
-0.00859619
-0.0482449
-6.01359e-06
-0.0749137
-0.0829123
0.00495127
-0.0151498
-0.00648059
0.000335193
-0.0234235
-0.0858071
-0.0419799
-0.0751461
-0.0246822
-0.00353744
-0.0149362
-0.143492
0.00560143
-0.0380799
0.00815404
0.00129475
-0.0332101
0.00104283
-0.0803902
0.00157012
-0.00782146
-0.036678
-0.0339922
0.000473859
-0.0442961
-0.09807
0.00229386
0.000476624
-0.0648181
-0.0503964
-0.0045935
-0.0454576
0.00016571
0.00662553
-0.0541585
0.000262698
-0.0832148
0.0104415
-8.9974e-06
0.00105831
0.00147261
-0.000312762
4.06411e-06
-0.0105071
-0.095051
0.000384175
-0.00265269
-0.00666129
-0.109673
-0.0444236
-0.0732469
-0.0093634
-0.0140473
0.00133042
-0.0102217
-0.0458041
-0.000312427
-0.038585
-0.0055174
-0.00147054
-0.0760638
-0.0150596
-0.012644
-0.00190819
0.000382391
-0.0818111
-0.0159882
-0.0337897
-0.0687622
-0.0070066
0.000986819
0.000821574
-0.0195626
-0.00769674
0.000444876
-0.0358191
-0.0227433
-0.00811013
-0.0778879
-0.00615952
-0.0687664
0.000485893
-0.0282556
-0.0189601
-0.00153544
-0.0107333
-0.0619179
-0.059194
9.58048e-05
-0.0447978
-0.0765671
-0.00137428
-0.00681314
0.000664889
0.000791904
-0.0497825
-0.000581645
-0.116552
-0.0852639
0.000251129
-0.00164741
-0.0358096
-0.00139902
-0.0206148
-0.0446828
0.00126843
-0.0583919
0.000246635
-0.0256949
-0.0799969
-0.0153443
-0.0225258
3.61482e-05
0.000658906
0.00152585
-0.00664777
-0.0390156
-0.00705647
-0.00744442
-0.0810589
0.00107551
-0.0435042
-0.0190484
-0.0268381
0.000951951
-0.00500819
0.00117125
0.000332333
0.00131992
-0.117563
-0.0036314
-0.0108254
-0.0106828
-0.0156052
0.0315748
-0.0284766
-0.0799718
0.000150182
-0.0820438
-0.00480005
-0.00947235
0.000165379
0.00073114
9.01014e-06
0.00737064
-0.150975
-0.0152233
-0.0803419
-0.0283788
-0.0253801
-0.0892122
-0.0534831
-0.0792583
0.000700663
-0.0374373
0.000176677
-0.0919834
0.000143471
-0.0247965
0.0234306
0.000251071
0.00108181
-0.0619481
0.00587552
0.0351455
0.0199546
0.000804141
-0.0110605
0.0115864
-0.00825477
0.000192325
-0.0108853
0.000174383
-0.0802271
-0.0493444
-0.0120175
-0.0176829
-0.0187038
0.00320754
-0.011144
-0.0185218
-0.0184219
-0.060887
-0.00152299
-0.00587647
-0.0827383
-0.0958384
-0.017306
0.000752907
-0.000456972
0.00501298
0.00107363
-0.0484726
-0.0261542
-0.0187019
-0.0367522
-0.0887914
0.00122691
0.00352946
-0.0275292
0.0176697
-0.0419353
-0.0147704
-0.00143768
-0.00411004
0.00188819
-0.0803053
-0.00471388
0.000166879
8.088e-05
0.000102236
-0.0605579
0.00123807
-0.021333
0.000129513
-0.0161869
0.0149553
0.0037973
-0.0354964
-0.00873292
-0.0234554
-0.0468122
0.0029953
-0.0547603
-0.00950222
-0.0290289
-0.00145845
-0.0796357
-0.0446673
-0.025011
-0.0805717
-0.00865236
0.00784098
-0.0868824
5.91606e-05
-0.0563727
-0.0355039
-0.00874156
-0.00762189
-0.00894108
-0.0168613
-0.0945513
0.000512101
-0.0192009
0.00138141
-0.0824702
-0.078713
-0.0153751
-0.0544659
-0.0159882
-0.0950537
0.00410548
0.000656582
-0.000570538
-0.0776364
-0.0372721
-0.0294095
-0.0161078
-0.00892394
-0.0164035
-0.00693191
-0.0614671
-0.0989847
0.00203558
-0.0795334
0.01083
-0.0151643
-0.042723
-0.0327329
0.00193533
0.0109145
-0.0643163
-0.0516123
0.00228861
-0.0205012
-0.0832722
-0.0153658
0.000249941
0.000432036
0.00799291
-0.0299865
0.0122327
-0.0901916
-0.00157078
-0.0232549
-0.000512162
-0.0159314
0.000160534
0.00024571
-0.00191091
-0.0832133
-0.00260632
-0.011796
-0.0559716
0.0005601
-0.0222316
-0.0101726
-0.00550998
-0.109809
-0.0115343
0.00864832
-0.0333276
-0.0114988
-0.00517541
0.000398548
0.00316745
-0.0585477
-0.00642436
-0.00105279
0.00143687
-0.0654588
-0.128223
-0.00157861
-0.00180752
0.00262705
-0.00212138
-0.015327
0.00158298
-0.0558151
-0.072563
-0.0517425
-0.0814693
-0.0838823
0.000587881
-0.0176333
-0.110112
-0.0755285
0.0227733
-0.0937665
0.00319778
-0.0336952
0.000526169
0.00768978
0.000168783
-0.016474
0.00256945
-0.0211588
0.000124437
7.49682e-05
0.000637531
-0.04808
0.0082964
-0.0971226
0.000720442
-0.0551795
0.00582588
-0.013557
-0.0169721
0.00765285
-0.0246534
0.00190494
0.000359386
3.70795e-05
0.000691695
-0.00488097
-0.0147757
-0.0489127
0.00561038
-0.0918053
-0.00840555
0.00765332
-0.00627347
-0.0635435
-0.00528699
-0.0120456
0.000284103
0.000698447
-0.0220729
-0.0194036
-0.0805754
0.00116687
0.00266833
-0.0227102
-0.0524925
6.6434e-05
-0.0341267
-0.0431965
0.00126761
0.000119724
-0.0155955
-0.0773848
-0.0634273
0.00261899
-0.000306803
0.000678361
-0.000396526
-0.115727
-0.0059457
8.90487e-05
-0.00149434
-0.00203967
0.000121443
-4.86765e-05
-0.00047215
-0.0101756
0.000127563
0.00101662
-0.0912654
-0.0150774
-0.0518331
-0.00197701
0.00360622
0.00319073
-0.000515179
-0.00346401
-0.00034468
-0.000444456
-0.0226054
-0.0196014
0.00933647
-0.0154806
0.00053051
-0.0693679
-0.0799711
-0.0162459
0.00370198
-0.0177093
-0.00481064
-0.151207
-0.00049401
-0.00341505
-0.00542487
-0.0357169
-0.0217606
-0.108499
0.000307521
-0.0829952
-0.00347277
0.000468839
0.00318127
-0.107243
-0.023658
-0.00538119
-0.00279475
-0.0124152
-0.00763955
-0.000984282
-0.00125639
-0.0216728
-0.0769931
-0.0570381
-0.0706238
-0.0704079
0.00532408
0.000115253
-0.0559356
-0.016886
-0.0267533
-0.0437711
-0.0021088
-0.00880881
-0.0805307
-0.0142611
-0.10894
-0.152523
-0.124972
-0.00768567
0.00318441
-0.00695822
0.00234553
-0.000902303
-0.00685591
0.00741806
-0.0100874
0.0101314
-0.0797374
0.000321595
0.00245585
-0.0587003
-0.0787222
-0.0169628
-0.011946
-0.00162613
-0.00790507
-0.0409773
0.00338507
0.000742895
-0.00360327
-0.000888873
-0.112813
-0.085702
0.00506579
-0.0205663
-0.0503625
4.956e-05
5.38189e-05
0.00217562
-0.0628632
-0.0292001
-0.0760459
-0.078618
0.000406844
0.00686927
-0.00691893
0.0028635
-0.0596497
-0.0772497
-0.0812717
-0.00528637
-0.0215611
0.00136308
-0.0853268
-0.0759087
-0.0529557
0.0046807
0.000260956
-0.00774211
0.00595746
0.000382287
-0.016254
0.000216105
-0.00281585
-0.0790739
-0.0445
0.00486752
0.000362199
0.0061066
-0.0061296
-0.00173015
0.000576327
0.00110293
-0.0153002
-0.060347
-0.0100435
-0.00958796
-0.115288
-0.0165205
-0.052384
-0.0781796
-0.0784218
0.00227136
-0.0472976
2.75777e-05
0.00131936
-0.018775
-0.0875099
-0.0136087
-0.0749158
-0.0285668
-4.58567e-05
-0.0129062
0.000978598
-0.00366339
-0.0553902
-0.0152615
0.00230558
7.8779e-05
-0.0384923
-0.0473419
-0.0227814
-0.0050481
-0.011181
-0.019633
-0.0411688
-0.00436274
-0.0538411
-0.0108255
-0.0768404
-7.69766e-05
0.0181778
0.00369523
-0.120748
-0.0052869
0.000337114
-0.084282
-0.00497954
-0.129692
-0.0818595
-0.143771
0.00248067
0.000124673
-0.0850259
0.000118819
-0.00255344
0.000284119
-0.00282482
0.000106581
0.00126148
-0.00102996
0.000342805
0.0265151
-0.00494911
0.024782
-0.00132065
0.000215481
0.00062675
-0.0300136
-0.00316282
-0.0670262
-0.0382379
0.000144678
0.000529676
-0.000946893
-0.00112784
-0.0768488
-0.00680378
-0.019315
0.000309015
-0.0219566
-0.00128252
-0.00453157
-0.0777443
-0.0137177
-0.0993982
-0.010274
-0.00514211
-0.0693062
-0.0544881
-0.0478369
-0.0244033
-0.0240234
-0.000583104
-0.065891
0.0001971
-0.0067568
-0.0159836
-0.00846483
0.000288417
-0.0604146
-0.0809632
0.000550959
-0.00477263
0.0033742
-0.000961814
-0.0254664
0.00555336
-0.0502182
-0.0536825
-0.0442176
-0.00226013
0.000202314
-0.00140813
-0.0732504
-0.0784934
0.0072524
-0.0815605
0.000435244
-0.0153455
0.000346594
-0.0177142
-0.0804958
-0.0102063
-0.00277838
0.00208513
-0.0349405
0.000606305
-0.113716
-0.00454854
-0.092124
0.00048113
-0.0195257
-0.0806351
-0.0723171
-0.0802866
0.000913059
-0.0810604
-0.0154678
0.00135219
-0.00932349
-0.0183366
-0.0193783
-0.149639
0.00223417
0.0012605
-0.0818709
0.000217748
-0.00366935
-0.0101192
-4.05155e-05
-0.119244
-0.022058
-0.0617023
0.00462893
0.00247485
-7.39647e-05
0.00233846
-0.00142504
0.00248691
0.000271328
-0.00500829
-0.00468519
-0.0849542
-0.00182083
0.000477644
-0.00384828
-0.0221251
-0.0814585
0.000427701
0.00090066
-0.0669467
-0.00769948
-0.000118453
-0.000599003
0.0116189
-0.0931953
-0.0193459
-0.0854103
-0.0592001
-2.9056e-05
0.00251609
-0.110413
0.0105321
-0.0160955
-0.000924827
0.000294135
-0.0213062
-0.0157638
0.000860448
-0.00915742
0.00279588
-0.0145118
0.000919384
-0.0796994
-0.011431
-0.0371641
-0.00855856
-0.019204
-0.0374723
-0.063759
-0.0812839
-0.00944723
0.0103602
-0.0679367
-0.0225835
-0.140258
0.0160306
-0.0435703
-0.0558871
-0.0928925
-0.00298217
-0.0175868
-6.61761e-05
0.00144688
-0.0760073
-0.141235
-0.000241601
0.000604964
-0.061299
0.00087511
0.000530658
-0.0769429
0.000414768
-0.0131745
-0.118417
-0.0817457
-0.00155999
-0.00246923
-0.0159222
-0.0733384
-0.0758626
-0.0753437
0.00178829
-0.0940098
0.00198205
-0.00348694
-0.0526159
-0.0544813
-0.0160285
-0.0217488
9.15361e-05
-0.0707892
-0.0761657
0.00314615
-0.0505037
-0.122578
-0.0537325
-0.0852404
-0.0176388
-0.0526571
-0.00165754
-0.0117475
-0.00450323
-0.0225557
-0.0152328
-0.0783148
0.000535142
-0.0659986
-0.0067426
-0.00441163
-0.0533715
-0.0511046
-0.0990782
-0.0596463
0.00110616
-0.000423306
-0.0647445
-0.0219117
0.00675298
-0.0148671
-0.081967
0.00103176
-0.0578726
-0.0019683
-0.0145064
-0.085238
-0.0600777
-0.0823852
-0.0043066
0.0033633
-0.000658304
-0.0929891
-0.0151361
-0.00759084
-0.0790214
-0.00156312
-0.0357515
-0.00914123
-0.00702689
0.000330896
-0.0170164
0.000474806
0.00899031
-0.0795144
-0.0589283
-0.0160637
0.00150201
-0.00399642
-0.126866
-0.0634941
0.000489821
-0.0180145
-0.00113089
-0.00357303
0.000598558
0.000517444
0.0122576
-0.0118024
-0.0129358
0.00101574
-0.000547077
-0.0107539
-0.0755783
-0.109424
-0.0352407
0.0148102
-0.00696489
-0.0329381
-0.000672283
-0.00120807
-0.010411
-0.0124876
-0.0767733
-0.0161647
-0.06451
-0.0175862
-0.0169482
0.000990228
-0.0697616
-0.00258801
-0.00240903
0.000743035
-0.0750537
-0.0226002
-0.0283586
-0.0746863
-0.0394171
0.0048231
-0.0257672
0.00300776
-0.0920211
-0.0308332
-0.0058719
-0.0054976
-0.0586932
-0.0520731
0.00452893
-0.000588891
-0.0224003
-0.00134048
-0.00139121
-0.068416
0.00123817
-0.0611176
-0.0196694
-0.00133362
0.00663292
-0.00152968
-0.0160714
0.000254617
-0.0235364
-0.0811301
-0.00164203
-0.0764006
-0.121857
-0.00968635
-0.0457554
-0.0212493
-0.0013639
0.00128225
-0.00764186
-0.00151957
-0.0666592
-0.0293762
1.40101e-05
-0.00293141
0.000673683
-0.0863469
-0.00728214
0.00549727
-0.0953384
-0.0781298
-0.00755991
-0.00512069
-0.029591
-0.00182073
-0.0102037
0.00266794
-0.0103085
-0.00676987
-0.00823619
-0.00811655
-0.0911707
8.45461e-05
-0.0698293
-0.0220135
-0.0342709
0.0003075
0.000382757
0.0112686
0.0137601
-0.0223272
0.000504189
-0.0139325
-0.00647191
-0.0149998
-0.00147835
-0.00302694
0.0318597
-0.0640612
-0.00945527
0.000587608
-0.00983702
0.00840418
0.00411293
-0.0434496
-0.00668887
-0.031493
-0.0301054
0.00152911
-0.00424729
8.52081e-05
-0.0981085
-0.0790385
-0.00918361
-0.0644956
-0.0153599
0.000961346
-0.00285837
0.00150169
-0.0182697
0.000118153
-0.00130672
0.000508842
-0.0614525
0.00064378
0.00046831
-0.0254158
-0.0409868
-0.0804288
0.00459003
0.00201805
-0.00495164
-0.0716011
-0.0395531
-0.0343728
-0.134521
0.0145214
-0.0689796
0.000775062
-0.0577062
-0.0118027
0.000702259
-0.00306495
-0.0866832
-0.0770437
-0.0118663
-0.0443461
0.0024567
-0.0132467
0.000193721
-0.00710374
-0.00365632
0.00830172
0.000123485
-0.0397747
0.00955123
-0.0771493
-0.000479554
0.0275296
0.000125695
0.0226203
-0.0149402
-0.0841779
-0.0792872
-0.0659743
1.70401e-05
-0.0852102
-0.00886706
-0.10042
0.000590362
-0.0166398
0.000626147
-0.0155766
-0.0459249
-0.0173324
-0.0825371
-0.0229487
-0.0341937
-0.00489196
-0.06098
-0.0224387
-0.0155918
-0.0338016
-0.0101238
0.00100031
0.00191715
0.0112783
-0.0223511
-0.00357043
-0.00575128
-0.0404186
0.00191517
-0.00954021
-0.0904941
0.00840997
0.000956066
-0.028417
-0.115745
-0.0228588
-9.91734e-05
-0.0340654
0.00453723
0.000758457
-0.0804292
0.00179846
-0.0404003
-0.0360189
-0.0836704
7.6784e-05
-0.040357
0.0195387
-0.00473083
0.00404592
-0.0138504
-0.097424
0.00695779
-0.0829499
0.00136695
-0.044996
-0.0738846
-0.0242157
-0.0827091
-0.0767256
0.000586125
-0.0060114
-0.0817826
-0.00949824
-0.0810587
-0.0103709
-0.00988276
-0.0769927
-0.0334166
-0.118111
-0.010994
-0.0218625
-0.0122457
-0.0831709
-0.08032
-0.0228963
0.00186592
-0.0155842
0.0334969
-0.081402
-0.0161902
-0.0173528
-0.0810141
-0.0347777
-0.00330395
-0.0717154
-0.0110303
-0.0236444
-0.00112807
-0.0693713
-0.0847992
0.00122732
-0.00515903
-0.0229899
0.000596335
0.00123095
-0.0058292
-0.00875179
-0.0091848
-0.064104
-0.0122564
-0.0902185
-0.0266043
-0.108438
-0.013244
0.0296194
-0.0666891
0.0233747
0.00495673
-0.00916883
0.0144082
-0.000526095
-0.0157919
0.000993792
-0.0119423
-0.00492449
-0.0820834
-0.00118794
0.00113804
-0.0938787
-0.0175669
0.00933787
-0.0202672
0.00123402
-0.00129937
-0.0500402
-0.0811774
-0.0689351
-0.00178698
-0.0560496
-0.0139053
-0.00646339
0.000426556
-0.0855467
-0.0448738
-0.0132832
-0.0689646
-0.0360784
0.00582192
-0.0810489
-0.082449
0.00484775
-0.00182669
-0.0199317
0.0318279
-0.0531901
0.000205318
-0.0727296
-0.00863378
-0.00694109
-0.00845528
-0.0829872
-0.00580273
-0.0754816
0.0116344
-0.0948225
0.00390539
0.00684827
-0.00686372
0.0142032
-5.50978e-05
0.00113521
-0.0272081
-0.0885295
-0.0971339
0.0293972
-0.0823675
-0.00495772
-0.079596
-0.0837513
-0.0486477
-0.0110169
-0.00257062
-0.00116016
-0.00477494
-0.0766903
-0.00949279
-0.0256523
-0.00565764
-0.0502506
-0.0807287
-0.0864861
-0.00225084
-0.0809253
-0.00962057
-0.0055292
-0.00633333
0.000521415
-0.0723034
-0.0161897
-0.078307
-0.00736928
-2.88488e-05
-0.0742478
-0.0156842
-0.0093013
-0.0105009
-0.0821348
0.00125837
-0.0216234
-0.00247185
-0.0058085
-0.074483
-0.0274107
-0.0206438
0.00113747
-0.019435
-0.00156345
-0.0753587
-0.00186181
-0.047235
0.000217019
0.00306574
0.00143916
-0.0256532
-0.0178397
-0.0533222
-0.0370254
-0.0150733
0.00237861
-0.00599046
0.00221233
-0.016097
0.000495586
0.000893508
-0.0908685
-0.033709
0.00133757
0.00275678
0.000599523
-0.0761065
-0.0943164
-0.0386125
-0.0453696
-0.0144996
0.00145607
0.000170588
0.000314797
-0.062544
-0.0785618
0.000443332
-0.00461775
0.0143817
-0.0822481
-0.02477
-0.0250271
-0.0799703
-0.0239397
0.000837141
-0.0768295
-0.0814818
-0.0088648
0.00158487
-0.0113764
-0.0779235
-0.0824827
-0.0261922
-0.0720422
-0.088623
-0.031894
-0.0806569
-0.00667669
-0.00342052
-0.0451696
-0.0681777
-0.0130886
-0.0695981
-0.0193124
-0.000258873
0.000354798
-0.0587391
0.00208
-0.077091
-0.0194326
-0.0352831
-0.0582216
-0.000788715
-0.0795923
-0.0806178
-0.0146461
-0.0287065
-0.081785
-0.0305886
-0.10359
-0.0150022
0.000935078
-0.00495114
0.00297169
0.000366806
-0.00335546
-0.0023799
-0.011202
-0.0082447
-0.0155124
-0.0273487
0.00142037
0.000126982
0.000548904
-0.0118875
-0.0213161
-0.00727656
-0.05028
-0.0190638
-0.00870465
-0.0338874
-0.011042
0.00207613
-0.0809341
-0.00167327
-0.000195723
-0.0774638
-0.0901197
-0.102719
0.00923256
-0.00068058
-0.100342
-0.0136117
0.000544938
-0.0436598
-0.0035556
-0.0535146
-0.0618292
0.00182193
-0.0790186
-0.0799154
-0.0281275
-0.026576
-0.087373
-0.0171263
0.0127486
-0.0265203
-0.109082
-0.0345924
-0.0712408
0.000111722
-0.0112589
0.00110686
-0.0151785
-0.0807072
-0.103819
-0.0655383
-0.117908
-0.0350647
-0.00879478
-0.00801881
0.000553672
-0.0069477
0.000319743
-0.0869957
-0.00404337
-0.0821349
-0.00546846
0.00472496
-0.0174324
-0.080755
-0.0818705
-0.0809187
-0.051888
0.00060849
0.00134292
-0.0806295
-0.0790594
-0.0337569
-0.00296191
0.000279469
-0.0240458
-0.0229683
-0.0771364
0.0154664
-0.0372077
0.000370795
-0.0821948
0.00065181
-0.0755029
-0.0131138
-0.0051439
-0.0525089
-0.00359302
-0.0843998
0.000770492
-0.0788894
0.00122265
-0.0365061
0.00219768
-0.015414
0.00249192
-0.0384243
-0.0481569
-0.0802811
-0.0978891
-0.0320998
-0.028142
-0.00711855
-0.0807071
-0.0945087
-0.00101282
0.000865121
-0.0123117
0.000313397
-0.075846
0.000300043
0.00295269
-0.0177237
-0.0068105
-7.81014e-05
0.000707583
-0.0225966
-0.0705004
-0.0855772
-0.00893533
0.000653384
-0.0677726
-0.0213555
-0.0198098
-0.00707231
-0.0975352
-0.0515964
-0.00488371
-0.0134258
-0.0112142
-0.0128259
-0.127976
-0.129189
0.00205722
0.0012405
0.00456149
-0.000934436
-0.0749336
-0.00945121
-0.0878957
-0.0788675
-0.0152343
-0.00786013
-0.0278033
-0.00668145
-0.00657482
-0.0222289
-0.0771451
-0.0176152
-0.0713321
-0.00139341
-0.00632506
-0.00131521
-0.0130025
-0.0889323
-0.0795991
-0.0190817
-0.113648
-0.0664636
0.00121361
-0.0137507
0.000527613
0.00243652
-0.0779074
-0.0818641
-0.0134781
-0.00808799
0.00870215
-0.0168531
-0.0475956
-0.0767153
-0.0189714
-0.0803396
-0.0581273
0.000768473
-0.0134156
-0.00118241
-0.0507637
-0.00979998
-0.00676045
-0.0776888
-0.0212296
-0.018531
0.00191499
-0.0296709
0.000713128
-0.0653583
-0.0881922
-0.0125858
0.00378359
-0.0327461
-0.0142817
-0.00336325
-0.0161762
0.000309251
-0.107002
-0.0219285
-0.0851073
-0.0111242
-0.0269354
-0.00803103
-0.0808384
0.00397309
-0.0427581
-0.113564
-0.00616593
0.0310797
-0.0780303
-0.000924479
-0.00166374
-0.0316365
-0.0536401
-0.112428
-0.00968685
-0.00135224
-0.0101895
-0.00295507
0.00907626
-0.0150709
-0.117798
-0.00154723
-0.0295029
-0.0225329
-0.00937222
-0.0213995
-0.0512142
-0.00395449
-0.0710896
0.00292401
-0.00079731
-0.0337349
-0.0782495
-0.0142788
-0.0503584
-0.0901741
-0.0590489
-0.00098677
-0.0170579
-0.0301586
-0.0864684
-0.0900128
-0.0153523
-0.076957
-0.0287654
-0.00248211
-0.00941581
-0.12873
-0.00146804
0.0016161
-0.105154
-0.00642572
-0.0208076
-0.0039859
-0.121556
-0.00911155
-0.028013
0.000475566
0.022698
-0.0279412
-0.00839677
-0.0446833
-0.108867
-0.0122209
-0.014067
0.0255126
0.000103385
-0.0170307
-0.0173644
-0.0277479
-0.0485552
-0.0515186
0.00261089
-0.0841201
-0.0344825
-0.033657
0.0235777
-0.0172565
0.000456732
-0.0778628
-0.0787842
-0.0502858
-0.00659865
-0.0706877
-0.0747029
-0.0181397
-0.00973197
0.0004384
0.0322165
-0.0753137
0.013481
-0.082966
-0.00447405
-0.0691675
-0.00726771
-0.0790725
0.000693812
-0.00325181
-0.0173575
-0.0136093
-0.0835364
-0.08069
-0.0737823
-0.0259097
0.000371206
0.0216442
0.00214588
0.00112801
-0.0814137
0.000154526
-0.0488012
-0.0136257
-0.0213562
-0.00791686
-0.00850106
-0.00237271
0.002541
0.0101523
-0.0126091
-0.0772116
-0.00332594
-0.0156501
0.018697
-0.000777159
-0.0148869
-0.0153462
-0.0281539
-0.0266279
-0.0034607
-0.00992616
-0.0685238
0.00159659
0.0020816
-0.0039344
-0.0224157
0.000571692
-0.0844877
-0.0172849
-0.00585987
-0.0735367
-0.0423634
0.0253131
-0.0835471
-0.0770035
0.000836329
-0.0190145
-0.0192473
-0.0280817
0.0021317
0.000918929
-0.04118
-0.0692381
-0.0791698
-0.0763505
-0.0184721
-0.122264
0.0035753
-0.0291271
0.00224877
-0.0879677
-0.0157388
-0.0371906
-0.0146475
-0.0815513
-0.113217
-0.00650244
0.000902341
-0.0268898
0.00166276
-0.0224317
-0.0568641
-0.00687244
-0.000372655
-0.0673126
-0.081168
-0.000542123
-0.0379247
-0.0435873
-0.109557
6.73827e-05
-0.115186
-0.0670129
0.00285613
-0.00213661
-0.0958292
0.00836388
0.00122651
-0.00684368
-0.0117644
-0.034196
0.000357398
-0.00300662
-0.0823245
-0.111793
-0.130419
0.000667255
-0.0806599
-0.0169507
-0.0243929
0.000921564
-0.0148522
-0.031878
-0.000563681
-0.106204
-0.0363124
-0.00903388
-0.0637062
-0.119203
-0.0217039
-0.0692505
-0.119275
-0.0865932
-0.00231562
-0.108823
0.000526242
0.0004061
-0.0137618
0.00141147
0.000957156
-0.0838866
0.002279
0.00166889
0.00230267
-0.0696583
-0.100614
0.0137186
-0.000525281
-0.00903093
-0.0142358
-0.113914
0.000576962
4.98376e-05
-0.00966203
-0.00189827
-0.000466145
0.00120149
-0.0845023
-0.0483078
-0.0233699
0.000453276
0.00217262
-0.0241955
-0.0792701
0.000488254
-0.11246
-0.0553033
-0.0189327
-0.0864036
-0.122807
0.00068738
-0.0752582
-0.0183711
-0.126349
0.00185046
0.0233417
0.00237672
-0.0221073
-0.00689732
-0.0921557
0.00103805
0.00132738
0.00172419
-0.0705304
-0.0477177
-0.0675012
-0.099543
-0.0186877
-0.0773497
-0.0268245
-0.03767
-0.0863774
-0.0865242
-0.00105794
-0.0867043
-0.00157565
-0.0228614
0.000808316
-0.0794737
-0.0480442
-0.034947
-0.0341032
0.000689482
-0.0560091
0.00200563
-0.012153
-0.0153015
0.00180502
-0.0817895
-0.0390476
-0.0110689
-0.0274188
-0.026419
0.0179307
-0.0473728
-0.0504444
-0.0839603
-0.0287505
-0.0862205
-0.00783502
-0.0404836
0.0097379
-0.0938855
-0.016617
0.00130627
-0.00147014
-0.082536
0.00162977
0.0021225
0.00228824
-0.0204545
0.000985934
-0.0160754
-0.102763
-0.0835363
-0.0659837
-0.105896
-0.00426047
-0.0959988
-0.086613
-0.0737949
-0.114073
-0.0837725
0.00172108
-0.0551631
-0.0362865
-0.0498409
-0.0810771
-0.05383
0.00138191
-0.0654016
-0.00301849
-0.0164814
0.0307199
-0.0964392
-0.0807321
-0.0748035
-0.0150156
-0.0219374
-0.00809361
-0.0827289
-0.123007
-0.00971609
-0.0683234
-0.00891786
-0.0177211
-0.0149598
-0.0859087
-0.0352076
-0.0154775
-0.0172455
-0.0333238
-0.00715099
0.0018809
-0.0275873
0.00050478
-0.0143334
-0.00241024
-0.0307509
-0.00451523
-0.0383476
-0.0185076
-0.0104221
-0.0900124
-0.085659
-0.00544903
0.0192886
-0.0149843
-0.0361067
0.000544078
0.00147317
-0.0163807
0.000374202
-0.00417411
-0.00614988
0.000208124
-0.0105103
0.00750845
0.0155587
-0.0834642
-0.018061
-0.0096364
-0.0838329
-0.0214998
-0.0365746
0.000447776
-0.0178926
-0.000663743
-0.0146484
-0.000721009
-0.0257278
-0.0145318
-0.0863673
0.00750557
-0.0200327
-0.0215932
0.00085268
-0.00764053
0.0102003
-0.00975587
-0.0565692
-0.116227
0.0027362
-0.0230459
-0.0145147
-0.0183468
-0.001781
-0.0216457
-0.00676948
-0.00635982
-0.085899
0.00134954
-0.0492614
-0.0867064
0.00171301
-0.00574372
-0.00340322
-0.0393976
0.0326532
-0.00192409
0.0013904
-0.0799082
0.00371345
0.000880563
-0.0850069
0.000758466
0.00123822
0.000573117
0.000785639
-0.000488631
0.000577209
0.00196494
-0.0690029
0.00728768
-0.025727
-0.0318748
0.000115569
4.04867e-05
-0.0462142
-0.0937844
-0.110023
-0.0412174
0.0310396
-0.0864538
-0.0708206
0.00307817
-0.0271474
0.000974193
-0.0213395
-0.00320843
-0.0235538
0.0207383
0.000789734
-0.0330363
-0.0174102
-0.000390875
0.00142024
-0.0147821
-0.00163001
0.000925686
0.000596952
-0.0771966
-0.0836225
-0.0030045
-0.013198
0.000729371
-0.0631574
-0.074252
-0.0838166
-0.0116763
-0.0807788
-0.00284209
-0.0818019
-0.0765211
0.0120727
-0.00718201
-0.0133257
5.71358e-05
-0.00478602
-0.00409089
-0.00303561
-0.0232951
-0.0871266
-0.058531
-0.0795383
-0.00825266
0.00873483
-0.0814319
-0.0132721
0.000615893
0.00103206
0.000582674
-0.0264848
-0.00683985
0.0263018
-0.00476764
-0.0793625
-0.0424239
-0.102092
-0.0229759
-0.0848134
-0.078569
-0.00770902
0.000471107
-0.000585839
-0.0115937
0.000696466
-0.00427454
-0.0850573
-0.0803875
-0.0149235
-0.016522
0.00203807
-0.0199531
0.0181349
0.000518622
-0.000601553
-0.0726449
0.000114573
-0.00606916
-0.0190372
0.0229932
-0.022773
-0.0794297
-0.0725389
-0.00763443
-0.0836788
-0.0625489
-0.077226
0.000801847
-0.0135073
-0.00100709
-0.0179488
-0.114715
0.000693284
-0.0731812
0.000947454
-0.00143039
-0.0170624
-0.0814961
-0.0504066
-0.0567431
-0.00856892
0.0002273
-0.00383773
-0.0703562
-0.0108974
0.000988636
0.00137662
-0.00998969
0.00723172
0.00031966
0.000390632
-0.0797213
-0.0808286
-0.0815044
-0.0199446
-0.0603104
-0.0911302
-0.0727867
-0.0801805
-0.0276672
0.000741339
0.000577391
0.000337428
-0.00813442
-0.0826912
-0.0834016
0.00102861
-0.0710689
-0.0792534
-0.0546532
0.00137687
-0.0135616
-0.0116445
-0.0841185
-0.084244
-0.0102085
-0.0826217
0.000299801
-0.0586433
-0.0408915
-0.000560184
-0.0810113
-0.0149902
-0.0773825
-0.0769815
-0.00912508
-0.0694008
-0.00669564
0.00102791
-0.0829223
-0.0786084
-0.0734265
-0.0200451
-0.0884367
-0.080824
-0.0775916
-0.0805109
-0.088114
-0.0689856
-0.0265642
-0.0162696
0.00208138
-0.0508721
-0.0767311
-0.00518469
-0.0769458
-0.000405637
-0.0139597
-0.00517421
-0.000286419
-0.086776
-0.0156827
-0.0722581
-0.0825115
-0.0158358
0.0030337
0.033587
-0.0791801
-0.0190579
0.00441938
-0.00770482
-0.000772191
-0.0821864
0.000967429
0.000909484
-0.0430814
-0.0284047
-0.0778268
-0.0326903
-0.0106985
-0.0252892
0.00052806
0.0231956
-0.016809
-0.0702806
0.00270474
-0.000777542
-0.0774693
-0.0451674
0.00154512
-0.0646255
-0.0741398
-0.0151661
0.0214941
-0.0228934
-0.0794844
-0.00816775
0.00104585
-0.0811541
-0.0176111
-0.0811745
-0.0806823
-0.0582268
-0.00757422
0.00189228
-0.0181882
0.0234298
-0.0422521
-0.00115033
-0.0813894
-0.068362
-0.00334624
0.000147385
-0.0242167
-0.0146039
-0.0873015
-0.0629979
-0.000221018
-0.0776263
-0.0685801
-0.0218642
-0.000555987
-0.0809248
-0.0750039
-0.0814957
-0.0168799
0.000983724
-0.0461967
-0.0142174
-0.00879104
-0.0012006
-0.00664006
0.000200294
0.00230411
-0.000651834
-0.000934409
-0.00224455
-0.0725825
-0.0767026
-0.0184677
-0.0884493
-0.0818229
0.000412687
-0.0803432
-0.0797307
-0.07681
0.000257952
-0.00796908
-0.0763122
-0.136043
-0.0759906
-0.0429938
-0.00238073
-0.0807026
-0.0691406
-0.0708455
-0.000512828
-0.0525265
-0.0667695
-0.014705
-0.0689281
-0.0831657
-0.000405987
-0.129841
-0.0832234
-0.00965146
-0.000950867
0.00521264
-0.0149116
-0.00196731
0.000486378
-0.000340969
-0.0812884
-0.0789704
0.00250027
-0.048857
-0.000424794
-0.0140599
-0.100344
-0.0785318
-0.100033
-0.0499587
-0.0790765
0.0011859
0.000502392
-0.0413236
-0.0840958
-0.0832192
-0.0529445
-0.0789964
-0.0278158
-0.000107866
-0.0147786
-0.0277129
-0.0419387
-0.07067
-0.0806721
-0.0238784
-0.0859765
-0.0893572
-0.0129577
-0.142622
-0.0171913
-0.0320142
0.00193942
-0.0171033
0.00156109
-0.0303567
-0.0315937
-0.0312885
-0.077956
0.000535103
-0.0666896
-0.0251898
-0.0164679
-0.0880886
0.00290227
-0.0806878
-0.000222866
-0.0774091
-0.0803969
-0.073218
-0.0793718
-0.00631611
-0.0186669
-0.08091
-0.08034
0.000427873
-0.0332418
0.00100972
-0.000841385
-0.0137021
-0.0256925
-0.0809141
-0.0807282
-0.00874089
-0.136331
-0.0263906
0.000708605
-0.00310761
-0.0157799
-0.00495591
-0.0458555
-0.0802868
-0.0795478
-0.0748518
0.00115845
-0.00741448
-0.0240619
-0.00103113
-0.0788775
0.0116991
-0.000396494
-0.00709992
-0.052581
-0.0315484
-0.0763293
-0.0198753
-0.110363
-0.0184095
-0.0773777
-0.0737636
-0.0804248
-0.00911683
0.00099536
-0.0219784
-0.0165265
-0.0838665
-0.0950768
-0.0287167
-0.0179644
-0.0711127
-0.0160174
-0.0209757
-0.0165469
0.00578473
-0.00459693
-0.0804405
-0.0106784
-0.0311615
-0.0201695
-0.0264356
-0.0199074
-0.067216
-0.0757663
-0.0094346
-0.0158944
-0.0373766
-0.00819466
0.00150967
-0.0128446
-0.0360715
0.00221021
-0.12437
-0.0151248
-0.0774236
-0.0174679
-0.000697653
-0.0134357
-0.0779368
-0.00853141
-0.0786607
-0.125744
-0.0212635
0.00314085
-0.0736813
-0.00634644
-0.0781935
-0.00351889
-0.00590453
-0.0667339
0.000825598
-0.0772445
-0.0021688
-0.00503143
0.00071894
-0.00743303
-0.039678
-0.0175414
-0.0665889
-0.0643139
-0.0179159
-0.00499861
-0.0947683
-0.060897
0.0191545
-0.0456853
0.000537828
-0.00702581
-0.045318
-0.0692015
0.0103958
-0.0683654
-0.0338968
0.00070038
-0.0129998
-3.99157e-05
-0.00416976
-0.00818601
-0.0779731
0.00317972
-0.00253097
-0.0033818
-0.0854067
-0.0797327
-0.0415154
-0.00621452
-0.068268
-0.0782699
-0.132364
0.00662102
-0.0279075
-0.0659406
-0.0229729
0.0021609
-0.0752145
-0.0767946
-0.00532453
-0.00459936
-0.0813355
-0.00622728
-0.0132763
-0.0129171
-0.0446574
0.000494673
-0.0168793
0.0204633
-0.0199691
-0.0249462
-0.00331653
-0.00354526
-0.0262796
-0.087582
-0.00289687
-0.0314231
-0.0763383
0.000718749
0.000834349
-0.0779701
-0.029065
-0.0560978
-0.0157943
-0.0283718
-0.0139806
0.000621684
-0.0021673
0.0309902
-0.0288892
-0.0772421
-0.0724578
-0.0360951
-0.0813693
-0.0105206
-0.0270237
-0.00416048
-0.00324618
-0.0533546
-0.0324173
-0.00731796
-0.0467903
-0.00722989
-0.0144157
-0.0315316
0.00228254
0.000893427
0.0309196
-0.0136496
0.00990016
0.00229123
-0.0366073
0.00052196
-0.0181979
-0.0456638
-0.103207
-0.00625819
-0.0774101
-0.0137865
-0.0783648
-0.00151269
-0.0558064
-0.0430722
-0.00876654
-0.00682241
-0.0119574
-0.0476783
0.00829842
0.000592326
-0.0495299
-0.0764288
-0.0409905
-0.00817165
0.00569126
-0.0333348
-0.00250734
-0.00551019
0.00179444
-0.000355501
0.00927198
-0.00456472
-0.00392934
-0.0299358
-0.079087
-0.00785561
-0.0819807
-0.00336088
0.0296724
-0.0166059
-0.0342932
-0.0164261
-0.00204228
-0.00476818
0.00929221
-0.00312836
-0.119941
-0.0295539
-0.0811347
0.000955511
-0.0115784
-0.0465264
-0.0758828
-0.0230818
-0.0589182
-0.0298487
-0.0115887
-0.015119
-0.00430413
-0.0666152
-0.0804932
0.00289476
-0.0133045
-0.0263347
-0.0106425
-0.00139348
-0.0714943
0.00136397
-0.119764
-0.0730488
-0.064773
0.00845849
0.00107323
0.030578
-0.0667385
-0.0220122
-0.0104241
-0.00854424
-0.00468302
-0.00652998
0.00536346
0.00313163
-0.0757721
-0.00744775
-0.00662504
-0.0877021
-0.0438662
-0.0254129
0.00324299
-0.0122901
0.000937005
-0.0134552
-0.0795414
-0.00016577
-0.0250976
-0.0843636
-0.0649524
-0.0441421
0.000724209