/*--------------------------------*- C++ -*----------------------------------*\
| =========                 |                                                 |
| \\      /  F ield         | OpenFOAM: The Open Source CFD Toolbox           |
|  \\    /   O peration     | Version:  v2012                                 |
|   \\  /    A nd           | Website:  www.openfoam.com                      |
|    \\/     M anipulation  |                                                 |
\*---------------------------------------------------------------------------*/
FoamFile
{
    version     2.0;
    format      ascii;
    class       volScalarField;
    location    "850";
    object      k_0;
}
// * * * * * * * * * * * * * * * * * * * * * * * * * * * * * * * * * * * * * //

dimensions      [0 2 -2 0 0 0 0];


internalField   nonuniform List<scalar> 
13917
(
0.00016525
0.000149187
0.0557336
0.000153773
0.000148658
0.00019211
0.0556382
0.0571102
0.0756661
0.000172883
0.000203381
0.000183639
0.000153942
0.0172067
0.000155139
0.000154098
0.000149575
0.000175365
0.000183231
0.00014866
0.000149761
0.0554461
0.000148537
0.0533234
0.000148157
0.05165
0.000161454
0.000164187
0.000206849
0.000183952
0.000166918
0.000157689
0.000159963
0.000154445
0.000148326
8.0799e-05
0.000148597
0.0459981
0.000157105
0.0184717
0.000147494
0.000149897
0.000145136
0.00016803
0.000148947
0.000155794
0.000175103
0.000182637
0.000386414
0.000147984
0.000158189
0.000149785
0.000450282
0.000154752
0.000149628
0.000157606
0.000203072
0.000148515
0.000155002
0.000148754
0.0815728
0.000149201
0.00839772
0.00014858
0.000190955
0.025012
0.000148639
0.000148506
0.000205005
0.000162823
0.000148702
0.0732641
0.0450482
0.000148168
0.000397024
0.000187317
0.0321806
0.000151085
0.0478174
0.000149545
0.000149314
0.000148681
0.000188607
0.0501708
0.0448474
0.000150856
0.000149141
0.00888493
0.000157833
0.000145102
0.0493828
0.000179089
0.000147763
0.00015116
0.0156149
0.000188352
0.000195894
0.000180472
0.000199444
0.000169997
0.000146659
0.000158528
0.000167894
0.000152177
0.000146715
0.075066
0.000192902
0.000183553
0.000149603
0.000167785
0.0492212
0.0201253
0.000188994
0.0759007
0.000151121
0.000417011
0.000148008
0.000259816
0.0260132
0.000154705
0.000149813
0.000203924
0.0293766
0.00016355
0.000147793
0.000150846
0.000148743
0.000147858
0.000145212
0.000190423
0.0423524
0.000150954
0.000149037
0.000149815
0.00315505
0.0519857
0.000165391
0.00017058
0.000148593
0.00015457
0.00016701
0.000146844
0.000150323
0.000170094
0.000148522
0.0596714
0.000210688
0.000149633
0.000146542
0.000158157
0.000178549
0.000423432
0.000189044
0.000163493
0.000157302
0.022535
0.000162003
0.00115196
0.0264307
0.00389581
0.000152971
0.000161642
0.000149546
0.000194956
0.000188535
0.000199008
0.0001521
0.000179531
0.000148114
0.000158973
0.000164105
0.0262162
0.000191114
0.000150408
0.0415789
0.000164614
0.0447612
0.000301658
0.053397
0.000147866
0.000180292
0.000167811
0.000146811
0.000149078
0.000157877
0.050957
0.000220243
0.0284102
0.000166171
0.000197346
0.000154411
0.0495225
0.000210114
0.000148611
0.000171769
0.000161185
0.00015391
0.000147836
0.000181219
0.00120206
0.0001578
0.000148088
0.000177894
0.000178317
0.0395214
0.000653687
0.000148323
0.000148608
0.000180073
0.0524839
0.000150094
0.0564759
0.0291409
0.000197412
0.00014674
0.000198588
0.000177224
0.0303922
0.000147786
0.0767775
0.000147805
0.000183168
0.000147284
0.0493466
0.0766284
0.000154441
0.000402786
0.000157673
0.000146761
0.000101532
0.000190576
0.000165951
0.0505685
0.0239805
0.000146336
0.000158192
0.0542173
0.034013
0.000149489
0.000147545
0.0202207
0.000199155
0.000149758
0.000198579
0.000187663
0.000161419
0.000164486
0.000149488
0.000163935
0.0266856
0.000148729
0.000184426
0.000173258
0.000148635
0.000148458
0.000184084
0.0264485
0.000187664
0.000158058
0.000155363
0.00014979
0.0239327
0.0732715
0.000135238
0.000146799
0.0426889
0.0253326
0.00591371
0.0473829
0.000188656
0.000149392
0.000147433
0.000175439
0.0431895
0.000194423
0.0001546
0.000916253
0.000173209
0.000145147
0.0500217
0.000148491
0.045007
0.000157168
0.000149722
0.000156422
0.000163438
0.000161754
0.000187278
0.000159805
0.00014907
0.000198575
0.0495537
0.0795304
0.000147786
0.00970698
0.000149082
0.000149069
0.000148052
0.000227481
0.000148568
0.000184989
0.000163833
0.000148012
0.000178146
0.000151595
0.00034348
0.0001643
0.000177776
0.000147462
0.000148387
0.0459481
0.0278729
0.000147974
0.000147367
0.0461916
0.000147785
0.0485521
0.000147359
0.0523302
0.000150677
0.000217251
0.000164951
0.000435024
0.000152572
0.00075355
0.000184178
0.000156451
0.00019883
0.000199441
0.000149462
0.0429332
0.000171558
0.0289988
0.000153644
0.0197425
0.000158929
0.0588386
0.000180751
0.000172866
0.00017229
0.0576509
0.000149401
0.000164634
0.0543018
0.000149176
0.000152074
0.0265125
0.000184256
0.00015025
0.000221281
0.00020292
0.000146918
0.022513
0.000121893
0.000148447
0.000147244
0.000149135
0.000146508
0.000213447
0.0485422
0.000207774
0.0513921
0.0001481
0.000186825
0.00760937
0.000171696
0.0562061
0.0480818
0.0773365
0.000146333
0.000163967
0.00014711
0.0674724
0.000148733
0.000451617
0.000187584
0.000155677
0.00014927
0.000178981
0.000182148
0.000182086
0.000628521
0.0538456
0.0236968
0.000164394
0.000171951
0.000147593
0.0373421
0.0540215
0.000148627
0.000121434
0.000148266
0.000237858
0.000150656
0.000149472
0.000151616
0.0423606
0.000151542
0.0295111
0.0102772
0.000200539
0.000194247
0.000149411
0.000194605
0.000191206
0.000148164
0.000185894
0.000149093
0.000148234
0.000183798
0.00014972
0.000148208
0.00014708
0.000241184
0.000149625
0.0227417
0.0424146
0.00481998
0.000209897
0.0358308
0.0308917
0.000171316
0.000148117
0.00020163
0.000156742
0.000159364
0.000148563
0.0560462
0.0540981
0.0397318
0.000153978
0.000190792
0.0001533
0.000157794
0.00018207
0.000151115
0.000156302
0.000149574
0.000148539
0.0537069
0.0431736
0.0451719
0.000182835
0.00324611
0.0470091
0.0584019
0.031179
0.000145402
0.000177728
0.000151206
0.000148757
0.000287836
0.000175686
0.000148696
0.000177043
0.00016978
0.0296375
0.000148137
0.000194783
0.0146753
0.000241122
0.0276298
0.000149678
0.000148672
0.000153797
0.000162025
0.000146346
0.0476441
0.000200939
0.000159785
0.0360238
0.000157554
0.000195448
0.0635847
0.000212099
0.000199642
0.00015028
0.000194771
0.000175836
0.00020099
0.000172689
0.000203275
0.000207676
0.00017622
0.000186219
0.000147987
0.00131461
0.000159022
0.000146363
0.000161231
0.000151393
0.0319713
0.0750782
0.000147711
0.000145385
0.0480238
0.0254721
0.000149721
0.0225134
0.000151749
0.000199861
0.000147823
0.0373699
0.000362738
0.000158142
0.00014971
0.0388665
0.000206033
0.0117109
0.000149777
0.0300645
0.000344175
0.0494731
0.000146455
0.0406281
0.0853299
0.00017188
0.000147198
0.000149543
0.000187458
0.000225794
0.000148041
0.000147262
0.000147568
0.000147531
0.0373608
0.000370925
0.000171494
0.000220368
0.00014789
0.000146699
0.000190428
0.0777685
0.000163503
0.000148217
0.000148194
0.000148458
0.0557421
0.0546487
0.000149097
0.000148451
0.000186403
0.000172305
0.000164951
0.00014861
0.000151725
0.000156572
0.00018569
0.00019348
0.000221773
0.000202517
0.00018963
0.000478487
0.000177593
0.000147843
0.0311231
0.000148472
0.000152488
0.000154805
0.00137072
0.000169632
0.000146783
0.000245365
0.00018689
0.00751665
0.000189727
0.000160074
0.000171122
0.000149202
0.0816466
0.000221974
0.0594961
0.000149296
0.000160473
0.000220915
0.0503167
0.0102896
0.000181429
0.000185758
0.000153941
0.000153477
0.000148644
0.000164881
0.000168705
0.000149231
0.000177036
0.000172353
0.0603823
0.0138609
0.000153096
0.000194767
0.000261631
0.000157407
0.000149878
0.000442578
0.0661211
0.061942
0.000215327
0.000145321
0.025255
0.000186966
0.0001472
0.000161486
0.000185102
0.000159461
0.000183904
0.048546
0.000200484
0.00016939
0.0815022
0.000152023
0.0264859
0.000149552
0.00014905
0.011084
0.0681572
0.000205587
0.000152025
0.000150247
0.000148458
0.000173711
0.000439312
0.000197681
0.000153821
0.00019795
0.00017859
0.00014786
0.000361206
0.000197073
0.000130173
0.000147709
0.00019987
0.000151305
0.01375
0.000173494
0.000169482
0.000160725
0.000147046
0.000146316
0.000148884
0.000173738
0.000156047
0.000229258
0.000526133
0.000179107
0.000146977
0.0001993
0.000206514
0.000186585
0.000148601
0.000155625
0.000147314
0.000161483
0.000155246
0.0849093
0.000149487
0.000521082
0.000161108
0.000203219
0.000178732
0.044697
0.000170338
0.000149406
0.0408021
0.0114731
0.000148552
0.000154706
0.00123782
0.000204242
0.00019448
0.000149544
0.000149809
0.000204434
0.000155906
0.000181729
0.000182977
0.000146365
0.000178435
0.0554106
0.000148565
0.000152349
0.000147707
0.0260766
0.000149753
0.000153597
0.0283251
0.000151799
0.063006
0.000157305
0.000160179
0.000147656
0.000165925
0.000148103
0.000174874
0.000147081
0.000172892
0.000151736
0.0175064
0.000318688
0.0778283
0.000152449
0.00014932
0.000176648
0.000169588
0.0313077
0.0792297
0.000174969
0.000148295
0.000238549
0.000205327
0.000135265
0.000215812
0.000174901
0.0460463
0.000164579
0.000171919
0.000196575
0.000178072
0.000174627
0.000235294
0.000174029
0.000153564
0.000186308
0.000156583
0.00014728
0.00016123
0.000168013
0.000157549
0.000148162
0.00014747
0.000178906
0.000152776
0.00018184
0.000148285
0.000148359
0.000149807
0.000151525
0.000144956
0.000155498
0.000147847
0.0361324
0.000183328
0.000187653
0.000146489
0.000149621
0.000163282
0.000176164
0.000150636
0.0661779
0.000174317
0.0479707
0.000161245
0.00019371
0.000150406
0.000149777
0.000147411
0.000151592
0.019519
0.000149676
0.00415509
0.000155903
0.00924382
0.000164757
0.000174943
0.000202726
0.000145885
0.000149935
0.000183705
0.000148491
0.000149864
0.0473722
0.00015059
0.000149136
0.000158452
0.000147491
0.000145877
0.000157691
0.000156692
0.0257431
0.000163045
0.000148563
0.000147226
0.0547597
0.000173711
0.000149198
0.00014929
0.0542085
0.000605174
0.0236476
0.000160095
0.000153574
0.000146413
0.00014572
0.000176699
0.000163711
0.000240517
0.000153966
0.0397893
0.000149592
0.000152169
0.0196966
0.000148314
0.000159247
0.000148291
0.000148424
0.000167159
0.000161816
0.000150366
0.0648339
0.0244504
0.000179304
0.00014783
0.000145465
0.000196888
0.00432757
0.000149717
0.000287867
0.000145427
0.000166975
0.000147558
0.000147611
0.00021377
0.000148684
0.0092608
0.000166801
0.000149806
0.000145364
0.000148765
0.000147529
0.000152131
0.000429921
0.000148295
0.000147212
0.0720947
0.0662365
0.000170354
0.000168922
0.000181293
0.000155638
0.000146966
0.000156316
0.0371985
0.000173631
0.000148799
0.000149537
0.0790608
0.000166651
0.057965
0.000149756
0.000150819
0.023639
0.00016486
0.000150613
0.0171665
0.000287966
0.00014749
0.000193996
0.000147394
0.000148536
0.000146416
0.0468562
0.000144883
0.00014884
0.000146938
0.0153134
0.000155918
0.000199766
0.000165477
0.000147654
0.000158717
0.000149095
0.0528956
0.000147659
0.000148408
0.000149144
0.000197699
0.000149088
0.000200581
0.0194015
0.0474226
0.00015525
0.000125556
0.0333738
0.000148356
0.0212122
0.0817497
0.0375615
0.0361217
0.0716917
0.0080941
0.000197291
0.000149631
0.0479981
0.000164699
0.0540939
0.000146333
0.000147759
0.000149246
0.000149047
0.000156913
0.000158105
0.0320826
0.000147673
0.000148461
0.0107726
0.000187126
0.000148761
0.000160682
0.000160197
0.000149528
0.000308405
0.000160884
0.000152374
0.000155778
0.019895
0.0244477
0.000252426
0.000147396
0.000206351
0.000186938
0.0339973
0.0784986
0.000190651
0.000147819
0.00015058
0.00014959
0.000144636
0.000151708
0.00014532
0.000156675
0.000164091
0.0403306
0.000198081
0.000148881
0.000193281
0.0601163
0.000166182
0.000149607
0.0283278
0.000147889
0.000149646
0.000160496
0.0410299
0.000149089
0.000147733
0.0573217
0.000235228
0.000132596
0.000191827
0.000112156
0.000147557
0.000202814
0.000149707
0.000147901
0.000149729
0.0496044
0.0291999
0.000147249
0.000145356
0.000148414
0.00111624
0.000151287
0.000160769
0.000148466
0.00014993
0.000201687
0.000147789
0.000175512
0.000196742
0.0454792
0.000148498
0.000171998
0.000153297
0.0421145
0.0576385
0.000148189
0.0449472
0.000182539
0.000265903
0.000149082
0.0423878
0.0001496
0.000157341
0.00016615
0.000191745
0.0506223
8.85371e-05
0.000204802
0.069975
0.000146926
0.00023042
0.000147585
0.000156549
0.0581366
0.0001488
0.000149656
0.000150938
0.000149376
0.0387703
0.00014579
0.000148474
0.000178746
0.000169746
0.000175529
0.000202744
0.000199218
0.0186901
0.000184041
0.000166014
0.000171309
0.0376606
0.000170932
0.0598395
0.0513532
0.000156592
0.000147866
0.0342946
0.000131563
0.000149641
0.000190984
0.000163946
0.000150296
0.000157442
0.000149541
0.00016636
0.000149943
0.000174485
0.000170753
0.000147152
0.000176489
0.000147638
0.000166681
0.000147055
0.000154872
0.000178142
0.000153092
0.000149279
0.000147311
0.00028797
0.000176365
0.0574785
0.000148209
0.000149018
0.000179485
0.00014829
0.00018471
0.000176317
0.000150295
0.00018796
0.000147488
0.0703332
0.000149526
0.000169074
0.0294363
0.000230173
0.000147611
0.000152277
0.0165709
0.000147917
0.000147391
0.0380361
0.052074
0.000152986
0.000203899
0.000148593
0.000149279
0.0492725
0.000151382
0.000145953
0.000230382
0.000147739
0.000160778
0.00014927
0.000145952
0.000149229
0.000199716
0.0339713
0.000148971
0.00014947
0.000147554
0.000154893
0.000148387
0.000226312
0.000176186
0.000149773
0.0513464
0.000164905
0.000228985
0.0491686
0.000432771
0.00014708
0.000149451
0.000148586
0.000207478
0.00015535
0.0339575
0.032092
0.000152508
0.0576994
0.000318117
0.000174896
0.000201991
0.000169098
0.000189249
0.049549
0.000167273
0.000334303
0.0528191
0.00018293
0.000154219
0.0385984
0.000164182
0.000146452
0.000152525
0.0732218
0.000162785
0.000147653
0.000166226
0.000186595
0.000164429
0.0378342
0.000152534
0.0621601
0.000171212
0.0001527
0.000193677
0.000207993
0.0001596
0.000147372
0.000150333
0.0520843
0.00014791
0.000152745
0.00014717
0.000151756
0.00014777
0.000160313
0.000202757
0.000299521
0.000162746
0.000164897
0.0380126
0.000191428
0.00014778
0.000942313
0.0459716
0.000146372
0.000147335
0.000161335
0.0228363
0.000149667
0.000180507
0.000209916
0.000166707
0.000148675
0.000152572
0.000147891
0.000190899
0.000162994
0.000147786
0.0206469
0.0467719
0.000163487
0.000295675
0.000183356
0.00209113
0.000151693
0.000156065
0.0380473
0.0008636
0.000190915
0.000264791
0.000158168
0.000149831
0.000148608
0.00014917
0.000148402
0.00015043
0.000166669
0.000147667
0.000197321
0.000147483
0.000159025
0.000147351
0.000175109
0.000197348
0.000266566
0.000148271
0.000207593
0.000148596
0.0356857
0.000148248
0.000154388
0.000148757
0.000228218
0.0406841
0.000201008
0.000147653
0.000198093
0.000148507
0.000159407
0.0500485
0.000148374
0.000149765
0.000168952
0.000161489
0.0569572
0.000147686
0.000158076
0.000152711
0.000148214
0.000158548
0.000150068
0.000146174
0.000152155
0.0295279
0.000153851
0.000208915
0.0596515
0.000174529
0.0359329
0.000153479
0.000146216
0.000158732
0.0248518
0.000153123
0.000162043
0.000171831
0.000541234
0.000147418
0.00332733
0.000177156
0.000181059
0.000146302
0.000145453
0.000204474
0.000149921
0.000149898
0.00015912
0.000146348
0.000153141
0.000158596
0.000184621
0.000181962
0.0539901
0.000156697
0.000185328
0.00402181
0.0152119
0.00016916
0.000181631
0.0217551
0.000168517
0.069648
0.000152254
0.00863114
0.00323234
0.000146419
0.000149723
0.000147592
0.000151108
0.000168441
0.000147435
0.000152579
0.000190748
0.000152255
0.000160244
0.0455472
0.00015757
0.000154234
0.0758233
0.000150604
0.0227457
0.000155001
0.000165003
0.000147348
0.0291806
0.0293514
0.000148518
0.000151417
0.0424221
0.000157199
0.0148481
0.000148009
0.000147762
0.059747
0.000151272
0.000162424
0.00869198
0.000148439
0.000174944
0.000159
0.000145442
0.000147239
0.0463485
0.0312455
0.000149316
0.000152986
0.000148636
0.000156186
0.000160194
0.0297682
0.00015049
0.000330037
0.00839624
0.000146591
0.00138581
0.000151092
0.000197592
0.000178484
0.000156955
0.000148378
0.00018101
0.0468728
0.000151808
0.000162834
0.0554437
0.000458625
0.000183993
0.000154026
0.000149445
0.000149607
0.000148471
0.0248643
0.000177546
0.000153828
0.000151719
0.000154111
0.000149786
0.000148181
0.000148466
0.000184954
0.000170076
0.0479428
0.00016343
0.00819776
0.0314372
0.000158468
0.000175318
0.000146612
0.000157435
0.0248229
0.000149008
0.000152283
0.000176182
0.000194591
0.000164571
0.0403691
0.00022242
0.000147889
0.0428429
0.000145213
0.00014967
0.000163746
0.000149808
0.000148726
0.000204956
0.0614074
0.00014776
0.0415942
0.000148935
0.000147001
0.000152117
0.000354923
0.000158803
0.000154994
0.0759267
0.000151184
0.00023792
0.0402309
0.000149607
0.000163656
0.000147929
0.0187187
0.00018101
0.000148511
0.0475218
0.00017647
0.000167876
0.000149846
0.0276714
0.000157181
0.000189569
0.000152153
0.000167478
0.0295238
0.000147151
0.000249054
0.00014891
0.000176683
0.000163912
0.000149601
0.03068
0.000152203
0.000194263
0.000175984
0.000169332
0.000162713
0.000162998
0.000150341
0.0550821
0.000158985
0.0192868
0.00015778
0.00018251
0.00014836
0.000167867
0.000148595
0.000185224
0.0496248
0.000150722
0.000147123
0.00044061
0.000151345
0.00859574
0.000150276
0.04446
0.000133637
0.000162979
0.000147883
0.000147543
0.000148678
0.000145365
0.000188815
0.000165748
0.000160933
0.00015547
0.000148444
0.00129933
0.000153172
0.000162259
0.00154369
0.000148496
0.0168055
0.000175918
0.000162644
0.000249135
0.0423546
0.000181627
0.0435452
0.0216298
0.000147387
0.000197635
0.0315442
0.000186881
0.00014909
0.000149403
0.000195566
0.047581
0.0228236
0.000236772
0.000150361
0.000164359
0.000169046
0.0390239
0.00269931
0.00017168
0.000197851
0.000152787
0.000175849
0.000190891
0.000149032
0.000187145
0.0596658
0.000148801
0.00291073
0.000149663
0.000148523
0.0350202
0.0517385
0.000146857
0.000150619
0.000150157
0.000147718
0.000166055
0.000205985
0.000152494
0.000147825
0.000148562
0.000171211
0.000157965
0.000157586
0.000192989
0.000148351
0.0559454
0.0161576
0.0631404
0.000175574
0.000173071
0.000113104
0.00016435
0.0469595
0.000342184
0.0104927
0.000149909
0.0860471
0.0339265
0.000146307
0.000148178
0.00018404
0.0562891
0.0634535
0.000147732
0.000148533
0.043541
0.0019519
0.00747897
0.000153125
0.000152585
0.000294124
0.000149221
0.0494803
0.0293054
2.55751e-05
0.000638364
0.000148712
0.000147592
0.000147086
0.000154935
0.0359007
0.000170597
0.000156764
0.000150472
0.000172755
0.0243523
0.000171267
0.0484173
0.013965
0.0251932
0.000314259
0.000148338
0.000149081
0.0430685
0.00014567
0.000146392
0.000151305
0.00037355
0.000167288
0.0371439
0.000193044
0.000148149
0.0787589
0.000166682
0.00014777
0.0159954
0.000175909
0.00015402
0.000149425
0.00499165
0.0616683
0.000149137
0.0653278
0.0102137
0.0592036
0.000628169
0.000175702
0.00014784
0.000150524
0.000336025
0.000155801
0.0416236
0.000167671
0.00105416
0.00022836
0.000150981
0.000157256
0.000147901
0.000150575
0.056296
0.0195141
0.000148471
0.0211081
0.000172226
0.000148565
0.000153646
0.000147524
0.00020247
0.000150094
0.000313245
0.000164543
0.000147789
0.000147005
0.000169633
0.0235004
0.000168103
0.000152965
0.000168137
0.000148553
0.000151918
0.000158967
0.0194768
0.0298956
0.0590909
0.000146041
0.00014695
0.000149747
0.000197782
0.000147151
0.000149874
0.000205286
0.000179364
8.89107e-05
0.000146271
0.062759
0.0299238
0.000149885
0.0183613
0.000194834
0.00016878
0.000318379
0.000149573
0.0356768
0.000157457
0.00015126
0.000152564
0.000145635
0.000210598
0.000153774
0.000151793
0.000157886
0.0300403
0.0358065
0.000149612
0.000148025
0.000152452
0.000148491
0.000195182
0.000149972
0.000183165
0.000153142
0.0449734
0.000151358
0.0590078
0.00014608
0.0807402
0.000150046
0.000145536
0.0606173
0.000184323
0.000171581
0.000230785
0.000162395
0.000169817
0.000148455
0.0370054
0.000148457
0.000147186
0.000168585
0.000183329
0.0445459
0.040227
0.000193567
0.0666482
0.000192199
0.000205547
0.000148586
0.000155211
0.000159617
0.0570512
0.000153694
0.0566088
0.0303437
0.000149812
0.000148774
0.000148445
0.000362319
0.000425409
0.000152705
0.00014866
0.000154868
0.000158095
0.000167811
0.00024323
0.000193053
0.000148312
0.000203741
0.000181361
0.0230789
0.000181615
0.000151769
0.000153223
0.0772833
0.000147062
0.000184265
0.0531591
0.000150649
0.000155019
0.000205963
0.000173024
0.000150706
0.0240403
0.0001541
0.00023078
0.000171783
0.000158151
0.000151436
0.0588191
0.000146955
0.000171215
0.000260962
0.0598544
0.000172872
0.000175459
0.000156973
0.000163674
0.00014975
0.0613224
0.000158186
0.000148753
0.000160884
0.000148512
0.000149776
0.000381562
0.00014842
0.000149117
0.000148607
0.000198366
0.00014952
0.000161508
0.000184859
0.000200657
0.000189915
0.000149661
0.000183245
0.000193263
0.000203487
0.00018084
0.000155868
0.000201761
0.045618
0.000238864
0.000149887
0.0403315
0.0451819
0.000149882
0.000153663
0.00014553
0.000216579
0.000184375
0.000149169
0.000251013
0.0556306
0.000146632
0.000149397
0.0416728
0.0327119
0.000183812
0.000145703
0.0365338
0.035515
0.000480983
0.000148125
0.0586187
0.000188969
0.00016738
0.0505735
0.000156888
0.00014562
0.000160727
0.00019846
0.000163206
0.0455315
0.0651092
0.000147099
0.0594117
0.000197366
0.0365955
0.000146074
0.000163834
0.000149668
0.000147847
0.0609397
0.00211223
0.000228843
0.00266914
0.000157728
0.000173516
0.000151435
0.0640472
0.0221863
0.000148465
0.000149492
0.00015835
0.000148055
0.000175603
0.0624225
0.0727962
0.00017402
0.000150279
0.000149656
0.0611535
0.00015393
0.000175848
0.00014693
0.000151183
0.000242873
0.00321712
0.000149106
0.000359838
0.000149069
0.000235159
0.000152441
0.000163693
0.0799723
0.0198713
0.000148443
0.000149956
0.000167837
0.000154544
0.000149305
0.0649061
0.0570906
0.000147212
0.000144918
0.00014921
0.000147679
0.000329345
0.000147084
0.0427545
0.000189176
0.000183347
0.000147679
0.00016679
0.0678552
0.000164781
0.000193954
0.0466165
0.000149429
0.0275382
0.000158931
0.000159743
0.000189238
0.0281152
0.0360866
0.00018179
0.000147459
0.000189063
0.000147166
0.00015411
0.000149332
0.0410169
0.000158926
0.00136808
0.000133366
0.000173157
0.000148761
0.000209321
0.000158227
0.000149785
0.000181749
0.000145176
0.000170284
0.000164342
0.00014921
0.0730835
0.000151919
0.000204794
0.000150829
0.000147523
0.0538845
0.0475277
0.000152831
0.000158612
0.000170445
0.00017137
0.000180485
0.000157945
0.000155002
0.000155729
0.000233739
0.000153991
0.0407385
0.000166489
0.000161467
0.000196792
0.000151149
0.0665765
0.000145213
0.0541322
0.000152949
0.0554692
0.00254712
0.0209262
0.0295647
0.000235584
0.000168345
0.000149028
0.0612721
0.000169621
0.000148501
0.0223377
0.0569455
0.000151629
0.000153822
0.000160526
0.000160567
0.000164113
0.0358104
0.000149882
0.000162796
0.000167118
0.000159334
0.000149027
0.000189023
0.000145516
0.0422744
0.000152304
0.000192553
0.00016199
0.000168711
0.000182794
0.00185393
0.000181681
0.000147149
0.000187078
0.0583021
0.0650445
0.000150438
0.0382897
0.000160042
0.000290978
0.000148459
0.000153423
0.053243
0.000178304
0.0273993
0.0268241
0.000159112
0.0749282
0.000148262
0.000145471
0.0232351
0.000164837
0.000153352
0.0727102
0.000156976
0.00016329
0.000157691
0.000176597
0.000149212
0.0433937
0.0521462
0.00897374
0.000230471
0.000155759
0.000171453
0.0293386
0.000152889
0.000149628
0.000176053
0.000146044
0.000183568
0.0476682
0.0211958
0.0279305
0.000178909
0.000150662
0.0609247
0.000145229
0.000185222
0.000149536
0.0364302
0.000152708
0.000164284
0.0389064
0.000192372
0.000148059
0.0001593
0.010248
0.000148822
0.000200867
0.000147082
0.0573268
0.0566114
0.000194796
0.000167474
0.000147554
0.000213833
0.000200266
0.000168394
0.000147096
0.00015087
0.000148893
0.000178566
0.000148755
0.000189251
0.000149073
0.000147362
0.0854023
0.000147782
0.000156921
0.000156187
0.000149819
0.0446467
0.000147672
0.000161262
0.0572646
0.000176817
0.0382148
0.000148712
0.0609455
0.00017796
0.072789
0.000152317
0.000197908
0.000149834
0.00017003
0.000197336
0.000195503
0.000213231
0.0553731
0.000207885
0.000387443
0.000155579
0.000194915
0.00016291
9.08263e-05
0.000153859
0.000149623
0.000148471
0.000177259
0.000164747
0.000596583
0.000176635
0.048043
0.0511465
0.000170239
0.000148416
0.00487092
0.000178228
0.000150093
0.000152803
0.000148758
0.0377839
0.00014847
0.016899
0.000147678
0.000158715
0.0385961
0.000170381
0.00014831
0.000148416
0.025966
0.000147689
0.000152857
0.000155734
0.000160514
0.000157978
0.000149148
0.000203309
0.000167781
0.000162625
0.000219198
0.0448717
0.0428076
0.0319075
0.000146168
0.000148184
0.00017166
0.000150665
0.000163193
0.0383021
0.0428362
0.000145664
0.000148425
0.0400769
0.000124302
0.000145827
0.000147212
0.000155241
0.0557456
0.0484934
0.000156766
0.000162225
0.000149285
0.0002403
0.000198017
0.000173835
0.00015831
0.000163468
0.000149981
0.000166239
0.000235988
0.000150757
0.00014928
0.000156377
0.0552726
0.000154211
0.0228273
0.000148642
0.0511426
0.000161961
0.000156312
0.000146415
0.000147456
0.000244384
0.0532185
0.000164717
0.0238318
0.0553092
0.000150197
0.0535588
0.000201448
0.00014822
0.0127599
0.000193843
0.000194682
0.000149663
0.0393734
0.0374634
0.000148721
0.000162595
0.0294171
0.000166164
0.000148651
0.000147261
0.000150049
0.000153896
0.000181792
0.000228145
0.000167504
0.000179437
0.000146398
0.000149234
0.0424585
0.000147492
0.000167902
0.000155234
0.000149845
0.000173525
0.000148132
0.000152399
0.000237516
0.000147897
0.0446045
0.00014814
0.00417651
0.0485817
0.000187006
0.000149389
0.000149947
0.0602081
0.000145549
0.000153488
0.000149771
0.000202569
0.000220868
0.000164092
0.0481552
0.000162585
7.40238e-05
0.000150307
0.000183691
0.000147813
0.000148865
0.020714
0.0468353
0.000434868
0.000152791
0.000182939
0.000183339
0.0380727
0.0580912
0.00023353
0.000166467
0.000145179
0.051924
0.000148234
0.000148484
0.000234093
0.000195553
0.00015675
0.000177882
0.00016379
0.00015949
0.000157943
0.0771456
0.00015423
0.000147858
0.0204292
0.000163965
0.000146255
0.0342482
0.000148101
0.000148676
0.000202525
0.000185611
0.0381601
0.000146376
0.000153681
0.000147561
0.000308462
0.00014759
0.000198684
0.00433382
0.0456572
0.0316292
0.0145562
0.000157574
0.0443867
0.000221842
0.000149354
0.000158314
0.000162666
0.000157754
0.00024689
0.0456655
0.0523
0.0450308
0.000352446
0.000149108
0.000193155
0.000148144
0.0205568
0.000159668
0.000152645
0.000153656
0.000150871
0.00014759
0.000192443
0.0540415
0.000146057
0.000152797
0.00014694
0.0406922
0.000152572
0.0805497
0.0385089
0.000410383
0.000148579
0.000147656
0.037222
0.000189047
0.00014886
0.000190101
0.000149486
0.00018713
0.000177371
0.000188253
0.000176671
0.030409
0.000146937
0.000147899
0.00023283
0.0346541
0.000159389
0.000166259
0.00014788
0.0154491
0.00014814
0.000147601
0.000151824
0.000148257
0.00656764
0.0444259
0.000145076
0.000182045
0.0603341
0.000151633
0.000145652
0.000162987
0.000146019
0.000251818
0.000148863
0.000153742
0.000148171
0.000147414
0.000147494
0.000391814
0.000151911
0.000275455
0.000145964
0.000158669
0.000157476
0.000266035
0.000148248
0.000162952
0.000167183
0.000171734
0.0788927
0.000147406
0.0322609
0.000175622
0.000164479
0.000149528
0.000147705
0.0362699
0.00970007
0.000148941
0.000148023
0.000240716
0.000235
0.000160692
0.0563999
0.000150726
0.000145275
0.00016328
0.000146009
0.0429108
0.00015258
0.0492808
0.00014843
0.000150797
0.000148736
0.0404509
0.0439202
0.000145794
0.000180553
0.000229552
0.00014828
0.0001479
0.000147603
0.000182103
0.0565242
0.000174522
0.000155149
0.000167113
0.000148143
0.000148624
0.000152972
0.00014793
0.000207174
0.000148716
0.000182679
0.00023843
0.000164354
0.000145294
0.0335786
0.000184586
0.0001482
0.000177441
0.00016214
5.43924e-05
0.000153286
0.0810886
0.000174935
0.000148355
0.000182399
0.000182778
0.000154666
0.0838699
0.000181371
0.000162864
5.93431e-05
0.000148039
0.000184473
0.000168852
0.000181382
0.000147544
0.000148181
0.000145514
0.000158874
0.000179371
0.00017865
0.0495019
0.0318668
0.0397611
0.000149761
0.000296976
0.0495306
0.0627064
0.000148212
0.000148542
0.000177198
0.0524033
0.000153034
0.000166894
0.0113236
0.0349221
0.00417771
0.000171329
0.000203282
0.0388868
0.000177613
0.000145546
0.00190504
0.000228397
0.000149817
0.000150212
0.000150889
0.0610178
0.000184501
0.0541324
0.00015314
0.00750238
0.000149106
0.000160162
0.0335806
0.000149321
0.000165611
0.0500921
0.0424424
0.000174031
0.0001513
0.000152381
0.000149891
0.000184591
0.000197442
0.000701188
0.0605665
0.000146634
0.0177252
0.00019082
4.78423e-05
0.000148065
0.000149028
0.00111639
0.000182118
0.000148065
0.000172239
0.00016707
0.00016095
0.0408298
0.0577442
0.0665699
0.0588426
0.000154576
0.000146113
0.000166124
0.0274816
0.0603566
0.00014855
0.000182565
0.000168912
0.000192806
0.00015105
0.000149688
0.000237346
0.00315705
0.00674543
0.000272002
0.0244142
0.000147687
0.000181786
0.0576678
0.000149423
0.000165623
0.000190555
0.000145905
0.000203774
0.0683853
0.000180071
0.000149679
0.0196878
0.000194345
0.0454441
0.000144662
0.000153682
0.000149124
0.000152907
0.000149006
0.000170709
0.000162638
0.00016241
0.000185633
0.000165304
0.0437377
0.000154145
0.000161924
0.000157725
0.0218383
0.000164806
0.0334256
0.000157519
0.000156249
0.0110422
0.000169785
0.000148765
0.000162757
0.00516343
0.0591634
0.000238434
0.000148249
0.000147754
0.000148056
1.44573e-05
0.000151542
0.000333272
0.000258132
0.000181717
0.000160871
0.000214173
0.0288181
0.000149001
0.0621267
0.000160049
0.000163636
0.000148149
0.000148414
0.00017476
0.0617024
0.000148418
0.0297662
0.000214449
0.000169882
0.000198226
0.000147679
0.000148067
0.00016138
0.000152179
0.0576841
0.024803
0.000169591
0.00024457
0.000148172
0.000148929
0.000149296
0.000149604
0.0832556
0.000152495
0.0426533
0.000168745
0.000151147
0.000188478
0.000826554
0.0394813
0.0211347
0.000153131
0.00014771
0.000148802
0.000153692
0.000215473
0.000180378
0.0828677
0.000148967
0.000150646
0.000175975
0.000149709
0.000213642
0.000152263
0.000174757
0.000176056
0.000162566
0.000162726
0.000146374
0.000172085
0.000162215
0.000180441
0.00016774
0.000162967
0.000147017
0.000187387
0.000147593
0.000548772
0.0472382
0.000224314