/*--------------------------------*- C++ -*----------------------------------*\
| =========                 |                                                 |
| \\      /  F ield         | OpenFOAM: The Open Source CFD Toolbox           |
|  \\    /   O peration     | Version:  v2012                                 |
|   \\  /    A nd           | Website:  www.openfoam.com                      |
|    \\/     M anipulation  |                                                 |
\*---------------------------------------------------------------------------*/
FoamFile
{
    version     2.0;
    format      ascii;
    class       surfaceScalarField;
    location    "850";
    object      meshPhiCN_0;
}
// * * * * * * * * * * * * * * * * * * * * * * * * * * * * * * * * * * * * * //

dimensions      [0 3 -1 0 0 0 0];
oriented        oriented;


internalField   nonuniform List<scalar> 
20673
(
0.000146304
9.23299e-05
-0.000238527
-0.000158925
-0.000196637
0.000357171
0.00011858
-3.72911e-05
-8.12885e-05
0.000365196
3.31652e-05
-0.000397257
-0.000440076
0.00045363
-1.15389e-05
-0.000101178
0.000104695
-3.51737e-06
8.24492e-05
3.06451e-05
-0.000113094
-9.96961e-05
8.01132e-05
1.95833e-05
-9.51955e-05
1.70775e-05
7.81184e-05
-0.000187257
3.89632e-05
0.000148336
-0.000134776
-6.1024e-06
0.000140887
-0.000188165
0.000197045
-8.82906e-06
0.000267444
5.48611e-05
-8.68534e-05
3.19922e-05
-0.000205543
0.000347327
-0.00014151
0.000142386
0.000179434
-0.000321401
0.000438371
-0.000142171
-0.000294903
-0.000199743
9.28367e-06
0.000190521
4.15405e-05
-0.000229647
0.000268177
-0.000272905
1.32508e-05
7.54104e-05
-1.99717e-06
-7.22267e-05
-8.77573e-06
9.12253e-05
-1.71437e-05
0.000325885
-0.000303267
-4.90884e-05
-5.06069e-05
-0.000481659
0.000452128
3.21744e-05
-0.000113682
6.73833e-05
4.62992e-05
-8.27551e-05
-0.000106109
0.000188869
3.09112e-05
-0.00013121
0.000100305
5.89424e-05
-0.000115728
5.67871e-05
1.2486e-05
-0.000155116
0.000142653
0.000112294
0.00011647
-0.000228669
0.000160969
0.000119642
-0.000280334
-0.000179663
-3.51536e-05
0.000214839
-6.92769e-05
0.000285853
-0.000216575
0.000188941
0.000261428
-0.000448971
-7.24966e-05
-3.11867e-05
0.000103686
0.000282139
-0.000293884
-9.14211e-05
7.21162e-05
1.93049e-05
-0.000291498
0.000365993
-6.88859e-05
7.30499e-05
-4.16409e-06
4.07141e-05
4.06473e-05
-5.30014e-05
3.29798e-06
2.47861e-05
-2.7247e-05
0.000313465
6.58951e-05
-0.000361003
0.000159754
-0.000147913
-1.18372e-05
-0.000324611
0.000428237
-0.000101445
-0.000286535
0.000268795
1.77621e-05
4.1594e-05
-0.000241264
0.000217861
-0.00012491
-9.29078e-05
8.60296e-05
-7.56191e-05
-1.04103e-05
-5.75799e-06
-4.87945e-05
7.37002e-05
-0.00034485
0.000143302
0.000201894
-0.000277897
0.000410311
-0.000132145
9.38122e-05
-7.78177e-06
-0.000269938
0.000200666
0.000339962
9.96763e-05
-0.000181143
-0.000106302
0.000287818
3.69794e-05
-0.000171743
0.000424863
0.000101038
-0.000523784
-0.000370813
0.000304643
6.67868e-05
6.62071e-05
-0.00038867
-0.000110088
9.97484e-05
1.03401e-05
-0.000440915
0.000283806
-2.12025e-05
0.000303375
-2.70348e-05
-0.000113955
1.27769e-05
-3.09942e-05
-7.15478e-05
0.000102543
2.64059e-05
-0.000434396
-0.000415983
-4.4856e-05
-0.000105035
-1.89214e-05
0.000123964
-0.000188677
-3.61214e-05
0.000224919
-4.67153e-06
-0.000433735
-8.42755e-05
-1.09195e-05
9.11538e-05
-6.1493e-05
-2.96608e-05
-0.000495642
1.69839e-05
7.88936e-05
-2.61454e-06
-7.62796e-05
0.00021894
-0.000114737
-0.000104158
6.58648e-05
-7.36452e-05
7.7804e-06
-0.000439256
0.000384343
5.62307e-05
8.73353e-05
2.87975e-05
-0.000116132
4.7501e-06
0.000158208
-0.000161724
0.000217173
-4.44452e-05
-0.000169003
-0.000364355
0.000102699
-0.000105028
2.32903e-06
-6.21799e-05
-2.92411e-05
-0.000102142
9.44308e-05
7.71185e-06
-0.000298402
-0.00013946
0.0002416
-0.000227989
-8.5094e-06
5.01346e-05
-8.1128e-05
-0.000132043
-0.000212384
1.73053e-05
0.000311208
-9.23556e-05
7.08424e-05
2.15132e-05
7.03987e-05
-0.000223996
0.00015363
0.000518997
-0.000170726
-0.000344126
-0.000158585
0.000370417
-0.000211317
-3.94204e-05
8.95557e-05
-8.49196e-05
-2.48737e-05
0.000109793
-0.00015246
1.8083e-05
0.000134392
-0.000104721
0.000209427
-0.000104659
-0.000164121
0.000152512
1.16214e-05
8.8342e-05
7.57475e-05
-0.000164087
-0.000218552
-7.94685e-05
0.000313824
0.000135246
-0.000240757
0.00010551
0.000116836
4.29231e-05
-0.000173406
0.000354232
-0.000179912
0.000262526
-0.000421846
0.000167359
4.85899e-05
5.54765e-05
-0.000104066
-0.000135876
0.000121181
1.46981e-05
0.000147194
7.06999e-05
-0.000463716
0.000322952
-0.000118001
-9.2632e-05
0.000210712
-9.63505e-05
8.52808e-05
1.10698e-05
-9.80558e-05
2.91699e-05
-0.000164664
6.91752e-06
0.000157774
-3.62314e-05
8.48219e-05
6.52424e-05
-0.000294675
0.000229478
9.19529e-05
-5.92232e-05
-3.27297e-05
-0.000354253
-9.9861e-05
0.000458744
7.31934e-06
7.98714e-05
-8.71907e-05
6.69252e-05
1.49972e-05
-8.19224e-05
0.000286568
-6.23064e-05
-0.000224251
-6.89861e-05
7.30059e-05
4.37422e-05
-0.000148769
8.32905e-05
-5.30302e-05
-3.02603e-05
0.000173996
-0.000143078
-3.57493e-05
7.59598e-05
-2.09806e-05
0.000222239
-0.000380251
-0.000401279
0.000322074
8.12614e-05
2.59816e-05
-3.93606e-05
0.000214506
5.45063e-05
-0.000239838
1.97759e-05
-8.36189e-05
1.61856e-05
6.74333e-05
0.000352027
-0.000286722
0.000395651
3.46335e-05
7.62944e-05
-2.90308e-08
6.16355e-06
-9.95599e-05
9.33991e-05
-0.000100087
5.09991e-05
0.000228936
-8.25278e-05
-3.61646e-05
0.000124508
-0.000439459
4.55776e-06
0.000230314
5.6273e-05
0.000100467
2.94344e-05
-0.000129897
-0.000120169
0.000449115
-0.000322756
-0.000398804
-1.122e-05
0.000410394
4.98281e-07
0.000123196
-0.000123691
-0.000408424
-7.69499e-06
-7.9775e-05
0.000119133
-3.93571e-05
7.73103e-05
-0.000122005
4.46964e-05
-0.000435136
0.000157529
-0.00010274
0.00042519
-0.000315646
-0.000161682
-0.000115238
0.000277206
-0.00019241
0.000197672
-5.2022e-06
4.44501e-05
4.75032e-05
-0.000230912
9.04042e-05
0.000140539
0.000222998
-0.000223976
1.04425e-06
0.000127842
0.000183157
-0.00031063
-0.000110171
2.34535e-05
8.67175e-05
8.38143e-05
-0.000272344
0.000136234
-4.79349e-05
-8.82967e-05
8.03625e-05
-1.44978e-05
-9.10102e-05
9.71765e-05
-0.000273815
-3.44959e-05
0.000308489
0.000147867
-0.000216013
6.81417e-05
0.000158159
-0.000175602
1.86936e-05
2.2946e-05
-0.000175389
3.89606e-05
-0.000203589
-0.00016169
-2.4169e-06
0.000169094
-0.000341633
-0.00010734
-8.52196e-05
0.000192611
-0.000501919
0.000425019
8.04994e-05
0.000225344
-9.00989e-05
0.000113997
0.000114281
-0.000228196
-1.83243e-05
7.50967e-05
-5.67724e-05
-0.000116472
0.000179153
-6.2656e-05
-0.000439966
0.000251674
0.000189285
5.39545e-05
6.83217e-05
-0.000122275
-0.000211283
0.000183796
2.75349e-05
6.79887e-06
-9.04177e-05
8.25349e-05
-7.52155e-05
3.32519e-05
-0.000113026
-0.00044201
3.47145e-05
0.000410829
0.000193902
-0.000123476
0.000253783
-0.000141385
0.000323249
-0.000437288
0.000275586
-2.92972e-05
-1.00999e-05
0.000228418
-0.000218198
-7.05237e-05
-4.31577e-05
-0.000141387
5.91193e-05
8.22742e-05
-1.55234e-05
-9.46471e-05
-0.000148854
-7.50674e-05
0.000224038
-0.000113981
-6.086e-06
0.000120077
-0.000154877
8.9982e-05
6.48987e-05
-7.97444e-05
-2.23975e-05
-1.71612e-05
-0.000101622
0.000118789
9.65743e-05
-0.00039901
0.000308031
0.0001357
-0.000136131
4.31126e-07
9.78018e-05
-0.000180551
1.55427e-05
2.04497e-05
0.000256252
0.000266187
0.000123304
-1.56271e-05
-0.000107671
-2.22329e-05
-6.27723e-05
8.50062e-05
-0.000356457
0.000241241
0.00011568
4.69056e-05
-3.8202e-05
0.000176278
-0.00023609
5.98828e-05
3.0631e-05
-0.000222975
2.94211e-05
6.17327e-05
8.01216e-05
3.70119e-05
-0.000117131
-0.000232416
0.000422534
0.000437605
-1.09358e-05
-0.000223282
0.000118609
0.000123516
-7.62105e-05
-4.73051e-05
3.79645e-05
-0.00043615
6.10147e-05
4.43911e-05
-0.000105405
7.10846e-05
-9.58772e-05
2.47926e-05
-0.000176056
6.20908e-05
-0.000161145
0.000431292
7.75897e-05
-0.000120993
4.34039e-05
-0.00011861
0.000222246
-0.000103572
8.28748e-05
-8.74691e-05
4.59427e-06
-6.25217e-06
-0.000322916
0.000332552
-8.98906e-05
-2.01956e-05
9.55863e-05
-0.000533489
0.000174685
-9.49478e-05
-7.97126e-05
9.61562e-05
-3.24033e-05
-8.52427e-05
7.87593e-05
6.48398e-06
3.31754e-05
5.98841e-05
-9.30589e-05
0.000325107
-0.000182353
2.55065e-05
0.000101547
-0.000127051
0.000295145
-0.000166984
0.000326621
-0.000479219
-0.000108208
3.57144e-05
6.25405e-05
-0.000178987
-0.000229391
8.06596e-05
-2.59249e-05
0.000103825
-7.78995e-05
2.30442e-06
6.87802e-05
8.11333e-05
0.000132232
-0.000191667
-0.000100862
0.000262083
-2.91626e-05
-6.31929e-05
-7.66378e-05
8.50771e-05
-8.43915e-06
0.000158362
3.07531e-06
-0.000246413
-0.000160991
0.000416891
1.20393e-05
-7.59631e-05
-4.25196e-05
-9.27438e-05
0.000135275
-1.17166e-05
-5.38048e-08
1.36523e-05
0.000112779
3.67866e-05
-0.00014956
9.49671e-05
8.23406e-05
-0.000177281
-2.86866e-05
0.00017655
-0.000186839
0.000235986
-4.90118e-05
-1.15503e-05
-0.000161212
0.000117246
-0.000235005
0.000117824
-4.91996e-05
-2.68215e-05
7.60211e-05
-0.000353183
-6.31676e-05
0.00041943
0.000189529
-3.59254e-05
-0.000153582
0.000139885
-0.000135581
-4.30335e-06
-0.000344105
-5.48966e-05
-0.000360553
0.000463441
-0.000223753
0.000134884
8.89123e-05
-9.95886e-05
6.16105e-05
3.79782e-05
-8.48701e-05
-0.00014601
-0.000183569
0.000173565
-0.000297179
9.18935e-05
2.4391e-05
-2.33564e-05
5.50857e-07
5.68052e-05
2.64853e-05
0.000127948
-8.59992e-05
-4.19477e-05
-0.000147856
3.13523e-05
0.000116508
-9.16652e-05
0.00042601
9.42844e-05
-6.27105e-05
-3.15738e-05
-6.44103e-05
-2.15903e-05
8.60003e-05
0.000107216
2.90201e-05
-2.94049e-06
9.02762e-05
8.48685e-05
0.000134108
0.00020835
-6.48604e-05
3.74355e-06
8.72843e-05
0.000138086
-0.000216685
7.86635e-05
-9.61813e-05
5.17067e-05
4.44746e-05
-0.000128798
-2.77365e-05
0.00015655
-0.000257939
-0.000112235
-3.25465e-05
0.000112671
0.000141939
-0.000245564
-0.000187655
0.000128128
8.90049e-05
-6.72371e-05
-2.89939e-05
9.62324e-05
0.000261645
-0.000262957
9.61694e-06
-4.8833e-05
0.000102789
-0.000191848
-0.000164051
-9.4262e-06
8.84653e-07
-0.000342264
0.000182349
0.000160156
0.00016697
5.60918e-05
-0.000113372
-0.000102651
0.000108499
4.28293e-06
-0.000287499
0.000106249
0.000181382
-4.82358e-05
0.000382698
-0.00033191
-9.15805e-05
-4.6557e-05
0.000138142
-9.21817e-05
6.62575e-05
6.23287e-05
6.56202e-05
0.000367575
-0.000369956
6.99658e-05
-0.000137062
6.70978e-05
0.000293426
-0.000340355
4.65013e-05
-0.000411354
0.000365799
0.000156886
-0.000506173
-2.18899e-05
9.92015e-05
9.81995e-05
-4.02945e-05
-4.19978e-05
0.000101971
7.27338e-05
8.65302e-05
-0.000273212
-0.00036016
-0.000137771
0.000196692
-2.03547e-05
0.000259037
-0.000418656
0.00016048
-2.34505e-06
4.64296e-05
-4.40844e-05
-0.000155317
-5.59136e-05
-0.00011758
-0.000106378
-0.000479616
0.000420667
6.3617e-05
-0.000478006
0.000119422
-0.00010475
5.24898e-05
5.22604e-05
2.18565e-05
5.5315e-05
-7.71715e-05
0.000318458
-0.000414369
-6.36278e-05
8.37822e-06
7.94458e-05
4.97736e-05
-0.000117009
-0.000375161
0.000544775
-0.000165684
-9.33343e-05
3.18413e-05
-0.000521164
4.71117e-05
-1.14049e-05
-7.38375e-05
-0.000193659
-0.000197528
0.000392958
4.45282e-05
-0.000141719
9.7196e-05
-3.55328e-05
-0.000221098
0.000256842
-6.94156e-05
7.94254e-05
-1.00106e-05
-0.000366223
9.26358e-05
-0.000158623
6.76156e-05
1.25696e-05
7.66879e-05
-8.92572e-05
-8.53667e-05
-0.000256631
-0.000130089
8.75794e-05
-0.000111437
7.78654e-06
0.000103653
-0.000444013
0.00020054
0.000244579
-9.6461e-05
7.13801e-05
2.50809e-05
4.21957e-05
9.35052e-05
-6.8215e-05
3.80428e-06
0.000136701
0.000169837
-0.00030647
-6.13248e-05
7.60637e-05
-1.47389e-05
-0.000208777
0.000258296
-4.92675e-05
0.000100469
-2.6088e-05
-7.4381e-05
0.000120683
-0.000108113
-0.000186702
7.41713e-05
0.000112541
-4.40247e-05
-0.000142666
2.99836e-05
8.85974e-05
1.41527e-05
0.000182265
-0.000194871
-0.000117834
0.000231907
-7.22552e-05
-2.40952e-05
-0.000431047
8.87913e-05
0.000343139
0.000219835
-0.00037071
0.000151444
-4.48677e-05
-4.19857e-05
0.000123542
-2.34611e-07
-0.000377156
0.000500198
-0.000121671
-6.68153e-05
-8.80576e-05
0.00010027
-4.1326e-05
-3.60524e-05
0.000295933
-0.000242401
-1.66975e-05
8.36227e-05
-2.3869e-05
0.000118444
-9.45711e-05
0.000273834
-3.61704e-06
-0.00014095
-0.000301228
0.000450199
0.000298415
-6.6293e-06
0.000302462
-0.000398853
-0.000134842
4.32656e-05
7.61313e-05
3.17175e-05
-0.000107848
-9.00537e-05
0.00012103
-3.09755e-05
-3.05773e-05
-7.41728e-05
-0.000358434
0.000526267
-0.000164747
0.000154079
3.54665e-05
-4.01947e-05
-3.49251e-05
7.51198e-05
-0.000252755
2.84687e-05
0.000224391
9.16602e-05
-3.74137e-05
-5.87675e-05
8.86524e-05
-0.000356443
0.000156693
0.00021455
-1.55963e-05
-0.000132255
-0.0003965
6.87592e-05
0.000335648
-0.000115958
2.6069e-05
0.000377294
-0.000309003
-7.72425e-05
7.826e-06
0.000178936
-8.39439e-05
0.000350161
-0.000370019
2.0669e-05
0.000159445
4.54834e-05
-0.000202992
-0.000116046
-0.000107179
0.00012939
6.45327e-05
-0.000136473
-2.989e-05
0.000166393
-1.99625e-05
7.02185e-05
-5.02563e-05
4.40721e-05
5.63972e-05
8.95682e-06
7.3918e-05
0.000217901
-0.000100601
-0.000184297
-2.92225e-06
-0.000319115
8.07748e-05
-2.14762e-05
-5.51614e-05
6.99984e-05
-0.000104125
3.41274e-05
0.000573355
-0.00021891
-0.000352524
-9.37817e-05
-6.48369e-05
0.000482273
-5.55361e-05
-0.000424431
0.000145189
-0.000100159
-4.50242e-05
-0.000380707
0.00018871
-0.000159417
0.000175233
0.000110148
-0.000276992
0.000167398
5.88027e-05
-9.41751e-05
3.53727e-05
0.000312798
-0.000202004
-5.005e-05
-4.95386e-05
-7.81616e-05
9.07171e-05
-1.25554e-05
-0.000105026
6.97e-06
9.80624e-05
-0.000128965
9.52322e-05
3.3733e-05
-0.000280281
-0.000162662
-2.52465e-05
0.000102836
-5.22776e-05
0.000106065
-0.000402987
0.000303495
-1.23289e-05
2.80173e-06
-0.000432559
-0.000470244
4.01366e-05
0.000431707
0.00012554
-0.000113035
2.97454e-05
-2.12045e-06
-0.000401078
-0.000116464
0.000519686
1.42994e-05
-0.000404311
-0.000101314
-3.35232e-05
0.000117039
-0.000111149
2.85686e-05
-8.98935e-05
-0.000115946
6.62123e-05
4.97342e-05
8.60853e-05
-7.99762e-05
-6.10912e-06
9.64328e-05
-0.000113588
-9.74297e-05
7.02322e-05
2.71977e-05
7.76986e-05
-7.99142e-05
2.21565e-06
-5.47197e-06
-0.000247167
9.8781e-05
-0.000453782
0.000116849
-0.000158194
4.13564e-05
-2.26709e-05
-0.000268257
-0.00013585
-0.000127417
0.000263485
0.000371771
-0.000270333
0.000109384
3.33293e-05
9.01875e-05
-5.54203e-05
-6.05245e-05
-0.000157375
-0.000151415
0.000309114
-0.000114991
0.000158367
-4.33568e-05
-0.000219618
0.000356385
0.000115586
0.000251059
-0.000209484
7.30478e-05
-0.000366188
1.26958e-05
0.000354272
-0.000115601
-1.11014e-06
0.000116715
-0.000345021
-0.000117226
5.07962e-05
5.96652e-05
-6.58522e-05
-2.74821e-05
-7.48783e-05
8.16773e-05
8.38392e-06
-8.32622e-05
0.000147569
-0.00013746
-1.0093e-05
1.31284e-05
7.29569e-05
-5.91635e-05
-3.72974e-05
-9.09038e-05
3.87395e-05
5.21644e-05
6.07695e-05
-9.10457e-05
3.02762e-05
-0.000228977
0.00020364
4.97829e-05
0.000109778
-0.000208352
9.8627e-05
1.62804e-05
-0.000381706
-0.00010273
-0.00033957
0.00044371
-2.26461e-05
0.000114467
-9.18172e-05
0.000179735
7.79528e-05
2.417e-05
-7.04615e-05
-0.000223628
0.000138173
8.55042e-05
0.000271861
-0.000133068
-0.000138663
-2.34221e-05
-5.58523e-05
7.92744e-05
-0.000236557
0.000347756
0.000123872
-0.000170079
4.62246e-05
-9.06184e-05
7.43913e-05
1.62272e-05
-9.38361e-05
0.000127119
-3.328e-05
8.27568e-05
-3.79578e-05
-4.4799e-05
0.00011623
0.00027563
0.000299394
-1.50976e-05
6.16758e-05
-0.000135755
0.000219687
-6.42685e-05
-0.000275024
7.57096e-05
-0.000114052
3.83429e-05
1.29535e-05
-0.000103007
-0.00013998
-0.000147373
-9.46614e-05
2.9294e-05
6.53677e-05
-0.000331878
0.000151126
-0.000123965
0.000146925
-3.28435e-05
-5.80602e-05
-6.38367e-05
-5.81671e-05
-0.000175376
7.03609e-05
0.000123822
-2.33512e-05
-3.23137e-05
0.0001562
0.0001817
4.54478e-05
-0.000227093
-0.000150871
0.000138136
1.27455e-05
-0.000141524
-7.28631e-05
0.000214487
-0.000115699
-2.53991e-05
0.000141107
-1.12567e-05
0.000117884
-0.000215993
9.81912e-05
-0.000117152
0.000171409
-5.42342e-05
5.8658e-05
3.18502e-05
-6.00833e-05
-4.7985e-05
0.000112331
-6.43428e-05
0.000222173
-0.000338399
0.000116578
0.000228592
0.000274555
-0.000496436
0.000115578
-0.0002512
-1.66743e-05
-0.000372178
0.000390074
-8.30766e-05
5.96545e-05
-8.6351e-05
5.012e-05
-0.000488633
0.000117477
-6.20566e-05
-9.60483e-05
7.91724e-05
-0.000115885
3.67136e-05
6.64037e-06
7.10582e-05
1.33103e-06
-2.07565e-05
4.45603e-05
3.81966e-05
-9.1998e-05
-0.000215767
0.000308848
2.30974e-05
0.000105501
-0.000128591
0.000572728
-0.00025181
-0.000317122
1.45145e-05
-7.12945e-05
5.678e-05
-0.000133754
2.64804e-05
0.000107276
-0.000296429
0.000135027
6.94452e-05
-0.000335406
0.000267108
-5.82603e-05
-3.91692e-05
-3.81708e-05
-0.000103208
-4.19741e-05
-3.42077e-05
7.61817e-05
3.00474e-05
1.23252e-06
-9.01588e-05
3.45478e-05
5.56111e-05
8.01901e-05
5.57304e-05
-0.000116026
6.02968e-05
-0.000182748
0.000416921
8.33518e-05
1.10791e-05
4.8417e-05
-0.000106695
5.82789e-05
-0.000241539
1.83747e-05
0.000223268
-0.00041786
0.000284287
-0.000297406
-9.78898e-05
0.000396389
-0.000113322
0.000122073
2.31217e-05
0.00011742
-1.04296e-05
0.000158949
-0.000451744
5.07061e-05
0.000100404
-0.000135514
-9.69005e-05
0.000163555
8.0019e-05
1.42654e-05
-0.000111426
8.8783e-05
-0.000246897
5.71416e-05
9.27657e-05
-0.000149901
9.29363e-08
-4.20671e-05
-0.000280051
7.35117e-05
-0.000175955
6.0984e-05
7.46553e-06
-9.44565e-05
8.69913e-05
0.00015906
8.99443e-05
-0.000248851
0.000410734
1.7393e-05
-5.33298e-05
-0.000414576
0.000385584
-0.000403336
1.7611e-05
0.000105506
-9.53831e-05
1.56391e-05
0.000207254
-0.00022685
2.41921e-05
-0.000381634
0.000384565
-2.40233e-06
-0.000131193
-0.000247862
0.000106449
-0.000198299
0.000162922
0.000563261
-0.000285943
0.000339478
-9.85028e-05
-0.000240282
-0.000239657
-2.98967e-05
0.000269856
-0.000190746
7.36206e-05
-0.000108671
-2.76264e-06
0.000116266
-4.05549e-05
0.000157414
-1.18028e-05
0.000128972
-0.000117151
0.000114299
-7.72839e-05
-0.00020181
8.42626e-05
-9.98654e-05
-0.000319818
0.000423185
4.52939e-05
-9.44935e-05
1.28978e-05
-8.524e-05
0.000305546
-0.000261065
0.000328747
-6.69633e-05
6.11343e-05
-0.000109117
-0.000174032
0.000149419
2.46315e-05
-0.000102231
5.65503e-05
6.44205e-05
-0.00011553
2.16974e-05
-0.000126948
-9.20941e-06
0.000136174
-5.59237e-05
7.75852e-05
-2.16617e-05
-0.000120361
0.000108575
-0.000269289
0.000103823
0.000165519
0.000176124
9.58491e-05
-0.000133294
0.000294474
-1.21492e-05
7.44785e-05
-7.09977e-05
-5.0202e-05
-3.83942e-05
8.85964e-05
-0.0004359
9.26208e-05
0.000234274
3.59165e-05
-0.000269967
-3.15668e-05
0.000124338
-9.28617e-05
5.54481e-05
-4.79939e-05
-2.80697e-05
0.000100286
0.00010918
0.000139184
8.39766e-06
0.000338812
-0.000158973
0.000184584
0.000125611
-0.000309674
0.000339819
0.000224978
0.000171525
-0.000182012
1.05096e-05
0.000117337
-0.000402946
0.00010533
-0.000223874
0.000103722
4.81168e-05
-9.83185e-05
-7.67066e-05
3.47325e-05
0.000381977
-0.000195702
-0.000185653
-0.000164497
4.05473e-05
7.47458e-06
-0.000141226
-0.000320586
0.000225717
9.50856e-05
0.000164247
-0.000459047
0.000295164
9.25388e-05
-4.02681e-05
-5.22726e-05
6.23437e-05
5.41005e-05
-0.000116443
-3.42528e-05
-6.55878e-05
9.98414e-05
-0.000152944
0.000134626
1.83259e-05
-1.66364e-05
0.000254236
5.48348e-05
-7.15324e-05
-0.000228008
-3.23612e-05
-4.53596e-05
-0.000193325
-5.56224e-05
0.000249141
0.000212308
-0.000105711
-0.000106562
6.92946e-05
-0.00024893
-0.000187588
3.24977e-05
6.26937e-05
-0.00011096
4.82662e-05
1.42158e-05
-0.000165074
0.000278504
-0.000146562
-0.000131766
-9.02814e-05
7.8133e-05
-4.93477e-05
-0.000269044
0.000319185
-2.08022e-05
8.15717e-05
0.000154009
6.46862e-06
0.000243691
-3.28203e-05
-3.9e-05
0.000108967
-3.49056e-05
9.72501e-05
-0.000101306
0.000115299
-1.39929e-05
-0.000303806
0.000255205
-0.000238744
-0.000200036
-1.11029e-05
-0.000369899
0.000226354
-8.43083e-05
3.27459e-06
-7.36743e-05
-8.80015e-05
-0.000120389
0.000305472
-8.95413e-05
-8.58192e-05
0.000106257
0.000329105
0.00024665
-6.12997e-05
8.68077e-05
0.000100775
-0.000174431
-0.000104285
-4.61946e-05
0.000150484
0.000527693
-0.000214173
-0.000309679
0.000117365
-0.000136967
1.96118e-05
0.00036886
-5.54961e-06
-7.26118e-05
0.00018686
-0.000147853
-1.23533e-05
-0.000161657
1.60177e-05
0.000218451
0.000191363
-4.81348e-06
-0.000167633
0.000389589
-0.000486668
0.000104031
0.000405685
-8.16661e-05
0.000164407
-0.000147784
-1.6612e-05
-4.69712e-05
-0.000239547
-0.00015405
3.33812e-05
0.000120675
5.0993e-05
-7.09549e-05
8.98632e-05
-0.000197151
-0.00024722
0.000227461
-0.000171501
5.99636e-05
0.000111549
-1.12278e-05
-9.00787e-05
-4.2857e-05
-7.59699e-05
0.00011883
-0.000454575
0.000104608
-0.000181578
-8.24285e-05
0.000264067
0.00044641
-0.000279292
-0.000282858
0.00026222
2.0924e-05
0.000302629
2.45089e-06
8.78434e-05
-3.94259e-05
0.000162748
-2.52189e-06
7.9315e-05
0.000198751
-0.000300763
0.000102318
-0.000134751
0.000128658
3.12087e-05
-0.000167106
0.000135924
6.09954e-05
-8.69532e-05
2.59579e-05
-0.000154135
0.000155258
-1.10291e-06
-0.000436501
0.000140359
5.51056e-05
2.8666e-05
-8.37716e-05
3.80318e-05
-8.60257e-05
-0.000107316
-0.000336052
0.000445393
0.000121575
-0.000381898
7.05018e-05
6.06839e-05
-0.000131183
-0.000113515
-3.94196e-05
3.68385e-05
-0.00016562
3.2521e-05
-2.87688e-05
1.56079e-06
0.000301989
-0.000231394
-2.53283e-05
-0.000116384
4.52411e-05
0.000305537
0.000176368
-0.000206221
-0.000104358
-0.000119341
-3.60655e-05
0.000431935
0.000167405
6.5982e-05
-0.000233319
6.65348e-05
7.81385e-07
0.000361072
-0.000358757
-0.000333853
0.000432477
-9.71209e-05
4.6881e-05
0.000125474
-0.000155912
-5.96446e-05
8.15011e-05
8.38743e-05
-6.9696e-06
0.000169891
-0.000326916
-7.42145e-05
5.58902e-05
-0.000352534
0.00017116
0.000181878
8.08007e-05
-0.000115705
0.00033412
-0.000150592
0.000138337
-0.000173472
0.000161863
0.000115789
-0.000212113
9.63713e-05
0.000456378
-0.000295169
0.000137857
-0.000231444
9.36422e-05
0.000150078
-1.36533e-05
-0.000113358
7.77056e-05
9.71982e-05
-0.000174883
0.000214239
-0.000305178
-1.33676e-05
-7.72505e-05
-8.31341e-05
4.08649e-05
4.22699e-05
7.2876e-05
-6.54102e-05
-1.54554e-05
7.14636e-05
0.000229787
-0.000111269
-9.05044e-05
-0.000142609
-6.04632e-05
0.000203146
8.24136e-05
-3.28729e-05
-4.95407e-05
-4.33097e-05
-3.96871e-05
8.29971e-05
-0.000177334
0.000186677
-0.000361361
0.000512711
-0.000149262
3.37251e-05
-0.000135033
9.97434e-05
1.55547e-05
1.32799e-05
-0.000117561
-0.000120754
-3.3289e-05
-0.000112666
0.000216314
-0.000103577
7.55466e-05
-0.000106995
3.14486e-05
-3.78343e-05
-0.000163749
0.000201682
-0.000156781
-8.86423e-05
-0.000154425
7.30815e-05
8.13545e-05
0.000106401
-0.000122023
4.50852e-05
-0.000222349
-7.58334e-05
-2.86034e-05
0.000104436
0.000165224
7.20779e-05
-0.000237226
0.000164447
-0.000379168
0.000215687
0.000136711
7.56262e-05
-0.000272761
0.000187602
0.000138621
0.000319974
-0.00045355
3.75863e-05
-0.000320117
-0.000219184
0.000101265
0.000175294
-0.000290254
-0.000337379
0.000507607
-0.000166227
-4.25574e-05
0.000105921
-0.000218198
0.000112335
0.000350518
-8.78494e-05
-0.000261847
1.07637e-05
0.000165637
-0.000451226
9.12413e-05
-0.000431835
5.47581e-05
0.000379116
8.43028e-05
3.17831e-07
-9.00077e-06
-0.000356528
0.000366179
-0.000413421
0.000361438
6.47106e-05
0.000315573
-0.000197687
-0.000117505
2.83449e-05
-0.000154795
0.000141219
-5.07698e-05
6.52844e-05
0.000151586
7.0501e-05
-0.00022203
7.7602e-06
-0.000107568
0.00036531
-5.20064e-05
-0.000294475
-9.51793e-05
9.94523e-05
-2.15325e-06
-0.000199902
2.43167e-05
0.000175603
1.05052e-06
0.000180695
-0.000112205
-0.000243745
0.000355967
-0.000104506
0.000107505
-2.99773e-06
5.33635e-05
-0.000174597
0.00012126
-2.4286e-05
-9.16706e-05
0.000236582
-0.000115629
-3.17671e-05
0.000147411
0.00038297
-8.81397e-05
-0.000293491
-4.42544e-05
7.91476e-05
-3.35246e-05
7.29373e-05
-0.000151701
-4.68765e-05
0.000306616
-4.50898e-05
-2.95623e-05
7.46521e-05
-1.8662e-06
-9.12873e-05
-3.70394e-05
0.000112273
-7.52316e-05
0.000263997
5.18391e-05
-7.47414e-05
3.45468e-05
-0.000170539
1.74665e-06
0.000168835
-9.51305e-05
0.000148517
-0.000155507
2.07648e-05
0.000173992
-0.000431467
0.000268449
5.79867e-06
-5.79867e-06
0.000193175
7.4411e-06
0.000392532
-0.000399687
-0.000208737
0.000432518
-0.000222884
0.000100951
-0.000114716
1.37665e-05
-0.000124286
0.000376845
-0.00030559
0.000282362
2.43864e-05
0.00028537
-0.000148267
-0.000136839
0.000411353
-0.000287426
-0.000112578
0.000136365
1.28567e-06
-0.000112107
-0.000176503
-0.000235776
4.98918e-05
3.25218e-05
0.000152233
0.000101702
-0.000253783
-0.000298256
0.000301619
-4.85363e-05
0.000119019
-5.61802e-05
-3.66814e-05
0.000120392
-0.000160613
0.000454628
-0.000292506
-0.000357476
-7.7107e-05
4.70401e-06
-0.000109209
4.41838e-05
8.4533e-05
-0.000128714
-6.98812e-05
8.33523e-05
-1.34712e-05
-0.00014795
-0.000121283
0.000352714
-0.000187318
0.000225796
-0.000124613
2.41072e-05
0.000136056
0.000216016
-9.80511e-05
0.000238902
0.000135235
-5.88843e-05
-7.63459e-05
0.000287637
-0.000117759
-6.82845e-06
7.82086e-05
0.000144563
-0.000387257
0.000243934
0.000360689
-0.000163126
-0.000197199
-6.01175e-05
-2.14426e-06
6.22617e-05
0.000501246
-1.66573e-05
0.00027852
-5.60591e-05
0.000341179
0.00011196
-0.000450881
-9.56415e-05
9.62855e-05
1.30727e-05
-0.000219757
0.00012721
7.29586e-05
-0.000186334
0.0002819
8.50534e-05
-0.000365742
-1.32807e-05
9.40823e-05
8.32397e-05
-3.89151e-05
-4.43246e-05
0.000184871
0.000270564
-0.00031623
0.000398712
-7.358e-05
0.000136504
-0.000184693
4.82046e-05
7.72616e-05
3.1923e-05
1.58901e-06
7.21936e-05
3.59312e-05
-0.000108122
8.47436e-05
-0.000391595
-0.000102622
-0.000332282
-5.26444e-05
0.000388776
-0.000152088
0.000464658
-0.000307685
1.06507e-05
-0.000444393
0.000394597
5.24626e-05
0.00010848
-2.22576e-05
-0.000181696
0.000196086
-1.42868e-05
-8.72352e-05
7.89587e-07
8.67616e-05
0.000260808
9.07285e-05
-0.000336642
0.000469658
-0.000320265
-0.000149233
-0.000545283
0.000211273
0.0003383
7.45432e-05
-0.000406759
4.1797e-05
-9.32633e-05
5.14671e-05
0.000320501
-0.000459469
0.000142431
0.000486658
-0.00016582
-0.000315645
3.95323e-05
-9.40332e-05
5.45013e-05
5.85646e-05
6.05693e-05
0.000125858
0.000152787
0.000111266
0.000189472
-7.80534e-05
-0.000111382
0.000336315
-0.000215425
-0.000120406
-0.00012304
0.000445809
-0.000316985
6.99421e-05
0.000198862
-6.07377e-05
-5.6089e-05
0.000133811
-0.000319525
-6.91838e-06
0.000328542
8.88895e-05
-0.000422671
-8.63382e-05
4.30289e-05
-0.000288435
0.00018048
0.000108083
9.09867e-05
-2.74683e-05
-6.35183e-05
-1.91927e-06
0.000239853
8.3724e-05
-2.8409e-05
-0.000186001
-8.22227e-05
0.000268379
9.52537e-05
-0.00039239
-4.13388e-05
-3.41729e-05
7.55116e-05
7.7995e-05
8.43759e-06
-8.64332e-05
-0.000208295
-0.00033227
-8.7634e-05
-6.67786e-05
-5.80199e-05
0.000146026
9.31412e-08
-0.000441444
9.5597e-05
0.000283161
-9.06437e-05
2.79333e-05
-0.000120613
-0.000279108
0.000141002
0.000331944
6.43724e-05
-6.9653e-05
0.000264419
-0.000194189
0.000132013
-0.000108908
-5.02986e-05
-0.000111531
0.00029278
-0.000453423
0.000165078
0.000147046
8.43975e-05
-0.000231434
0.000231551
-0.000221096
-5.22358e-06
6.04095e-05
-0.000159085
-0.000181481
0.000347473
-0.000130578
0.000297268
-0.000276856
-1.91065e-05
0.00013043
-7.7575e-06
0.000131591
6.9564e-05
8.16907e-06
-7.77331e-05
0.000120851
-4.60274e-05
-7.48225e-05
-0.000276436
9.49383e-05
-0.000102981
7.91146e-05
-5.38381e-05
-2.60063e-05
7.98444e-05
-0.000342837
-0.000133183
7.94362e-05
-2.46014e-05
3.10107e-05
6.87384e-05
1.99859e-05
-7.3824e-05
-0.000101553
6.23773e-05
3.91763e-05
8.94673e-05
-4.99347e-05
3.42493e-05
-9.01734e-05
-8.15508e-05
-8.99396e-05
0.000310766
-0.000407556
9.14916e-05
9.9708e-05
-0.000285545
9.84628e-05
-2.84641e-05
0.000317232
-0.000493382
-0.000482229
0.000315233
0.000273203
-0.000432281
1.06938e-05
0.000257424
-2.51674e-06
-0.000254523
0.00017478
7.70768e-05
-0.000251784
-7.46512e-05
7.06495e-06
6.75862e-05
-0.000155362
-0.000322959
-3.63521e-06
0.000358151
-0.000353869
-8.21375e-05
4.26673e-05
3.94702e-05
0.000120153
-1.14191e-05
-0.00010873
0.000208016
0.000261579
-0.000212472
-0.000301108
0.000138934
0.000162402
0.000468534
-0.000324381
-0.000142238
-7.42813e-06
-7.57055e-05
-8.45252e-05
-0.000127956
0.000228376
0.000111938
-0.000340057
0.000201831
-0.000270925
4.60316e-05
3.7208e-05
1.53675e-05
-7.5485e-05
8.49049e-05
-5.03361e-06
8.38919e-05
-0.000411968
0.00010109
-0.000139253
-0.000151276
2.43453e-05
-6.93984e-05
8.22099e-05
-1.28115e-05
-2.64537e-05
0.000121168
6.64909e-05
-0.000187631
0.00029633
0.00028953
9.46496e-05
0.000357816
-0.000212136
-0.000107724
0.000177326
0.000331073
-9.14997e-05
-0.000114875
5.7611e-05
-0.000297004
-0.000131714
9.39378e-05
4.52262e-05
4.97046e-05
-9.49304e-05
-5.70887e-05
0.000160527
-0.000103424
0.000412101
-0.000268473
4.27538e-05
5.45239e-05
3.96737e-05
-9.41975e-05
-0.000127331
-7.606e-05
-0.000338781
0.000415481
6.13687e-05
-9.0708e-05
2.93393e-05
0.000110148
-0.000466631
0.00017394
-0.000381709
0.000159478
5.42208e-05
-0.000213686
-7.42864e-05
-2.03748e-05
1.19311e-05
0.00033113
0.00020024
5.49501e-05
4.62468e-05
-0.000101196
5.35792e-06
-0.000108335
-0.000125558
2.61667e-05
9.93937e-05
-3.48458e-05
0.000137138
-0.000102277
-9.0304e-05
5.91196e-05
-0.000105656
0.000355077
-0.000245637
-0.000111791
-1.54934e-05
0.000127291
0.000323325
-0.000398768
-0.000495743
0.00024664
0.000255444
0.000458528
-0.000293953
-4.11449e-05
0.000116855
-7.22168e-05
2.3356e-06
0.000165237
-0.000461714
0.000301146
-8.63558e-05
0.000361668
0.000450909
-0.000107584
0.000114688
-0.000339558
0.000223281
-0.000307266
8.42362e-05
0.000415009
-0.000407269
8.08966e-05
-0.000456588
-0.000152336
-0.00013862
0.000435433
0.000183351
0.000133679
-0.000133867
1.93666e-07
7.33054e-05
-9.54955e-05
2.21903e-05
0.000113157
-0.000454742
3.1976e-05
-0.000153131
0.000121175
0.000120607
0.000261861
1.69188e-05
-8.82133e-05
-1.47055e-05
6.92294e-05
1.88029e-05
6.64779e-05
0.000111998
7.75069e-05
8.78351e-05
-9.84041e-06
-5.76863e-05
8.78324e-05
-2.90294e-05
-0.000133873
-1.43222e-05