/*--------------------------------*- C++ -*----------------------------------*\
| =========                 |                                                 |
| \\      /  F ield         | OpenFOAM: The Open Source CFD Toolbox           |
|  \\    /   O peration     | Version:  v2012                                 |
|   \\  /    A nd           | Website:  www.openfoam.com                      |
|    \\/     M anipulation  |                                                 |
\*---------------------------------------------------------------------------*/
FoamFile
{
    version     2.0;
    format      ascii;
    class       volScalarField;
    location    "850";
    object      nut;
}
// * * * * * * * * * * * * * * * * * * * * * * * * * * * * * * * * * * * * * //

dimensions      [0 2 -1 0 0 0 0];


internalField   nonuniform List<scalar> 
13917
(
0.000424763
0.00223322
0.0112074
0.00333828
0.00672411
3.56832e-05
0.0112592
0.00836896
0.0101445
0.000272655
0.00126302
0.00164341
0.00349572
0.00156742
0.000598236
0.000817396
0.00229927
0.00060922
0.00186994
0.00672257
0.00672576
0.0124243
0.00672319
0.0106282
0.00673118
0.011647
0.000162431
0.0001104
3.00382e-05
0.000315826
0.000454082
0.000768442
0.000222211
0.000576763
0.00592306
0.000185809
0.00672323
0.0115624
0.00286548
0.00291041
0.00673341
0.00672615
0.00672522
7.25919e-05
0.00361105
0.000488496
0.000707769
0.000717473
5.319e-05
0.00672048
0.00149134
0.00197253
6.09891e-05
0.000517318
0.00206137
0.00121363
0.0012826
0.00346042
0.00129569
0.00356861
0.00653398
0.00259229
0.000340907
0.00672243
3.64149e-05
0.00147327
0.00672458
0.0063135
0.000628887
0.000378479
0.00672383
0.00982003
0.0100504
0.0067298
4.6674e-05
0.0020998
0.00552186
0.00233966
0.0119366
0.00672512
0.00672452
0.0067242
3.55369e-05
0.0125975
0.00923027
0.00255185
0.0067241
0.000648204
0.00151625
0.00672661
0.0115286
0.000291057
0.00519598
0.00120823
0.000969045
3.68916e-05
0.000941679
0.000727678
0.00156756
5.66018e-05
0.00672183
0.000255177
7.03084e-05
0.00226811
0.00673145
0.00989475
4.08907e-05
0.000806618
0.00219522
0.000396209
0.0109369
0.0035796
0.00185706
0.0122033
0.00121817
4.99977e-05
0.00672479
3.83843e-05
0.00495209
0.000530017
0.00672593
0.000830086
0.00618038
0.000131334
0.00672365
0.00132488
0.0034434
0.00672427
0.00672119
3.5535e-05
0.011316
0.00117777
0.00342108
0.0067259
0.000968796
0.0100321
0.000422164
5.21674e-05
0.00672468
0.0005554
0.000707589
0.00674839
0.0015086
5.82704e-05
0.00529334
0.00813264
3.89037e-05
0.00185747
0.00674211
0.000642403
0.000987152
5.04386e-05
0.00142268
0.000294932
0.000945537
0.00350057
0.000434568
0.000535153
0.00334798
0.0012149
0.000802186
0.000159339
0.00672517
0.000923098
0.00189538
0.00159286
0.00227772
0.000890201
0.00470878
0.000255614
0.00027797
0.00377876
0.0017933
0.00168353
0.00724559
0.000247129
0.0119595
4.08291e-05
0.00863915
0.00516467
0.000291618
0.000448463
0.00674878
0.00672396
0.000417594
0.0109134
0.00029696
0.00327046
0.000765399
0.00167362
0.000494479
0.00920959
0.000231519
0.00672338
5.45685e-05
0.00016226
0.00427457
0.00489865
4.65965e-05
0.000198331
0.00208598
0.00672056
0.00104203
0.00117186
0.0080791
0.000475024
0.00673299
0.00369561
0.000766469
0.0105516
0.00166777
0.0116736
0.0042857
0.00168584
0.00673014
2.66228e-05
0.000834005
0.00479
0.00672846
0.00692225
0.00565965
0.000366445
0.00672666
0.0121958
0.0102567
0.0007645
0.00020004
0.000952488
0.00672989
0.000243535
0.00191138
0.000815038
0.00943177
0.00263008
0.00672067
0.000715036
0.0127195
0.00729111
0.006725
0.00672181
0.00396183
0.000825512
0.00672561
0.000884241
0.000526057
0.000158149
0.000506605
0.006725
0.000210448
0.00355736
0.0056311
0.0002475
4.80646e-05
0.00360822
0.00369709
0.00134876
0.00691011
0.00121308
0.000350482
0.000660845
0.00672571
0.00388998
0.00857393
0.000308114
0.00672921
0.00901054
0.00378219
0.00190076
0.012035
0.00230559
0.00672475
0.00672075
0.00073427
0.0102045
0.000599389
0.00140607
0.000486352
0.00221613
0.00672023
0.00585788
0.00672207
0.00791244
0.0019971
0.00672543
0.000583535
0.00027456
0.000167244
0.000828684
0.000363223
0.00442392
0.000177224
0.00958076
0.00758141
0.00672802
0.00248449
0.00672366
0.00450415
0.00672437
3.05381e-05
0.00672081
0.000367403
0.000513135
0.00496531
0.000983889
0.00156834
5.16902e-05
0.000272734
0.000297949
0.00612972
0.00402453
0.0100367
0.00515617
0.00672504
0.00672418
0.00537352
0.00490434
0.0111463
0.00658866
0.0128393
0.00465709
0.0001741
0.00126383
4.82002e-05
0.000825633
0.000160742
3.39976e-05
0.000642885
0.000792859
4.67077e-05
0.00206555
0.0111113
5.56385e-05
0.00514612
0.000644723
0.00295829
0.000665884
0.0121103
4.03462e-05
7.8119e-05
8.04602e-05
0.0097893
0.00672467
0.000294477
0.012095
0.0024281
0.00113002
0.00434833
4.29364e-05
0.00194707
0.000914624
2.96311e-05
0.00672062
0.0035931
0.000228259
0.00672202
0.0067254
0.00672379
0.0067422
0.000538931
0.00770623
3.12643e-05
0.0114552
0.0067273
0.000242468
0.00115338
0.000997318
0.0125432
0.0116956
0.0109997
0.00672268
0.000840484
0.00672555
0.00604045
0.00367459
4.66864e-05
0.000452293
0.00269812
0.0067243
0.000789587
0.000277675
0.000649149
1.36486e-05
0.011656
0.0024096
0.000195907
0.000286563
0.00672157
0.00774898
0.0125161
0.00306369
0.000182781
0.00672658
0.000740257
0.0052117
0.00672487
0.00143129
0.0114167
0.00147572
0.00836205
0.00167912
0.00137418
3.27188e-05
0.00219286
3.058e-05
3.08251e-05
0.00672286
4.3441e-05
0.00250382
0.00672968
0.000343219
0.00672547
0.00673215
0.00672535
0.00068692
0.00672535
0.00404345
0.00946136
0.000934499
0.000255672
0.0102694
0.00490918
0.00112018
0.00672607
0.000417905
0.00285942
0.000676105
0.00672353
0.00829678
0.0104932
0.00893573
0.000742331
0.000500109
0.000729937
0.00283243
0.000645916
0.00147392
0.00040193
0.00223371
0.00672222
0.0124487
0.0115828
0.0120995
0.000190438
0.000529058
0.0122346
0.0129826
0.00533001
0.00672061
0.000751981
0.00145717
0.00304195
0.000494919
0.000738977
0.00679502
0.00049572
0.00105974
0.0050138
0.00672292
0.000801499
0.000765132
0.000323372
0.00615208
0.0067255
0.00336982
0.00685739
0.000403891
0.00672257
0.00977334
3.4297e-05
0.00040546
0.00668066
0.00122922
0.00104325
0.0136494
3.17982e-05
0.00139575
0.000295419
0.000842065
0.00044003
0.000453826
0.00151355
0.00138035
3.84805e-05
0.0017882
0.00075915
0.00676798
0.000783629
0.0013678
0.00676152
0.000433185
0.00246155
0.00583585
0.0105645
0.00571195
0.00672599
0.00930854
0.00285005
0.00672546
0.00385376
0.00312302
0.000241966
0.00553806
0.00722803
0.000235491
0.000727494
0.00232213
0.011185
0.000233364
0.00168472
0.00672567
0.00452982
5.0749e-05
0.00559163
0.00676285
0.00874477
0.0106067
0.00128175
0.00672544
0.00219466
0.00238203
0.000559784
0.00678529
0.00672424
0.00671984
0.00671988
0.00706149
0.000558228
0.00129331
0.00030019
0.006732
0.00672141
0.000509115
0.0139793
0.000787793
0.00421776
0.00672913
0.00672812
0.00634389
0.00887852
0.00672391
0.00672807
0.000954705
0.00157776
0.00133133
0.00309777
0.00133777
0.000731648
0.000817941
4.87439e-05
0.000359936
0.000438479
0.000596264
0.000346472
0.000305992
0.00672745
0.00496065
0.00672764
0.000994481
0.00234482
0.000815504
0.000118535
0.00672346
0.000325728
0.00031096
0.000346366
0.00059028
0.000224502
0.00114947
0.00672393
0.0117044
0.000212933
0.0133803
0.00244978
0.00104162
0.000361723
0.0122082
0.000379768
0.000716082
0.000185507
0.000748248
0.00133637
0.00324542
0.000126123
6.82311e-05
0.00254266
0.000864166
4.96518e-05
0.0132987
0.00220879
0.00109454
0.000968053
0.000233087
0.000608972
0.00164471
2.92235e-05
0.00885917
0.00946431
0.000289983
0.00672175
0.00443832
0.0020822
0.00673201
0.00074322
0.000994663
0.000231759
0.000328742
0.0120286
0.000459204
0.00159819
0.0114811
0.00200734
0.00361549
0.00672519
0.00672379
0.00273383
0.0101774
3.38357e-05
0.00203946
0.00168482
0.00672742
0.00212655
5.29224e-05
0.00167853
0.0012729
0.00143037
0.000811065
0.00526121
0.000174216
0.00172173
0.000273811
0.00673043
0.000464167
0.00223345
0.00136913
0.000297361
0.000125492
0.00093086
0.00671989
0.0067527
0.00328854
7.82118e-05
0.000371939
0.000475826
1.45728e-05
0.000917473
0.00672047
0.000435867
2.98615e-05
0.000127021
0.00561307
0.000477012
0.00672421
0.00220406
0.00129491
0.0130425
0.00672494
0.000121023
0.00222211
0.0013741
0.000267749
0.00992489
0.000130539
0.00232878
0.00915719
0.000630365
0.00332296
0.00258413
0.000650054
0.000270482
0.000634859
0.00672483
0.00239508
0.000139185
0.00275608
0.000593475
0.00142441
0.00675475
0.0011351
0.0104437
0.00641733
0.00381979
0.0067201
0.00466153
0.00672571
0.000810286
0.00451405
0.00111508
0.0083754
0.00095607
0.00020006
0.00672008
0.000201125
0.00672404
0.000443989
0.00671976
0.000152353
0.00346678
0.000644892
1.63848e-05
0.0138998
0.00683336
0.00672424
0.000318114
0.000425777
0.00648464
0.0127743
0.000676963
0.00673122
0.000690053
3.12644e-05
0.000620984
0.000347744
0.000779441
0.0113621
0.00041923
0.00230782
0.000374527
5.28439e-05
0.000668812
3.03333e-05
0.000632766
0.00297546
0.00101935
0.000595684
0.00678206
0.00226907
0.000400048
0.000661194
0.00672462
0.00672479
0.000869457
0.00248146
0.000530299
0.00657227
0.00672621
0.00672585
0.00139176
0.00673174
0.000945257
0.00672034
0.00675747
0.00177797
3.70622e-05
0.00672167
0.00672536
0.000130742
0.000463044
0.00132712
0.00794666
0.000214407
0.00424486
0.00219279
0.000489073
0.00309293
0.00672583
0.00671969
0.00143672
0.00244113
0.0067255
0.00115532
0.00083952
0.00154954
0.000167286
0.000210642
0.00130153
0.00673105
0.00672624
0.00195604
0.00531539
0.00175714
0.00595786
0.00161038
0.00672376
0.000969272
0.00672128
0.00673095
0.000725168
0.00040169
0.00417794
0.000521927
0.00616879
0.00672894
0.0131249
8.88273e-05
0.0023611
0.00266717
0.00661712
0.00038093
0.00265505
0.000246727
0.0029805
0.00672073
0.00672935
0.00174202
0.000476231
0.000860679
0.000585599
0.0100847
0.00240519
0.000945251
0.00204934
0.00672674
0.00148698
0.00390058
0.00672186
0.000404109
0.000147119
0.00258812
0.00990548
0.00556686
0.000279818
0.00672809
0.00673925
0.00172631
0.00141047
0.00672545
0.000300401
0.0067374
0.000435331
0.00680031
0.0067857
0.000290162
0.00420214
0.00298021
0.000523194
0.00672583
0.00672594
0.00341882
0.00673432
0.0038532
2.36854e-05
0.00615199
0.00676902
0.011326
0.00799425
0.00177002
0.000394866
0.000659269
0.00155112
0.00674957
0.000399492
0.00717624
0.000141743
0.00672373
0.0026864
0.0122729
0.000961929
0.0126248
0.0067257
0.00121943
0.0035176
0.00107708
0.00253877
0.00213503
3.96292e-05
0.00673355
0.000388879
0.00671973
0.0041761
0.00672226
0.0104235
0.00673053
0.0062629
0.00675007
0.0045825
0.00280267
0.000230947
8.78326e-05
0.0067911
0.000253391
0.0067238
0.0117678
0.00672235
0.00570887
0.00672379
0.00166921
0.00672364
0.000476024
0.00330888
0.00865392
0.000476391
0.000425324
0.00607327
0.00414275
0.00300375
0.00664118
0.00754974
0.0102861
0.0122352
0.000218685
0.000390111
0.00229997
0.0121193
0.00111659
0.0127601
0.00675849
0.00526386
0.00255101
0.00672368
0.00150895
0.000302664
0.00679167
0.00541421
0.00672635
0.00167686
5.51783e-05
0.00354619
0.000220433
0.000869958
0.00321493
2.2492e-05
0.000163656
0.000873176
0.00328538
0.00343571
0.00304204
3.87823e-05
0.00679711
0.000265563
0.000326277
0.00722448
0.0104744
0.00192463
0.00510464
0.00297624
0.00234071
0.00672836
0.00140585
0.00671899
0.000781055
0.000376506
0.00695004
0.000672156
0.00636834
0.000498052
0.0132502
0.000415519
0.00197447
0.00429599
0.00498286
0.00194455
0.000191776
0.00616283
0.00672364
0.00673138
0.0119368
0.00100785
0.000165274
0.000607611
0.000280417
0.00673078
0.000455506
0.00196407
0.00672283
0.00193144
0.0114045
0.00446871
0.00677359
0.00672685
0.00365274
0.000551746
0.0016846
0.00102415
0.00587951
0.00202185
0.000460429
0.00679324
0.000448518
8.70247e-05
0.0122
0.00370807
0.000143289
0.00101072
0.00901111
0.0128705
0.00673066
0.00970329
0.000648338
3.87716e-05
0.00672368
0.0115761
0.006725
0.00114877
0.000389177
0.000596241
0.0101282
0.000218923
0.00126195
0.00894447
0.00672009
0.000760895
0.00678754
0.000630436
0.0116131
0.00288644
0.00672526
0.00182586
0.00314554
0.00744164
0.00672784
0.00672311
0.00119566
0.000451203
0.000953923
3.2778e-05
0.00158017
0.00240259
0.00218732
0.000863168
0.00221838
0.00788815
0.00163747
0.00416617
0.0122606
0.0020087
0.00679654
0.0101863
0.000472804
0.00192285
0.000464888
0.000767732
0.00418457
0.00154741
0.00284453
0.000382941
0.00672626
0.000824816
5.43068e-05
0.00672503
0.000499086
0.00621183
0.000150447
0.00671997
0.000513744
0.000732567
0.00239173
0.00404089
0.00677351
2.63014e-05
0.000251546
0.00767821
0.00611036
0.00268895
0.000882118
0.00406054
0.000398343
0.000253804
0.00488557
0.000514668
0.00677526
0.00691748
0.00207922
0.00175411
0.00543026
0.000761353
0.00673119
0.00113952
0.00243563
0.00672282
0.00672415
0.00834505
0.011865
0.00074648
0.00132323
0.00672236
0.00411106
0.010794
0.00165747
0.00673102
0.000825307
0.00678194
0.000127173
0.00672445
0.0067298
0.00248722
0.00155705
0.00904285
0.00260119
0.00208184
0.00673034
0.00064477
0.0067211
3.28257e-05
0.000508323
0.00672567
0.00782968
0.000186692
0.000741777
0.0127119
3.20413e-05
0.00676916
0.00202124
0.00329662
3.3701e-05
0.000572907
0.00893274
0.00544914
0.000866098
0.0128495
4.29138e-05
0.000873151
0.00144253
0.000142302
3.55724e-05
0.00945014
0.000120639
0.000311254
0.0131103
0.00168325
0.000773564
0.008385
0.000102147
0.00676045
0.00215902
0.00532136
0.000332028
0.00596679
0.000190862
0.000387847
0.00045362
0.00845088
0.00115453
0.00854785
0.00220841
0.000717444
0.000465983
0.000267156
0.000918689
0.00677193
0.00173893
0.00897629
0.00672466
0.000796378
0.00675169
0.00137302
0.00520269
0.00025165
0.00139959
4.02605e-05
0.000163924
9.71651e-05
0.00838264
5.06263e-05
0.00523596
0.000569716
0.0102534
0.00673884
0.00672432
0.000915855
0.00333612
0.00672526
0.000560709
6.65059e-05
0.000277921
0.00364652
0.00324838
0.00597625
0.00048415
0.000284007
0.00672028
0.00066176
0.0114384
0.000225843
0.000252365
0.00148986
0.000351515
0.0011881
0.00153226
0.00788632
0.000502612
0.00195398
2.04592e-05
0.000763988
0.00672599
0.00498136
0.00293295
0.00506487
0.00140429
0.000218969
0.00673116
0.0011568
0.00672124
0.000934854
0.0067821
0.000218267
0.001474
0.000334737
0.00436467
0.000233798
0.0050159
0.00736463
0.0067274
0.000574129
0.00672364
0.000774322
0.00848756
0.00148389
0.00673247
0.000721334
0.00360312
0.00066699
0.0115201
0.004365
0.00182765
0.00047534
0.000763378
0.0126993
0.00673164
0.000450123
0.00335679
0.0067243
0.00029967
0.00192964
0.00672121
0.000918694
0.00450583
0.00117368
0.000724128
0.00835871
0.000647151
0.00980736
0.00124872
0.0067212
0.00037656
0.00291285
0.00328838
0.000339924
0.00132752
0.000475551
0.00673347
0.000582838
0.000494385
0.000566502
0.00673862
0.00672531
0.00129202
0.00173925
0.00672614
0.000239873
0.00675583
0.000733412
0.000778197
0.00122123
3.80656e-05
0.0121198
0.00270085
0.00125308
0.00148616
0.0020147
0.00155281
3.5413e-05
0.00325529
0.000816088
0.00525679
0.000983153
0.000422724
0.000612959
0.00676534
0.0067255
0.0067222
0.00349589
0.000445325
0.00678607
0.000843135
0.00199412
0.00188226
0.000285557
0.0103514
0.000337172
0.00185608
0.0118599
0.00252651
0.0039562
0.00251995
0.000120228
0.00673337
0.00421173
0.0047627
0.00342372
0.00323685
0.0111353
0.000345208
0.00219938
0.00672063
0.00589883
0.0131947
0.00271537
0.000147026
0.000900573
0.00672706
0.000569241
0.000724947
0.00672624
0.006722
0.0118423
0.00545563
0.00274406
0.00197022
0.00328978
0.000746378
0.000213379
0.00484707
0.00139519
3.01185e-05
0.00220006
0.000703821
0.000586154
0.00302652
0.001689
4.723e-05
0.000365314
0.00672565
0.00133799
0.0110968
0.00097701
0.000134209
0.0108719
3.88927e-05
3.89549e-05
0.000587036
0.00223913
0.00672505
0.00672772
0.00325484
0.000878952
0.0023675
0.00299898
0.00142496
0.00672588
0.00431143
0.00581383
0.00131404
0.00196428
0.00758799
0.000162007
0.0016374
0.00910854
0.000411289
0.000813883
0.0067219
0.000504359
0.00295727
0.00272541
0.00124174
0.000930274
0.000650901
0.000106515
0.0103603
0.000750356
0.00504281
0.0106033
0.00672562
0.00318918
0.000173662
0.00672582
0.00556883
0.000728082
0.00854355
0.00665015
0.00864309
0.00274139
0.00676862
0.00130321
3.34572e-05
0.000665352
0.00273413
0.00588417
0.00165633
0.000712286
0.0115322
0.00672506
0.000135693
0.00672055
0.0031404
0.000570875
0.00571632
0.0106102
0.000777188
7.61628e-05
0.00672604
0.00412791
0.000396604
3.3987e-05
0.00344072
9.20104e-05
0.00420943
0.00676871
2.47095e-05
0.00276311
0.000449405
0.000108055
0.00672504
0.00669951
0.00106818
0.000674541
0.000537204
6.62631e-05
0.000238541
0.000190665
0.00163591
0.0108897
0.000361076
0.00273944
0.000368093
0.00130281
0.00392876
0.000471424
0.00376797
0.00219643
0.00941676
0.00175679
0.0067419
5.02147e-05
0.00246892
0.00285858
0.00246972
0.00929085
0.000308973
0.000474247
0.00672465
0.00672487
0.00672447
0.00672156
0.0004763
0.000145587
0.000180765
0.000890044
0.00672191
0.000673457
0.00234961
0.000514369
0.000766054
0.00435261
0.00112907
0.000900169
0.00224257
3.83898e-05
0.0094964
0.000151561
0.00858833
0.00233411
0.00673416
8.17168e-05
0.00622372
3.63341e-05
0.00672373
0.00220549
0.00118161
0.0114069
0.00406488
0.000369379
0.00462197
0.0001541
0.000876285
0.0111607
0.000556255
0.0012268
0.000912089
0.00106426
0.000258994
0.00205998
0.00672363
0.000366431
0.00733861
0.00672365
0.00118907
0.00672542
0.0041206
0.00739086
0.0123683
0.006721
0.00431257
0.00217004
0.00582508
0.000233249
0.000639132
0.00373057
0.00672247
0.00672249
0.00178957
0.000814039
0.000777353
0.000424323
0.00586603
0.0130379
0.00211747
0.0139382
5.28523e-05
0.000517327
0.000182655
0.00101825
0.0120188
0.000297718
0.00111763
0.00189107
0.010318
0.00958935
0.0067209
0.0067241
0.000295735
0.0121784
0.00639184
0.0067946
0.00344778
0.0117253
0.000404338
0.00119109
0.00125369
0.000796592
4.21727e-05
0.0023314
0.0127948
0.00404726
5.17351e-05
0.000344485
0.00356186
0.00673255
0.00671988
0.000526986
0.00851059
0.00131077
0.00204268
0.00140537
0.000139687
0.00334711
0.00163453
0.00782149
0.00262085
0.00475128
3.91525e-05
0.00672688
0.00672366
0.00866437
0.00672561
0.006758
0.00126505
4.89512e-05
0.000867026
0.00340996
0.000359976
0.00672581
0.0125076
0.000547178
0.00519149
0.00262897
4.60016e-05
0.000608744
0.00430523
0.000987503
0.0132605
0.0067238
0.00838936
0.00260224
0.00857878
0.000246198
0.000223622
0.0055397
0.00237027
0.000183528
0.001261
0.00814903
0.000570293
0.000323389
0.000593046
0.00119749
0.00040153
0.00446608
0.00141646
0.0117354
0.00279246
0.00672767
0.00431231
0.00109164
0.00319103
0.000698428
0.00672564
0.000523919
0.00213149
4.33234e-05
0.000143106
0.00559741
0.00672021
7.03167e-05
0.00288132
0.000812928
0.00116474
0.000512823
0.00413482
0.00194802
0.00158881
0.00217779
0.00716915
0.0127521
0.00672419
0.00671978
0.0021114
0.00167517
0.0067269
0.00202574
0.000641884
0.000942773
0.000237722
0.00676208
0.0135201
0.00723186
0.00672605
0.00204261
0.00105753
0.00173386
4.10342e-05
0.00215963
0.00693338
0.00040052
0.00111851
0.000838415
0.00672514
0.000859765
0.00421273
0.00358917
0.000300235
0.008407
0.00967334
0.00672529
0.0067213
0.00149489
0.00377552
0.000413984
0.00161305
0.00041701
0.00221946
0.010539
0.00338419
0.0132938
0.00672567
0.0120192
0.00252406
0.00672569
0.00816808
3.27496e-05
6.03603e-05
0.000347365
0.000147016
0.000877893
0.0061071
0.00697396
0.00672826
0.00672654
6.59271e-05
0.00192459
0.00373723
0.00880931
0.000465598
0.00943629
0.000365377
0.00026527
0.00678809
0.00143502
0.0015264
0.0131112
0.000660135
0.0127061
0.006638
0.00407866
0.00347214
0.00353038
0.000223545
4.00976e-05
0.00207271
0.00672358
0.000667814
0.00082641
0.000914053
0.000630058
7.2527e-05
0.00672161
3.0333e-05
0.000356526
0.00267165
0.000582428
0.00123991
0.00146722
0.0130217
0.00671967
0.00041023
0.00992884
0.00146927
0.000931194
0.000622285
5.0587e-05
0.00134978
0.00356367
0.00142273
0.000745899
0.00217151
0.000389616
0.00283132
0.0128637
0.00672229
8.99418e-05
4.06165e-05
0.012077
0.000603725
0.00035052
0.00202862
0.000144864
0.00672555
0.0118958
0.00160699
0.00442538
0.00100175
0.0067222
0.00672569
4.31926e-05
0.00672525
0.00672325
0.00324934
0.000889053
0.00211353
0.000521112
0.00102524
0.000239021
0.000365812
0.00672524
5.8481e-05
3.09649e-05
0.000307175
0.000355114
0.000437428
0.000540537
0.00794492
0.000348756
0.00672606
0.00525752
0.00955865
0.00672604
0.00144713
0.00672322
3.62184e-05
0.000290312
0.00426525
3.78316e-05
0.0126798
0.00672248
0.00217176
0.0107867
0.00769799
0.00198461
0.00672756
0.00322606
0.0106002
4.75237e-05
0.00672413
0.0133879
0.00201665
9.21864e-05
0.011164
0.00128487
0.00672373
0.000921633
0.000282273
0.00104893
0.011203
0.0137664
0.00674261
0.00837001
3.48234e-05
0.00785038
0.00672623
0.000113904
0.00202075
0.00536427
0.0138605
0.000915284
0.000801124
0.000906918
0.000448974
0.000617521
0.0068195
0.0131821
0.00368139
0.00673337
0.00259897
0.000270974
0.00660382
0.000851933
0.0132437
0.00840948
0.000624927
0.00243879
0.00454427
0.013897
0.000655754
0.00075604
0.00674128
0.00131111
0.00030583
0.00121435
0.000375539
2.68996e-05
0.00672357
0.000772616
0.00683527
0.000155799
0.00715188
0.00288333
0.00672483
0.00672632
0.00176143
0.000565885
0.00232585
0.0133639
0.0130451
0.00676229
0.00673454
0.00672389
0.00672188
2.30905e-05
0.00677291
0.0107751
0.000437
0.00204311
0.00541747
0.000310931
0.0139011
0.00103645
4.1696e-05
0.00786773
0.00202093
0.00379806
0.00025573
0.00020824
4.54681e-05
0.00380206
0.0076266
0.0018942
0.00673442
8.77099e-05
0.00677344
0.000605752
0.002183
0.00912038
0.000321707
0.000947029
0.000634368
0.000649844
0.00672363
0.000258939
0.00132475
0.00672572
3.87652e-05
0.00672118
0.00218096
0.00086979
0.00239875
0.00732942
0.00117724
3.56241e-05
0.00130054
0.00672468
0.00954603
0.0123866
0.000755185
0.000251009
0.00157354
0.000344705
0.00141787
0.00212849
0.000603568
0.00149808
0.000706539
0.000622588
0.00918311
0.000133805
0.000373173
0.00174546
0.00297833
0.0136895
0.00671938
0.0104766
0.000761613
0.0123192
0.000484844
0.00238607
0.00385559
0.000750581
9.09554e-05
0.00441308
0.0135174
8.47426e-05
0.00523066
0.00276398
0.00818472
0.00104404
0.00240241
0.000605159
0.000685088
0.00122489
0.00670062
0.006726
0.00212676
0.00158541
0.000380614
0.00672353
0.00132584
0.00673452
0.00909512
0.000920996
0.0003513
0.000760077
0.000803092
0.000197297
0.000724379
0.000339315
0.00673991
8.02245e-05
0.013013
0.00283154
0.00351106
0.00822932
0.00103827
4.14415e-05
0.00672832
0.00079733
0.0132094
0.00185553
0.00536587
0.00354865
0.000240644
0.0134032
0.00354138
0.00673593
0.00255554
8.93464e-05
0.000842565
0.0113892
0.000829707
0.0001625
0.000418886
0.000338117
0.00283708
0.00728018
0.00819833
0.00128078
0.000685168
0.00125334
0.000321224
0.00575385
0.000889164
0.00205795
0.000231411
0.00673208
3.4237e-05
0.00531012
0.00323609
0.00504263
0.00123195
0.00335497
0.013755
0.00672461
0.00117077
0.00672512
0.00150504
0.0011638
0.000165132
0.0100923
0.000465812
0.00672123
0.000360735
0.0011179
0.00341295
0.00069567
0.0067519
0.00594854
0.0126708
0.00079571
7.18901e-05
0.0067212
0.00101774
0.0015082
0.000774372
0.00675092
0.00356444
0.00672289
0.00121063
0.00672366
0.00145941
0.00277815
0.00638336
0.0113612
0.0052095
0.000888876
0.00208039
0.00672595
0.0118094
0.00538463
0.000423635
0.0135158
0.00189382
0.00927392
0.00352442
0.0130533
0.00190559
0.0119127
0.00119138
0.00107761
0.00457762
0.000853318
0.00128811
0.00145545
0.000327142
0.0127875
0.000309261
0.000210946
0.000537673
0.00118084
0.000214051
0.000163199
0.000653317
0.00469437
0.00449736
0.00114976
0.000197905
0.000347609
0.000830442
0.0088329
0.00741866
5.99493e-05
0.00361005
0.00129143
4.17108e-05
0.00168514
0.000779775
0.00309922
0.00742163
0.00484203
0.00199797
0.00545227
0.0015959
0.0076246
0.000126136
0.00672758
0.00479805
0.00325281
0.00538504
0.000912143
0.00150519
0.000449471
0.000850987
0.00253936
0.00139128
6.90731e-05
0.00016469
0.000435471
0.00991765
0.0113602
0.00505716
0.00672498
0.00491278
7.21543e-05
0.00321616
0.000152463
0.00838768
0.0109762
0.00672681
0.00640665
0.0115294
0.000212201
0.00672942
0.00674243
0.000490433
0.00418102
0.0116871
0.000960899
0.000490851
0.00672453
0.000636145
0.00129242
5.14281e-05
0.000274044
0.000194115
0.00177105
0.00060337
0.000731138
0.00136625
0.00338974
0.000941515
0.0109462
0.000734068
0.00306716
0.00672334
0.0128394
0.000313117
0.000393723
0.0067227
0.00672484
0.000236958
0.00670609
0.000100884
0.00554843
0.00517535
0.00150706
0.0127258
0.00146831
0.00677053
0.00304523
0.000685773
0.000668141
0.00672526
0.0109699
0.00813927
0.00487023
0.000253124
0.00672704
0.000323186
0.0032773
0.00676084
0.00246514
0.00203718
0.000389612
0.000740946
7.21328e-05
0.000354987
0.00673949
0.00247041
0.0079292
0.00599686
0.000352352
0.000480551
0.00515973
0.000603996
0.00672493
0.000956456
0.000701069
0.00672215
0.00961684
0.00672663
0.000280642
0.0127493
0.000440422
0.00240961
0.00672627
0.013577
0.00672477
0.00118362
0.00190995
0.000136695
0.00014979
0.000792212
0.0125972
0.000195628
9.27218e-05
0.00146952
0.00100117
0.00640533
0.00672365
0.00407972
0.0120913
0.000319558
0.00127985
0.000835132
0.000887692
0.00789088
0.0134952
0.000711149
0.000537529
0.00672376
0.0119674
0.00462219
0.00402729
0.000707439
0.00130729
0.000426374
4.18631e-05
0.000171295
0.000426495
0.000837061
0.0134016
0.00147217
0.00672226
0.00298056
0.000151302
0.00673625
0.00966691
0.00672122
0.00672355
0.000535152
0.000161088
0.00309871
0.00673654
0.000683831
0.00673353
3.4058e-05
0.00568947
3.39372e-05
0.00128669
0.0122709
0.00897933
0.000437644
0.000315495
0.00959491
3.58534e-05
0.00672457
0.000381243
0.000169287
0.00032341
3.91326e-05
0.0106506
0.0114513
0.0122651
5.12133e-05
0.00240434
0.000947427
0.0067209
0.00423975
0.00108012
0.00304624
0.00142933
0.00213515
0.00600517
0.000697003
0.0118078
0.00672365
0.00148168
0.00671978
0.00866143
0.00157128
0.0127544
0.00914579
0.000319145
0.00672435
0.00570156
0.00827514
3.66007e-05
0.00672362
6.63915e-05
0.00672499
0.000203172
4.53849e-05
0.000515818
0.00102802
0.00286854
0.00674196
0.00653927
0.000917181
0.0101511
0.000740005
0.000257581
0.00544881
0.00177992
0.00672949
0.00672281
0.00170422
0.00459584
0.00124839
0.0106731
0.000148527
0.00203048
0.0135559
0.000210411
0.00672428
0.00126061
0.00672994
3.88051e-05
0.00431752
0.000772709
0.00580502
0.00672438
0.00677709
8.77718e-05
0.00350664
3.18253e-05
0.00676234
0.000255955
0.00687469
3.85131e-05
0.00672362
0.00108101
0.00168234
0.000202251
0.00960636
0.00672529
0.00741099
0.000325005
0.000204288
0.00680349
0.00672942
0.0100842
0.000597102
0.00442346
0.00474671
0.000686541
0.000739117
0.000179181
0.0135689
0.00139069
0.000252494
0.00129523
0.00672663
0.00788271
0.00370276
0.0121937
0.00491772
0.00199307
0.00672353
0.00929243
0.0118677
0.00672641
3.84048e-05
0.000799857
0.00672121
0.00498644
0.00673946
3.99825e-05
0.0133774
0.000339624
0.00268233
0.000579032
0.00672386
0.00339783
0.00155231
0.00672198
0.000597145
0.00338555
0.00157923
0.000282656
0.00057357
0.0067203
0.00779208
0.00086863
0.00672369
0.000259568
0.00113517
6.72644e-05
0.000667624
0.00644433
0.00048599
0.00368303
0.000350271
0.000367542
0.0014092
0.0123119
0.00155734
0.00237293
5.80015e-05
0.00482133
0.000155689
6.88588e-05
0.000163191
0.00672417
0.00444111
0.00672415
0.000251243
0.00142595
0.00129311
0.00762027
0.00678241
0.00924776
0.00672576
4.30424e-05
0.0127873
0.0139723
0.00540486
0.00328845
0.000930271
0.011889
0.000863211
0.0012936
0.000348466
0.00678947
0.000248899
5.65749e-05
0.000518741
0.0112357
0.000153104
0.0067362
0.000163292
0.000630129
0.00258074
0.00328764
0.00148437
0.0126123
0.000342967
0.00726565
0.00119976
0.000908059
0.00303397
0.000178081
0.00856706
0.00236175
0.00113101
0.0113001
0.00790289
0.000450394
0.00198745
0.00098373
0.00175544
7.55824e-05
0.00163733
0.000281096
0.0138415
0.00674363
0.00334779
0.000207621
8.31171e-05
0.00672082
0.00672345
0.000612214
3.83455e-05
0.00474957
0.000506307
7.7334e-05
0.000174851
0.00891793
0.0116504
0.0136352
0.0135389
0.00065824
0.0067469
8.40336e-05
0.00596341
0.00584026
0.00457313
3.50057e-05
5.80452e-05
3.19059e-05
0.00438999
0.00672557
2.77292e-05
0.00100697
0.00107033
3.1558e-05
0.00570921
0.00672522
4.18785e-05
0.0133383
0.00228012
9.07116e-05
0.000508167
0.0067289
0.000614654
0.0118832
3.85986e-05
0.00672552
0.00370581
0.000590225
0.00165183
0.00672592
0.00259231
0.0025499
0.00355076
0.00256051
0.00033245
0.000239453
0.000183082
3.45715e-05
0.00124292
0.0100816
0.000639381
0.00233986
0.000665772
0.00235341
9.96519e-05
0.00655606
0.000595837
0.000420078
0.000572394
5.83098e-05
0.00334059
0.000191155
0.00161916
0.00886946
0.000746203
0.00398662
0.00530127
0.00445507
2.81189e-05
0.00123665
4.01052e-05
3.82842e-05
3.8376e-05
0.000550909
0.000293099
0.0050544
0.00273438
0.00840296
0.000349647
0.000121717
0.00410466
0.00479284
0.000582733
0.0134994
0.00672156
0.00592699
0.00013292
6.7014e-05
0.000269578
0.0054226
0.00672245
0.00106316
0.00331696
0.00224308
0.00099298
9.14516e-05
0.000193451
0.00410234
0.00311969
0.00286872
0.00672503
0.00928268
0.0022802
0.00915229
6.7808e-05
0.00464882
3.59271e-05
0.00031526
0.0111142
0.00241466
0.00213535
0.00678964
0.00672372
0.00320124
3.73473e-05
3.77972e-05
0.0118524
0.00672368
0.00346795
5.21029e-05
0.00672542
0.000969136
0.000883831
4.65559e-05
4.51539e-05
0.000214864
0.000256497
0.00673825
0.000627689
0.000284707
5.43786e-05
6.79846e-05
0.000215575
0.0067223
8.41135e-05
0.0061368
0.000216134
0.0124904
3.69711e-05
0.00323666
6.56796e-05
0.00344889
0.000770931
0.00196173
0.00357392
0.000385494
0.00245995
0.0118576
7.29552e-05
0.000218615
7.05339e-05
0.000192652
0.0100113
0.0135006
0.000449304
0.0122365
0.000112093
0.00563192
0.000110201
0.0139311
6.53356e-05
0.00672509
0.000499171
3.40133e-05
0.000450779
0.00282084
0.00319807
0.000169818
0.00672468
0.00580446
0.00178475
0.000259551
0.00672558
0.00651638
0.0117601
0.000922252
0.00698736
3.63693e-05
0.0131815
0.000355304
0.00673468
0.00116186
0.00675251
0.000161475
0.000590278
0.000349677
0.000799262
0.000246956
0.00675772
0.0126986
0.00108679
0.000525315
0.0123583
5.47998e-05
0.00525829
0.0139217
0.00444735
0.00275182
0.00672395
0.000407929