/*--------------------------------*- C++ -*----------------------------------*\
| =========                 |                                                 |
| \\      /  F ield         | OpenFOAM: The Open Source CFD Toolbox           |
|  \\    /   O peration     | Version:  v2012                                 |
|   \\  /    A nd           | Website:  www.openfoam.com                      |
|    \\/     M anipulation  |                                                 |
\*---------------------------------------------------------------------------*/
FoamFile
{
    version     2.0;
    format      ascii;
    class       surfaceScalarField;
    location    "850";
    object      phi;
}
// * * * * * * * * * * * * * * * * * * * * * * * * * * * * * * * * * * * * * //

dimensions      [0 3 -1 0 0 0 0];
oriented        oriented;


internalField   nonuniform List<scalar> 
20673
(
-0.171636
0.161605
0.01003
0.369554
-0.30548
-0.0640758
0.0231724
-0.0521038
0.0289314
0.150313
-0.275952
0.125637
-0.36405
-0.113174
0.477222
-0.0202205
-0.00231948
0.02254
0.0360629
-0.0313687
-0.00469424
0.00983978
0.0199299
-0.0297697
0.0143157
-0.027752
0.0134363
-0.0562187
0.157515
-0.101296
-0.105432
0.10465
0.000781855
0.149406
0.00383797
-0.153244
-0.0981547
0.000596101
-0.000539598
-5.65029e-05
0.203812
-0.0379903
-0.165822
0.241001
-0.241797
0.000796212
-0.105403
0.299287
-0.193885
0.139781
-0.162434
0.0226533
0.149522
-0.00011586
0.337744
0.260783
-0.598535
-0.368397
0.572893
-0.204497
0.0338501
0.00221278
-0.596897
0.335318
0.261573
0.0477624
-0.0379226
-0.308405
-0.0584129
0.366815
-0.00385621
0.033196
-0.0293398
-0.105767
0.0776726
0.0280947
-0.0998538
0.0514606
0.0483932
-0.0652822
0.0523987
0.0128836
-0.147736
0.109094
0.0386424
0.156244
-0.170407
0.014163
0.194905
-0.205516
0.01061
-0.0967884
0.137975
-0.0411871
0.174257
-0.0482126
-0.126044
-0.386344
0.362234
0.0241093
0.087422
-0.106589
0.0191672
-0.362748
-0.234154
-0.00471034
-0.00325268
0.00796302
-0.185243
-0.0554219
-0.0164054
0.000835597
0.0155698
-0.575545
0.585447
-0.00993033
0.685455
-0.381772
-0.303684
0.362415
-0.534426
0.171992
-0.0495353
-0.0183695
0.0679048
-0.17012
-0.15524
0.325358
0.0960187
0.0715065
-0.167525
0.146689
-0.00690778
-0.0166234
-0.111151
0.127775
-0.003488
0.0101796
-0.00669165
-0.676624
0.43382
0.242785
0.0431536
-0.16458
0.121426
-0.283107
0.0335188
0.249587
-0.00659283
0.00310483
0.0550744
0.119183
0.167274
-0.272679
0.212151
-0.223331
0.0111792
-0.111406
0.00597438
0.27062
-0.351714
0.081092
0.0844715
0.160602
-0.245074
-0.331511
0.161388
-0.0176636
-0.0190844
0.036748
0.163531
0.206022
0.000596101
-0.162889
0.500625
0.0157224
-0.0359429
-0.0788862
0.0866593
-0.00777314
-0.515609
0.321015
0.26189
-0.361989
-0.104592
0.102585
0.00200751
-0.161995
0.181682
-0.0196873
-0.524901
0.160849
-0.0171194
0.0314351
0.000400704
-0.00406168
0.00366098
0.141536
-0.449944
-0.00748748
-0.00698608
0.0144736
-0.0190734
0.143847
-0.124774
0.00426824
-8.11786e-05
-0.00418706
0.0725045
0.190394
-0.2629
0.0350654
-0.0327752
-0.00229019
-0.611611
0.330867
0.280743
-0.320533
0.598989
-0.27846
-0.260059
0.00800269
0.0246459
-0.0326486
0.00711748
-0.0118278
0.00268876
0.00324047
-0.00592923
-0.212262
0.284765
0.37026
0.20151
-0.571775
-0.089253
0.0103668
0.211467
-0.168314
0.512475
-0.150075
-0.00225854
0.00179383
0.000464712
0.122143
-0.00416716
-0.117976
-0.051137
0.364543
-0.31341
-0.261058
0.0527351
0.208322
-0.0394751
-0.0497779
0.0248066
-0.0351092
0.0103026
0.0855208
-0.123397
0.037876
0.127981
-0.000987112
-0.126993
-0.0644083
-0.0368386
0.101247
0.0518606
-0.0639428
0.0120823
-0.45283
0.556134
-0.10332
0.12224
0.00795226
-0.130192
0.0190677
-0.068603
-0.27125
0.0726264
0.198623
-0.481798
0.0887301
0.39306
0.0374045
-0.0277811
-0.00962338
-0.00295207
-0.0623636
0.0653156
0.0938699
-0.110493
0.103201
0.196085
0.161631
-0.150599
-0.0110319
0.00283469
0.00692697
-0.00976166
-0.00300148
-0.0134039
-0.110001
0.130808
-0.0208066
0.0337724
0.00363209
-0.274321
0.116801
0.15752
0.00718683
-0.00774216
0.000555336
-0.362447
0.498593
-0.136151
0.0109691
-0.0118062
0.000837115
-0.00808745
0.0102257
-0.00213829
-0.0769496
0.165302
-0.0883522
0.493358
0.192097
-0.0954509
-0.00914116
0.00175363
0.00639692
-0.00815056
-0.0559989
-0.0438549
-0.605176
0.122627
0.48253
-0.245284
-0.0157743
0.0992353
0.21853
-0.317767
-0.531056
-0.0741422
-0.489083
0.582352
-0.0932977
0.0224871
0.00928944
-0.013958
0.00466852
-0.0822375
-0.192083
0.148242
-0.303484
0.213259
-0.581657
-0.131237
0.0646368
0.0665998
0.00883917
0.0389232
-0.016457
-0.155179
0.0513628
0.000497801
-0.116851
0.437866
0.101561
-0.17851
-0.0932959
0.110901
-0.0176053
0.44988
-0.190894
-0.258992
-0.216218
0.276861
-0.0606432
-0.07153
0.0246589
0.046871
-0.0698746
0.331765
0.0460212
0.00648291
-0.0525041
0.0177914
0.0433933
-0.0611847
0.0177087
-0.300816
0.502319
-0.167215
-0.33511
0.223507
-0.213863
-0.0096447
0.153837
0.00411078
-0.157948
-0.000395587
0.00758241
0.0220667
-0.114905
0.0928379
-0.0815879
-0.04376
0.125348
0.218435
-0.213481
-0.00495375
0.00235642
0.00215846
-0.00451488
-0.174039
0.0120436
0.033204
-0.0913995
0.0581955
-0.000445423
0.00471366
-0.0776659
-0.0535707
-0.148321
0.218835
-0.0705149
-0.0855847
-0.00617498
0.0917597
0.247268
0.351967
-0.599236
0.111416
-0.0258954
-0.13388
0.0238783
0.029036
-0.0934442
-0.202224
-0.0690273
-0.156718
0.153125
0.00359357
0.133644
0.220212
-0.35386
0.0252974
0.0969428
0.150108
-0.142396
-0.00771198
0.0179766
-0.00776373
-0.0102129
0.108908
0.00507506
-0.113984
-0.00708188
0.235673
-0.228593
0.0644288
-0.0500666
-0.0143622
-0.0431525
-0.0697827
0.112935
0.0157275
-0.00643803
0.000491657
0.0104775
0.0627599
-0.0167387
-0.258427
0.400885
-0.142461
0.00604796
0.116095
-0.0128504
0.169094
0.296922
0.152952
-0.0864065
0.456662
0.189906
-0.0917406
-0.0981653
0.0366415
-0.0404978
-0.0327393
0.128628
-0.0958884
-0.000242904
0.00259932
0.150995
-0.150693
-0.000302072
-0.105839
0.0969913
0.00884762
-0.00980342
0.0735271
-0.0637237
0.000350555
0.00233821
-0.114427
0.0950522
0.0193746
0.624049
-0.28097
-0.343085
-0.0314105
-0.0139412
0.0453516
-0.102066
-0.00370138
0.626134
-0.62617
-0.303235
0.252094
0.00637675
-0.0809996
0.0746228
-0.0886775
0.0884481
0.000229409
0.024671
0.175553
-0.200225
-0.338088
-0.33855
0.162602
-0.00213816
-0.160464
0.152636
0.00120114
-0.00514607
0.00554677
-0.0752186
0.10482
-0.0296018
-0.2804
-0.105946
-0.090202
0.36082
0.00807293
0.119908
0.0163404
0.0330417
-0.0493821
-0.286632
0.0704136
0.0390014
-0.0297272
-0.00927419
0.00725154
0.000143351
-0.00739489
-0.00538329
-0.100456
-0.413112
-0.0686937
-0.058361
0.0416622
0.0166988
0.147902
-0.00514581
-0.142756
0.0106642
0.00415771
-0.0148219
-0.490398
0.289836
0.200559
0.0410461
-0.0587097
-0.395335
0.136903
0.000524835
0.114655
-0.11518
-0.126913
-0.448655
-0.00660727
-0.000174291
0.00678156
0.0348085
-0.025672
-0.00913643
0.0635824
0.177418
-0.119578
0.0186991
0.100879
0.0378517
0.180582
-0.45386
0.0407387
0.00512128
0.0823007
0.122935
-0.0140269
-0.0104491
0.161444
-0.0597805
0.0213354
0.038445
0.00843855
-0.00118702
-0.586825
0.485998
0.100806
0.193515
0.00139015
-0.00288935
0.000630809
-0.00319556
-0.00249079
0.00568635
-0.298753
0.546017
-0.459992
0.440204
0.0197785
-0.0181184
0.00148072
-0.117332
0.0936907
0.0236411
0.39864
-0.60174
0.203098
-0.0766119
0.0903719
-0.01376
-0.143917
0.141387
0.00253017
-0.10319
0.0176055
-0.167363
-0.0124234
0.179787
0.58162
-0.229656
0.140023
0.00521023
-0.145233
0.0066518
-0.00731813
0.000666334
-0.286163
0.385589
-0.0994292
0.0543728
-0.133986
0.0796128
-0.0378274
-0.0101071
0.0479345
-0.238482
0.337715
-0.281748
-0.0699687
-0.0253092
-0.105103
0.130412
0.000749481
0.0140359
-0.0147854
0.104885
-0.0828183
0.122096
0.0678093
0.0132137
0.190598
0.242712
0.369157
-0.611871
-0.00426869
0.00602232
0.00532428
0.0418411
-0.0471654
0.0555873
-0.0880595
0.0324722
-0.380109
-0.0737585
-0.00181573
-0.00597425
0.00778999
-0.00193604
0.0014936
0.000442448
-0.0445978
0.0778018
0.0352707
-0.000205284
-0.122666
0.103593
0.261084
0.469884
-0.656967
0.187056
-0.141411
0.00234966
0.139061
-0.00185881
0.00268034
-0.000821532
0.11601
-0.133093
0.0170837
-0.170415
0.254886
-0.10893
0.0337111
-0.144774
-0.0143295
-0.0918332
-0.449937
0.541741
-0.0750214
0.0706708
0.00435061
0.255535
0.27889
-0.534434
0.0597233
0.00470552
-0.208332
0.233003
-0.0727483
0.471385
0.0832875
0.112524
-0.195811
0.0492814
-0.130869
0.105688
-0.111863
0.021473
-0.0980849
-0.00400628
0.131408
-0.127402
0.375767
-0.0906275
-0.285142
0.0827243
-0.0967043
0.01398
-0.0285916
-0.0311889
0.028906
-0.0235817
-0.225834
-0.264568
0.0840953
-0.0259302
-0.058165
-0.480133
0.0112063
0.468927
0.185527
0.190237
-0.473139
0.110687
0.0615815
-0.0437901
-0.0576989
0.517424
-0.459741
-0.106853
0.107378
-0.179668
0.012305
-0.264326
0.397967
0.00348986
0.159112
-0.245413
0.0276038
0.217808
-0.00822395
0.00227699
0.00594695
0.0846417
-0.127794
0.125139
-0.129306
-0.274737
-0.107418
0.382151
0.0675974
-0.349347
0.000787069
-0.00967292
0.00888585
0.00740596
-0.00511367
-0.00229229
0.288187
0.210403
-0.389974
0.620909
-0.23096
-0.0650236
-0.0099978
-0.288958
-0.0674547
0.356409
-0.00122137
-0.00284032
0.102288
-0.377031
-0.00722478
0.000617512
-0.330498
0.254333
0.0761633
0.104046
-0.0113346
-0.0927116
0.215744
-0.143092
-0.0726521
0.0175015
-0.0118518
-0.00564967
0.0617517
-0.210073
-0.0020563
-0.0756096
-0.0519283
0.0109339
0.0409944
0.181693
-0.0984059
-0.0614053
-0.0559265
-0.00779657
0.0715807
-0.0637841
0.0546474
-0.279899
0.225251
-0.00464546
-0.00667289
0.0113183
-0.0521246
0.0207141
-0.000593688
-0.00134236
-0.188461
0.170107
0.0183535
-0.0124329
0.000262396
0.0121705
-0.159567
-0.0574555
0.217022
-0.00157159
0.0040433
-0.00247171
-0.044104
-0.00782429
0.0721785
-0.0939302
0.0217517
0.0944958
-0.0223172
0.0374996
-0.0143272
-0.562812
0.339873
0.222937
0.143842
0.00626601
-0.00580206
0.00863676
-0.179155
0.293478
-0.114323
0.222544
-0.00197058
-0.220574
-0.00306195
0.00252235
-0.0661714
0.0725481
-0.213361
-0.0520221
0.265382
-0.0803441
0.0705407
-0.0370821
-0.0282001
-0.597966
0.32331
0.274639
-0.00964573
0.00155828
-0.107961
0.0333323
0.0746291
-0.264138
0.519665
0.506342
-0.358294
-0.148056
0.113992
-0.594124
0.234936
0.267376
-0.0135886
0.0963129
-0.041862
0.0619768
-0.0201148
-0.0382084
0.022137
0.0160715
0.00846825
-0.00768118
-0.373443
-0.0029587
0.376399
-0.0620118
0.116385
-0.00932048
0.00996993
-0.000649458
0.124301
-0.16489
0.0405887
0.00763269
-0.00509414
0.00323533
0.00702736
0.210184
-0.47678
0.266581
0.0900847
-0.0344974
0.320834
-0.4931
0.172258
-0.0154644
0.0565105
-0.143629
-0.187884
0.0158542
0.00164729
-0.0277224
-0.116195
0.180648
0.087268
-0.267917
0.462877
-0.571093
0.108214
0.139222
-0.131149
-0.0931991
0.099247
0.123592
-0.127763
0.00417041
-0.0132886
-0.0377885
0.0510771
-0.00719514
0.00562355
0.0145972
-0.00393303
0.00586328
0.134159
0.0619335
-0.118152
0.0168267
-0.476826
-0.00618407
0.00298851
-0.0222874
-0.00958243
0.0318698
-0.0298409
0.288134
-0.258295
0.0916206
-0.093677
-0.303358
0.500328
-0.196973
0.0393215
0.0729948
-0.112316
-0.0981799
-0.23232
-0.323194
-0.23962
-0.293468
0.11033
0.183138
-0.0266423
-0.00744436
0.0340867
-0.0768829
-0.216586
-0.0196577
0.0204072
0.00368333
-0.00106848
-0.00261485
0.0796072
-0.0836185
0.00401121
0.0272166
-0.0446591
0.0174425
-0.214454
0.269101
-0.0335334
-0.0248276
0.0381505
0.587725
-0.245162
-0.34257
-0.0691235
-0.295944
0.116788
0.212824
-0.339027
0.126201
-0.0752804
-0.0724555
-0.36338
0.606089
-0.392713
0.460592
-0.0678814
0.387616
-0.0667888
0.0906627
-0.104251
-0.323683
-0.287929
-0.0109541
-0.00147885
-0.0020509
0.0386435
-0.0365926
0.00358722
0.00288127
-0.00646848
-0.0813884
-0.0330385
-0.00612425
-0.0136241
0.0197483
0.0100753
0.00225636
-0.0123317
0.164993
-0.0406922
-0.471874
0.0984269
0.111107
0.0131144
-0.124222
-0.265666
0.0804225
0.206536
-0.194515
-0.0120208
0.22866
0.395385
0.0208979
0.037819
-0.0214786
-0.0522718
0.0502209
-0.189041
0.208061
-0.0190204
0.108403
0.0272625
-0.135665
-0.165698
-0.022763
-0.259072
0.203649
0.00482086
0.118772
0.19437
-0.241743
0.0473722
-0.0786237
0.084397
-0.00577338
-0.174238
0.277438
-0.436028
0.378317
-0.00205409
0.000832725
0.0126295
0.00309799
0.0169479
-0.00431837
0.043908
0.0905986
-0.134507
0.00609658
-0.00250937
0.0108014
-0.0154468
-0.00070242
-0.00472721
0.00542963
0.0028282
-0.00100331
-0.00182489
0.146524
0.362824
-0.509373
-0.130866
0.00150806
0.129358
0.225041
-0.030671
0.34596
-0.263533
-0.0824279
-0.11203
0.0321949
0.0798355
0.00527809
0.480115
-0.53353
0.0533826
0.0119702
-0.137266
0.125296
-0.00486716
-0.148678
0.153545
0.00120604
-0.000983142
-0.000222894
0.342497
0.245222
0.120364
-0.00887916
-0.111485
0.00130577
0.000675863
-0.00198163
0.102474
-0.0177022
-0.0847716
0.000941481
-0.0116545
0.010713
0.24921
-0.250935
0.221092
0.516634
0.109469
-0.149437
-0.0246018
0.505696
-0.295529
-0.0336595
-0.00964994
0.0433095
-0.0321337
-0.00607468
-0.154771
0.150765
0.00289332
-0.0052788
0.00238547
0.0227542
0.189397
0.0974353
0.0139809
0.00186649
-0.00256891
-0.00894513
0.0523384
-0.0115114
0.0911186
-0.00424972
-0.0890462
0.10387
0.0164945
0.122752
-0.147733
0.0249802
0.0850288
0.0330522
-0.118081
-0.170358
0.176864
-0.00650631
0.0912977
-0.107642
0.0163445
0.0237251
-0.137716
-0.0134064
0.151123
0.1041
0.00406015
-0.10816
-0.525609
0.539025
-0.0134467
0.107014
-0.0283371
-0.0786773
0.214829
-0.0154337
-0.199396
-0.429552
0.302601
0.126944
-0.160389
0.0109521
-0.263842
0.184055
0.0797855
-0.000939346
0.00214538
0.0121664
0.021606
0.0896947
-0.378657
-0.511896
0.420033
-0.0367052
-0.00935388
0.0460591
0.0128989
-0.00282352
0.59332
-0.224167
-0.00937942
0.0103209
-0.312202
0.231933
0.0802679
0.126096
-0.0966252
-0.0294704
0.00759986
0.323281
-0.330885
0.00817301
-0.00538054
-0.00279248
0.0625329
-0.0958846
0.0333517
0.0434642
0.180043
0.304522
-0.190115
-0.114408
0.0196443
-0.0257686
-0.116948
0.0842088
-0.0126348
0.0125836
5.11816e-05
0.242735
-0.606117
-0.000244282
-0.00703295
0.00727724
-0.00773229
0.0811897
-0.0137316
-0.0674581
-0.352147
-0.0774106
-0.00398763
0.00722811
0.025385
-0.0132194
-0.0121656
-0.129084
0.16578
-0.0366962
0.124999
0.381335
-0.21698
0.264865
-0.0478853
-0.138535
-0.061256
0.100577
-0.0429299
0.523016
-0.51614
0.157838
0.64654
-0.436395
-0.210161
0.405216
0.241308
0.00554326
-0.007359
-0.0479087
-0.0641216
0.0359097
-0.10281
0.117378
-0.0145681
0.56879
-0.0989287
-0.0480358
-0.404807
-0.0110594
0.119462
-0.0137202
0.00531099
0.0084092
0.150265
-0.16754
0.0172751
-0.11458
0.334788
0.451128
-0.238306
-0.28509
-0.0926464
0.377736
0.0161661
0.00083821
-0.000487656
0.398544
0.162536
-0.561085
-0.2675
-0.140725
0.408225
0.0114611
-0.0223292
-0.148029
0.105327
0.110417
0.0433843
-0.294321
-0.14878
0.261137
-0.112357
0.182917
-0.220063
0.0371448
-0.00469573
0.108796
0.0638309
-0.0716275
0.0258181
0.0995589
0.0115483
-0.148524
0.0605701
0.0879542
0.0204966
0.0843238
0.00731851
0.117821
0.451676
-0.292839
-0.158841
0.00700345
-0.000351654
-0.452804
0.249606
-0.0270624
0.251546
0.00546715
-0.257014
0.0778935
0.0291209
0.0824595
0.020317
-0.102776
-0.0143945
0.396511
-0.382136
-0.00108855
0.103562
0.110217
-0.139938
0.0297209
0.00232501
0.00160541
-0.00393041
-0.0816553
-0.066869
0.00386204
0.093554
-0.0974161
0.14127
-0.146137
0.32072
0.142155
0.0443586
-0.0154526
0.102958
-0.0256758
0.0202309
0.00544493
0.169812
-0.344052
-0.156431
0.186013
-0.0295827
0.111764
0.00561415
-0.00315641
-0.00193773
0.0125872
-0.0125872
0.118095
-0.119082
-0.0656664
0.109574
-0.0368775
-0.20492
0.198456
-0.227159
0.028702
-0.211188
0.254571
-0.0749098
-0.0151882
0.090098
-0.0524623
0.0259938
0.146403
0.00149841
0.0135353
-0.0175458
-0.00812998
-0.00312571
-0.00950907
0.0203258
-0.217935
0.197609
-0.00948662
0.106922
0.0918844
-0.0293514
0.0856087
0.0921941
-0.177803
-0.290829
0.0877322
0.203097
-0.030297
0.00284199
0.027455
0.0574815
-0.0366661
-0.0208154
-0.0522554
0.039855
0.0124005
-0.0391188
-0.0689869
0.108106
-0.534889
0.0457819
-0.00750819
-0.00213753
0.00531178
-0.463172
0.448753
0.185539
-0.182933
-0.00260583
-0.00680984
-0.111887
0.118697
-0.124941
0.0281525
-0.0158315
0.124925
0.0374302
-0.010013
-0.0274172
0.111163
-0.026134
-0.0207976
0.191401
-0.170604
0.0218246
0.022534
0.264451
-0.197549
-0.0669032
0.00264352
0.00018468
0.275517
-0.574271
-0.00907542
0.407616
0.0689538
0.0151414
0.0424471
0.0150345
0.0321276
-0.00723383
-0.0248937
0.0969941
0.167456
0.257053
-0.264136
-0.448104
0.180603
0.00396822
-0.148743
0.00269216
0.114356
-0.0853196
0.220459
-0.0220038
0.0996662
-0.111178
0.134076
-0.261517
0.269113
-0.0520058
-0.0675724
0.114911
-0.000555886
-0.0796139
0.0718845
0.00772946
-0.0468296
0.358501
-0.311676
-0.0829962
-0.0259276
0.108924
-0.073449
0.000117922
0.00356541
0.0329587
0.124556
0.109379
-0.0269199
-0.188739
0.0323075
-0.256876
0.533288
-0.27643
0.290214
0.0859492
-0.37617
-0.091193
0.309721
-0.0884241
-0.0101637
0.0985878
0.154674
-0.0586551
-0.0566107
0.10508
-0.0484689
-0.0381829
0.0248943
-0.139545
-0.0171734
-0.221397
-0.376586
0.0271536
-0.0899149
0.0627613
0.0225419
0.00958565
-0.101814
0.0844085
0.0174055
0.0583248
-0.344491
-0.180209
0.148009
0.0322001
-0.119707
-0.396442
-0.159073
-0.0422047
0.201277
-0.0527331
0.213335
0.00589729
0.0194877
-0.282854
0.613718
-0.0699784
0.187767
-0.00223974
-0.185527
0.0830779
0.0215722
0.148807
-0.0610858
-0.0877215
0.00502296
-0.000174983
-0.00484798
-0.0217041
-0.0903645
0.112069
0.0482114
-0.265193
0.00077612
0.000838054
-0.00161417
0.0102055
0.00238173
0.353367
-0.265063
-0.0883064
0.220736
0.0308089
0.107869
-0.0780323
-0.0298363
0.0851394
-0.124258
0.117521
-0.00151141
-0.346443
-0.243116
0.589554
0.0342971
0.270224
-0.104201
0.0928666
0.24233
-0.0616817
-0.111833
-0.0159295
-0.149285
0.123975
0.386277
-0.0960698
-0.144295
0.149554
-0.00525907
-0.0307684
0.399094
-0.17599
-0.223107
-0.264991
-0.0320196
0.297009
0.669276
-0.39068
-0.278612
0.00488316
0.00252281
-0.408324
0.621582
-0.201355
0.0123134
0.00422218
0.0137544
0.00927555
0.201299
-0.210575
0.052166
-0.00971889
-0.0271519
-0.18633
0.0664322
0.0715432
0.232866
0.12218
-0.004909
-0.117271
-0.0971654
-0.375978
0.139176
-0.00589423
-0.133282
0.323265
-0.581849
0.258561
0.111696
-0.101792
-0.00990364
-0.218763
-0.0934401
-0.0196332
0.0209389
0.0495758
-0.0433325
-0.00624324
-0.00321025
-0.01051
-0.554842
-0.0713632
-0.231222
0.129157
-0.121838
-0.147718
0.163088
-0.0153705
0.00134197
-0.00457885
0.00323688
0.0193504
-0.019147
-0.000203316
-0.134841
-0.0275933
-0.332652
-0.0118854
0.344536
0.107368
-0.0167048
-0.0263778
0.019144
-0.0835868
0.00397288
0.057061
-0.113672
0.141681
0.000709833
-0.142391
-0.0302344
-0.00552335
0.0357578
-0.165082
0.1514
0.0136819
0.160248
-0.174578
0.00127693
0.0938882
-0.0951652
-0.0772494
-0.00375021
-0.148526
0.0136851
-0.00203115
0.0194884
-0.0174573
0.147253
-0.152607
0.00535379
-0.279895
0.0808697
0.199024
0.0981996
-0.105009
0.0706159
0.111077
-0.403817
0.316255
0.0875572
-0.184814
0.0257412
0.0147365
0.146894
-0.169086
-0.0447773
-0.382193
-0.0393434
0.421532
0.178795
0.147754
-0.0147758
-0.132978
-0.0631208
0.241977
-0.178857
-0.138276
0.026443
0.00872991
-0.341384
-0.227724
0.462378
-0.234656
0.14045
-0.548775
0.214842
-0.158358
-0.056485
0.222511
0.221851
-0.444374
0.0266507
0.185718
-0.212369
0.622574
-0.282525
-0.340063
0.00665499
0.00151802
-0.146794
0.145145
0.00164886
0.0390514
-0.0380345
0.236104
-0.513155
0.277032
-0.357775
-0.201351
0.559124
-0.0353179
0.0859961
-0.0506782
0.151942
-0.02919
0.249986
-0.194885
-0.0551007
0.0425299
0.0169373
-0.0594672
0.136746
-0.0403591
-0.0963869
-0.0760241
0.0605597
0.0029521
0.0964258
-0.124743
0.0283177
-0.0889183
0.259945
-0.171028
-0.636846
0.0294211
0.607423
0.594936
-0.189739
-0.255925
0.0105116
0.0157666
-0.0160873
0.000320678
-0.602999
0.245222
-0.0949853
0.0211473
0.073838
-0.127526
0.154176
-0.00153678
-0.0077837
0.109997
-0.136986
0.0269882
0.112327
0.0244187
-0.0119187
0.0949965
-0.438072
0.102243
0.335819
0.281744
0.315271
0.0027281
-0.429608
0.276458
0.153149
-0.299299
0.0810143
0.218284
-0.0494162
-0.0220393
0.0714555
0.250876
-0.0152031
0.0940643
0.451951
-0.546017
-0.00770784
0.177102
-0.169395
-0.0574429
-0.416505
0.473936
0.321249
-0.469979
0.148704
-0.162052
0.013199
-0.00154175
0.00288371
0.16631
-0.17725
0.0109396
0.250556
0.148536
0.460449
0.124968
0.00451871
-0.00767512
0.00607168
0.331083
-0.101429
-0.229656
-0.10883
0.27864
0.0659624
-0.0234325
-0.0849794
0.10305
-0.0180703
-0.0128549
-0.00187608
0.014731
-0.112584
0.116446
-0.0503253
-0.229571
-0.233103
-0.353743
0.500931
-0.179706
0.00863877
-0.146355
-0.0133582
0.0207683
-0.0891802
0.0684119
0.0503006
0.119806
-0.0114017
0.00472876
-0.28582
0.0874105
0.198408
0.0342947
-0.215775
0.18148
0.0116771
-0.0144987
0.00282162
0.146339
-0.449699
0.00246393
0.212365
0.273579
-0.356556
0.0829747
0.333775
0.259337
-0.593125
0.0046537
-0.155253
0.0871873
0.0185003
0.204461
-0.27608
0.0716174
0.0469445
0.00522143
0.00123669
0.0138113
-0.015048
0.0308311
0.225839
-0.308693
-0.118849
0.427533
-0.0910457
-0.0110576
0.102103
-0.0744886
-0.323358
0.566089
-0.0827524
0.102175
-0.0194224
-0.435325
0.126623
-0.15567
-0.278385
0.363739
-0.0853572
0.436804
-0.154347
-0.282462
-0.109165
-0.241134
-0.102325
0.343457
0.0287196
-0.0906558
0.144727
0.041069
-0.185796
0.38761
-0.586297
0.198687
0.371788
-0.501629
0.129825
-0.0154348
-0.267638
0.283072
0.0295467
-0.319222
0.289671
-0.33844
0.0734475
-0.0320306
0.0444261
-0.0123955
0.288221
0.0515288
-0.339753
-0.109798
0.399578
-0.289786
0.0243587
-0.00893962
-0.0154191
-0.0284602
0.0349431
-0.151405
0.130607
-0.160569
0.000902172
-0.120811
0.119909
-0.0511706
-0.165804
0.216974
0.470571
-0.162739
-0.307839
0.125252
-0.0537456
-0.00539035
0.113936
-0.00223989
0.270042
-0.481748
0.211705
-0.301901
0.111784
-0.00411184
0.0234622
-0.0517796
-0.082587
0.134366
-0.00138027
0.00591669
-0.00453642
0.528059
0.167748
0.000780481
-0.00589415
-0.182365
0.154964
0.0274004
-0.276652
0.0643881
0.0155672
-0.0149391
-0.000628108
-0.0186621
0.0101868
0.00847528
0.35233
-0.322788
0.102627
-0.10135
0.488305
0.106616
-0.338056
0.096919
0.426534
-0.190444
-0.000139987
-0.00583427
0.469415
-0.246918
-0.327864
0.279672
-0.0512373
-0.272515
0.0733744
0.19914
0.0332716
0.0928241
-0.0921197
0.045854
0.303272
0.0743297
-0.377607
0.0980258
-0.12365
0.0256247
0.374502
0.163727
-0.538234
0.00708798
0.502719
-0.48111
-0.0216161
0.346542
0.364389
0.215566
-0.579956
0.00594563
0.458452
0.0281667
-0.01268
0.016492
-0.00381208
0.0164341
-0.0553535
0.0389194
0.000580302
-0.180789
-0.0412814
-0.06668
-0.0123076
0.0141635
-0.00185596
-0.280633
0.348228
0.000397977
-0.00790617
-0.0269878
0.00790338
-0.0140221
0.00171454
1.5322e-06
0.0164017
-0.0164032
0.00714818
0.0172106
-0.0164579
0.0187829
-0.0719049
0.0990584
0.178857
0.0860067
0.00465498
-0.153558
-0.0288071
0.00648575
-0.0287731
-0.411033
0.0588792
0.0905854
0.273953
0.276335
0.0547467
0.537032
0.163228
-0.229882
0.0666537
0.120371
-0.146542
0.0261707
-0.0049993
0.00625456
-0.00125526
0.370749
-0.280167
0.425074
-0.184202
-0.240873
-0.00236558
0.0104035
-0.00803797
0.00903974
-0.0779264
0.0688867
-0.26908
0.253646
0.0225031
0.0225288
-0.17567
0.153141
-0.0728382
-0.205197
0.278033
0.0249856
0.0245902
0.0885735
-0.0660703
0.16143
-0.211634
0.0502043
-0.166139
-0.106377
0.0134747
-0.012238
0.0128657
-0.00118866
0.00340746
-0.0152137
-0.362173
0.0837835
-0.0874931
-0.0294551
-0.00972063
0.119938
-0.0074532
-0.00420778
0.011661
-0.0297839
-0.120912
0.122479
-0.00156761
0.255823
0.169124
-0.258044
-0.0762985
-0.209522
-0.504752
-0.113652
0.0660613
0.507898
-0.361397
0.169321
0.0135963
-0.0630307
-0.102052
-0.00454672
0.00229231
0.00225441
-0.131205
0.0352191
0.0959859
-0.095507
-0.23236
0.123688
-0.00335838
0.0047858
-0.00142742
0.166259
0.326886
-0.245437
-0.0814501
-0.00252305
-0.000962102
0.00348516
-0.360049
0.0957187
-0.304398
0.0050981
0.0739408
-0.108468
0.034527
0.00246911
0.000424209
0.48264
0.298925
-0.345759
-0.0260428
0.0357898
-0.00974698
-0.100633
0.0593516
-0.0284888
0.0919253
-0.0634365
-0.136984
0.0374461
0.0995382
-0.0431868
-0.0634024
-0.486078
0.173834
0.312241
-0.102234
0.0998338
0.0023998
0.172894
0.153991
0.0108936
0.356615
-0.367515
-0.0796162
-0.211213
-0.0477082
0.0140487
0.00124193
-0.0140969
-0.368
0.0897342
0.278261
0.497344
-0.12557
-0.0728792
0.346456
0.0228891
0.0666822
-0.181468
-0.00543829
0.186906
-0.231308
-0.1983
-0.302045
0.0886827
-0.00267472
0.363106
-0.0598382
-0.00855646
-0.075737
-0.0141766
0.0899136
-0.0133241
-0.00495381
0.0182779
-0.326164
0.0876796
0.117714
-0.0259308
-0.0917836
0.183366
-0.16304
-0.0062331
0.000852564
-0.00442475
0.00106637
0.01064
-0.00371305
-0.120197
0.121099
-0.00491546
-0.0137466
0.463157
0.00531301
-0.0319553
-0.471207
0.47897
-0.0729897
-0.150341
0.172025
-0.15666
-0.0153651
-0.0764143
-0.045243
0.00853786
0.0466053
0.0289158
-0.0755211
0.0916554
0.0157364
-0.107392
-0.0163092
0.048215
-0.0319058
-0.283707
-0.272033
0.555719
-0.0569884
0.100586
-0.0435974
0.106233
0.330566
-0.0852382
0.155854
0.0318582
-0.0236062
-0.00825195
0.229941
0.116018
0.16949
-0.640698
0.217857
-0.26654
0.0486819
0.100886
-0.254819
0.153931
-0.00300295
-0.00154377
0.465186
-0.102422
-0.362778
0.511557
-0.176244
0.00834111
-0.0211253
0.131573
-0.110448
0.146828
-0.145695
-0.00113293
-0.0262398
-0.000138059
-0.100169
-0.00709486
0.107264
0.0149821
0.000404987
-0.0153871
-0.00239606
-0.1311
0.112809
-0.164589
-0.000168969
-0.000227194
-0.173734
0.00487183
0.0551017
-0.0599736
0.00153792
0.0316581
0.204115
-0.00626388
-0.197852
-0.305651
-0.0584802
0.364127
0.00204112
0.0207022
-0.0227433
-0.0369815
-0.247317
0.265025
-0.145499
0.0380096
0.107489
0.155492
-0.00522705
-0.343825
0.11702
0.226804
-0.0279222
0.19115
-0.143167
0.244052
0.155568
0.288272
0.308743
0.136701
0.00497984
-0.0260309
0.0506898
-0.368109
0.138938
-0.129201
-0.00973664
0.10995
0.207777
-0.317731
0.104346
-0.0975676
-0.00677857
-0.250276
0.573517
0.156635
0.00222672
-0.133093
-0.231058
0.167936
0.319574
-0.08211
-0.237466
-0.295346
-0.0726589
0.0386898
-0.0374578
-0.001232
-0.0912881
-0.0298079
0.121096
-0.0252805
0.0550582
-0.0297777
0.264665
0.195925
-0.323375
0.266546
0.0568273
0.00820857
-0.270845
-0.0857129
0.0195204
0.115845
-0.135365
-0.126738
0.0354495
-0.234422
-0.109405
0.0281757
0.113211
-0.257091
0.367035
-0.0188342
0.0520525
-0.0332183
-0.290387
0.0430694
0.00041304
0.190988
-0.00178304
-0.00127891
-0.0747502
0.100789
-0.0260384
-0.0925949
0.399263
-0.306673
-0.222937
0.191979
0.0309574
0.00199463
-0.0146746
0.353144
-0.342256
0.472386
-0.117398
-0.354995
-0.0113757
0.00392255
-0.0044071
0.00426712
0.0305626
-0.19626
-0.00883418
-0.0863082
0.0951424
0.542611
-0.281837
0.228944
-0.0110666
0.237976
-0.210373
-0.351711
-0.0863714
-0.0921378
0.0231796
0.0689582
0.305556
-0.286655
-0.0189048
0.0234579
0.0657505
-0.0892085
0.195473
0.403514
-0.444251
0.092529
-0.296223
0.194793
0.00533685
-0.105506
0.0130938
0.00250128
-0.0155951
-0.220961
-0.0749844
0.000673802
-0.236119
0.235444
-0.347454
-0.138628
0.197665
-0.184452
0.479649
-0.145886
0.0205108
0.136337
-0.124367
-0.58443
0.261071
0.0176162
0.0443606
0.115861
-0.0944192
0.0374308
0.0150084
-0.00420705
-0.0213603
-0.00893663
0.394015
-0.304286
-0.30134
0.055903
-0.257681
0.337505
-0.0798265
-0.00878604
-0.178178
0.140188
0.00112941
0.0132682
-0.0143976
-0.00485716
-0.0098358
0.014693
0.230401
-0.168649
0.0058154
0.00816816
-0.0151542
-0.142394
0.145303
-0.00290922
-0.0961799
0.0873457
-0.114025
0.0923206
-0.00159384
-0.0122013
0.110239
-0.00589261
0.0349422
0.0553246
-0.0902668
0.0118804
-0.00476296
0.133388
0.00394478
-0.137333
0.171183
-0.000101292
-0.0249536
0.0764142
-0.397272
-0.0137672
0.214327
-0.141701
0.0381151
-0.0332432
-0.1267
0.144296
-0.0175962
0.372116
-0.282425
0.123374
-0.00119442
-0.0993307
0.118851
-0.00377857
0.0025458
-0.00116202
-0.00138378
0.214604
-0.00199201
-0.212612
-0.056714
0.0404048
0.0291906
0.129742
-0.158933
-0.0174875
0.0863342
-0.0688467
-0.0508264
-0.0527536
0.10358
0.12259
-0.0893183
-0.159453
0.181982
-0.366893
0.20503
0.0453655
0.304811
-0.429973
0.125158
-0.0454674
0.206897
-0.499185
-0.0264532
0.184253
-0.368736
0.112617
0.256115
0.00548154
0.109833
-0.115314
-0.0151476
0.106445
0.0116944
0.00548448
-0.0171789
0.0783132
0.0305261
-0.108839
-0.0324399
-0.0596798
-0.0427229
-0.00954887
0.0728706
0.259922
-0.362687
0.102761
0.00716507
0.00757552
-0.0431953
0.0356198
0.323346
-0.390021
0.0666688
0.352672
-0.151758
-0.0105798
0.162337
0.00264418
0.0131224
0.343218
-0.593822
0.250604
0.130047
-0.00767815
-0.122369
0.0743219
-0.00303515
-0.0712868
0.121197
-0.152508
0.0313114
0.37309
-0.268451
-0.104639
-0.286039
0.229601
0.0564373
-0.179101
0.321907
-0.142809
-0.0813286
-0.0641704
-0.146792
0.103031
0.23188
0.00548943
-0.0251226
0.0356214
-0.0249315
-0.0106899
-0.118971
0.124181
-0.099952
0.0171996
-0.0190095
0.152398
0.100415
-0.0904686
-0.00994644
-0.212791
0.222066
-0.204038
0.152868
0.0109273
0.0444573
-0.0553846
-0.0678626
0.0983727
-0.03051
0.00202348
-0.00464272
0.0339481
-0.0479731
-0.588874
-0.414609
0.308874
0.105731
-0.14633
0.309858
0.345613
-0.0699315
-0.275683
0.118004
0.158857
-0.0565787
-0.077023
0.133602
0.370014
-0.0761396
-0.293879
-5.28992e-05
0.0986321
-0.0985793
-0.499662
0.442207
-0.167161
-0.29759
0.128825
-0.0164975
-0.00554064
0.105207
-0.0597031
0.0946453
-0.354319
0.0736846
0.0350968
-0.17491
-0.239703
0.0120406
0.0459471
-0.0579877
0.274598
0.225728
-0.18455
0.136338
0.457642
-0.187603
0.0194989
0.0755238
-0.0950227
-0.00121014
0.0651086
-0.101947
0.277416
-0.0729209
-0.0582841
0.358163
-0.144221
-0.213943
0.14908
0.00340477
-0.00357975
0.233036
0.102408
-0.335447
0.195302
-0.274918
-0.139044
0.117919
0.171127
0.014411
0.00606261
0.282358
0.116578
-0.177523
0.0609452
0.249128
-0.281149
0.11766
-0.499857
0.137276
-0.0169051
-0.0956047
-0.168533
-0.213897
-0.235221
0.449103
-0.163031
-0.0486036
-0.00328157
-0.00403656
-0.201545
-0.0140532
0.215598
-0.0644725
0.0852408
-0.0346392
-0.00127322
-0.00302091
0.0161148
-0.221648
0.020102
-0.444993
0.231081