/*--------------------------------*- C++ -*----------------------------------*\
| =========                 |                                                 |
| \\      /  F ield         | OpenFOAM: The Open Source CFD Toolbox           |
|  \\    /   O peration     | Version:  v2012                                 |
|   \\  /    A nd           | Website:  www.openfoam.com                      |
|    \\/     M anipulation  |                                                 |
\*---------------------------------------------------------------------------*/
FoamFile
{
    version     2.0;
    format      ascii;
    class       volVectorField;
    location    "50";
    object      ddtCorrDdt0(U);
}
// * * * * * * * * * * * * * * * * * * * * * * * * * * * * * * * * * * * * * //

dimensions      [0 1 -2 0 0 0 0];


internalField   nonuniform List<vector> 
13917
(
(0.0733855 0.0182523 5.55428e-18)
(0.0214485 -0.0233463 -2.68171e-18)
(-0.0227934 0.0348149 2.66765e-18)
(0.000142311 0.000198874 7.42894e-19)
(-0.00111564 -0.012923 -3.01321e-19)
(0.0231945 -0.0183545 7.67195e-19)
(0.000646196 -0.000778682 5.88308e-18)
(-0.0518096 -0.17327 1.28038e-19)
(-0.000148909 -0.000407276 -6.07824e-18)
(0.153298 -0.173922 7.84794e-18)
(-0.00998293 -0.143816 1.99477e-18)
(-4.53067e-05 -9.91014e-05 -4.0812e-19)
(-2.8629e-05 4.4143e-06 4.63567e-19)
(-0.0257706 0.0128517 4.43189e-18)
(0.00783877 0.00226777 3.20328e-19)
(0.0751662 0.0124536 -7.85824e-18)
(0.000174435 -6.83522e-05 1.05752e-19)
(-0.0372702 -0.0957849 -1.87223e-18)
(-0.0280622 0.00550424 -1.84799e-18)
(0.131362 0.0671872 4.98313e-18)
(-0.0114578 0.00771736 1.40286e-18)
(-0.000412882 2.01075e-05 1.14667e-21)
(-0.00360036 -0.00474009 1.43987e-18)
(-0.000402021 -0.000104303 1.11382e-19)
(0.000275796 0.000416383 -9.20401e-19)
(-0.0178909 0.0050137 1.28602e-19)
(0.126696 0.0931939 6.77773e-19)
(0.0932533 -0.0623217 -1.07654e-18)
(-0.0416581 -0.0209559 -2.03515e-18)
(-1.83362e-05 0.000626441 1.36612e-23)
(-0.00559895 -0.0451537 3.02572e-17)
(-0.00648237 0.00406041 6.64576e-18)
(5.52569e-05 0.000118946 -8.75656e-19)
(0.0336255 0.0302423 1.12713e-18)
(0.000183513 0.00101833 -1.31339e-19)
(-0.0532866 -0.236111 -3.28862e-19)
(-0.00149434 -0.000262857 7.05578e-19)
(-9.76926e-05 2.78717e-06 -1.32308e-19)
(0.000550264 -0.000836054 -9.83551e-19)
(0.00640432 0.0135067 5.38873e-19)
(0.000496327 -8.88871e-07 -9.69583e-21)
(0.0023327 -0.00360178 -4.22753e-19)
(-1.76519e-05 -0.000294777 -5.78772e-19)
(-0.0175836 0.0124425 -8.09255e-18)
(-0.0185293 0.0109508 -6.43775e-19)
(0.0148371 -0.135846 -6.63118e-18)
(-0.00946362 0.00646701 -1.75029e-18)
(0.113684 0.278139 -1.02416e-19)
(0.13563 0.132247 1.43576e-18)
(0.000295288 0.000889849 -2.69533e-21)
(-4.4417e-05 -0.000102056 1.21801e-18)
(-0.0104118 -0.0580342 3.77258e-18)
(-0.00329698 0.00407808 1.39368e-18)
(-8.94609e-05 0.000269083 1.16592e-20)
(-8.63252e-05 0.000336082 4.07133e-20)
(-0.0152778 -0.0544083 -1.45562e-18)
(0.0592072 0.0265704 -2.80431e-17)
(-0.00323515 -0.0050193 -3.59235e-18)
(0.00236751 -0.00294896 2.35019e-19)
(0.0289963 -0.135157 2.86069e-18)
(-0.375205 -0.138424 4.77743e-18)
(0.00369951 0.0139875 -1.23934e-19)
(0.000203972 5.21661e-06 5.95075e-21)
(0.000227862 0.00036312 4.00527e-19)
(0.038338 0.0606374 -1.43942e-18)
(-0.000723696 0.000508813 -2.18022e-21)
(-0.0462986 -0.0375631 1.88249e-18)
(0.00388708 -0.21276 1.2458e-18)
(-0.0563235 -0.127584 -1.34809e-18)
(0.0207848 0.0101332 -1.5865e-18)
(0.0111253 0.0524845 -3.43686e-18)
(0.0347636 0.0269052 1.0248e-17)
(5.33636e-05 0.000135217 1.40684e-18)
(0.00187753 -0.00268869 3.64801e-20)
(-0.0113146 0.00988459 -1.48653e-18)
(-0.00025762 0.000754963 -3.6383e-19)
(-0.00260888 -0.00313935 -1.33173e-18)
(0.00181802 -0.00224639 9.28263e-21)
(-0.000246635 0.00063557 1.72716e-19)
(8.37507e-05 0.000122307 6.08233e-19)
(0.000185034 -6.41876e-05 -1.16183e-19)
(-0.000357119 -8.53882e-05 -2.37325e-20)
(4.55247e-05 0.000124619 1.34452e-18)
(-0.00122172 0.0577951 5.35967e-19)
(-7.05471e-05 1.21954e-05 1.83269e-19)
(-0.167988 0.0718204 4.06951e-18)
(-0.00625998 0.00348194 -7.69378e-18)
(-8.36182e-05 8.20154e-06 -3.6721e-19)
(0.00458066 0.0134013 -5.81076e-19)
(0.000222061 -4.41941e-05 -1.47828e-19)
(0.000229457 7.96606e-05 -2.94261e-20)
(-4.8221e-05 -0.000323644 3.16796e-18)
(0.121996 0.128056 -7.89731e-19)
(-0.000640733 0.000743121 -3.81963e-21)
(-9.0401e-05 0.000164746 -1.04774e-19)
(-0.0508411 -0.0243102 -8.24418e-19)
(0.104115 0.125633 -2.9868e-20)
(-8.3277e-05 1.41317e-06 1.92898e-20)
(-7.81725e-05 1.1723e-05 -5.93581e-20)
(0.0524093 0.0825691 -3.44852e-18)
(0.000498065 7.94322e-06 -2.97648e-20)
(0.0005592 1.36313e-05 -1.31827e-21)
(0.000230745 -8.93268e-05 3.56326e-19)
(-0.000152265 -5.57782e-05 -2.83849e-20)
(-0.00197337 -0.00328348 3.51234e-19)
(0.0125205 0.0412478 -4.45149e-18)
(0.0556437 0.156511 -1.07546e-18)
(0.00064676 0.0155186 -5.24446e-19)
(0.00280114 -0.00403427 4.84692e-19)
(0.137592 0.103545 3.74663e-20)
(-6.72818e-06 -2.39401e-06 2.00619e-18)
(0.0370725 0.0342995 -8.93322e-18)
(-0.0428018 -0.0105729 -2.31615e-18)
(0.0467868 0.337257 1.56941e-18)
(0.0390814 0.0586655 6.162e-19)
(-0.000671978 0.00101306 3.43992e-20)
(-0.0258314 0.00451479 1.21026e-18)
(0.000732178 -8.73812e-05 4.72358e-20)
(-0.0261522 0.0272526 -4.38163e-18)
(3.27059e-05 1.68272e-05 -3.2339e-18)
(-0.000415997 -0.000108852 -1.77952e-20)
(0.00082119 -0.00216616 3.66386e-19)
(-0.0576158 -0.0457557 -3.5727e-18)
(-0.0238387 -0.017577 5.82521e-19)
(-0.0226481 0.00840462 8.21442e-18)
(0.0196866 0.0571443 5.21616e-18)
(0.000233327 0.000288591 -1.28866e-18)
(-0.0131634 0.0117757 6.32919e-20)
(0.000146863 2.89469e-06 -9.79782e-19)
(-0.0252613 -0.0160941 1.03706e-18)
(-0.00104322 -0.000682763 7.23771e-18)
(0.106011 -0.0326615 3.53406e-18)
(0.0024978 0.0274348 -6.96095e-18)
(-0.000841765 0.000977055 4.38102e-20)
(-0.00884665 0.0066158 2.65032e-18)
(0.135011 0.108511 -1.86384e-18)
(-0.451645 -0.424191 5.15808e-18)
(-0.0507485 0.00493822 4.6201e-19)
(-0.0232881 0.00278037 1.64107e-18)
(-7.17759e-05 4.4845e-06 5.68962e-21)
(-0.051808 -0.108139 4.04008e-18)
(0.00139669 -0.00213097 2.44777e-19)
(0.0144227 0.0409348 2.8978e-18)
(-0.000153396 6.20739e-05 -9.78884e-20)
(3.25717e-05 0.00015217 5.18991e-19)
(0.00661045 -0.00508304 5.42079e-19)
(0.00470301 0.0544528 4.92422e-19)
(-0.0237777 -0.0689051 1.65745e-19)
(0.200161 0.198479 8.54528e-19)
(-9.16903e-05 0.000299532 -2.55942e-20)
(0.00245192 0.0111077 1.26476e-18)
(0.000487629 4.60243e-05 -1.22001e-20)
(3.0757e-05 0.000141104 -2.56305e-19)
(4.71644e-05 -4.48761e-06 2.70323e-18)
(0.126859 0.114834 -7.05566e-18)
(0.000229417 -0.000943754 4.67128e-19)
(-0.000152039 -6.75773e-05 2.60353e-20)
(-0.00766704 0.0228629 2.68461e-18)
(0.000684493 -4.53707e-05 1.51688e-20)
(0.000704308 -7.64212e-05 -2.16749e-20)
(-6.36393e-05 2.08289e-06 2.94217e-19)
(-0.0661076 0.0956925 -1.42156e-20)
(-0.00140524 -0.00339979 -3.80448e-19)
(-0.021257 -0.170601 -5.50849e-18)
(-0.166187 0.15525 -5.48375e-18)
(0.0708378 0.0976057 -3.19401e-18)
(-0.000517858 0.00291864 -1.63955e-18)
(-0.119611 0.265424 3.2743e-18)
(0.000179682 0.000225138 8.46964e-22)
(-0.0276043 0.0035322 4.47546e-19)
(-0.00046532 -0.000309947 2.23944e-19)
(0.0159575 0.0347268 3.94835e-18)
(-0.000159158 -0.000392379 -3.88479e-18)
(-0.429614 -0.252776 -1.03109e-17)
(0.0170838 -0.0256185 -2.06704e-18)
(0.000652266 5.60628e-05 -5.41478e-20)
(0.000155906 0.000200443 -9.58806e-19)
(-0.00750607 -0.0710558 3.66633e-18)
(-0.000938334 -0.00068135 2.81114e-18)
(-0.00170589 -0.00416641 1.01799e-18)
(3.97383e-05 -0.000262766 -1.67221e-18)
(-0.000387553 -0.000293775 -6.72255e-19)
(-4.76128e-05 -8.65231e-05 1.34642e-19)
(-0.0660935 -0.057675 3.16799e-19)
(-0.0289997 0.0278228 4.24059e-18)
(0.111465 -0.0237279 -1.21412e-18)
(-4.52521e-05 -8.21406e-05 -1.10232e-19)
(-0.0638602 -0.066257 -3.49559e-18)
(-3.32697e-05 0.000679236 2.36565e-22)
(-0.17345 0.0460402 3.94902e-18)
(0.020361 -0.0248683 1.2892e-18)
(-0.0171466 0.00911995 4.99471e-18)
(-0.0474111 -0.0395341 2.41246e-18)
(0.0881237 0.0259539 -2.25288e-17)
(-0.00052705 0.000747529 2.39565e-19)
(-0.0166345 0.00916176 1.7417e-18)
(0.0016175 0.000965635 -1.04048e-18)
(0.00573821 0.0302736 1.52627e-18)
(4.32301e-05 0.000960652 1.99759e-19)
(9.86255e-05 -0.000826761 2.85638e-19)
(-0.00662337 0.00485659 5.25109e-19)
(0.028853 0.0105648 -8.8236e-20)
(-0.0491753 0.00427127 9.8147e-19)
(-0.000545789 -0.000610933 1.93999e-19)
(0.147795 0.0737535 1.52251e-19)
(-0.0115467 -0.0171278 6.08913e-20)
(0.00386055 0.0113472 -9.18439e-19)
(0.00111263 -0.0023792 3.23402e-19)
(-0.0131244 -0.0648951 4.24337e-18)
(0.00017456 2.06904e-05 -9.96729e-19)
(-3.64184e-05 0.000181562 2.44209e-19)
(0.00753522 -0.0245038 6.20889e-19)
(0.0121456 -0.0286023 -1.01524e-18)
(0.17047 0.212774 -1.78111e-18)
(-0.00812541 0.00605381 -3.56761e-18)
(-0.0208832 0.00639862 -2.82222e-19)
(0.017688 0.0936391 -4.61764e-19)
(-0.000100581 -3.19444e-06 -8.72706e-20)
(8.80629e-05 -0.000709759 2.86404e-20)
(3.47989e-05 -0.000774466 1.15436e-19)
(-0.0897897 0.293018 -2.90185e-18)
(-0.0546373 -0.0497665 3.4897e-18)
(-0.0757456 -0.0855485 4.13741e-18)
(-3.59644e-05 2.37104e-05 -3.49288e-19)
(0.000133214 -8.27356e-06 -4.2279e-21)
(0.140063 0.117458 -3.2899e-19)
(-0.0110092 0.00733543 2.94186e-18)
(0.000174337 -0.000883296 3.03544e-21)
(0.000129698 -0.000922914 8.78513e-20)
(0.000456946 -1.7794e-05 1.04638e-20)
(2.04566e-05 -0.000758961 -4.18027e-20)
(6.57999e-07 -0.000837671 -8.31768e-20)
(0.0389514 0.0247773 -1.24051e-17)
(0.0915145 0.199565 1.99729e-18)
(-0.000224494 0.000434958 -3.24789e-19)
(0.000501506 0.000438602 7.30919e-22)
(-0.00346355 -0.0272335 -2.53238e-18)
(0.0181085 0.0194784 2.88553e-18)
(0.000507617 -1.88295e-05 1.64669e-20)
(-3.5321e-05 1.87886e-05 -3.5763e-20)
(0.144672 0.0824015 2.2916e-19)
(0.0130358 0.0401057 -4.23171e-18)
(-0.0625022 -0.0520231 -4.31374e-18)
(0.0244381 0.0939904 5.75823e-18)
(0.0276277 -0.0462159 -6.51861e-19)
(-0.000142645 0.00010535 2.15728e-19)
(-0.137768 0.241775 3.09553e-18)
(-0.0063265 -0.0281693 -3.06185e-19)
(-0.0351255 -0.00895164 4.02946e-18)
(-0.0151206 -0.00237858 2.19192e-18)
(-0.000494894 -0.000411383 -6.69249e-19)
(0.114184 0.189695 2.55998e-18)
(3.48377e-05 4.50907e-05 9.98712e-19)
(0.0130708 0.000120465 1.11044e-18)
(0.0149158 -0.0209494 -4.69784e-19)
(-0.00033735 0.000574371 9.25048e-19)
(0.00027743 -1.05104e-06 1.35639e-20)
(0.000270138 0.000323775 -7.88028e-19)
(0.00598751 -0.00396006 5.52769e-19)
(-0.00142126 0.00125971 -1.0458e-20)
(-0.0220526 0.0130385 -1.32783e-18)
(-0.091353 -0.62162 4.14323e-19)
(-0.000251205 -0.0020584 -1.18019e-19)
(0.000133298 -0.000888793 5.09447e-20)
(0.00017489 -0.0011843 -2.91765e-19)
(0.000146775 -0.000815955 -1.02801e-19)
(3.56848e-05 2.95033e-05 3.09896e-18)
(-3.25488e-05 2.40844e-06 -5.06552e-19)
(0.00285136 -0.00485153 -1.24399e-18)
(-0.000236023 -0.00237427 -3.01494e-19)
(-0.0541697 0.00475719 2.6412e-20)
(0.0362839 0.154895 1.31611e-18)
(-2.0523e-05 7.18903e-05 1.2302e-19)
(0.0020146 -0.0040254 5.62073e-19)
(0.0181941 -0.166647 -5.03446e-18)
(0.000786957 -0.000865086 9.79916e-20)
(0.0376725 0.071483 -8.6925e-18)
(-0.0222135 0.0157392 -1.77247e-18)
(0.000675874 -0.000818438 1.08827e-20)
(0.0176778 0.0136402 -8.62457e-18)
(-0.00140023 0.00104704 -7.29744e-20)
(-0.0796207 0.0848613 1.15778e-18)
(0.000562199 4.11021e-05 2.48637e-20)
(0.0044974 0.00250312 1.77314e-18)
(-0.000371692 0.000624915 2.19155e-20)
(-0.000121107 -0.000145109 1.80925e-19)
(-0.0485976 -0.000953033 2.9845e-18)
(-0.000142726 4.91426e-06 1.69373e-19)
(0.0801684 0.104118 3.02163e-18)
(0.00274095 0.00262435 -3.48572e-20)
(-0.0969383 -0.620251 -2.21244e-17)
(0.00677759 -0.00650759 -5.55955e-19)
(0.127292 0.0516349 -4.22455e-19)
(-0.0556516 0.00389253 8.5135e-19)
(0.000573984 -3.96372e-05 8.10575e-20)
(-0.00282964 -0.0104733 5.46779e-18)
(0.00475169 -0.00763852 9.35507e-21)
(-0.00123529 0.00113438 -1.84494e-19)
(0.00122785 -0.0109491 6.36923e-19)
(-0.000101671 0.000596716 -1.65036e-18)
(-0.000887188 0.000843192 8.65959e-20)
(-0.00015712 5.67302e-06 -1.88164e-21)
(0.00747248 -0.0740173 5.24218e-19)
(-0.0311795 -0.0153599 -2.47479e-19)
(0.0120599 0.000427048 -7.13403e-19)
(-9.51741e-05 0.000513299 -2.30529e-19)
(-3.59585e-05 -5.8382e-07 4.43392e-19)
(-0.00311019 0.025454 -3.42212e-18)
(0.0357922 0.00858383 -2.77887e-18)
(0.000136294 0.00024798 1.08432e-19)
(0.00225628 0.00498402 -2.7355e-20)
(-0.00100907 0.00121143 5.87208e-20)
(0.0903214 -0.0946784 6.01834e-19)
(-0.00334248 0.0182324 -1.21333e-17)
(0.0576947 0.122959 -2.75362e-18)
(-0.416059 -0.256578 -1.75688e-18)
(-0.00061259 0.000425678 -3.58868e-22)
(0.093202 -0.0314843 2.89209e-18)
(0.00216188 -0.00300536 -1.86307e-18)
(-0.0129177 0.0578392 -1.89032e-18)
(0.0671883 -0.164004 -1.53814e-18)
(-0.020136 0.0338741 4.96096e-19)
(-2.62977e-05 5.98317e-06 9.89909e-19)
(0.00668506 0.00298299 -8.43481e-19)
(0.127896 0.0847572 -1.56246e-18)
(-0.000436325 -0.000786166 2.81428e-19)
(0.0253175 -0.0280005 2.43225e-18)
(-0.0178461 0.00765077 -1.63505e-18)
(0.000143295 8.3903e-06 1.06965e-20)
(0.0193455 0.0370105 4.05688e-18)
(-7.47484e-05 3.80478e-06 4.71901e-19)
(-0.0010514 0.000573812 4.38253e-18)
(0.00287431 -0.00100819 -1.13217e-19)
(0.164226 0.0643664 -3.66898e-17)
(-0.000122619 1.20029e-05 4.8651e-20)
(0.0100282 -0.000116966 -1.04886e-20)
(-0.0149332 -0.0171294 1.60335e-19)
(-0.000550747 0.000416481 7.51077e-23)
(0.000179109 3.0639e-05 -1.40128e-20)
(-0.0141339 8.58887e-05 -4.60858e-18)
(0.0126698 0.0426581 -4.69572e-18)
(-0.000131265 0.000254523 -1.40388e-19)
(-0.000322826 -0.000864684 -5.66493e-19)
(0.0352473 0.0386818 3.99809e-18)
(0.0143808 0.0420153 -1.62078e-18)
(-0.195052 -0.0574166 -1.86698e-18)
(-0.0557836 -0.0405182 -4.28822e-18)
(0.000616943 -0.000676 4.33915e-21)
(-7.84836e-05 0.000128763 1.40215e-19)
(0.0105837 0.0389711 -4.49656e-18)
(0.0886339 -0.0393001 -2.23012e-18)
(0.000521307 -0.000708052 6.4447e-20)
(0.00432581 -0.0101104 -1.61747e-19)
(-6.61755e-05 0.000177261 -2.97394e-19)
(-0.0215928 0.0383236 5.43402e-18)
(0.0108884 -0.000516702 -6.14888e-19)
(-0.0325066 -0.0324625 -3.70121e-19)
(0.0514406 -0.0239122 4.19721e-19)
(0.0312416 0.0751197 1.93451e-18)
(-0.00160664 0.0003961 -3.5239e-19)
(0.0622952 0.0367366 -8.38507e-18)
(0.00015378 -5.46719e-05 1.04048e-18)
(-0.000150965 0.000274949 4.57344e-20)
(-0.00173199 -0.0157302 -6.42036e-19)
(-0.0484056 0.0156557 1.34218e-18)
(0.000398164 -4.95516e-05 1.84948e-19)
(0.0880644 0.0173965 9.40138e-18)
(-0.00146856 0.000361283 5.36796e-19)
(-0.0073717 0.0236113 1.90984e-19)
(-9.15534e-05 0.00033767 9.16147e-20)
(0.0728267 -0.0357224 2.14973e-18)
(0.00286423 0.00498101 4.2261e-20)
(0.106466 0.0706921 2.72977e-19)
(0.0033128 -0.00134661 -2.86149e-19)
(-0.0770941 -0.072659 -1.84985e-18)
(0.00727383 -0.160998 9.04973e-18)
(-0.0187774 -0.0203505 -2.5474e-18)
(-2.29815e-05 8.40201e-05 3.62104e-19)
(-0.0673585 0.0399618 3.70495e-18)
(0.00373361 -0.000621094 9.68522e-20)
(-0.191842 0.160795 3.97041e-19)
(-0.0533085 -0.0407617 2.09698e-18)
(0.00346325 -0.000755147 3.01614e-19)
(0.114364 0.0909903 -3.57307e-18)
(-0.000761214 0.000876326 1.04316e-18)
(0.00688672 0.0150425 -6.44589e-20)
(-0.000481133 0.00059246 -3.77436e-21)
(0.131304 0.0802808 5.94091e-18)
(0.00551884 0.0157701 5.48256e-20)
(-0.00111262 0.000220071 -1.02341e-19)
(0.155584 0.121789 1.55579e-18)
(0.0174595 0.0673164 -3.81832e-19)
(-0.000295587 -0.000201711 -5.53016e-19)
(-0.199038 0.0667365 -3.58355e-19)
(0.0161744 0.0209107 -3.36177e-18)
(-0.000759046 0.00025169 -1.02033e-19)
(-0.0519371 -0.00383872 -4.21347e-18)
(-5.07412e-05 -7.06136e-05 -5.44232e-19)
(0.0128366 0.0766088 -8.50734e-20)
(-0.0251306 0.0326379 -4.88117e-18)
(-7.12697e-05 8.59557e-06 -1.19477e-19)
(9.92248e-05 -0.000584448 -2.62531e-18)
(4.2278e-06 0.000478963 4.05035e-19)
(-0.000126963 -7.28952e-05 -2.07616e-19)
(-8.72555e-05 4.31587e-06 1.03496e-19)
(0.000119711 -0.000141877 2.09456e-19)
(-0.370466 -0.383232 1.33889e-18)
(0.0728006 0.0851833 -5.54971e-19)
(-0.000123554 0.000315172 -3.35451e-20)
(0.000187329 -0.00012317 -2.98495e-19)
(-0.000312722 -9.55273e-05 -4.45072e-21)
(0.0024221 -0.0121163 -4.76879e-19)
(0.167955 -0.0857242 -7.87139e-19)
(0.00172478 -0.00135635 -5.51858e-20)
(0.000204841 0.000245129 -1.40526e-21)
(-0.0044571 0.0175639 1.4228e-17)
(0.07309 -0.0277746 6.82207e-19)
(-0.000134704 -0.000133682 1.93001e-21)
(-0.000968497 0.000209003 -2.66229e-19)
(-0.239753 -0.276011 -1.00443e-17)
(0.116999 0.214496 1.97603e-19)
(-0.000759037 0.000439081 -1.79237e-21)
(-0.0283855 0.00801955 -2.56474e-18)
(-0.0207119 0.054472 -8.18777e-19)
(-0.000665128 -0.000317733 -2.703e-20)
(0.00148124 -0.00135743 1.27051e-20)
(-0.010111 0.00190647 -1.85264e-18)
(-8.56578e-05 1.12537e-05 -6.96478e-20)
(0.00163942 -0.00146483 -4.01431e-21)
(-0.000246569 0.000498507 -1.6087e-19)
(0.00139003 -0.00139764 -1.62675e-19)
(-0.000616864 -0.000463103 -6.53673e-20)
(-0.0698084 0.263592 -1.50528e-18)
(-3.26064e-05 -9.00756e-05 8.65468e-20)
(0.0105972 0.0122761 6.44285e-20)
(-0.0521663 0.00567111 3.57767e-18)
(-0.00172317 -0.0104759 1.19429e-18)
(-1.69926e-05 0.000165983 -2.0884e-19)
(2.23018e-05 0.000143395 2.88787e-19)
(-0.174344 0.0752419 -1.92345e-18)
(-0.00780664 0.0041668 3.49621e-19)
(-0.0230491 0.0064522 -6.42464e-18)
(0.00242946 -0.00116284 -6.53648e-20)
(-2.51856e-05 -7.4676e-05 4.58926e-20)
(0.0040332 -0.000887696 -7.40211e-20)
(1.34852e-05 -0.000879219 1.44882e-20)
(-0.00126101 -0.000290617 -6.77953e-19)
(-0.00109734 0.000834312 -1.52067e-18)
(-0.183021 -0.279168 1.15013e-19)
(0.00961712 0.00414505 -4.52074e-20)
(0.0107998 0.0406196 4.59438e-18)
(-2.99956e-05 -7.2692e-05 4.59079e-19)
(-0.00145904 -0.00167034 4.32985e-18)
(0.010761 0.000986228 3.11876e-19)
(0.00010398 5.4647e-05 9.67518e-19)
(0.0217103 -0.0457555 5.73493e-19)
(-0.20865 -0.0842959 -4.99116e-19)
(-5.64799e-05 0.000157811 9.72586e-20)
(0.127428 0.20759 -1.19297e-18)
(-4.53113e-06 8.94948e-05 -1.33239e-19)
(-0.000128018 1.66424e-05 1.20771e-20)
(-0.000273264 -0.000169708 3.78256e-19)
(-0.000625925 0.000935585 1.20701e-18)
(-8.10182e-05 0.000178077 4.04377e-21)
(-7.76909e-05 5.2117e-06 -1.20102e-20)
(-0.00273389 0.0254935 4.29798e-18)
(-0.407471 -0.153573 2.61902e-18)
(-9.99985e-05 0.00016648 -2.02425e-20)
(0.139439 0.0475823 -7.78727e-19)
(-0.0070445 0.0174835 5.33322e-19)
(-3.34224e-05 6.88186e-06 -9.54312e-19)
(-0.00322914 -0.0133735 -2.26748e-18)
(0.000912264 0.00495506 2.13429e-17)
(-0.14281 0.125251 -5.90126e-18)
(-7.11954e-05 -0.000681843 7.53633e-19)
(0.0130533 0.0419862 -2.73563e-18)
(0.00617117 0.0354886 2.64303e-19)
(0.00982671 0.0363454 -2.97323e-19)
(-0.000968411 0.00100139 -1.09053e-18)
(-0.000650408 0.000502418 1.78513e-21)
(0.0121168 -0.000196313 3.47397e-19)
(-0.000318902 -0.000361969 5.75919e-19)
(-0.128436 -0.0540848 -1.12209e-18)
(0.000247865 9.27935e-05 -4.21382e-20)
(-8.70127e-05 0.000280872 1.10413e-19)
(-0.000130761 0.00021196 7.45348e-20)
(-3.4399e-05 -0.000466776 -4.69586e-18)
(-0.00574593 0.00970507 6.69624e-19)
(-0.0306948 0.0224739 -7.56368e-18)
(-0.00685268 -0.00290302 -4.77252e-18)
(0.00271635 -0.00831281 4.44153e-19)
(0.00303663 -0.00484602 1.15965e-18)
(-0.0613582 -0.0780185 4.89524e-19)
(0.024108 0.0145274 5.57335e-19)
(-0.000128585 0.000307254 -8.92558e-22)
(0.00890632 0.00686216 -4.48028e-19)
(0.000677479 -0.00429306 6.8497e-18)
(0.00286271 0.00221396 -1.84719e-19)
(-0.260812 0.108916 -9.01347e-19)
(-7.06999e-05 1.28775e-05 5.74905e-19)
(0.0270186 0.0152641 8.52234e-19)
(-0.0106826 -0.07946 4.01805e-18)
(-0.00013238 2.71131e-05 1.55555e-19)
(-0.0255262 0.0153061 1.27739e-18)
(-0.000116925 1.41291e-05 1.16205e-20)
(1.35808e-05 -0.000952517 1.1759e-19)
(0.00121433 -0.0127283 -1.49505e-18)
(0.00230674 -0.00134304 -3.26853e-19)
(-0.000106629 -2.41298e-06 3.11146e-20)
(0.0148903 -0.0700505 -1.9099e-18)
(-0.0237626 0.0155455 5.87304e-19)
(0.169663 0.107496 2.05356e-19)
(-6.55519e-05 -1.24715e-05 -1.36968e-19)
(0.000181219 0.000137725 5.89703e-18)
(-0.000624208 -0.00705609 -4.35248e-20)
(-0.139193 -0.101423 -9.48416e-19)
(0.0055671 -0.199644 2.01931e-17)
(-9.44435e-05 0.000301733 5.00642e-20)
(-8.91315e-05 0.000335202 -1.3883e-19)
(-6.60345e-05 5.07807e-06 1.75191e-20)
(0.0112114 -0.0175913 3.09375e-18)
(0.0714497 0.0280325 -3.70223e-18)
(0.000238562 0.000170781 8.53679e-20)
(0.000470468 -4.70792e-05 -1.39149e-19)
(0.000144094 -0.000641801 -1.80496e-19)
(-0.000123638 -5.19108e-05 -2.35596e-19)
(2.30393e-05 -0.00555038 2.85067e-19)
(0.00281258 -0.000430212 -1.6604e-19)
(0.000197297 4.15769e-05 1.14467e-20)
(-0.00729462 -0.00349783 3.42227e-18)
(-0.000132476 2.77635e-05 -1.8004e-19)
(-0.000322033 0.00013389 5.38112e-19)
(1.28074e-05 0.000418667 1.34882e-19)
(0.0684165 0.0905439 3.77154e-18)
(-0.000109 -0.000304758 -1.3398e-20)
(0.000293075 -9.72927e-05 -7.92348e-18)
(-0.00118667 0.00135257 2.01111e-19)
(-0.00124349 -0.00161469 3.61387e-18)
(-0.00894038 -0.0161612 4.6532e-19)
(-0.0505126 0.0312853 2.24584e-18)
(0.0148433 -0.0233813 2.50005e-19)
(0.0646081 0.0793944 1.64334e-18)
(-0.000190052 0.000282121 -2.86315e-19)
(-0.0470532 -0.0625905 -3.22156e-19)
(0.00909763 0.0330616 -4.43476e-18)
(-0.0342751 0.239733 2.1607e-18)
(-0.0498142 0.00651339 -8.57723e-19)
(5.15592e-05 0.000289279 -3.08952e-19)
(-0.000214933 -0.000308091 1.68133e-19)
(0.0036281 -0.00918471 9.02588e-19)
(-1.95912e-05 -9.19565e-05 4.50852e-19)
(0.0442197 0.0573922 -4.78554e-19)
(0.000898134 -0.00107405 -1.42523e-19)
(0.0404725 -0.236518 -8.61496e-19)
(0.00162813 0.000779514 -2.08928e-18)
(0.026312 0.0455855 3.61013e-18)
(0.0474085 0.0757922 5.19392e-18)
(1.48495e-05 -0.000285745 -1.30574e-19)
(0.341537 0.158097 -4.50023e-18)
(-0.000112747 0.000154629 -1.03893e-19)
(-0.00103494 0.00392031 1.0063e-17)
(-0.000153407 5.67508e-05 2.10368e-20)
(-0.00371156 0.000835411 -1.02003e-19)
(0.0313242 0.0437517 -9e-19)
(0.00203852 -0.00127079 1.5095e-19)
(-0.0056164 0.0314142 5.17224e-18)
(0.000236399 4.4558e-05 1.04383e-20)
(-2.61126e-05 4.91253e-06 1.94088e-18)
(-0.000251468 -0.000275727 -1.42087e-19)
(-0.0288155 0.0213895 9.22867e-18)
(0.00105316 -0.00650045 4.38229e-20)
(-7.1442e-05 -0.000633388 -9.23599e-21)
(-0.0147247 0.0136061 3.4184e-18)
(-0.00168501 -0.0131696 5.22057e-18)
(-0.0588449 0.218155 6.13629e-18)
(-0.0245516 0.0581751 4.94031e-18)
(-0.00717099 0.0249687 -8.43138e-18)
(-0.145043 0.135478 -1.71544e-19)
(-0.000139759 -0.000303758 1.85003e-20)
(-0.00052774 0.00879781 -2.95543e-18)
(0.000532807 7.55456e-05 1.56681e-20)
(-0.438458 -0.328177 -1.12651e-18)
(-0.0575524 -0.0547971 -3.36663e-18)
(-0.00435364 0.000787717 -8.00142e-21)
(0.0040365 0.0054503 1.55911e-19)
(0.000525876 2.25259e-05 -5.71328e-21)
(0.00101261 -0.00406932 -2.8307e-18)
(3.98872e-05 -0.000259079 -1.22431e-18)
(0.00193287 -0.00142811 5.26272e-20)
(-9.6123e-05 -6.27357e-06 -1.84913e-20)
(-2.85844e-05 -2.94285e-06 -2.06234e-19)
(-0.0421551 0.055923 -3.57475e-18)
(-8.45915e-05 -6.53741e-05 1.0361e-19)
(-0.00514394 0.00300419 2.074e-17)
(-8.97337e-05 0.000248138 -1.02375e-19)
(-9.04607e-05 -0.000676517 1.41085e-20)
(0.000736938 -6.06388e-05 5.7371e-20)
(0.00833259 -0.115343 4.61898e-18)
(-0.0833699 0.0338552 2.94574e-18)
(0.306007 0.20239 -6.57216e-18)
(-0.0136299 -0.00283355 -3.75015e-18)
(0.00257182 -0.000563715 5.22006e-19)
(-0.097314 0.00278684 -2.87432e-18)
(0.0138303 0.020744 -5.44244e-18)
(-0.000509548 0.000636602 -9.73355e-21)
(-0.157112 -0.0605427 1.94634e-18)
(-2.98809e-05 -7.03804e-06 -3.62471e-19)
(0.00323805 0.00913255 -4.29616e-19)
(-1.61742e-05 -6.49208e-05 -1.80636e-19)
(-0.0716638 0.0417395 -1.13139e-18)
(-0.000118152 -7.91412e-05 2.93662e-19)
(-0.00150744 -0.0055964 -5.63699e-19)
(3.77572e-05 0.00015019 -5.45296e-19)
(-0.0769329 0.159445 -1.20271e-17)
(0.00177384 -0.00487942 1.56659e-18)
(0.0307832 0.068845 6.17392e-18)
(0.000190528 -0.000213885 1.254e-20)
(0.00276212 -0.00424795 -3.28369e-18)
(0.000497186 0.000468612 6.79387e-20)
(0.000404976 6.78568e-06 1.3163e-20)
(0.0643543 0.0437904 7.43211e-18)
(0.0552254 0.11523 5.01347e-18)
(0.000747904 0.000619283 4.17073e-19)
(-0.0370101 -0.034334 1.55979e-19)
(-3.45656e-05 7.79649e-06 -4.41722e-19)
(-0.00301396 0.000288462 -3.13953e-19)
(0.000398464 2.67249e-05 -6.76456e-21)
(0.0583189 0.048408 -2.14682e-18)
(-8.201e-05 -4.7658e-05 -1.73147e-19)
(0.00665856 -0.00586027 -1.74391e-18)
(0.00101105 -0.00113662 2.55102e-20)
(0.000609071 0.000574543 -1.76471e-19)
(-0.0501796 0.0126825 -1.36996e-18)
(0.000494625 3.62005e-05 -3.0361e-20)
(-0.0352684 -0.0208931 -1.84868e-19)
(-0.000648763 -4.61399e-05 -3.92127e-20)
(-0.000126929 -2.31801e-06 1.95741e-19)
(-0.363994 -0.199966 6.91181e-18)
(-0.00533771 0.00344971 9.57418e-20)
(-8.80334e-05 0.000281524 -3.70713e-20)
(-0.0521354 0.00203939 6.89838e-18)
(-0.00476739 0.0302507 -1.28188e-18)
(0.120973 -0.0116169 1.66569e-19)
(-0.00445657 -0.0849516 5.12542e-18)
(-0.000129556 0.000128288 4.84484e-21)
(0.00955222 0.00298021 2.13761e-18)
(0.0796308 0.0890534 -1.7445e-18)
(0.00835263 0.0277715 -5.59168e-18)
(-0.00844092 0.00169406 7.24211e-19)
(-0.00152367 -6.61301e-05 -2.39009e-20)
(-0.00290847 -0.00617838 1.29066e-19)
(-0.000712317 -4.69431e-05 4.24164e-21)
(4.78319e-05 -3.06555e-05 -2.00305e-19)
(-0.000648223 0.000373407 1.89227e-21)
(-0.0099395 -0.0196995 2.71941e-18)
(0.000743236 0.00125291 -3.9113e-19)
(-0.256235 0.142996 -4.28328e-18)
(0.00126649 -0.00514715 1.22601e-18)
(0.18738 -0.0146242 2.56974e-18)
(-0.0185905 -0.218099 1.65747e-17)
(-0.0316462 -0.00582738 3.50861e-19)
(0.00762606 -0.00194316 1.18634e-18)
(-0.0466499 -0.0326294 -3.83566e-18)
(0.0201333 0.0159656 -3.03402e-18)
(-0.000740593 0.000880725 -7.29132e-20)
(-0.0119549 0.00664765 4.5283e-19)
(-0.000626117 0.000320113 -7.95911e-23)
(-0.000130869 8.19603e-07 2.89097e-20)
(-0.000368379 -0.000159896 -2.44884e-20)
(0.000803325 -5.04139e-05 -1.08809e-19)
(-0.000414936 -0.00815023 1.05252e-18)
(-0.000103084 1.34044e-05 -3.68749e-20)
(0.00122683 0.00896058 9.52704e-19)
(-0.000985759 -0.000155272 -5.12361e-18)
(-0.000195791 -1.12154e-05 -1.0038e-19)
(-0.0165066 0.00635898 -4.23293e-18)
(0.000135767 -0.000273931 1.05757e-20)
(0.045053 0.121851 -5.75598e-22)
(-0.00156849 0.000971198 -3.09258e-21)
(0.000171428 7.99583e-05 1.90756e-19)
(-0.0268291 0.0136488 -1.87421e-18)
(-0.0081095 -0.013153 -3.0059e-18)
(0.015861 0.133594 -3.76236e-18)
(5.79061e-05 0.000172971 -2.6179e-18)
(0.00357835 0.00211082 1.26406e-20)
(0.000186874 0.000338954 2.98046e-20)
(0.000130162 0.000158681 -1.16548e-18)
(0.000629739 -0.00132716 -3.62169e-19)
(-7.34912e-05 -0.000117018 2.59407e-19)
(-0.0385122 0.00630408 6.91104e-19)
(0.00417301 0.00329845 -2.10404e-19)
(0.0204511 -0.174968 -3.73237e-18)
(0.018187 0.145684 2.82427e-18)
(-0.0127355 0.00370928 -1.22789e-19)
(-0.00986415 0.024475 -3.43123e-18)
(0.000195687 0.000153533 -3.82991e-18)
(-0.000167336 -3.103e-05 1.10932e-19)
(0.000597953 0.000483033 6.72043e-20)
(-0.0193039 0.017892 1.37023e-18)
(0.152634 0.139577 -1.31923e-19)
(0.00182892 0.00109173 -8.69955e-19)
(-0.0277419 0.00737754 5.8188e-19)
(0.0622676 0.0611476 -1.66474e-18)
(-0.000118369 3.04017e-06 3.77197e-20)
(0.000166242 0.000209319 -3.57091e-19)
(-0.00118228 -0.000511474 -3.20142e-19)
(0.013151 0.0429749 5.28636e-18)
(0.0481326 0.0908647 6.68224e-19)
(0.00235755 -0.00521036 -1.6991e-18)
(0.000119375 0.00017493 7.10043e-19)
(0.000331132 -9.52454e-05 1.80353e-18)
(0.00413859 0.00915824 2.85048e-18)
(0.00143427 -0.00259342 5.83878e-19)
(-0.0323961 -0.027423 6.19919e-19)
(-0.00110577 -0.000175121 3.12928e-18)
(-6.20775e-05 0.00016365 4.72502e-21)
(5.06471e-05 8.13387e-05 -4.46915e-19)
(-0.000170115 -2.45124e-05 8.89616e-20)
(0.000729304 -0.0012441 1.38778e-19)
(0.00419592 -0.00367781 -1.01354e-18)
(0.0171693 0.0222952 -6.11378e-19)
(-0.0017621 0.001218 -1.17785e-22)
(-0.00498002 -0.00272218 3.46641e-19)
(-0.0337055 0.00664607 1.93387e-18)
(-0.000232747 0.000737118 -1.06974e-22)
(0.0606604 -0.0114966 1.61368e-17)
(-0.00128959 3.50401e-05 1.44691e-19)
(0.0106533 -0.0146593 -8.1949e-19)
(0.00154819 0.000243692 6.78587e-19)
(0.0066547 0.0272235 -6.67173e-18)
(-0.000291818 -0.000140282 3.07761e-20)
(-0.000942331 0.00323801 1.39658e-17)
(-0.0714844 0.0270865 -2.54396e-18)
(-0.000801886 -0.000148638 9.26529e-23)
(-2.34398e-05 -0.000111373 5.99237e-19)
(-0.00148125 0.00134837 4.17288e-19)
(-9.44581e-05 1.19444e-05 6.22849e-20)
(-5.42098e-06 -3.85931e-05 -1.85128e-19)
(3.55621e-05 0.00011657 4.56958e-19)
(-0.0157057 0.0134046 1.69061e-18)
(0.0108896 0.00313938 9.36304e-21)
(0.0153552 -0.109095 -1.19305e-18)
(-0.0358872 -0.0249805 1.02734e-18)
(-0.000157466 8.11997e-05 -1.09092e-19)
(0.015307 0.0254817 1.21466e-17)
(-0.000141631 -0.000412742 3.74039e-18)
(-1.5344e-05 -0.000511221 2.15267e-18)
(-0.0413285 -0.0314108 3.03061e-18)
(-7.1519e-05 0.000187774 -6.83589e-19)
(-0.00137302 0.00383004 -1.09614e-17)
(0.0852727 0.124654 2.18341e-18)
(-0.00010191 -0.000442882 1.3651e-20)
(-0.00833672 -0.0117294 -1.56663e-18)
(0.0292702 -0.0317384 8.36441e-19)
(-0.00113125 -0.000287132 1.36908e-18)
(1.847e-06 -8.47614e-05 5.65409e-20)
(-5.21781e-05 0.000158188 -1.30382e-19)
(4.477e-05 -6.75834e-05 5.71545e-20)
(0.0274142 0.00839761 2.2402e-18)
(3.13388e-05 4.96931e-05 -2.74896e-19)
(-0.00200073 0.000990129 5.43252e-20)
(-0.00117745 0.00045885 -3.12697e-18)
(-8.86682e-05 -0.000153239 3.48738e-19)
(1.86651e-05 0.000166135 -1.72825e-19)
(-0.0146494 -0.050325 4.24924e-18)
(0.0794559 0.11674 1.89938e-18)
(-0.037388 0.0107452 -7.45067e-19)
(0.131974 0.187904 -6.75411e-19)
(-0.0202678 0.0329388 7.89695e-18)
(0.00754067 0.0368383 2.07232e-18)
(4.64613e-05 9.86599e-05 3.44599e-20)
(-0.00313872 -0.0035768 -3.56789e-19)
(-0.0794884 0.0216072 4.72986e-18)
(-0.00449106 0.000453309 -2.14497e-19)
(0.00279002 0.0242138 -6.44604e-19)
(0.000193256 4.59389e-05 8.13085e-20)
(-0.000449237 -0.000148915 4.04918e-20)
(4.28691e-05 0.000160895 -7.48067e-19)
(-0.00239407 0.0011979 -2.41544e-19)
(-0.0499496 0.0406491 4.34098e-19)
(1.55377e-05 -7.96108e-05 -1.16971e-19)
(-0.0013706 0.0070964 -1.28555e-20)
(0.000276233 -2.24665e-05 1.43329e-18)
(-0.0733122 -0.00161817 -6.2431e-18)
(-0.00130521 0.000147619 -1.10012e-19)
(-9.47148e-05 -0.000625004 -4.94878e-19)
(0.0027438 -0.00122806 1.22726e-19)