/*--------------------------------*- C++ -*----------------------------------*\
| =========                 |                                                 |
| \\      /  F ield         | OpenFOAM: The Open Source CFD Toolbox           |
|  \\    /   O peration     | Version:  v2012                                 |
|   \\  /    A nd           | Website:  www.openfoam.com                      |
|    \\/     M anipulation  |                                                 |
\*---------------------------------------------------------------------------*/
FoamFile
{
    version     2.0;
    format      ascii;
    class       volVectorField;
    location    "50";
    object      U;
}
// * * * * * * * * * * * * * * * * * * * * * * * * * * * * * * * * * * * * * //

dimensions      [0 1 -1 0 0 0 0];


internalField   nonuniform List<vector> 
13917
(
(0.617488 0.0228546 -3.94615e-20)
(1.03404 0.0300869 -1.9926e-21)
(1.04262 0.0417539 1.13292e-20)
(1.03055 0.0127146 0)
(1.02971 -0.00295802 -2.73635e-22)
(1.02966 0.0313138 1.55236e-22)
(1.04353 0.0286455 0)
(1.14967 -0.0202127 7.6738e-22)
(1.05442 0.0193077 -1.16913e-20)
(0.00284102 -0.10993 -1.69115e-20)
(1.12981 -0.0119882 -3.78834e-21)
(1.02259 0.00983974 0)
(1.00872 8.93875e-05 0)
(0.818481 -0.381112 -2.1611e-20)
(1.0099 0.0150916 0)
(0.593017 0.0145431 4.14416e-20)
(1.01227 0.000120154 1.73764e-22)
(1.08736 -0.0287505 0)
(1.05771 0.0387687 1.0543e-20)
(0.62557 0.150338 1.69605e-20)
(1.00415 0.012293 -7.79611e-21)
(1.01496 0.00180851 -9.09431e-22)
(1.05539 0.0437669 -1.50233e-20)
(1.01503 0.00166316 0)
(1.02651 0.0188224 8.47228e-22)
(1.00515 0.0042328 -3.08356e-21)
(0.833322 0.228128 0)
(-0.013753 -0.0836346 0)
(1.02505 -0.0218608 -6.49351e-21)
(0.999306 0.0030864 7.23901e-25)
(0.0169355 -0.105413 1.71845e-20)
(1.06104 0.04565 1.23732e-22)
(1.02629 0.0137664 6.66425e-22)
(0.649762 0.030412 9.30971e-21)
(1.01549 -0.00349949 -5.33636e-22)
(1.16668 -0.00493207 2.32305e-22)
(1.01768 0.0139389 0)
(1.00566 2.96235e-05 1.50968e-22)
(1.0446 0.0287623 -7.50523e-21)
(1.00114 0.0411642 1.80055e-21)
(1.00458 0.000102874 0)
(1.029 0.00149718 -9.66491e-22)
(1.04985 0.0149504 6.81494e-21)
(1.05503 0.0442235 -9.01704e-21)
(1.05552 0.0435661 3.89731e-21)
(1.15997 0.085145 0)
(1.00624 0.0140499 -1.67892e-21)
(0.0965272 0.104146 -3.65757e-21)
(0.976872 0.303035 3.04779e-21)
(1.01546 -0.00315048 0)
(1.02225 0.00952383 -1.09035e-21)
(1.09327 0.0617224 9.20466e-21)
(0.47791 0.00520536 0)
(1.01714 0.00751619 -5.57654e-23)
(1.0179 0.008555 2.34034e-22)
(1.09128 0.0571023 0)
(0.0152624 0.0363214 1.84089e-20)
(1.05469 0.0439701 6.4585e-21)
(1.0276 0.00194518 1.329e-21)
(1.16371 0.0993217 0)
(0.425704 -0.303741 -2.54574e-20)
(0.99896 -0.00149091 0)
(1.00216 0.000119745 -1.54278e-23)
(1.02657 0.0182145 -7.4282e-22)
(0.899237 0.0408709 -2.10888e-21)
(0.995931 0.00163084 -6.43515e-24)
(1.03926 -0.0280775 6.57494e-21)
(1.17175 0.0293519 -1.02468e-21)
(1.10883 -0.0403051 4.24051e-21)
(0.555766 0.0110529 -1.84937e-21)
(1.01526 0.0310334 1.13787e-20)
(0.633927 0.0272895 1.18819e-20)
(1.02908 0.00559545 0)
(1.02669 0.000964707 -7.46586e-22)
(1.00162 0.0134128 5.3649e-21)
(1.02215 0.0188712 -6.49195e-22)
(1.01902 -0.00283254 1.16757e-21)
(1.02559 0.00128717 7.12231e-22)
(1.02246 0.0183779 5.68298e-22)
(1.02643 0.0141644 -9.04893e-22)
(1.0152 0.00700968 0)
(1.01231 -0.000126638 -1.27174e-22)
(1.02875 0.00517125 0)
(1.03073 0.0422585 2.02177e-21)
(1.01388 0.00132547 1.04493e-21)
(0.897328 -0.176549 -9.39566e-21)
(1.0612 0.0452094 7.38837e-21)
(1.01348 0.000724853 -1.07978e-22)
(1.00092 0.0381013 -2.85375e-21)
(1.01367 0.000182142 -2.0464e-22)
(1.01573 0.000339339 0)
(1.05096 0.0152419 -2.22313e-20)
(0.948736 0.289652 5.79163e-21)
(1.01664 -0.00452604 -4.77582e-23)
(1.01721 0.00960196 -1.30646e-22)
(1.02799 -0.0301104 0)
(0.781144 0.121027 -5.95359e-21)
(1.00943 -2.65486e-05 0)
(1.01381 0.000801881 0)
(0.890259 0.0945139 6.25207e-21)
(1.00398 0.000235994 -8.56499e-23)
(1.00431 0.000305577 2.44183e-23)
(1.01528 0.00736253 6.84361e-22)
(1.012 -4.2213e-05 -3.08636e-23)
(1.01938 -0.00213439 -1.8787e-21)
(1.03177 0.0793312 0)
(0.550611 0.121905 0)
(0.997056 -0.00607668 0)
(1.03015 0.00267179 0)
(0.816811 0.249104 1.37813e-21)
(1.01761 0.000116363 5.18432e-21)
(0.662722 0.0344584 -9.59198e-21)
(1.01587 -0.0217316 -7.37506e-21)
(0.0114616 0.109208 -4.06996e-21)
(0.916209 0.0388978 4.33752e-21)
(1.02023 0.019039 0)
(1.05817 0.039755 3.2486e-21)
(1.01306 0.000800508 1.27144e-22)
(1.04581 0.039919 2.51802e-21)
(1.02793 0.00248149 5.16465e-21)
(1.0136 -0.000181592 -2.08195e-23)
(1.02458 -0.00100063 -2.69388e-22)
(1.04465 -0.0375942 0)
(1.06799 0.0432705 9.64131e-21)
(0.5072 0.0108754 0)
(1.01319 0.0433787 -3.27434e-21)
(1.02729 0.0175058 3.54528e-21)
(0.99897 0.0117056 0)
(1.01475 -0.000867665 1.51923e-21)
(1.06734 0.042053 -5.91772e-21)
(1.05836 0.0325696 0)
(1.05091 0.189011 7.24873e-21)
(0.779981 0.0652824 2.82871e-21)
(1.01982 0.0185969 -2.77262e-22)
(1.05936 0.0464938 0)
(0.789445 0.238996 -1.93989e-21)
(0.508376 -0.260104 2.81155e-20)
(0.435875 0.016032 0)
(1.00616 -0.00183016 3.18775e-21)
(1.00342 -1.57752e-06 -3.48179e-23)
(0.913437 -0.317889 -6.083e-21)
(1.025 0.000481555 6.04819e-22)
(1.03814 0.0805101 2.34095e-21)
(1.0138 0.00196686 -1.66666e-22)
(1.02708 0.00529753 6.12701e-22)
(1.03465 0.0128476 0)
(1.01983 0.032483 0)
(0.861978 -0.27348 1.54797e-21)
(0.176088 0.13729 0)
(1.01733 0.00793635 1.4998e-22)
(1.0043 0.0340349 0)
(1.00377 0.000319962 -2.19245e-23)
(1.02677 0.0048216 0)
(1.02823 0.00218283 2.9397e-21)
(0.763594 0.136216 0)
(1.01706 0.000684206 0)
(1.01242 -8.59609e-05 5.13742e-23)
(0.734822 0.0658327 0)
(1.00891 0.000368348 1.24101e-22)
(1.01214 0.000546195 -2.25486e-22)
(1.01371 0.00240357 -5.25442e-22)
(0.728684 -0.00275676 3.2331e-21)
(1.0179 0.0122586 -1.0251e-21)
(0.900034 -0.306191 0)
(0.450411 -0.119907 0)
(0.859123 0.114603 8.46232e-22)
(0.321283 0.00500724 0)
(0.174222 -0.162648 6.95606e-21)
(1.00139 0.000928776 1.23091e-23)
(1.00479 -0.00596041 -3.58398e-21)
(1.01533 0.00125714 1.12058e-21)
(0.793574 0.0561032 -5.74236e-21)
(1.05475 0.0184509 0)
(0.639219 -0.228124 1.51708e-20)
(1.05561 0.0767743 -2.82287e-22)
(1.00637 0.000465182 0)
(1.03114 0.0125164 0)
(1.10323 0.0663041 -9.73432e-21)
(1.05812 0.0317188 -7.44418e-21)
(1.01827 0.012054 -1.22843e-21)
(1.0482 0.0156388 -4.94594e-21)
(1.01523 0.00131295 0)
(1.02187 0.00960468 3.54068e-22)
(1.10012 0.020362 5.67377e-21)
(1.04576 0.0382549 -1.57883e-22)
(1.03959 0.198527 -1.71853e-20)
(1.02155 0.009316 0)
(1.10603 0.0224895 -5.20757e-21)
(0.9993 0.00330046 0)
(0.942129 -0.159052 0)
(1.05353 0.0800705 -9.88778e-21)
(1.05648 0.0439 3.87933e-21)
(1.08546 0.0319472 -5.0812e-21)
(0.633351 0.0371508 5.49319e-20)
(1.01633 -0.00424769 1.14032e-22)
(0.519307 0.0120324 0)
(1.02749 0.0277902 0)
(0.825692 0.0679611 -2.7857e-21)
(1.01557 -0.00366374 5.45117e-22)
(1.01669 0.000706334 0)
(1.00963 0.0166822 0)
(0.562159 0.0112483 -7.40558e-21)
(0.427506 0.0132252 1.19382e-21)
(1.01732 0.0120907 -5.14687e-22)
(0.889327 0.256713 -5.82445e-22)
(1.02679 0.00361064 -3.33247e-21)
(1.00423 0.0365828 0)
(1.02534 -0.00053657 -3.13823e-22)
(1.09941 0.0606443 0)
(1.01495 0.00670724 -5.81284e-22)
(1.01356 -0.00101685 -2.41479e-22)
(1.04128 0.00216949 0)
(1.04896 0.00147152 3.24884e-21)
(0.170629 0.107592 -2.57136e-21)
(1.05985 0.0464206 0)
(1.00305 0.00152811 -3.76178e-21)
(0.734653 0.0566706 -2.86929e-21)
(1.01021 0.000336272 0)
(1.01791 0.00156426 0)
(1.01788 0.00176365 0)
(0.126747 -0.132617 0)
(1.09325 0.0275099 0)
(1.11943 0.0170114 -5.69158e-21)
(1.01754 0.00108614 3.0984e-21)
(1.00179 3.63324e-05 2.11791e-23)
(0.771502 0.256384 -2.71703e-22)
(0.512059 0.0105106 -1.0342e-20)
(1.01774 0.00130681 -1.16951e-22)
(1.01775 0.00131636 1.04876e-22)
(1.00437 -3.53265e-05 0)
(1.01807 0.00187619 2.57054e-23)
(1.01806 0.00208444 3.70581e-22)
(0.627094 0.0250826 9.19464e-21)
(0.294591 0.0533207 0)
(1.01468 0.00423321 2.53937e-21)
(1.00123 0.00178497 3.41766e-24)
(1.06648 0.0589864 0)
(0.603195 0.020376 -1.57028e-21)
(1.01121 0.000362088 0)
(1.01735 0.00104264 -2.43137e-21)
(0.86663 0.256874 7.4577e-22)
(1.03699 0.0853743 0)
(1.09549 0.0242894 5.90043e-21)
(0.72935 0.0626724 -1.17125e-21)
(1.07386 0.0943104 7.01601e-21)
(1.01385 0.00209557 9.08223e-22)
(0.249485 -0.143734 -1.07058e-21)
(1.06824 0.0572138 0)
(1.01492 -0.0153336 8.49289e-21)
(1.06007 0.0438527 8.22327e-21)
(1.01742 0.0120328 -4.41371e-22)
(0.283731 0.0800348 3.11099e-21)
(1.02819 0.00328197 -3.07058e-21)
(1.02434 0.0562043 -2.90853e-21)
(1.05141 0.0721444 -3.70723e-21)
(1.01462 0.00375684 2.61905e-21)
(1.00247 2.65312e-05 0)
(1.02726 0.0181225 0)
(1.02273 0.0048042 3.40002e-21)
(1.01765 -0.00716351 -1.32544e-22)
(0.539352 0.0194889 8.8396e-21)
(0.906423 0.139287 0)
(1.02458 -0.00492112 2.86222e-22)
(1.01777 0.00101292 0)
(1.01732 0.00061825 -7.22871e-22)
(1.0178 0.000773573 0)
(1.02842 0.00300443 -2.66944e-21)
(1.01327 0.000182773 1.93795e-21)
(1.0438 0.0449408 -3.76635e-21)
(1.02555 -0.00496983 3.39621e-22)
(0.429187 0.02167 -8.91561e-21)
(0.558331 0.105998 0)
(1.01928 0.00720944 1.35939e-21)
(1.02155 0.0013184 0)
(1.1802 0.118086 -1.38743e-20)
(1.01716 0.00539369 -1.80857e-22)
(0.911114 0.0776476 -6.66978e-21)
(0.556683 0.0247588 8.63894e-21)
(1.01734 0.00513933 0)
(0.57438 0.0140281 -1.28457e-20)
(1.01804 -0.00694195 1.80907e-22)
(0.743375 -0.0116908 -7.71665e-21)
(1.00542 0.00032125 -7.8027e-25)
(1.01028 0.011158 1.89233e-21)
(1.01451 0.00371229 -8.57781e-22)
(1.01371 0.0014401 4.90246e-22)
(1.06224 0.0287457 3.1421e-21)
(1.00862 3.37387e-05 0)
(0.845813 0.126805 0)
(1.02196 0.0322237 0)
(0.867685 0.160272 1.66883e-20)
(1.03712 0.0133794 0)
(0.920914 0.232894 1.07375e-21)
(0.410466 0.0155556 0)
(1.01297 0.000515518 -1.74192e-22)
(1.05537 0.0492499 0)
(1.02577 0.00291878 0)
(1.01882 0.0184879 2.70286e-22)
(1.02827 -0.00098183 -9.58711e-22)
(1.0232 0.0186465 -1.81349e-21)
(1.01717 -0.00535327 -1.92048e-22)
(1.00988 2.83742e-05 0)
(1.10329 0.0794527 8.52729e-21)
(1.03769 -0.0273053 0)
(1.02387 0.0544936 3.41732e-21)
(1.02346 0.0181736 -2.76444e-21)
(1.01707 0.00107339 -4.24174e-21)
(0.765051 0.0676559 0)
(0.54885 0.00969078 -4.7195e-21)
(1.01465 -0.00129496 0)
(0.994699 0.0219005 7.61793e-24)
(1.01923 0.0190261 -1.07386e-22)
(1.09204 0.116835 -5.72743e-21)
(1.05432 0.0550273 1.56395e-21)
(0.612944 0.105871 1.10491e-20)
(0.697089 -0.202292 -1.88766e-20)
(0.996418 0.00140688 -2.13156e-25)
(1.0501 0.172009 0)
(1.0206 0.00162531 -8.7635e-22)
(1.03573 0.0403523 0)
(1.10223 0.109242 5.6787e-21)
(1.04267 0.0433464 6.70077e-21)
(1.01286 0.000200647 0)
(1.00933 0.0136393 1.13231e-21)
(0.856685 0.232258 -8.06827e-22)
(1.01604 0.000754742 7.17372e-23)
(1.03857 0.0320295 0)
(1.05694 0.0434611 3.73882e-21)
(1.0117 4.70448e-05 6.30186e-23)
(0.8051 0.0559166 1.32911e-20)
(1.01384 0.00105113 -5.21708e-22)
(1.06776 0.0365368 0)
(1.01519 0.0134863 1.21211e-22)
(0.628696 0.13967 -1.7571e-20)
(1.01209 -0.000241156 7.7182e-23)
(1.02614 0.0511614 -1.75515e-21)
(1.02579 0.00088615 -1.34496e-21)
(0.996681 0.00143525 -1.21903e-24)
(1.01388 0.000288687 -1.62282e-22)
(1.0595 0.0439873 -2.00354e-20)
(1.0382 0.0700669 1.16958e-21)
(1.01757 0.00970889 7.00485e-23)
(1.01621 0.000722189 0)
(0.682382 0.038272 -1.39157e-21)
(1.03955 0.0746088 0)
(0.86 -0.0892793 3.76067e-21)
(0.841047 -0.371223 2.23184e-20)
(1.01711 0.00480921 1.72039e-22)
(1.01493 0.00525103 0)
(1.03469 0.0901908 0)
(1.05994 0.165136 7.93323e-21)
(1.01731 0.00459729 1.61006e-22)
(1.02827 0.00207139 0)
(1.01942 0.00908091 7.71062e-22)
(0.965774 0.00382123 1.21244e-20)
(1.02638 0.0528401 0)
(1.07848 0.0409808 0)
(1.04356 0.117357 -4.60964e-22)
(0.908035 0.0668898 1.14122e-20)
(1.06463 0.0371141 0)
(0.649996 0.0438576 -1.6412e-20)
(1.01487 -0.000818367 -1.20486e-21)
(1.01782 0.00998409 -1.59644e-22)
(1.0332 -0.00373563 3.27163e-21)
(1.05313 0.0280252 3.90151e-21)
(1.01051 0.000174589 0)
(0.617135 0.0236161 -5.76193e-20)
(1.06508 0.0366385 0)
(0.921967 0.0859558 -1.0456e-21)
(1.01784 0.00872762 -1.23639e-23)
(1.05482 0.144758 -5.03213e-21)
(0.995926 0.0233543 -4.95297e-23)
(0.914963 0.243553 -6.07865e-21)
(1.02519 0.00541205 4.338e-22)
(1.111 0.014655 -5.50001e-21)
(1.1774 0.100672 0)
(1.02836 -0.00287638 1.19323e-21)
(1.01936 0.00750079 0)
(1.04316 0.0151116 3.1228e-21)
(1.01424 0.0166087 -2.8699e-22)
(0.414487 -0.14969 1.26468e-21)
(1.08666 0.0283924 -3.59072e-22)
(1.02418 0.00615964 -1.24419e-21)
(0.940515 0.250627 0)
(1.01436 0.00280512 -3.61001e-21)
(0.980529 0.0521921 0)
(1.01657 -0.003174 0)
(0.616009 0.152781 2.93891e-20)
(0.976327 0.0517865 3.07865e-22)
(1.01865 0.0148721 0)
(0.782059 0.286832 0)
(0.921956 0.0489047 0)
(1.01737 0.0114497 1.45663e-21)
(0.669212 -0.107402 -5.63762e-21)
(1.05569 0.0761111 2.75878e-20)
(1.01956 0.014885 1.66015e-22)
(1.06397 0.0266596 -6.57737e-21)
(1.01528 0.00570989 3.78088e-22)
(0.912181 0.0396813 -7.43261e-21)
(1.04355 0.0406764 -1.06839e-20)
(1.01393 0.000939884 0)
(1.04827 0.0252381 0)
(1.02411 0.0183327 1.18416e-21)
(1.0136 0.00157936 -2.45581e-22)
(1.01208 0.000650606 -2.03707e-22)
(1.01495 -0.000685987 -4.14419e-22)
(0.390667 -0.302029 0)
(0.878339 0.123783 9.17182e-22)
(1.01787 0.00940039 0)
(1.01525 -0.000811999 0)
(1.01482 0.0017402 4.43712e-22)
(1.05128 0.0537559 -4.6318e-21)
(1.14022 0.140001 4.82862e-21)
(1.01629 0.00904847 0)
(1.0014 0.000916144 -4.16655e-24)
(1.0546 0.0538193 -6.89153e-22)
(1.04455 0.143929 0)
(1.01382 0.00153838 0)
(1.01893 0.014769 0)
(0.9219 -0.0893501 2.52176e-20)
(0.636426 0.117012 0)
(0.995829 0.00134129 6.84774e-24)
(1.05644 0.0385163 -5.57109e-21)
(1.03607 0.0416493 0)
(1.01982 0.0019714 -1.63477e-22)
(1.01636 0.00779904 -1.72026e-22)
(1.01095 0.0109048 4.14263e-21)
(1.01201 0.000619119 4.43704e-23)
(1.01671 0.00861235 1.72118e-22)
(1.01461 0.00422264 -1.66012e-21)
(1.01679 0.00741463 0)
(1.01992 0.00208855 7.8232e-23)
(0.217916 -0.0753887 -7.63798e-21)
(1.01537 0.00600089 -8.78466e-22)
(1.00276 0.0479844 -1.5908e-21)
(0.446395 0.025264 1.67854e-20)
(1.05441 0.0497742 0)
(1.01364 -0.000969473 1.41061e-22)
(1.02614 0.00476905 -1.11882e-21)
(0.683343 -0.0868072 0)
(1.0097 0.0146901 -3.23077e-21)
(0.488306 0.00771678 -5.15941e-21)
(1.01576 0.0118836 0)
(1.01818 0.00301933 6.45707e-23)
(1.01534 0.0174124 4.56821e-22)
(1.0183 0.00223589 -2.0594e-22)
(1.01776 0.0135386 0)
(1.01448 0.00189216 -1.93988e-21)
(0.966907 -0.0568447 4.02564e-20)
(1.01596 0.0209495 -2.85755e-22)
(1.0303 0.0838471 0)
(1.01795 0.00305324 1.76554e-21)
(1.05511 0.0367488 0)
(1.02173 0.0237879 -5.83353e-22)
(1.01492 0.00633954 7.23054e-22)
(1.07458 0.0879054 -1.57811e-21)
(0.868063 -0.0969139 0)
(1.01947 0.00884716 1.26684e-21)
(0.618117 0.203327 -3.17631e-21)
(1.01369 -0.000788674 0)
(1.01161 0.000254101 -2.45941e-23)
(1.01477 0.00164373 -4.19234e-22)
(1.01424 0.00328452 1.81509e-21)
(1.01342 -0.00110705 0)
(1.01212 0.000533203 1.53504e-22)
(0.751497 0.0651623 -1.51342e-21)
(0.507592 -0.278954 3.1169e-20)
(1.01335 -0.0011316 0)
(0.934297 0.247088 -1.61136e-21)
(1.05394 0.0516403 3.07873e-21)
(1.01665 0.000368274 -2.39206e-21)
(1.05685 0.0513874 0)
(1.06947 0.050699 2.94149e-21)
(0.581683 -0.0799743 0)
(1.05067 0.0264385 -1.3361e-21)
(1.03399 0.0762136 -4.96389e-21)
(0.957239 0.0843342 -4.99982e-22)
(0.965489 0.0863343 0)
(1.01427 0.00238054 -1.24578e-22)
(0.996229 0.00166632 0)
(1.02386 0.026715 0)
(1.01728 0.0115844 6.7646e-23)
(0.991849 -0.0354643 0)
(1.01564 0.000342516 -7.98947e-23)
(1.0172 0.00732493 -1.19092e-22)
(1.01747 0.00990136 3.77897e-22)
(1.05081 0.0227579 -9.76988e-21)
(1.00372 0.0204101 1.25489e-21)
(1.04894 0.0373738 0)
(1.05842 0.0438047 0)
(1.04013 0.00250366 0)
(1.02271 0.00201407 0)
(1.07 -0.0428988 0)
(0.997335 0.069566 -3.22352e-22)
(1.01767 0.00912108 -3.37498e-23)
(0.808473 -0.387195 6.57831e-21)
(1.04779 0.042168 1.11362e-20)
(1.02326 0.0325057 1.43459e-24)
(0.461581 -0.19227 0)
(1.01394 0.00119605 -6.15703e-22)
(0.995604 0.0734644 3.84678e-22)
(1.11125 0.0647358 1.22698e-20)
(1.01177 5.62516e-05 -9.74089e-23)
(0.628308 0.0586027 2.97236e-22)
(1.01153 0.000277201 0)
(1.01828 0.00247749 0)
(1.0529 0.0533704 0)
(1.01641 0.0113987 -4.66517e-22)
(1.01065 0.000331417 5.31522e-23)
(1.09916 0.0850853 -8.16673e-21)
(0.696029 0.072578 -1.38053e-20)
(0.736653 0.299241 0)
(1.01369 0.00228901 5.12137e-22)
(1.03579 0.0125802 7.67129e-21)
(1.03853 -0.0065712 5.06625e-22)
(1.04721 -0.0234231 -5.49893e-22)
(1.14096 0.178706 0)
(1.01741 0.00843332 0)
(1.01764 0.00817417 0)
(1.01346 0.0020432 -6.31333e-22)
(1.05008 0.066532 3.98903e-21)
(0.94699 0.23248 -1.17993e-20)
(1.01508 -0.00116635 4.67678e-22)
(1.01168 0.000286181 3.91176e-23)
(1.0165 0.000722387 5.7379e-22)
(1.01347 0.00157252 0)
(1.02477 -0.000892751 0)
(1.03378 0.0347105 -2.58889e-21)
(1.01508 0.00032522 6.69742e-23)
(1.05837 0.0441423 6.01195e-21)
(1.01174 5.64471e-05 2.80365e-22)
(1.01477 0.00214206 0)
(1.02437 0.0179338 0)
(0.651978 0.0969704 0)
(1.01578 -0.000898876 -3.34611e-23)
(1.04167 0.0186726 1.77511e-22)
(1.01708 -0.00663329 0)
(1.05463 0.0360594 -1.33407e-20)
(1.06183 0.0502235 7.00542e-21)
(0.974862 -0.0281491 -3.34688e-21)
(1.05435 0.0736466 -4.98369e-21)
(0.890455 0.113487 0)
(1.02299 0.0164448 1.48571e-21)
(1.05893 -0.0311788 0)
(0.855493 0.0679232 5.75078e-21)
(0.255228 -0.0420419 8.41208e-21)
(0.465583 0.0315875 0)
(1.01464 -0.0018165 2.89226e-22)
(1.01479 0.00141739 1.96709e-23)
(1.04234 0.00340238 3.61861e-21)
(1.01944 0.00547242 2.11546e-21)
(0.916061 0.0413988 0)
(1.01742 0.00584058 -1.01773e-23)
(0.897527 0.264581 1.11603e-20)
(1.0285 0.0278015 0)
(0.9329 0.0566803 4.23001e-23)
(0.904249 0.0883309 -1.10897e-20)
(1.04922 0.0158411 1.4509e-20)
(0.240765 0.304692 0)
(1.01347 -0.00125878 0)
(1.06743 0.0467924 1.12987e-20)
(1.01076 -5.61709e-05 6.92467e-25)
(1.02312 -0.0137029 -3.7821e-22)
(0.898479 0.0558116 8.20488e-21)
(1.0161 0.0104047 2.02267e-22)
(1.04288 0.053896 -2.58325e-20)
(1.00211 9.75414e-05 0)
(1.01548 0.000175979 1.25826e-21)
(1.01486 0.00147751 4.22097e-22)
(1.04955 0.0383922 -1.01169e-20)
(1.02573 0.00025338 -6.32211e-24)
(1.01751 0.000314149 1.17325e-22)
(1.05476 0.0457921 0)
(1.05568 0.0520903 0)
(0.785609 -0.187892 0)
(1.04071 0.0309921 0)
(0.78626 0.0715599 -8.49539e-21)
(0.54876 -0.0901168 0)
(1.01573 -0.000933059 0)
(0.53274 0.00798848 0)
(1.00349 0.000477511 -9.81554e-25)
(0.528194 -0.267108 6.67928e-21)
(0.888396 -0.263541 0)
(1.02393 -0.0154174 5.15909e-22)
(0.997084 0.0269876 2.00003e-22)
(1.00402 0.000302678 -2.10516e-23)
(1.04703 0.0417546 -1.5833e-20)
(1.04781 0.0145754 -1.36627e-20)
(1.01663 0.00995137 0)
(1.01045 -2.22976e-05 -1.36276e-24)
(1.01192 0.000288879 0)
(1.03921 0.0306822 0)
(1.01432 0.00283976 -2.32141e-22)
(1.06192 0.044761 1.53901e-20)
(1.01698 0.00697328 1.01508e-22)
(1.0174 0.000468534 -2.25417e-22)
(1.01022 0.000514168 -6.84589e-23)
(1.14087 0.0822471 -8.76028e-21)
(0.875381 -0.0187775 -2.40234e-21)
(0.411877 0.324162 0)
(1.05995 0.044152 -2.58075e-21)
(1.03475 0.0342116 -2.99517e-21)
(1.0644 -0.0018744 -3.0851e-21)
(0.606392 0.021881 3.14161e-21)
(1.01688 -0.0034373 1.35698e-23)
(0.934702 -0.0581163 0)
(1.01147 9.87904e-05 0)
(1.06614 0.0576448 -2.28978e-20)
(1.01921 0.00556699 -1.07678e-21)
(1.04438 0.0180698 1.82589e-21)
(1.01335 0.00146017 0)
(1.02492 -0.00254263 0)
(1.02767 0.00542043 0)
(0.792135 -0.221988 0)
(1.04577 0.0439861 2.5534e-21)
(0.846533 0.0447526 1.03816e-20)
(1.01556 0.000243974 0)
(1.04329 0.0434697 0)
(1.01552 -0.00206952 0)
(1.00304 0.000116881 0)
(0.659665 0.0517762 0)
(0.841653 0.0820216 -8.47906e-21)
(1.0156 -0.00219082 -1.07324e-21)
(1.08048 0.0383013 5.08577e-21)
(1.01724 0.00114868 3.16425e-21)
(1.02549 -0.0123526 6.07906e-22)
(1.00302 0.000184581 -2.56738e-23)
(0.671779 0.0537989 -2.46399e-22)
(1.01443 0.00283141 0)
(1.02471 0.00494694 -3.6841e-21)
(1.01718 0.0061307 3.71371e-24)
(1.01554 -0.00225186 -5.44321e-22)
(1.05448 0.0276678 8.125e-21)
(1.00373 0.000283765 0)
(1.07197 0.0376437 2.74307e-21)
(1.01124 -0.000261824 1.4851e-22)
(1.01198 -0.000133439 -2.53971e-22)
(0.413929 -0.317317 0)
(1.06181 0.0451545 0)
(1.01725 0.00804012 5.00444e-24)
(0.369485 0.00748208 -6.99231e-22)
(1.04351 0.054663 1.34561e-20)
(1.05741 0.125434 0)
(1.1156 0.0704276 -7.76032e-21)
(1.01342 -0.00126984 0)
(1.00872 0.0167098 -5.26921e-21)
(0.642075 0.105283 3.40152e-20)
(1.04761 0.0676359 0)
(1.01182 0.0123834 0)
(1.0178 0.0143423 0)
(1.02578 -0.00338389 2.48312e-21)
(1.01218 -0.000343421 -8.52164e-23)
(1.01466 -0.000332183 0)
(0.996301 0.00118434 1.67043e-24)
(1.06436 0.0514235 7.98848e-21)
(1.02438 0.0241641 0)
(0.368725 -0.217966 2.37433e-21)
(1.04698 0.0442548 -1.07462e-21)
(1.11098 0.19914 0)
(1.1251 0.155896 2.29625e-21)
(1.02787 -0.0295779 2.99923e-21)
(1.03163 0.0480897 2.19043e-21)
(1.08104 0.0319144 6.56352e-21)
(0.58789 0.0166162 3.17009e-20)
(1.01678 -0.00500782 4.91884e-22)
(1.01411 -0.0132789 0)
(0.996413 0.000982575 0)
(1.01194 -7.92393e-05 0)
(1.0153 -0.000251295 2.84063e-23)
(1.00979 0.000514149 6.97269e-23)
(1.04123 -0.0064496 -5.38163e-22)
(1.01102 0.000398003 -3.0494e-22)
(0.540056 0.00837744 0)
(1.06369 0.0322465 -1.50216e-20)
(1.01224 -0.000168815 -2.60003e-22)
(1.05765 0.0437966 1.22297e-20)
(1.01588 0.000198726 0)
(0.62795 0.0978205 -7.21469e-21)
(1.01869 -0.00736714 0)
(1.01481 -0.000986788 -6.33254e-22)
(0.656886 0.0676561 7.11886e-21)
(1.06006 0.0490785 -8.52252e-21)
(0.842788 0.057562 -4.27261e-21)
(1.02898 0.00731655 3.61956e-21)
(1.00503 0.0198128 0)
(1.01495 -0.00172299 -7.24712e-22)
(1.03332 0.0102783 -2.70666e-23)
(1.04527 0.0321681 4.08609e-22)
(1.01376 0.0011342 0)
(0.467125 0.0131326 -9.79497e-21)
(1.02044 0.0362226 0)
(0.975602 0.191987 0)
(0.827253 0.0188902 3.88455e-21)
(1.01646 -0.0142073 0)
(0.788088 0.0730291 3.54937e-21)
(1.03539 0.0129808 -7.87086e-21)
(1.01094 -3.95329e-05 1.55699e-23)
(1.0156 -0.00204133 4.99518e-22)
(0.572398 0.0274509 -8.55706e-21)
(0.769104 0.305576 0)
(1.02704 0.028676 -1.11023e-21)
(0.493005 0.0102225 1.35194e-20)
(0.864484 0.307889 1.02932e-20)
(1.01215 -0.000234482 1.60624e-22)
(1.01475 -0.00120627 -2.00033e-22)
(1.01756 0.013139 6.02612e-22)
(1.03574 0.0722552 0)
(0.83291 0.0585664 -1.41146e-21)
(1.04511 0.045242 -2.25152e-21)
(1.03269 0.0100728 1.41566e-21)
(1.04119 0.0191392 1.78251e-22)
(1.06671 0.05875 3.5244e-20)
(1.01984 0.00110678 8.4797e-22)
(1.07546 0.0402465 1.26116e-21)
(1.06306 0.0328994 0)
(1.01706 0.00912586 -2.44579e-22)
(1.02611 0.0143438 0)
(1.01066 -4.88217e-05 -2.2556e-22)
(1.04447 0.0318221 -2.06176e-21)
(1.022 0.0032503 8.80408e-22)
(1.05535 0.0776548 -2.34195e-20)
(1.01781 0.01804 -2.33234e-22)
(1.03618 -0.0177815 -8.40055e-22)
(0.47658 0.0118943 -4.69276e-21)
(0.997363 0.00319069 -9.95289e-25)
(0.890357 0.310319 0)
(1.01807 0.0143863 -8.06956e-23)
(1.02598 0.0204672 0)
(1.03224 0.0278526 0)
(1.04741 0.0664531 0)
(1.014 -0.000115726 9.79261e-23)
(1.06849 0.0454293 0)
(0.907112 -0.0180499 0)
(0.995975 -0.00148231 3.85678e-24)
(1.0201 0.00552703 -1.08571e-21)
(1.01814 0.0186665 -4.2159e-22)
(1.00933 0.000166256 6.34593e-23)
(1.01799 0.00419305 1.81812e-21)
(1.02767 0.00453283 -5.11305e-21)
(1.00061 -0.0157458 -5.2205e-21)
(1.0175 0.024197 0)
(1.13391 0.0858954 0)
(1.07439 0.0376087 -1.31558e-21)
(1.0135 -0.00136798 0)
(1.05115 0.0777639 -1.03268e-20)
(1.05355 0.0194939 1.85615e-20)
(1.05046 0.0233129 1.1917e-20)
(1.0791 0.0350144 -1.26091e-21)
(1.01485 0.00530348 0)
(1.06653 0.046663 0)
(0.810038 0.131224 5.23746e-22)
(1.01635 -0.000153638 -1.59378e-22)
(1.05979 0.0481983 1.2202e-20)
(1.05782 0.0923742 0)
(1.06202 0.0327791 -1.14739e-20)
(1.01396 -0.000440962 0)
(1.01339 -0.000922787 4.97136e-22)
(1.01467 -0.000403688 0)
(0.5453 0.00986988 8.70875e-21)
(1.02567 0.0133933 1.13203e-21)
(1.01979 -0.00866177 1.31097e-22)
(1.06668 0.0362529 -3.15245e-21)
(1.01388 0.00121749 2.49378e-22)
(1.01392 -0.000997596 -1.55698e-22)
(1.08784 0.0574304 0)
(0.824036 0.11672 0)
(1.00484 -0.038604 -3.82663e-21)
(0.639341 0.152511 0)
(0.973242 0.00510951 -1.62594e-22)
(1.033 0.0944101 3.09221e-21)
(1.02808 0.00425028 0)
(1.01969 -0.0035672 -3.0755e-21)
(1.04733 0.0118964 0)
(1.0258 -0.0159029 6.97041e-23)
(0.986291 -0.00222439 -1.18481e-21)
(1.01343 0.000281601 8.60814e-23)
(1.01494 -0.000418264 -1.147e-22)
(1.02769 0.00779859 0)
(1.01685 0.0173407 1.10192e-21)
(0.965088 -0.0280919 0)
(1.01396 -0.000481631 -2.7342e-22)
(0.982688 0.018521 -5.61902e-24)
(1.01627 0.000359777 0)
(0.887362 -0.263486 0)
(1.01826 0.0147695 8.78904e-23)
(1.05118 0.0257378 0)
(1.01601 0.0129521 0)
(1.06033 0.043556 -1.35053e-20)
(1.01052 0.0124988 0)
(0.755997 -0.0543888 8.06182e-21)
(0.997156 -0.0420951 0)
(1.0117 0.000270397 -1.33011e-22)
(0.625879 0.109066 -2.84817e-20)
(1.02551 0.014836 1.64317e-21)
(0.536924 0.0171969 0)
(1.04784 0.0130418 -6.45287e-21)
(0.966522 -0.0751021 -2.55165e-21)
(1.01911 0.000339917 0)
(1.01477 -0.0022263 0)
(1.01992 0.00520467 -2.70723e-23)
(0.812411 0.0478383 0)
(1.04281 0.0321768 -6.47938e-21)
(1.08081 0.138377 -8.71836e-22)
(0.618806 0.0809597 -4.91025e-22)
(1.01781 0.00405816 0)
(1.06164 0.0334399 6.14038e-21)
(1.00116 0.00156108 0)
(1.00562 -0.0096585 -1.57985e-21)
(0.890502 0.189264 4.25328e-21)
(1.00112 0.00191275 0)
(0.279291 -0.104573 3.6239e-21)
(1.0432 0.0184475 0)
(0.951577 -0.0728188 3.37171e-22)
(1.05924 0.0398988 0)
(1.00241 0.0994722 4.20556e-22)
(1.01845 -0.000741226 -2.27075e-22)
(1.01429 -0.00064867 1.6437e-23)
(1.04718 0.124904 4.64975e-22)
(1.01355 -0.00138152 0)
(1.01669 0.00693991 -5.15556e-23)
(1.02022 0.0149104 3.6944e-22)
(1.01479 0.00125008 -1.57347e-21)
(1.06602 0.036775 0)
(1.01837 -0.000614349 6.72937e-23)
(0.903204 -0.105455 1.58293e-20)
(1.01677 0.00885186 1.18856e-21)
(0.595964 0.0176187 1.07022e-20)
(0.524512 0.0168104 -9.17033e-21)
(1.12192 0.0392357 4.90792e-21)
(1.02682 0.0882196 -2.8599e-21)
(0.641958 0.220795 0)
(0.585157 0.0159924 6.00746e-21)
(1.06501 0.139694 0)
(1.01233 -0.000534858 3.05032e-22)
(1.02698 -0.0116931 1.83961e-22)
(1.0229 0.00656062 0)
(1.02272 0.014375 -2.33913e-21)
(1.0135 0.00214174 -7.6201e-22)
(1.0438 0.032553 8.98892e-21)
(1.01446 0.00338097 9.4436e-23)
(1.16246 0.116491 -8.86847e-21)
(1.01687 0.00728614 0)
(1.03118 0.040854 6.27664e-21)
(1.02566 0.0127487 -3.6169e-21)
(1.06231 0.0277484 -9.47006e-21)
(1.02254 0.118766 1.71267e-21)
(1.01497 -0.00226845 0)
(0.998297 0.0432355 0)
(1.02507 0.0149102 -3.88057e-22)
(1.01933 -0.0131842 4.36968e-23)
(1.03718 0.0281548 -5.57162e-21)
(1.01302 0.0170486 0)
(0.787827 0.0802948 1.66572e-21)
(1.06626 0.0510305 4.40747e-21)
(0.984868 0.0131591 -3.17591e-23)
(1.01472 -0.00146943 0)
(1.02153 0.000742316 7.28923e-21)
(1.01573 0.000975117 1.32694e-21)
(1.01645 0.000474789 1.04588e-23)
(0.484858 -0.162253 0)
(1.01229 -0.000447401 1.40499e-22)
(0.859234 0.0935731 -3.58445e-21)
(1.01324 0.00144979 0)
(0.942642 0.0929524 0)
(1.00848 0.0077004 -1.80933e-21)
(1.01391 0.0025561 -2.13442e-22)
(1.06844 0.0461123 0)
(0.998368 0.00207027 -5.95727e-22)
(1.01234 -0.0004434 0)
(0.827788 -0.0327848 -3.85056e-21)
(0.95003 -0.0451688 0)
(1.01691 0.011637 0)
(1.05967 0.0437142 2.11664e-20)
(1.01397 -0.0016717 -4.70016e-22)
(0.876215 0.0835094 -3.6163e-21)
(1.00932 0.0203261 -1.13558e-22)
(1.0164 0.000608865 1.11566e-23)
(0.639545 0.0398075 -5.23971e-24)
(1.01337 -0.000614128 0)
(1.03076 0.0133993 -1.28518e-21)
(1.05807 0.043564 0)
(0.627894 0.0305928 0)
(1.00844 0.0219582 4.00866e-22)
(1.00656 0.181029 0)
(1.05106 0.00895132 8.6693e-21)
(1.02772 0.00451164 -9.83351e-22)
(1.01617 -0.000388128 0)
(1.01488 0.0012932 1.21149e-21)
(1.03494 0.0401976 2.15342e-21)
(1.02079 0.00108367 -4.74032e-21)
(1.05377 0.0456392 0)
(1.02317 0.00855772 0)
(0.637878 0.0617441 6.45771e-21)
(1.00904 0.0103644 -6.21366e-21)
(1.067 0.226589 3.06178e-20)
(1.01518 -0.000740058 -5.58173e-22)
(1.00827 0.0105633 0)
(0.971614 0.0562884 -2.70581e-22)
(1.01068 0.000280998 -3.30605e-23)
(0.997602 0.00306478 0)
(0.901207 0.0698716 5.62329e-21)
(1.01844 0.0127578 -1.25979e-22)
(1.01217 0.000467118 5.75189e-23)
(1.07664 0.12515 0)
(1.02669 0.00571177 0)
(1.0283 -0.0115723 4.78768e-22)
(1.06355 0.0500384 -8.59218e-21)
(1.01938 0.0143872 4.50459e-23)
(0.897467 0.0431492 -4.64124e-21)
(1.00493 0.0456584 8.49516e-22)
(1.06765 0.0501969 0)
(1.11162 0.0796914 6.84678e-21)
(1.04026 0.0189579 5.69174e-21)
(0.661558 0.0562747 0)
(1.01682 0.00944769 4.72654e-22)
(1.06132 0.0490752 0)
(1.01921 0.00299101 0)
(0.489705 0.0247489 -1.76769e-20)
(0.950292 0.0960352 7.16025e-22)
(1.03055 0.00725393 0)
(1.01079 0.0203525 -1.24011e-22)
(1.02002 -0.0112207 -2.29877e-23)
(1.01763 0.00869103 0)
(1.01137 0.0187781 0)
(1.02086 0.00168809 0)
(1.02408 -0.00680797 0)
(1.01997 0.00475985 1.06628e-21)
(1.03167 0.0357034 3.29842e-21)
(1.01623 -2.52889e-05 1.78069e-22)
(1.01859 0.0125809 -7.06469e-23)
(1.0595 0.045092 -2.27807e-20)
(0.413657 -0.0705386 0)
(0.72251 -0.0494226 -8.94268e-21)
(1.0586 0.0438578 7.33259e-21)
(1.01555 0.00106869 -1.50902e-21)
(0.972413 0.0622568 4.23863e-22)
(1.01412 0.00294315 0)
(1.04543 0.0158254 0)
(0.922948 0.228923 7.96107e-21)
(0.247419 0.00457186 0)
(1.01824 0.00364635 0)
(1.01237 -0.00053721 -4.1979e-22)
(1.01518 0.00079898 0)
(1.01542 0.0054454 4.78215e-22)
(1.01808 0.00370561 1.1544e-22)
(1.01658 0.016712 -1.60722e-22)
(1.01548 0.00355426 6.74006e-22)
(1.03195 0.0498453 -2.2936e-21)
(1.01218 0.000551596 -5.71101e-23)
(0.520917 0.247763 0)
(1.07911 0.149581 4.54316e-21)
(1.01275 0.000247156 -1.11127e-22)
(0.840043 0.0504518 0)
(1.01953 0.00307143 -2.29274e-21)
(1.01491 -0.000614189 -3.90351e-23)
(1.00006 -0.00911903 0)
(0.679475 0.0597535 1.47397e-20)
(0.988459 0.0745485 0)
(1.00904 0.000614066 0)
(0.844302 0.0990582 6.61253e-21)
(1.01545 -0.00306611 -2.51403e-22)
(1.01511 -0.000855855 4.99607e-22)
(1.04502 0.0771539 1.1145e-20)
(1.02691 -0.0125567 0)
(0.705862 0.110918 -4.1094e-21)
(1.03143 0.0138551 0)
(0.930608 -0.089299 4.14311e-21)
(1.01356 -0.00082915 0)
(1.02519 -0.00333666 -3.14051e-22)
(1.00885 0.0177245 -2.34411e-21)
(1.01491 0.0788131 0)
(1.02332 0.0160828 -1.84703e-21)
(0.623248 0.0258042 -2.4777e-21)
(1.00627 0.0144509 5.25106e-22)
(1.00893 0.000210405 3.78357e-23)
(1.01648 -0.000943371 0)
(1.02188 0.00119128 -2.16421e-21)
(1.01331 -0.000966897 0)