/*--------------------------------*- C++ -*----------------------------------*\
| =========                 |                                                 |
| \\      /  F ield         | OpenFOAM: The Open Source CFD Toolbox           |
|  \\    /   O peration     | Version:  v2012                                 |
|   \\  /    A nd           | Website:  www.openfoam.com                      |
|    \\/     M anipulation  |                                                 |
\*---------------------------------------------------------------------------*/
FoamFile
{
    version     2.0;
    format      ascii;
    class       surfaceVectorField;
    location    "650";
    object      ddtCorrDdt0(Uf);
}
// * * * * * * * * * * * * * * * * * * * * * * * * * * * * * * * * * * * * * //

dimensions      [0 1 -2 0 0 0 0];


internalField   nonuniform List<vector> 
20673
(
(-0.000367575 -6.53052e-05 -4.87506e-19)
(-0.000373114 -5.0095e-05 -8.56702e-18)
(-0.000357997 -5.35349e-05 -2.17068e-19)
(-0.000113628 -0.000121096 4.08867e-19)
(-0.000112014 -0.00012598 -8.00373e-20)
(-0.00011489 -0.00012551 1.04066e-20)
(0.00685203 -0.00215036 9.28866e-18)
(0.00700075 -0.00227747 -3.36158e-17)
(0.00700493 -0.00201017 -3.51522e-18)
(-0.000122528 0.000189432 -3.73868e-18)
(-0.000129803 0.000175499 3.83101e-19)
(-0.000120683 0.000180512 3.76396e-18)
(-2.19371e-06 -0.000112865 4.90803e-19)
(-8.33626e-07 -0.000110162 -7.51141e-18)
(1.37581e-06 -0.000127702 1.94377e-18)
(2.14699e-05 -0.000122265 -3.41745e-17)
(1.5985e-05 -0.000114941 -1.58545e-18)
(2.88041e-05 -0.000113389 -7.2022e-18)
(0.00690802 -0.000555105 -3.08364e-18)
(0.00691377 -0.000804882 9.44382e-18)
(0.00659194 -0.000621728 1.0478e-17)
(0.00756858 -0.00306751 1.98035e-18)
(0.00714456 -0.00306502 -9.26245e-18)
(0.00738052 -0.00326326 -6.25352e-18)
(0.00226011 -0.00159224 -8.75668e-18)
(0.00170517 -0.00134853 -1.2794e-19)
(0.00134064 -0.00139168 4.95198e-18)
(-0.000576083 -6.75775e-05 -4.67211e-18)
(-0.00060277 -5.33468e-05 -7.36558e-18)
(-0.000603366 -8.87425e-05 -1.99385e-18)
(-0.00349961 1.50978e-05 -3.02659e-18)
(-0.00349296 0.000266872 -4.36196e-18)
(-0.00375617 4.4059e-05 -2.02584e-17)
(-0.000689872 0.000873691 3.03864e-18)
(-0.00072743 0.000948633 7.57077e-18)
(-0.000759646 0.000847685 1.17819e-18)
(-0.000130424 0.000194574 -6.70491e-18)
(0.00545803 -5.35169e-05 3.20671e-18)
(0.00575952 -0.00027199 1.22437e-19)
(0.00509765 8.35925e-05 4.91581e-18)
(-0.000117235 -0.000255515 -6.32292e-19)
(-0.000112334 -0.000260146 -6.42843e-18)
(-0.000112453 -0.000256827 -6.54111e-18)
(-0.000140214 -0.000220703 1.09673e-18)
(-0.000134887 -0.000223821 7.44737e-19)
(-0.000138077 -0.000216469 5.96144e-19)
(-0.000111953 -0.000153328 -1.39824e-20)
(-0.000114312 -0.000147514 1.22018e-19)
(-0.000109355 -0.000150296 2.68832e-20)
(-8.96233e-05 -0.000148392 6.77742e-19)
(-8.0909e-05 -0.000125424 2.21883e-17)
(-5.96152e-05 -0.000154263 1.65998e-17)
(-0.000597722 0.000914339 -1.0355e-17)
(-0.00063032 0.00079561 -1.49248e-17)
(1.52206e-06 -3.90189e-05 -8.03951e-19)
(2.06809e-06 -3.66194e-05 -4.81644e-20)
(3.57202e-06 -3.16186e-05 -3.19453e-19)
(1.0334e-06 2.86082e-05 1.41453e-19)
(1.5404e-06 3.50562e-05 3.27139e-18)
(1.01127e-06 2.78514e-05 2.36075e-18)
(0.00693582 -0.000367311 -3.6071e-18)
(0.00725654 -0.000518613 -1.42284e-17)
(-2.97212e-06 -7.36414e-05 -3.98787e-19)
(-5.18107e-06 -7.96065e-05 6.95517e-19)
(-4.78782e-06 -7.69178e-05 -1.30293e-18)
(0.00783713 -0.00295752 5.33664e-18)
(0.00796783 -0.0031511 2.12412e-17)
(-2.70569e-05 -5.74049e-05 -2.6442e-19)
(-2.59606e-05 -6.11236e-05 1.9079e-18)
(-3.04002e-05 -5.28159e-05 -2.49136e-18)
(0.00595143 0.00146966 4.79567e-18)
(0.00652162 0.00145315 -1.98792e-18)
(0.00663424 0.00128087 2.08492e-18)
(8.21709e-06 -0.000271764 1.47283e-17)
(8.68761e-06 -0.000267884 -2.8067e-17)
(7.19914e-06 -0.000269529 -1.57143e-17)
(1.28228e-05 -0.000270821 -4.30252e-18)
(1.59187e-05 -0.000272405 3.73277e-18)
(1.57017e-05 -0.000267125 -1.79385e-17)
(0.000366799 -0.000297985 -1.25874e-18)
(0.000382262 -0.000341578 -5.87875e-18)
(0.000432147 -0.000296763 -1.28133e-18)
(-0.000567539 0.000521994 -1.36372e-17)
(-0.000511733 0.000537801 -6.34094e-18)
(-0.000552082 0.000595849 -1.31544e-17)
(-0.000382395 1.03692e-05 6.31974e-18)
(-0.000381909 -6.30375e-06 5.88639e-19)
(-0.000368303 2.52269e-06 3.50083e-18)
(-0.000243761 -5.86706e-05 -1.72262e-18)
(-0.000238597 -6.66861e-05 -1.37253e-19)
(-0.000237653 -5.67207e-05 -3.98722e-18)
(-1.31484e-05 -0.000285424 -5.91227e-18)
(-1.15826e-05 -0.000284946 -1.29237e-18)
(-1.1012e-05 -0.000284146 -9.0904e-18)
(-9.42118e-07 -0.000285574 -1.00158e-19)
(1.17841e-06 -0.00028344 -1.42496e-17)
(-1.82503e-06 -0.000282803 -2.75876e-19)
(-1.99957e-05 -7.17571e-05 8.23118e-19)
(-2.0905e-05 -6.27206e-05 7.08904e-19)
(-2.15944e-05 -6.5535e-05 -9.66036e-19)
(-0.00442289 0.00190275 4.95836e-18)
(-0.00398845 0.00173986 1.23629e-17)
(-0.00099452 0.00190761 1.28348e-17)
(-1.99061e-06 -6.91252e-05 -2.27388e-20)
(-1.31301e-06 -6.75746e-05 4.12224e-19)
(0.00393885 -0.00173942 -9.24609e-18)
(0.00404897 -0.00148161 -1.14039e-18)
(0.00429912 -0.00152578 -5.11133e-18)
(-0.000183901 0.000235716 1.8183e-18)
(-0.000189138 0.000247134 -3.61364e-18)
(0.00540266 0.00100443 1.58991e-18)
(0.00524048 0.000736515 1.87214e-17)
(0.00516254 0.000936865 -1.29575e-17)
(-1.38814e-05 -1.22464e-06 -1.49036e-19)
(-1.40617e-05 -1.6229e-06 2.80273e-19)
(-1.15033e-05 -1.17598e-06 -1.87971e-20)
(4.02152e-07 1.82307e-05 9.79842e-19)
(3.2516e-07 9.1556e-06 -7.88423e-20)
(1.97171e-07 9.53939e-06 8.679e-19)
(-1.90472e-05 7.94022e-06 2.23115e-19)
(-1.93288e-05 9.57782e-06 1.83673e-19)
(-1.82376e-05 7.7003e-06 1.45605e-18)
(4.96461e-05 -0.000255396 -2.47753e-17)
(5.45616e-05 -0.000265706 -4.31041e-18)
(6.31125e-05 -0.000257688 2.98037e-17)
(-0.000117425 3.49811e-05 3.24813e-19)
(-0.000121371 3.52874e-05 4.04906e-19)
(-0.000119959 3.94331e-05 -2.71597e-18)
(-1.2741e-05 -0.000289675 -1.93326e-18)
(-1.39896e-05 -0.000290446 -1.53752e-18)
(-1.2607e-05 -0.000288957 7.60167e-18)
(-9.91616e-05 -0.000180722 -9.88947e-18)
(-0.000115003 -0.00014753 -2.57421e-19)
(-0.000221714 -0.000691421 -6.84708e-18)
(-0.000264734 -0.000630568 -8.51785e-18)
(-0.000293789 -0.000707474 -9.18908e-18)
(-3.15689e-05 -7.21799e-05 -1.1133e-17)
(-2.06558e-05 -7.4586e-05 3.02324e-17)
(-3.0222e-05 -8.52048e-05 5.18803e-17)
(-8.69885e-06 -4.36839e-06 -6.2745e-19)
(-9.70117e-06 -3.61754e-06 -1.66586e-19)
(-9.6396e-06 -5.00243e-06 -3.05273e-20)
(-0.000256952 -3.59325e-06 1.72312e-18)
(-0.000254231 -4.14885e-06 -7.85398e-18)
(-0.000259628 -8.48957e-06 2.73482e-18)
(-9.95432e-06 -0.000127352 -1.82254e-18)
(-5.29971e-06 -0.000133099 -7.98732e-18)
(-1.29812e-05 -0.000138614 -1.54905e-17)
(-4.01258e-05 -7.78586e-05 2.21793e-17)
(-4.45956e-05 -3.64608e-05 -9.33513e-17)
(-3.71237e-06 -0.000286972 1.20311e-17)
(1.06702e-07 -0.000287681 1.23354e-17)
(-0.000114014 -0.000156102 3.85639e-19)
(-0.000109534 -0.000158384 -6.05479e-20)
(-0.000221218 1.40141e-05 -4.96781e-18)
(-0.000221136 1.59067e-05 -7.66934e-18)
(-0.000221822 1.45677e-05 -4.31486e-18)
(-0.00345837 -0.000225634 5.03848e-19)
(-0.00326134 -2.261e-05 1.36113e-17)
(-5.0486e-05 -8.3354e-05 1.49566e-19)
(-4.67745e-05 -7.22013e-05 -4.78741e-19)
(-4.94093e-05 -7.80234e-05 -3.76716e-18)
(-0.000203397 2.60205e-05 -2.25279e-19)
(-0.000208453 2.45982e-05 6.83091e-18)
(-0.00020532 2.43642e-05 -2.66953e-18)
(-0.000115191 3.11213e-05 4.14102e-18)
(-0.000113781 3.49274e-05 1.1429e-18)
(0.00393319 -0.000270847 1.13283e-17)
(0.00371897 -0.000449574 -1.89619e-17)
(0.00364901 -0.000355795 -1.60703e-18)
(-0.000115272 -0.000113323 3.31786e-20)
(-0.00011714 -0.000113868 5.23588e-19)
(0.00587931 -0.000154913 -1.04794e-18)
(4.14007e-07 -4.15753e-05 1.4268e-20)
(-1.22122e-06 -4.37478e-05 -8.32997e-19)
(3.89855e-05 -0.000107342 5.10995e-17)
(3.99188e-05 -0.000132821 4.76668e-17)
(0.00547781 0.000907824 -6.33535e-18)
(0.00618768 0.000182485 1.63074e-17)
(0.00665502 0.00129121 -3.46246e-17)
(6.04373e-08 -0.000123596 3.65951e-19)
(6.24446e-07 -0.000133156 1.65505e-19)
(1.44913e-06 -8.56852e-05 7.16824e-19)
(9.58814e-06 -9.31417e-05 -3.58127e-18)
(-0.000555868 -0.00257643 -4.1878e-19)
(-0.000744395 -0.00260278 -4.63652e-17)
(-0.000620484 -0.00278872 -4.19302e-18)
(-0.000295465 -0.000156459 3.98768e-18)
(-0.000312748 -0.000145922 1.52119e-18)
(-0.000311441 -0.000174382 8.48059e-19)
(-7.77999e-07 -9.98733e-05 -3.59282e-18)
(-1.35438e-06 -0.000111758 -2.77723e-18)
(0.00299326 -0.00185183 9.33781e-18)
(0.00279276 -0.00188621 -2.52953e-17)
(-0.00394914 0.000349587 2.22214e-17)
(-0.00390994 0.000377063 6.23552e-18)
(-0.00385109 0.000459561 6.06354e-18)
(-2.61785e-05 -5.64009e-05 1.80927e-19)
(-2.55451e-05 -6.71053e-05 -1.86989e-18)
(-9.02743e-06 -6.52545e-05 -1.15263e-17)
(1.31455e-05 -5.09193e-05 3.1745e-17)
(5.02048e-06 -4.8845e-05 -1.62027e-17)
(9.52282e-05 0.00125177 -7.91489e-18)
(9.17508e-05 0.00114334 -7.10098e-18)
(-2.56604e-05 0.00117916 5.64553e-18)
(-0.002927 -9.9358e-05 -9.45989e-18)
(-0.00301731 -0.000261342 2.45884e-17)
(-0.00280388 -0.000163956 -3.68698e-18)
(-0.000155259 4.44734e-05 -5.42367e-18)
(-0.000158832 4.30936e-05 1.54961e-18)
(-0.000156213 4.27591e-05 -7.87893e-18)
(0.00508933 0.0028474 -3.13767e-19)
(0.00547308 0.00275993 -1.13804e-19)
(0.00467948 0.00314864 4.02619e-18)
(2.68266e-06 4.26228e-05 -3.49518e-19)
(3.20359e-06 4.45579e-05 -9.97186e-19)
(3.35602e-06 4.3749e-05 -1.6872e-18)
(6.0499e-06 3.39237e-05 -4.40136e-19)
(6.73752e-06 2.85579e-05 -1.55822e-18)
(5.85845e-06 3.41617e-05 1.64745e-18)
(-4.93819e-08 -0.000112423 -1.58362e-18)
(3.88096e-05 -0.000109002 1.75484e-17)
(4.54784e-05 -0.0001142 2.36884e-17)
(3.74184e-05 -0.000115069 -8.43597e-18)
(0.00387125 -0.00204937 -7.58851e-18)
(0.00360472 -0.00201113 -1.52609e-17)
(0.00193976 -0.00047538 1.09331e-17)
(0.001964 -0.000409867 1.99421e-17)
(0.00202435 -0.00047233 -1.33507e-18)
(-0.000150668 4.55124e-05 1.93175e-18)
(-0.000153207 4.63894e-05 1.62583e-18)
(6.7135e-06 4.59147e-06 5.08294e-19)
(7.36485e-06 4.16135e-06 3.94164e-19)
(6.88824e-06 1.38535e-05 2.58963e-18)
(0.00551676 0.00168625 1.17298e-17)
(-0.000328529 0.000276421 -1.54561e-17)
(-0.000256698 -6.07843e-07 -1.78018e-18)
(-0.000251818 -1.04942e-07 -1.27965e-18)
(-1.88326e-05 7.26626e-06 -1.73008e-18)
(-2.01679e-05 8.63105e-06 6.89335e-19)
(-0.00318419 -0.0006315 -6.81338e-18)
(-0.00327225 -0.000518094 1.00083e-17)
(-0.00313568 -0.000615829 -3.72515e-18)
(-0.000735105 0.000204481 2.2014e-18)
(-0.00070162 0.000162299 2.31275e-17)
(-0.000747097 0.000147133 -1.3482e-17)
(-8.70021e-05 -5.73965e-05 5.5784e-19)
(-8.69371e-05 -5.07014e-05 -3.57317e-19)
(-8.41268e-05 -5.74289e-05 -2.84629e-19)
(-7.13154e-05 -0.000227847 -1.04636e-18)
(-7.3795e-05 -0.0002353 -1.5432e-18)
(-7.60699e-05 -0.000232896 4.25109e-19)
(0.00203152 -0.0011851 -1.14452e-17)
(0.00855263 0.0017224 -1.91759e-17)
(1.18072e-05 -0.00012206 3.76989e-17)
(2.03209e-06 -0.000125578 -1.90731e-17)
(-1.20661e-06 -0.000114839 -3.37595e-17)
(-0.00185427 -0.00121959 -4.14464e-18)
(-0.00177616 -0.00134493 -1.1453e-17)
(-0.00194636 -0.0013319 -6.33482e-18)
(-0.00017839 -0.000489321 -2.68204e-17)
(-0.000133265 -0.000509086 -4.41689e-19)
(-0.000136315 -0.000459589 -3.7492e-18)
(-0.000459375 0.00292649 -4.46516e-18)
(-0.000449415 0.00314043 1.5906e-18)
(-0.000214956 0.00304875 5.46629e-18)
(6.36848e-05 -0.000195027 -2.46185e-17)
(5.75919e-05 -0.000200429 8.64653e-18)
(6.39524e-05 -0.000202847 1.25268e-17)
(-2.17442e-05 -2.06343e-05 -1.10246e-19)
(-2.29555e-05 -2.23417e-05 -8.08838e-20)
(-2.2097e-05 -2.24429e-05 -3.4362e-19)
(-3.01027e-06 -0.000282516 2.04945e-17)
(-3.97556e-07 -0.000276555 -7.02135e-17)
(4.19841e-06 -0.000284463 -2.97617e-18)
(5.41651e-05 -0.000243955 -1.66646e-17)
(4.08554e-05 -0.00025033 -2.61477e-17)
(-0.00017331 3.82972e-05 4.29502e-19)
(-0.00017547 3.80017e-05 -1.9949e-18)
(-0.000171769 3.67004e-05 3.16731e-18)
(-4.75918e-05 -4.11913e-05 -9.05483e-20)
(-4.7209e-05 -3.88217e-05 -1.54749e-19)
(-4.86474e-05 -3.74513e-05 8.89538e-19)
(0.00183159 -0.000516122 6.90063e-18)
(0.00164511 -0.000294395 2.33743e-18)
(0.00216501 -0.000528937 -2.48988e-18)
(0.000286062 -0.000441263 -3.93531e-19)
(0.000309409 -0.000397504 -2.6832e-19)
(0.000333448 -0.000453752 4.39014e-18)
(-0.000236975 -0.000739938 -2.25947e-18)
(-0.000174084 -0.000717269 3.50785e-18)
(-0.000116323 -0.000141794 -2.9383e-19)
(-0.000118259 -0.000143623 9.56403e-20)
(-0.0004123 -2.67332e-05 -6.74513e-18)
(-0.000407772 -4.27665e-05 -2.57423e-18)
(-0.000429455 -3.91683e-05 5.39851e-19)
(0.00259908 0.00142636 1.16038e-18)
(0.00247548 0.00127442 -4.29944e-18)
(0.00236485 0.00137697 3.81278e-18)
(0.005672 0.00125806 -8.06802e-19)
(0.00573057 0.000964276 6.74946e-19)
(-0.000882019 0.00138273 -4.39844e-18)
(-0.000786507 0.00144812 -1.88703e-17)
(-0.000899337 0.00149448 -2.35198e-18)
(0.00189862 -0.000737845 7.66442e-18)
(0.00120254 -0.000514593 -1.80642e-18)
(-1.11157e-05 -0.000208409 4.97095e-18)
(-1.06569e-05 -0.000214867 1.4735e-18)
(-1.04278e-05 -0.000215627 -1.14727e-18)
(1.12473e-05 -7.31687e-05 3.59697e-17)
(1.48579e-05 -6.13305e-05 3.62421e-17)
(-2.12586e-05 -1.64e-05 -1.85818e-17)
(-2.57787e-05 -5.66348e-05 1.41768e-18)
(-2.6809e-05 -4.94621e-05 -2.22597e-18)
(-2.57254e-05 -5.62879e-05 -1.25242e-18)
(5.8631e-07 -0.000101838 -4.55009e-17)
(4.4307e-06 -0.000105302 5.79987e-19)
(1.45602e-05 -9.62337e-05 3.09137e-17)
(0.0109261 0.000307697 2.57043e-18)
(0.0109956 0.000225768 8.78606e-18)
(0.0107917 0.000206792 1.12873e-17)
(-9.44157e-06 -0.000285759 -6.46418e-18)
(-1.17672e-05 -0.000285992 -1.41615e-17)
(-1.19935e-05 -0.000284549 4.5903e-18)
(1.34343e-06 2.63427e-05 -1.1677e-19)
(9.74027e-07 2.69958e-05 -8.7681e-19)
(-0.000378124 -0.00256707 3.95332e-18)
(-0.000525614 -0.00241823 2.16432e-19)
(0.00992852 -4.1695e-05 3.43922e-18)
(0.00985555 -0.000169268 1.3052e-18)
(0.009718 -0.000183656 2.41859e-18)
(3.81379e-06 -0.00026812 3.98234e-17)
(8.35738e-06 -0.000276381 1.03496e-17)
(-1.28812e-05 -7.38148e-07 7.82778e-20)
(-1.27499e-05 -8.65183e-07 -6.72974e-20)
(-1.30035e-05 -8.19423e-07 2.53918e-21)
(-6.82159e-05 -0.000221805 3.93947e-18)
(-7.14186e-05 -0.000221391 -2.87826e-18)
(-0.000115366 5.90438e-06 1.83552e-18)
(-0.000119234 5.55308e-06 -1.95877e-18)
(-0.000116441 -1.42362e-06 5.25374e-19)
(-1.27131e-05 -1.26327e-06 -6.2008e-20)
(-8.81399e-06 -2.90022e-07 -2.70747e-21)
(-1.72736e-05 9.47614e-06 3.12296e-19)
(-1.57627e-05 8.71221e-06 -2.5035e-19)
(-1.6067e-05 8.09687e-06 1.03353e-18)
(4.30705e-06 -0.000121555 1.04767e-16)
(0.00943774 -0.000381193 2.47818e-20)
(0.00945751 -0.000417748 -2.461e-19)
(0.00973959 -0.000296983 -2.76679e-18)
(-4.31927e-06 -0.00020169 -7.51552e-18)
(-1.10393e-05 -0.000197098 -4.30318e-18)
(-0.00012444 3.4331e-05 -2.38076e-18)
(-0.00012158 3.01652e-05 1.64474e-18)
(8.67611e-07 2.89369e-05 -1.88106e-18)
(6.97372e-07 1.99219e-05 -1.77722e-18)
(-0.00136698 0.00306571 -1.68295e-17)
(-0.000126294 0.00360732 -1.23556e-17)
(-0.00253491 0.00369981 -7.54095e-18)
(0.00814326 -0.00280757 -1.35132e-17)
(0.00763005 -0.00282346 -7.50258e-18)
(-0.000377705 -7.69968e-05 -7.8991e-18)
(-0.000360488 -7.7915e-05 -3.18563e-18)
(6.00078e-05 -0.000183902 -3.30522e-17)
(4.94243e-05 -0.000198411 -3.15524e-17)
(1.55611e-07 -0.000133614 -1.20461e-18)
(9.3293e-07 -0.000138139 -7.11771e-18)
(-7.0324e-06 -0.000286038 7.48831e-18)
(-8.12617e-06 -0.000284257 -3.56527e-18)
(-0.00728864 0.00106324 3.57909e-18)
(-0.00718491 0.00132911 -8.0702e-18)
(-0.00676819 0.00106941 -1.24479e-18)
(-6.59565e-05 2.43354e-05 4.15106e-19)
(-6.76717e-05 2.10961e-05 -1.50724e-18)
(-6.5292e-05 1.9423e-05 -1.03751e-18)
(-3.01663e-05 -0.000167453 -2.78661e-18)
(-2.71779e-05 -0.000184169 -4.16575e-18)
(-2.43607e-05 -0.000166098 -1.61053e-18)
(6.11205e-05 -0.000239495 3.39091e-17)
(7.16375e-05 -0.000226712 2.24658e-17)
(7.33673e-05 -0.000241665 -2.02994e-17)
(1.34162e-06 -8.55095e-05 -5.36054e-20)
(1.09842e-06 -7.79291e-05 6.13414e-19)
(0.00447042 -0.00272727 1.12943e-17)
(0.00403988 -0.00231584 1.45835e-17)
(0.00408383 -0.00246904 6.21001e-18)
(0.000451005 -0.000414265 -7.97693e-19)
(0.000414473 -0.000446099 1.51471e-18)
(0.00039444 -0.00038851 -2.96055e-18)
(-1.27236e-05 -0.00012049 7.4605e-18)
(-8.26591e-06 -0.000113548 1.30504e-17)
(-5.73618e-05 2.68793e-05 -9.99863e-19)
(-5.92769e-05 2.41581e-05 -8.78537e-19)
(-5.68193e-05 2.28628e-05 -1.74672e-19)
(-0.000244015 -8.43944e-05 4.63445e-18)
(-0.000239391 -9.26543e-05 -4.60947e-18)
(-0.000246594 -9.32472e-05 8.02461e-19)
(-0.000772295 -0.000281424 -2.09937e-18)
(-0.000802077 -0.000325149 -1.24644e-17)
(-0.000733371 -0.000319021 -1.53948e-17)
(6.52901e-07 -6.74017e-05 -2.95831e-18)
(3.10261e-06 -7.24024e-05 -1.98753e-17)
(-0.00167281 0.000145926 -4.6914e-18)
(-0.00174545 5.48655e-05 -1.45201e-17)
(-0.0017786 0.000195743 -1.31805e-18)
(-0.000240489 -0.000297308 -1.90265e-19)
(-0.000243559 -0.000283073 -5.67286e-19)
(-0.000259355 -0.000287402 -1.103e-18)
(-0.000229537 1.20293e-05 5.26176e-18)
(-0.000230501 8.95757e-06 -6.61592e-19)
(-0.000225474 9.6622e-06 -3.58804e-18)
(0.00106523 0.000402596 -7.52503e-18)
(0.000926427 0.000515026 6.23333e-17)
(0.000852175 0.000438612 -5.47136e-18)
(-0.000282685 -0.000164102 -1.93145e-18)
(-0.00028713 -0.000147095 7.05238e-18)
(0.00601009 -0.00492605 -1.3475e-17)
(0.00455692 -0.00476184 -1.29498e-17)
(0.00368848 -0.00477322 1.45412e-18)
(-0.00292326 3.05773e-05 -2.57063e-17)
(-0.0030603 -6.39568e-05 1.1091e-17)
(0.000218033 0.00354644 -1.40241e-17)
(-0.00275124 0.00297828 4.1308e-18)
(-4.34743e-05 -0.000264739 1.4649e-18)
(-4.41716e-05 -0.000271135 1.59849e-18)
(-4.04136e-05 -0.000267238 -1.56394e-18)
(3.76917e-06 -0.00026787 -4.91582e-18)
(-3.77578e-06 -0.000267863 5.84628e-17)
(4.13328e-06 -0.000266333 2.27412e-17)
(3.80353e-06 3.96843e-05 -2.06242e-18)
(3.55434e-06 3.80139e-05 -1.79998e-19)
(2.25055e-06 3.7842e-05 -1.62599e-18)
(-0.00196132 -0.00109015 2.82985e-18)
(-0.0017795 -0.00109856 5.15007e-18)
(-0.000994005 0.00130369 -2.96826e-18)
(-0.000876854 0.00126279 9.65007e-18)
(-0.000514036 0.0027623 -1.15064e-17)
(-0.000683877 0.00284427 -1.61328e-17)
(-0.000173867 3.86531e-05 1.06788e-18)
(-0.000171157 3.86736e-05 -2.0203e-18)
(-0.000494781 -0.000492825 -5.06571e-18)
(-0.00054757 -0.000488316 2.02861e-18)
(-0.000528586 -0.000548449 -3.41827e-18)
(-9.78989e-05 2.60902e-05 -2.21987e-18)
(-0.00010112 2.62378e-05 1.41499e-18)
(-9.90118e-05 1.9875e-05 -2.28987e-18)
(-4.50344e-06 -0.000280404 2.93159e-17)
(-2.00711e-06 -0.00027849 1.03487e-17)
(-0.000299008 -0.000264505 -5.21512e-18)
(-0.000279474 -0.000268152 3.96701e-18)
(-0.00029035 -0.000248345 -1.29301e-18)
(0.00346828 0.000507717 -2.86036e-19)
(0.00337145 0.000469973 -2.73837e-17)
(0.00341906 0.000566805 1.08877e-17)
(-0.000535837 0.00168893 -2.24831e-18)
(-0.000607646 0.00180977 -7.33542e-18)
(-0.000678789 0.00167527 -1.72839e-18)
(-0.000121963 -0.000164368 9.40364e-20)
(-0.000125224 -0.00016602 2.35104e-19)
(-0.000120715 -0.000170364 -9.09494e-20)
(0.00658356 -0.00415064 -7.50906e-18)
(0.00633689 -0.0039609 -1.90271e-18)
(0.00631435 -0.00426558 1.39858e-17)
(-0.000224666 -0.00033394 -1.8654e-19)
(-0.000215971 -0.000346694 -8.34179e-20)
(-0.000236326 -0.000344051 1.71214e-18)
(0.00948303 -0.000327774 -1.22769e-17)
(0.00913335 -0.000497283 -1.04335e-18)
(7.75832e-06 -0.000102523 -2.54685e-17)
(-1.70437e-05 -9.56964e-05 1.52166e-17)
(0.00487146 -0.00298304 -1.17892e-17)
(0.0046951 -0.00318838 3.71945e-18)
(-6.34466e-05 -9.43e-05 -1.39372e-19)
(-6.67463e-05 -0.000100496 -1.4446e-20)
(-6.42112e-05 -9.75846e-05 -1.21003e-19)
(-0.000764987 0.000242853 -1.11759e-17)
(-0.000715453 0.000249606 -7.94993e-18)
(-0.000400537 2.01826e-05 6.6864e-18)
(-0.000382031 2.83879e-05 1.99423e-18)
(-6.63039e-05 2.91225e-05 3.24568e-20)
(-6.39906e-05 2.73518e-05 2.38248e-18)
(5.8885e-06 2.90167e-06 3.14656e-19)
(5.72364e-06 -5.43298e-06 -2.2656e-18)
(-8.87113e-05 -0.000290099 3.76127e-18)
(-8.19298e-05 -0.000289497 -4.64856e-18)
(-8.89073e-05 -0.000285815 -4.177e-18)
(0.00517381 0.00171861 8.03803e-18)
(0.00537563 0.00150916 1.36947e-18)
(-0.00164739 0.000524367 1.34947e-17)
(-0.00171887 0.000588101 4.26943e-18)
(-0.00176223 0.000487562 2.25668e-17)
(0.00117511 0.000358593 -3.83914e-17)
(0.0016187 0.000509954 1.03348e-18)
(-0.000214302 -8.10739e-07 4.38644e-18)
(-0.000216682 7.93503e-06 -2.7484e-18)
(-0.000210516 4.45974e-06 -1.52931e-17)
(-0.00175605 0.00213025 4.39613e-18)
(-0.00163241 0.00224716 5.69469e-19)
(-0.00179273 0.00227396 1.1495e-17)
(-0.00723872 -0.00208801 -1.75178e-17)
(-0.0074981 -0.0022514 2.4603e-18)
(-0.00690389 -0.00271547 3.98703e-18)
(0.00217565 -0.000491013 -1.78575e-17)
(0.00204536 -0.000635783 -4.7735e-17)
(-0.00165732 -0.000174526 -1.01405e-17)
(-0.00167813 -8.04511e-05 3.68582e-19)
(-0.00175429 -0.000144359 6.02214e-17)
(-4.96243e-06 -9.15776e-05 1.54124e-18)
(-3.00093e-06 -8.2862e-05 3.531e-19)
(-2.46882e-06 -8.38395e-05 5.97071e-19)
(1.95556e-05 -0.000186352 -5.65716e-18)
(2.88659e-05 -0.000192795 1.28767e-17)
(3.05162e-05 -0.000177828 -7.38834e-18)
(8.92633e-06 -0.000274009 6.6106e-18)
(4.04289e-06 -0.000272602 2.52006e-17)
(-1.84743e-05 -7.7294e-07 1.82235e-19)
(-1.76259e-05 -1.05517e-06 -8.42636e-20)
(-8.75563e-05 -6.29719e-05 1.14622e-18)
(-8.96671e-05 -5.45176e-05 8.13253e-19)
(0.000219786 -0.000497119 1.78585e-18)
(0.00019413 -0.000476422 4.0872e-18)
(0.000188192 -0.000514149 5.85033e-18)
(0.000435627 0.000996541 -6.58644e-18)
(-0.00120406 -0.00138315 -2.0836e-17)
(0.00522021 -0.000554199 -3.8954e-18)
(-0.000269062 6.3967e-05 3.85805e-19)
(-0.000274835 6.71039e-05 1.08627e-18)
(-0.000274147 5.75014e-05 1.19299e-18)
(-7.27567e-06 -5.44914e-06 -6.91175e-19)
(-7.89372e-06 -3.42395e-06 -2.62673e-19)
(-0.000623416 -0.000387877 -5.63959e-19)
(-0.000587077 -0.000348478 1.3727e-18)
(-0.000577093 -0.000401788 4.81549e-18)
(-0.000802224 -0.000242815 2.40542e-18)
(-0.000750375 -0.000248706 1.08931e-17)
(-0.00398077 0.000346505 5.66287e-19)
(-0.00401945 0.000382226 7.08069e-18)
(0.00238365 0.000261516 1.72175e-18)
(0.0027044 -0.000529801 4.63935e-18)
(0.00368179 1.40125e-05 4.85469e-19)
(-1.88968e-05 -7.8645e-05 9.25667e-21)
(-1.78875e-05 -7.70983e-05 4.18085e-18)
(-4.98719e-05 -8.6796e-05 -3.26152e-20)
(-5.31343e-05 -9.47729e-05 1.33932e-18)
(-0.000222085 -0.000475862 -1.07049e-17)
(-0.000221452 -0.000526549 -6.06389e-18)
(0.00625563 -3.75741e-05 -4.7384e-18)
(0.00580802 0.000201541 3.52464e-18)
(0.00605395 -0.000114864 -6.51097e-18)
(-2.64934e-05 -0.000156121 3.96538e-18)
(-2.85652e-05 -0.000163217 7.0132e-18)
(0.00696168 -0.000970663 2.31059e-18)
(0.00699852 -0.00118777 -4.23061e-18)
(0.00673545 -0.00105995 -1.52256e-17)
(-0.00407011 0.000368664 -1.26079e-18)
(-0.00404585 0.000378732 -2.70447e-18)
(-0.00409118 0.000338838 6.82128e-18)
(-0.00172758 0.00196375 -1.32556e-18)
(-0.00191155 0.00201656 -1.19484e-17)
(-4.40481e-05 -4.34735e-05 -7.17639e-19)
(-4.71696e-05 -4.56138e-05 -1.49241e-19)
(0.000195782 -0.000128653 2.90879e-18)
(0.000226751 -0.000125067 -1.74125e-17)
(0.000198104 -9.60127e-05 -2.56787e-17)
(-0.00032548 -0.000393441 4.9441e-18)
(-0.000295451 -0.000421275 -5.93609e-18)
(-0.000286426 -0.000378289 2.31887e-18)
(0.000628802 0.000788535 4.29154e-17)
(0.00082582 0.000961685 -5.9742e-17)
(0.000518527 0.000869686 -4.26679e-17)
(-3.46677e-05 -1.50549e-05 -3.14855e-20)
(-3.47188e-05 -1.4167e-05 -4.24921e-19)
(-3.47862e-05 -1.43384e-05 -9.59693e-20)
(0.00410188 3.35405e-05 3.68755e-17)
(0.00426271 -0.000196487 -2.27339e-19)
(-5.90008e-05 -8.70089e-05 5.71461e-19)
(-6.12731e-05 -8.95154e-05 1.50746e-19)
(-0.000245898 0.0005657 -8.79345e-18)
(-0.000209387 0.000521744 5.49127e-18)
(-0.00026421 0.000517704 3.84441e-18)
(-1.32404e-05 -1.50664e-06 -1.0096e-19)
(-1.37695e-05 -1.26967e-06 -2.9517e-20)
(0.00167342 -0.001896 -5.57616e-20)
(0.00176219 -0.0016544 -3.17343e-18)
(0.00195526 -0.00177621 3.48061e-19)
(0.00149877 -9.16174e-05 -2.13283e-18)
(0.00134137 0.000113716 3.29523e-18)
(0.00177606 -7.74184e-05 1.61178e-17)
(-0.000144383 -0.000224797 1.22369e-18)
(-0.000146824 -0.000216034 -1.49342e-18)
(-0.000169291 -0.00118018 -1.40974e-17)
(-6.30374e-05 -0.000672728 -3.19206e-17)
(0.000276952 -0.00110972 -1.19863e-17)
(-0.000236197 1.50779e-05 3.407e-18)
(-0.000227286 1.69373e-05 -6.78431e-18)
(-4.26713e-05 -4.63031e-05 -3.55245e-19)
(-4.20984e-05 -4.42394e-05 -3.41068e-19)
(-0.00607176 0.00202276 -2.76766e-18)
(-0.00427079 0.00211798 -7.2852e-18)
(-0.000398542 0.00169149 9.27008e-19)
(-0.000475116 0.00156365 -3.74603e-18)
(-0.00021755 -4.7085e-06 8.26025e-18)
(-0.00021406 -1.03481e-05 1.30059e-17)
(0.00769162 -0.00243687 1.51009e-17)
(0.00731089 -0.00236431 -8.88717e-18)
(0.00768501 -0.00214837 6.98401e-18)
(-0.00404612 0.00038955 -9.68589e-18)
(-0.00403013 0.000349797 6.29213e-18)
(-2.37398e-05 -1.11199e-05 6.7611e-19)
(-2.48555e-05 -1.02957e-05 -9.82332e-20)
(-2.39247e-05 -9.49021e-06 -4.33719e-19)
(-0.000246454 -5.0742e-05 -5.61175e-18)
(-0.000251081 -5.90416e-05 -2.05384e-18)
(-0.00316994 -0.000650638 7.88754e-18)
(-0.00300588 -0.000791941 9.04804e-19)
(0.00135113 -0.000219999 -7.92811e-18)
(0.00132116 -0.000170439 2.0977e-17)
(0.00128496 -0.000189784 -1.40613e-17)
(4.36039e-06 3.9684e-05 -8.02433e-22)
(4.09462e-06 3.83293e-05 8.78077e-19)
(-2.01852e-05 -6.69252e-07 -5.35683e-20)
(-2.04616e-05 1.18032e-06 1.64715e-19)
(-2.12616e-05 -2.3951e-07 3.0422e-21)
(0.00309807 0.00117792 6.02575e-18)
(0.00308439 0.00138082 1.17609e-17)
(-0.00168643 -0.00176526 1.47772e-17)
(-0.00179644 -0.00165747 5.52891e-19)
(-0.00184992 -0.00182919 -1.38617e-17)
(1.05188e-06 2.31726e-06 -7.11137e-20)
(4.85225e-07 1.83868e-06 1.07371e-19)
(1.00874e-06 2.92928e-06 2.18081e-19)
(-0.00650736 0.00274026 4.16165e-18)
(-0.0062142 0.00308527 -7.57394e-18)
(-0.00533258 0.00266562 -1.36581e-17)
(0.000487944 -5.00076e-05 -7.14805e-18)
(0.000506283 -0.000138533 1.26473e-17)
(0.000428288 -0.000109372 8.29209e-18)
(-6.72427e-07 -0.000269507 -4.35506e-17)
(2.45922e-06 -0.000263415 -7.70228e-17)
(-0.000329272 -3.43762e-05 6.04832e-18)
(-0.000340267 -3.37949e-05 1.29752e-18)
(-0.000330231 -2.53536e-05 1.99961e-18)
(3.09411e-06 3.75106e-05 1.69966e-18)
(4.13632e-06 3.87696e-05 -2.6327e-19)
(-0.000160251 -0.000357469 -2.16081e-18)
(-0.000162101 -0.000341973 -2.89509e-18)
(-0.000147457 -0.00034798 -2.83386e-18)
(-0.00395838 0.00022251 1.43596e-17)
(-0.00390082 0.000191774 4.96458e-18)
(-0.00396693 0.000272188 2.5465e-17)
(-7.79808e-05 3.11084e-05 -7.60661e-19)
(-7.78709e-05 3.44213e-05 -4.22827e-18)
(-8.15912e-05 3.28247e-05 -4.58858e-18)
(-0.000979724 0.000200291 9.30419e-18)
(-0.00094391 0.000148181 -2.53899e-17)
(-0.000914214 0.000217327 -1.87352e-17)
(7.1262e-05 -0.000181203 -2.76866e-17)
(8.01022e-05 -0.000194656 -5.2714e-19)
(8.95923e-05 -0.0001742 -2.63337e-17)
(-0.000112674 5.80321e-06 1.16593e-18)
(-0.000113999 1.14681e-05 2.25919e-18)
(-4.48551e-05 -6.29059e-05 -6.22617e-19)
(-4.47256e-05 -6.6922e-05 -1.07772e-18)
(-0.0012235 0.000217787 -4.50503e-18)
(-0.00130796 0.00018793 2.79014e-18)
(-0.00128446 0.000283565 -5.86913e-18)
(0.00430964 0.00178451 -7.01537e-18)
(0.00407925 0.00155787 -4.42714e-18)
(0.00444319 0.00157396 1.03359e-18)
(-0.00159419 0.00022139 6.16337e-18)
(-0.00157076 9.85228e-05 1.29201e-17)
(-9.29278e-05 -0.000289287 6.32033e-18)
(-8.60401e-05 -0.000291456 -5.91923e-19)
(-0.000121629 -0.000251109 3.18154e-18)
(-0.000121428 -0.00025477 2.97004e-18)
(9.67683e-07 5.10304e-06 -6.15671e-19)
(9.33432e-07 4.43483e-06 5.41713e-19)
(3.6843e-07 3.09615e-06 -2.24968e-19)
(0.00989238 9.69053e-05 -2.3354e-18)
(0.0100656 7.90248e-05 1.72623e-18)
(-0.00101804 0.00312387 1.01335e-18)
(-0.00129833 0.00304722 -9.72781e-18)
(-0.00135547 0.00313297 1.50909e-18)
(-0.00436106 0.00545002 5.79853e-18)
(-0.00430899 0.00535436 1.50818e-19)
(-0.00323652 0.00579382 3.19841e-18)
(-4.0589e-05 -4.77901e-05 6.23292e-19)
(-4.28262e-05 -4.84972e-05 -8.48431e-20)
(-0.00293118 0.000887873 1.74187e-17)
(-0.00281105 0.00102517 -3.36734e-18)
(-0.00269302 0.0010282 1.98369e-17)
(0.0040887 -0.000528345 6.30038e-19)
(0.00423767 -0.000170189 4.33517e-19)
(0.00432623 -0.000320081 -1.00475e-17)
(0.00727221 -0.0048013 -4.57997e-19)
(0.00702463 -0.00475227 5.36363e-18)
(0.00568188 0.00262992 -2.83156e-18)
(0.00609371 0.00339716 -9.35442e-19)
(7.93078e-05 0.00137233 -6.33767e-18)
(0.000221305 0.00132831 1.0902e-18)
(5.20304e-06 3.65151e-05 -1.65801e-18)
(-1.29121e-05 -2.1723e-07 -7.06448e-20)
(-1.33558e-05 -1.58424e-07 3.51184e-20)
(-1.25893e-05 3.95516e-07 8.82825e-21)
(-0.000111038 -0.000205085 1.36062e-18)
(-0.000136984 -0.000204078 4.02308e-18)
(-0.000125154 -0.000236209 -3.38745e-18)
(-0.000103469 -0.00127443 3.60883e-18)
(0.000170058 -0.00106994 -1.37295e-18)
(-0.000143076 -0.00102969 3.16529e-18)
(0.000267768 -0.00135781 -3.45935e-18)
(0.000369057 -0.00128307 8.61597e-18)
(0.000378923 -0.00144486 -3.01726e-18)
(-0.000198705 2.65172e-05 1.48765e-18)
(-0.000200949 2.76143e-05 1.1484e-17)
(0.00197328 0.000779143 3.19486e-18)
(0.00103095 0.000457442 -3.09255e-18)
(-0.000325255 0.000464285 1.86244e-18)
(-0.000323217 0.000447234 3.4264e-18)
(-1.4778e-05 5.32957e-06 -1.69431e-18)
(-1.52036e-05 6.52385e-06 7.82443e-20)
(-1.40883e-05 5.71911e-06 3.946e-19)
(-0.000592547 0.00214624 -4.73778e-18)
(-0.000704799 0.00213905 -3.36124e-18)
(-0.000528158 0.00202306 1.59981e-17)
(-1.49932e-06 -3.97989e-05 -2.79792e-19)
(-1.38129e-06 -3.77517e-05 -1.18114e-19)
(4.13835e-07 -3.56487e-05 -2.04449e-18)
(0.00680283 -0.00426986 2.53199e-18)
(0.00658166 -0.00397185 3.06424e-18)
(-0.000259308 6.07664e-05 -4.68472e-18)
(-0.000261542 7.00628e-05 4.11694e-19)
(1.16745e-06 1.79363e-06 4.67208e-19)
(1.7251e-06 2.63192e-06 -3.11896e-19)
(-0.000166914 -0.000219923 -1.67597e-18)
(-0.000165397 -0.00022327 -7.90716e-19)
(-0.000160122 -0.000226184 -4.08921e-19)
(-0.000236912 -0.000307919 4.85114e-19)
(-0.000226832 -0.000304434 -2.03018e-19)
(-1.40297e-05 -0.000262203 -1.77902e-18)
(-9.52711e-06 -0.000265283 1.56445e-17)
(-0.00609743 0.00313527 1.25206e-17)
(-0.00674342 0.00256633 2.66444e-18)
(-0.00018212 -0.000254813 -1.81695e-20)
(-0.000185375 -0.000258596 -6.58264e-19)
(-0.000175812 -0.000262344 7.53986e-19)
(-9.99055e-05 3.38784e-05 2.2965e-18)