/*--------------------------------*- C++ -*----------------------------------*\
| =========                 |                                                 |
| \\      /  F ield         | OpenFOAM: The Open Source CFD Toolbox           |
|  \\    /   O peration     | Version:  v2012                                 |
|   \\  /    A nd           | Website:  www.openfoam.com                      |
|    \\/     M anipulation  |                                                 |
\*---------------------------------------------------------------------------*/
FoamFile
{
    version     2.0;
    format      ascii;
    class       volScalarField;
    location    "650";
    object      nut;
}
// * * * * * * * * * * * * * * * * * * * * * * * * * * * * * * * * * * * * * //

dimensions      [0 2 -1 0 0 0 0];


internalField   nonuniform List<scalar> 
13917
(
0.000419679
0.00212065
0.0138132
0.00293529
0.00672436
3.56559e-05
0.0137647
0.0103459
0.0119688
0.000273549
0.00115456
0.00144786
0.00307201
0.00122341
0.000588723
0.000798575
0.0021907
0.000603862
0.00169091
0.00672276
0.0067258
0.014631
0.00672374
0.0130951
0.00673313
0.0142327
0.000162362
0.000110253
3.02451e-05
0.00032269
0.000449497
0.000746883
0.000222229
0.000577032
0.00578207
0.000548925
0.00672371
0.0121893
0.00252565
0.00311751
0.00673498
0.00672616
0.0067289
7.25852e-05
0.00332238
0.000487505
0.000695371
0.00070769
5.29715e-05
0.00672066
0.00138504
0.00196965
6.03509e-05
0.000517804
0.00197051
0.00115171
0.00127757
0.00334512
0.00123162
0.00328656
0.00675407
0.00245651
0.000323522
0.00672265
3.64253e-05
0.00175611
0.00672453
0.00641648
0.000607986
0.00037217
0.00672407
0.0116294
0.0102011
0.00673166
4.66745e-05
0.00177243
0.00547715
0.00217319
0.0142431
0.0067252
0.00672463
0.00672416
3.55279e-05
0.013482
0.00973183
0.00235965
0.00672423
0.000741867
0.00142813
0.00673072
0.0119318
0.000295081
0.00482745
0.00118457
0.00122215
3.68198e-05
0.000928365
0.000714837
0.00146365
5.65582e-05
0.00672332
0.000255329
7.02251e-05
0.0020843
0.00673543
0.0115418
4.11662e-05
0.000799583
0.00209139
0.000392591
0.0111734
0.00392805
0.00173685
0.0140871
0.00121692
5.01465e-05
0.00672638
3.84137e-05
0.0052767
0.000529463
0.00672596
0.000774957
0.00659055
0.000131135
0.00672413
0.00129584
0.00319672
0.00672476
0.00672336
3.54946e-05
0.0123201
0.00117795
0.00316893
0.00672594
0.00161831
0.0123437
0.000417199
5.22119e-05
0.00672466
0.000555089
0.000276197
0.00675714
0.00150356
5.82675e-05
0.00529824
0.00980063
3.9319e-05
0.00184864
0.00674948
0.000625698
0.000946088
5.02894e-05
0.00138165
0.000291865
0.000907346
0.00379509
0.000425383
0.00249072
0.0032287
0.00190248
0.000796253
0.000159338
0.00672525
0.000933229
0.00181395
0.00148871
0.00208372
0.000860867
0.00433962
0.000255759
0.000275847
0.00378964
0.00162072
0.00161627
0.00888143
0.000245689
0.0131245
4.07247e-05
0.0102813
0.00484111
0.00029497
0.000445397
0.00675808
0.00672412
0.000413062
0.0137613
0.000329146
0.00360886
0.000741203
0.00157707
0.000166532
0.00975005
0.00025251
0.00672391
5.44035e-05
0.000162045
0.00420038
0.00456049
4.6722e-05
0.00020127
0.00188137
0.0067207
0.000993663
0.00110567
0.00809341
0.00119282
0.0067344
0.00356146
0.000746206
0.0133932
0.0016487
0.0142902
0.00419322
0.00157212
0.00673415
2.67104e-05
0.000816221
0.00471076
0.00673096
0.00755298
0.0053093
0.00037233
0.00672771
0.0129005
0.0118201
0.000746519
0.000197191
0.000919601
0.00673348
0.000713274
0.00170289
0.000790362
0.0120662
0.00255034
0.00672211
0.000695451
0.0133314
0.00768714
0.00672508
0.00672289
0.00441873
0.000854414
0.00672561
0.000295534
0.00052833
0.000158112
0.000495901
0.00672508
0.000209368
0.00348392
0.00499089
0.000252929
4.80315e-05
0.00334363
0.0035716
0.0012748
0.00751253
0.00116108
0.000346742
0.000648704
0.00672571
0.00418171
0.00945825
2.65226e-05
0.00673272
0.00899346
0.00342787
0.00436275
0.0142463
0.00198936
0.00672485
0.00672117
0.000718707
0.0104919
0.00059582
0.00132963
0.00123544
0.00191991
0.00672242
0.00729193
0.00672227
0.00999435
0.00182259
0.00672543
0.000572572
0.000271704
0.000167401
0.000206587
0.000358849
0.00395915
0.000138593
0.0121029
0.00840153
0.00673047
0.00533803
0.00672366
0.0040529
0.00672582
3.1112e-05
0.00672089
0.000373971
0.000504879
0.00456181
0.000958023
0.00149349
5.19517e-05
0.000270992
0.000301743
0.00558637
0.00388157
0.0102127
0.00562291
0.00672673
0.00672491
0.00679125
0.00459703
0.0114298
0.00601136
0.0137147
0.00409194
0.00018824
0.00121686
4.81656e-05
0.000818141
0.000278425
3.4036e-05
0.000630141
0.000851953
4.71657e-05
0.00200822
0.0119794
5.55778e-05
0.00486509
0.000642745
0.00308865
0.000646865
0.0126819
4.03594e-05
7.82112e-05
8.05625e-05
0.01219
0.00672479
0.000292326
0.0124593
0.00239631
0.00109598
0.00401766
4.3075e-05
0.00186028
0.000221617
2.98137e-05
0.00672171
0.00374842
6.41504e-05
0.00672225
0.00672741
0.00672377
0.0067497
0.000309098
0.00926865
3.1331e-05
0.0117589
0.00672903
0.000248037
0.00125041
0.000950735
0.0147559
0.0122417
0.0130145
0.00672486
0.000262359
0.00672799
0.00681797
0.00339036
4.66427e-05
0.000459169
0.00239474
0.00672444
0.000775039
0.000281632
0.0006409
1.36365e-05
0.0121343
0.00235983
0.000194823
0.000287512
0.00672251
0.00818684
0.0147014
0.0029395
0.000266542
0.00672788
0.000459146
0.00452058
0.00672498
0.00137007
0.0136903
0.00141152
0.00921738
0.00186193
0.00132319
3.28259e-05
0.00210596
3.06992e-05
3.09155e-05
0.00672377
4.35841e-05
0.0024465
0.00673133
0.000348127
0.00672547
0.00673415
0.00672764
0.000559787
0.00672542
0.00430697
0.0122177
0.000999976
0.000273375
0.011386
0.00479496
0.00106792
0.00672777
0.000454253
0.00250055
0.000658564
0.00672413
0.0100468
0.0130626
0.0120533
0.000727043
0.000506912
0.000728388
0.00249845
0.000644107
0.00141608
0.000392872
0.00212722
0.00672224
0.0129258
0.0126745
0.0133372
0.000193094
0.000555492
0.0133061
0.0134228
0.00523994
0.00672283
0.000738032
0.00140086
0.0029452
0.00038887
0.000720947
0.00679798
0.000493076
0.00100524
0.0049442
0.00672389
0.00082695
0.000764265
0.000311806
0.00654035
0.00672557
0.00324302
0.00686385
0.000396738
0.00672454
0.0125314
3.41722e-05
0.000400242
0.00712717
0.00116783
0.0010482
0.0142593
3.20862e-05
0.00144343
0.000196823
0.000828816
0.000438675
0.000486584
0.00140674
0.00125352
3.8511e-05
0.00161459
0.000743779
0.00677199
0.00110234
0.0012773
0.00677568
0.000425137
0.00229714
0.00582526
0.0122934
0.00533877
0.00672812
0.0119225
0.00276785
0.00672546
0.00409937
0.00281197
0.000257005
0.00518448
0.00717296
0.00126305
0.000707973
0.00218238
0.0125581
0.00024883
0.00178018
0.00672567
0.00444699
5.05283e-05
0.0069558
0.00677737
0.00919641
0.011973
0.0012204
0.00672779
0.00209699
0.00199029
0.000310158
0.00678772
0.00672623
0.00672022
0.0067203
0.00696205
0.000593611
0.00122478
0.000331564
0.00673331
0.00672286
0.000519264
0.0152546
0.000763672
0.00388514
0.00673087
0.00672808
0.00772241
0.00967226
0.00672403
0.0067285
0.000305284
0.00144743
0.00125991
0.00299239
0.00128641
0.000711054
0.000802006
4.9082e-05
0.000447306
0.0004468
0.000600501
0.000971667
0.00030848
0.00672972
0.00489477
0.0067275
0.000966951
0.00212194
0.0012404
0.000118585
0.00672467
0.000316516
0.000318803
0.000373562
0.000613157
0.000223225
0.00106515
0.00672409
0.0130352
0.000227049
0.0152757
0.00232748
0.00100366
0.000454427
0.0128515
0.000358573
0.000696556
0.000188477
0.000732091
0.00127232
0.00314453
0.000125709
6.81462e-05
0.00255641
0.000837384
4.96294e-05
0.0152402
0.00233847
0.00105738
0.000993571
0.00118071
0.000596462
0.00162822
2.92065e-05
0.0101928
0.011471
0.000313623
0.00672405
0.00474525
0.00178553
0.0067337
0.000722391
0.000971807
0.000231075
0.000334587
0.0143118
0.000486882
0.00145375
0.0127039
0.00186957
0.00348355
0.00672527
0.00672391
0.0059227
0.0119711
3.3911e-05
0.00189717
0.00161543
0.00672784
0.00184036
5.28511e-05
0.00156497
0.00121273
0.00148897
0.000796615
0.00493325
0.00017626
0.00160557
0.00037519
0.00673341
0.000486775
0.00206923
0.00146086
0.000298945
0.00012549
0.000902616
0.00672063
0.00676359
0.00305172
7.84265e-05
0.000371374
0.00066889
1.4492e-05
0.000895978
0.00672148
0.000457423
2.98964e-05
0.000913799
0.00496419
0.000474683
0.00672593
0.00201093
0.001221
0.0142606
0.00672504
0.000123243
0.00198873
0.00110536
0.00026976
0.0100386
0.000130587
0.00222557
0.00933281
0.000600831
0.00316223
0.00233077
0.00188714
0.0002828
0.000644845
0.00672483
0.00225243
0.000143782
0.00244752
0.000596973
0.00134171
0.00676629
0.00110256
0.012934
0.00561468
0.0033679
0.00672043
0.00500272
0.00672576
0.000792626
0.00453701
0.00108601
0.00960526
0.000921995
0.000200397
0.00672044
0.000201067
0.00672537
0.00044055
0.00672046
0.000153095
0.00305309
0.000669851
1.65291e-05
0.0151674
0.0068401
0.00672437
0.000320376
0.000420585
0.00649496
0.0149295
0.000668265
0.00673264
0.0007119
3.12641e-05
0.000391915
0.000507138
0.000757814
0.0139541
0.000413755
0.00200588
0.000387767
5.29712e-05
0.000651761
3.03744e-05
0.000618152
0.0026558
0.00099434
0.000583202
0.00679836
0.00201402
0.000396509
0.000645429
0.00672601
0.00672576
0.000842384
0.00226147
0.00052971
0.00637058
0.00672719
0.00672589
0.0013364
0.00673764
0.000914512
0.00672063
0.00667792
0.00159303
3.69678e-05
0.00672342
0.0067254
0.00013041
0.000462496
0.00132795
0.00907628
0.000215147
0.00521731
0.00197429
0.000494476
0.00281395
0.00672587
0.00672016
0.00136997
0.00247566
0.00672554
0.00290798
0.000812237
0.0016836
0.00016659
0.000211609
0.00125371
0.00673591
0.00672624
0.00169959
0.00529592
0.00171294
0.00764084
0.00154703
0.0067238
0.000932189
0.00672221
0.00673324
0.000705671
0.000402824
0.00411905
0.000512987
0.005454
0.00673031
0.014005
8.91062e-05
0.00226636
0.00253058
0.00811886
0.00138145
0.00261709
0.000245166
0.00266921
0.00672212
0.00673147
0.00159127
0.000468031
0.000424933
0.000585006
0.0107815
0.00226957
0.000929896
0.00201824
0.00672795
0.00140279
0.00371328
0.00672191
0.000400031
0.000147151
0.0023933
0.0117843
0.0059971
0.000283238
0.00673048
0.0067474
0.00161013
0.00276071
0.00672545
0.000810733
0.00674457
0.000430404
0.00681695
0.00651632
0.000325618
0.00381022
0.00673526
0.000518609
0.00672586
0.00672985
0.0034187
0.00673829
0.00338554
2.37187e-05
0.00542773
0.0067699
0.0135357
0.00939541
0.00161028
0.00039169
0.000652177
0.00145029
0.00675853
0.000399487
0.00715415
0.000142138
0.00672409
0.00252151
0.0142283
0.000923923
0.0130973
0.00672574
0.00121994
0.00386185
0.00103713
0.00234185
0.00219003
3.96105e-05
0.00673728
0.000397992
0.00672022
0.00380255
0.00672436
0.0105261
0.00673592
0.0054317
0.00675991
0.00801691
0.00249133
0.000243254
8.78939e-05
0.00634879
0.000253179
0.0067239
0.0121053
0.00672348
0.00504861
0.00672385
0.00155569
0.00672369
0.000506514
0.0037035
0.0111068
0.00047467
0.000323146
0.00614404
0.00397979
0.00319144
0.00697939
0.00767338
0.0113901
0.0147813
0.00023187
0.000405995
0.00219832
0.0143378
0.00105715
0.0148404
0.00677146
0.0048844
0.00243409
0.00672379
0.00140367
0.000300924
0.00728165
0.00502256
0.00672674
0.0017978
5.54335e-05
0.0035473
0.000220751
0.000838436
0.002948
2.26591e-05
0.000163694
0.000862055
0.00292456
0.00370522
0.00301811
3.88407e-05
0.00681619
0.000286206
0.000334034
0.00749641
0.0123376
0.00171199
0.0047828
0.0027119
0.00221291
0.00673021
0.00134769
0.00672107
0.000759313
0.000370482
0.00754787
0.000694215
0.00553112
0.000505958
0.0137459
0.00041094
0.00195307
0.00418455
0.00458158
0.00189404
0.000190804
0.00660815
0.00672361
0.00673422
0.0145615
0.000222765
0.000780213
0.000611384
0.000760714
0.006734
0.000462344
0.00193097
0.00672397
0.00190899
0.0139014
0.00442616
0.00678717
0.00673096
0.00348007
0.00190438
0.00161276
0.000978544
0.00590095
0.00192897
0.000495324
0.00614835
0.000447134
8.83743e-05
0.0134907
0.00343733
0.00014355
0.000972127
0.00904128
0.0132835
0.00673226
0.0098336
0.000644814
3.87105e-05
0.00672369
0.0137585
0.00672499
0.00108513
0.000385395
0.000605664
0.013029
0.00042658
0.00106424
0.010243
0.00672089
0.00065258
0.00649479
0.000617142
0.014096
0.00279658
0.00672525
0.00172475
0.00291362
0.00790733
0.00673152
0.00672372
0.00112934
0.000447105
0.000917142
3.28169e-05
0.00147583
0.00245052
0.00182464
0.000835631
0.00191996
0.00793757
0.00148298
0.00473135
0.0144905
0.00183599
0.0061117
0.0114396
0.000382028
0.00191146
0.000474644
0.000747118
0.00370534
0.00143816
0.00262253
0.000379488
0.00672627
0.000799712
5.43238e-05
0.00672703
0.000498707
0.00561467
0.000150186
0.00672062
0.000514026
0.000717914
0.0021824
0.00364828
0.00631589
2.64743e-05
0.000253274
0.0089765
0.00582214
0.00253202
0.000858422
0.00386794
0.000404334
0.000255814
0.00426176
0.000521206
0.00618926
0.00756997
0.00206814
0.00161125
0.00521265
0.000682876
0.00673457
0.00110246
0.00260108
0.00672383
0.00672589
0.00868179
0.0121356
0.00074463
0.00113353
0.00672256
0.00369793
0.0137441
0.00158037
0.00673597
0.000213185
0.00614533
0.00125599
0.00672457
0.00673449
0.00238909
0.00145484
0.00977547
0.00255006
0.00200882
0.00673346
0.00063327
0.00672118
3.27959e-05
0.000505796
0.00672568
0.0095902
0.000185851
0.000298546
0.0139287
3.20385e-05
0.00678272
0.00199425
0.00314704
3.39875e-05
0.000563969
0.00965325
0.00547334
0.000856611
0.0149406
4.28683e-05
0.000846709
0.00131604
0.000142285
3.55801e-05
0.0120548
0.000120511
0.000378428
0.0141795
0.00154844
0.000756833
0.00849576
0.000102119
0.00677401
0.0020022
0.00580806
0.000328231
0.00557681
0.000190325
0.000394887
0.000448591
0.00854269
0.00111576
0.00988173
0.00192581
0.000409086
0.00047405
0.000288112
0.000885375
0.00632922
0.00166817
0.0112787
0.00672634
0.000786806
0.00675498
0.00131595
0.00481603
0.000249798
0.0012775
4.02296e-05
0.000163666
9.71559e-05
0.0112164
5.09736e-05
0.00482546
0.00171635
0.013282
0.00674553
0.0067263
0.000881113
0.00340205
0.00672528
0.000558517
6.79845e-05
0.00027633
0.00358856
0.0028968
0.00535476
0.000500344
0.000281771
0.00672059
0.000701351
0.0140385
0.000224487
0.000859827
0.00141627
0.000469786
0.00115562
0.00143223
0.0106116
0.00160933
0.00170768
2.06831e-05
0.000742508
0.00672602
0.00447033
0.00276558
0.00496604
0.00139183
0.000218141
0.00673413
0.00116726
0.00672222
0.000901677
0.00679596
0.000220081
0.00151378
0.000383694
0.00418858
0.000252284
0.0045172
0.00986612
0.00672877
0.000575038
0.00672405
0.000943295
0.00849117
0.00138785
0.00673573
0.000752331
0.00342139
0.000650658
0.0118098
0.00398126
0.0018075
0.000470894
0.000741316
0.0148502
0.00673455
0.000443573
0.00297295
0.00672556
0.000298003
0.0018442
0.006723
0.000907154
0.00443053
0.0011236
0.000324031
0.0100266
0.000635738
0.0106982
0.00119372
0.00672295
0.000372366
0.00280563
0.00292999
0.000336068
0.00125183
0.000145155
0.00673734
0.000626577
0.000493664
0.000559953
0.00674462
0.00672897
0.00112019
0.0017209
0.00672615
0.000239697
0.00676802
0.000726055
0.000753875
0.00116024
3.80256e-05
0.0144258
0.00241246
0.00126041
0.00517264
0.00222508
0.00144653
3.55103e-05
0.00333733
0.000785915
0.00578535
0.000985396
0.000469741
0.000635381
0.0067814
0.0067255
0.00672347
0.00312887
0.000441786
0.00671883
0.00084498
0.0017244
0.00175898
0.000283041
0.0105833
0.000335376
0.00170663
0.0141669
0.00233777
0.0041836
0.00226144
0.000120095
0.00673752
0.00409751
0.00475251
0.00324663
0.00289893
0.0135481
0.00034383
0.0023161
0.00672087
0.00529418
0.0151743
0.00246019
0.000146531
0.000935256
0.00672752
0.000562431
0.000704982
0.00673007
0.00672278
0.0141344
0.00552008
0.00257599
0.00180749
0.0031813
0.000723997
0.000213467
0.0047221
0.00136804
3.01056e-05
0.00514152
0.000306442
0.00181174
0.00275369
0.00157474
4.73851e-05
0.000363272
0.00672662
0.00127631
0.0114718
0.000964307
0.000133974
0.0132755
3.87263e-05
3.89153e-05
0.000587379
0.00214511
0.00672506
0.00672775
0.00324406
0.000851817
0.00215813
0.00269334
0.00134508
0.00672592
0.00410161
0.00575323
0.00127942
0.00172274
0.00936674
0.00016066
0.0017644
0.0101101
0.000405657
0.000790901
0.00672354
0.000495152
0.00286105
0.00257152
0.00119533
0.000895481
0.000646326
0.000106519
0.0129833
0.000333756
0.00464569
0.0110127
0.00672953
0.00293442
0.000172959
0.00672585
0.00493164
0.000702701
0.00965682
0.0059909
0.0115615
0.00258479
0.00678356
0.00124804
3.34067e-05
0.000647758
0.00244626
0.00599061
0.00157364
0.000714249
0.0130486
0.00672507
0.000134697
0.00672084
0.0035499
0.000568691
0.00569368
0.0134014
0.000759252
7.6195e-05
0.00672607
0.00411713
0.000393136
3.37952e-05
0.00306009
9.17574e-05
0.0040807
0.00674294
2.48819e-05
0.00269986
0.00045365
0.00010793
0.00672504
0.00705548
0.0010388
0.00068053
0.000532749
6.62432e-05
0.000236928
0.000189694
0.00160268
0.0132754
0.000357093
0.0028943
0.000364548
0.00124961
0.00364378
0.000466481
0.00369179
0.00182956
0.0120785
0.00168246
0.00674838
5.01444e-05
0.00227211
0.00644491
0.00229698
0.012317
0.000460534
0.00046757
0.00672629
0.00672688
0.00672479
0.00672375
0.000476532
0.000145192
0.000181007
0.000861578
0.00672212
0.00160061
0.00217997
0.000504557
0.00381487
0.00426609
0.00113644
0.000868102
0.00199001
3.82243e-05
0.00966344
0.000155633
0.0113214
0.00344704
0.00673829
8.30107e-05
0.0064195
3.63952e-05
0.00672382
0.00219484
0.00118088
0.0139895
0.00429121
0.000344265
0.00402303
0.000153628
0.000848505
0.0125066
0.000584563
0.0011471
0.000894635
0.00102596
0.00026196
0.00176087
0.00672373
0.000375225
0.00879634
0.00672388
0.00309466
0.00672545
0.00375844
0.00735223
0.012981
0.00672218
0.00375663
0.00203684
0.00525119
0.000232248
0.000609473
0.00328555
0.00672349
0.00672272
0.00167057
0.000789104
0.000754124
0.000288331
0.00570741
0.0137205
0.00218669
0.0154802
5.29663e-05
0.000513698
0.000555424
0.00097077
0.0142513
0.00164584
0.00172249
0.00181343
0.0114701
0.0105359
0.00672243
0.00672536
0.000302463
0.0126611
0.00737529
0.00632838
0.00327481
0.0128708
0.000472566
0.00152081
0.00119942
0.000793698
4.19086e-05
0.00225129
0.0140803
0.00438072
0.00120858
0.000129338
0.00348036
0.00673594
0.00672063
0.000523639
0.00902439
0.00122469
0.00186375
0.00140392
0.000140002
0.00336077
0.00146346
0.00925725
0.00280741
0.00496643
3.91466e-05
0.00672793
0.00672374
0.0112876
0.00672927
0.00677018
0.00122805
4.77279e-05
0.000825408
0.00372162
0.000368873
0.00672743
0.0143653
0.000540106
0.00481655
0.00277677
4.6063e-05
0.000610064
0.00384331
0.00105689
0.013806
0.00672389
0.00917818
0.00569585
0.00937558
0.000107765
0.000224783
0.00521965
0.0022061
0.00017505
0.00120048
0.0105798
0.000560533
0.000343613
0.000357336
0.00118676
0.000397242
0.00419974
0.00139278
0.0122823
0.00295322
0.00672782
0.00456699
0.00102678
0.00303792
0.000689309
0.00672769
0.000561087
0.00201254
4.33534e-05
0.000142264
0.00526227
0.00672103
7.0425e-05
0.00276235
0.000786606
0.00112686
0.000505465
0.00404715
0.00181947
0.00147346
0.00216745
0.00766844
0.0132562
0.0067269
0.00672062
0.00201525
0.00156135
0.00672957
0.00194142
0.000614574
0.000912703
0.00037417
0.00677647
0.0141003
0.00773997
0.00672604
0.00205953
0.00103222
0.0016014
4.09129e-05
0.00206352
0.00738206
0.000396717
0.00109991
0.000832007
0.00672853
0.000363026
0.00413928
0.00318233
0.000300205
0.00923485
0.0105358
0.00672533
0.00672152
0.00141904
0.00350716
0.00042797
0.00159877
0.00042147
0.00204045
0.0108345
0.00302287
0.0152196
0.00672882
0.0137987
0.00235078
0.00672931
0.00896193
3.27765e-05
6.033e-05
0.0011697
0.000146445
0.000842267
0.00600989
0.00693614
0.00672827
0.00672895
6.59806e-05
0.00168713
0.00404943
0.00912059
0.000475887
0.0105952
0.000376597
0.000176683
0.00679132
0.00135599
0.00142165
0.0137401
0.0006605
0.0130824
0.00700108
0.00361468
0.00347266
0.00336844
0.000221019
3.9799e-05
0.00191386
0.00672409
0.000654142
0.000801167
0.000876097
0.00065173
7.32603e-05
0.00672186
3.04061e-05
0.000361151
0.00258087
0.00058356
0.0011884
0.00138849
0.0151547
0.00672039
0.000415012
0.0124294
0.00142973
0.000898376
0.000600899
5.0575e-05
0.00132425
0.0039896
0.00134602
0.000525166
0.00194803
0.00038503
0.00254942
0.0133374
0.00672382
9.00138e-05
4.04625e-05
0.0126709
0.000593643
0.00035144
0.00185153
0.000145253
0.00672558
0.0125194
0.00148942
0.00401841
0.000963188
0.00672243
0.00672569
4.32552e-05
0.00672612
0.00672326
0.00311111
0.000908671
0.00210766
0.000508965
0.00100626
0.000251687
0.000375758
0.00672525
5.87307e-05
3.10242e-05
0.000332164
0.000359145
0.000438878
0.000579478
0.0100799
0.000351038
0.00672606
0.00707396
0.0124062
0.00672603
0.00136878
0.00672609
3.65075e-05
0.00029789
0.00382053
3.76821e-05
0.0130783
0.00672363
0.00216099
0.0133354
0.00816101
0.00173288
0.00673179
0.00410417
0.0119795
4.7479e-05
0.00672548
0.0141098
0.00178353
9.19313e-05
0.0115516
0.00121838
0.00672672
0.000891094
0.000301338
0.0010001
0.0137095
0.0144255
0.00674966
0.00958629
3.50189e-05
0.00811931
0.00672954
0.000113884
0.00201748
0.0050486
0.0152749
0.0024564
0.000763083
0.00347552
0.000442463
0.000604778
0.00682726
0.0138041
0.00395357
0.00673352
0.00243986
0.000270799
0.00578312
0.000823954
0.0152292
0.00917458
0.000614764
0.00227125
0.00402663
0.0151512
0.000647604
0.000738678
0.00674811
0.00127109
0.000315424
0.00272827
0.00016093
2.69445e-05
0.00672364
0.000729645
0.0068425
0.000154875
0.00744826
0.00297561
0.00672567
0.00672633
0.00161131
0.000562495
0.00231149
0.0155049
0.0135854
0.00672219
0.00673637
0.00672396
0.00672298
2.31812e-05
0.0067886
0.0133717
0.000445779
0.00175896
0.00501144
0.000309358
0.0146332
0.00099364
4.19713e-05
0.00836174
0.00196097
0.00368558
0.000255458
0.000208727
4.57344e-05
0.00371166
0.00787205
0.00173557
0.00673845
8.84753e-05
0.0067875
0.000604785
0.00215442
0.0119668
0.000318508
0.00113237
0.000153314
0.000637999
0.00672382
0.000277768
0.00124072
0.00672573
3.88036e-05
0.00672338
0.00188537
0.000831408
0.00236763
0.00820972
0.00113916
3.53111e-05
0.00127268
0.00672656
0.0101161
0.0135389
0.000749411
0.000251118
0.00146035
0.000342997
0.00133756
0.0019403
0.000593004
0.00140962
0.000710249
0.000617162
0.0123058
0.000133506
4.60188e-05
0.00162765
0.0027437
0.0154815
0.00672148
0.0131902
0.000758709
0.0127148
0.000887774
0.00302472
0.00574395
0.000661529
9.08221e-05
0.00395024
0.0153715
8.47503e-05
0.00520577
0.0027343
0.00984531
0.00103042
0.00218668
0.000585524
0.000666979
0.00115345
0.0066454
0.006726
0.00189411
0.00149258
0.000375966
0.00672361
0.00130341
0.00674074
0.0119723
0.000907531
0.000363396
0.000738002
0.000775911
0.000200284
0.00236649
0.000344726
0.00674614
8.0832e-05
0.0150419
0.00306051
0.00316973
0.0108968
0.000992833
4.18094e-05
0.00672832
0.000780692
0.0143655
0.00164828
0.00557591
0.00348841
0.000240078
0.0153287
0.00333832
0.00674263
0.00247542
8.93578e-05
0.000823498
0.0137049
0.000803746
0.000162207
0.000413503
0.000340757
0.00265558
0.00885906
0.01017
0.00137332
0.00071266
0.00119456
0.000321246
0.00594505
0.000869312
0.00200825
0.000234889
0.00673442
3.43344e-05
0.00578812
0.00351648
0.00545259
0.00116775
0.00302415
0.0146676
0.00672809
0.00110394
0.0067252
0.00166087
0.00112026
0.000164673
0.0108844
0.000471661
0.00672161
0.000356744
0.00118428
0.00341502
0.000734493
0.00676166
0.00704044
0.0130552
0.000797841
7.1956e-05
0.00672202
0.000341822
0.00141332
0.000748965
0.0067597
0.00318881
0.00672291
0.00114664
0.00672396
0.00140958
0.0027923
0.00583911
0.0127702
0.0048121
0.000858684
0.00189819
0.00672598
0.0128951
0.00500018
0.000416819
0.0145575
0.00169944
0.0124739
0.00348381
0.0135936
0.00170514
0.0142226
0.00115452
0.00112038
0.00405805
0.000819999
0.00130292
0.00145175
0.000356036
0.0133155
0.000309294
0.000199627
0.000536972
0.00118997
0.000212779
0.000281933
0.000647496
0.0041383
0.00440792
0.00109917
0.000196925
0.00132523
0.0008061
0.0112461
0.00943368
5.997e-05
0.0034385
0.00359643
4.1807e-05
0.00166478
0.000771523
0.00302933
0.00947752
0.004764
0.00219146
0.00503396
0.00148257
0.00761561
0.000126225
0.00672875
0.00468911
0.0031706
0.00500732
0.000891418
0.00141774
0.000442442
0.000823315
0.00242189
0.00121899
6.90263e-05
0.000164473
0.000634796
0.0103111
0.0123602
0.004938
0.0067278
0.00470963
7.22563e-05
0.00290641
0.000151967
0.0113896
0.0117056
0.00673044
0.0063147
0.0130863
6.75104e-05
0.00673412
0.00674878
0.000488786
0.00444492
0.0140931
0.000924146
0.000486271
0.00672467
0.000645002
0.00134001
5.14442e-05
0.000273954
0.0001931
0.00178046
0.00058709
0.00061659
0.00135221
0.00312623
0.000907721
0.0137189
0.000722757
0.00311118
0.00672379
0.0138336
0.000309905
0.000394733
0.00672471
0.00672677
0.000250493
0.00834719
0.00010089
0.00606696
0.0055753
0.00147731
0.0134136
0.0013461
0.00677464
0.00599084
0.00031358
0.000685089
0.00672529
0.0121101
0.00845381
0.00438749
0.000251341
0.00721405
0.000321119
0.00314277
0.0062294
0.00229997
0.00188989
0.000394721
0.00063227
7.21562e-05
0.000357807
0.00674218
0.00237569
0.0103962
0.00555011
0.000350544
0.000480862
0.00449129
0.000594902
0.0067263
0.000934966
0.000721188
0.00672299
0.00970661
0.00672819
0.000295612
0.014266
0.000445059
0.00230098
0.00672628
0.0143035
0.00672817
0.00113372
0.0019016
0.000141106
0.000168948
0.00076096
0.0138786
0.00019443
0.000563411
0.00146924
0.000977743
0.00570858
0.00672398
0.00431257
0.0130379
0.000207386
0.00122565
0.000839377
0.000869067
0.00833245
0.0144047
0.000744093
0.000522202
0.00672702
0.0123125
0.00422825
0.00371465
0.000765125
0.0013071
0.000422376
4.19348e-05
0.000170819
0.000420471
0.000809587
0.0152896
0.0013858
0.00672333
0.00306532
0.000150723
0.00674265
0.0106032
0.00672157
0.00672404
0.000547736
0.000163539
0.00333087
0.00674248
0.00067572
0.00673699
3.41003e-05
0.00529373
3.37523e-05
0.00405887
0.0136158
0.00992389
0.00045782
0.0003155
0.0096221
3.57389e-05
0.00672471
0.000377042
0.000169107
0.000321346
3.89669e-05
0.0109546
0.0118938
0.0139042
5.12117e-05
0.00232728
0.000969162
0.0067211
0.00451195
0.00103356
0.00272879
0.00135405
0.0019994
0.00560632
0.000705659
0.0122606
0.00672627
0.00140346
0.00672059
0.00870294
0.00148426
0.0144911
0.0121419
0.000171736
0.00672479
0.00532561
0.00833703
3.66462e-05
0.00672393
6.68895e-05
0.00672509
0.000207711
4.5436e-05
0.000524461
0.000972086
0.003685
0.00674903
0.00577204
0.000877436
0.011343
0.000718222
0.000255997
0.00513769
0.00200583
0.00673142
0.00672324
0.00160765
0.00441363
0.0013714
0.0110446
0.00124424
0.00174979
0.0142442
0.000315834
0.00672742
0.00119107
0.00673435
3.8726e-05
0.00389703
0.000759166
0.00558662
0.00672626
0.00613841
8.97091e-05
0.00312073
3.19315e-05
0.00677742
0.000256295
0.00687969
3.84698e-05
0.00672466
0.00103244
0.00155216
0.000202673
0.0106091
0.00672741
0.00791183
0.000326838
0.000203362
0.00680651
0.00673196
0.0110486
0.000595551
0.00398331
0.00437165
0.0007486
0.00095371
0.000178991
0.0148824
0.00135547
0.000113632
0.00122098
0.00673004
0.00967915
0.00326269
0.0144228
0.00482059
0.00187418
0.00672396
0.00945269
0.0130717
0.00673016
3.84204e-05
0.00100725
0.00672137
0.00457659
0.0067415
3.99879e-05
0.0143301
0.00034199
0.00239436
0.000568727
0.00672509
0.00329705
0.0014669
0.00672279
0.000569146
0.00332065
0.00147318
0.000281721
0.000560098
0.00672239
0.0107649
0.000857618
0.00672482
0.000263098
0.00108096
0.0010096
0.00066803
0.00664339
0.000484887
0.00349085
0.000356124
0.000373678
0.00132817
0.0140891
0.00143954
0.0021079
0.0010187
0.00454042
0.000157653
6.88132e-05
0.000164835
0.00672599
0.00422905
0.00672735
0.000251525
0.0013406
0.00121844
0.00919226
0.00707303
0.0121808
0.0067258
4.2902e-05
0.0145367
0.0152858
0.00522292
0.00312849
0.000900733
0.014491
0.000844645
0.00121366
0.000360844
0.00677582
0.000270487
5.65288e-05
0.000518501
0.0126614
0.000172852
0.00674314
0.000171425
0.000782452
0.00240578
0.00298301
0.00142417
0.0131965
0.000349212
0.00905316
0.00115024
0.00143224
0.00283221
0.000626844
0.00921844
0.00230084
0.00106933
0.0114887
0.0100868
0.000448948
0.00186183
0.000961387
0.00174669
7.60314e-05
0.00156608
0.00014785
0.0150127
0.00675166
0.00354765
0.000213262
0.00124888
0.00672107
0.00672353
0.00359005
3.8308e-05
0.0045093
0.000502146
7.73463e-05
0.000174168
0.0117965
0.0143588
0.0143119
0.0144234
0.000646632
0.00675642
8.40682e-05
0.00636542
0.006765
0.00413566
3.5111e-05
5.8027e-05
3.18459e-05
0.00379038
0.00672563
2.78052e-05
0.00293658
0.00183031
3.16472e-05
0.00620625
0.00672708
4.18866e-05
0.0141299
0.00224094
9.07055e-05
0.000515832
0.00673299
0.0005802
0.0143489
3.85731e-05
0.00672558
0.0040374
0.000597869
0.00181462
0.00672983
0.00234767
0.00241131
0.00314083
0.0024349
0.000332579
0.000237561
0.000181251
3.44716e-05
0.00117478
0.010308
0.000632197
0.00207924
0.000650937
0.00229713
9.9712e-05
0.00672235
0.000583226
0.000417646
0.000567808
5.8228e-05
0.00330026
0.000190174
0.00331576
0.0107776
0.000293652
0.00377737
0.00499054
0.00417311
0.000402099
0.00119689
4.00401e-05
3.82908e-05
3.83672e-05
0.000538445
0.000320416
0.00511079
0.00259794
0.00930947
0.000347002
0.000121539
0.00384177
0.0043206
0.00057702
0.01406
0.00672169
0.00614657
0.000138719
6.70015e-05
0.000286127
0.00505184
0.00672331
0.0010153
0.00295134
0.0024448
0.00106652
9.14988e-05
0.000204493
0.00388425
0.00291296
0.00267649
0.00672503
0.0102125
0.00208639
0.00931095
6.77494e-05
0.00402551
3.59629e-05
0.000187956
0.0123419
0.0024172
0.00195275
0.00626287
0.00672405
0.00282734
3.71829e-05
3.78199e-05
0.0138383
0.00672393
0.00309769
5.21214e-05
0.00672541
0.000268098
0.000876944
4.65924e-05
4.51836e-05
0.000213593
0.000254296
0.00674452
0.000616726
0.000282182
5.45511e-05
6.79793e-05
0.000214446
0.00672379
8.47951e-05
0.00573664
0.000237551
0.0143228
3.68875e-05
0.00314524
6.5579e-05
0.003306
0.000752039
0.00183587
0.00316935
0.00038335
0.00244431
0.0142367
7.28996e-05
0.000217336
7.08762e-05
0.000193273
0.0129446
0.0140915
0.00044226
0.0125503
0.000114799
0.00520823
0.000110163
0.0148504
6.53224e-05
0.00672518
0.000496233
3.37284e-05
0.000265037
0.00268021
0.00293041
0.000256497
0.00672464
0.00547462
0.00161698
9.13051e-05
0.00672559
0.00693859
0.0123936
0.000264328
0.00713059
3.63696e-05
0.0138304
0.000423414
0.00674057
0.00111129
0.00676399
0.000161218
0.000764577
0.000481113
0.000784558
0.000244829
0.00677076
0.0131344
0.00104604
0.000519806
0.0145853
5.48128e-05
0.00570845
0.0146863
0.00422446
0.00284982
0.00672393
0.000405136
0.000137488
0.0147604
0.00100807
0.000426645
0.00302313
2.81246e-05
0.000568645
0.0141663