/*--------------------------------*- C++ -*----------------------------------*\
| =========                 |                                                 |
| \\      /  F ield         | OpenFOAM: The Open Source CFD Toolbox           |
|  \\    /   O peration     | Version:  v2012                                 |
|   \\  /    A nd           | Website:  www.openfoam.com                      |
|    \\/     M anipulation  |                                                 |
\*---------------------------------------------------------------------------*/
FoamFile
{
    version     2.0;
    format      ascii;
    class       surfaceVectorField;
    location    "650";
    object      Uf_0;
}
// * * * * * * * * * * * * * * * * * * * * * * * * * * * * * * * * * * * * * //

dimensions      [0 1 -1 0 0 0 0];


internalField   nonuniform List<vector> 
20673
(
(1.09602 0.128811 1.33296e-20)
(1.10022 0.126366 -1.77265e-20)
(1.0955 0.123734 1.15962e-20)
(1.0219 0.0434696 0)
(1.02066 0.042742 3.8593e-22)
(1.02089 0.0447636 9.68559e-22)
(0.496072 -0.0575337 0)
(0.528765 -0.0598598 -7.83688e-21)
(0.553236 -0.0602863 -8.08177e-21)
(1.06045 -0.00991747 -1.21484e-20)
(1.06055 -0.00882335 6.05441e-21)
(1.05943 -0.00927687 1.65963e-20)
(0.996446 0.0034479 -1.12449e-21)
(0.996271 0.00303307 -6.53779e-21)
(0.995961 0.00364014 1.34075e-21)
(0.37192 0.0575484 -1.3276e-19)
(0.36013 0.0304189 -1.69902e-19)
(0.343102 0.0584148 -1.46907e-19)
(0.446624 -0.0478237 6.9365e-21)
(0.441815 -0.0495498 -2.44915e-21)
(0.487347 -0.0517887 2.12363e-20)
(0.553747 -0.0605354 7.01948e-22)
(0.50708 -0.0582086 -8.40583e-21)
(0.525253 -0.0609194 -1.23775e-20)
(0.389791 -0.0639164 -3.06648e-20)
(0.359606 -0.0606631 -1.6542e-20)
(0.327245 -0.0567523 6.71794e-21)
(1.13676 0.155013 1.29376e-20)
(1.14294 0.155041 1.40313e-20)
(1.14043 0.161093 -6.48246e-21)
(1.12516 -0.0528221 -3.28448e-21)
(1.12408 -0.0532316 -5.04894e-21)
(1.12612 -0.053996 0)
(1.10159 -0.0400671 3.64664e-21)
(1.10233 -0.0413361 -9.84344e-21)
(1.10277 -0.0396424 0)
(1.0614 -0.0101561 -1.71595e-20)
(-0.0268782 -0.00147093 0)
(-0.00621715 -0.00530614 0)
(-0.0327489 -0.00301514 0)
(0.973473 0.0978343 8.63804e-22)
(0.969261 0.0972154 -1.20417e-20)
(0.972378 0.0934737 4.65024e-21)
(0.995518 0.0932804 0)
(0.993235 0.0907448 -9.61843e-22)
(0.996968 0.0895121 3.11177e-21)
(1.01498 0.0492568 5.38693e-22)
(1.01644 0.0489464 2.4907e-22)
(1.01528 0.0476546 4.26405e-22)
(1.144 0.0244814 0)
(1.14497 0.0268488 6.196e-21)
(1.14687 0.0237529 -3.7504e-20)
(1.1005 -0.0408525 -8.81718e-22)
(1.10056 -0.0391828 2.75514e-21)
(1.00156 0.00502881 4.82897e-22)
(1.00157 0.0048049 -1.36917e-21)
(1.00138 0.00463095 -2.76694e-21)
(0.99998 0.000953248 -2.37933e-22)
(0.999968 0.00127267 -1.80171e-21)
(0.999983 0.000962782 -9.77081e-22)
(0.44544 -0.048298 -8.40228e-21)
(0.412581 -0.0480294 -2.32949e-22)
(1.00089 0.00777085 1.39237e-21)
(1.00095 0.00823249 2.37008e-21)
(1.00107 0.00808794 -2.33424e-21)
(0.592806 -0.0651714 1.88682e-20)
(0.603032 -0.0659106 6.56487e-21)
(0.995277 0.0155452 -6.87083e-22)
(0.994798 0.0153358 -6.55979e-22)
(0.995029 0.0161363 2.62701e-21)
(0.491353 -0.048088 -7.44908e-21)
(0.457056 -0.045007 1.1773e-20)
(0.453847 -0.0465027 -2.87352e-21)
(0.788464 0.0361195 3.14056e-21)
(0.779469 0.0416965 6.82898e-21)
(0.780739 0.0298074 5.00601e-22)
(0.760678 0.120258 2.30063e-20)
(0.75914 0.132777 0)
(0.750251 0.123552 5.82652e-21)
(0.714427 0.556992 0)
(0.745381 0.56743 0)
(0.723598 0.600722 0)
(1.19609 0.100709 4.43445e-20)
(1.19573 0.0958588 1.56329e-20)
(1.20076 0.0970475 5.05522e-20)
(1.11453 0.115949 3.65102e-21)
(1.11129 0.118933 2.78446e-22)
(1.11029 0.114284 3.03239e-20)
(1.06298 0.0937045 4.86524e-23)
(1.06004 0.0943432 8.60542e-21)
(1.061 0.0909738 2.21876e-20)
(0.841789 0.0711194 -5.85496e-21)
(0.834006 0.073807 3.8449e-20)
(0.835338 0.0643659 -3.31735e-20)
(0.908049 0.00286452 2.87518e-20)
(0.910809 -0.000143831 4.29074e-20)
(0.912066 0.0037472 4.4595e-20)
(0.991578 0.0122896 4.24777e-21)
(0.991036 0.0129473 3.79928e-21)
(0.991747 0.0131922 -1.34531e-22)
(1.13359 -0.0633396 1.33803e-20)
(1.13198 -0.0637977 1.31581e-20)
(1.11211 -0.0653793 2.44878e-20)
(1.00075 0.0074199 -1.5945e-22)
(1.00089 0.007323 3.97112e-23)
(0.111054 -0.0275951 0)
(0.0873021 -0.0244791 0)
(0.0988125 -0.0251457 -3.95491e-21)
(1.06767 -0.0138057 -6.53818e-21)
(1.06869 -0.0145852 -5.09303e-21)
(0.235965 -0.00726605 1.58187e-21)
(0.212034 -0.00464065 1.27717e-21)
(0.239383 -0.00678417 -1.44838e-20)
(1.00859 0.000946144 1.38302e-23)
(1.00898 0.000930492 1.55402e-23)
(1.00814 0.000536505 -2.02077e-23)
(0.999995 0.000678965 2.90837e-21)
(1 0.000318648 2.1648e-21)
(1 0.000349166 -2.79799e-21)
(1.02171 0.00276154 -3.31467e-21)
(1.02137 0.00293096 -3.52814e-21)
(1.02126 0.00259582 3.70635e-21)
(0.696164 0.195793 -2.80824e-20)
(0.712539 0.203557 1.06987e-20)
(0.695564 0.217554 0)
(1.03961 0.0260268 0)
(1.04055 0.026813 4.9287e-22)
(1.04086 0.0258898 0)
(0.890908 0.0188827 1.16153e-20)
(0.889478 0.0143124 -2.79381e-20)
(0.894862 0.0154581 2.54798e-20)
(1.14325 0.0212612 0)
(1.14091 0.0243794 1.86372e-20)
(1.14788 -0.00821816 1.49903e-20)
(1.14646 -0.00592721 3.23583e-21)
(1.14517 -0.00850328 -6.24667e-21)
(0.0906251 0.122843 -3.19616e-21)
(0.089972 0.158453 1.18516e-19)
(0.1197 0.137367 6.83936e-20)
(1.00329 0.00076063 -1.89067e-22)
(1.0036 0.00069138 -2.80691e-22)
(1.00354 0.00106916 1.99939e-23)
(1.08864 0.0182566 0)
(1.08963 0.0193075 -9.36759e-21)
(1.09023 0.01774 0)
(0.966211 0.0107629 2.10875e-21)
(0.964996 0.00943014 -1.27569e-20)
(0.964612 0.0115207 -1.12195e-20)
(0.0843445 0.0929401 -2.32075e-19)
(0.0509564 0.1254 -1.00065e-19)
(0.904969 0.00597278 1.50623e-20)
(0.903843 0.0015273 -1.18386e-20)
(1.0147 0.0508202 7.14879e-25)
(1.01338 0.0493008 1.34884e-22)
(1.08785 0.0409572 1.20597e-20)
(1.08702 0.0430044 2.88936e-21)
(1.08957 0.042765 1.13455e-20)
(1.1265 -0.0525285 -2.4737e-20)
(1.12494 -0.0515259 8.33406e-22)
(0.995283 0.0311452 -2.77626e-21)
(0.99532 0.0296984 3.52915e-22)
(0.996375 0.0306972 -1.24825e-21)
(1.0728 0.046976 0)
(1.07489 0.0480804 0)
(1.07278 0.049405 -7.95661e-21)
(1.03841 0.0261317 7.79756e-21)
(1.03862 0.025216 5.4385e-21)
(0.579028 0.0586129 4.86844e-20)
(0.433485 0.0410314 -3.92937e-20)
(0.489113 0.045719 1.25612e-21)
(1.0232 0.0428053 1.36592e-22)
(1.02325 0.0447952 0)
(-0.0253832 0.000872242 -1.91005e-20)
(1.00156 0.00523079 1.39292e-21)
(1.00175 0.00542128 5.45385e-22)
(0.379654 0.0924386 9.87103e-20)
(0.40332 0.0619374 9.24993e-20)
(1.11282 0.386403 -1.45782e-19)
(1.07375 0.358835 4.45892e-20)
(0.817612 0.273539 -9.1303e-20)
(0.995735 -0.000358806 -3.66814e-21)
(0.995279 -0.000151709 5.10799e-21)
(0.987726 -0.000514231 5.21691e-22)
(0.988489 -0.000589042 -2.29539e-20)
(1.15989 -0.0426726 6.36401e-21)
(1.15799 -0.0437076 -2.25607e-20)
(1.16122 -0.0449801 3.68532e-20)
(1.06115 0.138986 5.30096e-21)
(1.06645 0.139116 -8.14213e-21)
(1.06284 0.144997 1.04316e-20)
(0.996872 0.00330157 -5.90707e-21)
(0.996588 0.00386251 -4.36541e-21)
(0.454551 -0.0707234 5.60574e-21)
(0.419847 -0.0675116 -2.92863e-20)
(-0.116633 -0.0162934 1.05159e-20)
(-0.093306 -0.0197934 1.0559e-20)
(-0.100909 -0.0187682 6.23971e-20)
(0.995931 0.0157074 4.23554e-21)
(0.995657 0.0147556 0)
(0.0908061 0.1933 0)
(0.125542 0.211726 6.46468e-20)
(0.0928347 0.231896 -7.91507e-20)
(1.09603 -0.04867 2.03895e-21)
(1.0951 -0.0480283 -8.4803e-21)
(1.0961 -0.0474066 2.43428e-21)
(-0.113917 -0.00943722 -2.11369e-20)
(-0.0904913 -0.0138541 -3.45611e-20)
(-0.104813 -0.00968571 -6.41679e-21)
(1.05564 0.0286847 -1.13968e-20)
(1.05701 0.0292805 -1.15347e-21)
(1.05578 0.0302822 -1.00618e-20)
(0.46539 -0.0412399 -8.95793e-21)
(0.462772 -0.0429996 9.46384e-21)
(0.499458 -0.0448125 -2.82355e-21)
(0.999935 0.00189748 3.59582e-21)
(0.999882 0.00220566 -1.12481e-22)
(0.999903 0.00224906 0)
(1.00006 0.00305633 -2.58076e-21)
(1.00007 0.00335807 -4.03928e-21)
(1.00009 0.00298905 6.25491e-21)
(0.996142 -0.000100862 -1.03019e-20)
(0.38929 0.118769 2.31604e-20)
(0.399806 0.148917 7.95448e-20)
(0.421146 0.124813 -6.25969e-20)
(0.138375 -0.0316049 0)
(0.126982 -0.0311301 -2.35382e-20)
(-0.0714321 0.0170918 -6.63021e-20)
(-0.112395 0.0140137 3.27219e-20)
(-0.101359 0.0137376 3.14016e-20)
(1.05419 0.0281875 -1.92096e-21)
(1.05541 0.0272963 1.21269e-20)
(1.00037 0.00425414 7.78386e-22)
(1.00043 0.00417642 -8.93214e-22)
(1.00031 0.00385162 3.71291e-21)
(1.12957 0.413993 1.53321e-20)
(1.21213 0.443813 -8.30791e-20)
(1.08707 0.0171772 -1.14035e-20)
(1.08676 0.0189935 -7.99407e-21)
(1.022 0.0026651 -9.61256e-21)
(1.02211 0.00298882 -3.42517e-21)
(-0.0159838 -0.0269426 -1.74877e-20)
(-0.041797 -0.0238278 1.65953e-20)
(-0.0293495 -0.0246817 0)
(1.18049 0.134603 9.00293e-21)
(1.17449 0.136586 1.10269e-20)
(1.17784 0.14099 -3.77937e-20)
(1.02398 0.0252732 -1.79739e-21)
(1.02435 0.0244805 -2.5872e-21)
(1.02332 0.0244141 2.12532e-22)
(0.974423 0.0536327 -1.07703e-20)
(0.972352 0.0548652 -4.49635e-22)
(0.974816 0.0561944 1.15463e-21)
(1.18904 0.439542 1.11459e-19)
(1.06257 0.409025 1.13299e-19)
(0.374166 0.00336131 0)
(0.402955 -0.00374756 0)
(0.380112 -0.0312201 -1.17318e-20)
(1.13704 -0.0410711 1.35995e-20)
(1.13866 -0.0410811 9.33095e-21)
(1.13795 -0.0427882 -1.99326e-20)
(1.14538 0.000854203 -2.69321e-20)
(1.14802 0.00105494 4.18318e-20)
(1.14657 0.00324148 2.76007e-20)
(1.10377 -0.0554322 1.59394e-21)
(1.10382 -0.0561324 1.47965e-21)
(1.10299 -0.056021 -5.25903e-22)
(0.594451 0.131034 0)
(0.614503 0.116656 4.29311e-21)
(0.616266 0.142996 -4.43959e-20)
(1.01127 0.00589092 3.63485e-22)
(1.01173 0.00601276 -9.43387e-22)
(1.01154 0.006409 -3.61184e-22)
(0.841032 -0.000562431 -1.22254e-20)
(0.84442 0.0067958 -4.34267e-20)
(0.848568 5.23827e-05 2.47192e-20)
(0.679902 0.189011 -2.58654e-21)
(0.697876 0.180537 -2.55046e-20)
(1.06358 0.0231214 1.39515e-22)
(1.06488 0.0229254 -3.54797e-21)
(1.06383 0.0215895 -5.40307e-21)
(1.0167 0.0130064 1.58927e-21)
(1.01674 0.0124222 -2.28646e-22)
(1.01732 0.0129896 1.5992e-21)
(0.408989 -0.0611184 0)
(0.399037 -0.0605889 1.96874e-20)
(0.475893 -0.0622436 0)
(0.817717 0.494964 2.10815e-21)
(0.789693 0.512722 -1.91344e-20)
(0.828246 0.520833 4.46128e-21)
(1.14891 -0.00983035 6.77701e-21)
(1.15011 -0.00775636 7.50382e-21)
(1.01804 0.0485658 1.35758e-22)
(1.01795 0.0503615 1.0117e-24)
(1.11284 0.128903 1.71482e-20)
(1.10914 0.131563 -1.34575e-20)
(1.11388 0.133928 0)
(-0.159567 -0.00973213 4.81524e-20)
(-0.189485 -0.00926429 -7.03225e-21)
(-0.176748 -0.00950269 2.79169e-21)
(0.25298 -0.00962615 0)
(0.229703 -0.00656048 0)
(1.10467 -0.046023 1.09844e-20)
(1.10389 -0.0466198 -1.67911e-20)
(1.10487 -0.046942 1.31368e-20)
(0.408645 -0.062427 2.12698e-20)
(0.345815 -0.0609897 0)
(0.949203 0.00906004 2.51111e-20)
(0.947804 0.0110857 -1.13118e-20)
(0.947116 0.00835864 1.31753e-20)
(0.0881634 -0.131897 -1.07892e-19)
(0.099273 -0.101984 4.24327e-20)
(0.0611409 -0.107055 3.36086e-20)
(1.00097 0.0140875 -6.52163e-22)
(1.00105 0.0147583 -6.2449e-21)
(1.00068 0.0144156 -6.41716e-21)
(0.181149 0.0964222 -2.06489e-21)
(0.21124 0.0780025 1.55595e-20)
(0.212313 0.113148 1.13539e-19)
(0.128327 -0.00711063 0)
(0.135109 -0.00849386 -9.25971e-21)
(0.148644 -0.0114775 -1.04415e-22)
(0.907486 0.0139028 -1.74896e-20)
(0.904647 0.0171501 2.45389e-20)
(0.90925 0.0176208 2.10114e-20)
(1.00001 0.00102323 -1.90605e-21)
(0.999988 0.00101022 -8.61093e-22)
(1.16167 -0.0417884 -2.56076e-20)
(1.15902 -0.0409027 -2.71211e-20)
(0.0981576 -0.00877264 -1.10874e-20)
(0.117536 -0.0120466 7.10742e-21)
(0.110896 -0.0115465 1.09966e-20)
(0.762639 0.108415 3.44063e-22)
(0.774239 0.117189 4.14783e-20)
(1.00501 0.000670162 0)
(1.00525 0.000976357 -1.90265e-23)
(1.00535 0.000571053 0)
(0.974388 0.0509173 0)
(0.976687 0.052262 -5.19237e-21)
(1.03541 0.0291877 -1.15942e-21)
(1.03618 0.0301298 1.59766e-21)
(1.03505 0.030155 1.56947e-21)
(1.00469 0.000684894 1.81855e-22)
(1.00456 0.000335483 0)
(1.01847 0.00204312 9.26267e-22)
(1.01874 0.00187222 -1.12978e-21)
(1.0184 0.00174534 9.82908e-22)
(0.346007 0.00434932 0)
(0.209572 -0.0253057 -2.15608e-21)
(0.199402 -0.0228985 0)
(0.188607 -0.0202174 -1.59915e-20)
(0.950747 0.00667649 -1.74617e-20)
(0.951741 0.00941594 -1.08202e-20)
(1.04146 0.0275714 -1.21871e-21)
(1.04019 0.0277815 -1.44629e-22)
(0.999968 0.000926991 7.26645e-21)
(0.999998 0.000634998 5.61876e-21)
(1.24191 0.00182033 -5.91998e-22)
(1.26154 0.00459468 -2.35487e-20)
(1.21061 -0.00509671 5.7552e-20)
(0.637821 -0.069094 0)
(0.582157 -0.065007 0)
(1.09621 0.133616 -1.34239e-20)
(1.09179 0.130583 -1.09136e-20)
(0.577961 0.142123 4.37344e-20)
(0.578506 0.114291 0)
(0.995237 0.000313574 4.47294e-21)
(0.994781 4.23787e-06 -3.44338e-21)
(0.906057 0.00994956 -1.30113e-20)
(0.910307 0.0110901 -5.48596e-20)
(1.13496 -0.0628904 6.18443e-21)
(1.13257 -0.062672 -1.88072e-20)
(1.12446 -0.0614054 -9.13571e-21)
(1.02587 0.0138658 2.83541e-21)
(1.02579 0.014459 0)
(1.02507 0.0139033 -2.59982e-21)
(0.963354 0.0228622 4.25705e-21)
(0.961212 0.0236277 -2.29619e-21)
(0.961948 0.0210094 1.78162e-20)
(0.663054 0.192846 1.05616e-19)
(0.642721 0.198998 -1.45447e-20)
(0.661165 0.215747 4.17704e-20)
(0.987508 0.000221883 3.16324e-21)
(0.986942 -0.000330279 2.10349e-20)
(0.655179 -0.0716648 1.11871e-20)
(0.57852 -0.0680762 0)
(0.650935 -0.0708765 3.84135e-20)
(0.806363 0.599655 -1.06352e-21)
(0.81403 0.570481 -6.64949e-21)
(0.779475 0.571462 -2.66704e-21)
(0.967527 0.0123846 1.72687e-20)
(0.968092 0.0102071 1.61223e-20)
(1.02439 0.0116812 -2.09157e-21)
(1.02443 0.0122534 -2.08017e-21)
(1.02374 0.0117298 -7.08821e-22)
(1.05753 0.100945 4.44185e-22)
(1.05388 0.101333 -2.88419e-21)
(1.05636 0.105221 -4.62721e-21)
(1.12264 -0.0173962 -7.31487e-21)
(1.12412 -0.0188454 -3.2175e-20)
(1.124 -0.0162432 -4.54957e-20)
(0.11229 -0.153172 -4.8873e-20)
(0.0728298 -0.162547 -1.25484e-19)
(1.1198 -0.0387711 1.45398e-20)
(1.1213 -0.0392046 -8.33824e-21)
(1.11994 -0.0401032 -1.84628e-20)
(1.02248 0.184104 1.05431e-21)
(1.02565 0.179285 2.54917e-21)
(1.03007 0.183467 5.86273e-21)
(1.08037 0.0666986 0)
(1.07822 0.0686207 -9.69731e-21)
(1.07756 0.0656254 0)
(-0.033735 0.0472906 -2.87377e-20)
(-0.0522467 0.0532568 -1.45033e-19)
(-0.0848469 0.0458628 -6.13293e-20)
(1.0561 0.139417 -2.53512e-21)
(1.05906 0.134569 1.07938e-20)
(1.06918 -0.0737666 -1.45647e-20)
(1.10559 -0.0711072 -3.14642e-20)
(1.11562 -0.0701687 -7.51849e-21)
(-0.144294 -0.00704054 0)
(-0.121297 -0.0100519 0)
(1.27396 0.00513123 -4.20719e-20)
(1.20052 0.00311555 3.43376e-20)
(0.941612 0.0451821 0)
(0.938805 0.0468175 0)
(0.938679 0.0431699 0)
(0.789387 -0.027213 -2.60408e-21)
(0.783682 -0.01875 6.52143e-20)
(0.777847 -0.029728 4.90932e-20)
(1.00001 0.00236303 -2.93919e-21)
(1.00003 0.00227797 1.05727e-21)
(0.999985 0.00195039 1.39673e-21)
(1.13512 -0.0416582 -1.40915e-21)
(1.1359 -0.0396799 4.40595e-21)
(1.10568 -0.0453896 -2.47449e-21)
(1.10446 -0.0449202 1.27904e-20)
(1.10386 -0.0548075 -1.20299e-20)
(1.10458 -0.0550157 0)
(1.06333 0.0244335 5.74218e-21)
(1.06229 0.0231873 5.42052e-21)
(1.13397 -0.0090076 8.49386e-21)
(1.13266 -0.0106593 5.20135e-20)
(1.13512 -0.0111525 5.36005e-20)
(1.0332 0.0219952 -1.05171e-20)
(1.03403 0.0226628 2.27181e-21)
(1.03295 0.0228864 3.76922e-22)
(0.837893 -0.00683983 -2.47585e-20)
(0.833319 0.000332654 -6.1034e-20)
(1.04772 0.178566 -9.24324e-21)
(1.04054 0.177869 1.08528e-22)
(1.04586 0.171889 -5.12154e-21)
(-0.290027 0.000338575 0)
(-0.306419 0.00146274 0)
(-0.277154 0.000220257 0)
(1.10231 -0.0488771 -7.3671e-21)
(1.10308 -0.0496579 2.06705e-20)
(1.10333 -0.0485463 1.83809e-20)
(1.01377 0.0572651 3.84294e-22)
(1.0137 0.0590993 0)
(1.01191 0.0578139 -1.9044e-21)
(0.755211 -0.0739325 4.86249e-21)
(0.746928 -0.0747104 -1.98586e-20)
(0.820099 -0.0743448 -2.03201e-21)
(1.01431 0.201859 3.80639e-22)
(1.01132 0.206773 -8.83325e-22)
(1.01911 0.206753 -4.76636e-22)
(0.219433 -0.0255837 3.25629e-22)
(0.234473 -0.0281631 -2.53495e-21)
(0.15026 0.0794533 -1.41151e-20)
(0.150846 0.116827 -8.02961e-20)
(0.669187 -0.0727764 -1.45206e-20)
(0.738035 -0.0730913 1.10493e-20)
(1.01277 0.0273483 0)
(1.01347 0.028065 -3.54593e-22)
(1.01259 0.0282299 2.28416e-22)
(1.18614 0.133385 -1.8438e-20)
(1.18259 0.12909 3.2571e-20)
(1.11956 0.117622 2.44338e-21)
(1.11826 0.112982 -1.0605e-20)
(1.0266 0.0137763 -4.2219e-22)
(1.02585 0.0132429 2.8294e-21)
(1.00034 0.00435402 -2.97995e-22)
(1.00043 0.0047008 -1.57718e-21)
(0.936299 0.118375 -1.14881e-20)
(0.932421 0.114356 -2.50948e-20)
(0.938519 0.113871 -5.01543e-21)
(0.53305 -0.0514376 6.691e-21)
(0.529071 -0.0514258 -1.89363e-21)
(1.25546 0.144349 2.36175e-20)
(1.26307 0.142673 2.19172e-20)
(1.26376 0.14969 -1.03086e-20)
(-0.015716 0.0472781 1.84967e-19)
(0.0527982 0.062084 5.84621e-20)
(1.11884 0.0451049 -9.71387e-21)
(1.11832 0.047662 2.85893e-20)
(1.12107 0.0465219 -8.396e-21)
(1.10998 -0.0519789 -1.36869e-21)
(1.10924 -0.0524129 -3.25521e-20)
(1.10981 -0.0528482 -1.14894e-21)
(1.14211 -0.063774 8.7895e-21)
(1.14871 -0.0650135 1.06958e-20)
(1.15105 -0.0649468 -1.36707e-20)
(-0.0250326 0.0194551 -4.93448e-20)
(-0.0382535 0.018833 -1.10509e-19)
(1.24816 0.187604 6.80916e-22)
(1.24868 0.181 7.28965e-22)
(1.25641 0.185159 -2.93133e-20)
(0.999741 0.00816431 0)
(0.999827 0.00775193 3.13645e-23)
(0.999661 0.00763658 -2.65558e-21)
(0.567066 0.0525412 -3.79513e-20)
(0.57255 0.0725677 1.11726e-20)
(0.547799 0.0666961 1.78506e-20)
(0.796946 0.0327938 -2.14711e-20)
(0.796055 0.043955 -1.94165e-20)
(1.00977 0.000398982 9.36696e-22)
(1.00939 0.000394167 -3.1614e-22)
(1.02355 0.0259323 0)
(1.02467 0.0260901 1.66764e-21)
(0.865776 0.462218 -3.1621e-21)
(0.86064 0.435075 -3.35218e-21)
(0.887492 0.443947 5.20324e-21)
(1.2208 0.491312 -5.38869e-20)
(1.22274 0.47123 1.47982e-21)
(1.12812 0.442431 -2.39104e-20)
(1.08021 0.000318678 0)
(1.0814 -0.000437416 0)
(1.08164 0.000971423 0)
(1.00311 0.000911508 -7.88565e-23)
(1.00309 0.000569594 -4.94427e-22)
(1.12771 -0.0119965 -2.51772e-21)
(1.12627 -0.0103651 -1.93941e-23)
(1.12894 -0.0100968 5.0899e-23)
(1.12156 -0.0189856 3.13879e-20)
(1.12078 -0.0165599 3.18277e-20)
(-0.131742 -0.0141558 -1.49037e-20)
(-0.138754 -0.0135409 -2.2386e-20)
(1.23652 -0.0354415 -2.67044e-20)
(1.2374 -0.0377541 -1.84447e-20)
(1.24408 -0.0350737 -2.7729e-20)
(0.992054 0.0118532 -1.30757e-23)
(0.991581 0.0116647 3.31819e-21)
(0.994205 0.0313847 2.20295e-22)
(0.995224 0.0323373 6.99839e-21)
(1.14298 0.000623359 -5.51152e-20)
(1.14413 -0.00151712 -5.22497e-20)
(0.509388 -0.0541624 0)
(0.561517 -0.0565119 0)
(0.545523 -0.0561704 0)
(0.965228 0.0218641 -1.69209e-20)
(0.964935 0.0242539 -1.72791e-20)
(0.434695 -0.0502866 -8.44618e-21)
(0.425763 -0.0504269 1.7902e-20)
(0.474077 -0.0529491 -2.43931e-20)
(-0.184758 -0.00831984 -1.34902e-20)
(-0.16066 -0.0102637 -1.55616e-20)
(-0.178568 -0.00820884 8.18395e-22)
(1.11009 -0.0511268 -1.63187e-22)
(1.11096 -0.0518198 -1.51131e-20)
(1.0162 0.0129215 -1.4406e-21)
(1.01667 0.0134644 -1.82215e-22)
(0.492561 0.387093 -4.5677e-20)
(0.512146 0.421977 4.50567e-20)
(0.459301 0.422843 -1.8219e-20)
(1.13558 0.000333254 0)
(1.13808 0.000350012 0)
(1.13664 0.00253381 0)
(-0.276096 -0.00505354 -3.72613e-20)
(-0.245927 -0.00791165 1.69555e-20)
(-0.262761 -0.00452433 5.30306e-20)
(1.00295 0.018664 -1.47068e-21)
(1.00334 0.0190844 -2.49608e-21)
(1.00296 0.0194722 5.70554e-22)
(0.724392 0.0800015 2.01825e-20)
(0.680693 0.0774665 5.16623e-20)
(1.01201 0.0265209 4.44667e-22)
(1.01287 0.0264632 0)
(1.19267 0.0747808 -3.5683e-20)
(1.18899 0.0724403 2.67825e-20)
(1.18879 0.0767287 4.51757e-21)
(1.00844 0.00123146 -1.21929e-22)
(1.00822 0.000851437 0)
(0.0885227 -0.0309947 -2.13552e-21)
(0.0652958 -0.0289402 -4.54362e-21)
(0.0829019 -0.0296171 1.47906e-20)
(0.390637 -0.0599296 1.00193e-20)
(0.381122 -0.059499 -3.00821e-20)
(0.454841 -0.0603051 1.76541e-20)
(0.994954 0.0966003 0)
(0.998578 0.0953966 0)
(1.17298 0.485891 -6.28939e-20)
(1.21521 0.498502 -3.02956e-20)
(1.1841 0.467641 0)
(1.08322 0.0674473 -1.61213e-20)
(1.08191 0.0645954 -7.2683e-21)
(1.01549 0.0127695 -1.21942e-21)
(1.01562 0.0122129 -4.18259e-21)
(1.13266 -0.0631528 5.95259e-21)
(1.13346 -0.0635218 1.42321e-20)
(1.10133 -0.0492264 -2.15665e-20)
(1.10153 -0.0481222 -3.07141e-20)
(1.11674 0.0437217 -1.31026e-20)
(1.11916 0.0426151 -1.43719e-20)
(0.614199 -0.0636363 3.79355e-21)
(0.569883 -0.0624892 6.53573e-21)
(0.63519 -0.0638373 7.30935e-21)
(-0.192797 -0.00522111 -1.18924e-20)
(-0.212628 -0.00464481 -3.04771e-20)
(1.01233 0.00325427 9.69672e-22)
(1.01274 0.00331348 -3.09701e-22)
(1.01252 0.00286506 1.44431e-21)
(1.06591 0.0927625 -1.28827e-20)
(1.06514 0.0965128 -3.09632e-20)
(0.00146548 -0.0302438 3.68169e-20)
(0.0137846 -0.030936 -8.12762e-21)
(-0.125033 0.0180138 -4.87041e-21)
(-0.153082 0.0157122 -5.28878e-20)
(-0.128506 0.0184253 -5.21788e-20)
(0.999992 0.00232848 -1.92172e-21)
(0.999973 0.00271427 -4.80506e-21)
(1.0061 0.00915087 0)
(1.00653 0.00941172 0)
(1.00628 0.00962001 4.90017e-22)
(0.272948 -0.00711371 1.90598e-20)
(0.290893 -0.0096653 1.89518e-20)
(1.14339 -0.0426029 1.7269e-20)
(1.14174 -0.0429162 -1.04975e-20)
(1.14251 -0.0445803 -3.68227e-20)
(1.00006 0.000132661 4.39075e-22)
(1.00003 0.000101648 5.30956e-22)
(1.00006 0.000166612 -1.12994e-22)
(1.12142 -0.061357 3.33942e-21)
(1.11954 -0.0614011 1.37698e-20)
(1.11399 -0.0603444 2.78709e-20)
(1.18106 0.017314 2.13972e-20)
(1.17981 0.0139871 -1.02955e-20)
(1.17718 0.0171212 0)
(0.798648 -0.0270697 2.25393e-20)
(0.794174 -0.036749 -2.34363e-20)
(1.09287 0.111542 -1.72891e-21)
(1.09586 0.11516 2.53184e-22)
(1.09658 0.110123 -1.00282e-20)
(1.00002 0.00267536 -6.34884e-23)
(1.00004 0.00226388 2.43934e-21)
(0.980082 0.212868 -2.4468e-22)
(0.98157 0.203215 1.02073e-22)
(0.971814 0.207321 1.40727e-21)
(-0.155997 -0.00858919 -1.06236e-20)
(-0.153333 -0.00768829 2.84319e-20)
(-0.184555 -0.00422874 -5.74249e-20)
(1.04298 0.00461983 1.80809e-21)
(1.04325 0.00396078 3.89976e-21)
(1.04404 0.00452953 3.9917e-21)
(1.20199 0.149378 3.87902e-20)
(1.19634 0.152594 2.26462e-20)
(1.19712 0.144872 -1.11576e-20)
(0.567785 0.159671 1.43814e-20)
(0.583105 0.180467 -3.38079e-20)
(0.55322 0.185608 -3.29298e-20)
(1.03463 0.0282188 -4.11743e-22)
(1.03573 0.0281142 -2.86922e-21)
(0.99541 0.0284115 1.43265e-21)
(0.994434 0.0287763 -1.00649e-22)
(1.11494 -0.0334941 0)
(1.1165 -0.0342355 1.04394e-21)
(1.11492 -0.0350321 1.02024e-20)
(0.30492 -0.0147747 -1.05301e-20)
(0.290204 -0.0123768 -8.87739e-21)
(0.288199 -0.0124011 7.73724e-21)
(1.11826 -0.0385915 9.40484e-21)
(1.11964 -0.0374355 3.26132e-20)
(0.939213 0.122821 1.09024e-20)
(0.933593 0.123936 6.01007e-22)
(0.977421 0.0977828 2.9802e-21)
(0.974762 0.101573 -1.36266e-20)
(1.00005 0.000288262 8.9859e-22)
(1.00005 0.000250588 -8.56039e-22)
(1.00002 0.000169498 -1.77543e-22)
(0.0796132 -0.00615264 5.2182e-21)
(0.086134 -0.00649087 -1.70569e-20)
(0.552639 -0.0357452 1.77644e-21)
(0.640044 -0.0388084 1.44539e-20)
(0.634695 -0.0359812 -2.74535e-20)
(1.12299 -0.0623653 0)
(1.12498 -0.0631948 2.31115e-20)
(1.12456 -0.0637623 0)
(1.01494 0.0126795 2.07428e-21)
(1.01543 0.013258 2.65278e-21)
(-0.170279 -0.0117115 2.22056e-20)
(-0.144574 -0.0147119 2.21361e-20)
(-0.155263 -0.0131229 2.65667e-20)
(-0.00721185 -0.0100296 7.77885e-21)
(-0.0021505 -0.00905286 -1.88463e-20)
(-0.02639 -0.00578007 3.21189e-21)
(1.01375 -0.0745039 0)
(1.03157 -0.0737411 0)
(0.463545 -0.0416763 -1.43643e-20)
(0.435778 -0.0405666 -1.01067e-20)
(1.09693 -0.0490551 1.65874e-20)
(1.09603 -0.0496075 -2.06931e-20)
(1.00001 0.00309922 1.72407e-22)
(1.00641 0.000752835 3.74778e-22)
(1.00607 0.000804638 -1.48468e-22)
(1.00648 0.00118299 -3.7415e-22)
(1.1427 0.0191257 1.07873e-20)
(1.14005 0.0188859 1.19714e-20)
(1.14193 0.016606 -2.70583e-20)
(0.0216684 -0.0235555 -3.50964e-20)
(0.00442715 -0.0201496 -4.63615e-21)
(-0.0011718 -0.0201147 3.60795e-21)
(1.16698 -0.0206567 2.63871e-20)
(1.16898 -0.0188983 2.7922e-20)
(1.16956 -0.0222808 6.25534e-21)
(1.07067 0.0460899 0)
(1.07262 0.0448975 1.15819e-20)
(1.23014 -0.0347295 1.33815e-20)
(1.19157 -0.0422212 -2.9523e-20)
(1.08719 -0.0339216 -5.6756e-21)
(1.0862 -0.03329 0)
(1.01838 0.00114253 0)
(1.01834 0.00142079 0)
(1.01861 0.00128088 3.71543e-22)
(0.909709 0.0319522 8.06578e-21)
(0.902 0.0261013 1.62599e-20)
(0.810972 0.0134028 4.05784e-20)
(1.00199 0.00493383 0)
(1.00199 0.00471608 0)
(1.00179 0.00457427 -1.35879e-21)
(0.754328 -0.074548 1.93748e-20)
(0.68422 -0.0738331 4.11691e-21)
(1.07889 0.00138136 0)
(1.07858 -4.8485e-05 0)
(1.00006 0.000102783 0)
(1.0001 0.000161866 -1.11002e-21)
(1.00131 0.110557 4.44085e-21)
(1.00007 0.11525 4.24062e-21)
(0.997267 0.110786 -1.46122e-21)
(1.02057 0.189848 -7.35786e-22)
(1.01615 0.184434 1.95511e-22)
(0.778378 -0.00899187 9.52617e-21)
(0.788646 -0.00845452 6.8185e-20)
(1.12871 -0.0628451 -1.96497e-20)
(1.12385 -0.0615831 -5.51042e-21)
(0.99864 0.145136 -1.02284e-21)
(0.998871 0.151272 -3.42965e-21)
(0.992893 0.147149 6.13749e-21)
(1.04592 0.0107613 2.13534e-20)
(1.04655 0.011639 1.40299e-20)
(1.0454 0.0113976 2.52383e-21)
(1.25298 0.0215111 2.85857e-20)
(1.25644 0.0260701 -1.89882e-21)
(1.27513 0.0228208 6.07581e-20)
(0.652384 -0.0642474 -6.69513e-21)
(0.589351 -0.06451 -7.40423e-21)
(0.477253 -0.0410013 3.12587e-21)
(0.482434 -0.0393133 5.68062e-20)
(1.00251 0.0184138 1.41764e-21)
(1.00286 0.0180465 -1.81008e-22)
(0.997667 -0.0749921 -7.08674e-21)
(1.04524 -0.073284 -1.64782e-20)
(0.986513 -0.0749443 -2.36523e-20)
(0.998499 0.000228901 1.16704e-21)
(0.998394 0.000494886 -1.43663e-21)
(0.998211 0.000279418 0)
(1.04553 0.00989359 6.79506e-21)
(1.04668 0.0100495 5.08711e-21)
(1.00087 0.0133706 1.48263e-21)
(1.00124 0.0137111 3.82941e-21)
(0.83598 0.629776 3.20977e-21)
(0.788972 0.635625 2.961e-21)
(1.00158 0.000938455 0)
(1.00172 0.000819357 0)
(1.00147 0.000735295 -1.40233e-22)
(1.19612 0.0768714 -5.88929e-20)
(1.19631 0.072674 -1.45046e-20)
(1.08915 0.113876 -3.59899e-22)
(1.0895 0.108883 -8.76027e-21)
(1.0323 0.02125 -9.21179e-22)
(1.03338 0.0210779 8.65467e-22)
(1.12887 -0.0137138 -1.89982e-21)
(1.12626 -0.0132157 3.56186e-21)
(1.03784 0.0600851 -7.15887e-22)
(1.03879 0.0583553 2.44009e-21)
(1.04016 0.0602289 -3.34097e-21)
(0.1194 0.0588402 -1.42703e-19)
(0.106782 0.0426429 3.84928e-20)
(0.104437 0.0750536 -2.28698e-19)
(1.01798 0.196539 2.30571e-22)
(1.0106 0.196824 1.56541e-21)
(1.17135 0.130774 6.04083e-20)
(1.16825 0.136899 8.07996e-21)
(1.03106 0.0151475 -1.85628e-21)
(1.03177 0.0158252 8.41351e-22)
(1.03184 0.0149543 -1.6232e-21)
(0.996332 0.028031 0)
(0.995481 0.0272296 0)
(-0.178994 -0.00735662 3.99336e-20)
(-0.20075 -0.00689211 -4.78285e-20)
(-0.205765 -0.00684711 -2.05558e-21)
(0.080548 -0.00867843 1.49995e-20)
(0.0732381 -0.00840334 -8.45312e-21)
(0.0943031 -0.012065 7.36185e-21)
(1.00104 0.0154433 -2.18991e-21)
(1.00137 0.015112 9.12744e-22)
(1.00712 0.000695474 -3.914e-22)
(1.00756 0.000938886 3.30264e-22)
(1.00715 0.0012312 -1.38624e-22)
(0.901641 0.0310815 -5.1787e-20)
(1.01946 0.0407015 -6.3587e-20)
(1.01591 0.0259189 1.77167e-22)
(1.01617 0.0269308 2.10181e-23)
(1.01699 0.0264611 9.14508e-22)
(-0.0679248 -0.0230484 -4.92258e-20)
(-0.0845165 -0.0206904 -1.3101e-20)
(1.03028 0.0146608 -2.95148e-21)
(1.03026 0.0155018 -1.99807e-22)
(0.0931441 -0.0318198 -1.6755e-20)
(0.111526 -0.0334189 -1.48564e-20)
(1.05075 -0.00347468 -2.96666e-21)
(1.05025 -0.00416802 -3.0509e-21)
(1.05122 -0.00413587 1.03968e-20)
(1.21196 0.326213 0)
(1.19978 0.325322 -4.37004e-20)
(1.20475 0.33808 3.09779e-20)
(1.10581 0.00680575 -3.97609e-20)
(1.10563 0.00874829 3.2673e-21)
(1.10776 0.00786087 1.26206e-20)
(0.0976194 0.306867 8.43978e-20)
(0.0959887 0.266709 7.07196e-21)
(0.131104 0.284247 1.03751e-20)
(0.944817 0.0463561 8.69603e-21)
(0.94437 0.0429184 -5.82004e-21)
(1.29939 0.0143983 -6.17254e-20)
(1.2841 0.0129584 -2.83793e-20)
(0.51573 0.294192 8.87494e-20)
(0.488887 0.304525 -9.07103e-20)
(0.516821 0.326698 1.1445e-19)
(1.00534 0.110843 -1.19695e-21)
(1.00292 0.10743 -1.21128e-21)
(1.14433 -0.0412162 7.13314e-21)
(1.14504 -0.042875 6.21652e-21)
(0.950144 0.510055 -6.86156e-22)
(0.967256 0.528074 8.05649e-21)
(0.938057 0.533168 -5.39671e-21)
(0.996934 0.0450138 -5.80825e-21)
(0.995424 0.0444961 -2.49177e-21)
(0.995847 0.0463843 -4.46784e-21)
(0.163788 -0.0257008 -2.18316e-20)
(0.13983 -0.0222655 1.34352e-23)
(0.149427 -0.0228716 2.23912e-21)
(0.582164 0.04139 7.49716e-20)
(0.561494 0.0323915 5.994e-20)
(0.00905369 -0.0125722 2.33216e-20)
(-0.00908027 -0.0105837 2.1388e-20)
(0.923162 0.0194705 3.23533e-21)
(0.919562 0.0207269 -1.34109e-20)
(0.922363 0.0234993 -9.00672e-21)
(0.176244 -0.00700869 -6.53613e-21)
(0.152653 -0.00413755 -4.01533e-20)
(0.178895 -0.00623811 -3.03383e-20)
(1.06912 0.0919149 -1.17011e-21)
(1.07149 0.0953598 0)
(1.07256 0.0917616 -8.91527e-21)
(-0.102032 0.000732226 2.49935e-20)
(-0.0725652 0.00133472 6.23541e-20)
(-0.0621296 0.000176266 3.07719e-22)
(0.522144 0.263118 7.14086e-21)
(0.547505 0.286345 4.45578e-20)
(0.92677 0.35194 -1.36964e-20)
(0.910255 0.34951 4.27101e-21)
(0.919264 0.367088 5.21252e-21)
(0.944808 0.35746 -8.4545e-21)
(0.936528 0.339048 -5.57001e-21)
(0.469733 -0.0567142 1.88927e-20)
(0.443925 -0.0568325 -6.80366e-21)
(0.999761 0.00242206 -9.23863e-22)
(0.999696 0.00269985 -3.3102e-21)
(0.999727 0.00274207 -5.17808e-21)
(1.05462 0.177533 6.66211e-22)
(1.05158 0.184433 -7.9786e-21)
(-0.125431 -0.0112322 3.9533e-20)
(-0.138612 -0.0103973 4.03923e-21)
(0.983397 0.0305121 4.91553e-21)
(0.982468 0.0314248 1.91908e-21)
(0.982131 0.0297116 8.72731e-21)
(1.00263 0.0756066 6.49113e-22)
(1.00343 0.0731862 6.09225e-21)
(1.00066 0.0736391 3.09007e-21)
(0.0131398 -0.00947847 0)
(0.0198532 -0.00946369 0)
(0.84265 0.480824 2.06004e-21)
(0.8749 0.48893 -8.63127e-22)
(1.01752 0.0539766 1.16007e-22)
(1.01749 0.0556281 -2.71798e-22)
(1.01938 0.0551148 -7.08637e-22)
(1.13399 -0.0624685 1.63938e-20)
(1.13174 -0.0625118 -4.9109e-21)
(0.679417 0.552176 0)
(0.705575 0.524087 -3.20257e-20)
(1.00922 0.00521906 0)
(1.00966 0.00549196 0)
(1.00958 0.00499351 1.02366e-22)
(0.121722 -0.00704935 0)
(0.102087 -0.00447233 1.56274e-20)
(1.13975 -0.063004 -1.5282e-20)
(1.13695 -0.0648885 1.81736e-20)
(1.13824 -0.0624662 5.07797e-21)
(1.00198 0.00514689 1.44276e-21)
(1.00219 0.00530789 0)