/*--------------------------------*- C++ -*----------------------------------*\
| =========                 |                                                 |
| \\      /  F ield         | OpenFOAM: The Open Source CFD Toolbox           |
|  \\    /   O peration     | Version:  v2012                                 |
|   \\  /    A nd           | Website:  www.openfoam.com                      |
|    \\/     M anipulation  |                                                 |
\*---------------------------------------------------------------------------*/
FoamFile
{
    version     2.0;
    format      ascii;
    class       volScalarField;
    location    "150";
    object      omega;
}
// * * * * * * * * * * * * * * * * * * * * * * * * * * * * * * * * * * * * * //

dimensions      [0 0 -1 0 0 0 0];


internalField   nonuniform List<scalar> 
13917
(
0.0406217
0.0222086
4.64757
0.0237965
0.0221094
0.431338
4.29025
4.84728
5.60003
0.0668483
0.161808
0.0678399
0.0238786
12.4138
0.0262576
0.0250953
0.02233
0.0550566
0.0666812
0.0221143
0.0222669
4.20796
0.0220954
4.88816
0.0220119
4.08977
0.0411995
0.0534063
0.760523
0.105565
0.0434886
0.0282098
0.0357777
0.0255511
0.0220275
1.56612
0.0221039
3.84181
0.0258068
6.35977
0.0219083
0.0222858
0.0215836
0.0814305
0.0221057
0.0272793
0.0542312
0.0720345
2.80365
0.0220203
0.0272647
0.0223371
3.20314
0.0259162
0.0223442
0.02719
0.158884
0.0220383
0.0252011
0.0220586
9.81559
0.022211
23.3727
0.0221031
0.399651
17.7128
0.0221036
0.0220438
0.180861
0.0368745
0.0221171
5.71491
4.3011
0.0220186
2.89363
0.0794703
5.73912
0.022821
3.91779
0.0222369
0.0222048
0.022111
0.367313
3.78963
4.65939
0.0227173
0.0221805
16.4762
0.0269693
0.0215747
4.07827
0.0905423
0.0218948
0.023036
16.705
0.3635
0.123247
0.0665357
0.136836
0.107113
0.0218211
0.0322574
0.0815671
0.0232604
0.021804
5.97295
0.458474
0.076233
0.0223364
0.0464266
4.28348
5.5738
0.0865904
5.8344
0.0229455
3.28397
0.0220122
1.494
5.15244
0.0258991
0.022274
0.173824
4.6307
0.0503797
0.021982
0.0228622
0.0220656
0.0219897
0.0216053
0.404056
3.62538
0.0228536
0.0221302
0.0222744
5.26021
4.86535
0.0411777
0.111913
0.0220965
0.0257974
0.530574
0.0217768
0.0225757
0.102002
0.0220434
5.91575
0.804305
0.0222847
0.0217482
0.0288653
0.0573951
3.26648
0.0887658
0.0417857
0.0273365
6.35808
0.0352978
3.7388
7.90416
5.11279
0.0242287
0.0421197
0.0222368
0.117785
0.0848292
0.134091
0.0232271
0.0613037
0.0219276
0.033267
0.0421421
6.86427
0.0940869
0.0226498
5.57291
0.0458299
3.6089
1.9428
5.85848
0.0219362
0.0952174
0.0451575
0.0217705
0.0221716
0.0300349
4.21615
0.376504
8.05853
0.0377087
0.125456
0.538111
5.08789
0.336641
0.0221059
0.117933
0.0398761
0.0224874
0.0219036
0.237027
8.32688
0.0265975
0.0220355
0.0568318
0.0567186
4.74301
2.4574
0.0220303
0.022053
0.0649993
4.42336
0.0224784
4.29583
6.70314
0.125902
0.0218118
0.588204
0.0566597
6.20909
0.0219682
10.524
0.0219295
0.094332
0.0218979
3.86319
6.0034
0.0254329
2.17722
0.0276947
0.0218152
1.25676
0.0924499
0.0372537
4.79746
9.07042
0.0217762
0.0287411
4.01553
4.56315
0.022229
0.021952
5.03399
0.140508
0.0222668
0.299459
0.101068
0.0407335
0.0378239
0.0222288
0.0454678
7.39549
0.0219717
0.121992
0.14
0.0220416
0.0220265
0.07042
3.86414
0.0835643
0.0303833
0.026435
0.0222712
5.94445
6.97277
0.524347
0.0218231
4.55902
7.14679
4.25134
3.85373
0.0847702
0.0222154
0.0219379
0.0544811
4.11436
0.125442
0.0248998
3.58178
0.0444499
0.0215981
8.40697
0.0220909
5.56839
0.0260916
0.022262
0.0275012
0.0414363
0.0418426
0.322136
0.0326055
0.0220774
0.373879
4.83771
6.92295
0.0219694
4.61848
0.0221727
0.0220719
0.0220201
1.16877
0.0221058
0.103498
0.0367904
0.0219065
0.0569855
0.0231922
2.34579
0.0446357
0.0827957
0.0218156
0.0220166
4.38278
5.12683
0.0220064
0.0219178
8.47393
0.0219178
4.14878
0.021808
3.85379
0.0224907
0.517865
0.0342808
3.00944
0.023931
3.57083
0.310639
0.0275062
0.139752
0.538324
0.0222885
3.72501
0.119187
5.87032
0.024733
6.69403
0.0295374
4.57323
0.250794
0.113666
0.110407
4.53169
0.0222171
0.0438398
4.24712
0.0221733
0.0235231
6.49269
0.289276
0.022577
0.249791
0.694121
0.0218626
6.2262
0.673456
0.0220844
0.0218987
0.0221801
0.021743
0.374706
5.75719
0.668781
4.26298
0.0220173
0.137518
6.72823
0.043948
4.21146
3.93448
5.87916
0.0217701
0.434975
0.0218788
10.7276
0.0220559
3.7544
0.100987
0.0249392
0.0221989
0.0616051
0.104016
0.0755097
7.90624
4.38686
9.72329
0.0473962
0.06239
0.0219599
4.67399
4.09397
0.0220652
1.50014
0.0220443
0.314143
0.0224868
0.022227
0.0232229
3.72171
0.0231852
3.55695
5.65191
0.143079
0.469629
0.0222749
0.480254
0.425666
0.0220413
0.321286
0.0221585
0.0220289
0.105772
0.0222616
0.0220164
0.0218751
0.346794
0.022248
5.5929
3.98738
5.38982
0.335287
3.48915
6.15562
0.0432861
0.0220241
0.185346
0.0255649
0.0301274
0.0220986
5.83058
4.29917
4.00916
0.0250594
0.115042
0.0245347
0.0263124
0.0750478
0.022981
0.517667
0.0223249
0.022097
4.06881
3.60835
3.60209
0.134044
6.50355
3.6733
4.22157
5.85975
0.0216355
0.0593954
0.0230407
0.0220838
1.30995
0.0552152
0.0218783
0.0644442
0.0410542
5.89486
0.0220371
0.12132
13.1967
0.811233
4.48832
0.0222554
0.0220708
0.0224531
0.0354924
0.0217727
4.24117
0.521817
0.0324635
5.17582
0.0271049
0.119975
4.34407
0.822315
0.138766
0.607591
0.120836
0.0627283
0.174069
0.0441416
0.160732
0.598162
0.0498689
0.0847804
0.0218713
3.34232
0.0280739
0.0216728
0.0340007
0.0229406
5.43282
5.85624
0.0219119
0.0216151
4.42813
8.81028
0.0222618
5.79644
0.0229466
0.242599
0.0219269
5.02164
3.13925
0.0287952
0.0223546
3.46451
0.283131
7.03385
0.0222694
6.53601
2.40414
8.70278
0.0216826
4.49925
6.2337
0.0440129
0.021892
0.0223204
0.0798618
0.383953
0.0218123
0.0219043
0.0219608
0.0219552
5.13814
1.37773
0.0433994
0.365618
0.0219707
0.0218282
0.112512
5.11628
0.0342213
0.021942
0.0220246
0.0220647
8.55704
5.53718
0.0221746
0.0220647
0.324206
0.0438214
0.0342521
0.0220625
0.0233009
0.0271912
0.0827151
0.428083
0.375872
0.190303
0.102409
2.75721
0.080678
0.0219793
6.15816
0.0220682
0.0238168
0.0244976
3.00396
0.0772774
0.0218334
0.814056
0.119783
11.6564
0.103569
0.0353964
0.0432359
0.02219
6.68856
0.563738
4.11283
0.0222381
0.0300888
0.365667
3.9179
24.8302
0.0698388
0.155472
0.0250236
0.0242708
0.0220643
0.0541479
0.0872819
0.0221569
0.056137
0.133485
4.19336
6.32933
0.0241361
0.116071
2.10453
0.0286428
0.0223898
3.4903
6.38224
5.71037
0.328701
0.0216199
5.52081
0.0782768
0.0218691
0.0321757
0.0768128
0.0344253
0.103396
3.92921
0.169491
0.0390932
6.63815
0.0232548
7.40804
0.0222377
0.022168
4.68438
6.32007
0.647235
0.0232493
0.0225942
0.0220683
0.0450877
3.32703
0.126725
0.0244962
0.129356
0.0604233
0.0219321
2.28169
0.123224
0.560778
0.0219519
0.16408
0.0229104
9.22859
0.0682946
0.0766698
0.0304359
0.0218833
0.0216873
0.0221039
0.122155
0.0276503
0.367823
6.98647
0.060584
0.0218717
0.166435
0.681683
2.31525
0.0219457
0.0270482
0.021912
0.0295674
0.0253772
6.05902
0.0222289
5.22334
0.0292687
0.159742
0.091828
4.32143
0.0801905
0.0222698
4.34795
18.2469
0.0220502
0.0244089
3.11171
0.256068
0.125187
0.0222376
0.0223875
0.374651
0.025094
0.074868
0.0671161
0.0216893
0.0566299
4.69148
0.0219296
0.0231352
0.0219806
5.3885
0.0222658
0.024697
6.18709
0.0233764
6.30538
0.0274118
0.0364461
0.0219732
0.0511211
0.0220288
0.0610655
0.0218887
0.0882146
0.0229473
26.3851
3.02443
5.14342
0.0223307
0.0222065
0.0762639
0.0496887
4.894
5.46654
0.0545527
0.0220318
0.345175
0.665
0.507876
0.345208
0.0522862
3.908
0.0399979
0.0422314
0.159735
0.186382
0.0537589
1.09919
0.0531899
0.0237374
0.0818937
0.0276228
0.0217541
0.0293264
0.0463797
0.0281698
0.0220358
0.0219312
0.0606274
0.0234801
0.0758448
0.0220346
0.0220592
0.0222735
0.0231918
0.0215403
0.0260223
0.0220006
5.20538
0.0668074
0.351277
0.0217964
0.0222473
0.0482516
0.063894
0.0226727
8.07887
0.0827017
11.0715
0.0293838
0.131829
0.0224927
0.022269
0.0219379
0.0232046
7.96896
0.0222551
5.01702
0.0263333
6.04434
0.0496501
0.0841873
0.156578
0.0216795
0.022291
0.0679131
0.0220442
0.0224183
7.89949
0.0227388
0.0221806
0.0283102
0.0219456
0.021673
0.028241
0.0279458
6.2988
0.035633
0.0219286
0.0218823
3.91669
0.120335
0.0222168
0.0222411
8.07377
2.85518
8.82531
0.0354587
0.0237467
0.0217876
0.0216544
0.0507313
0.0367526
0.228117
0.025098
3.8282
0.0223265
0.0236602
9.5472
0.0220511
0.0282475
0.0220019
0.0220811
0.044807
0.0428265
0.0225377
6.25452
4.4154
0.0932563
0.0219756
0.0215962
0.122632
4.46987
0.0222612
1.91302
0.0215957
0.0437681
0.0217577
0.0217966
0.44223
0.0220124
3.36072
0.0410294
0.0222733
0.0216156
0.0220644
0.0219173
0.0230383
4.14093
0.0218857
0.0217764
5.06208
5.8949
0.0403669
0.048174
0.070522
0.0253934
0.0217913
0.0280819
5.04806
0.0935263
0.0221322
0.022295
5.57998
0.0372769
4.32645
0.0222664
0.0227825
6.33553
0.0345552
0.0226225
8.04069
1.71319
0.0219137
0.142929
0.0219354
0.0219853
0.0217836
4.28724
0.0215331
0.0219627
0.0217855
3.48915
0.025036
0.240318
0.06118
0.0217889
0.0327428
0.0221745
4.2673
0.0219676
0.0219066
0.0221817
0.12745
0.0221738
0.169204
5.73043
4.74387
0.026531
0.713816
5.38569
0.0220136
6.89533
9.09318
4.83988
3.50252
4.94491
37.1485
0.154352
0.0223448
3.86383
0.0344823
4.01466
0.0216755
0.0218905
0.0222162
0.0221679
0.026279
0.0310197
4.54723
0.0218796
0.0220728
6.50359
0.305019
0.0220634
0.0379998
0.0301861
0.0222478
2.81123
0.038527
0.023771
0.0249616
5.78005
7.96801
1.29403
0.0217384
0.286264
0.119517
4.61472
5.91128
0.0925823
0.0219227
0.0225582
0.0223291
0.0214934
0.0232849
0.0216283
0.0273097
0.0388976
5.37969
0.13914
0.0219775
0.128391
4.24666
0.042476
0.0223029
6.58353
0.0218885
0.0223355
0.0376271
6.2815
0.0221738
0.0219533
4.29264
0.216786
1.65614
0.112802
1.44862
0.0219301
0.189518
0.0223354
0.0220017
0.0223288
4.203
6.41386
0.0217695
0.021612
0.0220233
3.35669
0.0230575
0.0302925
0.0220449
0.0224558
0.182653
0.0218068
0.0624259
0.364329
3.60189
0.0220084
0.0854352
0.0243075
4.50236
4.20614
0.0220187
4.4417
0.0756037
1.43134
0.0221726
3.6723
0.0222454
0.0269847
0.0435096
0.112991
4.41106
0.81835
0.195417
6.45308
0.021865
0.298406
0.0217865
0.0276094
4.28323
0.0220953
0.0222529
0.0228539
0.0222155
5.00306
0.0216743
0.0220865
0.0575349
0.0484816
0.052148
0.596939
0.135769
7.76284
0.0684204
0.0364256
0.0412257
4.70449
0.0415232
13.8961
4.02068
0.0257576
0.0218118
3.39137
0.56136
0.0222885
0.118137
0.0346716
0.0223902
0.0267081
0.022263
0.0434087
0.0222921
0.0511823
0.108257
0.0218865
0.0637088
0.0218189
0.060369
0.0218844
0.0259718
0.0606865
0.0236338
0.0221392
0.0217799
2.09966
0.0843401
6.20004
0.0220138
0.0221546
0.0616756
0.0220022
0.0971586
0.0845222
0.0223921
0.101462
0.0218021
9.74639
0.0222542
0.0385979
5.62804
0.296236
0.0219367
0.0236613
6.84732
0.0220043
0.0219235
4.4368
4.14682
0.0242317
0.177429
0.022105
0.0221332
4.24976
0.0230734
0.0216902
0.264459
0.021825
2.79054
0.0221984
0.021693
0.0222148
0.137538
3.73555
0.0221205
0.0222845
0.0219307
0.0259487
0.022078
0.99181
0.0614764
0.0222688
5.75169
0.0498048
0.287633
3.68068
3.61157
0.0217568
0.0222486
0.0220576
0.777236
0.026411
3.76894
5.7766
0.0239237
4.19393
2.31922
0.0516242
0.150903
0.0708456
0.375483
4.45888
0.0641299
1.21188
3.80059
0.0663314
0.0252378
4.51827
0.0539866
0.0216878
0.0234281
12.9983
0.0385219
0.0219051
0.0530692
0.107304
0.0391547
4.44624
0.0238013
6.4741
0.0412298
0.428889
0.134683
0.306965
0.0294369
0.0217922
0.0226125
4.69753
0.021998
0.0241111
0.0218014
0.0233141
0.0218834
0.0355194
0.157477
1.88558
0.0442706
0.0574647
4.02263
0.370685
0.0218764
2.94953
4.15556
0.0217323
0.0219147
0.0314221
6.79973
0.0222545
0.0730527
0.6434
0.0487519
0.0220558
0.0232806
0.0218424
0.118495
0.0398802
0.0219918
31.1437
3.91227
0.0433597
2.36479
0.0672782
6.74859
0.0233134
0.0257101
4.30652
2.82597
0.0932206
1.77324
0.0286213
0.0222764
0.0219769
0.0222018
0.0220262
0.0226205
0.0535222
0.0219445
0.128103
0.0219443
0.028886
0.0217654
0.0835231
0.126588
0.905675
0.022
0.303907
0.0219752
4.44081
0.0220387
0.025557
0.0221264
0.261889
4.63595
0.144913
0.0219389
0.139479
0.0220405
0.0301683
4.12475
0.0219554
0.022348
0.046672
0.0321432
4.20144
0.0219457
0.0298507
0.0232875
0.0220446
0.0320038
0.0225018
0.0217506
0.0236678
6.44887
0.0245726
0.300049
5.75779
0.0538284
3.63105
0.0243114
0.0217569
0.0310524
8.45446
0.0235153
0.0367835
0.0436287
5.99754
0.0219037
5.80698
0.0652563
0.0738217
0.0217231
0.0216305
0.181752
0.0224176
0.022286
0.0334907
0.0216841
0.0243754
0.0289521
0.0722653
0.266484
4.23328
0.0255557
0.0762523
3.21665
7.45987
0.0388936
0.268953
6.64977
0.0407659
12.6629
0.0236266
21.2214
5.58475
0.0216716
0.022262
0.021958
0.0226811
0.0461634
0.0217688
0.0238582
0.0927662
0.0233903
0.0355528
4.23198
0.0300877
0.0243454
5.60842
0.0226271
5.7326
0.0245909
0.0546864
0.0218935
6.8252
6.05388
0.0220394
0.0228091
3.81384
0.0294231
6.78778
0.0220239
0.0218235
4.19335
0.0227839
0.0442431
9.02453
0.0220671
0.0569791
0.0295748
0.0216265
0.0219054
3.85425
5.63168
0.0222267
0.0236461
0.0220592
0.0267439
0.0352793
6.16262
0.0226833
2.55415
4.552
0.419707
3.99437
0.0227248
0.126053
0.197985
0.0290225
0.0220643
0.0619816
4.05511
0.0233823
0.0465937
4.94556
3.65914
0.286035
0.0251539
0.022281
0.0222463
0.0220681
7.55284
0.0569138
0.0240039
0.0229304
0.0245498
0.0222702
0.0219861
0.0220424
0.0749052
0.0395908
5.66989
0.0470045
4.96224
3.47625
0.0305692
0.0527242
0.021814
0.0286738
8.30865
0.022151
0.0236181
0.053299
0.125242
0.0569162
3.9044
0.277243
0.0218924
3.95581
0.0215939
0.0222954
0.0464493
0.0222736
0.0219671
0.181936
6.83448
0.0218305
4.21271
0.0221325
0.0217467
0.0235341
2.66491
0.0295059
0.0245612
12.1558
0.0229795
0.235938
3.47722
0.0222462
0.0483755
0.0220123
5.81
0.0744276
0.0220429
4.0842
0.0559843
0.0789886
0.0222786
6.60966
0.0291958
0.376074
0.023062
0.0726954
6.91207
0.0217677
1.46105
0.0221117
0.0648196
0.052117
0.0222453
4.5129
0.0236366
0.122493
0.060075
0.0961478
0.040781
0.0434763
0.0226063
4.91572
0.0319571
7.02125
0.0299593
0.0661844
0.0219844
0.044964
0.0220442
0.0722777
4.58578
0.022785
0.0218365
3.40781
0.0229096
3.32439
0.0225237
4.29002
0.526144
0.035745
0.021994
0.0219434
0.0221111
0.021627
0.109987
0.0566873
0.038617
0.0259852
0.0220845
3.14036
0.0237395
0.0344766
2.95355
0.0220318
12.5413
0.0531281
0.0306312
1.25098
4.32426
0.419323
4.45434
9.83167
0.0218979
0.385755
4.98912
0.339615
0.0221739
0.0222128
0.11847
4.02492
5.61444
0.70506
0.0223852
0.0513758
0.0414383
3.478
4.99127
0.0435709
0.134337
0.0239752
0.0840854
0.0931183
0.0221658
0.111972
7.94015
0.0221322
3.8243
0.0222533
0.0219849
4.76656
3.96046
0.0218526
0.0224694
0.0225126
0.0218285
0.0494716
0.190233
0.0232427
0.0219919
0.0221003
0.0418056
0.0281702
0.0278651
0.408141
0.0220267
4.02673
7.64547
4.1499
0.156231
0.0542737
1.33669
0.0343434
3.83675
2.35249
10.6578
0.022449
6.3814
3.54371
0.0217714
0.0220399
0.110249
4.37097
9.59775
0.0217935
0.0220451
3.59867
5.50543
8.82887
0.0240965
0.0239053
1.84743
0.0222099
3.67791
6.95876
1.84614
3.56451
0.022062
0.0219305
0.0218893
0.0261605
4.10973
0.0415739
0.025844
0.0226194
0.089553
7.2089
0.0417751
6.17812
5.3738
5.28734
2.15262
0.0220539
0.0221728
4.31661
0.0216622
0.0216856
0.0230946
2.85891
0.0385208
8.89988
0.142375
0.0220299
5.29306
0.0404579
0.0218872
6.10672
0.170931
0.0250741
0.0221501
5.00449
4.3554
0.0221807
7.36824
4.60018
5.83125
3.24941
0.086001
0.0219398
0.022618
2.05573
0.0258395
4.47412
0.0428749
4.7023
0.280731
0.0228931
0.0291003
0.02194
0.0227128
4.53123
6.96067
0.0220686
4.88491
0.0443285
0.0220524
0.0248542
0.0219389
0.174806
0.0224882
2.32559
0.0520913
0.0219316
0.0218761
0.0933815
8.18873
0.0403536
0.0240763
0.0440549
0.022039
0.0232286
0.0278345
8.90335
4.15208
4.35966
0.0217222
0.0218694
0.0223849
0.127135
0.0218812
0.0224318
0.183338
0.0607551
1.24704
0.0216585
4.3334
4.12714
0.0222843
8.94983
0.120878
0.038431
2.03942
0.02233
4.96524
0.0295312
0.0230837
0.0239035
0.0216582
0.261311
0.0224719
0.0229052
0.030739
3.59495
3.6599
0.0222462
0.0220237
0.0236206
0.0220105
0.144195
0.0224305
0.0889063
0.0237053
4.12248
0.0227733
4.11598
0.0217241
5.42322
0.0224492
0.021642
6.46804
0.320037
0.113702
1.67761
0.0442915
0.0421457
0.0220446
5.14905
0.0220645
0.0218875
0.0870654
0.0666673
9.49299
4.43084
0.131891
6.92673
0.139209
1.57799
0.0218855
0.0251897
0.0284377
4.07712
0.0247938
4.18563
4.50687
0.0222516
0.0220643
0.0220287
1.75229
3.34843
0.0235077
0.0221126
0.0258462
0.0284881
0.0393133
0.385979
0.336517
0.0220659
0.61345
0.0897017
8.57892
0.075781
0.0233422
0.0240333
5.1178
0.0218863
0.0946046
4.50808
0.0227605
0.0255821
0.189552
0.132674
0.0227835
6.24506
0.0245668
0.294023
0.04217
0.0304615
0.0228456
4.29923
0.0218639
0.0996914
1.45448
4.65219
0.0516132
0.0697579
0.0259954
0.0481777
0.0222659
4.82125
0.0271332
0.0220142
0.0305052
0.0220937
0.0222692
2.94649
0.0220718
0.0221794
0.0220615
0.136581
0.0222429
0.0335582
0.0749026
0.254032
0.125638
0.0222537
0.249027
0.484726
0.244713
0.0894971
0.0273084
0.169074
4.77424
0.719592
0.0222845
7.70254
4.1897
0.0222839
0.0242939
0.0216475
0.728507
0.112496
0.0220893
1.28873
4.12297
0.0218141
0.0222114
3.84861
4.18208
0.0680791
0.021662
11.2457
3.37735
3.24896
0.022032
4.08979
0.0856846
0.0717069
4.32471
0.0265224
0.0216597
0.0306946
0.206327
0.0328564
4.00279
4.40174
0.0218307
6.50935
0.536826
4.54927
0.0217218
0.0516936
0.0222834
0.0219379
4.04598
3.51466
0.29377
4.15637
0.0294359
0.0525765
0.0222227
4.54092
5.91741
0.0220481
0.0222874
0.0317838
0.0218352
0.0528776
4.339
7.37903
0.0531952
0.0225291
0.0222069
4.0607
0.0250575
0.054917
0.0218088
0.0230372
0.800384
3.91935
0.474923
2.93265
0.0221713
0.316739
0.0223224
0.048199
9.42725
6.87455
0.0220768
0.0222939
0.0369218
0.0257266
0.0221884
4.28043
4.102
0.021794
0.0215149
0.0221913
0.0219717
2.69569
0.021748
3.94433
0.110006
0.0665977
0.0218715
0.0488116
4.53269
0.0346094
0.466608
5.5747
0.0222699
7.18169
0.0330634
0.0355144
0.37465
7.27026
4.62494
0.0626368
0.0219075
0.267485
0.0217585
0.025275
0.0222097
3.9506
0.0318672
4.0031
0.548335
0.0505751
0.0221263
0.322698
0.0273614
0.0222704
0.256055
0.0216
0.0397322
0.035148
0.0221746
9.5076
0.0234448
0.571309
0.0228614
0.0219412
5.29711
3.66393
0.0241272
0.0324578
0.0406831
0.05965
0.0605575
0.0267087
0.0260334
0.0255161
0.225761
0.0250599
4.04362
0.0605778
0.442621
0.121563
0.0227494
4.43381
0.021611
4.4374
0.0242202
4.25515
7.87459
9.7422
7.88114
0.320277
0.0783571
0.022056
4.17071
0.0872247
0.0220427
8.00023
5.69436
0.0233008
0.023985
0.0313693
0.0313796
0.0333076
5.21828
0.022284
0.0307405
0.0363279
0.0323987
0.0221652
0.0878471
0.0216158
4.12959
0.0236927
0.144055
0.0326447
0.0411479
0.130571
3.99338
0.0916764
0.021846
0.255966
4.17313
21.5169
0.0224722
4.18338
0.0295536
1.81099
0.0220645
0.0246076
3.79289
0.054103
5.05345
7.44847
0.0333803
4.86835
0.021992
0.0216057
8.98183
0.0591987
0.0245233
5.277
0.027276
0.0461062
0.0294871
0.0746127
0.0221967
5.79788
5.26437
7.11228
0.294856
0.0257982
0.0589404
5.03086
0.0241177
0.0223265
0.0859444
0.0216946
0.302095
7.36454
6.3261
5.29052
0.057548
0.0225452
4.11441
0.0215991
0.0765297
0.0222356
23.0629
0.023884
0.0479142
3.74099
0.127774
0.0220297
0.0323423
8.34081
0.0220721
0.153407
0.0218018
9.39356
4.20284
0.119437
0.0776342
0.0219551
0.214344
0.142084
0.0408893
0.0218069
0.0225943
0.0221472
0.0565919
0.0221255
0.0887803
0.0221194
0.0218124
6.186
0.0218809
0.0271748
0.0254518
0.0222749
3.63163
0.0218751
0.034254
3.94842
0.0507608
3.96805
0.0220599
4.38044
0.0534402
5.03117
0.0236517
0.131466
0.022245
0.0425913
0.127372
0.116244
0.297463
4.07183
0.2398
2.08814
0.0269327
0.115111
0.0422044
1.56094
0.0251031
0.0221863
0.0220306
0.0537772
0.0469603
3.19374
0.0557022
4.62463
6.83441
0.101091
0.0220231
4.89196
0.204379
0.0224765
0.0240951
0.022075
4.96785
0.0220336
8.11898
0.0218673
0.0275629
4.89707
0.0804882
0.0220475
0.0220253
7.89811
0.0218867
0.0241273
0.0255453
0.0328836
0.0280971
0.022192
0.162632
0.0807286
0.0441411
0.376991
4.36032
3.6345
6.17608
0.0217393
0.0219912
0.104516
0.0225541
0.0472647
4.1309
3.77932
0.0216582
0.0220453
3.47136
0.578556
0.0216748
0.0218483
0.0265871
12.4526
4.03858
0.0268919
0.0346093
0.0222005
0.380213
0.130113
0.141982
0.03171
0.0448153
0.0224072
0.0394115
0.313144
0.0227724
0.0221912
0.0266557
4.45475
0.0252645
7.38146
0.0221101
3.77587
0.0369398
0.0277615
0.0217825
0.0219309
0.874116
7.80172
0.0579149
4.29169
9.16603
0.0225531
3.96452
0.148941
0.0218986
4.78927
0.408155
0.119994
0.0222539
3.53838
4.48636
0.0219937
0.0400746
4.30763
0.0460068
0.0220672
0.0218042
0.0224516
0.0241435
0.0867305
0.296013
0.0768831
0.082078
0.021724
0.0222145
4.6323
0.0218554
0.0497088
0.0265153
0.0222197
0.0526079
0.0220303
0.0237871
0.343639
0.0220034
4.44745
0.0220254
16.5254
3.65391
0.100182
0.0222731
0.0222928
4.13551
0.0216462
0.0243386
0.0223367
0.363393
2.08661
0.0347847
3.64797
0.0421841
1.78209
0.0225285
0.0718148
0.0218192
0.022142
5.07305
3.70954
1.87998
0.023899
0.0721714
0.0719739
4.67506
4.01091
0.338229
0.0404679
0.0215939
4.10374
0.0219337
0.021995
0.312025
0.117398
0.0283813
0.203206
0.0478032
0.0319338
0.0281154
5.07003
0.0246019
0.0219974
6.83189
0.0481928
0.0217212
3.54519
0.0220358
0.0221149
0.174116
0.16133
11.6673
0.0217386
0.024847
0.0219241
2.23035
0.0218805
0.556053
4.39545
3.60123
3.53945
33.533
0.0301808
4.42888
0.861344
0.0222104
0.0307755
0.0439538
0.0303889
1.22022
4.12457
4.34875
3.59011
2.44425
0.0221698
0.110384
0.0220429
4.84642
0.029268
0.0233386
0.0242982
0.0227802
0.0218947
0.111838
4.34536
0.0217259
0.0237949
0.0218678
4.55915
0.0236403
5.38111
3.89791
1.80654
0.0220975
0.0219014
4.48942
0.392097
0.0221413
0.318904
0.0222287
0.151169
0.190472
0.10118
0.0535192
10.8061
0.0218079
0.0218229
0.206701
3.42958
0.0299357
0.0479448
0.0219473
8.42634
0.0220158
0.0219565
0.0232634
0.0220001
5.0012
4.03719
1.97464
0.0629295
4.14907
0.865289
0.0216629
0.0320043
0.0217031
1.26668
0.0220349
0.0249279
0.0220002
0.0219261
0.0217975
2.96709
0.0229744
1.70269
0.021614
0.0323758
0.0229348
1.55007
0.0220518
0.0324802
0.0364015
0.0721161
6.34533
0.0219225
4.24395
0.0721171
0.0463627
0.0219755
0.021954
3.5777
16.2238
0.0220531
0.0219056
0.2808
0.234609
0.0382845
3.8723
0.0227945
0.681703
0.0322152
0.0217108
5.51904
0.0232223
3.9201
0.0220289
0.0227631
0.0221236
4.27359
3.59131
0.021679
0.246079
0.237947
0.022062
0.0218853
0.0219059
0.262741
3.94844
0.0675986
0.0246045
0.0408994
0.0220353
0.0220537
0.0238569
0.0220088
0.201573
0.0220635
0.0658282
0.694897
0.0370844
0.0216201
3.98098
0.0773808
0.0220445
0.085064
0.0314327
1.75125
0.0244888
9.70592
0.0596235
0.0220118
0.0929477
0.0919167
0.0249236
5.76895
0.0621439
0.030791
2.39828
0.0219565
0.160437
0.0889491
0.1342
0.0219454
0.0219866
0.0216426
0.0334994
0.0577437
0.0564836
6.48101
4.62285
3.92889
0.0222669
1.88861
3.72005
4.12829
0.0220014
0.0220468
0.0559626
4.10457
0.0242382
0.0365401
32.8197
5.06904
17.4922
0.113098
0.180821
3.45684
0.554094
0.021616
12.7423
0.300275
0.0223734
0.0224229
0.0228689
4.54202
0.103571
5.29082
0.0241198
9.79347
0.0221631
1.91071
3.86927
0.0222304
0.0352857
4.20093
4.70557
0.0580493
0.0229606
0.023785
0.0223838
0.238437
0.126415
4.17023
4.04674
0.0217581
5.31582
0.180306
1.96697
0.0220315
0.0221656
2.79153
0.264103
0.0219705
0.0521749
0.073067
0.0391595
4.09529
4.45817
4.54615
4.0472
0.0256
0.021672
0.0659097
4.56168
10.0248
0.0219778
0.282727
0.0941782
0.437008
0.02261
0.0222566
1.20218
4.48961
8.08856
1.67825
4.29386
0.0219635
0.24801
4.03925
0.0222403
0.0623119
0.11502
0.0216888
0.174418
4.79515
0.246873
0.0222556
5.3035
0.125853
26.691
0.0215115
0.0238876
0.0221904
0.023364
0.0221546
0.0558786
0.0408407
0.042779
0.326275
0.0349173
4.20066
0.0253384
0.0298291
0.0284493
9.18847
0.0579874
5.00123
0.0284504
0.0278867
19.2507
0.0967468
0.0220689
0.0429126
4.48417
5.31543
0.311548
0.0219926
0.0219236
0.0219538
1.50035
0.0232262
2.47808
1.32215
0.260134
0.0325223
0.290735
5.61873
0.0221553
7.24939
0.0338919
0.0509086
0.0219627
0.0219462
0.0558944
4.26464
0.0220813
4.95776
0.554544
0.0994555
0.206497
0.0218895
0.0220278
0.0307207
0.0230892
24.6545
24.1479
0.0863122
0.877707
0.0219793
0.0221187
0.0222131
0.0222458
7.07289
0.0233838
4.49413
0.0868736
0.0226428
0.384678
3.83647
3.51411
8.70731
0.0237465
0.0218027
0.0221325
0.0237666
0.732563
0.248987
5.74576
0.0221565
0.0225252
0.164099
0.0222602
0.241593
0.0236982
0.153408
0.174962
0.0416861
0.0403741
0.0217346
0.0492979
0.0387758
0.216823
0.0801272
0.0430737
0.021873
0.257086
0.0219004
4.10684
3.68078
0.929153
0.022079
0.109894
0.0220315
0.051486
0.0230907
0.0228499
0.0282246
9.04724
4.03754
0.07892
0.0482477
0.240411
0.0809011
4.00938
4.1878
0.0312252
4.14328
0.378181
0.021865
0.056378
4.20846
0.0959729
0.0222364
0.0564215
2.26073
0.619326
8.57963
0.0221943
1.12406
0.0220982
0.0219409
0.0442774
0.548503
0.0222639
4.31363
4.91783
0.281542
10.689
0.370315
4.6088
0.366247
0.0217319
0.0250221
0.0216614
0.0425856
0.320498
0.575983
0.0244379
0.0423844
0.0216506
4.27449
0.0401853
0.0495791
4.02836
0.0993695
6.42261
4.60903
0.0219821
6.80622
0.0221177
0.0283856
0.0475705
3.8327
0.161364
0.0278552
0.0234471
0.590498
0.035279
4.2307
5.71931
0.0319875
3.37394
0.0475479
0.022273
1.15928
0.0654177
0.0230157
9.15516
14.4794
0.0307344
0.0260488
0.13593
6.01059
0.0219646
0.0222591
0.0216742
0.0217667
0.0223258
4.75498
0.0317575
3.89405
0.0219588
0.0219759
0.853689
0.0222507
0.0237439
0.0220617
0.0220351
2.38623
0.0217738
4.74049
0.02205
0.0232438
0.0421332
0.0221707
0.143734
0.0217867
0.0222652
0.0218025
0.0282305
0.0897167
0.0248481
3.66894
0.0219515
0.0439094
0.0305381
4.17006
0.0227486
0.0222689
0.0217346
0.0216945
0.388393
0.0219182
0.0219198
0.0248955
2.99446
0.0219379
0.0432334
0.0329133
0.0220305
4.86958
6.28282
0.410304
4.94637
0.025231
0.11525
0.0221509
0.0989962
0.347399
0.0223991
2.29785
0.135908
4.65605
0.0309824
0.0220349
1.59825
0.0442166
0.859002
5.00727
0.0215989
0.0219882
7.52603
3.36537
0.0620081
0.0574607
0.0231221
9.93937
5.78156
0.0215157
0.0219695
0.022156
0.0221742
0.0222484
0.0220365
0.035489
4.16638
0.0312818
0.0221961
0.418936
0.0219906
0.881588
0.0472152
0.022174
0.0280513
0.0219229
0.388366
0.0249571
0.0527514
0.0219683
0.0223071
4.47907
4.92237
0.0221773
0.053843
0.0444571
0.0312666
0.0239253
0.0222713
0.022941
1.79046
0.596981
0.0424778
4.96149
0.022613
23.338
0.112124
0.0261272
17.9314
0.0230868
4.17236
5.36644
3.51948
5.35356
4.06007
3.72098
0.0216699
0.0276652
0.0246766
0.0216487
0.0217604
0.0299864
0.0752013
0.0217974
0.0294635
0.127758
0.0775036
0.323682
0.232064
0.0344001
1.98204
9.49572
0.0338804
0.0248394
0.133918
8.29201
3.80333
0.025583
0.0216385
0.0218833
0.0217924
0.0327046
3.82655
0.391862
0.0217767
4.62895
0.0219838
0.144212
4.13153
0.0820718
0.20531
0.0899007
0.327815
0.0228437
0.0332038
0.0218736
0.242468
0.0219747
0.0230749
0.0343816
0.161192
0.0221774
0.0244393
5.51708
0.0218237
0.0220763
0.0290527
5.49673
0.124725
0.699816
0.0385909
0.0221501
3.45935
0.037206
0.0234279
0.0220206
0.0310088
0.026883
0.0220312
0.0287556
4.477
0.0236459
0.0216616
0.0470329
0.0218903
0.0317743
0.0301301
0.0220707
0.0219999
4.6549
0.021723
0.0220356
0.0216612
0.0258296
0.0214825
4.89278
0.0261645
0.231644
0.0219629
0.0219323
0.0221337
4.28614
0.0681098
0.0220396
0.0216303
5.58515
0.0250452
0.0702895
0.0218655
0.162979
0.0234407
0.0215603
5.25737
0.0217968
0.0222657
0.0221483
0.0220381
0.0241545
0.0221273
0.0220385
1.629
1.50953
4.61113
0.422871
7.7564
0.0218719
4.515
0.0219693
4.05686
7.34342
0.0218024
9.75717
0.0219813
4.25026
11.1866
0.261059
4.08726
3.96132
0.878528
2.56817
5.76722
5.22778
0.0441357
0.0445182
4.6337
0.0235126
0.0216672
2.14444
0.0240425
0.0282887
11.6898
0.0230274
1.0979
3.6607
6.3916
0.385123
0.123204
0.0222519
0.028332
0.0479658
0.0223139
6.86692
0.378396
0.108069
0.0219234
0.0220701
7.70644
0.0217023
0.806588
0.0218674
8.56993
4.38429
0.0341928
0.0262752
0.02201
9.80018
4.05843
0.0254997
0.0341967
0.0222858
0.0222855
0.0605451
0.023184
0.0319968
0.0679638
0.0243223
0.0340947
0.0220417
0.0322263
14.4294
0.0226339
10.4965
0.0219856
3.67296
0.0548496
0.0220418
10.3301
0.130908
0.0218616
0.156534
0.0220381
0.4399
0.0222045
0.0220127
3.92845
0.0221475
0.114118
0.0235019
0.144119
0.0218632
0.0223486
0.0218658
0.0301226
0.0242731
0.0223077
0.0226178
0.0253394
0.0224648
0.128399
0.0655942
0.0308463
0.0233311
0.0216538
2.35825
10.0072
0.022786
0.0225454
0.0226612
0.0382326
0.0222498
0.0356707
0.0215721
0.0222853
0.231569
0.0233468
0.0222847
0.0219106
4.82354
10.2977
0.0215986
0.0729195
0.0580275
0.25931
0.204385
6.5155
4.29023
0.720378
0.0230634
0.142747
0.02193
0.0313381
6.65476
4.42466
0.136359
0.0239192
14.6599
0.022045
0.0477355
0.39609
0.0222391
0.140616
0.0235279
0.0233149
0.0783027
0.152751
3.93451
3.49805
0.0218367
0.0216057
4.79835
3.78714
0.0222516
0.0291827
0.12632
0.0220549
0.0220178
0.0241949
2.65282
0.0217808
4.24861
0.0295799
0.0222678
0.366388
0.0771681
0.0718467
0.122554
4.9064
0.0244272
0.0359562
0.0272645
0.0237879
9.00442
0.0328034
4.24519
4.11324
0.0679347
4.09385
0.0473458
0.0486454
0.360669
0.0217331
4.25051
0.0951233
0.0339307
0.0291575
0.0221785
0.0216756
4.1047
0.0440519
4.21574
4.36281
0.0221174
4.21762
0.021842
0.0219638
0.0287925
10.7959
0.0774522
0.0217148
4.08333
0.0219973
0.0238578
3.91393
0.023757
3.57298
0.0222728
4.34144
4.91937
0.0687913
3.68945
0.0234019
3.54523
0.021644
5.37257
4.78645
4.37957
4.88202
0.0219473
0.021847
0.256611
3.73059
3.51907
3.92447
3.85233
0.02217
4.74501
3.5419
0.0224285
6.44616
0.0314072
0.0335995
11.8576
0.0385081
4.29167
0.0219431
0.038224
0.0358767
0.222846
5.90146
0.0371835
3.65927
4.39453
0.0221726
0.0246374
0.0238525
0.0251223
3.52637
0.022017
0.0217686
0.0396664
3.71257
3.89278
0.0286825
3.96437
4.09963
0.0219713
7.92801
4.68568
0.190359
4.08376
0.0694026
0.0244415
0.0221733
0.165622
0.0267321
0.0854263
9.43824
4.53926
0.0291587
0.0759473
0.0257954
0.0408554
0.0216545
0.0439463
0.0247014
0.0963288
4.57705
8.24212
3.86005
0.021683
0.136185
0.0656555
4.18307
0.0232007
4.54689
4.66445
4.22202
0.0222406
0.174273
4.57092
10.4065
6.84114
0.0369037
5.55286
5.88027
0.0653653
0.070988
0.0243094
0.0293996
4.60555
0.0453348
0.0221867
3.42595
0.0220801
0.0223619
0.127564
0.127738
0.0218558
0.0925403
0.0247894
3.80347
10.6993
0.0239424
3.88871