/*--------------------------------*- C++ -*----------------------------------*\
| =========                 |                                                 |
| \\      /  F ield         | OpenFOAM: The Open Source CFD Toolbox           |
|  \\    /   O peration     | Version:  v2012                                 |
|   \\  /    A nd           | Website:  www.openfoam.com                      |
|    \\/     M anipulation  |                                                 |
\*---------------------------------------------------------------------------*/
FoamFile
{
    version     2.0;
    format      ascii;
    class       surfaceScalarField;
    location    "750";
    object      meshPhi;
}
// * * * * * * * * * * * * * * * * * * * * * * * * * * * * * * * * * * * * * //

dimensions      [0 3 -1 0 0 0 0];
oriented        oriented;


internalField   nonuniform List<scalar> 
20642
(
0.000109434
1.76058e-05
-0.000127039
-0.000353092
0.000604739
-0.000250767
-6.94097e-05
-0.000107957
0.000177378
-6.46754e-05
0.000480542
-0.000413108
-0.000482361
0.000700339
-0.000215269
-0.000617514
0.000265578
0.000197329
-0.000428934
0.000232318
-0.000730308
0.000414808
0.000316021
-0.000189887
-0.000179615
0.00037019
-0.000108209
-1.64026e-05
-0.0003192
-0.000410558
-0.000630693
0.00054353
9.23261e-05
2.58788e-05
2.08922e-05
-0.0004198
0.000637108
-0.000217064
-0.000507475
0.000676753
-0.000167213
1.00944e-05
9.93393e-05
1.40888e-05
1.10502e-05
-1.66597e-05
0.000716018
-0.000315559
-0.000399898
-0.000261402
0.00018526
7.61791e-05
0.000132315
-7.27211e-05
-5.95935e-05
-0.000510064
0.000331281
0.000179526
-0.000116643
-0.000406085
0.000529004
-0.000152124
-0.00013241
0.000284686
0.000458284
-0.000568055
-0.000576903
0.000299865
0.000278716
0.000541886
-0.000214882
-0.000326283
0.000449247
-0.000253301
-0.000195872
-0.000108209
0.000638712
-0.000234983
-0.000403028
5.67735e-07
1.21694e-05
-1.23927e-05
-9.50523e-05
-1.31564e-05
-0.000328412
0.000117398
0.000211082
0.000582407
-0.000388988
-0.000190481
0.000128107
-6.46408e-05
-6.34657e-05
2.81968e-05
-0.000416239
0.000395012
-5.505e-05
0.000470284
-0.000468959
-5.33649e-05
0.00052444
-1.5345e-05
5.58696e-05
-1.264e-05
0.000394026
-0.000196048
-0.000321596
0.000488523
-0.000166368
-1.92612e-07
-4.00321e-06
9.77167e-06
-0.00023929
0.000360851
-0.000117583
0.000528333
-6.22054e-05
-0.000464871
-0.000111679
-8.81993e-05
0.000199907
-0.000235296
0.000123654
7.30162e-05
-0.000222207
0.000149228
-0.000456379
-5.26447e-05
0.000175138
-0.000106233
-6.89039e-05
0.000296375
0.000268921
-0.000565141
-0.000307266
0.000341086
-5.65586e-05
-0.000568574
-9.07281e-05
0.000279876
-0.00018908
7.17934e-05
-0.000117816
4.60226e-05
0.000543865
-0.000637326
9.98537e-05
0.000679356
-0.0005154
-0.000157903
-0.000236401
0.000145723
-9.50523e-05
0.000146323
-0.000298272
-0.000369293
0.000134112
0.000260015
-0.000186951
-0.000285268
0.000151657
0.000133617
0.000197036
0.000294802
-0.000488801
-1.70324e-06
-1.29999e-07
2.61847e-06
-0.000210481
-0.000364522
-0.000118303
-1.45147e-05
0.000132821
2.34946e-05
-1.49778e-05
-8.42691e-06
-0.000266232
0.000626319
-0.000359482
-0.00044177
0.000387124
0.000397353
-0.00012148
7.33813e-05
4.8099e-05
-3.55732e-05
-0.000110778
0.000146356
9.32654e-05
3.48416e-05
-0.000674871
0.000575274
0.000105949
-0.000274611
-8.97181e-05
0.000519563
-0.000187599
-0.00069386
0.000352582
0.000343067
-0.000437068
0.000659434
-0.000219431
-0.000371773
0.000102148
-0.000272172
-0.000419599
0.000363012
0.000221401
0.00044391
0.000212386
-0.000651319
1.64747e-05
1.64867e-05
-2.11656e-05
-9.12049e-05
-0.000576322
0.000182114
-0.000109191
-7.29188e-05
-0.000311638
0.00028008
5.89988e-05
-0.00064527
0.000271556
0.000374072
-0.000179544
-0.000148786
9.16363e-05
7.10447e-05
-0.000128365
-0.000464369
0.000143377
-9.00701e-06
3.04343e-05
-9.99932e-06
-3.19273e-05
4.93991e-05
0.000376722
-0.000364275
0.000660826
-4.44989e-05
0.000414831
-0.000362893
-0.00011175
-0.000481998
0.000597976
0.000373108
0.000590927
-0.000318253
-0.000272521
2.60106e-05
1.91571e-05
-2.89376e-05
0.000175364
-5.66598e-05
0.000301275
-0.000493946
0.000192907
5.11536e-06
3.65079e-06
-5.86337e-06
-1.44204e-06
8.66002e-06
0.000618903
-0.00017074
6.0687e-05
8.84697e-06
-5.46838e-05
-0.000697543
0.000264379
-0.00013026
-1.29544e-05
0.000143217
-0.000110454
-2.10908e-05
0.000131546
-0.000368779
0.000569298
0.000110671
0.000254052
0.000212771
0.000236561
-8.6493e-05
0.000242081
-0.000138133
7.34925e-05
-0.000605294
0.000370959
3.70976e-05
-0.000155397
3.7161e-05
0.000356052
-0.000391767
-0.000149083
-0.000112276
-2.65209e-05
3.23031e-05
4.65208e-07
0.000118743
8.7237e-05
-0.000205964
0.000141893
0.000412414
-0.000547151
4.41501e-05
-1.63981e-05
0.000366237
-0.000133795
-0.000227055
0.000247712
0.000379219
0.000152417
9.93198e-05
-0.000251674
7.75421e-05
-0.000124989
4.7447e-05
8.0027e-05
0.000102089
0.000517295
-0.000178039
-0.000337446
0.000171011
0.000349263
0.000421009
9.78128e-05
-0.000509934
-9.41354e-05
0.000246603
-0.00037749
0.000110827
0.000266935
0.000116234
-0.000288039
0.000171873
-0.000145154
9.21602e-05
5.29945e-05
0.000433401
-0.00039462
-0.000266458
7.54028e-05
0.000191108
0.000468925
-0.000256067
0.000280018
-0.000145797
-0.000134214
6.74367e-05
4.77078e-05
-0.000115144
0.00061839
-0.000241502
-0.000376114
1.38449e-05
0.000585034
-0.000600532
1.57036e-05
-0.000130189
-0.000236608
4.60416e-05
-0.000176299
0.000116899
-0.000471945
0.000364633
-0.00059617
0.000543466
5.95175e-05
0.000303472
6.6469e-05
-0.000366775
-0.000141889
0.000106321
-0.000679429
-3.49379e-05
-7.93682e-05
0.000114307
-0.000108861
0.000659675
0.000342736
-0.000479815
0.000137687
-5.13119e-06
-1.62739e-06
9.42462e-06
-0.000508239
-8.0608e-05
0.000228339
0.000362731
-0.000603193
0.000491207
0.00011683
-1.09065e-05
8.55883e-05
-9.00412e-05
-3.49896e-05
0.000125031
7.16097e-06
9.37586e-06
-1.0611e-05
-1.92334e-06
-1.93581e-05
-0.000549647
0.000435348
0.000132739
-6.35306e-05
-9.88569e-05
0.000162393
0.000702247
-0.000253549
-0.000446714
-1.15293e-05
9.50668e-05
0.000105844
-0.000200907
0.000493684
-0.000254449
-0.000239087
-2.8294e-05
0.000105831
-0.000213905
0.000108078
-3.8323e-06
3.77206e-06
1.54809e-07
0.000227069
0.000392063
-0.000856963
0.00050109
0.000362281
-4.4528e-05
-9.03737e-05
0.000134903
-0.000463396
-0.000299663
0.000196442
0.000103236
8.03889e-05
-0.000265037
0.00018476
-5.73742e-06
1.51316e-05
-5.6076e-06
0.000383286
-0.000445456
-0.000130562
0.00028028
-0.000149659
-0.000121417
-0.000255733
0.00039304
0.000310889
0.000468358
-0.000505998
3.88919e-05
-0.000391384
-0.000527643
0.00047572
5.41898e-05
-0.000180823
0.000126657
-6.68662e-05
0.000185625
-0.000196342
0.000312656
-0.000552995
3.04713e-05
0.000231786
-0.000177562
1.8114e-05
-1.71939e-05
-0.000342191
-0.000302745
-0.000235118
0.000315653
-0.000132351
-0.000102907
0.000259863
-0.000122833
-0.000136993
7.82249e-05
-0.000127232
4.90073e-05
0.000291401
-0.000330238
5.76121e-05
-0.000124171
6.65587e-05
-0.000122739
0.000431922
-0.000308256
-8.72219e-05
-5.79311e-05
9.77777e-05
-0.000507164
-0.00050102
-9.67343e-05
0.000222379
0.000285089
-0.000506488
9.73788e-05
3.02816e-05
-0.00012766
-2.73267e-05
9.47633e-05
-0.000621328
0.000464598
0.000159153
0.000293796
-0.000377719
8.39854e-05
0.000407147
0.0001425
-0.000548626
-0.000121059
0.000240936
0.00014937
-0.000463047
0.000680361
0.00035724
-0.000428868
8.32569e-05
0.000742184
-0.000323157
-0.000417077
0.000499856
0.000244025
-0.000141171
-0.000208227
-5.81822e-05
0.00030101
6.85137e-05
8.08404e-05
-0.000149351
2.60162e-05
-7.63029e-05
8.05602e-05
1.07401e-05
0.000138113
-0.000143735
0.000139564
-0.000123957
-0.000100281
0.000280084
-0.000146476
-0.000133568
-0.00010231
0.000249306
-0.000146966
-0.000395676
0.000373679
5.27647e-05
3.24867e-07
-1.42973e-06
0.000243025
0.000225971
-6.02039e-05
-0.00019553
0.000127941
7.30384e-05
-0.000114382
-7.52292e-05
6.72858e-06
-2.68373e-06
7.35306e-06
0.000137002
0.000145092
-0.00013282
7.29067e-05
2.03588e-05
7.63124e-05
8.24392e-05
-0.00015875
0.000661401
-0.000400648
-0.000255819
-4.75831e-06
7.37593e-06
-2.21523e-06
0.000220034
0.000118635
-0.000338557
-5.60418e-05
0.000121075
-6.50327e-05
2.44621e-05
-8.52326e-06
-9.74692e-06
-1.68684e-05
-0.000346057
-0.000147472
0.000441327
9.29384e-05
6.34428e-05
-0.000156379
9.92915e-05
-7.2554e-05
0.00014107
-0.000133042
-0.000180591
0.000313728
-0.00030085
0.000426244
-9.58061e-05
-0.000118095
-4.55181e-05
0.000265646
-0.000228314
-0.000376357
-0.00030025
0.000204992
9.53286e-05
-0.000449508
-0.000169309
-6.4857e-05
8.07662e-05
-0.000438962
0.00036394
-0.000425917
0.000311965
0.000114207
0.00036576
-0.000223115
-0.00014248
0.000743333
-0.000296075
-0.000441754
7.04661e-07
0.000308441
0.000565663
-0.000716747
0.000154395
-0.000319762
-0.000110322
0.000435684
-0.000121799
4.81317e-05
7.36673e-05
0.000545857
-0.000128145
-0.000417595
0.000395664
-0.000127843
-0.000261737
2.11947e-05
-0.000129466
-0.000126497
0.000622425
0.000135912
-0.000108769
0.000499613
9.36318e-05
-2.10505e-05
-0.000369009
0.000263158
0.000106153
0.000165505
0.000235444
0.000115515
-7.4695e-05
4.79133e-05
-0.000158366
0.000758148
-0.000248426
-0.000500254
-0.00050615
0.000717884
-0.00020829
-0.000116414
-0.00016209
0.000278545
-1.79829e-05
0.000124283
-0.000102375
-0.000163423
0.000391183
-0.000227558
-7.14704e-05
-5.03285e-05
-0.000120555
0.000106384
-6.00633e-05
-6.1417e-05
0.000114864
-0.000428873
-0.000176384
0.00011286
5.48884e-06
-7.19268e-06
0.000461694
0.000169767
-0.000629203
0.000449149
0.000298285
0.000478092
0.000105596
-0.000572158
0.000157133
-0.000210518
5.3408e-05
3.9364e-05
2.70931e-05
-4.29376e-05
0.00025768
0.000236157
-0.000131088
0.000410128
-0.000278379
-3.72267e-06
0.000309988
0.000202937
0.000188508
-0.00039134
4.80491e-05
1.59481e-05
1.39314e-05
-0.000203665
0.000348077
-0.000144245
0.000629446
5.0919e-05
-0.000676676
-8.57758e-05
0.000459708
-0.000372401
0.000169035
-0.000648367
-0.000598338
0.000327785
-0.000107612
0.000430815
-0.000316557
9.62883e-05
-3.31516e-05
-0.000172378
0.000310856
-0.000138401
-0.000147481
0.00056335
-0.000413864
-0.000227845
-0.000197728
-0.000162515
-0.000434016
0.000273421
-0.000271419
2.46154e-05
3.84191e-05
-0.00012846
7.53641e-06
8.98424e-05
0.000386425
0.000104396
-0.000481874
-3.95316e-05
0.000130233
-8.93745e-05
0.00034905
0.00050422
0.000132927
-0.000635981
-0.000183704
0.000192117
-8.39272e-06
-0.000154902
1.88568e-05
0.000136046
-8.2363e-05
-0.000217292
-1.08293e-05
-5.70667e-06
1.66152e-05
-4.16408e-05
-0.000246302
-0.00067872
0.000176005
-0.000174847
6.56613e-05
0.000610791
-0.000105403
9.8549e-05
-0.000167949
7.42137e-05
-1.58109e-05
-0.000611368
0.000106035
-0.000400711
8.95997e-05
-0.000558213
0.000473783
6.97173e-05
0.000535885
-0.000230715
9.84024e-05
2.09673e-05
6.05433e-06
-1.83402e-05
-0.000116479
7.19515e-05
-0.000211248
0.000206407
3.52833e-05
-0.000145259
0.000293215
-3.28669e-05
-0.000106383
0.000142135
9.65697e-05
3.57452e-05
0.00022062
3.75244e-05
-0.000243668
0.000402133
-0.000188187
-0.000213634
0.000578955
-0.000170876
1.26865e-06
-1.20064e-05
3.4074e-05
-3.93545e-06
0.000134349
0.000123081
-0.00025737
0.00013081
-0.000173397
4.25908e-05
-0.000101087
0.00052936
-0.000423869
0.000552387
-0.000457666
-6.51116e-05
-7.30208e-05
0.000149376
1.05761e-05
-0.000159949
4.08493e-05
-0.000174453
0.000133614
-0.000564471
0.000144953
1.10033e-05
-0.000126811
0.000652711
-0.000406797
-0.00024088
7.44879e-05
7.54563e-05
-0.000149942
-0.000252896
0.000211337
0.000143914
-0.000127822
0.000802376
-0.000547346
0.000433402
0.000118672
-0.000539434
0.00032215
0.000217734
0.000174574
0.000267796
-0.000125767
-0.00014198
0.00037824
-0.000217935
-0.000160168
-0.000384188
0.000221018
-0.000225214
-2.11666e-05
0.000246515
-6.97801e-05
0.00013157
-6.17892e-05
0.000509086
-7.93913e-05
0.000445337
-0.000541988
0.000418191
0.00028382
-7.24428e-05
-0.000113217
0.000185679
1.26179e-05
-1.22764e-05
6.61325e-06
9.58307e-05
8.90577e-05
-0.000314117
4.80568e-05
-0.000198055
0.000301672
0.000382839
-0.000178917
0.000356335
-0.000177308
9.45142e-05
-0.000132739
-0.000214764
-0.000395656
0.000610661
0.000115499
0.000201367
-0.000313378
0.000129503
0.000143637
0.000372619
0.00020726
0.000331353
0.000435087
-7.09547e-05
-0.000100216
0.000171179
0.000111492
3.59e-05
-0.000144905
-0.000120619
0.000215691
0.000113419
0.000307104
-0.000188151
-0.000578828
-2.78153e-05
0.000515435
-0.000483477
0.000169379
-0.000120576
-4.82298e-05
0.000334627
-0.00011985
-0.000206675
4.1355e-05
-0.000114076
0.000156182
1.39391e-05
-0.000687539
0.00039244
0.000296997
0.000454445
-0.00021136
0.000227374
0.00020268
-0.000429801
0.000658219
-0.00020908
-0.00044621
-0.000130802
0.000244293
-0.000113483
0.00020572
-0.000115431
-0.000387231
0.000595341
-0.000205901
0.000229136
-7.19779e-05
0.000435093
-0.000644392
0.000214741
-0.000236016
0.000463658
-0.000197684
8.97409e-05
-1.1015e-05
0.000231347
-0.00043246
0.000201733
-0.000516075
0.00035504
-0.000547986
0.000420033
0.000140955
-0.000397359
0.000235316
0.000179365
0.000489095
9.51616e-06
-0.000489699
-0.000498379
0.000244089
-0.000190378
0.000489809
-0.000295871
-0.000107921
-0.000405634
0.000521386
-0.000485754
-0.000138151
0.000631649
0.000237125
-0.000370917
0.000133989
-1.96622e-05
0.000519988
-0.000499808
-1.9343e-05
0.000123867
-0.000101142
-4.71102e-07
-2.89586e-06
5.45097e-05
-0.00023819
-0.000365551
0.000186763
6.37156e-06
0.000481608
-0.000230782
-0.000454196
-0.000129144
-0.000107607
0.000236767
0.000300867
0.000202004
-0.000502775
1.7516e-05
6.13939e-06
0.000207747
-2.24559e-05
-0.000102991
-7.18513e-05
-0.000261501
5.38401e-05
0.000211605
0.000121988
1.31819e-06
-0.000119513
-0.000537341
0.000393523
0.000144822
-0.000210998
-0.000167838
0.000105974
0.00036967
0.000107117
-0.000102598
-6.06147e-05
-0.000196937
-9.1508e-05
-0.000105441
0.000196951
0.000621926
-0.000181696
-0.000445668
0.000217745
0.000228326
-0.000116162
4.14667e-05
-0.00029826
9.4762e-05
-5.51611e-05
0.000423806
0.0001001
-0.000600794
-0.000214344
8.35509e-05
-0.000370578
0.000594062
-2.35082e-05
0.00010105
-2.44932e-05
0.000133928
-0.000106316
-0.000194488
0.000440053
-0.000231424
-3.76809e-05
0.000151671
-1.14846e-05
0.000161346
9.03867e-05
-0.000557183
-8.55992e-05
0.000551643
-0.00046201
-0.000260978
0.000131854
0.000262213
6.89474e-05
-0.000328569
0.000138982
-0.000441819
0.000262168
-0.000411071
0.000177654
0.000233676
0.00025314
5.23677e-05
-0.000303088
-0.000601796
0.000143112
0.000172093
-0.000305044
-0.000160754
0.000201617
-0.00045563
-8.70095e-05
-0.000187292
-0.000258955
0.000446295
-0.000416774
0.000411994
1.60576e-05
4.0288e-06
0.000121178
-0.000102122
0.000122418
-0.000601055
0.000495125
-0.000518762
-0.000316182
-7.49595e-05
0.000403225
-7.90226e-05
-1.44166e-05
0.000125671
0.00013058
-8.88155e-05
5.79598e-05
-0.000362256
-0.000162083
0.000365105
-0.000215878
0.000135473
8.04267e-05
-0.000105791
0.000131904
1.21907e-05
-0.000206201
0.000298398
-9.20431e-05
6.08289e-05
-0.000229406
0.000194776
-0.000194129
-6.44496e-07
-0.000143199
-0.000216558
0.000360252
0.000136424
-0.000185213
0.000149743
3.61504e-05
-4.9069e-05
-0.000135602
0.000433549
-2.06204e-05
0.000320933
-6.5441e-05
0.000211433
0.000251672
-0.000156857
-9.47958e-05
3.34038e-05
-3.65069e-05
-0.00048049
-0.000150528
0.000421253
0.000239424
0.000192839
-0.000431619
-0.000451528
0.000113478
0.000338703
-0.000206147
0.000167473
3.86909e-05
0.000141631
-0.000280937
0.000139406
0.000423327
-0.000269133
-0.000150976
0.000215952
0.000505014
-0.00064047
0.000325349
0.000466094
-0.000223346
-0.000242453
-0.000447863
0.000261023
0.000253746
0.000383466
-0.000397241
0.000125817
0.000271683
-0.00040252
0.000272088
0.000216606
-9.514e-05
-0.000121461
-7.84954e-05
0.000249763
0.000216596
0.000135976
0.000144354
-0.000290987
0.000177695
0.000130785
-6.03077e-05
-5.33765e-05
0.000113685
0.000104116
-8.08824e-05
0.000131238
-0.000138362
0.000311272
-7.39815e-05
-0.000127153
0.000105569
-5.96438e-05
0.000115994
0.000140864
-0.000313156
0.000131038
-9.02969e-05
-0.000267371
0.000442315
-0.000174922
-0.000380562
-0.000150321
0.000117743
-0.000451105
0.000335258
0.000379326
-0.000246115
-0.000130264
0.000103215
0.000140182
-0.000243376
0.00015257
0.000143567
-0.000296101
-0.000577612
0.0001424
0.000439557
-0.0006176
0.000446249
-0.000332032
-9.64209e-05
0.000389995
-0.000211129
-0.000178679
0.00015917
0.000392281
-0.000550852
-0.000107633
-0.000384225
0.000499828
2.93153e-05
-9.14432e-06
0.000149206
-0.00064467
-0.000405122
-0.000130673
0.00045327
0.000138236
-0.000588226
-0.000139516
-0.0002272
0.00036721
9.68192e-06
0.000267348
-0.000125622
-0.000148052
-0.000124518
-0.000482333
0.000731422
-0.000241515
-0.000409408
-0.000105048
0.000134736
-5.09481e-05
-8.3787e-05
-8.12599e-05
0.000105687
-1.59344e-05
0.000189422
0.000249045
-0.000437413
-0.000433478
0.000328691
-0.000233575
-0.000177191
0.000278493
-0.000100547
-0.000177843
0.000346921
-0.000457772
0.000111285
0.000100848
-0.000196915
-0.000506616
0.000449126
5.98081e-05
-0.000392126
-0.000141911
5.46903e-05
9.65389e-05
-0.000188044
-7.10835e-05
-4.50781e-05
0.000355159
0.000109358
-0.000455531
0.00047159
0.000131947
-0.000596168
0.000220766
0.000204805
0.000175831
-0.000557913
0.000391443
0.000100437
-0.000162365
6.19304e-05
9.29074e-07
0.000127209
0.000442357
0.0001851
-0.000627163
-0.000426017
0.000304237
0.000160092
-6.70596e-05
-9.30307e-05
-0.000102573
0.000407239
-0.000129352
0.000108118
2.12338e-05
-0.000308435
0.000378482
-6.29038e-05
-0.000146025
0.000208985
-2.15806e-05
6.36218e-05
0.000440241
-0.000140079
-0.000295807
7.57471e-05
8.43461e-05
-1.67924e-05
-0.000106998
-0.000172299
0.000161979
1.03289e-05
1.96456e-06
1.79232e-06
-2.44982e-06
5.05928e-07
-7.06765e-05
0.000601098
-0.000163873
-4.22577e-05
0.000563288
-0.00010688
-8.88283e-05
-3.50527e-05
0.000129376
0.000233235
-0.000132532
-0.000100673
0.000137649
-0.000343695
-0.000322248
-0.000289043
-0.000209179
6.72949e-05
-1.54348e-05
-0.000111915
0.000127351
0.000140252
5.453e-05
6.80266e-06
-8.02011e-05
-1.41713e-05
-6.61254e-05
8.02968e-05
-3.51404e-06
-3.91913e-06
8.91113e-06
9.48429e-05
-0.000240637
-0.000275685
-0.000403188
0.000136894
0.000307259
3.93981e-05
-0.000140975
0.000102926
-6.01633e-06
6.67883e-06
-0.000263172
-0.000133794
-0.000131847
-0.000372911
0.000110339
5.28785e-05
-2.06161e-05
-2.74563e-06
6.71648e-05
-2.58446e-05
-0.00010793
-0.000101242
-0.000348734
-8.79893e-05
0.000449185
0.000298913
-0.000170207
-0.000128627
-0.000609537
0.000135411
3.67326e-05
-0.000119857
-8.91127e-06
2.15208e-05
-0.000301949
7.97866e-05
-0.000192771
0.000161123
3.16578e-05
-7.90761e-05
-5.02755e-05
-0.000158999
-0.000141166
0.000218099
-0.000357139
-0.000221979
0.000152616
6.93775e-05
-0.000116902
6.08607e-05
0.000109758
0.000232604
-0.000142466
0.000248381
-0.000105901
-2.39487e-05
5.79792e-05
0.000184749
-0.000241315
5.65965e-05
0.000538189
-0.000353555
-0.000172982
0.000102036
-0.00051157
0.000118665
0.000638839
-0.000497452
2.44549e-05
0.00052516
-0.00056481
0.000300349
6.8803e-05
-0.000368844
-4.66478e-05
-8.68173e-05
0.000133468
1.79579e-05
-3.16503e-05
2.2194e-05
-0.000228453
-0.000140252
0.000591716
-0.000362625
-0.000222686
1.13522e-07
-4.10577e-06
-0.000124264
5.44837e-05
-0.000216506
-0.000256483
0.000473182
-0.000519026
0.000346849
0.000177134
0.000144562
0.00012328
0.000280429
0.000130282
0.000285213
-0.000411254
-4.3959e-06
1.49171e-06
-6.58069e-05
-5.84563e-05
-0.000579022
0.000245455
0.00061996
0.000105156
-0.000100974
-0.000242787
-0.000271534
9.3875e-05
-0.000166301
7.14795e-06
-6.21798e-06
0.000102352
-0.000238616
0.000136307
1.48908e-05
1.9497e-05
-2.21053e-05
-3.70145e-05
-0.00021147
0.000264513
0.0002465
0.000119436
8.80061e-05
5.16109e-05
-0.000103513
5.19026e-05
-0.000174146
1.85519e-06
0.000457278
0.000139364
-0.00059603
-9.98911e-05
0.000235907
8.10759e-05
-0.000377187
0.000257888
0.000420493
5.21489e-05
8.25875e-05
-0.000184707
0.000146671
3.80427e-05
-0.000159948
-0.000376348
-0.000436947
0.000385303
0.000216596
0.000425293
4.08517e-05
-1.58185e-05
-3.55585e-05
0.000457466
-0.000413929
7.71788e-06
8.91452e-06
0.000287484
-0.000131828
-0.000155562
-0.000369417
0.000488475
-0.000118022
0.000122105
9.45074e-05
0.000354972
-5.4326e-05
-0.00011757
-0.00043618
0.000554201
-0.000133454
0.000286054
0.000411911
-0.000557506
0.000384889
-0.000192805
-0.00019177
-0.000261934
0.000139139
6.10114e-05
0.000313526
-0.000206431
-0.000315936
0.00052473
9.06623e-06
-1.39887e-06
-0.000240955
0.000219412
1.55656e-05
3.68983e-05
-8.03684e-06
2.32325e-05
0.000125628
0.000256423
-7.51846e-05
1.04252e-06
0.0001029
-7.31413e-05
5.897e-05
0.00019479
-0.000370225
0.000175679
-1.69175e-05
-6.70038e-05
0.000101675
-0.000123767
-0.000106906
4.18874e-05
-1.72926e-05
-4.9159e-05
-0.000105741
0.000424903
-0.000304308
0.00049203
-0.000385749
8.56155e-05
4.54228e-05
-9.65628e-05
0.00025387
-0.000157213
-0.000215645
-7.67428e-05
0.000486823
-0.000528382
4.58712e-05
-3.9808e-05
0.000134898
-9.32433e-05
-0.000111219
-0.000356888
0.000476174
-0.000428318
0.000432053
-1.48972e-06
-0.000268782
0.000280142
-1.10546e-05
0.000428145
0.000115166
-0.000532978
-0.000117064
6.63383e-05
5.07258e-05
-0.000437239
6.98331e-05
0.000368007
0.000424458
0.000153166
-0.000577084
7.34349e-05
-0.000288801
-0.000511356
0.000307192
-9.94081e-05
8.39739e-05
0.000440809
-0.000321222
-2.67823e-06
4.91765e-05
-3.30022e-05
0.000354374
-0.000118147
4.66769e-05
0.000187105
8.16659e-05
0.000351045
9.2244e-05
-0.000115752
-0.000191386
0.000633487
-0.000441778
-5.12562e-05
0.000286837
0.000490014
-9.47477e-05
-0.000470759
0.000563325
0.000141388
-8.03747e-05
0.000290895
-0.000209917
0.000332235
-0.000498907
7.31322e-05
-0.000212269
0.000402673
0.000183047
-0.000153291
-0.000521546
0.000134353
-0.000260073
-0.000116347
0.000311341
0.00012068
-0.000598438
1.173e-05
0.000352917
-3.57104e-05
4.63509e-05
0.000101761
-0.000370083
-0.000497661
9.13487e-05
-9.84754e-05
0.000491494
-0.000391501
0.000452264
-0.000293128
-0.000156005
8.42501e-05
-0.000124015
3.97645e-05
-1.80033e-05
2.8e-05
-9.65828e-06
0.000439029
-0.000630101
2.87658e-05
-0.000463717
0.000627549
-0.000438999
-0.00018734
0.000409906
-0.000313548
-9.55942e-05
-0.00015922
-2.54793e-05
-1.69146e-05
4.46849e-05
0.000279297
-0.000119132
-0.000160089
-3.68446e-05
-0.000155919
-1.36098e-05
1.03704e-05
3.24e-06
-0.000583403
0.000417114
0.000175779
0.000362626
1.02163e-05
-5.73192e-05
-0.000590407
0.000305493
0.000296237
3.60868e-05
0.000545393
-0.000574374
0.000189805
-0.000569661
0.000381432
0.000317207
-0.000238241
-6.36647e-05
0.000236748
0.000274325
7.65653e-05
-0.000339478
-0.000191534
7.29984e-05
0.000118542
-0.000371717
0.000192673
-8.34582e-05
0.000323411
-0.00011733
0.000210132
0.000447526
-0.000215632
0.000152785
-0.000487916
0.000169737
-9.79357e-05
0.000117626
-1.24863e-05
0.000162473
-0.000258938
0.000186685
0.000135163
-0.000321731
0.000186996
-0.000303146
-0.000103888
-0.000263771
0.000375409
-0.000317008
-9.9843e-05
0.00033523
-0.000364198
0.000103663
-0.000566727
0.000181053
-0.000110316
-0.000317569
0.00043337
0.000185858
-0.000330953
-8.28757e-05
0.000521065
-9.36694e-05
-0.000339662
0.000443437
-0.000253034
1.66779e-05
-0.000230096
0.000429571
0.000123771
-0.000551866
0.000458786
-0.000157846
-0.000308542
-0.000230399
6.25466e-05
-0.00037445
0.00041562
9.48906e-05
0.000567162
0.000197741
-8.45852e-05
-0.000113143
-0.000297545
0.000438407
-8.52309e-05
0.000511659
-0.000423631
-2.02142e-05
2.37214e-05
2.29383e-05
2.68409e-05
-4.01959e-05
-0.000482016
-7.85637e-05
0.0005653
-0.00012202
-0.00037826
0.000501662
0.000448825
-0.000101532
0.000257382
-0.000353729
3.81411e-05
-0.000129489
9.21049e-05
0.000485083
-0.00060543
0.000126144
0.000218168
-0.00049345
0.000423025
0.000206468
-0.000349201
0.000103696
-1.89556e-05
0.000224005
-0.000147572
9.71026e-05
9.8593e-05
-0.000195687
0.000556373
-0.000125434
4.84448e-06
-1.80569e-05
0.000118185
-9.93269e-05
0.000295426
-0.000522238
0.000228719
-7.60391e-05
0.000495043
-0.000373617
0.000403762
-0.000586337
0.000183639
0.000678331
-0.000485593
-0.000188899
0.000117418
0.000310909
-0.000419787
-0.000179781
-0.000393788
-0.00013698
4.00288e-05
9.69521e-05
0.000261786
0.000143637
-0.000404896
0.00056313
-0.000105266
-0.000269396
0.000471485
-0.000274204
-0.000303875
0.000305481
-0.000118288
6.71937e-07
-5.22157e-06
0.000362111
0.00013365
-0.000492651
-0.000167356
0.000556848
-0.000388822
3.52464e-06
4.07039e-06
-0.000201243
0.000142611
-0.000445045
0.000303516
0.000573654
-0.000168838
9.91046e-05
-0.000248149
-0.000652237
0.000488433
0.000165084
-0.00020148
-2.84681e-05
0.00023714
-5.04371e-05
1.01509e-05
4.99545e-05
0.000187917
0.000190445
0.00036692
0.000495804
0.00010897
-0.000598679
0.000570477
-0.000420485
-0.000147622
0.000454662
0.000127722
-0.000574936
0.000275054
-2.98811e-05
-0.000165896
-0.000551908
0.000271031
0.000281147
-0.00045221
0.000576942
8.27255e-05
-0.000108992
2.62668e-05
-5.13218e-05
-0.000129895
-0.000444271
0.000575145
0.000137933
0.000239044
-0.000426285
9.28199e-05
0.000641932
-0.000507809
0.000249858
1.98174e-05
-0.000254621
0.000124532
0.000267512
-0.000387966
-0.000700313
0.000285363
0.000422981
-0.00051157
0.000402887
0.000111133
8.28394e-05
0.000364012
-8.33973e-05
-0.000371932
0.000465584
-0.000394998
0.000375723
0.000601599
0.000173244
-7.46284e-05
-9.861e-05
-0.000412104
-0.000151418
-0.000355285
0.000235696
0.000119902
0.000209939
-0.000357284
0.000147492
-0.000114184
-0.000329298
0.000451555
0.000182802
0.00030615
-0.00013126
0.000428451
0.000155347
-0.000477263
0.000326138
-0.000451952
0.000217047
0.000235627
0.000143098
-0.000104719
-0.000130054
5.64644e-05
0.000152947
0.000134616
-3.22613e-05
0.000110992
-7.79839e-05
0.000469968
-0.000356984
0.000401962
-0.00052577
-3.6202e-05
-0.000516282
-0.000136943
0.000627719
-0.000215753
0.000258566
2.07079e-05
-0.000264342
-0.000455418
-0.000370952
-0.00012823
-0.000215643
7.62154e-05
0.000139722
-0.000194307
0.000645861
-0.000449185
0.000571509
-0.000395995
-0.000165314
0.000133324
-0.000172368
0.000469372
0.000312013
-3.7851e-05
-0.000207935
0.00010922
-0.00043059
0.000634562
-0.000201567
0.000229732
-7.88376e-05
-0.000268246
0.000357948
-0.000262302
0.00013621
-3.47642e-05
-9.93167e-05
0.000486061
-0.000617434
6.62075e-05
6.53622e-05
-9.58473e-07
-3.99716e-05
0.000384736
9.79989e-05
-0.00023176
0.000108037
-6.08317e-05
3.96404e-05
9.8396e-05
-0.000140153
-0.000482384
0.0006235
0.000102135
9.56175e-05
0.00013857
0.000228161
-0.000362912
0.000715221
-0.000547683
-0.000163272
0.000593887
7.02585e-05
-0.000524162
0.000477572
6.31308e-05
0.000115372
0.000117888
-0.000309258
-0.000188551
0.000502447
6.83464e-05
-0.000128654
-0.000407258
0.00057903
-0.000180296
0.000340984
-0.000160654
0.000388346
8.58671e-05
-0.000110899
2.7636e-05
6.66223e-05
9.03097e-05
-7.60253e-05
3.05727e-05
4.63421e-06
-2.22949e-05
-8.92209e-05
-5.26889e-05
-0.000607083
0.000175302
0.000434559
-3.91303e-05
0.000313721
-0.000259556
-0.000492936
-0.000145281
0.000639054
0.000343561
0.000397379
-0.00026863
0.000146753
0.000172353
-0.000557336
0.000137538
-0.000182316
-0.000262916
0.000165902
-0.000249876
8.40235e-05
0.000211014
0.000251433
-0.000462603
-0.000115663
4.38126e-05
7.1851e-05
-0.000162276
0.00060176
-0.000435845
0.000153414
0.000502175
2.7902e-05
-0.000516412
-4.43021e-05
0.000109515
-6.52134e-05
-6.55011e-05
-0.000528105
0.000489687
4.21094e-05
-0.000139359
0.000106749
-0.000458026
0.000339339
0.000123338
-3.68044e-05
-0.000100327
0.000108044
-0.000256344
0.000152628
0.000113878
0.000239233
-0.000347939
0.000583226
-0.000420772
-0.000151701
0.000230763
-0.000374951
0.000144683
1.20111e-05
-0.00010287
-0.00042435
-0.000179866
-0.000253685
0.000155294
9.84514e-05
-0.000217956
9.53962e-05
0.000122563
-8.97064e-05
0.000186816
-0.000116504
-0.000115208
0.000469937
-7.26826e-05
0.000140087
6.55366e-05
0.000454326
-0.000506042
-0.000198302
0.00011373
-0.000384328
0.000544105
-4.84764e-05
-0.000204347
6.43944e-05
0.000143963
0.000285845
-0.000161998
7.47993e-05
0.000120612
0.000442674
0.000168258
-0.000604712
-0.000151584
-4.89962e-05
0.000115159
-0.000150405
0.00039176
-0.000508488
0.000131418
0.000195612
0.000189572
-0.000301655
0.000277617
-7.23834e-05
-3.5382e-05
0.000107766
0.000118823
0.000338153
8.80985e-05
-0.000413575
-9.26183e-05
-4.43607e-05
2.88283e-05
0.000486461
0.000391515
-0.0003751
-0.000494842
0.000129084
-0.000127886
6.20793e-05
0.000418474
-0.000168465
-1.48911e-05
5.23224e-06
1.40838e-05
-0.000294733
0.00037151
-0.000458445
9.50068e-05
0.000111278
-0.000184065
7.1688e-05
0.000112382
0.000401965
-0.000476756
0.000242376
0.000234495
0.00044785
-6.08582e-05
0.00030714
0.000267427
-0.000459492
0.000153837
0.000182121
-0.000331541
0.0004831
-0.000197323
-0.000487065
-0.00016374
-0.000416184
-8.90175e-05
-6.54388e-05
-5.14635e-05
-0.000478902
-1.20731e-05
0.000493931
2.18423e-05
5.34205e-05
0.000252094
0.00046651
-4.06724e-05
-0.000418298
0.000471756
-0.000380327
0.000225009
-0.000124994
-9.99808e-05
0.000337853
-0.000183217
5.73182e-05
-0.000425712
-4.39658e-05
-7.41813e-05
5.05098e-05
-0.000122893
-0.000641685
0.000156128
9.8544e-05
0.000126495
0.000227214
-0.000349847
0.000116176
-7.18673e-05
-4.43084e-05
0.000175765
-0.00030527
-0.000162291
0.000258227
-9.59212e-05
0.000167041
0.000357343
-0.000125418
0.000253029
0.00019528
-0.000446282
-7.08235e-06
-0.000252348
0.000259462
0.00015904
-6.71274e-05
-9.19095e-05
-3.34762e-05
0.000136745
-0.00010159
-0.00058569
-2.05479e-05
0.000108579
0.000342592
-0.000416755
0.000154232
0.000147543
-0.000595598
-0.000461648
0.000156914
0.000193052
-0.000322025
0.000129048
-9.50704e-05
7.97318e-05
1.53386e-05
0.000334057
0.00013473
-6.00243e-05
0.000120885
-1.5129e-06
4.67739e-06
0.00015787
-2.19673e-05
-0.000132225
-0.000193484
-8.6107e-05
-6.5498e-05
0.000151607
-0.00043208
-7.69633e-05
-5.26569e-06
3.23165e-06
-0.000295225
-0.000133189
0.000484033
-0.000577423
0.000100886
0.000392278
-0.000381869
0.000573299
-0.000632165
0.000433648
0.000200096
-0.000504333
-0.000186687
-0.000594153
0.000106726
-0.000138545