/*--------------------------------*- C++ -*----------------------------------*\
| =========                 |                                                 |
| \\      /  F ield         | OpenFOAM: The Open Source CFD Toolbox           |
|  \\    /   O peration     | Version:  v2012                                 |
|   \\  /    A nd           | Website:  www.openfoam.com                      |
|    \\/     M anipulation  |                                                 |
\*---------------------------------------------------------------------------*/
FoamFile
{
    version     2.0;
    format      ascii;
    class       surfaceVectorField;
    location    "700";
    object      Uf;
}
// * * * * * * * * * * * * * * * * * * * * * * * * * * * * * * * * * * * * * //

dimensions      [0 1 -1 0 0 0 0];


internalField   nonuniform List<vector> 
20673
(
(1.10436 0.123311 -1.16633e-20)
(1.10865 0.120497 4.85203e-21)
(1.10355 0.118 -2.79054e-20)
(1.02347 0.0413738 4.13923e-22)
(1.02221 0.0407641 -8.41804e-22)
(1.02251 0.0427499 -3.73196e-21)
(0.589103 -0.0987329 1.77185e-20)
(0.626569 -0.101745 7.88196e-21)
(0.65542 -0.102476 -1.48606e-20)
(1.0524 -0.0159899 -7.77128e-21)
(1.05278 -0.0149737 1.07436e-21)
(1.05159 -0.0151848 5.69169e-21)
(0.996549 0.00440889 8.27281e-23)
(0.996369 0.00400292 -7.56084e-23)
(0.996073 0.0045844 -4.36523e-21)
(0.371646 0.0654416 6.40774e-21)
(0.360097 0.0384806 5.4595e-21)
(0.343017 0.0661126 -3.67356e-21)
(0.533328 -0.0843232 5.64227e-21)
(0.526949 -0.0865959 -2.12251e-20)
(0.582046 -0.0896397 6.06237e-21)
(0.64919 -0.103254 -1.5109e-20)
(0.596889 -0.100006 -1.13553e-20)
(0.616571 -0.103708 -6.31498e-21)
(0.418432 -0.0863271 -1.50346e-20)
(0.38429 -0.08194 3.55667e-20)
(0.349569 -0.0774881 2.91171e-22)
(1.14846 0.148781 -6.51286e-21)
(1.15498 0.148529 1.60823e-22)
(1.15258 0.155078 -2.78525e-20)
(1.10495 -0.0880715 0)
(1.10296 -0.0881157 5.04986e-21)
(1.10478 -0.0901037 0)
(1.08321 -0.0583883 -9.75352e-22)
(1.08344 -0.0600026 9.8008e-21)
(1.0847 -0.0584735 -1.53865e-22)
(1.05317 -0.0164487 -1.35491e-20)
(-0.0356634 -0.0163172 0)
(-0.0150485 -0.0211669 0)
(-0.0427835 -0.0178739 -2.7453e-20)
(0.976985 0.0982699 4.99297e-23)
(0.972709 0.0978135 -2.65354e-21)
(0.975718 0.0939803 5.33966e-21)
(0.999299 0.0927248 -3.63388e-21)
(0.996843 0.0903228 1.84154e-21)
(1.00057 0.088833 1.67726e-21)
(1.01688 0.0476839 5.8154e-22)
(1.01832 0.0472598 0)
(1.0171 0.046098 0)
(1.14771 0.0068504 -6.89677e-21)
(1.14905 0.00945001 -3.33844e-20)
(1.15094 0.00575661 2.51497e-20)
(1.08173 -0.0587124 -1.64358e-20)
(1.08252 -0.0570776 1.80133e-22)
(1.00174 0.00525395 -6.08092e-22)
(1.00174 0.00501717 -1.4279e-23)
(1.00155 0.00486869 0)
(0.999989 0.00113201 2.36133e-22)
(0.99998 0.00151127 8.96533e-21)
(0.999991 0.00113563 3.75277e-21)
(0.532097 -0.0844809 7.72836e-21)
(0.493346 -0.0843561 0)
(1.00115 0.00819353 1.15806e-21)
(1.00123 0.00863963 1.165e-21)
(1.00135 0.00847239 -5.71467e-22)
(0.692515 -0.109524 7.9311e-21)
(0.702148 -0.110698 2.6841e-21)
(0.995816 0.0161596 -6.72277e-23)
(0.995332 0.0159763 4.14099e-22)
(0.995597 0.0167542 9.27592e-22)
(0.589488 -0.0800259 -2.16905e-20)
(0.549322 -0.0759138 5.36624e-21)
(0.545209 -0.0782342 -6.81804e-21)
(0.789079 0.0407932 -2.49276e-20)
(0.780118 0.0465332 -3.83498e-20)
(0.781184 0.0345431 -4.00614e-20)
(0.762651 0.12577 -3.14193e-20)
(0.761244 0.13834 -1.82965e-20)
(0.752253 0.129269 -1.65855e-20)
(0.717551 0.569331 5.35376e-21)
(0.749161 0.580354 1.65552e-21)
(0.726485 0.614168 4.23042e-22)
(1.20908 0.0879567 -1.32611e-20)
(1.2085 0.0827717 -4.86515e-21)
(1.21393 0.0838078 -5.25228e-20)
(1.12309 0.108647 -2.15165e-21)
(1.11984 0.112021 8.33337e-22)
(1.1185 0.107169 -5.4773e-20)
(1.06805 0.0889033 -4.93831e-21)
(1.06507 0.0897764 -9.67661e-21)
(1.06584 0.0862262 -4.99878e-21)
(0.843279 0.0749368 -5.75043e-21)
(0.835536 0.0777311 3.81353e-20)
(0.836701 0.0682805 1.58804e-20)
(0.908051 0.00526285 -1.18943e-20)
(0.910741 0.00219422 -9.81932e-21)
(0.912102 0.00607312 2.67708e-20)
(0.992007 0.0131028 4.51636e-21)
(0.991493 0.0137738 -5.86838e-22)
(0.992211 0.0139855 -2.73758e-21)
(1.09314 -0.104576 7.6713e-21)
(1.09602 -0.105618 7.62022e-21)
(1.10037 -0.107529 1.80868e-20)
(1.001 0.00787486 -5.11907e-22)
(1.00114 0.00775178 1.76675e-22)
(0.113101 -0.0517176 1.30065e-20)
(0.0858229 -0.0472894 -2.35482e-21)
(0.0999282 -0.0484521 2.96421e-20)
(1.05819 -0.0214576 0)
(1.05889 -0.0224207 6.31115e-21)
(0.320446 -0.0212003 -9.56226e-22)
(0.295438 -0.0180537 -6.65489e-21)
(0.324394 -0.0206802 -9.12091e-21)
(1.00865 0.000913805 6.1531e-22)
(1.00903 0.000893431 0)
(1.00822 0.000517669 0)
(0.999997 0.000784171 0)
(1 0.000368058 0)
(0.999999 0.000399316 2.80883e-21)
(1.02042 0.00194658 -1.67974e-21)
(1.02016 0.00213652 -1.79829e-21)
(1.02002 0.00184376 3.25209e-21)
(0.698613 0.202526 3.84851e-20)
(0.715235 0.210397 4.13966e-20)
(0.698014 0.224656 4.13627e-20)
(1.03941 0.0223698 -4.88804e-21)
(1.04039 0.0230304 4.44792e-21)
(1.04058 0.022097 0)
(0.891359 0.0216219 0)
(0.889734 0.017073 0)
(0.895212 0.0181112 1.37358e-20)
(1.14654 0.0032264 -2.15822e-21)
(1.14419 0.00699662 0)
(1.14854 -0.0323358 6.92637e-20)
(1.14718 -0.0293668 -3.57625e-21)
(1.14519 -0.0322667 2.32506e-20)
(0.0915521 0.131212 1.05477e-19)
(0.0904961 0.16654 -2.29141e-19)
(0.12021 0.145497 -6.68864e-20)
(1.00343 0.000760432 1.10876e-22)
(1.00373 0.000689309 1.24775e-22)
(1.00367 0.00106703 -3.62584e-22)
(1.08658 0.00749697 0)
(1.08781 0.0084623 -1.76285e-20)
(1.08812 0.00673742 0)
(0.966564 0.0122504 1.70387e-21)
(0.965319 0.0109265 1.21472e-20)
(0.964975 0.0130263 3.23754e-21)
(0.0852044 0.101207 1.20311e-19)
(0.0516395 0.134702 2.43492e-19)
(0.905052 0.00842397 -4.51076e-21)
(0.903808 0.00399701 -1.16269e-20)
(1.01668 0.049251 1.10229e-21)
(1.0153 0.0478474 5.07613e-22)
(1.08906 0.0316908 2.23932e-20)
(1.08844 0.0339405 9.63176e-21)
(1.09104 0.0333724 1.09555e-21)
(1.10744 -0.0883101 3.29505e-20)
(1.10601 -0.0859766 -1.80396e-20)
(0.996447 0.0315033 6.74429e-23)
(0.996434 0.0300994 3.92679e-21)
(0.997524 0.031025 1.16629e-21)
(1.07435 0.0397531 -1.59851e-20)
(1.07659 0.0406742 0)
(1.07458 0.0422854 9.32806e-21)
(1.03827 0.0226069 -9.64892e-21)
(1.03838 0.0216791 -2.90271e-22)
(0.551084 0.042473 -1.12763e-19)
(0.405997 0.0255114 5.06754e-20)
(0.462021 0.029957 -1.02184e-19)
(1.02473 0.0406125 3.10231e-21)
(1.02487 0.0425639 1.23808e-21)
(-0.0326658 -0.0136229 1.90573e-20)
(1.00174 0.00546423 5.7549e-22)
(1.00194 0.0056304 7.00258e-22)
(0.380074 0.100961 0)
(0.403779 0.069738 -5.04412e-20)
(1.06951 0.367131 -6.42072e-20)
(1.02703 0.339101 -4.05207e-20)
(0.762848 0.248541 -1.37959e-19)
(0.995714 0.00063235 6.96935e-21)
(0.995264 0.000825672 7.0912e-21)
(0.987695 0.000484715 6.96878e-21)
(0.988447 0.000393933 -4.82776e-21)
(1.16107 -0.0791688 1.92041e-20)
(1.15831 -0.0806773 -6.0819e-21)
(1.16236 -0.0825132 7.79852e-20)
(1.06848 0.135876 7.99e-22)
(1.07407 0.135678 0)
(1.0706 0.142163 0)
(0.996973 0.00427454 3.17003e-21)
(0.996706 0.00481713 7.3895e-23)
(0.488044 -0.0952018 6.18931e-21)
(0.452302 -0.0916616 -2.0303e-20)
(-0.153404 -0.0288768 -1.13496e-21)
(-0.127184 -0.0323835 8.04887e-21)
(-0.135186 -0.0311507 -2.51968e-20)
(0.996483 0.0162981 7.2413e-22)
(0.996176 0.0153602 -1.4841e-21)
(0.0910779 0.201347 -1.62227e-19)
(0.125562 0.219548 -6.32722e-20)
(0.0929062 0.239785 1.55465e-19)
(1.07391 -0.0638626 0)
(1.07343 -0.0629533 0)
(1.07456 -0.0628463 0)
(-0.155449 -0.0238389 -1.95386e-20)
(-0.129038 -0.0288418 3.08888e-20)
(-0.145176 -0.0242399 -2.22642e-20)
(1.05517 0.0231185 -1.22005e-20)
(1.05659 0.0235633 -4.00808e-21)
(1.05551 0.0247308 4.55486e-21)
(0.561761 -0.0653602 -7.22264e-22)
(0.558568 -0.0682284 -7.41416e-22)
(0.599488 -0.0697829 -5.43264e-21)
(0.99996 0.00224492 -3.41912e-21)
(0.999915 0.00261879 -3.19112e-21)
(0.999935 0.00265078 -2.55116e-21)
(1.00013 0.00347108 -6.31203e-23)
(1.00014 0.00379791 3.2468e-21)
(1.00015 0.00338683 -2.29431e-21)
(0.99613 0.000903719 9.45389e-22)
(0.389309 0.126924 6.584e-20)
(0.399721 0.15706 6.55853e-20)
(0.421105 0.133011 1.31411e-19)
(0.145087 -0.0574779 -1.21724e-20)
(0.130866 -0.0564695 -1.93016e-20)
(-0.0901441 0.00556398 8.31947e-20)
(-0.131167 0.00243262 3.86141e-20)
(-0.12018 0.00205247 8.88588e-20)
(1.05367 0.0228105 4.0084e-21)
(1.05475 0.0217532 -3.06415e-21)
(1.00048 0.00469778 0)
(1.00053 0.004602 -1.5125e-21)
(1.0004 0.00427022 2.0694e-21)
(1.09253 0.396252 -2.71943e-20)
(1.20274 0.43994 2.44016e-20)
(1.08472 0.00658603 1.26252e-20)
(1.08476 0.00857733 8.91247e-21)
(1.02065 0.00183004 0)
(1.02079 0.00210781 1.40376e-21)
(-0.0440705 -0.0429233 1.35204e-20)
(-0.0736173 -0.0395123 3.88205e-20)
(-0.0596143 -0.0407283 -2.15e-21)
(1.19393 0.124994 -1.9935e-20)
(1.18758 0.127402 -1.43633e-20)
(1.19139 0.131961 4.38279e-20)
(1.02444 0.0232411 1.05461e-21)
(1.02474 0.0224143 4.37139e-21)
(1.02375 0.0224591 3.73964e-21)
(0.976389 0.0542813 3.13244e-22)
(0.974341 0.0555484 -7.61726e-21)
(0.97687 0.0567721 7.26493e-21)
(1.17594 0.432976 8.61726e-21)
(1.01031 0.385051 -1.14519e-19)
(0.374323 0.0112793 0)
(0.402978 0.00413055 1.03077e-19)
(0.380109 -0.0231959 1.18923e-20)
(1.12829 -0.0743052 0)
(1.13072 -0.0746829 3.58466e-20)
(1.12925 -0.0769661 0)
(1.14665 -0.0210431 2.63942e-20)
(1.14982 -0.0210542 2.8784e-20)
(1.14834 -0.0182606 3.04094e-20)
(1.07589 -0.0739341 -1.20263e-20)
(1.07487 -0.0746651 -6.58943e-21)
(1.07469 -0.073747 1.46538e-20)
(0.595143 0.138124 1.66618e-21)
(0.615334 0.123599 -7.6904e-20)
(0.617215 0.150153 -5.5523e-20)
(1.0113 0.00553955 5.01871e-23)
(1.01175 0.0056237 1.3019e-21)
(1.01159 0.00602068 2.51109e-21)
(0.840818 0.0031353 -3.64884e-20)
(0.844496 0.0106329 -1.21149e-20)
(0.848558 0.00365494 1.67736e-20)
(0.681984 0.195929 0)
(0.700057 0.186988 4.9117e-20)
(1.06218 0.0164308 -6.88616e-21)
(1.0634 0.0160232 8.79349e-21)
(1.06223 0.0148384 -1.33694e-22)
(1.01675 0.0119621 -2.46965e-21)
(1.01676 0.0113855 6.47532e-23)
(1.01734 0.0118847 9.92522e-22)
(0.43293 -0.0807412 8.49357e-21)
(0.421285 -0.0796053 2.55306e-20)
(0.502016 -0.0828283 1.28804e-21)
(0.823527 0.506566 -7.03366e-21)
(0.79492 0.524717 1.56226e-20)
(0.8343 0.532978 4.45617e-21)
(1.14961 -0.0344622 -1.73588e-20)
(1.15137 -0.0319954 2.06712e-20)
(1.01989 0.046743 0)
(1.0199 0.0485303 6.91168e-22)
(1.12197 0.122421 4.33392e-22)
(1.11822 0.125437 4.13986e-20)
(1.12333 0.127669 6.22143e-20)
(-0.178501 -0.0212412 -5.51187e-20)
(-0.210433 -0.0209985 3.13346e-20)
(-0.1971 -0.0209957 3.36795e-20)
(0.337771 -0.024061 3.0056e-22)
(0.313544 -0.0207522 -1.27662e-20)
(1.08321 -0.0659915 -3.68962e-21)
(1.0821 -0.0661808 2.67812e-20)
(1.08271 -0.0671552 0)
(0.433424 -0.0826726 0)
(0.365756 -0.0797452 8.04934e-20)
(0.949463 0.0107745 1.49009e-20)
(0.948147 0.0128592 2.92885e-20)
(0.947299 0.0101302 -1.27612e-20)
(0.0884311 -0.123587 -1.81144e-19)
(0.098913 -0.0939927 7.56512e-20)
(0.0616505 -0.0997888 -4.95641e-20)
(1.00146 0.0143815 2.14614e-21)
(1.00157 0.0150423 1.10423e-21)
(1.00119 0.0147319 3.2686e-21)
(0.18148 0.104709 -1.33647e-19)
(0.211613 0.0862284 3.06942e-20)
(0.21269 0.121428 -1.28828e-19)
(0.173431 -0.0245722 -7.50703e-21)
(0.18235 -0.0268096 0)
(0.195185 -0.0310261 1.09691e-20)
(0.907847 0.0163061 6.36179e-21)
(0.905109 0.0196086 -1.06723e-20)
(0.909739 0.0199722 9.32121e-21)
(1.00002 0.00118436 0)
(0.999995 0.00117549 0)
(1.16366 -0.0779209 -2.34592e-20)
(1.16025 -0.0765884 -1.18917e-21)
(0.126378 -0.0271025 -7.67536e-21)
(0.14778 -0.0320712 -6.5862e-21)
(0.139022 -0.0312795 0)
(0.764372 0.113787 1.1373e-20)
(0.776259 0.122423 -1.16582e-20)
(1.00515 0.000663539 0)
(1.00538 0.000962543 -1.45607e-22)
(1.00548 0.00056192 0)
(0.976241 0.0516102 3.11509e-21)
(0.978614 0.0528308 -4.71708e-21)
(1.03568 0.0259368 -4.57813e-21)
(1.0365 0.0267971 0)
(1.03541 0.0269457 3.46267e-21)
(1.00483 0.000679312 2.23106e-22)
(1.0047 0.000333338 7.63113e-22)
(1.0176 0.00162779 -1.18569e-21)
(1.01781 0.00146757 1.99138e-21)
(1.01752 0.0013864 2.43872e-21)
(0.346052 0.0124507 -6.17795e-20)
(0.255035 -0.0518003 1.87569e-21)
(0.242626 -0.0486563 0)
(0.231799 -0.0448646 0)
(0.950935 0.00838962 3.72103e-20)
(0.95201 0.0111076 -3.87441e-21)
(1.04135 0.0236928 -2.73213e-22)
(1.04014 0.0240447 2.0823e-21)
(0.999976 0.00110962 -6.40801e-21)
(1 0.000753368 -1.80245e-21)
(1.25132 -0.0173072 6.4606e-20)
(1.27327 -0.0147565 1.36692e-20)
(1.21852 -0.0237774 3.67228e-20)
(0.740703 -0.114654 -2.05215e-20)
(0.682431 -0.109087 2.52484e-20)
(1.1048 0.128317 1.38674e-20)
(1.10005 0.125402 3.11762e-20)
(0.578628 0.149344 3.68019e-20)
(0.57931 0.121415 1.5099e-19)
(0.995239 0.0012889 -2.7169e-21)
(0.994773 0.000973742 1.40261e-20)
(0.906259 0.0123862 7.11566e-21)
(0.910561 0.0134337 0)
(1.09083 -0.104605 -1.0391e-20)
(1.08835 -0.103184 -1.8525e-20)
(1.08919 -0.101594 1.70554e-20)
(1.02533 0.0119404 8.92143e-21)
(1.02532 0.0125117 5.30918e-21)
(1.0246 0.0120439 3.41069e-21)
(0.96409 0.0242999 9.88272e-22)
(0.961988 0.0250719 3.97011e-21)
(0.962632 0.0224964 -2.29462e-21)
(0.665009 0.200054 -5.2825e-20)
(0.644478 0.206298 3.72415e-20)
(0.663246 0.223133 -1.10993e-19)
(0.987502 0.00121442 1.34837e-20)
(0.986922 0.000690933 4.23136e-21)
(0.697903 -0.101419 1.56708e-20)
(0.618491 -0.095551 -2.81325e-20)
(0.691323 -0.099697 -1.27736e-20)
(0.811292 0.613546 -1.57352e-21)
(0.819287 0.583868 1.39567e-21)
(0.784053 0.584627 3.26449e-22)
(0.967932 0.0138511 -1.51829e-20)
(0.968431 0.0116814 -1.57451e-20)
(1.02376 0.00998796 0)
(1.02386 0.0105277 0)
(1.02318 0.0100967 0)
(1.06287 0.0967676 -1.08767e-20)
(1.05914 0.0973923 -5.60482e-22)
(1.0619 0.101237 7.0634e-21)
(1.11591 -0.0393774 0)
(1.11744 -0.041519 0)
(1.11791 -0.0382676 0)
(0.112535 -0.144848 -2.64675e-21)
(0.0733223 -0.153977 -8.52659e-20)
(1.10515 -0.065248 1.93479e-21)
(1.10691 -0.0664263 -8.21966e-21)
(1.1046 -0.0670019 1.97365e-20)
(1.03037 0.184189 2.47749e-21)
(1.03345 0.17915 -2.94279e-21)
(1.03818 0.183207 0)
(1.08395 0.0594757 1.32607e-20)
(1.08189 0.0616729 1.00516e-20)
(1.08098 0.0586348 -1.29735e-20)
(-0.050671 0.0345681 0)
(-0.0677026 0.0390523 -4.08116e-20)
(-0.100106 0.0326062 1.64646e-20)
(1.06331 0.136579 1.31491e-21)
(1.06616 0.131422 -7.32238e-21)
(1.12247 -0.128183 1.62729e-20)
(1.14508 -0.12506 1.40022e-21)
(1.14843 -0.124029 4.37261e-20)
(-0.189561 -0.0212494 -4.2471e-20)
(-0.163619 -0.024489 -3.44599e-20)
(1.28518 -0.0139705 7.55075e-20)
(1.20691 -0.0156122 3.04414e-21)
(0.943015 0.0468264 -4.72782e-21)
(0.940252 0.0484891 -1.92699e-20)
(0.940018 0.0448852 0)
(0.788753 -0.0225975 1.53714e-20)
(0.783105 -0.0140618 5.90935e-20)
(0.777169 -0.0249992 -7.73883e-21)
(1.00004 0.00271149 -6.33159e-22)
(1.00006 0.00260779 2.46045e-21)
(1.00001 0.00223567 2.52589e-21)
(1.12534 -0.0747039 0)
(1.12701 -0.072026 0)
(1.08471 -0.0659357 -3.63237e-21)
(1.08372 -0.0646993 -8.39869e-21)
(1.07656 -0.0732437 -2.51772e-20)
(1.07698 -0.0742028 -1.1927e-20)
(1.06212 0.0177811 -1.42394e-20)
(1.06097 0.0166896 -6.30886e-21)
(1.13151 -0.0313937 -1.38459e-20)
(1.12967 -0.0332181 3.55954e-20)
(1.13256 -0.034187 6.58223e-20)
(1.03293 0.0190775 8.90093e-21)
(1.0338 0.0196491 3.00279e-22)
(1.03279 0.0199903 1.41413e-20)
(0.837609 -0.00320741 2.79262e-22)
(0.832967 0.00416867 -1.50549e-20)
(1.05629 0.177501 9.72275e-21)
(1.0488 0.177052 -4.9797e-21)
(1.05413 0.170641 8.72687e-21)
(-0.315912 -0.0122282 0)
(-0.333527 -0.0111726 -5.68125e-20)
(-0.302297 -0.0123507 2.74753e-20)
(1.07914 -0.0673009 -9.31399e-21)
(1.07936 -0.0684317 -1.06056e-20)
(1.08031 -0.0676091 -7.24695e-21)
(1.01606 0.0556731 -7.06143e-22)
(1.01608 0.0574968 1.65622e-22)
(1.01423 0.0563506 -2.54674e-22)
(0.813031 -0.112807 -2.8395e-20)
(0.802626 -0.11247 0)
(0.876029 -0.114455 -1.15847e-20)
(1.02249 0.202777 -1.79889e-21)
(1.01961 0.207968 1.24232e-21)
(1.02763 0.207661 -5.57641e-22)
(0.26755 -0.0523514 4.24059e-21)
(0.283441 -0.0562589 6.08991e-21)
(0.150333 0.0876212 -1.61088e-19)
(0.1512 0.125131 -1.02238e-19)
(0.714228 -0.103896 -1.44939e-20)
(0.782317 -0.105434 0)
(1.01369 0.0264815 1.77652e-22)
(1.01441 0.0271117 -5.02462e-23)
(1.01356 0.0273729 4.04961e-22)
(1.19987 0.123428 -3.36529e-20)
(1.19591 0.118998 -5.74597e-20)
(1.12848 0.110114 1.58354e-20)
(1.12683 0.105268 1.56317e-20)
(1.026 0.0117836 1.52277e-21)
(1.02526 0.0113422 1.71865e-21)
(1.00045 0.00481374 2.00018e-21)
(1.00056 0.00516101 0)
(0.94003 0.120194 1.38266e-20)
(0.935979 0.116285 1.23216e-20)
(0.942115 0.115598 -2.43832e-21)
(0.63895 -0.0836428 4.43625e-21)
(0.634239 -0.0845465 -1.15019e-20)
(1.27441 0.132118 -5.38909e-21)
(1.28223 0.130027 4.68169e-21)
(1.28325 0.137463 -8.39641e-22)
(-0.0335324 0.0344159 0)
(0.0298675 0.0479896 2.47922e-20)
(1.12224 0.0324805 6.67346e-21)
(1.12193 0.0353116 1.25551e-20)
(1.12478 0.0338002 2.83125e-20)
(1.08448 -0.0756832 -1.15453e-20)
(1.0835 -0.0755607 1.32032e-20)
(1.08376 -0.0768168 -1.79388e-20)
(1.11149 -0.110306 1.2543e-20)
(1.11473 -0.112282 0)
(1.11896 -0.113318 0)
(-0.0442545 0.00786255 -4.98105e-20)
(-0.0572688 0.00768441 4.04541e-20)
(1.26859 0.178906 3.41269e-20)
(1.26889 0.171761 0)
(1.27707 0.175882 -1.75806e-20)
(1.00001 0.0087473 -2.8473e-21)
(1.00008 0.0083436 -2.86197e-21)
(0.999911 0.0082595 2.52467e-21)
(0.567165 0.0595713 9.55177e-21)
(0.573019 0.0796938 -7.69332e-20)
(0.547953 0.0740052 -9.16171e-20)
(0.797511 0.0373171 -2.22802e-21)
(0.79684 0.0485114 -3.14301e-20)
(1.00967 0.000364888 -9.00019e-22)
(1.00932 0.000361029 -1.51767e-21)
(1.02407 0.0239244 -2.21125e-21)
(1.02515 0.0239689 -9.15776e-22)
(0.872901 0.472898 4.47715e-21)
(0.867549 0.444964 5.14009e-21)
(0.89525 0.454005 0)
(1.22973 0.49781 9.0431e-21)
(1.22866 0.475622 7.14438e-20)
(1.10156 0.430548 -1.00462e-19)
(1.07435 -0.00991054 -7.52674e-21)
(1.07536 -0.0108992 -6.69253e-22)
(1.07592 -0.00951031 2.07941e-21)
(1.00325 0.000914151 0)
(1.00323 0.000571356 -8.6998e-24)
(1.12326 -0.0338527 -3.56653e-22)
(1.12201 -0.0315965 0)
(1.12515 -0.0318743 0)
(1.11423 -0.0409735 0)
(1.11395 -0.0379736 2.05857e-20)
(-0.170909 -0.027084 3.32343e-20)
(-0.17806 -0.0263046 -8.55369e-21)
(1.25575 -0.0621404 -1.74577e-20)
(1.25693 -0.0654206 1.34673e-21)
(1.26343 -0.0623773 4.54653e-20)
(0.992462 0.0126523 -3.0587e-21)
(0.99198 0.0124955 6.83698e-21)
(0.995381 0.0317935 0)
(0.99644 0.0326588 2.15709e-22)
(1.14379 -0.0209766 -9.88175e-22)
(1.1448 -0.023718 -6.31684e-20)
(0.609766 -0.0916134 0)
(0.671129 -0.0942752 0)
(0.652168 -0.0944636 -1.25228e-20)
(0.965948 0.0232695 1.33997e-21)
(0.965749 0.0256578 1.60767e-20)
(0.518087 -0.0877323 -1.5008e-20)
(0.50666 -0.0880517 1.15144e-20)
(0.565597 -0.0915832 2.65556e-20)
(-0.229598 -0.0212495 0)
(-0.202551 -0.0230297 0)
(-0.22325 -0.0212495 -5.69207e-21)
(1.08534 -0.0748517 1.33454e-21)
(1.0858 -0.0763606 2.64272e-20)
(1.0163 0.0119398 2.32545e-21)
(1.01676 0.0123927 1.12519e-21)
(0.493357 0.396169 0)
(0.512977 0.431291 -9.02733e-20)
(0.459855 0.43207 0)
(1.13499 -0.0203398 0)
(1.13793 -0.0207108 0)
(1.13661 -0.0179005 0)
(-0.30784 -0.0174537 -4.54171e-20)
(-0.274643 -0.020103 1.37917e-20)
(-0.293674 -0.0166258 2.60395e-20)
(1.00362 0.018816 2.61264e-21)
(1.00403 0.0191991 1.81917e-21)
(1.00366 0.0196256 9.07459e-22)
(0.696209 0.0626099 -5.47933e-20)
(0.651604 0.0607227 -5.62593e-20)
(1.01291 0.0257613 -3.63746e-22)
(1.01374 0.0256151 -3.7058e-22)
(1.20437 0.0600745 3.37751e-20)
(1.2003 0.0576693 0)
(1.20025 0.0623465 0)
(1.00851 0.00118639 5.4304e-22)
(1.0083 0.000823551 -5.36627e-23)
(0.0809074 -0.0541528 1.15978e-20)
(0.0542658 -0.0512917 2.03453e-21)
(0.0749762 -0.0524487 -3.98531e-22)
(0.411526 -0.0783462 -1.39646e-20)
(0.400505 -0.0772156 -5.41621e-20)
(0.477672 -0.0794964 -6.12253e-20)
(0.998858 0.0960721 -1.54289e-21)
(1.00247 0.0946634 -3.04508e-21)
(1.19315 0.498331 4.19895e-20)
(1.23314 0.509996 2.98852e-20)
(1.20536 0.479768 3.52824e-20)
(1.08694 0.0599874 -1.34583e-21)
(1.08536 0.057106 -4.42835e-21)
(1.01561 0.0118569 -1.50862e-22)
(1.01571 0.0113023 5.52156e-21)
(1.08685 -0.102088 -1.1415e-20)
(1.09171 -0.103883 -1.33303e-20)
(1.07809 -0.0670327 1.62372e-20)
(1.07889 -0.0662287 -9.8981e-21)
(1.11983 0.0312074 -4.28154e-21)
(1.12232 0.0297201 -2.25198e-20)
(0.719255 -0.108173 -1.04773e-20)
(0.671792 -0.106035 1.49276e-20)
(0.74271 -0.108251 -1.27443e-20)
(-0.237944 -0.0178765 1.34432e-20)
(-0.259616 -0.0176115 -3.45455e-20)
(1.01222 0.00298052 2.20569e-21)
(1.0126 0.00301697 -1.56541e-21)
(1.01239 0.00261176 -9.21049e-22)
(1.07101 0.0877089 0)
(1.07044 0.0916622 1.34439e-20)
(-0.023749 -0.046247 0)
(-0.00975699 -0.0474347 3.57048e-20)
(-0.142548 0.00687041 -6.69216e-20)
(-0.170825 0.00447225 -4.83922e-20)
(-0.145947 0.00730361 -8.59523e-20)
(1.00003 0.00269028 -3.0618e-21)
(1.00002 0.00312083 -2.86791e-21)
(1.00639 0.00905997 -1.05944e-22)
(1.00682 0.00930229 -3.89361e-23)
(1.00659 0.00952428 -5.22872e-23)
(0.360947 -0.0199006 -4.73157e-21)
(0.379299 -0.0228372 -4.58207e-21)
(1.13732 -0.0777961 2.94434e-20)
(1.13481 -0.0779887 3.40355e-21)
(1.1359 -0.0806261 -2.83778e-20)
(1.00006 0.000143206 8.50121e-23)
(1.00003 0.000109465 0)
(1.00006 0.000179838 6.09951e-22)
(1.07724 -0.0960875 1.39708e-21)
(1.0759 -0.0946364 1.82218e-20)
(1.07996 -0.0944219 0)
(1.18962 -0.00367046 1.17069e-20)
(1.18808 -0.00750896 -2.34911e-20)
(1.18516 -0.00379904 -2.7205e-20)
(0.797973 -0.0225697 -2.82887e-20)
(0.793377 -0.0321279 3.77819e-22)
(1.10013 0.105409 8.37165e-21)
(1.1034 0.109 5.54307e-20)
(1.10386 0.103689 1.91878e-20)
(1.00006 0.00305686 2.34784e-21)
(1.00008 0.00258885 7.0773e-22)
(0.987533 0.215159 1.38121e-21)
(0.988821 0.205191 1.9821e-21)
(0.97888 0.209702 -1.1946e-21)
(-0.200092 -0.021891 -2.44213e-21)
(-0.197446 -0.0210336 -1.99905e-21)
(-0.232116 -0.0174123 9.55778e-22)
(1.03959 0.000961091 -6.22497e-21)
(1.03971 0.000272983 4.27442e-21)
(1.04054 0.000713064 -1.38658e-21)
(1.21739 0.139798 -2.53002e-20)
(1.21153 0.143469 -2.55612e-20)
(1.21204 0.135199 2.17668e-20)
(0.568603 0.167133 -1.60803e-21)
(0.584255 0.187896 0)
(0.554235 0.193375 -5.08909e-20)
(1.03485 0.0250618 -1.55423e-21)
(1.03589 0.0248491 -3.51766e-21)
(0.996475 0.0288439 -3.13001e-21)
(0.995511 0.0292472 3.70249e-21)
(1.10129 -0.0566975 1.273e-21)
(1.10281 -0.0581041 3.9753e-21)
(1.10062 -0.0584565 -7.21519e-21)
(0.392618 -0.0289865 5.42835e-21)
(0.37761 -0.026282 0)
(0.375299 -0.0265296 0)
(1.10337 -0.0644347 -1.78821e-20)
(1.10566 -0.06353 2.11712e-20)
(0.943125 0.12457 1.82211e-20)
(0.937428 0.125938 1.78207e-21)
(0.981041 0.0980276 4.47441e-21)
(0.978456 0.101971 -4.93902e-21)
(1.00006 0.000311394 -5.58806e-22)
(1.00005 0.00027055 -6.20267e-23)
(1.00002 0.000182466 0)
(0.10582 -0.0229704 -6.84157e-21)
(0.114484 -0.0236086 -1.53356e-21)
(0.554564 -0.0488638 -3.4099e-20)
(0.643409 -0.0529274 2.7344e-21)
(0.636733 -0.0499814 -2.62409e-20)
(1.06687 -0.0881478 -4.31593e-22)
(1.06861 -0.0892196 4.0735e-20)
(1.07009 -0.0886564 1.54695e-21)
(1.01509 0.0118224 -2.67997e-21)
(1.01557 0.0123215 -3.0572e-21)
(-0.205297 -0.023376 -1.12047e-20)
(-0.176667 -0.0259335 0)
(-0.187763 -0.0243496 0)
(-0.0218858 -0.0265381 1.13958e-20)
(-0.0151318 -0.0255626 -4.37446e-21)
(-0.0417605 -0.0209461 1.05844e-20)
(1.08123 -0.127247 0)
(1.0962 -0.127456 1.04931e-20)
(0.559429 -0.0651547 -1.83219e-22)
(0.528884 -0.064901 -5.59071e-22)
(1.0744 -0.064606 -9.34016e-21)
(1.07339 -0.0645875 0)
(1.00008 0.00354874 2.23869e-21)
(1.00653 0.00073697 0)
(1.00619 0.000787872 0)
(1.00659 0.00115913 -8.42911e-22)
(1.14569 0.000834994 -1.37937e-20)
(1.14264 0.000822093 -3.63042e-20)
(1.14453 -0.0020078 2.97007e-20)
(0.000657149 -0.0429961 3.23809e-20)
(-0.0185654 -0.0388982 -3.3039e-20)
(-0.025451 -0.0385495 2.36183e-20)
(1.17156 -0.0494771 -1.78472e-20)
(1.17417 -0.0472694 -5.9288e-21)
(1.17477 -0.0516205 -1.34087e-20)
(1.07209 0.0390877 -1.02815e-20)
(1.07392 0.0376332 -1.59483e-20)
(1.2488 -0.0605806 -4.77261e-20)
(1.21065 -0.0680557 -4.5005e-20)
(1.07117 -0.0469572 1.10553e-21)
(1.07036 -0.0460095 -7.88199e-21)
(1.01747 0.000886649 -8.06846e-23)
(1.01746 0.00111528 6.7161e-22)
(1.01767 0.000982941 1.08417e-21)
(0.9001 0.0133816 0)
(0.892855 0.00777842 0)
(0.80043 -0.00464799 7.90021e-20)
(1.00217 0.0050859 -1.274e-23)
(1.00217 0.00485903 -4.27371e-23)
(1.00196 0.00474053 -5.19313e-23)
(0.813958 -0.114096 1.19503e-20)
(0.742375 -0.111092 -4.86114e-21)
(1.07324 -0.00856286 -1.06019e-20)
(1.0726 -0.00998995 -1.10342e-20)
(1.00007 0.000110946 7.27367e-23)
(1.0001 0.000175001 7.76474e-24)
(1.00588 0.109846 1.35185e-21)
(1.0048 0.114664 1.4463e-21)
(1.00176 0.11025 -4.30273e-23)
(1.02859 0.19013 2.1879e-21)
(1.02387 0.184721 4.022e-22)
(0.777904 -0.00416779 -2.31403e-20)
(0.788221 -0.00380743 3.67905e-20)
(1.079 -0.0975939 -5.09621e-21)
(1.07877 -0.0972323 -1.12673e-20)
(1.00447 0.145138 1.25844e-22)
(1.00488 0.151368 2.07427e-22)
(0.998659 0.147359 -4.76923e-22)
(1.0434 0.00653745 2.23232e-20)
(1.04413 0.00730002 4.25439e-21)
(1.04303 0.00724594 7.69868e-21)
(1.27097 0.00293002 3.53462e-20)
(1.27451 0.00767742 -7.99338e-20)
(1.29373 0.00431765 -6.11136e-20)
(0.758575 -0.110136 -1.32791e-20)
(0.691688 -0.108686 -7.31333e-21)
(0.47906 -0.0535141 -6.5789e-21)
(0.483199 -0.0519191 -3.04324e-20)
(1.00318 0.0186019 1.54548e-21)
(1.0035 0.0182078 -3.58949e-22)
(1.06341 -0.126317 9.51307e-22)
(1.10342 -0.125795 -1.88056e-20)
(1.05191 -0.125387 1.79966e-20)
(0.998502 0.00113886 0)
(0.998406 0.00140681 -1.44136e-21)
(0.998218 0.00122988 4.63439e-21)
(1.04292 0.00573662 3.80791e-21)
(1.04402 0.00574554 8.65556e-21)
(1.00134 0.0136784 -5.25843e-21)
(1.00172 0.0139891 -3.05615e-21)
(0.841343 0.644542 -1.51319e-22)
(0.793414 0.65015 -2.53558e-21)
(1.00169 0.000973582 3.16326e-22)
(1.00183 0.000847365 0)
(1.00157 0.0007663 5.74203e-23)
(1.20819 0.0622152 1.27615e-21)
(1.20822 0.0576606 -1.30095e-20)
(1.09637 0.10811 -1.9689e-20)
(1.09646 0.102829 -2.14946e-20)
(1.03201 0.0184527 2.90296e-21)
(1.033 0.0181739 -2.6378e-21)
(1.12434 -0.0361924 3.79729e-22)
(1.12126 -0.035174 -2.27283e-22)
(1.04032 0.0565737 9.98965e-22)
(1.04114 0.0547725 0)
(1.04264 0.0565171 0)
(0.11963 0.0671394 -1.87692e-19)
(0.107136 0.0516565 3.82739e-20)
(0.10533 0.083123 -1.09991e-19)
(1.02608 0.19713 0)
(1.01848 0.197689 0)
(1.18402 0.121309 -5.65041e-20)
(1.18097 0.127985 6.56951e-22)
(1.03027 0.0126617 -3.24629e-21)
(1.03098 0.0132421 -6.64511e-22)
(1.03095 0.0124078 -1.99981e-21)
(0.997379 0.0284294 -4.96851e-21)
(0.996498 0.0276888 -5.93706e-21)
(-0.198597 -0.0191142 -1.50827e-19)
(-0.22199 -0.0187247 -3.78441e-20)
(-0.227109 -0.0187797 -2.04476e-20)
(0.10004 -0.0268501 0)
(0.0907106 -0.0260286 0)
(0.113918 -0.0316302 0)
(1.00159 0.015726 -1.79904e-21)
(1.00191 0.0153717 1.0126e-21)
(1.00722 0.000675916 -4.06172e-22)
(1.00765 0.000909787 1.65511e-22)
(1.00725 0.00119891 1.7421e-21)
(0.891089 0.012393 0)
(1.01108 0.021459 4.36025e-20)
(1.01669 0.0247425 4.87365e-22)
(1.01699 0.0257097 5.12932e-22)
(1.01777 0.0251656 -1.58766e-21)
(-0.0985801 -0.0355667 -3.33266e-22)
(-0.117879 -0.0334926 0)
(1.0295 0.0122635 -4.70136e-21)
(1.02956 0.0130884 -2.51479e-21)
(0.0858008 -0.0552617 9.32506e-21)
(0.107718 -0.0574599 -2.9064e-21)
(1.04493 -0.00798897 7.40554e-21)
(1.04431 -0.00853577 -6.95603e-21)
(1.04518 -0.00873902 -9.63719e-21)
(1.2329 0.328556 -6.47321e-20)
(1.21996 0.327708 2.94744e-20)
(1.22533 0.34123 2.70438e-20)
(1.1025 -0.00794395 -4.5314e-20)
(1.10272 -0.00571194 2.36455e-20)
(1.10488 -0.00710635 -5.48032e-20)
(0.0976034 0.314742 -4.89068e-20)
(0.0960293 0.274561 8.78556e-20)
(0.13113 0.292134 5.48771e-20)
(0.946294 0.0479354 3.28127e-21)
(0.945729 0.0445143 -4.72711e-21)
(1.31489 -0.00426834 4.23872e-20)
(1.29584 -0.00591413 -2.33112e-20)
(0.516748 0.302708 5.46566e-20)
(0.489887 0.313194 -8.94392e-20)
(0.517894 0.335322 3.9656e-20)
(1.00998 0.109918 5.66841e-22)
(1.00734 0.106621 -6.12729e-22)
(1.13875 -0.0757886 -8.65394e-21)
(1.13991 -0.0784254 2.48376e-20)
(0.959975 0.522179 -1.40961e-20)
(0.977656 0.540865 -3.14858e-20)
(0.947541 0.546032 3.08895e-21)
(0.998661 0.044836 4.44571e-21)
(0.997134 0.0444191 0)
(0.997632 0.046225 -7.19397e-23)
(0.189731 -0.0515602 0)
(0.162114 -0.0463823 -1.1052e-20)
(0.174482 -0.0475377 0)
(0.582146 0.0482738 6.62452e-21)
(0.561448 0.0395614 1.03296e-19)
(-0.00487259 -0.0303533 1.40836e-20)
(-0.0249244 -0.0276909 -3.42926e-20)
(0.923737 0.0215631 0)
(0.920142 0.0228711 2.67656e-20)
(0.923033 0.0256101 0)
(0.245594 -0.0230605 0)
(0.221303 -0.018895 0)
(0.24949 -0.0222039 7.95638e-21)
(1.07425 0.0865863 0)
(1.07688 0.0900111 -7.98121e-21)
(1.07777 0.0861993 -1.04646e-20)
(-0.119192 -0.0125844 -7.93156e-20)
(-0.0893553 -0.0121051 -3.43066e-20)
(-0.0785433 -0.0133256 3.73327e-20)
(0.523085 0.27141 9.47063e-21)
(0.54868 0.294677 8.71283e-21)
(0.935019 0.359175 -6.34101e-21)
(0.918023 0.356808 2.74236e-21)
(0.927454 0.374786 -5.47395e-21)
(0.953605 0.364633 2.4023e-22)
(0.944894 0.345856 -5.27402e-22)
(0.557937 -0.0971394 -3.77096e-21)
(0.525322 -0.0969149 1.82903e-20)
(0.999801 0.00293138 3.57119e-21)
(0.999746 0.00326907 1.87496e-21)
(0.999775 0.003296 0)
(1.06341 0.176132 -4.7677e-21)
(1.0605 0.183453 9.25194e-21)
(-0.142295 -0.0225432 -3.68428e-20)
(-0.156048 -0.021886 -3.85934e-20)
(0.984458 0.0313262 0)
(0.983599 0.0322398 0)
(0.98319 0.0306089 0)
(1.0057 0.0746081 -7.56104e-22)
(1.0064 0.0721467 2.96174e-21)
(1.00363 0.0727633 2.15179e-21)
(0.00449589 -0.0267143 -1.35891e-20)
(0.0129987 -0.0268798 0)
(0.849084 0.492082 -7.76779e-21)
(0.88232 0.500457 7.7419e-22)
(1.01965 0.0521461 -3.07036e-22)
(1.01971 0.0537871 7.02573e-22)
(1.02157 0.053109 0)
(1.10974 -0.108413 -3.0335e-21)
(1.10642 -0.107953 2.62486e-20)
(0.681978 0.564256 -2.93388e-20)
(0.708728 0.535838 -2.92097e-20)
(1.00933 0.00501754 5.03661e-23)
(1.00976 0.00525851 1.01427e-21)
(1.00968 0.00477602 4.74137e-22)
(0.164505 -0.0243687 1.17212e-20)
(0.144758 -0.019965 2.07424e-20)
(1.09977 -0.107922 -2.72468e-20)
(1.10454 -0.109507 -3.45941e-20)
(1.09508 -0.106443 -1.00678e-20)
(1.00217 0.00530855 1.25036e-24)
(1.00238 0.00544415 -8.11073e-22)
(1.01041 0.0131339 -3.34225e-22)
(1.00989 0.0127959 -1.72908e-22)
(1.01009 0.0134174 3.09005e-23)
(0.998488 0.000848313 6.84662e-21)
(0.998727 0.00101969 5.08161e-21)
(1.02444 0.00989013 -2.24931e-21)
(1.02374 0.00950593 4.93611e-23)
(1.26071 0.00335843 1.0138e-19)