/*--------------------------------*- C++ -*----------------------------------*\
| =========                 |                                                 |
| \\      /  F ield         | OpenFOAM: The Open Source CFD Toolbox           |
|  \\    /   O peration     | Version:  v2012                                 |
|   \\  /    A nd           | Website:  www.openfoam.com                      |
|    \\/     M anipulation  |                                                 |
\*---------------------------------------------------------------------------*/
FoamFile
{
    version     2.0;
    format      ascii;
    class       volScalarField;
    location    "400";
    object      ddt0(k);
}
// * * * * * * * * * * * * * * * * * * * * * * * * * * * * * * * * * * * * * //

dimensions      [0 2 -3 0 0 0 0];


internalField   nonuniform List<scalar> 
13851
(
2.66217e-07
-0.00394251
-1.09851e-06
1.89292e-07
4.46669e-07
0.000370524
-1.19668e-08
-2.02823e-07
-1.67991e-08
-2.03947e-06
-0.00198874
-0.00504486
-0.000897614
-0.0079701
-5.52751e-09
2.48819e-07
3.25467e-08
-1.22182e-06
-0.000177217
-1.39808e-08
1.57142e-07
-9.29251e-07
1.15242e-07
1.5787e-07
1.27335e-07
-2.18513e-07
1.68724e-08
-0.000357762
2.1999e-07
-1.23588e-07
0.00178423
3.0396e-08
-1.02804e-06
-0.00199234
1.50625e-07
-1.17684e-06
-2.92597e-05
5.41367e-06
-2.45351e-06
-0.00199937
-4.85105e-08
2.74062e-08
0.000906687
-0.0019224
-0.00148041
0.00299989
-0.00127799
-0.00181584
1.83099e-08
0.000284007
2.72382e-07
2.68048e-07
-0.000894321
-1.56103e-08
-6.13306e-08
3.04571e-08
1.49991e-07
-0.000166261
-1.26894e-07
-6.58281e-09
8.62176e-06
0.00339201
-3.32484e-06
6.94096e-07
-0.00109627
7.46649e-07
0.000121096
-0.000176799
4.96319e-08
-1.2169e-06
5.75904e-05
0.0010281
-0.00601794
-1.69611e-08
-1.32293e-08
-1.99358e-08
-8.5032e-07
0.000277316
7.57818e-08
2.6512e-05
-3.61252e-09
-0.00053022
-1.91602e-08
0.00125441
-2.27034e-06
-0.00431092
5.72254e-05
-0.0129684
2.19325e-08
1.0717e-07
-1.11647e-06
-1.51384e-05
0.00021635
2.57733e-08
2.16161e-08
2.92714e-07
5.62294e-07
-0.000584321
0.000536513
2.98453e-07
-0.00245919
1.39652e-07
-1.75106e-08
2.00333e-08
-1.28867e-08
7.20325e-05
1.57481e-07
2.09957e-08
0.00182548
0.000634927
2.75461e-07
7.09592e-08
-8.06786e-06
2.57781e-07
2.65337e-07
0.00220884
-0.00075983
2.07347e-08
-2.44744e-08
-8.23745e-08
0.00120832
1.96169e-08
-0.00108154
0.00251785
-0.00318953
3.92507e-07
-0.00175872
1.06766e-07
9.47421e-08
4.94725e-07
-4.72843e-08
-2.07977e-08
0.000107054
-1.58993e-08
0.00190114
-1.89564e-08
2.1468e-08
0.000974009
0.00325202
-0.000490288
-0.00308114
-5.53252e-08
1.62628e-07
7.24824e-08
9.69601e-09
-0.000819881
-7.89025e-05
2.41142e-07
-1.08727e-08
-0.000960198
-2.73386e-07
-6.23004e-08
-0.00751636
1.66912e-07
2.32856e-09
8.92889e-09
-4.01774e-08
-6.1462e-08
3.46021e-07
2.79789e-07
6.36086e-08
3.07679e-08
-0.000459759
-2.03182e-08
5.30019e-07
5.48119e-08
-0.000202204
5.17259e-08
5.67914e-08
0.000695028
0.000232111
-8.64998e-09
-3.82938e-08
-0.000700754
-1.7778e-08
-0.00392586
1.02537e-07
-6.80691e-08
-0.000179941
2.57783e-08
4.6677e-08
0.00146985
-1.28112e-08
-1.04583e-06
2.47378e-09
2.22399e-07
6.35197e-07
-3.39529e-08
3.71991e-07
-2.50586e-06
-0.000526463
-0.000906958
4.33798e-08
4.20173e-08
0.00312971
-1.28071e-09
1.83731e-07
-0.000935773
-3.50439e-08
-2.01565e-08
4.91724e-07
0.00370465
-1.14544e-07
-2.24609e-08
-1.02019e-06
-1.21991e-08
0.00812868
2.75169e-08
0.0003541
3.12956e-08
0.000982483
-1.19068e-08
0.000325001
1.94582e-08
5.76306e-08
-0.00170385
-2.3303e-06
0.00186299
-5.72586e-09
0.000379933
2.48043e-08
-4.48716e-09
-0.000199502
6.72495e-07
0.000875317
1.93633e-07
2.62246e-08
-2.11222e-08
-0.000647878
1.97746e-08
-2.30226e-07
0.0041215
-8.85373e-09
1.33761e-07
7.58811e-08
2.23291e-06
0.00912441
-0.00238636
7.41239e-08
-2.40248e-08
0.00117535
0.000791493
2.05728e-08
-1.35345e-06
-1.42628e-08
0.000656194
1.34673e-07
-0.00105821
1.63525e-08
9.2467e-08
2.03592e-06
0.000989542
-2.1552e-08
1.95914e-08
4.90469e-08
4.37448e-05
-1.49588e-06
0.00135021
0.00018509
-3.89534e-09
6.75916e-08
-1.12165e-06
-0.00175837
9.75534e-08
-0.00119527
-1.71728e-09
-2.03368e-08
2.43628e-08
-0.000241647
2.99798e-05
1.90035e-06
1.6425e-09
0.00394531
7.57049e-08
2.16014e-07
-2.30377e-08
-0.000576756
-0.000549559
0.00103433
-0.00156077
8.53497e-08
2.50197e-08
-1.93481e-08
5.36412e-08
-0.000642592
-0.00583827
-1.64204e-08
-2.84744e-09
0.00512584
-8.74437e-05
1.15182e-07
-1.09772e-07
-5.85926e-09
5.40379e-08
-0.000234392
-0.000741634
3.86033e-07
-0.00617922
-2.65162e-08
0.000717757
2.99208e-08
3.51381e-08
0.00110178
-4.47107e-08
9.03949e-05
0.000364844
-1.63088e-08
6.91404e-08
2.39251e-08
-1.09095e-07
0.0044122
4.47296e-07
-2.9526e-08
-0.000426592
3.37931e-08
9.54383e-08
7.32458e-07
0.00124412
-7.99999e-07
-5.81512e-09
1.18678e-07
-3.46771e-09
0.000333839
2.07062e-07
1.53076e-07
-4.91948e-08
-7.32023e-07
2.51153e-08
2.74912e-09
-3.55427e-09
-4.51711e-08
-3.23865e-08
-0.00169729
-0.00779022
0.00074586
-1.24743e-06
0.00129559
0.0017538
-5.46248e-09
4.07709e-08
-7.86762e-08
-1.46633e-05
6.022e-06
9.27705e-08
-0.000167121
-4.16849e-07
-0.00112246
0.000586072
-6.67131e-09
0.000267996
0.000265169
0.000821073
2.22469e-09
5.88381e-06
-0.000702588
-4.27947e-08
2.02044e-05
-5.03058e-08
-2.17653e-09
-5.93808e-09
2.1378e-08
-3.15736e-08
0.000665031
-0.000140041
-4.14968e-08
7.26731e-08
3.91776e-08
-0.00828424
4.48919e-07
-0.00211926
0.000941519
-4.34498e-08
-1.9275e-06
2.53113e-08
-0.00171719
-5.43714e-08
2.12047e-08
-6.02038e-07
0.000724991
-2.30762e-08
0.00565306
-1.41447e-05
-2.23207e-07
-0.000747008
0.000699074
0.000842778
7.30511e-07
-1.75817e-08
-2.22826e-08
-1.12893e-06
1.07087e-07
-0.00734154
5.20101e-08
0.00102837
0.000448128
4.19905e-08
-4.12312e-09
0.000605446
9.09009e-05
0.00244655
-0.000762654
1.17518e-05
2.73774e-08
2.79661e-07
0.00112183
-2.30601e-08
1.64412e-07
4.57893e-07
-6.39521e-09
-2.63889e-08
-1.55434e-08
5.16374e-08
7.03523e-07
4.36151e-06
0.000415636
-1.40845e-06
1.26385e-07
3.61868e-06
0.000723837
1.47568e-07
0.00149891
3.09947e-08
-0.00120951
2.11135e-08
-1.47488e-08
2.46952e-07
2.40385e-05
-0.0022257
7.96261e-07
4.02309e-06
0.000427525
-0.00151707
3.3006e-05
-9.0344e-08
6.09751e-08
-5.06499e-08
0.000377364
7.0412e-09
0.00318566
-0.00194118
-9.77753e-07
0.000326498
4.61283e-08
-0.000512735
-0.00178919
0.00191494
1.0607e-08
1.95271e-08
8.41583e-08
2.84363e-05
-1.60422e-08
-3.63591e-08
-2.28723e-07
2.90731e-08
-2.08896e-06
-0.000238508
1.99723e-07
-4.48272e-08
0.000476236
6.36818e-07
2.27325e-08
-0.00329883
-1.76807e-08
2.82196e-07
-1.73704e-08
1.83488e-06
-7.77973e-08
2.73054e-08
7.06316e-08
-0.000671043
-1.94332e-08
5.90799e-08
-1.72991e-08
-4.79954e-07
-0.00104375
2.41463e-07
-8.59456e-08
2.64602e-07
2.87905e-07
-0.00980693
-1.69537e-08
0.000120217
-1.08468e-08
2.52751e-07
-0.00655702
0.000302754
-1.11002e-08
3.2625e-07
1.44604e-07
0.00113349
0.00108524
-4.53593e-08
0.000681697
-4.98773e-08
-1.23278e-08
-5.25341e-09
-0.00092942
1.93792e-08
-0.000805149
-1.19065e-06
3.06539e-08
-1.15815e-06
3.28255e-05
-2.46031e-07
-0.000683266
-3.77096e-08
-0.00281107
-7.50822e-08
-1.3885e-08
-2.8344e-08
-1.00922e-08
0.000141228
2.5533e-07
-5.79986e-07
-6.64379e-05
-2.84609e-06
4.15749e-08
-0.00166169
-0.0021011
4.15117e-08
3.03741e-08
0.00101203
0.00149616
0.00115589
-4.01466e-08
-0.00107108
0.00143198
0.00602129
5.69222e-07
-1.87285e-06
0.00487138
-0.00062608
0.000469303
-0.00130233
0.0022362
-7.77413e-08
0.00167662
0.00136611
2.17298e-08
-0.000462985
2.19059e-07
0.00025557
2.62941e-08
-1.4966e-08
-3.70961e-08
-2.46854e-08
4.87858e-07
2.51901e-06
-0.0128048
0.000373745
-1.95614e-08
0.000711284
0.000323345
0.000455293
-0.00213426
5.71294e-08
1.68995e-08
-1.56856e-08
-2.62912e-05
-0.00154564
3.87339e-09
-3.38725e-07
-8.98411e-07
3.07776e-08
-9.72015e-07
0.00244213
3.86348e-05
4.05482e-07
0.000167416
0.00144128
-5.29348e-08
-7.33013e-09
0.00428114
0.000421674
-8.9534e-07
5.02223e-08
-5.37589e-06
2.31338e-08
-1.29116e-08
0.00324528
2.7325e-08
2.15944e-08
2.41731e-08
-1.01872e-08
0.00140742
6.41985e-07
1.99414e-06
2.54387e-08
0.007423
-0.000356287
-2.4923e-08
1.22478e-07
7.17198e-08
-2.31828e-08
0.00200601
-0.000902452
-0.000127653
0.0056627
-0.00658465
4.35565e-08
0.000217619
0.000310907
-7.36857e-07
4.97349e-08
1.55644e-08
8.64663e-07
5.10194e-08
-0.00098053
-0.0011623
-3.20222e-07
2.87303e-08
-1.44526e-08
3.77146e-07
1.50797e-07
-0.000629784
4.22259e-07
-1.15769e-08
-1.5957e-06
-1.58206e-08
2.44726e-08
7.39994e-07
-6.26293e-09
-5.37879e-08
3.31658e-07
-1.11271e-08
3.8718e-07
1.03334e-05
5.91377e-07
4.41873e-07
-1.04884e-06
-1.4654e-08
0.000352596
2.95505e-06
0.00399807
-2.27626e-08
2.78071e-07
0.00176592
-2.36305e-07
-0.00168842
0.000599056
-0.000330246
0.000114765
-2.09152e-08
0.00148794
1.98087e-07
-1.18224e-08
1.88513e-08
-1.07466e-08
-2.27242e-05
-1.41192e-06
1.93959e-06
2.33847e-08
0.00249766
-2.33024e-06
0.00288116
-4.27805e-08
1.00779e-08
1.09088e-07
-2.83573e-07
0.00514703
-7.89233e-09
2.50955e-08
8.02707e-08
2.85434e-07
1.54304e-08
-4.61257e-08
-2.96974e-05
-0.00154866
-1.10072e-08
2.25943e-08
-1.11091e-08
-4.49717e-08
0.00110068
-0.00087357
3.20568e-07
-0.000293542
0.000216609
-4.99554e-08
-4.58774e-07
0.000529797
5.64249e-08
-0.00326836
-4.52313e-09
-1.0931e-06
6.84263e-09
-1.16561e-06
-0.000186472
-1.09398e-08
0.00452582
-6.50572e-09
3.29104e-08
0.000363881
-5.05047e-08
-1.22988e-07
-2.65901e-06
-1.67992e-08
3.95421e-08
0.00134688
-0.00684341
4.1374e-07
-0.000706328
0.000643978
2.12107e-08
-4.1748e-08
-0.00529205
-9.0478e-07
3.25724e-06
0.000625003
-2.71393e-08
-3.74124e-08
2.21318e-08
-0.00578489
0.000188123
2.03151e-07
-3.09954e-08
-0.0013652
1.67141e-08
1.10589e-07
3.61788e-05
9.51763e-05
0.000243331
3.36961e-08
-9.64834e-09
0.000244206
-0.000888156
-1.24752e-06
1.09017e-07
0.00182342
-1.49817e-08
-0.00163629
-2.34273e-07
-1.16441e-06
6.91524e-08
0.000376018
1.26538e-06
2.65981e-08
-1.34492e-05
2.526e-07
-1.29281e-07
-8.22423e-08
-1.56551e-08
-0.000289657
5.86384e-08
2.78596e-07
1.3905e-06
-0.000984005
-1.37222e-08
0.000105365
3.83286e-08
1.182e-06
1.50985e-08
-4.93017e-08
-2.38824e-08
0.000348022
-3.30034e-08
2.38632e-08
-0.00675488
-8.05287e-09
0.000278286
3.16732e-08
2.18484e-07
-6.05839e-08
0.00145352
-0.000440233
-2.5501e-08
0.00558649
-0.00047892
-1.74142e-08
0.000475627
3.3049e-08
-1.69049e-08
-4.44972e-06
0.000532615
0.00441958
1.25597e-07
-2.21409e-08
2.11358e-08
-0.00255737
-1.41179e-06
1.56274e-06
3.60997e-07
1.49159e-08
-3.04309e-08
1.93804e-07
-3.96786e-07
0.00262912
2.05728e-07
-0.00251089
-9.59725e-09
6.77171e-08
2.10302e-07
0.00137359
1.58466e-07
0.00162791
-4.51416e-05
-8.78568e-09
-0.00528761
9.21087e-05
0.000689661
-0.00838003
-0.000191834
0.00119932
-8.36538e-08
-1.59832e-08
-9.53563e-07
-5.00602e-05
6.2982e-05
-7.52268e-08
2.38124e-07
1.28885e-07
1.65253e-05
3.22873e-08
-0.00102036
-2.35047e-08
-3.85452e-08
3.94155e-05
0.000256194
0.00117949
-1.24126e-08
-1.94352e-09
-0.000900235
-1.9749e-05
-7.14884e-07
6.3716e-08
0.000650256
7.21357e-05
0.00344032
1.42609e-07
7.02215e-08
-3.42219e-08
-6.24765e-09
-0.0105091
-2.77071e-08
7.75614e-05
4.22547e-06
4.99687e-08
-0.000450323
0.000783787
0.000306792
-6.84069e-09
3.89264e-08
-2.45412e-08
3.98843e-07
-1.10689e-07
-0.00364351
-5.62842e-08
0.000383799
3.24911e-08
1.02253e-08
-2.45978e-08
-1.66003e-05
4.49308e-08
4.03332e-08
-0.000409655
5.90662e-08
1.98293e-06
2.07372e-07
5.14744e-08
-0.00289748
-3.73459e-07
2.22616e-08
0.000215401
1.17661e-07
-0.00835143
0.00201056
-4.69294e-08
0.000900381
-0.00013909
0.000296738
0.00102278
1.65296e-06
-5.65158e-08
0.000248467
-6.27451e-08
0.00262055
0.000350412
-3.55161e-08
8.61338e-09
-1.54866e-05
0.000676355
0.000639964
-2.66755e-08
6.40907e-08
0.00232839
0.000357046
5.02783e-07
1.15652e-07
4.04043e-08
0.00241319
-0.000669016
2.6877e-07
2.45818e-08
-9.96899e-08
-1.65286e-08
-7.527e-08
0.000381847
2.89995e-07
0.00313724
-0.00283349
-4.20394e-08
1.36827e-07
-5.50985e-08
-6.75043e-08
0.000158773
0.000301334
2.33234e-08
0.00237998
-2.12055e-08
2.21918e-08
-6.08532e-08
-1.82332e-08
-5.16199e-08
-4.05581e-08
0.000238738
-1.31075e-08
2.98345e-08
-8.73821e-09
1.34255e-07
0.000628415
-0.000662718
-2.64926e-08
0.00601621
1.28147e-06
-0.00800666
2.89527e-08
3.97392e-09
6.62272e-05
2.56768e-08
2.08024e-06
-0.00403781
-0.00387386
-0.000261903
-5.38154e-08
-0.00111992
-1.98378e-08
6.17283e-08
1.3043e-07
0.000935696
1.45076e-08
0.00580444
-4.20573e-08
-4.21479e-08
-0.00794421
9.29464e-08
-0.000741567
7.59101e-08
-2.96745e-08
1.24545e-05
-2.77045e-08
-2.18208e-09
2.20272e-07
-4.16061e-09
-1.04285e-05
-3.53216e-08
-1.43128e-05
-0.00038868
-5.07689e-07
-0.00439688
-5.55652e-09
6.46815e-08
1.25781e-06
-2.65656e-08
-2.44702e-08
-1.8916e-08
-2.7429e-09
-3.05318e-08
-2.29131e-08
1.67372e-07
0.000303704
-0.00165784
-1.28451e-06
-0.000656885
-3.31727e-05
-1.4414e-08
0.00607699
3.38046e-08
-3.10986e-08
0.000187386
5.63725e-05
0.00154571
-1.4251e-08
-0.00147369
0.00336274
-0.000753713
-1.16042e-08
-0.00124702
7.18992e-08
1.45175e-08
8.03661e-07
-3.1599e-08
-0.000572274
5.11293e-05
-0.00879973
-5.2447e-08
-1.94288e-08
-0.00288459
-4.41447e-08
0.00132903
0.00224782
0.00235617
-0.000106337
0.000966096
2.56172e-07
-3.38269e-08
8.87863e-08
-1.24779e-07
1.89816e-08
2.80144e-06
-6.4905e-08
-1.35969e-09
4.53156e-08
0.000771833
-2.73694e-08
0.000418284
-0.00083105
0.000797975
-6.96938e-07
-2.25769e-08
9.13039e-08
-5.21917e-08
-0.00063182
-0.000831301
-1.17929e-08
1.35801e-07
-5.6714e-08
2.50431e-07
4.82805e-08
-5.61173e-08
-4.63281e-09
3.46229e-08
0.000140866
3.11107e-06
-1.99895e-06
-2.56052e-08
-4.40977e-08
-0.00154159
4.62431e-09
-0.00435478
0.00159383
-9.41231e-08
6.93052e-08
6.92184e-08
-1.48619e-08
1.50798e-07
-6.30712e-08
0.000293155
-7.71538e-07
-0.000587481
2.00989e-08
-0.00116737
-1.73543e-08
-7.09458e-09
-3.57694e-08
0.00600106
-0.00267227
2.69744e-08
2.73541e-08
6.65908e-06
0.000250185
2.5679e-07
0.000415996
-1.95135e-05
0.00970193
-1.40714e-06
0.000676802
-4.12249e-07
9.26076e-08
6.8611e-05
0.000330488
0.000481768
0.00277598
1.57196e-07
-4.88868e-06
4.56675e-08
3.08282e-08
2.85787e-08
-2.98838e-08
0.00033535
7.12717e-08
2.52615e-08
0.00202937
-1.76753e-07
-0.00795214
-4.34361e-09
1.19312e-08
2.60127e-07
8.67704e-08
-1.07895e-06
-0.000202029
-0.00562948
0.003937
-9.6897e-09
2.62639e-08
1.03879e-07
0.00290821
-0.00088538
-2.3105e-07
1.04908e-07
-5.60237e-09
-0.00124896
-2.59533e-07
0.00230003
-0.000344601
8.71434e-05
6.99865e-08
0.000782355
-8.74553e-07
3.0213e-08
2.75903e-08
0.000723784
-0.000682011
6.39343e-07
0.00031393
-2.33698e-08
-3.1892e-07
-3.49547e-08
0.000167553
3.89456e-06
0.000322388
-0.00124456
2.68792e-08
-7.91521e-07
-4.48148e-09
0.00082063
-2.06985e-05
7.38124e-08
-0.000101618
0.000383566
-0.000461932
0.00185218
-2.43239e-08
-3.73537e-08
0.000196881
-0.00141653
-0.000793438
-6.25342e-08
-9.30156e-09
-4.37222e-08
0.000294988
-1.26759e-06
-5.45763e-09
7.18833e-05
-1.50831e-06
0.00371232
0.000678671
-0.00513468
-3.76642e-09
0.00174327
1.81231e-08
-8.73157e-08
-7.16569e-07
0.00580736
-1.18756e-08
-4.99875e-08
-0.000599484
0.000568998
-1.29446e-07
-9.1903e-09
0.00646305
8.24296e-08
0.000135538
-9.63611e-09
0.000779
-3.43528e-08
2.44495e-08
0.00468239
-0.000921095
-4.30395e-09
0.000540984
-0.0036573
0.00196998
-0.000356533
0.00851367
1.80735e-05
-1.08624e-08
0.00186823
2.34343e-07
-3.16019e-09
1.0249e-07
-0.000119112
-5.12325e-08
-3.3269e-05
-5.00662e-08
-1.41923e-10
0.000405266
-9.17942e-07
0.003253
2.91293e-09
6.71049e-06
-2.62595e-08
4.54669e-08
0.00101981
-0.0066482
-1.8046e-08
2.8787e-07
-0.00120572
-3.18973e-08
-3.28116e-08
0.000343795
4.63055e-08
2.30935e-07
-4.40056e-07
-0.00464515
-0.0045488
0.000734839
0.00173384
3.99343e-05
-0.00140115
-0.0017317
0.00103874
3.34907e-07
5.47795e-09
-6.65174e-07
-1.13339e-08
-1.66908e-08
0.00187047
0.000362529
-1.6922e-07
-0.0056777
6.57031e-05
0.000382722
0.000284913
8.64928e-05
-2.87029e-08
0.00011928
0.000116511
2.2429e-07
-3.38678e-09
0.000378834
-4.81801e-05
0.000157615
0.000963603
1.06997e-06
0.00044754
0.000645563
4.28797e-08
-2.80625e-08
-4.61789e-08
-0.000326852
-2.99599e-08
-2.73676e-05
-5.22453e-08
-6.09127e-09
-1.96645e-07
-0.00164351
0.00145636
-0.00166462
-4.29662e-08
0.000922381
9.97503e-08
8.42984e-07
-1.18267e-08
8.31036e-08
6.18278e-05
1.75595e-07
0.000304249
-0.0129154
3.61051e-05
-6.16477e-07
-5.41002e-09
4.85105e-07
-5.28474e-08
-1.11736e-06
-1.35092e-07
-1.40625e-09
-5.74036e-08
-5.76143e-08
-1.1527e-06
-3.18802e-09
2.46834e-08
2.92e-07
4.13456e-08
-2.46496e-05
0.000150512
-4.36535e-08
1.15787e-07
-1.32611e-08
-4.9049e-07
1.3045e-06
-0.000375252
-5.55888e-06
4.14724e-08
1.5331e-08
-3.79486e-08
0.00077637
-4.10346e-08
-0.000990406
-2.45791e-09
-3.00178e-08
1.75755e-07
-0.000232863
2.41535e-08
6.5051e-07
-5.79298e-06
8.99983e-08
-1.59129e-07
-0.000603617
-0.00105519
5.50898e-08
-3.07285e-08
4.04229e-05
-2.94099e-09
-4.6688e-08
2.62132e-07
0.00040554
3.97488e-08
1.03565e-06
-1.22118e-05
0.00108639
-3.97531e-09
-6.41134e-09
0.00033025
-5.0841e-09
0.000135152
-4.7371e-05
0.00162028
-3.3466e-08
4.59928e-06
-2.11534e-08
0.000828465
-9.57609e-07
-1.14233e-07
-4.88184e-07
-0.00206773
2.61273e-09
0.00172213
0.00138965
-5.62019e-08
-0.00164719
-5.899e-08
-4.85512e-08
0.000481053
-8.25148e-09
-7.1735e-08
-1.97894e-08
-1.23613e-07
0.00030645
-9.98139e-07
3.03961e-09
5.76403e-09
3.45712e-08
-0.000935306
-3.9589e-05
0.00148162
-0.000925184
-2.1229e-09
-1.01721e-06
-1.7479e-07
0.000362272
-1.31423e-06
6.18577e-05
-3.17411e-08
-6.0628e-06
-3.78545e-08
-0.00245083
1.24835e-06
-2.0124e-08
0.00334504
-4.88155e-06
-1.51019e-09
-3.88255e-06
2.49261e-08
9.16573e-08
-1.48222e-07
4.31666e-08
-0.00596241
3.43625e-07
-8.75067e-07
-2.49777e-07
2.37412e-07
-0.000392219
-3.32797e-05
0.00135865
-4.12145e-08
-5.25561e-08
-8.15933e-07
-0.00210187
0.000480639
0.000428037
1.32076e-07
0.000539469
-0.00151956
-4.35835e-08
2.72281e-08
-7.48823e-09
8.06496e-08
1.72644e-07
-0.00012088
-0.000962507
-2.99609e-05
-7.79704e-10
0.00160771
0.000267157
-3.93953e-09
5.27887e-06
0.00221904
0.000663804
1.34926e-08
-1.78827e-07
1.91441e-08
-7.44132e-08
2.27695e-07
1.02242e-07
0.0011447
0.000108986
7.38754e-05
-0.000677106
7.25759e-09
6.52206e-07
2.43218e-07
9.1964e-08
-3.90505e-08
-3.59526e-08
-0.00090243
-2.74313e-08
0.00126881
1.00446e-06
-3.09172e-06
-1.709e-06
-9.08869e-06
0.000275847
0.0012336
7.57381e-08
4.35522e-08
-1.49811e-06
0.000911472
0.00414622
2.0387e-08
-9.90395e-09
-6.07623e-09
-5.8384e-07
6.85249e-08
-1.00633e-06
-0.000313958
8.70359e-09
-2.31557e-08
-8.51715e-07
2.82427e-05
0.000167953
-0.00738538
-1.12332e-08
4.76974e-07
-6.38978e-08
0.000970383
7.43223e-08
0.000518589
2.04453e-07
7.96804e-09
-1.12406e-06
-1.94603e-08
-2.88063e-06
2.66086e-08
1.02189e-07
-0.00021305
-0.000186617
2.18783e-08
2.94577e-08
-2.5164e-08
0.00108363
-0.000926499
6.5945e-09
9.54926e-08
-0.00158356
2.03876e-08
0.000115193
-1.39511e-09
-2.13755e-06
-1.03147e-06
0.000201557
1.91232e-06
-1.73558e-07
-1.40303e-08
-1.31355e-07
0.000428598
-1.17517e-08
-0.00237897
-0.0068958
-0.00738561
-2.07448e-05
7.8679e-07
0.000362988
2.84215e-08
-7.44986e-05
-1.56348e-08
-0.000549731
-0.00119456
-0.000445788
-0.000866025
-0.00158818
1.96047e-07
0.000128289
-5.85045e-08
0.000121511
6.58657e-05
0.000260428
-0.000291139
1.96665e-07
0.00010626
-0.000624247
8.25686e-07
-1.21359e-07
-5.47802e-09
0.000265403
9.7221e-08
-1.31298e-07
1.24121e-07
-3.24585e-08
-1.62354e-08
-5.41173e-08
-0.000764957
-5.90404e-06
1.2506e-07
-0.00129042
-0.00069033
2.17066e-07
-2.18013e-08
-5.32903e-09
-2.0188e-06
0.000463777
-1.11279e-05
1.70149e-07
-1.49408e-07
-0.00464947
-1.28188e-06
1.04861e-07
-0.00100179
1.31783e-07
0.00109599
3.54338e-08
-1.63014e-06
-1.89868e-08
1.52488e-07
4.49616e-07
0.00337039
-0.000294415
0.000314033
-8.68649e-07
0.00667721
2.00134e-07
1.97941e-08
1.23105e-07
0.000305716
-0.00195237
0.000421693
7.76499e-05
1.05167e-08
-3.51286e-08
-1.96435e-08
-2.17626e-09
-3.73148e-08
0.000967465
8.93483e-08
-0.00073952
4.2661e-07
0.000781999
0.00319591
0.000702654
-3.94043e-07
2.63579e-08
-0.000810015
8.48265e-07
0.00273368
0.000229702
-1.28119e-08
0.000165997
2.71537e-08
0.00241048
0.000131533
6.06969e-07
-6.233e-06
-0.00149514
-3.38659e-08
2.9105e-06
-5.77269e-08
0.000511738
-0.000289508
1.51134e-08
-1.23194e-08
-0.000827587
-3.34757e-05
6.49699e-07
0.00542366
-5.49915e-07
-1.17124e-06
-1.12316e-08
-0.00240519
0.00036026
-1.51269e-06
3.99929e-08
-0.000818509
-0.00688522
-5.91881e-08
-6.52341e-09
1.76642e-08
0.00025994
-0.000369122
-9.33567e-09
0.000225208
-1.84895e-09
-5.25977e-08
-4.81549e-08
-0.0016091
-4.60719e-05
8.26861e-05
0.000580234
-1.3667e-07
8.13258e-10
-3.1065e-08
-0.000474444
-4.85222e-08
0.00540176
3.79762e-07
-0.0026356
-5.32811e-09
-1.27019e-08
7.6133e-07
0.00121174
-0.0013116
2.98587e-07
0.00208133
1.92824e-08
-2.35914e-08
-6.5376e-09
-1.43181e-07
3.59384e-07
3.56421e-07
1.52344e-06
0.000644447
1.708e-08
1.79198e-07
0.00170098
0.000377293
-1.19348e-07
0.000286533
0.000372179
2.58905e-08
-0.00148877
-9.37541e-08
-0.00212061
-2.11441e-08
-6.79888e-07
-2.72019e-08
0.00458598
0.000120405
8.4958e-06
0.00088345
-2.21291e-07
-2.36879e-08
-9.1357e-08
0.000267517
6.12104e-08
-8.62339e-09
0.00017733
-1.80325e-06
-0.00286845
0.000875413
-1.38317e-07
5.06e-08
-1.65311e-08
0.00524278
-8.63459e-07
1.93772e-07
-1.18981e-06
3.51209e-08
8.45815e-08
-3.89561e-08
-0.00440844
-6.46382e-08
-0.000798005
-0.000218613
-8.44186e-07
9.82914e-05
-3.91081e-07
0.000989291
-8.83898e-08
0.0054711
0.00146714
-2.06719e-08
-2.26382e-08
-5.81561e-09
-4.45241e-09
-1.04901e-07
-2.19851e-08
0.000243661
-4.10805e-08
-0.00221956
-2.15922e-05
-5.86051e-08
-8.12293e-09
1.97746e-08
0.00144185
-2.4789e-08
-4.40131e-08
2.02027e-05
1.91375e-08
-0.000701791
0.00091001
-3.62027e-07
4.27182e-07
8.57764e-08
-2.76342e-10
-3.11606e-09
2.36285e-06
9.3948e-08
1.87201e-08
-0.000180591
0.000612793
-0.00389839
-2.49247e-09
-0.000153402
-0.0143167
-3.54332e-09
-0.00173396
-0.000399698
-7.04086e-09
1.43106e-08
-8.40787e-09
0.00177542
-0.0011029
0.000898688
1.05486e-07
1.86691e-08
8.89258e-08
-1.01516e-08
5.10178e-07
-3.4833e-08
5.68855e-05
-0.000308903
0.00129408
-1.26854e-08
1.66974e-08
1.85539e-08
0.000441373
2.28341e-08
-0.00127488
0.000299821
0.00106209
-0.00473674
0.000120794
0.00127061
-4.6296e-08
0.00139605
0.000261988
5.17773e-09
-1.35938e-08
-1.59877e-08
0.000815028
0.00079409
-0.00055189
1.2042e-07
0.001103
-3.01285e-08
-6.55675e-07
4.24755e-08
8.66578e-09
2.13526e-09
-1.16143e-08
-0.000959618
7.00914e-09
0.00269294
-0.00781655
-0.00135431
-2.32553e-07
-2.93942e-08
-0.001156
0.000294965
-2.03565e-08
0.000217875
8.26429e-09
2.12873e-08
-1.89403e-08
3.31687e-05
-1.67486e-08
-0.000465816
-6.03414e-07
-7.77387e-05
2.18495e-06
-1.48944e-05
-0.00108608
1.89938e-05
-1.04817e-08
-1.4423e-07
-1.36243e-06
-0.00079799
-1.45964e-07
-4.2687e-09
-7.11447e-08
0.00294989
-9.66215e-08
-0.00132716
-0.000635573
8.37335e-08
-5.11202e-07
-1.10489e-07
-0.00020945
-3.59509e-09
0.000499821
-3.00684e-09
0.00045453
3.99204e-08
-8.4815e-09
-0.000606282
-0.00118329
9.61528e-09
-1.57494e-07
6.03993e-08
-0.000454447
3.94604e-05
5.01843e-05
2.64415e-05
-7.47878e-09
2.47217e-07
-0.00011494
6.63425e-08
2.74965e-05
1.37819e-07
-1.10063e-07
4.52041e-08
0.000578508
0.000246014
-1.24835e-08
0.000276178
-4.82011e-09
-1.0806e-08
-0.00111259
-0.000719971
2.03418e-06
0.000323276
-3.6347e-05
-1.31057e-08
-0.000651366
-1.02157e-06
3.99676e-08
6.20834e-09
0.000312608
8.3467e-09
0.00181057
0.000130746
-2.61222e-06
-4.41734e-09
-1.57417e-06
0.000319474
5.18264e-08
0.00258323
-4.43292e-09
1.58912e-08
0.000118927
-0.000806258
2.9552e-08
0.000502516
-0.00171486
-0.000525609
-4.01868e-08
-0.000985912
0.00109087
-0.00091924
-3.12165e-09
-6.25375e-07
-8.13134e-08
0.000718921
-5.62736e-06
-0.000411938
-0.000160876
-1.32862e-08
4.43323e-08
-5.18555e-09
-0.000512116
0.000999857
-0.00524481
-0.00124372
-2.56621e-08
0.000382146
0.000245327
-7.88891e-07
0.000615094
0.000333601
8.73602e-07
0.00145519
1.31852e-08
2.86844e-08
0.00163318
-0.00171159
-7.24671e-07
-0.00684231
-4.49681e-08
-1.19792e-08
0.00259599
0.000288928
0.00181461
0.000122344
2.69976e-07
-8.10891e-09
-8.34414e-08
0.000965495
-0.00103113
-1.12408e-08
7.54902e-10
-0.00363217
-5.54422e-09
-4.47248e-08
-0.000662632
0.00124301
5.18678e-09
-3.92451e-09
4.33961e-09
-1.02016e-07
-0.00227674
-4.39905e-09
-1.56339e-08
1.80525e-07
3.55512e-05
0.00305179
7.74574e-05
0.00113827
-1.43731e-08
7.0892e-08
0.000281297
0.000322503
4.93805e-07
0.000637317
-6.42237e-09
1.78092e-08
-1.56656e-07
-1.02555e-06
-9.33161e-07
-5.39906e-08
-4.41535e-05
6.87776e-07
-1.88707e-08
3.55212e-08
0.000844529
0.00141238
0.000305078
-5.32243e-09
-1.34765e-07
0.000705745
-0.00390363
1.60707e-08
-1.38345e-07
-7.25551e-09
-0.000603592
-4.69842e-08
5.45777e-08
5.00363e-08
-2.30961e-08
0.000337836
0.000362197
-1.42816e-08
3.65144e-08
8.6847e-08
-3.78916e-08
0.00579775
0.000792292
3.53228e-07
0.000293696
-1.60456e-05
-6.56454e-09
-8.71602e-09
-1.24786e-08
-8.03142e-08
-7.34113e-09
-1.16689e-07
-1.48924e-07
-0.00100893
4.00685e-08
7.24555e-07
0.000311202
0.00016295
-4.52035e-08
-7.56698e-09
1.63093e-08
0.00255444
-7.3955e-08
0.000589515
-3.79425e-05
-3.72548e-06
3.9246e-07
0.000249982
3.54524e-08
0.000228351
1.57735e-08
5.25105e-08
-1.04955e-07
-7.7945e-08
-2.91528e-07
-0.00130726
5.4791e-05
-7.65893e-08
0.000661923
0.000279095
-0.0100688
4.10994e-08
0.000307062
0.000464902
6.19479e-07
0.00208859
-0.00039971
-3.73471e-07
-0.000218633
-3.89161e-09
2.89416e-08
-0.00489041
-4.42036e-08
3.19313e-08
0.00555925
3.69653e-05
-0.0116062
-7.22186e-06
-4.22597e-08
2.5058e-06
-4.38329e-08
1.20269e-05
5.46936e-08
4.83983e-05
-0.00411069
-0.00120131
0.00752816
-5.22978e-08
8.57591e-09
1.52835e-07
-0.00533173
0.000371032
-2.15161e-06
0.000164589
-1.71316e-08
0.000398703
0.000155821
0.00115254
-1.70204e-07
-5.34047e-08
3.25832e-08
-1.78082e-07
-6.30146e-08
-9.26527e-08
2.76575e-08
0.000327459
3.79515e-07
0.000315954
0.000161534
0.00108792
-1.15316e-06
-1.53815e-08
1.22538e-07
-2.01246e-07
2.74315e-08
-5.05661e-09
0.00114945
0.00214989
0.00522502
0.00101528
1.82069e-08
-0.00121891
-9.31307e-07
0.000551378
0.000257801
-3.60683e-08
-5.91031e-08
0.000261922
-5.37428e-08
8.15711e-09
0.00142761
0.000356742
0.000705922
-3.03598e-08
-3.10578e-08
8.54142e-09
-7.58892e-09
0.00222052
5.10061e-09
3.91523e-08
-0.000150951
-2.09281e-08
-0.000929348
-2.36506e-08
0.00124532
-5.68384e-09
-3.20599e-05
-0.00629398
7.25053e-07
0.000822341
2.18117e-07
0.000278526
7.70926e-08
1.6411e-07
-5.46257e-08
1.36894e-07
-0.00220393
1.34915e-07
-0.00042789
-1.85746e-07
-1.43433e-08
-4.04024e-09
0.000847307
1.02134e-07
6.05947e-07
0.00281086
-1.49468e-09
1.09179e-06
0.000707086
-2.99744e-07
4.17673e-08
-5.82838e-08
-4.84065e-08
4.98673e-07
-1.25155e-07
-2.40377e-08
0.000859546
0.00146686
0.000716534
-2.71637e-05
-4.24508e-05
-0.000885981
-1.73638e-07
0.00114571
-5.08554e-07
6.66689e-08
9.35689e-08
2.07317e-08
-4.11264e-08
0.00109257
0.000833932
2.21051e-08
-0.000472215
0.000660675
3.67958e-08
3.13928e-08
-8.7352e-08
0.00160849
-0.000926602
0.000355119
-0.0117499
0.000379638
2.08953e-08
1.70387e-08
4.84137e-07
-0.00182643
0.00171622
-1.3834e-08
-1.04232e-06
8.6967e-05
5.968e-07
-0.00767849
-3.56776e-08
8.65042e-05
-0.000388869
0.000422012
-2.21427e-07
9.88996e-08
0.000315886
-1.01505e-06
0.000366849
0.000666443
0.000312741
-2.1713e-07
-0.00088542
-3.45428e-08
-7.14197e-07
1.01538e-07
0.000224132
-0.000602666
0.000248089
1.46285e-07
-1.97741e-06
-7.02655e-07
2.05647e-07
-0.00014732
-8.83211e-09
-6.78501e-07
0.000285291
-5.36606e-09
-0.00190427
0.00272531
0.000529827
0.000299405
-0.000263944
0.000312424
-6.12108e-08
0.00119717
-2.27296e-07
-3.5678e-08
6.50069e-08
1.59393e-08
0.000335036
1.53287e-08
-1.25262e-07
2.50035e-08
-7.17634e-08
0.00251839
6.07145e-09
-3.45667e-07
-0.000411382
-1.23174e-08
0.00012756
7.24967e-07
5.70722e-08
0.000903438
-4.38398e-05
-4.8925e-09
0.00335557
-9.14926e-09
0.000666967
-0.000379013
3.39334e-08
-7.57882e-07
9.47924e-09
0.00138029
0.000384287
3.5422e-07
0.00605044
6.86872e-07
-7.85287e-09
0.00366372
1.94317e-08
-6.9961e-08
0.000672395
2.09794e-08
-1.42175e-08
-1.88825e-08
-8.45029e-07
-1.18081e-08
0.000312578
-5.23861e-07
1.64222e-05
-0.00193694
-3.89579e-08
-6.57374e-07
-6.63225e-08
0.00142892
0.000127902
-0.00274519
-3.70605e-09
4.23367e-08
4.12723e-07
3.05764e-07
0.00433862
-7.3793e-08
-0.00289577
-1.22076e-07
-0.000138244
3.54891e-08
-6.76786e-07
-4.63498e-06
-4.97832e-07
0.000168164
-0.0182557
-0.000629962
0.000364717
2.16198e-08
0.000100109
0.000136058
0.000197265
8.71638e-08
3.53867e-07
0.000186107
-0.000830884
-6.84695e-07
-0.000115283
0.00188471
0.00148814
-5.52201e-09
-3.39211e-05
-1.1026e-08
1.17525e-07
1.94868e-08
-1.14102e-08
-9.4516e-08
-0.00257138
0.000272957
-0.00121194
0.000289434
-9.58089e-09
-5.26574e-08
2.84039e-06
-1.18919e-08
0.00533505
-1.2912e-08
-4.96404e-08
0.00139498
-5.46276e-06
-1.8035e-06
7.61001e-07
1.64881e-07
-1.70112e-06
0.000107211
0.000361131
-0.000156562
2.92507e-08
0.000379657
-2.93401e-07
1.6159e-08
1.66855e-08
0.000323523
-8.77345e-06
-1.28302e-06
-3.7478e-06
-3.37779e-09
-4.79837e-08
-1.44489e-08
-3.61698e-09
2.72292e-08
-0.00568019
0.000231528
6.01484e-08
9.54902e-05
0.000324984
0.000229485
-0.0032532
-9.4094e-09
1.88218e-08
2.31272e-05
-5.74591e-09
5.16771e-06
3.02268e-08
1.55086e-08
0.00183961
0.000349438
1.40006e-09
2.29636e-08
4.6399e-08
-1.07125e-06
-0.000428084
-0.00165371
0.00132989
-7.68609e-08
-3.34263e-07
0.00100235
-2.25403e-07
-7.23405e-07
-0.000371134
0.00102311
0.00176064
0.00103939
-1.5808e-08
-0.00130805
4.42763e-08
1.70038e-07
-2.91754e-08
-4.13393e-07
0.00170679
0.000204828
-0.00197663
-0.000407643
-3.52323e-07
1.47736e-08
-8.78865e-09
-3.81929e-08
-9.74782e-08
7.79046e-08
0.00136259
0.000790238
-2.37286e-07
-0.00119186
-3.63305e-08
-4.36568e-07
-1.75782e-08
0.000482576
1.69049e-05
-6.8442e-08
2.66798e-07
7.39997e-07
-0.00601533
0.000214326
-1.83764e-06
0.00138
7.16646e-08
-0.00242807
-9.1696e-06
0.00155487
-0.00117954
-2.46182e-07
-4.89896e-07
-2.71911e-08
-0.00115186
-0.000189627
-7.05935e-08
0.00330275
2.34355e-05
0.00335558
-8.06523e-07
-7.48051e-06
1.07814e-06
-7.35473e-09
-8.35873e-07
-3.1809e-07