/*--------------------------------*- C++ -*----------------------------------*\
| =========                 |                                                 |
| \\      /  F ield         | OpenFOAM: The Open Source CFD Toolbox           |
|  \\    /   O peration     | Version:  v2012                                 |
|   \\  /    A nd           | Website:  www.openfoam.com                      |
|    \\/     M anipulation  |                                                 |
\*---------------------------------------------------------------------------*/
FoamFile
{
    version     2.0;
    format      ascii;
    class       volScalarField;
    location    "400";
    object      p;
}
// * * * * * * * * * * * * * * * * * * * * * * * * * * * * * * * * * * * * * //

dimensions      [0 2 -2 0 0 0 0];


internalField   nonuniform List<scalar> 
13851
(
0.00150171
0.00666661
-0.0260964
0.00145081
-0.0377695
0.00204976
-0.0181136
-0.0243883
0.000832791
-0.00916471
0.000947685
-0.00840688
-0.040682
-0.0722349
-0.0113091
-0.00953807
-0.0204689
0.000770085
-0.0374395
0.000782666
0.00117906
-0.02748
0.000838227
0.00049293
0.000846882
-0.0230388
-0.0303493
-0.0851233
0.00114238
-0.00492857
-0.000343386
-0.0206582
-0.024915
-0.00862109
0.000431004
-0.0592951
-0.058467
-0.0351503
-0.00965266
-0.00898664
-0.00324177
0.000564512
-0.0952014
-0.00338333
-0.00386644
-0.054166
-0.00629236
0.000275565
-0.0310533
-0.0018656
-0.0475025
-0.0466694
-0.0913475
-0.0110887
-0.00503257
0.000554085
0.000956305
-0.0997565
-0.00502427
-0.0182223
-0.0353906
-0.0125849
0.00394913
-0.0395263
0.0142704
0.00308636
-0.0583151
-0.0077761
-0.0392257
0.000899023
-0.0543754
-0.0601952
0.00268858
-0.0112142
-0.0042078
0.00111795
-0.0278355
-0.0650352
-0.0355968
-0.054914
-0.0193421
-0.00149677
-0.0111107
-0.0718131
0.00344366
-0.00762375
0.00325503
0.0408027
-0.0266138
0.00139411
-0.0589444
0.00454666
-0.00755877
-0.029684
-0.0272529
0.00104061
-0.0385108
-0.048187
-0.00136284
0.00103747
-0.132296
-0.0412238
-0.00239921
-0.0369383
0.00022104
0.00132418
-0.043657
0.000342474
-0.0603815
0.0037754
0.000709301
0.00142214
0.0044277
0.000509411
0.00072787
-0.00853364
-0.0467474
0.000498252
-0.00123337
-0.00436782
-0.0934611
-0.0360548
-0.0404601
-0.0139742
0.00267292
0.00152587
0.00376857
-0.0381653
0.00110214
-0.0368939
-0.00336433
-0.00030088
-0.0555418
-0.0112167
-0.00675075
-0.000656147
0.000494998
-0.059468
-0.0399762
-0.00280993
-0.129845
-0.00461379
0.00191513
0.000993121
-0.014807
-0.00446524
0.000692975
-0.0361703
-0.0176256
-0.00309547
-0.059681
-0.0040047
-0.0773779
0.0010068
-0.0223533
-0.014274
-0.00028425
-0.00732966
-0.0458517
-0.0465365
0.000121796
-0.0363032
-0.0988186
-0.000227023
-0.00334551
0.000827579
0.000626939
-0.040391
0.000874329
-0.04455
-0.0643983
0.000910799
-0.00036448
-0.0100775
-0.000249416
-0.000331442
-0.0373556
0.00191203
-0.0385508
0.000322779
-0.0200265
-0.0575552
-0.0114388
-0.028414
5.31613e-05
0.0010321
0.00305086
-0.0043269
-0.0365451
0.0122195
-0.00674069
-0.0925758
0.00144703
-0.0356509
-0.0152893
-0.0211501
0.00180263
-0.0175779
0.00187603
0.00112147
0.00149192
-0.0282845
-0.0020742
-0.00772348
0.0022804
-0.011657
-0.054562
-0.0224955
-0.0574699
0.000192343
-0.0576254
-0.0026043
-0.0188191
0.000216112
0.000897056
0.00199636
0.0028749
-0.0591461
-0.0112719
-0.0576344
-0.0224073
-0.0199265
-0.0572776
-0.041749
-0.0562605
0.00102479
-0.030484
0.00023796
-0.092267
0.000192258
-0.021803
-0.00717042
0.000906374
0.00142777
-0.0485534
0.00390126
-0.0560865
0.0200712
0.000957866
-0.00792806
-0.00210391
0.000337049
0.000191617
0.00326301
0.000232253
-0.0570218
-0.0405698
-0.0129581
-0.0131343
-0.013687
0.00202486
0.000814447
-0.0140824
-0.0137538
-0.0482611
0.013055
0.0125405
-0.0595586
-0.08569
-0.01297
0.000918379
0.000783409
-0.0120372
0.00126045
-0.0327051
-0.020562
-0.0142437
-0.0297003
-0.0566861
0.00225644
0.00181268
-0.0217255
-0.0073208
-0.0354031
-0.00899541
-0.000271807
-0.000615778
0.00194973
-0.057906
0.00261499
0.000161182
0.000114446
0.000150064
-0.0480887
-0.017313
-0.00253125
0.00094022
-0.0119316
-0.00783891
-0.00327801
-0.0360628
-0.00564182
-0.0182882
-0.0382699
-0.00310626
-0.0364178
-0.00535372
0.00438916
-0.000282851
-0.0563068
-0.0361753
-0.0194187
-0.0580626
-0.00583888
0.0016521
-0.0607765
0.000879107
-0.0452753
-0.0287291
-0.00567451
-0.0396368
-0.00482912
-0.0126956
-0.0571135
0.00065329
-0.0140923
0.00165428
-0.0597417
-0.0586586
-0.0113994
-0.0438906
-0.0118525
-0.0820389
0.00284644
0.000941507
0.000513104
-0.0579014
-0.0302873
-0.023347
-0.0118471
-0.00607688
-0.0123051
-0.000232995
-0.113279
-0.02699
0.0028904
-0.0568682
-0.0382015
-0.0111896
-0.0351079
-0.0354916
0.00517597
0.00432916
-0.0479732
-0.0357334
0.00304063
-0.0122117
-0.05862
-0.0113313
0.000524712
-0.000153116
-0.039091
-0.0238375
0.00456071
-0.0934555
-0.000297971
-0.0152149
0.00056518
-0.0117969
0.000213816
0.000319358
-0.000582635
-0.0581941
-0.0152971
-0.00851407
-0.0449956
0.000701109
0.00828912
-0.00282642
-0.0115097
-0.037975
-0.0082929
0.00216158
-0.0268768
-0.00864529
-0.00310701
0.000520092
0.00413023
-0.142425
-0.00416407
-0.0408134
0.00556392
-0.0483515
-0.0446161
-0.00139384
-0.00100301
0.00202662
-0.000784835
-0.0112877
0.00254578
-0.0448003
-0.069076
-0.0418948
-0.0580091
-0.0584791
0.000741801
-0.0132401
-0.0333366
-0.0550084
-0.00718268
-0.0481352
0.00411093
-0.0272475
0.00100813
-0.0382735
0.000892266
-0.0107607
0.00194643
-0.0163071
0.000173894
0.000878084
0.000797592
-0.0402356
0.00583729
-0.0801594
0.00151542
-0.0443369
0.00595756
0.0026289
-0.0119357
-0.0396235
-0.0191202
0.00392744
0.00046619
0.000847089
0.00105749
-0.0366791
-0.010187
-0.0400275
0.00570253
-0.0789533
-0.00476574
0.00202413
-0.00405163
-0.0495962
-0.00320258
0.00101209
0.000379416
-0.034796
-0.00151993
-0.0222309
-0.0581461
0.00185943
0.00133408
-0.00328051
-0.141315
9.06233e-05
-0.02778
-0.0364814
0.00219979
0.000845998
-0.0116123
-0.0595028
-0.0469914
0.00232402
0.00716034
0.00101277
0.000642736
-0.0910949
-0.00247059
0.000117261
0.0361737
-0.000724982
0.00156013
0.000745351
0.00437771
-0.00694179
0.000171437
0.00187669
-0.0532158
-0.0112313
-0.0419636
-0.000699389
0.00284601
0.00256067
0.000386801
-0.00173315
0.000489766
0.000344931
0.00153488
-0.0150079
0.00167376
-0.0115455
0.0010103
-0.10466
-0.0577402
-0.0121907
0.00291134
-0.0126171
-0.00333344
-0.0698674
0.00058106
-0.0165935
-0.00330017
-0.0347373
-0.0168343
-0.0881864
0.000402913
-0.0898975
0.0153503
0.000598619
0.00303249
-0.0520359
-0.0209367
-0.0074027
-0.00135038
-0.00834828
-0.00514534
5.97596e-05
-0.000125859
-0.0167103
-0.0560731
-0.0453475
-0.051803
-0.0450981
0.00341285
0.000155309
-0.0287668
-0.00810416
-0.0209888
-0.0354941
-0.00433764
-0.0110213
-0.055871
-0.0104587
-0.0884784
-0.0588505
-0.0341044
-0.00395519
0.00302628
-0.0207508
0.00160094
0.0166837
-0.0200206
-0.0396401
-0.00676711
-0.0443966
-0.0557011
0.000418543
0.00201096
-0.0463332
-0.0570014
-0.0124801
-0.00864578
-0.000354383
-0.0053194
-0.0372507
0.00377424
0.0387848
0.00491802
0.000108328
-0.0923818
-0.0631586
-0.00143173
-0.00695195
-0.0408646
7.67847e-05
0.000863003
0.00127687
-0.0306628
-0.0231384
-0.0575586
-0.05728
0.000521123
0.00648657
-0.0073232
-0.0349797
-0.0453107
-0.0561869
-0.0571835
-0.00318746
-0.016642
0.00802846
-0.0596372
-0.0561076
-0.0428135
0.00408286
0.000338577
-0.00521919
-0.0383316
0.00049259
-0.0118923
0.000283269
-0.00133367
-0.0551459
-0.0387157
0.00518144
0.000465031
-0.040398
-0.0186915
-0.000479171
0.00104209
0.00128193
-0.0112841
-0.14236
-0.0155012
-0.0155447
-0.0343478
-0.00845404
-0.0423547
-0.0568014
-0.0563805
0.00329887
-0.0385307
4.85642e-05
0.00169004
-0.013346
-0.0478868
-0.0167325
-0.0568193
-0.022823
0.000766505
-0.00698037
0.00186017
-0.00693296
-0.0441593
-0.0113594
0.00264847
0.000812905
-0.0311161
-0.039319
-0.017702
-0.00301629
-0.00407122
-0.0150581
-0.0370865
-0.036749
-0.042059
-0.00479357
-0.0567424
0.000738764
-0.00346485
0.00303382
-0.0411924
-0.0030215
0.000948321
-0.0614624
-0.00267823
-0.0530742
-0.0578047
-0.0715003
0.0326629
0.000863044
-0.0620392
0.000204492
-0.00113179
0.000370923
-0.00134359
8.13608e-05
0.00196476
0.00313842
0.000442118
-0.0502897
0.0152838
-0.0514423
-0.000135214
0.000279689
0.000863141
-0.0350788
-0.0212443
-0.052652
-0.0309286
0.000251531
0.00101982
6.08319e-05
3.73025e-05
-0.0538323
-0.00172516
-0.0147913
0.000400273
-0.0169436
-7.87359e-05
-0.027828
-0.0943609
-0.00776727
-0.0427041
-0.00769457
-0.00309745
-0.0509705
-0.140987
-0.0389989
-0.00782389
-0.0187816
0.000595774
-0.0519046
0.00117708
-0.0201952
-0.0119681
-0.0176948
0.000366223
-0.0488011
-0.0582001
0.00127803
-0.00252303
0.00540411
7.88116e-05
-0.0198283
-0.012034
-0.0269059
-0.0432305
-0.0330609
2.94641e-05
0.00026447
-0.000205031
-0.0975734
-0.057485
0.00425824
-0.0572939
0.00109195
-0.0111894
0.000451956
-0.00937405
-0.0569609
-0.00635071
-0.00103727
0.00219926
-0.0280386
0.00083749
-0.0943414
0.0111708
-0.0670174
0.000614705
-0.0149691
-0.0592246
-0.0925964
-0.0589925
0.00177512
-0.0571604
-0.0115502
0.00261782
-0.0307634
-0.0224701
-0.0143744
-0.0681913
0.00192784
0.0017365
-0.0584564
0.000852472
-0.00205774
-0.00687645
0.000761935
-0.0935869
-0.0167823
-0.0463774
0.00501403
0.00251077
0.000750041
-0.00981131
-0.000290601
0.00167662
0.000357126
-0.00299783
-0.00279461
-0.0589996
-0.000508951
0.00061656
0.00708754
-0.0171242
-0.0596156
0.000560423
0.00184979
-0.0517719
-0.02593
-0.011227
0.000313691
0.00163674
-0.0380731
-0.014789
-0.0584982
-0.0478409
0.000764696
0.000802384
-0.0956956
-0.00210458
-0.0112329
8.90537e-05
0.00038291
-0.00343832
-0.0217735
0.0109881
-0.00535444
0.000783293
-0.0106677
0.00185098
-0.0604469
-0.0142549
-0.0357728
-0.0123578
-0.0146946
-0.0355599
-0.0488996
-0.0587218
-0.00577618
-0.0423683
-0.0438435
-0.0175087
-0.0575339
-0.00111395
-0.0167443
-0.0309945
-0.0597731
-0.00281997
-0.0120657
0.00073909
0.00278817
-0.101875
-0.070292
0.000729526
0.00103292
-0.0480133
0.000573639
0.000678116
-0.0928867
0.00106946
-0.00965792
-0.0909322
-0.0604104
-0.000624066
-0.00106886
-0.011778
-0.0933859
-0.0531812
-0.055964
0.00265134
-0.0281726
-0.0358039
-0.023074
-0.0426776
-0.0439225
-0.0119792
-0.0168179
0.00856485
-0.0556867
-0.0556422
0.00352287
-0.0409329
-0.0921006
-0.0169803
-0.0633285
-0.0133509
-0.0425713
-0.00042679
-0.00558789
-0.00229499
-0.0133603
-0.0113046
-0.0565551
0.000683382
-0.0511984
-0.00439829
-0.0323448
-0.0431033
-0.0413617
-0.0450799
-0.0476298
0.00551407
0.000386593
-0.0502494
-0.00292481
0.00176388
-0.0106774
-0.0608915
0.00122089
-0.0290039
-0.0122515
-0.010739
-0.0605852
-0.138641
-0.0603273
-0.000470413
0.00308788
0.00040376
-0.0681494
-0.011232
-0.00849824
-0.0567071
-0.000318109
-0.0287472
-0.0357866
-0.0188913
-0.0298237
-0.0128589
0.00100939
-0.0114489
-0.057003
-0.0446667
-0.0113084
0.00233087
-0.0106628
-0.0842496
-0.0486263
0.00063518
-0.0127958
-4.98374e-05
-0.00200563
0.0011582
0.00101569
-0.0428275
0.00162313
-0.00945852
0.0018706
0.000507859
-0.00737693
-0.0545323
-0.0486249
-0.0286662
-0.0453881
-0.00458394
-0.0267246
0.000396427
-0.000105243
-0.0073258
-0.00908873
-0.055223
-0.0121303
-0.0508114
-0.0133149
-0.0119963
0.000817622
-0.0892599
-0.00120738
0.0122362
0.0122104
-0.0501067
-0.0174158
-0.0231094
-0.0544324
-0.0318714
0.0035708
-0.012168
0.00117341
-0.0872871
-0.0265826
-0.00105679
-0.00320518
-0.0469863
-0.0423011
-0.0330551
0.000322617
-0.0157586
-0.000156336
-0.000184153
-0.0608156
0.00141941
-0.0364099
-0.014572
-0.000180194
0.00651238
-0.000334265
-0.0118956
0.000362807
-0.0183596
-0.0587104
-0.000377749
-0.0527022
-0.0863523
0.00236409
-0.0298881
-0.0163907
-0.000253235
0.00148121
-0.0050989
-0.000332324
-0.0511237
-0.0233308
0.000870905
-0.00114197
0.00095651
-0.0648337
0.00405331
0.00305627
-0.0514055
-0.0550846
-0.00507044
-0.0213411
-0.023703
-0.000517736
-0.00970493
0.00177142
0.00386409
-0.00443944
-0.00563355
-0.0181393
-0.0977209
0.000797412
-0.0389213
-0.0166745
-0.0274583
0.000371449
0.00105948
-0.0374769
-0.00177145
-0.00143746
0.00123656
-0.0102824
0.00468268
-0.0111479
-0.0322475
-0.00720088
0.027909
-0.0407046
-0.0056003
0.00100813
-0.0068957
0.00174829
0.00295462
-0.0352114
-0.0322755
-0.0273089
-0.023956
0.00232509
0.0151019
0.000926609
-0.0785214
-0.051245
-0.00380382
-0.0446141
-0.0112131
0.00115064
-0.00113462
-0.00644262
-0.00210617
0.000822986
-0.000234025
0.00122933
-0.0477325
0.000812035
0.00119277
-0.0199608
-0.0336352
-0.0568572
0.0042992
0.00202416
-0.00301323
-0.0561754
-0.0298631
-0.0275999
-0.0560528
-0.0433962
-0.0526913
0.000958939
-0.046212
-0.0085309
0.000965593
-0.00131323
-0.0664879
-0.0573114
-0.0117584
-0.0359769
0.0029173
-0.00971403
0.000267202
-0.00457544
-0.0156691
0.0138982
0.000136327
-0.0326499
0.005982
-0.0556249
0.000358886
0.0154516
0.000321745
-0.0582061
-0.0149642
-0.0573272
-0.0600123
-0.0505832
-0.0380489
-0.062403
-0.00647072
-0.0205464
0.00105927
-0.00127671
0.000789847
-0.0112649
-0.0372203
-0.0131134
-0.0598809
-0.0175497
-0.0275907
-0.00487627
-0.0437606
0.00191539
-0.0115581
-0.0270586
-0.00616187
0.00119022
0.00324674
-0.00612806
-0.00821728
-0.00844368
-0.00363167
-0.0327189
0.00290168
-0.0131489
-0.0468535
0.00138787
0.00114102
-0.0225058
-0.0864936
-0.0196483
-0.0330411
-0.0230048
0.000724392
0.000937476
-0.055325
0.00355825
-0.0342515
-0.0292101
-0.0579944
-0.00738873
-0.0372178
0.000972861
-0.00251769
0.0026077
-0.0102197
-0.0864241
0.00525895
-0.0604426
0.00253929
-0.0364405
-0.0538754
-0.0188791
-0.0572302
-0.0523229
0.000758571
0.0337658
-0.0587517
0.0325001
-0.0581717
-0.00734352
-0.00693142
-0.0557492
-0.0284951
-0.0861058
-0.00786904
-0.0168826
-0.00888364
-0.0614599
-0.0592053
-0.0178184
0.000721107
-0.0234164
-0.0582053
-0.0555569
-0.00591683
-0.0130418
-0.0569813
-0.0279086
-0.00160792
-0.0521818
-0.0169105
-0.0184064
6.15887e-06
-0.0874674
-0.0581321
0.00141827
-0.00316143
-0.01001
0.000771289
0.000616032
-0.00369944
-0.008047
-0.00635366
-0.0504474
-0.0017203
-0.0488424
-0.0209337
-0.0974392
0.00177787
-0.0522175
-0.0400308
-0.057256
0.00154439
-0.00637761
-0.044086
0.00043722
-0.0117184
0.00118078
0.00443695
-0.00292599
-0.0592949
-3.65834e-05
0.0018327
-0.0783572
-0.01766
-0.038306
-0.015438
0.00174398
-0.00016142
-0.0405515
-0.0570746
-0.115051
-0.000564217
-0.0446733
-0.00727011
-0.00405956
0.00108951
-0.062157
-0.0367067
-0.00699416
-0.0504727
0.0025743
0.0136115
-0.057436
-0.0594729
0.00250058
0.00134205
-0.00411073
0.03491
-0.0429794
0.000268225
-0.0535839
-0.00594114
-0.0045647
0.00749799
-0.059889
-0.003363
-0.0770298
-0.00254277
-0.0757798
0.0001409
0.000201805
-0.00447499
-0.00351319
0.00133461
0.00145481
-0.021447
-0.0615216
-0.0643203
0.0118545
-0.056706
0.0014071
-0.0576305
-0.0583712
-0.0394712
-0.00787967
-0.00108035
-0.00211862
-0.00283985
-0.0537864
-0.00667816
-0.0201555
-0.00323603
-0.0308715
-0.0577879
-0.106103
-0.00063196
-0.0558914
-0.00601766
-0.00195336
-0.00409555
0.000713361
-0.100346
-0.0111386
-0.0562993
0.00638603
0.0026871
-0.0552407
-0.0114538
-0.00153475
-0.00738975
-0.0609562
0.00180327
-0.0166173
-0.000822112
-0.00370253
-0.0540273
-0.0216546
-0.0154555
0.0014509
-0.0141902
-0.0345627
-0.0544838
-0.000525378
-0.0391195
0.000293505
0.00583138
0.00153697
-0.0244796
0.000756522
-0.0430873
-0.0297915
-0.0111819
-0.00153206
-0.00375767
0.00185598
-0.0118767
0.00124548
0.00182586
-0.0580168
-0.0271309
0.00270372
0.00421434
0.000805347
-0.0589127
-0.052802
-0.030918
-0.0371704
-0.010759
0.000860021
0.000225133
0.00112256
-0.0438243
-0.0565834
0.000581117
-0.00112005
0.0195246
-0.057868
-0.0194155
-0.0196283
-0.0581657
-0.0186448
0.000890962
-0.0545111
-0.0588299
-0.00608615
0.00164864
-0.00816908
-0.0549039
-0.0615239
-0.0224491
-0.0533833
-0.103082
-0.0254721
-0.0574734
-0.0309511
-0.00160495
-0.0289842
-0.0520659
-0.00955253
-0.102099
-0.0147839
0.00072402
0.00102113
-0.0429333
-0.000117073
-0.0562064
-0.0147149
-0.0283767
-0.0470062
-0.0117917
-0.0568487
-0.0575087
-0.00445612
-0.0227632
-0.0608645
-0.0350814
-0.0873519
-0.012969
-0.000906468
-0.00297739
0.00446419
0.0010523
0.016849
0.00205242
-0.0080306
0.00969281
-0.00483865
-0.0220794
0.00197695
0.000166424
0.000755625
-0.00283261
-0.0160789
0.00698656
-0.0413199
-0.0206266
0.00356985
-0.0355939
-0.0277139
0.00916102
-0.0573726
-0.000373099
0.00070865
-0.0549304
-0.0910956
-0.086959
0.000946383
0.000283211
-0.081834
-0.00485918
0.00128636
-0.0353514
-0.00191169
-0.0432249
-0.0482413
0.00159143
-0.0937506
-0.0569836
-0.0222293
-0.0172044
-0.0679617
-0.0128461
0.0148282
-0.0432743
-0.0878947
-0.0277321
-0.0546213
0.000154202
-0.00810258
0.00144415
-0.0105316
-0.0573466
-0.0425654
-0.092135
-0.0325029
-0.0281673
-0.00281484
0.00290535
0.000743586
-0.00457365
0.00102058
-0.0490676
-0.00226193
-0.0574174
0.00036721
0.00387912
-0.0341972
-0.0583204
-0.0607186
-0.0557995
-0.0420711
0.000764477
0.00135111
-0.0548315
-0.0518209
-0.0270314
-0.00145149
0.000906398
-0.0255076
-0.0175799
-0.0566931
-0.040172
-0.030013
0.00103987
-0.0614989
0.00132049
-0.0544458
-0.00163594
-0.00315001
-0.0425321
-0.00175597
-0.0615289
0.000942384
-0.0566856
0.00136518
-0.029411
0.00404006
-0.0113363
0.00717996
-0.0313469
-0.0396517
-0.102254
-0.0626872
-0.0256623
-0.0225304
-0.00468714
-0.0552889
-0.0970816
8.36311e-06
0.00105394
-0.00749775
0.000407761
-0.0550251
0.00039812
0.00228499
-0.0192962
0.0136807
0.00309026
0.00147881
-0.0174668
-0.0542771
-0.0590873
-0.00618479
0.0177293
-0.0935468
0.00799939
0.00785634
-0.00170831
-0.0768852
-0.0419389
-0.0262581
-0.00985859
-0.00132923
-0.00228016
-0.089996
-0.0828277
-0.0414741
0.00150502
0.00145776
0.000151007
-0.0539066
-0.0097185
-0.0607079
-0.100486
-0.0102749
-0.0318515
-0.00894773
-0.000889215
-0.0040098
-0.0172366
-0.0555497
-0.0126478
-0.054988
-0.00030466
-0.00393505
-0.0001877
-0.00948668
-0.0370212
-0.0572378
-0.0136131
-0.0876379
-0.0395138
0.00144224
-0.0101341
0.00115065
0.00337522
-0.0559273
-0.0596201
-0.00902111
-0.00546607
0.0127078
-0.0212605
-0.0391927
-0.0915025
-0.0135645
-0.0565235
-0.0469064
0.0013531
-0.00985561
-0.000118808
-0.0416043
-0.0171927
0.00108463
-0.0558637
-0.0247225
-0.0223429
0.00195707
-0.0235107
0.000955097
-0.0963505
-0.0838423
-0.0107909
0.000832199
-0.0261589
-0.0105773
-0.00176495
-0.0119577
0.00101739
-0.0878008
-0.0165214
-0.0898493
-0.00539906
-0.0195789
-0.0285202
-0.0572121
0.00283586
-0.0346002
-0.0879248
0.000546729
0.0183538
-0.0566692
0.000101963
0.00122309
-0.0253652
-0.140576
-0.0972895
-0.00348823
0.00241998
-0.0116218
-0.00147503
0.00358416
-0.0110913
-0.0597628
-0.0144692
-0.0233781
-0.0174313
3.00436e-05
0.00402001
-0.0407855
-0.0137492
-0.0523239
0.00324901
0.000175198
0.014336
-0.0564111
-0.0112175
-0.0407717
-0.0403835
-0.0542439
0.000113913
-0.0128542
-0.0239362
-0.0588275
-0.0545276
-0.0114288
-0.055487
-0.0228137
-0.00100651
-0.00647785
-0.0400883
-0.0296727
0.00119606
-0.0876341
-0.00388038
-0.0159163
-0.00221475
-0.093654
-0.00634621
-0.0228812
0.00196661
0.00829552
-0.0221023
-0.00574499
-0.0385751
-0.0891843
-0.00795573
-0.00788247
-0.0472841
0.000104555
-0.0128705
-0.0131129
-0.0246006
-0.0403641
-0.0420322
0.00272569
-0.0568636
-0.0276483
-0.0356919
-0.00317208
-0.0239151
0.00124165
-0.0559688
-0.056435
-0.0408687
-0.0126999
-0.0546909
-0.122453
-0.0138007
0.00382013
0.00123452
0.0082618
-0.0545199
0.0126698
-0.0580268
-0.0023088
-0.0545
-0.00460089
-0.0571892
0.000858413
-0.00167555
-0.0171667
-0.00632649
-0.101268
-0.0563332
-0.0571203
-0.0203311
0.00102965
-0.0195562
0.00437515
0.00144848
-0.0603127
0.000155254
-0.0399822
-0.0100313
0.00694442
-0.0053721
-0.00582767
0.00259256
0.00519139
-0.00371957
-0.00408107
-0.0549089
-0.00161889
0.00195079
6.90495e-05
0.000197644
-0.011077
-0.0112056
-0.0222866
-0.0225311
-0.00182816
0.00238256
-0.0525668
0.00354888
0.00781219
-0.00203634
-0.0174045
0.00115861
-0.0591118
-0.013084
-0.00364884
-0.0491484
-0.0342871
0.00523861
-0.05838
-0.0584307
0.00229035
-0.0135454
-0.0145768
-0.0222287
0.0034185
0.00110998
-0.0332851
-0.0936637
-0.0567465
-0.0509503
-0.0139179
-0.0889596
0.0183971
-0.0231166
0.00292353
-0.0548166
-0.0117368
-0.0299335
-0.0108183
-0.0577485
-0.0829298
-0.0249684
0.001085
-0.0211029
0.00243233
-0.0173727
-0.0433829
-0.00440356
0.00112103
-0.0873084
-0.0570799
0.000389912
-0.0305476
-0.0353499
-0.061013
9.48143e-05
-0.0859416
-0.0975254
-0.00147018
-0.00156364
-0.0222682
-0.0357454
0.00205696
-0.0259185
0.0015541
-0.0274413
0.0010129
-0.00146163
-0.0571542
-0.0889993
-0.0845946
0.000898091
-0.056999
-0.0128053
-0.0342981
0.00130201
-0.0107191
-0.0254583
0.000369408
-0.0786514
-0.0292609
-0.0144585
-0.0606624
-0.0842285
-0.0185838
-0.0543552
-0.0811143
-0.0590396
-0.000957435
-0.0988351
0.00113306
0.000525342
-0.0101392
0.00152616
0.00135691
-0.099822
0.00460434
0.000957577
0.00310677
-0.0966265
-0.093417
0.0170641
0.000391135
0.00206666
-0.00897673
-0.0764359
0.00131878
6.73732e-05
-0.00678605
0.0232311
0.000631787
0.00339113
-0.0967613
-0.0395669
-0.0242344
0.00126175
-0.00420225
-0.018929
-0.0571778
0.00101569
-0.0947626
-0.0446478
-0.0144607
-0.0975795
-0.0839182
0.00111818
-0.0581621
-0.0134953
-0.0874894
0.000522856
0.0144883
0.000331146
-0.0171504
0.00483517
-0.0343344
0.00141886
0.00158557
0.002398
-0.0540075
-0.0387739
-0.101838
-0.073066
-0.0142604
-0.0555488
-0.0211331
-0.0323314
-0.0424572
-0.0949323
0.00222468
-0.0639049
-0.0300698
-0.0177042
0.00230558
-0.0590059
-0.0389695
-0.0280777
-0.020697
0.00113096
-0.121642
0.000376431
-0.0267969
-0.0113216
0.0022322
-0.0593692
-0.0334203
-0.0210303
-0.0216622
-0.0207
0.000476061
-0.0231556
-0.0409287
-0.0580473
-0.00818703
-0.100654
-0.00517477
-0.0244208
-0.0409428
-0.0733582
-0.012423
0.00140016
-0.000141643
-0.0576389
0.00201991
-0.00510952
-0.00161877
-0.0157398
0.00123993
-0.0120007
-0.071073
-0.0617467
-0.126737
-0.0915517
-0.00243671
-0.0332396
-0.0581828
-0.0542764
-0.0894366
-0.0610288
0.00223179
-0.114727
-0.0291723
-0.040432
-0.057372
-0.0285679
0.00148376
-0.084416
-0.00124621
-0.0123942
-0.0543452
-0.0731484
-0.0577181
-0.0538828
-0.00936281
-0.0170041
-0.00549021
-0.0567864
-0.0839082
-0.00682429
-0.0539834
-0.0117794
-0.0134126
-0.0111334
-0.0511921
-0.0452069
-0.0112776
-0.0129007
-0.026699
-0.00449418
0.0064373
-0.0218045
0.00129024
-0.00973677
0.0306817
-0.0358378
0.00257845
-0.0171036
-0.0141114
-0.00672738
-0.0655488
-0.0578664
-0.00225071
-0.00249226
-0.0110821
-0.0301728
0.00138933
0.00157087
-0.0146117
0.00118012
-0.0226858
-0.00123049
0.00102253
-0.00687694
-0.0395994
-0.00379157
-0.0614657
-0.0136969
-0.00676578
-0.0578317
-0.0107685
-0.0294104
0.00122986
-0.0133832
-0.00112339
-0.0108691
0.000223854
-0.0201245
-0.010784
-0.0626282
-0.000838608
-0.0153872
-0.0164227
0.00103698
-0.00503128
-0.0194171
3.48388e-06
-0.0449054
-0.0885596
0.00845238
-0.0179465
-0.0107063
-0.0139729
-0.000418341
-0.0167609
-0.00436408
0.01054
-0.0401589
0.00213467
-0.0405116
-0.0650769
0.000971429
-0.00356275
-0.00178938
-0.0318053
-0.0546622
-0.00054013
-0.0324807
-0.0572293
0.00483226
0.00156749
-0.0648539
0.000924948
0.000461539
0.00103648
0.000951515
0.00061033
0.00124855
0.00326687
-0.0373354
-0.00171423
-0.0214629
0.00911133
0.0143106
0.0171837
-0.0376042
-0.0714032
-0.0882676
-0.0376035
-0.0534739
-0.0536739
-0.0526207
-0.00247146
-0.0214342
0.00136294
0.013679
-0.00158621
-0.0181485
-0.0586283
0.00103742
0.00818851
0.00677846
0.000549236
0.00145896
-0.0109865
0.00210764
0.00129882
0.00166471
-0.0981268
-0.0426031
-0.022395
-0.0096597
0.00116341
-0.0490321
-0.0606431
-0.0604377
-0.0283803
-0.0572502
-0.00133042
-0.0588171
-0.0555516
0.00293438
-0.0044355
-0.00976399
9.0484e-05
-0.00254166
-0.0021747
-0.00138058
-0.0179383
-0.0635521
-0.0459088
-0.0573331
0.0040367
-0.0417083
-0.0599729
-0.00973012
0.0010647
0.00160993
0.00105146
-0.0208673
-0.00286673
-0.0501532
-0.0211423
-0.0558061
-0.0343711
-0.0942399
-0.0342806
-0.0588486
-0.0571077
-0.00509138
0.00118646
0.000656546
-0.00832131
0.00112897
-0.0155746
-0.0614942
-0.056698
-0.0111115
-0.0124453
0.00190678
-0.0149034
-0.0459971
0.00113175
0.00120121
-0.0476909
0.000139099
-0.00722385
-0.0136213
-0.0465248
-0.0177111
-0.0564297
-0.0541526
-0.00152173
-0.0571183
-0.0470292
-0.055513
0.000972533
-0.00915116
9.07232e-05
-0.0125122
-0.0280067
0.0009456
-0.0966027
0.00159375
-0.000300427
-0.0127146
-0.0576783
-0.0410845
-0.0438027
-0.0271337
0.000868757
0.00382971
-0.105564
-0.000915475
0.0013718
0.00224212
-0.00698638
0.00288163
0.00113399
0.00116361
-0.0569351
-0.0570846
-0.0569352
0.00149434
-0.0394028
-0.100136
-0.0559857
-0.0570388
-0.0347256
0.000906482
0.000779357
0.000440753
-0.00541871
-0.0571976
-0.0572047
0.00125074
-0.093837
-0.0568385
-0.044192
0.00210761
-0.00990728
-0.0233291
-0.0480185
-0.0609914
0.0384277
-0.0594249
0.000392121
-0.0399074
-0.0374171
0.00278794
-0.0577323
-0.0111478
-0.0573434
-0.105287
-0.00349888
-0.0549834
-0.00420275
0.00113983
-0.103895
-0.0564561
-0.056266
-0.0146436
-0.0691789
-0.0601772
-0.0560311
-0.0570864
-0.0640953
-0.0512789
-0.0262272
-0.01223
0.00288042
-0.0414591
-0.0552645
0.00155525
-0.0554892
0.000408095
-0.0300462
0.0104853
0.000533136
-0.0556915
-0.0116978
-0.0530626
-0.0606963
-0.0118003
-0.0415486
-0.05498
-0.0568015
-0.0246323
-0.0403315
-3.61257e-06
0.000307133
-0.0571498
0.00154613
0.00137038
-0.0359089
-0.0224289
-0.0559808
-0.0261115
-0.00760041
-0.0196923
0.0012199
-0.0483648
-0.0124276
-0.0520691
0.00234014
0.000211214
-0.0564695
-0.0389223
0.00216898
-0.104269
-0.0507317
-0.0112066
-0.0118287
-0.0177924
-0.0568919
0.00398539
0.00126215
-0.0607549
-0.0130936
-0.0569493
-0.0578443
-0.0458252
0.00285389
0.00350415
-0.0136366
-0.0571287
-0.0341817
7.23237e-05
-0.0571748
-0.0543755
-0.00172948
0.000972223
-0.0343197
-0.010586
-0.066176
-0.0418876
0.00182333
-0.120109
-0.05378
-0.0232179
0.000502543
-0.056905
-0.054218
-0.0859062
-0.012646
0.00122925
-0.0392583
-0.00862357
-0.0136471
4.71569e-05
-0.0104911
0.00104526
0.0328348
0.000285336
0.00216677
-0.0308838
-0.0539422
-0.0557335
0.0160002
-0.0522246
-0.058897
0.000537456
-0.0564002
-0.0563698
-0.055506
0.000882821
-0.0352345
-0.0551314
-0.0789887
-0.0566024
-0.0337245
-0.0287576
-0.05731
-0.0546768
-0.0475473
0.000404804
-0.042588
-0.0530111
-0.0109003
-0.0532048
-0.10767
-7.19343e-05
-0.0800883
-0.0606886
-0.00677156
0.000131689
0.0043884
-0.0110738
-0.0199813
0.0011231
0.00059294
-0.0585291
-0.0567556
0.00205632
-0.0404325
0.000444848
-0.0113876
-0.0880421
-0.0563451
-0.0887633
-0.0405674
-0.0566032
0.00185893
0.00102935
-0.0334487
-0.0615691
-0.0608556
-0.0379393
-0.0565411
-0.0219816
0.000778844
-0.0109686
-0.0219159
-0.033949
-0.118727
-0.0574286
-0.0184155
-0.0563354
-0.0688708
0.00352085
-0.0451737
-0.012988
-0.0259829
0.012159
-0.0128833
0.00162403
-0.0242406
-0.0251763
-0.00869323
-0.0559502
0.00115193
-0.053118
-0.01974
-0.0162136
-0.0651852
-0.0257417
-0.0568083
0.000824599
-0.0590172
-0.056449
-0.0558198
-0.0593178
0.00492469
-0.0227391
-0.0582467
-0.0573029
0.00107531
-0.0271507
0.00125765
0.000801988
-0.0100971
-0.026474
-0.0579165
-0.0595362
-0.0117214
-0.080317
-0.0262476
0.00111234
-0.00156079
-0.011817
-0.0030406
-0.0380084
-0.0570582
-0.0569148
-0.0572484
0.00424532
-0.00482217
-0.0239431
2.84696e-05
-0.056684
0.0115745
0.000677312
-0.0268737
-0.0420368
0.0188184
-0.0550417
-0.0335899
-0.0919274
-0.0135051
-0.0775478
-0.0510315
-0.0563902
-0.00832452
0.00172786
-0.0215291
-0.0124499
-0.044319
-0.0883326
-0.0247965
-0.0383032
-0.0481134
-0.0411877
-0.0234751
0.0035652
0.00328964
-0.00272174
-0.0600834
0.000177606
-0.0248079
-0.0189464
-0.0210543
-0.0144742
-0.108772
-0.0551791
-0.00626124
-0.0103604
-0.0312517
-0.00286079
0.00222154
-0.0235026
-0.0362294
-0.000102252
-0.0886163
-0.0112794
-0.0557503
-0.0130397
0.00109351
-0.00945858
-0.0559563
-0.00156594
-0.0571309
-0.0322708
-0.0216658
0.00715608
-0.0546551
0.00362662
-0.0578609
-0.00153094
-0.00385773
-0.0528217
0.00138972
-0.0559961
-0.00768636
-0.00309623
0.00106848
-0.000774602
-0.0320636
-0.01277
-0.0525372
-0.0512666
-0.013612
-0.000136608
-0.0173805
-0.130951
0.019611
-0.037743
0.000679815
0.000340975
-0.0369408
-0.0536784
0.0122662
-0.0541923
0.0120591
0.00114246
-0.00956339
0.00171403
0.000133099
-0.00556011
-0.0568035
0.00153287
-0.0363076
0.00184266
-0.0568728
-0.0575625
-0.033572
0.000324549
-0.0529116
-0.0560327
-0.0848711
0.00259022
-0.0219948
-0.0524739
-0.0255932
0.00255634
-0.0493685
-0.0558146
-0.0105433
-0.00272368
-0.0591084
-0.0252974
0.0422256
-0.00944413
-0.0372599
0.00129082
-0.0114192
-0.0458277
-0.0145639
-0.0194642
-0.00170406
-0.00190361
0.00945301
-0.0650995
-0.00126704
0.0140898
-0.0542407
0.00112287
0.00164755
-0.056687
-0.0344358
-0.0436829
-0.011822
-0.0224958
-0.0012279
0.0010508
-0.000761378
-0.0597074
-0.0231706
-0.0560778
-0.0551477
-0.0291101
-0.0584987
-0.0262156
-0.0347551
-0.00236369
-0.0177223
-0.0431335
-0.0260071
0.0079839
-0.0384752
-0.00469146
-0.0153558
-0.0251435
0.00281732
0.00116206
0.00476239
-0.0100535
0.0112246
-0.036983
-0.0360254
0.00122409
-0.0337746
-0.037128
-0.0439059
-0.0242378
-0.0557063
-0.0288309
-0.0562651
-0.000337562
-0.0443182
-0.034857
-0.00605162
-0.0180028
-0.0255546
-0.0386787
0.013676
0.00179999
-0.040934
-0.0550447
-0.0331469
0.00286796
0.0122365
-0.0300792
0.0113968
0.0303238
0.00175631
0.000574447
0.0128137
0.000715527
-0.0193064
0.0202501
-0.0566751
-0.026443
-0.0579948
-0.00176109
0.00522511
-0.0124026
-0.0275218
-0.0123722
-0.00975938
-0.0284846
0.0159738
-0.00151988
-0.0896642
-0.0235658
-0.0591233
0.00138759
-0.00131358
-0.0377827
-0.0584481
-0.0194222
-0.0451913
-0.0236973
-0.0350174
0.00250645
-0.00247361
-0.130553
-0.0581232
0.00776047
-0.00974177
-0.0208645
-0.00756884
-0.000162321
-0.0553835
0.00136359
-0.0878736
-0.0512206
-0.0496354
0.0163024
0.00143238
0.0130499
-0.0518928
-0.0208522
-0.0051775
-0.00349129
-0.0174769
-0.00189538
0.00268565
0.0133526
-0.0544229
-0.00464062
-0.00417391
-0.0504507
-0.0358009
-0.0198218
0.00462633
-0.00695113
0.00131995
-0.00876528
-0.0569128
0.000636747
-0.0216404
-0.0581471
-0.0485312
-0.0382541
0.0382775
0.0428
-0.056779
-0.0435393
0.00573559
-0.0161873
-0.0206032
-0.0123388
-0.0398566