/*--------------------------------*- C++ -*----------------------------------*\
| =========                 |                                                 |
| \\      /  F ield         | OpenFOAM: The Open Source CFD Toolbox           |
|  \\    /   O peration     | Version:  v2012                                 |
|   \\  /    A nd           | Website:  www.openfoam.com                      |
|    \\/     M anipulation  |                                                 |
\*---------------------------------------------------------------------------*/
FoamFile
{
    version     2.0;
    format      ascii;
    class       surfaceVectorField;
    location    "250";
    object      Uf_0;
}
// * * * * * * * * * * * * * * * * * * * * * * * * * * * * * * * * * * * * * //

dimensions      [0 1 -1 0 0 0 0];


internalField   nonuniform List<vector> 
20673
(
(1.11887 0.122673 -1.94695e-21)
(1.12369 0.119216 1.23915e-20)
(1.1177 0.116582 2.60352e-20)
(1.02594 0.0412019 2.50366e-23)
(1.02466 0.0407354 1.21758e-22)
(1.02505 0.0426643 -2.4346e-22)
(0.868438 -0.0623844 3.45177e-21)
(0.896343 -0.0643909 -1.38437e-20)
(0.909906 -0.0579383 -1.33919e-20)
(1.05399 -0.0089383 -4.18434e-21)
(1.05403 -0.00829634 4.44325e-21)
(1.05325 -0.00852291 0)
(0.996595 0.00580322 0)
(0.996421 0.00542401 5.15138e-21)
(0.996143 0.00621652 0)
(0.371045 0.0654268 -8.90154e-20)
(0.359703 0.0384084 -2.22628e-19)
(0.342372 0.0657463 -1.44291e-19)
(0.770236 -0.0389736 1.03824e-21)
(0.772185 -0.043528 0)
(0.815741 -0.0380643 0)
(0.921066 -0.0887029 -9.1181e-21)
(0.893463 -0.0884882 -6.49199e-21)
(0.906868 -0.0942502 4.56904e-22)
(0.71672 -0.248445 4.81831e-21)
(0.671635 -0.242045 -2.53926e-20)
(0.635628 -0.232247 1.45956e-20)
(1.17181 0.15221 -2.03824e-20)
(1.17972 0.152106 0)
(1.1766 0.159957 0)
(1.01804 -0.0593022 -2.03076e-21)
(1.01729 -0.0560914 -4.365e-21)
(1.0145 -0.0597731 -4.74251e-21)
(1.05253 -0.0205037 8.55952e-23)
(1.05097 -0.0204721 -4.30681e-23)
(1.05245 -0.0220265 6.12384e-21)
(1.05465 -0.00909832 -3.3305e-21)
(0.177085 -0.0314283 1.03904e-21)
(0.224426 -0.036701 -5.63102e-21)
(0.165243 -0.0289438 2.05429e-21)
(0.980312 0.101601 -3.09036e-21)
(0.975872 0.101266 -6.29073e-21)
(0.978874 0.0972475 2.53051e-21)
(1.00335 0.0950803 -3.62756e-21)
(1.00071 0.0927232 -3.75232e-21)
(1.00453 0.0910017 6.09953e-22)
(1.0196 0.0482004 9.73114e-22)
(1.02105 0.0476216 2.03757e-22)
(1.01975 0.0466019 3.25734e-22)
(1.14261 -0.0234523 0)
(1.14578 -0.0211952 0)
(1.14634 -0.0265391 1.72593e-20)
(1.0526 -0.0189431 0)
(1.05387 -0.0203337 -5.82402e-21)
(1.0017 0.00559499 3.18138e-21)
(1.0017 0.00533089 -4.44701e-22)
(1.00149 0.0051029 4.02327e-21)
(0.999979 0.000840222 2.58018e-22)
(0.999966 0.00116258 4.19326e-21)
(0.999982 0.000850104 4.46447e-21)
(0.763057 -0.0393725 -8.34868e-21)
(0.729645 -0.0453836 8.15797e-22)
(1.00121 0.00902216 0)
(1.00132 0.00961811 0)
(1.00143 0.00940928 -2.27984e-21)
(0.938685 -0.087312 -7.01515e-21)
(0.944115 -0.0932746 3.64972e-21)
(0.996509 0.0193368 -1.50499e-21)
(0.996016 0.0191971 -4.64533e-22)
(0.996338 0.020006 -1.07756e-21)
(0.752245 -0.0227682 -5.95478e-22)
(0.716049 -0.0242871 -2.46148e-21)
(0.719405 -0.0268746 1.07379e-21)
(0.788713 0.0447305 2.21355e-20)
(0.779708 0.0504365 -6.13995e-20)
(0.780846 0.0384374 2.03907e-20)
(0.761864 0.130085 4.28392e-20)
(0.760363 0.142757 3.883e-20)
(0.751343 0.133502 -1.82456e-20)
(0.705583 0.574565 0)
(0.736807 0.586932 0)
(0.712888 0.619897 -2.01194e-21)
(1.25285 0.071366 1.66451e-20)
(1.25179 0.0636174 -5.33264e-21)
(1.2602 0.0650351 -9.884e-21)
(1.13992 0.104408 0)
(1.13628 0.10866 -5.53694e-22)
(1.13437 0.102991 0)
(1.0758 0.086633 0)
(1.07264 0.0878379 2.16525e-21)
(1.07319 0.0838996 -9.93464e-21)
(0.843422 0.0792027 0)
(0.835621 0.0820329 0)
(0.836797 0.0724991 0)
(0.907983 0.00921791 -1.02217e-20)
(0.910627 0.00613956 -4.20911e-20)
(0.912067 0.0100292 6.86152e-21)
(0.992507 0.0166118 0)
(0.992027 0.0173597 8.17722e-22)
(0.992758 0.0175008 0)
(0.981301 -0.0397374 -1.69609e-21)
(0.979455 -0.0432441 2.67542e-21)
(0.973172 -0.039779 -2.66299e-21)
(1.00104 0.0085876 1.46533e-21)
(1.00117 0.00844848 1.84142e-21)
(0.366952 -0.0877531 0)
(0.331502 -0.080817 0)
(0.351414 -0.0814518 8.24838e-21)
(1.05866 -0.0112571 2.83043e-21)
(1.05924 -0.0116349 3.51434e-21)
(0.441828 -0.0216958 1.59078e-22)
(0.413866 -0.0222054 0)
(0.442522 -0.0219466 -9.15866e-22)
(1.00934 0.0010103 0)
(1.00976 0.000981736 0)
(1.00883 0.000578943 0)
(0.999994 0.000589885 -4.75734e-21)
(1 0.000266855 9.67525e-22)
(0.999999 0.000294303 -3.36456e-21)
(1.02087 0.00177097 -1.02952e-21)
(1.02061 0.00192458 -6.59198e-22)
(1.02046 0.00166795 -2.55027e-21)
(0.696491 0.206639 -2.84665e-20)
(0.713039 0.214796 -1.08582e-20)
(0.695551 0.228836 -1.11507e-19)
(1.04049 0.0206578 2.86188e-21)
(1.0415 0.021239 -2.72101e-21)
(1.04161 0.0203305 -1.50125e-21)
(0.891547 0.0256348 -2.85352e-21)
(0.889839 0.0210785 -1.50967e-20)
(0.895372 0.0220909 -1.33288e-20)
(1.1394 -0.0271215 0)
(1.13833 -0.0216956 0)
(1.11566 -0.0672588 1.67771e-20)
(1.11672 -0.0632921 -1.3195e-20)
(1.11224 -0.0645393 -1.05153e-20)
(0.0914985 0.128863 3.22356e-21)
(0.090278 0.164001 -1.25421e-19)
(0.119941 0.143165 -1.34865e-19)
(1.00352 0.00085287 -2.70069e-21)
(1.00385 0.000774846 -1.08607e-21)
(1.00379 0.00118909 -2.17381e-22)
(1.08184 0.00292883 3.26712e-21)
(1.08319 0.00340977 6.42816e-21)
(1.08295 0.00201783 1.38305e-20)
(0.966932 0.016395 0)
(0.965619 0.015082 0)
(0.965368 0.0171582 -1.41379e-20)
(0.0852462 0.0988715 1.62963e-19)
(0.0517001 0.131646 -1.04708e-20)
(0.905041 0.0123793 0)
(0.903711 0.00794978 -1.31928e-20)
(1.01948 0.0497929 1.00725e-21)
(1.01801 0.0485207 -1.54906e-22)
(1.08975 0.0240707 6.82208e-22)
(1.08959 0.0263661 9.46934e-21)
(1.09208 0.0252957 -4.40487e-21)
(1.01942 -0.0631696 3.62066e-21)
(1.02175 -0.0592466 7.73694e-22)
(0.998053 0.0343601 1.02847e-21)
(0.997962 0.0330137 1.24084e-21)
(0.999115 0.0338229 -5.29246e-21)
(1.07657 0.0343361 -1.91729e-22)
(1.07896 0.0349704 5.12745e-21)
(1.07717 0.0368444 0)
(1.03941 0.0209433 5.53018e-21)
(1.03946 0.0200392 2.66527e-21)
(0.387094 0.06536 -9.49287e-21)
(0.269104 0.0527238 -6.36024e-20)
(0.315988 0.0574354 2.00957e-21)
(1.02718 0.0402923 4.37221e-22)
(1.0274 0.0422075 -4.27096e-22)
(0.186186 -0.0315542 -1.68189e-20)
(1.00172 0.00583766 -1.0108e-21)
(1.00193 0.00606921 1.13609e-21)
(0.3792 0.100977 8.52063e-21)
(0.403107 0.0699715 1.56074e-19)
(0.903668 0.328948 -4.50123e-20)
(0.853042 0.300804 -1.22121e-20)
(0.593921 0.202081 4.42828e-20)
(0.995717 0.00221141 3.2034e-21)
(0.995263 0.00263659 -1.94543e-21)
(0.987658 0.00428802 2.26722e-22)
(0.988404 0.00408225 6.13185e-21)
(1.07475 -0.130338 8.28145e-22)
(1.07008 -0.128429 -1.632e-20)
(1.0703 -0.135133 1.72953e-20)
(1.07901 0.138251 5.71079e-22)
(1.08507 0.13795 -8.50522e-23)
(1.0814 0.145063 1.14691e-21)
(0.996997 0.00541237 0)
(0.996763 0.00618565 -2.12486e-21)
(0.792085 -0.264955 -6.99147e-21)
(0.759813 -0.256445 4.71766e-21)
(-0.246833 -0.0799102 2.19195e-20)
(-0.205932 -0.0916582 2.34006e-21)
(-0.225195 -0.0877973 2.21238e-20)
(0.99716 0.0194035 -2.35061e-21)
(0.9968 0.0184535 4.51591e-21)
(0.0907226 0.198532 -6.77274e-20)
(0.124731 0.216607 -6.97294e-20)
(0.0923537 0.236544 1.36851e-20)
(1.05121 -0.00706156 -5.59741e-21)
(1.05275 -0.00734813 0)
(1.05186 -0.00874721 0)
(-0.133257 -0.0600236 3.31116e-21)
(-0.103131 -0.0738473 -5.84386e-21)
(-0.114275 -0.0625356 -7.34362e-21)
(1.05571 0.0205452 7.88089e-21)
(1.05711 0.0208677 -2.26018e-21)
(1.05619 0.0220223 -1.03299e-20)
(0.671427 -0.0165258 1.65586e-21)
(0.674787 -0.0188077 -4.43494e-21)
(0.702322 -0.0152932 -1.29379e-21)
(0.999937 0.00183293 3.8402e-21)
(0.99989 0.00219026 3.86599e-22)
(0.999908 0.0022274 4.128e-21)
(1.00007 0.00311598 -3.25138e-21)
(1.00008 0.0034827 -2.73507e-21)
(1.0001 0.00303151 7.02241e-22)
(0.996135 0.00225485 4.2271e-21)
(0.388035 0.126971 -1.07512e-19)
(0.397983 0.157108 1.59898e-19)
(0.419605 0.133441 6.52762e-20)
(0.408996 -0.0956238 3.54197e-21)
(0.389375 -0.0963907 0)
(-0.11422 0.0219483 0)
(-0.155097 0.0174697 -1.23086e-20)
(-0.145486 0.0194605 5.21385e-20)
(1.05423 0.0203585 4.18371e-21)
(1.05516 0.0193167 8.99658e-21)
(1.00042 0.00455687 -1.54528e-21)
(1.00046 0.00446412 3.61515e-21)
(1.00034 0.00405759 1.61883e-21)
(0.940674 0.360469 7.95349e-20)
(1.10006 0.432994 -4.17108e-20)
(1.07992 0.00260365 -4.3982e-21)
(1.08049 0.00425058 2.4531e-21)
(1.0211 0.00168101 2.83237e-23)
(1.02125 0.00192551 0)
(0.0091616 -0.118291 -8.96131e-21)
(-0.0384527 -0.107468 9.87207e-21)
(-0.0100261 -0.110718 -6.96981e-22)
(1.23056 0.123515 1.01789e-20)
(1.222 0.126344 -3.63861e-20)
(1.22675 0.132647 2.30342e-20)
(1.02597 0.0227003 -2.89951e-22)
(1.02622 0.0218184 -1.62339e-21)
(1.02525 0.0219719 5.85274e-22)
(0.978434 0.057393 0)
(0.9764 0.0587201 0)
(0.979011 0.0598406 0)
(1.066 0.417885 7.40774e-20)
(0.838819 0.336101 6.00379e-20)
(0.374121 0.0113044 -5.28132e-20)
(0.402944 0.00436357 1.04405e-19)
(0.380182 -0.0232476 1.20156e-20)
(1.05203 -0.0822704 1.99656e-21)
(1.05368 -0.0855231 -2.63317e-20)
(1.04929 -0.0848247 -1.45343e-20)
(1.12304 -0.0540193 -1.74421e-20)
(1.12647 -0.0564861 0)
(1.12706 -0.0523584 -2.22345e-20)
(1.03231 -0.00408006 -2.95172e-22)
(1.03063 -0.00304116 -2.74008e-22)
(1.03292 -0.0017482 3.22341e-21)
(0.593256 0.140408 -1.99124e-20)
(0.613588 0.126084 5.49062e-20)
(0.615169 0.152646 1.02536e-19)
(1.01215 0.00583114 3.79729e-22)
(1.01261 0.00587549 3.05126e-23)
(1.01245 0.00631131 3.01253e-22)
(0.8407 0.0071167 -1.25211e-20)
(0.844314 0.0144317 3.60117e-20)
(0.848277 0.00756978 5.1795e-21)
(0.679757 0.199679 -2.19673e-21)
(0.698218 0.190994 -2.58534e-20)
(1.0616 0.014125 -4.61674e-21)
(1.06263 0.0136687 1.85019e-21)
(1.06148 0.0127877 -4.34175e-21)
(1.01786 0.0119543 -2.09693e-22)
(1.01785 0.011357 -5.72972e-22)
(1.01844 0.0117965 -5.55917e-22)
(0.698884 -0.255147 6.90889e-21)
(0.677857 -0.254182 -2.11873e-20)
(0.769194 -0.265685 -5.71114e-20)
(0.813981 0.516168 0)
(0.78484 0.533259 -1.8087e-20)
(0.823613 0.542858 3.18551e-21)
(1.11475 -0.0703945 2.07378e-20)
(1.11905 -0.0694531 8.82956e-21)
(1.02261 0.0469447 -2.98595e-22)
(1.02271 0.0487358 -2.99625e-22)
(1.13948 0.120814 2.06995e-20)
(1.13514 0.124534 1.94365e-20)
(1.14131 0.126992 -5.76723e-21)
(-0.371356 -0.012446 3.17863e-20)
(-0.420098 -0.0148443 -6.90686e-21)
(-0.402987 -0.0152753 -4.38536e-20)
(0.459902 -0.0210582 -8.51086e-22)
(0.43996 -0.0219068 1.70775e-21)
(1.04374 -0.0190627 -3.18047e-21)
(1.04389 -0.0174213 1.39937e-22)
(1.04214 -0.0185999 3.2949e-22)
(0.705194 -0.254811 8.0379e-21)
(0.622426 -0.245638 2.0705e-20)
(0.949683 0.0148226 1.29815e-20)
(0.948399 0.0168439 -1.60787e-20)
(0.947541 0.0141475 2.34398e-20)
(0.0885585 -0.126011 -1.1151e-19)
(0.0983427 -0.0959222 4.39051e-20)
(0.0606729 -0.10187 -4.37417e-20)
(1.00204 0.0166717 9.27377e-22)
(1.00221 0.0174127 -1.15436e-21)
(1.00178 0.0171065 -2.72285e-21)
(0.181146 0.103043 1.72661e-20)
(0.211286 0.0848499 7.40706e-21)
(0.212135 0.119929 -1.11493e-19)
(0.424609 -0.0258938 3.19314e-21)
(0.431768 -0.0283976 -3.14041e-21)
(0.443161 -0.031064 -2.15644e-22)
(0.907998 0.0202761 -1.16281e-20)
(0.905299 0.023584 -6.53613e-22)
(0.909973 0.0239475 -1.47353e-21)
(1 0.000913452 -1.13025e-21)
(0.999986 0.000896798 5.79613e-22)
(1.07888 -0.133332 1.77758e-20)
(1.0785 -0.127489 5.16197e-23)
(0.394752 -0.0326429 -1.08226e-20)
(0.412634 -0.0366208 0)
(0.405101 -0.036965 -1.02501e-20)
(0.763792 0.118005 -2.03868e-20)
(0.775604 0.126843 0)
(1.00543 0.000744244 0)
(1.0057 0.00108095 -2.7126e-22)
(1.0058 0.000643527 0)
(0.978199 0.0547629 0)
(0.980663 0.0558824 5.38106e-21)
(1.03712 0.0243774 1.10724e-21)
(1.03798 0.0251704 -1.53389e-21)
(1.03693 0.0254058 1.60116e-21)
(1.00508 0.000761298 7.8531e-22)
(1.00488 0.000370195 1.33595e-21)
(1.01808 0.00143932 1.49918e-22)
(1.01826 0.00128991 1.85324e-21)
(1.01796 0.00122246 0)
(0.345919 0.0122851 8.29873e-20)
(0.504165 -0.0454847 -2.29465e-21)
(0.494377 -0.0442711 -3.00818e-21)
(0.482563 -0.0407946 1.0971e-21)
(0.951088 0.0124416 1.39149e-20)
(0.952253 0.0151557 3.47933e-21)
(1.04249 0.021841 1.39215e-21)
(1.04133 0.0222445 -4.73487e-21)
(0.999968 0.000815601 -3.84162e-21)
(0.999995 0.000544034 -2.074e-21)
(1.33 -0.1473 1.94554e-21)
(1.35427 -0.153427 -4.65577e-20)
(1.3013 -0.157645 4.37614e-20)
(0.951125 -0.0843207 7.63365e-21)
(0.934716 -0.0808966 -3.59568e-21)
(1.11963 0.128419 -2.88341e-20)
(1.114 0.125274 -2.57411e-20)
(0.576592 0.151403 -1.00035e-19)
(0.577619 0.123523 -7.92101e-20)
(0.995237 0.00310661 -6.66089e-21)
(0.994766 0.00299674 -7.00766e-21)
(0.906333 0.0163432 -5.00734e-21)
(0.910679 0.0174017 -9.97564e-21)
(0.986947 -0.0511878 -4.95412e-22)
(0.987585 -0.0473213 1.37795e-21)
(0.991904 -0.050415 0)
(1.02624 0.0111181 2.30959e-21)
(1.02626 0.011683 2.57728e-22)
(1.02553 0.0112569 2.20468e-21)
(0.964903 0.0282489 -5.93468e-21)
(0.962806 0.0290243 -1.96628e-20)
(0.963375 0.0264669 -1.64386e-20)
(0.662544 0.203592 2.74485e-20)
(0.641761 0.209516 0)
(0.660403 0.226753 6.12515e-20)
(0.987486 0.00503559 8.76341e-21)
(0.98687 0.00456337 8.8134e-21)
(0.977868 -0.274533 -5.00854e-21)
(0.916509 -0.270329 1.65082e-21)
(0.970871 -0.279108 -4.41063e-21)
(0.796943 0.622035 -1.58407e-21)
(0.805952 0.593107 -2.96654e-21)
(0.771151 0.592276 -1.05842e-21)
(0.968366 0.0179716 0)
(0.968779 0.0158281 -4.11787e-21)
(1.02461 0.00925403 -4.07539e-21)
(1.02474 0.00978655 -1.09267e-21)
(1.02405 0.00938995 -2.97816e-22)
(1.07079 0.0955964 7.45059e-21)
(1.06683 0.096525 -5.93999e-22)
(1.07001 0.100471 -6.93953e-21)
(1.08037 -0.0447948 0)
(1.0799 -0.0474844 -7.39131e-21)
(1.08281 -0.0457373 0)
(0.113079 -0.147478 -5.09413e-20)
(0.0737542 -0.156469 -1.93247e-19)
(1.0489 -0.0474441 -9.51969e-22)
(1.04836 -0.0500672 -2.3799e-21)
(1.04629 -0.0474101 1.95792e-22)
(1.03778 0.191271 -1.66212e-21)
(1.04109 0.185808 0)
(1.04623 0.190209 0)
(1.08952 0.0532122 2.13152e-20)
(1.08765 0.0558423 -6.0625e-22)
(1.08627 0.0527789 9.11314e-21)
(-0.0674677 0.0227787 -3.99634e-20)
(-0.0804177 0.0251022 -1.14548e-19)
(-0.108584 0.0202338 0)
(1.07319 0.139196 6.6597e-22)
(1.07622 0.133274 -2.85833e-23)
(0.97168 -0.135042 2.47301e-22)
(0.976628 -0.137526 -1.88995e-21)
(0.975846 -0.130978 -4.57863e-22)
(-0.171342 -0.0485576 8.2585e-21)
(-0.151418 -0.0594591 7.30632e-21)
(1.36439 -0.139505 -5.3182e-21)
(1.27639 -0.135685 2.22617e-20)
(0.944211 0.050628 -3.60984e-21)
(0.941453 0.0523367 1.52968e-20)
(0.94112 0.0487288 -8.3113e-21)
(0.788553 -0.0187335 1.64223e-20)
(0.782968 -0.0102795 -2.3291e-20)
(0.777074 -0.0211298 -4.84188e-20)
(1.00001 0.00231777 -2.88319e-21)
(1.00003 0.00223026 -1.7933e-21)
(0.999989 0.00186282 -6.32549e-21)
(1.0496 -0.0788542 1.21175e-20)
(1.05418 -0.0793901 1.99404e-20)
(1.04376 -0.0211654 -1.12498e-21)
(1.0454 -0.0197825 5.59657e-21)
(1.03353 -0.00503026 5.04603e-21)
(1.03155 -0.00626403 0)
(1.06169 0.0152723 0)
(1.06054 0.014451 0)
(1.0995 -0.051834 1.3943e-20)
(1.09644 -0.0520795 1.92236e-20)
(1.09819 -0.0552795 2.98196e-20)
(1.03402 0.0177698 -1.15356e-21)
(1.0349 0.0182948 0)
(1.03393 0.0186853 -3.11439e-21)
(0.83741 0.000881235 -2.53191e-20)
(0.833012 0.00813758 -3.30147e-20)
(1.06594 0.184116 -3.6269e-21)
(1.05782 0.183601 -7.10535e-21)
(1.06355 0.176639 9.01771e-21)
(-0.528931 -0.00467078 -9.57597e-20)
(-0.557209 -0.00719198 2.73621e-20)
(-0.513738 -0.0041415 3.50182e-20)
(1.04301 -0.0125747 3.76599e-21)
(1.04131 -0.0124586 2.99948e-21)
(1.04219 -0.0143056 3.00947e-21)
(1.01916 0.0562802 -1.37238e-22)
(1.01927 0.0581189 -7.91668e-22)
(1.01732 0.0571231 1.19445e-22)
(1.02576 -0.235892 -5.21359e-21)
(1.02706 -0.242917 0)
(1.04012 -0.237351 5.91663e-21)
(1.02912 0.21108 -1.14211e-22)
(1.02589 0.216619 -2.40396e-21)
(1.03456 0.216442 -5.33435e-22)
(0.513449 -0.0442235 -3.01878e-22)
(0.531639 -0.0470301 -3.31415e-21)
(0.150093 0.0856206 -4.51322e-20)
(0.150818 0.123069 1.20168e-19)
(0.989466 -0.271274 -8.23091e-21)
(1.03068 -0.277092 2.36528e-21)
(1.0154 0.0275024 -9.75913e-22)
(1.01616 0.0280535 5.82967e-22)
(1.01531 0.0284307 3.34638e-21)
(1.23878 0.121735 0)
(1.23359 0.115503 -2.18122e-20)
(1.14653 0.105783 0)
(1.14414 0.100068 0)
(1.02688 0.0109309 1.68829e-21)
(1.02614 0.0105294 -9.76246e-23)
(1.0004 0.00468921 -3.80994e-21)
(1.00051 0.00510374 -2.43264e-21)
(0.942425 0.124783 -7.14084e-21)
(0.938188 0.120808 -3.67516e-21)
(0.94452 0.120021 -1.67237e-20)
(0.789327 -0.0191743 2.39922e-21)
(0.792897 -0.0207681 5.47241e-21)
(1.34149 0.149188 -5.98708e-20)
(1.35051 0.14801 2.14718e-20)
(1.34824 0.158943 2.69019e-20)
(-0.0542713 0.0238607 -1.44987e-19)
(-0.00653314 0.0325062 6.88587e-21)
(1.12469 0.0161251 3.48266e-21)
(1.12526 0.019259 2.06921e-20)
(1.12796 0.0167593 1.67054e-20)
(1.02844 -0.0205167 4.65756e-22)
(1.02902 -0.0186487 -5.83956e-21)
(1.027 -0.0198468 2.46638e-22)
(0.992433 -0.0879103 0)
(0.98751 -0.0859986 -7.2268e-23)
(0.98818 -0.0918115 2.6431e-22)
(-0.0714525 0.0261123 -2.22825e-20)
(-0.0820063 0.0234104 8.95348e-20)
(1.31879 0.209888 8.98816e-22)
(1.32172 0.201254 -3.56043e-20)
(1.32736 0.207876 -5.73572e-20)
(1.00011 0.00982169 3.34424e-21)
(1.00015 0.00924435 -3.61861e-21)
(0.999978 0.00916593 4.77185e-21)
(0.566326 0.0615051 3.83913e-20)
(0.571906 0.0817308 6.10298e-21)
(0.546884 0.0756838 3.70251e-20)
(0.797175 0.0412689 2.41884e-20)
(0.796538 0.052493 -4.3344e-20)
(1.01038 0.0003813 0)
(1.01002 0.000381572 -4.54178e-23)
(1.02565 0.0234416 -1.74617e-22)
(1.02671 0.0233482 1.30131e-21)
(0.865011 0.484237 -1.08259e-25)
(0.860716 0.456105 1.33567e-20)
(0.888288 0.466207 -4.99995e-21)
(1.16867 0.506722 -4.28539e-21)
(1.158 0.481029 -6.86513e-20)
(0.979709 0.403597 -2.91685e-20)
(1.06861 -0.00660827 -5.21451e-21)
(1.06912 -0.00733972 -3.48197e-22)
(1.06972 -0.00667792 0)
(1.00331 0.00101904 -1.5683e-21)
(1.00329 0.000632359 -9.47594e-23)
(1.09034 -0.0467816 -3.70887e-23)
(1.09123 -0.0440534 1.13482e-23)
(1.09333 -0.0469382 1.82899e-20)
(1.07807 -0.0442662 0)
(1.08008 -0.0425646 0)
(-0.266029 -0.072507 -2.16175e-20)
(-0.284017 -0.0698419 6.11353e-21)
(1.26264 -0.247513 0)
(1.24598 -0.247067 -7.14493e-21)
(1.24317 -0.234466 2.55548e-20)
(0.992939 0.0160786 0)
(0.992443 0.0159882 0)
(0.996975 0.0347155 -1.88146e-22)
(0.9981 0.0354837 9.19271e-21)
(1.11993 -0.0517503 -2.93536e-21)
(1.11898 -0.0555493 3.91819e-21)
(0.822332 -0.0337019 2.23695e-21)
(0.868663 -0.0272364 -7.32803e-21)
(0.862235 -0.0307618 -6.30843e-22)
(0.966736 0.027236 2.15522e-20)
(0.966616 0.029571 6.15765e-21)
(0.769832 -0.0466377 0)
(0.766516 -0.0503064 0)
(0.81648 -0.0448405 4.01432e-21)
(-0.352672 -0.0509255 -6.52695e-21)
(-0.317596 -0.059129 -1.22572e-20)
(-0.33647 -0.0514173 -3.08152e-20)
(1.03022 -0.0218939 -4.87057e-21)
(1.02783 -0.0230045 -2.73457e-21)
(1.01739 0.01201 5.01196e-22)
(1.01788 0.0124301 2.78332e-22)
(0.487169 0.39635 1.64283e-21)
(0.505932 0.431623 -3.10719e-20)
(0.45331 0.431408 0)
(1.11134 -0.0444899 0)
(1.11409 -0.0469388 0)
(1.11476 -0.043185 2.74845e-22)
(-0.584403 -0.0261534 -7.8938e-21)
(-0.533865 -0.0293812 3.89466e-20)
(-0.563698 -0.0251503 2.92387e-20)
(1.00463 0.0212017 -2.68361e-21)
(1.00508 0.021534 -1.66438e-21)
(1.00471 0.0220222 -8.62403e-23)
(0.514716 0.0793836 -3.40002e-20)
(0.472005 0.0764479 -5.37797e-20)
(1.01456 0.0268954 -1.45715e-21)
(1.01541 0.0266165 -2.0314e-21)
(1.24296 0.0291363 2.89491e-20)
(1.23615 0.0261707 2.82269e-20)
(1.23693 0.0333278 3.13926e-20)
(1.00919 0.0013153 0)
(1.00896 0.000921939 6.25212e-22)
(0.306503 -0.105055 6.40769e-21)
(0.269599 -0.0985607 -1.51955e-21)
(0.301014 -0.100389 2.95504e-21)
(0.659351 -0.252016 7.56417e-21)
(0.639746 -0.249211 7.12865e-21)
(0.728151 -0.260222 3.51481e-23)
(1.003 0.0985709 4.55358e-21)
(1.00672 0.0969334 -8.736e-23)
(1.18697 0.532509 -1.02857e-20)
(1.20184 0.534116 4.58943e-20)
(1.20179 0.516928 3.76664e-20)
(1.09276 0.0533614 3.94382e-21)
(1.09064 0.0505041 -3.69958e-21)
(1.01671 0.0120305 5.41047e-22)
(1.01678 0.0114455 4.83969e-23)
(0.986803 -0.0389846 3.36545e-22)
(0.981003 -0.0363059 -1.85697e-21)
(1.04391 -0.0109869 -1.0188e-20)
(1.04471 -0.0127618 -2.80548e-21)
(1.12161 0.0155307 -1.16842e-20)
(1.12389 0.013081 3.71625e-21)
(0.943112 -0.0712905 9.95494e-22)
(0.920823 -0.0683991 -1.0552e-20)
(0.950358 -0.0646447 2.3753e-21)
(-0.370477 -0.0432504 -4.19932e-20)
(-0.392999 -0.0393963 1.91089e-20)
(1.01303 0.00303973 1.69972e-23)
(1.01341 0.00304508 -1.40476e-22)
(1.01319 0.00265721 1.51139e-22)
(1.07891 0.0850779 0)
(1.07862 0.0894424 -2.23302e-20)
(0.0382853 -0.12941 0)
(0.0685304 -0.132728 -1.06095e-20)
(-0.155327 0.010307 -5.60526e-21)
(-0.184326 0.00693286 -5.74968e-20)
(-0.157793 0.00961493 -5.6726e-20)
(0.999992 0.00229166 -2.33064e-22)
(0.999982 0.0027311 0)
(1.00695 0.0101809 1.03389e-22)
(1.00743 0.0104152 -1.63411e-21)
(1.00719 0.0106906 1.15124e-21)
(0.451176 -0.018313 3.79119e-22)
(0.465197 -0.0186076 0)
(1.05443 -0.0970357 -4.30911e-21)
(1.05207 -0.0936577 2.64775e-23)
(1.04999 -0.0978595 -1.24889e-20)
(1.00005 0.000118017 2.82653e-22)
(1.00002 8.89471e-05 -5.98124e-24)
(1.00005 0.00014789 -1.93687e-21)
(0.994931 -0.0285951 1.04281e-21)
(0.996209 -0.0248225 -1.29518e-21)
(0.998597 -0.0284668 -1.15199e-21)
(1.19256 -0.0645767 0)
(1.18752 -0.0691714 2.07634e-20)
(1.18569 -0.0613819 5.86606e-22)
(0.797806 -0.0186942 4.81617e-20)
(0.79321 -0.0282954 1.01903e-20)
(1.11294 0.102416 6.38866e-21)
(1.11689 0.106247 3.62692e-20)
(1.117 0.100157 3.94691e-20)
(1.00003 0.00267584 1.55771e-21)
(1.00004 0.00220135 -4.33832e-22)
(0.991813 0.223648 -1.09985e-21)
(0.993288 0.213168 -2.65037e-22)
(0.982788 0.217755 4.73472e-21)
(-0.273277 -0.0551041 2.99577e-21)
(-0.261884 -0.053393 4.23977e-21)
(-0.309386 -0.0410068 1.94849e-20)
(1.04025 0.00195849 1.30218e-21)
(1.04043 0.00143875 -3.19249e-21)
(1.04118 0.00181316 -3.2332e-21)
(1.26098 0.145897 4.69235e-20)
(1.25242 0.150024 -8.06044e-21)
(1.25414 0.138945 -5.17078e-20)
(0.566281 0.169096 -1.44641e-20)
(0.58158 0.190125 -1.09179e-20)
(0.551461 0.195092 3.3496e-20)
(1.03625 0.0235639 1.17322e-21)
(1.03725 0.0232837 -2.09708e-21)
(0.997941 0.0318093 0)
(0.996978 0.032266 0)
(1.05684 -0.0398329 0)
(1.05572 -0.0416349 -4.30475e-22)
(1.05476 -0.0393533 4.00962e-21)
(0.487205 -0.0193624 1.60225e-22)
(0.473309 -0.0197722 3.05212e-23)
(0.47551 -0.0197858 0)
(1.04947 -0.0450391 -4.73987e-21)
(1.05156 -0.0474421 -7.55829e-21)
(0.945653 0.129229 2.1753e-20)
(0.939746 0.130677 -1.53941e-20)
(0.984475 0.101205 3.77198e-21)
(0.981941 0.105323 1.37382e-20)
(1.00005 0.000255525 -3.41574e-21)
(1.00004 0.000222004 -3.21805e-23)
(1.00002 0.000147575 -1.51859e-21)
(0.376054 -0.0289774 -3.46496e-21)
(0.383908 -0.0293302 -1.0228e-20)
(0.645236 -0.147548 4.69923e-21)
(0.741409 -0.16294 5.12259e-21)
(0.723237 -0.151167 8.8196e-20)
(1.0009 -0.0039137 0)
(0.998059 -0.00555274 0)
(0.996004 -0.00204306 8.79952e-22)
(1.01619 0.0120857 -2.11575e-22)
(1.01669 0.0125156 -7.87908e-23)
(-0.396057 -0.0595428 -3.05349e-20)
(-0.35246 -0.0683564 7.36457e-21)
(-0.373826 -0.0631623 -7.13976e-20)
(0.198445 -0.047204 -3.00121e-21)
(0.209976 -0.0451186 8.84596e-21)
(0.17942 -0.0375425 -2.25659e-21)
(0.97015 -0.138854 6.62469e-22)
(0.967686 -0.131747 -1.56253e-22)
(0.665141 -0.0177179 3.61657e-22)
(0.644979 -0.0210288 -4.96995e-22)
(1.0497 -0.00716416 -1.79525e-21)
(1.0506 -0.00564415 4.90934e-21)
(1.00003 0.00316716 0)
(1.00699 0.000837063 -3.89032e-22)
(1.00662 0.000898447 -1.66689e-22)
(1.00707 0.00130424 1.11314e-21)
(1.13689 -0.0291638 -1.47577e-22)
(1.13333 -0.0274568 -1.74485e-23)
(1.13386 -0.0317178 -1.539e-22)
(0.166471 -0.0954278 -6.26072e-22)
(0.143382 -0.0849688 -3.02556e-21)
(0.12796 -0.0858506 4.57702e-21)
(1.12565 -0.111193 4.167e-21)
(1.13089 -0.111616 -2.48664e-20)
(1.1266 -0.117005 2.4336e-21)
(1.07417 0.0339972 -7.23982e-21)
(1.07577 0.0323164 9.69187e-21)
(1.27589 -0.248339 0)
(1.26773 -0.261689 -3.49181e-20)
(1.06216 -0.0152257 4.24989e-21)
(1.06247 -0.0152058 8.74563e-21)
(1.01787 0.000772802 2.98593e-23)
(1.01787 0.000978464 -2.37646e-22)
(1.01806 0.000856833 4.69377e-22)
(0.822241 0.0100914 -4.89641e-21)
(0.822408 0.00211876 4.93083e-20)
(0.726745 3.70758e-05 1.00253e-19)
(1.00216 0.00551818 2.29862e-21)
(1.00216 0.0052656 -1.16913e-22)
(1.00193 0.00508199 -4.27464e-23)
(1.0244 -0.230057 1.41101e-21)
(0.996358 -0.234025 -1.02576e-20)
(1.06801 -0.00562507 -5.21955e-21)
(1.06738 -0.0063923 -6.68546e-22)
(1.00005 9.14849e-05 -2.81756e-21)
(1.00008 0.000146664 -1.39995e-21)
(1.01077 0.112583 -9.82648e-22)
(1.0097 0.117621 -1.12567e-21)
(1.00643 0.113135 1.44254e-21)
(1.03579 0.197638 -1.46782e-21)
(1.03077 0.19185 -3.20375e-22)
(0.77777 -0.000389278 0)
(0.788101 5.64187e-06 -3.72811e-20)
(0.99033 -0.0275409 2.05069e-21)
(0.993394 -0.031436 8.60323e-22)
(1.00999 0.149742 -2.25162e-21)
(1.01049 0.156264 -1.61514e-21)
(1.0039 0.152158 5.09515e-21)
(1.04364 0.00647866 8.49781e-21)
(1.04432 0.00711897 -3.65679e-21)
(1.04328 0.00703835 2.00149e-21)
(1.382 -0.101688 3.96481e-20)
(1.39235 -0.0903283 -4.4862e-20)
(1.40736 -0.103608 3.8483e-20)
(0.953871 -0.0749742 3.1087e-21)
(0.935745 -0.0760066 7.81843e-21)
(0.567225 -0.149972 -5.46416e-20)
(0.561811 -0.142807 2.32636e-21)
(1.00415 0.0210315 1.51498e-21)
(1.00446 0.0205599 -5.20772e-21)
(0.983675 -0.161541 1.07394e-21)
(0.985197 -0.161436 2.53639e-21)
(0.989297 -0.169241 7.90824e-22)
(0.998514 0.00111502 1.46807e-22)
(0.998405 0.00142908 4.35486e-21)
(0.998201 0.00135643 0)
(1.04319 0.00582869 -7.99149e-22)
(1.04422 0.00584457 7.11267e-21)
(1.00184 0.0158747 -4.64921e-22)
(1.00226 0.0161907 2.27663e-21)
(0.825851 0.653969 -5.66172e-21)
(0.777977 0.657803 -3.29928e-22)
(1.00162 0.00101308 -2.88491e-21)
(1.00176 0.000886334 -1.08243e-21)
(1.00149 0.000787861 -7.84911e-22)
(1.24938 0.0319131 3.35024e-20)
(1.24863 0.0246543 0)
(1.10882 0.105777 1.31152e-21)
(1.10854 0.0996977 -1.97264e-20)
(1.03308 0.0172081 2.63998e-21)
(1.03403 0.0168821 -2.54766e-21)
(1.08954 -0.0498893 0)
(1.08753 -0.046684 0)
(1.04398 0.0549769 5.21421e-22)
(1.04467 0.0530572 -2.12243e-21)
(1.04634 0.0546677 -3.08729e-21)
(0.119704 0.0656218 -1.3142e-19)
(0.106859 0.04943 0)
(0.10547 0.0811715 5.98019e-20)
(1.03303 0.205091 1.21701e-21)
(1.02487 0.205539 1.02215e-21)
(1.21743 0.11824 -6.81978e-20)
(1.21323 0.126913 -8.68312e-21)
(1.03109 0.0116689 1.93218e-21)
(1.0318 0.0122072 6.11071e-22)
(1.03174 0.0114202 -7.61626e-22)
(0.998836 0.0313423 0)
(0.997899 0.0306963 6.01287e-21)
(-0.393223 -0.00686231 1.71203e-19)
(-0.431719 -0.0102642 -9.82327e-21)
(-0.434605 -0.00881006 -1.03609e-20)
(0.371821 -0.0367302 -8.54244e-21)
(0.36229 -0.0350658 6.96148e-21)
(0.383982 -0.0414585 -1.09615e-22)
(1.00227 0.0181595 1.65314e-21)
(1.00258 0.0177363 0)
(1.00777 0.000769037 3.77422e-22)
(1.00825 0.00102882 -6.73746e-23)
(1.0078 0.00134901 -4.49365e-22)
(0.805196 0.0145854 -1.51428e-20)
(0.926108 0.0126532 -1.25976e-21)
(1.01834 0.0253019 7.42291e-23)
(1.01869 0.0262338 7.7743e-22)
(1.01944 0.0255845 7.54901e-22)
(-0.158309 -0.10291 -2.16582e-20)
(-0.184206 -0.0951705 -2.13464e-20)
(1.03032 0.0112969 1.90186e-22)
(1.03042 0.0120908 -5.51978e-22)
(0.311108 -0.109997 3.3045e-21)
(0.345465 -0.111912 -1.81581e-21)
(1.04645 -0.00439434 3.6761e-21)
(1.04603 -0.00485125 -2.8347e-22)
(1.04683 -0.00488772 3.37573e-21)
(1.24402 0.365137 9.29489e-21)
(1.2308 0.36195 -2.94511e-20)
(1.23416 0.37668 -2.70223e-20)
(1.08977 -0.0145444 -1.95503e-20)
(1.091 -0.0128105 -4.82751e-21)
(1.09224 -0.014945 1.65788e-20)
(0.0966643 0.310766 0)
(0.0952576 0.270987 7.44247e-20)
(0.129938 0.288631 -6.30323e-20)
(0.947557 0.0516954 -1.52046e-20)
(0.9469 0.048308 -3.90925e-21)
(1.40571 -0.128496 -5.51349e-20)
(1.37137 -0.123787 -4.13321e-20)
(0.512141 0.303752 6.22345e-20)
(0.485363 0.313739 -7.89507e-20)
(0.512711 0.336277 5.35804e-20)
(1.01511 0.112487 1.11087e-21)
(1.01221 0.10915 1.35582e-21)
(1.05793 -0.0966007 4.79196e-21)
(1.05652 -0.101382 4.58381e-21)
(0.950105 0.537724 -1.06262e-20)
(0.966806 0.55737 9.8665e-22)
(0.936428 0.560944 1.40087e-20)
(1.00089 0.0470552 -1.86831e-21)
(0.999312 0.0467657 6.17348e-21)
(0.999901 0.0484787 5.03013e-21)
(0.458045 -0.0610208 -5.56221e-21)
(0.429306 -0.0568404 0)
(0.44123 -0.0564638 7.63056e-21)
(0.581452 0.0503109 1.56422e-19)
(0.560896 0.0414279 4.18852e-21)
(0.215204 -0.0552115 -1.16043e-20)
(0.19139 -0.0490441 -2.03076e-20)
(0.924055 0.0255358 0)
(0.920484 0.0268684 0)
(0.92343 0.0295676 9.79693e-21)
(0.44201 -0.0242557 5.37447e-28)
(0.414738 -0.0238631 -2.67008e-28)
(0.442373 -0.0241545 3.25468e-21)
(1.08237 0.0835723 0)
(1.08547 0.0870888 0)
(1.08611 0.0828604 0)
(-0.21039 0.0266148 9.34644e-20)
(-0.169605 0.0300392 4.06579e-20)
(-0.160528 0.0298371 -6.52849e-20)
(0.519033 0.272533 4.80116e-20)
(0.54421 0.296257 0)
(0.932472 0.371423 4.61277e-21)
(0.915181 0.36843 -1.43567e-21)
(0.924021 0.387156 5.93991e-21)
(0.951337 0.377715 -3.07452e-21)
(0.943183 0.358089 -5.73141e-22)
(0.840017 -0.0606284 -1.72984e-21)
(0.819236 -0.0660063 1.01773e-20)
(0.999771 0.00249962 4.19254e-21)
(0.999715 0.00286392 0)
(0.999746 0.00288865 0)
(1.07376 0.182708 -7.25496e-21)
(1.07045 0.190677 5.49567e-21)
(-0.315994 -0.0115031 -4.31259e-20)
(-0.333837 -0.00925241 6.63196e-21)
(0.985867 0.0348312 5.15659e-21)
(0.985003 0.0357342 0)
(0.984531 0.0341427 0)
(1.00935 0.076207 1.47717e-22)
(1.00996 0.0736379 -1.92041e-21)
(1.00712 0.0744502 -2.05625e-21)
(0.241538 -0.0464831 0)
(0.254906 -0.0465441 0)
(0.840598 0.502584 0)
(0.87337 0.512181 0)
(1.02265 0.0524009 -8.19424e-22)
(1.0228 0.0540701 -6.02342e-22)
(1.02467 0.0531944 4.40727e-22)
(0.997204 -0.0899209 0)
(0.99602 -0.0847857 2.97318e-23)
(0.670454 0.568397 0)
(0.697924 0.541 0)
(1.01007 0.00542667 2.99537e-22)
(1.01053 0.00565976 -7.13694e-24)
(1.01043 0.00514463 -5.62985e-23)
(0.418042 -0.0266891 1.51493e-21)
(0.398331 -0.0234702 -1.66476e-20)
(0.98489 -0.0626796 -1.64668e-21)
(0.978904 -0.0595121 -2.94868e-21)
(0.986725 -0.0583856 1.95875e-21)
(1.00216 0.00576612 4.47886e-21)
(1.0024 0.00596749 2.13653e-21)
(1.01143 0.0141798 7.53392e-22)
(1.01086 0.013889 6.54607e-23)
(1.0111 0.0145322 -1.54825e-21)
(0.998498 0.000808945 1.39236e-22)
(0.998749 0.000847261 -5.14753e-21)
(1.02526 0.00913403 -1.66841e-21)
(1.02457 0.00877691 1.35521e-21)
(1.3546 -0.0983532 -1.67134e-20)