/*--------------------------------*- C++ -*----------------------------------*\
| =========                 |                                                 |
| \\      /  F ield         | OpenFOAM: The Open Source CFD Toolbox           |
|  \\    /   O peration     | Version:  v2012                                 |
|   \\  /    A nd           | Website:  www.openfoam.com                      |
|    \\/     M anipulation  |                                                 |
\*---------------------------------------------------------------------------*/
FoamFile
{
    version     2.0;
    format      ascii;
    class       surfaceScalarField;
    location    "900";
    object      meshPhiCN_0;
}
// * * * * * * * * * * * * * * * * * * * * * * * * * * * * * * * * * * * * * //

dimensions      [0 3 -1 0 0 0 0];
oriented        oriented;


internalField   nonuniform List<scalar> 
20580
(
0.000193389
-0.000216309
2.29002e-05
0.00047882
-0.00021192
-0.000267627
1.76316e-05
0.000460109
-0.000106573
0.000139726
-3.31523e-05
-3.76871e-05
-2.82043e-05
4.24681e-05
-2.78005e-05
-0.000401932
0.000429024
0.000301333
-0.000471577
-7.42598e-05
-4.38526e-05
7.73031e-05
5.34851e-05
6.56908e-05
-0.000119176
0.000123334
-0.000684688
0.000559639
-0.000184371
0.000315474
-0.000131179
9.08353e-05
0.000371326
-0.000468677
-0.00055097
0.00010289
0.000447324
4.11974e-05
-0.000105699
6.45012e-05
0.000193139
-0.000362257
0.0001689
0.000173486
3.09352e-05
-0.000204437
0.000134729
-0.000101654
-3.30752e-05
0.000643297
-0.000198302
-0.000449039
0.000113621
7.40517e-05
-0.000187681
-5.89693e-05
0.000252337
-0.000398518
0.00015438
0.000243931
-0.000160332
-0.00029132
0.000451063
0.000139317
-6.68831e-05
-7.24345e-05
-2.63458e-05
-9.8602e-07
2.26089e-05
0.000166192
-3.91859e-06
-0.000162277
0.000310912
-0.00018968
-0.0001213
0.000201283
-0.000133949
-6.734e-05
6.28905e-05
0.000101809
-0.000164703
0.000145393
-7.92812e-05
-6.61116e-05
-0.000132611
-0.000470592
0.000591829
1.89754e-05
-0.000125364
0.000106389
-0.000212406
0.000512586
-0.000197612
-3.88572e-05
0.000236447
-6.12069e-05
-8.12299e-05
0.000142436
0.000221583
7.25637e-05
-0.000294261
-0.000139843
0.00016574
-2.58973e-05
-4.18507e-09
-2.84463e-05
0.000186366
-0.000110363
-7.60054e-05
-0.00011112
-3.16861e-05
0.000142805
-0.000648139
0.000516751
0.000129046
-0.00011778
0.000148743
-3.09638e-05
6.54283e-05
7.99638e-05
7.11844e-05
3.99507e-05
0.000214407
-0.000173124
-4.12892e-05
0.000103247
3.03514e-05
-0.000133599
-0.00012745
-0.000475294
0.000596964
-9.31345e-05
0.000174284
6.80269e-05
-0.000175445
0.000107403
-0.000631914
0.000277058
0.000353547
-2.70203e-05
-0.0005244
8.16823e-05
2.94528e-05
-0.000111135
-0.000654544
0.000190661
0.000463149
-5.32686e-05
0.000226737
0.000414491
-0.000316124
-9.8726e-05
-8.45167e-05
0.000137511
-5.2994e-05
-0.000458055
-0.000191805
-0.000211918
1.42866e-05
-7.79849e-06
-0.000109982
0.000208289
-0.000112592
-9.57027e-05
-0.000119764
-8.87751e-06
0.000128641
-0.00037112
0.000454945
0.000140513
6.07642e-05
-0.000607903
0.000626725
-2.00816e-05
-0.000267867
-0.000365085
-0.000208244
9.34918e-05
0.000114744
-0.000130037
-7.82122e-05
-1.52028e-05
-0.000104561
-3.47922e-05
0.000188517
-0.000224479
-0.000380051
0.00060189
0.000133652
-0.000113982
-1.96705e-05
7.71238e-05
-0.000115351
3.82272e-05
0.000183428
0.000116682
-0.000300237
0.000652685
-0.000436926
-0.000217665
0.000104674
-0.000113552
-0.000178657
0.000388224
-0.000209876
-0.000223816
-0.000260009
0.000483005
2.99635e-05
0.000104765
0.000690808
-0.000118252
-0.000592888
-2.6753e-05
0.000192941
-0.000119784
0.000656732
-0.000543416
0.000333165
-0.000560167
0.000186865
4.28027e-06
-0.000191154
0.000392163
-0.000170728
-0.000102159
-2.71545e-05
0.000129313
-2.112e-05
0.000125794
-8.76351e-05
-6.48945e-05
0.000152529
-0.000431492
0.000270638
3.1815e-05
-0.000109477
7.76621e-05
-0.00059323
0.000578191
1.2632e-05
0.000105965
-8.69899e-05
-9.68399e-05
-0.000558083
0.000237229
-0.000450672
6.28324e-05
4.83027e-05
3.6244e-05
-0.000123879
0.000147371
-2.78621e-05
-0.000119509
-0.000139684
0.00019473
-5.50521e-05
0.000868805
-0.000355873
-0.000518033
-0.000129713
-0.000111778
0.000241472
6.79184e-05
4.44337e-05
-0.000112352
0.000243873
-0.00012744
-0.00011645
7.19132e-05
-0.000201642
0.000104245
-0.000286275
0.000182007
0.000271974
-3.92815e-05
-0.000232728
-0.000584669
0.000661598
-7.82012e-05
0.000230257
-0.000588423
0.000352499
0.000346357
-4.8513e-05
-0.000297967
0.000658487
-0.00043472
-3.01406e-05
0.000107264
0.000463237
-0.000227114
0.000154946
0.00048405
0.000430079
-0.000159503
-0.000270836
0.00053463
-0.000668379
0.000190752
4.29809e-06
-0.000195066
-0.00028764
0.000197065
9.05121e-05
0.000141417
7.53291e-05
-0.000216767
0.000282638
0.000131416
0.000643559
-0.000273951
-0.000383684
5.81987e-05
-0.000174641
-9.58083e-05
-1.07651e-05
2.91656e-05
0.000104486
0.000217879
-4.28216e-05
-0.000175069
-0.000702705
6.01717e-05
0.000634734
0.000364845
0.000121961
-0.000488752
-0.000105088
0.000138269
-3.31819e-05
0.000212697
-2.55164e-05
-0.00018719
-0.000197592
1.43131e-05
0.000183276
0.000251817
0.000611496
-0.000296398
0.000209703
8.66188e-05
7.72302e-05
-0.00014075
6.352e-05
0.000322821
-0.000300756
-2.21918e-05
0.000159538
-0.000451394
-0.000409247
-3.35239e-05
0.000442452
9.33938e-05
9.2969e-05
8.53713e-05
-0.000146579
-0.000269378
8.49438e-05
0.000141824
-6.64253e-05
-7.5399e-05
0.000201617
4.4423e-05
-0.000109318
0.000345202
-0.000137677
-0.000207571
-0.000218644
0.000375175
-0.00015668
-3.83963e-05
0.000225252
-0.00010648
-0.000386465
0.000492222
-0.00065402
5.89644e-05
2.1899e-05
-0.000169374
0.000147467
0.000194831
-0.000104721
-9.01132e-05
0.000540477
-0.000291482
-0.000249839
5.90123e-05
0.000610863
-8.91206e-05
4.51026e-05
7.11676e-05
-0.00011627
-0.000242121
-5.43302e-05
0.000186768
-0.000114868
-5.93491e-05
0.000250083
-0.000192324
-9.53695e-05
-9.94123e-05
-0.000111049
0.000210451
-0.000438903
0.000623908
-0.000185634
0.000667958
-0.00057183
-9.68948e-05
0.000480078
-0.000509716
2.07002e-05
-2.49578e-06
-0.000108624
1.58855e-05
-0.000216306
0.000200306
0.000547598
-0.000291476
-0.000257162
-6.00095e-05
5.484e-05
-1.2808e-06
-0.000108793
-4.0851e-05
0.000149644
3.92646e-06
0.000342296
0.000220554
-0.000152548
0.000113572
-7.23742e-05
0.000104817
-0.000126175
2.13577e-05
-4.88512e-05
0.000153668
-4.55575e-05
0.00012724
0.000282076
0.000147712
8.12031e-05
6.55038e-05
-0.000146708
-5.04876e-05
-0.000382269
0.000425872
0.0001223
0.000502179
-0.000128358
-0.000172908
0.000301182
2.97712e-05
-7.21618e-05
2.44349e-05
1.36406e-05
0.00013373
-0.000145554
0.000200938
-5.53905e-05
0.000172498
2.59176e-05
-0.00019843
0.00058355
-0.000478218
-0.000232699
-0.000159751
0.000392146
-5.7515e-05
0.000229997
-7.0548e-06
0.000219741
7.47165e-05
-0.000402567
0.0001444
0.000257867
-8.17113e-05
0.000404352
3.78173e-05
7.33179e-05
0.000104025
-5.89225e-05
0.000165921
-0.000204798
0.000412203
-0.000353525
-5.87562e-05
0.000397495
-0.000640797
0.000242578
0.000771061
-0.000614444
-0.000165466
0.000110422
8.44056e-05
-0.000293314
0.000309031
-8.57209e-06
-9.71266e-05
0.000393726
-0.000422214
0.000215338
0.000324238
-8.80367e-05
-0.000151535
0.000239553
-2.2493e-06
0.000168154
0.00051611
-0.000634935
0.00011558
-0.000666123
0.00010568
0.00055732
-0.000269181
0.000129424
0.000139749
-0.000140151
-7.03001e-05
0.000210442
-0.000148281
5.23894e-05
9.58914e-05
-8.99055e-05
-5.82081e-05
0.000148113
0.000364761
-0.000171855
0.000127011
-0.000112112
-1.48992e-05
-0.000119087
-2.91944e-05
0.000275324
0.000193658
-0.000469075
-0.000306063
-3.50544e-05
0.000340986
-5.84502e-05
0.000133566
-7.51158e-05
0.000365378
-0.000460815
9.48417e-05
0.00020333
-1.50223e-06
-0.000201845
-0.000145297
0.000508284
-0.000178556
-5.84365e-06
0.000201107
-0.000197882
0.000313086
-1.17526e-05
-0.000301453
0.00011719
0.00030778
-0.000425575
-0.000576249
0.000548742
0.000204591
-0.000103299
-0.000101301
-0.000635611
0.000630207
2.23977e-06
3.24397e-05
7.23548e-05
0.000497818
6.73184e-05
-0.000149386
-9.04083e-05
0.000239773
1.85335e-05
-0.000120692
-9.59634e-05
-5.18096e-05
0.000147773
-0.000386486
0.000120162
0.000266232
3.63904e-06
-0.000309823
-7.19023e-06
9.35297e-05
-8.9714e-05
0.00019013
-0.00016824
-0.000646463
6.84699e-05
0.000571357
0.000385503
0.000150701
-0.000119467
-3.12343e-05
0.000296444
0.000115644
0.000482023
-0.000117425
2.68001e-05
0.00053934
-0.00012511
3.52039e-05
-0.00068688
0.000541718
7.47007e-05
6.46153e-05
-6.21332e-05
-7.30207e-05
0.000135154
0.000116445
0.000127407
-6.09486e-05
-2.49998e-06
0.000173749
6.3288e-06
-0.000180082
-0.000102503
-1.51814e-05
0.000117684
0.000157671
-5.44248e-05
0.000234247
-0.000324747
-0.000115348
0.000439795
0.000144456
1.74109e-05
-0.000161872
9.87038e-05
0.000105877
-0.00038716
0.000154168
5.74803e-05
0.000137242
-0.000201534
-0.000191767
0.00039307
0.000135806
-4.4804e-05
-9.1002e-05
-0.000223171
-2.96162e-05
0.000252766
0.000116617
-5.04272e-05
-0.000108144
-0.000477424
0.000387759
8.89909e-05
-0.00019983
1.77337e-05
-0.000126527
-0.000113368
0.000137736
-2.43678e-05
0.000277011
0.000485247
4.30783e-06
-0.000578388
0.000574117
2.54842e-06
-0.00011061
-9.70487e-05
0.000207647
-0.000165421
-6.44622e-05
0.000229872
-0.000280795
-0.000197064
0.000304313
-0.000300505
-9.84237e-06
-0.000213348
-0.000763805
0.000204411
0.0005568
0.000250437
-0.000146208
3.45776e-05
-0.000202802
0.0001682
-0.000123238
-7.61603e-05
0.000199394
-0.000157831
0.000630428
-0.000476827
-1.76519e-05
-0.000558948
-9.01184e-05
-0.00013029
-1.79772e-05
0.000148267
0.000107192
-0.000123191
1.59987e-05
-0.000210983
0.000322007
-0.000111141
-0.000210924
-0.000498272
0.000176956
-0.000184019
-9.60704e-05
-0.000110731
0.000206792
-0.000164996
-9.7091e-05
0.00026206
-4.97077e-05
0.000353885
-7.9683e-09
-0.000130283
7.64621e-05
3.4673e-05
-0.000111135
0.000423739
-2.8635e-05
-0.00039555
0.000399465
-0.000336359
-6.33254e-05
9.42889e-05
5.47791e-05
-0.00014907
0.00084137
-0.000567234
-0.000280456
-0.000462826
0.000444041
1.02402e-05
2.94391e-05
-0.000194454
-0.000317174
0.000163193
0.000153901
4.57787e-05
-0.000606154
0.000550011
0.00015688
-0.000207522
4.53923e-05
-0.000188459
-0.000463695
-4.6526e-05
-4.0384e-05
5.72508e-05
0.000429927
-0.000297664
-0.000132561
8.31411e-06
-6.78715e-05
0.000121356
-0.000276251
-0.000122415
0.000670447
-0.000163747
-0.000509396
-0.00012211
-1.46815e-05
-9.04061e-05
-0.000618598
0.000435907
0.000181894
-0.000208373
9.32984e-05
-0.000111135
1.78368e-05
-0.00047687
0.000369757
-0.00051244
-0.000106622
-5.10074e-05
-0.00022539
-0.000102602
-2.56978e-05
0.0001283
0.000119493
-0.000138635
1.91415e-05
7.93888e-05
-0.000266133
0.000186675
3.69817e-05
-9.88502e-05
-7.74522e-05
0.000158654
-0.000427994
0.000145214
0.000121503
-0.000266774
-2.6335e-05
0.000119633
-0.000150166
-4.26895e-05
0.000192852
0.00014294
0.000403194
-4.17818e-05
0.000136068
-0.000210147
0.000114245
9.58973e-05
-0.000141194
5.51324e-06
0.000135681
-0.000132819
0.000228743
-9.59406e-05
0.000299078
-0.000122021
-0.00017707
5.14209e-05
9.04029e-05
-8.00573e-05
0.000160205
-8.01475e-05
0.000161258
-9.83707e-05
-0.000220187
-0.000448648
-0.000124043
4.1347e-05
8.26955e-05
5.72256e-05
5.39095e-05
0.000139473
-0.000136901
-2.57204e-06
3.13852e-06
0.000136333
-4.51335e-05
0.000320438
-0.000134393
0.000295692
-0.000161371
-0.000422866
0.00015931
0.000263355
9.82562e-05
-6.64412e-05
0.000306002
-0.00013447
-0.000171548
0.000198217
-0.000199928
-3.05832e-05
-0.000277491
0.000139117
0.0004661
-0.000112125
-0.000354398
-0.000117795
-2.3399e-05
0.000114725
0.000146981
0.000686906
-0.000123826
-0.00041109
0.000294514
0.000116397
-8.03677e-05
-0.000329139
-0.000366761
7.43315e-05
3.70707e-07
-0.000102973
-4.89296e-05
0.000225875
-0.00020482
0.000530934
-0.000414524
0.000390282
9.09545e-05
8.20645e-05
4.48412e-05
-0.000126906
-0.000188635
0.000585455
-0.000195492
0.000446474
-2.33015e-05
0.000214148
-0.000265297
-0.00010061
-0.000310648
-2.01047e-06
3.17441e-05
0.000635425
0.000223006
-1.38129e-05
-0.000209211
-0.00021436
8.69054e-05
-0.000178526
-4.77396e-05
0.000226246
-0.000116757
-6.77936e-05
0.000149858
9.39686e-05
-0.000386026
-0.000120341
4.78184e-05
0.000144967
-0.000192796
-0.000668637
1.52243e-05
0.000642644
1.48999e-05
-0.000165069
0.000262094
-2.04115e-05
-0.000241718
-6.72637e-05
0.000135182
0.000288364
0.000177209
7.06026e-05
-0.000257844
9.3549e-05
0.000114734
8.52119e-05
8.33138e-05
-0.000168529
-0.000198826
-4.86074e-05
0.000247412
-5.85867e-05
-6.27725e-05
0.000121359
0.000277281
0.000170547
-0.000449163
-0.000152085
6.52607e-06
0.000130468
-5.92834e-05
-0.000430167
0.000170699
0.000259112
6.25133e-05
7.32927e-05
0.000406559
-0.000287037
-0.000119803
3.04376e-05
-0.000129619
9.91808e-05
0.000303064
9.61017e-05
0.000339377
-0.000175545
-0.000204024
-4.40075e-05
0.00024801
0.000231649
-6.7642e-05
-0.000164016
0.000195305
0.000471946
-2.41288e-05
-0.000395169
0.000418652
-0.00019139
-0.000125847
-0.000338675
0.000523034
-0.000573875
4.66096e-05
-0.000270628
5.95395e-05
0.000149526
-0.000145907
-3.61986e-06
0.000332964
0.000318356
-0.000362437
0.00032725
-0.000101943
-1.81882e-05
0.000120131
-0.000502747
7.19198e-05
0.000429796
-0.000183691
0.00011365
7.00385e-05
0.000261576
2.584e-05
-0.000287543
0.000154727
-3.52346e-05
-0.000355284
-0.000106114
0.00016563
0.000145201
-4.18127e-05
0.000168822
-0.000190946
-0.000253961
-0.000101306
0.000355135
1.34105e-07
-0.000113502
-0.000123623
-8.09837e-06
0.000181843
-0.000325511
-0.000440915
-9.74557e-06
0.000232732
0.00038808
-4.91866e-05
-0.000339144
-0.000207499
0.00027804
-7.83292e-05
0.000614363
-0.000542526
5.55675e-05
5.55675e-05
0.000156796
-7.3053e-05
-8.37439e-05
0.000151952
6.22243e-06
-0.000158177
0.00046298
-7.34712e-05
-0.000213885
-0.000144766
-6.01093e-05
0.000204869
-1.73534e-05
0.000124546
-0.000193137
0.00062588
-0.000448167
-3.86935e-05
-8.53491e-05
-0.000146288
-7.44956e-05
0.000220773
8.61224e-05
-0.000136135
5.00124e-05
0.000111793
-0.000313514
0.000199681
-0.000142803
-5.68817e-05
0.000629768
-0.000435703
-0.000195429
-1.95433e-05
3.19029e-05
-0.000111135
2.66184e-05
-9.3876e-05
0.000179314
-8.54433e-05
0.000589015
-0.000467177
0.00012054
-0.000333086
-6.52857e-05
-0.000297271
0.000607952
-0.000173064
-0.000452033
7.16464e-05
8.51485e-05
-0.000265471
0.000131013
-5.3466e-06
0.000267402
0.000322924
0.000100622
-0.000424231
0.000503356
-0.000227724
-0.000373806
-0.000207229
0.000581008
-9.55597e-05
0.000180768
-0.000763303
0.000596304
-0.00059021
0.000216469
-0.000181268
6.73763e-05
0.00011389
-9.18779e-06
0.000158712
-0.000283089
0.000442118
-0.000199544
8.38744e-05
0.000115662
-0.000563396
-4.44723e-05
-1.16566e-05
0.000446181
-0.000131783
-0.000371934
-0.00020816
0.000251897
6.31727e-05
-0.00031521
0.000437187
-0.000594409
0.000153928
-3.8202e-05
0.000483154
-0.000446463
0.000142709
7.51593e-05
0.000611679
-0.000185572
-0.000427721
7.97431e-05
4.83439e-05
-0.000128088
0.000579495
-0.000365898
-0.000223252
-0.000388102
0.000445978
-5.84468e-05
-0.000107245
0.000137596
0.000360554
-0.000202987
-0.000157645
0.000171897
2.20285e-05
-0.000233754
-3.23202e-05
0.000421482
-0.000395282
-0.000142347
0.000464597
-0.000230164
0.000632805
-0.000405408
0.000187602
-4.63969e-05
-0.00014121
9.00278e-05
5.86528e-05
-0.000148682
2.64171e-05
-0.00035142
3.26254e-05
-9.62859e-05
6.36605e-05
0.000330265
-0.000555861
4.05004e-05
0.000509455
-9.78282e-05
-3.31908e-05
0.000131019
-0.000106001
-0.000102549
-0.000193141
0.000295621
0.000237611
0.000302034
-0.000541517
5.8212e-05
0.000103445
0.000241703
-1.59164e-05
0.000125049
-0.000109134
-0.00010901
-0.000476694
-0.000318534
0.000442743
-0.000124519
-0.000212657
0.000119868
0.000231698
-0.000351822
7.42104e-05
8.5994e-05
9.69164e-06
-0.000154463
-3.50258e-05
0.000186974
-0.000169358
0.000375446
-0.000206487
-0.000192183
-0.000687772
0.000633029
5.16023e-05
-0.000120132
-0.000121055
0.000382475
0.000137921
-0.000140184
-6.06256e-05
0.000448395
0.000306275
0.000182867
0.000177578
0.000167252
2.81886e-05
-7.54347e-05
5.00723e-05
6.29814e-05
-0.000113054
-0.000120033
2.22045e-05
0.000159929
-8.01874e-05
7.46009e-05
-0.000107026
3.2425e-05
-9.12425e-05
0.000118838
-1.80485e-05
-0.000100789
-0.000175202
-0.000144771
0.000400831
-0.000256195
4.2275e-06
-0.000299852
0.000293127
-0.000134044
-4.96488e-05
-0.000614132
-7.15902e-05
-9.17873e-05
0.000610232
-0.00036493
0.000120841
0.000243988
-0.00013612
-5.75843e-06
0.000141878
0.000509315
-0.000449236
-6.11861e-05
0.0003171
0.000185771
-0.00050348
-7.51484e-06
0.000175459
-0.000167969
0.00018893
-0.000295744
0.000106715
1.96429e-05
0.00050892
-0.000528959
-0.000136953
0.00016212
-2.51684e-05
-0.000229972
-0.00037743
0.00060269
-6.1661e-05
-7.68582e-05
0.000138519
-1.71892e-05
0.000204786
-0.00056758
0.000442302
-1.16878e-05
0.000448362
-0.000437933
-9.26482e-05
-0.000109739
0.000202378
-0.000165931
-0.000653178
0.00013252
1.81712e-05
-0.000150694
-0.000148151
1.41047e-05
-0.000739935
0.000109876
0.000621115
-7.32424e-05
-6.44969e-05
0.000137739
0.00019947
-8.58567e-05
-0.00011819
-0.000108333
0.000226504
-0.000404976
0.000235138
0.000170034
-0.00010266
-7.7302e-05
0.000133673
-5.63706e-05
-0.000284103
-0.000462732
0.000217785
-0.000149985
-6.78081e-05
-0.000114072
-0.000511188
0.000622442
-0.000590351
-0.000131084
-4.21713e-05
0.000173253
0.000110421
-7.99834e-05
-0.000117993
-0.000240335
0.000358118
-8.60242e-05
0.000337772
0.000588313
-4.00574e-05
-0.000549075
0.000234807
2.94264e-05
-0.000264309
-6.46693e-05
0.000141899
-9.54371e-05
-4.072e-05
0.000136157
-0.000559691
-6.88303e-05
0.00062213
3.55704e-05
6.31537e-05
-9.87241e-05
-0.000140975
-0.000496369
-0.000302593
-0.000320889
-0.00012194
0.000442377
0.000381828
-0.000589159
-0.000472853
0.000212176
-4.8095e-05
-9.20011e-05
0.000140096
0.000101073
0.000130564
-0.000121338
0.000463252
4.48102e-05
0.000580916
-8.67026e-06
-0.000109914
-4.071e-05
0.000150624
-0.000402053
0.000315827
8.21143e-05
-0.000200417
0.000252336
-5.19385e-05
-0.000382779
-2.54153e-05
0.0004076
-0.000157909
-0.000237489
0.000395086
-0.00022781
0.00044225
-0.000214743
-8.75563e-05
-5.79744e-05
0.00014553
-5.10338e-05
0.000127496
-0.000424335
3.67559e-05
0.000386954
4.74339e-05
8.30338e-05
-0.000548709
0.000446374
0.000100754
-0.000317784
0.000182469
0.000135244
-8.12221e-05
0.00014665
7.87619e-05
5.87488e-05
0.000377815
0.000167271
-0.000547278
-0.000485532
0.000249181
2.27724e-05
1.51062e-05
-0.000107108
-0.000210745
8.63064e-05
0.000124431
0.000300069
-6.53485e-05
0.000100976
-0.000116893
3.28083e-05
-0.000354114
0.000423841
-0.000121052
9.79615e-05
5.27391e-05
-9.26033e-05
0.000171222
-7.862e-05
0.000201335
3.12225e-05
-0.000232576
6.31996e-05
-0.000124861
0.000200999
-2.94687e-06
-0.000198064
-0.000137939
8.06071e-05
5.7331e-05
-0.000144314
-0.000376488
0.000518995
4.94721e-05
-0.000162068
0.000113512
8.61647e-05
-2.82248e-05
0.000497779
-0.000475162
-5.334e-05
0.000116172
-8.39202e-05
0.00016585
-8.19305e-05
-0.000120761
-0.000300494
6.73144e-06
0.000513579
-0.000522394
-8.63022e-05
0.000118928
0.000181797
6.02194e-05
-0.000242057
0.000113517
2.48069e-05
-0.000138325
-0.0003385
-0.000427514
-4.47235e-05
5.40548e-05
-2.36805e-05
0.00034198
7.01351e-05
-0.000412209
-0.000144051
0.000332867
0.000102827
0.000466339
-0.000122479
2.7355e-05
-8.62673e-05
-6.55245e-06
0.00020754
0.00028872
0.00015147
-0.000440602
-0.0002568
4.92459e-05
0.000291197
0.000368798
-0.0004046
0.000423931
-0.000279709
0.000353653
-7.40501e-05
0.00010642
-7.085e-05
-0.00019865
-0.000148473
0.000346993
-0.000118235
-0.000352314
-0.000523938
-8.76318e-06
0.000518833
0.000476244
-0.000592358
0.000108843
-0.00029506
0.000122071
0.000375549
-0.000415041
0.000249569
-1.08227e-05
-0.000238778
2.47251e-05
0.000415619
-0.000441255
0.000172109
-0.000274725
-0.000147989
0.000197456
0.000389551
-1.59419e-05
-0.000375616
-7.58666e-05
-4.84664e-05
0.000124333
-0.000138674
0.000128409
-5.02933e-05
-0.000212254
0.000262513
-7.38921e-05
0.000121326
-0.00011312
0.000154489
-4.13689e-05
0.000340468
0.000161808
-4.82927e-05
0.000185412
-0.000192955
-0.000135898
-9.1649e-05
0.000227535
4.7826e-05
-0.000131747
0.000648535
-9.20919e-05
-0.000561968
-2.88027e-05
-0.000108151
-0.000128524
-0.000248306
-0.00018218
0.000134123
-5.95223e-05
-0.000197923
0.000116741
8.11773e-05
-0.000190962
-0.000485571
-1.34066e-05
0.00026294
0.000588094
-7.51246e-05
-8.19798e-05
-5.59591e-05
3.55915e-05
-0.00010387
6.82788e-05
0.000683272
-0.000323373
-0.000361643
-8.06695e-05
-0.000116969
0.000170272
-5.33045e-05
2.16928e-05
0.000111897
-0.000136679
-0.000149925
0.000168994
2.41526e-05
-0.000213884
3.70192e-05
-0.000112886
-0.000103522
-6.72134e-05
0.000170733
-0.000135625
-0.000377087
-0.000169881
-7.91043e-05
0.000248965
0.000474236
0.000135709
0.000394665
0.000192459
-0.000587779
0.000177611
-1.50952e-05
-0.00016252
-0.000213907
7.33054e-05
0.000145279
-0.000218604
-0.000647688
0.000490673
0.000137053
0.000164215
-0.000129655
-0.000172712
0.000283453
-0.000110798
-0.000302273
0.000128722
0.000173465
-0.000245463
0.000455857
-0.000210599
-0.000290036
0.000504504
-9.58467e-05
0.000277596
7.73369e-05
0.000264549
9.31909e-05
0.000127342
0.000336647
-0.000153346
-0.000199906
0.000316464
-4.00992e-05
0.000241411
-2.88339e-05
0.000153881
0.000178878
-0.000104833
0.000151174
-2.28607e-05
-0.000128314
0.000183579
-5.10615e-05
-6.67775e-06
0.000193434
8.40506e-05
-0.000133817
4.97664e-05
0.000375492
-0.000278871
-9.67421e-05
-0.000150622
1.95359e-05
-0.000208616
-0.000615993
0.000475882
0.000135859
0.000269127
0.000154408
4.17764e-05
0.000137092
0.000449493
-0.000196577
-0.000253355
0.000623156
2.66318e-05
-6.82947e-06
-0.000586887
0.000586771
-0.000169635
-9.66754e-05
0.000266276
-0.00011253
5.39435e-05
4.17012e-05
-0.000430314
5.01406e-05
-0.000123162
-0.000566094
2.72587e-05
-0.0001592
5.56752e-05
0.000191263
-8.84479e-06
-0.000182432
8.48001e-05
-0.000111135
-0.000260438
0.000246997
-0.000420445
6.46107e-05
-0.000434151
0.000450771
0.000135201
-5.0401e-05
0.000196192
-0.000122901
0.000136618
0.000238729
-0.00015399
0.000232856
0.000268495
4.91928e-05
0.000121057
-0.000170253
-0.000219958
-0.000216929
0.000210364
-0.000219627
0.000429392
-0.000210064
0.000113796
7.04843e-05
-0.000184287
0.000361162
0.000267456
-0.000147003
0.000516471
-0.000322962
-0.000303078
0.000697041
-5.71429e-05
0.000140368
-8.3225e-05
3.08679e-05
-0.000100585
-3.31175e-05
0.000210722
-0.000127892
-2.95124e-05
-0.000230957
-8.8184e-05
-4.61536e-05
0.000134337
0.00010167
-5.7236e-05
-2.48932e-05
-0.000192047
-0.000185012
4.91043e-05
0.000148823
0.000191599
0.000426508
-0.000539341
0.000521362
0.000744085
-0.000371853
-0.000389383
0.000586757
-0.00011805
-5.90648e-05
0.000154042
0.000131181
-0.000285291
0.000263542
-0.00018373
-7.98318e-05
0.000103816
-0.000276573
0.00017456
-7.27548e-05
0.000351714
-0.000481978
0.000129326
-0.000126322
-5.42396e-05
5.42396e-05
5.99594e-05
7.97661e-05
-0.00034094
0.000152006
0.000188792
-7.59437e-05
2.0195e-05
0.0005308
-0.000530761
-5.10123e-07
-0.000127951
-1.58344e-05
0.000143785
-0.00045847
5.58952e-05
0.00017993
-0.000141606
-3.83257e-05
-0.000114082
0.000161907
0.000158749
0.000249847
-2.624e-05
-0.000223654
-0.000611354
0.000616413
-1.33544e-05
-0.000145423
6.41927e-05
0.000468853
-0.000205349
-0.000263939
-0.000480238
2.99443e-05
-0.000163089
-0.000426369
0.000426673
-9.13881e-07
-0.00056996
0.000182679
0.000664928
-0.000480345
-0.000189311
0.000336656
-0.000176698
-0.000160094
-8.28926e-05
-4.65021e-05
0.000129395
-0.000453447
0.000191597
0.000261458
-0.000127005
-0.000293611
0.000420329
3.242e-05
-0.000178717
2.68399e-05
-0.000122277
-0.000186263
-0.000167304
0.000433257
-0.000220418
-0.000213141
-7.02262e-05
0.000152235
-8.20095e-05
0.000330772
0.000394464
9.55134e-05
-0.000133406
0.000128269
-4.18945e-06
-0.000508277
0.00032133
-0.000135273
0.000182118
-4.68487e-05
-0.000278676
1.34e-05
0.00026523
0.0002548
-0.000113406
0.000167025
-0.000253649
8.65912e-05
-0.000300072
-0.000115892
-0.000204301
0.000319108
-4.78703e-05
4.78703e-05
-0.00017897
-0.000138875
0.000355384
-0.000501494
-0.000216364
0.000100245
0.000216788
0.000192227
-0.000409541
0.000179233
-0.000183539
4.29682e-06
0.000360189
4.37654e-05
-0.000417981
-9.58788e-05
-0.00011391
0.000209778
0.000162839
-5.55933e-05
-0.00014842
0.000204011
0.000249657
-8.26647e-05
-0.000151997
0.000107083
4.49138e-05
-0.000304615
0.0001669
-4.222e-07
-0.000162657
-8.96033e-05
0.000252239
-0.000149125
0.000543748
-0.000406795
-0.000384592
0.000359877
0.000176296
-2.51236e-05
-0.000109014
0.000153854
-0.000121407
6.16212e-05
9.06134e-05
-0.000669735
8.9272e-05
0.000578111
0.000256954
0.000424281
-3.1186e-05
-0.00018323
0.000214384
-0.000201349
-0.000287775
0.000488263
-0.00063736
0.000647067
-1.65794e-05
-0.000131892
6.5008e-05
8.31758e-05
-0.000193797
-0.000118631
4.84669e-05
7.01643e-05
-0.000214201
-3.21549e-05
-0.000246562
0.000330735
0.000255102
-0.000586464
-0.000629419
0.000150147
9.06386e-05
7.88634e-05
-0.000169504
-0.000255993
0.00025061
-4.62431e-05
-0.000181094
0.000209114
-2.87921e-05
0.000184906
-0.000109593
-0.000105761
0.000220036
-0.00011429
-7.94783e-05
0.000148469
-0.00058788
3.74688e-06
0.000269894
-0.000283026
2.88461e-05
-0.000111739
0.000231808
-0.000477488
0.000413235
-0.000245788
-0.000167731
0.000495149
9.26775e-05
-0.00011776
-2.58388e-05
0.000143599
1.00794e-05
7.05098e-05
-4.05592e-05
0.000123593
0.000547039
-0.000613814
6.5174e-05
0.000239917
-0.000123492
-0.000163267
-0.000193842
0.000356915
4.31925e-05
0.000176127
-0.00021935
-0.000346877
0.000111216
-0.000550018
-0.000109945
0.000412443
-0.00030324
-9.50596e-05
-0.000274022
0.000350671
0.000195659
-0.000131365
-6.42996e-05
-0.000548871
0.000207505
0.000340904
5.45576e-05
8.31782e-05
-0.000511719
0.000277144
0.000233189
1.43336e-05
-0.000149046
0.00013471
0.000145194
-9.63419e-05
-4.88523e-05
-0.000395611
0.000165017
0.000230293
0.000292863
-9.7817e-05
-0.000213781
0.000148326
-8.95612e-05
-5.87653e-05
-9.64985e-05
0.000156959
-6.04617e-05
-7.7213e-05
-0.000347666
-0.000256494
0.000269849
-0.000579656
3.97101e-05
8.4771e-05
-0.000111135
2.63641e-05
-0.00011056
-0.000509444
0.000159378
-0.000117608
-0.000108916
0.000585648
-0.000481663
0.000185556
-0.000294679
2.34367e-05
0.000156491
-0.000343398
0.000408689
-0.00044693
-3.76395e-05
-0.000278748
0.000130852
-8.49155e-05
-4.59363e-05
-0.00015049
7.67129e-05
7.37761e-05
3.09385e-05
-0.000147909
0.000767635
-0.000499649
0.00012723
-4.31797e-05
-0.000567969
0.000406529
-9.23811e-06
0.000351836
0.000249423
0.000373667
-0.000117785
-0.000192773
0.00021737
1.74113e-05
-0.000237334
-7.3242e-05
0.000156578
-8.3337e-05
-8.60582e-05
0.000167251
-8.11939e-05
-0.000122868
-0.000515386
-9.01184e-05
-1.02476e-05
0.000240477
-0.00035867
0.000548819
-1.74916e-05
5.32783e-05
9.50479e-05
-0.000211283
-6.93158e-05
-8.55499e-05
0.000136971
0.000247083
-0.000357709
-0.00010963
0.000475394
-0.000509008
0.000354555
-0.00020037
0.000228473
-3.72294e-05
0.000706067
-6.39582e-05
-0.000128519
-1.07797e-05
-0.000148847
-5.33386e-05
0.000202181
9.99838e-05
-6.43923e-05
-7.78906e-05
0.000327672
-6.38364e-05
8.13889e-05
-0.000249351
0.000167893
0.000121251
0.000503159
-0.000155029
0.000353531
-0.000198664
-1.20039e-05
-0.000244531
6.68213e-05
4.58144e-05
-0.000112636
0.000263709
0.000165895
0.000101905
-0.000178894
7.69857e-05
-2.28685e-05
-0.000233158
0.000209254
-5.69535e-05
-0.000104446
0.000142812
-3.83668e-05
-0.000118335
1.3889e-05
-0.000118128
7.61267e-05
4.20012e-05
-8.75049e-05
-0.00010256
-6.17604e-05
0.000164317
0.000464204
-8.91849e-05
-9.82573e-06
0.000154278
0.00019895
-0.000110325
-8.86286e-05
0.000186465
0.000262532
6.17217e-05
0.000103666
0.000106599
1.8164e-05
-0.000124764
0.00033045
0.000143922
-0.000475354
8.09854e-05
0.000191958
0.0006003
-0.000224589
-0.000227787
0.000557084
-0.000123519
8.84118e-05
0.000624427
-4.85383e-05
-0.000583895
-0.000340785
0.000185599
-0.000103243
0.000121777
-0.000508632
0.000441033
6.65091e-05
0.000136284
-6.29665e-05
-0.000468256
0.000128105
0.000339754
-0.000262139
0.000123298
0.000138799
0.000151736
-0.000109288
-4.24487e-05
-0.00041665
-9.37536e-05
-0.000116999
-4.69225e-05
-0.000236482
0.000283134
-0.000167297
-0.00022859
-9.66193e-05
-5.38706e-05
0.000494617
-0.000182439
0.000229642
-4.72126e-05
-0.00013673
9.35507e-05
3.73006e-05
0.000610253
-0.000128151
-0.000485161
-0.000119117
5.69867e-05
6.21301e-05
0.000434909
-0.000264571
-4.82316e-05
0.000116897
-6.86654e-05
5.01187e-05
6.36431e-05
-0.000113762
-5.9648e-05
-5.94689e-05
-0.00038204
0.000234487
0.000147405
-0.000589463
0.000473209
0.000114686
-0.000523359
-0.000148706
-0.000115246
-2.6441e-05
0.00013882
0.000170482
-0.000150603
0.000603792
-0.000455179
-6.65402e-05
-0.0002623
0.00040639
-0.000405855
0.000150998
0.000254694
-0.000310522
0.000124235
0.00034408
0.000119589
0.000186768
0.000571232
0.000459194
-0.00027502
-0.000184816
-0.000198227
-0.000281198
0.000478968
0.000342048
-0.000354729
-0.000366544
-6.53632e-05
0.000108916
-0.000138656
2.97395e-05
0.000197559
-0.000113852
-8.37129e-05
-0.000414654
0.0002591
0.000155172
-0.000191526
0.000298985
-0.000107547
-6.73834e-05
0.000173981
-0.00025358
0.000126365
-0.000120852
-0.000219393
0.000531521
-0.000145157
0.000368273
-0.000223309
-0.00040334
-0.000145865
0.000629534
-0.000152854
-0.000480414
-0.00026046
-7.25083e-05
0.00033286
-0.000534831
-2.64445e-05
0.000649282
-3.42116e-05
0.000193463
0.000105595
-0.000523391
-4.89018e-05
-2.52233e-05
0.000204448
-9.21676e-05
0.000466329
-5.77951e-05
0.000110671
-5.28756e-05
-0.00010942
-7.64156e-05
0.000185831
-0.000201857
8.08591e-05
0.000120988
0.00012952
8.8256e-05
-0.000606748
8.92665e-05
0.000514036
-0.000128904
0.000104729
0.000109015
-0.00021376
-1.05442e-05
-0.00039519
0.000520808
-0.000335689
0.000146321
-1.99561e-05
0.000234666
0.000206005
-0.000440975
0.000211124
0.000172947
-0.000158051
2.81022e-05
-0.000130045
-6.53645e-05
-0.000219951
0.000285271
-0.000570845
0.000497585
7.04756e-05
7.01139e-05
0.000201642
-2.86992e-05
-0.000144733
-0.000296351
0.000249144
0.000502307
-0.000524455
-0.000523992