/*--------------------------------*- C++ -*----------------------------------*\
| =========                 |                                                 |
| \\      /  F ield         | OpenFOAM: The Open Source CFD Toolbox           |
|  \\    /   O peration     | Version:  v2012                                 |
|   \\  /    A nd           | Website:  www.openfoam.com                      |
|    \\/     M anipulation  |                                                 |
\*---------------------------------------------------------------------------*/
FoamFile
{
    version     2.0;
    format      ascii;
    class       volVectorField;
    location    "150";
    object      ddtCorrDdt0(U);
}
// * * * * * * * * * * * * * * * * * * * * * * * * * * * * * * * * * * * * * //

dimensions      [0 1 -2 0 0 0 0];


internalField   nonuniform List<vector> 
13851
(
(0.00648571 -0.00717729 4.56309e-17)
(-0.00056555 -0.000544556 -9.79295e-18)
(-0.000539234 -0.000544042 2.59051e-18)
(0.00200005 0.00297381 1.6929e-18)
(-3.38732e-05 -2.0108e-06 1.03813e-18)
(-0.00081843 -0.000361074 4.78343e-18)
(6.1613e-05 -0.000339874 6.14317e-18)
(-4.46922e-05 1.85822e-06 2.58588e-19)
(-0.0192034 -0.00312091 3.25976e-18)
(-4.55445e-05 0.000283709 -4.29013e-18)
(-0.00155329 0.00155583 -9.71451e-18)
(-4.9039e-05 -4.53061e-05 -2.31016e-18)
(-0.000111977 0.000436231 -5.25419e-18)
(-0.0222059 -0.00195831 -1.19718e-17)
(-0.000181097 -0.00153236 1.25927e-17)
(-0.00484643 0.00705869 -9.7487e-19)
(-0.0120298 8.58362e-05 -2.03692e-17)
(-0.000265703 -1.19217e-05 5.71799e-18)
(-0.0226783 -0.00265034 4.11208e-17)
(0.00572887 -0.00751616 -4.19164e-17)
(-0.00059236 -0.00196338 3.08877e-18)
(-0.00059818 0.000561474 -1.1675e-18)
(-0.00732557 -0.000256222 4.47999e-17)
(-5.65325e-06 1.56709e-05 1.65468e-18)
(0.0174001 -0.00933789 -2.27415e-17)
(-0.00134908 0.000278905 -1.00119e-17)
(0.00677995 0.0067553 1.31896e-17)
(-0.00957908 -0.0357729 -2.15176e-17)
(-0.0166456 0.00972089 5.52186e-18)
(-0.000127773 5.7817e-05 -2.49366e-19)
(-0.00961485 -0.00840431 2.43134e-17)
(6.0719e-05 -0.000365179 -3.0972e-18)
(0.00692013 -0.00410698 1.86478e-17)
(-0.0126323 -0.0120781 -6.87385e-19)
(-0.00147161 0.000670453 8.05755e-19)
(-0.0121407 0.0128859 -4.03417e-18)
(-3.29056e-06 1.42948e-05 -1.45522e-18)
(0.0149621 0.0117593 -4.79015e-17)
(0.000685262 0.00227296 -4.265e-17)
(-0.000239206 3.99478e-05 3.02949e-18)
(0.0115311 -0.0151064 -1.14856e-17)
(-0.0146675 0.0104135 -5.22196e-19)
(-0.00745272 -0.0011575 -6.43016e-18)
(-0.000778163 0.000865345 1.32119e-17)
(-0.0139294 0.00617657 -3.30642e-18)
(-0.00019115 -5.14385e-05 -2.03877e-19)
(3.5604e-05 -1.21611e-05 6.23923e-19)
(0.000801313 0.00588879 -1.55555e-17)
(-0.000552036 0.000310525 6.90526e-19)
(-8.79803e-05 0.000445586 2.12022e-18)
(0.0139025 0.00115714 -2.08963e-17)
(-7.33321e-05 0.000447629 9.2575e-18)
(-0.00410547 0.00677192 2.33957e-18)
(0.000119215 -0.000762088 6.43723e-18)
(-0.0279295 -0.00107726 5.44931e-17)
(-0.000246917 3.93501e-05 -9.30626e-19)
(0.00735162 -0.00469117 -1.93889e-17)
(0.0129245 -0.0136893 1.55675e-17)
(0.00780765 0.0105631 -4.81832e-17)
(-0.00230969 -0.00385097 -1.55484e-17)
(-4.96327e-05 -5.10228e-05 6.48365e-19)
(0.00602261 0.00639567 -7.09059e-18)
(-1.48543e-05 -4.61696e-05 -1.88602e-18)
(-0.000562215 0.00033395 4.07289e-18)
(-0.00107364 0.00122397 -4.50692e-18)
(-0.00109471 0.00128109 -4.80601e-19)
(-0.00253252 -0.00311085 7.82336e-18)
(-0.000288332 0.00140481 1.72385e-17)
(-0.000300318 9.72756e-05 1.08494e-19)
(0.00622924 -0.00172723 -1.10542e-17)
(-0.0145642 -0.000474756 5.33155e-17)
(-0.000763317 -0.00260131 -6.09743e-18)
(-0.000161043 0.000319277 -6.19931e-19)
(-0.00472003 -0.00357544 1.17192e-17)
(3.38273e-05 -0.000875961 -5.02068e-18)
(-0.000470281 0.000426036 6.29141e-20)
(-0.0122482 0.00061783 2.75786e-17)
(-9.6411e-05 -4.33872e-05 -4.28368e-19)
(0.0103589 -0.0105128 2.9065e-17)
(-0.000134922 0.000246503 2.18894e-18)
(-0.000314505 0.000115223 1.64212e-19)
(-0.00849735 0.00877738 -7.16563e-20)
(-0.00140122 0.000651828 -3.40066e-18)
(-0.0201114 -0.00205365 3.88708e-18)
(-0.00457811 -0.00418349 -8.25542e-18)
(-0.0128742 -0.00532493 3.50602e-17)
(-0.000616921 0.000564106 -1.36316e-18)
(-0.0173703 0.00181747 5.70158e-18)
(-6.34562e-05 0.000350103 3.36655e-18)
(-0.00872544 -0.00921936 6.22806e-17)
(-6.02253e-05 0.000436377 1.3552e-18)
(5.59546e-05 -0.000396063 1.17813e-17)
(0.00341934 -0.000406878 3.51035e-17)
(-0.0119904 -0.00532525 9.01174e-19)
(0.00620154 0.00721089 -2.8475e-17)
(-0.001085 0.000837423 1.51273e-18)
(-0.000186966 1.40336e-05 -2.26781e-18)
(-0.00127419 0.00710901 1.30989e-18)
(0.0240718 -0.00064973 1.65916e-17)
(0.00299688 0.000528324 7.83659e-17)
(-0.000584959 0.00746993 -2.17105e-19)
(-0.000333605 0.0011283 -7.72623e-17)
(-0.000397866 0.00114776 -7.77476e-17)
(-0.00015456 0.000297985 4.32293e-18)
(-0.000189593 -3.96678e-05 -8.38144e-20)
(-0.00165917 -0.0021041 1.52882e-17)
(-0.000179229 -4.1865e-05 2.55284e-19)
(-0.0144426 -0.00105861 -4.30586e-17)
(4.65473e-05 -0.000415571 -2.86414e-18)
(-0.000257293 -6.08501e-06 -2.2014e-18)
(-0.000574429 0.000704192 -2.59162e-18)
(-0.000195927 -5.38727e-05 1.24767e-19)
(-0.00529178 0.00160416 -8.15625e-19)
(-0.00302103 5.92776e-05 -2.22445e-17)
(0.00635111 0.000426872 -2.12312e-17)
(0.000117255 -0.000738659 -2.31674e-18)
(-7.79547e-05 -2.13777e-05 8.76969e-19)
(-4.5296e-05 2.2768e-06 6.93732e-19)
(0.000842103 0.002527 1.24599e-17)
(0.0068066 -0.00137025 7.24665e-17)
(-0.00132731 0.000667133 -5.38765e-18)
(-0.000200412 4.12437e-05 -1.57884e-18)
(-0.000284112 5.30891e-05 -5.26705e-20)
(-0.00582197 -0.00774713 1.64596e-17)
(-0.0129326 -0.0187891 1.28054e-17)
(-0.000444509 0.00173952 -2.9632e-17)
(-0.000181709 1.78648e-05 -8.90959e-19)
(-0.000464761 0.00104669 -3.57229e-18)
(-0.00373111 -0.0131491 -2.4128e-18)
(1.0153e-05 -0.00210073 -1.97482e-17)
(-0.000579305 0.000569142 1.19688e-18)
(-0.00113309 0.000143323 -9.70189e-20)
(0.0189803 0.0130518 -3.38061e-17)
(-0.0124181 -0.0114846 -8.04516e-18)
(-0.00172254 0.00163024 -9.64723e-18)
(0.00297281 0.00576598 -2.43057e-17)
(-0.000250875 0.00139077 4.84867e-18)
(-0.0134961 -0.00385631 -2.78738e-17)
(-0.000243682 0.000948937 -1.52362e-17)
(0.000233891 -0.00179586 -2.505e-18)
(-0.00703745 0.00896534 2.61344e-18)
(-0.00021459 0.000203345 -2.52822e-18)
(-5.94608e-05 0.000380125 -3.5115e-18)
(-0.000687554 0.00139758 -5.37751e-17)
(0.0176759 0.0033774 1.0754e-17)
(-0.00040229 0.000365698 -2.0235e-18)
(-8.98795e-05 -5.08291e-05 8.42713e-19)
(-0.011044 -0.00656799 7.30039e-17)
(-0.0255605 0.00139332 -1.22182e-17)
(-0.000382877 0.0010768 2.89232e-17)
(4.26177e-05 0.0070777 -5.58038e-18)
(-0.00516383 0.0014404 -4.91079e-18)
(-0.00319558 0.00011701 2.22844e-17)
(-0.0173952 -0.00679054 -2.79328e-17)
(-0.000112149 0.000304716 8.12902e-21)
(-5.42593e-05 0.000493836 -5.76174e-18)
(-4.78537e-05 -4.108e-05 8.02305e-20)
(0.000355073 0.00206159 4.37982e-17)
(5.9865e-05 -0.00173018 -1.57293e-17)
(-0.000122005 -0.00056156 -3.71414e-18)
(-1.04614e-05 3.27572e-05 6.61225e-20)
(-0.0149606 0.0111139 -7.56564e-18)
(-0.0014925 -0.00207696 -8.13756e-18)
(0.00122892 0.00555953 1.78569e-17)
(-0.0227384 -0.00203915 8.61093e-18)
(-0.0154152 -0.00221666 6.33194e-19)
(-0.0141491 -0.00268936 6.18818e-18)
(0.0131608 0.00161428 -3.59684e-18)
(-0.000573338 0.000688684 2.99508e-18)
(0.0117053 -0.00555055 -9.48894e-18)
(-4.89886e-05 -4.7326e-05 -9.66781e-19)
(-7.55236e-05 -2.07293e-05 8.89148e-19)
(-0.00265264 -0.0021109 -6.90354e-18)
(-3.49584e-05 3.87263e-06 1.80461e-19)
(0.00583356 0.00818905 2.5263e-17)
(0.0197202 0.00708021 -1.30129e-17)
(0.00342177 0.00586832 -4.53793e-19)
(-7.3878e-05 -6.29164e-06 -1.45905e-18)
(5.55277e-05 -0.000834442 7.23197e-18)
(0.00290599 0.00580156 2.74989e-18)
(-0.0104297 -0.0182398 -1.1125e-17)
(-0.000958155 0.0008646 1.09907e-17)
(-0.000591134 0.000669008 -6.05902e-19)
(5.6998e-05 -0.00197768 1.41336e-17)
(-0.0101172 -0.000370977 -9.72115e-18)
(-0.0252306 0.00175805 -9.92624e-18)
(0.00731784 -0.00325598 3.78262e-18)
(-0.000205201 0.000740253 1.25729e-17)
(-0.000135076 0.000352886 9.84564e-18)
(-0.000146426 -6.32795e-09 -1.99023e-19)
(0.0132763 0.00471251 -4.28982e-18)
(-4.11143e-06 -0.00179259 5.85028e-18)
(-0.0223649 -0.0015783 5.00148e-18)
(-0.000828565 -0.000424502 5.63219e-20)
(-0.000399653 0.000351803 -2.1999e-19)
(-0.00263609 0.00707416 3.58864e-18)
(0.00683487 -0.00286612 3.71706e-18)
(-0.000218909 -0.000399728 -9.85117e-18)
(-0.000364856 4.03721e-05 -8.06523e-19)
(-0.000340214 0.0014476 -5.51164e-18)
(-0.00470941 0.010685 7.13353e-17)
(0.0199178 0.00515492 3.54326e-17)
(0.0176249 -0.0114676 1.41118e-18)
(-0.000160994 -0.00146487 1.15245e-17)
(0.00319819 -0.00167891 1.12521e-17)
(0.0211727 0.00430698 5.10896e-18)
(-7.08448e-05 0.000339813 -1.1192e-17)
(0.000391745 -0.00128469 1.40727e-17)
(-0.0180725 -0.00355344 1.12809e-18)
(-0.000796944 -0.000136925 5.97587e-19)
(-0.00637406 0.0064544 1.27507e-17)
(-0.000271014 4.58861e-05 -9.13194e-19)
(-0.00638832 0.0108937 -5.70255e-17)
(-1.70976e-05 0.000155235 2.64113e-18)
(-0.00159304 0.000534637 -6.73005e-18)
(-0.00050681 0.000492785 -1.95878e-18)
(-9.48636e-05 0.000450639 7.47083e-18)
(0.0100035 -0.014958 -5.38755e-18)
(-0.000318427 -0.000216082 -5.45412e-18)
(-0.000403754 0.00266251 -5.43775e-17)
(-7.24451e-05 -2.05524e-06 1.04057e-18)
(0.00457641 -0.00883849 -1.36351e-17)
(-0.020198 -0.00116011 -5.97447e-18)
(0.00409336 0.00691613 -3.04898e-17)
(-0.000230143 0.000708432 2.78603e-17)
(0.000397293 -0.0012299 -1.57649e-17)
(-4.66271e-06 9.6204e-05 -4.92588e-18)
(-0.000665087 0.00139368 1.75595e-17)
(-6.87529e-05 0.00017425 1.69014e-18)
(-0.00151507 0.000536272 2.19991e-18)
(-0.00117877 0.00769997 -6.75696e-17)
(-0.000208352 0.000710262 -7.65311e-18)
(-0.000786559 -0.00017626 2.21724e-18)
(-5.65889e-06 -2.75045e-05 -1.16712e-18)
(0.0172006 -0.0112554 -1.90534e-17)
(-0.000132594 5.86141e-05 -2.00952e-18)
(1.28443e-05 -0.00199445 -2.69294e-18)
(0.0197144 -0.00966628 1.46983e-17)
(0.00247463 0.000932143 1.28012e-17)
(-7.3213e-06 3.23981e-05 -4.6184e-19)
(-0.00794901 -0.00424596 2.64653e-17)
(-0.00713253 -0.00385359 -3.81365e-17)
(-0.0113755 0.0072159 7.39426e-18)
(-0.00556703 0.00624229 -1.01987e-17)
(-0.000922933 -0.00127217 -5.10655e-18)
(-0.00074631 0.00149017 1.87589e-17)
(0.00909815 -0.0137135 -1.2411e-17)
(5.97792e-05 -0.00083069 4.34524e-18)
(-0.00112767 0.000848101 -1.36586e-17)
(-0.000617599 0.000705836 3.47265e-19)
(-0.0269983 0.000114029 1.26325e-17)
(-0.00558863 -0.0093484 1.08685e-17)
(-5.70412e-05 -9.60547e-06 5.66716e-19)
(-0.00055823 -0.000837945 7.828e-18)
(-0.00186844 0.00761092 6.82252e-18)
(-0.0149317 0.0109816 9.26261e-18)
(0.0022913 0.00365806 -3.62813e-18)
(-0.000139855 -1.19307e-05 -3.76287e-19)
(-0.000347906 0.00170253 4.30834e-17)
(-6.55775e-05 0.000344782 4.06822e-20)
(0.0115599 -0.00266501 -3.37873e-18)
(-0.0153505 -0.0143464 8.80497e-18)
(-0.000563749 -0.00087663 7.55854e-18)
(-0.00141691 -0.00223238 1.00481e-17)
(-0.00672957 -0.00944509 -8.77648e-18)
(-0.000161907 0.000285167 -1.72089e-18)
(-0.000349874 0.00114589 6.01258e-17)
(0.00128465 0.00404082 6.97419e-18)
(-0.0144661 -0.0407142 8.01228e-18)
(-4.04735e-05 -4.14866e-05 1.08701e-18)
(-8.44368e-05 0.000464981 -9.44794e-18)
(-0.000208293 0.000706682 -8.40624e-18)
(-0.0129014 -0.00418904 3.31671e-18)
(0.00252233 0.000285889 6.32836e-17)
(-0.000441415 -0.002237 -3.36607e-18)
(-0.00021097 3.36827e-05 1.81915e-18)
(-0.00884701 -0.0204867 -4.9418e-17)
(-0.0167432 -0.0106829 -1.1426e-17)
(0.00565165 -0.0011497 -4.78321e-18)
(-0.00130076 -0.00220526 -1.11531e-17)
(-0.0138443 -0.00445508 -9.04445e-19)
(0.0206066 -0.00219333 5.74549e-18)
(-0.000710196 -0.000779699 4.13539e-18)
(-0.000238208 -0.00132686 4.34813e-17)
(-0.0127668 -0.00805031 3.98003e-17)
(-0.000189433 9.85819e-06 -2.98403e-19)
(-4.71991e-05 -4.07864e-05 8.62231e-19)
(0.0061242 -0.00149178 2.85561e-18)
(-0.00104865 0.00137574 -4.04434e-17)
(-0.000138567 5.70396e-05 2.92055e-18)
(-1.72184e-05 0.000146253 -2.47951e-19)
(-6.91395e-05 0.00019109 -1.35722e-18)
(-3.19598e-05 6.40799e-06 2.79145e-19)
(-0.000651198 -0.0013705 -1.53617e-17)
(-4.7757e-05 -4.6032e-05 -4.78193e-19)
(-0.0179048 -0.00343091 1.01738e-17)
(-0.000578683 -0.00209115 -9.38466e-18)
(-0.000221241 -2.70657e-06 -8.04524e-19)
(-0.013749 0.0117696 5.23185e-18)
(-0.006979 -0.00680806 -6.23999e-18)
(-0.000102657 0.000378916 9.53601e-18)
(0.00558224 -0.00870202 -2.54642e-18)
(0.0214585 0.000397365 -3.48405e-17)
(-0.000214768 0.000209706 2.59961e-18)
(-9.1249e-05 0.000374793 -6.75453e-18)
(-0.000672017 -0.00218941 3.10095e-18)
(-0.0178603 -0.00325059 -1.8237e-17)
(0.0080224 0.0120191 6.16749e-19)
(-0.0025279 -0.00316588 1.29121e-17)
(-2.83136e-05 -3.79938e-06 -1.44429e-18)
(0.0103754 -0.00855424 -1.81925e-18)
(-4.72526e-05 -5.19588e-05 -2.6109e-19)
(-0.00308486 -0.00324364 2.60948e-18)
(0.0207592 0.000930561 1.99251e-17)
(-0.0145372 -0.0394282 1.17498e-17)
(-0.000112206 -0.00055016 -8.82715e-18)
(-0.0113422 -0.00702157 -2.00008e-17)
(0.0189954 0.00949515 3.52965e-18)
(-0.0133474 0.0030168 -7.63955e-17)
(-0.00491464 0.00136235 -2.62451e-17)
(-0.000245499 0.00120132 -1.65941e-17)
(0.00216762 0.00637339 -1.97444e-17)
(-0.00445405 -0.00970949 2.34479e-17)
(-0.00888733 -0.0348238 1.5613e-17)
(-0.000381288 3.34157e-05 3.01829e-18)
(-0.0129258 -0.00255014 -1.89169e-17)
(-0.0128518 0.000316052 3.81719e-18)
(-0.000816045 0.00199924 3.97895e-17)
(-0.000811542 0.00197427 -6.37623e-18)
(-9.87659e-05 0.000336344 1.18299e-17)
(-0.00290548 -0.00249639 5.07877e-17)
(-0.000394863 0.000715091 -5.94219e-18)
(-0.0164176 0.00237521 -2.0719e-17)
(-0.000365762 0.00122951 -2.89471e-18)
(-7.01399e-05 3.56097e-06 -4.05094e-21)
(3.20182e-05 -1.73721e-05 -2.29634e-18)
(-0.000794858 0.000435115 1.41872e-17)
(-0.0133797 0.00228761 8.17831e-17)
(-0.00051349 0.00270019 4.22245e-18)
(-0.000180831 8.0822e-06 -2.50583e-19)
(0.00518932 0.00659053 2.95923e-17)
(-0.000386079 0.000745089 -1.04564e-17)
(-0.00113368 0.000191998 3.15736e-18)
(-0.000107526 -0.000550417 1.29976e-18)
(-0.0165947 -0.00187143 3.76662e-17)
(-0.00702712 -0.0199947 4.63166e-17)
(-0.00337136 0.00746429 -1.15173e-17)
(-0.000494134 0.000468629 2.68225e-19)
(-0.000742768 -0.00017086 2.51772e-18)
(-0.00135271 0.015294 7.83277e-18)
(-0.000113945 0.000309899 -1.15865e-17)
(-0.0183903 -0.00903762 1.07815e-17)
(-0.000677751 -0.000783113 -1.43612e-18)
(-0.000769119 -0.0022193 5.1685e-18)
(-0.000404246 0.000728708 1.15766e-18)
(-6.80158e-05 0.000367406 -1.51049e-18)
(-0.000222006 -7.30301e-06 3.83687e-19)
(-0.00399786 0.00436901 3.00205e-17)
(0.00376129 0.000909835 -1.85315e-17)
(-0.0040626 -0.0103402 -1.2118e-17)
(0.016844 0.00921367 -5.71259e-18)
(-0.00227053 0.0159248 -7.2703e-18)
(-0.000421027 0.000373199 1.60947e-18)
(0.0192216 -0.00991571 1.54123e-17)
(0.015053 -0.00451516 -1.60499e-18)
(-0.000129492 -0.000145489 1.61872e-18)
(-0.0174741 -0.0377293 8.63139e-18)
(0.00180151 -0.00568956 -8.82993e-18)
(0.0241245 -0.000383569 -1.57156e-19)
(-0.00078489 0.000416072 2.11306e-18)
(-0.00266422 -0.000447968 -9.87054e-18)
(0.00608964 0.0103991 9.53537e-18)
(0.0321522 0.0181372 3.987e-18)
(-0.00295923 0.00460536 3.2408e-17)
(-0.0205671 0.00211608 -4.34868e-18)
(-0.000474194 0.000138449 2.04615e-17)
(0.0228903 0.00805245 8.23719e-18)
(-0.0106817 -0.00193184 -1.57094e-17)
(-0.0010236 -0.000887642 1.0618e-17)
(-0.0270459 0.000513743 1.68625e-17)
(-0.00120233 -0.000909313 -1.24637e-17)
(0.0204716 -0.00833855 4.45453e-18)
(-0.000254806 -0.00130256 -2.6431e-17)
(-1.64634e-05 -0.00102355 1.0524e-18)
(-0.00749886 -0.00749314 -4.40975e-17)
(0.00604578 0.00434741 4.58606e-17)
(-5.98652e-05 0.000503769 2.24185e-18)
(-0.000753344 -0.000632368 -1.08687e-17)
(-0.000975429 0.00145537 2.41712e-19)
(4.44285e-05 -0.000861562 -1.89631e-18)
(-0.00019559 -3.91999e-05 2.49152e-19)
(-0.000320009 -0.00229723 1.07493e-17)
(-0.0240924 -0.0145771 -7.93296e-19)
(-0.000164634 0.000314202 -5.66345e-18)
(0.00045017 -0.00135117 -8.06556e-18)
(-0.00202432 0.00121398 5.66642e-17)
(-0.000662556 -0.00013285 5.22962e-18)
(0.00239769 0.00332947 1.42255e-18)
(-7.98392e-05 -0.000674289 2.43541e-18)
(0.0130198 0.0127878 -4.3014e-17)
(-0.000841972 -0.000131953 6.49316e-19)
(-0.00119477 8.38799e-05 1.02507e-17)
(-0.00016852 0.00222365 -1.25096e-17)
(-0.0152778 -0.0165082 -6.45797e-18)
(-0.00179754 -0.00182426 -2.93798e-18)
(0.00204021 0.00265339 3.10543e-18)
(-0.00694588 -0.00341622 4.19474e-17)
(-0.00795729 -0.0031684 -2.43162e-17)
(-0.000159256 0.000292449 -7.29575e-19)
(-0.00408075 0.00396984 -3.41813e-17)
(-0.00130563 -0.000732295 2.35998e-17)
(-0.00227564 -0.00019289 -2.26706e-18)
(-0.000202166 8.30632e-05 -4.801e-18)
(-0.0102192 -0.000782493 -2.91155e-17)
(-0.0165958 -0.0229041 6.42014e-18)
(0.0283368 0.00153275 2.72505e-18)
(-0.000731291 -0.000203159 -4.76056e-18)
(-0.00760882 -0.00829565 3.34395e-17)
(0.00773598 0.00691805 -8.64012e-18)
(0.00222116 0.000878105 -6.42538e-17)
(-3.55698e-05 -0.00015405 -2.16154e-18)
(-0.0136007 -0.00200352 -1.1667e-17)
(0.00583669 0.00751956 -3.97399e-17)
(-0.00780569 -0.000156753 -3.44094e-17)
(-0.000624273 0.000708754 -4.35716e-19)
(0.0192762 0.00449999 1.64756e-17)
(-9.65243e-05 0.000474107 2.20834e-18)
(-3.78592e-05 3.16449e-06 -4.36653e-19)
(-0.0283158 -0.000937398 -7.17496e-17)
(0.00959999 0.00724904 -1.77378e-17)
(-4.88396e-05 0.000315769 -2.66114e-18)
(-0.000588418 -0.000514419 8.25219e-18)
(0.000453828 -0.0014299 1.15467e-17)
(-8.6067e-05 -5.1595e-05 2.95041e-19)
(-0.0174563 -0.0244653 -3.14856e-17)
(-0.00288489 -0.0027538 -5.19775e-17)
(0.00137463 -0.00557531 9.14795e-18)
(-0.000267407 -0.000851563 3.32619e-18)
(-0.000475319 0.000117267 -1.20771e-17)
(-3.92988e-05 0.000442412 8.25588e-18)
(0.0220438 0.0219871 -3.10314e-17)
(-0.000215668 3.67696e-06 -1.38231e-18)
(-2.50926e-05 0.000458913 -4.01322e-18)
(0.0138721 0.017106 2.58098e-18)
(-0.0241719 -0.0160591 8.3741e-18)
(-0.00056282 0.000551613 2.60925e-18)
(0.00513804 0.00903985 -6.375e-18)
(-1.04325e-05 -5.0517e-05 -1.43254e-18)
(-4.63008e-05 -4.42782e-05 -1.40383e-18)
(-0.000693282 -0.000144098 3.05987e-18)
(-0.00498968 -0.010593 1.48522e-17)
(-0.000168185 -0.000771254 1.56935e-17)
(-0.000205362 -3.63011e-05 1.47256e-19)
(-0.000501457 -0.000156482 1.03814e-17)
(-0.00133336 0.000601757 4.45786e-18)
(-0.000421218 -0.00054006 -1.08947e-17)
(0.00378426 0.0113806 1.90027e-17)
(-4.67404e-05 -4.68028e-05 1.16667e-18)
(-3.99963e-05 -0.000779823 1.15231e-17)
(-0.0130864 0.00502543 -1.17437e-18)
(-0.00050276 0.000881336 -8.23305e-18)
(-9.52759e-06 -3.20053e-05 -3.47912e-19)
(-5.07731e-05 -2.39575e-05 -9.32676e-19)
(-0.000260888 -0.00085204 -1.2826e-18)
(-0.000218384 -0.000442887 7.1056e-19)
(-0.0050962 0.00180153 2.46487e-17)
(0.0150778 0.0163651 -1.63761e-18)
(-0.000929195 -0.00134002 1.0712e-17)
(-0.00146719 0.0037428 -9.57183e-18)
(-0.000704934 -0.00019726 -9.7176e-19)
(-4.65032e-05 8.2037e-06 2.15953e-18)
(-0.0114804 -0.00879234 2.92402e-17)
(0.00594985 0.00921411 -2.58271e-18)
(-0.000361312 0.000922619 1.60124e-18)
(-0.00018118 0.000223596 5.19526e-18)
(-0.00577474 -0.00869677 6.88057e-18)
(-0.000260115 0.0010072 1.39738e-17)
(-0.00101793 -0.0082525 1.64802e-17)
(-0.000147182 0.000312104 -3.48224e-18)
(-0.00117359 1.21257e-05 -4.03819e-18)
(-0.00344562 0.00474288 -2.11321e-17)
(4.09153e-05 -0.000993369 -3.11125e-19)
(-0.00440624 -0.010837 8.07848e-18)
(0.00768464 0.00730066 1.07647e-17)
(0.0236307 0.00296519 -8.01947e-18)
(-0.000309028 0.00034983 2.32366e-19)
(-0.00495339 0.00148869 2.95607e-17)
(-0.00017315 0.000234583 -6.21345e-19)
(-0.0166633 0.0098825 -8.28056e-18)
(-4.34456e-06 -0.000711445 -3.54344e-18)
(0.00688828 -0.00237016 9.26217e-18)
(-0.00125139 -0.00077112 -1.95603e-17)
(-0.000483881 0.000441703 -9.02976e-19)
(-0.000549857 0.000806892 1.87135e-18)
(-0.00264787 -0.00237319 -2.12682e-17)
(-3.14803e-05 -1.50891e-06 -1.24259e-19)
(0.00229746 -0.00194254 -2.00091e-17)
(-0.0107996 -0.00850754 -2.56862e-17)
(0.00351589 0.0110251 -2.09919e-17)
(-0.000326203 -0.0032082 1.74519e-17)
(0.0150252 0.0158341 -2.72449e-19)
(-0.00231126 0.000961869 -3.41796e-17)
(-0.0173407 -0.0128591 4.40596e-18)
(-0.000263062 0.000679532 9.11867e-18)
(-2.46781e-05 0.000245507 -4.68787e-19)
(0.00419011 0.000118948 -6.19051e-17)
(-2.61464e-05 0.000266725 4.44249e-18)
(-0.000192274 -3.27736e-05 -5.06407e-19)
(-0.000312968 0.000757913 -1.24318e-17)
(0.00749325 0.00914054 3.0999e-18)
(-0.000452424 -0.000630725 -1.44317e-17)
(-0.000182174 0.00021703 2.3029e-18)
(-0.000862776 0.000517309 4.27659e-18)
(-0.00224366 -0.000787205 1.91685e-17)
(-1.58902e-05 0.00030311 -1.02647e-17)
(0.0219696 -0.00646282 3.36398e-18)
(-0.000183656 6.41934e-05 5.31686e-19)
(-0.00741591 -0.0124301 6.96987e-18)
(-0.00506096 0.00140986 2.63785e-17)
(-0.000143176 0.000226915 1.87717e-18)
(-0.000275539 -0.000638441 1.09781e-18)
(0.00114162 0.0110026 1.20595e-17)
(-0.0178604 -0.0401708 -2.61817e-17)
(-0.000137861 6.17481e-05 -6.13584e-20)
(0.0240847 0.0172316 2.24107e-17)
(0.0069279 0.00134941 3.95583e-17)
(-4.4724e-05 -0.000217218 1.76785e-18)
(-0.0014621 0.00439923 -1.762e-17)
(-0.0212841 -0.00476887 -4.84899e-17)
(0.00313806 -0.0098405 -1.32056e-17)
(-0.000295008 0.000333428 -6.50108e-18)
(0.0119877 0.0161719 -3.54877e-18)
(0.0123861 -0.00372422 -2.926e-18)
(-5.13599e-05 -0.000226051 -2.13863e-18)
(-0.00302154 0.0040333 -9.81621e-19)
(-0.000292114 7.8198e-05 1.21904e-19)
(-0.000189074 4.02099e-05 1.81206e-18)
(0.0223456 0.0229854 -1.17327e-18)
(0.020963 -0.00771769 -2.86792e-17)
(-0.00164497 -0.000826585 1.60302e-17)
(-0.000159082 -0.000807598 -1.30874e-17)
(-2.18839e-05 0.000241336 -9.27078e-18)
(-3.55025e-05 -7.35798e-05 4.07878e-19)
(-0.0053078 -0.0134669 -1.61002e-17)
(0.000387796 0.00381694 -2.23899e-17)
(-0.000112668 -0.000300246 2.33878e-18)
(-0.00797177 0.00115281 3.78243e-17)
(-0.000203866 -2.67376e-05 -4.30199e-19)
(-0.000300651 9.68885e-05 1.48691e-20)
(-0.00180875 -0.00194994 -7.8581e-19)
(4.17831e-05 -0.000669709 1.58151e-17)
(-2.80369e-05 -0.000149369 2.35919e-18)
(-0.000448271 0.000414602 -1.4324e-19)
(0.000178939 0.00348075 2.87478e-17)
(0.00505767 0.00457161 -2.34354e-17)
(-0.00127464 0.00380232 2.43227e-17)
(-0.000442035 -0.00059694 -3.34046e-18)
(-7.08879e-05 0.000360773 5.01178e-18)
(-0.0121913 -0.00391262 1.51056e-17)
(-3.26483e-05 0.000174244 7.20114e-19)
(-0.0045893 0.00328132 -7.46243e-18)
(-0.000144732 -0.000893975 1.55135e-17)
(1.39467e-05 -0.000924762 2.11215e-18)
(-0.00103759 -0.00115768 -3.22488e-17)
(-0.00415196 0.00806292 -2.674e-18)
(0.021244 -0.0023929 1.86066e-17)
(-0.000773085 -0.000516555 2.94661e-18)
(-0.0106822 -0.00290612 8.30879e-17)
(-0.000132038 -0.000544687 9.78954e-19)
(-0.00331097 -0.00143739 -6.68783e-18)
(-0.0142605 0.00973557 -1.42239e-18)
(-0.0271101 -0.00126791 1.26397e-17)
(-0.000273939 4.74864e-05 1.35046e-20)
(-0.000167791 0.000256698 -2.86213e-18)
(-0.000438848 0.00116002 4.88481e-17)
(-0.00025159 0.00296688 -4.53836e-18)
(-0.000873092 0.0139005 -1.64389e-17)
(-0.000142636 -0.000117542 -2.2816e-18)
(-0.00202462 -0.00770836 -4.78773e-18)
(4.48148e-05 -0.000666741 -2.42667e-17)
(-0.000237069 -0.0012514 2.92543e-18)
(0.000641746 0.008493 3.75153e-17)
(0.0249607 -0.00664908 -3.91849e-18)
(-0.0011326 0.000591148 -2.38223e-18)
(-0.00776536 -0.0114655 -1.20346e-17)
(0.00783321 0.00334068 -1.06586e-17)
(-0.00640556 0.0160007 5.41569e-18)
(-0.000438394 0.000167019 2.35293e-18)
(0.00804988 0.0117937 4.99414e-17)
(0.0165781 0.00497039 -5.34936e-18)
(-5.74767e-05 -4.44264e-05 6.38405e-19)
(0.00492135 -0.000345241 -3.51058e-18)
(0.00492631 0.0160581 3.99166e-17)
(-0.000590807 0.00068749 -1.46897e-18)
(0.00019261 -0.00191633 -2.09244e-18)
(-0.000229414 7.43965e-05 -3.26556e-18)
(-0.00342192 0.00213696 -1.9106e-18)
(4.84656e-05 0.000735001 -2.52612e-17)
(0.00686891 0.00503659 5.36013e-17)
(-0.000218786 1.23029e-06 8.03681e-19)
(-3.42787e-05 1.1154e-05 -1.04189e-18)
(-0.000166641 0.000565308 7.69541e-18)
(-0.00217661 -0.000672496 3.87586e-18)
(-4.70847e-05 -4.57438e-05 -1.34932e-18)
(0.00818337 0.00832653 -1.75171e-18)
(-3.62973e-05 7.52505e-06 5.50529e-19)
(0.00777292 0.00283278 8.34224e-18)
(-0.000287844 0.000345884 1.70142e-17)
(-0.00230865 4.61006e-05 3.86241e-18)
(-0.000169153 0.000291479 -5.19413e-18)
(-2.38861e-05 0.000321771 2.95606e-18)
(-0.000564351 0.000787174 1.21413e-17)
(-0.00752016 0.00114011 -1.07861e-16)
(-0.00195398 -0.00158311 -1.97406e-17)
(0.0039673 0.00587285 3.46007e-17)
(-0.00118509 8.84071e-05 2.50205e-18)
(-9.68585e-05 -5.56125e-05 8.12611e-19)
(-0.000175496 -0.000139513 3.67476e-18)
(-0.0028399 -0.00199781 7.63151e-18)
(-0.000501063 -0.000116364 1.67852e-18)
(-0.00461527 0.000357682 4.94444e-18)
(-0.000532073 -0.000654388 7.67923e-18)
(-0.000342497 0.000907734 -1.17196e-17)
(0.0069244 0.0127135 -7.80628e-19)
(-3.17156e-05 0.000184397 -4.19981e-18)
(0.0107728 0.00216323 -5.90585e-18)
(-9.39736e-06 0.00012113 3.29381e-19)
(-0.00464713 0.00145438 -1.10458e-17)
(-0.00949167 -0.00346284 -5.26915e-17)
(-0.0128643 -0.000516694 6.22785e-18)
(-9.09401e-05 0.000711928 4.2903e-17)
(0.00794262 0.00371802 -6.24215e-17)
(-0.000844636 0.000568321 -1.32377e-17)
(0.0012882 -0.00293683 1.97948e-17)
(0.00534993 0.0161608 -1.94018e-17)
(-0.000150692 -0.00032572 3.11174e-18)
(0.0213601 -0.00590664 -6.28522e-17)
(-0.000406484 0.000742616 -1.1132e-17)
(-0.00108345 -0.000920282 -1.26176e-17)
(-0.00171454 -0.0033878 3.6421e-17)
(0.0022362 0.00338522 -2.10294e-17)
(-0.000135729 -0.000141039 -5.31268e-18)
(-0.0044072 0.000394177 3.02506e-18)
(-0.000205123 -0.00039752 8.54832e-18)
(-0.00750253 0.0148497 5.0072e-18)
(0.00672881 0.000799069 -4.74088e-17)
(-0.000327748 0.000166896 5.16654e-19)
(-0.000295642 0.00143813 -1.99959e-17)
(-0.00906389 -0.0277573 -1.76424e-17)
(-6.25806e-06 0.000136653 3.22463e-18)
(-1.08039e-05 0.000168785 1.99695e-18)
(-0.0015638 0.000276996 1.3217e-17)
(0.0100908 0.00142402 7.30656e-19)
(0.00892005 0.0162906 -8.98537e-18)
(-8.13508e-05 0.000377079 3.49265e-18)
(-0.0082616 -0.00585312 2.3015e-17)
(-0.00040594 -0.000519311 1.90603e-18)
(-1.44328e-05 0.000383491 -7.27014e-18)
(0.00610892 0.0153994 -1.02144e-17)
(-0.00851347 -0.00672089 -1.27566e-17)
(0.00297958 0.0020346 -5.55537e-17)
(-2.5103e-05 -0.000132024 -2.57557e-19)
(0.00163237 0.00378339 -3.2444e-18)
(-0.000604865 0.000999452 2.0431e-17)
(-0.00106277 -0.000356099 -4.61305e-18)
(-8.44151e-05 0.00027782 -4.93804e-18)
(-0.000387656 0.000319009 -5.36207e-19)
(-7.50458e-05 0.000727167 9.68435e-18)
(-0.000171095 0.000532306 -4.53386e-18)
(0.0010715 0.00491532 -2.72866e-17)
(-0.000603906 -0.00250164 8.82511e-18)
(-0.000889468 -0.00251496 -3.00447e-18)
(-0.00106451 0.000581136 5.88671e-18)
(-0.00451652 0.000168982 -3.19741e-17)
(-0.0205531 -0.000331455 -2.42523e-17)
(-0.0127864 0.00146761 -5.32803e-18)
(0.0303947 0.0204323 -3.43128e-17)
(0.000172596 0.00658968 2.11794e-18)
(-0.020331 -0.00269255 -1.50635e-17)
(-0.000598191 0.000758226 2.37584e-19)
(0.0223669 0.0226968 -7.92082e-19)
(0.00421923 -0.00988444 1.72626e-17)
(-0.00025432 6.71567e-05 5.22423e-19)
(-0.000251965 -0.00120783 -4.75654e-19)
(-0.0184424 -0.000855042 4.67994e-17)
(-0.000699655 0.000513909 -5.54954e-18)
(-0.000128675 0.000246158 5.66842e-19)
(-0.000125322 0.000229503 1.42939e-18)
(-0.00391951 0.00213954 7.51678e-19)
(-0.0193813 0.00186183 -9.12459e-18)
(-6.10789e-05 -0.000817341 -1.5997e-17)
(0.0209236 -0.00831222 -4.10841e-17)
(-9.92307e-05 -5.74757e-05 -5.08304e-19)
(0.0087935 0.0143757 5.92549e-18)
(-0.00102732 0.000861497 4.15653e-19)
(0.0201339 0.000507639 6.54875e-17)
(-0.00423832 0.000687032 -1.12723e-17)
(-0.000875481 -0.000172228 1.81544e-18)
(-0.000524934 -0.000580531 1.65863e-17)
(0.0194551 0.00116861 3.66597e-17)
(0.00289201 0.00261085 -7.13606e-17)
(-0.000598774 0.000754102 5.10375e-20)
(0.00942374 0.00756711 1.10078e-17)
(-0.000459895 0.000105339 3.16423e-18)
(0.0031224 0.00289847 5.22926e-18)
(-0.00444922 0.00207579 -1.07391e-17)
(0.00834876 0.00228921 4.94456e-18)
(-0.00128679 -0.000422657 2.00158e-17)
(0.0063045 0.0135261 5.96163e-17)
(-9.97405e-05 0.00046898 -4.06747e-19)
(-1.18921e-05 0.000140377 2.35227e-18)
(-7.52472e-05 0.00032417 -1.42536e-19)
(-2.7758e-05 0.000425221 5.35673e-18)
(-0.0158325 0.00794761 -2.87977e-18)
(-2.67956e-05 5.62095e-06 -4.2648e-19)
(0.0046639 0.0153243 8.32772e-18)
(-0.0134939 -0.00398933 -1.79945e-17)
(-0.00426114 0.000796057 -1.19965e-18)
(0.000878936 0.00483562 3.65278e-17)
(0.0239117 -0.000788054 -3.94079e-17)
(0.0091097 0.00233231 -5.41825e-18)
(0.00212071 -0.00364782 -1.99915e-17)
(-0.000104743 0.000700984 4.23987e-18)
(1.2226e-06 0.000216938 -2.56959e-18)
(-7.00983e-05 0.000479583 4.36276e-19)
(-9.33126e-05 -1.21751e-05 1.20709e-18)
(-0.000169849 -0.000118332 -3.25391e-18)
(-3.41444e-05 3.237e-06 1.24656e-18)
(-0.00327916 -0.00190587 9.87057e-18)
(-0.00594176 0.00149273 2.24137e-17)
(-0.000615793 0.00101208 9.43778e-19)
(-0.0122719 -0.0380897 -1.2633e-17)
(-0.00044121 0.000340181 -5.98118e-20)
(-0.0190602 -0.00334808 -6.79873e-18)
(4.35576e-06 3.93881e-05 5.7251e-19)
(0.00163732 0.0038321 5.53751e-18)
(-0.00126967 0.000692862 1.0673e-17)
(1.09799e-05 8.48626e-05 7.78756e-19)
(-6.97309e-06 1.52448e-05 -4.74736e-19)
(-0.0132512 -0.00148634 -2.19931e-18)
(-0.000842428 -0.00033445 -8.26681e-18)
(0.00028525 0.00421966 2.20056e-18)
(0.00670064 0.0170253 -8.40052e-19)
(0.000176313 -0.00173458 -5.94252e-18)
(6.89298e-05 -0.00390977 3.86048e-17)
(-2.66996e-05 -0.000186808 -2.94175e-18)
(-0.0106454 -0.0119431 2.71139e-19)
(-0.000368972 0.000444829 -4.2742e-18)
(-0.000479362 -0.000625402 1.14608e-17)
(0.00682452 0.013721 1.32876e-18)
(-1.40453e-05 0.000236667 -6.61e-18)
(-0.00019798 0.000208483 1.05551e-17)
(-0.000196478 -0.0002198 -4.92956e-19)
(9.63716e-05 -0.000721409 -8.0404e-18)
(-0.0246507 0.000907053 4.87298e-18)
(-0.00104644 5.43159e-06 -1.88603e-18)
(-0.00129042 -0.000584699 -4.30675e-17)
(0.00733791 0.00682713 4.56392e-17)
(0.000318519 0.00331832 -2.00302e-18)
(-0.000208933 0.000743509 9.26222e-18)
(-0.000428515 0.000605973 -1.25125e-18)
(-0.0107947 0.013246 3.57499e-18)
(-9.03504e-05 -1.03133e-05 9.99391e-19)
(-0.0108465 0.013574 -5.29208e-18)
(-2.50016e-05 5.22084e-05 -5.51098e-19)