/*--------------------------------*- C++ -*----------------------------------*\
| =========                 |                                                 |
| \\      /  F ield         | OpenFOAM: The Open Source CFD Toolbox           |
|  \\    /   O peration     | Version:  v2012                                 |
|   \\  /    A nd           | Website:  www.openfoam.com                      |
|    \\/     M anipulation  |                                                 |
\*---------------------------------------------------------------------------*/
FoamFile
{
    version     2.0;
    format      ascii;
    class       volScalarField;
    location    "150";
    object      p;
}
// * * * * * * * * * * * * * * * * * * * * * * * * * * * * * * * * * * * * * //

dimensions      [0 2 -2 0 0 0 0];


internalField   nonuniform List<scalar> 
13851
(
-0.135944
-0.0543812
-0.0531153
-0.412267
0.00586959
-0.0649381
-0.0406776
-0.0051595
-0.099477
0.0320278
-0.155497
0.0140629
0.0419435
-0.121173
-0.0874829
-0.0737898
-0.36646
-0.0202513
-0.209325
-0.136814
-0.101294
-0.0213824
-0.40094
0.00793439
-0.292822
-0.0740121
-0.0945213
-0.206136
-0.0623798
-0.0087614
-0.396333
-0.0408779
-0.125377
-0.158253
-0.118467
-0.0611753
0.00800108
-0.349487
-0.305341
0.012738
-0.205528
-0.063396
-0.397149
-0.193895
-0.0700717
0.000649166
-0.0104519
-0.0828207
-0.0277581
0.0424738
-0.268048
0.0497412
-0.0745471
-0.0586217
-0.0919964
0.013848
-0.127496
-0.209422
-0.0788477
-0.17551
0.0140949
-0.0958905
0.0281451
-0.028067
0.0423649
0.04836
-0.176695
0.275958
-0.00233449
-0.410094
-0.380774
-0.112442
0.027206
-0.172623
-0.0664311
-0.00186914
-0.36874
-0.0109681
-0.294216
0.0114578
-0.00352747
-0.274125
-0.114825
-0.127166
-0.171285
-0.390185
-0.0246922
-0.0607253
0.030728
-0.395987
0.0507491
-0.0422114
-0.290516
-0.392412
-0.279427
-0.157231
0.00696259
-0.0782815
-0.233979
-0.232901
-0.0788292
0.188897
0.184379
0.031809
-0.00329093
-0.117517
-0.00266004
-0.382691
-0.0422712
-0.0194809
-0.0119716
-8.67392e-05
-0.212853
-0.152795
-0.110827
-0.0579516
-0.00421025
-0.00546577
-0.412728
-0.409977
-0.158693
-0.0148995
0.00311602
-0.165291
-0.186246
0.316706
0.00629358
-0.125783
-0.173056
-0.100196
-0.0178606
-0.082724
-0.344692
-0.152633
-0.160302
-0.284006
0.267841
-0.388129
0.160694
-0.0956836
-0.270177
0.0468026
0.0314172
0.199036
-0.267665
0.0123525
-0.0108854
-0.394438
-0.0769888
-0.13094
-0.0801195
-0.210845
-0.157078
-0.197895
0.0502459
0.0397567
0.0125435
-0.309884
-0.0935736
-0.0446151
0.00813082
-0.06106
-0.115003
-0.0842127
-0.118877
-0.0892886
-0.0920868
-0.269723
-0.0121122
-0.233177
0.014612
-0.00432714
-0.135191
0.00684785
-0.275849
-0.121278
-0.0887799
-0.00491109
-0.0644106
-0.0879274
-0.183026
-0.188882
-0.0170905
-0.0981552
-0.373597
-0.0770453
-0.124323
0.125915
0.0457415
-0.00569746
-0.264832
-0.0942785
-0.120058
-0.0666346
0.010627
-0.0763493
-0.121899
-0.0300657
-0.0247218
0.260045
-0.272454
-0.246593
-0.213045
-0.0858102
-0.179208
-0.246475
0.0842132
-0.0874736
-0.104577
-0.0590447
-0.0724747
0.00369207
-0.27632
0.0143938
-0.122318
-0.00557585
0.0411493
-0.154376
-0.0290385
0.363412
-0.0050627
-0.141711
-0.127897
-0.278546
0.115014
-0.0874533
0.0140485
0.204182
0.0153574
-0.118708
-0.411305
0.121202
-0.0589108
0.0276396
-0.210043
-0.00940524
-0.39029
-0.217193
-0.222794
0.00824577
-0.327646
-0.166558
-0.0686655
-0.0730759
-0.0901243
0.216878
-0.152521
-0.0640477
-0.151821
-0.0322402
-0.0716743
-0.166321
-0.00205764
-0.0650351
-0.0772221
-0.0584822
-0.0555774
-0.00544493
0.330834
0.0295068
-0.128846
-0.190166
-0.0668265
-0.115001
-0.169729
0.0200903
0.191614
-0.0858483
-0.193275
0.0231522
0.041391
0.119996
-0.112735
-0.411514
-0.105255
-0.0156891
-0.182195
-0.194133
-0.113336
-0.11322
-0.116721
-0.217702
-0.0701608
-0.0819809
-0.368806
-0.00555155
0.0118059
-0.115754
-0.140178
-0.010472
0.0136555
0.0158763
0.00373512
-0.0868821
0.0120719
-0.10176
-0.103385
0.00649722
-0.0642716
-0.162103
0.0482409
-0.140819
-0.25018
0.0480315
0.0494366
-0.105692
-0.136816
-0.353031
-0.136975
0.00571291
-0.228822
0.0145736
-0.143616
-0.251852
-0.186403
-0.0433607
-0.3533
-0.328196
-0.374141
-0.213185
0.214867
-0.284919
-0.168882
-0.205164
-0.0259192
-0.390774
-0.0593695
0.318638
0.29924
0.0852239
-0.139842
0.0685445
-0.0598968
0.205188
0.000188303
-0.0104613
-0.0528381
-0.378191
0.356657
-0.00575145
-0.274712
0.0790947
-0.0835726
-0.0447174
-0.133878
-0.179434
-0.0752798
-0.00324581
-0.0561877
-0.0579925
0.0457329
-0.19772
-0.0686547
-0.107141
0.0838528
0.0303243
0.00564804
-0.227501
-0.241486
-0.163192
-0.337765
-0.0571352
0.0112269
-0.215709
-0.135806
-0.0153374
-0.182553
-0.131657
-0.235775
-0.050877
-0.0698522
-0.079952
-0.323249
-0.225284
-0.0621229
-0.0285253
-0.123083
-0.399178
-0.0851275
-0.072928
-0.092708
-0.223313
-0.0809359
-0.0613931
-0.172593
-0.265044
0.0395903
-0.0676172
-0.14524
-0.0660721
0.00338321
-0.105169
-0.151777
0.0263613
-0.088994
-0.411766
-0.0492123
-0.330803
-0.0726987
-0.349959
-0.062028
-0.0734444
-0.136055
-0.190418
-0.118403
-0.0557611
-0.167249
-0.315265
0.0209715
-0.223239
-0.0937855
-0.0706495
-0.0132788
-0.388811
-0.179103
-0.307964
-0.0558266
-0.173482
-0.103319
-0.411074
-0.0135016
-0.389817
-0.274751
-0.404472
-0.0369516
-0.229307
0.0350105
0.0066501
-0.089883
-0.107404
0.0327961
-0.0545166
-0.0906937
-0.00237813
-0.180474
-0.140125
-0.131624
-0.059242
-0.0292912
0.051279
-0.319228
0.00777193
0.0503637
-0.0618009
-0.155602
-0.0144383
-0.08249
0.0280388
0.0113627
-0.0515954
-0.165829
-0.0689181
0.00390436
-0.038737
-0.154817
-0.0466558
-0.360788
0.0131401
-0.0585598
-0.0675527
0.0714798
-0.00996421
0.0160201
-0.0587169
-0.0325863
-0.294302
-0.0620343
-0.0915153
-0.0944342
-0.0533515
0.0175905
-0.147555
-0.0814649
0.130997
0.0248694
-0.166694
0.152282
-0.319585
0.0324693
-0.0855663
-0.230037
-0.0730531
-0.169648
-0.101628
-0.307442
0.0438516
-0.214818
0.0187516
-0.0626484
-0.07318
-0.120088
-0.0922158
-0.0035337
0.0655262
-0.135916
0.00612093
-0.409996
-0.150201
-0.363269
-0.410256
-0.0615958
-0.332033
-0.19399
0.104644
0.0210427
-0.343703
0.0321106
0.00356671
0.108612
-0.268633
-0.0522226
0.0514594
-0.0925778
-0.126179
0.0346265
-0.29938
0.00829438
-0.164337
-0.287194
0.0110311
-0.0469107
-0.273837
-0.190431
-0.00983958
-0.353212
-0.376726
-0.0186944
-0.342759
-0.205537
-0.145931
0.0455293
-0.064688
-0.201394
-0.0190979
-0.233992
0.000298725
0.00788475
-0.0614922
-0.22297
-0.107635
-0.0676742
0.0329428
-0.0784752
-0.170437
-0.298247
-0.0217594
-0.35687
0.00408705
-0.000885742
-0.119816
-0.0546147
-0.0136657
0.00119341
-0.33869
-0.258309
-0.340746
-0.0501667
0.0291289
-0.108573
0.0209785
-0.22421
-0.0626819
-0.0684674
-0.0913035
-0.0666787
-0.21956
-0.0654338
-0.398753
-0.0424478
-0.146683
-0.0645303
-0.0934756
0.00716434
0.0196005
0.176316
-0.335157
-0.0731503
-0.0773025
-0.367332
-0.0544862
-0.07883
-0.408612
-0.302019
-0.122788
-0.161123
-0.108814
-0.0590814
-0.0244516
-0.0771515
-0.223554
0.0182563
-0.291898
-0.259599
-0.0173382
-0.0977774
0.0175044
0.0792341
-0.147516
-0.392749
0.0085941
0.00718106
0.10794
-0.124732
0.0127252
-0.271966
0.00709392
-0.110055
0.0508479
-0.0715144
0.0309332
0.0353312
-0.0864222
-0.354322
-0.120147
-0.282599
-0.0861612
-0.00222279
-0.017567
-0.138245
-0.0376265
-0.185217
-0.0564687
0.131996
-0.0759936
0.021705
-0.0554481
0.0140111
-0.0718707
-0.398937
-0.0819948
0.134187
-0.385048
-0.0807132
-0.252759
-0.259282
-0.0235709
-0.3078
0.0735703
-0.0879468
-0.409566
-0.25898
-0.0155457
-0.182819
-0.0294886
-0.058885
-0.287805
-0.00593937
0.271408
-0.196874
0.0179928
0.0179764
-0.0733911
-0.0547361
-0.0684907
0.0492799
-0.176689
-0.0449376
0.0363829
-0.0732853
-0.176873
-0.231436
-0.012617
-0.0872295
0.0920332
-0.0716202
0.0652696
0.0120924
-0.139428
0.10446
-0.0845416
-0.109772
-0.113052
-0.107922
-0.269965
-0.209699
-0.114056
-0.348574
-0.0811317
-0.124219
-0.0143265
-0.0623198
-0.145175
-0.0169696
-0.0776298
-0.205777
-0.0401568
0.0111125
0.010048
-0.0734597
-0.060819
-0.0600494
-0.219932
-0.00183398
-0.070185
-0.0441044
-0.253681
-0.182536
-0.0643282
-0.0536832
-0.254779
-0.232008
-0.0138032
-0.105656
-0.0282284
-0.354037
-0.0727595
-0.11282
-0.0914014
-0.293717
0.0342027
0.0144142
0.0809573
0.036958
-0.0659675
0.00406375
-0.0733183
-0.108325
-0.186295
-0.292815
-0.233286
-0.114607
-0.262956
0.131738
0.0253572
0.0401322
-0.00996058
-0.016986
0.00693047
-0.144806
-0.205369
0.0930527
-0.205153
-0.00436929
-0.103391
0.022779
-0.411359
-0.106926
0.022938
0.0268854
-0.0841972
-0.0657623
-0.0914278
-0.258689
-0.0943308
-0.122258
-0.0182985
-0.161936
0.0345045
-0.0533019
-0.0749277
0.0252421
0.0480211
-0.0213181
-0.0755487
-0.0673049
-0.0766606
-0.092331
-0.28097
-0.299515
0.129153
0.0305997
-0.062289
-0.00972265
-0.0608101
0.00836636
-0.04723
-0.282691
-0.0958366
-0.112454
-0.188037
-0.121329
0.0239929
0.0222637
-0.150775
-0.025968
0.0239078
-0.0585805
-0.275813
0.00500262
-0.240975
-0.320556
-0.0830544
-0.185886
-0.405742
0.168165
0.02546
-0.225158
-0.00117543
-0.0683935
-0.109346
-0.0582358
-0.296589
-0.0619408
-0.0100979
-0.00603956
0.00587537
0.015834
-0.00826465
-0.395996
-0.127137
-0.0783471
-0.0714419
-0.0972378
0.0383276
-0.00835855
-0.360997
-0.133446
-0.0491422
0.0241512
-0.108701
-0.225616
-0.220866
0.0502985
0.00982931
-0.0672604
0.0644392
-0.0918933
-0.00220193
-0.264877
-0.00165321
-0.396929
0.0281987
-0.213847
-0.0982737
0.0274476
-0.0934807
0.0279478
-0.0542286
0.00582614
-0.0714495
0.0610809
-0.0560124
-0.0302617
-0.140886
-0.137922
-0.0869307
0.00460434
-0.411124
-0.0647274
-0.0678492
-0.0938536
0.0401835
-0.0556037
-0.0176958
-0.207517
0.019817
0.00555443
-0.0914542
-0.0921238
0.016007
-0.0598135
-0.195484
-0.0392778
-0.19809
-0.00466227
-0.122443
0.0234355
0.00501808
0.0487825
-0.0105181
0.0194094
-0.214332
-0.118138
-0.0294468
0.00713558
-0.109309
-0.000530648
-0.410883
-0.229475
-0.122376
-0.288174
-0.0539616
-0.0856707
0.0182533
-0.101145
-0.0324293
-0.0230511
0.00853922
-0.322772
-0.286437
-0.119865
-0.36846
-0.101414
0.0277643
-0.113236
-0.0931458
-0.33944
-0.0847517
-0.0862769
-0.13611
0.0133759
-0.399495
-0.398144
-0.0663623
-0.26439
-0.0597366
0.0412116
0.197426
0.0509394
-0.151704
-0.038773
0.000295036
-0.200414
-0.000463195
0.00458168
0.00591343
0.00086408
-0.266752
-0.201571
0.000841314
-0.115402
-0.131205
-0.0190662
-0.37582
0.0640728
-0.10276
-0.2318
0.012871
-0.0722584
-0.050605
-0.0901321
-0.0126734
-0.00319719
-0.26492
-0.0720387
-0.196727
-0.0307529
-0.0575937
-0.0838199
-0.159807
-0.311822
-0.0567014
-0.0914913
0.0314821
-0.0093438
0.0188472
-0.0605313
0.0264666
-0.172799
-0.0128765
0.091655
0.127482
0.0391923
-0.00444936
-0.0477278
-0.0462327
-0.0469523
-0.0253376
-0.25136
-0.0699338
-0.0807748
-0.106867
-0.203964
0.0507136
-0.371167
-0.00931435
-0.0166951
0.0627787
-0.00710403
-0.070912
0.0180559
0.000384551
0.207701
0.0407576
-0.270431
-0.0356777
-0.295908
-0.196215
-0.167376
-0.230592
-0.0263004
-0.295155
-0.15508
0.0140511
-0.0438028
0.0499329
-0.369229
0.0675043
0.182417
-0.185421
-0.411778
-0.1603
-0.0208104
-0.067314
-0.18076
-0.0576887
-0.0471959
-0.00279068
-0.0214307
-0.134836
0.0333631
-0.199588
-0.227872
0.0211468
-0.138485
-0.274692
-0.0206461
-0.248986
-0.393988
-0.123721
-0.0311154
-0.0659286
-0.142074
0.00912277
-0.0773791
0.0276618
-0.0184054
0.0113277
-0.0650985
-0.0627982
-0.105416
-0.397608
-0.074361
-0.096195
-0.0721499
0.0306203
0.293584
0.0105153
-0.346497
-0.0222938
0.00643428
0.0112364
-0.0265651
-0.123135
-0.0562858
-0.0899902
-0.222979
-0.319884
0.107782
0.0247574
-0.0347756
-0.270297
-0.022008
-0.00828342
-0.110955
-0.285073
-0.0664165
-0.00994118
-0.078977
-0.094545
-0.154621
-0.392697
-0.0186588
-0.0134827
-0.043546
-0.30771
-0.0570548
-0.176275
0.01494
0.00996264
-0.0189008
0.00981879
-0.00847427
-0.118775
-0.059089
-0.0894483
0.134468
0.0186712
-0.332346
-0.0329092
-0.23208
-0.202668
0.115079
-0.356521
-0.0654111
-0.404234
-0.0746695
-0.08272
-0.123646
-0.0833772
0.0413181
-0.00496524
-0.252585
-0.0225389
-0.106074
0.0315743
-0.0989072
-0.309876
-0.00899772
0.048724
-0.0763981
-0.278284
-0.0880309
0.00862421
-0.0643103
0.0756512
-0.0563954
-0.0314135
0.0241918
-0.0654286
-0.0650266
0.0319882
-0.0806034
-0.0634855
0.017746
-0.0559586
-0.0596253
-0.290284
-0.0571544
0.015813
-0.0193312
-0.0498438
0.0471577
-0.0848781
-0.0886103
0.0239872
-0.0886975
0.100976
-0.139966
-0.0985667
-0.133556
0.0747271
-0.0151801
0.195771
-0.142729
-0.140445
0.0216233
-0.0594818
-0.176655
-0.394249
-0.332864
-0.100704
-0.0946641
-0.155709
0.0226119
0.0284137
-0.0254379
-0.0745508
-0.0697993
-0.143735
-0.405753
-0.029937
-0.00822277
0.0329768
-0.0685189
-0.0112878
-0.0652992
0.00827935
-0.0676792
0.0491493
-0.000696629
0.0225405
0.0122288
0.00728153
0.0850782
-0.0868353
0.037059
-0.184199
0.0269332
0.00940847
-0.167292
-0.139396
-0.0624737
-0.0742101
0.147039
-0.0650459
-0.00287751
-0.060709
-0.0135396
0.027613
-0.046973
-0.393149
-0.0424712
-0.142164
-0.357943
-0.0311238
-0.00672027
0.100208
-0.117452
0.0129887
-0.0709904
-0.0250145
-0.0752341
0.0270212
-0.0286751
-0.0691662
0.102248
0.0429073
-0.0961516
-0.387475
-0.0690896
-0.149148
0.0352374
-0.341365
-0.149261
0.0246889
-0.318547
0.0473209
0.199926
0.0471363
-0.0270014
0.00513816
0.0358331
-0.00290146
0.117663
-0.112696
-0.0218539
0.0285168
0.247515
-0.0165315
-0.335538
0.0271819
-0.0898233
-0.0681098
-0.182367
-0.201529
0.0236321
-0.122012
-0.00235615
-0.0564977
-0.127309
-0.0733132
-0.0931323
0.0123679
-0.085086
0.192861
-0.103824
-0.199637
0.0531469
-0.201539
-0.0797713
-0.105149
0.0472414
-0.0140605
-0.0836147
-0.412249
-0.0382925
0.00950906
-0.385061
-0.00181934
-0.105194
0.0102663
-0.157497
-0.336831
-0.0132811
-0.409864
-0.0645842
0.00976804
-0.0862612
0.000401258
0.197111
-0.0572275
-0.107942
-0.0806253
0.00498331
0.0132972
0.210065
0.0212513
0.0242509
-0.06248
-0.0811766
-0.116317
-0.167713
0.0316316
-0.0785503
-0.0125856
0.0176547
0.021349
0.0247055
-0.335232
-0.0222113
0.0661417
-0.0842676
-0.00210115
0.00832284
-0.120058
0.0241199
-0.287499
-0.0439782
-0.103649
-0.169673
0.153618
-0.346673
-0.155766
-0.071568
-0.0305797
-0.227104
-0.0519726
-0.0141051
0.0016179
0.0673498
-0.084323
0.0117636
-0.120418
0.00281284
-0.0178677
-0.389399
-0.272375
-0.236156
-0.0464674
0.203097
-0.223902
-0.409633
0.0214321
-0.0635765
-0.17784
-0.0277971
-0.106544
-0.349155
-0.0824169
-0.0619696
-0.0852899
0.00459532
-0.278609
0.0224908
0.046946
-0.21558
0.0334155
-0.00575783
-0.334751
-0.118973
-0.0912969
-0.152215
-0.0752363
0.0464
0.00325874
-0.0291279
-0.357795
-0.222969
-0.186285
-0.141569
0.0374072
-0.248128
0.0272579
-0.219905
0.117135
-0.0412476
-0.105596
0.0198592
-0.250924
-0.315607
-0.0178233
-0.127379
-0.0710595
-0.355247
-0.120787
-0.0750879
-0.0879721
-0.0700449
-0.0686322
-0.0808472
0.0269187
-0.0736737
0.288516
-0.0645373
0.0162632
-0.0849428
-0.124819
-0.0724407
0.0136946
-0.329316
-0.0633314
0.0343296
-0.00704486
-0.0915185
-0.0883013
0.0482827
0.0063378
0.00802346
-0.124984
-0.29449
-0.148937
0.0245503
0.0629301
-0.0712953
-0.206559
0.0207604
-0.17735
-0.379689
-0.0834397
-0.0825991
-0.061248
-0.237461
-0.263942
0.0225093
-0.317343
0.00772141
-0.0167432
-0.0736764
-0.0899783
-0.177078
-0.07804
-0.058994
-0.0821616
-0.0846225
0.0112347
-0.0111533
0.103643
-0.05996
0.0681918
-0.201777
-0.0353209
-0.00194849
0.0102602
-0.0614694
-0.16989
0.0322738
-0.0557744
0.0795101
-0.141317
-0.222146
-0.0729009
-0.0664368
-0.187131
-0.318938
-0.156803
-0.0710375
0.00317193
0.352402
-0.00854561
0.115961
-0.365177
-0.0612052
-0.246434
-0.327029
0.0261966
-0.139162
0.00274918
-0.0895998
0.0205623
-0.0636525
-0.213986
-0.0456967
0.00497709
-0.24541
0.196362
0.0197016
-0.360782
0.031049
0.0362353
-0.0602369
0.0485096
-0.0799108
0.0811703
0.0378583
-0.058339
-0.288136
-0.0962758
-0.147394
0.0202012
-0.239556
-0.0592042
0.00510158
-0.0942266
0.0235504
0.10539
-0.164824
0.00527358
0.0397702
0.0715703
-0.247269
0.0192457
0.00989787
-0.10963
-0.0598799
0.00466268
0.0374055
-0.0216783
-0.192753
-0.123321
-0.109476
-0.132806
0.0304581
0.218424
-0.00742384
-0.180969
-0.072
0.032281
-0.0534828
-0.186373
0.00932682
-0.0274447
-0.157964
-0.0592944
-0.0322275
-0.162716
0.013408
-0.00818516
-0.136354
0.0152234
-0.0222832
-0.260251
0.0192326
-0.102465
-0.0850814
-0.364213
-0.191473
-0.0216857
0.0903925
0.0993077
0.0107197
0.0330405
0.0223616
-0.0629712
0.0174371
-0.0669277
-0.101656
-0.00604467
-0.0168315
-0.0815101
-0.103585
-0.090538
0.0198023
-0.151279
0.00321944
-0.0983092
-0.15033
-0.0544508
-0.0844667
-0.114471
-0.172942
-0.409174
-0.0626188
-0.0566674
-0.144912
-0.410591
-0.0552161
0.00141562
-0.102043
0.165731
-0.0180464
-0.0327265
-0.0911086
0.0136248
-0.012304
0.0190558
-0.0129587
-0.0449733
-0.0236531
-0.376329
0.00493641
-0.32778
0.0111776
-0.0947967
-0.0241368
-0.111657
-0.109829
0.0322544
-0.116507
0.0889914
0.0190946
-0.0897228
-0.0126937
0.0459487
-0.0209984
-0.0590078
-0.0114825
-0.111053
0.307943
-0.114432
0.000551796
-0.0661763
-0.20452
-0.105127
-0.025563
-0.0389331
-0.0751646
-0.143856
-0.310692
-0.0109864
-0.410585
0.00810441
0.171989
-0.361564
-0.085575
-0.0604662
-0.0171548
-0.0891428
0.0137247
-0.313195
-0.0746956
0.00713993
-0.0972764
-0.183637
-0.0249309
0.0272419
0.00903839
-0.303271
0.0188728
0.00373518
-0.147525
0.0288837
0.0217027
-0.119317
-0.0196675
-0.123099
-0.00847284
0.0300437
0.000478254
0.109623
-0.0295275
-0.0249903
-0.0994962
-0.142476
0.0180409
0.0283527
-0.1843
-0.0298395
-0.410484
-0.036728
-0.333523
-0.00674653
0.0322441
-0.0025963
-0.0602393
-0.143196
0.00252227
0.0149593
0.119387
0.00647403
0.0274674
-0.0592337
0.00714553
-0.0868244
-0.00897944
-0.0635476
0.0215858
-0.186274
-0.00133117
-0.0799779
-0.00361768
-0.233855
-0.30122
-0.0120744
-0.0652291
-0.286641
-0.103113
-0.0690904
-0.0621601
-0.252248
0.0787228
-0.0942754
-0.159796
-0.194192
-0.0277337
-0.0633169
0.0971054
0.00118069
-0.0562414
-0.41049
-0.115325
-0.156122
-0.252882
-0.0588188
-0.102931
-0.0178906
-0.0115179
-0.188555
-0.318349
-0.206501
-0.218225
-0.171413
-0.00296239
-0.324845
-0.0780482
-0.369604
0.00982101
-0.319039
-0.404021
-0.305697
-0.117946
-0.12632
-0.0911637
-0.0794325
-0.209592
0.105448
0.0103244
-0.314455
-0.125617
-0.0114368
-0.177225
0.0178003
0.00920331
-0.0983963
0.0884958
-0.247062
0.0791401
-0.410923
-0.0745309
0.112413
-0.149868
-0.242261
-0.15911
0.0595365
0.10049
-0.149353
-0.0521046
-0.001498
-0.125116
0.0453091
-0.21021
0.0156997
-0.202496
0.00827031
-0.0946344
-0.0664271
-0.0677099
0.076735
-0.195973
-0.360358
0.0342528
0.0069896
-0.371096
-0.273239
-0.0367374
-0.0527267
0.0177661
-0.135787
-0.0553448
-0.06244
-0.17889
0.0476481
0.00891068
0.233806
-0.0213351
-0.158898
-0.274101
-0.000622421
0.0194749
-0.0493433
0.0131404
-0.0475751
0.00349271
-0.0308252
0.0968579
0.0108691
0.0170743
0.0478859
-0.0809056
-0.197201
0.012639
-0.183729
-0.356425
-0.00769089
0.0765503
-0.204598
-0.170522
0.041593
-0.122122
-0.0702987
0.166591
-0.0792028
-0.0240131
0.00884298
-0.318062
-0.0494238
-0.0797588
0.0442511
0.033689
0.0155262
-0.123381
0.0164711
-0.113278
-0.0878414
-0.162022
0.00602918
-0.157338
-0.330551
-0.180169
-0.00319383
-0.217872
0.159363
-0.326098
-0.276832
0.0642475
0.00228764
-0.229617
-0.16546
-0.0848702
-0.100616
-0.0918837
0.00767308
-0.0164235
-0.0452591
0.0166631
0.0484569
-0.226487
0.0148545
0.191874
-0.00799372
-0.22351
-0.168417
-0.141802
-0.0652914
-0.182017
0.0452146
0.0215646
-0.253943
-0.0116053
-0.012072
-0.00842176
-0.186365
-0.168815
-0.313965
0.0891305
-0.0282539
-0.0154288
-0.0204098
-0.123487
0.00618093
-0.0623848
-0.223332
0.0208441
0.0250494
-0.0923377
-0.0865223
-0.0399432
0.0258504
-0.201729
-0.226737
-0.0225625
-0.131794
0.0148408
-0.16951
-0.242449
-0.0360667
-0.411118
-0.405466
-0.194245
-0.00771721
-0.0279533
0.0193342
0.0239267
-0.142684
0.00468094
-0.229152
-0.0727183
-0.296291
-0.031013
-0.140157
-0.181293
-0.127146
-0.247787
-0.351883
-0.00873321
-0.0615131
-0.0626727
-0.0715424
-0.0803255
-0.0124533
-0.0635792
-0.0170985
-0.085985
0.0431785
0.00333286
-0.257439
-0.106183
-0.410643
0.0158898
-0.137518
-0.0287124
-0.118082
-0.0525168
-0.139425
-0.149708
-0.241121
-0.075051
0.0151772
0.00837891
-0.120669
0.016598
-0.104931
-0.267087
0.00890264
-0.0655381
0.142308
-0.282574
-0.0470125
-0.11602
-0.108941
-0.0199336
-0.193503
0.0192915
-0.0871412
-0.0565156
-0.219302
-0.32926
-0.177261
-0.00418185
-0.110912
-0.0144878
-0.23107
0.00231365
-0.252502
-0.0149822
-0.123321
-0.013368
0.0144
-0.0866773
0.0943404
0.0352502
0.00960897
-0.0800988
-0.0753227
0.00529498
-0.0894544
-0.0645787
-0.249074
0.034603
-0.352528
-0.0166627
-0.0730873
-0.0654505
-0.0070802
-0.151127
0.0147768
-0.365249
-0.0906082
-0.051858
0.0280434
-0.278597
-0.106711
-0.0155028
-0.159711
-0.225796
-0.174812
-0.0173202
-0.188086
0.0240489
-0.22118
-0.0633228
-0.170584
-0.252913
-0.0885611
0.16025
-0.171949
-0.109566
0.016845
-0.00345024
-0.153154
-0.153216
-0.182499
0.242778
0.00919217
-0.0588893
-0.181099
-0.277383
-0.0815018
-0.267887
-0.0779111
-0.350214
-0.330072
0.014812
0.0941392
0.0232232
-0.0200654
-0.0124009
-0.127475
-0.00777964
0.0735695
-0.327605
0.0108903
-0.000146398
-0.0726032
-0.18028
-0.0728218
-0.0047232
-0.250698
-0.0462404
-0.074961
0.020026
-0.387799
0.0727662
-0.211744
0.0275063
-0.093765
-0.123642
0.0234489
-0.413869
-0.177349
-0.15779
0.0149525
0.0014175
-0.0933436
-0.388663
-0.0602406
-0.0185754
-0.160295
-0.172374
-0.0238625
0.00874528
-0.00219241
-0.166286
0.115035
-0.0616442
-0.0490929
-0.0596227
-0.104453
-0.171419
-0.178319
-0.0511322
-0.0885357
-0.0131193
-0.184218
-0.1344
0.0291535
-0.0586779
-0.347462
-0.197192
-0.0589827
-0.405353
-0.345659
-0.249582
0.0766819
-0.0217625
-0.216818
-0.258053
-0.255237
0.0169594
-0.101916
0.0378886
0.0170164
-0.0607384
-0.220646
-0.115711
0.0158009
-0.116531
-0.138899
-0.121776
-0.136022
-0.289094
-0.0980492
0.00164353
-0.145252
-0.0632329
-0.279187
-0.0676807
-0.108695
0.0489311
0.00156944
-0.106593
-0.119189
-0.0139618
-0.0824499
-0.0714037
0.0181862
-0.0712824
-0.0957851
0.0441424
-0.0804616
-0.184278
-0.0747263
0.0278388
0.308148
-0.125877
-0.0590642
-0.110419
-0.0210511
-0.0798404
-0.0471451
0.0417121
-0.00731847
0.146066
-0.0741378
-0.0856545
-0.246817
0.00912912
-0.020745
-0.0828542
-0.0627334
-0.250512
-0.183053
-0.0825491
-0.0128305
0.0355535
-0.0831096
-0.0139161
-0.290587
0.0338571
0.0175988
-0.00925921
-0.0579312
-0.373337
0.0471279
-0.102047
-0.0452541
0.00468248
-0.0807203
0.150215
-0.096119
-0.0986235
-0.410914
-0.0647019
-0.232621
-0.0990354
-0.260486
-0.0737166
0.00244204
-0.00357989
-0.128388
-0.16251
-0.00183681
-0.00134981
-0.0765336
-0.144797
-0.0679126
-0.410484
-0.115507
0.0167862
-0.230679
0.00761674
-0.0743582
0.027294
-0.157722
0.00603117
-0.056062
-0.132097
-0.0851606
0.0260538
-0.0611226
0.110603
-0.110366
-0.240557
-0.0702149
-0.000788471
-0.179883
-0.106406
-0.223293
-0.127419
-0.146517
-0.0116926
-0.0987469
-0.0200877
-0.349202
0.0125502
-0.0790554
-0.114232
-0.280158
-0.0108406
0.0106002
-0.358396
-0.111731
-0.352761
0.15846
0.0252617
-0.114942
-0.142038
0.160681
-0.0693459
-0.0765421
-0.214331
-0.0487449
0.018267
0.00731701
-0.265003
0.0591648
-0.17133
0.0387368
-0.00761579
-0.259817
-0.0599453
-0.0184705
0.0148025
-0.0811634
-0.205405
-0.0797532
-0.10735
0.0839128
-0.145704
0.0213108
-0.222027
-0.0841555
-0.111022
0.199974
-0.049942
-0.116106
0.129951
-0.0194043
-0.109182
-0.407984
-0.0569697
-0.0258665
-0.334023
-0.102638
0.0156968
0.0646068
-0.122008
-0.151035
0.1233
-0.0891249
-0.253701
-0.0273335
-0.100387
-0.0120552
-0.0646071
-0.143349
-0.360853
-0.0907237
-0.0669574
-0.169998
-0.0585841
-0.170565
-0.0411195
-0.115233
0.0313568
-0.0619379
-0.189884
0.0218375
0.00631618
-0.0573655
0.0464934
0.0257266
-0.138971
-0.0918317
-0.185982
-0.0579203
-0.188685
0.00635299
-0.0629011
-0.104203
0.00971782
-0.114162
-0.334283
-0.25853
-0.0655083
-0.0968452
-0.0589501
0.00201577
0.0743052
-0.140092
-0.114673
0.0268672
-0.0719869
0.0282595
-0.089746
-0.122065
0.117258
-0.0985042
-0.0838249
-0.117076
-0.0821298
0.233461
-0.375407
-0.289069
-0.0572509
-0.0110583
-0.063685
0.00332854
-0.0110021
-0.328255
0.0196366
-0.0663188
0.0479301
-0.195363
-0.0553711
0.0203158
-0.36266
0.114792
0.0786373
-0.0566368
-0.24714
-0.313939
-0.0606556
-0.0655106
0.0481294
-0.0717864
-0.147823
-0.0792868
0.0242769
-0.197078
-0.129963
-0.0439423
-0.0660521
-0.105674
-0.000354244
-0.240139
-0.150963
-0.0808531
0.0194734
-0.232807
-0.00391857
-0.138979
-0.0719657
-0.194878
0.000860689
-0.106464
-0.411528
-0.0445399
-0.152869
-0.0621348
-0.112714
-0.217699
-0.123669
0.0770464
-0.390728
0.00139852
-0.0601366
0.0155921
-0.0395553
-0.129587
-0.0599201
-0.0540042
0.286622
-0.210913
-0.0704533
-0.0233755
0.0476613
-0.118995
-0.31621
0.110139
-0.342189
-0.153604
-0.0662985
-0.0802223
-0.145426
-0.0951635
0.176252
-0.120169
0.00257075
-0.042359
-0.0281724
-0.344042
0.0268948
-0.0736776
-0.00978368
-0.104819
-0.0777402
-0.113832
-0.137492
0.0751116
-0.198672
-0.0108927
0.0466048
0.0162426
0.0244074
-0.0537508
0.00841053
-0.0993523
-0.221339
-0.107062
-0.108232
-0.0540606
-0.00814409
-0.0676427
0.020585
-0.107138
-0.160559
-0.396586
-0.088344
-0.0735026
-0.0596396
0.0200931
0.0626343
0.161549
-0.110885
-0.225603
-0.10043
-0.364692
-0.082479
0.0101166
-0.000999655
-0.0569937
0.0102083
-0.0784919
0.219237
-0.248933
-0.0436905
-0.159219
0.0252878
-0.0342081
0.038246
0.0431181
0.0564341
-0.0909569
-0.0114366
-0.067225
0.171311
-0.102371
-0.090907
-0.195161
-0.170556
-0.265692
-0.076603
-0.0446296
-0.0217288
-0.0850649
-0.058802
-0.241052
-0.0662009
-0.0753758
-0.217077
-0.0825909
-0.0372408
0.0136859
-0.073816
0.0194062
-0.0629863
-0.401821
0.0168031
-0.0149152
-0.291274
-0.0602772
-0.0772428
-0.327651
0.0449076
-0.0953702
-0.110398
-0.256159
0.133752
0.0169608
-0.0641716
0.251887
0.0327208
-0.0983941
0.0211061
-0.214812
-0.0704748
0.245819
-0.317857
0.115805
-0.173771
0.00856623
-0.38578
0.0416909
-0.0600609
-0.00409886
-0.121034
0.00950062
0.0393183
-0.0603834
-0.25742
-0.122864
-0.0423768
0.149435
-0.00703459
-0.00312822
-0.0417825
-0.113035
-0.0585899
-0.208571
-0.138016
-0.212168
0.0206269
-0.221762
-0.250397
-0.180582
-0.0455533
-0.225927
0.0172504
-0.0124586
0.0151756
-0.314153
-0.01871
0.0278818
-0.0641018
0.0188379
-0.215808
0.0697137
-0.0209653
-0.115998
-0.0512115
-0.199603
-0.0106469
-0.167621
-0.0174896
0.216184
-0.412949
-0.125091
0.012714
-0.0561904
-0.118283
-0.063346
-0.223771
-0.0849294
-0.0449401
-0.205893
0.00129324
-0.0298776
-0.361646
-0.0736039
-0.0559493
-0.0718261
0.018671
-0.00283112
0.00887899
-0.0558782
0.0396287
0.0262592
-0.177036
-0.416896
0.130359
-0.410482
-0.0746074
-0.0567443
-0.282096
-0.379048
0.0538285
-0.355463
-0.335371
-0.08134
-0.325329
-0.0823674
-0.121457
-0.0730304
-0.406349
-0.322624
-0.234543
0.0809235
0.0904224
0.0580702
-0.0527988
0.00286082
-0.290341
0.0192057
-0.411525
0.0428675
-0.166317
-0.00947082
-0.108845
0.0818729
0.0841426
0.0239583
0.00651362
0.0773594
-0.0461828
-0.0315351
-0.0679399
-0.325478
-0.0532141
-0.226826
-0.00165886
0.0910843
0.118437
0.0405046
0.00513301
0.00825193
-0.190341
-0.112723
-0.164179
-0.363038
-0.0269037
-0.143925
0.0264037
-0.075243
0.00323162
-0.0116738
0.02153
-0.108004
-0.0086265
-0.0667823
-0.272868
-0.00961627
-0.0802292
0.0215323
-0.31684
-0.228562
-0.403365
-0.117648
-0.222501
-0.216073
-0.077055
-0.238783
-0.0702154
-0.389654
0.0570838
0.168747
-0.298599
-0.240352
0.0278506
-0.410559
-0.206002
-0.171705
-0.00910418
-0.108602
-0.305066
0.0152586
-0.411801
0.103673
-0.267506
0.00786977
0.0460825
-0.156474
0.00778367
-0.0552591
-0.149908
-0.0155181
-0.0235132
-0.0606799
-0.196788
-0.40908
-0.0732322
-0.0290728
0.0572923
0.0156333
-0.0146042
-0.0885667
-0.109233
-0.13934
-0.286944
-0.0825332
0.00362629
0.00441933
-0.158065
-0.408654
-0.259364
0.111207
-0.0111871
0.137435
-0.411265
-0.407577
-0.0130786
0.0139523
-0.309779
-0.0266313
-0.145714
0.075085
0.0187926
-0.0316658
0.100312
-0.180831
-0.302169
0.00897319
-0.015708
-0.0407419
-0.0664457
-0.285723
0.0210649
-0.213789
-0.25461
-0.0127381
-0.061042
-0.0651995
-0.409467
0.0267203
-0.411471
-0.290836
-0.0387777
-0.0397768
-0.0455436
0.334148
-0.238054
-0.0611081
0.0122925
-0.409739
-0.243072
-0.00866254
-0.149147
-0.2086
-0.0801185
-0.202027
-0.281664
-0.167583
-0.256484
-0.0606523
0.0797739
-0.0430825
-0.181341
-0.270522
-0.26564
-0.409567
-0.205415
-0.0138504
-0.0866859
0.00741268
0.0104974
0.0304348
0.0106748
0.024189
-0.0102132
-0.0811016
-0.349426
-0.338408
0.00781857
-0.19865
0.179012
-0.00256223
0.00426525
-0.175582
0.0212933
-0.055949
-0.06473
0.0236633
-0.0134205
-0.0739439
0.0080374
-0.255608
-0.0573176
-0.00574368
-0.0143531
-0.213668
-0.0105684
-0.323333
-0.186344
-0.0121267
-0.116395
-0.0102093
-0.0414541
-0.0235427
-0.176175
-0.0920464
0.0104289
-0.20046
-0.0899163
0.0179863
-0.0153484
0.0357394
-0.0296432
0.0205492
-0.287474
-0.255257
-0.413931
-0.0672056
-0.410373
0.0213647
-0.0619714
-0.0286445
-0.216027
0.0509642
-0.119121
-1.25103e-05
-0.0568648
-0.153096
-0.374036
-0.0833439
-0.000214549
-0.114141
-0.00349766
-0.20638
-0.00959506
-0.013114
-0.0512297
-0.0621345
0.00171305
0.0113898
0.0673656
-0.191463
0.0491297
-0.0205002
-0.0512356
0.00806525
-0.100585
0.020018
-0.409535
-0.0595936
-0.0440589
-0.13984
-0.410864
-0.061123
-0.234553
-0.011185
0.018349
-0.0717736
-0.089372
-0.217119
-0.0600762
-0.0842776
-0.0358204
-0.124308
-0.077352
-0.055471
0.0228838
0.00400813
-0.188972
-0.156639
-0.411401
-0.0569388
-0.00924828
0.0221773
-0.410615
-0.10977
-0.010411
-0.237209
-0.0179124
-0.0858576
-0.0836742
-0.0852862
-0.0259487
0.0170096
0.00587485
-0.0564106
-0.184523
-0.257093
-0.011927
-0.0119486
-0.26191
0.00780985
0.0101979
0.110204
0.102607
-0.0671053
0.0168138
-0.0580432
-0.0781371
0.103598
-0.356981
-0.124352
0.0270854
-0.0559883
0.0334177
0.00711159
-0.40842
0.311945
-0.0613599
-0.0271205
0.019354
-0.145315
0.0912623
0.0230043
-0.0742719
-0.345958
-0.0111663
-0.102651
0.02977
-0.124835
0.0263567
-0.0191402
-0.411684
-0.180868
-0.173716
0.0182386
-0.151527
-0.0169234
0.0224884
-0.0723442
-0.11152
-0.11878
-0.0677154
-0.160507
-0.0402267
-0.0754127
0.232802
0.20005
-0.0206323
-0.0103491