/*--------------------------------*- C++ -*----------------------------------*\
| =========                 |                                                 |
| \\      /  F ield         | OpenFOAM: The Open Source CFD Toolbox           |
|  \\    /   O peration     | Version:  v2012                                 |
|   \\  /    A nd           | Website:  www.openfoam.com                      |
|    \\/     M anipulation  |                                                 |
\*---------------------------------------------------------------------------*/
FoamFile
{
    version     2.0;
    format      ascii;
    class       pointVectorField;
    location    "150";
    object      pointDisplacement;
}
// * * * * * * * * * * * * * * * * * * * * * * * * * * * * * * * * * * * * * //

dimensions      [0 1 0 0 0 0 0];


internalField   nonuniform List<vector> 
14246
(
(0 0 0)
(0 0.066516 0)
(0 0 0)
(0 0.066516 0)
(0 0 0)
(0 0 0)
(0 0 0)
(0 0 0)
(0 0 0)
(0 0 0)
(0 0 0)
(0 0 0)
(0 0 0)
(0 0 0)
(0 0 0)
(0 0 0)
(0 0 0)
(0 0 0)
(0 0 0)
(0 0 0)
(0 0 0)
(0 0 0)
(0 0 0)
(0 0 0)
(0 0 0)
(0 0 0)
(0 0 0)
(0 0 0)
(0 0 0)
(0 0 0)
(0 0 0)
(0 0 0)
(0 0 0)
(0 0 0)
(0 0 0)
(0 0 0)
(0 0 0)
(0 0 0)
(0 0 0)
(0 0 0)
(0 0 0)
(0 0 0)
(0 0 0)
(0 0 0)
(0 0 0)
(0 0 0)
(0 0 0)
(0 0 0)
(0 0 0)
(0 0 0)
(0 0 0)
(0 0 0)
(0 0 0)
(0 0 0)
(0 0 0)
(0 0 0)
(0 0 0)
(0 0 0)
(0 0 0)
(0 0 0)
(0 0 0)
(0 0 0)
(0 0 0)
(0 0 0)
(0 0 0)
(0 0 0)
(0 0 0)
(0 0 0)
(0 0 0)
(0 0 0)
(0 0 0)
(0 0 0)
(0 0 0)
(0 0 0)
(0 0 0)
(0 0.066516 0)
(0 0.066516 0)
(0 0.066516 0)
(0 0.066516 0)
(0 0.066516 0)
(0 0.066516 0)
(0 0.066516 0)
(0 0.066516 0)
(0 0.066516 0)
(0 0.066516 0)
(0 0.066516 0)
(0 0.066516 0)
(0 0.066516 0)
(0 0.066516 0)
(0 0.066516 0)
(0 0.066516 0)
(0 0.066516 0)
(0 0.066516 0)
(0 0.066516 0)
(0 0.066516 0)
(0 0.066516 0)
(0 0.066516 0)
(0 0.066516 0)
(0 0.066516 0)
(0 0.066516 0)
(0 0.066516 0)
(0 0.066516 0)
(0 0.066516 0)
(0 0.066516 0)
(0 0.066516 0)
(0 0.066516 0)
(0 0.066516 0)
(0 0.066516 0)
(0 0.066516 0)
(0 0.066516 0)
(0 0.066516 0)
(0 0.066516 0)
(0 0.066516 0)
(0 0.066516 0)
(0 0.066516 0)
(0 0.066516 0)
(0 0.066516 0)
(0 0.066516 0)
(0 0.066516 0)
(0 0.066516 0)
(0 0.066516 0)
(0 0.066516 0)
(0 0.066516 0)
(0 0.066516 0)
(0 0.066516 0)
(0 0.066516 0)
(0 0.066516 0)
(0 0.066516 0)
(0 0.066516 0)
(0 0.066516 0)
(0 0.066516 0)
(0 0.066516 0)
(0 0.066516 0)
(0 0.066516 0)
(0 0.066516 0)
(0 0.066516 0)
(0 0.066516 0)
(0 0.066516 0)
(0 0.066516 0)
(0 0.066516 0)
(0 0.066516 0)
(0 0.066516 0)
(0 0.066516 0)
(0 0.066516 0)
(0 0.066516 0)
(0 0.066516 0)
(0 0.066516 0)
(0 0.066516 0)
(0 0.066516 0)
(0 0.066516 0)
(0 0.066516 0)
(0 0.066516 0)
(0 0.066516 0)
(0 0.066516 0)
(0 0.066516 0)
(0 0.066516 0)
(0 0.066516 0)
(0 0.066516 0)
(0 0.066516 0)
(0 0.066516 0)
(0 0.066516 0)
(0 0.066516 0)
(0 0.066516 0)
(0 0.066516 0)
(0 0.066516 0)
(0 0.066516 0)
(0 0.066516 0)
(0 0.066516 0)
(0 0.066516 0)
(0 0.066516 0)
(0 0.066516 0)
(0 0.066516 0)
(0 0.066516 0)
(0 0.066516 0)
(0 0.066516 0)
(0 0.066516 0)
(0 0.066516 0)
(0 0.066516 0)
(0 0.066516 0)
(0 0.066516 0)
(0 0.066516 0)
(0 0.066516 0)
(0 0.066516 0)
(0 0.066516 0)
(0 0.066516 0)
(0 0.066516 0)
(0 0.066516 0)
(0 0.066516 0)
(0 0.066516 0)
(0 0.066516 0)
(0 0.066516 0)
(0 0.066516 0)
(0 0.066516 0)
(0 0.066516 0)
(0 0.066516 0)
(0 0.066516 0)
(0 0.066516 0)
(0 0.066516 0)
(0 0.066516 0)
(0 0.066516 0)
(0 0.066516 0)
(0 0.066516 0)
(0 0.066516 0)
(0 0.066516 0)
(0 0.066516 0)
(0 0.066516 0)
(0 0.066516 0)
(0 0.066516 0)
(0 0.066516 0)
(0 0.066516 0)
(0 0 0)
(0 0 0)
(0 0 0)
(0 0 0)
(0 0 0)
(0 0 0)
(0 0 0)
(0 0 0)
(0 0 0)
(0 0 0)
(0 0 0)
(0 0 0)
(0 0 0)
(0 0 0)
(0 0 0)
(0 0 0)
(0 0 0)
(0 0 0)
(0 0 0)
(0 0 0)
(0 0 0)
(0 0 0)
(0 0 0)
(0 0 0)
(0 0 0)
(0 0 0)
(0 0 0)
(0 0 0)
(0 0 0)
(0 0 0)
(0 0 0)
(0 0 0)
(0 0 0)
(0 0 0)
(0 0 0)
(0 0 0)
(0 0 0)
(0 0 0)
(0 0 0)
(0 0 0)
(0 0 0)
(0 0 0)
(0 0 0)
(0 0 0)
(0 0 0)
(0 0 0)
(0 0 0)
(0 0 0)
(0 0 0)
(0 0 0)
(0 0 0)
(0 0 0)
(0 0 0)
(0 0 0)
(0 0 0)
(0 0 0)
(0 0 0)
(0 0 0)
(0 0 0)
(0 0 0)
(0 0 0)
(0 0 0)
(0 0 0)
(0 0 0)
(0 0 0)
(0 0 0)
(0 0 0)
(0 0 0)
(0 0 0)
(0 0 0)
(0 0 0)
(0 0.066516 0)
(0 0.066516 0)
(0 0.066516 0)
(0 0.066516 0)
(0 0.066516 0)
(0 0.066516 0)
(0 0.066516 0)
(0 0.066516 0)
(0 0.066516 0)
(0 0.066516 0)
(0 0.066516 0)
(0 0.066516 0)
(0 0.066516 0)
(0 0.066516 0)
(0 0.066516 0)
(0 0.066516 0)
(0 0.066516 0)
(0 0.066516 0)
(0 0.066516 0)
(0 0.066516 0)
(0 0.066516 0)
(0 0.066516 0)
(0 0.066516 0)
(0 0.066516 0)
(0 0.066516 0)
(0 0.066516 0)
(0 0.066516 0)
(0 0.066516 0)
(0 0.066516 0)
(0 0.066516 0)
(0 0.066516 0)
(0 0.066516 0)
(0 0.066516 0)
(0 0.066516 0)
(0 0.066516 0)
(0 0.066516 0)
(0 0.066516 0)
(0 0.066516 0)
(0 0.066516 0)
(0 0.066516 0)
(0 0.066516 0)
(0 0.066516 0)
(0 0.066516 0)
(0 0.066516 0)
(0 0.066516 0)
(0 0.066516 0)
(0 0.066516 0)
(0 0.066516 0)
(0 0.066516 0)
(0 0.066516 0)
(0 0.066516 0)
(0 0.066516 0)
(0 0.066516 0)
(0 0.066516 0)
(0 0.066516 0)
(0 0.066516 0)
(0 0.066516 0)
(0 0.066516 0)
(0 0.066516 0)
(0 0.066516 0)
(0 0.066516 0)
(0 0.066516 0)
(0 0.066516 0)
(0 0.066516 0)
(0 0.066516 0)
(0 0.066516 0)
(0 0.066516 0)
(0 0.066516 0)
(0 0.066516 0)
(0 0.066516 0)
(0 0.066516 0)
(0 0.066516 0)
(0 0.066516 0)
(0 0.066516 0)
(0 0.066516 0)
(0 0.066516 0)
(0 0.066516 0)
(0 0.066516 0)
(0 0.066516 0)
(0 0.066516 0)
(0 0.066516 0)
(0 0.066516 0)
(0 0.066516 0)
(0 0.066516 0)
(0 0.066516 0)
(0 0.066516 0)
(0 0.066516 0)
(0 0.066516 0)
(0 0.066516 0)
(0 0.066516 0)
(0 0.066516 0)
(0 0.066516 0)
(0 0.066516 0)
(0 0.066516 0)
(0 0.066516 0)
(0 0.066516 0)
(0 0.066516 0)
(0 0.066516 0)
(0 0.066516 0)
(0 0.066516 0)
(0 0.066516 0)
(0 0.066516 0)
(0 0.066516 0)
(0 0.066516 0)
(0 0.066516 0)
(0 0.066516 0)
(0 0.066516 0)
(0 0.066516 0)
(0 0.066516 0)
(0 0.066516 0)
(0 0.066516 0)
(0 0.066516 0)
(0 0.066516 0)
(0 0.066516 0)
(0 0.066516 0)
(0 0.066516 0)
(0 0.066516 0)
(0 0.066516 0)
(0 0.066516 0)
(0 0.066516 0)
(0 0.066516 0)
(0 0.066516 0)
(0 0.066516 0)
(0 0.066516 0)
(0 0.066516 0)
(0 0.066516 0)
(0 0.066516 0)
(0 0.066516 0)
(0 0.066516 0)
(0 0.066516 0)
(0 0.066516 0)
(0 0.066516 0)
(0 0.066516 0)
(0 0.066516 0)
(0 0.066516 0)
(0 0.066516 0)
(0 0.066516 0)
(0 0.066516 0)
(0 0.066516 0)
(0 0.066516 0)
(0 0.066516 0)
(0 0.066516 0)
(0 0.066516 0)
(0 0.066516 0)
(0 0.066516 0)
(0 0.066516 0)
(0 0.066516 0)
(0 0.066516 0)
(0 0.066516 0)
(0 0.066516 0)
(0 0.0665154 0)
(0 0.00354869 0)
(0 0.00396131 0)
(0 0.00433318 0)
(0 0.00539534 0)
(0 0.00479449 0)
(0 0.00572056 0)
(0 0.00463063 0)
(0 0.066516 0)
(0 0.00311791 0)
(0 0.00314117 0)
(0 0.00231983 0)
(0 0.066516 0)
(0 0.066516 0)
(0 0.066516 0)
(0 0.066516 0)
(0 0.066516 0)
(0 0.066516 0)
(0 0.066516 0)
(0 0.066516 0)
(0 0.066516 0)
(0 0.0665159 0)
(0 0.066516 0)
(0 0.066516 0)
(0 0.066516 0)
(0 0.066516 0)
(0 0.00236686 0)
(0 0.00448548 0)
(0 0.00434219 0)
(0 0.0041194 0)
(0 0.00142118 0)
(0 0.00164281 0)
(0 0.000913673 0)
(0 0.00516611 0)
(0 0.00519771 0)
(0 0.00363414 0)
(0 0.00431754 0)
(0 0.00450581 0)
(0 0.0034921 0)
(0 0.00272796 0)
(0 0.00299834 0)
(0 0.00188484 0)
(0 0.000960758 0)
(0 0.000440686 0)
(0 0.0049461 0)
(0 0.00938063 0)
(0 0.00916173 0)
(0 0.0133829 0)
(0 0.0131083 0)
(0 0.0169905 0)
(0 0.0166657 0)
(0 0.0203198 0)
(0 0.0199211 0)
(0 0.0233162 0)
(0 0.022834 0)
(0 0.0259419 0)
(0 0.0253935 0)
(0 0.0283107 0)
(0 0.0277012 0)
(0 0.0304582 0)
(0 0.0310986 0)
(0 0.0330755 0)
(0 0.0337082 0)
(0 0.0355345 0)
(0 0.0361391 0)
(0 0.0378375 0)
(0 0.038419 0)
(0 0.0399895 0)
(0 0.0405867 0)
(0 0.0419999 0)
(0 0.042618 0)
(0 0.0438805 0)
(0 0.04445 0)
(0 0.045617 0)
(0 0.0461555 0)
(0 0.0472391 0)
(0 0.0477296 0)
(0 0.048769 0)
(0 0.0491939 0)
(0 0.0501736 0)
(0 0.0505829 0)
(0 0.0514749 0)
(0 0.0518679 0)
(0 0.0526827 0)
(0 0.053064 0)
(0 0.0538158 0)
(0 0.0541896 0)
(0 0.0534245 0)
(0 0.0544973 0)
(0 0.0540979 0)
(0 0.055118 0)
(0 0.0547119 0)
(0 0.055689 0)
(0 0.0552737 0)
(0 0.0562184 0)
(0 0.0557835 0)
(0 0.0566576 0)
(0 0.0562568 0)
(0 0.0570584 0)
(0 0.0566688 0)
(0 0.0574871 0)
(0 0.0570384 0)
(0 0.0578684 0)
(0 0.0573925 0)
(0 0.058185 0)
(0 0.0572058 0)
(0 0.0577064 0)
(0 0.0584703 0)
(0 0.0579813 0)
(0 0.0587238 0)
(0 0.0582293 0)
(0 0.0589556 0)
(0 0.0584508 0)
(0 0.0591517 0)
(0 0.0577115 0)
(0 0.0586472 0)
(0 0.0593053 0)
(0 0.0587954 0)
(0 0.0594388 0)
(0 0.0589023 0)
(0 0.059525 0)
(0 0.0589957 0)
(0 0.0596057 0)
(0 0.0590689 0)
(0 0.0596834 0)
(0 0.0591103 0)
(0 0.059722 0)
(0 0.0584869 0)
(0 0.0589177 0)
(0 0.0591225 0)
(0 0.0597264 0)
(0 0.0591152 0)
(0 0.0597015 0)
(0 0.0602698 0)
(0 0.0602472 0)
(0 0.0596748 0)
(0 0.0602158 0)
(0 0.0607604 0)
(0 0.0607173 0)
(0 0.0601659 0)
(0 0.0606599 0)
(0 0.061184 0)
(0 0.0611218 0)
(0 0.0605897 0)
(0 0.0610493 0)
(0 0.0605101 0)
(0 0.0609699 0)
(0 0.0614732 0)
(0 0.0614045 0)
(0 0.0608874 0)
(0 0.0613234 0)
(0 0.0618951 0)
(0 0.061727 0)
(0 0.0612343 0)
(0 0.061619 0)
(0 0.0621115 0)
(0 0.061965 0)
(0 0.0614377 0)
(0 0.0618659 0)
(0 0.062306 0)
(0 0.0622184 0)
(0 0.0617661 0)
(0 0.0621116 0)
(0 0.0616438 0)
(0 0.0619942 0)
(0 0.0624375 0)
(0 0.0623222 0)
(0 0.0618691 0)
(0 0.0622005 0)
(0 0.0617377 0)
(0 0.0620731 0)
(0 0.0625115 0)
(0 0.0623856 0)
(0 0.0619395 0)
(0 0.0622542 0)
(0 0.0626767 0)
(0 0.0625476 0)
(0 0.0621173 0)
(0 0.0624143 0)
(0 0.0619758 0)
(0 0.0622785 0)
(0 0.0626902 0)
(0 0.0625583 0)
(0 0.0621407 0)
(0 0.0624219 0)
(0 0.0628196 0)
(0 0.0626875 0)
(0 0.0622774 0)
(0 0.0625475 0)
(0 0.062123 0)
(0 0.0623959 0)
(0 0.0619605 0)
(0 0.0622362 0)
(0 0.0626503 0)
(0 0.0624938 0)
(0 0.0620723 0)
(0 0.0623353 0)
(0 0.0627351 0)
(0 0.0625816 0)
(0 0.0621714 0)
(0 0.0624198 0)
(0 0.0620001 0)
(0 0.0622514 0)
(0 0.0348914 0)
(0 0.0599199 0)
(0 0.0534191 0)
(0 0.0545262 0)
(0 0.0537495 0)
(0 0.0548648 0)
(0 0.0540651 0)
(0 0.056137 0)
(0 0.0649163 0)
(0 0.0651203 0)
(0 0.0649758 0)
(0 0.065172 0)
(0 0.0650202 0)
(0 0.0652146 0)
(0 0.0650565 0)
(0 0.0652499 0)
(0 0.0449952 0)
(0 0.0650868 0)
(0 0.0652724 0)
(0 0.0647104 0)
(0 0.065107 0)
(0 0.0652823 0)
(0 0.0653952 0)
(0 0.0651169 0)
(0 0.065287 0)
(0 0.0649141 0)
(0 0.0651188 0)
(0 0.0652844 0)
(0 0.0654398 0)
(0 0.0654329 0)
(0 0.0652744 0)
(0 0.0654189 0)
(0 0.0652558 0)
(0 0.0653967 0)
(0 0.0655483 0)
(0 0.0655234 0)
(0 0.0433039 0)
(0 0.0656637 0)
(0 0.0656364 0)
(0 0.0654924 0)
(0 0.0656025 0)
(0 0.0657357 0)
(0 0.0657001 0)
(0 0.0655623 0)
(0 0.065659 0)
(0 0.0657867 0)
(0 0.0657444 0)
(0 0.0658622 0)
(0 0.0658188 0)
(0 0.0656984 0)
(0 0.0657727 0)
(0 0.0658825 0)
(0 0.0658366 0)
(0 0.0659382 0)
(0 0.0658928 0)
(0 0.0659856 0)
(0 0.0659384 0)
(0 0.0660255 0)
(0 0.0659765 0)
(0 0.0660599 0)
(0 0.0660106 0)
(0 0.0660888 0)
(0 0.0660405 0)
(0 0.0661136 0)
(0 0.0660668 0)
(0 0.0661347 0)
(0 0.0660899 0)
(0 0.0661527 0)
(0 0.0661098 0)
(0 0.0661701 0)
(0 0.0661282 0)
(0 0.0661855 0)
(0 0.0661453 0)
(0 0.0661981 0)
(0 0.0661578 0)
(0 0.0662086 0)
(0 0.0661689 0)
(0 0.0662173 0)
(0 0.0661782 0)
(0 0.0662246 0)
(0 0.0661851 0)
(0 0.0662311 0)
(0 0.0661925 0)
(0 0.066237 0)
(0 0.0661987 0)
(0 0.0662422 0)
(0 0.0662039 0)
(0 0.0662469 0)
(0 0.0662083 0)
(0 0.0662504 0)
(0 0.0662133 0)
(0 0.0662529 0)
(0 0.0662167 0)
(0 0.066255 0)
(0 0.0662181 0)
(0 0.0662568 0)
(0 0.0662198 0)
(0 0.0662584 0)
(0 0.0662214 0)
(0 0.0662596 0)
(0 0.0662231 0)
(0 0.0662602 0)
(0 0.0662237 0)
(0 0.0662603 0)
(0 0.0662238 0)
(0 0.0662602 0)
(0 0.0662236 0)
(0 0.06626 0)
(0 0.0662229 0)
(0 0.0662599 0)
(0 0.0662224 0)
(0 0.0662602 0)
(0 0.0662215 0)
(0 0.0662589 0)
(0 0.0662206 0)
(0 0.0662565 0)
(0 0.0662184 0)
(0 0.0662536 0)
(0 0.0662153 0)
(0 0.0662501 0)
(0 0.0662121 0)
(0 0.0662472 0)
(0 0.0662062 0)
(0 0.0662439 0)
(0 0.0662023 0)
(0 0.0662411 0)
(0 0.0662015 0)
(0 0.0662381 0)
(0 0.0661987 0)
(0 0.066234 0)
(0 0.066194 0)
(0 0.0662297 0)
(0 0.0661892 0)
(0 0.0662252 0)
(0 0.0661846 0)
(0 0.0662209 0)
(0 0.0661807 0)
(0 0.0662155 0)
(0 0.0661744 0)
(0 0.0662089 0)
(0 0.0661682 0)
(0 0.0662028 0)
(0 0.0661622 0)
(0 0.0661963 0)
(0 0.0661534 0)
(0 0.0661892 0)
(0 0.0661444 0)
(0 0.0661818 0)
(0 0.0661352 0)
(0 0.0661728 0)
(0 0.0661264 0)
(0 0.0661634 0)
(0 0.0661178 0)
(0 0.0661545 0)
(0 0.0661071 0)
(0 0.0661445 0)
(0 0.0660949 0)
(0 0.0661338 0)
(0 0.0660829 0)
(0 0.0661223 0)
(0 0.0661703 0)
(0 0.0661591 0)
(0 0.0661102 0)
(0 0.0661476 0)
(0 0.0662191 0)
(0 0.0662453 0)
(0 0.0662654 0)
(0 0.0662775 0)
(0 0.0662929 0)
(0 0.0662924 0)
(0 0.0661808 0)
(0 0.066181 0)
(0 0.0661677 0)
(0 0.0661307 0)
(0 0.0660668 0)
(0 0.0662926 0)
(0 0.0661567 0)
(0 0.0661048 0)
(0 0.0661425 0)
(0 0.0659207 0)
(0 0.0662872 0)
(0 0.0660548 0)
(0 0.0656568 0)
(0 0.0662709 0)
(0 0.0662478 0)
(0 0.0551606 0)
(0 0.0543512 0)
(0 0.0661759 0)
(0 0.0661907 0)
(0 0.0660689 0)
(0 0.0553921 0)
(0 0.0544377 0)
(0 0.0556112 0)
(0 0.0547959 0)
(0 0.0558469 0)
(0 0.0550005 0)
(0 0.0539133 0)
(0 0.0540205 0)
(0 0.0528927 0)
(0 0.0529952 0)
(0 0.0517109 0)
(0 0.0518708 0)
(0 0.0551446 0)
(0 0.0563421 0)
(0 0.0504763 0)
(0 0.0506395 0)
(0 0.0491855 0)
(0 0.0493259 0)
(0 0.0507651 0)
(0 0.0494256 0)
(0 0.0508472 0)
(0 0.0478843 0)
(0 0.0206946 0)
(0 0.0663798 0)
(0 0.0663407 0)
(0 0.066361 0)
(0 0.0663977 0)
(0 0.0663798 0)
(0 0.066414 0)
(0 0.0663954 0)
(0 0.0664269 0)
(0 0.0664088 0)
(0 0.0664367 0)
(0 0.0664203 0)
(0 0.0664442 0)
(0 0.0664279 0)
(0 0.0664493 0)
(0 0.0664332 0)
(0 0.0664528 0)
(0 0.066357 0)
(0 0.0664361 0)
(0 0.0664547 0)
(0 0.06641 0)
(0 0.0542904 0)
(0 0.0664368 0)
(0 0.0664545 0)
(0 0.0602632 0)
(0 0.0389248 0)
(0 0.0664357 0)
(0 0.0664525 0)
(0 0.0664506 0)
(0 0.0475404 0)
(0 0.0491839 0)
(0 0.04819 0)
(0 0.0465004 0)
(0 0.0471781 0)
(0 0.0488229 0)
(0 0.0478268 0)
(0 0.0494165 0)
(0 0.0484374 0)
(0 0.0467769 0)
(0 0.0474084 0)
(0 0.0490185 0)
(0 0.0480227 0)
(0 0.0463179 0)
(0 0.0469556 0)
(0 0.0486181 0)
(0 0.0475639 0)
(0 0.0491847 0)
(0 0.0481428 0)
(0 0.046455 0)
(0 0.0470442 0)
(0 0.0487054 0)
(0 0.0476195 0)
(0 0.0458837 0)
(0 0.0464735 0)
(0 0.0482065 0)
(0 0.047063 0)
(0 0.0452772 0)
(0 0.0458599 0)
(0 0.0475986 0)
(0 0.0464137 0)
(0 0.0446326 0)
(0 0.0452041 0)
(0 0.0469278 0)
(0 0.0457338 0)
(0 0.047411 0)
(0 0.0462445 0)
(0 0.0444912 0)
(0 0.0450175 0)
(0 0.0468066 0)
(0 0.0455392 0)
(0 0.043731 0)
(0 0.044197 0)
(0 0.0458608 0)
(0 0.0445955 0)
(0 0.0428468 0)
(0 0.0432759 0)
(0 0.0449741 0)
(0 0.0436589 0)
(0 0.0453188 0)
(0 0.0439937 0)
(0 0.0422701 0)
(0 0.0426039 0)
(0 0.0442779 0)
(0 0.0428824 0)
(0 0.0445103 0)
(0 0.0431073 0)
(0 0.0446635 0)
(0 0.0432434 0)
(0 0.0446657 0)
(0 0.043267 0)
(0 0.041747 0)
(0 0.0418069 0)
(0 0.0432953 0)
(0 0.0418044 0)
(0 0.0432578 0)
(0 0.0417284 0)
(0 0.043162 0)
(0 0.0415939 0)
(0 0.0430231 0)
(0 0.0413694 0)
(0 0.0399163 0)
(0 0.039635 0)
(0 0.0381542 0)
(0 0.0378178 0)
(0 0.0363044 0)
(0 0.0359254 0)
(0 0.0343639 0)
(0 0.0339622 0)
(0 0.0408018 0)
(0 0.0427724 0)
(0 0.0323534 0)
(0 0.0319212 0)
(0 0.0326801 0)
(0 0.030307 0)
(0 0.0298252 0)
(0 0.0313697 0)
(0 0.028216 0)
(0 0.0292156 0)
(0 0.0307114 0)
(0 0.0459596 0)
(0 0.0446724 0)
(0 0.0284585 0)
(0 0.0298596 0)
(0 0.0629619 0)
(0 0.0630652 0)
(0 0.0616675 0)
(0 0.0615488 0)
(0 0.0664648 0)
(0 0.0664736 0)
(0 0.066467 0)
(0 0.0664753 0)
(0 0.0664689 0)
(0 0.0664769 0)
(0 0.0664704 0)
(0 0.0664784 0)
(0 0.066472 0)
(0 0.0664797 0)
(0 0.0664735 0)
(0 0.066481 0)
(0 0.0664749 0)
(0 0.0664822 0)
(0 0.0664763 0)
(0 0.0664833 0)
(0 0.0664776 0)
(0 0.0664844 0)
(0 0.0664787 0)
(0 0.0664855 0)
(0 0.0664799 0)
(0 0.0664865 0)
(0 0.066481 0)
(0 0.0664873 0)
(0 0.0664819 0)
(0 0.066488 0)
(0 0.0664829 0)
(0 0.0664889 0)
(0 0.0664838 0)
(0 0.0664896 0)
(0 0.0664848 0)
(0 0.0664903 0)
(0 0.0664855 0)
(0 0.0664909 0)
(0 0.0664862 0)
(0 0.0664916 0)
(0 0.0664869 0)
(0 0.0664922 0)
(0 0.0664875 0)
(0 0.0664927 0)
(0 0.066488 0)
(0 0.0664932 0)
(0 0.0664884 0)
(0 0.0664936 0)
(0 0.0664891 0)
(0 0.0664942 0)
(0 0.0664903 0)
(0 0.0664948 0)
(0 0.0664909 0)
(0 0.0664953 0)
(0 0.0664913 0)
(0 0.0664957 0)
(0 0.0664917 0)
(0 0.0664961 0)
(0 0.0664921 0)
(0 0.0664965 0)
(0 0.0664925 0)
(0 0.0664969 0)
(0 0.0664929 0)
(0 0.0664973 0)
(0 0.0664933 0)
(0 0.0664976 0)
(0 0.0664937 0)
(0 0.066498 0)
(0 0.0664941 0)
(0 0.0664983 0)
(0 0.0664945 0)
(0 0.0664985 0)
(0 0.0664947 0)
(0 0.0664988 0)
(0 0.0664949 0)
(0 0.0664991 0)
(0 0.066495 0)
(0 0.0664994 0)
(0 0.0664954 0)
(0 0.0664996 0)
(0 0.0664959 0)
(0 0.0664999 0)
(0 0.0664964 0)
(0 0.0665002 0)
(0 0.0664968 0)
(0 0.0665005 0)
(0 0.066497 0)
(0 0.0665007 0)
(0 0.0664971 0)
(0 0.0665009 0)
(0 0.0664973 0)
(0 0.0665011 0)
(0 0.0664976 0)
(0 0.0665012 0)
(0 0.0664979 0)
(0 0.0665014 0)
(0 0.0664981 0)
(0 0.0664852 0)
(0 0.0665016 0)
(0 0.0664982 0)
(0 0.0665018 0)
(0 0.0664982 0)
(0 0.066502 0)
(0 0.0664983 0)
(0 0.0664904 0)
(0 0.0665021 0)
(0 0.0664985 0)
(0 0.0665021 0)
(0 0.0664985 0)
(0 0.0665022 0)
(0 0.0664987 0)
(0 0.0664948 0)
(0 0.0665022 0)
(0 0.0664988 0)
(0 0.0665022 0)
(0 0.0664988 0)
(0 0.0665023 0)
(0 0.0664988 0)
(0 0.0664963 0)
(0 0.0665024 0)
(0 0.0664987 0)
(0 0.0665025 0)
(0 0.0664987 0)
(0 0.0664977 0)
(0 0.0665026 0)
(0 0.0664985 0)
(0 0.0665025 0)
(0 0.0664984 0)
(0 0.0665025 0)
(0 0.0664985 0)
(0 0.0665 0)
(0 0.0665025 0)
(0 0.0664986 0)
(0 0.0665024 0)
(0 0.0664985 0)
(0 0.0665023 0)
(0 0.0664983 0)
(0 0.0664763 0)
(0 0.066487 0)
(0 0.0664643 0)
(0 0.0664938 0)
(0 0.0664921 0)
(0 0.0664891 0)
(0 0.066502 0)
(0 0.0664818 0)
(0 0.0665023 0)
(0 0.0664981 0)
(0 0.0664942 0)
(0 0.0665021 0)
(0 0.0664979 0)
(0 0.0665019 0)
(0 0.0664975 0)
(0 0.0664936 0)
(0 0.0664937 0)
(0 0.0665025 0)
(0 0.0665016 0)
(0 0.066497 0)
(0 0.0664708 0)
(0 0.0664574 0)
(0 0.0665032 0)
(0 0.0665013 0)
(0 0.0664964 0)
(0 0.0665007 0)
(0 0.0664956 0)
(0 0.066504 0)
(0 0.0665 0)
(0 0.0664949 0)
(0 0.0665045 0)
(0 0.06649 0)
(0 0.0664997 0)
(0 0.066494 0)
(0 0.0665054 0)
(0 0.0664991 0)
(0 0.0664929 0)
(0 0.0665055 0)
(0 0.0664982 0)
(0 0.0665055 0)
(0 0.0665057 0)
(0 0.0275349 0)
(0 0.0262041 0)
(0 0.058218 0)
(0 0.0664793 0)
(0 0.0287881 0)
(0 0.0311697 0)
(0 0.0664852 0)
(0 0.0665056 0)
(0 0.066488 0)
(0 0.0664897 0)
(0 0.066493 0)
(0 0.066494 0)
(0 0.0664938 0)
(0 0.0664944 0)
(0 0.0664332 0)
(0 0.0664138 0)
(0 0.065191 0)
(0 0.0650775 0)
(0 0.065226 0)
(0 0.0651148 0)
(0 0.0652589 0)
(0 0.0651526 0)
(0 0.0652909 0)
(0 0.0651805 0)
(0 0.0653168 0)
(0 0.0651971 0)
(0 0.0653381 0)
(0 0.0652214 0)
(0 0.0653605 0)
(0 0.0652525 0)
(0 0.0653826 0)
(0 0.0652814 0)
(0 0.0654021 0)
(0 0.0652986 0)
(0 0.0654191 0)
(0 0.0653083 0)
(0 0.0654296 0)
(0 0.0653224 0)
(0 0.0654407 0)
(0 0.0653357 0)
(0 0.065457 0)
(0 0.0653478 0)
(0 0.0654705 0)
(0 0.065359 0)
(0 0.0652261 0)
(0 0.0652378 0)
(0 0.0653696 0)
(0 0.0652515 0)
(0 0.0653793 0)
(0 0.0652605 0)
(0 0.0653865 0)
(0 0.0652605 0)
(0 0.0653916 0)
(0 0.065264 0)
(0 0.0653956 0)
(0 0.0652728 0)
(0 0.0653974 0)
(0 0.0652692 0)
(0 0.0653967 0)
(0 0.0652662 0)
(0 0.0653953 0)
(0 0.0652718 0)
(0 0.0653926 0)
(0 0.0652638 0)
(0 0.0653865 0)
(0 0.0652487 0)
(0 0.0653775 0)
(0 0.0652427 0)
(0 0.0653674 0)
(0 0.0652328 0)
(0 0.065356 0)
(0 0.0652216 0)
(0 0.0653418 0)
(0 0.0652028 0)
(0 0.0653233 0)
(0 0.0651734 0)
(0 0.0653012 0)
(0 0.0651472 0)
(0 0.0650086 0)
(0 0.0649781 0)
(0 0.065119 0)
(0 0.0649457 0)
(0 0.0650875 0)
(0 0.0649078 0)
(0 0.0650512 0)
(0 0.064865 0)
(0 0.06501 0)
(0 0.0648176 0)
(0 0.0649636 0)
(0 0.0647647 0)
(0 0.0649115 0)
(0 0.0647045 0)
(0 0.0650908 0)
(0 0.0648536 0)
(0 0.0646373 0)
(0 0.0651615 0)
(0 0.0646656 0)
(0 0.0651902 0)
(0 0.065152 0)
(0 0.0650565 0)
(0 0.0644758 0)
(0 0.0643989 0)
(0 0.0645635 0)
(0 0.0643148 0)
(0 0.0644823 0)
(0 0.0642193 0)
(0 0.064386 0)
(0 0.064105 0)
(0 0.0642558 0)
(0 0.0639727 0)
(0 0.0641235 0)
(0 0.0650749 0)
(0 0.0651356 0)
(0 0.0650924 0)
(0 0.0648041 0)
(0 0.0664867 0)
(0 0.0664848 0)
(0 0.0664773 0)
(0 0.0664751 0)
(0 0.0665054 0)
(0 0.0638305 0)
(0 0.0639937 0)
(0 0.0664658 0)
(0 0.0664632 0)
(0 0.0636736 0)
(0 0.0638344 0)
(0 0.0665125 0)
(0 0.0665113 0)
(0 0.0665127 0)
(0 0.0665116 0)
(0 0.0665128 0)
(0 0.0665119 0)
(0 0.066513 0)
(0 0.0665121 0)
(0 0.0665132 0)
(0 0.0665123 0)
(0 0.0665134 0)
(0 0.0665125 0)
(0 0.0665135 0)
(0 0.0665126 0)
(0 0.0665136 0)
(0 0.0665128 0)
(0 0.0665138 0)
(0 0.066513 0)
(0 0.0665139 0)
(0 0.0665131 0)
(0 0.0634955 0)
(0 0.0636538 0)
(0 0.0632985 0)
(0 0.0634538 0)
(0 0.0252137 0)
(0 0.0239141 0)
(0 0.0299913 0)
(0 0.0323553 0)
(0 0.0639499 0)
(0 0.0401915 0)
(0 0.066514 0)
(0 0.0665133 0)
(0 0.0665051 0)
(0 0.0665141 0)
(0 0.0665134 0)
(0 0.0665142 0)
(0 0.0665135 0)
(0 0.0489811 0)
(0 0.0664686 0)
(0 0.0665143 0)
(0 0.0665137 0)
(0 0.0642258 0)
(0 0.0664104 0)
(0 0.0663877 0)
(0 0.0483069 0)
(0 0.0665117 0)
(0 0.0664662 0)
(0 0.0665144 0)
(0 0.0665138 0)
(0 0.0665129 0)
(0 0.066513 0)
(0 0.0665139 0)
(0 0.0665132 0)
(0 0.066514 0)
(0 0.0665133 0)
(0 0.0665141 0)
(0 0.0665134 0)
(0 0.0665142 0)
(0 0.0665136 0)
(0 0.0665143 0)
(0 0.0665137 0)
(0 0.0665144 0)
(0 0.0665138 0)
(0 0.0637985 0)
(0 0.0635948 0)
(0 0.0632371 0)
(0 0.0633751 0)
(0 0.0649557 0)
(0 0.0665145 0)
(0 0.0665139 0)
(0 0.0665146 0)
(0 0.066514 0)
(0 0.0637224 0)
(0 0.0635009 0)
(0 0.0631354 0)
(0 0.0632575 0)
(0 0.0628701 0)
(0 0.0629874 0)
(0 0.0625767 0)
(0 0.0626875 0)
(0 0.0630985 0)
(0 0.0627897 0)
(0 0.0623587 0)
(0 0.0624484 0)
(0 0.0628731 0)
(0 0.0625247 0)
(0 0.0629474 0)
(0 0.0625885 0)
(0 0.0621505 0)
(0 0.0622024 0)
(0 0.0617408 0)
(0 0.0617778 0)
(0 0.0622324 0)
(0 0.0617892 0)
(0 0.0622443 0)
(0 0.0617866 0)
(0 0.0622364 0)
(0 0.0617475 0)
(0 0.0622053 0)
(0 0.0616993 0)
(0 0.0621618 0)
(0 0.0616611 0)
(0 0.0621044 0)
(0 0.0615852 0)
(0 0.0620201 0)
(0 0.0614833 0)
(0 0.0612921 0)
(0 0.0619088 0)
(0 0.0613652 0)
(0 0.0617722 0)
(0 0.0612004 0)
(0 0.0616049 0)
(0 0.0610098 0)
(0 0.0665043 0)
(0 0.0665099 0)
(0 0.0665146 0)
(0 0.0665141 0)
(0 0.0664517 0)
(0 0.0664491 0)
(0 0.0311797 0)
(0 0.0335278 0)
(0 0.0285929 0)
(0 0.0228656 0)
(0 0.0216042 0)
(0 0.0652231 0)
(0 0.0662037 0)
(0 0.0646536 0)
(0 0.0665147 0)
(0 0.0665142 0)
(0 0.0665148 0)
(0 0.0665143 0)
(0 0.0665148 0)
(0 0.0665144 0)
(0 0.0665136 0)
(0 0.0665138 0)
(0 0.0665145 0)
(0 0.0665139 0)
(0 0.0665145 0)
(0 0.066514 0)
(0 0.0665146 0)
(0 0.0665141 0)
(0 0.0665147 0)
(0 0.0665142 0)
(0 0.0655119 0)
(0 0.0654992 0)
(0 0.065515 0)
(0 0.0665119 0)
(0 0.0665148 0)
(0 0.0665143 0)
(0 0.0665149 0)
(0 0.0665144 0)
(0 0.066513 0)
(0 0.0665149 0)
(0 0.0665145 0)
(0 0.0665136 0)
(0 0.0495269 0)
(0 0.0612466 0)
(0 0.0664552 0)
(0 0.0654843 0)
(0 0.0635034 0)
(0 0.0638379 0)
(0 0.0650502 0)
(0 0.0654401 0)
(0 0.0665123 0)
(0 0.0607722 0)
(0 0.0665137 0)
(0 0.0653297 0)
(0 0.0664392 0)
(0 0.0664434 0)
(0 0.0665111 0)
(0 0.0664737 0)
(0 0.0663833 0)
(0 0.0663568 0)
(0 0.066515 0)
(0 0.0665145 0)
(0 0.0324051 0)
(0 0.0347685 0)
(0 0.0624521 0)
(0 0.0654663 0)
(0 0.0665133 0)
(0 0.0655704 0)
(0 0.0626553 0)
(0 0.066515 0)
(0 0.0665146 0)
(0 0.0665151 0)
(0 0.0665147 0)
(0 0.0665141 0)
(0 0.0665142 0)
(0 0.0665148 0)
(0 0.0665143 0)
(0 0.0665148 0)
(0 0.0665144 0)
(0 0.0665149 0)
(0 0.0665145 0)
(0 0.066515 0)
(0 0.0665145 0)
(0 0.0665136 0)
(0 0.0655398 0)
(0 0.0665142 0)
(0 0.0204908 0)
(0 0.0192829 0)
(0 0.0202844 0)
(0 0.0180182 0)
(0 0.018895 0)
(0 0.0166707 0)
(0 0.0174156 0)
(0 0.0152494 0)
(0 0.01584 0)
(0 0.0665151 0)
(0 0.0665146 0)
(0 0.0665151 0)
(0 0.0665147 0)
(0 0.0642989 0)
(0 0.0665152 0)
(0 0.0665148 0)
(0 0.0665142 0)
(0 0.0665143 0)
(0 0.0665148 0)
(0 0.0665144 0)
(0 0.0665149 0)
(0 0.0665145 0)
(0 0.066515 0)
(0 0.0665146 0)
(0 0.0665125 0)
(0 0.0665145 0)
(0 0.0248283 0)
(0 0.0357263 0)
(0 0.0368323 0)
(0 0.0664248 0)
(0 0.0664295 0)
(0 0.0612417 0)
(0 0.0665129 0)
(0 0.0137557 0)
(0 0.0665151 0)
(0 0.0665147 0)
(0 0.0665151 0)
(0 0.0665148 0)
(0 0.0665152 0)
(0 0.0665148 0)
(0 0.0665142 0)
(0 0.0532612 0)
(0 0.0605538 0)
(0 0.0555513 0)
(0 0.0624981 0)
(0 0.0665148 0)
(0 0.0611158 0)
(0 0.0378072 0)
(0 0.0388738 0)
(0 0.0270842 0)
(0 0.0242157 0)
(0 0.0665153 0)
(0 0.0665149 0)
(0 0.0665139 0)
(0 0.0665135 0)
(0 0.0141888 0)
(0 0.016247 0)
(0 0.0665151 0)
(0 0.0665148 0)
(0 0.066515 0)
(0 0.039793 0)
(0 0.0408443 0)
(0 0.0416812 0)
(0 0.0427079 0)
(0 0.0434701 0)
(0 0.0444773 0)
(0 0.0451573 0)
(0 0.0461364 0)
(0 0.0467456 0)
(0 0.0476795 0)
(0 0.048248 0)
(0 0.0470739 0)
(0 0.0418523 0)
(0 0.0491344 0)
(0 0.0496593 0)
(0 0.0144296 0)
(0 0.066466 0)
(0 0.0664794 0)
(0 0.0567514 0)
(0 0.0576072 0)
(0 0.0571341 0)
(0 0.0579711 0)
(0 0.0574913 0)
(0 0.0566183 0)
(0 0.0569873 0)
(0 0.0578219 0)
(0 0.0573422 0)
(0 0.0564476 0)
(0 0.0568167 0)
(0 0.0576871 0)
(0 0.0571696 0)
(0 0.0580113 0)
(0 0.0575026 0)
(0 0.056615 0)
(0 0.0569547 0)
(0 0.0578206 0)
(0 0.0572805 0)
(0 0.0581239 0)
(0 0.0575975 0)
(0 0.0567181 0)
(0 0.057043 0)
(0 0.0578766 0)
(0 0.0573104 0)
(0 0.0563227 0)
(0 0.0567453 0)
(0 0.0575663 0)
(0 0.0570332 0)
(0 0.0561843 0)
(0 0.0564722 0)
(0 0.0573819 0)
(0 0.0567411 0)
(0 0.0558541 0)
(0 0.0561178 0)
(0 0.0570646 0)
(0 0.0563662 0)
(0 0.0553055 0)
(0 0.0557131 0)
(0 0.0566101 0)
(0 0.0559739 0)
(0 0.0550133 0)
(0 0.0552727 0)
(0 0.0562193 0)
(0 0.0555376 0)
(0 0.054502 0)
(0 0.0547933 0)
(0 0.055783 0)
(0 0.055044 0)
(0 0.0540071 0)
(0 0.054253 0)
(0 0.0552607 0)
(0 0.0544655 0)
(0 0.06212 0)
(0 0.0180626 0)
(0 0.0192027 0)
(0 0.0607171 0)
(0 0.0602149 0)
(0 0.0321748 0)
(0 0.0349658 0)
(0 0.0321221 0)
(0 0.0348941 0)
(0 0.0320218 0)
(0 0.0347721 0)
(0 0.0319259 0)
(0 0.0349504 0)
(0 0.0318086 0)
(0 0.0342831 0)
(0 0.0298325 0)
(0 0.0328127 0)
(0 0.0309015 0)
(0 0.0338119 0)
(0 0.0319529 0)
(0 0.0289118 0)
(0 0.030006 0)
(0 0.0329653 0)
(0 0.0310525 0)
(0 0.0663514 0)
(0 0.0663208 0)
(0 0.0663253 0)
(0 0.0663776 0)
(0 0.0315675 0)
(0 0.0664085 0)
(0 0.0664134 0)
(0 0.066403 0)
(0 0.0665153 0)
(0 0.066515 0)
(0 0.0665145 0)
(0 0.0665146 0)
(0 0.066515 0)
(0 0.0665146 0)
(0 0.0665151 0)
(0 0.0665147 0)
(0 0.0665152 0)
(0 0.0665148 0)
(0 0.0665153 0)
(0 0.0665149 0)
(0 0.0665153 0)
(0 0.066515 0)
(0 0.0665144 0)
(0 0.0665145 0)
(0 0.066515 0)
(0 0.0665146 0)
(0 0.0665151 0)
(0 0.0665147 0)
(0 0.0665152 0)
(0 0.0665148 0)
(0 0.0665153 0)
(0 0.0665149 0)
(0 0.066514 0)
(0 0.0339298 0)
(0 0.0320441 0)
(0 0.0290334 0)
(0 0.0300656 0)
(0 0.0330165 0)
(0 0.0310831 0)
(0 0.0504936 0)
(0 0.0509639 0)
(0 0.0501798 0)
(0 0.0513977 0)
(0 0.0506035 0)
(0 0.0517829 0)
(0 0.0509096 0)
(0 0.052097 0)
(0 0.0511949 0)
(0 0.0523375 0)
(0 0.0514167 0)
(0 0.0525055 0)
(0 0.0515822 0)
(0 0.052605 0)
(0 0.051703 0)
(0 0.0527621 0)
(0 0.0554428 0)
(0 0.0546503 0)
(0 0.0536225 0)
(0 0.0279839 0)
(0 0.029055 0)
(0 0.0320668 0)
(0 0.0300855 0)
(0 0.0340477 0)
(0 0.036514 0)
(0 0.0144579 0)
(0 0.0164833 0)
(0 0.0358477 0)
(0 0.0665152 0)
(0 0.0662847 0)
(0 0.0662874 0)
(0 0.0665153 0)
(0 0.0330063 0)
(0 0.0310731 0)
(0 0.0280366 0)
(0 0.0290909 0)
(0 0.0320165 0)
(0 0.0300766 0)
(0 0.0665143 0)
(0 0.0665144 0)
(0 0.066515 0)
(0 0.0665145 0)
(0 0.066515 0)
(0 0.0665146 0)
(0 0.0665151 0)
(0 0.0665147 0)
(0 0.0665152 0)
(0 0.0665148 0)
(0 0.0665153 0)
(0 0.0665149 0)
(0 0.032889 0)
(0 0.0309626 0)
(0 0.0280514 0)
(0 0.0289646 0)
(0 0.0317875 0)
(0 0.0297955 0)
(0 0.0268648 0)
(0 0.0277818 0)
(0 0.030577 0)
(0 0.0286682 0)
(0 0.0663442 0)
(0 0.06637 0)
(0 0.0264388 0)
(0 0.0235775 0)
(0 0.0122116 0)
(0 0.0665153 0)
(0 0.0664766 0)
(0 0.0664879 0)
(0 0.0664902 0)
(0 0.0664968 0)
(0 0.0664994 0)
(0 0.0664944 0)
(0 0.0665015 0)
(0 0.0664992 0)
(0 0.0665049 0)
(0 0.0256705 0)
(0 0.026622 0)
(0 0.0295253 0)
(0 0.0275098 0)
(0 0.0664335 0)
(0 0.066418 0)
(0 0.0664367 0)
(0 0.066422 0)
(0 0.0665154 0)
(0 0.0665154 0)
(0 0.066515 0)
(0 0.0665144 0)
(0 0.0665146 0)
(0 0.0665151 0)
(0 0.0665147 0)
(0 0.0665152 0)
(0 0.0665148 0)
(0 0.0665153 0)
(0 0.0665149 0)
(0 0.030304 0)
(0 0.0283204 0)
(0 0.0254136 0)
(0 0.0262654 0)
(0 0.0290615 0)
(0 0.0270323 0)
(0 0.0297387 0)
(0 0.0277227 0)
(0 0.0249316 0)
(0 0.0256452 0)
(0 0.0283415 0)
(0 0.0262804 0)
(0 0.0288767 0)
(0 0.026829 0)
(0 0.0241786 0)
(0 0.0247405 0)
(0 0.0272855 0)
(0 0.0252046 0)
(0 0.0226365 0)
(0 0.0230895 0)
(0 0.0663349 0)
(0 0.0276416 0)
(0 0.0517962 0)
(0 0.0663603 0)
(0 0.0664396 0)
(0 0.0664255 0)
(0 0.0664422 0)
(0 0.066429 0)
(0 0.0664445 0)
(0 0.0664316 0)
(0 0.0664466 0)
(0 0.0664334 0)
(0 0.0664482 0)
(0 0.0664351 0)
(0 0.0664494 0)
(0 0.0664367 0)
(0 0.0664506 0)
(0 0.0664383 0)
(0 0.0664224 0)
(0 0.0664243 0)
(0 0.0664397 0)
(0 0.0664262 0)
(0 0.066441 0)
(0 0.0664281 0)
(0 0.0664423 0)
(0 0.0664296 0)
(0 0.0664435 0)
(0 0.0664305 0)
(0 0.0664443 0)
(0 0.0664315 0)
(0 0.0664451 0)
(0 0.0664326 0)
(0 0.0664459 0)
(0 0.0664335 0)
(0 0.0664466 0)
(0 0.0664346 0)
(0 0.0664471 0)
(0 0.066435 0)
(0 0.0664475 0)
(0 0.0664355 0)
(0 0.066448 0)
(0 0.0664361 0)
(0 0.0664483 0)
(0 0.066436 0)
(0 0.0664483 0)
(0 0.0664361 0)
(0 0.0664484 0)
(0 0.0664362 0)
(0 0.0664484 0)
(0 0.0664363 0)
(0 0.0664224 0)
(0 0.0664227 0)
(0 0.0664364 0)
(0 0.066423 0)
(0 0.0664366 0)
(0 0.0664234 0)
(0 0.0664367 0)
(0 0.0664236 0)
(0 0.0664367 0)
(0 0.0664233 0)
(0 0.0664366 0)
(0 0.0664232 0)
(0 0.0664364 0)
(0 0.0664231 0)
(0 0.0664363 0)
(0 0.066423 0)
(0 0.0664361 0)
(0 0.066423 0)
(0 0.0664358 0)
(0 0.0664225 0)
(0 0.0664355 0)
(0 0.066422 0)
(0 0.0664351 0)
(0 0.0664216 0)
(0 0.0664345 0)
(0 0.0664207 0)
(0 0.0664057 0)
(0 0.0664339 0)
(0 0.0664198 0)
(0 0.0664331 0)
(0 0.0664189 0)
(0 0.0664322 0)
(0 0.0664183 0)
(0 0.066403 0)
(0 0.0664021 0)
(0 0.0664176 0)
(0 0.0664014 0)
(0 0.0664163 0)
(0 0.0664006 0)
(0 0.0664153 0)
(0 0.0663997 0)
(0 0.0664134 0)
(0 0.066398 0)
(0 0.0664116 0)
(0 0.0663965 0)
(0 0.0664107 0)
(0 0.0663953 0)
(0 0.0664099 0)
(0 0.0663934 0)
(0 0.066409 0)
(0 0.0663914 0)
(0 0.0664074 0)
(0 0.0663893 0)
(0 0.0663782 0)
(0 0.0664085 0)
(0 0.0664198 0)
(0 0.0664051 0)
(0 0.066387 0)
(0 0.066403 0)
(0 0.0663845 0)
(0 0.0663666 0)
(0 0.0663638 0)
(0 0.066382 0)
(0 0.066361 0)
(0 0.0663793 0)
(0 0.0663578 0)
(0 0.0663761 0)
(0 0.0663541 0)
(0 0.0663729 0)
(0 0.0664111 0)
(0 0.0517631 0)
(0 0.0512913 0)
(0 0.066514 0)
(0 0.0664163 0)
(0 0.0665071 0)
(0 0.066514 0)
(0 0.0289414 0)
(0 0.0291371 0)
(0 0.0555888 0)
(0 0.066407 0)
(0 0.0665138 0)
(0 0.0145666 0)
(0 0.016561 0)
(0 0.0665154 0)
(0 0.0204896 0)
(0 0.0209416 0)
(0 0.036334 0)
(0 0.0386695 0)
(0 0.0337704 0)