/*--------------------------------*- C++ -*----------------------------------*\
| =========                 |                                                 |
| \\      /  F ield         | OpenFOAM: The Open Source CFD Toolbox           |
|  \\    /   O peration     | Version:  v2012                                 |
|   \\  /    A nd           | Website:  www.openfoam.com                      |
|    \\/     M anipulation  |                                                 |
\*---------------------------------------------------------------------------*/
FoamFile
{
    version     2.0;
    format      ascii;
    class       surfaceVectorField;
    location    "150";
    object      Uf;
}
// * * * * * * * * * * * * * * * * * * * * * * * * * * * * * * * * * * * * * //

dimensions      [0 1 -1 0 0 0 0];


internalField   nonuniform List<vector> 
20580
(
(1.15956 0.0533904 -3.29445e-21)
(1.16046 0.0564561 4.08433e-21)
(1.1569 0.05471 -7.47507e-21)
(1.07537 -0.0243538 0)
(1.07587 -0.0255337 0)
(1.07734 -0.0243342 0)
(1.07467 -0.0226364 0)
(1.0732 -0.0239119 0)
(-0.195544 -0.0176298 0)
(-0.171067 -0.0209162 6.04268e-20)
(-0.194939 -0.0186194 0)
(1.00217 -0.000545379 -1.19405e-22)
(1.00196 -0.000507234 -7.50183e-22)
(1.00205 -0.000302468 1.21308e-21)
(1.08694 -0.0388651 9.69387e-21)
(1.08665 -0.0410829 -1.66398e-21)
(1.08447 -0.0397362 1.07848e-21)
(1.06244 0.0151263 5.16208e-21)
(1.06296 0.0162066 2.02041e-20)
(1.01356 -0.000841404 0)
(1.01326 -0.000859236 0)
(1.01252 -0.000529391 -5.50986e-22)
(0.263117 0.0458438 1.21397e-20)
(0.269771 0.0462203 -7.86692e-21)
(0.242163 0.041445 -1.08323e-20)
(0.990967 -0.00873117 5.99429e-21)
(0.991362 -0.00802445 -1.89421e-21)
(0.99177 -0.00859933 7.96393e-21)
(1.16642 -0.104402 0)
(1.16132 -0.104299 5.58155e-20)
(1.16422 -0.109138 0)
(1.00134 -0.00833491 -1.8287e-21)
(1.00152 -0.0086311 6.57957e-22)
(1.00137 -0.00872052 5.59574e-22)
(0.981061 -0.0208486 2.61989e-21)
(0.980692 -0.0218041 2.10353e-20)
(0.981874 -0.0214014 7.47844e-21)
(0.0511162 0.0112245 0)
(0.0386509 0.00809751 -1.53011e-20)
(0.0547291 0.0135691 0)
(1.11029 0.0107428 1.72279e-20)
(1.11228 0.0108218 2.34801e-20)
(1.11087 0.00899775 1.87212e-21)
(1.09746 0.0609358 0)
(1.09703 0.0603365 6.84316e-22)
(1.09659 0.06136 7.87174e-21)
(-0.283978 -0.00624864 -1.05124e-19)
(-0.306256 -0.00642235 -8.59671e-20)
(-0.293584 -0.00318421 -4.48929e-20)
(1.03639 -0.0195134 -2.78875e-21)
(1.03735 -0.0195377 -6.60696e-21)
(1.03701 -0.0204633 -7.60363e-21)
(1.22126 0.0142966 1.4007e-21)
(1.22208 0.0119209 4.34198e-20)
(1.21897 0.0144094 6.83476e-20)
(1.16211 0.0517788 3.83176e-21)
(1.15864 0.050748 -8.33526e-21)
(1.1249 0.00367406 2.10144e-20)
(1.12378 0.00160976 -3.02897e-21)
(1.12219 0.00385825 -1.07099e-20)
(1.04254 -0.0945435 -1.28568e-21)
(1.03916 -0.0948856 3.32823e-21)
(1.04083 -0.0913728 7.15522e-21)
(0.707675 -0.346863 4.84375e-20)
(0.558268 -0.282896 4.1455e-20)
(0.422397 -0.220204 4.51893e-20)
(1.00006 -0.000197668 1.35718e-23)
(1.00009 -0.00026431 6.80724e-22)
(1.00006 -0.000166558 1.61628e-21)
(1.17368 -0.0319418 -1.19799e-20)
(1.16386 -0.0318036 2.82839e-20)
(1.06002 -0.0201816 1.86446e-21)
(1.09879 0.0498616 2.33543e-20)
(1.09875 0.0506431 -8.78865e-21)
(1.09962 0.0503552 1.45799e-20)
(1.11057 0.0873916 3.0066e-20)
(1.11476 0.0898552 -6.78397e-21)
(1.11161 0.0886522 0)
(1.10535 0.0540938 2.81348e-20)
(1.11444 0.0561154 -4.97729e-20)
(1.04269 0.0563113 1.87965e-24)
(0.443591 0.0467986 5.32116e-21)
(0.422261 0.0435388 0)
(0.412692 0.0430686 0)
(1.02153 -0.0121706 0)
(1.02117 -0.0125646 0)
(1.02087 -0.0119014 0)
(-0.0871818 -0.0103374 3.4151e-20)
(-0.115123 -0.0102804 -5.63064e-20)
(-0.0704249 -0.00958644 9.2933e-21)
(1.06325 0.0146189 -1.26384e-20)
(1.06185 0.0143656 5.52683e-21)
(1.15013 0.0585042 1.90259e-21)
(1.1478 0.059618 -8.39223e-21)
(1.14807 0.0563865 2.01107e-20)
(0.303662 0.0590107 1.18525e-20)
(0.293458 0.0578018 0)
(0.348106 0.0631958 0)
(1.13181 -0.0899833 0)
(1.13319 -0.0865089 -4.63721e-22)
(1.13516 -0.0908543 0)
(0.449569 0.0424423 -2.1442e-21)
(0.4788 0.0459523 5.21197e-21)
(0.458738 0.0415975 -1.98957e-21)
(1.00002 -0.000127407 -2.29923e-21)
(1.00005 -0.000236388 -4.10565e-21)
(1.25382 -0.152094 -1.62781e-21)
(1.17445 -0.139066 -6.60099e-21)
(1.1542 -0.130217 -4.19586e-20)
(-0.0110008 0.0136124 -3.06849e-20)
(0.0035343 0.0143967 3.91482e-20)
(0.0321661 0.015154 -3.93355e-20)
(1.00681 -0.0395734 2.57316e-21)
(1.00756 -0.0386551 1.20209e-21)
(1.00799 -0.0399357 9.88615e-22)
(0.134783 0.0319464 -7.89566e-21)
(0.176768 0.0360829 7.98434e-20)
(0.14372 0.0338254 -2.35555e-20)
(0.464383 0.0508745 -4.53491e-23)
(0.474477 0.0505385 1.03589e-21)
(-0.277138 -0.00621253 0)
(-0.279238 -0.00751699 0)
(1.10257 -0.471631 -6.37622e-21)
(1.09363 -0.478854 5.21583e-20)
(1.08856 -0.484639 4.28161e-20)
(0.481383 0.0592882 5.64514e-21)
(0.470855 0.0588332 -5.12281e-21)
(0.445898 0.0538252 3.17724e-21)
(1.01568 -0.023436 -2.64784e-22)
(1.01493 -0.0235054 3.31177e-22)
(1.01518 -0.0226322 -3.52093e-22)
(1.01919 0.000122751 2.07207e-21)
(1.01895 0.000133574 9.06118e-24)
(1.10529 0.0650545 -5.05833e-21)
(1.10432 0.0656721 1.27648e-20)
(1.10461 0.0642088 -1.92079e-21)
(1.04839 -0.0603514 0)
(1.04645 -0.0583742 0)
(1.04914 -0.0583363 0)
(0.98143 -0.0197213 -2.03075e-20)
(0.980042 -0.0201067 -7.10793e-21)
(-0.21188 0.000243111 1.36402e-20)
(-0.210554 -0.000684679 1.31078e-20)
(-0.245167 -0.00146795 -7.42008e-20)
(0.973396 -0.0142378 -8.48909e-21)
(0.974603 -0.0142897 -8.58924e-21)
(0.973799 -0.0155125 -5.86099e-21)
(1.0979 0.0616609 -1.66324e-21)
(1.09805 0.0606615 -1.34719e-20)
(1.08223 0.0260274 -1.9966e-20)
(1.08354 0.0266059 1.04315e-20)
(1.08231 0.0273847 -1.50203e-20)
(0.118011 0.00832498 0)
(0.134589 0.01327 0)
(0.111289 0.00817745 -1.68303e-20)
(1.00626 -0.0405307 -1.82287e-21)
(1.00576 -0.0391722 0)
(1.15164 0.0613043 1.46358e-20)
(1.15271 0.0576194 -2.00184e-22)
(0.122954 0.0309882 6.52019e-21)
(0.0978085 0.0261991 -6.10531e-20)
(1.09668 0.0802665 1.73954e-20)
(1.09974 0.0810847 -1.31021e-20)
(1.10266 0.0826198 5.11516e-21)
(-0.084091 0.00712051 -1.37468e-20)
(-0.0736434 0.00760163 2.2274e-20)
(-0.0607922 0.0102414 2.21657e-20)
(1.0012 -0.00803268 -1.33212e-21)
(1.00132 -0.00795709 -3.45739e-21)
(1.10887 0.0857331 8.7711e-21)
(1.11068 0.0866463 2.19694e-20)
(0.995688 -0.00318123 -4.18086e-21)
(0.995764 -0.00359418 5.60046e-21)
(0.995283 -0.00355255 -9.15385e-21)
(1.04742 -0.0618303 0)
(1.04989 -0.0615798 1.78183e-21)
(0.866783 -0.458577 1.13336e-20)
(0.891028 -0.453566 8.61329e-21)
(0.874454 -0.436506 2.78397e-21)
(0.840528 -0.462946 -1.8897e-21)
(0.85992 -0.487757 2.29675e-21)
(-0.0955697 0.00346095 7.48733e-21)
(-0.111671 0.00246288 -2.75082e-20)
(0.700626 -0.122968 1.9259e-21)
(0.694146 -0.139323 -2.27715e-20)
(1.02229 -0.0409481 2.22102e-22)
(1.02107 -0.0411834 -3.93413e-22)
(1.02154 -0.0398348 2.31339e-22)
(-0.141788 -0.0197698 -7.9915e-20)
(-0.172009 -0.0161715 8.26286e-20)
(-0.160324 -0.0170533 -5.19333e-20)
(-0.14368 -0.00331942 1.20631e-20)
(-0.173612 -0.00249663 -8.08812e-20)
(-0.144754 -0.0045789 -2.29866e-20)
(1.13375 0.00669343 -1.89099e-20)
(1.13494 0.00475965 -6.33211e-21)
(1.13643 0.00706711 -2.95188e-20)
(0.994792 -0.0277025 -7.19884e-21)
(0.99397 -0.0273695 5.59234e-23)
(0.994174 -0.0285518 -4.92025e-21)
(-0.0672853 0.00810185 4.05992e-21)
(-0.0960081 0.00285339 0)
(1.09023 0.0240709 -6.23944e-21)
(1.08967 0.0227581 -8.13519e-21)
(1.09121 0.0231031 2.82166e-21)
(1.02301 -0.0771996 7.85608e-23)
(1.02063 -0.0759147 6.59512e-23)
(1.02278 -0.0743292 7.97504e-23)
(-0.268997 -0.00568832 -7.08239e-23)
(-0.253552 -0.00476968 3.28089e-20)
(1.02172 -0.00592817 -9.41502e-22)
(1.02156 -0.00630899 1.02589e-21)
(1.02228 -0.00626922 1.04237e-21)
(1.17768 -0.0296403 1.00441e-19)
(1.24632 -0.0393567 1.58109e-20)
(1.00554 -0.0189045 4.33797e-22)
(1.00533 -0.0182022 -3.75489e-21)
(1.00499 -0.0185689 4.24264e-22)
(1.02363 -0.0409889 3.71689e-22)
(1.02295 -0.0423932 -7.75471e-22)
(1.25856 -0.0996115 -1.10225e-20)
(1.25866 -0.094983 -4.9414e-20)
(1.26253 -0.0993746 -2.71857e-21)
(1.12807 -0.0896221 0)
(1.12971 -0.0938026 0)
(0.0271715 0.00997677 1.26317e-20)
(0.0367849 0.0106036 -3.23555e-20)
(0.0485672 0.0152837 -4.65577e-20)
(-0.062859 0.00751501 -5.0181e-20)
(-0.0450468 0.0114636 -1.99127e-20)
(-0.129159 -0.00708884 8.84948e-21)
(-0.120333 -0.00671945 -4.581e-20)
(-0.0894549 -0.00866732 -1.21147e-20)
(1.04463 -0.0972082 1.56084e-21)
(1.04563 -0.093686 -2.18664e-21)
(0.261151 0.00719033 -1.04849e-20)
(0.236438 0.00285281 0)
(0.261694 0.00806935 0)
(0.99175 -0.0126781 3.07163e-21)
(0.992214 -0.0131065 -1.95447e-22)
(0.992293 -0.0122389 5.60962e-24)
(-0.0703256 -0.0120937 0)
(-0.109232 -0.00929498 3.48341e-20)
(0.971425 -0.0142537 2.81356e-21)
(0.972799 -0.0125333 5.72641e-21)
(1.06411 0.0140856 -1.06565e-20)
(1.06454 0.0150612 -3.4228e-21)
(-0.245831 -0.0040794 -1.18135e-21)
(-0.246369 -0.00607462 -4.09204e-20)
(-0.139797 -0.00781291 -4.43674e-20)
(-0.163583 -0.00707452 -9.08375e-21)
(-0.0216293 0.0148802 3.14005e-20)
(-0.036311 0.0117627 1.24328e-20)
(-0.0546036 0.00954293 -4.1239e-20)
(1.09393 -0.448954 -2.06451e-20)
(1.08494 -0.430481 -3.94218e-21)
(1.07232 -0.44278 -1.91677e-21)
(1.01062 -0.0248632 -8.83013e-22)
(1.00991 -0.0248894 -1.22091e-22)
(1.01062 -0.0257029 -2.44117e-21)
(1.10069 0.0645275 -2.19153e-22)
(1.09984 0.0638072 -1.56589e-20)
(1.10069 0.0634475 -3.59292e-20)
(-0.171322 0.00103623 -4.10712e-20)
(-0.170531 0.000191213 -1.04555e-19)
(-0.201677 -0.00202248 -7.64272e-20)
(1.21333 -0.195236 2.50232e-20)
(1.22106 -0.195303 -3.41318e-20)
(1.21687 -0.202423 1.0483e-21)
(1.10153 0.0654155 8.97671e-21)
(1.10006 0.0658632 2.74686e-20)
(0.808696 -0.124876 1.05167e-20)
(0.806895 -0.114356 1.24199e-20)
(0.817857 -0.11893 3.58835e-20)
(0.815991 -0.157938 1.01613e-20)
(0.814017 -0.146285 1.85651e-20)
(0.803052 -0.154672 -5.04066e-20)
(0.989828 -0.0291729 -1.88945e-21)
(0.990797 -0.0294537 -6.13147e-21)
(0.990017 -0.030595 8.00201e-21)
(1.01859 -0.0227047 1.84129e-23)
(1.01918 -0.0234864 -4.36638e-22)
(1.0192 -0.0225587 2.36589e-22)
(1.13811 -0.0105477 4.78299e-21)
(1.13949 -0.0124662 4.45801e-20)
(1.14086 -0.00941627 2.21822e-20)
(1.01798 -0.0218696 -4.3971e-22)
(1.01775 -0.0228572 4.56956e-23)
(-0.14246 -0.00392246 7.97096e-20)
(-0.110817 -0.00551098 -2.8324e-20)
(1.06346 0.01309 6.79e-22)
(1.065 0.013416 -2.00473e-21)
(1.03552 -0.0195288 7.27232e-24)
(1.03583 -0.0187326 1.1553e-21)
(1.02887 -0.130618 -8.15671e-22)
(1.03097 -0.135034 5.64118e-22)
(1.0257 -0.133911 -2.10261e-21)
(1.01644 -0.0234685 -3.30518e-24)
(1.01636 -0.0243512 1.80476e-22)
(1.21819 -0.0334725 0)
(1.2176 -0.0303629 -4.00307e-20)
(1.22101 -0.0324346 -2.71137e-20)
(1.16896 -0.0525703 1.95924e-20)
(1.16578 -0.0511739 2.48021e-20)
(1.16604 -0.05478 0)
(1.13381 0.0639408 2.15334e-20)
(1.13176 0.0643863 2.644e-20)
(1.13337 0.0662119 3.74023e-20)
(1.08096 0.0253873 1.16378e-21)
(1.08207 0.0246685 -4.60061e-22)
(1.01468 -0.00797206 1.26354e-21)
(1.01448 -0.00822204 2.05114e-22)
(1.01505 -0.00830795 5.93745e-23)
(1.01391 -0.000740833 0)
(1.01398 -0.00113419 0)
(-0.219255 -0.014368 0)
(-0.199161 -0.0181609 5.5523e-20)
(-0.116019 -0.0226857 -3.49228e-21)
(-0.102992 -0.023031 -2.10847e-20)
(1.11426 -0.358555 0)
(1.1052 -0.368993 1.44777e-20)
(1.12017 -0.369864 0)
(1.03035 -0.0164535 2.17385e-21)
(1.0293 -0.0163891 -5.44028e-22)
(1.02967 -0.015724 9.09255e-22)
(1.0163 -0.0408917 2.31041e-22)
(1.01738 -0.0415721 5.6754e-23)
(1.01634 -0.0423262 2.11734e-22)
(0.0370031 0.023246 0)
(0.0565756 0.0271665 1.67604e-20)
(0.0332773 0.023604 0)
(1.2069 0.0340857 -7.95154e-21)
(1.20922 0.0319429 0)
(1.21167 0.0358215 0)
(0.604147 -0.202848 -6.44246e-21)
(0.627262 -0.195648 2.76944e-21)
(0.62355 -0.225442 7.31919e-20)
(1.01146 -0.0250521 8.53432e-22)
(1.01078 -0.0240534 1.69523e-21)
(1.13429 -0.156951 -8.90953e-21)
(1.13235 -0.150899 -6.21209e-20)
(1.129 -0.156411 -3.98209e-20)
(0.183521 0.0451886 -3.16467e-20)
(0.147634 0.0409168 -1.51892e-20)
(0.175762 0.0438846 1.55523e-22)
(1.12315 0.0154577 -4.73834e-21)
(1.12483 0.0168865 -2.34278e-20)
(1.12453 0.0140885 -1.61641e-20)
(1.03584 -0.094455 0)
(1.03726 -0.0977872 0)
(1.10281 -0.0708653 -1.71642e-20)
(1.10419 -0.0676592 7.59166e-21)
(1.10048 -0.068764 1.68814e-20)
(1.33397 -0.165056 -3.64973e-20)
(1.32597 -0.156373 5.96227e-21)
(0.321605 0.0602855 2.406e-20)
(0.271396 0.0558755 1.81888e-20)
(1.17071 -0.105312 -2.50627e-20)
(1.16808 -0.101068 -2.82941e-20)
(-0.0229287 0.0143726 0)
(-0.0498248 0.0136607 0)
(-0.0593338 0.012963 0)
(0.717677 -0.121141 6.00251e-20)
(-0.11685 -0.00610076 -7.20724e-20)
(-0.147228 -0.00525639 -2.57138e-20)
(0.853797 -0.0938877 -1.28342e-20)
(0.844517 -0.0925992 -2.3382e-20)
(0.849444 -0.0853122 5.66574e-21)
(1.12031 0.0189456 -6.55111e-21)
(1.11821 0.0184963 5.31567e-21)
(1.11913 0.0206639 1.50301e-20)
(1.25858 -0.10498 1.01084e-20)
(1.2539 -0.10036 -1.13217e-20)
(0.975089 -0.0475278 -6.51055e-21)
(0.975183 -0.0454437 6.07064e-22)
(0.976961 -0.0462318 -8.4776e-21)
(0.991216 -0.0123262 2.34875e-21)
(0.99113 -0.0132792 1.46006e-21)
(0.746124 -0.302193 3.90594e-20)
(0.729312 -0.316763 3.36282e-20)
(0.752731 -0.320173 -2.91757e-20)
(1.14008 -0.00104526 -7.16517e-20)
(1.066 0.00293979 -3.22247e-20)
(1.06091 0.00523111 1.29409e-20)
(1.00956 -0.0730136 1.87157e-21)
(1.00927 -0.0750965 -1.78169e-21)
(1.00707 -0.0739158 4.1325e-21)
(1.02184 -0.00554793 -2.35383e-21)
(1.02119 -0.00565424 -1.98258e-21)
(-0.152225 -0.00793561 -5.25493e-20)
(0.281585 0.0322449 0)
(0.281946 0.0346707 0)
(0.259243 0.0276112 0)
(1.13751 -0.161396 1.06584e-20)
(1.13974 -0.155943 3.34933e-20)
(1.10242 0.065148 -7.71068e-21)
(1.10221 0.0664774 -7.30007e-21)
(1.21874 -0.0373781 0)
(1.21488 -0.035027 -1.81888e-22)
(1.17198 -0.0539606 4.46457e-20)
(1.17167 -0.0503799 -8.35273e-22)
(1.21408 0.0179408 -1.75343e-20)
(1.21513 0.0152306 -3.76262e-20)
(1.21195 0.0156321 -1.8566e-20)
(0.973059 -0.0236857 0)
(0.973788 -0.0250793 -4.96172e-21)
(0.971993 -0.0252573 0)
(0.984008 -0.0106785 0)
(0.98342 -0.0100484 -4.93494e-21)
(0.984397 -0.00972678 0)
(1.00149 -0.00684163 1.31905e-21)
(1.0014 -0.00698145 -2.9849e-22)
(1.0013 -0.00654724 1.28308e-21)
(-0.023688 0.0126601 -1.39328e-20)
(-0.0457724 0.00974904 3.17477e-21)
(1.11722 0.0152098 0)
(1.11715 0.0171409 9.5661e-21)
(1.11586 0.0159052 -8.92998e-21)
(1.06514 0.00350408 -4.17619e-21)
(1.06584 0.00415839 -1.97227e-21)
(1.06637 0.00315998 8.31899e-21)
(1.00012 -0.000485441 5.07719e-22)
(1.00012 -0.000425657 -4.3309e-21)
(1.00018 -0.000583266 -2.44352e-21)
(0.435505 0.0414977 -1.49077e-21)
(0.428105 0.042941 -1.08224e-21)
(0.460386 0.0461547 2.09763e-22)
(1.13729 -0.0077366 -7.7812e-20)
(1.13515 -0.0108376 -3.2767e-20)
(1.10642 0.0642455 -5.60555e-21)
(1.1065 0.0658939 -1.94274e-20)
(0.0637618 0.0131657 0)
(0.0459842 0.00746298 0)
(0.355754 0.0581472 1.05596e-21)
(0.328946 0.0544184 3.25886e-21)
(0.362476 0.0569199 3.80194e-21)
(0.344193 0.0574502 6.46654e-21)
(0.386835 0.0623019 9.62252e-21)
(-0.215963 0.000444793 -1.779e-20)
(-0.18633 0.00187406 3.4112e-20)
(1.03202 -0.127236 1.00968e-21)
(1.02711 -0.12621 9.15803e-22)
(0.658109 0.0403366 0)
(0.670939 0.0397221 -3.39357e-20)
(0.589512 0.0377917 -1.39768e-20)
(1.00105 -0.0077571 1.88488e-21)
(1.00092 -0.00746633 1.41895e-21)
(1.00101 -0.00738034 -3.95971e-21)
(1.01495 -0.00769572 5.01471e-22)
(1.01433 -0.00756845 2.85909e-22)
(1.15498 -0.0144179 0)
(1.1558 -0.0172895 1.69821e-21)
(1.15271 -0.0165816 -1.27392e-20)
(1.0012 -0.000402666 5.44125e-22)
(1.00108 -0.000515782 -6.71991e-22)
(1.00101 -0.000339461 0)
(-0.0113002 0.0158266 1.3217e-20)
(0.0138789 0.0171951 4.65909e-20)
(1.14357 0.094966 3.32335e-21)
(1.13793 0.0917289 0)
(1.13924 0.0942837 3.76325e-21)
(1.10945 0.0702013 6.18923e-21)
(1.11095 0.0709441 0)
(1.1089 0.071929 1.59662e-22)
(1.0152 -0.00745881 1.65899e-22)
(1.01552 -0.00781844 -8.75318e-22)
(1.08829 0.0257846 -7.76863e-21)
(1.08931 0.0248814 1.18526e-21)
(1.08771 0.024576 6.63642e-21)
(1.10795 0.0695906 -1.96019e-21)
(1.10933 0.0686407 2.0993e-20)
(1.20503 0.0374699 -4.80046e-21)
(1.20329 0.0329953 -6.67326e-20)
(1.11792 -0.457472 -4.24972e-20)
(1.03465 -0.123672 0)
(1.03273 -0.119558 0)
(1.03703 -0.120097 1.23666e-21)
(1.12148 0.0174425 0)
(1.12069 0.0147683 6.52063e-21)
(-0.283547 -0.0077879 -5.11534e-20)
(-0.281523 -0.00591774 -1.28921e-20)
(0.299065 0.0366061 9.36101e-21)
(0.277871 0.0297494 -1.23569e-21)
(1.14557 0.0601203 -8.40156e-21)
(1.14723 0.0622771 1.5417e-21)
(0.893097 -0.0683811 -3.10068e-20)
(0.888771 -0.0643473 3.14937e-20)
(0.887621 -0.0709977 -1.44179e-21)
(0.977327 -0.0261395 -4.23098e-21)
(0.976816 -0.0249292 8.88253e-21)
(0.978243 -0.0248689 8.97257e-21)
(1.01941 -0.0164503 4.68775e-23)
(1.01948 -0.0171334 -1.06421e-21)
(1.02022 -0.0167855 1.05239e-21)
(1.21068 -0.00818891 -1.43856e-21)
(1.20527 -0.00341996 -3.7974e-20)
(1.11864 0.0141936 5.8362e-21)
(1.11666 0.0132326 -2.00701e-20)
(0.0274439 0.00566939 -1.34771e-20)
(0.0186702 0.00377354 8.74908e-21)
(1.0866 -0.0363838 -5.82292e-21)
(1.08893 -0.0376479 1.52018e-20)
(1.00975 -0.0706157 -1.13932e-21)
(1.01203 -0.07202 2.6632e-22)
(1.09916 0.0631752 1.19496e-20)
(1.09844 0.062323 3.6065e-21)
(1.09925 0.0619561 5.66598e-21)
(1.14352 0.0600966 0)
(1.14412 0.0576307 0)
(1.04755 -0.0100992 -9.47979e-21)
(1.04862 -0.0105327 -4.31444e-21)
(1.04765 -0.0111109 -9.38402e-21)
(1.04393 -0.028962 -2.90665e-21)
(1.04252 -0.0289397 -7.16126e-21)
(1.04318 -0.0278805 -7.66877e-21)
(0.700646 -0.15321 2.86046e-20)
(0.721259 -0.157022 -9.93892e-21)
(0.710158 -0.17046 -6.44405e-21)
(1.25909 -0.109582 1.79793e-20)
(1.25895 -0.114899 -5.27976e-21)
(1.25414 -0.110822 -5.15978e-20)
(-0.000329298 0.0147879 -2.81536e-20)
(0.0196109 0.0157685 -1.19052e-20)
(0.032414 0.0165 2.7178e-20)
(0.0998411 0.0288213 -9.75929e-21)
(0.088822 0.0273604 2.93955e-20)
(0.135089 0.0306436 5.08772e-20)
(1.10829 0.0106445 0)
(1.1095 0.0125309 0)
(0.930276 -0.707253 -4.211e-20)
(0.929022 -0.76156 1.09906e-20)
(0.980528 -0.760144 -4.40445e-20)
(-0.0287245 0.0138933 1.6842e-20)
(-0.0158974 0.0143232 -2.36112e-20)
(0.937268 -0.024131 -2.50456e-20)
(0.939707 -0.022972 1.46591e-20)
(0.937075 -0.0210876 1.22895e-20)
(1.11118 0.0278395 4.90528e-21)
(1.11209 0.0266488 3.68734e-21)
(1.11037 0.0269035 9.37736e-22)
(0.245934 0.0448623 -1.53997e-20)
(0.265795 0.0485606 -4.64654e-22)
(0.23404 0.0435803 -1.09421e-20)
(1.08002 -0.0469369 1.76297e-21)
(1.08121 -0.0483371 5.06127e-21)
(1.07878 -0.048608 4.64766e-21)
(1.09676 0.0597286 8.94547e-22)
(1.09636 0.0592249 7.01795e-21)
(1.09591 0.0600878 1.65676e-22)
(1.0155 -0.0405444 0)
(1.0162 -0.0400245 0)
(1.26286 -0.108533 4.83399e-20)
(1.0001 -0.0019873 -5.19849e-21)
(1.00014 -0.00233691 6.67972e-22)
(1.00012 -0.00240262 8.9119e-22)
(1.13565 -0.0828901 -4.85547e-22)
(1.13767 -0.0802946 0)
(1.13885 -0.0847991 0)
(1.02502 -0.08288 -8.83534e-22)
(1.02753 -0.0832972 1.02297e-22)
(1.02604 -0.0855627 -1.1453e-21)
(0.982055 -0.0186405 -8.1609e-23)
(0.982758 -0.0194096 -8.34771e-21)
(1.17693 0.0635177 2.21793e-21)
(1.177 0.0665722 1.75121e-20)
(1.17979 0.0646835 6.07522e-22)
(1.04771 -0.0204827 3.58956e-21)
(1.04656 -0.0197814 -2.31237e-22)
(1.04792 -0.019238 3.71291e-21)
(0.178597 -0.544068 -7.9521e-21)
(0.133945 -0.589394 -9.44049e-21)
(1.01492 -0.00703287 1.75053e-22)
(1.01554 -0.00721127 -9.92536e-22)
(1.16436 0.0503025 -8.11588e-21)
(1.16668 0.0484231 3.4951e-20)
(1.16339 0.0475672 -2.00751e-20)
(0.0190936 0.0096834 4.7158e-20)
(0.00385242 0.00539106 2.1675e-20)
(-0.0369023 0.0125098 -5.02481e-22)
(-0.0442123 0.0136193 1.0802e-20)
(-0.00510698 0.0148661 -1.11338e-21)
(0.899158 -0.0772576 1.43732e-20)
(0.904401 -0.0757572 1.46414e-21)
(0.902786 -0.0815872 -5.56476e-22)
(1.11017 0.0291917 -3.70389e-21)
(1.11198 0.0289021 1.41523e-20)
(1.00005 -0.00129683 1.27108e-22)
(1.00002 -0.000963214 2.3655e-21)
(1.00003 -0.000977439 -2.92765e-21)
(0.756159 -0.28823 8.24963e-21)
(0.736254 -0.282175 -1.70047e-21)
(1.00173 -0.0137538 3.20863e-21)
(1.00173 -0.0131215 2.53053e-21)
(1.00205 -0.0136031 -6.21319e-23)
(1.13203 -0.0817617 -1.8049e-20)
(0.00739875 -0.044063 3.1452e-22)
(-0.0639654 -0.0377762 -4.8087e-20)
(-0.0398126 -0.0403268 8.70709e-20)
(0.896207 -0.0734628 -1.21572e-20)
(0.898016 -0.067053 -1.41214e-20)
(1.07844 -0.045038 4.76693e-21)
(1.08106 -0.0446426 -2.97676e-22)
(0.996579 -0.00147804 3.83934e-21)
(0.996217 -0.00174285 7.82779e-21)
(0.0691046 0.0269495 -3.24416e-20)
(0.106711 0.028538 -2.50424e-20)
(1.0223 -0.0123518 0)
(1.02185 -0.0116739 -1.60452e-21)
(0.890914 -0.418842 0)
(1.01824 -0.493094 -1.48426e-21)
(0.0823447 0.0256496 1.88018e-20)
(0.0734996 0.023777 -2.07761e-20)
(0.115201 0.0266069 -1.90237e-20)
(1.20528 -0.194834 2.96294e-20)
(1.2098 -0.187973 4.19175e-20)
(1.00011 -0.000541836 2.56295e-21)
(1.00007 -0.000386553 2.64079e-21)
(1.27833 -0.329037 0)
(1.30127 -0.326971 0)
(1.30818 -0.342045 5.0378e-20)
(-0.0567342 0.00711929 -1.93782e-20)
(-0.0488038 0.00723185 9.78414e-21)
(-0.0333588 0.0122819 9.09188e-20)
(0.52071 0.0637398 1.43406e-20)
(0.490959 0.0589346 1.02401e-20)
(1.09719 0.0595886 -1.28385e-20)
(1.11309 -0.0143266 -7.80355e-21)
(1.11331 -0.0168523 2.97456e-20)
(1.11077 -0.0151242 -8.73429e-21)
(0.719297 -0.351377 1.82973e-20)
(0.712523 -0.331927 2.38586e-21)
(0.694504 -0.346849 -2.77069e-20)
(1.17446 0.0623705 -1.70828e-20)
(1.17706 0.0605418 -2.93022e-21)
(1.08873 0.0270128 -7.26925e-21)
(1.08715 0.0266502 -7.68552e-21)
(1.09606 -0.419069 -1.51321e-21)
(1.07905 -0.41571 -1.73871e-20)
(1.05008 -0.136818 0)
(1.04529 -0.136734 0)
(1.04787 -0.132797 -7.2033e-21)
(0.193162 0.00904605 4.88396e-21)
(0.174395 0.00621093 -1.6029e-21)
(0.176587 0.00500271 4.65844e-21)
(1.18877 0.0210582 0)
(1.18718 0.0243499 5.80527e-20)
(1.18544 0.0202369 -4.9236e-20)
(1.01008 -0.000575043 -7.96383e-22)
(1.01065 -0.000818458 -2.66542e-22)
(1.01018 -0.00122256 4.18096e-22)
(1.08813 -0.0149559 -8.31795e-21)
(1.08613 -0.0145943 -9.55396e-22)
(1.0867 -0.01648 -2.18616e-20)
(1.09871 0.0642846 6.8226e-21)
(0.437437 0.0398113 -3.14671e-22)
(0.413218 0.0385807 2.94426e-22)
(0.327163 0.00645399 -1.04956e-20)
(0.345497 0.00957357 -8.34425e-22)
(0.33515 0.0065827 6.23769e-21)
(1.01874 -0.0161095 -8.27138e-22)
(1.01938 -0.0158901 5.05869e-22)
(0.58531 -0.216544 0)
(0.992634 -0.0134735 5.53271e-23)
(0.993082 -0.0138286 3.84651e-21)
(0.993175 -0.0130256 3.48451e-21)
(1.14955 0.0743631 1.17849e-20)
(1.15206 0.0736024 2.30263e-20)
(1.15004 0.0716982 -1.15245e-20)
(1.21017 0.0286289 1.49572e-20)
(1.21142 0.0257226 3.70355e-20)
(1.20748 0.0268612 1.56009e-20)
(1.08961 -0.0156542 0)
(1.08914 -0.0141363 0)
(1.1362 -0.0058725 -4.77876e-21)
(1.13847 -0.00493487 -6.09953e-20)
(1.19075 0.0189754 0)
(1.1919 0.022876 2.65021e-22)
(0.999629 -0.02579 -7.75011e-21)
(1.00034 -0.0265348 -4.40041e-21)
(1.00026 -0.0252609 3.62389e-21)
(0.811224 -0.134791 -2.26696e-20)
(0.799482 -0.130409 -2.19384e-20)
(1.10944 0.0618108 3.63632e-21)
(1.10825 0.062776 -2.81693e-20)
(1.10823 0.0611202 4.95283e-21)
(1.14199 0.0703704 -2.14138e-20)
(1.1338 0.0672741 4.31685e-20)
(1.18688 0.068758 -3.90601e-20)
(0.997835 -0.0090448 6.32785e-21)
(0.998117 -0.00877673 6.01747e-21)
(0.997902 -0.00848637 5.73818e-21)
(0.982605 -0.0176836 1.3033e-20)
(0.981267 -0.0179518 1.26951e-20)
(0.894078 -0.0789431 0)
(0.321912 0.0598428 0)
(0.333063 0.0605685 0)
(0.364914 0.0647422 1.00262e-20)
(-0.244664 -0.0110961 8.80311e-22)
(-0.271934 -0.00879841 -8.0223e-20)
(-0.247448 -0.0119332 -1.03253e-19)
(1.12778 0.0089829 -2.36939e-21)
(1.12662 0.00766233 1.83738e-20)
(1.12876 0.007215 9.45441e-22)
(1.03128 -0.0165369 0)
(1.03093 -0.0172527 9.13612e-22)
(1.2037 0.0399452 2.40258e-21)
(1.20812 0.0410023 -2.41893e-20)
(1.21321 0.0205534 -1.74223e-20)
(1.21221 0.0232714 5.20617e-21)
(1.20983 0.0211781 1.67632e-20)
(1.13777 0.0589511 6.50489e-21)
(1.13521 0.0596381 3.81388e-21)
(1.13574 0.057248 -2.65223e-20)
(1.13538 -0.0032087 3.85409e-20)
(1.13357 -0.00601917 3.16131e-20)
(0.310933 0.0573112 -1.17944e-20)
(0.28597 0.052436 1.30294e-20)
(-0.149857 0.0018246 3.17724e-20)
(-0.147813 0.00126789 -2.47423e-20)
(-0.179744 -0.000468529 3.52416e-22)
(1.0916 -0.0230789 0)
(1.09191 -0.0248331 -1.37399e-20)
(1.0935 -0.0231428 9.84138e-21)
(1.10464 0.00760752 2.11798e-20)
(1.10629 0.00796327 -1.76689e-20)
(1.10459 0.00920133 2.06861e-20)
(1.20086 -0.181368 -2.56411e-20)
(1.17083 -0.169588 -6.96739e-21)
(1.02732 -0.142589 -5.50786e-20)
(1.02107 -0.0213925 2.61947e-22)
(1.02158 -0.0222457 -2.45827e-22)
(1.02036 -0.0217837 -8.08831e-22)
(1.00155 -0.0066504 0)
(1.0016 -0.00647835 -7.90881e-23)
(1.00141 -0.00622988 0)
(1.13983 0.0586397 0)
(1.13898 0.061066 -1.16291e-20)
(1.15149 -0.122314 -2.44486e-20)
(1.14959 -0.117972 -2.27854e-20)
(1.14645 -0.121898 7.1227e-21)
(1.02308 -0.0124007 -1.97172e-21)
(1.02376 -0.0124886 6.71692e-22)
(1.02327 -0.011927 -2.0527e-21)
(1.00019 -0.00233342 0)
(1.00016 -0.00233105 3.1205e-21)
(1.00011 -0.00197467 -2.31362e-21)
(1.00171 -0.0142159 1.26004e-21)
(1.00145 -0.0137487 -4.71853e-22)
(1.00412 -0.000707862 9.28634e-24)
(1.00442 -0.000731226 1.03951e-23)
(1.00412 -0.00042283 5.5736e-24)
(1.10835 -0.00641291 -4.93557e-20)
(1.11052 -0.00664149 4.29781e-21)
(1.10975 -0.00452071 -3.22818e-20)
(1.00169 -0.00711318 2.56326e-21)
(0.255808 0.0455194 1.67298e-21)
(0.286271 0.0500517 2.13365e-20)
(1.12726 0.00375028 1.49673e-20)
(1.12543 0.00564523 0)
(1.01277 -0.0330979 1.05294e-21)
(1.01196 -0.0330832 -1.39518e-21)
(1.01266 -0.0339224 -6.90806e-22)
(0.424428 0.0355737 0)
(0.035229 0.0231992 4.72289e-21)
(0.0181476 0.0207976 3.18318e-20)
(0.974491 -0.019647 1.19293e-21)
(0.975029 -0.0209764 -1.62723e-21)
(0.97596 -0.0197618 -4.14534e-21)
(1.16523 0.053213 -2.1333e-20)
(-0.192466 -8.21929e-05 -2.14411e-21)
(-0.224712 -0.00148894 -1.04615e-19)
(-0.191201 -0.00069106 0)
(0.973297 -0.0488188 -5.11808e-22)
(0.975547 -0.049572 1.94327e-21)
(0.973723 -0.0183108 -1.11383e-21)
(0.972614 -0.0198827 4.39374e-21)
(1.12918 0.00273579 4.73618e-20)
(1.12938 0.0052869 -4.11075e-21)
(0.000759573 0.00604923 -1.90134e-21)
(-0.00463674 0.0070421 2.74708e-20)
(0.0178547 0.0112738 -1.94192e-20)
(0.252966 -0.00606374 5.00144e-20)
(0.184115 -0.00268715 3.59472e-20)
(0.240981 -0.00739852 -5.70816e-20)
(1.15618 -0.00253921 -6.91618e-21)
(1.15909 -0.00312595 -5.19536e-21)
(1.15674 -0.00495834 -1.9336e-21)
(1.00243 -0.000526678 0)
(1.00232 -0.000750205 0)
(0.65226 0.0411433 3.43981e-20)
(0.729403 0.041577 1.99954e-20)
(1.00107 -0.00814508 4.90045e-22)
(1.16187 -0.00361959 -1.5531e-20)
(1.16301 -0.00639409 1.00388e-20)
(1.16518 -0.00379884 -2.06112e-20)
(-0.19641 0.000221941 -9.22068e-20)
(-0.167405 0.00277163 7.25662e-20)
(1.14848 0.0747445 -2.82623e-21)
(1.14674 0.073243 6.01912e-21)
(1.18998 0.0746479 -2.24951e-20)
(1.06435 0.0024413 -1.00541e-20)
(1.06375 0.00346231 3.29215e-21)
(1.22406 -0.197607 0)
(1.29644 -0.213131 0)
(1.3385 -0.17439 -1.05255e-20)
(1.31518 -0.16822 7.98515e-20)
(1.31416 -0.175947 -5.10843e-20)
(-0.119909 -0.00175834 1.8276e-20)
(-0.109941 -0.000577847 -6.24808e-20)
(-0.0815024 -0.00181978 -1.03883e-19)
(1.21933 -0.0406106 2.00991e-21)
(1.21626 -0.0425301 3.25491e-20)
(1.21996 -0.0441717 2.11316e-21)
(0.785126 -0.104027 2.04246e-20)
(0.785443 -0.0925514 6.67012e-20)
(0.77311 -0.0972299 -5.53941e-22)
(0.00303063 0.0155988 0)
(0.0137242 0.0163766 0)
(0.0771678 0.0315002 2.07292e-21)
(0.0980316 0.034525 -4.54964e-21)
(0.0711426 0.0304944 -2.12187e-20)
(1.15459 0.0511084 6.38492e-21)
(1.08664 0.0511546 5.60264e-20)
(1.0453 -0.0290879 3.55076e-21)
(1.04458 -0.0302901 1.35061e-21)
(-0.268477 -0.00542328 -4.7984e-20)
(-0.246105 -0.00675142 -2.25838e-20)
(-0.236947 -0.00577249 -4.97712e-20)
(0.182342 -0.000110626 0)
(0.186041 -0.000604386 0)
(0.478309 -0.4569 -4.51013e-20)
(0.445419 -0.430119 -5.61489e-20)
(0.446719 -0.478004 -1.26558e-19)
(0.507469 -0.436469 5.56536e-20)
(0.517127 -0.478428 4.50828e-20)
(0.935268 -0.0255088 -1.50984e-20)
(0.936704 -0.0265989 -2.16584e-20)
(1.15914 -0.0103882 -1.6706e-20)
(1.15711 -0.0123187 -2.57045e-20)
(1.16023 -0.0129301 -6.09289e-21)
(0.945641 -0.120916 -1.00712e-20)
(0.948997 -0.116347 0)
(0.951655 -0.12214 0)
(0.275458 0.010276 -2.2659e-21)
(0.256138 0.00515624 1.23902e-20)
(0.791444 -0.151521 -4.62595e-20)
(0.789669 -0.138269 2.02669e-20)
(0.77636 -0.147483 3.37272e-21)
(1.00807 -0.00177517 0)
(1.00804 -0.00211255 0)
(1.00842 -0.00198021 9.13923e-24)
(1.01924 5.61398e-05 1.07406e-22)
(1.01914 4.44061e-05 8.90268e-22)
(1.07148 -0.0829991 -1.93049e-20)
(1.0745 -0.0836874 -9.80633e-21)
(1.07182 -0.0857483 8.48801e-21)
(-0.15202 -0.00497525 3.08002e-20)
(-0.130761 -0.00294459 6.63717e-20)
(0.244593 -0.573119 2.6917e-20)
(1.02168 -0.0209967 4.91654e-23)
(1.02058 -0.020673 8.41993e-22)
(-0.0655034 0.0123132 -1.1979e-20)
(0.934662 -0.118035 9.85614e-21)
(0.940637 -0.119895 -1.86959e-20)
(0.938279 -0.113899 -4.97329e-21)
(1.10176 -0.0733512 -4.30982e-20)
(1.10503 -0.0721598 -2.42033e-21)
(1.06685 0.00483947 8.23824e-23)
(1.06567 0.00509229 -2.10493e-21)
(0.00177019 0.00538486 -1.53453e-21)
(-0.0181888 0.00415571 2.02816e-22)
(1.20168 0.0431339 -1.12311e-22)
(1.20036 0.0389963 3.36062e-20)
(1.09743 0.0627917 5.39795e-22)
(1.02405 -0.0798583 5.32619e-22)
(1.02223 -0.0818349 1.35433e-21)
(1.07696 -0.0436241 7.81851e-22)
(1.07611 -0.0454587 8.30976e-21)
(0.516521 0.0384982 1.08405e-20)
(0.521695 0.037336 -1.08333e-20)
(0.496783 0.0351776 -1.12868e-20)
(0.97657 -0.0276168 -8.8048e-21)
(0.97815 -0.0273517 -2.55327e-20)
(1.21682 0.019996 1.82169e-22)
(1.08959 -0.0226547 -1.30502e-20)
(1.09128 -0.0209044 0)
(1.12902 0.000540468 3.0632e-20)
(1.13133 0.00222196 1.89464e-20)
(0.931855 -0.123169 6.98798e-21)
(0.928467 -0.116761 2.2772e-20)
(0.992091 -0.0139597 -4.09719e-21)
(1.01398 -0.0332988 2.26761e-21)
(1.01311 -0.0321902 1.62963e-21)
(1.22421 -0.0947274 -4.06621e-21)
(1.22497 -0.0991558 5.78772e-20)
(1.22944 -0.0945935 3.61727e-20)
(1.22904 -0.196057 -1.82672e-22)
(1.22482 -0.188902 4.71659e-20)
(1.18575 0.0264501 1.10007e-20)
(1.1841 0.0289967 -4.55751e-20)
(1.18272 0.0254263 -7.28695e-20)
(1.339 -0.175909 3.15988e-20)
(0.507812 0.0385778 1.14955e-20)
(0.536721 0.0410906 1.95213e-20)
(1.01121 -0.0762695 -4.4065e-21)