/*--------------------------------*- C++ -*----------------------------------*\
| =========                 |                                                 |
| \\      /  F ield         | OpenFOAM: The Open Source CFD Toolbox           |
|  \\    /   O peration     | Version:  v2012                                 |
|   \\  /    A nd           | Website:  www.openfoam.com                      |
|    \\/     M anipulation  |                                                 |
\*---------------------------------------------------------------------------*/
FoamFile
{
    version     2.0;
    format      ascii;
    class       volScalarField;
    location    "250";
    object      ddt0(k);
}
// * * * * * * * * * * * * * * * * * * * * * * * * * * * * * * * * * * * * * //

dimensions      [0 2 -3 0 0 0 0];


internalField   nonuniform List<scalar> 
13917
(
7.37682e-05
3.81786e-06
-3.35427e-06
1.60689e-08
1.32719e-06
3.80896e-06
8.83812e-09
9.24764e-06
3.56341e-09
-0.000202927
7.08137e-06
2.46374e-08
5.89152e-09
-0.0185755
-1.15498e-06
4.00655e-05
2.77026e-09
-9.98821e-07
-1.02844e-06
-0.000104063
-2.14082e-08
6.36174e-08
1.77167e-09
6.46599e-08
2.05228e-08
1.46192e-07
0.00547118
-6.34279e-05
1.65312e-07
1.29593e-07
0.00015613
-3.00784e-07
1.92726e-08
0.000256983
-3.8359e-08
0.000209985
1.9267e-07
-4.06975e-08
1.162e-08
-5.02945e-07
2.12873e-08
1.22386e-07
5.06526e-09
-7.55213e-07
-6.64231e-07
3.14736e-05
1.00707e-07
-0.00372761
0.00279927
-2.34847e-08
2.5848e-08
2.58987e-06
-0.000102662
-1.501e-08
-4.67353e-09
2.1979e-06
0.000169517
1.70914e-08
1.15223e-07
6.81888e-05
-0.00725126
1.01303e-05
4.4803e-08
2.2094e-08
0.00323783
6.72909e-05
5.59673e-07
0.000272717
-1.24601e-05
-7.65047e-05
0.00295029
0.000164845
-4.74707e-09
-6.74368e-08
-7.1584e-08
4.30754e-08
6.33901e-07
2.95809e-10
3.72616e-08
1.9529e-08
-7.74817e-08
-1.17006e-08
-7.63042e-09
0.000402137
-4.12005e-09
2.75956e-06
-2.66593e-07
-2.65592e-09
-5.46932e-07
4.57749e-09
-2.9096e-09
3.18265e-09
0.00278733
-3.7004e-08
-8.54587e-09
3.25574e-07
0.0004817
-1.44115e-08
-2.52601e-09
7.29197e-08
4.16345e-08
3.58561e-08
-8.08406e-08
-1.0553e-08
7.66114e-07
0.000893478
0.00053216
1.06996e-05
2.01227e-07
0.00462302
-7.43029e-09
0.000324724
2.3171e-07
-0.00310254
0.00314919
5.86384e-08
-8.30673e-07
4.76539e-09
-5.63726e-07
-7.99356e-09
-1.19027e-08
-4.68819e-08
-1.21905e-06
-1.6851e-07
-7.86772e-05
0.00108333
2.14803e-08
-2.20368e-07
3.23655e-08
-3.16275e-07
-1.21436e-08
-5.26424e-06
-0.000688405
5.96334e-08
-4.07901e-07
0.00456172
-0.000913367
-7.77238e-05
1.41011e-07
-4.56032e-08
-0.00623637
-2.3538e-08
0.00117755
1.76495e-08
-8.38614e-09
6.87626e-06
0.00256793
-0.00718158
-0.0016267
-1.12834e-08
-3.90101e-07
3.39173e-08
-8.93518e-09
-6.48793e-09
0.00284503
1.24838e-07
-8.93989e-09
-0.000840758
2.13631e-08
1.02638e-08
2.1942e-09
-0.00025836
6.96564e-07
-0.00205696
-0.000386512
-1.28882e-05
-4.47072e-05
-0.000845937
3.85501e-09
-4.34674e-08
9.11655e-08
0.000185188
2.39767e-09
-0.00584301
1.75901e-06
1.79887e-08
1.56593e-08
2.8726e-06
-8.39999e-09
8.09484e-07
8.16552e-09
8.12509e-08
2.52994e-08
2.22945e-06
-1.69919e-06
7.89272e-06
2.61497e-08
6.18437e-06
9.53063e-08
-1.85363e-05
1.54026e-06
-5.82092e-07
-6.37786e-08
0.000106061
-3.90343e-08
-7.94042e-05
-1.57313e-08
-0.000913078
-4.09011e-08
8.55978e-08
1.03987e-07
-6.57046e-05
-5.55352e-05
1.5779e-07
0.00561128
1.42222e-06
-3.84627e-07
-4.04065e-08
2.78934e-06
-7.99693e-08
1.74127e-08
3.89626e-06
6.59633e-06
-0.00288611
-3.88338e-07
-2.57316e-08
0.000939319
3.17092e-09
-9.92492e-09
-1.39837e-08
-0.00233754
3.99577e-07
-2.04714e-05
-1.34499e-10
4.64465e-08
0.00424505
-0.000105497
2.3449e-09
-3.20296e-09
1.757e-08
-1.81237e-08
-2.33312e-08
0.000122967
-0.00179283
1.25522e-08
1.42436e-08
7.41583e-07
8.08992e-05
5.48213e-09
7.65139e-11
0.00620936
0.00135303
2.60892e-06
0.000938745
4.45073e-06
2.01468e-08
-0.000498057
8.02685e-07
4.14265e-07
-2.70412e-07
1.14401e-07
-0.00195257
-9.3188e-09
-3.21341e-07
9.89931e-07
1.86824e-08
3.61488e-09
2.11554e-08
2.13327e-06
-1.58452e-08
4.88547e-05
-0.000428969
-5.39628e-08
6.95061e-09
2.20533e-07
5.37045e-09
-7.76259e-09
7.27247e-09
2.74659e-08
-4.79802e-08
-0.000109957
0.000562836
1.64744e-08
1.28945e-06
3.70826e-05
3.58907e-09
-3.78208e-06
0.000138731
-2.3626e-09
-3.47831e-05
5.29752e-09
-0.000498985
2.2858e-08
-1.07888e-06
1.19802e-08
3.19294e-09
-2.31671e-06
-1.70489e-08
-8.88965e-05
-7.44125e-08
-0.00253166
1.72076e-06
0.00313258
-0.000103317
2.63465e-09
1.24779e-07
2.38034e-06
7.54391e-08
1.91107e-06
3.08877e-08
-3.15673e-08
-1.16342e-08
3.79644e-06
2.06869e-06
-2.97204e-07
3.17431e-08
1.17587e-09
-0.000835238
-5.46189e-05
3.02944e-08
-2.79469e-06
7.60148e-08
-0.00399992
-1.25782e-06
0.000667232
-0.00404947
0.000115811
6.48649e-06
1.00993e-06
0.000340858
-0.00532958
1.76087e-06
7.52712e-09
-1.32479e-06
0.00504345
1.33604e-07
4.33956e-06
-5.7541e-07
3.6148e-09
0.000384809
-3.90897e-09
-4.24789e-08
-1.40059e-09
-0.000277112
2.35864e-09
-2.34504e-07
1.16681e-06
7.04669e-05
4.71106e-09
-2.98002e-07
0.000325061
-2.50484e-11
1.31809e-07
0.000496431
0.000862658
-0.00191123
-0.0142971
-7.95413e-09
-1.03305e-08
0.00140245
5.35123e-06
-1.59422e-08
2.23729e-06
9.08039e-09
-1.49727e-06
-1.9512e-07
3.34e-07
1.69174e-06
-3.61297e-06
-5.22702e-08
0.00020831
2.57526e-08
1.3981e-09
1.67484e-07
-1.70123e-06
2.30495e-09
5.77839e-05
-4.63167e-08
-0.000733991
-4.49493e-09
3.4351e-06
-4.72971e-06
0.00675328
1.51212e-07
6.8158e-06
-4.55301e-05
1.20531e-06
1.65374e-08
0.00116017
-2.7519e-07
-0.000289743
-2.87522e-07
1.37731e-07
0.00704387
2.24575e-08
0.000205486
1.2972e-08
-4.508e-05
9.18571e-05
1.16861e-07
0.0041887
-3.85841e-06
5.98846e-08
-0.000862721
1.81398e-06
7.79734e-08
-2.1626e-06
-1.69666e-08
-4.06908e-06
-6.43632e-06
-3.56169e-09
1.17998e-08
2.75264e-08
1.09395e-08
-6.49218e-09
1.20818e-08
0.00309664
-1.72594e-05
-2.49307e-09
2.04287e-08
4.25889e-08
2.48948e-07
-0.0007292
2.06093e-08
4.21223e-09
-1.18047e-06
2.28692e-06
5.70332e-09
1.07084e-07
-0.00261237
0.00414316
0.000367484
-1.05718e-06
-0.00037911
-8.42606e-08
3.11554e-08
2.92958e-07
-5.98973e-09
2.74861e-08
6.43483e-09
2.92175e-08
-8.75068e-08
-0.000606605
-2.1755e-08
-6.78592e-07
-0.000109408
1.83562e-07
1.80214e-08
-8.41878e-09
-0.00094432
1.59223e-07
-0.000108273
-4.5484e-08
6.44348e-09
-4.30082e-07
-3.00255e-08
2.0514e-07
3.8124e-08
-0.00277544
1.7632e-07
0.00114033
6.48338e-09
-5.40305e-09
3.38594e-06
-6.16065e-08
4.34932e-06
-0.00191148
1.32628e-08
0.00449754
1.86496e-08
-5.06221e-09
4.02552e-08
-6.04901e-09
1.0885e-08
-1.88119e-09
-0.000699127
-0.00705801
8.30157e-09
0.00329846
-9.69608e-07
1.45558e-09
2.4049e-07
-1.32123e-07
-0.000640367
1.02074e-08
0.000692275
-4.30769e-05
0.000102835
1.80699e-08
5.75758e-05
4.39314e-06
8.836e-08
-0.00233366
-1.4561e-09
-1.34502e-08
-4.05173e-09
9.1774e-09
-1.61665e-07
-1.23978e-06
-9.76015e-08
5.95387e-07
1.72905e-06
-3.9801e-06
-1.23437e-06
-3.50441e-09
-0.00561716
2.99179e-08
-8.29899e-08
-0.000649753
-4.78701e-09
-1.34451e-06
3.94806e-06
-1.3318e-09
-0.000586631
-5.74357e-09
-3.75166e-08
2.38252e-07
-5.2111e-10
-3.8679e-10
3.94268e-06
-0.00107668
0.00406516
5.36032e-10
1.45387e-08
1.66803e-07
-0.00208376
-0.00258557
-7.80379e-09
-8.69491e-09
1.82526e-09
6.36388e-07
-0.00141028
3.45783e-08
1.81136e-09
4.97755e-08
9.11748e-09
-7.94447e-07
-3.50353e-08
-6.74222e-10
-9.66441e-08
-1.24328e-09
4.67752e-08
2.76884e-08
0.000568231
-5.53031e-09
1.62464e-08
-4.22913e-08
-7.26164e-09
2.53927e-07
-1.88071e-06
1.34787e-06
-6.61999e-06
3.17729e-08
5.71131e-07
-0.000939757
-0.000824
-0.000160668
3.86595e-09
2.65182e-08
8.61272e-06
1.8444e-08
0.00313183
1.50239e-08
0.00194135
-1.69372e-08
-0.000196135
-4.07025e-06
7.12337e-09
-0.000192072
3.67842e-09
-1.88547e-07
-1.16831e-08
-1.76178e-07
1.37927e-05
3.10597e-08
-2.40851e-08
4.12664e-08
4.37042e-09
3.23071e-08
-5.82187e-07
-1.59835e-06
4.01218e-09
-7.86804e-07
2.36668e-07
0.00493307
0.00196743
-0.00108201
-0.000607934
-5.51192e-09
-8.89156e-05
1.64586e-08
-0.00421684
-0.00557357
4.42372e-08
-1.20895e-05
4.25089e-08
2.56237e-08
7.5759e-09
3.6207e-08
-1.54876e-08
4.68287e-09
0.000937993
-5.21806e-09
-2.39469e-07
-1.63811e-08
2.26137e-09
2.06933e-08
2.51663e-06
-0.000436251
-9.24178e-05
-2.38607e-07
-2.92291e-08
0.000159106
0.000122123
1.43097e-08
-0.00244261
4.44625e-09
-4.1973e-07
1.74052e-08
0.00105181
7.74835e-09
-8.61506e-07
-9.26401e-09
0.00414589
3.63789e-08
0.00244329
8.6256e-10
5.58854e-09
3.20223e-08
3.86306e-08
0.000274245
-1.10179e-05
5.29689e-08
2.1363e-07
7.77526e-10
-1.02849e-08
3.91102e-08
0.000353615
-5.33735e-09
2.50635e-06
1.62452e-08
3.47234e-08
-1.95223e-06
3.69323e-08
-4.61491e-07
-1.33759e-08
8.51666e-10
-0.00436434
-2.65963e-07
-1.22489e-08
-9.33768e-05
-1.9739e-06
9.11446e-05
4.08204e-06
1.56788e-09
-1.49432e-06
0.00050213
3.1374e-06
2.8457e-07
1.9357e-07
-5.68146e-07
-1.29866e-08
-1.54973e-08
0.00022744
3.36685e-07
7.78666e-09
-0.00145113
4.0384e-08
0.00402953
-0.0021866
-1.14478e-05
-1.3682e-07
-2.25605e-07
7.99033e-06
-3.41755e-08
2.80989e-06
7.19056e-05
3.28815e-10
-8.79069e-09
2.25429e-08
-4.21395e-06
-2.36389e-09
-0.000109905
-2.08466e-08
-5.67517e-09
-4.75145e-07
-1.53367e-09
0.000694755
1.27109e-08
3.22228e-08
-0.00101335
1.59137e-07
-0.00101791
1.13483e-09
-4.13046e-07
2.00554e-08
1.0823e-08
6.84023e-09
-1.4709e-08
-6.6372e-05
-1.5327e-07
0.00359921
-0.000988287
3.5137e-06
-0.00108795
1.53232e-08
-1.82464e-08
4.34352e-08
0.000197446
0.00433953
-2.47983e-08
-8.22377e-05
-0.00798116
2.79268e-09
3.09215e-08
1.98917e-07
0.000336635
-0.000441931
3.08065e-08
1.094e-08
1.70161e-08
-3.69219e-07
8.29541e-07
8.78958e-08
-2.35881e-08
-1.45439e-08
2.0242e-08
-1.94848e-08
5.87366e-09
1.78641e-06
-1.0173e-06
1.00874e-07
2.41224e-06
-8.7161e-05
2.56328e-06
-0.00486287
1.52498e-07
2.61069e-06
-7.22255e-09
2.15638e-06
-8.7422e-09
-1.41794e-07
-0.00016884
2.33302e-05
1.96152e-08
9.79685e-08
-5.05176e-09
7.25479e-09
-1.06644e-08
-1.73951e-06
3.06534e-06
-1.59341e-07
-1.72211e-07
-5.28763e-09
3.05665e-06
4.50008e-09
1.02336e-08
-3.36142e-07
-2.18041e-08
-1.93445e-07
0.000507222
9.76443e-10
1.09739e-07
2.73335e-06
-2.28661e-08
5.1779e-09
1.56507e-08
-1.19174e-08
-7.45347e-05
1.96398e-08
1.35341e-08
-4.28221e-08
-8.17435e-09
2.22749e-08
2.11939e-06
-9.55725e-05
4.29448e-07
0.0052522
-1.13997e-06
0.00141097
-1.02486e-08
7.06005e-07
-3.27737e-05
8.74874e-08
-5.81613e-05
4.63482e-09
-9.18368e-09
4.71977e-09
1.31175e-07
-2.06618e-06
7.71307e-09
0.000413478
-7.29603e-08
0.000283239
1.39228e-07
8.12501e-09
-1.74993e-08
-2.93458e-07
-1.02126e-06
-0.00116546
-1.75218e-06
4.37375e-09
0.00060801
2.12085e-08
5.32417e-06
4.62277e-09
-2.10711e-05
6.50536e-07
-2.21512e-08
1.88863e-08
0.00116187
3.67079e-09
1.83475e-05
0.00400409
5.91637e-09
-2.57346e-08
6.35031e-09
2.04662e-06
-0.00336704
1.75508e-08
-0.000320075
1.53225e-08
-1.39728e-05
-6.69934e-07
0.00467958
-9.98776e-09
-7.67223e-09
2.4398e-06
-4.43573e-09
-1.86111e-08
6.12942e-08
8.96355e-09
-4.8818e-08
-7.52016e-09
-7.56946e-06
-2.23388e-08
2.57557e-05
1.12425e-06
-0.00890093
0.00119145
0.00470024
2.56608e-05
-0.00220348
2.21789e-10
2.8731e-08
2.07832e-08
2.82985e-08
2.39765e-09
5.60853e-09
-2.60408e-09
-0.00106886
-1.65441e-08
-0.000296198
1.97291e-08
-8.41341e-09
-4.14622e-07
-1.20903e-08
-7.02488e-07
2.19076e-08
-1.98899e-07
7.80322e-10
-3.59688e-07
-0.000899799
3.4958e-07
0.000300477
2.31051e-08
-8.01976e-09
1.02777e-07
-5.35181e-08
-0.000360576
2.5692e-09
-1.41344e-05
7.66552e-09
-9.99541e-05
-1.19994e-06
1.90784e-08
-1.63655e-07
1.27637e-05
3.57169e-09
-0.000849212
-0.00248306
1.49563e-07
-3.27642e-07
-1.80987e-08
-6.67944e-07
-8.40453e-08
-1.80636e-08
0.000149585
-1.03216e-08
1.66676e-08
-4.75767e-07
9.76231e-05
-1.3366e-06
-0.000151441
0.000668258
1.85575e-07
3.03547e-07
1.68035e-08
-0.000575173
-8.2131e-09
-7.91598e-07
2.69228e-08
-0.000727337
-1.21566e-06
0.00507208
1.4859e-08
-5.02963e-08
-2.86138e-06
-3.60558e-09
1.94973e-06
-0.000984897
7.85827e-08
-8.26925e-09
-0.0015499
1.97079e-07
6.83621e-08
2.2845e-07
7.71598e-08
0.00308035
-5.10827e-07
-2.15017e-07
3.90037e-06
1.66017e-08
-0.000315535
-1.83731e-08
1.54592e-07
6.52351e-09
8.28196e-06
2.45663e-05
2.64959e-09
-1.71651e-07
-3.48743e-08
-6.58786e-09
-3.46729e-08
3.70107e-08
-2.36948e-08
1.59028e-08
-5.00669e-08
1.24199e-09
5.82408e-08
-3.30215e-07
-0.000598003
-0.000927793
-4.03603e-07
1.0043e-07
2.40678e-05
2.61935e-10
6.71646e-05
-0.00283734
-8.2135e-06
-3.98333e-08
1.36238e-09
-5.36339e-09
-9.16433e-09
-4.36626e-08
-2.72054e-07
-1.0966e-08
-1.02475e-07
-8.56284e-09
-0.000267767
-0.00167329
-1.326e-08
0.00117107
5.48832e-09
5.87371e-09
7.9713e-06
0.000426774
-1.66937e-06
1.77064e-08
-0.00111887
-3.8603e-08
3.0337e-08
-2.12393e-05
2.75752e-08
0.00239581
1.72475e-08
-1.10395e-06
1.76603e-08
-6.80554e-08
6.7144e-08
0.00146124
3.06166e-08
0.000231874
2.53608e-05
-2.20918e-08
3.54139e-07
-8.73817e-09
1.30642e-08
-5.59819e-07
-1.80698e-08
8.69448e-09
0.0002855
-0.000318061
0.00111262
-7.14093e-07
-4.54363e-08
8.42763e-05
-6.27717e-08
-0.00329782
9.60623e-07
1.10281e-08
2.89596e-08
0.00800801
0.00374722
0.00074951
3.43346e-06
0.00121733
-8.56902e-08
-6.06135e-09
-1.93322e-08
-2.73698e-08
2.76586e-08
0.00413156
3.7296e-05
-7.14441e-08
-2.09738e-09
6.58698e-05
3.30845e-08
-2.60625e-08
0.00347671
0.000532801
2.69339e-08
1.84803e-08
8.96676e-09
-4.76546e-09
3.84449e-08
-1.17174e-06
4.03875e-07
1.81601e-08
0.00392517
3.8755e-06
-0.00112729
-0.00292125
2.23931e-05
6.17291e-05
1.63712e-09
2.02975e-08
0.000100073
0.000142558
0.000514313
-9.97602e-06
2.64229e-07
1.21164e-09
1.75884e-08
-1.39487e-06
-0.00112793
-8.11266e-06
1.80933e-07
-1.11707e-07
1.28021e-08
3.55548e-05
-2.44443e-07
-1.00538e-06
-1.20092e-07
7.87639e-05
-0.000119431
-0.00285398
0.00099225
-4.63925e-08
-1.80293e-05
-2.99912e-08
5.57238e-07
1.05152e-06
-0.00272591
9.19216e-09
-1.70582e-07
-8.18385e-09
-0.000565578
7.80897e-08
-0.000699581
-1.49739e-08
3.26182e-06
-0.0018789
-1.00887e-08
-5.83683e-07
9.48562e-08
-1.33758e-08
-2.13316e-06
-0.00123486
-7.03747e-08
-1.45411e-08
2.83994e-08
0.00165459
-8.65008e-09
7.15511e-08
5.38524e-09
-4.88787e-09
5.3823e-09
9.86774e-07
-1.46849e-07
1.77467e-07
1.03459e-08
-1.15073e-05
-4.31041e-06
3.40749e-06
-0.000474275
1.11093e-08
-5.05824e-09
0.00397504
5.77066e-09
1.0174e-07
0.00110175
6.68053e-05
-9.87297e-07
3.57656e-07
5.30646e-07
-0.00011802
-1.29576e-05
-7.76103e-08
0.00268622
3.7226e-08
6.77686e-07
-0.000616631
-2.33417e-07
0.000939599
0.0181386
-8.27235e-08
4.72941e-08
1.22207e-09
8.6079e-09
5.26061e-08
1.6639e-06
-1.16755e-08
1.18377e-07
-1.26586e-09
-1.06465e-07
-0.000746386
8.3996e-08
-0.00290896
0.00485312
-3.55371e-09
-1.87961e-07
3.76036e-07
6.54825e-08
6.78084e-09
-2.29658e-05
-2.3773e-07
4.71792e-05
-4.62441e-09
-0.00975808
2.56883e-06
-5.16136e-07
-0.00605852
1.08547e-08
-3.96786e-06
2.08309e-08
3.0608e-05
8.81998e-09
1.17296e-07
-3.64719e-08
2.95394e-07
1.02341e-09
-1.31413e-07
0.00441185
4.1445e-10
8.43638e-06
-9.98859e-06
-1.89741e-08
4.8862e-09
8.07859e-06
0.000382603
-9.17698e-05
-3.22549e-08
-7.71257e-09
-3.88921e-06
0.00252312
-9.90229e-05
2.76781e-08
-2.95816e-09
-7.82606e-08
-8.44685e-09
-4.82616e-08
1.91612e-07
0.000672514
9.98453e-09
1.6692e-08
-0.00113722
-1.7511e-06
-4.21813e-07
0.00050264
-0.00932208
4.25449e-10
-5.90402e-09
-3.05357e-09
5.35016e-08
-1.25982e-07
-0.000638979
0.000343921
1.88274e-07
2.25516e-07
-9.01631e-08
8.49275e-09
-9.39905e-06
1.57009e-07
-6.53437e-07
-4.6328e-08
-5.46944e-06
2.45829e-06
-6.46876e-09
-4.94692e-09
0.000831012
1.68508e-07
-0.000495384
-0.000418342
4.65614e-06
2.81698e-08
3.42841e-05
1.43925e-08
-7.44193e-09
-0.00213334
0.00407925
-5.54114e-08
-3.00971e-07
-6.24995e-07
-2.71498e-07
1.82609e-08
7.30336e-10
3.79979e-09
1.37479e-08
7.85423e-09
-4.53272e-08
-9.47714e-07
-1.80147e-05
-2.73979e-07
3.63283e-09
-3.55887e-09
1.99028e-06
-2.74022e-09
-7.41359e-08
1.33702e-05
-1.05229e-06
0.000389102
-1.45823e-09
8.38481e-09
-6.27152e-06
-3.53884e-09
0.000640911
1.98399e-08
-6.96593e-07
1.46521e-08
-4.03047e-09
-4.7989e-06
-1.36744e-08
-6.01433e-08
-8.67683e-09
0.0135678
1.50702e-05
0.0001048
-5.15627e-08
3.97121e-08
0.0116673
1.17126e-08
-6.83825e-08
-2.18312e-07
0.00222395
-1.45077e-09
1.05574e-08
1.82871e-08
0.00106452
-4.32952e-09
-3.60032e-07
1.85701e-10
8.94797e-09
-1.03847e-06
-5.41311e-09
1.13056e-08
-0.0064004
-2.03107e-07
0.0134173
-4.01596e-07
-7.20552e-09
6.10445e-09
2.0076e-08
1.16197e-08
4.31187e-07
-2.0805e-09
9.64659e-09
-2.5458e-06
2.83381e-08
6.97043e-07
-6.89842e-07
-5.76131e-06
-6.83094e-09
1.6755e-06
2.14111e-08
-0.000176837
-7.54939e-08
0.00461258
-2.81373e-07
4.47347e-10
-1.19968e-07
1.20242e-08
7.95883e-09
-1.27453e-08
2.54062e-06
-7.11717e-09
-2.5009e-09
-0.000513433
2.92045e-06
5.11376e-06
-7.9287e-09
-1.91649e-08
2.5654e-07
-2.36863e-06
1.57918e-08
0.000705897
1.32641e-07
-6.4431e-08
4.43105e-10
9.07646e-09
1.33815e-07
0.000231065
0.00366781
-5.37014e-05
0.000552254
-5.58443e-06
3.96429e-06
-3.01607e-07
-0.000688986
-2.38673e-09
-8.04038e-08
1.60133e-08
-0.00169693
1.4052e-08
0.00059429
-4.98677e-09
-1.0701e-08
7.93236e-07
5.58447e-05
-8.10309e-05
0.000401642
-6.96783e-09
3.82692e-06
9.02124e-05
3.13091e-08
-0.000377191
4.24251e-09
2.16008e-08
0.00123044
3.42936e-09
0.000832256
7.52371e-05
5.00173e-09
1.73899e-08
3.89698e-08
-0.00109721
2.24525e-08
2.94999e-09
-3.43107e-07
-7.88408e-09
1.68896e-08
2.96658e-07
-8.99606e-09
-7.4318e-08
8.15645e-09
8.25297e-07
-3.76867e-09
0.00347262
-0.000160055
-2.14705e-09
-1.12238e-09
2.7499e-08
-7.46391e-10
1.65203e-08
4.45014e-09
3.12312e-08
4.84181e-09
-2.44915e-09
3.88565e-08
2.12902e-08
-1.44042e-06
8.21436e-09
-2.45028e-07
5.05776e-08
3.75166e-06
-2.70686e-08
1.51509e-08
-1.49691e-09
-6.46267e-08
-3.4244e-07
-1.17005e-06
9.3272e-09
0.0137827
-8.1363e-06
-0.000520631
0.000666029
-3.58089e-07
0.00124641
4.42538e-08
1.97615e-08
0.0010495
-0.00268805
2.59476e-07
9.41325e-05
9.23764e-09
-1.10894e-06
-0.00536259
1.6884e-08
-1.63262e-07
-0.0297451
0.00512988
-7.4112e-09
-9.1046e-08
-1.50542e-08
0.00154066
1.60039e-08
0.00120507
-0.000158458
2.0142e-08
-9.0398e-05
0.000221226
3.80999e-09
-0.00184582
-0.00143979
6.77029e-08
-4.8806e-09
-0.00116846
0.000134885
3.01288e-08
-4.38082e-09
-3.18941e-08
-7.32975e-05
4.72744e-06
-1.60058e-08
-3.0883e-08
0.000299296
-5.43508e-09
-5.162e-09
1.47285e-08
-1.53009e-08
-0.000562176
-1.9301e-06
2.25383e-09
0.000117123
7.62952e-09
-1.58531e-06
-7.4219e-09
-0.000529547
2.89974e-07
0.0015076
-1.73017e-08
8.03355e-09
1.23149e-08
-1.17123e-08
4.69392e-09
-1.59868e-08
-0.00270695
5.1563e-08
-1.24385e-08
-2.19665e-09
-0.000764947
-5.04373e-09
-0.00147157
-0.00320281
-0.00109113
-2.53218e-08
-2.82659e-08
-5.51642e-09
-0.000465548
-1.50729e-08
0.00164772
-5.79522e-09
0.000184098
8.36919e-08
-2.81567e-07
1.39553e-06
-1.94864e-08
1.93245e-09
0.000116581
-7.39876e-07
0.000596955
-3.58204e-08
-0.000519196
0.00260531
5.20494e-10
0.000207436
-1.20792e-08
-8.37437e-07
-0.00189592
-2.07693e-07
1.33183e-06
0.000103362
8.00942e-07
-1.58335e-07
-8.73054e-09
0.00099968
-4.84495e-10
-0.00176724
-4.28884e-09
-2.24654e-05
-3.82064e-09
-3.66016e-09
4.99757e-07
0.00149049
-1.74811e-08
-3.17458e-05
-1.90056e-06
-0.0168084
-1.10901e-08
2.2063e-07
0.000280902
-7.82155e-05
-0.000775428
1.33533e-06
-2.42084e-08
-4.30869e-08
0.000212763
1.10317e-07
0.000399434
-5.82267e-08
2.99006e-07
-4.48924e-05
-2.21054e-08
-8.41444e-05
7.34022e-10
-0.00073033
-0.000406826
4.91533e-08
5.07251e-07
-0.0027328
-0.0014559
-8.43712e-09
1.95621e-08
-1.73575e-08
-1.74095e-08
0.00133044
9.60248e-07
-2.38965e-05
-8.03016e-08
-3.95773e-08
0.000970243
-2.99788e-05
0.00119309
0.000474805
-4.74363e-09
3.21516e-09
-5.2666e-07
-0.00256081
0.00140267
-0.00905502
-1.97484e-06
-4.2752e-07
-6.70642e-06
0.000918389
-0.000577432
-0.000148303
-5.27875e-09
4.7863e-07
1.03098e-07
9.71419e-07
5.34671e-09
7.60039e-09
8.14205e-08
-4.56728e-06
-0.00333498
2.29615e-07
-0.00947643
0.000191356
8.5258e-08
-3.76234e-09
-3.60719e-09
0.000114662
-3.35295e-08
-0.000987909
-5.73345e-08
-2.67016e-07
5.52399e-06
1.19799e-05
-3.37148e-09
-1.7863e-08
3.61127e-09
1.41678e-08
-0.000977121
-1.58581e-05
-0.00098805
9.66811e-09
0.000304941
2.45077e-06
-1.03313e-06
-7.51756e-08
2.89365e-08
6.97117e-07
-1.93732e-05
4.94033e-06
-2.69403e-07
0.00173193
-0.000173222
1.72811e-08
4.19565e-09
-6.50758e-08
-6.7876e-07
-0.000115491
2.31119e-08
-5.13149e-09
3.30474e-08
5.12026e-05
-1.63271e-05
-2.64493e-08
-8.90957e-07
1.04229e-05
-7.61283e-09
-4.00707e-06
1.76387e-07
-0.00107082
-1.48879e-06
0.00217143
0.00147332
2.60553e-10
1.90976e-07
0.000451108
7.9413e-09
1.46018e-08
0.000573339
-2.90345e-10
-3.72763e-06
-6.75718e-09
-1.8518e-07
-0.00257923
-0.000150669
-5.38311e-09
0.000999866
-9.24789e-05
8.94494e-09
-1.04714e-06
2.56038e-07
1.87297e-06
-0.00175856
0.000427592
-0.00629955
1.91173e-06
0.000346353
-1.39917e-08
-1.51784e-07
3.66935e-08
-8.00572e-10
1.32425e-08
-6.19997e-09
-1.06726e-05
-5.55493e-06
-7.02324e-08
3.71671e-06
-9.67074e-07
8.14349e-09
0.00221686
0.00267996
1.29114e-07
-1.78666e-08
4.09946e-08
-1.76853e-08
-7.75701e-08
1.35447e-09
-0.00577588
4.7666e-09
7.17206e-07
2.3564e-07
6.0993e-07
-9.14899e-06
1.91259e-06
-0.0264955
9.70706e-09
-8.58491e-09
-6.34889e-08
-1.43731e-08
-8.30822e-05
-4.19763e-07
2.31678e-07
-0.0102148
-7.27728e-08
-4.75547e-08
9.8891e-07
2.10497e-09
-3.03787e-08
-2.40374e-06
-7.57711e-11
0.000161913
0.0154269
-0.00553089
-9.5444e-09
0.00403975
-9.18825e-09
-4.4231e-06
-5.10567e-09
-1.0105e-06
0.00544042
-6.08159e-09
3.04638e-05
5.27763e-05
1.26494e-07
-1.35732e-09
1.08769e-08
4.82729e-08
-0.00218435
-1.69984e-08
8.38421e-09
-1.70524e-08
-3.56311e-08
-9.62399e-07
2.0622e-09
-6.77353e-09
-1.41959e-09
-1.89555e-08
0.000435118
-1.41184e-08
-2.9013e-07
-8.05776e-07
0.000117786
0.00137147
0.0138111
-2.53867e-09
-9.88768e-08
0.000532853
-2.20178e-09
-1.41341e-07
-1.07861e-08
0.000372285
1.33837e-07
3.21017e-08
1.57854e-06
-0.000931508
1.25307e-09
-1.28859e-08
-6.19888e-09
-6.37866e-07
-0.000322088
3.95277e-06
-8.75997e-09
-2.54708e-07
-9.42155e-09
-1.1357e-05
4.95171e-08
0.000686999
-1.87597e-07
-6.42139e-08
9.57619e-06
2.55442e-06
-0.000215583
-4.57383e-10
-5.63551e-08
-1.07459e-07
7.8237e-07
-8.59228e-07
8.22751e-09
-2.529e-08
1.34749e-07
0.000542716
-5.69507e-09
2.75029e-09
0.000266048
8.2443e-08
2.9958e-06
8.71731e-09
3.51921e-08
-1.92686e-08
-0.00729364
7.80581e-09
-0.0231227
-0.000346669
-3.34938e-08
0.000622666
1.71977e-08
1.99153e-06
-5.4123e-07
7.25983e-10
-6.21188e-08
-2.52005e-08
2.65242e-09
0.003971
-1.00238e-07
-0.000223883
0.00041598
-9.08149e-09
-1.49772e-05
-4.99402e-07
-0.000279991
1.27887e-08
0.00122544
0.000232411
-0.00012959
-6.12317e-09
2.04055e-08
2.00457e-08
-0.00123101
0.000346732
-4.71585e-07
-3.56249e-09
6.21014e-09
-0.00520395
6.90603e-09
1.92288e-08
-6.84278e-08
-1.02703e-06
0.00010877
1.98694e-09
-0.000829085
-2.12762e-06
-2.63678e-09
-0.00253746
-1.75021e-07
0.0011587
0.0169369
5.09885e-08
-8.15881e-07
4.97313e-09
6.51399e-07
-3.28001e-08
-2.9141e-07
-8.64801e-07
2.60112e-08
1.28627e-08
3.22674e-07
0.0118433
-1.53957e-08
4.49849e-06
0.00448454
0.00319109
3.17712e-08
2.7838e-08
-0.00106607
-0.000718685
4.18258e-05
-2.08063e-08
0.00554261
-1.86782e-07
-4.2657e-08
-2.89235e-05
4.20566e-09
2.80776e-09
7.51369e-05
-5.00244e-10
1.07367e-05
-3.30872e-08
-1.29606e-08
-1.53676e-08
-6.79443e-09
0.00303567
-7.75311e-08
-1.46963e-09
-8.90893e-08
1.03774e-08
6.62075e-08
-1.11508e-06
-1.96327e-08
-8.75619e-09
6.16128e-08
3.93366e-08
3.54573e-05
0.000505321
-1.34354e-05
0.00416558
-2.30433e-06
-0.00292598
-1.3693e-05
0.000565627
0.0107387
0.00231243
1.38677e-08
1.0965e-06
1.06845e-08
5.42026e-09
-1.51533e-09
-8.94829e-08
-2.43799e-06
-1.72961e-07
-9.76003e-08
9.44775e-09
2.05861e-09
-1.08033e-07
1.63612e-08
-3.02224e-08
-1.78599e-08
-0.000276664
-1.46119e-07
-5.07156e-05
-7.88326e-09
-0.000234287
-2.16262e-08
-2.72939e-09
3.84001e-08
-6.31159e-08
6.95453e-10
6.41099e-07
0.000355195
-5.40326e-07
3.41422e-05
-0.00913953
-3.01467e-08
-4.36055e-08
-0.000443702
4.28418e-06
-3.74657e-08
1.73102e-08
-3.52323e-08
0.000601622
1.27256e-09
3.15976e-05
1.28677e-05
6.53223e-07
-0.0271063
-0.0189413
-2.38772e-07
-0.000896688
1.23701e-09
-5.28355e-09
-1.62739e-05
0.00167852
5.36257e-09
-9.768e-09
0.0155031
-4.94267e-09
1.80329e-07
-3.86389e-10
5.09633e-08
1.65586e-07
1.37419e-08
5.06908e-07
0.000486398
0.000178666
8.52602e-09
-9.85256e-09
-2.89428e-06
2.4474e-08
1.2683e-06
-4.53196e-09
-7.55043e-07
-5.43053e-07
-2.9494e-08
9.7189e-09
-3.54049e-08
9.32487e-07
-1.07904e-05
-1.18989e-06
-0.000516754
-9.75163e-08
-0.000189045
-3.4621e-07
-9.11632e-07
-0.000158553
-8.69502e-09
0.000317238
2.55509e-08
-0.000333277
-4.87979e-06
0.000151842
0.00241895
-9.19327e-09
2.29902e-07
-0.000729552
-2.30599e-08
6.96896e-05
-2.06474e-08
2.48921e-08
1.1893e-08
1.73128e-08
3.04372e-09
-8.52458e-06
0.00035571
-0.00359399
-7.55427e-09
-5.25254e-07
4.9512e-08
-9.83157e-08
-9.55425e-09
5.30343e-06
-4.25489e-07
-0.00233823
-4.36545e-07
-7.23853e-08
-1.08835e-08
6.09612e-08
-5.07339e-07
1.85355e-07
1.3661e-07
2.54418e-08
-3.55968e-06
3.16926e-09
3.6877e-07
-2.23316e-06
0.000327462
-9.7469e-08
2.58626e-09
1.07349e-08
1.17986e-08
1.83239e-05
-0.00179766
-8.17531e-07
5.75088e-09
-0.00253397
-1.63046e-08
-2.29568e-08
1.80771e-07
0.000604839
0.00205464
-9.08343e-09
-4.9047e-09
-0.000617706
-2.7868e-08
-7.41346e-09
-5.87173e-08
0.00326715
0.000707473
-3.07907e-08
-0.00257155
0.00358626
-3.59976e-10
-2.35838e-06
4.54716e-07
-0.00106773
-1.42554e-07
0.000810397
-4.00595e-08
0.000307782
6.74115e-06
-0.000956462
7.3086e-09
2.19029e-08
0.000916562
-4.90739e-09
3.61723e-08
0.00231487
0.00170432
2.28324e-05
1.89737e-05
1.329e-08
1.9659e-08
0.00132452
-1.63538e-08
-8.29426e-09
-9.65398e-09
1.13534e-07
1.28952e-08
1.57408e-06
-1.3647e-09
0.000850293
-0.000189237
1.61928e-08
1.75058e-05
4.86136e-10
0.000565213
8.90052e-05
-2.13307e-09
1.52904e-08
1.30749e-08
-0.000151289
-2.51287e-06
5.56735e-07
0.000505322
-0.000605409
-7.91805e-05
1.23313e-07
0.00157611
0.00045043
-1.43133e-05
1.30282e-05
-1.86496e-08
-2.33959e-08
-9.33799e-09
-6.0307e-08
-6.8024e-09
2.9082e-10
0.000147146
-1.87547e-06
-0.000954237
-0.00179001
0.000556628
-0.00464979
0.00137601
-1.61007e-06
-0.000782449
2.46064e-07
-3.53157e-07
-5.8471e-09
-1.21394e-09
-2.5242e-07
8.90665e-06
2.27373e-07
-0.0012161
0.00128125
1.69081e-08
9.10517e-09
1.0139e-08
-3.07894e-06
-3.63937e-08
5.91189e-07
0.000535082
-1.31256e-08
-5.1642e-09
1.36995e-08
2.46665e-08
-6.35509e-07
0.000275171
2.13984e-07
-0.000119539
4.81481e-06
-2.0315e-09
0.000261175
2.10751e-06
3.11729e-09
-3.79914e-05
-0.000348883
-0.00144438
-0.000205505
7.09312e-05
-1.74261e-08
-0.00105479
0.000315717
4.48883e-06
-0.000702149
-2.36936e-08
9.19203e-08
6.1047e-08
1.56019e-08
-0.000147331
6.33095e-07
1.96151e-08
-4.10182e-08
0.000772979
0.000279227
1.29306e-07
5.91676e-07
-0.000930888
0.00157494
-1.7596e-09
7.60369e-08
2.5133e-06
4.73967e-09
-3.30306e-09
0.0084726
1.00184e-08
2.7098e-06
0.000101686
-0.000773528
-1.58801e-09
-2.25154e-06
-1.60446e-06
-2.15925e-08
-4.85559e-08
0.0103523
-0.000595807
-9.19464e-08
1.22712e-06
1.90236e-06
-1.17755e-06
-9.77369e-05
-0.00162853
1.46168e-08
0.00064317
-0.000903341
-1.43469e-07
-1.69061e-09
1.17553e-05
-1.07445e-08
-7.74201e-08
0.000115519
-4.17183e-07
2.74069e-06
1.30043e-08
-2.51782e-07
-3.3291e-08
-2.16852e-08
1.64164e-08
1.79328e-08
-0.00261121
1.58061e-08
-0.000461166
-6.07428e-05
-4.73172e-07
-1.17318e-07
-0.00219733
-0.000764808
-0.00262928
-4.80398e-08
1.05688e-08
-1.40456e-07
1.77071e-08
1.1517e-06
-0.000601385
1.44805e-08
-0.000503504
0.0001701
4.78842e-08
-4.77833e-07
-1.69383e-07
-5.70052e-07
-7.16193e-07
1.9235e-08
-7.5945e-07
-7.89614e-07
-1.08965e-06
-8.50423e-07
-8.62836e-07
-1.08082e-07
2.00278e-06
-1.25381e-09
5.3242e-09
-4.61903e-07
8.87611e-09
3.94444e-05
-0.00103666
-6.23352e-06
0.000962601
-5.17482e-08
1.86758e-08
3.43196e-05
0.00373344
1.73532e-08
1.27791e-07
-1.39044e-07
-0.00242674
0.0159705
-1.81036e-08
1.81078e-06
-1.61702e-09
0.000851535
0.000682448
1.34336e-08
-1.32328e-05
0.000291816
-5.81046e-07
0.0016197
1.69797e-06
0.00110577
-0.000768347
4.93735e-09
-0.00090953
0.00024059
4.36289e-08
1.27474e-06
3.80614e-06
-8.67303e-07
-2.99757e-08
3.99475e-07
-0.00300049
-5.28521e-08
-5.52668e-08
-0.00180483
7.17068e-06
2.05654e-06
4.56836e-09
-2.79345e-06
4.37524e-07
0.00117094
-5.10832e-05
6.39924e-09
2.05948e-09
1.73984e-08
2.08383e-09
0.00134213
0.018971
0.00132738
-4.22315e-07
4.68957e-06
-0.000188478
-1.73753e-08
-5.24542e-09
0.000263835
-4.48675e-09
-0.000232143
4.21752e-08
0.00144173
1.89967e-08
-5.82194e-08
-0.000406071
-5.39526e-09
-7.786e-07
-0.00170086
6.73099e-09
-1.71245e-07
1.90379e-08
-2.36087e-06
9.34151e-05
4.38262e-06
0.000769063
-1.56622e-08
-1.79666e-08
8.62679e-09
1.65703e-06
-0.000528792
-0.00954149
2.98353e-06
-3.33096e-07
-9.45062e-07
0.00284935
1.62343e-06
2.99597e-08
-1.56241e-08
-6.01578e-09
-4.8319e-05
9.4891e-07
0.0025212
-6.34407e-07
-6.86829e-07
-9.85595e-09
-0.00104132
-6.55028e-06
0.000530996
-8.64426e-09
2.04257e-08
-1.66362e-08
0.000462706
-2.03871e-05
0.00179483
-3.86027e-05
-9.03159e-07
3.92381e-06
-3.65026e-08
1.20566e-08
4.19498e-06
-2.9878e-05
-1.9905e-05
-4.91008e-09
-6.57656e-07
-4.04609e-08
8.6741e-08
-3.54148e-06
0.00725123
-0.00191834
-2.56061e-09
1.51135e-06
4.29702e-05
-0.0028744
-9.29029e-05
0.000633943
-0.000910115
1.8164e-08
5.78795e-07
-7.36199e-08
-7.16852e-07
-5.47214e-08
4.38693e-06
-2.51474e-07
1.52998e-07
-0.000140323
-0.0025035
-5.19341e-08
-4.63193e-06
0.000298158
-9.54047e-07
-3.27809e-07
0.00389295
-8.51323e-07
-1.21898e-08
-1.14043e-07
-0.000520245
-4.16592e-08
5.29276e-06
-5.41197e-05
0.0015048
6.47147e-05
-2.87896e-08
0.00327719
0.000383552
0.014477
-8.02435e-05
-9.96673e-09
-6.83796e-07
-5.78937e-07
0.000679176
1.27823e-05
1.66246e-08
-6.78609e-05
-1.58721e-06
3.47357e-05
1.33678e-07
-0.000374544
6.33213e-05
-0.000403725
9.29904e-09
-0.0116372
6.49244e-08
0.000220592
4.85051e-06
0.00103955
-8.43849e-05
-5.15054e-09
-7.45168e-10
0.000218051
-0.000960589
1.81046e-05
1.80462e-08
-6.69007e-07
-1.88697e-06
0.00336972
1.21177e-05
0.000180857
3.73236e-08
5.15203e-05
5.49824e-06
-0.000367585