/*--------------------------------*- C++ -*----------------------------------*\
| =========                 |                                                 |
| \\      /  F ield         | OpenFOAM: The Open Source CFD Toolbox           |
|  \\    /   O peration     | Version:  v2012                                 |
|   \\  /    A nd           | Website:  www.openfoam.com                      |
|    \\/     M anipulation  |                                                 |
\*---------------------------------------------------------------------------*/
FoamFile
{
    version     2.0;
    format      ascii;
    class       volScalarField;
    location    "250";
    object      nut;
}
// * * * * * * * * * * * * * * * * * * * * * * * * * * * * * * * * * * * * * //

dimensions      [0 2 -1 0 0 0 0];


internalField   nonuniform List<scalar> 
13917
(
0.00320337
0.00274294
0.00108587
0.00567296
0.0059172
0.0031382
0.00340597
0.0021739
0.00292142
0.000275952
0.00248055
0.00683803
0.00343018
0.016
0.00588941
0.00201796
0.00685035
0.00191431
0.00122723
0.0018649
0.00263199
0.00683289
0.00217992
0.00683253
0.00568584
0.00230382
0.00462643
0.000198931
0.00171414
0.00681705
0.000124708
0.00230572
0.00680023
0.00930787
0.00681709
0.00206803
0.0065433
0.00693241
0.00296557
0.00256386
0.00680859
0.00674442
0.0030126
0.00138587
0.00143129
0.000828243
0.00281051
0.00279652
0.0192425
0.00681589
0.00683766
0.00119157
0.000473184
0.00684195
0.00684255
0.00119482
5.06778e-06
0.00236138
0.00675556
0.000579281
0.0114738
0.00658787
0.00682946
0.00548413
0.00784287
0.00669126
0.00170958
0.001359
0.0021444
0.00285092
0.00446719
0.00832987
0.00681887
0.00678391
0.00242747
0.00569859
0.00644537
0.00679213
0.00570569
0.00679009
0.00679297
0.00685066
0.00681595
0.00481595
0.00671702
0.00203384
0.00178019
0.00676187
0.00244213
0.00687221
0.00678002
0.00280976
0.0182684
0.00682875
0.00680633
0.00173572
0.000333891
0.00686896
0.00675132
0.001589
0.00684111
0.00682376
0.00678828
0.00681828
0.00644633
0.0050453
0.00811604
0.00656917
0.00671334
0.00674957
0.00673511
0.00971357
0.00176073
0.00220307
0.00768511
0.0049013
0.00133493
0.00681496
0.00104315
0.00679039
0.00687708
0.00681816
0.00172112
0.00127383
0.00347091
0.00512478
0.00561796
0.00225109
0.00682587
0.0014339
0.00243748
0.000991975
0.0116215
0.00563027
0.00176437
0.00723528
0.0130788
0.00382556
0.0020971
0.00692474
0.0158218
0.0068089
0.00470935
0.00678477
0.00680724
0.0067494
0.00441671
0.00903892
0.00219978
0.0068444
0.00268081
0.0068271
0.00680062
0.00679075
0.00207854
0.00673264
0.00681138
0.011998
0.00683667
0.00683263
0.00673387
0.00879251
0.00620096
0.0164182
0.00807289
0.00113751
0.000180936
0.0063376
0.00669131
0.00195578
0.00682184
0.0113804
0.00284031
0.0111931
0.00283928
0.0068326
0.00605104
0.00104717
0.00253114
0.00610397
0.00318416
0.00682905
0.00683848
0.000576964
0.00100181
0.000526226
0.00683703
0.000597445
0.00681162
0.0019414
0.00283416
0.00144801
0.000855612
0.00335209
0.00682651
0.00365345
0.00421656
0.0111624
0.00681715
0.00677147
0.00316672
0.00292186
0.0025973
0.00659673
0.00522626
0.00297797
0.00257908
0.00680738
0.0011083
0.00679404
0.00675902
0.00509826
0.00443671
0.00276224
0.00197474
0.0021459
0.00975083
0.0068775
0.00675555
0.0067551
0.00501413
0.000892065
0.000729519
0.00671935
0.00681553
0.00855947
0.00260669
0.00673288
0.00672955
0.00679997
0.00676667
0.00676616
0.00747505
0.00597364
0.0068282
0.00670295
0.00245477
0.00733957
0.00685851
0.00671916
0.00562943
0.00497897
0.000650433
0.00996228
0.00214677
0.00678472
0.00705989
0.00210814
0.00185156
0.00185829
0.00664089
0.00504605
0.00679752
0.00420223
0.00309744
0.00681696
0.00678382
0.00551743
0.00606017
0.00680519
0.00657188
0.0170973
0.00682106
0.00672474
0.00671923
0.00672511
0.00679718
0.00683444
0.00304192
0.00680892
0.00577991
0.00870867
0.00680886
0.00634209
0.00021823
0.00676923
0.00117246
0.00824062
0.00676929
0.00473918
0.00681093
0.00850923
0.00683581
0.0061391
0.00681011
0.00678426
0.000822452
0.00688904
0.000738144
0.00362604
0.0148699
0.00681039
0.00235312
0.00360523
0.00684259
0.00265027
0.00601759
0.00537172
0.00596635
0.0058785
0.00682737
0.00688683
0.00113183
0.00595225
0.00348464
0.0058817
0.00671883
0.0117582
0.00166372
0.00681832
0.00648921
0.00542713
0.0137152
0.00170881
0.00918023
0.0107809
0.0083862
0.00147324
0.00637446
0.00397389
0.0155228
0.00108708
0.00682459
0.00593052
0.00452821
0.00678632
0.00269691
0.00151326
0.00684705
0.0112696
0.00672278
0.00207434
0.00681508
0.000344458
0.00671431
0.00363275
0.00252421
0.00820238
0.00686148
0.0017043
0.00380343
0.00681819
0.00678782
0.0104168
0.00408969
0.00759552
0.0174249
0.00675829
0.00683346
0.00531861
0.00138482
0.00675946
0.00597281
0.00683994
0.0015059
0.00365253
0.00109139
0.00220666
0.00136881
0.00204197
0.00760243
0.00682938
0.00681651
0.00567891
0.000638583
0.00684409
0.00246542
0.00242722
0.0121308
0.00684227
0.00160803
0.00641828
0.0167495
0.00673033
0.000475418
0.000463613
0.00230062
0.00681614
0.00075205
0.00679257
0.00819461
0.000800399
0.00672217
0.0171298
0.00676213
0.0116907
0.00677065
0.0024318
0.0118066
0.00662215
0.00964962
0.00136227
0.00669634
0.00853694
0.000994395
0.00668521
0.000821848
0.00683852
0.00126481
0.00108857
0.00672579
0.00319371
0.00595623
0.00677409
0.0067169
0.00683284
0.0135736
0.0013551
0.00683203
0.00683573
0.0068402
0.00345241
0.00131356
0.0067999
0.00669189
0.00173105
0.00158954
0.00679193
0.00664451
0.00985186
0.0040879
0.00801688
0.00111201
0.00216787
0.0068169
0.00678959
0.00318698
0.00671534
0.00679918
0.00681982
0.00679
0.00681738
0.00652805
0.00683806
0.0026018
0.00686506
0.00230646
0.00676494
0.00679611
0.00876052
0.00324441
0.00243947
0.00680994
0.00673318
0.00678754
0.00677857
0.00655935
0.00673479
0.00952249
0.00655459
0.00553781
0.00673343
0.00280011
0.0066971
0.00680096
0.00219407
0.00792806
0.00683938
0.00888404
0.00677099
0.00675637
0.00683888
0.00675895
0.0067489
0.00680569
0.011859
0.0105041
0.00674403
0.00241143
0.00176135
0.00679111
0.00245883
0.0020255
0.00855509
0.00286519
0.00518231
0.0118025
0.0119475
0.00673044
0.00724617
0.00662549
0.00665881
0.00289087
0.00679716
0.00684197
0.00680477
0.00332881
0.00266069
0.001042
0.00205839
0.00650333
0.00621982
0.00182859
0.00233308
0.00683156
0.018691
0.00334034
0.00361591
0.00862333
0.00671756
0.00222827
0.000957285
0.00671223
0.0122731
0.00676547
0.00677847
0.00285429
0.00680925
0.0068408
0.00135628
0.0122862
0.0114523
0.00673041
0.00498154
0.00652375
0.00197458
0.00520607
0.00683862
0.00684254
0.00672551
0.00330839
0.00733534
0.00683178
0.00685673
0.0067774
0.00676629
0.00634577
0.00354516
0.00681693
0.00211037
0.00671239
0.00684051
0.00607814
0.0092643
0.00670641
0.00406937
0.00680335
0.00241813
0.00210975
0.00148525
0.00299266
0.00171524
0.00618395
0.00174669
0.0107654
0.00694512
0.0085711
0.00681012
0.00683804
0.00697013
0.00676824
0.00803222
0.00678068
0.00473131
0.00390364
0.00926415
0.00123221
0.00338546
0.00102848
0.00674532
0.00173996
0.00688875
0.00667232
0.00837936
0.00680686
0.00105499
0.00683224
0.00681221
0.00683999
0.0011214
0.00630472
0.00671091
0.00149331
0.00312621
0.00693182
0.0029179
0.0116109
0.00924009
0.00670692
0.00278036
0.00680696
0.0124644
0.00584261
0.00662342
0.00595827
0.00683871
0.00299007
0.00326242
0.00680638
0.00688252
0.00683416
0.00173735
0.00673838
0.00202789
0.00683875
0.00670802
0.00685829
0.000685988
0.00560079
0.000872093
0.0016963
0.00353688
0.000161167
0.00795374
0.00678067
0.00554552
0.00682555
0.00213492
0.00676964
0.000965086
0.00676109
0.006328
0.00681182
0.00641163
0.00314831
0.00861211
0.00681981
0.00312247
0.0068245
0.00682341
0.00826756
0.00139338
0.0068055
0.0010176
0.0067188
0.00670915
0.00683162
0.00934743
0.00673765
0.00601831
0.00678086
0.00681629
0.000729059
0.00682719
0.00113636
0.00685261
0.00671327
0.0122323
0.00198643
0.00683939
0.000461041
0.00107411
0.00113055
0.000963855
0.00674105
0.00572894
0.00835074
0.00101733
0.00342695
0.00653981
0.00631338
0.00687495
0.00682783
0.00646881
0.00195245
0.00455386
0.00812121
0.00286387
0.00755956
0.00626629
0.00576544
0.00355565
0.000826228
0.00572229
0.00682614
0.00597597
0.00419715
0.00671333
0.00684143
0.00686459
0.00638358
0.00683893
0.00295809
0.00222861
0.00676925
0.00154253
0.00681497
0.00965948
0.00681239
0.00682664
0.01244
0.00215713
0.0108002
0.0068244
0.0066636
0.00682646
0.00587382
0.00300562
0.00679095
0.00294157
0.00345731
0.00760761
0.0111427
0.00597612
0.0115495
0.00506937
0.00688888
0.00682002
0.00896933
0.0105834
0.00407711
0.00311441
0.0082602
0.00671614
0.00682315
0.00655878
0.00463144
0.0101606
0.0033479
0.00600171
0.00383989
0.0020763
0.00648294
0.00106961
0.0021768
0.00681064
0.00632257
0.00685961
0.00307542
0.006221
0.00100263
0.00523742
0.0066725
0.00303431
0.0068193
0.00686955
0.00659355
0.00410204
0.00395046
0.00103431
0.00688383
0.00203138
0.00501152
0.0165078
0.00677148
0.00537642
0.0068975
0.00674649
0.00680503
0.00453359
0.00661042
0.00074276
0.00111624
0.00673817
0.00106442
0.00275626
0.00300532
0.000904549
0.00682428
0.00200009
0.000506604
0.00670217
0.00203185
0.00246408
0.00230257
0.00679338
0.00675238
0.0068299
0.00201452
0.00680456
0.00679249
0.00219373
0.00679697
0.00678
0.00131671
0.000891527
0.00385844
0.00508657
0.00157257
0.00554453
0.00680339
0.00637828
3.15958e-05
0.00662176
0.00392863
0.00685681
0.00682914
0.00682805
0.00516817
0.00135812
0.00679387
0.008309
0.00679325
0.00358063
0.00658583
0.00295338
0.00681335
0.001534
0.00609769
0.00833821
0.00357492
0.00684259
0.00906613
0.00677852
0.00581544
0.00332985
0.00400406
0.00656739
0.0068009
0.0067662
0.00995397
0.00320369
0.000833576
0.00377123
0.00674342
0.00223962
0.00669904
0.0063189
0.0108725
0.00670934
0.00730611
0.00372719
0.00355288
0.00129917
0.0118234
0.00673686
0.00682894
0.00202832
0.00674239
0.006842
0.00671615
0.00683738
0.00212649
0.00673371
0.00169063
0.00681251
0.00285951
0.00559991
0.00565428
0.00591681
0.00854438
0.00192072
0.0157714
0.0067135
0.00671862
0.00680296
0.00678
0.00672825
0.00331292
0.00675983
0.00233824
0.00684436
0.000498156
0.00681422
0.00229202
0.00222324
0.00682037
0.00261367
0.0063667
0.00664026
0.00400099
0.00679807
0.0115639
0.00182151
0.00585112
0.00681955
0.00673772
0.0068111
0.00678581
0.00845068
0.00671553
0.00144126
0.00675509
0.0114624
0.00621716
0.00677641
0.00204052
0.00673881
0.00671789
0.0115578
0.00433853
0.0065319
0.00165455
0.00674656
0.00163779
0.00676378
0.00678469
0.00613646
0.00685399
0.00585452
0.00156675
0.00524632
0.00667146
0.0182947
0.000576112
0.00672312
0.00666946
0.00683905
0.00175019
0.00673495
0.00165462
0.00683074
0.0123511
0.00614691
0.0103245
0.00683395
0.00679797
0.0122479
0.00687464
0.00679938
0.0099931
0.00671971
0.00672252
0.0184307
0.00671981
0.00671903
0.00200964
0.00669891
0.00832115
0.00266028
0.00202567
0.000991331
0.00436417
0.0121765
0.00678684
0.0020296
0.00673787
0.00716508
0.0115671
0.00682301
0.00675986
0.00672166
0.00683758
0.00680442
0.00682032
0.00681732
0.00676024
0.0035909
0.00670213
0.00674812
0.00185278
0.00804992
0.00877904
0.00160657
0.0068096
0.0122088
0.00674743
0.000135015
0.00808283
0.000185383
0.00678044
0.00671505
0.00676026
0.00684164
0.00677552
0.00678405
0.00674509
0.00364553
0.0067229
0.000830197
0.0183106
0.00674312
0.0102763
0.00673993
0.00683143
0.00653406
0.00969842
0.00201861
0.0068258
0.0102459
0.00682616
0.00683198
0.000551638
0.00671068
0.00208613
0.00603313
0.0037555
0.00676299
0.00681281
0.00337606
0.00455219
0.00672874
0.00919627
0.00755751
0.00692769
0.00662131
0.00674121
0.00674723
0.00196453
0.00215495
0.00454553
0.0101025
0.00141943
0.00399666
0.00196529
0.00681949
0.00954824
0.00681624
0.0112447
0.00317966
0.00293938
0.00675365
0.0122814
0.0124242
0.000986167
0.00696368
0.00491625
0.00679767
0.00675872
0.00214534
0.00681526
0.00682742
0.000644097
0.00480917
0.00681472
0.00242559
0.00714581
0.00681697
0.00675512
0.00476345
0.0099438
0.00679581
0.00679876
0.00329111
0.00679333
0.00683017
0.00421852
0.00627876
0.00679431
0.00830449
0.00701557
0.00182583
0.00982345
0.00714005
0.00747795
0.00682516
0.00681792
0.00405329
0.00515278
0.00993209
0.00610123
0.00302372
0.00567837
0.00527157
0.006612
0.00810527
0.00628622
0.00675896
0.00208931
0.00677905
0.0163283
0.00168445
0.00182765
0.00205512
0.000359294
0.0101195
0.00812656
0.0114578
0.00692988
0.000499858
0.00676047
0.00339236
0.00245062
0.0108666
0.00399975
0.00666901
0.0040995
0.0078744
0.00669668
0.0082352
0.00337306
0.0023784
0.0102512
0.00682143
0.00215391
0.00665456
0.0068439
0.0063172
0.00325837
0.00681218
0.00673303
0.00647386
0.0025628
0.00672633
0.00671933
0.0035475
0.00678589
0.00682474
0.00226963
0.0020415
0.00675849
0.00681543
0.00148829
0.0028367
0.0033878
0.0121734
0.00682848
0.00673708
0.0105873
0.0067909
0.00668507
0.0113963
0.00815091
0.00581873
0.00338679
0.00617579
0.00184368
0.00157925
0.00302588
0.00353382
0.00682763
0.00174441
0.0078614
0.00109655
0.00563014
0.0132418
0.00681791
0.006839
0.00684108
0.00682821
0.00683907
0.00100421
0.00686206
0.00322252
0.00671577
0.00205914
0.00926518
0.00669656
0.00264951
0.00702059
0.0067408
0.00227373
0.00620575
0.00673849
0.0067499
0.00922354
0.00170674
0.00592391
0.00386061
0.00719703
0.00241789
0.00667922
0.00335291
0.00329472
0.00662961
0.00678367
0.000662207
0.00674969
0.00521301
0.00232409
0.00631573
0.00554317
0.00206294
0.00945007
0.00673598
0.00121042
0.00370489
0.00684435
0.00674505
0.00672956
0.00138006
0.000190445
0.00679282
0.00234724
0.00602092
0.0151445
0.00255009
0.0068209
0.00671956
0.00681677
0.00674088
0.00697309
0.00657792
0.00118902
0.00677871
0.00375592
0.00383757
0.00590582
0.00164294
0.00983403
0.00852216
0.0068229
0.00680003
0.00671464
0.00675716
0.00198094
0.0109759
0.008379
0.00219649
0.00341455
0.00212334
0.00346445
0.00540269
0.00549456
0.00145965
0.00682772
0.00161181
0.00545024
0.00677852
0.00682001
0.0109811
0.00333717
0.00468565
0.00814469
0.00144076
0.0068251
0.000324866
0.00693814
0.00672122
0.00674314
0.00830572
0.00682691
0.00552804
0.00125302
0.00284587
0.0065789
0.00673291
0.00674869
0.0067613
0.00674095
0.00352784
0.00269302
0.00486748
0.00279152
0.00361984
0.00257037
0.00248852
0.0068118
0.00256786
0.000490438
0.00104144
0.00841291
0.0067239
0.00673256
0.00777041
0.0067299
0.00875458
0.0055309
0.00239661
0.00683742
0.00673418
0.000271514
0.0039346
0.00673625
0.00673591
0.0129362
8.09209e-05
0.0077274
0.0068136
0.00684248
0.0140679
0.00683949
0.00681462
0.0015027
0.00651426
0.00412651
0.00272273
0.00680813
0.00206496
0.00672268
0.00650319
0.0052821
0.0067288
0.00108
0.00672564
0.00675556
0.00149802
0.00206136
0.0113701
0.00107039
0.00671819
0.00350552
0.00677868
0.00682179
0.00661272
0.00679952
0.00683519
0.00121604
0.00681856
0.00255461
0.00633723
0.00666633
0.00679767
0.0067595
0.00682815
0.00935589
0.00680645
0.00606142
0.0018612
0.00683333
0.00215537
0.00261098
0.00316144
0.00682921
0.00621229
0.00674643
0.00678025
0.013885
0.00361941
0.00734214
0.00681159
0.00682576
0.00677221
0.00177069
0.00677545
0.00981957
0.0029962
0.0068106
0.00671838
0.00675435
0.00332703
0.00497308
0.0111207
0.00338655
0.0158622
0.0065741
0.00222458
0.00657377
0.00706646
0.0067166
0.00680205
0.00469259
0.00478127
0.00675817
0.0106674
0.00684345
0.00681748
0.00132974
0.000625034
0.00178213
0.00781835
0.00392625
0.00149766
0.0106782
0.00681917
0.00734244
0.00674
0.00683163
0.00611658
0.00673923
0.0108911
0.00639839
0.00675095
0.00676491
0.00682087
0.0109135
0.00685553
0.00673349
0.00195743
0.00671893
0.00677394
0.00676029
0.0068167
0.00217454
0.00682575
0.00648254
0.00671041
0.0019492
0.000863895
0.00671163
0.00671295
0.00680035
0.00671821
0.00366304
0.00680772
0.00681701
0.00682603
0.0067483
0.00677986
0.00680601
0.00160963
0.00675632
0.00160395
0.0068355
0.00231434
0.0067882
0.0068337
0.0067857
0.00680528
0.00253628
0.00620061
0.00309681
0.0120272
0.00234296
0.0120756
0.00999531
0.00167787
0.0062239
0.00683998
0.00679865
0.000744755
0.0110924
0.00676912
0.00758749
0.00676814
0.00185159
0.0125269
0.00388379
0.00167749
0.010569
0.0130329
0.00682773
0.00214007
0.00674724
0.00745489
0.00396175
0.0112776
0.00255332
0.00683928
0.00192987
0.000676955
0.00684536
0.00176749
0.0131333
0.00668951
0.00671433
0.00497257
0.00853491
0.00681788
0.00255645
0.00683015
0.000430023
0.0012894
0.00683611
0.00679451
0.000540289
0.00681895
0.00674037
0.00599061
0.00673656
0.000466631
0.00586726
0.00330666
0.010132
0.00674027
0.001357
0.00681409
0.00354677
0.00355332
0.00813175
0.00678339
0.00333871
0.00683031
0.00684228
0.00346018
0.00682386
0.00273948
0.00676272
0.00674482
0.00673593
0.0122961
0.00671435
0.0111733
0.00744323
0.0103453
0.00683348
0.00680324
0.00672814
0.0183098
0.00684091
0.00322138
0.00683628
0.000184276
0.00670756
0.00663486
0.000928513
0.00684128
0.00686995
0.00803564
0.00122013
0.0106097
0.00675458
0.00859325
0.00310757
0.00684109
0.00894744
0.00684321
0.00631635
0.00745191
0.00662247
0.00213783
0.00572342
0.00508768
0.00179625
0.00678934
0.00173781
0.00674302
0.011307
0.0067251
0.00463006
0.00674455
0.00674776
0.00658807
0.00511516
0.00680741
0.00228947
0.00206919
0.0140757
0.00674685
0.00368446
0.00957521
0.00152715
0.00162641
0.00270817
0.00678968
0.00113086
0.00037399
0.00654855
0.000509484
0.00680215
0.000858227
0.00249422
0.00681554
0.00261776
0.00671847
0.00772125
0.000682928
0.0060069
0.00656192
0.0112884
0.00376321
0.00673235
0.0055671
0.00674177
0.00684025
0.00657915
0.00312889
0.000732553
0.00682229
0.00371243
0.0109928
0.00605002
0.0176589
0.00120218
0.00671682
0.00673283
0.00123665
0.0103041
0.00721616
0.00842211
0.00119401
0.00230654
0.00342365
0.0101587
0.00941155
0.00605914
0.00671444
0.00177844
0.0034153
0.00287878
0.00679895
0.00297061
0.00334087
0.00163952
0.0101752
0.00671503
0.00261809
0.00985285
0.00193405
0.00673251
0.00673535
0.000498918
0.00681424
0.0119292
0.00376749
0.00670323
0.00101161
0.00602083
0.00671152
0.0032491
0.00277893
0.00680333
0.010507
0.00642478
0.0113758
0.00682593
0.00968259
0.000170746
0.00119898
0.00680809
0.00426284
0.00440068
0.00198497
0.00188944
0.00184829
0.00673176
0.000933343
0.00672623
0.00453872
0.00670312
0.000999643
0.00251507
0.0068086
0.0067099
0.00675494
0.000213335
0.00201393
0.00682572
0.00254452
0.00111751
0.00671907
0.00611841
0.00657622
0.00986339
0.0060763
0.00893597
0.00361313
0.00331768
0.00648468
0.000414634
0.00674623
0.00188905
0.00824914
0.00394472
0.00130127
0.00225789
0.00199416
0.0098579
0.00873786
0.00678633
0.0161575
0.0012042
0.00673808
0.00172412
0.00217807
0.00170826
0.00178391
0.000580338
0.0113107
0.00166203
0.0088868
0.00419283
0.00200985
0.00680591
0.00682475
0.00681866
0.00674149
0.000836562
0.00163527
0.00681008
0.00251249
0.00134919
0.00674264
0.00625198
0.00843509
0.00681139
0.00684053
0.00680473
0.00676474
0.00223102
0.00674323
0.00727476
0.00302017
0.00275662
0.00625455
0.00294931
0.00378756
0.00528673
0.00739168
0.00680513
0.00675364
0.00680818
0.0068202
0.0103574
0.00224184
0.0040212
0.00895278
0.0068188
0.00681689
0.00394411
0.0067734
0.00681829
0.00154435
0.00402391
0.00753543
0.0114726
0.0118118
0.00678425
0.0143926
0.00674643
0.000325812
0.00671047
0.00123048
0.0119951
0.00676505
0.000339813
0.00695869
0.00308359
0.00682344
0.00682021
0.00398915
0.0071749
0.00673406
0.00682999
0.006884
0.00693732
0.00121907
0.00682487
0.00403632
0.0067166
0.00687746
0.00027325
0.00338534
0.00657086
0.000938152
0.00100313
0.0111095
0.0117257
0.00689627
0.00677046
0.00808429
0.00680861
0.00194358
0.00680031
0.00657111
0.00675578
0.0068029
0.00519663
0.00846592
0.00672995
0.00678506
0.0067133
0.00158324
0.00105131
0.00150493
0.00672992
0.00656941
0.00672636
0.0098743
0.00681248
0.00162835
0.00203727
0.00681796
0.000587791
0.00513735
0.00305668
0.00485497
0.00681663
0.00363749
0.00225518
0.00130476
0.00682867
0.00682903
0.00676517
0.0102667
0.00678312
0.00681721
0.00855843
0.00670758
0.00644102
0.00411135
0.00682229
0.00682125
0.0105511
0.00359559
0.00968247
0.012925
0.00673937
0.00103934
0.00683686
0.00152681
0.00389888
0.00680046
0.00680911
0.00673545
0.00674301
0.0166426
0.00210185
0.0091268
0.00955679
0.00675098
0.00623309
0.00238173
0.000707406
0.00675467
0.00855823
0.00866007
0.00513399
0.00678234
0.00553856
0.00682536
0.0137346
0.010289
0.00670715
0.00674294
0.00311645
0.00567679
0.0068229
0.00541607
0.00670225
0.00188937
7.16849e-05
0.00671419
0.00870727
0.00584471
0.006731
0.00484874
0.00204756
0.00121585
0.01181
0.00297075
0.00627691
0.00684108
0.00617
0.00681691
0.00208697
0.00178364
0.00681573
0.00404351
0.0011113
0.0116823
0.00673086
0.00201085
0.0143371
0.00232274
0.0068001
0.00680926
0.0132394
0.00247267
0.00189987
0.00680421
0.0149494
0.00202334
0.00676157
0.00478509
0.00397833
0.00684104
0.000555102
0.00683882
0.0073139
0.00679884
0.00670839
0.0068344
0.00671395
0.00777589
0.00680394
0.00672868
0.00170032
0.00312226
0.00648502
0.00124524
0.00683399
0.00673212
0.00672876
0.00679043
0.0158354
0.0162515
3.67683e-05
0.0154797
0.00416848
0.010167
0.00465035
0.00962253
0.0135535
0.00784956
0.00675486
0.00508856
0.00675691
0.00684274
0.00682425
0.00669528
0.00124169
0.00206364
0.00215658
0.0067401
0.0067324
0.00202667
0.00683189
0.00683348
0.00683769
0.0105331
0.00338617
0.00169451
0.00677848
0.0137682
0.00682686
0.00680794
0.00680028
0.00223875
0.00675214
0.00173258
0.00976783
0.00211312
0.00731492
0.00751647
0.00687019
0.00360155
0.0117392
0.00182026
0.00681327
0.00682244
0.00674152
0.00955101
0.00671283
0.00248028
0.00290333
0.00212221
0.0110313
0.0147174
0.00189828
0.0106984
0.00681819
0.00670564
0.00879949
0.00242844
0.00679116
0.00678771
0.00687687
0.00671534
0.000720996
0.0068423
0.00682571
0.00567519
0.0067854
0.00226117
0.00966292
0.00815211
0.00405369
0.00681513
0.00155934
0.00676927
0.00265771
0.00673771
0.00155797
0.00200721
0.00683219
0.00684097
0.00674879
0.00152065
0.00428845
0.00120299
0.000519789
0.00355874
0.00435438
0.00175106
0.00198591
0.0074254
0.00674874
0.00968547
0.00679412
0.0103744
0.00032586
0.00954896
0.00734701
0.00684985
0.00362817
0.00825759
0.00683674
0.00550523
0.00682919
0.0067952
0.00370784
0.00681533
0.00275168
0.00109341
0.000702473
0.00800202
0.00411283
0.00215308
0.00677071
0.00680119
0.00680974
0.00137747
0.0016374
0.0117987
0.00331331
0.00681143
0.0067392
0.00680648
0.00101475
0.00654571
0.00675982
0.00473804
0.00128644
0.00269924
0.0019652
0.00354155
0.00980478
0.00346497
0.00273351
0.00675382
0.00320606
0.000308745
0.00162032
0.00177541
0.00677543
0.00571931
0.00327993
0.00679772
0.00281501
0.0105573
0.00902379
0.00271919
0.00671753
0.00863543
0.00683036
0.00671959
0.00681453
0.007221
0.00043149
0.0068715
0.00251333
0.00579004
0.00687315
0.00385778
0.00332344
0.0115211
0.00346375
0.0101466
0.00682385
0.00181226
0.00680444
0.00918259
0.00318428
0.0068132
0.0111862
0.00675757
0.00679635
0.00595206
0.00286784
0.0022896
0.000199199
0.00340204
0.00575362
0.00159416
0.00679265
0.0067239
0.00678062
0.00356864
0.00675189
0.00551928
0.00425698
0.00786975
0.00107838
0.00646145
0.00565148
0.00684987
0.0107278
0.00771872
0.00678187
0.00683203
0.00321779
0.001179
0.00124427
0.00238353
0.01038
0.00871639
0.00117778
0.00665696
0.00226594
0.00702182
0.00449432
0.000390753
0.00684384
0.00683396
0.00677404
0.00677323
0.00672959
0.00256654
0.00817845
0.00556463
0.0124923
0.00548736
0.00143303
0.0117849
0.0110284
0.00594078
0.0105942
0.00123512
0.00166906
0.00670937
0.00683676
0.00184402
0.00574004
0.00671929
0.00742194
0.011149
0.00677022
0.00680821
0.00677009
0.00159558
0.0068195
0.00238848
0.00971421
0.00672874
0.0067197
0.00675942
0.006805
0.00179754
0.00933507
0.00247795
0.0034498
0.00198556
0.0067385
0.0135798
0.00142769
0.0068596
0.000172354
0.00082809
0.0115701
0.00269647
0.00720159
0.00683741
0.00215567
0.00974095
0.00119014
0.00437694
0.00682361
0.00668313
0.00635117
0.00389666
0.00669367
0.00291711
0.00683202
0.00383531
0.0125237
0.00950345
0.00666948
0.00676681
0.012186
0.0108818
0.00682201
0.00394828
0.00159763
0.00672858
0.00672876
0.0116453
0.00674358
0.00100651
0.0136229
0.00714213
0.00674811
0.00147381
0.000924042
0.00679306
0.00678884
0.0132351
0.00688776
0.00679482
0.00520147
0.000790899
0.0011033
0.0111885
0.00170764
0.00466393
0.0132939
0.0101507
0.00345363
0.00671653
0.0025684
0.00670888
0.00680458
0.00732506
0.00239835
0.00205233
0.00397179
0.00627334
0.00681236
0.00674436
0.0065682
0.00626227
0.00463232
0.0040627
0.000439235
0.00293623
0.00349504
0.00177299
0.0077889
0.00887297
0.00553462
0.00677402
0.00383372
0.00356175
0.00463585
0.0011498
0.0125339
0.00680983
0.000716923
0.00880554
0.00435624
0.00166608
0.00165764
0.00165893
0.00159985
0.00529943
0.00163211
0.00160335
0.00152137
0.00138772
0.00179392
0.00151539
0.00618574
0.00672108
0.00299024
0.00160506
0.00674911
0.000389015
0.0107952
0.000849695
0.0108831
0.00677557
0.00678289
0.00746857
0.00491705
0.00623864
0.00659291
0.00225253
0.0112627
0.00814096
0.00682618
0.00559563
0.00415613
0.00154143
0.0119752
0.00344237
0.000185485
0.00958725
0.00134943
0.0103198
0.00171032
0.00816373
0.0109958
0.00668999
0.00953149
0.0103716
0.00677902
0.00291494
0.00217775
0.0063288
0.0067963
0.000894295
0.0164134
0.00682261
0.006824
0.0106868
7.64074e-05
0.00262514
0.0068427
0.00111
0.000919807
0.0112515
0.0071316
0.00680074
0.00672811
0.0064746
0.00690661
0.00919252
0.00932084
0.00889247
0.00167553
0.000373696
0.00577318
0.00691912
0.00672468
0.00939707
0.00682128
0.0102808
0.00681575
0.0106348
0.00619696
0.0067842
0.0167013
0.00677694
0.00144331
0.0128282
0.00683273
0.00662076
0.00600369
0.00127638
0.00744546
0.00124257
0.0111196
0.00695137
0.00689071
0.0033599
0.0027098
0.0101429
0.0103243
0.00219367
0.00105661
0.00130221
0.0031064
0.00678891
0.0068198
0.00673172
0.00670972
0.000368357
0.00205323
0.00939033
0.00217344
0.00134086
0.00678103
0.0115961
0.00213567
0.00306686
0.00672855
0.00559543
0.00671366
0.0104513
0.00391346
0.00590039
0.000460392
0.0015085
0.00104593
0.00674495
0.0027044
0.00126682
0.000276721
4.64887e-05
0.0067544
0.00120583
0.00682013
0.0067836
0.00136209
0.0140505
0.00190627
0.00683525
0.00243316
0.00100327
0.0125292
0.00351761
0.00886108
0.00738848
0.00681387
0.00327803
0.00682606
0.00128245
0.00682629
0.00195741
0.00666793
0.00277245
0.0129455
0.0125885
0.00691999
0.0012578
0.0104714
0.00186888
0.00662202
0.0057088
0.00201849
0.00686521
0.0067518
0.00693304
0.00364431
0.00149649
0.000136932
0.00836789
0.00488682
0.00688257
0.00652438
0.00973947
0.0138626
0.00111548
0.00327762
0.00132536
0.00142047
0.00826466
0.00272036
0.0066122
0.000408646
0.00297376
0.0005002
0.00412881
0.00761767
0.0001712
0.000715346
0.00293601
0.0172477
0.0062479
0.00821511
0.00112033
0.00147083
0.00205838
0.00671503
0.00671817
0.00906016
0.00941101
0.00735085
0.00681867
0.00212662
0.00568836
0.00588794
0.00249733
0.0102631
0.00440255
0.010003
0.00156767
0.0180918
0.00681347
0.000758099
0.00885095
0.00693424
0.00198765
0.00675917
0.00418896
0.0068108
0.0128756
0.00676812
0.00679134
0.0108432
0.00273936
0.00670895
0.0102316
0.00679794
0.00683537
0.00674492
0.00680875
0.00682545
0.000189739
0.0114797
0.00675954
6.49691e-05
0.00181966
0.00213036
0.000743859
0.00171776
0.0045595
0.00236715
0.00671806
0.0127297
0.00565978
0.00982469
0.00692979
0.00530924
0.000424596
0.00287723
0.00103235
0.00968808
0.00671392
0.00632863
0.00350564
0.00187608
0.00392044
0.00679563
0.00508845
0.0012173
0.00679926
0.00530821
0.00672031
0.00766201
0.00154211
0.00846149
0.00129923
0.00135173
0.01069
0.00683315
0.00682775
0.00201248
0.00672852
0.00682958
0.00683143
0.00417416
0.0067768
0.00672547
0.00676479
0.0019606
0.00665835
0.00447849
0.00684951
0.00397425
0.00211472
0.00606527
0.00783483
0.00590816
0.0067415
0.00170519
0.0022164
0.00689016
0.00678337
0.00027466
0.00342435
0.0087967
0.00346126
0.00142208
0.00673246
0.00683661
0.00123845
0.0113316
0.0017762
0.00252512
0.00672418
0.0113614
0.0068152
0.0067254
0.00174616
0.00391741
0.000835448
0.0105589
0.00132029
0.00174048
0.00226101
0.00482751
0.00684122
0.00682887
0.0031361
0.013704
0.00199083
0.00178366
0.00868926
0.00412257
0.00681873
0.00324316
0.00110349
0.00203911
0.00680388
0.00164756
0.00213981
0.00244218
0.00682214
0.00679468
0.000775361
0.00313474
0.000670329
0.00959632
0.00660238
0.00178612
0.00682502
0.00218263
0.00244308
0.0068429
0.000788123
0.00646927
0.0024913
0.0178809
0.00678733
0.00683351
0.00671983
0.0104454
0.00108121
0.00665571
0.00127322
0.00166253
0.00682146
0.00683796
0.000509093
0.0102668
0.000641666
0.0099844
0.00149086
0.00252836
5.50132e-05
0.00162737
0.00264241
0.00101419
0.00191295
0.00350236
0.0068058
0.00216595
0.00162624
0.0067972
0.000185378
0.00280104
0.00152172
0.00424699
0.00148882
0.00677495
0.00613513
0.00325176
0.00671177
0.00682445
0.00673336
0.00676243
0.00678978
0.00679027
0.00345864
0.00683949
0.00680376
0.0127987
0.00175259
0.00668501
0.00280119
0.00483198
0.00671398
0.00673716
0.00222781
0.00623166
0.00195529
0.00679183
0.00677906
0.00290995
0.000558161
0.00682438
0.00681313
0.00166187
0.00362326
0.00224699
0.00285142
0.00683215
0.00120845
0.00357882
0.00680213
0.00151636
0.0108045
0.0068963
0.00336249
0.00682458
0.00294293
0.00682291
0.0044278
0.00675109
0.00678322
0.0048269
0.00257566
0.000290148
0.00374758
0.00680075
0.00377198
0.0109072
0.00161895
0.00127029
0.00146587
0.00679895
0.00357202
0.0179946
0.000918338
0.000788451
0.00439478
0.00900245
0.012065
0.00577142
0.00682851
0.00268121
0.0068038
0.00203178
0.0111276
0.0068373
0.00388633
0.00684178
0.0104084
0.00253891
0.00639019
0.00228122
0.0104697
0.00584137
0.00420921
0.00171021
0.00319124
0.00670863
0.012188
0.0067186
0.00274672
0.00673604
0.00639698
0.00836111
0.00179737
0.00681327
0.00582702
0.000552753
0.00683183
0.00683615
0.00364566
0.00635497
0.00679334
0.00420436
0.00649018
0.00682744
0.00675388
0.00192167
0.00203367
0.00126891
0.00671869
0.00198668
0.00936174
0.00525745
0.00677732
0.006841
0.00293364
0.00149822
0.00681468
0.00677081
0.00677034
0.00681832
0.00625423
0.00330299
0.00691552
0.00185199
0.005968
0.00674101
0.00667321
0.0020551
0.00387037
0.00197591
0.00681315
0.00365901
0.00864868
0.00577151
0.00317275
0.00530055
0.00970356
0.00212385
0.00186436
0.00137354
0.00683402
0.0114162
0.00608841