/*--------------------------------*- C++ -*----------------------------------*\
| =========                 |                                                 |
| \\      /  F ield         | OpenFOAM: The Open Source CFD Toolbox           |
|  \\    /   O peration     | Version:  v2012                                 |
|   \\  /    A nd           | Website:  www.openfoam.com                      |
|    \\/     M anipulation  |                                                 |
\*---------------------------------------------------------------------------*/
FoamFile
{
    version     2.0;
    format      ascii;
    class       surfaceVectorField;
    location    "1000";
    object      Uf;
}
// * * * * * * * * * * * * * * * * * * * * * * * * * * * * * * * * * * * * * //

dimensions      [0 1 -1 0 0 0 0];


internalField   nonuniform List<vector> 
20537
(
(1.01752 -0.0177138 5.30016e-23)
(1.01723 -0.0177589 1.40288e-22)
(1.0176 -0.0181285 1.24522e-22)
(0.697182 -0.0827759 -2.70948e-21)
(0.759721 -0.091539 1.54425e-21)
(0.756014 -0.115887 2.56133e-21)
(1.05299 -0.066198 6.70391e-21)
(1.05035 -0.0654033 -1.73764e-21)
(1.05046 -0.0681869 6.06095e-23)
(1.01652 -0.017139 -1.11187e-23)
(1.01684 -0.0174627 -4.86726e-23)
(1.01636 -0.0172814 -1.59572e-24)
(1.08273 -0.0574296 6.31469e-21)
(1.08121 -0.058789 6.59902e-21)
(1.08087 -0.0566867 -5.3453e-21)
(1.00013 -0.0530047 -1.09104e-21)
(1.00691 -0.0519189 2.74968e-22)
(1.00385 -0.0471197 1.43767e-21)
(1.03293 -0.00113254 -1.11772e-21)
(1.03361 -0.00133485 -2.96984e-21)
(1.03337 -0.000787145 -3.5689e-21)
(1.05477 -0.0470238 -5.0468e-21)
(1.05581 -0.04592 -9.25666e-21)
(1.05638 -0.0478298 -1.93508e-21)
(1.0063 0.000585151 -6.18805e-23)
(1.00645 0.000686983 -2.2e-22)
(1.0064 0.000748647 9.68301e-23)
(1.02031 -0.0449761 0)
(1.0234 -0.0426533 0)
(1.02439 -0.0466898 3.02297e-23)
(0.969824 0.0537815 -2.88671e-23)
(0.95597 0.0532006 -3.14833e-23)
(0.962266 0.0387073 0)
(0.409926 -0.0146827 0)
(0.394864 -0.0308097 -3.06838e-21)
(0.366521 -0.0098249 -2.57448e-21)
(0.941734 -0.050565 1.29295e-22)
(0.984702 -0.0522518 5.96128e-21)
(0.94766 -0.0489963 -7.26176e-21)
(0.0103469 0.0963503 -1.50859e-21)
(0.0249927 0.0746726 -2.38477e-21)
(-0.0152028 0.0746745 -1.46997e-21)
(1.02068 -0.00053321 1.26657e-21)
(1.02073 -0.000474149 8.42466e-22)
(1.02082 -0.000571318 2.23634e-21)
(1.04351 -0.0342125 -4.45885e-22)
(1.04407 -0.0344183 0)
(1.04365 -0.0348996 -1.27974e-21)
(1.04862 -0.0242718 1.59368e-21)
(1.04769 -0.0239265 1.09642e-21)
(1.04849 -0.0234825 -2.11949e-21)
(1.02126 -0.0287715 -1.64786e-22)
(1.02227 -0.0288879 8.93615e-23)
(1.02162 -0.0299304 -6.2377e-22)
(1.08164 -0.0685885 0)
(1.08218 -0.0719394 0)
(1.10422 -0.071037 -8.65931e-21)
(1.00615 0.000485295 -2.0263e-22)
(1.0062 0.000411066 0)
(1.0161 -0.0166976 0)
(1.01668 -0.0169009 0)
(1.05598 -0.0646611 1.67052e-21)
(1.05619 -0.067569 -2.93396e-21)
(1.00387 -4.40476e-05 -3.46227e-23)
(1.00438 -1.66173e-05 -2.92479e-22)
(1.00509 9.33959e-06 1.0946e-22)
(1.00223 3.02796e-06 -5.46776e-23)
(1.00096 3.82078e-05 -5.10639e-23)
(1.0024 1.16499e-05 2.48586e-22)
(1.00338 -2.33118e-05 0)
(1.00253 -7.94879e-05 0)
(1.05309 -0.0465745 3.18041e-21)
(1.05366 -0.0485245 -5.83695e-22)
(1.05733 -0.0161111 -7.03081e-21)
(1.0567 -0.0153938 -3.0922e-21)
(1.05633 -0.0161496 0)
(0.00764658 -0.0829083 -1.33679e-20)
(0.0115297 -0.0810157 -5.18304e-20)
(1.01758 -0.0174553 -2.18333e-22)
(1.0179 -0.0178827 -1.30708e-22)
(1.02972 -0.0247531 -6.19087e-22)
(1.03047 -0.0250949 -5.20103e-22)
(1.02974 -0.0254202 2.30433e-21)
(0.992925 -0.0524592 0)
(0.995917 -0.0588028 -3.06096e-22)
(1.04866 -0.0252273 4.50853e-22)
(1.04959 -0.0247727 6.18271e-22)
(1.04984 -0.0628042 1.85853e-21)
(1.04746 -0.0644592 3.24268e-21)
(0.910679 -0.107746 5.59302e-22)
(0.905728 -0.0766614 -2.29658e-21)
(0.897435 -0.090179 4.30272e-21)
(1.00207 2.15244e-05 0)
(1.00335 1.83114e-06 2.78496e-23)
(1.10128 -0.0418138 3.87533e-21)
(1.1014 -0.0419771 9.19652e-21)
(1.09918 -0.042173 2.91606e-20)
(1.0845 -0.0422926 7.43346e-21)
(1.10432 -0.0422474 1.05606e-20)
(1.10581 -0.0430871 -1.26728e-20)
(1.08156 -0.102817 1.16634e-20)
(1.0886 -0.102394 5.39892e-21)
(1.07905 -0.097754 -6.53232e-21)
(1.01662 -0.0438074 7.81385e-22)
(1.01794 -0.0490034 -8.49504e-22)
(0.92794 -0.125993 1.82874e-21)
(0.913087 -0.134413 1.24589e-21)
(1.01559 -0.0100069 -1.19784e-21)
(1.01553 -0.0102328 -7.10057e-24)
(1.01595 -0.0103384 7.05803e-22)
(1.00829 -0.001417 -1.99314e-23)
(1.00832 -0.00139513 -2.05846e-23)
(1.00808 -0.00131005 -1.71007e-23)
(0.0212797 0.0976285 1.10647e-20)
(0.0306487 0.0920407 -1.2399e-20)
(0.019988 0.0833783 0)
(0.921162 0.0558703 2.11285e-22)
(0.916237 0.0280205 0)
(0.927717 0.0408469 3.62542e-23)
(0.927627 0.0779501 -1.36534e-21)
(0.915926 0.070163 3.37546e-21)
(0.127103 0.114513 1.14716e-20)
(0.15613 0.102453 -1.50868e-21)
(0.172186 0.101964 1.17155e-20)
(0.894539 0.0269584 -7.19008e-22)
(0.899674 0.0441478 -6.11126e-23)
(0.900668 0.0594826 4.7597e-21)
(0.853975 0.13213 8.35288e-22)
(0.830133 0.143489 8.42878e-22)
(0.837955 0.148822 -2.98146e-21)
(1.05789 -0.0168747 -1.17422e-21)
(1.0583 -0.0160527 -6.83643e-21)
(0.977541 -0.0018334 0)
(0.983696 0.00181937 -2.66335e-22)
(0.983102 -0.00580633 4.63102e-22)
(1.08974 -0.0437383 -6.88521e-21)
(1.09074 -0.0438931 0)
(1.09019 -0.0428572 0)
(1.09952 -0.0506969 0)
(1.09885 -0.0501003 6.52518e-21)
(1.10016 -0.0495381 0)
(-0.0387581 0.0175943 9.63637e-21)
(-0.0306244 0.0255611 1.12636e-20)
(-0.0274499 0.00935679 1.70732e-20)
(1.02037 -0.000535765 3.48235e-21)
(1.01995 -0.000309866 1.74368e-21)
(1.02046 -0.000578169 2.33586e-22)
(1.01114 -0.00095252 3.90626e-22)
(1.01116 -0.000903092 4.73505e-22)
(1.01209 -0.00113773 -8.12551e-22)
(1.00826 -0.00143692 6.87639e-24)
(1.0085 -0.00152734 -3.5848e-23)
(1.00522 0.000247747 -1.27731e-22)
(1.00572 0.000317383 -8.01774e-23)
(1.00466 0.000226797 0)
(-0.0867285 0.000206356 -1.81483e-20)
(-0.100815 0.0124283 -8.60327e-22)
(-0.0847965 -0.00614291 -6.1401e-20)
(1.02969 -0.0238974 0)
(1.0289 -0.0242501 -9.47589e-22)
(1.03469 -0.00417832 0)
(1.03408 -0.00388562 2.76144e-21)
(1.03476 -0.00364132 0)
(1.08217 -0.109155 4.47787e-21)
(1.07563 -0.103831 -6.77421e-21)
(0.584391 -0.0949665 -4.74523e-21)
(0.584753 -0.0859181 1.97896e-20)
(0.549027 -0.0969897 -7.90014e-21)
(0.9976 -0.0248914 5.36875e-21)
(0.997022 -0.0200237 3.48391e-22)
(1.00093 -0.0223552 4.80176e-21)
(1.08755 -0.0576726 -1.87365e-21)
(1.08639 -0.0589249 8.85512e-21)
(1.08823 -0.0593625 8.22857e-21)
(1.06893 -0.0972889 -1.1367e-21)
(1.05704 -0.0957111 -5.96255e-22)
(1.06247 -0.0867613 0)
(1.01781 -0.01919 0)
(1.01736 -0.0189911 3.53537e-22)
(1.01753 -0.0194215 0)
(1.05697 -0.0430935 -8.42862e-22)
(1.06127 -0.043061 7.65666e-21)
(0.888948 -0.0160445 -1.63824e-21)
(0.89163 0.00773478 -3.50813e-21)
(1.07312 -0.0300077 -6.10885e-21)
(1.0722 -0.0306478 7.94861e-21)
(1.07191 -0.0294243 5.0492e-22)
(1.02111 -0.027662 2.02311e-22)
(1.02031 -0.0284364 2.11098e-22)
(0.320503 0.00712275 -2.54112e-21)
(0.310412 0.00791463 -1.71113e-20)
(0.287594 0.0113381 6.10988e-21)
(0.978592 -0.044972 8.47832e-21)
(0.976784 -0.0461571 1.76283e-21)
(1.01941 -0.0455233 8.71817e-22)
(0.642133 -0.0749352 -9.81981e-21)
(0.63741 -0.0444323 -6.64646e-21)
(1.02055 -0.000505057 5.18744e-22)
(1.02021 -0.000540184 -7.33354e-22)
(1.01156 -0.00149702 7.23956e-23)
(1.01187 -0.00167591 5.90828e-22)
(1.01158 -0.00177787 -3.0679e-22)
(1.00733 0.000977538 0)
(1.00744 0.00116916 0)
(1.00727 0.00101105 0)
(1.05804 -0.064031 -3.53633e-21)
(1.05605 -0.0631982 -1.70536e-21)
(0.406498 0.00740194 0)
(0.427021 0.00561343 -7.44514e-21)
(0.407794 0.00880585 1.24675e-21)
(1.0715 -0.0432268 -7.84999e-21)
(1.07271 -0.044083 6.82537e-21)
(1.07139 -0.0447384 -7.58992e-21)
(0.300961 0.00588975 -5.96784e-21)
(0.274712 0.00742547 -1.40882e-20)
(1.03881 -0.00805876 1.62735e-21)
(1.038 -0.0081118 -5.71571e-23)
(1.03809 -0.00746352 6.9345e-22)
(0.926912 -0.105511 0)
(0.935257 -0.0990333 2.66875e-22)
(0.930274 -0.0912866 -2.08256e-22)
(1.02324 -0.00492198 6.39722e-22)
(1.02349 -0.00523149 1.07979e-21)
(1.02298 -0.00511869 2.99757e-21)
(0.126305 0.0966048 -1.77076e-20)
(0.143905 0.0858124 -1.40039e-21)
(0.109055 0.094507 -1.9708e-21)
(0.998854 -0.0288202 1.34632e-21)
(0.99379 -0.0274402 6.55325e-22)
(0.424275 -0.000663998 0)
(0.463512 -0.0201682 0)
(0.998759 -0.0334739 9.47808e-22)
(0.999848 -0.0375334 4.28368e-22)
(1.00277 -0.0345004 2.20886e-23)
(0.74562 0.07328 -2.49918e-21)
(0.826659 0.0471593 1.44673e-21)
(0.790332 0.0621798 1.78312e-21)
(1.05512 -0.0220199 2.2485e-21)
(1.0544 -0.022597 8.96574e-21)
(1.05558 -0.0230513 -3.30002e-21)
(1.01801 0.00295818 4.86699e-23)
(1.01746 0.00277434 2.07487e-22)
(1.01799 0.00279244 -1.55732e-22)
(1.10081 -0.0416313 -1.34078e-20)
(1.10121 -0.0417533 -3.21232e-20)
(1.01301 -0.00371863 -5.49351e-22)
(1.01298 -0.00161906 -2.46838e-22)
(1.01507 -0.00333763 -2.32823e-22)
(0.88419 -0.0453829 3.03899e-21)
(1.05963 -0.0259223 0)
(1.05943 -0.0266687 0)
(1.06044 -0.0265316 0)
(1.05493 -0.0212393 2.09623e-21)
(1.05607 -0.0214653 -1.2471e-22)
(1.00275 0.000145893 4.50801e-22)
(1.00274 0.000154881 -1.79894e-22)
(1.00385 0.000136068 -2.18742e-22)
(1.08453 -0.058498 5.68351e-21)
(1.08424 -0.0564245 -3.70357e-21)
(0.634591 -0.00926837 1.60787e-20)
(0.611892 -0.00422747 2.26678e-22)
(0.611533 -0.00479086 1.904e-20)
(0.970315 -0.00609107 3.78655e-22)
(0.971897 0.00258941 -4.33485e-22)
(1.00142 0.00010521 1.56375e-22)
(1.00273 0.00010651 6.14619e-22)
(-0.110357 0.18041 -1.00406e-21)
(-0.0581691 0.187885 1.26728e-20)
(-0.0938381 0.18118 -1.37103e-20)
(1.07922 -0.0420723 -4.62128e-21)
(1.08019 -0.0412668 5.80082e-22)
(1.07881 -0.0408611 4.98509e-21)
(1.02035 -0.0167049 0)
(1.02073 -0.0171485 0)
(1.02027 -0.0170084 0)
(1.06166 -0.0073686 6.08832e-21)
(1.06265 -0.00757622 3.73476e-21)
(1.00274 -2.69792e-05 0)
(1.00347 -5.95987e-05 -1.81093e-23)
(1.00283 -3.2064e-05 0)
(0.991233 -0.0296367 4.45772e-22)
(0.988386 -0.0262241 4.07431e-22)
(0.992729 -0.0250496 -1.03719e-21)
(1.08341 -0.0412964 -2.35302e-21)
(1.08262 -0.0420654 -5.95512e-21)
(1.08389 -0.0425041 -5.52203e-21)
(1.00699 -0.000947159 0)
(1.00703 -0.000948902 -3.24298e-23)
(1.00685 -0.000865782 0)
(0.892913 -0.0445293 7.79626e-21)
(0.844066 -0.0441266 -8.68565e-21)
(1.01143 -0.056869 6.26575e-22)
(1.01307 -0.0503507 7.07352e-22)
(1.00188 7.66077e-05 -4.08034e-23)
(1.00074 5.04893e-05 3.63525e-23)
(1.00187 7.3288e-05 -3.16007e-22)
(1.01859 0.00319501 -3.20005e-23)
(1.01803 0.00307787 0)
(1.01297 -0.00504424 7.79869e-22)
(1.01152 -0.00418192 6.00477e-22)
(0.999907 5.66385e-05 0)
(0.99994 1.52402e-05 0)
(1.00286 9.70468e-05 -1.37723e-23)
(1.0017 7.56134e-05 -8.39358e-23)
(0.775973 -0.0171364 1.06349e-21)
(0.785763 -0.00222238 1.25706e-22)
(0.660539 -0.0155571 4.98739e-21)
(0.661923 -0.0164979 1.34602e-20)
(1.00703 -0.000690349 -5.54435e-23)
(1.0071 -0.000740919 1.49326e-23)
(1.00703 -0.000744514 -1.056e-23)
(1.00403 -0.000387358 0)
(1.00383 -0.000365597 0)
(1.00219 -0.00018966 2.29928e-22)
(1.01034 -0.000853621 7.1274e-22)
(1.00901 -0.000727425 -5.59574e-22)
(1.00868 -0.000601831 7.61045e-22)
(0.0171287 0.105276 -7.1009e-21)
(0.011934 0.101264 9.90889e-21)
(1.06122 -0.00845806 1.52336e-21)
(1.06043 -0.00739054 5.65876e-22)
(0.938655 -0.0530163 0)
(0.898524 -0.0491686 1.07927e-20)
(0.837687 0.07489 2.91513e-21)
(0.883218 0.115445 0)
(0.87467 0.114822 0)
(1.01996 -0.00409158 -6.99821e-23)
(1.01963 -0.00400052 7.61981e-23)
(1.0201 -0.00410536 4.56106e-23)
(0.918009 0.0931114 0)
(0.891458 0.109997 1.44636e-21)
(1.0751 -0.0428011 -4.79808e-21)
(1.07613 -0.0424149 -1.19955e-21)
(1.07602 -0.0439098 3.53196e-22)
(1.01582 -0.016299 0)
(1.0156 -0.0164978 2.39226e-22)
(1.09223 -0.0747109 0)
(1.09182 -0.0724142 -5.15032e-21)
(1.09484 -0.0734525 0)
(1.01526 -0.00966607 -3.61102e-22)
(1.01566 -0.00975418 1.44559e-22)
(1.00563 -0.00134106 0)
(1.00575 -0.00147805 8.19486e-23)
(1.00572 -0.00141967 0)
(0.329473 0.00503498 8.9091e-21)
(0.340994 0.00180307 7.1157e-21)
(1.02344 -0.00466852 -1.76714e-21)
(1.02292 -0.00457151 2.83456e-21)
(0.795623 -0.0768545 1.87915e-21)
(1.00588 -0.000705881 2.77217e-23)
(1.00574 -0.000648713 0)
(1.0054 -0.000560639 1.09279e-23)
(1.00698 -0.000631692 -3.21163e-23)
(1.00705 -0.000622247 1.20424e-23)
(0.984708 -0.0443633 1.33774e-20)
(0.99104 -0.0443917 -8.93719e-21)
(1.02711 -0.0451561 5.87062e-22)
(0.17827 -0.12522 1.77398e-22)
(0.13177 -0.112576 2.08744e-21)
(0.149502 -0.122722 -3.49301e-22)
(0.168977 -0.110255 1.34983e-21)
(0.221811 -0.100487 -2.60774e-22)
(0.179375 -0.115036 2.09274e-22)
(-0.127213 0.172175 -1.61871e-20)
(-0.135387 0.166396 -1.57791e-20)
(1.01136 -0.001128 0)
(1.00971 -0.00060063 2.58333e-22)
(1.00817 0.00348669 5.92161e-22)
(1.00781 0.00382642 2.51238e-22)
(1.00857 0.00433133 0)
(1.01225 -0.00273391 -1.34632e-22)
(1.01222 -0.00261946 -2.49344e-22)
(1.01258 -0.00283289 1.33823e-22)
(1.03968 -0.0204853 4.48484e-22)
(1.04039 -0.0210919 3.60986e-21)
(1.04022 -0.0201364 1.09368e-22)
(0.906073 0.0142243 -2.19169e-23)
(0.913746 0.0014179 -1.34966e-22)
(1.01162 -0.00862878 4.80326e-23)
(1.01014 -0.00769819 0)
(1.01134 -0.0072899 -6.7192e-24)
(1.09278 -0.0780683 0)
(1.08953 -0.0764949 -6.9104e-21)
(1.03218 -0.000883961 2.81606e-21)
(1.03237 -0.00141016 -1.14243e-21)
(0.940943 0.0825003 -1.32316e-21)
(0.93287 0.0949417 2.82148e-22)
(1.09778 -0.0350268 -6.06614e-21)
(1.0978 -0.0357853 -5.61345e-21)
(1.00916 -0.000849957 -8.25794e-22)
(1.00938 -0.000874135 8.33257e-22)
(1.01032 -0.00101193 4.74864e-22)
(-0.0231465 0.114209 -3.80259e-21)
(0.0558186 0.111317 0)
(1.00475 0.000202979 -2.58022e-22)
(1.00573 0.000263657 -1.13026e-22)
(1.04626 -0.015377 -1.01333e-21)
(1.04699 -0.0153685 -3.2814e-21)
(1.04635 -0.0146414 -4.00159e-21)
(1.03912 -0.0209622 -4.02167e-21)
(1.03886 -0.0200067 -3.21856e-21)
(1.0083 -0.00525708 -1.10506e-23)
(1.00812 -0.00498593 -3.02899e-23)
(1.00814 -0.00511486 -3.654e-23)
(1.03076 -0.0221874 -4.86494e-22)
(1.03067 -0.0215255 1.26274e-21)
(1.03136 -0.0219444 1.71782e-21)
(1.10115 -0.0513326 -9.61404e-21)
(1.09922 -0.0517849 -1.22693e-20)
(1.08862 -0.0435451 -6.95313e-21)
(1.08919 -0.044659 7.77304e-21)
(1.00867 -0.00153768 -8.93235e-24)
(1.00844 -0.00144275 5.14431e-24)
(1.00848 -0.00140521 -6.45354e-24)
(1.06598 -0.0217117 -5.91422e-21)
(1.06596 -0.0224568 -1.75168e-21)
(1.06688 -0.0221137 -5.26754e-21)
(-0.0753649 -0.0110803 -1.68408e-20)
(-0.0830271 0.00605088 0)
(1.00552 -0.00121578 0)
(1.00557 -0.00126176 0)
(1.03436 -0.03209 -5.88377e-22)
(1.03537 -0.0315776 2.47598e-21)
(1.03427 -0.0309707 1.65473e-21)
(1.01035 -0.00205233 -1.0197e-22)
(1.01065 -0.00213158 1.57854e-22)
(1.01037 -0.00199055 -6.72387e-23)
(1.01321 -0.00938041 1.33835e-22)
(1.01148 -0.0104952 4.42575e-22)
(1.0743 -0.030587 0)
(1.07398 -0.0293497 0)
(1.01601 -0.0160396 -4.84756e-24)
(1.01547 -0.0158869 1.26302e-22)
(0.510009 0.0214548 2.75827e-21)
(0.44917 0.0300666 -2.10803e-20)
(0.505395 0.0238835 -7.88826e-21)
(0.378811 0.0104049 0)
(0.403713 0.00694421 0)
(1.00615 0.000903112 2.53318e-22)
(1.00615 0.000931895 2.00548e-24)
(1.00631 0.000997964 -1.12397e-22)
(1.00849 -0.00554107 -2.52823e-23)
(1.00847 -0.00539201 1.40871e-23)
(0.13792 -0.117431 6.56852e-22)
(0.164467 -0.101748 9.92871e-22)
(1.0054 -0.00109604 0)
(1.00547 -0.00115789 -3.20211e-23)
(0.81576 0.148103 0)
(0.821231 0.130895 1.87918e-22)
(1.07373 -0.0435334 1.06648e-20)
(1.07381 -0.0419369 -1.083e-20)
(1.00588 0.00132068 6.65607e-23)
(1.00562 0.000747409 -1.21414e-21)
(1.00531 0.00147836 -2.95749e-22)
(1.04463 -0.0642761 2.36922e-20)
(1.08813 -0.0658452 0)
(1.00729 -0.00108361 2.72288e-24)
(1.00726 -0.0010681 -1.10871e-23)
(1.00748 -0.00116892 -3.94688e-23)
(1.04958 -0.0264981 4.18824e-21)
(1.04873 -0.026061 3.81715e-21)
(1.04881 -0.0269102 1.91357e-21)
(0.939024 -0.0444121 1.31952e-20)
(1.02326 -0.00407684 1.38562e-21)
(1.02297 -0.00378791 2.57776e-21)
(1.02281 -0.00402414 -1.01357e-21)
(1.05623 -0.0699709 -7.16462e-21)
(1.05875 -0.0685647 -1.42439e-20)
(1.00577 -0.000253053 8.16138e-24)
(1.00544 -0.000205439 -4.49677e-23)
(1.00559 -0.000221632 7.21198e-25)
(1.00408 -4.40608e-06 3.00168e-22)
(1.00451 3.09223e-05 8.45437e-23)
(1.0053 0.000109509 9.27646e-23)
(1.01821 -0.0193556 -5.64776e-22)
(1.01798 -0.019023 1.86888e-22)
(1.0113 -0.00122381 4.58213e-22)
(1.01136 -0.0011491 7.13241e-22)
(1.08212 -0.0629138 -2.35604e-23)
(1.08043 -0.0642629 -2.35918e-23)
(1.08273 -0.0653201 -1.92738e-22)
(1.04564 -0.0216212 0)
(1.04467 -0.0178234 1.12281e-21)
(1.04173 -0.02134 0)
(0.889693 -0.00606045 8.0817e-22)
(-0.0461535 0.00699069 -1.16522e-20)
(-0.0523011 0.0242485 -1.05085e-20)
(1.01904 0.0034186 9.35797e-23)
(1.01897 0.00351787 1.89738e-22)
(1.01951 0.00371778 -6.96725e-23)
(1.06866 -0.0332392 1.30994e-20)
(1.06949 -0.032535 6.70032e-21)
(1.06835 -0.0320513 1.25161e-20)
(0.582277 -0.1035 -1.19838e-21)
(0.616347 -0.0947797 -3.02645e-22)
(1.04449 -0.0152333 -2.72896e-21)
(1.04534 -0.0153671 5.23069e-22)
(1.04466 -0.0146454 -5.77853e-21)
(1.00855 0.00325904 1.1223e-22)
(1.00794 0.00284164 -2.64887e-22)
(0.901013 -0.13701 -7.40498e-22)
(0.899139 -0.122645 2.64702e-21)
(0.909742 -0.131981 -4.26084e-21)
(1.00627 0.00205181 5.18949e-22)
(1.00633 0.00125895 6.25478e-22)
(1.00721 0.000785563 0)
(1.00736 0.000945728 0)
(1.02028 -0.00421508 -5.02171e-23)
(1.01992 -0.0040456 3.32514e-24)
(0.254701 0.0756235 3.00364e-20)
(0.315403 0.0507694 9.73411e-21)
(0.297664 0.0607465 2.7908e-20)
(1.00169 -0.000153543 -3.14793e-22)
(1.0034 -0.000245016 5.00285e-22)
(1.00129 -0.000166867 -8.16069e-23)
(1.01941 -0.00681061 0)
(1.01901 -0.00653681 0)
(1.01913 -0.00694137 -1.06515e-21)
(1.03582 -0.0292654 -5.34659e-22)
(1.0379 -0.0299848 -1.25759e-23)
(1.03637 -0.0314364 -3.11026e-22)
(1.02374 -0.00409947 -1.24773e-21)
(1.02357 -0.00437436 -2.48986e-21)
(0.42062 -0.152815 7.48279e-21)
(0.365881 -0.156924 3.69079e-21)
(0.38181 -0.158115 1.15477e-20)
(1.05066 -0.0239421 -3.7722e-21)
(1.05008 -0.0231439 5.58202e-21)
(1.05124 -0.0231739 -1.22816e-21)
(0.451988 -0.00556346 4.82412e-21)
(0.433312 -0.00270948 -2.9549e-21)
(0.450589 -0.00596888 4.31442e-21)
(1.00764 -0.00117522 -1.85747e-23)
(1.0078 -0.00123285 -4.82302e-24)
(1.00785 -0.00128826 4.47936e-24)
(0.694982 -0.0315223 0)
(0.659196 -0.0298409 1.53504e-21)
(0.669289 -0.0294088 0)
(1.02044 -0.0163279 -2.09061e-22)
(1.01997 -0.0162264 0)
(0.904027 -0.145629 2.92891e-21)
(0.899615 -0.138823 1.05935e-21)
(0.907673 -0.133779 -1.45713e-21)
(1.00685 -0.000875129 1.00761e-23)
(1.00687 -0.000892915 1.11456e-23)
(1.00669 -0.00081193 -1.70816e-23)
(1.01155 -0.00251943 1.37568e-22)
(1.01154 -0.00261405 9.80172e-23)
(1.01122 -0.00241965 -1.33765e-22)
(1.01301 0.0367429 2.41637e-22)
(1.00288 0.0431468 -5.3011e-22)
(1.00609 0.033718 -1.76986e-21)
(0.999001 -0.0360688 6.44776e-22)
(1.00044 -0.0323944 -6.05545e-22)
(1.00384 -0.0357483 7.74695e-22)
(0.0881256 0.121888 0)
(0.0989071 0.122026 0)
(1.02115 -0.00138239 0)
(1.02099 -0.0012006 0)
(1.02088 -0.00134202 0)
(0.455029 -0.00547388 -1.52032e-22)
(0.472372 -0.00834396 6.04518e-21)
(1.05026 -0.0244891 -4.86051e-21)
(1.05118 -0.0244714 -6.38539e-21)
(1.03948 -0.00852026 2.92058e-21)
(1.03955 -0.00784023 1.65006e-21)
(0.720283 -0.0257837 -1.6849e-20)
(0.694427 -0.023623 7.30668e-21)
(0.692214 -0.0240626 1.35312e-21)
(1.09675 -0.058681 -4.04143e-22)
(1.09759 -0.060252 8.66242e-21)
(1.09905 -0.058583 -6.96405e-21)
(0.604259 -0.0273713 7.30752e-21)
(0.577144 -0.0249485 -1.61385e-21)
(0.577003 -0.0259698 0)
(1.0038 1.28004e-05 -2.75575e-22)
(1.00383 -3.5876e-06 6.41342e-22)
(1.0024 2.2997e-05 -3.161e-24)
(1.06138 -0.0289876 0)
(1.06245 -0.0297292 9.22688e-22)
(1.06128 -0.030151 4.91377e-21)
(1.00263 -2.36759e-05 2.20361e-23)
(1.00193 -2.28461e-05 4.13623e-23)
(-0.0768862 0.0704045 -6.60395e-21)
(-0.0680104 0.0783913 -6.30846e-21)
(-0.0674721 0.0679231 -1.63816e-22)
(1.00685 -0.00086399 -9.35159e-25)
(1.00703 -0.000951172 3.36589e-23)
(1.05158 -0.0462462 3.15574e-21)
(1.05241 -0.0450652 1.49628e-22)
(0.992979 -0.096461 6.9894e-22)
(1.00213 -0.0978013 2.22666e-21)
(0.994289 -0.106994 6.85834e-22)
(1.00602 0.000822593 1.08716e-22)
(1.00616 0.000878744 1.68285e-22)
(1.01906 0.00322397 -6.63329e-23)
(1.0899 -0.0400275 -1.27191e-21)
(1.08932 -0.0408981 -8.38036e-21)
(1.08879 -0.0399475 -2.52642e-20)
(1.02415 -0.0474041 -1.69364e-22)
(1.02484 -0.0451887 -2.09364e-22)
(1.02228 -0.0451494 -3.18993e-22)
(0.469247 -0.149205 -2.42785e-21)
(0.453043 -0.14855 6.33528e-24)
(1.08029 -0.105893 4.79507e-22)
(1.08171 -0.0961308 1.99882e-21)
(1.01189 -0.00262518 -3.30303e-23)
(1.01223 -0.00283785 2.90173e-23)
(1.01965 -0.00670324 -1.47834e-21)
(1.01976 -0.0070822 2.50253e-21)
(0.991626 -0.0457528 4.53841e-22)
(0.985991 -0.0508962 0)
(0.911831 0.058217 6.97947e-23)
(0.909843 0.0362272 1.19774e-21)
(0.92387 0.0548413 -8.25013e-21)
(1.01003 -0.00243548 0)
(1.00991 -0.00230591 0)
(1.0102 -0.00260169 -2.36914e-23)
(1.03365 -0.0288836 -9.72844e-22)
(1.03543 -0.0268457 9.84363e-23)
(1.00413 -0.000103502 2.45551e-23)
(1.00406 -9.85498e-05 1.63789e-24)
(0.546343 -0.0206279 -1.92046e-21)
(0.52409 -0.0180541 2.7364e-23)
(0.542053 -0.0203704 2.86003e-21)
(1.07839 -0.042908 9.73277e-21)
(1.07976 -0.0433851 8.00463e-21)
(0.900662 -0.147897 -2.09945e-21)
(0.897881 -0.139505 -1.89936e-21)
(0.89619 -0.138738 -1.62741e-21)
(1.03866 -0.0213301 2.23513e-21)
(1.03809 -0.0216719 -4.29661e-22)
(1.0379 -0.0208128 3.13557e-21)
(1.04335 -0.0276792 6.20137e-22)
(1.04314 -0.0267729 -3.80728e-21)
(1.04256 -0.0273786 -5.28046e-21)
(1.00281 -0.0113683 -7.06563e-22)
(1.00396 -0.0128966 -3.07778e-22)
(1.0041 -0.0106434 1.17719e-21)
(0.915975 0.0788762 -1.18995e-21)
(0.90132 0.0618682 -5.45051e-23)
(1.03367 -0.0128764 -1.51507e-21)
(1.03411 -0.0133541 -1.50679e-22)
(1.03337 -0.0132532 -3.03425e-21)
(1.03943 -0.021795 -1.95799e-21)
(1.08592 -0.0357901 6.28529e-21)
(1.08705 -0.0359996 7.83196e-21)
(1.08602 -0.0368688 5.59714e-21)
(1.01282 0.0510692 -1.7472e-21)
(0.987956 0.060342 3.03971e-21)
(1.01011 0.0451358 -2.16071e-22)
(1.04925 -0.0227558 0)
(1.0466 -0.0252116 6.32514e-22)
(0.950994 -0.043786 -6.56605e-21)
(0.9936 -0.043764 5.87681e-21)
(0.372449 0.0126885 -4.77193e-21)
(0.303444 0.0187151 -9.17596e-21)
(0.270411 0.016863 -2.18091e-20)
(1.02424 -0.000996123 1.39526e-21)
(1.02383 -0.000834517 1.86523e-22)
(1.02388 -0.00110787 2.70816e-21)
(1.01154 -0.00242993 1.10311e-22)
(1.02093 -0.0266492 1.50877e-22)
(1.02025 -0.0260366 0)
(1.02092 -0.0254642 0)
(0.958895 -0.138504 4.04332e-23)
(0.973053 -0.129164 -5.39193e-21)
(0.973451 -0.156037 7.1088e-22)
(1.01657 -0.00273929 -9.86193e-23)
(1.01611 -0.00267754 0)
(1.01654 -0.00290545 -1.0686e-22)
(1.01109 -0.0744902 6.30554e-21)
(1.01934 -0.0782092 -2.10286e-21)
(0.970577 -0.0740145 1.76344e-20)
(1.04445 -0.0159527 0)
(1.04381 -0.0152716 1.99006e-21)
(1.03395 -0.0124983 1.72226e-21)
(1.03322 -0.0123846 3.25419e-21)
(1.05996 -0.0251166 0)
(1.05894 -0.0253587 0)
(0.749892 -0.0289483 -8.88536e-21)
(0.746557 -0.0284941 -7.67367e-22)
(1.03301 0.0240069 1.41519e-21)
(1.03166 0.0196595 3.11217e-23)
(1.02855 0.023102 -3.58034e-23)
(1.00118 -0.0118391 2.12111e-21)
(1.00217 -0.00977526 -3.02001e-22)
(1.04606 -0.0161417 4.88712e-21)
(0.991632 -0.0915548 -3.05684e-22)
(1.00174 -0.0823049 5.05984e-21)
(1.00237 -0.10058 -2.46091e-22)
(1.07025 -0.0424437 8.77849e-22)
(1.07151 -0.0417934 -9.06333e-22)
(1.04294 -0.0341775 -4.48253e-22)
(1.04309 -0.0336782 -2.72387e-21)
(1.00586 -0.00161728 -2.04579e-23)
(1.00577 -0.00151793 1.10863e-24)
(0.923584 -0.113634 2.29848e-22)
(0.921125 -0.109436 0)
(1.03223 -0.00328538 -1.78897e-23)
(1.03287 -0.000626989 1.43867e-21)
(1.03009 -0.0013402 -1.75308e-23)
(0.614869 -0.0332922 -1.44029e-20)
(0.585765 -0.0301542 0)
(0.584251 -0.031737 -1.33086e-21)
(0.980566 0.0499699 -2.65038e-21)
(0.976857 0.0627453 1.88991e-24)
(1.01013 -0.0025273 0)
(1.00992 -0.0023002 0)
(1.00726 -0.000983295 -1.03813e-23)
(1.00746 -0.00107738 -7.35327e-24)
(1.00741 -0.00101611 -1.73289e-24)
(1.00288 -4.64232e-05 0)
(1.00299 -3.9898e-05 -1.30366e-23)
(1.0036 -5.13649e-05 1.4171e-23)
(1.08589 -0.0349023 0)
(1.08501 -0.035602 0)
(0.942073 -0.152287 1.76048e-22)
(0.942569 -0.124865 4.48531e-22)
(0.808004 0.147143 -6.32171e-22)
(0.793863 0.123081 -7.1147e-21)
(0.801821 0.140256 -2.33249e-21)
(1.00664 0.000446117 1.61737e-22)
(1.0068 0.000597199 -4.14737e-23)
(1.00671 0.000386141 1.142e-22)
(1.02147 7.10725e-05 -1.83585e-23)
(1.02153 -7.69073e-05 -1.12362e-21)
(1.0217 5.969e-05 -3.26137e-21)
(0.978446 -0.0993361 -9.8551e-23)
(0.984174 -0.083918 0)
(0.939628 -0.100007 -2.93124e-22)
(0.927361 -0.103247 5.5849e-23)
(0.935466 -0.0922125 1.12024e-20)
(1.09301 -0.0807826 1.25435e-21)
(1.09546 -0.0786234 0)
(1.02961 -0.0232619 0)
(1.03034 -0.023647 -1.87467e-21)
(1.0353 -0.00440783 -1.08891e-21)
(1.03464 -0.00458667 0)
(1.07262 -0.0330027 0)
(1.0717 -0.0336344 0)
(1.07292 -0.0342812 0)
(0.940385 -0.099323 -8.60283e-21)
(0.95034 -0.0925132 -3.36158e-21)
(1.04877 -0.0747222 0)
(0.99718 -0.0699416 -6.1185e-21)
(1.03622 -0.0307284 -2.63806e-21)
(1.03592 -0.0302037 -1.97267e-22)
(1.03672 -0.0302475 2.10875e-21)
(0.414199 0.0192148 3.19119e-21)
(0.462069 0.0146711 -7.34315e-21)
(1.00596 -0.00178891 1.44296e-23)
(1.00604 -0.00188694 2.39233e-23)
(1.00595 -0.00173701 -4.54277e-23)
(0.551674 -0.0206001 -1.3097e-21)
(0.57126 -0.0228444 4.14e-21)
(1.06521 -0.0212591 -3.70626e-21)
(1.06614 -0.020875 3.73673e-21)
(1.04687 -0.0236115 -1.72594e-21)
(1.04701 -0.0243724 -1.69802e-21)
(0.627081 -0.0340199 1.15748e-21)
(0.59273 -0.0324681 1.64898e-21)
(0.602609 -0.0319542 3.90058e-21)
(1.02223 -0.0135981 8.80119e-22)
(1.02196 -0.0137849 7.08268e-22)
(1.02252 -0.0139787 1.0439e-21)
(0.99523 -0.0318963 -4.20766e-22)
(0.990823 -0.0343781 -4.75561e-22)
(0.610034 -0.0192208 1.65197e-21)
(0.609751 -0.0174684 -4.1574e-21)
(0.635033 -0.0206065 5.40109e-21)
(1.00658 0.000510982 -4.05573e-23)
(1.00649 0.000305492 0)
(1.08095 -0.0333046 -5.93257e-21)
(1.08214 -0.0336701 -4.25147e-21)
(1.08113 -0.0345703 -6.64352e-21)
(1.05835 -0.0271043 -5.84272e-21)
(1.05942 -0.0277869 0)
(1.02952 -0.0225811 -7.71284e-22)
(1.02892 -0.022792 0)
(0.226697 -0.13246 -6.72154e-21)
(0.214828 -0.126848 -1.70927e-20)
(1.03588 -0.0311402 -4.19907e-22)
(1.03668 -0.0311899 -4.61677e-22)
(1.03165 -0.0132788 7.32332e-22)
(1.03205 -0.0131035 -3.74122e-22)
(1.03223 -0.0137144 -9.59566e-22)
(0.689549 -0.0222717 -1.2555e-20)
(0.680771 -0.0203203 6.44906e-22)
(0.659661 -0.0167903 5.03989e-21)
(1.00878 -0.00155527 1.37399e-23)
(1.009 -0.00163463 1.23616e-23)
(1.00879 -0.00151475 -2.3162e-23)
(1.0437 -0.0283203 4.89875e-21)
(1.04409 -0.0277379 5.82622e-21)
(1.02055 -0.00444413 1.08303e-22)
(1.02079 -0.00473407 1.78573e-22)
(1.02066 -0.00448629 1.01311e-22)
(0.649296 -0.0363297 -4.40654e-21)
(0.650573 -0.0359263 -8.35156e-21)
(1.09923 -0.0404958 4.21465e-21)
(1.09943 -0.0406636 -7.16655e-21)
(1.09952 -0.0402704 3.30197e-21)
(1.02141 -0.00140432 1.25334e-21)
(1.02131 -0.00156545 5.79303e-22)
(1.08299 -0.0391503 5.52695e-21)
(1.08314 -0.0403168 3.81873e-22)
(1.082 -0.0397112 -3.06509e-21)
(1.02159 -0.000785251 1.60152e-21)
(1.02164 -0.00093504 1.6014e-21)
(1.02187 -0.000810953 1.37585e-21)
(0.404446 0.0116912 2.11211e-20)
(0.417336 0.0123104 6.20372e-21)
(1.00489 -0.0144075 3.27161e-22)
(1.00386 -0.0163328 3.11656e-22)
(1.0063 -0.0164659 -6.22231e-22)
(1.00426 -4.67414e-05 0)
(1.00466 -3.39998e-05 1.10849e-22)
(1.00546 1.2066e-05 -5.12376e-23)
(1.00839 -0.00634799 -3.93593e-22)
(1.00852 -0.00663219 -1.47502e-22)
(1.0085 -0.00644408 9.41184e-23)
(1.09888 -0.0406742 0)
(1.09882 -0.0402446 0)
(1.06046 -0.0283325 0)
(1.0615 -0.0280346 0)
(1.04733 -0.0136603 2.28072e-21)
(1.0475 -0.0143291 -1.13209e-20)
(1.04672 -0.0140479 -2.00868e-21)
(1.02129 6.8923e-05 5.68649e-22)
(1.02251 -0.0133954 9.52981e-22)
(1.02198 -0.0132572 -4.50066e-22)
(1.0312 -0.0135837 -1.35748e-21)
(1.03098 -0.0129352 1.28861e-21)
(0.948889 0.0686621 -1.75839e-22)
(0.941033 0.0479203 3.60614e-22)
(0.171928 0.16131 3.39971e-21)
(0.179235 0.173662 1.80152e-22)
(0.528082 0.0133343 -1.92427e-20)
(0.566867 0.0012877 -9.12412e-21)
(0.538012 0.00566611 2.04608e-20)
(1.01629 -0.0244323 -1.35015e-21)
(1.01558 -0.0255222 -1.75261e-21)
(1.01515 -0.0240545 -1.7481e-22)
(0.665267 -0.0356737 -3.5524e-21)
(0.65615 -0.0358961 3.51355e-21)
(0.826287 -0.117491 -1.38733e-20)
(0.790777 -0.115374 -3.54203e-21)
(0.784104 -0.119156 1.24267e-21)
(1.02066 -0.000619691 2.97433e-22)
(1.06888 -0.0343997 6.45554e-21)
(1.0678 -0.0338346 -5.87584e-23)
(1.09082 -0.0832346 3.13196e-21)
(1.09237 -0.083907 -2.19401e-22)
(1.01156 0.00016523 -7.26129e-22)
(1.00967 0.00170832 -1.88631e-21)
(1.00976 -0.0013458 -6.2742e-22)
(1.01768 -0.0580903 4.14773e-22)
(1.01629 -0.054762 4.76434e-22)
(1.02024 -0.0558186 -1.52946e-22)
(1.09762 -0.0478055 7.97863e-21)
(1.09682 -0.0482938 9.13582e-22)
(1.09688 -0.0473809 6.54754e-21)
(1.08932 -0.0754843 -5.94037e-21)
(1.01026 -0.00882353 -2.87121e-22)
(1.00973 -0.00888163 -6.5861e-22)
(1.00967 -0.00853636 6.43682e-22)
(0.904189 -0.178451 -1.52591e-22)
(0.916202 -0.171206 3.71763e-22)
(0.917253 -0.194191 1.52383e-21)
(0.609207 -0.0217751 -8.79778e-21)
(0.583247 -0.0195292 -1.37722e-21)
(0.588233 -0.019502 0)
(1.02051 -0.000380427 -1.70403e-21)
(1.02078 -0.000403063 5.17137e-22)
(1.01824 -0.0207494 -1.99037e-22)
(1.02152 -0.0179849 -7.71602e-23)
(1.02171 -0.0247641 3.09542e-23)
(1.01379 -0.0213056 4.239e-21)
(1.01724 -0.0171222 2.62505e-21)
(1.00484 -0.121736 -2.2587e-21)
(1.02111 -0.118054 -1.77797e-21)
(1.00676 -0.124756 1.03446e-21)
(1.04723 -0.013072 4.3622e-21)
(1.04803 -0.0134065 3.78728e-21)
(1.0188 -0.0616591 -6.43701e-22)
(1.01431 -0.0602849 4.94484e-22)
(-0.0853205 0.062133 1.16854e-20)
(-0.0863063 0.0734281 -2.53395e-20)
(1.00869 -0.00583354 -4.50277e-23)
(1.00852 -0.00568961 -7.46995e-23)
(0.891722 -0.187326 3.02388e-21)
(0.890562 -0.165424 -6.3391e-21)
(1.00825 -0.00603148 1.69649e-23)
(1.00827 -0.00624555 -2.7037e-23)
(1.02154 -0.000647383 8.51463e-23)
(1.02136 -0.000764837 -1.94246e-21)
(1.00471 -0.000151818 1.66115e-23)
(1.00419 -0.000102996 3.0728e-23)
(1.00714 -0.00101557 1.3454e-23)
(1.00693 -0.000929801 -1.20504e-23)
(1.0081 -0.00472766 1.19398e-22)
(1.00792 -0.00447402 1.76093e-23)