/*--------------------------------*- C++ -*----------------------------------*\
| =========                 |                                                 |
| \\      /  F ield         | OpenFOAM: The Open Source CFD Toolbox           |
|  \\    /   O peration     | Version:  v2012                                 |
|   \\  /    A nd           | Website:  www.openfoam.com                      |
|    \\/     M anipulation  |                                                 |
\*---------------------------------------------------------------------------*/
FoamFile
{
    version     2.0;
    format      ascii;
    class       volVectorField;
    location    "950";
    object      cellDisplacement;
}
// * * * * * * * * * * * * * * * * * * * * * * * * * * * * * * * * * * * * * //

dimensions      [0 1 0 0 0 0 0];


internalField   nonuniform List<vector> 
13917
(
(0 0.0561522 0)
(0 0.0517679 0)
(0 0.0565173 0)
(0 0.0535748 0)
(0 0.0333956 0)
(0 0.0565155 0)
(0 0.0565179 0)
(0 0.0565172 0)
(0 0.0565176 0)
(0 0.0563666 0)
(0 0.0564805 0)
(0 0.0563361 0)
(0 0.053714 0)
(0 0.0565192 0)
(0 0.0555436 0)
(0 0.0552756 0)
(0 0.0524148 0)
(0 0.0562683 0)
(0 0.056325 0)
(0 0.0185707 0)
(0 0.00627347 0)
(0 0.0565181 0)
(0 0.0275098 0)
(0 0.0565168 0)
(0 0.0433752 0)
(0 0.056518 0)
(0 0.0563524 0)
(0 0.0564268 0)
(0 0.0565156 0)
(0 0.0564318 0)
(0 0.05618 0)
(0 0.0555907 0)
(0 0.0562449 0)
(0 0.0554841 0)
(0 0.0445049 0)
(0 0.0565069 0)
(0 0.0264288 0)
(0 0.0565191 0)
(0 0.0546487 0)
(0 0.0565192 0)
(0 0.00435784 0)
(0 0.00253903 0)
(0 0.0255813 0)
(0 0.05648 0)
(0 0.0505665 0)
(0 0.0557931 0)
(0 0.0562552 0)
(0 0.056362 0)
(0 0.0565191 0)
(0 0.00433327 0)
(0 0.0552774 0)
(0 0.0525206 0)
(0 0.0565191 0)
(0 0.0555728 0)
(0 0.0525703 0)
(0 0.0553336 0)
(0 0.0564776 0)
(0 0.0495514 0)
(0 0.0549003 0)
(0 0.0502221 0)
(0 0.0565164 0)
(0 0.0518222 0)
(0 0.0565192 0)
(0 0.0197087 0)
(0 0.0565147 0)
(0 0.0565166 0)
(0 0.0346997 0)
(0 0.0446519 0)
(0 0.0564814 0)
(0 0.056105 0)
(0 0.0324993 0)
(0 0.0565173 0)
(0 0.0565191 0)
(0 0.042817 0)
(0 0.0565191 0)
(0 0.0563769 0)
(0 0.0565192 0)
(0 0.0530882 0)
(0 0.0565181 0)
(0 0.0116854 0)
(0 0.0142534 0)
(0 0.0332982 0)
(0 0.0565143 0)
(0 0.056519 0)
(0 0.0565188 0)
(0 0.052887 0)
(0 0.0169167 0)
(0 0.0565162 0)
(0 0.0551997 0)
(0 0.0267534 0)
(0 0.0565191 0)
(0 0.0564147 0)
(0 0.0469643 0)
(0 0.0542328 0)
(0 0.0565165 0)
(0 0.0565145 0)
(0 0.0564553 0)
(0 0.0563343 0)
(0 0.0564677 0)
(0 0.0564926 0)
(0 0.0230869 0)
(0 0.0561523 0)
(0 0.056479 0)
(0 0.053624 0)
(0 0.0369813 0)
(0 0.0565171 0)
(0 0.0565123 0)
(0 0.0563748 0)
(0 0.0525236 0)
(0 0.0562319 0)
(0 0.0565191 0)
(0 0.0565192 0)
(0 0.056406 0)
(0 0.0565174 0)
(0 0.0541204 0)
(0 0.0565191 0)
(0 0.0383613 0)
(0 0.0565186 0)
(0 0.0565192 0)
(0 0.0555652 0)
(0 0.00492474 0)
(0 0.0564789 0)
(0 0.0565191 0)
(0 0.0564141 0)
(0 0.00397928 0)
(0 0.0540475 0)
(0 0.0503843 0)
(0 0.00321094 0)
(0 0.0151615 0)
(0 0.0565154 0)
(0 0.0565191 0)
(0 0.0539413 0)
(0 0.0508166 0)
(0 0.0051481 0)
(0 0.056509 0)
(0 0.0565167 0)
(0 0.0561632 0)
(0 0.0564972 0)
(0 0.0353913 0)
(0 0.0555396 0)
(0 0.0565034 0)
(0 0.0421899 0)
(0 0.0533114 0)
(0 0.0564907 0)
(0 0.0450641 0)
(0 0.056516 0)
(0 0.0565154 0)
(0 0.0522719 0)
(0 0.0399371 0)
(0 0.05569 0)
(0 0.0562843 0)
(0 0.0565191 0)
(0 0.0564104 0)
(0 0.0562568 0)
(0 0.0554172 0)
(0 0.0565188 0)
(0 0.0560737 0)
(0 0.05651 0)
(0 0.0565192 0)
(0 0.056509 0)
(0 0.0550673 0)
(0 0.0563454 0)
(0 0.0106405 0)
(0 0.0564504 0)
(0 0.0563982 0)
(0 0.0564635 0)
(0 0.0535532 0)
(0 0.0563109 0)
(0 0.048348 0)
(0 0.0561855 0)
(0 0.0562468 0)
(0 0.0565192 0)
(0 0.0564195 0)
(0 0.0534866 0)
(0 0.0565149 0)
(0 0.0563263 0)
(0 0.056519 0)
(0 0.0565189 0)
(0 0.0565155 0)
(0 0.0471426 0)
(0 0.0564211 0)
(0 0.0562035 0)
(0 0.0421769 0)
(0 0.0180101 0)
(0 0.0559871 0)
(0 0.0565176 0)
(0 0.0564948 0)
(0 0.0565186 0)
(0 0.0560051 0)
(0 0.0564605 0)
(0 0.0565045 0)
(0 0.0565186 0)
(0 0.056495 0)
(0 0.0292055 0)
(0 0.0564979 0)
(0 0.0563318 0)
(0 0.00148447 0)
(0 0.0474005 0)
(0 0.0565061 0)
(0 0.0565161 0)
(0 0.0550345 0)
(0 0.00406663 0)
(0 0.0562717 0)
(0 0.0562721 0)
(0 0.0565191 0)
(0 0.0565071 0)
(0 0.0439722 0)
(0 0.0499649 0)
(0 0.0563272 0)
(0 0.0565174 0)
(0 0.0531131 0)
(0 0.056518 0)
(0 0.0565192 0)
(0 0.0564574 0)
(0 0.0371549 0)
(0 0.0565157 0)
(0 0.056279 0)
(0 0.0565191 0)
(0 0.0422486 0)
(0 0.0565157 0)
(0 0.0466149 0)
(0 0.0564157 0)
(0 0.00518351 0)
(0 0.0565191 0)
(0 0.0565172 0)
(0 0.0553676 0)
(0 0.0565147 0)
(0 0.0554701 0)
(0 0.0363261 0)
(0 0.0565057 0)
(0 0.0564129 0)
(0 0.0559869 0)
(0 0.0565167 0)
(0 0.0565192 0)
(0 0.0144718 0)
(0 0.0556459 0)
(0 0.056519 0)
(0 0.0565189 0)
(0 0.0120113 0)
(0 0.0290787 0)
(0 0.0565191 0)
(0 0.0564664 0)
(0 0.000734564 0)
(0 0.056501 0)
(0 0.0564212 0)
(0 0.0563277 0)
(0 0.0560637 0)
(0 0.0114426 0)
(0 0.0563355 0)
(0 0.0565192 0)
(0 0.0488953 0)
(0 0.0564502 0)
(0 0.0565024 0)
(0 0.0500769 0)
(0 0.0492183 0)
(0 0.0563564 0)
(0 0.0565191 0)
(0 0.0564005 0)
(0 0.0560259 0)
(0 0.0555679 0)
(0 0.00124879 0)
(0 0.0565191 0)
(0 0.0565157 0)
(0 0.0565037 0)
(0 0.0365078 0)
(0 0.0565191 0)
(0 0.0565192 0)
(0 0.0565112 0)
(0 0.0565183 0)
(0 0.0563911 0)
(0 0.0136681 0)
(0 0.00479014 0)
(0 0.0562573 0)
(0 0.0565191 0)
(0 0.0564527 0)
(0 0.054791 0)
(0 0.0565084 0)
(0 0.0560667 0)
(0 0.011647 0)
(0 0.0565137 0)
(0 0.018241 0)
(0 0.0565153 0)
(0 0.0549266 0)
(0 0.000734138 0)
(0 0.0556902 0)
(0 0.0562702 0)
(0 0.0563454 0)
(0 0.0565026 0)
(0 0.0560742 0)
(0 0.0500103 0)
(0 0.0565027 0)
(0 0.0565166 0)
(0 0.0565163 0)
(0 0.0417423 0)
(0 0.0565119 0)
(0 0.0240512 0)
(0 0.0499738 0)
(0 0.0374145 0)
(0 0.0565164 0)
(0 0.00420845 0)
(0 0.0564256 0)
(0 0.0560327 0)
(0 0.0479352 0)
(0 0.0562846 0)
(0 0.0540419 0)
(0 0.0565191 0)
(0 0.0563063 0)
(0 0.056402 0)
(0 0.0455312 0)
(0 0.048766 0)
(0 0.0565191 0)
(0 0.0565192 0)
(0 0.0390066 0)
(0 0.00524601 0)
(0 0.0565132 0)
(0 0.0466522 0)
(0 0.0565191 0)
(0 0.0450625 0)
(0 0.056519 0)
(0 0.0515537 0)
(0 0.0565041 0)
(0 0.055856 0)
(0 0.0565191 0)
(0 0.0549502 0)
(0 0.0565077 0)
(0 0.0565129 0)
(0 0.055645 0)
(0 0.0564652 0)
(0 0.0565121 0)
(0 0.0523932 0)
(0 0.0565191 0)
(0 0.0564961 0)
(0 0.0565192 0)
(0 0.0552791 0)
(0 0.0565192 0)
(0 0.055693 0)
(0 0.0565188 0)
(0 0.056511 0)
(0 0.0564865 0)
(0 0.056483 0)
(0 0.0565177 0)
(0 0.0153784 0)
(0 0.0562673 0)
(0 0.056519 0)
(0 0.0515261 0)
(0 0.0546278 0)
(0 0.0565192 0)
(0 0.0565091 0)
(0 0.0531919 0)
(0 0.0565026 0)
(0 0.0565151 0)
(0 0.020041 0)
(0 0.0565192 0)
(0 0.0565052 0)
(0 0.0193522 0)
(0 0.035794 0)
(0 0.0229289 0)
(0 0.0399336 0)
(0 0.0565013 0)
(0 0.0565153 0)
(0 0.0565162 0)
(0 0.056519 0)
(0 0.0410611 0)
(0 0.0564573 0)
(0 0.0565192 0)
(0 0.0561237 0)
(0 0.0565181 0)
(0 0.0565191 0)
(0 0.0565174 0)
(0 0.0235593 0)
(0 0.0565019 0)
(0 0.0355324 0)
(0 0.056515 0)
(0 0.0501652 0)
(0 0.0565191 0)
(0 0.0564255 0)
(0 0.0544286 0)
(0 0.0183986 0)
(0 0.056309 0)
(0 0.0564308 0)
(0 0.0563741 0)
(0 0.0565185 0)
(0 0.0565189 0)
(0 0.0565191 0)
(0 0.0563544 0)
(0 0.056351 0)
(0 0.0282047 0)
(0 0.0565188 0)
(0 0.0565182 0)
(0 0.0501502 0)
(0 0.0565059 0)
(0 0.0400487 0)
(0 0.0564986 0)
(0 0.0514769 0)
(0 0.0133622 0)
(0 0.0541098 0)
(0 0.0565181 0)
(0 0.0540939 0)
(0 0.0565191 0)
(0 0.0565189 0)
(0 0.0564712 0)
(0 0.0565148 0)
(0 0.0522393 0)
(0 0.056515 0)
(0 0.0565144 0)
(0 0.0315152 0)
(0 0.0565101 0)
(0 0.0512669 0)
(0 0.0424629 0)
(0 0.0564297 0)
(0 0.00179847 0)
(0 0.0440234 0)
(0 0.0351287 0)
(0 0.0564986 0)
(0 0.00953037 0)
(0 0.0565192 0)
(0 0.0565172 0)
(0 0.0565191 0)
(0 0.0564938 0)
(0 0.056519 0)
(0 0.0565192 0)
(0 0.056101 0)
(0 0.0402589 0)
(0 0.0564752 0)
(0 0.0545581 0)
(0 0.0557676 0)
(0 0.0304411 0)
(0 0.0565158 0)
(0 0.0565178 0)
(0 0.0565167 0)
(0 0.0553156 0)
(0 0.0564405 0)
(0 0.0551734 0)
(0 0.0547808 0)
(0 0.0563676 0)
(0 0.0540006 0)
(0 0.056503 0)
(0 0.0523588 0)
(0 0.00507646 0)
(0 0.056519 0)
(0 0.056519 0)
(0 0.056519 0)
(0 0.0564643 0)
(0 0.0565191 0)
(0 0.056519 0)
(0 0.056519 0)
(0 0.0565192 0)
(0 0.01467 0)
(0 0.0562947 0)
(0 0.0539564 0)
(0 0.0504515 0)
(0 0.0565058 0)
(0 0.0562681 0)
(0 0.00535971 0)
(0 0.0563278 0)
(0 0.0560697 0)
(0 0.0565191 0)
(0 0.0323657 0)
(0 0.0564487 0)
(0 0.0565189 0)
(0 0.0565092 0)
(0 0.0565191 0)
(0 0.00858335 0)
(0 0.0503379 0)
(0 0.00268559 0)
(0 0.0560746 0)
(0 0.0223546 0)
(0 0.0565172 0)
(0 0.0565156 0)
(0 0.0560343 0)
(0 0.0565187 0)
(0 0.0552979 0)
(0 0.0564532 0)
(0 0.0565189 0)
(0 0.0565146 0)
(0 0.0564685 0)
(0 0.0565048 0)
(0 0.0564523 0)
(0 0.0563195 0)
(0 0.0564742 0)
(0 0.0561125 0)
(0 0.0564805 0)
(0 0.0565152 0)
(0 0.0561838 0)
(0 0.0563989 0)
(0 0.00502216 0)
(0 0.0565075 0)
(0 0.0553832 0)
(0 0.0420432 0)
(0 0.0560412 0)
(0 0.0532883 0)
(0 0.0565191 0)
(0 0.0565172 0)
(0 0.0461354 0)
(0 0.00949559 0)
(0 0.0565169 0)
(0 0.0565192 0)
(0 0.00141557 0)
(0 0.0565191 0)
(0 0.0529653 0)
(0 0.0564854 0)
(0 0.0469513 0)
(0 0.0565192 0)
(0 0.0565087 0)
(0 0.0556752 0)
(0 0.0522526 0)
(0 0.0565189 0)
(0 0.0564908 0)
(0 0.0565192 0)
(0 0.00159924 0)
(0 0.0565192 0)
(0 0.056519 0)
(0 0.0565135 0)
(0 0.0422657 0)
(0 0.0565189 0)
(0 0.0565175 0)
(0 0.0561255 0)
(0 0.0359642 0)
(0 0.0524923 0)
(0 0.0563749 0)
(0 0.0565012 0)
(0 0.00676274 0)
(0 0.0348013 0)
(0 0.0109791 0)
(0 0.0114989 0)
(0 0.0565192 0)
(0 0.0565053 0)
(0 0.056102 0)
(0 0.0564936 0)
(0 0.00349692 0)
(0 0.0221416 0)
(0 0.0564353 0)
(0 0.0565183 0)
(0 0.0558851 0)
(0 0.0487379 0)
(0 0.0426403 0)
(0 0.0402126 0)
(0 0.0565139 0)
(0 0.0565184 0)
(0 0.0158558 0)
(0 0.0401985 0)
(0 0.0565016 0)
(0 0.0560954 0)
(0 0.0558523 0)
(0 0.0501083 0)
(0 0.0541946 0)
(0 0.0555349 0)
(0 0.0563936 0)
(0 0.0565101 0)
(0 0.0564961 0)
(0 0.0564782 0)
(0 0.0564302 0)
(0 0.0565077 0)
(0 0.0563966 0)
(0 0.0414888 0)
(0 0.0565192 0)
(0 0.0397231 0)
(0 0.0547591 0)
(0 0.0543337 0)
(0 0.0565071 0)
(0 0.0564518 0)
(0 0.00691687 0)
(0 0.0565081 0)
(0 0.0564453 0)
(0 0.0565191 0)
(0 0.0564295 0)
(0 0.0562499 0)
(0 0.0561044 0)
(0 0.0197978 0)
(0 0.0565167 0)
(0 0.0565053 0)
(0 0.0565185 0)
(0 0.0520538 0)
(0 0.0556555 0)
(0 0.0564954 0)
(0 0.0565191 0)
(0 0.0565192 0)
(0 0.0563503 0)
(0 0.0564709 0)
(0 0.0552612 0)
(0 0.0546574 0)
(0 0.0503352 0)
(0 0.0564188 0)
(0 0.0564849 0)
(0 0.0508647 0)
(0 0.0562687 0)
(0 0.0565012 0)
(0 0.0565184 0)
(0 0.0565191 0)
(0 0.0547918 0)
(0 0.0564491 0)
(0 0.0565075 0)
(0 0.0558006 0)
(0 0.0528679 0)
(0 0.0565187 0)
(0 0.0565158 0)
(0 0.0565164 0)
(0 0.056492 0)
(0 0.0164084 0)
(0 0.0565192 0)
(0 0.0563684 0)
(0 0.00519457 0)
(0 0.0558292 0)
(0 0.0563838 0)
(0 0.0562143 0)
(0 0.0564252 0)
(0 0.0565181 0)
(0 0.0564707 0)
(0 0.0559963 0)
(0 0.0565167 0)
(0 0.0537293 0)
(0 0.0565192 0)
(0 0.0111522 0)
(0 0.0169465 0)
(0 0.0565123 0)
(0 0.0565161 0)
(0 0.0565162 0)
(0 0.0537306 0)
(0 0.0533049 0)
(0 0.0396882 0)
(0 0.056089 0)
(0 0.0565191 0)
(0 0.0564576 0)
(0 0.0547545 0)
(0 0.0564626 0)
(0 0.0563007 0)
(0 0.0473419 0)
(0 0.0565145 0)
(0 0.0564543 0)
(0 0.0565033 0)
(0 0.0429723 0)
(0 0.0564691 0)
(0 0.0532555 0)
(0 0.0565188 0)
(0 0.0563728 0)
(0 0.0564466 0)
(0 0.055691 0)
(0 0.0127629 0)
(0 0.0408185 0)
(0 0.0506848 0)
(0 0.0564838 0)
(0 0.0558218 0)
(0 0.0564954 0)
(0 0.0565184 0)
(0 0.0563003 0)
(0 0.0196658 0)
(0 0.0564695 0)
(0 0.0565167 0)
(0 0.0565079 0)
(0 0.0485733 0)
(0 0.0557382 0)
(0 0.0345911 0)
(0 0.0554653 0)
(0 0.0549941 0)
(0 0.0565177 0)
(0 0.0129349 0)
(0 0.0565159 0)
(0 0.0554199 0)
(0 0.0564801 0)
(0 0.0564176 0)
(0 0.0565191 0)
(0 0.0564466 0)
(0 0.0522399 0)
(0 0.0565191 0)
(0 0.0565192 0)
(0 0.0501291 0)
(0 0.0542591 0)
(0 0.0565086 0)
(0 0.0564881 0)
(0 0.0564484 0)
(0 0.00202838 0)
(0 0.0523536 0)
(0 0.0565009 0)
(0 0.0545293 0)
(0 0.0563669 0)
(0 0.0563398 0)
(0 0.0413714 0)
(0 0.0562719 0)
(0 0.0565172 0)
(0 0.0483893 0)
(0 0.0529249 0)
(0 0.0115087 0)
(0 0.0565192 0)
(0 0.00653428 0)
(0 0.0552085 0)
(0 0.0565192 0)
(0 0.0545359 0)
(0 0.0565157 0)
(0 0.0554434 0)
(0 0.0562731 0)
(0 0.0120075 0)
(0 0.0563582 0)
(0 0.0367183 0)
(0 0.0563139 0)
(0 0.00846151 0)
(0 0.0564452 0)
(0 0.0528996 0)
(0 0.0565187 0)
(0 0.0565182 0)
(0 0.0565183 0)
(0 0.00273439 0)
(0 0.0167055 0)
(0 0.0563827 0)
(0 0.0562537 0)
(0 0.0565192 0)
(0 0.056518 0)
(0 0.056266 0)
(0 0.0431455 0)
(0 0.0564968 0)
(0 0.0565168 0)
(0 0.0565022 0)
(0 0.0564925 0)
(0 0.0562358 0)
(0 0.0565179 0)
(0 0.056151 0)
(0 0.0560273 0)
(0 0.0564646 0)
(0 0.0565038 0)
(0 0.05625 0)
(0 0.0565179 0)
(0 0.0562446 0)
(0 0.0536665 0)
(0 0.0563953 0)
(0 0.0556808 0)
(0 0.045003 0)
(0 0.0554194 0)
(0 0.0562225 0)
(0 0.0556367 0)
(0 0.0374891 0)
(0 0.00374812 0)
(0 0.0563017 0)
(0 0.0536999 0)
(0 0.0563752 0)
(0 0.0424845 0)
(0 0.0389472 0)
(0 0.005361 0)
(0 0.0541969 0)
(0 0.0311837 0)
(0 0.0553185 0)
(0 0.0120106 0)
(0 0.0565192 0)
(0 0.0563232 0)
(0 0.0565136 0)
(0 0.0219642 0)
(0 0.00769787 0)
(0 0.056398 0)
(0 0.0563331 0)
(0 0.0536985 0)
(0 0.0565145 0)
(0 0.056418 0)
(0 0.056514 0)
(0 0.0554568 0)
(0 0.0564539 0)
(0 0.0521133 0)
(0 0.00576404 0)
(0 0.0104447 0)
(0 0.0540749 0)
(0 0.0565192 0)
(0 0.00664171 0)
(0 0.0565101 0)
(0 0.0554033 0)
(0 0.0565191 0)
(0 0.05638 0)
(0 0.0564227 0)
(0 0.0564772 0)
(0 0.0328267 0)
(0 0.000231037 0)
(0 0.0563343 0)
(0 0.0447043 0)
(0 0.0528944 0)
(0 0.0565134 0)
(0 0.0536691 0)
(0 0.0228404 0)
(0 0.0555105 0)
(0 0.026407 0)
(0 0.00802442 0)
(0 0.0556017 0)
(0 0.0558758 0)
(0 0.0565192 0)
(0 0.056011 0)
(0 0.0484081 0)
(0 0.0053335 0)
(0 0.056519 0)
(0 0.0564868 0)
(0 0.0518057 0)
(0 0.0519014 0)
(0 0.0565139 0)
(0 0.0565081 0)
(0 0.0565192 0)
(0 0.0562332 0)
(0 0.0537284 0)
(0 0.0148127 0)
(0 0.00950335 0)
(0 0.0562006 0)
(0 0.0560443 0)
(0 0.0565001 0)
(0 0.0553689 0)
(0 0.0565191 0)
(0 0.0523036 0)
(0 0.0547446 0)
(0 0.0565192 0)
(0 0.039758 0)
(0 0.0554302 0)
(0 0.0491192 0)
(0 0.00625085 0)
(0 0.0562111 0)
(0 0.0563639 0)
(0 0.0525284 0)
(0 0.056516 0)
(0 0.0565191 0)
(0 0.0564213 0)
(0 0.0419662 0)
(0 0.0356752 0)
(0 0.056456 0)
(0 0.0565095 0)
(0 0.00218988 0)
(0 0.0565062 0)
(0 0.0349165 0)
(0 0.0561903 0)
(0 0.0457385 0)
(0 0.0459391 0)
(0 0.056503 0)
(0 0.0495388 0)
(0 0.0565113 0)
(0 0.0561124 0)
(0 0.00549699 0)
(0 0.0266956 0)
(0 0.0484537 0)
(0 0.0431162 0)
(0 0.0527662 0)
(0 0.0565185 0)
(0 0.0478026 0)
(0 0.0445819 0)
(0 0.056518 0)
(0 0.0565165 0)
(0 0.0560383 0)
(0 0.0562344 0)
(0 0.056355 0)
(0 0.0548654 0)
(0 0.0428623 0)
(0 0.0558279 0)
(0 0.0565191 0)
(0 0.0564508 0)
(0 0.0290239 0)
(0 0.0520078 0)
(0 0.0565179 0)
(0 0.055987 0)
(0 0.0565189 0)
(0 0.00676773 0)
(0 0.0538929 0)
(0 0.0565192 0)
(0 0.0558834 0)
(0 0.0526952 0)
(0 0.0565191 0)
(0 0.0565186 0)
(0 0.0426989 0)
(0 0.0564585 0)
(0 0.0111008 0)
(0 0.0492245 0)
(0 0.0231659 0)
(0 0.0565191 0)
(0 0.0301147 0)
(0 0.048622 0)
(0 0.0428563 0)
(0 0.0565127 0)
(0 0.0544214 0)
(0 0.0564869 0)
(0 0.0564534 0)
(0 0.0460469 0)
(0 0.0561664 0)
(0 0.0151316 0)
(0 0.056519 0)
(0 0.0315246 0)
(0 0.0481129 0)
(0 0.0227023 0)
(0 0.0564599 0)
(0 0.0236881 0)
(0 0.0564726 0)
(0 0.0565191 0)
(0 0.0565164 0)
(0 0.0556764 0)
(0 0.0565047 0)
(0 0.0565191 0)
(0 0.0486144 0)
(0 0.0565192 0)
(0 0.0565168 0)
(0 0.0565191 0)
(0 0.056519 0)
(0 0.0565181 0)
(0 0.056519 0)
(0 0.0564648 0)
(0 0.0525937 0)
(0 0.0565183 0)
(0 0.0558608 0)
(0 0.0565183 0)
(0 0.0417318 0)
(0 0.0469604 0)
(0 0.0519398 0)
(0 0.0161369 0)
(0 0.0550966 0)
(0 0.0560837 0)
(0 0.0565192 0)
(0 0.0465053 0)
(0 0.0386283 0)
(0 0.0565191 0)
(0 0.0565062 0)
(0 0.0483819 0)
(0 0.0562974 0)
(0 0.0556872 0)
(0 0.0513429 0)
(0 0.0565182 0)
(0 0.0563055 0)
(0 0.0548837 0)
(0 0.0543997 0)
(0 0.0565191 0)
(0 0.0565192 0)
(0 0.0565184 0)
(0 0.045359 0)
(0 0.0564896 0)
(0 0.0564399 0)
(0 0.0565191 0)
(0 0.0565175 0)
(0 0.0564109 0)
(0 0.0470288 0)
(0 0.0523234 0)
(0 0.0522709 0)
(0 0.0106282 0)
(0 0.0542747 0)
(0 0.0128679 0)
(0 0.0555092 0)
(0 0.056135 0)
(0 0.0565187 0)
(0 0.0564638 0)
(0 0.0487389 0)
(0 0.056449 0)
(0 0.056519 0)
(0 0.0561775 0)
(0 0.0523165 0)
(0 0.0565192 0)
(0 0.0474891 0)
(0 0.0526418 0)
(0 0.0562955 0)
(0 0.0565185 0)
(0 0.0238467 0)
(0 0.0433149 0)
(0 0.056518 0)
(0 0.0565023 0)
(0 0.0565068 0)
(0 0.056441 0)
(0 0.0565063 0)
(0 0.0422412 0)
(0 0.0564784 0)
(0 0.0525904 0)
(0 0.0324443 0)
(0 0.0526004 0)
(0 0.0565175 0)
(0 0.0565192 0)
(0 0.0448162 0)
(0 0.0277715 0)
(0 0.0495442 0)
(0 0.0565092 0)
(0 0.0540608 0)
(0 0.0556619 0)
(0 0.0439607 0)
(0 0.0529525 0)
(0 0.0564757 0)
(0 0.0464304 0)
(0 0.0563257 0)
(0 0.0565034 0)
(0 0.056519 0)
(0 0.0497486 0)
(0 0.0564456 0)
(0 0.0549036 0)
(0 0.0565191 0)
(0 0.056519 0)
(0 0.0434029 0)
(0 0.0565191 0)
(0 0.0563695 0)
(0 0.0565185 0)
(0 0.0240509 0)
(0 0.0565183 0)
(0 0.0114243 0)
(0 0.0552916 0)
(0 0.0562095 0)
(0 0.0564391 0)
(0 0.0565172 0)
(0 0.0565043 0)
(0 0.0564844 0)
(0 0.0565161 0)
(0 0.0117346 0)
(0 0.0564979 0)
(0 0.0458145 0)
(0 0.055638 0)
(0 0.0565181 0)
(0 0.0507112 0)
(0 0.0100055 0)
(0 0.053558 0)
(0 0.0512764 0)
(0 0.0565187 0)
(0 0.0296274 0)
(0 0.0285764 0)
(0 0.0562843 0)
(0 0.0562304 0)
(0 0.0562325 0)
(0 0.0565163 0)
(0 0.0564635 0)
(0 0.0565192 0)
(0 0.0563223 0)
(0 0.0559525 0)
(0 0.0560009 0)
(0 0.0565191 0)
(0 0.0560575 0)
(0 0.0565155 0)
(0 0.0565182 0)
(0 0.0548588 0)
(0 0.0465988 0)
(0 0.056519 0)
(0 0.0565027 0)
(0 0.0522683 0)
(0 0.0564431 0)
(0 0.0559152 0)
(0 0.0514306 0)
(0 0.0551644 0)
(0 0.0515109 0)
(0 0.0561995 0)
(0 0.000529653 0)
(0 0.056225 0)
(0 0.0564947 0)
(0 0.0352024 0)
(0 0.056325 0)
(0 0.0461125 0)
(0 0.056425 0)
(0 0.00999598 0)
(0 0.0555999 0)
(0 0.0563034 0)
(0 0.0538533 0)
(0 0.0504456 0)
(0 0.0449494 0)
(0 0.0565182 0)
(0 0.0564078 0)
(0 0.0565154 0)
(0 0.0445974 0)
(0 0.0513853 0)
(0 0.0563116 0)
(0 0.0489036 0)
(0 0.0564196 0)
(0 0.0564153 0)
(0 0.0513649 0)
(0 0.0564267 0)
(0 0.045633 0)
(0 0.056515 0)
(0 0.0520052 0)
(0 0.0559722 0)
(0 0.0565192 0)
(0 0.0564967 0)
(0 0.0428734 0)
(0 0.0546614 0)
(0 0.0565191 0)
(0 0.03197 0)
(0 0.0350906 0)
(0 0.056519 0)
(0 0.0565191 0)
(0 0.0550641 0)
(0 0.0564803 0)
(0 0.0184736 0)
(0 0.0503818 0)
(0 0.0565174 0)
(0 0.0538817 0)
(0 0.0330786 0)
(0 0.0565014 0)
(0 0.0463708 0)
(0 0.0565087 0)
(0 0.0158476 0)
(0 0.0322457 0)
(0 0.0519653 0)
(0 0.0564674 0)
(0 0.0565191 0)
(0 0.0509329 0)
(0 0.0524326 0)
(0 0.0417835 0)
(0 0.0554906 0)
(0 0.00559159 0)
(0 0.0565174 0)
(0 0.056309 0)
(0 0.00189759 0)
(0 0.0565155 0)
(0 0.0563744 0)
(0 0.0564999 0)
(0 0.056519 0)
(0 0.0565188 0)
(0 0.0442018 0)
(0 0.0520316 0)
(0 0.0501749 0)
(0 0.0565149 0)
(0 0.0556022 0)
(0 0.0565191 0)
(0 0.0565191 0)
(0 0.0549376 0)
(0 0.0565182 0)
(0 0.056519 0)
(0 0.0562284 0)
(0 0.0564754 0)
(0 0.0564351 0)
(0 0.056515 0)
(0 0.056517 0)
(0 0.0564344 0)
(0 0.0565102 0)
(0 0.056519 0)
(0 0.0563279 0)
(0 0.0553457 0)
(0 0.0565191 0)
(0 0.05643 0)
(0 0.0420707 0)
(0 0.0537889 0)
(0 0.0565163 0)
(0 0.0561987 0)
(0 0.0457365 0)
(0 0.0563713 0)
(0 0.0564298 0)
(0 0.0561369 0)
(0 0.0565191 0)
(0 0.05468 0)
(0 0.0565154 0)
(0 0.0560187 0)
(0 0.0565016 0)
(0 0.0564544 0)
(0 0.0564914 0)
(0 0.0556249 0)
(0 0.0451628 0)
(0 0.0533474 0)
(0 0.056517 0)
(0 0.0379397 0)
(0 0.0550121 0)
(0 0.00617399 0)
(0 0.0542436 0)
(0 0.0470279 0)
(0 0.056224 0)
(0 0.0564773 0)
(0 0.0565186 0)
(0 0.0563688 0)
(0 0.0564424 0)
(0 0.0565164 0)
(0 0.0565088 0)
(0 0.0470596 0)
(0 0.056509 0)
(0 0.0565172 0)
(0 0.0385669 0)
(0 0.0353407 0)
(0 0.0557526 0)
(0 0.0565191 0)
(0 0.00970611 0)
(0 0.0563617 0)
(0 0.0565114 0)
(0 0.0563048 0)
(0 0.0489179 0)
(0 0.0532913 0)
(0 0.0469053 0)
(0 0.0564416 0)
(0 0.0562299 0)
(0 0.012485 0)
(0 0.0565186 0)
(0 0.056518 0)
(0 0.0563136 0)
(0 0.0565074 0)
(0 0.0563384 0)
(0 0.056515 0)
(0 0.0544228 0)
(0 0.0549638 0)
(0 0.0565159 0)
(0 0.056508 0)
(0 0.0564175 0)
(0 0.056518 0)
(0 0.0556326 0)
(0 0.00413211 0)
(0 0.0489356 0)
(0 0.0516309 0)
(0 0.0463049 0)
(0 0.053536 0)
(0 0.0563609 0)
(0 0.0429451 0)
(0 0.0564596 0)
(0 0.0273013 0)
(0 0.0555783 0)
(0 0.0451698 0)
(0 0.0564159 0)
(0 0.0564589 0)
(0 0.0565086 0)
(0 0.0481236 0)
(0 0.0564926 0)
(0 0.0489913 0)
(0 0.0565155 0)
(0 0.0409756 0)
(0 0.0554603 0)
(0 0.0295588 0)
(0 0.0564964 0)
(0 0.0565191 0)
(0 0.0564727 0)
(0 0.043272 0)
(0 0.0564622 0)
(0 0.0500423 0)
(0 0.0557564 0)
(0 0.0565191 0)
(0 0.0488772 0)
(0 0.0525993 0)
(0 0.0562058 0)
(0 0.0558091 0)
(0 0.0565182 0)
(0 0.0433193 0)
(0 0.0559285 0)
(0 0.0531656 0)
(0 0.0365335 0)
(0 0.056127 0)
(0 0.0531146 0)
(0 0.0188484 0)
(0 0.0547731 0)
(0 0.0565192 0)
(0 0.0548299 0)
(0 0.0565023 0)
(0 0.0565162 0)
(0 0.0562593 0)
(0 0.0565191 0)
(0 0.0547353 0)
(0 0.017584 0)
(0 0.0560155 0)
(0 0.0565192 0)
(0 0.0534728 0)
(0 0.0561702 0)
(0 0.0561058 0)
(0 0.0565158 0)
(0 0.0424289 0)
(0 0.0565191 0)
(0 0.0563354 0)
(0 0.0563646 0)
(0 0.0381824 0)
(0 0.0259941 0)
(0 0.0564815 0)
(0 0.0528579 0)
(0 0.00283386 0)
(0 0.0561992 0)
(0 0.0412589 0)
(0 0.0551682 0)
(0 0.0556278 0)
(0 0.0563659 0)
(0 0.0565127 0)
(0 0.0565179 0)
(0 0.0545644 0)
(0 0.0563825 0)
(0 0.0565101 0)
(0 0.0565191 0)
(0 0.0559967 0)
(0 0.0565104 0)
(0 0.0565191 0)
(0 0.0560631 0)
(0 0.0565158 0)
(0 0.0548189 0)
(0 0.0565183 0)
(0 0.0565191 0)
(0 0.0424109 0)
(0 0.00279643 0)
(0 0.0317028 0)
(0 0.05233 0)
(0 0.0562085 0)
(0 0.0454467 0)
(0 0.0548602 0)
(0 0.0564096 0)
(0 0.0538977 0)
(0 0.0561996 0)
(0 0.0565191 0)
(0 0.0560382 0)
(0 0.0543938 0)
(0 0.0565176 0)
(0 0.052718 0)
(0 0.0565192 0)
(0 0.0543587 0)
(0 0.0564204 0)
(0 0.0421421 0)
(0 0.0565192 0)
(0 0.0565191 0)
(0 0.0501892 0)
(0 0.0526372 0)
(0 0.0565178 0)
(0 0.0559948 0)
(0 0.0565191 0)
(0 0.014305 0)
(0 0.0465106 0)
(0 0.0565183 0)
(0 0.0527244 0)
(0 0.0563741 0)
(0 0.056519 0)
(0 0.0395732 0)
(0 0.056281 0)
(0 0.0556995 0)
(0 0.027061 0)
(0 0.0053717 0)
(0 0.0565181 0)
(0 0.0565192 0)
(0 0.0517182 0)
(0 0.0539614 0)
(0 0.0500571 0)
(0 0.0554411 0)
(0 0.0562593 0)
(0 0.0565192 0)
(0 0.0537156 0)
(0 0.0565188 0)
(0 0.0565116 0)
(0 0.0565021 0)
(0 0.0565092 0)
(0 0.0526401 0)
(0 0.0564562 0)
(0 0.0565048 0)
(0 0.0559522 0)
(0 0.0383193 0)
(0 0.0563113 0)
(0 0.0565191 0)
(0 0.0546296 0)
(0 0.0563864 0)
(0 0.0565169 0)
(0 0.0565188 0)
(0 0.0565124 0)
(0 0.0554111 0)
(0 0.052258 0)
(0 0.0109925 0)
(0 0.0398278 0)
(0 0.0565192 0)
(0 0.0562804 0)
(0 0.0541324 0)
(0 0.0528508 0)
(0 0.0546796 0)
(0 0.00499131 0)
(0 0.0484421 0)
(0 0.0446664 0)
(0 0.056374 0)
(0 0.055975 0)
(0 0.0565153 0)
(0 0.0563871 0)
(0 0.056519 0)
(0 0.0565191 0)
(0 0.0559842 0)
(0 0.0562395 0)
(0 0.0229545 0)
(0 0.0557576 0)
(0 0.0565192 0)
(0 0.0515343 0)
(0 0.0545584 0)
(0 0.0562453 0)
(0 0.056452 0)
(0 0.0564292 0)
(0 0.0565171 0)
(0 0.0565023 0)
(0 0.047497 0)
(0 0.0565191 0)
(0 0.0259355 0)
(0 0.0515967 0)
(0 0.0563655 0)
(0 0.0055551 0)
(0 0.0488229 0)
(0 0.0564797 0)
(0 0.0565149 0)
(0 0.0466187 0)
(0 0.0565165 0)
(0 0.0512086 0)
(0 0.0440531 0)
(0 0.0544395 0)
(0 0.0565189 0)
(0 0.0557171 0)
(0 0.0543052 0)
(0 0.0565163 0)
(0 0.0537215 0)
(0 0.0564992 0)
(0 0.0565189 0)
(0 0.0020345 0)
(0 0.0563979 0)
(0 0.0148708 0)
(0 0.0565191 0)
(0 0.05637 0)
(0 0.0451572 0)
(0 0.0565176 0)
(0 0.0562733 0)
(0 0.0564738 0)
(0 0.00382375 0)
(0 0.0565192 0)
(0 0.05594 0)
(0 0.0565141 0)
(0 0.052837 0)
(0 0.0564634 0)
(0 0.0565192 0)
(0 0.0444709 0)
(0 0.0565179 0)
(0 0.0506306 0)
(0 0.0563352 0)
(0 0.0564212 0)
(0 0.00153111 0)
(0 0.056519 0)
(0 0.054678 0)
(0 0.056448 0)
(0 0.0563019 0)
(0 0.0564878 0)
(0 0.0562902 0)
(0 0.0563439 0)
(0 0.0535374 0)
(0 0.0565169 0)
(0 0.056071 0)
(0 0.0565192 0)
(0 0.0560034 0)
(0 0.0563314 0)
(0 0.0493934 0)
(0 0.0561923 0)
(0 0.0486884 0)
(0 0.0563411 0)
(0 0.0565168 0)
(0 0.0537221 0)
(0 0.0427432 0)
(0 0.0565191 0)
(0 0.0531755 0)
(0 0.0565112 0)
(0 0.0525771 0)
(0 0.0565167 0)
(0 0.0565032 0)
(0 0.0560227 0)
(0 0.0379594 0)
(0 0.0376984 0)
(0 0.0330245 0)
(0 0.0160966 0)
(0 0.0564327 0)
(0 0.0564182 0)
(0 0.0563033 0)
(0 0.0552943 0)
(0 0.0180544 0)
(0 0.0565078 0)
(0 0.0540298 0)
(0 0.0559876 0)
(0 0.0565087 0)
(0 0.0477766 0)
(0 0.0565188 0)
(0 0.0562442 0)
(0 0.0555201 0)
(0 0.0565184 0)
(0 0.0565191 0)
(0 0.0565032 0)
(0 0.0565164 0)
(0 0.0565125 0)
(0 0.0426105 0)
(0 0.0565053 0)
(0 0.0565191 0)
(0 0.0565141 0)
(0 0.014388 0)
(0 0.0516934 0)
(0 0.0564528 0)
(0 0.0565178 0)
(0 0.0565192 0)
(0 0.0565068 0)
(0 0.0511013 0)
(0 0.0563995 0)
(0 0.056086 0)
(0 0.056519 0)
(0 0.0565191 0)
(0 0.056108 0)
(0 0.0564607 0)
(0 0.0547896 0)
(0 0.0564121 0)
(0 0.056416 0)
(0 0.0153811 0)
(0 0.0564358 0)
(0 0.0565141 0)
(0 0.0301068 0)
(0 0.0565102 0)
(0 0.00613551 0)
(0 0.0492045 0)
(0 0.0565191 0)
(0 0.0565191 0)
(0 0.0213172 0)
(0 0.0513896 0)
(0 0.0527332 0)
(0 0.0464983 0)
(0 0.0563408 0)
(0 0.0564812 0)
(0 0.0532332 0)
(0 0.0315295 0)
(0 0.0199722 0)
(0 0.0560639 0)
(0 0.0555756 0)
(0 0.055543 0)
(0 0.0565017 0)
(0 0.0451593 0)
(0 0.056519 0)
(0 0.0565191 0)
(0 0.0565187 0)
(0 0.0565019 0)
(0 0.0562658 0)
(0 0.0565063 0)
(0 0.0558632 0)
(0 0.0565182 0)
(0 0.0565083 0)
(0 0.0565125 0)
(0 0.0528345 0)
(0 0.0565176 0)
(0 0.056519 0)
(0 0.0155419 0)
(0 0.0363106 0)
(0 0.0564341 0)
(0 0.0565189 0)
(0 0.0565145 0)
(0 0.0462365 0)
(0 0.0500887 0)
(0 0.056519 0)
(0 0.0565145 0)
(0 0.0565116 0)
(0 0.0546598 0)
(0 0.0549619 0)
(0 0.0565188 0)
(0 0.0518793 0)
(0 0.056519 0)
(0 0.0565186 0)
(0 0.0565073 0)
(0 0.0565114 0)
(0 0.049328 0)
(0 0.0432132 0)
(0 0.0139418 0)
(0 0.0555997 0)
(0 0.0565191 0)
(0 0.0560707 0)
(0 0.0548617 0)
(0 0.0535324 0)
(0 0.0564502 0)
(0 0.0565192 0)
(0 0.0560633 0)
(0 0.0565146 0)
(0 0.0565191 0)
(0 0.0565192 0)
(0 0.0565188 0)
(0 0.0398831 0)
(0 0.0136544 0)
(0 0.0565165 0)
(0 0.0270673 0)
(0 0.0418597 0)
(0 0.0542635 0)
(0 0.0565191 0)
(0 0.0560134 0)
(0 0.0565185 0)
(0 0.0564585 0)
(0 0.0395327 0)
(0 0.0565182 0)
(0 0.0560926 0)
(0 0.0470027 0)
(0 0.0565191 0)
(0 0.0565059 0)
(0 0.0553659 0)
(0 0.0503829 0)
(0 0.0565191 0)
(0 0.0565189 0)
(0 0.0226792 0)
(0 0.0565148 0)
(0 0.0565123 0)
(0 0.0565183 0)
(0 0.0565113 0)
(0 0.0564221 0)
(0 0.0464956 0)
(0 0.0527689 0)
(0 0.0565135 0)
(0 0.0551135 0)
(0 0.0565162 0)
(0 0.0561484 0)
(0 0.0565109 0)
(0 0.0565006 0)
(0 0.0539791 0)
(0 0.0559262 0)
(0 0.047407 0)
(0 0.053747 0)
(0 0.0565188 0)
(0 0.0565192 0)
(0 0.0398306 0)
(0 0.0565191 0)
(0 0.0561276 0)
(0 0.0503054 0)
(0 0.0552821 0)
(0 0.03851 0)
(0 0.0564745 0)
(0 0.0526174 0)
(0 0.056519 0)
(0 0.0564056 0)
(0 0.0463752 0)
(0 0.00696392 0)
(0 0.0564852 0)
(0 0.0565192 0)
(0 0.0560578 0)
(0 0.0547988 0)
(0 0.0561628 0)
(0 0.0483285 0)
(0 0.0537561 0)
(0 0.0553416 0)
(0 0.0565192 0)
(0 0.0565191 0)
(0 0.0565189 0)
(0 0.0250365 0)
(0 0.013006 0)
(0 0.0528044 0)
(0 0.0564577 0)
(0 0.0370461 0)
(0 0.052925 0)
(0 0.0564816 0)
(0 0.0563025 0)
(0 0.0565068 0)
(0 0.0416617 0)
(0 0.0565189 0)
(0 0.0565191 0)
(0 0.000505835 0)
(0 0.0565192 0)
(0 0.0564488 0)
(0 0.0559836 0)
(0 0.0565189 0)
(0 0.0524519 0)
(0 0.0565188 0)
(0 0.0559646 0)
(0 0.0543506 0)
(0 0.0549554 0)
(0 0.0256614 0)
(0 0.0565004 0)
(0 0.00129184 0)
(0 0.052644 0)
(0 0.0560771 0)
(0 0.0565191 0)
(0 0.0565191 0)
(0 0.00710966 0)
(0 0.00330387 0)
(0 0.0542694 0)
(0 0.0497369 0)
(0 0.0564599 0)
(0 0.0528389 0)
(0 0.0564027 0)
(0 0.053974 0)
(0 0.0565191 0)
(0 0.0525704 0)
(0 0.0565184 0)
(0 0.028291 0)
(0 0.0565181 0)
(0 0.0523979 0)
(0 0.0263942 0)
(0 0.0565181 0)
(0 0.0565133 0)
(0 0.0564954 0)
(0 0.0565069 0)
(0 0.0563742 0)
(0 0.0560886 0)
(0 0.0438825 0)
(0 0.0565191 0)
(0 0.0404187 0)
(0 0.0368675 0)
(0 0.0564831 0)
(0 0.0563204 0)
(0 0.0565183 0)
(0 0.0565191 0)
(0 0.0564515 0)
(0 0.0565152 0)
(0 0.0564557 0)
(0 0.0565055 0)
(0 0.0063501 0)
(0 0.0548342 0)
(0 0.0554214 0)
(0 0.056519 0)
(0 0.0553069 0)
(0 0.056519 0)
(0 0.0565192 0)
(0 0.0509116 0)
(0 0.048627 0)
(0 0.049765 0)
(0 0.0565127 0)
(0 0.0565188 0)
(0 0.0538255 0)
(0 0.0282737 0)
(0 0.0554584 0)
(0 0.0555988 0)
(0 0.0560446 0)
(0 0.0564982 0)
(0 0.056504 0)
(0 0.0186389 0)
(0 0.0565159 0)
(0 0.0564078 0)
(0 0.0565192 0)
(0 0.0563744 0)
(0 0.0543012 0)
(0 0.0544683 0)
(0 0.0565183 0)
(0 0.0113234 0)
(0 0.0564141 0)
(0 0.0565173 0)
(0 0.0537549 0)
(0 0.055203 0)
(0 0.0564827 0)
(0 0.0565 0)
(0 0.0539038 0)
(0 0.0565192 0)
(0 0.054688 0)
(0 0.0564986 0)
(0 0.056044 0)
(0 0.0559946 0)
(0 0.0528966 0)
(0 0.0565189 0)
(0 0.0279315 0)
(0 0.0564802 0)
(0 0.0565186 0)
(0 0.0565187 0)
(0 0.0562337 0)
(0 0.0563615 0)
(0 0.0549163 0)
(0 0.0563855 0)
(0 0.00711577 0)
(0 0.0565186 0)
(0 0.0552107 0)
(0 0.0493652 0)
(0 0.0556914 0)
(0 0.0194878 0)
(0 0.00215834 0)
(0 0.0565191 0)
(0 0.0372454 0)
(0 0.00169653 0)
(0 0.0501865 0)
(0 0.0564631 0)
(0 0.0519569 0)
(0 0.055961 0)
(0 0.0563742 0)
(0 0.0564884 0)
(0 0.0564477 0)
(0 0.00980351 0)
(0 0.0565048 0)
(0 0.0565137 0)
(0 0.0564849 0)
(0 0.0564066 0)
(0 0.0557886 0)
(0 0.0564728 0)
(0 0.0565162 0)
(0 0.056507 0)
(0 0.00109756 0)
(0 0.056513 0)
(0 0.056517 0)
(0 0.000972113 0)
(0 0.0545788 0)
(0 0.0226028 0)
(0 0.0565163 0)
(0 0.0564397 0)
(0 0.0500307 0)
(0 0.0565185 0)
(0 0.056519 0)
(0 0.00750244 0)
(0 0.0516591 0)
(0 0.0565175 0)
(0 0.0565191 0)
(0 0.0563319 0)
(0 0.0293585 0)
(0 0.0565137 0)
(0 0.0565189 0)
(0 0.056519 0)
(0 0.0370129 0)
(0 0.056519 0)
(0 0.0563973 0)
(0 0.0564635 0)
(0 0.056519 0)
(0 0.0552045 0)
(0 0.0230084 0)
(0 0.0557144 0)
(0 0.0564802 0)
(0 0.0558095 0)
(0 0.0565176 0)
(0 0.0565188 0)
(0 0.0428011 0)
(0 0.0565151 0)
(0 0.0565132 0)
(0 0.0565191 0)
(0 0.0291523 0)
(0 0.0564164 0)
(0 0.0522511 0)
(0 0.0467073 0)
(0 0.0565188 0)
(0 0.0565091 0)
(0 0.0564957 0)
(0 0.0565106 0)
(0 0.0559023 0)
(0 0.0562398 0)
(0 0.00218978 0)
(0 0.0565188 0)
(0 0.0565192 0)
(0 0.0435682 0)
(0 0.0519755 0)
(0 0.0561269 0)
(0 0.0471307 0)
(0 0.056242 0)
(0 0.0565183 0)
(0 0.0565153 0)
(0 0.056255 0)
(0 0.0525946 0)
(0 0.0506486 0)
(0 0.0565188 0)
(0 0.0553607 0)
(0 0.0562603 0)
(0 0.0416743 0)
(0 0.0541347 0)
(0 0.056509 0)
(0 0.0565096 0)
(0 0.0565036 0)
(0 0.0565185 0)
(0 0.0128931 0)
(0 0.0564965 0)
(0 0.0024024 0)
(0 0.0563891 0)
(0 0.0565157 0)
(0 0.0565191 0)
(0 0.0365389 0)
(0 0.00126482 0)
(0 0.0559211 0)
(0 0.055518 0)
(0 0.0514 0)
(0 0.0565186 0)
(0 0.056519 0)
(0 0.04449 0)
(0 0.00912967 0)
(0 0.0207669 0)
(0 0.0307498 0)
(0 0.0565184 0)
(0 0.0443832 0)
(0 0.0565174 0)
(0 0.0564346 0)
(0 0.0563171 0)
(0 0.046576 0)
(0 0.056294 0)
(0 0.0565188 0)
(0 0.0558879 0)
(0 0.0565123 0)
(0 0.0565185 0)
(0 0.0523725 0)