/*--------------------------------*- C++ -*----------------------------------*\
| =========                 |                                                 |
| \\      /  F ield         | OpenFOAM: The Open Source CFD Toolbox           |
|  \\    /   O peration     | Version:  v2012                                 |
|   \\  /    A nd           | Website:  www.openfoam.com                      |
|    \\/     M anipulation  |                                                 |
\*---------------------------------------------------------------------------*/
FoamFile
{
    version     2.0;
    format      ascii;
    class       surfaceVectorField;
    location    "950";
    object      ddtCorrDdt0(Uf);
}
// * * * * * * * * * * * * * * * * * * * * * * * * * * * * * * * * * * * * * //

dimensions      [0 1 -2 0 0 0 0];


internalField   nonuniform List<vector> 
20673
(
(0.00854091 -0.00139707 -5.58041e-20)
(0.00874743 -0.0017521 5.60324e-18)
(0.00831735 -0.00174703 -8.66052e-18)
(0.00175764 -0.000311162 1.15361e-18)
(0.00173961 -0.000227452 -1.26487e-19)
(0.00180318 -0.000251557 -3.36525e-19)
(0.0515841 -0.0086685 6.73378e-18)
(0.0557498 -0.00730753 -7.3162e-18)
(0.0557574 -0.00689765 -9.92655e-18)
(-0.00108954 0.000553569 -3.67401e-19)
(-0.0011346 0.000402743 7.73891e-19)
(-0.001013 0.000464504 -1.78026e-18)
(5.55874e-05 0.0010098 9.36966e-20)
(5.36536e-05 0.0010214 7.59907e-19)
(6.45457e-05 0.00110497 7.65495e-19)
(-0.000390163 0.00296559 -9.09187e-18)
(-0.000234399 0.00294399 -6.63679e-17)
(-0.000402472 0.00274707 -3.20718e-17)
(0.0387622 -0.0120494 4.20893e-18)
(0.0396361 -0.0118351 -9.02458e-18)
(0.0405872 -0.0112478 -9.34647e-18)
(0.0675366 -0.00542188 3.90736e-18)
(0.0625631 -0.00650007 1.64783e-18)
(0.0662672 -0.00673961 5.21017e-20)
(0.0972251 -0.0308438 3.26941e-18)
(0.0942575 -0.0321057 9.25501e-18)
(0.0892799 -0.0306434 -6.82487e-19)
(0.0129246 -0.000363963 -1.43704e-17)
(0.013542 -0.000431121 -6.12938e-18)
(0.0133408 0.000223582 8.4279e-18)
(-0.0293418 -0.00827171 4.25269e-19)
(-0.0296879 -0.00763323 9.01635e-18)
(-0.0308437 -0.00853346 6.02573e-18)
(-0.017803 0.00548354 -1.4757e-18)
(-0.0187987 0.00547556 5.06062e-18)
(-0.0178251 0.0045582 9.01803e-18)
(-0.00116714 0.000597842 -2.04046e-18)
(0.0355699 -0.00964461 3.88817e-18)
(0.041305 -0.00958163 3.92729e-18)
(0.0350161 -0.00936486 2.88666e-18)
(0.00269686 0.00215415 -2.0843e-18)
(0.0026024 0.00225388 -1.8741e-18)
(0.00257047 0.00213934 -1.31382e-18)
(0.00307905 0.00140021 1.08951e-19)
(0.00295066 0.0014479 1.05755e-19)
(0.00299224 0.00127978 -3.45833e-19)
(0.00193805 0.000138905 3.41748e-19)
(0.0019391 4.3301e-05 1.04794e-18)
(0.00187995 0.000126486 -9.47028e-19)
(0.000506279 -0.014677 3.41369e-18)
(0.00114212 -0.0145568 5.68658e-18)
(0.000857345 -0.0153463 -6.30968e-19)
(-0.0176116 0.00645647 -1.97141e-18)
(-0.0169228 0.00545634 3.95193e-18)
(5.82694e-05 0.000252592 9.39839e-20)
(5.23314e-05 0.000235181 -1.06964e-19)
(4.20197e-05 0.000213289 2.5406e-20)
(-1.46304e-06 -6.39906e-05 -1.28215e-18)
(-6.64846e-07 -6.70966e-05 9.1894e-19)
(-2.0999e-06 -6.51779e-05 7.18577e-19)
(0.0379056 -0.0125985 7.88803e-18)
(0.037981 -0.0129947 5.09487e-20)
(0.00012809 0.000546092 9.10376e-19)
(0.000151149 0.000602733 -1.82772e-19)
(0.000144888 0.000575572 2.05555e-19)
(0.0702656 -0.00435662 1.41719e-17)
(0.0730418 -0.0040389 -6.59699e-18)
(0.000506417 0.00172331 -2.34756e-18)
(0.000502503 0.00174799 -3.70483e-18)
(0.000534262 0.00176814 -1.96306e-18)
(0.0332891 -0.014801 -1.07803e-17)
(0.0341943 -0.0150289 1.09766e-17)
(0.0343788 -0.0148178 -6.30313e-18)
(1.65647e-05 0.00402097 1.01885e-17)
(7.58602e-05 0.0040757 2.66328e-18)
(-0.000137469 0.00404821 3.45187e-17)
(0.000304263 0.00446161 3.33574e-19)
(0.000306526 0.00453918 -5.04571e-18)
(0.000254393 0.00450888 3.9574e-18)
(-0.00524178 0.00790063 7.48923e-19)
(-0.00524479 0.00895209 -1.90657e-18)
(-0.00631713 0.00864907 -1.37522e-18)
(0.0196364 -0.0101309 -5.3025e-17)
(0.0192683 -0.0110284 -6.82678e-18)
(0.0203826 -0.0111293 -2.37582e-17)
(0.00938483 -0.00325352 -8.96785e-18)
(0.00923398 -0.00287758 -1.79263e-18)
(0.00898204 -0.00321279 -1.15854e-17)
(0.00501041 -0.00173522 -3.8291e-18)
(0.00492388 -0.00153561 9.11473e-18)
(0.00479965 -0.00174314 3.73361e-18)
(0.000592662 0.00376422 3.0144e-18)
(0.000592496 0.00383484 -1.85584e-17)
(0.000521151 0.00379595 -2.68604e-17)
(-3.8297e-05 0.00302439 1.31287e-17)
(-9.07966e-05 0.00298588 -2.8211e-18)
(-6.94482e-06 0.00298375 2.86876e-18)
(0.000371658 0.00193774 5.43992e-19)
(0.000403216 0.00199325 -2.47454e-19)
(0.000409755 0.00193611 1.31358e-18)
(0.0150518 0.00309785 -8.08524e-18)
(0.0166027 0.00381297 1.30209e-17)
(0.0368877 0.00535561 1.29801e-17)
(0.000116113 0.000511209 -5.96797e-19)
(0.00011264 0.000493644 7.24969e-19)
(0.0379098 -0.0130262 -1.69187e-17)
(0.0376445 -0.0126786 8.88748e-18)
(0.038111 -0.0127849 -1.70523e-17)
(-0.00180582 0.00122797 2.8615e-18)
(-0.00194188 0.00140002 -1.12404e-17)
(0.073595 -0.00820497 -5.08627e-18)
(0.0728584 -0.00790719 -5.17962e-18)
(0.073936 -0.00880684 3.7499e-18)
(0.000349844 3.35771e-05 6.2247e-19)
(0.000357937 2.76976e-05 -1.91893e-18)
(0.00031991 2.13502e-05 -2.72856e-19)
(-6.03102e-07 -4.79532e-05 -1.88319e-18)
(-3.33851e-07 -2.71192e-05 8.82886e-19)
(4.33254e-08 -2.78052e-05 1.18257e-19)
(-9.42367e-05 -0.000324572 -5.9026e-19)
(-7.17603e-05 -0.000330179 -3.84775e-18)
(-9.11746e-05 -0.000304689 -3.7087e-18)
(-0.000184562 0.00486263 2.65129e-18)
(-0.000149516 0.00503528 1.63959e-17)
(-0.000356403 0.00503156 4.46761e-17)
(0.0007952 -0.00157731 4.14859e-18)
(0.000829618 -0.00163643 -5.63638e-20)
(0.000767371 -0.00164495 3.92378e-18)
(0.000243697 0.00321234 5.03062e-18)
(0.000149655 0.00321415 1.43987e-17)
(0.00020459 0.00315315 -8.83386e-18)
(-0.000351047 -0.0147007 -2.20646e-18)
(0.00032653 -0.0139914 1.31223e-18)
(-0.0081685 -0.0180289 -1.4959e-18)
(-0.00753075 -0.0175024 -4.15532e-18)
(-0.00843884 -0.0172215 -1.76304e-18)
(-0.000376312 0.00191047 -2.42201e-17)
(-0.00040699 0.00187327 6.00155e-17)
(-0.000410935 0.00198069 -1.9886e-17)
(9.4518e-05 4.0819e-05 -1.28862e-19)
(0.000108419 3.82097e-05 -7.45115e-19)
(0.000108479 5.73766e-05 4.44473e-19)
(-0.00126366 -0.00465448 1.40419e-17)
(-0.00114042 -0.00483864 1.03858e-17)
(-0.00140437 -0.00477945 4.69846e-18)
(0.0002844 0.00255276 1.00154e-19)
(0.000243739 0.00256056 -1.75798e-18)
(0.000297505 0.00255543 -2.3312e-18)
(-0.000454188 0.00173679 -8.01339e-17)
(-0.000670989 0.00244497 -6.63687e-17)
(2.38581e-05 0.00304987 2.05038e-18)
(-6.45551e-05 0.00306106 1.54042e-17)
(0.00199676 0.000162053 -8.26373e-19)
(0.00193212 0.000233335 2.34239e-19)
(0.00149998 -0.00515695 -1.66849e-18)
(0.00171011 -0.00507802 6.51452e-18)
(0.00171874 -0.00533625 1.29153e-17)
(-0.0289976 -0.00906715 -5.02009e-18)
(-0.028264 -0.00823682 -8.60158e-18)
(0.00114243 0.00156783 7.69771e-19)
(0.00108965 0.00160618 -1.63247e-18)
(0.00113048 0.00152911 -2.07886e-18)
(0.00202456 -0.00380371 -8.18647e-18)
(0.00213199 -0.00394735 1.19258e-17)
(0.00222235 -0.00376837 2.34886e-18)
(0.000823814 -0.00151484 5.92236e-18)
(0.000770304 -0.00152229 -6.24479e-18)
(-0.105459 0.00409487 -1.39115e-17)
(-0.0952689 0.00530021 -1.03688e-17)
(-0.0990977 0.00591597 -2.56287e-17)
(0.00174353 -0.00040729 1.53414e-18)
(0.0018102 -0.000415631 -1.56989e-18)
(0.0365758 -0.0101313 5.19716e-18)
(6.6544e-05 0.00027023 5.06831e-20)
(7.71033e-05 0.000286698 8.88599e-20)
(-0.000421449 0.00308435 2.08503e-17)
(-0.000315296 0.0031534 5.02667e-18)
(-0.0681786 -0.0270969 1.94201e-17)
(-0.0718072 -0.0295128 -7.53551e-18)
(-0.0793159 -0.0343262 -8.09088e-18)
(-1.66766e-05 0.00109913 -4.73302e-20)
(-1.70835e-05 0.00119094 -1.06326e-18)
(-4.11844e-05 0.00213479 9.87564e-19)
(-4.11276e-05 0.00206506 -8.417e-18)
(-0.0211525 -0.026063 1.71612e-18)
(-0.0217965 -0.0253663 -3.15726e-18)
(-0.0221172 -0.0266493 3.41288e-18)
(0.00687218 0.0005398 -6.70048e-18)
(0.00708445 0.000437082 -3.6952e-18)
(0.00704478 0.00076432 5.21939e-18)
(4.59318e-05 0.000908146 -3.18102e-18)
(6.5888e-05 0.000996818 -4.21179e-18)
(0.100424 -0.0320951 -6.24144e-18)
(0.0994668 -0.0305005 5.77042e-18)
(-0.0264603 -0.0215382 -5.771e-18)
(-0.0234169 -0.0238642 -3.25854e-18)
(-0.0266324 -0.0236763 -1.6594e-17)
(0.000504955 0.00167652 2.00261e-18)
(0.000464241 0.00166923 8.90883e-19)
(-0.000440437 0.00187601 3.77763e-17)
(-0.000617776 0.00171955 9.10208e-18)
(-0.000442946 0.0016754 -1.56742e-17)
(-0.0205212 0.0150647 -9.28674e-18)
(-0.0191032 0.0152035 1.16316e-17)
(-0.019459 0.0138367 1.75905e-17)
(0.00449183 -0.0137399 -6.19008e-19)
(0.00498346 -0.01562 1.755e-17)
(0.00627158 -0.0143069 -1.32615e-17)
(0.000682359 -0.00244802 5.50427e-18)
(0.000701649 -0.00252977 1.87471e-18)
(0.000789783 -0.00247877 1.12021e-17)
(0.0359375 -0.0146148 -2.17323e-18)
(0.0356095 -0.0147151 1.34053e-17)
(0.0328076 -0.0148118 -8.81773e-19)
(-8.69548e-07 -4.99223e-05 -7.1776e-19)
(2.33113e-06 -2.96788e-05 8.75259e-19)
(1.13068e-06 -3.37327e-05 -5.1059e-19)
(1.19566e-06 1.21929e-05 -9.40909e-19)
(-2.669e-07 4.44704e-05 -7.45175e-19)
(-6.46512e-07 5.39851e-06 5.64753e-19)
(-9.09172e-06 0.00100621 2.29505e-18)
(-0.000589043 0.00306539 -2.47381e-17)
(-0.000768715 0.00310241 -4.84463e-17)
(-0.000643712 0.00322202 -3.35941e-17)
(0.0385484 -0.0133553 -6.42739e-18)
(0.0380432 -0.0133871 -5.60317e-18)
(-0.0208112 0.000580828 5.9133e-17)
(-0.0175328 9.50427e-05 8.09325e-18)
(-0.0191907 0.000764252 5.34786e-18)
(0.000661051 -0.00235511 -2.53393e-18)
(0.000577621 -0.00240487 -4.19392e-18)
(1.47576e-05 0.000136381 4.13642e-19)
(1.12015e-05 0.000130257 -4.43871e-19)
(6.89871e-06 9.04855e-05 4.05903e-19)
(-0.0586881 -0.028252 3.25307e-17)
(-0.0250815 -0.00757569 1.09886e-17)
(-0.00137289 -0.00441547 -6.74075e-18)
(-0.00110298 -0.004476 5.35097e-18)
(-0.0001128 -0.000322655 -3.80571e-18)
(-9.23452e-05 -0.000347508 1.77025e-18)
(0.00810168 -0.0223663 2.8902e-18)
(0.00504379 -0.0207632 -3.87988e-18)
(0.00792097 -0.0209997 1.37149e-17)
(0.018062 -0.00364753 -7.19236e-18)
(0.0171734 -0.00326618 -1.02577e-17)
(0.0177284 -0.00262693 9.64801e-18)
(0.00101337 -0.000589727 2.21067e-18)
(0.00097434 -0.000631914 -2.34358e-18)
(0.000977074 -0.000560723 7.4764e-20)
(0.00160157 0.00192706 4.34263e-18)
(0.00161719 0.0019782 -9.69894e-19)
(0.00167584 0.00190164 2.38632e-18)
(-0.0297625 -0.0150696 -9.63514e-19)
(-0.0802843 -0.0346578 5.72213e-17)
(-0.000129551 0.00301168 -3.10429e-17)
(-0.000119705 0.00312111 3.81186e-17)
(-3.2464e-05 0.00305241 2.05709e-17)
(-0.0227545 -0.0147599 -3.87334e-18)
(-0.0225371 -0.0155462 1.19602e-17)
(-0.0234667 -0.0151686 -8.76992e-18)
(-0.00546167 -0.0167501 -2.0572e-17)
(-0.00518786 -0.017518 -1.0561e-17)
(-0.0046386 -0.0169463 -1.65495e-18)
(-0.0328986 0.00945627 3.2955e-18)
(-0.0349186 0.00890979 5.99386e-18)
(-0.0342444 0.0105215 6.71339e-18)
(-0.000660881 0.00398883 -5.86067e-18)
(-0.000498317 0.0040962 -5.57724e-18)
(-0.000666503 0.0041807 2.06518e-17)
(0.000430749 3.95434e-05 6.97369e-19)
(0.000430198 1.39343e-05 -1.79517e-18)
(0.000439619 3.10793e-05 -2.56877e-18)
(-0.000131133 0.0036194 -1.73935e-17)
(-5.51026e-05 0.00358974 1.43675e-17)
(-0.000123022 0.0035438 -7.27951e-18)
(-0.000359242 0.00475032 -2.13785e-17)
(-0.000133622 0.00470311 -2.24153e-17)
(8.65685e-05 -0.00272565 2.61913e-18)
(9.44145e-06 -0.00280236 1.22973e-18)
(-2.80983e-05 -0.00266018 5.32934e-20)
(0.000611649 -0.000222528 -1.01227e-20)
(0.000593323 -0.000229888 1.69616e-19)
(0.000604198 -0.000266792 -7.44764e-21)
(0.0944963 -0.0401959 3.17781e-18)
(0.0927791 -0.0415469 4.98253e-18)
(0.0921278 -0.0427417 2.32541e-17)
(-0.00231751 0.0100001 -1.48909e-18)
(-0.00314506 0.00982449 4.44168e-18)
(-0.00266919 0.0107359 1.96012e-18)
(-0.00873245 -0.0184572 1.94381e-18)
(-0.00784785 -0.018796 1.40077e-17)
(0.00193939 -6.01943e-05 1.23278e-18)
(0.0020024 -4.79437e-05 1.84549e-18)
(0.00983926 -0.00212997 7.51782e-18)
(0.00962547 -0.00172292 1.51991e-18)
(0.0101839 -0.00171651 -1.95357e-17)
(-0.0741973 -0.00312308 1.23665e-17)
(-0.0798396 -0.00353855 2.45126e-17)
(-0.0780284 -0.00366971 1.10487e-17)
(0.0725054 -0.00837463 1.45898e-17)
(0.0737262 -0.00867817 3.06848e-18)
(-0.0231895 0.00577761 2.27187e-18)
(-0.0233687 0.00662173 -1.0317e-17)
(-0.0241299 0.00574598 -4.49971e-18)
(0.0955321 -0.0384046 -3.96041e-18)
(0.0896147 -0.0380294 -3.70083e-18)
(0.000192313 0.00263252 4.70457e-18)
(0.000238043 0.0026384 2.71741e-18)
(0.000169416 0.00265135 -4.7187e-18)
(0.000975882 0.00145828 1.54612e-16)
(3.92795e-05 0.00180449 1.21106e-16)
(-4.64365e-05 0.00147514 5.90384e-17)
(0.000443576 0.00117293 -7.76061e-19)
(0.000482067 0.00121597 -6.64542e-19)
(0.000456872 0.00122241 -7.44683e-19)
(-0.000300915 0.00213171 4.17856e-17)
(-0.000141991 0.00224092 4.52556e-18)
(-0.000298255 0.00233602 -2.50638e-18)
(0.0587666 -0.00982108 -3.36482e-18)
(0.0594036 -0.0105473 2.45934e-18)
(0.056411 -0.0108847 1.02137e-17)
(0.000198529 0.00302499 3.09224e-18)
(0.00025324 0.00305469 -4.26462e-18)
(0.000278295 0.00300284 -8.91419e-18)
(-3.33309e-06 -6.12152e-05 -7.56519e-20)
(-2.25481e-06 -6.37072e-05 -8.43713e-19)
(-0.0205022 -0.0270182 4.93942e-19)
(-0.0202958 -0.0257465 9.64269e-18)
(0.0528854 -0.010376 3.89803e-18)
(0.0509624 -0.0108662 -4.34784e-20)
(0.0507277 -0.0108578 -4.72462e-19)
(0.0003085 0.00435691 -2.61758e-18)
(0.000401473 0.0044084 -2.04086e-18)
(0.000184361 3.63759e-05 3.9887e-19)
(0.000200092 5.52196e-05 -2.06562e-18)
(0.000202013 3.55465e-05 -4.15597e-19)
(0.0015249 0.00194128 -6.03923e-19)
(0.00159319 0.00186165 3.74586e-18)
(0.00103722 -0.00134053 9.36202e-19)
(0.00107661 -0.00138686 1.19969e-18)
(0.00109605 -0.00131332 4.60774e-18)
(0.000168416 3.63036e-05 9.34023e-19)
(0.000143752 1.66535e-05 2.42597e-18)
(1.36937e-05 -0.000198962 -6.54098e-19)
(-1.74869e-05 -0.000192794 -1.23595e-19)
(-5.52488e-06 -0.000172193 -4.17899e-18)
(-6.08301e-05 0.00298758 -1.64796e-17)
(0.0445483 -0.0125735 2.64835e-18)
(0.0449128 -0.0125046 2.48415e-18)
(0.0467461 -0.0123142 1.50193e-17)
(0.000132683 0.00264901 -5.18479e-18)
(0.000189842 0.00262401 -2.85514e-18)
(0.000862246 -0.00168218 1.89738e-18)
(0.000889664 -0.00161342 -5.15986e-18)
(-1.64595e-06 -6.41512e-05 -1.66917e-18)
(-1.35689e-06 -4.99354e-05 -1.48635e-18)
(0.0402141 -0.0526811 -5.27119e-18)
(0.0354826 -0.0512149 1.02335e-17)
(0.0384147 -0.0565839 2.15724e-19)
(0.0733633 -0.00324071 -6.01157e-18)
(0.0673902 -0.00502609 4.77311e-18)
(0.00874922 -0.00107223 1.19806e-17)
(0.00832222 -0.00110265 -3.66303e-18)
(-0.000712569 0.00386428 -2.23186e-17)
(-0.000590778 0.00391469 -1.74088e-18)
(-1.06405e-05 0.00119412 1.36401e-18)
(-1.79036e-05 0.0012775 8.6892e-19)
(0.000109001 0.00303866 -9.63176e-19)
(0.000141506 0.00299798 1.02001e-17)
(-0.0365202 -0.00569592 4.14807e-18)
(-0.0350873 -0.00610076 -9.32958e-19)
(-0.0423893 -0.00823176 -3.47403e-18)
(0.000444156 -0.000811983 -4.98358e-18)
(0.000477156 -0.000812048 1.47309e-20)
(0.000465494 -0.000772368 -2.0969e-18)
(0.00061876 0.0024636 -4.39773e-18)
(0.000636578 0.00247655 -1.27286e-17)
(0.000568756 0.0024926 -9.67841e-18)
(-0.000537655 0.00476078 1.21016e-18)
(-0.000739792 0.00463506 3.15828e-20)
(-0.000675065 0.00486673 -5.03572e-18)
(-2.2934e-05 0.00214269 4.08721e-18)
(-4.60711e-05 0.00218464 1.73125e-18)
(0.0935922 -0.0325742 3.36745e-18)
(0.098066 -0.0323707 1.4814e-17)
(0.0922594 -0.0354252 -3.89603e-18)
(-0.00587956 0.0104468 -1.12481e-18)
(-0.00522136 0.0105559 4.98109e-18)
(-0.00533859 0.00964181 1.38299e-18)
(0.000333031 0.00253457 2.44361e-19)
(0.000270479 0.00254878 1.15847e-18)
(0.000364685 -0.000730852 4.22687e-18)
(0.000395195 -0.000734499 -1.89619e-18)
(0.000385183 -0.000696373 -1.04651e-18)
(0.00515521 -0.00111672 -1.36519e-17)
(0.00504162 -0.000926797 -5.16788e-18)
(0.00528957 -0.000901294 -1.41264e-17)
(-0.0119184 -0.00918465 -3.11174e-18)
(-0.0124421 -0.00966183 -3.01976e-17)
(-0.0114974 -0.00970042 6.94458e-18)
(0.000839791 0.00162319 -7.70954e-18)
(0.00118959 0.00172694 3.48066e-17)
(-0.021244 -0.00575073 5.50392e-18)
(-0.0213707 -0.00624895 7.66524e-18)
(-0.0217954 -0.00576541 -1.23573e-17)
(0.00593483 0.00350803 7.38337e-19)
(0.0059607 0.003253 -2.21766e-18)
(0.00625656 0.00332496 3.2193e-18)
(0.00383046 -0.00397146 4.68303e-18)
(0.00391671 -0.00374074 -1.09995e-18)
(0.00367188 -0.00376895 2.13481e-17)
(-0.02532 -0.0194282 2.07098e-17)
(-0.0277382 -0.0163442 -1.25386e-17)
(-0.0208018 -0.0159638 -2.42352e-17)
(0.00658935 0.000744303 1.26081e-18)
(0.00659656 0.000338143 2.46868e-18)
(0.0150296 -0.010964 -5.88403e-18)
(-0.0251675 -0.0193725 5.99341e-18)
(-0.0289901 -0.0188182 1.86898e-18)
(0.00378302 -0.0117214 -1.01579e-18)
(0.00223746 -0.0135266 -6.3467e-18)
(0.0407552 -0.0498715 -2.57546e-18)
(0.0451914 -0.0539304 -1.50256e-17)
(0.00102346 0.00261889 6.92563e-18)
(0.00104277 0.00266467 -2.51299e-18)
(0.000962249 0.00266595 -7.91229e-18)
(-0.000308259 0.00391212 2.35362e-18)
(-0.000260775 0.00394137 2.69992e-17)
(-0.000318228 0.00397465 1.46056e-17)
(-6.81358e-07 -3.88468e-05 1.08158e-19)
(-1.23804e-06 -4.02689e-05 -1.16267e-18)
(-2.79721e-07 -5.59511e-05 -1.56797e-18)
(-0.0227311 -0.01361 1.37478e-17)
(-0.0217815 -0.014473 6.77996e-18)
(-0.0229307 0.00470591 -2.21769e-17)
(-0.0221349 0.00559699 1.01277e-17)
(-0.031591 0.00979193 -1.71278e-17)
(-0.0320169 0.00851806 1.0683e-17)
(0.000200087 -0.00277176 -4.3551e-19)
(0.000149129 -0.00263953 -3.06658e-18)
(-0.00919922 -0.0133678 -2.23926e-18)
(-0.00976565 -0.0130128 7.12475e-18)
(-0.00988335 -0.0138319 1.79229e-17)
(0.00070232 -0.00122465 2.1345e-18)
(0.000725316 -0.00126694 2.48561e-18)
(0.000753987 -0.00120529 -3.1735e-18)
(-0.000191333 0.00363628 1.33626e-17)
(-0.00012485 0.00367764 -9.75184e-18)
(0.00698895 0.00285032 -2.63598e-18)
(0.00665442 0.00293447 -1.82514e-18)
(0.00679702 0.0025753 -2.87336e-18)
(-0.0767743 -0.00226753 -4.70881e-17)
(-0.0807465 -0.00381088 9.79234e-18)
(-0.0764942 -0.00201283 -2.70587e-17)
(-0.0247613 0.00913451 -5.68261e-18)
(-0.0257629 0.0088092 2.63247e-18)
(-0.0248414 0.00799249 -2.0751e-18)
(0.00222962 0.000228732 -6.45259e-19)
(0.00230035 0.000242315 6.2006e-19)
(0.00223492 0.000334404 -1.06974e-18)
(0.0941631 -0.0200723 -5.13208e-18)
(0.0937091 -0.0221948 2.60459e-18)
(0.0837543 -0.0226629 7.90414e-18)
(0.00576263 0.00428947 1.03844e-18)
(0.00568943 0.0045408 -2.97225e-19)
(0.00602506 0.00445267 -6.19003e-19)
(0.0444067 -0.0127671 -4.36113e-18)
(0.0426497 -0.0129415 -6.43705e-18)
(-0.000544558 0.0018423 -4.79696e-18)
(-0.000476091 0.00208088 -2.00822e-17)
(0.0941703 -0.0306672 -1.25222e-17)
(0.085759 -0.0339156 -4.78554e-18)
(0.00115665 0.000343741 -3.25077e-19)
(0.00118158 0.000293255 -1.00177e-19)
(0.00118541 0.000367709 -4.22639e-19)
(0.0189524 -0.00393325 -2.98119e-17)
(0.0182964 -0.00455673 -1.60883e-17)
(0.00994379 -0.00341081 6.07404e-19)
(0.00951606 -0.00376643 1.41473e-17)
(0.00041968 -0.000850866 -1.55548e-18)
(0.00041231 -0.000810029 -2.02226e-18)
(2.02336e-05 0.000150693 2.53387e-19)
(2.75008e-05 0.00018287 9.47344e-19)
(0.00237566 0.00321338 5.80656e-18)
(0.00223759 0.00322169 4.05665e-18)
(0.00233213 0.0031074 2.04445e-18)
(0.0323431 -0.0143422 8.12063e-19)
(0.0329893 -0.0141222 5.61961e-18)
(0.0327904 -9.63437e-05 2.15944e-17)
(0.0349515 -0.000121889 1.42999e-18)
(0.0346747 0.00170871 3.91638e-17)
(-0.0262762 -0.018168 -1.23098e-17)
(-0.029439 -0.0202401 -6.58313e-18)
(0.00287429 -0.00895294 1.12944e-17)
(0.00321699 -0.00876863 1.24442e-17)
(0.00322159 -0.00919697 1.94867e-17)
(-0.0294325 0.00247279 -8.42618e-18)
(-0.0295646 0.00312388 -2.85214e-17)
(-0.0299949 0.00232547 -2.09343e-17)
(-0.052098 -0.0143655 -7.34014e-18)
(-0.0654222 -0.0139569 -1.37589e-18)
(-0.0648089 -0.0166268 4.88893e-18)
(-0.0277874 0.00193367 -2.0837e-18)
(-0.0240881 0.0015013 4.65765e-17)
(0.0275732 0.00824107 3.27941e-17)
(0.0283634 0.00713526 2.03741e-18)
(0.0293067 0.00855409 3.51472e-17)
(0.000150527 0.000719194 -9.94554e-19)
(0.000127488 0.000649849 9.41871e-20)
(0.000125462 0.000667775 2.79142e-19)
(-0.000253559 0.00388902 -1.38616e-17)
(-0.000405019 0.00394812 -2.39447e-18)
(-0.00038209 0.00384542 1.91606e-17)
(5.25753e-06 0.00392063 -2.45272e-17)
(0.000107182 0.00396241 -6.33415e-18)
(0.000300792 -1.59443e-06 1.43006e-18)
(0.000302361 4.86304e-08 1.16234e-18)
(0.00105123 -0.000553042 1.65994e-19)
(0.00104521 -0.000638901 1.14017e-18)
(-0.000985772 0.0105369 -8.74951e-19)
(-0.000480915 0.0100461 -2.65323e-18)
(-7.3367e-05 0.0106824 -5.85373e-19)
(-0.00597011 0.0172447 2.0246e-17)
(-0.0112499 0.00884772 -1.75008e-17)
(-0.0511389 -0.011822 -4.30267e-17)
(-0.00283476 -0.00194055 2.63197e-19)
(-0.00304849 -0.00193326 1.59865e-18)
(-0.00292862 -0.00217942 2.57959e-19)
(8.25752e-05 4.6903e-05 3.5774e-20)
(8.61674e-05 2.86102e-05 2.38677e-19)
(-0.0101982 -0.0110738 -9.17434e-19)
(-0.00957089 -0.0107239 5.08416e-18)
(-0.00968652 -0.0115618 -7.3762e-18)
(-0.0124268 -0.00854965 2.77241e-17)
(-0.0114588 -0.00863427 1.80993e-17)
(-0.0258297 -0.0193943 -5.39994e-19)
(-0.0289161 -0.0194407 -4.14081e-19)
(-0.00103835 -0.0560052 -4.7506e-18)
(-0.0027696 -0.0549544 1.34634e-18)
(-0.000698979 -0.0536895 -6.73072e-18)
(0.000356411 0.00188967 -9.1656e-19)
(0.000346983 0.00193081 1.10536e-18)
(0.00114095 0.00161603 1.22592e-18)
(0.00118488 0.00154426 1.53068e-18)
(-0.00566969 -0.0160224 -3.32914e-18)
(-0.00628782 -0.0165154 1.05057e-17)
(0.0387544 -0.0119052 -6.86124e-18)
(0.0402407 -0.0108315 1.30591e-18)
(0.0411112 -0.0106479 -5.06772e-19)
(0.000601052 0.00245405 1.18126e-17)
(0.00066922 0.00243385 1.53032e-17)
(0.0401796 -0.0116445 -6.73223e-18)
(0.0408737 -0.0114651 4.94686e-18)
(0.0424569 -0.0106484 9.75551e-18)
(-0.0318893 -0.0151574 -5.57945e-18)
(-0.0304816 -0.0171043 -9.81536e-18)
(-0.0290436 -0.0152887 6.95672e-18)
(-0.0285707 0.00233898 2.28203e-17)
(-0.0291819 0.00152554 2.18279e-17)
(0.000597052 -0.000175705 -3.15736e-18)
(0.000628797 -0.000192554 -7.47566e-20)
(-0.00298807 0.00372464 -7.57648e-18)
(-0.00339685 0.00396314 2.40054e-17)
(-0.00336164 0.00334666 -1.75658e-17)
(-0.00619894 -0.013837 -5.84128e-18)
(-0.00603256 -0.0145667 1.83955e-18)
(-0.00550019 -0.014093 -9.89616e-18)
(-0.0988752 -0.00888983 2.8572e-17)
(-0.0938764 -0.00958538 -2.67363e-18)
(-0.0964598 -0.00929533 1.83488e-17)
(0.000709941 0.00123597 3.32574e-19)
(0.000731879 0.0012057 1.24072e-19)
(0.000736648 0.00124763 -6.68628e-19)
(-0.114408 0.00138919 2.48401e-17)
(-0.112785 0.00257576 5.1059e-18)
(0.0011201 0.000413938 2.40327e-19)
(0.00111872 0.000333289 8.70666e-19)
(0.0168444 -0.0151328 -9.1281e-18)
(0.0158144 -0.015224 5.67012e-18)
(0.0162312 -0.0143544 8.2859e-18)
(0.000346676 4.50266e-05 1.46916e-18)
(0.00033875 3.60895e-05 6.68129e-20)
(0.0346001 -0.0142288 6.87604e-18)
(0.0337067 -0.0138082 -6.67174e-18)
(0.0347511 -0.0138766 -1.49526e-18)
(0.0908274 -0.0428553 -7.94341e-18)
(0.088877 -0.0438788 -7.10772e-18)
(0.0886603 -0.0457407 -1.58515e-17)
(0.00316261 0.00148894 3.38075e-19)
(0.00320919 0.00132134 -1.16581e-20)
(0.0149769 0.0218815 4.30676e-17)
(0.00807011 0.01944 9.4703e-18)
(0.0188359 0.0209811 7.05446e-18)
(0.00395345 -0.00416608 1.61254e-18)
(0.00369148 -0.00416574 -7.27481e-18)
(0.000608996 -0.000119004 8.4099e-19)
(0.000590242 -0.000126934 -1.41027e-18)
(-0.010603 -0.000415158 -1.68699e-17)
(0.02155 0.00303567 -7.10639e-18)
(-0.024597 0.0102931 -4.86856e-18)
(-0.0237204 0.00945376 -1.20914e-17)
(0.00256955 -0.00870127 9.47537e-18)
(0.00251925 -0.00913056 6.91709e-18)
(0.066153 -0.00388668 8.16464e-20)
(0.0607064 -0.00578446 -4.53544e-18)
(0.0658538 -0.00344567 1.73318e-18)
(-0.0345376 -0.0137205 -8.63889e-18)
(-0.0340608 -0.0128418 9.444e-18)
(0.000366305 -3.92567e-05 -3.2273e-18)
(0.000355662 -5.66773e-05 1.50063e-18)
(0.000353774 -3.83822e-05 -1.73111e-18)
(0.00507777 -0.0019496 -4.36329e-18)
(0.00524137 -0.00172766 1.02092e-17)
(0.00925972 -0.0243519 8.07621e-18)
(0.0123127 -0.0242077 3.22797e-18)
(-0.0108246 -0.00672246 9.88942e-18)
(-0.0104978 -0.00674635 -1.67429e-17)
(-0.0107985 -0.00735735 2.44721e-18)
(-1.28485e-06 -3.71337e-05 1.38974e-18)
(9.83086e-07 -1.07727e-05 2.16319e-19)
(0.000373642 0.000518079 -2.93595e-20)
(0.000401417 0.000511621 -1.67976e-18)
(0.000399907 0.00054062 -6.7881e-19)
(0.0719837 -0.00740238 1.66592e-18)
(0.070625 -0.00718251 -3.75217e-18)
(-0.0231108 -0.0180687 1.12312e-17)
(-0.0233908 -0.0171874 3.3465e-18)
(-0.0239056 -0.0178876 -1.44079e-17)
(-3.54774e-06 -7.07131e-06 -1.26813e-19)
(-1.70926e-06 -6.105e-06 -1.89713e-19)
(-3.39245e-06 -9.04484e-06 1.94754e-19)
(-0.0328418 -0.00430959 1.88532e-18)
(-0.0322615 -0.00389942 3.76802e-18)
(-0.0427793 -0.00540486 -4.25274e-18)
(0.00412499 -0.0248241 1.47714e-17)
(0.00305468 -0.0250948 -8.32401e-18)
(0.00330341 -0.0238266 7.67003e-18)
(-0.000303752 0.00385904 -3.04399e-17)
(-0.000339616 0.00389382 -3.8322e-17)
(0.00759652 -0.00242291 3.2077e-18)
(0.00792447 -0.00235426 9.89788e-18)
(0.00771031 -0.0027012 -5.31755e-18)
(-3.01405e-07 -1.62963e-05 -4.45765e-20)
(-3.4849e-06 -4.37262e-05 2.26804e-19)
(0.00462142 0.00495309 -3.83969e-18)
(0.00460101 0.00462273 -2.70405e-18)
(0.00431414 0.00483057 4.68555e-19)
(-0.0178347 -0.0142541 -5.55544e-18)
(-0.015584 -0.0144558 1.22166e-18)
(-0.0165384 -0.0120313 4.27645e-18)
(-0.00033136 -0.000771562 -1.63997e-18)
(-0.000356063 -0.000727281 1.95615e-19)
(-0.000358588 -0.000785827 -3.37166e-18)
(0.021552 -0.00127408 -1.0738e-17)
(0.0205432 -0.000813562 -2.75232e-17)
(0.0207397 -0.00208441 -6.58972e-18)
(-0.000834474 0.00392129 2.69447e-17)
(-0.000989316 0.00411902 -2.52773e-18)
(-0.00112069 0.00391255 4.35409e-17)
(0.000996624 -0.00129681 -1.31469e-18)
(0.000975814 -0.00136301 -6.50298e-19)
(0.00104447 0.00163832 3.00186e-19)
(0.00104866 0.00167705 -2.06823e-18)
(-0.017768 -0.00397242 -7.25516e-18)
(-0.0184625 -0.00447348 -3.334e-18)
(-0.0185318 -0.00356759 1.75726e-18)
(0.0685141 -0.00792247 1.05144e-17)
(0.0702257 -0.00806438 -9.31577e-18)
(0.07037 -0.00826879 -6.34233e-18)
(-0.0208289 -0.00495526 -6.1998e-18)
(-0.0202229 -0.00587233 1.08849e-17)
(0.0025018 0.00320252 3.59768e-19)
(0.00238704 0.00333762 4.50536e-18)
(0.00277533 0.00202787 -2.85069e-18)
(0.00282255 0.00215528 1.58344e-18)
(-3.10946e-06 -1.58714e-05 -9.58328e-20)
(-3.09434e-06 -1.3821e-05 -1.25915e-19)
(-1.29341e-06 -1.05052e-05 -1.14795e-20)
(0.054287 -0.00981372 8.18683e-19)
(0.0547054 -0.00989444 9.82777e-19)
(0.0220142 -0.0610733 1.1291e-18)
(0.0242206 -0.0655495 -1.92325e-18)
(0.0192046 -0.0631846 1.18301e-17)
(0.0156509 0.00629384 -5.98035e-18)
(0.0209076 0.00536942 -2.61615e-17)
(0.0276406 0.00487631 -1.17865e-17)
(0.000617395 -7.09514e-05 1.71078e-18)
(0.000629679 -0.000118639 2.80286e-18)
(-0.060747 -0.0200478 -2.81806e-17)
(-0.0567296 -0.022754 2.53306e-17)
(-0.060531 -0.021502 -2.59584e-17)
(0.0372497 -0.0104647 3.28197e-18)
(0.0380319 -0.0104067 -9.93186e-18)
(0.0383769 -0.00982884 -8.95685e-18)
(0.059048 -0.00501706 3.94358e-18)
(0.0523066 -0.00393731 4.10291e-18)
(0.0366693 -0.0142167 -1.02436e-17)
(0.0391757 -0.0140968 -1.37035e-18)
(-0.021785 0.0144908 -1.13125e-17)
(-0.0215871 0.0159738 6.03143e-18)
(4.6828e-06 1.74865e-05 1.09152e-18)
(0.000258378 4.24121e-05 3.75608e-19)
(0.000244618 4.72555e-05 4.60799e-19)
(0.00026593 6.19403e-05 2.10602e-19)
(-0.000773894 -0.0149176 -5.75694e-18)
(-0.00115843 -0.0143866 9.18461e-18)
(-0.00141924 -0.0149941 1.20067e-17)
(0.0277536 -0.0150585 -2.55181e-17)
(0.0277293 -0.0141402 8.13227e-18)
(0.0265748 -0.0144045 -1.029e-17)
(-0.0104388 -0.0265984 9.81814e-18)
(-0.00948207 -0.0271543 3.99221e-18)
(-0.0108209 -0.0278095 -9.44644e-18)
(0.00192634 -0.003634 3.51657e-18)
(0.00182611 -0.00379422 -5.31778e-18)
(0.000478645 -0.056854 4.42795e-19)
(-0.00439341 -0.0591151 8.0629e-18)
(-0.00804831 0.00769113 9.73341e-18)
(-0.0074453 0.00748867 1.19205e-17)
(-3.38258e-05 -0.000121697 1.03812e-18)
(-2.15284e-05 -0.00014546 -1.96981e-18)
(-5.03251e-05 -0.000140118 2.04051e-18)
(-0.0380614 -0.0168653 -1.98523e-18)
(-0.037779 -0.0193868 -4.10971e-17)
(-0.0508324 -0.0183568 2.95254e-17)
(7.31492e-05 0.000257867 -7.81548e-20)
(6.93412e-05 0.000242742 2.23917e-20)
(5.76507e-05 0.000225757 -2.58397e-19)
(0.0945022 -0.0177796 -5.88855e-18)
(0.0988143 -0.0187065 -7.77714e-18)
(-0.00260775 -0.00197084 4.31263e-18)
(-0.00271126 -0.00174894 2.34378e-18)
(-3.98355e-06 -5.44909e-06 4.28557e-19)
(-5.61772e-06 -7.34117e-06 -3.76528e-20)
(0.00370866 0.00154837 -6.0538e-19)
(0.00376292 0.001681 -1.07674e-18)
(0.00359183 0.00166626 -3.73285e-19)
(0.0059162 0.00373851 1.68471e-18)
(0.00568436 0.00361876 4.70726e-18)
(-0.000211609 0.00400887 -3.22308e-18)
(-0.000199855 0.00389367 -5.60032e-18)
(-0.00472808 0.00106599 -6.47048e-18)
(-0.0322639 -0.00378626 1.15526e-17)
(0.0044143 0.00256276 8.56374e-19)
(0.00452597 0.00271282 6.39396e-19)
(0.00428618 0.00272717 9.11066e-19)
(-0.00018442 -0.00127709 -4.02914e-18)
(-0.000157546 -0.00135242 -2.36732e-18)
(-0.00013844 -0.0013026 1.11163e-18)
(0.0253295 -0.0411844 -1.07751e-17)
(0.0270699 -0.0397617 -6.781e-18)
(0.0285623 -0.0418012 -3.36491e-17)
(0.0710345 -0.00227459 -1.63746e-18)
(0.0656984 -0.00472841 -4.96363e-18)
(0.0219044 -0.059059 -1.0029e-17)
(0.0168752 -0.0577189 3.66743e-18)
(0.00068818 0.00126427 3.58155e-19)
(0.000672528 0.00121805 -1.5394e-19)
(0.0505487 -0.0122765 -5.75356e-18)
(0.0081786 -0.0195206 1.10824e-17)
(0.0520455 -0.012993 4.34842e-18)
(2.29811e-06 0.000369513 -2.93399e-19)
(-1.70133e-07 0.000393143 -4.09775e-18)
(-1.14239e-05 0.000456217 -2.14527e-18)
(-0.000199861 -0.00121285 -7.15489e-19)
(-0.00022268 -0.0012406 2.38902e-18)
(0.000403057 0.00112543 1.66847e-18)
(0.000425323 0.00112325 3.33312e-19)
(-0.00628654 0.0116402 -1.82832e-17)
(-0.00689283 0.0103711 -7.18866e-19)
(1.45682e-05 3.4386e-05 -1.42281e-19)
(1.7791e-05 3.07341e-05 -1.67903e-19)
(7.44526e-06 2.46415e-05 8.93058e-20)
(0.0178249 -0.0150338 1.88244e-17)
(0.017402 -0.0159581 -8.79949e-18)
(0.00745088 -0.00206435 -7.11262e-18)
(0.00722368 -0.00244994 -1.54551e-17)
(0.000677777 -0.00117107 2.42611e-18)
(0.000647316 -0.00122845 2.78152e-18)
(-0.0107675 -0.011594 -8.45973e-18)
(-0.0106951 -0.0107565 -6.34192e-18)
(0.00261069 -0.00118615 -4.68876e-19)
(0.00252308 -0.00126666 1.19386e-18)
(0.00263957 -0.00134745 -2.08316e-18)
(-0.000124192 0.00171036 -4.25636e-17)