/*--------------------------------*- C++ -*----------------------------------*\
| =========                 |                                                 |
| \\      /  F ield         | OpenFOAM: The Open Source CFD Toolbox           |
|  \\    /   O peration     | Version:  v2012                                 |
|   \\  /    A nd           | Website:  www.openfoam.com                      |
|    \\/     M anipulation  |                                                 |
\*---------------------------------------------------------------------------*/
FoamFile
{
    version     2.0;
    format      ascii;
    class       surfaceVectorField;
    location    "850";
    object      ddtCorrDdt0(Uf);
}
// * * * * * * * * * * * * * * * * * * * * * * * * * * * * * * * * * * * * * //

dimensions      [0 1 -2 0 0 0 0];


internalField   nonuniform List<vector> 
20580
(
(0.000726057 0.00320282 9.93745e-19)
(0.000510004 0.0033643 2.38423e-17)
(0.000577647 0.00308332 1.33925e-17)
(0.00046411 0.000119152 3.74677e-18)
(0.000474279 0.000110395 2.25429e-18)
(0.00048139 0.000128683 -2.90238e-18)
(0.000452386 0.000134938 -7.66715e-19)
(0.000445629 0.000116396 -1.50977e-18)
(-0.000784795 -0.00363078 -2.59383e-17)
(-0.00098731 -0.00433598 1.15704e-17)
(-0.0018452 -0.00354161 7.75541e-18)
(2.93594e-05 -3.22273e-06 -1.75972e-19)
(2.83162e-05 -3.76402e-06 -1.46414e-19)
(3.06978e-05 -2.20696e-06 -2.01186e-19)
(0.00059413 2.28041e-05 4.69912e-18)
(0.000595077 4.1929e-06 -9.4641e-20)
(0.00057691 1.12929e-05 -8.47315e-18)
(7.81502e-05 0.000432267 -2.91174e-18)
(6.98132e-05 0.000445381 2.49942e-18)
(5.23803e-05 1.96036e-06 -1.00078e-19)
(5.3317e-05 1.75464e-06 -8.50449e-19)
(5.46974e-05 1.02153e-06 -8.65905e-19)
(-0.00136018 0.00503886 1.97933e-18)
(-0.000876747 0.00528385 -7.83587e-18)
(-0.0005774 0.0046563 -1.07715e-17)
(3.34893e-05 -0.000133429 4.77707e-18)
(3.55272e-05 -0.000124318 4.82447e-19)
(3.44591e-05 -0.000124342 -2.52262e-19)
(0.000812996 -0.000716015 6.02565e-18)
(0.000793564 -0.000661983 5.01088e-18)
(0.000757613 -0.000706241 5.60046e-18)
(4.51317e-05 -5.0611e-05 -1.02952e-18)
(4.64521e-05 -4.49565e-05 -7.90239e-19)
(4.65267e-05 -4.78246e-05 -3.55229e-19)
(7.76243e-05 -0.000336429 -3.54541e-19)
(8.51575e-05 -0.000339406 -2.05648e-18)
(8.34668e-05 -0.000328199 1.18371e-18)
(-0.00211313 0.000761553 2.76043e-18)
(-0.00202561 0.000598799 8.77891e-18)
(-0.00239807 0.000731885 1.22424e-17)
(0.000636314 0.000821461 3.62745e-18)
(0.000672522 0.000842439 -4.80307e-18)
(0.000669385 0.000790412 4.80992e-18)
(-0.00100005 -0.00116991 6.39889e-19)
(-0.000659389 -0.00123537 8.49463e-18)
(-0.0010417 -0.00151635 -1.47322e-18)
(0.00540889 -0.000210186 1.65851e-18)
(0.00569744 9.10601e-05 -9.05131e-18)
(0.00523543 -0.000249572 1.03441e-18)
(0.000204129 7.73923e-06 6.43301e-19)
(0.000207773 8.16297e-06 -4.27948e-19)
(0.000210866 7.11372e-06 -5.73399e-20)
(0.0096951 -0.0080501 1.05538e-18)
(0.00842858 -0.00918744 -2.57546e-17)
(0.0105806 -0.0099206 -1.66405e-17)
(0.000909704 0.00337373 -1.88342e-17)
(0.000917268 0.00306039 -1.45018e-17)
(0.000975114 0.000762241 4.54402e-18)
(0.000968675 0.000707185 -5.92433e-18)
(0.000919186 0.000747772 -4.59032e-18)
(0.000465511 -0.000240144 -1.6792e-19)
(0.000456613 -0.000241621 1.73298e-18)
(0.000454845 -0.000230625 3.04708e-18)
(0.0034996 0.0056679 -3.09227e-17)
(0.00640414 0.0051926 -3.18691e-17)
(0.00744053 0.0049606 2.75758e-17)
(1.23554e-06 -4.50914e-06 -5.96821e-20)
(2.00107e-06 -6.12616e-06 1.28105e-18)
(1.23611e-06 -3.81814e-06 7.50682e-19)
(-0.00310036 0.0171203 -7.22333e-18)
(-0.00613574 0.0144942 -2.39999e-17)
(-0.0056524 0.0142825 -1.82826e-17)
(-3.34592e-05 0.000980869 8.57402e-18)
(-4.10968e-05 0.000948967 -4.28863e-18)
(-6.98044e-05 0.000974053 1.0275e-17)
(0.000956527 0.00923956 -3.35263e-19)
(0.00242862 0.0102311 -2.08794e-18)
(0.000921528 0.01039 5.6558e-18)
(-0.00133624 0.0148117 -6.02676e-18)
(0.000627529 0.0169869 2.29275e-18)
(-0.00471596 0.0148293 6.19554e-18)
(0.0101014 -0.00155062 3.70101e-18)
(0.00987736 -0.00150038 3.19035e-18)
(0.010121 -0.0011059 -6.86312e-19)
(0.000112883 2.01181e-05 -1.33451e-18)
(0.000114212 2.10664e-05 1.18058e-19)
(0.00011043 2.08981e-05 1.42099e-19)
(0.00148402 0.00725628 -8.20751e-18)
(0.00231526 0.00624342 1.08886e-18)
(0.00240223 0.00735246 -2.63449e-17)
(8.8184e-05 0.000442094 1.50299e-18)
(8.46446e-05 0.000425643 -1.70246e-18)
(0.000381289 0.00265782 3.40925e-19)
(0.000375667 0.00255734 -4.53507e-18)
(0.000484587 0.00262767 1.74235e-17)
(0.00271355 -8.73027e-05 7.79513e-18)
(0.00258159 7.85882e-06 3.77337e-19)
(0.0051759 -0.000206852 1.27557e-17)
(0.00078991 -0.000385685 -4.92447e-18)
(0.000815882 -0.000381022 -6.01403e-18)
(0.000801934 -0.000411365 4.22833e-18)
(0.00845742 -0.00275126 -6.19706e-19)
(0.00838339 -0.0032351 9.75313e-19)
(0.00788167 -0.0030212 2.41712e-18)
(3.92244e-07 -2.78529e-06 -1.18673e-18)
(1.19815e-06 -5.37721e-06 -7.67653e-20)
(-7.59437e-05 0.00102211 -3.81524e-17)
(0.00509467 0.00314756 -4.91693e-18)
(0.00297637 0.000994353 -3.62354e-17)
(-0.000177276 0.00442582 1.70472e-18)
(0.00017567 0.00451254 -3.11731e-17)
(-0.00102423 0.00503653 -1.93029e-17)
(0.00020387 -0.000180555 1.87535e-18)
(0.000202123 -0.000176523 -1.00836e-18)
(0.0002082 -0.000172313 5.68552e-19)
(-0.0078046 0.0045452 -1.7857e-18)
(-0.00759853 0.00499097 -2.61908e-18)
(-0.00733052 0.00482943 5.41454e-18)
(0.0102987 -0.00145304 1.11186e-18)
(0.0100546 -0.00203607 3.42835e-18)
(0.00127813 0.00103977 3.32761e-17)
(0.00194153 0.000941646 6.27206e-18)
(0.000524045 -0.0012593 -1.5384e-18)
(0.000281736 -0.000717911 -2.41467e-17)
(0.000959546 -0.00130727 -2.45105e-17)
(0.0102894 0.00129283 1.24619e-18)
(0.0101064 0.00195507 9.53019e-20)
(0.0102982 0.0012328 1.95364e-18)
(0.000159539 -6.65275e-05 -3.53272e-19)
(0.000156638 -7.66484e-05 -1.5052e-20)
(0.000154791 -6.9624e-05 1.19374e-19)
(6.78166e-06 1.74874e-05 6.12493e-19)
(4.92278e-06 1.26994e-05 1.30754e-18)
(-0.0021368 0.00129143 -5.14768e-18)
(-0.00234393 0.00112022 1.88592e-18)
(-0.00200658 0.00104776 6.60086e-19)
(0.000408102 -0.000119214 4.49799e-18)
(0.00039444 -0.000110027 3.5615e-19)
(0.00040592 -0.000112115 -2.09774e-18)
(7.40082e-05 -0.000328068 1.70956e-18)
(6.96385e-05 -0.000338171 -1.38599e-18)
(0.00248662 -0.00066463 -8.81919e-18)
(0.002036 -0.000777695 8.51198e-20)
(0.00260078 -0.00019645 -3.63671e-18)
(4.74953e-05 -0.000366512 3.01029e-18)
(5.05442e-05 -0.000358996 3.91027e-18)
(5.6423e-05 -0.000368003 4.70572e-19)
(-0.00131836 -0.00102759 3.68931e-19)
(-0.000976595 -0.000847461 -4.26916e-19)
(9.89794e-05 0.000756392 -1.45807e-17)
(0.000106389 0.000775669 4.97521e-18)
(8.27916e-05 0.000772285 -1.77344e-17)
(0.00334265 0.00142529 -3.61499e-19)
(0.00278458 0.00189898 -1.14366e-17)
(0.00277309 0.00141963 4.38326e-18)
(0.000206914 -0.00018349 2.16107e-18)
(0.00019986 -0.000186979 1.33539e-19)
(0.00023201 0.00272255 -3.07144e-18)
(0.000424987 0.00279174 -1.18417e-17)
(-0.00842466 0.00406991 2.86587e-17)
(-0.0081108 0.00385927 5.44121e-18)
(-0.0101049 0.00392808 2.23418e-17)
(-0.0126361 0.00387981 -4.55378e-18)
(-0.0120778 0.00570575 1.1159e-17)
(-0.00521531 0.000963241 -4.79169e-19)
(-0.00498723 0.000983133 -8.16464e-18)
(-0.00525928 0.00117885 2.46454e-19)
(4.37637e-05 -5.64708e-05 -3.01413e-19)
(4.39214e-05 -5.37043e-05 2.65173e-19)
(-0.000424907 0.00839669 -2.59851e-18)
(0.000761405 0.00829136 -1.10475e-17)
(5.53885e-06 -0.000111516 -8.67055e-19)
(2.61572e-05 -0.000117807 -3.20149e-18)
(9.13013e-06 -0.000127879 -1.72472e-18)
(0.000409722 -0.000125061 3.00878e-19)
(0.000419823 -0.000123406 -3.50285e-19)
(0.00053249 -0.00111896 -2.53926e-18)
(0.000553501 -0.00112507 -1.44475e-18)
(0.000550188 -0.00110849 -2.45484e-18)
(0.000521335 -0.00111444 -3.42276e-19)
(0.000514976 -0.00111504 -1.29414e-19)
(-0.00550319 0.00085589 2.93274e-17)
(-0.00517214 0.000684396 1.07726e-18)
(0.000168568 -0.000951116 2.57491e-17)
(0.000185528 -0.000960851 2.72212e-18)
(0.000250745 -6.95852e-05 -3.66686e-19)
(0.000248271 -7.77309e-05 6.49285e-20)
(0.000243708 -6.99594e-05 3.2884e-20)
(-0.00683837 -0.00148849 3.64284e-17)
(-0.00642454 -0.00131431 2.93558e-17)
(-0.00696463 -0.000675333 -3.92125e-19)
(0.00663952 0.00194088 1.51296e-17)
(0.00651013 0.00146177 1.87032e-17)
(0.00689922 0.00135403 -4.77457e-17)
(0.00117335 0.000866607 6.94286e-18)
(0.00120969 0.00081817 6.78186e-18)
(0.00124418 0.000883276 3.85665e-18)
(0.000124026 -0.000266159 2.56288e-18)
(0.000120078 -0.0002697 1.39918e-19)
(0.000126724 -0.000273104 1.06763e-18)
(-0.00474916 0.000966963 -1.76522e-18)
(-0.00477527 0.000729788 -3.36096e-18)
(0.000212927 0.000824654 -1.47461e-18)
(0.000224173 0.000803126 4.39916e-18)
(0.000236499 0.000823473 3.40076e-18)
(0.000369647 -0.000194881 -8.45128e-20)
(0.000359616 -0.000194929 -4.34436e-20)
(0.000362047 -0.000185016 -3.9996e-19)
(0.00568658 -0.000253753 -7.72606e-18)
(0.00535116 -0.000589271 -8.59047e-19)
(7.78652e-05 9.92915e-06 1.40939e-18)
(8.01022e-05 8.80192e-06 4.16894e-19)
(8.22409e-05 1.0859e-05 -1.66018e-18)
(-0.000167842 0.0192857 3.02308e-17)
(0.00473898 0.0189241 -4.44077e-18)
(0.000100771 -0.000140363 -8.54835e-19)
(9.60021e-05 -0.000133706 2.7586e-19)
(9.70266e-05 -0.000138067 7.02559e-19)
(0.000255697 -6.39976e-05 -2.37022e-19)
(0.000256645 -7.30877e-05 1.08795e-18)
(0.00477041 -0.00727233 -6.41659e-18)
(0.00624997 -0.00662824 -1.00365e-17)
(0.00567459 -0.00882622 2.86123e-18)
(0.000774676 -0.000367233 -2.18242e-17)
(0.000760559 -0.000392454 4.68904e-18)
(-0.00256969 0.000531644 -1.28643e-17)
(-0.00255519 0.000598549 8.42995e-18)
(-0.00289832 0.00061706 7.19798e-18)
(-0.00451223 0.000934548 3.74399e-18)
(-0.00472329 0.00117254 9.20388e-18)
(0.00402164 0.00498281 -1.19603e-17)
(0.00497255 0.00454033 3.87168e-17)
(0.00438364 0.00555362 -1.33287e-17)
(0.000475964 -0.000248357 2.86208e-18)
(0.00047338 -0.000236714 -1.94695e-18)
(0.0107717 7.23192e-05 -1.09547e-18)
(0.0111496 0.000228645 7.65598e-19)
(0.0108258 0.000100012 -9.47281e-19)
(5.03369e-05 -0.000158837 -9.416e-19)
(5.29846e-05 -0.000155867 1.86614e-18)
(4.8529e-05 -0.000145636 3.57298e-18)
(0.000708604 0.00806759 -3.74637e-18)
(0.000759187 0.00689977 4.34342e-17)
(4.65865e-05 -0.00037727 8.01783e-18)
(4.11112e-05 -0.000366669 -8.36584e-18)
(0.00010047 0.000448781 1.7436e-18)
(9.1969e-05 0.00046094 4.46265e-18)
(0.00339107 0.000459688 1.72341e-17)
(0.00355873 0.000445682 -1.27055e-17)
(0.00324135 0.00518245 1.79324e-18)
(0.00379487 0.00421515 -1.82419e-17)
(0.00502514 -0.0018968 1.46508e-18)
(0.00521196 -0.001357 -7.91876e-18)
(0.00480306 -0.00173254 2.7061e-17)
(0.000607158 -0.00146649 5.90539e-18)
(0.000813114 -0.00150667 -7.11883e-18)
(0.000739664 -0.00143234 3.73768e-18)
(0.000147519 -0.000132408 -2.83389e-19)
(0.00014638 -0.000139498 1.24348e-19)
(0.000153895 -0.000133657 2.0435e-19)
(-0.00242627 -1.75339e-05 6.33119e-18)
(-0.00221365 -0.000381267 8.94864e-18)
(-0.0020249 -3.99518e-05 -1.00008e-17)
(-0.00767875 -0.000910255 4.29772e-18)
(-0.00809837 -0.000795148 1.23954e-17)
(-0.00798492 -0.000438171 -1.46336e-17)
(-0.000780046 0.000791849 2.10402e-17)
(-0.00107385 0.00100975 -2.84696e-18)
(-0.000710217 0.00116307 1.34483e-17)
(-0.00263646 0.000316956 4.71022e-18)
(-0.00291125 -4.95558e-05 9.49311e-18)
(0.000211794 -0.000783825 -1.08835e-17)
(0.000204876 -0.000773856 2.46746e-17)
(0.000211972 -0.000764716 1.75809e-17)
(0.000285777 -0.000788926 1.06766e-17)
(0.000266714 -0.000785586 -1.73171e-18)
(0.000277066 -0.000810518 9.03259e-18)
(0.00012191 -0.000296874 1.61368e-18)
(0.000127384 -0.000292336 7.37779e-19)
(0.000130142 -0.000299221 -5.10267e-18)
(0.000162799 -2.95172e-05 -4.51993e-19)
(0.000167878 -2.63884e-05 2.36913e-19)
(0.000162193 -2.16992e-05 -8.15394e-19)
(0.00126512 0.000423062 -3.08425e-18)
(0.00128196 0.000376804 -1.99282e-17)
(0.00132572 0.000433247 -1.93382e-17)
(0.000158685 -3.20327e-05 5.83354e-19)
(0.000160715 -3.88928e-05 -2.17262e-19)
(0.00625625 0.0025875 2.5986e-17)
(0.00675944 0.00256647 3.05354e-17)
(0.000106916 0.000436908 -6.18512e-19)
(0.000113055 0.000454272 -3.00922e-18)
(0.000200616 7.02264e-06 -5.39442e-18)
(0.000197815 8.67222e-06 2.38242e-19)
(0.000504544 -0.000344711 -2.44397e-19)
(0.00051828 -0.000355 -1.79905e-18)
(0.000503073 -0.000357872 2.25197e-19)
(0.000159173 -5.50841e-05 1.14691e-18)
(0.000165289 -5.89226e-05 -2.76456e-19)
(-0.000210449 -9.05917e-05 1.13142e-17)
(-0.000412049 -0.00046056 3.33418e-17)
(-0.000664147 7.13101e-05 2.94052e-18)
(0.0012398 -0.000372225 4.11728e-18)
(0.00123263 -0.000347076 3.42955e-18)
(0.00121294 -0.000369041 -8.10859e-18)
(0.00035475 0.00246951 5.38099e-18)
(0.000325321 0.00250606 1.16369e-17)
(0.000402424 0.00251139 -7.69154e-18)
(9.37001e-05 0.000733526 2.64731e-18)
(0.000115075 0.000739697 -1.16513e-18)
(8.21112e-05 1.06318e-05 -8.29221e-19)
(8.40268e-05 8.57029e-06 -6.98209e-19)
(8.51805e-05 1.21695e-05 3.09653e-19)
(5.08298e-05 2.32334e-06 7.58722e-19)
(5.1736e-05 3.26297e-06 8.44792e-19)
(-0.000752849 -0.0026251 -5.56387e-17)
(0.000154067 -0.00314282 6.37922e-19)
(-0.00650793 -0.00274955 3.44886e-17)
(-0.00713729 -0.00181777 8.0509e-18)
(0.00154768 -0.00132746 1.27003e-17)
(0.00139239 -0.00138041 -1.77671e-17)
(0.00157042 -0.00149962 -1.37185e-17)
(0.000162648 1.09004e-05 2.48979e-19)
(0.00015837 1.16597e-05 3.51333e-18)
(0.00015612 1.1271e-05 -3.12866e-19)
(0.000232877 -0.000103889 -1.17812e-19)
(0.000238672 -9.79712e-05 4.51907e-19)
(0.000239269 -0.000109196 3.77274e-20)
(-0.00370928 0.00118519 -9.09369e-18)
(-0.00346404 0.00131129 -9.04484e-18)
(-0.00381819 0.00133352 1.44605e-19)
(0.0100705 0.00343478 9.94641e-19)
(0.0107763 0.0023531 -8.93174e-19)
(0.0115844 0.00400444 2.94297e-18)
(0.000227651 -0.00111194 9.20044e-18)
(0.000231429 -0.00109686 -1.93554e-18)
(0.000254762 -0.00110669 -2.88336e-17)
(0.000150971 -0.000127594 5.78075e-21)
(0.000146467 -0.000130272 -3.80835e-19)
(0.000526154 -0.00034431 -4.99087e-18)
(0.000542318 -0.00036739 8.60756e-18)
(0.000548872 -0.000339173 4.63338e-18)
(-0.00084702 0.00240213 -2.64069e-18)
(-0.00175525 0.00227401 -1.15275e-17)
(-0.00129477 0.00282497 2.42929e-18)
(0.000840765 0.0010318 5.26076e-18)
(0.000871503 0.00108261 5.59163e-18)
(0.000888852 0.00100936 -3.10479e-18)
(0.000447366 -0.000241681 8.58956e-19)
(0.000458192 -0.000250796 1.77412e-19)
(0.000702753 -0.00020208 7.32858e-19)
(0.000717144 -0.000187757 -7.82031e-19)
(0.000693439 -0.000186015 -1.63311e-18)
(-0.00513956 0.00208555 -1.08457e-17)
(-0.00598156 -0.000877874 6.01949e-17)
(0.00301075 -0.000493572 -2.35574e-18)
(0.00118321 -6.74967e-05 3.25262e-18)
(0.000831169 -0.000782525 -3.06705e-18)
(0.000875892 -0.00072278 1.64326e-17)
(0.00482704 0.000734295 -6.19409e-18)
(0.00501537 0.000335595 -1.42251e-19)
(0.0048635 0.000791035 1.48232e-17)
(0.000168654 -0.000934885 4.88821e-18)
(0.00552464 0.0040795 -1.02853e-17)
(0.00514766 0.00373607 -2.73964e-17)
(0.000171852 -0.000675352 -3.63712e-18)
(0.0001626 -0.000683923 -6.76256e-18)
(0.000164248 -0.000664743 1.80306e-18)
(0.000740981 0.00108165 3.62453e-18)
(0.000696691 0.00104789 6.45719e-18)
(0.000690907 0.00110449 9.95333e-18)
(0.00341326 -0.00791142 -3.59404e-18)
(0.00410343 -0.0062167 -1.02162e-17)
(0.000178135 -0.000334892 -3.79783e-18)
(0.000170568 -0.00033801 -2.79489e-18)
(0.000176679 -0.000329618 6.29297e-19)
(4.80171e-05 -0.000162238 -7.41647e-18)
(5.23995e-05 -0.000173385 -5.46742e-18)
(0.000397798 -0.00102126 3.439e-17)
(0.000398559 -0.00103268 2.93173e-17)
(0.000413298 -0.0010164 5.19924e-18)
(0.00403469 0.00527485 1.00112e-17)
(0.00260352 0.00796558 -1.7338e-18)
(0.00105849 0.00454829 7.44993e-18)
(0.00032416 -0.000210426 9.03993e-19)
(0.000331262 -0.000216073 -1.39246e-19)
(0.000322406 -0.000221375 7.66694e-19)
(7.58063e-05 1.13375e-05 1.6062e-18)
(7.41084e-05 9.06119e-06 8.26527e-19)
(0.00240194 0.00526038 1.81784e-17)
(0.00861594 0.00266491 -6.38144e-19)
(0.00816381 0.00303555 -1.55957e-18)
(0.0084854 0.00237743 8.30841e-18)
(0.000510028 -0.000321297 -2.92667e-18)
(0.00049948 -0.000355511 -1.03757e-17)
(-0.00252901 0.000565327 -7.38905e-18)
(-0.00283484 0.000620721 2.17911e-18)
(2.9454e-05 0.000268711 2.23515e-17)
(0.000147581 -0.000183648 1.89969e-17)
(0.00124627 -0.000393164 1.39945e-18)
(0.00126452 -0.000378474 1.02677e-17)
(0.0094889 -0.00379785 1.22462e-17)
(0.0087523 -0.00493473 -1.45965e-17)
(0.00824951 -0.0037173 3.81569e-18)
(9.76819e-05 -0.000372268 2.63957e-18)
(9.54671e-05 -0.000375556 4.63967e-20)
(9.29456e-05 -0.000371406 -7.14039e-18)
(3.82143e-05 -0.000264242 -1.30323e-18)
(2.90243e-05 -0.000267003 -3.82609e-18)
(3.25504e-05 -0.000249056 2.73637e-19)
(3.99377e-05 -5.22437e-05 6.97582e-20)
(4.04105e-05 -5.45067e-05 1.09146e-18)
(3.82082e-05 -5.9946e-05 1.55026e-18)
(-0.000520679 0.00419015 1.91263e-17)
(0.000515679 0.00378126 3.30885e-17)
(0.000719176 0.000968178 -1.10514e-17)
(0.000697594 0.0010111 -8.82805e-18)
(0.000691894 0.000968878 8.01397e-18)
(0.000217093 0.00037518 1.13235e-17)
(0.000215209 0.00038581 5.69673e-18)
(0.000227494 0.000379051 5.64628e-18)
(2.75494e-06 -1.14464e-05 -2.79358e-19)
(2.86989e-06 -1.00234e-05 2.51671e-19)
(4.33011e-06 -1.36543e-05 -1.55963e-19)
(0.00925719 -0.00218897 1.18478e-19)
(0.00965218 -0.00185366 1.20285e-17)
(0.0094855 -0.00245595 7.05463e-18)
(0.00126391 0.000490519 2.09614e-17)
(0.00120665 0.000430968 1.50356e-17)
(-0.00187766 0.00141791 -1.0539e-17)
(-0.00212903 0.00161091 -1.15564e-17)
(-0.00220434 0.000896356 -1.08443e-17)
(-0.0017655 0.000739972 -6.21177e-18)
(0.000454242 0.00722203 1.90361e-18)
(0.00118665 0.00639459 -3.57151e-18)
(0.00112674 0.00713964 -1.45742e-17)
(-0.000328733 0.00699406 4.87079e-19)
(-0.000483863 0.00794505 3.90992e-18)
(0.00281694 -0.000470004 -7.88133e-18)
(0.00285452 -0.000916919 -9.86458e-18)
(0.000503129 -0.000335718 -3.99709e-19)
(0.000493913 -0.000337583 -2.65983e-19)
(-0.0127939 -0.00960222 9.49433e-18)
(-0.0119637 -0.0116827 5.2441e-18)
(-0.0130908 -0.00983802 2.59857e-17)
(4.21533e-05 -6.2876e-05 -1.75117e-18)
(4.05803e-05 -6.98434e-05 -1.48911e-19)
(4.04851e-05 -6.69665e-05 2.1002e-18)
(8.06481e-05 1.29892e-05 -6.46983e-19)
(8.02946e-05 9.8552e-06 -1.10817e-18)
(0.00157666 0.000174789 -5.04651e-18)
(0.00155374 0.000100293 2.02585e-19)
(0.00150687 0.000160016 -4.31797e-18)
(2.21238e-05 -5.52854e-06 -1.88892e-19)
(2.04715e-05 -7.20995e-06 -1.25918e-19)
(1.97631e-05 -5.13577e-06 3.13043e-19)
(0.00494261 -0.00257785 2.18078e-17)
(0.00505883 -0.00191243 -8.37793e-18)
(0.00182703 -0.00185869 -2.77029e-18)
(0.00263442 -0.000657154 3.02247e-18)
(0.0029641 -0.000744402 2.65401e-18)
(-0.0022603 0.00286129 3.34752e-18)
(-0.00198892 0.00315668 -3.76103e-18)
(-0.00253986 0.00321063 2.89274e-18)
(7.89804e-05 1.49113e-05 -1.03756e-18)
(8.18584e-05 1.57949e-05 -4.5863e-19)
(0.000168901 0.000822995 1.45276e-18)
(0.000191962 0.000824549 -6.81461e-19)
(0.000178385 0.000802977 7.46595e-18)
(-0.00248615 0.00248701 5.80101e-18)
(-0.00209146 0.00253484 1.36473e-17)
(0.00940047 0.0045913 -5.4547e-20)
(0.00883933 0.00303264 2.93375e-17)
(0.000233098 -0.00182481 1.16741e-17)
(0.000502637 -0.000323877 -1.87296e-18)
(0.000489808 -0.000313553 -3.1754e-18)
(0.00050103 -0.000312223 6.14399e-19)
(0.00078487 0.0010606 -6.23169e-18)
(0.000796209 0.000994755 2.35743e-18)
(0.00538388 0.000147263 1.33167e-17)
(0.00550184 0.000142931 1.79679e-18)
(0.00873085 0.00286001 -8.73819e-18)
(0.00891224 0.00239494 -5.0111e-18)
(0.000390437 0.00249098 2.50476e-18)
(0.000297815 0.00251132 -6.2024e-18)
(0.000142794 -0.000552585 4.42583e-19)
(0.00014033 -0.000541543 1.5295e-17)
(0.000133555 -0.000572999 -8.8449e-18)
(9.80813e-05 -0.000345379 -9.93966e-20)
(0.000106876 -0.000348432 -1.75096e-18)
(9.79484e-05 -0.000351982 3.99124e-18)
(0.000133855 8.84111e-06 -6.86887e-19)
(0.00013795 6.30612e-06 -4.30576e-19)
(0.000138095 1.15832e-05 6.26383e-19)
(0.00477411 0.00878944 1.57508e-17)
(0.0057347 0.0021449 9.00567e-18)
(0.000761814 0.000962596 -2.20286e-18)
(0.000733002 0.000921669 8.2738e-18)
(-0.00208974 0.000526494 -3.34984e-18)
(-0.00181687 0.00049354 7.3087e-19)
(0.00058756 4.39397e-05 -5.79454e-18)
(0.000608481 3.7043e-05 8.38773e-18)
(0.000317259 -0.000204303 1.79195e-19)
(0.000325782 -0.00020186 -4.99427e-20)
(-0.00198134 -0.000621624 -1.21139e-18)
(-0.00163477 -0.000876573 -1.07567e-17)
(-0.001556 -0.000499548 -1.58187e-17)
(0.00039204 0.00246116 1.25922e-17)
(0.000448971 0.00247832 -3.28337e-18)
(0.000213255 0.000118034 3.32868e-18)
(0.000221032 0.00011953 -1.71944e-18)
(0.000219647 0.000107817 6.50806e-19)
(0.000283284 -9.73888e-06 -1.75632e-18)
(0.000276172 -1.0348e-05 9.22962e-19)
(0.000274259 -7.35972e-06 3.72094e-18)
(0.000202434 -0.000963378 -3.92165e-18)
(0.000227004 -0.000951293 -6.75216e-18)
(0.000227428 -0.000977011 1.93737e-17)
(0.00207715 -0.0082766 7.11047e-20)
(0.000734569 -0.00821972 -2.19409e-18)
(0.00168002 -0.00698563 4.24944e-17)
(-0.00294128 -0.00575666 1.63229e-17)
(-0.00216427 -0.00638063 6.51317e-18)
(-0.00302609 -0.00652465 1.01713e-18)
(-0.00969507 0.00260457 -5.9258e-18)
(-0.010063 0.00201651 2.46229e-17)
(-0.00991616 0.00273064 1.23227e-17)
(0.000615853 0.000788969 3.27724e-18)
(0.000598074 0.000833655 -2.80433e-18)
(0.000177691 -0.000862547 -1.19069e-17)
(-5.82474e-05 -0.00163881 -8.81777e-18)
(0.000814874 -0.00131111 -2.98528e-17)
(-0.00290928 -0.00523359 -8.21858e-18)
(-0.00363039 -0.00533732 1.66154e-17)
(7.04835e-05 -0.000431464 -1.16601e-17)
(6.33681e-05 -0.00043101 7.1791e-18)
(5.82168e-05 -0.000437459 1.44224e-17)
(0.000423589 0.00114159 -1.87915e-18)
(0.000461391 0.00113359 3.36407e-19)
(0.000431942 0.00111152 1.84423e-18)
(-0.00216709 0.00439226 -3.97693e-18)
(-0.00281309 0.00455918 1.53957e-18)
(-0.00245691 0.00403628 -4.68637e-19)
(0.000556598 -4.75919e-05 1.05066e-18)
(0.000567389 -5.44766e-05 8.17604e-19)
(0.000551194 -5.86408e-05 8.66791e-18)
(-0.000337055 -0.00130412 4.78373e-19)
(9.6194e-06 -0.00136635 -1.3896e-17)
(-0.000323705 -0.00167156 -2.62722e-18)
(0.000231109 -0.000111216 -4.0135e-19)
(0.000229362 -0.00010369 5.38477e-20)
(0.00258348 -0.00967542 2.87974e-18)
(5.25843e-06 -5.76184e-05 2.3343e-18)
(7.15811e-06 -6.6615e-05 -5.52607e-20)
(7.02899e-06 -6.93888e-05 2.89245e-19)
(0.000837685 -0.000368162 2.99124e-18)
(0.000872694 -0.000369173 -1.10059e-18)
(0.000850134 -0.00040343 3.16073e-17)
(0.000394087 -0.000213266 -9.89213e-19)
(0.000401931 -0.000212294 -1.1139e-18)
(0.000402529 -0.000221316 -1.30832e-18)
(6.96319e-05 -0.000318457 2.21967e-19)
(7.4028e-05 -0.000314076 4.18904e-18)
(-0.000439323 0.00581175 1.70902e-18)
(-0.00118683 0.00594704 5.62425e-19)
(-0.000626598 0.00656427 1.88632e-19)
(0.000265353 3.22696e-05 2.0787e-18)
(0.000256574 3.19928e-05 -1.49153e-18)
(0.000260986 4.05669e-05 -1.76366e-18)
(0.000255575 -0.00168787 -1.63305e-17)
(0.000200175 -0.00180301 1.56426e-17)
(7.72668e-05 1.43988e-05 -5.09635e-20)
(7.77348e-05 1.59881e-05 7.96764e-19)
(0.00113673 0.00348095 1.00641e-18)
(0.00140377 0.00359026 -4.08631e-18)
(0.0013294 0.0032701 -8.97746e-18)
(-0.00264498 0.00043314 -1.63339e-17)
(-0.00225609 0.000404979 -1.45123e-17)
(0.0052876 -0.000814327 -1.48284e-17)
(0.00528347 -0.000187836 -1.92439e-17)
(0.00515829 -0.000574703 -2.91153e-17)
(0.000181632 -0.000544508 -4.00233e-19)
(0.000182488 -0.000520508 8.33329e-18)
(0.000203951 -0.000536737 -4.53617e-18)
(0.000387242 0.00115088 8.21077e-18)
(0.000417892 0.00117402 -7.08327e-19)
(2.36097e-06 -3.67697e-05 -1.76534e-18)
(1.17183e-06 -2.66425e-05 1.03109e-19)
(1.34831e-06 -2.75253e-05 -1.08299e-18)
(0.000394623 -0.00100899 -4.00013e-19)
(0.000375722 -0.00102173 -4.6837e-17)
(6.44745e-05 -7.08426e-05 -1.29729e-19)
(6.22923e-05 -6.30079e-05 -1.16293e-18)
(6.49013e-05 -6.88733e-05 3.38782e-19)
(0.000824288 -0.000354357 6.65785e-19)
(-0.000558772 -0.00901498 1.83931e-17)
(0.00100758 -0.00771977 -3.76293e-18)
(0.00220053 -0.00742716 9.68871e-17)
(0.000179972 -0.000563737 2.27423e-18)
(0.000163222 -0.000533304 -1.16182e-17)
(0.000542309 -3.6439e-05 -1.03885e-17)
(0.000560875 -3.04914e-05 -2.27139e-18)
(3.48571e-06 -0.000144497 5.14161e-19)
(6.5011e-06 -0.000135095 1.40159e-22)
(-0.00969338 0.00236081 3.45873e-18)
(-0.00934898 0.00304798 -6.07365e-18)
(0.000115433 1.89062e-05 -2.19289e-19)
(0.000111181 1.91758e-05 -4.17197e-19)
(-0.00365535 0.000890821 3.11596e-17)
(-0.00302283 0.00865717 -4.74748e-17)
(-0.0101978 0.00139903 -4.51762e-18)
(-0.0103128 0.000816437 -7.83649e-18)
(-0.0103605 0.00121255 -1.64225e-17)
(-0.000529322 0.000637161 -2.53106e-17)
(-0.000814241 0.0004658 3.72275e-17)
(2.68245e-06 -1.27953e-05 -1.13819e-19)
(1.49871e-06 -8.95956e-06 -3.01848e-19)
(0.00787361 0.00352433 3.29974e-19)
(0.00720962 0.00460753 -1.44179e-17)
(0.00928256 0.00438906 -2.27319e-17)
(-0.00423363 0.000888226 2.10375e-18)
(-0.00408464 0.000872449 -1.33565e-17)
(-0.00427578 0.00105131 1.24835e-18)
(0.0102737 0.00122882 -3.35775e-18)
(0.0104954 0.00055652 5.08737e-18)
(-0.000364605 -0.00101469 9.98548e-18)
(0.000826369 0.000375345 -2.031e-18)
(0.000834731 0.000334218 -1.11586e-17)
(0.000796297 0.000358357 8.31752e-19)
(0.000421256 -0.00108709 1.05137e-17)
(0.000401823 -0.00106388 -1.85814e-18)
(0.000399626 -0.00109897 -1.82872e-17)
(-8.47611e-05 0.00522601 7.9495e-19)
(0.000392143 0.00558465 -3.86944e-19)
(0.000158929 0.00084253 -1.98739e-18)
(0.000145478 0.000820327 -7.29267e-18)
(0.000892341 -0.00159918 6.17373e-18)
(0.000912362 -0.00144497 7.06083e-18)
(0.000555531 -0.000341397 7.53661e-19)
(0.000547135 -0.000345284 2.32277e-18)
(0.000544667 -0.00033555 2.40346e-18)
(0.00920525 0.00121745 -1.03621e-17)
(0.00907113 0.00101736 4.72937e-18)
(0.00945472 0.000951976 -1.11685e-18)
(0.00485007 0.00111164 3.20229e-18)
(0.00474403 0.00163701 -2.72763e-17)
(0.00440027 0.00110476 -3.93109e-17)
(5.75611e-05 -5.0711e-07 -3.83875e-19)
(5.86866e-05 1.51233e-07 8.47769e-19)
(5.79625e-05 -2.49804e-06 -3.60009e-19)
(0.00053313 0.000282579 -1.2025e-18)
(0.000514927 0.000278588 -7.70377e-19)
(0.000529178 0.000256674 -6.52699e-18)
(-0.00243393 -0.000708906 9.60063e-18)
(0.00892858 -0.00231746 -1.27761e-17)
(0.00916752 -0.00183523 -1.37047e-17)
(0.00747983 -0.000481844 1.40494e-18)
(0.00715017 -0.000686583 -5.69622e-18)
(0.00715121 -0.000525851 2.39026e-18)
(0.000131556 6.69431e-06 1.30189e-18)
(0.000131221 1.10247e-05 -5.8178e-19)
(0.0002453 -0.00114328 1.34147e-17)
(5.44591e-05 -0.000153309 -2.42679e-18)
(5.61813e-05 -0.000150955 -1.86216e-19)
(5.29472e-05 -0.000141355 -1.5416e-18)
(-0.000138498 0.00185759 -4.13215e-18)
(-0.000367493 0.00202056 1.40648e-17)
(-0.000140631 0.00214463 2.00089e-18)
(0.010781 0.000908597 2.21667e-18)
(0.0107779 -0.000460281 -2.793e-17)
(0.00962048 0.000571491 -1.07e-17)
(0.000549811 0.000277752 3.68272e-18)
(0.000538319 0.00029752 -1.0798e-18)
(0.00123559 0.000531924 1.01294e-18)
(0.001289 0.000556838 4.01834e-18)
(0.00497772 0.000662642 3.55237e-17)
(0.00542514 0.00117661 5.66676e-17)
(0.000120675 -0.00022496 -2.85923e-18)
(0.000126015 -0.000226111 -2.28537e-19)
(0.000120238 -0.000218822 -6.03532e-20)
(0.000238087 -0.000791336 -2.59971e-17)
(0.000216908 -0.000824036 -2.92941e-17)
(-0.00122571 0.0016689 -2.9809e-18)
(-0.00145719 0.0015811 4.82754e-19)
(-0.00122014 0.00146936 1.53659e-18)
(0.00255446 0.0234135 7.21706e-18)
(0.00294519 0.0229399 -5.49683e-18)
(0.0067991 0.0222744 3.39845e-18)
(4.00992e-05 -8.29493e-05 -7.8291e-19)
(3.98737e-05 -8.63984e-05 8.29717e-19)
(3.82724e-05 -8.90614e-05 3.62021e-19)
(6.70894e-05 -0.000312386 -4.77217e-18)
(6.84416e-05 -0.000321185 -2.73852e-18)
(0.000198666 -0.000541742 1.52131e-17)
(-0.00424713 0.00368797 -1.52041e-19)
(-0.00419565 0.00422992 -6.1342e-18)
(-0.00427998 0.00380794 -8.07925e-19)
(-0.00264984 -0.00156659 2.57909e-18)
(-0.00269467 -0.00091002 7.44069e-17)
(-0.00331281 -0.00135419 1.60906e-17)
(0.00100362 0.000907146 5.93402e-19)
(0.00099098 0.000863036 -3.0381e-18)
(0.0010407 0.000866041 3.69416e-18)
(0.000166879 1.04602e-05 -8.20358e-19)
(0.000169446 1.05689e-05 -3.59155e-19)
(0.00872186 0.00548971 2.78823e-18)
(0.0100956 0.00609105 -5.45722e-18)
(0.0100867 -0.0027155 2.22799e-17)
(0.0104721 -0.00150596 -1.4005e-17)
(0.00925518 -0.00168653 1.78846e-18)
(0.000393055 0.00238226 5.41177e-18)
(0.000344679 0.00238542 1.11946e-17)
(0.000371227 0.00234413 9.53759e-18)
(0.00123273 0.000604214 -6.61718e-19)
(0.00117865 0.000543912 -3.61101e-18)
(-0.00433578 0.00316334 -5.7177e-19)
(-0.00401093 0.00356632 4.60422e-18)
(-0.0101823 0.000221288 -3.01385e-17)
(-0.0101767 0.000369429 2.01938e-17)
(-0.0104862 0.000261607 -4.81065e-17)
(0.000595905 0.000194763 2.20094e-19)
(0.000607922 0.000176307 5.16703e-18)
(0.000618133 0.000202096 -1.17643e-18)
(0.000587491 0.000713038 -2.03994e-18)
(0.00060703 0.00073161 -7.64334e-18)
(0.000569921 0.000742282 -5.22877e-18)
(0.0140589 0.0102425 -4.08015e-18)
(0.0130457 0.0107369 2.15884e-18)
(0.014143 0.0115078 -2.72514e-17)
(0.000162755 -2.6854e-06 5.97777e-19)
(0.000168517 -3.06509e-06 8.98128e-19)
(0.000162818 -8.28619e-06 -1.80694e-19)
(3.9562e-05 -5.02311e-05 -2.01105e-18)
(3.90353e-05 -4.80949e-05 3.19627e-19)
(3.74109e-05 -5.51616e-05 -1.74644e-18)
(0.000415821 0.00240261 1.54259e-17)
(0.000398896 0.00241028 -1.2141e-17)
(0.000612938 -0.000575109 -6.99273e-18)
(0.000658159 -0.000565819 2.67319e-18)
(0.000628186 -0.000533247 -2.47207e-18)
(0.000117511 1.82316e-05 -2.51771e-19)
(0.000119932 1.68219e-05 -6.34888e-19)
(0.000115091 1.68462e-05 6.95852e-19)
(8.1148e-06 -6.41807e-05 -6.93979e-19)
(7.33461e-06 -6.54062e-05 -1.18046e-18)
(5.05733e-06 -5.53064e-05 -2.8154e-20)
(6.67586e-05 -7.65613e-05 -4.43211e-19)
(6.49281e-05 -7.12496e-05 -1.73841e-18)
(3.26941e-05 -2.06592e-06 -1.76605e-21)
(3.32932e-05 -2.39774e-06 -2.30522e-19)
(3.62389e-05 -1.58525e-06 5.96441e-21)
(0.000740613 0.000495504 1.06738e-17)
(0.000772747 0.000502648 -2.90696e-18)
(0.000747808 0.000534924 4.37816e-18)
(4.17279e-05 -4.54425e-05 -1.28185e-18)
(-0.0017995 0.00477242 6.80196e-18)
(-0.0021205 0.00536158 8.81993e-18)
(0.00102782 0.000771816 5.23447e-18)
(0.000977101 0.000812544 7.89152e-19)
(0.000189665 -0.000123629 1.69348e-19)
(0.000188354 -0.000135212 3.81967e-19)
(0.000196439 -0.000125093 -1.42414e-19)
(0.00856572 -0.0022894 1.70684e-18)
(-0.00366256 0.00108022 -6.39042e-18)
(-0.00385022 0.00111277 4.59245e-18)