/*--------------------------------*- C++ -*----------------------------------*\
| =========                 |                                                 |
| \\      /  F ield         | OpenFOAM: The Open Source CFD Toolbox           |
|  \\    /   O peration     | Version:  v2012                                 |
|   \\  /    A nd           | Website:  www.openfoam.com                      |
|    \\/     M anipulation  |                                                 |
\*---------------------------------------------------------------------------*/
FoamFile
{
    version     2.0;
    format      ascii;
    class       surfaceScalarField;
    location    "850";
    object      meshPhiCN_0;
}
// * * * * * * * * * * * * * * * * * * * * * * * * * * * * * * * * * * * * * //

dimensions      [0 3 -1 0 0 0 0];
oriented        oriented;


internalField   nonuniform List<scalar> 
20580
(
-0.000276989
0.000309816
-3.27996e-05
-0.000685981
0.000303606
0.000383409
-2.526e-05
-0.000659186
0.000152644
-0.000200127
4.74837e-05
5.44692e-05
4.07633e-05
-6.13939e-05
3.98247e-05
0.000575775
-0.000614592
-0.00043176
0.000675678
0.000106886
6.31415e-05
-0.000111319
-7.6606e-05
-9.40882e-05
0.000170694
-0.000176782
0.000981422
-0.000802201
0.000264076
-0.000451858
0.000187889
-0.00013042
-0.000533155
0.000672847
0.000789497
-0.000147432
-0.00064099
-5.90066e-05
0.000151391
-9.23844e-05
-0.000276642
0.000518875
-0.000241924
-0.000248481
-4.4308e-05
0.000292812
-0.00019297
0.000145597
4.73732e-05
-0.000922209
0.00028427
0.000643712
-0.000162738
-0.000106063
0.000268813
8.44608e-05
-0.000361418
0.000570806
-0.000221123
-0.000349389
0.000229676
0.000417317
-0.000646158
-0.000199542
9.57958e-05
0.000103747
3.80183e-05
1.42292e-06
-3.26335e-05
-0.000238035
5.61255e-06
0.000232428
-0.000445319
0.000271678
0.000173737
-0.000288295
0.000191853
9.645e-05
-9.00772e-05
-0.00014582
0.000235901
-0.000208244
0.000113554
9.46909e-05
0.000190271
0.000675222
-0.00084922
-2.71782e-05
0.000179558
-0.000152379
0.000304338
-0.00073446
0.000283037
5.56547e-05
-0.00033866
8.76659e-05
0.000116345
-0.00020401
-0.000317382
-0.000103936
0.000421481
0.000200296
-0.000237388
3.70924e-05
6.03968e-09
4.10437e-05
-0.00026693
0.000158072
0.000108862
0.000159155
4.53836e-05
-0.000204538
0.000928894
-0.00074061
-0.000184944
0.000168695
-0.000213043
4.43491e-05
-9.37122e-05
-0.000114531
-0.000101957
-5.72209e-05
-0.000307093
0.000247963
5.91379e-05
-0.000147879
-4.3472e-05
0.000191352
0.000182791
0.000681677
-0.000856228
0.00013362
-0.000250045
-9.74337e-05
0.000251287
-0.000153832
0.000905352
-0.000396953
-0.000506536
3.87184e-05
0.000751415
-0.000116993
-4.21849e-05
0.000159177
0.000937833
-0.000273183
-0.000663604
7.62957e-05
-0.000324751
-0.000593736
0.000452827
0.000141419
0.000121052
-0.000196955
7.59027e-05
0.000656458
0.000274891
0.000303527
-2.04625e-05
1.11697e-05
0.000157525
-0.000298329
0.000161264
0.000137074
0.000171536
1.27151e-05
-0.000184251
0.000532841
-0.000653283
-0.000201254
-8.70316e-05
0.000871453
-0.000898463
2.87882e-05
0.000383775
0.000523052
0.000298264
-0.000133907
-0.000164346
0.00018625
0.000112022
2.17748e-05
0.000149761
4.98328e-05
-0.000270012
0.00032172
0.000544682
-0.00086264
-0.000191429
0.000163255
2.81738e-05
-0.000110464
0.000165216
-5.47523e-05
-0.000262726
-0.000167124
0.000430032
-0.00093548
0.000626229
0.000311966
-0.000149923
0.000162638
0.000255908
-0.000556094
0.000300624
0.000320648
0.000372501
-0.000691981
-4.29163e-05
-0.000150054
-0.000991298
0.000169697
0.000850733
3.8318e-05
-0.000276347
0.000171844
-0.000942214
0.000779595
-0.000477485
0.0008028
-0.000267645
-6.13058e-06
0.000273788
-0.000561713
0.000244541
0.00014632
3.8893e-05
-0.000185213
3.02499e-05
-0.000180173
0.000125519
9.29477e-05
-0.000218466
0.000618107
-0.00038769
-4.55682e-05
0.000156803
-0.000111234
0.00085035
-0.000828819
-1.81077e-05
-0.000151772
0.000124595
0.000138751
0.00079962
-0.0003399
0.000645711
-8.99941e-05
-6.91834e-05
-5.19118e-05
0.000177431
-0.000211077
3.99066e-05
0.000171171
0.000200068
-0.000278909
7.88504e-05
-0.00124596
0.000510356
0.000742869
0.000185786
0.000160098
-0.000345856
-9.72786e-05
-6.36417e-05
0.00016092
-0.000349298
0.000182531
0.000166791
-0.000103
0.000288809
-0.000149313
0.000410038
-0.000260694
-0.000389552
5.62635e-05
0.000333339
0.000837877
-0.000948134
0.000112067
-0.000330247
0.00084389
-0.000505571
-0.000496095
6.94863e-05
0.000426785
-0.000944495
0.000623495
4.31701e-05
-0.000153633
-0.000663732
0.000325402
-0.000222133
-0.000693934
-0.000616044
0.000228471
0.000387944
-0.000766772
0.000958544
-0.000273213
-6.15612e-06
0.000279391
0.000411989
-0.000282258
-0.000129641
-0.000202549
-0.000107893
0.000310472
-0.000404869
-0.000188248
-0.000924215
0.000393425
0.00055096
-8.37243e-05
0.00025128
0.000137225
1.54187e-05
-4.17735e-05
-0.000149655
-0.000312066
6.1333e-05
0.00025075
0.00100762
-8.62852e-05
-0.000910178
-0.000522887
-0.00017479
0.00070045
0.000150516
-0.000198041
4.7526e-05
-0.000304643
3.65468e-05
0.00026811
0.000283009
-2.05006e-05
-0.000262504
-0.000361132
-0.000876997
0.000424535
-0.000300361
-0.000124065
-0.000110616
0.000201595
-9.09788e-05
-0.000462378
0.000430775
3.17855e-05
-0.000228539
0.000646616
0.000586205
4.80196e-05
-0.000633772
-0.000133767
-0.000133158
-0.000122276
0.000209943
0.000385832
-0.000121666
-0.000203133
9.51401e-05
0.000107993
-0.000288776
-6.36265e-05
0.000156574
-0.000494449
0.000197201
0.000297314
0.000313165
-0.000537368
0.000224414
5.49946e-05
-0.000322626
0.000152554
0.000553693
-0.000705218
0.000937461
-8.45184e-05
-3.13657e-05
0.000242592
-0.000211215
-0.000279054
0.00014999
0.000129068
-0.000774325
0.000417591
0.000357932
-8.46767e-05
-0.00087662
0.000127646
-6.45999e-05
-0.000101932
0.000166533
0.000346792
7.78179e-05
-0.000267504
0.000164523
8.50051e-05
-0.000358191
0.000275467
0.000136598
0.000142387
0.000159053
-0.000301426
0.000628851
-0.000893923
0.000265969
-0.00095719
0.000819428
0.000138853
-0.000689745
0.000732255
-2.97401e-05
3.57467e-06
0.000155581
-2.27531e-05
0.000309819
-0.000286902
-0.000784613
0.00041763
0.000368461
8.65307e-05
-7.91059e-05
1.84708e-06
0.000155823
5.85104e-05
-0.000214333
-5.62394e-06
-0.000490279
-0.000315896
0.000218492
-0.000162667
0.000103661
-0.000150128
0.000180719
-3.05903e-05
6.9969e-05
-0.000220097
6.52515e-05
-0.000182244
-0.000404047
-0.000211584
-0.000116306
-9.38202e-05
0.000210128
7.24867e-05
0.000548825
-0.000611519
-0.000175634
-0.000721254
0.000183849
0.000247658
-0.000431386
-4.30608e-05
0.000104354
-3.53452e-05
-1.95372e-05
-0.00019154
0.000208475
-0.000287801
7.9335e-05
-0.000247066
-3.71214e-05
0.000284207
-0.000838028
0.000686694
0.000333318
0.000228827
-0.000561714
8.23778e-05
-0.00032942
1.01045e-05
-0.000314733
-0.000107015
0.000576642
-0.000206842
-0.000369374
0.000117036
-0.000579158
-5.41652e-05
-0.000105012
-0.000148994
8.43939e-05
-0.000237647
0.000293329
-0.000590441
0.00050639
8.4162e-05
-0.000569544
0.000918154
-0.000347579
-0.00110643
0.000881663
0.000237423
-0.000158156
-0.000120893
0.000420118
-0.000442632
1.22777e-05
0.000139113
-0.000564022
0.000604824
-0.000308511
-0.000464532
0.000126094
0.000217041
-0.000343108
3.22165e-06
-0.000240845
-0.000739738
0.000910027
-0.000165658
0.000954683
-0.000151464
-0.000798769
0.000385547
-0.000185374
-0.000200163
0.000200738
0.00010069
-0.000301414
0.000212381
-7.50367e-05
-0.000137344
0.000128771
8.33707e-05
-0.000212141
-0.000522466
0.000246156
-0.000181915
0.000160576
2.13399e-05
0.000170567
4.18147e-05
-0.000394406
-0.000277421
0.00067196
0.000438377
5.02088e-05
-0.0004884
8.37175e-05
-0.000191305
0.000107587
-0.000523425
0.000660138
-0.000135867
-0.000291226
2.15161e-06
0.000289099
0.000208238
-0.000728476
0.000255744
8.40101e-06
-0.00028907
0.000284411
-0.000448444
1.68336e-05
0.000431781
-0.000167885
-0.000440923
0.000609669
0.000825736
-0.00078633
-0.000293032
0.000147953
0.000145091
0.000910958
-0.000903233
-3.21006e-06
-4.64628e-05
-0.000103633
-0.000714989
-9.66752e-05
0.000213963
0.00012949
-0.000343423
-2.65453e-05
0.000172866
0.000137447
7.42063e-05
-0.000211653
0.0005536
-0.00017212
-0.000381349
-5.21224e-06
0.000443762
1.0344e-05
-0.00013458
0.000129087
-0.000272321
0.000240968
0.000927432
-9.82352e-05
-0.000819753
-0.000552171
-0.000215847
0.000171112
4.47364e-05
-0.000424627
-0.000165649
-0.000690536
0.000168219
-3.84176e-05
-0.000773125
0.000179193
-5.0422e-05
0.000985475
-0.000777246
-0.000106993
-9.25476e-05
8.89925e-05
0.000104587
-0.000193579
-0.000166784
-0.000182485
8.78728e-05
3.60502e-06
-0.000248858
-9.06466e-06
0.000257929
0.000146813
2.17441e-05
-0.000168558
-0.00022583
7.79519e-05
-0.000335508
0.000465159
0.000165222
-0.000629953
-0.000206903
-2.49375e-05
0.000231847
-0.000141372
-0.000151646
0.000554565
-0.000220831
-8.23284e-05
-0.00019657
0.000288671
0.000274682
-0.000563027
-0.000194513
6.41723e-05
0.000130341
0.000319646
4.24189e-05
-0.000362033
-0.000168475
7.28163e-05
0.000156108
0.000683916
-0.000555475
-0.000127482
0.000286214
-2.53998e-05
0.000181223
0.000162376
-0.000197277
3.49018e-05
-0.000397514
-0.000696326
-6.17005e-06
0.00082912
-0.000823015
-3.65329e-06
0.000158426
0.000139001
-0.00029741
0.00023693
9.23284e-05
-0.000329243
0.00040224
0.000282296
-0.000435873
0.000430418
1.40971e-05
0.000305576
0.00109493
-0.000293031
-0.000798218
-0.000358706
0.000209416
-4.95249e-05
0.00029047
-0.00024091
0.000176512
0.000109083
-0.00028559
0.000226346
-0.000904133
0.000683834
2.52946e-05
0.000800936
0.000129084
0.000186613
2.57485e-05
-0.000212361
-0.00015353
0.000176445
-2.29147e-05
0.000302193
-0.000461215
0.000159189
0.000302436
0.000714469
-0.000253452
0.000263568
0.0001376
0.000158599
-0.000296185
0.000236321
0.000139062
-0.000375345
7.11971e-05
-0.000506878
1.14129e-08
0.000186602
-0.000109516
-4.96617e-05
0.000159177
-0.000607001
4.10193e-05
0.000566616
-0.000572186
0.000481792
9.07057e-05
-0.000135049
-7.84595e-05
0.000213512
-0.00120681
0.000813546
0.000402257
0.000665032
-0.000638108
-1.47153e-05
-4.21653e-05
0.000278514
0.000454293
-0.000233744
-0.000220434
-6.56744e-05
0.00086953
-0.000789032
-0.00022559
0.00029835
-6.52791e-05
0.000270354
0.000665183
6.70806e-05
5.82247e-05
-8.25591e-05
-0.000615821
0.000426367
0.000189878
-1.19455e-05
9.72115e-05
-0.000173817
0.000395679
0.000175337
-0.000961061
0.000234725
0.000730176
0.000174896
2.10281e-05
0.000129488
0.000886335
-0.000624576
-0.000260625
0.00029845
-0.00013363
0.000159177
-2.55473e-05
0.000683201
-0.000529748
0.000734229
0.000152767
7.30588e-05
0.000322829
0.000146955
3.68067e-05
-0.000183762
-0.000171148
0.000198566
-2.74161e-05
-0.000113709
0.000381182
-0.000267375
-5.34307e-05
0.000142813
0.000110934
-0.000227238
0.000614412
-0.00020799
-0.000174029
0.000382099
3.77193e-05
-0.000171349
0.000215081
6.11436e-05
-0.000276219
-0.00020481
-0.00057772
5.98436e-05
-0.000194889
0.000300991
-0.000163631
-0.000137353
0.000202231
-7.89655e-06
-0.000194334
0.000190236
-0.000327627
0.000137415
-0.000428374
0.000174772
0.000253619
-7.36495e-05
-0.000129483
0.000114665
-0.000229459
0.000114794
-0.000230968
0.000140895
0.000315563
0.000642984
0.000177665
-5.92208e-05
-0.000118444
-8.19635e-05
-7.7214e-05
-0.000199764
0.000196081
3.68389e-06
-4.49524e-06
-0.000195267
6.46541e-05
-0.000459033
0.000192492
-0.000423521
0.000231132
0.000605706
-0.000228194
-0.000377225
-0.000140731
9.5163e-05
-0.00043829
0.000192603
0.000245709
-0.000285679
0.000288053
4.40726e-05
0.000398142
-0.000199624
-0.00066768
0.000160616
0.000507665
0.000168717
3.35141e-05
-0.000164319
-0.00021083
-0.00098534
0.000177354
0.000588837
-0.000421857
-0.000166726
0.000115119
0.000471455
0.000525489
-0.000106503
-5.30959e-07
0.000147486
7.00812e-05
-0.000323518
0.00029336
-0.000760627
0.00059385
-0.000559116
-0.000130301
-0.00011754
-6.42255e-05
0.000181766
0.000270279
-0.000838864
0.000280001
-0.000639575
3.33792e-05
-0.000306729
0.000379989
0.000144111
0.000444966
2.88191e-06
-4.5504e-05
-0.000910888
-0.000319409
1.97842e-05
0.000299651
0.000307027
-0.000124474
0.000255701
6.83768e-05
-0.00032405
0.00016723
9.70999e-05
-0.000214639
-0.000134624
0.000553034
0.000172364
-6.84897e-05
-0.000207634
0.000276138
0.000958803
-2.18315e-05
-0.000921571
-2.13409e-05
0.000236427
-0.000375395
2.92352e-05
0.00034621
9.63409e-05
-0.00019362
-0.00041308
-0.000253852
-0.000101124
0.000369308
-0.000133989
-0.000164331
-0.000122048
-0.000119329
0.000241382
0.000284777
6.96202e-05
-0.000354367
8.3913e-05
8.99084e-05
-0.000173821
-0.000397328
-0.000244387
0.000643614
0.000217829
-9.3472e-06
-0.000186867
8.49108e-05
0.000616173
-0.000244512
-0.000371156
-8.9537e-05
-0.000104976
-0.000582351
0.000411148
0.000171604
-4.35953e-05
0.000185651
-0.000142055
-0.000434108
-0.000137655
-0.00048611
0.000251442
0.00029222
6.30314e-05
-0.000355222
-0.000331789
9.68831e-05
0.000234919
-0.000279871
-0.000676313
3.45646e-05
0.00056608
-0.000599726
0.000274131
0.000180253
0.000485112
-0.000750066
0.000822936
-6.6839e-05
0.000387622
-8.52789e-05
-0.000214164
0.00020898
5.18468e-06
-0.000477242
-0.000456296
0.000519123
-0.000468725
0.000146011
2.60506e-05
-0.000172062
0.000720263
-0.000103038
-0.000615759
0.000263098
-0.000162779
-0.000100315
-0.000374664
-3.70115e-05
0.000411855
-0.000221613
5.04661e-05
0.000508953
0.000152012
-0.000237232
-0.00020797
5.98876e-05
-0.000241801
0.00027349
0.000363755
0.000145104
-0.000508669
-1.92076e-07
0.000162568
0.000177063
1.15992e-05
-0.000260451
0.000466628
0.000632044
1.39585e-05
-0.000333341
-0.000555881
7.04542e-05
0.000485783
0.0002972
-0.000398235
0.000112328
-0.00088107
0.000778026
-7.95887e-05
-7.95887e-05
-0.000224577
0.000104633
0.000119945
-0.000217638
-8.9123e-06
0.000226555
-0.000663271
0.000105254
0.000306345
0.000207346
8.60937e-05
-0.00029343
2.48551e-05
-0.000178385
0.000277002
-0.000897693
0.000642809
5.54202e-05
0.000122244
0.000209527
0.000106699
-0.000316211
-0.000123352
0.000194985
-7.16321e-05
-0.000160129
0.000449066
-0.000286001
0.000204536
8.1471e-05
-0.000902567
0.000624433
0.000280075
2.82597e-05
-4.61464e-05
0.000159177
-3.81252e-05
0.000134457
-0.000256828
0.000122379
-0.000844259
0.000669606
-0.000172691
0.000477186
9.35094e-05
0.000425783
-0.000873306
0.000248579
0.000649307
-0.000102618
-0.000121957
0.000380234
-0.000187649
7.65788e-06
-0.000382997
-0.000462608
-0.000144147
0.000607729
-0.000721294
0.000326313
0.000535588
0.000296914
-0.000832467
0.000136869
-0.000258912
0.00109417
-0.000854809
0.000845653
-0.000310161
0.000259628
-9.65022e-05
-0.000163123
1.31596e-05
-0.000227322
0.000405527
-0.000633346
0.000285804
-0.000120132
-0.000165661
0.000807632
6.37522e-05
1.6752e-05
-0.000641279
0.000188798
0.000532845
0.000298145
-0.000360801
-9.04846e-05
0.000451485
-0.000626891
0.000852299
-0.000220715
5.47386e-05
-0.000692301
0.000639712
-0.000204401
-0.00010765
-0.000876403
0.000265879
0.000612819
-0.000114215
-6.92424e-05
0.000183459
-0.000832321
0.000525478
0.000320618
0.000555952
-0.000638865
8.37249e-05
0.000153605
-0.000197077
-0.000516437
0.000290747
0.000225802
-0.000246892
-3.16308e-05
0.000335762
4.63893e-05
-0.000605018
0.000567337
0.000203919
-0.00066557
0.000329868
-0.000906943
0.00058102
-0.000268701
6.64537e-05
0.000202253
-0.000128946
-8.40076e-05
0.000212956
-3.78391e-05
0.000503362
-4.67287e-05
0.000137909
-9.11797e-05
-0.000473151
0.00079727
-5.80917e-05
-0.00073076
0.000140118
4.75388e-05
-0.000187657
0.000151823
0.000146885
0.000276642
-0.000423429
-0.000340555
-0.000432883
0.000776105
-8.33763e-05
-0.00014817
-0.000346202
2.27968e-05
-0.000179106
0.000156311
0.000156221
0.000683129
0.000456267
-0.000634187
0.00017836
0.000304587
-0.000171696
-0.000331877
0.000503935
-0.000106291
-0.000123168
-1.38812e-05
0.000221234
5.0167e-05
-0.0002678
0.000242618
-0.000537857
0.000295804
0.000275262
0.000985948
-0.000907504
-7.3974e-05
0.000172064
0.000173391
-0.000547833
-0.000197542
0.000200783
8.68392e-05
-0.000642277
-0.000438779
-0.000261929
-0.000254354
-0.000239556
-4.07486e-05
0.000109026
-7.1718e-05
-9.02074e-05
0.000161925
0.000171922
-3.18032e-05
-0.000229065
0.000114851
-0.00010685
0.000153292
-4.64419e-05
0.000130685
-0.00017021
2.58506e-05
0.000144359
0.000250939
0.000207368
-0.000574151
0.000366975
-6.06378e-06
0.000430137
-0.000420455
0.00019199
7.11113e-05
0.00088027
0.00010262
0.000131634
-0.000875158
0.000522714
-0.000173089
-0.00034948
0.000194962
8.24772e-06
-0.00020321
-0.000729686
0.000643601
8.76588e-05
-0.000454308
-0.000266157
0.000721329
1.07635e-05
-0.000251309
0.000240581
-0.000270608
0.0004236
-0.000152851
-2.81514e-05
-0.000729383
0.000758088
0.000196156
-0.000232202
3.60484e-05
0.000329805
0.000541283
-0.000864378
8.83163e-05
0.000110083
-0.000198399
2.46199e-05
-0.000293313
0.000814206
-0.000634526
1.67458e-05
-0.0006424
0.000627446
0.000132699
0.000157177
-0.000289864
0.000237661
0.000937074
-0.000189807
-2.60264e-05
0.000215837
0.000212195
-2.0202e-05
0.00106092
-0.000157542
-0.000890571
0.000104904
9.23781e-05
-0.000197282
-0.000285698
0.000122971
0.000169281
0.000155164
-0.000324418
0.000580156
-0.000336856
-0.000243537
0.000147038
0.000110719
-0.000191457
8.07388e-05
0.000407343
0.000663454
-0.000311932
0.000214822
9.71207e-05
0.000163486
0.000732619
-0.000892088
0.000846579
0.00018775
6.04014e-05
-0.000248148
-0.000158154
0.000114559
0.000169007
0.000344244
-0.000512953
0.000123215
-0.000483805
-0.00084325
5.74172e-05
0.000786993
-0.000336317
-4.21477e-05
0.000378571
9.26249e-05
-0.00020324
0.000136693
5.83227e-05
-0.000195016
0.000802417
9.86816e-05
-0.000891945
-5.0947e-05
-9.04543e-05
0.000141401
0.000202153
0.000711369
0.000433411
0.000459683
0.000174682
-0.000633722
-0.000547605
0.000844965
0.000677429
-0.000303976
6.88858e-05
0.000131772
-0.000200657
-0.000144766
-0.000187005
0.00017379
-0.000663704
-6.41997e-05
-0.00083278
1.24289e-05
0.000157429
5.83084e-05
-0.000215737
0.000576611
-0.000452936
-0.000117765
0.000287056
-0.000361418
7.43911e-05
0.000548322
3.6407e-05
-0.000583885
0.000226188
0.000340177
-0.000565921
0.00032631
-0.000633472
0.000307592
0.000125406
8.3036e-05
-0.000208441
7.30951e-05
-0.000182611
0.000607867
-5.26538e-05
-0.000554323
-6.79391e-05
-0.000118928
0.000786221
-0.000639605
-0.000144368
0.000455163
-0.00026135
-0.00019371
0.000116333
-0.000210045
-0.00011281
-8.41452e-05
-0.000541466
-0.000239728
0.00078432
0.000696003
-0.000356905
-3.26172e-05
-2.16364e-05
0.000153409
0.000301847
-0.000123615
-0.00017822
-0.000429792
9.35993e-05
-0.000144626
0.000167425
-4.6999e-05
0.000507273
-0.000607111
0.000173393
-0.000140309
-7.55376e-05
0.000132635
-0.000245239
0.000112606
-0.00028837
-4.47197e-05
0.000333116
-9.052e-05
0.000178837
-0.000287888
4.22075e-06
0.000283684
0.000197568
-0.000115453
-8.21144e-05
0.000206804
0.000539514
-0.000743746
-7.08582e-05
0.000232128
-0.000162582
-0.000123413
4.04836e-05
-0.000714017
0.000681549
7.63983e-05
-0.000166392
0.000120198
-0.000237544
0.000117348
0.000172977
0.000430398
-9.64758e-06
-0.000736085
0.000748704
0.000123609
-0.000170337
-0.000260388
-8.62525e-05
0.000346699
-0.000162589
-3.55305e-05
0.000198121
0.000485225
0.000612803
6.46361e-05
-7.81446e-05
3.42126e-05
-0.000489869
-0.000100465
0.000590467
0.000206328
-0.000476774
-0.000147707
-0.000669869
0.000175426
-3.95506e-05
0.000124666
9.38497e-06
-0.000297256
-0.000413609
-0.000216992
0.000631187
0.000367813
-7.05345e-05
-0.000417323
-0.00052853
0.000579841
-0.000607556
0.000400635
-0.000506548
0.000106064
-0.000152425
0.000101478
0.000284533
0.000212663
-0.000497008
0.000169347
0.00050465
0.000752499
1.25858e-05
-0.000745208
-0.000682863
0.000849334
-0.000156063
0.000422615
-0.000174843
-0.000538124
0.000594699
-0.000357458
1.55013e-05
0.000342002
-3.54214e-05
-0.000595423
0.00063214
-0.000246519
0.0003935
0.000211962
-0.000282813
-0.00055869
2.28648e-05
0.000538724
0.000108663
6.94178e-05
-0.000178081
0.00019943
-0.000184667
7.20343e-05
0.000304009
-0.000375994
0.000105835
-0.000173774
0.00016202
-0.000221272
5.92522e-05
-0.000487692
-0.000231756
6.91689e-05
-0.000265565
0.000276369
0.000194645
0.000131268
-0.000325896
-6.85006e-05
0.0001887
-0.000929762
0.000132024
0.000805643
4.12538e-05
0.000154904
0.000184095
0.000355673
0.000260954
-0.000192103
8.52531e-05
0.000283483
-0.000167207
-0.000116269
0.000273832
0.000696269
1.92023e-05
-0.000376609
-0.000842934
0.000107677
0.000117419
8.01495e-05
-5.09772e-05
0.000148772
-9.77948e-05
-0.000979215
0.000463426
0.000518274
0.000115543
0.000167533
-0.000243879
7.63473e-05
-3.10785e-05
-0.000160305
0.000195845
0.000214792
-0.000242081
-3.45937e-05
0.000306344
-5.30222e-05
0.000161685
0.000148273
9.62688e-05
-0.000244539
0.000194326
0.00054029
0.000243319
0.0001133
-0.000356589
-0.00067949
-0.000194445
-0.000565593
-0.000275818
0.000842336
-0.000254389
2.16206e-05
0.000232776
0.000306377
-0.000104995
-0.000208083
0.000313106
0.000928972
-0.000703779
-0.000196586
-0.000235202
0.000185703
0.000247377
-0.000405994
0.000158697
0.000432945
-0.000184368
-0.000248455
0.000351666
-0.000653088
0.000301714
0.000415532
-0.000722806
0.000137282
-0.000397602
-0.000110781
-0.000378953
-0.000133476
-0.00018239
-0.000482183
0.000219638
0.000286327
-0.000453275
5.74337e-05
-0.000345771
4.12984e-05
-0.000220402
-0.000256204
0.00015015
-0.000216524
3.27431e-05
0.000183783
-0.000262938
7.31348e-05
9.56443e-06
-0.000277052
-0.000120385
0.000191665
-7.12798e-05
-0.000537834
0.000399438
0.000138567
0.000215734
-2.79811e-05
0.000298797
0.000883151
-0.000682293
-0.000194789
-0.0003855
-0.000221177
-5.98358e-05
-0.000196355
-0.000643901
0.000281595
0.00036293
-0.000894102
-3.82114e-05
9.80031e-06
0.000842124
-0.000842016
0.000242966
0.000138467
-0.000381383
0.000161176
-7.72626e-05
-5.97363e-05
0.000616415
-7.18158e-05
0.000176403
0.000812991
-3.915e-05
0.00022802
-7.97429e-05
-0.000273944
1.26683e-05
0.000261296
-0.000121458
0.000159177
0.000373025
-0.000353774
0.00060229
-9.2556e-05
0.000621978
-0.0006458
-0.000193647
7.21887e-05
-0.000281005
0.000176031
-0.000195684
-0.000341943
0.000220558
-0.000333685
-0.000384754
-7.04582e-05
-0.000173389
0.000243851
0.000315042
0.000310704
-0.000301301
0.000314592
-0.000615061
0.000300893
-0.000162988
-0.000100954
0.000263952
-0.000517618
-0.00038331
0.000211382
-0.000739865
0.000462658
0.00043433
-0.000998932
8.18451e-05
-0.000201047
0.000119202
-4.45138e-05
0.000145026
4.74337e-05
-0.000301814
0.000183178
4.22705e-05
0.0003308
0.000126305
6.61052e-05
-0.00019241
-0.00014562
8.19784e-05
3.56542e-05
0.000275066
0.00026499
-7.03316e-05
-0.000213176
-0.00027445
-0.000611472
0.000772867
-0.000747112
-0.00106794
0.000533664
0.000558863
-0.000841339
0.000169268
8.53966e-05
-0.000220634
-0.00018789
0.000408622
-0.000377469
0.000263154
0.000114342
-0.000148697
0.000396138
-0.00025002
0.000104206
-0.00050392
0.000690546
-0.000185291
0.000180929
7.79144e-05
-7.79144e-05
-8.5879e-05
-0.000114248
0.000488344
-0.000217726
-0.000270416
0.000109028
-2.90005e-05
-0.000760915
0.00076085
7.31277e-07
0.000183263
2.26794e-05
-0.000205942
0.00065676
-8.0071e-05
-0.000257711
0.000202821
5.48934e-05
0.000163398
-0.000231897
-0.000227378
-0.000357855
3.75834e-05
0.000320339
0.000876579
-0.000883847
1.91482e-05
0.000208288
-9.19424e-05
-0.000671651
0.000294167
0.000378103
0.000688005
-4.28999e-05
0.000233589
0.000611257
-0.000611671
1.31019e-06
0.000816584
-0.00026173
-0.000953258
0.000688621
0.000271396
-0.000482204
0.00025309
0.000229308
0.000118726
6.66044e-05
-0.00018533
0.000649531
-0.000274451
-0.000374522
0.000181921
0.000420565
-0.000602077
-4.64348e-05
0.000255975
-3.84425e-05
0.000175136
0.000266805
0.000239646
-0.000620615
0.000315734
0.000305311
0.000100584
-0.000218045
0.000117461
-0.000474777
-0.000566154
-0.000136803
0.000192171
-0.000184808
6.03566e-06
0.000728224
-0.000460388
0.00019375
-0.000260845
6.71008e-05
0.000399144
-1.91926e-05
-0.000379886
-0.000364947
0.00016243
-0.00023923
0.000363301
-0.000124025
0.0004298
0.000166198
0.000292962
-0.00045764
6.87652e-05
-6.87652e-05
0.000256339
0.00019891
-0.000509271
0.000718632
0.000310261
-0.000143769
-0.000310546
-0.000275362
0.000586655
-0.000256715
0.000262882
-6.1543e-06
-0.000518075
-6.29457e-05
0.000601145
0.000137326
0.000163152
-0.000300462
-0.000233233
7.96255e-05
0.00021258
-0.000292202
-0.000357584
0.0001184
0.000217704
-0.000153374
-6.43295e-05
0.000436312
-0.000239057
6.05266e-07
0.000232972
0.000128338
-0.00036128
0.000214175
-0.000780952
0.000584208
0.000550925
-0.000515527
-0.000252507
3.59842e-05
0.000156139
-0.000220364
0.00017389
-8.82592e-05
-0.000129784
0.000959789
-0.000127935
-0.000828505
-0.000368256
-0.000608058
4.46677e-05
0.000262441
-0.000307063
0.00028847
0.000412293
-0.000699541
0.000914284
-0.000928252
2.37827e-05
0.000188907
-9.311e-05
-0.000119131
0.000277573
0.000169914
-6.94186e-05
-0.000100495
0.000306797
4.60551e-05
0.000353147
-0.000473967
-0.000365574
0.00084043
0.000903093
-0.000215445
-0.00012982
-0.000112955
0.000242779
0.000366656
-0.000358945
6.62529e-05
0.000259713
-0.000299903
4.12943e-05
-0.000264839
0.000156968
0.00015148
-0.000315156
0.000163697
0.000113836
-0.000212727
0.000842302
-5.39334e-06
-0.000388464
0.000407339
-4.13159e-05
0.000160042
-0.000332105
0.000684077
-0.000591912
0.000352062
0.000240254
-0.000711327
-0.000133147
0.000168666
3.70085e-05
-0.000205675
-1.45599e-05
-0.000101932
5.80924e-05
-0.000177021
-0.000784318
0.000880043
-9.34422e-05
-0.000343632
0.000176877
0.000233854
0.000277648
-0.000511227
-6.18646e-05
-0.000252267
0.000314174
0.000496861
-0.000159402
0.000788304
0.000157511
-0.000590883
0.000434428
0.000136798
0.000394348
-0.000504711
-0.000280239
0.000188152
9.20954e-05
0.000786351
-0.000297289
-0.000488404
-7.81423e-05
-0.000119135
0.000733263
-0.000397135
-0.000334154
-2.05299e-05
0.000213477
-0.000192943
-0.000207959
0.000137989
6.99705e-05
0.000566673
-0.000236372
-0.000329873
-0.000421881
0.000140888
0.000307902
-0.000212446
0.000128277
8.41687e-05
0.000138214
-0.00022481
8.65985e-05
0.000110608
0.000498032
0.000367374
-0.000386502
0.000830628
-5.69046e-05
-0.000121416
0.000159178
-3.7761e-05
0.000158504
0.000730373
-0.000228274
0.000168449
0.000156212
-0.000839967
0.000690827
-0.000267023
0.000424014
-3.3568e-05
-0.00022414
0.000491872
-0.000586593
0.000641405
5.39158e-05
0.000399286
-0.000187417
0.000121623
6.5794e-05
0.000215543
-0.000109874
-0.000105668
-4.43129e-05
0.000211848
-0.00110162
0.000717013
-0.00018223
6.18458e-05
0.000814497
-0.000582993
1.32887e-05
-0.000506122
-0.000357374
-0.000535385
0.000169007
0.000276572
-0.000311629
-2.49648e-05
0.000340339
0.000104904
-0.000224265
0.000119363
0.00012326
-0.000239551
0.000116293
0.000176093
0.000738634
0.000130181
1.48078e-05
-0.000344448
0.00051374
-0.000787149
2.5086e-05
-7.63098e-05
-0.000136136
0.000302619
9.92802e-05
0.000122532
-0.000196181
-0.000353983
0.000512462
0.000157021
-0.000681863
0.00073005
-0.000507842
0.000286996
-0.00032724
5.33234e-05
-0.00101226
9.16939e-05
0.000185119
1.55278e-05
0.000213192
7.63962e-05
-0.000289582
-0.000143206
9.22283e-05
0.000111562
-0.000469323
9.1432e-05
-0.000116573
0.000357143
-0.000240472
-0.000173823
-0.000721331
0.000222055
-0.00050638
0.000284556
1.7193e-05
0.000350239
-9.57073e-05
-6.56193e-05
0.000161327
-0.000377734
-0.000237627
-0.000145957
0.000256227
-0.000110265
3.27543e-05
0.00033395
-0.000300966
8.18927e-05
0.000149596
-0.000204547
5.49522e-05
0.00016949
-1.9893e-05
0.000169193
-0.000109035
-6.01577e-05
0.000125332
0.000146895
8.84586e-05
-0.00023535
-0.000665012
0.000127764
1.40733e-05
-0.00022097
-0.000284953
0.000158018
0.000126942
-0.000267115
-0.000376081
-8.8966e-05
-0.000149469
-0.00015268
-2.60161e-05
0.000178698
-0.000473457
-0.000206206
0.00068106
-0.000116677
-0.000276569
-0.000860334
0.000321865
0.000326365
-0.000798182
0.000176914
-0.000126631
-0.000896353
6.96754e-05
0.000838121
0.00048812
-0.000265842
0.000147874
-0.000174419
0.000728755
-0.000631911
-9.52929e-05
-0.000195198
9.01861e-05
0.000670826
-0.000183526
-0.000486734
0.000375459
-0.000176598
-0.0001988
-0.00021733
0.000156531
6.07988e-05
0.000598487
0.000134282
0.000167576
6.72135e-05
0.000338743
-0.000405573
0.000239636
0.00032743
0.000138386
7.71576e-05
-0.000708677
0.000261305
-0.000328913
6.7622e-05
0.000195838
-0.000133991
-5.34252e-05
-0.000874685
0.000183678
0.00069537
0.00017061
-8.16214e-05
-8.89882e-05
-0.000622973
0.000378976
6.90815e-05
-0.00016743
9.83485e-05
-7.17843e-05
-9.11551e-05
0.000162939
8.54331e-05
8.51766e-05
0.000547201
-0.00033586
-0.000211131
0.000844788
-0.000678195
-0.000164362
0.00075
0.000213107
0.000165285
3.7904e-05
-0.000198967
-0.000244193
0.000215899
-0.000865583
0.000652531
9.53048e-05
0.000375726
-0.000582127
0.000581346
-0.00021629
-0.000364822
0.000444795
-0.000177956
-0.000492926
-0.000171322
-0.000268044
-0.000819803
-0.00065785
0.000393994
0.000264768
0.000283957
0.000402811
-0.000686119
-0.00049008
0.000508238
0.000525064
9.36312e-05
-0.000155999
0.000198596
-4.25955e-05
-0.00028296
0.000163068
0.000119901
0.000593958
-0.000371142
-0.000222273
0.000274327
-0.000428244
0.000154042
9.65124e-05
-0.000249191
0.000363299
-0.000180991
0.000173095
0.000314932
-0.000762987
0.000207919
-0.000527506
0.000319863
0.000577852
0.000208974
-0.000902542
0.000219136
0.000688731
0.000373064
0.000103856
-0.000476766
0.000767083
3.79294e-05
-0.000932088
4.91104e-05
-0.000277101
-0.000151246
0.000750012
7.00749e-05
3.61271e-05
-0.000292829
0.000132069
-0.000668217
8.27792e-05
-0.000158512
7.5733e-05
0.000156721
0.000109449
-0.000266163
0.000289117
-0.000115813
-0.000173289
-0.00018551
-0.000126408
0.00086965
-0.000127948
-0.000736783
0.000184628
-0.000150002
-0.000156141
0.000306166
1.51558e-05
0.000566101
-0.000746179
0.00048095
-0.000209574
2.85829e-05
-0.000336183
-0.000295126
0.000631741
-0.000302397
-0.00024771
0.000226374
-4.02504e-05
0.000186262
9.36218e-05
0.000315036
-0.000408595
0.000818177
-0.000713197
-0.000101014
-0.000100423
-0.000288809
4.11054e-05
0.000207299
0.000424503
-0.000356886
-0.000721399
0.000753169
0.000751252
0.000120306
-0.000862639
-0.00032682
0.000213185
-0.000502805
-0.000262972
0.000767754