/*--------------------------------*- C++ -*----------------------------------*\
| =========                 |                                                 |
| \\      /  F ield         | OpenFOAM: The Open Source CFD Toolbox           |
|  \\    /   O peration     | Version:  v2012                                 |
|   \\  /    A nd           | Website:  www.openfoam.com                      |
|    \\/     M anipulation  |                                                 |
\*---------------------------------------------------------------------------*/
FoamFile
{
    version     2.0;
    format      ascii;
    class       volVectorField;
    location    "600";
    object      ddtCorrDdt0(U);
}
// * * * * * * * * * * * * * * * * * * * * * * * * * * * * * * * * * * * * * //

dimensions      [0 1 -2 0 0 0 0];


internalField   nonuniform List<vector> 
13917
(
(-0.00319484 0.0039346 5.92177e-18)
(0.0107067 -0.00176811 2.53268e-19)
(0.00279434 0.00287334 -1.37296e-17)
(0.000117443 -0.000104304 -2.44058e-18)
(0.00222974 -0.00613517 -2.96059e-19)
(0.0104275 -0.000224718 8.9478e-20)
(0.000457157 -0.000290988 -1.3402e-18)
(0.0164301 -0.0309599 -1.28495e-19)
(0.000132338 -0.000457195 8.292e-18)
(-0.00106476 -0.0100407 -6.02598e-18)
(0.0156682 -0.0269606 4.54644e-20)
(0.000101224 -3.28759e-05 -1.11716e-18)
(2.92041e-05 -1.28767e-06 -5.62368e-19)
(-0.118581 -0.0916218 -3.41775e-18)
(0.00195742 0.00303605 2.35031e-19)
(-0.0025898 0.0024612 -1.07531e-17)
(2.10365e-06 2.28003e-06 1.23977e-20)
(0.00762102 -0.0236147 -9.09642e-21)
(-0.00221257 0.000492725 -3.46624e-19)
(0.0156986 0.0166586 -6.60162e-18)
(-0.00338825 -0.00135488 -5.05226e-19)
(4.8352e-05 -6.75369e-05 -1.00624e-19)
(0.000643714 -0.001204 4.18848e-18)
(6.5801e-05 -8.00782e-05 -1.13047e-19)
(8.23277e-05 3.61895e-05 -2.65598e-18)
(-0.00393031 -0.00325592 1.42071e-19)
(0.0822668 0.0584771 -1.06052e-18)
(-0.00333569 -0.0073789 3.36575e-18)
(-0.00289109 -0.0121533 -1.58594e-19)
(-0.000101098 -0.000102209 -2.63524e-20)
(0.00626974 -0.0103669 -4.62472e-18)
(0.000245077 -0.000670451 -6.55325e-19)
(0.000105694 -3.34009e-05 3.59679e-18)
(-0.0100293 0.00447292 -6.09086e-19)
(0.00028515 0.000134741 -9.90051e-20)
(0.0266258 -0.0323684 1.24495e-19)
(0.000202392 -0.000572665 2.71487e-19)
(6.07545e-05 4.21114e-07 -9.94674e-19)
(0.00045356 -0.000324854 5.72818e-18)
(-0.00127242 0.00364711 7.2372e-19)
(-9.96976e-06 5.0025e-07 -1.64688e-19)
(4.50822e-05 0.000895824 -4.77258e-19)
(0.000100633 -0.000363219 5.94887e-18)
(-0.000283537 0.000562299 1.75154e-17)
(-0.000488421 0.000480864 -8.57003e-18)
(0.0119462 -0.027859 1.24596e-18)
(-0.00277873 -0.00115265 8.37927e-19)
(-0.0152368 0.0777255 9.71828e-18)
(0.0744067 0.0256133 -2.06245e-19)
(0.000302155 7.36098e-05 -1.17974e-19)
(0.000100979 -3.16337e-05 -8.76622e-19)
(0.0023099 -0.0117268 -7.9349e-18)
(-0.0116125 -0.000135201 -3.93294e-18)
(0.000153364 -5.012e-05 -1.89515e-18)
(0.000157933 -6.71545e-05 -1.04645e-18)
(0.000988639 -0.0111385 8.13111e-18)
(0.0028614 -0.00113669 -5.54867e-18)
(0.000711786 -0.00118994 -2.25551e-18)
(-0.000117963 0.000738513 2.16828e-19)
(0.0155708 -0.0272147 -3.6527e-19)
(-0.0749515 -0.106501 -2.9264e-17)
(0.00603766 0.0060116 3.86655e-20)
(-2.38882e-05 -5.59551e-07 3.73914e-20)
(8.98721e-05 2.08921e-05 2.22146e-18)
(-0.00667131 0.0151928 2.3375e-17)
(-0.0143359 -0.00549582 -1.0401e-19)
(-0.000827365 -0.015681 -1.77837e-19)
(0.0290441 -0.028187 -5.00789e-20)
(0.00889667 -0.0274892 -1.53922e-19)
(-0.0111275 0.000777528 -9.54304e-18)
(-0.00470472 0.0126585 4.16762e-18)
(-0.00977713 0.00403721 2.53913e-18)
(5.38768e-05 -0.000135116 4.21412e-18)
(-6.33869e-05 0.000547495 -5.69417e-20)
(-0.00384702 -0.000914968 1.78854e-19)
(-5.77084e-05 -6.1882e-06 2.26944e-19)
(-0.000112633 -0.00205115 3.09228e-20)
(-0.000152012 0.000441694 2.19589e-20)
(-3.14287e-05 -1.71663e-05 2.28556e-18)
(0.000105582 -3.09751e-05 -1.06553e-18)
(0.000190197 0.000188605 -4.60132e-19)
(1.09342e-05 9.17565e-07 4.83975e-21)
(4.95618e-05 -0.000132393 -3.71e-18)
(-0.00530559 0.00105281 2.96946e-18)
(6.85202e-05 -1.1437e-05 2.05539e-18)
(-0.0355247 -0.0470195 4.88746e-19)
(0.000243835 -0.000714186 -2.35538e-18)
(6.5509e-05 -4.48793e-06 -8.42325e-21)
(-0.00167277 0.00325936 -1.00894e-18)
(-6.09325e-07 2.9239e-06 5.13583e-21)
(-8.82093e-06 4.94119e-06 -1.07714e-19)
(9.64753e-05 -0.000376031 -1.84394e-18)
(0.0763462 0.0452168 -3.70265e-19)
(1.14493e-05 0.000128779 -3.93293e-20)
(0.00027411 -8.183e-05 6.68799e-19)
(-0.00347525 -0.0142795 8.44917e-19)
(0.0357372 0.0674546 -1.60921e-18)
(3.02827e-05 2.60929e-06 -5.04587e-22)
(6.51255e-05 -5.50205e-06 -5.60845e-19)
(-0.00600457 0.0356743 -4.84334e-19)
(-1.70881e-05 -3.89115e-07 -3.51933e-20)
(-2.04009e-05 4.86563e-07 3.01506e-20)
(0.000229746 0.000191457 3.89479e-19)
(3.76716e-05 2.25186e-06 -6.42995e-20)
(0.000233447 -0.00191352 -2.21848e-19)
(-0.00454206 0.00131767 8.98186e-18)
(-0.0113774 0.039415 2.39362e-18)
(0.00490363 0.00798119 -4.09012e-19)
(-1.23472e-05 0.00121223 1.81828e-21)
(0.0981316 0.0557081 1.41923e-18)
(1.07912e-05 -1.30436e-05 -3.03577e-18)
(-0.00965651 0.00552548 7.02104e-19)
(-0.00493395 -0.0107243 1.80675e-19)
(-0.058528 0.0873017 6.44268e-18)
(-0.00581096 0.0142673 -2.5525e-17)
(-0.000164665 -6.53227e-05 2.1522e-18)
(-0.0019174 0.000179846 -4.592e-18)
(-1.6094e-05 3.14336e-06 1.2133e-19)
(0.00102212 0.00311036 -6.25199e-18)
(2.21694e-05 -0.000119887 7.64542e-19)
(1.12112e-05 1.24571e-06 1.18425e-19)
(3.22503e-05 0.000241015 2.90286e-20)
(-0.00108343 -0.0184352 -2.01748e-19)
(-0.00206046 -0.0036884 2.1754e-18)
(-0.0116757 -0.000322996 -1.10291e-17)
(-0.0048976 0.00128964 2.10391e-17)
(0.000104818 2.19587e-06 -1.36758e-18)
(-0.0045631 -0.000976207 -1.37956e-19)
(3.02436e-05 4.88446e-05 5.35014e-21)
(-0.00235848 -0.00345681 -1.73775e-18)
(0.00033406 -0.000719371 -2.82473e-18)
(0.0310815 0.000671669 1.46111e-18)
(-0.00239389 -0.00276533 4.92383e-18)
(-0.000165286 -0.000114839 1.38716e-18)
(0.000160595 -0.000412729 2.71258e-18)
(0.0959365 0.0667347 -1.43593e-18)
(-0.0406198 -0.09672 6.63477e-18)
(-0.00906316 -0.000453889 1.02381e-19)
(-0.0044002 -0.00478981 -4.66208e-21)
(4.04291e-05 3.17382e-07 -6.46592e-19)
(-0.0452685 -0.0274655 -1.70761e-20)
(-8.71417e-05 0.000334074 -2.66823e-21)
(-0.00438586 0.00191311 -9.36684e-18)
(8.08268e-05 2.28034e-05 -8.59775e-19)
(5.52439e-05 -0.000115097 2.0057e-18)
(-0.00210825 0.0037119 2.81698e-19)
(-0.00465012 0.0114613 -1.08131e-18)
(-0.0319142 0.0515738 3.75207e-18)
(0.0163068 0.0683425 6.02061e-18)
(0.000159795 -5.63336e-05 2.81961e-18)
(-0.00160471 0.00233797 4.13099e-19)
(-2.49765e-05 4.89216e-07 5.49367e-20)
(5.17134e-05 -0.000113812 -1.41523e-18)
(1.80965e-05 -0.000118826 -7.81612e-19)
(0.0687169 0.066123 5.32166e-18)
(0.000632819 -0.000186253 -7.11653e-20)
(3.70258e-05 3.13378e-06 6.65888e-20)
(-0.00286984 -0.00198471 3.97821e-18)
(-1.57808e-05 1.2936e-06 -3.66258e-20)
(-1.56356e-05 2.65494e-06 -2.02509e-19)
(8.16984e-05 5.12626e-06 2.62797e-18)
(-0.0266641 0.0151114 -1.06707e-17)
(0.00112825 -0.00118233 2.81727e-19)
(-0.0208409 -0.0455509 -2.66742e-19)
(-0.0618092 -0.00880653 1.82264e-19)
(-0.00686303 0.0505987 -5.57178e-19)
(-0.00758821 -3.73573e-05 2.58065e-18)
(-0.0883825 0.0151443 4.12441e-18)
(-3.45817e-05 1.14654e-05 1.43996e-20)
(-0.00525848 -0.00554957 -8.27699e-20)
(8.46078e-05 -0.000147494 -3.58062e-20)
(-0.00305299 -0.00358994 -5.86355e-18)
(0.000116827 -0.000448268 4.15356e-18)
(-0.0242115 -0.0833818 -1.15498e-17)
(0.00614919 -0.00278563 -2.97224e-18)
(-2.14409e-05 -1.42335e-06 -3.79026e-21)
(0.000119232 -0.000113346 4.35179e-19)
(0.00370989 -0.0144998 3.3283e-18)
(0.000321189 -0.000701865 -1.30271e-17)
(0.00129982 -0.00147985 8.02774e-20)
(0.000124253 -0.000349999 7.56729e-18)
(9.92148e-05 -0.000124843 8.29091e-21)
(0.000103145 -3.32921e-05 2.27696e-19)
(-0.0108738 -0.014242 3.30531e-18)
(0.000733865 0.00381078 -2.17693e-18)
(0.0329496 0.00355308 -2.60537e-18)
(0.000102607 -3.26593e-05 2.53905e-19)
(-0.00991058 -0.0163696 -1.94943e-18)
(-0.000130098 -7.8485e-05 1.7656e-20)
(-0.0275139 -0.0412002 5.40067e-19)
(0.00676676 -0.00234764 3.8618e-19)
(-0.000478322 0.000218418 9.55872e-20)
(-0.00696075 -0.00892525 3.46915e-19)
(0.000469931 0.00609483 2.02136e-17)
(4.11207e-05 0.000126586 -3.765e-20)
(-0.0119288 -0.00026957 -1.65693e-18)
(0.000210628 0.000335939 2.16205e-18)
(-0.00245861 -0.00251286 7.21084e-18)
(0.000230409 0.000140418 2.62551e-20)
(0.000500712 -0.000161054 -5.3368e-21)
(-0.00190911 -0.000772854 1.31432e-18)
(-0.0103246 0.00108319 -1.17489e-18)
(-0.00945151 -0.000357824 3.84802e-18)
(0.000520947 -0.000403431 -8.58346e-19)
(0.0642539 0.0409823 3.2821e-18)
(0.00190788 -0.00624506 2.06755e-21)
(-0.00137225 0.00266064 -4.09251e-19)
(2.24623e-05 0.000328993 4.38121e-20)
(0.00214112 -0.0134513 1.41629e-18)
(0.000152794 0.000222025 -6.95115e-19)
(5.62169e-05 3.74893e-05 4.18587e-20)
(0.00734252 -0.0108743 -1.98178e-19)
(0.00791592 -0.0127939 3.18501e-19)
(0.00674484 0.0634209 -7.92087e-18)
(0.000196428 -0.000477783 -6.02066e-18)
(-0.00474116 -0.00363465 -1.11472e-19)
(-0.0145161 0.0233565 -4.59437e-18)
(6.38088e-05 2.40041e-06 -4.24069e-20)
(7.24806e-06 2.42107e-05 -7.21664e-20)
(6.97796e-06 2.19101e-05 -1.81735e-19)
(-0.0865015 0.0321316 -1.21802e-17)
(-0.00846289 -0.0117478 -6.02393e-18)
(-0.0128046 -0.0215202 -2.96787e-18)
(3.9568e-05 -1.98801e-05 -8.78061e-19)
(-1.65917e-05 -2.45382e-07 -3.46014e-20)
(0.0891561 0.072213 2.31708e-18)
(-0.0119914 -0.00020366 4.94445e-18)
(1.09079e-06 2.50082e-05 7.71138e-20)
(-5.14567e-07 2.39547e-05 -2.51548e-19)
(-8.89705e-06 1.00184e-06 -1.63025e-20)
(1.23849e-05 2.09872e-05 -2.60317e-20)
(1.15504e-05 1.94725e-05 -1.17543e-19)
(-0.00914134 0.00391876 -6.16849e-18)
(-0.00904501 0.0456482 5.30089e-18)
(-7.43257e-06 0.000111336 -7.63493e-19)
(-2.76166e-05 1.38675e-05 -7.10157e-21)
(0.00214442 -0.0047277 -6.54682e-19)
(-0.0113896 0.00164814 -3.75261e-18)
(-9.95008e-06 4.76979e-07 -1.60382e-19)
(4.07694e-05 -1.69862e-05 1.37062e-18)
(0.0765888 0.044945 -1.97715e-18)
(-0.00489719 0.00330254 -7.71282e-18)
(-0.0102193 -0.0125263 -1.11513e-18)
(-0.0134398 0.0235774 1.00987e-17)
(0.0101295 -0.00658058 -2.63754e-18)
(8.15253e-05 2.60214e-05 5.60844e-19)
(-0.0790411 0.0059772 -5.93939e-18)
(0.00161671 -0.00507948 2.71809e-19)
(-0.00413442 -0.00921851 2.04286e-19)
(-0.000677087 -0.00119688 -2.3833e-18)
(0.000460081 -0.000347992 2.2779e-19)
(0.0022896 0.0511871 -1.24548e-18)
(2.92836e-05 -0.00012695 -3.25008e-18)
(0.00242976 0.00203585 -2.39332e-20)
(0.00527914 -0.00208378 8.50101e-19)
(-5.99689e-05 9.82685e-05 -1.11439e-19)
(-4.44832e-06 5.57457e-08 1.2843e-19)
(0.000102553 1.47329e-05 -1.66238e-18)
(0.00470373 -0.00100656 4.79381e-19)
(-0.000240384 0.000276872 -5.36045e-21)
(-0.0112091 -0.000594408 2.77745e-18)
(-0.0731196 -0.142017 5.26337e-18)
(0.000225045 7.07524e-05 9.64589e-20)
(-1.3234e-06 2.62191e-05 -6.95037e-20)
(0.000680478 -0.000300041 2.46735e-20)
(-1.94219e-07 2.91149e-05 -2.14182e-19)
(2.60307e-05 -0.000125842 9.7609e-19)
(4.62151e-05 -2.03115e-06 2.55297e-18)
(0.00140234 -0.000407765 -2.56908e-18)
(0.000298556 9.26586e-05 -2.46003e-19)
(-0.00800954 -0.000456605 9.49764e-19)
(-0.0156548 0.0378191 -3.6473e-18)
(9.76584e-05 -3.46806e-05 -1.18462e-18)
(0.0024554 -0.00142569 1.52381e-19)
(0.0133677 -0.0307588 6.363e-18)
(-2.89087e-05 2.50499e-05 1.26629e-19)
(-0.00825971 0.0273025 -4.19731e-18)
(-0.0106261 -0.000855902 -3.99127e-18)
(-2.78796e-05 2.4515e-05 -5.17049e-20)
(-0.0114511 0.00100548 3.62664e-18)
(-0.000219226 0.000195651 9.28972e-20)
(-0.0276396 0.0115689 1.09263e-18)
(-1.75285e-05 -1.05381e-06 -8.16432e-20)
(0.000817837 0.0023046 -3.08798e-20)
(-9.04604e-05 0.000106649 6.03111e-20)
(8.55109e-05 4.1911e-06 -2.84511e-19)
(-0.00683379 0.000493577 -2.66031e-18)
(5.3879e-05 3.58509e-06 -3.74725e-19)
(-0.00823542 0.0581581 -5.8249e-19)
(8.10414e-05 0.000838972 5.71688e-19)
(-0.0666743 -0.152598 -1.08705e-18)
(-0.00165567 0.00491209 -3.67914e-19)
(0.0439115 0.0339466 -1.05944e-18)
(-0.00867587 -0.000336721 -2.40848e-18)
(-1.18792e-05 8.68001e-07 -1.93246e-19)
(0.00115883 -0.00184252 -2.51212e-18)
(0.00424172 -0.00304523 -5.10539e-19)
(-0.000236782 -0.000193273 2.23009e-19)
(0.00295603 -0.0050311 -2.16449e-19)
(-1.00879e-05 1.19009e-05 -1.946e-18)
(-4.88737e-05 0.000158173 -2.63664e-19)
(5.24617e-05 4.54791e-06 -1.62287e-19)
(0.00722371 -0.0143374 -1.86334e-18)
(-0.0232212 -0.000703317 -8.78706e-19)
(0.00213468 0.00196188 -3.0577e-18)
(1.00378e-05 1.91178e-06 3.76085e-19)
(4.3095e-05 -1.23806e-05 2.60511e-18)
(-0.0026935 -0.00213581 -9.37264e-20)
(-0.00951803 0.000939132 -1.92293e-18)
(5.27917e-05 2.21554e-05 7.59605e-22)
(-0.00490657 0.00202633 1.04142e-20)
(-0.000235616 -0.000126783 -9.32835e-19)
(0.0676721 -0.0166861 7.47798e-19)
(0.000758887 3.75108e-05 -1.13662e-17)
(-0.00866441 0.0312892 -4.47344e-19)
(-0.0164554 -0.0741424 1.07879e-17)
(-0.010275 -0.013107 1.17791e-20)
(0.0260699 0.00084602 4.54682e-19)
(0.00233712 -0.000885411 -2.17111e-19)
(-0.00513673 0.00236781 -3.63006e-18)
(0.0577377 -0.0414064 -1.85192e-18)
(0.00265425 0.00204651 5.98585e-18)
(4.0318e-05 -1.82672e-06 8.51118e-19)
(0.00141732 0.00302067 8.51579e-20)
(0.0663697 0.0554991 -3.98462e-18)
(0.000206567 -0.000285699 2.60002e-20)
(0.012317 -0.00261522 8.77032e-20)
(-0.000633019 0.000108448 5.03863e-18)
(-5.30159e-06 1.79675e-06 -7.61264e-20)
(-0.00308618 -0.00345308 -6.96802e-18)
(6.78431e-05 -8.48542e-06 -2.97742e-19)
(0.000250083 -0.000902389 2.1138e-18)
(0.000119433 -2.96452e-05 2.01503e-19)
(0.0303207 0.015222 -4.07715e-18)
(5.8648e-05 2.31843e-05 1.95668e-20)
(0.00185766 0.00152764 -1.25822e-18)
(0.00114697 -0.00687018 -3.25418e-21)
(-0.00659582 -0.013046 -2.48821e-20)
(-7.54843e-06 2.56955e-06 -1.11289e-19)
(-0.000519158 -0.000901325 -1.10609e-17)
(-0.00358438 -0.00164514 1.52192e-18)
(0.00023443 -9.40227e-05 -2.09458e-19)
(0.000276436 -0.000277607 -1.29753e-21)
(-0.00994706 0.00600111 1.13842e-18)
(-0.00364349 -9.08998e-05 -2.29187e-18)
(-0.0249211 -0.0309512 7.89859e-18)
(-0.123925 -0.108203 3.90373e-18)
(-2.22937e-05 2.14596e-05 9.40453e-20)
(6.38342e-05 0.000119928 7.24095e-19)
(-0.00558456 0.00441734 1.33489e-18)
(0.0249735 -0.00129824 -3.56548e-18)
(-1.98619e-05 1.97041e-05 5.93222e-20)
(0.00431699 -0.00432783 1.0651e-19)
(0.000121685 -5.59051e-05 -2.23396e-18)
(-0.0122871 0.00179023 -5.71846e-19)
(0.00208284 0.00156909 3.49984e-18)
(-0.00363918 -0.00692952 2.9124e-18)
(0.0140402 0.00109856 -2.09395e-19)
(-0.0114439 0.0259777 1.37073e-18)
(0.000300282 -0.000867448 8.45535e-19)
(-0.00499479 0.00798849 8.10549e-18)
(2.33729e-05 5.37846e-05 7.07806e-21)
(0.00022183 -0.000104552 -8.59723e-19)
(0.0026676 -0.00731784 -4.55924e-19)
(-0.00526746 0.0046927 9.39211e-18)
(-7.71851e-06 2.53039e-07 7.17494e-20)
(0.000364573 0.00391679 -2.33579e-17)
(0.000283877 -0.000864928 -2.01456e-18)
(0.00728429 -0.019462 -3.03827e-19)
(0.000168777 -7.01446e-05 -1.64049e-19)
(0.0204177 -0.00105588 -5.64182e-18)
(-0.00376184 0.00330566 -1.39385e-19)
(0.0689386 0.068631 1.59905e-18)
(-0.000788875 0.000527568 -4.67815e-19)
(-0.0139445 -0.0185003 -2.28602e-18)
(0.0121752 -0.0310344 -2.40009e-18)
(0.00112107 -0.00815879 3.17667e-20)
(0.000101011 -3.63513e-05 -9.27677e-19)
(-0.00812721 0.0151358 9.34806e-18)
(0.000312159 2.65855e-05 4.92029e-20)
(-0.069812 -0.0178974 -5.53412e-18)
(-0.00853556 -0.00931803 7.11596e-18)
(-0.000957976 0.000319233 1.7592e-19)
(0.0713694 0.0561292 -3.46125e-19)
(-0.00027683 6.61316e-05 -1.41173e-19)
(0.0249523 0.0260462 7.93903e-20)
(2.7498e-05 4.50174e-05 4.19626e-20)
(0.0134873 0.0215129 1.09426e-17)
(0.0256877 0.0295436 -5.01622e-19)
(6.68e-05 -0.000349693 -1.08792e-18)
(0.0899316 0.0626907 -3.5402e-18)
(-0.0125766 0.0188097 1.30711e-18)
(0.000421748 -0.000241811 -4.93843e-19)
(-0.0429358 -0.0158615 7.7135e-18)
(0.00103042 0.00243692 -4.31591e-18)
(6.91641e-05 -0.000233074 -6.82517e-19)
(-0.00780458 2.25124e-05 1.72431e-18)
(0.000112823 7.80153e-05 4.03897e-19)
(-0.0165491 0.01929 -8.82196e-19)
(0.00206508 0.00327687 1.92446e-17)
(6.69656e-05 -7.77147e-06 7.34227e-19)
(0.00031906 -0.000412608 7.79823e-18)
(2.65348e-05 1.82584e-05 3.34517e-19)
(8.10624e-05 1.27051e-05 -1.22207e-18)
(6.66587e-05 -2.67093e-06 6.78588e-20)
(1.91123e-05 7.28786e-05 1.05142e-20)
(-0.0661264 -0.111706 2.43568e-18)
(0.00137836 0.0449272 -7.57361e-19)
(0.000192175 -8.49916e-05 1.6345e-18)
(-9.06594e-06 6.06109e-05 4.2137e-20)
(8.02245e-05 -4.06543e-05 -2.25297e-19)
(0.00210927 -0.00160284 -6.00835e-19)
(0.0472128 -0.0129833 -3.04622e-20)
(-1.82501e-05 -1.85155e-07 2.93104e-19)
(-3.41573e-05 8.95577e-06 -7.64646e-21)
(0.000725919 1.92342e-05 9.99101e-18)
(0.0201162 0.00114858 5.00199e-18)
(8.63468e-05 6.34703e-06 1.13087e-19)
(8.36615e-05 -0.000317906 -3.78035e-18)
(-0.00294677 -0.0552974 -8.84857e-18)
(0.0238811 0.0892866 -5.053e-18)
(-0.017268 -0.00675582 6.6062e-20)
(-0.00203794 0.000896511 6.16729e-18)
(-0.00416177 0.00202753 -3.15243e-18)
(0.000185167 4.76901e-05 -1.19405e-19)
(-2.82366e-05 1.44509e-05 3.3287e-20)
(-0.0018472 -0.00212226 6.22112e-19)
(6.616e-05 -2.32473e-06 -3.00067e-19)
(-2.87038e-05 6.50333e-07 -1.67112e-19)
(-2.979e-05 0.000120006 7.90962e-19)
(-3.44601e-05 1.54815e-05 1.0881e-19)
(0.000146931 5.67208e-05 9.09376e-20)
(-0.0591987 0.0266518 -7.77327e-18)
(0.000127133 8.0478e-05 2.37206e-19)
(-0.0001955 0.00412702 1.34264e-18)
(-0.00769511 -0.00054961 -8.50505e-18)
(0.00133839 -0.00174714 3.7529e-18)
(5.70219e-05 4.03665e-05 7.00163e-21)
(5.32646e-05 -0.00010694 1.23397e-18)
(-0.0410318 -0.00789851 7.58406e-19)
(-0.00195486 -0.00119877 -4.38771e-19)
(-0.0115419 -0.000247451 1.03317e-17)
(5.37562e-05 -3.30251e-05 -6.20947e-20)
(5.68012e-05 -1.31617e-05 3.68263e-18)
(0.000394915 -3.98553e-05 3.31831e-19)
(1.80963e-05 2.10496e-05 2.52881e-19)
(0.000260304 -0.000522364 4.99871e-19)
(-0.000383326 -5.61022e-05 -7.24731e-20)
(0.000312568 -0.0531659 3.02628e-18)
(-0.00563056 -0.00436279 -4.56699e-20)
(-0.00519795 0.00269765 1.66824e-18)
(5.6859e-05 -1.24454e-05 -1.69627e-20)
(0.000493439 -0.000768871 -5.79964e-18)
(-0.00815392 -0.00124984 2.40044e-19)
(0.000118582 0.000202689 -3.07879e-20)
(0.00872385 -0.00687403 2.11745e-18)
(-0.0227718 -0.0364578 -5.89843e-18)
(0.000117383 -5.15219e-05 -2.07934e-19)
(0.0342071 0.12168 -5.03927e-18)
(5.76635e-05 4.5372e-05 1.05053e-19)
(6.30986e-05 -3.9433e-07 -1.14842e-18)
(9.34912e-05 -3.76091e-05 1.50835e-19)
(-0.000258123 0.000135221 -7.68556e-20)
(5.45482e-05 3.05243e-05 6.53517e-20)
(6.78255e-05 9.83642e-07 1.91579e-19)
(-0.00257935 -0.00258391 -7.11912e-18)
(-0.0565337 -0.0954435 1.63661e-17)
(5.33469e-05 2.71011e-05 5.57332e-20)
(0.0493635 0.0280839 -6.05888e-19)
(0.000654302 0.000117463 -2.76728e-18)
(3.40903e-05 -5.50527e-06 -2.07934e-18)
(0.0013231 -0.00225728 2.24104e-19)
(0.000773467 -0.00097414 5.63154e-18)
(-0.0476357 0.0014095 -1.19023e-17)
(0.000324329 -0.000477901 7.59113e-18)
(-0.0043875 0.000353778 4.06072e-18)
(0.0312413 0.00209968 -8.69976e-20)
(0.0316934 -0.0038458 -1.71111e-19)
(-0.000383109 4.301e-05 1.24328e-19)
(-0.0118278 -0.00769469 8.66263e-20)
(-0.0100033 0.000452685 -6.97123e-20)
(0.000474603 -0.000282108 -1.448e-19)
(-0.018076 -0.0209203 -9.08111e-19)
(-7.51161e-06 5.41746e-06 1.62458e-20)
(0.000143558 -5.09563e-05 5.28871e-19)
(0.000260336 -0.000101369 8.17315e-19)
(0.00023782 -0.000442212 -1.17371e-19)
(-0.00284892 0.000276022 -7.37366e-19)
(-0.000447691 0.00331163 -5.18096e-18)
(0.000241237 -0.00117645 -1.61888e-18)
(0.00186712 0.00319035 -8.7057e-19)
(0.00315153 -0.00172801 7.26347e-19)
(0.00267246 -0.0230024 1.03518e-19)
(0.00245413 0.00714852 7.13332e-19)
(0.00019264 -7.79059e-05 -1.60809e-18)
(-0.107046 -0.0857662 1.57284e-18)
(0.00103639 -0.000658263 1.8533e-17)
(0.000178701 0.000783787 -1.55837e-18)
(-0.0696586 -0.0413365 -5.65541e-18)
(6.72756e-05 -1.09033e-05 -2.48954e-18)
(0.00306557 0.00776853 -6.38339e-19)
(0.00340047 -0.0166363 -1.35244e-17)
(6.49161e-05 7.08021e-06 2.40077e-19)
(-0.00390777 -0.00150681 6.03126e-19)
(6.30867e-05 -7.05159e-07 7.17623e-19)
(1.54634e-05 2.08565e-05 2.58718e-20)
(0.00196896 -0.0018205 -1.19286e-18)
(3.10731e-05 -4.45858e-05 -4.52947e-20)
(6.34707e-05 2.17592e-06 -1.23958e-18)
(0.00875028 -0.012974 -2.16391e-18)
(-0.00481007 0.000142551 -2.05984e-18)
(0.0696511 0.0809381 -2.04484e-18)
(8.04689e-05 2.7274e-06 -1.22085e-18)
(0.000118107 -0.000187747 -1.61315e-18)
(0.00280269 0.000755895 -2.40135e-19)
(-0.0153851 -0.0307047 -5.37698e-18)
(0.00835048 -0.0305205 1.42936e-17)
(0.000181902 -6.07278e-05 6.00752e-19)
(0.000154073 -6.23241e-05 -6.85682e-19)
(7.80368e-05 4.05472e-06 1.82067e-18)
(0.00424188 -0.00170434 -4.65345e-18)
(0.0105137 -0.104401 -1.76463e-18)
(2.78132e-05 8.90848e-06 -5.82548e-20)
(-9.44759e-06 1.89498e-07 5.17649e-20)
(0.000465231 -8.65934e-05 -2.35223e-21)
(7.95283e-05 1.38557e-05 6.92539e-19)
(-0.00306597 -0.00321411 1.51689e-19)
(0.000687281 0.00025836 -6.15399e-19)
(-9.09336e-06 3.5613e-06 9.78895e-20)
(0.000230753 -0.00125798 1.83397e-18)
(6.46896e-05 7.09686e-06 -3.60096e-19)
(5.26678e-05 -1.97718e-05 2.33894e-19)
(4.19959e-05 1.08666e-05 -3.33391e-18)
(-0.00446107 0.022988 9.44064e-18)
(1.41109e-05 3.02473e-06 -5.25587e-20)
(0.000209 -0.000258712 -5.53391e-19)
(-0.000155556 0.000325897 5.17025e-20)
(0.000493283 -0.000742027 -3.58363e-18)
(0.000540947 -0.00306074 -2.16652e-19)
(-0.0150426 -0.00650363 2.77873e-18)
(0.00548903 -0.00251007 8.93542e-20)
(-0.000413478 0.0392338 -1.86113e-18)
(4.20375e-05 -3.73399e-05 -1.83813e-18)
(0.00259008 -0.0195138 1.01951e-19)
(-0.00235412 -0.00276441 -5.5575e-18)
(-0.0482661 0.0282761 6.9115e-19)
(-0.00696307 -0.000665729 1.20583e-18)
(7.4675e-05 9.00223e-06 7.49007e-21)
(0.000117379 -4.11018e-05 2.6692e-19)
(0.00244736 0.00395585 1.0682e-20)
(7.8104e-05 -1.81536e-05 3.08949e-19)
(-0.00524904 0.0121828 3.51221e-18)
(-3.62959e-05 2.53516e-05 -2.13533e-19)
(-0.0595455 -0.216238 3.94845e-18)
(0.000249239 0.000299406 -5.08365e-18)
(-0.00200479 -0.00391961 9.19099e-18)
(-0.00554797 0.0313451 2.27939e-18)
(0.00012024 -0.000363284 3.86992e-18)
(-0.00574772 0.0260439 -1.25115e-17)
(5.28376e-05 2.26679e-05 5.72056e-21)
(0.000542369 -0.000887035 9.67728e-18)
(2.87608e-05 3.67626e-06 -2.67897e-21)
(-0.00115379 -0.000771532 2.56276e-20)
(-0.00194298 -0.00379812 -1.46582e-18)
(8.00249e-06 -1.87529e-05 -1.24281e-19)
(0.00122735 -0.000735437 -8.12085e-18)
(-1.71493e-05 -7.81797e-07 -7.30631e-20)
(3.61913e-05 -3.27234e-06 2.94984e-19)
(0.000111206 -4.85577e-05 -3.55743e-21)
(-0.000363755 0.00289714 -4.65008e-19)
(-0.00270857 -0.00410228 4.24293e-20)
(5.23147e-07 2.78638e-05 2.32046e-19)
(4.37922e-05 0.000425946 2.13149e-18)
(0.00154728 -0.00211389 4.88593e-18)
(0.0172889 0.14249 -2.04217e-18)
(-0.00482434 0.0108742 -5.313e-18)
(-0.00343225 -0.00106982 8.50663e-18)
(-0.0507662 3.0584e-05 9.91349e-18)
(1.43312e-05 2.53156e-06 6.23922e-20)
(-0.0121018 7.24238e-05 6.8607e-18)
(-3.30198e-05 -2.10337e-06 -1.40235e-19)
(-0.04123 -0.0978115 -2.96154e-18)
(-0.0441709 0.0762995 -1.79768e-19)
(-0.00154672 -0.00113285 -1.80835e-19)
(-0.00197615 0.00533221 -2.91897e-19)
(-2.06698e-05 -3.16745e-07 1.97847e-20)
(0.00103491 -0.000610521 -7.96858e-18)
(0.000110953 -0.000337368 -7.06931e-18)
(-8.975e-06 -2.1732e-05 -3.03074e-19)
(3.21318e-05 3.40123e-06 1.2103e-22)
(4.85128e-05 -3.13578e-07 -1.12632e-18)
(-0.00470096 0.0108527 1.73983e-17)
(8.24149e-05 -1.20039e-05 -3.32343e-18)
(0.000302669 -0.000766783 1.31864e-18)
(0.000138854 -4.63658e-05 -3.46079e-19)
(-1.04994e-06 2.57108e-05 -2.70537e-19)
(-1.77066e-05 1.80106e-06 1.71502e-20)
(0.00910614 -0.0237685 2.09827e-18)
(-0.0204082 0.00295021 -1.58562e-17)
(0.0667627 0.0379824 6.80959e-19)
(-0.000504123 -0.00126567 2.26884e-18)
(0.000674765 0.000178023 -1.1249e-19)
(-0.0164071 0.00354106 -5.43578e-18)
(-0.0116228 0.00145465 3.23978e-19)
(2.36544e-05 4.61836e-05 -2.42741e-20)
(-0.0205025 -0.026707 -3.49646e-18)
(4.38403e-05 -1.18256e-06 -4.46829e-19)
(0.0012274 -0.000587893 1.8433e-17)
(8.00596e-05 -2.11052e-05 1.66258e-18)
(-0.00809795 0.0149982 -5.07884e-18)
(7.826e-05 1.07376e-05 -6.33217e-19)
(-0.00399259 -0.0025553 1.47178e-19)
(5.42156e-05 -0.000121311 -3.05078e-18)
(0.00517633 0.167535 -1.08544e-18)
(0.00126015 -0.000573697 -1.25933e-18)
(-0.00958333 0.0183187 -1.4083e-17)
(9.31019e-07 5.41764e-06 -4.28455e-21)
(0.00127288 -0.000355288 8.74272e-19)
(0.000188067 -9.53975e-05 1.80113e-19)
(-1.32754e-05 -1.30236e-07 6.0053e-20)
(-0.00468621 0.00983733 -6.47132e-18)
(-0.0226045 0.0489832 -3.17268e-18)
(0.000337626 -0.000133878 5.42018e-20)
(-0.00462116 -0.00744174 8.15595e-18)
(4.27328e-05 -1.47522e-05 -1.22625e-18)
(-0.00027412 -0.000963696 -1.68125e-19)
(-1.89109e-05 1.01902e-08 2.36946e-20)
(-0.00615437 0.0107107 -1.71044e-18)
(8.17602e-05 -1.71358e-05 2.80838e-18)
(0.00513952 -0.0019867 1.42819e-19)
(-3.58379e-05 2.45436e-05 1.11261e-19)
(0.000280019 -0.000100623 3.03721e-19)
(-0.00599492 0.00412601 -4.98619e-18)
(-2.23332e-05 5.49621e-07 6.00895e-20)
(-0.00432237 -0.00444106 6.56964e-18)
(1.27111e-05 9.11997e-07 -6.67246e-20)
(6.18475e-05 1.82819e-05 1.72041e-19)
(-0.0728044 -0.11347 1.17739e-17)
(0.000301911 -0.000741144 7.27433e-18)
(0.000173949 -5.4891e-05 -6.84505e-19)
(-0.00937215 -0.000216117 9.09151e-18)
(0.00094529 -0.000554545 3.43785e-18)
(0.0369743 0.00369344 -7.06323e-19)
(0.00517636 -0.0174077 5.73077e-18)
(5.1671e-05 1.88302e-05 -2.82639e-20)
(0.00229108 0.0036942 -1.11262e-19)
(-0.00129515 0.0227929 4.57665e-18)
(-0.00105973 0.000709628 3.07958e-18)
(-0.00151619 -0.00180347 8.14051e-20)
(0.000126948 -0.000533892 -1.29922e-19)
(-0.00507448 -0.00255963 -1.504e-19)
(1.29405e-05 1.3999e-06 2.59847e-20)
(6.76716e-05 6.83041e-05 -9.9856e-20)
(-0.012432 -0.015442 1.36902e-19)
(0.000513677 -0.00371253 5.73585e-19)
(-5.03274e-07 0.000252109 -1.2507e-18)
(-0.0868113 -0.040494 -9.03365e-18)
(0.00124055 -0.000687652 -1.80281e-19)
(0.067667 -0.00106932 -9.04723e-20)
(0.00582009 -0.0346267 -1.23631e-17)
(-0.0211852 0.0048939 2.71029e-19)
(0.00170953 0.00079209 -8.49373e-19)
(-0.00689972 -0.00722841 1.70643e-19)
(-0.0112602 0.00138778 -8.34475e-18)
(-1.12126e-05 0.000168551 1.1761e-19)
(-0.00739538 0.00868986 8.70867e-19)
(-0.0109111 -0.0211444 -1.90792e-21)
(6.30387e-05 1.52632e-05 2.62481e-19)
(1.17925e-05 1.55051e-06 4.06688e-20)
(-2.02586e-05 1.62277e-06 6.74932e-20)
(0.00364732 0.00107222 1.42574e-19)
(6.53586e-05 3.97308e-06 -4.63669e-19)
(-0.0121525 0.00017156 1.59051e-18)
(0.000234006 -0.000782372 -6.46152e-18)
(4.13051e-05 1.80458e-06 -1.185e-20)
(-0.00056406 -0.000111443 -7.48488e-18)
(2.20572e-06 5.99929e-06 5.49101e-20)
(-0.0115319 0.0301577 -9.56034e-20)
(-0.000263747 0.00012851 -3.06321e-19)
(3.13332e-05 3.68962e-05 1.22385e-20)
(-0.00442282 -0.000248538 1.28204e-18)
(0.000539121 -0.00254779 1.15073e-17)
(0.0108737 -0.0130537 4.24799e-19)
(7.22191e-05 -0.000126366 -4.40045e-18)
(-0.000287653 0.000930173 -2.11938e-19)
(7.79798e-05 -8.86006e-06 -1.25221e-20)
(9.41745e-05 -0.000165624 1.76839e-18)
(0.000566509 -0.000369105 -2.27059e-18)
(9.15683e-05 -6.64692e-06 7.4269e-19)
(-0.0104908 -0.000492496 5.4515e-18)
(0.000204802 0.00121918 -1.59739e-18)
(-0.0399239 -0.18184 -9.86822e-19)
(0.0196151 0.0118898 4.1171e-19)
(-0.0086077 0.00716122 -4.23489e-19)
(-0.00390053 -0.000510966 -6.31498e-18)
(0.000123728 -0.000178905 4.31533e-18)
(3.7435e-05 1.25047e-06 2.40827e-19)
(0.000221835 -0.000129741 -3.28859e-19)
(-0.0104837 -0.000918253 3.75351e-18)
(0.0814374 0.066531 -3.0377e-18)
(0.000217795 0.000395763 3.58196e-18)
(-0.0113472 -0.000308005 -1.6725e-18)
(0.0170782 -0.0246818 -1.41025e-18)
(6.02216e-05 2.34525e-05 1.39006e-19)
(4.58988e-05 2.28886e-05 5.23027e-21)
(0.000355033 -0.000548472 8.63035e-19)
(-0.00409361 -0.00105621 -4.96736e-18)
(0.0276784 -0.0262185 2.41454e-19)
(0.00138819 -0.000541277 4.96865e-18)
(9.28935e-05 -0.000158201 -1.4137e-18)
(0.000220318 -0.000248102 2.32608e-18)
(0.00133766 -0.000584259 -2.47596e-17)
(0.00182556 -0.000777519 1.44122e-19)
(-0.00370679 -0.00582921 -5.95122e-18)
(0.000254977 -0.000787424 3.5587e-18)
(0.000259797 -6.23077e-05 -1.66993e-18)
(0.000103391 -2.97307e-05 5.73551e-19)
(3.81113e-05 9.11862e-07 -8.34575e-20)
(0.000561016 -0.000335199 8.49991e-19)
(0.00368734 -0.000971452 -2.28704e-19)
(0.000536648 0.0029887 6.2903e-19)
(-0.000314753 -0.00031151 -2.76862e-19)
(0.00157478 -0.003458 -1.5685e-19)
(-0.0109088 -0.00039032 -3.15734e-18)
(-0.00148862 -0.000490034 -1.77119e-20)
(-0.0016307 -0.0864559 4.74593e-19)
(0.000124532 -0.000441545 3.23842e-19)
(0.00649383 -0.00128432 7.46295e-20)
(0.000359791 0.00015273 -5.12328e-19)
(-0.000665813 0.000587575 6.05008e-18)
(9.71073e-06 1.49925e-06 -4.53825e-21)
(0.000497644 -0.000938371 -5.71724e-18)
(-0.0175682 0.00313109 1.25133e-17)
(-0.00760681 -0.0687277 -2.21282e-19)
(7.45199e-05 -1.98269e-05 4.58929e-19)
(-0.0003193 -0.00022155 2.15932e-18)
(6.63374e-05 2.88595e-06 6.93141e-19)
(6.92153e-05 -1.68528e-05 8.45911e-19)
(4.5391e-05 -0.000125478 -1.4299e-19)
(-0.00860018 0.00101348 -6.87811e-19)
(-0.00814215 -0.00384802 -6.76687e-20)
(0.0108789 -0.0220657 -1.22136e-17)
(-0.00450448 -0.00535108 4.78396e-19)
(5.01105e-05 1.14254e-05 -4.06612e-21)
(0.00108622 0.00324464 1.26857e-17)
(0.000143531 -0.000451153 -8.79101e-18)
(0.000256931 -0.000443853 3.90066e-18)
(-0.00566683 -0.00683857 -6.09114e-18)
(5.1524e-05 0.000145699 2.6306e-21)
(0.000522346 -0.000862692 -1.43865e-17)
(0.00771966 0.0687516 6.02198e-18)
(6.49464e-06 1.99842e-05 1.34885e-19)
(0.000464335 -0.0023247 -1.11708e-18)
(0.00944852 -0.00292937 -3.10005e-18)
(0.000268852 -0.000773785 5.94819e-18)
(6.36957e-05 4.64361e-05 -1.2771e-20)
(5.63996e-05 3.75149e-05 1.42869e-19)
(5.9434e-05 7.14541e-05 1.89458e-21)
(-0.0103872 0.00070014 2.93055e-18)
(0.000102411 -3.39476e-05 -3.13216e-18)
(-0.000409709 2.12414e-05 2.04382e-20)
(0.000258019 -0.000881014 7.56703e-19)
(9.34029e-05 -5.69325e-06 -2.55118e-19)
(5.64782e-05 4.15086e-05 -5.59947e-20)
(0.000911056 -0.0101476 -5.59505e-18)
(-0.012363 0.0624118 5.30575e-18)
(-0.0151365 -0.00476779 -7.03819e-19)
(0.0315949 0.104329 6.9632e-19)
(-0.0104951 0.00106588 4.44587e-19)
(-0.0063701 0.0052402 8.74741e-19)
(4.06166e-05 -0.000128755 -1.98801e-18)