/*--------------------------------*- C++ -*----------------------------------*\
| =========                 |                                                 |
| \\      /  F ield         | OpenFOAM: The Open Source CFD Toolbox           |
|  \\    /   O peration     | Version:  v2012                                 |
|   \\  /    A nd           | Website:  www.openfoam.com                      |
|    \\/     M anipulation  |                                                 |
\*---------------------------------------------------------------------------*/
FoamFile
{
    version     2.0;
    format      ascii;
    class       pointVectorField;
    location    "750";
    object      pointDisplacement;
}
// * * * * * * * * * * * * * * * * * * * * * * * * * * * * * * * * * * * * * //

dimensions      [0 1 0 0 0 0 0];


internalField   nonuniform List<vector> 
14324
(
(0 0 0)
(0 0.0565607 0)
(0 0 0)
(0 0.0565607 0)
(0 0 0)
(0 0 0)
(0 0 0)
(0 0 0)
(0 0 0)
(0 0 0)
(0 0 0)
(0 0 0)
(0 0 0)
(0 0 0)
(0 0 0)
(0 0 0)
(0 0 0)
(0 0 0)
(0 0 0)
(0 0 0)
(0 0 0)
(0 0 0)
(0 0 0)
(0 0 0)
(0 0 0)
(0 0 0)
(0 0 0)
(0 0 0)
(0 0 0)
(0 0 0)
(0 0 0)
(0 0 0)
(0 0 0)
(0 0 0)
(0 0 0)
(0 0 0)
(0 0 0)
(0 0 0)
(0 0 0)
(0 0 0)
(0 0 0)
(0 0 0)
(0 0 0)
(0 0 0)
(0 0 0)
(0 0 0)
(0 0 0)
(0 0 0)
(0 0 0)
(0 0 0)
(0 0 0)
(0 0 0)
(0 0 0)
(0 0 0)
(0 0 0)
(0 0 0)
(0 0 0)
(0 0 0)
(0 0 0)
(0 0 0)
(0 0 0)
(0 0 0)
(0 0 0)
(0 0 0)
(0 0 0)
(0 0 0)
(0 0 0)
(0 0 0)
(0 0 0)
(0 0 0)
(0 0 0)
(0 0 0)
(0 0 0)
(0 0 0)
(0 0 0)
(0 0 0)
(0 0.0565607 0)
(0 0.0565607 0)
(0 0.0565607 0)
(0 0.0565607 0)
(0 0.0565607 0)
(0 0.0565607 0)
(0 0.0565607 0)
(0 0.0565607 0)
(0 0.0565607 0)
(0 0.0565607 0)
(0 0.0565607 0)
(0 0.0565607 0)
(0 0.0565607 0)
(0 0.0565607 0)
(0 0.0565607 0)
(0 0.0565607 0)
(0 0.0565607 0)
(0 0.0565607 0)
(0 0.0565607 0)
(0 0.0565607 0)
(0 0.0565607 0)
(0 0.0565607 0)
(0 0.0565607 0)
(0 0.0565607 0)
(0 0.0565607 0)
(0 0.0565607 0)
(0 0.0565607 0)
(0 0.0565607 0)
(0 0.0565607 0)
(0 0.0565607 0)
(0 0.0565607 0)
(0 0.0565607 0)
(0 0.0565607 0)
(0 0.0565607 0)
(0 0.0565607 0)
(0 0.0565607 0)
(0 0.0565607 0)
(0 0.0565607 0)
(0 0.0565607 0)
(0 0.0565607 0)
(0 0.0565607 0)
(0 0.0565607 0)
(0 0.0565607 0)
(0 0.0565607 0)
(0 0.0565607 0)
(0 0.0565607 0)
(0 0.0565607 0)
(0 0.0565607 0)
(0 0.0565607 0)
(0 0.0565607 0)
(0 0.0565607 0)
(0 0.0565607 0)
(0 0.0565607 0)
(0 0.0565607 0)
(0 0.0565607 0)
(0 0.0565607 0)
(0 0.0565607 0)
(0 0.0565607 0)
(0 0.0565607 0)
(0 0.0565607 0)
(0 0.0565607 0)
(0 0.0565607 0)
(0 0.0565607 0)
(0 0.0565607 0)
(0 0.0565607 0)
(0 0.0565607 0)
(0 0.0565607 0)
(0 0.0565607 0)
(0 0.0565607 0)
(0 0.0565607 0)
(0 0.0565607 0)
(0 0.0565607 0)
(0 0.0565607 0)
(0 0.0565607 0)
(0 0.0565607 0)
(0 0.0565607 0)
(0 0.0565607 0)
(0 0.0565607 0)
(0 0.0565607 0)
(0 0.0565607 0)
(0 0.0565607 0)
(0 0.0565607 0)
(0 0.0565607 0)
(0 0.0565607 0)
(0 0.0565607 0)
(0 0.0565607 0)
(0 0.0565607 0)
(0 0.0565607 0)
(0 0.0565607 0)
(0 0.0565607 0)
(0 0.0565607 0)
(0 0.0565607 0)
(0 0.0565607 0)
(0 0.0565607 0)
(0 0.0565607 0)
(0 0.0565607 0)
(0 0.0565607 0)
(0 0.0565607 0)
(0 0.0565607 0)
(0 0.0565607 0)
(0 0.0565607 0)
(0 0.0565607 0)
(0 0.0565607 0)
(0 0.0565607 0)
(0 0.0565607 0)
(0 0.0565607 0)
(0 0.0565607 0)
(0 0.0565607 0)
(0 0.0565607 0)
(0 0.0565607 0)
(0 0.0565607 0)
(0 0.0565607 0)
(0 0.0565607 0)
(0 0.0565607 0)
(0 0.0565607 0)
(0 0.0565607 0)
(0 0.0565607 0)
(0 0.0565607 0)
(0 0.0565607 0)
(0 0.0565607 0)
(0 0.0565607 0)
(0 0.0565607 0)
(0 0.0565607 0)
(0 0.0565607 0)
(0 0.0565607 0)
(0 0.0565607 0)
(0 0.0565607 0)
(0 0.0565607 0)
(0 0.0565607 0)
(0 0.0565607 0)
(0 0.0565607 0)
(0 0.0565607 0)
(0 0.0565607 0)
(0 0.0565607 0)
(0 0.0565607 0)
(0 0.0565607 0)
(0 0.0565607 0)
(0 0.0565607 0)
(0 0.0565607 0)
(0 0.0565607 0)
(0 0.0565607 0)
(0 0.0565607 0)
(0 0.0565607 0)
(0 0.0565607 0)
(0 0.0565607 0)
(0 0.0565607 0)
(0 0.0565607 0)
(0 0.0565607 0)
(0 0.0565607 0)
(0 0.0565607 0)
(0 0.0565607 0)
(0 0 0)
(0 0 0)
(0 0 0)
(0 0 0)
(0 0 0)
(0 0 0)
(0 0 0)
(0 0 0)
(0 0 0)
(0 0 0)
(0 0 0)
(0 0 0)
(0 0 0)
(0 0 0)
(0 0 0)
(0 0 0)
(0 0 0)
(0 0 0)
(0 0 0)
(0 0 0)
(0 0 0)
(0 0 0)
(0 0 0)
(0 0 0)
(0 0 0)
(0 0 0)
(0 0 0)
(0 0 0)
(0 0 0)
(0 0 0)
(0 0 0)
(0 0 0)
(0 0 0)
(0 0 0)
(0 0 0)
(0 0 0)
(0 0 0)
(0 0 0)
(0 0 0)
(0 0 0)
(0 0 0)
(0 0 0)
(0 0 0)
(0 0 0)
(0 0 0)
(0 0 0)
(0 0 0)
(0 0 0)
(0 0 0)
(0 0 0)
(0 0 0)
(0 0 0)
(0 0 0)
(0 0 0)
(0 0 0)
(0 0 0)
(0 0 0)
(0 0 0)
(0 0 0)
(0 0 0)
(0 0 0)
(0 0 0)
(0 0 0)
(0 0 0)
(0 0 0)
(0 0 0)
(0 0 0)
(0 0 0)
(0 0 0)
(0 0 0)
(0 0 0)
(0 0 0)
(0 0.0565607 0)
(0 0.0565607 0)
(0 0.0565607 0)
(0 0.0565607 0)
(0 0.0565607 0)
(0 0.0565607 0)
(0 0.0565607 0)
(0 0.0565607 0)
(0 0.0565607 0)
(0 0.0565607 0)
(0 0.0565607 0)
(0 0.0565607 0)
(0 0.0565607 0)
(0 0.0565607 0)
(0 0.0565607 0)
(0 0.0565607 0)
(0 0.0565607 0)
(0 0.0565607 0)
(0 0.0565607 0)
(0 0.0565607 0)
(0 0.0565607 0)
(0 0.0565607 0)
(0 0.0565607 0)
(0 0.0565607 0)
(0 0.0565607 0)
(0 0.0565607 0)
(0 0.0565607 0)
(0 0.0565607 0)
(0 0.0565607 0)
(0 0.0565607 0)
(0 0.0565607 0)
(0 0.0565607 0)
(0 0.0565607 0)
(0 0.0565607 0)
(0 0.0565607 0)
(0 0.0565607 0)
(0 0.0565607 0)
(0 0.0565607 0)
(0 0.0565607 0)
(0 0.0565607 0)
(0 0.0565607 0)
(0 0.0565607 0)
(0 0.0565607 0)
(0 0.0565607 0)
(0 0.0565607 0)
(0 0.0565607 0)
(0 0.0565607 0)
(0 0.0565607 0)
(0 0.0565607 0)
(0 0.0565607 0)
(0 0.0565607 0)
(0 0.0565607 0)
(0 0.0565607 0)
(0 0.0565607 0)
(0 0.0565607 0)
(0 0.0565607 0)
(0 0.0565607 0)
(0 0.0565607 0)
(0 0.0565607 0)
(0 0.0565607 0)
(0 0.0565607 0)
(0 0.0565607 0)
(0 0.0565607 0)
(0 0.0565607 0)
(0 0.0565607 0)
(0 0.0565607 0)
(0 0.0565607 0)
(0 0.0565607 0)
(0 0.0565607 0)
(0 0.0565607 0)
(0 0.0565607 0)
(0 0.0565607 0)
(0 0.0565607 0)
(0 0.0565607 0)
(0 0.0565607 0)
(0 0.0565607 0)
(0 0.0565607 0)
(0 0.0565607 0)
(0 0.0565607 0)
(0 0.0565607 0)
(0 0.0565607 0)
(0 0.0565607 0)
(0 0.0565607 0)
(0 0.0565607 0)
(0 0.0565607 0)
(0 0.0565607 0)
(0 0.0565607 0)
(0 0.0565607 0)
(0 0.0565607 0)
(0 0.0565607 0)
(0 0.0565607 0)
(0 0.0565607 0)
(0 0.0565607 0)
(0 0.0565607 0)
(0 0.0565607 0)
(0 0.0565607 0)
(0 0.0565607 0)
(0 0.0565607 0)
(0 0.0565607 0)
(0 0.0565607 0)
(0 0.0565607 0)
(0 0.0565607 0)
(0 0.0565607 0)
(0 0.0565607 0)
(0 0.0565607 0)
(0 0.0565607 0)
(0 0.0565607 0)
(0 0.0565607 0)
(0 0.0565607 0)
(0 0.0565607 0)
(0 0.0565607 0)
(0 0.0565607 0)
(0 0.0565607 0)
(0 0.0565607 0)
(0 0.0565607 0)
(0 0.0565607 0)
(0 0.0565607 0)
(0 0.0565607 0)
(0 0.0565607 0)
(0 0.0565607 0)
(0 0.0565607 0)
(0 0.0565607 0)
(0 0.0565607 0)
(0 0.0565607 0)
(0 0.0565607 0)
(0 0.0565607 0)
(0 0.0565607 0)
(0 0.0565607 0)
(0 0.0565607 0)
(0 0.0565607 0)
(0 0.0565607 0)
(0 0.0565607 0)
(0 0.0565607 0)
(0 0.0565607 0)
(0 0.0565607 0)
(0 0.0565607 0)
(0 0.0565607 0)
(0 0.0565607 0)
(0 0.0565607 0)
(0 0.0565607 0)
(0 0.0565607 0)
(0 0.0565607 0)
(0 0.0565607 0)
(0 0.0565607 0)
(0 0.0565607 0)
(0 0.0565607 0)
(0 0.0565607 0)
(0 0.0565607 0)
(0 0.0565607 0)
(0 0.0565607 0)
(0 0.0565607 0)
(0 0.0565607 0)
(0 0.0565607 0)
(0 0.0565607 0)
(0 0.0565607 0)
(0 0.0565607 0)
(0 0.0565605 0)
(0 0.0565607 0)
(0 0.0565607 0)
(0 0.0565607 0)
(0 0.0565607 0)
(0 0.0565607 0)
(0 0.0565607 0)
(0 0.0565607 0)
(0 0.0565607 0)
(0 0.0565607 0)
(0 0.0565602 0)
(0 0.0565601 0)
(0 0.00323665 0)
(0 0.00363899 0)
(0 0.00367167 0)
(0 0.00370486 0)
(0 0.00397231 0)
(0 0.00435079 0)
(0 0.0565607 0)
(0 0.00238855 0)
(0 0.00263661 0)
(0 0.0045208 0)
(0 0.00372529 0)
(0 0.00200032 0)
(0 0.0565605 0)
(0 0.0565607 0)
(0 0.0565607 0)
(0 0.0565607 0)
(0 0.0565607 0)
(0 0.0565607 0)
(0 0.0565607 0)
(0 0.0565607 0)
(0 0.0565607 0)
(0 0.0565607 0)
(0 0.0565607 0)
(0 0.0565607 0)
(0 0.0565607 0)
(0 0.0565607 0)
(0 0.0565607 0)
(0 0.00195078 0)
(0 0.0038654 0)
(0 0.0034059 0)
(0 0.00359243 0)
(0 0.00134541 0)
(0 0.00147694 0)
(0 0.0565605 0)
(0 0.000750729 0)
(0 0.00419426 0)
(0 0.00439488 0)
(0 0.00299064 0)
(0 0.00381982 0)
(0 0.00348901 0)
(0 0.00439906 0)
(0 0.00235741 0)
(0 0.00275721 0)
(0 0.00231726 0)
(0 0.00172594 0)
(0 0.00084989 0)
(0 0.00031204 0)
(0 0.0543796 0)
(0 0.0541374 0)
(0 0.0543449 0)
(0 0.054099 0)
(0 0.0543366 0)
(0 0.0540131 0)
(0 0.0542542 0)
(0 0.0539909 0)
(0 0.0542061 0)
(0 0.0539321 0)
(0 0.0541487 0)
(0 0.053888 0)
(0 0.0540908 0)
(0 0.053834 0)
(0 0.0540321 0)
(0 0.053761 0)
(0 0.0539674 0)
(0 0.0536949 0)
(0 0.0538943 0)
(0 0.0536036 0)
(0 0.0538181 0)
(0 0.053509 0)
(0 0.0537295 0)
(0 0.0534308 0)
(0 0.0536315 0)
(0 0.0533294 0)
(0 0.0535347 0)
(0 0.0532222 0)
(0 0.0534319 0)
(0 0.0531141 0)
(0 0.053318 0)
(0 0.052983 0)
(0 0.0531814 0)
(0 0.0528436 0)
(0 0.053045 0)
(0 0.0527014 0)
(0 0.0529156 0)
(0 0.0525429 0)
(0 0.0527783 0)
(0 0.0523782 0)
(0 0.0526181 0)
(0 0.0522164 0)
(0 0.0524483 0)
(0 0.0537008 0)
(0 0.0532396 0)
(0 0.052635 0)
(0 0.0520297 0)
(0 0.0522606 0)
(0 0.05183 0)
(0 0.0520609 0)
(0 0.051556 0)
(0 0.0516185 0)
(0 0.0518462 0)
(0 0.0513703 0)
(0 0.0516105 0)
(0 0.0510993 0)
(0 0.0513498 0)
(0 0.0508038 0)
(0 0.0510678 0)
(0 0.0531814 0)
(0 0.0537374 0)
(0 0.0522997 0)
(0 0.0504905 0)
(0 0.0507629 0)
(0 0.0501572 0)
(0 0.0504309 0)
(0 0.0510198 0)
(0 0.0506854 0)
(0 0.051257 0)
(0 0.0509252 0)
(0 0.0503233 0)
(0 0.0505562 0)
(0 0.0499407 0)
(0 0.0501648 0)
(0 0.0507423 0)
(0 0.0503639 0)
(0 0.0509285 0)
(0 0.0497837 0)
(0 0.0541516 0)
(0 0.0505471 0)
(0 0.0510941 0)
(0 0.0507136 0)
(0 0.0512469 0)
(0 0.0508633 0)
(0 0.0514118 0)
(0 0.050991 0)
(0 0.0515206 0)
(0 0.0544718 0)
(0 0.0510837 0)
(0 0.0515996 0)
(0 0.0511462 0)
(0 0.0505878 0)
(0 0.0516599 0)
(0 0.0511931 0)
(0 0.0517124 0)
(0 0.0519292 0)
(0 0.0512219 0)
(0 0.051731 0)
(0 0.0512217 0)
(0 0.05171 0)
(0 0.0511908 0)
(0 0.0516821 0)
(0 0.050207 0)
(0 0.051147 0)
(0 0.0516223 0)
(0 0.0506279 0)
(0 0.0510592 0)
(0 0.0515243 0)
(0 0.0509269 0)
(0 0.0521831 0)
(0 0.0514043 0)
(0 0.050783 0)
(0 0.0519664 0)
(0 0.0518471 0)
(0 0.05238 0)
(0 0.0522666 0)
(0 0.0527571 0)
(0 0.0526472 0)
(0 0.053074 0)
(0 0.0529623 0)
(0 0.0533669 0)
(0 0.0532504 0)
(0 0.0527756 0)
(0 0.0536541 0)
(0 0.0535241 0)
(0 0.0539016 0)
(0 0.053763 0)
(0 0.0541192 0)
(0 0.0542407 0)
(0 0.0544364 0)
(0 0.0545417 0)
(0 0.054317 0)
(0 0.0546106 0)
(0 0.0544955 0)
(0 0.0547653 0)
(0 0.0546499 0)
(0 0.0549015 0)
(0 0.054784 0)
(0 0.0550231 0)
(0 0.0549057 0)
(0 0.0546522 0)
(0 0.0547714 0)
(0 0.055128 0)
(0 0.0550155 0)
(0 0.0548813 0)
(0 0.0551124 0)
(0 0.0549733 0)
(0 0.0551891 0)
(0 0.0550233 0)
(0 0.0552549 0)
(0 0.0551318 0)
(0 0.0553206 0)
(0 0.0551998 0)
(0 0.0553733 0)
(0 0.0545026 0)
(0 0.0554429 0)
(0 0.0550247 0)
(0 0.0564879 0)
(0 0.0564754 0)
(0 0.0564893 0)
(0 0.0564771 0)
(0 0.0564908 0)
(0 0.0564786 0)
(0 0.0564921 0)
(0 0.05648 0)
(0 0.0564928 0)
(0 0.0564811 0)
(0 0.0564934 0)
(0 0.0564822 0)
(0 0.0564683 0)
(0 0.0564695 0)
(0 0.0564585 0)
(0 0.0564832 0)
(0 0.0564711 0)
(0 0.0564843 0)
(0 0.0564724 0)
(0 0.0564852 0)
(0 0.0564727 0)
(0 0.0564858 0)
(0 0.0564734 0)
(0 0.0564864 0)
(0 0.0564743 0)
(0 0.056487 0)
(0 0.0564755 0)
(0 0.0564875 0)
(0 0.0564761 0)
(0 0.0564879 0)
(0 0.0564758 0)
(0 0.0564879 0)
(0 0.0564757 0)
(0 0.0564878 0)
(0 0.0564757 0)
(0 0.0564878 0)
(0 0.0564758 0)
(0 0.0564622 0)
(0 0.0564627 0)
(0 0.0564623 0)
(0 0.056454 0)
(0 0.0564764 0)
(0 0.0564631 0)
(0 0.0564766 0)
(0 0.0564629 0)
(0 0.0564764 0)
(0 0.0564626 0)
(0 0.056476 0)
(0 0.0564626 0)
(0 0.0564758 0)
(0 0.0564628 0)
(0 0.056476 0)
(0 0.0564626 0)
(0 0.0564758 0)
(0 0.0564621 0)
(0 0.0564754 0)
(0 0.0564615 0)
(0 0.056475 0)
(0 0.0564612 0)
(0 0.0564458 0)
(0 0.0564454 0)
(0 0.0564479 0)
(0 0.0564634 0)
(0 0.0564451 0)
(0 0.0564603 0)
(0 0.0564441 0)
(0 0.0564596 0)
(0 0.0564433 0)
(0 0.0564592 0)
(0 0.0564429 0)
(0 0.056459 0)
(0 0.056442 0)
(0 0.0564579 0)
(0 0.0564402 0)
(0 0.0564563 0)
(0 0.0564388 0)
(0 0.0564551 0)
(0 0.0564374 0)
(0 0.0564539 0)
(0 0.0564358 0)
(0 0.056417 0)
(0 0.0564149 0)
(0 0.056425 0)
(0 0.0564342 0)
(0 0.0564128 0)
(0 0.0564324 0)
(0 0.0564111 0)
(0 0.0564304 0)
(0 0.0564085 0)
(0 0.0563886 0)
(0 0.0564281 0)
(0 0.056405 0)
(0 0.0564256 0)
(0 0.0564018 0)
(0 0.0564227 0)
(0 0.0563981 0)
(0 0.0564194 0)
(0 0.0563941 0)
(0 0.05637 0)
(0 0.0563652 0)
(0 0.0563899 0)
(0 0.0563603 0)
(0 0.0563852 0)
(0 0.0563544 0)
(0 0.0563799 0)
(0 0.0563473 0)
(0 0.0563197 0)
(0 0.0563087 0)
(0 0.0563394 0)
(0 0.0562987 0)
(0 0.0563304 0)
(0 0.0562888 0)
(0 0.0563221 0)
(0 0.0562788 0)
(0 0.0563131 0)
(0 0.0562611 0)
(0 0.0562675 0)
(0 0.0563019 0)
(0 0.0562561 0)
(0 0.0562903 0)
(0 0.0562414 0)
(0 0.056275 0)
(0 0.0562087 0)
(0 0.0562222 0)
(0 0.0562562 0)
(0 0.0562002 0)
(0 0.0562371 0)
(0 0.0561765 0)
(0 0.0564743 0)
(0 0.0564698 0)
(0 0.0562155 0)
(0 0.0561493 0)
(0 0.0564873 0)
(0 0.0564895 0)
(0 0.0564463 0)
(0 0.0564477 0)
(0 0.0564284 0)
(0 0.0563538 0)
(0 0.0564986 0)
(0 0.056498 0)
(0 0.0561893 0)
(0 0.0561178 0)
(0 0.0560734 0)
(0 0.0560365 0)
(0 0.0559874 0)
(0 0.0563039 0)
(0 0.0565018 0)
(0 0.0561591 0)
(0 0.0565002 0)
(0 0.0562264 0)
(0 0.0559436 0)
(0 0.0558895 0)
(0 0.0561956 0)
(0 0.0562585 0)
(0 0.0562275 0)
(0 0.0398645 0)
(0 0.0562859 0)
(0 0.0562554 0)
(0 0.0563105 0)
(0 0.0558369 0)
(0 0.0557789 0)
(0 0.0383874 0)
(0 0.0395445 0)
(0 0.05628 0)
(0 0.0563313 0)
(0 0.056358 0)
(0 0.0380443 0)
(0 0.0392212 0)
(0 0.0406461 0)
(0 0.0403304 0)
(0 0.0388848 0)
(0 0.040002 0)
(0 0.0385336 0)
(0 0.03965 0)
(0 0.0381567 0)
(0 0.0392729 0)
(0 0.0377474 0)
(0 0.0388732 0)
(0 0.0562228 0)
(0 0.0563008 0)
(0 0.0563494 0)
(0 0.0563174 0)
(0 0.056364 0)
(0 0.0416783 0)
(0 0.0563313 0)
(0 0.0563748 0)
(0 0.0373115 0)
(0 0.0384477 0)
(0 0.0563424 0)
(0 0.056384 0)
(0 0.0563504 0)
(0 0.0563896 0)
(0 0.0563071 0)
(0 0.0403191 0)
(0 0.0368477 0)
(0 0.0379988 0)
(0 0.0557192 0)
(0 0.0556548 0)
(0 0.0563544 0)
(0 0.0563915 0)
(0 0.0420268 0)
(0 0.0432355 0)
(0 0.042068 0)
(0 0.0432176 0)
(0 0.0421086 0)
(0 0.0432295 0)
(0 0.0421 0)
(0 0.0363569 0)
(0 0.0375227 0)
(0 0.0358413 0)
(0 0.0370207 0)
(0 0.0386108 0)
(0 0.0381218 0)
(0 0.0364992 0)
(0 0.0376134 0)
(0 0.0359541 0)
(0 0.0370835 0)
(0 0.0353899 0)
(0 0.0365581 0)
(0 0.0432654 0)
(0 0.0420301 0)
(0 0.0348132 0)
(0 0.0359703 0)
(0 0.0564035 0)
(0 0.0563564 0)
(0 0.0563972 0)
(0 0.0341882 0)
(0 0.0353152 0)
(0 0.05559 0)
(0 0.0555158 0)
(0 0.0555817 0)
(0 0.0554373 0)
(0 0.0554968 0)
(0 0.0553509 0)
(0 0.055414 0)
(0 0.0552564 0)
(0 0.0553293 0)
(0 0.0432033 0)
(0 0.0419361 0)
(0 0.040839 0)
(0 0.0335057 0)
(0 0.034647 0)
(0 0.039116 0)
(0 0.0363807 0)
(0 0.0357229 0)
(0 0.0339644 0)
(0 0.0350479 0)
(0 0.0332586 0)
(0 0.0343391 0)
(0 0.0360615 0)
(0 0.0353492 0)
(0 0.0335865 0)
(0 0.0345971 0)
(0 0.0327871 0)
(0 0.0337758 0)
(0 0.0319469 0)
(0 0.0329066 0)
(0 0.0346155 0)
(0 0.0337646 0)
(0 0.0320163 0)
(0 0.0328832 0)
(0 0.0345183 0)
(0 0.0336815 0)
(0 0.0350634 0)
(0 0.0346918 0)
(0 0.0327527 0)
(0 0.0334532 0)
(0 0.0352227 0)
(0 0.0340303 0)
(0 0.032324 0)
(0 0.0329003 0)
(0 0.0345807 0)
(0 0.0333979 0)
(0 0.035 0)
(0 0.0337891 0)
(0 0.0322169 0)
(0 0.0353165 0)
(0 0.0340964 0)
(0 0.0355746 0)
(0 0.0342943 0)
(0 0.0357604 0)
(0 0.0344387 0)
(0 0.0358715 0)
(0 0.034536 0)
(0 0.0359041 0)
(0 0.0330769 0)
(0 0.0345393 0)
(0 0.0358627 0)
(0 0.034486 0)
(0 0.035778 0)
(0 0.0342785 0)
(0 0.0355785 0)
(0 0.0339517 0)
(0 0.0352687 0)
(0 0.0325215 0)
(0 0.0551524 0)
(0 0.0552249 0)
(0 0.0563555 0)
(0 0.0563901 0)
(0 0.0430974 0)
(0 0.0417891 0)
(0 0.044412 0)
(0 0.0369976 0)
(0 0.0429399 0)
(0 0.0415981 0)
(0 0.0427507 0)
(0 0.0413823 0)
(0 0.0401585 0)
(0 0.0399052 0)
(0 0.0411689 0)
(0 0.0396631 0)
(0 0.0554435 0)
(0 0.0555316 0)
(0 0.0335874 0)
(0 0.0371047 0)
(0 0.0365766 0)
(0 0.0563504 0)
(0 0.0563851 0)
(0 0.0409545 0)
(0 0.0550383 0)
(0 0.0551094 0)
(0 0.0383055 0)
(0 0.0380528 0)
(0 0.056422 0)
(0 0.0564133 0)
(0 0.0563783 0)
(0 0.056407 0)
(0 0.0564403 0)
(0 0.0564316 0)
(0 0.0564005 0)
(0 0.0564245 0)
(0 0.0564537 0)
(0 0.0564442 0)
(0 0.0564154 0)
(0 0.0564363 0)
(0 0.0564645 0)
(0 0.0564539 0)
(0 0.0564245 0)
(0 0.0564419 0)
(0 0.0564214 0)
(0 0.0564694 0)
(0 0.0564583 0)
(0 0.0564281 0)
(0 0.0564448 0)
(0 0.0564115 0)
(0 0.0564288 0)
(0 0.05646 0)
(0 0.056311 0)
(0 0.0553598 0)
(0 0.055084 0)
(0 0.0554311 0)
(0 0.054914 0)
(0 0.0549872 0)
(0 0.0551744 0)
(0 0.0550536 0)
(0 0.0552324 0)
(0 0.0551139 0)
(0 0.0552847 0)
(0 0.0551687 0)
(0 0.0553319 0)
(0 0.0552183 0)
(0 0.0553757 0)
(0 0.055264 0)
(0 0.0554173 0)
(0 0.0553036 0)
(0 0.0554478 0)
(0 0.055336 0)
(0 0.0554722 0)
(0 0.0553649 0)
(0 0.0554985 0)
(0 0.0553919 0)
(0 0.0555244 0)
(0 0.0554214 0)
(0 0.0555488 0)
(0 0.0554392 0)
(0 0.055566 0)
(0 0.0554522 0)
(0 0.05558 0)
(0 0.0554743 0)
(0 0.055595 0)
(0 0.0554916 0)
(0 0.0556081 0)
(0 0.0555047 0)
(0 0.0556195 0)
(0 0.055714 0)
(0 0.0557233 0)
(0 0.0556301 0)
(0 0.0557314 0)
(0 0.0556395 0)
(0 0.0557384 0)
(0 0.0556485 0)
(0 0.0557454 0)
(0 0.0556552 0)
(0 0.0557527 0)
(0 0.0556586 0)
(0 0.0557559 0)
(0 0.0345896 0)
(0 0.0556614 0)
(0 0.055757 0)
(0 0.0558401 0)
(0 0.0558412 0)
(0 0.055759 0)
(0 0.055841 0)
(0 0.0365663 0)
(0 0.0362696 0)
(0 0.0548555 0)
(0 0.0558182 0)
(0 0.05576 0)
(0 0.0558393 0)
(0 0.0335654 0)
(0 0.0551957 0)
(0 0.056408 0)
(0 0.0559109 0)
(0 0.0557598 0)
(0 0.0558413 0)
(0 0.0440131 0)
(0 0.0556457 0)
(0 0.0552621 0)
(0 0.0553402 0)
(0 0.0557591 0)
(0 0.0558441 0)
(0 0.0559239 0)
(0 0.055919 0)
(0 0.0558433 0)
(0 0.0559216 0)
(0 0.0558421 0)
(0 0.0559202 0)
(0 0.055839 0)
(0 0.0559166 0)
(0 0.0559974 0)
(0 0.0558342 0)
(0 0.055912 0)
(0 0.0559874 0)
(0 0.0559826 0)
(0 0.0559072 0)
(0 0.0559776 0)
(0 0.0559014 0)
(0 0.055973 0)
(0 0.0558941 0)
(0 0.0559658 0)
(0 0.055885 0)
(0 0.0559558 0)
(0 0.0558743 0)
(0 0.0308965 0)
(0 0.056338 0)
(0 0.0550468 0)
(0 0.0346938 0)
(0 0.0343754 0)
(0 0.0555415 0)
(0 0.0521378 0)
(0 0.0502771 0)
(0 0.0501077 0)
(0 0.0495711 0)
(0 0.056049 0)
(0 0.0368053 0)
(0 0.0558195 0)
(0 0.0529743 0)
(0 0.0539199 0)
(0 0.0535286 0)
(0 0.0552696 0)
(0 0.0553348 0)
(0 0.0502925 0)
(0 0.0370027 0)
(0 0.0532403 0)
(0 0.0551507 0)
(0 0.0552272 0)
(0 0.0560512 0)
(0 0.0359386 0)
(0 0.0340138 0)
(0 0.0555729 0)
(0 0.0493683 0)
(0 0.0487947 0)
(0 0.0349873 0)
(0 0.032994 0)
(0 0.033277 0)
(0 0.0550221 0)
(0 0.0549533 0)
(0 0.0556668 0)
(0 0.0555566 0)
(0 0.055092 0)
(0 0.0552961 0)
(0 0.0554815 0)
(0 0.0311422 0)
(0 0.031417 0)
(0 0.0515603 0)
(0 0.0523834 0)
(0 0.0518774 0)
(0 0.0522266 0)
(0 0.0517077 0)
(0 0.052067 0)
(0 0.0515206 0)
(0 0.0519 0)
(0 0.0513099 0)
(0 0.0509068 0)
(0 0.0548772 0)
(0 0.0564964 0)
(0 0.0355484 0)
(0 0.0336149 0)
(0 0.0557495 0)
(0 0.0485606 0)
(0 0.0479486 0)
(0 0.0491303 0)
(0 0.0555054 0)
(0 0.0565567 0)
(0 0.0565554 0)
(0 0.056557 0)
(0 0.0565558 0)
(0 0.0565572 0)
(0 0.0565561 0)
(0 0.0565574 0)
(0 0.0565563 0)
(0 0.0565576 0)
(0 0.0565565 0)
(0 0.056555 0)
(0 0.0565553 0)
(0 0.0565567 0)
(0 0.0565555 0)
(0 0.0565569 0)
(0 0.0565558 0)
(0 0.0565571 0)
(0 0.056556 0)
(0 0.0565573 0)
(0 0.0565563 0)
(0 0.0565575 0)
(0 0.0565564 0)
(0 0.0565576 0)
(0 0.0565566 0)
(0 0.0565552 0)
(0 0.0565555 0)
(0 0.0565568 0)
(0 0.0565557 0)
(0 0.056557 0)
(0 0.0565559 0)
(0 0.0565572 0)
(0 0.0565562 0)
(0 0.0565546 0)
(0 0.0565549 0)
(0 0.0565564 0)
(0 0.0565552 0)
(0 0.0565566 0)
(0 0.0565554 0)
(0 0.0565568 0)
(0 0.0565557 0)
(0 0.056557 0)
(0 0.0565559 0)
(0 0.0565572 0)
(0 0.0565561 0)
(0 0.0565546 0)
(0 0.0565549 0)
(0 0.0565564 0)
(0 0.0565552 0)
(0 0.0565565 0)
(0 0.0565554 0)
(0 0.0565567 0)
(0 0.0565557 0)
(0 0.056557 0)
(0 0.0565559 0)
(0 0.0565571 0)
(0 0.0565561 0)
(0 0.0565546 0)
(0 0.0565549 0)
(0 0.0565563 0)
(0 0.0565552 0)
(0 0.0565566 0)
(0 0.0565555 0)
(0 0.0565567 0)
(0 0.0565557 0)
(0 0.056554 0)
(0 0.0565569 0)
(0 0.0565559 0)
(0 0.0565572 0)
(0 0.0565562 0)
(0 0.0565573 0)
(0 0.0565564 0)
(0 0.0565549 0)
(0 0.0565552 0)
(0 0.0565565 0)
(0 0.0565554 0)
(0 0.0565538 0)
(0 0.0565542 0)
(0 0.056556 0)
(0 0.0565545 0)
(0 0.0565561 0)
(0 0.0565548 0)
(0 0.0565564 0)
(0 0.0565551 0)
(0 0.0565566 0)
(0 0.0565554 0)
(0 0.0565537 0)
(0 0.056554 0)
(0 0.0565557 0)
(0 0.0565544 0)
(0 0.056556 0)
(0 0.0565547 0)
(0 0.0565528 0)
(0 0.0565532 0)
(0 0.056555 0)
(0 0.0565536 0)
(0 0.0565554 0)
(0 0.056554 0)
(0 0.0565514 0)
(0 0.0565557 0)
(0 0.0565543 0)
(0 0.0565559 0)
(0 0.0565547 0)
(0 0.0565562 0)
(0 0.056555 0)
(0 0.0565532 0)
(0 0.0565536 0)
(0 0.0565554 0)
(0 0.056554 0)
(0 0.0565557 0)
(0 0.0565544 0)
(0 0.0565524 0)
(0 0.0565528 0)
(0 0.0565548 0)
(0 0.0565533 0)
(0 0.0565551 0)
(0 0.0565538 0)
(0 0.0565555 0)
(0 0.0565542 0)
(0 0.0565557 0)
(0 0.0565544 0)
(0 0.0565523 0)
(0 0.0565529 0)
(0 0.0565548 0)
(0 0.0565534 0)
(0 0.0565512 0)
(0 0.0565516 0)
(0 0.0565539 0)
(0 0.0565522 0)
(0 0.0565495 0)
(0 0.0565502 0)
(0 0.0565527 0)
(0 0.0565508 0)
(0 0.0565533 0)
(0 0.0565515 0)
(0 0.0565541 0)
(0 0.0565521 0)
(0 0.0565544 0)
(0 0.0565525 0)
(0 0.0565499 0)
(0 0.0565505 0)
(0 0.056553 0)
(0 0.0565511 0)
(0 0.0565481 0)
(0 0.0565489 0)
(0 0.0565517 0)
(0 0.0565496 0)
(0 0.0565523 0)
(0 0.0565503 0)
(0 0.056547 0)
(0 0.0565478 0)
(0 0.0565509 0)
(0 0.0565486 0)
(0 0.0565516 0)
(0 0.0565494 0)
(0 0.0565458 0)
(0 0.0565467 0)
(0 0.0565501 0)
(0 0.0565476 0)
(0 0.0565508 0)
(0 0.0565484 0)
(0 0.0565445 0)
(0 0.0565455 0)
(0 0.0565492 0)
(0 0.0565464 0)
(0 0.056542 0)
(0 0.0565431 0)
(0 0.0565473 0)
(0 0.0565441 0)
(0 0.0565481 0)
(0 0.056545 0)
(0 0.0565403 0)
(0 0.0565413 0)
(0 0.0565463 0)
(0 0.0565423 0)
(0 0.0565505 0)
(0 0.0565367 0)
(0 0.0565379 0)
(0 0.0565441 0)
(0 0.0565392 0)
(0 0.0565471 0)
(0 0.0565522 0)
(0 0.0565324 0)
(0 0.0565337 0)
(0 0.0565404 0)
(0 0.0565349 0)
(0 0.0565414 0)
(0 0.056536 0)
(0 0.0565538 0)
(0 0.0565531 0)
(0 0.0565423 0)
(0 0.056537 0)
(0 0.0565294 0)
(0 0.0565257 0)
(0 0.0565303 0)
(0 0.0565379 0)
(0 0.0565531 0)
(0 0.056554 0)
(0 0.0565553 0)
(0 0.0565213 0)
(0 0.0565534 0)
(0 0.0565569 0)
(0 0.0565311 0)
(0 0.0565385 0)
(0 0.0565566 0)
(0 0.0565574 0)
(0 0.0565466 0)
(0 0.0565578 0)
(0 0.0565577 0)
(0 0.0565577 0)
(0 0.0565316 0)
(0 0.0565389 0)
(0 0.0565582 0)
(0 0.0565581 0)
(0 0.0565444 0)
(0 0.0565447 0)
(0 0.0565392 0)
(0 0.0565448 0)
(0 0.0565391 0)
(0 0.0565447 0)
(0 0.0565385 0)
(0 0.0565441 0)
(0 0.0565315 0)
(0 0.0565582 0)
(0 0.0565581 0)
(0 0.0549441 0)
(0 0.0506665 0)
(0 0.0510705 0)
(0 0.0319708 0)
(0 0.0315586 0)
(0 0.0297882 0)
(0 0.0293627 0)
(0 0.0481834 0)
(0 0.0472939 0)
(0 0.0475275 0)
(0 0.0465916 0)
(0 0.0468187 0)
(0 0.0458425 0)
(0 0.0460623 0)
(0 0.0455817 0)
(0 0.0447887 0)
(0 0.0503946 0)
(0 0.0507995 0)
(0 0.0547122 0)
(0 0.0565544 0)
(0 0.0565372 0)
(0 0.0565427 0)
(0 0.0502366 0)
(0 0.0565489 0)
(0 0.0291082 0)
(0 0.029343 0)
(0 0.0444794 0)
(0 0.0482916 0)
(0 0.0488568 0)
(0 0.035126 0)
(0 0.0547759 0)
(0 0.027431 0)
(0 0.0270286 0)
(0 0.0558878 0)
(0 0.0436388 0)
(0 0.0545247 0)
(0 0.0544555 0)
(0 0.050091 0)
(0 0.0504981 0)
(0 0.0559345 0)
(0 0.0514895 0)
(0 0.0565348 0)
(0 0.0565403 0)
(0 0.0479786 0)
(0 0.0565494 0)
(0 0.0528215 0)
(0 0.0289164 0)
(0 0.0266003 0)
(0 0.0245868 0)
(0 0.0241855 0)
(0 0.0268746 0)
(0 0.0270572 0)
(0 0.0295104 0)
(0 0.0271841 0)
(0 0.0294946 0)
(0 0.0272569 0)
(0 0.0294914 0)
(0 0.0273724 0)
(0 0.0296218 0)
(0 0.0274136 0)
(0 0.0297025 0)
(0 0.0273614 0)
(0 0.0297342 0)
(0 0.0497567 0)
(0 0.051178 0)
(0 0.0508719 0)
(0 0.0444403 0)
(0 0.0261415 0)
(0 0.0237442 0)
(0 0.0349123 0)
(0 0.0565314 0)
(0 0.0565369 0)
(0 0.0565445 0)
(0 0.0565412 0)
(0 0.0565475 0)
(0 0.0565444 0)
(0 0.0565367 0)
(0 0.0565401 0)
(0 0.0565468 0)
(0 0.0565426 0)
(0 0.0565486 0)
(0 0.0565445 0)
(0 0.0565499 0)
(0 0.0565456 0)
(0 0.0565508 0)
(0 0.0565466 0)
(0 0.0565513 0)
(0 0.0565473 0)
(0 0.0565517 0)
(0 0.0565476 0)
(0 0.0565519 0)
(0 0.0565477 0)
(0 0.0565518 0)
(0 0.0565476 0)
(0 0.0565515 0)
(0 0.0565464 0)
(0 0.0565511 0)
(0 0.0432803 0)
(0 0.0565247 0)
(0 0.0542481 0)
(0 0.0541689 0)
(0 0.0256379 0)
(0 0.0232553 0)
(0 0.025123 0)
(0 0.0228008 0)
(0 0.0248567 0)
(0 0.0219046 0)
(0 0.0238738 0)
(0 0.0215832 0)
(0 0.0232181 0)
(0 0.0209193 0)
(0 0.0224851 0)
(0 0.0199193 0)
(0 0.0217176 0)
(0 0.0195035 0)
(0 0.0209702 0)
(0 0.0187742 0)
(0 0.0201529 0)
(0 0.0179794 0)
(0 0.0193432 0)
(0 0.0171845 0)
(0 0.0188224 0)
(0 0.0163198 0)
(0 0.0175307 0)
(0 0.0153438 0)
(0 0.0163736 0)
(0 0.0185131 0)
(0 0.0172626 0)
(0 0.015244 0)
(0 0.015993 0)
(0 0.0140787 0)
(0 0.0179651 0)
(0 0.0165788 0)
(0 0.0184827 0)
(0 0.0170039 0)
(0 0.0188588 0)
(0 0.0172939 0)
(0 0.0191129 0)
(0 0.0174506 0)
(0 0.0192487 0)
(0 0.0154774 0)
(0 0.0174721 0)
(0 0.0192607 0)
(0 0.0173694 0)
(0 0.0191487 0)
(0 0.0203772 0)
(0 0.021358 0)
(0 0.0171369 0)
(0 0.0189123 0)
(0 0.0210459 0)
(0 0.0155831 0)
(0 0.0565423 0)
(0 0.016786 0)
(0 0.0185624 0)
(0 0.0206526 0)
(0 0.0202607 0)
(0 0.0181096 0)
(0 0.0197806 0)
(0 0.0565375 0)
(0 0.01727 0)
(0 0.0545859 0)
(0 0.054832 0)
(0 0.0423948 0)
(0 0.0427541 0)
(0 0.0220252 0)
(0 0.0565546 0)
(0 0.0565542 0)
(0 0.0565508 0)
(0 0.0565537 0)
(0 0.0485523 0)
(0 0.0470019 0)
(0 0.0462372 0)
(0 0.0471399 0)
(0 0.0463678 0)
(0 0.0472422 0)
(0 0.0464591 0)
(0 0.0455501 0)
(0 0.0456265 0)
(0 0.0465096 0)
(0 0.0456636 0)
(0 0.0465184 0)
(0 0.0456611 0)
(0 0.0447708 0)
(0 0.0447488 0)
(0 0.045619 0)
(0 0.0446931 0)
(0 0.0455334 0)
(0 0.0446077 0)
(0 0.0454116 0)
(0 0.0444729 0)
(0 0.0452512 0)
(0 0.0442795 0)
(0 0.045041 0)
(0 0.0440354 0)
(0 0.0447855 0)
(0 0.0437551 0)
(0 0.0444883 0)
(0 0.043427 0)
(0 0.0441496 0)
(0 0.043053 0)
(0 0.0437715 0)
(0 0.0432439 0)
(0 0.0448329 0)
(0 0.0444479 0)
(0 0.0454729 0)
(0 0.0450793 0)
(0 0.0438004 0)
(0 0.0440211 0)
(0 0.0446442 0)
(0 0.045667 0)
(0 0.0452231 0)
(0 0.044176 0)
(0 0.044755 0)
(0 0.0436767 0)
(0 0.044254 0)
(0 0.0453018 0)
(0 0.0448011 0)
(0 0.0458191 0)
(0 0.0453169 0)
(0 0.0463019 0)
(0 0.0458041 0)
(0 0.0467524 0)
(0 0.046255 0)
(0 0.047166 0)
(0 0.0466759 0)
(0 0.0475511 0)
(0 0.0470643 0)
(0 0.0479031 0)
(0 0.0473487 0)
(0 0.0482471 0)
(0 0.0478079 0)
(0 0.0485808 0)
(0 0.0481154 0)
(0 0.0473913 0)
(0 0.0476558 0)
(0 0.0484127 0)
(0 0.0479297 0)
(0 0.0487153 0)
(0 0.0482345 0)
(0 0.0489939 0)
(0 0.0485084 0)
(0 0.0491907 0)
(0 0.0487455 0)
(0 0.04939 0)
(0 0.0489612 0)
(0 0.0496183 0)
(0 0.0491583 0)
(0 0.0498573 0)
(0 0.0493826 0)
(0 0.050063 0)
(0 0.0496106 0)
(0 0.0502443 0)
(0 0.0498008 0)
(0 0.0504095 0)
(0 0.0499702 0)
(0 0.050564 0)
(0 0.050128 0)
(0 0.0494995 0)
(0 0.0496573 0)
(0 0.0502829 0)
(0 0.0498162 0)
(0 0.050426 0)
(0 0.0489996 0)
(0 0.0484165 0)
(0 0.0470605 0)
(0 0.0447956 0)
(0 0.046204 0)
(0 0.0502916 0)
(0 0.0497555 0)
(0 0.0508115 0)
(0 0.0208613 0)
(0 0.0565518 0)
(0 0.0175823 0)
(0 0.0193324 0)
(0 0.0565545 0)
(0 0.0565501 0)
(0 0.0565531 0)
(0 0.0247794 0)
(0 0.0523912 0)
(0 0.0149735 0)
(0 0.0193474 0)
(0 0.0245821 0)
(0 0.042297 0)
(0 0.0418849 0)
(0 0.054638 0)
(0 0.0548783 0)
(0 0.047642 0)
(0 0.0493717 0)
(0 0.0565425 0)
(0 0.022012 0)
(0 0.0431389 0)
(0 0.0565489 0)
(0 0.0480196 0)
(0 0.0515195 0)
(0 0.0470173 0)
(0 0.0266686 0)
(0 0.0169501 0)
(0 0.0187808 0)
(0 0.0493161 0)
(0 0.0564856 0)
(0 0.0489469 0)
(0 0.0369569 0)
(0 0.0365023 0)
(0 0.0461883 0)
(0 0.0512114 0)
(0 0.0161774 0)
(0 0.0179816 0)
(0 0.0490133 0)
(0 0.0204535 0)
(0 0.0197041 0)
(0 0.05652 0)
(0 0.0466432 0)
(0 0.0459658 0)
(0 0.047334 0)
(0 0.0563122 0)
(0 0.0317388 0)
(0 0.0565117 0)
(0 0.0524451 0)
(0 0.0565551 0)
(0 0.0548767 0)
(0 0.0553447 0)
(0 0.0467751 0)
(0 0.0555366 0)
(0 0.0565568 0)
(0 0.0539421 0)
(0 0.0538528 0)
(0 0.0540758 0)
(0 0.0537502 0)
(0 0.0539676 0)
(0 0.0536321 0)
(0 0.053848 0)
(0 0.0565451 0)
(0 0.017124 0)
(0 0.0189707 0)
(0 0.0414651 0)
(0 0.0418216 0)
(0 0.0565563 0)
(0 0.055394 0)
(0 0.0565585 0)
(0 0.0515663 0)
(0 0.0517826 0)
(0 0.0520687 0)
(0 0.0522653 0)
(0 0.0525271 0)
(0 0.0527097 0)
(0 0.0529468 0)
(0 0.0531128 0)
(0 0.0533251 0)
(0 0.0534746 0)
(0 0.0532663 0)
(0 0.0536191 0)
(0 0.0534045 0)
(0 0.0537381 0)
(0 0.0535274 0)
(0 0.05385 0)
(0 0.0536401 0)
(0 0.0539486 0)
(0 0.0531632 0)
(0 0.0535232 0)
(0 0.0533722 0)
(0 0.053709 0)
(0 0.0535673 0)
(0 0.0538797 0)
(0 0.0537309 0)
(0 0.0540309 0)
(0 0.0538782 0)
(0 0.0541644 0)
(0 0.0540166 0)
(0 0.0542911 0)
(0 0.0541468 0)
(0 0.0565029 0)
(0 0.0564419 0)
(0 0.0565584 0)
(0 0.056558 0)
(0 0.0565573 0)
(0 0.0564987 0)
(0 0.0564501 0)
(0 0.0556816 0)
(0 0.0564874 0)
(0 0.0564733 0)
(0 0.0563324 0)
(0 0.0545749 0)
(0 0.0558349 0)
(0 0.0543324 0)
(0 0.0419752 0)
(0 0.0429291 0)
(0 0.043196 0)
(0 0.0440766 0)
(0 0.0442978 0)
(0 0.043832 0)
(0 0.0449129 0)
(0 0.0446726 0)
(0 0.0458281 0)
(0 0.056472 0)
(0 0.0473298 0)
(0 0.0319489 0)
(0 0.0565539 0)
(0 0.0365155 0)
(0 0.0565506 0)
(0 0.0565535 0)
(0 0.0565528 0)
(0 0.0540476 0)
(0 0.0544088 0)
(0 0.0542693 0)
(0 0.0457593 0)
(0 0.0561497 0)
(0 0.0560707 0)
(0 0.0561312 0)
(0 0.0560471 0)
(0 0.0561075 0)
(0 0.0560188 0)
(0 0.0560777 0)
(0 0.0559851 0)
(0 0.0560412 0)
(0 0.0559234 0)
(0 0.056 0)
(0 0.056096 0)
(0 0.0560556 0)
(0 0.055956 0)
(0 0.0560067 0)
(0 0.0559043 0)
(0 0.0559543 0)
(0 0.0558452 0)
(0 0.0558979 0)
(0 0.0561622 0)
(0 0.0563648 0)
(0 0.0535281 0)
(0 0.0565579 0)
(0 0.0371524 0)
(0 0.0394949 0)
(0 0.0543473 0)
(0 0.0456915 0)
(0 0.0454552 0)
(0 0.0565576 0)
(0 0.0565568 0)
(0 0.056557 0)
(0 0.0491653 0)
(0 0.0381508 0)
(0 0.0491041 0)
(0 0.056491 0)
(0 0.0538643 0)
(0 0.0238612 0)
(0 0.0464423 0)
(0 0.0464226 0)
(0 0.0558089 0)
(0 0.0562024 0)
(0 0.0565534 0)
(0 0.056555 0)
(0 0.0565555 0)
(0 0.0565567 0)
(0 0.0565571 0)
(0 0.056558 0)
(0 0.0565582 0)
(0 0.0565589 0)
(0 0.0565588 0)
(0 0.0565591 0)
(0 0.0565585 0)
(0 0.0565593 0)
(0 0.0565588 0)
(0 0.0565595 0)
(0 0.0565594 0)
(0 0.056559 0)
(0 0.0565596 0)
(0 0.0565592 0)
(0 0.0565598 0)
(0 0.0565594 0)
(0 0.05656 0)
(0 0.0565596 0)
(0 0.0565589 0)
(0 0.0565591 0)
(0 0.0565582 0)
(0 0.0565585 0)
(0 0.0565594 0)
(0 0.0565588 0)
(0 0.0565596 0)
(0 0.0565591 0)
(0 0.056558 0)
(0 0.0565583 0)
(0 0.0565593 0)
(0 0.0565585 0)
(0 0.0565595 0)
(0 0.0565586 0)
(0 0.0565597 0)
(0 0.0565591 0)
(0 0.0565599 0)
(0 0.05656 0)
(0 0.056557 0)
(0 0.056531 0)
(0 0.0563035 0)
(0 0.0562592 0)
(0 0.0279619 0)
(0 0.0565583 0)
(0 0.0565589 0)
(0 0.056559 0)
(0 0.0565595 0)
(0 0.0565596 0)
(0 0.0565599 0)
(0 0.0565599 0)
(0 0.05656 0)
(0 0.0565602 0)
(0 0.0565603 0)
(0 0.0565601 0)
(0 0.0565603 0)
(0 0.0565601 0)
(0 0.0565604 0)