/*--------------------------------*- C++ -*----------------------------------*\
| =========                 |                                                 |
| \\      /  F ield         | OpenFOAM: The Open Source CFD Toolbox           |
|  \\    /   O peration     | Version:  v2012                                 |
|   \\  /    A nd           | Website:  www.openfoam.com                      |
|    \\/     M anipulation  |                                                 |
\*---------------------------------------------------------------------------*/
FoamFile
{
    version     2.0;
    format      ascii;
    class       surfaceScalarField;
    location    "200";
    object      meshPhiCN_0;
}
// * * * * * * * * * * * * * * * * * * * * * * * * * * * * * * * * * * * * * //

dimensions      [0 3 -1 0 0 0 0];
oriented        oriented;


internalField   nonuniform List<scalar> 
20537
(
0.0036214
0.000168192
-0.00381357
-0.00451918
0.00333515
0.00118307
0.000454945
0.00174955
-0.00220565
0.0060023
-0.00326918
-0.0027606
-0.00131917
-0.000840487
0.0021589
-0.00321146
-0.00112791
0.0043308
0.00423709
-0.00339878
-0.000891789
-0.00130907
0.00267149
-0.00136465
0.001803
-0.00236194
0.000493727
-0.00306307
0.00136165
0.00169977
0.000406403
-0.00110629
0.000697118
0.00207169
0.000114165
-0.00218603
-0.00100711
0.00128642
-0.000279388
-0.000533981
-0.000796947
0.00133093
0.000326586
0.000882722
-0.00144478
0.00182133
0.00126322
-0.00309012
-0.00408098
0.00120045
0.00286952
0.000508409
0.00280653
-0.00332549
-0.000840738
-0.000699999
0.00154055
0.00228763
-0.000552789
0.00271228
0.00324551
0.00257215
-0.00211847
7.41165e-05
-1.51453e-05
-8.27663e-05
-0.000198125
0.00021007
-0.000122514
1.01903e-05
4.00421e-05
0.00136704
-0.00267861
-0.0031598
0.00253323
0.000618631
0.000518699
0.000263574
0.00483776
-0.00124236
0.00461453
-0.000690326
-0.00394286
0.00104152
-0.00426093
-0.00217147
-0.00191914
0.00275032
-0.00100211
0.00149268
0.000918451
-0.00241278
0.000143852
-0.000456886
0.000943074
0.000222148
-0.00116533
-0.00130678
0.000642762
0.000663971
-0.000970065
-0.000860908
0.00183065
-0.00223671
-0.000827521
0.00325867
-0.00176722
0.00460182
-0.00258822
-0.00207795
-0.000144203
-4.77657e-05
0.000184196
-0.000668625
0.000223415
0.00044521
-0.000772305
-0.000288994
0.00106006
0.000250335
-0.00102349
-0.00106408
0.00060405
0.000460031
-0.00029515
0.00103621
-0.000740777
0.00405248
-0.00117584
-0.00287555
-0.00242592
-0.000741189
-0.00297096
0.00256913
0.000390924
0.00110561
-0.00196195
0.000855717
-0.000842534
0.00168159
-0.00083928
-0.000262514
0.000633064
-0.000370549
-0.000148861
0.00063412
-0.000709394
0.000158044
0.000445741
-0.000817943
4.19096e-05
-0.000193202
6.48907e-05
-0.000310115
0.000188183
0.000360066
0.000462273
-0.000822339
0.00377251
0.000821016
-0.00349277
0.00428097
-0.000835322
-0.00187435
0.000903893
0.00102319
0.000253991
-0.00127723
-0.00153132
-0.00263344
0.00415642
0.000792969
0.00102443
-0.00181787
-0.00361019
0.000714527
0.00289218
-0.00118116
0.00415707
-0.00299755
-0.00071779
-0.00058903
-0.00018294
0.00105601
-0.00131556
-0.0012991
0.00261194
0.0034523
-0.0029556
0.000611135
-1.2068e-05
-0.000599067
-0.000463965
-0.000573771
0.00103771
-0.00278083
-0.00173824
-0.00102552
0.000615136
0.00118154
-0.00022512
-0.00114728
-0.000793469
-0.00145349
0.00220491
0.000675148
0.00189623
-0.000564569
0.000806964
-0.000242396
0.0024588
-0.00143171
-0.00102864
0.000129307
-0.000657346
-0.0042787
0.00128468
0.00295679
-5.835e-05
8.58254e-05
-2.72792e-05
0.00288979
-0.00404326
0.00105265
-0.000588528
0.00104847
-0.00045994
0.00233601
-0.00387596
-0.000167232
0.00223882
0.0011752
-0.00419723
0.00301057
-0.0027954
0.00215725
0.00063692
0.00281105
0.000259463
-0.00307932
-0.00168236
0.00130041
0.000355878
0.00142585
-0.000482879
0.00523754
-0.00301824
-0.00223802
0.000716481
0.00311316
-0.00163061
-0.00148718
0.00426838
-0.0014671
0.000151249
2.45428e-05
-0.00023464
-0.00191886
0.00059902
0.00119562
-0.000975275
-0.000220371
-0.00236652
-0.000619234
0.000126809
-4.44335e-05
0.00101606
-0.0010633
4.72578e-05
-0.00137838
-0.000868178
0.00224539
0.00464431
-0.00199127
-0.00268335
0.00207613
-0.00289684
1.20577e-05
-1.86639e-05
2.10978e-06
-0.00118477
-0.0028525
0.00402534
0.00108072
0.000880311
-0.00196194
-8.17817e-05
-2.02099e-05
9.66405e-05
0.000566847
-0.000931218
-0.00420781
0.00307219
-0.000141867
0.000134252
-6.74391e-05
-0.00124766
-0.000461697
0.00289612
0.00232131
-5.44847e-05
-5.13433e-05
-0.000320484
9.80534e-05
-0.00173556
0.0037356
0.00072324
0.00047235
0.000140871
-9.90754e-05
-4.99561e-05
-0.000273779
-0.000168353
0.000286361
-0.000687814
0.000144673
0.000359623
-0.000659533
-9.09144e-06
-0.00158763
0.00365426
0.000379119
-0.00138631
0.00402993
0.00123649
0.00281146
-0.000154028
0.000710812
-0.000568555
0.00412656
-0.00289376
0.00185061
-1.8949e-05
-0.00183285
0.00530742
-0.00263645
-0.00069517
0.00157488
-0.00088004
0.00190013
0.00263134
0.000606298
-0.00205073
0.0013406
-8.22859e-06
0.000619364
-0.000794759
0.0035746
0.00205782
-0.000489261
-0.000339535
0.000704465
5.77287e-05
7.25397e-05
-0.000534989
-0.000534536
0.0010695
0.00170077
-0.00105545
-0.000645351
0.000952957
-0.00183791
0.000885036
0.000152868
0.000863197
-0.00063544
0.000560731
0.00341632
-0.00147764
-0.00196998
3.5732e-05
0.000331121
-0.000376443
0.00180958
-0.00345967
0.0016343
-0.00105187
0.000761502
-7.19733e-05
3.13055e-06
6.65539e-05
-0.00182731
0.00113171
0.00327083
0.000898495
0.000969992
-0.000720441
0.0017689
-0.000819643
0.000503354
5.88694e-05
-0.000757083
0.000649669
-0.00118365
0.00020988
-0.000194656
-4.88679e-05
-0.00253129
0.00256718
-0.00211702
0.00390892
-0.000541902
0.00320384
-0.00272188
-0.00325168
0.00398932
-0.000754991
-0.00133553
0.000492778
0.00196537
-0.000860438
-4.64393e-05
4.58055e-05
-4.95481e-07
0.0027775
-0.00151114
-0.00127006
-0.000347413
0.000707479
0.00168846
-0.00117547
-0.00332187
-0.00109935
0.00440987
4.12932e-05
-0.000347652
0.000295634
-1.42445e-05
-5.92674e-05
-0.00247395
0.00115583
0.00294735
0.00232826
0.000639548
-0.00101983
0.000380274
-0.000628318
6.37495e-05
0.000970895
-0.000217952
-0.000808582
-0.00324128
0.00264061
0.0018628
-0.000909779
0.000486717
0.00110443
-0.00399268
0.00281821
-0.000676211
0.00252526
0.00177591
0.00090386
-0.00270679
-0.00164067
0.000799768
8.25198e-05
2.29373e-05
-0.000109894
-0.00127322
0.00350873
-0.00224332
-0.000998979
-0.0036369
0.00250507
0.00102434
-0.00191672
-0.000202442
-1.51208e-05
1.33875e-05
3.59198e-07
0.000102791
5.69165e-06
-0.000146883
-0.0041428
0.00294115
-0.000743321
-0.00013523
0.000930468
0.0009866
-0.00191767
0.00222461
-0.00301448
0.000787614
0.000760986
-0.000663201
0.000400687
0.00153195
-0.000256505
-0.00129549
-0.00140657
-0.00103924
0.00244332
-0.000627268
0.00165039
-6.70531e-05
-0.00285682
0.00290815
0.00107212
0.00231344
-0.00291352
0.000953294
0.00195783
-0.00153618
0.0032851
0.00148965
-0.00232552
-0.000744444
0.000578203
-0.00128058
0.000625632
0.000654937
9.59249e-05
-0.000344878
7.68095e-05
-0.00151006
0.00337719
-0.00196621
-0.00290478
0.00136251
0.00154032
-0.000833087
-0.00290805
0.00199009
-0.00134951
-0.000640705
-0.00363657
0.00337559
0.00025201
0.000465506
-0.000837057
0.00037155
7.29351e-05
-5.48405e-05
-2.08079e-05
0.000985336
-0.000734871
-0.000250475
0.00329025
0.00131921
-0.00104192
0.00301191
-0.00196976
-5.82723e-05
-1.7135e-05
7.12712e-05
-8.55606e-05
-0.000280452
0.00035618
0.000291281
-0.00094336
0.000648048
-0.0044724
0.00155549
0.00290607
-0.000484038
-0.000580048
-0.00233366
0.00137279
0.000791886
-0.000313096
0.000778601
-0.0010014
-0.00264271
-0.00360102
-0.000708616
0.0010307
-0.000589251
-0.000441467
0.00167042
-0.000611462
-0.00105922
0.000982615
-0.000570858
-0.000411763
-5.89515e-05
-3.63379e-05
5.98107e-05
0.0031009
-0.00209561
-0.00100967
-3.26863e-06
9.69745e-06
-0.000470227
0.000662875
-0.000192649
2.4153e-06
-6.30398e-05
-0.00156792
0.00293228
0.00114418
0.00211493
-0.0032625
0.000765771
0.000150402
0.000263692
-0.000729485
-0.00116373
0.00189254
-0.00389795
0.00295188
0.000939331
0.00154228
0.000447744
-0.00291852
-0.000693254
0.000368285
-0.000343048
0.00145399
-0.00305297
0.00421244
-0.00317875
-0.00269899
0.000149275
0.00254504
-4.07324e-05
6.10664e-05
-2.08663e-05
-0.00127662
-0.00162944
-1.95181e-05
-4.36885e-06
0.000530466
-0.000758997
0.000228528
0.000570833
-0.00195021
0.000892307
0.00188225
-0.00277431
-0.00133179
-0.00237067
0.00368573
-0.0035205
0.00300352
0.000506173
-0.000760293
-0.00242115
0.00316285
-0.000384795
-0.00231559
0.00331406
-0.00356291
0.000223049
-0.00346445
0.00259834
-0.00151937
-0.00107999
0.000800286
-0.00386541
0.00305959
-0.00114823
0.00337006
-0.000957455
0.000422896
0.000844551
-0.000314159
-0.000530395
-0.00337722
0.00240737
0.000839563
0.000273283
-0.000556115
-0.00328737
0.00383104
-0.00248491
0.00410343
-0.00162149
-0.000298841
0.000796455
-0.000512305
0.000570106
0.000855757
-0.00142601
-0.00252759
0.00244689
1.88224e-05
0.00326788
0.000142958
0.00296589
0.000443875
0.000586804
-0.0012022
0.00137939
-0.000187851
-0.00314687
0.00236831
-0.00292039
-0.00191259
0.00400815
-0.00210093
0.00126189
0.00119524
-0.00171443
0.00352959
-0.000857945
-0.00129113
6.43595e-06
-6.48103e-05
0.000229643
-0.000786378
0.000551068
0.00100834
-0.000628657
-0.000379692
0.00087864
-0.000474692
-4.357e-05
3.71319e-06
4.98517e-05
-2.3807e-05
-2.95826e-05
1.03946e-05
5.98683e-07
-1.42911e-05
0.00113287
0.00146437
-0.00396657
0.00147957
0.00101822
0.00315007
-0.00416248
0.00277444
-0.00155948
-0.00127313
0.00181574
0.00027863
-0.00226519
-0.00398347
0.00206599
1.08044e-05
-2.7036e-05
1.73475e-05
-0.00094144
-0.000886175
0.00397507
-0.000220035
-0.00341257
-0.000123488
0.00133663
0.00105191
-0.0023908
-3.80624e-05
4.94963e-05
0.00153293
-0.00096297
-0.00379629
0.00341373
0.000375805
-0.00247406
0.00230673
-0.00126518
-0.000734612
0.00191239
-0.000260034
0.000790496
0.00254626
0.000227504
0.00380651
-0.00261603
0.000983697
-0.000716213
-0.00026749
0.00479838
-0.00153282
-0.00330557
0.00293877
-0.00413587
-0.000259132
-0.000762383
0.00102151
0.00108784
0.00161952
0.00247728
-0.0015348
-0.000943841
0.0015627
-0.00319896
0.00339297
0.000566132
0.00109972
0.000601007
-0.00194665
-0.00185592
0.002236
0.00105084
-0.00331601
0.000763727
0.00018477
-0.00094852
7.06162e-05
-0.000253915
0.000174522
-0.00340046
-0.00012768
8.22568e-05
-0.000808455
0.000715366
0.000435406
0.000572929
0.000652697
-0.00141251
0.000759645
-0.000950594
-0.0015399
0.000778188
-0.00200965
0.0012304
0.0027562
-0.000752542
-0.00217142
0.000189665
0.000654885
0.00423031
-0.00257558
-0.00167363
7.02721e-05
1.32433e-05
-0.000112484
5.98724e-05
-0.00261127
0.00250215
-0.000854256
0.00150676
0.00150068
0.00159557
0.00174038
-0.00320635
0.00145215
0.00196793
0.00106069
0.00368748
-0.00175828
0.00396172
-0.000806981
-0.000301746
0.000633238
0.000660581
-0.000631136
0.0011747
-0.000543588
0.0042022
-0.00156207
-0.00265235
0.00058014
0.000403548
0.00169168
-0.000756261
-0.000935551
-0.000912607
-0.00239325
0.000984259
0.000727023
-0.00166877
-0.000424149
-0.0026879
0.00309587
-0.00406871
0.00173404
0.00233075
-0.00152481
0.000550433
0.000974139
0.000832755
-0.00382372
0.000641219
0.00316689
-0.00280128
0.00398852
-0.00118545
0.000886808
-0.000539942
-0.000346871
0.00103639
-0.000391679
-0.00054152
0.000953922
-0.000418281
-0.0010254
0.000477855
-0.0010388
0.00194621
-0.000907755
0.00335063
-0.00162403
-0.00242573
-0.00164665
-0.000643479
0.000173253
-0.000573955
-0.00273135
-0.00393633
0.0011367
0.00254827
-0.00253787
0.000521947
0.002048
-2.81526e-05
4.23485e-06
-0.000109635
2.29364e-05
-0.00311784
0.0009188
0.00212065
0.000560195
0.000326604
0.000223894
-0.00186774
0.00164102
-0.00294259
-0.000620468
0.00350323
0.00119659
0.00127896
-2.67761e-05
-0.000231259
0.00024905
-0.000235176
-0.00223901
-0.000457246
-0.00263464
0.00308754
0.00436047
-0.000427144
-0.00051919
0.00115872
-0.00356366
0.000563865
-0.0012609
-0.00321593
-0.00334432
0.00216216
0.00117673
0.00318932
0.00117216
0.00443119
-0.00181539
-0.00269472
-0.000110108
2.66341e-06
-0.00442621
0.00338804
0.00102026
0.000256347
-0.000808214
0.000551872
0.000226438
0.00189762
-0.000797947
-0.00346122
-0.000511752
-0.00101325
-0.000410101
-0.000609746
0.000492844
-0.000982916
0.00048521
0.00102086
-0.000532791
0.00403104
-0.00239123
-0.0016604
0.000721664
-0.00174317
0.000935624
-0.00045075
-0.00030106
0.000513447
0.00136963
0.00281741
0.00181098
-0.00103361
0.000579848
-0.00137678
0.000678393
0.00155305
-0.00223386
0.000477186
0.000505421
-0.00055209
0.000976674
-0.000424591
-0.000216599
0.000183088
-0.00288615
-0.000599507
-0.00115034
0.000647601
-8.39843e-05
-0.000563617
0.00319174
-0.002051
-0.000522345
0.00124555
-0.001117
-0.003322
-0.0014846
-0.00186446
-0.000129329
-3.00775e-05
0.000106751
0.000878512
0.000812975
0.00102909
0.000391386
-0.00147433
0.00280798
-0.00154898
0.00146358
0.0025416
-0.00112286
-0.00267555
0.00374112
8.03814e-06
0.00256133
-0.00153452
0.000242565
-0.000209178
-0.000875052
0.00166761
-0.00293771
0.00385343
-0.000921106
-0.000785862
0.00082928
-4.34198e-05
-0.00290627
0.00435576
-0.00146341
-0.000929803
0.00287498
-0.00407144
0.00118565
-0.00243298
0.00204693
-0.00110625
0.00358188
-0.00248507
0.000952573
-0.00199179
0.00119681
0.00259898
0.000861625
-0.00057439
0.000123888
-7.63574e-05
0.000906427
0.00159074
8.31152e-05
-1.96892e-05
0.000931675
0.000897173
-0.00182916
0.00256016
-0.000853606
-0.00170484
-0.000967803
-0.000988739
0.00195622
0.00401498
-0.00114991
-0.000596199
-0.00189299
0.00280948
0.00410278
0.000438891
-0.00172551
0.000995505
0.00171307
0.0026401
1.31536e-05
-0.00245043
4.70024e-06
1.97754e-05
-3.33016e-05
-0.00097251
0.00224144
-0.00126935
-0.00272666
0.000412055
0.00230879
-0.00262238
0.00144715
0.00117387
-0.000465181
0.000758741
-0.000293561
0.00156366
-0.0031308
-0.00020063
0.000689443
-0.000493698
-0.000547069
-0.00218105
0.000874013
0.000292099
-1.55649e-05
-1.97717e-06
0.00153742
0.00129397
-0.00283548
-0.00210927
7.01988e-05
-0.00128054
0.000916519
0.000238716
-0.0012107
-0.00132508
0.00374025
-0.00244558
0.00091975
0.0018639
-0.000182534
0.00438866
-0.00181941
-0.0025787
0.000949177
0.00131857
-0.00226763
4.53733e-05
-0.000141288
0.000348996
-0.00301001
0.00035432
0.000412529
-0.000766849
-0.00400479
0.000672837
3.08827e-05
1.72959e-05
-0.00125469
-0.00154135
-0.000886573
0.00152479
-0.00312144
-0.0016787
0.00113803
0.000477054
0.00392915
-0.00329206
-0.000643113
-0.00393707
0.00303422
0.000880644
4.57894e-05
-0.00150982
0.00304245
0.00124623
-0.000482531
-0.00223753
-0.00189026
0.00126881
0.00111319
-0.00238412
-0.00102409
0.000412237
-0.00400468
0.00027076
0.00372173
-0.000219121
0.000786263
-0.000571237
-6.4347e-05
-4.19465e-05
0.000877594
-0.00358958
0.00265535
5.05719e-05
-0.000194104
4.56002e-05
-0.00422457
0.00130081
0.00292256
-0.0033821
0.00389169
-0.000538758
-0.00303833
-0.00116816
0.00346824
-0.00107357
-0.000185339
5.69581e-06
0.00125738
-0.000707381
-0.000549999
-0.000689294
0.000224112
0.00361504
-0.00271645
-0.000987147
0.000180197
-0.00419519
0.00215049
-0.00326555
0.00261544
-0.00247033
0.000411293
-0.000999822
-0.00217229
0.00247973
0.0016256
-0.00140446
-0.00439291
0.00249672
-0.00100048
0.0020093
-0.00100952
0.00269129
-0.0039055
0.00116398
-0.000271943
0.000676067
-0.000404125
-9.9555e-05
3.40634e-05
5.63302e-05
0.000622833
1.02308e-05
-0.00168379
-0.0013796
0.00306123
-0.000207625
0.000152261
-0.00400419
0.00417423
-0.000339248
0.00107642
-0.000737183
0.000944484
-0.00251457
0.000958946
0.000323407
-0.00128271
0.000177271
-0.000600201
-0.00252534
-0.00136104
0.00388606
-0.000239829
0.000459871
-0.00146947
0.000462692
0.000919048
-0.000702955
0.0020576
-0.00144477
-0.00097325
-0.00278796
0.0037004
0.000307788
0.000339813
-0.00102187
-0.000939705
0.00196086
0.00068701
-0.00147136
0.000784158
0.000550736
0.00062451
-0.00117533
0.00388163
-4.13381e-05
-6.63297e-06
-0.00106507
0.00142075
-0.000355778
0.000837026
0.0017229
-0.00324584
0.00196553
-0.0027191
0.0012036
0.000790689
0.00181646
0.00274359
0.00128941
0.000393437
0.000591885
-0.000531631
0.000482279
-0.000188352
0.000475963
-0.000747906
0.00101534
-0.000762845
-0.000517747
-0.003053
-0.00318018
-0.000830356
0.00103418
0.00287279
0.000521224
-0.000726931
-0.00342009
0.00421402
-0.00209981
-0.000811363
-0.00097896
0.00204308
-0.00106442
0.000741268
-0.00401019
0.00116344
-0.0021427
-0.000826436
0.00123496
-0.000408548
-4.28661e-05
-6.64015e-05
0.000745405
0.000942808
-0.000718028
0.000292692
0.000425335
0.00113084
-0.00351697
-0.00266624
0.00297845
-0.000453884
0.00223741
0.000898981
-0.00271119
0.00324657
-0.000601013
0.0018917
-0.000961816
-0.00293455
0.00389297
-0.000964525
0.00341565
-0.00125931
-0.00131959
0.00226886
0.000537868
0.000134514
-0.000769733
0.000807496
-0.000453176
-0.000814993
0.000393948
0.000421044
0.00110949
0.00290522
-0.00402315
0.00273563
-0.00189798
-0.00120741
-1.62843e-05
-1.11289e-05
2.65709e-05
-0.00151778
-5.67151e-05
8.12602e-05
-2.45529e-05
0.00026891
-0.00133407
0.000634534
-0.00317537
0.00107322
0.000545654
-0.00161914
0.00115713
-3.13617e-05
-0.00112586
0.000163303
-0.000128266
0.00307467
0.000953154
-0.00403301
-0.00403931
0.00120078
0.002837
0.000644985
0.00130071
-0.000731024
-0.000946608
0.00167728
0.000590551
-0.000282763
0.00108028
-0.000579724
-0.000500584
-0.00256717
-0.00381605
0.00263539
0.00150962
0.00146933
-0.00297899
-0.000811229
-0.000770609
0.00147496
-0.000704502
0.00204994
-0.00137351
0.00136632
-0.00400681
-3.27806e-05
-0.00267489
0.00295494
-0.000389607
0.00107028
3.15814e-05
0.000125492
-0.00246193
0.00357695
8.60804e-05
-6.74452e-05
-0.00156525
0.00107625
0.000370033
5.87737e-05
-0.000885233
-0.000894964
0.00229966
0.0016971
0.000128996
-0.000103081
0.00101735
0.000880253
-0.00177425
0.00272535
0.000756391
-0.00193209
0.00109071
0.00019006
4.25395e-05
-0.000274951
-0.000754332
0.000441434
0.000331283
-0.000591325
0.000847677
-0.00179002
0.00268231
-0.00283283
-0.00117942
0.000416567
0.00138809
-0.0039127
-0.00270663
0.0013142
0.0013896
-0.000445578
-0.00027245
-0.000324786
-0.000512271
-0.00303746
-0.000800788
-0.00251711
0.00121543
-2.12468e-05
4.49731e-06
-0.000672954
-0.00184632
0.00328916
-0.00144718
-0.00124007
0.000613822
0.00062621
0.00270417
0.0012857
0.00172108
-0.000648139
0.0011064
-0.00262897
0.00151746
0.00215417
-0.00085136
-0.00137002
-0.0013355
-0.00203225
0.00336178
0.00296258
-0.00100506
-0.00198301
0.00125111
-0.000292366
0.000980454
0.000847811
-0.00182882
0.00248477
0.000863319
0.00268002
-0.00425424
0.00114638
-0.000287743
-0.00296617
0.000557666
0.00240402
0.000645951
-0.00161403
0.00128502
0.00294151
0.00400688
-0.00236477
-0.00287334
0.00241221
0.00413847
-0.00126546
-0.00291392
0.00105055
-0.00101116
0.00194249
0.00144496
0.000225217
-0.00114866
0.00341433
-0.00227189
-0.00137202
0.000601269
0.000796977
0.00129046
0.00391713
-0.00159387
-0.00232851
0.0017894
-0.000987539
-0.000191882
0.00443767
-0.00118761
-4.35843e-05
0.000172646
-0.00020129
0.000973868
-0.000407039
0.00338977
0.000118946
-0.00352161
-0.000740148
0.00033004
0.000612535
0.00023122
-0.00084376
0.00104109
-0.000584712
-0.000456385
-0.00296129
0.00170583
0.00131832
-0.000341238
0.000400073
-3.91244e-05
-5.16249e-06
-0.00172952
6.41373e-05
0.00155143
7.21183e-05
-4.64642e-05
-0.00138449
-0.00028884
-2.89979e-06
1.75542e-05
-1.50619e-05
-0.0042552
0.00133532
0.00281061
0.00111162
2.45346e-05
9.92049e-05
-0.00121855
0.00195394
-0.000735611
-0.00283414
-0.00162091
0.000402211
0.00277837
-0.000820946
-0.00202845
4.26379e-05
-1.78571e-05
-3.05511e-05
-4.65378e-05
7.97435e-05
-5.22869e-05
0.00216444
-0.0014378
0.00152664
-0.000843368
-0.00068334
0.00202094
-0.000165533
-0.00185617
-0.00282731
-4.09774e-05
6.2948e-07
0.000101806
-0.000177241
-0.000565346
0.000376563
8.88255e-05
0.00324255
-0.000753839
-0.00253316
0.00106379
0.000300063
-0.00136392
-0.00108781
-0.000908348
0.00199619
0.00273477
0.00136118
0.000111736
-9.25484e-05
-0.00373161
0.00269903
-0.000448069
0.00362629
-0.00136418
-0.00102717
0.00239074
0.000309595
-0.000680601
0.000371006
-0.00305546
0.0008098
0.000342642
-0.00115247
0.00260704
-0.00396895
0.00136704
0.00256293
-0.000831828
0.00151862
6.58061e-05
-0.00118283
-0.00182246
0.00193646
0.00402373
-0.00277646
0.0028855
-5.7297e-05
0.00207735
0.00105551
0.000914022
0.00268263
0.004193
-2.28111e-05
1.85915e-05
0.00242318
-0.00221576
0.000461887
0.000296852
0.00236351
-0.00070044
-0.00170272
0.000628433
-0.00358428
0.0029391
-0.00270675
0.00406613
-0.000487132
-0.00106736
0.00132869
-0.00434287
0.000352298
-0.000802962
0.00161249
-0.000809493
0.00195222
-0.000972364
-0.000693063
0.00154866
-0.000975523
-1.31521e-05
6.51608e-05
0.000798617
0.00190569
0.000669128
0.000588259
5.20012e-05
0.00110505
-0.000961377
-0.00294325
0.000818137
-0.000205607
0.00175178
-0.000586343
-0.00121564
-0.000471527
0.000109655
0.000126178
7.1077e-05
-0.00256769
0.00395711
0.000692913
-0.00116789
0.000474934
0.000739598
-0.00359998
0.00284815
-0.00126421
0.00397916
-0.00274596
-0.000784465
0.000561072
0.0036101
-0.00268363
-0.000936244
4.00538e-05
-0.000102582
-0.000385511
0.000878929
-0.000493419
-0.0038031
-6.7142e-05
-0.000428553
-0.000327463
0.000756013
-0.000145344
0.00414038
-0.00145048
0.000691162
-0.000358523
-0.000332639
0.000608394
1.47479e-05
-0.000623142
0.00134184
8.39075e-05
0.00188758
0.00104757
0.000485834
0.000454835
-0.000940686
-0.00381193
0.000230927
0.000627178
-0.00238404
0.00118034
0.00120302
-0.00116005
-0.00146365
-0.00373262
0.0011755
0.00254669
0.000557054
-0.000726855
0.00258046
-0.00186993
-0.000683193
-0.00189562
0.0025564
0.00122119
-0.000578482
-0.000271188
0.000155106
-8.33923e-05
-0.000761488
-0.00319267
0.00190844
-0.00117296
-0.00081082
0.000425308
-0.00152596
0.00324626
-0.00172421
0.00113253
-0.00148987
0.00377778
-0.000556055
-0.000235259
0.00136831
-0.000242516
0.000223223
-0.000539327
0.000181623
-0.00314037
4.09302e-05
2.34373e-05
-0.00352761
0.00234323
0.00111296
-0.000171336
0.000696178
-0.000687426
-0.000736128
-2.62622e-05
-0.000951971
-0.000137603
0.000168117
-3.93664e-05
-0.00405012
0.00103512
0.00300983
-0.00114525
-0.00272616
0.000358018
0.000333144
-2.10634e-05
2.14983e-05
-1.2098e-05
0.00103976
0.00208247
-0.00314961
0.00152473
-0.00135996
-0.000165141
-0.00237359
0.00100889
-0.00187371
0.000281932
0.00158839
0.000608354
-0.000515978
-0.000189843
0.00454757
-0.00054601
0.0014076
-0.000597833
-0.00339134
0.000503497
-0.00106825
0.000564733
9.66321e-06
0.00241091
-0.000585477
-0.00115275
-0.000830326
-0.00141268
0.00223012
0.00053749
-0.000314076
0.00330214
0.00123591
0.00341062
-0.000830831
-0.00258975
-0.000124208
8.64367e-05
0.00218636
-0.00118955
0.0024796
-0.00129116
-0.00299253
0.000171025
0.00281871
0.00309928
0.000302043
0.00134964
-0.00219283
0.000155459
-0.000897163
-0.00198634
0.00299955
-0.00148577
0.00154407
-0.000909426
-0.00166758
0.00257627
0.0019683
-0.000982322
-0.00126186
0.00286318
0.00123087
0.000967138
-0.00132984
6.04611e-05
0.0012691
0.000933632
0.00389607
-0.00316982
0.000338752
-0.00157613
0.00123728
0.00125125
-0.000700605
0.0031589
-0.00436752
-0.000650726
0.000997387
-0.000346668
0.00114534
0.00276848
-0.00064722
-0.000738703
0.00138587
-0.0016769
0.000873987
0.00105248
-0.000650592
-0.000401907
0.000323058
-0.00154044
0.00121239
-0.0017842
0.00309835
-0.00131784
0.00125859
-0.00273
0.00408554
0.000905927
-0.000443653
0.000397736
-0.00107077
0.00324647
-0.00222534
-6.14442e-05
-7.10667e-05
8.50857e-05
-0.00212235
0.000957892
-6.65728e-05
1.53138e-07
6.57138e-05
0.000165624
4.57032e-05
-0.000219908
0.000353606
0.000323458
-0.000677064
0.00123392
0.000467736
-0.00320225
-0.000633873
0.00376997
-0.000398292
-0.000499808
0.000782758
-0.00028295
-0.000957175
-2.36693e-05
-0.00035469
-0.00146325
-0.00180627
0.0021494
0.000131818
0.000476576
-2.03844e-05
0.00108412
0.000793098
0.000681676
-0.00399428
0.00304417
0.000926712
0.000547847
0.000626832
0.00180987
-0.00116533
0.000705268
0.000821292
0.00206322
-0.00118387
-0.0011587
0.00235369
-0.00310913
0.00385872
-0.00122011
-0.00329808
0.000518365
-0.00195187
0.00083843
0.00111263
0.000320003
-0.000403987
0.00238461
-0.00351484
0.00270607
-0.000423879
0.000849185
-0.00131955
0.000672291
-0.000411014
-0.00040398
-0.00282807
0.00354861
-0.000792664
0.00126759
-0.00265246
0.00138204
-0.00108774
0.00175929
-0.00318664
-0.00282471
0.00343709
0.000215169
0.00128082
-0.00149608
-0.00014561
-0.000178386
-0.000581809
0.000787536
-0.000205728
-3.1291e-05
0.000188406
-0.000125861
0.00165018
0.00227401
0.000411147
-0.00276689
0.00155896
-0.002309
0.000749457
-0.000658725
-0.00141249
0.00267709
-0.000632654
0.00252455
-0.000868625
-0.00165729
-0.00291575
-0.00038177
-0.000176139
-0.000106327
-0.00185183
-0.00296843
0.00128207
-0.00371639
0.00242999
-0.00112328
0.00382569
-0.00271889
-0.000598275
9.84665e-05
0.000616434
0.000165353
0.000254703
0.00136826
-0.00162686
0.00412723
-0.00253908
-7.15916e-05
-0.000663287
-0.000511429
0.000747312
-0.000389295
-0.0012313
0.00154953
0.00442097
-0.00205649
-0.00390998
0.00141657
0.0024426
-0.00074958
0.000321023
-0.000575212
0.000139511
0.00365868
7.88327e-05
-0.000767449
0.0003679
0.000399549
-0.00202115
-0.000920126
0.00286514
0.00382697
-0.00247441
-0.00136633
-0.000977494
0.0010596
-0.0028362
0.000769998
-0.00173225
0.000962138
0.00275232
0.00121844
-0.00401452
-0.000275482
-8.24088e-05
0.00313703
-0.00168875
-0.00144797
-0.000786497
0.000473399
0.000799831
-0.00174676
0.000857263
0.00254349
0.00088241
-0.00378614
0.0028748
0.00159821
-0.00134594
-0.00040074
-0.000466177
0.000866916
-0.00164506
0.000314878
2.87617e-05
-0.00017574
-0.00267275
0.000885288
-0.000505267
-0.0010718
0.00148655
-0.000153779
-0.000309997
-0.0011001
6.9086e-05
9.63643e-05
-4.06926e-05
0.000983856
0.00111116
-0.00209541
-0.00243169
0.00244043
0.0003683
-0.00363093
-0.00301629
-0.00141043
0.00321031
-0.000201197
-0.000562698
0.000763895
0.000657276
-0.000996535
0.00319262
-0.00165977
0.00131966
-0.000980989
0.00270676
-0.000517272
-0.00167788
0.00296771
0.00338832
-0.00202071
0.00106152
-0.00165835
-0.00441404
0.00122418
0.00313926
-0.00337433
0.00367945
-0.000296982
0.00072764
-0.000430659
-0.00321403
0.000421618
-0.0020879
0.00202973
0.000716786
-0.00361337
0.00274043
-8.59233e-05
-0.000601165
0.00014442
0.000456746
-0.000472958
0.000187235
0.0029306
-0.00142106
-0.00225511
-0.000739904
-0.00102794
5.18217e-05
0.00097605
0.000830987
-0.00236058
0.00129502
-0.00278817
0.00148986
-0.000575685
-0.0023577
0.00291049
-0.000871708
0.00381754
-0.0016074
-0.00410043
0.00091606
0.00318169
0.000336927
0.000361236
-0.000698163
-0.00222641
-0.000416319
0.00264046
0.000161233
0.00102325
0.00337602
0.00110394
0.00141889
0.00119394
-0.000806176
0.000350598
0.000174603
-0.00146606
0.00171055
-0.000244392
-0.00188179
0.00260693
-0.00291333
0.00138103
-0.00080117
-0.000937256
0.000300127
0.000624088
-0.000354227
-0.00128657
-0.000738713
-0.00205275
-0.00100269
-0.00190315
0.000354428
-0.00232534
-7.50013e-05
3.51206e-05
3.84013e-05
0.00112117
0.00286806
0.000698995
0.000522145
0.00192089
-0.00291499
-0.00121269
0.00119224
0.00043236
-0.0008331
0.00162094
-0.00314451
0.00152071
0.000819246
0.000793278
0.00112825
0.000239019
-0.000145386
-0.000881628
6.32247e-05
0.000619261
-0.00339923
0.000968831
-0.001187
-0.000690362
0.00187697
-0.00365943
0.00246469
0.00117016
-0.00188358
-0.000412878
0.00224795
-0.00387441
0.00258078
6.46418e-05
-2.52939e-05
0.000395949
0.000968449
-0.00205618
-0.00259879
0.000564747
-0.00108712
0.00135703
-0.000531001
-0.000826093
-0.000382853
-0.0023853
0.00354855
-0.00258475
-0.000966383
0.00253068
-0.00142844
0.00276446
-0.00174149
0.000481464
0.00125988
-0.00305676
-0.000992199
0.00403871
0.00113948
0.00156291
-0.00270576
0.000860941
-0.00125408
0.000740728
0.000294966
-0.0016468
0.00270434
0.000355367
-0.00085258
0.000497214
-0.000763674
0.00083656
-0.000133781
0.00130604
-0.000926997
0.00220222
0.00103896
0.00268687
0.00091346
-2.77477e-05
-4.89403e-05
-0.00111993
-0.000616415
0.00168631
0.000159352
-0.001605
0.00144535
-0.0026551
0.00379688
-0.00107284
0.000686115
0.00163595
-0.00249077
0.00333697
-0.000932315
0.00295925
0.00116248
0.00223449
-0.00389638
0.00121375
0.000235381
0.00135946
0.00242438
-0.00361985
0.00119438
-0.00144378
0.000685073
0.000758583
-0.0018661
-0.000502313
0.00236804
6.40676e-05
-0.000167944
-0.00376514
0.000811154
0.00288841
-0.0014965
0.00344096
-0.00194887
0.00419069
-0.00393242
-0.00135642
0.00312061
-0.00177249
-0.000825611
-0.000175738
-0.00205251
-0.00116645
-0.00251666
-0.00288871
0.0037414
-0.00224381
0.00106881
0.00117513
-0.00224271
0.000315507
0.000398973
0.000430306
0.000446162
0.000615488
-0.00106171
0.00375245
-9.17471e-05
0.000771796
0.000513349
-0.00128528
-0.000350463
-0.000329303
0.000114178
-0.000574275
0.000447312
0.004358
-0.00291239
-0.0014838
-0.000896835
0.00121073
-0.000315933
-0.00295015
0.0017129
0.00123127
0.000114591
-0.000934761
-5.92497e-05
-5.26303e-05
0.00233594
-0.00169215
-0.00118717
-0.000775262
4.19216e-05
-0.00029327
0.000240834
0.000640438
0.00165193
-0.00046357
-0.00316425
0.000913194
0.00142991
-0.00234567
0.00117338
-0.000480507
-0.00381195
0.00158621
0.00279256
-0.000961984
0.000620154
-0.00113633
-0.000816267
-0.00069966
0.00151568
-0.000816154
-0.00382664
0.000907753
0.000257237
0.000907691
0.000948135
-0.00185605
-0.000882806
0.0016124
-0.000729908
7.22738e-05
-0.00041877
0.000334539
0.00010144
-0.00163716
-0.00045138
-0.00231996
6.16114e-05
-7.14793e-05
0.003085
0.00123085
-0.000323161
-0.000375963
0.000699124
-0.0016676
0.00081314
-0.00259031
0.00173835
-0.00295198
-0.000557003
0.00238075
-0.00319648
0.000714614
1.15926e-05
-2.0095e-05
-0.00166907
0.00427897
-0.00265538
0.00256032
0.000984868
-0.00104913
0.00417799
-0.00313249
1.99414e-05
2.47503e-05
-0.00122845
0.00213925
0.00133956
-0.00428233
0.000357011
0.000373699
-0.000730711
-0.000236231
5.38525e-05
0.00106392
0.00214515
-0.00321007
4.18817e-05
-4.51608e-05
0.000145943
-0.00122652
0.00108048
0.0011707
-0.00256108
0.00138888
-0.00102224
0.000570398
0.000451826