/*--------------------------------*- C++ -*----------------------------------*\
| =========                 |                                                 |
| \\      /  F ield         | OpenFOAM: The Open Source CFD Toolbox           |
|  \\    /   O peration     | Version:  v2012                                 |
|   \\  /    A nd           | Website:  www.openfoam.com                      |
|    \\/     M anipulation  |                                                 |
\*---------------------------------------------------------------------------*/
FoamFile
{
    version     2.0;
    format      ascii;
    class       volVectorField;
    location    "950";
    object      U_0;
}
// * * * * * * * * * * * * * * * * * * * * * * * * * * * * * * * * * * * * * //

dimensions      [0 1 -1 0 0 0 0];


internalField   nonuniform List<vector> 
13917
(
(0.789481 -0.0163129 3.43739e-20)
(1.02472 0.0402621 -1.11753e-22)
(1.03317 0.014175 -1.10143e-20)
(1.03831 0.00933515 -2.89458e-21)
(0.996542 0.0126665 0)
(1.02398 0.0387636 -2.25292e-21)
(1.04825 0.017272 1.56033e-22)
(1.01767 0.081769 -1.09285e-22)
(1.05662 0.0153806 -8.63573e-21)
(0.0146761 -0.104129 -3.35092e-22)
(1.02181 0.0759675 6.87744e-22)
(1.03052 0.0088747 -1.97088e-21)
(1.01073 8.75099e-05 0)
(0.73891 0.108931 0)
(1.02143 0.0298322 0)
(0.759323 -0.0189971 -4.48707e-20)
(1.00314 8.73194e-06 -7.29384e-24)
(1.03674 0.0702156 1.41536e-21)
(1.04054 0.0242837 3.54832e-21)
(0.763771 0.0166898 -2.29247e-20)
(1.05136 0.0254904 0)
(1.01386 0.0104266 0)
(1.04571 0.024428 5.43867e-21)
(1.01362 0.00999847 0)
(1.03983 0.0136383 -5.1284e-21)
(1.05242 0.0301603 0)
(0.589719 0.0451373 8.58427e-21)
(0.00126078 -0.078679 0)
(1.05195 0.0487493 1.74076e-21)
(1.01291 0.0045456 -3.51596e-23)
(0.0411866 -0.0863119 0)
(1.04245 0.0335836 1.96034e-23)
(1.03611 0.0109175 -5.3702e-22)
(0.840605 -0.0157572 -2.12858e-21)
(1.01817 0.00441371 0)
(1.00552 0.085811 -1.30134e-21)
(1.03515 0.020145 0)
(1.0048 0.000160903 0)
(1.0487 0.0175647 -1.1051e-20)
(1.05217 0.0141504 0)
(1.00152 -4.91499e-05 -1.73891e-23)
(1.00917 -0.00683861 5.04403e-22)
(1.05359 0.0111837 0)
(1.0368 0.0263685 -1.14202e-22)
(1.03752 0.0261779 1.2575e-20)
(1.02197 0.0265264 4.27269e-21)
(1.04972 0.0246631 1.01426e-22)
(0.477047 0.0515095 1.74351e-20)
(0.871845 -0.0529154 -5.16708e-21)
(1.01841 0.00402052 0)
(1.02997 0.0086713 2.97285e-21)
(1.03478 0.0238661 -5.60906e-21)
(0.702669 -0.0218123 0)
(1.02435 0.0112139 0)
(1.02599 0.0115214 -1.04038e-23)
(1.03585 0.0244762 8.20705e-21)
(-0.0836829 -0.0501014 1.12157e-20)
(1.0456 0.0239145 -7.30182e-21)
(1.01042 -0.00688164 4.32356e-22)
(1.0202 0.0243219 0)
(0.552794 0.126219 -3.53884e-22)
(1.02799 0.0194711 0)
(1.0037 1.48276e-06 5.91851e-23)
(1.03941 0.0133533 3.16717e-21)
(1.04279 -0.000709706 -3.93142e-20)
(1.01702 0.0303383 1.39419e-22)
(1.04899 0.0555023 9.72498e-22)
(0.999139 0.0782639 -3.93289e-21)
(1.03288 0.0771109 4.48433e-21)
(0.767987 -0.0199619 -6.61222e-22)
(1.04885 0.000260634 3.03337e-20)
(0.825048 -0.016073 3.70172e-21)
(1.03417 0.00391622 0)
(1.01069 -0.00561814 -4.3542e-22)
(1.05285 0.0246456 0)
(1.03938 0.0155254 2.36837e-21)
(1.00556 0.0139033 1.09077e-21)
(1.01164 -0.00550625 3.81966e-22)
(1.03893 0.0152153 -6.52569e-22)
(1.03658 0.0111554 -7.04112e-22)
(1.02169 0.016099 7.11508e-22)
(1.00336 5.27157e-05 -4.53301e-22)
(1.0337 0.00357662 0)
(1.02472 -0.00480778 0)
(1.01648 0.00187099 0)
(1.10386 0.102158 0)
(1.04329 0.0334008 0)
(1.01591 0.000990079 1.97996e-22)
(1.05228 0.0150396 0)
(1.0038 2.57016e-05 0)
(1.00585 4.3438e-05 -2.43228e-22)
(1.05451 0.0115654 0)
(0.870206 -0.0807041 4.41775e-21)
(1.0141 0.00415649 -1.72759e-22)
(1.02704 0.0152466 0)
(1.05352 0.0526541 0)
(0.681762 -0.0343214 -7.54439e-21)
(1.00437 9.26538e-05 -5.4366e-22)
(1.0163 0.00108609 2.5442e-22)
(1.05797 -0.0253384 3.66947e-21)
(1.00274 4.25057e-06 -1.95429e-22)
(1.00324 -2.12324e-05 2.55473e-22)
(1.02229 0.0165656 -8.45426e-22)
(1.00698 0.000293825 -7.32959e-22)
(1.00549 0.0125877 5.04394e-23)
(0.9796 0.0168316 0)
(0.819813 0.0389421 -7.24841e-21)
(1.02665 0.0202843 -6.94601e-23)
(1.00857 -0.00830188 -1.57675e-21)
(0.511644 0.0622199 -9.12159e-22)
(1.02009 2.0828e-05 -9.82183e-22)
(0.850452 -0.0140789 -1.02311e-20)
(1.05539 0.0457485 1.454e-21)
(0.307809 0.0147194 1.95094e-20)
(1.04882 -0.00288712 2.45489e-20)
(1.03971 0.0166219 1.39697e-22)
(1.04035 0.0248139 -3.10978e-21)
(1.00526 4.25575e-05 -1.86835e-22)
(1.03628 0.017894 7.49384e-21)
(1.03217 0.00118199 0)
(1.00411 8.65318e-05 -1.23527e-22)
(1.01077 -0.0028325 -7.3401e-22)
(1.05001 0.0604512 -3.2308e-21)
(1.04101 0.0248311 4.85518e-21)
(0.765022 -0.023795 2.01259e-22)
(1.02481 -0.0068164 -1.30455e-20)
(1.03917 0.0128089 0)
(1.05458 0.0252056 -3.90741e-22)
(1.01466 0.0014859 1.03232e-21)
(1.04116 0.0251124 -1.14605e-20)
(1.05415 0.0252942 0)
(1.02271 -0.00110347 -1.67866e-21)
(0.984431 -0.00717458 -2.36499e-22)
(1.03939 0.0169239 -1.26005e-22)
(1.03937 0.0322659 5.81682e-21)
(0.465658 0.0481144 6.89995e-22)
(0.533072 0.0982924 -2.03607e-22)
(0.738214 -0.0161018 -1.9252e-22)
(1.05357 0.0336273 8.84606e-22)
(1.00283 7.93121e-05 -3.81763e-22)
(0.826989 0.024864 6.10837e-21)
(1.01155 -0.00442771 -3.82968e-22)
(0.97896 0.0192366 7.0465e-22)
(1.01474 0.00673792 -2.32221e-22)
(1.03207 0.00390922 0)
(1.00619 -0.0213664 0)
(1.04595 -0.000457138 1.02477e-20)
(0.821622 -0.197248 2.96827e-21)
(0.525068 0.0489786 2.39341e-20)
(1.02494 0.0115304 -1.77773e-22)
(1.05116 0.0163569 0)
(1.00355 -1.56319e-05 -7.55206e-23)
(1.0316 0.00352416 0)
(1.0324 0.000870478 -1.73838e-21)
(0.60579 -0.0351879 1.09092e-20)
(1.00996 0.00557613 -2.01897e-21)
(1.00732 0.000303043 4.13507e-22)
(0.969385 -0.00335809 0)
(1.00303 1.52402e-06 3.35039e-22)
(1.00461 -3.58459e-05 -1.92867e-22)
(1.01619 0.00438758 0)
(0.930265 0.056647 0)
(1.03392 0.0262102 -7.20242e-22)
(0.800693 0.0222582 -5.4845e-21)
(0.738742 0.1342 -6.1852e-21)
(0.932257 -0.0219507 -5.30371e-21)
(0.467759 -0.0197382 3.35847e-21)
(0.622176 0.192286 3.23918e-20)
(1.00713 -5.92281e-05 2.10369e-23)
(1.05547 0.03536 -3.18619e-22)
(1.01285 0.00995869 0)
(0.98801 -0.0160055 -3.9513e-21)
(1.0571 0.0148574 -6.99316e-21)
(0.624305 0.107092 4.12943e-21)
(1.03903 0.0154567 1.63607e-21)
(1.00342 1.64713e-05 0)
(1.03867 0.0091342 -5.16141e-21)
(1.03262 0.0243365 5.04471e-21)
(1.0545 0.0247414 5.34165e-21)
(1.03429 0.02727 8.21773e-22)
(1.05215 0.0114206 0)
(1.01311 0.00970944 0)
(1.02972 0.00891499 0)
(1.03967 0.0328384 8.09421e-21)
(1.03755 0.0172422 0)
(1.01156 -0.000854156 -1.96171e-21)
(1.0292 0.00874712 9.20674e-22)
(1.03814 0.0332137 -1.07766e-20)
(1.01357 0.00451742 -3.39459e-23)
(1.11028 0.0977828 -2.66776e-21)
(1.03882 0.0145291 1.0909e-21)
(1.03795 0.0271052 0)
(1.04058 0.028592 -4.12778e-22)
(0.793785 -0.0112043 6.29611e-20)
(1.01445 0.00401902 2.2423e-22)
(0.769853 -0.0221103 3.59735e-21)
(1.04421 0.0156555 -2.08707e-21)
(0.992823 -0.00494905 6.4014e-22)
(1.01739 0.00427942 1.75582e-22)
(1.01058 0.00599327 0)
(1.0472 0.0230744 0)
(0.767124 -0.0193212 -1.22565e-20)
(0.724908 -0.0171973 0)
(1.03145 0.0202912 0)
(0.667214 0.0577761 -4.61425e-21)
(1.03996 0.0390994 0)
(1.05122 0.0156281 0)
(1.01068 -0.00358212 0)
(1.03399 0.0248392 -6.5194e-21)
(1.02099 0.0162459 0)
(1.012 0.00166344 1.96183e-22)
(0.989357 0.0122801 -6.93367e-22)
(0.987804 0.0130068 2.17096e-21)
(0.57258 0.0651896 -3.688e-20)
(1.03991 0.0327338 0)
(1.05431 0.0311643 -6.71966e-22)
(0.939213 0.02338 -2.01855e-20)
(1.01065 0.000702374 -2.31821e-22)
(1.01108 -7.46859e-05 -3.98697e-22)
(1.01109 1.92211e-06 4.03788e-22)
(0.594327 0.187006 0)
(1.03965 0.030673 -8.8935e-21)
(1.03666 0.0361719 0)
(1.02037 0.000991971 -8.40896e-22)
(1.00292 -3.46414e-05 -6.84952e-23)
(0.395517 0.0576956 6.79058e-21)
(0.755196 -0.0207779 -3.69633e-21)
(1.00981 -5.58153e-06 -2.79702e-22)
(1.00946 -6.50001e-06 0)
(1.00138 -8.64431e-05 1.96855e-22)
(1.0117 3.28137e-05 -4.54393e-22)
(1.0117 0.000132811 -4.30342e-22)
(0.816396 -0.0165356 -8.292e-21)
(0.751121 0.0938451 0)
(1.01717 0.0133701 0)
(1.00821 0.000193155 0)
(1.03976 0.0210589 0)
(0.81022 -0.0188256 -1.03288e-20)
(1.00332 1.38894e-05 0)
(1.02013 0.000957919 7.77263e-22)
(0.618289 0.0666922 3.41208e-21)
(0.973783 0.023558 0)
(1.04005 0.0316592 -4.61633e-21)
(0.932006 0.0208481 0)
(1.03358 0.0152757 0)
(1.01496 0.006876 7.49021e-22)
(0.68282 0.174608 0)
(1.03964 0.0216983 0)
(1.0536 0.0428798 0)
(1.04169 0.0265867 -6.9514e-21)
(1.03124 0.0194969 0)
(0.726262 0.0835821 4.12122e-20)
(1.03262 0.0018986 3.58062e-21)
(1.04635 0.0134969 -6.33935e-23)
(1.04042 0.0157692 -2.3355e-21)
(1.0164 0.0138052 0)
(1.00071 -1.45681e-05 0)
(1.03956 0.0131029 0)
(0.998603 0.00204397 -2.3023e-23)
(1.01457 0.00666353 -3.66852e-22)
(0.790649 -0.0198684 0)
(0.718504 0.0718808 -9.85463e-21)
(1.00918 0.000178039 -9.56713e-24)
(1.00915 2.37899e-06 -6.33752e-22)
(1.00941 0.0061997 1.37441e-21)
(1.00916 5.27213e-06 1.32094e-22)
(1.03277 0.00161188 -1.65204e-21)
(1.01619 0.000192279 0)
(1.04576 0.0188984 -2.13533e-21)
(1.00881 -4.34616e-05 3.79375e-22)
(0.738257 -0.0121 -1.09196e-21)
(0.827789 0.0423901 0)
(1.02554 0.00745808 1.22479e-21)
(1.00252 0.00568505 -2.34835e-23)
(1.00828 0.0248119 -1.82457e-21)
(1.01016 0.0012998 4.72373e-22)
(1.07379 -0.0171295 6.29205e-21)
(0.806757 -0.0182072 6.12509e-22)
(1.01032 0.00126872 -9.81047e-23)
(0.786303 -0.0205191 1.26594e-20)
(1.01388 0.00616784 0)
(0.935271 0.0589699 0)
(1.00285 1.66632e-06 2.41825e-22)
(1.02041 0.0270957 5.79624e-22)
(1.01623 0.0142026 0)
(1.01382 0.00605207 -4.18106e-22)
(1.0443 0.0244276 -5.09062e-21)
(1.00632 0.000261807 -4.91158e-22)
(0.856118 -0.0175597 -6.696e-21)
(1.04579 0.016163 1.58855e-21)
(0.692801 0.0563049 3.63145e-21)
(1.00258 -0.0219996 2.28829e-23)
(0.795879 0.0310131 1.59332e-21)
(0.724941 -0.0159582 -8.12554e-21)
(1.00454 8.59564e-06 0)
(1.04368 0.0221413 2.39492e-21)
(0.997742 0.00635911 -1.39214e-21)
(1.03977 0.0178113 3.30375e-22)
(0.997322 0.0107885 0)
(1.03913 0.0148398 1.97323e-21)
(1.01401 0.00485234 -3.49545e-22)
(1.00726 0.000335004 6.0336e-22)
(1.03094 0.0221388 -4.32412e-21)
(1.06202 -0.0543917 -3.57625e-22)
(1.04654 0.013782 9.36066e-23)
(1.03874 0.0145854 0)
(1.01985 0.00101268 1.57084e-21)
(0.979261 -0.0038343 0)
(0.743711 -0.0186442 1.47128e-20)
(1.01463 0.00151514 -4.7629e-22)
(0.996821 -0.0266208 9.61376e-22)
(1.04004 0.0174469 -5.62482e-22)
(0.982984 0.0151446 0)
(1.0265 0.0341041 0)
(0.842948 0.0290731 5.71508e-20)
(0.659818 0.103211 0)
(1.01237 0.0274497 -1.49364e-23)
(1.0249 0.000128515 4.03367e-22)
(1.00362 0.00431703 0)
(1.0279 -0.003087 0)
(0.986739 0.0137901 -2.90101e-22)
(1.03149 0.0150466 0)
(1.01564 0.000218483 3.30911e-22)
(1.0207 0.0290719 0)
(0.641877 0.0466662 -3.69527e-21)
(1.01143 0.00924406 5.95491e-22)
(1.02362 0.0417648 1.52782e-21)
(1.03858 0.0268733 -6.36233e-21)
(1.00301 -1.68626e-05 -2.01612e-22)
(0.994339 -0.0170521 -3.06926e-21)
(1.01638 0.00148487 3.57074e-22)
(1.05799 0.0354692 2.46986e-21)
(1.00805 0.00181874 4.36826e-22)
(0.654782 0.00944032 0)
(1.00997 0.00150016 1.84776e-22)
(1.04634 0.0145593 -1.57418e-21)
(1.04193 0.0398327 0)
(1.01068 0.0252955 1.6933e-23)
(1.00408 4.8577e-05 -1.983e-22)
(1.04144 0.0274175 -5.32415e-21)
(0.992213 0.011066 2.32324e-21)
(1.02732 0.0143292 1.95773e-23)
(1.01114 0.00852105 -6.07002e-22)
(0.869936 -0.01327 -1.02765e-20)
(0.987326 0.0144206 0)
(0.885978 0.0815123 0)
(0.78849 0.138663 1.11275e-23)
(1.01006 0.00101359 -3.66877e-22)
(1.01895 0.0134595 0)
(0.968684 0.0280961 0)
(1.02521 0.00276715 -3.03202e-22)
(1.01026 0.000994572 -3.47719e-22)
(0.996304 0.00824116 0)
(1.02738 0.0099234 2.63877e-22)
(1.07145 0.0227538 0)
(1.04619 0.0143378 -3.3393e-21)
(1.04011 0.0260882 0)
(1.03482 0.00646158 0)
(1.07897 -0.014629 -2.62703e-21)
(1.05485 0.0328477 -1.25892e-21)
(0.823867 -0.00811228 1.56094e-20)
(1.01483 0.00143756 -1.68231e-21)
(1.0278 0.014127 -2.32847e-22)
(0.99465 0.013051 -4.66312e-21)
(1.04475 0.0210084 -1.68579e-20)
(1.00279 -1.80937e-05 0)
(0.77441 -0.0161655 -4.62831e-20)
(1.05569 0.0328848 5.49877e-22)
(0.950688 0.0567763 -2.91465e-23)
(1.02623 0.0119591 1.80309e-22)
(1.02882 0.00477296 -7.23384e-22)
(0.994918 -0.0215495 -2.37246e-23)
(0.934664 -0.0857558 -1.92406e-23)
(1.01469 -0.0103557 0)
(1.03869 0.0357046 0)
(1.0164 0.0258814 0)
(1.04275 0.0424292 0)
(1.02585 0.00779565 -1.30415e-21)
(1.05482 0.0163246 1.32711e-20)
(1.00669 0.00151514 2.53495e-22)
(0.711719 0.143593 -2.76856e-21)
(1.04094 0.0293597 1.54808e-20)
(1.01652 -0.0111577 0)
(0.924785 -0.0749456 0)
(1.01481 0.0153985 -2.7344e-21)
(0.967124 0.0229164 -8.5629e-22)
(1.01046 0.00208065 3.72075e-22)
(0.784328 0.018141 2.45327e-20)
(0.963785 0.0253538 1.34406e-21)
(1.03571 0.0178401 7.50016e-22)
(0.376345 0.0902401 -3.4815e-21)
(1.07796 -0.00390399 -1.71416e-22)
(1.03008 0.0184551 0)
(0.817711 0.102086 0)
(1.00028 0.0486113 2.37494e-21)
(1.03516 0.0163891 5.71355e-22)
(1.04476 0.0251187 0)
(1.02015 0.0127739 -3.0562e-22)
(1.08428 -0.0035759 -2.4318e-21)
(1.03457 0.015096 2.17556e-20)
(1.01647 0.00130383 -4.08124e-22)
(1.05105 0.0171668 1.55064e-22)
(1.03896 0.0142871 -1.26489e-21)
(1.01408 0.00604218 -3.66601e-22)
(1.01188 0.00271956 0)
(1.01471 0.00152991 -1.06313e-21)
(0.476215 0.0993174 -1.82331e-22)
(0.972437 -0.0221322 4.11713e-21)
(1.027 0.0130337 0)
(1.01557 0.00102346 5.44621e-22)
(1.01399 0.009257 4.05641e-22)
(1.04333 0.0195887 8.04604e-21)
(0.978007 0.0491919 0)
(1.00941 0.00188954 3.82739e-22)
(1.00702 -6.27098e-05 -1.91418e-23)
(1.02789 0.0335274 0)
(1.02995 0.00306563 6.49131e-22)
(1.014 0.00638129 5.53849e-22)
(1.0353 0.0174596 0)
(0.769053 0.084005 2.18289e-21)
(0.509396 -0.108636 7.12788e-23)
(1.01635 0.0327872 0)
(1.04021 0.02387 -3.75574e-21)
(1.02942 3.95041e-05 8.61957e-21)
(1.01835 0.00111741 -1.7486e-22)
(1.00961 0.00170032 0)
(1.04659 0.0269502 0)
(1.01178 0.00257796 2.4261e-22)
(1.00964 0.00201491 0)
(1.01707 0.013834 0)
(1.00985 0.00180008 4.35897e-22)
(1.01747 0.00113 -1.19266e-23)
(0.711432 0.161446 0)
(1.02066 0.0131834 -2.76042e-22)
(1.05128 0.0126116 9.83874e-23)
(0.75184 -0.0103946 -7.37858e-21)
(1.04364 0.0216508 -4.44376e-21)
(1.01224 0.00172695 2.12179e-22)
(1.03095 0.00355953 0)
(0.842767 0.0942461 4.2201e-21)
(1.04714 0.0242747 0)
(0.744978 -0.0252929 -5.13955e-22)
(1.00863 0.00199175 0)
(1.02183 0.00281637 8.36848e-22)
(1.00649 0.0022894 0)
(1.01232 0.000267643 5.04546e-22)
(1.03435 0.0198557 -5.17624e-23)
(1.01362 0.0155426 2.8948e-21)
(0.782441 0.079146 -7.97039e-21)
(1.03722 -0.0340538 0)
(0.973939 0.0206025 -9.46462e-22)
(1.02162 0.00284697 -7.56206e-22)
(1.05017 0.0244435 0)
(1.02547 -0.039775 0)
(1.02043 0.0156584 -4.32435e-22)
(1.03433 0.0164902 0)
(0.868631 0.0827862 0)
(1.02717 0.00955823 9.03458e-22)
(0.395232 -0.143893 1.07568e-20)
(1.01244 0.00188991 5.44688e-23)
(1.01091 0.000940866 2.75147e-23)
(1.01389 0.00875458 0)
(1.01546 0.0157535 0)
(1.01152 0.00154553 7.57597e-22)
(1.01397 0.0008239 -2.45107e-24)
(0.974757 -0.00626193 0)
(0.595403 0.120166 -6.01912e-21)
(1.01127 0.00147724 -7.58339e-22)
(0.786485 0.040822 -5.53758e-21)
(1.02959 0.0312328 -5.05601e-21)
(1.01936 0.000360043 7.08376e-22)
(1.04279 0.021628 -4.57569e-21)
(1.0442 0.0492894 1.2614e-20)
(0.808451 0.101933 -7.34997e-21)
(1.05217 0.0185189 0)
(0.982514 0.0138863 0)
(0.982239 0.0476905 0)
(0.98193 0.0450499 0)
(1.01426 0.0159816 1.47785e-21)
(1.01513 0.0275065 -1.36625e-22)
(1.02055 -0.0451906 9.00544e-22)
(1.03034 0.0191917 0)
(1.02478 0.0535026 -6.44165e-22)
(1.00566 4.49109e-05 5.27415e-22)
(1.02418 0.0106682 0)
(1.02756 0.0150052 -2.37196e-23)
(1.05313 0.0165803 -1.45615e-20)
(1.05112 0.0213226 0)
(1.03907 0.0193648 2.89069e-21)
(1.04488 0.0270525 1.09728e-21)
(0.999828 -0.00958639 -1.39024e-21)
(1.00085 0.00528615 9.24723e-22)
(1.04457 0.0689054 -1.14249e-21)
(1.05062 0.0068046 1.09268e-22)
(1.02658 0.0129959 0)
(0.668285 0.0927633 -5.72834e-22)
(1.04653 0.0204721 4.27275e-21)
(1.04568 0.0160804 -3.3504e-21)
(0.688682 0.140708 0)
(1.01655 0.00167115 -1.41819e-22)
(1.05041 0.00569 1.24993e-22)
(1.03123 0.0256032 6.55365e-21)
(1.01026 0.00159754 -5.99633e-22)
(0.907345 -0.000621267 0)
(1.01098 0.000953179 -2.86025e-22)
(1.01226 0.00039482 -6.00789e-23)
(1.04315 0.0200943 -9.30245e-21)
(1.00891 0.00228723 4.21714e-22)
(1.01091 0.000746552 -2.72689e-22)
(1.03074 0.0205144 3.27319e-21)
(0.95588 0.0107012 1.00047e-20)
(0.286246 0.0789767 -1.62221e-21)
(1.01619 0.0041134 4.36421e-23)
(1.04213 0.00873766 -2.72403e-21)
(1.0005 -0.00111662 7.17431e-22)
(1.01914 0.0505648 -7.89015e-21)
(0.887229 0.0416429 0)
(1.02568 0.0124308 1.76925e-22)
(1.02538 0.0112785 1.10205e-22)
(1.01579 0.00368459 0)
(1.04146 0.0165667 0)
(0.874852 0.0890728 0)
(1.01585 0.00121411 -2.64647e-22)
(1.00341 -1.47536e-05 8.05193e-23)
(1.01099 0.00542559 -5.68042e-22)
(1.01408 0.00580265 0)
(1.03989 -0.00896165 2.76057e-22)
(1.04594 0.0165151 0)
(1.00517 5.10687e-05 7.04957e-22)
(1.04458 0.0266093 0)
(1.01019 0.00149202 5.87082e-22)
(1.01458 0.0100845 -1.4905e-21)
(1.03865 0.0140091 1.79281e-21)
(0.848199 0.0156138 0)
(1.00704 0.000409109 -3.93562e-23)
(1.04733 0.0125882 6.27912e-21)
(1.01515 0.00647138 1.08797e-21)
(1.0504 0.0240147 -9.63169e-21)
(1.04181 0.0229531 1.89435e-22)
(1.07476 0.0379787 2.27228e-21)
(1.03985 0.0158784 2.83861e-21)
(1.03145 -0.0270617 -3.65834e-21)
(1.03704 0.0139724 3.51153e-22)
(1.04396 0.0628824 3.20997e-21)
(0.995507 -0.00514796 -6.1722e-22)
(0.738944 0.139568 2.44482e-20)
(0.769835 -0.00630981 7.57737e-21)
(1.01426 0.00170264 -4.26913e-22)
(1.01352 0.00791044 -3.98626e-22)
(0.997559 -0.0103213 -8.31008e-22)
(1.02446 0.00519937 1.737e-21)
(1.04664 -0.00696351 0)
(1.01036 0.00159745 -8.05897e-22)
(0.827721 -0.0136135 3.1519e-22)
(1.04427 0.0155952 -2.24193e-21)
(1.01029 -0.0112615 0)
(1.07085 -0.0233038 -3.80299e-21)
(1.05297 0.0117108 0)
(0.0556598 -0.0520924 -5.5453e-20)
(1.01131 0.00144828 0)
(1.04702 0.0434088 1.19039e-22)
(1.00522 0.000133048 1.24973e-22)
(1.01068 0.0101386 7.43649e-22)
(1.018 -0.0134688 0)
(1.00907 0.00200262 -3.90488e-22)
(1.02074 0.0207943 -1.38938e-20)
(1.00275 -2.35211e-05 -1.01141e-22)
(1.01827 0.000163958 -7.63739e-22)
(1.01358 0.00838181 0)
(1.03826 0.0200674 1.04534e-20)
(1.0424 -0.00741297 0)
(1.00814 0.000101163 0)
(1.03538 0.0275012 6.91886e-21)
(1.04292 0.0211143 5.72602e-21)
(0.82883 -0.0752225 3.63895e-21)
(1.04186 0.0019533 -1.04626e-20)
(0.982759 0.0016035 -5.53024e-21)
(0.787966 0.111965 1.46272e-20)
(1.00704 0.000402266 8.76718e-23)
(0.763338 -0.0248997 8.56499e-21)
(1.00494 -7.24966e-06 6.65566e-23)
(0.556665 0.105736 0)
(0.808607 -0.202273 2.53807e-21)
(1.01019 0.0112913 0)
(0.990257 -0.0144566 -4.93019e-22)
(1.00308 1.68988e-05 -1.33798e-22)
(1.04662 0.0203095 0)
(1.05189 0.0105885 -4.84327e-21)
(1.00934 0.0022047 -3.88319e-22)
(1.00517 0.000142447 1.0363e-21)
(1.01462 0.000353882 2.38955e-22)
(1.04288 0.00367923 -9.26347e-21)
(1.01737 0.00469515 0)
(1.04459 0.034192 1.00951e-20)
(1.02362 0.0104207 0)
(1.00798 9.27549e-05 0)
(1.00364 1.58442e-05 -1.74638e-22)
(1.02487 0.0260039 -7.4025e-21)
(1.01226 0.0504157 2.09804e-20)
(0.270335 -0.00177808 2.82022e-20)
(1.04202 0.026675 -1.03286e-20)
(1.046 0.0166113 -5.7683e-21)
(1.05342 0.0306823 -1.95857e-20)
(0.816192 -0.0189624 2.43234e-21)
(1.01063 0.00226407 0)
(0.964699 0.0655099 8.53663e-21)
(1.01399 0.000146686 6.10811e-22)
(1.03238 0.050974 -1.40514e-21)
(1.02429 0.00536699 -5.31365e-22)
(1.0535 0.0147172 1.07003e-20)
(1.01384 0.0055205 5.53507e-22)
(1.03906 -0.0126727 -2.91763e-22)
(1.03269 0.00393381 0)
(0.814522 -0.124786 -6.07056e-21)
(1.04593 0.0196676 -1.14997e-21)
(1.01519 0.00689798 2.2856e-20)
(1.00521 8.20901e-05 6.28313e-22)
(1.04603 0.0187998 -7.74032e-22)
(1.01857 0.00216339 4.81285e-22)
(1.00228 -4.74319e-05 0)
(0.833012 -0.00510834 0)
(0.94169 -0.025202 0)
(1.0202 0.00292402 0)
(1.04021 0.026742 1.11983e-20)
(1.02005 0.00106699 -4.58809e-22)
(1.00874 0.00769432 0)
(1.0028 -2.56622e-05 0)
(0.848672 -0.00439074 1.59335e-20)
(1.01754 0.0045628 0)
(0.997071 0.00368172 1.56901e-21)
(1.01016 0.00158773 -2.35736e-22)
(1.01941 0.00272984 -5.61741e-22)
(1.04504 0.0215424 1.27994e-20)
(1.00327 -1.24429e-05 0)
(1.0414 0.0257989 6.1159e-21)
(1.00348 6.39668e-05 6.46427e-23)
(1.01009 0.0016245 7.93381e-22)
(0.528266 0.117869 0)
(1.04396 0.0343738 -6.05186e-21)
(1.0251 0.0120618 -5.64134e-23)
(0.665466 -0.0184875 2.63755e-22)
(1.02033 0.0221189 1.00029e-20)
(0.996896 0.0292246 0)
(1.02978 0.0249059 -8.43417e-22)
(1.01106 0.00138622 0)
(1.0211 0.0307838 3.18221e-21)
(0.833996 0.0159385 2.05411e-20)
(1.00618 0.0325172 -1.92268e-22)
(1.04549 0.0259007 -5.84181e-22)
(1.0356 0.0196536 0)
(1.04041 -0.014709 -1.0085e-21)
(1.00414 9.80678e-05 2.667e-24)
(1.01367 0.00257556 -1.36515e-21)
(1.01186 0.0295401 0)
(1.04118 0.0227873 0)
(1.04274 0.0156656 1.22119e-21)
(0.654006 0.158118 -1.47168e-20)
(1.04588 0.0200206 -1.65823e-21)
(0.967719 0.0267698 2.88621e-21)
(0.870788 0.0465558 -2.97569e-23)
(1.04832 -0.0586749 -8.31014e-22)
(1.04587 0.0157654 0)
(1.04135 0.0278577 0)
(0.796161 -0.0196236 -1.13937e-20)
(1.0144 0.00469633 0)
(1.02034 -0.0379943 0)
(1.01001 0.0300575 0)
(1.01017 0.00168539 4.94192e-22)
(1.00538 0.000172086 1.68535e-22)
(1.00366 5.8726e-06 -1.48777e-22)
(0.998678 -0.00131847 8.058e-22)
(1.01207 0.000753034 -2.87341e-24)
(0.771809 -0.0250487 -8.80664e-21)
(1.05804 0.0288556 -1.06412e-20)
(1.00811 0.000365739 0)
(1.03909 0.0275231 0)
(1.0055 9.65842e-05 -3.24843e-22)
(0.857149 0.0302807 -1.52956e-20)
(1.0133 0.00625501 0)
(1.01495 0.00140566 -5.25172e-22)
(0.935067 0.00857776 -5.87171e-21)
(1.04242 0.0231602 0)
(0.860491 -0.0153449 -6.73322e-22)
(1.03467 0.00542453 0)
(1.00435 -0.00699757 7.03798e-22)
(1.01561 0.0016172 4.64756e-22)
(1.03951 0.00726528 0)
(1.04847 0.018723 0)
(1.01329 0.00546021 -2.61547e-22)
(0.746977 -0.0192502 4.8088e-22)
(1.04674 0.0158519 0)
(0.818215 0.052059 0)
(0.870477 -0.008384 3.67826e-22)
(1.0245 -0.0380205 0)
(0.979845 0.00423519 3.43293e-21)
(1.04194 0.00903493 5.47082e-21)
(1.00611 0.000196218 6.04755e-22)
(1.01927 0.00224471 -1.40547e-23)
(0.81825 -0.0176051 -3.04982e-21)
(0.326596 0.103016 0)
(1.04449 0.0157692 1.08672e-21)
(0.757251 -0.0239263 3.29816e-22)
(0.857774 0.0581558 0)
(1.01014 0.00163294 -6.94769e-22)
(1.01493 0.00145559 9.53739e-22)
(1.03377 0.0204192 5.18387e-23)
(0.988018 0.0109989 -2.87229e-21)
(0.870898 0.0261504 2.42874e-21)
(1.04572 0.0192776 1.70901e-21)
(1.03891 0.00717951 -1.96603e-21)
(1.04707 0.0127992 -2.24288e-21)
(1.03118 0.0525494 -1.54783e-21)
(1.00495 0.00494063 0)
(1.04061 0.0258189 0)
(1.05707 0.0288557 1.94959e-21)
(1.02636 0.01483 -3.9391e-23)
(1.03655 0.0113316 1.01638e-22)
(1.006 0.000191508 7.98539e-22)
(1.04824 0.018383 3.0546e-21)
(1.00052 0.00289451 -9.62556e-22)
(0.997549 0.0474254 0)
(1.04011 0.0187774 -3.2456e-22)
(1.00217 0.00954968 1.1151e-21)
(0.748679 -0.0201743 1.5842e-21)
(1.01888 0.0135598 -2.37366e-23)
(0.863426 0.0308942 1.0725e-21)
(1.03518 0.0188422 0)
(1.02788 0.0366334 -1.95567e-21)
(1.04482 0.0155367 -1.62528e-21)
(1.00848 0.0324332 2.53356e-21)
(1.0041 7.09938e-05 1.04579e-23)
(1.04938 0.0433531 5.8387e-21)
(1.03348 0.0434524 -2.26741e-20)
(1.01625 0.0455911 -5.23093e-22)
(1.02518 0.00512481 1.81771e-21)
(1.04039 0.0183111 3.32209e-22)
(1.01028 0.000410473 0)
(1.02223 0.00411507 0)
(1.03245 0.00313003 -2.93485e-21)
(1.00507 0.0310293 3.19013e-21)
(1.03441 -0.0406195 2.65572e-22)
(1.02545 0.024789 0)
(1.04115 0.026154 -4.56652e-21)
(1.01083 0.00131346 -7.52285e-22)
(0.995727 0.0425342 0)
(1.05587 0.0152605 4.70095e-21)
(1.05277 0.016794 8.62437e-21)
(1.04099 0.0271096 -5.93561e-21)
(1.01887 0.0140291 -8.59854e-22)
(1.04645 0.0424462 0)
(0.73028 -0.0191001 5.46031e-21)
(1.00724 0.000259942 2.97851e-22)
(1.0426 0.0234985 3.24657e-21)
(1.0364 0.0130596 0)
(1.05642 0.0280252 -4.96761e-25)
(1.01298 0.00252236 0)
(1.01169 0.00168142 1.19971e-21)
(1.01377 0.00238072 0)
(0.748374 -0.0190369 -1.24925e-20)
(1.03546 0.0107988 0)
(1.01266 0.007012 -7.05848e-22)
(1.05734 0.0341325 8.56339e-21)
(1.01343 0.00575783 0)
(1.01286 0.00174361 8.69852e-22)
(1.03663 0.0240764 -9.9246e-21)
(0.810599 -0.0213728 7.18507e-22)
(0.996939 0.0331312 -2.55036e-21)
(0.462618 -0.110665 0)
(1.06794 0.0235673 1.40547e-21)
(0.963814 0.0330611 0)
(1.03277 0.00282919 3.12778e-21)
(1.00454 0.0144451 -1.3151e-21)
(1.05482 0.0227393 0)
(1.0089 0.0110587 -4.21243e-22)
(1.02764 0.0233467 -2.06806e-23)
(1.00387 3.97726e-05 0)
(1.00542 0.00014784 -5.72172e-22)
(1.03369 0.00602177 -2.85432e-21)
(1.04045 0.0198847 2.29397e-22)
(1.07887 0.0357507 -1.66394e-21)
(1.01297 0.00239962 0)
(0.956939 -0.0690333 3.23874e-22)
(1.01219 0.00271703 0)
(0.809348 -0.208026 3.45001e-21)
(1.03572 0.0185125 -3.0736e-22)
(1.05267 0.0183473 0)
(1.00836 0.00223284 0)
(1.04174 0.026177 9.83873e-21)
(1.02113 0.0279608 -2.47725e-21)
(0.906876 0.0762517 -2.18252e-20)
(0.996973 0.0358761 0)
(1.00285 5.68908e-05 -4.07717e-22)
(0.843066 0.0241814 -7.63581e-21)
(1.03653 0.0118557 1.23804e-21)
(0.785254 -0.0202071 0)
(1.05202 0.00943695 4.69135e-21)
(0.990717 0.0454156 -1.84276e-21)
(1.00631 0.00713081 2.43769e-21)
(1.0136 0.00193408 -4.10195e-22)
(1.02481 0.00482964 0)
(0.993254 -0.0199573 6.54503e-21)
(1.04766 0.0179482 -6.84403e-22)
(0.988586 0.0318166 2.92366e-21)
(0.505185 -0.12759 0)
(1.02192 0.00396199 -1.57968e-21)
(1.05571 0.0280534 -2.11804e-21)
(1.008 0.000132276 0)
(1.02335 0.0166277 8.51956e-23)
(0.9094 0.0233994 0)
(1.00842 0.000260729 -1.9445e-23)
(0.713808 0.159101 0)
(1.04834 0.0126035 4.35546e-21)
(0.992227 0.0493002 0)
(1.04067 0.024968 0)
(0.963375 0.010324 0)
(1.00916 0.00021915 0)
(1.00614 0.000262035 -7.01104e-22)
(1.03303 0.00591295 1.25746e-22)
(1.01109 0.00137637 1.14673e-21)
(1.02336 0.0111357 0)
(1.03502 0.0154958 -3.74052e-22)
(1.01327 0.00706212 0)
(1.05625 0.0340246 -9.80169e-21)
(1.00903 0.000208198 -3.50037e-22)
(1.12219 0.0582537 1.21489e-21)
(1.02582 0.0150912 0)
(0.776963 -0.0168374 0)
(0.779824 -0.0204186 -2.01627e-22)
(0.978262 0.0141935 3.92673e-21)
(0.968785 0.0246574 -7.75435e-22)
(0.371106 -0.105619 -5.17124e-21)
(0.75558 -0.0161148 5.0554e-21)
(0.981659 0.0187583 2.96451e-21)
(1.00963 0.00114267 6.54549e-22)
(1.00765 0.00617853 -1.14838e-21)
(1.02858 0.00570523 1.87037e-21)
(1.03484 0.0128207 7.12762e-22)
(1.01584 0.00393452 -4.41641e-23)
(1.04792 0.0183167 -3.86437e-21)
(1.0176 0.00616877 -4.01489e-23)
(0.979258 0.0613824 1.18385e-20)
(1.0239 0.0114388 0)
(1.03378 0.00386708 -8.08678e-21)
(1.03504 0.0103494 8.61055e-22)
(1.05969 0.0248408 6.89599e-21)
(1.03775 0.00244681 -6.91797e-22)
(1.01495 0.00205486 4.28999e-22)
(1.05288 0.0133123 0)
(1.03638 0.0120288 -2.64416e-21)
(1.01363 0.0111974 -3.39235e-22)
(1.04606 0.015946 -8.55664e-21)
(1.00635 0.000696855 -2.52884e-22)
(0.969932 0.016124 5.04536e-21)
(1.04085 0.0230346 0)
(0.982186 -0.0904102 0)
(1.01483 0.00155079 0)
(1.02477 0.00018066 0)
(1.01201 0.00920113 -1.31242e-22)
(1.01171 0.00301121 -5.66217e-22)
(0.716838 0.136022 -4.36002e-21)
(1.00983 0.00129973 0)
(0.977823 -0.0233275 2.18404e-21)
(1.01382 0.00531915 -1.9705e-22)
(0.981748 0.0519602 9.77639e-23)
(1.01751 0.0263451 -1.06268e-21)
(1.0157 0.00682277 0)
(1.04841 0.0437917 -8.19352e-21)
(1.02961 0.0203234 7.94464e-24)
(1.01001 0.00140702 0)
(0.886287 -0.0231311 8.9791e-23)
(0.997555 0.0591143 7.20649e-22)
(1.03015 0.0221647 0)
(1.04142 0.0269573 0)
(1.01113 0.00141554 7.4636e-22)
(1.0469 -0.0257962 -5.68781e-21)
(1.00403 -0.00203857 1.82669e-23)
(1.01149 0.00398666 0)
(0.809911 -0.00915277 0)
(1.00531 0.000127777 6.95148e-22)
(1.03873 0.00975914 0)
(1.03966 0.0272812 3.6725e-22)
(0.801736 -0.0126448 1.76876e-20)
(1.00257 -0.0024499 -3.26774e-22)
(0.983243 0.0309747 0)
(1.05532 0.0224865 0)
(1.0115 -0.00983887 -9.51577e-22)
(1.01002 0.0136134 0)
(1.01328 0.00749175 4.02956e-22)
(1.03262 0.00146303 -8.67807e-21)
(1.024 0.000614304 0)
(1.03487 0.026614 0)
(1.03008 0.00750123 5.50878e-23)
(0.916478 0.00127464 4.23703e-21)
(1.01931 0.0273092 1.23906e-21)
(0.758321 0.061805 -9.11374e-23)
(1.0152 0.0011728 0)
(1.00913 -0.00153042 -2.00404e-22)
(0.965185 0.0329281 -1.19573e-21)
(1.01243 0.000482476 0)
(1.01724 0.0124252 -4.93987e-24)
(0.989866 -0.00184862 0)
(1.03212 0.0168139 9.99625e-23)
(1.01152 0.00282842 3.17144e-22)
(0.983546 0.00529259 0)
(1.01326 -0.0111503 0)
(1.00683 0.00548914 0)
(1.04148 0.0230755 0)
(1.03441 0.0162908 -8.60783e-22)
(1.04092 -0.0050457 8.4957e-21)
(1.05084 0.0133538 3.41114e-22)
(1.043 0.0464162 -5.79081e-21)
(1.02953 0.0228697 1.33397e-21)
(1.04646 0.0126452 2.04281e-21)
(0.922027 -0.0068763 0)
(1.02668 0.0161933 1.92085e-22)
(1.04204 0.0232616 2.08283e-22)
(1.02292 0.00270745 1.11466e-21)
(0.774504 -0.0140412 0)
(0.985477 0.0499895 -1.14363e-22)
(1.0361 0.00515748 3.57015e-22)
(1.0042 -0.000621832 -2.85421e-22)
(1.01294 0.00927432 -3.64565e-22)
(1.02609 0.0123285 -1.95017e-22)
(1.00527 -0.000415197 0)
(1.01486 -0.00267846 1.51062e-21)
(1.00903 0.00191229 4.18138e-22)
(1.02462 0.00437216 5.44799e-22)
(1.04586 0.0163321 0)
(1.00712 0.000236272 0)
(1.03175 0.0161884 3.17824e-22)
(1.04132 0.0304984 0)
(0.758923 0.127992 1.68209e-20)
(0.895064 0.0764962 3.7421e-20)
(1.04019 0.0277528 -3.59867e-22)
(1.0123 0.00982487 1.35084e-21)
(0.969474 0.0360275 9.71898e-22)
(1.01692 0.00539375 -1.61422e-23)
(1.05378 0.0207916 -2.02154e-21)
(0.874764 0.0653104 2.11296e-22)
(0.441582 -0.0198789 1.05645e-20)
(1.0119 0.000988885 0)
(1.0098 0.00123549 -6.60841e-22)
(1.01798 0.000862337 0)
(1.02011 0.0112304 3.467e-22)
(1.01151 0.000929957 4.81989e-22)
(1.00703 0.00299642 -2.50992e-22)
(1.01929 0.0048275 1.22826e-23)
(1.04572 0.0156358 -2.04776e-21)
(1.01166 0.00290927 0)
(0.626087 0.0272958 -9.50725e-22)
(0.989985 0.0121606 7.88602e-22)
(1.01182 0.00327323 4.2277e-22)
(1.00662 -0.0187931 -3.49303e-22)
(1.02331 0.00276469 3.25063e-23)
(1.01446 0.00169645 0)
(1.02504 0.0191838 8.02991e-23)
(0.857519 -0.00151324 -1.53574e-20)
(1.05213 0.00414982 5.28153e-22)
(1.004 -9.91258e-06 0)
(0.848593 -0.00722834 6.8182e-22)
(1.01676 0.00330721 3.48256e-22)
(1.01539 0.00116104 -1.16103e-21)
(0.994557 0.0369973 0)
(1.00779 0.00723835 8.92573e-22)
(0.604114 -0.0665209 4.13627e-21)
(1.03941 0.00994833 9.19904e-22)
(0.9879 0.0552052 4.0418e-21)