/*--------------------------------*- C++ -*----------------------------------*\
| =========                 |                                                 |
| \\      /  F ield         | OpenFOAM: The Open Source CFD Toolbox           |
|  \\    /   O peration     | Version:  v2012                                 |
|   \\  /    A nd           | Website:  www.openfoam.com                      |
|    \\/     M anipulation  |                                                 |
\*---------------------------------------------------------------------------*/
FoamFile
{
    version     2.0;
    format      ascii;
    class       surfaceVectorField;
    location    "950";
    object      Uf;
}
// * * * * * * * * * * * * * * * * * * * * * * * * * * * * * * * * * * * * * //

dimensions      [0 1 -1 0 0 0 0];


internalField   nonuniform List<vector> 
20642
(
(0.774478 -0.0175271 2.57302e-22)
(0.782377 -0.0164282 -4.28961e-20)
(0.797826 -0.0137304 -6.83515e-21)
(1.02442 0.0396991 -1.80347e-21)
(1.02429 0.0410251 -2.02856e-21)
(1.02593 0.0405163 -4.84892e-22)
(1.03203 0.0149098 -7.60963e-21)
(1.03366 0.0149298 -5.18787e-21)
(1.03314 0.013123 -5.32563e-21)
(1.03849 0.00923108 0)
(1.03856 0.00959939 0)
(1.03799 0.00924348 0)
(0.996916 0.0119238 6.09626e-22)
(0.995488 0.0130358 -1.92824e-21)
(0.997394 0.0138155 1.30037e-22)
(1.02468 0.0381438 1.04597e-21)
(1.02341 0.0384096 1.16232e-21)
(1.0485 0.0174514 -1.37113e-21)
(1.04817 0.0170081 2.02665e-21)
(1.0481 0.0173333 -1.02511e-22)
(1.02032 0.0795065 -8.42422e-22)
(1.01208 0.0838628 -1.09688e-21)
(1.02367 0.0891458 -3.54136e-21)
(1.05688 0.0151694 2.57875e-21)
(1.05624 0.0153337 6.01883e-21)
(1.05689 0.0159548 -1.94642e-21)
(0.00670131 -0.0940578 5.38639e-21)
(0.0205983 -0.10192 -1.61566e-20)
(1.02833 0.0767725 -2.79438e-21)
(1.02053 0.0730871 5.86897e-22)
(1.03027 0.00874214 -6.12976e-22)
(1.03068 0.00909448 3.05139e-22)
(1.03074 0.00874934 0)
(1.01348 0.000154029 1.56264e-22)
(1.01361 0.000100108 1.53223e-21)
(0.76345 0.122028 -1.68158e-21)
(0.698655 0.0978777 1.34058e-21)
(0.75345 0.093588 4.15504e-21)
(1.02113 0.0294307 -8.82989e-22)
(1.02134 0.0303329 -1.79703e-21)
(1.02214 0.0296581 -1.1247e-21)
(0.759543 -0.0176725 1.73851e-20)
(0.713734 -0.022289 1.76341e-20)
(1.00352 2.722e-05 6.85826e-23)
(1.00352 1.24057e-05 -3.4521e-24)
(1.00212 -6.66963e-07 1.04944e-24)
(1.03527 0.0737177 -1.70064e-21)
(1.04168 0.0696241 1.21044e-21)
(1.03428 0.0679283 3.19686e-21)
(1.04036 0.0247039 3.40286e-21)
(1.04025 0.0243006 7.58844e-22)
(1.04072 0.0244575 -2.33598e-21)
(0.7111 0.0107546 0)
(0.777921 0.0159905 1.33372e-20)
(0.783068 0.0152583 0)
(1.05064 0.0249596 -1.09203e-22)
(1.0521 0.0248835 3.32961e-22)
(1.05132 0.0261355 5.6699e-22)
(1.01375 0.0102433 3.64398e-22)
(1.01412 0.0103915 -4.65202e-22)
(1.01387 0.0108028 -2.09224e-24)
(1.04564 0.0243015 4.59613e-22)
(1.04591 0.0246816 -2.08484e-21)
(1.04549 0.0246717 4.71698e-21)
(1.0134 0.0099006 -4.53649e-22)
(1.01369 0.00963763 1.72482e-22)
(1.03962 0.013506 1.98734e-21)
(1.04009 0.0136531 -1.3722e-21)
(1.03976 0.0137118 1.53382e-21)
(1.05346 0.0304316 -3.05498e-22)
(1.05268 0.0289426 2.96199e-22)
(1.05145 0.0302688 5.99878e-22)
(0.5513 0.0550281 -4.48814e-22)
(0.618827 0.04678 4.13706e-22)
(0.606857 0.0361632 4.75803e-21)
(0.0219963 -0.0850896 0)
(1.05301 0.050285 -8.86004e-22)
(1.05415 0.0470063 7.29308e-22)
(1.04993 0.0479314 -3.56002e-22)
(1.01325 0.00453102 3.24392e-23)
(1.01285 0.00486489 1.53641e-23)
(1.01263 0.00416892 -3.49052e-22)
(-0.0222642 -0.0650371 -5.89214e-21)
(0.00689686 -0.0759452 0)
(1.04284 0.0337204 4.63903e-21)
(1.04236 0.0344225 -3.37772e-21)
(1.04218 0.0333145 2.77785e-21)
(1.03638 0.011072 -1.23633e-24)
(1.03581 0.0108484 5.42208e-22)
(1.03618 0.010733 -3.90644e-22)
(0.83328 -0.0160725 0)
(0.846662 -0.0149614 6.0399e-22)
(0.846919 -0.0157261 -6.67354e-21)
(1.01833 0.00417723 1.61696e-22)
(1.0178 0.00432479 1.80069e-22)
(1.01864 0.00479725 -2.66461e-22)
(1.00257 0.0825162 1.98903e-21)
(1.0079 0.095317 2.458e-21)
(1.03477 0.0199458 7.65204e-23)
(1.03543 0.0198218 2.84324e-23)
(1.03539 0.0205442 -9.93326e-24)
(1.00386 0.000117424 4.71085e-22)
(1.00655 0.000301818 -1.8533e-22)
(1.00357 9.4992e-05 -4.43497e-22)
(1.0488 0.0178642 -1.49044e-21)
(1.04886 0.0175198 3.61257e-23)
(1.05211 0.0144335 -4.97871e-24)
(1.05238 0.0136266 -2.12482e-23)
(1.05133 0.0140013 -1.02579e-22)
(1.00143 -7.08196e-05 -6.07167e-23)
(1.00109 -2.42038e-05 -6.64603e-23)
(1.00254 5.00902e-06 2.18508e-22)
(1.00975 -0.00684587 -2.09896e-22)
(1.00882 -0.00744136 0)
(1.00862 -0.00604973 -2.28703e-22)
(1.05413 0.011317 -4.31646e-23)
(1.05326 0.0114837 -5.71596e-21)
(1.05349 0.0107127 0)
(1.03704 0.0265275 -9.70041e-22)
(1.03656 0.0271283 -2.01238e-21)
(1.03641 0.0261776 4.8887e-21)
(1.03766 0.0269174 -3.16948e-21)
(1.03767 0.0260114 9.18352e-22)
(1.02126 0.0259951 2.94256e-21)
(1.02325 0.0264686 1.68675e-21)
(1.0212 0.028497 3.79246e-22)
(1.04911 0.024709 2.86937e-23)
(1.0498 0.0237183 -2.02196e-22)
(0.39236 0.0349044 3.72155e-20)
(0.524042 0.0556255 5.23629e-21)
(0.53082 0.0666211 1.55103e-20)
(0.868251 -0.064886 -1.20145e-20)
(0.84753 -0.0431552 1.4554e-20)
(0.899037 -0.042846 -1.43354e-21)
(1.01825 0.00374453 -2.532e-22)
(1.01899 0.00414956 -1.51546e-22)
(1.02984 0.00879749 -3.95838e-22)
(1.02985 0.00845147 -1.30723e-22)
(1.0354 0.024482 -6.0013e-21)
(1.03428 0.0246439 -4.23299e-21)
(1.03466 0.0234399 -2.11074e-21)
(0.576684 -0.02126 0)
(0.729881 -0.021321 0)
(0.574025 -0.0224927 0)
(1.02465 0.0113445 -7.5906e-23)
(1.02428 0.0109231 8.62874e-23)
(1.02413 0.0113171 4.79976e-23)
(1.02614 0.0117869 -2.4796e-22)
(1.02571 0.0113989 8.52834e-24)
(1.02619 0.0113079 -1.82977e-24)
(1.03612 0.0244151 3.12724e-21)
(1.03584 0.0255221 -3.54948e-21)
(0.225585 -0.0351507 -2.11797e-20)
(1.04537 0.0238565 1.01111e-21)
(1.04581 0.0238443 -3.31831e-21)
(1.01052 -0.00616231 -4.20547e-23)
(1.01096 -0.00750414 -2.15571e-22)
(1.01812 0.0253782 -1.80441e-21)
(1.02109 0.0232679 9.52333e-22)
(0.577029 0.12336 0)
(0.541326 0.122761 0)
(0.53923 0.136061 0)
(1.02752 0.0198822 3.79813e-23)
(1.02904 0.0199462 0)
(1.02787 0.0182685 0)
(1.00333 -2.63704e-05 -5.54537e-24)
(1.00356 2.65275e-07 0)
(1.00424 -6.22842e-08 -1.52103e-23)
(1.03948 0.0132087 1.16245e-21)
(1.0391 0.0133088 -5.19196e-22)
(1.04592 -0.00206481 0)
(1.04459 0.000342898 -5.49845e-21)
(1.03132 -0.000302757 0)
(1.01682 0.0317498 4.20751e-22)
(1.01623 0.0289811 4.43986e-23)
(1.01862 0.0307378 1.01862e-22)
(1.0518 0.0539629 -7.7571e-22)
(1.04989 0.0576869 1.11441e-21)
(1.04687 0.0544778 0)
(1.00261 0.0726613 2.66435e-21)
(0.994705 0.0787438 -1.21359e-21)
(1.03683 0.0806031 6.95776e-22)
(0.778743 -0.0206189 -1.13145e-20)
(0.759172 -0.0196538 4.84786e-21)
(0.758631 -0.0200817 -5.01796e-21)
(1.04681 0.000122413 4.88809e-21)
(1.04784 0.00243267 2.40867e-21)
(1.05199 -0.00156434 2.10099e-21)
(0.821964 -0.0165566 0)
(0.82239 -0.0166922 9.08394e-21)
(1.03395 0.00375432 1.06099e-21)
(1.03464 0.00389002 6.17507e-22)
(1.03402 0.00410181 -1.02888e-21)
(1.01114 -0.00556561 2.56397e-22)
(1.01013 -0.00499 -7.22819e-22)
(1.05371 0.024695 1.56757e-22)
(1.05278 0.0236732 2.93032e-22)
(1.03916 0.0153699 8.862e-22)
(1.03966 0.0154541 -4.91201e-22)
(1.03928 0.0156202 5.83947e-22)
(1.00551 0.0134463 -9.40215e-22)
(1.00506 0.0142266 -3.28727e-22)
(1.00626 0.0144932 -2.91514e-22)
(1.01157 -0.00488323 -3.04764e-22)
(1.01218 -0.005948 -5.94847e-22)
(1.03902 0.0149785 0)
(1.03853 0.0152052 0)
(1.03657 0.0112518 1.77966e-22)
(1.03687 0.0111733 -3.1333e-22)
(1.02205 0.0163429 5.46567e-22)
(1.02139 0.016168 -2.08293e-23)
(1.02173 0.0156294 2.17714e-23)
(1.00375 7.19196e-05 1.9464e-22)
(1.00375 6.83354e-05 -2.36138e-22)
(1.00226 1.14341e-05 -2.15848e-24)
(1.03388 0.00336968 2.47806e-21)
(1.03325 0.003574 -2.2719e-23)
(1.02445 -0.00604837 8.14744e-21)
(1.02612 -0.00356648 4.44557e-21)
(1.02318 -0.00374826 0)
(1.01653 0.00175946 -3.45911e-23)
(1.0166 0.00196649 1.42473e-23)
(1.01634 0.00190269 -2.36542e-22)
(1.1076 0.0995905 -1.55414e-21)
(1.09754 0.0910329 7.49914e-21)
(1.09529 0.107867 -1.65616e-21)
(1.04368 0.0341453 1.03093e-22)
(1.0434 0.0331233 1.78029e-21)
(1.01615 0.00103137 -1.4681e-22)
(1.01596 0.00105818 -9.65819e-23)
(1.01541 0.000785579 1.54482e-22)
(1.05158 0.0152624 3.7932e-22)
(1.05266 0.0151311 2.94748e-23)
(1.00333 3.997e-05 6.72653e-23)
(1.00443 2.8616e-05 1.59701e-22)
(1.00573 3.94227e-05 1.9921e-23)
(1.00553 3.11296e-05 4.80076e-22)
(1.00606 7.20796e-05 -2.4398e-22)
(1.05459 0.0120652 -6.90793e-21)
(0.900108 -0.0780133 3.10818e-21)
(0.843992 -0.0911766 2.26241e-21)
(1.01433 0.00407397 -3.625e-22)
(1.01428 0.00443213 -2.16311e-23)
(1.01385 0.00402184 1.68914e-23)
(1.02735 0.0150939 3.73232e-23)
(1.02673 0.0150126 6.6311e-23)
(1.02717 0.0155803 9.56924e-23)
(1.05663 0.0528637 1.82379e-21)
(0.640211 -0.0333202 8.40623e-21)
(0.709295 -0.0248381 -4.36048e-21)
(0.703709 -0.0357536 0)
(1.0048 0.00011821 0)
(1.00486 0.000104889 3.94158e-22)
(1.00298 5.56763e-05 3.1991e-22)
(1.0164 0.00121204 -1.34924e-22)
(1.01629 0.000994657 -6.93875e-23)
(1.04309 -0.0263169 7.60938e-22)
(1.06465 -0.0238358 -2.1485e-21)
(1.05231 -0.0258073 0)
(1.00305 8.51662e-06 -6.09998e-24)
(1.00303 -8.21281e-06 1.40082e-22)
(1.00205 4.5324e-06 3.72569e-24)
(1.00312 5.32128e-06 -4.15163e-24)
(1.00389 -5.04051e-05 -1.08578e-23)
(1.0224 0.0169316 5.08012e-22)
(1.02264 0.0163735 9.5286e-22)
(1.00717 0.000310893 -7.53756e-23)
(1.00712 0.000271872 -4.5248e-22)
(1.00615 0.000225878 -2.60606e-22)
(1.00614 0.0123866 1.87536e-21)
(1.00498 0.0119389 8.28661e-22)
(0.97898 0.0183212 -1.90845e-22)
(0.981245 0.0158218 7.79468e-22)
(0.977015 0.0155233 1.79491e-21)
(0.825445 0.0403378 6.71616e-21)
(0.824875 0.0359781 0)
(0.813726 0.0412122 0)
(1.02588 0.0196853 -1.68705e-22)
(1.02668 0.0211883 6.62752e-23)
(1.00909 -0.00917813 0)
(1.00773 -0.00814842 -2.77669e-22)
(0.491051 0.0569834 3.30388e-21)
(0.5026 0.0753337 -7.57761e-21)
(1.02005 4.88296e-05 1.65002e-22)
(1.02011 -4.87785e-06 2.64543e-22)
(0.861997 -0.0135321 5.49431e-21)
(0.848235 -0.0135232 -4.92514e-21)
(1.05463 0.043833 -1.68852e-21)
(1.05793 0.045525 3.75914e-22)
(1.04528 -0.00397091 -8.73702e-21)
(1.05236 -0.00239732 -1.1466e-20)
(1.03958 0.0167225 -6.68111e-22)
(1.04013 0.0166953 -1.29096e-22)
(1.03948 0.0163268 8.2269e-22)
(1.04042 0.0251077 1.46104e-21)
(1.03996 0.0251401 4.75132e-21)
(1.00492 7.22107e-06 -9.07972e-23)
(1.0056 6.11745e-05 3.18708e-22)
(1.00516 2.54773e-05 -7.32283e-23)
(1.03674 0.0177925 2.47248e-21)
(1.03539 0.0176348 -3.82054e-22)
(1.03612 0.0189414 2.43689e-21)
(1.03232 0.00100694 -1.24553e-21)
(1.0325 0.0014147 2.7861e-22)
(1.03182 0.00119098 1.05744e-21)
(1.00485 0.000122518 2.2103e-22)
(1.00361 6.58888e-05 -2.64949e-22)
(1.0107 -0.00314698 5.36076e-22)
(1.01042 -0.00242698 7.33996e-22)
(1.01103 -0.00282143 -1.05779e-22)
(1.04773 0.0615808 -1.04186e-21)
(1.05352 0.0613575 1.04392e-21)
(1.04108 0.0251306 -2.43363e-21)
(1.04085 0.0250503 4.65071e-21)
(1.04102 0.0248607 4.39829e-21)
(0.755119 -0.0246021 -1.31428e-22)
(0.773605 -0.0220878 6.59952e-22)
(0.758849 -0.0238377 -1.09875e-21)
(1.02706 -0.0074947 -3.45329e-21)
(1.02415 -0.00776034 5.60255e-21)
(1.03936 0.0129724 1.44136e-21)
(1.03926 0.0126968 1.48064e-21)
(1.03886 0.0127518 2.71187e-23)
(1.05463 0.0259675 0)
(1.05529 0.0243993 0)
(1.01475 0.00145519 6.22851e-24)
(1.0148 0.0014446 7.69557e-22)
(1.01441 0.00159395 3.68172e-22)
(1.04117 0.0251775 -9.70554e-21)
(1.04123 0.0252633 -4.47033e-21)
(1.05434 0.0251563 0)
(1.05374 0.0252874 0)
(1.05438 0.0257834 1.20263e-21)
(1.01849 -0.000521355 -3.39831e-23)
(1.02341 -0.000572639 -9.145e-22)
(1.01784 0.00117665 -8.2224e-22)
(0.98873 -0.00551969 9.29111e-22)
(0.979844 -0.00631317 1.42196e-23)
(0.982683 -0.00792182 5.64386e-22)
(1.03973 0.0171576 8.00904e-22)
(1.03906 0.0167864 0)
(1.03964 0.0327739 0)
(1.03943 0.0320332 -5.93166e-21)
(1.03878 0.0328084 1.52663e-21)
(0.432649 0.0541964 5.27595e-21)
(0.48326 0.0375525 7.92821e-21)
(0.504448 0.100306 -6.8229e-22)
(0.545996 0.102431 -2.2004e-21)
(0.549133 0.094634 -7.06271e-22)
(0.731884 -0.0164851 3.53637e-22)
(0.729046 -0.0169042 -9.14757e-23)
(0.746834 -0.0144868 -1.74801e-23)
(1.05463 0.0341484 -6.33088e-22)
(1.05411 0.0320777 -1.27217e-21)
(1.05236 0.0338362 -8.94788e-22)
(1.00373 0.000149822 -5.39644e-22)
(0.816167 0.0258954 1.04295e-20)
(0.8483 0.0192641 -1.49629e-21)
(0.828349 0.0379432 -3.56392e-21)
(1.01103 -0.0039885 4.02672e-22)
(1.01187 -0.00434554 1.86539e-22)
(0.976125 0.0204924 -7.47644e-22)
(0.982013 0.0207571 -3.35895e-22)
(1.01487 0.0068134 -1.10282e-23)
(1.01466 0.00653895 -4.21075e-22)
(1.01468 0.00679559 5.9681e-22)
(1.03184 0.00371953 -1.19677e-21)
(1.03242 0.00390932 -3.67171e-22)
(1.03198 0.00408608 -7.40301e-22)
(1.00407 -0.0215853 -1.34632e-22)
(1.00756 -0.0230936 -5.96696e-22)
(1.00674 -0.01921 -1.52151e-22)
(1.04366 0.00113365 1.83687e-21)
(1.04593 -0.00250365 6.33817e-21)
(0.814818 -0.201897 6.98324e-21)
(0.542177 0.0562746 -4.36691e-21)
(0.584817 0.059935 -2.95299e-21)
(0.431355 0.026501 2.53994e-20)
(1.0252 0.011391 7.23317e-23)
(1.02505 0.01181 -1.22589e-22)
(1.05109 0.015851 2.88108e-22)
(1.05062 0.0164068 1.2619e-22)
(1.05146 0.0165335 -2.34776e-22)
(1.00316 -2.30484e-05 6.98476e-23)
(1.00336 -2.17322e-05 -1.77195e-22)
(1.00419 -2.89753e-06 3.68683e-23)
(1.03128 0.0035452 1.00526e-21)
(1.03169 0.00335366 4.91801e-23)
(0.589707 -0.0229273 1.36697e-20)
(0.584941 -0.0448627 1.6984e-20)
(1.01026 0.00584127 -1.24395e-21)
(1.0097 0.005923 -6.72422e-22)
(1.00994 0.00506506 -6.51681e-22)
(1.00723 0.000315932 0)
(1.00764 0.000275256 1.77632e-22)
(0.974506 -0.00301112 0)
(0.97134 -0.00184374 1.69584e-22)
(0.959932 -0.00329391 1.33301e-21)
(1.00336 4.52449e-06 9.55299e-23)
(1.00335 8.37043e-06 -7.65163e-23)
(1.0021 -1.55256e-05 0)
(1.0046 -1.548e-05 0)
(1.00392 -5.47968e-05 4.3165e-24)
(1.0162 0.00424572 2.36769e-23)
(1.01638 0.00450012 0)
(1.01603 0.00442094 0)
(0.933888 0.057488 -2.35997e-21)
(0.948374 0.0521858 -1.68438e-20)
(0.916144 0.0582429 7.43616e-21)
(1.03418 0.026694 3.63116e-22)
(1.03451 0.0257434 3.64523e-22)
(1.03328 0.0259387 3.99566e-22)
(0.800554 0.0127664 3.42838e-21)
(0.728838 0.139047 4.94883e-21)
(0.73872 0.137003 -6.9259e-21)
(0.756157 0.126291 1.12501e-20)
(0.89328 -0.0202671 6.15698e-21)
(0.953598 -0.0216507 2.59217e-21)
(0.954271 -0.0222636 2.71374e-21)
(0.577229 -0.022805 5.16885e-21)
(0.610099 0.18859 3.21906e-21)
(0.653194 0.184621 -3.41464e-20)
(0.602896 0.196735 -2.26579e-20)
(1.00708 -6.12733e-05 2.43125e-23)
(1.00721 -5.13623e-05 9.47127e-24)
(1.00712 -6.20338e-05 5.28099e-24)
(1.05492 0.0365943 -4.47972e-22)
(1.05687 0.0345224 0)
(1.01298 0.0099058 -7.7518e-22)
(1.01254 0.00988197 6.2346e-22)
(1.01301 0.010498 -2.27716e-22)
(0.992042 -0.0161626 1.02173e-21)
(0.994518 -0.014564 3.07248e-22)
(0.975771 -0.0161534 9.05748e-22)
(1.05692 0.01445 -3.25259e-21)
(0.644862 0.105918 2.20828e-21)
(0.609291 0.115204 0)
(0.617281 0.105158 0)
(1.03883 0.0152343 2.15202e-21)
(1.03923 0.0157941 3.78109e-22)
(1.03845 0.0160379 2.45707e-21)
(1.00315 5.13443e-06 1.48778e-22)
(1.00403 2.78557e-05 4.40336e-22)
(1.00299 4.56312e-06 -1.64032e-22)
(1.03904 0.0092709 -3.20445e-21)
(1.03851 0.00893772 0)
(1.03332 0.02489 2.41421e-21)
(1.03177 0.0252748 -8.80862e-22)
(1.03242 0.0238061 -3.41001e-22)
(1.05494 0.0248576 5.39644e-21)
(1.05428 0.024394 1.53954e-21)
(1.03506 0.02742 1.84634e-22)
(1.03382 0.0275729 1.70866e-22)
(1.05262 0.0115597 -1.58691e-21)
(1.05203 0.0110095 1.92594e-21)
(1.05181 0.0116808 4.17028e-21)
(1.013 0.00943381 -1.84474e-22)
(1.02949 0.0088248 1.50024e-22)
(1.02987 0.00911249 1.36421e-22)
(1.03926 0.0332499 2.32141e-21)
(1.03974 0.032313 8.47998e-21)
(1.04052 0.0339327 4.49796e-21)
(1.038 0.0177618 3.74341e-21)
(1.0373 0.0164326 0)
(1.01643 -0.00232776 -2.02368e-21)
(0.992784 0.00294221 -9.29916e-22)
(1.02907 0.00853469 0)
(1.02907 0.00886135 0)
(1.03843 0.0347662 6.43919e-22)
(1.03745 0.0327712 -5.22732e-21)
(1.01405 0.00483851 -3.40502e-22)
(1.01352 0.00407765 2.01965e-23)
(1.10228 0.0972116 -1.09892e-21)
(1.11338 0.0863146 -1.95814e-22)
(1.03902 0.014303 -6.3111e-22)
(1.03808 0.0145661 9.69043e-22)
(1.03825 0.0271915 0)
(1.03774 0.0278068 4.153e-21)
(1.04071 0.0291732 -3.07991e-21)
(1.0409 0.0284069 -9.09639e-22)
(1.04003 0.0285416 -3.05162e-21)
(0.784913 -0.0140271 -8.18696e-21)
(0.801293 -0.00891334 3.04018e-20)
(0.787788 -0.00942478 3.36926e-20)
(1.01481 0.00418421 -4.16482e-22)
(1.01438 0.00381895 4.29884e-22)
(0.763885 -0.0214031 1.38298e-21)
(0.778765 -0.0212455 8.28791e-23)
(0.761085 -0.0230284 -3.11933e-22)
(1.04421 0.0156206 5.1575e-22)
(1.04432 0.0157147 -1.21097e-21)
(1.04399 0.0155961 0)
(0.99409 -0.00456032 3.25831e-23)
(0.991502 -0.00290433 -7.98425e-22)
(1.01735 0.00450661 4.74486e-22)
(1.0169 0.00399694 -8.52909e-22)
(1.01079 0.00574476 1.04134e-21)
(1.01062 0.00650901 -1.49525e-21)
(1.04723 0.0235211 -2.67648e-22)
(1.0477 0.0225671 0)
(1.0466 0.0226569 -8.55284e-24)
(0.755532 -0.0193231 -2.26052e-21)
(0.758894 -0.0194087 9.42381e-21)
(0.778309 -0.0195782 -2.72693e-21)
(0.731865 -0.0170995 3.50138e-22)
(0.696587 -0.0187509 4.41983e-21)
(1.03138 0.019846 -1.0128e-22)
(1.03193 0.0204266 -6.10636e-23)
(1.03112 0.020474 -6.46225e-23)
(0.650837 0.0644289 1.53774e-21)
(0.704572 0.0464154 -5.60246e-21)
(0.664598 0.0634334 1.11687e-21)
(1.04111 0.039445 -1.62584e-22)
(1.03916 0.0395894 2.04454e-22)
(1.03998 0.0376311 -1.35198e-21)
(1.05063 0.0153443 -4.16527e-23)
(1.01031 -0.00352385 5.27258e-22)
(1.03401 0.0258991 9.94249e-22)
(1.02073 0.0159201 -3.55754e-22)
(1.02096 0.0166022 6.82346e-22)
(1.01213 0.00169809 -1.79005e-22)
(1.01185 0.00167651 -8.10047e-22)
(1.01206 0.0016388 -2.98876e-22)
(0.988612 0.0128899 -1.71536e-22)
(0.989673 0.0112241 1.68958e-21)
(0.990668 0.0133169 -2.38702e-22)
(0.986833 0.0126492 -3.4447e-22)
(0.987758 0.0147438 1.60877e-21)
(0.658509 0.0751755 -3.81941e-20)
(1.0404 0.0327821 0)
(1.0398 0.033522 0)
(1.05542 0.0303944 -1.26911e-22)
(0.936977 0.0218579 -4.17278e-22)
(0.93148 0.0261172 -2.26869e-20)
(0.95624 0.0218986 1.50764e-21)
(1.0107 0.000702065 -1.00243e-23)
(1.00976 0.000624447 2.60773e-22)
(1.01147 0.000721247 3.41659e-23)
(1.01109 -3.87199e-05 -4.80034e-22)
(1.01131 -0.000107985 -1.8916e-22)
(1.01077 -7.88919e-05 2.31165e-22)
(1.01139 7.49272e-06 -2.70929e-22)
(1.01085 4.50939e-05 -1.88236e-22)
(0.61186 0.17351 2.12094e-20)
(1.03984 0.0314671 5.14174e-21)
(1.04032 0.0301316 2.54418e-22)
(1.03891 0.0305457 0)
(1.03783 0.0361781 3.35696e-21)
(1.03569 0.0379081 -3.27366e-21)
(1.03586 0.0354561 0)
(1.02026 0.000969152 8.03433e-23)
(1.02048 0.00108086 3.82314e-22)
(1.02043 0.000926449 -5.75189e-23)
(1.00316 -2.71268e-05 -3.06595e-23)
(1.00227 -3.60356e-05 1.01798e-23)
(0.386668 0.0772773 -4.05516e-21)
(0.378649 0.0460601 1.33091e-21)
(0.764686 -0.0206846 5.71013e-22)
(1.00964 -9.74278e-06 -2.56119e-22)
(1.00998 2.9959e-06 -1.3551e-22)
(1.00988 -3.22144e-05 2.56719e-23)
(1.0093 -7.35476e-06 5.40842e-22)
(1.00939 -1.31479e-06 -3.89328e-22)
(1.00222 -6.96693e-05 0)
(1.00088 -6.82747e-05 0)
(1.01171 7.69819e-05 4.04936e-24)
(1.012 2.71624e-06 0)
(1.01201 0.000185732 8.03653e-23)
(1.01147 0.000171579 -5.67252e-23)
(0.809145 -0.0176814 0)
(0.818075 -0.0162073 6.39208e-21)
(0.737841 0.0878731 -6.80802e-21)
(0.733419 0.0977954 1.70972e-20)
(0.768815 0.0917473 1.59365e-20)
(1.01715 0.013633 -2.19333e-22)
(1.01699 0.0131079 6.15164e-22)
(1.0175 0.0134039 9.57836e-22)
(1.00811 0.00016718 9.29325e-24)
(1.00833 0.000236216 8.02649e-24)
(1.00821 0.000177307 3.46767e-23)
(1.0396 0.0215567 0)
(1.03936 0.0209694 -1.61631e-22)
(1.03988 0.0211123 0)
(0.814818 -0.0189164 -3.71596e-21)
(0.80422 -0.0194195 1.29916e-21)
(0.816252 -0.0185406 5.58592e-22)
(1.00397 -6.55767e-08 -3.47169e-24)
(1.00297 1.86476e-05 0)
(1.00295 2.63501e-06 0)
(1.0201 0.00102029 -2.5586e-23)
(1.02007 0.000876792 -4.03746e-22)
(0.631968 0.0571271 0)
(0.582429 0.0775347 2.58012e-21)
(0.973691 0.0224873 -4.86273e-22)
(0.971065 0.024663 0)
(0.976672 0.0252448 7.57768e-22)
(1.04087 0.0318761 -1.00274e-21)
(0.943515 0.0182202 8.52137e-21)
(0.920136 0.0213896 1.85914e-20)
(1.03378 0.016126 -7.33912e-22)
(1.03369 0.0149078 8.39486e-22)
(1.03267 0.0155794 -1.17546e-21)
(1.01504 0.00680046 -2.83168e-22)
(1.01508 0.007068 3.10466e-22)
(0.701592 0.166286 -9.2871e-21)
(0.684892 0.169652 -1.15038e-20)
(1.03982 0.0221265 -2.04371e-21)
(1.03926 0.0220104 0)
(1.0551 0.0413436 -9.68034e-23)
(1.05198 0.0428028 -1.66702e-22)
(1.04179 0.0268007 -4.83492e-21)
(1.04163 0.0265228 2.297e-21)
(1.04148 0.0269818 -4.09834e-21)
(1.03084 0.019324 1.12174e-22)
(1.0316 0.0192372 -2.69184e-23)
(0.757205 0.080631 1.45842e-20)
(1.03269 0.00176304 2.03959e-21)
(1.03228 0.00190971 1.39639e-21)
(1.03286 0.00214159 4.42201e-22)
(1.04628 0.0136429 7.6134e-22)
(1.04617 0.0132619 7.1993e-23)
(1.04584 0.0137062 -2.43751e-22)
(1.03993 0.016002 -2.49971e-21)
(1.04049 0.0163119 -2.23697e-21)
(1.04033 0.0155204 4.84368e-23)
(1.01634 0.0140806 7.96664e-22)
(1.0168 0.0138259 -3.00848e-22)
(1.01619 0.0135532 5.31188e-22)
(1.00111 6.55892e-06 -4.74279e-23)
(1.03984 0.0131527 9.32564e-22)
(0.997811 0.00302579 -1.16049e-21)
(0.99959 0.00265997 -5.89854e-22)
(0.998416 0.000684221 1.08953e-22)
(1.01425 0.00642713 2.97218e-23)
(1.01491 0.00656853 -1.9182e-22)
(1.01467 0.00702262 -4.56106e-22)
(0.799662 -0.0190213 2.53351e-21)
(0.789026 -0.0200553 2.85555e-22)
(0.786312 -0.0201999 1.67911e-21)
(0.705705 0.0661749 3.23262e-21)
(0.720309 0.0900357 4.94178e-21)
(0.73508 0.0635615 3.99449e-21)
(1.00899 0.000107903 0)
(1.00913 0.000582446 -2.17597e-22)
(1.00935 2.47972e-05 0)
(1.00915 3.71235e-06 5.03323e-22)
(1.00898 5.02873e-06 3.15689e-22)
(1.00947 0.00681091 5.18151e-22)
(1.00904 0.00606227 4.00621e-22)
(1.00932 -1.18098e-05 -6.4079e-23)
(1.009 1.58572e-05 -1.49731e-22)
(1.0332 0.00161791 -2.80484e-21)
(1.01735 0.000230288 4.40565e-22)
(1.01295 0.000163772 -4.48754e-22)
(1.04582 0.0189093 -1.31792e-21)
(1.04567 0.019166 1.60677e-21)
(1.04553 0.0187604 -2.85538e-21)
(1.00885 -0.000443646 -4.54565e-22)
(1.0086 0.000279644 2.3702e-22)
(0.731804 -0.0143205 2.2757e-21)
(0.744984 -0.0110331 2.30643e-21)
(0.824316 0.0457929 1.4405e-20)
(0.839987 0.0407959 6.82916e-21)
(1.02571 0.00764028 3.86978e-22)
(1.02569 0.00730302 -1.87997e-22)
(1.02523 0.00738146 4.00088e-22)
(1.00309 0.00507857 -4.67453e-22)
(1.00169 0.00560932 -4.59137e-22)
(1.00274 0.00682205 -4.32096e-23)
(1.01324 0.0258375 -1.74694e-21)
(1.01313 0.0227499 1.20494e-21)
(0.993088 0.0279151 5.33733e-22)
(1.01026 0.00128332 1.86787e-22)
(1.01028 0.00145367 1.82328e-22)
(1.00999 0.00121151 -1.80461e-22)
(1.07532 -0.0161807 2.2743e-21)
(1.07188 -0.0211723 8.86462e-22)
(1.06997 -0.01398 2.39323e-22)
(0.813526 -0.0177997 -3.33645e-22)
(0.810661 -0.0177307 9.32166e-22)
(1.0102 0.00114074 2.24371e-23)
(1.01056 0.00137904 -1.13975e-22)
(0.792715 -0.0200625 3.09795e-22)
(0.79102 -0.0203892 -1.18505e-20)
(1.01363 0.00621571 3.6416e-22)
(1.01384 0.00584994 3.68647e-22)
(0.958181 0.0554143 6.11328e-21)
(0.925033 0.0632447 1.20816e-20)
(1.00313 4.44354e-06 5.74441e-23)
(1.00205 -1.28336e-05 1.48572e-22)
(1.02086 0.0275408 3.39492e-22)
(1.01991 0.0271971 -6.78161e-22)
(1.02065 0.0265084 0)
(1.01599 0.014315 3.08318e-22)
(1.01659 0.0145964 -4.24531e-22)
(1.01393 0.00623413 0)
(1.01372 0.00595518 0)
(1.01385 0.00599968 0)
(1.0444 0.024922 5.65555e-22)
(1.04377 0.0248099 5.06075e-21)
(1.04435 0.0242728 8.3807e-21)
(1.00681 0.000311256 -2.61972e-22)
(1.00681 0.000290459 1.14079e-22)
(1.00479 0.000166831 3.39285e-22)
(0.834635 -0.0187593 3.85622e-21)
(0.837509 -0.0133663 -5.36886e-22)
(1.04566 0.0160924 -2.6861e-23)
(1.04593 0.0161139 1.15892e-21)
(1.04558 0.0161837 1.19827e-21)
(1.00097 -0.0198202 0)
(1.0013 -0.024207 0)
(0.791748 0.0368301 6.06954e-22)
(0.769096 0.0339541 -6.93053e-21)
(0.842598 0.0180316 2.08741e-21)
(0.719679 -0.0165837 0)
(1.00478 5.35305e-06 2.30185e-22)
(1.00474 1.65415e-05 -6.39841e-22)
(1.0436 0.0220114 -2.4078e-21)
(1.04347 0.0223 -4.02411e-21)
(1.04377 0.0224448 1.1749e-21)
(0.997174 0.00726604 7.59923e-22)
(0.997378 0.00509845 4.4532e-22)
(0.99882 0.00687733 1.41808e-21)
(1.03992 0.0175731 9.82742e-22)
(1.04008 0.018006 -5.77041e-23)
(1.03938 0.0176903 -4.88831e-22)
(0.996865 0.00977296 5.38599e-22)
(0.998531 0.010881 -1.62445e-22)
(1.03893 0.014702 9.34031e-22)
(1.03942 0.0148413 -6.89917e-22)
(1.01425 0.00477227 -3.67838e-22)
(1.01414 0.00511869 -4.32896e-22)
(1.01373 0.00468166 -1.74583e-22)
(1.00785 0.000381717 2.43174e-22)
(1.0066 0.000287655 3.24125e-22)
(1.0307 0.0216173 -3.36169e-22)
(1.02997 0.0229394 3.44499e-21)
(1.03169 0.0226977 -1.84695e-21)
(1.05368 -0.0570342 4.4553e-22)
(1.06007 -0.0608923 -2.07149e-22)
(1.06317 -0.0487565 2.91874e-21)
(1.04618 0.0141007 -1.2168e-21)
(1.04655 0.0137465 5.03687e-23)
(1.03884 0.0143975 8.50549e-22)
(1.03841 0.0145262 1.48778e-22)
(1.01996 0.00104324 2.96827e-22)
(1.0198 0.000938775 -1.12243e-22)
(1.01981 0.00106147 -2.53884e-22)
(0.977428 -0.00457879 -7.84929e-22)
(0.983392 -0.0023696 1.59757e-21)
(0.743373 -0.0207105 -8.66956e-21)
(0.694393 -0.0191522 -6.68319e-22)
(1.01477 0.00148362 -3.46505e-22)
(1.01473 0.00153058 -2.04898e-22)
(1.01436 0.00155156 -6.84337e-23)
(0.995535 -0.0239355 -4.64381e-22)
(0.994183 -0.0285088 -9.00601e-22)
(0.999377 -0.0267784 1.69899e-23)
(1.04048 0.017448 6.42822e-23)
(0.984695 0.0144958 -4.52202e-23)
(0.982919 0.0169348 -2.32378e-21)
(0.980047 0.0144609 2.39816e-21)
(1.02702 0.0342442 7.00844e-22)
(1.02563 0.0334873 3.37737e-23)
(1.02616 0.0355161 -1.13006e-22)
(0.852673 0.0290935 -7.7333e-21)
(0.845039 0.026088 0)
(0.835593 0.0306638 0)
(0.667758 0.108305 -1.98328e-21)
(0.677799 0.0987899 1.44214e-21)
(1.01158 0.0264151 4.41848e-22)
(1.014 0.0275314 -6.89966e-24)
(1.01221 0.0287211 -6.87076e-24)
(1.02489 0.0019271 0)
(1.02604 -0.000163265 6.22285e-22)
(1.00428 0.00474368 -1.36203e-21)
(1.00354 0.00334518 -9.19701e-22)
(1.02849 -0.00105446 3.93395e-21)
(1.029 -0.0031219 -6.09255e-21)
(0.988312 0.012835 -3.28647e-22)
(0.984748 0.0119458 1.22188e-21)
(1.03052 0.0145863 4.02626e-21)
(1.03125 0.0162539 -2.43257e-21)
(1.01699 0.000379224 -2.60626e-23)
(1.01226 9.16575e-05 1.69632e-22)
(1.02099 0.0284929 1.3773e-21)
(1.0202 0.0291849 9.94368e-22)
(0.685062 0.0364398 0)
(1.01127 0.00891431 -7.01217e-22)
(1.01173 0.00926698 -2.45607e-22)
(1.01133 0.00961766 -6.3443e-22)
(1.02447 0.0429447 -1.56641e-21)
(1.02276 0.0418689 0)
(1.03877 0.0274571 0)
(1.03866 0.0267345 -4.79643e-22)
(1.00355 -1.56253e-06 -3.58934e-22)
(1.00331 -1.1347e-05 1.07377e-22)
(1.00211 -2.56867e-05 -5.11017e-22)
(1.00129 -0.0159296 -4.88029e-21)
(0.98873 -0.0168468 3.48249e-22)
(1.01643 0.00138202 3.90827e-23)
(1.01647 0.00159404 1.17536e-22)
(1.01627 0.0015062 -1.44165e-22)
(1.05774 0.0349563 1.31504e-21)
(1.05768 0.0362187 5.32241e-21)
(1.00822 0.00205695 2.0817e-22)
(1.00807 0.00157412 9.52394e-25)
(1.00784 0.00194938 2.13748e-22)
(0.555282 0.00771392 0)
(0.573184 -0.00189009 -1.68476e-20)
(1.01006 0.00156768 -1.84231e-22)
(1.00995 0.00147166 -1.84213e-22)
(1.00992 0.00146991 3.08517e-22)
(1.04611 0.0144717 -1.64565e-21)
(1.04634 0.0145304 8.85147e-23)
(1.04607 0.0147926 -5.3902e-22)
(1.04252 0.0408386 1.96986e-22)
(1.04304 0.0386604 3.51648e-22)
(1.00969 0.0250344 7.98086e-24)
(1.01154 0.0241123 1.3445e-23)
(1.00468 7.54388e-05 5.64766e-22)
(1.00392 3.88679e-05 4.51541e-22)
(1.04135 0.0273622 -2.5698e-21)
(1.04119 0.0278048 4.16158e-21)
(1.04158 0.0277064 -2.70659e-21)
(0.989746 0.0115869 -8.8445e-23)
(0.99405 0.0134472 3.2866e-23)
(0.992794 0.00992699 -8.51023e-23)
(1.02759 0.0142102 -3.38432e-23)
(1.02748 0.0146803 -8.73845e-24)
(1.02702 0.0140622 3.58738e-23)
(1.01083 0.00852223 1.57675e-21)
(1.01131 0.00823929 -3.29275e-22)
(0.875871 -0.0138248 9.81885e-21)
(0.877171 -0.0125334 -3.17589e-22)
(0.984481 0.0149692 1.95343e-22)
(0.987579 0.0130957 1.73773e-22)
(0.989201 0.0169193 1.23905e-22)
(0.881054 0.0822944 -1.5788e-21)
(0.909565 0.0755489 -1.85011e-22)
(0.870012 0.0878308 1.18691e-21)
(0.831144 0.140626 -3.58925e-21)
(0.776446 0.144633 -2.94459e-21)
(1.01017 0.0010026 2.41186e-24)
(1.00987 0.00094421 1.18827e-22)
(1.01894 0.0137403 1.8346e-22)
(1.01874 0.0132141 -4.21096e-22)
(1.01928 0.0134374 -1.77662e-22)
(0.968599 0.0268289 -1.55431e-21)
(0.966086 0.0292215 3.64474e-22)
(0.971522 0.0299496 -1.6144e-21)
(1.02562 0.00389729 6.36785e-23)
(1.0237 0.00372673 1.52678e-22)
(1.0105 0.00107597 1.35906e-22)
(1.01015 0.000872482 -4.51485e-22)
(0.99511 0.00807938 -5.20602e-22)
(1.02728 0.00972215 2.85323e-22)
(1.02772 0.0100458 1.57326e-22)
(1.02721 0.00999546 2.76097e-22)
(1.06966 0.0228298 9.18302e-23)
(1.07267 0.0235927 2.32877e-22)
(1.07188 0.0201542 -6.25982e-22)
(1.04585 0.0144671 -2.31791e-22)
(1.04007 0.0265843 2.43166e-21)
(1.04029 0.0261493 2.45036e-21)
(1.0397 0.0260227 -2.44336e-22)
(1.03362 0.00637167 -9.33671e-23)
(1.03521 0.00615122 -4.27823e-24)
(1.0347 0.00775437 0)
(1.07642 -0.0109743 1.82976e-21)
(1.07987 -0.01597 1.01206e-21)
(1.0553 0.0329905 -4.3482e-22)
(1.05459 0.0326662 -5.92901e-22)
(1.05456 0.0337098 3.84624e-22)
(0.830285 -0.0067074 -5.98919e-22)
(0.817952 -0.0089074 -3.96083e-21)
(0.828889 -0.00911975 -1.08782e-21)
(1.0151 0.00130334 -7.03548e-22)
(1.01467 0.00151862 -2.29376e-22)
(1.0282 0.0143512 -1.3438e-23)
(1.02771 0.0137409 8.95768e-23)
(0.99399 0.0126547 2.2322e-22)
(0.99444 0.0145419 -1.59283e-21)
(1.04485 0.0214488 -6.23503e-22)
(1.04408 0.0210363 -3.15012e-21)
(1.04502 0.020551 -4.87017e-21)
(1.00307 -1.97486e-05 -3.0475e-22)
(1.00184 -8.5285e-06 1.27159e-23)
(1.00318 -2.04127e-05 -5.09045e-22)
(0.739363 -0.0152227 -3.01253e-20)
(1.05604 0.033596 2.62917e-22)
(1.05589 0.0325387 3.66213e-23)
(0.945546 0.0554068 -5.67408e-24)
(0.95753 0.0558808 -1.63922e-22)
(1.02616 0.0121395 -2.69731e-22)
(1.02661 0.0120255 2.71579e-22)
(1.02904 0.00423836 5.47768e-23)
(1.02727 0.00483867 4.05588e-22)
(1.02904 0.00626931 5.20699e-22)
(0.992551 -0.0205477 -8.66174e-22)
(0.996681 -0.0195807 -4.50565e-22)
(0.926104 -0.0805922 9.40865e-21)
(0.960885 -0.0752316 -9.28281e-22)
(0.909925 -0.100495 -6.02597e-22)
(1.01545 -0.0107728 -5.13476e-22)
(1.01396 -0.0107578 -1.25528e-21)
(1.0145 -0.00941791 -7.48039e-22)
(1.03971 0.0367784 2.92343e-21)