/*--------------------------------*- C++ -*----------------------------------*\
| =========                 |                                                 |
| \\      /  F ield         | OpenFOAM: The Open Source CFD Toolbox           |
|  \\    /   O peration     | Version:  v2012                                 |
|   \\  /    A nd           | Website:  www.openfoam.com                      |
|    \\/     M anipulation  |                                                 |
\*---------------------------------------------------------------------------*/
FoamFile
{
    version     2.0;
    format      ascii;
    class       volScalarField;
    location    "850";
    object      k_0;
}
// * * * * * * * * * * * * * * * * * * * * * * * * * * * * * * * * * * * * * //

dimensions      [0 2 -2 0 0 0 0];


internalField   nonuniform List<scalar> 
13851
(
0.000153716
0.0138327
0.000191079
0.000153078
0.000189124
0.000222081
0.000146761
0.000178074
0.000139271
0.00019739
0.00329934
0.0354136
0.0127817
0.0295512
0.000144092
0.000168018
0.000157286
0.000164084
0.0011533
0.000139145
0.000152657
0.000190047
0.00014655
0.000152352
0.000148167
0.000178644
0.00015565
0.00262318
0.000153359
0.000156466
0.000250578
0.00015792
0.000189977
0.00242861
0.000152433
0.000208459
9.51288e-05
0.00018651
0.000200708
0.00187607
0.00014508
0.00013244
0.00594034
0.0030665
0.00285632
0.014985
0.00288416
0.00879875
0.000156103
0.000239754
0.000187105
0.000198144
0.010795
0.000146029
0.000153815
0.000132539
0.000145085
0.0135938
0.000155936
0.000147451
0.000190748
0.0209069
0.000206627
0.000191941
0.000238081
0.000156681
0.000468809
0.00313988
0.000167986
0.000163773
0.0153688
0.00704125
0.0159083
0.000146902
0.000141342
0.000141842
0.00018918
0.0164734
0.000177918
0.0178426
0.000149183
0.0026045
0.000144033
0.0140643
0.000205099
0.0372081
0.000204194
0.0239454
0.000158018
0.000141209
0.000208285
0.000180978
0.00334687
0.000161401
0.000157638
0.000150785
0.000189593
0.029514
0.000219953
0.000150848
0.0251675
0.000179258
0.00015053
0.000154758
0.000144779
0.000227753
0.000181472
0.000131408
0.0198155
0.000223307
0.000152676
0.000141553
0.000176339
0.000154824
0.000152615
0.00839839
0.0303548
0.000131542
0.000156572
0.000157337
0.00579754
0.000154558
0.0154707
0.0064292
0.0107634
0.00014607
0.0109793
0.000178686
0.000152173
0.000199228
0.000144835
0.000139016
0.0185078
0.000143984
0.00723683
0.000140763
0.000131629
0.00595025
0.0303338
0.0294148
0.0236584
0.000153577
0.000149838
0.000136059
0.000153943
0.00328204
0.000278287
0.000199243
0.000146561
0.00284921
0.000188198
0.000153941
0.0303882
0.000145752
0.000152834
0.000153759
0.000142359
0.000153793
0.000198048
0.000186781
0.000133635
0.000161083
0.0134008
0.000138897
0.000162631
0.000134256
0.000343883
0.000168399
0.000151818
0.0176976
0.0143164
0.000136526
0.000142536
0.0294592
0.000138784
0.00844055
0.000177893
0.000150086
0.00127763
0.000131728
0.000159225
0.00880722
0.000143858
0.000191553
0.000133034
0.000147741
0.000156868
0.000148539
0.000191865
0.000194693
0.00305808
0.012081
0.000142603
0.00016825
0.0220907
0.000152425
0.000148853
0.00422358
0.000149288
0.000142071
0.000146608
0.0160645
0.00016377
0.000143363
0.000188353
0.000143991
0.0325778
0.00015752
0.0288307
0.000132299
0.0359834
0.000150162
0.00448862
0.000131246
0.000135325
0.0037994
0.000196142
0.0150559
0.000143424
0.0299824
0.000157842
0.000149408
0.0325053
0.000197425
0.0396087
0.000148467
0.000163901
0.000146462
0.0143571
0.000131329
0.000177824
0.000267136
0.000136444
0.000142236
0.000184796
0.000179416
0.030321
0.000247541
0.000135925
0.000143486
0.000258363
0.00591927
0.000137159
0.000190823
0.000142421
0.0379612
0.000179831
0.00276131
0.000154036
0.000159085
0.000165755
0.00591831
0.000149524
0.000154206
0.00017967
0.0114308
0.000191955
0.00753017
0.0049967
0.00014427
0.000135459
0.000162131
0.000563092
0.000138695
0.00656973
0.000152403
0.000149364
0.000160715
0.0311397
0.000656457
0.000165527
0.00015285
0.000342678
0.000176498
0.000167315
0.000139135
0.00267454
0.00143841
0.0419806
0.00323197
0.00013716
0.000131871
0.000144361
0.000178692
0.000534606
0.00589718
0.000140518
0.000144093
0.000349936
0.00277785
0.000203635
0.000155208
0.000147579
0.000170253
0.00253972
0.00622225
0.000161612
0.0364141
0.000139365
0.038197
0.000160545
0.000157097
0.0410281
0.000147877
0.000227987
0.0349538
0.000140261
0.000175043
0.000161592
0.000154652
0.0286746
0.000161935
0.000149251
0.0322977
0.000132942
0.000159504
0.000150586
0.0406384
0.000198812
0.000143442
0.000179868
0.000143668
0.0114382
0.000173975
0.000146534
0.000144968
0.000198208
0.000163061
0.000152543
0.000144101
0.000147725
0.000149064
0.00303576
0.031547
0.0193633
0.000168285
0.039651
0.0200456
0.000143714
0.000168913
0.000204912
0.000198163
0.000190905
0.00019569
0.000875003
0.000156139
0.00192166
0.0362487
0.000144353
0.000336748
0.000352589
0.000453981
0.000152515
0.000193616
0.0147931
0.000142875
0.00520718
0.000144911
0.000143727
0.000140654
0.000131449
0.000141566
0.0364021
0.00415367
0.000144817
0.000173935
0.000133584
0.0329803
0.000172652
0.00226938
0.0192579
0.000145042
0.000201716
0.000161805
0.0043772
0.000144027
0.000131663
0.000166822
0.0258534
0.000144787
0.0293825
0.000193084
0.000196925
0.0145813
0.00224862
0.00182329
0.000160271
0.000139486
0.000150402
0.000166354
0.000179558
0.031112
0.000168327
0.0391393
0.0353893
0.000133701
0.000144373
0.0179974
0.0200654
0.000274912
0.0310414
0.00017024
0.000162651
0.000150537
0.0167498
0.00013773
0.000167518
0.000158631
0.00014607
0.000145668
0.000139984
0.000134139
0.000191188
0.000184985
0.0152958
0.000164581
0.000181113
0.000171377
0.00604501
0.000160628
0.000611449
0.000156577
0.00381064
0.000131528
0.000139755
0.000149421
5.83913e-05
0.00285863
0.000196775
0.000169213
0.0117402
0.00309166
0.00020944
0.000160106
0.000185259
0.000143769
0.0057431
0.000144634
0.00663012
0.00337368
0.000188805
0.0260552
0.000150323
0.00104752
0.00302626
0.0247174
0.000131625
0.000164355
0.000178554
0.000984879
0.000137209
0.000149146
0.000186851
0.000196674
0.000170627
0.027094
0.000148487
0.000145484
0.0109785
0.000163743
0.000131644
0.0251472
0.000139412
0.000153726
0.00013796
0.000175062
0.00015267
0.000132021
0.000149598
0.0316632
0.000144177
0.000170248
0.000140003
0.000168182
0.00311493
0.000155775
0.000144971
0.000155059
0.000154899
0.00861111
0.000149229
0.000217114
0.000143798
0.000148912
0.0249219
0.0245583
0.000144263
0.000172651
0.00016078
0.00559066
0.0147209
0.000145551
0.00440621
0.000144288
0.000189593
0.000146669
0.0155172
0.000133003
0.0100839
0.000190882
0.000132563
0.000172635
0.0241794
0.000178611
0.00259047
0.000156296
0.00344732
0.000157179
0.000138374
0.000139279
0.000145983
0.0244365
0.000184895
0.000198793
0.000439154
0.000193052
0.000134067
0.0226443
0.00278922
0.000159416
0.000161407
0.00505288
0.00608336
0.0339365
0.000152734
0.0159054
0.0148695
0.0152076
0.000162948
0.000179595
0.00868359
0.0012931
0.0093271
0.00440397
0.0175235
0.000154279
0.0188684
0.0115161
0.000131742
0.0011803
0.00018545
0.0199687
0.000154479
0.000142851
0.000142066
0.000143994
0.000191144
0.000175447
0.0187645
0.0273181
0.000139716
0.00962957
0.0248061
0.000189381
0.00276177
0.000169745
0.000131214
0.000139506
0.00126363
0.0251157
0.000153069
0.000192121
0.000208003
0.00013242
0.000179975
0.00746858
8.21436e-05
0.000195344
0.0257073
0.0114732
0.000144552
0.000146203
0.023078
0.0350284
0.000199658
0.000168109
0.000207976
0.000131652
0.000142092
0.00958414
0.000132146
0.000154303
0.000131609
0.000139465
0.0131695
0.000191001
0.000165621
0.000132056
0.0274391
0.00486524
0.000139557
0.000142892
0.00013891
0.000149579
0.02438
0.00358889
0.00418582
0.0146288
0.00231362
0.000166519
0.0161353
0.0261978
0.000157404
0.000168478
0.000131189
0.000150049
0.000169533
0.0294557
0.00103877
0.000191687
0.000163133
0.000138714
0.000167746
0.000148901
0.00257366
0.00018708
0.000143673
0.000169604
0.000137195
0.000160312
0.000197637
0.000147088
0.000143522
0.00017268
0.000147173
0.000189562
9.73012e-05
0.000196481
0.00016822
0.00020067
0.000138549
0.000254119
0.000168791
0.0141585
0.00014989
0.000151314
0.0165778
0.000154997
0.0143331
0.0364665
0.0154226
0.0245881
0.00013768
0.00957585
0.00013822
0.000139437
0.000132973
0.000139526
0.000156985
0.000165883
0.000173454
0.000131829
0.0201395
0.000193223
0.0219406
0.0001414
0.000134604
0.000143159
0.00020287
0.0229896
0.000180157
0.000160704
0.000138616
0.000149726
0.000146711
0.000143076
0.000118225
0.0265493
0.000146882
0.000131718
0.000146118
0.00014296
0.000850194
0.0127007
0.000168163
0.0274532
0.00488715
0.000143295
0.000198261
0.0263611
0.000169752
0.0375451
0.000149137
0.000162535
0.000179719
0.00016302
0.00474513
0.000144121
0.00859049
0.000145377
0.000164156
0.0288168
0.000142677
0.000153181
0.00020585
0.000138476
0.000158412
0.000425123
0.030341
0.00018659
0.00489029
0.0034375
0.000131382
0.000141148
0.0236624
0.00020518
0.000181957
0.0366249
0.000138578
0.0001657
0.00013185
0.00156005
0.000785955
0.000159259
0.000148933
0.00348037
0.00015605
0.000142788
0.00965781
0.0172289
0.0288795
0.000132792
0.000146721
0.0165235
0.00838613
0.000204506
0.000148082
0.0233839
0.000144088
0.00382502
0.000204575
0.000190212
0.000157743
0.015227
0.000163506
0.000150519
0.000130957
0.000150657
0.000163563
0.000153143
0.000138375
0.0109706
0.00016689
0.000195601
0.000164299
0.00216231
0.000138928
0.000469809
0.000155421
0.000163178
0.000135331
0.00014287
0.000144887
0.0346099
0.000141804
0.000131963
0.0114063
0.000146462
0.0204036
0.000146212
0.000149184
0.000186522
0.00285376
0.00285043
0.000141251
0.000277236
0.0282132
0.000149385
0.0338543
0.000163822
0.000138095
0.000197084
0.00725048
0.000261807
0.000159485
0.000140761
0.000131516
0.00283312
0.000193297
0.000182919
0.000160943
0.000196033
0.00015042
0.000148598
0.000192098
0.0039392
0.000191309
0.000441972
0.000146464
0.000189824
0.000189916
0.0396934
0.000159055
0.0372068
0.000252109
0.000146597
0.014033
0.000235653
0.025148
0.0313662
0.0324611
0.00451185
0.000174456
0.000138238
0.000165156
0.0143675
0.0136668
0.000144483
0.000149135
0.000185482
0.00231467
0.000132604
0.0104938
0.000138319
0.00014479
0.0115925
0.0163628
0.00349382
0.000139386
0.000143843
0.00952364
0.000152975
0.000197935
0.00015283
0.0228947
0.000119569
0.0239606
0.000181156
0.000173382
0.000149292
0.0001465
0.0170733
0.000178486
0.0189954
0.000175481
0.00016789
0.0114166
0.0248383
0.0221768
0.000144799
0.000164915
0.000139456
0.000168652
0.000152934
0.0328998
0.000166173
0.0347506
0.000132495
0.000186021
0.000142566
0.000215352
0.000167126
0.000164485
0.0280845
0.00017513
0.00017672
0.000153108
0.000186018
0.00687021
0.00022137
0.000154564
0.0146825
0.000138286
0.0338055
0.00440158
0.000147791
0.0371487
0.0262242
0.021992
0.00459499
0.000171697
0.000144282
0.0276132
0.000167057
0.00726049
0.0292926
0.000141377
0.000152055
0.000141226
0.00500197
0.0339049
0.000146695
0.00014175
0.0209526
0.0287226
0.000195436
0.000158712
0.000151241
0.00454727
0.0143099
0.000190553
0.00013201
0.000175005
0.000138571
0.000160261
0.000755582
0.000150882
0.00792744
0.00590974
0.00014498
0.000150572
0.000144508
0.000153306
0.0161945
0.0228515
0.000163845
0.0368869
0.000142493
0.000163935
0.000143932
0.000138677
0.000147297
0.000144808
0.0221012
0.000144319
0.000179768
0.000144917
0.000159678
0.000698877
0.00711422
0.000156643
0.0239215
0.000183452
0.000328906
0.000167514
0.000167829
0.0165891
0.000160291
0.000177067
0.0325502
0.00311723
0.0108906
0.000174031
0.0029132
0.000149446
0.000173785
0.000179751
0.0352269
0.000145312
0.0291936
0.000140958
0.000141596
0.0299467
0.000144722
0.00561677
0.000158239
0.000139396
0.000175236
0.000139479
0.000143877
0.000140952
0.00014883
0.00017341
0.000141561
0.00015102
0.0138899
0.00018419
0.0292189
0.000146244
0.00015573
0.000154416
0.000144197
0.000139257
0.000188995
0.000149142
0.0001411
0.000149176
0.000148471
0.0203485
0.0264006
0.000220656
0.031153
6.88385e-05
0.000142074
0.00670088
0.00016289
0.000141374
0.00324981
0.000145072
0.00693297
0.000141834
0.00288985
0.00505472
0.0163644
0.000136677
0.0137985
0.000165903
0.000155472
0.000142725
0.000138584
0.0311596
0.000241684
0.00599592
0.000142229
0.000143624
0.011935
0.000147884
0.00160989
0.00449268
0.00668362
0.000983059
0.00415195
0.000149036
0.000144609
0.000199464
0.000168979
0.000154863
0.000209156
0.00017534
0.000149319
0.000150871
0.0265773
0.00014134
0.0195787
0.00393335
0.00600801
0.000212832
0.000152407
0.000136819
0.000148313
0.00242951
0.00341948
0.000136674
0.000158199
0.000142017
0.000188401
0.000133316
0.000141612
0.000149585
0.000167377
0.000677525
0.000177608
0.00016899
0.000145318
0.000179706
0.0118411
0.000150455
0.0140051
0.00890394
0.000189399
0.000134608
0.00017579
0.000142833
0.000146937
0.00014795
0.0164073
0.0001985
0.0031422
0.00015496
0.00381501
0.000143228
0.000145477
0.000147913
0.00593287
0.00439123
0.000133338
0.000166999
0.000188232
0.0255393
0.000155724
0.0116592
0.000159861
0.0319144
0.000192131
0.0307753
0.000192477
0.000188981
4.31059e-05
0.0261411
0.00379754
0.0160565
0.000145292
0.000222315
0.000133182
0.000154744
0.00015905
0.0001475
0.0262876
0.000164244
0.000161362
0.00459057
0.000207621
0.00906033
0.000143548
0.000154629
0.000160026
0.000137442
0.000166935
0.019599
0.00173018
0.0191887
0.000140584
0.00016036
0.000153792
0.0072185
0.0309421
0.000198154
0.00013672
0.000148787
0.0160456
0.000177797
0.0205245
0.0248057
0.000224864
0.000134427
0.00726413
0.000165567
0.000176058
0.000162609
0.0350546
0.00249954
0.000196822
0.000230174
0.000150831
0.000165523
0.000144783
0.0101222
0.000182372
0.0249567
0.00347828
0.000158859
0.000201735
0.000152367
0.0345585
0.000135044
0.000143089
0.00286561
0.0299735
0.00491719
0.0173094
0.000146564
0.000144886
0.0165492
0.0135112
0.0149402
0.00015559
0.000146171
0.000145009
0.0206966
0.000202916
0.000148762
0.000227678
0.000194689
0.029179
0.00634387
0.00394696
0.000144275
0.0202235
0.000156751
0.000144803
0.000200159
0.0220655
0.000146867
0.000140959
0.00595338
0.0332031
0.00014436
0.000140473
0.0287443
0.000142647
0.0012361
0.000140588
0.00633282
0.000144905
0.000180147
0.019787
0.0309466
0.000151693
0.00730267
0.00539341
0.0200188
0.0041621
0.033041
0.000212298
0.000142454
0.00553253
0.000156055
0.000143665
0.000137316
0.00674353
0.000143091
8.09789e-05
0.000141149
0.000151217
0.0155004
0.000187814
0.0045309
0.000152917
0.000163784
0.000139165
0.000166741
0.0056077
0.0253894
0.000140372
0.000185502
0.00279085
0.000147626
0.00013879
0.0285103
0.000168622
0.000169633
0.000198304
0.0301304
0.00664258
0.00374357
0.014673
0.000209621
0.00364242
0.00297136
0.0064612
0.000185527
0.000137034
0.000198664
0.0001424
0.000142396
0.027072
0.0287453
0.000153828
0.0345622
0.000243498
0.0189546
0.000125323
0.000222471
0.000143734
0.00024244
0.000198766
0.000142426
0.000152026
0.0348782
0.0301437
0.00889569
0.032296
0.000172405
0.0373938
0.0359755
0.000166224
0.000147484
0.000142429
0.00257439
0.000141404
0.000131826
0.000152715
0.000150082
0.000154387
0.0139508
0.0377682
0.0190008
0.000149031
0.00816986
0.000158332
0.000164902
0.000141019
0.000143084
0.0127967
0.000161204
0.0266012
0.0183149
0.000136128
0.000197133
0.000144521
0.000173003
0.000147662
0.0002033
0.000149562
0.000152621
0.000148642
0.000153386
0.000203213
0.000150259
0.00016962
0.000142762
0.000170158
0.000219557
0.0170068
0.000142785
0.000178327
0.00014714
0.000200497
0.00016244
0.0230088
0.000254654
0.000165753
0.000154822
0.000153068
0.000159368
0.000144264
0.00232929
0.000143972
0.000142596
0.000148321
0.0328043
0.00016066
0.000155854
0.000171172
0.000147087
0.000184702
0.0316356
0.00508645
0.000169865
0.000144773
0.000189595
0.000137695
0.000143197
0.000212458
0.0347664
0.000146136
0.000166025
0.000207456
0.00938229
0.000148951
0.000149991
0.0332304
0.000152038
0.000221582
8.11661e-05
0.036621
0.000145129
0.000174968
0.000143229
0.0393805
0.000201451
0.000175224
0.000197083
0.0193631
0.000151232
0.0333693
0.0266832
0.000147671
0.0159059
0.000189436
0.000152868
0.0128178
0.000146263
0.000144687
0.000137925
0.000207708
0.000192022
0.000205273
0.000152783
0.00015069
0.000163913
0.00295036
2.88665e-05
0.0368264
0.0028482
0.000149741
0.000201601
0.000199448
0.0120533
0.000190976
0.00252373
0.000141533
0.000169985
0.000138782
0.0134617
0.000171726
0.000143163
0.0272398
0.000231088
0.000167387
0.000164683
0.000132394
0.000146893
0.000180606
0.000169106
0.0125301
0.000185632
0.000187704
0.000182649
0.000196655
0.0386877
0.000232652
0.036936
0.000142991
0.000141007
0.000213653
0.0194011
0.0110024
0.000240263
0.000154593
0.0152732
0.00281212
0.000142878
0.000159447
0.000139703
0.00017402
0.000186528
0.000397328
0.0119025
7.10494e-05
0.000152138
0.0242382
0.0137766
0.000144181
0.000199713
0.0300154
0.0111753
0.000155066
0.000187944
0.00013126
0.00015874
0.000142356
0.000158485
0.0387845
0.02467
0.00908269
0.0152948
0.000151835
0.00016882
0.000179482
0.000144536
0.000148893
0.000138605
0.0285582
0.000141119
0.0329723
0.000170993
0.000195235
0.000206356
0.000184328
0.0178523
0.0115697
0.000173501
0.000133914
0.000151227
0.00918217
0.00337921
0.000157093
0.000139459
0.000139225
0.000186006
0.000165218
0.00020258
0.0292071
0.000151644
0.000138149
0.00019946
0.00017384
0.0159154
0.0126317
0.000140566
0.000187116
0.000147273
0.0417816
0.000135378
0.0379631
0.000141721
0.000151412
0.000167449
0.000149377
0.00019527
0.000164402
0.000177854
0.0155451
0.0308232
0.000157976
0.000164568
0.000143552
0.0104558
0.0167454
0.000149211
0.000135689
0.00284756
0.000131369
0.0255597
0.000146782
0.000171761
0.000188967
0.0210131
0.00017328
0.000151834
0.000146261
0.000186664
0.0348471
0.000142515
0.0103965
0.0334767
0.0153601
0.000747171
0.000168482
0.0202592
0.000157738
0.000125914
0.000143191
0.00304397
0.00290073
0.0125004
0.0149683
0.0381039
0.000146381
0.000227018
0.000140949
0.0127287
0.00337093
0.0343304
0.0148933
0.000161077
0.0346045
0.00901174
0.000169625
0.000152735
0.000147016
0.0269869
0.000158985
0.000186504
0.000158651
0.000147991
0.000138672
0.000147086
0.0295236
0.000198789
0.000166063
0.0164085
0.00723592
0.000143706
0.000143692
0.00013881
0.000167269
0.0370862
0.00016493
0.000158984
0.000171022
0.00196696
0.000191542
0.000176309
0.00912858
0.000165129
0.0373206
0.000164157
0.000165715
0.000143371
0.000158174
0.000186662
0.00444951
0.00346188
0.0297052
0.00018863
0.018012
0.000156505
0.000156453
0.000147878
0.0098838
0.0193018
0.00458744
0.000171453
0.000154502
0.000144956
0.000142209
0.000143964
0.000138798
0.00903379
0.000163872
0.0109855
0.000167063
0.0251021
0.00913929
0.0377823
0.000182067
0.000158839
0.0151282
0.000172565
0.000843824
0.0295754
0.000138269
0.000264238
0.000161015
0.0230724
0.00902016
0.000169216
0.00102925
0.00203564
0.000157984
0.000187853
0.000165535
0.0149454
0.00405589
0.000155569
0.000146311
0.00320336
0.00134488
0.000197637
0.00981231
0.00019833
0.000168727
0.000143846
0.0389285
0.0335723
0.000192492
0.000165096
0.0302199
0.0284453
0.000141147
0.000144402
0.000156061
0.034269
0.0324531
0.000143644
0.0204592
0.000149933
0.000142727
0.000147725
0.0149587
0.000118622
0.000210836
0.0105007
0.000153202
0.000152535
0.000141278
0.0107423
0.000151869
0.0159576
0.000154507
0.0135106
0.000148747
0.000142462
0.000196719
0.00863818
0.00301501
0.000170115
0.0166479
0.000136071
0.00014619
0.000144543
0.000176975
0.000185034
0.000184944
0.000173168
0.0286283
0.000156277
0.00019811
0.000255699
0.0388391
0.000146006
0.0251594
0.0306837
0.000157084
0.00327552
0.000185209
0.0212585
0.000147338
0.000186531
0.000143656
0.000495161
0.0146113
0.000199057
0.03634
0.000154793
0.000178196
0.000151771
0.0213782
0.000134598
0.000139582
0.00509762
0.000196096
0.0205916
0.00511101
0.000184713
0.000163001
0.000137752
0.00244769
0.000165841
0.000142639
0.000203828
0.000140114
0.00017546
0.00014497
0.0179055
0.000154615
0.00316925
0.00405851
0.000166104
0.000202809
0.000181789
0.041964
0.000145412
0.0197456
0.0264868
0.000139359
0.000144263
0.000153152
0.000148903
0.00017349
0.000143748
0.00594558
0.00018816
0.00383411
0.000249112
0.000147053
0.000149314
0.000138131
0.013832
0.000146445
0.000144659
0.00012948
0.000155115
0.00791926
0.0352903
0.000191814
0.000155049
0.000168479
0.000152391
0.000149903
0.000183681
0.000136252
0.000155441
0.0101519
0.0394354
0.000688107
0.000152253
0.0126112
0.00950539
0.000148964
0.00330564
0.029742
0.000143722
0.000154423
0.00014319
0.0152699
0.0168835
0.00596378
0.000136149
0.000155744
0.000151633
0.000146443
0.000197514
0.000147389
0.00025761
0.00706516
0.0353649
0.000138215
0.000155232
0.000154122
0.0151703
0.000132403
0.0167122
0.0109047
0.000223342
0.00450406
0.0182645
0.0225456
0.0001508
0.00680043
0.00742853
0.000151132
0.000137537
0.000140325
0.0357133
0.0107821
0.0139237
0.000146597
0.0381639
0.000147215
0.000204539
0.000138955
0.00015407
0.000150978
0.00013809
0.0171226
0.000151282
0.0295281
0.0286231
0.0164241
0.00017866
0.000179801
0.0165395
0.0342678
0.000149183
0.00662174
0.000138112
0.000131698
0.000143479
0.000194726
0.000140576
0.0158111
0.000163901
0.000703743
0.00017374
0.011008
0.0165626
0.000203554
0.000137864
0.000180484
0.000191204
0.0165547
0.000146094
0.000134535
0.000157499
0.02615
0.000147451
0.0046222
0.0150309
0.00017421
0.000185071
0.000146255
0.00167424
0.000148697
0.0381331
0.000135571
0.00893741
0.000165458
0.000146009
0.0155035
0.015743
0.000135303
0.000185249
0.000156986
0.0130598
0.000193773
0.000250347
0.0005898
0.000148876
0.000179975
0.02691
0.000142236
0.000188583
0.000151272
0.000188421
0.000166837
0.0117404
0.0235137
0.000146314
0.0253064
0.000151447
0.000176315
0.0301656
0.0146981
0.000171388
0.0260508
9.85615e-05
0.000146432
0.00456767
0.000200542
0.000165198
0.000151149
0.0254774
0.000135601
0.0160349
0.000363109
0.00019934
0.000143437
0.000167641
0.0249422
0.000176648
0.0240857
0.000150076
0.000155273
0.000223867
0.0260089
0.000158884
0.0353702
0.00685419
0.0163136
0.00014784
0.0244673
0.00617036
0.0176289
0.000143978
0.000148264
0.000145488
0.0365283
0.000170647
0.00196318
0.00155939
0.000149111
0.00013765
0.000143798
0.01667
0.00674737
0.0255917
0.0167427
0.000141067
0.0243833
0.0317702
0.000199624
0.0114582
0.0262239
0.000171536
0.0136725
0.000154026
0.00015832
0.0128663
0.018205
0.000147234
0.0337735
0.00014854
0.000144517
0.0322681
0.0235474
0.0316753
0.0135432
0.000166034
0.000149054
0.000159309
0.0302281
0.0152637
0.000142517
0.000176985
0.00275065
0.00014466
0.000146741
0.0262625
0.0248102
0.0001536
0.000144248
0.000150843
0.000152233
0.00645247
0.00014886
0.000143952
0.000159185
0.000363293
0.0206534
0.00186413
0.0240222
0.00014654
0.00015763
0.0291945
0.0331448
0.00016333
0.00024717
0.000143308
0.000170351
0.00015187
0.000150095
0.000187799
0.000143616
0.00176648
0.000168064
0.000141409
0.000156933
0.00963679
0.0277705
0.0218639
0.000144816
0.000170159
0.033869
0.00148696
0.000155592
0.000145656
0.000144616
0.00345931
0.000146949
0.000149709
0.000162172
0.000144125
0.0295096
0.000225211
0.000148805
0.000156224
0.000135506
0.000147334
0.0274505
0.00710341
0.000186621
0.0124858
0.000218183
0.000149402
0.000143169
0.000146069
0.000145167
0.000148575
0.000164656
0.000187444
0.0301393
0.00015022
0.000194881
0.021914
0.00040951
0.000144103
0.000139699
0.000154207
0.0268178
0.000144671
0.000419861
3.95609e-05
0.000194876
0.000147384
0.0140819
0.000136014
0.000159334
0.000137593
0.000136253
0.000147708
0.000141529
0.000190075
0.016214
0.000180475
0.000172978
0.0286917
0.00384208
0.012306
0.000166323
0.023768
0.0122761
0.000195143
0.0219901
0.0270497
0.000196367
0.00199598
0.000148981
0.000140623
0.0266698
0.00014199
0.000156402
0.0348488
0.000239354
0.0325267
0.000276733
0.000140223
0.000160118
0.000146396
0.000203075
0.000138741
0.000367297
0.0221935
0.0284461
0.014731
0.000146523
0.00013604
0.000187088
0.0351709
0.029788
0.000200612
0.000704136
0.000140375
0.00182646
0.0276046
0.00023582
0.000155834
0.00014689
0.000135723
0.000154126
0.000146623
0.000145644
0.000155911
0.0283878
0.000188238
0.0259165
0.00508887
0.00129644
0.000208979
0.000143098
0.000143438
0.000147148
0.000138957
0.000148764
0.00603149
0.0163136
0.00915578
0.0383573
0.000154007
0.0171193
0.000201186
0.0354173
0.0305166
0.000146952
0.000141407
0.00355476
0.000146635
0.000135464
0.00546869
0.0296424
0.00384878
0.000144946
0.000146538
0.000154887
0.000172379
0.00831256
0.000138307
0.000155291
0.000216607
0.000140383
0.00371047
0.000172014
0.0374812
0.000148944
5.49228e-05
0.0340993
0.000169982
0.0294314
0.00019517
0.026925
0.000135759
0.000158263
0.000140701
0.000164715
0.0156264
0.000147556
0.0118487
0.000146561
0.000146921
0.000144258
0.0383409
0.000176073
0.000194938
0.00683032
0.000139425
0.000175455
0.0137151
0.000181135
0.000140851
0.000151547
0.000146762
0.000184489
0.000145338
0.00014209
0.0406632
0.0350962
0.0368963
0.000716102
0.000491214
0.0171151
0.000186749
0.0394839
0.000198839
0.000135159
0.000144431
0.00013147
0.000148039
0.0310398
0.031512
0.000138208
0.0100771
0.0401623
0.000163324
0.000149903
0.0001699
0.0244449
0.0254528
0.0286365
0.018355
0.0298876
0.000131543
0.000147759
0.000194094
0.004653
0.0142348
0.000143735
0.000200262
0.0157683
0.000167702
0.0313542
0.000149038
0.000434257
0.0166482
0.0346824
0.000187991
0.000166268
0.0160334
0.00020111
0.0352525
0.0375968
0.0293756
0.000196062
0.0201331
0.000146795
0.00015749
0.000177732
0.0217289
0.00386544
0.0268212
0.00015231
0.000199507
0.000185772
0.000153165
0.0277735
0.000143744
0.000199156
0.0203271
0.000143709
0.0399926
0.0246209
0.0376508
0.0235902
0.00124113
0.00509017
0.000143631
0.0317975
0.000146208
0.000141796
0.00017447
0.000155455
0.031065
0.000155795
0.000170771
0.000156098
0.000141469
0.0137765
0.000153342
0.000196699
0.00432206
0.000138171
0.0270131
0.000193858
0.000150242
0.0117327
0.000127214
0.000143425
0.000265598
0.000150299
0.0397434
0.0065435
0.000138384
0.000198482
0.0001535
0.0334038
0.0300507
0.000187127
0.0176669
0.000157648
0.00014471
0.0354263
0.00015551
0.000145512
0.0040834
0.000173187
0.000140263
0.000141252
0.000200007
0.000152993
0.0202021
0.000151101
0.000203758
0.0204295
0.000180138
0.000186089
0.000144046
0.0342211
0.0166765
0.0206873
0.000144073
0.000137436
0.00018741
0.000165525
0.00516331
0.000145714
0.00234775
0.000144909
0.000358019
0.000149986
0.000497435
0.00021667
0.000196745
0.0272755
0.0196975
0.0295096
0.0287869
0.000131745
0.000574606
0.000656265
0.0201896
0.000143915
0.000197882
0.0162837
0.0151681
0.000197629
0.000546096
0.00431866
0.0359263
0.000176423
0.00013427
0.000137976
0.000177862
0.000174658
0.00014345
0.000186534
0.020445
0.00038124
0.0158016
0.00133819
0.000142395
0.00014052
0.000167492
0.000143565
0.0124348
0.000138571
0.000140484
0.038975
0.0002045
0.000171089
0.00019378
0.000153912
0.00019472
0.0124549
0.0308127
0.0133608
0.000158125
0.0304951
0.000152536
0.000138656
0.000153638
0.024894
0.000163098
0.000147257
0.000208071
0.000151225
0.000141224
0.000143604
0.000149023
0.000160019
0.0246177
0.000970133
0.000163394
0.0283723
0.0198593
0.00784545
0.0153964
0.000144796
0.000164522
0.00068456
0.000144344
0.000219681
0.000160716
0.000155691
0.0210867
0.0309581
0.000138591
0.000172612
0.000164547
0.000188957
0.0170845
0.0412834
0.0361565
0.000147496
0.000190185
0.0376263
0.000189717
0.00019818
0.00577374
0.0246303
0.0338544
0.0403627
0.000138124
0.0187483
0.00013807
0.000152907
0.000144209
0.00018497
0.0344578
0.0142482
0.00232829
0.0142698
0.000183459
0.000134949
0.000139585
0.000146661
0.00015886
0.000176002
0.0377444
0.0408672
0.000188573
0.00596031
0.000148104
0.000183477
0.000138583
0.0369244
0.000195481
0.000147074
0.000207812
0.000193614
0.0385185
0.0252564
0.000200823
0.00716857
0.000157554
0.0205954
0.000151162
0.0138482
0.00323193
0.000152216
0.000183439
0.000146016
0.0275404
0.0119798
0.000174255
0.0252693
0.000138734
0.0314621
0.000187606
0.00023691
0.000178815
0.000140203
0.000199143
0.000183171
0.000156129
0.000183384
0.000165996
0.000167701
0.0138868
0.000203923
0.000154109
0.000165316
0.000170933
0.000167314
0.000150541
0.0420847
0.000195674
0.00112747
0.0113022
0.00014478
0.0297649
0.000144431
0.000155726
0.00015487
0.0296247
0.000171541
0.0362439
0.0161688
0.000185124
0.000191589
0.000197504
0.0260172
0.000201412
0.016598
0.000167627
0.00017655
0.000142184
0.0321838
0.00183465
0.000166686
0.000148101
0.000171243
0.000159157
0.000156788
0.000178396
0.00017271
0.00014749
0.000169336
0.0158365
0.028349
0.000223888
0.000174328
0.000133106
0.0267944
0.000166964
0.000184724
0.00130651
0.000174945
0.0373201
0.000135764
0.000167197
0.000155407
0.000168896
0.000143352
0.0306946
0.00301125
0.0102378
0.00017206
0.029154
0.00019509
0.000158711
0.0261147
0.000185223
0.000209882
0.0129096
0.000184163
0.000155883
0.000173319
0.000187593
0.00015645
0.000244271
0.0257423
0.00420768
0.000140248
0.000180113
0.000183472
0.0255925
0.000143121
0.000176394
0.00014373
0.000165624
0.0145664
0.000164258
0.000163752
0.000140404
0.000140158
0.0149453
0.0247321
0.000146085
0.0326328
0.000214962
0.000135109
0.000160703
0.0321804
0.000197033
0.000193605
0.00014426
0.000161194
0.000205053
0.000149074
0.000142751
0.0290106
0.000164098
0.0307187
0.000190152
0.000159604
0.0328009
0.000201997
0.000205317
0.000140682
0.00467696
0.000164224
0.000160346
0.0271363
0.000173724
0.000147572
0.000194234
0.000156761
0.000158662
0.000135858
0.000739272
0.000144565
0.00019078
0.00681161
0.000194302
0.000141679
0.000149113
0.000165323
0.0134201
0.00020898
0.0253198
0.000198462
0.0335011
0.000138778
0.000188132
0.000158311
0.000142095
0.00518038
0.0155342
0.000157267
0.000865084
0.000157864
0.000187221
0.0255388
0.000159198
0.00561451
0.0115087
0.0169338
0.0263776
0.000498
0.000274394
0.000140034
0.000191126
0.000170673
0.00738295
0.0350842
0.0366703
0.0419994
0.0381486
0.000139958
0.000214154
0.000143975
0.000151349
0.000147165
0.00140259
0.000217946
0.000194953
0.000142231
0.00967374
0.000161445
0.0220167
0.000141837
0.000184833
0.000164767
0.00018649
0.000175914
0.000193679
0.000152867
0.000194882
0.000217245
0.000140934
0.0224842
0.00018523
0.000196918
0.000155404