/*--------------------------------*- C++ -*----------------------------------*\
| =========                 |                                                 |
| \\      /  F ield         | OpenFOAM: The Open Source CFD Toolbox           |
|  \\    /   O peration     | Version:  v2012                                 |
|   \\  /    A nd           | Website:  www.openfoam.com                      |
|    \\/     M anipulation  |                                                 |
\*---------------------------------------------------------------------------*/
FoamFile
{
    version     2.0;
    format      ascii;
    class       surfaceScalarField;
    location    "800";
    object      meshPhiCN_0;
}
// * * * * * * * * * * * * * * * * * * * * * * * * * * * * * * * * * * * * * //

dimensions      [0 3 -1 0 0 0 0];
oriented        oriented;


internalField   nonuniform List<scalar> 
20537
(
-0.00222659
-0.000103467
0.00234505
0.00281716
-0.00207928
-0.000737423
-0.000284412
-0.00109374
0.00137882
-0.00368689
0.00200885
0.00169399
0.000824597
0.000525381
-0.00134952
0.00196152
0.000689621
-0.00264559
-0.00265371
0.00212874
0.00055839
0.000818456
-0.00167038
0.00085323
-0.00108161
0.00141694
-0.00029639
0.00191482
-0.00085119
-0.00106256
-0.00026447
0.000719836
-0.000453301
-0.00129425
-7.13268e-05
0.00136565
0.000629457
-0.000804028
0.00017462
0.000333729
0.000498076
-0.000831809
-0.00020348
-0.000549623
0.00089967
-0.00113885
-0.000789941
0.00193218
0.00255263
-0.000750896
-0.00179482
-0.000316296
-0.00174689
0.00206977
0.000525482
0.000437517
-0.000962885
-0.00137235
0.000331398
-0.00166647
-0.00199687
-0.00160801
0.00132433
-4.83479e-05
9.8868e-06
5.39113e-05
0.000116644
-0.00012363
7.21399e-05
-6.64068e-06
-2.61983e-05
-0.000854693
0.00167464
0.00197627
-0.00158443
-0.00038689
-0.000324187
-0.000164734
-0.00297812
0.000764484
-0.00288212
0.000431258
0.00246144
-0.000635554
0.00260241
0.00135826
0.00120037
-0.00171946
0.000626479
-0.000910608
-0.000559842
0.00147291
-8.46432e-05
0.000268956
-0.00058944
-0.000138847
0.000728351
0.000816751
-0.000401733
-0.000414988
0.000606356
0.000538122
-0.00114428
0.00139825
0.000517317
-0.00198743
0.00107946
-0.00283903
0.00159258
0.00128248
9.56726e-05
3.15367e-05
-0.000121666
0.000417891
-0.000139634
-0.000278257
0.000502539
0.000187918
-0.000689466
-0.000163029
0.000666361
0.000665054
-0.000377533
-0.000287521
0.000192016
-0.000674317
0.00048231
-0.00244635
0.000710187
0.00173747
0.00151721
0.000463599
0.00182316
-0.00157337
-0.000239743
-0.000691104
0.00122638
-0.000534899
0.000526616
-0.00105106
0.000524579
0.000164072
-0.000395666
0.000231594
9.30802e-05
-0.000397681
0.000444205
-9.60454e-05
-0.000271173
0.000497852
-2.79354e-05
0.000128637
-3.99386e-05
0.000190299
-0.000115139
-0.000225041
-0.000288921
0.000513962
-0.00235628
-0.000512436
0.00218951
-0.00268297
0.000523813
0.00117158
-0.00056499
-0.000639498
-0.000158747
0.000798274
0.000951488
0.0016355
-0.00258182
-0.000495666
-0.000640351
0.0011363
0.00225273
-0.000445852
-0.00180488
0.000726451
-0.00255429
0.00184015
0.000448625
0.000368148
0.000118938
-0.000686797
0.000822602
0.000812314
-0.00163325
-0.00214641
0.00183748
-0.00038196
7.54254e-06
0.000374418
0.000289981
0.00035861
-0.000648576
0.00173335
0.0010837
0.000639977
-0.00038395
-0.000715734
0.000136711
0.000695944
0.000475968
0.0008725
-0.00132278
-0.000422065
-0.00118546
0.000352856
-0.000504354
0.000151498
-0.00153729
0.000895121
0.000643116
-8.08168e-05
0.000410842
0.00268135
-0.00080537
-0.00185296
3.9016e-05
-5.73402e-05
1.82276e-05
-0.00177358
0.00248645
-0.00064455
0.000367831
-0.000655293
0.000287463
-0.00145187
0.00240853
0.000104473
-0.00139876
-0.000717145
0.00256147
-0.00183727
0.00174472
-0.00134655
-0.000397582
-0.00175789
-0.000162267
0.00192568
0.00106268
-0.000820968
-0.000225027
-0.000891189
0.000301809
-0.00316162
0.00182271
0.00135038
-0.000465455
-0.00194701
0.00101984
0.000930048
-0.0026692
0.000917387
-9.14966e-05
-1.4801e-05
0.00014207
0.00119944
-0.000374441
-0.000747273
0.000609554
0.000137733
0.00145128
0.000379216
-7.64745e-05
2.69458e-05
-0.000635033
0.00066456
-2.95359e-05
0.000861723
0.000542758
-0.00140378
-0.00288302
0.00123818
0.00166744
-0.001299
0.00181244
-8.01982e-06
1.23843e-05
-1.39867e-06
0.000722478
0.00173809
-0.0024524
-0.000675601
-0.000550322
0.00122648
5.42975e-05
1.34073e-05
-6.38788e-05
-0.000354282
0.000582014
0.0025769
-0.00188172
8.45372e-05
-7.98722e-05
4.01895e-05
0.000788469
0.000291331
-0.0017468
-0.00140132
3.20728e-05
3.02236e-05
0.000190899
-5.83334e-05
0.0010661
-0.00229457
-0.000452029
-0.000295222
-9.27443e-05
6.52124e-05
3.28782e-05
0.000163519
0.000100456
-0.000170972
0.000415851
-8.74134e-05
-0.00021744
0.000412209
5.68216e-06
0.000993369
-0.00228649
-0.000236955
0.000866461
-0.00244256
-0.000746819
-0.0016974
0.000100241
-0.000462902
0.00037011
-0.00249289
0.00174793
-0.00115699
1.18468e-05
0.00114587
-0.00326488
0.00161907
0.000434524
-0.000984409
0.000550078
-0.00116894
-0.00162383
-0.00036381
0.00122923
-0.000803409
5.14288e-06
-0.000387103
0.000489108
-0.00219012
-0.00126291
0.000292249
0.000202725
-0.000420384
-3.80355e-05
-4.77965e-05
0.000334372
0.000334088
-0.000668444
-0.00106296
0.000659639
0.000403333
-0.000595523
0.00114853
-0.000553072
-9.55421e-05
-0.000539495
0.000385633
-0.000339638
-0.00204481
0.000883134
0.00117893
-2.3496e-05
-0.000217432
0.00024735
-0.00113204
0.00216435
-0.00102236
0.000683872
-0.000494873
4.77523e-05
-2.07843e-06
-4.41417e-05
0.00114217
-0.00070739
-0.00204826
-0.000562819
-0.000631885
0.000469601
-0.00110569
0.00051233
-0.000304067
-3.55596e-05
0.000457465
-0.000406034
0.000739757
-0.000129254
0.000120081
3.05691e-05
0.00158349
-0.00160606
0.00132439
-0.00244527
0.000324583
-0.00191672
0.00162878
0.00203481
-0.00249627
0.000472694
0.000834753
-0.000308006
-0.00122855
0.000537853
3.10506e-05
-3.06169e-05
3.3194e-07
-0.00173722
0.000945167
0.000794311
0.000217133
-0.000442175
-0.00101231
0.000704882
0.00207389
0.000686489
-0.00275273
-2.72024e-05
0.000228866
-0.0001945
9.44928e-06
3.93439e-05
0.0015469
-0.000722721
-0.00181335
-0.00143174
-0.00039972
0.000637401
-0.000237673
0.0003927
-3.98435e-05
-0.00058874
0.000132133
0.00049141
0.00194448
-0.00158383
-0.00116412
0.000568544
-0.0002915
-0.000661938
0.00241571
-0.00170357
0.00042277
-0.00157881
-0.0010656
-0.000539388
0.00161943
0.00102545
-0.000499874
-5.50019e-05
-1.52651e-05
7.33715e-05
0.000796378
-0.00219472
0.00140321
0.000624367
0.00224104
-0.00154276
-0.000628964
0.00119819
0.000126553
9.9474e-06
-8.80844e-06
-2.3635e-07
-6.43699e-05
-3.58292e-06
9.21446e-05
0.00254897
-0.00181128
0.000450133
8.19391e-05
-0.000581619
-0.000616707
0.00119869
-0.00138984
0.00188304
-0.000492062
-0.000494684
0.000414501
-0.00025043
-0.000968616
0.000162016
0.000819533
0.000879522
0.000649832
-0.00152781
0.000392047
-0.00103151
4.19421e-05
0.00178702
-0.00181927
-0.00064262
-0.00138479
0.00178586
-0.000584444
-0.00119903
0.00092373
-0.00197025
-0.000892889
0.00139473
0.000484167
-0.000376189
0.000800368
-0.000391022
-0.000409338
-5.73643e-05
0.00020749
-4.6546e-05
0.000932546
-0.00208513
0.00121469
0.00181586
-0.000851642
-0.000962886
0.000515077
0.00179287
-0.00124377
0.000843416
0.000400424
0.00227452
-0.00211117
-0.000157611
-0.000290941
0.000523161
-0.000232219
-4.85775e-05
3.65194e-05
1.38593e-05
-0.000615838
0.000459297
0.000156548
-0.00204122
-0.000817866
0.000640343
-0.00185164
0.00121198
3.85398e-05
1.13355e-05
-4.70071e-05
5.63666e-05
0.00018507
-0.000234796
-0.000189615
0.000614029
-0.000421473
0.00277907
-0.000966851
-0.00180579
0.000302525
0.000362531
0.00145532
-0.000856409
-0.000494457
0.000195685
-0.000486626
0.000626336
0.0016529
0.00225737
0.000444056
-0.000644192
0.000368284
0.000275918
-0.0010441
0.000382196
0.000662063
-0.000614136
0.000356787
0.000257352
3.75443e-05
2.31683e-05
-3.80935e-05
-0.00193918
0.00131045
0.00063139
2.17971e-06
-6.47842e-06
0.000293892
-0.000414298
0.000120406
-1.59611e-06
4.17853e-05
0.000980254
-0.00183332
-0.000712755
-0.0013184
0.00203282
-0.000463777
-9.13398e-05
-0.00016691
0.000456
0.000727447
-0.00118304
0.00242817
-0.0018391
-0.000584976
-0.000963897
-0.000279835
0.00182123
0.000432657
-0.000242429
0.000225957
-0.00089764
0.00188589
-0.00257175
0.00194059
0.00166134
-9.17233e-05
-0.00156589
2.71392e-05
-4.06451e-05
1.38832e-05
0.000798149
0.00101862
1.29373e-05
2.90132e-06
-0.000331542
0.000474374
-0.00014283
-0.00035687
0.0012192
-0.000546996
-0.00115309
0.00170126
0.00083315
0.001483
-0.0023056
0.00220199
-0.00187912
-0.000316652
0.000456259
0.001453
-0.00189821
0.000237148
0.00142515
-0.00207109
0.00222627
-0.000139308
0.00216738
-0.00162433
0.000949809
0.000675151
-0.00049528
0.00239342
-0.00189507
0.000717321
-0.00210563
0.000598415
-0.000264313
-0.000527845
0.000196349
0.000331497
0.00210279
-0.00149837
-0.000522395
-0.000179709
0.000345578
0.00204357
-0.00238201
0.00152065
-0.00251208
0.000993409
0.000194095
-0.000517681
0.000333262
-0.000356328
-0.000534866
0.000891281
0.00158087
-0.00153052
-1.1764e-05
-0.0020415
-8.93973e-05
-0.00185486
-0.000277424
-0.000366755
0.000765817
-0.000878637
0.000119576
0.00188931
-0.00142197
0.00182664
0.00116975
-0.00245313
0.00128744
-0.000788971
-0.000747297
0.00107187
-0.00220693
0.000512979
0.000772879
-4.3089e-06
4.33721e-05
-0.000149975
0.000512905
-0.000359232
-0.000630217
0.000392912
0.000237308
-0.000571739
0.000309099
2.90385e-05
-2.47848e-06
-3.31613e-05
1.58406e-05
1.96969e-05
-6.87796e-06
-3.95027e-07
9.43971e-06
-0.000708208
-0.000915456
0.00242633
-0.000904355
-0.000617541
-0.00191159
0.00252996
-0.00166129
0.000934901
0.00076239
-0.00112737
-0.000173053
0.00140712
0.00243671
-0.00126219
-7.227e-06
1.80792e-05
-1.16074e-05
0.000588445
0.000553901
-0.00248381
0.000137582
0.0021387
7.73477e-05
-0.000835755
-0.000657734
0.00149487
2.54241e-05
-3.30657e-05
-0.000958112
0.000601876
0.00237137
-0.00213262
-0.000234883
0.00154555
-0.00144113
0.000755555
0.000438609
-0.00114184
0.000162522
-0.000494061
-0.0015926
-0.000142284
-0.00238104
0.00163642
-0.000614813
0.000447635
0.000167182
-0.00297954
0.000951491
0.00205507
-0.0017926
0.00252313
0.000161958
0.000476491
-0.000638444
-0.000651841
-0.000969309
-0.0015488
0.000959545
0.000590085
-0.000977387
0.00200068
-0.00211924
-0.000353216
-0.000687311
-0.000375623
0.0012158
0.00115968
-0.00139885
-0.000657173
0.00207311
-0.000477333
-0.000115482
0.000592829
-4.65932e-05
0.00016763
-0.000114895
0.00212696
7.98702e-05
-5.34527e-05
0.000524909
-0.00046473
-0.00027213
-0.000358082
-0.000407956
0.000882862
-0.000474802
0.000592203
0.000960095
-0.00048649
0.00125633
-0.000769196
-0.00171403
0.000468019
0.00135001
-0.000118541
-0.000409304
-0.00253855
0.00154641
0.00100488
-4.52419e-05
-8.54537e-06
7.24656e-05
-3.58193e-05
0.00156342
-0.00149806
0.000533937
-0.000941772
-0.000938507
-0.000997829
-0.00108898
0.00200589
-0.000908684
-0.00122137
-0.000659849
-0.0022904
0.00109976
-0.00247876
0.000525367
0.000196292
-0.000395765
-0.000412855
0.000394463
-0.000734195
0.000339745
-0.00261221
0.00097083
0.0016478
-0.000362589
-0.000252218
-0.00105733
0.000472675
0.00058473
0.000569333
0.00149646
-0.000615451
-0.000454427
0.00104306
0.000256253
0.00162424
-0.00187078
0.00253709
-0.00108114
-0.00145254
0.000953063
-0.000344045
-0.000608877
-0.000520493
0.00229427
-0.000384455
-0.00189733
0.00171407
-0.00243997
0.000725753
-0.000554256
0.000337465
0.000216795
-0.000645323
0.000243743
0.000350381
-0.000616351
0.000270422
0.00066457
-0.000309529
0.000649292
-0.00121649
0.000567382
-0.00209682
0.00101607
0.00151195
0.0010268
0.000402175
-0.000108283
0.000344816
0.00163876
0.00240943
-0.000695231
-0.00152412
0.00151797
-0.000324499
-0.00127372
1.86337e-05
-2.79808e-06
7.29241e-05
-1.5203e-05
0.00186621
-0.000549613
-0.00127002
-0.000350123
-0.000204128
-0.000141425
0.00117906
-0.00103569
0.00182374
0.000384422
-0.00216948
-0.000748128
-0.000799619
1.77012e-05
0.000153146
-0.000164812
0.000146913
0.00139864
0.000285703
0.0016461
-0.00192922
-0.00265093
0.000259693
0.000324496
-0.000724205
0.00221008
-0.00034954
0.000783464
0.00199883
0.0020915
-0.00135225
-0.000735895
-0.00193783
-0.000712447
-0.00272083
0.00111659
0.00165425
7.24351e-05
-1.75264e-06
0.0026617
-0.0020373
-0.000613985
-0.000160216
0.000505129
-0.000344917
-0.00013695
-0.001186
0.00049871
0.00209022
0.000319863
0.000633317
0.000256314
0.000381093
-0.000320544
0.00063977
-0.000316038
-0.000663246
0.000345929
-0.00240965
0.0014299
0.000992485
-0.000430973
0.00104141
-0.000558472
0.000280587
0.00018731
-0.000319625
-0.00085183
-0.00175295
-0.00113215
0.000646163
-0.000362391
0.000860453
-0.000424186
-0.000971096
0.00139676
-0.000298242
-0.000315889
0.000345057
-0.000610423
0.000265371
0.000143104
-0.000120877
0.00179817
0.000373626
0.000718969
-0.000404751
5.24903e-05
0.000352261
-0.00198817
0.00127699
0.000326469
-0.000778478
0.000671779
0.00199944
0.000928488
0.00116598
8.04323e-05
1.86809e-05
-6.63781e-05
-0.000549089
-0.000508123
-0.000619667
-0.000235901
0.000888178
-0.001756
0.000968654
-0.000876574
-0.0015228
0.000703519
0.00167582
-0.00234291
-5.33375e-06
-0.00153512
0.000920116
-0.00015989
0.000137968
0.000546974
-0.00104239
0.00183069
-0.00240095
0.000574273
0.000491165
-0.000518301
2.71374e-05
0.00180716
-0.00270823
0.00090929
0.000581255
-0.00175706
0.00249164
-0.00072271
0.00150046
-0.00126255
0.000691894
-0.00224024
0.00155431
-0.000595397
0.00124492
-0.000748636
-0.00162567
-0.000561117
0.000374379
-8.16852e-05
5.02962e-05
-0.000543527
-0.00095319
-5.21394e-05
1.23039e-05
-0.000582343
-0.00056078
0.00114332
-0.00158204
0.000527595
0.00105474
0.000604934
0.000618018
-0.00122275
-0.00245481
0.000705853
0.000372625
0.00115432
-0.00171205
-0.00250262
-0.00026503
0.0010786
-0.000622289
-0.00104977
-0.0016211
-8.12244e-06
0.00151189
-3.13021e-06
-1.31703e-05
2.21349e-05
0.000607791
-0.00140092
0.000793337
0.00168388
-0.000254595
-0.00142605
0.00163947
-0.000904744
-0.000733899
0.000290738
-0.000474213
0.000183476
-0.000938285
0.00187951
0.000131392
-0.000451857
0.000323712
0.000337885
0.00134752
-0.000546251
-0.00018256
1.0241e-05
1.30087e-06
-0.000961468
-0.000809222
0.00177321
0.00131871
-4.47501e-05
0.000815748
-0.000551778
-0.000143847
0.000729365
0.000828852
-0.00233934
0.0015295
-0.000574913
-0.00116502
0.000114091
-0.00272626
0.00113038
0.00160166
-0.00059283
-0.000823572
0.00141631
-2.88093e-05
8.98516e-05
-0.000209179
0.00180282
-0.000221451
-0.000257831
0.000479282
0.00249999
-0.000419863
-2.05139e-05
-1.14888e-05
0.000783074
0.000962027
0.000529948
-0.000910623
0.00191833
0.00100895
-0.000683958
-0.000286724
-0.00245325
0.00205554
0.000401593
0.00245745
-0.00189393
-0.000548964
-3.04797e-05
0.000903508
-0.00182371
-0.000778899
0.000301584
0.00137724
0.00116607
-0.000793335
-0.000696033
0.00149067
0.000612024
-0.000246282
0.00243308
-0.000164476
-0.00225948
0.000142988
-0.000513485
0.000373305
3.79974e-05
2.47697e-05
-0.000536874
0.0021946
-0.00162554
-2.97553e-05
0.000114297
-2.68614e-05
0.00256042
-0.000787139
-0.0017701
0.00211644
-0.00243461
0.000337577
0.00185411
0.000712905
-0.00213628
0.000663652
0.000115326
-3.54861e-06
-0.000785857
0.000442109
0.000343745
0.000430809
-0.00014007
-0.00223973
0.00168376
0.000612873
-0.000109493
0.00255061
-0.00134503
0.00204252
-0.00160372
0.0015154
-0.000257059
0.00062489
0.00130291
-0.0014868
-0.00102746
0.000887898
0.00270224
-0.00153619
0.000625398
-0.00125602
0.00063105
-0.00168611
0.00244716
-0.000729069
0.000169965
-0.000422543
0.000252578
6.57453e-05
-2.2515e-05
-3.72359e-05
-0.000389271
-6.39429e-06
0.00105197
0.00086182
-0.00191233
0.000137093
-0.000100129
0.0024306
-0.00253201
0.000212031
-0.000672765
0.000460742
-0.000590496
0.0015721
-0.000618184
-0.000208704
0.000827245
-0.000106112
0.000358879
0.00152664
0.000822565
-0.00234678
0.000146076
-0.000279503
0.00087201
-0.000274192
-0.000545477
0.000419825
-0.00122991
0.000863592
0.000609377
0.00174622
-0.002317
-0.000192368
-0.000212383
0.000638775
0.000587417
-0.00122576
-0.0004294
0.000919638
-0.000490121
-0.00034422
-0.00039033
0.000734599
-0.00241252
2.76181e-05
4.42727e-06
0.000665687
-0.000887989
0.000222367
-0.000517108
-0.00106338
0.00203021
-0.00122939
0.00170056
-0.000752805
-0.00048422
-0.00111421
-0.00166098
-0.000780725
-0.0002459
-0.00036993
0.000336394
-0.000305372
0.000119625
-0.000297477
0.000467442
-0.00063459
0.00047678
0.000323594
0.00190706
0.00193131
0.000503395
-0.000627464
-0.00174335
-0.000340888
0.000475622
0.0021147
-0.00260644
0.00128896
0.000497518
0.000611821
-0.00127688
0.000665211
-0.000463644
0.00250969
-0.000727144
0.00133912
0.000516528
-0.000771856
0.000255345
2.82822e-05
4.38035e-05
-0.000487223
-0.000589354
0.000448768
-0.000182933
-0.000265835
-0.000707367
0.00220007
0.00164468
-0.00184438
0.000276942
-0.00133879
-0.000537389
0.00167291
-0.00200155
0.000370197
-0.00118247
0.000601211
0.00182983
-0.00242811
0.000601912
-0.0021319
0.000785897
0.000824168
-0.00141709
-0.000317437
-7.94938e-05
0.000454421
-0.000504686
0.000283235
0.000509372
-0.000246218
-0.000263153
-0.000675364
-0.0017703
0.00245185
-0.00168915
0.00117337
0.000754953
1.07763e-05
7.35952e-06
-1.75237e-05
0.000910709
3.77497e-05
-5.40227e-05
1.63373e-05
-0.000168072
0.000833809
-0.000396947
0.00198621
-0.000670816
-0.00034106
0.00101204
-0.000723232
1.96017e-05
0.000703684
-0.000108972
8.59226e-05
-0.00188287
-0.000582855
0.00247426
0.0024428
-0.000725657
-0.00171437
-0.000403155
-0.000813024
0.000456925
0.000591677
-0.00104839
-0.000369095
0.000176727
-0.000675185
0.000362331
0.000312868
0.00157876
0.00239114
-0.00165112
-0.000942198
-0.00091698
0.00185926
0.00050702
0.000481652
-0.000921892
0.000440333
-0.0012818
0.000858818
-0.000848306
0.00248847
2.18713e-05
0.00164592
-0.00181727
0.000239893
-0.000668916
-2.10866e-05
-8.33425e-05
0.00153989
-0.00223732
-5.71302e-05
4.48613e-05
0.000935661
-0.000643344
-0.000220928
-3.6734e-05
0.000553275
0.000559423
-0.00140839
-0.00103478
-8.60347e-05
6.91171e-05
-0.000635838
-0.00055015
0.00108839
-0.00167035
-0.000452065
0.00115486
-0.000652062
-0.000118293
-2.65106e-05
0.000171194
0.000489837
-0.000286425
-0.0002064
0.000369575
-0.000529795
0.0010988
-0.00164486
0.00174036
0.000737139
-0.000260355
-0.000839147
0.0023672
0.00169246
-0.000821789
-0.000868933
0.000278486
0.000170282
0.000202992
0.00032017
0.00182471
0.000480697
0.0015739
-0.000759998
1.40993e-05
-2.97519e-06
0.000437408
0.00115457
-0.00205693
0.000904882
0.000775053
-0.000383642
-0.000391385
-0.00165366
-0.000785804
-0.00107576
0.000405119
-0.00069199
0.00164419
-0.000949106
-0.00129392
0.000511142
0.000822803
0.000834837
0.00127019
-0.00210142
-0.00178982
0.000607182
0.00119873
-0.000806206
0.000188287
-0.000612879
-0.000529963
0.00114318
-0.00153155
-0.000530013
-0.00166549
0.00264222
-0.000689772
0.000173103
0.00185466
-0.000348677
-0.00150324
-0.000403758
0.00100886
-0.000805223
-0.00184385
-0.00245217
0.00144727
0.00179538
-0.00150737
-0.0025912
0.000792709
0.00182505
-0.000656692
0.000632024
-0.00121415
-0.000903181
-0.000140771
0.000717807
-0.00213363
0.00141951
0.000857548
-0.00037581
-0.0004789
-0.000775163
-0.00244033
0.000992816
0.00144992
-0.00107388
0.000617214
0.000119927
-0.00275319
0.000737752
2.60597e-05
-0.000103145
0.000120596
-0.000608672
0.000254401
-0.00210844
-7.39533e-05
0.00219228
0.000462594
-0.000206276
-0.000382835
-0.000144513
0.000527351
-0.000650685
0.000365446
0.000285241
0.00184802
-0.00106452
-0.000793658
0.000205337
-0.000250048
2.60531e-05
3.44264e-06
0.00102924
-3.82747e-05
-0.000923605
-4.77231e-05
3.07087e-05
0.000830474
0.000173448
1.91887e-06
-1.16101e-05
9.97236e-06
0.00264518
-0.000830633
-0.0017549
-0.000694012
-1.63555e-05
-6.58415e-05
0.000761598
-0.00122125
0.000459765
0.00177053
0.00101307
-0.000251384
-0.00165984
0.000490467
0.00121141
-2.82325e-05
1.1819e-05
2.01919e-05
3.03307e-05
-5.20134e-05
3.40587e-05
-0.0013529
0.000898707
-0.000954162
0.00052711
0.000427092
-0.00126333
0.000103478
0.00116031
0.00176787
2.72684e-05
-4.18918e-07
-6.30709e-05
0.000109926
0.000333225
-0.000221521
-5.24124e-05
-0.00194063
0.000450496
0.00151627
-0.000664883
-0.000187543
0.000852466
0.000679671
0.000567543
-0.00124724
-0.00171216
-0.000852061
-7.42381e-05
6.18375e-05
0.00233637
-0.00168934
0.000268515
-0.00216961
0.000852661
0.000642022
-0.00149432
-0.000193497
0.000425376
-0.000231879
0.00191007
-0.00050613
-0.000214153
0.000720299
-0.00157535
0.00240078
-0.000836671
-0.00157068
0.000519916
-0.000949184
-4.11283e-05
0.000739585
0.00113865
-0.00120991
-0.00252299
0.00174089
-0.00179436
3.58175e-05
-0.00129862
-0.000656647
-0.000561712
-0.00166144
-0.00254147
1.51851e-05
-1.24194e-05
-0.00151538
0.00138564
-0.00028868
-0.000185533
-0.00142337
0.000421703
0.00102585
-0.000390816
0.00222935
-0.00182552
0.00167971
-0.00252326
0.00028945
0.000633336
-0.000831133
0.00265753
-0.000215347
0.000501811
-0.00100772
0.000505889
-0.00122034
0.000607824
0.000433179
-0.00096795
0.000634149
8.56202e-06
-4.31602e-05
-0.000477101
-0.00113894
-0.000418202
-0.000367659
-3.25018e-05
-0.000690679
0.000598929
0.00183283
-0.000511337
0.000128505
-0.00106318
0.000355541
0.000738457
0.00029326
-6.81947e-05
-7.84794e-05
-4.69057e-05
0.00155277
-0.00239107
-0.000433077
0.000729938
-0.000296838
-0.000462274
0.00225018
-0.00178073
0.000779289
-0.00244839
0.0016896
0.000511431
-0.000365564
-0.00225768
0.00167823
0.000585479
-2.61434e-05
6.68613e-05
0.000240945
-0.000549332
0.000308388
0.00235349
4.15837e-05
0.000267846
0.000204665
-0.000472509
9.6259e-05
-0.00259206
0.000908291
-0.000431977
0.000224077
0.0002079
-0.000380247
-9.21745e-06
0.000389464
-0.000838679
-5.24441e-05
-0.00113969
-0.000632906
-0.000303649
-0.000284274
0.000587932
0.00235362
-0.000150455
-0.000408106
0.00149025
-0.000737844
-0.000752005
0.000725226
0.00091503
0.00233516
-0.00073553
-0.00159317
-0.00034816
0.000435638
-0.00154671
0.00112327
0.000413914
0.00114923
-0.00154884
-0.00076326
0.000361557
0.000162244
-9.25256e-05
4.98697e-05
0.00047609
0.00199349
-0.00114691
0.000704864
0.000506763
-0.000265818
0.000954326
-0.00203029
0.00107837
-0.000707886
0.000915356
-0.00231476
0.000362977
0.000153299
-0.000820933
0.000148572
-0.000131157
0.000317954
-0.000107116
0.00188207
-2.71088e-05
-1.5523e-05
0.00216209
-0.00143574
-0.000681927
0.000102375
-0.000415185
0.000410772
0.000460081
1.64139e-05
0.000570262
9.03226e-05
-0.000110404
2.5851e-05
0.00244791
-0.000625348
-0.00181951
0.000717674
0.00170842
-0.000223761
-0.000208215
1.3973e-05
-1.42863e-05
8.03973e-06
-0.000626759
-0.00125107
0.00189394
-0.000953083
0.00085008
0.000103226
0.00148355
-0.000630583
0.0011806
-0.000177769
-0.00100048
-0.000358882
0.000304525
0.000112435
-0.00278365
0.000334868
-0.000879759
0.000373649
0.00212294
-0.000314687
0.000667657
-0.00035296
-6.04313e-06
-0.00150774
0.000351873
0.000692836
0.000505034
0.000858951
-0.00135743
-0.000335932
0.000196298
-0.00202209
-0.00075524
-0.00213319
0.00051966
0.00161973
7.31465e-05
-5.72184e-05
-0.00134943
0.000743634
-0.00155011
0.000807148
0.00186909
-0.00010681
-0.00176036
-0.00193696
-0.000188659
-0.000820657
0.00133193
-9.77141e-05
0.000566169
0.00119887
-0.0018087
0.000928673
-0.000965122
0.000559671
0.00102751
-0.0015852
-0.00123036
0.000614034
0.000772567
-0.00179201
-0.000770216
-0.000604553
0.000831239
-3.77921e-05
-0.000793279
-0.000583522
-0.00243483
0.00198043
-0.000211704
0.000984997
-0.000773255
-0.000782056
0.000437891
-0.00197914
0.00273671
0.000406705
-0.00062337
0.000216669
-0.000713292
-0.00172474
0.000404519
0.000461698
-0.000866187
0.00104798
-0.000546204
-0.000657806
0.000406621
0.000251193
-0.00020479
0.000975984
-0.000767914
0.00111552
-0.0019373
0.00082398
-0.000756373
0.00169589
-0.00254025
-0.000566204
0.000277283
-0.000248586
0.000639569
-0.00193862
0.00132861
3.83667e-05
4.43605e-05
-5.30978e-05
0.00132667
-0.000598781
4.46282e-05
-1.02963e-07
-4.40712e-05
-0.000108664
-2.99971e-05
0.000144337
-0.000221004
-0.000202162
0.000423166
-0.000748209
-0.000284165
0.00198332
0.000392346
-0.00233108
0.000248933
0.00031238
-0.000489224
0.000176844
0.000621929
1.53772e-05
0.000210763
0.000871501
0.00112269
-0.00133601
-8.23864e-05
-0.00029786
1.27405e-05
-0.000677587
-0.000495711
-0.000426069
0.00239602
-0.00182637
-0.000555547
-0.000342407
-0.000391774
-0.00113128
0.000728397
-0.000440801
-0.000513318
-0.00128983
0.000740096
0.000724437
-0.00147159
0.00194456
-0.00241727
0.000764624
0.00205567
-0.000323056
0.00122017
-0.000524134
-0.000695547
-0.000200002
0.000252492
-0.00143358
0.00211494
-0.0016921
0.000264925
-0.000530742
0.000824731
-0.000420188
0.000256884
0.000252488
0.00176254
-0.00221099
0.000494259
-0.00079267
0.00165865
-0.000864244
0.000649668
-0.00105092
0.00199142
0.0017574
-0.00213538
-0.000134432
-0.000800265
0.000934698
9.11601e-05
0.00011168
0.000363631
-0.000492211
0.00012858
2.0527e-05
-0.00012359
7.86741e-05
-0.00103151
-0.00139552
-0.000252062
0.00169677
-0.0009745
0.0014433
-0.000468479
0.000411896
0.000883277
-0.0016741
0.000395413
-0.00157834
0.000543052
0.00103612
0.00182063
0.000238352
0.000103772
6.2659e-05
0.00115756
0.00179888
-0.000796932
0.00231128
-0.00151117
0.000702528
-0.00239265
0.0017004
0.000373922
-6.15417e-05
-0.000400284
-0.000107549
-0.000161083
-0.000864579
0.00101627
-0.00257701
0.00158565
4.4745e-05
0.000414556
0.00031964
-0.000467071
0.00024331
0.000781095
-0.000982671
-0.00265474
0.00123554
0.00233841
-0.000846874
-0.00146073
0.000468488
-0.00020064
0.0003611
-8.78752e-05
-0.00224612
-4.84284e-05
0.000479656
-0.000229938
-0.000249718
0.00120799
0.000550113
-0.00171292
-0.00239555
0.00154883
0.000855213
0.000610989
-0.000650694
0.0017422
-0.000481207
0.00108253
-0.000601281
-0.00171889
-0.000760991
0.00250883
0.000169547
5.05022e-05
-0.00195693
0.00105341
0.000903286
0.000491561
-0.000295875
-0.000499936
0.00109181
-0.000536169
-0.00159089
-0.000529155
0.00227219
-0.00172556
-0.00101138
0.000851966
0.000250463
0.000291361
-0.000541824
0.00102826
-0.000196819
-1.88756e-05
0.00011533
0.00167097
-0.000553485
0.000301464
0.000638218
-0.00088529
9.32117e-05
0.000186917
0.00071406
-4.48956e-05
-5.96511e-05
2.51673e-05
-0.00061492
-0.000694491
0.00130963
0.00150272
-0.00150744
-0.000228142
0.00225137
0.00180473
0.000843329
-0.00200816
0.000125749
0.000351687
-0.000477435
-0.000410801
0.000622839
-0.00199661
0.00103796
-0.000824733
0.000613063
-0.00166344
0.000317954
0.00104929
-0.00185595
-0.00202512
0.00120782
-0.000634819
0.000991391
0.00274318
-0.00076117
-0.00195214
0.0020908
-0.0022772
0.000185614
-0.000454775
0.000269162
0.00199426
-0.000261076
0.00130519
-0.00126885
-0.000446677
0.00225343
-0.00171401
5.56785e-05
0.000375729
-9.02626e-05
-0.000285467
0.000282106
-0.000111587
-0.00182909
0.000886996
0.00140847
0.00046212
0.000642475
-3.23892e-05
-0.000610044
-0.000519664
0.00147622
-0.00080987
0.00174362
-0.000931694
0.000359804
0.00147425
-0.00181998
0.000543256
-0.00237844
0.00100421
0.00251675
-0.000562225
-0.00195428
-0.00021058
-0.000225773
0.000436352
0.00139205
0.000260315
-0.00165096
-0.000105062
-0.000633883
-0.00209421
-0.000690196
-0.000887104
-0.000746409
0.000503807
-0.000207116
-0.000102687
0.000916177
-0.00106897
0.000152728
0.00112378
-0.00155744
0.00174063
-0.000863116
0.00050071
0.000608901
-0.000195107
-0.000405367
0.000221398
0.00080413
0.000462067
0.00122592
0.000615625
0.00113688
-0.000220295
0.00144561
4.98052e-05
-2.33399e-05
-2.55232e-05
-0.000703278
-0.00179872
-0.000436881
-0.000326347
-0.00114861
0.00174255
0.000757945
-0.000745165
-0.000270225
0.000520689
-0.00101294
0.00196531
-0.000950373
-0.000511987
-0.000495762
-0.000706473
-0.000140052
8.53323e-05
0.000572077
-4.10153e-05
-0.000382579
0.00209807
-0.000579141
0.000741955
0.000431521
-0.00117324
0.00229159
-0.00154329
-0.000732762
0.00112212
0.000245966
-0.001339
0.00239043
-0.00159232
-4.16235e-05
1.62602e-05
-0.000247469
-0.000605089
0.00128471
0.00161498
-0.000352969
0.000679453
-0.000848162
0.000331882
0.000516317
0.00023573
0.00147031
-0.00214413
0.00156146
0.000583562
-0.00158277
0.000893335
-0.00165392
0.00110404
-0.000305469
-0.000798501
0.00185719
0.000603021
-0.00245419
-0.000692501
-0.000950615
0.00164494
-0.000523594
0.000763261
-0.000481765
-0.000191997
0.00101238
-0.0016602
-0.000222104
0.000532863
-0.000310759
0.000459789
-0.000503145
8.04063e-05
-0.000816295
0.000579387
-0.00137735
-0.000649842
-0.00168024
-0.000571244
1.84039e-05
3.24321e-05
0.000677924
0.000372582
-0.00102
-9.95846e-05
0.00100302
-0.000903259
0.00165313
-0.00236405
0.000651623
-0.000413304
-0.000984746
0.00150575
-0.00201011
0.000565224
-0.00178748
-0.000702234
-0.00139615
0.00243492
-0.000758612
-0.000149051
-0.000860072
-0.00151259
0.00225819
-0.000745078
0.000902388
-0.000428186
-0.00047413
0.00116314
0.000312692
-0.00147546
-4.01186e-05
0.000105082
0.00233078
-0.000501387
-0.00178741
0.000930352
-0.00213729
0.00121146
-0.00254447
0.00238942
0.000848699
-0.00195259
0.00110901
0.000516073
0.000109873
0.0012833
0.000730409
0.00157601
0.00173189
-0.00224347
0.00140187
-0.000667764
-0.000734217
0.00133736
-0.000188121
-0.000249358
-0.000268941
-0.000278856
-0.000384687
0.000663577
-0.00230298
5.63005e-05
-0.000482394
-0.000320857
0.000803334
0.000218254
0.000205069
-7.42101e-05
0.000372989
-0.000290295
-0.00266993
0.00178552
0.00091068
0.000578484
-0.000780587
0.000203541
0.00181968
-0.00105639
-0.000760034
-6.90916e-05
0.000563148
3.46555e-05
3.07837e-05
-0.00140753
0.00102009
0.000742072
0.000484598
-2.7494e-05
0.000192228
-0.000157829
-0.000385987
-0.000994826
0.000290629
0.00198371
-0.000571033
-0.000894141
0.00146675
-0.000733373
0.000300321
0.00237691
-0.000985375
-0.00173528
0.000576457
-0.000371205
0.000710344
0.000510266
0.000437302
-0.000947333
0.000510111
0.0023954
-0.000568276
-0.000160774
-0.000567334
-0.000592609
0.00116007
0.000551809
-0.00100785
0.000456236
-4.72292e-05
0.00027339
-0.000218316
-6.34191e-05
0.00102352
0.00028028
0.00142027
-3.98265e-05
4.61838e-05
-0.00189124
-0.000753723
0.000201976
0.000234977
-0.000436953
0.0010423
-0.000508238
0.00160126
-0.00107337