/*--------------------------------*- C++ -*----------------------------------*\
| =========                 |                                                 |
| \\      /  F ield         | OpenFOAM: The Open Source CFD Toolbox           |
|  \\    /   O peration     | Version:  v2012                                 |
|   \\  /    A nd           | Website:  www.openfoam.com                      |
|    \\/     M anipulation  |                                                 |
\*---------------------------------------------------------------------------*/
FoamFile
{
    version     2.0;
    format      ascii;
    class       volScalarField;
    location    "950";
    object      ddt0(k);
}
// * * * * * * * * * * * * * * * * * * * * * * * * * * * * * * * * * * * * * //

dimensions      [0 2 -3 0 0 0 0];


internalField   nonuniform List<scalar> 
13851
(
-3.35038e-06
-9.79233e-08
-1.01533e-07
-0.000165134
-2.16584e-07
-1.81814e-07
8.15185e-08
-3.77987e-07
0.0161327
-7.38962e-08
-7.26043e-07
-8.27419e-08
4.6091e-08
0.00376762
5.5581e-08
-4.68804e-08
-0.000603067
-3.41211e-08
-0.000443426
-3.50433e-06
-2.52282e-07
-1.11355e-07
0.00319136
-3.82928e-08
-0.00891746
8.95188e-07
1.41804e-05
0.017895
0.00192277
-1.27729e-07
-0.00136464
8.24007e-08
-3.48727e-06
0.0176906
-4.53904e-07
-0.000485685
-1.68295e-08
-0.0177952
-0.00770053
4.60032e-08
0.00233437
0.002184
-0.000180248
-4.2892e-06
0.00490716
-5.47794e-08
-3.70159e-07
-3.92898e-07
-3.36835e-08
5.08392e-08
-0.00320879
2.33638e-08
-1.81691e-07
5.71656e-07
0.00481666
5.00222e-08
-2.8056e-06
0.00144402
-3.76797e-06
0.000585173
-8.42032e-08
1.58455e-05
-4.22156e-08
-4.04804e-08
1.01797e-06
9.2215e-07
-9.36689e-05
-3.11455e-06
2.17605e-08
-9.97158e-05
-0.00228962
-3.90983e-07
2.33001e-08
0.000460984
4.98633e-07
-1.42499e-08
-0.00102214
-1.65934e-07
-0.00933615
-9.89574e-08
1.60355e-08
-4.66321e-05
-4.54466e-07
0.00344465
0.00101723
-0.0017175
-1.26398e-07
0.00306796
-9.29238e-08
-0.00120808
3.93203e-08
8.70902e-08
-0.00153735
-0.00156633
-0.00691133
-1.58437e-06
-2.59587e-08
-4.45231e-07
-0.00255235
-4.84702e-06
-5.94703e-07
1.05556e-06
-3.6224e-07
6.24287e-08
-5.17284e-08
-4.80274e-07
-5.54906e-08
-0.00226422
8.64481e-08
-4.40037e-08
-1.13004e-07
-4.72834e-08
-6.66027e-06
-1.06874e-06
-1.44622e-06
5.2603e-07
-1.93492e-07
-3.67489e-07
-0.00011355
-8.03394e-05
-4.7662e-07
-5.84402e-08
2.63159e-08
0.00468047
-0.000114678
1.02114e-06
-3.41901e-08
-3.54284e-07
0.00924272
-9.24024e-08
-1.08109e-07
-4.22805e-07
-0.0134878
0.0176547
-7.9569e-07
-0.00700367
-2.54718e-06
-0.00185749
-2.95308e-07
9.91347e-09
-3.00101e-05
7.55183e-08
-8.35569e-08
-4.06129e-06
-0.00499787
8.3161e-09
-1.60662e-07
-0.00143678
0.00740821
-3.07157e-07
-7.31162e-07
-4.61521e-06
-1.06261e-06
1.0061e-05
5.93876e-08
-2.26294e-08
-1.16952e-07
-0.00732809
-1.30707e-08
-1.77923e-08
-5.32647e-08
0.000985423
-5.51639e-07
-4.07957e-07
0.00386848
0.0183607
0.0184924
-0.00354695
-1.34267e-07
0.00333561
-6.83378e-08
-2.25775e-07
-8.81309e-07
-1.71531e-07
-0.00719826
-1.87091e-05
-9.88213e-07
-2.18467e-07
5.57399e-07
-1.01889e-06
-6.58266e-05
-3.29131e-06
-1.27222e-07
-1.03163e-07
-0.000425173
0.00679254
-3.07344e-06
1.09945e-07
6.77973e-08
-9.90306e-08
-0.00509892
-2.0664e-08
0.00207702
-1.74828e-07
1.43177e-08
-4.01861e-07
-2.27797e-06
-8.82647e-08
-2.88275e-08
-3.11863e-06
-2.17463e-05
-0.00562074
-0.000391357
7.90151e-08
0.00212745
-0.00523962
3.42237e-08
2.89117e-07
0.0168057
-1.68244e-07
4.57385e-07
2.32738e-08
-5.11646e-05
-2.43271e-08
-4.52116e-07
-5.11636e-08
4.41077e-08
3.65938e-05
-5.14024e-08
2.17571e-06
-2.14347e-07
-2.81577e-06
0.00175745
-0.00706705
-2.01609e-08
2.90301e-07
-3.12316e-08
1.92726e-07
-1.37604e-07
-4.34163e-07
0.000343643
1.18676e-07
-1.7133e-07
-2.12215e-08
-0.000179719
-1.2282e-07
0.00812219
-0.00137951
-2.54934e-06
-3.09795e-08
-0.00045695
0.00124343
0.00364729
2.01881e-07
-2.30839e-07
-1.48339e-06
-1.49214e-05
5.74583e-07
-2.02711e-06
-3.12663e-07
0.00408916
-4.82908e-06
-4.22679e-07
-8.80244e-08
-4.5949e-07
0.000171273
0.00140394
-1.28175e-07
-5.85483e-07
-8.28875e-08
-4.89654e-06
-5.31977e-05
-5.53401e-08
-4.45253e-07
-5.05826e-06
1.1895e-08
-6.75121e-07
-1.22415e-07
0.0208211
-9.95904e-08
3.83223e-08
5.8426e-08
0.0230792
0.000105773
-2.55951e-07
-5.69497e-08
-7.52067e-05
-0.00013019
-1.11336e-06
-4.88751e-07
0.0215884
-0.00171736
-1.37966e-07
9.2407e-08
-0.0128828
-6.36277e-08
-1.19295e-07
-1.5985e-06
-5.28185e-07
-1.06377e-07
-4.97524e-08
-1.44912e-07
-3.06386e-07
-1.13333e-07
-1.22679e-07
0.0174198
-2.64213e-07
1.59109e-08
-0.000204406
0.00443977
5.00589e-08
-3.20562e-06
-0.00299462
6.50675e-08
5.29839e-08
-2.99606e-07
0.00171296
-0.00382419
-9.54184e-07
-2.30156e-07
0.00475037
-7.0426e-08
-1.21702e-06
-0.00350757
0.0218594
-2.08703e-08
-0.0146545
-0.00239045
-0.00296414
-3.86133e-06
-1.50328e-06
-0.00751543
0.00576734
0.0177954
-2.51364e-08
-0.000804169
0.00111124
-4.195e-06
-4.15374e-06
4.0889e-08
-1.08052e-06
-2.76404e-08
0.00306162
1.57624e-06
-3.56802e-07
-4.08151e-07
-2.3558e-07
-0.00279187
-6.49926e-06
-6.68592e-08
-0.00673058
-3.09324e-08
-4.1187e-07
-4.51384e-10
0.000829493
-3.84727e-05
-3.7048e-07
-2.25399e-08
-1.33985e-07
-0.00349711
7.08047e-08
1.38534e-05
-1.34549e-07
-3.22104e-07
-6.66866e-08
-8.6223e-08
9.21258e-09
-3.6991e-06
-2.7169e-06
-4.65902e-06
-0.00738022
-0.00309141
3.86394e-09
-0.00110446
3.16964e-05
-8.9759e-08
0.0224213
-1.32283e-06
-0.0028214
-1.91521e-07
1.14732e-06
-6.28125e-07
-0.0149489
-2.55026e-06
0.00366476
-2.74362e-08
-6.5028e-05
-7.09176e-05
-2.57677e-07
0.00460416
-3.66745e-07
-0.00206828
7.63951e-08
1.0148e-06
-5.03253e-06
-1.05468e-05
-1.90745e-08
-1.69788e-07
-6.2517e-07
5.21898e-07
-4.62656e-08
-2.11093e-07
0.0253734
3.03197e-08
2.5188e-07
-5.37212e-05
-1.11087e-07
0.00459382
7.17482e-07
-0.00396648
-1.89181e-07
9.82442e-07
-9.55617e-05
-6.13917e-05
-5.59489e-07
0.00170831
0.000536767
0.000246154
-1.83306e-09
-3.32039e-06
-3.82461e-07
1.19407e-06
-5.59693e-08
-0.000358635
0.0190944
-0.0123368
-1.43693e-07
-5.15883e-06
-6.90839e-06
0.000120052
-1.85051e-07
-0.00032547
-1.29999e-05
0.0036936
-1.93916e-07
0.00543758
-2.21903e-08
-1.77261e-07
0.00344968
-3.41444e-05
-7.31588e-08
-1.0552e-07
2.05405e-07
-2.21558e-07
0.0205245
-1.05956e-06
-1.18211e-06
5.84315e-08
-2.7408e-08
3.70293e-08
-0.016787
1.80339e-08
3.52608e-08
-5.74519e-05
0.0251224
-8.25238e-08
-2.25952e-06
-2.1091e-08
-1.34147e-07
-1.24549e-07
-4.66526e-06
7.9497e-07
-1.19593e-08
-6.13984e-08
1.9725e-07
-8.00912e-08
-0.00234775
-1.17784e-07
2.54867e-07
0.00503573
-7.06924e-08
-3.31836e-07
-8.72931e-08
4.55531e-08
-8.48443e-08
-0.000196476
-6.34681e-05
-2.34231e-07
2.2363e-05
-1.28617e-07
-1.35151e-07
0.0141586
3.69508e-08
2.34789e-08
4.81676e-08
0.00554785
-1.72275e-07
0.0658281
5.49158e-08
-4.13661e-07
-2.57319e-06
4.21284e-07
0.00730658
-2.10491e-07
-0.0131026
3.55514e-08
-5.25013e-06
8.70948e-09
0.00124404
6.4552e-07
-1.72976e-06
-3.80573e-07
-2.04889e-08
-8.4465e-08
-8.81268e-07
-2.03775e-07
0.00020735
0.0124209
-0.00214078
-0.000139532
-5.63631e-05
-0.00353118
-5.12041e-05
1.68921e-08
-4.83259e-08
0.0100526
-6.0993e-08
-3.42875e-08
-4.27128e-08
-0.00735662
-8.07603e-08
6.30112e-08
-5.70559e-08
-7.30016e-07
-3.83288e-08
-0.00700132
-2.82407e-08
0.0125002
-0.000207301
-9.60058e-08
-5.57029e-08
-1.07334e-05
0.0229579
-1.10363e-07
-0.0111495
0.00063806
-1.38359e-07
-0.00532571
-0.00419864
-2.63055e-06
3.5525e-08
-6.22459e-05
-0.000826077
-1.24457e-07
-5.11256e-05
2.46983e-08
-2.09811e-08
-6.79666e-05
-0.00243413
-5.45434e-07
8.38257e-07
-6.01814e-08
8.27888e-07
0.010874
-0.0074641
-9.27251e-08
-0.00160691
-3.03399e-08
2.72519e-08
-5.65778e-07
3.44303e-07
-1.8759e-07
-1.4654e-08
-0.00570965
-8.43224e-06
-0.00536172
-8.69515e-08
-8.74733e-08
0.0235285
-7.98256e-08
-4.24613e-06
1.60807e-07
4.38749e-07
-3.0221e-07
0.00184932
-0.00180757
-1.59392e-07
-0.000193091
-4.7499e-08
-1.11699e-06
0.00287487
0.00609804
3.93244e-08
2.01104e-08
-2.42163e-06
-0.00570438
-5.17573e-06
8.64278e-07
0.00477316
3.74411e-07
1.24352e-07
0.000856625
-0.0069075
-1.62959e-06
0.0121999
-4.86629e-06
-0.000968663
-1.51925e-08
6.76271e-07
0.00676074
-1.30059e-07
-0.0013545
-0.00750792
-1.00355e-07
-2.54708e-08
5.27822e-08
-5.05061e-05
-3.52404e-07
-0.00699025
1.90597e-08
-1.28147e-07
1.30166e-08
-7.32608e-07
-1.35514e-07
-0.00710212
-1.33042e-07
-4.7374e-06
4.19516e-08
1.04666e-06
4.66826e-08
-3.98833e-08
-1.19386e-07
-0.00157508
-6.3705e-07
-0.00674053
-4.10383e-07
-1.90595e-07
-6.12755e-08
-8.6078e-07
-5.60498e-08
-2.1697e-06
-8.55648e-08
-1.74916e-07
4.74595e-06
-4.64809e-08
0.000877315
-3.18144e-08
1.36895e-06
-0.000222865
0.0130562
1.74745e-06
-0.00661438
-2.91539e-07
-1.36811e-05
-0.00737961
-9.24296e-08
-0.00718178
-2.52607e-08
-3.06841e-07
-0.000101878
-0.00671771
-1.01481e-07
-2.21947e-06
-8.63632e-08
-0.0020334
-0.0031796
1.7129e-08
-3.83337e-06
0.0155478
-2.83034e-08
-3.08827e-08
9.98825e-07
0.000988356
-7.56027e-05
5.12384e-08
-4.502e-06
-8.62197e-08
-4.50884e-08
1.26638e-05
-5.14099e-06
-2.40529e-06
-2.17757e-07
-1.16282e-08
-2.02371e-07
1.0862e-06
4.78108e-08
2.26971e-08
-2.13876e-07
7.48159e-08
-1.61846e-07
-3.6631e-07
-4.65181e-07
-7.90473e-07
0.00145488
0.0255786
0.0214986
-0.0121407
-6.59687e-07
0.00544595
-1.58064e-07
-7.58603e-05
-2.79932e-06
-3.59619e-08
1.0783e-07
2.43994e-05
-1.65728e-07
-1.23096e-07
-1.25325e-07
1.28166e-06
0.00350899
2.55185e-07
-0.00183368
-2.01939e-07
-8.24719e-05
-4.47025e-09
-0.00303196
-2.56966e-06
-1.9464e-07
-9.63215e-08
-0.00321968
-2.38917e-06
-1.02387e-07
-2.77548e-05
-2.54027e-08
-0.00333425
1.27222e-06
-4.41732e-06
-4.37278e-07
-7.09987e-05
-1.74857e-08
-2.29656e-08
4.03089e-08
-4.21848e-08
0.00390575
-3.00546e-07
5.5635e-06
0.022405
-2.85093e-06
-0.00758713
-0.00254703
-5.55065e-06
-1.50398e-05
1.59031e-07
9.25852e-09
3.07127e-08
-1.77152e-07
-6.26592e-08
-1.43752e-07
-1.21777e-06
-7.36928e-06
-4.15672e-07
0.0201801
1.26292e-08
0.0157167
-1.69499e-10
-0.000210132
-3.93594e-07
-3.52514e-08
-1.50359e-08
0.0146347
-1.88951e-07
-0.000154489
-0.0067919
6.84025e-09
-5.85222e-07
-1.55944e-07
0.0154613
3.63706e-09
-8.55997e-08
7.32999e-06
-2.95103e-09
7.19421e-08
-6.105e-08
6.0314e-07
0.00407854
-3.10596e-07
-4.11803e-07
-1.74057e-05
-0.00709946
1.5651e-07
-1.08881e-07
0.00143327
-1.86793e-07
0.000254627
-9.16605e-08
-7.83581e-08
-0.0088569
5.50232e-08
-9.05221e-07
-8.04425e-07
-5.95771e-07
-8.58508e-09
-1.01329e-11
-1.17331e-06
-2.0192e-08
5.84896e-09
3.33871e-07
-2.64659e-06
-2.23638e-07
7.46464e-06
-0.0062673
-5.93038e-05
-1.43774e-06
-0.000248229
1.82774e-07
-5.4525e-09
-2.64223e-06
-1.76179e-07
-1.52137e-07
0.0138393
-0.00395728
-0.00709321
0.000981047
1.89258e-08
9.88652e-09
-3.24824e-07
2.78213e-08
-6.9646e-08
-0.0028277
-4.31311e-06
0.00507479
1.30959e-06
-1.13316e-07
-3.96886e-08
-1.30178e-07
-0.00348665
-1.30205e-06
-8.08767e-08
-6.7326e-09
-8.08352e-07
-6.9297e-06
-0.00219818
6.45963e-08
-9.25786e-08
0.00373568
4.67083e-08
-3.25778e-07
-2.23296e-07
-0.00701432
-5.35287e-07
-0.000450033
-6.2421e-08
-3.6963e-06
-2.39789e-07
-9.80094e-08
-4.19316e-07
2.20548e-08
-1.00166e-07
-2.03691e-07
1.24017e-06
5.82879e-08
0.00113889
-3.44988e-08
0.0209155
0.0178474
-3.70744e-07
-2.76613e-07
-0.000150239
-3.44541e-05
-1.71705e-07
1.86807e-07
1.43087e-08
0.00201862
-3.52022e-08
-0.000221838
-1.25329e-07
-2.04708e-07
-0.000192889
-2.65229e-07
-8.7645e-08
5.615e-07
0.00311487
-9.6671e-06
0.0138436
-1.35993e-07
0.00659455
-1.01285e-07
-2.18285e-07
4.85698e-08
-4.23788e-07
-3.82828e-08
0.00633952
0.0243673
-5.89522e-08
-1.34547e-07
-5.58066e-07
-4.69489e-08
-0.000216294
-2.43872e-06
0.00400258
-0.00771411
-1.1269e-07
-7.40491e-08
-1.33321e-07
-2.72367e-07
1.68202e-07
-9.58756e-08
-6.19083e-08
0.000414717
-0.00337438
-5.13042e-07
-0.000361748
1.07392e-08
-6.28158e-08
-6.0543e-07
2.12775e-07
-0.0015825
-8.79345e-08
-7.2052e-05
-1.42122e-06
-5.30314e-08
-0.00321571
-0.00120671
0.00434491
-0.00587386
-5.47828e-05
2.95305e-08
-1.47949e-06
2.42968e-08
0.00251396
-1.52615e-07
-3.52167e-07
0.0103518
1.46345e-08
-2.49029e-07
3.94162e-08
2.37963e-08
-0.00668425
0.000464697
-1.36901e-07
-5.8069e-07
0.00268347
-1.0781e-08
-0.000285669
4.74712e-08
-5.58871e-08
-0.00384881
-1.34828e-07
-3.57931e-06
-2.5848e-07
-4.45224e-07
-3.253e-06
1.52656e-08
-4.27045e-05
1.09618e-06
0.00421096
-1.07927e-07
0.00251943
-2.77489e-07
0.00337471
-0.00234614
0.00249911
8.4989e-08
1.88318e-08
1.20492e-08
-2.65598e-08
9.88193e-07
-4.81037e-08
0.00752109
-1.03631e-07
-9.75037e-09
1.52052e-07
2.78146e-08
-1.3183e-07
3.27276e-07
-2.03211e-07
-5.78499e-08
-1.44938e-07
-0.00670142
2.19732e-07
-1.9512e-07
-2.533e-07
0.0104388
6.69955e-08
-0.00305729
-1.86662e-07
2.46691e-08
5.80271e-08
-1.4201e-08
-1.64323e-07
-1.37505e-07
-1.50525e-07
-1.93312e-06
-1.43583e-08
-4.28936e-06
-4.91562e-08
-0.00124508
0.0179235
7.62995e-06
-2.72363e-05
-5.72026e-08
-0.00726192
-4.26834e-06
-4.01571e-08
-1.88998e-07
7.10956e-08
-0.00323374
4.68565e-08
-3.2789e-07
0.0246075
1.45031e-05
-8.64867e-07
-1.06565e-08
0.00284747
0.0205341
-5.60084e-05
-2.4437e-07
-1.84245e-07
-1.04813e-07
-9.90767e-07
1.23909e-09
-0.000981668
-4.77495e-06
-4.98056e-08
5.67334e-05
-8.40553e-06
-8.33192e-08
-0.00618086
-0.000415449
-9.91085e-07
-3.49685e-08
0.0017256
-1.21636e-06
-1.7289e-07
0.00423222
-6.5357e-08
-5.97643e-08
-4.42115e-08
4.51843e-07
9.45922e-07
0.0192946
-0.000990753
6.06499e-07
0.0200944
3.18238e-07
-5.4217e-08
9.81081e-07
-1.32145e-07
-0.00111882
-1.04308e-07
-1.90902e-07
-3.30663e-09
-2.26924e-08
0.0207271
0.00227471
-2.68891e-06
-0.00203923
-0.00663561
-7.60166e-09
4.2473e-08
-4.7701e-08
-5.6922e-05
-1.02674e-07
-2.46514e-07
-4.4537e-07
-0.00860792
-6.72872e-06
-3.04799e-07
-4.89351e-08
-4.1433e-07
-4.92159e-06
-0.000120772
-1.47225e-07
-2.0119e-07
-2.61353e-08
-0.0141679
3.4863e-07
0.00930591
2.54003e-08
-9.17323e-08
-6.41617e-08
-3.69999e-08
-4.14881e-08
-1.09903e-06
0.000117315
0.0158796
1.86833e-07
-1.37814e-07
-0.00257055
-8.60343e-08
0.00384352
-0.000417069
-7.94378e-08
-0.00202977
0.00335917
-0.00042781
9.04029e-07
-9.71134e-08
0.00852999
-2.24262e-07
-5.67699e-08
-2.97903e-07
-3.4614e-06
-2.58477e-09
0.000114732
-4.99135e-08
0.013478
-0.0135171
-1.87541e-07
3.33853e-08
-1.09817e-07
-2.33737e-05
-1.55212e-07
-1.2461e-07
1.54271e-07
4.40514e-08
7.57816e-08
-5.54525e-06
-3.44084e-08
-2.85398e-06
0.00394956
-3.34316e-08
-6.65329e-08
9.18616e-07
-1.28824e-07
-0.00409676
0.00179495
-0.00740013
0.000312818
-1.32746e-07
-5.67434e-08
-1.84204e-07
7.51454e-08
-3.3678e-06
-1.5354e-07
-2.06467e-08
4.60439e-07
-7.22943e-09
0.0256612
-2.20941e-07
0.00201758
4.69275e-08
-5.45306e-10
1.95088e-06
-1.62322e-06
-1.18346e-06
-1.98205e-08
0.00122767
0.00241049
0.00528691
-0.00397774
0.0118551
0.0191617
0.00304646
-3.5769e-08
-1.0466e-07
-6.23993e-08
-3.45084e-06
7.69994e-07
-1.21044e-06
7.38763e-05
-1.13826e-07
-2.5999e-07
-6.39196e-08
-1.74981e-06
-1.60956e-07
-2.03585e-08
2.68601e-09
-7.32362e-05
6.53502e-08
-1.84823e-07
-1.02738e-07
2.44001e-08
-1.22385e-07
-4.37905e-08
-2.97075e-06
-8.15185e-08
0.0212034
-1.05625e-07
-3.1657e-08
0.0107936
0.0194981
0.00343658
-3.71627e-05
-4.68417e-07
-6.96423e-05
-2.09317e-07
-5.54243e-08
-6.87671e-09
-6.82341e-08
2.76294e-08
-0.000929474
-8.02265e-08
-1.7628e-06
-0.00409807
-8.55899e-08
-3.11234e-08
-2.81485e-08
-4.2562e-06
-1.36598e-08
-8.86175e-05
-6.4895e-08
-1.67852e-06
-1.07153e-08
-4.92699e-08
-1.69514e-07
-1.45927e-06
5.26417e-08
1.59939e-05
-0.00209518
-1.31067e-06
0.0198205
-2.47859e-08
-0.00198742
-0.000313966
-9.34163e-08
-0.0140802
7.65284e-08
-6.15629e-07
5.06913e-08
-1.56996e-07
-2.09933e-07
-2.057e-08
2.19368e-08
1.77362e-07
-3.53182e-07
-1.29112e-08
-1.71532e-08
-2.14347e-06
-9.65021e-08
-0.00507854
-1.86819e-08
-3.16928e-07
4.61868e-07
0.000702727
0.0192314
-4.97105e-08
-2.06025e-06
-2.36127e-07
5.3695e-07
-3.98692e-07
-4.3138e-05
1.25848e-07
-1.86932e-08
2.93329e-07
1.30226e-06
-2.94587e-07
0.0130936
-1.2806e-07
-4.89263e-06
7.89201e-07
-7.37655e-08
6.83017e-08
-5.42266e-08
-0.000106425
-7.15592e-05
-1.01472e-07
-1.73986e-07
-0.000144123
-1.70983e-07
-3.85671e-07
-1.39629e-07
-7.17325e-07
-0.0156323
-2.59901e-07
0.000157922
-1.69452e-07
-8.90393e-08
-1.09359e-06
-3.3727e-07
8.82056e-08
-7.53462e-05
-4.83087e-07
-7.2309e-05
-2.30116e-07
-3.25253e-08
-5.69499e-07
-3.97828e-08
-2.20359e-08
1.96316e-07
-2.41692e-07
-4.90801e-07
-9.04816e-07
6.37764e-08
-4.09753e-08
-6.61485e-08
-1.34217e-07
-4.19216e-08
-8.79846e-08
-0.00102759
-7.90539e-08
3.32123e-08
-1.21796e-06
-1.79528e-07
-1.84951e-07
0.0227979
-2.19071e-08
-0.00146284
-8.43949e-08
0.0235459
-6.34142e-05
4.40753e-07
0.00130953
-9.30267e-07
-5.02246e-06
-4.77113e-08
-1.19569e-05
-2.00157e-07
-5.91085e-08
-6.87472e-08
5.20202e-08
-1.82286e-07
1.12649e-08
-2.79858e-07
-1.86657e-07
-1.10241e-08
-0.000179379
-0.00315262
0.00566391
1.65204e-08
-1.04014e-06
-0.00206174
2.41436e-05
-6.05968e-08
-3.00191e-08
-7.19725e-05
-5.20608e-08
-4.27863e-07
-0.004146
0.0143538
1.1386e-07
2.73841e-07
2.98732e-08
-9.09003e-06
8.14645e-09
-1.57107e-07
0.00805028
7.22526e-08
-3.53077e-07
-0.00506644
-5.71416e-07
-3.75317e-06
0.019982
1.1364e-06
7.46817e-08
-1.87495e-07
-5.21078e-08
-0.00256431
0.00889378
0.0216998
-6.42136e-07
-4.44415e-08
-0.00394339
-6.20752e-08
-6.57087e-06
1.31539e-07
-4.48974e-08
-3.12882e-07
-1.28053e-07
-0.00685582
-0.00698393
-1.95644e-07
-8.13684e-07
7.31354e-07
-0.00441333
-4.65908e-07
9.57943e-07
-2.69101e-06
3.92514e-07
-4.16288e-06
7.05489e-07
-4.01807e-08
4.02741e-07
-6.23215e-07
-6.64302e-05
-1.31903e-07
-6.05383e-05
-5.53335e-07
1.05498e-06
-1.6613e-08
-0.00604789
-5.67644e-08
2.57723e-08
-6.75725e-08
-2.9784e-07
-2.60197e-07
-1.9991e-07
-2.08088e-07
3.66763e-08
-3.43221e-07
-0.00141875
-6.96517e-07
-3.7806e-08
5.62748e-08
4.49892e-07
-1.98023e-05
-7.70901e-08
-6.46867e-07
-0.0103783
-1.30085e-07
0.0133299
9.95972e-07
-0.00266202
-4.35117e-05
-2.73096e-08
-0.00973056
-6.66077e-08
-7.41703e-08
2.25627e-07
-2.18354e-07
-2.70637e-06
5.33977e-07
-1.59439e-07
-2.41145e-07
-3.73659e-07
-1.95255e-09
-1.79425e-07
-1.28407e-07
-6.13083e-08
-2.46814e-08
0.0210901
-1.34383e-07
-2.14194e-07
-1.15227e-07
0.0035048
-1.02131e-06
6.92302e-08
-9.28014e-08
2.38389e-08
0.00143077
-4.12918e-06
2.34383e-07
0.00358299
0.00813171
7.52195e-05
-2.27373e-06
-3.13733e-06
-1.41085e-07
2.79755e-06
-2.32791e-07
1.13557e-07
-0.015758
-0.00486066
-0.000169671
0.000531727
-2.59513e-08
0.000735226
-1.41446e-07
4.92455e-07
-3.74357e-08
-4.25902e-05
0.00646527
2.44169e-07
-2.32772e-07
-1.87959e-05
2.21871e-07
-1.29686e-07
-0.0030827
-3.57914e-08
2.79144e-08
-4.94396e-08
5.75979e-08
-3.90088e-07
2.86153e-08
-3.62429e-08
-2.14825e-07
-3.64946e-05
-1.39916e-07
-7.05294e-07
-1.42711e-07
-0.00293173
-0.00420652
-2.44584e-07
1.28614e-05
-3.20273e-08
-3.58235e-08
0.0267084
-2.19829e-07
6.73358e-08
-4.212e-08
-0.00408287
-1.33841e-07
-8.82833e-08
-5.03685e-07
-4.02184e-05
-2.39549e-07
-8.92492e-08
-1.19425e-08
0.0200573
-6.4617e-07
-4.81105e-07
9.35405e-06
-3.2117e-08
-2.52535e-06
-2.22182e-07
-9.42367e-05
-3.36013e-07
-6.01335e-08
2.58803e-07
-1.90493e-06
-1.07714e-07
-5.46293e-08
-4.73413e-06
2.58786e-06
-8.96032e-08
0.000809944
-5.67716e-08
-2.13914e-07
-9.69659e-07
-1.41779e-07
-7.97214e-08
-0.00605534
-5.75693e-09
-3.47243e-07
-1.00995e-06
-0.00376926
0.016073
-1.11479e-07
3.01525e-08
-3.09443e-08
-1.47205e-07
-4.43669e-09
-1.01062e-07
-2.73763e-06
-3.27208e-08
-6.91491e-06
-5.36881e-07
-3.52546e-07
-8.9377e-08
-3.22776e-07
-6.52171e-07
8.57413e-06
2.19275e-07
-8.22906e-07
8.82576e-10
0.0170619
-4.61434e-07
5.7528e-07
2.49663e-07
-4.54486e-07
-2.15715e-06
0.00116594
8.44112e-07
0.00103669
0.0243167
-0.000184803
-8.35164e-08
-1.3332e-09
-4.25474e-07
-4.47828e-07
-7.36575e-08
-9.47972e-08
-1.1417e-06
-5.51664e-08
1.51079e-08
-1.38076e-07
-2.34756e-07
-4.19886e-08
-3.96435e-08
-0.000851134
-2.5039e-07
-0.0103943
-1.36151e-07
1.31727e-07
-9.76232e-09
-1.19632e-06
-6.22119e-07
2.22769e-08
0.0252384
1.26673e-08
-4.87292e-08
8.04909e-08
-6.38904e-08
-8.10043e-08
-3.52171e-08
5.43553e-05
-3.45297e-08
-5.13506e-07
3.31105e-06
0.0220824
-8.88893e-08
-6.00492e-06
0.0161441
-2.72324e-07
-4.75149e-08
-7.1462e-08
-3.28367e-07
-1.19767e-06
-0.00281987
-1.10472e-07
-4.15521e-05
3.90909e-08
1.8207e-07
-0.00272298
-2.98533e-07
-6.47124e-05
-7.32839e-08
-2.70911e-07
-1.24427e-08
-0.00728482
-3.79039e-07
-1.43703e-07
-2.12192e-07
-5.49271e-06
-3.64964e-08
-1.05603e-07
-1.25883e-07
-0.00768137
-2.26625e-08
-7.75777e-08
0.0181605
-3.16536e-08
-1.00913e-08
-3.01997e-07
-7.19776e-08
0.0125051
-2.45432e-07
-5.10165e-08
-1.97413e-07
-3.50754e-08
-4.13077e-08
-4.01317e-08
4.89501e-08
0.0163746
-2.51392e-08
-2.45921e-08
0.0232067
-1.18446e-07
0.000192212
-1.04565e-08
-0.00595336
-6.1549e-08
1.21016e-10
-2.22151e-07
0.00312523
0.021607
-8.46889e-08
-2.08942e-07
2.63666e-07
-3.80376e-09
-1.83066e-08
0.000113923
-1.47083e-07
6.39261e-07
-2.51946e-07
9.45314e-07
-4.29976e-08
0.0209539
-2.09299e-07
4.3443e-07
-4.55134e-07
-2.41748e-05
4.04058e-05
-8.57748e-08
-1.81926e-07
-0.00794262
1.84815e-08
-4.2315e-05
-4.42375e-05
-2.69302e-06
3.87773e-08
-3.61895e-07
-2.27819e-06
0.0221051
-1.53934e-07
8.35402e-07
-3.83464e-08
4.07596e-09
0.00185785
0.000263313
-4.66075e-07
-4.95402e-06
-2.64087e-05
-1.94539e-07
0.023168
-6.12254e-08
-8.12319e-08
-1.95512e-06
-0.00642154
-1.20401e-05
-3.90877e-06
0.0134617
-2.04978e-07
-0.00636224
0.00654975
-0.0019533
-7.43496e-08
-0.00359719
-0.000596038
-9.75586e-05
-0.000597628
0.00924842
4.90453e-07
-3.47966e-07
-7.101e-06
5.48249e-08
2.21949e-08
-0.00484333
-1.14869e-06
-1.88113e-07
0.00119003
-3.61319e-08
7.83555e-08
-6.91411e-08
-1.80072e-08
-0.00279963
-7.79951e-08
-8.761e-06
6.55051e-07
-1.60874e-07
0.0199957
-0.0056976
-4.80155e-06
4.79308e-08
-1.35557e-08
-1.27725e-06
-2.43389e-07
-2.34708e-07
-6.27317e-07
1.21753e-07
-7.16232e-06
1.88169e-08
-9.61945e-06
-1.15339e-08
-2.10458e-07
-6.69783e-05
-6.79518e-06
2.8908e-08
-1.51828e-06
-0.00265324
7.66011e-08
3.04073e-08
-0.00156101
-1.26479e-05
-1.02239e-07
-1.30707e-07
-1.26155e-07
-4.66197e-07
4.44212e-08
0.00114749
-2.33739e-06
7.51811e-08
-6.83932e-08
-2.32454e-06
-1.23158e-07
0.000950019
-0.0035756
-8.21488e-08
-1.30787e-07
-2.14887e-07
-6.44744e-08
-1.13608e-07
2.38658e-08
-3.29465e-08
3.26857e-08
-3.40905e-08
-1.11614e-08
4.52241e-08
4.3278e-07
0.02036
-2.88104e-08
0.0204019
-0.000920484
-2.24906e-07
1.14508e-06
-2.97099e-06
-9.09957e-07
6.40787e-08
-1.01697e-06
-1.52571e-07
1.40877e-06
-1.74582e-07
-2.60677e-08
-6.87124e-08
-0.00244844
4.22898e-07
-5.39909e-05
6.88015e-08
-6.81333e-08
-1.40351e-07
-4.54095e-07
-3.82216e-08
-4.85855e-07
5.16391e-07
-3.80488e-06
-1.35855e-07
-0.00055645
-0.0175183
0.00237872
-1.94154e-07
-3.82278e-06
-4.09929e-06
-0.0170547
-0.0107052
4.47477e-08
3.32768e-08
-1.92146e-06
0.0087106
-6.81052e-05
-2.78412e-07
1.52952e-05
-6.65904e-08
-5.5751e-08
-2.07089e-07
-6.14358e-08
1.71796e-08
-4.71507e-06
-2.39573e-08
1.95207e-06
-6.46787e-08
-0.003062
0.0239334
0.0228433
-6.21403e-05
0.0018019
3.5821e-08
-7.00153e-08
-0.00541026
-8.19348e-08
-7.51824e-08
-1.85347e-07
-1.00489e-06
0.0147012
-0.00288396
-2.49287e-08
-1.15017e-07
-4.12654e-09
-1.84615e-07
0.00251909
-1.9283e-07
-3.46416e-05
-0.00313999
-8.20537e-08
-7.86973e-09
0.0072252
6.58327e-07
-4.006e-08
-9.97238e-08
0.0132835
-0.00244144
-3.54021e-08
-9.69713e-06
-2.4423e-08
0.00379228
-0.00106912
-4.11685e-08
-0.00020319
1.81501e-05
0.0195273
-8.18327e-08
-1.43248e-07
-3.809e-08
-1.52951e-08
0.019711
-3.63916e-08
-2.44838e-05
-3.63864e-06
-0.00266487
-3.62948e-08
-5.35086e-07
0.00374908
-6.82489e-07
-0.00421796
-0.0045403
-2.65774e-07
-7.82362e-08
-8.83528e-08
3.52358e-07
0.0106366
-2.25532e-07
0.00385935
9.14557e-09
2.37411e-07
6.81482e-08
-2.52424e-07
-2.19881e-05
-4.54539e-07
-0.000220531
-7.35929e-08
-6.33608e-07
-2.21473e-08
-1.55457e-06
-9.20025e-08
0.0161577
0.0106153
5.33064e-06
1.07832e-06
9.81446e-09
-1.0708e-08
-8.55387e-07
-9.13703e-08
0.0225289
-0.00726484
-1.14523e-07
-4.83268e-05
-1.69095e-06
-0.00813953
2.8583e-07
-4.74296e-07
-5.26994e-07
-1.7506e-08
0.0186183
-1.3485e-07
-1.99907e-07
0.000234088
-0.00103721
-0.000245401
0.0111973
-8.6756e-08
-4.58452e-07
-7.89267e-08
-0.00375945
-9.85782e-08
-0.00345088
-9.93242e-08
0.0233312
-2.58183e-07
-1.42502e-07
-2.33952e-07
-5.19865e-08
-8.27186e-08
2.59368e-08
0.00739048
6.09947e-07
-3.06229e-08
-2.66496e-07
0.0041193
5.2987e-05
-3.41752e-08
-0.00470781
-4.32818e-08
3.25095e-07
4.35434e-07
-2.67623e-07
-9.45797e-07
-1.42401e-07
-0.0183506
-4.32353e-07
2.51937e-07
-1.10663e-07
-1.51125e-05
-5.45968e-07
-9.69758e-08
0.0274526
0.00672918
-1.82188e-05
-2.13677e-07
0.0188025
-4.70303e-08
-1.69798e-06
1.25381e-07
-1.02117e-06
-0.00274851
0.00730205
-2.51456e-08
0.013011
-3.01653e-07
-2.60586e-07
-1.35478e-07
0.0273257
-2.01148e-06
-2.16809e-06
-6.74116e-07
-4.8554e-08
-6.9807e-05
-2.01239e-06
-2.94683e-05
-1.8719e-06
-0.00777524
0.0068727
-0.0111333
-0.00356285
-2.89085e-07
-5.69181e-08
-7.97029e-08
-1.36449e-08
-2.09354e-07
-9.03059e-07
-1.01716e-07
-1.1997e-07
-0.00675227
-4.98377e-08
-2.33533e-07
6.33665e-07
-3.92166e-06
-1.13925e-07
-3.97542e-07
-0.00594327
-1.0473e-07
6.33998e-07
6.22618e-08
-0.000798835
-3.74514e-08
0.00833082
1.94912e-08
-3.29886e-07
-3.88958e-07
-8.23594e-08
3.25629e-05
0.00280074
-1.11112e-06
5.0554e-08
-3.1789e-07
0.00388639
-0.0019829
-0.00131505
-6.33456e-08
-1.12697e-06
0.00585264
-4.62203e-08
-1.78239e-07
1.97605e-08
0.0142428
-1.63563e-06
-1.40894e-07
3.34763e-07
2.79824e-08
0.0145242
-9.75509e-07
-2.31888e-05
2.1419e-07
-2.37828e-07
-2.39539e-07
-5.03669e-07
-5.37758e-07
-5.74851e-08
-2.21857e-05
-0.00493869
0.00224481
-1.79275e-05
-0.000678219
-0.00416161
-0.00540738
4.48715e-08
-9.2731e-08
0.00892543
-0.00408363
-0.00376483
5.33756e-08
-3.6632e-07
-3.82797e-08
-2.44744e-08
-1.58568e-05
-0.00132211
-4.54224e-07
-1.42302e-07
-5.99989e-05
-1.40512e-06
-5.866e-07
0.00428471
-0.0125562
-9.01314e-06
-3.10832e-07
0.0141357
-4.07954e-05
-1.75775e-05
3.95034e-07
-4.46715e-07
2.43141e-08
-1.38795e-07
-5.41304e-07
-5.88416e-07
-4.35901e-08
2.58662e-07
-1.10107e-07
-2.81364e-08
-3.19026e-06
0.00678902
-6.03175e-08
4.0195e-07
0.00176073
-3.73795e-07
-2.03085e-08
6.27932e-07
-3.91979e-06
0.00303409
-5.28391e-07
-1.56618e-08
-2.38782e-07
-1.73855e-07
-2.80071e-08
-2.53589e-07
-1.53484e-07
1.3645e-07
2.71759e-07
4.76328e-06
-4.87763e-08
-1.12751e-08
0.0075339
0.00112045
-0.00632819
0.00381933
7.08937e-07
-2.75695e-07
-5.09232e-08
-3.15712e-07
-9.41707e-08
-0.00817504
-6.18389e-08
-1.65443e-08
-1.53704e-07
6.64819e-07
-0.00457755
7.41847e-08
-5.0062e-08
-2.26647e-07
-5.62727e-08
-3.11547e-07
-1.42956e-07
-1.97505e-07
-4.21738e-07
-6.04502e-05
-7.02387e-08
-0.0027782
-3.51622e-07
-0.00696905
-3.26701e-07
-3.07634e-07
-1.47767e-07
-1.1764e-06
-4.51459e-06
-2.40608e-07
-1.00844e-07
-3.37268e-07
-7.81064e-07
-6.87019e-05
-0.000329496
0.00674924
-1.4828e-08
0.00391188
1.26227e-07
-2.33196e-07
-1.01371e-07
-1.03542e-06
1.46014e-09
0.000722701
0.000108629
-2.64721e-07
-7.63333e-08
0.000663094
-2.73427e-08
0.00559328
-0.00320542
-4.23629e-06
-2.64686e-08
-3.24396e-06
0.00334293
0.00988733
0.0115619
-8.87341e-07
-2.12046e-08
-3.63867e-07
-7.22794e-08
-0.00386349
-1.95326e-08
-4.02464e-07
-7.9269e-05
-0.00757794
-2.95785e-08
6.9533e-09
-0.00346517
-4.96478e-07
-0.00283498
-1.7092e-08
-9.46023e-08
-5.3522e-07
1.96408e-05
-5.25409e-07
-5.66358e-05
-2.34349e-07
0.0126021
-1.39504e-07
-1.65437e-08
-6.07146e-09
-6.69916e-06
6.38351e-08
-1.19888e-06
-2.96284e-08
1.47377e-09
-6.19747e-06
4.55602e-08
-7.39308e-09
-1.27607e-07
-3.07964e-07
0.0139095
4.58872e-07
-5.28146e-07
1.42996e-08
-9.63574e-07
5.19055e-08
-4.56501e-07
-3.22319e-07
-4.52448e-07
3.534e-07
3.99201e-07
-5.46281e-07
1.5519e-08
-7.21946e-08
-1.77753e-07
0.000468648
-0.000283006
-4.76485e-08
-0.000510135
0.00594407
2.59509e-09
5.25885e-08
-2.36695e-06
0.00361717
-2.00566e-07
0.0063971
-0.000105997
-1.08923e-07
-2.69877e-07
-2.21225e-07
-1.35658e-07
-9.6151e-07
-0.0161057
-4.48187e-06
-4.90828e-06
1.95297e-05
-2.15694e-05
0.0047481
-3.91548e-08
0.0102325
-6.84783e-08
8.11101e-05
0.00156029
-9.20127e-08
-1.84053e-07
0.000792208
2.25097e-08
-7.28401e-08
-0.000131515
0.0175705
-1.09528e-06
6.06355e-08
0.00117327
-1.90099e-07
0.00057831
0.0075702
-7.49535e-08
-0.00012729
-0.017173
-0.00450783
0.00420305
0.00859242
0.00222594
-1.35296e-07
3.49643e-08
-9.61745e-07
-4.02428e-07
-7.6105e-08
-3.11987e-06
-9.23962e-08
0.0089777
2.21958e-06
1.66921e-08
-2.69083e-06
0.00895053
-1.41461e-05
-3.47386e-06
-2.6728e-06
-0.000686914
-3.92404e-05
-1.23751e-08
-1.95528e-07
-3.0184e-05
-1.43509e-07
-9.4519e-08
-0.00624935
-3.23298e-08
-5.37314e-05
2.21511e-08
0.00576393
4.55748e-08
-4.92539e-08
-0.00455817
1.67819e-08
-5.09073e-08
0.00130629
-0.00319828
-0.000579985
1.86523e-07
9.07878e-07
4.88041e-08
5.95615e-07
-3.20622e-06
3.97978e-07
-5.49472e-09
-5.27641e-05
-7.28018e-07
-1.64818e-07
0.00435916
-4.22019e-07
-1.11599e-07
3.34203e-07
-1.34989e-06
4.23852e-07
-5.50654e-08
-8.28589e-06
-1.33389e-07
-2.9438e-06
5.08273e-06
0.000342327
-2.04089e-07
-4.38545e-07
-7.27216e-05
-8.59168e-08
-9.37876e-07
4.28065e-07
-4.86436e-07
0.00761472
-6.76356e-07
2.91496e-08
-0.00104834
-2.02009e-07
0.000328862
-4.78809e-08
-7.26748e-08
-2.24575e-06
-0.00132856
-1.80338e-07
2.37559e-06
1.52502e-05
2.39215e-07
-1.90207e-08
1.77228e-06
-5.25064e-07
-0.00719462
2.36853e-08
0.0113849
-4.47848e-06
3.45097e-07
-2.89923e-07
-1.30866e-06
-3.76396e-07
1.67232e-06
-5.53577e-07
-2.68526e-08
-9.40048e-08
-1.06751e-07
-0.00119191
2.9319e-09
-2.5909e-07
-3.18748e-07
-2.33644e-07
-2.73199e-07
-3.67924e-07
0.00590615
2.85925e-08
-2.29235e-05
-3.30821e-07
3.67981e-08
-1.0558e-07
-6.26311e-09
1.87826e-07
-1.40839e-07
-1.57981e-07
-0.00189214
-2.15967e-07
-3.51183e-07
1.50902e-08
3.51827e-09
-3.39977e-06
4.71466e-08
0.00829171
0.0278372
-0.000848933
-1.0317e-06
-2.54795e-07
1.6536e-07
-7.29185e-08
-5.46787e-08
-2.32552e-06
-4.50802e-07
-0.00249613
9.17121e-08
-0.00368267
-6.22933e-07
-6.14714e-08
-2.38363e-07
-0.000116853
3.78921e-09
-1.47279e-07
-1.78038e-06
-7.6953e-05
-6.36317e-08
0.0140829
-1.01306e-08
-1.2874e-07
-3.20396e-08
6.91439e-08
2.06156e-06
1.38682e-07
1.47706e-08
4.11898e-07