/*--------------------------------*- C++ -*----------------------------------*\
| =========                 |                                                 |
| \\      /  F ield         | OpenFOAM: The Open Source CFD Toolbox           |
|  \\    /   O peration     | Version:  v2012                                 |
|   \\  /    A nd           | Website:  www.openfoam.com                      |
|    \\/     M anipulation  |                                                 |
\*---------------------------------------------------------------------------*/
FoamFile
{
    version     2.0;
    format      ascii;
    class       volScalarField;
    location    "50";
    object      k_0;
}
// * * * * * * * * * * * * * * * * * * * * * * * * * * * * * * * * * * * * * //

dimensions      [0 2 -2 0 0 0 0];


internalField   nonuniform List<scalar> 
13917
(
0.0153023
0.000181689
0.000221915
0.000150682
0.000168447
0.000181908
0.000159918
0.00159356
0.000157417
0.00749397
0.000170474
0.000148574
0.000165442
0.00495758
0.000166155
0.0126601
0.000163345
0.000226233
0.0001972
0.0145991
0.000171422
0.00014813
0.000174676
0.000148138
0.000154063
0.000174313
0.000304195
0.00570055
0.000191658
0.000138736
0.00329232
0.000184283
0.000150916
0.0250504
0.00014689
0.00587581
0.000155911
0.000163799
0.000159983
0.000176121
0.000154329
0.000157857
0.000154809
0.000196862
0.000196287
0.000125607
0.000169087
0.0363809
0.00246982
0.00014695
0.000148348
0.000198533
0.00758813
0.000148067
0.000148571
0.000198427
0.00140152
0.000174566
0.00015516
0.000496673
0.0351722
0.000212612
0.000142719
0.000153559
0.0171824
0.000139116
0.000201957
0.00484957
0.000154259
0.0152314
0.00345599
0.0234713
0.000147886
0.000152012
0.000172793
0.000155291
0.000156422
0.00015019
0.000154765
0.000151183
0.000150995
0.000163961
0.000147713
0.00164553
0.000141932
0.0233618
0.000183331
0.000145832
0.000175958
0.000161597
0.000146706
0.000155122
0.00157299
0.000144308
0.000150915
0.000202516
0.000660362
0.000156682
0.000144993
0.000252765
0.000147918
0.000147213
0.000151214
0.000145658
0.000156059
0.00434309
0.0242802
0.000222895
0.000160816
0.000352492
0.000144932
0.0256518
0.00019181
0.0400675
0.0161415
0.000156225
0.000195188
0.000147152
0.000214267
0.000146784
0.00016101
0.000147439
0.000222264
0.000189628
0.0178215
0.00459137
0.00015307
0.00017539
0.000144176
0.000190092
0.000165632
0.000215566
0.0307893
0.000156159
0.000188276
0.00037999
0.0308468
0.0200346
0.000177696
0.000163414
0.00631242
0.000148315
0.0040415
0.000143502
0.000147127
0.000187004
0.00354463
0.00474358
0.0261818
0.000148358
0.000172787
0.000145554
0.000146845
0.000146859
0.000726839
0.000150892
0.000145684
0.0337563
0.000154127
0.000149643
0.000142087
0.0291954
0.000159187
0.0073105
0.0391443
0.0002828
0.00716678
0.0401203
0.000140477
0.000181318
0.000148752
0.0287303
0.000157291
0.0398167
0.000186983
0.000150101
0.000150659
0.000204186
0.000164952
0.000159881
0.000154659
0.000148305
0.000148351
0.000234867
0.000214191
0.000230996
0.000148138
0.000242077
0.000138873
0.013075
0.00018775
0.000193956
0.000206989
0.0153807
0.000144362
0.0179392
0.000159354
0.0280057
0.000146691
0.000150122
0.000166077
0.0149254
0.0174413
0.000155062
0.000268441
0.000172058
0.000173226
0.000148599
0.000203522
0.000150985
0.000140674
0.000199033
0.000128921
0.0299521
0.000187553
0.000176998
0.0269903
0.000154618
0.000141075
0.000141031
0.0394651
0.00021119
0.000134375
0.000143464
0.000143452
0.000381485
0.0155176
0.000140814
0.000140772
0.000154612
0.00014123
0.000141168
0.0221341
0.0273162
0.000149227
0.000140126
0.000185424
0.022489
0.000158583
0.000143445
0.000267479
0.00542141
0.00021424
0.02697
0.000195564
0.000143549
0.0425861
0.000186183
0.000185348
0.000185303
0.000154544
0.0266528
0.000147008
0.000176338
0.000184764
0.000149723
0.000153872
0.000153474
0.000165053
0.00014852
0.0230666
0.0210655
0.000148003
0.000140721
0.000151256
0.0001407
0.000147038
0.000165831
0.000170168
0.000149578
0.0241995
0.0253987
0.000146159
0.000157831
0.00242779
0.000140647
0.000236158
0.0257208
0.000140649
0.0186018
0.000148028
0.0293022
0.000150115
0.000162796
0.000150073
0.000143357
0.000207252
0.000156743
0.000297461
0.000163333
0.0198253
0.000185827
0.000238591
0.0199901
0.000151124
0.00017785
0.000165968
0.000156865
0.000167338
0.000154624
0.000145219
0.000153145
0.000203968
0.000129525
0.000175319
0.000154231
0.000143328
0.0320005
0.0128349
0.000143428
0.000164368
0.00015692
0.00587258
0.000202096
0.0247888
0.0403514
0.000138747
0.000236492
0.000157138
0.0014204
0.0093434
0.000222207
0.000164483
0.000165799
0.000280799
0.000149734
0.000186692
0.000193363
0.000161628
0.0282125
0.000142341
0.000171933
0.000142973
0.00805508
0.000139359
0.00017319
0.000173275
0.000138604
0.000159213
0.000185764
0.00168202
0.000150457
0.00014974
0.0270321
0.00240533
0.0317274
0.00809632
0.00014063
0.000149086
0.00706824
0.000234835
0.00014063
0.000167056
0.000148101
0.000198745
0.000173893
0.000196215
0.000199455
0.000235023
0.000171718
0.0217808
0.000144554
0.000150469
0.000180521
0.000212534
0.000160528
0.0137308
0.000171488
0.0011721
0.000148862
0.000208572
0.000166045
0.000582762
0.000155074
0.000186182
0.00276046
0.0001768
0.000146463
3.27605e-05
0.000145263
0.0420624
0.000209775
0.000154864
0.00076042
0.000151516
0.000354441
0.000139911
0.0160898
0.000366968
0.000154866
0.000526707
0.000226172
0.000153606
0.033177
0.000216243
0.000153782
0.000209424
0.000148587
0.000235186
0.000220584
0.000142561
0.000158821
0.000154132
0.00014302
0.000140392
0.000145005
0.0279603
0.00026475
0.000149615
0.000145536
0.000147302
0.000177818
0.00232376
0.000140926
0.000140456
0.000201482
0.000210347
0.000143697
0.000154473
0.0332517
0.0223063
0.000139162
0.000199511
0.000135402
0.000142497
0.000140698
0.000167007
0.000140301
0.000140975
0.000149582
0.000140834
0.000142287
0.0421134
0.000148884
0.000178705
0.0260508
0.000177849
0.000140924
0.000146626
0.0322848
0.00016619
0.0154404
0.00014221
0.000143612
0.00014583
0.000141341
0.000155568
0.000152138
0.0314803
0.000194799
0.00592033
0.000143573
0.000168002
0.000199209
0.000150657
0.000193894
0.0324134
0.00014787
0.0211625
0.000141309
0.000143753
0.000146975
0.000151624
0.000140164
0.000150322
0.032488
0.0396612
0.000139955
0.000222486
0.000201034
0.000148204
0.00017965
0.00018644
0.0315934
0.000159862
0.00380329
0.000896404
0.000917209
0.000152267
0.000138899
0.00020753
0.000154132
0.0187336
0.000148417
0.000147693
0.000150915
0.00015815
0.000170455
0.000211136
0.000178364
0.000203064
0.000160538
0.000212987
0.00018811
0.000149621
0.00420105
0.000169368
0.000163278
0.043259
0.000142002
0.000189343
0.000208853
0.000139651
0.0361382
0.000144604
0.000141277
0.000178504
0.000142223
0.000152579
0.000204685
0.037309
0.000718353
0.000142006
0.00015128
0.000189536
0.0166599
0.0129256
0.000149088
0.000148349
0.000141777
0.000182544
0.00280575
0.000144823
0.000159243
0.000149806
0.000142716
0.000160574
0.000162899
0.000151373
0.000178663
0.000139675
0.000147539
0.000153774
0.0240281
0.000139459
0.000154669
0.000148441
0.00016719
0.000182239
0.000213196
0.000185641
0.000255139
0.000153103
0.000221621
0.0251607
0.0401459
0.0290886
0.000142694
0.000146723
0.000195432
0.000144846
0.0164292
0.000140771
0.0112268
0.000159277
0.0162641
0.000247494
0.000154882
0.00912297
0.000139905
0.000182883
0.000156368
0.000163992
0.0199704
0.000141518
0.0002194
0.000144178
0.000154818
0.000147045
0.000210188
0.000163503
0.000140715
0.000197498
0.000179255
0.00566883
0.000313124
0.0318476
0.0319132
0.000139365
0.015856
0.000142742
0.034007
0.00469025
0.000170942
0.000172643
0.000147128
0.000169013
0.000154184
0.000141527
0.000155306
0.000164106
0.000155925
0.000142528
0.000181911
0.000147411
0.000140802
0.000154232
9.95733e-05
0.0219011
0.00882126
0.000183875
0.000162591
0.000313857
0.0235837
0.000140222
0.0270431
0.000162472
0.000193949
0.000144826
8.64182e-05
0.000142488
0.000162414
0.000147376
0.00489531
0.000170109
0.021669
0.000150918
0.000169293
0.000146415
0.000147507
0.0226698
0.000297262
0.000147578
0.000200054
0.000143323
0.000162483
0.000145768
0.0243733
0.000142536
0.000165905
0.000140754
0.000147098
0.000212651
0.000145912
0.000196731
0.000164448
0.00013948
0.033352
0.00018265
0.000148733
0.00852633
0.000216764
0.0003345
0.000209487
0.000139715
0.00016863
0.0226217
0.000221616
0.000165396
0.000155874
0.000163827
0.000161724
0.000144775
0.000138825
0.000183754
0.00015786
0.0430159
0.000170494
0.0028957
0.0167319
0.00022009
0.000171173
0.000204599
0.020086
0.000145255
0.000207679
0.000138764
0.000139565
0.000151071
0.000153891
0.000208815
0.000152642
0.0159887
0.000167183
0.000142714
0.000191355
0.000150025
0.0257943
0.00014834
0.000144198
0.0377938
0.000181018
0.00910736
0.000148409
0.000149856
0.000144076
0.000150112
0.000161936
0.000143376
0.0174759
0.000166143
0.00793379
0.00927589
0.000215505
0.0316965
0.000151349
0.000151362
0.000146806
0.0268378
0.000688883
0.000160035
0.0173582
0.00468068
0.000139457
0.000143812
0.000155698
0.00231668
0.00925387
0.000170576
0.000149972
0.000154703
0.000194689
0.000155255
0.000196103
0.000167434
0.000150621
0.000151294
0.000152092
0.000161805
0.000160853
0.000227721
0.000157652
0.000192458
0.0171426
0.000138883
0.00626875
0.000155277
0.000171886
0.000158877
0.000218841
0.000160905
0.000181368
0.0193296
0.000139199
0.000145075
0.000157667
0.000158174
0.000143798
0.000147141
0.00018834
0.000202505
0.00021768
0.000196827
0.000139472
0.00023589
0.000157346
0.000158265
0.000201087
0.00014951
0.000182907
0.000296078
0.000140748
0.000180853
0.000191738
0.000167127
0.000142645
0.000140431
0.00014475
0.0133786
0.000150733
0.000150971
0.000171549
0.000143714
0.000141582
0.000196219
0.000330128
0.000231052
0.0190429
0.000193356
0.00847625
0.000147147
0.000157788
0.00014064
0.00017128
0.000276075
0.000159111
0.000150437
0.00014832
0.000158547
0.000216446
0.000142627
0.000196274
0.000149261
0.0038305
0.000155306
0.000159679
0.00014299
0.000185261
0.000163274
0.0312805
0.000244958
0.000165859
0.0242454
0.000151634
0.0216262
0.000153691
0.000962908
0.000153903
0.000141907
0.000144861
0.0272904
0.000161785
0.000519854
0.0234866
0.000143688
0.000167453
0.000140258
0.000187997
0.00341637
0.00014011
0.0428747
0.000154771
0.0013496
0.000194012
0.000989462
0.000138261
0.000151326
0.000201571
0.000139663
0.00014784
0.000153204
0.000146458
0.000171715
0.000138194
0.0020802
0.000150649
0.0145221
0.0215777
0.00916517
0.00776613
0.0167789
0.0131471
0.00429236
0.000138962
0.000161629
0.000146498
0.000151647
0.000141851
0.000161966
0.000143248
0.00412768
0.000148121
0.000110135
0.00015041
0.000163703
0.00020087
0.000143275
0.0001791
0.000151639
0.000163054
0.000159116
0.000145223
0.0336277
0.000185134
0.000176841
0.00014345
0.000144758
0.000149081
0.000149627
0.0420216
0.000139154
0.000275724
0.000142242
0.00112625
0.00016259
0.000143337
0.000182189
0.000214488
0.000139271
0.00864405
0.0235657
0.000156047
0.000185753
0.000139577
0.000265736
0.000148954
0.000149556
0.0196979
0.000155464
0.000150964
0.0001906
0.0184725
0.000151699
0.00366623
2.91541e-05
0.000157857
0.000152802
0.000146796
0.000138803
0.00014451
0.000199631
0.000147841
0.0365815
0.000163101
0.0183707
0.000145478
0.000140804
0.00045997
0.000156587
0.000138756
0.0209831
0.00015307
0.000140389
0.0126813
0.000157439
0.000162054
0.000183331
0.000153453
0.0180473
0.000176282
0.00018647
0.000204149
0.000154568
0.0347877
0.0001515
0.000181983
0.000143979
0.0254874
0.0011564
0.000148767
0.000149084
0.00015766
0.000149084
0.000146973
0.000143603
0.000148715
0.000144681
0.000163617
0.000141042
0.000152596
0.000185426
0.0349126
0.0314347
0.000188637
0.000149115
0.000502267
0.000142678
0.000174203
0.00259369
0.00679421
0.000140727
0.000139052
0.000146483
0.000147506
0.000140656
0.000145804
0.000143054
0.000172028
0.00014045
0.0133569
0.0100888
0.00014097
0.0252587
0.00014408
0.000145025
0.000220408
0.0249112
0.000192521
0.00015034
0.00920579
0.000145416
0.000145126
0.000223382
0.000162961
0.00734347
0.000151265
0.00631765
0.000140977
0.000148512
0.000166653
0.000612294
0.000152839
0.025562
0.000213716
0.000157737
0.000153514
0.0001448
0.000140204
0.000192315
0.000166429
0.000157509
0.0288439
0.0163603
0.000405669
0.000193724
0.000148029
0.0291733
0.000147541
0.0358297
0.000183283
0.000158934
0.000152304
0.0212291
0.000743073
3.88398e-05
0.000157491
0.00347541
0.000147041
0.000143276
0.000167338
0.000150344
0.000147615
0.000191233
0.0182798
0.000148472
0.00015972
0.0224204
0.000143975
0.000140638
0.0121536
0.0278959
0.000151265
0.000142871
0.000159443
0.000146423
0.00014476
0.000187764
0.000158895
0.00014618
0.00798193
0.000158247
0.000157206
0.00188563
0.000207254
0.0254423
0.000148622
0.000150183
0.000214064
0.0182579
0.000287339
0.000171112
0.000168101
0.000149361
0.000151398
0.000151503
0.0319885
0.000195855
0.000150404
0.000177916
0.000143206
0.000139133
0.000184358
0.000199065
0.000180928
0.000473845
0.00765606
0.0295866
0.0300644
0.000163924
0.000504501
0.000140607
0.00018218
0.000186354
0.00545578
0.000156597
0.000162966
0.000158341
0.00458937
0.000153493
0.0340719
0.000168788
0.000192676
0.0389307
0.000150399
0.000193923
0.000154248
0.00014783
0.000176948
0.000163397
0.00014187
0.000138973
0.000152422
0.000983273
0.000140433
0.000153178
0.000154087
0.00015144
0.000146664
0.000198878
0.000184551
0.000150349
0.000143065
0.000518403
0.000210285
0.000176124
0.0345862
0.000148842
0.00014434
0.000213169
0.000150533
0.000153709
0.0297119
0.02677
0.000173044
0.000182937
0.000159395
0.0139039
0.000284971
0.00016875
0.00195482
0.000144394
0.000185706
0.0322316
0.00021512
0.00460667
0.000426043
0.000142143
0.00014723
0.000165018
0.000146897
0.000147822
0.000231575
0.000155269
0.000174632
0.00013878
0.000179988
0.032159
0.000153592
0.0197835
0.0228473
0.000144404
0.000186939
0.000159789
0.000152688
0.000143855
0.0292673
0.000183182
0.0197115
0.000161715
0.0358175
0.000193501
0.000149967
0.00944795
0.000168731
0.000166809
0.000143573
0.000209841
0.000143915
0.00015851
0.000173946
0.000158629
0.000149496
0.000178736
0.0145259
0.000142224
0.000225154
0.00535392
0.00014789
0.000142445
0.000186776
0.000192289
0.000158789
0.000141131
0.000162879
0.000167956
0.00172646
0.017283
0.000147207
0.000140521
0.000142065
0.000144839
0.000168823
0.000155321
9.38823e-05
0.000149918
0.000155853
0.000181858
0.000170203
0.000188036
0.0283308
0.0366424
0.000148569
0.000145834
0.000140114
0.000152274
0.000184712
0.0304502
0.000181969
0.000201529
0.000165295
0.000176566
0.000153977
0.000172236
0.000157963
0.000196164
0.000144236
0.000272195
0.000175163
0.000139936
0.000148181
0.0283813
0.000176942
0.000192494
0.0389732
0.000204178
0.000144036
0.0016454
0.000161402
0.000142595
0.0299916
0.00813215
0.000144434
0.000173086
0.000193249
0.000170225
0.00015082
0.000138395
0.000142612
0.000140647
0.000143685
0.000164009
0.000184565
0.021244
0.000170789
0.000158473
0.000164441
0.000192713
0.000142685
0.00017062
0.000156768
0.000216229
0.0255876
0.000152941
0.000139054
0.026701
0.000141427
0.000260781
0.00015279
0.000179133
0.000149316
0.000141839
0.00024479
0.000159419
0.000152724
0.000144654
0.0182091
0.000239288
0.0234809
0.000148572
0.000147092
0.000411168
0.000149351
0.000142768
0.000214737
0.00671435
0.000160668
0.000166729
0.00015057
0.000185993
0.00014267
0.000157616
0.000149466
0.000139412
0.000215785
0.000142684
0.000140409
0.000161969
0.000180585
0.0139181
0.00021852
0.000142183
0.000163555
0.00014162
0.000143671
0.000153544
0.000152362
0.000147533
0.000211648
0.000147102
0.000184257
0.000172942
0.000183445
0.00014663
0.000154545
0.000144514
0.0304547
0.000141682
0.00125707
0.000184176
0.000155005
0.000177513
0.000166556
0.000163862
0.000146637
0.000191375
0.000140902
0.000140046
0.000206801
0.000174759
0.000201093
0.00014552
0.000145791
0.000145657
0.000221999
0.000143119
0.0275689
0.000175075
0.000149586
0.000143094
0.000139781
0.000175202
0.000168917
0.00252696
0.000266013
0.000138812
0.000184082
0.000194616
0.000155903
0.0261605
0.000138818
0.000141426
0.000157326
0.000181294
0.000139801
0.0276835
0.000147558
0.000145704
0.000214584
0.000193854
0.0145548
0.000189985
0.000158503
0.000232145
0.000176664
0.000143
0.0260737
0.000144149
0.000149689
0.00645006
0.000139044
0.0280019
0.000187189
0.000142047
0.000144873
0.000143382
0.0285605
0.000153742
0.000138584
0.000186225
0.000142231
0.000141281
0.000152063
0.00014292
0.000174031
0.000147914
0.000155086
0.000138645
0.000255498
0.000283534
0.000138794
0.000138864
0.000151036
0.000142976
0.000154827
0.000148818
0.000148511
0.000148093
0.000144483
0.000151818
0.000146126
0.000227041
0.000139947
0.000185273
0.000147667
0.000192038
0.000140709
0.000147366
0.000143349
0.000141946
0.000173107
0.00016239
0.000156801
0.0171728
0.000209624
0.0337214
0.0275944
0.000186422
0.00970738
0.000147421
0.000145814
0.000315997
0.0329626
0.000145799
0.0234835
0.000139725
0.000199213
0.00338711
0.00015464
0.000185366
0.00323277
0.0114619
0.000151856
0.00017507
0.000141153
0.00466358
0.000155645
0.0292252
0.0166519
0.000148231
0.000248398
0.000263172
0.000165022
0.0161271
0.000139374
0.000153629
0.00014052
0.00013886
0.0267925
0.000142967
0.000164818
0.000149299
0.000306048
0.000204339
0.000147043
0.000141129
6.70415e-05
0.000143265
0.000144438
0.000150159
0.000139174
0.00819944
0.000169303
0.000161999
0.0301526
0.00014371
0.000202258
0.000147707
0.000138947
0.000181148
0.00525991
0.000140275
0.000160706
0.000147942
0.000149301
0.000154335
0.000146329
0.0196341
0.000152246
0.000139628
0.00014232
0.000192661
0.000140394
0.0105605
0.0275402
0.0101185
0.000147074
0.000141908
0.000142766
0.00509408
0.000148787
0.00150806
0.00015284
0.00297263
0.000153297
0.000164241
0.00024559
0.000147601
0.000161592
0.0257057
0.000194236
0.0273407
0.000154563
0.0141002
0.0241023
0.000147225
0.0256886
0.000148221
0.000160237
0.0419203
0.000154955
0.000178265
0.0193472
0.000163294
0.000182048
0.000146369
0.000137949
0.000144355
0.00939407
0.000142739
0.0181673
0.000144517
0.000145407
0.000153433
0.00354339
0.00014229
0.000207753
0.000194307
0.0044402
0.000143199
0.000163881
0.0248963
0.00089399
0.00437271
0.000185924
0.000140682
0.000193435
0.00341956
0.000155752
0.000842659
0.000141054
0.000204345
0.0141805
0.000142861
0.0173862
0.000143112
0.00983351
0.00576405
0.000155083
0.00015431
0.00787008
0.00859098
0.000144445
0.000152546
0.000139366
0.000147362
0.00653272
0.000184579
0.00024302
0.000147851
0.00016136
0.0283253
0.000193292
0.00208004
9.78421e-05
0.000141912
0.000143886
0.000214445
0.0307053
0.0102851
0.00394836
0.000211414
0.000175661
0.00022877
0.022052
0.0343245
0.00409303
0.000140521
0.000185171
0.000174797
0.000188423
0.000145529
0.000158152
0.000183961
0.000280495
0.0075845
0.00016033
0.0244101
0.0290543
0.000181363
0.000144145
0.000144228
0.000280252
0.000142463
0.0335529
0.000162327
0.000152968
0.000230154
0.000349741
0.0001387
0.000169341
0.00016307
0.000145844
0.0247837
0.000207158
0.0317487
0.000143522
0.0263449
0.0002414
0.000214922
0.000141963
0.000159904
0.000164231
0.00986385
0.000199711
0.00018348
0.00728324
0.00173029
0.000139854
0.00015874
0.000158631
0.000197601
0.0154278
0.000145518
0.000138482
0.000152376
0.000713574
0.0173864
0.000143771
0.000183616
0.000239576
0.00014037
0.000278083
0.000155462
0.030348
0.000164996
0.00341382
0.00251029
0.000161756
0.000156609
7.28776e-05
0.000142374
0.00018594
0.0240185
0.000166136
0.000232107
0.000164044
0.000180325
0.0288578
0.0135217
0.000146165
0.000758925
0.00106985
0.000139067
0.000201939
0.000181787
0.000205623
0.0155424
0.000263803
0.00322579
0.000193722
0.0266857
0.00016064
0.00018348
0.000141893
0.000148181
0.000146516
0.000140707
0.00024304
0.00029878
0.000141878
0.000187503
0.000211251
0.000142212
0.00580413
0.0205362
0.000138643
0.000148503
0.000142138
0.000151998
0.000173688
0.000144343
0.0381394
0.000162875
0.000183932
0.000159256
0.000187986
0.000263246
0.000171504
0.0257158
0.00014585
0.000152396
0.000141572
0.000142449
0.0223325
0.00019247
0.000163126
0.0346688
0.000148234
0.0001501
0.000165679
0.000139775
0.000148738
0.000201663
0.000157892
0.0218999
0.0132632
0.03734
0.000146506
0.0244839
0.000143207
0.000235363
0.000138538
0.000203145
0.0217076
0.000145099
0.000446646
0.0223604
0.000168114
0.000152225
0.000148204
0.000161904
0.0310665
0.000138883
0.00014862
0.000154161
0.000164766
0.000213538
0.000154887
0.000158477
0.000141686
0.000155444
6.68334e-07
0.000167873
0.00015637
0.000197736
0.000257922
0.0283616
0.00342486
0.000158527
0.000151762
0.0228166
0.000145821
0.000181404
0.000147011
0.00596575
0.000149604
0.000149163
0.000188434
0.0305364
0.00014385
0.000140278
0.000138824
0.000202545
0.0132093
0.000198433
0.000144448
0.00015576
0.000140489
0.0303852
0.000143434
0.000168285
0.000179974
0.000148211
0.000120454
0.000171178
0.000186613
0.000149659
0.000142799
0.000165056
0.000178256
0.000218392
0.000148159
0.000149611
0.000149139
0.0260826
0.000146248
0.000152128
0.0131363
0.000153397
0.000199877
0.00015643
0.000143791
0.000146386
0.00632252
0.000153577
0.00413799
0.000183757
0.000140207
0.0244888
0.000149289
0.000193031
0.0001807
0.000153199
0.000142127
0.000140178
0.000144261
0.000538642
0.000175385
0.0303912
0.0275637
0.000141103
0.000197854
0.000175516
0.000116725
0.000144527
0.00123717
0.0156506
0.00185804
0.000143764
0.000152997
0.000149899
0.00244231
0.0222943
0.000152507
0.000145145
0.000163861
0.0374428
0.000147651
0.000153194
0.000153373
0.000198299
0.000127644
0.000138614
0.0319402
0.000169193
0.000144045
0.0256448
0.000179748
0.0232334
0.00134339
0.000167877
0.000160851
0.000153055
0.00015948
0.00015039
0.000227502
0.000185865
0.000148216
0.000156085
0.000229661
0.0171269
0.000138689
0.000198793
0.0231647
0.00272658
0.000150572
0.000146651
0.000230765
0.000181836
0.000272572
0.000143741
0.020221
0.000183643
0.000140386
0.0207405
0.000161249
0.000148349
0.00020223
0.000146501
0.000205147
0.000141523
0.000140072
0.000147434
0.000138827
0.0175892
0.000141705
0.000142269
0.000184173
0.000156569
0.00015666
0.000201912
0.000146827
0.000144501
0.000152883
0.000151522
0.000139072
0.000138937
0.000236331
0.000452357
0.00018291
0.00491829
0.000148971
0.0281236
0.0202324
0.0205849
0.000140802
0.000163563
0.000144694
0.000147248
0.000143374
0.000163929
0.000211268
0.000180999
0.000175618
0.000141996
0.000143916
0.000179423
0.000148555
0.000149384
0.000147019
0.0328013
0.000166269
0.0122438
0.00014632
0.000199842
0.000149903
0.000148888
0.000150345
0.000172588
0.000142026
0.000186701
0.0254998
0.000178773
0.0254891
0.00543822
0.000161584
0.000161274
0.00891146
0.000197569
0.000142752
0.000143163
0.000140202
0.0265182
0.000139982
0.000242474
0.000220151
0.000185134
0.0103938
0.0208883
0.000182452
0.0268143
0.000142925
0.000139985
0.000365252
0.000395733
0.000145223
0.000146369
0.000930461
0.000140629
0.000251415
0.00015533
0.000142881
0.000158009
0.000145877
0.000183691
0.0246773
0.0229421
0.000156712
0.000146207
0.000203903
0.000151981
0.000191373
0.000140543
0.000203701
0.00019163
0.000149349
0.000148003
0.000140219
0.000211929
0.000299307
0.000213825
0.00878833
0.00016451
0.00158009
0.000186012
0.000196918
0.0081522
0.000143366
0.0283525
0.000151212
0.0328644
0.00024684
0.0285736
0.010815
0.000165504
0.000180624
0.000371897
0.000146671
0.0192485
0.000146534
0.000146045
0.00015822
0.00015023
0.000163723
0.000237732
6.15912e-05
0.0411391
0.000158691
0.000177558
0.000151949
0.000148868
0.000147363
0.000204606
0.000189365
0.0310772
0.000178116
0.000142185
0.000139422
0.000149862
0.000216304
0.00015575
0.000150957
0.000157481
0.000227247
0.000164479
0.000179731
0.000192897
0.0287261
0.000164
0.000165654
0.000144543
0.000158301
0.000895807
0.000764658
0.000185921
0.00013993
0.02784
0.000166584
0.00014339
0.000176242
0.0270198
0.00306627
0.000169154
0.000140746
0.0375491
0.000149648
0.00014044
0.000142464
0.0059261
1.96195e-05
0.000161773
0.0190065
0.0097904
0.000166954
0.000188037
0.000183314
0.0321963
0.000165679
0.0218399
0.000149807
0.000411769
0.000184846
0.0178536
0.000166627
0.000141847
0.0291027
0.000146235
0.000151229
0.0192812
0.000828208
0.000239776
0.00150726
0.000155622
0.000152167
0.000139922
0.000143363
0.000142315
0.000146108
0.00017531
0.000144375
0.000167769
0.000166689
0.000554285
8.01243e-05
0.000150511
0.0197431
0.000165581
0.0282537
0.0255249
0.000145973
0.000148302
0.00015752
0.000233962
0.000211686
0.000182562
0.026727
0.0311664
0.00747004
0.00015523
0.000503357
0.0219349
0.00031838
0.000122434
0.00014766
0.000145782
0.000146106
0.000151793
0.000143182
0.000165936
0.0234605
0.000171513
0.000211477
0.0329901
0.000285574
0.0364585
0.0278364
0.000168296
0.023812
0.00019286
0.000186342
0.000138291
0.000146981
0.00018306
0.0223446
0.000151139
0.0291057
0.0287582
0.000141392
0.000146865
0.000153619
0.000206562
0.000150086
0.000183919
0.0273356
0.000138428
0.000143767
0.000141026
0.000150899
0.000193975
0.0248135
0.000172573
0.0010945
0.00019814
0.000142443
0.000170841
0.000211603
0.000161096
0.000233792
9.74152e-05
0.0288143
0.00407449
0.02314
0.000146166
0.000216917
0.0262025
0.000220721
0.00123899
0.000142882
0.000153841
0.000155179
0.000153692
0.00605446
0.000182867
0.000148135
0.000160938
0.00198818
0.026568
0.000154884
0.000157047
0.0352216
0.0273238
0.000147953
0.000162061
0.000194171
0.000143394
0.000143988
0.0193902
0.000142149
0.000225873
0.000180063
0.00719594
0.000141826
0.000203347
0.000204641
0.000143063
0.00014064
0.0180541
0.0138309
0.000149265
0.000172778
0.000210316
0.000215408
0.0275746
0.0153219
0.000158586
0.000155501
0.00992114
0.000169182
0.00014168
7.04843e-05
0.000138637
0.000141384
0.0217474
0.000174743
0.000191068
0.000155976
0.00016144
0.000142462
0.000138732
0.000150315
0.000151136
0.0252891
0.000155532
0.00740265
0.0180956
0.000177663
0.000182835
0.031868
0.0154039
0.0271074
0.000147943
0.000156731
0.000169708
0.000158147
0.000247218
0.00934775
0.0001502
0.00590758
0.0268893
0.000160016
0.000191387
0.000183825
0.000194034
0.000196718
0.000152357
0.000200164
0.000203227
0.000206446
0.000209913
0.000197937
0.000185659
0.000161455
0.000141609
0.000166176
0.000190726
0.000142048
0.000469139
0.0267856
0.000224703
0.0279365
0.000140579
0.00014046
0.000472482
0.00733056
0.000150846
0.000155256
0.000182828
0.0316388
0.00257319
0.000146397
0.000165405
0.000157568
0.0102603
0.00195003
0.000155151
0.00018504
0.026435
0.000192911
0.0239688
0.000190656
0.000807022
0.0265796
0.000140335
0.0212426
0.0299093
0.000151734
0.000187175
0.000196415
0.000160458
0.000141491
0.000469338
0.00784444
0.000145705
0.000146325
0.0278513
0.000223312
0.000190402
0.000148434
0.000228988
0.000200426
0.0291629
0.0260177
0.000146544
0.000143736
0.000150647
0.000156967
0.0188333
0.00026745
0.0251003
0.000189049
0.000248604
0.00352518
0.000157211
0.000141368
0.0266678
0.000142443
0.0219384
0.000143113
0.0255819
0.000151717
0.000151393
0.00384865
0.00014585
0.000196841
0.0111193
0.000164835
0.000154849
0.00015212
0.000210892
0.0224129
0.00021836
0.029103
0.000165729
0.000157445
0.000160826
0.000190031
0.0272718
0.0355714
0.000197693
0.000218656
0.000200358
0.00179896
0.000138648
0.000143051
0.000138615
0.00013835
0.000247882
0.000234689
0.00442138
0.000178382
0.000206587
0.000143028
0.001385
0.0263939
0.00880087
0.000144343
0.000152622
0.000140085
0.0278051
0.000193393
0.00362961
0.000246592
0.000199154
0.000246218
0.00014022
0.000169231
0.000217862
0.000248025
0.00023075
0.000145908
0.000202734
0.000149802
0.0001487
0.000219149
0.00192145
0.00226396
0.000148736
0.000194837
0.000242979
0.0338665
0.0174447
0.0146776
0.00817358
0.000143037
0.000181602
0.000147472
0.000204394
0.000145049
0.000201107
0.00015413
0.000176737
0.000144946
0.00973144
0.000163557
0.000249482
0.0297513
0.000198439
0.000154964
0.0228781
0.000196186
0.000158389
0.000149952
0.0065955
0.00016278
0.000205207
0.000237941
0.00178539
0.0181186
0.000162037
0.0143875
0.0252132
0.000274052
0.00028808
0.00016532
0.000195478
0.000191674
0.0122121
0.000236326
0.000150376
0.000117899
0.000223399
0.000480312
0.000161523
0.0433589
0.000241124
7.63405e-05
0.000158296
0.0229216
0.00015576
0.0228349
0.00021878
0.000147907
0.0150804
0.000140446
0.000139975
0.0256022
0.0194864
0.000206679
0.000150017
0.000179552
0.000169894
0.0083559
0.000137812
0.0300454
0.000159111
0.0302775
0.000204106
0.00146868
0.000150172
0.000116621
0.0424305
0.000164754
0.000190291
0.000140376
0.000155927
0.000147053
0.000149207
0.000143088
0.000146606
0.0253344
0.000235175
0.0001381
0.023808
0.000151094
0.000146907
0.000143485
0.000142066
0.00014825
0.000228547
0.0295118
0.000139928
0.011653
0.000183634
0.000176032
7.78958e-05
0.000190064
0.000158283
0.00016472
0.000142978
0.000147545
0.000164724
0.0249884
0.000168449
0.00210355
0.000134037
0.000184644
6.71457e-05
0.0304022
0.000139274
0.0218074
0.000180348
0.000181627
0.000202286
0.000143725
0.000216721
0.000211286
0.000146528
0.00315932
0.000143856
0.00894708
0.000206003
0.0276422
0.000210932
0.000210382
0.0242169
0.000147111
0.000145053
0.000182285
0.000152929
0.000148237
0.000148465
0.000161026
0.000142685
0.000142415
0.000152167
0.000181143
0.000153682
0.000160978
0.000155563
0.000190693
0.000194628
0.0001545
0.0108885
0.00015386
0.00014307
0.000192539
0.000172539
0.000157339
0.000142674
0.0156514
0.000153485
0.0257254
0.000154052
0.00019691
0.000143306
0.000146323
0.000258142
0.0294429
0.00018473
0.00017158
0.000141093
0.0296119
0.000147294
0.000142188
0.000186911
0.000155129
0.000206744
0.0295807
0.000192023
0.000892557
0.000178778
0.0182515
0.000146671
0.000147535
0.000186265
0.000159977
0.000181259
0.000192855
0.0431095
0.00016145
0.000146975
0.000161233
0.00022675
0.000180657
0.000146737
0.000195219
0.000193924
0.000181906
0.000148131
0.000146789
0.000233053
0.0001825
3.36153e-05
0.00379939
0.000155465
0.00018333
0.00014802
0.00017396
0.0177538
0.000148178
0.00021128
0.000179004
0.000188883
0.00315115
0.000146048
0.000145861
0.000142657
0.0227898
0.000217826
0.0001543
0.000245396
0.000198003
0.000147772
0.00014632
0.000250662
0.0226543
0.000244647
0.0289591
0.000231902
0.000163494
0.000238762
0.000200972