/*--------------------------------*- C++ -*----------------------------------*\
| =========                 |                                                 |
| \\      /  F ield         | OpenFOAM: The Open Source CFD Toolbox           |
|  \\    /   O peration     | Version:  v2012                                 |
|   \\  /    A nd           | Website:  www.openfoam.com                      |
|    \\/     M anipulation  |                                                 |
\*---------------------------------------------------------------------------*/
FoamFile
{
    version     2.0;
    format      ascii;
    class       volScalarField;
    location    "50";
    object      nut;
}
// * * * * * * * * * * * * * * * * * * * * * * * * * * * * * * * * * * * * * //

dimensions      [0 2 -1 0 0 0 0];


internalField   nonuniform List<scalar> 
13917
(
0.00279277
0.00159386
0.00104744
0.00573122
0.00481841
0.00173989
0.00301342
0.00222941
0.00284931
0.000695585
0.000736697
0.00683591
0.00368407
0.00461748
0.00409635
0.00185487
0.00701837
0.000950915
0.00185109
0.00294095
0.00174522
0.0068257
0.00285804
0.00682482
0.00535822
0.00148563
0.0012102
0.000303617
0.00104297
0.00651126
0.00018591
0.00298819
0.00679932
0.00847966
0.00684564
0.00565968
0.00652877
0.00698742
0.00267141
0.00119435
0.00687133
0.0070179
0.00295585
0.00196778
0.00198033
0.000234892
0.00198195
0.0044833
0.00460219
0.00684314
0.00683592
0.000509702
0.000439649
0.00684073
0.00684313
0.000571409
3.26976e-05
0.00322175
0.00697255
0.00182867
0.00965424
0.00637247
0.00670085
0.00532997
0.00569581
0.00645359
0.001127
0.00503068
0.000671206
0.00264749
0.00145712
0.00767705
0.00681624
0.00692707
0.00155499
0.00531169
0.00636298
0.00690236
0.00592669
0.0067889
0.00678503
0.0070335
0.00681273
0.000802793
0.0067144
0.0133832
0.0028807
0.00676385
0.00122017
0.00699041
0.00672698
0.0027637
0.003971
0.00684903
0.00680913
0.00117073
0.00217435
0.00691207
0.00675223
0.000917222
0.00678242
0.00676643
0.00678042
0.00681487
0.00636417
0.0018374
0.00601282
0.00638464
0.00694294
0.00117755
0.00673316
0.00881595
0.00110343
0.0046494
0.00534715
0.00512652
0.00198231
0.00677809
0.00124015
0.00678634
0.00698361
0.00687855
0.00133367
0.00162237
0.00335485
0.0017366
0.00551483
0.00139954
0.0068274
0.00171257
0.00256727
0.000431842
0.00758831
0.00597805
0.00241988
0.00123802
0.00903448
0.0038704
0.00127412
0.00698202
0.00840286
0.00688649
0.00171414
0.00678101
0.00680265
0.00702149
0.00160762
0.00836257
0.00334343
0.00684429
0.00142791
0.00673218
0.00679561
0.00678706
0.00239928
0.00671786
0.00681066
0.0088495
0.00689908
0.00681828
0.00672977
0.00818269
0.0061723
0.00895798
0.00766177
0.00117594
0.000149186
0.00652761
0.0066521
0.00124098
0.00680919
0.00792793
0.00279435
0.0100868
0.000770598
0.00680936
0.00604968
0.00042782
0.00261988
0.00606988
0.00311808
0.00681747
0.00683654
0.000456908
0.00126948
0.000437636
0.00683557
0.000453708
0.00649983
0.00833403
0.000708968
0.00212002
0.000622121
0.00309327
0.00684703
0.00351082
0.00325006
0.00679153
0.00684919
0.00675947
0.00270114
0.00270918
0.00264633
0.00658913
0.00099447
0.00189181
0.00132289
0.00689242
0.000481597
0.00678558
0.00674929
0.00404656
0.00225305
0.00367731
0.00266548
0.00134485
0.00911981
0.00688985
0.00661083
0.00660073
0.00722794
0.000507048
0.000233621
0.00671778
0.00671038
0.00115732
0.00254068
0.00660496
0.0066049
0.00687806
0.00660843
0.00660177
0.00687315
0.0040122
0.00682672
0.00664616
0.00111435
0.00680619
0.00693766
0.00671769
0.00102057
0.00214641
0.000518004
0.00943588
0.000485192
0.00678091
0.007295
0.00111561
0.00107581
0.00268709
0.00663618
0.00332567
0.00679343
0.00128223
0.000899276
0.00681568
0.00686117
0.00530659
0.00606557
0.00686852
0.00625611
0.0134337
0.00687356
0.00662029
0.00669688
0.00662648
0.00679334
0.00686972
0.00201078
0.0068994
0.00578685
0.00651759
0.00680555
0.00628886
0.00176781
0.00660637
0.000884068
0.00770567
0.00660294
0.00438796
0.00686385
0.00801277
0.00681101
0.00560347
0.00680829
0.00678188
0.000936656
0.00693129
0.00127097
0.00239128
0.0127228
0.00702707
0.000790661
0.00366409
0.00682399
0.00236098
0.00599826
0.00560927
0.00589981
0.00576058
0.00685253
0.00689548
0.000427393
0.00114176
0.00125466
0.00593176
0.00671747
0.00779607
0.00149996
0.00681919
0.00680866
0.00587448
0.00804657
0.00130959
0.00912421
0.00970637
0.00644969
0.000521798
0.00633344
0.000887706
0.0103931
0.00110709
0.00685749
0.00447656
0.00111597
0.00676552
0.00144537
0.00214127
0.00697594
0.00782319
0.00672065
0.00211529
0.00651015
0.000439935
0.0067082
0.00143275
0.00157841
0.0064551
0.00693401
0.00268238
0.00105563
0.00682098
0.0067678
0.00930559
0.0013048
0.0110031
0.00711466
0.00659791
0.00683012
0.00260756
0.000498923
0.00659251
0.00537241
0.00683849
0.000869972
0.00131506
0.000828078
0.000455388
0.000869769
0.00219749
0.007048
0.00683217
0.0068192
0.00512042
0.00125861
0.00696589
0.00231655
0.00259954
0.00819193
0.00684319
0.000408094
0.00686046
0.00296324
0.00690315
0.000353608
0.00204161
0.00143306
0.00681283
4.73494e-05
0.00655478
0.00797624
0.000515595
0.00687852
0.00326255
0.00675781
0.00744991
0.00671922
0.00359891
0.00765246
0.00661025
0.00127745
0.00082902
0.00669439
0.00812429
0.000777473
0.00667375
0.000850307
0.00683475
0.000957085
0.00111715
0.0067239
0.00300093
0.00591781
0.00677103
0.00671257
0.00683662
0.00927597
0.000982737
0.00683431
0.00684086
0.00683581
0.00174277
0.00403361
0.00652528
0.00665473
0.00136612
0.000461822
0.0067901
0.0066329
0.00972162
0.012645
0.00644249
0.00177633
0.000219785
0.00660177
0.00655456
0.00263035
0.00671119
0.00651713
0.00681833
0.0065505
0.00658356
0.0066663
0.00683345
0.00106462
0.00673875
0.00244003
0.00675542
0.0067911
0.00831883
0.00253825
0.00237976
0.00651069
0.00673152
0.00657729
0.00660655
0.00654733
0.00672615
0.00988209
0.00656348
0.00223668
0.00673149
0.00305813
0.00629754
0.00679412
0.00052101
0.0111615
0.00683811
0.0120791
0.00676265
0.00675772
0.00683338
0.00675601
0.00673877
0.00681379
0.00858519
0.00989334
0.00673401
0.000680875
0.00141308
0.00679273
0.0020257
0.00152709
0.0068692
0.00275881
0.00154001
0.0073432
0.00732707
0.00672404
0.00645858
0.00595148
0.00665505
0.00698085
0.00676408
0.00684077
0.00680729
0.00318774
0.00171661
0.00123891
0.00363868
0.007333
0.0061699
0.00124664
0.000760989
0.00683379
0.0042947
0.00260542
0.00239323
0.00928496
0.00671504
0.000672373
0.000412688
0.00670758
0.009883
0.00676811
0.00660173
0.00167766
0.00651438
0.00685529
0.000452952
0.00938765
0.00133604
0.00672665
0.00494616
0.00665103
0.00647073
0.00619655
0.00684007
0.00684247
0.00672161
0.00103953
0.00804695
0.00683785
0.00694543
0.00677078
0.00676286
0.00608788
0.00246552
0.00679798
0.00359957
0.00670792
0.00683679
0.00604958
0.00885057
0.00673536
0.00385351
0.00686569
0.00253993
0.0021517
0.00104855
0.000828657
0.000922677
0.00641254
0.00135922
0.0059818
0.00585577
0.00818546
0.00680856
0.00683495
0.00771817
0.00676673
0.00537124
0.00659651
0.0119437
0.00306296
0.00451897
0.000914306
0.00328257
0.000668232
0.0067346
0.00157065
0.00690495
0.00685296
0.0045261
0.00651888
0.00117009
0.00672781
0.00682693
0.00683642
0.00120067
0.00608483
0.0066479
0.00185879
0.00189069
0.00928134
0.000186043
0.00786105
0.00720881
0.00673112
0.00264291
0.00670022
0.00978725
0.00812937
0.00686601
0.00696461
0.0067699
0.00234629
0.00318367
0.00651192
0.00690232
0.00686671
0.000204406
0.00673537
0.00296826
0.00683664
0.00664471
0.00689904
0.00013572
0.00653918
0.000662631
0.00285492
0.00252403
0.000317002
0.00734453
0.0067266
0.00984273
0.00685613
0.00130292
0.00676803
0.000193356
0.00675775
0.00601363
0.00680769
0.00869164
0.00221608
0.00713013
0.00682925
0.00208178
0.00683947
0.0067634
0.00765835
0.0013134
0.00682085
0.000740669
0.00671737
0.00686887
0.00673444
0.00861646
0.00673442
0.00601634
0.00659756
0.00683642
0.000972415
0.00673571
0.00102935
0.00701508
0.006708
0.00931063
0.00295844
0.00684009
0.000460418
0.00120233
0.00256246
0.000371451
0.00673024
0.00344924
0.00807673
0.000835628
0.00298229
0.00652458
0.00569868
0.00698909
0.0068296
0.00642799
0.00166733
0.00385088
0.00796721
0.00214304
0.00460143
0.00749717
0.00181812
0.00161014
0.000652268
0.00531383
0.00685257
0.00552951
0.00640808
0.00670806
0.006858
0.00689879
0.00722843
0.00684889
0.00278603
0.00231304
0.00676225
0.00227904
0.00681968
0.00922363
0.00686628
0.00682924
0.00982667
0.00281892
0.0202921
0.00682373
0.00668466
0.00683262
0.00594281
0.00261861
0.00678733
0.00292127
0.00202652
0.0117785
0.0206207
0.00583244
0.00819883
0.00501901
0.00689578
0.00683516
0.00823613
0.00132244
0.00305699
0.00299466
0.00827985
0.00670971
0.00682521
0.00654656
0.00109198
0.0189011
0.0021792
0.00610375
0.00363803
0.00121433
0.00643316
0.00092196
0.00228219
0.00681165
0.00635363
0.00689975
0.00270603
0.00618336
0.000836382
0.00575963
0.00658924
0.00300741
0.00636927
0.00910324
0.00658154
0.00224956
0.00315906
0.000957996
0.00698924
0.00194028
0.00613043
0.00628061
0.00676983
0.00586966
0.00691829
0.00674376
0.00680048
0.00321976
0.00643063
0.000363361
0.000927605
0.00672702
0.000612081
0.00267453
0.00287846
0.000730988
0.00682087
0.00190427
0.00135047
0.00669643
0.00321526
0.000563391
0.00241843
0.00678835
0.00674261
0.00683211
0.00186719
0.00680274
0.00687515
0.00227292
0.00679497
0.00677199
0.0006079
0.00148979
0.00358295
0.0109271
0.000866657
0.00295093
0.00679919
0.0063017
0.000742745
0.00681534
0.00614636
0.00693514
0.00685475
0.00682714
0.00586423
0.00101736
0.00678891
0.00700525
0.00679878
0.00722457
0.00657229
0.00285366
0.00651903
0.00266267
0.00508012
0.00861036
0.00330695
0.00703912
0.00893098
0.0067745
0.00557282
0.00324598
0.00179435
0.00651449
0.0067934
0.00676472
0.00698991
0.00270779
0.00263735
0.0134088
0.00674028
0.00236399
0.00664436
0.00667919
0.00736087
0.00664207
0.00652634
0.00355776
0.00258368
0.00202253
0.00572989
0.0067399
0.00684949
0.000443061
0.00673072
0.00683994
0.0067055
0.0068375
0.00223322
0.00674145
0.00232854
0.00681324
0.00257143
0.00540335
0.0103701
0.00270394
0.00979549
0.00169521
0.00721594
0.0067062
0.00686671
0.00680115
0.00677208
0.00672419
0.00280149
0.00675688
0.0050246
0.0068433
0.000495903
0.00681256
0.00231463
0.000477863
0.00682191
0.0010942
0.00650229
0.00679316
0.0032917
0.0065443
0.00768448
0.00163502
0.0065996
0.00682109
0.00673493
0.00679463
0.00678948
0.00881701
0.00670844
0.00114925
0.0067514
0.00747599
0.00558777
0.00677064
0.00180239
0.00646988
0.00671062
0.0201131
0.00861319
0.00652141
0.00266618
0.00673639
0.00107477
0.00664412
0.00678597
0.00569385
0.00691156
0.00587395
0.00231279
0.00484786
0.00669838
0.00766531
6.49477e-05
0.00693562
0.00662956
0.00683829
0.00027694
0.00673215
0.00170903
0.00682946
0.00984067
0.00537813
0.00845253
0.00683707
0.00654249
0.00746485
0.00688919
0.00641333
0.00509881
0.00671573
0.00671706
0.0135201
0.00693481
0.00684232
0.00194438
0.00668921
0.00586251
0.00116067
0.00157992
0.000393718
0.00410077
0.0095841
0.00678841
0.00259344
0.00673592
0.00694666
0.00747117
0.0068239
0.00664505
0.00685369
0.00683913
0.00659035
0.00674494
0.00686238
0.00675852
0.00236989
0.00669158
0.00674566
0.00283201
0.00642135
0.00843648
0.00246858
0.00679417
0.0073771
0.00674368
0.000438633
0.00748839
0.000174819
0.00657978
0.0067075
0.00676166
0.00683954
0.00657816
0.00658186
0.00674042
0.00154779
0.00671756
0.00202739
0.0109945
0.00673588
0.00670369
0.00673767
0.00683432
0.00637035
0.00893363
0.000693472
0.00683058
0.0196891
0.00684414
0.00683553
0.000556263
0.00685997
0.0049533
0.00603358
0.00741886
0.00675429
0.0068964
0.00251394
0.00472633
0.00671968
0.00837733
0.00647446
0.00694134
0.00657223
0.0067381
0.00673771
0.00185888
0.00219723
0.00392517
0.00903247
0.00216339
0.00455618
0.00173515
0.0068642
0.008756
0.0068792
0.00909221
0.000969497
0.00281533
0.00674489
0.00915962
0.00137739
6.91952e-05
0.00678332
0.0072815
0.00659271
0.00675589
0.00219086
0.00681533
0.00682635
0.000493359
0.00446015
0.00689958
0.00241256
0.00666224
0.00672433
0.00657299
0.0127958
0.00856616
0.00678876
0.00670562
0.00292033
0.00678835
0.00683425
0.00300415
0.00626121
0.006792
0.0117954
0.00679108
0.00395101
0.00560217
0.00654177
0.00715191
0.00682546
0.00681567
0.00747275
0.00480645
0.00743797
0.00690792
0.00223979
0.00572451
0.00527616
0.0066991
0.00816384
0.00620972
0.00673658
0.00373205
0.00677531
0.00628611
0.0027315
0.00150966
0.00189922
0.000411024
0.0161794
0.0106656
0.00924075
0.00699042
0.000626971
0.00657942
0.00102089
0.000976725
0.00994823
0.00352565
0.00683073
0.00329501
0.00524754
0.00669442
0.00808582
0.0020209
0.000548535
0.00943615
0.00685463
0.00134123
0.00664269
0.00684119
0.00610248
0.00423677
0.00649231
0.00672327
0.00674207
0.000693973
0.00672032
0.00671664
0.00345101
0.00678802
0.00682114
0.000468771
0.00174061
0.00673353
0.00681534
0.00151784
0.00751892
0.0018023
0.00931491
0.00682918
0.00673399
0.000514159
0.00687789
0.0066807
0.00903892
0.00769451
0.00409758
0.000951376
0.00614532
0.00180949
0.0012399
0.00193333
0.000976319
0.00683184
0.00125089
0.00534815
0.00125036
0.00924332
0.00280633
0.00655642
0.00683398
0.0068743
0.00682527
0.00683517
0.00064798
0.00690681
0.00195753
0.00669188
0.00193577
0.0073837
0.00668751
0.00761754
0.0129824
0.00673757
0.00174861
0.00618492
0.0067314
0.00674666
0.00858584
0.00290038
0.00542171
0.00302951
0.00772629
0.000531071
0.00667362
0.0108007
0.00214018
0.0068901
0.00677772
0.000605833
0.00674711
0.00572651
0.00153815
0.0062962
0.00554816
0.00360146
0.00709308
0.00673211
0.000400022
0.00672305
0.00684242
0.00674058
0.00704496
0.000236381
0.000397677
0.00678146
0.00235821
0.00679919
0.00606222
0.0026207
0.00681988
0.0067166
0.00654502
0.00673797
0.00701006
0.00656832
0.000120576
0.00677656
0.003482
0.00433712
0.00685413
0.00249657
0.00815664
0.00702807
0.00682292
0.00679954
0.00671098
0.00675616
0.00154464
0.00691552
0.00677018
0.000469753
0.00295401
0.00364034
0.00336573
0.00688303
0.00635258
0.00200873
0.00684092
0.00120012
0.00692915
0.00675485
0.00681844
0.00946114
0.00189848
0.00477873
0.0067861
0.000424453
0.00682979
0.00156069
0.00696087
0.00671872
0.00957178
0.0120971
0.00684475
0.00391526
0.00203856
0.00168534
0.00680035
0.00674055
0.00674428
0.00675127
0.00673867
0.00231885
0.000837112
0.00480381
0.00157658
0.00307487
0.00263301
0.000543664
0.00680905
0.00172179
0.000306197
0.000883715
0.00574927
0.00672274
0.00670775
0.00743657
0.00672834
0.00722016
0.00532416
0.000988455
0.00683682
0.00673325
0.00073888
0.00305726
0.00673265
0.00673317
0.00863122
0.00107623
0.00716877
0.00681984
0.00683971
0.00278031
0.00682161
0.00664496
0.000492862
0.0107166
0.00327561
0.0023908
0.00680823
0.000211687
0.00671953
0.00649773
0.0053103
0.00669063
0.000857827
0.00672204
0.00674545
0.000413631
0.00271785
0.0071328
0.00118573
0.00671534
0.00310987
0.00677106
0.00682576
0.00655424
0.00680887
0.00683338
0.000896931
0.00681759
0.00125192
0.00621612
0.00651289
0.00679254
0.00676026
0.00683
0.00875009
0.00645535
0.00373878
0.00296444
0.00684449
0.003782
0.00245636
0.00283335
0.00682525
0.00655626
0.00673929
0.00675998
0.00402823
0.00197007
0.00811073
0.00679957
0.00684256
0.00647996
0.00141766
0.00677123
0.00887361
0.00202303
0.00690942
0.00671676
0.0066915
0.00179743
0.00621794
0.00234026
0.00603502
0.00629734
0.00642295
0.00050069
0.00655923
0.00761505
0.00669695
0.00648038
0.0041696
0.00668587
0.00669269
0.0094119
0.00684133
0.00682386
0.000464292
0.000575167
0.00172024
0.00679779
0.0031677
0.000573286
0.00626394
0.00673916
0.00757561
0.00673766
0.00680655
0.00384579
0.00669562
0.00946093
0.00702342
0.00674732
0.00676314
0.00674391
0.00630597
0.00689085
0.00674
0.00277573
0.00671587
0.00676518
0.0067154
0.00674002
0.00287241
0.00682319
0.00642374
0.00670447
0.000832542
0.00447248
0.00670502
0.00670562
0.00679332
0.00671639
0.00349004
0.00680631
0.00686568
0.00682401
0.0067487
0.00677984
0.00680355
0.00131702
0.00669881
0.00265257
0.00682952
0.00124393
0.0067733
0.00683168
0.00678382
0.00649733
0.00138421
0.00591935
0.00297685
0.0083243
0.00738845
0.00903515
0.00898446
0.00264442
0.00320213
0.00683719
0.00679573
0.00134718
0.00889225
0.00647607
0.00706479
0.00672883
0.00141889
0.007165
0.00366564
0.00259121
0.0033223
0.00652289
0.00685687
0.00293729
0.00674004
0.0106412
0.00364083
0.00899123
0.00351872
0.00683759
0.00468498
0.00087282
0.00703501
0.00643752
0.00631451
0.00667796
0.00671084
0.00636418
0.00794309
0.00674311
0.00264413
0.00682503
0.00126148
0.000407234
0.00683338
0.00678333
0.000273127
0.00682085
0.00673716
0.00613431
0.0067262
0.00355737
0.00357492
0.00271463
0.0091335
0.0067381
0.000846724
0.00681081
0.00637529
0.00112356
0.0117941
0.00676247
0.00294055
0.00677492
0.00685016
0.00337839
0.00681911
0.00742416
0.00675681
0.00673463
0.00673274
0.0068278
0.00671053
0.015555
0.0104201
0.0109997
0.00683676
0.00679438
0.00672442
0.00810285
0.00684125
0.000820297
0.00686009
0.00334699
0.00670043
0.00682236
0.000749134
0.0068388
0.00699348
0.00756627
0.00200394
0.00941765
0.00689712
0.00433175
0.0137107
0.00683955
0.00819535
0.00684011
0.00630046
0.00766267
0.00660863
0.0012806
0.00523258
0.00520519
0.00305779
0.00678415
0.00020215
0.00674001
0.0144419
0.0067217
0.00426871
0.00674115
0.00674617
0.0065457
0.00709977
0.00680166
0.00749046
0.000654727
0.00389335
0.0067417
0.00331725
0.00560386
0.00308648
0.00287334
0.000958289
0.00677307
0.00119818
0.00271856
0.00653633
0.000951476
0.00651527
0.000587337
0.0021927
0.00681466
0.0026845
0.00671687
0.00323601
0.00280951
0.00649683
0.00649684
0.0127934
0.0104085
0.00672969
0.00539152
0.00673314
0.0068381
0.00238275
0.000895045
0.000624998
0.00682736
0.00264285
0.00939257
0.00541298
0.00711179
0.000165246
0.00671418
0.00673065
0.00106265
0.00951046
0.00522981
0.00767189
0.000821292
0.00122076
0.00253105
0.00640174
0.00709468
0.00908971
0.00671096
0.00138848
0.00176079
0.000681177
0.00679375
0.00290114
0.000888079
0.00126023
0.00990899
0.00694664
0.0155238
0.00890894
0.00115551
0.00672976
0.00673246
0.00229115
0.00681007
0.00827488
0.00257757
0.00659492
0.000305321
0.00544558
0.00670493
0.00199427
0.00248587
0.00679962
0.00595271
0.00673373
0.00709524
0.00681979
0.00874744
0.000658545
0.00128891
0.00647359
0.00381213
0.00416854
0.00646308
0.000434011
0.0030236
0.00257306
0.00285322
0.00662959
0.00384052
0.00684876
0.00100809
0.00244375
0.00673724
0.00670291
0.00674575
0.000847334
0.0105129
0.00684048
0.000854422
0.00034141
0.00671425
0.00568363
0.00656656
0.00594631
0.0050086
0.00926559
0.00115578
0.00270359
0.00646953
0.000141259
0.00674075
0.00114073
0.00616123
0.00413815
0.000945691
0.00227994
0.00295619
0.00978676
0.00422215
0.0067813
0.00278503
0.00129574
0.00669121
0.00140839
0.00211058
0.000433351
0.00593807
0.000760608
0.00721706
0.000675113
0.00614452
0.00333822
0.00178569
0.00668187
0.00682324
0.00681544
0.00673433
0.000695688
0.00151204
0.00647173
0.00147562
0.00106909
0.00673735
0.00997573
0.006736
0.00651582
0.00684013
0.00668658
0.00676517
0.00285242
0.00674033
0.00682338
0.0026564
0.00119348
0.00623407
0.000690477
0.00261666
0.00262863
0.0162264
0.00680073
0.00675444
0.00651981
0.00682277
0.00633542
0.00140756
0.00393108
0.00795673
0.00682588
0.00681049
0.00338313
0.00675041
0.00686614
0.000602401
0.00331091
0.00696366
0.00685537
0.00964563
0.00677978
0.006934
0.00674127
0.000575929
0.00670407
0.00145998
0.00906384
0.00676872
0.000774613
0.0065296
0.00230816
0.00683359
0.00681772
0.00345525
0.0110674
0.00672254
0.00682987
0.00690176
0.00699267
0.00102728
0.00683745
0.00323432
0.00671373
0.00693443
0.000512815
0.00210384
0.00656708
0.00112011
0.00208121
0.00849725
0.00507037
0.00691335
0.00676248
0.00816246
0.006803
0.00312584
0.00679585
0.00216817
0.00674769
0.00679818
0.00521716
0.00818149
0.00672781
0.00676281
0.0067057
0.00100275
0.00163519
0.000448513
0.00672745
0.00655523
0.00672056
0.00902389
0.00670831
0.000317393
0.00281605
0.00682376
0.000288502
0.00252627
0.00673572
0.004869
0.00666872
0.0022023
0.00134045
0.000501938
0.00682726
0.00682893
0.0067565
0.00935327
0.00678776
0.00682571
0.004146
0.00670165
0.00615909
0.00360201
0.0068234
0.00685659
0.00986944
0.00349611
0.00374083
0.0066888
0.00666411
0.013911
0.00683558
0.000627202
0.000985269
0.00681261
0.00649896
0.00666252
0.00674026
0.00278952
0.00272141
0.00860203
0.00702179
0.00674372
0.00671351
0.00126356
0.00050003
0.00675268
0.00658509
0.00416884
0.000863922
0.00677648
0.00536396
0.00682347
0.0063487
0.006381
0.00662013
0.00674138
0.00266653
0.00761918
0.00682006
0.00515294
0.00669628
0.0013202
0.000643856
0.00668237
0.00766549
0.00373941
0.00672842
0.00949494
0.00322663
0.0132392
0.0032418
0.00199206
0.00625738
0.00685017
0.00613981
0.00681577
0.00125428
0.000941433
0.00686253
0.00363036
0.000823927
0.00824687
0.00671891
0.000439289
0.00668066
0.00224566
0.00686879
0.00680825
0.00438837
0.000255038
0.00215424
0.00680109
0.00608382
0.00185008
0.00664101
0.00469552
0.00323655
0.00683901
0.000664772
0.00684092
0.00621184
0.00678951
0.00664297
0.00683704
0.00670938
0.00582087
0.00647252
0.00672717
0.0027276
0.0030142
0.00646705
0.00154681
0.0068314
0.00672957
0.00671925
0.00678683
0.00630101
0.0062891
0.00108177
0.00179158
0.00246925
0.00937755
0.00264659
0.00842087
0.00870135
0.00648804
0.00674727
0.00486445
0.0067544
0.00684107
0.00682559
0.00687039
0.000863163
0.00224747
0.00134814
0.00673459
0.0067301
0.00196128
0.00683106
0.00683016
0.00683616
0.00951776
0.00199754
0.0015746
0.00677464
0.00464979
0.00682784
0.00680998
0.00679784
0.00277103
0.00674902
0.00119754
0.0088964
0.00111298
0.0070429
0.00890698
0.00697047
0.00262528
0.0182084
0.000466569
0.00650364
0.00680436
0.00666248
0.00729027
0.00662716
0.00186795
0.00478749
0.00136176
0.00840828
0.0142918
0.00313717
0.00600092
0.00674949
0.00671236
0.0106903
0.000339578
0.00678566
0.00678277
0.00282168
0.00671212
0.000455707
0.0068535
0.00670121
0.00635293
0.00678261
0.00139782
0.00896835
0.00749871
0.00350918
0.00681042
0.000589394
0.00676265
0.000593292
0.00673083
0.00151444
0.00184534
0.00682982
0.00683967
0.00665518
0.000466962
0.00166575
0.00104652
0.00367619
0.00221983
0.000940829
0.00280489
0.00141748
0.00280877
0.00674332
0.0073656
0.00678753
0.00945694
0.000710572
0.00683775
0.00366339
0.00704921
0.0011089
0.00688642
0.00683943
0.00504789
0.00682616
0.00679393
0.00344227
0.00681604
0.00270746
0.000626466
0.000230124
0.00804034
0.00326828
0.0011937
0.0067663
0.00680668
0.0068058
0.000386182
0.00244756
0.0084155
0.00103399
0.00645626
0.00672785
0.00680125
0.000819266
0.00653447
0.00674322
0.00425522
0.000807939
0.0026883
0.00121124
0.00247611
0.00805362
0.00229431
0.0027311
0.00675143
0.00299833
0.00106307
0.00223582
0.00101527
0.00674532
0.0102674
0.00222557
0.00679342
0.00192784
0.00942925
0.00772845
0.00197136
0.00671464
0.00853235
0.00682906
0.00671486
0.00645793
0.00340958
2.25035e-05
0.00697821
0.00751159
0.00353264
0.00690891
0.00236956
0.000967117
0.00828894
0.00209361
0.00633599
0.00681972
0.00336066
0.00696219
0.00486737
0.00255554
0.00678011
0.00941226
0.0067588
0.00679377
0.0119276
0.000544764
0.002003
0.00131296
0.00326572
0.00570875
0.000171812
0.0067894
0.00672068
0.00677574
0.00165642
0.00674997
0.00337206
0.00443605
0.00421524
0.000280788
0.00657725
0.00518626
0.00688361
0.00939392
0.00733133
0.00677734
0.00683066
0.00301841
0.00106865
0.000913579
0.00149384
0.00932628
0.00674968
0.00588886
0.00671795
0.000445817
0.00571472
0.00281151
0.00053759
0.00684164
0.00683638
0.00676976
0.00677009
0.00672779
0.00265815
0.00750601
0.00286712
0.00713304
0.00433487
0.000260061
0.00935867
0.00819968
0.0040948
0.0057677
0.00106215
0.00278457
0.00670047
0.00683726
0.00301192
0.00553161
0.00669151
0.00830989
0.00896428
0.006763
0.00680503
0.00689199
0.000537398
0.00681738
0.00147949
0.0077011
0.00671264
0.0067179
0.00675224
0.0067993
0.00190736
0.00853133
0.00169748
0.000797331
0.000450973
0.00673505
0.00476955
0.000438407
0.00696625
0.000700952
0.000395252
0.00863112
0.00244433
0.00673034
0.0068406
0.000349244
0.00879791
0.000453553
0.0007661
0.00682822
0.00667939
0.0065829
0.00374869
0.00220799
0.00129354
0.00683033
0.00280863
0.00788572
0.00860937
0.00673833
0.00677931
0.00921341
0.00817543
0.00681965
0.00346017
0.000594839
0.00672674
0.00672633
0.00880949
0.00673776
0.000857275
0.00490461
0.002552
0.00674474
0.000613233
0.00114936
0.00678872
0.00656679
0.00865965
0.00652833
0.00680071
0.00246427
0.000472348
0.000868097
0.00692741
0.00631254
0.0039062
0.00305612
0.0202869
0.0017179
0.00671364
0.000560075
0.00671679
0.00647725
0.00676531
0.00134605
0.000654086
0.00358373
0.00624895
0.00680836
0.00673471
0.00669605
0.0062924
0.00953898
0.00369064
0.00335223
0.00297657
0.00115801
0.00291095
0.0111169
0.00458446
0.0102065
0.00662012
0.00342573
0.0017327
0.00406142
0.000467462
0.0205611
0.00681338
0.00273415
0.00813238
0.00385694
0.00232095
0.00276662
0.00215113
0.00190928
0.00518426
0.00166474
0.00150794
0.0013281
0.00110557
0.0016308
0.00254806
0.00612061
0.00671876
0.00240864
0.00233862
0.00674463
0.00042371
0.00610047
0.000274988
0.00938952
0.00660868
0.0067178
0.00338357
0.0027581
0.0063053
0.00658502
0.00189484
0.00959023
0.00413822
0.00682229
0.00387174
0.00345911
0.000900945
0.00788726
0.00330966
0.000420194
0.0086724
0.00212264
0.00708007
0.000686143
0.00469681
0.00648116
0.00665489
0.00536287
0.00922157
0.0067774
0.000741821
0.00047069
0.00631546
0.00678583
0.00170013
0.00681058
0.00684422
0.00686034
0.00949977
0.00105212
0.000625834
0.0068425
0.00108121
0.000637764
0.00915935
0.00691493
0.00679664
0.00672611
0.00657685
0.00692102
0.00523985
0.00222281
0.00783289
0.00248699
0.0006954
0.00856035
0.00693286
0.0067227
0.00853158
0.0068197
0.0058091
0.00670825
0.00748909
0.00611019
0.00678018
0.0072208
0.00678095
0.00194879
0.0160878
0.00686568
0.00660956
0.00591012
0.000915613
0.00688161
0.000447091
0.00948259
0.00699462
0.00695142
0.00289664
0.000625667
0.00632876
0.00769951
0.000463813
0.00117917
0.00178401
0.000907818
0.00643822
0.0067829
0.00671729
0.00670188
0.00057484
0.000979928
0.0107736
0.00113846
0.00134624
0.00677882
0.00773269
0.0151113
0.000663958
0.00672608
0.00541621
0.0066468
0.00925425
0.00737142
0.00720475
0.000534415
0.00182187
0.000839123
0.00666106
0.00280423
0.000434333
0.000636535
0.00107503
0.00675529
0.00167824
0.00681498
0.00677699
0.000614446
0.00385318
0.00179977
0.00683307
0.000518839
0.000606608
0.00891562
0.00332423
0.00452723
0.00282827
0.00681359
0.00135015
0.00682891
0.00150517
0.0068501
0.000430534
0.00666189
0.00182917
0.00340088
0.014663
0.0069833
0.00100563
0.00925932
0.00127052
0.00660959
0.0134176
0.00139466
0.00692124
0.00673253
0.00237808
0.0024946
0.000388848
0.00107145
0.007049
0.00450773
0.00697713
0.00465093
0.00891438
0.00168491
0.00132169
0.00235458
0.00199979
0.00218321
0.00393024
0.00204623
0.006773
0.000518881
0.00246974
0.000604025
0.00393038
0.00734426
0.000473633
0.000304957
0.00284602
0.0151952
0.00653367
0.00757423
0.000431451
0.000270101
0.00203758
0.00671117
0.00662788
0.00827513
0.00514031
0.00630425
0.00681878
0.00106368
0.00358032
0.00306854
0.00142668
0.00918435
0.00392137
0.00908409
0.000417724
0.00391047
0.00681511
0.000230986
0.00881415
0.00698903
0.0019188
0.00663971
0.00373272
0.00680707
0.00261976
0.00676148
0.00678635
0.00625353
0.000285374
0.0066991
0.00623965
0.00679335
0.0068343
0.00674098
0.00680298
0.00682404
0.000697692
0.00803009
0.00669181
0.00762418
0.00298671
0.00273458
0.000177905
0.00242521
0.00407519
0.00245208
0.00671625
0.00301128
0.00463296
0.00586936
0.00696547
0.000959906
0.000585529
0.00106113
0.000156803
0.00892851
0.0067078
0.00599819
0.001366
0.00308632
0.00155079
0.00679335
0.00532782
0.00084681
0.00679514
0.00549953
0.00671846
0.00300827
0.00138939
0.0104461
0.000899518
0.000988634
0.00622271
0.00683027
0.00685367
0.00317613
0.00671794
0.00682811
0.00683059
0.00370327
0.00677286
0.00672201
0.00675583
0.00109665
0.00667657
0.00473162
0.00686323
0.00273878
0.00137074
0.00650104
0.00350824
0.0061069
0.00673673
0.00225343
0.00257126
0.0069068
0.00677791
0.00940894
0.00334446
0.00809042
0.00336236
0.000532233
0.00673002
0.00684032
0.001124
0.00733705
0.00286557
0.00169649
0.00658385
0.00919084
0.00681139
0.00672247
0.00265679
0.00362692
0.000515117
0.00929077
0.00214511
0.00249695
0.00110653
0.00447641
0.00683838
0.00682816
0.000757754
0.00306977
0.00330697
0.000582856
0.00942823
0.00389082
0.00681778
0.00275441
0.00109122
0.00214047
0.00679929
0.00207135
0.00152105
0.00176957
0.00682042
0.0067901
0.000487308
0.00126282
0.000107132
0.00828297
0.00658861
0.00287888
0.00682298
0.00266497
0.00723388
0.00684253
0.000484073
0.00693647
0.000731726
0.00484867
0.00678339
0.00683341
0.00671699
0.00572319
0.00119161
0.00664639
0.00100723
0.00174497
0.00681846
0.00683776
0.000645303
0.00543972
0.000462956
0.00897427
0.000545392
0.00256048
0.00107877
0.00158384
0.00264447
0.00890523
0.00205563
0.00864794
0.00680455
0.00143933
0.00142514
0.00679088
0.012385
0.00119712
0.00159312
0.00369906
0.0011706
0.00677215
0.00607967
0.00314453
0.00670677
0.00679428
0.00672182
0.00675545
0.00678223
0.00677985
0.00333557
0.00683762
0.00679935
0.00296393
0.00259573
0.00675999
0.00145815
0.00437515
0.00683548
0.00673867
0.00336049
0.00612569
0.000319283
0.00678735
0.00677418
0.000649103
0.00030561
0.00682347
0.00681202
0.0004361
0.00351258
0.000484577
0.00158466
0.0068383
0.00122877
0.00345696
0.00679497
0.000620115
0.00637441
0.00690023
0.00128119
0.00683936
0.00282542
0.0068423
0.00452233
0.00674756
0.00677845
0.00315353
0.00186246
0.000226892
0.00142167
0.00679885
0.00316509
0.0097526
0.000980044
0.00101202
0.00210275
0.00679415
0.0010139
0.0138304
0.00121725
0.0135813
0.00383567
0.00845547
0.0198319
0.00554682
0.0068266
0.000568794
0.00679887
0.0023177
0.00914154
0.00683521
0.000938141
0.00684245
0.00946217
0.00136729
0.00667461
0.0022439
0.00928454
0.0160623
0.0038911
0.00279119
0.0026347
0.00669925
0.00780203
0.00668363
0.00195
0.00673071
0.00638023
0.00879579
0.00279834
0.006734
0.00576964
0.000494277
0.00682839
0.00683729
0.00251777
0.00633838
0.00678969
0.00388038
0.00647647
0.00682817
0.00674944
0.00320433
0.00147592
0.00111708
0.00671486
0.00336872
0.00851213
0.00519191
0.00662749