/*--------------------------------*- C++ -*----------------------------------*\
| =========                 |                                                 |
| \\      /  F ield         | OpenFOAM: The Open Source CFD Toolbox           |
|  \\    /   O peration     | Version:  v2012                                 |
|   \\  /    A nd           | Website:  www.openfoam.com                      |
|    \\/     M anipulation  |                                                 |
\*---------------------------------------------------------------------------*/
FoamFile
{
    version     2.0;
    format      ascii;
    class       volVectorField;
    location    "100";
    object      ddt0(U);
}
// * * * * * * * * * * * * * * * * * * * * * * * * * * * * * * * * * * * * * //

dimensions      [0 1 -2 0 0 0 0];


internalField   nonuniform List<vector> 
13917
(
(-0.0304573 -0.0157252 2.00934e-17)
(-0.0250552 0.0111517 1.8026e-19)
(0.0224809 -0.016571 -6.4044e-18)
(-0.000829958 -8.65315e-05 4.87794e-20)
(-0.00235268 0.00955711 -3.71755e-19)
(-0.0255171 0.006491 1.62449e-18)
(-0.00201803 0.00053423 -5.05516e-19)
(0.00060598 0.0787016 1.45659e-18)
(-0.000937628 0.00119254 -3.8493e-18)
(-0.00351164 -0.0109084 -1.52897e-19)
(-0.00235699 0.071584 -2.13973e-18)
(-0.000658753 7.23497e-05 -2.22502e-19)
(-0.0010597 3.02551e-07 -1.32603e-20)
(0.135255 0.0681888 -5.37209e-19)
(-0.00548177 -0.00641909 1.52129e-18)
(-0.0314869 -0.00900131 -2.77525e-17)
(-0.000119783 3.04582e-06 1.2318e-19)
(0.00674429 0.0541107 -1.69726e-19)
(0.0173951 0.00487466 5.20516e-18)
(-0.0824006 -0.0871113 1.59506e-17)
(0.00901259 0.000628302 1.20693e-19)
(-9.16227e-05 -0.000101108 2.11041e-19)
(-0.00147534 0.0047986 -6.80493e-18)
(-0.000107264 -0.000101364 -1.99428e-19)
(-0.000763713 -0.000409663 -2.92677e-18)
(0.0111343 0.00469383 -7.52597e-19)
(-0.205736 -0.312955 -1.3719e-17)
(-0.00299462 -0.00662572 1.15327e-17)
(0.014039 0.0234664 2.15828e-18)
(-0.000296261 -0.000270254 6.88382e-22)
(-0.00455307 -0.0130162 -2.09605e-17)
(0.00264127 0.000700628 -6.21779e-18)
(-0.000719754 -9.47925e-05 -1.42162e-18)
(-0.00286352 -0.0191874 6.66283e-18)
(7.92796e-05 -0.00039121 -1.98038e-19)
(-0.00216365 0.0940174 -1.08569e-18)
(-0.000186339 0.000900689 -1.82477e-19)
(-0.000566787 -5.93055e-06 -7.59988e-22)
(-0.0019806 0.000650205 -6.0851e-18)
(0.00192225 -0.011824 7.1124e-19)
(-0.00015893 3.41419e-06 -4.64615e-19)
(0.000887117 0.000368772 -2.24815e-19)
(-0.00086435 0.000929731 1.65407e-18)
(0.0117617 -0.00256103 -2.37417e-17)
(0.0124064 -0.00136314 9.41313e-18)
(-0.038291 0.0981869 2.50217e-18)
(0.00742192 0.000424689 -3.84645e-20)
(0.152538 -0.0856101 -6.49825e-18)
(-0.0835645 0.0460386 -4.1805e-19)
(2.75647e-05 -0.000389994 3.39669e-19)
(-0.000679281 7.89416e-05 -5.69813e-19)
(-0.0130138 0.0457106 -6.82852e-19)
(0.0197607 -0.00148646 2.36775e-17)
(-0.000661323 -0.000293346 -8.24503e-20)
(-0.000679592 -0.000187203 -3.74405e-19)
(-0.0084505 0.0439626 1.57037e-18)
(0.00835803 -0.0171979 7.3055e-18)
(-0.00184543 0.00478493 -3.82705e-18)
(0.000728738 0.000504605 -3.86504e-19)
(-0.0518462 0.0998079 3.64216e-18)
(0.146971 0.152115 -1.04747e-18)
(0.00154112 -0.00983109 1.45296e-19)
(-0.000224456 -4.64981e-06 -2.90455e-20)
(-0.000759021 -0.000351823 5.28846e-18)
(-0.00608598 -0.0388522 1.08591e-17)
(0.00173775 -0.0165656 -6.10436e-20)
(0.01285 0.0313873 -5.81504e-19)
(-0.0139419 0.0961518 -5.37404e-18)
(0.0098307 0.0616188 3.91407e-18)
(0.00460686 -0.0053053 2.00532e-17)
(-0.00496259 -0.031551 2.18683e-18)
(-0.00382378 -0.0171841 -1.73231e-17)
(-0.000675887 9.27436e-05 5.71154e-19)
(0.000551451 0.000415904 3.05765e-19)
(0.00994469 -0.00060575 -1.9726e-19)
(-0.000249428 -0.000385745 3.181e-18)
(0.000784989 0.00271387 -4.45356e-19)
(0.000444728 0.00047991 -1.09925e-19)
(-0.000306904 -0.000319017 -3.13208e-18)
(-0.000722064 -0.00010984 -7.95358e-19)
(-0.000689566 -0.000781386 4.32538e-20)
(-0.000142525 7.38492e-06 -7.74034e-20)
(-0.000678857 0.000104464 -2.1958e-18)
(-0.0124708 -0.0317135 -3.83668e-18)
(-0.000781966 -5.87725e-05 -1.44066e-18)
(0.0722893 0.0513662 -1.02384e-18)
(0.00233374 0.000890459 -6.63609e-19)
(-0.000825945 -2.63919e-05 5.15234e-19)
(0.00306593 -0.0107227 -1.88e-19)
(-0.000116027 3.96437e-06 -3.55735e-19)
(-0.000112511 1.48635e-05 3.28561e-19)
(-0.000837612 0.000981971 -3.1593e-18)
(-0.0637992 0.0166939 3.3155e-18)
(0.000208818 7.37677e-06 1.29106e-20)
(-0.000820915 -0.000239179 3.39269e-19)
(0.0167709 0.0269425 2.46996e-18)
(0.0370059 -0.137879 -3.05363e-18)
(-0.000189867 7.26562e-07 -1.84158e-19)
(-0.000801223 -2.9508e-05 1.38636e-19)
(0.0500054 -0.0832665 -2.67888e-18)
(-0.000201506 -1.03998e-07 -2.00292e-20)
(-0.000215835 1.92803e-06 -9.68821e-20)
(-0.000775194 -0.000798976 -8.47054e-20)
(-0.000177033 5.35975e-06 -3.2395e-19)
(0.000225663 0.00251246 3.37273e-19)
(0.00698868 -0.0244566 1.86659e-17)
(0.0304743 -0.111864 -7.89766e-18)
(0.00429749 -0.0099218 8.93801e-19)
(0.00117633 0.000465709 2.20899e-19)
(-0.258061 -0.350225 8.60342e-18)
(-0.000981708 2.88228e-05 3.61909e-19)
(-0.00476521 -0.0223066 -6.92124e-18)
(0.0169451 0.0194396 -1.0026e-18)
(0.14053 -0.10819 -3.85367e-18)
(-0.00738902 -0.0373037 -9.55929e-18)
(0.000143048 -0.000366603 4.21801e-19)
(0.015579 0.00497164 -1.53716e-18)
(-0.000193548 1.53575e-05 -1.26145e-19)
(0.0224117 -0.0106914 6.12827e-18)
(-0.000608215 0.000222276 -5.62086e-18)
(-0.000125241 1.01457e-05 4.00781e-19)
(0.000305351 0.000267079 -9.52607e-19)
(0.0154336 0.0362555 -9.87824e-20)
(0.00801696 0.0197619 -4.57169e-18)
(0.0282552 -0.00375739 1.96617e-18)
(-0.0135411 -0.0315783 1.31822e-17)
(-0.00080192 -0.000295518 -7.95765e-18)
(0.0116983 -0.000700092 2.00942e-19)
(-2.36222e-05 -5.1777e-05 -2.60093e-20)
(0.00954536 0.0191782 3.15776e-18)
(-0.00110733 0.00179561 -7.81542e-19)
(-0.139907 -0.011256 -9.71949e-20)
(0.0183976 -0.0165859 3.14469e-19)
(0.000202327 -0.000251535 9.76894e-20)
(0.00461071 -0.000604017 8.72245e-19)
(-0.245704 -0.354928 -1.42355e-17)
(0.128758 0.210664 3.795e-18)
(0.0444236 -0.00211146 1.8459e-18)
(0.0128859 0.00780762 4.37942e-19)
(-0.000551337 -4.58349e-06 -9.58916e-21)
(0.107803 0.0903919 -5.04658e-18)
(0.00036613 0.000401301 7.64573e-20)
(0.00730781 -0.0244041 -1.89844e-17)
(-0.000363203 -0.000120531 -3.28518e-20)
(-0.000688199 3.31687e-05 -2.50379e-18)
(0.00320035 0.00292523 -3.58548e-19)
(-0.0057135 -0.0309956 1.52415e-18)
(0.0717297 0.0799058 -3.56093e-18)
(0.1304 -0.139315 1.2574e-17)
(-0.000668763 -0.000266514 -3.84151e-19)
(0.00310172 -0.00813284 2.27203e-18)
(-0.000230753 4.46514e-06 -2.60693e-20)
(-0.000688798 4.25194e-05 -1.12862e-18)
(-0.000610134 0.000252803 -2.6224e-19)
(-0.00985205 -0.166767 1.80733e-17)
(-0.000733243 -0.000196564 2.33214e-19)
(-0.000173593 8.67204e-06 3.75904e-19)
(0.0241145 -0.0135483 2.19003e-17)
(-0.000174306 4.56604e-06 -1.37059e-19)
(-0.000178661 1.14857e-05 1.52208e-19)
(-0.00057499 -8.75501e-05 2.83237e-19)
(0.0584706 -0.0214198 -1.28659e-17)
(-0.0016757 0.00272158 2.26266e-19)
(0.0854934 0.140477 2.11918e-18)
(0.126122 0.0216813 -3.84904e-19)
(0.0816562 -0.104984 -9.49446e-19)
(0.0123882 -0.000822548 -7.21154e-18)
(0.145879 0.0115172 7.14013e-18)
(-0.000274884 1.91651e-05 -2.18753e-20)
(0.0150343 0.00903414 -6.8481e-19)
(-0.000106849 -5.57817e-05 -3.38678e-19)
(0.00903359 -0.020021 1.11711e-17)
(-0.000890989 0.0011998 7.00322e-18)
(0.144864 0.160955 9.24353e-19)
(-0.0251121 0.0114306 2.14451e-19)
(-0.000223213 7.70634e-06 -9.14857e-20)
(-0.00084477 -7.17791e-05 -9.59484e-19)
(-0.0176363 0.055004 8.94241e-19)
(-0.00112396 0.00174876 -4.4955e-18)
(-0.00182147 0.00331185 -5.5642e-20)
(-0.000932948 0.000823278 -1.6769e-18)
(-0.000156717 -7.75447e-05 -2.19341e-19)
(-0.000679745 8.26455e-05 -4.19117e-19)
(0.0267269 0.0586489 -1.43696e-19)
(0.023992 -0.0103964 -1.51151e-17)
(-0.148576 -0.0303042 4.87828e-19)
(-0.000660105 8.55e-05 1.12538e-18)
(0.023506 0.0640989 -7.18701e-19)
(-0.000340902 -0.000288845 7.90059e-21)
(0.064284 0.0480922 1.86013e-18)
(-0.0275312 0.00946695 -6.55553e-19)
(0.0108896 -0.000518565 -7.50016e-18)
(0.0191348 0.0413623 -7.66402e-19)
(-0.0416416 -0.0232454 1.90502e-18)
(0.000194243 -4.7129e-05 6.42437e-19)
(0.0250897 -0.00411347 -2.68629e-17)
(-0.00152154 -0.00140107 3.73948e-18)
(0.0159882 -0.0178773 -1.19243e-17)
(9.92506e-05 -0.000335447 -2.48365e-19)
(-0.000576636 -0.000221354 1.08733e-18)
(0.00514427 -1.25404e-05 -1.45665e-20)
(0.000154117 -0.00578809 -7.32555e-18)
(0.0435376 -0.00165103 -4.66447e-18)
(-0.00104188 0.000562905 -1.88724e-21)
(-0.265809 -0.25579 7.73716e-18)
(7.8506e-06 0.0145868 -7.49967e-19)
(0.00235547 -0.00904225 -2.42938e-18)
(0.000388362 0.000293012 5.79153e-19)
(-0.0123547 0.0514103 -7.63211e-20)
(-0.000615991 -0.000827471 -8.06784e-21)
(-0.000156853 -9.28154e-05 -7.62153e-19)
(-0.00930588 0.0188532 3.00781e-18)
(-0.00851893 0.0221433 -1.17129e-18)
(0.143016 -0.106752 5.92258e-18)
(0.00401503 -0.000355461 -2.32713e-18)
(0.0131042 0.00520175 5.19564e-19)
(0.0179684 -0.0565987 -6.43724e-19)
(-0.000682972 -9.56168e-06 -1.91177e-19)
(-2.42141e-05 8.23879e-05 6.49957e-21)
(-2.67886e-05 0.000100359 4.79985e-19)
(0.146615 -0.000378139 -2.65694e-17)
(0.0214373 0.0507365 8.03998e-19)
(0.0247933 0.0784481 2.20787e-20)
(-0.000887872 -2.18357e-06 -8.61076e-19)
(-0.000183125 -1.07706e-06 4.64869e-21)
(-0.270164 -0.382052 9.07063e-18)
(0.02248 -0.00315656 2.05206e-17)
(-6.33211e-05 6.64511e-05 -4.40478e-19)
(-6.11072e-05 6.64081e-05 2.99924e-20)
(-0.000148561 4.20483e-06 -1.50576e-19)
(-1.74494e-05 0.000113825 1.26758e-19)
(-2.17341e-05 0.000137706 -4.81916e-19)
(-0.00659455 -0.0160244 1.54884e-17)
(0.138977 -0.0715254 -1.57051e-17)
(-0.000171322 -0.000409358 4.81688e-20)
(-0.000279424 -2.10896e-06 3.62425e-21)
(-0.00970117 0.0200162 -8.15256e-19)
(0.00603833 -0.010785 -1.02165e-17)
(-0.000160914 1.04e-05 -5.14212e-20)
(-0.000908744 3.9254e-07 6.6768e-19)
(-0.271372 -0.298699 -2.54414e-18)
(0.0103361 -0.0213716 -6.46123e-18)
(0.0248595 0.0535991 -3.65521e-18)
(0.0137333 -0.0594448 1.3431e-17)
(-0.0413407 0.0257681 9.2922e-19)
(-0.000369168 -0.000106696 -1.15351e-19)
(0.141121 0.0136325 3.56828e-18)
(-0.00774637 0.0216743 1.23191e-18)
(0.0145203 0.0172566 -8.01136e-19)
(0.00654574 0.00671427 -2.96218e-18)
(-0.000968991 0.000428064 -7.74661e-20)
(0.134588 -0.0920059 -1.15708e-17)
(-0.000630689 0.000186991 -9.04774e-19)
(-0.0100264 -0.00672289 -3.69297e-19)
(-0.0211975 0.00858336 -1.10559e-18)
(-6.44308e-05 -0.000406193 2.88087e-19)
(-0.000124182 1.15826e-06 4.63526e-19)
(-0.00080474 -0.000342234 2.15297e-18)
(-0.00688366 0.00104049 3.66246e-19)
(0.000491835 0.000165292 -3.0777e-20)
(0.0277445 -0.00623452 2.10787e-17)
(-0.117424 0.333747 -2.48503e-18)
(0.000192602 -6.85445e-05 -2.28863e-19)
(-6.66203e-05 5.1607e-05 1.94427e-19)
(-0.000782324 -2.36147e-05 -7.60679e-19)
(-6.52294e-05 4.58777e-05 7.97157e-19)
(-0.000616777 0.000213581 2.10987e-18)
(-0.00109465 1.27236e-06 -4.79753e-20)
(-0.00551745 0.00193716 3.63145e-18)
(0.000238635 -0.00010967 -1.1777e-18)
(0.0471728 -0.00216067 -1.36869e-17)
(0.0393587 -0.102272 1.04046e-17)
(-0.000670225 3.31338e-05 1.61874e-20)
(-0.0032698 0.0017458 2.62757e-19)
(-0.0712246 0.120793 1.95715e-19)
(-0.000151918 0.000216559 -8.232e-20)
(0.0370525 -0.0645861 -2.25572e-18)
(0.0278089 -0.00770951 -1.70808e-17)
(-0.000138495 0.000239147 -1.08124e-19)
(0.0064308 -0.00729878 -5.43266e-18)
(0.000413043 0.000206406 6.63415e-20)
(0.0632795 -0.0111029 -2.09505e-17)
(-0.000208829 5.38301e-06 3.05341e-19)
(-0.00277973 -0.00499449 7.82145e-19)
(1.1259e-05 -0.000435094 -1.77061e-19)
(-0.00030231 -0.000206197 -5.43312e-20)
(0.0296338 0.0147861 -7.0908e-18)
(-0.000400106 -5.93528e-06 1.18986e-20)
(0.0678021 -0.12761 3.09272e-18)
(-0.00142293 -0.00303142 -1.45437e-18)
(-0.114877 0.295411 2.95098e-18)
(0.00414525 0.002681 -8.94397e-20)
(-0.197166 -0.208944 -5.21921e-18)
(0.04766 -0.00148282 4.27881e-18)
(-0.000169662 1.79285e-05 5.55068e-19)
(-0.00407497 0.00812961 2.89125e-18)
(-0.00610347 0.0045085 9.2352e-19)
(0.000459471 -0.000159743 1.69437e-19)
(-0.00371008 0.00777029 -3.37967e-19)
(-0.000396102 -0.000369395 7.59435e-19)
(0.000272774 7.84838e-05 -6.01123e-19)
(-0.000378524 -6.4087e-06 6.96966e-20)
(-0.0299722 0.0548833 -2.2324e-18)
(0.0222036 0.010836 -1.37793e-18)
(-0.00896973 -0.00646427 -6.53369e-19)
(-0.000454675 -0.000315762 -2.12126e-18)
(-0.000897468 5.21322e-06 -4.46974e-18)
(0.0214422 -0.01497 -2.68591e-17)
(-0.00359327 -0.00473347 -8.76667e-18)
(-3.71775e-05 -0.000102971 -5.64592e-19)
(-0.00679025 -0.000208898 -1.60248e-19)
(0.000394341 -0.000315681 3.18825e-18)
(-0.0511583 0.0911218 5.23319e-19)
(0.00252712 -0.0102241 1.95979e-17)
(0.0114317 -0.0905216 3.86502e-18)
(0.145382 0.153455 -2.51195e-18)
(0.00815924 -0.0093059 -1.4209e-20)
(-0.116922 -0.0124071 2.16194e-18)
(-0.00311818 0.000862489 4.81647e-19)
(-0.0106926 -0.0314259 2.93857e-18)
(-0.0450398 0.112226 -1.43656e-19)
(0.0203645 -0.0169722 -1.65837e-17)
(-0.00111295 -1.05977e-06 6.38642e-19)
(-0.00426564 -0.00644236 -1.78098e-18)
(-0.210116 -0.293367 7.22369e-18)
(-0.000189259 5.6862e-05 8.80848e-20)
(-0.0287717 0.0147656 1.96038e-18)
(0.0109438 0.000638181 5.88652e-18)
(-0.000125317 4.07496e-06 9.75116e-20)
(0.00708057 -0.021209 5.17558e-18)
(-0.000856575 -4.37685e-05 1.16801e-18)
(-0.000787215 0.0017134 -1.14758e-17)
(-0.000165021 0.000228562 -2.21231e-19)
(-0.147498 -0.0819378 2.15608e-17)
(-0.000306497 -1.9278e-05 -8.01152e-20)
(-0.00792459 -0.0049934 -9.29485e-19)
(0.00217811 0.0153769 8.15754e-19)
(0.00930547 -0.00492699 1.77174e-20)
(-0.000112553 8.04578e-06 -2.36625e-20)
(0.00650387 0.0048198 -1.008e-17)
(0.000327699 -0.0298147 1.44483e-17)
(-0.000745862 -0.00018624 2.26845e-19)
(-0.000281383 1.59166e-05 -1.51919e-19)
(-0.00351071 -0.024724 1.60751e-17)
(0.0034131 -0.0278829 -1.54713e-17)
(0.106837 0.105585 8.9064e-19)
(0.136482 0.0763207 7.11682e-19)
(-0.000144669 0.000229795 1.35249e-19)
(-0.000353514 -0.000521303 -5.27849e-20)
(0.0130487 -0.0181562 -3.54047e-18)
(-0.110739 0.00178666 4.43618e-19)
(-0.000130595 0.000252111 -2.52623e-19)
(-0.00609725 0.00669854 -6.99971e-19)
(-0.000653111 -7.19212e-07 -1.08526e-18)
(0.0286637 -0.00753973 5.02245e-19)
(-0.00874538 -0.0051399 2.35334e-19)
(0.00994652 0.0325372 2.98341e-18)
(-0.0568189 -0.00558278 9.28186e-20)
(0.0418868 -0.0584991 1.56741e-18)
(-0.000641129 0.00175507 -7.02853e-18)
(-0.0215041 -0.0290188 6.0483e-18)
(-2.95122e-05 -5.52733e-05 -2.61962e-19)
(-0.000720884 -0.000136364 -2.41606e-19)
(-0.00255086 0.0114188 1.62651e-18)
(0.0333171 0.00331467 1.02193e-17)
(-0.000144979 9.08514e-06 -3.26644e-19)
(-0.0413977 -0.0158693 -4.69491e-18)
(-0.000679859 0.00175639 6.0687e-18)
(0.00508739 0.0397297 -8.87721e-19)
(-0.000728072 -0.000194505 1.20999e-19)
(-0.0859324 0.00032372 8.31188e-19)
(-0.00582323 0.00157676 1.08329e-19)
(-0.0758814 -0.0451161 1.87986e-18)
(0.000368578 0.00104516 -9.14276e-20)
(0.028777 0.0715514 1.03535e-18)
(-0.0643239 0.117617 -9.65626e-18)
(0.00327046 0.0181994 -6.89381e-19)
(-0.000680211 2.97301e-05 1.52578e-19)
(0.0431083 -0.0103262 -8.82471e-18)
(-5.26355e-05 0.000363856 -4.01002e-19)
(0.1329 0.0328533 -1.19255e-17)
(0.0229535 0.0438772 2.83127e-18)
(0.000135081 0.00110814 1.18504e-18)
(-0.080139 -0.00640945 -2.82648e-18)
(0.000382771 -0.00044374 -7.57562e-19)
(0.0260004 0.0446773 9.37272e-19)
(9.94606e-06 6.47685e-05 -4.21893e-20)
(-0.0606363 -0.0964923 -9.57655e-18)
(0.0176452 0.057314 -3.96905e-19)
(-0.000100721 0.000420016 -8.51186e-19)
(-0.293824 -0.392771 -1.14576e-17)
(0.0377284 -0.0428448 -6.72636e-20)
(-0.000966568 0.000173488 1.44499e-22)
(0.109652 0.043412 -6.04564e-19)
(-0.0146495 -0.0123314 1.00056e-17)
(-0.000257065 0.000231185 2.35328e-19)
(0.0311471 0.0176488 8.16169e-18)
(-0.000470402 -0.000493255 -1.23421e-20)
(0.0455782 -0.0398352 9.28651e-19)
(0.0228147 -0.0146848 1.85227e-17)
(-0.000818725 -3.62392e-05 -7.94569e-19)
(-0.00148232 0.000877545 7.70394e-18)
(-0.000527778 -0.000348224 -1.10555e-18)
(-0.000346314 -0.000162863 -9.76833e-21)
(-0.000497235 -0.000121792 8.19609e-20)
(-1.26125e-05 -8.89774e-05 7.99596e-19)
(0.117808 0.22631 -1.27415e-19)
(0.0598099 -0.115239 -6.36153e-19)
(-0.000671022 -0.000171323 4.29738e-19)
(5.22346e-05 -6.01876e-05 1.49153e-18)
(-0.000205337 -0.000140592 -3.60134e-20)
(-0.00833552 0.00711489 -2.23893e-18)
(-0.0427909 0.103768 -1.66861e-18)
(-0.000201823 0.000139277 -2.83654e-19)
(-0.00028151 1.05866e-05 1.07966e-20)
(0.00327837 -0.00942245 -4.58344e-18)
(-0.083525 -0.00977822 1.86735e-18)
(-0.000322813 -0.000194516 2.85967e-20)
(-0.000204124 0.00037297 1.21925e-18)
(0.131903 0.153597 -1.12305e-17)
(0.00957569 -0.146974 3.96842e-18)
(0.00477503 -0.0217171 3.11617e-20)
(0.0182836 0.00324368 1.52417e-18)
(-0.00711041 -0.0310947 8.68748e-18)
(0.000135691 0.000159672 5.65252e-20)
(-0.000197645 0.000141522 -1.80711e-19)
(0.00574999 0.00316369 2.02427e-19)
(-0.000506174 -0.000115885 -9.91729e-20)
(-0.000197503 0.000142349 -1.74224e-19)
(-0.000151778 -0.000450817 -5.9866e-19)
(-0.000192255 0.000155216 -2.19237e-19)
(0.000117643 0.000190485 2.29808e-20)
(0.13818 -0.00882389 4.87372e-18)
(-0.000516508 -0.000531991 9.74446e-20)
(-0.00132642 -0.0134253 1.07108e-18)
(0.0461867 -0.00274193 3.94079e-18)
(-0.00488132 0.00768294 -2.58766e-18)
(-0.000159166 -8.19477e-05 5.65827e-19)
(-0.000684173 2.47274e-05 7.39867e-19)
(0.101423 0.0318238 -1.04932e-17)
(0.0054787 0.000958555 -1.37942e-20)
(0.0287932 -0.00279949 3.08188e-18)
(-0.000188743 0.000177285 -2.33476e-19)
(-0.000763435 4.99752e-05 2.90164e-18)
(9.92583e-06 0.000300222 4.25725e-19)
(-1.75564e-05 0.000159647 -1.95957e-19)
(-0.00037603 0.000806738 -2.68419e-20)
(0.000631635 -0.000283617 7.23489e-19)
(0.121999 0.15776 2.51692e-18)
(-0.00546447 0.00398782 2.83112e-19)
(0.0099644 -0.021795 1.58348e-17)
(-0.000743044 5.59046e-05 1.06962e-18)
(-0.00143878 0.00226738 3.28806e-19)
(-0.00318778 0.00771016 -8.48101e-20)
(-0.000529818 -0.000773834 -5.40864e-20)
(-0.0360344 0.0270623 -1.72667e-20)
(0.11294 0.117178 -6.38246e-19)
(-0.000655433 5.60421e-06 6.80107e-19)
(-0.121418 -0.266228 -1.415e-17)
(-0.000151801 -5.43709e-05 2.96272e-19)
(-0.000523506 -3.28271e-05 -5.42157e-20)
(-0.000213089 -0.000160775 8.85237e-21)
(0.000312083 -0.000572656 -1.02581e-18)
(-0.000170477 -0.000114761 -4.44029e-19)
(-0.000800045 -1.44924e-05 1.13569e-20)
(0.021193 -0.015202 6.31955e-18)
(0.151476 0.150543 1.96141e-18)
(-0.000166812 -0.00012264 5.6508e-19)
(-0.233277 -0.192723 8.56737e-18)
(0.0053203 -0.00885841 -7.45183e-18)
(-0.00106611 9.60914e-07 -4.29174e-19)
(-0.00499556 0.0100562 5.1946e-19)
(-0.00180313 -0.000654641 -1.9243e-18)
(0.108155 0.0081924 -2.00663e-18)
(-0.00144104 0.00110573 1.21102e-18)
(0.00558693 -0.025968 4.73036e-18)
(0.0372505 0.0414157 -1.98821e-19)
(0.0454955 0.0224049 -5.0648e-20)
(0.00058798 -0.000453829 3.1886e-19)
(0.00406167 -0.012506 8.57195e-20)
(-0.00229245 0.0100428 7.36597e-19)
(-0.00103961 0.000271686 2.83834e-20)
(0.0716692 0.0930575 -1.37739e-18)
(-0.000107874 1.11602e-05 -2.07984e-19)
(-0.000653692 -0.00027231 2.7646e-19)
(-0.000789653 -0.000179212 3.05812e-19)
(-0.00122853 0.00100822 7.52402e-18)
(0.00699328 -0.00306856 -1.12222e-19)
(0.0236127 -0.00599789 -9.67408e-19)
(0.00101953 0.00462915 -1.24147e-18)
(0.0029852 -0.00115186 1.84584e-19)
(-0.00437785 0.00226861 -1.92509e-19)
(0.0142829 0.0473177 -3.31622e-18)
(-0.00891647 -0.0236975 -2.62083e-19)
(-0.000682996 -0.000209649 2.76787e-19)
(0.145482 0.0663742 1.11978e-20)
(-0.00388246 0.00259672 -1.58854e-18)
(-0.00170869 -0.00282482 2.2754e-18)
(0.140335 0.062988 2.22135e-18)
(-0.000874286 -5.034e-05 5.47209e-19)
(-0.0106954 -0.0260198 1.97073e-19)
(-0.0172108 0.0619674 1.69236e-18)
(-0.000381933 -4.05636e-05 -6.78597e-20)
(0.03314 -0.00920344 1.69559e-17)
(-0.000532731 -3.27819e-05 -5.44901e-20)
(-2.14695e-05 0.000188214 7.84508e-20)
(-0.00773771 0.00805525 2.7084e-18)
(-0.000195008 0.000148659 1.48145e-19)
(-0.000667461 -1.34245e-05 2.0005e-19)
(-0.0359295 0.0497001 -3.17854e-19)
(0.0311121 -0.00787718 2.80685e-18)
(-0.263657 -0.405926 -1.53334e-17)
(-0.000624939 -8.51922e-05 -1.22057e-18)
(-0.000903663 0.000118548 -3.47315e-18)
(0.000648447 -0.00222545 -3.2918e-19)
(0.0503374 0.116882 -8.34708e-19)
(-0.0159519 0.129094 -9.97413e-18)
(-0.000688282 -0.000269579 -2.73078e-19)
(-0.000664213 -0.000219743 6.71893e-19)
(-0.000642094 -6.94731e-05 5.48977e-19)
(-0.0169893 0.00746507 5.13245e-19)
(-0.0780293 -0.00734223 4.16277e-19)
(1.32351e-05 -6.34886e-05 -1.87963e-19)
(-0.000144869 1.26981e-05 1.71165e-19)
(-0.0005403 -0.000330853 -6.21997e-19)
(-0.000389427 -0.000146386 -9.76325e-21)
(0.00223179 0.0046534 -2.22441e-19)
(-0.00319418 -0.00104481 8.75577e-19)
(-0.000110315 1.35479e-05 -1.14526e-20)
(0.00104109 0.00514844 -6.87227e-18)
(-0.00039275 -3.72988e-05 -8.53757e-20)
(-0.000175332 -0.000129125 7.22412e-19)
(-0.000558423 -0.000307362 -2.34524e-18)
(-0.0108422 -0.0731054 -2.73496e-17)
(-8.67786e-05 5.35877e-05 -4.90635e-19)
(-0.00119356 0.000331225 -3.94323e-18)
(0.000485688 5.68291e-05 -2.88219e-19)
(-0.00151609 0.00215755 4.48181e-19)
(-0.00197546 0.0137654 -6.00915e-18)
(0.0341551 0.00802193 4.3213e-19)
(-0.0222358 0.0102967 2.21053e-19)
(0.0473002 -0.0982781 9.14538e-19)
(-0.000472348 -0.000132575 9.94741e-19)
(0.010473 0.0416668 1.94262e-18)
(0.0130799 -0.0194699 4.74119e-18)
(0.133645 -0.01833 -8.80928e-18)
(0.0452782 -0.00333277 -2.05426e-17)
(-5.84381e-05 -0.000192627 1.21015e-19)
(-0.000246284 -0.000212402 -2.39408e-19)
(0.00384351 -0.00162368 8.67805e-19)
(-0.00069541 7.6857e-05 3.23707e-19)
(-0.0105709 -0.036534 2.84478e-18)
(-0.000167234 0.000221479 3.61391e-19)
(-0.0829264 0.119138 -8.68119e-20)
(-0.00162437 -0.00128165 -3.70166e-18)
(-0.00225094 -0.0262848 5.69641e-18)
(0.0377146 -0.0747827 -1.45427e-19)
(-0.00092301 0.000883659 6.91244e-18)
(0.0122451 -0.144456 1.89971e-17)
(-0.000158473 -0.000139545 -7.75256e-20)
(-0.000658622 2.75346e-06 -6.44743e-18)
(-0.000165338 1.40431e-06 -9.70526e-19)
(0.000189381 0.00129538 -9.94585e-19)
(-0.000531353 -0.0251288 2.73133e-18)
(-0.00020347 0.000148353 -6.0375e-20)
(0.00880568 -0.021068 -3.41663e-17)
(-0.000193955 6.03132e-07 7.02684e-20)
(-0.00106974 7.73588e-07 -4.26929e-19)
(-0.000224203 -0.000183644 1.06363e-20)
(0.0218941 -0.00565353 5.63806e-18)
(0.00143335 0.00562956 -1.67e-19)
(-8.21375e-05 3.85388e-05 2.82594e-19)
(0.0103137 -0.00411025 -4.00907e-18)
(-0.00596169 0.00940501 -3.65821e-18)
(0.0220533 -0.272067 -5.76436e-18)
(-0.00335404 -0.0297649 1.06304e-17)
(0.0226525 -0.013969 -1.4214e-17)
(0.115656 0.00972372 -1.11439e-17)
(-8.82724e-05 4.56892e-05 2.40629e-19)
(0.0167353 -0.00397688 3.9141e-18)
(-0.000285723 5.34839e-06 -3.1298e-20)
(0.139995 0.190361 -3.29876e-18)
(0.086386 0.0757051 -1.78676e-18)
(3.50005e-05 0.001795 -9.80915e-21)
(-0.00447588 0.00472261 -1.4474e-19)
(-0.000213617 2.39922e-07 8.58564e-20)
(-0.00396518 0.00239314 -2.37935e-18)
(-0.000903553 0.000806008 4.98442e-18)
(-0.00020465 0.000138257 1.02936e-19)
(-0.00018624 1.78463e-06 2.97281e-19)
(-0.00104699 -8.74864e-07 4.54731e-19)
(0.0048077 -0.0273922 -9.37575e-18)
(-0.000613122 -0.000141348 -8.93444e-19)
(0.00154677 0.000970249 2.88591e-18)
(-0.000635104 -0.000294226 9.3983e-20)
(-8.64437e-05 3.4482e-05 -1.15796e-19)
(-0.000178724 6.25068e-06 5.5636e-20)
(-0.0333853 0.0877134 4.95668e-19)
(0.0607269 0.0235634 -2.10673e-18)
(-0.119225 -0.17803 -1.55862e-17)
(0.00537007 0.00666101 -6.07036e-18)
(-0.00311445 -0.000821666 -1.28218e-18)
(0.0699966 0.0260635 9.86326e-18)
(0.00839362 -0.0112427 -3.5857e-18)
(2.76633e-05 6.87469e-05 -1.25595e-18)
(0.086608 0.107317 1.71588e-18)
(-0.00102534 1.46051e-06 5.0619e-18)
(-0.0034492 -0.00377941 2.52488e-18)
(-0.000691717 7.42117e-05 2.14166e-18)
(0.0427403 -0.0109446 -8.91435e-18)
(-0.000384561 -0.000159638 2.58096e-20)
(0.00360558 0.00444755 2.65888e-19)
(-0.000715808 4.80861e-05 3.27523e-18)
(0.0401775 -0.197942 1.31494e-17)
(-0.0048711 0.00246715 5.04226e-18)
(0.00109118 -0.0437223 -2.4523e-17)
(-0.000119956 8.68033e-06 -1.12813e-20)
(-0.00514532 0.00160111 2.2735e-18)
(-2.94412e-05 -0.000217544 5.93904e-19)
(-0.000179549 2.18828e-06 -1.70794e-19)
(-0.0216045 -0.0349111 -7.3479e-18)
(0.0997793 -0.0736627 -1.99541e-18)
(-0.000113903 -0.000282228 2.09248e-19)
(0.0127169 0.0353241 4.22247e-18)
(-0.000907925 3.61238e-06 3.80959e-18)
(-0.000339284 0.000569746 8.44204e-19)
(-0.000200322 3.05617e-06 -2.96732e-20)
(-0.0165507 -0.0370335 -9.12489e-18)
(-0.000633719 -0.000146496 7.64692e-19)
(-0.00765462 0.00269948 -5.78011e-19)
(-0.000177201 0.000196332 1.11215e-19)
(-6.0246e-05 -0.000274728 5.83021e-19)
(0.0338858 0.00540753 -8.31828e-18)
(-0.00021598 2.71389e-06 5.13143e-20)
(0.0152927 0.025204 -5.7643e-19)
(-0.000145056 3.11547e-06 -1.27237e-19)
(-0.000306763 -2.20397e-05 -2.01999e-19)
(0.139595 0.173717 1.71621e-19)
(0.00176172 0.000734775 -3.32338e-18)
(-0.000682645 -0.000289386 3.56669e-19)
(0.0453842 -0.000295481 -2.36401e-17)
(0.00690855 -0.0200976 4.6763e-17)
(-0.0960726 0.0504504 2.28849e-18)
(-0.0228052 0.0647336 1.52738e-18)
(-0.000160036 -0.00014212 1.37475e-20)
(-0.00647031 -0.00777876 8.27485e-19)
(-0.0176076 -0.0750433 2.11303e-18)
(-0.005258 -0.0204853 -2.81253e-18)
(0.00477975 0.00261674 -1.03313e-19)
(-5.91732e-05 0.000788467 -2.083e-19)
(0.00500699 0.00483137 1.48467e-18)
(-0.000135764 3.37809e-06 -2.69512e-20)
(-0.000108293 -0.000212608 -5.88724e-19)
(0.0104935 -0.0121879 -2.13653e-19)
(-0.00237458 0.0167272 1.15056e-18)
(-0.000733347 -0.0011919 6.83248e-20)
(0.146898 0.060262 -6.62803e-18)
(-0.00467852 0.00285856 -6.95797e-18)
(-0.0693218 0.122536 -2.66792e-18)
(0.00826515 0.142313 1.50961e-17)
(0.024206 0.00564339 -1.25044e-19)
(-0.00721878 -0.00248304 -1.11965e-19)
(0.0203396 0.0365905 1.20221e-18)
(0.00496012 -0.00878529 1.00207e-17)
(0.00026606 1.74287e-05 4.62991e-19)
(0.0126614 -0.00766174 8.43604e-19)
(0.0133827 -0.00765344 7.43851e-20)
(-0.000312948 -2.71825e-05 9.45792e-21)
(-0.000116279 1.61113e-05 -2.48791e-19)
(-0.000184109 7.21936e-06 1.85437e-19)
(0.00101034 -0.00296787 -4.69816e-19)
(-0.000749066 -1.0673e-05 -2.20254e-19)
(0.0158183 -0.00443148 1.95305e-18)
(-0.000861134 0.0017942 5.37336e-18)
(-0.000219413 -1.55485e-05 1.65018e-19)
(0.0096539 0.00132195 -5.91185e-19)
(-0.000114368 1.0917e-05 -4.1411e-19)
(0.0172379 -0.0847278 2.12763e-17)
(0.000383937 0.000272014 -9.37801e-19)
(-2.19555e-05 -5.61862e-05 3.31691e-19)
(0.0331924 -0.00738158 8.32816e-18)
(-0.00149961 0.0114336 -7.97275e-18)
(0.00964871 -0.123839 3.08056e-19)
(-0.000716857 1.85402e-05 -2.79201e-18)
(-0.000884191 0.00105081 -8.89358e-21)
(-3.58734e-06 -0.000165593 -2.19338e-19)
(-0.000814575 7.69283e-05 1.07629e-18)
(-0.00233189 0.00090329 -9.44716e-18)
(-0.000261503 -0.000278473 -1.33606e-19)
(0.0370046 -0.00264135 6.81438e-18)
(-0.00201734 -0.00417652 -3.70984e-19)
(-0.0631434 0.177351 1.01785e-18)
(0.0228936 -0.081479 -3.36463e-18)
(0.0135075 -0.00465002 -2.83396e-21)
(0.0232905 -0.0131891 3.3566e-18)
(-0.000920546 8.14485e-05 1.2986e-18)
(-0.000190118 1.35683e-06 -4.13512e-20)
(-5.21621e-05 -0.000212521 5.5024e-20)
(0.026188 -0.00883709 1.73725e-17)
(-0.270997 -0.383685 5.43867e-18)
(-0.00158839 -0.00158613 6.5593e-19)
(0.0309934 -0.0033035 1.4279e-17)
(-0.0537731 0.0187241 1.63618e-19)
(-0.000300884 -2.00029e-05 -8.474e-20)
(-3.23628e-05 -8.45461e-05 -2.74299e-19)
(-0.000564286 0.000884034 6.33625e-20)
(0.00225473 -0.0283826 -1.82634e-17)
(0.0273312 -0.126549 -2.63829e-18)
(-0.00538899 0.00239083 1.90804e-18)
(-0.000791783 5.52877e-05 1.10854e-18)
(-0.00123666 0.000289243 4.73572e-18)
(-0.00416327 -0.00384677 -1.01771e-17)
(-0.00236165 0.000697452 -9.01715e-19)
(0.0109871 0.0288912 4.4394e-19)
(-0.00085416 0.00180668 -8.97801e-18)
(-0.000803872 -0.000296797 -1.21446e-19)
(-0.000716825 -0.000106193 1.89728e-18)
(-0.000195434 1.44233e-07 1.8567e-20)
(-0.00234268 0.000780887 3.76231e-18)
(-0.00525732 0.001027 -8.73935e-19)
(-0.0136745 -0.0133904 -2.22839e-17)
(0.000771897 2.47604e-05 2.84835e-20)
(-0.00312106 -0.000645334 1.1729e-18)
(0.0341699 -0.00289038 3.23457e-18)
(-0.000388151 -0.00141974 -2.59657e-21)
(-0.0655279 0.0334047 -6.10889e-18)
(-0.000141688 0.000615867 4.27515e-19)
(-0.0143116 0.00628117 -1.29959e-18)
(-0.00192043 -0.00083657 -6.33112e-19)
(-0.00490019 -0.0199784 -3.49527e-18)
(-0.000132338 1.01272e-05 2.96887e-19)
(-0.000836762 0.000460159 1.98977e-17)
(0.0568817 0.0221741 5.3341e-18)
(-0.00241354 0.0185447 -1.20014e-19)
(-0.000678974 7.67418e-05 9.41105e-19)
(0.000699787 -0.000182416 1.77168e-18)
(-0.000752436 -7.80408e-06 -1.58726e-19)
(-0.000741313 5.81925e-05 -1.12737e-18)
(-0.000675304 9.05231e-05 3.00818e-18)
(0.014992 -0.00278132 -5.76702e-20)
(-0.00564547 0.00622079 9.26247e-20)
(-0.0403142 0.082716 -8.32352e-19)
(0.0143721 0.0282778 -2.92927e-18)
(-0.000140804 -0.000144002 1.02614e-19)
(-0.0150274 -0.0164582 9.49647e-18)
(-0.000966253 0.00114641 -3.06012e-18)
(-0.00128121 0.0010035 -1.00646e-17)
(0.0168613 0.0342724 -5.25309e-18)
(-0.000337837 -0.000562111 -6.94161e-20)
(-0.000398156 -2.09394e-06 -7.70692e-18)
(0.0346354 -0.145107 -3.04263e-18)
(-0.00010374 5.26596e-05 5.21246e-20)
(-0.000818588 0.0107744 3.01964e-18)
(-0.0379508 0.0118456 -3.44269e-19)
(-0.000885491 0.00181043 -2.83949e-18)
(-0.000145273 -9.12443e-05 1.86041e-19)
(-0.000180223 -8.20297e-05 6.37845e-19)
(-9.1223e-05 -0.000182819 5.46601e-19)
(0.00112146 -0.00415729 -3.11557e-18)
(-0.000693292 -6.42351e-05 1.6539e-18)
(0.000397402 0.000418055 -2.27357e-19)
(-0.000753262 0.00173238 5.0567e-18)
(-0.000265339 -0.00027346 1.67002e-19)
(-0.000117079 -7.85243e-05 5.73746e-19)
(-0.00814291 0.0401432 -8.55662e-19)
(0.0810961 -0.116956 -3.85667e-18)
(0.024155 0.00670895 4.75477e-20)
(-0.0412534 -0.187895 -2.38544e-18)
(0.0248715 -0.00608313 -1.91341e-19)
(0.0156891 -0.0149293 -1.89593e-18)
(-0.000675624 0.000120395 2.20973e-18)
(0.00101216 0.00322442 1.08907e-18)
(0.0610866 0.00753345 9.41286e-18)
(-0.000530474 0.00167024 -5.31994e-19)
(0.00678027 -0.0182422 2.98136e-19)
(-0.000111914 6.01081e-06 5.05517e-19)
(-9.99794e-05 1.47712e-05 4.62125e-19)
(-0.000710869 -2.19105e-05 1.5131e-18)
(0.00112164 0.000324608 -2.83695e-19)
(0.0378508 0.00518101 -7.41321e-19)