/*--------------------------------*- C++ -*----------------------------------*\
| =========                 |                                                 |
| \\      /  F ield         | OpenFOAM: The Open Source CFD Toolbox           |
|  \\    /   O peration     | Version:  v2012                                 |
|   \\  /    A nd           | Website:  www.openfoam.com                      |
|    \\/     M anipulation  |                                                 |
\*---------------------------------------------------------------------------*/
FoamFile
{
    version     2.0;
    format      ascii;
    class       volScalarField;
    location    "750";
    object      p;
}
// * * * * * * * * * * * * * * * * * * * * * * * * * * * * * * * * * * * * * //

dimensions      [0 2 -2 0 0 0 0];


internalField   nonuniform List<scalar> 
13851
(
0.000352089
0.0124674
-0.0182841
0.000320411
-0.0391679
0.0110435
-0.0208241
-0.0244533
0.000293
-0.0121649
-0.00978389
-0.0245266
-0.0694735
-0.0754862
-0.0135148
-0.0134755
-0.0234373
0.000686451
-0.0513978
0.000235088
6.4973e-05
-0.0200213
0.000387067
-9.91911e-05
0.000425134
-0.0230767
-0.0338831
-0.0698171
-6.82339e-05
-0.00657439
0.0112266
-0.0236282
-0.0180366
-0.00927983
-0.000161557
-0.0709262
-0.0714155
-0.0134847
-0.0122975
-0.00683218
-0.00451281
0.00029482
-0.109905
-0.0115697
-0.0113779
-0.151067
-0.0087222
-0.0177299
-0.0346345
0.00289454
-0.0548994
-0.0586432
-0.0814768
-0.0132411
-0.00642253
0.000289988
0.000457352
-0.0751072
-0.00665524
-0.0209158
-0.0103968
-0.0246712
0.00527745
-0.0428223
0.0215388
0.00186368
-0.0712394
-0.00769992
-0.0433055
0.000900748
-0.0689123
-0.0723617
0.00286744
-0.0133793
-0.00551619
0.000621936
-0.0211211
-0.0855702
-0.0379322
-0.0675333
-0.0221081
-0.00129138
-0.0132029
-0.143747
0.00625973
-0.0289976
0.00780466
-0.00175608
-0.0298461
0.000888125
-0.0705689
0.00175877
-0.0063469
-0.0329663
-0.0305327
0.000546869
-0.0406232
-0.0961295
0.00238311
0.000539819
-0.0675535
-0.0454478
-0.00371195
-0.0409444
0.000109665
0.00630569
-0.0488321
0.000178846
-0.0722081
0.0101172
0.000169849
0.000883635
0.0016456
-6.89092e-05
0.000187631
-0.00753415
-0.0927001
0.00026753
-0.00210048
-0.00567815
-0.109898
-0.0399982
-0.070251
-0.0101594
-0.0130111
0.000739717
-0.00868037
-0.0413793
4.54124e-05
-0.0358309
-0.00464029
-0.0010376
-0.0702339
-0.0133211
-0.00892661
-0.00143462
0.000266452
-0.0722464
-0.0212547
-0.0379485
-0.0709359
-0.00598385
0.00139023
0.000547963
-0.0174065
-0.00934935
1.39138e-05
-0.033195
-0.0203021
-0.0117655
-0.0682902
-0.00525817
-0.075114
0.000519697
-0.0253658
-0.0168341
-0.00107587
-0.00922362
-0.0574799
-0.0534936
5.44072e-05
-0.0402294
-0.0770891
-0.00095032
-0.00542851
0.000443887
0.000291086
-0.0446531
-0.000193717
-0.115627
-0.0849509
0.000395491
-0.00117284
-0.0406585
-0.000975204
-0.0219878
-0.040335
0.00153485
-0.0559135
0.000170203
-0.0229954
-0.0701606
-0.0135733
-0.0202927
1.15684e-05
0.000565698
0.00168551
-0.00565324
-0.0358293
-0.00624882
-0.00746946
-0.0815545
0.00088055
-0.0391192
-0.0179256
-0.0240813
0.00132816
-0.00560567
0.00144828
0.000621518
0.000753712
-0.115488
-0.00302522
-0.00945947
-0.00948684
-0.0138109
0.0270781
-0.0255411
-0.0767201
9.22951e-05
-0.0771423
-0.00392725
-0.0124404
0.000111236
0.00048156
-0.00434031
0.00847695
-0.149796
-0.0134405
-0.077134
-0.0254383
-0.0227376
-0.0867416
-0.0497274
-0.0728952
0.000589677
-0.0336589
0.000114743
-0.0919361
9.95063e-05
-0.0223039
0.0254438
0.000391892
0.000896751
-0.055626
0.00720476
0.030894
0.0211277
0.000511195
-0.00968246
0.0111723
-0.00791084
9.32893e-05
-0.00973436
0.000120009
-0.0748546
-0.0445603
-0.0148195
-0.0156471
-0.0165746
0.00310876
-0.0103112
-0.0164653
-0.0163236
-0.054459
-0.00489589
-0.00507225
-0.0730809
-0.0962086
-0.0153163
0.000489858
0.000387348
0.00937433
0.000713567
-0.0460484
-0.0234564
-0.0166354
-0.0330227
-0.0860843
0.000408892
0.00333462
-0.024702
0.0177473
-0.0378755
-0.0129503
-0.00100564
-0.00266643
0.000621912
-0.0707615
-0.0100584
6.3594e-05
5.54109e-05
4.11602e-05
-0.0541335
0.00587067
-0.0259727
0.000406055
-0.0142488
0.0154048
0.00473088
-0.0329256
-0.00733694
-0.0209822
-0.0420764
0.00363921
-0.0521257
-0.00794532
-0.020711
-0.00102187
-0.0744318
-0.0401067
-0.0223621
-0.071954
-0.00743496
0.00767713
-0.0842467
0.000343213
-0.0504888
-0.0319208
-0.00736205
-0.012256
-0.00741651
-0.0149538
-0.0919698
0.00034756
-0.0170241
0.000702653
-0.0725209
-0.0692583
-0.0135786
-0.0490344
-0.0141076
-0.095253
0.00378726
0.000500221
-0.000192313
-0.0685348
-0.0335086
-0.0264137
-0.0141673
-0.00769278
-0.0145285
-0.0110378
-0.0662638
-0.0968472
0.00267587
-0.0706298
0.0107997
-0.0133781
-0.0384258
-0.0303118
0.00214268
0.0124568
-0.0589794
-0.0488759
0.00232965
-0.013593
-0.0797852
-0.0135473
0.000358732
0.00078521
0.00849614
-0.0269351
0.0138853
-0.0901643
-0.00110214
-0.0165381
-0.00013631
-0.0140532
0.000105977
0.000161092
-0.00140929
-0.0793886
-0.00445899
-0.0103416
-0.0501126
0.000359325
-0.0139237
-0.00870614
-0.0112854
-0.108421
-0.0101001
0.009948
-0.029937
-0.0179576
-0.00433581
0.000280262
0.00299102
-0.0618313
-0.00546426
-0.00567669
0.00169601
-0.060138
-0.127977
-0.00148509
-0.00165524
0.00255481
-0.00160536
-0.0135079
0.00223278
-0.0501732
-0.0786528
-0.0464071
-0.0747437
-0.0810765
0.000400665
-0.0156093
-0.108364
-0.0690602
0.0254687
-0.091502
0.00304415
-0.0302716
0.00052574
0.00804653
0.000370306
-0.0145604
0.00249546
-0.0188687
7.01737e-05
0.000348221
0.000425261
-0.0441829
0.00971318
-0.0973265
0.00155586
-0.0496903
0.00549479
-0.0125691
-0.0149649
0.00768229
-0.0220352
-0.00239605
0.000251393
0.000309991
0.000613583
-0.00346945
-0.0120599
-0.0454479
0.00528636
-0.0918827
-0.00741666
0.00727935
-0.00533272
-0.0569438
-0.00443697
-0.010338
0.000176768
0.00044541
-0.0178585
-0.017395
-0.0783081
0.00147942
0.00186191
-0.0184684
-0.0562552
4.7388e-05
-0.0306811
-0.0390301
0.000430605
0.000314564
-0.0137836
-0.0678878
-0.0584865
0.00355181
0.00722824
0.000570494
-5.51589e-05
-0.115812
-0.00456514
6.20484e-05
-0.0027622
-0.00153512
0.000463062
0.000195801
0.000760461
-0.00873806
8.68981e-05
0.00138839
-0.0889074
-0.0133328
-0.0464682
-0.00149106
0.00357865
0.00118083
-0.000226628
-0.00279582
-9.28443e-05
-0.000210079
-0.0249708
-0.0174568
0.00884139
-0.0136954
0.000521064
-0.0724617
-0.0777104
-0.0143946
0.00368132
-0.0156718
-0.0047388
-0.151149
-0.000127864
-0.0051595
-0.00455831
-0.0326212
-0.0194247
-0.107781
0.000213493
-0.0833167
-0.00274941
0.000315573
0.00323926
-0.106053
-0.0212563
-0.00765833
-0.00223144
-0.00881467
-0.00656209
-0.000612923
-0.000839474
-0.0193216
-0.0701317
-0.0514988
-0.0642856
-0.0671101
0.00602821
7.75395e-05
-0.0532991
-0.0140707
-0.0239669
-0.0393347
-0.00214483
-0.0083443
-0.0753737
-0.0125609
-0.107967
-0.152275
-0.122733
-0.00626683
0.00324686
-0.00940142
0.00117799
-0.00443958
-0.00760086
0.0069754
-0.00861196
0.00904168
-0.0731381
0.000225419
0.00140546
-0.0529539
-0.0770641
-0.014979
-0.0104815
-0.00115234
-0.00680487
-0.0376075
0.00467294
-0.00133239
0.00376661
-0.000545651
-0.112962
-0.0845847
0.00531603
-0.0166856
-0.0451743
2.49854e-05
0.000327519
0.000963605
-0.0601162
-0.0262015
-0.067063
-0.0699235
0.000273756
0.00648764
-0.00513111
0.0035975
-0.0549876
-0.0704621
-0.0739203
-0.00443729
-0.0192329
0.00115587
-0.0825958
-0.0676481
-0.0474519
0.0050484
0.000170077
-0.00666313
0.0055786
0.00025899
-0.0143264
0.000151677
-0.00223228
-0.0729503
-0.0408941
0.00462439
0.000247859
0.00211834
-0.0062468
-0.00125587
0.000571643
0.000716482
-0.0134906
-0.0633741
-0.0125643
-0.0136157
-0.112778
-0.0125361
-0.0469291
-0.0768504
-0.0755304
0.00232033
-0.042474
1.35401e-05
0.000576109
-0.0166898
-0.084869
-0.00717042
-0.0662142
-0.0256603
0.000219658
-0.0112037
0.00140972
-0.00641885
-0.0502971
-0.0134938
0.00302145
0.000279896
-0.0345674
-0.0440153
-0.0203586
-0.00422274
-0.00965715
-0.0174928
-0.037714
-0.003069
-0.0499196
-0.0092467
-0.068309
0.000187708
0.0203812
0.00344432
-0.118322
-0.0043784
0.000441656
-0.0735383
-0.00392726
-0.130035
-0.0780237
-0.141735
0.00046008
0.000334771
-0.0740683
8.31234e-05
-0.00200078
0.000198563
-0.00224385
8.59815e-05
0.00201834
0.000218994
0.00023642
0.025207
-0.00422921
0.0233498
-0.000882486
0.000155674
0.000466258
-0.0276408
-0.00288988
-0.0595598
-0.0343401
0.000103698
0.000537034
-0.000597591
-0.000712735
-0.0713581
-0.00477272
-0.017203
0.000207592
-0.0195778
-0.000848279
-0.00382455
-0.0782665
-0.0119688
-0.097211
-0.00741375
-0.0043092
-0.0632147
-0.0582864
-0.0429647
-0.0170247
-0.021507
0.000330829
-0.0585943
0.00103442
-0.00848875
-0.014154
-0.00977275
0.00023121
-0.0540049
-0.0784122
0.000827225
-0.00379743
0.00338914
-0.00059002
-0.0227858
0.00749453
-0.0558937
-0.0487566
-0.0417878
-0.00325439
0.000142529
-0.000961022
-0.0756325
-0.0698291
0.00864306
-0.0778092
0.000602431
-0.0134654
0.000243282
-0.0134343
-0.0724671
-0.00864412
-0.00216096
-0.000242313
-0.0314063
0.000444505
-0.114086
-0.00783314
-0.0907884
0.000317613
-0.0173968
-0.0798004
-0.0729758
-0.0704095
0.00131774
-0.0735735
-0.0136893
-0.00224799
-0.00795163
-0.0164137
-0.0171948
-0.148776
0.00238115
0.00163785
-0.071984
0.00033684
-0.00303274
-0.0086755
0.000214993
-0.119541
-0.0196942
-0.0568113
0.00439816
0.000910635
0.000197196
0.00500669
-0.00101291
0.00253288
0.000183388
-0.00418925
-0.00390722
-0.0826417
-0.00132771
0.000347081
-0.00293829
-0.0197486
-0.0802908
0.000302479
0.00132981
-0.0597871
-0.00681536
-0.00208954
-0.000302377
0.0120868
-0.0909454
-0.0172243
-0.0819962
-0.0529369
0.000218315
0.00279173
-0.110804
0.010413
-0.0141441
-0.000573542
0.000203717
-0.0176992
-0.014044
0.00187301
-0.00764991
0.00304903
-0.0127911
0.00134603
-0.0696599
-0.0105784
-0.0340533
-0.00251376
-0.0171003
-0.0342732
-0.057627
-0.0710302
-0.00792845
0.00596831
-0.0645765
-0.0201643
-0.140812
0.0178787
-0.0412565
-0.0616288
-0.0912807
-0.00539351
-0.0156469
0.00018897
0.0020009
-0.0765916
-0.141808
8.64586e-05
0.000553447
-0.0551141
0.000810789
0.000367889
-0.0775056
0.000577863
-0.0115995
-0.118521
-0.0811311
-0.0027875
-0.00192808
-0.0140446
-0.0739683
-0.0704965
-0.0671002
0.00190198
-0.0917142
0.00287782
-0.00310813
-0.0474538
-0.0488124
-0.0141826
-0.0194114
-0.00161941
-0.0626189
-0.0693879
0.00310551
-0.0452924
-0.122925
-0.0512686
-0.0844075
-0.0156621
-0.0471621
-0.00119248
-0.0101196
-0.00356976
-0.0158581
-0.0134699
-0.0716832
0.00036953
-0.0589698
-0.00575549
-0.00329978
-0.047782
-0.0458055
-0.0970266
-0.053264
0.00230642
-0.000179702
-0.0579732
-0.0256931
0.00753161
-0.0130375
-0.0815623
0.000687566
-0.0633174
-0.00366502
-0.012804
-0.079839
-0.06321
-0.0811673
-0.00690401
0.00324839
-0.000305808
-0.0918216
-0.0133827
-0.00574085
-0.0753887
-0.00109912
-0.0321715
-0.00755602
-0.00721385
-0.00404561
-0.0151048
0.000522456
0.00738581
-0.0767259
-0.0544349
-0.0141144
0.0016484
-0.00573447
-0.126332
-0.057481
0.000356914
-0.0160733
-0.000740256
-0.00295915
-0.000209488
0.000530189
0.0116686
-0.00939998
-0.0113811
0.0014107
-0.000198557
-0.00925621
-0.0721197
-0.108019
-0.0316821
0.00981661
-0.00595893
-0.0296041
-0.000295582
-0.000806852
-0.00905956
-0.0109738
-0.073577
-0.0143236
-0.0574301
-0.0156172
-0.0149387
8.14152e-05
-0.0704167
-0.00205578
-0.00241343
0.00169916
-0.0712341
-0.0202298
-0.0254738
-0.0686739
-0.0354156
0.0061312
-0.0184197
0.00567983
-0.0920022
-0.0277751
-0.010377
-0.004569
-0.052437
-0.0469185
-0.000662441
-0.000293916
-0.0270385
-0.000900195
-0.00094585
-0.0745862
0.000782869
-0.0582845
-0.0174524
-0.000906054
0.00623096
-0.00108251
-0.0141778
9.94294e-05
-0.0210532
-0.0716987
-0.00116968
-0.0709753
-0.121391
-0.00849294
-0.051753
-0.0189534
-0.000960926
0.000761138
-0.00656336
-0.00107793
-0.0597945
-0.0263827
0.000323608
-0.00229293
0.000539489
-0.0857386
-0.00442284
0.00611282
-0.093255
-0.0715691
-0.0064968
-0.00252241
-0.0265835
-0.00132883
-0.00960948
0.00280738
-0.0053037
-0.00577467
-0.00946327
-0.00822784
-0.0908244
0.000265708
-0.0669612
-0.0196532
-0.0307923
0.000113539
0.000563512
0.010559
0.0156506
-0.0271813
0.000772437
-0.0122915
-0.00534804
-0.0132534
-0.000916015
-0.00499913
0.03464
-0.0611657
-0.00882332
0.000539803
-0.00855668
0.00962617
0.00403024
-0.0390991
-0.00540767
-0.0283875
-0.0270492
0.00165909
-0.00082567
0.000388351
-0.0977094
-0.0754148
-0.00645097
-0.0607156
-0.0134867
0.000648918
-0.00223485
-0.000848571
-0.0156181
0.000293735
-0.000927622
0.000771307
-0.0555527
0.000443763
0.000722506
-0.0227743
-0.0368605
-0.0725177
0.00589284
0.00293645
-0.00414775
-0.0632875
-0.0369248
-0.0309364
-0.135392
0.0147977
-0.0616361
0.000531298
-0.0516474
-0.0103521
0.000568324
-0.00242294
-0.0865274
-0.0682251
-0.0102203
-0.0399178
-0.000865002
-0.0116662
9.76783e-05
-0.00604555
-0.00127608
0.00843394
5.09044e-05
-0.0357759
0.0110084
-0.0729159
-0.000223731
0.0251436
6.50108e-05
0.0180774
-0.0133402
-0.0803353
-0.0693859
-0.0593064
0.00102034
-0.0838654
-0.00851027
-0.0981196
0.000590058
-0.0153635
0.000432559
-0.0136941
-0.0412748
-0.0153872
-0.08079
-0.0205067
-0.0307265
-0.00697508
-0.0571671
-0.0238002
-0.0137682
-0.0303725
-0.00855309
0.000665486
0.00240021
0.00915915
-0.0206537
-0.0042614
-0.00486146
-0.0363254
0.00200737
-0.00887422
-0.0880187
0.00962881
0.000641443
-0.0255051
-0.114499
-0.0205233
0.000234483
-0.0320923
0.00411709
0.000517856
-0.0751105
0.00219111
-0.0364796
-0.0323763
-0.0796078
-0.00216373
-0.0373831
0.0216082
-0.0038301
0.00392056
-0.0122164
-0.09731
0.0083302
-0.0814438
-0.000983632
-0.0404268
-0.0668296
-0.0216717
-0.0784595
-0.0712097
0.000461589
-0.00634767
-0.0792329
-0.00943648
-0.0722537
-0.00903952
-0.00859791
-0.0748187
-0.0311873
-0.117267
-0.0096148
-0.0195003
-0.0107496
-0.0824171
-0.0704249
-0.0204723
0.00238852
-0.0138623
0.0299297
-0.076387
-0.0232433
-0.0153748
-0.0736753
-0.0312524
-0.00265069
-0.0653605
-0.0104435
-0.0211317
-0.00070911
-0.07001
-0.0811164
0.000745762
-0.00432824
-0.0271829
0.000478499
0.000741005
-0.00493621
-0.00621186
-0.00796233
-0.0571289
-0.0122814
-0.0877343
-0.0238435
-0.108913
-0.0105703
0.0279185
-0.0635841
0.0185861
0.00437305
-0.00795757
0.0145684
-0.000208351
-0.0139489
0.000659117
-0.00634883
-0.00411271
-0.0717575
-0.000763503
0.00156115
-0.093839
-0.01572
0.00878783
-0.0180401
0.000464195
-0.000879904
-0.0448673
-0.0736268
-0.071913
-0.00132946
-0.0506949
-0.012176
-0.00547119
0.000599959
-0.0839584
-0.0403347
-0.0115849
-0.063085
-0.040195
0.00523443
-0.0732406
-0.0730988
0.00445665
-0.00681949
-0.0169628
0.0359325
-0.0482302
0.000143702
-0.0655822
-0.00747151
-0.00592315
-0.00714444
-0.0809615
-0.00470149
-0.0808868
0.0133478
-0.0945403
0.00420302
0.00682707
-0.00586054
0.0157578
8.35645e-05
0.000874576
-0.0243939
-0.0854662
-0.0955143
0.0260503
-0.0779549
-0.00366403
-0.0719921
-0.0799644
-0.0436386
-0.00962967
-0.00199928
0.000618617
-0.00398232
-0.0707005
-0.00826486
-0.0229889
-0.00454443
-0.04742
-0.0719405
-0.0864518
-0.00169128
-0.0751084
-0.00810121
-0.00415663
-0.00538528
0.000358251
-0.0730213
-0.0142301
-0.0749282
-0.0083887
0.000658586
-0.0662814
-0.0137632
-0.0078773
-0.00913535
-0.0715419
0.00150214
-0.0192834
-0.00189087
-0.00493039
-0.0674725
-0.0245918
-0.0184152
0.000868659
-0.0173127
-0.000637966
-0.0715201
-0.00136529
-0.0426369
0.00013058
0.00284926
0.000774563
-0.0238537
-0.0165759
-0.0477468
-0.0332913
-0.013329
0.00311968
-0.00507011
0.000576332
-0.0141782
0.000779854
0.001304
-0.0892144
-0.0302789
0.00150401
0.00280133
0.000442937
-0.0669039
-0.0922519
-0.036237
-0.0407933
-0.0128086
0.00164293
0.000117306
0.000614479
-0.0587968
-0.0723135
0.000321296
-0.00326353
0.0154503
-0.0762688
-0.0221874
-0.0224217
-0.0730785
-0.0214152
0.00108939
-0.071266
-0.0710711
-0.00766838
0.000818691
-0.00995728
-0.0718803
-0.0717091
-0.0235811
-0.0648728
-0.088415
-0.0286727
-0.0722007
-0.00578301
-0.00274308
-0.0427289
-0.06106
-0.0115152
-0.0704443
-0.0171997
7.56115e-05
0.000520404
-0.0550227
0.0028354
-0.0688624
-0.0172744
-0.0317645
-0.0520346
-0.00340894
-0.0719406
-0.0724471
-0.0152817
-0.0257729
-0.0712777
-0.0281275
-0.103331
-0.0134035
0.00132833
-0.00414019
0.00297815
0.000555934
-0.00714468
-0.00109729
-0.00980095
-0.0074678
-0.0142369
-0.0245524
0.00189913
8.26423e-05
0.000382566
-0.0104542
-0.0190243
-0.00534688
-0.0456826
-0.0170891
-0.00753455
-0.0312296
-0.00909175
0.00118503
-0.0735595
-0.00119272
0.000129611
-0.0708534
-0.0896535
-0.102538
0.00923609
-0.000359564
-0.100293
-0.0136587
0.000826541
-0.039228
-0.00289555
-0.0479924
-0.055666
0.0010358
-0.0795282
-0.0716219
-0.0252227
-0.0247708
-0.0874314
-0.0151641
0.0140053
-0.0319228
-0.108932
-0.0310882
-0.063246
8.3573e-05
-0.00986929
0.00086908
-0.0132953
-0.0735906
-0.102059
-0.0661701
-0.11666
-0.0315519
-0.00731602
-0.00680708
0.00041441
-0.00592917
0.000518487
-0.0843336
-0.0033235
-0.0764271
-0.00412732
0.00526972
-0.015588
-0.0715275
-0.0815271
-0.0750603
-0.0465748
0.000413885
0.00106495
-0.0755749
-0.0751571
-0.0303111
-0.00236531
0.000396759
-0.021678
-0.0205354
-0.0686701
0.0143198
-0.0335168
0.000543117
-0.071499
0.000823414
-0.0726287
-0.0145556
-0.00431548
-0.0477771
-0.00289738
-0.075086
0.000514013
-0.0720231
0.000768545
-0.0328718
0.00250685
-0.0135747
0.00202875
-0.0345537
-0.043409
-0.0806998
-0.0962013
-0.0288388
-0.0252565
-0.00609399
-0.0752685
-0.093958
-0.00065627
0.000588697
-0.0105871
0.000218229
-0.0679778
0.000197724
0.00394457
-0.0158632
-0.0120207
0.00117245
0.000934593
-0.0201491
-0.0625972
-0.0824668
-0.00774409
-0.00196343
-0.0725922
-0.0245002
-0.0184418
-0.00565148
-0.0969776
-0.0463585
-0.00400331
-0.0118284
-0.0143174
-0.0150333
-0.128197
-0.128342
0.00175232
0.000707332
0.00448645
-0.000537149
-0.0719094
-0.00834682
-0.0855197
-0.0793505
-0.0133456
-0.00676663
-0.0225475
-0.00528935
-0.00543764
-0.0198551
-0.0725505
-0.0155757
-0.0632144
-0.00100719
-0.00534335
-0.000901405
-0.0114287
-0.0865478
-0.0714515
-0.0169498
-0.112151
-0.063653
0.000694792
-0.0121259
0.000669422
0.00256821
-0.0709565
-0.0718656
-0.0117076
-0.00693628
0.00856144
-0.0150505
-0.0428825
-0.0773289
-0.0168438
-0.0743775
-0.0519457
0.00172081
-0.0118213
-0.000810614
-0.0461951
-0.00922262
-0.0111438
-0.0728584
-0.0190953
-0.0200891
0.00205334
-0.0266019
0.000601661
-0.0662326
-0.0878436
-0.0108348
0.00452899
-0.0294155
-0.0126092
-0.0027242
-0.0142577
0.000514474
-0.106888
-0.0195623
-0.0853289
-0.00951516
-0.0251825
-0.00747203
-0.0759538
0.00370494
-0.0384227
-0.112884
-0.00483774
0.0318982
-0.0709718
-0.000561136
2.59982e-05
-0.0284087
-0.0569539
-0.112875
-0.00817427
-0.000334204
-0.0116444
-0.00236987
0.0105393
-0.0132786
-0.115306
-0.00445764
-0.026468
-0.0201004
-0.0132843
-0.0196686
-0.0476786
-0.00438353
-0.06446
0.00301936
-0.0004687
-0.0284023
-0.0718901
-0.0127615
-0.0451409
-0.0876353
-0.0651679
-0.000584419
-0.0151285
-0.027054
-0.0838569
-0.087768
-0.0135751
-0.0740939
-0.0258269
-0.00191964
-0.00813519
-0.128143
-0.0010824
0.00190109
-0.10501
-0.00528389
-0.0185382
-0.00327248
-0.12202
-0.0079076
-0.0290799
0.00076347
0.0196551
-0.0250727
-0.00725453
-0.0414729
-0.108821
-0.011338
-0.0123244
0.0246586
4.06534e-05
-0.0151167
-0.0154081
-0.0249821
-0.0441187
-0.0467287
0.00387359
-0.0803064
-0.0309803
-0.0310328
0.0259097
-0.014355
0.000707791
-0.0748215
-0.0748419
-0.0451994
-0.00955609
-0.0626519
-0.0755608
-0.0161295
-0.00857629
0.000742353
0.0349063
-0.0717903
0.01489
-0.078152
-0.00349102
-0.0612832
-0.00609815
-0.0771245
0.000465046
-0.00262398
-0.0175591
-0.0122398
-0.0839195
-0.0737086
-0.065074
-0.0232109
0.000530024
0.0219458
0.00236825
0.000873662
-0.0711735
9.53953e-05
-0.043921
-0.01201
-0.0251146
-0.00681477
-0.00956199
-0.00670597
0.00259942
0.0111258
-0.011143
-0.0679407
-0.00267361
-0.0141108
0.0242114
-0.000446669
-0.013161
-0.0135001
-0.0252675
-0.0239455
-0.00280644
-0.00571974
-0.0611639
-0.00207666
0.00135219
-0.00320622
-0.0200331
0.000676662
-0.0781004
-0.0153495
-0.0049524
-0.0691123
-0.0381081
0.0230995
-0.0788156
-0.0677378
0.00108221
-0.016907
-0.0171034
-0.0252021
0.00234826
0.00062928
-0.0370367
-0.0698914
-0.0720475
-0.0721153
-0.0163909
-0.122177
0.0019491
-0.0261558
-6.98582e-05
-0.0852995
-0.0139219
-0.0334443
-0.0129259
-0.0734482
-0.111114
-0.00355638
0.000602136
-0.0240881
0.00178247
-0.0200232
-0.0528386
-0.00584621
0.0011733
-0.0678979
-0.0748338
-0.000224178
-0.0340984
-0.0392351
-0.107435
5.20236e-05
-0.113266
-0.0678483
0.00349141
0.000610834
-0.0935228
0.00796415
0.00141343
-0.00456672
-0.00639676
-0.030771
0.000510763
-0.00239629
-0.0779913
-0.111725
-0.130005
0.000537301
-0.0741638
-0.0150479
-0.0222561
0.000807321
-0.0130258
-0.0286571
-0.000247782
-0.104362
-0.0327081
-0.0121936
-0.0697928
-0.117311
-0.0194656
-0.0613559
-0.117038
-0.0836327
-0.00179438
-0.109271
0.000648311
0.000290363
-0.0121352
0.000994142
0.000871868
-0.084061
0.00239928
0.00234085
0.00356933
-0.0703587
-0.0997633
0.0149512
-0.000219859
-0.00779611
-0.012745
-0.111687
0.000819278
2.10441e-05
-0.00840149
0.00130795
-0.000106538
-0.00162295
-0.0846998
-0.0434627
-0.021042
0.000703444
0.00138926
-0.0216647
-0.0718194
0.000531491
-0.112869
-0.0494877
-0.0168507
-0.086514
-0.121459
0.00064079
-0.066236
-0.0162655
-0.126284
0.00185749
0.0252313
0.00306092
-0.0197549
-0.00575639
-0.0897305
0.000891487
0.0008586
0.00182177
-0.0627348
-0.0428255
-0.0683672
-0.098848
-0.0166296
-0.0738919
-0.0240517
-0.0340162
-0.08379
-0.0866717
0.000217743
-0.0855268
-0.000755243
-0.0203972
-0.00175555
-0.0697863
-0.0431001
-0.0314502
-0.0321111
0.000652002
-0.0581079
0.00255808
-0.0106529
-0.0135042
0.00257587
-0.0800637
-0.0352781
-0.0102082
-0.0245986
-0.0236564
0.0200083
-0.0450271
-0.0453011
-0.0808513
-0.0226571
-0.0862579
-0.0067032
-0.0382711
0.0105249
-0.0928065
-0.0147015
0.000999343
-0.000987201
-0.0784336
0.00211457
0.00105543
0.00193932
-0.0182415
0.000738675
-0.014222
-0.10109
-0.0730429
-0.0688498
-0.104737
-0.00351957
-0.093799
-0.0834262
-0.0664028
-0.114034
-0.0822394
0.0029586
-0.0570945
-0.032631
-0.0447514
-0.0725026
-0.0512441
0.00075204
-0.0702359
-0.00237442
-0.0146114
0.0270829
-0.0957161
-0.0719243
-0.0716342
-0.0131721
-0.0195988
-0.0069583
-0.0783636
-0.122027
-0.00845483
-0.060583
-0.0114474
-0.0157329
-0.0132244
-0.0830622
-0.0393303
-0.0136115
-0.0152513
-0.029978
-0.00597522
0.00257977
-0.0247512
0.000808714
-0.0125072
-0.00244786
-0.0331073
-0.0033921
-0.036079
-0.0164665
-0.0088602
-0.0886041
-0.0825005
-0.00407805
0.0211228
-0.0132272
-0.0325291
0.000793351
0.000776999
-0.0146399
0.000677552
0.00040558
-0.00475908
0.000506679
-0.00895563
0.00831449
0.0209359
-0.0824661
-0.0160431
-0.0083812
-0.0798378
-0.0184175
-0.0328768
0.000704075
-0.0158085
-0.00536604
-0.0129374
-0.000406293
-0.0230371
-0.0128392
-0.0847461
0.00709743
-0.0178568
-0.0192371
0.000578829
-0.00653849
0.00890131
-0.00663479
-0.0512519
-0.116027
0.00209517
-0.0206137
-0.0128042
-0.0163179
-0.00128466
-0.019333
-0.00572826
-0.00546267
-0.0833383
0.00150427
-0.0456253
-0.0859894
0.00221168
-0.00484798
-0.00275732
-0.0354472
0.0297524
-0.00141609
0.00187953
-0.0715691
0.00399346
0.00105519
-0.0850131
0.000486653
0.00192282
0.000561275
0.000500297
-0.000126606
0.000799591
0.00217406
-0.0661863
0.00829673
-0.0231118
-0.0277514
-0.0021534
-0.00247151
-0.0414968
-0.0930086
-0.109764
-0.0380865
0.028819
-0.0835601
-0.0639027
0.00265549
-0.0243524
0.00085652
-0.0151555
-0.00257154
-0.0210353
0.0168578
0.00101821
-0.024905
-0.0158493
-5.54547e-05
0.00114228
-0.013062
0.000108695
0.000795805
-0.000286059
-0.0786914
-0.0809625
-0.00544681
-0.0116119
0.000682246
-0.0568443
-0.0797111
-0.0817814
-0.0101794
-0.0721115
-0.00224805
-0.0724809
-0.0687607
0.0117359
-0.005909
-0.0117292
3.05562e-05
-0.00378065
-0.00334918
-0.00240943
-0.0207962
-0.0856903
-0.0530761
-0.0770788
-0.00319856
0.00940859
-0.0713155
-0.0116878
0.000605061
0.00136001
0.000576788
-0.0237461
-0.00436317
0.0250362
-0.00564186
-0.0732925
-0.0381896
-0.100961
-0.0208788
-0.0813149
-0.0716296
-0.00659836
0.000721534
-0.00264356
-0.0101455
0.000650271
-0.00747817
-0.0832352
-0.0732407
-0.013195
-0.0146539
0.00208495
-0.0177915
0.0178706
0.000647603
-0.000109873
-0.0687357
9.36622e-05
-0.00558237
-0.0169775
0.0188446
-0.0203581
-0.0717484
-0.0781996
-0.00621455
-0.0796181
-0.0574204
-0.073065
0.000535663
-0.0117387
-0.00060534
-0.0159001
-0.113086
0.000578815
-0.0738079
0.00126781
-0.0010209
-0.015069
-0.0759723
-0.0453321
-0.0523613
-0.00808239
0.000354101
-0.00264616
-0.07128
-0.00955017
0.000861719
0.00155032
-0.00867952
0.00851881
0.0005907
0.000674122
-0.0721132
-0.0736845
-0.0773927
-0.0190603
-0.0573466
-0.0906503
-0.0643634
-0.0725492
-0.025339
0.000486152
0.000431306
0.000238033
-0.00697172
-0.0779391
-0.0792724
0.000736308
-0.0717045
-0.0717597
-0.0489406
0.00151813
-0.0119306
-0.0106847
-0.0813916
-0.0824449
-0.0113058
-0.0803485
0.000211
-0.0555567
-0.037691
-0.00389072
-0.0721472
-0.0132519
-0.068593
-0.0775487
-0.00761541
-0.0754388
-0.00565485
0.000273887
-0.0830398
-0.0728203
-0.0649103
-0.0178516
-0.0883308
-0.0706673
-0.0703768
-0.0755802
-0.0866288
-0.0625605
-0.0246925
-0.0144207
0.00221176
-0.0457847
-0.0731082
-0.00970964
-0.0718996
-0.000159568
-0.0123011
-0.00425925
-4.23647e-05
-0.0837434
-0.0138733
-0.0653816
-0.0815645
-0.0140044
0.0019904
0.0309614
-0.0727982
-0.0175821
0.00535904
-0.0041822
-0.000400177
-0.0770317
0.00126369
0.000935403
-0.0388302
-0.0254727
-0.0726612
-0.0293553
-0.00932936
-0.0226243
0.000763354
0.0222927
-0.0148469
-0.0636244
0.000638067
-0.000433348
-0.0690779
-0.0416587
0.00165691
-0.0656727
-0.0697044
-0.0133804
0.0240062
-0.0204661
-0.0725117
-0.00329797
0.000743453
-0.0708124
-0.0155815
-0.0750323
-0.0778508
-0.0527262
-0.00317593
0.00199908
-0.0160797
0.0194684
-0.0380005
-0.000721728
-0.0746368
-0.060646
-0.00270107
0.000452291
-0.0220785
-0.0128196
-0.0867729
-0.0596982
9.53322e-05
-0.0780046
-0.0608212
-0.0196505
-0.000174432
-0.0742194
-0.0706977
-0.0820382
-0.0149418
0.000729996
-0.0421724
-0.0124093
-0.00811493
-0.000757669
-0.0101667
0.000482098
0.00209545
-0.000341429
-0.000399682
-0.00130331
-0.0651468
-0.0694982
-0.0191452
-0.08567
-0.0795555
0.000291531
-0.0728552
-0.0724982
-0.0730996
0.000373837
-0.00648081
-0.0737637
-0.134999
-0.0674544
-0.0406018
0.00120605
-0.0730309
-0.0612687
-0.0668665
-0.00020474
-0.0472479
-0.0592849
-0.0129884
-0.0613396
-0.0834615
0.00114578
-0.128144
-0.072273
-0.0083951
-0.000553858
0.00496953
-0.0131775
-0.00474977
0.000637931
-5.1065e-06
-0.07177
-0.0710897
0.00356315
-0.0450953
-0.000155498
-0.0125827
-0.100118
-0.0741902
-0.0997679
-0.0448909
-0.0755532
0.00138513
0.000539898
-0.0372019
-0.0828069
-0.0721625
-0.0501489
-0.0713647
-0.0249517
0.000210998
-0.0130574
-0.024868
-0.0376786
-0.0731688
-0.0721196
-0.0213561
-0.0828246
-0.0889389
-0.00727259
-0.142312
-0.0152589
-0.0287702
0.000413482
-0.0151664
0.000796432
-0.0272521
-0.0283662
-0.0294945
-0.0732218
0.000669758
-0.0592409
-0.0225599
-0.0147197
-0.087305
0.0036282
-0.0738901
0.000111078
-0.0679828
-0.0747219
-0.0648516
-0.069653
-0.00172478
-0.0172894
-0.0708731
-0.07246
0.000582994
-0.0310334
0.000754932
-0.000396491
-0.0120814
-0.0231921
-0.0718606
-0.0801482
-0.0119491
-0.135828
-0.0238216
0.000639528
-0.00249414
-0.0139709
-0.00416728
-0.0413491
-0.0724509
-0.0717715
-0.066001
0.00216296
-0.00631826
-0.0216714
-0.000651193
-0.0723549
0.0130882
-4.53331e-05
-0.00588643
-0.0484691
-0.0263112
-0.0711786
-0.0179099
-0.110516
-0.0163057
-0.0781975
-0.069105
-0.0735757
-0.00702917
0.00120877
-0.0197519
-0.0146581
-0.0811225
-0.0949825
-0.0258553
-0.021801
-0.0669223
-0.0216382
-0.0188377
-0.0151974
0.0071055
-0.00382537
-0.0703635
-0.00939663
-0.0279718
-0.0180871
-0.0236998
-0.0177476
-0.0684362
-0.068204
-0.0080136
-0.0139991
-0.0336759
-0.00672132
0.00163382
-0.0094502
-0.0332669
0.00256169
-0.124887
-0.0133795
-0.0721463
-0.0154295
-0.000165405
-0.0117049
-0.0735193
-0.00709395
-0.0696229
-0.12431
-0.0191027
0.00286613
-0.0659908
-0.00170715
-0.0691639
0.000469281
-0.00506676
-0.0592568
0.000934221
-0.0694557
-0.00212541
-0.00423381
0.000631937
-0.00603747
-0.0356589
-0.0154936
-0.0591544
-0.057218
-0.0159259
-0.00365105
-0.0923382
-0.0649062
0.0206213
-0.0411536
0.000360533
-0.00560306
-0.0407077
-0.0614567
0.0106411
-0.0606228
-0.0262925
0.00066166
-0.0114799
0.000357495
-0.00283921
-0.00706155
-0.069366
0.00218308
-0.00132857
-0.00208604
-0.0820388
-0.0713139
-0.037306
-0.0024181
-0.0607397
-0.0709206
-0.132681
0.00783229
-0.0250178
-0.0585915
-0.0207152
0.00227291
-0.0708027
-0.0693048
-0.0072579
-0.00382742
-0.0716417
-0.00569184
-0.0138435
-0.0113669
-0.0402964
0.00080345
-0.0149134
0.0199787
-0.0177573
-0.0223334
-0.00267408
-0.00288533
-0.0239094
-0.0865842
-0.00228743
-0.0274105
-0.0700871
0.000647755
0.00103685
-0.0695352
-0.0266325
-0.0516106
-0.0139853
-0.0254557
-0.0127108
0.000583052
-0.00163761
0.0274455
-0.0259418
-0.0692582
-0.0643161
-0.0324482
-0.0719104
-0.00915923
-0.0248035
-0.00342991
-0.00278111
-0.0477815
-0.0291073
-0.000720698
-0.042115
-0.00616573
-0.0128582
-0.0283249
0.00239715
0.000682209
0.0327191
-0.0120332
0.0112248
0.00361705
-0.0336736
0.0007652
-0.0162845
-0.0410025
-0.101245
-0.00538632
-0.0735411
-0.0121494
-0.0729474
-0.00107611
-0.0507611
-0.0387095
-0.00759036
-0.00600717
-0.0107671
-0.0428479
0.00779385
0.000868022
-0.0451459
-0.0717518
-0.036832
-0.00336141
0.00522344
-0.0349661
0.00183651
-0.00546403
0.000925677
-2.31054e-05
0.0104898
-0.00323515
-0.0059087
-0.0243043
-0.0730261
-0.00587375
-0.0766831
-0.0027221
0.0311729
-0.0146872
-0.0308579
-0.0145748
-0.00162442
-0.00369139
0.0103374
-0.00249985
-0.120363
-0.0265286
-0.0797113
0.000947015
-0.0102464
-0.0417647
-0.0667389
-0.0207078
-0.0541313
-0.0267926
-0.00995661
-0.0139005
-0.00355908
-0.0685163
-0.0717397
0.0024703
-0.0117203
-0.0236018
-0.00928917
-0.000945675
-0.0632723
0.00163474
-0.119551
-0.0680513
-0.0584344
0.00810039
0.000909418
0.0305565
-0.0594914
-0.0178462
-0.00883718
-0.00704387
-0.00419058
-0.00512356
0.00497516
0.00174198
-0.0725409
-0.0061595
-0.00560741
-0.085221
-0.0394194
-0.02274
0.00315931
-0.0106018
0.000817715
-0.0116828