/*--------------------------------*- C++ -*----------------------------------*\
| =========                 |                                                 |
| \\      /  F ield         | OpenFOAM: The Open Source CFD Toolbox           |
|  \\    /   O peration     | Version:  v2012                                 |
|   \\  /    A nd           | Website:  www.openfoam.com                      |
|    \\/     M anipulation  |                                                 |
\*---------------------------------------------------------------------------*/
FoamFile
{
    version     2.0;
    format      ascii;
    class       surfaceVectorField;
    location    "350";
    object      Uf_0;
}
// * * * * * * * * * * * * * * * * * * * * * * * * * * * * * * * * * * * * * //

dimensions      [0 1 -1 0 0 0 0];


internalField   nonuniform List<vector> 
20537
(
(1.00836 -0.0124425 9.02139e-24)
(1.008 -0.0122156 -1.14312e-22)
(1.00815 -0.0128337 0)
(0.700809 -0.203989 -2.02135e-21)
(0.770423 -0.196583 -1.45671e-21)
(0.736873 -0.201514 -8.41229e-22)
(1.02877 -0.0709626 0)
(1.02736 -0.0690917 0)
(1.02588 -0.0709558 5.56713e-21)
(1.00778 -0.0111391 5.53385e-23)
(1.00775 -0.0116264 -1.1135e-22)
(1.00735 -0.0110175 1.14204e-23)
(1.0588 -0.0810591 3.50353e-21)
(1.05657 -0.0813262 -8.59922e-21)
(1.05754 -0.0792589 1.09694e-20)
(0.955626 -0.0239623 7.36093e-22)
(0.962742 -0.0291197 0)
(0.964015 -0.0211798 0)
(1.03113 -0.00452756 8.32719e-22)
(1.03177 -0.00486388 2.40451e-21)
(1.03169 -0.004261 5.23137e-21)
(1.03884 -0.0575646 -2.56063e-21)
(1.04011 -0.0569395 -2.97566e-21)
(1.03997 -0.0587978 4.96539e-21)
(1.01106 0.00127056 -8.12427e-24)
(1.01141 0.00134825 2.41464e-23)
(1.01122 0.00123656 7.41536e-23)
(1.0229 -0.0432775 2.12116e-22)
(1.02565 -0.0442433 -2.44539e-23)
(1.02345 -0.0460365 -3.7163e-22)
(0.98964 0.0274851 -4.13483e-22)
(0.97363 0.0434783 -2.63585e-21)
(0.98502 0.0409957 -4.2381e-22)
(0.450906 0.097875 -5.55215e-22)
(0.426192 0.0914814 -6.12275e-21)
(0.388639 0.109342 -1.58874e-21)
(1.01785 -0.106777 -1.16823e-20)
(1.05181 -0.107362 8.7162e-23)
(1.02288 -0.103715 8.90905e-21)
(-0.0238764 -0.0823997 1.1172e-20)
(-0.0041436 -0.0926037 -1.85103e-21)
(-0.0391618 -0.104809 1.24118e-20)
(1.01874 -0.000915718 1.13779e-21)
(1.01886 -0.000831944 8.65063e-22)
(1.01893 -0.0010243 1.115e-21)
(1.02942 -0.044749 4.65135e-21)
(1.0303 -0.0449616 -7.98659e-22)
(1.0297 -0.0457834 3.61234e-21)
(1.03917 -0.0332848 1.97232e-21)
(1.03823 -0.0326226 4.23277e-21)
(1.03935 -0.0323325 -4.31831e-21)
(1.00634 -0.0228108 1.95324e-22)
(1.00707 -0.0237457 7.7826e-23)
(1.0058 -0.0238513 -8.13036e-22)
(1.08537 -0.118896 -1.92806e-20)
(1.08253 -0.122163 1.78732e-20)
(1.07691 -0.117173 6.12678e-21)
(1.01072 0.00118802 -3.34376e-23)
(1.0109 0.00129868 -4.35622e-23)
(1.00772 -0.0105125 1.16349e-24)
(1.00817 -0.0111773 3.01045e-23)
(1.03187 -0.0714653 5.67538e-21)
(1.03026 -0.0737162 2.48464e-21)
(1.00214 -6.93982e-05 -4.9333e-23)
(1.00244 -6.22884e-05 -3.06744e-22)
(1.00297 -8.01943e-05 -4.69333e-23)
(1.00483 3.67912e-05 -3.91292e-22)
(1.00298 6.23648e-05 -6.53261e-23)
(1.00511 2.93378e-05 -1.09519e-22)
(1.00186 -5.2329e-05 0)
(1.0013 -6.99561e-05 -1.3116e-22)
(1.03763 -0.0566995 -6.35025e-23)
(1.03744 -0.0584148 8.78779e-22)
(1.05206 -0.0266092 -8.95116e-21)
(1.05163 -0.0256277 2.46834e-22)
(1.05092 -0.0263776 4.03529e-21)
(0.00114035 -0.054856 9.4988e-21)
(-0.00432294 -0.0504443 -1.338e-20)
(1.00867 -0.0122643 7.64185e-24)
(1.00874 -0.0128856 2.60982e-23)
(1.01688 -0.0258947 -1.36756e-22)
(1.01744 -0.0266854 -4.26162e-22)
(1.01643 -0.0264547 5.20692e-22)
(0.948696 -0.0169993 -5.05807e-22)
(0.94653 -0.0259727 3.7516e-21)
(1.03886 -0.0343391 -5.61373e-23)
(1.04011 -0.0340886 3.22671e-21)
(1.02844 -0.0671551 3.10271e-21)
(1.02601 -0.0668092 -2.61927e-21)
(0.888059 -0.150738 -4.524e-21)
(0.891029 -0.159764 -3.05886e-21)
(0.880937 -0.158035 -2.60483e-21)
(1.00461 7.42634e-05 5.87671e-23)
(1.00622 6.82149e-05 5.42342e-23)
(1.0954 -0.0789047 5.46208e-21)
(1.09586 -0.0791087 0)
(1.09391 -0.0796571 8.41832e-21)
(1.09878 -0.0817737 3.19668e-20)
(1.10381 -0.0813291 1.40255e-20)
(1.10441 -0.0820611 7.81976e-21)
(1.0229 -0.116936 2.72385e-21)
(1.02575 -0.120787 0)
(1.02918 -0.113509 -4.16984e-21)
(1.02234 -0.0408599 -2.97782e-22)
(1.01991 -0.043222 1.43819e-22)
(0.896538 -0.138679 -3.34943e-21)
(0.882232 -0.135426 1.37381e-20)
(1.01096 -0.0073721 0)
(1.01082 -0.00741963 0)
(1.01111 -0.00771854 1.03301e-23)
(1.00562 0.000353138 -3.18936e-23)
(1.00556 0.000254296 -3.12955e-23)
(1.00545 0.000306587 5.00619e-24)
(0.0255264 0.109748 -1.37234e-20)
(0.0374056 0.0999498 -1.29225e-20)
(0.0249514 0.0938748 -2.23804e-20)
(0.922601 0.0815355 4.73962e-21)
(0.921118 0.0850842 -9.87973e-22)
(0.937306 0.0752809 -1.04059e-21)
(0.925011 0.0697503 -1.4971e-21)
(0.909103 0.0863628 6.30807e-21)
(0.181344 0.0761097 -1.71395e-20)
(0.217216 0.062847 2.28828e-21)
(0.242545 0.0479921 -1.7504e-20)
(0.878458 0.106744 -2.53544e-21)
(0.885213 0.105343 2.60587e-22)
(0.879935 0.110014 7.80571e-21)
(0.888413 0.114727 3.72753e-22)
(0.865501 0.143932 -3.32334e-22)
(0.865789 0.115037 -5.36618e-22)
(1.05243 -0.0276195 -3.24545e-21)
(1.05317 -0.0268115 -2.11492e-20)
(0.995463 0.0118447 2.92716e-22)
(1.00227 0.0117925 -4.65666e-21)
(0.997444 0.00546364 4.88241e-22)
(1.07596 -0.071913 0)
(1.07706 -0.072816 1.10618e-20)
(1.07719 -0.0712092 8.4363e-21)
(1.07957 -0.0873666 2.12632e-20)
(1.07984 -0.0861594 1.60025e-20)
(1.08116 -0.0868838 -2.71016e-21)
(-0.0333283 0.0593159 0)
(-0.0262696 0.0657091 0)
(-0.0237525 0.0516404 -1.04479e-20)
(1.01833 -0.000783343 0)
(1.01786 -0.000515522 0)
(1.01836 -0.000882244 0)
(1.00871 -0.000759376 1.19099e-21)
(1.00866 -0.000734245 -6.57608e-22)
(1.00965 -0.000894931 -9.47616e-22)
(1.00568 0.000454165 -3.04231e-23)
(1.00578 0.000407493 -3.89211e-23)
(1.00645 -0.000119871 2.04197e-22)
(1.00707 -0.0001203 2.60641e-22)
(1.006 -8.04835e-05 5.68651e-23)
(-0.0708642 0.0504573 0)
(-0.0795823 0.0582209 0)
(-0.0734184 0.0463537 2.08267e-20)
(1.01736 -0.0251568 -9.02527e-22)
(1.0163 -0.0250022 -1.461e-21)
(1.03191 -0.00805192 4.5085e-21)
(1.03141 -0.00762112 2.06668e-21)
(1.03216 -0.00751862 1.88916e-21)
(1.019 -0.121664 2.49646e-21)
(1.01761 -0.113548 2.19463e-21)
(0.592332 -0.177992 3.06737e-21)
(0.596874 -0.174992 2.28417e-21)
(0.556374 -0.185795 -2.39529e-21)
(0.994758 0.00186925 5.51801e-21)
(0.99883 0.00582056 1.98818e-21)
(0.998915 -7.30693e-05 1.76066e-21)
(1.06323 -0.0846654 -6.5254e-21)
(1.06117 -0.0850127 6.75705e-21)
(1.06261 -0.0866679 1.14671e-21)
(0.975236 -0.108833 2.88431e-21)
(0.969329 -0.100745 5.30729e-22)
(0.979905 -0.0999863 1.76199e-22)
(1.00699 -0.0137158 -6.16949e-23)
(1.00671 -0.0130582 -5.62137e-22)
(1.00633 -0.0135871 -1.1132e-23)
(1.08423 -0.0824262 -1.26671e-20)
(1.08667 -0.082153 1.43228e-21)
(0.874765 0.0913723 1.13197e-21)
(0.875034 0.102939 -4.91466e-21)
(1.06451 -0.0472913 -1.88123e-22)
(1.06317 -0.0476438 -1.45083e-21)
(1.0634 -0.0461743 -7.63233e-21)
(1.00694 -0.0218587 -2.23329e-23)
(1.00593 -0.0216078 -2.20947e-23)
(0.319876 -0.00762358 8.10442e-21)
(0.308816 -0.00647829 2.29241e-20)
(0.28658 -0.00240794 1.39957e-20)
(1.01624 -0.0819578 -8.24582e-21)
(1.01365 -0.083044 0)
(1.05148 -0.0834639 0)
(0.644004 -0.205572 -9.72191e-21)
(0.662269 -0.195962 -1.2961e-20)
(1.01856 -0.000821847 0)
(1.01826 -0.000742418 -1.23694e-21)
(1.00949 -0.00107898 -5.23143e-22)
(1.00972 -0.00123693 4.34147e-23)
(1.00953 -0.00127163 -4.17331e-22)
(1.01407 0.00239849 9.50962e-23)
(1.01427 0.00233872 7.28964e-23)
(1.01381 0.00223106 1.22725e-22)
(1.03378 -0.0719169 2.94674e-21)
(1.03294 -0.0701517 -1.14225e-22)
(0.444317 -0.00915978 0)
(0.465506 -0.0124662 0)
(0.447466 -0.00777633 0)
(1.05638 -0.0608439 8.50269e-21)
(1.05723 -0.0622909 -7.48812e-21)
(1.05549 -0.0623189 8.22083e-21)
(0.294341 -0.00872332 0)
(0.267085 -0.00660782 1.16472e-20)
(1.03483 -0.0130811 -1.39502e-21)
(1.03394 -0.0129488 4.37151e-21)
(1.03428 -0.012292 -2.91573e-21)
(0.921661 -0.094535 7.14842e-23)
(0.916345 -0.0972917 0)
(0.920837 -0.102931 0)
(1.01983 -0.00626316 -4.19504e-22)
(1.01996 -0.00662631 1.76956e-22)
(1.01948 -0.00639317 -3.89899e-22)
(0.170332 0.076989 -2.05521e-20)
(0.188885 0.0648029 -4.1869e-20)
(0.146161 0.0827218 -1.09904e-20)
(0.991897 -0.00157069 7.96351e-22)
(0.989476 0.003766 6.74265e-22)
(0.475965 0.098263 3.71568e-21)
(0.522606 0.0831399 6.06238e-21)
(0.972322 -0.00311397 0)
(0.969116 -0.00787141 1.27652e-21)
(0.975596 -0.00806181 5.7584e-22)
(0.906296 -0.111735 -1.54001e-21)
(0.971312 -0.124821 -1.30239e-20)
(0.949551 -0.112019 -7.25519e-21)
(1.04735 -0.0325405 0)
(1.04633 -0.0330086 -3.61299e-21)
(1.04753 -0.0338696 -7.68522e-21)
(1.01587 -0.00448789 1.5401e-22)
(1.01544 -0.00424453 1.78888e-22)
(1.01546 -0.00445253 2.75169e-22)
(1.09436 -0.0783644 -2.25649e-21)
(1.09499 -0.0789167 -1.08247e-20)
(1.02797 0.006091 -5.8883e-22)
(1.03215 0.00856393 4.41166e-22)
(1.03163 0.0034064 1.44303e-21)
(0.872253 0.0732011 -4.33428e-21)
(1.051 -0.0381168 4.8021e-21)
(1.05049 -0.0389324 -5.17229e-21)
(1.05171 -0.0391185 -4.22959e-21)
(1.0475 -0.0316008 3.65771e-21)
(1.04865 -0.0322207 0)
(1.00429 4.34857e-06 0)
(1.00437 9.21873e-06 0)
(1.00559 -0.00010506 0)
(1.05985 -0.0833211 1.60411e-20)
(1.06099 -0.0811815 -1.32313e-21)
(0.7064 -0.067314 2.07041e-20)
(0.682928 -0.0626546 3.39909e-22)
(0.682479 -0.0599446 9.99057e-21)
(0.986046 0.0117029 0)
(0.993497 0.0188477 0)
(1.00254 4.62929e-05 -5.22698e-25)
(1.00416 -2.87855e-05 -6.14887e-23)
(-0.117746 0.0391408 6.02584e-21)
(-0.0967252 0.0403693 -1.79565e-20)
(-0.112196 0.0255509 1.5315e-23)
(1.06515 -0.0635534 -6.63903e-22)
(1.06669 -0.0631811 -6.44034e-22)
(1.06544 -0.0619988 -5.8394e-21)
(1.01208 -0.0140421 6.13924e-22)
(1.01219 -0.0145364 -1.68732e-23)
(1.01182 -0.0141352 3.30014e-22)
(1.05987 -0.0178129 0)
(1.06095 -0.0183109 0)
(1.0019 7.68144e-05 -5.77415e-24)
(1.00246 0.000111518 -5.7514e-24)
(1.00203 7.8374e-05 2.46127e-23)
(0.969231 0.00989155 -1.35892e-21)
(0.969859 0.0180892 2.03498e-21)
(0.975493 0.0134886 -1.30125e-21)
(1.07036 -0.0650964 5.28983e-21)
(1.06901 -0.0654796 -6.64302e-21)
(1.07016 -0.06673 -6.15984e-21)
(1.00533 0.000730888 1.14628e-23)
(1.00524 0.00064322 -1.74924e-23)
(1.00519 0.000651877 -5.17208e-23)
(0.933224 -0.079548 7.97297e-21)
(0.885083 -0.0780273 1.02565e-20)
(0.963076 -0.0371971 -6.64555e-22)
(0.970107 -0.0327606 5.80659e-22)
(1.00416 2.19916e-05 2.09292e-23)
(1.00242 2.33127e-05 -1.33608e-23)
(1.0041 1.3703e-05 -1.63314e-23)
(1.01632 -0.00473703 -1.82472e-22)
(1.01627 -0.00449257 9.54813e-23)
(1.02493 0.00406774 -2.41636e-23)
(1.02483 0.0075036 -1.39057e-22)
(1.00117 8.8307e-05 3.08063e-23)
(1.00122 1.76774e-05 6.64836e-22)
(1.00544 1.40669e-05 2.88795e-23)
(1.00398 3.13534e-05 1.86207e-23)
(0.822114 -0.172353 -8.90559e-22)
(0.835494 -0.171752 -5.41075e-23)
(0.733672 -0.0723697 -8.20309e-22)
(0.734779 -0.0764591 -1.34722e-20)
(1.00478 0.000139212 3.06631e-23)
(1.00479 0.000131961 -3.34291e-23)
(1.00481 0.000186334 1.75683e-23)
(1.00438 -0.000145668 0)
(1.00429 -0.000145752 0)
(1.00231 -6.67963e-05 0)
(1.00814 -0.000612194 2.85437e-22)
(1.00684 -0.000521911 0)
(1.00643 -0.000419994 -4.02775e-22)
(0.0207396 0.119283 0)
(0.013942 0.119451 1.77628e-20)
(1.05903 -0.018952 -9.68847e-21)
(1.05846 -0.017547 0)
(1.01496 -0.11061 -1.12532e-20)
(0.978487 -0.106018 9.91018e-22)
(0.839183 -0.0859206 2.49306e-21)
(0.915203 0.077431 2.61063e-21)
(0.908947 0.110389 1.92689e-21)
(1.01155 -0.00521628 1.17957e-22)
(1.0111 -0.00509007 2.70612e-23)
(1.01151 -0.00548851 -1.62236e-22)
(0.945715 0.0330065 -3.2168e-21)
(0.918929 0.0336844 3.38771e-21)
(1.06036 -0.0621532 5.22571e-21)
(1.06171 -0.0622742 1.30217e-21)
(1.0608 -0.0637151 -6.13864e-22)
(1.00776 -0.00996521 -5.5451e-23)
(1.00732 -0.0098544 -4.88068e-24)
(1.05437 -0.102405 -1.02236e-20)
(1.05581 -0.100082 2.58493e-21)
(1.05729 -0.103358 -7.79542e-21)
(1.01081 -0.00701879 0)
(1.01109 -0.00729071 0)
(1.00767 0.000221388 -4.32911e-23)
(1.00773 0.000208321 8.72295e-23)
(1.00759 0.000154838 -7.04426e-23)
(0.329991 -0.0100217 -2.11456e-20)
(0.341474 -0.0139629 -1.62035e-20)
(1.02012 -0.00606141 0)
(1.01961 -0.00584366 0)
(0.83246 -0.189693 -1.86558e-21)
(1.00731 -6.52532e-05 -7.49288e-23)
(1.00729 -4.04472e-05 -1.91944e-22)
(1.00687 -5.95544e-05 0)
(1.00478 0.000148547 -2.01849e-23)
(1.00476 9.84565e-05 -5.73447e-23)
(1.02273 -0.0812982 -1.10572e-20)
(1.02907 -0.0813161 6.77178e-21)
(1.05913 -0.0828628 -8.0809e-21)
(0.152132 -0.20554 5.93231e-21)
(0.104612 -0.20262 6.70041e-21)
(0.116902 -0.198583 1.0674e-21)
(0.235456 -0.0519084 7.26527e-21)
(0.302173 -0.0260029 4.47805e-21)
(0.253686 -0.0395659 -7.19407e-22)
(-0.121234 0.0490539 1.77479e-20)
(-0.128717 0.0359423 2.42723e-20)
(1.00904 -0.000901167 -3.17384e-22)
(1.00733 -0.000460972 -3.79857e-22)
(1.02179 0.00812967 -2.72771e-22)
(1.02197 0.00924823 -2.58042e-22)
(1.02323 0.0087346 -8.92637e-22)
(1.00703 -0.000813428 0)
(1.00702 -0.000940223 2.33194e-24)
(1.00714 -0.000990211 -6.86521e-23)
(1.03048 -0.0263658 -3.10003e-21)
(1.03104 -0.0272631 -6.69915e-21)
(1.03127 -0.0261883 6.18188e-22)
(0.904796 0.0915882 -5.68326e-22)
(0.91747 0.082545 1.65298e-22)
(1.00085 -0.00162652 4.76995e-21)
(0.999621 0.00148454 -1.02359e-23)
(1.00279 -7.13574e-05 9.6993e-22)
(1.05295 -0.105721 -9.17348e-21)
(1.05051 -0.101829 0)
(1.03044 -0.00411369 -2.06743e-22)
(1.03045 -0.00469372 1.74252e-21)
(0.94151 0.0499365 2.22068e-21)
(0.926531 0.0518522 -3.86167e-21)
(1.0935 -0.0651945 -4.88306e-20)
(1.09311 -0.0664173 -1.24212e-20)
(1.00709 -0.000614803 0)
(1.00741 -0.000602168 7.1162e-22)
(1.00834 -0.000688806 0)
(-0.0515617 -0.0722243 -2.47859e-21)
(0.00177408 -0.0662012 4.66921e-21)
(1.00589 -9.47905e-05 1.62809e-23)
(1.00686 -0.000176608 2.55659e-22)
(1.04004 -0.022807 -5.05284e-21)
(1.04089 -0.023028 3.13772e-21)
(1.04041 -0.0220075 8.24898e-22)
(1.02964 -0.0266842 1.52938e-21)
(1.02976 -0.0255944 1.81855e-21)
(1.00878 -0.000670753 2.63333e-22)
(1.00876 -0.000541734 3.35334e-22)
(1.00888 -0.000453212 3.72321e-22)
(1.01957 -0.0242542 1.06531e-21)
(1.01984 -0.0236144 -5.97792e-22)
(1.02034 -0.0243507 -3.87441e-21)
(1.08055 -0.0891461 1.04906e-20)
(1.07827 -0.0882319 0)
(1.0748 -0.0708657 8.3999e-21)
(1.07464 -0.0725286 -8.60047e-21)
(1.00797 0.00272021 3.76607e-24)
(1.0078 0.00257465 2.20328e-23)
(1.00804 0.00279547 7.83507e-24)
(1.05977 -0.0353661 -2.86247e-22)
(1.05943 -0.0362726 3.91725e-21)
(1.06064 -0.0361891 3.07162e-21)
(-0.0627864 0.0419055 1.76041e-21)
(-0.0667278 0.0547757 0)
(1.0076 0.000227667 -1.14649e-22)
(1.00775 0.000287733 -2.24692e-22)
(1.01657 -0.0363184 7.06802e-22)
(1.01817 -0.0364752 -3.10724e-21)
(1.0173 -0.035021 7.40514e-22)
(1.00634 -0.000319298 1.41982e-23)
(1.00644 -0.000433012 -3.55271e-23)
(1.0063 -0.000437856 5.97791e-23)
(1.0022 -0.00540367 -3.06703e-23)
(0.997344 -0.00412888 3.85233e-24)
(1.06562 -0.0484098 8.70995e-21)
(1.0658 -0.0468528 2.60461e-22)
(1.00811 -0.010009 5.34989e-23)
(1.00774 -0.00943688 -1.42947e-23)
(0.603368 -0.049645 -9.08039e-21)
(0.559425 -0.0372626 2.8741e-20)
(0.596231 -0.0404603 -1.29965e-20)
(0.417347 -0.0043963 1.43191e-20)
(0.439954 -0.00930008 -9.24832e-21)
(1.0089 2.12813e-05 7.04129e-23)
(1.00901 5.73492e-05 1.30392e-22)
(1.00911 2.08983e-05 -6.85616e-23)
(1.0088 -0.00081054 -3.43063e-22)
(1.00871 -0.000879422 -7.5977e-23)
(0.187247 -0.0769336 2.28371e-21)
(0.224656 -0.0617322 2.15111e-21)
(1.00752 0.000231132 2.08188e-22)
(1.00744 0.00017843 -2.38071e-23)
(0.854193 0.163815 1.80613e-21)
(0.864507 0.16334 -2.10951e-21)
(1.05856 -0.0622691 -1.16362e-20)
(1.05945 -0.0607301 1.19002e-20)
(1.0175 0.00932995 4.30811e-22)
(1.0167 0.00924856 6.48271e-22)
(1.01727 0.0102782 3.44483e-22)
(1.08037 -0.119296 2.62054e-21)
(1.08911 -0.11577 -1.16563e-20)
(1.00563 0.000893936 -1.70089e-23)
(1.00573 0.000995446 -1.75747e-23)
(1.00581 0.000989651 -4.11004e-23)
(1.03945 -0.0360153 -6.29965e-23)
(1.03864 -0.0353055 -1.18418e-22)
(1.03842 -0.0362847 -5.98219e-23)
(0.979988 -0.080583 -1.61221e-20)
(1.02016 -0.00543309 -1.79211e-21)
(1.01996 -0.00508539 -8.59661e-22)
(1.01971 -0.00528471 -1.16587e-22)
(1.02888 -0.0752908 -5.56347e-23)
(1.0317 -0.0756876 7.59485e-23)
(1.00511 0.000517873 8.71402e-23)
(1.00478 0.000432474 6.39081e-24)
(1.00506 0.000499485 8.38048e-25)
(1.0034 -0.000149309 -2.44754e-22)
(1.00368 -0.000146112 1.22002e-22)
(1.00443 -0.000152948 3.84421e-23)
(1.00736 -0.0143115 4.85335e-22)
(1.00752 -0.0138293 3.13311e-23)
(1.00918 -0.000904552 3.11632e-22)
(1.00913 -0.000880665 1.30595e-22)
(1.05461 -0.0856351 5.86171e-21)
(1.05216 -0.0857139 -4.54725e-22)
(1.05347 -0.0881649 -1.86788e-21)
(1.03939 -0.0586337 2.13682e-22)
(1.04295 -0.0580535 -5.12386e-22)
(1.03964 -0.0555233 -3.02012e-24)
(0.8759 0.0969046 -1.14675e-21)
(-0.0391527 0.0523027 0)
(-0.0431296 0.0653779 0)
(1.01672 -0.00495618 -3.05143e-22)
(1.01712 -0.00492629 -1.29741e-24)
(1.01717 -0.00514335 1.31312e-22)
(1.0581 -0.0491574 9.35725e-21)
(1.05929 -0.048718 -1.04167e-22)
(1.05826 -0.0477765 1.40164e-21)
(0.587051 -0.1801 0)
(0.629328 -0.172509 0)
(1.03813 -0.0221808 4.31028e-21)
(1.03902 -0.0225631 -3.46519e-22)
(1.03855 -0.0215866 -2.25494e-22)
(1.02166 0.00724299 -2.59682e-22)
(1.02059 0.00757212 1.3854e-22)
(0.874369 -0.0445843 -1.66247e-21)
(0.878267 -0.0227837 2.45659e-21)
(0.879993 -0.0553851 -4.78071e-21)
(1.01855 0.00948554 1.42558e-22)
(1.0177 0.00846197 -1.8562e-23)
(1.01385 0.00244387 5.87611e-23)
(1.01432 0.00256903 0)
(1.012 -0.00530636 -9.17524e-23)
(1.01149 -0.00505959 -8.99107e-24)
(0.360734 -0.040528 1.78002e-20)
(0.436571 -0.0784948 9.68426e-21)
(0.417508 -0.0483748 2.29817e-20)
(1.00107 -7.58585e-05 5.4031e-22)
(1.00286 -9.56614e-05 -8.79872e-22)
(1.00075 -9.12942e-05 -5.12595e-22)
(1.01532 -0.00693848 -1.91311e-21)
(1.015 -0.00659611 2.82295e-24)
(1.015 -0.00696109 4.79243e-22)
(1.03434 -0.0502748 7.49755e-22)
(1.0336 -0.0513409 -3.74264e-22)
(1.03281 -0.050314 -7.1545e-22)
(1.02065 -0.00555899 4.03682e-21)
(1.02037 -0.0058021 0)
(0.396868 -0.148248 0)
(0.336469 -0.154842 8.69001e-22)
(0.355591 -0.14579 -5.09175e-21)
(1.04164 -0.0334521 9.14599e-23)
(1.04129 -0.0323967 0)
(1.04259 -0.032741 0)
(0.475019 -0.025925 0)
(0.454057 -0.021916 0)
(0.472538 -0.0262606 -7.89118e-21)
(1.00668 0.00170967 -1.4905e-23)
(1.00688 0.00184245 8.34368e-24)
(1.00672 0.0016941 8.8387e-24)
(0.746792 -0.0628692 -1.01643e-20)
(0.706272 -0.059929 7.75977e-21)
(0.718727 -0.0600436 -8.81836e-21)
(1.01235 -0.0138355 -3.29907e-22)
(1.01196 -0.0134752 6.36836e-22)
(0.886356 -0.0357987 -1.63454e-21)
(0.884241 -0.0105886 -7.37051e-22)
(0.897645 0.0130379 1.08266e-21)
(1.00575 0.00110284 1.96478e-23)
(1.00561 0.000996678 -1.88293e-23)
(1.00557 0.000996528 -6.24329e-23)
(1.00682 -0.000522246 -1.8355e-22)
(1.00688 -0.000366027 -1.46399e-22)
(1.00672 -0.00039351 6.87019e-23)
(1.02083 -0.0256676 1.37887e-21)
(1.01628 -0.0150839 6.42944e-22)
(1.02258 -0.011194 4.55073e-21)
(0.984334 -0.00624341 -7.18523e-22)
(0.989579 -0.00573863 -2.8641e-21)
(0.988588 -0.0107446 -2.21829e-21)
(0.131113 0.0954922 -5.93817e-22)
(0.147192 0.0807941 0)
(1.01892 -0.00213572 1.79076e-21)
(1.01881 -0.00188818 -1.64577e-21)
(1.01863 -0.00202826 -3.1274e-21)
(0.479263 -0.0260028 1.23478e-20)
(0.49801 -0.0299546 -3.09398e-23)
(1.04096 -0.0339786 3.09547e-21)
(1.04197 -0.0342067 -3.69038e-21)
(1.03536 -0.013706 -1.22867e-21)
(1.03569 -0.0130266 3.53885e-21)
(0.79301 -0.0679356 0)
(0.765551 -0.0652997 0)
(0.761977 -0.0644185 0)
(1.0708 -0.0922901 -5.46606e-22)
(1.07001 -0.0943108 6.89858e-22)
(1.07246 -0.0939131 4.24804e-21)
(0.638964 -0.0543659 1.69744e-20)
(0.60909 -0.0510801 0)
(0.608069 -0.0521248 0)
(1.00272 -9.81231e-05 3.32888e-22)
(1.00268 -9.7838e-05 -8.78324e-24)
(1.00162 -2.27454e-05 -9.47442e-23)
(1.05178 -0.0421137 -8.85218e-21)
(1.05266 -0.0432094 -3.47578e-21)
(1.05124 -0.043297 6.13173e-21)
(1.00176 6.19905e-05 -1.86615e-23)
(1.00132 2.59134e-05 0)
(-0.0613737 0.0993165 -2.90502e-21)
(-0.0548668 0.105302 2.48632e-20)
(-0.054362 0.097558 7.85088e-21)
(1.00589 0.00120314 2.44167e-23)
(1.00593 0.00121021 2.43343e-23)
(1.03651 -0.0559546 2.75538e-21)
(1.03753 -0.0553266 3.02409e-21)
(0.925295 -0.0460436 3.5346e-21)
(0.931402 -0.0547538 -2.94728e-21)
(0.917884 -0.0563332 0)
(1.00873 2.90466e-05 8.91919e-24)
(1.0088 -5.38914e-06 -4.07353e-23)
(1.01629 -0.00492559 -1.89687e-22)
(1.07889 -0.0675032 -1.96511e-20)
(1.07762 -0.0682597 0)
(1.0776 -0.0667259 -2.00113e-20)
(0.992156 -0.0386864 6.25445e-22)
(0.995027 -0.0379956 7.29396e-22)
(0.992991 -0.0355122 1.00415e-21)
(0.451236 -0.142539 0)
(0.432352 -0.151716 0)
(0.970717 -0.116752 2.41845e-22)
(0.982003 -0.11497 1.37988e-21)
(1.00693 -0.00064906 -5.93e-23)
(1.00707 -0.0006538 0)
(1.01558 -0.00693508 -6.3164e-22)
(1.01556 -0.007265 3.00545e-22)
(0.952983 -0.00782455 -5.95555e-22)
(0.942741 -0.00889428 7.13866e-22)
(0.981714 0.089333 -9.1216e-23)
(0.970724 0.0770854 0)
(0.987685 0.0783092 -1.01285e-22)
(1.00883 0.00393905 2.03067e-22)
(1.00876 0.00372485 2.30292e-23)
(1.00872 0.00351152 7.08478e-23)
(1.03482 -0.0487393 -1.08796e-21)
(1.03598 -0.0501645 4.13056e-22)
(1.003 0.000160924 0)
(1.00285 0.000137408 3.20269e-23)
(0.576757 -0.0457458 -2.23437e-21)
(0.551434 -0.0421377 3.00992e-23)
(0.571222 -0.0451841 -7.01146e-22)
(1.06378 -0.0640499 1.53766e-20)
(1.06502 -0.065301 0)
(0.87417 -0.105405 4.00743e-21)
(0.873141 -0.12796 -1.79829e-21)
(0.876446 -0.120196 -4.63685e-21)
(1.02894 -0.0269028 1.67544e-21)
(1.0281 -0.0270641 3.94348e-21)
(1.02829 -0.0260697 -1.92875e-22)
(1.03149 -0.0357088 8.37007e-22)
(1.03159 -0.0345565 -3.99065e-21)
(1.03058 -0.0350899 0)
(1.00502 0.00222262 -1.09708e-22)
(1.00547 -0.000376831 -6.72316e-23)
(1.00674 0.00176592 -1.49611e-21)
(0.993037 0.0961421 -1.12979e-21)
(0.973911 0.102153 -8.27617e-24)
(1.02742 -0.0166713 -2.43802e-21)
(1.02768 -0.0172703 -4.28051e-21)
(1.02694 -0.0169623 1.08099e-22)
(1.02958 -0.0276532 -1.99934e-21)
(1.07673 -0.0599058 1.06741e-22)
(1.07791 -0.0607406 -6.0354e-21)
(1.07616 -0.0612417 -2.99636e-21)
(1.05743 0.0090122 3.64429e-22)
(1.02576 0.0341264 6.71135e-22)
(1.05522 0.019404 -9.76276e-21)
(1.03837 -0.0622574 -1.31032e-22)
(1.0363 -0.059105 -9.35558e-23)
(0.992804 -0.0799534 7.69677e-21)
(1.03218 -0.080774 1.33371e-20)
(0.430987 -0.00126883 0)
(0.350771 0.00510511 0)
(0.315333 0.00578821 0)
(1.0224 -0.00251723 -2.0285e-21)
(1.02203 -0.002252 -3.52689e-21)
(1.02197 -0.0025471 -1.32023e-21)
(1.00679 -0.000652196 -6.04351e-23)
(1.00747 -0.0211167 9.78202e-23)
(1.00732 -0.0200199 -2.37345e-23)
(1.00814 -0.0202201 -2.0741e-23)
(0.867812 -0.10192 9.80906e-24)
(0.887293 -0.0887063 -1.70675e-21)
(0.879905 -0.107907 -2.91043e-22)
(1.00947 -0.00362038 2.19653e-22)
(1.00917 -0.00339538 0)
(1.00933 -0.00355662 9.43836e-23)
(1.05857 -0.130273 -1.49672e-20)
(1.06016 -0.13277 8.17365e-21)
(1.03056 -0.133853 5.45942e-22)
(1.03785 -0.0229396 8.94854e-21)
(1.03735 -0.0219806 -3.14697e-21)
(1.02787 -0.016372 2.20712e-21)
(1.02714 -0.0160538 -9.64003e-23)
(1.05168 -0.037379 9.29641e-21)
(1.05048 -0.0373544 1.3905e-20)
(0.825395 -0.0728408 0)
(0.820816 -0.0710589 0)
(1.02936 -0.0114676 1.68828e-21)
(1.02698 -0.01045 1.32698e-22)
(1.02938 -0.00888873 1.98407e-22)
(1.00331 0.00339225 3.54376e-22)
(1.0056 0.00468103 8.03024e-22)
(1.03956 -0.0236111 4.01177e-21)
(0.924012 -0.0576493 -6.15455e-22)
(0.937149 -0.0538163 -2.95625e-22)
(0.929355 -0.0693323 0)
(1.05551 -0.0595303 0)
(1.05712 -0.0594068 0)
(1.02843 -0.0448094 -2.78077e-21)
(1.02882 -0.0438908 -1.25415e-21)
(1.00778 0.000193246 -1.01909e-22)
(1.00787 0.000276408 -2.07243e-22)
(0.92409 -0.0801042 9.35596e-22)
(0.930053 -0.0915303 5.98364e-23)
(1.01079 -0.0205509 -2.48674e-23)
(1.01454 -0.023067 9.52238e-22)
(1.01432 -0.0188943 1.02536e-22)
(0.642604 -0.0606969 3.48526e-22)
(0.610678 -0.0565595 1.02139e-21)
(0.608106 -0.0584119 1.1661e-21)
(1.00177 0.0122489 0)
(0.992816 0.00947427 -6.92093e-22)
(1.00887 0.00416571 -4.86082e-23)
(1.00901 0.00427375 -4.70697e-23)
(1.00659 0.00166551 -2.45324e-24)
(1.00664 0.00169523 -1.32283e-23)
(1.00682 0.0018214 -2.48347e-24)
(1.00214 7.98661e-05 1.53781e-23)
(1.0023 0.000100675 3.62115e-24)
(1.00273 0.000153996 5.05281e-24)
(1.07732 -0.0587863 -5.13271e-21)
(1.07583 -0.0591764 1.95225e-20)
(0.849336 -0.12144 2.50194e-22)
(0.850071 -0.0991738 3.04212e-22)
(0.850484 0.173188 2.86291e-21)
(0.852977 0.183577 3.10526e-22)
(0.854243 0.177897 2.27751e-22)
(1.01211 0.00180368 -6.12002e-24)
(1.01252 0.00188177 4.67935e-23)
(1.01236 0.0019373 1.13168e-23)
(1.02011 -0.000659816 0)
(1.02008 -0.000828459 -1.54178e-21)
(1.02032 -0.000751612 4.95261e-21)
(0.906975 -0.0622503 4.22506e-21)
(0.918528 -0.0452023 -1.3965e-21)
(0.909822 -0.0733218 2.33633e-22)
(0.910088 -0.0504878 -1.06045e-20)
(0.90765 -0.0422777 1.72902e-22)
(1.05188 -0.108678 1.20035e-22)
(1.05588 -0.108804 -6.13623e-21)
(1.01766 -0.0245664 2.21971e-21)
(1.01816 -0.0253064 2.42337e-21)
(1.03244 -0.00844856 -4.71725e-22)
(1.03169 -0.00847681 6.01934e-21)
(1.06259 -0.0504948 9.59973e-22)
(1.06127 -0.0508249 0)
(1.06234 -0.0520505 -9.62902e-21)
(0.912008 -0.0894548 4.71876e-23)
(0.912729 -0.0809548 -7.51001e-21)
(1.07383 -0.127693 -9.46359e-21)
(1.05522 -0.127082 -5.72173e-22)
(1.02007 -0.0360713 -3.28323e-22)
(1.02011 -0.0353502 -4.4816e-22)
(1.02102 -0.0358977 1.16095e-21)
(0.463566 0.107725 7.41664e-21)
(0.531376 0.0981008 2.55646e-21)
(1.00799 0.000267593 0)
(1.00792 0.000188983 -6.73325e-23)
(1.00784 0.000194973 0)
(0.583504 -0.0459758 9.50364e-21)
(0.605044 -0.048993 -5.52678e-21)
(1.05909 -0.0346781 -8.86986e-21)
(1.06028 -0.034512 -8.10823e-21)
(1.03741 -0.032019 1.78823e-22)
(1.03724 -0.0329146 2.06243e-21)
(0.658322 -0.0619441 -4.04105e-21)
(0.619671 -0.0593837 3.18986e-23)
(0.631713 -0.0590912 4.79382e-21)
(1.01542 -0.0130472 2.03179e-21)
(1.01505 -0.013061 0)
(1.01547 -0.0134606 -4.79787e-22)
(0.970725 0.00306225 0)
(0.963387 0.00573367 0)
(0.66208 -0.0501004 7.04769e-21)
(0.662996 -0.0486258 -3.84112e-21)
(0.690865 -0.0529217 1.42354e-20)
(1.01191 0.00167894 -5.0401e-23)
(1.01173 0.00170229 -6.41896e-24)
(1.07205 -0.054531 -9.33163e-21)
(1.07329 -0.0554496 0)
(1.07167 -0.0560802 1.78623e-21)
(1.04913 -0.0390814 0)
(1.05008 -0.0401686 4.78943e-21)
(1.018 -0.0239253 8.43289e-22)
(1.01721 -0.0237427 1.81096e-21)
(0.2014 -0.202762 -2.04404e-22)
(0.19634 -0.208286 -8.51513e-21)
(1.01921 -0.0364556 -8.75181e-22)
(1.02028 -0.0370187 -1.39812e-23)
(1.0251 -0.0164518 5.18206e-21)
(1.02561 -0.0164222 3.98254e-21)
(1.02555 -0.0170422 3.71893e-21)
(0.763629 -0.0691623 0)
(0.753366 -0.0649833 -6.30386e-21)
(0.731197 -0.0620444 0)
(1.00574 0.000150221 1.6473e-22)
(1.00582 8.53686e-05 8.00622e-23)
(1.00567 4.58362e-05 8.22428e-23)
(1.03164 -0.0365469 -1.88524e-22)
(1.03242 -0.0359914 -1.7681e-21)
(1.01245 -0.00528198 5.20609e-24)
(1.0127 -0.00518337 1.62289e-23)
(1.01224 -0.00514409 6.41068e-23)
(0.680379 -0.0649563 -1.03469e-21)
(0.682804 -0.0644108 7.03428e-21)
(1.09256 -0.0753529 -7.7767e-21)
(1.09291 -0.0759167 -1.22171e-20)
(1.0933 -0.0750807 1.00599e-20)
(1.01921 -0.00222724 3.23195e-21)
(1.01903 -0.0023831 6.77189e-22)
(1.07115 -0.0623453 -2.94982e-21)
(1.07066 -0.063774 8.23934e-21)
(1.06966 -0.0623837 -3.43318e-21)
(1.01973 -0.00158825 0)
(1.01969 -0.00176849 3.97569e-21)
(1.02 -0.00169122 -2.3007e-21)
(0.465787 -0.00579844 -1.93949e-20)
(0.473822 -0.00528134 0)
(1.00514 -0.00235259 -3.30541e-22)
(1.00257 -0.00347158 -1.09122e-22)
(1.00508 -0.00580868 1.57902e-21)
(1.00265 -0.000115714 0)
(1.00288 -0.000123349 0)
(1.00352 -0.000146746 0)
(1.00962 0.000155885 -5.64828e-23)
(1.00959 8.64742e-05 -4.26314e-24)
(1.00949 -6.28692e-05 -6.07087e-23)
(1.09169 -0.0755308 -8.45542e-21)
(1.09193 -0.0746084 -7.67095e-21)
(1.05101 -0.0410662 1.12096e-22)
(1.05229 -0.041052 -4.62026e-21)
(1.04187 -0.0212294 5.3045e-21)
(1.04181 -0.0220405 0)
(1.04108 -0.0214519 5.2654e-21)
(1.01995 -0.000585253 0)
(1.01577 -0.0130423 1.54997e-21)
(1.01537 -0.0126895 -1.09741e-21)
(1.0245 -0.0166126 -3.68365e-21)
(1.02454 -0.0159359 1.03947e-21)
(0.958085 0.0464079 -2.50202e-22)
(0.955785 0.0607758 3.74691e-22)
(0.069144 -0.00222741 -5.26936e-21)
(0.0611938 0.0141327 -1.31953e-21)
(0.617866 -0.075267 7.36396e-21)
(0.641498 -0.0867137 1.22411e-20)
(0.62238 -0.0917995 2.23237e-20)
(1.00595 -0.0158492 1.31427e-21)
(1.00483 -0.0158405 6.42111e-22)
(1.00558 -0.0145267 1.51264e-21)
(0.70099 -0.0646645 -5.36795e-21)
(0.690012 -0.0646033 3.21497e-21)
(0.862574 -0.155893 0)
(0.826303 -0.159077 9.6909e-22)
(0.816056 -0.157438 -6.78567e-22)
(1.01864 -0.00103288 -1.66362e-21)
(1.05781 -0.0505007 -7.78767e-21)
(1.05688 -0.0494844 9.99119e-21)
(1.04824 -0.108744 9.08088e-21)
(1.0504 -0.112162 7.95802e-21)
(1.03375 0.0141292 4.16781e-22)
(1.03338 0.0195161 3.63504e-21)
(1.02847 0.0153191 3.60158e-22)
(0.977867 -0.0403753 5.26372e-21)
(0.98002 -0.0363829 3.20707e-22)
(0.981773 -0.040858 5.79791e-22)
(1.08099 -0.0831636 2.04313e-22)
(1.07981 -0.0828015 -1.01356e-21)
(1.08075 -0.0820282 7.11199e-21)
(1.07978 -0.124467 1.04267e-20)
(1.01585 0.000561405 1.13246e-22)
(1.01475 0.000586556 5.09979e-22)
(1.01484 0.00128153 -2.72832e-22)
(0.822146 -0.162474 -6.67134e-22)
(0.825981 -0.152601 -1.43976e-21)
(0.834174 -0.167399 6.81619e-22)
(0.655431 -0.0507439 -5.42518e-21)
(0.625864 -0.0472395 3.7179e-22)
(0.63245 -0.0476573 -1.33968e-21)
(1.01869 -0.000655941 -2.7496e-21)
(1.019 -0.000761689 -3.03517e-22)
(1.00757 -1.32442e-06 -2.2411e-22)
(1.00866 -0.00263601 6.43527e-22)
(1.00599 -0.00223853 2.81599e-22)
(1.00729 0.0032303 2.56522e-21)
(1.01067 0.0011596 7.41892e-22)
(0.970519 -0.0812328 -4.47598e-21)
(0.975782 -0.0825971 -2.30101e-21)
(0.971932 -0.0892226 -3.42757e-23)
(1.042 -0.0205167 2.46316e-21)
(1.04276 -0.0211671 8.63616e-21)
(0.974585 -0.043768 3.52913e-21)
(0.972921 -0.0388748 -2.32865e-23)
(-0.0668238 0.0931731 2.49118e-20)
(-0.0681349 0.1011 -2.21981e-20)
(1.00882 -0.000960248 -1.00698e-22)
(1.0089 -0.000734863 7.70759e-24)
(0.822657 -0.170896 -4.4739e-21)
(0.811684 -0.152678 -3.9367e-21)
(1.00966 0.000297356 1.58894e-22)
(1.00975 0.000427234 -3.85886e-23)
(1.01976 -0.00142286 3.12389e-21)
(1.01951 -0.00149846 -1.87301e-21)
(1.00352 0.000206462 0)
(1.00314 0.000181852 -2.76492e-23)