/*--------------------------------*- C++ -*----------------------------------*\
| =========                 |                                                 |
| \\      /  F ield         | OpenFOAM: The Open Source CFD Toolbox           |
|  \\    /   O peration     | Version:  v2012                                 |
|   \\  /    A nd           | Website:  www.openfoam.com                      |
|    \\/     M anipulation  |                                                 |
\*---------------------------------------------------------------------------*/
FoamFile
{
    version     2.0;
    format      ascii;
    class       volScalarField;
    location    "400";
    object      omega;
}
// * * * * * * * * * * * * * * * * * * * * * * * * * * * * * * * * * * * * * //

dimensions      [0 0 -1 0 0 0 0];


internalField   nonuniform List<scalar> 
13917
(
0.0393282
0.0221713
4.73519
0.0234735
0.0221081
0.431719
4.36888
4.91719
5.70133
0.0633911
0.149609
0.0633198
0.0235437
10.7105
0.026098
0.02493
0.0222896
0.0514745
0.0621607
0.0221136
0.0222667
4.28251
0.0220932
4.92907
0.0220117
4.10981
0.041715
0.0533553
0.724584
0.0967758
0.0418649
0.027666
0.0357866
0.0256118
0.0220278
0.854941
0.0221019
3.81313
0.0251726
6.26023
0.0219045
0.0222858
0.0215869
0.0811183
0.0220642
0.0272941
0.050672
0.0668657
2.86095
0.0220197
0.0265351
0.022343
3.39385
0.0259812
0.0223022
0.0265418
0.147396
0.022032
0.0248182
0.0220228
10.528
0.0221736
23.9776
0.0221022
0.403682
16.3031
0.0221037
0.0220456
0.16293
0.0359506
0.0221158
5.77908
4.31684
0.0220176
2.9077
0.0741709
5.68452
0.0226943
3.87114
0.0222367
0.0222045
0.0221112
0.375133
3.79616
4.86958
0.0226012
0.0221801
12.9493
0.0262826
0.021578
4.10026
0.0844016
0.0218802
0.0229848
14.5844
0.378263
0.113862
0.06177
0.128791
0.107558
0.0218198
0.0323554
0.0815141
0.0230708
0.0217991
6.0395
0.434739
0.0704808
0.0222942
0.0447125
4.3647
5.50219
0.0810685
5.9255
0.0229584
3.18043
0.0220098
1.48137
5.11499
0.0259804
0.0222738
0.157633
4.62138
0.0502882
0.0219806
0.0228213
0.022033
0.0219882
0.0216091
0.417522
3.59127
0.0228643
0.0220868
0.0222742
3.12155
4.89768
0.0398752
0.113812
0.0220967
0.0258927
0.312226
0.0217693
0.0225736
0.1006
0.0220456
5.89371
0.76318
0.0222894
0.0217432
0.0282952
0.0537234
3.20111
0.0830777
0.0409346
0.026759
6.49439
0.0344832
3.18909
7.67995
3.20748
0.024204
0.0421054
0.0222366
0.108867
0.079441
0.12634
0.0230428
0.0572293
0.0219058
0.0333682
0.0412102
6.72393
0.08825
0.0225934
5.50426
0.0448996
3.58226
1.95538
5.81073
0.021923
0.0883455
0.0433412
0.0217632
0.0221711
0.0298501
4.2475
0.320801
8.49505
0.0357557
0.117777
0.324448
5.42229
0.294011
0.0221036
0.120886
0.0403721
0.0224637
0.0218882
0.227187
6.45622
0.0259095
0.022035
0.0531421
0.0530365
4.73305
1.49416
0.02203
0.0220457
0.0603573
4.48872
0.0224743
4.38345
6.60742
0.118186
0.021807
0.570648
0.0529333
6.14789
0.0219666
11.1981
0.0219173
0.0865668
0.0218955
3.86492
6.08712
0.0252538
1.90814
0.0270762
0.0218105
0.794069
0.0864279
0.0353594
4.82281
8.83237
0.0217756
0.0281447
4.05717
4.66045
0.0222288
0.0219506
5.00551
0.129151
0.0222668
0.214539
0.0919552
0.0402426
0.0366221
0.0222287
0.0447699
7.3216
0.0219275
0.112553
0.141021
0.0220103
0.0220219
0.0658871
3.74898
0.0781525
0.030175
0.026246
0.0222712
5.99601
7.11554
0.259689
0.0218183
4.57752
6.688
3.87428
3.79774
0.0791282
0.0222152
0.0219369
0.0508807
4.08228
0.113627
0.0245468
2.09576
0.0412804
0.021602
8.51794
0.0220901
5.50391
0.0254702
0.022262
0.0272092
0.0406116
0.0422953
0.211223
0.0322157
0.0220272
0.317955
4.85693
7.08875
0.0219679
4.36381
0.0221727
0.0220216
0.0220175
1.09995
0.0221058
0.0947889
0.0357203
0.0218864
0.0533017
0.0230764
2.39916
0.0437499
0.0770993
0.0218024
0.0220128
4.44354
5.24234
0.0220041
0.021916
8.5745
0.0219043
4.17932
0.0217956
3.87718
0.0223654
0.451636
0.0326124
3.03076
0.0239061
1.21503
0.306007
0.0272091
0.128414
0.505254
0.0222591
3.70537
0.120143
5.57759
0.0247882
6.58328
0.028836
4.80922
0.246472
0.108898
0.106388
4.63564
0.0222168
0.0427477
4.35938
0.0221692
0.0234276
5.99275
0.276535
0.0225195
0.214442
0.664727
0.0218616
6.15152
0.35142
0.0220836
0.0218956
0.0221803
0.0217381
0.32862
5.70448
0.674926
4.35943
0.0220155
0.126157
6.5758
0.0411916
4.29246
3.93584
5.98132
0.021769
0.242008
0.0218754
11.2135
0.0220208
3.76965
0.0918933
0.024459
0.0221985
0.0573796
0.0960862
0.0695579
8.6329
4.55021
9.5111
0.0466433
0.0594069
0.0219585
4.8311
4.14284
0.0220502
0.647964
0.022042
0.314
0.0223628
0.0222267
0.0231164
3.58838
0.0230803
3.43657
6.53163
0.134147
0.464359
0.0222478
0.484574
0.418449
0.0220387
0.307158
0.0221519
0.0220274
0.0969805
0.0222616
0.0220161
0.0218715
0.344884
0.0222478
5.51347
3.93395
5.12317
0.29439
3.37108
6.09925
0.0405973
0.0220217
0.16564
0.0249675
0.0293837
0.022096
5.79739
4.36735
3.97612
0.0249002
0.103966
0.0245453
0.0256058
0.0691853
0.022902
0.292571
0.0222811
0.0220968
4.1192
3.57361
3.57418
0.124616
6.1002
3.66859
4.33001
5.71995
0.0216385
0.0552934
0.022959
0.0220752
0.616725
0.0515928
0.0218966
0.0599739
0.038558
5.7922
0.0220345
0.111181
14.9036
0.710777
4.38616
0.0222552
0.022057
0.0224278
0.0347501
0.0217715
4.25982
0.538526
0.0320362
5.44189
0.0264652
0.111173
4.48424
0.776464
0.129815
0.340486
0.11083
0.0586544
0.15539
0.0412771
0.149194
0.589444
0.0466087
0.0781754
0.02187
1.67052
0.027255
0.0216653
0.0333121
0.0227967
5.35804
5.92955
0.0218993
0.0216195
4.46156
8.66814
0.0222618
5.72366
0.022775
0.217153
0.0219134
5.01131
2.25808
0.0282219
0.0223001
3.34738
0.24843
6.93071
0.0222694
6.45026
2.46119
8.83658
0.0216746
4.63716
6.53098
0.0412598
0.0218887
0.0222806
0.0744452
0.326131
0.0218298
0.0219017
0.02196
0.0219544
5.12937
0.691905
0.0406796
0.30801
0.0219676
0.021827
0.10182
5.29767
0.0327828
0.0219181
0.0220232
0.0220654
8.78629
6.0222
0.0221742
0.0220643
0.214154
0.0409439
0.0325825
0.0220498
0.0231905
0.0267801
0.0763488
0.403119
0.319597
0.168796
0.0934878
1.56465
0.0754359
0.0219777
6.10717
0.0220689
0.0237053
0.0241002
1.65045
0.0746605
0.0218324
0.71105
0.109448
13.1226
0.0944738
0.0354558
0.0405424
0.0221897
6.89706
0.493271
4.21362
0.0221999
0.0290962
0.311438
3.93429
24.2143
0.0647037
0.144003
0.0248789
0.0240359
0.0220527
0.0542312
0.0865308
0.0221636
0.0524151
0.134418
4.30387
6.25082
0.0239638
0.107542
1.62215
0.0283443
0.0223852
3.52593
6.41757
5.69215
0.278706
0.0216234
5.53848
0.0728618
0.0218661
0.0310692
0.0715871
0.034396
0.0949082
3.89547
0.151361
0.0367381
6.83814
0.0230818
7.17759
0.0222374
0.0221676
4.4552
6.36566
0.628678
0.0230769
0.0225398
0.0220674
0.0419178
3.37267
0.119274
0.0242309
0.121046
0.0562659
0.0219177
1.95544
0.115874
0.313574
0.0219493
0.146667
0.0227756
10.5873
0.0647264
0.0746227
0.0294001
0.0218827
0.0216822
0.0220672
0.117405
0.027666
0.31881
7.24557
0.0564827
0.0218707
0.147836
0.656739
1.43177
0.0219054
0.0270692
0.0219095
0.0284077
0.0249753
6.35388
0.0222286
3.99595
0.0281652
0.148228
0.0856759
4.3407
0.0776468
0.0222359
4.313
17.5363
0.0220309
0.0240231
2.3708
0.225709
0.113459
0.0222376
0.0223281
0.339759
0.0245887
0.0689848
0.06282
0.0216835
0.0529713
4.76845
0.0218892
0.0229159
0.0219798
5.451
0.0222656
0.0245789
6.08706
0.0232976
6.32008
0.0268399
0.0364759
0.0219724
0.0499118
0.022026
0.057273
0.0218882
0.0837843
0.0227763
27.4635
2.99576
5.33727
0.0223085
0.0222062
0.071453
0.0475658
4.69707
5.62064
0.0510058
0.0220315
0.339156
0.654484
0.294605
0.267731
0.0488226
3.84093
0.038864
0.0393673
0.141824
0.180266
0.0503129
1.09666
0.0498011
0.0234358
0.0761121
0.0273122
0.0217394
0.0282071
0.0446577
0.0276552
0.022033
0.021929
0.0565033
0.0232471
0.0698202
0.0220337
0.0220568
0.0222733
0.0230964
0.0215426
0.0256676
0.0219999
5.18615
0.0622183
0.361911
0.0217952
0.0222472
0.0479771
0.0596682
0.0226879
8.33202
0.0781877
11.2682
0.0282599
0.118547
0.0223936
0.0222688
0.0219372
0.0230933
7.84526
0.022255
3.99438
0.0259378
5.94993
0.0490412
0.0794646
0.145669
0.0216793
0.022291
0.0633262
0.0220457
0.0223915
7.93301
0.022675
0.0221805
0.0275852
0.0219443
0.0216761
0.0277126
0.0279131
5.97781
0.0346768
0.0218881
0.0218796
3.95987
0.115333
0.0221871
0.0222035
8.17107
2.11711
8.62569
0.0354763
0.0234453
0.0217869
0.0216583
0.0474763
0.0356983
0.229035
0.025136
3.79828
0.0222806
0.0236023
9.33927
0.0220484
0.0273719
0.0219883
0.0220808
0.0433365
0.0432471
0.0224478
6.27796
4.30617
0.0866266
0.0219739
0.021596
0.115171
3.30139
0.0222612
1.10534
0.021596
0.0421337
0.0217335
0.0217779
0.332847
0.0219753
3.31625
0.0393372
0.0222731
0.0216182
0.022067
0.0219107
0.0228349
4.1498
0.0218536
0.0217646
5.18999
5.89521
0.037853
0.0462046
0.065356
0.0249348
0.021783
0.0280794
5.02627
0.0887735
0.0221305
0.0222447
5.72279
0.0353058
4.47754
0.0222662
0.0227947
6.5458
0.0328885
0.0225213
7.94628
1.74266
0.0219076
0.128175
0.0219346
0.0219514
0.0217825
4.33079
0.0215356
0.0219109
0.0217774
3.47234
0.0245288
0.21531
0.0635669
0.0217692
0.0327835
0.0221743
4.37219
0.0219658
0.0218709
0.0221815
0.119643
0.0221737
0.15113
5.74132
4.75717
0.0265456
0.405308
5.33982
0.0220083
6.91354
9.87493
4.83662
3.39005
5.07908
36.6551
0.137553
0.0223059
3.8176
0.0328341
4.05813
0.021669
0.0218757
0.0221885
0.0221675
0.0256959
0.0309963
4.5767
0.0218657
0.0220716
6.40494
0.286932
0.0220677
0.0377677
0.0292202
0.0221855
2.79561
0.0394708
0.0237253
0.0244677
5.68917
7.76449
1.29969
0.0217174
0.251183
0.109056
4.62759
6.02405
0.0864973
0.0219089
0.0224526
0.0222829
0.0215015
0.0231811
0.0216314
0.0268887
0.0378516
5.73033
0.126644
0.0219245
0.115583
4.36065
0.0410106
0.0223026
6.44325
0.0218705
0.022313
0.037609
6.74562
0.0221739
0.0219504
4.38843
0.1953
1.20792
0.102823
0.874662
0.0219257
0.16826
0.0223312
0.022
0.0223244
4.22615
6.33276
0.021757
0.0216145
0.0220072
2.55025
0.0229714
0.0292585
0.0220462
0.022408
0.163617
0.0217845
0.058411
0.338541
3.56963
0.0219814
0.0815518
0.0241379
4.51607
4.30298
0.0220179
4.49092
0.0697236
1.45319
0.0221726
3.53399
0.0222454
0.0263694
0.0421314
0.102838
4.46272
0.413329
0.173127
6.51251
0.0218644
0.290317
0.0217683
0.027297
4.38485
0.0220847
0.0222529
0.0227632
0.0221599
5.25053
0.0216748
0.022084
0.053866
0.0461715
0.0487543
0.595717
0.127872
7.66073
0.0634973
0.0345797
0.038435
4.64059
0.0388929
14.4062
4.03285
0.0251918
0.0217874
3.25385
0.31056
0.0222934
0.106661
0.0331572
0.0222879
0.0260689
0.0222011
0.0421464
0.0222921
0.0478563
0.107397
0.0218831
0.0593919
0.0218021
0.0588225
0.0218837
0.0260906
0.0565333
0.0233802
0.0220818
0.0217666
2.08374
0.0791422
6.18828
0.0220134
0.022121
0.0575457
0.0219893
0.0887774
0.0793573
0.0222897
0.0922978
0.0217873
10.2096
0.0222576
0.0362814
5.33795
0.28615
0.0219326
0.0235494
6.74361
0.0220024
0.0219211
4.49102
4.21265
0.024208
0.161643
0.0221042
0.0220754
4.27752
0.0229652
0.0216894
0.249556
0.0218059
2.05427
0.0221981
0.0216925
0.0221889
0.12994
3.64023
0.0221182
0.0222593
0.0219266
0.0257659
0.0220778
0.984356
0.0573522
0.0222688
5.7051
0.049091
0.296912
3.6864
3.65541
0.0217457
0.0222452
0.0220392
0.738401
0.0262564
3.68172
5.71357
0.0238789
4.28577
2.31676
0.0482923
0.142272
0.0689166
0.380942
4.50289
0.0621121
0.971305
3.82786
0.0620091
0.0250973
4.46921
0.0538456
0.0216805
0.0232185
13.9296
0.0377707
0.021893
0.0517576
0.0975589
0.0380382
4.35256
0.0236709
6.50855
0.0385009
0.276241
0.12094
0.268775
0.0285618
0.021779
0.0225509
4.7466
0.0219958
0.0240729
0.0218005
0.0232045
0.0218682
0.0350836
0.146784
1.91543
0.0439402
0.0588781
3.99613
0.348791
0.0218604
2.21356
4.15113
0.0217282
0.0219122
0.0302842
6.70514
0.0222544
0.0674256
0.596395
0.0472659
0.0220594
0.0230508
0.0218208
0.106995
0.0391043
0.021991
31.058
3.85401
0.0425647
1.34167
0.062867
4.69066
0.0232347
0.0252113
4.29394
1.99625
0.0873636
1.74696
0.0280227
0.0222763
0.0219394
0.0221646
0.0220274
0.0226197
0.0519963
0.0219411
0.11902
0.0219431
0.0281011
0.0217498
0.0788218
0.118417
0.757064
0.0219961
0.265902
0.021938
4.40515
0.0220367
0.0256175
0.0221245
0.249581
4.63282
0.137079
0.0219348
0.127009
0.0220196
0.0294249
4.16635
0.0219261
0.022345
0.0444932
0.0310431
4.28836
0.0219425
0.0295622
0.0230454
0.0220415
0.0320462
0.0224456
0.02175
0.0236317
6.38826
0.024322
0.234358
5.73224
0.0503561
3.54023
0.0240867
0.0217563
0.0307624
8.25007
0.0232445
0.0361167
0.0408528
4.10724
0.0218971
5.74458
0.0608064
0.0680768
0.0217191
0.0216328
0.166354
0.0224128
0.0222859
0.0335785
0.0216783
0.0243477
0.0282413
0.0677086
0.274153
4.29417
0.0249635
0.0712624
3.08808
7.4498
0.0365866
0.259368
6.5717
0.0383726
13.3637
0.0236564
19.8054
5.23381
0.0216629
0.022262
0.0219564
0.0225421
0.0441663
0.0217515
0.0238781
0.0866319
0.0232072
0.0351546
4.23226
0.0300551
0.0240047
5.70975
0.0225262
5.63572
0.0241744
0.0543777
0.0218867
6.72094
5.98091
0.0220185
0.0226555
3.69936
0.029406
6.70445
0.0220231
0.021804
4.29943
0.0226408
0.0441842
9.95641
0.022066
0.0532984
0.0288633
0.0216288
0.0219042
3.78183
5.56856
0.0221839
0.0234052
0.0220521
0.0263484
0.0363562
6.00681
0.0226489
2.56696
4.29342
0.252345
2.79897
0.022593
0.118703
0.191802
0.0289291
0.0220615
0.0580576
4.05385
0.0233479
0.045926
4.99307
3.63563
0.299029
0.0251811
0.0222516
0.0222463
0.0220685
7.43384
0.0531763
0.0236944
0.0227618
0.0242416
0.02227
0.0219757
0.0220427
0.0700392
0.0370587
5.60948
0.0461236
5.14056
3.34861
0.030243
0.0492394
0.0218127
0.028353
8.15615
0.0221192
0.0234965
0.0497691
0.113585
0.0564243
3.82817
0.216295
0.0218746
3.89407
0.021597
0.0222287
0.0454239
0.0222734
0.0219225
0.163288
6.90371
0.0218117
4.21149
0.0221012
0.021736
0.0234147
2.69403
0.0288444
0.0241477
13.0807
0.0228748
0.229795
3.35858
0.0222462
0.0473327
0.0220115
5.83855
0.06861
0.0220445
4.06924
0.0522799
0.0783759
0.0222785
6.48719
0.0290889
0.404074
0.0228558
0.0713028
6.77526
0.0217565
1.45118
0.0221081
0.0604947
0.0520416
0.0222453
4.55799
0.0235442
0.111363
0.0560425
0.0965283
0.040113
0.0435445
0.0225799
4.95679
0.0316876
6.93237
0.029794
0.0619381
0.0219609
0.0431465
0.022046
0.0670017
4.61975
0.0227229
0.0218278
3.4343
0.0227694
3.26118
0.0224421
4.30025
0.320552
0.0348193
0.0219919
0.0219413
0.0221097
0.0216304
0.0997884
0.0557956
0.0383024
0.0256311
0.0220836
2.06663
0.0234821
0.0336363
2.67498
0.0220337
14.2703
0.0496255
0.029286
1.26222
4.30802
0.320543
4.46544
8.9902
0.0218902
0.356604
4.96416
0.343242
0.0221737
0.022218
0.110429
3.99416
5.5101
0.611117
0.0222739
0.0505875
0.0390356
3.36697
4.90355
0.0408118
0.12332
0.0238306
0.0790737
0.0871407
0.0221654
0.101649
8.12138
0.022131
3.2595
0.0222532
0.021952
4.62978
3.98818
0.0218515
0.0223469
0.0224427
0.0218106
0.0481821
0.169387
0.0230184
0.0219899
0.0220992
0.0391266
0.0275458
0.0273019
0.331989
0.0220271
4.07577
7.56192
4.2572
0.151746
0.0510808
0.942974
0.032739
3.76979
1.81071
8.79452
0.022402
6.90076
3.42663
0.0217707
0.0220368
0.100934
4.53597
9.93856
0.0217717
0.0220248
3.56072
4.02003
5.77964
0.0238978
0.0239074
1.88998
0.022191
3.68541
7.34939
1.22509
2.1862
0.0220636
0.0219258
0.0218886
0.0261412
4.07925
0.0389936
0.0252585
0.0226281
0.0850764
7.09604
0.0390963
6.14566
5.31216
5.19795
2.17277
0.0220516
0.0221726
4.32343
0.0216634
0.021679
0.0230246
2.84678
0.0364021
9.6298
0.127981
0.0220273
5.45987
0.0388332
0.0218721
6.04183
0.167566
0.0250589
0.022086
5.14818
4.51647
0.0221805
7.52745
4.36193
6.41069
2.02025
0.0810334
0.0219295
0.022523
1.68988
0.0253895
4.47332
0.0409529
2.82766
0.256731
0.0228888
0.0289258
0.0219257
0.0226946
4.75425
6.86643
0.0220688
4.87098
0.0415606
0.0220319
0.0247666
0.0219364
0.156939
0.0224213
2.28104
0.0511927
0.0219205
0.0218756
0.0925286
7.99008
0.0380298
0.0239238
0.0420416
0.0220407
0.0230659
0.0270158
8.69883
4.05761
4.52612
0.0217218
0.0218688
0.0223418
0.119718
0.0218773
0.0223872
0.164666
0.0566614
0.774717
0.0216508
4.48053
4.02821
0.0222843
8.81307
0.110945
0.0361847
2.05378
0.0222906
5.17707
0.0294202
0.0230372
0.0238852
0.0216598
0.206038
0.0224469
0.0227251
0.0307482
3.47534
3.57585
0.0222462
0.022023
0.0234436
0.0219834
0.129188
0.0224338
0.0817663
0.0234527
4.10613
0.0226222
4.21257
0.0217232
5.64814
0.0223779
0.0216439
7.19204
0.31542
0.116423
1.05553
0.0441678
0.0395817
0.0220452
5.13212
0.0220646
0.0218837
0.0879179
0.0620161
10.3299
4.48439
0.118561
7.03079
0.125677
0.669883
0.021903
0.0247733
0.0275344
4.1405
0.0248431
4.27598
4.45348
0.0221707
0.0220695
0.0220132
1.50274
3.32756
0.023281
0.0221102
0.025666
0.0278389
0.0370993
0.379069
0.311616
0.022065
0.614908
0.0827557
8.39342
0.0697653
0.0232338
0.0238007
5.27633
0.0218857
0.0865043
4.57554
0.0227123
0.0252688
0.169186
0.136164
0.0227549
6.54162
0.0242584
0.289679
0.0393252
0.0301972
0.0226956
4.44352
0.0218621
0.0961618
1.44674
4.91862
0.0484904
0.065408
0.025396
0.0474464
0.0222658
5.13561
0.0264073
0.0219734
0.029445
0.0220927
0.0222692
3.05015
0.022069
0.0221794
0.0220454
0.125739
0.0222498
0.0328198
0.0699971
0.227026
0.113554
0.0222537
0.235158
0.471395
0.215979
0.0827365
0.0274949
0.152027
4.7696
0.621955
0.0222845
7.64003
4.19178
0.0222839
0.0240243
0.0216498
0.72138
0.103083
0.0220353
1.29138
4.20108
0.0218133
0.0222156
3.7444
4.12721
0.0634018
0.0216629
11.2069
3.23366
3.27387
0.022029
4.15711
0.0800689
0.0703602
4.43547
0.0259466
0.0216616
0.0296517
0.184444
0.0314265
3.95723
4.55831
0.0218221
6.53125
0.505583
4.57582
0.0217207
0.0518399
0.0222949
0.0219263
4.13776
2.76784
0.280483
3.72117
0.0291703
0.0492862
0.0222022
4.76131
5.88233
0.0220491
0.0222409
0.0318254
0.0218081
0.0494111
4.46418
7.57096
0.0498132
0.0224466
0.0221326
4.14423
0.0249626
0.0512717
0.0218015
0.0229646
0.69559
3.08628
0.32224
2.92803
0.0221712
0.298343
0.0222997
0.0475257
10.0038
6.79931
0.0220738
0.0222938
0.0348076
0.0256971
0.0221919
4.40362
4.17455
0.0217829
0.0215241
0.0221911
0.0219702
2.68224
0.0217362
3.87791
0.0997782
0.06188
0.0218572
0.047334
4.71783
0.0329493
0.440625
5.98937
0.0222473
7.02542
0.0331023
0.0355814
0.355378
7.15723
4.63744
0.0584697
0.0219002
0.251464
0.0217463
0.0252633
0.0222116
3.891
0.0316228
1.96936
0.299504
0.0473545
0.0221251
0.283504
0.0266323
0.0222704
0.262032
0.0216039
0.0371477
0.033564
0.0221735
10.0124
0.0233461
0.580715
0.0228185
0.021939
5.69912
3.66208
0.0241069
0.0325668
0.0381546
0.0569045
0.0566591
0.0260036
0.0258326
0.0250499
0.213726
0.0250155
4.01567
0.0591568
0.248166
0.114329
0.0226144
4.56746
0.0216146
4.51311
0.024212
4.37793
4.54523
8.3603
7.59202
0.308646
0.0758656
0.0220056
4.28382
0.0844063
0.0220439
7.85897
5.65866
0.0232722
0.0236764
0.0304463
0.0304517
0.0317671
5.18281
0.022284
0.0293924
0.0343432
0.0320848
0.0221649
0.0822801
0.0216165
4.11722
0.0236454
0.129866
0.0314618
0.0387991
0.12146
3.16042
0.0843819
0.0218375
0.240703
4.26731
23.3231
0.0223683
4.17505
0.0286067
1.79345
0.0220648
0.0244719
3.8248
0.0504452
5.03332
7.31611
0.0333727
5.02709
0.021972
0.0216063
8.8153
0.0591831
0.024397
5.39039
0.0267641
0.0454884
0.0292798
0.0697382
0.0221563
5.73552
5.2432
6.98652
0.285735
0.0253587
0.0561822
5.00862
0.0240119
0.0223061
0.0808303
0.0216971
0.291306
8.01878
6.37036
5.36992
0.0538936
0.0224318
4.1856
0.0216022
0.0714345
0.0222353
24.5804
0.023741
0.0475143
3.71087
0.115065
0.0220286
0.0320035
9.59193
0.0220765
0.140092
0.0217927
9.62964
4.29785
0.10981
0.0828409
0.0219538
0.200839
0.133008
0.0385918
0.0217977
0.0224674
0.0221472
0.0529542
0.0221242
0.0832061
0.0221246
0.0218006
6.69094
0.021865
0.0266583
0.0249252
0.0222747
3.61713
0.0218613
0.0336298
4.00635
0.0474058
3.93115
0.022064
4.55106
0.0497683
5.16187
0.0235274
0.12197
0.022162
0.0400388
0.118755
0.108994
0.242481
4.12981
0.210302
1.7871
0.0269731
0.107203
0.0415527
0.594305
0.0250435
0.0221111
0.0220322
0.0503005
0.0459556
2.10466
0.0520177
4.6491
6.87598
0.102788
0.0220063
4.23723
0.198654
0.0224692
0.024054
0.0220745
4.90027
0.0220351
8.23284
0.0218528
0.026784
4.89875
0.0776498
0.0220452
0.0220268
7.77051
0.021873
0.0240251
0.0250827
0.0323357
0.0274501
0.0221609
0.149454
0.0820047
0.0436385
0.305244
4.45889
3.61197
6.13253
0.0217381
0.0219894
0.10093
0.0224416
0.0469726
4.11853
3.7437
0.0216594
0.0220454
3.34698
0.356557
0.0216751
0.0218391
0.0265765
13.5968
4.02129
0.0263819
0.0337813
0.0222
0.366248
0.121598
0.141385
0.0317635
0.0439195
0.0224161
0.0376603
0.313648
0.0227675
0.0221407
0.026196
4.53956
0.0251658
7.27681
0.0221082
3.79167
0.0362838
0.0279906
0.0217811
0.0219285
0.777675
7.9237
0.0582077
4.2091
10.048
0.0225274
4.00324
0.13943
0.0218955
4.56733
0.259723
0.110165
0.0222538
3.45529
4.52791
0.0219528
0.0393839
4.24846
0.044542
0.0220509
0.0217932
0.0223799
0.0238289
0.0800703
0.296511
0.0777327
0.0763029
0.021726
0.0221915
4.62439
0.0218432
0.0478596
0.0265366
0.0221316
0.0493359
0.0220276
0.0236989
0.330703
0.0220016
4.48755
0.0220233
13.821
3.6403
0.0911917
0.022238
0.0222927
4.21271
0.0216483
0.0241184
0.0223382
0.330132
0.89855
0.0332502
3.64697
0.0416205
1.20023
0.0225408
0.0670229
0.0217981
0.0221405
5.04582
3.69888
1.21703
0.0237249
0.0670673
0.0670285
4.83659
4.07229
0.309884
0.0388697
0.0215973
4.15536
0.021908
0.0219661
0.289504
0.109773
0.0282382
0.198229
0.0470714
0.0314631
0.0274736
5.24141
0.0242781
0.0219954
6.75774
0.0467458
0.0217183
3.42982
0.0220348
0.0221127
0.156612
0.150155
12.4922
0.0217349
0.0247607
0.0219182
2.21696
0.0218677
0.544725
4.02095
3.56396
3.41731
32.8414
0.0302294
4.46816
0.869721
0.0222102
0.0305345
0.0435379
0.030353
1.23853
4.12372
4.48828
3.52194
2.35642
0.0221537
0.101902
0.0220422
4.83134
0.028373
0.0231086
0.0240286
0.0226748
0.0218826
0.102299
4.4901
0.0217256
0.0235928
0.0218674
4.54172
0.0234495
5.68092
3.83684
1.15118
0.0220956
0.021889
4.38129
0.370688
0.0221399
0.297462
0.0222284
0.139048
0.18633
0.0920631
0.0500463
10.3555
0.0218005
0.0218001
0.215563
3.29903
0.0291575
0.0465467
0.0219379
8.51656
0.0220145
0.021955
0.0231208
0.0219969
5.42809
4.00885
1.52185
0.0585525
4.23451
0.416093
0.0216646
0.0306638
0.021702
1.26462
0.021992
0.0248084
0.0220001
0.0219237
0.0217827
2.78048
0.02279
1.69512
0.0216066
0.0324952
0.0229214
1.57836
0.0220488
0.0311114
0.0344059
0.068863
7.04661
0.0219199
4.22038
0.0676804
0.0453674
0.0219929
0.0219516
3.47676
16.0261
0.0220075
0.0218851
0.268731
0.23443
0.0379931
3.93161
0.0227471
0.408585
0.0308357
0.0217101
5.44946
0.022988
3.89414
0.0220303
0.022668
0.0221216
4.21768
3.54855
0.0216794
0.246578
0.234253
0.0220614
0.0218665
0.0219013
0.261044
4.00142
0.0636371
0.0241718
0.0391898
0.0220326
0.0220506
0.0236362
0.022007
0.177194
0.022064
0.0615704
0.607785
0.0356656
0.0216235
3.96601
0.0717834
0.0220415
0.0795729
0.0302
1.31926
0.024529
10.4882
0.0558638
0.0219938
0.0853974
0.0845254
0.0245626
6.11338
0.0581517
0.0294152
1.70687
0.0219407
0.149338
0.0878394
0.12526
0.0219436
0.0219767
0.0216449
0.0333501
0.0540503
0.0528551
6.47856
4.63714
3.86682
0.0222667
1.9111
3.70479
4.22109
0.0220016
0.0220256
0.0522818
4.1365
0.0241418
0.0345943
32.0859
5.01076
15.8906
0.115395
0.162558
3.33414
0.376896
0.0216163
10.9234
0.268932
0.0223121
0.0223314
0.0227945
4.76725
0.0950188
5.27504
0.0239275
7.23335
0.0221236
1.05849
3.7971
0.022211
0.0335106
4.26377
4.69192
0.0545586
0.0228364
0.0237012
0.0223862
0.223313
0.118579
2.15061
4.12474
0.0217521
5.27041
0.164482
1.34389
0.0220307
0.0221654
2.58671
0.263933
0.0219615
0.0491927
0.0730233
0.0391411
4.07835
4.56584
4.75287
4.1112
0.0254286
0.0216685
0.066633
4.48973
10.3549
0.0219435
0.273046
0.0906433
0.446652
0.0224658
0.0222564
1.20043
3.71401
5.81803
1.65951
4.19188
0.0219615
0.258154
4.09738
0.0222355
0.0623927
0.103922
0.0216885
0.157663
4.92981
0.248918
0.0222554
5.23236
0.113966
27.6117
0.0215156
0.0235869
0.0221562
0.0231084
0.0221235
0.0533304
0.0401953
0.0425198
0.34371
0.0331909
4.18219
0.0252808
0.0286106
0.0279446
8.99303
0.0579473
4.98124
0.0280116
0.0278356
19.114
0.0973909
0.0220717
0.0426284
3.63413
5.32317
0.313804
0.0219762
0.0219118
0.021935
0.908777
0.0231403
2.48873
1.32726
0.26032
0.0317634
0.247497
5.56015
0.0221246
7.37285
0.0335031
0.0510325
0.0219428
0.0219142
0.0522862
4.38097
0.0220808
4.93748
0.499981
0.0982984
0.184638
0.0218759
0.0220257
0.0296031
0.0228856
25.9618
25.3262
0.083838
0.783397
0.0219626
0.0220842
0.0221678
0.0222458
7.80495
0.0231734
4.53033
0.0870068
0.0224938
0.367645
2.26871
3.42003
8.53119
0.0234943
0.0217822
0.0221309
0.0234495
0.750901
0.242909
5.98388
0.0221555
0.0224103
0.159503
0.0222602
0.191841
0.0236828
0.150554
0.171
0.0412646
0.0396913
0.0217303
0.0463425
0.038081
0.207975
0.081951
0.0422928
0.0218712
0.242101
0.0218893
2.86407
3.62778
0.9344
0.0220744
0.109493
0.0220207
0.0481791
0.0229486
0.0226821
0.028188
8.86866
4.02847
0.0793245
0.0470952
0.223737
0.0770781
3.96319
4.28838
0.0309128
4.21779
0.34599
0.0218519
0.0567712
4.29491
0.0977402
0.0222362
0.0530334
2.25563
0.367869
8.26588
0.0221405
0.736262
0.0220984
0.0219327
0.0413312
0.288166
0.0222639
4.20388
5.26277
0.197429
11.4203
0.369957
4.85241
0.305479
0.0217289
0.0247056
0.0216566
0.0433621
0.281778
0.387639
0.0243371
0.0416332
0.0216443
4.40419
0.0378224
0.0468187
4.04786
0.0996153
6.88568
4.81077
0.0219705
6.73509
0.0221177
0.028292
0.0470897
3.83735
0.149039
0.0278213
0.02318
0.577117
0.0341085
4.27246
6.08778
0.0317643
3.23338
0.0443842
0.022273
1.16321
0.0615945
0.022993
9.01736
15.6739
0.0296317
0.0260298
0.128127
5.89581
0.0219592
0.0222116
0.021675
0.0217627
0.0223331
4.84153
0.0314614
3.89935
0.0219578
0.0219404
0.833594
0.0221856
0.0238283
0.0220585
0.0220338
1.6629
0.0217641
4.73051
0.0220018
0.0230493
0.0411849
0.0221771
0.1447
0.021776
0.0222651
0.0217926
0.0275561
0.0891207
0.0244131
3.634
0.0219359
0.0434495
0.029458
4.26817
0.0227576
0.0222688
0.0217154
0.0216912
0.391782
0.0219077
0.0218976
0.0245124
1.61748
0.0219369
0.0427004
0.0325576
0.0220189
4.8555
6.87512
0.26474
4.92615
0.0247405
0.108347
0.0221536
0.10001
0.338804
0.0223054
1.81376
0.128231
4.60152
0.0306734
0.0220332
1.57697
0.0430804
0.760282
5.1202
0.0215925
0.0219856
7.44676
3.21775
0.0580642
0.0563567
0.0230427
10.8848
5.70616
0.0215195
0.0219674
0.0221044
0.0221737
0.0222481
0.0220376
0.0355806
4.25079
0.0309077
0.0221931
0.437572
0.0219885
0.790975
0.0460361
0.0220944
0.0273385
0.0219174
0.357914
0.0248704
0.0512985
0.0219632
0.0222541
4.52011
4.89564
0.0221773
0.0503891
0.0444315
0.0309205
0.0239128
0.0222713
0.0227572
1.50024
0.536895
0.0396045
4.88413
0.0224857
24.8308
0.102336
0.0257955
17.2314
0.0230606
4.28317
5.34355
3.41174
3.26968
4.11412
3.69876
0.0216587
0.0270929
0.0247497
0.0216449
0.0217469
0.028952
0.0773467
0.0217842
0.0293598
0.118475
0.0747783
0.30422
0.199617
0.033355
1.67465
9.47946
0.0339539
0.0248846
0.126024
8.95353
3.82405
0.0255168
0.0216329
0.0218716
0.0217832
0.0315139
3.7964
0.358414
0.0217558
4.65732
0.0219819
0.136422
4.11966
0.0807039
0.188135
0.0893813
0.330339
0.0228241
0.0332475
0.0218672
0.235318
0.0219675
0.0229564
0.0327605
0.14949
0.022177
0.0244761
5.6407
0.0218227
0.0220415
0.0290191
5.75618
0.11275
0.447447
0.0382398
0.0221498
3.33589
0.0371003
0.0232658
0.0220219
0.0305386
0.026505
0.0220323
0.0277038
4.42695
0.0235354
0.0216589
0.0469305
0.0218843
0.0316261
0.0300865
0.0220677
0.0219976
4.68303
0.0217202
0.022033
0.0216616
0.0257054
0.021487
4.89164
0.0257619
0.207539
0.0219619
0.0219054
0.0220666
4.35438
0.0633518
0.0220415
0.021623
5.55185
0.0250672
0.065142
0.0218612
0.145081
0.0233442
0.021564
3.04989
0.0217734
0.0222593
0.022147
0.0219934
0.0241396
0.0221272
0.0220363
1.62317
1.53745
4.64091
0.265239
8.64225
0.0218598
4.72467
0.0219681
4.03052
8.21639
0.0218017
10.5842
0.02198
4.14595
11.8835
0.270299
4.13286
3.9293
0.787383
2.27839
6.24323
5.22499
0.0428561
0.0415745
4.5772
0.0234899
0.0216671
1.2705
0.0238089
0.0281697
11.8899
0.0229549
0.764073
3.64274
6.45022
0.378414
0.113692
0.0222518
0.0282002
0.0481933
0.0222609
6.97076
0.348051
0.108692
0.0219106
0.0220695
8.25074
0.0216995
0.683004
0.0218504
9.35367
4.52853
0.0343969
0.026057
0.022
10.4344
4.03743
0.0253751
0.03349
0.0222857
0.0222855
0.0566293
0.0231582
0.0320057
0.0660879
0.0242184
0.0324266
0.0220403
0.0319906
15.6486
0.0225086
10.8259
0.021957
3.55188
0.0545418
0.022039
9.36734
0.122135
0.0218533
0.153542
0.0220384
0.285191
0.0221992
0.0220112
3.85021
0.0221462
0.103233
0.0233374
0.134466
0.0218482
0.0223338
0.021862
0.0299999
0.0242076
0.0222914
0.0225925
0.0253075
0.0224447
0.12031
0.0634363
0.0294573
0.0233638
0.0216439
2.34815
6.90982
0.0227701
0.0225289
0.0226466
0.037578
0.0222149
0.0348272
0.0215753
0.0222853
0.231669
0.0233312
0.0222846
0.0219053
4.81912
11.312
0.021602
0.070549
0.0585149
0.228113
0.211883
7.00297
4.41024
0.619752
0.0229071
0.133423
0.0219289
0.0313722
7.3777
4.47615
0.133497
0.0239189
15.7758
0.0220419
0.0461099
0.405888
0.0222242
0.131983
0.0234192
0.0232222
0.073523
0.143651
3.90672
3.37279
0.021836
0.0216058
4.79338
3.76714
0.022234
0.0290051
0.118339
0.0220582
0.022016
0.0240429
2.1881
0.0217763
4.25381
0.0294638
0.0222157
0.250217
0.0718942
0.066679
0.113087
4.81711
0.0244064
0.034224
0.0275136
0.0237387
9.89274
0.0313373
4.21551
4.18691
0.0658814
4.09582
0.0457454
0.0474418
0.335486
0.0217301
4.37277
0.0871185
0.0335395
0.0290613
0.0221779
0.021671
4.08695
0.0427966
4.22583
4.30737
0.0221158
4.24296
0.0218383
0.0219571
0.0287054
11.5674
0.0725739
0.0216976
4.0689
0.0219924
0.0237725
3.89563
0.0236301
3.45306
0.0222727
4.48963
3.04427
0.0686013
2.02805
0.0233638
3.44097
0.0216358
5.33435
4.78352
4.46029
5.18067
0.0219462
0.0218291
0.233629
3.68899
3.43182
3.80777
3.74479
0.0221372
5.03229
3.43111
0.0224094
4.11838
0.0315481
0.0328622
12.2743
0.0380239
4.33901
0.0219379
0.037648
0.034116
0.199511
6.4274
0.0366212
3.55559
4.41851
0.0221721
0.02459
0.0237656
0.0247223
3.44479
0.0220144
0.0217648
0.0391009
3.70272
3.91075
0.0279716
3.85843
4.14
0.0219625
8.76224
4.70077
0.169886
3.97701
0.0654436
0.024346
0.0221727
0.153607
0.0262742
0.0793257
10.1617
4.56753
0.0289538
0.0711139
0.0257607
0.0382385
0.0216569
0.0409895
0.0246878
0.0890482
4.59152
5.86597
3.82638
0.0216737
0.128179
0.0614269
4.2547
0.0232378
4.76165
4.69998
4.31159
0.0221506
0.171704
4.54018
10.9544
7.6469
0.0363012
5.50033
2.94331
0.0611615
0.0664208
0.0240211
0.02919
4.85177
0.0454004
0.0221864
3.29516
0.0220434
0.0222797
0.119666
0.119326
0.0218315
0.0889335
0.0246614
3.73638