/*--------------------------------*- C++ -*----------------------------------*\
| =========                 |                                                 |
| \\      /  F ield         | OpenFOAM: The Open Source CFD Toolbox           |
|  \\    /   O peration     | Version:  v2012                                 |
|   \\  /    A nd           | Website:  www.openfoam.com                      |
|    \\/     M anipulation  |                                                 |
\*---------------------------------------------------------------------------*/
FoamFile
{
    version     2.0;
    format      ascii;
    class       volVectorField;
    location    "500";
    object      U_0;
}
// * * * * * * * * * * * * * * * * * * * * * * * * * * * * * * * * * * * * * //

dimensions      [0 1 -1 0 0 0 0];


internalField   nonuniform List<vector> 
13851
(
(1.15434 0.055146 0)
(1.07701 -0.0250309 -1.98698e-20)
(1.07532 -0.0239468 1.53839e-20)
(-0.190972 -0.0134313 -1.78708e-19)
(1.00217 -0.000481712 5.49919e-22)
(1.08741 -0.0401636 7.38429e-21)
(1.06295 0.0140698 1.10139e-20)
(1.01395 -0.000809914 -3.70371e-21)
(0.233061 0.042536 -1.9929e-20)
(0.991334 -0.00940763 0)
(1.16889 -0.106704 -1.77585e-21)
(1.00151 -0.00904117 3.1617e-21)
(0.981179 -0.0223119 0)
(0.0334831 0.0171205 -2.02542e-20)
(1.11067 0.0105557 -2.16127e-22)
(1.09663 0.0661684 -6.87661e-21)
(-0.304478 0.000301035 6.23168e-20)
(1.03785 -0.0203709 -7.27859e-21)
(1.22005 0.0274263 8.58101e-20)
(1.15567 0.0528089 -9.02214e-21)
(1.12364 0.00387566 0)
(1.04229 -0.0954719 8.76868e-21)
(0.504679 -0.249489 2.27131e-20)
(1.00008 -0.000225649 4.16722e-23)
(1.09199 -0.0172677 4.52804e-21)
(1.09643 0.0509008 3.4289e-20)
(1.11888 0.0826389 6.15576e-21)
(1.073 0.0682194 0)
(0.380902 0.0461445 -1.29068e-20)
(1.02202 -0.0128151 0)
(-0.0963228 -0.00718729 0)
(1.06318 0.0133397 0)
(1.14483 0.0579648 8.61302e-20)
(0.291199 0.0633614 -4.64694e-20)
(1.13689 -0.0896119 1.15716e-20)
(0.415629 0.0473584 0)
(1.00005 -0.00020269 0)
(1.13289 -0.141876 0)
(-0.0235436 0.0185876 6.00431e-20)
(1.00803 -0.0407593 3.06018e-21)
(0.134048 0.044654 -1.72441e-22)
(0.415648 0.0502961 -2.64064e-20)
(-0.231904 -0.00085069 0)
(1.09859 -0.485201 0)
(0.425855 0.0551102 0)
(1.01595 -0.0240597 0)
(1.02035 6.07077e-05 4.06425e-21)
(1.1057 0.0664264 1.60944e-20)
(1.04934 -0.0598304 -6.55337e-21)
(0.9808 -0.0213403 0)
(-0.248463 0.00662314 1.89728e-26)
(0.973768 -0.0158299 -1.6594e-20)
(1.09751 0.0659142 3.15997e-21)
(1.082 0.0253619 1.48517e-20)
(0.0945145 0.0138104 -4.84722e-20)
(1.00697 -0.0410775 -6.38059e-21)
(1.14699 0.0588697 -7.78986e-20)
(0.104534 0.039233 1.45394e-20)
(1.11371 0.0799969 0)
(-0.0800284 0.0147622 5.82757e-21)
(1.00139 -0.00854935 -2.88576e-21)
(1.11175 0.0812741 3.94989e-20)
(0.995556 -0.00405364 7.92944e-21)
(1.0498 -0.0621723 -9.8723e-21)
(0.876127 -0.45415 -1.26545e-20)
(0.857292 -0.474262 0)
(-0.101137 0.0114687 -1.56446e-20)
(0.693403 -0.129162 -8.61765e-20)
(1.02247 -0.041798 3.89757e-21)
(-0.163183 -0.0095186 0)
(-0.160334 -0.000993681 0)
(1.13461 0.0074943 3.57114e-20)
(0.994579 -0.0288593 -4.07428e-21)
(-0.0840154 0.0129651 -6.60428e-21)
(1.08972 0.022457 -1.30882e-20)
(1.02338 -0.0775804 5.0355e-22)
(-0.281231 -0.00222892 -8.98613e-20)
(1.02275 -0.00649402 0)
(1.16878 -0.0207244 0)
(1.00565 -0.0192403 0)
(1.02376 -0.0424259 2.62348e-21)
(1.27393 -0.100688 1.04608e-19)
(1.1331 -0.0912646 0)
(0.0232107 0.0173898 -6.67176e-20)
(-0.0661594 0.0152757 0)
(-0.118056 -0.00442748 7.63804e-20)
(1.04567 -0.0967265 6.64603e-22)
(0.20477 0.0121829 2.10388e-20)
(0.992125 -0.0136493 -1.27109e-20)
(-0.0934401 -0.0060772 0)
(0.972481 -0.0150726 1.23599e-20)
(1.06455 0.0131137 0)
(-0.228737 -0.000317691 -9.56565e-20)
(-0.148672 -0.00398163 0)
(-0.0657151 0.0204596 0)
(1.084 -0.445528 3.74645e-20)
(1.01088 -0.0258928 -1.0478e-21)
(1.10141 0.0671044 0)
(-0.197825 0.00788992 -8.87871e-21)
(1.22123 -0.203099 0)
(1.10216 0.0680562 1.51927e-20)
(0.810672 -0.122496 3.64674e-20)
(0.811131 -0.155573 -3.74653e-20)
(0.990476 -0.0308447 -7.38186e-21)
(1.0197 -0.0236538 0)
(1.13988 -0.0089096 -1.92208e-20)
(1.01892 -0.0233975 1.9019e-22)
(-0.142523 -0.0026907 0)
(1.06469 0.0122445 0)
(1.03684 -0.0197833 -7.10536e-21)
(1.02981 -0.135305 3.52438e-21)
(1.01677 -0.0244857 9.11555e-22)
(1.22581 -0.0249917 1.00635e-20)
(1.17075 -0.0507918 0)
(1.13074 0.0632362 0)
(1.08125 0.023991 -1.23337e-20)
(1.01533 -0.00856361 5.63289e-21)
(1.01463 -0.000945432 -1.22344e-22)
(-0.205888 -0.0111376 1.45784e-19)
(-0.129251 -0.0132702 0)
(1.1148 -0.370218 1.52089e-20)
(1.03065 -0.0167325 0)
(1.0174 -0.0425406 4.11785e-22)
(0.0344788 0.0301735 -3.91954e-20)
(1.20222 0.0435069 -8.48663e-20)
(0.614549 -0.21032 1.55918e-19)
(1.01139 -0.0255637 1.39882e-22)
(1.13524 -0.157554 2.79541e-20)
(0.15407 0.0492351 3.1514e-20)
(1.12311 0.0162953 7.18558e-20)
(1.03883 -0.0975037 0)
(1.10441 -0.0691877 0)
(1.27733 -0.166794 0)
(0.27637 0.0611268 -4.62406e-20)
(1.17346 -0.103877 3.53767e-20)
(-0.0757798 0.0211724 5.07963e-22)
(0.706495 -0.121548 0)
(-0.131971 -0.00358246 -1.92229e-19)
(0.848432 -0.0938865 0)
(1.11845 0.019871 4.37846e-20)
(1.2704 -0.104157 -7.55008e-20)
(0.975898 -0.0478438 2.81795e-20)
(0.991427 -0.0138174 1.1051e-20)
(0.743508 -0.315928 -9.41152e-20)
(1.0564 0.0176986 7.67085e-20)
(1.00945 -0.0759041 0)
(1.02248 -0.0060529 4.41621e-21)
(-0.140768 -0.00456062 8.69944e-20)
(0.237313 0.0324512 -5.38665e-23)
(1.14041 -0.159937 -6.64082e-20)
(1.10348 0.0678801 2.89188e-22)
(1.22436 -0.0281648 3.42112e-20)
(1.17496 -0.0500129 4.06217e-20)
(1.2116 0.0278363 0)
(0.972947 -0.0258722 1.86019e-20)
(0.983841 -0.0111814 -4.91176e-21)
(1.00147 -0.00715141 1.96359e-21)
(-0.0562061 0.0153564 -1.77259e-19)
(1.1162 0.0161589 4.81292e-21)
(1.06639 0.00260814 -7.81873e-21)
(1.00015 -0.000526864 3.63527e-21)
(0.394811 0.0461571 8.99768e-21)
(1.13698 -0.00792697 0)
(1.1069 0.0662078 1.33313e-20)
(0.0368486 0.0153974 0)
(0.321765 0.053633 -8.62439e-21)
(0.332913 0.0552771 0)
(-0.232285 0.00825415 -9.16195e-20)
(1.03056 -0.1303 -8.95035e-21)
(0.618244 0.0555391 0)
(1.00107 -0.00791469 2.3269e-21)
(1.01524 -0.00813879 -1.19365e-21)
(1.15572 -0.0134678 0)
(1.00114 -0.00044937 0)
(-0.0400687 0.0248104 0)
(1.13844 0.0882583 -5.44169e-20)
(1.11113 0.0703273 0)
(1.01585 -0.00808054 1.34721e-21)
(1.08774 0.0240728 0)
(1.11027 0.0692732 0)
(1.19842 0.0435988 8.00378e-20)
(1.1058 -0.466867 3.91558e-20)
(1.03619 -0.12312 1.10167e-20)
(1.12091 0.0166118 -3.65162e-20)
(-0.242777 -0.00174478 0)
(0.245876 0.0327718 3.83433e-20)
(1.14332 0.0600241 -5.86666e-20)
(0.889636 -0.0712004 3.30806e-20)
(0.977477 -0.0265166 0)
(1.02038 -0.0175427 0)
(1.16059 0.0119909 0)
(1.117 0.0148884 -3.4832e-21)
(0.0151379 0.0116284 0)
(1.08894 -0.0379598 2.38216e-20)
(1.01128 -0.0737304 0)
(1.09946 0.0665491 2.4759e-20)
(1.14115 0.0590432 4.70308e-20)
(1.0489 -0.0112773 5.6423e-21)
(1.0442 -0.0291531 9.23664e-21)
(0.709469 -0.164798 6.42547e-20)
(1.26996 -0.116041 -6.3446e-20)
(-0.0115729 0.0270965 0)
(0.0895175 0.0409063 1.01912e-19)
(1.10897 0.011495 -1.84668e-22)
(0.942431 -0.723056 2.02235e-20)
(-0.0408231 0.0254858 2.78206e-20)
(0.937642 -0.0249286 2.40171e-20)
(1.11028 0.0273677 -4.06e-20)
(0.225915 0.0442482 2.78294e-22)
(1.08138 -0.0481619 1.12647e-20)
(1.09499 0.0656637 0)
(1.0167 -0.0416769 -1.13065e-22)
(1.27368 -0.112203 -2.98391e-20)
(1.00014 -0.00233805 0)
(1.14075 -0.0822348 5.50107e-21)
(1.02723 -0.0855793 0)
(0.982069 -0.0201463 0)
(1.17034 0.0659595 0)
(1.04833 -0.0204049 9.98259e-21)
(0.152112 -0.541998 -5.92687e-20)
(1.01586 -0.00764025 -6.58896e-22)
(1.16021 0.0503533 -4.17689e-20)
(0.00405823 0.014142 5.87348e-20)
(-0.0605269 0.0219302 2.45796e-20)
(0.901747 -0.0805937 -6.10729e-20)
(1.11004 0.0284332 2.52534e-20)
(1.00003 -0.00116658 3.74429e-21)
(0.74655 -0.294503 -1.81173e-20)
(1.00205 -0.0143023 0)
(1.13728 -0.0835254 0)
(-0.0474016 -0.0361873 4.47865e-20)
(0.895353 -0.0718394 -2.78183e-20)
(1.08122 -0.045922 0)
(0.996277 -0.00196507 0)
(0.0764008 0.0399717 -9.25582e-20)
(1.02273 -0.0126042 0)
(0.867737 -0.420857 -1.78973e-20)
(0.0713379 0.0372079 -4.87871e-22)
(1.21368 -0.197984 0)
(1.00011 -0.000503642 -3.18902e-21)
(1.306 -0.336618 5.62889e-21)
(-0.0555483 0.0151889 0)
(0.45571 0.0582401 0)
(1.09583 0.0654356 4.78866e-21)
(1.11315 -0.014775 0)
(0.707071 -0.347673 -5.552e-20)
(1.16926 0.063297 0)
(1.08729 0.0253618 -1.66457e-20)
(1.08687 -0.427475 -3.70017e-20)
(1.04946 -0.137359 0)
(0.141738 0.0109372 1.31621e-20)
(1.1838 0.0280833 0)
(1.01084 -0.000875317 -2.04166e-21)
(1.08774 -0.0155101 0)
(1.10032 0.0675352 0)
(0.384275 0.0438351 7.76094e-22)
(0.284088 0.0148574 8.59887e-21)
(1.01987 -0.016802 2.13032e-21)
(0.590321 -0.205835 -1.01449e-19)
(0.993024 -0.0144592 0)
(1.14593 0.0712618 -2.41245e-20)
(1.20484 0.037479 0)
(1.0897 -0.0148982 0)
(1.13732 -0.00441207 0)
(1.18725 0.0276136 0)
(1.00038 -0.0267273 -1.23856e-20)
(0.805894 -0.132313 -4.25932e-20)
(1.10848 0.0625198 6.90496e-21)
(1.1399 0.075288 6.01768e-20)
(0.997993 -0.00945907 1.49849e-22)
(0.981939 -0.0191398 0)
(0.896169 -0.0790866 7.18171e-20)
(0.314415 0.0590429 8.85947e-21)
(-0.255193 -0.0039328 1.81669e-21)
(1.12749 0.00897259 -2.92101e-20)
(1.03175 -0.0172643 4.60219e-21)
(1.1981 0.0476198 -7.12675e-20)
(1.20821 0.0327383 0)
(1.13365 0.0579076 1.59828e-20)
(1.1352 -0.0035117 0)
(0.285281 0.0547288 0)
(-0.170762 0.00870434 -6.72952e-20)
(1.09318 -0.0236189 0)
(1.105 0.00815887 -1.23861e-20)
(1.08172 -0.161375 1.56826e-19)
(1.02183 -0.0227017 0)
(1.00159 -0.00676436 -1.76906e-21)
(1.13591 0.0586486 1.07018e-20)
(1.15333 -0.122035 0)
(1.02418 -0.0127987 1.00206e-20)
(1.00015 -0.00229212 0)
(1.00184 -0.0147283 -4.67621e-21)
(1.00448 -0.000667458 0)
(1.10993 -0.00551591 -4.28239e-20)
(1.00166 -0.00722087 1.92019e-21)
(0.243785 0.0449064 0)
(1.12569 0.0052367 0)
(1.01302 -0.0344422 1.16647e-21)
(0.391963 0.0429481 0)
(0.0233684 0.0281521 3.62203e-20)
(0.975095 -0.0211868 -8.18608e-21)
(1.1591 0.0529241 4.54741e-20)
(-0.224888 0.00682535 1.37366e-19)
(0.97479 -0.0502829 -2.81874e-20)
(0.973678 -0.0205562 1.36999e-20)
(1.12831 0.00469777 0)
(-0.00646871 0.0133281 -8.00858e-20)
(0.185568 -0.00957966 3.74638e-20)
(1.15744 -0.000468864 0)
(1.0024 -0.000633019 -6.5456e-22)
(0.654031 0.0575189 -7.9039e-21)
(1.00119 -0.00839817 7.98585e-22)
(1.16369 -0.00122444 -3.93412e-21)
(-0.208235 0.00861899 -1.42133e-19)
(1.14602 0.0780691 -8.13019e-20)
(1.06507 0.00219896 -1.68428e-20)
(1.19611 -0.198372 -1.08401e-19)
(1.32939 -0.186235 -7.92396e-20)
(-0.116035 -0.00154734 4.48338e-20)
(1.22629 -0.0362229 7.54467e-20)
(0.78055 -0.101073 4.52796e-20)
(-0.0352133 0.0228084 5.90972e-20)
(0.072286 0.0377853 6.70883e-20)
(1.10169 0.065496 0)
(1.04563 -0.0299825 -1.99351e-20)
(-0.254069 -0.00106656 -1.02733e-19)
(0.112755 0.00567886 2.33936e-20)
(0.459871 -0.457743 -3.99368e-21)
(0.495022 -0.463986 -3.20772e-21)
(0.936085 -0.0261526 -3.35465e-20)
(1.15985 -0.00877865 6.80321e-20)
(0.948789 -0.122456 1.45389e-20)
(0.213482 0.0129641 2.40785e-20)
(0.785822 -0.148263 0)
(1.00855 -0.00204497 -4.28903e-22)
(1.02042 -1.76362e-06 -5.76426e-21)
(1.07424 -0.085098 0)
(-0.14122 -0.00395776 3.94973e-20)
(0.205702 -0.549057 5.15856e-20)
(1.02181 -0.021852 0)
(-0.0747741 0.0206306 -1.14878e-19)
(0.937816 -0.119807 1.6949e-20)
(1.10516 -0.0722996 1.17326e-20)
(1.06666 0.00355589 -1.24949e-20)
(-0.0156424 0.0105564 9.86773e-20)
(1.19476 0.048173 6.76907e-20)
(1.09833 0.066835 -3.14599e-20)
(1.02483 -0.0832483 -4.34863e-21)
(1.07849 -0.0450091 0)
(0.464962 0.0463583 -2.57582e-20)
(0.977354 -0.0281608 0)
(1.21163 0.0312148 -2.57145e-21)
(1.09164 -0.022305 0)
(1.12962 0.0032177 3.36995e-20)
(0.931922 -0.12213 0)
(0.992364 -0.0145006 5.53122e-23)
(1.01381 -0.033989 2.50801e-23)
(1.23522 -0.0965342 1.39535e-19)
(1.22928 -0.199146 0)
(1.18063 0.0325331 -1.042e-19)
(1.34084 -0.185863 -9.19297e-20)
(0.473701 0.0482124 2.94346e-20)
(1.01075 -0.0773974 0)
(0.0560022 0.0369838 -8.55311e-20)
(1.15378 0.0760889 -7.91551e-20)
(1.02941 -0.00869901 0)
(1.1177 0.081321 8.55878e-20)
(1.15121 0.0366497 0)
(-0.183328 0.00967945 6.39984e-20)
(1.07215 -0.0824786 0)
(1.092 0.054076 -4.89986e-20)
(1.10453 0.0790764 0)
(1.20637 -0.0990707 9.60495e-20)
(1.231 -0.106729 1.28325e-22)
(0.202815 0.0132582 1.99946e-20)
(1.04949 -0.0413624 4.69471e-21)
(1.14516 0.0909586 6.55014e-20)
(-0.326608 -0.000381998 0)
(1.10781 -0.0271635 4.88589e-20)
(0.161537 0.0149576 -2.79829e-20)
(1.11522 -0.0294272 2.31337e-20)
(0.0967585 0.0370958 7.77629e-20)
(1.104 0.00699469 0)
(1.08452 0.0382369 2.09245e-20)
(1.18955 0.0215665 -3.92094e-22)
(1.25275 -0.177455 1.29022e-19)
(0.983945 -0.0121153 0)
(1.0903 -0.0290604 0)
(1.15762 -0.125083 -3.83437e-20)
(1.08936 0.0238007 0)
(1.01422 -0.0263715 9.47519e-23)
(1.12735 0.0110658 4.83463e-20)
(0.539409 0.0819355 6.46055e-21)
(0.995381 -0.0287667 4.83609e-21)
(1.11184 0.0260857 0)
(-0.215 -0.0114834 2.24273e-19)
(1.07121 -0.0422373 -7.57558e-21)
(1.25115 -0.491666 -1.06458e-20)
(1.0956 0.0363375 5.87776e-20)
(0.240017 -0.0111225 6.91052e-20)
(1.08397 -0.0497065 0)
(1.09591 0.0497702 1.52514e-20)
(0.916487 -0.695222 6.51921e-21)
(1.20494 0.0397884 1.74816e-20)
(1.14022 -0.014515 0)
(0.264973 0.0118397 0)
(-0.0755902 0.0120654 0)
(1.26936 -0.330658 0)
(0.999595 -0.0268189 4.88857e-21)
(1.23163 -0.0928989 -1.37044e-19)
(1.11661 -0.0365427 -6.5178e-21)
(1.09283 0.0532413 1.55647e-20)
(1.02916 -0.0185379 -1.14942e-20)
(-0.235277 0.000344735 0)
(0.490216 0.0744012 -6.13898e-22)
(1.15677 -0.0620183 -1.65625e-19)
(1.07808 -0.0428942 0)
(1.1898 0.0239112 0)
(1.1172 0.0830139 4.91288e-20)
(-0.241287 -0.00665938 0)
(1.02564 -0.00319849 0)
(-0.287526 0.00115666 2.32847e-19)
(1.26241 -0.164333 -1.28115e-20)
(0.27054 -0.166761 1.08383e-19)
(1.05389 -0.140276 0)
(1.07485 0.0446047 5.15268e-20)
(0.987921 -0.0192481 0)
(1.00133 -0.000384792 4.46705e-22)
(0.0855902 0.0114023 6.13149e-20)
(1.12136 0.0842361 0)
(0.99066 -0.0100258 -1.29442e-20)
(1.07686 -0.0266278 -1.21328e-20)
(1.11378 0.0261985 0)
(1.01352 -0.00921672 -3.68969e-21)
(0.561638 0.0775099 -2.95463e-20)
(1.1601 -0.00594044 -6.14724e-20)
(1.15145 0.0350179 0)
(1.0819 0.000304084 0)
(1.0502 -0.0401337 -1.40452e-20)
(0.972061 -0.00980161 0)
(1.26371 -0.113842 -1.38308e-19)
(1.0118 -0.0336876 1.54156e-21)
(0.973099 -0.00870679 -3.65474e-21)
(0.818698 0.0760224 -1.94823e-20)
(0.572619 0.0807304 0)
(1.03557 -0.0949273 6.59995e-21)
(1.1025 0.0775784 2.05549e-20)
(0.995732 -0.00348683 -8.13229e-21)
(1.00177 -0.00682737 1.09316e-22)
(1.07364 -0.043219 2.90579e-20)
(1.18339 0.0321939 1.10984e-19)
(1.09191 0.0380994 -1.92579e-20)
(1.01412 -0.0279176 0)
(1.05989 -0.032342 9.53933e-21)
(1.11655 -0.359073 0)
(1.06819 -0.0186282 0)
(0.281247 -0.0167228 -7.39889e-20)
(1.00167 -0.00843731 -6.32465e-21)
(1.08171 0.0128043 0)
(0.431157 0.0565191 -1.3478e-20)
(0.939807 -0.166331 -4.28139e-20)
(1.01971 -0.000681697 -1.43116e-21)
(1.0006 -0.0074022 1.26485e-22)
(1.0815 -0.000771355 0)
(1.05196 -0.0101054 1.26605e-20)
(1.24945 -0.383485 -2.02772e-21)
(0.735311 0.0736836 -3.20995e-20)
(1.11427 -0.0130972 -2.9754e-21)
(0.31848 -1.13212 3.93389e-21)
(1.07542 -0.0417453 -1.53624e-20)
(1.00056 -0.0115633 0)
(0.191428 0.0508347 1.48604e-20)
(1.10471 0.0787634 0)
(0.878189 -0.128617 -4.13332e-20)
(0.996693 -0.0327684 7.45372e-21)
(0.0612146 0.0354995 -7.16852e-20)
(0.85801 -0.0993096 -2.22845e-20)
(1.17034 -0.647699 1.42509e-19)
(0.989805 -0.0299842 0)
(1.10735 -0.0636766 -2.06899e-20)
(1.23528 -0.103792 -9.04397e-21)
(1.09643 0.0213768 0)
(0.103779 0.0428096 -8.70436e-20)
(1.11842 0.0832128 -5.7171e-20)
(1.22551 -0.0755889 1.19397e-19)
(0.977804 -0.0745678 0)
(1.22777 -0.0326492 -1.26505e-19)
(1.00159 -0.028032 9.62497e-22)
(0.370921 0.0443408 1.82179e-20)
(1.09621 0.0355257 -5.12042e-20)
(1.13946 0.0596808 0)
(1.115 -0.0344729 0)
(1.02535 -0.0799562 5.55459e-22)
(0.946446 -0.163769 1.95705e-20)
(1.15634 -0.0099612 -1.37219e-20)
(1.00194 -0.000580001 0)
(-0.27208 -0.00144464 1.46912e-22)
(0.163655 0.0471587 -1.64713e-20)
(0.319505 -0.0207464 6.18927e-20)
(-0.18181 0.000685835 -1.15574e-19)
(0.7559 0.0750146 1.93874e-20)
(-0.240033 0.00512252 8.14026e-20)
(1.2084 0.0356476 0)
(0.913204 -0.084168 0)
(0.999711 -0.00333465 0)
(1.21213 -0.486185 -3.54173e-20)
(0.991347 -0.0086775 -2.80755e-21)
(1.01386 -0.0256599 1.16633e-22)
(0.907244 -0.101112 0)
(-0.0185266 0.0273648 1.88366e-20)
(1.07429 -0.0177425 3.40017e-20)
(0.971288 -0.0431048 -9.10835e-21)
(1.07726 -0.289482 -7.88467e-22)
(1.1469 -0.0380335 0)
(0.989198 -0.00415818 -6.60544e-21)
(0.603012 0.0226391 -9.44541e-20)
(1.00948 -0.0248955 0)
(0.197112 0.054042 3.77103e-20)
(1.23905 -0.367662 0)
(1.00611 -0.0198779 0)
(1.06858 -0.00834406 -2.49292e-20)
(1.26649 -0.139388 -5.75189e-20)
(1.11107 0.078134 -7.93373e-20)
(1.02352 -0.013101 4.90817e-21)
(0.905007 -0.087788 -4.95379e-20)
(1.03246 -0.395976 0)
(1.03359 -0.00277139 -2.42919e-21)
(-0.0806559 0.00380476 -1.02084e-19)
(1.21863 0.0286197 -8.27836e-20)
(1.1643 0.0473271 9.92536e-20)
(0.976302 -0.0727893 -1.35642e-20)
(0.837101 0.0773428 4.02823e-20)
(-0.123534 0.0121346 4.14669e-20)
(1.03436 -0.00298979 0)
(1.24488 -0.0106722 1.08286e-19)
(1.01992 -0.0421047 1.13605e-21)
(1.00998 -0.0254878 0)
(0.899397 0.0743237 2.73049e-20)
(0.100635 0.0376639 -4.72561e-20)
(1.12933 -0.0359682 -2.83291e-20)
(1.09063 0.0379037 2.44824e-20)
(0.990665 -0.00742292 -6.51623e-21)
(1.10129 0.0437956 4.15964e-20)
(0.183027 0.0524355 -7.03549e-20)
(-0.0573355 0.0183568 -1.2327e-19)
(1.03793 -0.00637918 1.21739e-20)
(-0.285915 0.00296537 7.21013e-23)
(1.01371 -0.0272496 -4.32455e-23)
(1.02124 -0.0428668 -2.05507e-21)
(1.14126 -0.0124588 0)
(1.07777 0.0177337 0)
(1.02587 -0.00287407 0)
(1.02045 -0.0777239 0)
(-0.0679322 0.00409339 1.40881e-19)
(1.24798 -0.174121 -1.01846e-19)
(-0.0952681 0.00382063 1.51632e-19)
(1.07201 -0.0182264 0)
(0.993267 -0.0151981 0)
(0.337527 0.0589497 9.48347e-21)
(0.999531 -0.00463805 0)
(1.233 -0.082615 0)
(1.08588 0.0067355 0)
(1.09176 0.0205569 -1.69701e-20)
(1.11404 -0.0194208 2.12542e-20)
(0.532948 0.0647818 0)
(-0.156829 0.0103582 1.28089e-19)
(1.08807 -0.0334519 2.37585e-21)
(-0.288566 0.00016969 1.02258e-19)
(1.06389 -3.02868e-05 5.35743e-21)
(1.16615 -0.0230362 0)
(0.423927 0.0522973 1.98351e-20)
(0.118874 0.0193809 2.32066e-20)
(1.01339 -0.0428974 0)
(1.00083 -0.0279558 0)
(0.818385 -0.164471 0)
(-0.0868192 0.00492484 -1.63109e-19)
(1.09609 0.0744304 -1.9627e-20)
(1.10003 0.0434154 -3.27447e-20)
(1.05261 -0.561512 1.18304e-19)
(1.07766 0.0185422 3.60676e-21)
(1.10179 0.00768424 0)
(0.0333288 -0.0473305 0)
(0.552215 0.0143147 0)
(1.08977 -0.348561 0)
(0.182562 0.0522039 3.97051e-20)
(1.12744 0.0732009 -5.81708e-20)
(0.476526 0.051927 -2.63562e-20)
(1.04502 -0.0399571 5.76814e-21)
(1.11315 0.0806027 0)
(1.1757 0.0399169 -1.06274e-19)
(1.00015 -0.0100931 0)
(-0.317104 0.00351072 0)
(0.364109 0.0435832 -1.30247e-19)
(1.03585 -0.128517 1.55895e-20)
(1.12052 0.0190837 -3.03577e-20)
(1.0035 -0.0381396 4.60719e-21)
(0.461883 -0.849447 -3.09916e-21)
(1.14961 -0.194011 -1.07173e-19)
(0.540301 -0.181442 1.0749e-19)
(1.01111 -0.0342383 -1.59691e-21)
(1.0008 -0.000529244 -8.75563e-22)
(0.910696 -0.0516018 -1.40539e-20)
(1.14541 -0.0407841 1.21696e-20)
(1.00172 -0.00811991 1.06642e-21)
(-0.0457422 0.0251941 -2.86705e-20)
(1.00093 -0.000631723 0)
(1.12862 0.0724797 4.33863e-20)
(0.970951 -0.0712889 1.41583e-20)
(1.09382 0.0537374 0)
(0.991414 -0.030424 5.31788e-21)
(0.988476 -0.00432654 -1.21655e-21)
(1.09798 -0.166696 1.41983e-20)
(-0.2846 0.00108985 0)
(1.1417 -0.0199643 -3.78148e-20)
(-0.0884342 0.0205473 1.43044e-19)
(1.10767 -0.0668908 0)
(1.01376 -0.0103015 0)
(1.03264 -0.011289 9.47383e-21)
(1.15846 -0.015495 0)
(1.05868 -0.0333747 0)
(1.20052 -0.036602 0)
(1.07884 -0.0199317 -1.52278e-20)
(0.878082 -0.120817 1.9996e-20)
(1.11106 0.0797395 1.23452e-21)
(0.999407 -0.0043882 0)
(0.289031 0.00997656 0)
(1.00007 -0.00158583 3.93503e-21)
(1.0938 0.0594894 0)
(-0.27282 0.000453306 -1.13164e-19)
(0.388334 0.0565524 3.77604e-21)
(0.881955 -0.032367 -9.34228e-21)
(0.748837 -0.26187 -1.44865e-19)
(1.06592 -0.288751 2.22788e-20)
(1.2281 -0.251233 -4.97356e-20)
(0.335959 0.043864 9.97489e-20)
(1.04057 -0.00751025 -2.06573e-20)
(0.512281 0.0203896 2.0845e-19)
(0.94332 -0.12465 1.78392e-20)
(1.11055 -0.0272508 -1.07258e-20)
(-0.169242 -0.00136767 1.17028e-19)
(1.28146 -0.00138003 8.3982e-21)
(1.02991 -0.00920226 0)
(1.19824 -0.0389452 0)
(1.04814 -0.0104312 -1.74094e-20)
(0.443575 0.0474733 0)
(-0.264661 0.00538272 -4.55073e-20)
(1.02664 -0.0442551 -2.32876e-21)
(0.691679 -0.154288 8.86278e-20)
(0.551748 0.0721663 0)
(0.999993 -0.00135809 -3.76213e-21)
(0.999992 -0.00182609 -1.54823e-21)
(1.09575 0.0515864 -4.81782e-20)
(0.270915 0.00745155 -5.67218e-21)
(0.917061 0.0811309 2.21091e-20)
(0.973855 -0.0191298 0)
(1.19307 0.0164834 6.48068e-21)
(1.0663 -0.0185767 -2.001e-20)
(0.987384 -0.00545713 0)
(1.11025 0.0802627 -3.81035e-20)
(1.19309 0.01925 0)
(1.22338 -0.184773 3.67718e-20)
(1.02417 -0.00266254 4.54105e-21)
(1.10978 0.0622123 -8.53283e-21)
(0.907702 -0.214163 -1.79723e-20)
(1.09421 0.0479187 0)
(0.95743 -0.0223297 0)
(1.00987 -0.0710145 -9.35304e-22)
(1.14192 -0.193802 7.15718e-20)
(0.914899 -0.0526606 -3.7892e-20)
(1.10721 0.0644734 6.98933e-20)
(1.13206 0.00870299 3.08189e-20)
(1.135 0.00506356 6.07163e-22)
(1.07818 -0.335709 -1.5962e-20)
(1.17551 -0.668641 -1.2862e-19)
(1.2218 0.0243319 9.34463e-22)
(0.629454 0.0814443 9.64866e-21)
(1.01031 -0.0955789 1.38046e-19)
(1.10411 0.0671248 0)
(0.0616626 0.0231423 0)
(1.02588 -0.182718 0)
(0.866326 0.0735067 -3.88612e-20)
(1.16338 0.0501153 -4.47815e-20)
(1.03421 -0.0214992 0)
(1.10055 0.00652924 -2.04866e-20)
(1.21879 0.0219127 -3.98692e-20)
(1.0612 -0.0910804 0)
(1.0057 -0.0185289 2.28452e-21)
(1.00618 -0.0175285 2.15632e-21)
(1.09553 0.059449 -2.12668e-20)
(0.196782 0.0105983 2.15888e-20)
(1.08328 0.0126527 1.21459e-20)
(0.0402958 0.0334966 -4.47674e-22)
(1.01357 -0.0107055 -1.80992e-21)
(0.883574 0.0804222 -1.11885e-20)
(1.00219 -0.379805 0)
(-0.233223 0.00668482 0)
(1.19855 -0.0444265 0)
(1.08635 -0.0490966 -6.47627e-21)
(1.07596 -0.0221952 0)
(-0.220301 0.00896428 0)
(1.22532 -0.179448 4.44803e-20)
(1.02637 -0.175667 4.92985e-21)
(1.12148 0.0846525 0)
(1.04882 -0.0379748 1.21103e-20)
(1.23925 -0.445129 4.7123e-20)
(1.09474 0.0598443 0)
(1.13095 0.0727676 -2.17782e-20)
(1.11349 -0.0468031 -4.4285e-20)
(1.27973 -0.153945 -6.14964e-20)
(0.988669 -0.0196426 -1.13259e-20)
(1.00009 -0.00186719 0)
(0.94096 -0.0244532 2.11049e-20)
(0.986772 -0.00629874 -1.9131e-21)
(0.404806 0.0509969 -7.14079e-21)
(1.00421 -0.000816791 0)
(1.10579 0.078684 3.63332e-20)
(0.304111 0.0562546 -1.02234e-20)
(1.2021 -0.0461873 -2.8094e-20)
(-0.0422533 0.0209249 0)
(-0.185048 0.00882689 4.3082e-20)
(1.13256 0.0737339 0)
(1.23678 -0.24708 0)
(0.884915 -0.0397445 7.88723e-21)
(0.998593 -0.00112147 1.19973e-20)
(0.98316 -0.0182859 -6.40286e-21)
(1.02157 -0.00664385 0)
(1.03188 -0.0113551 -1.1399e-20)
(1.0011 -0.000588122 -1.15158e-21)
(1.16468 -0.0163139 -3.12801e-20)
(1.2195 -0.0185064 3.2884e-20)
(0.904404 -0.225841 0)
(1.12078 0.0679223 -5.70119e-20)
(1.02624 -0.066696 -5.66458e-22)
(0.219135 0.0419731 3.31003e-20)
(0.999976 -0.000197514 3.45845e-21)
(-0.16145 -0.0172699 6.06774e-20)
(1.1253 -0.0963453 -9.92254e-21)
(0.999919 -0.000401113 0)
(0.997014 -0.00212656 6.86007e-21)
(0.370889 0.0566475 3.20506e-20)
(1.08837 -0.0420611 0)
(0.919418 0.0841849 -3.00248e-20)
(0.380615 0.0416323 5.6664e-21)
(1.11669 0.018884 -2.05987e-20)
(1.14363 0.0228793 0)
(1.03307 -0.00187199 9.96748e-21)
(0.257314 0.0593535 2.44648e-20)
(0.987007 -0.0854666 1.2369e-20)
(1.07545 -0.0190855 -2.16274e-20)
(1.11001 0.0801218 0)
(0.998653 -0.00159236 -5.58224e-21)
(0.974736 -0.0460689 -3.17673e-20)
(1.03791 -0.0123213 0)
(1.09854 0.034139 2.44102e-20)
(0.169424 0.0121062 0)
(1.09842 -0.0628964 -3.20335e-20)
(1.11464 -0.0413268 0)
(1.26542 -0.171252 2.86299e-20)
(-0.0862021 0.0166101 1.89307e-19)
(0.886917 -0.062131 -3.19456e-20)
(0.989358 -0.109585 -7.11673e-22)
(0.457129 0.0533427 -1.27346e-20)
(1.02111 -0.00643548 7.8315e-21)
(0.447435 0.0517923 1.2014e-20)
(1.00043 -0.00132224 1.82882e-21)
(1.06877 -0.0169714 5.87041e-21)
(1.18104 -0.0142697 -1.10018e-19)
(1.11764 0.050023 0)
(1.13237 0.0619102 8.23255e-21)
(1.19827 -0.105386 0)
(1.14271 -0.017485 4.22569e-20)
(0.999526 -0.00143441 5.11844e-21)
(0.999988 -0.000199224 -7.26929e-21)
(1.17012 -0.0223191 0)
(1.04665 -0.0398427 6.26256e-21)
(0.99964 -0.00118658 3.07772e-21)
(1.08186 0.0169326 0)
(1.2542 -0.209626 -1.43885e-20)
(1.00506 -0.00595267 5.73416e-22)
(1.21563 -0.265551 0)
(1.2797 -0.481831 0)
(0.969305 0.0829103 1.23655e-20)
(1.19685 -0.100652 0)
(-0.0592384 -0.0136301 -8.82501e-20)
(0.839047 -0.096928 0)
(0.998471 -0.00148039 1.21605e-20)
(1.22907 -0.118061 -1.00981e-19)
(1.013 -0.011186 0)
(1.09101 -0.0269962 -2.71299e-20)
(0.676771 0.0853478 -1.62001e-20)
(0.485864 0.0469778 -1.46482e-21)
(0.502791 0.0200942 -3.6284e-20)
(0.495574 0.0579155 0)
(1.03057 -0.044572 -5.84678e-21)
(1.0265 -0.0433785 -7.3028e-21)
(0.980882 -0.286055 -5.19976e-22)
(1.00616 -0.0683601 3.01738e-21)
(1.02393 -0.0200791 0)
(0.538133 -0.278752 9.21519e-20)
(1.14419 0.073082 5.27163e-20)
(0.148418 0.0170696 0)
(1.0932 0.0598913 0)
(1.11916 0.0505565 -6.72734e-21)
(0.98542 -0.008293 9.84911e-21)
(1.02183 -0.0133325 0)
(1.29312 -0.334987 5.17066e-20)
(1.15353 0.033075 7.18935e-20)
(1.07096 -0.0168024 -1.0125e-20)
(0.999801 -0.000475683 0)
(1.12882 0.0628814 2.26036e-20)
(1.23744 -0.0477921 -8.53067e-20)
(0.05165 0.0337556 4.44857e-20)
(0.973063 -0.0238786 -2.33422e-20)
(1.00101 -0.00366834 2.39897e-21)
(0.15173 0.00973111 -6.81637e-21)
(0.958512 -0.0209042 -1.37559e-20)
(1.11465 -0.0244792 -5.19267e-20)
(1.0131 -0.00870984 8.06559e-22)
(-0.00110276 0.0283982 1.00011e-19)
(1.01028 -0.000509806 1.21289e-21)
(-0.264303 -0.00231165 0)
(0.994993 -0.00723828 -2.27148e-21)
(1.20546 -0.201816 0)
(1.12093 -0.00250382 -2.80564e-20)
(0.957067 -0.289933 3.53992e-21)
(1.11558 -0.0450347 5.81493e-20)
(0.993867 -0.0278577 0)
(1.07657 -0.0295807 9.98466e-21)
(1.00358 -0.00427199 3.40642e-22)
(1.10166 0.0775906 -9.58544e-21)
(0.961813 -0.0300371 0)
(0.303501 0.0187335 7.57135e-21)
(1.05109 -0.0370742 0)
(0.942497 0.0963848 0)
(0.230861 0.0537789 2.48901e-20)
(1.1089 -0.0515132 -1.15289e-20)
(1.0042 -0.00305283 -1.19105e-22)
(-0.188634 -0.0158807 3.26406e-22)
(0.732831 0.0747132 0)
(1.09058 -0.033373 -7.02828e-22)
(1.11584 0.0504582 0)
(0.983158 -0.0173225 0)
(0.236627 0.0107184 -4.14716e-20)
(1.03518 -0.022199 -6.74542e-21)
(1.2201 0.0192215 4.82063e-20)
(0.999523 -0.0110525 0)
(1.00388 -0.00445502 -4.42519e-22)
(0.960341 0.087637 6.9642e-21)
(1.11494 -0.0175353 6.38715e-21)
(1.00068 -0.00793081 -3.54562e-21)
(1.08335 0.025513 4.77105e-21)
(0.100174 0.0416792 -4.48901e-22)
(0.720612 -0.803243 -8.68503e-22)
(0.503717 0.069908 0)
(1.01897 -0.0168107 0)
(0.078569 0.0258296 0)
(0.997782 -0.0099897 0)
(1.00485 -0.00561409 -4.46421e-22)
(0.974444 -0.0268059 -2.81424e-20)
(1.02043 -7.10594e-05 3.94247e-21)
(0.9999 -0.00254984 0)
(0.45122 0.06043 5.23318e-20)
(0.641308 0.0858274 3.64136e-20)
(1.04893 -0.0215071 0)
(1.00097 -0.000865135 0)
(1.1308 -0.032991 4.45638e-20)
(1.01734 -0.0243515 -3.06891e-21)
(-0.15785 -0.0206561 0)
(1.23338 -0.114548 6.62659e-20)
(0.043765 0.0190608 2.31815e-20)
(-0.0238182 0.0226897 -5.98993e-20)
(1.07612 -0.0307463 2.12125e-20)
(1.10831 0.0641946 -3.02961e-20)
(1.0002 -0.0106659 -8.87877e-21)
(1.1237 0.00118154 -2.74849e-20)
(0.996906 -0.361868 8.93229e-21)
(1.0398 -0.00685385 2.46606e-20)
(1.00036 -0.00130059 -3.02052e-21)
(1.31247 -0.318291 3.72532e-20)
(-0.254578 0.00601894 4.95528e-20)
(1.14122 0.0232951 1.33491e-20)
(-0.325858 -0.00265022 7.01466e-20)
(1.12356 0.0344357 -3.40481e-20)
(0.995883 -0.00432846 -4.43278e-21)
(1.13427 -0.0455043 3.63897e-20)
(1.11503 0.0512846 1.63272e-20)
(-0.300148 0.00203409 3.48762e-22)
(1.1076 -0.00662074 0)
(1.08577 0.0847638 2.77752e-20)
(1.15625 0.0331542 -7.81937e-20)
(1.00024 -0.00255703 2.46747e-21)
(0.330348 -0.11343 -4.72228e-20)
(0.233294 -0.0790343 0)
(0.200083 0.0171152 3.52035e-20)
(1.21013 0.00489162 -8.95451e-20)
(0.911542 0.0724232 -1.44805e-20)
(0.980813 -0.0753713 -3.50462e-21)
(0.728159 -0.361303 -2.52324e-20)
(0.972434 -0.0069951 -4.36357e-21)
(1.17173 0.0929071 -3.75877e-20)
(1.0601 -0.0876375 -1.59974e-20)
(1.00837 -0.00162903 1.43011e-21)
(0.45715 0.0658531 -1.46938e-19)
(1.02235 -0.065817 2.54621e-21)
(1.00411 -0.00280224 0)
(1.01471 -0.0429106 -5.81327e-23)
(1.02086 -0.0640261 -2.19473e-21)
(-0.0292424 0.0264313 -1.32611e-19)
(1.21504 0.0264652 4.03191e-20)
(1.01297 -0.0156976 -1.44151e-22)
(1.13641 -0.0427846 0)
(0.00779643 0.0159049 9.52531e-21)
(1.0407 -0.0603026 -1.68634e-21)
(-0.340411 -0.000605126 0)
(0.958446 -0.0472297 0)
(1.12446 0.0453082 -9.30267e-22)
(0.0689209 0.034216 0)
(1.00149 -0.00749412 -1.08186e-21)
(1.0933 0.075535 -1.68167e-20)
(1.07033 -0.103327 -4.06655e-22)
(1.11208 -0.052651 1.14691e-20)
(0.674379 -0.831337 2.73913e-20)
(1.02483 -0.0651137 0)
(1.26912 -0.0887902 1.27308e-19)
(1.09453 0.0493654 0)
(0.140481 0.0459983 0)
(1.04975 -0.00439557 2.40141e-20)
(0.256082 0.0163305 2.2658e-20)
(1.10642 -0.0296958 4.8216e-20)
(0.00190461 0.0227131 0)
(-0.29054 0.0043687 0)
(0.234537 0.0119503 -2.44539e-20)
(1.11419 0.0218198 -3.03831e-20)
(0.99082 -0.0263419 1.43779e-20)
(1.02992 -0.0458145 2.69894e-21)
(0.999974 -0.00132495 1.29306e-21)
(1.08376 0.0370304 -3.77859e-20)
(0.997055 -0.00400339 -3.62705e-21)
(0.115621 0.0443205 6.89191e-20)
(1.03217 -0.120068 0)
(0.926539 -0.0924933 0)
(0.889765 -0.0586998 0)
(0.982881 -0.0739516 1.09352e-20)
(1.01851 -0.0162172 -3.35025e-21)
(1.07093 0.0198059 0)
(1.06729 -0.0887356 -1.34599e-20)
(1.06847 -0.00965521 9.46523e-22)
(1.04651 -0.100391 -1.21153e-20)
(0.267179 0.040749 1.49595e-19)
(1.09788 0.0765566 0)
(1.10354 -0.0206042 0)
(1.11833 -0.156175 0)
(0.486442 0.0646338 1.22275e-19)
(0.972001 -0.0456316 1.62908e-20)
(-0.126548 -0.000848326 -9.91398e-21)
(1.02046 -0.00642849 -3.8292e-21)
(1.03346 -0.14472 0)
(0.959988 -0.0287571 -8.03549e-21)
(1.02516 -0.029524 -3.29761e-21)