/*--------------------------------*- C++ -*----------------------------------*\
| =========                 |                                                 |
| \\      /  F ield         | OpenFOAM: The Open Source CFD Toolbox           |
|  \\    /   O peration     | Version:  v2012                                 |
|   \\  /    A nd           | Website:  www.openfoam.com                      |
|    \\/     M anipulation  |                                                 |
\*---------------------------------------------------------------------------*/
FoamFile
{
    version     2.0;
    format      ascii;
    class       volScalarField;
    location    "750";
    object      omega_0;
}
// * * * * * * * * * * * * * * * * * * * * * * * * * * * * * * * * * * * * * //

dimensions      [0 0 -1 0 0 0 0];


internalField   nonuniform List<scalar> 
13851
(
0.0234809
1.18488
0.0814277
0.0231283
0.0842489
0.264902
0.0216475
0.0489979
0.0206627
0.0910318
0.186705
1.94693
2.48204
3.00082
0.0214047
0.0345701
0.0252275
0.0283482
0.591354
0.0206563
0.0229566
0.0798971
0.0212413
0.0223771
0.0214266
0.0497938
0.0244826
9.626
0.0232954
0.0242702
0.52542
0.0255854
0.0784642
0.312106
0.0223817
0.198497
1.33661
0.184568
0.101054
0.308096
0.0212853
0.0197243
3.25191
0.235703
0.23285
6.4975
0.252226
0.473928
0.0247419
0.30728
0.0780717
0.139804
3.40734
0.0215609
0.0223791
0.0197251
0.0213752
1.9591
0.024035
0.0216883
0.178023
3.01229
0.0498155
0.0979208
0.248776
0.0251541
2.4836
0.275069
0.0356166
0.0281434
7.40995
3.19952
1.17671
0.0216731
0.0210126
0.0208764
0.0767602
5.32906
0.0504842
6.74641
0.0219279
0.234076
0.0213546
7.40925
0.0523422
1.92668
0.0804729
1.24389
0.0258316
0.0209812
0.196623
0.0336522
0.289117
0.0284083
0.0255797
0.0222482
0.0866428
2.85959
0.340958
0.0222515
2.62615
0.0541601
0.0222061
0.0241558
0.0209196
0.082547
0.0599306
0.0196329
3.61255
0.302132
0.0225397
0.0210597
0.0305347
0.0228926
0.0225222
0.889456
2.92679
0.0196718
0.0226615
0.0226941
3.57672
0.0240104
2.53774
0.665762
0.436471
0.0216029
0.506404
0.0524303
0.0227552
0.138618
0.0212667
0.0207057
5.91654
0.0213554
0.882985
0.0208899
0.0196847
3.09732
2.1336
2.25907
2.49405
0.02238
0.0225906
0.0200461
0.023388
0.25533
0.114231
0.13892
0.0216306
0.236581
0.0810103
0.0223474
3.21824
0.0214324
0.0230348
0.02328
0.0209727
0.0231714
0.139291
0.0770422
0.0197393
0.0283914
1.98195
0.0206903
0.0282403
0.0198802
0.128412
0.0361158
0.022627
3.03907
6.57741
0.0203889
0.0209895
2.25117
0.0206831
0.401238
0.0507206
0.0226064
0.646787
0.0196409
0.026473
3.2948
0.0213534
0.0849357
0.0197171
0.0215824
0.025373
0.0218245
0.0950205
0.0870671
0.266307
2.59583
0.0213053
0.0356983
2.90689
0.0228657
0.0223358
0.372986
0.0223918
0.020906
0.021696
4.96691
0.0234128
0.0212482
0.0720837
0.0213656
2.91108
0.0254018
3.23661
0.0196535
3.55691
0.0221106
0.390822
0.0196014
0.0199623
0.155415
0.0508353
5.90875
0.0213439
3.19463
0.0255947
0.0219755
3.23482
0.134964
3.57568
0.0216335
0.0306923
0.0210768
2.0015
0.0195993
0.0482704
0.732015
0.020379
0.0212129
0.0698363
0.0435879
3.13309
0.300746
0.0200249
0.02126
0.491505
0.394002
0.0202469
0.0777336
0.0205627
3.3906
0.0553905
0.308271
0.0233755
0.0262241
0.0302922
0.379935
0.0219537
0.0234799
0.0558407
0.0972935
0.0826233
3.14055
24.5615
0.0214381
0.0199829
0.0271906
0.768384
0.0204661
1.85506
0.0228515
0.0219163
0.0278438
3.22788
0.0293828
0.0297286
0.0230261
0.868778
0.0477546
0.0335179
0.0207139
0.234718
0.0563512
3.76819
0.194891
0.0202689
0.0196197
0.0208617
0.0534277
0.744258
0.371583
0.0207664
0.0214414
0.869287
0.235483
0.160589
0.0237166
0.0216985
0.0384313
0.233767
1.46217
0.0276262
1.89341
0.0207332
3.42817
0.027949
0.0250606
3.74329
0.0216282
0.100743
3.29082
0.0207466
0.0464813
0.028551
0.0234957
2.23064
0.0278324
0.0218891
3.1321
0.0197694
0.0265053
0.0222576
3.832
0.129005
0.0213438
0.055903
0.0213773
10.2608
0.0330946
0.0212797
0.0211931
0.126245
0.0298789
0.022942
0.0214443
0.0216052
0.0218439
0.210979
3.78663
2.82535
0.0309822
3.79909
2.67786
0.0213618
0.0363929
0.162069
0.0345015
0.0574428
0.123107
0.568398
0.0252614
0.65054
3.35784
0.0214201
0.0862893
0.0835056
1.00941
0.0229301
0.0615047
1.97264
0.0210142
0.648083
0.021181
0.0213894
0.0204326
0.019631
0.020924
3.42399
0.333049
0.0213645
0.0443683
0.0198114
1.87578
0.0413622
0.516957
2.89218
0.021377
0.0556704
0.0286654
0.491361
0.0211957
0.0196891
0.0317296
2.70804
0.0213942
2.30606
0.0345147
0.132036
3.99482
0.199038
0.211262
0.0266605
0.0207675
0.0220575
0.0297909
0.0553095
2.902
0.0361239
3.64335
3.32401
0.0198243
0.0214462
2.92049
5.09786
0.531296
2.99584
0.0320621
0.0293605
0.0221763
2.62754
0.0205121
0.0337783
0.0258669
0.0215754
0.0209676
0.0207219
0.0198667
0.0952555
0.0532668
6.0247
0.0286226
0.0592078
0.0350784
0.323566
0.0272844
1.31511
0.0247707
0.189965
0.0196717
0.020703
0.0218552
0.273434
0.333398
0.131108
0.0337335
8.30005
0.335023
0.0640188
0.0229803
0.0713935
0.021176
0.287324
0.0208793
2.07031
0.283153
0.0729861
3.34115
0.0226935
0.129014
0.298367
3.07769
0.0196176
0.0309883
0.0518727
0.0319317
0.0204669
0.0218568
0.075779
0.131386
0.0326147
1.56815
0.0216275
0.0212517
2.49991
0.0290978
0.0196057
1.73266
0.020758
0.023445
0.0205466
0.0424971
0.0227727
0.0196359
0.0225022
3.12615
0.0213672
0.0386801
0.0208128
0.0281463
0.178156
0.0230036
0.0212347
0.0229238
0.0229299
0.261721
0.0218943
0.126111
0.0213531
0.0218796
2.61578
3.48272
0.0213929
0.0288939
0.0274589
0.436095
7.04341
0.0212665
0.339531
0.0212204
0.0839215
0.0216178
2.21594
0.0197576
3.85527
0.0825616
0.0197381
0.0288007
2.80348
0.0495299
0.26538
0.0226175
0.497593
0.0227465
0.0206307
0.0207192
0.0215828
4.10112
0.0701126
0.138336
0.545789
0.0484694
0.0197738
2.79686
0.349287
0.0266583
0.0286269
0.435046
0.654451
3.56177
0.022367
2.24305
6.89218
5.42811
0.0286529
0.0295322
0.615188
0.108597
0.095804
0.37279
2.23141
0.0233604
2.29721
3.07329
0.0196794
0.0547382
0.0719464
4.25894
0.0235743
0.0212298
0.0209516
0.0212486
0.0933034
0.0400999
1.15445
1.58713
0.0207548
2.471
3.24714
0.270069
0.3195
0.0379836
0.0195801
0.0206813
0.230791
2.86762
0.0231348
0.0967654
0.192152
0.0197124
0.0420766
0.626605
0.212562
0.12203
3.87631
3.12003
0.0212405
0.0215895
1.58872
3.27994
0.136965
0.0360004
0.0546158
0.019641
0.0211031
2.13236
0.0196938
0.0234665
0.0196279
0.0207834
3.08887
0.0937292
0.0307345
0.0196836
2.658
0.386222
0.0207603
0.0210702
0.0205197
0.0219635
2.65202
0.342602
0.370712
5.27812
0.41997
0.0339737
5.79968
3.38614
0.025789
0.0361038
0.0195743
0.0221314
0.0361894
3.07256
0.697505
0.0952933
0.029691
0.0206175
0.0340519
0.0224792
0.271708
0.0778531
0.0213432
0.0317656
0.0204682
0.0275722
0.134113
0.0216579
0.0211543
0.0414493
0.0216292
0.0855734
0.227891
0.128843
0.034582
0.141564
0.020603
0.180238
0.0319525
5.12149
0.0220351
0.0223231
3.51916
0.0236543
4.49832
3.33563
4.38109
1.77336
0.0205106
3.36248
0.0204967
0.0207754
0.0197507
0.0207901
0.0279594
0.0294008
0.0400269
0.0196687
2.60976
0.0862409
2.66626
0.0208905
0.019862
0.0207915
0.155212
3.05704
0.057137
0.0278956
0.0205597
0.0219852
0.0215836
0.021017
0.212299
1.76671
0.021604
0.0196572
0.0215964
0.0210112
1.13876
2.21842
0.0347727
2.77754
0.575454
0.0211377
0.137036
2.98004
0.0378564
1.99042
0.0219106
0.0274292
0.0560684
0.0277231
0.39242
0.0213797
0.631009
0.0209173
0.0317105
3.17719
0.0209852
0.0230303
0.0524606
0.0206386
0.02593
0.838823
2.28511
0.0758976
1.24617
0.230577
0.0196149
0.0208724
2.46974
0.189025
0.0470332
3.36862
0.0205813
0.0241944
0.0196945
0.368715
2.25615
0.0260019
0.0218084
0.142493
0.0246463
0.0207674
2.98111
0.108407
2.99732
0.0197543
0.0215936
5.41147
4.62532
0.165388
0.0222458
3.47019
0.0213683
0.148131
0.141106
0.0779426
0.0253561
5.33713
0.0284173
0.0233685
1.10573
0.0222104
0.0233779
0.0229289
0.0205858
3.34189
0.0330261
0.1232
0.0300568
0.0704635
0.0206378
0.833539
0.022614
0.0280568
0.0199415
0.0211044
0.0213791
3.24927
0.0209407
0.019723
0.305595
0.0216111
4.03234
0.0211018
0.0224641
0.0754916
1.40624
0.327486
0.0209076
0.81868
2.80234
0.0219305
3.39894
0.0313604
0.0205588
0.0691653
2.82732
0.698031
0.0264002
0.0208688
0.0196456
0.31797
0.0863563
0.060915
0.0271414
0.0770879
0.0220924
0.0223303
0.0958627
0.418759
0.0926756
0.704286
0.0215724
0.0855231
0.0903956
3.86484
0.0257945
2.18825
0.371709
0.0216263
6.8726
0.11626
2.76106
2.30971
3.0821
0.352294
0.0430642
0.0205734
0.029179
1.95335
8.06456
0.0211275
0.0218852
0.0721167
0.235386
0.0197634
3.37889
0.0205578
0.0213799
2.85611
5.32622
0.275194
0.0207642
0.0214042
3.57141
0.202025
0.127475
0.0236528
2.72509
0.244356
2.80619
0.0591177
0.0435207
0.0218921
0.0216069
1.22999
0.0532034
5.76359
0.0326438
0.0356195
4.87888
2.75641
3.54727
0.0214476
0.0322084
0.0207478
0.0353761
0.022933
2.04215
0.0242389
3.29981
0.0197625
0.073959
0.0211188
0.164324
0.0346311
0.0317848
2.80647
0.0467156
0.0450131
0.0225332
0.0738651
0.434525
0.0623615
0.0235539
6.55838
0.0203979
2.2982
0.348781
0.0216431
3.55235
2.72092
3.70859
0.317224
0.0313624
0.0211173
3.00049
0.0243084
0.858268
3.24994
0.0208985
0.0228257
0.255625
0.399706
1.96596
0.0215649
0.0209287
1.21261
3.20059
0.122432
0.0258919
0.0229375
0.352264
3.2469
0.0935153
0.0197283
0.0435316
0.0206528
0.0230274
0.126356
0.0222585
2.17778
0.219655
0.0213891
0.0227745
0.0211386
0.0229961
5.95751
2.78215
0.0305463
2.23537
0.0211187
0.0305473
0.0210762
0.0206675
0.0215664
0.0213729
4.01668
0.0213943
0.0561877
0.0214519
0.0266083
0.161431
4.34059
0.0226547
1.68579
0.0638936
0.780888
0.0339171
0.0343918
7.67874
0.027591
0.040985
2.00393
0.830303
3.0356
0.0427353
0.227509
0.0219314
0.0442455
0.0554295
1.99944
0.0214116
2.13059
0.0208566
0.0209066
2.72198
0.0215086
1.77186
0.0256546
0.0207331
0.0398865
0.0207473
0.0214102
0.0208631
0.0218577
0.305328
0.020914
0.18815
2.804
0.0644902
2.27448
0.0215858
0.0226751
0.0227534
0.0212577
0.0207275
0.0859901
0.0219668
0.0208182
0.0218687
0.0215402
3.91598
1.72572
0.0581928
2.97708
0.316517
0.0210964
0.524145
0.0294634
0.0209077
0.341361
0.0901812
0.44282
0.0210706
0.245781
0.409758
2.03132
0.0204092
2.51002
0.0321881
0.0243352
0.0209731
0.0205835
2.3988
0.0974286
0.316514
0.0209326
0.0213135
0.487316
0.0216641
1.42706
0.357453
1.66113
0.662531
0.376112
0.0218208
0.0213223
0.0561399
0.0284757
0.0241502
0.161508
0.044761
0.0220063
0.0228248
1.75807
0.0208396
3.61015
1.8688
0.842727
0.195753
0.0222877
0.020198
0.0216771
0.300339
0.375604
0.0204087
0.0231546
0.0209038
0.0836662
0.0198388
0.0208647
0.0220137
0.0344252
1.68793
0.0426531
0.0314638
0.0214266
0.0562459
2.30243
0.0223216
6.53257
2.397
0.0872218
0.0199582
0.0477229
0.0212244
0.0213083
0.0216135
5.16575
0.128925
0.359821
0.0242365
0.185998
0.0212774
0.021006
0.0216264
0.544555
0.826052
0.0197144
0.0339842
0.0566402
3.60754
0.0230065
1.48221
0.0285716
2.69263
0.0793394
3.38154
0.0973895
0.0859865
0.281656
3.18935
0.368986
4.42035
0.0213425
0.145897
0.0198243
0.0236667
0.0268426
0.0216336
3.24535
0.0305731
0.0282974
0.358011
0.187004
0.278765
0.0213598
0.0238991
0.0264982
0.0202825
0.0303257
1.2265
0.326619
1.14286
0.0209411
0.027669
0.0240687
0.629256
3.04284
0.0554924
0.0201734
0.0218945
2.40333
0.0480587
2.15255
2.82304
0.216536
0.0199375
2.62563
0.0297266
0.0470002
0.0294012
3.46997
0.292853
0.129261
0.1621
0.0222861
0.0270811
0.0213884
2.9822
0.0488876
3.31568
0.0646439
0.0266274
0.153442
0.0228073
3.49207
0.246969
0.0207344
0.147826
3.14804
0.145932
3.42942
0.0216055
0.021345
5.69388
2.4562
2.5099
0.022678
0.0215939
0.0213826
3.822
0.151911
0.0218355
0.101343
0.0906673
3.05587
2.48708
0.443445
0.021428
3.37238
0.0250477
0.021215
0.146703
3.18451
0.021655
0.0208484
5.52894
3.4132
0.0213692
0.0209243
2.16033
0.0206609
0.234645
0.0209422
0.600185
0.0213372
0.0571066
1.19191
3.07977
0.0226107
3.80983
0.217922
2.57043
1.61612
2.64163
0.151026
0.0211563
2.3066
0.0230224
0.0213767
0.0202515
0.429126
0.0211202
1.07125
0.0208639
0.0235082
5.06372
0.069455
2.11843
0.0229699
0.0244885
0.020712
0.034123
2.91372
2.66178
0.0208489
0.071971
0.283306
0.0215851
0.0206009
3.08916
0.0361549
0.0364155
0.13723
2.26998
0.754125
2.73492
3.38068
0.20034
0.184088
0.36018
1.6852
0.0718218
0.0200726
0.135339
0.0211429
0.0211209
1.84099
3.1313
0.023204
3.15265
0.111897
3.92047
0.21519
0.10213
0.0212079
0.137588
0.176299
0.0212319
0.0227202
3.34118
2.94489
1.46093
3.47695
0.0399542
3.33938
3.43622
0.033496
0.0217085
0.0210105
0.234639
0.0209904
0.246488
0.0222951
0.022133
0.0234045
2.43269
3.7922
2.18092
0.0218261
2.76223
0.0253693
0.0300393
0.0209834
0.0207411
1.9808
0.0277289
3.40819
1.27554
0.082396
0.123476
0.0214758
0.0422305
0.0216058
0.149997
0.0224423
0.0228769
0.0217454
0.0223008
0.170214
0.0221992
0.0363359
0.0212874
0.0369877
0.165973
5.8263
0.021017
0.0518717
0.0212056
0.0564294
0.0227355
2.79443
0.147505
0.0331612
0.0240428
0.0224131
0.47299
0.0212305
0.132445
0.0214253
0.0209654
0.0222047
3.13308
0.027745
0.0246257
0.0298863
0.0212684
0.0693447
3.03089
1.65638
0.0378662
0.0213964
0.0933908
0.0201175
0.0210223
0.19661
3.28568
0.0210108
0.0310536
0.107841
2.88875
0.0218809
0.0221075
3.30953
0.0226961
0.193245
0.306889
3.8714
0.0213495
0.0234728
0.021247
3.52428
0.140278
0.0443141
0.12588
2.21226
0.0225206
3.74013
2.13759
0.0215618
2.56881
0.0872729
0.0223566
1.99915
0.02156
0.0211578
0.0205233
0.183881
0.307915
0.17853
0.0228988
0.022393
0.0314092
0.308227
0.738062
3.75743
0.274907
0.0220811
0.140926
0.137117
2.21843
0.0773957
0.238041
0.0210045
0.0299777
0.020602
0.108005
0.0377683
0.02124
1.91889
0.145807
0.0338118
0.0264065
0.0196548
0.0211931
0.0557793
0.0357486
0.365018
0.0718299
0.0697325
0.0618188
0.121717
2.15704
0.0575702
3.70724
0.0210283
0.0208161
0.174686
2.28147
2.47639
0.256372
0.0226233
4.94858
0.280631
0.0210174
0.0270619
0.0208175
0.0443792
0.0760456
0.0334672
2.51888
0.694557
0.0227774
2.74708
6.5445
0.0214227
0.0894129
2.14749
2.28764
0.0241214
0.0808282
0.0195924
0.0230077
0.0211871
0.0256767
3.68447
2.75897
2.43161
3.47204
0.0227466
0.0351988
0.0563275
0.0208624
0.0218475
0.0205875
3.07369
0.0209523
3.56756
0.0378449
0.0457003
0.161333
0.273266
4.77136
2.98466
0.0435683
0.0198392
0.0223447
2.76118
1.64753
0.0252223
0.020783
0.0206442
0.0663628
0.031478
0.155002
2.45417
0.0227021
0.0205438
0.130152
0.0774354
6.35151
1.03714
0.0209357
0.0777154
0.0215071
3.70457
0.0199885
3.35308
0.0209722
0.0226274
0.030999
0.0219524
0.0540885
0.0312005
0.0508293
1.97786
2.9548
0.025766
0.0310251
0.0212011
2.88403
2.07116
0.0218418
0.0200659
0.295813
0.0196483
3.99698
0.0210908
0.0335057
0.0724943
0.118854
0.0391722
0.0225469
0.0216164
0.0757699
3.38344
0.0211566
0.0977461
3.61965
0.592596
0.152218
0.0345087
3.6198
0.0260437
0.243015
0.0212775
0.26621
0.262405
4.76561
3.28455
2.49283
0.0216995
0.263617
0.02084
8.25787
0.330739
3.25991
1.94962
0.0275649
2.19346
0.545296
0.0359253
0.022816
0.021646
3.5
0.0260951
0.0753869
0.0231832
0.021635
0.0206682
0.0215601
2.89437
0.209849
0.0322574
2.36598
1.8065
0.0213354
0.021314
0.0206002
0.0271555
3.32758
0.367543
0.0259494
0.0241409
0.743267
0.0799596
0.0478704
4.64173
0.0313501
3.62672
0.0316568
0.0293036
0.0212885
0.0231626
0.0758426
0.412695
0.263426
3.31714
0.0735594
3.5777
0.0249201
0.0247818
0.0214411
2.24035
2.33673
0.623605
0.112159
0.0238106
0.0214049
0.0210677
0.021422
0.0206056
2.84886
0.0301567
3.1473
0.0332719
2.78368
1.98915
3.41172
0.0502903
0.0266056
2.31186
0.0408216
1.62397
3.4803
0.0206169
0.214318
0.0279655
2.81346
3.49301
0.0360495
0.0849404
0.290439
0.0228002
0.051279
0.0241231
3.44195
0.319543
0.0243087
0.0216138
0.242246
0.153993
0.13548
0.733951
0.135433
0.0275451
0.021221
1.64606
3.29125
0.0794283
0.0323043
2.93755
2.48989
0.0208559
0.0214174
0.0245727
3.31329
3.16193
0.0213432
4.33376
0.0221295
0.021032
0.0216092
3.97827
0.311242
0.165758
2.55366
0.0229685
0.0228283
0.0209628
7.7387
0.0222003
3.53574
0.0238479
1.23818
0.0218768
0.021143
0.129644
2.94088
0.319088
0.0372997
2.56298
0.0200527
0.0215261
0.0214289
0.047144
0.0697637
0.0698202
0.0367386
3.30881
0.0247726
0.130151
0.363252
2.08885
0.021364
3.50699
3.23158
0.0255856
0.439933
0.0710466
2.32169
0.0216262
0.0694707
0.0210843
1.62298
7.35557
0.0872764
3.53368
0.0235795
0.0527226
0.0225115
4.02128
0.0199066
0.0208005
0.421219
0.0885105
2.28019
2.83912
0.0694284
0.0294575
0.0205062
1.33984
0.0303624
0.0212485
0.157106
0.0207711
0.0467263
0.0213974
0.413997
0.0224811
0.261491
0.262859
0.031115
0.144399
0.0569572
3.72402
0.0212689
1.24623
1.4751
0.0207118
0.0213682
0.0229914
0.0219101
0.0415781
0.0212375
0.242916
0.081746
0.0858698
0.0594276
0.0214686
0.0219293
0.020531
3.11269
0.0215479
0.0212607
0.193545
0.024262
1.30619
3.52763
0.0951869
0.0241358
0.0349743
0.0227627
0.0221129
0.0350499
0.0201281
0.0244173
2.30241
3.43437
0.859298
0.0226985
3.06695
0.121489
0.0219286
0.0757823
3.18069
0.0213575
0.0238387
0.0213116
3.30292
2.48185
0.494095
0.0201074
0.0243388
0.0232081
0.021617
0.136666
0.0215483
0.123563
3.37642
3.6404
0.0205981
0.024255
0.0238081
3.06014
0.0196479
2.43854
2.10063
0.517579
0.822912
2.84773
2.2206
0.0225847
0.501263
0.232257
0.022512
0.0204847
0.0208611
3.50452
2.32104
3.94657
0.021194
3.64921
0.0216068
0.16414
0.0205791
0.0233501
0.02244
0.0205876
2.4797
0.022585
1.93361
2.61454
2.54119
0.0494617
0.0563869
2.62433
3.34022
0.0218146
3.27466
0.0205329
0.0196892
0.0213011
0.0317105
0.020816
1.98192
0.0298841
0.144445
0.0380481
2.11061
2.1246
0.099502
0.020564
0.0570967
0.0776461
2.66452
0.0213956
0.0198251
0.0228423
1.89942
0.0215481
0.151745
1.9478
0.0443642
0.0637582
0.0214138
0.354037
0.02184
3.35794
0.0202608
2.58768
0.0329139
0.021538
1.96139
2.70957
0.0202133
0.0709841
0.0248752
3.77634
0.134568
0.202779
0.155267
0.0218485
0.0570883
2.76556
0.0212342
0.0302096
0.0230765
0.0824875
0.034129
2.04884
3.05563
0.0215552
3.54273
0.0225327
0.0471573
3.02831
1.96004
0.0366834
3.15555
0.202697
0.0216271
0.219025
0.137571
0.0323231
0.0225298
2.81107
0.0202454
2.47513
0.0903058
0.112464
0.0213494
0.0305581
3.35493
0.0477462
2.75392
0.022149
0.024105
0.116741
2.85652
0.0268196
3.37662
0.516699
2.01474
0.0216194
2.83197
2.30518
2.44941
0.0214012
0.0220403
0.0212548
3.4622
0.0266707
0.354706
0.339791
0.0218781
0.0203501
0.0213716
2.63124
3.25882
2.67032
2.20333
0.0209524
2.7315
3.32595
0.139397
2.38085
3.2166
0.0351012
2.50396
0.0236477
0.0263978
3.25322
2.6676
0.0217965
3.56973
0.021727
0.0214098
2.96966
3.13945
3.73366
8.75242
0.032285
0.0218843
0.0229859
3.41903
2.75123
0.0211697
0.0502397
0.40358
0.0214417
0.0215455
3.05142
2.26898
0.02316
0.021438
0.0224208
0.0226446
0.560422
0.0218906
0.0211418
0.0261638
0.150367
2.56021
0.146227
2.74974
0.0215696
0.0249667
3.02109
3.35774
0.0285976
0.245517
0.0213297
0.0379117
0.022564
0.0221859
0.068978
0.0210686
0.724186
0.0336828
0.0208429
0.0246112
2.40456
1.45054
3.67954
0.0214571
0.0242715
3.45289
0.325591
0.0244288
0.021321
0.0214871
0.230479
0.0215625
0.0219668
0.0287638
0.0213543
3.06726
0.217223
0.0218278
0.0245189
0.0200411
0.0215465
1.28921
0.427801
0.0762542
2.44571
0.0525301
0.0219577
0.0213096
0.0215342
0.0212234
0.0218041
0.0234303
0.0741402
2.99829
0.022567
0.116427
3.57729
0.0981339
0.0212138
0.0208174
0.0237781
2.89542
0.0211809
1.08588
0.915464
0.0436795
0.0223925
6.36495
0.0200251
0.255022
0.0204413
0.0200557
0.0216001
0.0208656
0.033121
2.56185
0.116495
0.0407471
1.22245
0.0837218
0.128275
0.0335024
3.18163
2.23073
0.11423
2.6089
3.11042
0.122196
0.353016
0.021908
0.0208365
1.78442
0.0209962
0.0246349
2.74089
0.0904463
1.83691
0.147077
0.020762
0.0230363
0.0215173
0.0961454
0.0205454
0.0551633
2.37682
3.01363
0.870397
0.0215116
0.0202857
0.0779108
2.73665
3.10742
0.119636
1.8437
0.0208612
2.62661
3.7125
0.508327
0.0239645
0.0215419
0.0199876
0.0233569
0.0214227
0.0212933
0.0243812
3.06639
0.0828679
3.37454
0.0902963
1.56945
0.198097
0.0212703
0.0211113
0.0221766
0.0205884
0.021869
0.523837
2.50821
0.733056
3.61694
0.023724
2.17795
0.145857
3.40782
3.41955
0.021505
0.020839
0.187803
0.0215057
0.0202302
0.534166
3.08759
2.61712
0.0214129
0.0215461
0.024218
0.039876
2.37367
0.0205522
0.0241954
0.418385
0.020367
0.357099
0.0393577
2.68169
0.021871
0.578863
2.62852
0.0368352
3.36469
0.120018
3.45634
0.0200173
0.025502
0.0208222
0.0308389
3.57701
0.0213793
2.12003
0.0219715
0.021577
0.0214478
3.53725
0.0477031
0.118826
0.517048
0.0206743
0.0459757
2.01195
0.0570368
0.0208969
0.0228204
0.0215038
0.0459663
0.0212534
0.0209093
3.60898
3.68586
3.44387
0.17837
0.407499
2.08144
0.075801
3.70594
0.130344
0.0199578
0.0208954
0.0196608
0.0216529
3.47065
3.42987
0.0204068
2.46922
3.4835
0.0306872
0.0224573
0.0246265
2.7627
2.98696
3.11037
0.261208
3.12783
0.0196615
0.188236
0.107228
0.121331
3.32969
0.0213393
0.138797
2.02009
0.0338436
2.61347
0.0218308
0.0677414
2.04465
3.27315
0.0806455
0.0325211
5.25821
0.139687
3.30679
3.38081
3.04508
0.12197
2.7295
0.0215652
0.0245321
0.0508394
4.18272
0.231987
3.57406
0.0223398
0.11938
0.0717446
0.0225213
3.16613
0.0213575
0.138599
3.97816
0.0213656
2.61581
2.81752
3.34521
2.78718
0.97581
0.319859
0.0210494
3.51986
0.021889
0.0210193
0.0443938
0.0242281
3.29657
0.024478
0.0244943
0.0245063
0.0208502
2.50466
0.0230767
0.125275
0.249523
0.0206027
3.85409
0.107572
0.0226307
2.09581
0.216015
0.0213477
0.7636
0.0221618
3.47339
0.0890525
0.0204365
0.125344
0.0231646
3.61131
3.16737
0.078169
1.18613
0.0259316
0.0214947
2.82348
0.0244823
0.0212555
2.49239
0.043736
0.0208681
0.0208282
0.136615
0.0229135
3.88721
0.194769
0.0732734
2.26771
0.0571316
0.0659212
0.0210908
3.64925
6.19329
2.32919
0.0214069
0.0203178
0.0778123
0.0316151
0.416475
0.0212851
0.401211
0.0211959
0.151738
0.0219415
0.0641556
0.16649
0.122815
3.69445
1.32981
3.13171
3.1543
0.0196933
1.52599
2.04344
4.58325
0.021245
0.177408
5.93857
3.88345
0.12469
0.464767
0.729096
3.72213
0.0492259
0.186481
0.0205742
0.0512801
0.0462701
0.0213208
0.0756139
2.25069
0.274013
3.07885
2.65674
0.0211605
0.0208071
0.0306526
0.0213284
0.890594
0.0205789
0.0207815
3.82706
0.207774
0.0332824
0.108506
0.0225713
0.0861893
2.19192
3.24969
2.09482
0.0262567
3.21438
0.0227797
0.0205777
0.0235459
3.28436
0.452643
0.186172
0.187425
0.0224729
0.0208345
0.0213285
0.0219271
0.0274639
2.5764
2.42265
0.0297408
3.21827
3.9059
0.176682
5.34048
0.0214391
0.0310673
0.0658553
0.021417
0.0237824
0.0276701
0.0243978
2.86196
3.27143
0.0205786
0.042787
0.0308507
0.071886
2.5624
2.3375
3.67287
0.0215726
0.0885275
3.59341
0.0875227
0.124821
0.0676403
2.77932
3.83087
3.68621
0.0205391
2.6844
0.0203978
0.0230762
0.0213467
0.0643001
3.78504
6.70468
0.390241
4.94147
0.0604416
0.0201706
0.0208007
0.0215472
0.0228222
0.047455
3.7397
3.57179
0.0825054
0.590737
0.0216622
0.0599217
0.0206525
3.32016
0.0771111
0.0214987
0.143153
0.109086
1.70606
3.76123
0.136451
3.02516
0.0251953
2.35497
0.205709
3.16648
0.309608
0.0226783
0.0593129
0.0215079
3.01023
2.43245
0.0428644
2.32521
0.195194
2.10059
0.0702687
0.144091
0.0418934
0.0208878
0.129504
0.0609893
0.0246334
0.0588306
0.0323572
0.0340143
2.07916
0.17331
0.023281
0.031427
0.038757
0.0331275
0.0227518
2.18608
0.116837
0.272703
8.92361
0.0214058
3.34774
0.0214677
0.0244378
0.023662
3.28792
0.0396192
3.34711
4.62431
0.0631958
0.0441851
0.126674
1.68595
0.143845
1.11711
0.0236936
0.0493865
0.0210813
3.38206
0.328522
0.0236134
0.0216096
0.0386598
0.0267447
0.0247245
0.0530766
0.0428483
0.0216401
0.0352026
3.44769
2.94148
0.126288
0.0443677
0.0197826
1.78573
0.0341642
0.0695754
0.812646
0.0465866
1.83771
0.0202619
0.0242198
0.0243389
0.0342876
0.0212048
3.4915
0.230929
2.38201
0.0387912
3.27362
0.233992
0.0264593
1.73527
0.0711743
0.194332
6.55898
0.0441432
0.0244431
0.0438456
0.0713068
0.0240341
0.474133
3.93282
0.353149
0.0208941
0.322557
0.33664
0.600313
0.0212648
0.0478047
0.0211071
0.0318691
2.56294
0.0304682
0.0301375
0.0208759
0.0208592
0.529677
3.21732
0.0213337
1.35116
0.183612
0.0201866
0.0270889
3.41453
0.120724
0.109672
0.0213838
0.0280012
0.104339
0.0218575
0.0210242
3.1437
0.0305331
3.45497
0.08923
0.0269731
3.78448
0.119916
0.161809
0.020921
0.387441
0.0315843
0.0274383
1.64389
0.0436079
0.0215827
0.086131
0.0249859
0.0247888
0.0201754
1.59658
0.0213702
0.0695487
2.27739
0.106478
0.0208778
0.340459
0.0323599
3.95486
0.168347
3.59879
0.111947
3.2599
0.0206841
0.0821528
0.0262037
0.0211228
0.406674
2.01741
0.0256233
0.341719
0.0260991
0.0777065
3.66366
0.0268238
0.115881
0.823188
3.01022
1.67441
0.151588
0.0243195
0.0207461
0.0730255
0.0368819
0.724992
1.79473
3.3105
2.22755
3.48921
0.0208325
1.42387
0.0214022
0.0225835
0.0215967
0.335953
0.160103
0.0843847
0.0210129
10.3503
0.0282636
3.74684
0.0210438
0.064033
0.0319089
0.0751033
0.0448671
0.110434
0.0230669
0.173811
0.122844
0.0209436
2.42457
0.252449
0.0479868
0.0226559
0.0312934
0.0215752
0.0210231
0.0695384
0.0291107
2.71047
0.190588
0.0910851
0.553217
0.0213646
1.57062
0.0695906
2.05886
0.031564
0.0320729
0.398933
0.0325615
0.32696
0.0657621
4.44638
0.0236569
0.0216739
3.12669
0.0335636
0.0240085
0.0278601
0.0311562
0.0206272
0.027118
3.42377
0.0216633
0.0448811
3.43476
0.12019
0.0768189
0.168593
0.286253
3.55979
2.42137
1.42833
0.0583739
1.35581
0.0229072
0.0254286
0.0215229
0.0209766
1.99478
0.303094
0.0329482
0.020728
0.113351
0.0905012
0.0214643
0.039073
0.0563421
0.0212209
0.0232447
1.53048
0.0274555
0.0401566
0.0388015
0.0216139
0.0865456
0.0699959
0.0307295
0.193222
0.0790403
0.554409
0.154836
3.03573
0.0234342
3.17048
0.162689
0.15793
0.0689326
1.7617
0.0800672
0.0269942
0.0534418
0.0718254
0.0238464
0.0721807
0.0210688
0.0212555
0.0200551
0.0249575
3.43785
0.0204992
0.111025
0.0245803
0.0241088
0.0245976
0.445146
0.0237139
0.0640606
0.021564
0.0247539
0.0254402
0.0208676
0.156194
0.0239668
0.020677
0.0224507
0.0294855
0.0211334
1.78193
0.0281329
2.31544
0.660822
2.22756
0.063858
0.0741593
0.326111
0.0436767
0.027429
0.0257707
1.80557
2.93674
1.21277
0.0649776
0.0334723
0.0215404
2.05698
0.0419916
3.26912
0.0217768
0.453867
0.153732
1.56561
1.21559
0.0201431
0.0214166
0.0204288
0.0303224
3.00696
0.0500185
0.478139
0.026423
0.0303569
0.0209815
0.0219264
0.0349833
0.0240383
0.0242997
0.0210936
0.209935
0.200913
3.22408
0.0243012
1.76102
0.0208427
0.020318
0.111561
0.0220323
0.0246102
0.0699548
0.024566
0.0715661
0.0214244
0.0264024
0.0215657
0.0249087
3.3446
0.0211693
0.0239487
0.0228345
0.0241705
0.703729
0.0218483
0.0535515
1.49248
0.0250717
0.0309211
0.0226322
0.0231966
0.0218603
0.133514
0.0214842
0.0268461
2.25503
0.0208171
0.0303723
0.0538592
0.0633339
2.25596
0.0201155
0.0241502
0.0224549
0.0318837
0.100316
0.876033
2.99765
0.0203031
0.0287652
0.0818238
0.0233401
2.84554
0.0199916
0.021604
0.785365
0.0435603
0.0240767
0.0200542
0.124844
0.118408
2.30828
0.0216031
0.309035
0.0200263
0.0205471
0.0238909
0.0824942
3.82798
0.0215535
0.0209016
0.317402
0.0214911
0.0235788
0.603183
3.39401
0.0214794
0.020551
0.0224442
0.0326209
0.188135
3.32699
0.0219491
0.111978
0.021543
0.0213641
2.06885
0.0232469
0.021879
0.0319466
0.193238
0.140195
0.0236947
0.0222923
2.20454
0.0436344
0.0225576
0.15805
3.13626
0.021504
0.0218081
0.0234897
0.0213602
0.0214973
0.0209423
0.0202784
0.041647
0.0233767
0.0448239
0.0513989
2.23219
0.732139
0.0321187
0.0200938
0.0213536
0.0223398
0.0234699
0.0435932
0.0300137
1.78112
0.0238931
0.0947079
0.0245097
4.27211
1.93912
0.0297488
0.0228137
0.12869
0.0242454
0.0261716
0.0213933
0.0224927
0.0211081
0.0800437
0.0423607
0.0474868
0.112615
0.0234484
0.0251589
0.0223949
3.38422
2.50039
0.324916
0.0275585
0.10446
0.0961494
3.09033
0.0220437
1.12186
0.0696936
0.0214035
0.0218605
2.22411
0.021541
0.0225717
0.0235977
1.23163
0.021513
0.0218169
0.0257429
2.25024
0.0209275
0.0540578
1.059
0.0239819
0.0215308
0.0211268
0.0214291
0.0218345
0.0217814
0.0341264
0.0226148
0.0215171
0.0217933
0.0218218
0.0296856
0.0213893
0.232584
0.0215786
0.0217703
0.0399803
0.0584352
0.0278014
2.17062
1.09831
3.44233
0.0400551
0.020894
0.0381228
2.09751
0.0202549
0.421628
0.0233119
1.02439
0.0234281
0.0466158
0.0218222
0.0213866
0.121082
0.204335
1.82922
0.26888
3.52047
0.0217927
0.0210049
2.10498
0.0202231
0.0215218
3.207
0.0210084
2.36815
0.0214512
0.180882
0.113183
0.0241667
0.594318
0.0307903
0.0815215
0.322077
0.873042
1.44748
2.44764
0.236275
2.08299
0.0215868
2.18417
0.021494
0.0213144
0.0209988
0.0219987
0.99857
0.022587
4.43862
0.0215373
0.0213733
0.0215856
0.0797238
0.0218298
0.0205557
0.0576224
0.0254435
0.0265117
0.0258409
0.0293754
0.197274
1.79743
0.120675
0.887656
0.103855
0.0225439
0.891261
0.0214499
0.0290939
0.0737238
2.81008
0.0419059
3.49471
0.0215007
0.778247
2.74861
0.154718
3.59626
0.284945
0.0239203
0.0213267
0.0242365
0.0214878
0.0213064
2.90444
2.74779
0.0210488
1.35604
0.0214176
0.113702
0.020966
0.180191
0.0266575
0.0237686
0.0206392
0.437048
1.27739
0.305446
0.0206095
0.0206787
0.0271783
0.0219577
0.02237
0.99135
0.0888855
0.0502616
1.54545
0.0431035
0.0218543
0.0317409
0.0770319
0.0219774
3.18375
0.0585588
0.42581
0.023263
0.0246658
0.0203536
0.019645
0.0213717
0.0269343
0.0207867
2.08538
0.0395235
0.0727505
0.0212776
0.0406016
0.021477
0.0714046
0.0403722
0.057445
3.07449
0.0263466
0.0213399
0.025305
0.0218851
2.27079
0.0827997
0.041313
0.0580282
3.54806
2.11972
0.114668
0.0527889
0.0214046
0.0232315
0.0235344
0.0452593
0.131297
0.0268664
0.0215905
0.420507
0.472571
0.0218406
0.0236584
0.0590178
0.02245
0.0209338
0.0392513
0.0213936
0.0219623
0.0209289
0.023907
0.0221586
0.0452582
2.04996
0.0214635
1.21618
0.103701
0.114327
0.0209222
0.0216498
0.0624218
0.0267542
0.0214336
0.0627508
0.0213545
0.0530882
0.0216307
0.0405462
1.70353
0.0569781
0.0227449
0.0616395
0.255631
1.13201
0.0214322
0.0379593
2.78511
0.0211455
0.0221303
0.0825362
7.0742
3.41111
0.0241989
0.0213564
0.0417136
0.0211807
0.022475
0.0282809
0.0218432
3.59524
0.0218638
1.02038
0.0214823
0.0214663
0.0476906
0.0213638
0.0215782
0.0282877
0.794513
0.0205635
0.0364574
0.0219448
0.0211032
0.0216682
0.0290508
0.0262176
0.0718469
0.0233538
0.021816
0.0219028
0.0411354
0.0225741
3.5464
0.022126
0.115202
0.0354324
0.0228014
0.0285003
0.975877
0.02153
0.0221682
0.020015
0.0834831
0.407423
0.0217213
0.035812
0.0209176
0.0348759
0.0214449
0.274927
1.6791
0.0237868
0.0252111
0.0274958
0.0291831
0.0223574
0.0207346
0.0512182
0.0214058
0.022058