/*--------------------------------*- C++ -*----------------------------------*\
| =========                 |                                                 |
| \\      /  F ield         | OpenFOAM: The Open Source CFD Toolbox           |
|  \\    /   O peration     | Version:  v2012                                 |
|   \\  /    A nd           | Website:  www.openfoam.com                      |
|    \\/     M anipulation  |                                                 |
\*---------------------------------------------------------------------------*/
FoamFile
{
    version     2.0;
    format      ascii;
    class       pointVectorField;
    location    "200";
    object      pointDisplacement;
}
// * * * * * * * * * * * * * * * * * * * * * * * * * * * * * * * * * * * * * //

dimensions      [0 1 0 0 0 0 0];


internalField   nonuniform List<vector> 
14332
(
(0 0 0)
(-0 -1.46928e-05 -0)
(0 0 0)
(-0 -1.46928e-05 -0)
(0 0 0)
(0 0 0)
(0 0 0)
(0 0 0)
(0 0 0)
(0 0 0)
(0 0 0)
(0 0 0)
(0 0 0)
(0 0 0)
(0 0 0)
(0 0 0)
(0 0 0)
(0 0 0)
(0 0 0)
(0 0 0)
(0 0 0)
(0 0 0)
(0 0 0)
(0 0 0)
(0 0 0)
(0 0 0)
(0 0 0)
(0 0 0)
(0 0 0)
(0 0 0)
(0 0 0)
(0 0 0)
(0 0 0)
(0 0 0)
(0 0 0)
(0 0 0)
(0 0 0)
(0 0 0)
(0 0 0)
(0 0 0)
(0 0 0)
(0 0 0)
(0 0 0)
(0 0 0)
(0 0 0)
(0 0 0)
(0 0 0)
(0 0 0)
(0 0 0)
(0 0 0)
(0 0 0)
(0 0 0)
(0 0 0)
(0 0 0)
(0 0 0)
(0 0 0)
(0 0 0)
(0 0 0)
(0 0 0)
(0 0 0)
(0 0 0)
(0 0 0)
(0 0 0)
(0 0 0)
(0 0 0)
(0 0 0)
(0 0 0)
(0 0 0)
(0 0 0)
(0 0 0)
(0 0 0)
(0 0 0)
(0 0 0)
(0 0 0)
(0 0 0)
(0 0 0)
(0 0 0)
(0 0 0)
(0 0 0)
(0 0 0)
(0 0 0)
(0 0 0)
(0 0 0)
(0 0 0)
(0 0 0)
(0 0 0)
(0 0 0)
(0 0 0)
(0 0 0)
(0 0 0)
(0 0 0)
(0 0 0)
(0 0 0)
(0 0 0)
(0 0 0)
(0 0 0)
(0 0 0)
(0 0 0)
(0 0 0)
(0 0 0)
(0 0 0)
(0 0 0)
(0 0 0)
(0 0 0)
(0 0 0)
(0 0 0)
(0 0 0)
(0 0 0)
(0 0 0)
(0 0 0)
(0 0 0)
(0 0 0)
(0 0 0)
(0 0 0)
(0 0 0)
(0 0 0)
(0 0 0)
(0 0 0)
(0 0 0)
(0 0 0)
(0 0 0)
(0 0 0)
(0 0 0)
(0 0 0)
(0 0 0)
(0 0 0)
(0 0 0)
(0 0 0)
(0 0 0)
(0 0 0)
(0 0 0)
(0 0 0)
(0 0 0)
(0 0 0)
(-0 -1.46928e-05 -0)
(-0 -1.46928e-05 -0)
(-0 -1.46928e-05 -0)
(-0 -1.46928e-05 -0)
(-0 -1.46928e-05 -0)
(-0 -1.46928e-05 -0)
(-0 -1.46928e-05 -0)
(-0 -1.46928e-05 -0)
(-0 -1.46928e-05 -0)
(-0 -1.46928e-05 -0)
(-0 -1.46928e-05 -0)
(-0 -1.46928e-05 -0)
(-0 -1.46928e-05 -0)
(-0 -1.46928e-05 -0)
(-0 -1.46928e-05 -0)
(-0 -1.46928e-05 -0)
(-0 -1.46928e-05 -0)
(-0 -1.46928e-05 -0)
(-0 -1.46928e-05 -0)
(-0 -1.46928e-05 -0)
(-0 -1.46928e-05 -0)
(-0 -1.46928e-05 -0)
(-0 -1.46928e-05 -0)
(-0 -1.46928e-05 -0)
(-0 -1.46928e-05 -0)
(-0 -1.46928e-05 -0)
(-0 -1.46928e-05 -0)
(-0 -1.46928e-05 -0)
(-0 -1.46928e-05 -0)
(-0 -1.46928e-05 -0)
(-0 -1.46928e-05 -0)
(-0 -1.46928e-05 -0)
(-0 -1.46928e-05 -0)
(-0 -1.46928e-05 -0)
(-0 -1.46928e-05 -0)
(-0 -1.46928e-05 -0)
(-0 -1.46928e-05 -0)
(-0 -1.46928e-05 -0)
(-0 -1.46928e-05 -0)
(-0 -1.46928e-05 -0)
(-0 -1.46928e-05 -0)
(-0 -1.46928e-05 -0)
(-0 -1.46928e-05 -0)
(-0 -1.46928e-05 -0)
(-0 -1.46928e-05 -0)
(0 0 0)
(0 0 0)
(0 0 0)
(0 0 0)
(0 0 0)
(0 0 0)
(0 0 0)
(0 0 0)
(0 0 0)
(0 0 0)
(0 0 0)
(0 0 0)
(0 0 0)
(0 0 0)
(0 0 0)
(0 0 0)
(0 0 0)
(0 0 0)
(0 0 0)
(0 0 0)
(0 0 0)
(0 0 0)
(0 0 0)
(0 0 0)
(0 0 0)
(0 0 0)
(0 0 0)
(0 0 0)
(0 0 0)
(0 0 0)
(0 0 0)
(0 0 0)
(0 0 0)
(0 0 0)
(0 0 0)
(0 0 0)
(0 0 0)
(0 0 0)
(0 0 0)
(0 0 0)
(0 0 0)
(0 0 0)
(0 0 0)
(0 0 0)
(0 0 0)
(0 0 0)
(0 0 0)
(0 0 0)
(0 0 0)
(0 0 0)
(0 0 0)
(0 0 0)
(0 0 0)
(0 0 0)
(0 0 0)
(0 0 0)
(0 0 0)
(0 0 0)
(0 0 0)
(0 0 0)
(0 0 0)
(0 0 0)
(0 0 0)
(0 0 0)
(0 0 0)
(0 0 0)
(0 0 0)
(0 0 0)
(0 0 0)
(0 0 0)
(0 0 0)
(0 0 0)
(0 0 0)
(0 0 0)
(0 0 0)
(0 0 0)
(0 0 0)
(0 0 0)
(0 0 0)
(0 0 0)
(0 0 0)
(0 0 0)
(0 0 0)
(0 0 0)
(0 0 0)
(0 0 0)
(0 0 0)
(0 0 0)
(0 0 0)
(0 0 0)
(0 0 0)
(0 0 0)
(0 0 0)
(0 0 0)
(0 0 0)
(0 0 0)
(0 0 0)
(0 0 0)
(0 0 0)
(0 0 0)
(0 0 0)
(0 0 0)
(0 0 0)
(0 0 0)
(0 0 0)
(0 0 0)
(0 0 0)
(0 0 0)
(0 0 0)
(0 0 0)
(0 0 0)
(0 0 0)
(0 0 0)
(0 0 0)
(0 0 0)
(0 0 0)
(0 0 0)
(0 0 0)
(0 0 0)
(0 0 0)
(0 0 0)
(0 0 0)
(0 0 0)
(0 0 0)
(0 0 0)
(0 0 0)
(0 0 0)
(0 0 0)
(0 0 0)
(0 0 0)
(-0 -1.46928e-05 -0)
(-0 -1.46928e-05 -0)
(-0 -1.46928e-05 -0)
(-0 -1.46928e-05 -0)
(-0 -1.46928e-05 -0)
(-0 -1.46928e-05 -0)
(-0 -1.46928e-05 -0)
(-0 -1.46928e-05 -0)
(-0 -1.46928e-05 -0)
(-0 -1.46928e-05 -0)
(-0 -1.46928e-05 -0)
(-0 -1.46928e-05 -0)
(-0 -1.46928e-05 -0)
(-0 -1.46928e-05 -0)
(-0 -1.46928e-05 -0)
(-0 -1.46928e-05 -0)
(-0 -1.46928e-05 -0)
(-0 -1.46928e-05 -0)
(-0 -1.46928e-05 -0)
(-0 -1.46928e-05 -0)
(-0 -1.46928e-05 -0)
(-0 -1.46928e-05 -0)
(-0 -1.46928e-05 -0)
(-0 -1.46928e-05 -0)
(-0 -1.46928e-05 -0)
(-0 -1.46928e-05 -0)
(-0 -1.46928e-05 -0)
(-0 -1.46928e-05 -0)
(-0 -1.46928e-05 -0)
(-0 -1.46928e-05 -0)
(-0 -1.46928e-05 -0)
(-0 -1.46928e-05 -0)
(-0 -1.46928e-05 -0)
(-0 -1.46928e-05 -0)
(-0 -1.46928e-05 -0)
(-0 -1.46928e-05 -0)
(-0 -1.46928e-05 -0)
(-0 -1.46928e-05 -0)
(-0 -1.46928e-05 -0)
(-0 -1.46928e-05 -0)
(-0 -1.46928e-05 -0)
(-0 -1.46928e-05 -0)
(-0 -1.46928e-05 -0)
(-0 -1.46928e-05 -0)
(-0 -1.46928e-05 -0)
(0 -1.47071e-05 0)
(0 1.1355e-05 0)
(0 -1.47121e-05 0)
(0 -1.4694e-05 0)
(0 -1.47129e-05 0)
(0 -1.11972e-05 0)
(0 -1.46923e-05 0)
(0 2.26778e-05 0)
(0 3.99853e-05 0)
(0 4.98617e-05 0)
(0 -2.87926e-05 0)
(0 4.22921e-05 0)
(0 3.20386e-05 0)
(0 -1.46942e-05 0)
(0 -4.08628e-05 0)
(0 5.66413e-05 0)
(0 -7.21319e-05 0)
(0 3.52402e-05 0)
(0 -8.30952e-05 0)
(0 -1.46996e-05 0)
(0 4.9215e-05 0)
(0 3.77092e-05 0)
(0 3.19322e-05 0)
(0 2.69585e-05 0)
(0 2.49784e-05 0)
(0 1.23902e-05 0)
(0 3.89813e-05 0)
(0 -1.47255e-05 0)
(0 -1.47592e-05 0)
(0 -1.47007e-05 0)
(0 1.94844e-05 0)
(0 1.48882e-05 0)
(0 -3.62616e-05 0)
(0 -1.65962e-05 0)
(0 -5.42091e-05 0)
(0 -8.50332e-05 0)
(0 3.34593e-06 0)
(0 3.13556e-05 0)
(0 3.38805e-05 0)
(0 4.27939e-05 0)
(0 4.64184e-05 0)
(0 4.9259e-05 0)
(0 4.25827e-05 0)
(0 1.54196e-05 0)
(0 -1.46939e-05 0)
(0 -1.46971e-05 0)
(0 8.40816e-06 0)
(0 8.46063e-06 0)
(0 -0.000102619 0)
(0 -1.50973e-05 0)
(0 9.60517e-06 0)
(0 1.34169e-05 0)
(0 1.39081e-05 0)
(0 3.16458e-05 0)
(0 3.83161e-05 0)
(0 4.86986e-05 0)
(0 3.9333e-05 0)
(0 2.3594e-05 0)
(0 3.78796e-05 0)
(0 4.47951e-05 0)
(0 2.95026e-05 0)
(0 2.53133e-05 0)
(0 2.14304e-05 0)
(0 3.03867e-05 0)
(0 4.19324e-06 0)
(0 0.000135532 0)
(0 0.0001451 0)
(0 0.000131645 0)
(0 0.000140091 0)
(0 0.000127174 0)
(0 0.000134989 0)
(0 0.000122643 0)
(0 0.000129867 0)
(0 0.000117718 0)
(0 0.000124576 0)
(0 0.00011248 0)
(0 0.000119155 0)
(0 0.000107421 0)
(0 0.000113932 0)
(0 0.000102461 0)
(0 0.000108686 0)
(0 9.73757e-05 0)
(0 0.000103187 0)
(0 9.22298e-05 0)
(0 9.82778e-05 0)
(0 8.69334e-05 0)
(0 9.36296e-05 0)
(0 8.11383e-05 0)
(0 8.76103e-05 0)
(0 7.48729e-05 0)
(0 8.06023e-05 0)
(0 6.88815e-05 0)
(0 7.37175e-05 0)
(0 6.24385e-05 0)
(0 6.65708e-05 0)
(0 5.50483e-05 0)
(0 5.9079e-05 0)
(0 4.78994e-05 0)
(0 5.20559e-05 0)
(0 4.14682e-05 0)
(0 6.37579e-05 0)
(0 5.70399e-05 0)
(0 6.94691e-05 0)
(0 0.00135311 0)
(0 0.00133912 0)
(0 6.24828e-05 0)
(0 7.60069e-05 0)
(0 0.00134573 0)
(0 0.00133159 0)
(0 6.82094e-05 0)
(0 8.29001e-05 0)
(0 0.00133622 0)
(0 0.00132134 0)
(0 0.00132469 0)
(0 0.00130829 0)
(0 7.43179e-05 0)
(0 9.01529e-05 0)
(0 0.00131013 0)
(0 0.0012928 0)
(0 8.10508e-05 0)
(0 9.79117e-05 0)
(0 0.00129333 0)
(0 0.00127533 0)
(0 0.00127414 0)
(0 8.80236e-05 0)
(0 0.000105606 0)
(0 7.2418e-05 0)
(0 0.00127441 0)
(0 0.00125594 0)
(0 9.45589e-05 0)
(0 0.000113736 0)
(0 0.00125373 0)
(0 0.00127107 0)
(0 0.00123499 0)
(0 0.000100798 0)
(0 3.77401e-05 0)
(0 3.16323e-05 0)
(0 2.85563e-05 0)
(0 2.26892e-05 0)
(0 2.01976e-05 0)
(0 1.47266e-05 0)
(0 1.24398e-05 0)
(0 7.10778e-06 0)
(0 5.39294e-06 0)
(0 6.3069e-08 0)
(0 -8.22547e-07 0)
(0 -6.01352e-06 0)
(0 -6.03017e-06 0)
(0 -1.11583e-05 0)
(0 -1.06175e-05 0)
(0 -1.58127e-05 0)
(0 -1.48504e-05 0)
(0 -2.01125e-05 0)
(0 -1.87594e-05 0)
(0 -2.41993e-05 0)
(0 -2.2556e-05 0)
(0 -2.81968e-05 0)
(0 -2.65499e-05 0)
(0 -3.21669e-05 0)
(0 -3.43495e-05 0)
(0 -3.84603e-05 0)
(0 -3.60847e-05 0)
(0 -4.22771e-05 0)
(0 -4.00542e-05 0)
(0 -4.62647e-05 0)
(0 -4.40616e-05 0)
(0 -5.03057e-05 0)
(0 -4.79734e-05 0)
(0 -5.46681e-05 0)
(0 -5.22815e-05 0)
(0 -5.95283e-05 0)
(0 -5.67424e-05 0)
(0 -6.36332e-05 0)
(0 -6.03537e-05 0)
(0 -6.73411e-05 0)
(0 -6.35484e-05 0)
(0 -7.09917e-05 0)
(0 -6.66559e-05 0)
(0 -7.44588e-05 0)
(0 -6.96015e-05 0)
(0 -7.76524e-05 0)
(0 -7.22683e-05 0)
(0 -8.06748e-05 0)
(0 -7.51662e-05 0)
(0 -8.39232e-05 0)
(0 -7.85832e-05 0)
(0 -8.75259e-05 0)
(0 -8.22775e-05 0)
(0 -9.14034e-05 0)
(0 -4.15312e-05 0)
(0 -6.74668e-05 0)
(0 -9.04889e-05 0)
(0 -1.12205e-06 0)
(0 0.0012315 0)
(0 0.00121273 0)
(0 0.000102289 0)
(0 0.000123394 0)
(0 -7.11097e-05 0)
(0 0.00120803 0)
(0 0.00118915 0)
(0 0.000112381 0)
(0 0.000135153 0)
(0 0.00118357 0)
(0 0.00116464 0)
(0 0.00117008 0)
(0 0.000123682 0)
(0 0.000148175 0)
(0 0.00115842 0)
(0 0.00113934 0)
(0 -5.56702e-05 0)
(0 0.000135291 0)
(0 0.000161301 0)
(0 0.000112349 0)
(0 -2.15469e-05 0)
(0 0.00113223 0)
(0 0.00114963 0)
(0 0.00111272 0)
(0 0.000146363 0)
(0 0.000173706 0)
(0 0.00110467 0)
(0 0.00108442 0)
(0 0.00107564 0)
(0 0.00105462 0)
(0 0.000155752 0)
(0 0.000184069 0)
(0 0.0010453 0)
(0 0.00102321 0)
(0 0.00103234 0)
(0 0.000162919 0)
(0 0.000190586 0)
(0 0.00100014 0)
(0 0.00100901 0)
(0 0.000990593 0)
(0 0.000166729 0)
(0 0.000193499 0)
(0 0.000218488 0)
(0 0.000222394 0)
(0 0.000247987 0)
(0 0.00025369 0)
(0 0.000279325 0)
(0 0.000285946 0)
(0 0.000258558 0)
(0 0.000291459 0)
(0 0.000318719 0)
(0 0.000325172 0)
(0 0.000966807 0)
(0 0.000956722 0)
(0 0.000296254 0)
(0 0.000330093 0)
(0 0.000360382 0)
(0 0.00036602 0)
(0 0.000113835 0)
(0 0.000933311 0)
(0 0.000921602 0)
(0 0.000397601 0)
(0 0.000403467 0)
(0 0.000370578 0)
(0 0.000408267 0)
(0 0.000440761 0)
(0 0.000445083 0)
(0 0.000477504 0)
(0 0.000481269 0)
(0 0.000512885 0)
(0 0.000516298 0)
(0 0.000547373 0)
(0 0.000550506 0)
(0 0.000518079 0)
(0 0.000552266 0)
(0 0.00013432 0)
(0 0.000895841 0)
(0 0.000884833 0)
(0 0.000584813 0)
(0 0.000587414 0)
(0 0.000553626 0)
(0 0.00058833 0)
(0 0.000623146 0)
(0 0.000622677 0)
(0 0.0006579 0)
(0 0.000656075 0)
(0 0.000858077 0)
(0 0.000846461 0)
(0 0.000874055 0)
(0 0.000620128 0)
(0 0.000652237 0)
(0 0.000688381 0)
(0 0.000684205 0)
(0 0.000721398 0)
(0 0.000718282 0)
(0 0.000755955 0)
(0 0.000754276 0)
(0 0.000791584 0)
(0 0.000790572 0)
(0 0.000751562 0)
(0 0.000788207 0)
(0 0.000826207 0)
(0 0.000824049 0)
(0 0.000819737 0)
(0 0.000833042 0)
(0 0.000807048 0)
(0 0.000784159 0)
(0 0.000818354 0)
(0 0.000857714 0)
(0 0.000850699 0)
(0 0.000889895 0)
(0 0.000882384 0)
(0 0.000921316 0)
(0 0.000912794 0)
(0 0.000873488 0)
(0 0.000902285 0)
(0 0.000940986 0)
(0 0.000928147 0)
(0 0.000967062 0)
(0 0.000953126 0)
(0 0.000913678 0)
(0 0.000937973 0)
(0 0.000978924 0)
(0 0.000963132 0)
(0 0.00100552 0)
(0 0.000988061 0)
(0 0.000780222 0)
(0 0.000767319 0)
(0 0.000945318 0)
(0 0.000967995 0)
(0 0.00101139 0)
(0 0.000989376 0)
(0 0.00103253 0)
(0 0.00100919 0)
(0 0.0010515 0)
(0 0.00102745 0)
(0 0.000984155 0)
(0 0.00100122 0)
(0 0.00104428 0)
(0 0.00101786 0)
(0 0.00105996 0)
(0 0.00103482 0)
(0 0.000990642 0)
(0 0.00100873 0)
(0 8.09963e-05 0)
(0 -4.37695e-06 0)
(0 -2.95975e-06 0)
(0 -3.75704e-06 0)
(0 -2.30432e-06 0)
(0 -3.06531e-06 0)
(0 -1.29241e-06 0)
(0 -2.26824e-06 0)
(0 -4.94903e-07 0)
(0 -1.53733e-06 0)
(0 3.29624e-07 0)
(0 -9.40609e-07 0)
(0 -2.74856e-06 0)
(0 -2.33383e-06 0)
(0 -4.01219e-06 0)
(0 -3.63132e-06 0)
(0 -5.25407e-06 0)
(0 -4.89274e-06 0)
(0 -6.34876e-06 0)
(0 -6.07774e-06 0)
(0 -7.33534e-06 0)
(0 -7.12312e-06 0)
(0 -8.26991e-06 0)
(0 -8.0824e-06 0)
(0 -9.13908e-06 0)
(0 -6.8719e-06 0)
(0 1.40583e-06 0)
(0 -8.91279e-06 0)
(0 -9.91326e-06 0)
(0 0.000741328 0)
(0 0.000728025 0)
(0 9.15517e-07 0)
(0 0.000542493 0)
(0 0.000962268 0)
(0 0.000981476 0)
(0 0.000140347 0)
(0 0.00107538 0)
(0 -9.65142e-06 0)
(0 -1.06066e-05 0)
(0 0.000616614 0)
(0 0.000374552 0)
(0 0.00070342 0)
(0 0.000689011 0)
(0 0.000714833 0)
(0 0.000142944 0)
(0 0.00011692 0)
(0 0.000118807 0)
(0 9.24619e-05 0)
(0 9.37378e-05 0)
(0 6.65434e-05 0)
(0 6.78988e-05 0)
(0 3.94081e-05 0)
(0 4.16781e-05 0)
(0 1.09697e-05 0)
(0 -5.77126e-06 0)
(0 -1.03181e-05 0)
(0 -1.12625e-05 0)
(0 0.000932949 0)
(0 0.000953105 0)
(0 -1.14341e-05 0)
(0 0.000791606 0)
(0 1.55152e-05 0)
(0 -1.69812e-05 0)
(0 -1.98212e-05 0)
(0 -4.83543e-05 0)
(0 -4.97987e-05 0)
(0 -7.75513e-05 0)
(0 -7.78483e-05 0)
(0 -0.000103861 0)
(0 -0.000101893 0)
(0 -0.000125685 0)
(0 -0.000121631 0)
(0 -0.000143181 0)
(0 -0.000138932 0)
(0 -0.000159237 0)
(0 -0.000156301 0)
(0 -0.000176104 0)
(0 -0.000173239 0)
(0 -0.000193351 0)
(0 -0.000188655 0)
(0 -0.000209167 0)
(0 -0.000202479 0)
(0 -0.000223036 0)
(0 -0.000215194 0)
(0 -0.000235476 0)
(0 -0.000227236 0)
(0 0.000664204 0)
(0 0.000679966 0)
(0 0.00064895 0)
(0 -0.000247023 0)
(0 -0.000238502 0)
(0 -1.10206e-05 0)
(0 -1.19497e-05 0)
(0 -9.91619e-06 0)
(0 -0.000257263 0)
(0 -0.000249676 0)
(0 0.000902315 0)
(0 0.000922695 0)
(0 0.000973181 0)
(0 0.000943248 0)
(0 -0.000267073 0)
(0 -0.000261916 0)
(0 0.000624613 0)
(0 0.000608488 0)
(0 -9.01188e-06 0)
(0 -1.18408e-05 0)
(0 -1.27013e-05 0)
(0 -0.0002786 0)
(0 -0.000275833 0)
(0 -0.000230546 0)
(0 0.000992301 0)
(0 0.000962781 0)
(0 0.000911989 0)
(0 0.000931439 0)
(0 -0.000291513 0)
(0 -0.000289325 0)
(0 -7.64109e-06 0)
(0 -0.000167168 0)
(0 0.000879537 0)
(0 0.000897983 0)
(0 -0.0003041 0)
(0 -0.000303106 0)
(0 -0.000288301 0)
(0 -0.000304782 0)
(0 -0.00031939 0)
(0 -0.000322859 0)
(0 -0.000336962 0)
(0 -0.000340211 0)
(0 -0.000352784 0)
(0 -0.000354941 0)
(0 -1.27337e-05 0)
(0 -1.35537e-05 0)
(0 -1.3385e-05 0)
(0 -1.42501e-05 0)
(0 -1.44849e-05 0)
(0 -1.51747e-05 0)
(0 -1.48759e-05 0)
(0 -1.57345e-05 0)
(0 -1.61535e-05 0)
(0 -1.66597e-05 0)
(0 -1.61233e-05 0)
(0 -1.69491e-05 0)
(0 -1.63927e-05 0)
(0 -1.70954e-05 0)
(0 -1.65533e-05 0)
(0 -1.71759e-05 0)
(0 -1.67034e-05 0)
(0 -1.72651e-05 0)
(0 -1.6852e-05 0)
(0 -1.73925e-05 0)
(0 -1.69922e-05 0)
(0 -1.75476e-05 0)
(0 -1.71875e-05 0)
(0 -1.77235e-05 0)
(0 -1.73915e-05 0)
(0 -1.78948e-05 0)
(0 -1.75528e-05 0)
(0 -1.80477e-05 0)
(0 -1.76629e-05 0)
(0 -1.81486e-05 0)
(0 -1.7733e-05 0)
(0 -1.82212e-05 0)
(0 -1.77922e-05 0)
(0 -1.83034e-05 0)
(0 -1.7843e-05 0)
(0 -1.8357e-05 0)
(0 -1.78677e-05 0)
(0 -1.83707e-05 0)
(0 -1.7875e-05 0)
(0 -1.83966e-05 0)
(0 -1.79012e-05 0)
(0 -1.84325e-05 0)
(0 -1.79401e-05 0)
(0 -1.84859e-05 0)
(0 -1.79733e-05 0)
(0 -1.85318e-05 0)
(0 -1.91153e-05 0)
(0 -1.88382e-05 0)
(0 -1.82733e-05 0)
(0 -1.77668e-05 0)
(0 -1.71905e-05 0)
(0 -1.74808e-05 0)
(0 -1.7379e-05 0)
(0 -0.000366955 0)
(0 -0.000368656 0)
(0 -0.000342299 0)
(0 -0.000125695 0)
(0 0.000585424 0)
(0 0.000569017 0)
(0 -0.00038164 0)
(0 -0.000382914 0)
(0 0.00097913 0)
(0 0.00134093 0)
(0 -0.000397184 0)
(0 -0.000396547 0)
(0 -1.7288e-05 0)
(0 0.000845007 0)
(0 0.000862996 0)
(0 0.000546729 0)
(0 0.000530187 0)
(0 0.000550326 0)
(0 -0.000193513 0)
(0 -1.61571e-05 0)
(0 -1.08461e-05 0)
(0 0.000508719 0)
(0 0.000522894 0)
(0 0.000809599 0)
(0 0.000827064 0)
(0 0.000492209 0)
(0 -0.000251553 0)
(0 0.000137037 0)
(0 0.000772743 0)
(0 0.000789328 0)
(0 0.000755449 0)
(0 0.000843149 0)
(0 0.000805111 0)
(0 0.000858217 0)
(0 0.000820227 0)
(0 0.000471456 0)
(0 0.000454921 0)
(0 0.000871996 0)
(0 0.000834544 0)
(0 0.000782162 0)
(0 0.000796206 0)
(0 2.49102e-05 0)
(0 3.31417e-06 0)
(0 3.78707e-05 0)
(0 1.74045e-05 0)
(0 4.97517e-05 0)
(0 3.0242e-05 0)
(0 5.91598e-05 0)
(0 -0.000291196 0)
(0 9.8975e-05 0)
(0 -4.23216e-05 0)
(0 4.05418e-05 0)
(0 6.68928e-05 0)
(0 0.00074317 0)
(0 0.000756735 0)
(0 0.000808882 0)
(0 0.000769328 0)
(0 -0.000363304 0)
(0 0.000434441 0)
(0 0.000417879 0)
(0 0.00071641 0)
(0 0.000728717 0)
(0 0.000881812 0)
(0 4.89734e-05 0)
(0 7.16374e-05 0)
(0 2.65518e-05 0)
(0 0.000717564 0)
(0 0.000700437 0)
(0 0.000820198 0)
(0 0.000397325 0)
(0 0.000381456 0)
(0 0.000398586 0)
(0 0.000675216 0)
(0 0.00068756 0)
(0 5.42829e-05 0)
(0 7.32845e-05 0)
(0 0.00011823 0)
(0 0.000661423 0)
(0 0.000643957 0)
(0 0.000361257 0)
(0 0.000375832 0)
(0 0.000345382 0)
(0 0.000634158 0)
(0 0.000646292 0)
(0 0.000563475 0)
(0 0.000582882 0)
(0 0.000556617 0)
(0 0.000574189 0)
(0 0.000547936 0)
(0 0.000563563 0)
(0 0.000533358 0)
(0 0.00055089 0)
(0 0.000522037 0)
(0 0.000538387 0)
(0 0.000508714 0)
(0 0.000524073 0)
(0 0.000555572 0)
(0 0.000493594 0)
(0 0.00050847 0)
(0 0.000477336 0)
(0 0.000493127 0)
(0 0.000460858 0)
(0 0.000443769 0)
(0 0.000477349 0)
(0 0.000427364 0)
(0 0.000409947 0)
(0 0.000394131 0)
(0 0.000377008 0)
(0 5.54935e-05 0)
(0 7.18867e-05 0)
(0 1.81358e-05 0)
(0 -1.69215e-05 0)
(0 -9.878e-05 0)
(0 0.000322988 0)
(0 0.000310755 0)
(0 0.000603874 0)
(0 0.000586454 0)
(0 0.000592825 0)
(0 0.000604265 0)
(0 0.000656102 0)
(0 0.000613789 0)
(0 0.00057947 0)
(0 0.000663692 0)
(0 0.000621407 0)
(0 0.000571952 0)
(0 0.000579387 0)
(0 0.000173519 0)
(0 0.000668758 0)
(0 -3.22101e-05 0)
(0 -3.39547e-05 0)
(0 -3.19084e-05 0)
(0 0.000361992 0)
(0 0.000345388 0)
(0 0.00107306 0)
(0 0.000925758 0)
(0 0.00106568 0)
(0 0.00131506 0)
(0 0.00092483 0)
(0 0.000378854 0)
(0 0.00127621 0)
(0 0.00137398 0)
(0 0.00138759 0)
(0 0.000776534 0)
(0 -0.000291276 0)
(0 5.30704e-05 0)
(0 6.73402e-05 0)
(0 9.23157e-05 0)
(0 8.75112e-05 0)
(0 0.000116036 0)
(0 0.000112187 0)
(0 0.000141708 0)
(0 0.000138495 0)
(0 0.000170043 0)
(0 0.000166358 0)
(0 0.000133582 0)
(0 0.00016132 0)
(0 0.000197866 0)
(0 0.000192062 0)
(0 4.2326e-05 0)
(0 1.01266e-05 0)
(0 6.21586e-05 0)
(0 0.000509223 0)
(0 0.000493489 0)
(0 0.00052556 0)
(0 0.000509836 0)
(0 0.000542027 0)
(0 0.000660905 0)
(0 0.000703892 0)
(0 0.000674384 0)
(0 0.00063058 0)
(0 0.00064283 0)
(0 0.000685634 0)
(0 0.000653254 0)
(0 0.00061021 0)
(0 0.000620236 0)
(0 0.00069522 0)
(0 0.000577406 0)
(0 0.000587033 0)
(0 0.000544542 0)
(0 0.000553622 0)
(0 0.000595251 0)
(0 0.000561071 0)
(0 0.000534244 0)
(0 0.000601725 0)
(0 0.000566859 0)
(0 0.000290861 0)
(0 0.000526412 0)
(0 0.00053166 0)
(0 0.000278052 0)
(0 0.000293376 0)
(0 0.00015466 0)
(0 0.000183006 0)
(0 0.000224792 0)
(0 0.000212727 0)
(0 -5.38661e-05 0)
(0 -0.000411409 0)
(0 -7.88379e-05 0)
(0 -0.000100007 0)
(0 0.00010326 0)
(0 -3.35603e-05 0)
(0 -3.16748e-05 0)
(0 0.000530464 0)
(0 0.000537137 0)
(0 0.00015451 0)
(0 0.000545937 0)
(0 0.000528859 0)
(0 -3.02648e-05 0)
(0 -3.00447e-05 0)
(0 -3.14967e-05 0)
(0 -2.97973e-05 0)
(0 -3.13204e-05 0)
(0 -2.94908e-05 0)
(0 -3.11121e-05 0)
(0 -2.91818e-05 0)
(0 -3.08634e-05 0)
(0 -2.88642e-05 0)
(0 -3.18713e-06 0)
(0 0.000257559 0)
(0 0.000242335 0)
(0 0.000331165 0)
(0 0.000315322 0)
(0 0.000198279 0)
(0 0.000225943 0)
(0 0.000272669 0)
(0 0.000256129 0)
(0 0.000303329 0)
(0 0.000287051 0)
(0 0.000332694 0)
(0 0.000315508 0)
(0 0.000273041 0)
(0 0.000298551 0)
(0 0.000340136 0)
(0 0.000320994 0)
(0 -3.04931e-05 0)
(0 -2.84513e-05 0)
(0 0.000606738 0)
(0 0.000260061 0)
(0 0.000271314 0)
(0 0.000569187 0)
(0 0.000512057 0)
(0 0.000551447 0)
(0 0.000494372 0)
(0 0.000532041 0)
(0 0.000475191 0)
(0 0.000511245 0)
(0 0.000491575 0)
(0 0.000496524 0)
(0 0.000455068 0)
(0 0.000489464 0)
(0 0.000364269 0)
(0 0.000345106 0)
(0 0.00030244 0)
(0 0.000326039 0)
(0 0.000373221 0)
(0 0.000353332 0)
(0 0.000404469 0)
(0 0.000382919 0)
(0 0.000437296 0)
(0 0.000413892 0)
(0 0.000359785 0)
(0 0.000388695 0)
(0 0.000445978 0)
(0 0.000419126 0)
(0 0.000479657 0)
(0 0.000451606 0)
(0 0.000245976 0)
(0 0.000390131 0)
(0 0.000422463 0)
(0 0.000484365 0)
(0 0.000455142 0)
(0 0.000526223 0)
(0 0.0005582 0)
(0 0.000589538 0)
(0 0.000434032 0)
(0 0.000488247 0)
(0 0.000494416 0)
(0 0.00054109 0)
(0 0.000498646 0)
(0 0.000543336 0)
(0 0.000501355 0)
(0 0.000301472 0)
(0 0.000456898 0)
(0 0.000459976 0)
(0 6.3449e-05 0)
(0 0.000286572 0)
(0 0.000299578 0)
(0 2.96626e-05 0)
(0 3.50307e-05 0)
(0 3.22684e-05 0)
(0 3.79432e-05 0)
(0 3.48092e-05 0)
(0 -2.8835e-05 0)
(0 0.000184259 0)
(0 -1.39786e-05 0)
(0 -1.36895e-05 0)
(0 -1.38452e-05 0)
(0 -1.35675e-05 0)
(0 -1.3729e-05 0)
(0 -1.34341e-05 0)
(0 -1.36145e-05 0)
(0 -1.3275e-05 0)
(0 -1.34954e-05 0)
(0 -1.30956e-05 0)
(0 -1.33478e-05 0)
(0 -1.3707e-05 0)
(0 -1.35775e-05 0)
(0 -1.38846e-05 0)
(0 -1.37687e-05 0)
(0 -1.29008e-05 0)
(0 -1.40302e-05 0)
(0 -1.39292e-05 0)
(0 -1.36288e-05 0)
(0 -1.38007e-05 0)
(0 -1.40924e-05 0)
(0 -1.39486e-05 0)
(0 -1.36444e-05 0)
(0 -1.38184e-05 0)
(0 -1.40782e-05 0)
(0 -1.39774e-05 0)
(0 -1.41992e-05 0)
(0 -1.41198e-05 0)
(0 -1.43025e-05 0)
(0 -1.42377e-05 0)
(0 -1.43875e-05 0)
(0 -1.43274e-05 0)
(0 -1.44551e-05 0)
(0 -1.4399e-05 0)
(0 -1.45104e-05 0)
(0 -1.30553e-05 0)
(0 -1.39409e-05 0)
(0 -1.44673e-05 0)
(0 -1.45699e-05 0)
(0 -1.43542e-05 0)
(0 -1.4025e-05 0)
(0 -1.34797e-05 0)
(0 -3.00638e-05 0)
(0 -2.79178e-05 0)
(0 0.000515053 0)
(0 0.000393071 0)
(0 0.000489425 0)
(0 0.000456722 0)
(0 0.000461379 0)
(0 0.000500179 0)
(0 0.000464525 0)
(0 8.95366e-05 0)
(0 4.08387e-05 0)
(0 0.000229746 0)
(0 0.000215635 0)
(0 0.000282535 0)
(0 -2.75292e-05 0)
(0 -3.29372e-05 0)
(0 -2.95589e-05 0)
(0 -2.73209e-05 0)
(0 0.000272567 0)
(0 0.000287222 0)
(0 0.000543732 0)
(0 4.42547e-05 0)
(0 0.000502275 0)
(0 0.00046621 0)
(0 0.000428671 0)
(0 0.000430171 0)
(0 -1.45456e-05 0)
(0 -1.4652e-05 0)
(0 -2.89704e-05 0)
(0 -2.6723e-05 0)
(0 -2.83716e-05 0)
(0 -2.61741e-05 0)
(0 0.000271831 0)
(0 0.000283128 0)
(0 0.000490416 0)
(0 0.000415643 0)
(0 0.000418642 0)
(0 0.000426121 0)
(0 0.000363869 0)
(0 0.000542001 0)
(0 0.000573634 0)
(0 0.000589761 0)
(0 0.000605904 0)
(0 0.000620825 0)
(0 0.000639109 0)
(0 0.000653247 0)
(0 0.000673763 0)
(0 0.000687131 0)
(0 0.000707823 0)
(0 0.000720965 0)
(0 0.000739837 0)
(0 0.000753673 0)
(0 0.000771406 0)
(0 0.000785922 0)
(0 0.000803115 0)
(0 0.000818103 0)
(0 0.000835047 0)
(0 0.000510782 0)
(0 0.000850347 0)
(0 0.000867161 0)
(0 0.000786017 0)
(0 0.000881886 0)
(0 0.000898497 0)
(0 0.000883445 0)
(0 0.00091411 0)
(0 0.000928196 0)
(0 0.000943804 0)
(0 0.000733387 0)
(0 0.000696749 0)
(0 0.000957266 0)
(0 0.000973249 0)
(0 0.000957953 0)
(0 0.000986674 0)
(0 0.00100297 0)
(0 0.00101537 0)
(0 0.0010334 0)
(0 0.00104504 0)
(0 0.0010638 0)
(0 0.00107531 0)
(0 0.00109317 0)
(0 0.00110495 0)
(0 0.00108394 0)
(0 0.00111458 0)
(0 0.00113443 0)
(0 0.0011454 0)
(0 0.00112383 0)
(0 0.00115498 0)
(0 0.000996469 0)
(0 0.00117524 0)
(0 0.00118472 0)
(0 0.00116357 0)
(0 0.00119254 0)
(0 0.00121277 0)
(0 0.00121956 0)
(0 0.00123792 0)
(0 0.00124365 0)
(0 0.00126054 0)
(0 0.00126524 0)
(0 0.00128098 0)
(0 0.00128446 0)
(0 0.00129915 0)
(0 0.00130049 0)
(0 0.000506654 0)
(0 0.000172232 0)
(0 0.000451754 0)
(0 2.93766e-05 0)
(0 3.15947e-05 0)
(0 0.000392857 0)
(0 0.000394418 0)
(0 -2.77737e-05 0)
(0 -2.56348e-05 0)
(0 4.73124e-05 0)
(0 0.00109836 0)
(0 0.00111238 0)
(0 0.00113389 0)
(0 0.0011466 0)
(0 0.00116733 0)
(0 0.00117894 0)
(0 -2.64512e-05 0)
(0 0.000501595 0)
(0 0.000490647 0)
(0 0.000457934 0)
(0 0.000446384 0)
(0 0.000479999 0)
(0 0.000438107 0)
(0 0.000428477 0)
(0 0.001224 0)
(0 0.000441121 0)
(0 0.000200066 0)
(0 0.000186929 0)
(0 0.000199409 0)
(0 0.000350434 0)
(0 -1.46634e-05 0)
(0 -1.47441e-05 0)
(0 -1.47681e-05 0)
(0 -1.4839e-05 0)
(0 -1.48036e-05 0)
(0 -1.48858e-05 0)
(0 -1.48385e-05 0)
(0 -1.49117e-05 0)
(0 -1.48598e-05 0)
(0 -1.49272e-05 0)
(0 -1.48712e-05 0)
(0 -1.49376e-05 0)
(0 -1.48782e-05 0)
(0 -1.49448e-05 0)
(0 -1.48817e-05 0)
(0 -1.49471e-05 0)
(0 -1.50265e-05 0)
(0 -1.50255e-05 0)
(0 -1.49431e-05 0)
(0 -1.50158e-05 0)
(0 -1.49345e-05 0)
(0 -1.50003e-05 0)
(0 -1.49226e-05 0)
(0 -1.49826e-05 0)
(0 -1.49108e-05 0)
(0 -1.49653e-05 0)
(0 -1.49007e-05 0)
(0 -1.49543e-05 0)
(0 -1.48952e-05 0)
(0 -1.49503e-05 0)
(0 -1.48925e-05 0)
(0 -1.49481e-05 0)
(0 -1.48884e-05 0)
(0 -1.49437e-05 0)
(0 -1.48829e-05 0)
(0 -1.49367e-05 0)
(0 -1.48757e-05 0)
(0 -1.49299e-05 0)
(0 -1.50021e-05 0)
(0 -1.49984e-05 0)
(0 -1.49232e-05 0)
(0 -1.49939e-05 0)
(0 -1.49177e-05 0)
(0 -1.49923e-05 0)
(0 -1.4913e-05 0)
(0 -1.49847e-05 0)
(0 -1.50854e-05 0)
(0 -1.50191e-05 0)
(0 -1.5046e-05 0)
(0 -1.51249e-05 0)
(0 -1.49272e-05 0)
(0 0.000468961 0)
(0 2.64586e-05 0)
(0 2.83126e-05 0)
(0 3.41212e-05 0)
(0 3.04596e-05 0)
(0 2.48933e-05 0)
(0 2.68697e-05 0)
(0 2.1512e-05 0)
(0 2.34066e-05 0)
(0 1.82343e-05 0)
(0 2.0057e-05 0)
(0 1.51056e-05 0)
(0 1.68876e-05 0)
(0 1.22627e-05 0)
(0 1.38821e-05 0)
(0 1.89487e-05 0)
(0 1.57142e-05 0)
(0 1.09925e-05 0)
(0 1.26738e-05 0)
(0 8.24093e-06 0)
(0 9.93239e-06 0)
(0 5.68621e-06 0)
(0 7.39453e-06 0)
(0 3.21805e-06 0)
(0 1.19501e-05 0)
(0 2.91346e-05 0)
(0 2.10635e-05 0)
(0 4.75573e-06 0)
(0 7.74309e-07 0)
(0 0.00128434 0)
(0 0.00129805 0)
(0 0.00131452 0)
(0 0.00131037 0)
(0 0.000313085 0)
(0 2.02998e-06 0)
(0 -1.7407e-06 0)
(0 0.00050292 0)
(0 0.000285682 0)
(0 -1.436e-05 0)
(0 -3.59212e-05 0)
(0 0.000256207 0)
(0 6.49084e-05 0)
(0 0.000258515 0)
(0 0.000272731 0)
(0 0.000526672 0)
(0 0.000495732 0)
(0 -1.48474e-05 0)
(0 0.000458058 0)
(0 0.000395232 0)
(0 5.14101e-05 0)
(0 0.000374529 0)
(0 0.000377872 0)
(0 0.000420091 0)
(0 0.000380279 0)
(0 -2.47003e-05 0)
(0 -1.48646e-05 0)
(0 5.46868e-05 0)
(0 0.0013265 0)
(0 0.00132078 0)
(0 0.00041505 0)
(0 0.000431731 0)
(0 0.000333192 0)
(0 0.000301268 0)
(0 0.000338249 0)
(0 0.000341326 0)
(0 0.000381797 0)
(0 0.000343519 0)
(0 0.000171482 0)
(0 0.000182934 0)
(0 -7.13186e-07 0)
(0 -4.35337e-06 0)
(0 3.35055e-06 0)
(0 -5.02748e-06 0)
(0 -7.58098e-06 0)
(0 -6.92952e-06 0)
(0 -1.00006e-05 0)
(0 -1.48317e-05 0)
(0 0.00138132 0)
(0 0.000413525 0)
(0 0.000401448 0)
(0 0.000386938 0)
(0 0.000375874 0)
(0 9.5546e-05 0)
(0 0.00115909 0)
(0 0.00119078 0)
(0 0.00117162 0)
(0 0.00120294 0)
(0 0.00118409 0)
(0 0.00121525 0)
(0 0.00119643 0)
(0 0.00122747 0)
(0 0.00120803 0)
(0 0.00123853 0)
(0 0.00121841 0)
(0 0.00124786 0)
(0 0.00122679 0)
(0 0.00126653 0)
(0 0.0012745 0)
(0 0.00129183 0)
(0 0.00129831 0)
(0 0.00131395 0)
(0 0.00130658 0)
(0 0.00132735 0)
(0 0.00133281 0)
(0 0.00110617 0)
(0 0.00107726 0)
(0 0.00108687 0)
(0 0.00105349 0)
(0 0.00106558 0)
(0 0.00103351 0)
(0 0.00104355 0)
(0 0.00101059 0)
(0 0.00101915 0)
(0 0.000984891 0)
(0 0.000991905 0)
(0 0.000357343 0)
(0 0.000358989 0)
(0 0.000354508 0)
(0 0.000394658 0)
(0 0.000359272 0)
(0 0.000158429 0)
(0 5.59361e-05 0)
(0 -2.7057e-05 0)
(0 -2.48134e-05 0)
(0 4.48031e-06 0)
(0 0.000304341 0)
(0 0.00027741 0)
(0 0.000333032 0)
(0 0.00133615 0)
(0 -3.06658e-05 0)
(0 0.00134498 0)
(0 -1.03528e-05 0)
(0 -3.23045e-05 0)
(0 0.000511421 0)
(0 0.000479414 0)
(0 0.000362071 0)
(0 0.00042088 0)
(0 0.000832348 0)
(0 -1.48051e-05 0)
(0 0.000433753 0)
(0 0.000388244 0)
(0 0.000420054 0)
(0 0.000374095 0)
(0 0.000405859 0)
(0 0.000378471 0)
(0 0.000394116 0)
(0 0.000365646 0)
(0 0.00134877 0)
(0 0.000323943 0)
(0 0.000324255 0)
(0 0.000358205 0)
(0 0.000323058 0)
(0 0.0011344 0)
(0 -9.21328e-06 0)
(0 0.00132867 0)
(0 0.00134208 0)
(0 0.00128007 0)
(0 0.00119683 0)
(0 0.00120422 0)
(0 0.000956117 0)
(0 0.000961977 0)
(0 0.00117371 0)
(0 0.00118016 0)
(0 0.00120975 0)
(0 0.00118534 0)
(0 0.00121365 0)
(0 0.00118939 0)
(0 0.00116001 0)
(0 0.00116407 0)
(0 0.00119184 0)
(0 0.00116624 0)
(0 0.00113808 0)
(0 0.00113997 0)
(0 0.00111076 0)
(0 0.00111214 0)
(0 0.00119209 0)
(0 0.00030338 0)
(0 0.000306439 0)
(0 0.000545023 0)
(0 0.000145324 0)
(0 0.00125311 0)
(0 0.000301415 0)
(0 -1.48299e-05 0)
(0 0.00104859 0)
(0 0.000522508 0)
(0 0.000328161 0)
(0 0.000323646 0)
(0 0.000244772 0)
(0 0.000232127 0)
(0 0.00025807 0)
(0 0.00133621 0)
(0 -2.57876e-05 0)
(0 0.000133145 0)
(0 -1.26022e-05 0)
(0 -1.27094e-05 0)
(0 1.3771e-05 0)
(0 5.9563e-05 0)
(0 6.29995e-05 0)
(0 0.00102563 0)
(0 0.000908294 0)
(0 0.000710922 0)
(0 0.000713612 0)
(0 0.000755887 0)
(0 0.000756075 0)
(0 0.000798508 0)
(0 0.000796133 0)
(0 0.000838428 0)
(0 0.000833691 0)
(0 0.000875816 0)
(0 0.000791478 0)
(0 0.000271802 0)
(0 0.00038212 0)
(0 0.000368268 0)
(0 0.00108127 0)
(0 0.00108231 0)
(0 0.00028947 0)
(0 0.000288387 0)
(0 0.000924011 0)
(0 0.000929506 0)
(0 -1.3059e-05 0)
(0 0.00021953 0)
(0 0.00020837 0)
(0 0.000849805 0)
(0 0.000829024 0)
(0 0.00135938 0)
(0 0.000335111 0)
(0 0.000322593 0)
(0 0.000494901 0)
(0 0.000526962 0)
(0 0.000460714 0)
(0 0.000445202 0)
(0 0.00136153 0)
(0 0.00135005 0)
(0 0.000917513 0)
(0 0.000266846 0)
(0 0.000270727 0)
(0 0.000265663 0)
(0 0.000239761 0)
(0 0.000340975 0)
(0 0.000355947 0)
(0 0.0011112 0)
(0 0.00108158 0)
(0 0.000292299 0)
(0 0.000869009 0)
(0 0.000891734 0)
(0 0.000895957 0)
(0 0.000859345 0)
(0 0.000861745 0)
(0 0.000353664 0)
(0 0.00105349 0)
(0 0.00135497 0)
(0 -1.41171e-05 0)
(0 0.000269368 0)
(0 0.000293508 0)
(0 0.000910705 0)
(0 0.000448133 0)
(0 0.000355688 0)
(0 0.00122096 0)
(0 0.000121688 0)
(0 -0.000225289 0)
(0 -0.000234749 0)
(0 -0.000217412 0)
(0 -0.000226976 0)
(0 -0.000209256 0)
(0 -0.000218818 0)
(0 -0.000200512 0)
(0 -0.000209278 0)
(0 -0.000190844 0)
(0 -0.00019859 0)
(0 -0.000180465 0)
(0 -0.000187216 0)
(0 -0.000169641 0)
(0 -0.000175699 0)
(0 -0.000159118 0)
(0 -0.000164924 0)
(0 -0.000180962 0)
(0 -0.00017078 0)
(0 -0.000154881 0)
(0 -0.000161172 0)
(0 -0.00014572 0)
(0 -0.000151875 0)
(0 -0.000137733 0)
(0 -0.000143634 0)
(0 -0.000130178 0)
(0 -0.000135731 0)
(0 -0.000122334 0)
(0 -0.000127488 0)
(0 -0.000114246 0)
(0 -0.000118746 0)
(0 -0.000105645 0)
(0 -0.000109304 0)
(0 -0.00012188 0)
(0 -0.000111271 0)
(0 -9.87684e-05 0)
(0 -9.9864e-05 0)
(0 -8.72316e-05 0)
(0 -8.69792e-05 0)
(0 -7.39584e-05 0)
(0 -7.22459e-05 0)
(0 -0.000179134 0)
(0 -0.000149069 0)
(0 -0.000227508 0)
(0 -0.000122666 0)
(0 -5.87041e-05 0)
(0 -5.581e-05 0)
(0 -7.04404e-05 0)
(0 -5.34869e-05 0)
(0 -6.97015e-05 0)
(0 -5.26317e-05 0)
(0 -7.44715e-05 0)
(0 -4.1754e-05 0)
(0 -0.000129852 0)
(0 -0.000199401 0)
(0 -7.0224e-05 0)
(0 -5.2655e-05 0)
(0 -3.42371e-05 0)
(0 -3.29075e-05 0)
(0 -0.00010965 0)
(0 -0.000163726 0)
(0 -1.42033e-05 0)
(0 -1.13704e-05 0)
(0 -8.57831e-05 0)
(0 -8.69925e-05 0)
(0 -0.000100556 0)
(0 0.000111006 0)
(0 0.000121467 0)
(0 0.000363111 0)
(0 0.000309057 0)
(0 0.000349325 0)
(0 0.000295282 0)
(0 -1.47814e-05 0)
(0 -1.46709e-05 0)
(0 -1.24983e-05 0)
(0 0.00038 0)
(0 0.000255235 0)
(0 0.000254596 0)
(0 0.00100101 0)
(0 0.00134842 0)
(0 0.00135305 0)
(0 0.000425265 0)
(0 0.000409175 0)
(0 0.0003342 0)
(0 0.000345721 0)
(0 0.000634409 0)
(0 0.000248044 0)
(0 0.000223412 0)
(0 0.000216 0)
(0 0.000392427 0)