/*--------------------------------*- C++ -*----------------------------------*\
| =========                 |                                                 |
| \\      /  F ield         | OpenFOAM: The Open Source CFD Toolbox           |
|  \\    /   O peration     | Version:  v2012                                 |
|   \\  /    A nd           | Website:  www.openfoam.com                      |
|    \\/     M anipulation  |                                                 |
\*---------------------------------------------------------------------------*/
FoamFile
{
    version     2.0;
    format      ascii;
    class       surfaceScalarField;
    location    "400";
    object      phi;
}
// * * * * * * * * * * * * * * * * * * * * * * * * * * * * * * * * * * * * * //

dimensions      [0 3 -1 0 0 0 0];
oriented        oriented;


internalField   nonuniform List<scalar> 
20642
(
-0.01999
0.0246129
-0.00462289
0.299981
-0.0735066
-0.226477
-0.111111
0.0964211
0.0146895
-0.352314
0.139536
0.21277
0.375991
0.0316086
-0.407609
-0.0324332
0.332411
-0.225655
0.0241371
0.201515
0.00422899
0.212069
-0.2163
-0.246302
0.224239
0.0220609
0.00378475
0.00234701
-0.234248
0.238475
0.230821
0.133019
-0.363856
0.598169
-0.598317
0.211616
0.0124357
-0.224052
0.301206
0.0360437
-0.337257
-0.0240802
0.00409028
0.584832
-0.590035
0.00517616
0.0474456
-0.262347
0.2149
-0.0324082
-0.0815225
0.113931
-0.0031293
0.0262033
-0.023074
-0.0833507
-0.18988
0.273229
0.633825
-0.373947
-0.259898
0.202717
-0.146096
-0.0566208
0.344075
0.289729
-0.0511924
-0.18705
0.238238
0.0673786
-0.261909
0.194528
0.0201756
-0.193457
0.173281
0.00378475
0.0939653
-0.280943
0.186974
-0.684107
0.397828
0.286277
0.00208159
0.00170316
0.0235453
-0.107633
0.0840871
0.0430053
0.255372
-0.298387
-0.000793663
0.0285398
-0.0277462
-0.66207
0.483348
0.1787
0.358368
-0.1463
0.267219
-0.362729
0.0955025
0.618224
-0.10048
-0.517832
-0.024376
-0.201281
0.231386
-0.00407981
-0.227308
-0.770756
0.603166
0.167572
0.413478
0.133211
-0.546702
-0.138478
0.252639
-0.114166
0.128147
-0.111546
-0.016601
0.0153256
0.112821
0.175284
-0.0781518
-0.0971325
0.224991
-0.308345
0.00647609
-0.036105
0.0296289
0.254314
-0.227384
-0.0269307
-0.407859
-0.25423
0.348578
-0.117774
-0.152613
0.0476789
0.104934
0.0142223
-0.000522415
-0.0136999
-0.312163
-0.0901845
0.402328
0.0124799
0.362463
-0.374962
-0.0829051
-0.0697081
0.00208159
0.167441
0.0352748
-0.148948
0.562411
0.0565309
0.118753
-0.030398
0.0526227
-0.0222248
0.557573
-0.51481
-0.0427723
0.472549
-0.615643
0.143092
-0.263043
0.211845
-0.0687785
0.0635787
0.00519975
0.128997
0.453771
-0.582769
-0.277944
0.0811025
0.19684
0.173189
0.185177
-0.186804
-0.0021716
0.018784
-0.0166124
-0.109468
0.0714889
0.0379792
0.0190959
-0.0198896
-0.256005
-0.145116
0.401101
0.391647
-0.540613
0.0779114
-0.267793
-0.0529599
-0.181969
0.234923
0.421536
-0.1067
-0.314848
-0.158215
0.549847
-0.259989
0.207023
0.234769
-0.19177
-0.3784
0.441168
-0.0627842
-0.605567
0.577825
0.027705
-0.420999
0.164972
0.0162658
0.0657826
-0.0820484
-0.229959
-0.301561
0.531435
-0.0127662
-0.202192
0.214957
-0.0950545
0.1186
-0.638964
0.604498
0.03436
-0.0277763
0.25916
0.482805
0.102004
-0.581083
0.406577
0.174482
0.115125
0.2449
0.00941277
-0.615962
0.204222
0.411715
-0.412221
0.286618
0.125589
-0.183981
-0.00261293
-0.201328
0.20394
0.588619
-0.588762
9.19484e-05
-0.138342
-0.500707
-0.162689
-0.0960351
0.258723
0.527826
-0.532833
0.00499741
0.543711
-0.0158917
0.000810649
-0.379224
0.518691
-0.592367
0.0736285
-0.00553888
0.427063
-0.0787288
0.0762847
0.00244401
0.0374053
-0.0483797
0.0109744
0.427337
0.130224
0.541452
-0.408251
0.164227
-0.144052
0.533418
0.0717867
-0.00383656
0.0323764
-0.107597
-0.173349
-0.0577181
-0.0110604
0.38748
-0.181226
-0.206259
0.0999892
-0.132398
0.41998
0.161608
-0.581607
0.110962
-0.0918071
-0.0191547
-0.468853
0.276801
0.19203
-0.0949078
-0.510695
0.164618
-0.576899
0.412262
0.260977
-0.179876
-0.132448
0.139802
-0.00735454
-0.0168131
-0.00141332
0.0182264
0.0500762
-0.0338104
0.0753994
-0.269898
0.194493
0.259083
-0.181174
-0.424698
0.55307
-0.1284
-0.0996331
-0.0328148
-0.0569735
0.158545
-0.101572
0.190354
-0.0540971
-0.136257
-0.00886821
-0.0315425
0.0404107
0.169202
0.218272
-0.0698563
0.125248
-0.0553918
0.0169295
0.147298
0.0199821
-0.0520068
0.0320247
0.0163098
-0.0154541
-0.000855713
0.0522005
-0.247438
0.195235
0.618133
0.290464
0.00621616
-0.296682
-0.55958
0.401348
-0.0637829
-0.0149458
-0.541521
0.257285
0.284206
-0.150754
-0.234895
0.385627
-0.392856
0.586953
-0.194108
-0.0569042
-0.0525639
-0.170365
0.0382461
-0.0281073
-0.0101388
-0.459016
0.146832
-0.197515
-0.0296591
0.227172
0.569903
-0.697538
0.127626
0.249523
-0.400299
-0.164365
0.161751
-0.134621
-0.334418
0.469022
0.541838
-0.0231905
0.0278895
-0.0364397
0.00855025
-0.614272
0.606905
0.00734863
0.569508
-0.149545
-0.174215
-0.330654
0.504811
0.0786939
-0.0596826
-0.0190113
0.0619826
-0.308032
0.246045
0.32168
0.0585634
-0.0359976
-0.0225658
0.028797
-0.211809
0.183012
0.0142223
-0.0214196
-0.0226124
0.044032
-0.37648
-0.225599
0.602078
0.242459
-0.190262
0.0626731
0.307733
-0.370426
0.0485777
-0.0427366
-0.00584109
-0.0694429
-0.0434396
-0.0184251
0.0618647
0.189086
-0.0991195
-0.0899667
0.600739
-0.106448
-0.494303
-0.145749
-0.206573
-0.151582
0.0205821
0.130999
-0.194969
0.137995
-0.231598
0.293575
-0.167684
-0.0832548
0.250935
0.406726
0.251242
0.0973223
0.14727
-0.0719722
-0.0752977
0.104743
0.00621841
0.172876
0.0174784
-0.10285
0.354075
0.0490615
0.0982082
-0.389076
-0.295032
0.213503
-0.22627
0.139684
0.0494009
0.128159
-0.112833
0.0138943
-0.115365
0.101471
-0.0233171
0.00146894
0.0218481
-0.266302
-0.349679
0.0197454
-0.0023812
-0.0173642
-0.272565
0.107573
0.164988
0.0360981
-0.0449663
0.506697
-0.0233726
0.357405
-0.492043
0.282222
-0.237501
-0.0447243
0.0165928
-0.0185202
0.00192748
0.0169249
-0.000615103
-0.0837042
-0.234449
0.318143
0.181193
-0.0260436
-0.15515
-0.266402
0.301468
-0.0350698
-0.225293
-0.394981
-0.103903
0.308979
0.132173
-0.42833
-0.116473
0.544766
-0.0531761
0.338762
-0.285592
0.268408
-0.321591
0.00214111
0.0505398
-0.120396
-0.180062
-0.0571395
0.0546203
0.0025192
0.63386
-0.251064
-0.382891
0.725637
-0.413854
-0.311799
0.344177
0.381445
-0.0442389
-0.0148797
-0.106126
0.121005
-0.141291
0.0433512
0.0979399
0.37091
0.179826
-0.550833
0.558336
-0.0857886
-0.132536
0.149465
0.019223
0.126638
0.322543
-0.449198
-0.373943
0.500563
-0.314018
-0.456752
0.730043
-0.385881
0.312017
0.418011
-0.00905004
0.0281459
-0.0368903
0.0437693
-0.00687893
0.0853007
0.299674
-0.384989
0.479152
0.0877618
-0.566915
-0.114087
0.149109
-0.0350223
-0.0235241
0.00197936
0.0215448
0.0127704
-0.513572
0.500782
0.527514
-0.156707
0.177571
0.00362217
0.0744098
-0.0607203
-0.0136895
-0.086852
-0.0490467
-0.00809285
-0.151244
0.131555
0.0196888
-0.341431
-0.200116
-0.0530199
0.0304075
-0.161681
0.0475943
-0.249348
0.141747
0.00698867
0.116075
-0.123064
0.23303
-0.316745
-0.0347492
-0.470757
0.221678
0.249061
0.0585554
0.0955688
-0.154125
-0.0457015
-0.132933
0.178634
-0.0167386
-0.338503
0.355226
0.603152
-0.187649
-0.334561
-0.109327
0.443878
0.378271
-0.559392
0.181103
-0.00301614
0.0207521
-0.017736
0.0522486
-0.169801
0.117552
0.169313
-0.570184
0.400848
-0.66726
0.293297
-0.463339
0.128907
-0.281606
-0.385672
-0.193976
0.0619945
0.536028
-0.0203016
-0.162819
0.183119
0.585548
-0.416252
0.00184611
0.0145629
0.0435476
-0.00614231
0.0778996
-0.402976
0.325047
0.314488
0.115819
-0.430316
-0.162146
0.129046
0.033099
-0.741573
0.30617
0.435391
0.278957
-0.10386
-0.175098
0.01954
-0.0225561
-0.344858
-0.396727
0.017552
-0.0197236
0.573929
-0.195678
0.000270304
0.0784236
0.603479
-0.00275332
-0.306256
0.38818
-0.0819312
0.28105
-0.297801
-0.331897
0.518838
-0.186977
0.111259
-0.00928281
-0.101976
0.546097
-0.58621
0.0400399
0.204267
-0.17547
-0.277191
0.0914332
0.185756
-0.549285
0.156416
-0.224854
0.208726
0.0161277
0.0151944
-0.438867
0.45162
0.159607
-0.0187879
-0.14082
-0.3435
0.460913
-0.117425
-0.35549
0.155518
0.199966
0.486955
-0.110974
-0.0739332
-0.186061
-0.596131
0.209291
0.386818
0.0488201
0.497202
0.157732
-0.00684671
-0.150885
-0.522823
0.192992
0.329824
-0.132085
0.190639
-0.248043
0.174105
-0.363493
-0.168823
0.532235
0.0384851
-0.0105957
0.0200276
-0.00343489
-0.425901
0.554411
-0.128539
-0.658749
0.197689
0.461056
-0.186293
-0.310076
0.400413
-0.0903395
0.0975823
0.0149057
-0.112488
0.018373
-0.0448076
0.0264347
-0.0587754
0.0153357
0.502148
-0.593919
0.0917706
-0.208126
0.154028
-0.115154
0.429633
-0.0139996
0.0797822
0.105315
-0.415395
-0.0711634
-0.0399474
-0.20574
-0.392696
-0.0500309
0.35123
-0.015886
0.514462
-0.161363
-0.353115
-0.25428
0.180771
0.0145911
0.113568
-0.48911
0.570395
-0.0813124
0.0128519
0.0357258
-0.359061
-0.251445
0.610411
0.133214
0.028058
-0.649199
0.450162
0.199028
0.0151532
-0.0182825
-0.3962
0.55746
-0.161306
-0.00419081
0.155644
-0.151454
-0.0245623
-0.241842
0.653629
-0.151481
0.188138
-0.677278
0.127975
-0.114601
-0.0133736
-0.0620027
-0.0105889
0.0725915
-0.488117
0.194295
0.293806
0.18402
0.330426
-0.032747
0.0289104
-0.0545221
0.0729639
-0.0184418
0.109571
-0.0613308
-0.0482398
-0.0198343
0.231449
-0.703974
0.359102
0.0991402
0.298033
-0.397189
0.0725665
-0.0600502
-0.0125163
-0.100559
-0.107567
-0.328651
-0.37534
0.143442
-0.187953
-0.191108
0.379047
-0.0163202
0.219617
-0.203299
-0.136276
0.0237691
-0.131563
0.107793
0.000896596
0.159142
-0.160039
0.0631646
0.215792
-0.146537
0.156835
-0.010299
0.0256695
0.00142699
-0.0270965
0.10212
-0.526845
-0.277034
-0.211098
0.303389
-0.271786
0.121769
-0.0956774
-0.0260912
0.615101
-0.0558302
-0.559293
0.00129578
-0.145177
-0.00136044
-0.382673
0.0953988
0.293036
-0.280571
0.184941
-0.0368755
-0.148066
-0.463643
-0.19511
-0.266297
0.248089
0.0182067
0.540452
-0.403637
-0.136821
-0.0922298
-0.105615
0.264329
-0.288895
0.364351
-0.286477
-0.0969461
0.0822898
0.0146563
-0.432154
0.629536
-0.19739
0.0363447
0.0222187
-0.0922316
0.127734
0.412709
-0.0213976
-0.487274
0.215949
0.271312
0.306143
0.251158
-0.557303
0.132913
-0.554023
0.421083
0.0281612
-0.00195792
-0.17537
0.481511
-0.00175855
0.227835
-0.226082
-0.00398309
-0.128553
0.246579
-0.247486
0.000906559
0.100377
-0.343081
0.242694
-0.0826251
0.029178
0.053447
0.0141632
0.0763366
0.237483
0.052985
-0.290475
0.0135236
0.0977355
-0.305556
-0.0870101
0.392548
0.208891
0.0376872
-0.00548311
0.101904
-0.497481
-0.199047
0.0236668
0.175378
-0.0915018
-0.156545
-0.116688
-0.447069
0.563716
0.123703
0.334544
-0.458303
0.220501
-0.587906
0.367377
-0.0380041
-0.173806
0.453696
-0.126558
-0.327148
-0.571338
0.434633
0.13668
0.363341
-0.479997
0.11663
-0.137497
-0.0283636
0.16586
-0.320073
0.104071
0.216001
-0.757801
0.325631
0.432159
-0.67257
0.296088
0.107702
-0.0101193
0.00437898
0.180561
-0.492498
0.16057
-0.273675
0.271908
0.078518
-0.0732332
-0.00528491
-0.184445
0.217554
-0.0331101
-0.416421
0.545418
0.0438459
-0.125369
0.0653729
-0.0793725
0.268137
-0.515239
0.24709
0.333691
-0.703485
0.369781
-0.0713538
-0.209257
0.280608
-0.344123
0.467767
-0.42412
-0.253214
-0.360361
-0.343134
0.515031
-0.246906
-0.0491685
0.0286352
0.0205333
0.087049
-0.392622
-0.0323048
0.208627
-0.176324
-0.00312429
0.0176872
-0.0179106
0.177517
-0.548932
0.120568
0.397039
-0.14754
-0.0215158
-0.0611093
0.213569
0.0686498
-0.0182557
0.00144256
-0.707798
0.267813
0.439976
0.529547
-0.208891
-0.320699
-0.59834
0.166179
0.661184
-0.349181
0.32627
-0.0590573
-0.486247
0.195868
0.290366
-0.0108215
0.0893394
-0.433897
0.557849
-0.123962
0.0106269
0.190296
0.339205
0.00475105
-0.137342
0.13259
-0.407517
0.584508
-0.177
-0.0952596
0.404224
-0.124951
-0.0262941
0.0729625
0.036608
0.170251
-0.358219
-0.163241
0.138022
0.0252195
0.348578
0.208047
-0.556659
-0.630296
0.199599
0.430625
0.478872
-0.115554
-0.296391
-0.190897
0.428184
-0.553652
0.12543
0.439507
-0.620042
0.180435
0.00694269
-0.0488232
0.571474
-0.143327
-0.169464
-0.0553909
-0.0185276
-0.086181
0.104709
0.362871
0.209207
-0.572199
0.152304
0.0257682
-0.178073
0.124029
0.0035164
0.0520214
-0.00278699
-0.0492345
-0.215195
0.191848
0.023345
0.0217626
-0.206477
-0.282088
0.488563
-0.499537
0.293058
-0.27031
-0.140148
0.15736
-0.564886
0.333395
0.0115992
0.0862758
-0.097875
-0.415447
-0.165659
0.302623
-0.392827
-0.217939
0.208694
-0.176821
-0.0318748
-0.0839018
0.25506
-0.17116
-0.0801542
-0.0243627
0.104517
0.132121
-0.0188199
-0.113302
0.0855033
0.368975
-0.454483
0.431197
-0.315387
-0.0563135
-0.206034
-0.0107178
-0.170947
0.181664
0.111143
0.342542
-0.144708
0.157143
0.0812067
-0.161142
0.0799349
-0.0939958
-0.183198
0.0216249
-0.0592539
0.037629
-0.481487
0.14199
-0.152708
0.130472
-0.10989
0.139407
0.328911
-0.468373
-0.032364
0.0291525
0.00321154
-0.273162
-0.357195
0.395369
0.265801
0.0282638
-0.165762
-0.307386
-0.400421
0.505048
0.128718
0.160344
-0.00261243
0.00831817
0.0250112
-0.0921179
-0.0382896
0.130407
0.306836
-0.481109
0.280719
-0.0806928
-0.200032
0.116258
0.377568
-0.493834
0.116665
-0.0971045
-0.0195607
-0.112954
0.114045
-0.00109028
0.25884
-0.404167
0.145314
-0.0965733
0.152379
0.325593
-0.478028
-0.00347626
0.154758
-0.151283
0.400395
-0.351875
-0.0485217
-0.544861
0.410053
0.134783
0.0786806
0.536396
0.466377
-0.108989
0.37358
-0.490306
0.462327
-0.436745
-0.0255919
-0.200702
0.171435
0.0292652
0.594691
0.0161905
0.11593
-0.34458
0.48393
0.392032
0.0296245
-0.421681
0.16406
-0.255566
0.000610579
0.0326663
-0.0332769
-0.504157
-0.019724
0.523855
0.266868
-0.195757
-0.0711143
-0.166927
-0.392484
0.15636
-0.15161
0.0477944
-0.180803
0.133008
-0.175898
-0.0818054
0.257701
-0.144821
-0.200694
-0.16584
-0.169984
0.335816
0.204662
-0.00920744
0.0453056
-0.0278243
-0.0213441
0.0167731
-0.0198974
-0.436854
0.565088
-0.128263
-0.362261
0.480313
-0.118076
-0.360256
0.445756
0.415691
-0.133177
-0.282543
0.0700298
-0.0169887
-0.0530411
0.64781
-0.341651
-0.263314
0.326271
-0.0629582
-0.0651298
-0.207438
0.00412039
-0.0526921
0.0485717
-0.199896
0.0849515
0.0052143
8.98371e-05
-0.00530414
0.427472
0.143964
0.148796
-0.0849694
-0.0638273
0.522357
0.0662124
0.1438
-0.584309
0.440497
-0.0292595
0.0333799
-0.741441
0.434044
-0.0596997
-0.0259589
0.0856586
0.61899
-0.564085
-0.0549088
0.495414
-0.132657
0.116587
0.0300481
-0.110202
-0.00118869
0.463506
0.426404
-0.511936
0.0855145
0.0100098
0.0989164
-0.108926
0.146026
0.00627708
0.462747
-0.330378
0.0116417
-0.0685459
-0.0453229
0.0304706
0.0148523
-0.0078545
0.0598759
-0.520448
0.0162659
0.0232398
-0.0155473
-0.0076925
0.588493
-0.481816
-0.106682
-0.0323316
-0.0196752
-0.473267
0.302899
0.544234
-0.400446
0.617467
-0.189383
-0.428088
0.314424
0.229281
-0.0890855
0.170291
-0.244928
0.161669
-0.415821
-0.210083
-0.37872
-0.759358
0.290406
0.46883
0.081299
-0.0696573
-0.422691
0.432521
-0.00986755
-0.000806422
0.115142
-0.114336
-0.103576
0.406179
0.521903
-0.0955168
-0.491284
-0.123005
0.036993
-0.115145
-0.0662541
-0.0204644
0.0867185
-0.0103452
0.0155595
0.135039
-0.128051
-0.161076
-0.0396277
-0.000725514
0.0908864
-0.090161
-0.00415978
-0.0193643
0.542609
-0.40972
-0.0835082
-0.01166
0.0951681
-0.446993
-0.312481
-0.0939297
-0.0180456
0.111975
0.123879
0.291784
-0.0229225
-0.0740237
-0.128501
0.502042
-0.185957
-0.250797
-0.365116
0.130202
0.093922
-0.167921
0.181955
-0.0140356
-0.0693892
0.0555724
0.0138168
-0.625048
0.0885511
0.53647
0.156534
-0.176837
0.105243
0.33952
-0.444782
0.48356
-0.169142
-0.00239699
0.0280665
-0.239116
0.212092
0.0270232
-0.0568378
-0.360261
0.417086
-0.101684
0.125453
0.163946
0.565313
-0.427721
-0.137607
-0.0144921
0.584388
0.0284427
-0.0308397
-0.07542
-0.347317
0.12634
0.378312
0.269487
-0.411187
0.354337
0.0911611
0.0306074
-0.388658
-0.308887
0.13175
-0.0260563
-0.105693
-0.5801
0.550224
0.0298369
-0.596562
0.453074
0.143437
0.0202911
-0.0958611
0.405653
0.0104538
-0.000625944
-0.0098279
0.0171493
-0.076849
-0.263116
0.321581
-0.058467
0.107554
0.0229184
0.548979
-0.121546
0.299586
-0.263548
-0.0267439
0.0273545
0.0351321
0.0404518
-0.0755839
-0.28048
0.209123
-0.164269
-0.198465
-0.391407
0.205443
-0.209907
-0.370224
0.566422
-0.31617
-0.250278
0.516075
-0.424304
0.0337426
-0.156003
0.12226
0.189723
0.0305818
-0.220308
-0.0293862
0.051011
0.0215934
-0.189515
-0.313693
0.257902
0.0557891
-0.113338
0.000383166
-0.269071
-0.253759
0.00950112
0.157806
-0.167308
-0.0207981
-0.094567
0.0195313
-0.39193
0.536416
-0.324755
-0.21167
-0.0722941
0.588369
-0.22193
-0.374682
-0.438982
0.344048
0.501947
0.104939
0.466943
-0.350689
0.407006
-0.593889
0.186793
0.0104077
0.0128322
0.177699
-0.0404202
-0.137279
-0.632685
0.455935
0.176694
0.123322
-0.108731
-0.229079
-0.39599
0.0426111
-0.0242381
0.170761
0.403148
0.141501
0.411541
-0.0218252
0.0301434
-0.175212
0.0637148
0.111497
0.409172
-0.481065
-0.213885
-0.120574
0.334446
-0.611657
0.184507
0.427144
-0.554444
0.418196
0.136222
0.181431
0.0915436
-0.272981
0.175882
-0.00939273
-0.16649
-0.374051
0.502988
-0.12897
-0.0016642
0.0151097
-0.0134455
-0.0840005
0.219476
-0.135478
-0.306618
0.423324
-0.116708
0.486053
-0.0768818
0.226485
0.309923
-0.0302984
-0.0150245
0.0845563
0.196157
-0.65266
0.268455
0.384163
-0.305962
-0.00425181
0.0237918
-0.0961011
0.233812
-0.126241
-0.0132719
-0.00498374
-0.338251
0.028104
0.310146
-0.561756
0.165509
0.129252
-0.555183
0.245219
0.0810443
0.0109612
-0.509345
0.0954343
0.413909
0.0191359
-0.104971
0.286393
0.195201
0.0716641
0.0204044
-0.435524
0.320359
-0.107781
-0.0237821
0.152715
0.0249832
0.395751
-0.109147
0.27588
-0.0411153
-0.366023
-0.286679
0.204818
-0.0289371
0.32186
0.0712131
-0.33639
0.121341
0.215043
0.12077
0.357469
-0.478247
0.0139438
0.00104068
-0.0149845
0.498009
0.0782212
-0.576231
-0.285294
-0.0529575
-0.378713
0.214437
0.0553947
0.243356
-0.298755
0.0512769
0.166824
-0.218103
-0.0400244
0.0751565
0.494928
0.0828617
0.00852735
-0.121764
0.113236
-0.0855514
0.0192973
0.234649
0.321732
-0.55638
-0.134972
-0.293397
0.42834
-0.180876
0.515246
-0.108329
0.101818
0.267422
-0.369276
-0.407291
0.200164
0.207105
0.39152
-0.100491
-0.291033
0.150602
-0.078858
0.115851
0.0239687
-0.401167
0.558401
-0.15727
-0.0130505
0.0798657
-0.0668152
0.0668145
0.157422
0.206455
0.00223724
-0.122483
0.39084
-0.291714
0.0736069
0.0751893
-0.0120773
-0.189251
0.399302
0.130717
-0.530042
-0.12557
-0.0496417
-0.133496
0.167222
-0.0337258
0.157516
-0.00480228
0.552749
-0.393587
-0.159185
0.413271
-0.52978
0.344638
0.221762
0.000263802
-0.0961835
0.351545
-0.602252
0.383345
0.218891
0.16352
-0.030306
-0.528039
0.153957
-0.564735
0.420812
0.143891
0.0153412
-0.0982465
0.192189
-0.282347
0.389724
-0.107381
0.0413679
-0.225813
0.212434
-0.228756
0.0674666
-0.292822
-0.114485
-0.306857
0.200148
0.0152939
-0.0993372
0.0840432
0.408614
0.135608
-0.592977
0.164504
0.428464
-0.37541
-0.301891
0.525656
-0.531438
0.00575189
0.2435
-0.344143
0.100628
-0.305884
0.198495
0.107385
0.0635684
-0.239467
0.389928
0.162799
0.621289
-0.202741
-0.41855
-0.356186
-0.127515
0.483684
-0.392818
-0.0804511
-0.150884
-0.162022
-0.0531736
-0.381395
0.129297
-0.0132218
-0.356293
-0.0593844
0.0782308
-0.0188464
0.0919461
-0.374297
-0.4771
0.101668
-0.00922477
-0.0355829
0.282542
-0.0943077
-0.18824
0.0183709
0.094881
0.170508
-0.342058
-0.0214381
0.363492
0.121297
0.316906
-0.438215
0.549103
-0.417452
-0.131678
-0.418337
0.283334
0.018415
-0.0373884
0.0189734
-0.178181
0.200599
-0.0224196
0.0563438
-0.319462
0.177675
0.0398784
-0.297322
0.399101
0.0200136
0.137502
0.66854
-0.189389
-0.414224
0.501022
-0.0868087
-0.424758
0.0440267
0.380729
0.483742
-0.395981
-0.0243847
0.264047
-0.096857
-0.167193
-0.00545504
-0.336606
0.115672
-0.0156834
-0.0563594
-0.341603
0.397958
0.293765
-0.516455
0.222667
0.323907
-0.517539
0.193602
0.158217
-0.157321
0.147776
-0.301524
0.410885
-0.10938
0.073667
0.229567
-0.303241
-0.362119
0.498759
-0.136663
0.0183422
0.492407
-0.19866
-0.0606383
-0.185316
0.245954
0.282508
0.11323
0.0218145
-0.00186865
-0.0199459
-0.0191493
-0.400687
0.252299
0.148386
0.0118462
-0.126103
-0.037139
-0.0022657
0.0628413
0.337568
-0.41481
0.564911
-0.15015
0.54575
-0.447285
-0.0984781
-0.0998359
0.378968
-0.279157
-0.0711608
-0.245179
0.316332
0.459162
0.026635
-0.505999
0.361478
0.144489
-0.182371
-0.137704
0.100786
0.0144554
-0.0842889
0.0698335
0.228327
-0.32452
-0.0298886
-0.153014
0.182902
-0.166581
-0.0126839
0.179264
-0.552616
0.414922
0.137668
-0.191448
0.187366
0.261598
0.0209377
0.554432
-0.176075
-0.37837
-0.00559036
-0.179242
0.18483
0.179428
0.4501
-0.00831252
0.0410283
0.145412
-0.11167
-0.59643
0.17569
0.420738
0.149144
0.405239
0.23272
0.233117
-0.530757
0.369377
-0.468636
0.112432
-0.0229093
-0.400301
0.559703
-0.15945
-0.0561044
0.364921
-0.493461
-0.164539
0.521123
-0.356585
-0.414808
0.134124
0.280677
0.10325
0.333925
-0.437207
-0.0764422
-0.378655
-0.136162
0.155902
-0.556251
0.429524
-0.071909
0.302578
0.0189882
-0.321574
0.00491057
-0.558178
0.414493
0.143651
0.202618
0.219137
-0.664219
0.445075
-0.35287
-0.115783
-0.0200274
0.0214544
0.484273
-0.160396
-0.150319
0.289848
-0.00410582
0.127428
-0.0246503
0.657071
-0.437939
-0.37526
0.319366
0.0558909
0.102497
-0.0872031
0.561057
-0.411565
-0.149503
0.0879244
0.304084
-0.39202
0.118169
0.0798283
-0.161429
-0.307587
0.468964
-0.0900029
0.100013
0.291016
-0.349374
0.0583429
-0.0231069
-0.00925711
0.29129
0.0968838
0.10535
-0.00092859
-0.104421
-0.350859
-0.459842
-0.116554
0.576388
-0.62921
0.453838
-0.0979357
0.537338
0.654833
-0.156826
0.0413186
-0.050526
-0.0874272
0.329004
-0.241585
-0.610798
0.235933
0.374817
0.278483
-0.350498
0.0720127
0.157413
0.12291
0.422826
-0.108208
0.306242
-0.0687658
0.0123117
-0.208613
0.176307
-0.117433
-0.00477898
0.122212
0.100707
0.232429
-0.0372315
-0.00612043
0.0268196
-0.0206992
-0.380887
0.116168
0.264707
-0.117089
-0.250086
0.414148
-0.164106
-0.018934
0.00336009
0.015574
-0.446629
0.204115
0.114266
-0.318393
-0.219933
-0.444293
-0.200503
-0.355097
0.555587
-0.630702
0.410762
0.602363
-0.177041
-0.425338
0.56593
-0.441738
-0.124208
0.125514
0.297859
-0.423407
-0.173699
-0.0304168
0.204115
0.540877
-0.141598
0.246445
-0.333881
-0.013759
-0.113922
0.12768
-0.0363268
0.0603824
-0.0240556
-0.0680715
0.00868705
0.125854
-0.12996
-0.22304
-0.410527
-0.218685
0.477004
-0.339218
-0.137829
-0.0167104
-0.0826268
0.373412
0.0269803
0.0104538
0.143671
-0.418739
0.275055
0.144846
-0.00756986
0.512014
-0.504549
-0.304489
0.415554
-0.111085
-0.283702
0.427361
-0.421738
-0.17661
-0.37334
-0.133085
0.50638
-0.150518
0.160018
-0.242049
-0.368798
0.0226327
-0.0223462
-0.000286473
0.383794
-0.374497
0.525751
-0.151293
-0.025604
0.044019
-0.421991
0.171864
-0.28034
-0.307588
-0.0969024
0.524231
-0.00271918
0.0311619
-0.0561833
0.198172
-0.20363
0.580659
-0.377043
-0.0758712
-0.468791
-0.150087
0.618852
0.536728
-0.0182506
0.077261
-0.0590105
0.118014
-0.0208579
-0.213607
0.234465
0.185158
-0.335484
-0.362366
0.356909
-0.200391
0.589369
-0.448182
-0.141198
-0.0659292
-0.171574
0.35986
-0.416225
0.0656504
-0.231495
0.0227667
-0.0269265
0.307042
-0.434148
0.127096
-0.432752
0.332212
0.374214
-0.286294
-0.511977
0.356433
0.155503
-0.140418
0.00624909
-0.108034
0.101785
0.0263256
0.139139
0.225711
-0.0359911
-0.0257584
0.0215066
0.0274926
-0.00485991
-0.0843389
0.444194
-0.10057
0.106819
-0.420837
-0.149367
0.00343432
0.0198272
-0.0232616
-0.454566
-0.122347
0.0573561
0.018449
-0.0758052
-0.13641
0.00900171
-0.20805
-0.287039
0.306924
-0.0198911
-0.104513
0.0839403
0.0205728
0.0131936
-0.0798501
0.0666565
-0.646951
0.22954
0.417405
0.129139
-0.425958
-0.451282
-0.30989
-0.196138
0.168017
0.38314
-0.100646
-0.0752025
0.366204
-0.158027
-0.0108557
0.168883
-0.0177546
-0.00063813
0.0183927
0.13479
0.194292
-0.0229189
0.00355457
0.522849
0.0961377
-0.177507
0.464877
-0.287382
-0.303985
0.0422384
-0.050501
0.00826267
0.219946
-0.291115
0.0198661
0.568622
-0.137154
0.161289
-0.261403
-0.138234
0.399614
-0.403385
0.269611
0.121904
0.0568342
0.18224
-0.239079
0.303156
-0.40302
-0.0845126
-0.429102
-0.217854
0.415968
0.134455
-0.550429
-0.0513479
-0.116984
0.424016
-0.0199638
0.00195072
0.0180131
-0.329929
0.116031
-0.102799
0.331115
-0.428705
0.564368
-0.135666
0.0229234
-0.391439
0.642594
0.15382
-0.293637
0.0843771
-0.195696
-0.116897
0.312582
0.218255
-0.0331022
0.445109
0.211956
0.056715
0.467605
-0.346845
-0.485666
0.136408
0.349243
0.0150643
-0.129021
0.113956
-0.438174
-0.00892393
0.561297
-0.326648
-0.0993747
-0.0306403
0.130015
0.0829131
-0.101441
-0.0174221
-0.104342
-0.127409
0.0248657
0.102543
-0.135873
-0.373474
0.0834811
-0.0943026
0.0331349
0.00592411
-0.039059
0.528024
0.0900204
-0.0840577
0.247682
-0.425198
-0.00853431
0.163292
0.134276
0.0148328
0.412017
-0.367992
-0.0628417
0.228206
-0.165367
-0.402878
-0.181444
0.240666
-0.17782
-0.062849
-0.209623
-0.251078
-0.0920119
-0.0373101
0.0664881
-0.15691
-0.0206487
0.177558
0.0288591
-0.162356
-0.0700025
0.0507397
0.0192628
0.0866521
-0.00965711
0.10792
-0.0982627
-0.220696
-0.410084
0.105577
0.359256
0.0930167
-0.452281
0.555514
-0.139552
-0.593572
0.449916
0.143648
-0.402728
0.543255
-0.140562
-0.221394
-0.064856
0.0780496
-0.594217
0.432546
0.161624
0.0794583
0.249537
-0.150051
-0.255308
-0.119239
-0.22815
0.347372
0.16997
-0.0108291
-0.136432
0.0388944
0.0975376
-0.30166
0.109607
-0.54649
-0.222481
0.161841
0.0582759
-0.486984
-0.29636
0.263922
0.0233091
-0.0294295
-0.102637
-0.222638
0.325263
0.147569
0.315561
-0.463178
0.13782
-0.00741319
-0.431505
0.32692
-0.24747
0.0387243
-0.00558932
-0.0165295
0.387901
-0.101275
-0.286632
0.179499
-0.166497
-0.0130033
0.309911
-0.0866308
-0.223284
-0.0164854
0.00321351
-0.0188727
0.230964
-0.238127
0.154224
-0.0126068
0.0840957
0.539279
-0.0623828
-0.0992988
-0.0441813
-0.0972903
-0.407798
0.351875
-0.28203
0.251504
0.0305249
0.520028
-0.00500919
-0.0879895
-0.0119649
0.519351
-0.507502
0.238561
-0.357821
-0.344341
0.0581625
0.274336
-0.146609
0.16237
-0.0157616
0.587045
-0.178619
-0.408454
0.115397
-0.0638963
0.25374
0.0524945
0.0942215
0.0224435
0.17939
-0.445295
0.12525
0.320001
0.00659629
0.238157
0.122876
-0.361038
-0.0790701
0.318246
-0.239185
-0.49855
0.324066
0.174445
0.00362609
0.018084
-0.0217101
-0.0142938
0.149333
-0.0268046
0.197141
-0.265585
0.0684415
0.0231212
-0.0438891
0.151127
0.0160939
-0.166553
-0.256165
-0.144525
0.177738
-0.0212048
0.390389
-0.579777
0.402549
-0.299327
-0.135924
-0.00658242
0.142507
-0.231156
-0.184547
-0.183168
-0.0787431
-0.195472
0.252302
-0.312478
0.116772
-0.119879
0.134943
0.000150391
0.105199
-0.471346
0.140644
-0.136067
0.14945
-0.0133829
-0.0937516
-0.268617
0.300525
0.110341
-0.35401
0.488782
-0.134816
0.183157
0.403786
0.0806403
-0.0653495
-0.0152908
0.0990588
-0.0997844
0.579354
-0.435191
-0.144192
0.155973
-0.623653
0.192296
0.431354
0.0584053
-0.400012
0.0145685
0.357705
-0.432925
-0.160906
-0.337646
0.498489
0.0234574
0.496559
-0.279292
0.0343915
-0.497719
0.463227
0.321253
-0.076042
0.0657483
0.014892
0.11349
0.169592
-0.227183
0.0575881
0.425101
0.130406
-0.425968
-0.00174287
0.127597
-0.0115662
0.0538045
0.044295
-0.0211738
-0.125828
-0.498532
0.54728
0.338941
-0.49991
-0.0908367
0.337272
0.0363112
-0.428509
-0.167923
0.00338898
-0.066914
0.00943749
0.127903
-0.137341
-0.0923013
0.253967
-0.601643
0.187138
0.414502
0.298156
-0.0996645
-0.0126296
0.452815
-0.392645
-0.0601866
-0.204835
0.231817
-0.0269833
-0.409351
0.557381
-0.424162
-0.133245
-0.365891
0.220759
0.00425428
0.0306725
-0.0349268
-0.178974
0.15061
-0.130418
0.555513
-0.129452
0.148347
-0.0188954
-0.405326
-0.00581746
0.134864
-0.462963
0.211827
0.401111
0.165046
-0.566249
-0.0729909
-0.391131
0.0765713
0.376226
0.268122
0.119772
-0.0993729
-0.0164983
0.115871
-0.185988
0.244944
-0.0589588
-0.0908295
-0.207566
0.486011
0.00637467
0.122953
0.431516
0.113214
-0.543781
0.246418
-0.207831
0.0341302
0.174744
0.00105112
-0.175796
0.0137458
-0.01541
-0.215649
0.192967
-0.19856
-0.146503
0.161199
-0.0146973
-0.013099
0.164226
0.16002
0.40504
0.16601
0.0890467
0.125672
-0.0277322
-0.0880353
0.0704441
0.0175911
0.0353162
0.00823146
-0.114951
0.361206
-0.246264
0.28294
-0.497656
0.214698
-0.0153079
-0.626868
0.289168
-0.509148
0.117707
0.195844
0.0790793
-0.274929
0.0171787
-0.351253
0.128692
0.222549
-0.427337
0.0758924
0.0203504
-0.0962428
0.207007
-0.155732
0.0938906
-0.354025
0.260125
-0.182322
0.415392
0.0138577
0.0745112
-0.0883691
0.0748608
-0.0865407
0.0116799
-0.0195948
-0.0033241
0.360763
-0.488298
0.101765
-0.427308
0.325518
-0.0339414
0.456362
0.113131
-0.493577
-0.0216746
-0.159841
0.176382
-0.0165413
0.105693
0.317629
-0.269073
0.0849052
0.184165
-0.198552
0.156693
0.0418581
-0.315522
0.224683
0.0642014
-0.0747903
0.12957
0.363767
-0.493401
-0.121212
0.382067
-0.260864
-0.132922
-0.179566
-0.223702
0.506621
-0.015078
-0.0729574
0.111617
-0.474085
0.362408
0.556909
-0.171958
0.0139307
0.10918
-0.124345
0.015164
-0.102469
0.101777
0.00069117
-0.0136941
0.0893341
-0.07564
-0.158339
-0.273664
0.431944
0.105121
0.0831102
-0.188232
-0.356717
0.527776
0.0597439
0.314463
-0.529725
0.52203
-0.190167
0.360402
0.078854
-0.093932
0.0360899
0.3216
0.135708
-0.170731
0.442672
-0.083424
-0.576546
0.412792
0.163746
0.135613
-0.44606
-0.141166
0.587221
-0.159497
-0.00410569
0.0208788
0.445014
-0.593361
0.148338
0.314244
0.110641
-0.1244
-0.54181
-0.119584
-0.0878929
-0.11066
-0.0716941
0.176814
0.290496
0.113855
-0.404372
-0.511137
-0.152604
-0.37073
0.523296
0.415597
0.141759
-0.553422
0.389819
0.163601
-0.240969
-0.128393
0.486734
-0.358351
0.325327
0.216472
0.040508
-0.509323
-0.411362
-0.111195
0.52255
-0.0868079
0.274791
-0.187985
-0.180918
0.00692514
0.0476952
0.0127331
-0.159342
0.137354
-0.358906
0.528555
-0.169724
0.551597
-0.448068
-0.103551
0.147473
0.0148963
-0.547831
0.149599
0.398226
0.1223
-0.323044
-0.26994
-0.287158
-0.273665
-0.393397
0.160414
-0.367736
0.257254
0.110473
-0.0830468
0.0625824
0.442266
0.144753
0.588382
-0.143377
0.248925
-0.0592682
-0.189661
-0.609628
0.183568
0.426058
0.623861
-0.18853
-0.435357
-0.0284927
0.314478
0.101057
-0.323952
0.0069717
-0.166813
-0.141742
-0.00254165
0.192778
-0.0582174
0.225039
0.172631
-0.16566
-0.15157
-0.396266
-0.462434