/*--------------------------------*- C++ -*----------------------------------*\
| =========                 |                                                 |
| \\      /  F ield         | OpenFOAM: The Open Source CFD Toolbox           |
|  \\    /   O peration     | Version:  v2012                                 |
|   \\  /    A nd           | Website:  www.openfoam.com                      |
|    \\/     M anipulation  |                                                 |
\*---------------------------------------------------------------------------*/
FoamFile
{
    version     2.0;
    format      ascii;
    class       volScalarField;
    location    "450";
    object      ddt0(k);
}
// * * * * * * * * * * * * * * * * * * * * * * * * * * * * * * * * * * * * * //

dimensions      [0 2 -3 0 0 0 0];


internalField   nonuniform List<scalar> 
13917
(
2.43899e-08
-1.91705e-08
1.43918e-05
-1.37194e-08
2.39562e-09
-1.25054e-06
-0.000280319
0.000310557
0.000214416
-4.56434e-08
3.81539e-07
2.48887e-07
-1.34636e-08
-0.000200207
-5.89211e-08
-2.35389e-08
-1.99169e-08
-3.36547e-08
2.41345e-07
1.07918e-08
1.61815e-09
-0.000252332
6.07408e-09
0.000371855
6.33003e-09
-0.000540887
-2.04091e-07
1.99555e-07
-2.63026e-06
-6.09604e-08
-2.68296e-08
6.47458e-09
-2.57453e-08
2.98676e-08
2.07985e-10
4.50011e-05
7.06604e-09
6.99086e-06
-2.07039e-08
-6.63116e-06
2.90353e-08
8.13087e-10
3.10857e-08
1.807e-07
1.81138e-08
-9.30336e-08
-3.08121e-08
-6.9999e-08
1.07527e-06
2.1046e-08
1.51387e-08
5.5728e-09
-4.95183e-07
-5.05831e-09
-1.98577e-08
2.4363e-08
6.77902e-07
2.49415e-08
2.80123e-08
1.60809e-08
1.55529e-05
-1.85189e-08
6.27742e-05
1.15325e-08
-7.63546e-07
0.0185821
-7.95533e-10
-8.1574e-10
4.45729e-08
-5.57159e-09
1.51194e-09
0.000288687
-0.000212323
3.08853e-09
8.76723e-07
2.99527e-07
-0.00019993
2.84383e-08
-0.000627065
2.35574e-09
6.32012e-09
-1.24281e-09
-1.62676e-06
1.25852e-05
8.65946e-05
2.80723e-08
9.10403e-09
-0.033877
1.57086e-08
3.18188e-08
-0.000170885
5.72718e-08
-4.15546e-09
-9.85037e-09
0.0628219
-8.33573e-07
-2.52095e-08
-8.90451e-08
1.17901e-06
-1.89804e-06
2.55562e-08
-1.43923e-07
2.04665e-07
2.50797e-08
1.3208e-08
0.000125366
-2.11776e-07
-9.27613e-08
-2.05829e-08
3.54215e-08
-4.1855e-05
-3.0675e-05
4.30588e-07
0.000114353
-6.65045e-10
5.81847e-08
2.75047e-09
1.61698e-06
0.00016413
1.02162e-07
7.1734e-10
-2.11137e-07
0.000128641
-5.25885e-08
2.38816e-08
-7.58254e-09
6.32753e-09
2.47205e-08
3.42721e-08
-2.62493e-06
6.01503e-05
1.48711e-09
1.71575e-08
1.02004e-09
0.00323613
0.000333162
5.17237e-08
-1.56534e-06
-1.4143e-09
1.02736e-07
5.3936e-06
9.69919e-09
6.3651e-09
1.29238e-07
-9.24638e-10
0.000719202
-2.35061e-06
6.28519e-09
9.87554e-09
3.5299e-09
6.53959e-08
3.75668e-07
2.08519e-07
-1.6871e-08
2.13459e-08
-2.62432e-06
-6.28872e-09
0.00154503
-0.000197527
-1.02417e-05
1.47755e-08
-1.05234e-06
2.16108e-09
3.00891e-08
4.12374e-07
1.14681e-06
2.60039e-08
-1.19076e-08
1.01456e-08
-1.31416e-07
1.98684e-08
6.22324e-05
5.50595e-07
-2.42788e-08
0.00134638
-4.47706e-09
3.76681e-05
-4.22174e-06
0.000893405
8.73087e-09
-2.18661e-07
3.06759e-08
1.01717e-08
9.47816e-09
-2.7003e-08
-0.00067182
-2.76785e-07
4.84186e-08
2.44261e-09
6.68868e-07
6.72665e-05
0.000107536
-2.13349e-07
5.3445e-09
-3.07076e-06
-2.06874e-07
2.75455e-08
-5.48422e-09
4.05832e-08
-0.0206167
-4.93929e-09
2.11737e-08
-8.01289e-09
6.31389e-08
-0.000220885
-0.000250518
-1.73732e-09
2.35097e-08
-7.55268e-08
-0.000506302
8.86449e-09
-0.00018915
-0.000220567
6.60654e-07
1.30449e-08
2.16165e-06
-1.35273e-09
-5.8825e-05
1.67478e-08
-0.000148878
1.19398e-08
8.77468e-08
3.00658e-08
-3.28416e-05
4.75361e-05
-2.22789e-08
7.1581e-05
2.10641e-08
1.30598e-08
4.69838e-05
5.77129e-07
3.74635e-09
0.000136524
-0.000215075
2.94573e-08
9.01284e-09
-0.000152221
4.83225e-05
5.62753e-09
1.56119e-08
-0.000107416
-3.47646e-07
2.17371e-09
-4.07042e-06
-2.71658e-07
-1.73115e-06
1.35853e-08
4.32975e-09
1.73059e-07
-0.00022509
1.21815e-08
-3.80467e-07
-1.27203e-06
7.31885e-09
2.62348e-08
2.02323e-07
-9.35587e-05
2.0782e-07
-4.38426e-08
-3.46687e-08
1.67851e-09
0.000146929
-0.000583313
-0.00220288
1.644e-08
-0.000190389
-6.49087e-05
0.00157101
-0.000559831
3.46512e-07
4.67692e-09
2.5303e-08
-1.77134e-08
-0.000106586
-2.91061e-07
2.87859e-08
-0.000415986
-2.47279e-10
3.75174e-08
-0.0013014
1.14663e-08
0.00130748
-4.60387e-09
4.46214e-09
-1.55581e-08
-1.58741e-08
-7.7952e-07
-1.43606e-05
-3.17566e-08
1.88422e-08
-0.000539647
0.000224248
-0.000438909
1.60955e-08
0.00171219
-8.2331e-11
1.8481e-08
1.23315e-09
2.6432e-05
1.70169e-08
6.25935e-09
1.17174e-08
1.02669e-08
2.95071e-08
-6.48323e-09
5.53685e-07
-2.14873e-08
3.99955e-08
1.53613e-08
2.66465e-08
-2.36258e-05
0.000129608
3.98941e-09
2.87127e-08
-0.001447
3.01646e-09
-0.000205133
1.32601e-08
-2.0246e-05
-1.46129e-09
-1.18403e-06
9.04386e-09
5.28958e-07
-7.89607e-09
8.24843e-07
-4.05864e-06
-1.85274e-08
-2.40614e-07
2.27385e-05
6.67106e-10
6.51376e-05
2.43175e-06
-5.56434e-05
-1.77922e-07
0.00012869
1.06037e-08
7.55254e-05
1.56626e-06
-8.23813e-08
-1.43661e-07
-1.90786e-05
3.98101e-09
2.24902e-08
-4.09473e-05
1.85785e-08
-2.41222e-08
-9.13963e-06
6.46286e-08
-2.27022e-08
-2.65909e-05
-3.35462e-06
2.47652e-08
0.000163725
0.00022392
1.19223e-08
1.99452e-08
-1.9018e-09
1.09107e-08
-0.000240149
0.00107434
-8.1487e-07
-2.59191e-05
1.14213e-11
-5.12843e-07
2.26372e-06
1.29205e-08
-0.000239277
-9.38659e-05
4.91001e-05
2.50036e-08
0.000117416
2.1006e-08
-0.000430731
1.47433e-08
4.93118e-07
-2.46049e-07
-1.47989e-08
5.571e-09
-6.50917e-08
-5.48102e-07
-1.06686e-07
-3.55918e-06
5.43518e-05
-4.44338e-05
5.04624e-08
9.58669e-09
1.49714e-08
5.54266e-05
-0.000306501
1.78293e-08
-0.000994967
-6.24381e-09
2.78825e-05
-1.80098e-09
3.55409e-09
-1.27945e-08
-0.000621386
-1.32192e-08
-0.000126363
-7.81341e-06
6.34592e-07
5.12456e-06
-1.98581e-09
-7.02774e-07
2.03755e-06
3.9308e-09
1.67456e-07
2.12607e-08
-2.09216e-09
-2.5966e-08
3.45695e-09
9.17749e-10
1.95281e-08
-8.1307e-05
1.99849e-09
0.000129986
-0.00106767
-2.29492e-06
-3.15972e-07
-8.73734e-05
-0.000106897
1.50188e-08
-1.16154e-09
-9.1662e-07
-2.14294e-08
8.19032e-09
4.32265e-09
0.000882806
-0.000406614
-0.00132805
-3.00881e-08
-2.86034e-07
9.0576e-08
-2.08435e-08
-8.62986e-08
-2.33339e-08
0.00037563
-2.04194e-08
1.55386e-08
-0.000195084
4.67137e-05
2.23103e-05
-3.27366e-08
-1.20984e-06
5.16841e-05
-0.000128476
-0.000146138
3.24582e-08
-6.87321e-08
-2.3727e-08
2.22916e-08
-9.73143e-05
-1.18518e-08
4.083e-08
-3.06201e-08
4.51922e-09
-0.00014389
3.60291e-09
-1.78841e-07
-4.37402e-08
3.53873e-07
0.000127841
1.9059e-09
1.70179e-08
2.76001e-08
-7.62574e-09
2.4264e-08
-0.000964328
8.38215e-06
-2.39425e-08
4.12008e-05
2.52389e-08
1.46453e-07
-0.000137037
-7.37273e-07
4.21181e-07
-4.83908e-05
-2.28304e-07
-3.67268e-08
-5.56267e-07
5.43702e-08
2.78052e-06
1.68466e-06
9.76717e-08
-6.16127e-08
3.61747e-08
-0.00194401
1.64286e-08
2.5799e-08
7.73254e-09
2.85401e-08
-0.00013807
0.000155284
6.34553e-09
3.90759e-08
-0.000866973
-0.000101574
4.11607e-09
0.000146082
4.86721e-09
-2.11322e-07
3.1334e-09
-0.000224085
0.000757264
4.69332e-09
9.61586e-10
-0.000148041
-2.68909e-08
1.34271e-05
1.62758e-09
-0.000224665
3.8051e-07
-0.0014478
2.49364e-08
7.23679e-05
-0.000284948
2.37439e-08
1.92285e-08
-1.67085e-08
2.61004e-07
-4.10101e-05
4.35658e-08
1.89927e-08
2.04779e-08
2.11228e-08
-0.000197382
-0.0001699
2.00358e-08
-2.85434e-06
2.64221e-08
2.50891e-08
-3.1063e-07
-0.000212298
1.11562e-08
1.36289e-08
-7.7311e-10
-1.16023e-09
-0.00121511
0.000137757
8.08787e-09
-3.4622e-09
0.000476119
5.54002e-08
9.07401e-09
2.15006e-08
-1.44843e-08
-2.37386e-09
-7.57782e-08
-7.23351e-06
-3.46054e-06
4.14609e-07
-3.5851e-07
-0.000266201
2.26591e-08
1.2613e-08
-0.00023039
-1.52982e-09
-2.42658e-08
-5.07138e-09
-0.00182727
2.05718e-07
3.13202e-08
9.79468e-07
-3.4244e-07
-7.20653e-06
-3.34715e-07
3.60719e-07
7.21887e-09
5.64813e-09
-0.000378888
9.69516e-07
8.581e-05
-1.85063e-08
1.73409e-08
7.54748e-06
-8.67536e-05
-0.000121159
-1.10948e-07
2.7597e-07
-2.61424e-08
1.6793e-08
2.13567e-08
-5.8845e-07
2.9028e-07
-8.48028e-10
-2.7341e-09
-1.34224e-07
0.000111197
1.6008e-05
-9.87322e-09
1.89115e-07
0.000772569
-2.88651e-08
9.59309e-09
-2.46535e-06
2.35155e-05
0.000795601
-1.34832e-06
3.26161e-08
0.000159877
2.61582e-07
3.25372e-08
1.56364e-08
3.5938e-08
1.54921e-07
-2.56925e-07
-0.00059045
-7.51589e-07
2.58348e-08
-0.000361181
2.75821e-08
-0.000153128
3.56983e-09
8.43936e-09
0.0017308
4.71863e-05
6.33788e-06
2.8007e-08
-2.27388e-08
-3.32966e-09
4.77703e-09
5.61243e-07
9.78406e-07
1.75977e-08
7.00332e-07
-3.29383e-08
3.78468e-09
-1.16921e-05
9.45723e-07
-4.42165e-05
2.20702e-08
-8.54197e-07
2.87278e-08
-6.48709e-06
-7.97997e-08
-1.62616e-07
1.75505e-08
2.70104e-08
2.12999e-08
8.13017e-09
1.90547e-07
-1.3186e-08
-0.00014636
-6.19655e-07
-1.09978e-08
2.4494e-08
-7.49347e-08
3.80992e-06
0.000175969
1.34867e-08
-1.02347e-07
1.87726e-08
-1.23741e-08
2.80369e-08
-0.000265015
3.79081e-09
4.96597e-05
-8.94269e-09
2.60231e-07
1.81673e-07
-0.000210591
2.34783e-08
-1.4388e-08
-0.000134109
-8.99329e-05
7.20125e-09
-5.76481e-09
0.000453396
2.18824e-07
-2.96812e-07
6.00505e-09
4.45756e-09
-4.91064e-07
-1.54274e-08
-1.09705e-07
1.91008e-07
2.28966e-08
5.3968e-08
7.64981e-05
1.16731e-08
-9.50947e-09
1.9283e-08
0.000131344
7.99899e-10
-1.94314e-08
5.98287e-05
-2.27897e-08
0.000141496
2.03997e-08
-7.38205e-08
1.91739e-08
-7.08943e-08
-1.66116e-10
-4.39474e-08
2.70345e-08
-4.11732e-08
5.31964e-09
-6.3683e-06
2.34931e-05
-0.000209348
2.41631e-08
4.69127e-09
3.27327e-08
-3.80946e-08
5.32759e-05
-0.000120559
-5.15081e-08
2.09208e-10
-0.000125598
3.184e-06
-5.3487e-05
1.59845e-05
-3.39872e-08
-0.000726753
1.58297e-08
-1.4105e-08
-4.66413e-07
-1.33186e-08
-4.61422e-08
-7.89492e-06
-5.74574e-08
-1.06542e-08
-2.49682e-08
-1.67201e-08
2.1749e-08
-1.25306e-08
-6.25068e-08
4.16891e-10
-1.97764e-09
2.52953e-08
4.32346e-09
1.35743e-08
-1.1419e-07
-3.82815e-09
-5.03886e-09
8.73664e-10
-2.15454e-08
2.99081e-08
3.38728e-09
1.90098e-08
-0.000216298
2.35886e-07
5.17998e-06
2.65508e-08
3.36509e-09
1.35158e-07
-2.43411e-08
2.08388e-09
-0.000868962
6.66354e-07
-0.00161182
-1.11146e-08
-4.4814e-07
2.32265e-08
1.58587e-09
2.28248e-08
-9.56006e-09
8.42562e-05
2.82631e-09
-0.000179745
1.72681e-09
3.53467e-06
1.55624e-08
3.03184e-07
4.69055e-07
1.99076e-08
-3.96267e-12
2.42648e-07
-1.6357e-09
2.66461e-09
-0.00135963
-2.45938e-08
2.69172e-09
2.28516e-08
1.68099e-08
3.6656e-08
6.45378e-09
-1.02669e-06
4.62534e-05
4.98164e-09
1.14927e-08
3.09767e-08
-5.99889e-05
8.44308e-08
-1.2382e-09
-1.90141e-08
-0.00122796
0.000476094
1.60193e-05
5.00256e-07
-1.01093e-08
2.99355e-08
3.64363e-08
1.0532e-07
7.2853e-09
-8.03087e-05
-1.7537e-07
7.26982e-05
-1.46971e-08
-1.86805e-08
3.37606e-05
-6.06e-09
1.44058e-08
1.5691e-08
1.66083e-08
1.32326e-08
-9.54151e-07
2.6043e-08
0.000164482
-1.46967e-05
8.84765e-08
1.47544e-08
2.84534e-08
8.35804e-07
-0.000393012
4.14675e-09
-9.25015e-06
2.83648e-08
-7.09639e-08
1.69238e-08
2.0943e-08
-0.000281865
2.33435e-08
-0.00223442
5.75757e-09
2.20445e-10
2.86255e-08
2.43058e-09
2.26641e-08
-8.34854e-09
-4.49897e-06
1.55951e-08
1.72323e-08
0.00026923
0.00055912
3.01506e-08
1.09607e-08
-8.36558e-08
2.33323e-08
7.10234e-09
2.49588e-07
-0.000224416
-1.64033e-07
4.53893e-09
1.70852e-10
-7.1582e-05
4.69079e-09
-1.79609e-05
1.44099e-09
2.44537e-09
0.000149427
6.5291e-09
2.75704e-08
7.06131e-05
1.1381e-05
2.0452e-08
-4.39131e-07
2.32153e-08
2.32603e-08
2.38533e-08
-0.000189872
3.17942e-08
7.26055e-09
7.82404e-09
-0.00222207
-1.80699e-08
-1.94308e-07
2.85542e-06
2.03565e-08
6.53253e-08
8.41523e-09
-1.92232e-05
1.28633e-08
1.5115e-08
3.38094e-09
8.14109e-07
2.25591e-09
-8.24817e-07
-7.22731e-05
-1.67348e-05
-8.61466e-08
0.000271961
4.88893e-05
2.77199e-08
0.000169227
0.000151032
3.60588e-05
-6.35973e-05
0.00025079
-2.11882e-06
-3.07377e-07
-1.87148e-08
-0.000535829
6.56027e-09
-0.000229905
2.4305e-08
-3.83508e-09
-5.30215e-09
9.79549e-09
2.02923e-08
-3.72238e-07
9.07127e-05
-2.19243e-09
-3.8687e-09
7.52474e-06
9.82391e-07
5.00552e-10
-3.17538e-06
1.77436e-08
2.51987e-08
3.18633e-05
-2.79243e-06
-1.14112e-08
-1.72485e-08
4.3296e-06
2.94834e-05
3.38209e-06
1.88912e-08
-4.08046e-07
-3.61443e-07
6.62843e-05
4.81587e-06
5.66577e-07
2.48103e-09
2.29351e-08
-1.59793e-08
3.19886e-08
-1.74052e-08
3.26667e-08
-1.27659e-09
9.5445e-09
5.72847e-05
-4.08418e-07
7.0469e-09
-4.46981e-07
-0.0001419
5.60222e-09
1.36429e-08
-0.000183295
9.32795e-09
7.07115e-09
6.09656e-10
4.6343e-05
1.35894e-10
2.18015e-08
-9.68556e-05
-0.000223329
0.000437371
-3.63508e-07
4.85414e-05
2.24356e-08
3.04008e-07
1.22132e-08
7.23556e-09
1.03814e-08
-0.000781995
-6.38873e-06
2.02202e-08
2.86439e-08
1.29338e-08
0.000910462
-2.07254e-08
1.62776e-08
-1.88448e-09
-2.19733e-08
8.01089e-07
1.96585e-08
-5.00011e-08
1.45563e-08
5.93704e-06
6.08962e-09
-1.30256e-08
-1.33177e-08
-0.00021436
-0.000142912
1.08704e-09
-3.73164e-05
-1.15845e-07
4.34458e-07
1.00623e-09
-0.000552601
2.14043e-09
2.56303e-08
1.54804e-09
-3.11703e-07
-0.000667919
-0.000117038
-1.0094e-06
-8.76139e-05
2.91706e-08
-5.18495e-07
2.09904e-08
-1.36091e-08
-4.02413e-05
2.00839e-08
1.65647e-09
-3.4795e-09
2.32166e-08
5.45705e-05
2.10893e-08
4.83497e-09
6.22652e-08
2.21063e-08
2.00714e-08
2.48821e-06
1.39807e-06
8.07156e-05
1.28937e-07
4.87218e-09
-1.82357e-08
-0.00014229
4.249e-08
-8.29424e-05
-0.000476893
4.57409e-10
1.82483e-08
-0.000179947
-4.73088e-05
8.17819e-09
-2.25817e-07
9.85263e-09
2.70554e-09
1.84089e-08
2.3978e-08
1.01444e-07
-1.27196e-11
-5.18886e-08
-1.76312e-07
2.11398e-08
-7.02504e-09
2.0336e-08
5.78092e-09
2.78806e-08
-4.97407e-08
-3.8619e-08
1.31996e-08
2.06253e-08
1.92328e-08
3.99852e-08
-2.23201e-07
0.000322661
3.94872e-09
-1.53084e-08
1.15504e-08
1.74709e-08
-1.69012e-07
-3.28906e-07
2.97525e-09
-3.59549e-07
2.06708e-08
-0.000322469
9.35648e-09
2.73839e-08
-5.23954e-06
-7.94749e-07
2.44706e-08
-2.48096e-08
-2.57777e-05
7.12696e-09
1.83803e-08
6.67429e-05
-0.000181334
5.78561e-08
4.68794e-07
1.16878e-08
1.98273e-08
-0.000836775
-5.37186e-09
1.90758e-08
3.44459e-05
2.14735e-08
0.00119123
7.12543e-09
1.82192e-08
-8.76376e-10
1.3503e-06
7.23947e-05
2.24898e-08
3.96301e-09
2.15803e-08
1.28731e-09
1.79226e-08
-4.55422e-06
-3.41374e-08
1.79716e-09
0.00105991
-8.90473e-08
-3.56869e-06
4.68773e-05
-3.44418e-06
1.89911e-08
1.4457e-08
1.12967e-08
-2.50725e-06
-1.39658e-08
8.44271e-05
3.74507e-05
-4.00498e-09
-5.83774e-05
-2.37439e-06
-4.41016e-08
1.515e-06
-2.34678e-07
-9.38101e-07
-0.000710542
2.63346e-07
4.2256e-05
3.18223e-05
2.45214e-07
-2.52985e-08
-0.000132898
6.29688e-08
2.37236e-08
2.45897e-08
3.81519e-06
-2.40897e-08
5.50707e-09
-6.96373e-08
-1.26542e-07
8.77634e-09
-6.66119e-05
-2.04345e-08
-9.18326e-05
2.98647e-09
8.43776e-05
-2.59144e-07
-1.1472e-07
2.00429e-08
1.90305e-08
-2.26059e-08
-7.0172e-05
5.60924e-09
-2.20008e-08
3.42847e-08
-1.53132e-08
-4.95445e-12
2.39993e-07
2.00927e-06
1.92842e-06
1.05627e-06
1.50159e-06
-0.00150798
4.45348e-06
6.18166e-09
0.000689704
-0.00106503
1.70828e-08
1.89607e-08
1.58992e-08
8.38533e-05
1.09043e-09
-6.98226e-08
1.25307e-05
-2.20401e-09
1.35043e-08
-5.5541e-09
2.15737e-08
-1.95201e-07
-7.32826e-08
1.88034e-08
-2.04533e-05
-0.000705265
-4.36727e-08
-0.000141094
2.55557e-07
-0.00222214
-2.28409e-08
2.55548e-08
-0.00150109
0.000148501
5.5559e-07
2.10984e-06
1.01251e-08
1.36245e-09
2.17255e-08
-1.61339e-08
6.21381e-09
6.33771e-09
-4.43502e-08
2.27921e-08
1.06437e-07
1.60511e-08
2.13686e-08
2.11499e-08
-1.63888e-08
6.41588e-07
7.89717e-06
2.68667e-08
-1.13901e-07
2.20174e-08
-0.000990549
-6.22565e-09
1.76324e-07
4.52214e-09
5.83372e-07
-0.000216992
1.28994e-06
2.42753e-08
-2.88921e-07
-1.00256e-09
9.13861e-09
-0.000200005
2.15684e-08
1.01612e-08
-9.42816e-09
1.56091e-08
-7.66536e-05
2.31199e-08
-4.02985e-08
-1.09452e-08
-1.92947e-09
5.9234e-08
-2.14058e-08
2.64785e-08
-5.55662e-09
-0.000230317
1.24262e-08
5.27888e-05
0.000859767
-5.36194e-08
4.26231e-05
8.1339e-09
2.63732e-08
-7.76323e-08
-0.000161517
-1.09418e-08
6.23203e-09
3.64769e-08
-0.195713
2.01721e-08
-4.86171e-06
-1.70613e-08
-9.32604e-08
1.3427e-08
2.72457e-08
2.94016e-07
1.08845e-08
4.87812e-10
4.51822e-08
2.35283e-08
1.1348e-08
1.3739e-08
1.9507e-07
2.47034e-06
-0.000419342
-2.00908e-08
1.46748e-07
-0.00226169
-7.48767e-05
2.7018e-08
1.89205e-07
8.03041e-05
-1.02652e-08
-3.47855e-05
4.04561e-08
0.00187492
-1.52215e-06
2.63826e-08
3.72488e-09
1.36364e-08
2.91586e-09
3.77769e-08
2.08802e-08
-7.93891e-08
5.03955e-07
2.79509e-08
-8.07257e-08
-0.000187071
-2.95113e-08
1.99869e-08
0.000155946
2.70259e-08
0.000151504
-8.9239e-09
-7.13777e-07
1.88488e-08
-0.000204755
3.37627e-05
-3.05905e-09
4.13594e-09
-0.00076159
-1.69972e-08
2.34611e-05
1.74885e-08
2.14794e-08
7.95017e-05
1.3906e-08
-5.76374e-08
-1.16042e-06
-3.95726e-09
2.58975e-09
1.13425e-08
2.72976e-08
2.8709e-08
-0.000624098
5.86909e-05
-4.67739e-09
2.06012e-08
2.31105e-08
7.05627e-10
1.42566e-06
-0.000162464
1.65939e-10
-3.02541e-06
0.00163754
-3.22603e-06
0.000219839
1.72384e-08
1.10184e-06
-1.76208e-08
4.89141e-08
-4.95817e-09
1.74002e-07
-0.000138887
-8.23373e-09
1.56325e-07
0.000497958
5.23475e-06
-2.98408e-06
8.90164e-09
3.04924e-09
2.52074e-10
-1.24856e-09
5.94857e-05
8.50327e-09
6.80449e-09
2.14694e-09
2.91989e-08
8.71584e-10
2.05723e-08
-1.25512e-09
1.38594e-07
-4.95292e-09
0.00119254
8.17122e-07
-4.49756e-06
-0.000136909
1.07694e-09
-5.13301e-08
2.4959e-08
-1.53049e-08
-0.000196055
-1.81673e-08
-1.92625e-08
6.78888e-09
-3.27466e-07
-6.38129e-07
-0.0010107
6.47172e-05
7.50595e-09
2.38909e-06
3.04953e-08
2.55011e-08
-5.39601e-07
4.20229e-10
1.1506e-08
-1.17018e-06
-0.000616837
2.11884e-08
-0.0014418
-1.67796e-08
2.00411e-08
-1.61395e-08
-4.1653e-06
7.64751e-09
-9.75169e-09
3.59249e-05
-7.44271e-10
0.000123037
-0.000201178
4.13026e-09
7.17237e-07
1.73271e-08
-0.000109294
-8.95728e-08
-8.58352e-10
-0.000885502
-5.76769e-08
7.39994e-08
1.20278e-10
4.02098e-05
-1.48634e-07
3.09048e-06
-8.17005e-09
3.25229e-08
-0.000166203
1.83573e-08
-7.60215e-06
2.25128e-08
-9.95286e-09
1.18534e-07
4.16023e-09
4.35499e-05
-2.3008e-08
-1.08121e-07
-3.82174e-08
-4.04573e-07
-6.04841e-08
-6.28677e-07
2.0446e-09
0.000453538
1.12638e-07
0.000136213
-6.28351e-09
1.66184e-07
1.5434e-09
5.92339e-08
1.62398e-08
1.82817e-07
-0.000433802
-2.37995e-08
5.13979e-09
1.26001e-06
2.8032e-08
-0.00225614
2.25591e-08
-0.00121259
-5.80246e-05
3.64355e-09
6.52837e-09
1.76562e-08
5.49735e-10
3.16669e-08
-5.78658e-08
1.15679e-07
-1.91404e-07
3.76541e-09
1.22225e-08
-0.000430972
2.01241e-08
1.15803e-08
-0.0020269
1.34603e-08
2.24053e-06
2.283e-08
-1.74145e-08
-3.60675e-09
-0.000170644
-2.10337e-06
-0.000991428
-0.00169706
1.84324e-08
8.31898e-07
6.73774e-05
-1.85902e-06
8.3029e-09
8.83704e-09
1.271e-07
-0.000802661
0.000139912
-2.445e-06
-2.35202e-10
-3.93153e-07
-7.7121e-09
-0.000124634
-1.7223e-06
3.05159e-08
-8.52261e-08
-1.95776e-08
-4.12975e-07
5.07427e-07
9.12599e-09
-2.29432e-08
-0.00114185
2.18711e-09
0.00157862
2.84974e-09
2.25181e-08
-6.17178e-05
-0.000119432
2.56585e-08
-1.78681e-09
7.61468e-09
2.07642e-08
-9.49668e-09
-3.0575e-06
-5.21615e-09
9.98191e-09
9.68866e-09
4.26298e-08
1.4397e-08
1.1988e-08
-0.000255953
1.53276e-09
-0.000152199
5.76922e-05
0.000110753
-7.90155e-08
2.91676e-10
0.000240417
7.15847e-09
-0.000574793
0.00099435
0.000599138
-2.1771e-08
-6.56956e-05
-4.67891e-05
2.90662e-08
-1.2572e-09
9.88896e-08
2.89911e-05
-0.00081638
1.90261e-08
3.2213e-09
3.40315e-05
-0.00526798
-0.0175406
3.4027e-09
-6.36978e-08
7.47285e-07
1.08748e-08
3.98993e-05
7.25186e-06
5.86923e-05
1.00058e-05
1.51615e-08
2.42861e-08
2.49e-08
1.12464e-07
7.65165e-05
3.06829e-08
-2.77665e-09
1.22452e-09
-5.36389e-08
7.854e-05
4.11124e-08
0.000332794
1.24792e-05
0.000160521
-1.442e-06
-5.29723e-09
8.17257e-09
-0.00128894
2.39831e-08
2.25917e-08
-2.1529e-08
-3.44074e-08
-5.89498e-10
2.04856e-05
-2.64884e-07
-3.22062e-09
-0.000172322
1.33773e-08
-9.72218e-10
2.35415e-05
1.11725e-07
8.10289e-08
1.22312e-08
-2.4927e-06
-6.40623e-05
2.75922e-09
-0.000905737
0.00165489
0.000169275
-0.000484066
-1.12644e-07
1.77716e-08
2.36954e-08
0.000120359
2.65427e-08
-0.000958739
-5.01034e-09
-0.000154974
0.000118742
2.92701e-09
-3.47496e-08
7.18072e-09
6.73957e-10
8.70145e-05
0.000155368
-1.81662e-09
2.58422e-05
3.00668e-08
4.88927e-09
-5.38249e-08
1.8495e-08
-3.30542e-07
6.38797e-09
1.41405e-06
-2.28494e-07
1.40835e-08
2.93884e-08
3.27966e-06
-0.000175853
-9.23205e-09
-1.65221e-08
-9.53053e-09
1.34407e-08
2.70897e-08
1.03413e-08
7.23069e-05
0.000118121
-1.03172e-05
2.17028e-08
2.72252e-08
-1.96303e-08
1.0328e-06
1.86027e-08
-2.12978e-08
-5.00627e-07
-3.09446e-08
-0.00103787
2.71838e-08
-0.000121739
0.000108093
2.71498e-09
7.76974e-05
-2.70276e-07
2.71906e-08
-5.12359e-06
-1.82521e-08
4.2609e-05
1.97441e-09
-9.3541e-09
-1.29672e-08
2.46045e-08
-7.25309e-05
2.35515e-08
-6.05943e-09
-8.82583e-08
-8.96491e-05
5.85642e-05
3.36616e-09
2.35002e-08
1.55653e-08
2.92084e-09
-2.44381e-07
9.6711e-09
-1.94082e-07
1.7894e-08
-0.000138117
2.23802e-09
5.65763e-05
1.91072e-08
-0.000229625
1.82469e-08
2.60897e-08
0.000178768
-5.11328e-06
-5.76648e-06
0.000191251
-3.08095e-07
-7.11507e-09
-1.8187e-09
-6.84243e-05
-1.69184e-09
1.81467e-08
-5.9431e-07
2.22363e-07
3.87782e-05
6.01628e-05
-4.12475e-07
-0.000645957
-1.34489e-07
0.0282393
4.07604e-08
2.88708e-08
1.1334e-08
-0.00018812
-3.41191e-08
-0.00015648
0.000132217
7.63839e-09
2.96672e-09
1.55681e-08
-5.25028e-05
6.46228e-06
2.2479e-08
5.22399e-09
-2.35228e-08
1.13354e-08
-3.48745e-09
9.54159e-05
-1.18951e-07
1.28781e-08
-4.79323e-07
-2.1673e-07
-0.000205296
-1.22262e-07
-2.02492e-08
2.43135e-08
-0.000167398
2.66057e-08
-2.6121e-07
-0.000361958
-1.23457e-08
5.23877e-09
-2.59054e-06
1.70484e-06
-2.04961e-09
0.000101517
2.80312e-08
3.16309e-07
9.10238e-09
1.38863e-07
1.25395e-08
-4.81498e-05
2.25409e-08
-2.42794e-08
-6.38446e-07
9.11192e-05
-1.2942e-09
4.6617e-08
-1.01118e-09
1.93995e-07
3.69435e-10
0.000118586
9.98484e-09
2.22229e-08
1.72063e-08
1.12607e-08
2.11581e-09
1.49849e-08
-3.99812e-09
1.04617e-08
1.38624e-08
-2.86869e-07
5.79512e-09
1.5711e-08
1.31276e-07
-2.50594e-07
-1.38999e-07
-8.6549e-11
1.79138e-06
-3.23097e-06
2.5672e-07
-7.87285e-08
8.2388e-07
-4.19254e-07
0.00010624
-1.3866e-06
2.13634e-09
-0.00135293
-0.00117472
1.79582e-09
2.7456e-08
2.6739e-08
1.45915e-05
1.55562e-07
1.62231e-08
-2.20635e-06
-0.000182813
3.28546e-08
6.97016e-09
-0.000846629
0.00012356
2.39166e-07
2.25239e-08
-0.00138803
-0.00021467
3.54954e-07
-9.92502e-10
-0.000178322
3.99397e-07
5.04053e-08
3.10987e-05
2.45205e-08
2.60546e-08
1.72934e-08
-2.04828e-07
9.73588e-09
-0.000902537
-0.000137418
4.69297e-09
-0.00015997
1.68868e-07
6.256e-05
2.06091e-08
-1.8321e-06
2.1012e-09
1.57828e-08
7.38643e-05
0.000468554
-2.53531e-06
0.00174007
-2.96374e-08
-5.31214e-09
2.45317e-08
-3.7705e-06
0.00015605
-2.20803e-09
-3.15914e-09
-9.66783e-09
1.73124e-08
-1.54831e-08
0.000197899
-0.000765802
-4.03251e-08
2.16396e-08
8.22093e-09
1.1187e-05
2.89273e-09
-3.21279e-08
6.87563e-09
-2.21698e-08
7.92608e-07
0.000354254
-0.000205388
-1.52931e-06
8.71802e-09
3.06515e-06
2.20611e-08
-2.19767e-07
-0.000154674
7.05305e-05
-3.30623e-09
-1.1205e-10
1.53896e-08
2.9397e-08
9.83531e-09
0.00016771
-0.000189802
1.39331e-08
3.49283e-08
2.81662e-09
1.20691e-08
-1.81666e-06
2.13496e-08
-0.000996123
-1.2209e-07
1.92841e-07
1.65955e-09
1.33455e-08
-0.000127244
6.33164e-09
-2.78268e-06
9.1371e-05
5.95515e-09
-0.000211255
8.05127e-08
5.57432e-07
-1.19985e-06
-8.46885e-05
6.20905e-05
1.76879e-07
1.98377e-08
3.71922e-07
2.02515e-08
6.21206e-08
1.53009e-08
-0.00107286
6.67951e-08
-0.0114261
-0.00291521
-4.59937e-08
2.57506e-09
-7.43702e-08
1.7217e-08
1.5611e-09
3.944e-06
3.53195e-08
-2.81837e-08
8.22492e-09
1.54829e-08
-0.000372386
-2.38491e-08
5.07599e-06
-5.54353e-09
1.72571e-08
0.00013151
4.78018e-05
7.30746e-09
1.27909e-07
3.192e-08
6.59441e-08
1.69625e-07
-4.88109e-09
-7.50954e-09
2.74407e-08
-9.70007e-06
-6.84666e-08
-0.00132438
-1.75125e-08
3.97418e-05
1.00123e-06
1.74366e-08
0.000228551
3.61804e-08
-0.000353231
7.32065e-08
-3.23187e-05
0.00538989
0.00236037
-0.00182818
4.90394e-05
3.87473e-07
1.59672e-08
0.000147316
8.32659e-08
-4.96919e-10
4.9922e-05
0.000972739
-7.1563e-09
6.57695e-09
1.35985e-08
1.40547e-08
8.12551e-09
-0.000224185
2.16907e-09
-1.57459e-08
1.88287e-08
-7.91274e-08
9.31539e-09
3.58777e-07
2.67697e-08
-0.00135474
-1.34585e-08
5.54744e-08
1.53512e-08
-9.56173e-09
-7.8106e-09
0.000725816
-2.02255e-07
6.46322e-09
9.68819e-07
-9.89137e-06
4.71532e-05
1.14232e-08
-0.0016576
2.00399e-08
-1.03142e-05
-2.38202e-09
-1.76197e-08
4.32658e-05
1.07218e-07
6.35697e-05
-2.71105e-05
2.53764e-07
-0.000198435
-3.11669e-09
2.74432e-08
-7.86567e-05
3.41136e-08
-2.45443e-08
0.000298722
1.22203e-08
-2.57248e-07
-1.55611e-08
4.42512e-09
-2.17212e-09
0.00102231
0.000980903
6.60957e-06
-1.0142e-06
2.66757e-08
-7.39818e-08
6.95254e-05
-2.24266e-08
8.56303e-09
-3.4402e-07
3.56409e-08
8.69791e-07
6.71715e-05
0.000160326
8.27082e-05
6.15734e-08
1.36052e-08
-0.000130143
2.9893e-08
1.15962e-07
4.10156e-09
-2.79826e-05
-1.50106e-08
2.60514e-07
8.54206e-05
-1.43152e-07
1.31665e-08
-4.89221e-08
-1.11e-06
2.92111e-09
-4.31187e-07
7.32326e-09
-0.000693082
-0.000132078
-3.28802e-07
-2.90544e-06
1.63147e-08
5.23945e-05
5.30991e-07
-5.27558e-09
6.20498e-09
4.06626e-09
1.38669e-08
7.24561e-08
2.1159e-09
3.3091e-07
-4.872e-10
1.23155e-08
-7.10223e-05
4.64664e-09
1.37491e-08
3.567e-10
1.1065e-09
5.21708e-05
-1.38608e-09
1.68854e-08
-3.07966e-05
8.6114e-08
-0.00135186
1.05796e-08
-3.12009e-05
1.06199e-07
0.000198946
-1.88922e-08
1.86854e-07
4.45496e-09
-5.57712e-09
5.36883e-07
6.42759e-07
2.27844e-05
-0.000193475
-1.86161e-06
-0.000674391
-7.72889e-08
8.72226e-08
-1.44398e-07
-0.0332262
-3.47507e-08
5.08976e-09
1.04403e-08
4.00919e-08
-6.21798e-08
0.000158443
-3.97109e-08
-0.000384395
-0.000760665
7.82598e-07
1.04986e-08
0.00052006
2.40766e-07
8.41692e-09
-6.65384e-09
2.25512e-08
0.00101413
5.2087e-09
0.000158034
3.08322e-09
9.35704e-09
-6.39252e-05
3.70973e-07
-3.58073e-09
9.35133e-09
-0.000218848
-3.59803e-09
-2.48969e-08
2.71374e-08
2.25589e-08
1.75064e-08
-9.6614e-09
1.78582e-06
-1.34414e-06
3.60855e-07
7.60292e-06
6.71193e-05
6.0406e-05
-0.000197676
1.9332e-08
2.52666e-08
-6.08958e-08
1.38235e-08
2.5747e-07
-0.00164791
5.9055e-05
2.38582e-08
-2.63105e-09
-0.000224733
0.000208982
2.00543e-08
4.59589e-09
-6.62586e-08
5.41108e-05
-0.000768999
1.87169e-08
1.89541e-08
6.20222e-09
7.62492e-05
6.64367e-07
-6.89635e-07
-3.09165e-09
3.39693e-07
3.52192e-09
4.92364e-09
-1.29991e-05
-5.59004e-09
2.07466e-08
1.44685e-08
-0.000237769
-3.3669e-08
8.32216e-05
6.78453e-09
2.84049e-05
1.30571e-08
3.46257e-07
2.40326e-08
1.84621e-08
-2.90134e-06
-0.00119705
-7.9884e-07
-8.20027e-05
8.41768e-05
7.79128e-10
-0.000117885
1.60522e-06
3.37012e-08
0.0017471
9.32496e-05
-2.85936e-07
6.22117e-10
-6.34012e-06
6.55294e-05
1.99121e-08
-1.05789e-07
0.000135503
-2.1412e-08
1.42146e-08
9.98498e-09
1.7734e-08
1.91803e-08
5.33636e-08
6.70086e-06
-7.80767e-07
-8.13571e-08
3.37981e-08
7.34552e-09
-0.000378322
3.04996e-10
-6.45888e-08
-8.82239e-08
1.782e-09
9.87654e-09
-1.6467e-09
-2.26035e-08
-3.02597e-05
8.9833e-09
-6.6894e-05
-1.96891e-09
0.00128685
-3.68341e-05
3.79075e-08
-7.7938e-09
-1.87467e-11
-0.000187214
2.55471e-08
7.88802e-09
8.72392e-09
-2.12997e-07
-0.000552885
9.5214e-09
3.20663e-05
-2.1062e-07
0.000396544
2.11442e-09
1.04745e-08
2.104e-08
6.44571e-09
2.73274e-05
5.1802e-05
-4.91177e-06
-1.44428e-09
-3.85657e-08
-2.41424e-09
5.70793e-05
-9.17137e-05
1.4216e-05
1.22442e-08
3.23392e-08
-0.000197305
1.91547e-08
1.34468e-08
9.738e-06
2.67881e-07
7.89779e-08
3.91289e-07
-2.96293e-07
-3.00581e-08
1.70961e-08
-0.000198975
2.93686e-08
1.00192e-08
7.37061e-05
1.13136e-08
1.4993e-08
-4.02656e-05
1.30187e-08
5.63933e-09
-2.918e-07
-3.30825e-07
7.45354e-06
1.33323e-08
-6.52219e-08
2.23435e-08
4.98666e-07
-1.85789e-09
-7.23091e-06
0.00175173
-1.43723e-05
-9.91398e-05
-3.18242e-06
2.47921e-08
-0.000185629
1.78461e-06
5.91287e-09
7.39649e-08
3.80921e-07
-8.26881e-08
-5.40521e-07
-0.000154922
4.26926e-05
-0.00016398
1.39729e-07
1.4427e-08
-5.65953e-08
1.58824e-08
2.16891e-05
2.12053e-08
-1.06485e-09
2.48462e-08
1.98079e-08
3.52789e-09
-1.08162e-07
3.33604e-05
2.26469e-08
1.97928e-08
2.83219e-08
-0.000215756
2.18524e-08
-0.000199274
-0.00113084
-3.29769e-06
-1.01114e-09
3.20928e-09
-5.04332e-05
-5.81667e-06
4.70085e-09
9.97292e-08
3.50551e-09
1.24618e-07
1.39743e-07
-2.18299e-07
1.29303e-08
0.00354391
6.66803e-09
1.98027e-08
3.83246e-07
-0.000143435
1.35812e-08
-6.15808e-09
2.04539e-08
-6.93061e-05
2.37361e-09
2.54101e-08
1.43848e-08
2.67386e-08
-3.37764e-06
-7.96566e-05
0.000804838
1.4372e-07
-0.000188985
-0.000905275
2.44612e-08
9.96956e-09
1.78801e-08
-3.32335e-06
2.17287e-08
-2.847e-08
1.5902e-08
1.81294e-08
2.08964e-08
-0.000130179
-4.41598e-09
-1.28959e-06
2.4225e-08
-3.19885e-07
4.16641e-08
1.16646e-06
1.40379e-10
9.63494e-09
1.92332e-08
-1.3645e-07
0.000216546
1.89538e-08
0.000119077
7.45868e-08
-8.73103e-08
4.20115e-08
1.98879e-08
-3.00877e-07
4.66281e-05
2.10146e-08
1.16736e-08
-3.74815e-05
-2.43207e-05
1.47575e-07
5.81309e-05
-1.25572e-08
-0.000424093
1.06295e-08
2.08337e-08
0.00136438
-9.99465e-09
-0.000530161
6.61202e-09
1.14632e-08
6.5674e-09
-0.000101524
1.70702e-05
2.13526e-08
-3.09192e-06
-9.8696e-07
1.53093e-08
1.36763e-08
3.00096e-08
-1.43063e-06
-5.51358e-05
3.86706e-08
-1.38517e-08
-3.65418e-10
-4.7888e-11
2.31747e-08
2.54322e-08
9.12866e-09
-6.53167e-06
2.02997e-08
2.21349e-07
7.93111e-06
1.24526e-08
3.45261e-08
-0.001814
-3.67928e-08
-5.95354e-10
1.80679e-07
1.19077e-08
0.000661226
-3.54354e-08
0.00011742
-3.05988e-08
4.77798e-09
-1.65917e-07
9.65365e-08
2.9424e-08
-0.000220331
1.87782e-07
-2.09148e-08
0.000889797
4.54251e-09
-9.93808e-07
2.46506e-07
-6.34716e-07
1.60858e-08
2.18438e-08
2.69453e-08
-1.30772e-06
1.36705e-07
1.1583e-07
-0.000227075
6.20159e-05
-0.00110251
1.6481e-09
-3.13544e-06
-0.00014108
2.04556e-05
1.80153e-08
8.94565e-10
9.10161e-09
-0.000477604
-2.85971e-08
1.59817e-08
-1.43512e-07
-0.000176609
-5.06164e-05
1.10954e-06
-3.13772e-07
-0.000177119
-0.000420532
2.72103e-08
-0.000933273
-4.67527e-06
1.35994e-08