/*--------------------------------*- C++ -*----------------------------------*\
| =========                 |                                                 |
| \\      /  F ield         | OpenFOAM: The Open Source CFD Toolbox           |
|  \\    /   O peration     | Version:  v2012                                 |
|   \\  /    A nd           | Website:  www.openfoam.com                      |
|    \\/     M anipulation  |                                                 |
\*---------------------------------------------------------------------------*/
FoamFile
{
    version     2.0;
    format      ascii;
    class       surfaceScalarField;
    location    "450";
    object      phi;
}
// * * * * * * * * * * * * * * * * * * * * * * * * * * * * * * * * * * * * * //

dimensions      [0 3 -1 0 0 0 0];
oriented        oriented;


internalField   nonuniform List<scalar> 
20673
(
-0.173779
0.162153
0.0116256
0.372859
-0.30676
-0.0661012
0.0207382
-0.0442912
0.023553
0.152443
-0.278765
0.12632
-0.357567
-0.120719
0.478283
-0.0195702
-0.0030047
0.0225749
0.0311296
-0.0259507
-0.00517889
0.00712953
0.0174377
-0.0245672
0.0108996
-0.0210942
0.0101946
-0.055162
0.158241
-0.103079
-0.108314
0.106831
0.00148306
0.151205
0.00454952
-0.155754
-0.0987837
-0.00204943
-0.00028111
0.00233054
0.205804
-0.0401356
-0.165669
0.241385
-0.243933
0.00254686
-0.108153
0.301861
-0.19371
0.14296
-0.164851
0.0218904
0.152056
-0.000851363
0.335004
0.267135
-0.60215
-0.378637
0.573587
-0.194951
0.0283906
0.00273898
-0.599463
0.331862
0.267594
0.0399658
-0.0328363
-0.305149
-0.062988
0.368134
-0.00431482
0.0290187
-0.0247039
-0.105305
0.0784146
0.02689
-0.100174
0.0523806
0.0477931
-0.0656924
0.0533131
0.0123793
-0.149113
0.111562
0.0375512
0.156702
-0.172471
0.0157694
0.195463
-0.207616
0.0121519
-0.0957671
0.138367
-0.0426004
0.174735
-0.0500275
-0.124708
-0.389097
0.360686
0.0284097
0.0891331
-0.10937
0.0202365
-0.369229
-0.230242
-0.00352946
-0.00102908
0.00455854
-0.187782
-0.0553636
-0.013961
0.000740865
0.0132201
-0.585477
0.595265
-0.00982535
0.685129
-0.39189
-0.29324
0.367761
-0.542741
0.174956
-0.0506536
-0.0173975
0.068051
-0.17087
-0.157824
0.328691
0.0978802
0.0698552
-0.167735
0.148681
-0.00572068
-0.0178278
-0.112718
0.130545
-0.00401377
0.01067
-0.0066562
-0.684273
0.439618
0.24463
0.0443897
-0.166871
0.12248
-0.281443
0.0306263
0.250817
-0.00718907
0.00317529
0.0567961
0.117939
0.166728
-0.274882
0.215043
-0.225244
0.0102007
-0.113681
0.00536726
0.26907
-0.354044
0.0849716
0.0866522
0.160981
-0.247634
-0.334756
0.163883
-0.0157753
-0.0168449
0.0326201
0.166606
0.206251
-0.00204943
-0.169234
0.504227
0.0164977
-0.0360679
-0.075751
0.0834485
-0.00769748
-0.515796
0.327439
0.265852
-0.361465
-0.107295
0.105558
0.00173699
-0.161811
0.183029
-0.0212174
-0.52559
0.168021
-0.0134646
0.0243643
-0.000198605
-0.00515427
0.00535288
0.146668
-0.451821
-0.00798402
-0.00697439
0.0149584
-0.0184624
0.145682
-0.12722
0.0059711
0.000618206
-0.00658931
0.0743595
0.19119
-0.265552
0.0310326
-0.0283175
-0.00271511
-0.612428
0.322432
0.289994
-0.330484
0.602209
-0.27173
-0.253616
0.00732955
0.0253256
-0.0326551
0.00393498
-0.00746444
0.00263488
0.00372287
-0.00635775
-0.213491
0.287849
0.365079
0.208586
-0.573671
-0.0866707
0.0109197
0.214195
-0.169806
0.520526
-0.152785
-0.000884375
0.00310204
-0.00221766
0.122389
-0.00227696
-0.120112
-0.0534636
0.368369
-0.314911
-0.261061
0.0507109
0.210349
-0.0385466
-0.0481241
0.0253853
-0.0349843
0.00959901
0.0873338
-0.126252
0.0389178
0.130717
-0.00199157
-0.128725
-0.0660647
-0.0368799
0.102945
0.0512915
-0.064471
0.0131795
-0.457889
0.564059
-0.106191
0.121407
0.00949548
-0.130902
0.0183071
-0.0689606
-0.273642
0.0726056
0.201035
-0.487821
0.0910952
0.396715
0.0288603
-0.0214967
-0.00736362
-0.00184618
-0.0633408
0.065187
0.0951117
-0.11294
0.106001
0.195859
0.163604
-0.151038
-0.0125667
0.00289996
0.00659347
-0.00949343
-0.00263954
-0.0113214
-0.112423
0.133014
-0.0205912
0.0261254
0.00273488
-0.274901
0.118866
0.156035
0.00660253
-0.00736616
0.000763629
-0.360871
0.50217
-0.141305
0.0109449
-0.0123397
0.00139478
-0.00564897
0.00749035
-0.00184138
-0.078791
0.165793
-0.0870021
0.502567
0.182561
-0.0983329
-0.00896176
0.00137775
0.00405738
-0.00543513
-0.0571992
-0.0429745
-0.61276
0.123603
0.489132
-0.247472
-0.0135898
0.10136
0.219447
-0.320809
-0.538638
-0.0741516
-0.498129
0.592917
-0.0948261
0.0223806
0.00659966
-0.0104827
0.00388299
-0.0846128
-0.190288
0.148501
-0.306327
0.20336
-0.581999
-0.1263
0.0650807
0.0612191
0.00634516
0.0336206
-0.0180625
-0.155716
0.0516206
-0.000329115
-0.110153
0.437593
0.100157
-0.178948
-0.0956705
0.114667
-0.0189964
0.454906
-0.19376
-0.261154
-0.213983
0.277417
-0.0634351
-0.0715958
0.023851
0.0477448
-0.0658973
0.33175
0.0381845
0.00521771
-0.0434022
0.0170948
0.0444187
-0.0615135
0.020787
-0.30223
0.507648
-0.170046
-0.337612
0.225916
-0.214696
-0.0112206
0.156661
0.00405405
-0.160716
-0.000693141
0.00729567
0.0219836
-0.116922
0.0949386
-0.0834095
-0.0425189
0.125928
0.219787
-0.21622
-0.00356731
0.00183875
0.00267068
-0.00450943
-0.175585
0.0137739
0.0327191
-0.088978
0.056259
-0.00086147
0.00683257
-0.0745201
-0.0517797
-0.146942
0.219498
-0.0725563
-0.086552
-0.00477628
0.0913283
0.239024
0.361851
-0.600876
0.113965
-0.0266312
-0.135994
0.023571
0.0289036
-0.0949684
-0.204626
-0.0690178
-0.159251
0.156062
0.00318874
0.136245
0.221143
-0.357393
0.023864
0.0975429
0.150114
-0.143852
-0.00626227
0.0169888
-0.00730129
-0.00968749
0.110284
0.00583816
-0.116122
-0.00496906
0.235871
-0.230904
0.0552277
-0.0425493
-0.0126784
-0.0419338
-0.0712991
0.113233
0.0122226
-0.00562295
-3.67825e-05
0.0109817
0.0522312
-0.0140467
-0.258044
0.403742
-0.145703
0.00435399
0.118035
-0.0146885
0.17139
0.299252
0.155646
-0.094106
0.459178
0.190561
-0.0934014
-0.0971602
0.031068
-0.0353828
-0.031394
0.128611
-0.0972167
-0.000865314
0.00270406
0.153515
-0.152062
-0.00145313
-0.108093
0.0986097
0.00948313
-0.0113003
0.0774243
-0.066124
-0.000372417
0.0030073
-0.114781
0.096466
0.018315
0.625142
-0.275488
-0.349662
-0.0323123
-0.0130498
0.0453621
-0.102764
-0.00254068
0.638587
-0.638634
-0.306908
0.25344
0.00539389
-0.0809508
0.0755569
-0.0882995
0.0887074
-0.000407892
0.0250355
0.177619
-0.202655
-0.342126
-0.342166
0.165163
-0.00176473
-0.163398
0.155301
0.00136027
-0.00668112
0.00648252
-0.0764438
0.10482
-0.0283764
-0.278866
-0.110233
-0.0935344
0.362602
0.00914679
0.12157
0.0152516
0.0276072
-0.0428588
-0.287515
0.0735316
0.033186
-0.0242397
-0.00894624
0.00812648
0.000561741
-0.00868822
-0.00616554
-0.101927
-0.41649
-0.0713411
-0.0588468
0.0424676
0.0163793
0.150823
-0.00605295
-0.14477
0.0101244
0.0040972
-0.0142216
-0.493245
0.294032
0.199208
0.0376219
-0.0533972
-0.398711
0.140662
-0.00118496
0.116788
-0.115603
-0.129553
-0.455955
-0.00420608
0.000867838
0.00333824
0.0266806
-0.0197988
-0.0068818
0.0620809
0.179304
-0.120214
0.0177175
0.102496
0.0367957
0.182991
-0.459778
0.0432769
0.00443025
0.0847028
0.125218
-0.0149346
-0.00946731
0.162982
-0.0515474
0.0193576
0.0321898
0.0095548
-0.00142833
-0.596801
0.493374
0.103398
0.1955
-3.67786e-05
0.000524588
-0.00140896
-0.00355172
-0.00241912
0.00597084
-0.308146
0.547165
-0.462069
0.445475
0.0165806
-0.0155456
0.00124093
-0.120206
0.09589
0.0243158
0.40053
-0.602406
0.201873
-0.0777577
0.0926729
-0.0149152
-0.147202
0.143118
0.00408399
-0.103011
0.0164589
-0.167468
-0.0140028
0.18147
0.583177
-0.22133
0.139753
0.00677522
-0.146528
0.00838173
-0.00903337
0.000651643
-0.288916
0.389444
-0.100531
0.0529478
-0.134485
0.0815371
-0.0387671
-0.00921363
0.0479808
-0.239519
0.340876
-0.280572
-0.0734749
-0.0261467
-0.10676
0.132907
0.000568755
0.0121859
-0.0127546
0.106645
-0.0846611
0.123601
0.06696
0.0149499
0.190854
0.240272
0.372223
-0.612497
-0.00237638
0.00375412
0.0034802
0.035658
-0.0391382
0.0564452
-0.0903364
0.0338912
-0.383958
-0.0758295
-0.00239253
-0.0062709
0.00866343
0.00073061
-0.00111348
0.000382873
-0.0401511
0.0728702
0.0307288
0.000303769
-0.124331
0.105869
0.25269
0.476466
-0.666524
0.190024
-0.1443
0.00346984
0.14083
-0.00155888
-8.55104e-05
0.00164439
0.119447
-0.135962
0.0165158
-0.171085
0.257736
-0.107071
0.0306269
-0.146267
-0.0153739
-0.0934865
-0.458803
0.552251
-0.066694
0.0633869
0.00330715
0.253119
0.284805
-0.537936
0.0509525
0.00427523
-0.210711
0.235746
-0.0718867
0.472413
0.0855973
0.112042
-0.197639
0.0484134
-0.131823
0.106434
-0.11121
0.0228637
-0.100621
-0.00229229
0.131367
-0.129075
0.379594
-0.091964
-0.287633
0.0860476
-0.0978169
0.0117693
-0.0258067
-0.0257407
0.0228002
-0.01932
-0.23012
-0.26313
0.0775874
-0.0250675
-0.0525198
-0.487776
0.0201691
0.467607
0.187799
0.191791
-0.477139
0.116261
0.0617002
-0.0446054
-0.0600124
0.52276
-0.462768
-0.108954
0.107769
-0.181514
0.0140465
-0.265856
0.402095
0.00322599
0.161937
-0.248305
0.0295621
0.218742
-0.00821158
0.00196941
0.00624217
0.0860323
-0.127966
0.127056
-0.129333
-0.276375
-0.109579
0.385948
0.0712149
-0.351789
0.000833263
-0.00931794
0.00848468
0.0042604
-0.0025477
-0.00171269
0.286666
0.215499
-0.394926
0.630787
-0.235892
-0.0586289
-0.0080652
-0.289509
-0.0704639
0.359967
-0.000320845
-0.00483343
0.104661
-0.381044
-0.00384016
-0.00036592
-0.334046
0.256677
0.0773664
0.104086
-0.0101677
-0.0939179
0.218775
-0.144582
-0.0741935
0.0179379
-0.0123528
-0.00558513
0.0641495
-0.211091
0.00112883
-0.0756489
-0.0520012
0.0104106
0.0415906
0.183093
-0.0974963
-0.0629144
-0.0572913
-0.0068481
0.0715797
-0.0647316
0.057373
-0.28238
0.225006
-0.00394118
-0.00398406
0.00792524
-0.0524216
0.0201094
-0.000659862
0.00139047
-0.189496
0.169194
0.0203024
-0.0100936
0.00026853
0.00982511
-0.159688
-0.0592606
0.218949
-0.00143721
0.00445534
-0.00301814
-0.0449133
-0.00708789
0.0737207
-0.0946611
0.0209404
0.0950277
-0.021307
0.0315782
-0.01084
-0.564194
0.332438
0.231754
0.145357
0.00475743
-0.00571629
0.00861624
-0.176961
0.293928
-0.116968
0.222523
4.45458e-06
-0.222528
-7.12579e-05
-0.000209852
-0.0672074
0.0726013
-0.212986
-0.0547328
0.267717
-0.0835221
0.0722218
-0.0378423
-0.0278501
-0.605483
0.325781
0.279679
-0.00685963
0.00121066
-0.112027
0.0353434
0.0766832
-0.27012
0.523229
0.511678
-0.359643
-0.152046
0.10547
-0.593244
0.237041
0.2706
-0.0114485
0.0974961
-0.0350428
0.0522133
-0.0171705
-0.0376694
0.021358
0.0163114
0.00831477
-0.00748151
-0.371585
-0.00798682
0.379568
-0.0638229
0.116771
-0.00974387
0.0103635
-0.000619655
0.126658
-0.1675
0.0408426
0.00723528
-0.00168395
0.000125072
0.0051839
0.213966
-0.484151
0.270165
0.0922027
-0.0357575
0.32588
-0.498369
0.172479
-0.0138097
0.0514316
-0.145985
-0.188773
0.0163406
0.00159727
-0.0298724
-0.11733
0.182948
0.0879278
-0.270877
0.458303
-0.573769
0.115464
0.142103
-0.132957
-0.0950087
0.0993627
0.126607
-0.129717
0.00311007
-0.0130045
-0.0381061
0.0511105
-0.00719541
0.00575821
0.0138959
-0.00377152
0.00442135
0.135331
0.0637294
-0.118891
0.0196392
-0.481718
-0.00665081
0.00309908
-0.0180588
-0.00911361
0.0271725
-0.0333767
0.29093
-0.257556
0.0960102
-0.0948814
-0.309378
0.502289
-0.192914
0.0378139
0.0756083
-0.113422
-0.0995262
-0.234522
-0.314887
-0.249309
-0.29593
0.112283
0.183646
-0.0234229
-0.00686235
0.0302852
-0.0788443
-0.217086
-0.0171867
0.0177555
0.00447243
-0.00148658
-0.00298585
0.0806087
-0.0851418
0.00453303
0.028077
-0.0452883
0.0172112
-0.213974
0.271345
-0.0333288
-0.0255181
0.0384876
0.589871
-0.241718
-0.348161
-0.0690535
-0.297159
0.120197
0.218038
-0.340436
0.122396
-0.0771197
-0.0719937
-0.367077
0.607345
-0.390142
0.463003
-0.0728638
0.391113
-0.0652418
0.0930296
-0.104478
-0.333264
-0.279165
-0.00873251
-0.00136114
-0.00235304
0.0345194
-0.0321664
0.00351511
0.00317794
-0.00669305
-0.0826635
-0.0321175
-0.00552856
-0.0115273
0.0170558
0.00971938
0.00239179
-0.0121112
0.16756
-0.0409027
-0.474893
0.103304
0.111401
0.0153096
-0.126711
-0.268578
0.0807954
0.208788
-0.195211
-0.0135773
0.22384
0.401296
0.0171885
0.0324783
-0.0172267
-0.0467142
0.0443611
-0.189003
0.20984
-0.0208375
0.111462
0.0263091
-0.137772
-0.164451
-0.0250454
-0.261737
0.206372
0.00620704
0.1204
0.197338
-0.243326
0.0459871
-0.0810797
0.0865156
-0.00543588
-0.173887
0.279886
-0.440427
0.380399
-0.00332722
0.00300638
0.00939104
0.00283157
0.0133806
-0.00398958
0.0428775
0.0922041
-0.135082
0.0061926
-0.00267749
0.00735411
-0.0112953
-5.442e-05
-0.0054535
0.00550792
0.00531835
-0.000749679
-0.00456867
0.149723
0.369068
-0.518823
-0.133569
0.00250541
0.131063
0.226421
-0.0290848
0.348105
-0.262403
-0.0857037
-0.115322
0.0306571
0.0846646
0.00438105
0.490017
-0.544735
0.0546766
0.0138041
-0.140012
0.126208
-0.00552968
-0.1506
0.156129
0.00438334
-0.00302815
-0.00135519
0.347068
0.242796
0.122971
-0.00868259
-0.114289
0.00140616
0.0010594
-0.00246556
0.103664
-0.0188653
-0.0847989
0.000904725
-0.00942722
0.00852249
0.240321
-0.253857
0.220478
0.52707
0.111476
-0.149488
-0.0260981
0.51307
-0.299126
-0.0286262
-0.00945126
0.0380775
-0.0322701
-0.00539936
-0.154645
0.152352
0.00296442
-0.00578109
0.00281667
0.024165
0.190877
0.0994163
0.0145488
0.00294975
-0.00300417
-0.00840468
0.0528234
-0.0124659
0.0930746
-0.00328138
-0.0923892
0.106416
0.0165552
0.122665
-0.149657
0.0269917
0.0884546
0.032049
-0.120504
-0.173084
0.179406
-0.00632242
0.0923973
-0.109731
0.0173338
0.0238272
-0.139541
-0.0141196
0.15366
0.106611
0.00356796
-0.110179
-0.53648
0.550196
-0.0137557
0.108047
-0.0299784
-0.0780681
0.216784
-0.0147523
-0.202032
-0.434425
0.306066
0.12835
-0.162011
0.0125229
-0.266402
0.186765
0.0796355
-0.000330398
0.00471374
0.00957358
0.0165518
0.0927143
-0.382228
-0.522317
0.428792
-0.0309266
-0.00942176
0.0403484
0.0125226
-0.00280321
0.594474
-0.222256
-0.00726953
0.00817426
-0.315437
0.234419
0.0810157
0.126478
-0.0980942
-0.0283838
0.00486378
0.326939
-0.331808
0.00920473
-0.00584653
-0.00335819
0.0630536
-0.0948631
0.0318095
0.0453328
0.180583
0.306775
-0.190487
-0.11629
0.0168261
-0.0223547
-0.117132
0.0857379
-0.0128514
0.0127551
9.62896e-05
0.239752
-0.606831
0.000114361
-0.008526
0.00841164
-0.00824836
0.0724272
-0.0115594
-0.0608677
-0.355972
-0.0784611
-0.00390744
0.0076303
0.019011
-0.00978145
-0.00922958
-0.130775
0.168356
-0.037581
0.128954
0.382714
-0.216772
0.266942
-0.0501718
-0.141276
-0.0657254
0.103539
-0.0449215
0.5349
-0.521603
0.161949
0.653794
-0.442098
-0.211716
0.41117
0.242603
0.00559435
-0.00798687
-0.0477084
-0.0676133
0.0367851
-0.103973
0.116955
-0.0129822
0.576886
-0.10045
-0.0474274
-0.410477
-0.00977934
0.121242
-0.00937964
0.00389483
0.00548481
0.15107
-0.169745
0.0186743
-0.116902
0.338042
0.453133
-0.235099
-0.289605
-0.0878524
0.377458
0.0137983
0.000906487
-0.0012789
0.394242
0.169464
-0.563712
-0.263166
-0.145461
0.408626
0.011123
-0.0229045
-0.150179
0.107114
0.111661
0.0400655
-0.293925
-0.151329
0.263412
-0.112084
0.185369
-0.221331
0.0359623
-0.00422093
0.110832
0.0648262
-0.0716743
0.0246377
0.101784
0.00961668
-0.151535
0.0610125
0.0905222
0.018231
0.0865892
0.00907178
0.117984
0.454994
-0.29177
-0.163229
0.00834215
3.95769e-05
-0.452729
0.251355
-0.0288325
0.254315
0.00552165
-0.259838
0.0763501
0.0316964
0.0839818
0.0192832
-0.103265
-0.0141075
0.402961
-0.388878
-9.79453e-05
0.103762
0.112512
-0.141056
0.028544
0.00272421
0.00176283
-0.00448704
-0.0825193
-0.0690155
0.00555771
0.0931231
-0.0986809
0.143071
-0.148601
0.325435
0.132866
0.0352554
-0.0124552
0.103988
-0.020753
0.0156523
0.0051007
0.172907
-0.346796
-0.15912
0.187887
-0.028768
0.112738
0.0042175
-0.0022816
0.000597648
0.0128484
-0.0128484
0.119783
-0.121775
-0.0671637
0.110041
-0.0389249
-0.205008
0.19935
-0.229554
0.0302031
-0.21434
0.254403
-0.0762257
-0.0140102
0.0902359
-0.0532888
0.0290399
0.148578
0.00224524
0.0128535
-0.0132803
-0.00747273
-0.00325354
-0.00959786
0.018638
-0.218485
0.199847
-0.00993583
0.109352
0.0928568
-0.0298032
0.0878559
0.0913624
-0.179219
-0.292417
0.0909189
0.201498
-0.0308715
0.00311415
0.0277574
0.046499
-0.0300221
-0.0164769
-0.0427609
0.0325552
0.0102057
-0.0375868
-0.0709755
0.108562
-0.544403
0.0462442
-0.00510674
-0.00175289
0.00440628
-0.471623
0.457484
0.188244
-0.184266
-0.0039777
-0.00702559
-0.114045
0.121071
-0.125533
0.0297663
-0.014186
0.125748
0.0328593
-0.00943742
-0.0234219
0.113271
-0.0248162
-0.0207643
0.193963
-0.173199
0.0180657
0.0171898
0.267088
-0.19857
-0.0685193
0.00536571
-4.7364e-05
0.267397
-0.575545
-0.0156649
0.409903
0.0630008
0.0145866
0.0349156
0.0115834
0.0327801
-0.00798506
-0.024795
0.0987514
0.168336
0.259837
-0.264808
-0.448415
0.185249
0.00482126
-0.151088
0.00268595
0.115982
-0.0870786
0.22283
-0.0234805
0.101149
-0.113615
0.13605
-0.265064
0.269923
-0.0515543
-0.0686595
0.117208
-0.00122637
-0.0820461
0.0738358
0.00821038
-0.0508189
0.362255
-0.311441
-0.0860033
-0.0250345
0.111038
-0.0752134
0.000965815
0.00350662
0.0316921
0.126549
0.109825
-0.0258432
-0.190817
0.0316968
-0.26187
0.541063
-0.279218
0.293162
0.0875349
-0.380707
-0.0932603
0.312704
-0.0898676
-0.00907486
0.0989425
0.155081
-0.0572012
-0.0548492
0.105268
-0.050419
-0.0384355
0.025431
-0.142294
-0.0169566
-0.222771
-0.382733
0.0296404
-0.0922685
0.0626281
0.0226014
0.0101787
-0.103797
0.0852536
0.0185435
0.059163
-0.348084
-0.179296
0.148705
0.0305906
-0.123744
-0.39787
-0.161418
-0.0423665
0.203784
-0.054398
0.215379
0.00413429
0.0148767
-0.292279
0.614708
-0.070582
0.190309
-0.00255552
-0.187754
0.0841477
0.0226832
0.149528
-0.0600837
-0.0894447
0.00574603
0.000611522
-0.00635755
-0.0206551
-0.0918092
0.112464
0.0507216
-0.267495
0.00308547
-0.00212809
-0.00095738
0.0102456
0.00260271
0.356081
-0.264779
-0.091305
0.223172
0.0311427
0.105175
-0.0760224
-0.0291521
0.0869355
-0.124522
0.120063
-0.000616457
-0.349451
-0.241853
0.591298
0.0335008
0.273273
-0.104393
0.0942252
0.245054
-0.0621061
-0.114909
-0.0148085
-0.15208
0.125933
0.390849
-0.0976947
-0.146853
0.152156
-0.00530324
-0.0249337
0.403163
-0.177598
-0.225569
-0.268035
-0.0318894
0.299922
0.676203
-0.396088
-0.280137
0.00270016
0.00156024
-0.419153
0.622512
-0.203188
0.0141846
0.00396516
0.0130236
0.0112231
0.201351
-0.212574
0.04226
-0.0073444
-0.0289912
-0.187229
0.0656427
0.0727247
0.234086
0.121889
-0.00349011
-0.118399
-0.102481
-0.374663
0.139538
-0.00418448
-0.135354
0.326909
-0.590313
0.263374
0.111563
-0.102934
-0.00862916
-0.221157
-0.0942806
-0.0173323
0.0187385
0.0500711
-0.0435211
-0.00654997
-0.00208752
-0.00729212
-0.565532
-0.0731486
-0.241334
0.131091
-0.122019
-0.147862
0.164807
-0.0169458
0.00086985
-0.0017675
0.00089765
0.014214
-0.0140571
-0.000156848
-0.135726
-0.0291246
-0.330196
-0.0169585
0.347152
0.107752
-0.0147222
-0.0270286
0.0190435
-0.0858409
0.00379478
0.0594431
-0.114292
0.144378
-0.000276574
-0.144102
-0.0261268
-0.00540438
0.0315312
-0.165933
0.153472
0.0124604
0.161844
-0.177218
0.00313067
0.0944144
-0.0975451
-0.0781439
-0.00280691
-0.15088
0.0151534
-0.0015281
0.0196589
-0.0181308
0.148263
-0.1551
0.00683703
-0.282776
0.0814573
0.201317
0.100177
-0.107203
0.0725019
0.110591
-0.408241
0.319508
0.0887258
-0.187072
0.0256535
0.016323
0.147281
-0.17116
-0.043537
-0.380248
-0.0449977
0.425241
0.181932
0.150063
-0.0143484
-0.135715
-0.0642347
0.244639
-0.180405
-0.140599
0.02569
0.0128957
-0.343094
-0.223137
0.462968
-0.239834
0.129964
-0.549118
0.216291
-0.157707
-0.0585846
0.225621
0.225169
-0.450806
0.0252502
0.188031
-0.213281
0.628944
-0.283757
-0.345206
0.00775354
0.00145119
-0.148615
0.147698
0.000917118
0.0390771
-0.0373624
0.237749
-0.520385
0.282611
-0.350915
-0.209242
0.560154
-0.0340726
0.0859643
-0.0518917
0.153637
-0.0309718
0.250812
-0.193304
-0.0575084
0.0382768
0.0141454
-0.0524222
0.137058
-0.0392244
-0.0978333
-0.0701544
0.0563447
0.00323681
0.0993951
-0.126761
0.0273657
-0.0904403
0.262737
-0.172299
-0.631052
0.0195696
0.61148
0.60208
-0.190933
-0.257568
0.00926172
0.0151019
-0.0154457
0.000343835
-0.603681
0.252763
-0.0890112
0.0180611
0.07095
-0.129758
0.155008
-0.00172267
-0.0080212
0.111525
-0.137456
0.0259313
0.113685
0.0233728
-0.012844
0.0969916
-0.444261
0.104455
0.339792
0.27991
0.317105
0.00344095
-0.429932
0.272801
0.157131
-0.299281
0.0787409
0.220539
-0.0445042
-0.0186252
0.0631294
0.253046
-0.0171763
0.102676
0.444568
-0.547245
-0.00908298
0.17949
-0.170408
-0.0614169
-0.418019
0.479421
0.327833
-0.479654
0.151787
-0.162283
0.0146886
0.000364544
0.000505306
0.166588
-0.179116
0.0125284
0.253069
0.15009
0.46896
0.126266
0.00161586
-0.00389746
0.00516008
0.333808
-0.104517
-0.229293
-0.107945
0.28085
0.0582828
-0.020006
-0.0839301
0.101504
-0.017574
-0.0121391
-0.00178038
0.0139195
-0.111941
0.117499
-0.0506346
-0.232142
-0.237892
-0.358935
0.511129
-0.183327
0.00928499
-0.148826
-0.0149268
0.0221649
-0.0917497
0.0695848
0.0485324
0.120661
-0.00744056
0.0034565
-0.28851
0.0895707
0.198937
0.0322633
-0.21554
0.183277
0.0110116
-0.0136624
0.00265077
0.141349
-0.45073
0.00178683
0.214997
0.273228
-0.359326
0.0860945
0.338197
0.260239
-0.598454
0.00615359
-0.157191
0.0867328
0.0197013
0.205604
-0.278858
0.073253
0.0384883
0.00377171
0.00111596
0.011784
-0.0129
0.0294164
0.224871
-0.312722
-0.120446
0.433156
-0.0920444
-0.0119568
0.104001
-0.0707801
-0.32742
0.567168
-0.0855325
0.10403
-0.0184976
-0.441126
0.128392
-0.156148
-0.281669
0.367536
-0.0858727
0.441558
-0.156375
-0.285189
-0.113434
-0.242505
-0.104187
0.346689
0.0269404
-0.0847618
0.147154
0.0401551
-0.187309
0.398666
-0.586562
0.187895
0.37719
-0.509366
0.132156
-0.0192662
-0.265141
0.284407
0.0329817
-0.322872
0.289885
-0.341859
0.0738221
-0.0322139
0.0449854
-0.0127715
0.291096
0.0522488
-0.343349
-0.111694
0.404045
-0.292357
0.0184146
-0.00721398
-0.0112006
-0.022696
0.0279137
-0.153513
0.132749
-0.16255
-0.00017104
-0.122458
0.122629
-0.0525989
-0.167019
0.219617
0.475511
-0.165436
-0.310083
0.124867
-0.0550115
-0.00656676
0.114842
-0.00327915
0.27687
-0.482732
0.20586
-0.304705
0.114216
-0.00294892
0.0171629
-0.0513532
-0.0844151
0.135768
-0.00144381
0.0060707
-0.00462688
0.528629
0.1662
0.000571665
-0.00311937
-0.184174
0.157246
0.0269276
-0.279494
0.066001
0.0152113
-0.0146372
-0.000574122
-0.0191695
0.0101376
0.00903194
0.356215
-0.32324
0.10516
-0.102029
0.49527
0.10679
-0.341395
0.0988865
0.432008
-0.194276
0.000574592
-0.00684549
0.476636
-0.251034
-0.33106
0.281744
-0.0468882
-0.275577
0.0745525
0.201024
0.032118
0.09436
-0.0918021
0.0466078
0.306449
0.0752965
-0.381751
0.0971531
-0.124269
0.0271157
0.369651
0.170448
-0.540105
0.00687096
0.508021
-0.483237
-0.024794
0.350254
0.356263
0.223744
-0.580008
0.00656534
0.458938
0.0272674
-0.0107905
0.0141161
-0.00332557
0.0155872
-0.0485474
0.0329602
0.00230415
-0.1816
-0.0434572
-0.0685695
-0.0117566
0.0134703
-0.0017137
-0.279612
0.350824
0.000374983
-0.00548172
-0.0236089
0.00676402
-0.0133388
0.00158221
-0.00028722
0.0141737
-0.0138865
0.00574439
0.0126702
-0.0157904
0.0185146
-0.0722768
0.101917
0.178417
0.0885236
0.00454181
-0.15587
-0.0283042
0.00626636
-0.0243252
-0.415795
0.0598144
0.0930656
0.275299
0.276412
0.0573941
0.539107
0.164465
-0.232459
0.0679935
0.119535
-0.147328
0.0277927
-0.00329927
0.00358874
-0.000289473
0.374611
-0.281551
0.425589
-0.189092
-0.236498
-0.00254407
0.0107262
-0.00818209
0.00804453
-0.0779466
0.0699021
-0.270746
0.25148
0.0238825
0.0241538
-0.178048
0.153894
-0.0746032
-0.206443
0.281044
0.0249208
0.0251504
0.0891186
-0.0652361
0.160458
-0.212866
0.0524072
-0.16765
-0.107928
0.0114072
-0.0102912
0.01213
-0.00111839
0.00285642
-0.0151961
-0.366025
0.0843505
-0.0889565
-0.0281754
-0.00828764
0.1208
-0.00752345
-0.00401341
0.0115369
-0.0227477
-0.122448
0.124777
-0.00232859
0.256471
0.170332
-0.260773
-0.0783503
-0.210161
-0.513559
-0.115787
0.0649606
0.517401
-0.367707
0.170155
0.0152133
-0.0626208
-0.103312
-0.00505512
0.00278882
0.0022663
-0.134363
0.0357269
0.0986364
-0.0960468
-0.235016
0.125704
-0.00433977
0.00507322
-0.000733454
0.168306
0.328188
-0.243665
-0.0845243
-0.00447534
-0.000974885
0.00545023
-0.363789
0.097928
-0.306723
0.00744086
0.0729864
-0.108934
0.0359472
0.00180605
0.00115837
0.482267
0.298482
-0.349305
-0.0208968
0.0301262
-0.0092294
-0.103631
0.0601742
-0.0293828
0.0943695
-0.0649867
-0.13973
0.0373961
0.102334
-0.045217
-0.0641526
-0.488745
0.172528
0.316211
-0.102613
0.101856
0.000757368
0.171164
0.157024
0.0157521
0.356716
-0.372476
-0.0828352
-0.209583
-0.0417559
0.0131297
0.00121429
-0.0133534
-0.372193
0.091318
0.280869
0.504985
-0.127814
-0.0759376
0.349163
0.0212444
0.0687137
-0.184381
-0.00428296
0.188664
-0.235654
-0.194279
-0.304374
0.0913867
-0.000828862
0.367036
-0.060592
-0.0101187
-0.0770934
-0.0130806
0.090174
-0.0100947
-0.00462458
0.0147193
-0.329384
0.089862
0.117931
-0.0248907
-0.0930408
0.184017
-0.16538
-0.00754422
0.00169768
-0.00503491
0.000695143
0.0101983
-0.00360486
-0.123016
0.122845
-0.00547537
-0.0136942
0.464737
0.00491132
-0.0283342
-0.461679
0.480389
-0.0727681
-0.152476
0.174123
-0.157185
-0.0169383
-0.0787176
-0.0394318
0.00850517
0.0476456
0.0298202
-0.0774657
0.0929275
0.0164357
-0.109363
-0.0126842
0.038718
-0.0260337
-0.288953
-0.275317
0.564243
-0.0599926
0.10291
-0.0429175
0.107594
0.333957
-0.084702
0.157204
0.0265357
-0.0186831
-0.00785267
0.228959
0.119145
0.180207
-0.641888
0.218335
-0.268999
0.0506628
0.100628
-0.256936
0.156305
-0.00357866
-0.00147646
0.472052
-0.104737
-0.367335
0.514975
-0.18312
0.00844788
-0.0198628
0.132168
-0.112305
0.148979
-0.148453
-0.000525325
-0.0262273
-0.000801282
-0.101512
-0.00784649
0.109359
0.0144932
0.000430934
-0.0149241
-0.00143524
-0.133624
0.114882
-0.166236
-0.00115667
0.00233579
-0.176418
0.00414039
0.0515105
-0.0556509
0.0019178
0.0271009
0.206396
-0.00612444
-0.200272
-0.308817
-0.0592099
0.368022
0.00190088
0.0180711
-0.019972
-0.0381954
-0.245526
0.266313
-0.14792
0.0372176
0.110703
0.157412
-0.00634211
-0.347361
0.118284
0.229075
-0.0290376
0.193502
-0.145392
0.246019
0.15606
0.284038
0.312977
0.138393
0.0059851
-0.0269189
0.0507699
-0.369426
0.140257
-0.132057
-0.00820084
0.111965
0.209308
-0.321279
0.104242
-0.098702
-0.00553993
-0.255229
0.582107
0.156954
0.00123085
-0.134799
-0.233648
0.169412
0.322894
-0.0834191
-0.239477
-0.298037
-0.0741624
0.0393146
-0.0377241
-0.00159056
-0.0932039
-0.0285429
0.121747
-0.0206242
0.0456182
-0.024994
0.262759
0.200242
-0.325277
0.269532
0.0557424
0.00776907
-0.270376
-0.0889531
0.0178263
0.118303
-0.136129
-0.127624
0.0344205
-0.236803
-0.11056
0.0270691
0.116049
-0.259312
0.371271
-0.0171248
0.0469145
-0.0297896
-0.291689
0.0461621
6.29167e-05
0.1939
0.000704143
-0.000775401
-0.0776667
0.102903
-0.0252364
-0.0966206
0.403343
-0.306728
-0.223305
0.1941
0.0292044
0.00169494
-0.0124855
0.357185
-0.341441
0.477488
-0.121511
-0.355987
-0.0112739
0.00375042
-0.00490329
0.00547788
0.0326422
-0.197093
-0.00949814
-0.0876294
0.0971276
0.546047
-0.278924
0.230927
-0.0106879
0.240477
-0.210916
-0.35582
-0.0884546
-0.0957549
0.0238871
0.0718678
0.308701
-0.290235
-0.0184707
0.0234342
0.0660026
-0.0894368
0.202214
0.399991
-0.450464
0.094629
-0.298488
0.193969
0.00600566
-0.107518
0.0105907
0.00228456
-0.0128752
-0.219164
-0.0779974
0.00346353
-0.238875
0.23541
-0.351588
-0.137162
0.199415
-0.184466
0.484192
-0.146011
0.0210733
0.138907
-0.125103
-0.585023
0.257601
0.014731
0.0374822
0.115946
-0.0975536
0.037561
0.0112144
-0.00386026
-0.0216231
-0.00924842
0.39849
-0.307179
-0.302877
0.0592116
-0.25735
0.340273
-0.0829257
-0.00820037
-0.17972
0.139584
0.00118337
0.0106096
-0.011793
-0.00456842
-0.00934282
0.0139112
0.231719
-0.16757
0.0056389
0.00869023
-0.0156646
-0.145117
0.147254
-0.00213678
-0.0980816
0.0885835
-0.114436
0.0937807
-0.000901744
-0.0118246
0.111077
-0.00683507
0.0363915
0.0550581
-0.0914496
0.00793159
-0.00399662
0.13603
0.00343132
-0.139462
0.170914
-0.00245848
-0.0238176
0.0761982
-0.401647
-0.0141549
0.216439
-0.143835
0.0347541
-0.0306137
-0.126694
0.145873
-0.0191796
0.375752
-0.283043
0.124361
-0.00247176
-0.101884
0.11971
-0.00224417
-0.000165785
-0.00117925
0.00134504
0.21496
-0.00017251
-0.214789
-0.0471087
0.0344245
0.0288031
0.132054
-0.160858
-0.0181466
0.0888676
-0.070721
-0.0533425
-0.0519729
0.105315
0.122854
-0.0907364
-0.160324
0.184478
-0.371013
0.205103
0.0391403
0.31031
-0.432659
0.122344
-0.0475957
0.208054
-0.509106
-0.0274119
0.184567
-0.372523
0.115066
0.257452
0.00711874
0.109627
-0.116746
-0.0161393
0.108537
0.0116286
0.00595153
-0.0175801
0.0777016
0.0320178
-0.10972
-0.031324
-0.0604781
-0.037607
-0.00910714
0.0728707
0.261388
-0.366435
0.105042
0.00664107
0.00744004
-0.0382836
0.0308435
0.327672
-0.395167
0.0674865
0.353734
-0.152526
-0.0119333
0.164459
0.00244835
0.0126535
0.332804
-0.593832
0.261027
0.131079
-0.00625464
-0.124824
0.0742105
-0.00204871
-0.0721618
0.123035
-0.15327
0.0302345
0.37485
-0.266539
-0.108312
-0.289105
0.231962
0.0571411
-0.180489
0.32534
-0.144856
-0.0813973
-0.0665229
-0.146926
0.104407
0.232838
0.00578117
-0.0231135
0.0312574
-0.0213089
-0.00994847
-0.118734
0.12551
-0.100864
0.0153314
-0.0188473
0.154878
0.100935
-0.0904802
-0.0104544
-0.212883
0.224105
-0.206614
0.154015
0.0107315
0.0390706
-0.0498021
-0.0675329
0.097054
-0.0295212
0.00276977
-0.00420652
0.0358111
-0.0386876
-0.592366
-0.418892
0.311582
0.107306
-0.14541
0.312013
0.348263
-0.0740557
-0.274209
0.116432
0.160985
-0.0553745
-0.0787968
0.134171
0.373912
-0.0801979
-0.293719
-0.000525481
0.100909
-0.100384
-0.505748
0.444316
-0.169407
-0.300653
0.128827
-0.0151422
-0.00630792
0.107457
-0.0593885
0.09578
-0.356963
0.0773484
0.0338979
-0.17723
-0.241667
0.0119258
0.0404407
-0.0523665
0.271308
0.230979
-0.185169
0.135141
0.458685
-0.181819
0.0205607
0.0766591
-0.0972198
-0.00179819
0.0665193
-0.103399
0.277287
-0.0751333
-0.05923
0.360838
-0.147084
-0.213756
0.149527
0.00515865
-0.00454713
0.23453
0.104346
-0.33888
0.193401
-0.276237
-0.139664
0.119801
0.172183
0.0160604
0.00588649
0.282052
0.115939
-0.178711
0.0627716
0.251961
-0.283852
0.123084
-0.503338
0.138014
-0.018479
-0.0941446
-0.170665
-0.216227
-0.239649
0.455856
-0.161996
-0.0508701
-0.00390394
-0.00512943
-0.202295
-0.0156137
0.217908
-0.0668138
0.0889787
-0.0280299
-0.00261721
-0.00283527
0.013426
-0.223923
0.0216277
-0.451752
0.235505
0.0540704