/*--------------------------------*- C++ -*----------------------------------*\
| =========                 |                                                 |
| \\      /  F ield         | OpenFOAM: The Open Source CFD Toolbox           |
|  \\    /   O peration     | Version:  v2012                                 |
|   \\  /    A nd           | Website:  www.openfoam.com                      |
|    \\/     M anipulation  |                                                 |
\*---------------------------------------------------------------------------*/
FoamFile
{
    version     2.0;
    format      ascii;
    class       volScalarField;
    location    "50";
    object      k_0;
}
// * * * * * * * * * * * * * * * * * * * * * * * * * * * * * * * * * * * * * //

dimensions      [0 2 -2 0 0 0 0];


internalField   nonuniform List<scalar> 
13851
(
0.00019547
0.00015462
0.000154419
0.0199796
0.00014843
0.000157088
0.00015541
0.000147484
0.052336
0.000148342
0.000176277
0.000148458
0.000148995
0.0281784
0.000168439
0.000204157
0.0182405
0.00014849
0.00022643
0.000195412
0.000171254
0.000155714
0.0286509
0.000149734
0.0168842
0.000185518
6.47149e-05
0.00371077
0.0473641
0.000146643
0.0466431
0.000155367
0.00019518
0.0699179
0.000169623
0.0462481
0.00014981
0.0190075
0.0689007
0.000148901
0.0686286
0.0492604
0.00642874
0.000214531
0.0528014
0.000147668
0.000145424
0.000200061
0.000152401
0.000148949
0.0264624
0.000149209
0.000203815
0.00016438
0.0268724
0.000148912
0.000195521
0.0663088
0.000133607
0.0287392
0.000148512
0.000185417
0.000148596
0.000152688
0.000180847
0.000181283
0.0231695
0.000165982
0.00014898
0.0290526
0.0421439
0.000175443
0.000148534
0.0253805
0.000165671
0.000152477
0.0238382
0.000145876
0.0125389
0.0001477
0.000149032
0.000231437
0.000169131
0.0299993
0.0298651
0.0456182
0.000155977
0.0213947
0.000148267
0.0462672
0.000149324
0.000155527
0.0102387
0.0412111
0.0617639
0.000196791
0.000147866
0.0002032
0.0265283
0.000193285
0.000203709
0.000161891
0.00016275
0.000148818
0.000147607
0.00017424
0.000147608
0.0445319
0.000155484
0.00014833
0.000159509
0.000147669
0.00020165
0.000178207
0.000195439
0.000163517
0.000146477
0.000147015
0.0173695
0.0325252
0.000187882
0.000147552
0.000148945
0.0480431
0.000217236
0.00017202
0.000147858
0.000171184
0.0643668
0.000174548
0.000155624
0.000162194
0.0061785
0.0689368
0.000176892
0.0617806
0.000165744
0.0442122
0.000159896
0.000174544
0.000225576
0.000150498
0.00014829
0.000170879
0.0164068
0.000152036
0.000145815
0.0417377
0.0417926
0.000171809
0.000203184
0.000200336
0.000179403
0.000218283
0.000149556
0.000148596
0.000148606
0.0648713
0.000172423
0.000153864
0.000149583
0.0469727
0.000173683
0.000199928
0.0288126
0.0568761
0.0581507
0.0312103
0.000159275
0.0610317
0.000148621
0.00014648
0.000177833
0.000148824
0.0652715
0.000121602
0.000202532
0.000146401
0.000165747
0.000202246
0.000214873
0.000214383
0.000158784
0.000174305
0.00762097
0.0425397
0.000195251
0.000157197
0.000149364
0.000147089
0.00467893
0.000172366
0.0230714
0.000157317
0.000151779
0.000203561
0.00019468
0.000149647
0.000149571
0.000166579
0.000225969
0.0647136
0.0666675
0.00016846
0.000325037
0.0608691
0.00015219
0.000174803
0.0536434
0.000156183
0.000204529
0.000148892
0.000229762
0.000149526
0.000170265
0.000153573
0.000148853
0.00021064
0.000149749
0.000497252
0.000146369
0.000195389
0.0255942
0.0634028
0.000156867
0.000175087
0.000149738
0.000169532
0.000147988
0.000169895
0.0336075
0.000156835
0.000156138
0.000148719
0.0647407
0.000146625
0.0137612
0.0658619
0.000189849
0.000149644
0.000325771
0.0304283
0.0528935
0.000204004
0.000164895
0.000173785
0.000205178
0.00016604
0.000195827
0.000160939
0.0227576
0.000196173
0.000147089
0.000157434
0.00020385
0.0456316
0.0244269
0.00014704
0.000172489
0.000148231
0.000203424
0.000217055
0.000158005
0.000174265
0.000196944
0.000148218
0.00016227
0.000195786
0.00187873
0.000148501
0.000148823
0.00015704
0.0624613
0.0120459
0.000173988
0.000147723
0.000215377
0.000217513
0.00019304
0.000173831
0.0609505
0.0253063
0.000158346
0.000165847
0.0237575
0.000147561
0.000148597
0.000193498
0.000173281
0.000146677
0.000149506
0.000147937
0.000147862
0.00016492
0.000148554
0.0541067
0.000172373
0.000148375
0.0452576
0.0453488
0.000149303
0.000195751
0.0262742
0.000150705
0.000149378
0.000173477
0.0279939
0.0803542
0.000180199
0.00014835
0.0574351
0.000148567
0.000181764
0.0313705
0.00112176
0.000153561
0.0117174
0.000748357
0.0498728
0.000199578
0.000162325
0.0669596
0.0545271
0.00341875
0.000149808
0.0256571
0.00831604
0.000207743
0.00020492
0.000152219
0.00017973
0.000157533
0.0225939
0.000163219
0.000146984
0.000144787
0.000157855
0.046307
0.000374475
0.00014749
0.0606177
0.000157586
0.000162436
0.000154107
0.0240547
0.000213765
0.000204008
0.00015318
0.000155481
0.0425517
0.0001494
0.000219546
0.00015824
0.000173397
0.00015816
0.00014825
0.00014834
0.000195809
0.000196638
0.000196135
0.0020734
0.0433809
0.000152149
0.0638856
0.000208183
0.000146609
0.00234447
0.000187488
0.0312203
0.000157346
0.000187658
0.000130555
0.00852668
0.000194142
0.0251839
0.000150894
9.33541e-05
0.00693317
0.000162182
0.0276227
0.00016433
0.0689026
0.000165502
0.000172495
0.000196457
0.000208067
0.000148605
0.000157676
0.000174274
0.000165994
0.000147852
0.000174297
0.0671026
0.000148521
0.00017474
0.0122939
0.000154082
0.00095727
0.00017494
0.0829283
0.000156844
0.000184107
0.000300478
0.000216908
0.000173683
0.021035
0.0255654
0.000313198
0.000148243
0.000195381
0.000164379
0.000187222
0.000147564
0.00761813
0.0695123
0.0128789
0.000155423
0.000196852
0.000153426
0.0132036
0.000145492
0.0190111
0.00021385
0.0298214
0.000161558
0.00549793
0.000148501
0.000148746
0.0230343
0.000161428
0.000148348
0.000154653
0.000175155
0.000146709
0.065559
0.000179961
0.00018712
0.000157433
0.000150935
0.000149254
0.00496405
0.000148353
0.000149178
0.0299488
0.0652812
0.000155083
0.000220949
0.000148638
0.000148541
0.000154618
0.000196634
0.000174899
0.000147945
0.000151754
0.000187399
0.000153022
0.08123
0.00014842
0.000160066
0.0536329
0.000160451
0.000145158
0.000148743
0.000157282
0.000150169
0.000290667
0.036505
0.000165115
0.000612525
0.000154738
0.000148298
0.0622537
0.000134261
0.000159854
0.000148675
0.0521632
0.000159337
0.00110291
0.000148811
0.000162536
0.000195046
0.000167276
0.0586118
0.000153156
0.00610885
0.000152413
0.000200692
0.000148248
0.0460075
0.000174763
0.000194624
0.000164188
0.000152865
0.000160477
0.000178245
0.000148506
0.0138741
0.0601601
0.0816169
0.00731584
0.0354346
0.0353925
0.000218434
0.000156365
0.000149326
0.00212027
0.000148347
0.00014782
0.000157511
0.0675878
0.000154298
0.000150487
0.000172823
0.000172922
0.000148438
0.0751802
0.00014785
0.0662532
0.000283498
0.000147701
0.000153338
0.000217922
0.00224387
0.0001467
0.048119
0.0114715
0.000146909
0.0592876
0.000225333
0.000195272
0.000152371
0.0290634
0.0297962
0.000147142
0.000231644
0.000148949
0.00014787
0.0154745
0.0697832
0.00016841
0.000174336
0.000148373
0.000180875
0.0661875
0.0647614
0.00014796
0.0252679
0.000147917
0.000149
0.000173861
0.000160301
0.000145458
0.000152474
0.0612765
0.000205493
0.057457
0.000153736
0.000148214
0.0625652
0.000149133
0.00019628
0.000159776
0.000165623
0.000164646
0.0520672
0.030027
0.000157155
0.0176286
0.000153048
0.000179455
0.0501743
0.0328797
0.000148961
0.00014827
0.00016282
0.058738
0.000233368
0.000180505
0.00513872
0.000160494
0.000164707
0.0416012
0.0796034
0.000180833
0.0645847
0.000203028
0.0458629
0.000150293
5.34083e-05
9.23093e-05
0.000148453
0.0118331
0.0809174
0.000159303
0.000174485
0.000148841
0.000511052
0.00017476
0.0495876
0.000148387
0.000149019
0.00015516
0.000172497
0.000148486
0.0645034
0.000148978
0.000202357
0.00015242
0.000187638
0.000148798
0.000148458
0.000167061
0.0254841
0.000173427
0.0597307
0.000162561
0.000146792
0.000147301
0.000178101
0.000151708
0.000187852
0.000155088
0.000159578
5.63302e-05
0.000149144
0.0203373
0.000149663
0.000194966
0.0202283
0.0569402
0.000156331
0.0389208
0.00017225
0.000201325
0.0815275
0.000148391
0.0814205
0.000157645
0.000162996
0.00933317
0.000299226
0.000146756
0.000187293
0.00014954
0.0449055
0.0276801
0.000149331
0.000166452
0.0658636
0.000149733
0.000149653
0.000185978
0.0172725
0.0211937
0.00014939
0.0001966
0.000152602
0.000148478
8.1406e-06
0.000197
0.000192782
0.000145261
0.000195499
0.000163471
0.00018245
0.000150508
0.000151505
0.000173541
0.000154972
0.000197929
0.000175272
0.000175174
0.000177602
0.000206479
0.000227626
0.061065
0.0358177
0.00020181
0.0368375
0.000162993
0.0192666
0.00019595
0.000148168
0.000164122
0.000223341
0.000156902
0.000147693
0.000147648
0.000194689
0.0225878
0.00016028
0.0631094
0.000146824
0.0257596
0.000177427
0.0250832
0.000186899
0.000157019
0.000154456
0.029445
0.000192762
0.000162643
0.000152345
0.00015058
0.00194776
0.000194951
0.000202295
0.000163538
0.000251324
0.000148493
0.000149602
0.000151784
0.000148489
0.0506783
0.000147856
4.66236e-05
0.061219
0.000187455
0.0664737
0.0293171
0.000203205
0.000204891
0.000156492
0.000149132
0.000148736
0.0001459
0.000147271
0.00014884
0.000179811
0.000200753
0.000164137
0.00256743
0.000151406
0.0521396
0.000149952
0.0231566
0.000167892
0.000149879
0.000148817
0.0573449
0.00015734
0.0308093
0.0801217
0.000173593
0.000181586
0.000146752
0.0689266
0.000153173
0.000154403
5.81681e-05
0.000149154
0.000150469
0.000148145
0.000174653
0.024115
0.000160356
0.000163967
0.000218217
0.0609475
0.000156852
0.000155906
0.0486878
0.000145862
0.0477164
0.000149286
0.000153085
0.00980943
0.000186849
0.000194907
0.000182964
0.000173636
0.000149467
0.000149953
0.000180809
0.000150466
0.000149523
0.000161056
0.000213161
0.000147739
0.00019751
0.000647516
0.0222372
0.000182789
0.0459995
0.000160054
0.000149099
0.000193001
0.000146919
0.000157803
0.0577473
0.0424438
0.0812181
0.0491413
0.000149501
0.000149203
0.000168596
0.000151221
0.000147391
0.0226046
0.000203829
0.0291718
0.00019533
0.000187159
0.000148521
0.00014669
0.00230123
0.000187117
0.000153657
0.000149657
0.000195111
0.000204137
0.0647726
0.000149515
0.00014893
0.0207443
0.000150455
0.000164495
0.000146725
0.0688677
0.000147935
0.0228474
0.000148462
0.000187234
0.000169388
0.000168225
0.000163839
0.000148521
0.000154632
0.000148006
9.00121e-05
0.000150481
0.0284775
0.000150834
0.0260672
0.0630698
0.000162214
0.000147868
0.01372
0.0389319
0.000157705
0.000187058
0.000148714
0.019898
0.000148294
0.000222224
0.000148364
0.000147983
0.0257944
0.000164856
0.000148678
0.000164859
0.0641195
0.000424909
0.0689053
0.000147032
0.0395609
0.000148453
0.000147789
0.000149546
0.000144413
0.000149514
0.0724446
0.0610214
0.000149798
0.000148951
0.000168821
0.000147675
0.0172912
0.000193986
0.0322965
0.0684438
0.000154557
0.000197603
0.000148401
0.000171061
0.000174413
0.000148274
0.000149346
0.000404525
0.0294208
0.000181051
0.00898474
0.000180565
0.000148623
0.000169636
0.000187387
0.0221889
0.000163914
0.00548697
0.00018762
0.000149446
0.0574894
0.0562102
0.029367
0.00355019
0.0129936
0.00015234
0.000173447
0.000149185
0.000154884
0.000156418
0.000147004
0.0712012
0.000151176
0.000147875
0.000148952
0.000150895
0.0657714
0.000220709
0.000147192
0.000170098
0.0283548
0.000151679
0.0081728
0.000151514
0.000185498
0.0690296
0.000148578
0.000226212
0.000159356
0.000163278
0.000474398
0.000151153
0.000230046
0.000183852
0.0677397
0.000149932
0.026954
0.000161766
0.0400096
0.0236987
0.0220876
0.000173739
0.000148586
0.000149569
0.000149733
0.000171204
0.000148766
0.0606159
0.000158119
0.000156266
0.000156689
0.00015224
0.000146981
0.000159256
0.000157557
0.000153317
0.000156714
0.0818347
0.000122662
0.000161348
0.000168926
0.0699889
0.00015057
0.0497131
0.000145905
0.000160581
0.000150502
0.000148115
0.000166197
0.000148257
0.000147149
0.000162205
0.000148646
0.000210356
0.000151306
0.0104797
0.000194952
0.000206574
0.000222525
0.000149204
0.0628731
0.00019867
0.000149463
0.000157362
0.000150295
0.05339
0.000151498
0.000162238
0.00168394
0.01008
0.000176608
0.000149233
0.0531467
0.00123721
0.0169299
0.000159256
0.000146732
0.000147877
0.00018026
0.000148536
0.0253441
0.000196641
0.000149261
0.000208389
0.000212863
0.000148038
0.0812915
0.0207569
0.000203227
0.000151082
0.051883
0.000179648
0.000148017
0.0238338
0.000155691
0.000147809
0.000147841
0.000164624
0.000171396
0.0570397
0.0495955
0.000171858
0.0583849
0.000165938
0.000148297
0.000167793
0.000147668
0.000960183
0.000148125
0.000148177
0.000152748
0.000150378
0.0621934
0.022467
0.000227054
0.0293488
0.0870371
0.000156847
0.000148601
0.000151301
0.000230607
0.000148039
0.000148258
0.000168511
0.0128919
0.000231894
0.000145825
0.000165012
0.000164099
0.000195482
0.00752521
0.000146903
0.00014535
0.000153372
0.00536053
0.000160993
0.0660065
0.000151474
0.00014901
0.00014787
0.000147846
0.000153552
0.000202902
0.045555
0.0561511
0.000156687
0.0001483
0.00111317
0.000150192
0.00729593
0.0367639
0.000157852
0.0287977
0.0496236
0.04153
0.000179473
0.000163708
0.0443088
0.000162157
0.000159923
0.000168912
0.000202165
0.000150267
0.000478207
0.000148325
0.0530802
0.010857
0.000145933
0.000152559
0.000166456
0.000226802
0.000164876
0.000148862
0.000160045
0.000151476
0.000157116
0.000230431
0.00014902
0.0428134
0.0241463
0.000148378
0.000162847
0.000171037
0.000148494
0.0416386
0.0121193
0.064827
0.0334305
0.000148171
0.000153891
0.000156743
0.00014961
0.000227456
0.000165286
0.000149682
0.000181248
0.000154636
0.0395461
0.000169552
0.023799
0.000151349
0.000151691
0.000163569
0.000187044
0.000181779
0.000148169
0.00959146
0.0436584
0.0208897
0.0398363
0.0565608
0.0567856
0.0379616
0.000148129
0.000148197
0.000148888
0.000233207
0.000174367
0.000181533
0.0140983
0.000149711
0.000145585
0.000148369
0.000221451
0.00014575
0.000158083
0.000152309
0.0306745
0.000151057
0.00014696
0.000148532
0.000148343
0.000149001
0.000159654
0.000226932
0.000160014
0.0564385
0.0001482
0.000147883
0.0644996
0.0659086
0.0212865
0.0211795
0.000163347
0.0227604
0.000146689
0.000168597
0.000151651
0.000148494
0.000154772
0.0272567
0.000152085
0.000187342
0.00213012
0.000149867
0.000148051
0.000154935
0.00020315
0.000149796
0.0302702
0.000148801
0.000218658
0.000148774
0.000149762
0.000157897
0.000170527
0.000149038
5.4915e-06
0.0430461
0.000213578
0.0692717
0.00014849
0.0261496
8.53982e-05
0.000148277
0.0102555
0.000149578
0.000161738
0.000149364
0.000149575
0.000147595
0.000148478
0.000149919
0.000155558
0.000181105
0.000149441
0.000148598
0.000165401
0.000146633
0.0847175
0.000148771
0.000163185
0.000165969
0.0335774
0.00013276
0.000148924
0.000203383
0.000146676
0.0001632
0.000172204
0.0171106
0.000174771
0.000149799
0.000195115
0.000167467
0.000186406
0.000215131
0.000160532
0.000197222
0.000180291
0.000181925
0.000150966
0.000147602
0.0226028
0.01166
0.000154195
0.000147993
0.00872924
0.00014687
0.00017056
0.000147673
0.000176014
0.0104107
0.000144947
0.0159914
0.000156973
0.000149063
0.00020279
0.000146994
0.000161241
0.0349403
0.000168951
0.0247492
0.000147561
0.000149744
0.000162024
0.00014946
0.000149608
0.000159962
0.000161029
0.000181097
0.000177468
0.000148947
0.00016498
0.000147449
0.000148351
0.000149382
0.000148299
0.000442255
0.000148209
0.000151591
0.000214481
0.000146827
0.000147908
0.0642328
0.00014963
0.0129003
0.000152418
0.0638854
0.000212133
0.000163959
0.00147584
0.00017692
0.000272329
0.000150213
0.000205019
0.000157239
0.000147505
0.000147692
0.000151561
0.000162529
0.000148269
0.000170499
0.000147276
0.000151662
0.00716063
0.0263421
0.000371582
0.000154612
0.000162554
0.0365097
0.0296589
0.000149094
0.000157778
0.000310381
0.000149527
0.000167806
0.000496115
0.0560936
0.000158913
0.000172183
0.000150674
0.000215391
0.000149891
0.000160717
0.00340939
0.000149253
0.000147644
0.0831795
0.000170103
0.000228762
0.0700553
0.000194464
0.000149993
0.000147297
0.000149881
0.0336025
0.00016415
0.0445475
0.000173782
0.000148498
0.0427966
0.000148675
0.000199587
0.000155172
0.000152861
0.000171119
0.000148324
0.0810539
0.0867333
0.000146677
0.000180826
0.000175158
0.00206661
0.00017092
0.000180503
0.000229671
0.000165899
0.000165853
0.000181065
0.000148691
0.00016704
0.000167506
0.0332236
0.000148142
0.00371123
0.000171808
0.000182118
0.000149801
0.0862003
0.000157244
0.000152096
0.000147439
0.000166065
0.000165511
0.000165813
0.00014878
0.000150463
0.000171339
0.00913011
0.000174906
0.000148986
0.000150449
0.00016704
0.000212821
0.000149086
0.000179291
0.0178889
0.000167107
0.0583157
0.000170926
0.0261014
0.000229756
0.000148163
0.000885219
0.00014955
0.000154265
0.000164487
0.000165372
0.000188013
0.000174607
0.000165309
0.000166572
0.000161796
0.000152919
0.000145693
0.000169114
0.000156343
0.000157031
0.000152132
0.000155926
0.000158746
0.000147652
0.0259593
0.000178028
0.000148933
0.000155058
0.000151556
0.0279341
0.000196882
0.000164518
0.0520671
0.000213534
0.000334383
0.000186954
0.000233911
0.000147317
0.000184266
0.000148217
0.000155348
0.0188343
0.0411324
0.000237573
0.000494484
0.000148752
0.024316
0.000147292
0.000187296
0.000154175
0.0166006
0.0735744
0.000157816
0.000148007
0.000230917
0.000161776
0.000148065
0.0399281
0.00014846
0.000152212
0.000156391
0.000149336
0.000161268
0.000151684
0.000148501
0.000162676
0.000244814
0.000169613
0.00017497
0.000148042
0.0303847
0.0411609
0.000147882
0.00019336
0.000154102
0.000157001
0.0508436
0.00014786
0.000150572
0.000156382
0.0468908
0.000148121
0.00014915
0.00016869
0.0147881
0.00014776
0.000159267
0.000161194
9.99834e-05
0.000170968
0.000168352
0.000207456
0.00014848
0.000171707
0.000145978
0.0270203
0.0001604
0.000148368
0.000159063
0.000185593
0.000148921
0.000149419
0.000196315
0.0440245
0.000150146
0.0283525
0.000149191
0.00014593
0.000179555
0.00014813
0.000148217
0.075208
0.000149808
0.000169448
0.000202575
0.0560661
0.000157046
0.000147951
0.000152575
0.000156226
0.000148405
0.000148543
0.000148596
0.00470916
0.000149247
0.000220671
0.000193573
0.000147617
0.000146762
0.000160985
0.000193581
0.000199539
0.000165982
0.000175939
0.000152538
0.05397
0.000175037
0.000163154
0.000170569
0.000171037
0.000186219
0.0252357
0.000169873
0.0300147
0.0240412
0.0236317
0.000154985
0.00014824
0.000166633
0.000159069
0.000147594
0.000150186
0.000176971
0.000149589
0.000149518
0.000148264
0.000145304
0.000153129
0.000148907
0.0228585
0.000147985
0.030999
0.000148459
0.000172674
0.000150405
0.000193345
0.000172445
0.000148606
0.0622837
0.000152526
0.00014946
0.000169732
0.000147342
0.00015846
0.000148509
0.0453633
0.000153181
0.000170018
0.000170236
0.0598964
0.000157463
0.000207946
0.000175498
0.000168869
0.00014915
0.0001517
0.000174641
0.000178975
0.0265638
0.000146754
0.0328737
0.000148872
0.000168989
0.0830558
0.000164663
0.0116984
0.000154649
0.000163401
0.000153768
0.0866697
0.000161225
0.000148851
0.000168046
0.000196637
0.000152065
0.000148236
0.000148868
0.067717
0.000149653
0.000156786
0.0670326
0.000155023
0.000148192
0.000170663
0.000154252
0.0470827
0.000145593
0.000148287
0.000147035
0.000154688
0.000150095
0.000149188
0.000180598
0.0627448
0.000148075
0.000148632
0.038404
0.000149848
0.0164022
0.000153892
0.0843471
0.00014751
0.00015309
0.000146673
0.0315106
0.0691755
0.000158746
0.000168487
0.000155409
0.000148164
0.00014872
0.0454902
0.000148813
0.000187553
0.000147242
0.000172642
0.000149206
0.0530841
0.000146882
0.000173531
0.000147567
0.000214774
0.000296893
0.000147132
0.000165659
0.0839715
0.000181767
0.0275869
0.0104678
0.000201427
0.000151786
0.000164535
0.000187293
0.00279531
0.000149705
0.000169595
0.000156343
0.000148316
0.0282519
0.0378889
0.000181528
0.000198175
0.000229906
0.000162106
0.0623333
0.000147512
0.000147042
0.00018632
0.0857119
0.000211889
0.000198218
0.000770706
0.00014671
0.0868713
0.036146
0.08098
0.000149293
0.0333145
0.0464031
0.000314758
0.000382575
0.0462876
0.000187768
0.000160961
0.000201626
0.000154259
0.000148352
0.000895627
0.000187121
0.000145573
0.0347643
0.000149201
0.000158044
0.000170844
0.000155308
4.95087e-05
0.000159974
0.0122891
0.000173425
0.00015478
0.0144743
0.0723988
0.000195714
0.000149818
0.000154401
0.000181328
0.000167827
0.000146785
0.000172214
0.000166816
0.000195817
0.000148306
0.000205981
0.000153199
0.000167997
0.0360861
0.000170871
0.000151245
0.000183638
0.0350981
0.000149248
0.000150687
0.0800304
0.000220721
0.000153785
0.000154778
0.000148555
0.000173489
0.000156478
0.0486449
0.000187744
0.000150215
0.00014944
0.000165696
0.000158786
6.16887e-05
0.0304875
0.000147526
0.000148142
0.000157743
0.000149239
0.00015394
0.00015092
0.000151051
0.000154521
0.000147879
0.000153775
0.000149249
0.000174654
0.00271252
0.000149739
0.0632579
0.0172641
0.000145985
0.000181347
0.000185225
0.000178077
0.000150645
0.000187161
0.000158191
0.000168173
0.000161086
0.000151822
0.000149339
0.0261852
0.00016042
0.0244091
0.000150626
0.000148364
0.000148048
0.000172254
0.000148007
0.000174397
0.000180497
0.000285491
0.000147466
0.000234733
0.00577408
0.0457203
0.000146649
0.000192986
0.000216967
0.00728091
2.32451e-05
0.000150239
0.000149436
0.000191959
0.000530113
0.0153878
0.000169538
0.000195026
0.000149498
0.000147746
0.000163992
0.000149251
0.000149029
0.000197392
0.000149749
0.000169173
0.00014746
0.071549
0.0665139
0.0365888
0.0350299
0.0425661
0.000149021
0.000148915
0.0704869
0.000146933
0.000147248
0.000145953
0.000182057
0.0704335
0.0279654
0.000155975
0.000149372
0.00015151
0.000162453
0.0287348
0.000148113
0.012646
0.0729819
0.000149202
0.000149119
0.0356847
0.000186637
0.000152763
0.000148233
0.0674982
0.0445589
0.000148704
0.000204209
0.000149663
0.0477678
0.000212691
0.000153486
0.0271715
0.0164101
0.0465413
0.000147307
0.000149659
0.000149598
0.000149897
0.0671416
0.000147823
0.000194964
0.000221675
0.0245703
0.00015088
0.000173236
0.000211675
0.00017266
0.0674173
0.0547217
0.000145387
0.000156538
0.000156691
0.000203985
0.058168
0.000145159
0.0247327
0.000160186
0.000171611
0.000150674
0.000147488
0.000217013
0.00016762
0.0191274
0.00014925
0.000173058
0.000150588
0.000193251
0.000154288
0.0612387
0.00864063
0.000198924
0.000192848
0.000148229
0.000152588
0.000185895
0.000181041
0.0613704
0.0794517
0.000148912
0.0183713
0.000169797
0.0749584
0.000158768
0.000169575
0.000168061
0.000148989
0.0548926
0.000148404
0.00016376
0.0308835
0.0698915
0.000506068
0.0690779
0.000157455
0.000173911
0.000146815
0.0721343
0.000156479
0.0175381
0.000146756
0.0541249
0.000144995
0.000147915
0.000163251
0.000158254
0.000159492
0.000148379
0.0382124
0.00017288
0.00014786
0.000165492
0.0323726
0.000227572
0.000148443
0.0597224
0.000153524
0.000165831
0.000164374
0.000145783
0.000177031
0.000147872
0.0157463
0.000172087
0.000158735
0.000148197
0.000223773
0.000168445
0.000146754
0.0454768
0.000322747
0.000212783
0.000146482
4.67663e-05
0.000148884
0.000189633
0.000159331
0.000179863
0.00245439
0.0369116
0.000159313
0.0691907
0.000169106
0.000157308
0.000146968
0.0592415
0.000178196
0.000188294
0.00016537
0.000149588
0.0161652
0.000182126
0.000228215
0.000222062
0.0825598
0.0384583
0.00413494
0.0351923
0.000157567
0.000158403
0.000148596
0.000148927
0.000145308
0.000200373
0.000158132
0.000159538
0.0658554
0.000147798
0.000146947
0.000171383
0.000196662
0.000159201
0.000147048
0.0661023
0.000153932
0.000174967
0.000149373
0.0238448
0.000156861
0.0712355
0.000166108
0.000164626
0.00017078
0.000148549
0.0106427
0.000214223
0.000178967
0.000148744
0.00014722
0.0231368
0.0465601
0.0449625
0.000147912
0.000179202
8.43448e-05
0.000148986
0.000147925
0.000148809
0.0692369
0.000170783
0.000162718
0.00015945
0.000157243
0.0555148
0.000178266
0.000214334
0.000158084
0.000163594
0.000145274
0.000181754
0.000172401
0.000148249
0.0423933
0.056995
0.0616134
0.0417166
0.042543
0.0856646
0.0730765
0.000151346
0.000148037
0.0577491
0.0395391
0.0149125
0.000148866
0.000169068
0.000148516
0.000148059
0.00650127
0.0714293
0.000179647
0.000147927
0.000150103
0.000187159
0.000173198
0.0369723
0.00072053
0.000184957
0.000147256
0.0608214
0.00320161
0.00022012
0.000164289
0.000170299
0.000149211
0.00014722
0.000167408
0.00017128
0.000153528
0.000170115
0.000159168
0.000154026
0.000227709
0.0353361
0.000158875
0.000171572
0.0449501
0.000217014
0.000148684
0.000191806
0.000225046
0.0274202
0.000168483
0.000149169
0.00016076
0.000156902
0.000158086
0.000145782
0.00015875
0.000163079
0.000173714
0.000198935
0.000149494
0.000151382
0.0380333
0.0496481
0.0705428
0.000217502
0.00019529
0.000144808
0.000148446
0.000161335
0.00014668
0.0852645
0.000148374
0.000149807
0.000146234
0.0423953
0.0128692
0.000149993
0.000180017
0.000158047
0.000161293
0.000160831
0.000159518
0.000169431
0.000165879
0.0213217
0.000157247
0.0407142
0.000166639
0.0701753
0.000159889
0.000147393
0.000146897
0.000187681
0.00019649
0.000146735
0.000162569
0.000160207
0.000174909
0.0316966
0.0243834
0.0406879
0.000149805
0.000104624
0.000158304
0.000164066
0.000148187
0.000178464
0.000152314
0.029088
0.000280171
0.000165496
0.000148484
0.0483131
0.000155603
0.0346134
0.0377432
0.000230228
0.000153186
0.000194178
0.0482477
0.000167765
0.0505229
0.000176001
0.000148201
0.00016671
0.000147974
0.0823171
0.000153573
0.000161834
0.000146006
0.0688144
0.000147996
0.000148237
0.0435738
0.000168759
0.0825851
0.000158551
0.000148234
0.000169796
0.000207637
0.000162131
0.0179269
0.000163952
0.00020355
0.00015513
0.000149597
0.000148134
0.000210863
0.000150536
0.000180705
0.000148549
0.000148467
0.000207073
0.000157377
0.000148967
0.000148159
0.000163875
0.000208467
0.000171986
0.000167695
0.000155011
0.000176804
0.000148717
0.000189346
0.000161523
0.000170702
0.000166383
0.000160176
0.000173515
0.000162827
0.000147839
0.000181231
0.048763
0.0337546
0.000149254
0.000485458
0.0342526
0.000148188
0.00015052
0.000221268
0.0393438
0.000156041
0.0339962
0.000234919
0.000149135
0.000186674
0.000145262
0.000156925
0.00017738
0.0274211
0.000199869
0.000236186
0.00021716
0.0403059
0.0523356
0.000152955
0.0449499
0.0001483
0.00196459
0.0491511
0.000148623
0.000148432
0.0333809
0.000148976
0.000148528
0.000239578
0.0614458
0.000209444
0.000157447
0.044191
0.000148584
0.0489974
0.038949
0.000149202
3.75593e-05
0.00661314
0.045236
0.036386
0.0399999
0.0327005
0.000147257
0.00015147
0.000177865
0.00018012
0.000148494
0.000215854
0.000148257
0.0410295
0.000236777
0.000163866
0.000227633
0.0420453
0.000234391
0.000224629
0.000165179
0.0199621
0.000240936
0.000156095
0.000145531
0.00661126
0.000160943
0.00014685
0.0857087
0.000148139
0.0116439
0.000149089
0.0696002
0.000156468
0.000148032
0.0032129
0.000155801
0.000160209
0.0302274
0.0587116
0.000425978
0.000159487
0.000174252
0.000151664
0.000170227
0.000193401
0.000170412
0.000149344
0.000303168
0.00017837
0.000161261
0.031855
0.000169241
0.000161877
0.000196552
0.000181535
0.000173126
0.000148015
0.00020356
0.000146915
0.000193217
4.60889e-05
0.0400427
0.000147081
0.000167405
0.0257272
0.00015252
0.000177321
0.000163467
0.000169268
0.0655002
0.000178456
0.00015182
0.0222279
0.000147128
0.04692
0.000148777
0.000151799
0.000193058
0.0455787
0.000161393
0.000188118
0.00021356
0.000163311
0.000149459
0.000176433
0.000170885
0.0656856
0.000155084
0.00217455
0.00019611
0.000163388
0.000160619
0.000176845
0.000165709
0.000167271
0.000178506
0.000162212
0.00015394
0.000149337
0.000556392
0.000148404
0.000159572
0.000145356
0.000191633
0.000160129
0.000178635
0.0422213
0.000151143
0.000211743
0.000144544
0.000149139
0.000149202
0.000149319
0.000158173
0.00014758
0.000187025
0.0252167
0.000178751
0.000172294
0.000155815
0.000148591
0.000193126
0.000148649
0.0417849
0.0362323
0.0291485
0.000199812
0.000163387
0.000158945
0.000149128
0.000157746
0.000169938
0.000168482
0.0479799
0.000178946
0.0608861
0.000201856
0.000149346
0.000146844
0.0335667
0.000148173
0.000161218
0.000165523
0.000231062
0.000152728
0.0660655
0.000149087
0.000155502
0.000148532
0.000150458
0.000176417
0.000192785
0.000149301
0.000164602
0.000159517
0.000172947
0.000179128
0.000211795
0.000196584
0.000207468
0.000201241
0.000157935
0.000151268
0.000179318
0.0440976
0.0677692
0.0519214
0.000163617
0.00711951
0.000193855
0.000151324
0.000147873
0.000182434
0.000148907
0.000164654
0.0230173
0.000147968
0.00014746
0.000262356
0.00549521
0.000174974
0.000392557
0.000148975
0.0268433
0.000168375
0.0712983
0.000157009
0.000148713
0.0504945
0.000165002
0.000148465
0.000171105
0.000149655
0.00018832
0.000159481
0.000164277
0.0868594
0.000159258
0.049242
0.000147622
0.0546087
0.000149052
0.000156672
0.000150011
0.00017051
0.000148874
0.000165716
0.0479366
0.000247481
0.00017348
0.00016076
0.000167959
0.000147913
0.000148823
0.000151979
0.00299627
0.000156156
0.0715122
0.0340916
0.000187215
0.000149387
0.000190408
0.000202308
0.00019729
0.000157599
0.038882
0.000148285
0.000144804
0.000148126
0.0042765
0.000148898
0.000148447
0.050849
0.000147969
0.000198975
0.000171
0.000147786
0.0621231
0.000160461
0.0690946
0.000148105
0.000632747
0.000150948
0.00016653
0.0294788
0.000179974
0.000147835
0.000159096
0.0454485
0.000164452
0.000191657
0.000162378
0.000156353
0.000185511
0.000157851
0.000149864
0.00743983
0.000159989
0.000160385
0.000204764
0.000148123
0.000147439
0.000149192
0.000163479
0.000149076
0.000154868
0.0547523
0.0146644
0.000170658
0.00954327
0.00018206
0.000166786
0.0704833
0.0519461
0.000150022
0.017016
0.0456546
0.0359232
0.000918269
0.000161587
0.0423952
0.0550597
0.0456668
0.000921944
0.0708831
0.000162518
0.000169047
0.000157479
0.000157523
0.000149538
0.000312552
0.000149892
0.0187162
0.000173406
0.00019486
0.000145129
0.00018346
0.000163322
0.000152006
0.00014995
0.000148678
0.000172901
0.000153303
0.00014993
0.000171154
0.0587395
0.000154339
0.000190106
0.000146782
0.000172818
0.000168819
0.000149212
0.000155848
0.000147581
0.0698936
0.064794
0.000199326
0.00378076
0.000160837
0.000185547
0.000148818
0.000171364
0.000148628
0.000149596
0.000149513
0.0611427
0.00014675
0.000174846
0.000232045
0.000157078
0.000162495
0.000147994
0.0704694
0.000203507
0.0418973
0.0333326
0.000198937
0.000227702
0.0316617
0.000232747
8.44698e-05