/*--------------------------------*- C++ -*----------------------------------*\
| =========                 |                                                 |
| \\      /  F ield         | OpenFOAM: The Open Source CFD Toolbox           |
|  \\    /   O peration     | Version:  v2012                                 |
|   \\  /    A nd           | Website:  www.openfoam.com                      |
|    \\/     M anipulation  |                                                 |
\*---------------------------------------------------------------------------*/
FoamFile
{
    version     2.0;
    format      ascii;
    class       surfaceVectorField;
    location    "50";
    object      Uf;
}
// * * * * * * * * * * * * * * * * * * * * * * * * * * * * * * * * * * * * * //

dimensions      [0 1 -1 0 0 0 0];


internalField   nonuniform List<vector> 
20580
(
(1.13583 0.0361974 1.14489e-20)
(1.13624 0.0374334 3.52132e-21)
(1.13476 0.0367619 1.17887e-20)
(1.06942 -0.0226596 0)
(1.06991 -0.0237191 5.4884e-21)
(1.07123 -0.022616 -1.28039e-20)
(1.06874 -0.0211147 0)
(1.06741 -0.0222851 -9.75364e-21)
(-0.188989 -0.0149944 4.10596e-20)
(-0.163952 -0.0179027 -5.75905e-20)
(-0.187749 -0.0159608 -2.73982e-20)
(1.00189 -0.000501436 4.45838e-23)
(1.00169 -0.000460407 9.64546e-22)
(1.00177 -0.00027452 1.15902e-21)
(1.08049 -0.0356317 0)
(1.08029 -0.0376704 0)
(1.07822 -0.0364944 0)
(1.05734 0.0132313 6.37939e-21)
(1.05781 0.0142181 1.80228e-21)
(1.01263 -0.000804116 -3.14456e-22)
(1.01234 -0.000823328 0)
(1.01161 -0.000504884 0)
(0.283844 0.0223522 -2.20921e-22)
(0.288565 0.0229133 -1.14748e-20)
(0.258991 0.0201851 -1.15851e-20)
(0.99081 -0.00725841 7.30837e-21)
(0.991226 -0.00665675 3.08837e-21)
(0.99159 -0.00725822 7.79964e-21)
(1.16263 -0.0948174 0)
(1.1573 -0.095005 5.40234e-20)
(1.16059 -0.0999128 0)
(1.00098 -0.00766696 4.21254e-21)
(1.00114 -0.00800519 3.36184e-21)
(1.00099 -0.00806842 -8.91532e-22)
(0.980653 -0.0175882 3.39622e-21)
(0.980251 -0.0185081 0)
(0.981422 -0.0181766 0)
(0.07966 0.00481517 2.07596e-21)
(0.0667379 0.00347866 1.50815e-20)
(0.0870283 0.00632801 4.6278e-21)
(1.1 0.00922227 -3.03037e-21)
(1.10172 0.00928186 -1.30585e-20)
(1.10049 0.00771144 -4.77075e-21)
(1.09513 0.0725602 3.37765e-22)
(1.09332 0.0726637 -1.97073e-20)
(1.09463 0.0744409 -4.94985e-22)
(-0.309963 -0.00927991 5.61216e-20)
(-0.331752 -0.0080508 -7.26627e-20)
(-0.321059 -0.00533187 1.16386e-19)
(1.03351 -0.0181892 0)
(1.0344 -0.0182155 0)
(1.03408 -0.0190669 2.89376e-21)
(1.17623 0.0421024 -1.61603e-20)
(1.17904 0.0419145 4.2941e-20)
(1.17581 0.0450612 2.06759e-20)
(1.13683 0.0355216 -3.31651e-21)
(1.13531 0.0351631 2.47857e-20)
(1.11255 0.00350572 2.35385e-20)
(1.11166 0.00174658 -1.22621e-20)
(1.11029 0.00360085 -2.91457e-20)
(1.03912 -0.0896801 0)
(1.03583 -0.0900757 3.26296e-22)
(1.03745 -0.0866396 0)
(0.724094 -0.350586 1.06684e-19)
(0.575657 -0.2871 -4.25571e-20)
(0.440517 -0.224458 4.35296e-20)
(1.00005 -0.000173247 -4.56327e-23)
(1.00008 -0.000227221 -3.85266e-21)
(1.00005 -0.000145655 8.13789e-23)
(1.24035 -0.00355498 2.34597e-21)
(1.23065 -0.00489523 -2.31763e-21)
(1.13536 0.00663305 1.97382e-21)
(1.08972 0.0482907 -2.14499e-20)
(1.08962 0.0494561 5.4749e-21)
(1.0909 0.0489741 -2.27207e-20)
(1.13642 0.0667378 -2.05822e-20)
(1.143 0.0668332 2.85405e-21)
(1.14104 0.0691058 -3.85669e-22)
(1.15462 0.0515235 0)
(1.15659 0.0505891 -3.74122e-20)
(1.11737 0.0547232 -2.13312e-20)
(0.436547 0.0475717 -1.01016e-22)
(0.409679 0.0451761 -9.02463e-21)
(0.399094 0.0433198 -1.17771e-20)
(1.01988 -0.0114876 -1.0338e-21)
(1.01953 -0.0118842 0)
(1.01926 -0.0112555 -1.10355e-21)
(-0.078716 -0.0209043 3.37064e-20)
(-0.108587 -0.0204705 -5.56383e-20)
(-0.0623642 -0.0211071 9.09844e-21)
(1.05807 0.012743 -3.33804e-21)
(1.05681 0.012536 6.37489e-21)
(1.1324 0.0390364 -2.20542e-21)
(1.13157 0.0399728 9.00954e-21)
(1.13118 0.0384064 2.22491e-22)
(0.372716 0.0364748 3.52431e-20)
(0.364235 0.0368777 7.63409e-21)
(0.415657 0.0400018 2.71473e-20)
(1.12626 -0.0822871 0)
(1.12744 -0.0787149 0)
(1.12966 -0.0829342 0)
(0.440009 0.0495259 -3.7785e-21)
(0.476317 0.05352 -6.82412e-21)
(0.450598 0.05014 1.73304e-20)
(1.00002 -0.000114432 -1.78519e-21)
(1.00005 -0.000207799 2.36078e-21)
(1.25346 -0.158988 1.41955e-20)
(1.1701 -0.147026 7.99511e-21)
(1.15143 -0.137834 9.08738e-20)
(-0.0285658 0.0222329 3.27762e-20)
(-0.0113534 0.0243645 1.3456e-20)
(0.0225445 0.0243277 1.52227e-20)
(1.00517 -0.0371621 -7.06714e-22)
(1.00591 -0.0362893 3.11722e-22)
(1.0063 -0.0375614 3.87788e-21)
(0.212838 0.0420876 -2.87521e-21)
(0.255313 0.0466983 3.81035e-20)
(0.222775 0.0423484 -3.19874e-20)
(0.462517 0.0508224 7.37914e-21)
(0.473925 0.0520787 5.2286e-21)
(-0.277828 -0.00691312 1.14172e-20)
(-0.281145 -0.00796306 -3.27546e-20)
(1.09616 -0.461601 -4.05192e-21)
(1.08781 -0.469145 -2.44952e-20)
(1.08218 -0.474167 -4.09184e-20)
(0.486575 0.0523834 -8.52595e-21)
(0.475222 0.0502272 -2.25616e-20)
(0.445256 0.046687 -1.38887e-20)
(1.01408 -0.0221345 6.59341e-22)
(1.01338 -0.0221498 -6.95915e-22)
(1.01363 -0.0213438 5.491e-22)
(1.01828 6.80054e-06 1.10864e-21)
(1.01806 4.4019e-05 4.43788e-21)
(1.10926 0.0653192 -1.05251e-20)
(1.10893 0.0671141 0)
(1.10769 0.0654977 0)
(1.04466 -0.0566017 -1.19038e-21)
(1.04281 -0.0547647 1.02377e-21)
(1.04536 -0.0546623 3.16868e-21)
(0.981047 -0.0165174 -9.24363e-21)
(0.979676 -0.0168287 1.10136e-22)
(-0.220713 0.00731634 2.82812e-20)
(-0.216797 0.00649198 -8.52694e-20)
(-0.255415 0.00276813 -7.77582e-21)
(0.973263 -0.0107705 -1.06161e-20)
(0.974462 -0.0108729 -4.25647e-21)
(0.973618 -0.0120432 0)
(1.09692 0.0724097 1.21407e-20)
(1.09526 0.0708854 -1.29531e-20)
(1.07491 0.0229202 0)
(1.07605 0.023451 0)
(1.07494 0.0241396 0)
(0.107417 0.00319949 -6.4012e-23)
(0.12854 0.00562041 -3.80274e-20)
(0.103572 0.00285964 -3.42345e-20)
(1.00461 -0.0380807 -5.17807e-21)
(1.00416 -0.036731 -2.07902e-21)
(1.13325 0.0399988 2.31087e-20)
(1.13332 0.0384096 -3.16108e-20)
(0.200627 0.0423617 -2.51071e-20)
(0.176182 0.0356804 1.85529e-20)
(1.12718 0.0863137 -2.04171e-20)
(1.13201 0.0890754 7.94262e-21)
(1.13602 0.0873901 -1.89648e-20)
(-0.0105656 0.00582094 -1.00119e-20)
(-0.000562259 0.00567184 1.65967e-20)
(0.0145604 0.00801825 3.6129e-20)
(1.00084 -0.00732096 1.98925e-21)
(1.00096 -0.00727304 -3.53101e-21)
(1.13173 0.0668607 -1.13351e-21)
(1.13284 0.0649802 -4.13136e-20)
(0.995644 -0.00198016 5.25473e-22)
(0.995701 -0.00239829 -7.18779e-21)
(0.995227 -0.00240654 -1.03419e-20)
(1.04374 -0.0580465 -1.61541e-21)
(1.04609 -0.0577409 -1.41275e-21)
(0.863731 -0.448071 0)
(0.887696 -0.44317 1.37263e-21)
(0.871356 -0.42628 -1.25359e-20)
(0.837742 -0.452376 0)
(0.85693 -0.47697 0)
(-0.0217002 0.00268066 -2.88713e-20)
(-0.0385434 0.00151711 -2.06082e-20)
(0.700509 -0.1145 -2.20429e-20)
(0.693947 -0.130753 2.41464e-21)
(1.01999 -0.0388069 8.63073e-23)
(1.01882 -0.0390384 1.14251e-22)
(1.0193 -0.0377601 1.87031e-22)
(-0.1302 -0.0177771 3.44385e-20)
(-0.161232 -0.014405 5.40629e-20)
(-0.148781 -0.015671 1.88404e-20)
(-0.146963 -0.0138614 9.16615e-21)
(-0.179799 -0.0114317 1.3489e-19)
(-0.149495 -0.0151202 2.27123e-20)
(1.1197 0.00633207 -3.19348e-20)
(1.12079 0.00488038 2.47944e-20)
(1.1218 0.00682648 -2.75332e-21)
(0.99389 -0.0248798 0)
(0.993106 -0.0245192 -2.31737e-21)
(0.993257 -0.0256729 -1.51083e-21)
(0.00486741 0.00567124 3.08928e-21)
(-0.0238976 0.00139774 -1.32574e-20)
(1.08212 0.0211952 0)
(1.08164 0.0199912 0)
(1.08302 0.0203106 1.93942e-21)
(1.02024 -0.0732866 3.06152e-22)
(1.01794 -0.0720878 9.26458e-22)
(1.02004 -0.0705412 0)
(-0.292177 -0.00980982 4.28984e-20)
(-0.27704 -0.00935478 -2.85087e-20)
(1.02017 -0.00564277 0)
(1.02001 -0.00597685 0)
(1.02068 -0.00596772 -1.54418e-21)
(1.24438 0.00199687 -7.80327e-20)
(1.28456 -0.0059958 3.19926e-20)
(1.00464 -0.017178 -2.57749e-21)
(1.00446 -0.0165462 1.26135e-22)
(1.00413 -0.0168707 -2.79519e-21)
(1.02126 -0.0388291 5.75666e-22)
(1.0206 -0.0401652 9.58332e-23)
(1.26892 -0.0837967 4.89493e-22)
(1.26898 -0.0777555 3.11542e-21)
(1.27423 -0.0833853 4.10326e-20)
(1.12253 -0.0821206 0)
(1.1244 -0.0862191 0)
(0.0644449 0.00369134 -8.638e-21)
(0.0725676 0.00385555 4.7507e-20)
(0.0891163 0.00693734 -7.76662e-21)
(0.00856796 0.00501666 -1.47684e-21)
(0.0288957 0.00833388 -1.47792e-20)
(-0.125486 -0.0172659 -4.44808e-20)
(-0.117742 -0.0175205 1.35687e-20)
(-0.0844271 -0.020401 -2.91726e-20)
(1.04115 -0.0922273 0)
(1.04211 -0.0887867 0)
(0.215238 0.00842771 9.29905e-21)
(0.188452 0.00377785 -2.74114e-20)
(0.216103 0.00907287 -1.59088e-20)
(0.991447 -0.0109702 -1.28571e-21)
(0.991889 -0.0114186 -2.29143e-22)
(0.992001 -0.0106601 4.90444e-24)
(-0.0608665 -0.0225594 2.38272e-20)
(-0.100771 -0.0186591 0)
(0.971321 -0.0107244 -7.63572e-21)
(0.972726 -0.00907725 1.38559e-20)
(1.05884 0.0122354 -7.24652e-21)
(1.05923 0.0131254 -3.03276e-21)
(-0.275948 -0.00206589 4.71999e-20)
(-0.275325 -0.00410525 1.27493e-20)
(-0.13546 -0.0172822 -1.26913e-19)
(-0.161648 -0.0156336 9.0379e-21)
(-0.0285397 0.0369237 -2.54785e-21)
(-0.0467047 0.0317061 -6.35145e-20)
(-0.0644745 0.0290237 -2.04153e-20)
(1.08761 -0.439268 1.3409e-20)
(1.07883 -0.421093 -1.58497e-20)
(1.0664 -0.433123 -2.76272e-20)
(1.00924 -0.0231009 9.76709e-22)
(1.00857 -0.0230723 -1.31781e-22)
(1.00921 -0.0239118 1.99195e-21)
(1.10453 0.0709044 -1.13724e-20)
(1.10254 0.0715836 3.81404e-21)
(1.10271 0.0696565 -1.28629e-20)
(-0.127495 0.00840113 -1.43832e-20)
(-0.124263 0.00708489 -1.07824e-20)
(-0.157268 0.00260084 6.24324e-20)
(1.21207 -0.191858 3.80299e-20)
(1.22016 -0.19251 3.5496e-20)
(1.21527 -0.199568 5.90071e-21)
(1.10643 0.0706005 -1.90318e-20)
(1.10561 0.0727 -8.53394e-21)
(0.808058 -0.117522 -3.26472e-20)
(0.806371 -0.107061 -1.10859e-20)
(0.81722 -0.111731 -3.57737e-21)
(0.814996 -0.150357 -5.31214e-20)
(0.813151 -0.138825 1.74801e-20)
(0.802201 -0.146981 3.37317e-20)
(0.988991 -0.0261043 -4.48579e-21)
(0.989917 -0.0264128 6.30452e-21)
(0.989125 -0.0275048 -2.44029e-21)
(1.01686 -0.021571 3.06464e-22)
(1.01741 -0.0223129 2.95624e-23)
(1.01745 -0.0214479 -1.31793e-21)
(1.12467 -0.0073951 -7.59914e-21)
(1.1261 -0.00889025 0)
(1.12695 -0.00614966 0)
(1.01631 -0.0207665 9.75727e-24)
(1.01607 -0.0216922 5.22053e-23)
(-0.14437 -0.0146209 -9.33833e-20)
(-0.111366 -0.0177458 -7.79626e-20)
(1.05825 0.0113255 0)
(1.05964 0.0116029 2.21895e-21)
(1.03271 -0.0182011 2.13023e-21)
(1.033 -0.0174686 -2.55195e-21)
(1.02574 -0.125008 2.18679e-21)
(1.02779 -0.12932 2.13507e-22)
(1.02262 -0.128256 1.36975e-21)
(1.01481 -0.0222167 0)
(1.01471 -0.0230419 5.21791e-22)
(1.20663 -0.00812117 4.97809e-21)
(1.20464 -0.00443946 -3.38316e-20)
(1.20939 -0.00553535 -2.59297e-21)
(1.15931 -0.0411603 0)
(1.15594 -0.0402448 2.34869e-20)
(1.15675 -0.0437787 2.86854e-20)
(1.1268 0.045529 -2.64972e-21)
(1.12602 0.0465087 8.24296e-21)
(1.12744 0.046662 2.19879e-20)
(1.0738 0.0223334 5.69332e-21)
(1.0748 0.0216929 1.14403e-21)
(1.01354 -0.00764858 2.67706e-22)
(1.01334 -0.00788659 3.16717e-22)
(1.01389 -0.0079695 -2.05601e-22)
(1.01297 -0.000707278 -2.99517e-22)
(1.01304 -0.00108455 1.34395e-22)
(-0.213143 -0.0122331 6.20878e-20)
(-0.193193 -0.0158049 7.35016e-20)
(-0.104469 -0.0198921 -1.60686e-19)
(-0.0907105 -0.0206627 -1.5392e-20)
(1.10805 -0.350719 1.6458e-20)
(1.09909 -0.360863 0)
(1.1137 -0.361818 0)
(1.02798 -0.0153619 2.47186e-22)
(1.02701 -0.0153104 -8.39315e-24)
(1.02736 -0.0146853 2.66659e-22)
(1.01426 -0.0387412 -4.34234e-22)
(1.01528 -0.0394018 -1.65783e-23)
(1.01428 -0.0401045 9.9391e-24)
(0.112138 0.0150895 9.8723e-21)
(0.133199 0.018244 -4.19087e-21)
(0.109908 0.0161031 -1.62386e-20)
(1.15683 0.038742 -3.89665e-22)
(1.15873 0.0391515 2.65895e-20)
(1.15776 0.0406191 2.17346e-20)
(0.60372 -0.193245 3.25044e-20)
(0.626917 -0.186059 -5.50055e-20)
(0.623105 -0.215954 -3.89894e-20)
(1.01004 -0.0233371 0)
(1.00941 -0.0223223 1.18149e-22)
(1.13095 -0.150126 0)
(1.12892 -0.143982 7.33161e-22)
(1.12556 -0.149625 0)
(0.262933 0.0338742 2.59851e-21)
(0.228028 0.0310105 -1.16249e-20)
(0.256043 0.0341606 1.48188e-20)
(1.11085 0.0131942 -4.11931e-21)
(1.11222 0.0143708 2.03652e-20)
(1.11198 0.0120822 1.64151e-20)
(1.0326 -0.0897111 2.98492e-22)
(1.03398 -0.0929164 -7.53404e-23)
(1.09684 -0.0651174 1.61919e-20)
(1.098 -0.0619692 -2.88296e-20)
(1.09448 -0.0632017 -1.58354e-20)
(1.33694 -0.172115 -2.71308e-21)
(1.33017 -0.161586 -4.93331e-20)
(0.38848 0.036032 -7.25118e-21)
(0.3409 0.0339258 3.88347e-20)
(1.16716 -0.0954465 0)
(1.16409 -0.0911804 7.3755e-22)
(-0.0366719 0.0325948 -2.65859e-20)
(-0.0662099 0.0311224 6.7901e-21)
(-0.078349 0.029257 -2.53619e-20)
(0.717534 -0.112815 3.47077e-21)
(-0.1151 -0.0172009 -5.12124e-20)
(-0.146717 -0.0149083 -5.93994e-20)
(0.853219 -0.0874186 -1.26132e-20)
(0.844012 -0.0860602 -3.83884e-20)
(0.848944 -0.0789051 -1.91772e-20)
(1.10855 0.0161243 -1.78647e-20)
(1.10681 0.0157822 -5.24936e-21)
(1.10759 0.0175838 -1.45986e-20)
(1.26913 -0.0906775 5.50688e-21)
(1.26292 -0.0848962 2.98544e-22)
(0.974035 -0.0440183 -9.74346e-21)
(0.974175 -0.0419457 -5.15093e-21)
(0.975903 -0.0427777 -2.52932e-20)
(0.99093 -0.0105901 8.7603e-21)
(0.990811 -0.0114366 3.09887e-21)
(0.744651 -0.292869 -8.0495e-20)
(0.727898 -0.307319 -2.51537e-20)
(0.751179 -0.310771 -4.89387e-22)
(1.22356 0.0472946 -3.54504e-20)
(1.16645 0.0470921 2.17677e-21)
(1.16532 0.0517061 4.3873e-20)
(1.00724 -0.0693856 0)
(1.00692 -0.0713769 0)
(1.0048 -0.0702517 -1.4782e-21)
(1.02029 -0.00531419 1.40177e-21)
(1.01969 -0.0053807 0)
(-0.147436 -0.016581 -2.5249e-20)
(0.262591 0.0229243 2.38788e-20)
(0.265596 0.0244 1.92169e-21)
(0.237354 0.0196526 8.70151e-21)
(1.13425 -0.15466 0)
(1.1365 -0.149075 0)
(1.10709 0.0691102 5.77559e-21)
(1.10837 0.0707237 -1.50743e-20)
(1.2086 -0.0124188 0)
(1.20347 -0.0109251 2.54639e-20)
(1.16256 -0.0420548 0)
(1.16163 -0.0385257 1.84845e-20)
(1.169 0.0375823 0)
(1.17158 0.0372026 0)
(1.16962 0.0350914 -3.05976e-20)
(0.972636 -0.0201378 2.80781e-21)
(0.97333 -0.0215425 -1.45913e-20)
(0.97155 -0.0217012 -6.83667e-21)
(0.983852 -0.0080971 4.97624e-21)
(0.983293 -0.00743735 -7.32603e-21)
(0.984268 -0.00725188 7.67725e-21)
(1.00116 -0.00619782 1.34638e-21)
(1.00107 -0.0063144 -3.22504e-22)
(1.00099 -0.00584775 4.6109e-21)
(-0.0438771 0.0195396 1.48683e-20)
(-0.0691587 0.0171491 -3.28178e-21)
(1.10592 0.0130166 -3.5811e-21)
(1.10588 0.0146496 1.06999e-20)
(1.10475 0.0136169 -6.05125e-21)
(1.05979 0.00243974 3.86143e-21)
(1.06041 0.00304051 -1.7667e-21)
(1.0609 0.00212392 7.46248e-21)
(1.0001 -0.0004124 -6.69436e-22)
(1.00011 -0.000362017 9.7801e-23)
(1.00016 -0.000488594 2.86787e-21)
(0.424002 0.0454628 1.59429e-21)
(0.415869 0.0457362 -7.49505e-22)
(0.455261 0.0498931 -7.97486e-21)
(1.12367 -0.00512333 -7.21219e-21)
(1.12213 -0.00791237 5.77452e-22)
(1.10949 0.0633866 1.30936e-21)
(1.11112 0.0648622 -2.14076e-21)
(0.0925716 0.0052343 -1.59473e-20)
(0.0707608 0.00184638 -1.46001e-20)
(0.372322 0.032887 7.35356e-21)
(0.342249 0.0313574 1.21368e-20)
(0.377567 0.0327756 -2.81977e-20)
(0.362496 0.0315109 -1.71855e-20)
(0.406216 0.0349431 1.7363e-20)
(-0.227465 0.00696518 5.18096e-20)
(-0.196281 0.0112013 1.28415e-19)
(1.02884 -0.121677 -8.50844e-22)
(1.02402 -0.120714 0)
(0.773745 0.0722289 -5.13467e-21)
(0.787691 0.0737395 -2.65671e-20)
(0.702606 0.0711295 -4.26189e-22)
(1.00071 -0.00699949 0)
(1.0006 -0.00665719 5.16716e-22)
(1.00069 -0.0065993 0)
(1.01381 -0.00738249 -2.75046e-22)
(1.01323 -0.00726446 -7.94502e-22)
(1.13954 -0.00843101 -1.76111e-20)
(1.14068 -0.0106979 -1.56397e-21)
(1.13791 -0.0106115 1.17425e-20)
(1.00101 -0.000346211 -8.53916e-22)
(1.00091 -0.000441358 -8.06012e-22)
(1.00085 -0.000288091 -1.9022e-21)
(-0.0149415 0.0397627 3.60256e-20)
(0.011787 0.041139 1.68099e-20)
(1.13662 0.0482235 -5.60252e-21)
(1.13597 0.0484819 3.60362e-20)
(1.13648 0.0492913 2.80576e-20)
(1.11808 0.0648936 1.07058e-20)
(1.11963 0.0639358 -3.46307e-21)
(1.11926 0.0663038 1.41815e-20)
(1.01406 -0.0071512 0)
(1.01435 -0.00749254 -5.39258e-22)
(1.08034 0.0227526 0)
(1.08128 0.0219331 0)
(1.07984 0.0216454 5.94162e-21)
(1.1164 0.0661256 1.50478e-22)
(1.11621 0.0638233 -2.1632e-20)
(1.1548 0.0391041 -2.38286e-20)
(1.15594 0.0370754 -5.53868e-20)
(1.11124 -0.447709 1.04216e-20)
(1.03143 -0.11816 3.66115e-23)
(1.02956 -0.114168 7.74945e-22)
(1.03375 -0.114647 1.80738e-21)
(1.10947 0.0148474 -4.30906e-21)
(1.10881 0.0126287 1.09148e-21)
(-0.304017 -0.00854958 -5.18638e-20)
(-0.300455 -0.00693289 3.09627e-20)
(0.282321 0.0264332 3.49584e-21)
(0.256342 0.0211225 -5.11997e-21)
(1.13079 0.0405913 7.38149e-21)
(1.13188 0.0411285 -1.67483e-21)
(0.892625 -0.0629299 -1.77316e-20)
(0.888371 -0.0588847 1.56967e-20)
(0.887144 -0.0654279 -2.76219e-20)
(0.97682 -0.0227089 -6.02889e-22)
(0.976321 -0.0214853 1.30839e-20)
(0.977752 -0.0214368 1.79357e-20)
(1.01779 -0.0156759 4.09746e-22)
(1.01784 -0.016323 -2.71693e-22)
(1.01854 -0.0159804 -1.2014e-21)
(1.26707 0.040387 -7.4611e-20)
(1.2616 0.0457613 -1.283e-21)
(1.1071 0.0121525 -2.43407e-21)
(1.10543 0.0113585 2.96953e-21)
(0.0567503 0.00157588 -3.63791e-20)
(0.0438091 0.000960123 3.22909e-20)
(1.0801 -0.0333571 1.32171e-21)
(1.0823 -0.0344607 7.54363e-21)
(1.00745 -0.0670895 0)
(1.00964 -0.0684292 1.25349e-21)
(1.10079 0.0719648 7.74108e-21)
(1.09877 0.0722357 5.86963e-21)
(1.09905 0.0704131 -2.32386e-20)
(1.12994 0.0409909 0)
(1.1297 0.0396922 1.28746e-20)
(1.04378 -0.00993797 9.18009e-23)
(1.04476 -0.0103318 -4.43577e-21)
(1.04387 -0.010837 1.61527e-22)
(1.04045 -0.0269359 5.75187e-22)
(1.03914 -0.0269272 -3.17431e-21)
(1.03975 -0.0259315 -6.51824e-21)
(0.70033 -0.144608 5.039e-20)
(0.720764 -0.14849 0)
(0.709688 -0.161728 3.91258e-20)
(1.26974 -0.0965465 -8.69554e-21)
(1.26952 -0.103328 7.79276e-20)
(1.26334 -0.098089 2.07472e-21)
(0.0279453 0.0419553 -6.87933e-21)
(0.0468627 0.0451119 -4.1648e-20)
(0.0635481 0.0463543 4.60052e-21)
(0.174439 0.0432246 -1.1506e-20)
(0.161632 0.0428519 -1.13415e-20)
(0.20924 0.0470873 -1.18455e-20)
(1.09825 0.00910221 -1.79388e-20)
(1.09929 0.0107584 1.40763e-20)
(0.925989 -0.692716 -1.19425e-20)
(0.925206 -0.746973 -3.19368e-21)
(0.976308 -0.74564 -2.37688e-20)
(-0.00258037 0.0390732 9.23224e-21)
(0.0137553 0.040108 -4.60051e-21)
(0.937223 -0.0200626 -3.03951e-20)
(0.939677 -0.0189501 1.77591e-20)
(0.937105 -0.0170298 -3.38436e-21)
(1.10117 0.024125 -3.88872e-21)
(1.10188 0.0230289 0)
(1.10038 0.0233536 -1.48647e-20)
(0.27049 0.0215016 0)
(0.293652 0.0231388 -1.00184e-20)
(0.260566 0.0205462 6.00238e-21)
(1.07429 -0.0432587 0)
(1.07546 -0.0445314 0)
(1.07318 -0.04485 0)
(1.09163 0.0728224 3.57818e-21)
(1.08977 0.0732665 2.31607e-20)
(1.09113 0.0747526 2.10581e-20)
(1.0135 -0.0383929 -2.47222e-22)
(1.01419 -0.0379176 -1.67751e-21)
(1.27477 -0.0952784 -3.21114e-21)
(1.00007 -0.00160828 -1.37128e-21)
(1.0001 -0.00186976 -3.14201e-21)
(1.00008 -0.00191675 3.08292e-22)
(1.12969 -0.0750205 0)
(1.13144 -0.0722559 -1.20418e-20)
(1.13297 -0.0766431 1.43811e-20)
(1.02212 -0.0787067 1.32164e-22)
(1.02455 -0.0790696 -4.4932e-22)
(1.02311 -0.0812719 0)
(0.981698 -0.0155079 3.11316e-22)
(0.982356 -0.0162994 -2.44083e-20)
(1.14137 0.0400409 -4.09333e-20)
(1.14122 0.0407971 1.55513e-20)
(1.14205 0.0405591 -1.79119e-20)
(1.04394 -0.0191827 3.16815e-21)
(1.04287 -0.0185379 -1.98566e-22)
(1.04412 -0.0180658 5.98032e-21)
(0.178762 -0.533989 7.0592e-20)
(0.134045 -0.579178 2.2122e-22)
(1.01381 -0.00674674 0)
(1.01438 -0.0069053 -1.22506e-21)
(1.13778 0.0349378 6.83996e-21)
(1.13881 0.0342796 1.59882e-20)
(1.1374 0.0337833 1.70543e-20)
(0.0587863 0.00357363 -4.2658e-21)
(0.0386576 0.0017246 -3.85452e-21)
(-0.0488075 0.03199 -2.53222e-20)
(-0.0587653 0.0320723 2.27126e-20)
(-0.0134676 0.0357214 -2.49381e-20)
(0.89853 -0.0718187 4.68307e-21)
(0.903728 -0.0704687 -1.64315e-20)
(0.902025 -0.0761389 -1.57581e-20)
(1.10035 0.0253814 1.33968e-20)
(1.10191 0.025004 1.96775e-20)
(1.00004 -0.00108684 0)
(1.00002 -0.000825777 -8.47355e-23)
(1.00002 -0.000836227 3.01356e-21)
(0.754685 -0.279061 -2.06611e-20)
(0.734934 -0.272947 6.12524e-21)
(1.00119 -0.012778 -3.95629e-21)
(1.00121 -0.0122312 -2.69255e-21)
(1.00151 -0.0126452 -6.20861e-22)
(1.12605 -0.0740631 -3.42757e-20)
(0.0167839 -0.0396152 8.40617e-20)
(-0.0561995 -0.0336474 2.0931e-22)
(-0.0321143 -0.0365849 0)
(0.895624 -0.0679949 2.05456e-20)
(0.897515 -0.0617271 -1.14394e-20)
(1.07276 -0.0415283 0)
(1.07521 -0.0411014 -7.98679e-21)
(0.996585 -9.81578e-05 7.57357e-21)
(0.996216 -0.000424878 2.87138e-21)
(0.144288 0.0396026 -9.49131e-21)
(0.18252 0.0416747 1.31123e-20)
(1.02059 -0.0116332 3.07736e-22)
(1.02019 -0.0109966 -1.027e-21)
(0.905495 -0.420069 -8.07488e-21)
(1.0286 -0.491364 6.84825e-20)
(0.153635 0.0421649 1.3787e-20)
(0.142867 0.0412286 1.35782e-20)
(0.186089 0.0453733 1.87808e-22)
(1.20375 -0.190907 -2.04148e-21)
(1.20894 -0.184026 -2.16193e-21)
(1.0001 -0.000460406 -2.97791e-21)
(1.00006 -0.000334493 -4.1423e-21)
(1.26482 -0.324224 0)
(1.2871 -0.323174 0)
(1.2937 -0.336909 2.48548e-20)
(0.0133619 0.00449774 -4.69897e-21)
(0.020513 0.00431465 -1.97113e-20)
(0.038899 0.00848263 0)
(0.531298 0.0574465 6.90189e-21)
(0.496815 0.0537067 1.10314e-20)
(1.09168 0.0713288 -2.20756e-20)
(1.10325 -0.0125417 -5.59694e-21)
(1.10356 -0.0147329 -5.90604e-21)
(1.10123 -0.0133281 2.60989e-20)
(0.71784 -0.341513 -5.50069e-21)
(0.711145 -0.322252 -1.63516e-21)
(0.693317 -0.337025 -5.83688e-20)
(1.14067 0.039527 -1.56421e-20)
(1.14153 0.0391732 -1.28589e-20)
(1.08071 0.0238815 -8.03687e-21)
(1.07929 0.0235347 -1.2421e-21)
(1.08984 -0.409947 0)
(1.07314 -0.406529 -1.4431e-20)
(1.04661 -0.130913 3.75636e-21)
(1.0419 -0.130878 -1.18752e-21)
(1.04443 -0.126978 3.61442e-21)
(0.157458 0.00573124 -1.62257e-20)
(0.137731 0.00388697 1.81842e-20)
(0.137919 0.0027918 0)
(1.15476 0.0258707 1.67257e-21)
(1.15283 0.0270535 -8.82454e-20)
(1.15313 0.0244041 -1.70152e-20)
(1.00928 -0.000541859 6.18777e-22)
(1.00983 -0.000779377 8.7107e-23)
(1.00939 -0.0011534 -4.06093e-23)
(1.08087 -0.0139619 5.13769e-21)
(1.07903 -0.0136764 -5.0438e-21)
(1.07959 -0.0153625 -4.77681e-21)
(1.10205 0.0735442 2.14619e-20)
(0.425349 0.0451567 -3.52428e-21)
(0.395735 0.0432751 0)
(0.296874 0.0128273 -3.75123e-21)
(0.316506 0.0176485 8.04891e-21)
(0.307175 0.0137927 3.8258e-21)
(1.01716 -0.01536 1.65361e-21)
(1.01777 -0.0151437 1.49252e-21)
(0.584992 -0.206836 6.08256e-20)
(0.99229 -0.0118029 -3.5601e-21)
(0.99272 -0.0121737 3.96367e-22)
(0.992838 -0.011473 3.47361e-21)
(1.13499 0.0442667 0)
(1.13539 0.0436168 0)
(1.13457 0.0435942 0)
(1.16063 0.0385431 1.52304e-21)
(1.1626 0.0385205 1.99117e-21)
(1.16073 0.036867 -2.65939e-20)
(1.08222 -0.0145604 7.57718e-21)
(1.08176 -0.0132187 1.17994e-20)
(1.12263 -0.0036346 0)
(1.12448 -0.00270739 0)
(1.15676 0.0254234 4.09e-20)
(1.15599 0.0279729 3.33698e-20)
(0.998671 -0.0232877 1.13508e-21)
(0.999332 -0.0240238 1.13821e-21)
(0.999298 -0.0228091 4.91179e-21)
(0.810468 -0.127389 9.20193e-21)
(0.798841 -0.12288 0)
(1.10996 0.0583129 -3.34782e-20)
(1.10973 0.0601446 1.92859e-20)
(1.10837 0.0586754 -3.20042e-21)
(1.15499 0.0475547 -1.70453e-20)
(1.15513 0.0480558 2.36446e-20)
(1.15746 0.047259 4.45984e-20)
(0.997547 -0.00808729 4.11705e-21)
(0.99783 -0.00779718 -7.9319e-22)
(0.99763 -0.0074865 -4.87478e-21)
(0.982267 -0.0146271 9.54988e-21)
(0.980944 -0.0148015 5.02855e-21)
(0.893422 -0.0734111 1.7414e-20)
(0.359638 0.0289606 0)
(0.368749 0.0292644 1.57237e-20)
(0.402201 0.0318984 9.64131e-21)
(-0.237888 -0.00933387 0)
(-0.264899 -0.00737542 0)
(-0.240327 -0.0102794 0)
(1.1147 0.00797727 2.89532e-21)
(1.1138 0.00686005 -6.39273e-21)
(1.11557 0.00661276 2.24468e-20)
(1.02883 -0.0154358 1.02309e-21)
(1.0285 -0.0161045 7.5689e-22)
(1.15381 0.0390708 -3.99313e-21)
(1.15443 0.0400853 3.94485e-20)
(1.16668 0.0379623 0)
(1.16449 0.0382312 5.72065e-22)
(1.16493 0.0361209 0)
(1.12701 0.0418861 5.87836e-21)
(1.12581 0.0430283 6.88919e-21)
(1.12544 0.0414893 1.34582e-20)
(1.12166 -0.00153589 5.47895e-21)
(1.1204 -0.00402172 1.62878e-20)
(0.351205 0.0274047 1.1074e-20)
(0.323227 0.024306 -2.52304e-20)
(-0.0851964 0.00639022 2.69523e-21)
(-0.08164 0.00537198 -1.01188e-22)
(-0.114637 0.00238563 3.51292e-20)
(1.08426 -0.0211477 -6.14727e-21)
(1.08459 -0.0227235 -6.48555e-21)
(1.08601 -0.0211645 -9.03184e-21)
(1.09508 0.00640607 1.50211e-20)
(1.09652 0.00672173 9.12173e-21)
(1.09502 0.00780244 2.20688e-20)
(1.18979 -0.192908 1.32116e-20)
(1.15996 -0.180884 5.95436e-20)
(1.01865 -0.154288 1.0209e-19)
(1.01924 -0.020343 -3.20343e-22)
(1.0197 -0.0211441 -2.50309e-22)
(1.01855 -0.0207199 2.56376e-22)
(1.00122 -0.00602796 -8.46546e-23)
(1.00127 -0.0058782 1.39498e-21)
(1.0011 -0.00557803 0)
(1.12787 0.0412097 0)
(1.12812 0.0426074 0)
(1.14795 -0.114183 -8.90853e-22)
(1.1458 -0.109775 -1.14756e-21)
(1.14271 -0.113948 -5.55618e-21)
(1.02131 -0.0116581 9.96625e-22)
(1.02194 -0.0117218 0)
(1.02149 -0.011198 -1.39447e-21)
(1.00014 -0.00187119 2.90218e-21)
(1.00011 -0.00187019 -3.02523e-21)
(1.00008 -0.00160511 -1.31825e-21)
(1.00115 -0.0131694 -3.81521e-21)
(1.00092 -0.012772 -3.06401e-21)
(1.00375 -0.000667584 0)
(1.00402 -0.000686118 -8.93221e-22)
(1.00372 -0.000396783 0)
(1.09867 -0.00577595 -3.57592e-20)
(1.10059 -0.00590076 -1.06948e-20)
(1.09983 -0.00407902 5.61119e-21)
(1.00134 -0.00652008 -4.26688e-21)
(0.2785 0.0219879 1.19462e-20)
(0.310345 0.0244325 1.17287e-20)
(1.11447 0.0036532 2.1505e-20)
(1.11289 0.00513934 -9.29299e-21)
(1.01107 -0.0311698 2.60446e-22)
(1.01029 -0.0311014 -1.58995e-21)
(1.01093 -0.0319591 1.11425e-21)
(0.408417 0.0417385 1.4271e-20)
(0.108938 0.0150817 2.49013e-20)
(0.0916714 0.0139362 1.46932e-20)
(0.974173 -0.0161661 -1.173e-21)
(0.974659 -0.0175019 6.46476e-21)
(0.975621 -0.016324 4.14611e-21)
(1.13803 0.0361552 -8.1633e-21)
(-0.17441 0.00762011 -9.59627e-22)
(-0.207297 0.00330373 -5.23318e-20)
(-0.17037 0.00676317 -5.79499e-20)
(0.972251 -0.0452664 4.05456e-21)
(0.974446 -0.0460525 -2.50822e-21)
(0.973473 -0.0148294 -1.17505e-21)
(0.972334 -0.0163454 -7.40747e-21)
(1.11612 0.00296338 1.46509e-20)
(1.11616 0.00506195 2.42756e-21)
(0.0459372 0.00201572 -1.67086e-20)
(0.0435313 0.0029621 2.98202e-20)
(0.0669885 0.00495538 6.47254e-20)
(0.267791 -0.0182247 -3.26699e-20)
(0.194872 -0.0158104 0)
(0.253932 -0.0203722 -5.0727e-20)
(1.13841 0.00152055 -1.67817e-20)
(1.14086 0.00161833 -1.58403e-20)
(1.13937 -0.000336756 -1.52206e-21)
(1.00213 -0.00048899 -1.11988e-21)
(1.00203 -0.000696493 -1.82711e-21)
(0.767069 0.0705052 2.39349e-20)
(0.844397 0.0714018 -9.12184e-21)
(1.00072 -0.00740929 -2.84896e-21)
(1.1432 0.00174257 -1.72025e-20)
(1.14458 -0.000320074 -1.59654e-21)
(1.14589 0.00218003 -1.72758e-20)
(-0.181425 0.00755543 -5.1578e-21)
(-0.150681 0.0132838 9.08963e-20)
(1.15469 0.047536 1.57849e-20)
(1.15564 0.0474937 -7.06398e-20)
(1.1559 0.0466697 -2.18288e-20)
(1.05907 0.00146348 -1.99012e-22)
(1.05852 0.00240461 6.532e-21)
(1.21301 -0.208751 8.58125e-21)
(1.28804 -0.224546 -7.92463e-20)
(1.34456 -0.181524 8.60477e-20)
(1.32569 -0.173595 -5.9641e-20)
(1.32252 -0.182519 2.72122e-20)
(-0.126678 -0.0133743 2.08313e-20)
(-0.117549 -0.0125035 -4.96721e-21)
(-0.0854581 -0.0149789 1.41711e-22)
(1.21037 -0.0160297 1.40679e-20)
(1.20746 -0.019235 4.8463e-20)
(1.21226 -0.0200621 3.36456e-20)
(0.784835 -0.096527 -2.24124e-20)
(0.785264 -0.0851291 -2.19157e-20)
(0.77293 -0.0896172 6.44699e-21)
(-0.00772499 0.0343146 0)
(0.00599038 0.0366196 -2.7444e-20)
(0.155325 0.0220579 5.6437e-21)
(0.177373 0.0247278 -1.33093e-20)
(0.150556 0.0219276 -1.14338e-20)
(1.16361 0.0510226 0)
(1.15204 0.0521537 2.32094e-20)
(1.04172 -0.0270461 3.10888e-21)
(1.04105 -0.0281718 7.78696e-21)
(-0.275832 -0.00921566 -1.14091e-20)
(-0.250793 -0.0115048 4.89846e-20)
(-0.242357 -0.0111501 4.97377e-20)
(0.13943 0.00105952 2.83569e-22)
(0.143394 0.000262163 -2.17771e-20)
(0.477944 -0.446217 -2.06865e-20)
(0.445031 -0.419571 4.97295e-20)
(0.446482 -0.467292 -1.60527e-20)
(0.507033 -0.425777 -4.9886e-20)
(0.516703 -0.467681 -1.38341e-21)
(0.935224 -0.0213909 -2.04688e-20)
(0.936625 -0.0225328 -3.35511e-20)
(1.14223 -0.00433805 -1.18698e-20)
(1.14094 -0.00630421 2.47863e-22)
(1.14365 -0.006168 3.59983e-20)
(0.9439 -0.115394 3.02679e-22)
(0.947248 -0.110967 -1.18958e-20)
(0.949819 -0.116623 1.01473e-20)
(0.231023 0.0119682 9.03939e-21)
(0.209624 0.00647806 1.17139e-20)
(0.790694 -0.143746 2.56111e-20)
(0.789028 -0.130549 0)
(0.775697 -0.139577 -1.56659e-20)
(1.0074 -0.00163087 1.1911e-22)
(1.00737 -0.00194263 2.23604e-22)
(1.00773 -0.00182778 -9.92044e-23)
(1.01832 -7.50195e-05 -2.52574e-21)
(1.01822 -6.19765e-05 -7.25949e-22)
(1.06701 -0.0778547 -1.64128e-20)
(1.06995 -0.0784435 -8.00268e-21)
(1.0674 -0.0805142 3.67338e-21)
(-0.161649 -0.0151769 2.74844e-20)
(-0.136903 -0.0143064 -4.18965e-20)
(0.244881 -0.562834 -2.3912e-20)
(1.01982 -0.0199558 -6.124e-22)
(1.01879 -0.0196673 -6.72585e-22)
(-0.0794724 0.0302537 9.98561e-21)
(0.933074 -0.112415 0)
(0.93897 -0.114311 0)
(0.936712 -0.108415 2.27623e-20)
(1.09595 -0.0675522 4.0519e-20)
(1.09908 -0.0662534 1.70904e-20)
(1.06133 0.00366736 6.93182e-23)
(1.06026 0.00390159 -1.88553e-21)
(0.0451245 0.00156641 -4.25691e-20)
(0.0246493 0.00185584 -3.98574e-20)
(1.15185 0.0392486 2.99144e-21)
(1.15299 0.0375187 -2.04304e-20)
(1.09828 0.0742055 1.18525e-20)
(1.02121 -0.0758252 4.68377e-22)
(1.01943 -0.0777424 -1.46019e-21)
(1.07135 -0.040245 -3.59174e-21)
(1.0706 -0.0419644 0)
(0.522033 0.0588587 -6.55847e-21)
(0.52872 0.0587926 1.44775e-20)
(0.497135 0.0550146 1.28988e-20)
(0.976013 -0.0240937 -6.39043e-21)
(0.977532 -0.0239277 -2.06956e-21)
(1.16877 0.0399909 0)
(1.08241 -0.0208347 8.61424e-21)
(1.08389 -0.0192062 -5.239e-21)
(1.11612 0.00111724 1.3005e-20)
(1.11798 0.00270083 3.06107e-21)
(0.930298 -0.117438 7.54552e-21)
(0.926955 -0.111166 0)
(0.991738 -0.0121647 2.91668e-24)
(1.01221 -0.0314105 2.1728e-21)
(1.01141 -0.0303176 1.96264e-22)
(1.22607 -0.0796177 -5.28019e-21)
(1.22729 -0.0847952 -6.12886e-20)
(1.23239 -0.0791102 -5.68784e-20)
(1.22853 -0.193929 2.37959e-20)
(1.22466 -0.186051 2.21531e-20)
(1.15151 0.0277724 -9.03157e-21)
(1.1498 0.028493 4.49634e-20)
(1.15014 0.0262457 3.95373e-20)
(1.34008 -0.184637 -2.04834e-20)
(0.510835 0.0572568 -1.44419e-20)
(0.547288 0.0615472 -1.80135e-20)
(1.00878 -0.0724906 0)