/*--------------------------------*- C++ -*----------------------------------*\
| =========                 |                                                 |
| \\      /  F ield         | OpenFOAM: The Open Source CFD Toolbox           |
|  \\    /   O peration     | Version:  v2012                                 |
|   \\  /    A nd           | Website:  www.openfoam.com                      |
|    \\/     M anipulation  |                                                 |
\*---------------------------------------------------------------------------*/
FoamFile
{
    version     2.0;
    format      ascii;
    class       volVectorField;
    location    "50";
    object      ddtCorrDdt0(U);
}
// * * * * * * * * * * * * * * * * * * * * * * * * * * * * * * * * * * * * * //

dimensions      [0 1 -2 0 0 0 0];


internalField   nonuniform List<vector> 
13851
(
(0.000251338 0.00171833 3.35604e-19)
(0.103952 -0.0647731 1.17923e-18)
(-0.00213128 -0.0400199 -4.69873e-19)
(0.00059447 0.00119367 2.09097e-19)
(0.0211401 -0.00548166 -6.54591e-18)
(0.0257765 -0.0524865 3.428e-18)
(2.17514e-05 -3.84774e-05 2.20952e-18)
(-0.00499331 -0.0123983 -1.1085e-18)
(-0.000799792 -0.000344967 4.66735e-20)
(-0.081469 -0.0228081 1.88846e-19)
(-0.0160568 0.0172178 1.94744e-20)
(-0.0278348 -0.296373 5.11683e-19)
(0.00487649 0.0737933 6.2304e-20)
(-0.0142636 0.243668 -2.60342e-18)
(7.0355e-06 5.45371e-06 9.58514e-19)
(-0.00589196 0.00622231 5.40486e-20)
(-0.00102264 -3.28918e-05 -6.05178e-19)
(-0.000742651 -0.00802133 -2.35324e-19)
(0.0830401 0.0309295 -1.51932e-17)
(-0.000752782 -0.000232198 -3.07426e-20)
(0.000439051 0.00106619 1.77473e-19)
(0.00263094 -0.0364023 -4.27009e-20)
(0.000318222 -8.2303e-06 -6.41316e-20)
(-0.000106454 -0.000133065 2.92542e-20)
(0.000238642 -1.18055e-05 3.52446e-20)
(-0.00699848 -0.0130877 -4.51664e-19)
(-4.10744e-05 -0.000394763 -4.24667e-19)
(0.0657687 -0.140558 -4.94885e-17)
(-7.95121e-05 0.00145868 -7.58576e-19)
(0.00155943 -0.00065066 5.18399e-20)
(0.0229566 -0.0702255 -2.5965e-18)
(-0.00116401 -7.90546e-05 1.42051e-19)
(-0.00673542 -0.0380227 1.67118e-19)
(0.038321 0.0411027 7.76747e-20)
(-8.72326e-05 -9.2342e-05 -1.30827e-19)
(-0.0173071 0.011037 -3.14695e-18)
(-0.03523 0.0153698 -9.67551e-18)
(0.0704863 -0.0502277 1.32755e-18)
(-0.0901914 -0.0314923 6.39213e-19)
(0.0334613 0.0549957 -2.20568e-18)
(-0.000138383 8.08878e-05 -1.9517e-19)
(0.000345309 -1.47281e-05 -1.02762e-20)
(-0.0249802 -0.0658492 5.15806e-18)
(-0.0171607 0.00998064 6.58566e-20)
(-0.0139839 0.0134993 2.1541e-20)
(-0.0953276 0.400958 -1.89694e-17)
(-0.00398683 0.009761 -5.1602e-20)
(0.0408103 0.151814 2.9228e-18)
(-1.03522e-05 -0.000447657 -1.70416e-17)
(0.0187359 0.0232998 3.23224e-19)
(0.0074552 0.00755413 -8.31283e-18)
(0.0185044 0.0235288 9.64623e-18)
(-0.0497712 -0.170668 3.31575e-21)
(6.33109e-06 -3.1537e-06 -1.62471e-18)
(-0.000138831 -1.38826e-07 3.30894e-20)
(0.000323818 -7.14309e-05 4.01884e-22)
(0.000264449 0.000206123 7.18023e-20)
(-0.126471 0.0435085 1.21863e-17)
(0.0012947 -0.000660679 -1.37212e-20)
(1.00397e-05 5.59977e-05 -5.04475e-19)
(0.0702422 -0.0595143 -6.53959e-19)
(0.1382 0.062822 -4.38449e-18)
(-0.0483685 -0.0367206 2.74059e-18)
(0.0261628 0.000182628 -1.89807e-18)
(0.100735 -0.0223022 -2.73534e-19)
(0.00219437 0.00296014 1.65655e-19)
(-0.0211718 0.0160431 8.66027e-18)
(-0.00706605 0.016124 3.49486e-20)
(0.0017856 -0.00134667 1.18779e-18)
(-0.00200418 -0.00790933 1.00007e-18)
(0.0373317 0.000933141 -4.57131e-17)
(0.00501968 0.0115494 1.07947e-17)
(0.0885593 -0.0642131 1.72084e-18)
(9.70763e-07 -1.28379e-06 -2.77922e-20)
(-0.000138112 -1.33743e-05 -2.05832e-19)
(-0.0012299 -0.00036267 2.46844e-19)
(0.00267807 -0.0335179 1.03017e-19)
(-0.0201262 0.0110015 -9.39417e-18)
(0.00575579 -0.00522104 4.82694e-18)
(0.0383145 0.000154425 -2.30283e-18)
(-3.30474e-06 6.91425e-05 -3.45445e-18)
(-0.000403212 -0.000393617 -8.11301e-21)
(-2.50702e-05 -0.000194981 -2.26086e-19)
(-0.139293 0.217687 5.04976e-17)
(-0.0411561 -0.0477607 4.40239e-19)
(-0.0430262 -0.274357 -1.7274e-19)
(0.000617488 -0.0377509 3.85141e-18)
(-0.181993 0.526414 -6.67527e-18)
(-0.000567821 -0.00061647 2.06823e-18)
(0.00190387 0.000674755 1.18431e-19)
(-0.0161866 0.0118438 3.78276e-18)
(0.0139137 0.0174691 7.72236e-20)
(-0.0121484 0.0156818 -7.57769e-21)
(-0.000352858 -0.00137536 -3.06501e-18)
(-0.000474896 -0.000530625 -1.19148e-18)
(-5.62368e-05 0.000138006 1.71908e-19)
(0.0223449 -0.00318811 1.68809e-18)
(-0.0232062 0.126511 2.79181e-18)
(0.0169509 0.016856 1.50305e-18)
(-1.64476e-05 0.00010363 -3.65028e-19)
(-0.0465522 0.399342 2.8334e-18)
(0.00656696 -0.000734333 5.17853e-18)
(-0.000525065 -0.000492 -2.89898e-19)
(0.000258158 -0.000446107 -1.78113e-18)
(-1.34964e-05 3.0303e-05 3.53012e-21)
(-0.0243151 -0.0361983 4.66169e-19)
(0.00717377 0.00161916 6.77035e-18)
(0.000498145 -0.000266001 1.23958e-20)
(0.0194853 0.00506774 2.92588e-19)
(0.0360013 -0.0490554 1.79277e-18)
(-0.000870682 0.000107797 -8.09728e-20)
(0.0019891 0.000749799 6.4183e-20)
(0.0112499 0.0140783 9.44512e-20)
(-8.66496e-08 -3.98447e-05 7.55706e-20)
(-0.000996703 0.000108661 -1.02663e-20)
(-0.019292 -0.00414493 -3.04236e-19)
(-0.0189294 0.121127 4.22227e-18)
(0.000473148 -0.000238722 7.71542e-21)
(-0.000285129 -7.52539e-06 2.1456e-20)
(-0.000150536 -1.57778e-06 -4.27978e-19)
(-0.0164366 -0.0789071 1.5151e-17)
(0.000231912 -0.000413245 7.91037e-19)
(0.000280716 0.0791626 1.35507e-17)
(-0.0264207 -0.0760975 -1.16773e-17)
(0.0665698 0.120285 -9.46115e-18)
(0.000129647 -0.000340798 1.63965e-20)
(0.0755927 0.0303429 -1.89187e-18)
(0.00663065 -0.0031491 -2.20162e-18)
(0.000497018 0.000740722 -6.5256e-19)
(0.0493032 -0.0069883 -1.06579e-17)
(-0.000134292 7.33242e-05 6.94097e-20)
(-0.000354662 -0.000120132 -8.34833e-20)
(0.0372025 0.00131534 4.1418e-17)
(-1.40386e-05 -0.000181743 1.99939e-19)
(-0.0210776 -0.0324305 -7.04928e-18)
(-0.000333405 -2.72214e-05 -2.93843e-19)
(0.00048604 -0.000271562 -3.04432e-20)
(0.00194774 0.0149236 1.17364e-17)
(0.17055 0.0425836 2.89022e-18)
(-0.252568 -0.474887 -1.32214e-17)
(-0.0627502 0.420407 -2.1773e-18)
(-0.000138974 7.60136e-07 5.19783e-19)
(-0.00250795 -0.00177144 1.24649e-19)
(0.000497517 -0.000195605 -3.64939e-20)
(-0.000130931 0.000114455 -9.44562e-19)
(-0.0159861 0.00483357 8.68446e-20)
(7.56608e-05 -0.000463165 1.28467e-21)
(0.0515279 -0.0117773 -3.83228e-18)
(2.49331e-05 -2.72034e-05 -5.52182e-18)
(-0.0158452 0.0215602 2.51914e-20)
(-0.00341586 0.00346618 -1.3071e-17)
(-0.000164166 -1.53955e-05 7.51215e-19)
(-0.0259852 0.26929 -1.76376e-18)
(0.000312358 0.000165455 -7.68923e-19)
(-0.000199386 3.57338e-06 -1.89069e-18)
(-4.49414e-05 8.95415e-05 -2.94965e-19)
(-4.46734e-05 -0.000274307 5.11501e-20)
(0.000749582 -0.000179995 -2.6122e-19)
(0.0213855 0.0238125 -1.06486e-17)
(0.00828512 0.00662781 4.08185e-18)
(0.00023806 -0.00013496 6.67846e-22)
(0.00045304 -0.000892692 5.14463e-18)
(-0.138726 -0.0263118 -1.77552e-17)
(-0.000368048 -0.000122498 -5.84006e-21)
(0.00505809 0.0019322 -7.49853e-19)
(0.000603398 -0.00025012 -7.14271e-23)
(6.66255e-05 -0.000483966 -9.35594e-22)
(0.00190496 -0.00114316 -3.9837e-18)
(0.000381669 0.000613239 -1.15157e-20)
(-0.0418871 0.225112 4.25549e-17)
(-0.0197562 0.00766515 1.37225e-17)
(-0.000256755 0.000573865 6.89376e-19)
(-3.48482e-05 -0.000227916 4.82141e-20)
(-0.156007 -0.36858 1.20033e-17)
(-0.00036754 -0.000109479 2.83215e-19)
(0.0272909 0.243294 2.10266e-17)
(0.00610717 -0.00364455 2.33906e-18)
(-0.00177849 -0.00244919 5.5152e-20)
(0.0807394 0.0394013 -1.01004e-18)
(0.000412354 -0.000249904 -9.2716e-22)
(-0.00158327 -9.32256e-05 -1.68351e-18)
(0.00952375 0.0125372 -2.42708e-17)
(-6.13915e-06 -0.000146799 2.37228e-18)
(0.00750095 -0.0384317 -1.88403e-19)
(0.00025705 0.000198821 -2.78677e-21)
(0.000402813 0.00014246 -5.55669e-20)
(0.00167057 0.00363535 -8.02766e-20)
(-0.000137687 -6.64892e-06 2.65416e-19)
(0.0281609 -0.0105414 -1.08093e-19)
(-0.0289292 0.103544 1.83791e-18)
(-0.00713339 0.01041 -1.50627e-19)
(-0.0717384 -0.150236 8.4193e-18)
(0.00230668 0.000876328 2.07209e-19)
(0.00158367 -0.00232367 -8.58055e-18)
(0.130395 0.0494072 5.58002e-18)
(-0.000195125 2.24655e-05 2.52687e-18)
(-0.0024109 -0.001574 1.60675e-19)
(0.0145257 0.0271578 1.07958e-18)
(-0.00186685 -0.0022025 8.86052e-20)
(-0.001229 -0.000324485 -1.39161e-19)
(8.35583e-05 -0.00045083 4.06525e-20)
(0.0102126 0.375978 1.70283e-18)
(-0.000195042 -6.27689e-06 -1.56963e-19)
(-6.43608e-05 3.83974e-05 -1.84776e-18)
(-0.0485479 0.046519 6.54488e-19)
(-3.35184e-06 -0.000149139 -9.55524e-19)
(0.229497 -0.142787 -2.85681e-19)
(-0.000914907 -0.000268872 2.847e-18)
(0.0182943 0.0105182 -2.54846e-17)
(0.000292756 -0.000166013 -1.66565e-21)
(-0.00231964 0.0245181 5.05954e-18)
(-0.000450405 -0.000470245 3.61235e-20)
(0.0303458 0.0185557 -1.91002e-19)
(0.000417382 -0.000152213 2.38787e-21)
(0.000511211 -0.000210005 -8.74418e-21)
(-0.00104127 0.01361 -2.6605e-20)
(-0.0199161 -0.0485411 -3.35991e-18)
(-0.0910446 0.446275 3.08762e-18)
(6.95622e-06 -1.32064e-05 4.29746e-19)
(0.0159021 0.0121969 1.69517e-17)
(-0.00105902 -0.000314345 -2.11219e-18)
(-1.54213e-05 6.6543e-05 7.90373e-18)
(-0.0342166 0.0646866 2.89995e-18)
(0.033931 0.014056 -3.8452e-18)
(0.0126774 0.0111084 2.01934e-18)
(0.000581523 2.10975e-05 2.80463e-20)
(-0.000166357 -0.00205556 -2.71285e-19)
(-6.12933e-05 -1.8696e-05 -8.61831e-21)
(-0.0448675 -0.0414999 -3.93114e-17)
(0.000388288 -0.000153759 -3.63243e-21)
(-0.00854738 -0.0114993 7.05053e-19)
(0.0798012 -0.077882 6.02467e-19)
(-0.00024828 0.000553347 -3.21375e-19)
(0.00222505 0.000759654 6.82959e-20)
(0.00487114 0.00541374 -1.95587e-17)
(0.0202368 -0.0198146 -7.12526e-19)
(0.247996 -0.131203 1.67438e-19)
(0.107401 -0.0209545 5.54194e-19)
(0.000484694 -0.000186394 -8.41084e-21)
(-6.96129e-05 4.65044e-05 1.10822e-18)
(0.00623333 -0.0742435 -9.25204e-19)
(-0.0134815 -0.0228444 2.27465e-18)
(0.000252713 -0.000479203 -1.8768e-21)
(-0.0599052 0.0515482 -2.57424e-18)
(5.07087e-05 2.14114e-05 8.4425e-21)
(0.0147186 0.0123924 -1.41194e-17)
(0.00734726 -0.00115141 -7.3528e-18)
(0.0299491 0.0495929 -3.01872e-18)
(7.81618e-05 0.000137375 -9.64005e-19)
(-0.00102304 0.00131965 7.71368e-19)
(0.00305319 -0.00903833 -1.0309e-19)
(-0.0107247 -0.0162449 -2.2377e-18)
(3.74216e-05 -0.000262104 2.24467e-18)
(-1.80078e-05 0.000176979 4.40156e-19)
(0.00341334 0.00252405 -2.88388e-18)
(-0.132836 0.182134 -3.97387e-18)
(-0.0113017 0.0952861 -1.48342e-18)
(0.00482787 0.0161923 2.15121e-18)
(-0.0927027 0.00828838 -7.20094e-18)
(6.8541e-06 3.02361e-05 -3.06746e-18)
(0.000504741 -0.000179681 7.72617e-21)
(-0.00315826 -0.00578479 -1.62311e-19)
(0.0427254 -0.265304 7.13907e-19)
(0.00062201 -0.000485266 -2.94376e-21)
(0.0899175 0.0321202 -3.28775e-18)
(-0.00018798 1.57469e-05 -3.09421e-18)
(3.82585e-05 -0.000253975 -3.84662e-18)
(-0.000381294 -0.00120849 3.92255e-18)
(-0.0336241 0.0661657 -4.80029e-18)
(0.00843159 0.000938435 -3.40844e-21)
(0.00171534 -0.00941952 7.48478e-19)
(-0.000209987 3.79047e-06 -6.50348e-18)
(0.0670855 -0.102617 -7.51659e-19)
(0.00482857 -0.00500029 -3.28362e-18)
(-0.00456494 0.00649432 1.74085e-19)
(-0.000353582 -0.000132773 -2.54068e-19)
(-0.000386446 -0.000328822 5.76237e-21)
(0.00134512 0.00160364 2.43381e-20)
(0.0177322 0.000287099 7.9153e-18)
(-0.0126657 0.0202091 1.58593e-20)
(0.000236128 -0.000480711 2.19508e-21)
(0.000321553 -0.000142294 1.00169e-21)
(8.3735e-05 0.000103443 2.34832e-21)
(0.00316076 0.00200987 -1.61885e-18)
(0.00559748 -0.32195 2.25877e-19)
(-0.00444387 0.344718 1.16049e-17)
(-0.000923874 -0.000169672 -4.22765e-20)
(-5.51467e-06 -9.6468e-06 1.37499e-18)
(0.0420154 -0.139547 2.88408e-19)
(-0.000326895 -0.000357201 2.75053e-21)
(0.0581495 -0.0110821 4.57092e-18)
(0.00112424 -0.000450249 1.04009e-19)
(1.76741e-06 6.04814e-05 -1.43661e-18)
(0.00247381 -0.00190892 3.64406e-18)
(-0.000348944 -0.000406078 1.34793e-21)
(0.0828521 0.0363977 1.70929e-17)
(0.0033295 0.00235424 -1.13996e-19)
(-0.0289589 -0.205042 5.20518e-19)
(-0.000331895 -0.000135831 6.16329e-21)
(0.0121685 0.0140291 2.05261e-17)
(0.000400414 -0.000826783 4.4722e-18)
(-0.000997892 7.81321e-05 5.7811e-19)
(0.0161736 0.0033591 -3.9063e-18)
(-0.00010029 -0.000160293 9.08689e-19)
(-0.0161131 -0.0432215 -2.64233e-18)
(-0.0169484 0.0380244 -5.12638e-18)
(-0.000860148 -0.000142373 -5.06786e-20)
(0.00312461 0.000497424 2.3169e-18)
(-0.000519664 -0.00148491 6.74118e-18)
(0.000923472 -0.000444402 5.37535e-20)
(0.181881 0.0382928 2.47717e-18)
(0.00376292 0.00272373 -1.86814e-19)
(4.98792e-05 -0.000302607 -1.17589e-18)
(-0.0369002 0.081466 -8.52379e-18)
(0.000444191 -3.4004e-05 -2.71176e-20)
(-0.0013157 0.00139976 -1.32556e-18)
(-0.000155742 -0.000670697 -8.66703e-21)
(0.0170182 0.000842615 -1.2927e-17)
(-0.00950016 0.00954463 -9.23328e-18)
(7.43376e-06 -1.14674e-05 1.25621e-18)
(0.00582151 0.00115873 -1.29778e-18)
(-2.39668e-06 1.72578e-05 8.62958e-19)
(-0.0778129 0.0169638 -8.60308e-18)
(0.00616762 -0.0121444 -5.85323e-19)
(0.000420954 -0.000116043 7.26915e-21)
(0.000221143 -0.000278802 -2.90488e-19)
(-0.00834262 0.0101571 9.45039e-18)
(-0.000242101 -0.00181005 1.74069e-18)
(-0.000155047 -3.08508e-05 -3.11519e-18)
(-5.02119e-06 -1.5108e-05 -2.08889e-18)
(-8.8119e-05 -0.000110285 -1.10332e-18)
(5.71913e-05 -0.000310221 9.31025e-19)
(-0.0184929 0.0178095 -4.52189e-20)
(-0.036189 0.329726 -6.3579e-19)
(0.0699348 0.206139 -3.66095e-17)
(-0.0124751 -0.0079911 -4.42578e-18)
(0.0152483 0.00382957 4.72291e-18)
(0.132114 -0.0825267 -3.2288e-19)
(8.71584e-06 1.77432e-06 -2.57579e-19)
(0.00164513 -0.00273212 -2.95234e-18)
(0.0611018 -0.0162368 -5.92801e-18)
(0.00675187 0.0287656 -1.77762e-19)
(0.0303757 -0.0359205 -4.65969e-19)
(0.012524 0.0201051 1.02827e-17)
(0.092997 0.0266868 8.97129e-18)
(0.00649889 0.000500339 -8.70019e-20)
(0.0010345 -0.414791 5.57493e-18)
(-0.00306437 0.0261618 5.74963e-18)
(1.97522e-06 3.10066e-06 -2.7467e-19)
(-0.00419879 -0.00439926 -4.47633e-20)
(-0.00477858 -0.00356037 -2.3654e-20)
(0.0273559 -0.145203 -1.1063e-18)
(-0.000136704 -2.19924e-05 3.92517e-18)
(0.0343382 -0.0398037 3.12806e-19)
(-0.0575656 -0.0203926 2.92362e-17)
(-1.17912e-05 -0.000206503 1.29056e-21)
(-0.00955728 -0.416762 7.28812e-18)
(0.0002254 -0.000328992 3.03525e-19)
(-7.69963e-07 1.98618e-05 4.26089e-20)
(0.000123901 0.000102004 -5.44867e-21)
(0.000474003 -0.000246641 2.57905e-22)
(-0.000105941 -0.000245913 -2.15784e-22)
(-0.00549847 0.0279584 -8.81553e-18)
(-0.0572328 -0.0308209 -3.75933e-19)
(-6.56155e-05 5.45336e-05 -6.5986e-19)
(0.00287138 0.000181994 -1.42759e-17)
(0.000503536 -0.000219343 1.02939e-20)
(0.00212303 -0.164383 -7.35105e-19)
(-0.00466354 0.0161572 -3.1343e-19)
(-0.0308225 0.313395 4.06789e-18)
(0.00637173 0.215075 -3.80172e-17)
(-6.31918e-05 7.40186e-05 1.12449e-18)
(-0.0174532 -0.0555556 5.1941e-18)
(-0.0010004 -0.00150752 -9.3182e-19)
(-0.0329832 0.309396 1.36565e-17)
(-0.000108766 8.49806e-05 -1.49691e-20)
(0.000420467 -0.000156503 -1.1296e-20)
(0.0118086 -0.00342927 2.91125e-19)
(-0.00470024 0.378414 3.89446e-18)
(-0.000139352 -1.47462e-05 2.98287e-19)
(0.1974 0.0132997 1.80156e-18)
(0.0133085 0.0266345 3.88453e-20)
(0.0121163 0.0224131 -1.60133e-17)
(-0.127986 0.263655 -5.77326e-17)
(-0.0110474 -0.00191009 2.39009e-19)
(-0.010538 -0.0038916 -3.07911e-19)
(-0.00225241 -0.00586748 6.96572e-19)
(-0.000279736 -9.79675e-05 -1.01036e-19)
(-1.06118e-05 -1.10842e-06 1.60501e-18)
(-0.0105902 -0.00586786 2.65881e-18)
(0.00520675 0.00145191 -7.8566e-18)
(-0.0229648 0.227849 -6.48204e-18)
(0.001843 -0.000771294 -3.90588e-18)
(0.0101984 0.012212 -6.98654e-19)
(-0.0123926 0.0337403 1.42019e-17)
(0.000561216 -0.000234789 -1.00282e-20)
(3.14608e-06 2.69701e-05 -2.73362e-18)
(0.0293674 0.232276 2.59267e-17)
(0.0377326 0.000789787 -1.87735e-18)
(0.0731496 -0.084853 8.98401e-19)
(-0.0261857 0.109111 -7.57226e-18)
(0.0132788 -0.00465241 3.96457e-19)
(-0.000998932 -0.00175972 -1.49468e-18)
(0.000341692 2.8605e-06 2.65018e-19)
(0.133301 -0.086027 3.7858e-18)
(-0.000526403 0.000187483 -1.46464e-19)
(-0.00611997 0.00491601 1.37181e-19)
(-0.00189287 -0.00536002 7.19569e-19)
(1.68004e-05 4.58506e-05 7.29585e-19)
(2.38469e-06 4.40594e-05 -2.09402e-21)
(-0.000864092 -0.000234064 -3.59745e-20)
(0.000611492 -0.000268505 2.55124e-20)
(0.0239554 0.00192106 -1.67946e-18)
(0.0349018 -0.0173315 -1.19188e-18)
(-0.0928915 0.0358489 -1.09675e-17)
(-0.00507969 -0.0080879 5.83816e-19)
(0.00633996 0.00177946 -2.91039e-18)
(0.016974 -0.00486467 -5.41229e-19)
(-0.00724796 -0.00375937 2.98396e-19)
(-0.00106763 0.00213598 5.91581e-19)
(0.017563 -0.160901 1.99139e-18)
(-0.000861833 0.000128588 3.97444e-18)
(0.00231733 0.0121116 1.41977e-19)
(0.000517441 -0.000329737 -5.71155e-21)
(-0.000820174 -0.000223735 -1.1118e-19)
(0.000269303 6.50782e-05 9.55579e-20)
(0.0813615 -0.0735695 1.83605e-18)
(0.0113308 -0.0196226 -2.19688e-18)
(0.0380921 0.00779927 -1.37777e-17)
(0.0158825 -0.00123051 -7.29307e-20)
(-0.101026 0.0280975 5.24814e-18)
(0.0390561 0.0191269 2.45054e-18)
(-0.00732493 -0.0347392 2.84236e-18)
(-0.000160849 -2.05101e-06 -7.99523e-19)
(0.0040695 0.00588625 1.3917e-17)
(-0.000106876 7.3663e-05 -4.36432e-19)
(-0.00468525 0.00397788 -4.07502e-19)
(0.000164438 -0.000143342 2.13082e-20)
(0.0915541 -0.154573 -2.61906e-17)
(0.00139189 0.0174515 -2.87431e-18)
(-0.0157595 -0.0335259 -7.32823e-19)
(0.0115447 0.0115473 4.53506e-19)
(-0.00211863 -0.00215199 -1.51443e-19)
(0.00205281 7.73993e-05 -1.28868e-19)
(0.00333953 0.0121484 2.05448e-18)
(0.0747027 0.326796 -3.88823e-18)
(0.000257932 0.000193646 -4.06963e-21)
(-0.000963098 -0.0023806 3.28891e-18)
(0.00644216 -0.00463818 -5.59234e-18)
(0.00976091 0.000111037 9.99027e-20)
(-0.000526749 0.000157626 -3.12874e-21)
(5.76993e-05 -0.000291926 1.66871e-18)
(-0.0027424 0.00314596 -7.51585e-18)
(0.0165183 0.0217926 9.45511e-18)
(-0.00642497 -0.01541 8.10379e-20)
(0.141855 0.0926169 2.13916e-19)
(0.000626863 6.10384e-05 1.51006e-20)
(0.000276647 -0.00022183 -2.64632e-19)
(-0.0379417 -0.0370432 -1.77803e-17)
(0.00621629 0.00161745 7.90467e-19)
(0.00033891 -0.000143308 -4.13955e-22)
(-0.204712 0.567249 -1.23963e-17)
(-0.000287672 -8.59689e-05 -5.02455e-20)
(0.000532486 0.00159487 -2.73086e-19)
(-0.000697159 -0.00044683 -1.43651e-19)
(0.0210126 0.00961218 -2.58585e-19)
(0.000461748 -0.000215226 3.9646e-19)
(0.000311479 -0.000156957 -2.49663e-21)
(-0.0021946 -0.00196039 -1.8516e-19)
(-0.0356355 0.0850484 1.05069e-17)
(-1.8382e-05 -0.000199279 9.51519e-19)
(0.0023204 -0.000811314 5.84737e-18)
(-0.000325393 -3.10588e-05 1.22216e-19)
(-0.0103253 -0.00237626 -8.73013e-19)
(0.00380311 0.00316734 -9.43016e-20)
(-1.08579e-05 3.75964e-05 -1.36611e-20)
(-5.82354e-05 -0.000148017 -6.92178e-21)
(-1.80254e-05 -4.57937e-05 6.89479e-20)
(-0.0001715 -9.14875e-05 -8.33763e-20)
(0.0055109 0.335598 -7.45475e-18)
(2.60235e-05 -0.000197308 3.96276e-19)
(0.00613107 -0.0459386 -1.15617e-18)
(-1.98155e-06 -0.000122984 -6.04721e-19)
(0.000335507 -2.57709e-05 -2.71553e-19)
(-0.0691143 0.333554 4.44294e-18)
(0.0135944 0.00980835 -1.08072e-17)
(8.20883e-06 -0.00011929 8.23504e-19)
(-0.0129529 -0.00137985 2.0757e-19)
(-0.00151892 0.00202732 -2.8102e-19)
(-0.0164677 -0.0312408 1.93196e-18)
(-0.123904 0.315978 3.87146e-18)
(0.000246076 -0.000146823 4.25529e-20)
(-0.0602781 -0.00833433 5.35315e-19)
(-0.000119978 9.63412e-05 1.03916e-19)
(0.0210195 -0.015148 -2.42878e-18)
(1.78579e-05 5.60874e-05 -4.255e-18)
(0.0116219 0.0624705 3.7902e-18)
(0.000480145 -0.000371695 9.66254e-21)
(-0.0377744 -0.165218 1.69009e-17)
(0.0190555 0.0904093 -7.08436e-19)
(0.00035941 3.09444e-05 -5.00346e-21)
(-0.0127591 0.00307804 2.32836e-19)
(-0.0370747 0.152192 -5.38346e-19)
(-0.0107295 -0.0121255 1.56562e-19)
(-0.0240834 -0.0841263 3.25725e-19)
(-0.000291464 -1.50125e-05 -1.18089e-19)
(0.0191001 -0.201401 3.97804e-18)
(-0.000142521 -9.07706e-07 -2.37591e-19)
(-0.000427727 -3.45039e-05 9.06578e-20)
(-0.000366309 -0.000170276 2.13556e-20)
(1.68681e-05 -1.31342e-05 2.18736e-18)
(0.0360779 0.000959466 -1.51469e-17)
(0.00818643 0.00436051 2.29728e-18)
(0.00218747 0.0229064 1.36274e-17)
(0.0423597 0.0531111 2.13043e-18)
(-0.0296755 -0.0428691 -3.02802e-18)
(0.000261452 -0.000198597 4.46987e-22)
(0.0338155 0.077122 -1.38421e-17)
(0.0120177 -0.0139631 -4.87608e-19)
(-0.00157834 -0.000293912 2.6688e-18)
(0.000468981 -0.00102548 -5.61625e-18)
(-0.0144261 -0.0310345 -2.87392e-18)
(0.000614033 -0.093642 7.42064e-19)
(-0.00413199 0.0258693 -3.01583e-18)
(-1.31632e-05 1.99457e-07 -5.42051e-19)
(0.019346 0.104617 -1.89082e-17)
(-0.105192 0.318074 1.49616e-17)
(0.0167553 0.404572 -1.47683e-17)
(0.00472132 0.00277743 -7.54288e-20)
(-0.0149936 0.00479312 1.98247e-19)
(-0.0502346 0.0526111 3.60727e-18)
(0.00217064 0.000598076 8.75144e-21)
(-0.111381 0.233494 -2.24117e-18)
(0.022476 0.0279748 -1.69147e-18)
(0.171999 -0.150761 4.38121e-18)
(0.000874521 -0.000235876 1.74284e-19)
(0.189807 -0.151605 -2.87793e-18)
(-0.00556144 0.0323634 1.12579e-17)
(0.000517219 -0.000367287 2.816e-20)
(0.00156137 0.000971273 4.03418e-21)
(0.00760487 0.00531433 3.43614e-18)
(0.0112384 0.00716201 2.33735e-17)
(0.000159731 0.000227262 -3.51875e-20)
(-7.27539e-05 2.66737e-05 4.12576e-19)
(-7.15635e-05 -0.000276024 -3.64993e-21)
(-0.000103721 -0.000259819 1.5302e-19)
(0.0261735 -0.00764398 -5.4763e-18)
(0.021052 -0.00806259 -2.78765e-19)
(-0.0845265 0.388529 1.48869e-17)
(0.166336 0.0878764 -1.76905e-18)
(-0.000362623 0.000172186 -9.64967e-20)
(-0.0306998 -0.0433383 -4.53881e-18)
(-0.0118068 0.0188454 -9.70791e-18)
(-0.066365 -0.0588488 2.09636e-18)
(0.00858328 -0.00447844 2.43578e-18)
(0.00223555 -0.00107484 1.00945e-18)
(0.000342605 -0.000124899 2.29259e-21)
(-0.000829674 -0.000333982 -2.33941e-20)
(-1.37744e-05 -0.000525239 3.91701e-21)
(0.0244583 0.0887101 9.77757e-18)
(-0.000225604 -9.99168e-06 1.33726e-18)
(-0.00459369 0.00734191 -2.63191e-18)
(-0.0141999 0.0174091 -7.98282e-18)
(0.000324885 -0.000136417 -5.93176e-21)
(0.0242374 -0.0104132 -1.66236e-18)
(0.0401557 -0.0851924 2.18648e-18)
(0.0199745 -0.130633 1.06372e-17)
(0.0193925 0.0177273 -1.10579e-17)
(0.0353752 0.00131584 5.28908e-18)
(-0.00213213 0.0283884 9.6431e-18)
(-0.00012529 9.95389e-05 -1.12323e-19)
(1.84519e-05 3.37725e-05 -8.95524e-19)
(-0.206363 0.579956 3.0166e-19)
(-0.0133887 0.0342787 -8.88685e-18)
(-0.00760337 0.0150308 -2.07879e-17)
(0.00168418 -0.00064265 5.326e-18)
(-0.0645906 -0.0380624 -1.17788e-18)
(0.000440093 -0.000263312 -4.89881e-21)
(-0.000129384 -8.80938e-05 -6.7534e-19)
(0.104027 -0.151597 3.06038e-18)
(0.000366061 -0.000174897 3.07344e-20)
(0.000253179 0.000181225 1.69698e-18)
(0.000411102 -0.000216734 9.30145e-22)
(-0.000259214 -8.7477e-05 -2.73441e-20)
(-0.00661668 0.0326713 -2.26726e-17)
(0.025266 -0.00257236 -2.22397e-18)
(0.0116651 -0.00153761 1.29019e-18)
(0.00038496 -0.000233119 -1.82386e-20)
(0.203413 0.00666078 -1.24407e-18)
(0.00960149 0.0122858 1.12489e-18)
(-0.000296749 -0.000109605 -2.57678e-20)
(0.000287595 -7.98007e-05 6.45381e-20)
(0.000601113 -0.000580926 -7.66167e-21)
(-4.15088e-06 1.6289e-06 -2.24087e-18)
(0.00350785 0.380549 -3.7399e-18)
(0.0292228 0.0419424 1.04e-18)
(0.0303363 0.0326184 -5.28437e-19)
(0.0471195 0.384271 -2.60271e-18)
(-0.00824018 -0.256306 4.54125e-18)
(0.00138112 -0.000678892 -2.23941e-18)
(0.00988191 0.00500664 -6.15813e-18)
(0.0196288 0.00893106 1.76702e-18)
(0.00744737 0.00111455 -2.20366e-19)
(0.00191545 -0.00160166 -2.58611e-18)
(0.00033624 -0.000130115 -1.35889e-21)
(-0.000101217 -0.000468506 -4.28045e-21)
(-0.00881937 0.00238393 -4.54391e-20)
(-0.0276358 0.0926985 2.24957e-17)
(-0.00943162 -0.393313 -2.60503e-19)
(-0.00372187 0.00762149 -1.27065e-18)
(-0.00229993 -0.00152598 -8.25891e-20)
(-0.000763114 -0.000338038 -2.10616e-19)
(-0.00301977 0.00832115 1.34782e-19)
(-0.00356972 -0.000700025 -4.59878e-20)
(-0.0129465 -0.0832792 -3.11751e-19)
(0.0118176 0.00521834 2.662e-18)
(-6.0959e-06 -0.000123923 1.92592e-18)
(-0.0114785 -0.010887 1.89099e-18)
(-0.000553448 1.99076e-05 1.06432e-19)
(-0.000112664 -0.00106836 -6.43007e-18)
(0.0414949 0.00608034 1.55238e-17)
(1.63773e-05 5.23078e-05 5.49646e-18)
(-9.75524e-05 3.49775e-05 2.56242e-19)
(-0.00709035 0.0156117 -6.30559e-19)
(2.8121e-05 -8.60618e-05 -4.89712e-19)
(0.0227056 -0.00791801 5.63965e-18)
(0.0695778 -0.0802228 -9.86714e-19)
(0.0310782 0.0127005 -8.34339e-19)
(-0.000628022 0.00998414 3.78722e-20)
(-0.00911931 0.0145915 6.50338e-18)
(-0.000744637 -0.00032571 1.83084e-19)
(0.0500916 -0.085671 -2.84792e-18)
(0.00497923 -0.0101757 -3.0778e-19)
(0.0320065 0.435446 8.67736e-18)
(-0.000383648 -0.000493041 7.03196e-20)
(-0.0002807 0.000102488 -1.20283e-19)
(0.0169458 0.00758329 -3.69104e-20)
(-0.00023379 -0.00146764 8.37552e-19)
(-0.173829 0.267178 7.27547e-17)
(0.00392191 0.0209777 2.81022e-17)
(-0.118675 0.403628 7.35033e-18)
(-0.180967 0.492486 1.19466e-17)
(-0.000585358 4.17357e-06 1.57964e-19)
(0.0118318 0.00956963 7.20636e-19)
(0.000220028 -0.000495919 4.44318e-21)
(-0.000269196 -9.84054e-05 -1.05861e-19)
(0.000453379 -0.000329376 8.30035e-21)
(-0.000251594 -9.89973e-05 -2.06776e-19)
(0.000113073 -0.00045981 1.57171e-22)
(-0.00732791 -0.00833135 4.71408e-19)
(0.0186567 0.00710357 6.35763e-20)
(0.000437845 -0.000270624 -3.57895e-21)
(0.149715 -0.1576 -7.88901e-19)
(0.00801784 0.103064 6.86183e-19)
(0.163974 -0.139795 2.57067e-18)
(-0.000157157 -0.000264314 -6.2477e-21)
(0.000346136 -4.63999e-05 -8.24321e-21)
(0.000435857 -2.24346e-05 -2.55774e-20)
(0.057592 -0.0238694 -3.25974e-18)
(0.138852 0.0182113 -3.36544e-18)
(0.00125897 0.00269526 7.16292e-18)
(-0.000154354 -0.00118285 1.44652e-18)
(0.00021354 -0.000500245 -4.52392e-21)
(0.000360771 1.82037e-05 -2.11904e-19)
(-0.000346616 0.000100564 3.60183e-20)
(1.63289e-05 -0.000323925 -9.78364e-20)
(-0.00690347 0.041402 1.5599e-17)
(-0.107096 -0.32715 4.88683e-18)
(2.62e-05 -9.23764e-05 2.10774e-18)
(0.00045172 -0.000288899 3.56347e-21)
(2.08275e-05 -3.42343e-05 -1.61791e-18)
(-2.92972e-06 -0.000298086 -1.07893e-20)
(-0.00369653 -0.155675 -8.93077e-19)
(-0.118209 -0.136649 2.03114e-17)
(-0.00443183 0.00822853 -3.23935e-19)
(-0.00572765 0.148123 3.13256e-17)
(0.0299286 -0.154204 -4.45042e-18)
(-9.78441e-05 1.96062e-05 1.06135e-19)
(0.00427237 0.022212 -3.07625e-17)
(0.0191787 0.356639 5.165e-18)
(0.00227778 -0.00159433 2.47406e-18)
(-0.0360796 -0.333572 5.58385e-19)
(2.4994e-06 5.63637e-05 -7.72731e-19)
(-0.00226556 -0.00637944 -3.23174e-19)
(0.00174342 0.00249624 -1.53701e-17)
(-0.00458057 -0.00622516 5.71576e-19)
(0.0261814 0.0154424 6.20915e-19)
(5.81519e-06 -0.000124276 -2.07683e-18)
(-0.0309015 0.00524468 6.26678e-18)
(8.18614e-05 -0.000123895 -5.9727e-21)
(0.000771826 -0.000381787 1.30718e-18)
(0.0108859 0.0136786 -1.02224e-17)
(-0.00119816 -0.000118244 3.24647e-19)
(-0.000678195 -0.00100141 -6.88073e-20)
(-0.0701687 -0.0211265 3.88343e-19)
(-0.00043885 -5.39407e-05 -1.62719e-20)
(-0.00137062 1.33811e-05 -1.6274e-18)
(0.023405 -0.203597 6.58583e-19)
(-0.040303 -0.0686755 -3.50994e-19)
(0.0122569 0.00383104 -1.05318e-17)
(0.101892 0.017973 -5.97446e-18)
(-0.0136829 -0.000733408 -5.1816e-20)
(0.000436149 -0.000188298 1.51195e-20)
(-0.000181329 -0.000240769 -5.71412e-21)
(-0.0803213 0.31875 -1.44551e-17)
(-0.0138279 0.0161005 5.55105e-18)
(0.025437 -0.0210145 4.01358e-18)
(0.000894032 0.023223 -2.1479e-17)
(-0.000351565 0.000941954 1.60387e-19)
(-7.80582e-06 -2.95995e-06 -1.36348e-18)
(0.000514456 -0.000359484 -6.95904e-21)
(-0.0230259 -0.276705 -2.18903e-17)
(-0.014932 0.0287489 -7.84554e-18)
(0.00235257 0.00120986 2.45965e-19)
(-0.000116071 0.000364331 -3.33352e-19)
(0.00323666 0.00479455 7.17496e-20)
(-0.000209336 -0.000386646 -9.42069e-19)
(0.000446323 -2.72758e-05 6.56182e-20)
(-0.0593376 -0.00467927 -2.55758e-17)
(-0.133589 0.165071 -7.8886e-19)
(-0.0312011 0.0403748 1.18913e-17)
(0.000390216 -1.38649e-05 -1.74601e-20)
(2.53395e-05 -6.07831e-05 -1.90929e-18)
(0.000627524 0.00661824 1.47306e-17)
(-0.0133436 -0.353614 -3.5199e-17)
(-0.0143022 0.0116083 4.95873e-18)
(-0.00327328 -0.000438796 9.85933e-20)
(0.00283302 0.020769 2.07531e-19)
(-6.43427e-06 -0.000169151 -1.99344e-18)
(0.00243544 0.00869132 -3.86208e-20)
(0.014598 -0.0813254 5.3868e-19)
(-0.0168195 -0.0387638 1.90927e-18)
(-0.000746681 0.000861574 -4.17659e-20)
(-0.130563 0.422143 -2.68114e-17)
(-0.00138506 -0.00748493 -2.9397e-19)
(-0.00518167 0.000479999 5.2277e-19)
(-0.0345111 0.0172132 1.05458e-17)
(-0.000336305 0.000123204 -3.24192e-20)
(-0.000115754 -2.47046e-06 3.61888e-19)
(0.000579176 -0.000236027 9.38133e-20)
(-0.000763537 -0.000408223 6.01683e-20)
(-0.0718774 0.00313659 3.05136e-17)
(-0.00611611 -1.67764e-05 -1.00662e-19)
(0.0170479 0.0200712 4.12425e-18)
(0.0107236 0.000901332 -1.4693e-18)
(0.00166105 0.00239924 3.65018e-20)
(-0.000737583 -0.000229843 4.73478e-20)
(0.0475384 -0.208207 -8.89732e-19)
(-0.000370225 -1.1301e-05 3.33691e-19)
(-0.00216931 -0.00708449 -8.92421e-19)
(0.000379103 -0.000312967 -2.03763e-20)
(-9.46131e-05 -4.80065e-05 3.86128e-19)
(-0.000209829 -2.1358e-05 -9.40467e-21)
(-0.0177993 0.0379161 5.94189e-18)
(-8.00359e-05 -0.000240077 -3.42074e-20)
(0.000283949 6.75198e-05 9.59979e-21)
(0.100747 0.0365879 -1.62932e-18)
(1.59718e-05 3.0038e-05 2.24431e-18)
(0.00201656 0.00943372 5.53315e-19)
(0.000429503 -3.19195e-05 9.67026e-21)
(-0.00285854 -0.00133587 -4.35947e-21)
(0.00210994 0.00680305 8.17254e-18)
(0.0199909 -0.163436 2.494e-18)
(-0.0492904 -0.0500664 -1.98444e-20)
(-0.000213897 0.000244392 5.30846e-20)
(0.0649715 -0.0766773 2.07659e-18)
(0.00484453 0.142723 -1.99362e-17)
(3.0833e-05 -0.000217315 1.22586e-18)
(-0.0197155 0.0414639 8.37684e-18)
(0.000811243 -0.000397884 -3.15395e-18)
(-0.000736912 -0.000445618 2.57632e-19)
(-0.0178641 0.0123559 8.81208e-19)
(-0.0332972 -0.048167 -2.04957e-18)
(0.0493526 -0.0706903 -1.26917e-18)
(-0.000329306 0.00186174 1.98062e-18)
(-0.00036131 0.000112682 1.96751e-19)
(0.000496386 -0.000295378 -7.15804e-21)
(0.00629219 0.0019303 -2.74883e-18)
(-0.0235425 -0.0484578 -1.09672e-18)
(0.0355898 0.0333886 6.3283e-19)
(0.00328323 0.00187033 7.87692e-20)
(-0.0143103 0.0180051 1.99701e-20)
(-9.1154e-06 -2.14337e-06 8.3858e-19)
(-0.0030098 -0.00103228 -4.85819e-21)
(-0.00570782 0.00418856 2.35836e-18)
(0.0156192 -0.0196064 -8.56335e-20)