/*--------------------------------*- C++ -*----------------------------------*\
| =========                 |                                                 |
| \\      /  F ield         | OpenFOAM: The Open Source CFD Toolbox           |
|  \\    /   O peration     | Version:  v2012                                 |
|   \\  /    A nd           | Website:  www.openfoam.com                      |
|    \\/     M anipulation  |                                                 |
\*---------------------------------------------------------------------------*/
FoamFile
{
    version     2.0;
    format      ascii;
    class       volVectorField;
    location    "750";
    object      ddtCorrDdt0(U);
}
// * * * * * * * * * * * * * * * * * * * * * * * * * * * * * * * * * * * * * //

dimensions      [0 1 -2 0 0 0 0];


internalField   nonuniform List<vector> 
13917
(
(0.0012151 0.00337963 -1.51795e-17)
(0.00949716 0.0050346 1.16599e-18)
(-0.00313334 -0.000470603 1.00611e-18)
(9.2026e-05 -4.74204e-06 3.67347e-18)
(0.00531318 -0.00325844 3.33673e-20)
(0.00830497 0.00598277 -6.48322e-19)
(0.000430518 -2.76524e-06 -2.57723e-18)
(0.0308471 -0.0127172 4.04171e-21)
(0.000207629 -0.000310231 2.52367e-18)
(-0.0086678 0.00714815 3.9549e-18)
(0.0274095 -0.0111811 -2.57097e-19)
(7.1254e-05 9.95331e-06 -1.17913e-18)
(2.59809e-05 -8.59022e-07 2.40148e-18)
(-0.123854 -0.139804 -1.1891e-17)
(-0.000362569 0.00366772 -3.47022e-19)
(0.00143468 0.00223787 1.75944e-17)
(-1.48476e-06 5.50514e-07 -2.59588e-19)
(0.0195478 -0.0131382 -1.27047e-19)
(-0.00208112 -0.00289696 1.54818e-18)
(0.0142515 0.0188285 4.37917e-18)
(-0.00197446 -0.0032316 -3.94521e-19)
(3.98893e-05 -7.68438e-05 1.18604e-19)
(0.00115568 -0.000920727 -1.40504e-18)
(5.92169e-05 -7.5146e-05 -3.75269e-20)
(5.53182e-06 6.62338e-05 2.24444e-18)
(-0.00123662 -0.00507448 -2.59145e-19)
(0.0682545 0.0724215 7.71835e-18)
(-0.00633344 0.00293022 -4.25061e-18)
(0.00502615 -0.011134 5.60143e-20)
(7.32088e-06 -0.000143006 7.49281e-22)
(0.000640354 0.000114911 -9.10531e-18)
(-1.53382e-05 -0.000936799 3.54028e-18)
(6.74489e-05 2.47587e-05 5.26756e-19)
(-0.00498604 0.00377928 -1.24398e-18)
(8.98462e-05 0.000234785 5.75206e-20)
(0.0353289 -0.0102923 8.41168e-20)
(0.00043788 -0.000386592 1.05152e-19)
(2.33309e-05 3.54409e-07 -2.31774e-20)
(0.000439849 -3.52786e-05 -2.03184e-18)
(-0.0032903 0.00218507 -3.06911e-20)
(1.19398e-05 -6.13281e-07 -3.1153e-20)
(-0.000529007 0.000768603 -2.38289e-19)
(0.000155419 -0.000240583 1.56303e-17)
(-0.00163224 -0.00128145 -4.61909e-18)
(-0.00158342 -0.0014831 4.11636e-18)
(0.0262995 -0.0133646 3.19699e-18)
(-0.00162423 -0.00269439 -4.86445e-19)
(-0.0588678 0.0482388 1.16729e-17)
(0.0611015 0.0734459 2.96806e-18)
(0.000138006 0.000193295 -6.78435e-20)
(7.03051e-05 9.15742e-06 9.90923e-19)
(0.00983754 -0.0077751 2.57028e-18)
(-0.00723599 0.000335669 3.07369e-18)
(8.23097e-05 2.14529e-05 5.21661e-20)
(9.82474e-05 3.34041e-06 -8.90834e-19)
(0.00858568 -0.00816679 -5.01502e-18)
(-0.000717783 -0.000357207 7.51002e-18)
(0.00124253 -0.000853536 3.9104e-19)
(-0.000584105 0.000544856 2.96637e-19)
(0.028697 -0.0112017 2.2996e-18)
(-0.00919134 -0.111131 -4.37487e-19)
(0.00141564 0.00854693 4.15131e-21)
(4.8022e-05 -1.69565e-06 5.3635e-20)
(1.87074e-05 5.75855e-05 3.0426e-18)
(-0.00693653 0.00725315 -5.73409e-18)
(-0.0115591 -0.00836259 3.52076e-19)
(0.00877 -0.0124895 -2.74348e-20)
(0.0358733 -0.00536163 -3.90416e-19)
(0.0230884 -0.0153462 8.197e-20)
(-0.0054569 0.000985992 4.85091e-18)
(-0.00387733 0.00460561 -4.98028e-18)
(-0.00454304 0.00342733 3.84256e-18)
(5.97698e-05 -6.86856e-05 -6.65853e-19)
(-0.000427374 0.000409955 -2.77407e-19)
(-0.00262072 -0.00316389 4.99123e-19)
(-8.61966e-05 -7.4617e-05 4.81829e-18)
(0.00108474 -0.00175852 -3.4634e-19)
(-0.000437493 0.000275897 1.01253e-19)
(-5.55854e-05 -6.81552e-05 5.6156e-19)
(6.45417e-05 2.68013e-05 -4.19698e-19)
(-2.97759e-05 0.000251605 -4.0524e-19)
(-1.52554e-07 -5.15034e-07 1.78147e-20)
(5.72227e-05 -6.95211e-05 -4.84304e-19)
(-0.000994574 -0.00056119 -2.88471e-20)
(3.42459e-05 -1.68883e-07 -1.0411e-18)
(0.0114454 -0.0557546 2.02693e-18)
(5.64465e-05 -0.0009525 6.04207e-18)
(3.14906e-05 -1.23298e-07 8.72107e-19)
(-0.0033828 0.00166353 -8.8329e-19)
(-3.01017e-06 6.38573e-07 3.8108e-20)
(-3.89837e-06 -1.70058e-06 -1.60081e-19)
(0.000156501 -0.00025082 -7.60355e-18)
(0.0759575 0.0654045 -8.3005e-18)
(-0.000125768 8.01302e-05 1.05512e-19)
(0.000186602 6.29492e-05 1.23975e-18)
(0.00603744 -0.0131384 -4.09074e-20)
(-0.0122687 0.0474727 5.03065e-19)
(-1.18732e-06 1.14567e-06 -6.68788e-21)
(3.15593e-05 -5.2136e-07 -4.79759e-19)
(-0.0304343 0.0255992 -1.33908e-18)
(2.76676e-05 -9.41263e-07 4.92238e-20)
(2.96618e-05 -8.78143e-07 1.11479e-19)
(-1.82573e-06 0.000275679 2.68787e-19)
(-1.89332e-06 4.8313e-07 -1.53765e-21)
(0.00130127 -0.00143991 1.42987e-19)
(-0.0019485 0.0108739 -1.52794e-19)
(-0.0159624 0.0251054 -1.15909e-18)
(-0.000614025 0.00961522 1.12736e-18)
(-0.00074691 0.00102248 -3.33113e-20)
(0.0712174 0.0803746 2.07531e-18)
(1.81472e-05 -9.64707e-06 2.75957e-18)
(-0.00483737 0.0044618 -2.98624e-19)
(0.00269195 -0.0113468 -2.52049e-19)
(-0.0765691 0.054756 -6.6524e-19)
(-0.00596634 0.00660903 5.22734e-18)
(-0.000137055 -0.000186174 3.15477e-18)
(-0.00172437 -0.00280483 -5.24889e-18)
(1.05757e-05 -8.31051e-07 6.9607e-20)
(-0.00330502 -0.000762428 2.18117e-19)
(3.76923e-05 -8.03183e-05 2.31477e-18)
(-1.57071e-06 -8.57663e-07 -1.18773e-19)
(-0.000159091 0.000190496 2.42526e-20)
(0.0103289 -0.014674 1.77154e-19)
(0.00132639 -0.00514379 -1.26269e-18)
(-0.00841591 0.000663086 1.48068e-18)
(-0.000377313 -0.000264109 -3.45109e-18)
(4.06356e-05 5.66363e-05 -8.25772e-18)
(-0.00314746 -0.00369102 -3.92519e-19)
(-4.17274e-05 6.67475e-06 -1.20092e-19)
(0.00082611 -0.00524224 2.26338e-18)
(0.000443367 -0.000502729 1.96782e-18)
(0.0271521 0.018922 -6.35586e-21)
(-0.00273386 0.00354682 2.00498e-18)
(-0.000110412 -0.000229424 1.65331e-18)
(-0.000407837 -0.000953045 -4.87181e-18)
(0.0587663 0.0909208 3.41671e-18)
(0.028422 -0.0667431 -1.11758e-17)
(-0.0111133 0.000770701 -5.01595e-18)
(-0.00064663 -0.00654239 7.91728e-21)
(1.77806e-05 3.52174e-08 -3.84922e-19)
(-0.0944975 -0.16681 -1.25395e-18)
(-0.000317934 0.000215228 2.45988e-19)
(-0.00245647 0.0117711 1.1362e-18)
(1.69181e-05 2.39197e-05 3.92668e-19)
(5.72355e-05 -5.04227e-05 -2.9115e-18)
(-0.00412916 0.00206347 2.09961e-19)
(-0.00362335 0.0040324 5.25091e-18)
(0.00882593 -0.0179878 9.7328e-19)
(-0.0337677 0.0528393 -9.38835e-18)
(9.06079e-05 1.80074e-05 2.90676e-19)
(-0.00285019 0.000883963 4.67904e-19)
(3.3136e-05 -1.11026e-06 1.65864e-20)
(5.46301e-05 -5.21707e-05 9.93165e-20)
(3.48925e-05 -8.25956e-05 3.61109e-18)
(0.00084902 0.0570497 -8.27128e-18)
(0.00052835 0.000197762 -1.55905e-19)
(-2.58466e-06 1.79307e-06 9.51609e-21)
(-0.00478788 0.00416642 4.75381e-18)
(1.03265e-05 -3.67623e-07 1.81878e-20)
(1.04094e-05 -7.75122e-07 -6.24715e-20)
(3.06512e-05 2.59495e-05 -1.17339e-19)
(-0.0227424 -0.00754365 8.06121e-18)
(0.00152113 -0.000306396 -2.09442e-19)
(-0.0791059 -0.182384 3.48687e-18)
(-0.0535266 -0.0469528 -1.86781e-17)
(-0.0405095 0.0371742 -5.91956e-19)
(-0.00467889 0.000253 -1.21086e-18)
(-0.101841 -0.0456644 -4.6203e-18)
(5.8836e-05 1.15233e-06 9.9715e-21)
(-0.000776216 -0.00773123 2.98549e-20)
(0.000106527 -0.000117229 3.56829e-21)
(-0.000732203 0.000639015 5.22178e-18)
(0.000193121 -0.000311129 -5.63798e-18)
(0.0327784 -0.0728147 5.46666e-18)
(0.00723376 0.00160932 -3.04817e-18)
(2.29756e-05 -2.85765e-06 2.00392e-19)
(9.57477e-05 -1.25429e-05 -4.76265e-18)
(0.0124528 -0.00895162 -1.03142e-17)
(0.000428745 -0.000484206 3.69181e-18)
(0.00178169 -0.000404016 8.15845e-20)
(0.000168059 -0.000218003 -9.23238e-18)
(9.75592e-05 -9.66811e-05 1.13936e-20)
(7.12467e-05 5.4186e-06 -9.37389e-19)
(0.00243084 -0.0181309 8.42724e-18)
(-0.00346591 -0.000723276 -9.61205e-19)
(0.0276445 0.0229884 2.30231e-19)
(7.01661e-05 4.43598e-06 -6.15349e-19)
(0.00437523 -0.018943 1.06851e-17)
(-2.52756e-05 -0.00012824 2.36878e-20)
(0.00783324 -0.0469303 7.62014e-20)
(0.00746379 0.00233857 -3.16899e-18)
(-0.00130996 -0.00152356 5.82574e-18)
(0.00159226 -0.0118983 4.44205e-18)
(0.0034338 0.00517867 -7.22556e-18)
(-0.000104441 9.61434e-05 6.13857e-22)
(-0.00807095 0.000660158 -5.52955e-18)
(-7.22815e-05 0.000392617 -2.89989e-18)
(-0.00257778 0.00430937 -5.29141e-18)
(3.87205e-05 0.000205948 2.4379e-20)
(0.000412311 0.000133963 1.9823e-19)
(-0.00111401 -0.00183547 -1.79146e-19)
(-0.00465197 0.00114957 5.89099e-19)
(-0.0110197 0.000623534 -2.06786e-18)
(0.000573227 -5.56808e-05 6.47605e-19)
(0.0627832 0.0694427 8.75656e-18)
(0.00520743 -0.0037811 -2.20954e-20)
(-0.00282849 0.00134849 -1.1954e-19)
(-0.000221133 0.000267062 3.8216e-21)
(0.0107347 -0.00921478 1.16059e-17)
(-7.69487e-05 0.000256323 9.10302e-21)
(-9.46561e-06 1.62117e-05 -1.543e-20)
(0.0115189 -0.00384231 -1.10123e-19)
(0.0139975 -0.0048488 1.04636e-19)
(-0.0421112 0.0431172 3.74517e-18)
(-0.000293118 -0.000950156 8.03644e-18)
(-0.00158419 -0.00587488 9.61217e-20)
(-0.0135132 0.00974983 -1.38559e-17)
(1.46912e-05 1.33105e-06 1.15912e-19)
(-2.01889e-06 -1.4164e-05 1.38327e-20)
(-1.77391e-06 -1.59368e-05 2.01626e-20)
(-0.0984032 -0.0237887 -2.25243e-17)
(0.00226209 -0.0148636 -8.99177e-18)
(0.00626382 -0.0230703 4.93818e-19)
(3.29874e-05 -3.30286e-06 9.5123e-19)
(4.43496e-05 -1.40057e-06 -3.86143e-20)
(0.0541881 0.103714 -5.88959e-18)
(-0.00774118 0.000531366 5.4538e-18)
(-7.41978e-06 -1.0259e-05 -1.65596e-19)
(-7.77437e-06 -1.03859e-05 2.50774e-19)
(1.02434e-05 -4.68931e-07 9.94349e-20)
(2.47117e-06 -1.66142e-05 -1.98403e-21)
(1.58397e-06 -1.71835e-05 3.62674e-20)
(-0.00389097 0.00326385 2.01381e-18)
(-0.0405779 0.0207786 -3.91192e-18)
(-0.00010968 5.27359e-05 -1.57856e-19)
(6.25424e-05 -3.25246e-06 7.91493e-21)
(0.00517428 -0.00269172 -2.3014e-18)
(-0.00596107 0.00187039 -4.86255e-18)
(8.14148e-06 -1.15868e-06 -1.87932e-19)
(3.27719e-05 -2.53361e-06 1.7236e-18)
(0.0758007 0.0693699 -2.10825e-18)
(-0.00373989 0.012725 -3.41677e-18)
(0.00129325 -0.0161321 3.4331e-19)
(-0.0123223 0.0110925 9.70346e-18)
(0.0127123 0.000998675 -4.93338e-18)
(1.65599e-05 2.82872e-05 6.10306e-19)
(-0.0976529 -0.0479036 -8.11192e-18)
(0.00498343 -0.00332484 2.82887e-18)
(0.00221189 -0.009668 2.3397e-19)
(3.86748e-05 -0.00231632 8.0209e-18)
(0.000492599 -4.96731e-05 -3.68166e-19)
(-0.0311267 0.029864 -7.27534e-19)
(4.34307e-05 -7.95012e-05 3.67375e-18)
(0.000836647 0.00317957 4.83788e-19)
(0.00583784 0.00165058 -1.07265e-18)
(-0.000143312 6.95633e-06 4.78743e-20)
(7.6634e-06 -5.32942e-07 1.04812e-19)
(3.12087e-05 6.54505e-05 3.6904e-18)
(0.00421483 0.00207913 3.83291e-19)
(-0.000433689 5.17764e-05 3.24888e-19)
(-0.00818901 0.000880182 1.47467e-18)
(0.00713631 -0.0349762 -5.75931e-19)
(0.000112611 0.00013233 -7.46362e-20)
(-8.0825e-06 -6.73321e-06 -6.24892e-20)
(0.000641367 0.000134661 1.42047e-19)
(-8.57507e-06 -3.6255e-06 -2.41079e-20)
(4.10502e-05 -8.23099e-05 -5.08452e-19)
(3.74113e-05 -9.98225e-07 6.30883e-19)
(0.00144678 0.000431569 -6.75346e-19)
(0.000160999 0.000191362 2.34298e-19)
(-0.0119007 0.00104476 -1.47717e-18)
(-0.0189865 0.0220813 -1.01632e-18)
(6.01604e-05 -5.07938e-06 8.2808e-19)
(0.00272528 0.000353868 8.04314e-20)
(0.0313815 -0.0112218 5.93801e-18)
(-1.99976e-05 -1.52768e-05 4.15885e-19)
(-0.0250658 0.0173437 5.75983e-19)
(-0.00796706 0.000986273 3.68104e-18)
(-2.20022e-05 -1.47549e-05 -2.58929e-19)
(-0.00580382 0.00128797 4.69613e-18)
(-0.000358623 -7.14788e-06 -3.37954e-19)
(-0.0229511 -0.0114258 1.67867e-17)
(2.25472e-05 -2.16683e-06 -3.6999e-20)
(-0.000841202 0.00233047 1.04662e-19)
(-0.000177425 1.46172e-07 -9.77723e-20)
(1.83921e-05 8.44583e-06 3.88134e-19)
(-0.00425304 -0.00592577 9.21466e-18)
(6.1453e-06 2.52385e-06 1.69547e-19)
(-0.0475674 0.0463295 -3.89652e-18)
(-0.000479429 0.00072237 -3.59584e-18)
(0.0083459 -0.0497204 -1.17134e-18)
(-0.00439122 0.00331253 -4.92316e-19)
(0.0164389 0.0625468 -2.56768e-20)
(-0.0121623 0.000759079 -4.89459e-18)
(9.02263e-06 -1.91669e-06 5.1322e-20)
(0.00217785 -0.0011023 -1.87443e-18)
(0.00505948 0.000230948 -6.98395e-19)
(-0.000127845 -0.000343714 1.76147e-18)
(0.00522331 -0.00211339 -1.14037e-19)
(-5.40673e-05 -2.52578e-05 4.43825e-18)
(-0.000191503 6.49766e-05 3.57001e-20)
(1.32846e-06 3.41232e-06 -2.00625e-19)
(0.014804 -0.00675282 -8.85255e-18)
(-0.0178046 -0.0170367 2.11178e-19)
(0.000657597 0.00298112 1.76593e-18)
(-3.02678e-05 -2.29137e-05 -1.94615e-18)
(3.19335e-05 2.14516e-07 -8.55044e-20)
(-0.00403154 0.00432219 -5.75531e-18)
(-0.00395095 0.000963365 1.50075e-18)
(-5.18457e-06 -9.8882e-06 -2.85087e-20)
(-0.00485487 6.89749e-06 1.87316e-19)
(-0.000158695 -0.000288887 -2.7979e-18)
(0.0553962 0.0169043 7.12798e-20)
(-0.0010866 0.000710708 -6.48589e-18)
(-0.0107298 0.0198276 -5.08198e-18)
(0.0326407 -0.0665941 3.07668e-17)
(-0.00631997 -0.0130308 4.79285e-20)
(0.0232952 0.0171604 7.22884e-20)
(0.00229152 0.000721103 8.63131e-20)
(-0.00178639 -0.000288313 1.04318e-17)
(0.0719681 0.019104 1.00955e-19)
(-0.00313139 -0.000517951 2.0561e-19)
(3.44393e-05 -6.62316e-07 -3.99182e-18)
(-0.000787222 0.00329583 4.96281e-19)
(0.0610024 0.0691532 -1.08918e-17)
(0.00027791 -0.000155459 3.63943e-20)
(0.0112103 0.00523792 -4.48513e-19)
(-0.00123322 -0.00169945 1.08071e-18)
(-9.99405e-07 -4.40179e-07 8.67911e-20)
(-0.00051423 0.00054242 4.14301e-18)
(3.41656e-05 6.56285e-07 6.64828e-19)
(0.000318926 -0.000683124 3.08842e-18)
(0.000156418 -4.20531e-05 -8.71351e-20)
(0.0302941 0.0174639 -8.91457e-18)
(9.97276e-07 1.91464e-05 5.16737e-19)
(0.000636397 0.00248631 3.41085e-19)
(0.00487742 -0.00470964 4.99337e-21)
(-0.00261667 -0.0116301 -6.83415e-20)
(-2.69239e-06 -7.03906e-07 -8.37053e-20)
(-0.000145491 -0.00197913 -4.53086e-20)
(-0.000249314 0.00715896 8.03879e-18)
(0.000165105 2.66571e-05 -2.16666e-20)
(0.000324423 -0.000103073 -6.62366e-20)
(-0.00543033 0.00484068 3.43819e-18)
(-0.000888724 0.00954602 -1.88601e-18)
(-0.00832728 -0.0457579 -2.47164e-18)
(-0.105489 -0.129135 1.17902e-17)
(-1.61846e-05 -1.36424e-05 1.56115e-19)
(-6.9844e-05 0.000114476 -2.30064e-19)
(-0.00504753 0.0127727 -1.85994e-18)
(0.0232316 0.0140722 1.84844e-19)
(-1.70894e-05 -1.45689e-05 5.84711e-20)
(0.00587496 -0.000703021 3.74898e-19)
(8.16179e-05 -1.30883e-05 2.42855e-18)
(-0.0111449 -0.00662929 -1.99579e-19)
(0.000832773 0.00265452 3.311e-18)
(0.00245912 -0.00837087 5.53326e-18)
(0.0118699 0.00971042 -4.42178e-19)
(-0.0269415 0.0139948 7.70896e-19)
(0.00036447 -0.000679351 4.44071e-18)
(-0.00107476 0.00631083 -2.37585e-18)
(-5.38043e-05 7.68871e-06 1.53592e-19)
(0.000164477 8.33778e-06 6.55093e-19)
(0.00641428 -0.00395048 5.05226e-19)
(-0.00562714 -0.00297594 -1.64778e-18)
(5.74137e-06 -1.18784e-06 1.44854e-19)
(0.00357224 0.00356207 1.12204e-17)
(0.000356506 -0.000672675 -4.63685e-18)
(0.0117543 0.0280224 5.72276e-19)
(0.000106397 6.07526e-06 4.95299e-19)
(0.0186858 0.0118593 -1.19822e-18)
(-0.00427285 0.00145257 5.05921e-20)
(0.0861767 0.0549981 -1.962e-19)
(-0.00104498 5.33433e-06 1.00914e-19)
(0.00364779 -0.0220575 -3.52861e-18)
(0.029726 -0.013292 -1.71902e-17)
(0.00571487 -0.00583552 -9.37997e-20)
(6.29896e-05 -5.78324e-06 -9.48933e-19)
(-0.0106996 0.00141521 -1.6096e-18)
(0.000303177 6.51101e-05 2.12054e-19)
(-0.0604674 -0.0615501 4.51481e-18)
(0.00087937 -0.0130733 -5.46134e-18)
(-0.00108242 -0.000268052 -1.59144e-19)
(0.0641816 0.0677271 2.85141e-18)
(-0.000292148 -0.000152155 -1.79052e-20)
(0.0161431 0.0276386 7.62659e-19)
(-2.62535e-05 1.57254e-05 6.54352e-20)
(0.00936195 0.0214101 -2.1433e-18)
(0.0152608 0.0310749 -5.69687e-19)
(0.000200893 -0.00029971 1.04025e-18)
(0.0633993 0.103113 -9.6097e-18)
(-0.0232635 0.00714157 -4.57009e-19)
(0.000398212 1.56128e-05 6.6671e-19)
(-0.0270091 -0.043685 -1.13645e-18)
(0.00331762 0.00455294 -1.74681e-17)
(0.000140649 -0.00019804 1.20338e-19)
(-0.00452978 -0.0068308 -4.70889e-18)
(-1.29649e-05 0.000114626 -3.73284e-19)
(-0.0268424 0.00432667 8.64354e-19)
(-0.0031099 -0.000489666 1.49719e-18)
(3.36094e-05 -1.05661e-07 5.55498e-20)
(0.000351339 -0.000183607 1.37622e-18)
(-2.70499e-05 5.71832e-06 -1.02753e-18)
(1.62272e-05 1.33852e-05 5.35085e-21)
(1.32877e-05 3.58691e-08 -1.31173e-19)
(-7.36017e-05 2.79285e-05 4.4212e-20)
(0.00622907 -0.0791213 -2.9141e-18)
(-0.03023 0.0384921 -8.51243e-20)
(0.000131534 7.27821e-06 -8.55398e-19)
(-8.80868e-05 -8.05944e-06 -1.40297e-19)
(4.51505e-05 -3.54453e-05 2.04342e-19)
(0.00288593 -0.000181498 -8.62851e-18)
(0.040386 0.012652 -7.69205e-19)
(1.58314e-05 -5.0027e-05 3.74879e-19)
(5.88546e-05 -3.62324e-08 -9.05702e-21)
(-0.00111801 0.000479433 6.27589e-18)
(0.0170106 0.0134998 1.11583e-18)
(1.95491e-05 1.03436e-05 -3.7502e-19)
(0.000196435 -0.00026477 2.48011e-18)
(0.0228097 -0.0470495 2.44873e-18)
(-0.0412116 0.0581371 2.49053e-18)
(-0.0138112 -0.0104398 -9.41278e-20)
(-0.00235752 -0.00263984 -6.25633e-18)
(-0.00217118 -0.000886807 -9.02131e-18)
(0.000139307 6.93638e-05 -5.17828e-20)
(-1.55341e-06 -3.48949e-05 1.04542e-19)
(-0.000263046 -0.00290548 -3.69641e-19)
(1.34107e-05 -4.79535e-07 1.86741e-19)
(3.56028e-06 -5.19646e-05 8.1292e-20)
(-0.000138232 5.12352e-05 -1.46976e-19)
(-1.13003e-05 -3.5408e-05 -4.16508e-20)
(9.475e-05 6.52107e-05 1.19699e-20)
(-0.0856183 -0.0161379 6.03896e-18)
(-6.90764e-06 0.000125063 1.22573e-19)
(-0.00278437 0.00329079 -8.2766e-19)
(-0.0114582 0.00121762 4.24223e-18)
(0.00230853 -0.000892505 4.76373e-18)
(-1.00804e-05 1.91798e-05 1.24885e-20)
(5.47523e-05 -4.56873e-05 -2.2912e-18)
(-0.0281963 -0.0352512 -1.17941e-17)
(-0.000935883 -0.00220947 6.32513e-19)
(-0.00846099 0.000580897 2.3101e-18)
(9.71355e-05 -6.5097e-05 7.84936e-20)
(3.79102e-05 7.68816e-06 -8.07891e-19)
(0.000396651 2.52612e-05 -2.58084e-19)
(5.23757e-06 -1.44665e-05 -4.19952e-20)
(0.000450931 -0.000313788 -3.02019e-19)
(-0.000302264 -0.000320991 -6.63174e-21)
(0.0225392 -0.0424416 -1.79861e-18)
(-0.00204401 -0.00631008 -1.58997e-19)
(-0.0032934 0.0121569 2.30625e-18)
(3.82871e-05 6.28044e-06 -1.9286e-19)
(0.000660834 -0.000500166 1.78767e-18)
(-0.0062825 -0.00547063 1.10997e-20)
(-8.98924e-05 0.000220273 -1.96669e-19)
(0.0117615 -0.000145144 1.00432e-18)
(-0.00432049 -0.0482208 -5.82816e-18)
(7.72905e-05 -1.1348e-05 -2.75111e-19)
(0.00339226 0.109299 -5.79615e-19)
(-1.17606e-05 2.6748e-05 3.27571e-20)
(1.38417e-05 1.50061e-07 -4.9506e-19)
(4.86447e-05 -2.50332e-05 -1.35678e-19)
(-0.000323388 -8.24872e-05 -2.65401e-20)
(-8.30446e-06 1.0137e-05 3.77701e-21)
(2.57711e-05 4.01334e-06 3.32003e-19)
(-0.00351455 0.00358104 -7.22679e-19)
(0.00948227 -0.093628 -1.20203e-17)
(-8.11243e-06 7.1538e-06 1.76868e-21)
(0.0293963 0.061163 2.32788e-18)
(-0.00136115 0.000144304 5.71456e-18)
(3.05744e-05 -1.33144e-06 8.73869e-19)
(0.00267101 -0.00130884 8.19463e-18)
(0.000461453 -0.000494729 4.64062e-18)
(-0.0385049 -0.0296961 -1.72854e-17)
(0.000375386 -0.000246467 -1.26422e-17)
(-0.00140214 0.00974714 2.84113e-18)
(0.0303216 0.0327542 -1.01847e-19)
(0.0323012 0.0261263 1.34913e-20)
(-0.000361079 -0.000239887 -6.04788e-21)
(-0.0086746 -0.00920494 -2.66766e-19)
(-0.00940375 -0.00535146 -5.34413e-20)
(0.000462965 1.35503e-05 -8.71396e-19)
(-0.00908333 -0.0344073 2.2329e-18)
(-4.50137e-06 -6.668e-07 2.81716e-20)
(7.70941e-05 1.45319e-05 4.13299e-19)
(0.000188359 3.53055e-05 -8.21347e-20)
(0.000287717 -0.000249845 1.80489e-18)
(-0.00257212 -0.00158741 1.69406e-19)
(-0.00351833 -0.0012606 -2.48056e-18)
(0.000721875 -0.00127844 4.26137e-18)
(-0.000249594 0.00363326 -3.55192e-19)
(0.00345148 0.000537602 5.28677e-20)
(0.0158641 -0.0157638 1.50404e-19)
(-0.00246186 0.00761867 -5.1623e-21)
(0.000128233 1.58676e-05 1.50288e-18)
(-0.122469 -0.143439 -1.63177e-18)
(0.00121148 -2.36847e-05 6.79662e-18)
(-0.000365514 0.000741008 -2.13838e-19)
(-0.0433149 -0.080742 4.56286e-19)
(3.42147e-05 -5.10537e-07 1.25833e-18)
(-0.00243196 0.00854315 1.43289e-19)
(0.0136468 -0.0105908 2.81257e-18)
(1.01096e-05 1.06519e-05 -4.26992e-19)
(-0.00722431 0.00331032 -5.17129e-18)
(1.34872e-05 -2.41821e-07 -3.99926e-20)
(2.90763e-06 -1.37675e-05 8.8978e-20)
(0.00291514 -0.000475825 8.32646e-18)
(7.92965e-05 -8.35418e-05 3.83005e-19)
(1.37248e-05 9.69367e-07 4.6219e-19)
(0.0152344 -0.00497134 3.33742e-18)
(-0.00976048 0.00531335 3.24729e-18)
(0.0484757 0.120697 -1.59753e-18)
(3.14348e-05 2.36724e-05 -1.53363e-18)
(0.000113953 -7.31585e-05 -4.98527e-18)
(0.00188128 0.00204242 -3.13828e-19)
(-0.00235026 -0.0362611 5.68373e-18)
(0.0306411 -0.00859313 6.57554e-18)
(0.000109651 2.51423e-05 6.42169e-20)
(9.20447e-05 7.00583e-06 -1.56395e-19)
(3.01106e-05 2.15436e-05 3.0369e-19)
(0.0047756 0.00121389 -4.54821e-18)
(0.04033 0.0358202 1.01433e-18)
(-1.81279e-05 -3.83287e-05 1.57432e-19)
(6.73198e-06 -1.57808e-06 -8.18985e-20)
(0.000334608 0.000172436 -1.37868e-19)
(1.53052e-05 1.49843e-05 8.59809e-20)
(-0.000392239 -0.00471424 3.89263e-20)
(0.000374624 0.000612404 1.53906e-19)
(-3.11348e-06 -1.63352e-06 1.95726e-19)
(0.000795555 -0.00136618 -2.55627e-18)
(1.01245e-05 9.3976e-06 5.41908e-19)
(1.72833e-05 -3.07287e-05 2.60241e-20)
(-9.75117e-06 9.26454e-06 -4.98129e-19)
(-0.0043685 0.016175 3.11509e-18)
(-3.8834e-06 -4.32393e-06 -1.31851e-19)
(0.000203423 -9.16876e-05 -2.77862e-18)
(-0.00039461 0.000145448 9.13506e-20)
(0.000646968 -0.000467506 -3.12585e-18)
(0.00262527 -0.00256255 6.50191e-18)
(-0.00752025 -0.0148003 -1.04731e-18)
(0.00644613 0.00145796 3.28576e-18)
(-0.027587 0.032606 -5.66947e-18)
(1.90369e-05 -3.76022e-05 -1.87471e-18)
(0.0136054 -0.0131973 -1.50058e-19)
(-0.00164246 0.00412914 3.15108e-18)
(-0.0739629 -0.00841079 3.08561e-18)
(-0.0111082 0.00146618 6.47654e-18)
(1.27961e-05 -7.97227e-06 -8.15234e-20)
(6.35695e-05 -1.37715e-05 -9.54272e-20)
(-0.000190498 0.00459405 -1.39876e-19)
(4.88906e-05 6.55697e-06 3.23955e-18)
(-0.00480296 0.00598026 -3.61985e-18)
(-2.66544e-05 -2.05144e-05 -2.88166e-19)
(0.0119888 -0.00837875 2.54338e-18)
(-2.06518e-05 0.000388924 1.03651e-18)
(0.00240201 0.000192846 -5.78815e-18)
(-0.0261139 0.021567 3.88812e-19)
(0.000168901 -0.00023159 1.17968e-17)
(-0.0368497 0.0402102 -2.02061e-19)
(-7.89292e-06 2.81046e-06 -5.39415e-21)
(0.000310186 -0.00061987 2.93052e-18)
(-4.61384e-06 1.9163e-06 -2.68374e-20)
(-0.000563508 -0.00141095 4.22327e-19)
(0.00154523 0.000129351 -2.73487e-18)
(4.91187e-05 -6.34354e-05 -3.74871e-19)
(-0.00370777 0.000879168 -3.93557e-18)
(3.76332e-05 -1.62275e-06 6.084e-20)
(3.22747e-05 -9.0413e-07 2.39737e-19)
(6.54103e-05 -2.32457e-05 -5.77705e-20)
(-0.0032879 -0.00129883 -8.81973e-18)
(0.000525928 -0.00527517 -5.12428e-20)
(-8.91165e-06 2.40487e-06 -3.07301e-19)
(-0.00151811 -0.000946156 -3.3331e-18)
(0.00276625 -0.00103491 -4.00311e-18)
(-0.0356712 0.195984 -1.51393e-18)
(-0.00422863 0.00341658 -7.71333e-18)
(-0.00565293 0.00578596 5.97472e-18)
(-0.0417654 -0.0331827 1.88436e-17)
(-4.13789e-06 -4.99792e-06 1.00317e-19)
(-0.00707742 0.000689242 2.22254e-19)
(4.42933e-05 -5.2992e-06 1.63191e-20)
(0.0262982 -0.0759026 1.67238e-17)
(-0.0169669 -0.00482201 1.19057e-18)
(-0.000669621 -0.00197204 4.23758e-19)
(-0.00332564 0.00394644 3.89164e-19)
(2.95126e-05 -1.11312e-06 1.08065e-19)
(0.00111614 -2.18845e-06 3.26118e-18)
(0.000155115 -0.000211963 1.86252e-18)
(3.25707e-05 -7.13073e-05 -1.55154e-19)
(-2.65904e-06 1.49796e-06 2.22436e-21)
(3.5065e-05 9.42605e-07 -1.35835e-18)
(-0.00541289 0.00296511 -3.09875e-19)
(3.58275e-05 1.6582e-05 6.94558e-19)
(0.000157123 -0.000882036 -7.21846e-18)
(7.11651e-05 1.73171e-05 3.13892e-20)
(-8.6352e-06 8.97198e-07 1.99481e-19)
(1.03848e-05 -4.96322e-07 -1.62571e-20)
(0.0219337 -0.0121296 -8.31013e-18)
(-0.016604 -0.0184134 1.83794e-18)
(0.0240854 0.045906 7.28463e-18)
(0.000232762 -0.00220578 3.15419e-18)
(0.000398922 0.000538298 7.79758e-19)
(-0.0130075 -0.0121215 -5.25125e-18)
(-0.00635023 0.00184463 7.21677e-19)
(-3.02622e-05 1.29282e-05 2.32211e-19)
(-0.00833588 -0.0398019 4.63743e-18)
(3.21775e-05 8.15328e-07 5.35178e-19)
(0.000662675 0.000116846 -3.91481e-18)
(4.89805e-05 3.62438e-06 -2.35556e-18)
(-0.0107643 0.00215354 5.26566e-18)
(1.47292e-05 1.16389e-05 -9.05253e-20)
(-0.00156556 -0.00485268 -1.77907e-19)
(5.76871e-05 -5.59046e-05 4.15197e-18)
(-0.0467132 0.171177 2.01809e-18)
(0.001367 0.000183013 2.15328e-18)
(-0.00976041 0.00822154 1.49027e-17)
(-3.62488e-06 1.21653e-06 -5.35164e-21)
(0.00125005 0.000412067 -6.55536e-18)
(0.000165935 -3.63807e-05 -1.36266e-19)
(2.736e-05 -1.32458e-06 -1.60185e-19)
(-0.00116343 0.00759251 4.4623e-19)
(-0.0512502 0.0260244 3.34494e-18)
(0.0003057 1.92266e-05 4.55697e-19)
(0.00216072 -0.00938784 6.85843e-19)
(3.23937e-05 -6.19033e-07 4.44115e-19)
(0.000305321 -0.00106154 2.96783e-19)
(3.0998e-05 -1.1545e-06 6.77163e-20)
(-0.00256146 0.00799917 8.61457e-18)
(3.68315e-05 1.24414e-05 -9.04923e-19)
(0.00515171 0.00158625 -4.69845e-19)
(-2.22957e-05 -2.18923e-05 -1.05288e-19)
(0.000239552 1.38164e-05 -1.04282e-19)
(-0.00571183 -0.00355614 9.03668e-18)
(3.11193e-05 -7.37384e-07 -1.22892e-19)
(0.000341496 -0.00721611 -7.00965e-18)
(-3.45635e-06 -8.01819e-07 1.12287e-19)
(4.74232e-06 1.79897e-05 -2.5258e-19)
(-0.000220648 -0.102043 -8.90749e-18)
(0.000101302 -0.000869233 -1.16818e-18)
(9.88437e-05 2.70818e-05 -7.12579e-20)
(-0.0119513 0.000380532 4.57628e-18)
(-0.00328553 0.00106033 1.22915e-18)
(0.0290671 0.0235059 -9.52379e-19)
(0.0154555 -0.0101646 -1.75627e-18)
(-7.88899e-06 1.78953e-07 1.09213e-21)
(-0.000476904 0.00436214 -1.06593e-18)
(-0.00226116 0.01702 -6.84576e-18)
(-0.00152238 0.0048673 -1.05886e-17)
(-0.000208657 -0.0024352 -1.96122e-19)
(0.000356208 -0.000403181 3.83882e-19)
(-0.00255432 -0.00538523 1.55099e-19)
(-5.43182e-06 -1.00324e-06 -6.74783e-20)
(-4.91376e-05 6.36668e-05 -2.1226e-20)
(-0.00797753 -0.0158242 6.54082e-20)
(0.00311975 -0.0030649 -2.92873e-18)
(-0.000191456 0.000182443 6.29163e-19)
(-0.0716084 -0.0906014 -9.72549e-19)
(0.00142265 7.55592e-05 7.92716e-19)
(0.0480815 0.0251045 7.24486e-19)
(0.0273668 -0.013543 -4.59873e-18)
(-0.0220144 -0.011808 -4.49761e-20)
(0.000955682 0.00171454 1.89435e-18)
(0.000594746 -0.0107458 -3.98338e-18)
(-0.00565633 0.00157768 2.54657e-18)
(-0.000169756 9.84388e-05 -9.61283e-20)
(-0.0119478 0.00231036 -7.56863e-19)
(-0.00587743 -0.0199738 -7.84544e-20)
(6.39867e-06 1.66596e-05 1.53999e-19)
(-2.10632e-06 -1.28832e-06 2.25469e-19)
(1.07831e-05 -5.72159e-07 -4.36905e-20)
(0.00247376 0.00274257 -7.68613e-20)
(1.7435e-05 3.25603e-06 -5.09954e-20)
(-0.00700252 0.000755918 -2.23222e-18)
(0.000336779 -0.000584385 -9.07384e-18)
(-1.70733e-06 -1.44137e-06 1.58192e-20)
(-0.000977564 -0.00169727 5.11736e-18)
(-3.60592e-06 1.30687e-06 -5.26936e-20)
(-0.0124737 0.0180425 -5.54716e-18)
(-0.000350857 -9.36693e-05 1.11209e-19)
(-3.20399e-05 -6.36488e-06 -1.49849e-20)
(-0.00949224 0.0046213 4.55369e-18)
(0.00223825 -0.0021266 -1.10655e-18)
(0.0168208 0.0384501 2.39827e-19)
(6.95669e-05 -4.82878e-05 -2.92893e-18)
(-0.000543655 0.000684522 -7.99012e-20)
(2.91534e-05 -2.58901e-05 -2.54708e-19)
(9.2382e-05 -6.73943e-05 -1.82768e-18)
(0.000562528 -2.21745e-05 2.76937e-18)
(1.81352e-05 5.85622e-06 1.20142e-19)
(-0.00959428 0.000666546 -6.14332e-18)
(-0.000601201 0.00112912 8.59503e-19)
(-0.0196366 -0.168355 -9.15494e-19)
(0.0226667 0.0509783 -7.75671e-19)
(-0.0120536 -5.26429e-05 9.17672e-19)
(-0.00647253 0.0062808 -4.99118e-18)
(0.000115252 -6.25212e-05 -3.77398e-18)
(-8.05345e-07 -2.80804e-08 -2.76263e-21)
(0.000213845 -4.70458e-05 3.54773e-19)
(-0.00768979 0.00103802 7.06398e-19)
(0.0589489 0.110669 -1.08081e-18)
(-9.98693e-05 0.000447021 -2.899e-18)
(-0.00874112 0.000664772 -4.24817e-18)
(0.0538291 0.0622185 -1.44224e-19)
(1.56793e-06 2.05694e-05 -4.7634e-19)
(-1.098e-05 -1.33091e-05 2.0898e-20)
(0.000540498 -0.000271745 1.04126e-18)
(-0.00036541 0.00799236 -5.09145e-18)
(0.0331532 0.0289116 7.29579e-19)
(0.00150611 0.000314257 -3.80762e-18)
(8.99411e-05 -6.15995e-05 1.18988e-18)
(0.00020812 -7.63998e-05 2.24456e-19)
(0.00080747 0.000165261 3.42918e-18)
(0.0018321 0.00049514 -3.0075e-20)
(0.00170857 -0.00769631 -1.06174e-18)
(0.000357108 -0.000589362 4.20608e-19)
(0.000163303 7.25732e-05 -1.07077e-18)
(6.11641e-05 2.63712e-05 -1.08393e-19)
(-7.72881e-07 -2.83624e-07 -4.32504e-21)
(0.000543896 7.90202e-06 -3.00824e-18)
(0.00341001 0.00146489 -5.93947e-20)
(0.00327724 0.00547096 -1.01531e-19)
(-0.000123488 -0.000491325 -8.50773e-19)
(0.00345752 -0.00197604 2.13001e-19)
(-0.0091593 0.000615631 1.90612e-18)
(-0.00106999 -0.000717132 5.22625e-20)
(0.0460522 0.0609531 -6.40044e-20)
(0.000306133 -0.000337496 -1.09558e-19)
(0.00589748 0.0028724 6.59422e-19)
(0.000146085 0.00033373 1.9516e-18)
(-0.00155035 0.00435489 -2.96678e-18)
(-1.24434e-06 -1.7393e-07 -7.24553e-20)
(0.000334677 -0.000661663 -2.76708e-17)
(-0.0151761 -0.0173216 -6.44127e-19)
(-0.000827065 -0.0777988 1.98493e-19)
(4.99457e-05 1.02379e-05 -3.98752e-18)
(-0.000177008 -0.000419453 -4.81391e-19)
(1.98164e-05 2.36939e-06 2.81823e-19)
(4.14613e-05 1.41639e-06 2.80408e-18)
(5.26102e-05 -6.59254e-05 -5.84469e-18)
(-0.00734526 -0.00488824 -9.76789e-19)
(-0.00443957 -0.00721492 -2.62321e-20)
(0.0214424 -0.0104491 -1.33162e-18)
(0.000804899 -0.00795187 2.21877e-18)
(-7.66072e-06 -4.61236e-06 2.60044e-20)
(0.00202809 0.00703391 -7.64916e-19)
(0.000215417 -0.000297526 3.5932e-18)
(0.000302842 -0.000241913 -5.51965e-18)
(0.0010292 -0.00967442 7.5884e-19)
(-9.67371e-05 0.000129601 -6.24458e-20)
(0.000282734 -0.000625397 3.88007e-18)
(-0.0150829 0.0461599 -2.96421e-18)
(-6.04195e-06 5.07907e-06 -1.10651e-19)
(0.00199798 -0.00209424 -1.302e-17)
(0.0100325 0.00339041 -2.99185e-20)
(0.000374328 -0.000572964 -1.34726e-18)
(-2.15133e-05 4.12767e-05 -1.06575e-20)
(-9.02273e-06 1.83469e-05 4.77871e-21)
(-5.32737e-05 5.92332e-05 -7.25696e-21)
(-0.00479568 0.000837153 -5.60104e-18)
(6.70552e-05 2.14983e-05 1.18841e-18)
(-0.000407432 -0.000279892 5.69498e-21)
(0.000330116 -0.000672843 -1.79993e-18)
(2.00575e-05 6.46996e-06 -1.03435e-19)
(-1.13257e-05 1.78262e-05 -6.90414e-21)
(0.00790875 -0.0075549 3.32127e-18)
(-0.0458383 0.0420391 5.72021e-18)
(-0.00828346 -0.0135886 1.19519e-19)
(-0.0216488 0.0792086 -2.76716e-18)
(-0.00915187 -0.00617347 -3.44053e-19)
(-0.00643786 0.012015 -2.69975e-18)
(4.94723e-05 -7.18484e-05 3.05749e-19)