/*--------------------------------*- C++ -*----------------------------------*\
| =========                 |                                                 |
| \\      /  F ield         | OpenFOAM: The Open Source CFD Toolbox           |
|  \\    /   O peration     | Version:  v2012                                 |
|   \\  /    A nd           | Website:  www.openfoam.com                      |
|    \\/     M anipulation  |                                                 |
\*---------------------------------------------------------------------------*/
FoamFile
{
    version     2.0;
    format      ascii;
    class       surfaceScalarField;
    location    "800";
    object      meshPhiCN_0;
}
// * * * * * * * * * * * * * * * * * * * * * * * * * * * * * * * * * * * * * //

dimensions      [0 3 -1 0 0 0 0];
oriented        oriented;


internalField   nonuniform List<scalar> 
20537
(
0.000901427
4.18494e-05
-0.000949338
-0.00113161
0.000835038
0.000296233
0.000113825
0.000437737
-0.000551821
0.00149242
-0.000813069
-0.000686146
-0.000329886
-0.000210185
0.00053989
-0.000796974
-0.000279802
0.00107437
0.00106203
-0.000851872
-0.000223525
-0.000327514
0.00066838
-0.000341414
0.000449053
-0.000588287
0.000123098
-0.000766697
0.00034086
0.000425454
0.000109905
-0.000299085
0.000188368
0.000518398
2.85651e-05
-0.00054702
-0.00025179
0.000321622
-6.98502e-05
-0.000133507
-0.000199257
0.000332764
8.19899e-05
0.000221486
-0.000362535
0.000456125
0.00031633
-0.000773825
-0.00102187
0.00030062
0.000718545
0.000127289
0.000702665
-0.000832658
-0.000210203
-0.000175018
0.000385178
0.000569732
-0.000137535
0.000674181
0.000807244
0.000643446
-0.000529922
2.03756e-05
-4.16317e-06
-2.26919e-05
-4.88894e-05
5.18242e-05
-3.02464e-05
2.79958e-06
1.10596e-05
0.000342017
-0.000670141
-0.000791057
0.000634194
0.000154887
0.000129675
6.58937e-05
0.00120466
-0.000309508
0.00115572
-0.000172942
-0.000987589
0.000258443
-0.00105728
-0.000543747
-0.000480535
0.000688152
-0.000250726
0.000377215
0.000231848
-0.000609428
3.54388e-05
-0.000112661
0.000235778
5.55392e-05
-0.000291343
-0.000326701
0.000160694
0.000165996
-0.000242601
-0.000215302
0.000457824
-0.000559847
-0.000207104
0.00082376
-0.00044701
0.0011462
-0.000644328
-0.000517766
-4.00179e-05
-1.31719e-05
5.08142e-05
-0.000167157
5.58538e-05
0.000111303
-0.000208698
-7.8039e-05
0.000286366
6.77045e-05
-0.000276691
-0.000266024
0.000151014
0.000115009
-7.96961e-05
0.000279918
-0.000200175
0.00100136
-0.000290715
-0.000711683
-0.000607326
-0.000185541
-0.000756853
0.000653273
9.9512e-05
0.000276464
-0.000490588
0.000213974
-0.000210658
0.000420449
-0.000209842
-6.56287e-05
0.000158266
-9.26375e-05
-3.7476e-05
0.000160102
-0.000178921
3.90284e-05
0.000110143
-0.000202149
1.17067e-05
-5.38956e-05
1.67333e-05
-7.97688e-05
4.82784e-05
9.00168e-05
0.000115569
-0.000205585
0.000944961
0.000205614
-0.000876288
0.00107381
-0.000209545
-0.000468744
0.00022605
0.00025582
6.35036e-05
-0.000319338
-0.000382926
-0.00065833
0.00103932
0.000198289
0.000256173
-0.000454573
-0.000904039
0.000178955
0.000724528
-0.000293844
0.00103376
-0.000745265
-0.00017945
-0.00014726
-4.93535e-05
0.000285019
-0.000329121
-0.000325009
0.000653472
0.000864352
-0.000740047
0.000152784
-3.01702e-06
-0.000149767
-0.000115993
-0.000143444
0.000259431
-0.000696382
-0.000435259
-0.000257822
0.000154617
0.000291172
-5.55596e-05
-0.000283021
-0.000197235
-0.000361642
0.000548319
0.000168873
0.000474397
-0.000141142
0.000201742
-6.05992e-05
0.000615058
-0.000358128
-0.000257304
3.23267e-05
-0.000164337
-0.00107388
0.00032243
0.000742115
-1.62024e-05
2.38126e-05
-7.56886e-06
0.000714429
-0.0010012
0.000259762
-0.000147133
0.000262119
-0.000114986
0.000584336
-0.000969302
-4.18467e-05
0.000560167
0.000291404
-0.0010407
0.000746249
-0.00069983
0.000540173
0.000159465
0.000703688
6.49512e-05
-0.000770825
-0.000442941
0.000342208
9.37994e-05
0.00035648
-0.000120725
0.00129254
-0.000745044
-0.000552391
0.000193156
0.000779035
-0.000408027
-0.000372157
0.00106852
-0.000367254
3.85879e-05
6.24893e-06
-5.98959e-05
-0.000479843
0.000149796
0.000298912
-0.000243822
-5.50937e-05
-0.000602364
-0.000157444
3.22762e-05
-1.13512e-05
0.000254023
-0.000265836
1.18149e-05
-0.000344731
-0.000217132
0.000561581
0.00116084
-0.000497828
-0.000670677
0.000519755
-0.00072519
3.35966e-06
-5.18373e-06
5.85238e-07
-0.00029368
-0.000706794
0.00099777
0.000270272
0.000220156
-0.000490647
-2.27268e-05
-5.60997e-06
2.66925e-05
0.000141713
-0.000232806
-0.00104409
0.000762043
-3.54753e-05
3.35467e-05
-1.6876e-05
-0.00032866
-0.000121436
0.000714597
0.000572831
-1.34514e-05
-1.26758e-05
-8.00695e-05
2.44608e-05
-0.000431677
0.000929155
0.000180815
0.00011809
3.87234e-05
-2.72274e-05
-1.37237e-05
-6.69978e-05
-4.11873e-05
7.00691e-05
-0.000169291
3.56234e-05
8.85127e-05
-0.000164884
-2.27287e-06
-0.00039746
0.000914875
9.47849e-05
-0.000346594
0.0010005
0.000305512
0.000693947
-4.17789e-05
0.000192961
-0.000154249
0.00101924
-0.000715543
0.000462892
-4.73952e-06
-0.000458438
0.00131894
-0.000654952
-0.000173827
0.000393809
-0.000220049
0.0004728
0.000655355
0.000149813
-0.000506039
0.000330668
-2.05715e-06
0.000154841
-0.00019691
0.000882508
0.000511579
-0.000120306
-8.35124e-05
0.000173136
1.58849e-05
1.99667e-05
-0.000133749
-0.000133636
0.000267378
0.000425274
-0.000263907
-0.00016137
0.00023832
-0.00045964
0.000221339
3.82182e-05
0.000215806
-0.000156716
0.000138131
0.000846389
-0.000365567
-0.000488317
9.81072e-06
9.07868e-05
-0.000103276
0.000453623
-0.000867162
0.000409638
-0.000283967
0.000205516
-1.98647e-05
8.64785e-07
1.83638e-05
-0.000456916
0.000282997
0.000819881
0.000225214
0.000262461
-0.000195025
0.000442289
-0.000204938
0.000124016
1.45103e-05
-0.000186472
0.00016243
-0.000295937
5.41939e-05
-5.03324e-05
-1.2238e-05
-0.000633832
0.000642937
-0.000530727
0.000979956
-0.000132636
0.000783152
-0.000665905
-0.000815122
0.00100013
-0.000189278
-0.000333919
0.00012321
0.000491461
-0.000215161
-1.29883e-05
1.28072e-05
-1.38919e-07
0.000694962
-0.000378095
-0.000317801
-8.68535e-05
0.00017687
0.000417087
-0.000290472
-0.000831823
-0.000275271
0.00110437
1.13657e-05
-9.56234e-05
8.12554e-05
-3.93014e-06
-1.63639e-05
-0.0006189
0.000289156
0.000732655
0.000578421
0.000159889
-0.000254961
9.50693e-05
-0.00015708
1.59374e-05
0.000245802
-5.51242e-05
-0.000205123
-0.000794243
0.000646539
0.000465848
-0.000227515
0.000120185
0.000272696
-0.000987919
0.000696219
-0.000169147
0.000631656
0.000438731
0.000222012
-0.000666784
-0.0004102
0.000199958
2.30437e-05
6.39082e-06
-3.07523e-05
-0.000318796
0.000878593
-0.000561707
-0.000249747
-0.000901974
0.000620995
0.000253324
-0.00047946
-5.0633e-05
-4.15026e-06
3.67539e-06
9.86132e-08
2.71296e-05
1.50765e-06
-3.87982e-05
-0.0010311
0.000732174
-0.000183157
-3.33144e-05
0.000232684
0.000246725
-0.000479555
0.000556808
-0.000754553
0.000197173
0.00020533
-0.000165801
0.000100172
0.000403828
-6.75401e-05
-0.000341694
-0.000351917
-0.00026001
0.00061132
-0.000156834
0.000412637
-1.67983e-05
-0.000715565
0.000728557
0.000265971
0.00057278
-0.000739123
0.000241946
0.000496381
-0.000380625
0.000811561
0.000369894
-0.000577755
-0.000201734
0.000156773
-0.000320153
0.000156412
0.000163738
2.33896e-05
-8.45732e-05
1.89646e-05
-0.000375252
0.000838982
-0.000489059
-0.000727264
0.00034119
0.000385663
-0.000207169
-0.000721519
0.000497737
-0.000337503
-0.000160246
-0.000910436
0.000845071
6.30832e-05
0.000116377
-0.000209264
9.28875e-05
2.03229e-05
-1.52735e-05
-5.79761e-06
0.000246336
-0.000183719
-6.26192e-05
0.000822342
0.000329626
-0.000264866
0.000765814
-0.000501359
-1.60987e-05
-4.73596e-06
1.96205e-05
-2.3546e-05
-7.7329e-05
9.81039e-05
7.885e-05
-0.000255296
0.00017526
-0.00111925
0.000389276
0.000727545
-0.000121011
-0.000145014
-0.000585642
0.000344736
0.000198974
-7.82742e-05
0.00019465
-0.000250725
-0.000661597
-0.000903747
-0.000177845
0.000257678
-0.000147314
-0.000110368
0.000417653
-0.000152884
-0.000264834
0.000245655
-0.000142715
-0.000102941
-1.57881e-05
-9.74024e-06
1.60474e-05
0.000775992
-0.000524416
-0.000252666
-9.13922e-07
2.7178e-06
-0.000117557
0.000165719
-4.81623e-05
6.66455e-07
-1.74652e-05
-0.000392263
0.000733615
0.000286484
0.000529462
-0.000816774
0.00019365
3.8162e-05
6.95847e-05
-0.000182413
-0.000291
0.000473254
-0.000975807
0.000739298
0.000235171
0.000385738
0.000111978
-0.000730781
-0.000173628
0.000101251
-9.43671e-05
0.000361254
-0.000759435
0.00104514
-0.000788573
-0.000690238
3.81045e-05
0.000650496
-1.13248e-05
1.69598e-05
-5.7917e-06
-0.000319632
-0.000408024
-5.41266e-06
-1.21468e-06
0.000132617
-0.00018975
5.71322e-05
0.000142766
-0.000487743
0.000226261
0.00047684
-0.000703413
-0.000333889
-0.000594351
0.000924081
-0.000882022
0.000752506
0.000126834
-0.000187189
-0.000595607
0.000778781
-9.84892e-05
-0.000591896
0.000831521
-0.000894033
5.59573e-05
-0.000868494
0.000649797
-0.000379962
-0.000270088
0.000199744
-0.000964877
0.000763912
-0.000287361
0.000843522
-0.000239366
0.000105725
0.000211138
-7.85398e-05
-0.000132599
-0.00084529
0.000602531
0.000210152
7.50529e-05
-0.000139224
-0.000822922
0.000958863
-0.000616547
0.00101823
-0.000402492
-8.09737e-05
0.000216019
-0.000139045
0.000142539
0.000213959
-0.000356528
-0.000633236
0.000613133
4.72467e-06
0.000820109
3.57761e-05
0.00074219
0.00011097
0.000146703
-0.000319018
0.000366109
-4.98158e-05
-0.000775138
0.000583911
-0.000731352
-0.000474516
0.000994594
-0.000521371
0.000315664
0.00029899
-0.000429377
0.000883964
-0.000211189
-0.000318333
1.78999e-06
-1.80131e-05
6.24401e-05
-0.000213514
0.000149566
0.000252087
-0.000157165
-9.49234e-05
0.000237634
-0.000128455
-1.21173e-05
1.03477e-06
1.38692e-05
-6.62513e-06
-8.23856e-06
2.876e-06
1.65017e-07
-3.94481e-06
0.000283314
0.000366224
-0.000984379
0.000367061
0.000252136
0.000779682
-0.00103188
0.000688863
-0.000387677
-0.000316046
0.000454134
6.96981e-05
-0.000566577
-0.000988111
0.000512435
3.00258e-06
-7.50927e-06
4.82409e-06
-0.000235409
-0.00022158
0.000995801
-5.51243e-05
-0.000856203
-3.09801e-05
0.000334383
0.00026316
-0.000598089
-1.05594e-05
1.37359e-05
0.000383268
-0.000240762
-0.000950772
0.000854904
9.41246e-05
-0.00061921
0.000577278
-0.000311068
-0.00018047
0.000470018
-6.50086e-05
0.000197624
0.000637127
5.69308e-05
0.000953336
-0.000655158
0.000245925
-0.000179054
-6.68728e-05
0.00120042
-0.000383361
-0.000827217
0.000728824
-0.00102533
-6.47831e-05
-0.000190596
0.000255377
0.000270375
0.000401927
0.000619612
-0.000383872
-0.00023607
0.000391049
-0.000800524
0.000850183
0.000141835
0.000274985
0.000150277
-0.000487464
-0.000464801
0.00056087
0.000263584
-0.000831866
0.000190935
4.61931e-05
-0.000237133
1.94623e-05
-7.00343e-05
4.79518e-05
-0.0008519
-3.1983e-05
2.22668e-05
-0.000218611
0.000193571
0.000108852
0.000143233
0.000163185
-0.00035315
0.000189924
-0.000238312
-0.000386252
0.00019462
-0.000502593
0.000307719
0.000690182
-0.000188469
-0.00054357
4.74163e-05
0.000163722
0.00104
-0.00063384
-0.000411647
1.90119e-05
3.59047e-06
-3.04336e-05
1.46387e-05
-0.000638628
0.000611884
-0.000213579
0.000376717
0.000375534
0.000399276
0.000435853
-0.000802881
0.000363686
0.000492074
0.000265507
0.00092248
-0.000441084
0.000993715
-0.000218252
-8.15423e-05
0.000158319
0.000165154
-0.000157787
0.000293683
-0.000135901
0.00105111
-0.000390763
-0.000663388
0.000145036
0.000100887
0.000423013
-0.000189104
-0.000233933
-0.000229367
-0.000598761
0.000246259
0.000181796
-0.000417271
-0.000104609
-0.000662621
0.000763738
-0.00101858
0.000433944
0.00058327
-0.000381247
0.000137626
0.000243565
0.000208212
-0.000939249
0.000157286
0.000777315
-0.000695504
0.000989941
-0.000294312
0.000221703
-0.000134986
-8.67181e-05
0.000260097
-9.82435e-05
-0.00014576
0.000256481
-0.000112498
-0.000276422
0.000128784
-0.000259879
0.000486859
-0.000227066
0.00083924
-0.000406703
-0.000607316
-0.000412262
-0.00016087
4.33133e-05
-0.000140775
-0.000669708
-0.000977534
0.000282199
0.00062309
-0.000620607
0.000130671
0.000512986
-7.79184e-06
1.16939e-06
-3.05383e-05
6.35815e-06
-0.000761949
0.000224477
0.000518445
0.000140049
8.16515e-05
5.87236e-05
-0.000489509
0.000430047
-0.00073455
-0.000154827
0.000873818
0.000299299
0.000319896
-7.4023e-06
-6.40919e-05
6.89475e-05
-5.88679e-05
-0.000560397
-0.000114469
-0.000659509
0.000772928
0.00108149
-0.000105913
-0.000129799
0.000289684
-0.000890104
0.000140785
-0.000315518
-0.000804429
-0.000837055
0.000541165
0.000294565
0.000790732
0.000290821
0.00110092
-0.000451277
-0.000669567
-3.02348e-05
7.3174e-07
-0.00108492
0.000831371
0.000250076
6.40887e-05
-0.00020206
0.000137973
5.57685e-05
0.000474516
-0.000199538
-0.000853776
-0.000127952
-0.000253341
-0.000102526
-0.000152438
0.000133351
-0.00026609
0.000131478
0.000275944
-0.000143889
0.000993213
-0.000589237
-0.000410104
0.000176733
-0.000427026
0.00022891
-0.000113107
-7.5532e-05
0.000128877
0.000342536
0.000704742
0.000452917
-0.000258493
0.000144978
-0.000344232
0.00016971
0.000388524
-0.00055882
0.000119297
0.000126356
-0.000138023
0.000244169
-0.000106148
-5.98379e-05
5.05245e-05
-0.000722507
-0.000150064
-0.00028759
0.000161901
-2.09961e-05
-0.000140905
0.000799147
-0.000513543
-0.00013059
0.000311397
-0.000274148
-0.000814413
-0.00037154
-0.000466671
-3.36998e-05
-7.82953e-06
2.78015e-05
0.000219689
0.000203298
0.000258369
9.83721e-05
-0.000370289
0.000703126
-0.000387845
0.00036128
0.000625908
-0.000281586
-0.000670928
0.000938081
2.23245e-06
0.000636934
-0.000381761
6.68172e-05
-5.76626e-05
-0.000218812
0.000417004
-0.000735414
0.000964815
-0.000230697
-0.000196466
0.000207321
-1.0855e-05
-0.00072748
0.00109034
-0.000366415
-0.000232528
0.000713203
-0.00101018
0.000294058
-0.000622686
0.000524149
-0.00027716
0.000897473
-0.000622582
0.000238316
-0.000498277
0.000299771
0.000650932
0.000233377
-0.000155688
3.41243e-05
-2.09987e-05
0.000225582
0.000395486
2.19906e-05
-5.19049e-06
0.000232997
0.000224368
-0.000457446
0.000655499
-0.000218545
-0.000436902
-0.000242003
-0.000247226
0.000489143
0.000996394
-0.000285485
-0.00014905
-0.000477618
0.000709203
0.0010172
0.000108188
-0.00043147
0.000248933
0.000425409
0.000655925
3.37386e-06
-0.000628232
1.31255e-06
5.524e-06
-9.27696e-06
-0.000243209
0.000560569
-0.000317451
-0.000698229
0.000105591
0.000591893
-0.000656147
0.0003621
0.000293716
-0.000116295
0.000189686
-7.33903e-05
0.000387243
-0.000775328
-5.47009e-05
0.00018814
-0.000134769
-0.000140108
-0.000558337
0.00021851
7.30269e-05
-4.27243e-06
-5.42738e-07
0.000384753
0.000323841
-0.000709606
-0.0005276
1.86388e-05
-0.000339708
0.000230231
6.00298e-05
-0.000304293
-0.000332422
0.000938284
-0.000613539
0.000229973
0.000466035
-4.56388e-05
0.00109857
-0.000455544
-0.000645402
0.000237532
0.000329972
-0.000567494
1.21197e-05
-3.77576e-05
8.54274e-05
-0.000736656
8.85804e-05
0.000103133
-0.000191713
-0.00100293
0.000168525
8.57654e-06
4.80281e-06
-0.000314118
-0.000385836
-0.000217459
0.000373527
-0.000776392
-0.000419801
0.000284559
0.000119356
0.000984194
-0.000824595
-0.000161058
-0.000987113
0.00076084
0.000220792
1.27508e-05
-0.000373526
0.000753089
0.000311562
-0.000120635
-0.000554465
-0.000469235
0.000317401
0.00027847
-0.000596385
-0.000251798
0.000101287
-0.000989753
6.69372e-05
0.00091931
-5.94995e-05
0.000213697
-0.000155338
-1.58577e-05
-1.03373e-05
0.000217897
-0.000890878
0.00065955
1.24666e-05
-4.79592e-05
1.12773e-05
-0.00104434
0.000321187
0.000721539
-0.000848936
0.00097688
-0.000135205
-0.000753821
-0.000289725
0.000859918
-0.000266949
-4.83287e-05
1.4864e-06
0.000314361
-0.000176853
-0.000137507
-0.000172324
5.6028e-05
0.000900463
-0.000676858
-0.000246289
4.45475e-05
-0.00103799
0.000538753
-0.000818007
0.000666185
-0.000629577
0.000102824
-0.000249958
-0.000532193
0.000607109
0.000426701
-0.00036869
-0.00109254
0.000620898
-0.000250204
0.000502499
-0.000252467
0.000675011
-0.000979661
0.000291963
-6.79862e-05
0.000169018
-0.000101032
-2.7482e-05
9.41393e-06
1.55727e-05
0.000155709
2.55772e-06
-0.000421423
-0.000345327
0.000766217
-5.72672e-05
4.17685e-05
-0.000989476
0.00103034
-8.48125e-05
0.000269106
-0.000184297
0.000236288
-0.000629093
0.000256583
8.66261e-05
-0.000343304
4.34138e-05
-0.000146939
-0.000626184
-0.000337189
0.000962452
-5.93006e-05
0.000113592
-0.000361128
0.000113638
0.000225868
-0.000172955
0.000506831
-0.000355936
-0.000243967
-0.000698932
0.00092768
7.69472e-05
8.49534e-05
-0.000255534
-0.00023499
0.000490354
0.000171766
-0.000367866
0.000196055
0.000137692
0.000156137
-0.000293848
0.000971346
-1.15468e-05
-1.85081e-06
-0.000266283
0.000355207
-8.89478e-05
0.000214301
0.000440689
-0.000812658
0.00049213
-0.000680377
0.000301148
0.000201136
0.000462793
0.000680491
0.000319962
9.83599e-05
0.000147972
-0.000135528
0.000122994
-4.81898e-05
0.000118992
-0.000186978
0.000253837
-0.000190716
-0.000129439
-0.000764439
-0.000786224
-0.000204967
0.000256655
0.000712868
0.000141917
-0.000197987
-0.000853189
0.0010515
-0.000533252
-0.000205833
-0.000244875
0.000510999
-0.000266217
0.000185772
-0.00100501
0.000291031
-0.000535976
-0.000206612
0.000308743
-0.000102138
-1.18174e-05
-1.82985e-05
0.000202872
0.000235761
-0.000179507
7.31731e-05
0.000106334
0.000283508
-0.000881677
-0.000661674
0.000742068
-0.000111573
0.000546812
0.000219602
-0.00067566
0.000808844
-0.000149727
0.000473063
-0.00024052
-0.000735157
0.000975207
-0.000241681
0.000855221
-0.000315287
-0.000330214
0.000567741
0.0001321
3.30839e-05
-0.000189101
0.000201874
-0.000113294
-0.000203749
9.84872e-05
0.000105261
0.000274917
0.000719937
-0.000996842
0.000700037
-0.000486186
-0.000302048
-4.50057e-06
-3.07309e-06
7.31189e-06
-0.000378104
-1.56953e-05
2.24608e-05
-6.79292e-06
6.7232e-05
-0.000333532
0.000158877
-0.00079501
0.000268334
0.000136428
-0.000404826
0.000289296
-7.84076e-06
-0.000281477
4.56775e-05
-3.60811e-05
0.000763259
0.000236479
-0.00100134
-0.00100086
0.000297363
0.000702202
0.000161339
0.000325405
-0.000182782
-0.000236688
0.000419387
0.000147638
-7.0691e-05
0.000270075
-0.000144933
-0.000125148
-0.000638529
-0.000956918
0.000660818
0.000377921
0.000367871
-0.000745809
-0.000202808
-0.000192664
0.000368764
-0.000176137
0.000512829
-0.000343594
0.000341573
-0.00100173
-9.1685e-06
-0.000664827
0.000734528
-9.68577e-05
0.000267695
8.84006e-06
3.48621e-05
-0.000617192
0.000896786
2.38963e-05
-1.87748e-05
-0.000382861
0.000263178
9.04264e-05
1.46936e-05
-0.000221311
-0.0002238
0.000570906
0.000420982
3.60523e-05
-2.90298e-05
0.000254401
0.000220106
-0.0004506
0.000691721
0.000185748
-0.000474325
0.000267736
4.95842e-05
1.11091e-05
-7.17639e-05
-0.000204295
0.000119473
8.31732e-05
-0.000147835
0.000211925
-0.000454423
0.000680367
-0.000719889
-0.000294864
0.000104146
0.000344372
-0.000970997
-0.000677127
0.000328788
0.000347653
-0.000111395
-6.81127e-05
-8.11967e-05
-0.000128068
-0.000747089
-0.000197083
-0.000629717
0.000304081
-5.89274e-06
1.24241e-06
-0.000182228
-0.000462279
0.000823536
-0.000362334
-0.000310026
0.000153459
0.000156557
0.000671075
0.000319075
0.000430319
-0.000162053
0.000276927
-0.000658021
0.000379808
0.00053749
-0.000212256
-0.000341837
-0.000334455
-0.000508938
0.000841971
0.000740477
-0.000251118
-0.000495965
0.000334674
-7.81492e-05
0.000245178
0.000212008
-0.000457321
0.000616429
0.000213482
0.00067054
-0.00106432
0.00028785
-7.22176e-05
-0.000742529
0.000139631
0.000601757
0.000161527
-0.0004036
0.00032234
0.000737767
0.000994515
-0.000586954
-0.00071931
0.000603909
0.00103817
-0.000317382
-0.000730915
0.000262719
-0.00025288
0.00048579
0.00036129
5.6311e-05
-0.000287643
0.00085514
-0.000568929
-0.000343025
0.000150327
0.000199004
0.000321952
0.000980546
-0.000399053
-0.000582915
0.000439954
-0.000246894
-4.79718e-05
0.00110911
-0.000296917
-1.09865e-05
4.35646e-05
-5.08457e-05
0.000243469
-0.000101761
0.000848582
2.9777e-05
-0.000881708
-0.000185038
8.25106e-05
0.000153134
5.78053e-05
-0.000210941
0.000260276
-0.00014618
-0.000114097
-0.000741319
0.000427075
0.000330932
-8.55991e-05
0.000100019
-1.08681e-05
-1.43656e-06
-0.000421395
1.56725e-05
0.000378068
1.9962e-05
-1.28372e-05
-0.000340009
-7.0979e-05
-7.98297e-07
4.83015e-06
-4.1487e-06
-0.00106498
0.000334116
0.000703947
0.000278467
6.85353e-06
2.75353e-05
-0.000304752
0.00048869
-0.000183984
-0.000709324
-0.000405379
0.000100588
0.000680371
-0.000200938
-0.00049662
1.18075e-05
-4.94218e-06
-8.43877e-06
-1.27431e-05
2.18774e-05
-1.43124e-05
0.000541245
-0.000359534
0.000381706
-0.000210866
-0.000170857
0.000505364
-4.13939e-05
-0.000464154
-0.000707758
-1.13707e-05
1.74711e-07
2.64476e-05
-4.60939e-05
-0.000138772
9.23256e-05
2.18281e-05
0.000793444
-0.000184026
-0.000619778
0.000265956
7.50179e-05
-0.00034099
-0.000272116
-0.000227213
0.000499322
0.000686139
0.000341559
3.10721e-05
-2.5941e-05
-0.000935355
0.000676532
-0.000109821
0.000886805
-0.000341209
-0.0002569
0.000597988
7.73989e-05
-0.000170151
9.27519e-05
-0.000765163
0.000202453
8.56614e-05
-0.00028812
0.000645719
-0.000984181
0.000339266
0.000636385
-0.000207974
0.000379688
1.64521e-05
-0.000295903
-0.000455979
0.000484495
0.0010098
-0.000696775
0.000722325
-1.4328e-05
0.000519484
0.00026415
0.000232406
0.000668014
0.00104018
-6.36567e-06
5.21234e-06
0.000606189
-0.000554293
0.000115472
7.42132e-05
0.000590756
-0.000174967
-0.000425773
0.000157192
-0.000896799
0.000735253
-0.00067654
0.00101624
-0.000119788
-0.000262313
0.000332718
-0.00107736
8.73731e-05
-0.000200783
0.00040321
-0.00020242
0.00048819
-0.000243156
-0.000173281
0.000387205
-0.000263612
-3.55915e-06
1.80431e-05
0.000195645
0.000466728
0.000167289
0.000147072
1.30009e-05
0.000276275
-0.000240674
-0.000736554
0.000204535
-5.14019e-05
0.000443259
-0.000148221
-0.000307834
-0.000118369
2.75282e-05
3.1674e-05
1.96056e-05
-0.00063753
0.000981679
0.000173231
-0.000291976
0.000118736
0.000185255
-0.000901733
0.000713502
-0.000314669
0.000990082
-0.000683102
-0.000212781
0.000152112
0.000903593
-0.000671713
-0.000234375
1.09861e-05
-2.80778e-05
-9.63782e-05
0.000219733
-0.000123355
-0.000948939
-1.67589e-05
-0.000107138
-8.18659e-05
0.000189003
-4.02553e-05
0.00103892
-0.000363858
0.000172791
-8.96309e-05
-8.316e-05
0.000152099
3.68698e-06
-0.000155786
0.000335476
2.09779e-05
0.000471409
0.000261894
0.00012146
0.00011371
-0.000235173
-0.000946922
6.25873e-05
0.000169758
-0.000596326
0.000295243
0.000300903
-0.000290249
-0.000366204
-0.000935208
0.000294567
0.000638108
0.000139265
-0.000179155
0.000635201
-0.000461507
-0.000171492
-0.000476251
0.000642022
0.000305305
-0.000144623
-6.832e-05
3.90012e-05
-2.03338e-05
-0.000190919
-0.000800346
0.000476779
-0.000293057
-0.000202706
0.000106328
-0.000381959
0.000812605
-0.000431614
0.000283172
-0.000370118
0.00093808
-0.000151077
-6.38079e-05
0.00034076
-6.01886e-05
5.46205e-05
-0.000132118
4.45032e-05
-0.000775886
1.13442e-05
6.49455e-06
-0.000875386
0.000581537
0.000276067
-4.18753e-05
0.000169872
-0.00016793
-0.000184032
-6.56557e-06
-0.000232801
-3.76845e-05
4.60705e-05
-1.07855e-05
-0.000999574
0.00025524
0.000742429
-0.000287159
-0.00068363
8.95046e-05
8.32861e-05
-5.86034e-06
5.99584e-06
-3.37352e-06
0.000259322
0.000517926
-0.000784004
0.000381255
-0.00034005
-4.12927e-05
-0.00059371
0.000252377
-0.000490237
7.3819e-05
0.000415527
0.000149812
-0.000127142
-4.68539e-05
0.00112835
-0.00013551
0.000351906
-0.000149461
-0.000851072
0.000125875
-0.000267062
0.000141184
2.41736e-06
0.000603139
-0.000146344
-0.000288295
-0.000209492
-0.00035639
0.000563096
0.000134373
-7.85192e-05
0.000819455
0.000306654
0.000854664
-0.000208185
-0.000648893
-3.04553e-05
2.39151e-05
0.000559654
-0.000297608
0.000620369
-0.000323026
-0.000749309
4.28185e-05
0.000705666
0.000776205
7.56417e-05
0.000340369
-0.000552538
3.93598e-05
-0.000228082
-0.000495898
0.000748201
-0.000371478
0.000386058
-0.000231859
-0.000425641
0.000656707
0.000492229
-0.000245658
-0.000313184
0.000718289
0.000308842
0.000241862
-0.000332516
1.51176e-05
0.000317331
0.000233409
0.000976051
-0.000794011
8.47317e-05
-0.000394266
0.000309519
0.000312834
-0.000175163
0.000791898
-0.00109491
-0.000162683
0.000249348
-8.66676e-05
0.000286609
0.000692863
-0.000161814
-0.000184687
0.000346488
-0.000419311
0.000218539
0.000263123
-0.000162649
-0.000100477
8.51114e-05
-0.000405551
0.000319139
-0.000446549
0.00077553
-0.000329809
0.000314397
-0.000682653
0.00102163
0.000226482
-0.000110914
9.94349e-05
-0.00026201
0.000794384
-0.000544575
-1.61605e-05
-1.86626e-05
2.23813e-05
-0.000530704
0.000239531
-1.85661e-05
4.28637e-08
1.83383e-05
4.53426e-05
1.25157e-05
-6.02315e-05
8.84017e-05
8.08647e-05
-0.000169266
0.000311989
0.000118484
-0.000798425
-0.000157986
0.000938747
-9.95734e-05
-0.000124952
0.00019569
-7.07377e-05
-0.000258402
-6.39242e-06
-8.63001e-05
-0.000356953
-0.00045201
0.000538006
3.29546e-05
0.000119144
-5.09627e-06
0.000271039
0.000198289
0.000170431
-0.000978154
0.000745577
0.000227048
0.000136965
0.000156713
0.000452722
-0.000291475
0.000176338
0.00020535
0.000516
-0.000296076
-0.000289824
0.000588735
-0.000780006
0.000967748
-0.000306013
-0.00082594
0.000129814
-0.0004881
0.000209668
0.000278237
8.00008e-05
-0.000100997
0.000585956
-0.000863828
0.000676999
-0.00010597
0.000212298
-0.000329906
0.000168081
-0.000102754
-0.000100995
-0.000707519
0.000887641
-0.000198371
0.000317144
-0.000663611
0.000345777
-0.000267128
0.000432001
-0.000797919
-0.000706507
0.000859531
5.38343e-05
0.000320417
-0.000374282
-3.66722e-05
-4.4927e-05
-0.000145453
0.000196884
-5.14321e-05
-8.56698e-06
5.15725e-05
-3.14716e-05
0.000412628
0.000565003
0.000102124
-0.000687382
0.000389966
-0.000577606
0.000187479
-0.000164791
-0.0003534
0.000669814
-0.000158165
0.000631418
-0.000217246
-0.000414498
-0.000730228
-9.56307e-05
-4.35324e-05
-2.62947e-05
-0.00046305
-0.000735651
0.000320684
-0.000929558
0.000607873
-0.000281567
0.000959097
-0.000681522
-0.000149569
2.46167e-05
0.000167042
4.48861e-05
6.69064e-05
0.000359095
-0.000407828
0.00103449
-0.000636542
-1.7898e-05
-0.000165823
-0.000127863
0.000186828
-9.73239e-05
-0.000324633
0.000408473
0.00108556
-0.000505669
-0.000956126
0.000346261
0.000596913
-0.000187395
8.02559e-05
-0.000145354
3.53992e-05
0.000909703
1.9611e-05
-0.000191863
9.1975e-05
9.98873e-05
-0.000494558
-0.000225053
0.000701131
0.000958648
-0.000619792
-0.000342214
-0.000244457
0.000269457
-0.00072121
0.000192621
-0.000433307
0.000240694
0.00068987
0.000305242
-0.00100636
-7.10639e-05
-2.118e-05
0.000785418
-0.000422814
-0.000362513
-0.000196625
0.00011835
0.000199993
-0.000436758
0.000214824
0.000637415
0.000216268
-0.000927481
0.000704382
0.000420135
-0.000353876
-0.000100186
-0.000116545
0.00021673
-0.00041133
7.87337e-05
7.87632e-06
-4.81168e-05
-0.000668957
0.000221611
-0.000124527
-0.000263865
0.000365976
-3.79708e-05
-7.61656e-05
-0.00029705
1.86793e-05
2.50094e-05
-1.05574e-05
0.000246121
0.000277977
-0.000524172
-0.000624951
0.00062609
9.18415e-05
-0.000906236
-0.00074661
-0.000344958
0.000804964
-5.02995e-05
-0.000140675
0.000190974
0.00016432
-0.000249136
0.000798981
-0.000415355
0.000330068
-0.00024535
0.000672745
-0.000128584
-0.000419948
0.000742771
0.000828205
-0.000494252
0.000261956
-0.000409178
-0.00110492
0.000306478
0.000785929
-0.000841832
0.000916989
-7.42455e-05
0.00018191
-0.000107665
-0.000801522
0.000104977
-0.000522118
0.000507583
0.000179327
-0.000904419
0.000686713
-2.31586e-05
-0.000150292
3.61051e-05
0.000114187
-0.000115734
4.58122e-05
0.000733599
-0.000355712
-0.000564724
-0.000185276
-0.000256994
1.29559e-05
0.000244023
0.000207978
-0.000590816
0.000324116
-0.000697795
0.000372881
-0.000143922
-0.000590293
0.000728637
-0.000218311
0.000956148
-0.000402184
-0.0010181
0.000227392
0.000789964
8.42319e-05
9.03092e-05
-0.000174541
-0.00055703
-0.000104164
0.000660667
4.3647e-05
0.000255586
0.000843528
0.000276117
0.000354888
0.000298603
-0.000201645
8.63756e-05
4.29296e-05
-0.000366647
0.000427782
-6.11179e-05
-0.000461131
0.000638921
-0.000712727
0.0003453
-0.000200318
-0.000253623
8.12826e-05
0.000168838
-8.85628e-05
-0.000321666
-0.000185059
-0.000504824
-0.000248966
-0.000467563
8.86795e-05
-0.00058193
-2.07517e-05
9.7278e-06
1.06382e-05
0.000281326
0.000719724
0.000174753
0.000130539
0.000469488
-0.000712424
-0.000303183
0.000298071
0.00010809
-0.000208276
0.000405893
-0.000787374
0.000380833
0.000204857
0.00019836
0.000282931
5.84178e-05
-3.55518e-05
-0.000238246
1.70793e-05
0.000154368
-0.000847296
0.00023827
-0.000296793
-0.000172615
0.000469317
-0.000916958
0.000617555
0.000293226
-0.000464679
-0.000101792
0.000554538
-0.000964694
0.000642723
1.75074e-05
-6.83264e-06
9.89876e-05
0.000242274
-0.000514392
-0.000649827
0.00014119
-0.000271785
0.000339268
-0.000132754
-0.000206529
-9.51907e-05
-0.000593128
0.000883401
-0.000643556
-0.000240322
0.000633432
-0.000357548
0.000675929
-0.000458365
0.000126825
0.000331547
-0.000756364
-0.000245581
0.000999335
0.00028639
0.000393176
-0.000680167
0.000212664
-0.000309975
0.000200016
7.97098e-05
-0.000419313
0.000687694
8.88423e-05
-0.000213146
0.000124304
-0.000192017
0.000210193
-3.35894e-05
0.00032653
-0.000231763
0.000551248
0.000260085
0.000672563
0.000228621
-7.66462e-06
-1.35025e-05
-0.000282617
-0.000155317
0.000425264
3.98549e-05
-0.000401379
0.000361488
-0.000664435
0.000949959
-0.000265509
0.000171596
0.000408706
-0.000608258
0.000812634
-0.000228226
0.000730227
0.000287073
0.000560183
-0.000976997
0.000303557
6.1926e-05
0.000357324
0.000607088
-0.000906396
0.000299052
-0.000360969
0.000171282
0.00018966
-0.000482986
-0.000129808
0.000612587
1.69214e-05
-4.42465e-05
-0.00094016
0.00020246
0.000720982
-0.000374568
0.000861688
-0.000487933
0.00103639
-0.000973048
-0.000339577
0.00078127
-0.000443739
-0.000206512
-4.39671e-05
-0.000513495
-0.000292261
-0.000630628
-0.000708495
0.000917834
-0.000561385
0.000267409
0.000293999
-0.000553731
7.79475e-05
9.97434e-05
0.000107577
0.000111544
0.000153878
-0.000265435
0.00093272
-2.28015e-05
0.000192965
0.000128348
-0.000321346
-8.80316e-05
-8.27188e-05
3.09786e-05
-0.000155701
0.000121148
0.00108294
-0.000723757
-0.000368962
-0.000240243
0.000324229
-8.45339e-05