/*--------------------------------*- C++ -*----------------------------------*\
| =========                 |                                                 |
| \\      /  F ield         | OpenFOAM: The Open Source CFD Toolbox           |
|  \\    /   O peration     | Version:  v2012                                 |
|   \\  /    A nd           | Website:  www.openfoam.com                      |
|    \\/     M anipulation  |                                                 |
\*---------------------------------------------------------------------------*/
FoamFile
{
    version     2.0;
    format      ascii;
    class       volVectorField;
    location    "250";
    object      ddtCorrDdt0(U);
}
// * * * * * * * * * * * * * * * * * * * * * * * * * * * * * * * * * * * * * //

dimensions      [0 1 -2 0 0 0 0];


internalField   nonuniform List<vector> 
13917
(
(-0.00464362 -0.00544194 1.00979e-17)
(-0.00443392 0.0150259 2.52112e-19)
(-0.00291672 -0.0116716 -5.67461e-18)
(0.000700698 -0.00013579 -8.4799e-19)
(0.00460291 0.00926499 -1.75297e-19)
(-0.00622178 0.0133634 -9.51155e-19)
(0.00119779 -0.000106301 6.26421e-18)
(0.0248791 0.0340521 -1.97722e-18)
(0.00106361 -0.000715788 -7.00996e-18)
(-0.0109226 0.0273084 5.14116e-18)
(0.021465 0.0316259 -4.16739e-18)
(0.000588941 2.33235e-05 1.3326e-18)
(0.000126166 -1.07323e-06 4.6705e-19)
(0.10302 0.0412923 -1.58259e-18)
(-0.00388728 0.000724882 -3.94148e-19)
(-0.00444953 -0.00425579 -1.45237e-17)
(2.54623e-05 -1.4446e-05 -1.7648e-19)
(0.0211986 0.0225369 -1.26068e-18)
(0.00617478 -0.00726439 -3.02924e-18)
(-0.02303 -0.0073676 1.03002e-17)
(0.00562424 -0.00202223 -4.02419e-20)
(9.35501e-06 0.000817984 1.12396e-20)
(0.00314384 0.000118167 1.98459e-18)
(-3.07211e-05 0.000852414 2.15125e-20)
(0.000951121 -0.000174727 -1.95625e-18)
(0.0078796 -0.000954104 -2.1772e-19)
(-0.137262 -0.0448374 -4.33436e-20)
(-0.00559081 0.0166765 -1.25403e-17)
(0.0155127 0.00644616 -9.39202e-19)
(-0.000195864 0.000764122 -7.92136e-21)
(-0.0115635 0.0160497 6.4822e-18)
(0.00237745 -0.00222109 -9.07762e-18)
(0.000764522 -8.53926e-05 -2.50063e-18)
(-0.00130568 -0.00668361 4.99834e-18)
(-0.00133085 0.000231987 -8.23656e-20)
(0.0257342 0.041197 9.90211e-19)
(0.00149173 0.00100974 9.61247e-19)
(-0.000123382 9.33241e-06 2.76631e-19)
(0.00122791 -0.00012276 -6.25076e-18)
(-0.000878138 -0.00450943 -4.89479e-19)
(8.38408e-05 6.95585e-07 -8.01258e-20)
(-0.00110585 -0.00074075 -1.11799e-19)
(0.000867201 -0.000617659 -1.44456e-17)
(0.00241737 -0.00604195 5.54615e-19)
(0.00293915 -0.00596796 3.73526e-18)
(0.0324514 0.0338729 -8.97372e-19)
(0.0048951 -0.00161105 -1.25099e-18)
(-0.0915539 -0.136215 3.21006e-17)
(0.0769005 0.117269 -1.72711e-18)
(-0.00124636 0.000356095 -4.88729e-20)
(0.000567918 3.08988e-05 -3.81264e-18)
(0.0171762 0.0120016 9.01381e-19)
(0.00533079 -0.00197831 4.06e-18)
(0.00039816 0.000505955 -1.23876e-19)
(0.000479631 0.000469083 -6.54646e-19)
(0.0175446 0.010104 -5.17846e-18)
(-0.00402422 0.00561717 -1.49031e-18)
(0.00312779 0.000251226 -6.14967e-18)
(-0.000876136 -0.000915032 1.8279e-19)
(0.0308907 0.0383632 -1.40661e-19)
(0.0907364 -0.00866704 -3.92739e-18)
(-0.0168054 0.0067928 -2.5276e-20)
(-7.76245e-05 1.20855e-05 3.27099e-20)
(0.000931212 -0.000157944 -8.16841e-18)
(-0.0101419 -0.0234932 -5.74303e-18)
(0.0202593 0.0116806 -3.23324e-20)
(0.0175277 0.0105317 -8.29523e-20)
(0.0214226 0.0455627 -1.91413e-18)
(0.0243749 0.0249339 5.00295e-18)
(0.00343261 -0.00298419 -9.85913e-18)
(-0.00667145 -0.0220908 1.31766e-17)
(-0.000640138 -0.00614885 -7.92328e-18)
(0.000447134 -0.000146417 1.817e-18)
(-0.000653719 -0.000786196 -3.95981e-19)
(0.00560456 -0.00282954 -8.67729e-19)
(0.00119156 -0.000136038 1.36722e-18)
(0.00197963 0.00307067 -1.35911e-19)
(-0.000480669 -0.000868951 3.8209e-19)
(0.00115425 -0.000105706 1.75603e-18)
(0.000783122 -8.62626e-05 2.08065e-18)
(0.000142408 0.00069944 4.14863e-19)
(-5.39414e-05 -1.49984e-05 -1.08125e-19)
(0.000431325 -0.00014737 -2.77225e-19)
(-0.00281029 -0.0117899 -9.94905e-18)
(0.00010787 8.29821e-05 1.86437e-18)
(0.0534167 0.0033592 -5.07593e-19)
(0.0024621 -0.00209079 5.50174e-18)
(9.93547e-05 3.63236e-05 -6.99438e-19)
(-0.000201338 -0.00449507 7.61779e-19)
(4.35831e-05 -1.84616e-05 2.16351e-19)
(0.000127974 -3.69651e-05 -2.03795e-19)
(0.000884184 -0.000641345 1.86462e-17)
(0.0580684 0.141284 4.16237e-18)
(-0.000895018 -0.000443171 4.94938e-20)
(0.000513562 0.000766882 -3.06111e-19)
(0.0179528 0.0071747 3.87438e-19)
(-0.0817743 -0.142993 -1.36603e-18)
(-0.00022846 -1.11502e-05 7.8736e-20)
(0.000104655 4.13925e-05 1.12884e-18)
(-0.0230531 -0.0508634 -1.59828e-19)
(6.84173e-05 7.37497e-06 -7.29669e-21)
(7.43351e-05 1.05876e-05 1.07154e-19)
(0.000144482 0.000741344 1.44831e-19)
(-0.000300559 -1.46749e-05 1.32472e-20)
(0.00154339 0.00330934 7.35813e-19)
(0.00227613 0.00273198 -3.49128e-18)
(-0.0195934 -0.0432362 1.10312e-17)
(-0.0206062 0.0027452 -1.04696e-19)
(-0.00144873 -0.000879074 -2.89997e-19)
(-0.140347 -0.0299562 3.22828e-19)
(0.000164967 -1.93342e-05 1.82057e-19)
(-0.00228464 -0.00770611 -5.9372e-18)
(0.0155085 0.00366661 7.17558e-19)
(-0.0619559 -0.129196 -2.18692e-17)
(-0.00968701 -0.0226934 4.75259e-18)
(0.0013888 -0.000128819 3.83618e-18)
(0.00596486 -0.00652139 -7.50155e-19)
(0.000214901 -1.04828e-05 -6.67236e-20)
(-2.53197e-05 -0.0111842 1.0107e-17)
(0.000344677 -0.000186459 8.88986e-18)
(-6.49488e-05 -2.00274e-05 -1.88612e-19)
(-0.000304575 -0.000551921 1.52407e-19)
(0.0201782 0.0118029 2.83491e-18)
(0.0107528 -0.00115598 1.57913e-17)
(0.00448383 -0.00177495 6.38249e-19)
(-0.00337931 -0.0115978 1.29964e-17)
(0.000892109 -0.000147473 4.62478e-18)
(0.00631036 -0.00346633 1.19377e-18)
(-0.00058021 0.000125546 3.7531e-20)
(0.0105492 -0.00177763 -1.78865e-17)
(0.00173288 -0.000703316 1.07898e-17)
(-0.0286287 0.0482349 1.55678e-18)
(-0.0022838 0.00175085 -1.6155e-17)
(0.00143366 -6.6556e-05 -6.99797e-20)
(0.00225041 -0.00305346 -1.08842e-17)
(-0.152859 -0.059751 7.17822e-20)
(0.0938252 0.00844989 -6.64999e-19)
(0.000106186 -0.00085239 4.52594e-18)
(0.00969811 -0.000176346 1.05759e-19)
(-7.2921e-05 5.90498e-06 -4.4566e-19)
(0.0600346 0.0414551 -4.62427e-19)
(-0.000369074 -0.000748292 -3.8377e-19)
(0.00183899 0.00311823 3.54297e-18)
(-7.96508e-05 0.000397157 -6.18122e-19)
(0.000420235 -0.000106616 -4.0079e-18)
(-0.00323508 -0.00414848 -7.92832e-21)
(-0.00610264 -0.0206396 -4.82184e-18)
(-0.027348 -0.256055 -2.16135e-18)
(-0.090585 -0.0949961 2.55286e-17)
(0.000428766 0.000508599 1.34875e-18)
(0.00060117 -0.0036975 3.5873e-19)
(4.43058e-05 1.62361e-05 -1.23906e-19)
(0.00040322 -0.000104377 1.98869e-18)
(0.000335913 -0.000204586 -1.5588e-19)
(-0.121658 -0.15239 -1.52143e-18)
(-0.000976804 0.00186939 1.0644e-19)
(-0.000297437 -1.90567e-05 -1.91376e-20)
(-0.00291193 0.00248951 -1.08122e-18)
(0.000156269 -6.65551e-07 -7.66367e-20)
(0.000199352 -9.20919e-06 -4.50761e-20)
(6.04691e-05 0.000203885 -1.46668e-18)
(0.00526841 -0.0504598 -2.12351e-17)
(0.00150459 0.00273167 1.86138e-20)
(0.0552525 0.0506848 4.63255e-19)
(0.0709872 -0.0607878 -1.39271e-18)
(-0.031708 -0.0739939 -1.12888e-20)
(0.00346224 -0.00210719 -2.48639e-18)
(0.0764237 -0.0869465 2.7903e-17)
(-0.000173951 8.14967e-05 -1.08042e-20)
(0.0110961 -0.000396997 -4.3193e-20)
(-3.83757e-05 0.00102126 1.01912e-20)
(-0.00226889 -0.00122015 -3.37461e-18)
(0.00103502 -0.000750877 1.86751e-18)
(0.0828335 -0.0017157 -2.38285e-18)
(0.00136457 0.010193 -6.34307e-19)
(0.000128981 1.02606e-05 6.19859e-20)
(0.000694168 -0.000141372 9.93487e-19)
(0.019529 0.0158403 1.09267e-17)
(0.00168246 -0.000697733 -1.1222e-17)
(0.00165087 0.00314191 -7.1931e-20)
(0.000878616 -0.000543677 2.24109e-18)
(-9.13583e-05 0.000975598 -3.40495e-20)
(0.000570234 5.5248e-05 3.23963e-19)
(0.0300721 -0.001367 -3.25184e-19)
(0.000365064 -0.0121674 -1.09625e-17)
(-0.0366435 0.0490358 3.32699e-18)
(0.000551881 6.60843e-05 -4.88907e-19)
(0.0314902 0.00100247 -5.18571e-19)
(-9.25185e-05 0.000710976 -9.99304e-20)
(0.0483 0.00403061 -5.00229e-19)
(0.000146282 0.0106993 5.18767e-20)
(0.00310984 -0.00531894 1.19705e-18)
(0.0214371 -0.00140326 4.405e-18)
(-0.00738352 -0.00643597 1.49533e-17)
(-0.000942634 -0.000340256 1.92376e-19)
(0.00460936 -0.00178739 -9.5207e-18)
(0.000850312 -0.000346746 1.1144e-19)
(-0.00193011 0.00186105 9.44323e-18)
(-0.00126628 0.000104598 -2.24305e-20)
(-0.000826698 0.0016346 2.54637e-19)
(0.00382331 -0.00109222 1.61986e-18)
(0.00267521 -0.0033028 1.30541e-17)
(0.000813432 -0.00120531 3.3477e-18)
(0.000934674 0.00135902 1.59816e-19)
(-0.100189 0.016879 -2.6799e-18)
(0.00653907 0.0073358 2.52114e-19)
(8.23207e-05 -0.00376907 -6.42257e-19)
(-0.00041173 -0.000591126 4.21611e-19)
(0.019238 0.0128968 -1.3095e-17)
(0.000124069 0.000659721 -3.2293e-19)
(-0.000479273 8.0676e-05 1.09012e-20)
(0.00710186 0.0171257 -1.8137e-18)
(0.00981323 0.0182136 1.01555e-18)
(-0.0946602 -0.114674 -2.10249e-17)
(0.00225824 -0.00284665 1.15059e-17)
(0.00891631 -0.00139147 -8.68057e-20)
(-0.0104521 -0.0349457 -6.49349e-18)
(-8.17505e-05 2.44952e-05 2.20114e-19)
(0.000291308 -0.000276701 6.41342e-19)
(0.000304268 -0.000253758 -2.49301e-20)
(0.0463524 -0.124965 -1.23475e-17)
(0.0257314 -0.000793612 -3.38307e-18)
(0.0376708 0.00371141 4.82675e-18)
(0.000197025 -1.08279e-05 6.59512e-19)
(-7.02736e-05 7.52394e-06 -3.4138e-20)
(-0.144137 -0.0481029 -4.21644e-19)
(0.00501278 -0.00189081 1.93704e-18)
(0.000235831 -0.000238456 -6.30375e-21)
(0.000228659 -0.000225483 -6.2262e-20)
(7.89625e-05 -2.06947e-06 5.01922e-20)
(0.000333447 -0.000261849 6.3971e-20)
(0.000345257 -0.000239441 1.90189e-19)
(-0.000737329 -0.00599217 3.43913e-18)
(-0.0457214 -0.112211 3.77922e-18)
(0.000170823 0.000571595 -1.28526e-18)
(-0.000215691 0.000156928 -1.62351e-21)
(0.00765893 0.00602915 3.12719e-18)
(0.00200309 -0.00402213 4.55659e-19)
(0.000143007 -5.37946e-06 1.60043e-19)
(0.000191712 -1.17122e-05 1.34932e-19)
(-0.114048 0.00844339 2.24815e-18)
(0.00210846 0.00436749 -3.83194e-18)
(0.02771 -0.00137064 5.01933e-18)
(-0.0109793 -0.0328583 -7.14971e-18)
(0.00364201 0.0193368 -9.48745e-19)
(-6.54991e-05 0.000393235 4.86808e-19)
(0.0877724 -0.0741811 1.815e-18)
(0.00863821 0.00564014 6.91957e-19)
(0.0135694 0.00341072 -5.0577e-19)
(0.00526929 -0.00255586 -1.0751e-17)
(0.000901458 0.00122289 -8.59631e-19)
(-0.0733206 -0.112528 1.14128e-17)
(0.000370529 -0.000170845 -1.11098e-18)
(-0.00222937 0.000944998 -1.05698e-18)
(0.000886607 0.00833916 -7.06216e-19)
(0.000207171 0.00058493 -4.73004e-20)
(4.31759e-05 6.15694e-08 1.574e-19)
(0.000910685 -0.000159241 3.01045e-18)
(-0.00369023 0.00857224 1.55716e-18)
(-0.00108427 -0.00122543 2.47974e-19)
(0.00330482 -0.0015948 -7.55874e-18)
(0.147603 0.0516659 2.78345e-18)
(-0.000189447 -0.000268783 2.30655e-19)
(0.000204797 -0.000228425 2.69846e-20)
(-0.000859949 0.00208851 -3.41552e-19)
(0.000192103 -0.000245375 2.26293e-19)
(0.000361326 -0.000188371 -8.92795e-19)
(0.000183079 -1.97061e-06 1.58042e-18)
(0.00144686 0.00123312 -3.34697e-18)
(-0.000226144 -0.000199117 -8.05081e-22)
(-0.0024887 -0.000232531 8.3596e-19)
(-0.0168325 -0.0469549 -1.886e-17)
(0.000427015 0.000144982 -1.66666e-19)
(-0.00124213 0.00569508 1.93959e-19)
(0.0359405 0.050066 9.25209e-19)
(0.000431659 -0.000126921 -1.8855e-19)
(-0.0132252 -0.0381546 5.76415e-20)
(0.0025334 -0.00129781 -4.37608e-18)
(0.000426205 -0.000131743 2.16277e-19)
(0.00317045 -0.00328258 -1.3306e-18)
(-0.000879751 -0.00115132 -2.63001e-19)
(0.00782799 -0.0495261 1.06434e-17)
(0.000107039 7.03679e-06 -1.59997e-19)
(-0.00231394 3.57162e-05 -1.63427e-19)
(0.000227181 0.000580357 1.01756e-21)
(-0.000178469 0.000442285 -3.50825e-19)
(0.0126757 -0.0107134 -1.78411e-17)
(-0.000243038 5.65702e-06 -1.45948e-19)
(-0.0442914 -0.0880811 -4.39788e-19)
(0.000607032 -0.000804537 5.67075e-19)
(0.137307 0.0695072 -2.60087e-19)
(-0.00460916 -0.00436276 2.07839e-19)
(-0.0902879 0.0114836 -3.06717e-20)
(-0.00162947 -0.000775429 7.98701e-19)
(0.000177072 -1.05474e-05 4.79703e-19)
(0.00398818 0.00168931 5.98212e-18)
(-0.000529366 0.00943157 -4.07784e-19)
(0.00159425 -3.82344e-05 1.64163e-18)
(0.00287261 0.00907642 -1.9592e-19)
(0.00110449 -0.000136421 -3.42416e-19)
(-0.000902383 -0.000678581 -4.64479e-20)
(-0.000275288 7.59996e-06 1.71271e-20)
(0.0169388 0.0206753 3.76336e-18)
(0.0346658 -0.0179347 -9.73263e-20)
(-0.00198224 0.0007308 -1.0298e-18)
(0.00107162 -0.000116578 -2.45548e-19)
(0.000191477 -9.42223e-06 -7.25906e-19)
(-0.0025787 0.00240844 -1.51468e-18)
(0.00223943 -0.00319326 -1.35792e-17)
(-0.000576887 0.000122731 2.57738e-20)
(0.00444384 0.000109443 8.98804e-20)
(0.00153595 -0.000122181 5.62967e-19)
(0.0434273 0.0475209 -2.11762e-19)
(-0.00114335 -0.00314686 -6.41119e-18)
(-0.015487 -0.0340316 5.39766e-18)
(0.0769364 -0.00258996 3.97806e-18)
(0.0139591 0.0180713 3.02052e-20)
(-0.0249856 0.0402392 -4.57239e-18)
(-0.00188828 0.00504472 -1.41297e-19)
(-0.00328419 -0.013159 6.62371e-18)
(0.0520483 0.0454351 -7.7434e-20)
(-0.00321213 -0.010759 -3.31874e-18)
(0.00017193 -6.04395e-07 1.38842e-18)
(-0.00345044 0.000167281 3.27413e-19)
(-0.123211 -0.0236881 6.1818e-19)
(-0.000137187 0.00139622 9.76614e-20)
(-0.00459015 0.0172933 8.97618e-19)
(0.00358251 -0.00517178 3.80414e-18)
(7.90759e-05 -1.05224e-05 -1.22727e-19)
(-0.00243231 -0.00168065 -2.83067e-18)
(0.000102141 6.50828e-05 -6.58256e-19)
(0.0018277 -0.00125629 -7.20505e-18)
(0.00058822 0.000151526 -3.60535e-19)
(-0.027091 -0.00498571 -1.77957e-19)
(-0.00032016 6.76475e-05 3.784e-20)
(-0.00126912 0.000681553 2.11632e-18)
(0.00762131 0.0070632 3.09869e-20)
(0.00904984 0.0171387 5.73313e-20)
(9.60037e-05 -1.66242e-05 4.83065e-20)
(0.00457165 -0.00286797 2.56256e-18)
(0.00115384 3.10945e-05 -6.7119e-18)
(0.000551566 0.000672758 4.12019e-19)
(-0.000271571 0.00147997 1.93949e-19)
(-0.00305786 -0.00846238 4.08582e-18)
(0.00170851 0.00142662 -8.54744e-19)
(0.0365175 -0.0231925 -5.6856e-18)
(0.103467 0.0522376 1.26623e-18)
(0.000402635 -0.000126033 -2.5356e-19)
(0.000171684 0.000582234 9.95894e-20)
(0.0019838 0.00529817 5.90893e-18)
(-0.0190163 0.0403762 2.42213e-19)
(0.000397967 -0.000129474 1.86177e-19)
(0.00108908 0.0104435 9.39757e-19)
(0.00053212 0.000253174 1.72593e-18)
(0.0105726 -0.0126984 -1.28374e-19)
(-0.00147833 0.000906815 -1.73326e-18)
(0.0161729 0.000532141 -5.4253e-18)
(-0.0114586 0.0193455 1.12638e-19)
(-0.00823163 -0.0385142 4.08517e-19)
(0.00191974 -0.00112726 5.98544e-18)
(-0.00541775 -0.00915703 -5.15932e-18)
(-0.000594557 0.0001301 -3.68957e-20)
(0.000585941 0.000637085 -1.03472e-18)
(0.0059327 0.0103874 1.22208e-18)
(0.00804457 -0.0149321 -2.74123e-17)
(0.000113768 -5.7372e-06 -2.29505e-19)
(-0.00697516 -0.00514543 -1.08032e-17)
(0.00189284 -0.0011394 -4.78485e-18)
(-0.0119562 0.0816232 -9.8433e-19)
(0.000491312 0.000499204 -5.78038e-20)
(-0.0151155 0.0316892 9.05444e-19)
(0.00392337 -0.000707434 1.68423e-19)
(0.00919631 0.137454 -1.41739e-18)
(-0.000388875 -0.00177757 -2.22738e-19)
(0.0358769 0.000133498 -7.1977e-18)
(0.0381559 0.043554 6.05473e-19)
(0.00922239 0.00780931 -1.39257e-21)
(0.000440515 0.000155972 3.61455e-19)
(0.0030734 -0.028231 -4.15328e-18)
(0.000590717 0.000232714 -4.3008e-19)
(0.0784027 -0.0556317 5.00845e-18)
(0.0234327 -0.00238719 4.44916e-18)
(-8.27258e-05 -0.00196585 2.31814e-20)
(0.0328062 0.128213 -1.21384e-18)
(0.00041912 0.000561153 5.74393e-21)
(-0.0250663 -0.0105766 -5.6853e-20)
(-0.000390194 -0.00035057 -2.35258e-20)
(-0.0244569 -0.0118365 -1.54308e-17)
(-0.0266944 -0.0165896 5.5553e-20)
(0.00135619 0.000550948 3.68836e-18)
(-0.117111 -0.00227903 5.7108e-19)
(-0.00213467 -0.0305048 -1.03164e-18)
(0.00075281 0.00109371 6.26577e-19)
(0.0436734 -0.0471931 -7.62165e-19)
(-0.00292154 0.00254582 -5.89641e-19)
(0.00118541 0.000391444 4.74958e-20)
(0.0140706 -0.010986 1.43676e-17)
(0.000190822 0.000585395 -1.25408e-18)
(0.00219518 -0.0338215 5.455e-19)
(-0.00179766 -0.0118089 -8.11724e-18)
(0.000104886 5.53101e-05 6.30496e-19)
(0.00121553 -0.000346901 -2.70164e-18)
(0.00103804 -0.000137278 1.93307e-18)
(-0.000134562 0.000392065 3.15757e-19)
(-0.000162461 0.00017647 -3.6717e-19)
(-0.000621768 0.000155282 -5.95881e-20)
(0.0978165 0.00729032 1.54803e-19)
(-0.0422119 -0.0610724 -1.65436e-19)
(0.000537805 0.000558912 1.3385e-18)
(-0.000616603 9.96024e-05 3.14484e-20)
(-8.63702e-05 0.000757887 1.38702e-19)
(0.00295624 0.00309231 4.19765e-18)
(0.00319983 0.0665084 2.40025e-18)
(0.000525611 -2.45393e-05 -2.30998e-19)
(-0.000162348 7.30079e-05 2.04141e-20)
(-0.000857767 -0.00331794 9.1974e-18)
(-0.0187312 0.0283751 -2.14822e-18)
(-0.000165422 0.000458965 5.58886e-19)
(0.00128041 0.000526364 -2.44629e-18)
(0.0612944 0.00985324 -1.16695e-18)
(-0.129665 -0.187958 -8.15557e-18)
(0.0237148 0.0140344 7.30839e-20)
(0.00559759 -0.00786791 -2.77858e-19)
(-0.00361129 -0.0133953 -1.18124e-18)
(0.000590296 -0.000276556 -6.33115e-20)
(0.000494284 -6.36588e-05 -5.63194e-19)
(0.005082 0.000153841 -7.22221e-20)
(-0.000161634 0.000164173 5.89861e-21)
(0.00052496 -5.28754e-05 5.38951e-19)
(0.000183619 0.00057053 2.30135e-19)
(0.000493235 -8.66323e-05 4.52267e-19)
(0.00056454 -0.000265603 -3.14087e-20)
(0.059465 -0.108764 -1.55662e-17)
(0.00020358 0.000605342 4.85537e-19)
(-0.00243819 -0.00386151 -3.10866e-19)
(-0.00248458 2.16414e-05 6.44647e-18)
(0.00375261 0.00188802 -3.94845e-18)
(-0.000487937 8.95508e-05 -7.8866e-21)
(0.000397331 -9.23961e-05 -3.62651e-18)
(0.0364383 -0.0497359 -5.53105e-18)
(0.00424748 -0.000764599 2.93055e-19)
(0.00464399 -0.00175621 -3.62752e-18)
(0.000575341 8.781e-05 2.42751e-19)
(0.000258833 -7.55634e-06 1.10506e-19)
(0.000603527 0.000234637 5.05879e-19)
(0.000376775 -0.000238673 2.99741e-19)
(0.00136041 0.00104967 -1.33426e-18)
(0.000590674 0.00062945 -1.2099e-19)
(0.0618933 0.0190718 1.03006e-18)
(0.00551529 -0.00545139 2.29461e-19)
(0.00241949 0.0038898 -2.12667e-18)
(0.000261692 -4.04938e-06 5.45274e-19)
(0.0020421 -0.000350023 -2.00283e-18)
(0.00462461 -0.00791765 1.22097e-19)
(0.000140212 0.000630058 -4.89535e-19)
(0.00519614 0.0174162 -1.11641e-20)
(0.0401464 -0.0188176 9.30108e-18)
(0.000515767 0.000232172 2.78802e-20)
(-0.177577 -0.204615 5.75673e-19)
(-0.000487781 0.000109108 -3.95227e-20)
(-0.000178001 4.5071e-05 5.14875e-19)
(-0.000133047 0.000746308 -7.86567e-20)
(0.00036611 0.000499207 3.81799e-20)
(-0.000460506 6.61988e-05 1.83752e-21)
(3.49846e-05 2.68135e-05 -5.94761e-19)
(-0.00254157 0.00199248 7.07065e-18)
(0.0871951 -0.00958214 3.92941e-18)
(-0.000450927 5.99067e-05 -5.85324e-21)
(-0.0829051 0.0281363 4.71069e-18)
(-0.000577926 -0.0040681 1.6389e-17)
(0.000180296 -3.91509e-06 4.21336e-19)
(0.00460975 0.00245811 4.26551e-18)
(0.00153524 -0.00126269 8.03115e-19)
(0.0428538 -0.0615069 8.85296e-18)
(0.00130243 -0.000410338 1.21794e-17)
(0.00233459 0.00192416 1.63893e-18)
(-0.0315544 0.0413878 5.28734e-20)
(-0.0289832 0.0406439 9.51447e-20)
(0.000531911 0.000521543 -7.5636e-20)
(0.0158908 0.0133091 -4.35128e-21)
(0.00444107 -0.0101917 -2.16202e-20)
(0.000778314 0.00120392 4.42886e-19)
(0.029157 -0.0181887 -8.7756e-19)
(0.00011344 -3.76628e-05 2.03581e-20)
(0.000392861 0.000471656 -2.55521e-18)
(0.000559589 0.000732483 7.93778e-19)
(0.0011575 -0.000500238 -3.53543e-18)
(0.00361593 -0.00292106 7.66484e-19)
(0.00222454 -0.0115019 -2.98078e-18)
(0.00356041 -0.000870359 2.56801e-18)
(-0.00448351 0.000476461 -2.98469e-20)
(-0.00135827 0.00682403 1.35363e-19)
(0.0227649 0.0174636 -6.56189e-19)
(-0.00818513 -0.00379777 1.79236e-19)
(0.000516943 0.000572307 9.98797e-19)
(0.0912411 0.0311821 1.80182e-20)
(0.00194668 0.000751172 4.20884e-18)
(0.000575612 -0.000677261 -5.12522e-18)
(0.0803118 -0.0414309 3.9071e-18)
(0.000111467 7.45162e-05 -1.17942e-18)
(-0.00953973 -0.00381085 -7.65006e-19)
(0.0228369 0.017029 -4.8492e-18)
(-0.000257905 9.58098e-05 2.64811e-19)
(-0.00368782 0.00238488 -8.88658e-18)
(-0.00017432 5.09885e-05 6.57308e-19)
(0.000384909 -0.000216412 1.46695e-19)
(0.00335899 0.00311796 -4.54587e-18)
(0.000581494 5.01556e-05 -2.20996e-19)
(-0.000101175 2.89469e-05 -2.46542e-19)
(0.0139331 0.0214496 -6.99737e-19)
(-0.00468277 0.00382624 5.53789e-19)
(-0.0905816 -0.00550301 6.57193e-19)
(6.60357e-05 0.000193262 1.39982e-18)
(0.000705599 -0.000226674 -3.48427e-18)
(-0.00164998 0.00256101 4.44287e-19)
(0.043284 -0.0020811 7.09909e-18)
(0.0358406 0.0821732 3.57845e-18)
(0.000461658 0.000558683 -9.71041e-19)
(0.000451286 0.00047177 -1.04886e-18)
(5.41034e-05 0.000168449 -7.19744e-20)
(0.00141664 0.00644604 2.28578e-19)
(0.0169553 0.145553 -9.92373e-19)
(-0.000577846 0.000130089 -5.52418e-20)
(0.000136916 -7.51358e-06 6.89062e-20)
(-0.000903749 0.001468 -2.98043e-19)
(-0.000121801 0.000363307 8.40306e-19)
(0.00659018 -0.00137138 -9.56929e-21)
(0.000743033 7.83817e-05 7.40807e-19)
(0.000121699 -2.72307e-05 1.34998e-19)
(0.00376074 -0.000777946 -4.66406e-18)
(-0.000254972 8.56189e-05 -1.38191e-19)
(-3.85631e-06 0.000702414 2.40962e-19)
(0.00100639 -0.000125992 -1.92837e-18)
(-0.0131687 -0.022541 -3.10525e-18)
(-6.77412e-05 -9.42528e-05 -1.13613e-19)
(0.000915576 -0.000288938 -4.60147e-18)
(-0.0012602 -0.00104459 -1.18125e-19)
(0.00196158 -0.000338352 -1.20685e-17)
(0.00658594 0.0020044 -4.53659e-19)
(0.0192625 -0.00773591 5.14741e-20)
(0.0016407 0.00906968 1.32188e-18)
(-0.0349707 -0.0521755 -1.39451e-19)
(0.00101061 -2.30377e-05 -9.24602e-19)
(0.0193524 0.0158379 -2.46515e-18)
(-0.00134263 0.00146789 -1.12933e-17)
(0.0423265 -0.11542 -9.01838e-18)
(-0.00327798 0.000536825 -5.49782e-18)
(-0.000611864 0.000121058 1.40685e-19)
(-0.00022717 0.000765051 -6.77326e-21)
(-0.00577985 0.000852082 4.9233e-19)
(0.000358959 3.12786e-05 -9.82813e-19)
(-0.00946275 -0.0197979 8.21252e-18)
(0.000457491 -0.000128962 8.88898e-20)
(0.0702962 0.0625994 3.1777e-18)
(0.000846267 -0.000297215 8.47381e-19)
(-0.00108681 -0.00313252 4.61358e-18)
(-0.0201277 -0.0429631 -9.45917e-20)
(0.000890172 -0.000578 1.20556e-17)
(-0.0246412 0.00112671 4.48137e-18)
(-0.000459855 5.59336e-05 -4.62531e-21)
(0.00175473 -0.00149962 1.16584e-17)
(-0.000241411 -1.65319e-05 4.39185e-20)
(0.00133549 -0.00265382 3.41538e-19)
(-0.00216329 -0.0029284 -5.42816e-20)
(0.000553427 2.6713e-05 2.67761e-20)
(-0.00513304 -0.00562184 -3.13759e-17)
(-2.93928e-05 9.4258e-06 -1.71405e-20)
(0.000179548 -4.57294e-06 -1.8429e-18)
(-0.000188682 0.000791062 -5.33786e-20)
(0.00211052 -0.0108618 -8.93651e-18)
(0.00756035 -0.000167367 -7.66898e-21)
(0.000129979 -0.000214629 4.41336e-19)
(0.0015715 -0.00555212 5.2649e-18)
(0.00418636 0.00267373 1.87832e-18)
(0.0237947 -0.0307553 -1.6855e-18)
(-0.00529593 -0.0203626 8.71386e-18)
(-0.00275772 0.00313644 -2.05939e-18)
(0.0505152 -0.0657702 -7.16675e-18)
(-7.72077e-05 -8.68677e-05 1.27823e-19)
(0.0048314 -0.00231451 1.96152e-17)
(-2.17021e-05 3.41163e-05 -4.77624e-20)
(0.090314 0.00225268 -1.35012e-18)
(-0.0269463 -0.250446 -9.29711e-18)
(0.00225115 -0.00315924 -2.89189e-19)
(0.00309838 -0.00227545 5.75905e-19)
(6.53138e-05 1.08009e-05 -7.35264e-20)
(0.0018138 0.000716314 -9.84696e-18)
(0.000845436 -0.000539321 -4.76138e-18)
(0.000555784 -7.57958e-06 3.34685e-19)
(-0.000254845 -1.44112e-05 -1.36699e-19)
(0.000180874 8.61902e-06 2.58367e-19)
(-0.00426491 -0.0203644 -1.25513e-17)
(0.000118369 0.000233535 7.92203e-20)
(0.00235628 -0.00183972 -2.58267e-18)
(0.00036681 0.00047076 3.93019e-18)
(0.00013654 -0.000196847 -1.69342e-19)
(0.000178646 -1.29376e-06 -1.34658e-19)
(0.0291667 0.0300366 2.20046e-18)
(0.00800035 -0.0391309 -1.5171e-17)
(-0.0391588 -0.00495105 8.49914e-18)
(0.00507864 -0.00219826 -1.58174e-18)
(0.000809366 9.4246e-05 3.51004e-18)
(0.023097 -0.0246869 -1.00003e-17)
(0.00204294 -0.00388538 7.22897e-18)
(-0.000395483 -0.000386222 -8.23302e-20)
(0.0296413 -0.0192165 3.12824e-18)
(0.000217492 1.15308e-05 1.72095e-18)
(0.000607516 -0.000896329 4.36717e-18)
(0.000360076 4.74964e-05 5.39354e-18)
(0.00328722 -0.0262988 1.38918e-18)
(-0.000133862 0.000352472 -9.01806e-19)
(0.00655776 -0.00332961 5.98587e-20)
(0.000427213 -0.00011845 9.26277e-19)
(0.0154402 -0.0523706 2.3285e-18)
(0.00171769 0.0010727 4.67136e-18)
(-0.0108795 -0.0276189 -1.07915e-17)
(4.48558e-05 -3.76884e-05 -2.77885e-19)
(0.00138082 0.00105614 -2.20261e-18)
(-0.000753101 0.000415096 -2.13956e-19)
(4.35113e-05 5.38031e-06 -3.47804e-20)
(-0.00647267 -0.0107747 1.80582e-18)
(-0.00425869 -0.0781035 -1.97441e-19)
(-0.000927159 0.000665949 -1.50333e-19)
(0.0177731 -0.000114891 7.41917e-18)
(0.00019386 -8.73774e-06 4.98271e-19)
(0.00135147 -0.00116661 -2.55007e-19)
(2.88496e-05 1.0027e-05 8.25206e-20)
(-0.00654417 -0.0118637 9.60724e-18)
(0.000125816 0.000224502 3.28944e-19)
(-0.00256572 0.00997367 -1.78051e-18)
(0.000460579 -0.000120123 2.07277e-19)
(-0.000896676 0.000542946 -5.44345e-19)
(0.00942298 -0.0145202 8.2369e-18)
(5.13515e-05 1.22982e-05 6.87573e-20)
(0.0142268 -0.00281771 7.90475e-18)
(-0.00010724 -1.29454e-05 -3.77813e-20)
(-0.000300942 8.39435e-05 -1.03587e-19)
(0.0923396 -0.00529432 2.8777e-18)
(0.00230261 -0.00191636 -2.36319e-18)
(0.000430119 0.000548661 7.11449e-19)
(-7.16856e-05 -0.00152618 -6.05965e-18)
(-0.0047441 -0.0052157 2.53161e-17)
(-0.0258044 0.05768 -1.4008e-19)
(0.0228988 0.0199172 -2.023e-20)
(-0.000450468 5.05276e-05 9.83968e-21)
(-0.00487174 0.000624071 -2.57156e-19)
(-0.0143639 -0.0208373 1.97334e-18)
(-0.00524787 -0.000285624 -1.56325e-17)
(0.00445564 0.000223338 1.04288e-19)
(0.00151946 0.000855093 2.15389e-18)
(0.00728824 -0.00432582 -6.0992e-19)
(-0.00012272 -1.65598e-05 3.30322e-20)
(-0.000628645 0.000320414 -7.95181e-20)
(0.0179915 0.0207367 -1.73608e-19)
(0.00771475 0.0026777 -1.01038e-18)
(0.00103837 -0.000407448 -1.56766e-18)
(0.0914165 -0.0413144 -1.13925e-18)
(0.00191319 0.00107016 -6.51445e-18)
(0.00535286 0.0788367 5.53239e-18)
(0.0486749 0.0788179 5.68899e-19)
(0.0276436 -0.0254399 -1.12502e-20)
(-0.000300136 0.00100006 -9.41709e-19)
(0.0197151 -0.00281265 -5.06641e-18)
(0.00256584 -0.00368949 2.78788e-18)
(-0.00097785 -0.000559338 -1.51146e-19)
(-0.00190843 -0.0187786 8.29945e-19)
(0.0167915 0.0260836 -9.07087e-20)
(-0.000290889 9.27468e-05 2.1432e-19)
(-6.10389e-05 -3.02406e-05 8.00864e-20)
(0.000181405 1.09945e-06 1.16145e-19)
(-0.0022682 0.00347525 -1.4444e-19)
(-3.54983e-05 2.29322e-05 -1.74335e-19)
(0.00475832 -0.0023988 -3.25196e-18)
(0.00169273 -0.0010214 -7.65075e-18)
(-0.000318038 8.5582e-07 6.54269e-21)
(0.00367094 -0.00463103 -6.23583e-19)
(3.7632e-05 -4.23272e-05 -8.63952e-20)
(-0.013527 -0.0353492 4.74009e-18)
(-0.000687661 -0.00124506 -5.55566e-20)
(-0.000578586 0.000121909 -1.70114e-19)
(-0.0049533 0.00347224 1.41808e-18)
(0.00580473 0.00129436 -4.53138e-18)
(-0.0286893 0.126452 -1.88397e-18)
(0.000504869 -0.000123461 1.83754e-18)
(0.000904637 9.7976e-05 -1.69946e-19)
(-0.000627973 0.000168344 -3.63975e-20)
(0.000623001 -0.000191058 -1.86652e-18)
(0.00134067 -3.29268e-06 4.12825e-18)
(-0.000275689 0.000476609 5.93867e-19)
(0.00300809 -0.00130684 8.8788e-18)
(0.000178557 -0.000966923 1.07515e-18)
(0.0479408 0.042969 2.78161e-19)
(-0.0354641 0.106712 4.763e-19)
(0.000552477 -0.0183021 -4.60184e-19)
(-0.00275731 0.00334074 2.04515e-17)
(0.000715327 -0.000214311 -8.62035e-19)
(-0.000296952 -8.81545e-06 1.92642e-20)
(-0.000761786 0.000498978 1.64335e-20)
(0.00216804 -0.00139896 5.67879e-18)
(-0.0938717 0.0140524 -8.30339e-21)
(0.000813582 -0.000377656 1.39708e-18)
(0.00423432 -0.0016363 5.48645e-18)
(0.00679208 0.237222 -3.63115e-18)
(-0.00032377 7.91598e-05 -4.0381e-20)
(-0.000578825 0.000125927 -1.89054e-21)
(0.00130763 0.00122169 -4.67524e-20)
(0.00192885 0.000700269 7.20294e-18)
(-0.0170571 0.100831 1.12696e-20)
(0.00162829 0.00126509 3.9435e-18)
(0.000615321 -0.000177668 -3.9442e-18)
(0.000922922 -0.000269707 -1.96534e-18)
(0.000676792 -0.00079782 -7.38599e-18)
(-0.00151398 0.00425172 5.43293e-19)
(0.0150231 -0.000675833 4.02939e-20)
(0.00173894 -0.000991688 1.39394e-18)
(0.000467781 0.000743468 -1.96975e-19)
(0.000798538 -8.02871e-05 -2.6288e-20)
(-0.000294696 -6.80353e-06 -2.30625e-21)
(0.00129945 2.43943e-06 6.47999e-19)
(-0.00290337 0.00698957 -1.10789e-18)
(-0.00356754 0.00283614 -5.32761e-19)
(0.00179782 3.01339e-05 1.07771e-18)
(0.00441313 0.00256362 2.37033e-19)
(0.00368785 -0.00141515 7.80061e-18)
(0.00202215 0.00159424 5.33395e-20)
(0.0415854 0.163324 -5.2649e-19)
(0.00140665 0.000757308 -1.0694e-18)
(-0.00218266 0.00929967 -3.06219e-19)
(0.000874605 -0.000166804 1.31259e-19)
(-0.00483231 -0.000577769 1.52739e-17)
(-4.23455e-05 -2.05114e-05 -3.03906e-19)
(0.00182008 -0.00145294 7.93137e-18)
(0.00672006 -0.0374339 1.40491e-18)
(0.00834216 0.0752865 3.62175e-19)
(0.000369229 7.2073e-06 2.44483e-18)
(0.00172025 -8.12053e-05 -3.21677e-18)
(-2.73118e-05 1.45118e-05 -3.80808e-19)
(0.000292155 4.48486e-05 9.02909e-19)
(0.000402954 -0.000129669 2.20079e-18)
(0.00674094 -0.0071731 -1.03254e-18)
(0.00665507 -0.00686803 -7.20049e-20)
(0.0251134 0.0298934 3.01695e-18)
(0.0151537 -0.00211758 1.71899e-18)
(-0.000448141 3.82891e-05 -4.45902e-21)
(-0.00462221 0.00285591 3.92974e-18)
(0.00106764 -0.000672813 7.3993e-18)
(0.00117646 -0.000467461 6.25293e-18)
(0.0180257 -0.00186529 -6.36766e-18)
(0.000174886 0.000567254 -2.4839e-19)
(0.00178807 -0.00152102 -6.86569e-18)
(-0.0746832 -0.119765 2.299e-18)
(4.42489e-05 -0.00016735 -7.35608e-20)
(0.00565714 0.000923712 1.23386e-17)
(-0.00103998 0.0152495 -1.3387e-18)
(0.00174315 -0.00092948 7.0379e-18)
(-0.000510833 0.00022855 2.28528e-21)
(-0.000459707 7.88812e-05 3.31898e-21)
(-0.000626763 0.000280609 -6.70537e-20)
(0.00301865 -0.00295964 2.12413e-18)
(0.000756586 -7.05375e-05 1.2372e-18)
(-0.00038641 -0.00155806 1.36158e-19)
(0.00183557 -0.00120442 -7.94724e-18)
(-0.000264664 0.00049846 -6.13636e-19)
(-0.000514309 0.000100798 1.88178e-20)
(0.0162239 0.00946351 7.78898e-18)
(-0.0369585 -0.10616 -2.25921e-19)
(0.0170339 -0.00715027 1.83973e-18)
(-0.162018 -0.203832 4.14375e-18)
(0.00964922 -0.0107425 -1.09804e-18)
(0.00168451 0.00607522 -2.21057e-18)
(0.000395656 -0.000145659 1.2605e-18)
(0.00250158 0.00326679 -1.67725e-18)
(0.0149482 -0.0244299 5.01268e-19)
(0.00292326 -0.00241714 -5.03073e-20)
(-0.0285264 0.0125706 7.26421e-19)
(8.07648e-05 -1.6972e-05 8.86159e-20)
(-8.22732e-05 -2.98989e-05 4.73193e-20)
(0.000513025 -9.84709e-05 -2.15811e-18)
(0.00205574 0.000140974 1.23897e-18)