/*--------------------------------*- C++ -*----------------------------------*\
| =========                 |                                                 |
| \\      /  F ield         | OpenFOAM: The Open Source CFD Toolbox           |
|  \\    /   O peration     | Version:  v2012                                 |
|   \\  /    A nd           | Website:  www.openfoam.com                      |
|    \\/     M anipulation  |                                                 |
\*---------------------------------------------------------------------------*/
FoamFile
{
    version     2.0;
    format      ascii;
    class       volVectorField;
    location    "250";
    object      U_0;
}
// * * * * * * * * * * * * * * * * * * * * * * * * * * * * * * * * * * * * * //

dimensions      [0 1 -1 0 0 0 0];


internalField   nonuniform List<vector> 
13917
(
(0.477214 0.00774779 -2.49007e-20)
(0.987189 0.0195464 -3.00644e-21)
(1.09433 0.0855474 -1.21169e-20)
(1.03596 0.0186669 0)
(0.993998 0.00979811 0)
(0.989094 0.016992 2.3803e-21)
(1.05179 0.0373846 -1.03508e-20)
(0.95246 0.0605474 1.32859e-22)
(1.06608 0.0256186 -1.68817e-20)
(0.0278403 -0.0955912 -6.88463e-21)
(0.958009 0.0570079 -4.15944e-21)
(1.02482 0.0157416 0)
(1.00932 0.000160354 4.23122e-21)
(0.936974 0.205503 -2.88377e-22)
(1.00611 0.014494 0)
(0.453754 0.00454197 3.50946e-20)
(1.003 -5.21572e-06 0)
(0.971989 0.0581239 -2.79927e-21)
(1.07886 0.089868 7.30116e-21)
(0.466231 -0.00445443 0)
(1.01738 0.0452749 0)
(1.00819 0.0076005 0)
(1.06079 0.0627047 0)
(1.00806 0.00721793 0)
(1.03197 0.0276367 -9.79422e-21)
(1.01346 0.0472434 0)
(0.894639 -0.0689689 -3.71913e-22)
(0.0155105 -0.0614301 0)
(0.997727 0.0546873 -1.16739e-21)
(1.00897 -0.00323366 0)
(0.0269164 -0.0655125 0)
(1.08105 0.0694924 -1.98074e-22)
(1.03049 0.0209594 -1.43869e-21)
(0.53504 0.0242724 0)
(1.01311 -0.00388094 -2.53316e-22)
(0.940869 0.0599243 -1.34234e-21)
(1.01667 0.0275758 4.26809e-21)
(1.00121 9.17244e-05 -5.85714e-22)
(1.05306 0.0375986 0)
(1.02721 0.0474583 0)
(1.00093 -3.28758e-05 -6.60707e-22)
(1.01987 -0.00122233 0)
(1.06018 0.0200513 -1.94172e-20)
(1.08364 0.0825579 8.45102e-21)
(1.0825 0.0829562 -7.39139e-21)
(0.990194 0.131459 0)
(1.01776 0.0437742 -1.03605e-21)
(0.41723 0.00411521 1.9071e-20)
(0.718275 -0.000966595 -2.67632e-21)
(1.01277 -0.00370098 -9.59131e-23)
(1.0243 0.0152907 3.39743e-21)
(1.02918 0.104907 0)
(0.353949 0.0029374 -5.73444e-22)
(1.01572 0.014301 0)
(1.01707 0.0155925 0)
(1.03353 0.105298 0)
(-0.0278292 -0.0230393 6.85801e-21)
(1.05934 0.0623185 -1.02816e-20)
(1.01957 -0.00083533 3.12874e-22)
(0.982453 0.128269 -4.51454e-22)
(0.486126 0.220159 -1.13024e-20)
(1.01248 -0.0270633 0)
(1.00277 -0.000124978 7.90488e-23)
(1.03188 0.0268541 1.74731e-21)
(0.884309 0.0768072 4.88254e-20)
(1.00128 0.0196318 0)
(0.990853 0.0563621 0)
(0.937313 0.0514539 1.43104e-21)
(0.966969 0.0625652 3.51125e-21)
(0.428283 0.00893787 -3.86288e-20)
(1.01025 0.0858327 0)
(0.514827 0.0205588 0)
(1.03373 0.00877461 -4.52735e-21)
(1.01879 -0.000622152 -9.39605e-22)
(1.01847 0.0464026 0)
(1.02701 0.0295855 5.27622e-21)
(1.00299 0.00940796 -1.93117e-21)
(1.01841 -0.000332284 5.95822e-22)
(1.02708 0.0288219 0)
(1.03078 0.0215063 1.95406e-21)
(1.01145 0.0147407 -1.4102e-21)
(1.00309 -7.60564e-06 0)
(1.03331 0.00818672 -2.08927e-21)
(0.998436 0.0756274 0)
(1.0122 0.00253866 3.26079e-21)
(0.994786 0.11276 0)
(1.08038 0.0685503 -1.19793e-20)
(1.01168 0.00131207 0)
(1.02676 0.0471092 0)
(1.00369 1.78636e-05 0)
(1.00566 0.000140705 9.2089e-22)
(1.06161 0.0204092 4.32346e-20)
(0.693216 -0.0218029 2.13883e-21)
(1.01357 -0.0028789 0)
(1.01531 0.0183428 0)
(0.995591 0.0579279 0)
(1.08548 0.0267261 -3.90115e-21)
(1.00289 -4.07777e-05 -7.66347e-27)
(1.01214 0.00146507 -1.73219e-21)
(1.05688 0.0330036 -3.8535e-22)
(1.00164 -1.74709e-05 4.18028e-24)
(1.00195 -3.65207e-05 0)
(1.01161 0.0153151 5.23244e-22)
(1.00509 1.80246e-05 2.39001e-23)
(1.00281 0.00833233 1.01355e-21)
(0.970427 0.0765798 -2.77488e-20)
(0.607658 0.0180472 -6.49741e-21)
(1.01758 -0.0305651 1.39074e-21)
(1.02067 -0.00161444 7.08533e-22)
(0.805261 -0.0881726 3.9459e-22)
(1.01937 0.00035209 5.94828e-21)
(0.550991 0.0269195 0)
(1.00185 0.0557344 1.26242e-21)
(0.344622 -0.0271049 -5.69114e-20)
(0.89887 0.0773953 -3.3014e-20)
(1.02503 0.0309491 4.48298e-21)
(1.07778 0.088341 -1.90025e-20)
(1.00424 0.000172162 -2.13287e-22)
(1.09235 0.0876379 -1.64394e-20)
(1.03239 0.00449755 1.28284e-20)
(1.00386 1.01208e-06 -4.32414e-22)
(1.01675 -0.000331416 -2.82878e-22)
(0.988169 0.0599768 2.53642e-21)
(1.05919 0.0927696 2.64574e-20)
(0.385757 0.00808262 1.5709e-20)
(0.958926 0.0757466 0)
(1.03256 0.0257425 0)
(1.01839 0.0478945 0)
(1.00918 -0.000307278 1.97136e-22)
(1.06156 0.0934571 -2.18219e-20)
(1.07108 0.0440188 1.37228e-20)
(0.965592 0.0483132 -3.93696e-21)
(0.655436 0.0554859 0)
(1.02423 0.0308146 -3.71376e-21)
(1.08221 0.0739845 1.48491e-20)
(0.783401 -0.092896 -8.61993e-24)
(0.455971 0.216921 -3.73606e-21)
(0.332554 0.0102476 -1.61486e-20)
(1.01085 0.0492539 0)
(1.00041 5.51528e-05 1.75649e-23)
(0.94319 0.198454 0)
(1.01769 -0.000250701 0)
(0.986785 0.0767435 3.3969e-20)
(1.00911 0.00557628 -1.3002e-21)
(1.03116 0.00847438 -1.08199e-21)
(1.02722 -0.00382537 0)
(1.01397 0.0859906 1.55478e-20)
(0.87821 0.0459813 1.09078e-20)
(0.420297 -0.0148468 0)
(1.01605 0.0149107 0)
(1.02635 0.0459565 2.66091e-21)
(1.00218 -5.7247e-05 -9.50677e-23)
(1.03078 0.00781347 0)
(1.03277 0.0040989 1.21821e-22)
(1.0272 0.00980623 -7.394e-21)
(1.00625 0.00296204 8.78957e-22)
(1.00549 -3.824e-05 -3.55203e-23)
(0.612501 0.0530648 -2.31895e-20)
(1.00219 3.71492e-05 3.62458e-22)
(1.00366 6.60514e-05 3.99694e-22)
(1.011 0.00486723 -2.70935e-21)
(0.827039 0.111239 7.52554e-22)
(1.00989 0.02784 0)
(0.928771 0.200395 0)
(0.65817 0.167234 7.5949e-20)
(1.07379 0.0234567 0)
(0.239137 0.00317564 0)
(0.52754 0.203114 5.38219e-20)
(1.00557 -0.000846889 0)
(1.01014 0.0514363 0)
(1.00764 0.00689492 2.02153e-23)
(0.678716 0.0534787 -1.88092e-20)
(1.06651 0.0244894 -6.60139e-21)
(0.580486 0.208314 -8.71155e-21)
(1.02615 0.0725799 0)
(1.00212 2.332e-05 -3.4838e-22)
(1.03671 0.0183098 0)
(1.02267 0.110184 -9.43155e-22)
(1.07076 0.0427245 0)
(1.00892 0.0284662 0)
(1.05811 0.0209838 9.18105e-21)
(1.00782 0.00678555 3.66864e-24)
(1.02372 0.0154759 -7.70511e-21)
(1.05247 0.131597 7.11094e-21)
(1.09285 0.0889137 2.24842e-20)
(0.963773 0.0388838 5.95656e-21)
(1.02323 0.0150633 6.76467e-21)
(1.04779 0.133588 -1.26035e-20)
(1.00886 -0.00299184 1.08794e-22)
(0.99448 0.103889 -1.62419e-21)
(1.02405 0.0711313 -1.63481e-21)
(1.08144 0.0817454 2.19856e-20)
(1.05526 0.115992 -6.87479e-22)
(0.484508 0.00796705 3.63479e-20)
(1.01327 -0.00291931 6.42932e-22)
(0.396381 0.0092074 -1.55518e-20)
(1.03525 0.0368087 -5.06216e-21)
(0.695285 0.0593175 1.99088e-20)
(1.01311 -0.00369669 0)
(1.0066 0.00339233 6.24025e-22)
(1.01878 0.0411201 5.66503e-22)
(0.434684 0.0084335 0)
(0.322289 0.00860443 1.64244e-20)
(1.01415 0.0239597 -5.8445e-22)
(0.888796 -0.0572769 0)
(0.999296 0.0388511 0)
(1.02687 0.0464286 0)
(1.0174 -0.000433977 2.91982e-22)
(1.02747 0.10955 -9.87554e-21)
(1.01102 0.0143378 4.45699e-22)
(1.00806 -7.33507e-05 -1.26595e-24)
(0.982133 0.0113902 -2.62722e-21)
(0.979323 0.0136661 -2.73077e-21)
(0.459525 0.00936375 1.93432e-20)
(1.08217 0.0731007 -2.25257e-20)
(1.0132 0.0490265 -2.82083e-22)
(0.760955 0.0663328 -1.68782e-20)
(1.00612 0.00052638 0)
(1.01037 0.0013504 5.20657e-22)
(1.01029 0.00140889 -1.12148e-21)
(0.506789 0.192476 -5.47573e-20)
(1.05305 0.123667 -2.32962e-20)
(1.04038 0.143601 9.29329e-21)
(1.01875 0.00203285 0)
(1.00234 -0.000107933 -6.71362e-23)
(0.691033 -0.112365 1.40916e-21)
(0.387954 0.00787098 5.16182e-22)
(1.00941 0.00108425 0)
(1.00909 0.00102989 5.31156e-22)
(1.00086 -5.67482e-05 1.8052e-22)
(1.01069 0.00155546 4.83841e-22)
(1.01061 0.0016089 6.82422e-23)
(0.504959 0.0180826 0)
(0.59255 0.061421 0)
(1.00973 0.0108599 -1.36859e-21)
(1.00639 -0.00144125 2.50315e-23)
(1.04062 0.0833247 0)
(0.48162 0.0178174 -3.19247e-20)
(1.00275 5.33285e-05 0)
(1.01845 0.00193197 3.16567e-22)
(0.85938 -0.066941 0)
(0.976701 0.0782768 0)
(1.05566 0.127267 6.87698e-21)
(0.742578 0.0607268 1.23116e-20)
(1.01245 0.0824486 -3.35054e-21)
(1.00928 0.00578076 2.65217e-21)
(0.580301 0.1908 -4.18536e-20)
(1.04219 0.0856595 2.4209e-21)
(1.00322 0.0529448 0)
(1.0706 0.0791642 -1.4732e-20)
(1.01472 0.0234973 1.37807e-21)
(0.558736 0.0395404 -1.48405e-21)
(1.03269 0.00557451 -5.30599e-21)
(1.0315 0.052289 3.32753e-21)
(1.02958 0.0699786 -8.2841e-21)
(1.00926 0.0107185 3.88806e-22)
(1.00041 -1.09702e-05 7.62897e-22)
(1.03268 0.0265277 0)
(0.997056 -0.00293193 3.06272e-21)
(1.01697 -0.00387921 3.33816e-22)
(0.421401 0.0151843 -1.51034e-20)
(0.732826 0.138194 2.10363e-21)
(1.01614 -0.000703056 5.48277e-22)
(1.00888 0.000920734 -5.26382e-22)
(1.00583 0.00335966 -9.18722e-22)
(1.00896 0.000878435 0)
(1.03298 0.00519152 0)
(1.01403 0.000314546 -3.14202e-21)
(1.04644 0.054506 1.44866e-20)
(1.01666 -0.000755078 -8.39742e-22)
(0.333743 0.0142215 0)
(0.629978 0.0289565 -1.35155e-20)
(1.01985 0.0120625 -1.46245e-22)
(1.00043 0.00183483 -4.34662e-23)
(0.970255 0.134135 -8.16459e-22)
(1.0093 0.00200398 -1.322e-22)
(1.047 0.041124 2.79476e-23)
(0.441244 0.019469 -1.44029e-20)
(1.00939 0.00197647 1.36086e-22)
(0.448844 0.0120005 -1.88092e-20)
(1.01656 -0.00343027 -6.63447e-22)
(0.843519 0.119839 0)
(1.00174 5.50716e-06 -3.04299e-22)
(1.00765 0.0150534 9.14701e-22)
(1.0091 0.0108663 0)
(1.00852 0.00455821 0)
(1.07788 0.104156 0)
(1.00304 0.000122726 5.07006e-22)
(1.0838 0.0138053 -2.19901e-21)
(1.03202 0.0411944 0)
(0.702734 0.157572 4.68239e-22)
(1.02773 -0.00552328 0)
(0.983817 -0.0354562 8.06231e-21)
(0.312987 0.0098527 0)
(1.00383 9.55284e-05 5.07206e-22)
(1.0522 0.0688727 0)
(0.995087 0.00189585 -3.11472e-21)
(1.02311 0.0317122 3.57815e-21)
(0.994475 0.00739009 0)
(1.02808 0.0286881 -5.96633e-21)
(1.0146 -0.00309804 0)
(1.004 0.000138471 0)
(1.0142 0.105969 -1.91965e-22)
(1.04642 0.019845 0)
(1.03194 0.0517302 0)
(1.02814 0.0279983 -3.03664e-21)
(1.01798 0.00195669 0)
(0.639598 0.0558798 2.27087e-20)
(0.421636 0.00672771 0)
(1.0094 -0.000733403 0)
(1.00934 0.00746103 9.61812e-22)
(1.02394 0.0318772 4.20752e-21)
(0.908214 0.0261572 -1.44718e-21)
(1.09078 0.0779693 0)
(0.620086 0.0265097 -2.36726e-20)
(0.627549 0.202418 0)
(0.992124 0.007973 -3.56239e-22)
(0.975906 0.0515306 -4.55279e-22)
(1.00161 0.000757907 -6.35691e-22)
(1.0261 0.0775862 -1.65656e-20)
(0.903126 0.0440587 0)
(1.09431 0.084678 -1.29881e-23)
(1.01378 0.000310449 2.61011e-21)
(1.00685 0.0143857 -8.774e-22)
(0.919888 -0.0601868 2.94376e-22)
(1.00685 0.00604189 3.08603e-22)
(0.983542 0.0198414 0)
(1.08021 0.0820152 0)
(1.00278 -4.6751e-06 -1.9304e-22)
(0.691174 0.0544985 -1.11131e-20)
(1.0121 0.00197496 1.62992e-21)
(1.0857 0.048939 0)
(1.01004 0.00305544 -2.58253e-24)
(0.372484 -0.00801087 0)
(1.0065 0.000569061 0)
(1.03346 0.0511543 2.95446e-21)
(0.999835 0.041158 -1.52662e-22)
(0.991094 0.00125491 2.64041e-22)
(1.00389 7.78408e-05 0)
(1.07315 0.0778139 1.05088e-20)
(1.01461 0.0759586 -6.02406e-21)
(1.01616 0.0181371 2.80398e-21)
(1.00672 0.00543802 3.97988e-22)
(0.57674 0.0317974 -1.29425e-20)
(1.00625 0.0773157 0)
(0.874988 0.18033 -1.08922e-20)
(0.92034 0.186048 -1.70888e-21)
(1.0091 0.00181895 -4.97558e-22)
(1.01072 0.0118627 -1.55598e-21)
(0.964954 0.079867 0)
(0.976893 0.0586218 -2.41443e-21)
(1.00924 0.00181055 -4.79094e-22)
(0.993188 0.00408029 2.63839e-21)
(1.01983 0.015327 0)
(1.02455 0.058386 -2.99716e-23)
(1.03304 0.0518608 1.05908e-21)
(1.05362 0.10458 0)
(1.00515 0.0611271 7.58448e-22)
(1.04802 0.045258 0)
(1.08114 0.0506986 2.73077e-21)
(0.528638 0.018692 0)
(1.00924 -0.000276949 -2.85343e-22)
(1.01671 0.0183955 0)
(0.991745 0.0108539 2.54993e-21)
(1.08865 0.100971 -2.0602e-20)
(1.00237 5.64279e-06 -2.09943e-22)
(0.467599 0.00604826 -4.20843e-20)
(1.08169 0.049814 0)
(0.881502 -0.0921596 0)
(1.01695 0.0159973 -1.90955e-21)
(0.989247 0.0613588 4.58279e-21)
(1.01081 0.00714441 0)
(0.701161 -0.0809489 3.09756e-21)
(1.02093 0.000186842 3.68025e-22)
(1.04617 0.141012 -2.12345e-20)
(0.978326 0.137301 2.01792e-21)
(0.997608 0.0434618 -3.08461e-22)
(1.01993 0.0125436 -4.02741e-21)
(1.1023 0.108065 -3.67642e-20)
(1.01046 0.00334695 -3.0245e-22)
(0.633599 0.179617 -3.38877e-20)
(1.05673 0.11928 7.57408e-22)
(1.02128 0.000721224 -7.51028e-22)
(0.719343 -0.0534528 0)
(1.0083 0.011023 -3.63334e-24)
(1.01627 -0.0222888 0)
(1.01076 -0.00117802 4.1304e-22)
(0.495496 -0.00524668 1.81147e-20)
(1.01735 -0.0257633 2.46491e-22)
(1.0196 0.027099 0)
(0.61972 -0.12634 0)
(1.04208 0.0510196 -5.8177e-22)
(1.01491 0.0220804 2.53565e-21)
(0.76046 0.162795 -1.4916e-21)
(1.09497 0.0818983 4.25311e-20)
(1.02106 0.025894 -2.48271e-21)
(1.07732 0.106958 -8.30994e-21)
(1.01166 0.0122497 1.88e-23)
(1.0446 0.0551713 -1.05797e-22)
(1.09448 0.0865676 -7.31233e-22)
(1.01227 0.00174752 0)
(1.05797 0.0333625 -1.40877e-20)
(1.02901 0.0278627 7.32747e-21)
(1.00873 0.00477121 5.72954e-22)
(1.00749 0.0019403 -4.77836e-23)
(1.00912 -2.63239e-05 3.99429e-22)
(0.391924 0.224304 0)
(1.06203 0.0165325 1.69534e-22)
(1.01686 0.0172561 -6.20292e-23)
(1.00954 -0.000455338 -2.13094e-22)
(1.00835 0.00680016 -1.439e-22)
(1.04432 0.0664504 9.24482e-21)
(0.916895 0.0190417 -4.00602e-22)
(1.00954 0.0025573 -5.18743e-22)
(1.0054 -0.000747809 8.82034e-24)
(1.09023 0.0778851 0)
(0.991556 0.0566242 -4.10933e-21)
(1.00861 0.00485538 0)
(1.01987 0.0266071 4.7888e-21)
(0.77583 0.197273 1.21565e-20)
(0.935931 0.0577763 -2.06468e-20)
(0.996491 0.0264816 0)
(1.08075 0.0898738 -4.01685e-21)
(1.06585 0.0803447 0)
(1.01431 0.00294707 0)
(1.00936 0.00236753 5.30464e-22)
(1.01443 0.0411613 5.57757e-22)
(1.00743 0.00185464 1.97026e-23)
(1.00966 0.00255552 -5.30867e-22)
(1.00959 0.0110417 3.26644e-22)
(1.0095 0.00237361 -6.13665e-22)
(1.01384 0.00281462 -3.23231e-22)
(0.594847 0.165126 -2.6936e-20)
(1.01185 0.0127854 -2.20985e-21)
(1.02774 0.0480882 0)
(0.350051 0.0168906 1.52102e-20)
(1.05055 0.0677749 0)
(1.00815 -3.85391e-05 0)
(1.02996 0.00776943 -4.01017e-21)
(0.780445 0.153695 2.67057e-20)
(1.01743 0.0412229 0)
(0.367335 0.00566061 -2.83367e-20)
(1.00988 0.00290832 5.32408e-22)
(1.01908 0.00521698 2.65082e-24)
(1.01083 0.00356929 9.3233e-22)
(1.01099 0.00178398 5.83353e-22)
(1.01642 0.0266045 -3.69432e-21)
(1.00775 0.0107887 -2.25466e-22)
(0.798421 0.195488 0)
(1.02939 0.00758985 2.98637e-22)
(0.956869 0.0775622 0)
(1.01874 0.00525012 0)
(1.06533 0.050198 -2.96891e-21)
(1.03362 0.00477464 0)
(1.01094 0.0137468 -9.70578e-22)
(1.0162 0.0842769 2.46459e-21)
(0.862041 0.183972 1.98392e-20)
(1.01993 0.0148869 0)
(0.672111 -0.0581768 -2.15874e-20)
(1.00813 0.000150709 5.50937e-24)
(1.00679 0.000643564 -1.1853e-21)
(1.00834 0.00639419 0)
(1.00859 0.0113997 2.45871e-23)
(1.00786 -0.000134053 2.92964e-23)
(1.00941 0.000890338 0)
(0.629159 0.0538118 0)
(0.539141 0.213478 1.06267e-20)
(1.00776 -0.000151777 -2.54376e-24)
(0.958293 -0.0351906 -5.53483e-21)
(1.08928 0.0785484 2.14013e-20)
(1.01786 0.000603803 6.37605e-21)
(1.04973 0.071807 6.72346e-21)
(1.09434 0.0662093 -3.51995e-20)
(0.724434 0.141229 -5.261e-20)
(1.06095 0.0350219 -1.57761e-20)
(0.973545 0.0747594 -4.28904e-21)
(0.947859 -0.0639816 -8.50034e-23)
(0.9557 -0.050799 1.18838e-22)
(1.00804 0.0111721 0)
(0.998741 0.0126987 2.44234e-22)
(1.0379 0.00402021 -1.37522e-22)
(1.01443 0.0225808 -2.54681e-21)
(1.03288 0.171043 0)
(1.00552 0.000117436 -2.45364e-22)
(1.01591 0.0138504 0)
(1.01587 0.018651 1.63149e-21)
(1.06135 0.0301837 0)
(1.02146 0.044679 3.02962e-21)
(1.08975 0.0902134 2.35736e-20)
(1.06766 0.0671155 -2.43067e-21)
(1.02152 -0.00517164 0)
(0.998755 0.00120452 6.66996e-22)
(0.97888 0.0618847 3.27061e-22)
(1.02608 0.0483861 -1.32322e-21)
(1.01648 0.0169016 0)
(0.920592 0.221853 -1.34623e-21)
(1.05211 0.0541152 -1.79404e-20)
(1.03289 0.0411627 -4.64852e-21)
(0.625706 0.192284 3.41146e-21)
(1.01233 0.00227328 -5.66852e-21)
(1.02542 0.0479589 -4.48389e-22)
(1.02024 0.115444 -8.31853e-21)
(1.00653 0.000839373 4.48364e-22)
(0.51829 0.0441715 0)
(1.00681 0.000662833 0)
(1.01088 0.00182605 0)
(1.04537 0.0679445 -1.86556e-20)
(1.01001 0.00293122 0)
(1.00635 0.000552448 6.7954e-22)
(1.01144 0.101214 4.03264e-21)
(0.57427 0.0557245 0)
(0.503108 -0.157927 0)
(1.01107 0.00461311 2.88672e-21)
(1.04255 0.0177553 0)
(1.01863 -0.00242274 9.3388e-22)
(1.03486 0.176228 -1.38619e-20)
(0.926511 0.127157 1.04354e-20)
(1.01607 0.0158627 0)
(1.01664 0.0150618 1.40155e-21)
(1.0108 0.00411483 -7.63734e-22)
(1.03351 0.0684073 0)
(0.852741 0.0570088 5.27567e-21)
(1.0098 -0.000893248 0)
(1.00291 2.89137e-05 -8.62776e-23)
(1.00692 0.00301622 -6.42262e-22)
(1.00877 0.00463581 -1.49679e-21)
(1.01491 0.00327457 0)
(1.04095 0.0426599 9.46597e-21)
(1.00496 0.000125935 -6.64394e-22)
(1.06659 0.0681007 0)
(1.0065 0.000804065 4.15055e-22)
(1.00865 0.00762766 3.65975e-22)
(1.02913 0.027245 3.41855e-21)
(0.59729 0.0244904 -2.95683e-20)
(1.007 7.70359e-06 0)
(1.05 0.0251423 8.77769e-21)
(1.01645 -0.0041103 0)
(1.06479 0.0490259 2.61428e-21)
(1.05257 0.0792487 -1.10184e-20)
(1.01587 0.0658838 1.08095e-22)
(1.02869 0.0717269 5.17401e-21)
(1.05628 0.0238518 -1.74732e-22)
(1.02684 0.0258091 -3.62777e-21)
(0.982442 0.0575216 -2.38567e-21)
(0.724616 0.0613422 -1.01991e-20)
(0.617439 0.140864 2.89997e-20)
(0.370237 0.0214942 -1.42848e-20)
(1.00965 -0.0011086 -3.03759e-22)
(1.00818 0.00560873 -1.29001e-22)
(1.02177 -0.00653909 1.40059e-21)
(1.02044 0.00909723 -2.42933e-21)
(0.883299 0.0744895 -9.59741e-21)
(1.00958 0.00217773 0)
(0.822882 0.152013 0)
(1.03614 0.0366567 2.60219e-21)
(0.823335 0.0646513 -7.42686e-23)
(1.0498 0.0368111 3.73448e-23)
(1.0594 0.0212084 1.08126e-20)
(0.149779 -0.0845619 1.20467e-20)
(1.00788 -0.000268571 0)
(1.09 0.063363 0)
(1.00381 -5.23009e-05 0)
(1.02258 -0.00138563 3.28689e-22)
(0.785392 0.0614631 -1.37927e-20)
(1.00972 0.00274137 0)
(1.09385 0.0802858 -3.17558e-20)
(1.00194 -7.56025e-05 -1.52787e-22)
(1.01662 0.000345801 -2.77472e-21)
(1.00818 0.00598586 0)
(1.08876 0.0894987 -2.26174e-20)
(1.0138 0.00437773 0)
(1.00815 0.000591512 -6.0975e-22)
(1.08505 0.0810088 -1.7691e-20)
(1.04836 0.0704177 -9.24009e-21)
(0.862703 -0.202382 -4.34259e-21)
(1.05091 0.0861623 -3.47892e-20)
(0.655046 0.0584804 -9.98506e-21)
(0.704548 0.147756 6.37204e-20)
(1.00696 5.93707e-06 -5.71029e-23)
(0.407084 0.00689671 0)
(1.00318 -0.000149023 8.98243e-23)
(0.488724 0.215977 1.83382e-21)
(0.908176 0.0411052 0)
(1.02404 -0.000630018 -7.02872e-22)
(1.0135 0.00693407 9.13119e-22)
(1.00186 -2.12477e-05 3.37738e-22)
(1.05157 0.0533827 2.54826e-20)
(1.0576 0.0196416 3.95786e-23)
(1.00985 0.00275243 0)
(1.00362 -3.71538e-05 0)
(1.01213 0.000429549 0)
(1.08154 0.0878871 0)
(1.01212 0.00567804 9.605e-22)
(1.08079 0.066294 -2.44882e-20)
(1.01554 0.0133471 0)
(1.00795 0.00059069 4.4173e-22)
(1.0027 6.88012e-05 2.07661e-22)
(0.998803 0.125881 0)
(0.961427 0.140025 7.90386e-21)
(0.197944 -0.0604367 2.03034e-20)
(1.06957 0.0777154 -1.3262e-20)
(1.04184 0.042338 0)
(1.10325 0.131614 -6.60361e-21)
(0.486258 0.0193723 1.66612e-20)
(1.0112 -0.00127016 0)
(0.96459 0.177064 1.3824e-21)
(1.01175 0.00023222 0)
(1.09527 0.0730525 -4.4178e-20)
(1.02006 0.00926419 5.08641e-21)
(1.10677 0.105098 8.16619e-21)
(1.00862 0.00434985 1.48505e-21)
(1.0169 0.00338664 0)
(1.03193 0.00860903 4.54015e-21)
(0.86232 -0.194611 5.97322e-21)
(1.04874 0.0548964 1.1155e-20)
(0.847231 0.075065 -2.22211e-20)
(1.00517 6.66729e-05 4.316e-22)
(1.04679 0.0529724 5.16054e-21)
(1.01135 -0.00242978 -3.56943e-22)
(1.0014 -5.19956e-05 -4.82718e-22)
(0.544045 0.0209559 4.99902e-22)
(1.0811 0.0449674 0)
(1.01196 -0.00318897 -4.70611e-22)
(1.05433 0.10807 -9.78461e-21)
(1.01824 0.00210191 -3.84063e-21)
(1.02041 -0.000516877 -1.01912e-21)
(1.00176 -5.40493e-05 1.31324e-23)
(0.566163 0.0257192 -6.25116e-22)
(1.01236 0.00566185 2.98129e-21)
(0.994826 -0.00152714 -2.41652e-21)
(1.00946 0.00219253 3.33767e-22)
(1.01181 -0.00295456 0)
(1.0871 0.101928 -1.12613e-20)
(1.002 -4.14816e-05 3.08318e-22)
(1.06159 0.101776 1.66167e-20)
(1.00295 -2.57743e-05 0)
(1.0065 0.000714515 -4.48963e-22)
(0.45558 0.221618 2.3731e-21)
(1.08135 0.067131 -1.51286e-20)
(1.01581 0.0152753 0)
(0.270908 0.00405301 -8.88957e-23)
(1.09383 0.0801861 4.2362e-20)
(0.937454 -0.0115815 2.80126e-21)
(1.01519 0.115397 4.21708e-21)
(1.00778 -0.00028594 0)
(1.0057 0.0134913 -2.57225e-21)
(0.574132 0.0181715 1.68345e-20)
(1.09243 0.0797201 0)
(1.01519 0.0398639 6.43856e-22)
(1.01746 0.02789 6.15132e-23)
(1.01913 0.00416896 8.2907e-22)
(1.00358 -2.20003e-05 -1.83467e-22)
(1.00856 0.000922784 0)
(0.986619 0.0128794 0)
(1.0504 0.0824488 0)
(1.03155 0.0342447 1.09398e-21)
(0.579346 0.202766 2.36317e-20)
(1.04973 0.0558342 -1.53388e-20)
(0.894557 -0.00115979 0)
(0.915996 0.140625 6.61032e-21)
(1.05408 0.0132856 0)
(1.03676 0.0513204 -4.61071e-21)
(1.05858 0.113006 2.82777e-21)
(0.463349 0.0141786 3.75413e-20)
(1.01423 -0.00318784 0)
(1.03223 -0.0104914 -1.0472e-21)
(0.978471 0.00914635 0)
(1.00651 0.00078803 5.3835e-22)
(1.0052 5.0033e-05 1.18024e-22)
(1.00263 5.58297e-05 -5.40819e-22)
(1.01818 -0.00311408 -4.92074e-22)
(1.0074 0.000689339 0)
(0.413064 0.00734947 -1.14284e-20)
(1.07902 0.0432586 7.12595e-21)
(1.00569 2.73186e-05 4.29981e-23)
(1.07929 0.0807883 0)
(1.00546 6.98187e-05 -5.37559e-22)
(0.645525 0.0354466 1.40092e-20)
(1.01696 -0.00316016 -9.75106e-22)
(1.00936 -0.000511297 -9.83249e-23)
(0.541724 0.0511905 1.19162e-20)
(1.05446 0.0760667 0)
(0.900567 -0.06887 -1.10869e-21)
(1.03362 0.0112366 6.28344e-21)
(1.01032 0.00350057 0)
(1.01006 -0.0013093 0)
(1.03936 0.0149163 4.47419e-23)
(1.05328 0.0417706 6.51138e-22)
(1.0082 0.0037667 0)
(0.353053 0.00871597 1.85859e-20)
(1.03179 0.0437018 0)
(0.88648 0.151416 0)
(0.91402 -0.0891997 0)
(1.03213 -0.00650209 0)
(0.655188 0.059825 2.42763e-20)
(1.04207 0.018337 0)
(1.00409 -1.25269e-05 4.21558e-23)
(1.01151 -0.00261427 3.92745e-22)
(0.457424 0.0220394 1.41956e-20)
(0.537975 -0.142241 0)
(1.03502 0.0376568 -5.78732e-21)
(0.373326 0.00756723 2.48753e-20)
(0.79889 0.0421675 -9.72552e-21)
(1.00659 0.000635201 -4.0654e-22)
(1.00947 -0.000719051 0)
(1.01544 0.0262161 1.52161e-21)
(0.988319 0.0758194 0)
(0.917597 -0.0107872 -7.136e-22)
(1.04744 0.0554633 -1.05222e-20)
(1.03854 0.0147139 2.41659e-21)
(1.04942 0.0257548 -1.44075e-20)
(1.09607 0.0735113 4.11232e-20)
(1.00266 0.00158213 0)
(1.05646 0.102596 0)
(1.07816 0.044319 4.02893e-21)
(1.01506 0.0176052 -1.34224e-21)
(1.03041 0.0218007 2.86914e-22)
(1.00394 -1.93716e-05 1.29102e-24)
(1.0524 0.0412381 0)
(0.998951 -0.00138097 -1.42909e-21)
(1.09218 0.0820816 -1.80665e-20)
(1.0218 0.0324468 1.66394e-21)
(1.01987 0.00333856 -4.10762e-22)
(0.360309 0.00794661 2.19485e-20)
(1.00881 -0.00150905 8.09387e-23)
(0.798744 0.095892 0)
(1.01802 0.0271614 -2.09275e-21)
(0.995634 0.022417 0)
(1.03965 0.0363389 -7.58279e-21)
(1.09347 0.0796851 1.78338e-20)
(1.00393 7.75873e-07 -3.36994e-22)
(1.09047 0.0611789 1.48077e-20)
(0.98925 0.136853 -8.45708e-21)
(0.905714 0.07844 5.58301e-22)
(1.02144 0.00918321 4.98462e-21)
(1.0227 0.0326018 -9.46488e-21)
(1.0057 0.000367205 -1.00232e-21)
(1.01848 0.00708019 -2.19243e-21)
(1.03196 0.00735162 0)
(1.01176 0.0198886 1.03138e-21)
(1.03252 0.00746302 0)
(0.999598 0.122049 9.58346e-22)
(1.05964 0.103983 -2.71702e-21)
(1.00781 -0.000404959 -4.09317e-23)
(1.08861 0.0817451 0)
(1.06495 0.025864 1.80084e-20)
(1.06088 0.0309185 0)
(1.05796 0.109459 7.48977e-21)
(1.01054 0.0120995 0)
(1.08892 0.0637125 0)
(1.09313 0.0125262 4.96961e-21)
(1.00737 0.000263841 0)
(1.05606 0.0755784 -2.01477e-20)
(1.0162 0.0728694 -2.21557e-21)
(1.0766 0.0442241 0)
(1.00822 0.000784867 5.38087e-23)
(1.00784 3.15538e-05 7.02535e-23)
(1.00861 0.00075869 0)
(0.418408 0.00765335 2.19508e-20)
(1.0296 0.020524 0)
(1.01828 -0.00291722 0)
(1.08402 0.0488 4.56603e-21)
(1.00827 0.00403914 -2.25609e-22)
(1.00845 -0.000137859 9.42191e-23)
(1.03551 0.102613 -5.05932e-21)
(1.09572 0.0255177 4.5455e-21)
(1.01073 0.0297366 1.03496e-21)
(0.863834 0.0163283 3.04964e-20)
(1.02298 0.0568434 -7.82363e-22)
(0.956105 0.0809664 0)
(1.03251 0.00693718 0)
(1.0023 0.00991285 3.9667e-22)
(1.10326 0.116156 2.64755e-20)
(1.02358 0.000374693 3.47108e-22)
(1.00949 -0.0434616 1.0835e-21)
(1.00371 5.74043e-05 0)
(1.00516 -2.32044e-06 -3.71132e-22)
(1.03191 0.0120877 -8.2275e-21)
(1.02037 0.0331566 -1.59661e-21)
(1.01903 0.0677017 -1.56992e-23)
(1.00822 0.000683261 5.66624e-25)
(1.00554 0.0288771 0)
(1.00792 0.00116398 8.46347e-22)
(0.916188 -0.0202967 0)
(1.01879 0.0275437 0)
(1.06168 0.0341113 0)
(1.01016 0.00309013 -3.08027e-22)
(1.06982 0.0802624 1.81655e-20)
(1.00712 0.0152361 4.09541e-22)
(0.847088 0.147082 0)
(1.01451 0.0312525 0)
(1.00267 5.35368e-05 -2.51471e-22)
(0.607392 0.0237732 0)
(1.02967 0.0226426 1.47519e-20)
(0.417016 0.0134318 3.03536e-20)
(1.05762 0.0176647 9.42818e-21)
(1.02447 0.045275 4.73198e-23)
(1.0035 0.0036734 -1.45692e-21)
(1.00992 -0.00139426 3.43087e-22)
(1.02122 0.00868909 -5.0568e-21)
(0.709256 0.0521303 -4.17832e-20)
(1.05039 0.0413765 1.20151e-20)
(0.926164 -0.00513089 0)
(0.915894 0.0756722 0)
(1.01824 0.00685176 -1.99077e-21)
(1.07603 0.0452865 -4.41292e-21)
(1.00635 -0.0013964 0)
(1.02273 -0.0191328 -1.37684e-21)
(0.866595 -0.0857412 1.98566e-21)
(1.0066 -0.00154574 0)
(0.60824 0.173024 -1.08959e-20)
(1.05188 0.0247739 -4.35227e-23)
(1.0306 0.0448938 9.11565e-23)
(1.07585 0.0884116 1.4333e-20)
(0.893596 -0.0317819 -2.97294e-21)
(1.00996 0.000252327 0)
(1.00552 1.95507e-05 1.95084e-22)
(1.00039 0.0616057 7.8389e-22)
(1.00792 -0.000400059 3.29277e-23)
(1.01487 0.0135962 6.32763e-22)
(1.02213 0.0252429 0)
(1.00809 0.0048383 -2.50799e-22)
(1.08321 0.0497541 0)
(1.00971 0.000275518 0)
(1.01984 0.0992107 0)
(1.01449 0.0173136 -1.19835e-21)
(0.462117 0.00797968 0)
(0.406288 0.0127765 0)
(0.932809 0.0442804 0)
(0.944851 0.0784148 -4.64769e-21)
(0.687025 -0.0688794 8.35277e-21)
(0.449592 0.00660808 5.79013e-23)
(0.889202 0.0164081 1.40837e-21)
(1.0065 0.000227502 -4.36186e-22)
(1.01949 -0.000311388 1.78693e-22)
(1.02538 0.0107185 -6.22269e-21)
(1.02569 0.0228181 0)
(1.01076 0.00433505 -1.64032e-21)
(1.05146 0.0419559 -1.13339e-20)
(1.01177 0.00688227 9.24369e-22)
(0.918726 0.0323411 -7.51178e-21)
(1.01518 0.0141256 0)
(1.10449 0.0829917 8.09175e-23)
(1.0295 0.019604 -5.26826e-21)
(1.07675 0.0368444 0)
(1.00807 0.0513763 1.70531e-21)
(1.01041 -0.00166922 2.02653e-22)
(1.02718 0.047818 0)
(1.02912 0.0228531 -8.54568e-21)
(1.02348 -0.0039848 3.48982e-22)
(1.0447 0.0365333 9.4093e-21)
(1.01036 0.00328616 5.79812e-22)
(0.651201 0.063485 -1.07666e-20)
(1.05024 0.0849765 6.3255e-21)
(0.988437 0.0144202 -1.7894e-21)
(1.00959 -0.000921964 0)
(1.02433 0.00190913 0)
(1.00719 0.00614748 1.89651e-23)
(1.00763 0.00132453 -8.60744e-22)
(0.65139 0.182942 0)
(1.00655 0.000342455 0)
(1.07302 0.034902 5.06006e-22)
(1.00863 0.00424434 0)
(0.917055 -0.0698594 1.65014e-22)
(1.00854 0.0142405 4.83915e-22)
(1.00989 0.00618477 3.52058e-23)
(1.09085 0.0621003 0)
(1.00863 -0.0274118 5.80037e-22)
(1.00664 0.000386531 -2.55347e-22)
(0.923225 -0.120529 -2.82468e-21)
(0.995685 0.171665 -1.995e-20)
(1.01193 0.0231974 8.12666e-23)
(1.07236 0.0790514 -1.23915e-20)
(1.00837 -0.000715135 0)
(1.0636 0.0397263 6.70376e-22)
(1.01074 0.00349909 0)
(1.00738 0.00200058 0)
(0.509835 0.014427 0)
(1.0047 -5.8491e-05 0)
(1.03627 0.0195575 0)
(1.07795 0.0808553 -1.26184e-20)
(0.49518 0.012187 -2.66456e-20)
(1.0111 0.00367411 -6.24701e-22)
(0.838796 0.0119892 1.95996e-21)
(1.10776 0.117399 0)
(1.02101 -0.000814062 0)
(1.00588 0.00904319 0)
(1.00806 0.00518056 2.73849e-22)
(1.08364 0.0822078 0)
(1.0233 0.00233425 0)
(1.08589 0.0817658 1.96647e-20)
(1.02565 0.0137242 -4.46626e-21)
(0.526569 0.0469679 1.1237e-20)
(1.00796 0.0145166 -7.0562e-22)
(0.795408 0.1161 2.05883e-22)
(1.00936 -0.000254211 3.50953e-23)
(1.00773 0.00155491 4.11065e-25)
(1.00763 -0.0391287 -1.44023e-21)
(1.00785 0.000530739 0)
(1.00863 -0.00221874 -7.71596e-23)
(0.769588 0.0647649 1.00215e-20)
(1.01792 0.0233051 0)
(1.00721 0.00180658 -1.64632e-21)
(0.878252 0.0781027 0)
(1.02154 -0.000339942 0)
(1.01929 -0.000204121 0)
(1.05249 0.0817232 0)
(1.02048 0.0251692 1.55421e-21)
(0.868618 0.0737425 -1.09086e-20)
(1.02801 0.0477606 0)
(1.09247 0.0668212 0)
(1.01174 0.109803 4.06886e-21)
(1.04828 0.0256003 8.86521e-21)
(0.548651 0.0436788 -1.40087e-20)
(1.01437 0.01841 0)
(1.05429 0.0784265 0)
(1.02062 0.00523468 -4.75743e-23)
(0.383763 0.0170816 0)
(0.926894 -0.0579742 -4.46058e-22)
(1.03569 0.0109974 7.25252e-21)
(1.01084 0.00353276 -5.94829e-22)
(1.02112 -0.00329345 2.4442e-25)
(1.01649 0.016113 2.2312e-21)
(1.01054 0.0033831 3.07511e-22)
(1.0151 0.001251 0)
(1.01615 -0.000849813 -6.25737e-22)
(1.02138 0.00800079 9.6689e-21)
(1.0391 0.0432953 8.70553e-21)
(1.00723 0.000265884 -1.2266e-22)
(1.01824 0.0226937 2.26388e-21)
(1.07808 0.0732765 -1.31134e-20)
(0.660149 0.146843 2.13243e-20)
(0.822863 0.138907 1.86233e-20)
(1.07701 0.0794721 -1.39418e-20)
(1.00732 0.00668042 -2.14913e-23)
(0.997873 -0.0443162 1.20891e-21)
(1.01139 0.00599041 0)
(1.10144 0.111695 -3.29071e-21)
(0.852886 0.00697141 -1.71343e-21)
(0.182406 0.00222266 -2.19806e-20)
(1.0105 0.00198892 3.49156e-22)
(1.00659 0.000262537 2.88574e-22)
(1.01481 0.00131255 -3.92887e-21)
(1.01217 0.0114664 1.71852e-21)
(1.01021 0.001919 -3.33994e-22)
(1.01093 0.00362482 -2.07304e-24)
(1.01424 0.0067894 0)
(1.03635 0.0523358 0)
(1.0073 0.00192119 0)
(0.368655 -0.0224443 6.89645e-22)
(0.879381 0.0583877 0)
(1.00742 0.00182729 -4.04374e-22)
(0.738025 0.0566697 2.56114e-20)
(1.02108 0.0054032 4.73078e-21)
(1.00899 0.00015822 3.808e-23)
(1.02157 -0.0269647 -1.60648e-21)
(0.582776 0.0282645 1.48313e-20)
(1.02613 0.046723 4.57666e-22)
(1.00274 4.69744e-05 0)
(0.893556 -0.0227658 -2.46037e-21)
(1.01215 -0.00293999 0)
(1.00949 -0.000474724 -9.77864e-23)
(1.09067 0.081174 3.5623e-20)
(1.02017 -0.000161285 3.46722e-22)
(1.04268 0.0571906 0)
(1.03716 0.0200422 0)
(1.04081 0.0560597 -1.58671e-21)
(1.00802 0.000114946 0)
(1.01656 -0.000636349 0)
(1.01973 0.0418567 0)
(0.921965 -0.032561 -3.29675e-21)
(1.02713 0.0252039 -1.8513e-21)
(0.506259 0.0232409 0)