/*--------------------------------*- C++ -*----------------------------------*\
| =========                 |                                                 |
| \\      /  F ield         | OpenFOAM: The Open Source CFD Toolbox           |
|  \\    /   O peration     | Version:  v2012                                 |
|   \\  /    A nd           | Website:  www.openfoam.com                      |
|    \\/     M anipulation  |                                                 |
\*---------------------------------------------------------------------------*/
FoamFile
{
    version     2.0;
    format      ascii;
    class       surfaceVectorField;
    location    "300";
    object      ddtCorrDdt0(Uf);
}
// * * * * * * * * * * * * * * * * * * * * * * * * * * * * * * * * * * * * * //

dimensions      [0 1 -2 0 0 0 0];


internalField   nonuniform List<vector> 
20537
(
(0.000647408 0.000704958 1.59028e-20)
(0.000814497 0.00059905 -1.68546e-19)
(0.000848429 0.000850513 -8.27608e-20)
(0.0643757 -0.00799009 1.34065e-18)
(0.08959 -0.00448631 4.78126e-19)
(0.0830535 -0.026239 3.95773e-18)
(-0.00668188 -0.00793733 3.51017e-18)
(-0.00788118 -0.00744763 1.05007e-18)
(-0.00795035 -0.00874345 -5.07037e-19)
(0.000671165 0.000264023 1.03105e-19)
(0.000797828 0.000396182 2.15996e-20)
(0.000845201 0.000168176 9.16967e-20)
(0.00249139 -0.00312523 -3.95776e-18)
(0.00238013 -0.00367996 1.4902e-20)
(0.00199151 -0.00325983 -4.10856e-18)
(0.00718164 -0.0345219 -4.33454e-19)
(0.0117628 -0.0291472 2.40998e-18)
(0.00689638 -0.0282317 -1.51886e-18)
(-6.97829e-05 -0.000114992 1.48542e-18)
(-7.36882e-05 -0.000119487 -2.272e-18)
(-6.73788e-05 -0.000116041 8.31712e-19)
(-0.00380875 -0.00131717 -1.15876e-18)
(-0.00340795 -0.0012153 1.11295e-18)
(-0.00355383 -0.0017468 -1.67494e-18)
(6.4086e-05 8.25612e-05 1.85033e-20)
(6.80105e-05 8.74195e-05 4.15609e-20)
(6.98999e-05 8.4757e-05 2.24603e-20)
(-0.0222602 0.0120178 6.07312e-20)
(-0.0187712 0.0128969 3.12229e-19)
(-0.0193499 0.00946693 2.4458e-19)
(-0.0184659 0.0577147 -4.65361e-20)
(-0.0218452 0.0517549 5.97066e-19)
(-0.0256422 0.0392343 2.88465e-18)
(-0.0743287 0.0140814 4.96074e-20)
(-0.0564173 -0.00959673 -4.0024e-19)
(-0.0476311 -0.000873102 -1.03571e-18)
(0.00956953 0.0149873 7.66818e-19)
(0.00953367 0.0135498 6.98184e-18)
(0.00816424 0.0148833 9.33912e-18)
(-0.0723419 0.0358463 3.3565e-18)
(-0.0829703 0.0144715 -1.46054e-18)
(-0.0484707 0.028084 -2.6886e-18)
(-5.467e-05 -1.2552e-05 -2.48842e-18)
(-5.20032e-05 -1.24482e-05 9.20088e-20)
(-5.33414e-05 -1.5409e-05 -2.47368e-18)
(2.3457e-05 0.00250358 -2.18131e-19)
(-0.000331245 0.00247552 -2.02868e-19)
(-0.000203432 0.00287355 -5.42834e-19)
(-0.000479566 0.000142628 -7.2738e-19)
(-0.000431279 0.000159813 1.80007e-18)
(-0.00044758 0.000109691 -1.49603e-19)
(-0.00320976 -0.00185147 3.64879e-19)
(-0.00267976 -0.00197457 1.69171e-19)
(-0.00313241 -0.00243882 -8.76284e-19)
(0.0167004 0.00673445 5.3384e-18)
(0.0186168 0.00495251 -5.21995e-18)
(0.0167866 0.00384308 -1.91429e-18)
(6.11518e-05 7.77093e-05 -6.07125e-20)
(5.88128e-05 7.86621e-05 4.04528e-21)
(0.00054898 0.000142719 -2.66557e-19)
(0.000510841 0.000319874 2.58013e-20)
(-0.005383 -0.00732386 6.67041e-19)
(-0.00529325 -0.00859554 -1.91851e-19)
(0.000121245 -2.67848e-06 2.83251e-20)
(0.000130983 -2.10129e-06 1.03924e-19)
(0.000143702 -1.39706e-06 -1.07817e-19)
(5.66992e-05 6.36568e-06 -8.50165e-20)
(4.46171e-05 2.87437e-06 5.20237e-20)
(6.23308e-05 6.4739e-06 1.93227e-20)
(0.000110747 -1.01292e-06 1.32995e-19)
(8.89766e-05 -2.56854e-06 2.08863e-21)
(-0.00414021 -0.000893755 5.65137e-19)
(-0.00434498 -0.00146706 9.43085e-20)
(-0.000353743 -0.00032996 5.12161e-18)
(-0.00033636 -0.000318498 3.38544e-19)
(-0.000356356 -0.000308016 -3.49333e-18)
(0.00127451 -0.0239033 8.37832e-18)
(-0.00118894 -0.0176987 -1.41672e-17)
(0.00047394 0.000617331 4.67694e-20)
(0.00048848 0.000831866 -5.411e-21)
(-0.000206969 -0.000650022 -1.8374e-20)
(-9.62044e-05 -0.000634433 -6.30859e-19)
(-0.000181361 -0.000753217 -3.10248e-19)
(0.00143016 -0.0389354 -4.1162e-19)
(0.00742175 -0.0417702 2.73588e-18)
(-0.000511286 0.000198848 -1.83203e-18)
(-0.000533499 0.000127146 -2.7355e-19)
(-0.00786937 -0.00616346 -2.04635e-18)
(-0.00917637 -0.00672628 -1.24828e-18)
(0.0382455 -0.0557816 -3.7376e-19)
(0.0360359 -0.052378 -2.61621e-20)
(0.0333628 -0.0518701 4.6602e-19)
(5.25231e-05 5.61562e-06 -5.08436e-20)
(6.11621e-05 9.3189e-06 -4.94218e-20)
(-0.00377549 -0.000540354 -3.4788e-18)
(-0.00378188 -0.00083409 1.48952e-17)
(-0.00397004 -0.000605358 1.38189e-17)
(-0.00661738 -0.000705773 7.13723e-18)
(-0.00853856 -0.000540317 6.34418e-18)
(-0.00861169 -0.000687555 -4.85603e-18)
(0.012541 -0.0224603 -2.28793e-19)
(0.0150949 -0.0204367 -7.88663e-19)
(0.0114158 -0.0198414 2.07781e-18)
(-0.0250359 0.0137904 -6.35716e-20)
(-0.0251308 0.00936008 -9.44087e-20)
(0.0415254 -0.0583654 -7.48388e-19)
(0.0354294 -0.0639164 4.09216e-18)
(-0.000109117 8.40113e-05 6.32597e-20)
(-0.000107084 8.92258e-05 -8.25071e-20)
(-0.000112661 8.54409e-05 8.53597e-20)
(0.000165406 -3.78021e-05 -1.16838e-20)
(0.000166509 -3.21967e-05 -2.22922e-20)
(0.000164393 -3.48262e-05 -1.7334e-20)
(0.00239671 -0.00377814 6.01231e-18)
(0.00197608 -0.00198647 7.48035e-18)
(-0.00022743 -0.00601412 -5.75906e-18)
(-0.0195912 0.0374458 3.45476e-19)
(-0.0239461 0.0116821 -4.20444e-19)
(-0.0247531 0.0281083 1.27851e-18)
(-0.0147426 0.0606301 -8.22255e-19)
(-0.0136828 0.045974 -1.04826e-18)
(0.00307367 0.107179 1.60679e-17)
(-0.0200253 0.0960698 8.72563e-18)
(-0.0239093 0.127393 6.16844e-18)
(-0.0058649 -0.00414626 -1.88875e-18)
(-0.00855838 0.012997 1.5331e-18)
(-0.0017391 0.0219817 3.09499e-18)
(-0.0536128 0.210687 4.52753e-18)
(-0.0535778 0.196283 1.04154e-18)
(-0.0464426 0.224643 -5.66433e-18)
(-0.000369645 -0.000340476 1.10333e-18)
(-0.000350408 -0.000349859 4.35292e-18)
(-0.0120111 -0.0190833 7.1475e-19)
(-0.0114458 -0.0151899 -7.37594e-19)
(-0.00801673 -0.0186702 -1.16894e-18)
(0.000468769 -0.00027858 -9.94759e-18)
(0.000432363 -0.00010703 -1.31324e-17)
(0.000291612 -0.000241332 -1.93093e-18)
(0.00288397 0.00296032 3.28807e-18)
(0.00240379 0.00266699 -3.04278e-19)
(0.00231681 0.00342511 9.80371e-18)
(-0.00137949 0.0266615 1.05646e-17)
(-0.000775842 0.0253248 -1.84137e-17)
(-0.0014716 0.0241766 -6.374e-18)
(-5.77561e-05 -7.78077e-06 2.95101e-19)
(-5.94362e-05 -6.25822e-06 -2.44954e-19)
(-5.86048e-05 -8.20055e-06 5.69032e-19)
(-6.39753e-05 4.47588e-06 -1.16201e-18)
(-6.65061e-05 3.72822e-06 1.76039e-19)
(-6.53154e-05 6.61902e-06 9.54339e-20)
(0.000164182 -4.29851e-05 3.91958e-20)
(0.000166383 -4.0787e-05 -4.59604e-21)
(0.000125377 6.76662e-06 2.46505e-19)
(0.000126899 9.65613e-06 2.21359e-20)
(0.000118611 6.18969e-06 3.56789e-20)
(-0.0212419 0.0382993 -1.59917e-18)
(-0.023211 0.0455301 -5.12645e-18)
(-0.0294731 0.039868 1.0558e-17)
(-0.000226766 -0.000536958 5.64179e-20)
(-0.000316703 -0.000617107 9.85484e-19)
(-0.000105641 -0.000122383 -1.4238e-18)
(-9.987e-05 -0.000119304 3.21554e-18)
(-9.95821e-05 -0.00012625 -2.95077e-18)
(0.0136066 -0.0264173 1.15745e-18)
(0.00922406 -0.0242553 4.16779e-19)
(0.0769958 -0.00615798 -1.64069e-19)
(0.0795742 -0.000308504 -6.41098e-18)
(0.0822575 -0.00726814 -1.5853e-17)
(-0.0264176 0.00101085 -1.44176e-18)
(-0.0277347 0.00658843 -1.10125e-18)
(-0.0227922 0.00448376 1.18024e-19)
(0.00349659 -0.00211851 -3.19606e-18)
(0.00357848 -0.00265408 -8.75029e-19)
(0.00408155 -0.00232806 -1.89383e-18)
(0.047002 -0.0260183 -2.6882e-18)
(0.0417208 -0.0296904 1.89837e-18)
(0.0409797 -0.0224212 2.17815e-18)
(0.00212677 0.000949426 -1.16077e-19)
(0.00193639 0.000536537 -5.89853e-19)
(0.00238708 0.000538582 9.91072e-20)
(-0.0033236 -0.000442116 2.6197e-18)
(-0.00377445 -0.000913385 2.7894e-18)
(-0.00261046 -0.043337 2.58579e-19)
(-0.00395999 -0.0218017 -5.34195e-19)
(-0.000488361 -0.000894614 1.51004e-18)
(-0.000530174 -0.000909525 -2.71451e-18)
(-0.000517478 -0.000861794 -2.91059e-18)
(-0.00314449 -0.00130989 1.18077e-19)
(-0.00372151 -0.00162409 -3.36478e-19)
(0.00986844 -0.000428341 -1.50473e-18)
(0.00970874 -0.000434839 -6.64578e-18)
(0.00955774 -0.000315749 -7.98559e-18)
(0.00579724 -0.00164391 1.93436e-18)
(0.00599724 -0.00210073 2.50971e-18)
(0.00144653 -0.00190073 -4.1618e-18)
(0.0327533 -0.0168723 1.12117e-17)
(0.0420418 0.0112354 2.47005e-18)
(-5.61569e-05 -1.01042e-05 -9.05432e-19)
(-5.50854e-05 -6.70968e-06 -1.66554e-18)
(-5.53389e-05 1.27996e-05 4.37837e-19)
(-5.77205e-05 1.37869e-05 2.53282e-19)
(-5.58922e-05 1.49141e-05 -8.49842e-20)
(9.17771e-05 0.000142144 -5.93645e-20)
(0.000104944 0.000142315 -2.32354e-20)
(9.28264e-05 0.000130535 -9.25798e-20)
(-0.00449017 -0.00711302 -9.84274e-19)
(-0.00523414 -0.00671735 -3.49026e-18)
(0.0034435 0.00180769 -2.6396e-18)
(0.00362095 0.00262259 -1.51517e-18)
(0.0024853 0.00201868 -6.13761e-19)
(-0.000652662 -0.00184012 -3.07429e-18)
(-0.00052151 -0.00188664 -3.95032e-18)
(-0.000633413 -0.00200737 -5.98392e-18)
(0.00868112 -0.000675476 1.82819e-18)
(0.00852509 -0.000448655 -7.67063e-18)
(-0.000150891 -0.000127402 -2.31898e-18)
(-0.00014963 -0.00011808 -3.56255e-18)
(-0.000143069 -0.000126425 -1.14553e-18)
(0.00963206 -0.0420804 -6.25561e-19)
(0.0138605 -0.036014 -2.459e-22)
(0.0108413 -0.0220952 9.28551e-20)
(-9.42641e-05 -4.57661e-06 8.01234e-19)
(-9.68951e-05 -4.77e-06 6.51502e-19)
(-9.51818e-05 -3.35438e-06 -4.94063e-19)
(-0.00647061 0.047039 -4.67535e-18)
(-0.0172273 0.0427696 -4.56566e-18)
(-0.00063519 0.0312537 -5.88768e-18)
(-0.024034 -0.0030105 3.38769e-19)
(-0.0303348 -0.00259562 1.02278e-19)
(-0.0892548 0.0382597 -2.56722e-20)
(-0.0941394 0.028276 4.8289e-19)
(-0.00409287 -0.0203804 -3.02056e-19)
(-0.00110718 -0.0232937 1.41392e-19)
(-0.000459521 -0.0192165 9.12451e-20)
(-0.0405896 0.0777095 1.95989e-18)
(-0.0266541 0.0649869 8.32869e-19)
(-0.0394525 0.0725801 -2.83608e-18)
(-0.000537365 -0.000204092 5.48661e-19)
(-0.000556291 -0.000169365 -2.03395e-18)
(-0.00057672 -0.000213992 5.80457e-19)
(-4.34058e-05 0.000219249 -6.15361e-20)
(3.55162e-06 0.000157886 1.23182e-19)
(2.97082e-05 0.000228269 -1.18154e-20)
(-0.00352087 -0.000433813 -3.87931e-18)
(-0.00382398 -0.000159678 -2.03125e-18)
(0.00374342 0.0120954 1.90275e-19)
(0.00288382 0.0151226 1.11356e-18)
(0.00644407 0.0132052 -4.97944e-19)
(-0.00582891 -0.06699 -2.97082e-19)
(-0.000705845 -0.000366843 2.59529e-18)
(-0.000746275 -0.000369707 7.43817e-19)
(-0.000720459 -0.000422871 -1.65429e-18)
(-0.00049648 -0.000205502 1.27315e-18)
(-0.000516553 -0.000252826 1.64737e-18)
(9.44026e-05 3.20413e-06 -1.51108e-19)
(9.35764e-05 2.32686e-06 1.42451e-19)
(0.000106146 3.64663e-06 7.43662e-20)
(0.0030684 -0.00296459 7.31874e-19)
(0.00256339 -0.00259922 5.45733e-18)
(0.0124062 0.0330561 5.7501e-18)
(0.0128434 0.0357729 1.22744e-18)
(0.00959526 0.0329752 5.72559e-18)
(-0.0112258 -0.0233538 -3.37933e-19)
(-0.0155789 -0.0185384 -2.26442e-19)
(7.04267e-05 1.72705e-06 7.4118e-20)
(9.49237e-05 2.8871e-06 -1.21712e-19)
(-0.0285059 0.12494 -1.34556e-18)
(-0.0449176 0.119326 5.57222e-18)
(-0.0366003 0.12087 -6.38554e-18)
(2.43883e-05 -0.00140216 1.81824e-19)
(3.39132e-05 -0.00128463 -5.9972e-18)
(-6.86588e-05 -0.00134511 -1.33411e-18)
(-0.000305217 0.000227995 -1.40533e-19)
(-0.000353471 0.00022992 -2.76629e-19)
(-0.000317161 0.000281436 -1.09634e-19)
(-0.000179631 -0.000368297 -8.50558e-19)
(-0.000178492 -0.000383535 -5.58739e-18)
(8.53021e-05 -3.51872e-06 3.2616e-21)
(0.000102894 -5.28087e-06 8.56916e-21)
(8.65184e-05 -3.55268e-06 -7.07064e-22)
(-0.0139233 -0.022216 -1.16606e-18)
(-0.0188867 -0.0215952 -4.3552e-19)
(-0.014406 -0.0171837 -5.59534e-19)
(0.000170597 -0.00103514 2.76173e-19)
(0.000214461 -0.00113827 -2.18933e-18)
(0.000302696 -0.00103747 6.92045e-18)
(0.000144663 -4.40702e-05 2.58947e-20)
(0.000146851 -4.35867e-05 1.31086e-21)
(0.000143262 -4.09834e-05 -2.52333e-20)
(0.00959418 -0.00267145 -1.45221e-18)
(0.0104582 -0.00283125 3.84851e-18)
(0.0167939 -0.0302 1.68406e-19)
(0.0147355 -0.0251077 7.62603e-19)
(7.75942e-05 2.99418e-06 -3.90387e-21)
(5.78087e-05 1.2394e-06 1.33075e-20)
(7.84816e-05 2.35012e-06 8.82663e-20)
(-8.95307e-05 0.000305133 3.25255e-20)
(-0.000120525 0.000174118 -1.51587e-20)
(0.00435587 0.0100389 1.52066e-18)
(0.00165546 0.0109544 3.81717e-19)
(2.87445e-05 1.99194e-06 1.77987e-20)
(3.03045e-05 1.39209e-06 4.10805e-19)
(8.70886e-05 4.28096e-06 -3.31088e-20)
(7.43002e-05 2.94847e-06 -5.88397e-21)
(0.00218733 0.0230631 -2.71702e-18)
(-0.00213951 0.0236016 1.55195e-20)
(0.0117122 0.0293351 4.8833e-18)
(0.0150232 0.0311999 -8.89479e-20)
(0.000155559 -2.00201e-05 8.26884e-20)
(0.000156567 -1.98613e-05 1.80799e-20)
(0.00015493 -2.356e-05 3.63842e-20)
(-1.27682e-05 6.21096e-06 -2.81672e-20)
(-9.38913e-06 6.12734e-06 1.08811e-20)
(-1.56412e-05 2.953e-06 -1.79231e-20)
(-5.45173e-05 8.05571e-06 -5.7768e-19)
(-5.70676e-05 4.32604e-06 6.6319e-19)
(-6.18402e-05 6.53713e-06 3.4862e-19)
(0.00432228 -0.00245697 3.65324e-18)
(0.00183383 -0.0100073 5.49892e-18)
(-0.000203463 -0.000362198 2.81234e-18)
(-0.000178247 -0.000348603 2.50417e-18)
(0.011102 0.0146687 -6.28872e-18)
(0.0103246 0.0161614 -5.71281e-18)
(-0.0270117 0.0708915 6.0081e-20)
(-0.0451542 0.202607 2.53901e-18)
(-0.060966 0.192879 2.37876e-18)
(-0.000607457 0.00119595 -9.90884e-20)
(-0.000291841 0.00113774 -1.66381e-19)
(-0.000384015 0.00162187 -6.4935e-20)
(-0.024219 0.177561 -2.00729e-18)
(-0.0284172 0.194716 -2.48203e-19)
(-0.000285761 -0.00168188 3.47859e-18)
(-0.000185759 -0.00160163 -2.20635e-18)
(-0.000145131 -0.00178283 2.98874e-18)
(0.000462838 4.42747e-05 1.24112e-20)
(0.00056721 -4.69869e-05 2.4934e-20)
(0.00934451 -0.00614325 -1.24605e-18)
(0.00867273 -0.00542888 1.48852e-18)
(0.00987474 -0.0048536 8.54877e-19)
(-0.000106454 8.25302e-05 3.02573e-19)
(-0.00011103 7.95315e-05 -4.86992e-20)
(1.677e-05 3.74696e-05 7.6657e-21)
(1.38834e-05 4.21715e-05 2.67446e-20)
(1.34109e-05 4.02889e-05 5.27626e-20)
(0.0100046 -0.000504435 8.56143e-18)
(0.00958111 -0.000644381 1.82403e-20)
(-9.30684e-05 -6.95082e-06 -3.22657e-19)
(-9.11695e-05 -4.57471e-06 -6.25827e-19)
(0.0157117 -0.00352596 -2.14221e-18)
(1.25051e-05 1.87079e-05 -3.30623e-20)
(1.57244e-05 1.73284e-05 -1.09059e-20)
(1.45897e-05 1.48276e-05 -5.95331e-20)
(0.0001544 -2.0046e-05 9.21776e-21)
(0.000156837 -1.64e-05 8.54018e-20)
(0.00530295 -0.00117022 3.02522e-18)
(0.00463025 -0.000782203 -3.80969e-18)
(0.000585001 -0.000921246 3.78848e-19)
(0.0770146 -0.0534994 1.95555e-18)
(0.0644993 -0.0532581 2.89255e-19)
(0.060142 -0.0663205 1.37926e-18)
(-0.0910601 -0.134429 1.35066e-18)
(-0.0780956 -0.119856 8.17875e-18)
(-0.0800503 -0.126505 1.39852e-18)
(-0.0229349 0.129393 2.04873e-18)
(-0.0141594 0.127424 -7.62223e-18)
(-6.04549e-05 5.58381e-06 -3.33984e-19)
(-6.44462e-05 3.37817e-06 -5.06691e-19)
(-0.000404649 0.00146943 -9.12883e-20)
(-0.000711618 0.00164946 2.07427e-20)
(-0.000347523 0.00192775 -8.35554e-20)
(0.000235071 -5.0463e-05 4.82497e-20)
(0.000237728 -3.84556e-05 -2.94773e-20)
(0.00025282 -5.39822e-05 5.29469e-20)
(-0.000139415 8.55806e-05 1.05846e-18)
(-0.000149121 0.000110886 -3.45232e-19)
(-0.000162583 8.20346e-05 4.81831e-19)
(-0.0213758 -0.00475101 2.06986e-19)
(-0.0268001 -0.0127563 1.06402e-18)
(0.00546109 -0.00400859 1.07363e-18)
(0.00396418 -0.00443362 1.12122e-20)
(0.00404302 -0.00287372 2.61845e-21)
(0.0106565 -0.00724398 -1.49316e-18)
(0.00885056 -0.00766977 -1.87673e-18)
(-6.61492e-05 -0.000109719 7.21286e-19)
(-7.23349e-05 -0.000112555 -6.66546e-19)
(-0.0136343 0.0733301 5.38228e-19)
(-0.0107153 0.082045 1.09546e-18)
(-0.000859512 -0.000981392 -1.1632e-17)
(-0.000945224 -0.000932666 -8.44337e-18)
(-5.48689e-05 6.52192e-06 3.66463e-19)
(-5.13649e-05 7.6557e-06 -8.72274e-19)
(-5.213e-05 9.47653e-06 -2.56307e-19)
(-0.0621476 0.0547441 2.67079e-18)
(-0.0868595 0.045003 2.06961e-18)
(0.000123043 5.98379e-06 1.39539e-19)
(0.0001305 8.35229e-06 -1.9317e-19)
(-0.000266417 -0.000105637 -1.6667e-18)
(-0.00027463 -0.000121207 7.38962e-19)
(-0.000259322 -0.000123836 -8.34701e-19)
(-0.000116496 8.92536e-05 -1.94015e-18)
(-0.000132934 6.60683e-05 -1.67099e-18)
(-4.53009e-05 9.37671e-05 5.29788e-20)
(-3.98568e-05 9.52552e-05 6.02679e-20)
(-3.79365e-05 0.000102827 3.98822e-21)
(-0.000146919 -0.000304603 -1.08803e-19)
(-0.000159508 -0.000262073 -2.60522e-19)
(-0.000117694 -0.000254734 -2.28034e-19)
(0.00326006 0.00357319 -9.63559e-18)
(0.00344069 0.00275968 -4.39524e-18)
(0.000467683 -0.000478282 -3.91312e-18)
(0.000637612 -0.000374662 6.02196e-18)
(0.000174043 -7.8706e-05 3.63572e-21)
(0.000162939 -6.89874e-05 -3.68221e-20)
(0.000159888 -7.44991e-05 8.89828e-21)
(-0.000460126 -0.000555155 -1.51839e-18)
(-0.000481543 -0.000571969 -4.55469e-18)
(-0.000454739 -0.000585815 -6.75457e-18)
(-0.0208286 0.0316713 2.90226e-18)
(-0.0160243 0.0368883 -4.95306e-18)
(1.90912e-05 3.3259e-05 -3.55784e-20)
(1.93588e-05 3.46553e-05 -2.78545e-20)
(0.00148587 -0.00101962 -1.04851e-20)
(0.00145629 -0.000632878 -1.24688e-18)
(0.00121108 -0.000875124 9.08003e-19)
(0.000186408 -1.90538e-05 -1.63937e-19)
(0.000192457 -2.00376e-05 -7.58791e-20)
(0.000189482 -1.4818e-05 2.58425e-21)
(0.00705039 -0.00287326 2.3913e-19)
(0.00712745 -0.00542437 -3.63362e-19)
(-0.000453717 -0.00092504 7.94511e-18)
(-0.000452704 -0.000881512 -1.09209e-18)
(0.000382127 0.000105162 8.53518e-20)
(0.000381498 -1.95037e-05 1.75291e-20)
(0.011921 0.0691233 -3.27185e-18)
(-0.0162855 0.0755341 -1.48072e-18)
(0.00446513 0.0640315 -3.2023e-18)
(0.00228172 0.000957195 -1.57981e-18)
(0.0041938 0.00151949 -3.15392e-18)
(0.000101908 1.33086e-05 7.08663e-20)
(0.000100962 1.45625e-05 4.43152e-20)
(0.000102633 1.45442e-05 7.09661e-20)
(-5.15924e-05 9.24359e-05 7.50262e-20)
(-5.10237e-05 8.54131e-05 -3.81927e-20)
(-0.0938465 -0.144921 -2.83833e-18)
(-0.100484 -0.141047 1.04438e-18)
(2.12816e-05 2.93818e-05 -7.7735e-21)
(1.88173e-05 3.16796e-05 -3.5409e-20)
(-0.0437094 0.172495 8.48847e-19)
(-0.0593894 0.163373 1.11133e-18)
(-0.000374144 -0.00179025 1.25125e-18)
(-0.000409624 -0.00164556 2.43862e-18)
(-0.00127808 0.000443548 -3.48744e-20)
(-0.0012909 0.000193129 -7.33711e-20)
(-0.00163852 0.000397045 -1.71851e-19)
(0.015432 0.00913269 4.46465e-18)
(0.0148739 0.00803467 3.33195e-18)
(0.000147485 -4.88492e-05 -7.26151e-21)
(0.000145308 -4.77281e-05 2.45729e-21)
(0.000149345 -5.15546e-05 1.81943e-20)
(-0.000609898 0.000228137 8.20122e-19)
(-0.000549415 0.000248368 -3.01368e-19)
(-0.000587422 0.000303841 5.57858e-19)
(0.00785699 -0.00156339 7.75247e-18)
(-8.88494e-05 -1.03018e-05 1.47046e-18)
(-8.60985e-05 -1.06058e-05 1.29599e-20)
(-8.75086e-05 -7.49747e-06 3.86831e-19)
(-0.00526286 -0.00963621 -3.07892e-18)
(-0.00418538 -0.00900892 -3.87987e-20)
(0.000121739 -9.56161e-06 -4.3593e-20)
(0.000120769 -8.32678e-06 1.63764e-20)
(0.000120129 -8.10764e-06 -4.76644e-21)
(0.000119883 -1.75648e-06 -7.17773e-20)
(0.000126348 -5.14784e-07 -2.53088e-20)
(0.000134946 9.86889e-07 -4.54597e-20)
(0.00221624 0.00136365 -6.30153e-20)
(0.00174553 0.00123142 -4.66997e-20)
(-5.39166e-05 1.04246e-05 -2.96473e-19)
(-5.61742e-05 7.6455e-06 -1.71704e-19)
(0.0033043 -0.00458643 4.76472e-18)
(0.00307675 -0.00527832 9.26619e-19)
(0.00394686 -0.00517438 -2.07277e-18)
(0.00920286 0.0236393 -1.36078e-19)
(0.00911644 0.0274054 2.97806e-19)
(0.00553458 0.0246946 7.03143e-19)
(-0.00982433 -0.0309507 2.26807e-18)
(-0.00473048 0.0279623 9.49e-18)
(-0.00134797 0.0298446 -4.13846e-18)
(-0.000158436 0.000394497 -1.14894e-19)
(-0.000290815 0.00032793 -5.98822e-20)
(-0.000231234 0.000505007 -1.50376e-19)
(-0.000745324 -0.00096063 -8.5196e-19)
(-0.000684536 -0.000944211 7.77928e-18)
(-0.000720856 -0.000895355 -3.22832e-18)
(0.0741501 -0.0121612 2.93389e-18)
(0.0694177 -0.00652914 7.13422e-18)
(-0.00025013 -8.25813e-05 2.79816e-18)
(-0.000261436 -9.35725e-05 -9.01693e-19)
(-0.000246715 -9.83879e-05 -7.03546e-19)
(-9.46619e-05 0.00131005 -5.41716e-20)
(-0.000360015 0.00115883 2.49897e-19)
(-0.000239702 -0.128441 -2.69427e-19)
(-0.00819025 -0.123713 -7.93445e-19)
(0.00890868 -0.108864 5.88227e-19)
(-0.00121132 0.000780792 2.68473e-19)
(-0.000995227 0.000502966 4.41054e-19)
(7.74349e-05 0.000140477 1.26356e-19)
(8.95857e-05 0.000153852 -1.27462e-20)
(-0.00104962 0.00125647 9.19418e-20)
(-0.000687517 0.000844754 -1.32449e-19)
(-0.0241395 0.176451 5.78268e-18)
(0.00240011 0.145244 -1.38434e-17)
(-0.03304 0.152526 8.10844e-18)
(-2.43977e-05 1.05883e-06 3.70891e-19)
(-2.89605e-05 1.86301e-06 8.47264e-20)
(-2.25406e-05 9.90447e-07 -4.34456e-19)
(-0.000104696 -1.94905e-05 3.90015e-19)
(-0.000102897 -1.84913e-05 -8.68381e-19)
(-0.00010655 -1.92608e-05 -1.83652e-19)
(-0.00276207 0.0188286 1.15375e-19)
(-0.00094115 0.0172764 3.32462e-19)
(-0.00314259 0.0164871 -2.47816e-19)
(-9.00568e-05 -1.40529e-05 1.10424e-18)
(-9.15487e-05 -1.00931e-05 1.68904e-18)
(0.0595757 -0.0992441 -4.35267e-19)
(0.0622617 -0.102959 6.24656e-19)
(0.0545682 -0.108748 -2.14938e-18)
(-0.000535396 3.73905e-05 1.26383e-18)
(-0.000490363 3.35864e-05 1.61062e-18)
(-0.000520068 -1.35449e-05 5.30674e-20)
(0.00879813 0.000904403 -2.49417e-18)
(0.00916189 0.000707852 3.59208e-19)
(0.00889594 0.00072605 4.82365e-18)
(0.000145379 -4.66866e-05 8.47978e-22)
(0.000148018 -4.91709e-05 3.30488e-21)
(0.00015108 -5.17545e-05 1.50977e-20)
(0.00652694 0.00227938 -7.69245e-18)
(0.00659288 0.00195927 4.36242e-20)
(0.00633026 0.00238087 -4.93499e-18)
(-0.000287833 0.000189302 3.16943e-21)
(-0.000259551 0.00022388 -1.90626e-19)
(-0.0109747 -0.158516 -3.13341e-19)
(-0.0140622 -0.155577 -9.94281e-19)
(-0.014487 -0.159193 -8.12886e-19)
(0.000135514 -3.66498e-05 5.75702e-22)
(0.000137695 -3.9336e-05 -2.19454e-21)
(0.00013383 -3.46073e-05 -2.95084e-21)
(0.000206192 -3.98284e-05 2.23766e-20)
(0.000196972 -4.89648e-05 7.61995e-20)
(0.000197093 -3.50782e-05 5.05674e-20)
(0.000375201 0.0571624 -3.77724e-19)
(-0.00516945 0.0602019 2.44229e-18)
(-0.00830108 0.0502423 -1.22245e-18)
(-0.022038 -0.010336 4.94754e-19)
(-0.0217273 -0.00624528 2.65096e-19)
(-0.0176676 -0.00891238 -5.44663e-19)
(0.0247724 0.0893531 2.28105e-17)
(0.0227547 0.120371 -9.58441e-18)
(-6.433e-05 -1.75001e-05 4.6402e-19)
(-6.26003e-05 -1.70815e-05 -4.25817e-19)
(-6.43747e-05 -1.47033e-05 -8.76742e-19)
(0.00865124 0.00107887 -8.28121e-18)
(0.00841509 0.00111804 -2.8896e-18)
(-0.000546644 7.95747e-05 1.06298e-19)
(-0.000582245 3.34585e-05 -1.07503e-18)
(-0.000159791 -0.000127804 1.22803e-18)
(-0.000152987 -0.0001388 1.98155e-19)
(0.00259175 0.0132535 -5.42726e-18)
(0.00265373 0.0138202 -5.37314e-18)
(0.00252681 0.0127194 -8.8941e-19)
(0.00571119 0.000414437 -1.36331e-20)
(0.0064978 0.000279847 4.55112e-18)
(0.00621333 0.00126445 -6.3919e-18)
(0.00785187 -0.000497473 -9.29346e-18)
(0.00781119 -0.000433703 2.22302e-18)
(0.00787379 -0.00069134 -2.09368e-18)
(0.000115445 1.11154e-06 -5.47735e-20)
(0.000117207 7.17607e-07 7.64596e-20)
(8.386e-05 2.55007e-07 -2.62319e-20)
(-0.000842533 -0.000504498 1.26653e-18)
(-0.000857193 -0.000573201 -3.62546e-18)
(-0.000911323 -0.000515434 1.50544e-18)
(8.38429e-05 -3.17561e-06 2.00177e-20)
(6.15567e-05 -2.09583e-06 3.57995e-20)
(0.00920635 0.0373633 -1.46694e-18)
(0.0114793 0.034578 9.39402e-18)
(0.00777739 0.0336337 1.27574e-17)
(0.000133888 -3.42231e-05 2.52157e-20)
(0.000137731 -3.94299e-05 4.13892e-21)
(-0.00441803 -0.000416638 4.743e-19)
(-0.00393897 -0.000406029 -9.47289e-19)
(-0.000739988 -0.0644776 -8.79548e-19)
(0.00650829 -0.0599283 -3.91634e-18)
(0.00798649 -0.0708749 -2.54456e-18)
(0.000101461 1.21549e-05 9.93797e-21)
(0.000102826 1.29348e-05 9.0097e-20)
(-3.76444e-05 0.00039696 -3.30301e-20)
(-4.29076e-05 -0.000452502 6.03827e-18)
(7.01916e-05 -0.000453203 -1.83008e-18)
(9.02346e-06 -0.000557093 2.46517e-19)
(0.00131646 -0.0126122 1.67554e-19)
(0.000998361 -0.0108352 7.53006e-21)
(-0.000650443 -0.0116134 5.10201e-19)
(0.0542495 -0.0967221 1.74096e-18)
(0.0615645 -0.091357 -3.20915e-19)
(0.0566888 -0.0288389 -1.05318e-18)
(0.0529005 -0.0215545 -8.09586e-19)
(0.000219269 -4.5651e-05 4.1487e-20)
(0.000224281 -6.43923e-05 -1.79883e-20)
(-0.000103444 -1.90895e-05 3.10356e-19)
(-0.000107502 -2.00188e-05 6.61996e-19)
(-0.00389573 -0.0359331 -2.74293e-19)
(-0.00372393 -0.0422239 1.07381e-18)
(-0.0437623 0.0031579 1.54557e-19)
(-0.0424603 -0.0114996 3.28619e-19)
(-0.0410227 0.00459767 2.35384e-19)
(0.000389591 -0.000282368 -3.60386e-20)
(0.000346422 -0.000220148 -1.87188e-20)
(0.000429676 -0.000209658 4.78095e-20)
(-0.00469387 0.020149 -4.76507e-19)
(-0.00220574 0.0213249 1.15463e-19)
(0.000116189 -7.8518e-06 1.3625e-21)
(0.000116583 -7.61429e-06 -1.48666e-21)
(0.0077726 0.00021808 -1.42247e-18)
(0.00798147 8.66597e-05 1.76031e-18)
(0.00785539 -1.09686e-05 -1.38728e-18)
(2.05106e-05 -0.00151514 3.70891e-18)
(0.000160191 -0.00146117 3.21958e-18)
(0.0114262 -0.113066 3.11422e-19)
(0.020155 -0.0861559 -1.26406e-18)
(0.00824097 -0.102095 5.07271e-19)
(-9.26735e-05 8.57589e-05 -2.16625e-20)
(-6.79331e-05 7.62368e-05 1.21159e-18)
(-9.36379e-05 5.85307e-05 -4.6044e-21)
(-0.000113297 0.000584698 -8.46805e-19)
(-0.000114117 0.000482918 6.2629e-19)
(-3.01486e-05 0.000534549 -6.31903e-19)
(0.00213254 -0.00606961 -1.20325e-20)
(0.00336207 -0.00614519 -1.44445e-19)
(0.00255715 -0.00472689 2.24157e-19)
(-0.043841 0.0185455 1.9998e-19)
(-0.0446373 0.000708929 -2.0225e-20)
(-0.000160056 -1.76289e-05 6.7476e-19)
(-0.000162023 -1.6313e-05 1.45045e-18)
(-0.000159587 -1.50515e-05 1.69759e-18)
(-9.92503e-05 0.000112919 -1.80939e-19)
(-0.00017159 -0.000838741 -1.45597e-18)
(-0.000185718 -0.000790766 1.25473e-19)
(-0.000128949 -0.000819228 2.49214e-18)
(-0.0409574 0.108568 -2.20426e-18)
(-0.0828683 0.122894 5.01817e-18)
(-0.0439806 0.0982203 3.1568e-19)
(0.0125475 0.0221234 2.56526e-19)
(0.009647 0.0201316 8.32725e-19)
(0.0068573 -0.000708788 -3.08076e-18)
(0.00444267 -0.000467844 -8.43815e-18)
(-0.0152959 0.00444104 1.14293e-17)
(-0.0123159 0.00257423 7.15367e-18)
(-0.0148047 0.00278896 -3.53416e-18)
(-5.56137e-05 -5.55628e-05 7.9255e-19)
(-5.35323e-05 -5.24364e-05 -1.36432e-18)
(-5.75143e-05 -5.18281e-05 -3.21765e-19)
(0.000211683 -3.21905e-05 -6.00606e-20)
(-0.00307337 -0.000840861 -2.66729e-20)
(-0.0033122 -0.000409384 -4.23723e-20)
(-0.00280816 -0.00031745 1.82295e-19)
(0.0731984 -0.0418179 2.39743e-18)
(0.0642173 -0.0422096 -1.45104e-18)
(0.0727331 -0.0357777 2.9922e-19)
(0.000101017 0.000142553 7.9917e-20)
(0.000146707 0.000128839 2.62238e-20)
(0.000144688 0.000188499 3.04019e-20)
(0.020379 0.00511597 -9.86348e-19)
(0.0221175 0.00267651 -3.18806e-19)
(0.0221446 0.00554787 -4.20661e-18)
(-0.000252448 -6.85098e-05 3.01939e-18)
(-0.000247438 -6.88875e-05 -8.01408e-19)
(-0.000160267 -2.17027e-05 1.00606e-18)
(-0.000157724 -1.88019e-05 -6.47284e-19)
(-0.000661797 -0.000387712 9.62672e-20)
(-0.000679372 -0.000343173 4.00364e-18)
(0.00275702 0.0138104 -3.28737e-18)
(0.00272988 0.0127922 -1.88325e-18)
(0.00431416 0.0127844 7.07128e-19)
(0.00304328 0.00981517 1.6385e-21)
(0.00117432 0.0121882 2.23367e-19)
(0.0012567 -0.00751989 2.71597e-19)
(0.00100225 -0.00589428 -5.4194e-19)
(-0.000271583 -9.37937e-05 -3.55804e-18)
(0.0286656 -0.051151 6.5536e-19)
(0.0253454 -0.0483157 1.95147e-18)
(0.0321694 -0.0498308 -7.33764e-18)
(-0.000803497 -0.00174483 -1.10617e-18)
(-0.000655052 -0.00167534 2.46514e-19)
(0.000397485 0.00258456 -2.26964e-19)
(0.000260019 0.00220731 1.77274e-19)
(1.11795e-05 4.70161e-05 1.77637e-20)
(1.47082e-05 4.34389e-05 -4.16024e-20)
(0.00847971 -0.0589969 -4.27763e-19)
(0.00559768 -0.0448959 -3.35019e-19)
(0.0128996 0.00904497 -2.76646e-19)
(0.0120696 0.013677 -7.79036e-20)
(0.00926791 0.0116477 -2.00459e-19)
(0.00845678 -0.00274674 5.92916e-18)
(0.00806358 -0.00261851 -6.23204e-18)
(0.00804696 -0.00287518 1.31972e-18)
(-0.0158714 0.059066 5.95488e-19)
(-0.0126578 0.0709963 1.18006e-18)
(0.000436729 -0.00034521 -6.21084e-21)
(0.000329845 -0.000320007 -9.82215e-21)
(0.00013547 -3.64474e-05 5.42823e-21)
(0.000140298 -4.17033e-05 -3.14714e-21)
(0.000136415 -3.82313e-05 -5.57146e-21)
(8.66453e-05 -3.94432e-06 -2.08714e-20)
(8.84391e-05 -3.57355e-06 5.92718e-22)
(0.000102774 -4.79136e-06 -6.53396e-21)
(-0.000199536 -0.000842479 -5.20771e-20)
(-0.000169435 -0.000870714 -2.00244e-18)
(0.0792111 -0.0456528 5.71963e-19)
(0.0736047 -0.0527092 -4.98604e-20)
(-0.0307338 0.132953 1.99048e-19)
(-0.0275537 0.0916773 3.20237e-19)
(-0.0069868 0.0896904 -3.08487e-18)
(5.8295e-05 9.70395e-05 4.5048e-20)
(6.47569e-05 0.000105396 5.81339e-20)
(5.60996e-05 0.000100127 -2.26505e-20)
(-3.36818e-05 -2.62249e-05 -2.09767e-19)
(-3.71215e-05 -2.77195e-05 -5.37657e-19)
(-3.48178e-05 -2.92924e-05 -7.45203e-19)
(0.0401701 -0.0498222 -1.03103e-18)
(0.0266136 -0.0518778 -3.49886e-18)
(0.0161252 -0.0547945 5.28509e-20)
(0.0105858 -0.0705307 -3.7762e-18)
(0.0119208 -0.0674465 4.64791e-18)
(0.0117285 -0.00814293 2.04832e-19)
(0.0121415 -0.00641696 1.03314e-18)
(-0.000233072 -0.000467026 -5.17474e-19)
(-0.000157009 -0.00046384 -4.72366e-19)
(-0.000108963 -0.000127043 -2.39268e-18)
(-0.000110728 -0.000120439 -1.23691e-18)
(-0.000542179 -0.00101414 3.51787e-18)
(-0.000592503 -0.00103628 -9.16536e-18)
(-0.000534066 -0.00107831 -4.47655e-18)
(0.0166137 -0.0427482 -3.05163e-18)
(0.0191586 -0.0439184 -3.2079e-19)
(0.0196464 0.00509142 -4.13899e-19)
(0.0186127 0.00757428 1.95574e-18)
(0.00118907 -0.00029258 3.8719e-19)
(0.0010475 -0.000305343 3.4622e-20)
(0.00109342 -0.000107431 -4.65117e-19)
(-0.0900547 0.0527774 -3.63018e-18)
(-0.105189 0.0597261 1.68936e-19)
(1.00315e-05 5.2662e-05 3.58899e-21)
(6.98774e-06 5.57746e-05 1.81232e-20)
(9.10526e-06 5.0893e-05 5.76368e-20)
(0.00768053 0.000448076 -3.91977e-18)
(0.00760961 0.000361401 2.13788e-18)
(-0.000453424 -0.000536003 8.98111e-19)
(-0.000432624 -0.000553739 1.51138e-18)
(-0.000389708 0.000173234 -1.72266e-19)
(-0.000408848 0.000214622 7.67624e-19)
(0.00857098 -0.00231842 -1.05892e-17)
(0.00813776 -0.00238623 -3.69377e-19)
(0.0082351 -0.00213824 -9.49881e-20)
(-0.000209824 -1.54942e-05 3.41153e-19)
(-0.000217477 -7.79056e-06 1.1883e-19)
(-0.000221041 -1.97263e-05 4.82416e-20)
(-0.00844272 -0.0217861 3.1861e-19)
(-0.0116323 -0.0271467 -3.40615e-19)
(0.00438526 0.00589199 -3.75498e-18)
(0.00404821 0.00651255 1.65951e-19)
(0.00399042 0.00662358 4.97562e-18)
(6.34015e-05 9.45658e-05 1.18691e-20)
(5.43347e-05 8.80424e-05 3.7273e-20)