/*--------------------------------*- C++ -*----------------------------------*\
| =========                 |                                                 |
| \\      /  F ield         | OpenFOAM: The Open Source CFD Toolbox           |
|  \\    /   O peration     | Version:  v2012                                 |
|   \\  /    A nd           | Website:  www.openfoam.com                      |
|    \\/     M anipulation  |                                                 |
\*---------------------------------------------------------------------------*/
FoamFile
{
    version     2.0;
    format      ascii;
    class       pointVectorField;
    location    "300";
    object      pointDisplacement;
}
// * * * * * * * * * * * * * * * * * * * * * * * * * * * * * * * * * * * * * //

dimensions      [0 1 0 0 0 0 0];


internalField   nonuniform List<vector> 
14332
(
(0 0 0)
(0 0.0565711 0)
(0 0 0)
(0 0.0565711 0)
(0 0 0)
(0 0 0)
(0 0 0)
(0 0 0)
(0 0 0)
(0 0 0)
(0 0 0)
(0 0 0)
(0 0 0)
(0 0 0)
(0 0 0)
(0 0 0)
(0 0 0)
(0 0 0)
(0 0 0)
(0 0 0)
(0 0 0)
(0 0 0)
(0 0 0)
(0 0 0)
(0 0 0)
(0 0 0)
(0 0 0)
(0 0 0)
(0 0 0)
(0 0 0)
(0 0 0)
(0 0 0)
(0 0 0)
(0 0 0)
(0 0 0)
(0 0 0)
(0 0 0)
(0 0 0)
(0 0 0)
(0 0 0)
(0 0 0)
(0 0 0)
(0 0 0)
(0 0 0)
(0 0 0)
(0 0 0)
(0 0 0)
(0 0 0)
(0 0 0)
(0 0 0)
(0 0 0)
(0 0 0)
(0 0 0)
(0 0 0)
(0 0 0)
(0 0 0)
(0 0 0)
(0 0 0)
(0 0 0)
(0 0 0)
(0 0 0)
(0 0 0)
(0 0 0)
(0 0 0)
(0 0 0)
(0 0 0)
(0 0 0)
(0 0 0)
(0 0 0)
(0 0 0)
(0 0 0)
(0 0 0)
(0 0 0)
(0 0 0)
(0 0 0)
(0 0 0)
(0 0 0)
(0 0 0)
(0 0 0)
(0 0 0)
(0 0 0)
(0 0 0)
(0 0 0)
(0 0 0)
(0 0 0)
(0 0 0)
(0 0 0)
(0 0 0)
(0 0 0)
(0 0 0)
(0 0 0)
(0 0 0)
(0 0 0)
(0 0 0)
(0 0 0)
(0 0 0)
(0 0 0)
(0 0 0)
(0 0 0)
(0 0 0)
(0 0 0)
(0 0 0)
(0 0 0)
(0 0 0)
(0 0 0)
(0 0 0)
(0 0 0)
(0 0 0)
(0 0 0)
(0 0 0)
(0 0 0)
(0 0 0)
(0 0 0)
(0 0 0)
(0 0 0)
(0 0 0)
(0 0 0)
(0 0 0)
(0 0 0)
(0 0 0)
(0 0 0)
(0 0 0)
(0 0 0)
(0 0 0)
(0 0 0)
(0 0 0)
(0 0 0)
(0 0 0)
(0 0 0)
(0 0 0)
(0 0 0)
(0 0 0)
(0 0 0)
(0 0 0)
(0 0.0565711 0)
(0 0.0565711 0)
(0 0.0565711 0)
(0 0.0565711 0)
(0 0.0565711 0)
(0 0.0565711 0)
(0 0.0565711 0)
(0 0.0565711 0)
(0 0.0565711 0)
(0 0.0565711 0)
(0 0.0565711 0)
(0 0.0565711 0)
(0 0.0565711 0)
(0 0.0565711 0)
(0 0.0565711 0)
(0 0.0565711 0)
(0 0.0565711 0)
(0 0.0565711 0)
(0 0.0565711 0)
(0 0.0565711 0)
(0 0.0565711 0)
(0 0.0565711 0)
(0 0.0565711 0)
(0 0.0565711 0)
(0 0.0565711 0)
(0 0.0565711 0)
(0 0.0565711 0)
(0 0.0565711 0)
(0 0.0565711 0)
(0 0.0565711 0)
(0 0.0565711 0)
(0 0.0565711 0)
(0 0.0565711 0)
(0 0.0565711 0)
(0 0.0565711 0)
(0 0.0565711 0)
(0 0.0565711 0)
(0 0.0565711 0)
(0 0.0565711 0)
(0 0.0565711 0)
(0 0.0565711 0)
(0 0.0565711 0)
(0 0.0565711 0)
(0 0.0565711 0)
(0 0.0565711 0)
(0 0 0)
(0 0 0)
(0 0 0)
(0 0 0)
(0 0 0)
(0 0 0)
(0 0 0)
(0 0 0)
(0 0 0)
(0 0 0)
(0 0 0)
(0 0 0)
(0 0 0)
(0 0 0)
(0 0 0)
(0 0 0)
(0 0 0)
(0 0 0)
(0 0 0)
(0 0 0)
(0 0 0)
(0 0 0)
(0 0 0)
(0 0 0)
(0 0 0)
(0 0 0)
(0 0 0)
(0 0 0)
(0 0 0)
(0 0 0)
(0 0 0)
(0 0 0)
(0 0 0)
(0 0 0)
(0 0 0)
(0 0 0)
(0 0 0)
(0 0 0)
(0 0 0)
(0 0 0)
(0 0 0)
(0 0 0)
(0 0 0)
(0 0 0)
(0 0 0)
(0 0 0)
(0 0 0)
(0 0 0)
(0 0 0)
(0 0 0)
(0 0 0)
(0 0 0)
(0 0 0)
(0 0 0)
(0 0 0)
(0 0 0)
(0 0 0)
(0 0 0)
(0 0 0)
(0 0 0)
(0 0 0)
(0 0 0)
(0 0 0)
(0 0 0)
(0 0 0)
(0 0 0)
(0 0 0)
(0 0 0)
(0 0 0)
(0 0 0)
(0 0 0)
(0 0 0)
(0 0 0)
(0 0 0)
(0 0 0)
(0 0 0)
(0 0 0)
(0 0 0)
(0 0 0)
(0 0 0)
(0 0 0)
(0 0 0)
(0 0 0)
(0 0 0)
(0 0 0)
(0 0 0)
(0 0 0)
(0 0 0)
(0 0 0)
(0 0 0)
(0 0 0)
(0 0 0)
(0 0 0)
(0 0 0)
(0 0 0)
(0 0 0)
(0 0 0)
(0 0 0)
(0 0 0)
(0 0 0)
(0 0 0)
(0 0 0)
(0 0 0)
(0 0 0)
(0 0 0)
(0 0 0)
(0 0 0)
(0 0 0)
(0 0 0)
(0 0 0)
(0 0 0)
(0 0 0)
(0 0 0)
(0 0 0)
(0 0 0)
(0 0 0)
(0 0 0)
(0 0 0)
(0 0 0)
(0 0 0)
(0 0 0)
(0 0 0)
(0 0 0)
(0 0 0)
(0 0 0)
(0 0 0)
(0 0 0)
(0 0 0)
(0 0 0)
(0 0 0)
(0 0.0565711 0)
(0 0.0565711 0)
(0 0.0565711 0)
(0 0.0565711 0)
(0 0.0565711 0)
(0 0.0565711 0)
(0 0.0565711 0)
(0 0.0565711 0)
(0 0.0565711 0)
(0 0.0565711 0)
(0 0.0565711 0)
(0 0.0565711 0)
(0 0.0565711 0)
(0 0.0565711 0)
(0 0.0565711 0)
(0 0.0565711 0)
(0 0.0565711 0)
(0 0.0565711 0)
(0 0.0565711 0)
(0 0.0565711 0)
(0 0.0565711 0)
(0 0.0565711 0)
(0 0.0565711 0)
(0 0.0565711 0)
(0 0.0565711 0)
(0 0.0565711 0)
(0 0.0565711 0)
(0 0.0565711 0)
(0 0.0565711 0)
(0 0.0565711 0)
(0 0.0565711 0)
(0 0.0565711 0)
(0 0.0565711 0)
(0 0.0565711 0)
(0 0.0565711 0)
(0 0.0565711 0)
(0 0.0565711 0)
(0 0.0565711 0)
(0 0.0565711 0)
(0 0.0565711 0)
(0 0.0565711 0)
(0 0.0565711 0)
(0 0.0565711 0)
(0 0.0565711 0)
(0 0.0565711 0)
(0 0.0565711 0)
(0 0.00187662 0)
(0 0.0565711 0)
(0 0.0565711 0)
(0 0.0565711 0)
(0 0.0021599 0)
(0 0.056571 0)
(0 0.00151618 0)
(0 0.000939722 0)
(0 0.000404121 0)
(0 0.00322648 0)
(0 0.00066616 0)
(0 0.00109704 0)
(0 0.0565711 0)
(0 0.00306941 0)
(0 0.000446419 0)
(0 0.00345747 0)
(0 0.00044686 0)
(0 0.00395596 0)
(0 0.0565711 0)
(0 0.000391609 0)
(0 0.000415766 0)
(0 0.000262928 0)
(0 0.000256814 0)
(0 0.000209089 0)
(0 0.00172625 0)
(0 0.000715533 0)
(0 0.0565711 0)
(0 0.0565711 0)
(0 0.0565711 0)
(0 0.000176088 0)
(0 0.0001187 0)
(0 0.0029959 0)
(0 0.00319148 0)
(0 0.00318497 0)
(0 0.00399893 0)
(0 0.00214379 0)
(0 0.00151559 0)
(0 0.000971713 0)
(0 0.000497798 0)
(0 0.000653431 0)
(0 0.000397618 0)
(0 0.000334949 0)
(0 0.000135152 0)
(0 0.0565711 0)
(0 0.0565711 0)
(0 7.12503e-05 0)
(0 6.84205e-05 0)
(0 0.00441814 0)
(0 0.00252245 0)
(0 0.00211301 0)
(0 0.00183273 0)
(0 0.00150876 0)
(0 0.00132568 0)
(0 0.000589813 0)
(0 0.000796622 0)
(0 0.00102989 0)
(0 0.000214642 0)
(0 0.000772368 0)
(0 0.000360829 0)
(0 0.000238962 0)
(0 0.000212534 0)
(0 0.000173666 0)
(0 0.000315891 0)
(0 3.43596e-05 0)
(0 0.053132 0)
(0 0.0529421 0)
(0 0.0532272 0)
(0 0.0530304 0)
(0 0.0533084 0)
(0 0.0531042 0)
(0 0.0533748 0)
(0 0.0531645 0)
(0 0.0534308 0)
(0 0.0532109 0)
(0 0.0534714 0)
(0 0.0532427 0)
(0 0.0534982 0)
(0 0.053261 0)
(0 0.0535135 0)
(0 0.0532688 0)
(0 0.0535147 0)
(0 0.0532711 0)
(0 0.0534978 0)
(0 0.0532471 0)
(0 0.053466 0)
(0 0.0531832 0)
(0 0.0534164 0)
(0 0.0531091 0)
(0 0.0533468 0)
(0 0.0530322 0)
(0 0.0532509 0)
(0 0.0529363 0)
(0 0.0531595 0)
(0 0.0528327 0)
(0 0.0530673 0)
(0 0.0527183 0)
(0 0.052938 0)
(0 0.0525706 0)
(0 0.0527782 0)
(0 0.0523472 0)
(0 0.0521764 0)
(0 0.0519472 0)
(0 0.0166186 0)
(0 0.0160937 0)
(0 0.0517596 0)
(0 0.0515209 0)
(0 0.0162294 0)
(0 0.0157278 0)
(0 0.0513164 0)
(0 0.0510671 0)
(0 0.0158599 0)
(0 0.0153559 0)
(0 0.0154921 0)
(0 0.0149829 0)
(0 0.0508423 0)
(0 0.0505864 0)
(0 0.0150977 0)
(0 0.0146033 0)
(0 0.0503378 0)
(0 0.0500708 0)
(0 0.0146916 0)
(0 0.0142123 0)
(0 0.0141182 0)
(0 0.0497964 0)
(0 0.049513 0)
(0 0.0500915 0)
(0 0.0142789 0)
(0 0.013813 0)
(0 0.0492091 0)
(0 0.0489151 0)
(0 0.0138648 0)
(0 0.0143032 0)
(0 0.013408 0)
(0 0.0537213 0)
(0 0.0531423 0)
(0 0.0529805 0)
(0 0.053334 0)
(0 0.0531898 0)
(0 0.0535113 0)
(0 0.0533617 0)
(0 0.0536683 0)
(0 0.0535026 0)
(0 0.0538125 0)
(0 0.053645 0)
(0 0.0539456 0)
(0 0.053772 0)
(0 0.0540694 0)
(0 0.0538857 0)
(0 0.0541755 0)
(0 0.0539902 0)
(0 0.0542656 0)
(0 0.054086 0)
(0 0.0543507 0)
(0 0.0541697 0)
(0 0.0544246 0)
(0 0.0542406 0)
(0 0.0544886 0)
(0 0.0543022 0)
(0 0.0540377 0)
(0 0.0540965 0)
(0 0.0543598 0)
(0 0.0541539 0)
(0 0.0544057 0)
(0 0.0541948 0)
(0 0.0544391 0)
(0 0.054228 0)
(0 0.05447 0)
(0 0.0542421 0)
(0 0.0544851 0)
(0 0.0542577 0)
(0 0.0544878 0)
(0 0.0542929 0)
(0 0.0545021 0)
(0 0.0543054 0)
(0 0.0545131 0)
(0 0.0542992 0)
(0 0.0545053 0)
(0 0.0542842 0)
(0 0.0544881 0)
(0 0.0542657 0)
(0 0.0544725 0)
(0 0.054245 0)
(0 0.0544557 0)
(0 0.0542216 0)
(0 0.0544317 0)
(0 0.0541936 0)
(0 0.0544031 0)
(0 0.0541629 0)
(0 0.0538156 0)
(0 0.0540605 0)
(0 0.0539907 0)
(0 0.0542297 0)
(0 0.0134444 0)
(0 0.0129967 0)
(0 0.0485811 0)
(0 0.0482849 0)
(0 0.0546429 0)
(0 0.0130168 0)
(0 0.0125787 0)
(0 0.0479167 0)
(0 0.0476203 0)
(0 0.0125815 0)
(0 0.0121557 0)
(0 0.0121432 0)
(0 0.0472205 0)
(0 0.0469206 0)
(0 0.012139 0)
(0 0.0117286 0)
(0 0.0547365 0)
(0 0.0464967 0)
(0 0.0461846 0)
(0 0.0467586 0)
(0 0.0546582 0)
(0 0.0116929 0)
(0 0.0120617 0)
(0 0.0112993 0)
(0 0.0457335 0)
(0 0.0454131 0)
(0 0.0112519 0)
(0 0.010869 0)
(0 0.0108122 0)
(0 0.0104381 0)
(0 0.0449333 0)
(0 0.0446071 0)
(0 0.0103756 0)
(0 0.0100072 0)
(0 0.0100595 0)
(0 0.0440931 0)
(0 0.0437582 0)
(0 0.00964095 0)
(0 0.00968981 0)
(0 0.00957644 0)
(0 0.0432173 0)
(0 0.0428911 0)
(0 0.0433888 0)
(0 0.042547 0)
(0 0.0430322 0)
(0 0.0421946 0)
(0 0.0426864 0)
(0 0.0418203 0)
(0 0.0412925 0)
(0 0.0409193 0)
(0 0.041423 0)
(0 0.0405479 0)
(0 0.00922025 0)
(0 0.00914879 0)
(0 0.0399785 0)
(0 0.0396128 0)
(0 0.0401821 0)
(0 0.0392399 0)
(0 0.0530369 0)
(0 0.00881548 0)
(0 0.00872497 0)
(0 0.0397967 0)
(0 0.0388504 0)
(0 0.0382608 0)
(0 0.0378757 0)
(0 0.0384547 0)
(0 0.0374771 0)
(0 0.0380405 0)
(0 0.0370607 0)
(0 0.0375971 0)
(0 0.0366275 0)
(0 0.0371455 0)
(0 0.0361848 0)
(0 0.0356333 0)
(0 0.0352002 0)
(0 0.0486118 0)
(0 0.00837526 0)
(0 0.00830081 0)
(0 0.0357369 0)
(0 0.0347614 0)
(0 0.0341903 0)
(0 0.0337598 0)
(0 0.0343166 0)
(0 0.0333236 0)
(0 0.0338642 0)
(0 0.0328807 0)
(0 0.00796363 0)
(0 0.00788121 0)
(0 0.00823485 0)
(0 0.0323085 0)
(0 0.031878 0)
(0 0.0324328 0)
(0 0.031442 0)
(0 0.0319786 0)
(0 0.030997 0)
(0 0.031516 0)
(0 0.0305442 0)
(0 0.0310452 0)
(0 0.0300857 0)
(0 0.0295558 0)
(0 0.0291099 0)
(0 0.0296247 0)
(0 0.0286638 0)
(0 0.00755452 0)
(0 0.00766183 0)
(0 0.00746161 0)
(0 0.0281176 0)
(0 0.027687 0)
(0 0.0282153 0)
(0 0.0272528 0)
(0 0.0277615 0)
(0 0.0268125 0)
(0 0.0273122 0)
(0 0.0263681 0)
(0 0.0258537 0)
(0 0.0254245 0)
(0 0.0259161 0)
(0 0.0249911 0)
(0 0.0254579 0)
(0 0.0245559 0)
(0 0.0240576 0)
(0 0.0236441 0)
(0 0.0241211 0)
(0 0.0232286 0)
(0 0.0236796 0)
(0 0.0228093 0)
(0 0.00714421 0)
(0 0.0070469 0)
(0 0.0223301 0)
(0 0.0219336 0)
(0 0.0223915 0)
(0 0.0215342 0)
(0 0.0219729 0)
(0 0.0211321 0)
(0 0.021552 0)
(0 0.0207296 0)
(0 0.0202867 0)
(0 0.0199026 0)
(0 0.0203266 0)
(0 0.0195164 0)
(0 0.0199196 0)
(0 0.019128 0)
(0 0.0187065 0)
(0 0.0183371 0)
(0 0.0537144 0)
(0 0.0563426 0)
(0 0.056303 0)
(0 0.0563252 0)
(0 0.0562835 0)
(0 0.0563051 0)
(0 0.0562558 0)
(0 0.0562821 0)
(0 0.0562347 0)
(0 0.0562578 0)
(0 0.0562077 0)
(0 0.0562313 0)
(0 0.0562791 0)
(0 0.0562532 0)
(0 0.0562988 0)
(0 0.0562703 0)
(0 0.0563163 0)
(0 0.0562852 0)
(0 0.0563288 0)
(0 0.0562973 0)
(0 0.0563374 0)
(0 0.0563046 0)
(0 0.0563444 0)
(0 0.0563102 0)
(0 0.0563493 0)
(0 0.056267 0)
(0 0.056183 0)
(0 0.0563133 0)
(0 0.0563514 0)
(0 0.00674803 0)
(0 0.00663763 0)
(0 0.0561796 0)
(0 0.0380807 0)
(0 0.0178964 0)
(0 0.0175465 0)
(0 0.0435308 0)
(0 0.0195104 0)
(0 0.0563148 0)
(0 0.056351 0)
(0 0.0312726 0)
(0 0.0372509 0)
(0 0.00635806 0)
(0 0.00623221 0)
(0 0.00653032 0)
(0 0.0426154 0)
(0 0.0429098 0)
(0 0.0419537 0)
(0 0.0422339 0)
(0 0.0412312 0)
(0 0.041501 0)
(0 0.0404452 0)
(0 0.0406924 0)
(0 0.0395856 0)
(0 0.0398024 0)
(0 0.0563791 0)
(0 0.0563125 0)
(0 0.0563477 0)
(0 0.0170866 0)
(0 0.0167566 0)
(0 0.0535713 0)
(0 0.03199 0)
(0 0.0386386 0)
(0 0.0388393 0)
(0 0.0400136 0)
(0 0.0390277 0)
(0 0.0401981 0)
(0 0.0391916 0)
(0 0.0403614 0)
(0 0.0393372 0)
(0 0.040508 0)
(0 0.0394645 0)
(0 0.0406331 0)
(0 0.0395661 0)
(0 0.0407347 0)
(0 0.0396398 0)
(0 0.0408149 0)
(0 0.039693 0)
(0 0.0408686 0)
(0 0.0397218 0)
(0 0.0408966 0)
(0 0.039725 0)
(0 0.0409005 0)
(0 0.0397022 0)
(0 0.0408796 0)
(0 0.0396559 0)
(0 0.0408324 0)
(0 0.00595816 0)
(0 0.0061027 0)
(0 0.00582789 0)
(0 0.0395885 0)
(0 0.0407624 0)
(0 0.0563059 0)
(0 0.0563411 0)
(0 0.0562679 0)
(0 0.039498 0)
(0 0.0406688 0)
(0 0.0162788 0)
(0 0.0159692 0)
(0 0.0164254 0)
(0 0.0156573 0)
(0 0.0393856 0)
(0 0.0405489 0)
(0 0.00556467 0)
(0 0.00542943 0)
(0 0.0376202 0)
(0 0.0562975 0)
(0 0.0563315 0)
(0 0.0392374 0)
(0 0.0404002 0)
(0 0.0418545 0)
(0 0.0160922 0)
(0 0.0153415 0)
(0 0.0148925 0)
(0 0.014595 0)
(0 0.0390577 0)
(0 0.040229 0)
(0 0.0563661 0)
(0 0.0419768 0)
(0 0.0141325 0)
(0 0.0138567 0)
(0 0.0388615 0)
(0 0.0400402 0)
(0 0.0413462 0)
(0 0.0411697 0)
(0 0.0398357 0)
(0 0.0409967 0)
(0 0.0396149 0)
(0 0.0407829 0)
(0 0.039367 0)
(0 0.0405389 0)
(0 0.0562864 0)
(0 0.0563196 0)
(0 0.0563596 0)
(0 0.0563488 0)
(0 0.0563055 0)
(0 0.0563344 0)
(0 0.056376 0)
(0 0.0563605 0)
(0 0.0563166 0)
(0 0.0563409 0)
(0 0.0563824 0)
(0 0.0563628 0)
(0 0.0564001 0)
(0 0.0563823 0)
(0 0.056416 0)
(0 0.0563994 0)
(0 0.0564289 0)
(0 0.0564134 0)
(0 0.0564404 0)
(0 0.0564251 0)
(0 0.0564516 0)
(0 0.0564352 0)
(0 0.05646 0)
(0 0.0564437 0)
(0 0.0564663 0)
(0 0.0564507 0)
(0 0.056472 0)
(0 0.0564564 0)
(0 0.056477 0)
(0 0.0564618 0)
(0 0.0564813 0)
(0 0.0564671 0)
(0 0.056485 0)
(0 0.0564712 0)
(0 0.0564882 0)
(0 0.0564749 0)
(0 0.0564912 0)
(0 0.0564784 0)
(0 0.056494 0)
(0 0.0564811 0)
(0 0.0564959 0)
(0 0.0564834 0)
(0 0.0564973 0)
(0 0.0564851 0)
(0 0.0564988 0)
(0 0.0564865 0)
(0 0.0564697 0)
(0 0.0564569 0)
(0 0.0564267 0)
(0 0.0563832 0)
(0 0.0562951 0)
(0 0.0565111 0)
(0 0.0565057 0)
(0 0.0390917 0)
(0 0.040249 0)
(0 0.0419366 0)
(0 0.0382267 0)
(0 0.00518262 0)
(0 0.00504621 0)
(0 0.0387857 0)
(0 0.0399309 0)
(0 0.0150129 0)
(0 0.0160555 0)
(0 0.0384554 0)
(0 0.0396152 0)
(0 0.0564946 0)
(0 0.0133786 0)
(0 0.0131243 0)
(0 0.0048102 0)
(0 0.00467255 0)
(0 0.00488533 0)
(0 0.0384637 0)
(0 0.0564474 0)
(0 0.0563853 0)
(0 0.0044476 0)
(0 0.00456713 0)
(0 0.0126315 0)
(0 0.0123973 0)
(0 0.00430662 0)
(0 0.0383342 0)
(0 0.0529412 0)
(0 0.0118922 0)
(0 0.0116789 0)
(0 0.0121022 0)
(0 0.01216 0)
(0 0.0114614 0)
(0 0.0119193 0)
(0 0.0112396 0)
(0 0.00409488 0)
(0 0.00395307 0)
(0 0.011675 0)
(0 0.0110139 0)
(0 0.0105689 0)
(0 0.0103623 0)
(0 0.0374358 0)
(0 0.0363536 0)
(0 0.0361888 0)
(0 0.0350377 0)
(0 0.0348794 0)
(0 0.0336604 0)
(0 0.0335092 0)
(0 0.0378298 0)
(0 0.0508198 0)
(0 0.0546616 0)
(0 0.0322403 0)
(0 0.0321016 0)
(0 0.00990791 0)
(0 0.00972048 0)
(0 0.0101521 0)
(0 0.00952911 0)
(0 0.037893 0)
(0 0.00375339 0)
(0 0.0036119 0)
(0 0.00908921 0)
(0 0.00891635 0)
(0 0.0165865 0)
(0 0.0307897 0)
(0 0.0306647 0)
(0 0.030913 0)
(0 0.0113503 0)
(0 0.0115339 0)
(0 0.00993943 0)
(0 0.00342249 0)
(0 0.00328355 0)
(0 0.00344311 0)
(0 0.00846908 0)
(0 0.00831433 0)
(0 0.029291 0)
(0 0.0291895 0)
(0 0.0535177 0)
(0 0.01077 0)
(0 0.0109251 0)
(0 0.00310395 0)
(0 0.00323367 0)
(0 0.0029602 0)
(0 0.00786076 0)
(0 0.00772378 0)
(0 0.0457249 0)
(0 0.0453484 0)
(0 0.0459 0)
(0 0.0455114 0)
(0 0.0460533 0)
(0 0.0456554 0)
(0 0.0462564 0)
(0 0.0457766 0)
(0 0.0463165 0)
(0 0.0458515 0)
(0 0.0463756 0)
(0 0.0459044 0)
(0 0.0453231 0)
(0 0.0464143 0)
(0 0.0459323 0)
(0 0.0464291 0)
(0 0.0459171 0)
(0 0.0464162 0)
(0 0.0469336 0)
(0 0.0458778 0)
(0 0.0469139 0)
(0 0.0474245 0)
(0 0.0473959 0)
(0 0.0478984 0)
(0 0.0277507 0)
(0 0.0276771 0)
(0 0.0538146 0)
(0 0.0564807 0)
(0 0.041607 0)
(0 0.00276614 0)
(0 0.00264972 0)
(0 0.010151 0)
(0 0.0102768 0)
(0 0.00726528 0)
(0 0.00714589 0)
(0 0.00758134 0)
(0 0.00701999 0)
(0 0.00737827 0)
(0 0.00743301 0)
(0 0.0068879 0)
(0 0.00647171 0)
(0 0.00635588 0)
(0 0.0465923 0)
(0 0.00727905 0)
(0 0.0559693 0)
(0 0.0558881 0)
(0 0.0559596 0)
(0 0.047862 0)
(0 0.048356 0)
(0 0.0223594 0)
(0 0.0282503 0)
(0 0.0107339 0)
(0 0.0152083 0)
(0 0.0214287 0)
(0 0.0473467 0)
(0 0.027923 0)
(0 0.0230836 0)
(0 0.020814 0)
(0 0.0271115 0)
(0 0.0424177 0)
(0 0.0261774 0)
(0 0.0261331 0)
(0 0.0275839 0)
(0 0.0260699 0)
(0 0.027477 0)
(0 0.0259889 0)
(0 0.0273516 0)
(0 0.0258815 0)
(0 0.0272057 0)
(0 0.0257513 0)
(0 0.0243776 0)
(0 0.0242698 0)
(0 0.0256182 0)
(0 0.0241609 0)
(0 0.0262003 0)
(0 0.0531524 0)
(0 0.0245659 0)
(0 0.0453795 0)
(0 0.0453107 0)
(0 0.0448 0)
(0 0.044709 0)
(0 0.0441858 0)
(0 0.00576667 0)
(0 0.00617515 0)
(0 0.00588425 0)
(0 0.00547828 0)
(0 0.00558814 0)
(0 0.00599132 0)
(0 0.00568757 0)
(0 0.00528753 0)
(0 0.00538007 0)
(0 0.00608696 0)
(0 0.00498281 0)
(0 0.00506933 0)
(0 0.00467466 0)
(0 0.00475596 0)
(0 0.00514526 0)
(0 0.00482663 0)
(0 0.00458351 0)
(0 0.00520978 0)
(0 0.00488609 0)
(0 0.0024785 0)
(0 0.00450684 0)
(0 0.00456202 0)
(0 0.00235907 0)
(0 0.00249208 0)
(0 0.0227603 0)
(0 0.0226819 0)
(0 0.0240398 0)
(0 0.0225898 0)
(0 0.0539395 0)
(0 0.0368752 0)
(0 0.0540738 0)
(0 0.0539473 0)
(0 0.0528218 0)
(0 0.0558765 0)
(0 0.0559491 0)
(0 0.00593698 0)
(0 0.00583722 0)
(0 0.0527313 0)
(0 0.00949258 0)
(0 0.00959287 0)
(0 0.0560258 0)
(0 0.0560152 0)
(0 0.0559376 0)
(0 0.0560036 0)
(0 0.0559248 0)
(0 0.055992 0)
(0 0.0559088 0)
(0 0.0559772 0)
(0 0.055888 0)
(0 0.0559588 0)
(0 0.0562333 0)
(0 0.023904 0)
(0 0.0224822 0)
(0 0.0483117 0)
(0 0.0487966 0)
(0 0.0211267 0)
(0 0.0210497 0)
(0 0.0223641 0)
(0 0.0209562 0)
(0 0.0222323 0)
(0 0.0208475 0)
(0 0.0220921 0)
(0 0.0207307 0)
(0 0.0194542 0)
(0 0.0193675 0)
(0 0.0206048 0)
(0 0.0192688 0)
(0 0.0558654 0)
(0 0.055938 0)
(0 0.00526221 0)
(0 0.00220849 0)
(0 0.00232018 0)
(0 0.0103944 0)
(0 0.00968502 0)
(0 0.0105027 0)
(0 0.00976221 0)
(0 0.0106064 0)
(0 0.00982711 0)
(0 0.0107034 0)
(0 0.00418656 0)
(0 0.00423824 0)
(0 0.00988163 0)
(0 0.0107875 0)
(0 0.0204655 0)
(0 0.0191551 0)
(0 0.017946 0)
(0 0.0178454 0)
(0 0.01903 0)
(0 0.0177474 0)
(0 0.0188934 0)
(0 0.0176402 0)
(0 0.0187448 0)
(0 0.0175205 0)
(0 0.0163873 0)
(0 0.0162981 0)
(0 0.0173911 0)
(0 0.0161979 0)
(0 0.0172514 0)
(0 0.0160862 0)
(0 0.00207963 0)
(0 0.0150123 0)
(0 0.0149282 0)
(0 0.0159641 0)
(0 0.0148327 0)
(0 0.0440814 0)
(0 0.043553 0)
(0 0.0451064 0)
(0 0.00992706 0)
(0 0.00541671 0)
(0 0.00533268 0)
(0 0.00573045 0)
(0 0.00524088 0)
(0 0.00561637 0)
(0 0.00514155 0)
(0 0.0487423 0)
(0 0.00476604 0)
(0 0.00468112 0)
(0 0.0535576 0)
(0 0.0492205 0)
(0 0.0492603 0)
(0 0.0554466 0)
(0 0.0553071 0)
(0 0.0553819 0)
(0 0.0552385 0)
(0 0.0553131 0)
(0 0.0560858 0)
(0 0.019658 0)
(0 0.056556 0)
(0 0.0565495 0)
(0 0.0565531 0)
(0 0.0565471 0)
(0 0.0565507 0)
(0 0.0565444 0)
(0 0.0565483 0)
(0 0.056541 0)
(0 0.0565454 0)
(0 0.0565369 0)
(0 0.0565415 0)
(0 0.0565492 0)
(0 0.0565454 0)
(0 0.0565522 0)
(0 0.0565486 0)
(0 0.0565321 0)
(0 0.0565548 0)
(0 0.0565514 0)
(0 0.0565443 0)
(0 0.0565472 0)
(0 0.0565545 0)
(0 0.0565495 0)
(0 0.056542 0)
(0 0.0565445 0)
(0 0.0565514 0)
(0 0.0565465 0)
(0 0.056553 0)
(0 0.056548 0)
(0 0.0565542 0)
(0 0.0565489 0)
(0 0.0565548 0)
(0 0.0565492 0)
(0 0.0565549 0)
(0 0.0565489 0)
(0 0.0565543 0)
(0 0.0565366 0)
(0 0.0565554 0)
(0 0.0565482 0)
(0 0.056553 0)
(0 0.056542 0)
(0 0.0565417 0)
(0 0.0565359 0)
(0 0.0558386 0)
(0 0.0559139 0)
(0 0.0158254 0)
(0 0.0137764 0)
(0 0.0088064 0)
(0 0.0038666 0)
(0 0.00391551 0)
(0 0.00427886 0)
(0 0.00395358 0)
(0 0.0332773 0)
(0 0.0551586 0)
(0 0.00194856 0)
(0 0.0018182 0)
(0 0.0165864 0)
(0 0.0560638 0)
(0 0.0558425 0)
(0 0.0558113 0)
(0 0.0558877 0)
(0 0.049158 0)
(0 0.0486615 0)
(0 0.0054954 0)
(0 0.0550846 0)
(0 0.00430777 0)
(0 0.00398021 0)
(0 0.00363077 0)
(0 0.003656 0)
(0 0.0565465 0)
(0 0.056551 0)
(0 0.0557852 0)
(0 0.0558579 0)
(0 0.0557532 0)
(0 0.0558231 0)
(0 0.049673 0)
(0 0.0496984 0)
(0 0.0468449 0)
(0 0.00430625 0)
(0 0.00423562 0)
(0 0.0137093 0)
(0 0.01263 0)
(0 0.0434321 0)
(0 0.0429041 0)
(0 0.0430229 0)
(0 0.0423682 0)
(0 0.0424805 0)
(0 0.0418231 0)
(0 0.0419301 0)
(0 0.0412635 0)
(0 0.0413681 0)
(0 0.0407121 0)
(0 0.0407826 0)
(0 0.0401496 0)
(0 0.0401846 0)
(0 0.0395386 0)
(0 0.0395803 0)
(0 0.0389223 0)
(0 0.0389691 0)
(0 0.0383145 0)
(0 0.0439525 0)
(0 0.0383488 0)
(0 0.0376975 0)
(0 0.0388349 0)
(0 0.0377204 0)
(0 0.0370736 0)
(0 0.0370251 0)
(0 0.0364047 0)
(0 0.0364431 0)
(0 0.0357785 0)
(0 0.0408318 0)
(0 0.0405276 0)
(0 0.0358062 0)
(0 0.0351461 0)
(0 0.035098 0)
(0 0.03447 0)
(0 0.03451 0)
(0 0.033842 0)
(0 0.0338712 0)
(0 0.0332119 0)
(0 0.0332303 0)
(0 0.0325742 0)
(0 0.0325837 0)
(0 0.0319331 0)
(0 0.031903 0)
(0 0.0312689 0)
(0 0.0312954 0)
(0 0.0306379 0)
(0 0.0305865 0)
(0 0.0299625 0)
(0 0.0337788 0)
(0 0.0300096 0)
(0 0.0293424 0)
(0 0.0292708 0)
(0 0.0286617 0)
(0 0.0287222 0)
(0 0.0280532 0)
(0 0.028101 0)
(0 0.0274451 0)
(0 0.0274813 0)
(0 0.0268383 0)
(0 0.0268637 0)
(0 0.0262331 0)
(0 0.0262482 0)
(0 0.0256304 0)
(0 0.00872243 0)
(0 0.0286326 0)
(0 0.00803173 0)
(0 0.0554491 0)
(0 0.0553793 0)
(0 0.00331114 0)
(0 0.00333571 0)
(0 0.0557139 0)
(0 0.0557838 0)
(0 0.0549984 0)
(0 0.0202816 0)
(0 0.0198543 0)
(0 0.0206048 0)
(0 0.02016 0)
(0 0.0208897 0)
(0 0.0204281 0)
(0 0.0560024 0)
(0 0.00427738 0)
(0 0.00418158 0)
(0 0.00387683 0)
(0 0.00377662 0)
(0 0.00549325 0)
(0 0.00497211 0)
(0 0.00502415 0)
(0 0.0273748 0)
(0 0.00901162 0)
(0 0.00169362 0)
(0 0.00157223 0)
(0 0.00167309 0)
(0 0.0234537 0)
(0 0.0565571 0)
(0 0.0565551 0)
(0 0.0565477 0)
(0 0.0565529 0)
(0 0.0565583 0)
(0 0.0565559 0)
(0 0.0565606 0)
(0 0.0565583 0)
(0 0.0565622 0)
(0 0.0565601 0)
(0 0.0565634 0)
(0 0.0565615 0)
(0 0.0565645 0)
(0 0.0565627 0)
(0 0.0565653 0)
(0 0.0565636 0)
(0 0.0565605 0)
(0 0.0565616 0)
(0 0.0565644 0)
(0 0.0565625 0)
(0 0.056565 0)
(0 0.0565632 0)
(0 0.0565656 0)
(0 0.0565639 0)
(0 0.056566 0)
(0 0.0565645 0)
(0 0.0565664 0)
(0 0.056565 0)
(0 0.0565668 0)
(0 0.0565653 0)
(0 0.056567 0)
(0 0.0565656 0)
(0 0.0565673 0)
(0 0.0565659 0)
(0 0.0565675 0)
(0 0.0565663 0)
(0 0.0565677 0)
(0 0.0565665 0)
(0 0.0565648 0)
(0 0.0565651 0)
(0 0.0565668 0)
(0 0.0565654 0)
(0 0.056567 0)
(0 0.0565656 0)
(0 0.0565672 0)
(0 0.0565659 0)
(0 0.0565631 0)
(0 0.0565635 0)
(0 0.0565621 0)
(0 0.056558 0)
(0 0.0565504 0)
(0 0.00796712 0)
(0 0.0555065 0)
(0 0.0554378 0)
(0 0.0553015 0)
(0 0.0553597 0)
(0 0.0554915 0)
(0 0.0554111 0)
(0 0.0555392 0)
(0 0.0554554 0)
(0 0.0555796 0)
(0 0.055493 0)
(0 0.0556134 0)
(0 0.0555231 0)
(0 0.0556407 0)
(0 0.055547 0)
(0 0.0554207 0)
(0 0.0554414 0)
(0 0.0555645 0)
(0 0.0554559 0)
(0 0.0555761 0)
(0 0.0554639 0)
(0 0.0555822 0)
(0 0.0554647 0)
(0 0.0555802 0)
(0 0.0553454 0)
(0 0.0553224 0)
(0 0.0553074 0)
(0 0.0554585 0)
(0 0.0555699 0)
(0 0.025591 0)
(0 0.0250052 0)
(0 0.0250308 0)
(0 0.0244243 0)
(0 0.0498559 0)
(0 0.0554439 0)
(0 0.0555526 0)
(0 0.00432443 0)
(0 0.050288 0)
(0 0.0565583 0)
(0 0.0557982 0)
(0 0.0500976 0)
(0 0.0425034 0)
(0 0.0490692 0)
(0 0.0485535 0)
(0 0.0432788 0)
(0 0.0437886 0)
(0 0.0565681 0)
(0 0.01997 0)
(0 0.0125962 0)
(0 0.0549186 0)
(0 0.00386221 0)
(0 0.00380565 0)
(0 0.0041569 0)
(0 0.00374023 0)
(0 0.055921 0)
(0 0.0565673 0)
(0 0.0548258 0)
(0 0.0244343 0)
(0 0.0238346 0)
(0 0.00726941 0)
(0 0.0072285 0)
(0 0.0114949 0)
(0 0.0114916 0)
(0 0.00339142 0)
(0 0.00333926 0)
(0 0.00366627 0)
(0 0.00327794 0)
(0 0.00144533 0)
(0 0.00155389 0)
(0 0.0554213 0)
(0 0.0555291 0)
(0 0.0553051 0)
(0 0.0556524 0)
(0 0.0556279 0)
(0 0.0554995 0)
(0 0.0555973 0)
(0 0.0565686 0)
(0 0.0186547 0)
(0 0.00347261 0)
(0 0.00336846 0)
(0 0.00450294 0)
(0 0.00452947 0)
(0 0.0402088 0)
(0 0.0197164 0)
(0 0.0199681 0)
(0 0.0192734 0)
(0 0.0195095 0)
(0 0.0188307 0)
(0 0.0190515 0)
(0 0.0183889 0)
(0 0.0185943 0)
(0 0.017948 0)
(0 0.0181382 0)
(0 0.0175085 0)
(0 0.0176843 0)
(0 0.0170716 0)
(0 0.0182955 0)
(0 0.0178282 0)
(0 0.0184205 0)
(0 0.0179408 0)
(0 0.0185141 0)
(0 0.0190092 0)
(0 0.0190829 0)
(0 0.018577 0)
(0 0.0107813 0)
(0 0.0103395 0)
(0 0.0104651 0)
(0 0.00997936 0)
(0 0.0101416 0)
(0 0.00970002 0)
(0 0.00982749 0)
(0 0.00940064 0)
(0 0.00950295 0)
(0 0.00908253 0)
(0 0.00917076 0)
(0 0.00299551 0)
(0 0.00302014 0)
(0 0.00295996 0)
(0 0.00334874 0)
(0 0.00303329 0)
(0 0.00132695 0)
(0 0.0515499 0)
(0 0.0556692 0)
(0 0.0557412 0)
(0 0.0556817 0)
(0 0.049996 0)
(0 0.0504191 0)
(0 0.0495599 0)
(0 0.0238408 0)
(0 0.0556714 0)
(0 0.0191256 0)
(0 0.0557181 0)
(0 0.0557525 0)
(0 0.0430893 0)
(0 0.043589 0)
(0 0.0114926 0)
(0 0.0125427 0)
(0 0.0389868 0)
(0 0.056564 0)
(0 0.00366856 0)
(0 0.00325701 0)
(0 0.00355266 0)
(0 0.00313865 0)
(0 0.00343078 0)
(0 0.00652259 0)
(0 0.00650763 0)
(0 0.0065913 0)
(0 0.0186094 0)
(0 0.00271016 0)
(0 0.00272453 0)
(0 0.00303456 0)
(0 0.00272721 0)
(0 0.0112343 0)
(0 0.0554614 0)
(0 0.0232553 0)
(0 0.0232455 0)
(0 0.0249452 0)
(0 0.016878 0)
(0 0.0164575 0)
(0 0.00875079 0)
(0 0.00883471 0)
(0 0.0162467 0)
(0 0.0158427 0)
(0 0.0160389 0)
(0 0.0154403 0)
(0 0.0156219 0)
(0 0.0150389 0)
(0 0.0148417 0)
(0 0.0144563 0)
(0 0.0146393 0)
(0 0.0140727 0)
(0 0.013875 0)
(0 0.0135074 0)
(0 0.0132949 0)
(0 0.012944 0)
(0 0.0142417 0)
(0 0.00295449 0)
(0 0.00290549 0)
(0 0.0115994 0)
(0 0.00121713 0)
(0 0.0281142 0)
(0 0.0103716 0)
(0 0.0565667 0)
(0 0.0338729 0)
(0 0.0117148 0)
(0 0.0104003 0)
(0 0.0496913 0)
(0 0.0489549 0)
(0 0.0494627 0)
(0 0.0484203 0)
(0 0.0254588 0)
(0 0.0556192 0)
(0 0.00110938 0)
(0 0.055686 0)
(0 0.0558 0)
(0 0.0556902 0)
(0 0.0547411 0)
(0 0.0546417 0)
(0 0.00959218 0)
(0 0.0123425 0)
(0 0.00782036 0)
(0 0.00764518 0)
(0 0.00818195 0)
(0 0.0079865 0)
(0 0.00851802 0)
(0 0.00830346 0)
(0 0.00882902 0)
(0 0.00859636 0)
(0 0.00911505 0)
(0 0.00808579 0)
(0 0.0434924 0)
(0 0.00358371 0)
(0 0.00306472 0)
(0 0.0127157 0)
(0 0.012387 0)
(0 0.00242307 0)
(0 0.00242782 0)
(0 0.00840432 0)
(0 0.0084858 0)
(0 0.0351987 0)
(0 0.049342 0)
(0 0.0498399 0)
(0 0.0157599 0)
(0 0.0160438 0)
(0 0.0191383 0)
(0 0.00400896 0)
(0 0.0040092 0)
(0 0.0428651 0)
(0 0.0423654 0)
(0 0.0433564 0)
(0 0.0440748 0)
(0 0.0186117 0)
(0 0.0180983 0)
(0 0.00831962 0)
(0 0.00258611 0)
(0 0.00254927 0)
(0 0.0501105 0)
(0 0.0504975 0)
(0 0.00578725 0)
(0 0.00580491 0)
(0 0.0125968 0)
(0 0.0120694 0)
(0 0.0497237 0)
(0 0.00886546 0)
(0 0.00806696 0)
(0 0.00813549 0)
(0 0.00773703 0)
(0 0.00778776 0)
(0 0.0492461 0)
(0 0.011846 0)
(0 0.0196765 0)
(0 0.0565577 0)
(0 0.00925967 0)
(0 0.00932051 0)
(0 0.00937611 0)
(0 0.00720126 0)
(0 0.00302358 0)
(0 0.0201854 0)
(0 0.0010114 0)
(0 0.0503344 0)
(0 0.0498686 0)
(0 0.0504753 0)
(0 0.0500112 0)
(0 0.050603 0)
(0 0.0501402 0)
(0 0.0507218 0)
(0 0.05026 0)
(0 0.0508267 0)
(0 0.0503691 0)
(0 0.0509187 0)
(0 0.050467 0)
(0 0.0510008 0)
(0 0.05055 0)
(0 0.0510717 0)
(0 0.0506195 0)
(0 0.0500777 0)
(0 0.0501335 0)
(0 0.0506795 0)
(0 0.0501674 0)
(0 0.0507243 0)
(0 0.0502135 0)
(0 0.0507242 0)
(0 0.0502375 0)
(0 0.0507178 0)
(0 0.0502508 0)
(0 0.0507444 0)
(0 0.0502603 0)
(0 0.0507653 0)
(0 0.0502547 0)
(0 0.0507663 0)
(0 0.0502293 0)
(0 0.0496943 0)
(0 0.0496623 0)
(0 0.0501902 0)
(0 0.0496172 0)
(0 0.0501333 0)
(0 0.0495547 0)
(0 0.0500619 0)
(0 0.0494746 0)
(0 0.0495118 0)
(0 0.0497052 0)
(0 0.0496514 0)
(0 0.0490978 0)
(0 0.0499732 0)
(0 0.0493771 0)
(0 0.0488501 0)
(0 0.0487477 0)
(0 0.0481825 0)
(0 0.0480786 0)
(0 0.0506178 0)
(0 0.0498643 0)
(0 0.0512627 0)
(0 0.0510384 0)
(0 0.0474758 0)
(0 0.0473681 0)
(0 0.0479599 0)
(0 0.0472429 0)
(0 0.0511885 0)
(0 0.0513979 0)
(0 0.0478241 0)
(0 0.0470996 0)
(0 0.0475692 0)
(0 0.0468218 0)
(0 0.0469044 0)
(0 0.00092074 0)
(0 0.00101171 0)
(0 0.00454673 0)
(0 0.00399906 0)
(0 0.00455388 0)
(0 0.00397775 0)
(0 0.055766 0)
(0 0.0558741 0)
(0 0.0558998 0)
(0 0.00316561 0)
(0 0.00212941 0)
(0 0.00213699 0)
(0 0.00928489 0)
(0 0.0238164 0)
(0 0.02321 0)
(0 0.0438309 0)
(0 0.0445256 0)
(0 0.00275737 0)
(0 0.00285612 0)
(0 0.0425661 0)
(0 0.050497 0)
(0 0.0508736 0)
(0 0.0508717 0)
(0 0.0479119 0)
(0 0.0227039 0)
(0 0.0231803 0)
(0 0.00272125 0)
(0 0.0512355 0)
(0 0.0512242 0)
(0 0.05123 0)
(0 0.0555399 0)
(0 0.0554836 0)
(0 0.00739341 0)
(0 0.00743474 0)
(0 0.00781918 0)
(0 0.00745965 0)
(0 0.0421134 0)
(0 0.041621 0)
(0 0.00465714 0)
(0 0.00466383 0)
(0 0.0050019 0)
(0 0.00499873 0)
(0 0.00534252 0)
(0 0.004657 0)
(0 0.00223463 0)
(0 0.00220989 0)
(0 0.00250282 0)
(0 0.00217499 0)
(0 0.00224931 0)
(0 0.00911022 0)
(0 0.00961308 0)
(0 0.0045503 0)
(0 0.00394473 0)
(0 0.0191197 0)
(0 0.0185841 0)
(0 0.0122488 0)
(0 0.0476721 0)
(0 0.0469405 0)
(0 0.0463324 0)
(0 0.0483577 0)
(0 0.00936269 0)
(0 0.00816381 0)
(0 0.00825712 0)
(0 0.00805502 0)
(0 0.0555597 0)
(0 0.00184435 0)
(0 0.00185564 0)
(0 0.00213304 0)
(0 0.00185558 0)
(0 0.0130533 0)
(0 0.00507101 0)
(0 0.0548347 0)
(0 0.0546523 0)
(0 0.0547436 0)
(0 0.000821849 0)
(0 0.000899124 0)
(0 0.0497136 0)
(0 0.0502013 0)
(0 0.0480107 0)
(0 0.047855 0)
(0 0.000739627 0)
(0 0.00244656 0)
(0 0.00213004 0)
(0 0.00186429 0)
(0 0.00183048 0)
(0 0.00182218 0)
(0 0.0558392 0)
(0 0.0559397 0)
(0 0.0034903 0)
(0 0.00350685 0)
(0 0.00498084 0)
(0 0.00463631 0)
(0 0.0151991 0)
(0 0.0154612 0)
(0 0.016326 0)
(0 0.0157207 0)
(0 0.0166023 0)
(0 0.0159685 0)
(0 0.016873 0)
(0 0.016207 0)
(0 0.0171397 0)
(0 0.0164417 0)
(0 0.0174002 0)
(0 0.00708228 0)
(0 0.00710003 0)
(0 0.0493664 0)
(0 0.00244739 0)
(0 0.00254537 0)
(0 0.00234362 0)
(0 0.0442845 0)
(0 0.0564172 0)
(0 0.0461679 0)
(0 0.0455204 0)
(0 0.0545545 0)
(0 0.0546407 0)
(0 0.0563456 0)
(0 0.0547133 0)
(0 0.0489114 0)
(0 0.0237559 0)
(0 0.056466 0)
(0 0.0181531 0)
(0 0.0565596 0)
(0 0.0563797 0)
(0 0.00933407 0)
(0 0.00883811 0)
(0 0.0435527 0)
(0 0.0078337 0)
(0 0.0461124 0)
(0 0.0461873 0)
(0 0.0565004 0)
(0 0.0545146 0)
(0 0.0565683 0)
(0 0.0565085 0)
(0 0.00211705 0)
(0 0.00184361 0)
(0 0.00158915 0)
(0 0.0015819 0)
(0 0.0534796 0)
(0 0.0546831 0)
(0 0.0546922 0)
(0 0.0565665 0)
(0 0.0537837 0)
(0 0.054598 0)
(0 0.00936814 0)
(0 0.00832905 0)
(0 0.00721282 0)
(0 0.00731147 0)
(0 0.0166729 0)
(0 0.0176582 0)
(0 0.0156966 0)
(0 0.0548596 0)
(0 0.0563806 0)
(0 0.0416469 0)
(0 0.0512505 0)
(0 0.042006 0)
(0 0.0474373 0)
(0 0.0472591 0)
(0 0.0476684 0)
(0 0.047049 0)
(0 0.0464911 0)
(0 0.0556877 0)
(0 0.000649037 0)
(0 0.0559053 0)
(0 0.0231498 0)
(0 0.00988189 0)
(0 0.0556115 0)
(0 0.0448135 0)
(0 0.0482008 0)
(0 0.0488517 0)
(0 0.0559928 0)
(0 0.0560214 0)
(0 0.0558486 0)
(0 0.0565596 0)
(0 0.0565619 0)
(0 0.0565633 0)
(0 0.056565 0)
(0 0.0565661 0)
(0 0.0565673 0)
(0 0.056568 0)
(0 0.0565663 0)
(0 0.0565682 0)
(0 0.0565674 0)
(0 0.0565689 0)
(0 0.0565682 0)
(0 0.0565669 0)
(0 0.0565686 0)
(0 0.0565695 0)
(0 0.0565676 0)
(0 0.0565691 0)
(0 0.0565681 0)
(0 0.0565695 0)
(0 0.0565689 0)
(0 0.0120768 0)
(0 0.0127217 0)
(0 0.0504351 0)
(0 0.0503153 0)
(0 0.0508577 0)
(0 0.0507308 0)
(0 0.0512435 0)
(0 0.0511096 0)
(0 0.0513663 0)
(0 0.00299053 0)
(0 0.00302359 0)
(0 0.0515758 0)
(0 0.0515511 0)
(0 0.0557176 0)
(0 0.000575575 0)
(0 0.0289137 0)
(0 0.0213526 0)
(0 0.0216158 0)
(0 0.0220957 0)
(0 0.0490192 0)
(0 0.0112054 0)
(0 0.0243686 0)
(0 0.00558994 0)
(0 0.0253108 0)
(0 0.0563456 0)
(0 0.019593 0)
(0 0.0169412 0)
(0 0.00819909 0)
(0 0.0217924 0)
(0 0.0184179 0)