/*--------------------------------*- C++ -*----------------------------------*\
| =========                 |                                                 |
| \\      /  F ield         | OpenFOAM: The Open Source CFD Toolbox           |
|  \\    /   O peration     | Version:  v2012                                 |
|   \\  /    A nd           | Website:  www.openfoam.com                      |
|    \\/     M anipulation  |                                                 |
\*---------------------------------------------------------------------------*/
FoamFile
{
    version     2.0;
    format      ascii;
    class       volScalarField;
    location    "900";
    object      k;
}
// * * * * * * * * * * * * * * * * * * * * * * * * * * * * * * * * * * * * * //

dimensions      [0 2 -2 0 0 0 0];


internalField   nonuniform List<scalar> 
13851
(
0.000198338
0.000154506
0.000154304
0.0198118
0.000148432
0.000156943
0.000155165
0.000147598
0.0502837
0.000148389
0.000176146
0.000148444
0.000149014
0.0278908
0.000168362
0.000202054
0.0179778
0.000148489
0.000225936
0.000198125
0.000171329
0.000155815
0.0290446
0.000149734
0.0153458
0.000184445
0.000130647
0.00825368
0.0459965
0.000146703
0.0460131
0.00015514
0.000198382
0.0680056
0.000169504
0.0453996
0.00014981
0.01607
0.0664746
0.000148872
0.0680633
0.0479094
0.00640148
0.000214681
0.0507526
0.000147653
0.000145593
0.000200041
0.000152445
0.000148974
0.0251002
0.000149241
0.000201841
0.000163952
0.0261776
0.00014888
0.00019866
0.0656617
0.000133962
0.0289199
0.000148496
0.000226201
0.00014859
0.000152717
0.000180955
0.000181437
0.0234751
0.000166486
0.000149077
0.0288473
0.0413575
0.000175745
0.000148524
0.0256939
0.000165322
0.000152634
0.0234224
0.00014595
0.0112679
0.000147724
0.000149139
0.000228609
0.000169016
0.030032
0.0300896
0.0449522
0.000156062
0.0204722
0.000148336
0.0457742
0.000149358
0.000155304
0.00950545
0.0405732
0.0596954
0.000196821
0.000147817
0.000202047
0.0257895
0.000193186
0.000203038
0.000161999
0.000163013
0.000148795
0.000147638
0.000174395
0.000147633
0.0437534
0.000155271
0.000148339
0.000159628
0.000147666
0.000200114
0.000178108
0.000198409
0.000163122
0.000146513
0.000147115
0.0172454
0.0323122
0.000188361
0.0001476
0.000149008
0.0474934
0.000218424
0.000172406
0.000147808
0.000171224
0.0632788
0.000174738
0.000155729
0.000162016
0.00504973
0.0670663
0.00017674
0.0596302
0.000166185
0.0435111
0.000160089
0.000174685
0.000223461
0.000150503
0.000148361
0.000171327
0.0220802
0.000152192
0.000145888
0.0411143
0.040291
0.000171858
0.000202541
0.000198885
0.000179243
0.000218163
0.00014956
0.000148657
0.000148594
0.062569
0.000172468
0.00015378
0.000149583
0.0458073
0.000173848
0.000200004
0.0284712
0.0541376
0.0552777
0.0297166
0.000159399
0.0671044
0.000148603
0.000146509
0.000178057
0.000148825
0.0631484
0.000178197
0.000203903
0.000146438
0.00016536
0.000203258
0.000216182
0.000214428
0.000158893
0.000174492
0.00745389
0.0409908
0.000198466
0.000157357
0.00014936
0.000147136
0.00712098
0.000172417
0.022789
0.000157165
0.000151931
0.000201972
0.000197816
0.000149622
0.000149552
0.000167032
0.000223828
0.0634022
0.0660745
0.000168379
0.00033642
0.0595046
0.000152287
0.00017471
0.0516151
0.00015604
0.000201861
0.000148951
0.000226806
0.000149531
0.000170125
0.000153716
0.000148885
0.000214417
0.000149688
0.000497955
0.000146405
0.00019789
0.0258745
0.0612688
0.000157035
0.000175013
0.00014974
0.000169853
0.00014802
0.000169779
0.033397
0.000157001
0.000155997
0.000148719
0.064071
0.000146689
0.0147976
0.0652023
0.000189819
0.000149644
0.000309868
0.0306796
0.0508934
0.000201665
0.000164815
0.000174257
0.000209024
0.000165627
0.000196052
0.000161051
0.0218047
0.000197129
0.000147135
0.000157322
0.00020272
0.044532
0.0234334
0.000147082
0.000172974
0.000148301
0.000208823
0.000217766
0.000157895
0.000174455
0.000197823
0.00014821
0.000162552
0.000195948
0.00394581
0.00014848
0.00014886
0.000157204
0.0597368
0.0120407
0.0001742
0.000147762
0.000217035
0.000217915
0.000195579
0.000174029
0.0584778
0.0249931
0.000158224
0.000165738
0.0211285
0.000147609
0.000148587
0.000196203
0.000173198
0.000146744
0.000149511
0.000147972
0.000147868
0.000164852
0.000148541
0.0519367
0.000172502
0.00014835
0.0442566
0.0448826
0.000149318
0.000198403
0.0251833
0.000150722
0.000149399
0.000173666
0.0283605
0.0788933
0.000180627
0.00014835
0.0638072
0.000148549
0.000182175
0.030146
0.00269015
0.000153478
0.010247
0.000733403
0.0489408
0.000198127
0.000162744
0.064688
0.0537429
0.00703576
0.000149782
0.0253225
0.00811757
0.000209231
0.000206331
0.000152317
0.000180006
0.000157718
0.0216239
0.000163307
0.000147003
0.000144915
0.000157803
0.0454044
0.000375606
0.000147544
0.0585976
0.000157769
0.000162267
0.000154007
0.0245782
0.000215856
0.000202414
0.000153343
0.000155344
0.0431373
0.000149391
0.000219655
0.000158122
0.000173582
0.000158344
0.000148321
0.000148321
0.000194924
0.000196289
0.000197352
0.00175668
0.0439643
0.000152306
0.063167
0.000214501
0.000146672
0.0042685
0.000188984
0.030343
0.000157298
0.000186013
0.000185008
0.00586818
0.000193395
0.0241561
0.00015088
0.000151965
0.00693456
0.000162063
0.0265914
0.000164213
0.0683637
0.00016539
0.000171749
0.000197111
0.000207288
0.000148668
0.000157545
0.00017421
0.000165623
0.000147821
0.000174519
0.0635371
0.000148505
0.00017471
0.0121956
0.00015396
0.000849827
0.00017437
0.0812901
0.000156698
0.000183079
0.000301485
0.000217913
0.000173803
0.0199829
0.0259026
0.00030926
0.000148244
0.000194498
0.000164241
0.000185643
0.000147623
0.00751948
0.0682682
0.00946557
0.000155283
0.000197583
0.000223216
0.0131489
0.000145566
0.0188851
0.000212639
0.0306736
0.000161642
0.0109701
0.00014856
0.000148749
0.0223886
0.000216962
0.000148402
0.000154533
0.00017518
0.000146727
0.0646038
0.000180303
0.000188553
0.000157319
0.000150919
0.000149303
0.00373467
0.000148313
0.000149229
0.0293099
0.0618774
0.00015521
0.000231888
0.000148633
0.000148531
0.00015449
0.000197791
0.000174224
0.000147911
0.000151655
0.000187739
0.000152932
0.0797311
0.000148408
0.000159837
0.0514369
0.000160637
0.000145245
0.000148727
0.00015718
0.000150144
0.000290343
0.0369815
0.000165042
0.000618816
0.000154606
0.000148293
0.0607804
0.000183283
0.000160044
0.000148629
0.0514477
0.000159535
0.00134089
0.000148795
0.000162354
0.000194216
0.000167003
0.0576741
0.000206198
0.00402344
0.000152541
0.000199171
0.000148217
0.0447289
0.000174231
0.000197788
0.000164056
0.000153023
0.000160665
0.000178514
0.000148507
0.0139078
0.0588342
0.080059
0.00716678
0.0353598
0.03406
0.000218935
0.000156536
0.000149333
0.00166241
0.000148389
0.00014779
0.000157693
0.0656834
0.000154204
0.000150497
0.00017299
0.000172899
0.000148472
0.0755794
0.000147803
0.0649234
0.000270236
0.000147721
0.000153276
0.000216273
0.00466164
0.000146765
0.0442004
0.0105185
0.00014696
0.0577623
0.000224852
0.000197515
0.000152496
0.0277575
0.0296619
0.000147187
0.000226678
0.000149032
0.00014782
0.0196141
0.0692894
0.000168315
0.000173636
0.000148413
0.0001803
0.0649864
0.0624371
0.000147985
0.0245015
0.00014788
0.000149094
0.000173998
0.000159995
0.000145535
0.000152634
0.0596131
0.000204873
0.055918
0.000153641
0.000148286
0.0596232
0.000149137
0.000195198
0.000159617
0.000165315
0.000164555
0.0503095
0.0295816
0.00015701
0.0175614
0.000152984
0.000179565
0.0487212
0.0320217
0.000148989
0.000148249
0.000163197
0.0570805
0.000232303
0.000179903
0.00574115
0.000160181
0.000164582
0.0414497
0.0790274
0.000181097
0.0632666
0.00020755
0.0459845
0.000150312
6.06338e-05
0.000983622
0.000148433
0.0110159
0.082375
0.000159421
0.000174633
0.000148789
0.000515166
0.000174827
0.0474741
0.000148342
0.00014902
0.000155308
0.000172448
0.000148473
0.0625952
0.000148979
0.000206687
0.000152538
0.000186154
0.000148774
0.000148495
0.000167122
0.024743
0.000173508
0.0576595
0.000162388
0.000146806
0.000147352
0.000178301
0.000151613
0.00018742
0.000154982
0.000159777
6.15757e-05
0.000149147
0.0193897
0.000149666
0.000192596
0.0201197
0.0540192
0.000156459
0.0360073
0.000172431
0.000201118
0.0825591
0.000148406
0.0812077
0.00015783
0.000162884
0.00915522
0.000439387
0.00014682
0.000186901
0.000149522
0.0447174
0.0261307
0.000149453
0.000166937
0.0670429
0.000149736
0.000149656
0.000184741
0.0162884
0.0189038
0.000149413
0.000197074
0.000152515
0.000148522
5.0792e-05
0.000197467
0.000192372
0.000145337
0.000195872
0.000163657
0.000181395
0.000150551
0.000151653
0.000173618
0.000155114
0.000198037
0.000175589
0.000175483
0.000177736
0.000108188
0.000227112
0.0550325
0.0314039
0.000201435
0.0364058
0.000163136
0.0232635
0.000198381
0.000148202
0.000163991
0.000222223
0.000156916
0.000147725
0.000147677
0.000192627
0.0216486
0.00016006
0.0623252
0.000146839
0.0231521
0.000177574
0.023964
0.000186449
0.000156873
0.000154347
0.0281443
0.000192437
0.000162784
0.000212922
0.000150557
0.00154837
0.000192886
0.000207144
0.000163372
0.000247201
0.000148549
0.000149606
0.000151869
0.000148536
0.048966
0.000147861
8.42256e-05
0.0585493
0.000186988
0.0641286
0.0285518
0.000208489
0.00020443
0.000156638
0.000149133
0.000148782
0.000145973
0.000147322
0.000148841
0.000179998
0.000199428
0.00016438
0.00539901
0.000151558
0.0501889
0.000149953
0.0229466
0.000167787
0.000149879
0.000148814
0.0544037
0.000157184
0.023725
0.0820815
0.00017366
0.000182383
0.000146809
0.0672691
0.000153331
0.000154303
5.9436e-05
0.000149155
0.000150468
0.000148152
0.000174204
0.0231525
0.000160203
0.000163818
0.000216614
0.0587434
0.000157011
0.000156099
0.0478199
0.000145931
0.0469978
0.000149287
0.000153001
0.00936117
0.000187538
0.000197973
0.000182668
0.000173744
0.000149469
0.000149953
0.000180861
0.000150477
0.000149524
0.000160779
0.00021221
0.00014775
0.000197663
0.000570138
0.0165027
0.000182456
0.0457959
0.000160254
0.0001491
0.000192419
0.000146929
0.00015767
0.051079
0.043456
0.0807162
0.0484726
0.000149624
0.000149322
0.000168768
0.000151355
0.000147457
0.0234233
0.000209764
0.0282103
0.000192934
0.0001879
0.000148577
0.000146751
0.0016868
0.000188487
0.000153569
0.000149656
0.000198014
0.000201937
0.0640204
0.000149523
0.000148931
0.0198334
0.0001505
0.000164391
0.000146741
0.0670797
0.000148009
0.0226393
0.000148459
0.000187161
0.000169399
0.000168383
0.000163685
0.000148518
0.000154504
0.000148009
0.000119392
0.000150505
0.0275889
0.000150786
0.021873
0.0612452
0.00016205
0.000147872
0.0135835
0.0379593
0.000157566
0.000187536
0.000148764
0.0189072
0.000148322
0.000221052
0.000148353
0.000147986
0.0189905
0.000164774
0.000148658
0.000164444
0.0633542
0.000416569
0.0700231
0.000147069
0.0389322
0.000148439
0.000147797
0.000149548
0.000144525
0.000149521
0.0751811
0.0546844
0.000149735
0.000148952
0.000168736
0.000147677
0.0171021
0.000193266
0.0320488
0.0660963
0.000154427
0.00019785
0.000148386
0.000171145
0.00017459
0.000148294
0.000149348
0.000379435
0.0278631
0.000181837
0.00884896
0.000181082
0.000148614
0.00016954
0.000187896
0.0212716
0.000163833
0.00222131
0.00018901
0.000149451
0.0565964
0.0557187
0.0283001
0.00430626
0.0180642
0.00015247
0.000173959
0.000149238
0.000379156
0.000156432
0.000147023
0.0728015
0.000151329
0.000147878
0.000148991
0.000151046
0.0639317
0.000220297
0.000147188
0.000170027
0.0286118
0.000151773
0.00807834
0.000151571
0.000186418
0.068371
0.000148564
0.00022907
0.000159338
0.000163104
0.000476558
0.000151309
0.00022648
0.000182723
0.0670182
0.000149925
0.025886
0.000161635
0.0397812
0.0223353
0.0210202
0.000173762
0.000148602
0.000149696
0.000149735
0.000170506
0.000148754
0.0596491
0.000158249
0.000156439
0.000156848
0.000152367
0.000147015
0.000158902
0.000157538
0.000153255
0.000156798
0.0823907
0.000145356
0.000161235
0.00016897
0.0721436
0.000150582
0.0486927
0.000145974
0.000160694
0.00015053
0.000148195
0.000166266
0.000148259
0.000147146
0.000162676
0.000148703
0.000209753
0.000151219
0.00974106
0.00063335
0.000208932
0.000218687
0.000149164
0.0606241
0.000200822
0.000149469
0.000157366
0.000150292
0.0523434
0.000151557
0.000162504
0.00342381
0.0100373
0.000176619
0.00014926
0.0510765
0.00252702
0.0218772
0.000159238
0.000146751
0.000147905
0.000180696
0.000148576
0.0253408
0.000195619
0.000149267
0.000214744
0.000211905
0.00014805
0.0824145
0.0205849
0.00020881
0.000151035
0.0502535
0.000179839
0.000148026
0.0229423
0.000155873
0.000147831
0.00014782
0.000164291
0.000170724
0.0547143
0.0491734
0.000171446
0.0555908
0.000165693
0.000148373
0.000167798
0.000147702
0.000859636
0.000148147
0.000148177
0.000152915
0.000150377
0.0599064
0.0213594
0.000223223
0.0288141
0.0850723
0.000157021
0.00014856
0.000151219
0.00022789
0.000148065
0.000148451
0.000168422
0.0125222
0.000223656
0.000145945
0.00016502
0.000163953
0.000197151
0.00750825
0.000146957
0.00014543
0.000153302
0.00369035
0.000160707
0.0649197
0.000151614
0.000149011
0.000147888
0.000147813
0.0001537
0.000208364
0.0460534
0.0534214
0.000156813
0.000148296
0.00100447
0.00015017
0.0159529
0.0364838
0.000158031
0.0279704
0.0480413
0.0412405
0.000178783
0.000163624
0.0434233
0.000162049
0.000160098
0.000169093
0.000201797
0.00015031
0.0004797
0.000148401
0.0462588
0.00736308
0.000146002
0.000152687
0.000166527
0.000224109
0.000164809
0.000148862
0.000159895
0.000151549
0.00015699
0.000231448
0.000149017
0.0416353
0.0231594
0.000148445
0.000162753
0.000170385
0.000148473
0.0425593
0.0113426
0.0625555
0.0326516
0.000148178
0.000153998
0.000156688
0.000149592
0.000223402
0.000165214
0.000149683
0.000181294
0.000154778
0.0337025
0.000169559
0.024343
0.000151421
0.000151801
0.000163519
0.000188137
0.000182189
0.000148192
0.00897334
0.0433197
0.023099
0.0384695
0.0501536
0.0541471
0.0378136
0.000148175
0.000148268
0.000148867
0.000231756
0.000173731
0.000181867
0.0141329
0.000149707
0.000145651
0.000148413
0.000218812
0.000145822
0.000157974
0.00015247
0.0270231
0.000151102
0.000146969
0.000148509
0.000148278
0.000149002
0.000159842
0.000220972
0.000160188
0.056882
0.000148248
0.000147841
0.0633019
0.0638283
0.0203417
0.0170323
0.000163589
0.0210854
0.000146709
0.000168722
0.000151779
0.000148484
0.000154653
0.0268743
0.000152007
0.000188489
0.00171451
0.00014984
0.000148127
0.000155084
0.000208849
0.000149797
0.0269601
0.000148785
0.00021524
0.000148768
0.0001497
0.000157757
0.00017088
0.00014905
0.000113754
0.0423032
0.000208621
0.067117
0.000148555
0.0251544
0.000115342
0.000148291
0.00697625
0.000149568
0.000161827
0.000149365
0.000149567
0.000147612
0.000148514
0.000150047
0.000155691
0.000181893
0.000149461
0.000148595
0.000165843
0.000146691
0.0817828
0.000148771
0.000163064
0.000165638
0.0336445
0.000942459
0.000148914
0.000209274
0.000146694
0.000162789
0.000172281
0.0135302
0.000174862
0.0001498
0.000195112
0.000167507
0.000187467
0.000168012
0.000160707
0.000196272
0.000179824
0.000182627
0.000151002
0.000147656
0.0163414
0.0115842
0.000154182
0.000148002
0.0087009
0.000146882
0.000170619
0.000147707
0.000176034
0.0081309
0.000145056
0.0159923
0.00015683
0.000149065
0.000203555
0.000147012
0.00016135
0.0342814
0.000168882
0.0183625
0.00014758
0.000149746
0.00016225
0.000149466
0.000149607
0.000159788
0.000160897
0.000181898
0.000177433
0.000148908
0.000164975
0.000147513
0.00014834
0.000149389
0.00014831
0.000483889
0.000148221
0.000151655
0.000227349
0.000146842
0.000147921
0.061688
0.000149631
0.012024
0.000152346
0.060361
0.00021473
0.000164123
0.00107201
0.000176745
0.000268751
0.000150148
0.000202962
0.000157169
0.000147561
0.000147673
0.000151624
0.00016243
0.000148204
0.000170513
0.000147286
0.000151768
0.00711805
0.0249643
0.000278184
0.000154507
0.000162881
0.0358164
0.0294193
0.000149093
0.00015767
0.000311113
0.000149475
0.000167666
0.00359765
0.0533275
0.00015877
0.000172054
0.000150814
0.000214421
0.000149891
0.000160888
0.00831566
0.000149203
0.000147783
0.0799649
0.000169974
0.000226221
0.0678347
0.000192745
0.000149972
0.000147307
0.000149818
0.0326843
0.000765964
0.0467854
0.000173653
0.000148553
0.0415006
0.000148664
0.000198033
0.000155299
0.000152798
0.000171197
0.000148318
0.0825173
0.0849928
0.00014677
0.000181493
0.000174549
0.00145715
0.000170816
0.000179775
0.000225079
0.00016561
0.000168509
0.000180632
0.000148679
0.000166778
0.0001677
0.0316512
0.000148153
0.00151482
0.000171705
0.000181136
0.000149802
0.0841206
0.000157137
0.000152232
0.0001475
0.000166007
0.000165441
0.000165998
0.00014879
0.000150587
0.000171346
0.00844954
0.000174771
0.000148979
0.000150479
0.000166736
0.000211956
0.000149086
0.000179214
0.0142391
0.000167168
0.0550602
0.000170238
0.0252715
0.000225251
0.000148196
0.000830219
0.000149551
0.000154374
0.000164304
0.000165297
0.00018777
0.000174247
0.000165388
0.000166619
0.000161638
0.000153089
0.000145763
0.000169306
0.000156244
0.000157212
0.000672819
0.000155949
0.000158923
0.000147675
0.0249691
0.000177971
0.0001489
0.000154947
0.000151643
0.0283105
0.000195624
0.000164328
0.0503152
0.000143812
0.000344094
0.000187447
0.000232397
0.000147309
0.00018423
0.000148406
0.000155499
0.0165082
0.0422262
0.000230711
0.000444404
0.00014874
0.0248667
0.000147284
0.000187537
0.000154348
0.0170048
0.0757146
0.000157505
0.000148008
0.000225712
0.000161972
0.000148104
0.0389452
0.000148474
0.000152346
0.000156294
0.000149346
0.000161109
0.000151769
0.000148562
0.000162703
0.000243653
0.000169611
0.000174834
0.000148087
0.029438
0.0427141
0.000147886
0.000226312
0.000154274
0.00015718
0.0483002
0.000147865
0.0001506
0.000156561
0.045552
0.000148146
0.000149152
0.000168581
0.0205943
0.000147766
0.000159446
0.000161313
0.000473675
0.000170841
0.000168225
0.000214261
0.000148491
0.000172261
0.000146038
0.0272289
0.000160271
0.000148403
0.000158806
0.000185112
0.000148922
0.000149372
0.000197939
0.0455654
0.000150127
0.028572
0.000149196
0.000145995
0.000179903
0.000148144
0.000148229
0.0786726
0.00014981
0.000169444
0.000203
0.0549648
0.000415397
0.00014798
0.000152679
0.000156396
0.000148396
0.000148579
0.000148569
0.00540799
0.000149254
0.000214186
0.000195624
0.00014776
0.000146822
0.000160824
0.00019562
0.000227249
0.000166162
0.000175774
0.0001527
0.0517255
0.00017507
0.000162714
0.000170424
0.000171115
0.000186105
0.0249104
0.00016927
0.0291313
0.0205941
0.0233845
0.000154883
0.000148254
0.00016648
0.000159302
0.000147624
0.00015017
0.000177094
0.000149592
0.000149632
0.000148263
0.000145381
0.000153077
0.000148879
0.0225217
0.000147986
0.0241426
0.00014845
0.000172824
0.00015044
0.000195862
0.000172556
0.000148623
0.0562594
0.000152631
0.000149467
0.000169678
0.000147407
0.000158644
0.000148505
0.0462842
0.000153313
0.000169991
0.000170211
0.0534421
0.00015761
0.000193129
0.000731952
0.000168905
0.000149113
0.000151597
0.000174768
0.000179077
0.0251128
0.000146822
0.0326641
0.000148885
0.000169239
0.0813016
0.00016456
0.0142283
0.000154755
0.000163293
0.000153947
0.0849719
0.000161084
0.000148853
0.000168086
0.000196645
0.000152127
0.000148276
0.000148868
0.0653164
0.000149657
0.000156949
0.0651561
0.000155202
0.000148209
0.000170703
0.000154362
0.0395869
0.00014566
0.00014836
0.000147045
0.000154825
0.000150036
0.000149152
0.000181116
0.0610981
0.000148081
0.000148629
0.0406441
0.000149843
0.016396
0.000153694
0.082378
0.000147568
0.000153248
0.000146691
0.0304417
0.0667567
0.000158921
0.000168651
0.00015552
0.00014812
0.000148713
0.0464909
0.000148815
0.000187531
0.000147394
0.000171923
0.000149211
0.0544078
0.000146892
0.000173245
0.000147649
0.000216377
0.000292493
0.000147201
0.000165746
0.0839163
0.000182443
0.0235919
0.0117027
0.000200967
0.000151869
0.000164412
0.000187754
0.00603394
0.000149694
0.000169009
0.000156516
0.00014834
0.0272483
0.0377398
0.000182341
0.000200161
0.000224024
0.000162093
0.0591767
0.000147549
0.000147114
0.000185833
0.0836877
0.000210826
0.000196765
0.00164576
0.00014673
0.0847938
0.0349545
0.0793202
0.000149295
0.0317985
0.046096
0.000308558
0.000392431
0.0453446
0.000188112
0.000160808
0.00020018
0.000154379
0.000148295
0.000845981
0.000188687
0.000145642
0.0347605
0.000149205
0.000158191
0.000170906
0.000155467
3.5573e-05
0.000160161
0.0122177
0.000172977
0.000154929
0.0123084
0.0715957
0.000197147
0.000149869
0.000154542
0.000181498
0.000167953
0.0001468
0.00017214
0.000167032
0.000194745
0.000148244
0.000205103
0.000153368
0.000168049
0.0337057
0.000169232
0.000151323
0.000183479
0.0341885
0.000149197
0.000150823
0.0788108
0.000218701
0.00015378
0.000154644
0.000148531
0.000173564
0.000156376
0.0475578
0.000187391
0.000150202
0.000149442
0.000166185
0.000158895
0.000163309
0.0289972
0.000147529
0.000148163
0.000157719
0.000149244
0.000153824
0.000151068
0.000151013
0.000154662
0.000147847
0.000153951
0.000149278
0.00017439
0.00540743
0.000149741
0.0629139
0.016826
0.000146048
0.000181454
0.000185239
0.000178035
0.000150679
0.000188777
0.000158066
0.000168294
0.00016098
0.00015189
0.000149341
0.0248323
0.000160035
0.0186478
0.000150652
0.000148429
0.000148073
0.000172332
0.000148011
0.000174617
0.000180488
0.000283709
0.000147469
0.000193338
0.00485244
0.0453177
0.000146672
0.000192166
0.000218128
0.00591294
8.34812e-05
0.000150296
0.000149537
0.000191754
0.00115835
0.00986203
0.000169544
0.000228191
0.000149499
0.000147782
0.000164087
0.000149258
0.000149083
0.000196166
0.000149751
0.000169364
0.000147522
0.071186
0.0636914
0.0313107
0.032203
0.0422855
0.000149048
0.000148904
0.0749847
0.000147003
0.000147314
0.000146019
0.000181997
0.0689323
0.0265
0.000156144
0.000149376
0.000151635
0.000162578
0.0287408
0.000148114
0.0130935
0.0727442
0.000149206
0.00014912
0.0346888
0.000186517
0.000152691
0.000148264
0.0692464
0.0436301
0.000148686
0.000209917
0.000149666
0.0472439
0.000130494
0.000153308
0.0268886
0.016399
0.0496408
0.000147369
0.000149652
0.000149604
0.000149897
0.0650345
0.000147785
0.000195591
0.000227283
0.0231333
0.000150829
0.000173142
0.000150401
0.000172611
0.0726334
0.0534205
0.000145452
0.000156434
0.000156578
0.000200935
0.054808
0.000145237
0.0237547
0.000160295
0.000171519
0.000150705
0.000147501
0.000214548
0.000167466
0.0189249
0.000149256
0.000172956
0.000150564
0.000195953
0.000154184
0.059611
0.00697627
0.000199025
0.000191293
0.000148177
0.000152752
0.000187279
0.000181307
0.0584858
0.0813907
0.000148913
0.0170189
0.000170151
0.0726011
0.000158439
0.000169448
0.000167923
0.000149017
0.0570599
0.000148389
0.000163674
0.0302044
0.0694738
0.000522085
0.0679006
0.000157603
0.000174123
0.00014688
0.0717484
0.000156624
0.0250601
0.00014682
0.0469594
0.000145102
0.000147955
0.000163161
0.000158441
0.00015967
0.000148327
0.0369334
0.00017247
0.000147817
0.0001654
0.0312332
0.000222736
0.00014851
0.0583773
0.000153638
0.000165598
0.00016407
0.000145844
0.000176849
0.00014792
0.0136305
0.000172253
0.000158471
0.000148261
0.000221815
0.000168365
0.000146818
0.0426992
0.00126923
0.000215227
0.000146592
0.000224928
0.000148871
0.000189279
0.000159177
0.000179947
0.00473314
0.0358152
0.000159435
0.0678583
0.000169111
0.000157513
0.000146992
0.0548552
0.000178397
0.0001879
0.000165652
0.000149589
0.0193536
0.000181801
0.000225273
0.000229563
0.0831131
0.0371449
0.00337313
0.0338321
0.000157763
0.000158591
0.000148571
0.000148948
0.00014538
0.000204962
0.000158261
0.00015972
0.0638128
0.000147783
0.000146959
0.000170944
0.000196925
0.000159101
0.000147131
0.0647409
0.000153828
0.000174477
0.000149352
0.0235324
0.000157041
0.0737462
0.000166213
0.000164517
0.000170745
0.000148526
0.0106041
0.000169709
0.00017878
0.000148687
0.000147237
0.0224626
0.0458398
0.0442075
0.000147931
0.000179011
0.00027551
0.00014896
0.000147939
0.000148895
0.0677354
0.000171195
0.000162731
0.000159112
0.000157145
0.0487411
0.000178245
0.000216628
0.000157852
0.000163499
0.000145354
0.000181727
0.000172319
0.000148325
0.0447897
0.055586
0.0608517
0.0440348
0.0421799
0.0833158
0.0771631
0.000151421
0.000148058
0.0632961
0.0380383
0.0218655
0.000148805
0.00016906
0.000148565
0.000148055
0.00903371
0.0711412
0.000180311
0.000147966
0.00019948
0.000188407
0.000173238
0.0367938
0.000600573
0.00022173
0.000147272
0.059358
0.00384588
0.00021886
0.000164019
0.000170317
0.000149256
0.000147213
0.000167253
0.00017121
0.000153656
0.000169955
0.000159067
0.000154204
0.000225917
0.0344038
0.000159058
0.000171343
0.044577
0.000213957
0.00014868
0.000192355
0.000225125
0.0263987
0.000168344
0.000149188
0.000160635
0.000156864
0.000158267
0.000145845
0.000158941
0.000162933
0.000173594
0.000198392
0.000149495
0.000151471
0.03679
0.0488826
0.0692993
0.000154453
0.000194891
0.000144915
0.000148487
0.000161184
0.000146746
0.0844082
0.00014844
0.000149808
0.0001463
0.0447078
0.0138327
0.000149971
0.000180558
0.000158043
0.000161439
0.000160668
0.000159732
0.000169437
0.000165707
0.0211775
0.000157135
0.0396999
0.000166517
0.0685227
0.00015974
0.000147405
0.000146922
0.00018923
0.000197886
0.000146749
0.00016272
0.000160049
0.00017477
0.0294953
0.0240608
0.0326415
0.000149807
0.000135491
0.000158449
0.000164054
0.000148244
0.000178268
0.00015248
0.0282889
0.00028338
0.000165483
0.000148472
0.048086
0.000155755
0.0338994
0.0366667
0.000229341
0.000153344
0.000194268
0.0405366
0.000135075
0.0493187
0.000175874
0.000148283
0.000166604
0.000147987
0.0797301
0.000153742
0.000161675
0.000200817
0.0665707
0.000148076
0.000148175
0.0425133
0.000168628
0.0809352
0.000158775
0.000148263
0.000169697
0.000212648
0.000162365
0.0146291
0.000163912
0.000118979
0.000155043
0.000149603
0.00014808
0.000209535
0.000150557
0.000180816
0.000148609
0.000148561
0.000206363
0.000157269
0.000149015
0.000148165
0.000163768
0.000163152
0.000171716
0.000167555
0.000155168
0.000176729
0.000148649
0.000189227
0.000161372
0.000170726
0.000166428
0.000159803
0.00017357
0.000163009
0.000147857
0.000181992
0.0488514
0.0332319
0.000149213
0.000429652
0.0334147
0.000148142
0.000150558
0.000221377
0.0391242
0.000156197
0.0330617
0.00022792
0.000149141
0.000187564
0.000145334
0.000156796
0.000177396
0.0244432
0.000200618
0.000232631
0.000178407
0.0434873
0.0516365
0.000152884
0.043803
0.000148362
0.00330823
0.0486209
0.000148597
0.000148433
0.0325021
0.000149021
0.00014851
0.000234666
0.057705
0.000210167
0.000157338
0.0438314
0.000148586
0.0484553
0.0379217
0.000149205
0.000156161
0.00589722
0.0436596
0.0351449
0.0388366
0.0316379
0.000147248
0.000151536
0.000177992
0.000180805
0.000148482
0.000212447
0.000148298
0.0397169
0.000240936
0.000164055
0.000229346
0.0405799
0.000239921
0.000220777
0.000165659
0.0197115
0.000237942
0.000156007
0.0001456
0.00670819
0.000161096
0.000146918
0.083655
0.000148148
0.0100962
0.000149133
0.0688853
0.000156362
0.000148082
0.0051251
0.000155952
0.000160395
0.0292819
0.0650921
0.000451076
0.000159307
0.000173501
0.000151747
0.000169804
0.000195226
0.000170158
0.000149347
0.000317005
0.000178761
0.000161325
0.0307287
0.000169214
0.000162026
0.000195969
0.000181708
0.000172881
0.000148054
0.000201825
0.000146943
0.000195462
8.66501e-05
0.0397725
0.000147089
0.000167247
0.0255562
0.000152444
0.000177181
0.000163143
0.000169142
0.0699088
0.000178955
0.000151897
0.0201745
0.000147139
0.0473072
0.000148763
0.000151697
0.000195633
0.045043
0.000161403
0.00018796
0.000213918
0.000163115
0.000149457
0.000176431
0.000170784
0.0634553
0.00015523
0.00328451
0.000197989
0.000163131
0.000160469
0.000176984
0.000165577
0.000167302
0.000179033
0.000162353
0.000153885
0.000149342
0.000572131
0.000148421
0.000159411
0.000145447
0.000193428
0.000159969
0.000179188
0.0417345
0.000151218
0.000211501
0.000144637
0.000149166
0.000149208
0.000149322
0.000157965
0.000147602
0.000187959
0.0248265
0.00017926
0.000172426
0.000155726
0.000148692
0.000187912
0.000148585
0.0337256
0.0343658
0.028764
0.00020089
0.000163333
0.000158763
0.00014913
0.000157931
0.000170288
0.000168363
0.0470303
0.000179328
0.0598082
0.000201715
0.000149349
0.000146857
0.0329058
0.000148111
0.000161117
0.000165972
0.000224986
0.00015268
0.0646126
0.000149087
0.000155537
0.000148577
0.000150472
0.000176354
0.000193396
0.000149415
0.000164306
0.000159787
0.000173106
0.000179205
0.00021012
0.000196548
0.00020672
0.000199808
0.000157604
0.000151344
0.000179148
0.0442576
0.0730817
0.0502795
0.000163468
0.0133184
0.000193407
0.000151226
0.000147914
0.000181523
0.000148897
0.000164283
0.0228398
0.000147986
0.00014751
0.000255449
0.0102951
0.000174567
0.000420352
0.000149013
0.0261821
0.000168247
0.0698129
0.000157119
0.000148646
0.0493622
0.000165186
0.000148518
0.000171231
0.000149659
0.000188114
0.000159344
0.000164221
0.0849303
0.000159452
0.0486278
0.000147627
0.0539226
0.000149061
0.000156534
0.000150144
0.000170377
0.000148873
0.000165892
0.0477557
0.000253099
0.000173552
0.000160804
0.000167974
0.000147983
0.000148936
0.000151899
0.00114294
0.000156063
0.0712294
0.0341109
0.000187022
0.000149393
0.000190077
0.000201667
0.000197549
0.000157293
0.0380804
0.000148234
0.000144903
0.000148089
0.00299542
0.000148939
0.000148458
0.0496132
0.000148016
0.000197517
0.000171304
0.000147815
0.059616
0.000160103
0.0684712
0.000148193
0.00151453
0.000151054
0.000166571
0.0289697
0.000180575
0.000147834
0.000158876
0.0376584
0.000164112
0.000191243
0.00016227
0.000156328
0.000185383
0.000158008
0.000149859
0.0071794
0.000159846
0.000160102
0.000201877
0.000148116
0.000147467
0.000149194
0.000163052
0.000149064
0.000155049
0.0542201
0.014392
0.000171061
0.00951728
0.00018122
0.000166234
0.0681666
0.0510831
0.000150023
0.0166473
0.0393686
0.0347604
0.000882431
0.000161422
0.0346243
0.0525062
0.0442863
0.000881817
0.0755375
0.000162693
0.000169207
0.000157667
0.000157347
0.000149597
0.000291802
0.000149892
0.0185443
0.000173643
0.000196092
0.000145194
0.000184362
0.000163518
0.000152101
0.00014995
0.000148679
0.000173151
0.000153246
0.000149907
0.000170596
0.0568052
0.000154216
0.000189805
0.000146796
0.000173085
0.000168982
0.000149192
0.000156009
0.000147606
0.069059
0.0617199
0.000200866
0.00257999
0.00016097
0.000186401
0.000148811
0.000170997
0.000148689
0.000149716
0.000149518
0.0550351
0.000146811
0.000174112
0.000241543
0.000157206
0.000162399
0.000148065
0.0681222
0.00020154
0.0408472
0.0328409
0.000197432
0.000225049
0.0306282
0.000227373
0.000108332
0.017121