/*--------------------------------*- C++ -*----------------------------------*\
| =========                 |                                                 |
| \\      /  F ield         | OpenFOAM: The Open Source CFD Toolbox           |
|  \\    /   O peration     | Version:  v2012                                 |
|   \\  /    A nd           | Website:  www.openfoam.com                      |
|    \\/     M anipulation  |                                                 |
\*---------------------------------------------------------------------------*/
FoamFile
{
    version     2.0;
    format      ascii;
    class       volScalarField;
    location    "850";
    object      nut;
}
// * * * * * * * * * * * * * * * * * * * * * * * * * * * * * * * * * * * * * //

dimensions      [0 2 -1 0 0 0 0];


internalField   nonuniform List<scalar> 
13851
(
0.00657512
0.0117602
0.00103965
0.00662963
0.00145966
0.00428335
0.00678911
0.00182571
0.00676066
0.00110389
0.0129042
0.0190647
0.00527992
0.0105754
0.00672985
0.00514722
0.00472211
0.00542523
0.00138575
0.00675435
0.00665732
0.000973915
0.0068054
0.00687317
0.00680717
0.00191492
0.00376383
0.000268803
0.00660845
0.0065091
0.00410104
0.00446757
0.00115936
0.00966899
0.00687487
0.00118619
0.000219356
0.000533739
0.00110579
0.00836829
0.0068187
0.00671855
0.00124222
0.0122177
0.0115015
0.00362881
0.0113455
0.0140914
0.00365809
0.00587699
0.00248577
0.00150544
0.0035522
0.00676828
0.00684386
0.0067231
0.00682706
0.00614881
0.00654602
0.0068115
0.000391147
0.00803338
0.00295628
0.00137825
0.00183504
0.00629815
0.000414846
0.0114794
0.00247608
0.00526547
0.00208498
0.00286292
0.013187
0.00677336
0.00672538
0.00682426
0.00133032
0.00308914
0.00196951
0.00265167
0.00682795
0.0118869
0.00674752
0.00390429
0.00289544
0.0193001
0.00481558
0.0153516
0.00364661
0.00680995
0.00117927
0.00554056
0.0118564
0.00333729
0.0045009
0.00684328
0.00137548
0.0109892
0.00551252
0.00684092
0.0080303
0.00209663
0.00679481
0.002989
0.0067836
0.00499952
0.00216664
0.00669469
0.00604594
0.00418789
0.00685446
0.00680498
0.00570352
0.00683414
0.00685574
0.012286
0.011214
0.00669021
0.0068947
0.00687897
0.0011336
0.00323903
0.00620281
0.0124975
0.0166307
0.00667997
0.0171481
0.00195064
0.00668672
0.000882358
0.00681288
0.00671798
0.00310755
0.00674466
0.0109446
0.00674062
0.00669093
0.00253413
0.0116833
0.0133621
0.00833559
0.00684278
0.00663303
0.00680195
0.00592127
0.0128271
0.00606889
0.000743149
0.00678453
0.0113919
0.00241261
0.00685491
0.00780403
0.00683694
0.00471858
0.00667158
0.00679191
0.00668423
0.00151052
0.00239792
0.00677658
0.00306158
0.00566226
0.00671733
0.00563739
0.00676347
0.00597121
0.00246593
0.00670701
0.00365005
0.00217158
0.0067074
0.00679424
0.013689
0.00671319
0.0134283
0.00200711
0.00665383
0.00120881
0.0067092
0.00455345
0.00335474
0.00673892
0.000992245
0.00673194
0.00682665
0.00626444
0.00680175
0.00115927
0.00172486
0.0116523
0.00426277
0.00676643
0.00249207
0.00894057
0.00587413
0.0066717
0.00964555
0.0066804
0.00682446
0.00666612
0.00355261
0.0069367
0.00674984
0.00198221
0.00674166
0.0136439
0.00465008
0.00940714
0.00673489
0.0103392
0.00680542
0.0112475
0.00669722
0.00679187
0.0137708
0.003029
0.00417709
0.00671962
0.00995556
0.0046071
0.00682568
0.0108481
0.00133863
0.0117226
0.00681229
0.00290682
0.00679373
0.00693123
0.00670255
0.00227705
0.00232547
0.0067052
0.00677798
0.00240806
0.00257049
0.0129263
0.00150852
0.00680256
0.00675203
0.00430222
0.0135108
0.00680373
0.00185022
0.00679811
0.0119952
0.00201877
0.00765522
0.00654304
0.00525982
0.00610232
0.0138923
0.00683393
0.00664562
0.00239409
0.0117039
0.00204177
0.00308445
0.000218692
0.00673117
0.00679142
0.00602105
0.00378485
0.006811
0.00354514
0.00563691
0.00683698
0.0033887
0.0103175
0.0051462
0.00611392
0.00515626
0.00358011
0.00203632
0.00526642
0.00672055
0.0120245
0.00730986
0.0113649
0.012802
0.00679803
0.00672424
0.00678327
0.00251616
0.00392973
0.00879966
0.00679075
0.00672051
0.00358008
0.0119107
0.000767209
0.00659816
0.00681499
0.00237473
0.0116389
0.00333277
0.00600142
0.0194556
0.00672584
0.0119411
0.0029719
0.00501206
0.0111132
0.00684681
0.00488094
0.011595
0.00678389
0.0022114
0.00306817
0.00663168
0.010775
0.00565779
0.00683815
0.0111989
0.00673002
0.0059768
0.00663043
0.0107876
0.00165467
0.00672079
0.00216255
0.00672082
0.00110622
0.00591533
0.00681678
0.00683929
0.00169089
0.00315566
0.00541474
0.00671986
0.00684677
0.00684208
0.0121539
0.00567537
0.00494139
0.00431558
0.0108248
0.00879296
0.00672576
0.00250256
0.000831217
0.00521908
0.00235225
0.00170219
0.000975668
0.0062665
0.00235824
0.0117232
0.00673639
0.00729253
0.00698454
0.000849035
0.00540099
0.00209167
0.00719288
0.00680292
0.00375256
0.00684097
0.00671966
0.00678121
0.00669787
0.00676944
0.0114931
0.0117024
0.00678398
0.00239236
0.00675012
0.0188614
0.00446449
0.00364657
0.0046814
0.0067911
0.00234194
0.00336228
0.0059757
0.00679723
0.00669065
0.00589475
0.00540276
0.00676488
0.0114132
0.00526642
0.00160444
0.00220394
0.00810251
0.00701418
0.00630489
0.00671848
0.006813
0.00521435
0.00223023
0.00832373
0.00230097
0.0113278
0.0115998
0.00675208
0.00673364
0.00396616
0.0040039
0.00258199
0.0112612
0.00584481
0.00324971
0.00682439
0.0075843
0.00673179
0.00523849
0.00635496
0.00677829
0.0067954
0.00677825
0.00676209
0.0015595
0.00225981
0.00226328
0.0052769
0.00214956
0.00534317
0.0145089
0.00607964
0.000880053
0.00497233
0.013779
0.00669016
0.00677241
0.00681821
0.000261702
0.00873798
0.00117271
0.00540015
0.00126202
0.0108408
0.0049133
0.00690855
0.00225626
0.00679076
0.0144359
0.00679133
0.00347328
0.0100647
0.00121572
0.0081601
0.0066322
0.00683014
0.00933692
0.00387641
0.00670781
0.00308456
0.00209692
0.00619833
0.00671705
0.00684155
0.00230278
0.00160905
0.00346868
0.015098
0.00681679
0.00684279
0.00484111
0.00578536
0.00671732
0.016482
0.00671826
0.00657953
0.00672755
0.00376637
0.00673996
0.00672644
0.00665767
0.0109306
0.00675066
0.00239947
0.00672789
0.00591128
0.0113031
0.00683624
0.0068265
0.00683613
0.00683066
0.0135318
0.00683755
0.00456316
0.00673598
0.00683559
0.010227
0.00731791
0.0067464
0.00582683
0.00551815
0.0124263
0.00367616
0.00684093
0.0125178
0.00680149
0.00124304
0.00679499
0.00779555
0.00672456
0.00279277
0.00209543
0.00672039
0.00580577
0.00809723
0.00216812
0.0104429
0.00690721
0.0092238
0.00687112
0.0067113
0.0067271
0.00677084
0.00613145
0.00220716
0.00153619
0.000632232
0.00285642
0.00678563
0.00878823
0.00889346
0.00424503
0.00270663
0.0104489
0.0117418
0.010081
0.00681902
0.00787601
0.0034784
0.00325979
0.00519414
0.00576106
0.0141056
0.00733906
0.00943382
0.0104763
0.00772789
0.0066546
0.00833568
0.00420844
0.00669802
0.00674486
0.00228578
0.00477027
0.00663047
0.00673011
0.00678468
0.00678059
0.0012681
0.00291404
0.0129329
0.0155285
0.00673718
0.00363408
0.00794009
0.00414218
0.00888693
0.00238117
0.00670353
0.00676698
0.00768609
0.00951466
0.00480769
0.0021615
0.00120619
0.00672125
0.00483891
0.013566
0.000228535
0.00171739
0.00684644
0.00417256
0.00680813
0.0067803
0.0177641
0.0116533
0.00156813
0.0023178
0.00312689
0.00670492
0.00673433
0.00482679
0.00671314
0.00664784
0.00670723
0.0067116
0.00470144
0.00132405
0.00564353
0.00671197
0.0107502
0.0112827
0.00672582
0.00680617
0.00680936
0.00680405
0.00569914
0.008904
0.0104145
0.00341925
0.00786069
0.00233298
0.0027957
0.00807008
0.00620171
0.00247675
0.00670441
0.00664623
0.00472538
0.0102415
0.00254047
0.00219175
0.00357431
0.00674482
0.00520077
0.00664511
0.0105577
0.00208795
0.00673302
0.00409253
0.0067154
0.00372304
0.000998087
0.00680307
0.00678595
0.00444567
0.0068167
0.00137003
0.000364491
0.00138099
0.00513618
0.00152214
0.00674053
0.00265038
0.00599112
0.00317743
0.00681527
0.00685224
0.00532755
0.00659651
0.0020429
0.011848
0.00496569
0.016378
0.00672828
0.00352852
0.00678455
0.00671302
0.00672691
0.00671251
0.00659323
0.00490902
0.00399201
0.00670531
0.0090289
0.00190322
0.00969913
0.00677372
0.00674989
0.00681094
0.000802239
0.00965213
0.00233473
0.00332812
0.00678631
0.00684601
0.00682235
0.00681134
0.000227351
0.0155783
0.00681014
0.00670275
0.00677309
0.00680823
0.000874693
0.00438778
0.00511693
0.010253
0.010744
0.00678016
0.001551
0.00478699
0.0023864
0.0192043
0.00683068
0.00595126
0.00221204
0.00593523
0.0114629
0.00674355
0.0142474
0.00680062
0.00216449
0.00962284
0.00683532
0.00668626
0.00304658
0.00671471
0.00479076
0.00356896
0.0133143
0.00200999
0.00291272
0.0112125
0.00669973
0.00676735
0.00997669
0.00123509
0.00239618
0.0117797
0.00676723
0.00685032
0.0066981
0.00654907
0.000679634
0.00624718
0.00682531
0.0122843
0.00409623
0.00681075
0.00350015
0.0146907
0.0102325
0.0067271
0.00680561
0.00307666
0.00246792
0.00135269
0.00668235
0.00676381
0.00674574
0.0136616
0.000772044
0.00109121
0.00566583
0.00440215
0.00622126
0.00656704
0.00029807
0.00685612
0.00693242
0.00671852
0.00673706
0.00437266
0.00426313
0.00169918
0.0056796
0.008618
0.00674924
0.00366181
0.00689987
0.00622639
0.00675034
0.00677078
0.00677237
0.0116217
0.00677548
0.00669445
0.0170947
0.00678642
0.00515211
0.00679152
0.00664482
0.00271048
0.00201389
0.00861424
0.00676591
0.00368302
0.0106959
0.00683463
0.010691
0.00223159
0.00673099
0.0062571
0.00190391
0.00381922
0.00620415
0.00675133
0.00669636
0.00918317
0.000995063
0.00276987
0.00607294
0.00625297
0.00680157
0.00666669
0.00218225
0.0111344
0.0011658
0.00338062
0.00679938
0.00123706
0.00230061
0.0098153
0.00627674
0.0162392
0.000543726
0.00678808
0.00253298
0.00257231
0.0102304
0.0106772
0.0114598
0.0127022
0.00413001
0.00673339
0.00568694
0.00648912
0.0028437
0.00684009
0.00682252
0.00253619
0.0111678
0.00671491
0.00367964
0.0067603
0.00677735
0.00522337
0.00309277
0.0112917
0.0067148
0.00672052
0.0034074
0.000624497
0.00166615
0.00648738
0.00768909
0.000465521
0.0102445
0.00216726
0.00238052
0.00683843
0.00678997
0.0143549
0.00219417
0.0032996
0.0058095
0.00256899
0.0043739
0.0099448
0.00640891
0.00675571
0.00244899
0.00672491
0.00504503
0.00670185
0.018298
0.00347766
0.0111357
0.00671002
0.00244982
0.00675203
0.00065924
0.00252596
0.00254548
0.0104316
0.00257847
0.0032175
0.00686647
0.00271942
0.0104866
0.00267543
0.00663295
0.00224789
0.00681277
0.0112905
0.0122862
0.00684037
0.0111657
0.00641372
0.00608428
0.0131633
0.00588211
0.00683338
0.00970444
0.006855
0.0112288
0.00952542
0.00676922
0.00442195
0.000467824
0.0118305
0.0164617
0.00681251
0.00680238
0.0178085
0.00949915
0.0017091
0.00627899
0.00659988
0.0128224
0.00598496
0.00223119
0.0066949
0.00342849
0.00671385
0.00692119
0.00652121
0.00682229
0.00439624
0.0148469
0.00678392
0.00660861
0.00683671
0.00670946
0.00272816
0.00727998
0.00302343
0.0157833
0.00674855
0.00315107
0.00683222
0.00671426
0.00683955
0.00678066
0.00563468
0.00674893
0.00275995
0.00676028
0.00617312
0.00637439
0.00241129
0.00691569
0.0179236
0.00236616
0.000504695
0.00348859
0.00308868
0.00214419
0.00305678
0.00268592
0.0183827
0.00714406
0.00372809
0.00222227
0.011632
0.00682492
0.0021362
0.00217899
0.0163199
0.00681399
0.0147411
0.00676336
0.00677777
0.010984
0.00666391
0.00299606
0.00560115
0.00672834
0.0048832
0.00672701
0.00672022
0.00675771
0.00683065
0.000462746
0.00677298
0.000485175
0.0068791
0.00265581
0.0135446
0.00678381
0.00690255
0.00661961
0.00678726
0.00672194
0.00240658
0.00620479
0.00679963
0.00682009
0.0068132
0.00525237
0.0152521
0.00293356
0.0113155
0.000206683
0.00673524
0.0108851
0.00326836
0.00676544
0.01077
0.00427032
0.0146084
0.00672999
0.0115453
0.0121015
0.00809957
0.00670483
0.00568922
0.00473824
0.00398515
0.00675355
0.00676349
0.0127631
0.00273944
0.00934733
0.00683095
0.00674054
0.0176845
0.00683853
0.00143643
0.0125409
0.00714843
0.000997232
0.0115627
0.00683705
0.0067874
0.00264737
0.00588524
0.00337463
0.000748081
0.00223737
0.00596912
0.00662206
0.0139741
0.00680567
0.00515049
0.00224224
0.00995721
0.00108854
0.00683392
0.00680341
0.00683661
0.0105042
0.010863
0.00670501
0.0068634
0.00683143
0.00247064
0.00672924
0.00682324
0.00682355
0.00260403
0.000822691
0.00266884
0.00420009
0.00677599
0.00223187
0.00544117
0.00465336
0.00174781
0.00482408
0.0023743
0.00676138
0.00205543
0.00673089
0.0068181
0.00684021
0.00315304
0.00165226
0.00893438
0.00337192
0.0137183
0.00673279
0.00678412
0.00684759
0.0092301
0.00822484
0.00676835
0.00271933
0.00222847
0.00733976
0.00683737
0.0103573
0.00657263
0.0133679
0.00116434
0.00964736
0.0021503
0.00240679
0.000196673
0.00860414
0.0112623
0.00376387
0.0068355
0.00136294
0.00672667
0.00661521
0.00270636
0.00683048
0.00850377
0.0042796
0.00346418
0.0130134
0.00114614
0.0143503
0.00672067
0.00421012
0.00611356
0.00681035
0.00526627
0.0166712
0.00528202
0.013427
0.0067139
0.00306073
0.00642467
0.0131592
0.0110118
0.00212195
0.00680609
0.00657283
0.00688356
0.00228207
0.00858991
0.00999105
0.00593599
0.0067587
0.00310497
0.00564039
0.00211059
0.00313808
0.0108202
0.0102297
0.000924351
0.00250615
0.00678608
0.00603678
0.00677412
0.00314801
0.0024379
0.00783583
0.0119917
0.0029044
0.00139438
0.00567873
0.0105554
0.000295773
0.00680299
0.00304308
0.0101467
0.00450662
0.00559957
0.0067743
0.00679405
0.00292232
0.00607465
0.00739225
0.00683315
0.00677691
0.00678761
0.00550134
0.00145031
0.00683364
0.00274744
0.000940163
0.012476
0.00283577
0.0053413
0.00673502
0.00638043
0.0034307
0.00682575
0.00144183
0.00900428
0.00679203
0.00676714
0.00164386
0.0103871
0.00670688
0.00671385
0.0145092
0.00680604
0.00758378
0.00671387
0.0126313
0.00679752
0.00252142
0.0156365
0.0108377
0.00552992
0.00179471
0.0144407
0.00900545
0.00241544
0.0138113
0.0058972
0.0067349
0.00343591
0.00684148
0.0067209
0.00681268
0.0142773
0.00677617
0.000265192
0.00677116
0.00654351
0.00287943
0.00136068
0.00264581
0.00619334
0.00665686
0.00672342
0.00263057
0.00248278
0.00976341
0.0067347
0.00216368
0.0100589
0.0068455
0.006772
0.00982482
0.00248124
0.00494146
0.00154461
0.012577
0.0104911
0.00184043
0.00492541
0.00575863
0.013651
0.00956412
0.00685333
0.00202203
0.00676809
0.00157864
0.00673663
0.00673939
0.0143975
0.00976635
0.00666763
0.0080238
0.00292284
0.00466805
0.00411018
0.00477565
0.00678016
0.0028232
0.00647287
0.00678998
0.00564138
0.0113452
0.0109093
0.00866898
0.00985089
0.00458563
0.0118156
0.0112943
0.00255809
0.00678266
0.00678122
0.0118081
0.00673703
0.000389942
0.00682906
0.00614524
0.00663802
0.00602842
0.00963979
0.00863886
0.0068213
0.00334526
0.00634224
0.00563004
0.00672009
0.00680471
0.00541193
0.00600845
0.00815429
0.0158544
0.00256349
0.0017176
0.00672816
0.00437939
0.00684464
0.00145439
0.00667942
0.0062827
0.00682869
0.00685018
0.00130664
0.00610762
0.00376527
0.00677683
0.0041313
0.000589356
0.00292165
0.0067974
0.00213786
0.00678849
0.00311251
0.00646215
0.00942564
0.00116375
0.00232881
0.0038176
0.00682063
0.00517002
0.00679776
0.00920271
0.00671982
0.0068349
0.0066888
0.0114124
0.00367194
0.00638285
0.00580229
0.00680122
0.00224859
0.0113316
0.00304834
0.00243354
0.00677098
0.00646494
0.00677591
0.00683279
0.00111414
0.0112208
0.00680597
0.00511893
0.00204797
0.00368288
0.00682992
0.0064798
0.0105923
0.00624173
0.00606145
0.000167563
0.0092101
0.00680393
0.00627591
0.00674349
0.0118578
0.00154211
0.00223817
0.00167791
0.00875762
0.00502074
0.00869221
0.0108505
0.00684523
0.00674092
0.00237157
0.00682202
0.00478542
0.00679342
0.00683848
0.00674738
0.00115063
0.0054246
0.00127037
0.00673108
0.00472645
0.0027305
0.00907052
0.000131555
0.00959008
0.0102826
0.00612689
0.00153667
0.000682164
0.00557122
0.00125089
0.0119864
0.00673919
0.00581251
0.00676784
0.0142574
0.00435158
0.00674246
0.0140925
0.00125433
0.00326694
0.00628339
0.00673986
0.00680329
0.00346955
0.00417335
0.0179151
0.00187956
0.00130922
0.00300177
0.000926232
0.0156531
0.002875
0.0104368
0.00680307
0.00679122
0.000940552
0.0084605
0.00434256
0.00446258
0.00688979
0.00251749
0.0102494
0.00683267
0.00290308
0.0067118
0.00225379
0.00258616
0.00586815
0.00402867
0.000220282
0.00541014
0.0100651
0.00206196
0.00673199
0.0021669
0.0115722
0.0049081
0.00409436
0.00254692
0.0067013
0.00686818
0.00678694
0.00626964
0.010977
0.00851602
0.00331325
0.00260616
0.00437441
0.00506161
0.0034285
0.00681249
0.00680316
0.00676043
0.00985719
0.00673661
0.00975847
0.00478432
0.00305486
0.000693959
0.000910277
0.00374349
0.00431489
0.00227762
0.00675856
0.006621
0.00370781
0.00192564
0.00410187
0.0067114
0.00676219
0.00126627
0.00409368
0.00140946
0.0120734
0.00395189
0.00675289
0.00164891
0.00669381
0.00250412
0.013021
0.00671491
0.00194218
0.00684434
0.0117161
0.0067874
0.01201
0.006762
0.00439566
0.00535835
0.00680024
0.00284614
0.00271961
0.00233799
0.00722446
0.0111672
0.00373546
0.00347959
0.00677378
0.00402896
0.00769369
0.00686036
0.00678537
0.0100859
0.0066894
0.00660948
0.00679892
0.00337726
0.00126374
0.0180593
0.00366186
0.00670323
0.00677345
0.0027024
0.011143
0.00673808
0.0115445
0.00713779
0.0160301
0.00101771
0.00513375
0.00541553
0.00273039
0.00046104
0.00673074
0.01054
0.0104248
0.00442812
0.00584758
0.0155601
0.00663072
0.00588563
0.00677069
0.00153385
0.0105563
0.011497
0.00701988
0.00603472
0.01381
0.00954528
0.0049818
0.00672602
0.00680337
0.0080432
0.00590832
0.00259661
0.00687194
0.00684727
0.00671323
0.00683187
0.0111014
0.000595872
0.00536623
0.00767507
0.0035927
0.00667923
0.00674385
0.00678002
0.00597249
0.0117946
0.000410642
0.00626477
0.00694969
0.00585344
0.00107689
0.00206536
0.00245739
0.0053322
0.0108265
0.00255094
0.00510365
0.0067363
0.00686619
0.00184152
0.0116673
0.0116303
0.00943199
0.00124089
0.00545671
0.00642561
0.00408728
0.00680179
0.00320737
0.00816489
0.00990815
0.00441868
0.00435397
0.00677741
0.00674931
0.00672062
0.0067646
0.00270059
0.00463853
0.00362433
0.00528206
0.0103702
0.00426245
0.0119096
0.00588034
0.00306744
0.00708433
0.00450704
0.00219841
0.00888305
0.00671123
0.00334798
0.00352703
0.00393567
0.00285992
0.00496839
0.00280335
0.0075617
0.00690962
0.00227625
0.00685176
0.00595835
0.0117576
0.00445944
0.00677719
0.0111978
0.00127055
0.00111435
0.0136064
0.00157425
0.00593489
0.00679591
0.0179874
0.0107889
0.00125176
0.00247545
0.0111873
0.0123955
0.00677496
0.00674537
0.00434331
0.0112403
0.0111403
0.00673142
0.00480452
0.00613363
0.00678903
0.00684566
0.00238827
0.000332272
0.00642664
0.00393755
0.00670464
0.00633108
0.00674042
0.00310318
0.00682392
0.00445373
0.00651199
0.0115855
0.00681957
0.0067398
0.00108852
0.00254909
0.0104654
0.00484577
0.0077148
0.00680739
0.00680009
0.00674877
0.00245714
0.00181856
0.00194972
0.00303914
0.0088073
0.00397958
0.000790527
0.00253028
0.0156763
0.00683067
0.00744688
0.0100739
0.00278435
0.00748004
0.00248966
0.00857473
0.006825
0.0020733
0.00683621
0.00166513
0.00197012
0.00211625
0.010989
0.0066076
0.00217306
0.00676829
0.00544192
0.00677309
0.00671161
0.00929986
0.00132233
0.0090534
0.00230681
0.00236164
0.00387627
0.00674368
0.00272824
0.00555531
0.00679086
0.00141699
0.00676021
0.00216053
0.00678064
0.0183338
0.00684447
0.0123632
0.0131776
0.00546187
0.00263312
0.0029153
0.0116659
0.00683591
0.0168417
0.0127663
0.00673303
0.00675468
0.00671531
0.00652207
0.00242127
0.00676658
0.00910698
0.00251811
0.0135177
0.00278023
0.00684824
0.00683319
0.00676763
0.00487436
0.00680591
0.00680757
0.000265018
0.00338476
0.00785592
0.0105651
0.00219466
0.00646609
0.00510995
0.00674874
0.00607735
0.00542768
0.00679602
0.00346106
0.00443648
0.012146
0.000806418
0.00675741
0.00598875
0.0117683
0.00621739
0.0113654
0.00993229
0.00673048
0.00387536
0.00671897
0.00514954
0.00754074
0.00966238
0.00679704
0.00487955
0.0065641
0.0067832
0.00148403
0.00684694
0.00442842
0.00282927
0.0101555
0.00671817
0.00372848
0.00348412
0.00603609
0.00674349
0.00772057
0.00388816
0.00524866
0.00895883
0.00444546
0.00950245
0.00666055
0.0116841
0.0126432
0.00465744
0.00673781
0.00672815
0.0109021
0.00468393
0.00539111
0.00681177
0.0110333
0.00682467
0.000658516
0.00681401
0.00666288
0.00503639
0.00671443
0.00734908
0.00445547
0.0157687
0.0114002
0.00674666
0.00223424
0.00246267
0.00712457
0.0111195
0.00684179
0.00153284
0.00676331
0.0066917
0.00673746
0.00682427
0.00682346
0.00773675
0.00560935
0.0067097
0.00316523
0.00459137
0.00813391
0.00198878
0.00670965
0.00337942
0.00138666
0.00714413
0.00682613
0.00675674
0.00686599
0.0129067
0.00683006
0.0142365
0.00670264
0.00228793
0.00149341
0.00682529
0.00933084
0.00682924
0.012008
0.00670185
0.00306105
0.00239903
0.0067877
0.00718522
0.00670424
0.00671442
0.00231281
0.0059255
0.00534227
0.00651815
0.00211268
0.00651287
0.00683523
0.00338434
0.0101662
0.00679189
0.00674367
0.00658954
0.00249473
0.00250798
0.00375535
0.00759835
0.0067974
0.00741125
0.00576316
0.00208876
0.0107606
0.00632818
0.00393055
0.00866239
0.00036266
0.00677872
0.0141321
0.00155843
0.00252171
0.00454317
0.0103794
0.00672113
0.00204163
0.00644255
0.000784777
0.00671847
0.00445536
0.00773616
0.00202111
0.0101922
0.00621373
0.00497341
0.00247335
0.010222
0.00245553
0.0113554
0.00564172
0.00784508
0.00684732
0.00974278
0.00370009
0.00719838
0.00672876
0.0066517
0.00684223
0.0113606
0.00622023
0.00977146
0.00813441
0.00683716
0.00680894
0.00672958
0.00686212
0.00275618
0.0087418
0.00747911
0.00673345
0.00855236
0.0101903
0.00153417
0.0052943
0.00856118
0.00334067
0.00161481
0.0040258
0.00290936
0.00451009
0.00734146
0.00668942
0.0073165
0.00683249
0.00675375
0.0135703
0.0075073
0.00810739
0.00153712
0.00540862
0.00683351
0.00688518
0.0089491
0.00670784
0.00673356
0.00218176
0.00709622
0.00675046
0.00682054
0.00902577
0.00856939
0.00669169
0.00672989
0.00489725
0.00675153
0.012407
0.00682155
0.00683243
0.00623406
0.00139058
0.00638448
0.00238646
0.00983637
0.00680385
0.00640761
0.0103012
0.0105847
0.00544293
0.00265574
0.00671871
0.00248452
0.00670044
0.00663858
0.00142898
0.00683655
0.00287545
0.00522741
0.00681133
0.00646028
0.0050391
0.0136543
0.00607904
0.00675341
0.00690574
0.0104687
0.00547596
0.00369151
0.00683077
0.00673188
0.0131832
0.00682493
0.00685632
0.00400642
0.00675234
0.0102798
0.00464682
0.00683698
0.00557256
0.00678382
0.00684587
0.019917
0.0112112
0.00221402
0.00615096
0.00345344
0.00682983
0.00671828
0.0067918
0.00683835
0.00683339
0.00693983
0.00216412
0.0109196
0.00666281
0.00133306
0.00625359
0.00654475
0.00679553
0.00671174
0.00371008
0.0115718
0.00682997
0.000639291
8.68311e-05
0.00304752
0.00669083
0.00218694
0.00680521
0.00563902
0.0067497
0.00680614
0.0068238
0.00682856
0.00553375
0.0065219
0.00270097
0.00274193
0.0128111
0.00624862
0.0140525
0.00254131
0.00758712
0.00600694
0.00100381
0.00975133
0.0091292
0.00172644
0.00886559
0.00682305
0.00682194
0.0177828
0.00676479
0.00514598
0.0145625
0.00528636
0.0190203
0.00111482
0.00676802
0.00659182
0.00681242
0.00455263
0.00681422
0.00390524
0.00950765
0.010098
0.0132971
0.00682015
0.00673552
0.00262387
0.00837383
0.0102384
0.000755988
0.000821586
0.00673104
0.00118099
0.00772907
0.00398738
0.00655651
0.00682853
0.0068077
0.00663895
0.00684302
0.00683749
0.00525782
0.00985267
0.00227824
0.00802658
0.00919259
0.00135355
0.00118309
0.0067285
0.00681758
0.00671223
0.00677001
0.00682349
0.00911212
0.00760687
0.0136186
0.0112217
0.00349283
0.00817362
0.000639477
0.0112374
0.00934711
0.00684066
0.00682374
0.00946525
0.00682733
0.00671856
0.00993296
0.0102574
0.00190275
0.00677427
0.00681085
0.00648078
0.00410504
0.0046163
0.00676775
0.00647684
0.000487855
0.00678819
0.0110776
0.00355687
0.0157105
0.0068323
0.000278998
0.00962621
0.0048855
0.0089129
0.00174366
0.00813419
0.00679769
0.00633234
0.00676423
0.00556733
0.00280764
0.00680894
0.00551629
0.00673793
0.00682254
0.00672698
0.0115604
0.00218963
0.00176227
0.0124827
0.00676229
0.00409941
0.00490797
0.00337912
0.00681666
0.00662153
0.00683367
0.0025019
0.00683817
0.00682635
0.0118278
0.0094614
0.0115576
0.00111691
0.00079861
0.00821625
0.00260664
0.0111543
0.000755177
0.00678601
0.00680769
0.00669033
0.00684641
0.0090056
0.00974272
0.00681864
0.00456656
0.0121533
0.00256419
0.00668218
0.00685966
0.0102651
0.00891719
0.00980011
0.0112779
0.0101966
0.0066938
0.000535372
0.00113188
0.0142939
0.00484224
0.00673738
0.0015548
0.00700777
0.00521215
0.00863295
0.00683805
0.0043015
0.00780717
0.0112677
0.00254989
0.0046024
0.0029987
0.00154475
0.0112445
0.0119532
0.0103031
0.0017261
0.00839223
0.00681706
0.00633861
0.00225572
0.00529155
0.0128452
0.0078144
0.00688513
0.000759199
0.00234494
0.00687523
0.0092237
0.00673179
0.0015377
0.0051983
0.00672695
0.0165007
0.0107929
0.0119771
0.00973348
0.00160887
0.00851883
0.00682767
0.00892402
0.00675044
0.00682122
0.00217144
0.00461926
0.00995224
0.00418114
0.00688426
0.00497209
0.00682655
0.00665126
0.00670503
0.00168191
0.0136633
0.00671167
0.0072429
0.00118298
0.00665893
0.00295797
0.000295866
0.00671825
0.00245341
0.00681638
0.0121051
0.0122421
0.00681639
0.00170894
0.00669196
0.00908252
0.0100931
0.00231986
0.0166834
0.00617693
0.00673412
0.0147331
0.00342959
0.00684292
0.00203122
0.00212555
0.00672286
0.0068078
0.000753432
0.00672624
0.00522758
0.000535395
0.00542496
0.00848366
0.00229385
0.00137237
0.00683172
0.00922201
0.00268022
0.00867901
0.00673169
0.00680858
0.00154256
0.00549162
0.0124834
0.00684182
0.00693698
0.00683832
0.00144619
0.00687861
0.00385465
0.000854517
0.00172208
0.00767514
0.0169964
0.0100053
0.00969751
0.00669261
0.000710194
0.000609355
0.00446204
0.00681099
0.000388407
0.00274343
0.00526233
0.00170608
0.000813056
0.00248012
0.009493
0.00211404
0.000269113
0.00671336
0.00226235
0.00219654
0.00672911
0.00271285
0.00900894
0.00379798
0.00592242
0.00094999
0.00673069
0.00676069
0.00570902
0.00673243
0.00991198
0.00677108
0.00677507
0.0104658
0.00101359
0.00353498
0.00138124
0.006885
0.00111219
0.00580437
0.0100418
0.00670837
0.00299196
0.0100811
0.00665227
0.00675814
0.00354058
0.00788553
0.000737555
0.00055551
0.000671388
0.00571364
0.00679697
0.00673453
0.00671958
0.00334446
0.00950159
0.00074148
0.00424749
0.00928509
0.00507169
0.0134331
0.00222014
0.00675832
0.00319045
0.00352187
0.00674249
0.00601279
0.00372666
0.00432725
0.00794814
0.0100069
0.00677561
0.00211734
0.00387928
0.00132233
0.0066271
0.0172633
0.0101699
0.00682467
0.00234186
0.0111145
0.00236621
0.00171224
0.010827
0.010204
0.00844553
0.0114537
0.00675612
0.00785882
0.00681727
0.00664311
0.00675913
0.0014072
0.00881262
0.00213193
0.0070415
0.00469524
0.00149105
0.0067094
0.00671166
0.00681625
0.00690438
0.00215768
0.0105395
0.0120105
0.0024906
0.0119888
0.00684569
0.00162572
0.00671567
0.0118065
0.00213253
0.00683058
0.000770925
0.00150533
0.0186017
0.00695442
0.000682238
0.00176163
0.00566208
0.00831167
0.000482273
0.0048582
0.0101884
0.00667241
0.00162355
0.00679729
0.0097095
0.00499091
0.00215328
0.00874122
0.000539042
0.0126007
0.00123916
0.00130378
0.00254299
0.00671286
0.00165257
0.00276462
0.00435246
0.00168472
0.00353567
0.0044252
0.00417934
0.00129737
0.00666573
0.00551984
0.00241478
0.00529305
0.00663767
0.018389
0.000972322
0.00734169
0.00205139
0.00676827
0.00935459
0.00672907
0.0064354
0.00661456
0.0095037
0.00461279
0.0113319
0.00292399
0.00149725
0.0034302
0.00167203
0.0153141
0.00150592
0.0160593
0.00696647
0.00217248
0.00682646
0.0099741
0.00884111
0.00696182
0.0068294
0.00470486
0.00344597
0.00620285
0.00230412
0.00218862
0.00682843
0.00505627
0.00321174
0.00756941
0.00208757
0.002215
0.00673467
0.0152619
0.00253383
0.00243808
0.00502715
0.0021407
0.0196619
0.00672527
0.00685216
0.00644629
0.00515605
0.00676322
0.00918336
0.0101444
0.00518572
0.00469913
0.00940527
0.000973584
0.00312672
0.0156317
0.0025136
0.00105475
0.00400159
0.00247325
0.00470253
0.00218842
0.00115496
0.00643011
0.000506743
0.00675778
0.0127671
0.00671325
0.000870021
0.000405954
0.0146703
0.00673164
0.00219649
0.00683502
0.00546262
0.00691293
0.00505778
0.00415148
0.00672706
0.00671978
0.0072585
0.00797487
0.00684434
0.0148998
0.00113251
0.00671411
0.00650758
0.00985889
0.000818287
0.00172441
0.00674927
0.00391744
0.00124671
0.00683554
0.00679312
0.0124672
0.00353692
0.00929744
0.00232117
0.00310677
0.00832012
0.000797264
0.000772557
0.00672562
0.0104083
0.00251353
0.00370249
0.0164596
0.00227301
0.00684515
0.00106709
0.00426993
0.00630164
0.00676793
0.00189503
0.0067691
0.00212499
0.00392352
0.00104957
0.00682556
0.000487617
0.00261813
0.00474497
0.00104472
0.00729271
0.000769803
0.0109209
0.00671254
0.00210729
0.0031747
0.0067282
0.0121397
0.00670246
0.00294796
0.0044769
0.00654464
0.00173684
0.00722613
0.00307161
0.0105099
0.0153375
0.00479358
0.0145109
0.00142252
0.00569071
0.00676438
0.00217299
0.00488197
0.0111926
0.019416
0.0117954
0.0174742
0.0117156
0.00671883
0.00104847
0.00672821
0.00452944
0.00682547
0.00760004
0.000770766
0.00207246
0.00677062
0.000900389
0.00369055
0.00603172
0.0068177
0.00238539
0.00261487
0.00235141
0.00244069
0.00189044
0.00441495
0.000529238
0.00154354
0.00673025
0.00801981
0.000510945
0.00309952
0.00684099
0.00353716
0.0067682
0.00680718
0.00245297
0.00642337
0.0064135
0.00109137
0.00228403
0.0060108
0.00677045
0.00613481
0.00258318
0.0171722
0.00548645
0.00541997
0.0118342
0.0053569
0.00539026
0.00330163
0.00461396
0.00660299
0.00684459
0.0103401
0.00258039
0.00515076
0.00592111
0.00554234
0.00682027
0.00608942
0.012104
0.00684357
0.00247829
0.0107439
0.00174314
0.00159537
0.00413203
0.0113685
0.011945
0.00946413
0.00545725
0.00182067
0.00904243
0.00672818
0.00292131
0.00680438
0.00673871
0.00593492
0.00752952
0.00530689
0.00675761
0.00771232
0.00131385
0.00677626
0.00592579
0.00175483
0.00676785
0.00667947
0.0148814
0.00284437
0.00220308
0.00469356
0.00676903
0.0019485
0.00240028
0.00560105
0.00111599
0.0013513
0.00423014
0.00149033
0.00827043
0.00653
0.00351071
0.000740682
0.00141228
0.00155664
0.0143138
0.00257069
0.00610777
0.00218056
0.00179458
0.00350052
0.002272
0.00677432
0.00672924
0.00680763
0.00484606
0.00926917
0.00680673
0.00188118
0.00640486
0.00364196
0.00647132
0.00110845
0.00381171
0.00173007
0.00682115
0.00644857
0.00618186
0.00682629
0.00226748
0.00397505
0.00682174
0.00457738
0.00507043
0.00680718
0.0195152
0.00423343
0.00809218
0.00196338
0.00946942
0.00166613
0.0021825
0.00571272
0.00228397
0.00642038
0.00291351
0.0184644
0.00830654
0.00121074
0.00268073
0.00243611
0.00673934
0.0125457
0.00441814
0.00779577
0.00676588