/*--------------------------------*- C++ -*----------------------------------*\
| =========                 |                                                 |
| \\      /  F ield         | OpenFOAM: The Open Source CFD Toolbox           |
|  \\    /   O peration     | Version:  v2012                                 |
|   \\  /    A nd           | Website:  www.openfoam.com                      |
|    \\/     M anipulation  |                                                 |
\*---------------------------------------------------------------------------*/
FoamFile
{
    version     2.0;
    format      ascii;
    class       volScalarField;
    location    "850";
    object      omega_0;
}
// * * * * * * * * * * * * * * * * * * * * * * * * * * * * * * * * * * * * * //

dimensions      [0 0 -1 0 0 0 0];


internalField   nonuniform List<scalar> 
13851
(
0.0234076
1.33059
0.0762315
0.0231199
0.0769353
0.0513443
0.0216265
0.0453618
0.0206621
0.0898069
0.273768
1.90159
2.74899
2.71254
0.0214103
0.0326307
0.0246206
0.0280746
1.2763
0.0206575
0.0229619
0.073879
0.0213294
0.0222058
0.021509
0.0461242
0.0239659
10.9703
0.0232384
0.0240531
0.0574621
0.0249175
0.072763
0.390945
0.0222155
0.17577
0.556482
0.173068
0.0998222
0.322427
0.0213194
0.019757
4.64162
0.268478
0.255046
2.68639
0.261609
0.585195
0.0241771
0.039214
0.0706765
0.131218
3.17841
0.0215689
0.022509
0.0197609
0.0212598
2.2683
0.0238372
0.0216594
0.144499
2.58311
0.053773
0.0893427
0.120405
0.0249033
1.72827
0.278264
0.0330498
0.0278842
7.35654
2.9069
1.27271
0.0216823
0.0210222
0.0208785
0.0709571
5.34161
0.0459598
6.70716
0.0218615
0.215326
0.021357
2.49026
0.0547546
1.96679
0.0413449
1.80156
0.0250841
0.0208465
0.176718
0.0321419
0.289279
0.0271982
0.0248701
0.02199
0.0786838
2.72731
0.0383098
0.0219962
3.32442
0.0490028
0.022186
0.0237045
0.0210376
0.0453145
0.0541462
0.0196563
3.50028
0.0541873
0.0222641
0.020913
0.0308482
0.0226729
0.0222608
0.814599
2.75958
0.0196883
0.0228038
0.0229432
4.97528
0.0235859
2.77624
0.612468
0.631675
0.0218333
0.637169
0.0476505
0.0227902
0.130902
0.0213004
0.0207175
5.94906
0.0213576
0.813665
0.0209084
0.0197005
2.82383
2.46799
2.22991
2.98271
0.0224696
0.022637
0.020097
0.0231266
0.280516
0.041349
0.129631
0.0216112
0.252439
0.0740019
0.0225035
3.04693
0.0213189
0.0227875
0.0230387
0.0210177
0.0230262
0.130697
0.0698125
0.0197876
0.0271474
2.18634
0.0207013
0.0275111
0.0199239
0.0510192
0.0335064
0.0226694
4.85473
6.59764
0.0203818
0.0210359
2.16328
0.0206931
0.581292
0.0460946
0.0226016
1.62401
0.0196701
0.0256542
3.07191
0.0213556
0.0792195
0.0197666
0.021521
0.025071
0.0218521
0.0868226
0.0852834
0.273332
2.50985
0.0211681
0.0331632
2.46803
0.0226495
0.0223758
0.331541
0.022402
0.0209098
0.0219437
3.94979
0.0237934
0.0212552
0.0689595
0.0213672
2.32058
0.0247512
3.0689
0.019694
3.40647
0.0220975
0.379286
0.0196252
0.020015
0.273372
0.0518081
2.56634
0.0213479
3.01709
0.024911
0.0219018
3.06818
0.125932
3.40558
0.0216141
0.0290626
0.0212028
2.00406
0.0196247
0.044834
0.109111
0.0203744
0.0210819
0.0631691
0.0415836
2.30165
0.138664
0.0200774
0.0212669
0.0570933
0.382205
0.0202338
0.0749887
0.0206987
3.17985
0.0502162
0.309435
0.0231335
0.0255231
0.0269975
0.389715
0.021897
0.023218
0.0505884
0.93962
0.0823607
2.87221
22.6701
0.0214382
0.020035
0.0269492
0.239596
0.0204716
2.41908
0.0226388
0.0218634
0.0267366
3.10882
0.0811624
0.0269067
0.0227815
0.106528
0.0435174
0.0317578
0.0207276
0.215425
0.161976
3.68097
0.269766
0.0202511
0.0196544
0.0209714
0.0484635
0.217192
0.537909
0.0207701
0.0214439
0.0988223
0.214632
0.158867
0.0235389
0.0216675
0.0354529
0.213382
2.26795
0.0269258
1.91082
0.0207486
3.21866
0.0267944
0.0244947
3.64297
0.0216304
0.0449333
3.05215
0.0207496
0.0421671
0.0273198
0.0233376
2.52264
0.0271068
0.0218451
2.94177
0.0198059
0.0257596
0.0225597
3.76168
0.119732
0.0213474
0.0506317
0.0213807
10.347
0.0291841
0.0213332
0.0212659
0.116822
0.0284049
0.0227068
0.0214471
0.0216087
0.0218057
0.26601
4.5564
3.92751
0.0308339
3.72114
2.44593
0.0213675
0.0337988
0.1593
0.0367314
0.0528772
0.114615
1.54021
0.0249984
0.467327
3.12182
0.0214266
0.0434501
0.0455938
0.852249
0.022697
0.0557982
1.9936
0.0210626
0.552246
0.0212537
0.0213927
0.0205463
0.0196548
0.0209596
3.20598
0.310516
0.0213702
0.0404361
0.0198558
1.78098
0.038649
0.392314
4.12314
0.0213829
0.0562572
0.0274299
0.470389
0.0212299
0.0197053
0.0282767
4.44036
0.0214144
2.45737
0.035516
0.122328
6.58542
0.176351
0.152472
0.0253208
0.0207818
0.0220642
0.0295861
0.0500613
2.90458
0.0335055
3.495
3.08776
0.0198687
0.0214458
4.54549
5.00302
0.102571
2.81497
0.0290824
0.0280118
0.0219626
2.43942
0.0205055
0.0319708
0.0248816
0.0215599
0.0210881
0.0207237
0.0199105
0.0870193
0.0493194
6.77699
0.028385
0.0535433
0.0319317
0.39151
0.026422
1.074
0.0242518
0.272515
0.0196876
0.0207045
0.0217671
0.494156
0.319828
0.121262
0.0312123
9.30681
0.43499
0.0403121
0.0232426
0.064626
0.0212095
0.389833
0.0210169
2.08683
0.325226
0.0683829
3.1983
0.0227024
0.138891
0.312208
5.33409
0.0196474
0.0293577
0.0472296
0.117369
0.0204622
0.0218202
0.0693029
0.12181
0.0324595
1.64024
0.0216089
0.02133
2.24752
0.0282915
0.0196368
1.6936
0.0207712
0.0233925
0.0205467
0.0397219
0.0226718
0.0196726
0.0225166
2.96704
0.0213689
0.0356166
0.0208301
0.0283732
0.265207
0.022818
0.0212877
0.0227002
0.0226849
0.614045
0.0218415
0.0452773
0.0213552
0.0217097
2.49948
3.3604
0.0213931
0.0293239
0.0265719
0.367138
2.48467
0.0213445
0.326121
0.0212544
0.0768906
0.0215968
2.0195
0.0198044
3.7849
0.0808831
0.0197711
0.0294224
3.01023
0.0460297
0.257889
0.0227212
0.580121
0.0229154
0.020638
0.0207338
0.0215689
3.97825
0.0633554
0.129001
1.25021
0.0496216
0.019829
2.76017
0.315357
0.0258043
0.0273464
0.32597
0.616664
3.45015
0.0223971
2.0488
2.7396
3.19566
0.0278243
0.030369
0.590148
0.157671
0.963084
0.351305
2.29608
0.0232009
2.30266
3.04405
0.0197002
0.144861
0.0650551
4.19065
0.0233122
0.0212345
0.0209934
0.0212649
0.0853544
0.0381203
1.79178
1.60891
0.0207698
2.61356
3.13294
0.055621
0.304829
0.034997
0.0196047
0.0206816
0.154403
2.78897
0.022869
0.088633
0.172519
0.0197477
0.0361669
0.618646
0.209972
0.113364
3.74902
3.06499
0.0212749
0.0215731
1.32438
3.03954
0.126879
0.0333569
0.0587301
0.0196688
0.0211136
2.08347
0.0197248
0.0232259
0.0196565
0.0207917
3.07865
0.0856506
0.0292411
0.019714
2.45398
0.364048
0.0207766
0.0209981
0.0205145
0.0219734
4.45259
0.322695
0.356907
3.09796
0.487982
0.0317082
5.77646
3.24975
0.0254617
0.0335093
0.0195985
0.0224856
0.0340314
2.98065
0.331575
0.0872123
0.0283245
0.0206168
0.0322347
0.0224876
0.262354
0.0703375
0.0213459
0.0316788
0.0204641
0.0265022
0.125991
0.0216325
0.0211878
0.0388336
0.0216067
0.0777859
0.402512
0.120376
0.0327215
0.131353
0.0206025
0.088182
0.0279822
2.86629
0.0220258
0.0220545
3.39058
0.02352
6.95373
3.09958
2.36335
1.64123
0.0205054
3.14615
0.0204377
0.0207857
0.019798
0.0207998
0.0232947
0.0291835
0.0376279
0.0196949
2.36196
0.0835447
2.36908
0.0209275
0.019936
0.0208979
0.156861
2.38282
0.0518263
0.0267652
0.0204806
0.0217926
0.0215583
0.0210705
0.191316
1.7152
0.0215845
0.0196843
0.0215815
0.021062
1.12954
2.22756
0.032845
2.71279
0.623832
0.0211704
0.127434
5.16355
0.0349057
2.00552
0.0218464
0.0271976
0.0508784
0.0274971
0.382681
0.0213807
0.601254
0.0210748
0.0298593
3.00061
0.0209743
0.0229383
0.0563042
0.0206464
0.0252095
0.134914
2.31058
0.0687296
2.10046
0.239053
0.01964
0.0209069
2.39637
0.165954
0.0444601
3.13538
0.0205527
0.0241772
0.0197152
0.402466
1.73907
0.0254985
0.0218608
0.264748
0.0241043
0.0208638
2.71568
1.08656
2.83767
0.0197906
0.0215747
5.37742
3.6751
0.150762
0.022247
3.42701
0.0213699
0.27073
0.132808
0.0726105
0.0247888
2.44464
0.0261255
0.023016
0.500194
0.0219591
0.0237774
0.0228137
0.0205851
2.39999
0.0312758
0.114742
0.0288578
0.213756
0.0206376
0.165463
0.0226082
0.0260685
0.0200226
0.0211346
0.0214143
3.00901
0.0209784
0.0197405
0.697078
0.0215922
3.96636
0.021262
0.0225179
0.0684443
1.43949
0.247605
0.0209238
0.0790511
2.68287
0.0218738
3.2361
0.029575
0.020558
0.0303838
3.71632
0.0686914
0.0257105
0.0208862
0.0196689
0.312562
0.081604
0.0557892
0.0265013
0.0301702
0.0221094
0.0223635
0.0877688
0.40167
0.0848634
0.29739
0.0215561
0.0779245
0.0823139
3.80822
0.0253476
2.27034
0.799823
0.0216062
4.38738
0.0783557
2.51234
2.47883
2.87277
0.316958
0.0401904
0.0205732
0.0289301
2.28803
2.91356
0.0211986
0.0217487
0.0652421
0.209836
0.0197899
2.95837
0.0205309
0.0213834
2.20145
5.29921
0.241667
0.0207753
0.0214071
3.00784
0.191035
0.118433
0.0236313
2.99979
0.250966
2.37437
0.0534769
0.0396508
0.0218509
0.0215875
1.21432
0.0485148
5.7461
0.0300727
0.0330391
2.41485
2.54184
3.46832
0.0214436
0.0302646
0.0207636
0.0334004
0.0228487
1.85643
0.0243031
3.12019
0.0197849
0.0669573
0.0211369
0.151123
0.0322685
0.0298758
2.72896
0.0424039
0.0418648
0.0223245
0.0667918
0.548098
0.0635293
0.0233172
6.53533
0.0204047
2.86071
0.31975
0.0216295
3.37557
3.98349
3.62131
0.323047
0.0290531
0.0211845
2.85981
0.0243715
0.825704
3.07847
0.020934
0.0226093
0.482239
0.392925
2.10374
0.0215525
0.0208793
1.24103
3.02859
0.113955
0.0252822
0.022987
0.329915
2.08653
0.0851523
0.0197465
0.0407396
0.0206613
0.0232862
0.0760261
0.0220249
2.03559
0.39039
0.0213927
0.0228174
0.0212079
0.0228678
5.93687
3.15829
0.0289668
2.29342
0.0211351
0.0289941
0.0211394
0.0206769
0.0215669
0.0213774
3.92402
0.0213942
0.0509169
0.0214476
0.0258703
0.0758201
3.17821
0.0227425
1.35472
0.0587139
1.28707
0.0319943
0.0323402
7.72264
0.0265114
0.0391791
1.8249
0.855575
3.0013
0.0395282
0.256731
0.0219302
0.0403438
0.0502192
2.17557
0.0213773
1.9824
0.0208894
0.0209453
2.5849
0.021689
2.47967
0.0250415
0.0207487
0.034345
0.0207634
0.0214131
0.0208666
0.0218018
0.185659
0.020951
0.181055
2.02439
0.061232
2.1521
0.0215688
0.0226408
0.0231179
0.0212763
0.0207417
0.0783158
0.0218987
0.0208316
0.0219117
0.021586
3.88317
1.72386
0.0630103
2.80361
0.232238
0.0211089
0.424213
0.028131
0.0209419
0.312409
0.0444736
0.468099
0.0210811
0.260499
0.404125
2.06422
0.0204084
2.74313
0.030522
0.0238486
0.0210929
0.0205612
2.36448
0.0777928
0.567975
0.0209197
0.0213172
0.675328
0.021648
1.27252
0.32086
1.44604
1.64215
0.376932
0.0216891
0.0213326
0.0552307
0.028587
0.023698
0.158237
0.0413275
0.0219322
0.0228535
1.8657
0.0208508
3.81174
2.3314
0.84595
0.18952
0.022287
0.0202094
0.0217361
0.253149
0.352596
0.0204077
0.0231356
0.0208896
0.0760414
0.0198645
0.0208516
0.0219348
0.0321668
1.19499
0.0404303
0.0312999
0.0214682
0.0511441
2.53039
0.0221957
6.30656
2.24231
0.0795532
0.0199829
0.0433253
0.0212295
0.0213715
0.0216731
5.2116
0.119745
0.347854
0.0237682
0.271115
0.0212819
0.0211297
0.0216355
0.384964
0.897815
0.0197652
0.0317866
0.0515418
3.47928
0.0228014
1.44736
0.0236896
2.31399
0.0764966
3.29469
0.089246
0.0783009
0.435031
3.04706
0.377479
4.26817
0.0212477
0.16132
0.0198505
0.0234064
0.0258788
0.0216149
3.09829
0.0291283
0.0271215
0.327685
0.181155
0.605942
0.0213633
0.0234909
0.0259282
0.0202853
0.0301054
1.22809
0.402952
1.30058
0.0209472
0.026571
0.0240111
0.609631
2.88174
0.0546054
0.0201873
0.0218377
2.10035
0.0447579
2.32542
2.60453
0.0373716
0.019963
2.72722
0.0294298
0.0429368
0.0280253
3.30195
0.248403
0.118913
0.0871665
0.0222583
0.0273362
0.0213909
3.26005
0.0456121
3.19193
0.256359
0.0257015
0.144328
0.0226087
3.34468
0.247681
0.0208657
1.37479
2.96147
1.56222
3.3361
0.0216391
0.0213542
5.66602
2.56162
2.03106
0.0227872
0.0215782
0.0213873
3.76978
0.139285
0.0217827
0.0627273
0.0861378
2.3083
2.65582
0.488515
0.0214274
3.33494
0.0244321
0.0212676
0.138393
2.43262
0.021633
0.0208817
3.92027
3.27603
0.0215195
0.0209314
1.97386
0.0208113
0.151966
0.0209473
0.631731
0.021348
0.051753
1.2234
2.93504
0.0224361
3.93379
0.382903
2.34009
2.40077
2.31342
0.0337285
0.0211642
2.0879
0.0228469
0.0213799
0.0202599
0.461494
0.0211522
0.410679
0.0208989
0.0231926
5.38661
0.0654446
1.98461
0.0227676
0.0243483
0.0207255
0.0318443
2.77999
2.70257
0.0208673
0.0650488
0.272176
0.021602
0.0205724
2.91202
0.0335734
0.0343151
0.127986
2.53836
1.01603
2.51673
3.26251
0.0351614
0.273183
0.331086
1.45938
0.0649153
0.0201719
0.125441
0.021152
0.0211357
1.87112
2.95134
0.0230952
3.84474
0.0839465
4.06926
0.0486729
0.0480865
0.0212301
0.0870729
0.0317933
0.0210671
0.0225286
3.1205
2.78804
1.41341
3.37258
0.037495
3.16553
3.23139
0.0312966
0.0217476
0.0210511
0.214923
0.0210098
0.212435
0.0223826
0.0220356
0.0232819
2.6315
3.71807
2.22339
0.021889
2.81024
0.0249738
0.0291217
0.0209907
0.0208692
2.45508
0.0268304
3.26475
1.16875
0.0520748
0.114432
0.0214797
0.0394721
0.0216038
0.139173
0.0224458
0.0226804
0.0218096
0.0224321
0.15545
0.0220889
0.0341394
0.0211475
0.0347543
0.131554
5.82042
0.0210631
0.0470957
0.0213311
0.060555
0.0238134
2.59764
0.21244
0.0310133
0.0236058
0.0224392
0.0400981
0.0212599
0.2316
0.0214282
0.0209611
0.0222459
2.92489
0.0266637
0.024442
0.0294732
0.0213912
0.0631672
2.84433
2.27379
0.0349374
0.0213978
0.0299589
0.0202236
0.0210472
0.186035
3.09943
0.0211707
0.0300067
0.0902419
2.89607
0.0218209
0.0220139
3.13495
0.0225162
0.0357921
0.231281
3.81605
0.0213621
0.0254387
0.0212528
3.34492
0.130104
0.0410366
0.117116
2.23432
0.0223563
3.67379
2.35967
0.0216162
2.65398
0.0796592
0.0224094
2.75207
0.0215447
0.0212315
0.0205009
0.180768
0.0398264
0.161585
0.0227141
0.0222551
0.0296022
0.264763
0.384565
3.6781
0.272351
0.0219915
0.130634
0.127488
2.18212
0.073288
0.217366
0.0210229
0.0292236
0.0205799
1.02798
0.0357354
0.021246
1.91892
0.179986
0.0318556
0.0260259
0.0196952
0.021324
0.0522015
0.0336096
0.693784
0.0649528
0.0653491
0.0586239
0.113204
2.38794
0.0687712
3.60884
0.0210774
0.0208375
0.182416
2.30256
2.54852
0.0510266
0.0224972
6.08182
0.273221
0.0210099
0.0260564
0.0208244
0.0404468
0.0688822
0.0576916
2.4691
0.359552
0.0225728
2.4544
6.68674
0.0214229
0.0758461
2.46702
2.27249
0.023673
0.0735985
0.0196173
0.0231338
0.0210537
0.0251229
3.55833
2.92497
2.89614
5.8724
0.0225443
0.033303
0.0524726
0.0210179
0.0219064
0.0205702
3.01481
0.0209711
3.47189
0.0356514
0.0482326
0.156434
0.195201
4.77732
3.00296
0.0397003
0.0198851
0.0227714
2.85386
2.20454
0.0245834
0.020791
0.0206408
0.0616934
0.0298928
0.143337
2.36116
0.0225107
0.0205218
0.120518
0.0277953
6.35683
0.966193
0.0209432
0.0701905
0.0215624
3.59724
0.0200327
3.16584
0.0210137
0.022448
0.0307249
0.0219571
0.0570659
0.0294875
0.046201
2.17877
2.7898
0.0250291
0.0294557
0.0212208
2.93528
2.08149
0.0218149
0.0200855
0.280198
0.019665
3.85721
0.021254
0.0333358
0.0682749
1.12076
0.0370226
0.02269
0.021601
0.0689029
3.18109
0.0211646
1.03587
4.26408
0.953699
0.64916
0.0327606
3.75277
0.025238
0.217022
0.0212818
0.280361
0.277227
2.26888
2.12784
2.37264
0.0219748
0.0370944
0.0208729
8.29535
0.317139
3.02684
2.16156
0.026692
2.3939
0.68963
0.0339794
0.0227331
0.0216216
3.35468
0.0254303
0.0684422
0.02318
0.0216487
0.0206771
0.0215561
2.71727
0.181429
0.0306275
2.12503
2.46826
0.0215027
0.0213181
0.0205573
0.0277922
3.14637
0.192434
0.0253833
0.0246967
0.594924
0.0759152
0.0435148
3.97485
0.0298396
3.48671
0.0298045
0.0290812
0.0212927
0.023118
0.068714
0.408856
0.294682
3.14966
0.068559
3.06073
0.0243038
0.0242346
0.0215102
3.20669
2.3658
0.606259
0.0482755
0.0234207
0.0214063
0.0210908
0.0214247
0.0205886
3.32215
0.0287906
3.16318
0.0315961
2.49762
2.16453
3.19398
0.0305727
0.0256889
2.01149
0.0381939
1.05701
3.32432
0.0206234
0.0516569
0.0268625
5.63121
3.05846
0.0340144
0.14914
0.307567
0.0229674
0.0485946
0.0241586
2.53159
0.31417
0.0238406
0.0215973
0.288713
0.97402
0.127315
0.731064
0.125588
0.0282356
0.0212176
2.20857
3.11102
0.0772629
0.030349
2.76183
2.28227
0.0208909
0.0214161
0.0240583
3.09993
2.97572
0.0213459
4.26021
0.0220314
0.0210744
0.0216108
6.20714
0.278974
0.0335134
2.67038
0.0228743
0.0226443
0.0209844
3.06407
0.0222731
3.32289
0.0237527
1.3651
0.0218216
0.0211526
0.119501
3.34916
0.295402
0.0350963
2.35749
0.0200701
0.0215163
0.0214268
0.0435297
0.0630772
0.0630862
0.0354562
3.26698
0.0242082
0.123134
0.0993992
2.38603
0.0214523
3.38105
3.04926
0.0248667
0.441906
0.0645432
2.54372
0.0216066
0.0665748
0.0211056
0.794202
7.41268
0.0715039
3.36164
0.0234514
0.0480219
0.0224502
3.93302
0.0199522
0.020808
0.418247
0.0873831
2.29583
2.74959
0.0631652
0.0281611
0.020484
0.831966
0.0299617
0.0210891
0.14324
0.0207574
0.0424583
0.0213998
0.984218
0.0226247
0.275923
0.308193
0.0305431
0.0880912
0.0536629
3.62922
0.0213246
1.1537
1.77595
0.0207287
0.0213702
0.0228228
0.0218497
0.038683
0.0212672
0.38874
0.0745181
0.269252
0.0751792
0.0215179
0.0218657
0.0204882
3.11098
0.021536
0.0212899
0.218526
0.0237873
1.36717
3.37698
0.0871519
0.0240043
0.0329622
0.0225969
0.0220175
0.0354109
0.020143
0.0239125
2.41715
3.25634
1.16775
0.0225482
2.09753
1.04239
0.0218668
0.258769
3.10207
0.0213598
0.0234387
0.0213156
3.23131
2.26348
0.396196
0.020125
0.0238794
0.0231739
0.0215986
0.128102
0.0215631
0.0442699
2.69074
3.53215
0.0206032
0.0237797
0.0234181
2.54616
0.0196867
2.19232
2.90199
0.0461414
0.900656
4.11584
2.33541
0.0227049
0.461059
0.445075
0.0223511
0.0204657
0.0208787
3.33421
2.28773
2.12834
0.021296
3.5105
0.0215912
0.160878
0.0205011
0.0231389
0.0222896
0.0205928
2.34767
0.022414
1.91262
2.35869
2.18172
0.0460927
0.0512054
2.25672
3.13855
0.0218542
4.19707
0.0204948
0.0197077
0.021305
0.0280037
0.0207205
2.09562
0.0293387
0.104625
0.0364099
2.50977
2.07155
0.082019
0.0205686
0.0535761
0.0739468
2.34175
0.0214814
0.0198964
0.0229653
1.9694
0.0216476
0.320866
2.0354
0.0404804
0.05921
0.0215037
0.2242
0.0217862
3.1788
0.0202552
2.86816
0.030813
0.0215249
2.03977
2.12916
0.0201927
0.0646709
0.0243975
2.1282
0.0313529
0.110524
0.0843485
0.0217949
0.053291
2.68756
0.0210586
0.0273476
0.0230304
0.0753196
0.0318603
3.18621
3.1084
0.0215408
3.4162
0.0223708
0.0431787
2.88916
2.01822
0.0349081
3.01718
0.184545
0.0216098
0.321213
0.128202
0.0303715
0.022366
2.54624
0.0202218
7.06212
0.0495608
0.106156
0.0213533
0.0303923
3.23027
0.0435894
2.40784
0.0220472
0.0236851
0.081854
2.65858
0.0258654
3.16075
0.663664
2.10472
0.0216248
2.65497
2.15366
2.45253
0.0214027
0.0223028
0.0213258
3.25826
0.0270933
0.263513
0.208142
0.0218247
0.0203228
0.0213736
2.4448
2.93554
3.09868
2.10303
0.0209709
2.88115
3.20737
0.129692
2.15245
3.071
0.0340092
7.49055
0.0232825
0.0255196
3.15692
2.73366
0.0218414
4.0778
0.0217813
0.0214086
2.32116
3.14927
3.67535
8.80859
0.0306845
0.0218267
0.0231811
3.35006
2.09191
0.0211766
0.0457521
0.383392
0.0214386
0.0215381
3.05392
2.73197
0.0229698
0.0214386
0.0222749
0.0225734
0.682472
0.0218323
0.0211603
0.0255393
0.36057
3.02015
0.244952
2.47782
0.0215543
0.0246111
2.84846
3.20628
0.0279094
0.0904822
0.0213336
0.0351413
0.0227036
0.0222668
0.0653185
0.0210978
0.243152
0.0321022
0.0208478
0.024304
2.30255
1.75605
3.6046
0.0214527
0.0247138
3.31009
0.369775
0.0239228
0.0214034
0.0214865
0.268148
0.0215549
0.0218876
0.0275792
0.021357
2.88264
0.052241
0.021781
0.0240647
0.0200629
0.0215574
1.43917
0.429362
0.0690581
2.02692
0.0601622
0.0218888
0.021314
0.0215218
0.0212903
0.0217574
0.0238413
0.0701233
2.83775
0.0226163
0.108085
3.51348
0.0578214
0.0212437
0.0208246
0.0233894
2.32171
0.0212427
0.9187
0.435322
0.0462371
0.0220665
6.44391
0.0200858
0.0349809
0.0204308
0.0201169
0.021704
0.0208307
0.0346764
2.75631
0.0805859
0.0379554
2.25087
0.632524
1.05676
0.0313161
3.14441
2.04847
0.10636
2.33564
3.09868
0.113412
0.261774
0.021846
0.0207295
1.4694
0.0210282
0.0241496
2.31936
0.0361117
1.73433
0.244501
0.0207791
0.0239094
0.0215122
0.0383977
0.0204698
0.0505267
2.34973
2.93166
0.91128
0.0215098
0.0202553
0.0706171
3.57005
2.91901
0.113589
1.22723
0.0208789
2.01207
3.56315
0.0612248
0.0237848
0.0215379
0.0200167
0.0232419
0.0214722
0.0213537
0.023936
2.8926
0.0751721
3.23298
0.408994
1.58134
0.176662
0.0212747
0.0210453
0.0220376
0.0205731
0.0218126
0.381776
2.32662
0.727917
3.46221
0.0233477
2.12298
0.152432
3.2022
3.26079
0.0215181
0.0208224
0.246571
0.0215068
0.0202075
0.541685
2.90058
2.45283
0.0214131
0.0215357
0.0238752
0.0373705
2.18936
0.0205135
0.0240145
0.685304
0.0204792
0.46178
0.0368645
2.32437
0.0218139
0.329865
3.21789
0.0347266
3.30872
0.111588
3.31046
0.0200641
0.0250005
0.0208526
0.0294116
5.55337
0.021453
2.26659
0.0218649
0.0215893
0.0214489
3.35011
0.0433338
0.110241
0.508573
0.0206661
0.0426648
2.84454
0.0536891
0.0207771
0.0229486
0.0215084
0.0446666
0.0213335
0.0209086
3.46349
3.59638
3.22772
0.560308
1.01731
2.11841
0.0690796
3.58785
0.12361
0.020004
0.0210306
0.0196777
0.0216555
3.39067
3.33375
0.0203855
2.34367
3.31643
0.0290186
0.0225038
0.0247868
2.45535
3.00848
2.93113
1.97781
2.93965
0.0196805
0.29182
0.0989778
0.319636
3.22549
0.0213421
0.12834
2.30146
0.0321321
2.73415
0.0218271
0.0543586
2.1759
3.08038
0.0735294
0.030834
5.35497
0.129671
3.13312
3.16253
2.86438
0.113254
2.60587
0.0215542
0.0248675
0.0461726
4.10766
0.3045
3.4307
0.0221658
0.112108
0.0681624
0.0223053
3.13988
0.0213598
0.129106
3.91721
0.0213683
2.36694
2.32246
3.14993
2.55112
1.19343
0.340648
0.0211095
3.43049
0.0217725
0.0209104
0.0406083
0.0237784
3.12172
0.02397
0.0248641
0.0240287
0.0208258
2.31679
0.0228856
0.116606
0.321198
0.0206085
3.71983
0.0992168
0.0226351
3.98023
0.242052
0.021352
0.111683
0.0220642
3.29659
0.454042
0.0204183
0.115723
0.0229536
3.51509
2.98374
0.0706701
1.07523
0.0255549
0.0214934
2.327
0.0239662
0.0213284
2.39032
0.0399986
0.0208825
0.0208343
0.127058
0.0227625
3.87384
0.302636
0.0325503
2.45993
0.0518761
0.0615461
0.0211573
3.55505
6.21884
2.38081
0.0214077
0.0202939
0.070299
0.030129
0.40131
0.0213603
0.332293
0.0212708
0.400846
0.0218675
0.0612114
0.157562
0.113919
3.5463
1.14758
3.05691
2.97549
0.0197122
1.13015
1.59517
4.52497
0.0211606
0.137527
5.9382
2.22224
0.115473
1.28022
0.357399
3.63833
0.0448646
0.215021
0.0205784
0.0464948
0.0421108
0.0213244
0.0685888
2.30026
0.0584905
2.2098
1.85478
0.0211667
0.0208353
0.0292403
0.0213315
0.880367
0.0205436
0.0208009
3.75826
0.18965
0.0329821
0.100109
0.0224004
0.0838053
2.17681
3.07086
2.02578
0.0254071
3.02927
0.0229694
0.0205618
0.023202
3.16478
0.210173
0.289498
0.181499
0.0223186
0.0208541
0.0213317
0.0218625
0.0263916
2.69185
1.89632
0.0284217
3.17929
3.92536
0.467321
4.50323
0.0214357
0.0294466
0.186089
0.0214159
0.0314926
0.0266296
0.0239068
2.64697
3.0951
0.0205367
0.039115
0.0293444
0.0680429
2.57667
2.34917
3.56986
0.0216729
0.0809825
3.43451
0.0799575
0.115334
0.459025
2.49802
3.77214
3.56141
0.0205116
2.61862
0.0203652
0.0230488
0.0213504
0.0594325
3.71939
6.68649
0.315712
2.22767
0.055794
0.020152
0.0208085
0.0215382
0.0231213
0.0431794
3.6478
3.42192
0.0755057
0.679107
0.0216683
0.0555509
0.0206612
3.13121
0.0658007
0.0215933
0.136707
0.100719
2.1193
3.629
0.126511
3.98446
0.0246699
2.46123
0.210815
3.12781
0.307702
0.0228534
0.0552339
0.0215001
2.96455
2.45807
0.0397037
2.72021
0.210156
2.38756
0.065492
0.177806
0.0402911
0.0208945
0.120068
0.0579456
0.0241048
0.055012
0.0305929
0.0321337
3.34414
0.157123
0.023138
0.0299423
0.0358988
0.0315663
0.0227522
2.28243
0.108551
0.155947
3.39461
0.021406
3.18095
0.021468
0.024238
0.0234278
3.11842
0.0371289
3.19255
4.41354
0.0589701
0.0461867
0.117775
1.67211
0.133219
1.05766
0.0242489
0.0449613
0.0209379
3.22069
0.310828
0.0241427
0.0215549
0.0363187
0.025806
0.0242852
0.048277
0.0391379
0.0216191
0.0334288
4.96682
4.00116
0.108122
0.0405271
0.0198202
1.76211
0.0319065
0.0631498
0.450259
0.0424585
1.93482
0.0202368
0.0244252
0.024146
0.0327123
0.0212192
3.33359
0.305015
2.35524
0.0365207
3.21725
0.191536
0.0255675
1.66403
0.0645701
0.188964
2.35566
0.0436054
0.0239592
0.0400585
0.0660953
0.024346
0.704023
3.80091
0.33998
0.0209011
0.20132
0.358499
1.99756
0.0212693
0.0434978
0.0211213
0.0303125
2.35727
0.0290733
0.0287398
0.0208924
0.0208691
2.05394
3.11099
0.0213971
2.23303
0.187894
0.0201656
0.0247152
3.25669
0.1123
0.101346
0.0213845
0.0269193
0.106098
0.0217088
0.0210684
2.30171
0.0290342
3.29676
0.0816975
0.0260091
3.72364
0.114752
0.158958
0.0209354
0.341828
0.0297157
0.0264224
1.53893
0.0397847
0.021594
0.082865
0.0243944
0.0251835
0.0201564
0.949306
0.0213738
0.0611792
2.22085
0.0983545
0.0208572
0.854086
0.0304138
2.82606
0.164654
3.47268
0.105181
3.06946
0.0206933
0.0744986
0.0253586
0.0211301
0.395646
2.23739
0.0248943
0.303164
0.0241993
0.0701919
3.53269
0.0258707
0.388542
1.03369
3.25497
1.77933
0.534781
0.0386036
0.0207612
0.063374
0.0348783
0.728565
1.84448
3.11402
2.36074
3.28725
0.0208424
0.296374
0.0214038
0.0224092
0.0215824
0.25142
0.148207
0.073294
0.021048
8.7854
0.0271256
3.65605
0.0209297
0.0608377
0.029985
0.0683314
0.0418733
0.102111
0.0228102
0.150232
0.138389
0.0209598
2.92342
0.182374
0.0502673
0.0227176
0.0297069
0.0216062
0.0210742
0.063184
0.029713
2.03077
0.189829
0.0829966
0.574668
0.0211902
1.34504
0.0631104
2.35875
0.0301585
0.0306501
0.371587
0.0311338
0.0428448
0.137652
4.37746
0.0235038
0.021684
3.02423
0.0313846
0.0236118
0.0271195
0.0297676
0.0205434
0.0263702
3.23627
0.0215692
0.0418058
3.27068
0.111743
0.0697729
1.53043
1.91582
3.39933
2.58834
1.29962
0.0547692
1.03771
0.022739
0.0247397
0.0215146
0.0209973
2.49955
0.295913
0.0315552
0.0207413
0.76082
0.0900303
0.0213129
0.0812798
0.0517905
0.0212353
0.0230343
1.66805
0.0263866
0.036854
0.0363919
0.0214224
0.0825964
0.0632669
0.0293732
0.804062
0.0773324
1.98194
0.526202
3.01216
0.0233576
4.62917
0.157016
0.143995
0.0655652
1.84606
0.0728165
0.0262775
0.0484778
0.0650018
0.0234463
0.0692416
0.0211036
0.0212601
0.020123
0.0243948
3.2801
0.0204295
0.102689
0.0243648
0.02366
0.0242365
1.03287
0.0233363
0.060826
0.0215548
0.0243527
0.0248978
0.0207606
0.0990495
0.0235446
0.0205842
0.0223016
0.0287236
0.0210139
1.97696
0.0270476
2.28395
0.122447
2.6392
0.0580066
0.0693902
0.0389561
0.039785
0.0250298
0.0250131
1.56324
3.00863
0.230724
0.0611298
0.0312667
0.0214251
2.37336
0.0391713
3.2673
0.0216221
0.912394
0.140732
1.29222
1.35255
0.0201308
0.0214179
0.0203704
0.0287162
3.05633
0.046038
0.895328
0.0257916
0.0287378
0.0210127
0.0218607
0.033405
0.0236082
0.0239766
0.0209446
0.233978
0.323175
3.16273
0.0247905
0.682066
0.020741
0.0203157
0.103215
0.0219545
0.0241065
0.063197
0.024132
0.0683231
0.021425
0.0245168
0.0215499
0.024463
3.18586
0.0211801
0.0235379
0.022667
0.0238788
0.376019
0.0217942
0.0485203
1.68251
0.0245841
0.0294471
0.0224492
0.023236
0.021807
0.127218
0.0214868
0.02658
2.74486
0.0208347
0.0290394
0.0487143
0.0559971
2.15684
0.0201055
0.0237396
0.0223541
0.0299583
0.100362
0.897951
4.26146
0.0202711
0.0282913
0.0705816
0.0236376
2.11373
0.019999
0.0215837
2.08982
0.0397124
0.023647
0.020064
0.142091
0.122367
2.00063
0.0215833
1.16104
0.0200372
0.0205492
0.0235059
0.0754203
3.76536
0.0215399
0.0209324
0.215311
0.0214906
0.023227
0.343883
3.83751
0.0214857
0.020507
0.0222191
0.031076
0.19689
3.31185
0.0218846
0.103624
0.0214164
0.0213673
2.35697
0.0231775
0.0218854
0.0300275
0.238196
0.130269
0.0233232
0.0221701
2.61509
0.0399217
0.0223895
0.463247
2.91601
0.0214977
0.0217654
0.0231547
0.0213637
0.021494
0.0208813
0.0202566
0.0388134
0.0230641
0.043088
0.046609
2.16539
0.627733
0.0306058
0.0200855
0.0214037
0.0222086
0.0231373
0.0398231
0.0287135
1.43974
0.0236405
0.0740339
0.0242923
3.09157
2.08906
0.0283162
0.0228074
0.119984
0.023811
0.0267458
0.0213943
0.022333
0.0211112
0.0688233
0.0423812
0.0468007
0.104254
0.0232398
0.0255523
0.0222531
3.3574
2.50834
0.327745
0.0269209
0.0902818
0.0800781
2.91986
0.0219595
0.492381
0.0630833
0.0214034
0.0218091
2.24083
0.0215355
0.0224932
0.0232417
1.08348
0.0215038
0.0217664
0.0254035
2.19833
0.0209741
0.050385
1.04423
0.0235753
0.0215185
0.0211731
0.0214274
0.0217834
0.0217382
0.0650951
0.0226377
0.0215067
0.0217503
0.0217803
0.0284141
0.0213907
0.265449
0.0215637
0.0217276
0.0374766
0.0355225
0.0279982
2.04122
1.10252
3.40354
0.036798
0.0208632
0.038366
2.16781
0.0202312
0.114618
0.0235687
1.04959
0.0232821
0.0424346
0.0217742
0.0213884
0.112515
0.212513
1.59578
0.271375
3.41182
0.0217467
0.0209346
2.29534
0.0202028
0.0215105
3.22065
0.0210152
2.25274
0.0214482
0.176934
0.104789
0.0237174
0.592888
0.0259744
0.0739783
0.364685
0.450855
0.235911
2.39478
0.506553
2.3715
0.0215717
2.17714
0.0214921
0.0213179
0.0209969
0.0219523
1.07739
0.0224197
4.21957
0.0215351
0.0213769
0.0215728
0.328007
0.0217055
0.0206754
0.0525968
0.0251856
0.0262231
0.025067
0.0281323
0.272514
2.4534
0.597438
0.699282
0.0956326
0.0223761
0.846347
0.0214512
0.0281476
0.0652569
2.5459
0.0428955
3.44606
0.0214959
0.586966
2.3399
0.144591
3.44021
0.263548
0.0235079
0.0213298
0.0240409
0.0214889
0.0213103
2.33836
2.32551
0.0210818
1.12406
0.0214191
0.105252
0.020996
0.178859
0.0274117
0.0233823
0.0207594
0.561017
1.19325
0.290205
0.0206146
0.0206873
0.0263098
0.0220704
0.0222343
0.172074
0.417038
0.0457195
1.84997
0.041937
0.0218013
0.0313779
0.0681799
0.0219074
3.06462
0.0541307
0.167231
0.0231548
0.0241174
0.0203144
0.0196847
0.0213737
0.0263641
0.0207951
2.2067
0.0382386
0.240312
0.0212875
0.0421794
0.0214857
0.473908
0.0394459
0.0535031
3.10165
0.0258458
0.021343
0.0248547
0.0218254
4.27484
0.0748339
0.0408723
0.0538475
3.49227
2.12966
0.106298
0.0491038
0.0214042
0.0231025
0.0231898
0.0453089
0.268374
0.0261199
0.0215822
0.325783
0.297342
0.0217943
0.0232924
0.0543405
0.02237
0.0209736
0.0399917
0.0214447
0.0218907
0.0209453
0.0234944
0.0220576
0.0450016
2.37038
0.0214646
0.479512
0.0956184
0.105803
0.0209357
0.021552
0.0389696
0.025819
0.021435
0.124005
0.0213587
0.0485062
0.0216162
0.0407853
1.62348
0.0532438
0.0225669
0.0582667
1.8338
1.30985
0.0214333
0.0349744
3.5867
0.0212177
0.0222728
0.0756001
9.04721
3.28759
0.0237344
0.0213669
0.0280645
0.0212447
0.0223222
0.0279091
0.021802
3.53515
0.0218068
0.130885
0.0214866
0.0214676
0.0509987
0.0213676
0.021561
0.0280211
0.43709
0.0205681
0.037019
0.0218765
0.0211714
0.0216953
0.0278396
0.0256479
0.0683232
0.0231657
0.0217689
0.02184
0.0376918
0.0224007
3.37787
0.022032
0.106602
0.0329194
0.0228763
0.027338
0.998933
0.0215188
0.0220632
0.020022
0.0711111
0.369711
0.0216282
0.0362062
0.0209502
0.0350522
0.021448
0.271843
1.49685
0.0235552
0.0252322
0.0271337
0.0255143
0.0221502
0.020746
0.0464628