/*--------------------------------*- C++ -*----------------------------------*\
| =========                 |                                                 |
| \\      /  F ield         | OpenFOAM: The Open Source CFD Toolbox           |
|  \\    /   O peration     | Version:  v2012                                 |
|   \\  /    A nd           | Website:  www.openfoam.com                      |
|    \\/     M anipulation  |                                                 |
\*---------------------------------------------------------------------------*/
FoamFile
{
    version     2.0;
    format      ascii;
    class       surfaceScalarField;
    location    "850";
    object      phi;
}
// * * * * * * * * * * * * * * * * * * * * * * * * * * * * * * * * * * * * * //

dimensions      [0 3 -1 0 0 0 0];
oriented        oriented;


internalField   nonuniform List<scalar> 
20537
(
-0.380962
0.510322
-0.129354
-0.0348284
-0.155218
0.190046
-0.184627
0.163837
0.0207901
-0.0229021
-0.302264
0.325172
-0.147694
0.164115
-0.0164208
0.296342
-0.450046
0.153706
0.198032
0.202946
-0.400966
0.24391
-0.0883387
-0.155571
-0.457553
-0.0932349
0.550801
-0.0366868
0.207552
-0.170865
0.593756
-0.22691
-0.366846
0.0634088
-0.079882
0.0164732
0.0886495
0.0129019
-0.101551
7.20682e-05
-0.00180091
0.00172885
0.680487
-0.549124
-0.131309
0.279537
-0.287684
0.00814806
-0.047376
0.283617
-0.236238
0.440638
-0.250661
-0.189974
-0.141904
0.149689
-0.00778522
0.0817339
-0.539273
0.347212
-0.370105
-0.0796618
-0.104965
-0.364137
0.584637
-0.220496
-0.692284
0.0985257
0.59378
-0.549681
0.185549
0.216635
0.027276
-0.0875152
-0.181276
0.268793
-0.00374555
-0.00146927
0.00488561
-0.385842
0.226878
-0.352991
0.126117
0.439909
-0.143565
0.231217
-0.27859
-0.0209216
0.184759
0.435665
-0.498981
0.0633168
-0.603999
-0.0882625
0.114733
-0.128925
0.0141921
-0.00254484
0.0914254
-0.0888806
0.207734
-0.124193
-0.0835414
0.132347
-0.169033
-0.0265177
0.462183
0.0432256
0.339472
-0.382685
0.488702
-0.662645
0.173944
-0.00522539
0.00318016
0.00204523
0.307478
-0.556721
0.249243
0.56345
-0.255972
-0.00805072
-0.00814674
0.0161975
-0.55449
0.239616
0.314875
0.218355
-0.486882
0.268528
0.173188
-0.260701
0.310846
0.227998
-0.538841
0.164299
-0.0187429
-0.145556
0.148547
-0.0767769
-0.0717699
-0.00265137
0.00183254
0.000818834
-0.739559
0.376816
0.362794
0.659834
-0.539971
-0.119817
0.661652
-0.172949
0.653566
-0.296
-0.357555
0.00580295
-0.00512478
-0.000678165
-0.184557
0.411441
0.285322
0.0956722
-0.380984
0.0564944
0.15124
0.0516797
-0.0705635
0.0188838
-0.396706
0.289149
0.107558
-0.143895
0.128632
0.0152628
-0.125925
0.319585
-0.193659
-0.449852
0.144273
0.305583
0.070201
-0.0727458
-0.575184
0.248679
-0.214079
0.216163
-0.00208312
0.195582
0.245058
0.0149935
-0.0183438
0.00335028
0.087949
-0.078904
-0.00904491
0.130143
-0.164972
-0.293486
-0.446013
0.282456
-0.588497
0.306083
-0.528909
0.435234
0.0936836
-0.135397
0.0557356
-0.0242347
0.00120976
0.023025
-0.00169606
-0.174457
0.176154
0.0177483
-0.00147004
-0.171829
0.433293
-0.261456
0.526935
-0.0328047
-0.49413
-0.436618
-0.0505134
0.487156
0.00593404
0.00387461
-0.00980865
-0.314672
-0.0820319
0.0766734
-0.0132646
0.463008
-0.143666
-0.31934
0.0221794
0.166348
-0.188527
-0.262579
0.323935
-0.0613534
-0.357897
-0.249708
0.607611
0.0216879
0.0930447
-0.0868817
-0.321543
0.408429
-0.250249
-0.0908148
0.251772
-0.160956
-0.0284383
-0.234139
0.564057
-0.55237
-0.0116766
0.0307236
-0.178417
0.0105661
0.032783
-0.0433491
-0.180213
0.491062
-0.0247202
0.588791
0.0200409
-0.0112472
-0.00879372
0.176136
-0.173418
-0.00271751
0.0745514
-0.382898
0.308353
0.267769
-0.0174129
-0.45669
-0.0990246
0.555715
-0.479904
0.378367
0.10154
-0.18171
0.178268
0.00344277
0.523219
-0.6807
0.157482
0.0678665
0.00999726
-0.133394
-0.316649
-0.542047
-0.0195
0.561562
0.274597
-0.632488
0.313569
-0.400447
-0.653075
0.653095
-0.0720746
-0.469957
0.318167
-0.0706047
-0.051379
0.0619451
0.0720246
-0.470963
0.39894
-0.576092
0.578213
-0.0020902
-0.193572
0.565942
-0.37233
-0.00460665
-0.000618738
0.236882
0.0308893
0.0930507
-0.00440117
0.16305
0.474862
-0.256506
-0.772335
0.34633
0.426007
0.215177
0.259686
0.158456
-0.188338
0.0298818
0.0292203
0.317999
0.173582
-0.0850392
-0.0885432
0.426036
-0.382794
0.557671
-0.161324
-0.396326
0.0197189
-0.00472535
-0.554201
0.117608
0.236535
-0.574019
0.609174
-0.0351298
0.554371
-0.482345
-0.0724717
0.0892223
-0.0167506
-0.0253928
0.00141568
0.0239771
-0.0342148
0.017271
0.0169438
0.0134833
0.00655761
0.379533
0.280351
0.163912
-0.563384
0.399478
0.717148
-0.38305
-0.334097
0.41241
-0.084152
-0.328254
-0.197057
-0.359663
-0.441407
0.618482
-0.177075
0.0449733
0.128609
-0.269125
0.467171
0.230691
0.332759
-0.00214401
0.130168
-0.425495
0.619439
-0.193903
0.00723439
-0.00716232
0.31017
0.343405
0.365008
-0.208276
-0.15673
0.305085
0.107329
-0.498335
0.1873
0.311049
0.235037
0.127846
-0.362878
0.0149936
0.133553
0.003204
0.161095
-0.350987
-0.247291
0.598279
-0.0766879
0.226148
-0.149459
0.00380421
0.00199874
0.164082
0.393608
0.273708
-0.371913
0.0982083
0.639797
-0.229013
-0.410781
-0.689712
0.248305
0.00480673
-0.218885
-0.320997
0.350225
0.0428746
-0.00303233
-0.0398422
0.000139763
-0.0243745
0.240347
-0.545973
0.305638
-0.173552
-0.32477
-0.0253806
-0.00883427
0.567418
-0.403315
-0.260008
-0.226874
0.184124
-0.0256673
0.533922
-0.510323
-0.0235935
-0.0211474
-0.120756
-0.518676
0.665676
-0.146999
-0.270883
0.0558583
0.215027
0.0154773
-0.130026
-0.364414
0.494465
0.0516596
-0.156624
-0.361864
-0.23503
0.596895
-0.449017
0.615038
-0.166014
-0.172112
-0.277736
0.359086
-0.552617
-0.169816
0.159403
0.0104129
0.239949
0.00389653
-0.243845
-0.305811
-0.00103702
-0.00161435
0.264868
-0.542494
0.27763
0.186615
-0.210757
0.0241425
0.0722882
-0.0206084
0.401954
-0.178896
-0.223054
0.541494
-0.377575
-0.0839993
0.479049
-0.395049
0.461205
0.0727237
-0.430314
-0.0985859
-0.303711
-0.468622
-0.00934027
0.0296301
-0.0202899
-0.583128
0.0847681
0.498395
-0.541963
0.146465
0.39552
-0.0277086
0.221169
-0.19346
-0.49447
0.364468
-0.0486445
-0.0111947
0.0598393
0.149322
0.140599
-0.289919
0.0295715
-0.00203915
-0.0275324
0.127435
0.442141
-0.569575
-0.0149441
-0.0344709
0.049415
-0.356279
0.430838
-0.468808
0.0846176
0.38419
0.451262
-0.6339
0.182639
-0.718324
0.430253
0.288073
0.636445
-0.277659
-0.358786
-0.150407
0.395629
-0.24522
-0.0108709
0.00282016
-0.108946
-0.412876
0.52186
0.0313818
-0.00181027
0.265903
-0.116579
0.195108
-0.366929
-0.00267052
0.0468959
-0.0442253
-0.0676344
0.146298
-0.0786631
0.000202283
0.0350429
-0.0352452
-0.599144
0.580552
0.0185995
-0.0469991
-0.191463
0.238463
-0.525532
0.0688433
-0.00590043
0.00365442
0.00224601
0.671467
-0.220205
0.218913
-0.00227713
0.329074
-0.295727
-0.0333457
-0.285875
0.526233
0.539469
-0.155835
0.146848
0.00898667
-0.056796
-0.252933
0.30973
0.0115556
-0.0602001
0.146144
-0.272068
0.279285
0.437865
-0.458065
-0.0838793
0.115335
0.324576
0.337841
-0.471493
0.133653
0.574933
0.0562207
-0.631154
-0.198263
0.170555
0.455891
-0.554914
0.0288666
0.00422028
-0.0330869
0.194477
-0.0183407
0.46958
-0.45798
-0.0116005
-0.396665
0.294925
0.101744
-0.223691
-0.124038
0.347732
0.660196
-0.383772
-0.27642
0.473593
-0.135752
-0.246965
-0.107204
0.354175
-0.0915763
-0.0311685
-0.120403
0.151571
0.409984
-0.189544
-0.22044
0.261317
-0.0213672
0.00894342
0.0802788
0.007137
-0.0148792
0.00774224
-0.189736
-0.349219
0.538985
-0.439037
-0.4463
0.349216
0.0970865
0.470574
-0.161178
-0.309395
-0.629359
0.206649
0.422714
-0.132807
0.1081
0.024707
0.188992
0.212965
-0.368483
0.121524
-0.207367
0.116553
0.0493892
-0.0520598
0.411654
0.155289
-0.566941
0.299066
0.361135
0.186115
0.534777
-0.177913
-0.356863
0.176838
-0.178533
0.255755
0.0237841
-0.535923
0.374619
0.601687
-0.0747516
0.612568
-0.196688
-0.415879
-0.00130001
0.0361723
-0.0348722
0.147696
0.44606
0.0258755
0.549058
0.0795384
-0.556835
0.477298
-0.502271
0.598434
-0.0961622
-0.151489
0.120321
0.0504069
0.420167
0.425334
-0.181951
-0.243382
0.0322891
0.455906
-0.488183
-0.385586
0.500734
-0.115109
0.167211
0.367568
-0.671845
0.332537
0.339308
0.148233
-0.10326
0.14897
-0.333524
-0.104788
0.390119
-0.219281
0.217018
0.00226349
-0.392608
-0.279237
-0.0383013
-0.0945057
0.0713934
0.170326
-0.241718
0.0432405
0.0334331
0.43647
-0.571774
0.135321
0.0355068
-0.00664024
0.106675
-0.183363
0.079678
0.203941
-0.0134629
-0.0281159
0.0415788
-0.143742
0.368213
-0.224462
-0.353078
-0.126823
-0.0406924
0.0372221
0.00347036
0.481746
-0.449443
-0.015236
-0.145781
0.161017
0.227163
0.0246105
-0.224931
0.373906
0.00912836
-0.0345212
0.223405
-0.152009
0.387201
-0.363122
-0.0240729
0.0480655
-0.0578822
0.00981663
0.650202
-0.256847
-0.393353
0.0560495
-0.279739
0.733625
-0.367655
-0.365968
-0.0468578
0.0455578
0.125455
-0.0156564
-0.109798
-0.511102
0.402191
-0.191367
0.0467475
0.144619
-0.264105
0.493513
-0.229371
0.0257688
-0.0186318
-0.00298087
0.454155
-0.451169
-0.455016
0.643518
-0.188496
0.612063
-0.249532
-0.362521
0.125345
0.000110005
0.199761
-0.246759
-0.324521
0.073599
0.250925
0.108587
-0.371216
0.227484
0.328775
0.0584335
0.387803
-0.614712
0.0162634
-0.00339598
-0.0470928
-0.00258526
0.049678
0.0825978
-0.382641
0.300046
0.0405858
-0.0540487
-0.00323942
-0.0794353
0.0826748
0.387049
-0.0194442
0.20606
0.125278
0.0229548
0.550483
-0.342287
-0.208192
0.0442788
0.217017
-0.261294
0.000325441
0.114522
-0.114848
0.111388
-0.236787
0.519289
-0.282496
0.368345
-0.0540232
-0.314322
-0.00614463
-0.0328281
0.0389727
0.0397909
-0.588861
0.650958
-0.0769479
-0.574009
0.170788
0.480172
0.179694
-0.048929
-0.130765
-0.110005
-0.214513
-0.203657
0.247936
-0.00254655
-0.00335388
-0.495042
0.321503
0.024479
0.343866
0.358384
0.253689
-0.504466
0.240403
-0.11259
0.568482
-0.0541747
0.577395
-0.182649
0.554154
-0.37149
0.037139
-0.0432836
0.636112
-0.231585
-0.404527
0.317618
-0.444438
0.126834
0.178813
-0.194049
-0.653401
0.359128
0.294275
0.067821
-0.0245804
-0.302287
0.236547
0.0657413
0.321377
-0.373784
0.0450929
-0.00221833
-0.119241
0.436872
-0.242527
0.0921202
-0.0312749
-0.197201
0.228477
-0.157433
0.478811
0.0855937
-0.448341
0.362764
0.159187
-0.630149
0.208776
0.214463
-0.423235
0.00583957
-0.00936384
0.00352427
0.641587
-0.029839
0.0389674
0.228944
-0.103496
0.103822
-0.0341489
0.0311165
-0.666508
0.16412
0.502389
-0.171974
-0.494533
-0.0191451
-0.334933
0.354082
0.633663
-0.154371
-0.479274
0.518969
-0.532915
0.0140001
0.389333
-0.306732
-0.0868029
-0.104564
0.00140137
-0.00320229
-0.256041
0.216992
0.0390488
-0.0442214
0.0444237
0.0430742
-0.00885334
-0.0342209
-0.396555
-0.256845
0.234394
-0.424106
-0.00199984
0.00476127
-0.01906
0.0142988
0.0750206
0.254054
-0.051831
0.000452
0.45099
-0.24221
-0.21583
0.184556
0.501786
-0.535325
0.0335489
-0.10093
0.0976906
-0.437443
0.517058
-0.0796043
-0.108758
-0.178925
0.365796
-0.384936
-0.449188
0.342919
0.106283
0.053445
0.0932581
0.388501
0.317621
0.322177
-0.122721
-0.0211732
0.240509
0.0599776
-0.300485
-0.0151626
-0.00943566
0.0245983
0.349004
0.0108552
-0.359856
-0.134962
-0.456335
0.0322756
0.424062
0.284706
0.188887
-0.330768
0.0915987
0.239172
0.165759
0.0139346
0.287226
-0.207545
0.219675
0.416772
0.121822
0.432551
0.496255
-0.402983
0.0933268
-0.542337
0.138014
-0.163864
0.0258499
0.15928
-0.479662
0.320382
0.129944
-0.11943
-0.0105141
-0.0599555
-0.396376
0.0106062
-0.213549
-0.285432
0.109933
0.140492
-0.0604131
-0.0954214
0.44552
-0.359909
0.448651
-0.163943
0.658988
-0.499144
-0.159842
-0.157768
0.00890603
0.148862
-0.329633
0.49588
-0.166246
0.00669051
0.174768
-0.181458
-0.0222098
-0.00344496
0.0256548
0.59049
-0.129279
-0.649367
0.217956
0.431412
-0.552822
0.22319
0.0188196
-0.00810802
0.305573
-0.667436
-0.228221
0.224714
0.00350762
0.00966728
0.563017
-0.151362
-0.488619
0.54424
-0.055609
-0.403985
0.105153
0.298839
0.131653
0.0264866
-0.103263
0.0756295
-0.359872
0.284246
0.0952418
-0.0570377
-0.0382041
-0.54655
-0.052587
-0.564974
0.315451
0.000943496
0.00481557
-0.00575907
-0.0743146
0.348026
-0.456908
0.536446
0.149305
-0.127125
0.466133
0.167548
0.208063
-0.156291
-0.378009
0.534313
0.11294
0.192225
-0.305163
-0.125193
-0.245555
0.370753
-0.429399
0.46149
0.129007
-0.0111099
0.0591754
0.381575
-0.432069
0.203964
-0.19777
-0.00619388
-0.0789324
-0.495061
0.262707
-0.378529
0.115825
-0.655901
0.221555
0.434347
0.564348
-0.564327
0.51895
-0.155558
-0.36338
-0.554529
0.134672
0.518441
-0.20097
0.432685
-0.231714
0.261316
0.108896
-0.370205
0.337122
-0.480785
0.116068
-0.480457
-0.166346
0.668142
0.0105886
0.00261828
-0.0132069
0.0018757
-0.0240855
0.141236
0.323472
-0.464686
0.397367
-0.134656
-0.287383
-0.0433836
-0.261295
-0.210197
0.0132848
-0.00735072
-0.364347
-0.20062
0.228707
0.407405
-0.0741669
-0.374158
-0.153976
0.00251439
0.151461
-0.334894
-0.0650989
0.400004
-0.00628605
0.00714785
-0.000861804
-0.132687
0.543921
-0.411233
0.000952685
0.000879854
-0.242902
0.249757
-0.00685437
-0.212539
-0.450105
0.21713
0.180241
0.0460687
-0.0141292
-0.0319395
0.209309
0.00960415
-0.469607
0.452429
0.0171783
-0.521313
-0.054749
0.378003
-0.451773
0.0737707
-0.575729
0.0358068
-0.168908
0.579315
-0.410389
-0.580217
0.187114
0.393122
-0.450232
0.339868
0.110378
0.0229242
-0.0181629
-0.157741
0.156588
0.00115342
0.128603
-0.0192618
-0.109341
0.0982441
-0.0916481
-0.00659607
0.0809601
0.326444
-0.677431
-0.0858623
-0.0137061
0.0995684
0.497673
-0.338393
-0.0575901
-0.213292
0.00502087
0.221128
-0.479559
0.218266
-0.278106
0.441156
-0.0624593
0.0475152
-0.519913
-0.0102665
0.530235
0.00111817
-0.00740422
0.00513802
0.00964126
-0.0189815
-0.148507
-0.139968
0.3571
0.509923
-0.234425
-0.467749
-0.181617
0.278906
0.13108
0.372752
-0.456751
-0.144018
0.0151895
0.128829
0.354835
-0.119794
-0.121252
-0.0227663
0.0736454
-0.00594576
-0.0676996
-0.536289
0.403605
0.14482
-0.154537
0.00264707
-0.0212498
0.0186028
0.379542
-0.0846127
0.335969
0.171727
-0.507668
-0.356514
0.543828
0.339196
0.119879
-0.459061
-0.0152673
-0.154548
0.249997
0.0547155
-0.304711
-0.0274692
0.193817
0.0566282
0.0386136
-0.439051
0.597743
-0.158673
0.0055455
-0.004602
0.00114934
-0.0267121
0.0255628
0.46755
-0.389777
-0.0777708
0.22152
0.276154
0.208771
0.578199
-0.477121
-0.101079
0.403032
0.486189
0.0615652
-0.547754
-0.0962351
0.0103729
-0.225963
0.0176893
0.120305
-0.11975
-0.000555396
-0.085697
0.102996
-0.0172992
0.210791
0.450862
-0.393708
0.443594
-0.0498836
-0.173166
0.440029
-0.266863
-0.203277
0.154348
-0.143005
0.147747
-0.00474206
0.00225572
0.0206685
-0.00514409
0.0723255
-0.0671814
0.351884
-0.107275
-0.3419
-0.0896142
0.11635
-0.0267353
0.00238176
-0.0979978
-0.00919914
0.107197
-0.118811
-0.137229
0.38489
-0.0957392
-0.572849
0.316566
0.195284
-0.511826
-0.142578
0.692914
-0.482122
0.286721
0.0928239
0.181172
0.484505
-0.160658
-0.397471
0.558155
0.0766385
-0.00299315
0.159356
-0.477681
0.417729
0.294054
0.398861
0.0172127
-0.0470517
0.403946
0.0751041
0.632656
-0.18349
-0.449148
-0.415748
0.56433
-0.148574
-0.0914656
-0.537891
0.558818
-0.00737222
0.0132118
0.425828
0.0437524
-0.0429793
-0.0136734
0.0233147
0.446588
-0.0685851
-0.0497473
-0.164071
0.213819
-0.0162382
0.0188852
-0.0208951
0.018856
0.151435
-0.388217
0.0215094
0.194654
0.0607439
0.517456
0.429916
-0.235946
0.0174679
0.218479
0.00595346
-0.0685564
0.0626029
-0.396063
0.34204
0.00086501
0.11944
-0.275483
0.0355175
0.239967
0.0801792
-0.478462
0.398296
-0.315929
0.243384
0.072547
0.129191
-0.526996
0.397811
-0.019138
-0.450469
0.135022
-0.143837
0.00881518
-0.373788
0.489883
-0.305233
-0.0774053
0.0220205
-0.510628
0.14686
-0.226999
0.0801406
0.117264
0.0126802
0.412057
-0.316373
0.102849
0.342687
-0.115739
-0.186547
0.0619817
-0.318405
0.256432
0.148848
0.156008
-0.0179938
0.0412084
-0.108843
-0.304442
0.0711633
0.233281
0.0108254
-0.108823
0.471129
-0.390936
0.0824331
-0.336392
0.25396
-0.386749
-0.00231619
-0.0113572
0.133366
-0.489636
-0.633727
0.290735
0.343006
-0.00191281
0.0697793
-0.209642
0.425032
-0.215385
-0.010447
-0.0237019
0.0322605
-0.0353884
0.00312791
0.00958599
-0.00299315
-0.00659284
0.00271118
0.146594
0.0801979
-0.517631
-0.0808169
-0.460298
0.486174
0.341538
-0.539037
0.197523
0.122546
0.421377
0.382858
-0.543491
-0.613861
0.270959
0.342902
-0.0283613
0.377369
-0.23031
0.343252
0.700635
-0.406581
-0.0831657
-0.0177986
0.100964
0.0184149
0.0167289
-0.0998946
0.159682
-0.544864
0.385197
0.137527
-0.556844
0.419318
0.626431
-0.145393
-0.481034
-0.00104581
0.126324
-0.0191968
-0.0535758
0.0727725
0.110111
-0.15107
0.0409597
-0.0605058
0.129425
-0.589723
-0.45255
-0.082766
-0.13564
-0.455425
0.591085
-0.257847
0.427296
-0.16944
0.0611305
-0.0851417
0.0240112
0.0516485
-0.0427259
-0.0089226
-0.254283
0.316274
0.239683
0.460953
-0.136587
-0.313631
-0.471755
0.213922
0.156116
-0.162247
0.00613065
0.00291946
0.000424471
-0.00334394
-0.0601733
0.0487453
-0.0614048
0.0126594
-0.333391
-0.118382
0.458391
-0.355525
0.134896
-0.00629319
0.00945572
-0.197771
-0.0201369
-0.0597451
0.116501
0.316801
-0.250714
0.151094
-0.0409829
0.360075
0.457369
-0.353211
0.210832
0.387647
0.271343
0.130958
0.0529811
0.0256729
-0.0291179
0.151015
-0.545688
0.394681
0.391369
-0.112854
-0.27851
0.285662
0.0992299
-0.56907
0.400179
0.287077
-0.245463
0.412676
-0.00615613
-0.0129688
0.0191249
-0.00337897
0.138401
0.130709
-0.0226089
-0.368765
0.532886
-0.452728
0.561697
-0.401999
0.0160174
-0.00542879
-0.0995495
0.0138525
-0.300878
0.244083
-0.00608744
0.0383479
0.164466
-0.58607
0.421614
-0.00860113
-0.486679
0.495334
-0.414465
0.416008
0.0305801
0.0785653
0.00594453
-0.0845098
0.342413
-0.112745
-0.229665
-0.418874
0.0950448
0.323837
-0.235735
-0.420165
0.072264
0.22006
-0.292322
0.409556
0.216878
0.0015508
0.00376326
-0.00531406
0.0716228
-0.261166
0.0310429
-0.0313903
0.000347407
0.437665
0.0880982
-0.342372
-0.000913778
0.0201494
-0.0192356
-0.00333216
0.000747572
0.00258459
-0.0738292
0.0955172
-0.383971
0.513168
0.0580174
-0.0667938
0.00877635
-0.189707
0.637513
-0.417838
-0.018739
0.165401
-0.146662
0.182803
-0.176112
-0.133929
0.32276
-0.188828
-0.00128489
0.57054
-0.230357
-0.34018
-0.591629
0.37544
0.216194
-0.0116119
0.103037
-0.148118
-0.485595
-0.583091
-0.363318
0.23813
0.118943
0.352198
-0.00534703
0.00689782
-0.208382
0.0446868
0.163697
-0.116518
-0.353862
-0.123815
0.419019
-0.615706
-0.396714
-0.40664
0.56794
-0.0598863
-0.508027
0.235612
-0.405873
0.528421
-0.123656
-0.355083
0.478755
-0.619441
0.245107
0.374369
-0.00381847
0.0410406
-0.539147
-0.517971
0.016164
0.501809
-0.182532
0.461597
-0.279063
-0.441697
0.334434
0.021526
-0.0224397
-0.545566
0.00341051
0.542158
0.525751
-0.380947
-0.144799
0.0822172
0.0410761
-0.123293
-0.00310528
0.159222
-0.131764
0.510473
-0.378708
0.188474
0.341445
-0.5299
0.20684
-0.384752
-0.00673752
0.0554829
-0.10716
-0.0520969
0.0037168
0.0483801
0.191245
-0.0602863
-0.500936
0.344657
0.580051
-0.405028
-0.17502
0.0034116
-0.000231441
-0.27186
0.478702
0.0949701
-0.330492
0.235525
-0.574672
-0.441016
-0.331302
-0.167684
-0.00652001
0.174204
-0.132473
0.267826
-0.135353
-0.196945
0.367274
0.411959
0.168095
-0.502331
-0.017534
0.38933
0.136427
0.0949312
0.0235489
-0.465009
0.361547
0.103462
0.00709409
0.152309
-0.345656
-0.301225
0.389334
-0.146881
0.105737
-0.135787
0.0300498
-0.00822203
0.11757
0.224846
-0.0476684
0.0323142
0.0153542
0.00436641
0.0938778
-0.368283
-0.0733999
-0.0118121
-0.00417058
0.0159827
0.325418
-0.242984
-0.0631097
0.0685668
-0.00545709
0.00784313
-0.0139993
-0.0201705
-0.0274284
0.0475989
0.556302
-0.225412
-0.330889
-0.225648
-0.0072222
0.232871
-0.381979
0.299568
0.0897683
0.00228654
-0.00741132
-0.00793751
-0.531667
0.14045
0.391227
0.587192
-0.595527
0.00834431
-0.00380704
0.150655
-0.31679
0.557321
-0.24053
-0.414493
0.561074
-0.14658
-0.00188244
0.00100397
0.000878471
-0.399409
0.563885
0.345061
-0.454601
0.109556
-0.000531452
0.020749
-0.00081374
-0.0199353
0.0772102
-0.445974
0.482151
-0.140594
-0.500107
-0.00431881
-0.00231633
-0.00101583
0.0855531
-0.0244225
0.109782
-0.118981
-0.185755
-0.30455
0.490311
-0.0536429
0.0510576
-0.0926466
-0.11063
-0.0821669
0.0629701
0.0104365
0.167831
0.175926
0.00288702
-0.0752037
0.0684823
-0.403364
-0.0451934
0.175337
-0.00678016
0.14786
-0.14108
-0.0109319
-0.00812817
0.496781
-0.0457873
-0.00189228
0.00224691
0.00465091
0.00102303
-0.0641327
0.0217247
-0.0205754
0.321407
0.114774
-0.436165
0.201543
-0.0218269
-0.179715
0.476464
0.156209
-0.0610571
0.278714
0.11266
0.0639783
-0.0405181
-0.0234601
0.658725
-0.65865
-0.0202212
-0.00716624
0.0273875
-0.538102
0.123611
0.12422
-0.0420032
-0.433511
0.53696
-0.103433
-0.121331
-0.0511141
0.172445
-0.168558
0.19614
0.00540341
-0.0286217
0.0360222
-0.161354
0.125332
-0.149609
0.341835
-0.48413
0.618819
0.0638074
0.165327
0.369221
-0.0601093
-0.309111
-0.372264
0.109716
0.262551
-0.000499285
0.0212483
-0.371708
0.57836
0.604081
-0.375373
-0.439805
0.152026
0.287789
-0.0451607
0.0106898
-0.0077229
-0.00180837
0.0233343
0.370095
0.186208
0.0893656
0.40742
0.0225168
0.389625
-0.412131
-0.000913726
0.0319566
0.125465
0.533327
0.205015
-0.27562
0.00076624
-0.0255743
0.0248081
0.386942
-0.560591
0.173664
0.0860206
0.196393
-0.282411
-0.107369
0.489257
-0.0853109
-0.0433779
0.0269231
0.0164548
-0.271923
0.394194
-0.12226
0.217723
-0.513714
0.00800131
0.110023
-0.118024
0.00562004
0.0257618
0.121621
0.0261264
0.323048
-0.228076
0.480248
-0.150375
-0.329867
0.231673
0.372408
-0.00433754
-0.00263705
0.00697459
-0.014869
0.120606
-0.530599
0.0126299
0.0347646
-0.260411
-0.565706
0.395724
0.170001
0.413855
-0.329063
-0.397762
0.568551
0.0211802
-0.473721
0.143456
-0.145151
0.00169507
0.176144
0.272509
0.452834
-0.107759
-0.101888
0.380911
-0.235467
-0.0170273
0.0133361
0.00369123
0.0416443
0.00442446
-0.00854458
-0.219675
-0.03913
-0.00853837
0.0448574
-0.478352
0.206949
0.0177664
-0.079136
0.468772
-0.406012
-0.159676
-0.150736
0.431756
-0.281009
0.339359
0.11349
0.0193712
-0.00174727
-0.0176239
-0.147908
0.471397
0.107863
0.0432308
0.435624
-0.114201
-0.238891
-0.569734
0.00391936
-0.00150741
-0.00241196
0.208408
0.369829
0.0210484
-0.110663
0.125743
-0.258215
0.0375225
-0.11293
0.0754078
-0.244154
0.0357724
0.20035
-0.00507909
-0.19527
-0.00404503
-0.200863
-0.0261353
-0.313373
0.060442
0.0438414
-0.130814
0.406807
-0.275992
0.000562652
0.00315483
-0.00371748
-0.14042
0.176932
-0.0365119
0.618495
0.420349
-0.286974
0.199984
-0.163961
-0.162981
-0.0110637
-0.316393
0.504884
0.0361057
-0.0212888
-0.0148169
0.412179
0.149533
-0.157908
-0.00156245
0.00296382
-0.190249
0.609264
-0.419013
-0.108571
0.0874232
-0.257965
-0.14373
-0.36143
-0.095293
-0.494315
-0.00575458
-0.121455
0.508317
-0.386862
0.384865
-0.268356
0.0799196
-0.0915314
-0.410855
-0.14972
0.0650052
0.0205478
0.00249564
-0.00683318
0.243456
-0.0277396
-0.215716
0.000485896
-0.0134547
0.411414
-0.0218663
0.589831
0.223128
-0.590781
0.447108
-0.107899
-0.400584
0.136096
-0.112124
-0.0239718
-0.0990587
-0.231973
0.331037
0.339923
-0.514995
0.175082
-0.0911772
-0.32769
0.107433
-0.562443
0.0229345
0.0439472
0.0077013
0.287191
-0.0547124
0.00288144
-0.00975564
-0.0805208
0.0902765
0.436014
-0.11943
0.0641583
0.334623
-0.39878
-0.101308
-0.174174
0.143314
-0.14839
0.503204
-0.354814
0.339779
-0.455606
0.11583
-0.483574
0.399894
0.0836813
-0.423688
-0.164773
-0.329911
0.569527
0.391646
0.0976119
-0.00330246
-0.00598516
0.00928762
0.407504
0.093885
-0.501376
0.0133589
0.0796918
-0.21433
0.259019
-0.207082
0.279348
-0.573165
0.451711
0.424924
-0.593632
0.168718
-0.123058
0.050884
0.0721739
0.249785
0.0756345
-0.382921
0.554958
-0.403935
0.354019
0.125502
-0.479499
-0.254025
0.469204
-0.292923
-0.146874
-0.153341
0.595821
-0.364147
-0.242221
-0.0120955
0.254317
-0.0039087
0.10738
-0.103472
0.307165
-0.443807
0.136642
0.482922
0.104278
-0.092815
0.447757
-0.354927
0.360663
-0.155625
-0.205037
-0.197008
-0.181517
-0.300826
0.0694349
0.231393
-0.14007
-0.192107
0.0516881
-0.342702
0.243649
0.336724
0.14353
0.000819116
0.0653104
-0.0661295
-0.145645
0.485577
-0.0288467
0.019411
-0.10734
0.091296
0.0160436
-0.0804262
0.285441
0.124517
-0.119133
-0.00538364
0.457076
-0.46563
0.670902
-0.243812
-0.427087
0.123809
0.322437
-0.446236
0.406961
0.0409664
-0.447927
-0.149592
-0.333242
0.482835
0.500765
-0.0932493
-0.497192
0.497213
0.167143
0.387824
0.119903
-0.138646
0.569593
-0.144279
-0.425312
0.555704
-0.388551
0.379939
-0.184825
0.210848
-0.200655
-0.0101924
-0.0109136
0.0894789
-0.0633751
0.333591
-0.257959
-0.143824
-0.475581
0.136983
-0.143763
0.121793
-0.0258569
-0.0959357
-0.0882607
0.326883
-0.0146176
0.119213
-0.128649
0.00943598
0.136225
-0.0292309
-0.106994
0.578606
-0.171959
-0.406645
-0.151481
0.00570097
0.476758
-0.140769
0.352936
0.290586
-0.327927
0.451746
0.0216081
-0.0217924
0.000184319
0.0136004
0.111745
-0.142417
-0.337244
-0.0639421
0.401779
-0.366982
-0.132999
0.500005
-0.379556
-0.145975
-0.435319
0.123004
0.312325
-0.326133
0.390292
-0.387389
0.101078
0.286312
-0.539582
0.292291
0.196199
0.0146493
0.310933
-0.070423
-0.0198013
0.0187152
0.00108614
0.00986199
0.554509
0.213678
-0.17636
-0.0373169
-0.354732
-0.259128
0.050337
-0.010904
-0.039433
0.188489
-0.00341859
-0.18507
0.00689102
0.052433
-0.059324
0.118469
-0.0235381
0.00572251
0.130374
0.0171152
0.138893
-0.00230325
-0.0244089
0.440195
-0.13303
0.00201576
0.0276144
-0.582086
0.202861
-0.230565
0.0277037
0.164414
0.405182
-0.0855385
0.222359
0.0276198
-0.249978
0.214378
-0.372954
0.158585
0.0259156
-0.0028322
-0.0230834
-0.0708419
0.270403
-0.19956
0.0299635
0.37041
-0.0128019
0.128693
-0.115891
0.205811
-0.520438
0.394369
0.126108
-0.0810637
0.290148
-0.209082
-0.309688
0.654412
-0.259196
-0.395214
0.394757
-0.0951856
0.119296
-0.111294
-0.0317597
-0.393156
-0.00683325
0.1867
-0.179867
-0.226308
0.491165
-0.264832
-0.24335
0.0424882
0.274676
-0.460426
-0.451272
-0.0594103
0.0598623
0.118137
0.264604
0.4063
0.366869
-0.113562
-0.2533
-0.00797517
0.00909335
0.209728
-0.000418345
0.117843
-0.114984
-0.00285886
0.0770278
0.0117495
-0.0887774
-0.502694
0.383092
0.119606
0.39678
0.181828
0.0852928
-0.0696885
-0.0156042
0.294234
0.100526
0.17469
0.00214795
0.224373
-0.049834
0.00582376
0.0440102
-0.00402973
0.410991
0.0338506
-0.11889
0.00127617
0.319567
-0.320842
-0.383176
0.000283628
-0.397757
0.200752
-0.456232
0.349519
0.106729
-0.00321424
-0.0018792
0.00509344
-0.240899
0.0241073
-0.196785
0.619273
-0.422487
0.0843146
0.138046
-0.00236465
0.0961309
-0.0937662
0.124215
-0.307816
0.183604
-0.00723678
-0.0425972
-0.0208567
0.0858619
-0.501286
0.562463
-0.0611733
-0.232544
0.0207556
0.211789
0.028605
-0.00293205
-0.204747
-0.0277964
-0.0750692
0.0659497
0.00911952
-0.506523
0.0432902
0.46327
0.344238
-0.437039
-0.0163253
-0.000490542
0.0168159
0.0215941
0.100199
-0.00670417
0.00230748
0.00439669
0.12225
-0.56041
0.438208
-0.0989036
0.438785
-0.105064
0.00388891
-0.0244643
-0.12797
0.0541412
0.27789
0.106982
0.437794
-0.0980124
0.00517443
-0.172858
0.0831361
-0.0112983
-0.0718378
-0.071892
-0.0107595
0.0826515
-0.400815
0.0651848
0.391932
-0.45709
-0.00854016
0.0665576
0.209948
-0.00788064
-0.202066
0.201884
0.317079
0.0883955
-0.107657
0.0187125
-0.143091
0.346045
-0.570948
0.413979
0.156984
-2.04391e-05
0.0039398
-0.0452059
-0.218315
0.564647
-0.113276
0.562388
-0.449085
0.0218293
0.0142764
-0.526113
0.0248296
0.634485
-0.148295
-0.476189
0.249905
0.106639
0.331849
-0.447422
0.115586
0.148033
-0.0401693
0.157039
-0.163872
-0.0534568
-0.105427
-0.238445
0.343877
0.000984088
-0.00368878
0.00270469
0.421877
-0.245732
0.100919
-0.0117101
-0.0892092
0.0952116
-0.0991203
0.0391423
-0.498086
0.399287
0.0988025
0.370522
0.131696
-0.502195
-0.0158538
0.135067
-0.205118
-0.359193
-0.026893
0.410602
-0.131609
-0.351965
0.334751
-0.00949499
-0.0793856
-0.158755
-0.213808
-0.377817
0.00295367
-0.0215855
-0.186098
0.196463
-0.0103645
0.000878195
0.368794
-0.220973
-0.147816
0.595018
-0.145319
-0.449697
0.561751
0.203896
-0.205788
-0.0752239
0.0700798
0.0122709
-0.00965266
0.207703
0.40149
0.00452276
0.152065
0.203087
-0.522549
0.319462
-0.103671
-0.332271
0.435952
-0.161137
0.027309
-0.0296123
-0.0213151
-0.189442
-0.296465
0.236292
0.111093
0.0238037
-0.119996
-0.267393
-0.0692794
-0.0661258
-0.0981635
-0.399919
0.247837
-0.525495
-0.480893
-0.0459056
-0.196315
0.152339
-0.155718
0.537257
-0.399729
-0.00382313
-0.100673
0.104497
-0.493619
0.360824
0.132817
0.173043
-0.596691
-0.0532745
0.00525121
0.0480232
0.0259913
-0.0288235
-0.161842
-0.23302
0.394867
-0.00662823
0.0127278
-0.319318
0.255933
0.0633867
0.0270658
-0.0241121
0.155384
0.312169
-0.0150175
0.393387
-0.345376
0.457048
-0.111658
-0.0695327
0.178738
-0.615143
0.436409
0.330372
-0.499851
0.169483
-0.328477
-0.0378564
0.0413268
0.0385918
0.00511243
-0.0437042
0.0277413
0.185937
0.05002
-0.0572568
0.081737
-0.324215
0.24248
0.0297011
-0.00204073
-0.0276604
0.0429627
0.205212
-0.00131549
0.433659
-0.311374
-0.139542
-0.355207
0.494763
-0.425413
-0.503453
0.3773
0.126172
-0.0550695
-0.0300722
0.611408
-0.44199
-0.169373
0.258122
0.0221174
-0.280236
-0.371479
0.118962
-0.0942551
-0.00876227
0.0493481
-0.00654805
0.0136722
-0.00712415
0.11519
-0.44298
0.327798
-0.0649388
0.0807094
-0.0157706
-0.228343
0.345916
0.254079
-0.328391
-0.206144
0.512255
-0.3107
-0.21541
-0.00475686
0.0040787
0.313087
-0.0739128
0.0217994
-0.0210332
0.0753655
-0.120559
0.330234
0.107563
0.113874
-0.00409213
0.402092
0.224949
0.260161
-0.0236128
-0.389265
0.23854
-0.0069512
0.0973984
-0.0904472
-0.279216
-0.231103
0.333322
-0.20343
-0.129888
0.437635
0.337427
0.282043
-0.0835787
0.0812141
-0.234136
-0.0966048
0.330745
0.232385
-0.128052
-0.104333
-0.143906
0.474281
-0.00356029
-0.143761
0.0164907
-0.0149876
-0.00150308
0.328451
-0.484745
0.156307
-0.131378
-0.0569594
-0.468501
0.0889464
0.375705
-0.0900418
-0.173324
-0.411881
0.585207
-0.0180319
0.0950598
-0.00194765
0.204809
-0.185898
-0.19978
-0.0861789
0.285961
0.110866
-0.479619
0.368755
-0.140848
0.490015
-0.349153
0.640574
0.327249
0.173527
0.398366
-0.532977
0.13462
0.160554
0.0220593
-0.0422299
0.249732
-0.219767
-0.279291
0.423569
0.553358
-0.239785
0.561667
-0.0316759
-0.529987
0.133279
0.00103183