/*--------------------------------*- C++ -*----------------------------------*\
| =========                 |                                                 |
| \\      /  F ield         | OpenFOAM: The Open Source CFD Toolbox           |
|  \\    /   O peration     | Version:  v2012                                 |
|   \\  /    A nd           | Website:  www.openfoam.com                      |
|    \\/     M anipulation  |                                                 |
\*---------------------------------------------------------------------------*/
FoamFile
{
    version     2.0;
    format      ascii;
    class       volVectorField;
    location    "1000";
    object      ddt0(U);
}
// * * * * * * * * * * * * * * * * * * * * * * * * * * * * * * * * * * * * * //

dimensions      [0 1 -2 0 0 0 0];


internalField   nonuniform List<vector> 
13917
(
(-4.79906e-05 0.000410669 1.19839e-17)
(0.000135827 0.000158672 1.19746e-19)
(-0.00718753 0.00420692 4.0191e-18)
(0.000516875 0.000225831 -4.72358e-18)
(4.65011e-05 -6.55555e-05 2.66703e-18)
(-0.000131818 -0.000606541 3.50511e-18)
(-0.00677742 0.00441066 -2.65187e-18)
(-0.0060968 0.00330312 -4.72104e-18)
(-0.00165894 -0.00285861 3.19538e-17)
(-8.85951e-05 0.000569655 1.15578e-17)
(0.000182548 0.00347366 1.85232e-17)
(0.00106266 0.00111584 -9.2904e-18)
(0.000543749 0.0002295 -2.3495e-18)
(0.00342685 8.86594e-05 -1.90758e-17)
(-7.75344e-05 0.000143763 2.91565e-18)
(-4.79478e-05 0.000186592 -1.30314e-18)
(9.61353e-05 0.000140904 -3.21986e-20)
(-2.23309e-05 0.000199396 6.61865e-18)
(0.00105704 0.00105939 8.98117e-18)
(0.000223254 -2.82419e-05 -6.43586e-19)
(3.07191e-05 -5.553e-06 -6.46118e-20)
(-0.00646916 0.00432226 -1.47569e-18)
(0.000142495 -2.70575e-05 8.31897e-19)
(-0.00672763 0.00361148 -8.32655e-18)
(0.000126849 6.60008e-05 -1.17183e-18)
(-0.00847595 0.00427909 6.15873e-18)
(-9.05593e-05 -0.000134028 -2.73801e-17)
(-0.000221612 -0.000151178 3.01084e-17)
(-0.000653065 -6.94631e-05 1.05747e-17)
(0.000354704 0.000575914 -2.37905e-17)
(-2.93312e-06 0.000417877 1.97528e-19)
(8.6064e-06 0.000320236 1.44624e-17)
(-0.000120041 -5.38941e-05 -4.06622e-18)
(-1.10195e-05 -3.42697e-05 6.96961e-18)
(6.07054e-05 6.47003e-05 -1.94508e-19)
(0.000560812 0.00624005 2.84446e-17)
(0.000144242 -3.73288e-05 -4.34066e-20)
(0.002814 0.000608476 3.48115e-17)
(0.000591935 0.00031811 1.93236e-17)
(-0.0134033 0.000165829 7.82193e-18)
(0.000679431 1.41042e-06 1.78623e-19)
(1.5269e-05 7.93866e-07 -3.56429e-18)
(0.000633017 1.50938e-05 -1.79766e-18)
(-0.000338635 -0.000215839 -1.65533e-17)
(0.000276347 0.000169655 -1.91125e-18)
(-2.79888e-05 -3.26827e-05 4.93476e-18)
(-3.35106e-05 0.000219073 -4.7783e-18)
(-0.000458042 0.000405098 -3.91016e-18)
(-0.000108478 -0.000864076 -1.51849e-16)
(0.000441188 2.36386e-06 -2.81164e-19)
(0.00022234 0.000315402 3.54105e-18)
(1.19021e-05 -4.79906e-05 -1.48287e-19)
(-7.94705e-05 -0.000883309 1.624e-16)
(-1.21001e-05 -3.35569e-05 -8.33887e-18)
(0.000100496 0.000139975 -2.71941e-19)
(0.000141603 0.00027145 4.17402e-18)
(3.6865e-05 0.00335333 -2.14443e-17)
(9.95602e-05 -7.14895e-07 -1.56844e-18)
(0.000143685 0.00025886 -4.58277e-18)
(0.000278847 0.000166902 6.83502e-18)
(-0.00581836 0.000323393 8.28421e-17)
(0.000137163 0.00016784 5.8708e-19)
(0.00254639 2.25931e-05 6.28923e-18)
(0.0002595 -2.48042e-05 1.14363e-18)
(-0.000175008 -0.000609781 -2.89375e-17)
(-0.00771888 0.000322529 4.56369e-17)
(-2.07295e-05 -5.67399e-05 -3.80806e-18)
(-1.49574e-05 6.16537e-05 -2.71689e-18)
(-0.00228939 0.000700267 -7.46068e-18)
(-0.000107634 0.000365551 8.08238e-19)
(2.55856e-05 -7.42145e-05 -1.13099e-18)
(-0.00144636 -0.00286269 -1.08857e-17)
(-0.00210629 -0.00111446 5.83423e-18)
(0.000104629 6.57584e-05 1.28306e-18)
(-0.000118952 -0.000901506 -9.92668e-17)
(0.00139045 0.000571128 3.10022e-18)
(0.00158785 -0.000551563 -2.78669e-17)
(0.000238094 0.000191663 3.16994e-18)
(-0.010033 0.00322819 7.32925e-18)
(2.61334e-05 -2.93256e-05 -5.80002e-19)
(6.16742e-05 -4.51455e-05 -2.99328e-18)
(-2.40348e-05 -7.24621e-05 1.21026e-17)
(-0.000221091 -0.000621529 -6.13524e-17)
(0.00251293 0.000650215 -1.05016e-17)
(-0.000346787 0.000130585 -2.32565e-17)
(0.000245071 0.000185587 -1.36838e-17)
(0.000168291 -5.54622e-05 -1.2193e-18)
(-0.00248021 -0.00297389 -8.28258e-17)
(0.000218379 0.00030874 -1.24689e-17)
(0.000619431 1.62585e-05 2.27163e-18)
(0.000415563 -0.00122087 -2.97886e-17)
(6.68987e-05 0.000665972 -3.24119e-17)
(0.000259183 0.000136398 4.55637e-19)
(-5.68986e-06 3.67162e-05 -1.71571e-18)
(-0.0200953 0.000686011 1.54784e-16)
(-0.000138714 -0.000619209 5.04299e-18)
(-0.00105211 0.00190458 -2.60295e-17)
(-0.000299521 0.000272872 -2.21644e-17)
(0.00276801 0.00107258 -2.55365e-17)
(-0.000254522 -0.000354277 5.58347e-17)
(0.000536535 1.52175e-05 -4.18469e-19)
(-2.82152e-05 -7.33043e-05 -8.61814e-18)
(-0.000307114 -0.000221574 3.25503e-18)
(0.000266826 0.000197724 -1.03106e-18)
(0.000380347 6.68173e-05 -3.83879e-19)
(-0.00161222 -0.00321612 2.31185e-17)
(-0.000575274 -0.000114462 8.75402e-18)
(-0.000505329 0.000356014 1.48947e-17)
(9.9464e-05 0.000153811 -1.53579e-19)
(-4.00604e-05 0.000448393 2.38752e-17)
(-0.00373889 0.000781398 -1.32207e-17)
(-0.0131855 0.000296435 -5.77995e-18)
(0.00148629 0.00131424 -1.84385e-17)
(-0.00176416 -0.00315392 -1.42834e-18)
(-1.229e-05 -5.46632e-05 -4.29214e-18)
(-3.50715e-05 -0.000785642 4.19794e-18)
(0.000164128 5.9954e-05 7.34433e-18)
(-0.000170888 -0.000772737 1.66508e-17)
(-0.00381834 0.00103807 4.37706e-18)
(-2.80446e-05 -2.8603e-05 4.39268e-18)
(1.30785e-05 -2.78553e-06 2.9265e-18)
(-0.00218735 0.000578013 1.00902e-17)
(-0.000690582 0.000961016 -1.04653e-17)
(-0.000202529 -0.000140559 -9.52725e-19)
(0.000525524 2.55974e-06 1.20537e-20)
(-1.57797e-07 2.88051e-05 -1.84308e-18)
(0.000243248 0.000185233 2.68921e-18)
(0.000533311 2.09096e-06 -3.69188e-21)
(0.000739806 1.09082e-05 1.50708e-18)
(-0.000141956 -0.000640575 -9.71123e-20)
(-0.00212821 0.00221953 7.46102e-18)
(-1.01408e-05 -5.61868e-05 -1.03824e-17)
(0.000258669 0.000174873 8.49675e-19)
(2.26184e-05 -3.36128e-06 5.88574e-19)
(-0.00136322 -0.000322401 -2.11356e-17)
(-0.00708417 0.00392484 3.68599e-18)
(-6.13255e-05 0.000413828 -6.32586e-18)
(-0.000265477 -0.000383046 -4.36957e-17)
(-2.24941e-05 -4.77412e-05 4.73941e-18)
(-1.98902e-05 -3.08645e-05 1.32345e-17)
(0.00173575 0.00537413 1.71857e-17)
(0.000383698 0.000104702 6.41543e-18)
(1.52234e-06 -4.64714e-05 2.59583e-18)
(-0.000337322 -0.000276977 1.35918e-17)
(-1.39612e-05 6.24244e-05 -1.52443e-18)
(-0.000538993 -0.00268614 -7.75456e-18)
(-0.000546782 -0.0001615 1.75071e-19)
(1.10442e-05 -4.51214e-05 -1.46934e-17)
(0.000369098 8.81071e-05 3.17652e-18)
(-1.63562e-05 0.000332552 9.0642e-18)
(-8.00691e-05 0.000908563 1.41773e-17)
(-4.56341e-05 -0.000758162 -5.55928e-17)
(0.000265212 0.00188111 -2.56375e-17)
(-0.000242643 0.000309682 -2.37987e-18)
(8.7747e-05 0.000294037 1.22468e-18)
(-0.000126837 -0.000361559 -8.53199e-17)
(-0.000100864 0.000351289 -3.05914e-18)
(-0.00363996 0.00329421 -1.06836e-17)
(0.00169736 -0.000422798 8.15739e-18)
(-0.000695156 -0.000210374 5.0946e-18)
(-3.87998e-05 -6.86902e-07 5.18643e-19)
(-9.12832e-07 -0.000145668 7.31899e-18)
(2.17623e-05 -2.49326e-05 -2.25762e-18)
(-0.000901576 0.00190516 1.53028e-17)
(0.00138549 0.00133484 1.00771e-17)
(0.00259361 0.00116066 1.52807e-17)
(0.00025739 0.000196043 4.08916e-18)
(-0.00028278 0.000643296 8.87589e-18)
(0.000294824 0.000153014 1.62843e-18)
(-1.72203e-05 -7.44501e-05 -2.14524e-17)
(-0.000215229 0.000348041 -1.99503e-18)
(-0.00214542 0.000365149 3.89415e-17)
(0.00174141 0.00110364 -1.21001e-17)
(7.41135e-05 0.000163425 -2.28064e-19)
(-0.000997042 -0.0011714 4.30713e-18)
(-0.000303395 0.000285406 -3.02295e-18)
(-0.00238191 0.00246553 -5.85933e-19)
(-0.00011706 -0.000825152 -2.77313e-17)
(-0.000411316 -0.00249068 1.93446e-17)
(0.000208307 4.4422e-05 -1.60937e-19)
(0.000109327 0.000675541 2.23501e-17)
(8.15725e-06 0.000425485 3.41318e-18)
(0.000379674 9.99212e-05 3.76376e-18)
(0.000155316 -5.9491e-05 2.1493e-18)
(-0.000141701 0.000107627 7.53128e-18)
(-0.00968657 0.00453202 -3.70893e-19)
(0.000236247 0.00121384 7.91298e-17)
(-0.000492645 -0.000333902 1.01033e-16)
(8.85951e-05 0.00028374 -3.66583e-18)
(0.0019985 0.00205033 9.87385e-18)
(-0.00130334 0.00543947 -6.08718e-18)
(-0.000566577 0.000143955 -2.83429e-17)
(-0.000106036 0.00121669 -4.96044e-18)
(0.000105794 -4.79168e-05 7.34563e-19)
(-0.000169197 -0.000418596 4.80336e-17)
(-9.0507e-05 -0.000119466 -1.07839e-17)
(0.000806764 1.75198e-06 5.03579e-19)
(0.000273027 0.000140416 -1.27551e-18)
(-0.000613924 -8.88715e-05 8.02478e-20)
(-0.00416664 -0.0133952 -1.01348e-16)
(0.000364609 0.000373701 1.78317e-18)
(0.000436071 1.48011e-06 3.10525e-19)
(-0.000180973 0.000716606 -2.66467e-17)
(-3.22013e-05 0.000910132 -9.46565e-18)
(-0.00176161 -0.000889095 -2.11453e-18)
(5.75262e-05 -0.00364443 4.99172e-17)
(5.9784e-05 6.48649e-05 3.31382e-18)
(9.34578e-05 -2.37636e-06 2.41425e-18)
(-0.000306464 0.000321702 4.30934e-17)
(-0.0092148 0.00490006 9.54002e-18)
(2.18273e-05 -4.45074e-05 -6.80477e-18)
(-0.00613499 0.00427438 9.17888e-19)
(-0.00142096 -0.000520938 -1.01844e-18)
(0.00189588 0.00210605 -6.05228e-18)
(0.000351181 6.21723e-05 1.21437e-19)
(-0.000677 -0.00051627 -1.09336e-16)
(-0.000221647 0.000426549 2.61158e-18)
(-0.00433737 0.000203931 -2.0892e-17)
(0.000178871 4.16539e-05 -1.05075e-18)
(-0.00612702 0.000278433 -4.5631e-17)
(0.000203688 3.85866e-05 7.27412e-20)
(0.000388581 0.000343771 1.06448e-17)
(0.000670454 1.95994e-06 -2.9424e-19)
(0.00286963 7.34522e-05 -1.37664e-17)
(-0.00184099 -0.00322939 3.49591e-17)
(-5.82861e-05 0.000196109 1.7001e-18)
(-0.00094075 -0.00140516 3.23206e-17)
(8.90636e-05 0.000293417 1.14288e-17)
(0.000346278 5.34583e-05 -1.46413e-18)
(0.00205069 0.00601222 -1.36997e-17)
(0.00164183 0.00104179 -1.80874e-18)
(8.57244e-05 0.000285572 8.93708e-19)
(-0.0079734 0.00442393 6.00533e-18)
(-0.00145331 -0.000468112 -5.83573e-18)
(0.000647225 1.68988e-05 -4.20246e-19)
(1.19565e-05 0.000325352 -1.46766e-17)
(-2.09628e-05 -0.00145045 -3.48143e-18)
(4.9653e-05 1.33616e-05 1.32708e-17)
(8.71763e-05 -3.17824e-05 8.0743e-19)
(0.000346116 2.96221e-05 2.93606e-19)
(-0.0140857 -6.29661e-05 6.99364e-18)
(-0.00148604 0.00179139 4.16827e-18)
(4.75878e-05 -2.52033e-07 9.67022e-19)
(0.00350914 0.00472683 1.32098e-17)
(1.95575e-05 -0.000255176 -7.86346e-18)
(8.63281e-06 -0.000143409 1.70992e-17)
(-7.21984e-06 0.000382884 5.01221e-18)
(5.7317e-05 -2.93579e-05 2.09551e-18)
(-0.000309057 0.000209296 -2.96096e-18)
(-0.000236068 -0.000452198 8.19077e-18)
(0.000392632 0.000107192 2.03589e-18)
(5.97548e-05 0.000810646 2.44138e-17)
(-0.000319905 -0.000407705 -5.65966e-17)
(0.000248213 0.000180386 3.20231e-18)
(9.8824e-05 2.69531e-07 6.14463e-18)
(0.000402241 0.00146801 -1.7961e-17)
(-0.0133197 0.00017395 -2.03441e-18)
(0.000298077 0.00179564 2.31848e-17)
(-0.00014996 0.000112175 5.28053e-18)
(-8.0544e-05 0.000154979 3.69553e-19)
(3.52265e-05 -3.14546e-07 -1.41976e-19)
(-0.000761994 0.000673993 -1.04242e-17)
(-0.00350826 -0.000309573 -3.15674e-17)
(0.00691239 0.00332678 4.89266e-18)
(0.000388501 4.92097e-05 1.73997e-18)
(-0.00411394 -0.000603201 5.6268e-17)
(0.00368445 -1.53642e-05 -4.10412e-18)
(-0.00408101 0.00323168 8.43036e-18)
(-0.0100516 0.00301061 2.12263e-18)
(0.0015155 0.000568332 -1.16044e-17)
(5.44749e-05 -4.15925e-05 1.87194e-18)
(0.000583173 2.69904e-06 1.00468e-19)
(-7.12311e-05 0.000243206 -1.7565e-17)
(0.00300077 -0.000359158 3.85343e-17)
(-0.00106092 -0.000184943 7.98285e-18)
(0.000151799 0.000253455 7.45995e-18)
(-9.22733e-05 -0.00370771 3.33364e-18)
(0.000826709 0.000663053 6.1448e-18)
(0.000797653 7.48924e-06 -5.48458e-19)
(-0.00692102 0.00136479 -3.02236e-17)
(0.000236686 -1.47565e-05 -1.21269e-18)
(-0.00118429 -0.00102073 -1.15185e-18)
(0.000370178 0.000359417 9.03957e-18)
(9.40734e-05 -3.9808e-07 -1.13976e-18)
(-8.85427e-05 0.000225146 5.346e-18)
(-0.000250578 0.000302137 1.6167e-18)
(-1.78032e-05 -0.000142864 -7.92403e-17)
(0.00384746 0.00501381 -1.17764e-17)
(-0.000159246 0.000246184 -1.70879e-18)
(0.000353448 0.000108256 1.81058e-18)
(0.0037183 0.000187848 -6.63211e-17)
(-0.00782012 0.00430211 3.62956e-18)
(-0.00356015 -0.000265084 1.65053e-18)
(0.000179054 4.67073e-05 -5.01907e-18)
(-0.00292327 0.0018883 1.52463e-17)
(-6.63855e-06 -0.000102501 4.25391e-18)
(0.000356716 0.000108446 -2.51792e-18)
(0.000164795 5.62197e-05 -1.09143e-17)
(-0.000380525 6.77675e-06 4.38594e-19)
(0.00032694 -4.91212e-06 -7.0542e-21)
(0.000451845 0.000363203 4.46395e-17)
(-1.25359e-05 0.000376047 3.28423e-18)
(0.00030427 0.00014731 -7.57231e-19)
(-0.000187578 0.000773941 1.79791e-17)
(9.84297e-05 0.000251374 -1.76e-19)
(-0.000113705 -0.000802243 -8.52897e-17)
(-0.000285152 0.000286059 1.44182e-18)
(6.91489e-05 0.000633783 8.30353e-17)
(0.000364706 0.000103121 -2.12341e-18)
(0.000104438 4.07172e-06 -5.05427e-18)
(-0.00334373 0.000774861 -5.84471e-17)
(0.000700429 0.000678678 -4.89213e-18)
(0.00016512 6.13824e-05 3.22477e-18)
(0.000649536 2.17414e-06 -2.01598e-19)
(-0.00716579 0.0012951 1.64197e-17)
(0.000210712 6.98967e-05 6.10481e-20)
(-0.00209924 -0.00128578 -7.10068e-18)
(0.000366636 0.00010345 3.81439e-18)
(0.00260718 1.0366e-05 2.11304e-17)
(0.000464848 0.000158577 9.27647e-18)
(-0.00085166 0.000804776 -1.37395e-17)
(0.000144225 0.000443835 4.39719e-18)
(-0.000181534 -0.000975404 -2.10458e-17)
(-3.25231e-05 -1.29951e-06 -2.40814e-18)
(0.000820013 -0.00174107 5.88566e-18)
(-0.000523023 -0.000500797 2.6584e-17)
(-8.02804e-05 0.000231122 -4.26919e-19)
(-0.00152156 0.00162802 5.66193e-18)
(-0.000704165 -0.00015081 -8.34411e-18)
(5.81243e-05 3.84476e-05 -2.767e-18)
(0.000659275 0.00148885 3.60264e-20)
(-0.000138742 -0.000425119 -2.25132e-17)
(0.00368211 1.83007e-05 1.16437e-17)
(-2.61833e-05 -2.84511e-05 -2.28255e-17)
(-0.00936466 0.000587701 7.07297e-18)
(2.01008e-05 0.00032917 -9.3219e-18)
(-0.00125138 0.000935919 4.08249e-17)
(-0.000491948 -0.000474733 -3.84284e-17)
(-0.000568862 4.51853e-05 -1.94983e-19)
(-0.000565975 7.30351e-05 1.95779e-18)
(-0.00615715 0.00401817 9.97063e-18)
(4.20728e-05 -5.12846e-05 -4.65031e-18)
(-0.00022731 0.000360621 1.02538e-17)
(-0.00362998 0.000955271 -2.1268e-17)
(4.65058e-05 -1.99992e-05 -4.5889e-18)
(5.93079e-06 0.000170785 1.65043e-18)
(0.00325427 0.000238764 -1.07466e-17)
(-0.000575188 -7.49561e-05 -7.29031e-19)
(9.04384e-05 0.000174949 -1.95028e-19)
(-0.00127888 0.00506525 2.08364e-17)
(-0.000643913 -8.36239e-05 -8.08037e-18)
(0.00050274 5.22761e-06 -1.77726e-19)
(-0.00355253 0.000731929 -7.65401e-18)
(0.000678239 0.00544689 9.85935e-18)
(0.000251959 -1.13574e-05 2.91586e-19)
(0.00030515 1.05242e-05 7.34522e-20)
(-4.35416e-05 -9.77641e-05 -8.48259e-19)
(0.000385814 8.3877e-05 2.00893e-18)
(0.00324393 -0.000188179 6.82638e-17)
(-0.000506561 -0.0020802 -6.17435e-18)
(2.08041e-05 -0.000686326 7.86418e-18)
(-0.00329634 0.000945026 5.07902e-17)
(0.000126365 6.46537e-05 1.76763e-19)
(7.30287e-05 0.000847483 5.19942e-18)
(-0.000133524 -0.000181305 -4.22258e-18)
(3.17527e-05 0.000585794 -2.76479e-18)
(-0.00585268 0.00422574 -1.99078e-18)
(0.00267022 -0.000448563 -5.73893e-17)
(-0.00198756 -0.00319829 -1.95801e-17)
(0.000565202 3.37892e-05 -1.80459e-18)
(0.00621546 0.00318239 7.66034e-19)
(0.000360793 1.16506e-05 1.58337e-19)
(-0.00700535 0.000775719 1.07582e-17)
(0.000274142 0.000171245 3.83098e-19)
(-0.000126207 -0.00108235 1.06512e-17)
(8.98296e-05 -0.000271548 3.10239e-17)
(0.00046985 0.000318207 7.13662e-18)
(5.80453e-05 -7.00335e-05 1.81463e-18)
(-0.000261619 0.000364855 -5.70563e-17)
(0.000119729 0.000709022 2.81594e-18)
(-0.000169928 7.52271e-06 -6.31189e-18)
(-0.00446009 -0.0047012 2.67991e-17)
(-0.00114696 0.000859733 -2.43281e-17)
(-0.00428798 0.000171423 2.71301e-17)
(-0.000331426 0.000216631 1.31363e-18)
(-8.6909e-05 0.000548016 -1.11816e-17)
(0.000337877 3.12982e-05 -3.49644e-19)
(-5.73666e-05 3.52755e-05 -4.96682e-17)
(-0.00685592 0.00430774 2.79947e-19)
(0.000101558 8.06641e-06 -3.86507e-18)
(0.00232436 -0.00110162 6.92931e-17)
(6.99891e-05 4.64898e-05 -1.55457e-18)
(0.000417444 -0.00212041 -3.66589e-17)
(0.000456097 0.000158912 -8.80748e-18)
(4.23984e-05 -3.91874e-05 -8.53047e-19)
(7.36076e-05 0.000243903 -4.27142e-18)
(-0.0113116 0.000700666 1.15086e-18)
(6.63798e-05 0.000239963 -2.22737e-18)
(-0.0130826 0.000223146 -2.27834e-18)
(-0.000422847 -0.000121307 1.20977e-18)
(0.000922927 0.00307589 -1.04871e-17)
(-0.000453982 -0.000588085 -9.99737e-17)
(6.49179e-05 4.12363e-05 -3.44459e-19)
(-0.00062431 -0.000568803 8.15106e-17)
(-0.000489138 -0.000553079 2.93443e-17)
(0.000198718 2.9332e-05 2.12212e-19)
(-0.000624776 -0.000112057 -2.74247e-19)
(6.72033e-05 -1.84759e-05 3.98445e-18)
(8.07307e-05 6.37288e-05 -3.44602e-18)
(0.000313795 0.000598963 -2.21403e-17)
(7.96955e-05 -9.98885e-07 4.88137e-19)
(6.68773e-05 6.47667e-05 4.57226e-18)
(0.000325436 1.19876e-05 8.68472e-20)
(0.00188795 -0.000155107 3.40851e-18)
(2.52143e-05 -1.81738e-05 -4.54248e-18)
(-0.00900101 0.00082352 -8.37555e-18)
(-0.0114596 0.00168314 4.07787e-20)
(-0.000453779 -0.0002348 -6.5029e-18)
(-0.000161728 0.00117701 -5.40665e-17)
(-0.0108515 0.00147976 1.14397e-18)
(-0.00456814 2.12361e-06 1.25845e-17)
(5.57871e-05 0.000592669 4.70029e-18)
(0.000131233 6.17541e-05 7.43323e-19)
(0.000705659 -0.000682496 5.06942e-18)
(0.000566963 0.000312759 -2.50413e-17)
(-2.98464e-06 0.000336471 -2.59259e-17)
(0.000105172 -3.57401e-05 -5.16827e-19)
(-0.00058045 -0.00233183 7.20404e-18)
(-0.00792183 0.00464798 -2.78478e-19)
(-0.0120119 0.00163533 2.81894e-18)
(-5.20181e-05 0.000162288 8.99329e-18)
(-0.000114908 -0.000443227 -5.10824e-18)
(-2.16817e-05 -3.24666e-05 2.80631e-18)
(0.000593864 0.000338965 7.7042e-18)
(-0.000202482 4.53909e-05 -2.2283e-17)
(6.55671e-05 0.000205635 -1.10783e-18)
(0.00686879 0.00275897 9.98266e-18)
(0.000116649 0.000157207 2.94432e-19)
(0.000301718 -5.79435e-06 -1.16665e-18)
(-0.00245731 -0.0015292 -1.06083e-18)
(-0.00283322 0.00240921 -1.40712e-19)
(-0.00304917 0.00263553 5.31448e-19)
(-0.000328719 0.00079319 9.9732e-19)
(-0.000598615 -0.000118238 -1.01432e-17)
(0.000452623 0.00172385 2.05902e-17)
(-0.00501044 7.9783e-05 -2.8218e-17)
(0.00307188 -0.000314384 1.07746e-17)
(0.000755873 1.38378e-05 1.01476e-18)
(-0.000170587 0.000268526 -4.39951e-17)
(6.6312e-05 0.000212183 1.20524e-18)
(7.13032e-05 -6.15358e-06 3.31975e-18)
(0.00116946 -0.0031025 9.42995e-17)
(-6.20077e-05 0.000220444 7.47153e-18)
(0.000886621 2.87539e-06 1.64385e-18)
(0.000181475 0.000210175 1.28733e-17)
(5.24986e-05 0.000515636 -1.7294e-18)
(0.00342964 -0.000223079 -2.35284e-17)
(0.000196754 3.67837e-05 -7.94861e-19)
(-0.00133162 0.000784785 3.4079e-18)
(-0.000668651 -0.000538143 -1.98354e-17)
(-0.00090117 0.000750227 1.69574e-17)
(-0.00748901 0.00121239 2.66181e-19)
(3.112e-05 -1.42734e-05 1.7408e-18)
(0.000101739 7.3425e-06 3.9203e-18)
(0.00081478 2.80993e-06 -1.27943e-18)
(-0.000115738 0.00034955 3.67454e-18)
(0.000556929 3.23239e-05 1.50979e-18)
(-0.011213 0.00444726 4.13405e-18)
(2.12319e-05 -0.000661047 1.08972e-17)
(-0.00015724 0.000242664 -2.46812e-19)
(-0.00018727 -0.000117189 -6.92361e-17)
(0.000146631 0.000270787 7.68273e-19)
(-0.000836163 0.00206262 -1.01456e-17)
(-0.0049832 0.000135325 -2.31339e-18)
(-0.000688111 4.78255e-05 3.74832e-18)
(0.0010074 0.00295634 9.57392e-18)
(0.00155568 0.00588814 -2.17376e-17)
(-0.00139608 0.000876923 -1.36944e-17)
(0.000191662 0.000310029 1.63115e-17)
(0.000105605 -0.00102964 -3.28343e-17)
(0.00047323 0.00085159 8.5475e-18)
(0.00215949 0.00299912 1.75404e-17)
(-0.000221294 -0.000615761 -9.07083e-18)
(0.000716353 0.000897862 -6.89269e-18)
(-0.000713166 0.000523057 1.04662e-17)
(0.000861326 6.81474e-06 2.34121e-18)
(0.0008105 -0.0017079 -5.44764e-17)
(0.000177705 0.000314133 -2.22692e-18)
(0.000459453 5.42451e-05 -1.02014e-18)
(-0.000108319 0.000333989 8.05495e-19)
(0.000250563 0.000192185 -5.76799e-18)
(0.00328398 -0.000270662 -5.32085e-18)
(-0.00163504 -0.00318375 2.11285e-18)
(0.000222131 5.99711e-05 -1.74872e-19)
(0.000845383 6.58677e-06 7.76274e-19)
(-0.0109484 0.00509175 -7.86882e-18)
(-0.00453991 -2.49461e-06 -1.43398e-17)
(8.73683e-05 -6.84409e-07 -1.36184e-18)
(-0.00775959 0.000857892 6.82818e-18)
(0.000370757 0.000195859 -7.57669e-20)
(-4.23292e-05 0.00108171 8.92842e-18)
(0.000206021 5.88594e-05 -3.49069e-19)
(-0.0028996 -0.000745885 -1.73971e-17)
(-0.00203719 -0.000904486 -1.03416e-18)
(-5.76758e-06 0.000328238 1.54216e-18)
(0.000180806 0.000216587 1.41137e-18)
(-0.0105796 0.00173805 7.68615e-18)
(0.000246909 0.00116884 -3.0647e-17)
(0.000318528 -5.23882e-05 4.01222e-17)
(3.88555e-05 -6.15124e-07 -2.44533e-19)
(-0.000993937 -0.000555422 -1.51534e-17)
(-6.00267e-05 -0.000810889 -4.28402e-17)
(-0.0073804 0.00140564 1.4373e-17)
(0.000448751 5.26806e-05 6.07442e-18)
(-0.000192462 8.62143e-05 2.45716e-17)
(-0.00405246 -0.000151895 -2.63974e-17)
(7.37927e-05 0.000654457 2.20252e-17)
(0.000298217 1.01066e-05 3.88809e-21)
(8.4972e-05 0.00010703 7.67413e-19)
(0.00131772 0.000419554 -7.70446e-19)
(0.00117981 -0.00231665 1.21863e-17)
(0.000939644 3.90172e-06 -6.47795e-19)
(0.000304857 1.13351e-05 2.39315e-20)
(0.000456113 1.07684e-05 -1.41251e-19)
(0.000471485 1.04716e-05 -5.6973e-21)
(-0.00386734 -0.000494161 -1.56231e-17)
(0.00138266 -0.00288881 -3.99976e-18)
(7.49008e-05 0.000628558 -2.08874e-17)
(0.000365183 0.00119914 -2.1137e-17)
(0.000567017 1.91281e-06 -2.2567e-19)
(0.000518482 1.19425e-05 -1.90638e-19)
(-0.000195188 -0.000386647 1.08725e-17)
(-0.00412082 -0.00201091 7.74357e-17)
(9.35672e-05 0.000294634 4.52361e-18)
(0.000307289 0.000153566 -2.10952e-18)
(8.93363e-05 6.49345e-05 1.07536e-19)
(-1.41284e-05 2.17407e-05 -1.66353e-17)
(-0.00704324 0.00152733 -1.3567e-17)
(-0.000888914 0.000121647 1.40739e-17)
(0.000158394 -4.9467e-05 2.89059e-18)
(2.06404e-05 2.27811e-05 4.29576e-18)
(0.00646187 0.00273787 -3.92514e-18)
(0.000441732 0.000828624 4.66462e-18)
(0.00015486 0.000458881 -8.8355e-18)
(8.81317e-05 1.53171e-06 -2.55522e-19)
(8.0052e-05 0.000238096 5.41831e-19)
(-4.01571e-05 0.000310024 3.5276e-18)
(-0.000680846 0.000599163 6.50198e-18)
(-0.000700117 -0.000147142 -9.48293e-19)
(0.000237131 0.00123014 -9.32932e-17)
(0.000695912 -0.000831254 9.75058e-19)
(-0.000663631 -0.000127929 -3.14571e-17)
(-0.000212652 -0.00382482 5.24311e-19)
(9.63848e-05 0.00060859 -5.26099e-17)
(0.000172436 5.34538e-05 -1.57886e-18)
(-0.000562704 -0.000591502 5.25366e-18)
(-2.51187e-05 1.41496e-05 1.46154e-17)
(3.54801e-07 0.000179753 -3.51153e-18)
(0.000384906 0.000294808 6.06319e-18)
(0.00166553 -0.00201933 4.57312e-18)
(-0.000499931 0.000201663 6.21149e-19)
(0.000677206 3.52483e-06 8.83711e-19)
(-0.000958441 0.000837635 2.96816e-17)
(0.000449954 0.000583725 3.3351e-17)
(-7.67883e-05 -0.00376457 1.02244e-16)
(-0.000587373 -0.000170666 1.07062e-17)
(-0.000195982 4.30035e-05 2.66449e-17)
(2.32294e-05 0.00052281 -9.94314e-18)
(4.53491e-05 -7.77189e-05 -3.71902e-19)
(-0.00361758 -0.000362247 1.40833e-17)
(-0.00088955 0.00090094 -2.21949e-17)
(-0.00198615 0.00267083 -5.40798e-18)
(0.00012162 0.000145437 -2.06484e-19)
(0.000113727 0.000285529 -1.22583e-18)
(0.000303257 0.00118134 4.87391e-17)
(0.00238647 -0.000591299 2.89741e-18)
(-0.00248452 -5.47765e-05 6.81645e-17)
(-0.000338368 0.000261823 3.2704e-18)
(-0.000341793 0.000834941 -2.88694e-17)
(-4.73017e-05 0.000175572 1.91089e-18)
(0.000109906 0.000268692 3.13334e-18)
(9.28978e-05 1.86592e-06 -3.95053e-18)
(-0.00035522 5.24957e-05 -6.27047e-18)
(-0.000320847 -0.000270684 7.431e-18)
(-5.57647e-06 -1.96945e-05 9.58473e-18)
(-0.000198247 0.000469308 3.14183e-18)
(-0.000259136 -0.000425683 4.2161e-17)
(-0.00214204 0.00263164 -6.47843e-19)
(0.000301656 -7.7476e-05 -9.81963e-17)
(5.09641e-05 0.00025714 1.04475e-18)
(-0.000698389 0.00207014 9.30377e-18)
(-0.00302009 -0.000544819 4.19583e-18)
(-0.000101392 0.000242716 -9.89193e-19)
(-3.51019e-06 -4.17513e-05 -5.37627e-19)
(-0.000648742 -0.00142968 2.38674e-17)
(-0.0012681 -0.00308721 -2.45228e-17)
(-0.00129004 -0.0018859 -4.3644e-18)
(0.000493564 0.00118815 9.59804e-17)
(0.000734873 1.2671e-05 -5.46146e-19)
(-0.00313178 0.00088843 -7.88248e-18)
(0.00132135 0.000531083 -5.21603e-18)
(0.000754547 2.75948e-06 1.64519e-18)
(6.73938e-05 0.000323273 2.73923e-17)
(-0.000425652 0.00120847 -1.05045e-17)
(-0.000117813 -4.00963e-05 7.29988e-18)
(0.00035503 0.000528384 1.91509e-17)
(-0.00969365 0.00349901 -6.46502e-18)
(-5.1104e-06 -0.000962018 2.6979e-17)
(0.000469858 0.000728914 2.08147e-17)
(-0.00353162 -0.000569151 5.28152e-17)
(0.000205031 0.000211682 -1.66098e-17)
(0.00311935 -0.000252595 -2.33748e-17)
(5.22406e-05 -2.66969e-05 4.66286e-19)
(0.000152816 -5.24948e-05 -2.33968e-18)
(-0.00323739 0.00196033 -6.42311e-18)
(-0.00132611 -0.00314367 -2.5174e-17)
(-0.000348771 -0.000676122 -6.87052e-17)
(0.000212346 0.000209281 -1.1824e-18)
(8.63981e-05 0.000162632 -4.56248e-19)
(2.50209e-05 1.61652e-05 5.54476e-19)
(0.000829733 0.000682208 -7.40715e-18)
(-8.2013e-05 -0.000912198 3.89039e-17)
(0.00244903 0.00108612 7.22099e-18)
(0.000110977 0.000270962 6.55003e-19)
(0.000953757 0.00278222 -3.89968e-19)
(-0.000256749 0.000403086 2.99783e-17)
(0.00019839 6.13615e-05 1.45141e-20)
(-0.000699237 0.000175436 3.78343e-17)
(0.00240271 0.000929244 2.0672e-19)
(0.00800609 0.00011346 1.22951e-19)
(0.000196122 2.64897e-05 -4.29522e-18)
(-0.000239504 -0.000946126 4.54241e-18)
(0.000244992 0.000193485 -3.98757e-19)
(-0.000346519 5.77428e-05 -8.34121e-18)
(-6.49929e-05 0.000584007 -4.98413e-18)
(-0.000491535 0.000231049 2.95196e-18)
(0.000111904 0.000286381 -4.40576e-18)
(0.000577919 3.74862e-06 1.7137e-19)
(0.000459778 4.25304e-05 -5.28519e-18)
(0.000239571 0.000188235 7.39703e-19)
(-0.000601785 0.000106782 3.51916e-19)
(-4.00482e-05 -3.17253e-05 1.75521e-18)
(0.00108385 0.000633302 -9.56611e-17)
(-0.0047325 -3.62617e-05 -1.70131e-17)
(-0.000264808 0.000589359 -8.06006e-18)
(0.000501712 4.79284e-06 -1.30027e-19)
(0.000318137 -0.000835514 -9.24248e-18)
(-0.000412353 -0.000707157 6.33439e-17)
(-0.00186436 0.00639198 -1.19684e-17)
(0.000402545 0.000101403 -6.09438e-18)
(-4.70393e-05 -1.70976e-05 -2.55763e-17)
(0.000301535 1.36987e-05 -2.14001e-20)
(0.000531434 0.000495185 -1.1257e-17)
(0.000138989 0.000259457 6.99272e-18)
(-0.00411865 -0.00030805 3.01516e-17)
(4.86362e-05 -3.65174e-05 1.56508e-18)
(0.0014891 -0.000574481 -3.5223e-17)
(0.000481553 0.00048381 6.42817e-18)
(0.00042199 0.00350133 -9.06895e-18)
(-1.44779e-06 0.000682722 -5.40788e-18)
(-0.0027498 -0.00102079 1.74437e-17)
(-0.000503994 0.000280291 8.39492e-18)
(9.27455e-05 9.97234e-05 -1.9009e-18)
(0.00273354 -0.000498193 2.61509e-17)
(-0.00378119 -0.000101471 -2.8186e-17)
(0.000120024 3.81135e-05 2.21713e-18)
(0.000391376 0.000291154 4.52976e-18)
(-0.00181234 -0.00224345 5.6489e-17)
(0.000446857 0.00111939 2.81235e-18)
(-0.00106414 -6.67194e-05 1.14427e-17)
(0.000128877 -2.62734e-06 3.1824e-19)
(0.00018457 0.000218133 9.74809e-19)
(-0.000807854 0.000780434 1.15133e-17)
(0.000481073 0.0003279 -1.13041e-17)
(-0.000116846 1.73759e-05 3.02325e-18)
(0.000393362 0.0013837 1.59368e-17)
(0.000460382 4.37319e-05 5.73782e-18)
(3.88158e-05 0.000984019 -1.06867e-17)
(-0.00712283 0.00407864 -2.3209e-17)
(0.000407262 0.000104017 4.68105e-18)
(0.000475507 0.00020468 -1.42557e-19)
(0.000424715 1.22038e-05 5.2333e-20)
(0.00044166 0.000603662 6.55745e-18)
(1.28194e-05 -6.41851e-06 -5.66653e-19)
(-5.01381e-05 0.000158205 6.28689e-18)
(-0.00201039 0.000408871 -9.73801e-18)
(9.43147e-07 0.000133959 1.37047e-18)
(-0.000963301 -0.00329764 2.57723e-17)
(8.17022e-05 0.000298123 -1.08684e-18)
(-0.000131418 -5.88409e-05 1.09408e-18)
(0.000425051 1.24484e-05 1.73102e-19)
(-0.000334634 0.000300462 5.69374e-18)
(0.000155847 5.05377e-05 2.3969e-18)
(0.00017824 0.000352392 -3.40852e-17)
(0.000592312 3.17728e-06 -3.07696e-19)
(-0.000491437 0.000435484 6.51025e-18)
(0.000360973 0.000190925 -4.67368e-18)
(-0.00196812 -0.00125106 4.49616e-17)
(-0.00152581 -0.000531349 -2.73371e-17)
(-0.0042043 -0.00188735 -2.64347e-17)
(0.00079597 2.75457e-06 -5.59059e-19)
(4.88438e-05 -6.01069e-05 4.51723e-18)
(9.2893e-05 0.000572798 3.46081e-17)
(1.83007e-05 0.000451068 9.97078e-18)
(0.00281623 0.000405447 -1.93258e-17)
(-0.00297931 -0.00292141 -8.68382e-18)
(3.75233e-06 0.000197781 -7.47554e-18)
(9.42299e-05 6.42583e-05 -1.84515e-18)
(0.00167312 -0.000423276 -7.43116e-19)
(-0.000318174 -0.000690189 -5.89469e-18)
(0.00789753 0.000378642 2.27617e-18)
(0.00141893 0.000707109 6.71824e-17)
(-8.46137e-05 0.000297459 2.04135e-17)
(-0.0108016 0.00263478 -3.79284e-18)
(-7.69677e-05 0.000403625 1.17737e-17)
(0.000807649 0.000652336 -2.97901e-18)
(0.000727668 -0.000299574 -6.68072e-18)
(-0.000584357 -5.81878e-05 -4.19335e-18)
(1.87116e-05 0.000208535 3.43372e-18)
(-0.000408808 -0.000775909 -3.01621e-17)
(5.30468e-05 0.000212188 1.37553e-17)
(0.000456699 0.000252996 2.92385e-18)
(-0.000503268 0.00124406 -7.46438e-18)
(-8.17289e-05 0.000242324 -4.8775e-19)
(0.000416769 6.59717e-05 2.07693e-19)
(0.000517384 0.000484918 1.11581e-17)
(-2.47629e-05 0.000442124 8.02249e-18)
(-1.8983e-05 0.000330279 -1.34976e-17)
(0.000141838 4.81299e-05 5.8991e-18)
(0.000568774 1.26015e-06 3.69923e-19)
(-0.000266902 0.00049582 -5.45778e-18)
(0.000309722 0.000214588 3.24339e-18)
(-8.72184e-05 -1.56886e-05 4.44426e-18)
(6.27833e-05 6.07296e-05 -4.4388e-19)
(7.21512e-05 2.59237e-05 -3.93592e-18)
(1.98971e-05 -3.82703e-06 -2.08597e-18)
(5.95441e-05 0.000225437 -2.61498e-18)
(0.00060012 3.28549e-05 -1.38185e-18)
(2.25253e-05 0.000296947 -5.0556e-18)
(0.000409455 1.25342e-05 -6.13874e-20)
(-0.00305818 -0.000627808 2.68488e-17)
(0.0011072 0.000958213 -1.0433e-18)
(6.58825e-05 -0.000660242 -2.57991e-17)
(0.000560123 2.33914e-05 -2.90695e-18)
(6.7106e-05 -1.2263e-05 3.12409e-18)
(-0.000235791 -8.25486e-05 -1.86821e-17)
(0.000207557 0.000298414 -6.70532e-18)
(-1.00206e-05 -5.85542e-05 -1.34426e-17)
(-0.00597923 0.00163564 -2.26852e-18)
(-0.000276423 0.000605409 -7.69623e-18)
(-0.00671346 0.000878351 1.3254e-17)
(0.000499812 0.000493524 -1.03256e-17)
(-5.58483e-05 -0.000622194 1.35209e-17)
(0.000317061 0.000152542 -9.37316e-18)
(2.91437e-05 -4.48531e-06 1.7165e-18)
(0.00050869 8.61223e-06 3.33649e-20)