/*--------------------------------*- C++ -*----------------------------------*\
| =========                 |                                                 |
| \\      /  F ield         | OpenFOAM: The Open Source CFD Toolbox           |
|  \\    /   O peration     | Version:  v2012                                 |
|   \\  /    A nd           | Website:  www.openfoam.com                      |
|    \\/     M anipulation  |                                                 |
\*---------------------------------------------------------------------------*/
FoamFile
{
    version     2.0;
    format      ascii;
    class       volScalarField;
    location    "700";
    object      omega;
}
// * * * * * * * * * * * * * * * * * * * * * * * * * * * * * * * * * * * * * //

dimensions      [0 0 -1 0 0 0 0];


internalField   nonuniform List<scalar> 
13851
(
0.1339
0.0242094
0.0240883
4.84639
0.0220827
0.0261361
0.0240069
0.0218512
3.77252
0.022043
0.0685572
0.022081
0.022112
5.44872
0.0367607
0.134747
7.79009
0.0219345
0.354657
0.134062
0.0417511
0.0262355
23.0662
0.0222638
7.75009
0.0652719
0.263323
4.4718
3.59799
0.021771
4.61898
0.0240132
0.13176
4.81841
0.0455254
3.58631
0.0222741
10.2272
4.72775
0.0220901
4.68803
3.70726
19.3483
0.683236
3.87952
0.021893
0.0215867
0.128496
0.0234759
0.022106
7.89452
0.0221662
0.134472
0.0305083
5.60147
0.0220885
0.13374
4.53433
0.377517
5.95186
0.0220885
0.253628
0.0220969
0.0236149
0.233679
0.249114
8.01033
0.0701904
0.0221335
4.573
4.31704
0.050491
0.0220226
7.20832
0.0321849
0.0237687
6.33182
0.0216734
7.09924
0.0219532
0.0221486
0.40506
0.0447978
5.06432
5.72351
4.46964
0.0264283
6.98825
0.0220312
4.64303
0.0222032
0.0241069
24.5509
4.36897
4.3613
0.396951
0.0219227
0.137593
7.48014
0.198815
0.1421
0.0426542
0.0474618
0.0220689
0.0218795
0.0489803
0.0218811
4.34986
0.0241048
0.0219105
0.0312968
0.0218914
0.17911
0.0656024
0.128389
0.0296915
0.0217809
0.0218078
5.01674
4.76004
0.246419
0.0218161
0.0221216
3.98577
0.256962
0.126146
0.0219215
0.058946
4.3792
0.0468925
0.0261658
0.0319704
7.32417
4.71403
0.0700114
4.36164
0.065714
4.40093
0.036165
0.0463174
0.37643
0.0226365
0.0220307
0.111124
6.95538
0.0235228
0.0216663
4.38852
3.61224
0.0615047
0.141413
0.171922
0.070597
0.263135
0.0222706
0.0220515
0.022103
4.54162
0.0427652
0.0234535
0.0222429
3.59237
0.0480489
0.128749
5.29672
3.95998
4.02914
6.47898
0.0308077
6.25005
0.0221037
0.0217843
0.06043
0.0221392
4.48095
0.270699
0.153997
0.0217705
0.0321332
0.150253
0.248358
0.636779
0.0299521
0.046396
21.2086
3.58595
0.13171
0.0295581
0.0222033
0.0218262
6.30806
0.0427192
7.29984
0.0262069
0.0233775
0.135987
0.127675
0.0221077
0.0221841
0.0745137
0.382225
4.43719
4.55729
0.0368183
2.99927
4.31595
0.0236981
0.0453798
3.82146
0.0255457
0.134226
0.0221039
0.398554
0.0222348
0.046515
0.0245353
0.0220854
0.220756
0.0221786
3.83113
0.0217688
0.134404
6.08009
4.40669
0.0292351
0.0459018
0.022264
0.0951596
0.0220143
0.0457708
7.08828
0.0291271
0.025528
0.0221177
4.44735
0.0217652
18.1425
4.50974
0.172664
0.0222513
1.37011
5.50204
3.95297
0.133194
0.0333108
0.150605
0.199461
0.0322326
0.369297
0.0332186
6.38342
0.140851
0.0218521
0.0259527
0.139023
3.54205
4.74323
0.0218227
0.133203
0.0220283
0.186943
0.255911
0.0263223
0.0486401
0.144514
0.0219822
0.0451873
0.109612
3.01243
0.0220832
0.022083
0.0293245
4.27236
6.71396
0.0466511
0.0218326
0.247812
0.258547
0.115389
0.0479513
4.16358
7.76296
0.0268193
0.0335013
10.5958
0.0218694
0.0221023
0.11895
0.0594653
0.0217616
0.0222321
0.0220058
0.0220009
0.0330301
0.0220958
3.82868
0.0438898
0.0219838
3.5235
4.01595
0.02219
0.135886
8.02657
0.0227612
0.0222142
0.0459658
5.47247
7.01193
0.0661124
0.0220728
6.17457
0.022096
0.0722799
6.35146
2.85437
0.02335
10.1955
2.30846
4.40247
0.169603
0.0468335
4.55637
4.01997
3.9432
0.0222535
5.53827
22.3145
0.851234
0.757974
0.0237164
0.0658398
0.0298455
6.27533
0.0495407
0.0218753
0.0215262
0.0277534
4.32285
3.23026
0.0218614
4.32064
0.0301007
0.0322758
0.0235835
6.48054
0.245134
0.136672
0.0242687
0.0250113
3.51849
0.022213
0.271563
0.026703
0.0458952
0.0305766
0.0220272
0.0219814
0.168748
0.219179
0.140431
4.41303
3.57275
0.0236015
4.4044
0.224834
0.0217106
3.03682
0.0916058
6.21526
0.027148
0.0692927
0.208097
7.69033
0.161531
5.40404
0.0226505
0.261013
15.3568
0.0305081
5.00366
0.0332644
4.69361
0.0330387
0.0394628
0.142465
0.298846
0.0220517
0.0263867
0.0642411
0.0323237
0.0219137
0.0469752
5.37151
0.0220189
0.0455993
5.76188
0.0241029
5.21455
0.0436713
7.42334
0.0260847
0.0615342
2.31365
0.262812
0.0482847
5.64759
7.10656
1.18094
0.0219862
0.164533
0.0335409
0.0683624
0.0218317
20.4754
5.54537
7.65443
0.0249529
0.144866
0.25231
6.37786
0.0215973
7.18346
0.339983
23.4517
0.0342652
5.37423
0.0220366
0.0221269
6.76325
0.258028
0.0220407
0.024255
0.0464791
0.0218183
5.5608
0.0659952
0.0897741
0.025618
0.022665
0.0221866
6.436
0.0219819
0.0221653
3.99266
5.38814
0.0257394
0.2458
0.0221036
0.0220946
0.0244502
0.142611
0.0431972
0.0219233
0.0228785
0.231145
0.0233205
8.07884
0.0220761
0.0272144
3.94075
0.0358105
0.0215837
0.0221211
0.02556
0.0222358
1.16286
4.09787
0.0336123
7.62011
0.0244878
0.0220572
4.24702
0.227823
0.0355413
0.0220374
3.97816
0.0347388
7.17107
0.0220707
0.032226
0.166838
0.0341648
4.11932
0.256467
7.32166
0.02384
0.175796
0.0219786
3.54565
0.0436244
0.127496
0.0333019
0.0240408
0.035656
0.0607973
0.0220944
6.75768
4.14504
8.46396
5.92805
4.10095
4.88733
0.266929
0.0281912
0.0222073
8.93292
0.0220458
0.0219133
0.0302909
4.56943
0.0239847
0.0226374
0.0926927
0.0487257
0.0220477
7.52887
0.021927
4.49184
1.05842
0.0219494
0.0233704
0.347364
3.28201
0.0217683
10.3411
14.4821
0.0216793
4.47487
0.336678
0.133948
0.0238123
3.9729
6.16999
0.0216946
0.349611
0.0221254
0.0219276
3.65174
4.76287
0.0395466
0.0423916
0.0220464
0.0555911
4.48977
4.49126
0.0217882
6.23993
0.0219201
0.0221402
0.0487849
0.0271696
0.0215911
0.0237865
4.53609
0.276024
4.39336
0.0236586
0.0220246
4.29788
0.0221791
0.165993
0.0272348
0.0322935
0.0332401
4.13752
6.30201
0.0260127
7.25066
0.0231506
0.0662768
3.76369
4.41079
0.0221185
0.0219837
0.0488306
4.41546
0.233427
0.0546248
12.8833
0.0272932
0.0320866
9.24474
7.59513
0.168793
4.38236
0.179165
3.68205
0.0224576
0.41266
3.66577
0.0220783
18.7584
6.57299
0.0307893
0.046354
0.0220694
6.80023
0.0803262
16.3544
0.0219821
0.0221658
0.0265828
0.0480822
0.0220857
4.44319
0.0221601
0.173519
0.0239061
0.069792
0.0220636
0.0220475
0.047283
6.62718
0.048317
4.31051
0.0322224
0.0218274
0.0217638
0.060954
0.0228763
0.105293
0.0244234
0.034891
0.318693
0.0221809
5.64406
0.0222537
0.092902
6.25365
4.02733
0.0291701
16.6832
0.0894494
0.296402
6.4413
0.0218493
7.40785
0.0300892
0.0315773
5.66942
2.75963
0.0217207
0.102282
0.0220841
3.57629
7.06688
0.0222225
0.0750878
5.71477
0.0222635
0.0222523
0.065989
6.95031
3.78506
0.0222212
0.143583
0.0231215
0.022046
0.332515
0.145396
0.184517
0.0215811
0.109918
0.0467866
0.0574503
0.0226642
0.0232204
0.0751508
0.0264248
0.119144
0.0502997
0.0504306
0.137597
3.21653
0.345034
4.87791
10.1221
0.134579
4.19134
0.0402635
3.74709
0.137365
0.0219016
0.031439
0.286578
0.0270399
0.0219557
0.0219523
0.0930631
6.04498
0.0273884
4.37113
0.0218312
3.90811
0.155326
8.59523
0.10206
0.0262288
0.0240792
7.11308
0.183032
0.0386932
0.251511
0.0225194
7.10508
0.0937113
0.176283
0.0328994
0.560578
0.0220333
0.0222454
0.0234124
0.0220449
3.75446
0.0220007
0.29309
4.18546
0.104758
4.54943
6.65314
0.182142
0.319676
0.0286501
0.0221799
0.0220677
0.0216825
0.0217643
0.0221412
0.0666689
0.171963
0.0507667
3.53778
0.0231282
3.77434
0.0222935
4.77469
0.0420963
0.0222836
0.0221328
4.02783
0.0263168
4.10061
6.56262
0.0443339
0.0672003
0.0216621
4.70489
0.0244142
0.0240218
0.396101
0.0221832
0.0226425
0.021843
0.0437477
5.74562
0.0295285
0.0331821
0.374726
4.36726
0.0291499
0.0269385
3.75853
0.0216798
3.6962
0.0222022
0.0233289
6.71486
0.0786031
0.127159
0.0969157
0.0486197
0.0222272
0.0222936
0.0717589
0.0225061
0.0222347
0.0278581
0.357788
0.0219844
0.27325
3.76117
3.82703
0.0954297
5.22229
0.0368652
0.0221754
0.159411
0.0218445
0.0264221
4.81926
3.55829
7.43651
3.87871
0.0222919
0.0221911
0.071433
0.0230596
0.0218407
23.4853
0.190213
4.80973
0.0941533
0.0802678
0.0220463
0.0217768
6.6717
0.0904561
0.0236301
0.0222529
0.126531
0.202529
4.45381
0.0222571
0.0221518
6.98885
0.022641
0.0332691
0.021823
4.63567
0.0219244
5.65073
0.0220749
0.153754
0.0391961
0.0714373
0.0331088
0.0220225
0.0242806
0.0220225
0.241254
0.0226525
3.88751
0.0225855
4.46278
4.28429
0.0313001
0.0220039
5.09256
4.17242
0.0264943
0.0781452
0.0220677
6.52729
0.0219202
0.28924
0.0220654
0.0220193
3.93439
0.0334242
0.0221111
0.0308747
4.40349
5.41935
5.7398
0.0218264
4.01084
0.0220761
0.0219917
0.0222683
0.0214918
0.0222334
5.95339
4.97289
0.0221894
0.0221562
0.0398562
0.0218917
4.86433
0.163447
4.72765
4.63334
0.0242455
0.119049
0.0220712
0.0418123
0.123001
0.0218318
0.0222104
1.73494
6.96817
0.0658712
16.991
0.0604957
0.0221012
0.0420099
0.0793816
7.77775
0.0317973
2.37901
0.0925611
0.0222238
14.2937
12.9154
4.44314
5.6483
3.58437
0.0237863
0.146064
0.0221677
0.982006
0.0265033
0.0218773
5.78981
0.0230206
0.022005
0.0221176
0.0228769
4.49043
0.275863
0.0218711
0.0426909
5.39088
0.0231659
16.4648
0.0232365
0.0760081
4.6801
0.0220987
0.208811
0.029824
0.0327721
6.07036
0.0230047
0.389623
0.0607906
4.61551
0.0221437
4.49509
0.0302525
4.21683
8.07572
5.7905
0.0442259
0.0220374
0.0222996
0.0222634
0.0376461
0.0221237
4.20119
0.0291025
0.0279888
0.0288961
0.0237218
0.0218242
0.0262765
0.0275507
0.0233745
0.0271956
6.08502
0.215983
0.0294197
0.0512506
5.85227
0.0226873
4.35562
0.0216924
0.033219
0.0226603
0.021941
0.04556
0.0220519
0.0218659
0.0473383
0.0220582
0.334615
0.0227159
19.6636
1.33805
0.207857
0.295402
0.0220471
4.41405
0.155036
0.0222262
0.0274496
0.0225513
4.48133
0.0232154
0.0451462
3.27066
6.50204
0.0854805
0.022125
4.09068
2.21643
3.68878
0.0297308
0.0218183
0.0217709
0.0662776
0.022036
7.45683
0.170042
0.0221978
0.225739
0.346114
0.0218307
6.23492
6.27439
0.185634
0.0226915
4.07887
0.0663027
0.022022
6.31439
0.0267734
0.0218219
0.0219395
0.0309947
0.0380239
3.94924
4.99093
0.0396407
4.03204
0.032712
0.0220194
0.084552
0.0219584
3.66681
0.0218066
0.0220467
0.0240338
0.0224673
4.23138
5.63417
0.245045
6.50682
7.20697
0.0291452
0.0220245
0.0227215
0.401018
0.0217878
0.0219057
0.0441511
7.39004
0.198038
0.021645
0.0395229
0.0333504
0.135665
16.4992
0.0216741
0.0215789
0.0232914
7.00593
0.0278207
4.48222
0.0232046
0.0221632
0.0218235
0.0219332
0.0245007
0.181805
3.73077
3.9344
0.0289321
0.0220575
5.09906
0.022236
5.98964
4.89864
0.0305584
5.47325
3.69591
4.75802
0.0516972
0.031554
3.83621
0.03039
0.033806
0.0736789
0.303626
0.0224736
5.34616
0.0220215
4.66594
7.32602
0.0216965
0.0239176
0.0464327
0.393048
0.0331634
0.0221428
0.027446
0.0232214
0.025352
1.2363
0.0221628
4.21954
5.78101
0.022024
0.030538
0.037802
0.0220842
3.5033
15.2538
4.4744
3.49129
0.0220404
0.0246345
0.0265708
0.0222761
0.240863
0.0334641
0.0222566
0.0592754
0.0258515
4.75346
0.0392817
6.61145
0.0231233
0.0231945
0.0496294
0.0913392
0.0719572
0.021985
17.0459
4.12393
26.1392
4.55037
4.74303
3.94138
4.33177
0.0219887
0.0220258
0.0219661
0.233556
0.0426641
0.0718023
7.23916
0.0220907
0.0216632
0.0220445
0.212633
0.0216561
0.02629
0.0236953
4.01908
0.02295
0.0218523
0.0220878
0.021976
0.0221629
0.0343905
0.235878
0.0339374
5.50755
0.0220346
0.0219339
4.38032
4.47741
6.7369
3.80641
0.0486232
3.83559
0.0218138
0.0621569
0.0231979
0.0220804
0.0238915
5.09573
0.0228978
0.0927514
7.1405
0.0221652
0.02193
0.026424
0.185752
0.0222719
4.00941
0.0219504
0.214913
0.0221259
0.0221896
0.0265642
0.0996663
0.0221206
0.264872
4.35069
0.182828
4.77023
0.0220377
6.50594
0.297307
0.0220505
7.51798
0.0222697
0.042206
0.0222079
0.0220173
0.0219618
0.0220458
0.0224233
0.0271997
0.0646057
0.0221833
0.0220973
0.0629622
0.0216975
8.28579
0.0221262
0.0317733
0.0324303
5.06144
2.09856
0.0221476
0.18739
0.0218179
0.0294327
0.0708205
3.61889
0.0462477
0.0222723
0.105787
0.076445
0.0801241
0.392232
0.0357751
0.151525
0.0546815
0.0648837
0.0229151
0.0218305
3.83292
5.49269
0.0245559
0.0220181
15.7571
0.0218343
0.0415617
0.0219617
0.0844654
8.25981
0.0215262
6.26476
0.0259693
0.0221707
0.150368
0.0218776
0.0403774
3.42018
0.0398223
3.88192
0.0219566
0.0222648
0.0436204
0.022226
0.0222465
0.0272885
0.0293334
0.0653042
0.0887973
0.0220921
0.0394956
0.0218206
0.0220644
0.0222152
0.0220534
1.99761
0.0218401
0.0232748
0.246356
0.0218295
0.0220066
4.39377
0.0222497
19.038
0.0230462
4.47875
0.235145
0.0520167
5.12992
0.0672438
2.09061
0.0223245
0.206723
0.0270002
0.0218178
0.0218978
0.0232543
0.030601
0.0219676
0.0547847
0.0219054
0.0231732
17.053
7.84583
4.46084
0.0238417
0.0477395
5.08577
5.66628
0.0221731
0.0260005
2.09391
0.0221218
0.0408714
5.11418
3.94772
0.0266363
0.0413277
0.0227771
0.369208
0.0222852
0.0359996
5.12689
0.0221665
0.0218663
8.43286
0.0442811
0.253439
4.87015
0.0936709
0.0224192
0.0219094
0.0222222
4.81748
2.62836
5.38673
0.0575691
0.0220451
4.63573
0.0221099
0.174212
0.0267762
0.0230861
0.0421862
0.0220598
6.42938
7.21632
0.0216342
0.066112
0.043827
5.01349
0.045036
0.0540989
0.248069
0.0325062
0.20119
0.0567837
0.0221126
0.0341049
0.0832135
4.0701
0.0220364
1.60705
0.0476078
0.0569915
0.0222727
7.10344
0.0257727
0.0236197
0.0218508
0.0397631
0.038545
0.0565494
0.0221284
0.022679
0.0579992
25.5553
0.0621276
0.0221576
0.0226331
0.0339607
0.238109
0.022172
0.0923774
10.1094
0.0483378
4.17696
0.0375078
7.95668
0.380297
0.0219888
2.85067
0.0222385
0.0249673
0.0314934
0.0337251
0.103476
0.044023
0.043407
0.0454326
0.0310152
0.0241296
0.0216494
0.0850616
0.0251388
0.028791
1.60034
0.0261296
0.0304068
0.0219485
4.91374
0.0851059
0.0220911
0.0244297
0.0232805
5.61687
0.166173
0.0314706
3.88378
0.316791
1.22763
0.0936767
0.208761
0.0218937
0.314209
0.0218944
0.0268841
10.6727
3.4832
0.390779
2.23436
0.022122
6.62029
0.0218907
0.0773936
0.0252023
3.68395
5.89043
0.0253445
0.0220237
0.357198
0.0428939
0.0220216
4.36118
0.02207
0.0236989
0.0251247
0.022201
0.0307244
0.0233506
0.0220428
0.0348883
0.528509
0.0391281
0.062221
0.0220173
6.57773
3.54052
0.0220051
0.254666
0.0251442
0.0292022
5.22513
0.0220017
0.0226986
0.0279314
4.36395
0.022032
0.0221829
0.0399009
3.63142
0.0219882
0.0321606
0.0343233
1.39952
0.0468501
0.0396646
0.221642
0.0220751
0.123058
0.0217132
6.58776
0.0300703
0.022049
0.0263311
0.100099
0.0221508
0.0220981
0.140236
3.98506
0.0222231
5.96618
0.022188
0.021702
0.0644878
0.0220358
0.0218382
6.71313
0.0222737
0.0395985
0.147119
4.56327
1.14231
0.0217703
0.0240048
0.0280787
0.0220756
0.0220356
0.0220969
3.16229
0.0221956
0.184822
0.113093
0.0218578
0.0217079
0.0299149
0.11321
0.25278
0.0565038
0.0632179
0.0238189
3.81892
0.0799483
0.0292975
0.0389377
0.0668838
0.0943127
17.4484
0.0361963
3.77593
4.37813
5.35496
0.0243785
0.0219635
0.0383486
0.0343057
0.0217886
0.0222261
0.13765
0.0222435
0.0222842
0.0220529
0.0215826
0.0232623
0.0219989
6.59806
0.0220207
9.25231
0.0220831
0.0902727
0.0225052
0.116167
0.0807332
0.0220417
4.96218
0.0239822
0.0222258
0.0382929
0.0218101
0.0308368
0.0219343
3.83825
0.0241549
0.0417857
0.102812
4.91218
0.0284927
0.193828
1.39987
0.0517226
0.0220442
0.0228388
0.113305
0.064774
7.36429
0.0217653
4.88575
0.0220915
0.0903461
8.44922
0.0364617
3.56659
0.0252314
0.0318626
0.0248363
7.0176
0.0312007
0.0221422
0.0494307
0.144291
0.0233233
0.0220394
0.0221435
4.64703
0.0222524
0.0277512
4.56247
0.0260814
0.0219855
0.0574955
0.0249439
4.76117
0.0216627
0.0220167
0.0218672
0.0260666
0.0223117
0.0220643
0.0605742
4.26854
0.0219702
0.0221031
5.24877
0.0221109
5.85878
0.0233271
6.6892
0.0218586
0.0243342
0.0218161
3.91134
4.78919
0.0304227
0.0723736
0.0269966
0.0219498
0.0221172
3.89608
0.022137
0.0767803
0.0217894
0.0398137
0.0221901
5.4925
0.0218414
0.0425316
0.0218691
0.551906
1.10045
0.0217928
0.044882
6.8794
0.0643555
3.96618
3.45011
0.261341
0.023404
0.0335454
0.0951613
3.84162
0.0220467
0.0360993
0.0281395
0.0219807
4.07615
5.80838
0.0658103
0.152942
0.36069
0.0336862
4.30778
0.0217814
0.0217883
0.102165
7.61718
0.232443
0.167374
1.87
0.0218147
7.18177
3.88024
9.19357
0.0222028
5.51723
4.99081
1.1824
4.13985
3.82091
0.0796876
0.0303649
0.177675
0.0256275
0.0219758
2.10366
0.0895657
0.0216329
4.83643
0.0221888
0.0294789
0.0412103
0.0267422
2.16554
0.0349304
6.09706
0.0417689
0.0260895
4.07005
4.86993
0.137425
0.0223703
0.0258096
0.0725558
0.0598873
0.0218346
0.0480427
0.063183
0.150421
0.0219757
0.198982
0.0243289
0.0499984
4.13505
0.184516
0.0230773
0.139379
4.64467
0.0221653
0.0227859
8.41918
0.358926
0.024287
0.0245268
0.0220926
0.0759525
0.0249507
3.70784
0.10348
0.0225161
0.0222233
0.0680459
0.0297954
0.436209
6.56579
0.0218796
0.0220348
0.0277496
0.0221947
0.0240688
0.0228959
0.0226888
0.0257927
0.0219394
0.0248482
0.0221818
0.0444939
3.32484
0.0222642
5.57432
11.0697
0.0217125
0.253058
0.13975
0.0891916
0.0227316
0.0888767
0.0267459
0.0808778
0.0292274
0.0231982
0.0222094
7.24981
0.0270243
3.88003
0.022714
0.0220366
0.0220238
0.0719791
0.0219647
0.0485639
0.0571815
1.77515
0.0219201
0.256922
6.64543
4.06855
0.0218073
0.14611
1.05008
6.78785
3.5674
0.0225471
0.0222719
0.171294
1.6007
3.51923
0.0394941
0.252707
0.0222315
0.0218324
0.0404555
0.0221961
0.0221299
0.170983
0.0222654
0.0912188
0.0218478
4.89236
5.42629
4.70177
4.11374
4.19149
0.022123
0.0221457
6.70149
0.0217778
0.021803
0.0217023
0.127358
4.84792
6.71186
0.0276009
0.0220124
0.0231231
0.0376002
5.25446
0.0220378
3.52755
5.00468
0.0221891
0.0221779
4.10366
0.0730556
0.0230236
0.0220423
5.77602
4.37487
0.0219609
0.192016
0.0222537
4.00433
3.34275
0.0231573
6.896
6.71476
5.49227
0.0218341
0.0220467
0.022245
0.0222861
4.57912
0.0219156
0.254224
0.205836
8.84464
0.0226007
0.0592257
0.292366
0.0486901
6.64742
4.3687
0.0216342
0.025287
0.0254633
0.130094
4.23801
0.0215704
5.49683
0.0323333
0.0408243
0.0227405
0.021949
0.30197
0.0402978
4.87117
0.022196
0.0559398
0.0225205
0.118221
0.0240015
4.18198
3.59561
0.289873
0.0878235
0.0219689
0.0238905
0.0829219
0.232595
4.21078
6.7561
0.0221497
3.70536
0.0945919
5.02917
0.025885
0.0437347
0.039474
0.0220635
5.58516
0.0220713
0.031936
3.56998
4.7696
1.81011
4.70612
0.0284403
0.0476234
0.0217403
4.91644
0.0273539
6.7984
0.0217274
4.88967
0.0215334
0.0220031
0.0315364
0.0314246
0.0326341
0.0219812
3.79207
0.0412757
0.0219187
0.0379383
3.9876
0.657269
0.0220339
4.59361
0.0243459
0.0327791
0.0308621
0.0216942
0.064086
0.021996
10.1689
0.0831716
0.0261026
0.0220292
0.38801
0.0393155
0.0217263
5.09176
2.97035
0.239442
0.0216204
1.14707
0.0221416
0.152428
0.0269194
0.123981
5.12921
3.9493
0.034339
4.71627
0.0500852
0.0285321
0.0218291
5.25136
0.11773
0.10585
0.0615118
0.0222435
3.69349
0.0888969
0.398189
0.242937
6.5317
3.74708
6.55136
5.01217
0.0290528
0.0316707
0.0220971
0.0220526
0.02159
0.167565
0.0292133
0.0332617
4.68685
0.02194
0.0218604
0.0390489
0.144042
0.0273924
0.0218186
4.4979
0.0241211
0.0439611
0.0222136
5.72002
0.0287953
5.90358
0.0569717
0.033487
0.0530173
0.0220902
7.89626
0.304812
0.0702299
0.0220464
0.0219114
6.95166
4.4619
3.52795
0.0218364
0.0715304
0.643896
0.0220186
0.0220089
0.022088
4.72436
0.103765
0.0347511
0.026412
0.0255848
4.74663
0.0913956
0.244583
0.0256723
0.0319253
0.0215747
0.131902
0.0556563
0.0220142
3.85973
4.41487
4.28835
4.00265
4.70349
8.10096
6.64957
0.023129
0.0218057
5.99296
5.01046
6.81088
0.0220727
0.0392483
0.0220464
0.0219665
3.27254
4.89747
0.0612644
0.0220043
0.265009
0.0911553
0.0482809
4.24621
3.68012
0.255805
0.0219166
4.16811
2.74925
0.379975
0.0309222
0.0416841
0.0221739
0.0218781
0.0387429
0.0452993
0.0244229
0.0385012
0.0273947
0.0250356
0.227063
4.15868
0.0316281
0.0401389
4.1172
0.201669
0.0221116
0.472355
0.99041
4.81765
0.0410672
0.0221108
0.0291341
0.0268291
0.0302397
0.0216923
0.0331523
0.030262
0.0434645
0.253854
0.0222306
0.022994
3.83164
3.94344
4.73133
0.322564
0.103922
0.0215182
0.0220455
0.0300624
0.0217342
6.69851
0.0220375
0.0222735
0.0217259
3.81126
19.2819
0.0224193
0.0596143
0.028284
0.0356013
0.0298004
0.0353133
0.0389817
0.0374353
4.75641
0.0258328
4.68631
0.0391906
4.70926
0.0292293
0.0219365
0.0218238
0.0915274
0.141603
0.021828
0.0395684
0.0294142
0.0589106
4.03822
6.56503
4.54266
0.0222732
1.33406
0.0297825
0.03666
0.0220301
0.0695944
0.0237282
3.74637
2.14295
0.0398554
0.0220797
3.92732
0.0272877
4.3507
5.09929
0.226863
0.0242894
0.130005
4.62972
0.976117
3.82567
0.0599204
0.0219429
0.0398343
0.0218283
8.93193
0.0246538
0.0316549
0.253338
4.63922
0.0219102
0.0219623
4.28497
0.0416493
8.04951
0.032874
0.0220433
0.0424614
0.207249
0.0436151
3.70622
0.0360359
0.68894
0.0250152
0.0222449
0.021948
0.291966
0.0226678
0.13253
0.0220485
0.0220059
0.276347
0.0256338
0.0220712
0.0220391
0.035398
0.500586
0.0404078
0.0389332
0.0264176
0.0605909
0.0220409
0.162703
0.0302163
0.0423149
0.0695668
0.0269351
0.0878679
0.0451865
0.0218109
0.0642341
6.33865
3.39292
0.0220676
2.55835
4.3332
0.0219666
0.0226671
0.871452
4.20345
0.0278548
4.18908
0.385216
0.0219695
0.0797065
0.0215887
0.0257242
0.0608182
10.8775
0.543863
0.224142
0.258466
3.93795
3.9943
0.0230888
3.78868
0.0220362
2.86527
4.0611
0.0221012
0.0220835
3.54184
0.0221146
0.0220864
0.273841
4.4236
0.222008
0.0256055
4.17813
0.0221039
4.04991
3.932
0.0221902
0.405516
6.77257
4.51398
3.65603
3.8293
3.75256
0.0218829
0.0232069
0.060861
0.0621098
0.0220807
0.200204
0.0220412
3.73651
0.279731
0.0494825
0.264802
3.67277
0.27962
0.234497
0.061962
7.75165
0.514218
0.0248481
0.021633
3.27047
0.0348788
0.0217747
6.83497
0.0219772
3.48968
0.0221423
4.75686
0.0249747
0.0219812
20.765
0.0274881
0.0355773
3.80191
6.6695
2.50315
0.0269237
0.0420703
0.0233357
0.0373191
0.123026
0.0382337
0.0222096
1.71466
0.0600527
0.0330961
4.08273
0.0397676
0.0372013
0.215066
0.0733077
0.0422811
0.0219768
0.20586
0.0218228
0.121365
0.258086
4.46107
0.0218751
0.0389918
4.60786
0.0230662
0.0647797
0.0298693
0.0417092
6.02684
0.0592098
0.0234432
15.687
0.0218857
3.91216
0.0221261
0.0228797
0.119229
3.57953
0.0326033
0.389736
0.617935
0.0302077
0.0221725
0.164222
0.0449301
4.6179
0.0265466
12.8417
0.138742
0.0300318
0.0291551
0.106067
0.0374885
0.0736195
0.0587859
0.0383301
0.0242232
0.0220128
2.59503
0.0220116
0.0285723
0.0216046
0.103379
0.0288933
0.057886
3.9593
0.0230227
0.23239
0.0215127
0.0221525
0.0221892
0.0222066
0.0258416
0.021944
0.0808903
7.79527
0.0569572
0.0441553
0.0246046
0.0220377
0.198565
0.0220291
4.50319
4.94564
4.83145
0.135947
0.0351041
0.0264812
0.0221781
0.0298059
0.0980973
0.0427648
4.23128
0.0560661
4.89697
0.137729
0.0222102
0.0218445
3.44225
0.0219549
0.02924
0.066375
0.361958
0.023077
4.48002
0.0221735
0.0257839
0.0220478
0.0226366
0.166799
0.0997252
0.0222095
0.031095
0.0351926
0.0444984
0.0544978
0.533849
0.368005
0.284221
0.124548
0.0253773
0.022937
0.05359
3.56508
6.53412
3.95258
0.0307697
5.38098
0.0973703
0.0226793
0.0219969
0.0579236
0.0221448
0.0309103
5.55389
0.0219659
0.0218051
0.577068
3.32975
0.0442487
1.59368
0.0221148
5.65152
0.0423043
4.77744
0.029362
0.0220384
4.06774
0.0587531
0.0220297
0.0737202
0.022253
0.164445
0.0289204
0.0530246
6.97425
0.0336119
5.29455
0.021934
4.96237
0.0221257
0.0260098
0.0224836
0.0464164
0.022144
0.0561023
3.86557
1.08868
0.0487143
0.0321599
0.0767128
0.0219068
0.0219685
0.0228855
1.55855
0.0249866
4.9207
4.53828
0.146147
0.0222156
0.150751
0.236113
0.146995
0.0252051
4.8039
0.0219772
0.0215248
0.0219626
6.53117
0.0220587
0.0220148
3.95441
0.0219759
0.168819
0.101945
0.0217662
4.2452
0.0271176
4.71895
0.0219273
2.12599
0.0228035
0.0720333
9.22825
0.0636718
0.0219474
0.0264825
4.67579
0.0307898
0.155256
0.0305826
0.026337
0.146892
0.0291295
0.0221097
23.0032
0.0292891
0.0272851
0.134102
0.021972
0.0218666
0.0221891
0.0295661
0.0221264
0.0259081
5.41491
12.5967
0.104225
7.26942
0.0574036
0.0326579
4.73535
4.59117
0.022441
9.16398
9.18214
3.94876
2.75208
0.0308988
4.63148
4.05834
17.4668
2.89533
6.37394
0.0429282
0.0839266
0.0294741
0.0254118
0.0221737
1.50908
0.0222851
4.82721
0.126093
0.346857
0.0215959
0.0703932
0.0460361
0.0235797
0.0222931
0.0221186
0.124889
0.0233339
0.0221725
0.0382997
4.36657
0.0240625
0.162144
0.0218325
0.127179
0.0836596
0.0221598
0.0267337
0.0219471
4.78084
4.48131
0.159032
9.32986
0.0332698
0.0857544
0.0221323
0.0392808
0.0220643
0.0222978
0.0222334
4.89799
0.0217813
0.0429131
0.79171
0.027924
0.0303194
0.0219995
4.89148
0.202956
13.5362
4.57918
0.173565
0.320461
4.36236
0.357423
0.214579
8.49006
0.126547
0.0335233
3.52133
5.04228
0.0220457
5.16553
0.1565
5.49592
0.0216141
0.0601314
5.04891
0.0222732
4.69876
0.0253643
6.69906
0.0220924
0.0221002
0.0679411
0.2292
0.0260467
0.0640369
0.0217924
0.0221067
3.70478
5.6738
6.64185
0.0507376
0.0220914
0.0224379
0.0221366
0.0361507
1.1561
4.48327
4.05179
3.83386
0.0320764
0.0219542
0.0219842
5.7949
6.3114
0.301687
0.0263724
0.0247446
0.0832108
4.82599
6.06764
0.0215161
0.0219599
5.0352
0.0229917
0.259719
0.0279336
0.02207
0.0324537
0.0465041
4.61395
4.61964
0.0222022
0.0218041
0.0247162
0.181981
5.15307
0.0222651
0.135138
4.41142
0.0215256
3.18942
4.12334
12.0243
0.0221109
5.45199
4.89506
0.0389527
0.323814
0.0242001
0.308248
0.35645
0.0252842
0.0219459
6.4594
1.60643
0.0218694
0.137793
0.14564
0.0294449
0.27002
4.56524
5.44147
5.06422
0.0273641
0.0235502
0.022971
4.47342
5.03129
4.77823
5.92965
4.64184
0.0217238
0.0425254
0.0220682
0.0221158
0.0248234
0.0219688
0.0220605
0.0221595
4.36474
12.1763
6.95121
0.0573906
0.194955
0.0362218
0.0218617
0.0219879
4.44664
0.0221396
5.94535
3.89135
0.0221794
0.0218926
3.61684
0.0225433
0.572069
0.0257233
0.0217542
0.0217195
4.44103
0.0216825
4.3882
4.26336
0.0215699
0.0459379
0.0219156
0.0228442
0.021852
0.116012
4.11247
0.0219722
4.96416
0.479956
0.0240002
0.0218833
0.0226506
0.0235315
0.0222265
0.551705
5.37194
5.76411
0.0386172
6.47303
0.0222727
0.0255863
0.0220912
0.178833
0.023375
4.90566
0.0218636
4.01156
0.267716
5.71275
0.146991
0.0218597
0.0434672
0.02192
4.27518
0.02196
0.0285309
0.0263879
0.0254472
0.0221425
0.0222511
0.0324852
5.01714
0.0221852
0.0228093
0.0238674
0.0335312
0.167316
0.0221885
5.13327
3.85287
0.023809
4.8996
4.62102
3.61993
6.39243
0.0215392
0.0230535
3.87379
4.2005
0.14204
4.00828
4.38763
0.0325898
0.0486062
0.0302337
4.33235
0.0220372
0.0219666
5.59634
0.125015
4.83544
0.0246079
0.0217144
0.0220469
5.00782
0.0691363
0.0237605
0.236667
0.0218305
0.0589905
0.0301854
0.0304425
0.0219357
0.0221891
0.0219223
0.0246012
1.39538
5.03282
0.0215787
0.0219111
4.54795
0.0220689
0.0633355
0.0259077
0.0255291
0.0367491
0.0222858
4.26822
0.0294104
0.0252562
20.2873
0.083604
0.0232349
0.031587
0.0220276
0.0224812
6.78331
0.286638
3.52009
0.0222608
0.0221549
0.060977
0.0271302
0.0220316
0.0376291
4.34875
0.0258367
0.0411875
0.0253297
0.118232
0.0221163
0.0217024
4.70704
5.27918
5.16542
0.0219726
0.151684
0.0216043
0.022023
0.0659079
4.57811
0.0664902
0.028158
0.154956
0.0227419
0.0293391
0.0509911
0.776022
0.0222872
0.0216423
0.022553
0.0239228
0.0266445
0.0219606
1.27616
9.94136
0.0220907
0.0320203
0.0224075
0.0216524
3.7641
5.99342
5.66634
0.0738661
0.0223769
0.0550089
4.91744
0.101583
0.0946798
0.03388
0.0297549
5.13186
0.216932
0.787634
0.0217664
0.030479
0.022111
0.0304249
6.91469
0.0216281
0.0404533
0.0254237
0.029952
0.0230504
0.0217974
0.0218805
4.19899
0.0454939
0.0302696
0.0660923
0.0348133
6.25559
0.0311809
0.489227
0.021927
4.80016
4.89983
6.91166
0.0222646
0.031643
0.022085
0.0219661
5.64699
0.0458159
4.78233
0.0219947
0.044838
0.130937
4.59026
0.027991
0.0216467
6.80926
0.0222853
0.0222842
0.0225879
0.0220367
5.97312
0.0218272
0.0218792
0.0362129
0.0272228
0.143093
0.130931
0.0332373
4.46476
0.0219472
0.177688
0.0217838
4.67144
0.0339706
0.490761
0.147571
2.73512
0.106351
4.64133
0.0230561
6.44021
0.0324298
4.91079
0.200643
0.0278555
0.224815
0.022154
6.97176
0.0230906
0.0378746
0.0271063
6.99041
0.139594
4.32986
0.0309222
0.0220149
4.90206
0.241886
0.054348
0.14946
8.35442
4.87088
0.0390008
0.278386
0.0422754
0.0218833
0.0482028
0.263175
0.0686664
26.088
0.12175
0.0218012
0.0219426
0.139605
0.0220866
5.47467
0.0716633
0.0220855
3.82291
1.87964
3.48282
0.109501
0.0219979
0.0289283
0.0257188
4.41825
3.74322
0.0256995
5.19573
0.0218779
0.031517
1.09024
0.022003
0.0404315
0.0219318
0.0261968
0.0222513
0.162262
0.805976
0.0300616
0.0292901
0.0217184
0.142734
0.0218937
0.0218303
0.0327636
0.0219254
0.219559
4.85402
3.80403
4.37284
0.0217894
4.96109
0.0221894
0.0371111
0.133317
0.0220328
7.73838
0.0694857
0.0220439
0.0216394
0.0419705
0.0375718
0.181292
0.230563
0.0257642
0.0239037
4.04749
0.0610785
0.284681
0.876002
13.3845
4.06461
4.80642
1.34703
0.022152
0.0221151
0.0467209
0.0222181
0.0509212
0.0364841
6.35628
5.05611
6.62918
0.02169
0.0217826
0.120386
0.254031
4.40714
1.40584
3.71821
0.053649
0.0326751
1.27251
0.261817
0.026217
4.81411
0.0330939
0.030334
4.43657
0.0408307
0.0219468
4.7482
0.946601
0.0244756
0.141836
0.0234076
3.83193
5.77428
5.52337
0.0220143
0.0216858
0.133695
0.0220163
0.0219272
0.0220203
0.0217328
0.0220261
0.0220331
4.71103
0.0279357
0.0462654
4.26369
0.0219026
0.0220422
0.0315519
0.0256717
0.0262022
0.0220504
0.065684
0.0306615
0.0263799
0.0853311
4.37237
0.0220618
0.0422673
0.0220741
0.0220354
0.0215738
0.0220867
4.45974
0.0219017
0.0220253
0.0220998
0.0435718
4.25558
4.31134
4.90364
1.80684
0.0446585
4.34265
6.51296
0.0219569
0.042225
5.89823
0.213679
0.0221139
0.0278392
0.0429028
0.0379459
0.0220633
0.040018
0.0576666
0.0441653
0.0216329
0.0535032
3.97152
0.0215782
1.99134
4.90229
0.042345
0.678879
0.035576
0.0220919
0.0255196
0.022014
0.233497
4.78606
0.0216818
0.0433721
0.0219749
0.0219816
0.0221999
0.0222859
0.037339
0.0221728
0.127335
0.146606
0.0258183
0.0245308
0.04537
0.0220487
0.0441922
0.0323275
0.0223704
0.022104
0.0221424
5.08389
0.022016
0.270518
0.0410144
0.0222535
0.0220375
0.0217495
4.63892
0.0253498
0.0424368
0.0522112
4.99635
0.0281081
4.17975
2.10772
0.0423431
0.0219743
0.233701
0.0386046
5.02135
0.0703956
4.72088
0.0216428
0.0496802
0.0486375
4.45463
0.0220064
0.0442421
5.12844
0.021862
7.8612
10.2808
3.84892
0.0219789
0.0217825
4.93748
0.02205
4.46908
0.168683