/*--------------------------------*- C++ -*----------------------------------*\
| =========                 |                                                 |
| \\      /  F ield         | OpenFOAM: The Open Source CFD Toolbox           |
|  \\    /   O peration     | Version:  v2012                                 |
|   \\  /    A nd           | Website:  www.openfoam.com                      |
|    \\/     M anipulation  |                                                 |
\*---------------------------------------------------------------------------*/
FoamFile
{
    version     2.0;
    format      ascii;
    class       volVectorField;
    location    "700";
    object      U_0;
}
// * * * * * * * * * * * * * * * * * * * * * * * * * * * * * * * * * * * * * //

dimensions      [0 1 -1 0 0 0 0];


internalField   nonuniform List<vector> 
13851
(
(1.13374 0.0548686 8.96671e-21)
(1.0723 -0.0228289 -9.89003e-21)
(1.0707 -0.021841 0)
(-0.18706 -0.0111889 -1.18496e-19)
(1.00207 -0.000456606 0)
(1.08251 -0.0369323 1.20961e-20)
(1.05831 0.0131549 0)
(1.01347 -0.000778711 -2.69733e-23)
(0.288501 0.0386803 -1.74768e-22)
(0.991153 -0.00813445 -2.62579e-21)
(1.16449 -0.0992005 -5.79233e-20)
(1.00129 -0.00848152 1.49416e-21)
(0.980777 -0.0200491 -1.58525e-20)
(0.0846472 0.0161972 0)
(1.10174 0.0116535 0)
(1.09035 0.0597208 -3.36954e-21)
(-0.311833 0.00023413 0)
(1.03569 -0.0192828 6.85917e-21)
(1.2055 0.0507593 9.20195e-20)
(1.13527 0.0532176 -1.67986e-20)
(1.11399 0.00645305 2.43174e-20)
(1.03983 -0.0915817 0)
(0.528932 -0.258355 -2.26462e-20)
(1.00008 -0.000219974 3.13315e-21)
(1.149 -0.0167219 0)
(1.08778 0.0467926 1.65227e-20)
(1.09731 0.066924 0)
(1.1436 0.0845686 0)
(0.423283 0.0390832 0)
(1.02091 -0.0122632 0)
(-0.090731 -0.0111513 3.91024e-20)
(1.05853 0.012493 0)
(1.12568 0.0554317 0)
(0.356097 0.0694563 -3.8882e-20)
(1.13213 -0.0833128 -4.38131e-20)
(0.456024 0.0401836 0)
(1.00005 -0.000197949 -3.09976e-21)
(1.17109 -0.139753 -1.13175e-19)
(-0.012661 0.016312 2.10934e-19)
(1.00681 -0.0385789 3.07174e-21)
(0.181236 0.0572273 4.81121e-20)
(0.459671 0.0425234 0)
(-0.235137 -0.00123779 -1.21946e-19)
(1.09851 -0.476637 4.82253e-20)
(0.47363 0.0468825 -6.41966e-21)
(1.01487 -0.0227915 6.48477e-22)
(1.01975 3.00389e-05 -5.32395e-21)
(1.09656 0.0583256 -1.51744e-20)
(1.04654 -0.0569251 0)
(0.980426 -0.0190993 1.36449e-20)
(-0.256533 0.0077977 -3.76747e-26)
(0.973547 -0.0133709 0)
(1.09088 0.0593529 0)
(1.07526 0.0237468 2.88013e-20)
(0.142514 0.012501 -4.32741e-20)
(1.00576 -0.0388711 -2.40898e-21)
(1.1272 0.0564826 0)
(0.148376 0.0511423 -6.54363e-20)
(1.1001 0.0660627 3.7639e-20)
(-0.0378703 0.0168773 0)
(1.00118 -0.00799747 -4.61098e-21)
(1.09842 0.0665423 -4.10029e-20)
(0.995484 -0.00296869 8.00263e-21)
(1.047 -0.0591764 0)
(0.876433 -0.447492 -4.576e-21)
(0.857797 -0.467639 -1.53687e-22)
(-0.0592257 0.0127156 1.33931e-20)
(0.693534 -0.124123 0)
(1.02078 -0.03978 0)
(-0.155069 -0.00980683 -1.35914e-19)
(-0.159826 -0.00234265 -8.85189e-20)
(1.1237 0.0106729 3.33441e-20)
(0.993892 -0.0269078 -8.40494e-21)
(-0.0400356 0.01476 2.76541e-21)
(1.08227 0.0213643 1.65062e-20)
(1.02137 -0.0743252 0)
(-0.287279 -0.00241168 -9.0063e-20)
(1.02175 -0.00619639 0)
(1.2146 -0.0205506 -3.28329e-20)
(1.00504 -0.018203 1.39868e-21)
(1.02202 -0.0403908 2.30218e-21)
(1.2689 -0.0888329 3.23895e-21)
(1.12844 -0.0850904 3.58045e-20)
(0.0742647 0.016736 -1.33262e-20)
(-0.0219827 0.0175402 -1.21543e-20)
(-0.11449 -0.00743439 -7.71486e-20)
(1.04313 -0.0927565 9.87856e-21)
(0.235148 0.0106674 -1.0485e-20)
(0.991841 -0.0123261 6.28086e-21)
(-0.0873355 -0.0101804 -4.65189e-20)
(0.972282 -0.0125678 -1.23616e-20)
(1.05978 0.0123097 0)
(-0.238049 -0.000528571 9.58921e-20)
(-0.146206 -0.00682512 -8.65105e-20)
(-0.0626595 0.0227663 0)
(1.08328 -0.43731 2.12864e-21)
(1.00993 -0.0244581 7.17094e-22)
(1.09385 0.0593832 0)
(-0.187822 0.0105786 -8.38785e-21)
(1.21931 -0.196013 -4.70129e-21)
(1.09453 0.0598314 0)
(0.810527 -0.117662 7.34296e-20)
(0.810915 -0.150605 -1.94607e-20)
(0.989791 -0.0286596 0)
(1.01846 -0.0224707 -1.43861e-21)
(1.13025 -0.00410573 1.8354e-20)
(1.01772 -0.0222156 0)
(-0.140994 -0.00437158 2.96075e-21)
(1.05993 0.0115189 1.16256e-20)
(1.03475 -0.0187351 0)
(1.02773 -0.130662 0)
(1.01564 -0.0232084 8.34267e-22)
(1.21995 -0.0128438 -9.88189e-21)
(1.16383 -0.0428919 0)
(1.11408 0.0571149 0)
(1.07462 0.0224968 0)
(1.01464 -0.00818044 2.67945e-21)
(1.01414 -0.000908038 -3.58754e-21)
(-0.203254 -0.00913157 1.44867e-19)
(-0.119709 -0.01338 -4.49641e-20)
(1.11301 -0.362279 -3.11469e-20)
(1.02899 -0.015922 1.14207e-20)
(1.01586 -0.0404311 -2.33282e-22)
(0.0833724 0.0344127 -1.66916e-20)
(1.17769 0.0581791 0)
(0.614831 -0.205105 6.05826e-20)
(1.01044 -0.0241546 1.18498e-21)
(1.13213 -0.151009 2.61368e-20)
(0.208898 0.0568652 2.71969e-20)
(1.11242 0.0176879 0)
(1.03645 -0.0935964 -3.43291e-21)
(1.09971 -0.0644204 1.71881e-20)
(1.30198 -0.160919 0)
(0.340208 0.0667922 0)
(1.16895 -0.0962102 7.76746e-20)
(-0.0732168 0.0216881 -5.80084e-20)
(0.706638 -0.116548 0)
(-0.129314 -0.00610691 2.42082e-20)
(0.848232 -0.0893276 4.78216e-20)
(1.10799 0.0204856 2.77236e-20)
(1.26591 -0.0924245 0)
(0.975089 -0.0448147 5.19571e-21)
(0.991143 -0.0124458 -1.90239e-21)
(0.743699 -0.310302 4.05245e-20)
(1.11741 0.0253479 7.79672e-20)
(1.00776 -0.0726732 4.17198e-21)
(1.02152 -0.0057738 0)
(-0.137543 -0.00776182 -2.91648e-22)
(0.283075 0.0280436 0)
(1.13733 -0.153297 -1.69464e-20)
(1.09538 0.0595744 -3.49542e-20)
(1.21846 -0.0163689 -3.35844e-20)
(1.16801 -0.0418782 7.91632e-20)
(1.19361 0.0468314 2.26618e-21)
(0.97253 -0.023203 0)
(0.983671 -0.00938647 -5.10292e-21)
(1.00131 -0.00669196 -1.91427e-21)
(-0.0483457 0.0129322 -1.79956e-19)
(1.10622 0.0170335 0)
(1.06173 0.00272974 1.6406e-22)
(1.00015 -0.00050742 -8.2843e-22)
(0.436284 0.0390011 -2.04342e-20)
(1.1274 -0.00337437 1.82925e-20)
(1.09736 0.0580814 0)
(0.0882793 0.0146515 0)
(0.377174 0.0476413 -3.98117e-21)
(0.388921 0.0490129 0)
(-0.2399 0.00950971 -7.30284e-20)
(1.02844 -0.12574 3.05279e-21)
(0.703442 0.0791325 0)
(1.00089 -0.00736226 0)
(1.01457 -0.00777631 0)
(1.14582 -0.00695927 4.95729e-20)
(1.00109 -0.000423441 0)
(-0.0346116 0.0279131 -4.13212e-20)
(1.1078 0.0759218 -7.09067e-20)
(1.10037 0.0605091 0)
(1.01516 -0.00773205 0)
(1.08043 0.0227494 0)
(1.09984 0.0598783 0)
(1.17388 0.0571864 3.83753e-21)
(1.10528 -0.458294 0)
(1.03396 -0.118654 -1.04231e-20)
(1.11044 0.0177838 0)
(-0.249204 -0.00187118 0)
(0.291426 0.0279724 -1.76393e-20)
(1.12416 0.0566093 -1.78017e-20)
(0.88931 -0.0669828 0)
(0.977007 -0.0239927 7.98247e-21)
(1.01925 -0.0167164 0)
(1.21321 0.0210982 0)
(1.10706 0.0159533 0)
(0.0646122 0.0105825 0)
(1.08391 -0.034773 -2.29735e-20)
(1.00956 -0.0705676 0)
(1.09238 0.0593747 -1.20826e-20)
(1.12263 0.0555766 0)
(1.04593 -0.0104355 -2.74905e-20)
(1.04163 -0.0275695 4.04147e-21)
(0.709586 -0.159654 -6.54947e-20)
(1.26637 -0.10408 -3.8335e-20)
(0.0023045 0.0370766 4.85988e-20)
(0.129669 0.0534094 -2.98143e-20)
(1.10011 0.0124021 -2.11009e-20)
(0.943421 -0.714157 8.62666e-20)
(-0.0291399 0.0347154 0)
(0.937461 -0.0214393 2.39884e-20)
(1.10029 0.0265461 7.60554e-21)
(0.282631 0.0411426 -2.783e-20)
(1.07702 -0.0448293 -3.3158e-20)
(1.08905 0.0597985 -5.27571e-20)
(1.0152 -0.0395985 -2.14557e-22)
(1.26953 -0.100001 0)
(1.00012 -0.00219397 2.00612e-21)
(1.13571 -0.0758657 2.65159e-21)
(1.0251 -0.0820752 1.64209e-21)
(0.981701 -0.0180007 -6.22302e-21)
(1.14369 0.0673206 2.01003e-21)
(1.04548 -0.019108 9.60398e-21)
(0.152565 -0.537895 -1.17353e-19)
(1.01518 -0.00731486 0)
(1.13959 0.0521289 3.80077e-20)
(0.0543315 0.013222 7.88158e-21)
(-0.0569251 0.0233103 -1.30609e-19)
(0.901312 -0.0763963 6.11063e-20)
(1.09999 0.0274344 0)
(1.00003 -0.00111801 -4.28283e-21)
(0.74665 -0.288964 0)
(1.00167 -0.0135428 -3.63711e-21)
(1.13234 -0.0772687 -1.10461e-21)
(-0.0398291 -0.0309793 -1.34119e-19)
(0.89499 -0.0676461 5.53036e-20)
(1.07681 -0.0426784 8.83991e-21)
(0.996263 -0.00093872 7.28049e-21)
(0.116047 0.0517953 8.35057e-20)
(1.02159 -0.0120584 0)
(0.890566 -0.425376 1.55767e-19)
(0.108209 0.0495 0)
(1.2116 -0.190771 5.72409e-21)
(1.0001 -0.000486363 -7.07972e-22)
(1.29449 -0.328431 0)
(-0.00965503 0.0174039 -9.26449e-21)
(0.503606 0.0495932 5.88401e-21)
(1.08954 0.0594612 4.75388e-20)
(1.1056 -0.0116485 -1.83793e-20)
(0.707472 -0.342072 0)
(1.14401 0.0647647 -3.24719e-20)
(1.07999 0.0238863 0)
(1.08593 -0.419346 1.46571e-21)
(1.04708 -0.132482 -9.35023e-22)
(0.18076 0.00959301 0)
(1.16589 0.038206 0)
(1.01046 -0.000827756 1.04757e-23)
(1.08199 -0.013478 0)
(1.09321 0.0598367 1.44199e-20)
(0.424533 0.0371957 2.49347e-20)
(0.306207 0.0134373 0)
(1.01877 -0.0160068 -1.81598e-21)
(0.590617 -0.200663 -1.36939e-19)
(0.992714 -0.0131656 2.02554e-20)
(1.12411 0.0657747 -2.18353e-20)
(1.18242 0.0537306 9.10905e-20)
(1.08379 -0.0128484 -1.74059e-20)
(1.12742 -5.78462e-05 -7.84636e-20)
(1.16929 0.0384954 -1.19052e-20)
(0.999669 -0.0250768 -4.20546e-21)
(0.805754 -0.127416 -4.25895e-20)
(1.0982 0.0554085 -1.28351e-20)
(1.17146 0.084214 -1.78373e-20)
(0.997788 -0.00854877 0)
(0.981595 -0.0170155 0)
(0.895769 -0.074858 -7.18332e-20)
(0.375322 0.0557333 0)
(-0.252786 -0.00338433 -1.99573e-19)
(1.11699 0.0114046 3.66971e-20)
(1.03001 -0.0164153 -4.23258e-21)
(1.17223 0.0601938 6.54061e-20)
(1.18787 0.0505204 -7.12162e-20)
(1.11698 0.0535702 1.4727e-20)
(1.12532 0.000605553 6.80994e-20)
(0.345343 0.0520105 0)
(-0.149427 0.0110793 3.11485e-20)
(1.08738 -0.0209188 0)
(1.0967 0.00911155 1.17841e-20)
(1.10893 -0.166874 1.04643e-19)
(1.02052 -0.021609 -5.77505e-21)
(1.00144 -0.00634006 -4.01931e-21)
(1.11859 0.0543993 -9.80352e-21)
(1.14941 -0.115043 0)
(1.02295 -0.0122364 -5.03568e-21)
(1.00014 -0.00215585 0)
(1.00145 -0.0139371 0)
(1.0043 -0.000641517 -5.29162e-24)
(1.10202 -0.00315852 0)
(1.00149 -0.00677309 4.05464e-21)
(0.300082 0.0411147 1.96986e-20)
(1.11572 0.00781575 0)
(1.01178 -0.0326123 0)
(0.431544 0.0361902 0)
(0.0721859 0.0319249 0)
(0.974753 -0.0186935 -8.21229e-21)
(1.13809 0.0540452 -2.0993e-20)
(-0.225475 0.00887334 1.89626e-20)
(0.973965 -0.0471909 5.50481e-21)
(0.973361 -0.0180092 4.35636e-21)
(1.1181 0.00761286 0)
(0.0438026 0.013986 0)
(0.211833 -0.00606193 0)
(1.14593 0.00580539 5.45066e-20)
(1.00229 -0.00060154 -4.39652e-22)
(0.74084 0.0811348 0)
(1.00099 -0.00783401 0)
(1.15204 0.00589222 -9.17151e-20)
(-0.208779 0.0112055 0)
(1.17152 0.0854486 5.373e-20)
(1.06054 0.00233223 1.10634e-20)
(1.21769 -0.202069 -1.10384e-19)
(1.33284 -0.176653 7.94999e-20)
(-0.113353 -0.0018199 1.45511e-19)
(1.22065 -0.0251003 4.54119e-21)
(0.780534 -0.0962456 2.11171e-21)
(-0.0286729 0.023176 0)
(0.122807 0.0433306 2.80952e-20)
(1.16177 0.0830497 0)
(1.04297 -0.0283383 9.486e-21)
(-0.257124 -0.00248543 1.02856e-19)
(0.132732 0.00496161 0)
(0.460655 -0.452702 -1.27447e-19)
(0.495854 -0.458815 5.78834e-20)
(0.935881 -0.0226373 -3.3525e-20)
(1.1493 -0.0019271 -1.28607e-20)
(0.947758 -0.118123 1.33219e-20)
(0.243533 0.0112727 -1.21084e-20)
(0.785664 -0.143237 0)
(1.00825 -0.00194381 -1.32921e-21)
(1.01981 -3.09063e-05 2.53009e-23)
(1.07082 -0.0808889 0)
(-0.139754 -0.00455232 -1.58905e-19)
(0.206234 -0.544816 -5.17846e-20)
(1.02052 -0.0208028 3.3948e-21)
(-0.0725832 0.0223677 1.13091e-19)
(0.936902 -0.115453 -1.70513e-20)
(1.10055 -0.0674321 -1.10133e-20)
(1.06195 0.00360443 1.61381e-20)
(0.0347207 0.0113379 2.53249e-21)
(1.16898 0.0596307 -6.20775e-20)
(1.09171 0.0597679 0)
(1.02277 -0.079825 0)
(1.07419 -0.0418888 -2.75836e-20)
(0.5009 0.0402452 -2.77238e-20)
(0.976873 -0.0256056 0)
(1.1923 0.0503521 0)
(1.08587 -0.0197268 0)
(1.11949 0.00635828 -6.4481e-22)
(0.931042 -0.117751 -1.05614e-20)
(0.992057 -0.0131651 -2.12111e-20)
(1.01257 -0.032192 0)
(1.23065 -0.0866138 0)
(1.22762 -0.19194 2.7365e-21)
(1.16171 0.0414884 0)
(1.3538 -0.178458 -9.25135e-20)
(0.51098 0.0415988 2.53261e-20)
(1.00902 -0.0741243 -5.95937e-21)
(0.0922249 0.048597 -3.85545e-20)
(1.12772 0.0709026 -1.69323e-20)
(1.02792 -0.00822985 6.52145e-21)
(1.15574 0.087778 -6.69055e-20)
(1.13451 0.0387901 -6.55336e-20)
(-0.173984 0.013184 -6.08021e-20)
(1.06877 -0.0783884 -1.81188e-20)
(1.08388 0.0499762 0)
(1.09343 0.0658575 -1.87994e-20)
(1.25431 -0.0898218 0)
(1.22684 -0.097024 0)
(0.235841 0.0112554 3.88951e-20)
(1.04664 -0.039165 1.68629e-20)
(1.10921 0.0776521 5.73067e-20)
(-0.33076 -0.00106271 1.09604e-19)
(1.10127 -0.0236372 0)
(0.201953 0.0129235 -2.5844e-20)
(1.1084 -0.0254309 2.22531e-20)
(0.13373 0.0505735 7.17356e-20)
(1.09586 0.00800858 2.04128e-20)
(1.07713 0.0353322 0)
(1.17312 0.0330113 -9.53851e-20)
(1.25209 -0.169007 0)
(0.98374 -0.0103023 -1.09559e-20)
(1.08488 -0.0261992 -1.14154e-20)
(1.15378 -0.118003 -7.44876e-20)
(1.08189 0.0225537 0)
(1.01313 -0.024953 0)
(1.11666 0.0132972 -3.86559e-20)
(0.619789 0.087282 0)
(0.99469 -0.026844 -4.94975e-21)
(1.10176 0.0255579 0)
(-0.215226 -0.0100584 -2.23401e-19)
(1.06725 -0.0394488 1.40891e-20)
(1.25544 -0.482295 -8.15343e-20)
(1.08706 0.0338764 -3.24943e-21)
(0.27089 -0.00715349 -3.44675e-20)
(1.07954 -0.0462511 1.76757e-22)
(1.08728 0.0458072 1.40352e-20)
(0.918204 -0.687414 -5.64211e-20)
(1.18155 0.0558657 -6.59496e-20)
(1.13107 -0.00947912 -2.21104e-20)
(0.286437 0.0107575 0)
(-0.0300627 0.0137359 1.03041e-20)
(1.2603 -0.322537 -1.00741e-20)
(0.998891 -0.0251492 5.26715e-21)
(1.22697 -0.0830762 0)
(1.11013 -0.0321765 -4.97296e-20)
(1.08461 0.0491103 0)
(1.02756 -0.0176682 1.09289e-20)
(-0.240316 2.32676e-05 -5.01742e-22)
(0.572449 0.0845881 -2.64265e-20)
(1.21036 -0.0564625 -1.7523e-19)
(1.07376 -0.0398692 1.31833e-20)
(1.1726 0.0354168 9.7589e-20)
(1.10021 0.0683661 5.51229e-20)
(-0.23869 -0.00572554 2.3207e-19)
(1.02449 -0.00305544 5.38971e-21)
(-0.292313 0.000174942 -1.16365e-19)
(1.26204 -0.154727 1.27469e-20)
(0.28349 -0.174397 8.16752e-20)
(1.05145 -0.135295 -1.17208e-20)
(1.15157 0.0747667 -4.98917e-20)
(0.987532 -0.0174604 -7.76381e-21)
(1.00127 -0.000363138 -6.48005e-22)
(0.132242 0.0105523 5.28783e-20)
(1.10163 0.0699311 0)
(0.990473 -0.00870586 3.47054e-21)
(1.0722 -0.0243465 0)
(1.10344 0.0257207 0)
(1.01289 -0.00876329 -1.71439e-21)
(0.647204 0.087312 -2.61214e-20)
(1.14916 0.000849068 1.48624e-20)
(1.13512 0.0374279 5.99336e-20)
(1.07599 0.000999203 -1.04037e-20)
(1.04732 -0.0379738 -1.39013e-20)
(0.971961 -0.00735621 3.26986e-20)
(1.30035 -0.10234 0)
(1.01062 -0.03187 -2.35177e-21)
(0.973017 -0.00632417 -2.92411e-20)
(0.858839 0.0652423 -1.94518e-20)
(0.654336 0.086111 0)
(1.03325 -0.0911159 9.83381e-21)
(1.09719 0.064898 0)
(0.995686 -0.00241976 -9.30498e-22)
(1.0016 -0.00641462 4.06449e-21)
(1.06957 -0.040323 -2.78637e-20)
(1.16455 0.0418148 0)
(1.08375 0.0353768 3.09714e-21)
(1.01301 -0.0264145 3.45049e-22)
(1.05641 -0.0302643 -1.99682e-20)
(1.11462 -0.35123 6.44281e-20)
(1.06392 -0.0169954 2.97853e-20)
(0.309146 -0.0139421 1.48522e-19)
(1.00146 -0.00792328 2.17005e-21)
(1.07539 0.0124182 1.63562e-20)
(0.479755 0.0481425 2.5754e-20)
(0.938798 -0.16145 -2.94717e-20)
(1.01909 -0.000655224 0)
(1.00045 -0.00681983 -6.474e-21)
(1.07567 3.76002e-06 0)
(1.04874 -0.00929165 0)
(1.24243 -0.37286 2.56339e-21)
(0.777779 0.0634967 1.101e-20)
(1.10653 -0.0100247 -8.41778e-21)
(0.31999 -1.12789 -7.89374e-20)
(1.07122 -0.03885 -1.49471e-20)
(1.00027 -0.010828 0)
(0.250333 0.0545735 1.23282e-20)
(1.09416 0.0655453 0)
(0.877696 -0.123965 -4.1403e-20)
(0.995879 -0.0306854 0)
(0.111613 0.0403499 -3.03953e-20)
(0.857697 -0.09474 2.22773e-20)
(1.18082 -0.644923 1.23164e-19)
(0.989149 -0.0278158 0)
(1.10238 -0.0589372 3.94722e-20)
(1.23098 -0.0939183 0)
(1.08832 0.0206351 0)
(0.156024 0.0490525 -4.85286e-20)
(1.09955 0.0680092 -5.41903e-20)
(1.27187 -0.0685526 1.67388e-19)
(0.976681 -0.0710995 4.369e-22)
(1.22221 -0.0212002 4.12754e-20)
(1.00082 -0.0263297 0)
(0.412002 0.0376682 0)
(1.08762 0.0331795 1.63447e-20)
(1.12114 0.0558271 0)
(1.10847 -0.0302596 4.01918e-20)
(1.02328 -0.0766202 0)
(0.945356 -0.158956 2.14864e-20)
(1.14606 -0.00350908 6.42044e-20)
(1.00184 -0.000549744 0)
(-0.269479 -0.00198795 1.24327e-19)
(0.220887 0.0508901 -1.39176e-20)
(0.348564 -0.0184588 -1.23047e-19)
(-0.183081 -0.00127439 -4.94655e-20)
(0.79779 0.0645999 0)
(-0.243884 0.00458996 -8.14814e-20)
(1.18686 0.053465 4.04454e-20)
(0.912644 -0.0800205 0)
(0.999676 -0.00293111 0)
(1.2274 -0.481216 0)
(0.99118 -0.00740949 -5.79194e-21)
(1.01281 -0.0242739 -2.53308e-23)
(0.906642 -0.0967957 0)
(-0.0108562 0.0319701 -1.21423e-19)
(1.06956 -0.0159976 3.62938e-21)
(0.970604 -0.0400721 2.78487e-20)
(1.07541 -0.282713 -2.83405e-20)
(1.1394 -0.0317849 -4.96517e-20)
(0.989157 -0.00281481 2.37426e-20)
(0.659876 0.0201703 0)
(1.0086 -0.0234977 -1.02009e-21)
(0.255403 0.0609109 3.17232e-20)
(1.23226 -0.357305 6.82834e-20)
(1.00548 -0.0187939 -1.63738e-21)
(1.06403 -0.00733786 -2.32511e-20)
(1.26482 -0.128097 6.98019e-21)
(1.15746 0.0860611 2.98678e-20)
(1.02233 -0.0125267 4.12579e-21)
(0.94989 -0.0838465 0)
(1.05835 -0.396083 -2.71705e-20)
(1.03178 -0.00265675 -4.76258e-21)
(-0.0720583 0.00389466 -1.36932e-19)
(1.20265 0.0505483 -7.8791e-20)
(1.1437 0.0505093 4.4982e-20)
(0.975208 -0.0693533 -3.61128e-21)
(0.87691 0.066068 4.01395e-20)
(-0.0922723 0.0154228 -6.1171e-20)
(1.03249 -0.00285686 5.61692e-21)
(1.24273 0.00316199 -1.31387e-20)
(1.01832 -0.0400495 -6.50473e-22)
(1.00907 -0.0240566 1.00556e-21)
(0.935755 0.0659159 2.85984e-20)
(0.137604 0.0508996 -4.3958e-20)
(1.12224 -0.0308901 -1.39769e-20)
(1.08261 0.0351741 0)
(0.990535 -0.00612649 7.95598e-21)
(1.09193 0.040507 6.02726e-21)
(0.24 0.0600945 2.61697e-20)
(-0.0512532 0.0167167 6.22128e-20)
(1.03578 -0.00597114 0)
(-0.291912 0.00309462 1.21353e-19)
(1.01262 -0.0257778 -1.64384e-22)
(1.01958 -0.0407932 -7.29645e-22)
(1.13186 -0.00743702 0)
(1.07168 0.0167686 1.28737e-20)
(1.02471 -0.0027572 5.71496e-21)
(1.01851 -0.0744665 0)
(-0.0580079 0.00341889 -1.41283e-19)
(1.24697 -0.165572 4.97332e-20)
(-0.0875937 0.00354112 1.52127e-19)
(1.06746 -0.0165136 0)
(0.992935 -0.0138943 -6.88367e-21)
(0.397916 0.0547019 1.66327e-20)
(0.999466 -0.00407169 0)
(1.22803 -0.0727748 1.5072e-19)
(1.0794 0.00703658 2.13773e-20)
(1.08417 0.0197356 0)
(1.10672 -0.0159749 0)
(0.581248 0.0552707 1.30269e-20)
(-0.13612 0.0133884 7.71973e-21)
(1.08293 -0.030473 0)
(-0.291611 -0.00104369 1.01867e-19)
(1.0595 0.000254695 5.16015e-21)
(1.15707 -0.0153394 -1.91666e-21)
(0.468977 0.0443108 6.5547e-21)
(0.168424 0.0174861 -2.13103e-20)
(1.01198 -0.0407193 3.6155e-22)
(1.00007 -0.0262429 5.06869e-21)
(0.818133 -0.159469 0)
(-0.0783363 0.00407077 1.66309e-19)
(1.09366 0.0647348 -5.07032e-20)
(1.09083 0.0401652 0)
(1.06806 -0.562752 1.33491e-19)
(1.07155 0.0174916 0)
(1.09382 0.00853289 -4.46375e-20)
(0.0477965 -0.0420895 -1.77647e-19)
(0.606499 0.0113353 7.10076e-20)
(1.08809 -0.341083 3.40861e-20)
(0.240071 0.0584754 0)
(1.11021 0.063645 1.10686e-20)
(0.517185 0.0442859 -1.37738e-20)
(1.04239 -0.0379053 -1.69925e-20)
(1.10182 0.0665991 -4.67275e-20)
(1.22357 0.0705648 -5.11051e-20)
(0.99991 -0.00935931 -4.53267e-21)
(-0.330029 0.00331623 0)
(0.417297 0.0533088 4.41263e-20)
(1.03365 -0.12395 0)
(1.10991 0.0199305 -2.13531e-20)
(1.00244 -0.0359728 -5.0336e-21)
(0.465087 -0.844679 2.97333e-21)
(1.14689 -0.187263 -1.54084e-20)
(0.574577 -0.182914 0)
(1.00994 -0.0323864 -1.60804e-21)
(1.00076 -0.000498661 0)
(0.910369 -0.0476409 1.40526e-20)
(1.13814 -0.0345959 4.57577e-20)
(1.00152 -0.00762786 -6.51568e-21)
(-0.0408293 0.0291388 1.02075e-19)
(1.00089 -0.000593606 1.04508e-21)
(1.11154 0.0633717 0)
(0.969935 -0.0678063 -1.38619e-20)
(1.08556 0.0495245 7.25411e-21)
(0.990729 -0.0282913 0)
(0.988436 -0.00294395 1.84906e-20)
(1.09525 -0.160753 2.97613e-20)
(-0.290486 0.00112976 1.13888e-19)
(1.13296 -0.0145798 -2.76823e-20)
(-0.0872132 0.0214537 0)
(1.10279 -0.0620574 -4.40366e-20)
(1.0131 -0.00979037 0)
(1.03091 -0.0106669 9.11209e-21)
(1.14871 -0.00866538 -5.25928e-20)
(1.05529 -0.0312855 2.53018e-21)
(1.19329 -0.0265324 6.40131e-21)
(1.07386 -0.0179405 0)
(0.877611 -0.11622 4.17214e-20)
(1.09825 0.0665328 0)
(0.999346 -0.00380436 0)
(0.307906 0.00921633 1.08759e-20)
(1.00007 -0.00150702 5.30365e-22)
(1.0863 0.0548999 2.99578e-20)
(-0.274837 -0.000944325 0)
(0.441104 0.0487299 0)
(0.881909 -0.0282416 0)
(0.784244 -0.263664 0)
(1.06417 -0.282051 -2.33288e-20)
(1.22541 -0.245129 0)
(0.387086 0.0546031 0)
(1.03822 -0.00700447 -6.54132e-21)
(0.567081 0.0174026 5.92045e-20)
(0.942335 -0.120265 3.54962e-20)
(1.10386 -0.0235853 -2.13289e-20)
(-0.171053 -0.00346394 0)
(1.29312 0.00960655 0)
(1.02838 -0.00870205 0)
(1.19113 -0.0290862 0)
(1.04522 -0.00965074 1.67965e-20)
(0.482246 0.0404563 0)
(-0.274862 0.00538854 0)
(1.02477 -0.0421618 2.25151e-21)
(0.691837 -0.149239 0)
(0.639334 0.0853732 -8.03427e-20)
(0.999989 -0.00127544 1.31893e-21)
(0.999984 -0.0016993 -4.91209e-21)
(1.08721 0.0474313 5.03497e-21)
(0.289183 0.00680018 -3.06352e-20)
(0.954546 0.068869 5.53642e-22)
(0.973567 -0.0166151 -3.72112e-21)
(1.17799 0.0287992 -8.01905e-20)
(1.06217 -0.0169916 0)
(0.987318 -0.00399233 1.20785e-20)
(1.09881 0.0674185 -5.27614e-21)
(1.17712 0.0316733 1.10255e-19)
(1.22148 -0.177111 1.06372e-19)
(1.02315 -0.00255303 0)
(1.09913 0.0551287 0)
(0.906988 -0.208854 5.28495e-20)
(1.08572 0.0441907 0)
(0.95718 -0.0192474 -5.18684e-20)
(1.0082 -0.0679134 0)
(1.1392 -0.187133 0)
(0.914554 -0.0487278 0)
(1.09745 0.056867 0)
(1.12121 0.0115537 -2.95418e-20)
(1.12431 0.00847101 0)
(1.07655 -0.328461 -1.06362e-20)
(1.17634 -0.658326 -8.86424e-20)
(1.2087 0.0470427 -1.01695e-21)
(0.696302 0.0729034 1.63713e-20)
(1.05692 -0.0905833 -6.02242e-22)
(1.09565 0.0590375 4.20497e-20)
(0.114466 0.0224606 -2.3007e-20)
(1.02404 -0.17738 6.19049e-21)
(0.904291 0.0649369 -3.82952e-20)
(1.14228 0.0526337 -4.67743e-20)
(1.03227 -0.0204269 0)
(1.09275 0.00741819 -1.95298e-20)
(1.20469 0.0428933 -5.95693e-20)
(1.05823 -0.0870032 -1.68481e-20)
(1.00512 -0.0175458 0)
(1.00561 -0.016614 -2.39143e-21)
(1.08784 0.0545076 -1.78849e-20)
(0.228412 0.00878517 -3.7247e-20)
(1.07683 0.0123269 -3.44126e-20)
(0.0733623 0.0448021 4.08944e-20)
(1.01291 -0.0101669 -1.87028e-22)
(0.922653 0.0681719 -5.48781e-21)
(1.00145 -0.372742 0)
(-0.235635 0.00844053 0)
(1.19176 -0.0346814 1.48981e-19)
(1.08179 -0.0455915 1.58157e-21)
(1.07124 -0.0201642 0)
(-0.222957 0.011173 1.67149e-20)
(1.22342 -0.171546 8.53482e-20)
(1.0245 -0.170437 -5.55736e-21)
(1.10017 0.06956 -1.36571e-20)
(1.046 -0.0359316 0)
(1.24906 -0.43725 -1.33981e-19)
(1.08724 0.0549938 1.10154e-20)
(1.11309 0.0640278 0)
(1.10763 -0.0422762 4.27921e-20)
(1.2794 -0.142267 0)
(0.988267 -0.0178778 -8.70348e-21)
(1.00008 -0.00176537 4.4285e-21)
(0.940769 -0.0210269 0)
(0.986686 -0.00478507 -1.91254e-21)
(0.450556 0.0431819 0)
(1.00405 -0.000786117 0)
(1.09478 0.0666267 0)
(0.364094 0.0526706 -4.24921e-20)
(1.19551 -0.0363781 -9.342e-20)
(-0.0354512 0.0199471 0)
(-0.173657 0.0120528 0)
(1.11394 0.0648709 0)
(1.23442 -0.24129 -3.42356e-20)
(0.884815 -0.0356293 -3.15099e-20)
(0.998596 -0.000415637 3.58692e-22)
(0.982824 -0.0162563 6.43475e-21)
(1.02064 -0.00635428 -3.51407e-21)
(1.03019 -0.010749 -8.71429e-21)
(1.00104 -0.000552567 -2.16165e-21)
(1.15493 -0.00876099 8.97849e-20)
(1.21276 -0.00576625 6.47648e-20)
(0.903717 -0.220441 -4.20059e-20)
(1.17092 0.0830298 -9.12487e-20)
(1.0242 -0.0637659 0)
(0.275102 0.0387491 0)
(0.999975 -0.000178172 0)
(-0.156784 -0.0145101 -1.20607e-19)
(1.12093 -0.0903757 2.76456e-20)
(0.999924 -0.000352228 -2.01557e-21)
(0.996996 -0.00116139 -6.88429e-21)
(0.424682 0.0491797 -1.0471e-20)
(1.0835 -0.0387158 0)
(0.963734 0.067496 -2.81822e-20)
(0.436365 0.0539434 -9.01059e-20)
(1.10653 0.0194966 0)
(1.13004 0.025694 6.49915e-20)
(1.0313 -0.00183805 4.74861e-21)
(0.319782 0.0655335 4.16273e-20)
(0.985662 -0.0818841 1.26495e-20)
(1.07068 -0.0172364 0)
(1.09953 0.0668611 0)
(0.998632 -0.000910666 1.10875e-20)
(0.973973 -0.0430533 -4.76623e-21)
(1.03578 -0.0115767 0)
(1.08971 0.0320209 2.31033e-20)
(0.205831 0.0103616 -1.44826e-21)
(1.09374 -0.0585225 3.1585e-20)
(1.10847 -0.0369242 2.15149e-20)
(1.26558 -0.161995 0)
(-0.0825558 0.0150161 3.21151e-20)
(0.886612 -0.0579261 -6.43003e-20)
(0.987885 -0.105551 -5.33121e-21)
(0.500669 0.0451911 1.62098e-20)
(1.02022 -0.00615889 -4.75053e-22)
(0.489749 0.0440386 -1.22265e-20)
(1.00041 -0.00125073 -3.12017e-21)
(1.06442 -0.0154109 -3.29351e-20)
(1.22458 -0.0133616 -3.61254e-20)
(1.10534 0.0460193 2.89474e-21)
(1.11547 0.0563726 -7.49799e-21)
(1.19387 -0.0968203 8.73463e-20)
(1.13367 -0.0121085 2.00984e-20)
(0.999517 -0.0010814 0)
(0.999987 -0.000181911 7.35193e-21)
(1.16094 -0.0143144 2.08172e-21)
(1.04394 -0.0377653 6.25348e-21)
(0.999634 -0.000898877 -9.20708e-21)
(1.07539 0.0161504 0)
(1.25371 -0.203163 0)
(1.00482 -0.00571661 9.603e-22)
(1.21261 -0.259146 -1.13735e-20)
(1.28037 -0.471142 8.22306e-20)
(1.00778 0.0668568 -1.15623e-20)
(1.19228 -0.0920967 -5.45271e-20)
(-0.0480616 -0.0187763 8.79157e-20)
(0.838821 -0.0923102 6.86075e-21)
(0.998456 -0.000735611 -1.21261e-20)
(1.22536 -0.108523 -1.61307e-20)
(1.01235 -0.0106135 -6.74905e-22)
(1.08546 -0.0242204 0)
(0.742272 0.0755375 -6.85122e-21)
(0.522295 0.0407721 2.46761e-20)
(0.556866 0.0173209 -1.21393e-19)
(0.540426 0.0492529 -3.16328e-21)
(1.02855 -0.0424753 0)
(1.02465 -0.0413261 6.50996e-21)
(0.97983 -0.279879 0)
(1.00459 -0.0653053 7.00106e-21)
(1.02257 -0.0191483 4.73486e-21)
(0.558881 -0.286048 9.1766e-20)
(1.12215 0.0667201 4.69497e-20)
(0.192065 0.0148937 1.66749e-21)
(1.08585 0.0553896 -4.39e-20)
(1.1065 0.0464964 6.11153e-21)
(0.985301 -0.00667748 9.47737e-21)
(1.02072 -0.0127533 -3.40591e-22)
(1.2947 -0.3313 5.11028e-20)
(1.13727 0.0362358 2.04998e-21)
(1.06645 -0.0151932 0)
(0.999802 -0.000281965 2.06385e-21)
(1.11271 0.0566629 2.05921e-20)
(1.23228 -0.0374025 0)
(0.0848214 0.04572 5.30321e-22)
(0.972678 -0.0212628 0)
(1.00094 -0.00343141 2.65363e-21)
(0.187484 0.00835704 6.40853e-21)
(0.958283 -0.0178645 2.82062e-20)
(1.10757 -0.020728 -2.23458e-20)
(1.01251 -0.00828112 0)
(0.00898391 0.0347065 2.50169e-20)
(1.0099 -0.000482872 -2.22981e-21)
(-0.266674 -0.00387429 -9.15354e-20)
(0.994855 -0.00615328 2.30227e-21)
(1.20322 -0.194712 6.20231e-20)
(1.11199 0.000347962 2.70242e-20)
(0.95619 -0.283841 3.67824e-21)
(1.10953 -0.0404596 -7.47918e-20)
(0.993216 -0.0259357 8.18134e-21)
(1.072 -0.0271711 -9.82407e-21)
(1.00341 -0.00409728 0)
(1.09207 0.066595 -3.83894e-20)
(0.961428 -0.0269852 -2.82446e-20)
(0.327436 0.0167146 1.59878e-20)
(1.04814 -0.0350097 -1.32775e-20)
(1.00806 0.0919667 1.45766e-20)
(0.291823 0.0555498 1.04531e-20)
(1.10341 -0.0470374 -4.34773e-20)
(1.00401 -0.00293564 -3.48878e-22)
(-0.189654 -0.0144724 -2.38561e-22)
(0.775891 0.0639583 0)
(1.08529 -0.0303017 2.56105e-20)
(1.10387 0.0462628 -1.44032e-20)
(0.982849 -0.0153202 0)
(0.260291 0.00966387 0)
(1.03318 -0.0210827 3.31279e-21)
(1.20733 0.0399224 7.04052e-20)
(0.999264 -0.0102441 -5.30701e-21)
(1.00369 -0.00427665 0)
(1.00152 0.0704033 2.66508e-20)
(1.10741 -0.014137 1.77811e-20)
(1.00051 -0.00733056 -4.6518e-21)
(1.07646 0.0239131 -3.58349e-20)
(0.146734 0.0518879 0)
(0.723629 -0.796927 1.06927e-20)
(0.5892 0.0838051 5.56623e-20)
(1.01791 -0.0160041 1.77135e-21)
(0.132248 0.0252298 0)
(0.997563 -0.00906201 0)
(1.00462 -0.0053948 -1.08423e-21)
(0.974002 -0.0241424 9.68319e-21)
(1.01981 -0.000100978 0)
(0.999886 -0.00231637 0)
(0.533372 0.078484 -1.58328e-20)
(0.711955 0.0794717 0)
(1.04605 -0.0201512 0)
(1.00092 -0.0008149 -3.66053e-22)
(1.12346 -0.0279277 2.84284e-20)
(1.0162 -0.0230948 -3.32942e-21)
(-0.158347 -0.0185996 9.95743e-20)
(1.22951 -0.104799 9.63868e-21)
(0.0954161 0.0182924 1.43268e-20)
(-0.0158052 0.0224943 0)
(1.07161 -0.0282949 2.0328e-20)
(1.09819 0.0565899 4.30763e-20)
(0.999943 -0.00992455 0)
(1.11423 0.00400056 -2.61478e-20)
(0.996084 -0.354965 -6.45384e-21)
(1.0375 -0.00639822 6.10029e-21)
(1.00035 -0.00123267 2.57662e-21)
(1.30238 -0.312199 3.65404e-20)
(-0.264307 0.00609169 0)
(1.12785 0.02577 -5.08593e-20)
(-0.334449 -0.00284878 0)
(1.11127 0.033547 1.03648e-20)
(0.995803 -0.00327529 -4.29889e-21)
(1.12759 -0.0398959 -3.5212e-20)
(1.10317 0.0468595 0)
(-0.307177 0.00182396 -1.39454e-20)
(1.09993 -0.00430911 0)
(1.10251 0.0670488 2.55348e-20)
(1.13968 0.0366035 9.26852e-21)
(1.00022 -0.00239787 0)
(0.360281 -0.112489 1.15984e-20)
(0.259249 -0.0770467 2.56414e-20)
(0.237186 0.0145503 -8.47416e-21)
(1.25099 0.0133117 0)
(0.947359 0.0648003 -2.55929e-20)
(0.979626 -0.0719217 -3.09916e-21)
(0.728527 -0.355581 0)
(0.972394 -0.00458953 0)
(1.14471 0.0871497 5.85935e-22)
(1.05713 -0.0836686 0)
(1.00807 -0.00154856 -6.31932e-22)
(0.540317 0.081219 -6.71993e-20)
(1.02042 -0.0629157 1.98159e-21)
(1.00393 -0.00269451 -6.2932e-22)
(1.01326 -0.0407542 9.71075e-23)
(1.01898 -0.0611832 -1.7705e-21)
(-0.0221705 0.0318758 -7.14776e-21)
(1.19827 0.0466235 0)
(1.01221 -0.0148645 1.09756e-21)
(1.12949 -0.0371105 4.65193e-21)
(0.0586297 0.0149745 0)
(1.03822 -0.0575155 -4.24057e-21)
(-0.349285 -0.000829114 1.0466e-19)
(0.957828 -0.0439034 -9.15205e-21)
(1.11112 0.0426506 5.58738e-20)
(0.0988332 0.0480738 0)
(1.00131 -0.00701324 9.78131e-23)
(1.09019 0.0654741 0)
(1.06727 -0.0987993 2.88467e-20)
(1.10652 -0.0480061 0)
(0.678134 -0.825452 -2.69749e-20)
(1.02284 -0.062236 0)
(1.26372 -0.0777403 -1.13048e-19)
(1.08603 0.0454754 -2.65035e-20)
(0.190049 0.0573564 0)
(1.04661 -0.00400615 1.17348e-20)
(0.283974 0.0140774 0)
(1.10009 -0.0261202 -3.73109e-20)
(0.0507868 0.0258032 0)
(-0.299911 0.00388868 4.53983e-22)
(0.260703 0.0104044 -2.24483e-20)
(1.1041 0.0219349 1.36195e-20)
(0.990237 -0.0243686 9.76816e-21)
(1.02792 -0.0436644 -2.03714e-21)
(0.999969 -0.00123884 0)
(1.07649 0.0342313 1.78719e-20)
(0.996989 -0.00302535 0)
(0.168098 0.0512165 0)
(1.02999 -0.115703 0)
(0.925837 -0.0883737 2.03207e-20)
(0.889485 -0.0545306 9.09834e-20)
(0.98168 -0.0705534 8.8131e-22)
(1.01749 -0.0154392 -3.075e-21)
(1.06542 0.0185083 0)
(1.06413 -0.084588 -2.38852e-21)
(1.06396 -0.00856324 1.43431e-20)
(1.04397 -0.0963165 -2.59939e-20)
(0.313998 0.0549767 4.9623e-20)
(1.08965 0.0664192 1.41537e-20)
(1.09693 -0.0176225 -1.76801e-20)
(1.1153 -0.149958 0)
(0.571639 0.0802511 4.71496e-20)
(0.971273 -0.042574 5.42318e-21)
(-0.124136 -0.000659673 1.19478e-19)