/*--------------------------------*- C++ -*----------------------------------*\
| =========                 |                                                 |
| \\      /  F ield         | OpenFOAM: The Open Source CFD Toolbox           |
|  \\    /   O peration     | Version:  v2012                                 |
|   \\  /    A nd           | Website:  www.openfoam.com                      |
|    \\/     M anipulation  |                                                 |
\*---------------------------------------------------------------------------*/
FoamFile
{
    version     2.0;
    format      ascii;
    class       volVectorField;
    location    "450";
    object      ddtCorrDdt0(U);
}
// * * * * * * * * * * * * * * * * * * * * * * * * * * * * * * * * * * * * * //

dimensions      [0 1 -2 0 0 0 0];


internalField   nonuniform List<vector> 
13851
(
(0.000918419 0.000323778 -5.87528e-20)
(0.0754084 -0.0343621 -1.89464e-19)
(-0.00824907 -0.0058974 5.03669e-19)
(0.000789707 -5.80173e-05 -9.60961e-20)
(0.00155246 -0.00353656 3.11542e-18)
(0.00152113 -0.0314879 7.59262e-19)
(-2.55259e-05 -9.68641e-05 -3.04772e-18)
(-0.00341091 -0.000623791 6.04183e-19)
(-2.31001e-05 3.95406e-05 -2.28554e-20)
(-0.0160283 0.0145851 3.64345e-19)
(-0.0167141 0.0613369 -8.11951e-19)
(-0.0703899 0.0469618 -1.69889e-18)
(0.0085578 0.011053 1.3274e-17)
(-0.0820086 -0.00437359 -7.46279e-18)
(-2.75735e-05 -1.12548e-05 -1.35268e-18)
(0.000499905 0.00229769 -2.2633e-18)
(-0.000268794 0.000172762 -7.86237e-19)
(-0.00307846 -0.00133155 1.52315e-19)
(0.0169501 0.00161733 8.12424e-18)
(-2.56305e-05 3.65476e-05 -4.01269e-20)
(0.000619542 -6.16117e-05 5.80345e-20)
(-0.0066031 -0.00613952 4.79857e-18)
(3.85176e-05 -2.45803e-07 -7.25149e-20)
(-1.9238e-05 3.08323e-06 -1.99507e-20)
(3.21734e-05 -2.62593e-07 1.17604e-19)
(-0.00383996 -0.000321951 -2.24624e-18)
(-0.00024212 -0.000245941 -1.91198e-18)
(-0.00141879 -0.0130448 -2.8255e-18)
(0.000707801 0.000377786 5.31658e-20)
(-0.000187905 -0.000644897 3.34968e-19)
(-0.00259584 -0.0395703 -7.86709e-19)
(-0.000307877 0.000195777 -1.29047e-18)
(-0.00870281 -0.00469263 -4.72204e-19)
(0.0384376 -0.050944 6.97195e-20)
(-2.06244e-05 3.80574e-06 -6.16423e-22)
(-0.00316347 -0.000164971 1.12837e-17)
(-0.00690728 0.000145008 -3.59784e-17)
(0.00796932 -0.0215239 1.01107e-18)
(-0.0193425 0.0153474 1.13435e-18)
(0.0376288 -0.0602046 1.00721e-18)
(-6.31889e-05 3.55655e-05 -2.05441e-19)
(5.72556e-05 2.64128e-06 -6.03891e-20)
(0.00330456 -0.000215609 -3.28804e-17)
(-0.0176058 0.0404102 1.6133e-18)
(-0.0105371 0.0625593 -3.30378e-18)
(-0.00128985 0.116408 1.26422e-17)
(0.00027074 0.0277338 2.77672e-18)
(-0.0510532 0.220366 1.64218e-18)
(-0.000250664 -0.000263903 -2.25016e-18)
(-0.0163908 -0.0154698 1.48673e-19)
(0.00053292 -0.000432514 -1.83718e-17)
(0.00306374 0.00184413 5.51844e-18)
(-0.000922161 0.0364781 7.39258e-18)
(-3.15005e-05 -6.44698e-06 -1.93682e-18)
(-5.36954e-05 1.3003e-06 4.43238e-19)
(5.67224e-05 9.25708e-07 5.33542e-22)
(1.16089e-05 5.8611e-06 -2.06729e-20)
(-0.0220607 0.0495054 2.41443e-17)
(-0.000257286 -0.00057263 -8.49155e-19)
(-4.85823e-05 -0.000100396 -1.44798e-18)
(0.00617661 -0.0242993 2.64553e-18)
(0.0712006 -0.0140902 5.17331e-18)
(-0.0222314 0.00962225 1.37314e-18)
(0.0030499 -0.00299075 5.63147e-18)
(0.0368517 -0.0337658 -2.98607e-18)
(0.00217143 -3.33683e-05 1.7915e-19)
(-0.00344963 0.000231602 9.01196e-18)
(0.00383397 -0.00463287 9.27586e-19)
(-0.000451988 -0.000762306 -4.7565e-19)
(-0.00328254 -0.0008212 1.3011e-19)
(0.00984802 -0.000165035 1.24963e-17)
(0.0040712 -0.000713799 -2.96217e-18)
(0.0454925 -0.0309826 4.03561e-18)
(-3.01998e-05 -7.03035e-06 2.63413e-18)
(-5.04799e-05 5.49829e-06 -7.93618e-19)
(1.07372e-05 6.48915e-05 -3.30719e-19)
(-0.00584645 -0.00544524 -2.25247e-18)
(0.00267212 0.00217842 7.20868e-18)
(-0.00074581 -0.00167764 -5.12562e-18)
(0.00898254 -0.000357436 -6.79355e-20)
(-7.78619e-05 -9.80352e-05 3.83543e-18)
(0.00536929 -0.0505307 4.81134e-19)
(-5.37195e-05 -6.47174e-06 -8.36037e-19)
(-0.00632563 0.0441674 1.23107e-17)
(-0.0249205 0.00542445 1.25346e-18)
(-0.0978422 0.0479137 1.81292e-18)
(-0.00698613 -0.0200097 -2.71695e-18)
(-0.0177266 0.0561674 3.48366e-18)
(-0.000406939 -0.000104953 2.89927e-18)
(-0.000154119 0.000287758 -7.85565e-21)
(-0.00302113 -1.23364e-06 -1.64189e-17)
(0.00702469 0.0106214 3.05214e-19)
(0.00155644 -0.0334941 -3.93188e-19)
(-0.00058582 -0.000249505 5.26897e-18)
(-0.000376425 -0.000129481 -8.22848e-19)
(2.40173e-06 2.51106e-06 -7.14224e-20)
(0.00202367 -0.00327447 1.20428e-18)
(0.012692 0.0301945 -4.52304e-18)
(-0.0185311 -0.0170562 -1.5178e-19)
(1.67183e-06 2.02785e-06 5.6245e-21)
(-0.0517424 0.105559 -6.06593e-18)
(-8.98177e-05 -0.00130373 6.08969e-18)
(-0.000164264 0.000208724 -1.54332e-19)
(-9.30849e-05 -0.000310477 -1.01645e-17)
(3.92919e-05 -9.21382e-07 -1.59654e-21)
(-0.020254 -0.016383 -4.72246e-19)
(0.000187817 -0.00113639 -7.58119e-19)
(5.86699e-05 -9.41072e-06 1.20613e-20)
(0.00815851 -0.00167944 7.27011e-18)
(0.00792807 -0.0303985 -2.45333e-19)
(-5.84947e-06 1.48817e-06 -7.86577e-20)
(-0.000242058 0.000323877 1.36864e-19)
(0.00582038 0.00896146 -1.20067e-19)
(-1.25771e-05 5.60033e-07 9.16893e-21)
(-5.43926e-06 2.038e-06 7.60631e-20)
(0.0162952 0.0120296 6.73381e-19)
(0.0140231 0.0277703 4.54625e-18)
(5.96448e-05 9.84434e-07 6.97998e-21)
(-4.36699e-05 2.24418e-06 1.83424e-19)
(-5.21369e-05 3.24949e-06 1.86634e-19)
(0.00532421 -4.80779e-05 -1.84058e-18)
(-0.00010367 -0.000302753 8.45205e-18)
(0.00954808 0.0118795 -5.10411e-18)
(-0.0276893 0.0444604 1.19935e-18)
(-0.0456272 0.200349 1.92977e-18)
(-0.000563031 0.00158144 7.32978e-21)
(-0.0129657 0.152658 2.06554e-18)
(-0.000341698 -0.00155904 -9.85488e-19)
(0.000504999 -0.000219293 1.08739e-20)
(0.0074915 -0.00681908 -3.66436e-18)
(-6.46805e-05 3.36194e-05 -2.81106e-19)
(-3.58314e-05 1.23447e-05 -8.16576e-20)
(0.00984046 -0.000227755 -5.99755e-18)
(-5.18176e-05 -6.90775e-06 -1.54191e-19)
(0.0172789 -0.00360958 2.3082e-19)
(-3.32878e-05 7.19174e-06 -8.40512e-20)
(6.04654e-05 1.13982e-06 5.8138e-20)
(0.00329128 6.35258e-05 -2.59386e-18)
(0.0586703 -0.0754102 3.99374e-18)
(-0.0565525 -0.104648 1.05265e-18)
(-0.0361847 0.112526 6.26446e-18)
(-5.23429e-05 1.75775e-06 -4.92031e-19)
(-0.000163602 0.00166103 -2.88894e-19)
(9.25173e-05 -2.94517e-05 -2.4958e-19)
(-2.52156e-05 7.02135e-05 2.12807e-18)
(-0.0196353 0.0146819 2.85745e-18)
(0.00416503 -0.00394646 1.48058e-20)
(0.00750321 -0.00828177 7.32916e-18)
(-2.53287e-05 -9.38521e-05 1.96108e-18)
(-0.0071685 0.0830517 -4.87586e-19)
(-0.000698936 -0.000859503 6.16062e-20)
(-5.0111e-05 3.2151e-06 2.42074e-19)
(-0.0903334 0.0112441 9.54668e-18)
(1.38106e-05 5.73687e-06 -3.65868e-20)
(-0.000153604 -7.91081e-05 -2.29327e-19)
(-1.51877e-05 5.18995e-05 -1.4115e-18)
(-5.48193e-05 3.44534e-05 1.86975e-19)
(-9.52476e-05 -0.000278513 2.86534e-21)
(0.00355574 0.00186296 4.10192e-18)
(0.00061225 -0.000587111 5.80588e-18)
(7.55673e-05 -2.15231e-05 -7.71026e-21)
(-0.000369774 -0.00046136 -3.40933e-18)
(-0.0176521 0.0453102 -2.66554e-18)
(-3.47407e-05 9.16521e-06 -6.85226e-20)
(0.00119854 -0.00109906 3.59033e-19)
(5.62506e-05 7.28996e-06 3.01239e-20)
(0.00600815 -0.00419381 2.06634e-20)
(-0.000410583 -0.000784968 4.85944e-18)
(0.000416261 -0.000200521 -2.38257e-20)
(0.0100995 0.0650431 -4.42776e-18)
(0.00272461 0.00146808 -6.93541e-18)
(-4.62928e-06 3.69252e-06 2.37452e-19)
(-5.84455e-05 3.00644e-05 -2.97551e-19)
(-0.073624 -0.120613 -7.58237e-18)
(-3.3808e-05 7.74728e-06 3.95754e-20)
(-0.0615581 0.214309 -2.57842e-18)
(-0.00048573 -0.00154295 2.85644e-18)
(-0.00134117 0.000664842 -3.36053e-19)
(0.0154741 0.00396199 -6.51333e-18)
(5.96026e-05 -9.97284e-06 -3.92024e-21)
(-0.000358289 0.000300386 -2.24503e-18)
(0.00554542 -0.000471995 7.83114e-18)
(-4.88845e-05 -8.68552e-06 1.0611e-18)
(-0.00606555 -0.00731828 -3.70597e-18)
(5.79851e-05 2.20657e-06 8.47097e-21)
(2.42269e-05 8.5367e-07 -2.98735e-20)
(0.00219917 0.000426302 -3.96242e-19)
(-4.87454e-05 2.94757e-06 -1.46987e-20)
(0.00236244 -0.00531748 -2.81698e-18)
(0.0122176 0.0212308 -2.24149e-19)
(-0.00116176 0.00184278 -7.03673e-19)
(-0.00171379 0.0388036 4.1321e-18)
(-0.000355302 0.000557721 3.47282e-19)
(-0.000658426 -0.000765051 4.77941e-18)
(0.0656003 -0.0171866 -3.15518e-18)
(-0.000143354 -6.08404e-05 7.73954e-19)
(-1.37243e-05 0.00127944 1.90398e-19)
(-0.00669961 -0.131082 -7.84892e-19)
(-0.00106771 0.000776892 6.84753e-19)
(7.21447e-06 7.21594e-05 1.81352e-19)
(-0.000929481 0.00145313 5.93624e-20)
(-0.00607797 0.136305 2.10151e-17)
(-4.55868e-05 -1.55761e-07 2.5963e-19)
(-6.43689e-05 -2.94801e-05 -8.16742e-19)
(0.00146465 0.0163665 -4.93101e-19)
(-5.03916e-05 -1.05172e-05 1.21785e-18)
(0.0448348 -0.108079 -1.16253e-18)
(-0.000341993 8.21856e-05 -1.03352e-18)
(0.00831082 0.00106738 2.09721e-19)
(6.26001e-05 -5.71671e-06 -1.8857e-20)
(0.0052991 0.00256595 -4.97377e-18)
(-0.000138458 0.000175179 -7.93814e-20)
(-0.0125944 -0.157674 -1.60427e-19)
(5.74003e-05 -5.31362e-06 -5.92535e-22)
(5.70659e-05 -1.45849e-05 8.88084e-20)
(0.000198427 0.0614494 -8.77079e-19)
(-0.0208302 -0.00229721 2.92459e-18)
(0.0271784 0.107594 -9.18555e-18)
(-3.50117e-05 -1.34579e-05 -9.03231e-19)
(0.00797667 0.00132295 3.15272e-18)
(-0.000368515 0.000110647 1.98348e-18)
(-8.18908e-05 -0.000105084 -7.44551e-19)
(0.00214443 0.0120713 -9.35597e-18)
(0.00569923 -0.000750132 -7.5443e-18)
(0.00692918 0.00013423 2.35959e-18)
(2.42248e-05 1.49456e-06 -1.97947e-20)
(-0.000733797 -0.000361999 6.50634e-18)
(3.1499e-05 -9.59973e-07 -3.85548e-21)
(0.010165 0.044678 4.9084e-18)
(5.76689e-05 -4.29608e-06 1.88714e-21)
(-0.00375361 0.000228688 -1.09984e-19)
(-0.00643619 -0.0627615 9.94835e-19)
(-4.29819e-06 3.24361e-06 -1.1461e-19)
(-0.000216756 0.000503723 -1.7836e-19)
(0.000148318 -0.000585476 1.96026e-17)
(-0.00189751 -0.0111129 2.61808e-18)
(0.0455391 -0.101705 6.70831e-18)
(0.0431826 -0.0336446 3.66091e-18)
(7.80982e-05 -3.17468e-05 -2.19874e-20)
(-6.38331e-05 -3.01228e-05 4.9876e-19)
(-0.0114992 -0.0384336 -7.58457e-19)
(-0.0450308 0.016743 -4.10005e-19)
(0.000275032 -0.000161688 -3.73092e-20)
(0.00112608 0.0186588 -1.17051e-18)
(5.03543e-05 -1.53371e-06 2.38116e-21)
(0.00718947 0.000636424 -1.23745e-17)
(-4.50725e-05 -0.00142874 -1.01365e-17)
(0.00913119 -0.117021 -1.94449e-18)
(2.21422e-05 3.43458e-05 -2.42678e-18)
(0.000141653 0.000459167 2.28217e-18)
(0.000924 -0.00641224 -7.148e-20)
(-0.0452532 0.0268817 5.42866e-19)
(-8.22454e-05 -1.61315e-05 2.21303e-18)
(1.37512e-05 6.12409e-05 -5.50934e-19)
(-8.08032e-05 -0.000816101 -1.41831e-18)
(-0.00976157 0.100759 -1.04657e-19)
(0.0135471 0.0181651 1.18591e-19)
(0.0044539 0.000333045 -6.66152e-18)
(-0.0174153 0.00426246 3.09893e-17)
(-2.4795e-05 -4.47622e-05 -6.15318e-18)
(6.76316e-05 -1.67777e-05 -8.09015e-20)
(-0.00280971 9.73345e-05 -2.06667e-19)
(0.0756872 -0.0441014 1.21366e-18)
(-4.22786e-05 0.000223208 -2.67212e-22)
(0.0196453 -0.000638878 -3.34613e-18)
(-0.000144715 -4.56354e-05 -3.59075e-18)
(-8.22096e-05 -1.85375e-05 2.20335e-19)
(-0.000541355 -0.000233357 -5.6276e-19)
(0.00217348 0.0118934 2.06787e-18)
(0.00597011 0.0118111 -1.22997e-20)
(-0.000261026 -0.00676843 -1.10209e-20)
(-0.000158347 -5.57893e-05 3.38595e-19)
(0.024408 -0.0519301 1.14746e-19)
(-0.000807893 -0.00153058 -2.23514e-18)
(0.000761636 0.00207358 2.72026e-18)
(-3.68068e-05 1.41908e-05 1.95315e-19)
(0.00143299 -0.0646382 -2.33682e-19)
(0.0137897 0.00991403 1.65293e-19)
(0.00726594 -0.00189096 -8.43357e-18)
(-0.0101088 0.0713456 -1.82137e-18)
(0.000261906 -0.000234622 3.51172e-20)
(5.83334e-05 -2.93958e-07 8.03615e-21)
(4.03137e-05 -1.12131e-06 -6.77233e-22)
(-0.000105696 -0.000840491 6.49779e-18)
(0.0760593 -0.0585006 -1.96593e-18)
(-0.0390727 0.152775 -3.17231e-18)
(-2.26752e-05 4.40784e-05 4.41078e-20)
(-1.14576e-05 -2.37244e-05 8.08497e-19)
(0.0282491 -0.0515271 3.68128e-18)
(0.00431869 -0.0703927 -8.18492e-20)
(0.00920902 -0.00880736 -5.27423e-18)
(-0.000189778 -0.000460984 4.63054e-20)
(-5.328e-05 -0.000100313 -1.26593e-18)
(-0.000526196 -0.000905466 5.52518e-18)
(0.00864906 -0.0585679 8.25377e-20)
(0.0180659 0.00130848 -4.81043e-18)
(0.00106439 -0.000537328 -9.34832e-19)
(-0.115323 0.0790923 4.59884e-19)
(-3.88327e-05 1.88482e-05 8.06457e-20)
(0.00692441 0.000876645 1.652e-17)
(-0.000351161 -0.000442609 -1.05559e-18)
(-0.000225163 0.000199589 1.16763e-18)
(0.00733694 -0.0014417 5.26536e-18)
(-0.000133102 -2.66764e-05 3.39392e-19)
(-0.0170201 -0.0207065 -1.11917e-18)
(0.00343334 0.00619915 -3.43536e-18)
(-2.44793e-05 4.06341e-05 -1.26506e-19)
(-0.000199109 -0.000905474 -6.77951e-18)
(-0.000629386 -0.000211147 -2.40306e-18)
(-0.000226532 -0.000405512 -1.86062e-18)
(0.0770424 -0.0663134 5.24656e-19)
(0.00119123 -0.000598353 -1.27346e-18)
(-8.15575e-05 -1.91239e-05 4.74289e-18)
(0.00403522 0.0167481 1.13332e-17)
(5.45654e-05 9.94406e-06 -3.97285e-20)
(9.04645e-05 0.000528277 -3.98251e-18)
(-0.00198427 0.00136791 -1.21658e-19)
(0.00763804 -0.00186337 1.01629e-17)
(-0.00180061 -0.000186279 1.26552e-17)
(-3.54745e-05 -1.53964e-05 -2.32278e-19)
(2.82268e-05 -0.0010704 -1.51796e-20)
(-2.80418e-05 -2.41726e-05 -3.92983e-19)
(-0.0117845 0.00657693 -8.23951e-18)
(0.00364832 -0.0086603 -1.38255e-19)
(3.79536e-05 1.56544e-06 -6.09568e-21)
(-2.19292e-05 8.71535e-05 -3.94547e-20)
(-0.00164173 -5.61085e-05 -1.26703e-17)
(-0.00068301 -0.000321209 1.16278e-17)
(-0.0001557 -0.000110908 -4.51157e-18)
(-9.26005e-06 -2.10355e-05 7.95022e-19)
(-0.000126966 -2.80222e-05 -7.19761e-19)
(-8.29235e-05 -1.94127e-05 -4.36326e-18)
(-0.0156775 0.0637421 1.34987e-18)
(-0.0882669 0.0648759 -2.83312e-18)
(0.0509896 0.0573927 3.8166e-17)
(-0.00538281 0.00291699 1.00379e-18)
(0.00757633 -0.00144874 -6.22092e-18)
(0.0396624 -0.0385355 1.06811e-18)
(-2.96393e-05 -1.01968e-05 -2.2076e-18)
(-0.000725381 -0.00080925 1.77064e-18)
(0.00943194 -0.0103839 3.88736e-18)
(0.0033942 0.015846 7.45917e-20)
(-0.00437445 -0.0198017 9.56918e-19)
(0.00175671 0.00143009 -2.74884e-18)
(0.0187604 -3.85444e-05 -3.03609e-18)
(0.0036092 0.000660221 -1.09805e-19)
(0.049701 -0.10931 2.08883e-18)
(0.00522953 0.00344736 4.23122e-18)
(-2.53163e-05 -1.00481e-05 -1.24393e-19)
(-0.0101008 -0.012209 5.19931e-19)
(-0.0130993 -0.0114468 -5.32433e-19)
(-0.0224054 -0.0391006 -2.3006e-19)
(-0.0001524 -0.000121262 4.98974e-18)
(-0.00476489 -0.0224758 1.25986e-18)
(0.00912817 0.0486815 -1.26641e-17)
(-5.99592e-05 3.16172e-05 1.13332e-19)
(0.01343 -0.160356 -2.66557e-18)
(-1.19963e-05 8.27727e-05 8.05723e-20)
(-2.58157e-05 -2.2866e-05 -1.96071e-19)
(5.37289e-05 -2.04114e-06 -2.90682e-21)
(5.86703e-05 -9.63302e-06 -4.17363e-21)
(-5.67689e-05 2.61204e-05 -5.92744e-20)
(0.00489903 0.0036402 8.59648e-19)
(-0.0169201 -0.103273 -3.78673e-20)
(-7.48675e-05 -3.30728e-05 2.24842e-18)
(-0.000227838 -0.000894205 3.24649e-18)
(4.89425e-05 8.83128e-06 9.62194e-20)
(-0.10302 0.0865567 5.65109e-19)
(0.00298049 0.00377476 6.95133e-19)
(0.0322047 0.10746 6.35817e-19)
(0.0270963 0.0610306 -3.76233e-18)
(-7.79104e-05 -3.53135e-05 -2.03858e-18)
(-0.0233578 -0.00363004 -4.62486e-18)
(-0.000680125 -8.37978e-05 -3.83607e-18)
(0.000417183 0.1448 6.11399e-18)
(-6.40581e-05 2.94609e-05 -9.1179e-19)
(5.98744e-05 2.95985e-06 -3.38706e-21)
(0.00722715 -0.00199026 9.5944e-20)
(-0.067269 0.106279 8.68972e-18)
(-4.85972e-05 4.24663e-06 -7.20413e-20)
(0.0779482 -0.0732945 -1.05766e-18)
(0.00646664 0.0149619 -1.14399e-19)
(0.00176378 0.00186622 -5.63194e-18)
(-0.0262351 0.0761302 1.40269e-17)
(-0.0254422 -0.0186476 2.76571e-19)
(-0.0214156 -0.0235271 -1.11014e-19)
(-0.0040574 -0.0027488 1.62043e-19)
(-4.42025e-05 2.31715e-05 -6.02208e-20)
(-2.27378e-05 -5.32939e-06 -3.41405e-19)
(-0.00425853 0.00276254 -4.97901e-19)
(-5.44094e-06 -0.000996883 5.91639e-18)
(-0.0985017 -0.0254476 7.00767e-18)
(-0.000343662 -0.000772108 -5.22802e-18)
(0.00678776 0.000232131 -9.50754e-18)
(0.00402217 0.00512185 -8.59063e-20)
(4.94488e-05 1.00018e-05 6.17616e-20)
(-2.43836e-05 -4.78953e-05 2.22292e-18)
(0.0339532 0.0681284 -4.56212e-17)
(0.00955542 -0.000352527 -2.50777e-18)
(-0.0193235 -0.060687 -4.61852e-18)
(0.0105826 0.0238354 3.69735e-18)
(0.00820384 -0.00279212 -1.74659e-19)
(-0.000744731 -0.000113465 -1.06108e-18)
(1.47111e-05 1.36295e-06 -6.45247e-20)
(0.0364437 -0.0379854 -2.42074e-19)
(-1.34159e-05 2.11279e-05 -1.01993e-20)
(0.000169695 0.00215639 1.17406e-19)
(-0.00356272 -0.00221652 -2.03e-19)
(-4.03459e-05 -8.32845e-05 -2.9053e-18)
(3.39754e-05 -1.05881e-06 2.65989e-21)
(-2.19185e-05 4.23046e-05 -1.66617e-20)
(5.3056e-05 7.8568e-06 1.85014e-19)
(0.00279092 -0.00245214 -8.66279e-18)
(0.00318639 -0.0149393 1.04017e-19)
(-0.0115762 0.0129934 9.55591e-18)
(-0.00392646 0.000235571 7.67817e-20)
(0.0001232 -0.00105056 2.53133e-18)
(0.00653046 -0.00716324 6.90054e-19)
(-0.0398371 0.0483817 1.71453e-18)
(0.00034066 0.00059312 1.35608e-18)
(-0.0211196 -0.0426776 1.01511e-18)
(-0.000192982 0.000179663 -3.41712e-18)
(0.0086716 0.0588141 2.05243e-19)
(6.03159e-05 -1.12835e-06 -7.2135e-20)
(-2.37921e-05 3.91839e-05 7.04876e-20)
(2.10918e-05 3.89036e-07 2.25952e-20)
(0.00723946 -0.0319445 8.9907e-19)
(0.00916891 0.037912 2.49817e-18)
(0.00614276 -0.00234135 -9.07013e-18)
(0.00677596 -0.00542395 -3.80317e-19)
(-0.0153205 0.0103455 -1.60854e-17)
(0.0375809 -0.0484844 7.92807e-19)
(-0.0103017 -0.0174222 1.12973e-18)
(-5.23018e-05 3.01251e-06 -3.29149e-19)
(6.23324e-05 -0.000515022 -1.41401e-17)
(-6.43897e-05 2.84132e-05 3.89891e-19)
(-0.0363573 0.064544 -1.34928e-18)
(4.53352e-05 -1.10398e-06 3.39302e-20)
(-0.0438984 -0.0320528 1.15855e-18)
(-0.0148102 0.123348 -9.31208e-19)
(-0.00921576 -0.00174768 1.57614e-18)
(0.00768344 0.0015036 4.5677e-18)
(-0.00107969 0.0012554 -1.80081e-19)
(0.0163786 -0.00537708 -1.62987e-19)
(-0.0135025 0.113383 1.38183e-18)
(-0.0610593 0.0948471 5.8801e-18)
(5.75231e-05 1.69257e-06 -1.82411e-21)
(-0.000891695 -0.000188828 -1.79392e-19)
(-0.000575886 -0.00170908 3.31107e-18)
(0.00981247 0.0131833 2.93915e-20)
(-9.2947e-06 1.46225e-05 -3.23362e-20)
(-8.58913e-05 -2.7174e-05 -1.47207e-18)
(-0.000603106 -0.000858796 -2.51163e-18)
(0.00264427 0.00163458 -1.9056e-17)
(-0.00675778 -0.000787167 1.2088e-18)
(0.0203573 0.072583 -1.15668e-18)
(2.68769e-05 2.04872e-06 5.76587e-21)
(-2.01112e-05 0.000108315 4.3471e-20)
(0.0148996 0.0093646 9.78427e-18)
(0.00131363 -0.00150307 1.53201e-19)
(5.70385e-05 9.55566e-07 -6.56334e-21)
(-0.0236716 0.0667724 -3.02683e-19)
(-4.2566e-05 2.24849e-05 1.53878e-19)
(0.000942922 0.000130467 7.89689e-20)
(-1.9423e-05 3.3046e-05 9.49218e-21)
(0.00661726 -0.00338119 -8.30352e-20)
(-0.000179665 -0.00022422 -9.2329e-20)
(6.05419e-05 -4.13455e-06 -2.92306e-21)
(-0.000766342 0.00129255 8.38137e-20)
(0.00497477 0.0170732 -1.41726e-17)
(-5.47557e-05 -6.47445e-06 4.89634e-19)
(-0.000354089 -0.000844819 8.13465e-18)
(-3.46455e-05 8.42306e-06 7.40628e-20)
(-0.00708256 -0.000538936 1.20786e-19)
(0.0214172 0.0193396 9.09815e-20)
(-1.43723e-05 4.16665e-07 3.97274e-21)
(-7.05948e-05 -5.28296e-07 2.02294e-19)
(-1.93794e-05 8.74331e-07 2.20487e-20)
(-1.7462e-05 1.01522e-06 -1.59047e-20)
(-0.0701273 0.145805 -3.56667e-18)
(-8.37331e-05 -2.32576e-05 -1.73374e-18)
(-0.00641761 -0.0250932 2.48317e-18)
(-4.72665e-05 -1.06723e-05 -2.02661e-18)
(1.8482e-05 2.17233e-06 6.03771e-20)
(-0.0236025 0.0856636 4.47679e-18)
(0.00802433 0.00122169 -2.66989e-18)
(-5.10744e-05 -1.58662e-05 1.54814e-18)
(-0.00840492 0.000259019 -8.35922e-19)
(0.000243581 0.000683941 -1.37131e-19)
(-0.044186 -0.00705896 4.89569e-20)
(0.00637962 0.0559999 -3.42968e-18)
(-3.70753e-05 0.00010975 2.73348e-20)
(-0.0247896 -0.0889715 7.52181e-19)
(-6.47945e-05 3.12886e-05 2.90461e-19)
(0.000444237 -0.00550337 -3.21086e-18)
(-4.90395e-05 -8.52178e-05 4.93725e-18)
(0.0371775 0.0529942 -3.71162e-18)
(6.15453e-05 -2.94589e-06 -3.6338e-20)
(0.000124602 0.0348207 -2.03767e-17)
(0.018019 0.0142653 -3.43897e-19)
(5.64348e-05 5.96569e-06 5.72272e-20)
(-0.00790292 0.00263756 2.81809e-19)
(0.00947712 0.0409439 -2.72095e-18)
(-0.0041596 0.000595062 1.91875e-18)
(0.00612714 -0.0820609 -1.5278e-18)
(-4.48383e-05 2.75535e-06 -1.29768e-19)
(0.0436731 -0.0431311 -2.44147e-19)
(-5.5376e-05 4.25225e-07 1.51061e-19)
(-3.27533e-05 1.03246e-06 -1.12046e-20)
(-3.74719e-05 1.31488e-05 -1.34793e-19)
(-2.613e-05 -8.63968e-05 1.24594e-18)
(0.00913504 -0.000518402 2.66807e-18)
(0.000493015 -0.000875529 1.47039e-18)
(-8.31975e-05 0.0020839 -7.89514e-18)
(0.00796213 0.0082197 2.79718e-17)
(-0.0208877 0.00133445 -7.78115e-19)
(8.85441e-05 -2.66007e-05 3.88723e-21)
(0.024355 0.00780602 -1.55192e-17)
(-0.00129135 0.0386231 -1.48016e-18)
(-0.000413543 0.000259883 1.64909e-18)
(-0.000401637 -0.000461609 7.27986e-18)
(-0.0399934 -0.00945111 -1.72058e-19)
(-0.00918205 0.00490388 1.77411e-18)
(0.00517221 0.00273196 -4.91919e-18)
(-3.66608e-05 -2.95882e-06 -3.71327e-19)
(0.0384269 0.0611463 8.94814e-18)
(-0.02256 0.0955795 -2.5962e-18)
(-0.00512019 0.163243 1.88215e-17)
(0.00134774 -0.000849623 5.20264e-19)
(-0.00904295 0.00376445 2.14194e-19)
(-0.0477216 0.201353 1.50505e-18)
(0.0179835 -0.000162413 4.49941e-20)
(0.0234815 0.0797583 -7.45716e-19)
(-0.00662137 -0.144358 1.21719e-18)
(-0.0426932 -0.0585648 3.40702e-18)
(-0.000117858 -0.00033614 1.29562e-19)
(-0.0317056 -0.0686156 -1.63609e-18)
(0.00430574 0.00366446 3.7326e-18)
(6.0875e-05 -3.00694e-06 -5.44701e-20)
(0.0148252 0.00442368 -1.03927e-20)
(0.000470985 -0.000729824 -5.26581e-18)
(0.00790746 0.000944933 -1.0155e-19)
(5.77199e-05 3.05661e-05 -1.91064e-18)
(-5.16201e-05 -1.80639e-05 2.61523e-18)
(-5.45326e-05 3.3301e-05 -6.19083e-20)
(-7.61749e-05 -9.71766e-07 -2.94545e-19)
(0.00226025 -0.00447585 -9.7349e-19)
(0.00189858 -0.0080262 -2.11928e-21)
(0.00173529 0.0425331 -6.42557e-18)
(0.00330909 0.0881007 -2.21613e-19)
(-3.10973e-05 2.5186e-06 -3.24056e-20)
(0.010842 0.00620275 2.40429e-17)
(0.00413263 0.0034969 4.92259e-18)
(-0.0355446 -0.0228752 9.58449e-19)
(-0.00428813 0.067409 3.07433e-18)
(-0.000395959 -0.000836732 8.30823e-19)
(5.63782e-05 2.90017e-06 -3.88091e-22)
(-2.22485e-05 4.10301e-05 -7.76271e-21)
(0.016067 -0.0110359 9.90774e-20)
(0.0240219 0.011181 1.12036e-17)
(-0.000167185 -7.9735e-05 1.03866e-18)
(-0.000992479 -0.000382707 6.20539e-18)
(-0.00280668 0.00100047 -8.69213e-18)
(5.7674e-05 -2.27605e-06 -6.45239e-21)
(0.00865731 -0.0107416 3.81131e-19)
(0.00968119 -0.00360069 -1.67587e-19)
(-0.0280723 -0.032519 2.14062e-18)
(0.00297374 0.00072983 -1.33871e-17)
(0.00909173 -0.00052437 1.06055e-17)
(0.00475299 0.00287319 8.58644e-18)
(-6.41175e-05 3.24995e-05 4.64847e-19)
(-3.72607e-05 -8.7461e-05 3.14342e-18)
(-0.0148852 0.111342 3.31267e-18)
(0.00390255 0.0054087 4.49863e-18)
(-0.00162533 0.000721156 2.4411e-18)
(-0.000318757 -0.000749474 3.23882e-18)
(-0.0249483 0.0163143 2.5493e-19)
(5.92308e-05 -9.83296e-06 2.58954e-20)
(-6.49122e-05 7.39387e-06 -1.88668e-19)
(-0.0353197 -0.0444833 2.52773e-18)
(5.8673e-05 -3.77371e-06 -4.70521e-20)
(5.94235e-05 -4.55865e-06 2.94445e-18)
(5.90407e-05 -8.73503e-06 -2.73271e-21)
(-4.8088e-05 1.1485e-05 6.11782e-19)
(0.00454876 0.00381978 -1.18109e-17)
(0.00264317 -0.00342171 -8.7994e-20)
(0.00499617 -0.00459424 -5.63463e-19)
(5.90744e-05 -6.45767e-06 -4.76827e-21)
(0.0839347 -0.0664927 -2.04887e-18)
(-0.0194659 -0.122706 1.57272e-19)
(-4.22227e-05 2.53991e-05 2.95059e-19)
(2.32325e-05 4.55669e-06 -7.06917e-20)
(-0.000109208 0.000214107 -2.17264e-19)
(-2.51954e-05 -6.47015e-06 1.52597e-18)
(-0.0667443 0.108359 -4.27418e-18)
(0.0019922 -0.142331 -2.14271e-18)
(-0.0078668 -0.163848 4.91424e-18)
(0.0122178 0.152159 -1.35557e-17)
(0.0402813 -0.0342812 -9.4566e-20)
(-0.0003134 -0.000696635 9.58e-18)
(0.00784622 0.000664914 3.89866e-18)
(0.00863777 0.000923222 6.67956e-18)
(0.0041865 0.00107762 1.05458e-19)
(-0.000495331 -0.000796928 -9.89845e-18)
(5.65972e-05 4.47827e-06 3.9297e-22)
(-0.00153292 0.00183582 -4.09748e-20)
(-0.000836462 0.00232894 -2.5523e-19)
(0.00743898 0.0176601 -2.47874e-18)
(0.0610539 -0.0957629 7.04309e-20)
(-0.000876577 -0.0003247 -5.87171e-19)
(-0.000826734 0.000263273 6.09753e-19)
(-2.40698e-05 3.72034e-05 5.55901e-20)
(0.00148468 0.00203712 -1.05619e-18)
(0.00136157 0.000596643 1.94995e-19)
(0.0105952 -0.0646708 1.32326e-18)
(0.0010301 -0.000991305 -2.76407e-18)
(-4.61994e-05 -8.89784e-06 3.02827e-19)
(-0.00616721 0.00190958 -5.64237e-20)
(-9.72936e-06 1.63101e-05 7.4134e-21)
(-0.000477929 -0.000290648 2.23859e-18)
(0.00678112 -0.00311143 5.93063e-18)
(-4.62774e-05 -9.65965e-05 2.55426e-18)
(-6.38658e-05 2.58599e-05 3.28411e-19)
(0.00237989 0.00424549 1.23743e-18)
(-6.98883e-05 -4.01999e-05 -6.47242e-18)
(0.00157896 -0.00417637 -3.21516e-18)
(0.00190275 -0.0312558 -5.73765e-19)
(0.00500008 -0.000930056 -2.28604e-18)
(0.00227617 0.00180505 1.22332e-18)
(-0.00187331 0.000630935 8.19603e-18)
(-2.40525e-05 3.59414e-05 -1.69056e-21)
(-0.0282542 -0.0466184 -7.74722e-19)
(0.00246503 -0.00733489 2.62664e-19)
(0.0210185 0.165123 1.03401e-17)
(-0.000155179 0.00013173 2.4359e-19)
(-2.38333e-07 1.32889e-06 8.77656e-20)
(0.0075299 -0.00134353 9.6999e-18)
(-0.000746271 -0.000161521 -5.38353e-19)
(-0.0499574 0.0760682 5.63961e-18)
(0.00612448 0.00243415 8.37348e-18)
(0.0599105 0.0805034 -1.75333e-17)
(-0.0155677 0.0663659 -3.75425e-19)
(-1.34441e-05 2.31811e-05 8.29808e-20)
(0.00596579 -0.00112846 1.83018e-18)
(0.000362049 -0.000309281 1.88065e-20)
(-4.66279e-05 1.60576e-05 1.58201e-20)
(6.10752e-05 -3.77849e-06 3.92587e-20)
(-4.90131e-05 1.20231e-05 2.25856e-19)
(0.00125777 -0.00181782 5.39801e-22)
(-0.00445376 0.000986927 -1.16516e-19)
(0.00535291 -0.00350485 -5.95974e-21)
(5.92254e-05 -7.09885e-06 -8.86401e-21)
(0.0287435 -0.0616591 -1.71602e-18)
(0.017222 0.0174752 -3.0466e-19)
(0.0328281 -0.0599198 2.05718e-18)
(-4.77188e-05 3.93936e-05 -5.78766e-20)
(5.87472e-05 -3.95737e-06 -1.37588e-20)
(4.60593e-05 -2.09701e-07 -1.79365e-19)
(0.00772184 -0.0120292 4.18318e-19)
(0.0595806 -0.0295048 -1.80528e-18)
(-0.000204924 -0.000758309 5.46643e-18)
(-0.000515067 -0.000291955 -2.97273e-18)
(0.000457233 -0.000302713 -1.61671e-20)
(1.56338e-05 2.44537e-06 -1.45856e-19)
(-2.9435e-05 1.51158e-06 2.84012e-21)
(-4.55673e-05 4.65657e-05 -4.84481e-20)
(-0.00263387 0.00546014 1.17122e-17)
(0.0360732 -0.082777 1.40029e-19)
(-6.90143e-05 -3.72941e-05 1.30287e-18)
(5.93872e-05 -8.85476e-06 3.73252e-20)
(-2.22774e-05 -8.66965e-05 5.19458e-19)
(-5.06789e-05 4.2291e-05 5.4699e-20)
(-0.0484303 -0.0109013 -6.21227e-19)
(-0.00836021 0.04037 -7.15355e-18)
(0.00116134 0.00232637 -8.42345e-19)
(0.0200574 0.037242 1.25722e-17)
(0.0324604 -0.0484165 2.56859e-18)
(-6.37217e-05 2.47788e-05 4.87073e-19)
(0.000376831 0.00192936 2.16561e-17)
(-0.0722702 0.0976726 -9.06527e-18)
(-0.000483072 -0.000855244 -4.82092e-18)
(-0.0634266 0.0176804 3.63048e-19)
(-7.95091e-05 -8.90579e-05 4.91702e-19)
(-0.00283941 -0.000395235 -2.36735e-19)
(-0.000173502 -0.0007605 -3.95266e-18)
(-0.00320378 0.000553145 2.57134e-19)
(-0.0159616 -0.14892 7.18326e-19)
(-4.98849e-05 -1.39345e-05 -6.78841e-19)
(-0.0450688 0.149344 -2.72591e-18)
(4.36579e-05 -1.36138e-06 -3.64413e-20)
(-0.000113242 -0.000606641 -6.50817e-18)
(0.00745335 0.00175928 3.07137e-19)
(5.43613e-05 3.02819e-06 -2.0985e-20)
(-0.000523656 0.000134122 4.23499e-19)
(-0.0202803 0.0197471 -1.67783e-18)
(-3.32232e-05 1.14951e-06 -8.7314e-21)
(-0.000305576 0.000268486 2.08314e-18)
(0.0508812 -0.0489374 2.65969e-18)
(-0.104235 -0.136766 7.46331e-18)
(0.000997669 -0.00121643 5.47942e-18)
(0.0205509 -0.00392992 2.7059e-18)
(-0.0300527 -0.0195001 1.07435e-19)
(5.81861e-05 -7.91776e-06 9.5866e-22)
(-4.81499e-05 3.80526e-05 1.09524e-19)
(-0.00723679 0.0854155 4.19459e-18)
(-0.00274866 0.000787422 2.56767e-18)
(-0.000774047 -0.0130025 -1.42868e-18)
(0.00572321 0.00279908 -6.12142e-18)
(-2.24782e-05 1.49527e-05 1.14395e-21)
(-1.07474e-05 -2.36211e-06 8.3715e-19)
(6.11208e-05 -1.34764e-06 1.07936e-20)
(0.0421864 -0.0397408 -2.51317e-18)
(-0.00238825 0.00269866 -9.72048e-18)
(0.000597604 -0.000466421 -8.81662e-19)
(6.88122e-05 4.94763e-05 1.67428e-19)
(0.0165882 0.0304598 -4.57255e-20)
(-0.000287112 -0.00018372 5.12621e-18)
(4.74938e-05 -6.93865e-07 5.11567e-20)
(0.00730981 0.00538717 -7.89811e-18)
(-0.0614 0.127419 4.43905e-19)
(0.00115948 0.0088902 3.73465e-18)
(5.50507e-05 7.02241e-06 -3.53099e-20)
(-6.63677e-05 -4.32761e-05 9.17704e-19)
(0.00643012 0.00102035 -1.03181e-17)
(-0.0107857 0.0192221 6.36745e-18)
(-0.00268506 1.20609e-05 -8.34388e-18)
(0.00107847 0.000396925 -1.57422e-19)
(0.006774 0.00161313 -8.20557e-19)
(-5.17957e-05 -8.44422e-06 -2.96381e-18)
(0.00886302 0.048668 8.58992e-19)
(-0.0141339 -0.0187743 8.71312e-20)
(-0.0105542 -0.00261656 1.12234e-18)
(7.07685e-05 0.000326318 -1.30315e-19)
(0.0463836 0.0805627 -2.99491e-18)
(-0.00322721 -0.00478694 -5.35417e-20)
(0.0013925 -0.00173795 -2.68958e-19)
(-0.00699626 0.000510827 1.78046e-17)
(-1.19488e-06 1.22661e-06 -1.29734e-19)
(-2.95553e-05 -7.61713e-09 -8.29495e-19)
(-0.0001672 -0.000256281 -8.58357e-19)
(-2.22649e-05 3.66043e-05 3.85752e-20)
(0.0104834 0.00844752 -1.53395e-17)
(-0.000967594 0.00138681 2.39468e-18)
(0.00263207 0.00122081 1.15313e-17)
(0.00513502 -0.00337168 4.27083e-19)
(0.0151485 0.0152797 -6.15049e-22)
(-2.58322e-05 3.55125e-05 -6.80868e-20)
(0.0601759 -0.0462064 -2.63222e-18)
(-2.90438e-05 2.21331e-06 2.48961e-20)
(-0.00411019 -0.00424868 -1.85199e-19)
(6.09118e-05 -3.41679e-06 -2.09364e-20)
(-6.2531e-05 2.05127e-05 5.45557e-19)
(-4.84554e-05 1.65941e-07 -6.70069e-19)
(0.00336852 0.00636902 7.27438e-18)
(-5.72002e-05 2.72834e-05 -3.00191e-20)
(5.83574e-05 1.04759e-05 -1.20206e-20)
(0.0390008 0.0674381 7.60671e-19)
(-3.83353e-05 -9.23387e-05 -6.05084e-18)
(0.00653189 0.00146251 5.27741e-18)
(3.81646e-05 5.16642e-07 3.01511e-20)
(0.000650535 0.00130231 3.99802e-19)
(-0.000142762 -0.000376808 -2.75634e-19)
(-0.0571347 -0.00586417 2.78814e-19)
(0.00524625 -0.0929668 -2.62741e-20)
(-2.62872e-05 5.60524e-06 1.00192e-20)
(0.0153928 -0.0491829 -1.5975e-18)
(0.0241031 0.0338781 -1.33826e-17)
(-8.32223e-05 -2.02221e-05 3.30205e-19)
(0.00299244 0.00639469 4.05174e-18)
(-0.000124143 -0.000597324 5.17516e-18)
(-2.00798e-05 3.46975e-05 1.27769e-20)
(0.00259639 -0.00999219 -2.82909e-19)
(0.00549564 0.00168341 2.22897e-17)