/*--------------------------------*- C++ -*----------------------------------*\
| =========                 |                                                 |
| \\      /  F ield         | OpenFOAM: The Open Source CFD Toolbox           |
|  \\    /   O peration     | Version:  v2012                                 |
|   \\  /    A nd           | Website:  www.openfoam.com                      |
|    \\/     M anipulation  |                                                 |
\*---------------------------------------------------------------------------*/
FoamFile
{
    version     2.0;
    format      ascii;
    class       surfaceScalarField;
    location    "1000";
    object      meshPhi;
}
// * * * * * * * * * * * * * * * * * * * * * * * * * * * * * * * * * * * * * //

dimensions      [0 3 -1 0 0 0 0];
oriented        oriented;


internalField   nonuniform List<scalar> 
20642
(
-0.00171747
-0.000276309
0.00199378
0.00549028
-0.00940402
0.00389927
0.00108912
0.00169396
-0.00278332
0.00100784
-0.00748791
0.00643654
0.00750605
-0.0108973
0.00334939
0.00960051
-0.00412926
-0.00308499
0.00670492
-0.00363164
0.0113757
-0.00646155
-0.00492344
0.00297245
0.00281137
-0.005795
0.00169825
0.000257427
0.00497179
0.00639381
0.0097882
-0.00843526
-0.00143319
-0.000405635
-0.000327472
0.0065503
-0.00994246
0.00338752
0.00788306
-0.0105138
0.00259749
-0.000158423
-0.00155905
-0.000221273
-0.000173473
0.000261548
-0.0111523
0.00491485
0.00622733
0.00410018
-0.00290598
-0.00119491
-0.00207658
0.0011413
0.000935273
0.00794293
-0.0051599
-0.00279571
0.00182211
0.00634347
-0.00825934
0.00238299
0.00207421
-0.00445987
-0.00715928
0.0088788
0.00897966
-0.00466796
-0.00433803
-0.00843952
0.00334652
0.00508057
-0.0070306
0.00396427
0.00306518
0.00169825
-0.00994708
0.00365951
0.00627533
-8.42879e-06
-0.000180656
0.000183945
0.00149177
0.000206479
0.00514957
-0.00184095
-0.00330991
-0.00905912
0.00604932
0.00296295
-0.00201053
0.00101448
0.000996039
-0.000442345
0.00652949
-0.00619517
0.000857503
-0.00732693
0.00728244
0.000828826
-0.0081456
0.000244296
-0.000889242
0.000201128
-0.00616093
0.00306527
0.00501867
-0.0076251
0.00259669
2.95927e-06
6.14631e-05
-0.000150088
0.00372831
-0.00562179
0.00183229
-0.00826735
0.000973133
0.00727354
0.00175183
0.00138353
-0.00313592
0.00369076
-0.00193964
-0.00114477
0.00348384
-0.00233979
0.00710552
0.000819794
-0.00274854
0.00166718
0.00108134
-0.0046168
-0.00418958
0.00880305
0.00482061
-0.00535005
0.000877669
0.00882521
0.00142235
-0.00438765
0.00296405
-0.00112674
0.00184903
-0.000722289
-0.00844553
0.00990011
-0.00155094
-0.0105457
0.008001
0.00245143
0.00370609
-0.00228466
0.00149177
-0.00229205
0.00467195
0.00575521
-0.00208953
-0.00407654
0.00293086
0.00447533
-0.00237918
-0.00209627
-0.00307817
-0.00460589
0.00763872
2.53934e-05
1.9366e-06
-3.89722e-05
0.00327641
0.00567334
0.00185657
0.000227783
-0.00208442
-0.000348955
0.000222453
0.00012519
0.00414626
-0.00975444
0.00559749
0.00688021
-0.00603015
-0.00619016
0.00190654
-0.00115166
-0.000754876
0.000558248
0.00173842
-0.00229678
-0.00146372
-0.00054681
0.0105143
-0.00896344
-0.0016501
0.0042807
0.00139855
-0.00809415
0.0029225
0.0107906
-0.00548278
-0.0053352
0.00680146
-0.0102627
0.00341484
0.00579634
-0.00159219
0.00423373
0.00652749
-0.00564626
-0.00344447
-0.00689585
-0.00329962
0.0101182
-0.000257665
-0.000257815
0.000331223
0.0014214
0.00897791
-0.00285799
0.00171355
0.00114434
0.00490216
-0.00440689
-0.000927656
0.010065
-0.00423659
-0.00583506
0.00281523
0.00233286
-0.00144257
-0.00111847
0.00202342
0.00724523
-0.00223707
0.000141525
-0.00047808
0.000157092
0.000501522
-0.000775753
-0.00589505
0.00567382
-0.0102945
0.000697969
-0.00650528
0.00569205
0.00173417
0.00747852
-0.00928047
-0.00581186
-0.00924125
0.00497703
0.00426119
-0.000411662
-0.000303253
0.000457998
-0.00276056
0.000892834
-0.00471106
0.00772291
-0.00301605
-7.77213e-05
-5.54851e-05
8.9135e-05
2.1897e-05
-0.000131513
-0.00961234
0.00265163
-0.000961657
-0.000140221
0.000866649
0.0108567
-0.004115
0.00204426
0.000203301
-0.00224761
0.00173345
0.000330998
-0.00206448
0.0057616
-0.00889224
-0.00172386
-0.00395782
-0.00332973
-0.00370241
0.00136623
-0.00382269
0.00216788
-0.0011534
0.00942663
-0.00577836
-0.000582188
0.00243869
-0.000577932
-0.00553794
0.00609244
0.00233831
0.00176105
0.00041207
-0.000501723
-7.23415e-06
-0.00186311
-0.00136878
0.00323157
-0.00221349
-0.00643201
0.00853384
-0.000690645
0.000256674
-0.00571308
0.00208767
0.00354242
-0.00385797
-0.00590719
-0.0023899
-0.00155729
0.003946
-0.00121696
0.00196161
-0.000744644
-0.0012559
-0.00160214
-0.00805333
0.00277199
0.00525274
-0.0026642
-0.00544221
-0.00660445
-0.00153461
0.00800272
0.00147607
-0.00386694
0.0059123
-0.00173579
-0.00418114
-0.00182061
0.00451165
-0.00269235
0.00227805
-0.00144637
-0.000831699
-0.00674003
0.0061359
0.00417891
-0.00118256
-0.00299734
-0.00733819
0.00400686
-0.00439249
0.00228707
0.00210528
-0.00105837
-0.000748737
0.0018071
-0.00963138
0.00376133
0.00585677
-0.000220414
-0.00911909
0.00936039
-0.000244748
0.00203025
0.0036896
-0.000722562
0.00276677
-0.00183707
0.00742299
-0.0057307
0.00928201
-0.00846216
-0.000926412
-0.00472966
-0.0010354
0.00571467
0.00222665
-0.0016685
0.0106095
0.000548304
0.00124558
-0.0017939
0.00169019
-0.0102411
-0.00534651
0.00748347
-0.00214744
7.79039e-05
2.47166e-05
-0.000143068
0.00791226
0.00125534
-0.00357146
-0.00567262
0.00941722
-0.00766722
-0.00182388
0.000172788
-0.00135612
0.00141311
0.00054913
-0.00196226
-0.000110758
-0.000144885
0.000164099
2.98616e-05
0.000301036
0.00866617
-0.00686214
-0.00209183
0.000996936
0.0015513
-0.00254834
-0.0109101
0.00393953
0.00694012
0.000179736
-0.00149174
-0.00166089
0.00315254
-0.00772064
0.00397934
0.00373849
0.000444052
-0.00166071
0.00335658
-0.00169594
5.68423e-05
-5.59267e-05
-2.29618e-06
-0.00353656
-0.00610747
0.0133858
-0.00782607
-0.00565567
0.000698824
0.00141833
-0.00211717
0.00725405
0.00470091
-0.00308173
-0.00161947
-0.00125894
0.00415062
-0.00289379
8.74945e-05
-0.000230829
8.5612e-05
-0.00597368
0.00694198
0.00204686
-0.0043941
0.00234611
0.00190164
0.00400496
-0.00610648
-0.00482964
-0.00732525
0.00791331
-0.000608155
0.00611691
0.0081891
-0.00738235
-0.000849938
0.00283611
-0.00198665
0.00104914
-0.00291256
0.00307509
-0.00489725
0.00858252
-0.000472928
-0.00363545
0.00278483
-0.000269005
0.000255317
0.00533655
0.00472212
0.00368173
-0.00494343
0.00207591
0.00161412
-0.0040756
0.00192644
0.00214843
-0.00122768
0.00199681
-0.000769131
-0.00457018
0.0051804
-0.000904177
0.00194876
-0.00104459
0.0019142
-0.00673593
0.00480652
0.00136886
0.000909172
-0.00153376
0.00795772
0.00782422
0.00151042
-0.00346147
-0.0044383
0.00788329
-0.00152828
-0.000475245
0.00200352
0.000428871
-0.00148724
0.0096462
-0.00721566
-0.00247114
-0.0045991
0.00591305
-0.00131485
-0.0063342
-0.00221667
0.00853364
0.00188881
-0.0037578
-0.00234186
0.00719424
-0.0105702
-0.00562748
0.00675962
-0.00131157
-0.011551
0.00503021
0.00649091
-0.00778169
-0.00379821
0.00221547
0.00326552
0.000912489
-0.00468897
-0.00107523
-0.00126867
0.00234383
-0.000414778
0.00121711
-0.0012848
-0.000166211
-0.00213836
0.0022276
-0.00215625
0.0019169
0.00157365
-0.0043929
0.00229732
0.0020948
0.00160469
-0.0039103
0.002305
0.00619289
-0.00584449
-0.000826437
-4.83844e-06
2.13338e-05
-0.00380352
-0.00353624
0.000944853
0.00303473
-0.00198423
-0.00113392
0.00177709
0.00116753
-0.000103394
4.125e-05
-0.00011343
-0.00211509
-0.00223661
0.00204889
-0.00114421
-0.000319513
-0.00119761
-0.00129374
0.00249132
-0.0103025
0.00624626
0.00398606
7.04453e-05
-0.000109238
3.28087e-05
-0.00344819
-0.00185902
0.00530512
0.000879529
-0.00190017
0.00102064
-0.000381832
0.000133144
0.000152063
0.00026372
0.00541882
0.00230825
-0.00690819
-0.00145855
-0.000995654
0.00245415
-0.00155738
0.00113864
-0.00221391
0.00208443
0.00282917
-0.0049154
0.00472847
-0.00669429
0.00150339
0.00185311
0.00071336
-0.00416327
0.00355578
0.00586015
0.00470751
-0.0032141
-0.00149471
0.00697694
0.0026286
0.00101784
-0.0012594
0.00684343
-0.00567383
0.00665754
-0.00487659
-0.00178549
-0.00572775
0.00349379
0.00223095
-0.0115727
0.00461091
0.00688285
-1.0819e-05
-0.00480231
-0.00881077
0.0111657
-0.00240577
0.00500901
0.00172812
-0.00682341
0.00191154
-0.000755389
-0.00115615
-0.00851136
0.00199813
0.00651045
-0.00618027
0.00199763
0.00408888
-0.000329559
0.0020131
0.00197421
-0.00971353
-0.00211306
0.00169247
-0.00779192
-0.00146708
0.000329691
0.00577309
-0.00411761
-0.00166084
-0.00258424
-0.00367715
-0.00181291
0.00117228
-0.000751942
0.00248536
-0.0117658
0.00385546
0.00776334
0.00788779
-0.0111799
0.003244
0.00182514
0.00254109
-0.00436702
0.000275862
-0.00190524
0.0015699
0.00255439
-0.0061156
0.00355704
0.00112167
0.000789865
0.00185091
-0.00163277
0.000942644
0.000963891
-0.00179934
0.0067196
0.0027678
-0.001771
-8.3667e-05
0.000109728
-0.00717013
-0.00263667
0.00977205
-0.00699126
-0.00464087
-0.00752102
-0.00166115
0.00900712
-0.00246493
0.00330228
-0.00083782
-0.000626518
-0.000431193
0.000683378
-0.00402979
-0.00369379
0.00204465
-0.00639697
0.00434115
5.80845e-05
-0.00483566
-0.00317718
-0.00295112
0.00612639
-0.000754093
-0.000248887
-0.00021724
0.00319009
-0.00545257
0.00225952
-0.00979755
-0.000792787
0.0105345
0.00133396
-0.00714892
0.00578992
-0.00263069
0.0100899
0.0093086
-0.00509787
0.00168716
-0.00675294
0.00496308
-0.00153259
0.000527688
0.00270194
-0.00487288
0.00216949
0.00230447
-0.00880063
0.0064643
0.00356127
0.00309015
0.00252848
0.00675387
-0.0042699
0.00424113
-0.000384062
-0.000602952
0.00201605
-0.000118278
-0.00141
-0.00606628
-0.0016391
0.00756723
0.000594768
-0.00195855
0.00134419
-0.00542945
-0.00786047
-0.00207229
0.00991403
0.00288215
-0.00301423
0.000131675
0.00243102
-0.000295939
-0.00213511
0.00129209
0.00340866
0.000160808
8.47406e-05
-0.000246679
0.000652239
0.00385756
0.0105837
-0.00274438
0.00274389
-0.00103044
-0.00952224
0.00164312
-0.00154637
0.00263529
-0.00116557
0.000249049
0.00949534
-0.00164703
0.00627164
-0.00139901
0.00871705
-0.00739617
-0.00108426
-0.00833413
0.00361859
-0.00154341
-0.000329518
-9.51337e-05
0.000288301
0.00182802
-0.00112921
0.00332449
-0.00324683
-0.000554754
0.00227697
-0.0045965
0.000498982
0.00161386
-0.00215675
-0.00151559
-0.000560993
-0.00350119
-0.000596043
0.0038706
-0.00628533
0.00294092
0.00333913
-0.00900852
0.00265866
-1.88392e-05
0.000178331
-0.000535459
6.18598e-05
-0.00210657
-0.00192995
0.0040354
-0.00205287
0.0027212
-0.000668399
0.00156905
-0.00821687
0.0065757
-0.00862345
0.0071471
0.00102187
0.001146
-0.00234426
-0.000165977
0.00251017
-0.000640869
0.00273695
-0.0020963
0.00880654
-0.00226141
-0.000169028
0.00194709
-0.0101611
0.00633695
0.00374964
-0.00116899
-0.00118419
0.00235314
0.00396129
-0.00331061
-0.00221177
0.00196464
-0.0124885
0.00849498
-0.00672637
-0.00184192
0.00841392
-0.00502494
-0.00339682
-0.00272907
-0.00419939
0.00197216
0.0022263
-0.00592303
0.00341233
0.00250809
0.00600331
-0.00345412
0.00352984
0.000331742
-0.00386387
0.00109514
-0.00206488
0.000969731
-0.00798276
0.00124523
-0.00691561
0.0084118
-0.00650755
-0.00441602
0.00113655
0.00177626
-0.00291319
-0.000197477
0.000192248
-0.000103559
-0.00150399
-0.00139589
0.0049231
-0.000724781
0.00298621
-0.00468222
-0.00594239
0.00280216
-0.00558142
0.00277719
-0.0014225
0.00199798
0.00334475
0.00616146
-0.00951102
-0.00179728
-0.00313454
0.00487815
-0.0020313
-0.0022521
-0.00579849
-0.00322556
-0.00514271
-0.00675303
0.0011134
0.00157253
-0.00268611
-0.00169022
-0.000543854
0.00219641
0.00189265
-0.00338449
-0.00177892
-0.00477889
0.00292785
0.00901437
0.000432744
-0.00801876
0.00752115
-0.00255282
0.00181725
0.000727007
-0.00525874
0.00188418
0.00324912
-0.000649033
0.00179033
-0.00235331
-0.000209995
0.0106772
-0.00609504
-0.00461311
-0.00711331
0.00330835
-0.00355158
-0.00316623
0.00671268
-0.0102128
0.0032446
0.00692187
0.00205241
-0.0038332
0.00178061
-0.00322827
0.00181139
0.00601476
-0.00924757
0.00319849
-0.0035945
0.00112908
-0.00676964
0.0100309
-0.00334274
0.00368595
-0.00724282
0.00310182
-0.00140812
0.000173473
-0.00361834
0.00676312
-0.00315498
0.0080304
-0.00552324
0.00863244
-0.00661367
-0.00221999
0.0062889
-0.00372783
-0.00284113
-0.00766639
-0.000149192
0.00767916
0.00779419
-0.00381789
0.00295398
-0.00759932
0.00459141
0.00169137
0.00635818
-0.00816952
0.00759773
0.0021602
-0.00987515
-0.00371344
0.00580798
-0.00209811
0.000306231
-0.00809897
0.0077834
0.000294744
-0.00188632
0.00153984
6.99071e-06
4.30023e-05
-0.000855202
0.00373688
0.00572451
-0.00292475
-0.000100209
-0.00756933
0.00358438
0.00705367
0.00202568
0.00168792
-0.00371391
-0.00470407
-0.00315784
0.00785993
-0.000260168
-9.11604e-05
-0.00325885
0.000352252
0.00161623
0.00112756
0.00403756
-0.000831829
-0.00326562
-0.00186027
-2.01104e-05
0.00182144
0.00836141
-0.00612466
-0.0022536
0.00334065
0.00265767
-0.0016164
-0.00575387
-0.00163547
0.00156565
0.00093519
0.00304199
0.00143599
0.00165461
-0.00309066
-0.00967295
0.00282596
0.00695845
-0.00339987
-0.00356565
0.00182307
-0.000650788
0.00467136
-0.00148421
0.00086884
-0.00667207
-0.00155787
0.00935262
0.00336327
-0.00131103
0.00576717
-0.00924728
0.000368943
-0.00158591
0.000372284
-0.00203446
0.00161467
0.0030224
-0.00683112
0.00359537
0.000571672
-0.00229985
0.000176936
-0.00248589
-0.00140355
0.0086517
0.00133164
-0.00858125
0.00718659
0.00409336
-0.00206809
-0.00407725
-0.00107266
0.00510657
-0.00218115
0.00686873
-0.00407238
0.00643714
-0.00278208
-0.00365936
-0.00392779
-0.000813192
0.00470436
0.00935082
-0.00222372
-0.00269648
0.00477916
0.00252192
-0.00316305
0.00707299
0.00135059
0.00292928
0.00404961
-0.00697994
0.00656352
-0.00648399
-0.000252819
-6.412e-05
-0.00192618
0.00162354
-0.00191515
0.00940476
-0.00770332
0.00807064
0.00498706
0.00118221
-0.00635626
0.00125277
0.000228352
-0.0019917
-0.00204934
0.00139338
-0.000914284
0.00571744
0.00253781
-0.00571668
0.00338677
-0.00212541
-0.00126178
0.00166575
-0.00207735
-0.000192174
0.00323004
-0.00467468
0.00144188
-0.000954134
0.0035983
-0.00305639
0.00304621
1.01135e-05
0.00224049
0.00338795
-0.00563668
-0.002141
0.00279445
-0.00225954
-0.000545136
0.000740641
0.00204547
-0.00674515
0.000306301
-0.00498005
0.00101503
-0.00328047
-0.00394834
0.00246077
0.0014872
-0.000524761
0.000573723
0.00746588
0.00233838
-0.00654052
-0.00374563
-0.00301721
0.00675232
0.00703419
-0.00176782
-0.0052775
0.00323431
-0.00262761
-0.000607033
-0.00221965
0.00440274
-0.00218489
-0.00659369
0.0041926
0.00235215
-0.00336402
-0.00786217
0.00997513
-0.00506822
-0.00728581
0.00349114
0.00378932
0.00695017
-0.0040498
-0.00396062
-0.00598435
0.00621659
-0.00196916
-0.00425189
0.00627823
-0.00424468
-0.00339869
0.00149282
0.00190576
0.00123572
-0.00390434
-0.0033863
-0.00213179
-0.00226327
0.00461738
-0.00281871
-0.00207446
0.000946479
0.000837699
-0.00178418
-0.00165739
0.00128819
-0.00202145
0.00213229
-0.00487501
0.00115864
0.00193388
-0.00160588
0.000950812
-0.00184915
-0.00220781
0.00490811
-0.00205653
0.00141713
0.00418502
-0.0069233
0.00273765
0.00600336
0.0023718
-0.0018368
0.00703754
-0.0052307
-0.00591566
0.00383809
0.00203215
-0.00161906
-0.00219902
0.00381766
-0.00239178
-0.00225048
0.00464152
0.00896448
-0.00221
-0.00682084
0.00959012
-0.00704556
0.00524482
0.00152293
-0.00610681
0.0033056
0.0027978
-0.00248452
-0.00612334
0.00859821
0.00168797
0.00602735
-0.00783778
-0.000458462
0.000142937
-0.00233047
0.0100703
0.00638509
0.00205895
-0.00706483
-0.00215406
0.00917492
0.0021792
0.00354842
-0.00573598
-0.000152061
-0.00419002
0.00196867
0.00235122
0.00197761
0.00754019
-0.0114283
0.0037744
0.00637091
0.00163449
-0.00211456
0.000799582
0.00131496
0.00126655
-0.00164557
0.000247771
-0.00295863
-0.00389053
0.00683224
0.00679164
-0.00514875
0.00365748
0.0027746
-0.00436452
0.0015757
0.00278685
-0.00540971
0.00713709
-0.00173503
-0.00157945
0.00307964
0.007881
-0.00698917
-0.000930496
0.00610605
0.00222715
-0.000858309
-0.00151496
0.0029509
0.0011156
0.000707466
-0.00557884
-0.00171794
0.00715706
-0.00737898
-0.00206496
0.00933211
-0.00343613
-0.00318737
-0.00272878
0.00865915
-0.00607552
-0.00157621
0.00254805
-0.000971906
-1.42256e-05
-0.00194854
-0.00689944
-0.00288716
0.00978143
0.00664402
-0.00474559
-0.00251247
0.00105242
0.00146001
0.00160382
-0.00637
0.00203007
-0.00169682
-0.000333247
0.00486608
-0.00596741
0.000986487
0.00229006
-0.00327754
0.000341425
-0.0010068
-0.00688487
0.00219113
0.00462695
-0.00118877
-0.00132372
0.000255549
0.00162699
0.00270365
-0.00254175
-0.000162076
-2.96872e-05
-2.70901e-05
3.70686e-05
-7.96254e-06
0.00111391
-0.00940178
0.00257098
0.000662995
-0.00877608
0.00166682
0.00138413
0.000545781
-0.0020146
-0.0036588
0.00207897
0.00157924
-0.00215612
0.00538336
0.00503286
0.00451407
0.00328259
-0.00105605
0.000242235
0.0017564
-0.00199865
-0.00220084
-0.000855667
-0.000106196
0.00125056
0.000222407
0.00103779
-0.00126019
5.30401e-05
5.93019e-05
-0.000134585
-0.00148783
0.00377483
0.00430521
0.00629665
-0.00214043
-0.00480432
-0.000593155
0.00212342
-0.00155014
9.13991e-05
-0.000101409
0.00411825
0.00209356
0.00206216
0.00583133
-0.00168059
-0.000837176
0.000326445
4.29455e-05
-0.00105032
0.00040403
0.00169369
0.00158874
0.00548633
0.00138604
-0.00706283
-0.00468679
0.00266866
0.0020168
0.0094742
-0.00210463
-0.000573138
0.00187006
0.000138115
-0.000333156
0.00473396
-0.00125098
0.00302477
-0.00252822
-0.000496738
0.00124103
0.00078903
0.00249274
0.00221321
-0.00340704
0.00557821
0.00348279
-0.00239452
-0.00108854
0.00183469
-0.000955159
-0.00172426
-0.00365423
0.00223507
-0.00389676
0.00166139
0.000375033
-0.000907286
-0.0028985
0.00378586
-0.000887916
-0.00835226
0.00548681
0.00271436
-0.00160114
0.00806635
-0.00187064
-0.00995433
0.00775673
-0.000380858
-0.00817668
0.00882091
-0.00470024
-0.00107663
0.00577142
0.000732063
0.00136245
-0.00209457
-0.000281808
0.000496711
-0.000348452
0.00357368
0.00219411
-0.0092992
0.00570245
0.00349847
-1.72454e-06
6.23893e-05
0.00195021
-0.000855077
0.00338481
0.00400915
-0.00739762
0.00813987
-0.00543447
-0.00277701
-0.00226705
-0.00193323
-0.00437831
-0.00203731
-0.00446063
0.00643265
6.67745e-05
-2.2641e-05
0.00103278
0.000917421
0.00910997
-0.00385482
-0.00965476
-0.00160803
0.00154527
0.00381218
0.00426627
-0.00147279
0.002609
-0.000108553
9.44618e-05
-0.0016051
0.00374195
-0.00213768
-0.000234246
-0.000306415
0.000347669
0.000586342
0.00335325
-0.00419361
-0.00386705
-0.00187279
-0.00136607
-0.000809993
0.00162456
-0.000814571
0.00273259
-2.91108e-05
-0.0071193
-0.00216951
0.0092782
0.00156598
-0.00369855
-0.00127922
0.00595443
-0.00400685
-0.00653335
-0.000818432
-0.00129614
0.00289846
-0.00230161
-0.00059698
0.00248884
0.00585513
0.00678625
-0.00598533
-0.00337477
-0.00662206
-0.00064281
0.000249163
0.000557651
-0.00717293
0.006493
-0.000114566
-0.000132343
-0.00450573
0.00206605
0.00243789
0.00575439
-0.00761018
0.0018387
-0.00191594
-0.00148287
-0.00555572
0.00085023
0.00183117
0.00679267
-0.0086316
0.00209223
-0.00448465
-0.0064351
0.00870828
-0.00601707
0.00301379
0.00299787
0.00410794
-0.00218224
-0.000957523
-0.00491553
0.00322309
0.00493226
-0.00819257
-0.000134567
2.07635e-05
0.00381791
-0.00347611
-0.000243421
-0.000576748
0.000123964
-0.000358657
-0.00195851
-0.00399901
0.00119925
-1.65827e-05
-0.00164022
0.00114789
-0.000925487
-0.00305224
0.00580109
-0.00275294
0.000268875
0.00106458
-0.00161557
0.00194111
0.00167668
-0.00065704
0.000271095
0.000771495
0.00165949
-0.00665473
0.004767
-0.00771789
0.00605329
-0.00134366
-0.000712872
0.0015132
-0.00397838
0.00246343
0.00330927
0.00117842
-0.00757974
0.00822537
-0.000714103
0.000600619
-0.00203449
0.0014062
0.00174599
0.00560403
-0.00747554
0.00667928
-0.00673806
2.32329e-05
0.00420329
-0.00438134
0.000172884
-0.00672926
-0.00181032
0.00838254
0.00183723
-0.00104113
-0.000796101
0.00682249
-0.00108959
-0.00574317
-0.00662649
-0.00239107
0.00900891
-0.00112612
0.0044333
0.00798627
-0.00479809
0.00156012
-0.00131789
-0.00687632
0.0050104
4.24968e-05
-0.00078001
0.000523345
-0.00555915
0.00185423
-0.000732557
-0.00292901
-0.00127353
-0.00547539
-0.0014477
0.00181664
0.00298559
-0.00988351
0.00689219
0.000812954
-0.00454945
-0.00768938
0.00148706
0.0073104
-0.00874863
-0.0022189
0.00123713
-0.00447494
0.00322879
-0.00519909
0.00777842
-0.0011402
0.00331497
-0.00628934
-0.00287185
0.00239053
0.00813802
-0.00210689
0.00407812
0.00182299
-0.00487865
-0.00187239
0.00928397
-0.000182437
-0.00548995
0.000566903
-0.000735765
-0.00159123
0.00578676
0.00775535
-0.0014335
0.00153126
-0.00764252
0.00608655
-0.00706358
0.00457842
0.00243698
-0.00132224
0.00194631
-0.000624071
0.000267726
-0.000416429
0.000143646
-0.00684835
0.0098284
-0.000446763
0.00720068
-0.00975546
0.00682341
0.00291208
-0.0063969
0.00489248
0.00149186
0.0024985
0.000399825
0.000264616
-0.000698805
-0.00438008
0.00186826
0.00251048
0.000578133
0.00244647
0.000202214
-0.00015403
-4.81299e-05
0.0090575
-0.00647662
-0.00272883
-0.00564023
-0.000163275
0.000913694
0.00917759
-0.00475003
-0.0046055
-0.000562318
-0.00849659
0.00894777
-0.00295081
0.0088564
-0.0059297
-0.0049306
0.00373507
0.000998069
-0.00371282
-0.00432865
-0.00120821
0.00536008
0.0030057
-0.00114556
-0.00186026
0.00581762
-0.00301554
0.00130554
-0.00505982
0.00184007
-0.00327073
-0.00696091
0.0033815
-0.00239602
0.00763037
-0.00265486
0.00152714
-0.00183222
0.000194609
-0.00254623
0.00405759
-0.00292404
-0.00211686
0.00503873
-0.00292978
0.00474945
0.00163333
0.00414647
-0.00589829
0.00499955
0.00157453
-0.00525581
0.00571241
-0.00162691
0.00881167
-0.00281499
0.00172742
0.00497278
-0.0067848
-0.00291325
0.00518743
0.00130233
-0.00818392
0.00147369
0.00534462
-0.00697372
0.00396673
-0.000261471
0.00359785
-0.0066798
-0.0019253
0.00858244
-0.00717387
0.00246826
0.00481161
0.00359362
-0.000981591
0.00583544
-0.00647724
-0.00147664
-0.00882551
-0.0031027
0.00132719
0.00177525
0.00465212
-0.00685326
0.00133091
-0.00798899
0.00661594
0.000317783
-0.000372855
-0.000358981
-0.00042029
0.000629605
0.00750132
0.00122286
-0.00879944
0.00189726
0.00588061
-0.0078002
-0.00699983
0.00158349
-0.00404704
0.0055651
-0.000572256
0.00194485
-0.00138249
-0.00758008
0.00946331
-0.00197146
-0.00340703
0.00770689
-0.00657126
-0.00323073
0.00546347
-0.00157554
0.000297202
-0.00351235
0.00229194
-0.00152366
-0.00154702
0.00307052
-0.00865124
0.00194996
-7.61542e-05
0.000283877
-0.0018548
0.00155884
-0.00459464
0.00812189
-0.00355782
0.00119337
-0.0077436
0.0058433
-0.00628003
0.00911713
-0.00285596
-0.0105792
0.00757638
0.00294558
-0.00184489
-0.00488481
0.00659725
0.00279156
0.00611332
0.00214976
-0.000628212
-0.00152157
-0.00409313
-0.00224557
0.00632984
-0.00876876
0.00163908
0.00421077
-0.00737043
0.00426259
0.00472449
-0.00478632
0.00185319
-9.9478e-06
7.73142e-05
-0.00565946
-0.00208878
0.00770096
0.00261228
-0.00869226
0.00606922
-5.2182e-05
-6.02848e-05
0.00315792
-0.00222821
0.00695373
-0.00474301
-0.00892393
0.00262602
-0.00155437
0.00389191
0.0101699
-0.00761549
-0.00257418
0.00313373
0.000443129
-0.00368827
0.000794344
-0.00015997
-0.000786584
-0.00294273
-0.00298261
-0.00578622
-0.00770302
-0.00169351
0.00930467
-0.00886311
0.00653207
0.00229364
-0.00711666
-0.00199951
0.00900305
-0.00431148
0.000464466
0.00258088
0.00861113
-0.00422948
-0.00438666
0.00701654
-0.00895303
-0.00129831
0.00171054
-0.000412235
0.000805454
0.00202405
0.00692366
-0.00896426
-0.00216469
-0.00373921
0.00666747
-0.00145673
-0.010008
0.00791654
-0.0039657
-0.00031451
0.00404045
-0.00194672
-0.00418264
0.00606648
0.0108756
-0.00443154
-0.00656991
0.00794989
-0.00626236
-0.00172723
-0.00130687
-0.00569217
0.00130756
0.00583518
-0.00730105
0.00615189
-0.00585263
-0.00934361
-0.00271868
0.00117111
0.00154744
0.00640634
0.00235441
0.00556577
-0.00369262
-0.00187837
-0.00328645
0.00559231
-0.00230864
0.0017934
0.00517179
-0.00709131
-0.00285386
-0.00477877
0.00204104
-0.00666372
-0.00242993
0.00746662
-0.0051013
0.00705808
-0.00339008
-0.00367979
-0.00216675
0.00158531
0.00204107
-0.000886156
-0.0023972
-0.00211
0.000483803
-0.00166378
0.00116929
-0.00737792
0.00560612
-0.00628126
0.00821851
0.000565469
0.00806593
0.00213961
-0.00980626
0.00338534
-0.00410299
-0.000328567
0.00419552
0.00711999
0.00585193
0.00202243
0.00325465
-0.00114959
-0.00210905
0.00301919
-0.010036
0.00698095
-0.00898027
0.00622616
0.00259826
-0.00209095
0.00269343
-0.00733206
-0.00494844
0.000600465
0.00318736
-0.00171355
0.00668394
-0.00985339
0.00312943
-0.00360229
0.00124279
0.00422902
-0.00564006
0.00410031
-0.00205828
0.000525563
0.00150062
-0.00759309
0.00964797
-0.00103907
-0.00102581
1.50884e-05
0.000629929
-0.00599573
-0.001527
0.00363464
-0.00169437
0.000954704
-0.000598689
-0.00148691
0.00218527
0.00752141
-0.00972273
-0.00160259
-0.00150034
-0.00215764
-0.00355325
0.00565209
-0.0111301
0.00852906
0.00254106
-0.00929205
-0.00110256
0.0082018
-0.00747082
-0.000987869
-0.00180991
-0.00184937
0.00480239
0.00292883
-0.00780434
-0.00107264
0.00201911
0.0063263
-0.00899412
0.00282599
-0.00534506
0.00251834
-0.00608496
-0.00129635
0.0016742
-0.000417023
-0.00100399
-0.00136039
0.00120467
-0.000484799
-6.88978e-05
0.000331485
0.00140023
0.000826897
0.00942334
-0.00272109
-0.00674563
0.000618495
-0.00496197
0.00410271
0.00768537
0.00226495
-0.00996378
-0.00534773
-0.0062102
0.00419845
-0.0023001
-0.00267677
0.00865634
-0.00215846
0.00284653
0.0041043
-0.00260223
0.00391922
-0.00131791
-0.00330784
-0.00392595
0.00722335
0.00181524
-0.000687601
-0.00112764
0.00251807
-0.00933782
0.00676325
-0.00240439
-0.00779747
-0.000432762
0.00801552
0.000695285
-0.00171876
0.00102347
0.00098909
0.00822522
-0.00762767
-0.000656071
0.00210799
-0.00161484
0.00716831
-0.00530986
-0.00192998
0.000556977
0.00151734
-0.00167918
0.00398537
-0.00237285
-0.00178027
-0.00374087
0.0054414
-0.00905631
0.00653268
0.00235542
-0.00360438
0.0058556
-0.00225961
-0.000187466
0.00160671
0.00658708
0.00279214
0.00397783
-0.00243517
-0.00154378
0.0034202
-0.00149697
-0.00192332
0.00140763
-0.00293144
0.00182701
0.00180673
-0.00733623
0.00109582
-0.00211149
-0.0010301
-0.00713706
0.007956
0.00311144
-0.00178452
0.005999
-0.00849333
0.0007608
0.00313898
-0.000989116
-0.00221137
-0.00453594
0.0025366
-0.00117189
-0.00188844
-0.00689331
-0.00262134
0.00942085
0.00232503
0.00075152
-0.00174849
0.00228321
-0.00612437
0.00795433
-0.00205605
-0.00305842
-0.00296374
0.00477073
-0.00439318
0.001136
0.000555292
-0.00169129
-0.00185262
-0.00533869
-0.00139118
0.0065332
0.00145354
0.000696195
-0.000447878
-0.00755224
-0.00613565
0.00588087
0.00773248
-0.00201673
0.00200705
-0.000974281
-0.00654201
0.00263319
0.000228968
-8.03635e-05
-0.000216454
0.00453046
-0.0058304
0.00719709
-0.00149125
-0.0017445
0.00288852
-0.001125
-0.00176362
-0.00628411
0.0074534
-0.00378976
-0.00366593
-0.00697964
0.000948487
-0.00477857
-0.00416078
0.0072406
-0.00240114
-0.00284309
0.00517657
-0.00752213
0.00307222
0.00759442
0.00255282
0.00647264
0.00138476
0.00102701
0.000807676
0.00748707
0.000188639
-0.00771625
-0.000347602
-0.000850306
-0.00392321
-0.00725563
0.000635317
0.00653455
-0.00736901
0.00600173
-0.00352953
0.00196066
0.00156827
-0.00529444
0.00287096
-0.000892686
0.00663006
0.000690008
0.00116421
-0.000792707
0.0019287
0.010005
-0.00243457
-0.00154584
-0.00198427
-0.0035512
0.00546866
-0.00182329
0.0011279
0.000695384
-0.002743
0.00476479
0.00254557
-0.0040505
0.00150462
-0.00261596
-0.00558974
0.00196177
-0.00393447
-0.00303641
0.0069379
0.000111033
0.00395591
-0.00406759
-0.0024959
0.00105346
0.00144237
0.000504582
-0.0020602
0.00153069
0.00914605
0.000320903
-0.00164429
-0.00536939
0.0065347
-0.00241698
-0.00228988
0.00924208
0.00716711
-0.002436
-0.00302356
0.00504308
-0.00202095
0.00149205
-0.00125132
-0.000240726
-0.00521248
-0.00210987
0.000942033
-0.00189719
2.28872e-05
-7.06978e-05
-0.00242714
0.000337713
0.00203243
0.00301763
0.00135132
0.0010279
-0.00237927
0.00671359
0.00119598
7.96013e-05
-4.87426e-05
0.0046147
0.00208168
-0.00753118
0.00898358
-0.00156931
-0.00615085
0.0059374
-0.00891328
0.00981915
-0.0067352
-0.00310813
0.00783174
0.00289961
0.00927595
-0.00160938
0.0020894
0.00371192
-0.00477942
0.00104047
0.00860131
0.00808496
-0.00064056
0.000798362
-0.00192044
0.00112208
0.000368526
-0.00801066
0.00858568
-0.00223147
0.00201616
4.37153e-05
-0.00207535
0.000970997
0.00221415
-0.000408819
-0.00203524
0.00216078
-0.00830213
-0.00791368
0.00841364
-0.000553719
0.000376643
-0.00738268
0.00142937
-0.002056
0.00181607
-0.00255062
-0.00455555
0.00150275
-0.00923193
0.00765213
-0.00472755
0.00260192
0.00212375
0.00119088
-0.00794723
1.10914e-07
0.000200816
-0.00356529
0.00450937
-0.000945454
0.00208877
0.00129756
0.00438957
-0.00252259
0.00164201
-0.0038744
0.00223184
0.00459202
-0.00336374
0.00226152
0.00183145
0.00146866
-0.001936
0.000467332
0.000220447
-0.000890076
-0.00226885
-0.00180122
-0.000676079
0.00547553
-0.00217335
0.00281371
-0.00467458
-0.00245587
-0.00624428
0.00635178
-0.00143048
-0.00493545
-0.00450221
0.00663184
-0.001901
-0.00473727
0.00662376
-0.00627478
-0.00628391
0.00948534
-0.00229675
-0.00153661
-0.00350202
0.00582308
-0.00232669
-0.00496666
0.00204061
0.00121832
0.00224452
-0.00346304
-0.000711201
0.00344579
-0.00139041
-0.0020559
-0.00569417
0.00260321
-0.0095873
0.00738402
-0.00800295
0.000575796
-0.000644112
0.00432732
0.00044499
0.00128853
-0.00177066
-0.00387741
-0.00122261
0.00492845
0.00251406
-0.00114689
-0.00134907
0.00124353
0.00403943
-0.00551378
-0.0091436
0.00638092
-0.00570073
-0.00681774
-0.00947625
0.00521469
0.00417729
-0.00212071
0.00553032
-0.0015762
0.00347871
-0.00190335
-0.0071915
-0.0073401
0.00162406
0.00324382
0.00536074
0.00207802
-7.60311e-05
0.00297574
0.00660561
0.00121632
0.000598903
0.00887583
-0.00704444
-0.00189537
-0.00842756
0.00613861
0.00205645
-0.00422668
0.00696347
-0.00500978
-0.00294042
-0.00624267
-0.000580668
0.00204931
-0.00102492
-0.00337917
0.0088224
-0.00547172
-0.00250301
-0.00297952
0.00547909
-0.00308474
0.00832679
-0.00526451
-4.40298e-05
-0.00140367
0.00722528
-0.00321997
0.00168685
0.00533676
0.00276619
-0.00102789
-0.00178602