/*--------------------------------*- C++ -*----------------------------------*\
| =========                 |                                                 |
| \\      /  F ield         | OpenFOAM: The Open Source CFD Toolbox           |
|  \\    /   O peration     | Version:  v2012                                 |
|   \\  /    A nd           | Website:  www.openfoam.com                      |
|    \\/     M anipulation  |                                                 |
\*---------------------------------------------------------------------------*/
FoamFile
{
    version     2.0;
    format      ascii;
    class       surfaceScalarField;
    location    "1000";
    object      phi;
}
// * * * * * * * * * * * * * * * * * * * * * * * * * * * * * * * * * * * * * //

dimensions      [0 3 -1 0 0 0 0];
oriented        oriented;


internalField   nonuniform List<scalar> 
20642
(
-0.0391718
0.047308
-0.00813618
0.299258
-0.0556697
-0.243571
-0.106005
0.0901024
0.0159026
-0.353934
0.147366
0.206611
0.360922
0.0548074
-0.415697
-0.0529696
0.352251
-0.221935
0.0175866
0.204361
-0.01671
0.26291
-0.24619
-0.249205
0.220801
0.0284152
0.00409807
0.00159378
-0.271978
0.255282
0.221719
0.142163
-0.363806
0.599466
-0.598752
0.211184
-0.0672488
-0.143931
0.29318
0.0534075
-0.346554
-0.046996
0.00782421
0.585045
-0.589803
0.00487426
0.0645747
-0.294359
0.2298
-0.0344553
-0.0769545
0.111411
-0.00529293
0.0487858
-0.0434928
-0.086862
-0.193336
0.28021
0.634048
-0.38413
-0.249828
0.197932
-0.146335
-0.0515944
0.355225
0.278923
-0.0593432
-0.183633
0.243003
0.0701533
-0.269819
0.199682
0.0272394
-0.182053
0.154814
0.00409807
0.101225
-0.298107
0.196893
-0.685518
0.400287
0.285237
0.00366232
0.000435757
0.0163624
-0.102912
0.086551
0.0519269
0.250413
-0.302294
-0.00214763
0.050724
-0.0485764
-0.666639
0.478619
0.188108
0.417389
-0.154473
0.264519
-0.36857
0.104086
0.619395
-0.099648
-0.519298
-0.0182675
-0.203657
0.2312
-0.00321675
-0.227973
-0.770391
0.602862
0.167597
0.403964
0.139531
-0.543435
-0.129435
0.25135
-0.121895
0.122088
-0.109241
-0.0128468
0.0111426
0.110946
0.177069
-0.0815795
-0.0954888
0.227729
-0.314573
-0.00278684
-0.0382411
0.041028
0.366863
-0.232226
-0.134633
-0.416795
-0.249774
0.349131
-0.127329
-0.152146
0.0501075
0.102039
0.0300318
-0.00111915
-0.0289126
-0.305205
-0.101499
0.406797
0.0236852
0.356485
-0.38008
-0.0844105
-0.0677341
0.00366232
0.167537
0.0303983
-0.155096
0.559122
0.0609575
0.116113
-0.0567191
0.117954
-0.0612352
0.574326
-0.513187
-0.061097
0.472054
-0.614997
0.142954
-0.266941
0.207628
-0.0808984
0.0762335
0.00466493
0.148899
0.450384
-0.599282
-0.299173
0.0901297
0.209055
0.175948
0.241447
-0.207388
-0.00395453
0.0372506
-0.0332961
-0.113746
0.0738204
0.0399257
0.034152
-0.0362996
-0.267775
-0.135485
0.403358
0.382928
-0.537954
0.0800706
-0.273394
-0.0621433
-0.178761
0.24093
0.411406
-0.0896307
-0.321736
-0.164453
0.547448
-0.265153
0.203035
0.241067
-0.189109
-0.373662
0.449277
-0.0755435
-0.605519
0.578375
0.0273127
-0.422967
0.155308
0.0179487
0.0662755
-0.0842241
-0.236418
-0.297349
0.534187
0.0161642
-0.223173
0.207018
-0.0969149
0.113279
-0.639068
0.60763
0.0320006
-0.0291596
0.26037
0.482584
0.10256
-0.580969
0.405741
0.175331
0.121373
0.222101
0.144766
-0.619986
0.214379
0.405697
-0.417972
0.281325
0.136716
-0.197938
-0.00614879
-0.166971
0.173122
0.589992
-0.589351
-0.000416055
-0.135446
-0.503184
-0.160304
-0.0836971
0.244006
0.527333
-0.53221
0.00491179
0.543095
-0.0157372
0.0124385
-0.386043
0.520699
-0.593274
0.0727984
-0.0234475
0.434909
-0.0837954
0.0768355
0.00695999
0.0642826
-0.0806369
0.0163543
0.418946
0.155432
0.536355
-0.396782
0.155133
-0.127893
0.532327
0.0760847
-0.00559154
0.0563156
-0.113653
-0.184445
-0.0696444
-0.0112539
0.391307
-0.17857
-0.212714
0.0954606
-0.129915
0.419089
0.16201
-0.581019
0.107064
-0.0863569
-0.0207064
-0.46668
0.284106
0.182687
-0.0940678
-0.511291
0.171598
-0.576809
0.405302
0.285724
-0.195582
-0.128557
0.13837
-0.00981183
-0.0331947
-0.00295779
0.0361525
0.0544192
-0.0364705
0.082973
-0.273329
0.190385
0.265308
-0.185224
-0.418391
0.556773
-0.138262
-0.0986998
-0.029856
-0.063476
0.159561
-0.0960805
0.186795
-0.0581957
-0.128598
-0.0158706
-0.045538
0.0614086
0.175873
0.215461
-0.0734396
0.123462
-0.0500218
0.0321504
0.122985
0.0439284
-0.114356
0.0704276
0.0306773
-0.02824
-0.00243727
0.0543725
-0.256085
0.201726
0.619864
0.353563
-0.029542
-0.324022
-0.5586
0.394226
-0.0630596
-0.0207357
-0.541493
0.24903
0.292591
-0.161144
-0.225915
0.387165
-0.377906
0.572326
-0.19437
-0.0576325
-0.0561134
-0.102866
0.0505
-0.0356938
-0.0148062
-0.463998
0.158894
-0.197269
-0.031626
0.228906
0.56921
-0.696771
0.127594
0.241127
-0.402155
-0.133508
0.127362
-0.148198
-0.323111
0.471379
0.542579
-0.0216756
0.0403491
-0.0567404
0.0163913
-0.613607
0.606508
0.00717318
0.568911
-0.149754
-0.185081
-0.323884
0.509256
0.111511
-0.0782562
-0.0332544
0.0743627
-0.318505
0.244168
0.352171
0.102212
-0.0760235
-0.0261885
0.0157395
-0.195105
0.179368
0.0300318
-0.0533204
-0.0198716
0.073192
-0.375999
-0.225404
0.601404
0.252704
-0.198325
0.0444022
0.319743
-0.364051
0.0705318
-0.0628181
-0.00771373
-0.0773075
-0.0746569
-0.0414699
0.116127
0.187484
-0.1007
-0.0867818
0.600028
-0.106073
-0.493909
-0.139867
-0.214028
-0.151892
0.0234322
0.128461
-0.196131
0.132661
-0.231188
0.305581
-0.159673
-0.0916418
0.251335
0.399734
0.24391
0.10529
0.146913
-0.0722372
-0.0746749
0.0993455
0.00771854
0.162768
0.0240286
-0.112134
0.356124
0.0498893
0.097024
-0.388594
-0.296919
0.25232
-0.236149
0.135334
0.0521523
0.12219
-0.111046
0.0151092
-0.114634
0.0995258
-0.0450607
0.00337956
0.0416812
-0.261502
-0.358417
0.0390725
-0.00475136
-0.0343211
-0.274412
0.112771
0.161656
0.0481114
-0.063982
0.512358
-0.0336517
0.346431
-0.494556
0.288938
-0.240062
-0.0488591
0.0328361
-0.0368974
0.00406132
0.0316135
-0.000936215
-0.0945407
-0.230747
0.325334
0.180409
-0.0300487
-0.150359
-0.273447
0.317436
-0.04397
-0.226419
-0.386923
-0.101784
0.302833
0.146516
-0.422782
-0.125126
0.548072
-0.0237923
0.326111
-0.30229
0.290562
-0.314319
0.0122589
0.0451606
-0.118599
-0.185921
-0.0859331
0.0789901
0.00694314
0.636519
-0.253453
-0.382575
0.725803
-0.411262
-0.314473
0.346788
0.37908
-0.0632775
-0.0135137
-0.105803
0.119317
-0.141954
0.0444079
0.097547
0.364381
0.186693
-0.550599
0.557814
-0.0857523
-0.113102
0.145255
0.0379533
0.122776
0.324942
-0.447641
-0.376065
0.498927
-0.313673
-0.456666
0.730314
-0.383456
0.314803
0.415584
-0.0170609
0.0512129
-0.0667059
0.0668912
-0.000185225
0.0992445
0.293561
-0.392757
0.478645
0.0877365
-0.566376
-0.110206
0.148499
-0.0382914
-0.0431118
0.0033317
0.0397801
0.0132003
-0.513406
0.500288
0.527956
-0.163065
0.165135
0.015274
0.0791267
-0.0596802
-0.0194465
-0.0857502
-0.0705906
-0.0153425
-0.150988
0.127592
0.0233981
-0.348772
-0.192606
-0.0970872
0.0772157
-0.160015
0.0498114
-0.261912
0.148262
0.00250327
0.11643
-0.118932
0.229122
-0.323625
-0.054447
-0.469706
0.214279
0.255517
0.0548327
0.0972066
-0.152034
-0.0412175
-0.133662
0.174882
-0.00151518
-0.346836
0.348413
0.60292
-0.183942
-0.314506
-0.129275
0.44382
0.372382
-0.56531
0.193003
-0.00599621
0.0391475
-0.0331513
0.0831302
-0.19317
0.110043
0.178931
-0.571566
0.392727
-0.666594
0.290621
-0.466368
0.143327
-0.278805
-0.3877
-0.1855
0.0637494
0.536428
-0.0248154
-0.158157
0.182978
0.587011
-0.407999
0.0042221
0.0242157
0.0706163
-0.00633363
0.0906492
-0.408696
0.318196
0.299528
0.135396
-0.434888
-0.164659
0.125801
0.038859
-0.741628
0.30893
0.432752
0.274279
-0.107284
-0.166989
0.0353047
-0.0413009
-0.347396
-0.394181
0.0336109
-0.0375654
0.579477
-0.20702
0.00555876
0.105952
0.602944
-0.0028657
-0.299744
0.39708
-0.0973079
0.292292
-0.293752
-0.32353
0.522864
-0.199163
0.109281
-0.0102553
-0.0990248
0.548266
-0.58718
0.0392867
0.182012
-0.166271
-0.278932
0.0953763
0.183566
-0.533597
0.155746
-0.210661
0.19945
0.0112135
0.0277725
-0.438191
0.451463
0.154953
-0.014045
-0.140905
-0.322142
0.459645
-0.137458
-0.360008
0.16239
0.197643
0.491824
-0.130862
-0.0822073
-0.182925
-0.601529
0.220258
0.381354
0.0508677
0.497773
0.154439
-0.00304664
-0.151391
-0.50842
0.168721
0.339724
-0.133076
0.187915
-0.251588
0.169405
-0.359193
-0.173849
0.533468
0.0589993
-0.0186502
0.0400241
-0.00718802
-0.420537
0.558533
-0.137872
-0.63684
0.189034
0.447825
-0.184112
-0.288295
0.427436
-0.139135
0.0889067
0.0191862
-0.108092
0.0328923
-0.0749137
0.0420214
-0.102715
0.0280587
0.495312
-0.608464
0.113154
-0.203351
0.145157
-0.132439
0.432007
-0.014963
0.0812386
0.158335
-0.446621
-0.0659278
-0.0400766
-0.204718
-0.39346
-0.0651966
0.358411
-0.0169172
0.517693
-0.174201
-0.343418
-0.263783
0.20813
0.0105558
0.111635
-0.48855
0.570301
-0.0816353
0.0172735
0.0532583
-0.364085
-0.248368
0.612936
0.129276
0.0342768
-0.647517
0.444369
0.203185
0.0294417
-0.0347346
-0.392829
0.559688
-0.166638
-0.000778323
0.153207
-0.152424
-0.0189932
-0.254436
0.663108
-0.167794
0.188679
-0.677105
0.127078
-0.110023
-0.0170541
-0.0579435
-0.0150125
0.0729561
-0.494068
0.204693
0.28945
0.196857
0.32091
-0.0554055
0.049814
-0.0501277
0.0728749
-0.0227472
0.146413
-0.0761764
-0.0702361
0.0306995
0.180489
-0.703476
0.356147
0.112593
0.292256
-0.404774
0.0776816
-0.0589722
-0.0187094
-0.102543
-0.100806
-0.325467
-0.377937
0.169733
-0.197773
-0.185267
0.383107
-0.010285
0.220121
-0.209828
-0.133849
0.0254659
-0.130627
0.105162
0.00548012
0.153406
-0.158884
0.0686895
0.205596
-0.150061
0.155137
-0.00507353
0.0462207
0.00175698
-0.0479776
0.111666
-0.529944
-0.272396
-0.221598
0.318392
-0.263563
0.117426
-0.0929554
-0.0244706
0.614973
-0.0560264
-0.558854
0.00224723
-0.14227
-0.00778834
-0.370218
-0.0321824
0.300154
-0.276395
0.177812
-0.0302162
-0.147593
-0.445863
-0.190959
-0.341107
0.214728
0.126385
0.536249
-0.396745
-0.139479
-0.0920644
-0.103701
0.283023
-0.302006
0.371402
-0.280624
-0.0933387
0.0800664
0.0132724
-0.424573
0.626307
-0.201701
0.0773179
0.0248944
-0.0906929
0.128669
0.407617
-0.119001
-0.491249
0.228611
0.2627
0.345973
0.211947
-0.557913
0.140383
-0.55776
0.417494
0.0522497
-0.00346392
-0.120377
0.466358
-0.0110255
0.235843
-0.224784
0.0231324
-0.136233
0.238688
-0.246917
0.00823529
0.112104
-0.350609
0.238552
-0.12261
0.0352057
0.0874044
0.0221773
0.0672568
0.234508
0.061603
-0.296078
0.0140942
0.0951871
-0.29973
-0.0996406
0.399454
0.21253
0.026165
-0.00752026
0.0976229
-0.499129
-0.194707
0.016581
0.178136
-0.0989095
-0.15266
-0.128037
-0.440462
0.568691
0.116147
0.340387
-0.456243
0.230025
-0.589333
0.359418
-0.0279331
-0.167169
0.45422
-0.119698
-0.334471
-0.574968
0.4288
0.146269
0.354679
-0.484909
0.13034
-0.133043
-0.0324867
0.165533
-0.366214
0.17546
0.190762
-0.756888
0.328544
0.42839
-0.6718
0.295807
0.104603
-0.0156961
-0.000661965
0.178476
-0.494272
0.170892
-0.279736
0.268749
0.113785
-0.104491
-0.00929345
-0.112467
0.144173
-0.0317035
-0.409528
0.55843
0.0446506
-0.121604
0.0621671
-0.07713
0.264724
-0.51596
0.251289
0.336467
-0.702452
0.366037
-0.0767748
-0.212093
0.288886
-0.349489
0.465932
-0.420375
-0.247554
-0.357067
-0.345341
0.515496
-0.250719
-0.0838235
0.0697713
0.0140522
0.0993226
-0.398975
-0.0336328
0.208719
-0.17508
-0.00686439
0.0310801
-0.0215573
0.176513
-0.551695
0.129076
0.399297
-0.158052
-0.0234196
-0.0991901
0.215549
0.0734079
-0.0361801
0.0029854
-0.706216
0.271317
0.434941
0.527329
-0.20176
-0.325357
-0.59625
0.171709
0.661284
-0.346423
0.3323
-0.0677474
-0.491346
0.209432
0.281974
-0.0146786
0.128464
-0.436668
0.548907
-0.112196
0.0160672
0.183093
0.344463
-0.00220312
-0.133181
0.135389
-0.404217
0.570419
-0.166167
-0.107595
0.410488
-0.12142
-0.0295669
0.0986128
0.0478001
0.163798
-0.361501
-0.13284
0.0785565
0.0542843
0.341592
0.216616
-0.558049
-0.632195
0.202664
0.429903
0.483222
-0.12844
-0.287957
-0.203229
0.423359
-0.556761
0.133575
0.439375
-0.622268
0.183426
0.0134613
-0.0981887
0.574292
-0.150763
-0.16396
-0.0466998
-0.0227559
-0.0795161
0.102272
0.361471
0.211819
-0.572688
0.147787
0.029073
-0.176857
0.123642
-0.00302366
0.0754603
0.00560836
-0.0810685
-0.216882
0.187642
0.0292484
0.0267078
-0.300979
-0.221664
0.522652
-0.544891
0.243918
-0.262682
-0.158078
0.142113
-0.546292
0.341272
0.0105978
0.0923498
-0.102947
-0.41459
-0.166283
0.296462
-0.397869
-0.213221
0.212197
-0.173163
-0.0390233
-0.0867664
0.259478
-0.1727
-0.0789842
-0.0216602
0.100645
0.132294
-0.0230915
-0.1092
0.0974334
0.352829
-0.450237
0.434878
-0.299445
-0.0672682
-0.227078
-0.00969238
-0.169633
0.179331
0.104671
0.349599
-0.150842
0.0835957
0.0750441
-0.15801
0.0829708
-0.0981701
-0.180751
0.0273461
-0.105196
0.0778497
-0.484362
0.140374
-0.15006
0.131421
-0.107987
0.133904
0.333444
-0.46707
-0.0546094
0.0466926
0.00791684
-0.271933
-0.359953
0.398045
0.263293
0.0316408
-0.164681
-0.310494
-0.395683
0.505548
0.131465
0.160864
-0.00642348
0.0175036
0.0353263
-0.112077
-0.00206784
0.114146
0.300936
-0.485719
0.282798
-0.0880811
-0.194687
0.130022
0.362913
-0.492904
0.123747
-0.103537
-0.02021
-0.122472
0.131142
-0.00866937
0.251189
-0.404881
0.153757
-0.107417
0.161248
0.32062
-0.481586
0.000724061
0.150686
-0.151407
0.403248
-0.349285
-0.0539562
-0.548903
0.404917
0.144099
0.0791523
0.53592
0.469671
-0.123166
0.366965
-0.494824
0.467781
-0.441793
-0.0259543
-0.201906
0.168313
0.0336015
0.594524
0.0201391
0.112156
-0.348566
0.482756
0.383827
0.0449455
-0.428669
0.159384
-0.258266
-0.000342767
0.0553851
-0.0550423
-0.506075
-0.0175256
0.523721
0.269685
-0.191605
-0.0780629
-0.178137
-0.387099
0.151278
-0.153476
0.0503444
-0.179298
0.128955
-0.189501
-0.0786646
0.268175
-0.141915
-0.188234
-0.173861
-0.164883
0.338788
0.218469
-0.0151423
0.0632537
-0.0628042
-0.0210192
0.0271742
-0.0340386
-0.432178
0.569519
-0.137213
-0.353696
0.484665
-0.130864
-0.342866
0.440317
0.419911
-0.142939
-0.276825
0.0835152
-0.0184803
-0.0650348
0.647403
-0.338424
-0.261236
0.371741
-0.110502
-0.0704295
-0.203967
0.00672182
-0.064011
0.0572892
-0.190977
0.0916949
0.00386343
-0.00173298
-0.00213045
0.4228
0.151664
0.144919
-0.0874674
-0.0574504
0.52275
0.067464
0.158441
-0.591214
0.432824
-0.0372743
0.0439962
-0.740052
0.429604
-0.0600203
-0.0208058
0.0808263
0.61841
-0.563489
-0.0549053
0.496115
-0.134096
0.12963
0.0270984
-0.106082
-0.00432386
0.472142
0.424421
-0.512464
0.0881191
0.0137198
0.0932179
-0.106937
0.145837
0.00195271
0.430174
-0.363667
0.0113698
-0.0690022
-0.066555
0.0407453
0.0258098
-0.0230915
0.0985519
-0.520578
0.0146171
0.0461241
-0.0304127
-0.0157114
0.587681
-0.481235
-0.106427
-0.0768613
-0.0374944
-0.398868
0.296008
0.551086
-0.3926
0.596887
-0.189278
-0.40759
0.314024
0.229097
-0.092057
0.167106
-0.246941
0.155319
-0.411462
-0.209469
-0.379703
-0.760698
0.292188
0.469098
0.0785688
-0.0671988
-0.430662
0.432606
-0.00175316
0.00543879
0.109564
-0.115001
-0.114544
0.411096
0.52244
-0.0979377
-0.491018
-0.12252
0.0330651
-0.114644
-0.0723566
-0.0285639
0.100921
-0.018047
0.0219105
0.13003
-0.127525
-0.157902
-0.0439966
0.000377164
0.0879821
-0.0883589
-0.00724094
-0.0358709
0.546064
-0.405577
-0.0941714
-0.0172528
0.111425
-0.448118
-0.312019
-0.0853828
-0.0253431
0.110726
0.133264
0.286786
-0.0213902
-0.0719483
-0.139153
0.506299
-0.190191
-0.251569
-0.365127
0.139305
0.056412
-0.162528
0.181328
-0.0187939
-0.0869712
0.0709835
0.0159877
-0.624604
0.0879291
0.536795
0.152514
-0.177324
0.116261
0.335381
-0.451573
0.483148
-0.1691
-0.00315551
0.0493762
-0.221789
0.211424
0.0103679
-0.0663515
-0.357395
0.423802
-0.0992806
0.124747
0.169136
0.570075
-0.419258
-0.150759
-0.0145495
0.583786
0.0496143
-0.0527698
-0.0862016
-0.344231
0.145181
0.380627
0.266818
-0.418515
0.352206
0.0885863
0.0288405
-0.388066
-0.308674
0.130299
-0.0275476
-0.102751
-0.58031
0.551043
0.0294413
-0.598945
0.450036
0.149161
0.0410932
-0.0914747
0.410169
0.020607
-0.00156983
-0.0190372
0.0122755
-0.0722956
-0.231693
0.342261
-0.110557
0.105911
0.0255101
0.552155
-0.129178
0.310188
-0.25675
-0.046803
0.0464603
0.0268758
0.0427702
-0.0696459
-0.287773
0.211017
-0.172366
-0.196175
-0.393835
0.203678
-0.20929
-0.370876
0.567107
-0.308073
-0.258926
0.534468
-0.421314
0.0364612
-0.155192
0.118733
0.186212
0.0363566
-0.222552
-0.0751457
0.102492
0.0260718
-0.188595
-0.366933
0.227302
0.139639
-0.129459
0.00698809
-0.272929
-0.235464
0.013223
0.155023
-0.168241
-0.0221206
-0.0925129
0.0369426
-0.38707
0.523391
-0.316374
-0.206979
-0.0589617
0.593429
-0.22741
-0.371293
-0.438863
0.344914
0.501364
0.105218
0.463983
-0.333946
0.4069
-0.595855
0.189425
0.0204247
0.0256995
0.180559
-0.0474194
-0.133135
-0.634284
0.45555
0.179
0.117952
-0.107396
-0.228211
-0.396297
0.0699622
-0.0370698
0.182405
0.397146
0.150878
0.406006
-0.0320507
0.0495543
-0.173791
0.0658863
0.107907
0.347299
-0.46361
-0.20601
-0.12962
0.335698
-0.603295
0.185307
0.418013
-0.558953
0.413689
0.145379
0.174558
0.0987185
-0.273242
0.171097
-0.00515938
-0.165933
-0.366625
0.50698
-0.140207
-0.00366994
0.0297253
-0.0260554
-0.08788
0.220306
-0.132414
-0.384112
0.396712
-0.0125943
0.458861
-0.111562
0.223973
0.299449
-0.046696
-0.019859
0.0917163
0.19111
-0.653904
0.269802
0.384287
-0.302218
-0.00818077
0.0434854
-0.0889439
0.235157
-0.122373
-0.0263252
-0.00985495
-0.386032
0.107124
0.278912
-0.564313
0.171712
0.138576
-0.558994
0.241921
0.090413
0.0149315
-0.47348
0.0999735
0.373516
0.0231752
-0.113305
0.287904
0.191715
0.0779856
0.0259815
-0.438403
0.306009
-0.105037
-0.0255893
0.149606
0.0309563
0.401489
-0.120098
0.277123
-0.0360313
-0.367335
-0.286386
0.205452
-0.0343466
0.305636
0.0709366
-0.341287
0.128213
0.213097
0.141156
0.343959
-0.485079
0.027781
0.00153637
-0.0293174
0.49848
0.0849971
-0.583472
-0.265643
-0.120385
-0.383135
0.210802
0.0742169
0.239506
-0.313704
0.0565238
0.162793
-0.219304
-0.0429014
0.0697773
0.49476
0.0837755
0.0155044
-0.123273
0.107771
-0.0956708
0.0233144
0.29252
0.302989
-0.595508
-0.145158
-0.287215
0.432522
-0.178874
0.517181
-0.109821
0.0920654
0.273379
-0.365265
-0.407076
0.20972
0.197467
0.400499
-0.115072
-0.28541
0.133787
-0.0817635
0.114829
0.0252636
-0.39706
0.561483
-0.164259
-0.0202741
0.078031
-0.0577568
0.0603646
0.160446
0.204561
0.00764438
-0.1214
0.397893
-0.28523
0.0671474
0.0777726
0.000615392
-0.167586
0.397165
0.133171
-0.530231
-0.121545
-0.052244
-0.129453
0.166288
-0.0368318
0.160165
-0.0105556
0.552324
-0.399863
-0.152347
0.408358
-0.533307
0.35187
0.215326
0.000353264
-0.105186
0.355651
-0.607797
0.376321
0.231544
0.166336
-0.0370578
-0.531546
0.165063
-0.568336
0.415707
0.152763
0.0126983
-0.097108
0.182629
-0.277744
0.40015
-0.12239
0.0514276
-0.163893
0.220543
-0.230818
0.0728956
-0.299526
-0.10747
-0.305698
0.216096
0.0138317
-0.0955378
0.0817063
0.399866
0.151267
-0.607579
0.195102
0.412515
-0.375681
-0.301323
0.526377
-0.531198
0.00495743
0.2359
-0.346028
0.110202
-0.311165
0.196958
0.114229
0.0566901
-0.246183
0.396052
0.156382
0.573847
-0.176581
-0.397258
-0.345922
-0.139995
0.486001
-0.351592
-0.0472696
-0.147261
-0.158035
-0.0588389
-0.376165
0.126298
-0.00986647
-0.36491
-0.0877058
0.106998
-0.0192925
0.105763
-0.383492
-0.476926
0.101339
-0.0169477
-0.057966
0.288084
-0.102402
-0.185651
0.0343961
0.103108
0.164149
-0.346715
-0.0317914
0.378525
0.138416
0.304425
-0.442786
0.553632
-0.413346
-0.140161
-0.422479
0.277475
0.0259061
-0.0540556
0.0281495
-0.17364
0.201856
-0.0282074
0.123602
-0.355286
0.102785
0.0413898
-0.302784
0.395041
0.025761
0.134408
0.667828
-0.18918
-0.407679
0.511005
-0.103284
-0.443822
0.14502
0.29881
0.483312
-0.395573
-0.0273158
0.266101
-0.103971
-0.162112
-5.53658e-09
-0.346699
0.113697
-0.0182356
-0.104343
-0.302476
0.406831
0.289398
-0.516809
0.227509
0.323233
-0.517868
0.194775
0.157098
-0.151615
0.155261
-0.295144
0.415575
-0.120346
0.0821732
0.225752
-0.307888
-0.353753
0.502895
-0.149033
0.0240687
0.491554
-0.202077
-0.0397413
-0.209723
0.24947
0.277438
0.124115
0.0422447
-0.00313162
-0.0391131
-0.0361091
-0.42363
0.230365
0.193275
0.0180015
-0.0805986
-0.0522399
-0.00475126
0.12022
0.307221
-0.410918
0.566718
-0.155564
0.549258
-0.438333
-0.110874
-0.111796
0.384703
-0.272781
-0.0790156
-0.240825
0.319882
0.462455
0.0318204
-0.509743
0.356223
0.153672
-0.242055
-0.124153
0.111739
0.0150633
-0.0794916
0.0644285
0.222842
-0.327977
-0.0364254
-0.148083
0.184514
-0.160559
-0.0156106
0.176172
-0.557342
0.410723
0.146736
-0.190955
0.187746
0.260872
0.0272394
0.562295
-0.190868
-0.371371
-0.0118935
-0.175886
0.187792
0.183775
0.442564
-0.0169835
0.061862
0.144971
-0.108509
-0.554489
0.139785
0.414711
0.158263
0.400392
0.239962
0.224069
-0.533248
0.359123
-0.471368
0.125522
-0.0278777
-0.396208
0.561555
-0.165117
-0.0424187
0.358933
-0.497898
-0.290127
0.594078
-0.303948
-0.424052
0.150717
0.273365
0.11474
0.327739
-0.442328
-0.071962
-0.393925
-0.11923
0.162509
-0.558476
0.350066
-0.0835733
0.300107
0.0299258
-0.329985
0.00814733
-0.561368
0.410545
0.150978
0.201591
0.222112
-0.657712
0.43563
-0.342311
-0.128979
-0.0372966
0.0390536
0.484694
-0.161325
-0.144522
0.291923
-0.00761044
0.125564
-0.0454327
0.648784
-0.426647
-0.424969
0.301865
0.123112
0.098867
-0.085035
0.55629
-0.402215
-0.154031
0.105395
0.29237
-0.397711
0.131015
0.0772305
-0.170796
-0.299477
0.470536
-0.0845615
0.0982817
0.286937
-0.35354
0.0666763
-0.036186
-0.0184234
0.285383
0.111723
0.1216
0.0130273
-0.134627
-0.344851
-0.45555
-0.118173
0.573759
-0.594462
0.474095
-0.0997367
0.539667
0.660865
-0.162381
0.050043
-0.0651853
-0.0973646
0.335287
-0.237878
-0.613547
0.243021
0.370771
0.277089
-0.39851
0.121426
0.159572
0.136427
0.412884
-0.104846
0.3118
-0.077258
0.0138709
-0.208984
0.175358
-0.110687
-0.0115052
0.122193
0.102866
0.236257
-0.0445238
-0.0123137
0.0452802
-0.0329665
-0.387493
0.127538
0.26001
-0.113409
-0.241865
0.41543
-0.173347
-0.0342071
0.00694816
0.0272589
-0.511786
0.195467
0.122602
-0.318011
-0.223523
-0.43416
-0.214301
-0.347429
0.561787
-0.626237
0.402744
0.603003
-0.180817
-0.42212
0.567495
-0.434224
-0.133192
0.135705
0.291473
-0.427008
-0.170614
-0.0347003
0.205323
0.541003
-0.143734
0.242597
-0.339919
-0.0181143
-0.108393
0.126509
-0.0477757
0.103339
-0.0555635
-0.0929428
0.00523708
0.120843
-0.128452
-0.213438
-0.433373
-0.161079
0.4802
-0.332268
-0.147723
-0.0157896
-0.0797478
0.325576
0.0776789
0.020607
0.139625
-0.417703
0.278137
0.150871
-0.0104828
0.514472
-0.503465
-0.298439
0.421389
-0.122865
-0.286803
0.426482
-0.414412
-0.181807
-0.367891
-0.142494
0.510602
-0.147558
0.160786
-0.248911
-0.364393
0.039857
-0.0408526
0.000995629
0.435435
-0.368822
0.529127
-0.16012
-0.0347228
0.0606289
-0.422253
0.180593
-0.273802
-0.315445
-0.115653
0.534643
-0.0032241
0.0528384
-0.0551339
0.195513
-0.203671
0.580105
-0.376378
-0.0901068
-0.464808
-0.159791
0.624709
0.540572
-0.0245112
0.0749055
-0.0503941
0.131798
-0.0130712
-0.155491
0.168565
0.192466
-0.336953
-0.373575
0.373588
-0.209923
0.589984
-0.441269
-0.148658
-0.0645873
-0.175464
0.312639
-0.416968
0.0602168
-0.234051
0.0409348
-0.0481757
0.302192
-0.453724
0.151564
-0.433615
0.33428
0.381809
-0.276356
-0.513121
0.349414
0.163916
-0.148233
0.0113804
-0.10786
0.09648
0.032912
0.134998
0.227467
-0.0412375
-0.0460029
0.0378222
0.048621
-0.00876402
-0.118615
0.43127
-0.09498
0.106361
-0.413509
-0.157979
0.00723222
0.0342127
-0.0414449
-0.44803
-0.128718
0.0912211
0.0315066
-0.122727
-0.132934
0.0148441
-0.209541
-0.285187
0.311598
-0.026374
-0.143859
0.100916
0.0429432
0.0183163
-0.0760714
0.0577552
-0.632964
0.227671
0.405317
0.125038
-0.397042
-0.442431
-0.305034
-0.204572
0.170333
0.389198
-0.111697
-0.082977
0.369985
-0.145259
-0.0169158
0.162176
-0.0331145
-0.00162633
0.0347409
0.142014
0.19629
-0.0422901
0.00641926
0.522336
0.0960889
-0.174221
0.464312
-0.290036
-0.346565
0.0680319
-0.0768951
0.00886325
0.214872
-0.293847
0.019775
0.567924
-0.141267
0.158862
-0.253506
-0.148334
0.401958
-0.397914
0.263482
0.137035
0.0468211
0.193738
-0.24054
0.295443
-0.407094
0.039074
-0.414276
-0.218665
0.447719
0.0996447
-0.547341
-0.11824
-0.136677
0.438914
-0.0364682
0.00434559
0.0321226
-0.330735
0.124788
-0.111717
0.33461
-0.433852
0.54322
-0.109354
0.0424331
-0.408195
0.620153
0.151042
-0.301156
0.0890808
-0.187216
-0.126042
0.313311
0.218271
-0.02578
0.434569
0.21424
0.083579
0.474673
-0.333476
-0.488565
0.150105
0.33853
0.0199619
-0.129911
0.109951
-0.44143
0.0011002
0.601158
-0.308636
-0.0942914
-0.0339326
0.128225
0.0768065
-0.099562
-0.0242727
-0.0989994
-0.128169
0.0259969
0.102173
-0.105427
-0.368043
0.10628
-0.120958
0.0537647
0.00954439
-0.0633091
0.528927
0.0913888
-0.0837604
0.25014
-0.424315
-0.0120793
0.162769
0.130623
0.0178785
0.414619
-0.269595
-0.0687169
0.229452
-0.160721
-0.396293
-0.194868
0.242481
-0.174134
-0.0683324
-0.191467
-0.24796
-0.102601
-0.0723635
0.107569
-0.153141
-0.0250024
0.178149
0.03224
-0.161691
-0.111936
0.0842036
0.0277327
0.0876129
-0.0160674
0.107501
-0.0914334
-0.218101
-0.415921
0.117566
0.369108
0.0949483
-0.464026
0.568236
-0.120492
-0.59043
0.445102
0.145362
-0.399083
0.546219
-0.14698
-0.224945
-0.0590431
0.0773595
-0.597676
0.428716
0.169191
0.0892099
0.246121
-0.143814
-0.250726
-0.109826
-0.234764
0.344673
0.167684
-0.0142748
-0.131616
0.0323518
0.0992655
-0.291642
0.118609
-0.550659
-0.226778
0.187044
0.0396613
-0.4735
-0.311919
0.25897
0.0357072
-0.0480209
-0.112233
-0.215634
0.327931
0.157267
0.309034
-0.466058
0.14706
-0.0329135
-0.425329
0.333795
-0.244544
0.0622821
-0.00851742
-0.029236
0.397401
-0.116687
-0.280682
0.178872
-0.162559
-0.0163097
0.319369
-0.0956903
-0.223655
-0.0330328
0.00670767
-0.00297992
0.214408
-0.241775
0.155019
-0.0119784
0.085799
0.54361
-0.0595419
-0.100472
-0.0708671
-0.0938769
-0.382784
0.342863
-0.320283
0.218647
0.101643
0.524551
-0.00900108
-0.100972
-0.0106732
0.519919
-0.508678
0.24812
-0.357843
-0.339105
0.0506627
0.275543
-0.142842
0.162573
-0.0197272
0.589527
-0.183137
-0.40626
0.110074
-0.0935817
0.25036
0.0614777
0.0992866
0.0244612
0.129986
-0.448383
0.135023
0.313578
0.0129553
0.233844
0.136143
-0.369957
-0.0882186
0.323544
-0.235282
-0.499411
0.317139
0.182465
0.00771381
0.030588
-0.0383018
-0.0180836
0.148116
-0.0501754
0.195571
-0.267985
0.0724276
0.0670312
-0.0861616
0.146504
0.0197863
-0.168702
-0.240959
-0.18266
0.178325
-0.0258061
0.375726
-0.564983
0.408227
-0.29336
-0.132844
-0.0119185
0.144764
-0.225891
-0.18293
-0.187725
-0.0820799
-0.206106
0.252957
-0.312386
0.125219
-0.115303
0.135267
-0.0111627
0.132764
-0.473127
0.149484
-0.132135
0.150632
-0.0184958
-0.0972279
-0.276336
0.294112
0.121548
-0.347839
0.49262
-0.144572
0.178923
0.393445
0.077362
-0.0563128
-0.0210491
0.0975325
-0.0971549
0.584221
-0.431513
-0.152578
0.151139
-0.59748
0.178018
0.419478
0.117971
-0.42044
0.0262026
0.354047
-0.436939
-0.156741
-0.340931
0.497991
0.0274698
0.49713
-0.272979
0.0357518
-0.499312
0.4641
0.327318
-0.0853653
0.0567423
0.0206197
0.127431
0.164787
-0.227887
0.0631134
0.456367
0.111896
-0.40843
-0.0053224
0.126166
-0.0127036
0.0807355
0.095685
-0.0286537
-0.135201
-0.498184
0.54941
0.342671
-0.499094
-0.100762
0.343404
0.0464385
-0.413714
-0.140768
0.00712784
-0.0722063
0.014899
0.123075
-0.137972
-0.0999895
0.255328
-0.571165
0.165954
0.405227
0.303791
-0.10681
-0.0160222
0.4612
-0.392774
-0.0683466
-0.207477
0.219441
-0.01196
-0.393132
0.561501
-0.420791
-0.140596
-0.364173
0.22877
0.00611731
0.0511571
-0.0572744
-0.179129
0.146646
-0.121579
0.577973
-0.125881
0.14871
-0.0228275
-0.400576
-0.0111785
0.13698
-0.464694
0.211619
0.39885
0.169695
-0.568091
-0.0934289
-0.345034
0.0859332
0.375337
0.261991
0.13544
-0.0953005
-0.0187708
0.114072
-0.185746
0.247274
-0.0615172
-0.100037
-0.202212
0.489448
0.00219757
0.132559
0.426419
0.121812
-0.541567
0.238992
-0.209003
0.0383972
0.172504
0.00247624
-0.174975
0.0252992
-0.0289692
-0.217361
0.188947
-0.200827
-0.141542
0.162592
-0.0210448
-0.0166563
0.163163
0.16894
0.400703
0.167562
0.0919317
0.126836
-0.029288
-0.0860039
0.0619518
0.0240523
0.0610443
0.00957201
-0.126641
0.368806
-0.242126
0.279009
-0.496763
0.217831
-0.0264932
-0.628625
0.28797
-0.495264
0.0870811
0.191211
0.0861257
-0.27731
0.0177704
-0.355626
0.13799
0.217691
-0.425618
0.0690319
0.0218056
-0.0908373
0.208856
-0.152321
0.10514
-0.361601
0.256502
-0.190843
0.415155
-0.00174906
0.118633
-0.116884
0.0697992
-0.0819007
0.0121017
-0.0364204
-0.00586972
0.351195
-0.491101
0.115959
-0.433014
0.317152
-0.105549
0.456254
0.112722
-0.49739
-0.0185208
-0.152115
0.171674
-0.0195564
0.0355436
0.361175
-0.271136
0.0891703
0.181981
-0.197383
0.151729
0.0456592
-0.319004
0.219015
0.0574992
-0.0725116
0.137694
0.359291
-0.496668
-0.13595
0.389108
-0.253117
-0.124063
-0.188273
-0.227767
0.506877
-0.0213382
-0.0646656
0.120324
-0.478254
0.358222
0.560149
-0.167426
0.0221691
0.104103
-0.124873
0.0207717
-0.119605
0.137036
-0.0174303
-0.0170917
0.0855031
-0.0684112
-0.151748
-0.279569
0.431616
0.109701
0.0782626
-0.187957
-0.351596
0.532412
0.0777961
0.304072
-0.531964
0.522106
-0.198906
0.362778
0.0706199
-0.0919579
0.0287422
0.325378
0.131985
-0.170274
0.456657
-0.0875174
-0.559958
0.405102
0.15489
0.145906
-0.436539
-0.135897
0.572456
-0.170401
-0.00898347
0.0361577
0.440135
-0.591117
0.151021
0.350912
0.105494
-0.123607
-0.542046
-0.115009
-0.0906435
-0.106736
-0.0665791
0.176286
0.284735
0.124592
-0.409225
-0.523288
-0.161264
-0.365355
0.526792
0.41189
0.14973
-0.519116
0.401255
0.117867
-0.237681
-0.146768
0.487556
-0.340749
0.324726
0.218037
0.0508149
-0.515532
-0.40599
-0.117999
0.524021
-0.0927509
0.303401
-0.210635
-0.192267
0.00633912
0.072651
0.0167703
-0.159609
0.145802
-0.354785
0.529905
-0.174744
0.554465
-0.445002
-0.109355
0.143738
0.0188388
-0.54349
0.12139
0.422122
0.0896199
-0.311187
-0.296365
-0.305435
-0.297383
-0.381006
0.159834
-0.375251
0.251371
0.123919
-0.105385
0.0768208
0.440636
0.149008
0.585884
-0.145713
0.251404
-0.0649162
-0.186469
-0.561109
0.136747
0.424369
0.627189
-0.19519
-0.431884
-0.0492882
0.308101
0.113377
-0.323275
0.0114413
-0.163555
-0.144021
-0.00525182
0.160139
-0.0638313
0.226638
0.168079
-0.156636
-0.129374
-0.414095
-0.460017
0.529818
-0.0697381
-0.0998256
-0.148635
-0.273391
0.497075
0.105919
-0.133033
0.148148