/*--------------------------------*- C++ -*----------------------------------*\
| =========                 |                                                 |
| \\      /  F ield         | OpenFOAM: The Open Source CFD Toolbox           |
|  \\    /   O peration     | Version:  v2012                                 |
|   \\  /    A nd           | Website:  www.openfoam.com                      |
|    \\/     M anipulation  |                                                 |
\*---------------------------------------------------------------------------*/
FoamFile
{
    version     2.0;
    format      ascii;
    class       surfaceVectorField;
    location    "800";
    object      ddtCorrDdt0(Uf);
}
// * * * * * * * * * * * * * * * * * * * * * * * * * * * * * * * * * * * * * //

dimensions      [0 1 -2 0 0 0 0];


internalField   nonuniform List<vector> 
20673
(
(0.00072541 0.000471729 -4.74273e-18)
(0.000730951 0.000470433 -5.96162e-18)
(0.000720106 0.000465381 -1.08381e-18)
(0.000316091 0.000191522 -1.37926e-18)
(0.000308503 0.000197045 8.00956e-20)
(0.000315811 0.000204124 5.71986e-19)
(-0.00250638 -0.00437232 1.05346e-19)
(-0.00225464 -0.00445992 -5.58425e-18)
(-0.00162301 -0.0047724 -3.80235e-18)
(0.000323779 -0.000449342 -5.24356e-18)
(0.000337766 -0.000434255 -1.95539e-18)
(0.000320138 -0.000433035 2.31114e-18)
(1.68795e-05 0.00020789 -2.57305e-18)
(1.40183e-05 0.000208759 -1.65104e-18)
(1.71335e-05 0.000202914 -3.83473e-18)
(-8.9294e-05 0.0011587 6.46153e-17)
(-8.13178e-05 0.0011548 1.13705e-16)
(-9.27151e-05 0.0011521 1.13228e-16)
(-0.00175188 -0.00467236 2.8634e-18)
(-0.00213291 -0.00463806 -1.04311e-18)
(-0.00100666 -0.00496925 -1.37136e-17)
(-0.00369469 -0.00378448 -2.94753e-19)
(-0.00397767 -0.00354925 -5.82371e-18)
(-0.00417917 -0.0035091 -7.26361e-18)
(-0.00852893 0.0045212 8.12753e-18)
(-0.00796195 0.00454811 -3.62196e-17)
(-0.00751255 0.00429241 -1.07159e-17)
(0.000797758 0.000453454 3.33704e-18)
(0.000798767 0.000440863 -2.40701e-17)
(0.000813773 0.000445992 -8.35732e-18)
(0.00225366 -0.00395413 -7.69648e-18)
(0.00204223 -0.00403187 -4.72569e-18)
(0.002337 -0.00417822 7.53739e-19)
(0.000613238 -0.00158265 -1.79566e-18)
(0.000577224 -0.0016439 -8.45228e-18)
(0.000668362 -0.00161954 -9.59971e-18)
(0.000330073 -0.000461825 2.94151e-18)
(-0.00826299 -4.90631e-05 7.36758e-19)
(-0.00933188 -0.000107352 -7.55512e-18)
(-0.00819201 -0.000156959 -1.41117e-18)
(0.000349415 0.000531916 -3.20445e-19)
(0.000337583 0.000539806 4.91188e-18)
(0.000337499 0.000525652 -1.17228e-18)
(0.000391738 0.000455053 1.21266e-18)
(0.000377839 0.000457775 -3.50841e-19)
(0.000383701 0.000440498 -4.93763e-20)
(0.000310497 0.000261197 -3.83833e-21)
(0.000314814 0.000250067 1.42434e-19)
(0.000305296 0.000255137 1.23868e-19)
(0.00144554 0.000593524 -2.55251e-18)
(0.00139972 0.000627962 -1.2486e-18)
(0.0014633 0.000646999 -1.6773e-17)
(0.000556774 -0.0015518 4.81368e-18)
(0.000623226 -0.00152626 -4.99875e-19)
(3.47334e-05 7.10122e-05 -2.09165e-19)
(3.39663e-05 6.76897e-05 -1.88138e-19)
(3.14324e-05 7.22554e-05 -6.14769e-19)
(7.76016e-07 1.89941e-05 -1.07036e-18)
(1.22935e-06 2.87645e-05 -2.2785e-18)
(7.40794e-07 1.82316e-05 -4.57847e-19)
(-0.00162243 -0.00470645 -7.30233e-18)
(-0.00220697 -0.00452211 4.93186e-18)
(4.54908e-05 0.000113612 6.63282e-19)
(4.81714e-05 0.000109874 -5.09272e-19)
(4.79398e-05 0.000105735 -2.75694e-19)
(-0.00331568 -0.00423048 3.19105e-18)
(-0.00362468 -0.0040623 1.0619e-17)
(7.44271e-05 0.0001526 -1.53288e-18)
(7.3828e-05 0.000155595 -1.49473e-18)
(7.79435e-05 0.00016202 -1.09538e-17)
(0.00106008 -0.00480183 -2.65101e-18)
(0.000644641 -0.00453495 -4.07823e-18)
(0.000347715 -0.00462975 5.83478e-18)
(2.50031e-05 0.00086752 5.77156e-18)
(2.75737e-05 0.00088401 -2.24448e-17)
(1.38931e-05 0.000875216 -1.13586e-17)
(0.000120789 0.000970557 1.00706e-17)
(0.000129774 0.000983812 -8.57411e-18)
(0.000116992 0.000990791 -7.67365e-18)
(0.000135307 0.00181482 -2.5877e-18)
(0.000238134 0.00189155 6.34999e-19)
(0.000139981 0.00198922 1.49569e-18)
(0.000466044 0.000599835 -5.58183e-18)
(0.000462739 0.000650765 -1.03232e-18)
(0.000408677 0.00062834 -6.11234e-18)
(0.000744686 0.000475765 1.83781e-19)
(0.000741098 0.000472767 7.54917e-19)
(0.000739076 0.000470588 -1.24592e-17)
(0.000609645 0.000369579 5.55584e-18)
(0.000598859 0.000369271 -5.02909e-19)
(0.000598847 0.000358097 2.36393e-18)
(0.000113864 0.000798609 -8.56365e-19)
(0.000114723 0.000810333 -3.80133e-18)
(0.000100593 0.000805364 7.35319e-18)
(-1.83193e-06 0.00065171 -1.3366e-17)
(-8.27301e-06 0.000645703 -4.32954e-17)
(1.56776e-06 0.000644552 -3.51909e-18)
(5.75807e-05 0.000172064 2.66383e-19)
(5.93609e-05 0.000183807 -2.00602e-18)
(6.22018e-05 0.000176644 -9.04541e-19)
(0.000774646 -0.00686155 -1.1335e-18)
(0.00103658 -0.00684985 3.89425e-18)
(0.00101736 -0.00717737 -1.42787e-17)
(4.23358e-05 0.000120271 -6.27095e-19)
(4.27144e-05 0.000115474 8.51582e-19)
(-0.00918287 -0.000438553 9.3815e-18)
(-0.00921993 -0.000387872 -8.19491e-18)
(-0.00917611 -0.000500144 2.9924e-18)
(0.000374621 -0.000576177 -9.87045e-19)
(0.000377521 -0.000599147 -2.13795e-18)
(0.00773461 -0.000224193 9.37361e-19)
(0.00801672 -9.25752e-05 -2.35186e-18)
(0.00784345 -0.000179693 -7.52716e-18)
(6.13049e-05 6.55347e-06 2.21423e-19)
(6.35829e-05 6.38769e-06 -4.61233e-19)
(6.34591e-05 3.94734e-06 4.66754e-19)
(2.55079e-07 9.98075e-06 2.4641e-19)
(2.26842e-07 3.8935e-06 4.59962e-19)
(1.65525e-07 4.20294e-06 1.44806e-19)
(9.07382e-05 -1.40704e-05 -1.18082e-19)
(9.07125e-05 -1.02388e-05 1.4958e-18)
(8.75067e-05 -1.24768e-05 1.68138e-18)
(0.000127541 0.00111242 4.65974e-18)
(0.000149563 0.00112184 3.40324e-17)
(0.000127575 0.00114817 5.27025e-17)
(0.000339552 4.84907e-05 1.5427e-18)
(0.000349719 5.22039e-05 6.81147e-19)
(0.000347584 4.90478e-05 4.12345e-18)
(3.679e-05 0.000682461 4.81505e-18)
(2.63024e-05 0.000685412 -9.89584e-18)
(2.9848e-05 0.000676407 4.6852e-18)
(0.00150013 0.000556816 2.99213e-18)
(0.00143282 0.000542038 3.53368e-18)
(0.00243989 0.000274988 2.10456e-18)
(0.00224311 0.000282239 6.2373e-18)
(0.00236335 9.52435e-05 -6.17059e-19)
(4.05425e-05 0.00118587 2.03716e-17)
(6.41137e-05 0.00117357 -5.06042e-17)
(4.06755e-05 0.00118219 -2.02771e-17)
(3.78994e-05 3.99148e-06 3.76428e-20)
(3.94858e-05 3.31729e-06 5.62523e-20)
(3.81475e-05 5.04837e-06 -1.47355e-19)
(0.0008321 -3.83139e-05 -7.90215e-18)
(0.000842896 -2.13392e-05 -5.78035e-18)
(0.000854254 -4.37173e-05 -1.37464e-18)
(3.94651e-05 0.000483467 -8.70987e-18)
(3.45272e-05 0.000490185 -1.63589e-18)
(4.27223e-05 0.000496814 1.11307e-18)
(-3.34543e-05 0.00116681 -9.38928e-18)
(-3.24098e-06 0.00119221 5.40346e-17)
(5.78616e-06 0.000657041 -6.5354e-18)
(-5.82541e-06 0.00065842 1.32511e-17)
(0.000315754 0.000268075 -1.7005e-19)
(0.00030527 0.000272059 2.58764e-20)
(0.000775061 0.000197825 -7.51596e-18)
(0.000763362 0.000209818 8.62639e-18)
(0.000785452 0.000215954 3.93028e-19)
(0.00249303 -0.00387418 1.20016e-18)
(0.00221495 -0.00371692 1.10393e-17)
(0.000161205 0.000341944 -1.00051e-19)
(0.000153472 0.000330493 1.6265e-18)
(0.000160827 0.000332528 2.29537e-18)
(0.000642975 0.000197711 1.26653e-18)
(0.000658396 0.000208077 -3.87024e-18)
(0.000642117 0.000209725 1.73717e-18)
(0.000331493 4.75471e-05 3.03289e-18)
(0.000329164 4.45924e-05 -1.03336e-18)
(0.000143112 -0.00120233 1.30651e-18)
(-0.000160358 -0.00118338 2.66635e-17)
(1.29665e-05 -0.00118474 2.03091e-17)
(0.0003203 0.000180294 -2.22799e-20)
(0.000326118 0.000188044 -1.47734e-19)
(-0.00824854 7.09436e-05 1.34251e-17)
(3.54599e-05 7.34216e-05 3.97368e-19)
(3.78564e-05 6.81398e-05 3.85121e-19)
(-7.73787e-05 0.00116609 -2.85986e-17)
(-7.98618e-05 0.00115522 -1.05089e-16)
(-0.000921098 -0.000442396 -4.82048e-17)
(-0.00226578 0.000561524 -5.27693e-18)
(-0.00403563 -0.00159772 -2.20426e-17)
(-3.26284e-06 0.000210808 1.35957e-18)
(-2.35575e-06 0.000204695 -1.85171e-18)
(-4.69361e-06 0.000190558 1.969e-18)
(-5.56203e-06 0.000182171 8.44887e-18)
(0.00524999 -0.000170684 -6.84516e-19)
(0.00526366 -0.000405109 -6.04873e-18)
(0.00556054 -0.000199134 3.86496e-17)
(0.000660959 0.00049513 4.30983e-19)
(0.000680945 0.000490278 9.45086e-18)
(0.000680522 0.000517288 6.32054e-18)
(1.57743e-05 0.000212233 -2.08839e-18)
(1.8404e-05 0.000206043 2.75077e-18)
(-0.00948292 0.00472541 -4.64226e-18)
(-0.00906315 0.00456198 1.29359e-17)
(-0.000756842 0.0015211 1.7443e-17)
(-0.000785925 0.00181898 7.86888e-19)
(-0.000451322 0.00174777 1.01947e-17)
(7.59762e-05 0.000148263 3.86106e-18)
(7.13642e-05 0.0001426 -3.78851e-19)
(3.08103e-05 0.00115651 -5.09241e-17)
(-3.30093e-05 0.00111517 -4.51477e-17)
(-2.19151e-05 0.00112055 1.09899e-17)
(0.000187405 -0.00128208 1.10235e-17)
(0.000254735 -0.00126532 2.49078e-18)
(0.000252191 -0.00132793 1.7664e-17)
(-0.00566217 0.000773089 -7.27917e-18)
(-0.00544508 0.00101995 -5.99077e-18)
(-0.00583589 0.000838405 -4.7089e-19)
(0.00047821 7.25309e-05 6.61736e-18)
(0.000491968 7.63527e-05 -1.57805e-18)
(0.00048319 8.13573e-05 5.88453e-18)
(0.00273705 -0.00319559 2.94644e-18)
(0.00253926 -0.00337452 2.33304e-18)
(0.0028019 -0.00340209 -4.86932e-18)
(3.1028e-06 5.05312e-05 3.11263e-18)
(4.01797e-06 6.51231e-05 7.95418e-19)
(3.91677e-06 6.35329e-05 -1.389e-18)
(8.46752e-06 7.74902e-05 2.78316e-19)
(9.35632e-06 8.72538e-05 -7.61559e-19)
(8.01683e-06 7.37689e-05 1.68229e-18)
(-2.04405e-06 0.000215846 7.47246e-19)
(-8.27755e-05 0.00115613 1.52504e-17)
(-8.79539e-05 0.00116191 2.88374e-18)
(-8.05203e-05 0.00115186 -7.80868e-18)
(-0.00904309 -0.000532889 3.05461e-18)
(-0.00912937 -0.00039098 -1.4563e-18)
(-0.00178468 -0.00045379 4.58138e-17)
(-0.00177261 -0.000440677 -1.6722e-17)
(-0.00176728 -0.000503019 6.58848e-17)
(0.00046358 6.95349e-05 3.68273e-18)
(0.000472098 6.43521e-05 -2.73061e-18)
(1.71754e-05 0.00010207 -2.19702e-19)
(1.70757e-05 9.86627e-05 -3.79343e-19)
(1.39607e-05 9.22278e-05 -3.57846e-19)
(0.00184086 -0.00359962 -3.3446e-18)
(0.000189832 0.00120883 -3.3048e-17)
(0.00081352 -5.54915e-05 -2.87313e-18)
(0.000807325 -2.96723e-05 1.36535e-18)
(9.07936e-05 -1.76571e-05 -1.00936e-19)
(9.41441e-05 -1.49079e-05 -1.20227e-18)
(-0.00471021 0.00207417 -2.20954e-17)
(-0.00473432 0.00180094 -1.11435e-17)
(-0.0050323 0.00184602 -2.39313e-17)
(0.000662223 0.000396754 -1.68829e-17)
(0.00068612 0.000408249 -2.7096e-17)
(0.000694666 0.000380363 -1.10938e-17)
(0.000243841 6.83245e-05 5.39125e-19)
(0.000241666 5.98009e-05 -4.56727e-21)
(0.000236651 6.6724e-05 7.71459e-19)
(0.000221475 0.000488054 -4.84274e-18)
(0.000221946 0.000494768 1.34676e-18)
(0.000230959 0.000485542 8.24553e-19)
(0.000801635 -0.00386033 5.68276e-17)
(0.0013098 -0.00276012 5.92974e-17)
(-7.49211e-05 0.00115429 4.19548e-18)
(-7.8228e-05 0.00114692 1.87105e-17)
(-8.20521e-05 0.00115427 3.499e-17)
(0.00339207 -0.00195283 3.26268e-18)
(0.00352694 -0.00186583 3.08985e-17)
(0.00355157 -0.0020793 -2.44175e-18)
(0.00205833 0.000371252 -3.18705e-17)
(0.00208024 0.000454495 3.31316e-18)
(0.00199825 0.000441134 -3.02735e-18)
(-0.000894066 -0.00191571 1.91156e-18)
(-0.00107613 -0.00195098 -1.68663e-18)
(-0.000994312 -0.00174798 2.23801e-18)
(3.52072e-06 0.00111727 2.63764e-17)
(2.62411e-06 0.0010981 1.89447e-18)
(1.45815e-05 0.00110838 -5.75856e-18)
(8.66361e-05 3.46825e-05 7.75258e-19)
(8.92879e-05 3.17688e-05 -4.7509e-19)
(8.97772e-05 3.66175e-05 9.72363e-19)
(-2.538e-05 0.000768367 -3.83303e-18)
(-4.28902e-06 0.000776724 -2.16138e-17)
(-1.22788e-05 0.000761277 -5.82422e-18)
(9.41502e-05 0.00111738 -4.04116e-17)
(0.00011311 0.00108611 -2.44644e-17)
(0.000541106 2.89051e-05 -2.35541e-18)
(0.000553488 2.5478e-05 -1.8527e-18)
(0.000540861 1.51344e-05 1.02328e-17)
(0.000144448 3.80018e-05 -5.10967e-19)
(0.000141864 3.2497e-05 1.1224e-18)
(0.000147713 3.0863e-05 4.17181e-19)
(-0.00838006 0.00492682 -1.73818e-17)
(-0.00812724 0.00501975 1.41049e-17)
(-0.0092986 0.00510076 -4.33943e-17)
(0.000413615 0.00170876 4.0692e-18)
(0.000365911 0.00174098 1.23497e-17)
(0.000433007 0.00174351 5.65426e-18)
(0.0025269 0.000287196 1.64656e-17)
(0.00245192 0.000376054 -8.9773e-18)
(0.000319844 0.000237631 5.92282e-19)
(0.000326329 0.000244807 5.73446e-20)
(0.000744692 0.000476024 9.64802e-18)
(0.000743626 0.000475998 5.97086e-18)
(0.0007506 0.000477555 2.84045e-18)
(0.00373667 -0.000751153 -9.01222e-18)
(0.00404619 -0.000625513 -1.08089e-17)
(0.00406534 -0.00061618 -3.21542e-18)
(0.00739912 -0.000352455 -2.00239e-18)
(0.00762458 -0.000262544 -8.82384e-18)
(0.000320129 -0.00191171 2.87779e-18)
(0.000251643 -0.00187424 2.62245e-17)
(0.000230429 -0.00197243 6.33134e-18)
(-0.00844342 0.00493184 1.14154e-18)
(-0.00734669 0.00483023 -7.82608e-18)
(2.8293e-05 0.000564473 1.44052e-17)
(3.56294e-05 0.000572198 -1.48643e-18)
(2.18646e-05 0.000573319 6.54279e-19)
(-3.81538e-06 0.00130552 -6.83438e-17)
(-9.02996e-06 0.00132175 -1.11172e-16)
(9.09334e-06 0.00124071 -6.9739e-17)
(7.72501e-05 9.19981e-05 1.15766e-18)
(8.07031e-05 9.70449e-05 4.0561e-18)
(7.83471e-05 9.68502e-05 2.68399e-18)
(-0.000136456 0.00114546 -2.0015e-17)
(-8.92981e-05 0.00116301 5.94635e-18)
(-0.000108852 0.00120565 5.80591e-18)
(-0.00215898 -0.000949815 -2.94096e-18)
(-0.00185398 -0.00101687 2.88941e-18)
(-0.00234973 -0.0012881 7.8482e-18)
(3.15094e-05 0.000653079 1.81118e-18)
(4.04481e-05 0.000657991 6.3392e-19)
(4.3509e-05 0.000648707 -3.35818e-18)
(6.96733e-07 1.73723e-05 -8.82985e-19)
(5.86653e-07 1.74856e-05 6.08418e-19)
(0.00525554 9.89107e-05 5.74957e-18)
(0.00491105 -9.96933e-05 8.4717e-18)
(-0.0052359 -0.000868671 -4.97897e-18)
(-0.00531184 -0.00115154 3.93956e-18)
(-0.0055836 -0.00106792 1.59472e-18)
(0.000105572 0.000954783 -5.35243e-18)
(0.000128114 0.000947466 2.25369e-17)
(4.40567e-05 3.19819e-06 1.13404e-19)
(4.36604e-05 4.23641e-06 -9.24511e-20)
(4.51947e-05 3.00669e-06 1.62066e-19)
(0.000211484 0.000488232 2.78512e-18)
(0.000221535 0.000478514 -5.43367e-18)
(0.000324704 5.83175e-05 -5.37799e-18)
(0.000333811 6.29978e-05 -1.17797e-18)
(0.000326794 6.34167e-05 -3.49901e-18)
(4.29869e-05 2.9458e-06 -8.49711e-20)
(4.43978e-05 1.98185e-06 2.11001e-19)
(7.41617e-05 -2.56849e-06 2.5772e-19)
(7.34866e-05 -3.07706e-06 1.51161e-18)
(7.23696e-05 -2.50524e-06 8.59043e-19)
(-7.20625e-05 0.00116936 1.61171e-19)
(-0.00443927 -0.00241877 -2.67051e-18)
(-0.00467007 -0.00227835 -5.73301e-18)
(-0.00433158 -0.00213068 -5.63467e-18)
(1.96211e-05 0.000560257 6.58263e-18)
(2.95869e-05 0.000556758 3.07152e-18)
(0.000359649 5.61833e-05 -6.65593e-19)
(0.000350751 5.58006e-05 -5.77736e-19)
(5.62038e-07 1.94487e-05 6.60401e-20)
(3.25997e-07 1.1269e-05 6.14917e-19)
(-0.00445183 0.00321391 -2.36897e-17)
(-0.00371183 0.00356316 -2.20627e-17)
(-0.00532064 0.00347581 1.79289e-18)
(-0.00300497 -0.0046438 -3.4434e-18)
(-0.00298547 -0.00434713 -5.55807e-18)
(0.000729542 0.000477113 -4.4149e-18)
(0.000720594 0.000472759 -1.44227e-18)
(-2.64431e-05 0.0011404 -3.49174e-17)
(-1.75709e-05 0.00108884 -4.42651e-17)
(4.89796e-08 0.000204435 -2.7184e-18)
(-1.51751e-06 0.00019827 -4.72066e-18)
(1.71927e-05 0.000655704 -6.78329e-18)
(2.23867e-05 0.00064711 8.21808e-18)
(0.00188664 -0.006519 -2.55503e-18)
(0.00135876 -0.0063097 -1.21066e-17)
(0.00135232 -0.00592182 -3.30699e-18)
(0.000187632 1.53471e-06 4.35222e-18)
(0.00019099 2.35177e-06 1.74215e-18)
(0.00018369 9.44578e-07 7.22165e-19)
(8.48461e-05 0.000516484 -1.99454e-18)
(8.7789e-05 0.000526095 -2.46415e-18)
(7.78886e-05 0.000521331 3.86659e-18)
(7.80023e-05 0.00114034 1.97707e-17)
(5.9124e-05 0.0011548 -3.54965e-19)
(8.40915e-05 0.00116702 4.23473e-18)
(-1.55883e-06 0.000191008 -6.26302e-18)
(-4.58538e-06 0.000199958 2.25221e-18)
(-0.0115735 0.00451335 1.04931e-17)
(-0.0108595 0.00456007 3.61163e-17)
(-0.0115292 0.00476081 1.02814e-17)
(0.000387131 0.0020056 8.35116e-19)
(0.000388066 0.0019456 4.62783e-19)
(0.000339559 0.00191213 1.52213e-18)
(4.65038e-05 0.000475856 -1.18332e-17)
(3.79034e-05 0.000468117 -4.6513e-18)
(0.000165514 -1.9246e-06 1.20715e-18)
(0.000169751 -1.68233e-06 -1.47503e-19)
(0.000162755 -2.62027e-06 -4.13486e-19)
(0.000599327 0.000390037 2.78721e-18)
(0.000588104 0.000390256 9.59566e-18)
(0.000600364 0.00040334 -6.93816e-18)
(0.00183272 -0.000777738 3.57564e-18)
(0.00191154 -0.000811891 5.85661e-18)
(0.00186626 -0.000704559 1.38175e-17)
(6.05385e-06 0.00128402 4.72285e-17)
(-4.69524e-06 0.00131053 3.31195e-17)
(0.00172006 -0.00211167 8.40644e-18)
(0.00184306 -0.00216144 5.3638e-19)
(0.0017055 -0.00223398 -1.17331e-17)
(0.000660567 0.000658814 5.46216e-19)
(0.000656574 0.000642833 2.66018e-18)
(0.000677312 0.000642461 8.40576e-18)
(0.000681266 0.000308108 -4.47791e-20)
(0.000668858 0.000309378 -1.10487e-20)
(0.000665624 0.00029603 -4.56232e-18)
(-0.00152615 8.2808e-05 -6.82903e-18)
(-0.00143214 -2.56657e-05 -3.31589e-17)
(-0.00148898 2.681e-05 8.04566e-18)
(0.000649156 0.000499286 -8.64067e-19)
(0.000648834 0.000485125 -1.21815e-17)
(-0.00246989 -0.00407629 -5.25088e-18)
(-0.0007039 -0.00414447 1.26665e-17)
(0.000532452 -0.00450406 -8.74475e-18)
(-0.00573454 0.000495495 2.02552e-18)
(-0.00537752 0.000747572 -9.08291e-19)
(-0.00356495 0.00294654 -5.83937e-18)
(-0.00493912 0.00246652 1.86509e-17)
(0.000142682 0.000586331 2.74877e-18)
(0.000145232 0.000591373 3.46567e-18)
(0.000134641 0.000592634 4.50161e-18)
(-6.82588e-05 0.000855765 6.675e-18)
(-5.91433e-05 0.000868802 1.03805e-18)
(-7.89081e-05 0.000869236 -7.07967e-18)
(4.11267e-06 5.60081e-05 -6.54733e-19)
(3.99757e-06 5.25601e-05 7.24851e-19)
(2.4519e-06 4.14416e-05 -2.67672e-18)
(0.00324157 -0.00209663 -2.54222e-18)
(0.0032143 -0.00187078 -6.91305e-18)
(0.000415972 -0.00197005 -1.75532e-17)
(0.000412065 -0.00185283 -1.69784e-18)
(-0.000742807 -0.00188119 -6.51084e-18)
(-0.000797852 -0.00204965 -1.55186e-17)
(0.00054179 4.04065e-05 -4.97528e-18)
(0.000529582 3.16565e-05 3.23452e-18)
(0.00206006 -0.000214831 -4.40555e-18)
(0.00205536 -0.000303269 -4.71239e-18)
(0.00215302 -0.00025813 -9.68762e-18)
(0.000276626 2.73217e-05 -3.62984e-19)
(0.000285896 3.02409e-05 2.09552e-19)
(0.000279452 3.0486e-05 -9.73656e-19)
(-1.79498e-05 0.000760416 -1.36462e-17)
(-4.2372e-05 0.000778023 -1.02008e-17)
(0.000708755 0.000606873 -3.43539e-18)
(0.000691552 0.0006149 -2.6992e-18)
(0.000690658 0.000592559 2.1252e-18)
(0.00309925 -0.000521753 4.72612e-17)
(0.00334066 -0.00041158 4.39384e-18)
(0.00312735 -0.000558226 1.35729e-17)
(4.87656e-05 -0.0017548 -2.70698e-18)
(-2.82762e-05 -0.00180564 -4.90431e-18)
(7.04946e-05 -0.00184646 2.19109e-18)
(0.000335827 0.000291581 -9.68053e-21)
(0.000342696 0.000297435 -8.87553e-20)
(0.000331942 0.000303678 -1.38835e-19)
(-0.0111193 0.00247372 7.97194e-18)
(-0.0113384 0.00286432 -3.20702e-18)
(-0.0108979 0.00254207 -1.21613e-17)
(0.000677061 0.000719175 -1.38626e-18)
(0.000683346 0.00073934 -4.57671e-19)
(0.000701646 0.000725083 2.93705e-19)
(-0.00409452 -0.00254808 1.46092e-17)
(-0.00441266 -0.00274348 4.89578e-18)
(-0.000140047 0.00126263 2.06713e-17)
(8.99314e-06 0.00118184 7.58493e-18)
(-0.0116396 0.00430141 -7.14745e-18)
(-0.0118471 0.00447556 -4.43555e-18)
(0.000201052 0.000201325 -5.47937e-21)
(0.00020836 0.000199064 -1.47235e-19)
(0.000205003 0.000209235 -8.93698e-20)
(0.000630117 0.00038344 1.27693e-17)
(0.00063141 0.000417327 -4.64739e-18)
(0.0007467 0.000480709 5.52937e-18)
(0.000747423 0.00048015 -5.38805e-18)
(0.000191063 2.28778e-06 -6.20651e-20)
(0.000183763 7.48037e-07 3.0816e-18)
(1.78482e-05 0.000105869 -1.52563e-19)
(2.10128e-05 0.000109504 -1.97977e-18)
(0.00033125 0.000659935 -1.25232e-18)
(0.000315591 0.000663257 4.04784e-18)
(0.000322512 0.000647034 -3.68035e-18)
(0.00185954 -0.00497517 -7.43566e-18)
(0.00160589 -0.00507954 -1.75363e-18)
(0.000379381 -0.000251589 4.91134e-18)
(0.000318686 -0.000337599 -3.23609e-18)
(0.000382501 -0.000312729 3.37456e-17)
(-0.0016247 0.000106409 4.29584e-17)
(-0.00187313 4.4787e-05 9.25289e-18)
(0.0010048 0.000395391 4.45116e-18)
(0.00098147 0.000404816 6.69215e-18)
(0.00100732 0.000420259 8.91761e-18)
(-5.54318e-05 -0.00273169 7.48739e-18)
(-0.000150875 -0.00268344 -2.13806e-18)
(-0.000184333 -0.00284419 3.11525e-18)
(0.00587578 -0.00605466 1.04028e-17)
(0.00612713 -0.00644096 -4.34103e-18)
(0.00669246 -0.00629983 4.95605e-18)
(-0.00169966 -0.000537091 -1.37074e-17)
(-0.00179274 -0.00042989 1.85063e-17)
(0.00091575 -0.000326525 3.0781e-17)
(0.000845504 -0.00031801 1.69574e-18)
(0.000840805 -0.000404553 2.04495e-17)
(4.45756e-05 0.000143422 4.19914e-18)
(4.21191e-05 0.000146004 2.83454e-18)
(4.12026e-05 0.000151651 -2.59408e-18)
(-5.92559e-05 0.00108356 -8.35341e-18)
(-4.67005e-05 0.0010875 2.10546e-17)
(-5.78355e-05 0.00110039 -4.19115e-17)
(2.31807e-05 0.000851931 2.59518e-18)
(4.10042e-05 0.000858418 -1.4741e-17)
(6.82214e-05 7.3119e-07 -6.96672e-19)
(6.78014e-05 8.78827e-07 8.24199e-19)
(0.000245191 7.59424e-05 -4.67901e-19)
(0.00025138 6.86982e-05 1.61043e-19)
(0.000568153 0.00161187 -1.04884e-18)
(0.000543453 0.00153434 -2.60116e-18)
(0.000622758 0.0015518 1.61282e-18)
(-0.00136693 0.00678597 -1.77984e-17)
(-0.00370503 0.00436482 3.69885e-18)
(0.000143752 0.00323451 -1.57988e-17)
(0.000689775 -0.000353837 -2.19589e-19)
(0.000704256 -0.000372778 3.33118e-18)
(0.000714664 -0.000343801 2.21527e-19)
(3.71742e-05 5.03176e-06 2.14759e-19)
(3.73558e-05 3.65764e-06 6.63308e-20)
(0.00194482 -0.000467283 3.62532e-18)
(0.00185977 -0.00043744 2.08863e-18)
(0.00194819 -0.000362415 -2.55236e-17)
(0.00180133 -0.000861744 -7.29803e-18)
(0.0017508 -0.000757774 -9.41375e-18)
(-0.00107515 0.00128095 -9.80518e-18)
(-0.0007195 0.00122687 -1.0632e-17)
(-0.00265939 0.00630099 -3.80649e-18)
(-0.00154456 0.0063522 -1.48875e-17)
(0.000916813 0.00607137 -4.52324e-17)
(5.54517e-05 0.000163405 4.08996e-18)
(5.3774e-05 0.000170183 -1.48031e-18)
(0.000160778 0.000350941 -1.58349e-18)
(0.000168652 0.000351293 -7.31414e-18)
(0.00201638 0.000284318 -4.98629e-17)
(0.00211724 0.000282592 -2.79669e-18)
(-7.41271e-05 -0.0051824 7.39659e-19)
(0.000973325 -0.00544672 3.49921e-18)
(0.000442677 -0.0053704 2.47939e-18)
(8.25406e-05 0.000504489 -5.80313e-18)
(9.26966e-05 0.00051125 5.55131e-18)
(-0.00239007 -0.00453008 1.0004e-18)
(-0.00278773 -0.00440961 7.9211e-19)
(-0.0017054 -0.00473907 1.65366e-18)
(-0.000815726 0.000727486 -2.90386e-18)
(-0.000753563 0.000981949 -1.77862e-17)
(-0.00116146 0.00071886 -1.37414e-17)
(8.51601e-05 -0.00267134 -6.80617e-18)
(7.58894e-05 -0.00286138 6.98776e-18)
(0.000142192 4.44492e-05 -3.24935e-18)
(0.00014708 4.24447e-05 -9.01579e-19)
(-0.000117805 0.00130969 -7.15202e-18)
(-0.000120173 0.00137284 3.42295e-18)
(-0.000177511 0.00132593 1.20705e-17)
(0.00187451 8.32277e-05 -1.13906e-17)
(0.00192123 0.000143814 1.1062e-17)
(0.00184077 0.000154526 -1.44443e-18)
(0.00528218 -5.99612e-05 2.19571e-17)
(0.00507838 -4.88679e-05 -3.7207e-17)
(0.00520246 -3.29607e-05 -6.11092e-17)
(0.00010656 0.0001478 -7.5912e-21)
(0.00010997 0.000154873 1.34981e-19)
(0.000110194 0.000160932 -3.84369e-19)
(0.000328206 -0.00117951 2.432e-17)
(0.00023639 -0.00138057 2.07673e-17)
(0.000192598 0.000204319 6.45774e-20)
(0.000195858 0.00019536 1.52222e-20)
(0.000523081 0.000873375 -4.79505e-17)
(0.00056867 0.000913865 -2.25445e-17)
(0.000583254 0.00085883 -4.32259e-18)
(5.92479e-05 8.62165e-06 3.14623e-19)
(5.92831e-05 5.93589e-06 -4.24336e-19)
(-0.00906649 0.000262523 -8.12503e-18)
(-0.00915739 0.000170427 2.16682e-17)
(-0.00919869 0.00014819 6.5494e-18)
(-0.00791003 0.0050798 3.25235e-17)
(-0.0076474 0.00506871 3.54079e-18)
(-0.00880746 0.00520989 1.27935e-18)
(0.000400625 0.000465769 1.86396e-18)
(0.000404273 0.000450281 1.91833e-18)
(0.00146683 0.0022637 3.43258e-17)
(-0.000656159 0.00229093 2.02111e-17)
(0.00259924 0.00264035 -1.40636e-18)
(0.000697146 0.000319149 -2.13487e-18)
(0.000692361 0.000304746 -4.57503e-18)
(0.000137971 5.19577e-05 1.01331e-18)
(0.000136093 4.58568e-05 -2.4015e-18)
(0.000630341 -0.00618007 1.24225e-17)
(0.000208942 -0.00661673 4.49986e-18)
(-1.64829e-06 -0.00166457 -5.59466e-18)
(9.89795e-05 -0.00167203 -5.56535e-18)
(0.00100154 0.00036985 -1.13734e-17)
(0.00102685 0.000384231 -7.58285e-19)
(-0.00207299 -0.0048224 9.59187e-18)
(-0.00210639 -0.00466173 3.60451e-18)
(-0.00158093 -0.00513591 3.23494e-18)
(-0.000513183 0.000609699 -7.06746e-18)
(-0.000561585 0.000462347 4.75398e-18)
(8.21821e-05 8.84336e-06 -1.84286e-19)
(8.30017e-05 6.36532e-06 -4.1126e-19)
(8.16147e-05 6.3451e-06 -4.44887e-19)
(0.000619571 0.000369269 2.5132e-19)
(0.000620387 0.000380721 1.0879e-17)
(-0.00441962 0.00236899 -1.64296e-17)
(-0.00473258 0.00240053 1.67837e-17)
(-0.00190306 -7.22029e-05 6.58332e-18)
(-0.00187652 -6.6233e-05 -6.51366e-17)
(-0.00190009 -3.87964e-05 -1.2768e-17)
(4.13607e-06 5.71441e-05 2.54533e-19)
(5.38485e-06 7.01127e-05 -2.01639e-18)
(6.68619e-05 4.82458e-05 5.36433e-21)
(6.99508e-05 5.41408e-05 2.2152e-20)
(6.99284e-05 5.34631e-05 6.55983e-20)
(0.00833096 2.84692e-05 1.92364e-18)
(0.00811047 -1.14031e-05 -5.25479e-18)
(0.00402996 -0.00167089 -3.78815e-18)
(0.00390931 -0.00183417 -9.09436e-19)
(0.00411145 -0.00188406 -8.07039e-18)
(4.48038e-07 1.30213e-06 -1.04157e-19)
(1.80227e-07 8.27207e-07 -4.57324e-19)
(4.40078e-07 1.59349e-06 -1.01168e-19)
(-0.000559977 -0.00548481 6.57035e-18)
(-0.000790797 -0.00545314 1.04433e-17)
(-0.000501854 -0.00528082 -1.42255e-18)
(0.00154873 0.00155957 1.06824e-17)
(0.00166469 0.00156108 1.06334e-17)
(0.00160423 0.00143904 6.70824e-18)
(-6.78077e-05 0.000839744 -1.97996e-17)
(-8.19328e-05 0.000850792 1.695e-17)
(0.000707345 0.000446116 -3.04619e-18)
(0.000714709 0.000454589 -2.21272e-17)
(0.000714501 0.000449593 -2.88072e-17)
(4.89702e-06 6.56739e-05 3.57881e-20)
(3.83968e-06 5.07201e-05 2.96807e-19)
(0.000618037 0.000804551 1.15812e-19)
(0.00060346 0.00077535 5.35069e-19)
(0.000588145 0.000802916 -1.51196e-18)
(-0.002519 0.00078056 5.18141e-18)
(-0.00282687 0.000738244 2.8821e-17)
(-0.00260482 0.000447762 -5.32406e-19)
(0.000268156 -0.000124777 -2.01524e-18)
(0.000266565 -0.00013866 5.22807e-19)
(0.000277435 -0.000131557 -2.26696e-18)
(0.000643364 0.000222643 -6.52003e-18)
(0.000689029 0.000241063 -2.14408e-17)
(0.000640859 0.000271725 1.16576e-17)
(-2.38355e-05 0.001151 -6.50612e-17)
(-7.61077e-06 0.00115535 4.54215e-17)
(-2.0285e-05 0.00117091 -2.64857e-17)
(0.000315594 5.36996e-05 1.72277e-20)
(0.000322079 5.34781e-05 -6.07523e-19)
(0.000146625 0.000318914 2.16628e-19)
(0.000146809 0.000328607 6.21816e-20)
(0.00144325 -0.00166553 -1.34203e-18)
(0.0015221 -0.00173437 -2.95149e-18)
(0.00141055 -0.00175917 9.54283e-18)
(0.00740835 -0.000275835 -7.69145e-18)
(0.00772095 -0.000204716 3.59519e-18)
(0.0076098 -0.000261215 3.35568e-18)
(0.00159998 -0.00208077 9.49317e-18)
(0.00173052 -0.00200014 -8.52303e-18)
(0.000345442 0.000659821 3.73759e-18)
(0.000336741 0.000678504 -7.85525e-18)
(0.000357901 0.000516947 -3.40786e-18)
(0.000364189 0.000532486 2.70407e-18)
(4.70079e-07 2.7001e-06 -3.08608e-19)
(4.05499e-07 2.33825e-06 3.4086e-19)
(1.26843e-07 1.29386e-06 6.14923e-19)
(-0.00512663 -0.000631736 -8.89842e-18)
(-0.00486884 -0.000680703 -2.25056e-18)
(-0.00634138 0.00196054 -2.2918e-17)
(-0.00688859 0.00234105 -9.6812e-19)
(-0.00651742 0.00199084 -1.34233e-17)
(-0.00253517 -0.0046604 3.3741e-19)
(-0.00227455 -0.00491906 5.92699e-19)
(-0.00283109 -0.00496958 -7.91253e-18)
(0.000135126 5.8634e-05 2.60772e-18)
(0.000139864 5.58981e-05 4.23787e-18)
(0.00276099 0.0010231 8.91943e-18)
(0.00271597 0.00128674 8.04134e-18)
(0.00297284 0.00114684 3.73204e-18)
(-0.00940075 -8.48274e-05 2.14803e-18)
(-0.00909104 -0.000182131 1.17113e-17)
(-0.00943216 0.000136437 1.03997e-17)
(-0.00461257 -0.00376552 -4.28436e-18)
(-0.00361975 -0.00422748 1.49405e-17)
(0.00287506 -0.00301857 1.01125e-17)
(0.00278455 -0.00304309 3.46061e-18)
(0.000123555 -0.00132055 2.48569e-18)
(0.000128711 -0.00123528 2.23522e-18)
(8.2072e-06 8.20506e-05 -4.88166e-20)
(4.9039e-05 4.43627e-06 -2.25653e-19)
(4.66981e-05 4.3605e-06 8.67664e-20)
(4.76462e-05 7.07257e-06 6.57906e-19)
(0.00154292 0.0005263 7.46043e-18)
(0.00152601 0.000470949 2.149e-17)
(0.00159042 0.000486345 -1.02217e-18)
(-0.00880092 0.00106704 -1.13767e-17)
(-0.00882756 0.000827875 1.75808e-17)
(-0.00854036 0.00091506 -1.61013e-17)
(0.00339392 0.00105363 4.51002e-18)
(0.00329799 0.00120707 8.39911e-18)
(0.00354456 0.00120537 -7.32168e-19)
(0.000626792 0.000188439 3.33825e-18)
(0.000642112 0.000185773 -4.81199e-18)
(-0.00377789 0.00620966 1.16962e-17)
(-0.00646656 0.0063623 4.42626e-18)
(0.000533437 -0.00118691 4.6285e-18)
(0.000520364 -0.00116888 7.66124e-18)
(6.95398e-05 -2.54038e-06 1.96175e-18)
(7.08938e-05 -2.53842e-06 6.67206e-19)
(7.02793e-05 -2.90159e-06 -6.42647e-19)
(-0.00145515 -0.000816493 -9.5756e-18)
(-0.001686 -0.00084866 3.47241e-17)
(-0.00158948 -0.00109735 -1.53698e-17)
(3.81368e-05 5.43845e-05 -3.10314e-20)
(3.72826e-05 5.18377e-05 3.76843e-19)
(3.51642e-05 5.68487e-05 1.29747e-18)
(-0.0109549 0.00209704 -3.20446e-18)
(-0.0108868 0.0024668 1.76756e-17)
(0.00067281 -0.000329713 5.99312e-18)
(0.000662433 -0.000357915 -3.99422e-18)
(4.67425e-07 1.01807e-06 -5.16355e-20)
(8.33796e-07 1.88831e-06 -3.28877e-19)
(0.00045222 0.000484815 -8.52439e-19)
(0.000457487 0.000500515 -8.23481e-19)
(0.000440742 0.00049383 4.85758e-19)
(0.000669225 0.000675422 -1.50489e-18)
(0.000647939 0.000668113 -5.93632e-18)
(-4.1266e-05 0.000874816 -2.97992e-17)
(-4.37626e-05 0.000857823 5.63371e-18)
(-0.000569208 -0.00578716 -1.14132e-18)
(-0.000319359 -0.00559212 -1.23609e-18)
(0.000520659 0.000588677 -3.23485e-20)
(0.000529677 0.000600814 -9.03388e-20)
(0.000512863 0.00060006 -1.46611e-19)
(0.000327945 -4.63226e-05 -2.27557e-18)
(0.000337298 -3.85259e-05 4.72346e-18)
(0.000326105 -3.63211e-05 -7.21442e-19)
(-0.00105941 0.00260143 -1.59651e-17)
(-0.00116635 0.00237642 3.37805e-17)
(-0.0012935 0.00258797 1.991e-17)
(-0.00221569 -0.00501781 2.69269e-18)
(-0.00249074 -0.00451657 -8.67384e-19)
(-0.00584755 0.00199325 -1.09581e-17)
(-0.00566718 0.0017605 4.57765e-18)
(0.000103312 0.000143365 -6.90536e-19)
(0.000101543 0.000136946 1.52482e-19)
(-0.00652737 -0.00236379 -2.28626e-18)
(-0.0055147 -0.00226066 8.82889e-19)
(-0.00708301 -0.00181118 3.99958e-18)
(6.01145e-07 0.000186827 4.50512e-19)
(1.91221e-06 0.000189567 2.52195e-18)
(-6.97891e-07 0.00019891 2.89778e-18)
(0.000321508 -5.60193e-05 -1.82586e-18)