/*--------------------------------*- C++ -*----------------------------------*\
| =========                 |                                                 |
| \\      /  F ield         | OpenFOAM: The Open Source CFD Toolbox           |
|  \\    /   O peration     | Version:  v2012                                 |
|   \\  /    A nd           | Website:  www.openfoam.com                      |
|    \\/     M anipulation  |                                                 |
\*---------------------------------------------------------------------------*/
FoamFile
{
    version     2.0;
    format      ascii;
    class       surfaceVectorField;
    location    "800";
    object      Uf_0;
}
// * * * * * * * * * * * * * * * * * * * * * * * * * * * * * * * * * * * * * //

dimensions      [0 1 -1 0 0 0 0];


internalField   nonuniform List<vector> 
20673
(
(1.10213 0.126299 -1.92708e-21)
(1.10641 0.123628 -1.89934e-20)
(1.10144 0.121056 1.37945e-20)
(1.0233 0.0424919 -1.79035e-22)
(1.02203 0.0418342 4.17297e-22)
(1.02232 0.0438528 1.4189e-22)
(0.543033 -0.0831684 -1.20705e-20)
(0.578621 -0.0859601 1.02037e-20)
(0.605808 -0.0865541 -2.89715e-20)
(1.05611 -0.0149579 -6.51502e-21)
(1.05639 -0.0138657 -9.57899e-22)
(1.05519 -0.0141928 1.251e-21)
(0.996516 0.00416812 3.74798e-21)
(0.996341 0.00375919 2.67899e-23)
(0.996038 0.00435327 8.89934e-22)
(0.371724 0.0642933 -2.23974e-19)
(0.360126 0.037342 -3.37213e-19)
(0.343103 0.0650035 -2.35274e-19)
(0.490772 -0.0703426 6.82982e-21)
(0.485029 -0.0723857 -2.51571e-21)
(0.535696 -0.0751165 7.00474e-21)
(0.602674 -0.0872591 8.33191e-22)
(0.55229 -0.0843223 -1.84353e-21)
(0.571478 -0.0877718 -1.32284e-20)
(0.39763 -0.0776087 6.0913e-22)
(0.365173 -0.0735665 -2.77291e-20)
(0.331578 -0.0694559 4.00908e-20)
(1.14492 0.152243 -1.34861e-20)
(1.15132 0.152121 3.03166e-20)
(1.14885 0.158474 4.80235e-20)
(1.11479 -0.0761094 -1.36617e-21)
(1.11316 -0.0762463 2.52808e-20)
(1.11515 -0.0778023 4.25173e-22)
(1.09226 -0.0531518 4.10219e-21)
(1.09272 -0.0546491 1.01198e-20)
(1.09364 -0.0529953 -1.70703e-20)
(1.05697 -0.0153427 -6.05072e-21)
(-0.0343393 -0.0110416 3.28152e-21)
(-0.0140957 -0.0155324 -2.14858e-20)
(-0.0409815 -0.012598 -1.94108e-20)
(0.976083 0.0988803 -3.2568e-21)
(0.971808 0.0983841 8.47074e-21)
(0.974842 0.0945403 -8.05649e-21)
(0.998346 0.0936589 3.6029e-22)
(0.995929 0.0912001 2.08002e-21)
(0.999668 0.0897817 1.89446e-21)
(1.01656 0.048675 -3.39489e-22)
(1.01802 0.0482877 -3.61825e-22)
(1.01681 0.0470701 2.84028e-22)
(1.14834 0.0137638 0)
(1.14953 0.0163251 3.34764e-20)
(1.15148 0.0128325 0)
(1.09095 -0.0537014 -4.19825e-22)
(1.09141 -0.0520325 2.90911e-21)
(1.0017 0.00521957 0)
(1.00171 0.00498532 0)
(1.00151 0.0048285 9.752e-22)
(0.999987 0.00110929 -1.14676e-22)
(0.999978 0.0014777 5.8281e-24)
(0.99999 0.00111416 -1.1918e-22)
(0.489719 -0.0705582 -2.57196e-20)
(0.453823 -0.0702896 -1.18171e-20)
(1.00109 0.00811909 3.95571e-21)
(1.00116 0.00857521 0)
(1.00128 0.00841352 1.53851e-21)
(0.644641 -0.0928905 -1.91619e-20)
(0.65464 -0.093893 4.3621e-20)
(0.995675 0.0162158 -2.05034e-21)
(0.99519 0.0160268 -6.21512e-22)
(0.995451 0.0168221 -7.03325e-21)
(0.542594 -0.0674483 1.29589e-20)
(0.505546 -0.0637007 -1.03219e-20)
(0.501747 -0.06572 1.95482e-20)
(0.788916 0.0402549 -3.024e-20)
(0.779945 0.0459568 -7.42957e-21)
(0.781065 0.0339899 -4.01332e-20)
(0.762133 0.125014 -2.29397e-20)
(0.760695 0.13757 0)
(0.751732 0.128466 1.71204e-20)
(0.717129 0.566517 0)
(0.748517 0.577299 1.33351e-20)
(0.726177 0.610935 0)
(1.20553 0.0943479 -3.45619e-20)
(1.2051 0.0892752 1.24183e-20)
(1.21037 0.0904507 0)
(1.12089 0.112331 1.88903e-21)
(1.11762 0.115555 -1.11693e-21)
(1.11643 0.110757 1.57823e-20)
(1.06697 0.091395 8.01133e-21)
(1.06398 0.0921813 9.97632e-21)
(1.06483 0.0886799 1.502e-20)
(0.842866 0.0745928 -1.28904e-20)
(0.835115 0.0773627 2.60507e-20)
(0.836324 0.0679127 -4.46355e-20)
(0.908039 0.00517155 1.03879e-20)
(0.910746 0.00211232 5.67253e-22)
(0.91208 0.00599157 -5.51278e-21)
(0.991887 0.0131027 -7.11696e-21)
(0.991367 0.0137833 -1.85101e-21)
(0.992083 0.0139962 -1.44423e-20)
(1.11515 -0.0901169 0)
(1.11652 -0.0908906 0)
(1.1138 -0.0925212 0)
(1.00094 0.00778698 -7.75691e-22)
(1.00108 0.00767089 2.25675e-21)
(0.108226 -0.0431415 8.23701e-21)
(0.082764 -0.039177 -5.07293e-21)
(0.095761 -0.0401555 -9.53933e-22)
(1.06263 -0.0199448 3.10037e-21)
(1.06348 -0.0208655 9.88634e-21)
(0.281225 -0.0160817 -1.51526e-21)
(0.256512 -0.0132538 -1.22339e-21)
(0.284863 -0.0155666 -1.00493e-20)
(1.00874 0.000934936 5.74337e-22)
(1.00913 0.000915362 -5.06763e-22)
(1.0083 0.000529966 0)
(0.999997 0.000773216 -4.18434e-21)
(1 0.000363878 0)
(0.999999 0.000395147 0)
(1.02104 0.00211161 -3.03417e-21)
(1.02075 0.00230893 1.67702e-21)
(1.02062 0.00199696 8.1344e-21)
(0.697997 0.20147 -4.27938e-20)
(0.714557 0.209286 4.27224e-20)
(0.697429 0.223492 4.33459e-20)
(1.04002 0.0238174 -4.79652e-21)
(1.041 0.0245304 0)
(1.04124 0.0235846 7.50835e-21)
(0.891223 0.0214835 0)
(0.889648 0.016929 -1.25933e-20)
(0.895102 0.0179853 2.72493e-20)
(1.14735 0.010234 3.34648e-20)
(1.14495 0.0137828 0)
(1.15077 -0.0235579 -3.59133e-20)
(1.14934 -0.0208227 -7.68853e-21)
(1.14763 -0.0236683 -7.22325e-21)
(0.0913621 0.130005 1.40926e-22)
(0.0904095 0.165451 -2.94774e-20)
(0.120169 0.144406 1.31017e-19)
(1.00342 0.000767294 -1.73226e-23)
(1.00373 0.000696431 0)
(1.00367 0.0010781 2.71882e-23)
(1.08862 0.0112655 -1.52313e-20)
(1.08977 0.0122913 -1.22689e-20)
(1.0902 0.0105884 4.21772e-21)
(0.966463 0.0122278 -4.77343e-21)
(0.965234 0.0109024 8.08922e-21)
(0.964871 0.0130024 2.28486e-20)
(0.0850346 0.100029 2.61627e-20)
(0.0515122 0.133295 8.56017e-20)
(0.905017 0.00832584 -2.65701e-20)
(0.903806 0.00389652 1.28057e-20)
(1.01633 0.0502539 0)
(1.01496 0.0487982 -8.65833e-23)
(1.08977 0.0353394 -1.20702e-20)
(1.08906 0.0375429 3.40786e-21)
(1.09167 0.0370989 1.25785e-20)
(1.11684 -0.0761588 2.27993e-20)
(1.11532 -0.0743166 1.87518e-20)
(0.996185 0.0317729 1.23943e-21)
(0.996182 0.0303484 -3.20874e-22)
(0.997269 0.0312983 1.12784e-21)
(1.07474 0.0427222 1.69468e-20)
(1.07694 0.0437237 -1.84883e-20)
(1.07487 0.0452491 1.72478e-20)
(1.03885 0.0240152 -9.34177e-21)
(1.039 0.0230761 4.03333e-21)
(0.556829 0.047841 0)
(0.412167 0.0304419 5.07426e-20)
(0.467539 0.0351163 0)
(1.02459 0.0417592 9.13609e-22)
(1.0247 0.0437431 -2.63584e-21)
(-0.0318767 -0.0084473 3.88983e-20)
(1.0017 0.0054285 9.69038e-22)
(1.0019 0.00560453 6.94055e-22)
(0.380082 0.0997518 2.36619e-19)
(0.40379 0.0685483 2.19129e-19)
(1.08628 0.374208 -2.74349e-20)
(1.04485 0.346236 -3.89229e-20)
(0.783107 0.257317 -2.42412e-20)
(0.995718 0.000384123 -6.71461e-21)
(0.995267 0.000588715 -5.14556e-21)
(0.9877 0.000423171 9.37207e-21)
(0.988454 0.00032103 -1.20524e-20)
(1.16396 -0.066526 1.38722e-20)
(1.16146 -0.0679193 4.76907e-20)
(1.16539 -0.0695506 9.72241e-20)
(1.06647 0.137928 -5.76167e-21)
(1.07199 0.13785 1.94848e-20)
(1.06844 0.144155 1.25554e-20)
(0.996942 0.00402648 -5.94506e-21)
(0.99667 0.00457953 -6.75425e-21)
(0.465119 -0.085639 -1.76066e-20)
(0.429898 -0.0822876 -3.02966e-20)
(-0.142884 -0.0241171 6.3982e-20)
(-0.118056 -0.0275622 3.90454e-21)
(-0.125784 -0.026397 3.00573e-20)
(0.996341 0.0163588 -1.27366e-21)
(0.996039 0.0154023 -1.37904e-21)
(0.0910543 0.20029 -7.96295e-20)
(0.125634 0.218567 3.49159e-22)
(0.0929393 0.238801 8.30125e-20)
(1.08464 -0.0603223 -4.66729e-21)
(1.08393 -0.0595496 2.46371e-21)
(1.085 -0.0591645 1.31767e-20)
(-0.143088 -0.0186308 -7.54028e-21)
(-0.118058 -0.0234122 7.54085e-22)
(-0.133312 -0.0189743 -1.30851e-20)
(1.0561 0.0252196 -4.26149e-21)
(1.05753 0.0257252 -3.28383e-21)
(1.05638 0.0268559 -1.49196e-20)
(0.517281 -0.0556931 1.23027e-21)
(0.514202 -0.0580923 -6.88188e-21)
(0.552977 -0.0598462 3.49759e-20)
(0.999954 0.00218833 -3.40184e-21)
(0.999907 0.00254602 0)
(0.999928 0.00258128 -4.1091e-22)
(1.00011 0.00339579 2.16896e-21)
(1.00013 0.00371386 -3.44502e-21)
(1.00014 0.0033161 2.16663e-21)
(0.996132 0.000646142 -7.53505e-21)
(0.389318 0.125761 4.32385e-20)
(0.399707 0.155869 7.78177e-20)
(0.421076 0.131881 1.06129e-21)
(0.137862 -0.0482701 0)
(0.124849 -0.0474549 -2.54118e-20)
(-0.0822643 0.00847795 -2.03186e-20)
(-0.122987 0.00544677 3.74519e-20)
(-0.111988 0.00511982 8.62425e-20)
(1.0546 0.0248398 2.26099e-21)
(1.05575 0.0238201 4.55291e-21)
(1.00046 0.00460682 9.92016e-22)
(1.00051 0.00451548 -7.62613e-22)
(1.00038 0.00418805 1.06319e-21)
(1.10719 0.402893 4.30686e-20)
(1.20785 0.441846 1.78391e-20)
(1.08685 0.0102608 7.53318e-21)
(1.08674 0.0122271 -5.29055e-21)
(1.02129 0.00198926 -7.5317e-21)
(1.02142 0.002288 -4.74972e-21)
(-0.0381741 -0.0370046 0)
(-0.0659006 -0.0337182 0)
(-0.0526483 -0.0348142 -1.38837e-20)
(1.18984 0.130014 0)
(1.18362 0.13221 -3.58165e-20)
(1.18721 0.136728 -1.1117e-20)
(1.02462 0.0241613 0)
(1.02495 0.0233277 0)
(1.02393 0.0233379 -1.19999e-21)
(0.975888 0.0546284 6.19093e-21)
(0.973832 0.0558943 -3.72656e-21)
(0.976347 0.0571526 3.33769e-21)
(1.18255 0.435875 -6.84788e-20)
(1.03005 0.393819 1.08012e-21)
(0.374318 0.0101307 -5.453e-20)
(0.402992 0.00298063 1.65347e-19)
(0.380116 -0.0243647 4.01367e-21)
(1.1341 -0.0629696 -1.90933e-20)
(1.13625 -0.0632105 -5.13248e-20)
(1.13504 -0.0653182 -8.39198e-21)
(1.14853 -0.0129072 -2.84392e-20)
(1.15153 -0.0128203 7.84721e-23)
(1.15002 -0.0102328 2.85269e-20)
(1.08927 -0.068524 -8.94209e-21)
(1.08869 -0.0691862 -1.52037e-21)
(1.0883 -0.0686611 5.30675e-22)
(0.59502 0.137041 2.86969e-20)
(0.615166 0.12254 3.45527e-20)
(0.617022 0.149038 4.53015e-20)
(1.01143 0.00570029 -1.3759e-22)
(1.01189 0.00579628 1.63361e-21)
(1.01172 0.0061979 1.03989e-22)
(0.840873 0.00280803 -4.61917e-20)
(0.844468 0.0102619 4.94793e-20)
(0.848554 0.00334647 2.50103e-20)
(0.68148 0.194812 -7.41088e-20)
(0.699528 0.186011 -4.67165e-20)
(1.06357 0.0187971 -6.52107e-21)
(1.06484 0.0184564 -6.16084e-21)
(1.06369 0.0171882 -5.66171e-21)
(1.01695 0.0124117 -2.73443e-21)
(1.01697 0.0118256 -1.45935e-21)
(1.01756 0.0123542 1.27792e-21)
(0.413892 -0.0726029 2.48295e-20)
(0.402932 -0.0715515 2.20733e-20)
(0.48182 -0.074246 4.15774e-20)
(0.822156 0.503843 7.85845e-21)
(0.793766 0.521906 7.26431e-21)
(0.832895 0.530066 1.47636e-20)
(1.15187 -0.0255165 2.51814e-20)
(1.15341 -0.0231216 -2.36256e-20)
(1.01961 0.0478136 5.99472e-22)
(1.01959 0.0496194 -1.62197e-22)
(1.11949 0.125835 1.74704e-20)
(1.11573 0.128712 -2.07276e-20)
(1.12072 0.131018 -2.42653e-20)
(-0.17037 -0.0163848 -3.08438e-20)
(-0.201203 -0.016157 -2.67076e-20)
(-0.188341 -0.0161923 -6.70577e-20)
(0.298668 -0.0186086 -9.67679e-21)
(0.274706 -0.0154792 0)
(1.09365 -0.0600937 3.95445e-21)
(1.09268 -0.0604773 1.70111e-20)
(1.09345 -0.0611525 -7.77399e-21)
(0.41406 -0.0743746 -5.85454e-20)
(0.348635 -0.0719853 -3.18948e-20)
(0.949383 0.010745 -2.15273e-20)
(0.948045 0.0128238 2.1322e-20)
(0.947236 0.0100939 1.36303e-21)
(0.0882779 -0.124717 8.08982e-20)
(0.0989684 -0.0950814 8.72502e-20)
(0.0615533 -0.100757 -1.03706e-19)
(1.00135 0.0144687 3.20161e-21)
(1.00145 0.0151461 6.28991e-21)
(1.00107 0.0148195 3.28502e-21)
(0.18152 0.103594 -1.98447e-19)
(0.211594 0.0851083 -7.61475e-23)
(0.2127 0.120256 -5.71234e-21)
(0.153009 -0.0180397 -2.16372e-21)
(0.160997 -0.0199032 -2.00583e-20)
(0.174111 -0.0235875 -9.95119e-21)
(0.907733 0.0162165 3.84202e-21)
(0.904965 0.0195164 -3.52713e-20)
(0.909592 0.0198975 -1.38619e-20)
(1.00001 0.00116532 6.43228e-25)
(0.999994 0.00115583 -2.47243e-21)
(1.16631 -0.0653477 -5.49227e-20)
(1.16296 -0.0641756 -5.76667e-20)
(0.113004 -0.0202935 -8.71007e-21)
(0.133433 -0.0245709 0)
(0.125559 -0.0239081 0)
(0.763917 0.113071 -2.98354e-22)
(0.775723 0.12174 -5.84776e-21)
(1.00516 0.00067382 7.50843e-22)
(1.0054 0.000978809 4.87048e-22)
(1.0055 0.000571543 2.41887e-22)
(0.975769 0.0519303 9.01657e-22)
(0.978127 0.0531902 -5.20447e-21)
(1.03608 0.0273012 -3.89558e-21)
(1.0369 0.0282031 -1.70136e-21)
(1.03577 0.0283121 -1.34714e-21)
(1.00484 0.000689129 -4.24952e-22)
(1.00471 0.00033824 1.74686e-22)
(1.01807 0.00174035 1.59108e-21)
(1.0183 0.00157112 1.08463e-21)
(1.01799 0.00148249 1.23267e-21)
(0.346024 0.0112421 6.1723e-20)
(0.233491 -0.0415881 0)
(0.222111 -0.0387842 0)
(0.211528 -0.0354248 7.7874e-21)
(0.950879 0.0083539 1.38827e-21)
(0.951928 0.0110784 -7.13231e-21)
(1.04196 0.0252346 0)
(1.04072 0.0255454 0)
(0.999974 0.00108593 4.04679e-22)
(1 0.000739688 3.53218e-21)
(1.24083 -0.00779556 1.75857e-21)
(1.2645 -0.00502208 3.04677e-21)
(1.20619 -0.0141242 -6.17441e-21)
(0.692303 -0.0975683 -5.05957e-20)
(0.634084 -0.0926051 -1.74752e-20)
(1.10246 0.131246 -1.34537e-20)
(1.09783 0.128265 -1.31964e-20)
(0.578527 0.148268 2.05895e-20)
(0.579134 0.120347 -2.119e-20)
(0.995236 0.00105268 -2.63737e-21)
(0.994773 0.00074944 -1.78885e-21)
(0.90619 0.0122898 -1.21462e-20)
(0.910477 0.0133526 4.93661e-20)
(1.10991 -0.0901636 -9.2932e-21)
(1.10713 -0.089158 1.4816e-20)
(1.10338 -0.0875171 1.72479e-20)
(1.02585 0.012666 3.53992e-21)
(1.02581 0.0132551 0)
(1.02508 0.0127529 1.63521e-21)
(0.963889 0.0243249 -1.11464e-21)
(0.961778 0.0251015 1.29642e-20)
(0.962445 0.0225097 -2.3181e-21)
(0.664565 0.198874 -2.79871e-20)
(0.644099 0.205115 7.57384e-20)
(0.662788 0.221906 -1.18361e-19)
(0.987498 0.00115571 3.57551e-21)
(0.986922 0.000636574 1.30392e-20)
(0.671391 -0.0901273 2.83771e-20)
(0.592988 -0.0849951 5.35063e-20)
(0.665602 -0.0886132 3.98914e-20)
(0.810355 0.610063 2.02381e-21)
(0.818158 0.580537 -1.46905e-21)
(0.783169 0.581469 1.45667e-20)
(0.967819 0.0138346 -2.44909e-20)
(0.968336 0.0116576 -8.93473e-21)
(1.02428 0.010608 3.3862e-21)
(1.02437 0.0111686 0)
(1.02367 0.0107031 0)
(1.06164 0.0990622 -9.01826e-21)
(1.05792 0.0995974 1.74508e-20)
(1.06059 0.103482 -1.12685e-20)
(1.12056 -0.0319111 4.29235e-21)
(1.12212 -0.0338044 1.41186e-20)
(1.12234 -0.030746 2.23906e-20)
(0.112425 -0.145974 -4.61668e-20)
(0.0731348 -0.155209 3.10174e-20)
(1.11291 -0.0565048 1.57462e-20)
(1.1146 -0.0573961 6.93465e-21)
(1.11264 -0.0581115 -9.66139e-21)
(1.02806 0.185144 2.21257e-21)
(1.03118 0.180179 -4.93955e-21)
(1.03581 0.184288 3.23723e-21)
(1.08361 0.0626888 1.06824e-20)
(1.08149 0.0647932 -6.0343e-22)
(1.08067 0.0617446 1.06465e-20)
(-0.0450688 0.0384848 3.06295e-20)
(-0.0627434 0.0436564 4.4645e-20)
(-0.0951872 0.0367604 -6.57819e-20)
(1.06134 0.138522 3.21673e-21)
(1.06424 0.133482 -1.31406e-20)
(1.10154 -0.109234 -6.54896e-21)
(1.13109 -0.106538 -7.83752e-21)
(1.13811 -0.105561 1.04286e-20)
(-0.175565 -0.0161554 -2.34586e-22)
(-0.150878 -0.0192544 -3.60913e-20)
(1.27646 -0.00424463 -1.23594e-20)
(1.19487 -0.00651559 5.02607e-20)
(0.942636 0.0469132 9.51727e-21)
(0.939862 0.0485807 1.9502e-20)
(0.939654 0.0449552 0)
(0.78892 -0.0231311 1.30878e-20)
(0.783249 -0.0146358 -4.81283e-20)
(0.777376 -0.025554 -9.99747e-20)
(1.00003 0.00265517 0)
(1.00005 0.00255536 2.97401e-22)
(1 0.00219391 -2.46284e-21)
(1.1315 -0.0634497 -8.37426e-21)
(1.13285 -0.0609981 -1.72058e-20)
(1.09494 -0.0597803 -2.82463e-20)
(1.09385 -0.0588801 2.2713e-20)
(1.08967 -0.0679032 -1.15577e-21)
(1.09018 -0.0684796 -2.25591e-20)
(1.06343 0.0201651 0)
(1.06231 0.0189896 1.28042e-22)
(1.13468 -0.0234602 -1.64621e-21)
(1.13302 -0.0252704 5.59874e-21)
(1.1358 -0.0260496 2.18752e-20)
(1.03348 0.0202335 -2.67641e-21)
(1.03434 0.0208446 -2.45928e-21)
(1.03329 0.0211537 3.30053e-21)
(0.837687 -0.00351037 -7.36957e-20)
(0.833064 0.00381024 -4.29715e-20)
(1.05377 0.17888 -9.13081e-21)
(1.04638 0.178333 -4.55125e-21)
(1.05173 0.172066 0)
(-0.302808 -0.00761454 5.24567e-20)
(-0.319851 -0.00657796 6.62778e-20)
(-0.289664 -0.00768553 5.2666e-20)
(1.09037 -0.0621354 -8.81133e-23)
(1.09083 -0.0630652 1.54403e-22)
(1.09142 -0.062149 7.63175e-21)
(1.01563 0.056736 1.26776e-22)
(1.01562 0.058577 -1.05294e-22)
(1.01377 0.0573735 7.45496e-23)
(0.781823 -0.0987461 -8.53991e-22)
(0.772038 -0.0987479 0)
(0.845901 -0.0999875 0)
(1.02007 0.203451 1.84097e-21)
(1.01715 0.208545 -3.10369e-21)
(1.02509 0.208341 -4.31489e-21)
(0.244851 -0.0420173 2.09673e-20)
(0.260027 -0.0454377 0)
(0.150413 0.0864922 3.40469e-20)
(0.151202 0.124 -7.25837e-20)
(0.686944 -0.0922043 1.17569e-20)
(0.755443 -0.0932706 1.25753e-20)
(1.0136 0.0270393 -1.11884e-23)
(1.01432 0.0277017 -2.46148e-22)
(1.01346 0.0279365 -2.5475e-22)
(1.19568 0.128632 1.75437e-20)
(1.19191 0.124225 2.64056e-20)
(1.12616 0.113905 -1.5828e-20)
(1.12466 0.109115 4.3565e-21)
(1.02655 0.0125249 -5.01906e-22)
(1.02579 0.0120486 3.53221e-21)
(1.00043 0.00471815 0)
(1.00053 0.00506455 -1.51803e-21)
(0.938995 0.120431 1.046e-20)
(0.934993 0.116482 1.61157e-20)
(0.941119 0.115855 0)
(0.588174 -0.0709743 2.69117e-21)
(0.583709 -0.0715725 -2.78375e-24)
(1.26767 0.138894 -2.28413e-20)
(1.27538 0.137077 -4.67284e-20)
(1.27617 0.144277 -1.16172e-20)
(-0.0275066 0.0383686 1.18869e-19)
(0.0380318 0.052449 1.74948e-19)
(1.12248 0.0375909 -8.94409e-21)
(1.12207 0.0403507 1.34445e-20)
(1.12492 0.0389803 2.7964e-20)
(1.09661 -0.0681092 0)
(1.09578 -0.0681941 -2.64577e-22)
(1.09609 -0.0690747 -1.80979e-20)
(1.12534 -0.0946881 0)
(1.13108 -0.0965227 0)
(1.13492 -0.0971983 8.59338e-21)
(-0.0365289 0.0106518 -3.76311e-20)
(-0.049643 0.0103984 -1.69474e-19)
(1.26094 0.183732 6.31242e-20)
(1.26135 0.17688 3.0739e-20)
(1.26926 0.181007 -5.39288e-20)
(0.999939 0.00862634 2.82089e-21)
(1.00001 0.00821513 -6.63995e-22)
(0.999843 0.00812322 2.5928e-21)
(0.567136 0.0585292 -2.2293e-20)
(0.572906 0.0786348 8.3473e-20)
(0.547906 0.0729161 1.96458e-20)
(0.797358 0.0368125 -3.52548e-21)
(0.796628 0.0479969 3.44453e-21)
(1.00983 0.000379844 -1.37104e-21)
(1.00947 0.000375458 2.99463e-22)
(1.02423 0.0248389 1.17553e-21)
(1.02533 0.0249242 0)
(0.871061 0.470418 4.82597e-21)
(0.865747 0.442737 -1.09238e-20)
(0.893186 0.451696 -4.63394e-21)
(1.22873 0.496561 9.29426e-20)
(1.22865 0.474972 -3.26438e-20)
(1.11259 0.435418 1.53116e-20)
(1.07772 -0.00685488 0)
(1.07882 -0.00777393 2.85958e-21)
(1.07927 -0.00633251 -4.1369e-22)
(1.00324 0.000921468 -1.90169e-22)
(1.00322 0.000575488 -1.48413e-23)
(1.1271 -0.0262614 2.79742e-21)
(1.12573 -0.024221 2.11578e-20)
(1.12875 -0.0242448 0)
(1.11912 -0.0335532 -9.49354e-22)
(1.1186 -0.030735 2.50957e-20)
(-0.159322 -0.0222691 4.1808e-20)
(-0.166291 -0.0215338 3.43551e-20)
(1.24741 -0.0509842 -4.45761e-20)
(1.24972 -0.0540238 -4.29427e-20)
(1.25982 -0.0511012 -4.54725e-20)
(0.992347 0.0126439 9.10682e-21)
(0.991868 0.0124838 5.99749e-23)
(0.995113 0.0320532 1.5474e-22)
(0.996167 0.0329458 -7.52246e-21)
(1.14578 -0.0130269 -5.38997e-20)
(1.14693 -0.0155691 -7.13263e-22)
(0.560967 -0.0770823 2.50957e-20)
(0.618383 -0.079665 -4.23318e-21)
(0.600601 -0.0796959 1.44161e-20)
(0.965752 0.023294 -1.37936e-20)
(0.96553 0.0256916 4.20745e-21)
(0.476869 -0.0734095 -1.68588e-21)
(0.466497 -0.0736819 1.56974e-20)
(0.52054 -0.0768246 6.87518e-21)
(-0.215237 -0.0165018 -1.50979e-20)
(-0.189545 -0.0183144 -1.70197e-20)
(-0.209026 -0.0164672 6.47954e-21)
(1.09715 -0.0672915 0)
(1.09776 -0.0684398 1.46987e-20)
(1.01648 0.0123688 -8.74316e-22)
(1.01695 0.0128552 -8.50208e-22)
(0.493419 0.394611 1.0686e-20)
(0.513054 0.429615 -1.08311e-19)
(0.460054 0.430492 -7.75196e-20)
(1.13739 -0.0128441 0)
(1.14022 -0.0130079 2.59207e-20)
(1.13877 -0.0104138 3.80735e-22)
(-0.294515 -0.0127338 2.96181e-20)
(-0.262709 -0.0153419 -2.207e-20)
(-0.280871 -0.0119835 3.76105e-20)
(1.00349 0.0190181 -5.76303e-22)
(1.0039 0.0194152 1.02765e-21)
(1.00352 0.0198374 -1.9086e-21)
(0.701427 0.0687286 -2.29974e-22)
(0.657642 0.0663852 4.83092e-20)
(1.01281 0.0262792 3.54428e-22)
(1.01367 0.0261585 5.89732e-22)
(1.20169 0.0670662 -3.90228e-20)
(1.19778 0.0646557 2.93582e-20)
(1.19765 0.0691994 1.96094e-21)
(1.00859 0.0012143 1.71071e-21)
(1.00838 0.000842263 -1.08634e-21)
(0.0792344 -0.0460192 6.31362e-21)
(0.0543323 -0.0433899 3.93171e-20)
(0.0736488 -0.044385 3.38144e-21)
(0.393735 -0.0704071 -4.16521e-20)
(0.383349 -0.0694716 2.52436e-20)
(0.458785 -0.0712051 3.97338e-20)
(0.997859 0.0970006 1.27799e-21)
(1.00148 0.095663 -2.13784e-21)
(1.1871 0.494559 9.57227e-20)
(1.22858 0.506813 8.24394e-20)
(1.19887 0.475992 4.75657e-21)
(1.08658 0.0632903 0)
(1.08508 0.0603866 0)
(1.01578 0.0122616 9.07273e-22)
(1.01588 0.0116999 2.53599e-21)
(1.10778 -0.0884907 0)
(1.11455 -0.0898524 -1.26173e-20)
(1.08933 -0.0621673 0)
(1.08987 -0.0611919 0)
(1.12017 0.0362419 -3.67892e-20)
(1.12267 0.0348996 -2.4639e-20)
(0.669478 -0.0913298 -6.64977e-21)
(0.622649 -0.0895605 1.54811e-20)
(0.692247 -0.0914489 1.37288e-20)
(-0.223347 -0.0132568 -1.32436e-20)
(-0.24413 -0.0129218 0)
(1.0124 0.00309172 -4.65616e-22)
(1.0128 0.00313553 -4.12242e-22)
(1.01258 0.00271258 -1.10546e-21)
(1.06994 0.0902919 -1.11726e-20)
(1.06928 0.094191 7.33594e-21)
(-0.0192541 -0.0402778 0)
(-0.00605906 -0.0413021 -1.15231e-20)
(-0.135513 0.0097166 3.1073e-20)
(-0.16358 0.00747499 -9.46627e-21)
(-0.139064 0.010148 2.78124e-20)
(1.00002 0.00263125 0)
(1.00001 0.00304967 0)
(1.00638 0.00920533 6.20547e-23)
(1.00681 0.00945586 2.31602e-22)
(1.00657 0.00967674 -1.08837e-22)
(0.319751 -0.0152679 0)
(0.338167 -0.0179845 0)
(1.14223 -0.0657637 -5.49145e-21)
(1.14001 -0.0660113 -2.22768e-21)
(1.14097 -0.0683262 3.0126e-20)
(1.00006 0.00014301 3.37591e-22)
(1.00003 0.000109515 -1.13919e-21)
(1.00006 0.000179629 1.18953e-22)
(1.09416 -0.0839615 1.05831e-20)
(1.09246 -0.0829791 2.23288e-20)
(1.09315 -0.0823837 9.3097e-21)
(1.18903 0.00498021 -3.4902e-20)
(1.18765 0.00125625 1.24692e-20)
(1.18475 0.0047462 2.63276e-20)
(0.798142 -0.0230653 3.13303e-20)
(0.793586 -0.0326525 -2.80059e-21)
(1.09835 0.108554 0)
(1.10151 0.112181 0)
(1.1021 0.106953 1.13946e-20)
(1.00005 0.00299165 4.25387e-23)
(1.00007 0.00253849 2.74921e-22)
(0.985349 0.215362 -1.45783e-21)
(0.986705 0.205494 -5.39029e-22)
(0.976819 0.209873 -1.4053e-21)
(-0.18642 -0.0170302 -2.40869e-21)
(-0.183789 -0.0161664 4.58497e-20)
(-0.21687 -0.0126336 9.41579e-22)
(1.04128 0.00178265 -4.1494e-21)
(1.04146 0.00107285 -1.08677e-21)
(1.0423 0.00157778 1.20006e-21)
(1.21235 0.144955 -4.01321e-21)
(1.20657 0.148392 1.89307e-20)
(1.20724 0.140367 1.26193e-20)
(0.568471 0.165992 3.25001e-20)
(0.584051 0.186729 7.82816e-20)
(0.554096 0.192159 -2.00949e-20)
(1.03526 0.0263846 -4.91522e-22)
(1.03633 0.0262066 1.55401e-21)
(0.996233 0.029076 -1.29432e-21)
(0.995264 0.0294734 -1.27993e-21)
(1.10859 -0.0491839 1.80835e-20)
(1.11015 -0.0503316 5.2183e-21)
(1.10818 -0.0508876 1.64555e-20)
(0.352387 -0.0235581 0)
(0.337258 -0.0210515 0)
(0.335206 -0.0212006 -5.3253e-21)
(1.11121 -0.0559487 2.49641e-20)
(1.11316 -0.0549125 -1.73906e-20)
(0.942038 0.124838 -1.4498e-21)
(0.936361 0.126131 8.14747e-21)
(0.980087 0.0986855 -3.08104e-21)
(0.977509 0.10259 -3.12599e-21)
(1.00006 0.000311017 -5.59454e-22)
(1.00005 0.000270257 6.1298e-22)
(1.00002 0.000182621 8.23009e-22)
(0.0933972 -0.0167881 -7.76387e-21)
(0.101155 -0.0172921 2.54148e-21)
(0.542509 -0.0419698 -4.94656e-20)
(0.630395 -0.0456364 -2.17048e-20)
(0.62428 -0.0426824 3.74666e-20)
(1.08943 -0.0792046 5.11037e-21)
(1.09258 -0.0801399 -1.80601e-20)
(1.09635 -0.0800339 -1.69541e-20)
(1.01524 0.0122083 4.11368e-21)
(1.01573 0.0127388 3.16517e-21)
(-0.194018 -0.0187352 0)
(-0.166777 -0.0213266 -1.35366e-22)
(-0.177491 -0.0197636 3.44036e-20)
(-0.0190352 -0.0205381 -1.00512e-20)
(-0.0127943 -0.0198194 4.54715e-21)
(-0.0382933 -0.0154174 -1.09577e-20)
(1.05197 -0.108727 7.9475e-21)
(1.06928 -0.108567 1.83649e-20)
(0.515167 -0.0556706 -1.04199e-20)
(0.486049 -0.0551518 -2.02116e-20)
(1.08534 -0.060873 -1.52521e-20)
(1.08439 -0.0611591 1.42796e-20)
(1.00006 0.00346604 -2.95073e-22)
(1.00657 0.00075157 -4.58016e-22)
(1.00623 0.000803144 -2.52613e-22)
(1.00664 0.00118156 1.06794e-21)
(1.14664 0.00789399 -4.41436e-21)
(1.14371 0.00775791 -6.25024e-20)
(1.14564 0.00511776 -2.33003e-20)
(0.00446917 -0.0360912 3.98984e-20)
(-0.0136386 -0.0322485 1.03522e-20)
(-0.0200574 -0.0319826 -2.61504e-21)
(1.17292 -0.0389111 -2.24713e-20)
(1.17532 -0.0367871 7.11401e-21)
(1.17599 -0.0408542 2.63585e-20)
(1.0725 0.0419637 1.19931e-20)
(1.0744 0.040589 -5.39905e-21)
(1.23923 -0.0496877 -3.0208e-20)
(1.19738 -0.0571285 -3.28545e-20)
(1.07877 -0.0439645 0)
(1.07785 -0.0431316 1.66191e-20)
(1.01794 0.00095258 -2.68938e-21)
(1.01793 0.00119513 -2.71246e-21)
(1.01815 0.00105621 3.07032e-21)
(0.892426 0.022208 0)
(0.884961 0.0165145 0)
(0.793514 0.00396613 -7.69752e-20)
(1.00214 0.00507491 -1.24332e-22)
(1.00213 0.00484927 8.79229e-22)
(1.00193 0.00472185 9.02124e-22)
(0.782152 -0.0998553 1.80825e-20)
(0.710811 -0.0975807 1.81932e-20)
(1.0765 -0.00558748 1.63783e-22)
(1.07598 -0.00706104 -8.163e-21)
(1.00007 0.00011079 5.70546e-22)
(1.0001 0.000174449 9.2348e-22)
(1.00468 0.110897 -1.22192e-22)
(1.00355 0.115689 5.17654e-22)
(1.00058 0.11124 -2.93124e-21)
(1.02624 0.191019 6.84607e-21)
(1.02162 0.1856 3.82121e-21)
(0.777986 -0.0047455 0)
(0.788319 -0.00434839 -4.7228e-21)
(1.10056 -0.0853176 -1.38821e-20)
(1.09636 -0.0846813 1.0561e-20)
(1.00285 0.146049 4.63959e-22)
(1.00321 0.152266 3.79009e-22)
(0.997053 0.148205 3.32181e-22)
(1.04489 0.0077629 2.69646e-20)
(1.0456 0.0085904 1.4931e-20)
(1.04446 0.00847213 7.65312e-21)
(1.26938 0.012771 3.4664e-21)
(1.27284 0.0175142 -5.91879e-20)
(1.29208 0.0142174 -5.40014e-20)
(0.709064 -0.0927433 0)
(0.64264 -0.0921001 1.04818e-20)
(0.467632 -0.0468385 -2.98779e-21)
(0.472133 -0.0451712 2.86628e-21)
(1.00304 0.0187919 -1.69409e-22)
(1.00338 0.0183998 -1.14717e-21)
(1.03332 -0.108337 -4.95689e-21)
(1.07768 -0.107507 -3.81958e-20)
(1.02129 -0.107721 -5.81627e-21)
(0.9985 0.00091057 3.87572e-21)
(0.998402 0.00117562 1.29545e-21)
(0.998217 0.000986792 2.32514e-23)
(1.04443 0.00691095 -4.30333e-22)
(1.04557 0.00696784 1.25936e-20)
(1.00122 0.013746 -5.4955e-21)
(1.0016 0.0140732 -1.66686e-21)
(0.840268 0.640761 7.18808e-21)
(0.792705 0.646458 -2.68534e-21)
(1.00167 0.000969487 -4.09117e-22)
(1.00182 0.000844635 0)
(1.00156 0.000762167 0)
(1.20531 0.0692744 -3.37628e-20)
(1.20551 0.0648482 -1.59137e-20)
(1.09458 0.111118 -7.48155e-22)
(1.09478 0.105924 1.01006e-20)
(1.03255 0.0195597 3.16381e-21)
(1.03359 0.0193098 -2.43355e-21)
(1.12825 -0.0283932 -1.30427e-20)
(1.12529 -0.027583 -2.59198e-20)
(1.04001 0.0583443 0)
(1.04089 0.056557 0)
(1.04235 0.0583636 0)
(0.1196 0.0660936 -1.95109e-20)
(0.107221 0.0505098 3.22981e-20)
(0.105116 0.0820729 -5.69408e-20)
(1.0237 0.197916 5.64184e-21)
(1.01616 0.198378 6.83925e-21)
(1.18027 0.126202 -1.03215e-20)
(1.17715 0.132648 -1.78629e-20)
(1.03095 0.0135583 0)
(1.03166 0.0141793 -1.60379e-21)
(1.03167 0.013316 0)
(0.997144 0.0286662 0)
(0.996266 0.0279059 6.32052e-21)
(-0.189751 -0.0142703 6.13728e-20)
(-0.212361 -0.0139311 0)
(-0.217256 -0.0139705 0)
(0.0901732 -0.0201471 -7.98255e-21)
(0.0816837 -0.0195673 1.19684e-21)
(0.103786 -0.0244043 2.65147e-22)
(1.00146 0.0158436 3.15543e-21)
(1.00179 0.01549 -1.0842e-21)
(1.00727 0.000690869 4.05779e-22)
(1.00772 0.000930144 4.32134e-22)
(1.00731 0.00122399 -7.0201e-22)
(0.884005 0.0212402 4.72288e-20)
(1.00254 0.0306697 -2.13127e-20)
(1.01668 0.0253788 5.64312e-22)
(1.01696 0.0263716 1.236e-22)
(1.01777 0.0258458 6.57708e-22)
(-0.0910177 -0.0307083 -2.89748e-20)
(-0.1091 -0.0286066 -4.23786e-20)
(1.03016 0.0131256 -4.12653e-21)
(1.0302 0.0139757 0)
(0.0838328 -0.0470387 0)
(0.104159 -0.0490451 0)
(1.04759 -0.00726123 5.44272e-21)
(1.04699 -0.00789461 6.30441e-21)
(1.04792 -0.0080122 1.19008e-20)
(1.22573 0.328164 -9.11098e-21)
(1.2131 0.327386 2.85063e-20)
(1.21839 0.340563 4.21499e-20)
(1.10535 -0.00283654 -4.57741e-20)
(1.10541 -0.00067462 -3.26063e-20)
(1.10759 -0.00187857 9.6237e-21)
(0.0976709 0.313815 -5.96119e-20)
(0.0960772 0.273614 -5.64575e-20)
(0.131206 0.291176 -1.42643e-19)
(0.945895 0.0480369 -1.14265e-20)
(0.945361 0.0446024 3.76124e-21)
(1.3095 0.00574001 -1.18489e-19)
(1.28747 0.00394559 -3.00537e-20)
(0.516676 0.301276 -5.75833e-20)
(0.489825 0.311756 -4.74957e-20)
(0.517833 0.333868 4.69957e-21)
(1.00876 0.111044 -6.6212e-22)
(1.00618 0.107696 1.6859e-21)
(1.14352 -0.0639433 1.4367e-20)
(1.1445 -0.0662534 0)
(0.957331 0.519117 -4.04593e-22)
(0.974862 0.537564 -2.1025e-20)
(0.945037 0.542758 0)
(0.998279 0.0453517 4.99555e-21)
(0.99675 0.0449017 2.85843e-21)
(0.997229 0.0467443 -2.21514e-21)
(0.175891 -0.0419395 0)
(0.150146 -0.0374328 3.04928e-21)
(0.161347 -0.0383442 1.3195e-20)
(0.582149 0.0472651 -9.17573e-20)
(0.561461 0.0384855 -1.39353e-19)
(-0.00233257 -0.0239312 1.28839e-20)
(-0.021677 -0.0216919 -3.47223e-20)
(0.923574 0.0215199 -4.16872e-21)
(0.919973 0.0228249 -2.72526e-20)
(0.922843 0.0255729 -3.4099e-20)
(0.214274 -0.0169975 6.07383e-21)
(0.190114 -0.0134368 2.10452e-20)
(0.217592 -0.0161995 8.1667e-21)
(1.07319 0.0892702 -5.44987e-21)
(1.07573 0.0927276 0)
(1.0767 0.0889735 -1.01066e-20)
(-0.111094 -0.00764416 -3.41352e-20)
(-0.0817559 -0.00713004 -7.99622e-20)
(-0.0712773 -0.0082484 2.43748e-22)
(0.523016 0.270043 4.73638e-20)
(0.548552 0.293278 4.62748e-20)
(0.932675 0.357755 7.36105e-21)
(0.91584 0.355381 -4.90848e-21)
(0.925151 0.373216 2.3718e-21)
(0.951079 0.363216 3.77852e-21)
(0.942494 0.344574 3.72498e-21)
(0.513972 -0.0818806 1.91373e-20)
(0.48431 -0.0818382 -1.39879e-20)
(0.999791 0.0028335 1.96148e-21)
(0.999734 0.00315392 5.51956e-22)
(0.999763 0.00318478 5.47741e-22)
(1.06082 0.177637 1.12557e-20)
(1.05786 0.184808 -1.88641e-20)
(-0.135383 -0.0176192 -4.94198e-20)
(-0.148643 -0.0169615 -6.4701e-20)
(0.984195 0.0314901 8.08068e-21)
(0.983318 0.03241 9.94392e-22)
(0.982926 0.0307492 -1.45552e-21)
(1.00498 0.0755903 -1.14153e-21)
(1.00571 0.0731291 1.45906e-21)
(1.00293 0.0736931 1.24378e-22)
(0.00523922 -0.0205759 1.41463e-20)
(0.013098 -0.0207161 0)
(0.847485 0.48944 -8.63221e-21)
(0.880417 0.497692 4.66622e-21)
(1.01929 0.053265 -4.62826e-22)
(1.01932 0.0549229 -1.04079e-21)
(1.0212 0.054298 -2.73602e-21)
(1.12021 -0.0928904 0)
(1.11703 -0.0925748 0)
(0.681725 0.561557 3.01445e-20)
(0.708258 0.533206 0)
(1.00941 0.00513345 1.04172e-21)
(1.00985 0.00538509 -8.25274e-22)
(1.00977 0.00489218 1.0894e-23)
(0.145104 -0.0178897 1.93202e-20)
(0.125358 -0.0143043 2.37774e-20)
(1.11819 -0.0924413 -6.24014e-21)
(1.12253 -0.0941571 -2.10112e-20)
(1.1138 -0.0912973 1.17227e-20)
(1.00213 0.00529616 4.9806e-23)
(1.00235 0.00544257 -3.9269e-22)