/*--------------------------------*- C++ -*----------------------------------*\
| =========                 |                                                 |
| \\      /  F ield         | OpenFOAM: The Open Source CFD Toolbox           |
|  \\    /   O peration     | Version:  v2012                                 |
|   \\  /    A nd           | Website:  www.openfoam.com                      |
|    \\/     M anipulation  |                                                 |
\*---------------------------------------------------------------------------*/
FoamFile
{
    version     2.0;
    format      ascii;
    class       volVectorField;
    location    "550";
    object      U_0;
}
// * * * * * * * * * * * * * * * * * * * * * * * * * * * * * * * * * * * * * //

dimensions      [0 1 -1 0 0 0 0];


internalField   nonuniform List<vector> 
13851
(
(1.01957 -0.0118081 0)
(0.58512 0.128402 -1.02291e-21)
(1.05227 -0.0671918 1.1599e-20)
(1.01948 -0.0113558 3.72744e-22)
(1.07178 -0.0550894 0)
(1.05369 -0.0315814 0)
(1.0324 -0.00154348 9.87965e-21)
(1.05045 -0.0485169 0)
(1.00717 -0.00204822 1.66806e-22)
(1.01578 -0.0660961 -1.20417e-21)
(0.904551 -0.0261857 1.10971e-22)
(0.445402 -0.152352 1.99904e-21)
(0.96626 -0.0510254 -1.47946e-20)
(0.105735 0.207084 0)
(1.02031 -0.000535274 0)
(1.03522 -0.0327224 0)
(1.04414 -0.0237204 3.36979e-21)
(1.02386 -0.0244684 -5.2851e-23)
(1.07923 -0.0556111 9.85839e-21)
(1.00711 -0.00204723 0)
(1.01936 -0.0113535 0)
(1.05501 -0.0654816 -1.14328e-20)
(1.00128 0.00010794 3.21373e-22)
(1.00197 -0.000155333 -1.75822e-22)
(1.00073 3.04835e-05 0)
(1.04864 -0.0492513 -5.52289e-21)
(1.0536 -0.0173731 6.77677e-21)
(0.0153191 -0.100338 -2.28115e-20)
(1.01959 -0.0120275 0)
(1.0287 -0.0205858 -1.83001e-21)
(1.05651 -0.0443058 0)
(1.04461 -0.024706 3.48973e-21)
(1.04986 -0.0660442 -4.81057e-21)
(0.910244 0.0974456 2.75468e-21)
(1.00264 -0.000195963 4.75324e-22)
(1.09186 -0.0567686 0)
(1.09895 -0.0616559 1.58993e-22)
(1.08203 -0.0767239 -1.26783e-20)
(1.01382 -0.0699493 4.80655e-22)
(0.928039 0.0610719 0)
(1.01706 -0.00806682 -1.13311e-21)
(1.00712 0.00150264 9.40994e-23)
(-0.00451677 0.0325276 0)
(0.900231 -0.0818755 0)
(0.896813 -0.067107 -2.35941e-21)
(0.054887 0.0285491 1.47375e-20)
(0.914599 -0.112115 0)
(0.808139 0.0483699 0)
(1.05458 -0.0179199 -1.77811e-20)
(1.01187 -0.0282618 3.3174e-22)
(1.07924 -0.0480399 2.91786e-20)
(1.08032 -0.0538053 0)
(-0.0253764 -0.0833381 -2.80131e-20)
(1.02 -0.000513188 4.06548e-21)
(1.0121 -0.000845715 0)
(1.00739 0.00160106 9.72652e-23)
(1.00209 -3.86506e-05 3.66265e-22)
(-0.0340117 -0.0946756 4.19638e-20)
(1.02832 -0.0200334 -5.07091e-22)
(1.0334 -0.00420243 0)
(1.08196 -0.0799568 5.89881e-21)
(0.56384 0.00179278 4.704e-21)
(1.00336 -0.0371459 4.75133e-21)
(1.07505 -0.0556382 -1.52453e-20)
(1.08453 -0.00406873 2.78217e-22)
(1.02017 -0.0108953 4.522e-22)
(1.07945 -0.062048 0)
(0.924579 -0.1272 1.79049e-21)
(1.06698 -0.0327961 1.30651e-20)
(1.02298 -0.0241008 5.59026e-23)
(0.303022 -0.00025663 0)
(1.00659 -0.0641805 -1.43946e-20)
(0.557006 0.14519 1.77248e-21)
(1.01997 -0.000541547 3.63417e-21)
(1.01262 -0.00141578 -7.249e-22)
(1.00906 -0.00279842 0)
(1.05554 -0.0636909 4.28017e-21)
(0.431864 -0.00447278 0)
(1.06511 -0.04519 0)
(0.284105 -0.00346181 7.73524e-21)
(1.03671 -0.00813103 3.649e-21)
(0.894354 0.0699847 -2.46687e-22)
(1.02268 -0.00464018 -3.19365e-21)
(0.0449958 0.00301558 1.86801e-20)
(1.00556 -0.0413693 1.3201e-21)
(0.48113 -0.148955 0)
(1.03331 -0.0294969 9.26302e-22)
(0.638036 0.0550427 -1.42256e-20)
(1.05088 -0.0233905 0)
(1.00846 0.000233592 0)
(1.09161 -0.0562316 -1.78975e-20)
(1.00984 0.00206781 1.44985e-21)
(0.92299 -0.128428 -1.54542e-21)
(1.05516 -0.0277521 0)
(1.05136 -0.0225745 0)
(1.00082 -3.61033e-05 9.12476e-22)
(1.07299 -0.0549541 0)
(0.608755 -0.0257722 -5.76972e-21)
(1.00825 -0.032613 -3.53953e-22)
(1.00032 -1.65342e-05 -9.12262e-22)
(0.0123156 0.1693 5.4802e-20)
(1.07154 -0.0438024 1.22087e-21)
(1.02117 -0.0132911 4.85119e-22)
(1.05979 -0.00952183 0)
(1.00292 0.00013375 8.17903e-23)
(1.02099 -0.035138 0)
(1.07456 -0.0449475 -1.15576e-20)
(1.00688 0.00122383 -5.75644e-23)
(0.895231 -0.0617144 -1.30127e-20)
(1.05962 -0.0243619 0)
(1.00069 -6.10181e-05 3.2489e-22)
(1.0086 0.000152668 -2.3476e-22)
(1.01157 0.000840379 1.1961e-21)
(0.999806 1.43292e-05 0)
(1.00125 -9.45132e-05 -5.95574e-22)
(0.815214 0.160736 -3.06795e-22)
(0.64134 -0.0295671 -4.8121e-21)
(1.00593 0.000853812 2.2331e-22)
(1.00484 -0.000343241 -4.15029e-22)
(1.01024 -0.000637055 7.87291e-22)
(-0.00278657 0.0343233 -7.35548e-22)
(1.05872 -0.00999295 -3.44605e-21)
(0.93427 -0.0506495 1.09559e-20)
(0.890371 0.155201 -1.73276e-21)
(0.826545 0.0521668 -4.63339e-22)
(1.00906 0.0032361 -2.39042e-22)
(0.834432 0.0785232 -1.28617e-21)
(1.0683 -0.0446339 2.21164e-21)
(1.01917 -0.0110662 3.18722e-22)
(1.07916 -0.0617425 0)
(1.01687 -0.00781217 -6.86759e-22)
(1.0074 -0.00189623 -3.44575e-23)
(0.322881 -0.00513661 -7.45176e-21)
(1.02264 -0.00434085 1.26144e-21)
(0.805102 0.150728 1.23546e-21)
(1.00717 -0.000798737 0)
(1.00588 0.000770163 7.81798e-24)
(1.01714 -0.0633603 0)
(0.0929666 0.0425334 0)
(0.180007 0.0156482 -3.60488e-21)
(-0.0417217 0.141918 -3.04865e-20)
(1.01169 -0.000794758 1.42043e-21)
(1.01179 -0.00380062 0)
(1.00911 0.00217028 0)
(1.03695 -0.0192029 0)
(0.907625 -0.104321 8.96796e-22)
(1.02807 0.0111297 -7.92687e-23)
(1.07921 -0.0632691 -6.88003e-21)
(1.03164 -0.00155876 0)
(0.891712 -0.0336494 -2.31207e-21)
(1.09087 -0.0444816 2.42735e-20)
(1.01052 -0.00078927 3.76155e-22)
(0.126423 0.212598 1.72535e-20)
(1.00202 -4.67318e-05 4.14192e-22)
(1.04371 -0.0155039 -2.46232e-22)
(1.03624 -0.0190049 0)
(1.01138 -0.00472009 6.46277e-23)
(1.02935 -0.0184916 -7.6879e-22)
(1.08023 -0.0539927 0)
(1.07836 -0.0479987 -1.20509e-20)
(1.01079 0.00253942 4.15135e-23)
(1.06203 -0.0244154 6.18359e-21)
(-0.0342306 -0.0959978 -2.50742e-20)
(1.00721 -0.00181447 5.11758e-24)
(1.03133 -0.0248097 2.16694e-21)
(1.00796 0.00184294 2.87323e-22)
(1.02866 0.0143992 -9.21916e-23)
(1.06829 -0.0329153 -2.76185e-20)
(1.01904 -0.0109763 0)
(0.464767 -0.00674446 0)
(0.416126 -0.00212236 3.51983e-27)
(1.00433 -0.000652278 -4.09241e-22)
(1.01159 -0.00486842 -7.06328e-23)
(0.156699 0.0308596 4.77763e-21)
(1.00702 -0.00165751 3.19851e-23)
(0.805038 0.0132977 1.86935e-22)
(1.0671 -0.0443166 -7.71121e-21)
(1.0124 -0.00568097 1.05075e-21)
(1.06914 -0.0545405 -5.11003e-21)
(1.00758 0.00150055 4.84385e-23)
(1.04435 -0.0263165 0)
(0.984394 -0.0627597 1.35102e-20)
(1.02246 -0.00368893 -2.86239e-21)
(1.05725 -0.0670402 1.59486e-20)
(1.00654 0.000540034 0)
(1.00086 4.14238e-05 4.86562e-23)
(1.01991 -0.0110148 -1.34581e-21)
(1.01206 -0.00094533 1.16397e-21)
(1.07238 -0.0587792 1.12157e-20)
(1.00271 -0.0241729 1.56024e-21)
(0.917625 -0.126701 -1.26979e-22)
(-0.0338848 -0.0853117 0)
(1.00881 0.00029331 0)
(1.06326 -0.0347687 -3.28266e-21)
(0.607373 -0.0116041 1.76522e-20)
(1.04212 -0.0152032 0)
(1.01183 -0.00376773 4.34143e-22)
(0.951469 -0.110171 -3.12626e-21)
(1.0122 -0.00526008 -1.4245e-21)
(1.00923 -0.00290395 0)
(1.00881 0.00257454 2.40038e-22)
(0.174139 0.0378803 -2.10975e-20)
(1.00293 -0.000157831 6.87867e-22)
(1.01917 -0.00577385 1.95801e-21)
(1.01233 -0.039148 -4.3626e-22)
(1.02293 -0.00388125 4.25536e-21)
(0.469274 -0.102527 7.21261e-21)
(1.04646 -0.0237383 7.84105e-21)
(0.448107 -0.0170385 2.08191e-20)
(1.00901 0.00194465 -8.69348e-23)
(0.69156 -0.047073 1.50663e-20)
(1.02101 -0.0128869 -8.32813e-22)
(0.901512 -0.114515 -2.56978e-21)
(1.00742 0.00132488 0)
(1.00885 0.002103 -5.71078e-22)
(0.930732 0.0337815 -2.59672e-22)
(1.01443 -0.0427395 1.08351e-21)
(0.0156764 0.0350593 0)
(1.02055 -0.00126302 -2.45396e-21)
(0.462799 -0.0192922 -1.83729e-20)
(1.04639 -0.0244016 -9.6593e-21)
(1.03762 -0.00841057 0)
(0.714725 -0.0426496 -4.49031e-22)
(1.07926 -0.0558672 0)
(0.595283 -0.0412745 1.60129e-20)
(1.00042 3.24181e-05 2.16918e-23)
(1.05662 -0.031215 -1.22827e-20)
(1.00224 7.66547e-05 -3.73601e-23)
(-0.0665117 -0.0492904 1.20956e-20)
(1.00771 0.00142318 6.85034e-24)
(1.04693 -0.048105 6.17992e-21)
(1.07165 -0.0795514 0)
(1.0042 -0.000592136 1.02726e-22)
(1.00874 0.000407444 7.12085e-22)
(1.07975 -0.0454315 0)
(1.03345 -0.0327277 0)
(0.520619 -0.10014 8.98909e-21)
(1.0753 0.00570603 5.35342e-23)
(1.00917 0.00218341 0)
(1.01953 -0.00587133 -2.1864e-21)
(1.04661 -0.0480205 0)
(0.952975 -0.0327123 0)
(1.01378 0.00383379 9.18429e-23)
(1.00864 -0.0401239 -1.55801e-21)
(1.00379 0.000207764 0)
(0.542596 -0.0342299 1.01188e-20)
(1.07109 -0.0448173 0)
(0.889577 0.0130812 4.86564e-21)
(1.0353 -0.0194426 8.55844e-23)
(1.03824 -0.0255161 8.87504e-21)
(1.02263 -0.00878337 0)
(0.938059 -0.0348958 -3.51792e-22)
(1.03207 -0.0122392 0)
(1.03603 -0.0196645 -1.78653e-21)
(1.07852 -0.0410042 6.28013e-21)
(0.940169 0.0124254 3.70365e-21)
(1.00705 -0.0216037 -6.03004e-22)
(0.998247 -0.0626075 0)
(0.405994 -0.00644377 -2.13442e-20)
(1.02343 -0.00106805 -2.98366e-21)
(1.00882 0.00209018 0)
(1.02206 -0.0221522 7.03443e-23)
(0.990611 -0.0376746 4.70949e-21)
(1.00903 0.00203521 0)
(1.00361 -0.0548816 1.22377e-20)
(1.04156 -0.0154103 6.68009e-21)
(1.03201 -0.0117407 5.73415e-23)
(1.05498 -0.0269596 -8.33126e-21)
(0.752298 -0.0444829 -1.36468e-20)
(1.00545 0.0137472 0)
(1.02197 -0.0101494 0)
(1.04306 -0.0158373 2.19268e-22)
(1.08693 -0.0410724 4.37433e-21)
(1.06451 -0.0438362 0)
(1.03488 -0.0316773 -3.28118e-21)
(1.00757 -0.00205608 9.18792e-23)
(0.890964 0.0509814 -4.23097e-23)
(1.00636 0.0302462 0)
(0.602827 -0.0456971 2.19523e-21)
(0.901877 0.00033721 -7.83787e-22)
(1.01426 0.0038643 -1.09281e-22)
(1.00879 0.00178223 0)
(1.00322 0.000137267 0)
(1.0782 -0.0401298 -6.3053e-21)
(0.984974 -0.0683068 -8.70838e-21)
(0.797663 -0.0406837 -1.15339e-21)
(1.00829 -0.00259076 8.01414e-24)
(1.02112 -4.29087e-05 0)
(1.08538 -0.0635891 -3.71111e-21)
(0.911333 0.0177519 -1.06006e-21)
(1.08161 -0.0637926 8.56491e-21)
(1.02859 -0.0195223 0)
(1.03369 -0.0046534 -4.01274e-21)
(1.06646 -0.0361163 0)
(0.913984 0.0453099 -6.66498e-22)
(1.02217 -0.0554543 1.79483e-20)
(1.03235 -0.0246751 -3.23051e-22)
(0.470817 -0.136749 0)
(1.00791 -0.0022977 0)
(0.563231 -0.036381 -2.39935e-21)
(1.0617 -0.023713 6.63325e-21)
(1.04308 -0.0235785 -3.4405e-21)
(0.617358 -0.0475455 1.66329e-20)
(1.02226 -0.0112675 2.20978e-21)
(1.02623 -0.0362827 0)
(0.631944 -0.0362836 1.44885e-20)
(1.00804 -0.0024956 -3.80262e-22)
(1.07461 -0.037795 -1.36743e-21)
(1.05426 -0.0284143 0)
(1.02817 -0.0189876 0)
(0.13781 0.0230122 0)
(1.03214 -0.0248373 0)
(1.03044 -0.0121775 -7.94983e-22)
(0.68425 -0.0389701 0)
(1.00729 0.00161428 -1.10835e-22)
(1.03872 -0.0261859 -1.03528e-20)
(1.00808 0.00125063 5.15387e-22)
(0.648174 -0.0490371 -2.02035e-21)
(1.09002 -0.0525085 1.56194e-20)
(1.02082 -0.00139475 0)
(1.07447 -0.0430002 -1.14442e-20)
(1.02121 -0.00084387 -5.01329e-21)
(0.444218 -0.014452 -2.78678e-20)
(1.02683 -0.00799696 -1.09839e-21)
(1.00122 9.36969e-05 0)
(1.01279 -0.00574745 -2.50991e-22)
(1.0892 -0.0521331 0)
(1.05623 -0.0299523 1.18449e-20)
(1.04448 -0.0143943 -4.4423e-21)
(1.02095 5.39625e-05 0)
(1.02227 -0.0111101 -2.10404e-21)
(1.02983 -0.0120458 2.61456e-21)
(0.897039 -0.0383807 -3.85205e-22)
(0.31924 0.222734 3.52883e-20)
(0.501345 0.00337309 1.85208e-20)
(1.01682 -0.0236646 1.61359e-21)
(0.66041 -0.0503718 7.28085e-21)
(0.826032 -0.0709886 -1.37457e-20)
(1.02022 -0.000525243 0)
(1.06277 -0.0358926 0)
(1.0817 -0.0653633 8.59738e-21)
(1.00468 -0.00111278 0)
(1.03841 -0.0404298 0)
(1.08067 -0.0528834 0)
(1.07236 -0.0564885 -1.6265e-20)
(1.01719 -0.00361474 3.78655e-22)
(0.85482 -0.0276634 -9.61354e-21)
(0.604901 -0.0362736 -8.48955e-21)
(1.02027 -0.000421674 -1.95825e-21)
(1.01472 -0.0253167 -6.01674e-22)
(1.00889 -0.0272814 2.57801e-22)
(1.04882 -0.114216 -9.14452e-21)
(1.0449 -0.0139933 1.32863e-20)
(1.04085 -0.0421673 -5.48807e-22)
(-0.0732417 -0.0541137 0)
(1.01186 -0.00507575 7.12093e-23)
(0.84471 -0.0609858 9.63062e-21)
(1.01269 -0.00565401 -2.96774e-22)
(1.02105 -0.0007701 5.86952e-21)
(1.0044 0.000264881 0)
(1.0071 0.0012993 0)
(1.01084 -0.00427221 -2.17488e-22)
(0.638052 -0.0395697 -2.46835e-20)
(0.95069 -0.110277 0)
(1.02181 -0.00764612 -1.33254e-21)
(1.07412 -0.0366218 1.13983e-21)
(1.008 0.00187296 -2.33455e-22)
(0.43629 -0.137126 3.88915e-21)
(1.02988 -0.031204 7.88071e-22)
(0.824958 -0.0234542 1.4589e-21)
(0.497227 -0.00434079 0)
(1.02181 -0.00793391 3.51486e-21)
(1.01552 -0.0457385 0)
(1.0522 -0.0292694 1.0152e-20)
(0.81327 -0.0126663 -4.03326e-21)
(1.01588 -0.00706814 -1.04375e-21)
(1.00589 0.00090109 -2.23544e-22)
(1.02167 -0.000846478 -1.87628e-21)
(0.123513 0.169548 -1.90652e-20)
(1.01231 -0.00117462 -1.32516e-21)
(0.206441 -0.0121691 -3.02868e-21)
(1.00589 0.00170944 -3.1872e-21)
(1.08075 -0.0532732 -1.40608e-20)
(0.378864 -0.00726173 1.14598e-20)
(0.987416 -0.0541506 0)
(0.997334 -0.0547897 -4.89057e-22)
(1.01572 -0.010674 1.42698e-21)
(1.0083 -0.00220443 1.40278e-22)
(1.01938 -0.000301048 -2.15712e-21)
(1.01754 -0.0222387 6.51051e-22)
(1.07524 -0.0423595 1.44937e-20)
(0.147644 0.193463 0)
(1.07001 -0.0319413 -1.0291e-20)
(0.635066 -0.0444796 -1.08113e-22)
(0.626494 -0.0372883 -1.53211e-20)
(1.00791 0.00184383 0)
(1.02388 -0.00107152 3.74361e-21)
(0.464136 0.00174646 -1.83955e-20)
(0.316277 -0.00402618 1.83594e-20)
(1.06027 -0.0821021 2.20123e-21)
(0.662214 -0.0333863 -1.04031e-20)
(1.02313 5.30619e-05 9.09749e-22)
(1.05282 -0.0303357 1.10604e-20)
(1.00019 6.86432e-06 0)
(0.875574 -0.074142 0)
(1.00565 -0.0012243 -3.27509e-22)
(1.03627 -0.033011 0)
(1.01509 -0.00990401 0)
(1.03 -0.00304948 8.15892e-21)
(1.0026 7.99705e-05 0)
(1.00785 -0.00236844 5.07761e-22)
(1.00801 0.00186458 -3.56774e-22)
(1.07521 -0.0546818 0)
(1.03991 -0.0312248 -1.96543e-22)
(0.473255 -0.0200762 4.22628e-20)
(1.02097 -0.0236906 0)
(1.07507 -0.0440995 2.58374e-20)
(1.02917 -0.00855514 1.43208e-21)
(0.932962 -0.0203444 1.38604e-21)
(1.03706 -0.026576 -4.01381e-21)
(1.03107 -0.118618 0)
(1.04254 -0.0228206 3.39025e-21)
(0.938338 0.0503055 -2.10178e-22)
(1.00596 0.000745115 1.645e-22)
(1.00762 -0.00227849 -2.86452e-22)
(1.00033 2.3822e-05 1.95147e-22)
(1.08655 -0.085917 1.65522e-20)
(0.887829 -0.123151 -5.39786e-21)
(1.07862 -0.0571897 -1.67683e-20)
(1.02747 -0.00768072 -2.70029e-21)
(0.452361 -0.0226008 -3.00511e-20)
(0.91152 0.115225 -2.85279e-21)
(1.0286 -0.0302719 0)
(1.00946 -0.000640263 -2.67301e-21)
(1.08075 -0.0453849 9.93133e-21)
(1.01566 -0.00679359 -3.82603e-22)
(0.918808 -0.0174073 -1.3378e-21)
(1.00274 0.000141514 1.25103e-22)
(0.941628 -0.129803 -2.47611e-21)
(0.865553 -0.000653619 0)
(1.04492 -0.0635104 0)
(0.445778 -0.0139422 0)
(1.01196 -0.00501368 4.72666e-22)
(1.02329 0.0281563 -2.97943e-23)
(0.862979 -0.0195331 0)
(0.314344 0.18091 0)
(1.00678 0.000610763 0)
(1.05374 -0.032531 0)
(1.06636 -0.04542 8.90679e-21)
(1.00533 0.0185091 -5.33456e-22)
(1.00504 -0.000965607 0)
(1.02925 -0.0123774 -2.54121e-21)
(1.09059 -0.0432942 0)
(1.08023 -0.0536173 0)
(1.02058 -0.0281448 0)
(0.37994 -0.0651029 5.02754e-22)
(1.0007 5.03896e-05 3.32642e-22)
(1.0131 -0.0059759 -3.55546e-22)
(-0.0124586 0.0165131 -1.38622e-21)
(1.03119 -0.0249725 -4.81584e-22)
(1.00853 0.00167535 -4.37303e-23)
(0.566231 0.0651971 7.869e-21)
(1.00813 -0.00210923 -2.98315e-22)
(1.01958 -0.0116385 -4.2865e-22)
(1.00583 -0.0013918 3.32698e-22)
(1.03295 -0.0245743 2.85931e-22)
(1.02796 -0.0171307 0)
(1.00876 0.00183476 -3.5078e-23)
(1.01187 -0.00461039 0)
(0.710231 -0.0414427 -2.5532e-21)
(1.02312 -0.00495504 3.75579e-21)
(1.07029 -0.0343288 -1.59551e-20)
(1.00749 -0.000913325 0)
(1.01527 -0.0160954 0)
(0.988299 0.0527913 -5.9588e-23)
(0.999686 -1.52893e-05 -1.54311e-22)
(1.01533 -0.00733368 -4.55675e-22)
(1.00003 1.09858e-05 0)
(0.999876 -3.24375e-05 0)
(0.827713 -0.0376074 0)
(1.03257 -0.0111993 6.58699e-21)
(1.03888 -0.0328827 -6.15844e-22)
(1.02238 -0.00337723 0)
(1.00076 2.22212e-05 2.32244e-23)
(-0.0498719 0.194545 3.28792e-20)
(0.431678 -0.0119502 0)
(1.02381 -0.00399501 1.72146e-21)
(1.01396 -0.0168114 0)
(1.03775 -0.027108 1.04399e-21)
(0.961539 -0.0467619 0)
(0.0369013 0.0126557 -1.12624e-21)
(1.01321 -0.00609305 -5.18687e-23)
(0.945833 -0.126365 2.52741e-21)
(1.01627 -0.00729304 0)
(1.0684 -0.0583632 -8.38216e-21)
(1.03127 -0.00416706 1.59364e-21)
(-0.0867746 -0.0106327 -6.69983e-22)
(1.00575 0.000549022 -2.14701e-22)
(-0.0249104 -0.0732683 0)
(1.01178 -0.0140539 1.10311e-23)
(1.0071 0.00151378 0)
(1.01225 -0.0151818 1.3491e-21)
(0.533438 -0.0193997 0)
(1.0454 -0.0490144 0)
(0.892499 0.0644997 3.16609e-21)
(1.006 -0.000437097 4.32847e-22)
(0.8647 0.150875 1.13746e-21)
(1.01134 -0.00068356 -2.06257e-22)
(1.00633 -0.00143492 0)
(1.00772 -0.00226323 0)
(1.03007 -0.00145064 -2.71789e-21)
(0.339733 -0.00921711 0)
(1.07686 -0.046967 0)
(1.08271 -0.0533785 -1.94486e-20)
(1.08252 -0.0544486 0)
(1.01054 -0.0401135 -4.04573e-21)
(1.01103 0.00266395 -1.44508e-23)
(0.840574 -0.043689 -2.48071e-20)
(0.882599 -0.111398 3.18684e-21)
(1.0454 -0.0265665 0)
(1.06137 -0.0252051 -2.1087e-20)
(0.974957 -0.0421851 0)
(0.877251 0.159911 -1.91811e-21)
(0.735696 -0.0495848 -1.28936e-20)
(1.01834 -0.000324197 0)
(-0.0943345 -0.00891644 0)
(0.0692758 0.0166918 0)
(0.113225 0.051686 1.31198e-20)
(1.03184 -0.0250167 -1.69127e-21)
(1.01086 -0.0154644 -1.71622e-21)
(0.89183 0.163866 -3.92696e-21)
(1.0161 0.0333271 -3.17059e-23)
(0.948334 0.0264273 0)
(0.929867 -0.0981713 9.64268e-21)
(0.834906 -0.129149 -7.07497e-21)
(1.0291 -0.01886 3.65977e-21)
(0.814733 -0.126314 1.83052e-20)
(0.97378 -0.0576054 3.62682e-22)
(1.00595 0.000635718 7.13793e-23)
(1.01375 0.0286212 0)
(1.07786 -0.0469968 -1.76492e-21)
(0.408144 -0.00587418 0)
(1.035 -0.0199645 0)
(1.01886 -0.00394814 1.00051e-21)
(1.01113 -0.00453129 1.11841e-22)
(1.01798 -0.00727677 8.47381e-22)
(1.07255 -0.057382 -7.34997e-22)
(1.03376 -0.0283755 -8.1518e-23)
(0.693939 0.0599924 9.37264e-21)
(0.38148 -0.0574208 -2.29841e-21)
(1.00578 -0.000647969 -1.03567e-22)
(-0.00698676 0.022243 1.65611e-20)
(0.475483 -0.0137962 0)
(1.01095 -0.0510687 -4.28823e-22)
(0.872865 -0.0811408 0)
(1.06902 -0.0342097 3.29514e-22)
(1.00803 0.00144645 -9.44376e-24)
(1.00742 -0.00216908 1.93509e-22)
(1.02662 0.033699 0)
(0.806127 -0.039021 3.47338e-20)
(1.0446 -0.0159214 0)
(1.08882 -0.04853 -1.35612e-20)
(1.08879 -0.0559881 0)
(1.00742 0.00159332 -1.80176e-22)
(1.03453 -0.00780523 1.48325e-21)
(0.861931 0.165043 3.58656e-21)
(1.06147 -0.108001 6.98214e-21)
(1.07944 -0.0534995 5.49538e-22)
(0.350074 -0.0108119 -1.36508e-20)
(0.97286 -0.0586169 -1.34789e-20)
(1.01648 -0.00756638 -8.09992e-22)
(1.03041 -0.00274301 0)
(0.463018 0.113068 6.99197e-21)
(0.615056 -0.0361139 1.67649e-20)
(1.08676 -0.0531774 0)
(1.07081 -0.0310473 0)
(0.997226 -0.0370076 -1.52206e-21)
(1.00732 0.00141398 0)
(1.01528 -0.00452365 -1.75825e-21)
(0.918461 -0.129249 4.93404e-21)
(1.00717 0.00148142 0)
(1.0343 -0.0197135 -4.76688e-21)
(1.00761 0.00146923 -4.9103e-23)
(1.00846 -0.0016629 -2.39567e-22)
(0.954125 -0.0578998 -3.45524e-21)
(1.07393 -0.0559128 1.36673e-20)
(1.02567 -0.00922173 -9.71712e-22)
(1.00722 0.00147675 -9.20479e-25)
(0.278706 -0.031398 1.67105e-20)
(0.952967 -0.133838 -4.24911e-21)
(1.00827 -0.00243394 8.16664e-23)
(1.00234 -9.84817e-06 0)
(1.00899 0.00188911 5.5037e-22)
(1.01989 -0.000384367 -4.10007e-21)
(0.100052 0.132311 -4.31573e-20)
(0.899682 -0.0359139 -3.57987e-21)
(0.893397 -0.0715087 0)
(0.0825735 0.0704616 -1.23719e-20)
(0.856958 0.137133 2.87099e-21)
(1.06985 -0.0293186 0)
(0.388985 -0.00242239 1.53963e-20)
(0.426959 -0.0132319 -2.97305e-21)
(1.01699 -0.00301597 0)
(1.06638 -0.0338319 0)
(1.00819 0.00148649 2.33327e-23)
(1.0081 0.00228043 0)
(1.03811 -0.0364896 -6.50157e-21)
(0.76327 -0.0430805 0)
(0.909341 -0.0634129 -6.27633e-22)
(1.08795 -0.0482298 0)
(1.04826 -0.0314851 -1.48328e-21)
(1.00669 -0.0018326 8.56353e-23)
(1.03355 -0.0305659 3.93836e-21)
(1.01285 -0.00248534 -9.19501e-22)
(0.894345 0.0851419 -2.03038e-21)
(1.07652 -0.0494605 0)
(1.02196 -0.00318065 -8.20186e-21)
(1.01767 -0.0253103 -6.91437e-22)
(1.00499 -0.000954328 -2.37763e-23)
(1.05628 -0.0256505 9.23488e-21)
(1.07903 -0.0580766 3.09141e-20)
(1.03258 -0.00407838 -6.15565e-21)
(1.01529 -0.00660139 3.53398e-22)
(1.03009 -0.0324968 4.4312e-22)
(1.0303 -0.00730347 -6.7723e-21)
(1.07149 -0.0563927 7.57356e-22)
(1.08796 -0.0881862 1.37276e-20)
(1.07876 -0.055684 1.21912e-20)
(1.0324 -0.0293248 1.10307e-21)
(1.08735 -0.0536082 0)
(1.00649 -0.00174563 -8.70757e-23)
(1.04218 -0.0735177 2.90452e-22)
(1.02432 -0.00810376 0)
(0.0311904 0.0792611 0)
(1.02124 -0.0128415 0)
(1.00091 -6.095e-05 -3.44977e-22)
(0.925132 -0.0614147 1.55811e-20)
(1.02452 -0.0182527 1.31723e-21)
(0.348021 -0.0127379 -9.44508e-21)
(0.573664 -0.0342994 -1.84289e-20)
(-0.0367431 0.0299392 0)
(0.550565 0.0823628 -1.21393e-20)
(1.00558 -0.00121531 -2.16294e-22)
(0.98041 -0.0637695 0)
(1.01492 0.00414742 0)
(1.00833 -0.00187103 -4.039e-22)
(1.00578 0.000527182 -1.2774e-22)
(1.00856 -0.00184799 -4.84041e-22)
(1.02101 0.00597702 0)
(1.01966 -0.0237588 0)
(1.03288 -0.025126 -1.40396e-22)
(1.007 0.00137051 -2.37317e-22)
(0.792407 -0.0935307 0)
(1.00702 -0.0154877 0)
(0.764076 -0.0872766 0)
(1.01027 -0.00396809 -2.53078e-23)
(1.00569 0.000458141 -1.06124e-22)
(1.00224 0.000160851 0)
(1.0808 -0.0674658 -3.80873e-21)
(0.624991 -0.0314988 -2.07887e-21)
(1.08291 -0.0395284 6.31411e-21)
(1.05617 -0.026307 0)
(1.01504 0.00442132 2.22263e-23)
(1.00059 9.4047e-06 -5.57461e-22)
(1.00477 -0.000399404 2.95401e-23)
(1.01172 -0.00497937 0)
(1.08781 -0.0562478 1.54576e-20)
(0.250998 -0.151669 1.34564e-21)
(1.02973 -0.00705098 0)
(1.00706 0.00135979 7.107e-23)
(1.03038 -0.00107432 -2.93509e-21)
(1.01169 -0.00496459 0)
(1.01341 -0.124765 0)
(-0.0339544 -0.0967882 0)
(1.03389 -0.031479 3.46314e-21)
(0.583624 -0.0190456 0)
(0.863679 0.16109 -2.5599e-21)
(1.01507 -0.0063298 3.81664e-22)
(1.08221 -0.0531332 3.43553e-20)
(0.257042 0.189309 1.82347e-20)
(1.06708 -0.0350757 1.39129e-20)
(0.455521 -0.159253 -4.47567e-21)
(1.03608 -0.00842682 -7.32492e-21)
(1.02283 -0.0228653 -2.07804e-23)
(1.08196 -0.0393202 -9.55633e-22)
(1.02112 -0.0223141 0)
(0.91844 -0.127645 -5.98062e-21)
(1.02333 -0.00379041 -7.72261e-21)
(0.890918 0.170599 -8.90312e-21)
(1.00264 0.000115365 -1.75612e-22)
(1.07559 -0.0216941 0)
(0.46666 -0.0178945 0)
(1.00951 -0.00267881 5.89838e-24)
(1.02308 -0.016176 -7.69414e-22)
(0.995555 -0.0316869 0)
(1.00652 -0.00157341 0)
(1.04395 -0.0253846 -3.6753e-21)
(1.06407 -0.0777974 -9.82002e-21)
(0.135391 0.104828 0)
(1.07559 -0.0495209 -9.47599e-22)
(1.03551 -0.0574737 4.50497e-24)
(0.974303 -0.0653775 0)
(1.00737 0.00135175 0)
(1.01002 -0.00378181 -6.82578e-23)
(-0.0892127 0.182738 3.97739e-21)
(1.08959 -0.0556015 -4.0984e-21)
(1.03579 -0.033231 -1.88056e-22)
(0.593793 -0.0363305 2.62544e-20)
(1.00652 -0.00135505 0)
(1.01657 -3.00973e-05 0)
(1.00587 0.000654582 -1.64641e-22)
(0.862296 0.108486 -1.94507e-21)
(1.07117 -0.060665 -3.79519e-22)
(1.03202 -0.0233694 -1.01902e-21)
(1.01845 -0.0104463 -3.63646e-22)
(0.977336 0.0504745 -2.03398e-22)
(1.05146 -0.0193414 4.99405e-21)
(1.00245 0.000182043 2.05993e-22)
(0.0062543 0.0142145 2.9788e-20)
(0.925836 0.00778303 5.35561e-21)
(0.537455 -0.0243028 -1.09699e-20)
(1.00734 0.00161755 1.17204e-22)
(1.02973 -0.00660413 0)
(0.406141 -0.00374971 0)
(-0.00403998 -0.125892 3.4536e-20)
(1.09038 -0.0552262 2.92355e-20)
(1.01259 -0.00271664 0)
(0.865629 -0.0568398 -1.69293e-20)
(1.02306 -0.00427613 1.34508e-21)
(0.953162 0.0478192 -5.97672e-22)
(1.05892 -0.0873681 0)
(1.04459 -0.0664476 -7.98654e-21)
(1.03842 -0.0241426 4.86884e-21)
(-0.00695218 0.0283146 0)
(1.01802 -0.0112102 -7.97873e-22)
(1.01502 -0.00326868 -4.14129e-22)
(1.09962 -0.0608158 4.19083e-20)
(1.00112 -6.06154e-05 0)
(1.00179 -7.50712e-05 -6.69562e-22)
(1.02832 -0.0176843 -8.99026e-22)
(1.00633 -0.00165368 1.88902e-22)
(0.00478069 0.0115704 0)
(1.04177 -0.0350114 2.68531e-21)
(1.07997 -0.0534028 1.77846e-20)
(1.02453 -0.00868399 7.01977e-22)
(0.999165 0.0355181 0)
(1.00687 -0.00194377 -3.36928e-22)
(1.03195 -0.0491818 1.08779e-20)
(1.00403 -0.000290063 -4.31473e-23)
(1.01706 -0.0116607 -6.17545e-22)
(1.00537 0.000439281 1.22212e-23)
(1.01452 -0.00589868 8.08957e-22)
(1.01034 -0.00095494 1.01652e-21)
(0.617048 -0.0349104 -1.67844e-20)
(1.01108 -0.00447366 -6.08603e-23)
(1.00591 0.00105405 0)
(0.915422 0.0588837 2.1409e-21)
(1.03122 -0.00282724 -8.87461e-21)
(0.426524 -0.0073546 1.40119e-20)
(1.0018 7.92385e-05 0)
(1.0121 -0.00304928 9.4804e-22)
(1.08296 -0.0458607 -6.58323e-21)
(0.986777 -0.127826 -8.21481e-22)
(0.965747 -0.0567051 -3.78141e-21)
(1.00503 -0.000489295 0)
(1.08865 -0.040214 3.31295e-22)
(0.609264 -0.0206877 1.05567e-21)
(1.03262 -0.0116874 -7.40167e-21)
(0.715615 -0.0444329 0)
(1.07443 -0.0216237 0)
(1.00601 -0.00148335 3.91696e-22)
(1.02607 -0.00790635 8.53311e-23)
(-0.00345033 0.027848 0)
(1.07836 -0.040826 -5.79086e-22)
(1.03618 -0.0252705 7.61058e-21)
(1.00566 -0.000560632 3.88667e-23)
(1.00684 0.00125013 6.32656e-23)
(0.869847 -0.0627725 0)
(1.04145 -0.0713955 0)
(1.03061 -0.0172423 0)
(1.03201 -0.0242947 1.89024e-21)
(1.02537 -0.0106301 2.40401e-22)
(1.0193 -0.000337197 0)
(1.01227 -0.00287685 0)
(1.0919 -0.0474061 0)
(0.911595 -0.138025 0)
(1.07096 -0.059175 -2.30049e-20)
(0.920342 -0.0302414 6.70699e-22)
(1.02915 -0.00634949 -5.37222e-21)
(1.06984 -0.0581119 -2.569e-22)
(1.08069 -0.0494489 6.16923e-21)
(0.670444 -0.0515946 1.76415e-20)
(1.03144 -0.0230831 9.35412e-22)
(0.328372 -0.105404 0)
(1.08955 -0.054824 0)
(1.03167 -0.00245903 -6.27813e-23)
(0.152889 -0.00811195 3.3017e-20)
(1.03614 -0.0663424 -4.21285e-22)
(0.662224 -0.0138064 0)
(0.156861 0.122228 1.31803e-21)
(0.633223 -0.0369029 -1.44398e-20)
(0.954774 -0.0693237 0)
(1.03563 -0.0404761 5.83883e-21)
(1.00615 -0.00156311 -1.72788e-22)
(1.017 -0.0207829 -1.47006e-21)
(-0.0478136 -0.0885456 -8.37713e-20)
(0.0808625 -0.00552561 -3.01793e-20)
(1.01209 -0.00509151 -1.89758e-22)
(1.00033 1.61968e-05 -1.59141e-23)
(1.07932 -0.0462689 0)
(0.969165 0.04519 0)
(1.00654 0.00133839 -8.02002e-23)
(-0.0190881 -0.106344 -7.79994e-21)
(1.00627 -0.00127796 -6.72478e-22)
(1.02279 -0.0071362 0)
(-0.00730979 0.0134055 -1.6353e-20)
(0.413197 -0.00398798 1.35036e-20)
(0.97734 -0.0753129 -8.54561e-23)
(1.00829 -0.00193177 6.27553e-22)
(1.02105 -0.000557287 -1.20083e-21)
(-0.00782694 -0.120544 -5.75755e-20)
(1.08311 -0.0555531 -2.96399e-20)
(1.08694 -0.0524247 -1.45868e-20)
(1.0154 -0.00539103 -3.6059e-22)
(0.547721 -0.00194708 0)
(1.06613 -0.103899 -8.09351e-21)
(0.67051 -0.0372447 1.99665e-21)
(1.07345 -0.0448933 0)
(1.07291 -0.0365593 0)
(1.02977 -0.0124799 -3.18054e-21)
(1.03104 -0.00367546 -4.64372e-21)
(0.564287 0.13624 -8.72664e-22)
(1.08556 -0.0360547 1.56729e-20)
(0.309255 -0.0043446 5.68425e-21)
(1.02569 -0.00120343 1.95333e-21)
(1.06877 -0.0317237 2.57583e-20)
(0.0154583 0.00610251 2.8623e-20)
(0.635735 -0.00725403 0)
(0.457755 -0.00979015 1.30496e-20)
(1.02567 -0.00402351 0)
(1.06951 -0.0268908 -3.0839e-22)
(1.0081 -0.00233552 -7.9574e-23)
(1.03259 -0.030204 -3.87177e-21)
(1.02266 -0.0157895 0)
(0.385062 -0.166786 4.03395e-22)
(1.0113 -8.73948e-05 0)
(0.432056 -0.0245953 2.62649e-20)
(1.00633 0.00126089 -8.3267e-23)
(1.08226 -0.0455265 0)
(1.01536 -0.00554045 1.83751e-21)
(1.05802 -0.0960761 -7.28473e-21)
(1.07083 -0.0300254 0)
(1.06822 -0.0270634 -1.26801e-20)
(0.586101 -0.0230038 2.29809e-20)
(1.07693 -0.0364831 -1.17374e-20)
(1.03384 -0.0238839 6.57938e-22)
(1.00154 -0.000123206 4.04427e-22)
(1.08145 -0.0459548 0)
(0.795602 0.00220143 1.17509e-21)
(1.00705 -0.0512312 -9.497e-22)
(1.03333 -0.0199348 -2.66345e-21)
(0.403127 -0.00306107 0)
(1.00885 0.00199349 2.0773e-22)
(0.220231 0.122379 -7.7073e-23)
(0.958771 -0.119657 -4.8321e-21)
(1.02685 -0.0105056 -3.89874e-21)
(0.662734 -0.0436198 -1.94864e-20)
(0.0829659 0.175456 3.576e-20)
(0.439917 -0.00936867 1.28217e-20)
(0.945907 -0.0554788 -6.23603e-22)
(1.02568 -0.00340465 -1.42437e-21)
(1.01224 -0.00533037 3.15104e-22)
(0.528051 -0.0232122 1.10507e-20)
(1.01659 -0.000180279 3.56395e-21)
(0.795522 0.179062 0)
(0.441844 -0.0175729 1.08225e-20)
(1.01043 -0.00405432 1.31046e-22)
(1.0495 -0.00925682 0)
(1.09054 -0.0815357 -2.34685e-20)
(0.936992 -0.149906 3.97589e-21)
(0.260957 -0.10232 6.31263e-21)
(1.02774 -0.00806943 6.21735e-23)
(1.00282 -0.000102259 -4.81667e-22)
(0.56189 0.1827 4.35978e-21)
(0.455877 -0.0173962 0)
(1.07936 -0.0539734 9.01257e-21)
(1.03598 -0.0244834 -1.97527e-21)
(1.01516 -0.00598727 -4.52329e-23)
(0.949322 -0.116933 0)
(-0.0336776 0.00888739 0)
(1.0805 -0.0499901 0)
(1.00592 0.00107628 0)
(1.03618 -0.0420513 -3.58943e-21)
(1.00667 -0.00157659 2.18813e-25)
(1.00564 -0.000252244 0)
(1.00309 -0.0349109 2.08083e-22)
(1.00008 1.04516e-05 4.5292e-22)
(0.937826 -0.123718 -1.47421e-20)
(0.915152 0.0042673 8.52605e-22)
(1.0228 -0.00744338 -7.27208e-22)
(1.01173 -0.00421267 2.65954e-22)
(1.01244 -0.00542516 1.46443e-22)
(1.02896 -0.0179027 -4.79201e-21)
(0.347298 -0.00321248 2.23519e-20)
(0.525761 -0.0145499 -1.22029e-20)
(1.05459 -0.0317005 0)
(0.332958 -0.101108 1.27633e-20)
(1.01539 -0.0053815 -2.58878e-21)
(1.0525 -0.0322063 0)
(1.01196 -0.0051197 -1.19198e-22)
(1.00684 -0.00164907 -2.86191e-23)
(1.02308 -0.0106018 0)
(1.02231 -0.00738981 -4.68856e-21)
(0.389133 -0.00816937 1.39239e-20)
(1.02396 -0.00430322 0)
(1.08094 -0.0398799 -2.17708e-20)
(1.02583 -0.00438651 -4.31847e-21)
(1.03688 -0.0257007 5.12789e-23)
(1.00816 -0.0423132 2.78096e-22)
(0.0174059 -0.114661 0)
(1.0054 -0.000394444 -2.48891e-22)
(0.45297 0.0913061 -3.45964e-21)
(1.02893 -0.015657 -1.91622e-21)
(1.08138 -0.0550389 -1.84592e-20)
(1.04257 -0.0359163 -1.11029e-20)
(1.04883 -0.0371187 0)
(0.301887 -0.00214053 -1.68874e-20)
(1.0571 -0.0251236 -2.20337e-21)
(1.03317 -0.0307537 0)
(0.38843 -0.164568 2.05682e-21)
(0.826455 0.147318 -7.10968e-21)
(-0.0294866 -0.0372164 -2.54117e-20)
(1.05322 -0.0444154 0)
(0.891783 -0.0185585 0)
(1.021 -0.0123335 -1.19606e-21)
(1.07608 -0.0355468 -1.89266e-20)
(1.07278 -0.0438545 -1.1317e-20)
(0.270143 -0.0984359 -3.37241e-21)
(1.00439 -0.000358991 0)
(0.146499 -0.0234147 -1.0443e-21)
(1.00981 -0.00365226 0)
(1.01048 -0.00410199 0)
(0.110352 0.18545 0)
(1.00917 0.00137497 2.62814e-22)