/*--------------------------------*- C++ -*----------------------------------*\
| =========                 |                                                 |
| \\      /  F ield         | OpenFOAM: The Open Source CFD Toolbox           |
|  \\    /   O peration     | Version:  v2012                                 |
|   \\  /    A nd           | Website:  www.openfoam.com                      |
|    \\/     M anipulation  |                                                 |
\*---------------------------------------------------------------------------*/
FoamFile
{
    version     2.0;
    format      ascii;
    class       surfaceVectorField;
    location    "400";
    object      Uf_0;
}
// * * * * * * * * * * * * * * * * * * * * * * * * * * * * * * * * * * * * * //

dimensions      [0 1 -1 0 0 0 0];


internalField   nonuniform List<vector> 
20673
(
(1.09078 0.12059 0)
(1.09479 0.118096 -1.71292e-21)
(1.09016 0.115678 0)
(1.01938 0.0403537 7.06585e-22)
(1.01822 0.0396809 3.87153e-22)
(1.01839 0.041573 1.13492e-22)
(0.585774 -0.0628426 3.3964e-21)
(0.621818 -0.0648168 2.63082e-20)
(0.648332 -0.0657172 -6.56199e-21)
(1.05398 -0.00904223 1.29402e-22)
(1.05413 -0.00806867 5.88278e-21)
(1.05312 -0.00843483 0)
(0.996353 0.00238555 2.92441e-22)
(0.9962 0.0019646 -1.01373e-20)
(0.995871 0.00247078 -1.40865e-22)
(0.371963 0.051173 0)
(0.359958 0.0239655 2.15337e-20)
(0.343054 0.0521993 6.41206e-20)
(0.528268 -0.0538301 4.13776e-22)
(0.522942 -0.0555484 -3.36204e-21)
(0.574347 -0.0581575 0)
(0.648299 -0.064008 6.62709e-21)
(0.59831 -0.0617429 1.22098e-20)
(0.618086 -0.0646628 1.08574e-20)
(0.474848 -0.0641113 -3.7614e-21)
(0.441966 -0.0610472 2.67712e-20)
(0.406093 -0.0564962 -1.85502e-20)
(1.13119 0.144882 1.07044e-20)
(1.13724 0.144687 2.56013e-20)
(1.13498 0.15074 2.85762e-20)
(1.10925 -0.0561841 -1.06038e-21)
(1.10793 -0.0566177 1.3943e-22)
(1.10939 -0.057565 -8.67838e-22)
(1.08733 -0.0390347 -2.17016e-21)
(1.08777 -0.0403047 4.53399e-23)
(1.08851 -0.0388503 -1.32662e-20)
(1.05479 -0.0093008 -6.62097e-21)
(0.00238203 0.000182859 3.29203e-21)
(0.0260779 -0.00397343 -1.67944e-20)
(-0.00429634 -0.00104991 7.23264e-21)
(0.971558 0.0920524 2.09259e-21)
(0.967424 0.091429 -9.60711e-21)
(0.970513 0.0878081 -1.89119e-21)
(0.993141 0.0877086 -3.77776e-22)
(0.990949 0.0852584 -3.95663e-22)
(0.994595 0.0840935 1.52536e-22)
(1.01265 0.0457922 2.9492e-22)
(1.01406 0.0455019 -1.16881e-21)
(1.01298 0.0442888 -2.03635e-22)
(1.13258 0.0188935 -2.13018e-21)
(1.13363 0.0210806 -5.5782e-21)
(1.13527 0.0180586 1.47848e-22)
(1.08618 -0.0395507 1.31038e-21)
(1.08655 -0.0380595 -2.38322e-21)
(1.00144 0.00473275 -3.33623e-21)
(1.00145 0.0045267 2.55072e-21)
(1.00127 0.00436776 -1.957e-21)
(0.999973 0.000792627 0)
(0.999957 0.00107105 0)
(0.999976 0.000808415 0)
(0.526593 -0.0545754 3.65174e-22)
(0.490031 -0.0544526 -1.60227e-22)
(1.00069 0.00716959 1.73025e-21)
(1.00073 0.00757498 2.65521e-21)
(1.00086 0.00745782 -9.47953e-22)
(0.689497 -0.069249 7.9643e-21)
(0.699917 -0.0698892 -2.46712e-21)
(0.994761 0.013486 1.1274e-22)
(0.994289 0.0132502 -4.7656e-22)
(0.994486 0.0140096 7.65623e-21)
(0.577322 -0.0549702 -5.19346e-21)
(0.538611 -0.0515748 -4.10444e-21)
(0.535089 -0.0532502 1.57683e-21)
(0.788094 0.0294091 0)
(0.779111 0.0349472 1.4969e-20)
(0.780406 0.0230947 1.93956e-20)
(0.760269 0.11329 -2.3149e-20)
(0.758752 0.12576 0)
(0.749852 0.116544 0)
(0.716202 0.549038 0)
(0.747218 0.559174 0)
(0.725783 0.592702 0)
(1.18666 0.0889854 4.1552e-20)
(1.18601 0.0842987 -6.44061e-21)
(1.19098 0.0851002 4.03172e-20)
(1.10835 0.107552 4.3508e-22)
(1.1053 0.110561 4.06674e-22)
(1.1042 0.106092 -8.48202e-23)
(1.05832 0.0874991 -2.13969e-22)
(1.05551 0.0881702 -2.24975e-22)
(1.0564 0.0849172 4.97432e-23)
(0.841251 0.0645764 1.76301e-20)
(0.833478 0.0672415 -3.87254e-20)
(0.834814 0.0578239 -3.33698e-20)
(0.907877 -0.00261607 1.47538e-20)
(0.910667 -0.00556484 -5.58357e-22)
(0.911885 -0.00165024 -3.01698e-21)
(0.991187 0.0100356 -3.51464e-22)
(0.99062 0.0106099 -3.79345e-22)
(0.991323 0.0109188 6.61322e-23)
(1.11114 -0.0706731 2.14987e-21)
(1.11331 -0.070687 -1.05432e-20)
(1.11646 -0.0726813 -8.36508e-22)
(1.00057 0.00685172 7.15078e-22)
(1.00071 0.00677513 0)
(0.152158 -0.027128 -7.35274e-21)
(0.125633 -0.0238514 1.01957e-20)
(0.138266 -0.0245404 -2.33313e-20)
(1.06011 -0.0128521 0)
(1.06094 -0.0135947 0)
(0.308398 -0.00618679 0)
(0.283473 -0.00296491 9.91958e-21)
(0.312412 -0.00566559 -7.5765e-21)
(1.00812 0.000882096 0)
(1.0085 0.000867805 4.65718e-24)
(1.0077 0.000498965 0)
(0.999992 0.000580427 9.31207e-21)
(0.999999 0.000270645 1.85521e-21)
(0.999997 0.000297585 2.67979e-21)
(1.02044 0.00269341 -2.52487e-21)
(1.02012 0.00283974 1.18271e-21)
(1.02004 0.00253098 6.12347e-22)
(0.695957 0.188633 0)
(0.712337 0.1963 0)
(0.695472 0.210295 5.39527e-20)
(1.0362 0.0239544 -3.0653e-21)
(1.03705 0.0246723 3.82697e-22)
(1.03734 0.0238215 0)
(0.890539 0.0130706 0)
(0.889186 0.00849085 -1.25081e-20)
(0.894529 0.0097287 0)
(1.1317 0.0158778 -1.93646e-21)
(1.12965 0.0189325 1.63676e-20)
(1.13451 -0.0121868 -1.32652e-20)
(1.13334 -0.00998137 6.30746e-21)
(1.13195 -0.0122502 -5.80724e-21)
(0.0902361 0.116904 -2.85794e-20)
(0.0897209 0.152496 1.33612e-19)
(0.119342 0.131309 1.9792e-19)
(1.00314 0.000710767 -2.36457e-21)
(1.00342 0.000645085 -9.4262e-22)
(1.00336 0.000996995 2.70689e-23)
(1.08074 0.015644 4.23079e-21)
(1.0817 0.0165777 1.61224e-20)
(1.08217 0.0151112 -1.25403e-21)
(0.965899 0.00700401 -3.86484e-21)
(0.96471 0.005623 8.15665e-21)
(0.964269 0.00769382 9.02469e-21)
(0.083903 0.087049 1.89401e-20)
(0.0506642 0.118992 -2.44549e-19)
(0.904758 0.000438055 4.97211e-20)
(0.90368 -0.00403405 -1.07043e-21)
(1.01234 0.0472627 -4.10335e-22)
(1.01111 0.0458281 1.30882e-21)
(1.08083 0.0368531 -8.82556e-21)
(1.08012 0.0387954 0)
(1.08248 0.0384877 -2.79235e-20)
(1.11089 -0.0558853 8.95135e-21)
(1.10973 -0.0546905 -2.91532e-20)
(0.99413 0.0283228 3.08777e-21)
(0.994217 0.0269401 6.24962e-21)
(0.99522 0.0279384 -6.5723e-21)
(1.06697 0.0429133 1.21211e-20)
(1.06894 0.0439015 -5.22417e-21)
(1.067 0.0451991 -5.71799e-21)
(1.0351 0.0240592 4.50912e-23)
(1.0353 0.0232133 -2.8963e-21)
(0.64869 0.0610688 8.69769e-21)
(0.49555 0.0441299 -2.10597e-22)
(0.555632 0.0481872 -1.20834e-19)
(1.02063 0.0397218 4.01489e-22)
(1.02063 0.0415885 9.17011e-23)
(0.00429751 0.00205859 -1.6735e-20)
(1.00142 0.00491775 -1.08174e-21)
(1.0016 0.00508911 -2.36853e-21)
(0.379461 0.0857404 8.04945e-20)
(0.403028 0.05552 0)
(1.15646 0.393291 -1.19994e-20)
(1.12141 0.366563 2.48662e-21)
(0.867508 0.285977 -6.24453e-20)
(0.99574 -0.00151727 1.70637e-20)
(0.995279 -0.00139782 9.12119e-22)
(0.987729 -0.00295508 -7.10995e-21)
(0.9885 -0.00294028 3.68733e-21)
(1.1444 -0.044982 -1.15094e-20)
(1.14258 -0.0459961 -3.69523e-20)
(1.14479 -0.0471683 -2.84827e-20)
(1.05707 0.1313 -1.001e-22)
(1.06224 0.131292 -6.54884e-23)
(1.05884 0.137138 9.2896e-21)
(0.99678 0.00232736 3.35391e-21)
(0.996483 0.00280489 7.75261e-23)
(0.544925 -0.0716932 1.05048e-20)
(0.507599 -0.068288 1.27357e-20)
(-0.0866346 -0.0154827 -1.34575e-20)
(-0.0612856 -0.0192531 -2.16638e-20)
(-0.0695871 -0.0183398 1.29639e-20)
(0.995406 0.0136939 -3.17282e-21)
(0.995174 0.0127935 1.88489e-21)
(0.0907139 0.187332 -4.16521e-21)
(0.125583 0.205824 7.00853e-22)
(0.0928681 0.226002 -8.88052e-20)
(1.0806 -0.0451356 1.22978e-20)
(1.08007 -0.0444319 2.7707e-21)
(1.08101 -0.0441741 1.52105e-20)
(-0.0851519 -0.00800244 1.91774e-21)
(-0.0602006 -0.0124834 -2.4015e-20)
(-0.0756641 -0.00829852 -5.8611e-20)
(1.05085 0.0262319 -1.00021e-20)
(1.05212 0.0267623 -1.42485e-21)
(1.05101 0.0277078 -1.32922e-21)
(0.547719 -0.0465615 -6.25226e-22)
(0.544948 -0.0488028 0)
(0.585119 -0.0504769 9.54507e-21)
(0.999912 0.00163041 3.98174e-21)
(0.999854 0.00190155 0)
(0.999874 0.00195375 -4.84608e-22)
(1.00001 0.00277503 3.19655e-21)
(1.00002 0.0030652 7.46059e-21)
(1.00005 0.00271604 -6.9579e-22)
(0.996141 -0.00117849 3.3326e-21)
(0.389397 0.112275 7.58531e-20)
(0.400031 0.142391 -7.81396e-20)
(0.421282 0.118222 -6.29829e-20)
(0.182799 -0.0314182 1.98886e-20)
(0.170238 -0.0308296 1.68502e-20)
(-0.0629002 0.0209691 9.40135e-21)
(-0.106397 0.0177227 5.50206e-20)
(-0.0946481 0.0174953 -6.14745e-20)
(1.04952 0.0257972 -1.55743e-21)
(1.05062 0.0249566 -3.33556e-21)
(1.0003 0.00395753 -1.40851e-21)
(1.00035 0.00389304 3.38574e-21)
(1.00025 0.00357734 -4.49663e-21)
(1.16801 0.419523 -3.67461e-20)
(1.23101 0.438555 -6.66168e-20)
(1.07924 0.0147014 4.56287e-21)
(1.07904 0.0164014 -2.75792e-21)
(1.02071 0.00261178 -6.6686e-21)
(1.02079 0.00291112 -1.76271e-21)
(0.0213927 -0.0261066 2.12482e-20)
(-0.00708714 -0.0229234 2.63562e-21)
(0.00636903 -0.0237978 2.95818e-20)
(1.17325 0.123042 5.05729e-21)
(1.16743 0.125291 -3.26707e-21)
(1.17095 0.12947 -1.80403e-20)
(1.02183 0.0233878 -1.43038e-21)
(1.02219 0.0226477 -1.22107e-21)
(1.02124 0.0225993 -2.3662e-21)
(0.973033 0.0492692 1.47574e-20)
(0.970968 0.0504122 4.62021e-21)
(0.973373 0.0517569 -3.16668e-21)
(1.20984 0.436912 -5.34775e-20)
(1.111 0.419669 -9.84362e-20)
(0.373791 -0.00301972 7.83336e-20)
(0.402585 -0.0102082 4.01762e-20)
(0.379678 -0.0376417 7.71031e-21)
(1.12275 -0.0437302 -1.50804e-20)
(1.12439 -0.0437399 -9.89818e-21)
(1.12369 -0.0454703 -6.6441e-21)
(1.13261 -0.00352941 2.49197e-20)
(1.13511 -0.00343878 -1.40398e-20)
(1.13384 -0.00129375 2.31017e-20)
(1.08479 -0.0537624 1.17676e-21)
(1.08413 -0.0545631 -9.168e-21)
(1.08364 -0.0539419 -9.28346e-21)
(0.594543 0.124236 5.18319e-20)
(0.614464 0.109827 5.79107e-21)
(0.616288 0.136067 4.56483e-20)
(1.01058 0.00550853 -1.48728e-22)
(1.01102 0.00562091 -2.53637e-22)
(1.01082 0.00599163 -9.74912e-23)
(0.840813 -0.00695847 -6.64031e-21)
(0.84415 0.000440001 6.7891e-20)
(0.848356 -0.0062752 1.03787e-20)
(0.679747 0.18187 0)
(0.697652 0.173458 -5.00485e-20)
(1.05801 0.0209567 -9.82652e-21)
(1.05919 0.0207399 -4.13298e-21)
(1.05821 0.0195409 -1.54922e-20)
(1.01544 0.0120936 2.42939e-22)
(1.0155 0.0115483 -1.04521e-22)
(1.01602 0.0120705 1.91335e-22)
(0.49667 -0.062419 -4.96247e-22)
(0.486162 -0.0626972 0)
(0.567768 -0.0640015 0)
(0.818888 0.486193 -9.44829e-21)
(0.790962 0.504176 -1.2091e-20)
(0.82966 0.512018 -1.18348e-20)
(1.13546 -0.0137646 4.35989e-20)
(1.13668 -0.0118045 -2.40769e-20)
(1.01559 0.0451439 -2.12878e-22)
(1.01546 0.0468316 -3.82733e-22)
(1.1071 0.120184 1.64734e-20)
(1.10358 0.122884 1.76818e-20)
(1.10823 0.125035 -4.63393e-21)
(-0.146735 -0.0115649 -5.49544e-20)
(-0.179099 -0.0106057 0)
(-0.164825 -0.0110512 -1.99025e-20)
(0.325414 -0.00912162 1.2468e-20)
(0.301416 -0.00567861 0)
(1.08878 -0.045164 0)
(1.08789 -0.0455403 -4.35078e-21)
(1.08864 -0.0461449 0)
(0.496217 -0.0636304 -1.92883e-20)
(0.427554 -0.0622823 -1.17827e-20)
(0.948936 0.0046914 2.10702e-20)
(0.947497 0.00667021 7.69942e-21)
(0.946854 0.00390484 3.76579e-22)
(0.0878863 -0.137832 1.07385e-19)
(0.0992237 -0.107999 -4.22141e-20)
(0.0608203 -0.112356 -3.34355e-20)
(1.00047 0.0126792 -2.93683e-21)
(1.00051 0.0132798 -4.44943e-21)
(1.00017 0.0129466 -4.62809e-21)
(0.180925 0.0901804 -1.98106e-19)
(0.211013 0.0717463 -9.34336e-22)
(0.212156 0.106922 -4.92388e-20)
(0.176343 -0.00680788 -4.6307e-21)
(0.184298 -0.00883913 3.24311e-21)
(0.198065 -0.0122744 5.66315e-21)
(0.907156 0.00841152 -3.74773e-21)
(0.904277 0.0115912 1.2131e-20)
(0.908864 0.0121614 -2.24029e-20)
(0.999998 0.000881009 -1.87039e-21)
(0.999982 0.000863201 2.726e-21)
(1.14599 -0.044147 2.22874e-20)
(1.14426 -0.0433609 2.36041e-20)
(0.139511 -0.00855615 0)
(0.160723 -0.0124301 -2.99749e-21)
(0.153179 -0.0117577 0)
(0.762195 0.101495 -3.70972e-22)
(0.773799 0.110241 -4.17492e-20)
(1.00475 0.000621793 3.2407e-22)
(1.00497 0.000904524 5.47132e-22)
(1.00507 0.000527964 -2.30866e-22)
(0.973052 0.0466446 -6.48151e-21)
(0.97528 0.0480065 8.9816e-21)
(1.03231 0.0269101 -2.09572e-21)
(1.03301 0.0277753 -1.40764e-21)
(1.03197 0.0278079 0)
(1.00445 0.00063616 -6.44926e-22)
(1.00433 0.000310567 -4.11617e-22)
(1.01749 0.00193839 0)
(1.01775 0.00178617 0)
(1.01743 0.00165644 5.08406e-23)
(0.345707 -0.0020187 -1.10227e-20)
(0.262304 -0.0283827 6.66773e-21)
(0.250929 -0.0255539 -1.15667e-21)
(0.239287 -0.022582 1.629e-20)
(0.950523 0.00235547 1.82462e-20)
(0.95147 0.00512329 0)
(1.03787 0.0253661 3.28665e-22)
(1.03671 0.0255689 -1.1635e-22)
(0.999963 0.000763569 3.2123e-21)
(0.999994 0.000523727 -6.02096e-21)
(1.27077 -0.00963542 -1.80069e-22)
(1.27215 -0.0081846 -1.72155e-20)
(1.25771 -0.0178998 -2.58056e-21)
(0.735846 -0.0736644 0)
(0.678739 -0.069491 1.54533e-20)
(1.09109 0.125245 0)
(1.08672 0.122416 -9.88955e-21)
(0.577984 0.135361 -6.94434e-21)
(0.57844 0.107398 3.59037e-20)
(0.995226 -0.000933196 -1.25428e-20)
(0.994778 -0.00133847 -1.21824e-20)
(0.905792 0.00443351 1.2096e-20)
(0.91002 0.00566604 -2.23424e-20)
(1.10482 -0.0688533 -2.69688e-21)
(1.10289 -0.0686005 0)
(1.10173 -0.066939 0)
(1.02385 0.0128236 1.7948e-21)
(1.02377 0.0133666 1.82648e-21)
(1.02312 0.0128572 1.7425e-21)
(0.96278 0.0188836 -2.92533e-21)
(0.960594 0.0195899 -2.47303e-20)
(0.961388 0.0169792 -1.19909e-20)
(0.662959 0.18569 -2.5457e-20)
(0.642705 0.191906 -2.27137e-20)
(0.661145 0.208556 8.75737e-21)
(0.987489 -0.00222107 -2.24481e-20)
(0.986943 -0.00285121 1.94083e-21)
(0.750732 -0.0715655 1.20159e-20)
(0.673396 -0.0682638 9.86399e-21)
(0.746675 -0.0711618 -3.03706e-21)
(0.808497 0.590954 -7.77273e-22)
(0.815983 0.561632 -1.44264e-21)
(0.781315 0.562936 -3.47877e-21)
(0.967166 0.00866368 -1.54459e-20)
(0.967786 0.0065258 -8.04266e-21)
(1.02255 0.0108221 4.37943e-22)
(1.02258 0.0113453 -1.38802e-21)
(1.02197 0.010863 3.33944e-22)
(1.05315 0.0945582 0)
(1.04964 0.0949908 -2.66168e-21)
(1.05208 0.0986919 -3.6457e-21)
(1.11 -0.0196896 3.40025e-21)
(1.11135 -0.0211812 -1.11997e-20)
(1.1114 -0.0186554 2.10243e-22)
(0.111819 -0.158961 4.82902e-20)
(0.0725352 -0.168364 1.24853e-19)
(1.1053 -0.0404775 3.61406e-23)
(1.10676 -0.041059 1.09077e-20)
(1.10522 -0.041851 2.34203e-20)
(1.0198 0.175939 -2.23795e-21)
(1.02287 0.171187 4.00122e-21)
(1.02726 0.175216 -3.7328e-22)
(1.07443 0.0613453 3.39189e-21)
(1.07243 0.0632194 -9.04197e-21)
(1.07177 0.0603996 1.44821e-21)
(-0.0259883 0.0517736 2.98247e-20)
(-0.0454159 0.0583988 -1.06809e-19)
(-0.0783384 0.0506694 -9.07543e-20)
(1.0522 0.131798 0)
(1.05501 0.127065 -5.61349e-22)
(1.12549 -0.0762537 0)
(1.14538 -0.0730344 0)
(1.148 -0.0725515 7.40046e-21)
(-0.11683 -0.00532251 1.95485e-20)
(-0.0930306 -0.00857283 3.1683e-20)
(1.28129 -0.00705289 3.26859e-21)
(1.25633 -0.00722655 1.42804e-20)
(0.940744 0.0402153 0)
(0.937923 0.0417609 0)
(0.937853 0.0381598 1.43638e-20)
(0.789169 -0.0339364 2.74666e-20)
(0.783492 -0.0254577 -4.64598e-20)
(0.777602 -0.0364707 2.16372e-20)
(0.999976 0.00210907 0)
(0.999998 0.00204162 0)
(0.999969 0.00173108 3.15812e-21)
(1.12079 -0.0443101 -6.61441e-21)
(1.12165 -0.0422974 -1.48029e-21)
(1.08995 -0.0448095 -1.97609e-20)
(1.08893 -0.044044 6.9008e-21)
(1.08512 -0.0530314 1.10315e-20)
(1.08581 -0.0536521 2.34889e-20)
(1.05781 0.0221683 7.25827e-21)
(1.05685 0.0210471 5.97001e-22)
(1.12136 -0.0122856 1.82158e-21)
(1.12005 -0.0137963 -1.25689e-20)
(1.12234 -0.0143556 1.20745e-20)
(1.03038 0.0202755 1.47104e-21)
(1.03113 0.0208863 -2.61417e-21)
(1.03014 0.0210967 0)
(0.83769 -0.0132521 -7.29382e-20)
(0.833103 -0.00612084 -9.80573e-20)
(1.04452 0.170149 6.1867e-22)
(1.03747 0.169581 1.95753e-21)
(1.04262 0.163643 3.05451e-21)
(-0.291129 0.0013837 -1.37212e-21)
(-0.308357 0.00272111 2.02654e-20)
(-0.277195 0.00108188 -4.76645e-20)
(1.08572 -0.0471284 1.78337e-21)
(1.08616 -0.048021 7.59889e-21)
(1.08674 -0.0471305 2.0395e-20)
(1.01131 0.053336 -2.55163e-21)
(1.01121 0.0550677 -9.96168e-22)
(1.00951 0.0538506 1.84751e-22)
(0.847934 -0.0736916 -2.03935e-20)
(0.840051 -0.074409 0)
(0.90998 -0.0740429 -8.8436e-21)
(1.01194 0.193484 1.88619e-22)
(1.00905 0.198356 1.67295e-22)
(1.01672 0.198237 -1.7646e-21)
(0.273404 -0.0288327 -1.68919e-20)
(0.289997 -0.0316957 1.95993e-21)
(0.150142 0.0732321 -8.68617e-20)
(0.150515 0.11061 -8.80805e-20)
(0.764551 -0.0725482 -1.0907e-20)
(0.831693 -0.0730673 -1.16306e-20)
(1.01121 0.0253578 -2.77295e-22)
(1.01184 0.0260252 -1.29461e-21)
(1.01101 0.0261689 0)
(1.1787 0.121567 3.3712e-20)
(1.17503 0.117523 -2.46278e-21)
(1.11328 0.10901 0)
(1.11185 0.104549 1.81567e-21)
(1.02452 0.012744 -1.1301e-21)
(1.02385 0.012254 0)
(1.00026 0.00404457 0)
(1.00034 0.00437534 -2.07769e-21)
(0.934831 0.111947 8.19916e-21)
(0.931017 0.107978 -7.97621e-21)
(0.937049 0.107536 9.67757e-21)
(0.624547 -0.0585446 -8.20042e-21)
(0.620218 -0.0587166 0)
(1.2479 0.128519 -2.67432e-20)
(1.25521 0.126349 4.14197e-20)
(1.25637 0.133397 4.11617e-20)
(-0.00729258 0.0519925 1.09981e-19)
(0.0649189 0.0675118 7.32764e-20)
(1.10997 0.0395718 -5.42882e-21)
(1.10958 0.0420106 1.8409e-21)
(1.11211 0.0408193 7.91224e-21)
(1.09224 -0.0525997 0)
(1.09139 -0.0528073 -2.01669e-22)
(1.09199 -0.053582 0)
(1.11524 -0.0678284 2.00945e-20)
(1.11905 -0.0692089 -1.19732e-21)
(1.1216 -0.069266 -6.82148e-21)
(-0.0132384 0.0232705 -3.72358e-20)
(-0.0275905 0.0227887 -7.8673e-20)
(1.24299 0.172652 5.77624e-20)
(1.24323 0.165944 1.25811e-22)
(1.25117 0.169849 -3.08405e-22)
(0.999536 0.00739626 -3.92866e-21)
(0.999642 0.00704581 5.07482e-21)
(0.999475 0.00691495 -6.65334e-21)
(0.566921 0.0458088 0)
(0.572342 0.0657307 -1.7456e-20)
(0.547741 0.0598991 0)
(0.796574 0.0261273 -3.25212e-20)
(0.795638 0.037264 3.05751e-20)
(1.00923 0.00037268 3.74283e-22)
(1.00888 0.000368189 -3.01933e-22)
(1.02141 0.0240045 -1.63582e-22)
(1.02244 0.0241394 8.11516e-22)
(0.86657 0.45319 3.59452e-21)
(0.861293 0.426189 -1.42148e-20)
(0.888092 0.43484 2.72315e-21)
(1.22536 0.479925 1.84232e-20)
(1.22978 0.460615 2.91822e-20)
(1.15693 0.443537 7.3412e-20)
(1.07218 -0.000566975 -2.59079e-21)
(1.07321 -0.00130718 8.77134e-21)
(1.0735 -3.19323e-05 2.48748e-21)
(1.00296 0.000853413 -2.03232e-21)
(1.00295 0.0005327 -1.58663e-21)
(1.11516 -0.014799 6.47352e-21)
(1.11395 -0.0131612 6.58047e-21)
(1.11646 -0.0131027 -5.7813e-21)
(1.10885 -0.0211219 -1.83926e-21)
(1.10832 -0.0187671 3.38073e-21)
(-0.102994 -0.0131214 -2.61752e-20)
(-0.110526 -0.0125817 -4.03005e-20)
(1.23161 -0.0410182 -2.37151e-20)
(1.22638 -0.0427315 -2.2633e-20)
(1.21635 -0.0400009 -4.58407e-20)
(0.991682 0.00967602 -2.03855e-22)
(0.991216 0.00942923 -7.35987e-21)
(0.993058 0.0284985 -2.47316e-22)
(0.994022 0.029453 -7.86386e-21)
(1.13035 -0.00359966 5.00459e-21)
(1.13128 -0.00569268 3.50226e-21)
(0.599129 -0.0611439 1.87261e-20)
(0.657344 -0.063587 -7.87739e-21)
(0.639725 -0.0631027 3.22466e-21)
(0.964654 0.0179837 2.73411e-20)
(0.964298 0.0203012 1.47629e-20)
(0.515133 -0.0562131 -3.33993e-21)
(0.50512 -0.0561877 0)
(0.559994 -0.059025 0)
(-0.159639 -0.00695476 0)
(-0.134001 -0.00907009 -2.74442e-20)
(-0.152967 -0.00677945 -4.45092e-21)
(1.09264 -0.0517399 -9.49167e-21)
(1.09336 -0.0527409 1.20751e-20)
(1.01499 0.0120214 -4.1739e-22)
(1.0154 0.0125198 0)
(0.493373 0.380418 9.28992e-21)
(0.513094 0.415225 -4.80857e-20)
(0.460223 0.416263 -8.44123e-20)
(1.12336 -0.00348212 1.85014e-20)
(1.12571 -0.00363325 3.85968e-20)
(1.12451 -0.00148031 -2.26391e-20)
(-0.268358 -0.00454032 3.90752e-20)
(-0.236327 -0.00803781 -6.91087e-20)
(-0.25372 -0.00409404 -5.49481e-20)
(1.00216 0.0169466 5.18469e-21)
(1.00252 0.0173695 -9.61266e-23)
(1.00214 0.0176953 2.144e-21)
(0.802682 0.0822175 4.32376e-20)
(0.755156 0.0802036 1.27725e-20)
(1.01052 0.0245806 1.15046e-22)
(1.01135 0.0245406 6.34875e-22)
(1.18171 0.0640129 5.14836e-20)
(1.17802 0.0619953 2.17174e-20)
(1.17812 0.0661467 1.91161e-20)
(1.00798 0.00114633 0)
(1.00778 0.00079271 0)
(0.129336 -0.0301316 -3.12309e-21)
(0.103505 -0.0281626 -2.65435e-20)
(0.122744 -0.0288902 -1.92408e-20)
(0.477271 -0.0626063 3.10692e-20)
(0.467099 -0.0623901 -9.81472e-21)
(0.545861 -0.0631711 6.26645e-20)
(0.99257 0.0909177 -4.01252e-21)
(0.996118 0.0897587 0)
(1.17258 0.473032 5.57468e-20)
(1.21484 0.48472 -7.24677e-20)
(1.18307 0.454428 1.6504e-20)
(1.07715 0.0619762 1.29924e-20)
(1.07584 0.0592982 9.4959e-21)
(1.01432 0.0118857 -3.35064e-22)
(1.01446 0.011368 -2.92276e-22)
(1.10362 -0.0691814 4.75857e-21)
(1.1105 -0.0709795 1.28792e-20)
(1.08476 -0.0471316 -1.6169e-20)
(1.08528 -0.0462508 -1.62439e-20)
(1.10793 0.0383577 -1.11441e-20)
(1.11016 0.0372027 3.51508e-21)
(0.712242 -0.0688712 -1.73239e-20)
(0.665746 -0.0678086 -5.62079e-21)
(0.734204 -0.0692002 -1.16625e-20)
(-0.168344 -0.00383529 0)
(-0.189579 -0.0029282 2.69463e-20)
(1.01165 0.00303943 -3.26723e-22)
(1.01204 0.00309237 -1.10468e-22)
(1.01184 0.00267508 -4.18897e-22)
(1.06112 0.0865377 0)
(1.06042 0.0901513 -9.50262e-21)
(0.0410115 -0.0295168 -3.32641e-20)
(0.0543785 -0.030218 9.12903e-21)
(-0.119687 0.0220283 -4.7585e-21)
(-0.148875 0.0195861 -5.30914e-20)
(-0.123237 0.022484 -7.10002e-20)
(0.999959 0.0020733 0)
(0.999939 0.00243383 -3.64406e-21)
(1.00562 0.00843617 0)
(1.00601 0.00868373 0)
(1.00577 0.00886704 0)
(0.349664 -0.00532756 1.14453e-20)
(0.367765 -0.0083386 1.81287e-20)
(1.12927 -0.0452061 4.34114e-21)
(1.1276 -0.0455599 7.21405e-21)
(1.12864 -0.0471853 -2.37843e-20)
(1.00005 0.000123268 -7.12036e-22)
(1.00002 9.41733e-05 4.63767e-22)
(1.00005 0.000154732 1.49055e-22)
(1.09251 -0.0669088 -3.56518e-21)
(1.09114 -0.0665259 3.52492e-20)
(1.09368 -0.065591 1.47285e-20)
(1.16689 0.0101282 1.9417e-20)
(1.16553 0.00708623 -1.90099e-20)
(1.16321 0.0101734 -2.20714e-20)
(0.798461 -0.0337773 9.73233e-20)
(0.793969 -0.0434997 1.05748e-19)
(1.08734 0.10396 -2.51439e-22)
(1.09029 0.107376 -2.31652e-22)
(1.09086 0.102488 4.78021e-22)
(0.999995 0.00241154 0)
(1.00001 0.00202905 0)
(0.978252 0.204671 -2.76975e-21)
(0.979659 0.19515 0)
(0.970058 0.199276 -7.1525e-21)
(-0.129137 -0.00702588 -5.79973e-21)
(-0.126445 -0.00603102 0)
(-0.159309 -0.00253245 0)
(1.03921 0.00445815 4.4087e-21)
(1.03944 0.00385687 4.46514e-21)
(1.04014 0.00436319 -2.72049e-21)
(1.19514 0.136558 -3.68303e-20)
(1.18973 0.140028 5.71623e-21)
(1.19012 0.132337 2.85421e-21)
(0.56785 0.152846 -7.97048e-20)
(0.583151 0.173582 5.55052e-20)
(0.553342 0.178735 -3.13237e-20)
(1.03161 0.0260154 -3.05751e-22)
(1.03262 0.0259083 -2.11367e-21)
(0.994352 0.0257117 -1.05838e-21)
(0.993377 0.026013 4.71608e-21)
(1.10108 -0.0346849 -1.18764e-20)
(1.10248 -0.0355548 3.21233e-21)
(1.10086 -0.0361622 -5.84557e-21)
(0.380094 -0.0144377 0)
(0.365424 -0.0117172 -3.36102e-21)
(0.363034 -0.0119372 -3.33705e-21)
(1.10382 -0.0401413 -1.1721e-20)
(1.10537 -0.0391215 -6.9362e-21)
(0.937691 0.116322 1.40791e-21)
(0.932148 0.117389 0)
(0.975423 0.0920315 3.80023e-21)
(0.97279 0.0956913 -2.04801e-21)
(1.00005 0.000267303 1.57629e-21)
(1.00005 0.000232381 1.20226e-22)
(1.00002 0.000156617 1.39276e-21)
(0.118973 -0.00533283 0)
(0.12653 -0.00587804 1.68339e-21)
(0.65097 -0.0443903 -4.15137e-20)
(0.739725 -0.0474938 -3.36374e-20)
(0.734122 -0.045034 -1.5238e-20)
(1.08408 -0.0659623 -8.71069e-21)
(1.08694 -0.0665003 -1.37416e-20)
(1.08997 -0.0669348 -2.27862e-20)
(1.0138 0.0118073 5.82428e-22)
(1.01425 0.0123422 6.15333e-22)
(-0.146558 -0.0120537 3.55813e-22)
(-0.118838 -0.01569 3.07839e-20)
(-0.130813 -0.0139745 -2.75333e-20)
(0.0247859 -0.00885978 -1.35024e-20)
(0.0295419 -0.0074812 1.90046e-20)
(0.00523545 -0.00475187 2.86452e-20)
(1.0876 -0.0758876 0)
(1.10078 -0.0758494 0)
(0.545539 -0.0469956 -1.00944e-20)
(0.515367 -0.0460042 -5.65776e-22)
(1.08114 -0.0457039 8.55438e-21)
(1.08026 -0.0458488 -1.44241e-20)
(0.999967 0.00279553 3.55721e-21)
(1.00607 0.000697547 1.70823e-23)
(1.00575 0.000743829 -9.1025e-22)
(1.00613 0.00109671 -5.95579e-22)
(1.13108 0.0138951 1.48228e-22)
(1.12858 0.0138031 1.84344e-20)
(1.13022 0.0115563 1.54578e-22)
(0.0577496 -0.0224419 -3.84026e-20)
(0.0386025 -0.0190665 -1.94856e-20)
(0.0329228 -0.018951 1.84307e-20)
(1.1519 -0.0245818 -1.47148e-21)
(1.1538 -0.0230222 -5.26412e-20)
(1.1541 -0.0261724 -6.16224e-20)
(1.06497 0.0421347 9.97059e-21)
(1.06675 0.0409721 7.77322e-21)
(1.23374 -0.040153 -6.92831e-22)
(1.22196 -0.0463887 1.01321e-21)
(1.07572 -0.0318421 -7.08944e-21)
(1.07493 -0.0312206 4.88241e-21)
(1.01744 0.00108763 -3.80076e-24)
(1.0174 0.0013503 3.36469e-22)
(1.01766 0.00122411 -1.84848e-21)
(1.01397 0.0240147 0)
(1.00643 0.0182195 2.69895e-20)
(0.912005 0.00541457 -6.88869e-20)
(1.00185 0.00463549 3.31694e-23)
(1.00185 0.00443412 0)
(1.00166 0.00430856 0)
(0.847087 -0.0741712 -4.86116e-21)
(0.778141 -0.0735123 -1.80164e-20)
(1.07104 0.000460725 1.49888e-20)
(1.07069 -0.000838633 8.92824e-22)
(1.00006 9.55267e-05 -2.27921e-21)
(1.00009 0.000150995 0)
(0.998719 0.104407 3.28242e-21)
(0.997505 0.108964 -5.57576e-22)
(0.994767 0.104644 1.65578e-21)
(1.01798 0.18159 -2.53237e-21)
(1.01358 0.176335 -2.42024e-21)
(0.77823 -0.0157461 -1.96052e-21)
(0.788469 -0.0151659 -2.21943e-21)
(1.09678 -0.0680806 -1.02154e-20)
(1.09418 -0.0671222 -2.09423e-20)
(0.996129 0.138042 1.02258e-21)
(0.996378 0.144038 -4.4529e-22)
(0.990491 0.140047 4.39198e-22)
(1.0419 0.00998797 8.11666e-21)
(1.04247 0.0107752 -7.50661e-21)
(1.04144 0.0105715 -3.12926e-22)
(1.22723 0.00702879 0)
(1.23019 0.0108041 -2.84042e-20)
(1.23955 0.00729427 0)
(0.751263 -0.069604 -5.8314e-21)
(0.68642 -0.0694274 8.00034e-21)
(0.572649 -0.0496579 -1.38646e-21)
(0.577992 -0.048238 -2.28536e-20)
(1.00175 0.0166874 1.04939e-21)
(1.00212 0.0163761 3.56435e-21)
(1.07437 -0.0755491 -2.8486e-20)
(1.11139 -0.0744016 1.53633e-20)
(1.06516 -0.0751858 1.83737e-20)
(0.998489 -0.000412652 -1.02513e-21)
(0.998381 -0.000156835 -4.31289e-21)
(0.998205 -0.000413947 0)
(1.04154 0.00920638 8.98084e-21)
(1.04257 0.00933282 4.87876e-21)
(1.00041 0.0120399 8.74027e-21)
(1.00076 0.0123649 2.25869e-21)
(0.838393 0.620866 1.04114e-20)
(0.791355 0.627132 3.54663e-21)
(1.00151 0.000892459 1.59689e-21)
(1.00164 0.000778288 0)
(1.0014 0.000699977 0)
(1.18518 0.0658125 3.04973e-20)
(1.18508 0.0617603 -7.7972e-21)
(1.0838 0.106321 -9.10173e-22)
(1.08403 0.101481 -7.88206e-21)
(1.02958 0.0195928 -2.08088e-22)
(1.03056 0.0194323 -5.70525e-23)
(1.11618 -0.0164873 1.21891e-20)
(1.11373 -0.0159123 1.75642e-20)
(1.03424 0.0558485 1.46596e-21)
(1.03516 0.0542039 3.2703e-21)
(1.03644 0.0559593 0)
(0.119295 0.0525189 -9.34698e-20)
(0.106204 0.035713 -9.07779e-21)
(0.10404 0.0689963 2.11449e-20)
(1.0155 0.188202 1.84188e-22)
(1.00824 0.188578 7.46886e-22)
(1.16411 0.119706 -8.13929e-21)
(1.16133 0.125841 1.38677e-20)
(1.02854 0.0140102 3.59398e-21)
(1.02918 0.0146306 2.08609e-21)
(1.02925 0.013833 5.0358e-21)
(0.995274 0.0253929 -3.52209e-22)
(0.994468 0.024585 -6.06333e-21)
(-0.168982 -0.00871614 8.82318e-20)
(-0.192072 -0.00784861 1.8547e-20)
(-0.198048 -0.00777756 -6.73325e-21)
(0.119215 -0.00820335 -5.58903e-21)
(0.110993 -0.00749546 -5.79433e-21)
(0.134197 -0.0118324 1.21004e-20)
(1.00047 0.0138939 0)
(1.00082 0.0136173 0)
(1.00673 0.000643701 3.46439e-22)
(1.00715 0.000870236 4.17392e-22)
(1.00676 0.00114266 8.47003e-22)
(1.00529 0.0235121 0)
(1.12205 0.032161 0)
(1.01425 0.0240548 -7.88712e-23)
(1.01446 0.024991 -7.40093e-22)
(1.01525 0.0245556 -3.86777e-22)
(-0.0335347 -0.0226897 -2.28172e-20)
(-0.051752 -0.020069 -1.12089e-20)
(1.02785 0.0135659 -2.93137e-21)
(1.02782 0.0143292 -4.15606e-21)
(0.134982 -0.0309646 1.42859e-20)
(0.155268 -0.032433 1.26671e-20)
(1.04579 -0.0029761 1.68852e-21)
(1.04532 -0.00358455 7.38128e-21)
(1.04617 -0.00358854 1.0204e-20)
(1.21011 0.313459 -3.02157e-20)
(1.19792 0.312721 -4.1658e-20)
(1.20304 0.325424 2.95015e-20)
(1.09593 0.00415742 -5.04705e-20)
(1.0959 0.00599806 3.10189e-22)
(1.09782 0.0050446 1.07086e-20)
(0.0977509 0.301044 6.81354e-20)
(0.0960725 0.260848 -1.46109e-20)
(0.131249 0.278392 -5.58096e-20)
(0.943903 0.0414395 -1.81095e-20)
(0.943512 0.0380547 0)
(1.27527 -0.00121233 0)
(1.28739 -0.00125668 0)
(0.516261 0.287414 6.32956e-21)
(0.489392 0.297839 -5.19854e-20)
(0.517414 0.31998 6.22287e-20)
(1.00265 0.104672 -7.17356e-22)
(1.0003 0.101376 1.2863e-21)
(1.13 -0.0438033 0)
(1.13112 -0.0454454 -7.50025e-21)
(0.951096 0.500155 1.40336e-20)
(0.968307 0.51796 -2.6028e-20)
(0.939187 0.523316 5.98801e-21)
(0.995314 0.0415581 2.13397e-21)
(0.993863 0.0410163 3.68207e-21)
(0.994216 0.0428315 0)
(0.210385 -0.0269873 0)
(0.183779 -0.0230384 -2.43112e-21)
(0.19451 -0.0239925 0)
(0.582007 0.0347009 -7.6266e-20)
(0.561326 0.0256426 4.10612e-21)
(0.0416032 -0.0114143 -2.92104e-20)
(0.0229061 -0.00906779 1.73757e-20)
(0.922737 0.0143157 1.38057e-20)
(0.919139 0.0154831 -1.74492e-21)
(0.921894 0.0182978 1.02441e-20)
(0.236511 -0.00687131 3.45621e-21)
(0.211853 -0.00318105 0)
(0.239969 -0.00614257 7.01897e-21)
(1.06417 0.0856549 0)
(1.06648 0.0889148 0)
(1.06746 0.0854389 0)
(-0.0921968 0.000862723 5.65183e-20)
(-0.0603682 0.00133365 9.34496e-20)
(-0.048567 -0.000157921 3.44264e-20)
(0.522576 0.256344 3.53598e-20)
(0.54797 0.279464 -8.87678e-21)
(0.926525 0.342919 4.89877e-21)
(0.910059 0.340635 0)
(0.919194 0.358032 0)
(0.944515 0.348253 4.67982e-21)
(0.936102 0.330025 5.2068e-22)
(0.555898 -0.0621129 -1.2028e-20)
(0.526539 -0.0619295 -4.57875e-21)
(0.999729 0.00206052 -9.28501e-21)
(0.999655 0.00230418 -1.45151e-21)
(0.999688 0.00235967 -5.61501e-21)
(1.05127 0.16902 8.21787e-21)
(1.04839 0.175847 -6.14346e-21)
(-0.109542 -0.0138182 -4.67449e-21)
(-0.124458 -0.0126954 -1.15609e-19)
(0.982449 0.0272069 -1.51876e-21)
(0.981489 0.0280557 -4.51715e-21)
(0.981205 0.0263692 -1.32774e-21)
(1.00025 0.0707524 1.26302e-21)
(1.00106 0.0684424 2.68534e-21)
(0.998364 0.0688624 6.96629e-23)
(0.0454405 -0.00825394 0)
(0.0522315 -0.00814692 7.84735e-21)
(0.843613 0.471863 1.674e-20)
(0.87583 0.479704 6.65685e-21)
(1.01499 0.0502332 7.45333e-22)
(1.01491 0.0517874 -7.29337e-22)
(1.01673 0.0513009 -2.94974e-22)
(1.11307 -0.0665518 1.35831e-20)
(1.11126 -0.0667891 9.46173e-21)
(0.681156 0.54449 3.29956e-20)
(0.707087 0.516209 0)
(1.00866 0.00487412 -4.65708e-22)
(1.00907 0.00513153 5.78772e-23)
(1.00901 0.0046664 4.09454e-23)
(0.168466 -0.00672516 1.15149e-20)
(0.14755 -0.00328502 -1.14158e-20)
(1.11146 -0.0691807 -4.7774e-21)
(1.11785 -0.070647 1.24503e-20)
(1.10739 -0.0689279 -5.41463e-21)
(1.00183 0.00483208 2.06247e-21)
(1.00203 0.00497328 -2.2637e-21)
(1.00917 0.0125191 -8.68557e-22)
(1.00869 0.0121516 -8.80635e-23)