/*--------------------------------*- C++ -*----------------------------------*\
| =========                 |                                                 |
| \\      /  F ield         | OpenFOAM: The Open Source CFD Toolbox           |
|  \\    /   O peration     | Version:  v2012                                 |
|   \\  /    A nd           | Website:  www.openfoam.com                      |
|    \\/     M anipulation  |                                                 |
\*---------------------------------------------------------------------------*/
FoamFile
{
    version     2.0;
    format      ascii;
    class       volScalarField;
    location    "200";
    object      ddt0(omega);
}
// * * * * * * * * * * * * * * * * * * * * * * * * * * * * * * * * * * * * * //

dimensions      [0 0 -2 0 0 0 0];


internalField   nonuniform List<scalar> 
13851
(
-0.00212274
5.73572e-06
6.19076e-06
0.00661214
7.43419e-09
9.34271e-06
-4.24224e-06
-5.89685e-07
0.0684288
-1.19092e-06
-0.000231295
-2.40839e-07
3.37397e-06
-0.0339681
7.14232e-05
0.00337697
0.0205298
-1.43606e-07
-0.0143016
-0.00219614
4.9953e-06
-8.20682e-06
-0.145985
-1.3397e-08
-0.0900939
0.000873328
0.0402073
0.0100124
0.0977467
-9.76251e-07
0.00606026
-3.52718e-06
-0.00220913
-0.0689391
-2.58317e-05
0.0861788
-8.76915e-09
-0.0135365
0.0198088
-6.12215e-07
-0.0424933
0.117671
0.0288201
0.00508936
0.145715
-1.03474e-07
-4.46819e-07
0.0023376
-2.55496e-06
3.25158e-06
-0.0508508
2.77607e-06
0.00354404
2.86554e-05
-0.0485454
-1.1171e-07
-0.00134424
-0.0378583
0.00325788
0.0650753
-1.43254e-07
-0.0396129
-1.9279e-07
-2.1244e-06
-0.0201729
-0.0173277
0.0544772
-0.00986813
-5.2442e-06
0.0161637
0.00382211
-5.04557e-05
3.87506e-06
0.0715366
7.16144e-05
-1.40965e-05
0.00160853
-3.74186e-07
-0.582159
9.78029e-07
-5.59925e-06
0.0023886
-1.31125e-05
0.111558
0.0709099
0.00818848
-8.48276e-06
-0.037895
-1.10698e-06
0.0071997
2.52414e-06
-1.49121e-06
-0.149013
0.0114877
-0.0317128
0.0235077
1.68576e-06
0.00340783
-0.0417639
-8.39537e-05
0.00305503
-0.00168934
-0.00520717
4.65815e-06
-1.11238e-06
-9.10718e-05
-1.01526e-06
0.00516122
-1.16063e-06
-3.02971e-07
0.000122021
-3.24169e-07
-0.00791576
-0.000550532
-0.0027952
1.99433e-05
-2.40631e-07
-6.12379e-07
0.000947712
0.0398084
0.0136339
-9.47251e-07
-4.48681e-06
0.00801349
0.00620118
-0.00912061
1.62987e-06
1.09781e-05
-0.0465836
3.22881e-05
-9.82436e-06
2.34117e-07
-0.161727
-0.065989
-6.84043e-05
-0.0225118
-0.00704328
0.00763055
-0.00132713
8.61648e-05
0.0048305
6.39839e-07
-9.70885e-07
-0.00834627
0.05227
-1.51971e-05
-3.22582e-07
0.0129177
0.056018
2.79797e-05
0.00254179
-0.00728073
-0.000595169
-0.00809915
4.03356e-06
3.685e-07
4.58815e-08
0.00871276
7.45157e-05
3.58434e-06
-2.16437e-08
0.0933876
-8.96703e-05
0.00214801
-0.0530851
0.0985367
0.0917414
-0.0354729
3.33134e-06
-0.0529978
1.26196e-08
-2.30246e-07
-0.000326772
-3.29655e-08
-0.0363536
0.0661066
0.000282182
-4.17434e-07
6.64997e-05
0.00129683
0.00572903
0.00373914
2.25644e-06
6.57732e-05
0.196988
0.0594032
-0.00259175
-2.99156e-05
5.49748e-06
-1.06444e-06
-0.23509
7.07121e-05
0.0192734
9.37332e-06
-1.44063e-05
0.00355115
-0.00317028
9.37667e-07
2.92799e-07
-0.00092175
0.0166848
-0.0425473
-0.0373312
7.72594e-05
1.44674
-0.0335809
-6.20301e-09
0.000180267
0.0568938
9.03021e-06
0.00335015
-3.58042e-06
0.00819326
7.58364e-09
-4.65321e-05
-1.44688e-05
3.07377e-06
0.00365588
1.19718e-06
0.0267477
-3.61684e-07
3.03454e-05
0.292299
-0.0277694
-4.02163e-06
0.000218636
-4.18619e-08
-0.0101907
-1.12189e-06
-3.93258e-05
-0.0330607
1.08029e-05
8.99256e-06
6.46803e-09
-0.0333305
-9.74312e-07
-0.44781
-0.035347
-0.00318419
-1.33041e-08
0.858911
0.0570259
0.150805
0.00366563
7.46373e-06
0.0055837
0.00363679
5.89971e-05
0.0148865
-4.03583e-05
-0.0477494
0.00232293
1.06438e-08
1.22591e-05
0.00356949
0.08055
-0.0247434
-8.86998e-07
-0.0119083
-1.19708e-06
-0.00485224
0.00219083
1.31389e-05
-8.81581e-05
0.000161981
3.08023e-06
-0.00903969
0.00141803
-0.133899
-5.44805e-07
2.51042e-06
2.93449e-05
0.0125534
-0.00479244
-8.91204e-06
-8.55134e-07
0.00613722
-0.00338093
-0.00299154
-8.27191e-05
0.0178652
-0.045267
1.02692e-05
5.54482e-05
-0.159843
-1.57488e-06
5.26769e-08
-0.00323443
-8.93539e-05
-9.59873e-07
-5.65385e-09
-1.01707e-06
-1.10119e-07
2.39089e-05
-2.22698e-08
0.0676736
1.70235e-06
-1.3829e-07
0.0742132
0.0167806
4.50784e-06
-0.0017156
-0.0537344
-1.17727e-06
3.65245e-06
-2.14015e-05
0.160933
0.0275077
-0.000291821
-2.72027e-08
-0.0436828
-8.13876e-08
-0.000381645
-0.0290794
-0.158882
2.51823e-06
-0.329361
-0.489285
0.0107468
-0.00439168
-0.0116617
-0.0241054
-0.0115944
-0.0183015
5.90109e-07
0.030274
0.179573
-0.118365
-0.0194167
-8.24391e-07
-0.00033885
-2.5228e-05
-0.0313349
0.0110534
-6.36612e-08
-3.15705e-07
5.76298e-06
0.00576759
0.0575378
-1.45659e-06
-0.0278957
-2.86918e-05
-2.13422e-06
3.28387e-06
0.310316
0.00593393
0.00344683
-1.51552e-05
8.70363e-06
0.0566528
5.15661e-06
-0.00468066
1.14656e-05
-2.26778e-05
0.000297506
-1.05997e-06
-5.53332e-07
0.00791813
-0.00109055
0.00339734
-0.284352
0.0662973
-1.57454e-05
-0.0311621
-0.00875944
-1.30211e-07
-0.142496
-0.000728393
-0.0220002
5.63336e-06
0.000777748
-0.0349817
0.272408
0.00622001
-0.0256038
7.89697e-07
0.104495
0.0615792
4.23574e-06
-0.0220772
-1.02963e-05
-0.0422686
5.44343e-05
8.87607e-05
-0.00437166
-0.00342136
5.99342e-07
1.01909e-05
0.000282445
6.65441e-05
3.86805e-07
3.75304e-06
-0.0306316
3.91331e-06
0.000181853
0.0300699
6.85768e-06
-2.37652
0.000243181
0.0270668
8.82141e-06
0.000699115
0.0165742
0.00308466
-0.000114856
-0.0272389
0.0821354
-0.0398876
3.19076e-06
0.00695277
-1.88459e-05
0.000730725
-1.32843e-06
0.111477
-0.0260482
-0.0226794
8.70359e-06
-0.00289018
-0.0255072
0.00980394
5.04036e-07
0.054206
-0.00953481
0.105756
-5.70446e-06
-0.0339675
1.45491e-06
-1.66854e-08
-0.0736655
-0.0208267
-1.17488e-06
6.42063e-06
0.000159931
1.5481e-07
-0.00322551
-0.000374575
-0.000591901
1.28389e-05
1.03635e-06
1.63072e-06
0.841903
5.102e-07
1.42519e-06
0.0114677
-0.0161014
-1.21549e-05
-0.016308
-1.35809e-07
-1.2878e-08
7.33456e-06
0.00317659
0.00019996
4.7934e-07
3.88888e-06
0.00689373
4.61634e-06
-0.0616686
-2.19411e-07
2.11787e-05
0.150286
0.000577595
3.20189e-07
1.62165e-07
1.34655e-05
1.06326e-06
0.237451
0.0470487
6.51846e-06
0.0731955
7.70248e-06
-8.6065e-07
-0.0373714
-0.0339263
-8.96801e-05
4.40945e-06
-0.00427359
-0.000124967
28.4764
4.6635e-06
-7.1788e-06
0.00671158
9.37463e-05
-0.0258699
-0.0136994
0.023577
-1.31303e-05
-0.0079901
3.36158e-06
0.0817333
0.000250065
-0.0033283
-1.37492e-05
-1.44941e-05
0.00146893
-0.00027455
-1.2496e-08
-0.00996656
-0.0292783
-0.0728561
-0.00114965
0.0409912
-0.0461211
-0.000964005
-1.46983e-05
1.85774e-07
-0.0933523
-7.21258e-07
9.95392e-07
-2.71219e-05
-0.0435608
5.97522e-06
1.45208e-06
-0.00289656
-0.000183048
-4.686e-07
0.182331
2.01335e-06
-0.0556423
0.135507
1.15998e-06
3.98685e-06
0.0112159
-0.134946
-1.0117e-06
-0.126298
0.038446
8.63612e-07
0.0445827
-0.0038611
0.00156771
-1.26194e-05
0.00355527
0.0109058
7.84869e-07
-0.0188532
-4.90059e-06
1.99916e-06
-0.0437819
-0.0474087
-5.94225e-05
0.000198773
-9.72893e-07
0.000551982
-0.0541092
-0.00454815
8.71846e-07
-0.0471338
7.37767e-07
-5.17786e-06
-0.000118795
1.18609e-05
5.50681e-07
-1.44774e-05
0.0521969
-0.00395546
0.0324036
5.40208e-06
-1.13436e-06
0.0238995
3.23506e-07
0.00208014
2.60716e-05
7.50213e-05
1.85602e-06
0.152176
-0.018237
9.85131e-06
0.0392741
3.1148e-06
-0.000611321
0.127519
0.0032548
-3.13745e-06
3.4427e-06
0.00630984
0.0337599
0.0104378
0.000558706
3.99654
9.15991e-06
5.14936e-05
-0.134489
0.185675
0.00215088
-0.0496703
-0.00528772
0.0922597
-1.14018e-06
-0.0103345
0.0466006
-4.47617e-07
-0.250483
-0.00615662
8.13454e-06
7.51643e-05
1.69231e-06
0.0437182
0.000346256
-0.0285506
6.95813e-07
-3.13421e-08
-5.12687e-06
-0.000180552
-1.33076e-07
-0.0382939
-2.56141e-08
-0.00522613
-1.19819e-05
0.000876255
4.64044e-06
-4.56164e-07
-0.000107588
-0.0420934
-0.000150397
-0.0245083
-5.04597e-06
1.295e-07
-2.16388e-07
-0.000336721
3.84216e-06
-0.00247199
6.7332e-06
-0.000419871
-0.0084312
3.45458e-07
-0.00679696
-3.11771e-08
0.0014478
0.0407236
0.131509
0.000629664
0.0820463
-0.00146083
-0.00585746
-0.0249704
6.91787e-07
0.173781
-1.25761e-05
-3.32605e-06
0.0120377
-0.606152
-1.48389e-07
-0.00206243
9.09338e-07
0.0753693
-0.0509308
-6.36224e-06
0.00054048
-0.00361691
-3.11715e-08
-4.08067e-08
0.000824906
0.00397004
-0.0700211
3.39973e-06
-0.00434443
4.11834e-06
-3.71842e-07
-0.00984828
-0.00520007
-0.00382254
4.92936e-07
0.00141484
-0.000310088
0.000554788
2.11814e-06
-1.34831e-05
0.00294469
-7.08583e-06
0.00194715
-4.23296e-05
-6.7524e-05
-0.000387394
-1.14917
-0.0157902
-0.0598376
-0.12625
0.00297069
0.0290536
0.0006758
-0.0303025
0.00111077
-8.69197e-07
4.61095e-05
-0.012024
-7.5287e-07
7.7119e-07
5.86064e-07
0.00152885
-0.0365188
2.30072e-05
-0.0290326
1.70511e-07
-0.0353779
-0.00295127
-0.0586602
-0.00147039
8.45552e-06
6.11826e-06
-0.0426386
-0.00482839
-4.39767e-05
-0.0289305
9.31297e-07
0.931791
0.00135808
-0.00619825
-1.62285e-05
0.0246015
1.83537e-06
-1.82926e-08
-4.85871e-07
-4.00219e-07
0.128698
-1.17213e-07
-0.0203128
0.0285386
-0.000472644
-0.0115819
-0.030083
-0.00603554
-0.0148247
0.00029122
1.01463e-07
2.03145e-06
-4.80514e-07
-2.6439e-07
-1.83244e-08
-0.000520948
-0.00409135
-0.000767851
0.0205431
-1.22239e-05
0.0595846
-1.98415e-08
0.0156788
-1.87943e-05
-3.76331e-08
7.26802e-08
0.120935
9.06051e-06
-0.0890066
-0.0234792
8.46744e-05
-0.000145054
8.00109e-07
-0.0640091
-1.83242e-05
5.98672e-06
-0.0228744
1.47618e-07
5.91794e-07
1.78724e-07
0.000251684
-0.0265837
2.43453e-06
-1.8096e-05
-0.00759723
-0.00660846
0.000178702
-0.000125136
0.117977
-4.59454e-07
0.10612
-1.51637e-08
4.63845e-06
-0.462111
0.00035893
-0.003088
0.00166371
-0.000149
4.16979e-08
-1.34683e-08
-0.000816366
-1.42066e-07
9.60413e-09
2.46334e-05
0.014814
-2.77941e-07
0.0151208
-0.712634
-0.12713
0.00205968
0.0495128
0.00231134
1.37743e-07
-0.00226568
3.15204e-07
1.04536e-05
-0.0614823
0.0602496
0.175552
0.131497
-6.27143e-06
-5.86965e-06
-0.00452283
-1.22083e-05
-1.63474e-06
0.151139
-0.0043453
-0.0126296
0.0014769
0.000147752
-2.21458e-07
-1.0004e-06
0.695264
-0.000185801
5.3785e-06
-2.09716e-08
-0.00233851
0.000847863
-0.0325471
4.46265e-06
9.83386e-08
-0.0472782
2.12994e-06
-5.73365e-06
1.74873e-07
-0.0497079
8.59258e-08
0.0414839
-7.05818e-07
-0.000305239
4.60468e-06
8.45239e-05
-1.76947e-05
3.80634e-06
6.9423e-06
-1.53669e-07
0.0027383
2.49306e-06
-0.0250805
2.10314e-06
0.0891904
-0.0327108
-6.47477e-06
-1.76235e-07
0.0246136
0.0515372
9.40283e-06
0.000450521
1.83031e-06
-0.0238919
-6.46585e-07
-0.0112184
-8.08779e-07
-1.6913e-07
-0.0564183
1.94637e-06
1.09123e-07
3.03155e-05
-0.0360001
0.0521608
-0.0245352
-7.40904e-07
0.01897
-7.02306e-07
-2.55726e-07
3.68209e-06
-3.22347e-07
1.69921e-08
-0.0536635
-0.0634719
1.38599e-06
-2.29735e-08
-6.71486e-05
-3.90034e-07
0.0025251
0.00246962
0.0401752
-0.0196977
6.8458e-06
0.00189234
-6.19367e-07
5.56789e-07
0.00492253
7.88683e-07
-9.0036e-09
-0.90691
-0.0551831
-0.000170708
0.179534
3.01107e-05
5.33867e-08
-9.86118e-05
0.000627859
-0.0821164
2.29864e-05
0.266662
-0.000100339
3.06659e-08
-0.160377
-0.135071
-0.00887467
-0.4633
-0.0587174
-1.38851e-05
0.00460135
1.07512e-06
0.0206219
1.77067e-06
-7.25206e-08
-0.0365217
-1.23258e-05
-1.42692e-07
-3.42799e-06
-1.21472e-05
-0.0426465
-0.00888894
5.56843e-07
-0.000104512
0.143138
-6.01587e-06
0.230237
-1.13617e-06
-0.000201223
-0.0473113
-4.32272e-09
0.0101874
9.75715e-07
-1.4704e-05
0.0671097
-1.22817e-05
0.011027
0.000640521
-0.0438114
1.20718e-06
-0.0228614
1.41698e-06
0.0370916
-0.105514
-0.0207526
0.000111759
3.47775e-06
-6.6666e-06
-5.74813e-08
5.43285e-05
2.75102e-08
-0.0329982
-3.64508e-08
-1.9795e-05
0.000250782
-1.41086e-05
-6.2522e-07
-3.42037e-06
1.81166e-06
4.10841e-06
-4.96283e-06
-0.0909207
-0.00143172
9.99383e-06
0.000449007
-0.0263519
1.37056e-06
0.0119647
-6.39506e-07
0.000136572
2.65447e-06
-3.05066e-06
6.31156e-05
-1.06553e-06
4.91284e-07
-0.00901182
4.99523e-07
-0.00964459
3.0964e-06
-0.256672
0.171333
0.00303734
-0.0129566
8.57185e-07
-0.0114733
-0.000496449
2.77458e-08
7.46988e-07
2.59491e-06
0.0204708
-1.51515e-06
-0.00245054
-0.0838099
0.0364623
-0.000219735
-1.00417e-06
0.153623
-0.259635
-0.0402646
7.96928e-06
7.66278e-08
9.9719e-07
-0.000279781
2.58939e-06
-0.00873481
0.0031045
2.44729e-07
-0.00804396
-0.0135267
8.56307e-08
-0.0851885
0.0479878
-0.00463471
1.50799e-06
0.153682
-0.000486634
-5.399e-07
-0.0572134
-2.892e-05
-3.0969e-07
2.28248e-06
5.05857e-05
7.91072e-05
0.052834
0.00701225
0.000167527
0.0792095
7.65808e-05
7.68042e-07
0.0113658
3.68465e-07
-0.482201
7.13763e-07
-8.37113e-08
-1.78847e-05
-1.60619e-08
-0.00399303
-0.0182317
-0.00763617
-0.0215793
0.215128
-1.27714e-05
4.42327e-06
3.08631e-06
-0.00369557
9.28976e-07
-6.69009e-07
-1.6317e-05
-0.163395
0.0304452
2.55603e-07
3.9633e-05
-1.8661e-05
-0.000941776
0.185498
7.92363e-07
5.08994e-07
2.81013e-06
0.283453
2.17673e-05
-0.0515443
-1.32829e-05
9.45336e-08
-2.06971e-07
2.27097e-06
-1.30948e-05
-0.004667
0.094813
0.11775
0.000507768
-9.6043e-07
0.258494
1.10009e-06
-0.062941
0.0196167
0.000398458
-0.0450266
0.118544
0.0279141
0.000440019
2.41576e-05
0.0237205
7.00619e-06
5.17268e-05
-0.00513984
0.000970197
-1.83365e-06
-0.0303291
4.51882e-07
-0.0662596
0.20505
-6.56993e-07
-1.25373e-05
6.92845e-05
0.0123596
1.43711e-05
5.51857e-08
2.4877e-05
-8.90736e-08
1.28605e-05
0.0307794
3.25893e-07
0.0720139
-0.029028
1.02745e-06
2.46125e-05
9.97939e-05
-3.50197e-07
0.0518926
0.0285891
-0.0175197
-0.0082039
-9.86588e-07
-9.30437e-06
4.5633e-06
4.93905e-06
-0.010044
2.1236e-05
-1.61369e-08
0.000443165
-7.25087e-06
0.0330614
8.29354e-06
0.321771
2.5364e-07
-8.19206e-06
0.00347017
-0.000306085
-0.000373261
2.7741e-06
0.0714406
0.0222517
-0.0880611
-0.0346349
-0.058941
0.0868254
0.0520783
2.08051e-06
-1.23037e-06
3.28111e-07
0.00858782
0.000228258
-0.000418223
0.00913807
1.22503e-06
-4.94655e-07
-1.04056e-06
-0.00227861
-2.10659e-07
1.48592e-05
-1.58375e-05
-0.0363397
-3.0756e-06
3.20509e-07
-4.36582e-07
2.34733e-06
-1.85945e-08
0.000181076
-0.00415158
0.000135123
0.0400088
-1.57139e-06
2.27075e-06
-0.0483716
-0.048388
-0.0400519
-0.121622
-4.68358e-05
-0.0350207
6.44186e-08
-0.00198665
-8.22802e-06
-6.46879e-07
3.2051e-06
0.0259019
3.30975e-06
-6.07763e-05
-0.492738
9.73344e-07
-2.83058e-06
-8.7478e-06
-0.00596612
-3.0521e-08
-0.0188236
2.98818e-07
-0.00414742
9.89389e-08
1.41874e-06
9.48082e-06
-0.0036975
4.10238e-06
0.100367
0.00698037
-0.000858859
-0.0677923
1.11445e-06
-0.0659678
-0.0603642
-1.35492e-06
0.477446
5.04961e-06
0.000536073
4.43499e-06
4.93606e-07
-2.46275e-07
-3.85593e-07
-8.07462e-06
0.000413222
-0.000201749
-6.5252e-07
-5.37134e-08
-0.00960984
2.00655e-07
0.0656661
2.25524e-08
-2.45113e-06
7.17176e-05
0.0416323
0.135038
3.37493e-07
-0.00458141
1.39614e-07
2.1386e-05
-0.00267379
-0.219033
0.000126552
-3.11983e-08
0.00172645
0.00270466
-0.000443735
0.18062
0.000241435
-0.00209929
0.000544039
-4.30938e-05
-3.192e-06
-1.23293e-06
-0.0835981
0.0295459
1.81601e-06
-5.3511e-07
0.175869
2.23906e-07
-3.08838e-05
1.20771e-07
-0.000702115
0.163953
2.45195e-08
0.00299572
8.87766e-06
6.89616e-08
0.000604277
-6.83789e-08
0.00170493
-7.20804e-05
-7.20423e-05
-0.0982978
-2.13848e-07
-4.47503e-08
-0.00625796
7.10054e-08
-2.24599e-09
2.35177e-05
5.08808e-06
-0.000203367
-9.14071e-05
4.75651e-06
4.64422e-05
-1.3425e-06
-7.40215e-07
1.30294e-07
-1.14732e-06
-0.0735958
4.02548e-07
-1.72403e-06
-0.0199487
1.26098e-07
-5.35317e-07
-0.016505
-1.24372e-09
-0.193096
3.19867e-06
0.0134871
0.00506559
0.00145112
-1.6563
5.83645e-05
0.0701747
1.44557e-06
0.000754544
6.40956e-06
-1.08924e-06
4.29835e-07
-1.64519e-06
9.59342e-06
2.59933e-06
-0.000227685
3.92648e-07
-6.91026e-06
0.15999
-0.0521226
-0.135037
3.89939e-06
0.00860847
-0.00269067
0.0313346
3.73293e-07
1.41019e-05
0.00611995
1.07706e-06
-4.29742e-05
-0.383134
0.127022
2.06224e-05
0.000134719
-1.15605e-05
-0.0136118
-4.91003e-08
0.000193234
-0.0142058
4.59736e-06
-7.11147e-07
0.0382266
-0.000100511
-0.0124829
-0.0707712
0.00185262
3.45043e-06
3.53218e-07
1.18584e-06
-0.0360577
0.350384
0.0687126
-0.000185404
-2.97041e-07
-0.0120455
1.16349e-08
0.00318147
-0.000566238
2.64707e-06
-2.72995e-05
-9.35823e-07
-0.0387894
0.208501
-2.0486e-07
-0.000232626
0.000230864
-0.184603
-0.000112398
0.00053808
-0.0142519
7.34977e-05
0.00715572
0.000562816
1.00809e-07
9.45886e-05
0.00827781
0.0174564
-1.10506e-06
0.124822
-0.000152423
0.000578407
-3.26745e-08
0.199914
1.21897e-05
-1.42621e-05
-1.59813e-06
-8.45788e-07
-4.62162e-06
-9.98117e-05
3.78779e-08
-1.05156e-05
-0.00018133
-0.143998
-5.15043e-05
3.20862e-07
2.83034e-06
9.56474e-05
-0.00871945
3.90708e-07
0.000652023
-0.314764
-0.000322345
0.121426
7.37221e-05
-0.0493928
0.0218266
2.16945e-06
0.131598
-2.53303e-08
-9.76668e-06
5.52715e-05
1.34807e-05
-0.001992
0.000256252
0.00011842
-3.06014e-05
-6.26731e-06
-1.74477e-05
-1.42021e-07
-0.00448693
1.011e-05
-3.02766e-05
0.27689
-5.72217e-07
-0.000267967
8.93004e-07
-0.0220834
-0.000259495
4.8045e-06
6.76472e-06
5.45715e-06
0.156376
-0.00207026
5.61051e-05
0.144993
-0.00783111
-0.714056
-0.00104308
0.0326003
8.29366e-07
-0.00191791
-5.3315e-07
0.000119436
-0.092197
0.0468539
-0.0231507
-1.55331
1.67068e-07
0.235801
8.21023e-07
0.000787235
-2.07855e-05
-0.0441154
-0.0568177
-2.99689e-06
-8.36659e-08
-0.0152115
-0.00314166
-1.34143e-06
-0.0195303
-3.68707e-07
-1.43944e-05
1.01475e-05
4.02716e-06
-2.39356e-06
-7.98717e-06
-4.66883e-08
-3.09607e-06
0.028538
2.57444e-05
-6.81154e-05
-1.33148e-06
-0.0280629
0.0535894
-1.95787e-07
-0.0352361
-2.0705e-05
-1.46311e-05
0.0371474
-2.00586e-07
-2.97949e-06
-1.56507e-05
-0.0126352
-1.36553e-06
5.57421e-08
-5.92008e-05
-0.0514708
-2.0035e-07
-2.1587e-05
-5.17446e-05
-0.13519
-0.000106295
-8.02315e-05
-0.00647937
-2.71807e-07
-0.0049902
-6.30606e-07
0.0474346
1.71804e-06
-1.01972e-06
8.49165e-06
-0.000876001
7.59009e-08
1.00379e-06
-0.000946867
0.112508
9.98329e-07
0.0690796
1.61709e-07
-6.66208e-07
-0.000337004
-1.087e-06
4.13885e-07
-0.00873516
-4.96743e-08
-1.3534e-05
0.00119653
0.0298076
-0.0358198
1.04238e-06
-1.78438e-05
-1.49291e-05
-1.40673e-07
2.71956e-06
-2.26741e-07
-0.22969
2.24686e-07
0.00799775
-0.000839494
-8.25942e-07
1.61417e-07
1.2206e-06
-0.000912156
-0.0291652
-0.00436482
-0.000191536
-1.50335e-05
0.0774655
0.000645054
1.19951e-05
0.000108597
0.00126832
-0.0013526
0.114366
7.63172e-05
-0.017923
0.109311
-0.0365697
6.73594e-06
-1.51866e-06
-2.07689e-05
0.000359652
-1.88931e-07
1.12287e-06
0.000197904
-2.54182e-08
-5.44019e-06
-1.08853e-06
5.38396e-07
3.77823e-06
4.3795e-07
0.0234328
-1.08515e-07
-0.126542
-9.11872e-08
-0.00337852
-1.48511e-06
-0.00238355
-0.00108875
3.34104e-06
-0.0639326
1.83984e-05
5.53876e-08
4.86088e-05
-1.17769e-06
-1.07149e-05
-9.18547e-08
0.104983
-1.15978e-05
-8.37713e-05
-1.28939e-05
-0.0650484
-1.53294e-05
-0.0536693
0.477989
-0.000445851
6.66029e-07
3.81734e-06
0.00155407
-0.000616686
-0.0857338
-9.82384e-07
0.0469816
-1.91388e-06
-0.00658994
-0.0579243
7.77508e-06
-0.0528763
-9.35776e-06
4.61289e-07
-1.93772e-05
0.210416
6.61951e-06
-8.69664e-09
-0.000157274
-0.000166943
-3.43886e-06
-1.5177e-06
6.88603e-08
0.00961342
-6.38354e-08
-1.94733e-05
-0.0580261
-2.09072e-05
3.00171e-06
6.63798e-05
-9.3056e-06
-0.017262
-4.81721e-07
4.91533e-07
3.74955e-07
5.06794e-05
1.43081e-06
6.26765e-07
3.76551e-05
-0.0358538
2.53611e-06
1.4054e-08
0.0730626
1.16787e-06
-0.000834021
-4.24402e-06
0.203414
-1.70371e-06
-1.83399e-05
1.17162e-07
-0.0068963
-0.0680585
-0.000294476
-4.19261e-05
0.000525007
1.01532e-06
3.11661e-08
0.111853
9.68621e-10
0.000923076
-2.69351e-07
0.000120734
2.95274e-07
0.0450225
2.44277e-07
0.00019989
-2.04249e-07
0.141117
-0.159828
-1.05123e-06
0.000215694
0.109663
-3.41479e-05
-0.0545493
-0.0916411
-0.00218503
-8.83241e-07
-1.42735e-05
-0.00136809
-0.0736432
8.05531e-07
8.83473e-05
-1.80215e-05
-2.14616e-06
-0.0217407
0.111771
-0.000210793
-0.00108768
0.00447974
-2.46029e-06
0.0364449
-1.36032e-07
-1.02059e-06
-0.00046299
0.18882
-0.00736796
0.00267097
-0.300067
8.57791e-09
0.212508
0.0251567
-0.0767358
1.74482e-08
-0.0597823
0.0267992
-0.00668329
0.0457024
0.0241342
0.000683846
-1.66669e-06
-0.00681468
-1.08965e-05
1.50598e-06
0.0216651
-0.00103701
4.55958e-08
0.0485614
2.78531e-07
0.000637915
1.98117e-05
-1.58912e-05
-2.40552
-6.39505e-05
0.024778
0.000202041
-0.000182997
0.158312
-0.0650109
0.000279553
1.98998e-06
-8.05059e-06
-0.000686733
-0.00406388
2.16036e-07
-0.000182113
-0.00063199
-0.0013878
3.34537e-06
-0.00802256
-1.71685e-05
0.000466963
0.0190884
0.0340063
4.19199e-08
0.000938951
-0.0309348
4.96412e-06
-1.14438e-05
-0.0698303
-0.000922507
1.4262e-06
7.7995e-06
-2.06065e-07
-0.00252922
9.78352e-06
0.11326
-0.00237814
2.37672e-06
-1.81096e-08
0.000122461
-1.63955e-05
-0.177148
-0.0335468
-8.00402e-08
-1.32367e-06
2.63474e-06
1.27228e-07
6.79411e-06
-1.2074e-05
1.53403e-06
-6.83697e-06
2.38596e-06
-1.9398e-05
3.04784e-06
0.000253824
-0.121869
-3.12582e-08
0.0132498
0.0264261
-7.18553e-07
-0.0106973
-0.00148017
-0.000266141
-2.89203e-06
-0.000683143
1.07222e-05
-0.00415743
1.39762e-05
-3.53337e-06
-7.93354e-09
-0.0886618
-5.62014e-06
-0.127335
-1.47741e-06
-9.36871e-07
-1.19363e-06
0.000154817
2.49049e-06
-7.12766e-05
0.00041017
-0.0201394
1.00869e-06
0.0175408
0.734326
0.0155406
9.52234e-09
-0.00245972
0.0397043
0.675226
0.752655
1.49251e-06
-6.79142e-06
0.00308897
-0.215784
-0.0890953
6.86656e-06
-0.0347406
-2.53823e-08
-7.18916e-07
2.708e-06
2.0392e-07
9.22419e-07
-0.00250136
-4.49941e-08
-0.00618079
-1.74095e-06
-0.0556538
-0.0191662
0.0554978
0.00586404
0.0236264
2.887e-06
3.50679e-07
-0.0150451
-9.46617e-07
-1.10294e-06
-6.68354e-07
0.00155605
-0.0647471
-0.0764626
-1.58465e-05
1.23757e-06
-8.34966e-06
-3.71064e-06
0.129302
-1.21592e-07
-0.0809912
-0.0601489
2.90685e-07
1.59985e-07
0.0154285
0.000783466
1.96477e-06
-1.56478e-06
-0.0127044
-0.00187973
1.9028e-07
-0.0039416
-3.4606e-08
0.00906465
0.388487
-2.62529e-06
-0.187067
0.0237694
0.0624992
-1.48737e-06
8.16528e-07
-3.20473e-08
-2.44028e-08
-0.0572523
1.1804e-06
-0.0091592
0.0150975
-0.10808
2.14322e-06
5.03511e-05
-0.044354
-0.000192974
-0.0246187
0.0235886
-2.279e-07
1.0437e-05
1.04575e-05
0.00284513
0.118936
5.3462e-07
-0.0240878
4.24643e-05
0.000131764
-2.11873e-06
-2.18589e-07
0.0065728
-2.39042e-05
0.000360581
1.92627e-07
-5.39811e-05
8.93315e-07
-0.00302727
5.9725e-06
-0.026245
0.2039
0.00422486
0.00161639
3.19327e-06
-1.72129e-05
-0.000589811
-0.0235774
0.0403431
0.0283548
6.05273e-08
-0.0717244
-0.00516179
-0.0274051
-6.51615e-06
-8.38695e-05
-7.25579e-05
-8.25614e-07
0.0478289
-7.10721e-07
9.38493e-06
-0.0177502
-0.0440422
-0.285449
-0.060006
-2.01102e-05
-6.02502e-05
-4.05482e-07
-0.0588433
-1.83269e-05
0.0372687
-2.76043e-07
-0.0447342
1.539e-07
-9.67757e-07
4.89619e-06
2.18264e-05
-9.84256e-06
1.25498e-06
0.038139
0.000207058
1.30538e-06
6.52164e-06
0.00257791
-0.0299472
3.6079e-07
0.0485887
-9.70587e-06
7.73101e-05
5.07037e-05
-5.87483e-07
-0.000227395
-7.6592e-07
-0.0226067
-0.000652737
6.79584e-06
-1.46642e-06
0.00941131
-7.50263e-05
-2.52689e-07
0.049171
0.812413
0.00562832
-2.10682e-07
-0.255153
2.91242e-07
0.00524675
1.98367e-05
-0.00380547
-0.179783
0.0301029
-0.000675785
-0.0628235
-1.00131e-05
-0.000462852
-2.84479e-07
-0.00865419
0.00226961
-0.00249671
-0.00997103
-2.30273e-08
-0.0371459
0.00044537
0.00957008
-0.0175799
0.00968826
0.0348037
-0.386637
-0.0492078
-0.000135042
-7.69521e-05
-2.13316e-07
-7.21473e-07
5.08245e-07
-0.00252461
-1.03021e-05
0.00201704
0.0587624
2.1666e-06
2.70721e-07
0.000174064
-0.00106167
1.28199e-05
-4.17154e-07
-0.0467693
6.41798e-06
0.000250294
-3.96058e-07
0.0258331
-2.01348e-05
-0.040505
-0.00178676
-1.06633e-05
0.00017782
-3.67745e-07
0.0335362
-0.0431983
-0.000554362
1.75918e-06
-1.75673e-07
-0.101294
0.00586487
0.0716037
-3.60636e-07
-0.000526982
-0.231264
4.07694e-07
-5.40459e-07
-4.77843e-06
-0.0648408
0.00112447
6.74125e-06
-1.1253e-06
1.34457e-05
-0.0647476
-8.66183e-05
0.00603532
6.12563e-06
3.8127e-06
4.93347e-07
-0.00279983
1.67857e-05
1.98809e-07
0.0940202
0.0338321
-0.0288637
0.105414
0.0210965
0.0266031
-0.0204599
4.00754e-07
6.77144e-07
-0.0244965
-0.0188663
0.0333622
2.28363e-06
-2.84827e-05
-2.94303e-07
2.73026e-06
-0.114622
-0.0500835
-0.000159876
-1.02009e-06
0.0283765
-8.01822e-05
-0.000161141
0.0566638
-0.578469
-0.0307876
-1.93141e-07
-0.0286943
-0.398551
0.00137403
5.41538e-05
-4.80174e-05
1.87966e-06
6.81612e-07
-6.20575e-05
-0.000143625
-1.15695e-05
0.000128256
1.27634e-05
-1.84336e-05
0.00650118
0.0176136
-4.85149e-05
0.000166928
0.0159774
0.00416268
1.03967e-08
-0.0315374
0.0353979
-0.0267626
-6.97798e-05
-5.6842e-07
9.72163e-06
4.40433e-06
-2.20843e-05
-6.24086e-07
-0.000298835
4.02119e-05
0.000160885
-0.00102322
-1.70347e-08
-4.90251e-06
0.037458
0.138759
-0.0597723
-0.0224753
0.0019809
-1.09339e-08
-4.88907e-07
-4.84123e-07
-5.10055e-07
0.11623
-8.82938e-07
-5.79636e-08
-7.70432e-07
0.0887891
1.09656
3.54911e-06
-2.73897e-05
3.03522e-06
6.08708e-05
8.41899e-07
0.000344675
9.99344e-06
-1.66543e-05
0.00274992
1.12959e-05
-0.00761146
1.6529e-07
-0.0555159
4.20829e-06
-2.29512e-07
-2.83202e-07
-0.00108577
0.00144364
2.04232e-07
-0.000212961
2.35198e-06
-0.000106001
0.0042997
-0.220778
-0.00321797
-5.11305e-08
0.132312
-0.000100487
2.37504e-05
-1.47966e-06
-0.000355735
-1.63555e-05
-0.0244961
-0.0201031
-7.69455e-06
-6.24932e-07
0.13045
-2.45767e-05
-0.00818163
-0.011649
0.0196718
-1.57486e-05
-0.0009065
-0.056845
1.11358
0.0189458
-0.000253785
-2.843e-06
-2.72211e-06
-2.82459e-09
-0.0748623
-1.73696e-05
-6.10786e-07
0.0124675
-0.0324273
-2.3127e-06
2.32642e-06
-0.00910036
-6.5108e-05
-0.0378669
-0.000246511
-1.35788e-06
-0.000100641
-0.000750938
0.000416911
-0.152568
1.44234e-05
0.268891
6.74075e-06
2.13886e-09
1.2245e-06
0.00488982
2.41791e-06
-0.000942393
6.93203e-08
-3.93525e-06
-0.00124745
1.38935e-05
-1.52834e-06
-9.27304e-07
-1.98215e-06
0.370688
0.000165784
-8.47504e-05
-1.49685e-05
-0.000398334
3.79945e-06
-0.00378624
-8.50856e-08
-6.83443e-05
0.00822419
-5.84474e-07
0.00180393
-0.000440591
-7.32049e-08
-0.000141361
0.155932
-0.00856917
7.87753e-07
-0.552011
0.00448701
3.19224e-06
1.95602e-06
0.021679
0.0472079
-0.000299723
0.0160801
-0.00497738
1.10844e-06
-0.000129292
4.44111e-07
1.01925e-05
-0.000427703
-0.0642262
0.0150483
0.0253232
-0.0265394
0.0937065
-0.0043043
2.35263e-06
0.0275156
-1.0952e-06
-0.239544
0.00319531
-1.29406e-07
4.92887e-09
-0.00659579
1.90816e-06
-4.76115e-07
-0.00919593
0.0553306
-0.000724463
1.34681e-05
0.0161828
5.47896e-09
0.140623
0.0248415
3.58051e-08
0.299491
0.416832
-0.017873
0.0196216
0.0366599
-0.00580272
6.83395e-07
-7.96136e-08
-0.000412727
-0.000171017
-5.83096e-07
0.000775492
-1.46154e-06
0.0472324
-0.0124321
0.00044696
-0.0207595
0.0562045
-0.0219646
-0.00593245
-0.00728779
0.0343409
-0.00458831
8.98499e-06
-4.34023e-08
-0.210501
-9.55298e-06
-1.01205e-06
0.219352
2.67149e-06
-0.193479
2.01883e-06
-0.0476409
1.01164e-05
1.42175e-06
21.9906
2.15379e-05
-0.000388897
-0.0168174
-0.0260031
0.890408
2.21116e-05
0.000169279
-7.31944e-06
0.000130933
0.00148902
0.00013241
7.25938e-08
-0.0211647
-0.000265269
1.0497e-05
0.00302395
-3.4295e-05
1.93042e-05
-0.00279962
-0.000702604
0.000205208
1.63026e-06
0.000110423
-3.59e-07
-0.00170799
-0.00562175
0.0226162
3.63425e-07
-5.37691e-05
0.0103787
3.44121e-06
-0.000224147
3.57662e-05
-7.29696e-05
-0.0386261
-0.000117036
-1.51334e-06
0.241559
3.07274e-07
0.121318
2.2609e-07
3.8095e-06
-0.001019
0.0802091
-1.00286e-05
-0.0165008
-0.0116001
4.48503e-05
2.45185e-08
0.0023716
-0.00011876
0.0352807
-8.29639e-07
-3.77982
0.000540639
4.26119e-05
2.45141e-06
-0.00172527
-2.38968e-05
0.000883276
-0.000115098
-0.000254348
4.13344e-06
1.08072e-06
1.01703
3.03333e-06
6.60555e-06
2.98877e-07
-0.000506425
4.04764e-06
-0.000107141
0.0348095
1.34873e-06
-0.00775244
7.65006e-08
3.14755e-06
2.46216e-07
1.28635e-07
1.0292e-05
6.60305e-07
5.27032e-05
-0.0469362
-2.65275e-05
-5.02909e-05
8.84206e-06
-4.28172e-06
0.0547022
3.63849e-06
-0.0322419
0.066855
0.0276826
0.00106372
9.99962e-06
1.63476e-05
3.53304e-07
-1.07152e-05
-0.00435905
-3.1859e-05
-0.00362216
8.20059e-05
0.0402731
0.00218986
1.0437e-08
2.4983e-07
-0.00930192
2.14161e-06
1.78776e-05
0.00381812
-0.00488714
3.0087e-06
-0.0549696
1.72851e-07
-2.08842e-06
-2.70393e-07
-4.06048e-07
0.00265643
0.000761989
-5.4885e-06
5.4462e-05
-0.00356531
9.69189e-07
0.000317376
-0.00571646
0.0109911
-0.003823
0.00308696
-4.63526e-06
-4.08605e-06
0.000411887
0.069383
-0.0392655
0.149005
4.3245e-05
-0.0328277
0.00168487
3.34884e-06
-8.63127e-07
0.000602345
3.64976e-07
4.52061e-05
0.0316393
2.07809e-06
-8.06513e-07
-0.0104928
-0.108168
0.000253597
0.399419
2.52958e-06
-0.0423346
-2.37797e-05
-0.0607777
4.7443e-05
2.6909e-06
0.148169
-0.00841315
1.77875e-06
0.00319166
-4.35488e-08
0.00223965
5.86695e-06
-0.00132509
0.222581
0.000861936
0.0496708
1.32819e-06
-0.00164515
4.44791e-06
9.07181e-06
-8.77582e-06
-8.39029e-05
9.04375e-08
3.63793e-05
0.123028
-0.466736
-0.000164515
1.52673e-05
0.00207391
-2.55822e-06
-1.04802e-08
3.24846e-06
0.888637
9.58553e-06
-0.0473929
0.0793199
-0.00413908
1.26071e-07
0.0011949
-0.000187915
-0.00257245
-2.61987e-06
-0.00117712
3.51431e-06
1.80194e-07
3.02705e-06
0.645147
-1.26767e-06
3.22059e-06
0.144961
1.41791e-06
0.000918423
-0.00040355
7.03542e-07
0.00363334
3.83769e-09
-0.0449253
-2.62966e-06
-0.155656
-6.06302e-06
0.00641533
-0.427094
-0.000189422
2.16846e-06
1.46333e-05
-0.0236241
4.34282e-05
-0.00499808
6.12735e-06
2.5888e-06
0.00389903
-0.000101999
1.15441e-06
0.239435
3.51355e-06
1.25809e-05
0.00344068
3.02189e-06
-6.43544e-07
9.40263e-09
1.1299e-05
4.77051e-06
-2.13152e-05
0.0426918
0.172615
0.00136617
0.0379198
0.000622084
2.50338e-05
-0.0286704
0.010795
3.52031e-06
0.00204825
-0.0980779
0.0254115
0.0368048
-4.08018e-06
0.00363733
0.152506
-0.403114
1.48905
-0.0616526
-0.000343413
1.87945e-08
-6.53191e-06
8.95127e-06
1.455e-06
-0.28251
-4.25324e-08
0.00802299
0.00688809
0.00440329
1.41443e-07
-0.000204137
-0.00030856
-5.38792e-06