/*--------------------------------*- C++ -*----------------------------------*\
| =========                 |                                                 |
| \\      /  F ield         | OpenFOAM: The Open Source CFD Toolbox           |
|  \\    /   O peration     | Version:  v2012                                 |
|   \\  /    A nd           | Website:  www.openfoam.com                      |
|    \\/     M anipulation  |                                                 |
\*---------------------------------------------------------------------------*/
FoamFile
{
    version     2.0;
    format      ascii;
    class       volVectorField;
    location    "200";
    object      U_0;
}
// * * * * * * * * * * * * * * * * * * * * * * * * * * * * * * * * * * * * * //

dimensions      [0 1 -1 0 0 0 0];


internalField   nonuniform List<vector> 
13851
(
(1.14966 0.0566076 -9.61481e-21)
(1.07517 -0.023914 1.93762e-20)
(1.07351 -0.0228574 0)
(-0.190912 -0.0135429 -1.79552e-19)
(1.00211 -0.00046468 -1.39619e-22)
(1.08549 -0.0387668 -2.23615e-20)
(1.06102 0.0144862 0)
(1.01341 -0.000768664 0)
(0.265073 0.047382 2.38885e-20)
(0.991348 -0.00871288 1.12662e-20)
(1.16613 -0.103605 5.79229e-20)
(1.00144 -0.0086726 -3.49328e-21)
(0.981177 -0.0213823 0)
(0.0555633 0.0161269 0)
(1.1078 0.011514 -3.45337e-20)
(1.09279 0.0601345 1.01594e-20)
(-0.30295 -0.00109075 -6.19637e-20)
(1.03676 -0.0196499 0)
(1.2221 0.0341282 -8.48964e-20)
(1.15098 0.0543441 0)
(1.12064 0.005138 4.98757e-20)
(1.04132 -0.0934358 3.80237e-21)
(0.52209 -0.258945 0)
(1.00008 -0.000221203 3.50987e-21)
(1.13618 -0.0223513 0)
(1.09364 0.0494812 0)
(1.10114 0.0876196 0)
(1.11261 0.0773038 -4.89482e-20)
(0.423443 0.0427836 0)
(1.02129 -0.0123026 0)
(-0.0901255 -0.011499 -1.55697e-19)
(1.06125 0.0137801 0)
(1.14023 0.0593712 -1.65821e-20)
(0.320391 0.0640022 -1.12739e-20)
(1.13452 -0.0871451 -4.39361e-20)
(0.45681 0.0423204 0)
(1.00005 -0.000198535 -3.47582e-21)
(1.16678 -0.145125 1.25942e-19)
(-0.00263601 0.0150353 5.75955e-20)
(1.00759 -0.0395729 0)
(0.157204 0.0450062 6.13209e-20)
(0.458317 0.0466979 1.20427e-20)
(-0.232806 -0.00318741 0)
(1.10098 -0.48071 0)
(0.469251 0.0540768 6.00753e-21)
(1.01544 -0.0232569 -5.21973e-22)
(1.01942 0.000105072 9.44931e-21)
(1.09901 0.0633975 1.54989e-20)
(1.04817 -0.0583024 -2.89942e-21)
(0.980811 -0.0204224 7.13885e-21)
(-0.241596 0.00402453 1.9791e-19)
(0.97387 -0.0148813 0)
(1.09333 0.0602706 0)
(1.07971 0.0256685 -3.63929e-20)
(0.127223 0.0136724 -6.75332e-20)
(1.00654 -0.0398873 0)
(1.14239 0.0602833 0)
(0.125672 0.0393996 -7.65179e-20)
(1.09013 0.0749349 -3.65784e-20)
(-0.0665211 0.0134286 2.30319e-20)
(1.00133 -0.00820627 0)
(1.09997 0.0854507 0)
(0.995576 -0.00358188 0)
(1.04863 -0.0606064 4.18303e-21)
(0.877721 -0.451251 -4.6924e-21)
(0.859009 -0.471466 0)
(-0.0876278 0.00982352 -1.52557e-20)
(0.694113 -0.127122 0)
(1.02175 -0.0405456 3.24028e-21)
(-0.158644 -0.0100652 0)
(-0.158068 -0.00284875 1.76054e-19)
(1.13141 0.00891245 0)
(0.994403 -0.0279687 4.24808e-21)
(-0.0698606 0.0115849 0)
(1.08722 0.0228764 0)
(1.02263 -0.0757712 1.36153e-21)
(-0.27945 -0.00323118 -8.95028e-20)
(1.02194 -0.00619636 4.93763e-21)
(1.20131 -0.0293756 0)
(1.00539 -0.0186551 0)
(1.02303 -0.0411617 -2.00745e-21)
(1.2669 -0.0917006 3.34816e-21)
(1.13081 -0.0888033 3.59085e-20)
(0.0434477 0.0163453 6.31952e-20)
(-0.0520392 0.0140835 0)
(-0.113588 -0.00803212 -7.69035e-20)
(1.04466 -0.0946687 0)
(0.247616 0.00993897 1.91793e-20)
(0.992099 -0.0129279 1.30923e-20)
(-0.0868345 -0.0104545 0)
(0.972598 -0.0141115 0)
(1.0626 0.0135776 2.95816e-20)
(-0.222389 -0.00260641 -9.40323e-20)
(-0.144949 -0.00748084 8.57959e-20)
(-0.0520496 0.0152169 -5.37048e-20)
(1.08567 -0.441042 3.72365e-20)
(1.01047 -0.0250997 -1.58692e-21)
(1.09546 0.0623399 1.94626e-20)
(-0.191037 0.00633517 0)
(1.21968 -0.198782 -4.69887e-21)
(1.09562 0.0633628 -2.90409e-20)
(0.811236 -0.120341 3.66571e-20)
(0.811705 -0.153357 0)
(0.990329 -0.029873 2.58693e-21)
(1.01908 -0.0228223 0)
(1.13691 -0.00731117 1.87726e-20)
(1.01832 -0.0225799 0)
(-0.139672 -0.00486558 -1.87348e-19)
(1.06274 0.0127321 -1.11557e-20)
(1.03578 -0.0190809 -6.5876e-21)
(1.02912 -0.132859 5.92562e-22)
(1.01624 -0.0236605 -7.17264e-22)
(1.22233 -0.0257135 0)
(1.1676 -0.0488137 0)
(1.12553 0.0646365 3.5082e-20)
(1.07896 0.0243307 0)
(1.01481 -0.00819756 0)
(1.01407 -0.000896891 3.15505e-21)
(-0.206624 -0.0115107 1.46346e-19)
(-0.123971 -0.0133415 4.54493e-20)
(1.11541 -0.36533 0)
(1.02972 -0.0161171 -6.67461e-21)
(1.01678 -0.0412785 -3.39251e-24)
(0.050501 0.0297665 -9.68725e-21)
(1.19721 0.0496318 6.62966e-20)
(0.615393 -0.20836 0)
(1.01098 -0.024777 2.96266e-21)
(1.13356 -0.154216 5.52449e-22)
(0.176455 0.0488919 3.91487e-20)
(1.11986 0.017386 0)
(1.03791 -0.0954461 -2.46638e-21)
(1.10242 -0.0672601 0)
(1.29738 -0.166588 -2.06669e-19)
(0.304146 0.0623441 0)
(1.17057 -0.10077 -6.88097e-20)
(-0.0603421 0.0157133 -4.15108e-22)
(0.707217 -0.119504 0)
(-0.128208 -0.00673204 -2.41125e-20)
(0.848916 -0.0917973 -4.81014e-20)
(1.1152 0.0207884 4.26549e-20)
(1.26433 -0.0956086 2.4823e-20)
(0.975788 -0.0464021 -1.32369e-20)
(0.991406 -0.013087 -1.72193e-20)
(0.744561 -0.313649 -6.02678e-20)
(1.08335 0.00285579 0)
(1.00888 -0.0741068 0)
(1.02168 -0.00576945 -1.02465e-20)
(-0.136477 -0.00828769 0)
(0.277876 0.0330184 2.24421e-20)
(1.13872 -0.156524 0)
(1.09665 0.0636957 -3.5463e-20)
(1.22057 -0.0285803 0)
(1.17174 -0.0480635 -7.96869e-20)
(1.21059 0.0336376 0)
(0.972987 -0.0247805 0)
(0.983904 -0.0104027 1.53035e-20)
(1.00142 -0.00688441 -2.03148e-21)
(-0.0365833 0.012065 0)
(1.11307 0.0171086 3.69809e-20)
(1.06451 0.00330779 0)
(1.00015 -0.000517137 9.24523e-22)
(0.436879 0.0420513 0)
(1.13402 -0.00636698 0)
(1.10013 0.0635962 0)
(0.0594901 0.0147714 0)
(0.358409 0.059311 0)
(0.369097 0.0615913 0)
(-0.224877 0.00542643 -1.44152e-19)
(1.02984 -0.127899 -1.00386e-20)
(0.651596 0.0632477 -1.78444e-20)
(1.00102 -0.00760933 0)
(1.01471 -0.00778792 0)
(1.15272 -0.0117078 0)
(1.00112 -0.000436968 -1.57674e-21)
(-0.0257215 0.0193799 8.17628e-20)
(1.1321 0.0925951 4.01507e-20)
(1.10288 0.0691768 8.38733e-21)
(1.0153 -0.0077299 0)
(1.08528 0.0244316 0)
(1.10238 0.0677289 1.40995e-20)
(1.19304 0.0491438 -8.25509e-20)
(1.10783 -0.462225 0)
(1.03538 -0.120777 0)
(1.11769 0.017648 0)
(-0.244073 -0.00368559 5.98426e-20)
(0.286733 0.033314 -1.6787e-20)
(1.1387 0.0614539 1.91972e-20)
(0.889978 -0.0692199 3.32776e-20)
(0.977476 -0.0254807 -1.64615e-20)
(1.01974 -0.0168713 0)
(1.18229 -0.00373396 7.48719e-20)
(1.11389 0.0158772 0)
(0.0367176 0.00987032 -2.64879e-20)
(1.08699 -0.0365814 -1.86509e-20)
(1.01069 -0.0719618 -1.492e-21)
(1.09432 0.061244 -5.85726e-21)
(1.1365 0.0604485 0)
(1.0475 -0.0105691 1.09262e-20)
(1.04302 -0.0282206 8.69309e-21)
(0.710229 -0.162686 0)
(1.26564 -0.107286 5.02852e-20)
(0.000481816 0.0257108 -4.95963e-20)
(0.109717 0.0416013 1.69765e-20)
(1.10611 0.0124108 2.18167e-20)
(0.944874 -0.7193 1.19139e-20)
(-0.0298466 0.0240492 -5.50279e-20)
(0.937898 -0.0234151 0)
(1.10705 0.0279071 3.16762e-20)
(0.255795 0.0493006 2.07034e-20)
(1.07962 -0.0466984 -1.10756e-20)
(1.09214 0.0594674 -5.67145e-20)
(1.0161 -0.0404358 3.22351e-22)
(1.26854 -0.102824 -1.4256e-20)
(1.00014 -0.00229458 0)
(1.13827 -0.0798559 0)
(1.02643 -0.083672 1.58342e-21)
(0.982074 -0.0192613 0)
(1.16416 0.0668629 -2.18709e-21)
(1.04702 -0.0196082 7.63228e-23)
(0.152694 -0.541647 -3.482e-21)
(1.01531 -0.00730606 5.51084e-22)
(1.15545 0.0520522 -4.06972e-20)
(0.0244006 0.0127919 -8.35881e-20)
(-0.0456616 0.0163151 1.27448e-19)
(0.902028 -0.0785868 -3.12414e-20)
(1.10679 0.0289356 -4.11013e-20)
(1.00003 -0.0011431 4.6317e-21)
(0.747521 -0.292235 -5.3554e-20)
(1.00191 -0.0137549 9.84368e-22)
(1.13486 -0.0811525 0)
(-0.0438107 -0.0348387 4.53351e-20)
(0.895663 -0.0698574 0)
(1.07944 -0.0444934 0)
(0.996307 -0.00160001 7.4729e-21)
(0.0959746 0.0405062 -1.80289e-20)
(1.02199 -0.0121022 -3.81151e-21)
(0.887115 -0.42785 0)
(0.0902514 0.0378439 5.87459e-20)
(1.21208 -0.193666 7.30917e-20)
(1.0001 -0.000494109 2.59594e-22)
(1.2979 -0.328404 0)
(-0.0408057 0.0140717 0)
(0.499333 0.0566967 0)
(1.09258 0.059545 4.33911e-20)
(1.11058 -0.0134392 0)
(0.708261 -0.345519 0)
(1.1637 0.0644384 3.52169e-20)
(1.08485 0.0256795 0)
(1.08831 -0.422941 -3.67786e-20)
(1.04857 -0.134826 -8.51586e-21)
(0.18194 0.00989357 -1.76054e-20)
(1.18012 0.0313608 -8.93081e-20)
(1.01046 -0.000834952 1.36029e-21)
(1.08562 -0.0144049 2.2431e-20)
(1.0946 0.0621917 -1.63975e-20)
(0.426211 0.03975 0)
(0.32265 0.0116112 -8.50348e-21)
(1.01924 -0.0161523 1.80554e-21)
(0.591158 -0.203935 3.56932e-20)
(0.992984 -0.0137417 7.14036e-21)
(1.14186 0.072787 0)
(1.20115 0.0437223 0)
(1.08753 -0.0137855 0)
(1.1343 -0.0028678 0)
(1.18371 0.0310878 1.10123e-19)
(1.00015 -0.0259301 0)
(0.806481 -0.130134 -7.42656e-22)
(1.10254 0.0607327 0)
(1.16672 0.0785051 -1.94711e-20)
(0.997965 -0.00896351 6.37823e-21)
(0.981953 -0.0182645 0)
(0.89647 -0.0770729 3.57007e-20)
(0.344857 0.0658953 -8.48852e-21)
(-0.255739 -0.00536426 -2.32673e-19)
(1.12433 0.01024 -1.91182e-20)
(1.0308 -0.0166333 0)
(1.19202 0.0528835 0)
(1.20587 0.0389589 7.47752e-20)
(1.12879 0.0591344 -1.56492e-20)
(1.13218 -0.00200122 0)
(0.314423 0.0608553 0)
(-0.1618 0.00710403 -9.84108e-28)
(1.09103 -0.0223699 0)
(1.10227 0.00908206 -2.29354e-20)
(1.11027 -0.168791 -1.67288e-21)
(1.02115 -0.0218872 -5.33027e-21)
(1.00154 -0.00651381 1.3387e-22)
(1.13111 0.0599682 -1.04625e-20)
(1.15103 -0.118883 -3.61925e-21)
(1.02339 -0.012295 0)
(1.00015 -0.00224993 2.1241e-21)
(1.0017 -0.0141676 0)
(1.00432 -0.000642181 0)
(1.1073 -0.00432141 -4.16717e-20)
(1.00161 -0.00694603 4.28967e-21)
(0.275277 0.0502094 -2.73064e-20)
(1.12263 0.00651478 0)
(1.01252 -0.0333913 0)
(0.433401 0.0383862 6.01268e-21)
(0.0391106 0.0277254 4.55283e-23)
(0.975148 -0.020193 8.31949e-21)
(1.15431 0.0545153 4.42209e-20)
(-0.219216 0.00477492 -1.94514e-20)
(0.974681 -0.0487951 -5.69018e-21)
(0.973745 -0.0195466 9.37448e-21)
(1.12522 0.00603689 0)
(0.012175 0.0125867 0)
(0.206151 -0.00310429 1.20356e-22)
(1.15428 0.001358 -5.59324e-20)
(1.00233 -0.000609286 1.59062e-21)
(0.688432 0.0658082 5.41971e-20)
(1.00114 -0.00806448 0)
(1.16057 0.000681776 3.8492e-21)
(-0.202185 0.00650846 0)
(1.17066 0.0794739 -5.90486e-20)
(1.06322 0.00289725 -3.26618e-20)
(1.21833 -0.203932 1.65213e-21)
(1.33102 -0.182249 0)
(-0.112584 -0.00143324 0)
(1.22171 -0.0363581 0)
(0.781158 -0.098983 -4.54745e-20)
(-0.0181197 0.0167382 0)
(0.0899421 0.0375141 -3.2609e-20)
(1.13785 0.0756099 5.37518e-20)
(1.04442 -0.0290289 -9.31312e-21)
(-0.253237 -0.00369002 1.02854e-19)
(0.142661 0.00316277 2.1273e-20)
(0.46109 -0.456435 -9.3575e-20)
(0.496316 -0.462558 1.08771e-19)
(0.936334 -0.0246166 1.12425e-20)
(1.15681 -0.00697341 -6.71286e-20)
(0.948767 -0.120231 1.33909e-21)
(0.256145 0.0107031 2.18561e-20)
(0.786403 -0.146057 0)
(1.00826 -0.00197087 2.80281e-22)
(1.01951 5.28027e-05 -5.03183e-21)
(1.07278 -0.0831209 -2.28065e-20)
(-0.138202 -0.00431545 0)
(0.206408 -0.548595 -5.19659e-20)
(1.02114 -0.0210589 3.98402e-21)
(-0.060788 0.0154442 -1.41634e-19)
(0.937868 -0.117599 0)
(1.10318 -0.0703213 0)
(1.06476 0.00424083 0)
(0.00369472 0.00960142 -3.75098e-22)
(1.18847 0.0529154 -2.55071e-22)
(1.09354 0.0610617 3.06822e-20)
(1.02407 -0.0813689 -2.98948e-21)
(1.07676 -0.0436143 -9.1208e-21)
(0.502067 0.0396224 0)
(0.977348 -0.0270976 1.73228e-20)
(1.2102 0.0377126 2.53796e-21)
(1.08951 -0.0210847 0)
(1.12655 0.00458973 3.2868e-20)
(0.932007 -0.119922 -1.06359e-20)
(0.992329 -0.0137758 -1.42921e-20)
(1.0133 -0.0329436 7.44668e-23)
(1.23 -0.0918673 -8.67785e-21)
(1.22781 -0.194796 0)
(1.17652 0.0356558 9.89613e-20)
(1.35034 -0.184109 1.83845e-19)
(0.511071 0.0412949 1.16465e-20)
(1.01016 -0.0755817 0)
(0.0741948 0.0374224 -8.40718e-20)
(1.14935 0.0771158 1.9559e-20)
(1.02845 -0.0082706 0)
(1.14725 0.0819923 8.35666e-20)
(1.14701 0.0383073 2.59137e-20)
(-0.17636 0.0082154 0)
(1.07072 -0.0805492 -1.80857e-20)
(1.09005 0.0522413 0)
(1.08595 0.0740629 -1.87268e-20)
(1.25058 -0.0890433 1.19655e-19)
(1.22657 -0.101904 0)
(0.245424 0.0111309 -3.13632e-20)
(1.04825 -0.0401739 1.2826e-20)
(1.13799 0.0947538 -6.38939e-20)
(-0.327329 -0.00276648 0)
(1.10545 -0.0257417 0)
(0.201959 0.0141856 3.065e-20)
(1.11277 -0.0279159 2.25371e-20)
(0.116272 0.0382086 -7.67348e-20)
(1.1013 0.00792521 6.33071e-20)
(1.08232 0.0381224 0)
(1.18653 0.0248442 -1.00222e-19)
(1.25187 -0.172487 6.56125e-20)
(0.983995 -0.0113309 0)
(1.08825 -0.027776 1.1486e-20)
(1.1553 -0.12186 4.54694e-21)
(1.08686 0.0241757 2.33782e-21)
(1.01373 -0.0255258 4.24602e-24)
(1.12415 0.0123106 -1.23434e-20)
(0.583909 0.0814138 -6.36826e-21)
(0.995198 -0.0278838 0)
(1.10859 0.0267049 0)
(-0.217658 -0.0129345 2.82029e-19)
(1.06959 -0.040936 7.30839e-21)
(1.25974 -0.486606 7.17679e-20)
(1.09285 0.0362203 3.33823e-21)
(0.264493 -0.0039597 0)
(1.08218 -0.0482069 2.3803e-20)
(1.0932 0.0485017 -1.49293e-20)
(0.919415 -0.692255 1.83592e-20)
(1.20076 0.0463283 0)
(1.13731 -0.0128938 0)
(0.30392 0.00886953 -1.65854e-20)
(-0.0609007 0.0106888 0)
(1.26378 -0.322977 4.03573e-20)
(0.999375 -0.0260157 5.43827e-21)
(1.22639 -0.0885688 8.76728e-21)
(1.1142 -0.034939 5.02534e-20)
(1.09067 0.0514945 0)
(1.02828 -0.0178677 0)
(-0.236846 -0.00190919 1.17155e-19)
(0.53521 0.0733702 7.46659e-21)
(1.20625 -0.0540436 -1.72354e-19)
(1.07634 -0.0415336 4.48786e-21)
(1.18659 0.0273779 1.14509e-19)
(1.10828 0.0886058 3.4956e-20)
(-0.241742 -0.00780166 2.34528e-19)
(1.02468 -0.00289418 0)
(-0.287472 -0.00132218 -1.16253e-19)
(1.26184 -0.158542 0)
(0.279932 -0.174549 -1.08195e-19)
(1.05296 -0.137693 7.64405e-22)
(1.10767 0.0527818 5.19596e-20)
(0.987886 -0.0184419 2.57142e-21)
(1.0013 -0.000373945 0)
(0.11861 0.0107996 5.59234e-20)
(1.11343 0.0901533 -2.63467e-20)
(0.990675 -0.00931761 -6.49335e-21)
(1.07503 -0.0254936 -2.36063e-20)
(1.11049 0.0268524 8.45486e-21)
(1.01307 -0.00884802 1.48288e-21)
(0.608017 0.0764645 -3.69719e-20)
(1.15702 -0.00411237 0)
(1.14733 0.0366891 -2.05539e-21)
(1.07974 0.0011551 -6.69826e-22)
(1.04895 -0.0389683 -1.3309e-20)
(0.972212 -0.00888939 -8.59825e-21)
(1.29689 -0.102359 -9.17977e-20)
(1.01133 -0.0326653 2.63239e-21)
(0.973251 -0.00781992 -3.70229e-21)
(0.857443 0.0661762 1.78939e-20)
(0.618225 0.0797419 0)
(1.03468 -0.0929038 9.67149e-21)
(1.09131 0.0743586 2.5006e-22)
(0.995756 -0.00304563 8.36126e-21)
(1.00171 -0.00656955 -1.26426e-22)
(1.07199 -0.0418867 -1.3742e-20)
(1.17939 0.0354975 -1.0865e-19)
(1.08937 0.0378897 6.38165e-21)
(1.01364 -0.0270295 0)
(1.05842 -0.0312732 9.13015e-21)
(1.11696 -0.354195 -3.0318e-21)
(1.06647 -0.017662 -9.86937e-21)
(0.30599 -0.0148474 0)
(1.00161 -0.00810075 4.61444e-21)
(1.07945 0.0134201 5.38822e-21)
(0.474634 0.0561232 1.21708e-20)
(0.939905 -0.163857 -2.06129e-20)
(1.0189 -0.000614184 3.74909e-21)
(1.00057 -0.00712937 3.90718e-21)
(1.07936 9.39836e-05 -5.07694e-21)
(1.05049 -0.00937422 0)
(1.24669 -0.37504 0)
(0.775392 0.0644655 1.96618e-20)
(1.11166 -0.0117685 0)
(0.320112 -1.1325 7.56735e-20)
(1.07372 -0.0404222 -1.49539e-20)
(1.00048 -0.0110605 -4.70738e-21)
(0.213883 0.0522428 -2.96288e-20)
(1.08758 0.0753934 3.8762e-20)
(0.878539 -0.126403 4.1643e-20)
(0.996462 -0.0317972 7.82873e-21)
(0.0782695 0.0353022 7.87416e-20)
(0.858426 -0.0971885 2.24091e-20)
(1.18084 -0.648786 0)
(0.989672 -0.0290261 1.0426e-20)
(1.10527 -0.0618067 2.42304e-21)
(1.23051 -0.0988345 8.6835e-21)
(1.09375 0.0218789 -3.62425e-20)
(0.122991 0.0426209 -2.87734e-20)
(1.10748 0.0890596 -5.12801e-20)
(1.26799 -0.0660991 1.15927e-19)
(0.977568 -0.0727545 0)
(1.22344 -0.0331868 -6.56278e-22)
(1.00134 -0.0272081 -4.14817e-21)
(0.413263 0.0408202 0)
(1.09342 0.0354643 1.68008e-20)
(1.13476 0.0610883 0)
(1.1126 -0.0329059 -3.06927e-20)
(1.02458 -0.0781167 -1.63403e-21)
(0.946488 -0.161309 -1.60003e-20)
(1.15331 -0.00819023 6.56754e-20)
(1.00188 -0.000559977 -7.10171e-22)
(-0.270605 -0.00327703 -1.25386e-19)
(0.184723 0.0482319 3.22724e-20)
(0.346269 -0.0202896 -1.24213e-19)
(-0.182065 -0.00342962 6.6366e-20)
(0.796131 0.0660795 -3.58647e-20)
(-0.228169 0.00480093 0)
(1.20557 0.0423733 -8.50354e-20)
(0.913407 -0.0821552 2.51646e-20)
(0.999711 -0.00325403 1.3073e-22)
(1.23072 -0.485507 -3.88702e-20)
(0.991364 -0.00798934 -1.16333e-20)
(1.01339 -0.0248394 -4.33917e-23)
(0.907462 -0.0990105 0)
(-0.00436308 0.0221953 2.50382e-20)
(1.07244 -0.0167286 3.449e-21)
(0.971242 -0.0417114 -1.57365e-20)
(1.07718 -0.28554 -2.94033e-20)
(1.14409 -0.0362131 -6.40741e-21)
(0.989271 -0.00347591 6.84315e-21)
(0.641395 0.0153835 -6.82892e-20)
(1.00911 -0.0241474 1.13691e-21)
(0.221106 0.0540726 2.90905e-20)
(1.23613 -0.359257 0)
(1.00584 -0.01928 -3.25188e-21)
(1.06676 -0.00747754 -2.39213e-20)
(1.26482 -0.13177 -5.69549e-20)
(1.14379 0.0803507 -1.06246e-20)
(1.02276 -0.0125853 -6.38142e-23)
(0.947281 -0.0889116 -5.11458e-20)
(1.05928 -0.400117 1.0494e-19)
(1.03242 -0.00233287 0)
(-0.0676743 0.00787212 -3.4116e-20)
(1.21952 0.0353272 8.19371e-20)
(1.15951 0.0492587 4.80377e-20)
(0.976096 -0.0709871 1.39114e-20)
(0.875961 0.0680519 2.1512e-22)
(-0.11232 0.0107904 -5.4173e-20)
(1.03318 -0.00253764 5.39617e-21)
(1.24291 -0.0155795 0)
(1.01926 -0.0408487 -1.21787e-21)
(1.0096 -0.0247166 -1.12102e-21)
(0.926735 0.0597986 -3.54016e-20)
(0.120258 0.0385905 -4.66251e-20)
(1.12673 -0.0342707 0)
(1.08815 0.0377119 0)
(0.990698 -0.00672767 1.31728e-20)
(1.0981 0.043248 0)
(0.206842 0.0521691 3.8081e-20)
(-0.0386517 0.0133945 -1.20803e-19)
(1.03672 -0.00584124 0)
(-0.280779 0.00254113 -1.20325e-19)
(1.01323 -0.0263866 0)
(1.02055 -0.0415944 -9.91478e-22)
(1.13832 -0.0108353 0)
(1.07557 0.0182128 -2.56274e-20)
(1.0249 -0.0025686 0)
(1.01974 -0.0759111 0)
(-0.0530908 0.00784658 -1.3837e-19)
(1.24688 -0.169069 1.01582e-19)
(-0.0819833 0.00727341 0)
(1.07021 -0.0172272 -9.69261e-21)
(0.993218 -0.0144779 7.02947e-21)
(0.369594 0.0663532 3.72615e-20)
(0.999528 -0.00449918 0)
(1.22724 -0.0789614 0)
(1.08358 0.00750485 -3.22092e-20)
(1.08921 0.0210462 0)
(1.11151 -0.018027 1.00852e-20)
(0.577134 0.0623712 0)
(-0.147751 0.00886184 0)
(1.08609 -0.0321339 -5.01982e-20)
(-0.287961 -0.00242516 0)
(1.06207 0.000692695 1.49649e-20)
(1.16316 -0.0212593 -2.86738e-20)
(0.466853 0.0491059 -1.21171e-20)
(0.151672 0.0201158 4.36911e-20)
(1.01284 -0.0416411 8.01672e-22)
(1.00058 -0.0271306 0)
(0.818954 -0.162227 1.14027e-20)
(-0.0718904 0.00789606 1.60419e-19)
(1.09016 0.0647937 -1.6767e-20)
(1.09694 0.0428658 7.86763e-21)
(1.06655 -0.565989 1.34431e-19)
(1.07546 0.018997 2.41976e-20)
(1.09914 0.00857882 -2.30048e-20)
(0.0442288 -0.0459262 -4.51847e-20)
(0.590917 0.0102611 -9.2249e-20)
(1.09021 -0.34413 9.82089e-21)
(0.205359 0.052474 -3.15953e-20)
(1.12148 0.0757486 -4.5732e-20)
(0.515843 0.045298 1.26681e-20)
(1.04386 -0.038797 -1.12154e-20)
(1.09105 0.0740667 4.01161e-20)
(1.20262 0.0488424 1.07003e-19)
(1.00009 -0.00964761 0)
(-0.306974 0.00114231 0)
(0.389599 0.0362762 8.66175e-20)
(1.03507 -0.126121 8.86726e-21)
(1.11726 0.0200606 -2.95682e-20)
(1.00315 -0.0370325 0)
(0.465289 -0.848858 0)
(1.14814 -0.190219 -5.20203e-21)
(0.571982 -0.186427 -1.81493e-19)
(1.01065 -0.0332054 -2.00671e-21)
(1.00078 -0.000516929 0)
(0.910976 -0.0497532 1.41493e-20)
(1.14263 -0.0389441 0)
(1.00166 -0.00779986 -2.36371e-21)
(-0.032487 0.0201248 -2.86339e-20)
(1.00091 -0.000615631 4.07403e-22)
(1.12317 0.074805 4.19597e-20)
(0.970805 -0.0695039 -2.82331e-20)
(1.09151 0.051877 8.53352e-21)
(0.991263 -0.0294717 0)
(0.988553 -0.00363595 -1.89004e-20)
(1.09676 -0.163585 -1.59015e-20)
(-0.279014 0.00067069 1.12462e-19)
(1.13883 -0.0183 3.72094e-20)
(-0.0739366 0.0153416 -4.73779e-20)
(1.10561 -0.0649741 0)
(1.0133 -0.00989647 2.83195e-21)
(1.03163 -0.0107883 0)
(1.15547 -0.0137202 2.7035e-20)
(1.05724 -0.032298 0)
(1.19702 -0.035327 0)
(1.07693 -0.018856 0)
(0.878432 -0.118632 -4.19632e-20)
(1.08782 0.0719448 0)
(0.999406 -0.00425032 -9.28287e-21)
(0.325624 0.00672684 5.10156e-21)
(1.00007 -0.00155561 -5.55291e-22)
(1.09179 0.0561353 4.12113e-20)
(-0.271615 -0.00219588 -1.12942e-19)
(0.429173 0.060935 -2.38551e-20)
(0.882394 -0.0305068 -8.45923e-20)
(0.78266 -0.2672 1.45559e-19)
(1.0659 -0.284906 4.43939e-20)
(1.22626 -0.246827 0)
(0.36033 0.0375345 -9.9895e-20)
(1.03931 -0.00692883 1.32941e-20)
(0.550605 0.0142197 1.42148e-19)
(0.943336 -0.122415 4.53516e-22)
(1.10815 -0.0258023 0)
(-0.170129 -0.00560197 1.17574e-19)
(1.28122 -0.0158906 0)
(1.02894 -0.00876059 0)
(1.19469 -0.0375473 0)
(1.04675 -0.00973765 0)
(0.482993 0.0413439 0)
(-0.254643 0.00259194 0)
(1.02585 -0.0429604 -5.91991e-21)
(0.692437 -0.152268 0)
(0.596926 0.0731895 0)
(0.999993 -0.00132882 -5.53879e-21)
(0.999991 -0.00178914 0)
(1.09307 0.0500448 1.04377e-20)
(0.307481 0.00438806 0)
(0.953469 0.0717256 5.40374e-22)
(0.97393 -0.0181401 -2.95363e-20)
(1.19052 0.019583 3.2445e-20)
(1.06462 -0.0176285 1.91888e-20)
(0.98746 -0.00474749 2.08276e-20)
(1.08828 0.0696348 4.0961e-20)
(1.19039 0.0225996 3.61407e-21)
(1.22177 -0.180284 6.98867e-20)
(1.02324 -0.00239772 -2.01883e-21)
(1.10381 0.0607397 0)
(0.908102 -0.211564 1.41208e-20)
(1.09168 0.0468987 0)
(0.957592 -0.0210659 1.73333e-20)
(1.0093 -0.0692795 1.11587e-21)
(1.14052 -0.19008 0)
(0.915164 -0.0508182 3.81643e-20)
(1.10089 0.0621322 2.68733e-20)
(1.12886 0.010063 3.85338e-20)
(1.13185 0.00650318 3.64547e-20)
(1.07854 -0.331481 0)
(1.1787 -0.663865 -3.89648e-20)
(1.22421 0.0299526 -4.75881e-20)
(0.672819 0.0910628 9.3688e-21)
(1.05318 -0.0951483 4.5639e-20)
(1.09744 0.0632611 3.19783e-20)
(0.0830993 0.022979 2.6102e-20)
(1.02543 -0.179873 7.50113e-21)
(0.895888 0.0596544 3.83662e-20)
(1.15852 0.0519131 -4.99506e-20)
(1.03322 -0.0207559 0)
(1.09794 0.00743074 0)
(1.22006 0.02677 -3.93744e-20)
(1.05996 -0.089064 0)
(1.00545 -0.0179612 -2.69468e-21)
(1.00592 -0.0169895 0)
(1.09293 0.0561288 0)
(0.239459 0.00821356 2.44208e-20)
(1.08099 0.0132834 0)
(0.0573167 0.033828 0)
(1.01312 -0.0102917 -2.76999e-21)
(0.922211 0.0727273 -2.08719e-20)
(1.00322 -0.376113 0)
(-0.227602 0.00456298 0)
(1.19487 -0.0429465 0)
(1.08452 -0.0475898 -2.30906e-20)
(1.07412 -0.0211196 -1.59902e-20)
(-0.214321 0.00671921 0)
(1.22366 -0.174835 0)
(1.02589 -0.172889 -9.99028e-21)
(1.11162 0.0908787 4.45466e-20)
(1.04759 -0.036852 -1.18056e-20)
(1.25374 -0.441413 4.71898e-20)
(1.0924 0.0563397 -3.67965e-22)
(1.1258 0.0751565 2.11085e-20)
(1.1112 -0.0451111 -3.19401e-20)
(1.2798 -0.146378 0)
(0.988624 -0.0188389 -2.98314e-21)
(1.00009 -0.00183226 4.62714e-21)
(0.941202 -0.0229791 0)
(0.986845 -0.00557902 -1.55816e-20)
(0.447928 0.0488287 -1.28903e-20)
(1.00407 -0.000785103 3.37381e-22)
(1.08551 0.0681998 -1.70138e-20)
(0.334756 0.0630904 -2.86846e-20)
(1.19823 -0.0447126 0)
(-0.0238508 0.0153121 -4.27021e-22)
(-0.177866 0.00736683 0)
(1.12766 0.0762634 0)
(1.23492 -0.242854 6.98392e-21)
(0.885333 -0.0378739 7.92557e-21)
(0.998606 -0.000995539 -3.71017e-22)
(0.983169 -0.017436 0)
(1.02081 -0.00635121 0)
(1.03089 -0.0108627 1.24388e-22)
(1.00107 -0.000571828 0)
(1.16169 -0.014522 0)
(1.21683 -0.0187839 -3.19565e-20)
(0.904848 -0.223209 0)
(1.1544 0.0762678 -4.87991e-20)
(1.02545 -0.0650356 4.69689e-22)
(0.249617 0.0467308 2.05408e-20)
(0.999977 -0.000190236 -1.10048e-20)
(-0.16111 -0.0169729 0)
(1.12317 -0.0938688 0)
(0.999921 -0.000386795 1.45416e-20)
(0.997038 -0.00182757 7.06078e-21)
(0.410455 0.0618489 -2.92073e-20)
(1.08645 -0.0406295 3.39118e-20)
(0.960846 0.0922112 -2.86629e-20)
(0.405575 0.0359561 0)
(1.1135 0.0197869 -2.00648e-20)
(1.13995 0.0244096 7.62042e-20)
(1.0319 -0.00145812 0)
(0.284493 0.0595456 0)
(0.986677 -0.0835455 1.2097e-20)
(1.07359 -0.0180473 -5.94129e-21)
(1.08889 0.0711035 0)
(0.998661 -0.00147053 5.75659e-21)
(0.974649 -0.0446526 2.27921e-20)
(1.03677 -0.0117387 -6.64843e-21)
(1.09564 0.0341711 5.37996e-20)
(0.211098 0.0104719 0)
(1.09647 -0.0611045 3.11456e-20)
(1.11229 -0.0396924 -2.64586e-21)
(1.26524 -0.165801 0)
(-0.0683096 0.01213 9.26907e-20)
(0.887254 -0.0601756 -3.21432e-20)
(0.989007 -0.107434 6.76595e-22)
(0.498891 0.04819 -1.48793e-20)
(1.02036 -0.00615117 -3.48902e-21)
(0.48874 0.0464738 1.12162e-20)
(1.00042 -0.00129625 0)
(1.06703 -0.0160151 3.28574e-20)
(1.20803 -0.026538 1.39904e-19)
(1.11312 0.0501206 -4.91856e-20)
(1.12731 0.0632668 -3.17984e-20)
(1.1948 -0.101774 2.67987e-20)
(1.13981 -0.0158227 0)
(0.999528 -0.00138279 -1.06103e-20)
(0.999989 -0.000192476 -7.58165e-21)
(1.16712 -0.0205542 6.67326e-20)
(1.04546 -0.038685 0)
(0.999643 -0.00114382 6.31932e-21)
(1.07958 0.0174523 2.25984e-20)
(1.25317 -0.205729 0)
(1.00489 -0.00573583 1.3147e-21)
(1.21386 -0.260859 0)
(1.28507 -0.475285 -8.31257e-20)
(1.00764 0.0863557 -1.13985e-20)
(1.19331 -0.0971971 -5.43971e-20)
(-0.0493364 -0.0173742 -2.2216e-22)
(0.839515 -0.0948261 -6.89874e-21)
(0.998482 -0.00133743 -1.25345e-20)
(1.22532 -0.113033 0)
(1.01257 -0.0107713 0)
(1.08893 -0.0257317 -2.63101e-20)
(0.721658 0.0954312 1.5686e-20)
(0.522174 0.0399477 0)
(0.541396 0.0154729 -2.76172e-20)
(0.537416 0.0523694 2.90701e-21)
(1.0297 -0.0432808 4.09012e-21)
(1.02571 -0.0421018 -1.72657e-21)
(0.9813 -0.282831 0)
(1.00564 -0.0666591 4.8986e-22)
(1.02319 -0.0193382 -4.42711e-21)
(0.553966 -0.28703 0)
(1.14006 0.0748166 0)
(0.187005 0.0166783 -1.31832e-20)
(1.09144 0.0563689 -4.54729e-20)
(1.11457 0.0507471 5.13698e-20)
(0.985492 -0.00755147 -1.97111e-20)
(1.02112 -0.0127992 2.41903e-21)
(1.30085 -0.3306 0)
(1.14947 0.0348539 2.15518e-21)
(1.06917 -0.0158256 0)
(0.999803 -0.000445985 6.4064e-21)
(1.12351 0.0641642 0)
(1.2311 -0.0475472 0)
(0.0690405 0.0343254 0)
(0.973113 -0.022822 4.81649e-21)
(1.00099 -0.00356655 -8.90165e-23)
(0.192871 0.00799442 0)
(0.958678 -0.0196718 -2.85085e-20)
(1.11216 -0.0230234 7.30326e-20)
(1.01266 -0.00836234 2.38639e-21)
(0.0127811 0.0238048 -1.25039e-19)
(1.0099 -0.000485147 -9.49592e-22)
(-0.263159 -0.00502024 0)
(0.995001 -0.00666888 4.70115e-21)
(1.20383 -0.197551 0)
(1.11809 -0.00120719 -2.76293e-20)
(0.957595 -0.286834 0)
(1.11325 -0.0433464 -6.44524e-21)
(0.993709 -0.0269841 4.23489e-21)
(1.07477 -0.028414 -9.84391e-21)
(1.00347 -0.00410215 1.33766e-21)
(1.08414 0.065928 -2.78088e-20)
(0.96191 -0.0287416 0)
(0.342364 0.0150823 2.20145e-20)
(1.04981 -0.0359633 8.45017e-21)
(0.980852 0.0976227 8.44186e-21)
(0.255263 0.0563841 -4.95636e-20)
(1.10671 -0.0497958 1.0737e-20)
(1.00405 -0.00293468 0)
(-0.191454 -0.0179013 1.14265e-19)
(0.775101 0.0676334 0)
(1.08857 -0.0320335 -6.95701e-22)
(1.11132 0.050359 4.80541e-20)
(0.983177 -0.016482 -3.26538e-21)
(0.277096 0.0079798 3.94686e-20)
(1.03416 -0.0214388 -3.20295e-21)
(1.22166 0.0232605 0)
(0.999463 -0.0105428 -5.46937e-21)
(1.00375 -0.00427935 7.12089e-22)
(0.999805 0.0953643 2.70409e-20)
(1.11237 -0.0161506 0)
(1.00064 -0.00762501 1.33129e-22)
(1.08103 0.0258177 4.09714e-20)
(0.121155 0.0413076 1.9504e-20)
(0.723747 -0.801799 0)
(0.548065 0.0711621 1.56404e-20)
(1.01836 -0.0161649 0)
(0.100791 0.026351 -2.95401e-20)
(0.997748 -0.00946156 -3.64295e-21)
(1.00468 -0.00540628 -5.13352e-22)
(0.974469 -0.0257104 1.92196e-20)
(1.01952 -7.47914e-06 0)
(0.9999 -0.00249737 -7.97931e-21)
(0.49001 0.0651677 1.65586e-20)
(0.685397 0.0931847 0)
(1.04761 -0.0206884 0)
(1.00095 -0.000842626 -4.1995e-22)
(1.12816 -0.0313128 0)
(1.01679 -0.0235245 2.79249e-21)
(-0.160496 -0.0223561 0)
(1.22928 -0.109342 -9.58264e-21)
(0.065124 0.018353 2.75737e-20)
(-0.00571908 0.0165749 5.96238e-20)
(1.07434 -0.0295696 1.04523e-20)
(1.10197 0.0622324 0)
(1.00014 -0.0101933 0)
(1.12075 0.00248004 -1.37247e-20)
(0.997787 -0.358248 -6.50368e-21)
(1.03855 -0.00628952 0)
(1.00036 -0.0012756 3.2242e-22)
(1.30477 -0.311282 3.67568e-20)
(-0.244761 0.00296826 9.68687e-20)
(1.13756 0.0247542 -3.9901e-20)
(-0.326634 -0.00450861 7.07282e-20)
(1.11975 0.0352052 -2.19623e-20)
(0.995901 -0.00388252 -4.51516e-21)
(1.13167 -0.0436737 3.55448e-20)
(1.11042 0.0511106 -5.08194e-20)
(-0.291122 0.00107398 0)
(1.10502 -0.00543686 -2.01121e-20)
(1.09808 0.0889754 2.54079e-20)
(1.15217 0.035003 1.93658e-20)
(1.00024 -0.00250932 1.39103e-21)
(0.35874 -0.11564 0)
(0.25737 -0.0800686 0)
(0.242241 0.0155271 3.15504e-20)
(1.22747 -0.0113899 7.78137e-20)
(0.936853 0.0580892 9.76775e-21)
(0.980558 -0.0735605 -1.07651e-20)
(0.729376 -0.359058 -2.54496e-20)
(0.972605 -0.00611086 3.24807e-20)
(1.17532 0.0905497 -5.44298e-20)
(1.05886 -0.0856715 0)
(1.00808 -0.00156952 -1.86673e-21)
(0.49949 0.0681981 -7.34364e-20)
(1.02161 -0.0641633 0)
(1.00397 -0.00269315 0)
(1.01414 -0.0416503 1.19508e-22)
(1.02014 -0.0623982 0)
(-0.0161969 0.0218133 8.39485e-20)
(1.21497 0.0323052 3.98533e-20)
(1.01255 -0.0151629 0)
(1.13376 -0.04097 0)
(0.0269981 0.0145957 9.06911e-21)
(1.03967 -0.0587618 -1.57749e-21)
(-0.341827 -0.00245026 -1.29556e-19)
(0.95848 -0.0456792 -1.90193e-20)
(1.12013 0.0459256 -4.49271e-22)
(0.0857066 0.0353536 4.16228e-20)
(1.00144 -0.00720732 -5.01686e-21)
(1.08578 0.0648857 0)
(1.06903 -0.101118 -3.57016e-20)
(1.10986 -0.0508941 3.40522e-20)
(0.677926 -0.829991 8.23074e-21)
(1.02405 -0.0634741 9.29188e-22)
(1.26057 -0.0813706 1.11649e-19)
(1.09198 0.0481581 0)
(0.163923 0.0458293 -5.51057e-20)
(1.04826 -0.00373921 1.14748e-20)
(0.297585 0.0133188 2.13737e-20)
(1.10411 -0.0282581 2.84948e-20)
(0.0177417 0.0223601 1.02805e-20)
(-0.278233 0.00217022 0)
(0.276043 0.00918329 -2.3069e-20)
(1.11099 0.0226062 0)
(0.990704 -0.0254642 -9.61961e-21)
(1.02907 -0.0444981 -1.95728e-21)
(0.999974 -0.00129611 -1.22508e-21)
(1.08156 0.0369744 -1.82357e-20)
(0.997069 -0.00365957 0)
(0.135746 0.0439966 -8.92837e-21)
(1.03139 -0.117767 0)
(0.926669 -0.0904529 0)
(0.890109 -0.056761 1.78584e-20)
(0.982613 -0.0721531 2.34741e-20)
(1.01792 -0.0155905 0)
(1.06884 0.0201859 1.89568e-20)
(1.06595 -0.086732 -2.00257e-20)
(1.06667 -0.00877624 1.52099e-20)
(1.0455 -0.0982859 0)
(0.288777 0.0382015 -2.51698e-20)
(1.08356 0.0638824 1.84119e-20)
(1.10119 -0.0192956 0)
(1.11682 -0.153009 1.03267e-20)
(0.528678 0.0676398 5.17326e-20)
(0.971937 -0.0442043 1.65992e-20)
(-0.122733 2.70408e-06 -3.96408e-20)
(1.01973 -0.00615028 0)
(1.03277 -0.142175 0)
(0.960107 -0.0274529 1.65203e-20)
(1.02441 -0.0285378 -8.3267e-21)
(1.08121 -0.167064 0)
(1.00029 -0.0114495 8.74614e-21)
(1.01282 -0.0147832 -8.38204e-22)