/*--------------------------------*- C++ -*----------------------------------*\
| =========                 |                                                 |
| \\      /  F ield         | OpenFOAM: The Open Source CFD Toolbox           |
|  \\    /   O peration     | Version:  v2012                                 |
|   \\  /    A nd           | Website:  www.openfoam.com                      |
|    \\/     M anipulation  |                                                 |
\*---------------------------------------------------------------------------*/
FoamFile
{
    version     2.0;
    format      ascii;
    class       volScalarField;
    location    "150";
    object      omega;
}
// * * * * * * * * * * * * * * * * * * * * * * * * * * * * * * * * * * * * * //

dimensions      [0 0 -1 0 0 0 0];


internalField   nonuniform List<scalar> 
13917
(
0.0398386
0.0221903
4.58377
0.0236981
0.022109
0.430303
4.20514
4.79281
5.67844
0.0646301
0.153485
0.064941
0.023776
10.6317
0.0261426
0.0249868
0.0223116
0.0528389
0.0638375
0.0221139
0.0222667
4.1225
0.0220945
4.84066
0.0220105
3.99842
0.04113
0.0532247
0.731658
0.100292
0.0424868
0.0278774
0.0357204
0.0255347
0.0220264
1.48124
0.0221031
3.77388
0.0255782
6.31741
0.0219041
0.0222858
0.0215853
0.0809642
0.0220881
0.0272435
0.0520361
0.0685528
2.84024
0.0220199
0.0269031
0.0223354
3.32596
0.0259143
0.0223249
0.0268447
0.150874
0.0220346
0.0250004
0.0220432
10.1946
0.0221926
23.3631
0.0221026
0.401842
16.6607
0.0221033
0.0220437
0.169226
0.036299
0.0221166
5.77122
4.26137
0.022017
2.90416
0.0762034
5.63557
0.0227634
3.82747
0.0222366
0.0222044
0.0221108
0.373294
3.72778
4.79119
0.022667
0.02218
14.0634
0.0266304
0.0215766
4.03853
0.0866009
0.0218886
0.0230076
15.0859
0.369479
0.116456
0.0634435
0.131288
0.106108
0.0218202
0.032251
0.0812794
0.02318
0.0218019
6.04702
0.438357
0.0723504
0.0223166
0.0453913
4.32956
5.5359
0.0827072
5.92288
0.0229415
3.20926
0.0220105
1.48392
5.14604
0.0259106
0.0222738
0.163565
4.63389
0.0502003
0.0219807
0.0228412
0.0220501
0.0219883
0.0216066
0.410888
3.56547
0.0228488
0.0221111
0.0222743
4.14468
4.8204
0.0403792
0.112068
0.0220963
0.0257637
0.47904
0.0217738
0.0225699
0.100609
0.0220435
5.91706
0.772069
0.0222829
0.0217462
0.0285096
0.0548951
3.21318
0.0843723
0.0411797
0.0270076
6.50059
0.0348205
3.43647
7.61373
4.01662
0.0242016
0.0417777
0.0222366
0.111163
0.0810348
0.128662
0.0231491
0.0585391
0.0219181
0.0332582
0.0414962
6.80581
0.0899421
0.0226211
5.54022
0.0451127
3.54419
1.95093
5.84072
0.0219316
0.0908381
0.0440203
0.0217677
0.0221711
0.0298977
4.12823
0.339772
8.39951
0.0365606
0.119913
0.418653
5.2879
0.307508
0.0221051
0.117399
0.0397098
0.0224565
0.0218969
0.228752
6.94257
0.0262956
0.0220352
0.0543359
0.0542111
4.67856
1.76487
0.0220289
0.0220494
0.0619539
4.34571
0.0224726
4.21229
6.56126
0.120334
0.0218097
0.573012
0.0542247
6.15993
0.021966
10.8719
0.0219253
0.0897065
0.0218951
3.80337
6.09248
0.0253154
1.96804
0.027344
0.0218132
1.14821
0.0883865
0.0361462
4.75162
8.8109
0.0217757
0.0283765
3.98976
4.64119
0.0222286
0.0219508
5.00059
0.132491
0.0222668
0.276223
0.0956685
0.0401444
0.0371019
0.0222285
0.0449307
7.27638
0.0219629
0.115955
0.13965
0.0220272
0.0220231
0.0671218
3.81536
0.0794752
0.0302108
0.0263037
0.0222712
6.01297
7.05673
0.541466
0.021821
4.52809
6.71065
4.08952
3.76401
0.0812348
0.022215
0.021937
0.0522509
4.04426
0.118035
0.0247173
2.52234
0.0429243
0.0215995
8.47736
0.0220905
5.53888
0.0258208
0.022262
0.0273047
0.0408505
0.0416741
0.293528
0.0323205
0.0220628
0.321095
4.79216
7.02783
0.0219673
4.47902
0.0221727
0.0220579
0.0220185
1.1153
0.0221058
0.0982841
0.0361389
0.021898
0.0544865
0.0231247
2.39071
0.0439634
0.0791385
0.0218109
0.0220134
4.41702
5.23089
0.0220045
0.0219159
8.5379
0.021913
4.12356
0.0218036
3.79917
0.0224616
0.466348
0.0333393
3.02534
0.023907
2.02818
0.304101
0.0273096
0.131781
0.511831
0.0222771
3.66891
0.120245
5.60238
0.0247746
6.65651
0.0291133
4.70967
0.245329
0.110082
0.107092
4.45871
0.0222166
0.0430933
4.316
0.0221706
0.0234673
6.0464
0.278393
0.0225462
0.222129
0.668924
0.0218617
6.20864
0.565766
0.0220839
0.0218969
0.0221802
0.021741
0.332738
5.73503
0.693228
4.32183
0.0220156
0.13025
6.66504
0.0422554
4.12708
3.8797
5.98124
0.0217693
0.445909
0.0218769
10.9988
0.0220406
3.76492
0.095599
0.0247594
0.0221984
0.0588301
0.099029
0.0717829
8.41726
4.4865
9.61445
0.0468217
0.0604561
0.0219587
4.78769
4.00449
0.0220593
0.93275
0.0220431
0.313143
0.0224574
0.0222267
0.023158
3.6404
0.0231219
3.50287
6.25894
0.13633
0.469204
0.0222649
0.482651
0.421745
0.0220401
0.309175
0.0221541
0.0220274
0.100468
0.0222616
0.0220149
0.0218732
0.347287
0.0222477
5.56315
3.9202
5.24089
0.307111
3.42285
6.09108
0.0416459
0.0220224
0.174265
0.0253498
0.029675
0.0220976
5.82309
4.21313
3.95755
0.0249525
0.108414
0.0245001
0.0260521
0.07134
0.0229359
0.54482
0.0223035
0.0220968
4.06359
3.54437
3.53361
0.127492
6.26246
3.60813
4.28619
5.68396
0.0216363
0.0567852
0.0229933
0.0220795
0.765471
0.0529638
0.0218799
0.0618014
0.0395507
5.7746
0.0220358
0.114437
14.5224
0.734782
4.44449
0.0222552
0.0220655
0.0224232
0.0349959
0.021772
4.16642
0.547164
0.0321646
5.36452
0.0267646
0.113511
4.43901
0.78626
0.132087
0.536881
0.114012
0.0603095
0.163443
0.0425184
0.153088
0.592583
0.0480243
0.0802789
0.0218662
2.23633
0.0276325
0.0216733
0.0335547
0.0228768
5.33929
5.93307
0.0219075
0.0216164
4.35973
8.71697
0.0222618
5.77148
0.0228878
0.225296
0.0219223
4.95861
2.33619
0.028439
0.0223258
3.39115
0.260165
6.99257
0.0222694
6.4016
2.44697
8.74902
0.0216829
4.59195
6.45362
0.042326
0.0218901
0.0223029
0.0766476
0.338914
0.0218143
0.0219026
0.0219602
0.0219546
5.08268
0.850411
0.0417398
0.329586
0.0219673
0.0218273
0.10611
5.26738
0.0333901
0.0219319
0.022023
0.0220645
8.66426
5.81785
0.0221742
0.0220642
0.325787
0.0421724
0.0332981
0.0220571
0.0232372
0.0269326
0.0783115
0.407782
0.338671
0.177948
0.0968048
1.8529
0.0773709
0.0219771
6.05704
0.022068
0.0237485
0.0243397
2.10963
0.0753147
0.0218321
0.735628
0.113699
12.6636
0.0978866
0.0352456
0.04159
0.0221896
6.8331
0.510837
4.043
0.0222205
0.0295409
0.329938
3.8702
24.6004
0.0665059
0.147119
0.0249301
0.02414
0.0220594
0.0537351
0.0864249
0.0221566
0.0537117
0.133359
4.12543
6.30072
0.0240283
0.109684
1.66683
0.0283946
0.0223844
3.5171
6.41809
5.70951
0.297086
0.021621
5.54337
0.0750774
0.0218658
0.0315278
0.0729427
0.0342933
0.0982901
3.83887
0.159071
0.0378435
6.77896
0.023176
7.12585
0.0222374
0.0221675
4.5658
6.36805
0.634759
0.0231713
0.022566
0.0220676
0.0435402
3.3601
0.121608
0.0243513
0.123127
0.0576714
0.0219271
2.02894
0.118204
0.661173
0.0219494
0.15399
0.0228516
10.1742
0.0659686
0.0749015
0.029852
0.0218825
0.021687
0.0220867
0.118191
0.027601
0.343425
7.16578
0.0578209
0.0218707
0.155778
0.662044
2.1393
0.0219378
0.0270416
0.0219102
0.0290561
0.025166
6.28193
0.0222285
4.24007
0.0287756
0.151897
0.0878093
4.2862
0.0781614
0.0222562
4.27622
17.8438
0.0220436
0.0242594
2.46675
0.236581
0.117724
0.0222376
0.0223564
0.348514
0.0249028
0.0711926
0.064059
0.0216891
0.0541361
4.63026
0.0219229
0.0230713
0.02198
5.45469
0.0222656
0.0246209
6.14813
0.0233312
6.32701
0.0270845
0.0364289
0.0219726
0.0502514
0.0220273
0.0588107
0.021888
0.0850882
0.0228883
27.2159
3.00672
5.30425
0.0223048
0.0222061
0.0732713
0.0483832
4.7351
5.59965
0.0523702
0.0220309
0.343829
0.648978
0.582621
0.295274
0.050117
3.82142
0.0392694
0.0408699
0.149493
0.181191
0.0516372
1.09015
0.0511433
0.0236348
0.0776223
0.0274183
0.0217524
0.0288364
0.0453489
0.0278479
0.0220342
0.021929
0.0578637
0.0233863
0.072117
0.0220335
0.0220582
0.0222733
0.0231337
0.0215428
0.0258029
0.0220001
5.13651
0.0640016
0.361162
0.0217957
0.0222471
0.0479094
0.0613854
0.0226716
8.19071
0.0795104
11.1914
0.0288795
0.124072
0.0224562
0.0222688
0.0219373
0.0231375
7.93423
0.022255
4.34184
0.0260879
6.013
0.0492169
0.0808617
0.149087
0.0216794
0.022291
0.0650561
0.022044
0.0224077
7.89644
0.0227046
0.0221805
0.0279033
0.0219445
0.0216731
0.0279148
0.0279481
6.01582
0.03505
0.021922
0.0218793
3.87757
0.116257
0.0222058
0.0222235
8.12856
2.19158
8.73388
0.0353052
0.023644
0.021787
0.0216551
0.0488495
0.0361125
0.229643
0.0251393
3.7763
0.0223019
0.0236245
9.46493
0.0220498
0.0278038
0.0219973
0.0220809
0.043891
0.0428187
0.0224981
6.2864
4.36939
0.0889698
0.0219733
0.021598
0.117264
3.60481
0.0222612
1.26449
0.0215975
0.0427476
0.0217573
0.0217932
0.356389
0.0220001
3.40083
0.0400131
0.0222732
0.0216167
0.0220634
0.0219142
0.0229803
4.14622
0.0218798
0.0217733
5.09532
5.91319
0.0389878
0.0469729
0.0672311
0.0251689
0.0217879
0.027976
4.97136
0.0901163
0.0221314
0.0222689
5.70767
0.0361232
4.42171
0.0222662
0.0227784
6.54141
0.0335939
0.0225782
8.01353
1.73756
0.021911
0.134495
0.0219347
0.0219732
0.0217829
4.27854
0.0215356
0.0219565
0.0217822
3.51578
0.0248568
0.223313
0.0632217
0.0217863
0.0326806
0.0221742
4.33192
0.0219662
0.0219003
0.0221815
0.121904
0.0221736
0.158826
5.70491
4.69925
0.0265151
0.600532
5.37492
0.0220103
6.93427
9.52302
4.84834
3.43524
4.97112
36.8073
0.144724
0.0223276
3.77362
0.0335297
3.92593
0.0216759
0.0218839
0.0222062
0.0221675
0.0259924
0.0309757
4.56474
0.0218735
0.0220721
6.46384
0.290654
0.0220638
0.0372704
0.0296362
0.0222235
2.80124
0.0381973
0.0237386
0.0247862
5.73887
7.87381
1.29915
0.0217383
0.262913
0.113328
4.64174
6.02388
0.0885864
0.021918
0.0225183
0.0223043
0.0214963
0.023223
0.0216292
0.0270452
0.0382102
5.61279
0.130804
0.0219704
0.120837
4.3167
0.0415919
0.0223006
6.39816
0.0218811
0.0223266
0.0375129
6.59806
0.0221739
0.0219504
4.21083
0.200261
1.25336
0.106617
1.33068
0.0219274
0.177343
0.0223311
0.0220006
0.0223227
4.11971
6.36856
0.0217668
0.0216133
0.022018
2.63702
0.0230079
0.029723
0.0220448
0.0224321
0.171967
0.0218036
0.0600432
0.34358
3.53019
0.0219956
0.0828196
0.0242028
4.46121
4.25986
0.0220171
4.46592
0.0718376
1.4497
0.0221725
3.58935
0.0222454
0.0266552
0.0426056
0.106682
4.33511
0.952578
0.189362
6.50626
0.0218642
0.297367
0.0217835
0.0273997
4.20326
0.0220908
0.0222529
0.0228013
0.0221917
5.17298
0.0216744
0.0220855
0.0550309
0.0471094
0.0499493
0.590879
0.130476
7.73731
0.0657164
0.0353468
0.0399305
4.60624
0.0400576
14.1998
3.93011
0.025505
0.0218087
3.32517
0.651098
0.0222865
0.111387
0.0337952
0.0223627
0.0263873
0.0222369
0.042577
0.0222921
0.0490712
0.10716
0.0218845
0.0611595
0.021814
0.0591264
0.0218834
0.0260824
0.0580513
0.0235309
0.0221211
0.0217768
2.08356
0.0809211
6.202
0.0220118
0.0221384
0.0589006
0.0219977
0.0922316
0.0811745
0.0223644
0.0959974
0.0217981
9.98824
0.0222517
0.0373713
5.39662
0.295335
0.0219341
0.0235944
6.80281
0.022003
0.0219216
4.48377
4.16162
0.0241764
0.172583
0.0221046
0.0221156
4.17028
0.0230126
0.0216898
0.25723
0.0218203
2.17592
0.022198
0.0216927
0.0222055
0.132137
3.6795
0.0221174
0.0222752
0.021928
0.0258276
0.0220778
0.979086
0.0590143
0.0222688
5.73398
0.0492706
0.299692
3.6131
3.64718
0.0217546
0.0222443
0.0220513
0.746511
0.0263019
3.71503
5.75153
0.0238875
4.1125
2.31609
0.0494724
0.14526
0.0692962
0.380851
4.3901
0.0627744
1.02593
3.74064
0.0634277
0.0251444
4.43949
0.0537205
0.0216879
0.0233381
13.559
0.037993
0.0219008
0.0521208
0.101583
0.0384518
4.34317
0.0237205
6.5021
0.039898
0.517773
0.126721
0.281085
0.0289451
0.0217885
0.0225773
4.64192
0.0219962
0.0240831
0.0217982
0.0232492
0.0218766
0.0351998
0.150307
1.91023
0.0439768
0.0589489
3.9741
0.35308
0.0218696
2.28274
4.07817
0.0217307
0.0219128
0.0307706
6.77681
0.0222544
0.0696301
0.604569
0.04776
0.0220547
0.0232034
0.0218372
0.111754
0.0393334
0.0219913
31.0477
3.82366
0.0427655
1.56322
0.0643518
5.42348
0.0232692
0.0254652
4.26604
2.16005
0.0891896
1.75223
0.0282573
0.0222763
0.0219662
0.022184
0.0220248
0.0226159
0.0523999
0.0219419
0.121316
0.0219432
0.0284465
0.0217633
0.0803687
0.120466
0.79466
0.0219969
0.278355
0.0219645
4.41121
0.0220375
0.0254525
0.0221256
0.259158
4.57964
0.138973
0.0219363
0.131183
0.0220334
0.0297166
4.11268
0.0219448
0.0223428
0.0453754
0.0315031
4.11821
0.0219431
0.0296557
0.023215
0.0220432
0.0319495
0.0224738
0.0217501
0.0236403
6.33775
0.0244286
0.249821
5.75408
0.0517055
3.57049
0.0241822
0.0217564
0.0308199
8.28145
0.0234269
0.0363186
0.0419557
4.65061
0.0219009
5.803
0.0625968
0.0702949
0.0217217
0.0216314
0.176206
0.0224133
0.022286
0.0334935
0.021684
0.0243463
0.0285288
0.0689039
0.267945
4.14535
0.0253399
0.0724956
3.28198
7.42761
0.0376431
0.260521
6.63504
0.039345
13.0486
0.0236244
20.3235
5.38971
0.0216723
0.022262
0.0219567
0.0226375
0.0449624
0.0217667
0.0238459
0.0888274
0.0233026
0.0352608
4.17508
0.0300221
0.0241909
5.69393
0.0225821
5.69585
0.0244283
0.0542366
0.0218907
6.69773
6.02318
0.0220323
0.0227583
3.73555
0.0293627
6.75069
0.0220234
0.0218189
4.12175
0.0227319
0.0440243
9.75666
0.0220664
0.0547628
0.0291461
0.0216275
0.0219041
3.76556
5.61467
0.0222049
0.0235429
0.0220555
0.0264988
0.0357599
5.96548
0.0226647
2.56453
4.42692
0.508912
3.06887
0.0226768
0.121202
0.192647
0.0289082
0.0220632
0.059262
4.00003
0.0233593
0.0459621
4.90156
3.64798
0.297545
0.0251479
0.0222694
0.0222462
0.0220678
7.5076
0.0544482
0.0238771
0.0228737
0.0243894
0.02227
0.0219821
0.0220414
0.0712504
0.0383807
5.64396
0.0465997
5.1001
3.41685
0.0303305
0.0504982
0.0218131
0.0284351
8.15002
0.0221364
0.0235419
0.0510082
0.117767
0.0555344
3.84372
0.247392
0.0218847
3.87804
0.0215954
0.0222682
0.0456219
0.0222735
0.0219586
0.169948
6.87138
0.0218254
4.15881
0.0221174
0.0217449
0.0234605
2.68941
0.0290994
0.0244027
12.6962
0.022922
0.23289
3.40088
0.0222462
0.0479243
0.0220118
5.78559
0.0708936
0.0220426
3.99906
0.0536222
0.0782933
0.0222785
6.55277
0.0291108
0.396193
0.0230005
0.0715059
6.77885
0.021765
1.44683
0.0221082
0.0622359
0.0519188
0.0222453
4.56039
0.0235801
0.115251
0.0576683
0.096098
0.040295
0.0437905
0.0225936
4.87222
0.0317442
6.99101
0.0298414
0.0631419
0.0219733
0.0438503
0.0220424
0.0693778
4.52778
0.022751
0.0218329
3.42684
0.0228494
3.37306
0.022485
4.23057
0.632565
0.0351749
0.0219921
0.0219413
0.02211
0.0216281
0.103991
0.0556377
0.038217
0.0257696
0.022084
2.40276
0.0236289
0.0339613
3.0655
0.0220302
13.8338
0.0508694
0.0300407
1.25771
4.26085
0.332018
4.40239
9.47377
0.0218949
0.36245
4.99727
0.353367
0.0221736
0.0222114
0.112475
3.9368
5.57628
0.635209
0.022361
0.0509688
0.0400014
3.40449
4.95441
0.0418971
0.126462
0.0238852
0.080788
0.0891524
0.0221654
0.105863
8.02762
0.0221315
3.41874
0.0222532
0.0219732
4.63153
3.92049
0.0218517
0.0224419
0.022477
0.0218239
0.0485442
0.176827
0.0231665
0.0219904
0.0220998
0.0403344
0.0277986
0.0275275
0.342846
0.0220253
4.0077
7.62314
4.11675
0.152483
0.0523823
0.980045
0.0334123
3.74679
2.00997
9.70664
0.0224259
6.68801
3.48178
0.0217709
0.0220384
0.104404
4.47167
9.77946
0.0217909
0.0220385
3.53102
4.62077
6.92396
0.0239811
0.0238993
1.87736
0.0222031
3.60979
7.2665
1.6897
2.49998
0.02206
0.0219279
0.0218885
0.026072
4.06744
0.0400551
0.0255866
0.0226139
0.08651
7.17594
0.0403087
6.1595
5.35684
5.25434
2.16925
0.0220528
0.0221725
4.26228
0.0216624
0.0216857
0.0230568
2.81667
0.0372683
9.42775
0.134163
0.0220283
5.43286
0.0395089
0.0218805
6.08186
0.167792
0.0250181
0.0221331
5.13345
4.46022
0.0221804
7.44693
4.49698
6.15558
2.28295
0.082707
0.0219359
0.0225737
1.77374
0.0255975
4.43101
0.0417424
3.39542
0.266444
0.022888
0.0289826
0.0219349
0.0227035
4.66149
6.92863
0.0220684
4.89626
0.0426351
0.0220454
0.0247887
0.0219367
0.164226
0.0224532
2.29506
0.0513319
0.0219276
0.0218754
0.0954853
7.93959
0.0389797
0.0239818
0.0428506
0.0220371
0.0231518
0.0274242
8.8251
4.10419
4.46389
0.0217218
0.0218687
0.0223649
0.122137
0.0218793
0.0224103
0.171307
0.0579722
0.934016
0.0216594
4.43188
4.0788
0.0222843
8.91209
0.114026
0.0372007
2.05055
0.0223124
5.11617
0.0294465
0.023058
0.0238827
0.0216587
0.243184
0.0224401
0.0228535
0.0306955
3.53975
3.60141
0.0222461
0.0220231
0.0235244
0.0219977
0.135563
0.0224288
0.0847572
0.023598
4.05656
0.0227247
4.04246
0.0217235
5.6126
0.0224147
0.0216426
6.88756
0.312395
0.111065
1.54106
0.0441107
0.0406003
0.0220439
5.1227
0.022064
0.0218855
0.0874457
0.0639146
10.0772
4.47676
0.124125
6.98254
0.131486
0.979739
0.0218865
0.0249803
0.0279879
4.08397
0.0247985
4.23012
4.48397
0.0222291
0.0220656
0.0220235
1.56682
3.33721
0.0234103
0.0221115
0.025728
0.0280982
0.0380012
0.38314
0.31759
0.0220654
0.640219
0.0855818
8.37013
0.0720858
0.0232776
0.0239094
5.24412
0.0218855
0.0898893
4.43602
0.0227377
0.0253934
0.176514
0.134262
0.022769
6.50854
0.0244061
0.297376
0.0407723
0.0302531
0.0227924
4.39059
0.0218627
0.0969442
1.44442
4.80405
0.0497373
0.0670728
0.0257294
0.0475895
0.0222658
4.99656
0.02678
0.0220016
0.0299082
0.0220932
0.0222692
2.97827
0.0220708
0.0221794
0.0220557
0.128818
0.0222423
0.0330927
0.071229
0.235589
0.118712
0.0222537
0.238079
0.473839
0.226447
0.0854486
0.0274123
0.158918
4.73346
0.646691
0.0222845
7.67765
4.11934
0.0222839
0.0241519
0.0216481
0.748132
0.106607
0.022075
1.28908
4.15045
0.0218131
0.0222095
3.77661
4.14893
0.0652472
0.0216623
11.2772
3.30825
3.26865
0.0220304
4.09809
0.0821004
0.0705412
4.39565
0.0262195
0.0216602
0.030102
0.192526
0.0320409
3.92264
4.51037
0.0218271
6.52352
0.511144
4.5835
0.0217211
0.05125
0.0222843
0.0219337
4.0074
2.86631
0.291447
3.86638
0.0292316
0.0506082
0.0221982
4.67799
5.90451
0.0220478
0.022263
0.0317087
0.0218313
0.0506422
4.28094
7.47299
0.051166
0.02249
0.0221872
4.03324
0.0249818
0.0526245
0.0218057
0.022999
0.721254
3.20863
0.338404
2.9261
0.0221711
0.306187
0.0222958
0.0476855
9.71232
6.85649
0.0220757
0.0222938
0.0358329
0.025682
0.0221863
4.2504
4.12389
0.0217901
0.021518
0.0221911
0.0219705
2.68246
0.0217463
3.87237
0.10398
0.0639036
0.0218652
0.0478234
4.66391
0.0336472
0.445159
5.83997
0.0222618
6.99444
0.0330186
0.0355818
0.358553
7.18607
4.65112
0.0600826
0.0219045
0.254742
0.0217564
0.0252184
0.0222082
3.8872
0.0316555
2.56911
0.54141
0.0486247
0.0221258
0.295599
0.0269865
0.0222704
0.261935
0.0216014
0.0385484
0.0342315
0.0221713
9.77529
0.0233873
0.573453
0.0228381
0.0219392
5.52741
3.59913
0.0241009
0.0324215
0.039262
0.0578925
0.0578787
0.026397
0.0258923
0.0252867
0.217998
0.0250393
3.98815
0.0593395
0.398807
0.116839
0.0226993
4.40974
0.0216122
4.35809
0.0241793
4.33094
6.03413
9.13211
7.75503
0.314757
0.0762886
0.0220426
4.11048
0.0850159
0.022042
7.94647
5.68383
0.0232814
0.0238614
0.0308197
0.0308291
0.0324389
5.12961
0.022284
0.0301434
0.035242
0.0321679
0.0221649
0.083585
0.021617
4.0698
0.0236644
0.135859
0.0319583
0.0397485
0.124272
3.27649
0.0872508
0.0218426
0.243328
4.0946
22.8275
0.0224381
4.13772
0.029029
1.79359
0.0220643
0.0245179
3.73235
0.051999
5.06494
7.37432
0.0332699
4.99353
0.0219848
0.0216072
8.87718
0.0590183
0.0244438
5.32242
0.0269711
0.0456739
0.0293055
0.0716028
0.0221765
5.76423
5.23867
7.06112
0.295312
0.0255635
0.057201
5.04187
0.0240529
0.0223183
0.0826028
0.0216943
0.292324
7.80119
6.34503
5.34244
0.0550447
0.0225073
4.11304
0.0216005
0.0727181
0.0222353
24.2157
0.0237947
0.0475939
3.69537
0.120455
0.022029
0.032097
9.2665
0.0220722
0.144716
0.0217981
9.52236
4.25561
0.112607
0.0771475
0.021954
0.212117
0.135245
0.0395255
0.021803
0.0225553
0.0221471
0.0541181
0.022125
0.084483
0.0221189
0.021808
6.48977
0.0218739
0.0268725
0.0252209
0.0222747
3.57243
0.0218692
0.0338177
3.91192
0.0489189
3.91888
0.0220595
4.48951
0.0513708
5.07223
0.0235744
0.12449
0.0222243
0.041048
0.120847
0.110741
0.262966
4.07522
0.222771
1.86042
0.0269327
0.109138
0.041681
0.913444
0.0250567
0.0221684
0.0220289
0.051475
0.0462026
2.2988
0.0533145
4.57069
6.85595
0.100491
0.0220176
4.3642
0.199368
0.0224683
0.0240656
0.0220726
4.94045
0.0220324
8.16633
0.0218611
0.0271774
4.88357
0.0780624
0.0220461
0.0220238
7.72764
0.021881
0.0240655
0.0253137
0.0324965
0.0277222
0.0221799
0.155631
0.0809639
0.0436096
0.332957
4.42895
3.57783
6.09871
0.0217386
0.0219884
0.101716
0.0225155
0.0467935
4.08492
3.71315
0.0216586
0.0220445
3.39483
0.377453
0.0216748
0.0218447
0.0265513
13.2294
3.95083
0.0265999
0.0340937
0.0221999
0.374776
0.123728
0.14082
0.0315943
0.0441242
0.0224064
0.038389
0.313808
0.0227667
0.0221701
0.0263878
4.37581
0.0251955
7.35409
0.0221093
3.71478
0.0364849
0.0279575
0.0217816
0.021929
0.798113
7.85268
0.0577457
4.24946
9.75057
0.022542
3.93189
0.142942
0.0218925
4.6578
0.336539
0.113206
0.0222538
3.47034
4.52648
0.0219827
0.0396026
4.2749
0.045043
0.0220612
0.0218
0.022417
0.0240041
0.0828361
0.300659
0.0776519
0.0786416
0.021723
0.0222059
4.58905
0.0218501
0.0484931
0.0265544
0.0222031
0.0506629
0.0220289
0.0237347
0.339018
0.0220022
4.45974
0.0220239
14.367
3.57599
0.0948777
0.0222591
0.0222927
4.16019
0.0216469
0.0242107
0.0223328
0.338283
1.31231
0.0338986
3.5809
0.0417639
1.25225
0.0225272
0.0683394
0.0218152
0.0221412
5.0742
3.6432
1.35663
0.0237966
0.0686734
0.0684791
4.79095
3.9899
0.321587
0.0395327
0.0215954
4.10286
0.0219241
0.0219828
0.299055
0.111624
0.0282677
0.19888
0.0473017
0.0316424
0.0277423
5.21036
0.0244362
0.021996
6.81707
0.0469227
0.0217199
3.48315
0.0220352
0.022114
0.16376
0.153026
12.274
0.021737
0.0247826
0.0219213
2.21807
0.0218754
0.534406
4.1335
3.52723
3.48033
32.9901
0.0301981
4.41615
0.86488
0.02221
0.0305702
0.0435136
0.0303311
1.23276
4.072
4.43579
3.50796
2.37794
0.0221635
0.104474
0.0220425
4.85509
0.0287703
0.0232559
0.0241562
0.0227291
0.0218903
0.105559
4.43497
0.0217255
0.0236864
0.0218671
4.48801
0.0235404
5.6036
3.84706
1.272
0.0220968
0.021897
4.37985
0.367418
0.0221406
0.302978
0.0222283
0.142832
0.186696
0.0956753
0.0512102
10.6903
0.0218048
0.0218189
0.200723
3.36329
0.0294712
0.0470048
0.0219436
8.40485
0.022014
0.0219551
0.0231875
0.0219971
5.32943
3.96968
1.58838
0.0604841
4.18486
0.54921
0.0216633
0.0312595
0.0217025
1.26535
0.0220224
0.0248463
0.021998
0.0219242
0.0217937
2.81966
0.0229171
1.6981
0.0216164
0.0323866
0.0228977
1.56998
0.0220505
0.0317029
0.0353118
0.0699332
6.71369
0.0219206
4.22707
0.0693615
0.0456411
0.0219749
0.0219517
3.51476
16.1589
0.0220396
0.0218973
0.279246
0.232917
0.0381766
3.81528
0.0227715
0.548815
0.0314525
0.0217103
5.48725
0.0231557
3.82911
0.0220275
0.0227141
0.0221227
4.18946
3.52118
0.021679
0.243047
0.234608
0.0220617
0.0218778
0.0219009
0.258063
3.9138
0.0651449
0.0244485
0.0399037
0.0220339
0.0220505
0.0237425
0.0220077
0.185927
0.0220613
0.0629287
0.631683
0.036247
0.0216211
3.95534
0.0734512
0.0220432
0.0814795
0.030743
1.40224
0.0244869
10.1393
0.0573864
0.0220058
0.0884094
0.0876004
0.024738
6.01779
0.0595051
0.0301979
1.83223
0.0219511
0.152407
0.0877931
0.127814
0.0219437
0.0219828
0.0216434
0.033139
0.0552816
0.054043
6.47573
4.65074
3.87053
0.0222668
1.90177
3.63535
4.10722
0.0219993
0.0220397
0.0535414
4.01342
0.0241778
0.0354193
32.2441
4.97424
16.3685
0.113721
0.170026
3.38298
0.394564
0.0216172
11.2679
0.283242
0.0223434
0.0223903
0.0228267
4.6753
0.0984257
5.26552
0.0240067
8.62126
0.0221437
1.21759
3.82261
0.0222235
0.0342638
4.2129
4.66642
0.0559665
0.0229012
0.0237363
0.0223808
0.226446
0.120696
2.56582
4.02155
0.0217557
5.3074
0.169433
2.23185
0.022031
0.0221654
2.93545
0.2608
0.0219668
0.0504106
0.0729303
0.0390015
4.04121
4.38115
4.68374
4.0329
0.0254835
0.021672
0.0661868
4.52792
10.1906
0.0219667
0.273854
0.0928193
0.451403
0.0225768
0.0222563
1.19322
3.84818
7.16676
1.66563
4.24881
0.0219614
0.260696
4.02399
0.0222351
0.0623582
0.108431
0.0216885
0.164119
4.78837
0.240271
0.0222554
5.26454
0.118427
27.3988
0.0215142
0.0237702
0.0221748
0.0232888
0.022141
0.0542708
0.040353
0.042455
0.331952
0.0339227
4.13467
0.0252916
0.0293177
0.0281307
9.09072
0.0580025
5.01054
0.0281664
0.0278086
19.2286
0.0966184
0.0220675
0.0428029
3.79595
5.29785
0.315151
0.0219871
0.0219197
0.0219465
0.959232
0.0231783
2.48649
1.32785
0.256332
0.0320511
0.265694
5.60953
0.0221421
7.30905
0.0336087
0.0508862
0.0219543
0.0219365
0.0537307
4.33739
0.022081
4.96827
0.511847
0.0984829
0.192675
0.021884
0.0220267
0.030105
0.0230244
25.6
25.0459
0.084448
0.803551
0.0219737
0.0221014
0.0221912
0.0222458
7.45905
0.0232961
4.51881
0.0869436
0.0226079
0.369947
2.63638
3.44333
8.64394
0.0236354
0.0217994
0.0221317
0.0236679
0.743304
0.243816
5.94676
0.0221559
0.0224894
0.16018
0.0222602
0.223677
0.0236832
0.150772
0.171327
0.0413665
0.039902
0.021733
0.0475086
0.0382738
0.209138
0.0806984
0.0424618
0.0218717
0.244551
0.0218965
3.00011
3.59428
0.928511
0.0220752
0.109277
0.0220273
0.049431
0.0230229
0.0227991
0.0281749
8.97383
3.94808
0.078715
0.0473918
0.229374
0.0781897
3.93843
4.24098
0.0309867
4.16761
0.353492
0.0218593
0.0564295
4.23736
0.0969913
0.0222361
0.0544109
2.25647
0.405491
8.19575
0.0221727
0.78538
0.0220981
0.0219374
0.0426825
0.43274
0.0222639
4.26709
5.1078
0.257133
11.0738
0.368469
4.75794
0.326583
0.0217305
0.0248446
0.0216618
0.0423227
0.299844
0.432622
0.0243712
0.0418217
0.0216515
4.35605
0.0387712
0.0479551
3.93726
0.0995619
6.76285
4.75213
0.0219779
6.78918
0.0221175
0.028286
0.0470945
3.74438
0.152949
0.0277982
0.0233657
0.577653
0.034572
4.14221
6.04046
0.0316692
3.30812
0.0458066
0.022273
1.16465
0.0630449
0.0230009
9.11113
15.3235
0.0301151
0.0260053
0.130354
5.96761
0.0219615
0.0222356
0.0216743
0.0217649
0.0223228
4.84169
0.031524
3.83869
0.021958
0.0219649
0.85878
0.0222264
0.0237349
0.0220604
0.0220337
1.71846
0.0217707
4.75456
0.0220368
0.0231639
0.0414761
0.0221698
0.144801
0.021783
0.0222651
0.0217986
0.0278494
0.0891585
0.0246603
3.5853
0.0219462
0.0436114
0.0299427
4.2205
0.0227446
0.0222688
0.0217345
0.0216938
0.396737
0.0219146
0.0219109
0.0247056
2.07827
0.021937
0.0427453
0.0326518
0.0220262
4.83147
6.65442
0.357496
4.91243
0.0250144
0.110084
0.0221494
0.0997865
0.344508
0.0223688
1.87484
0.130738
4.62773
0.0307545
0.0220336
1.58039
0.0434439
0.782157
5.00425
0.0216011
0.0219853
7.50111
3.2964
0.0593174
0.0563297
0.0230773
10.5814
5.73328
0.0215183
0.0219676
0.0221363
0.0221736
0.0222481
0.022036
0.0354789
4.1664
0.0310399
0.0221923
0.434364
0.0219889
0.809778
0.0460853
0.0221588
0.0276522
0.0219201
0.3648
0.0248949
0.0513151
0.0219652
0.0222808
4.49912
4.92394
0.0221772
0.0515907
0.0443255
0.0310242
0.0239086
0.0222713
0.022886
1.57066
0.551027
0.0410754
4.93371
0.0225723
24.3938
0.105808
0.025921
17.4908
0.0230708
4.10812
5.34469
3.45454
4.10045
4.05639
3.63528
0.021671
0.0273281
0.0247128
0.0216495
0.0217583
0.0294165
0.0748401
0.0217935
0.0293485
0.120871
0.0757772
0.338442
0.217103
0.033765
1.75065
9.50742
0.0338122
0.0248719
0.128379
8.7603
3.74353
0.0255306
0.0216398
0.021879
0.0217888
0.0320112
3.77286
0.366732
0.0217748
4.62908
0.0219823
0.138546
4.06062
0.0825574
0.192936
0.0900991
0.328932
0.0228316
0.0331299
0.021871
0.236089
0.0219713
0.0230105
0.0334429
0.153488
0.0221769
0.0244194
5.61661
0.0218225
0.0220604
0.0290066
5.70181
0.11776
0.495561
0.0384886
0.0221498
3.40275
0.0372068
0.0233418
0.0220195
0.0307419
0.0266427
0.02203
0.0283125
4.38749
0.02358
0.0216619
0.0467563
0.0218877
0.0315994
0.0300424
0.0220696
0.0219982
4.69843
0.0217218
0.0220341
0.0216614
0.0257455
0.0214853
4.89727
0.0259303
0.215537
0.0219621
0.0219228
0.0221183
4.31858
0.0653204
0.022039
0.0216321
5.57145
0.0250724
0.066889
0.0218635
0.152751
0.0233853
0.0215623
3.73335
0.0217943
0.0222604
0.0221475
0.0220255
0.0241282
0.0221271
0.0220374
1.61766
1.5324
4.65429
0.533282
8.26987
0.021867
4.65042
0.0219684
3.97486
7.85553
0.0218015
10.2284
0.0219803
4.20477
11.5583
0.26785
4.07855
3.8914
0.805952
2.75299
6.07268
5.20162
0.0432835
0.0428897
4.53856
0.023493
0.0216673
1.47546
0.0239178
0.0281694
11.8147
0.0229893
1.2946
3.60659
6.44757
0.383845
0.116306
0.0222518
0.0281885
0.0479601
0.0222872
6.92524
0.355484
0.108278
0.0219191
0.0220697
8.1141
0.0217014
0.715529
0.0218607
8.99241
4.47605
0.034336
0.0261278
0.022006
10.1344
4.0092
0.0254128
0.0337419
0.0222857
0.0222855
0.057899
0.0231659
0.0319244
0.0663803
0.0242537
0.033164
0.0220406
0.0320292
15.2637
0.0225913
10.6991
0.0219737
3.6939
0.0545287
0.0220405
9.94992
0.124354
0.0218586
0.153726
0.0220371
0.302204
0.0222019
0.0220111
3.85788
0.0221467
0.107515
0.0234128
0.13699
0.0218569
0.0223421
0.0218639
0.0300049
0.0242273
0.0223003
0.0226052
0.02524
0.022455
0.122381
0.0640801
0.0302601
0.0233311
0.0216552
2.35136
8.31782
0.0227761
0.0225369
0.0226532
0.0377766
0.0222355
0.0351322
0.021574
0.0222853
0.230729
0.023333
0.0222847
0.021908
4.84074
10.9747
0.0216
0.0711504
0.0583913
0.239279
0.199619
6.80607
4.36469
0.647625
0.0229956
0.135776
0.021929
0.0313064
7.08894
4.45949
0.133884
0.0239051
15.4668
0.0220436
0.0466681
0.407766
0.0222331
0.134317
0.0234621
0.0232604
0.0753051
0.146638
3.8979
3.43861
0.0218325
0.0216072
4.81653
3.7477
0.0222445
0.0290678
0.120421
0.022055
0.0220168
0.0240996
2.8218
0.0217789
4.19794
0.0294611
0.022243
0.450507
0.0739439
0.0689033
0.11646
4.77919
0.0243976
0.0349493
0.0275652
0.0237551
9.52521
0.0319752
4.21766
4.13567
0.0663292
4.00554
0.0462759
0.0477663
0.341879
0.0217318
4.32685
0.0904407
0.0336342
0.0290646
0.0221779
0.0216755
4.04159
0.0432137
4.1428
4.34033
0.0221167
4.18791
0.0218403
0.0219605
0.0286888
11.2145
0.0738813
0.0217152
4.05047
0.0219941
0.0238064
3.82268
0.0236787
3.51411
0.0222727
4.43264
3.83157
0.0685807
2.57531
0.0233769
3.48208
0.0216455
5.37426
4.80624
4.44207
5.05372
0.0219464
0.0218414
0.239643
3.64277
3.44563
3.87442
3.79953
0.0221562
4.90721
3.47877
0.0224207
4.93253
0.0314056
0.0331328
12.0894
0.0381084
4.20666
0.0219354
0.0377917
0.0348506
0.207568
6.22578
0.0367945
3.60074
4.33094
0.0221721
0.0246062
0.0237986
0.0249211
3.45469
0.0220153
0.0217669
0.0392843
3.62909
3.80375
0.0282624
3.91613
4.00912
0.0219676
8.38882
4.65634
0.17644
4.03577
0.0669262
0.0243785
0.0221728
0.156819
0.0264606
0.081757
9.81888
4.57483
0.0290002
0.0723645
0.0257168
0.0394871
0.0216551
0.04233
0.0246751
0.0918055
4.52593
7.08129
3.83598
0.0216835
0.130769
0.0627284
4.20533
0.0232041
4.67344
4.60869
4.2597
0.0222225
0.171796
4.55618
10.7109
7.30128
0.0364856
5.53002
3.78002
0.0623572
0.0676334
0.0241622
0.0292329
4.7491
0.0452469
0.0221863
3.35751
0.0220636
0.0223322
0.121748
0.121391
0.0218503
0.0899117
0.0247022
3.75408
10.7359
0.0238576