/*--------------------------------*- C++ -*----------------------------------*\
| =========                 |                                                 |
| \\      /  F ield         | OpenFOAM: The Open Source CFD Toolbox           |
|  \\    /   O peration     | Version:  v2012                                 |
|   \\  /    A nd           | Website:  www.openfoam.com                      |
|    \\/     M anipulation  |                                                 |
\*---------------------------------------------------------------------------*/
FoamFile
{
    version     2.0;
    format      ascii;
    class       volScalarField;
    location    "150";
    object      p;
}
// * * * * * * * * * * * * * * * * * * * * * * * * * * * * * * * * * * * * * //

dimensions      [0 2 -2 0 0 0 0];


internalField   nonuniform List<scalar> 
13917
(
-0.0808988
-0.000826829
-0.102196
-0.0375247
0.027626
0.457694
-0.0999528
-0.107803
-0.178863
-0.132381
-0.103006
-0.07819
-0.0380611
-0.112583
0.0486174
0.0259469
0.00568713
-0.123739
-0.077109
0.010714
0.0205004
-0.095808
0.0156273
-0.112911
0.0270771
-0.0947192
0.217258
0.231189
0.100666
-0.189263
-0.0957977
-0.0408722
0.172052
0.109328
0.0317868
-0.100557
0.015654
-0.114672
-0.0443843
-0.0809463
0.000517566
0.0191392
-0.0103119
0.25843
-0.0212888
0.126293
-0.12115
-0.124406
0.510731
0.00550095
-0.0663892
0.0581351
0.513644
0.113505
0.00709975
-0.0660522
-0.103679
0.0262526
-0.0516367
-0.0200318
-0.374077
-0.00236882
-0.111499
0.0108501
0.449009
-0.370735
0.0286174
0.0358809
-0.136527
-0.0470545
0.0272044
-0.177615
-0.208814
0.0263535
0.497756
-0.0723042
-0.166999
-0.0352261
-0.0915634
0.020265
0.0172426
0.028083
0.435081
-0.115276
-0.38971
-0.0343133
0.0151738
-0.327674
-0.0646844
-0.0106405
-0.17053
-0.1708
-0.00655286
0.0490479
-0.357909
0.450115
-0.114762
-0.125074
-0.0830308
0.33157
-0.00103616
0.167042
0.266774
-0.0427756
-0.00366168
-0.190147
0.0702852
-0.126959
0.00385839
-0.0972821
-0.326696
-0.0817345
-0.0819866
-0.186369
0.0745569
0.511769
0.0178939
0.500254
-0.0957019
0.112496
0.0192255
-0.137408
-0.0992379
0.224872
0.00391847
0.0475669
-0.0164772
0.00415459
-0.0083337
0.45792
-0.100616
0.0722441
-0.0214648
0.0207966
-0.265051
-0.11042
-0.0782018
0.34599
0.0289271
0.111592
-0.101896
-0.0107772
0.0610821
0.292922
0.0364778
-0.171675
0.0426936
0.0563467
-0.010237
-0.0359068
-0.0996422
0.50664
-0.0975505
-0.014152
-0.0572306
-0.395303
-0.0422899
-0.118852
-0.167357
-0.274428
0.0820871
0.215784
0.0179112
-0.113205
-0.082205
-0.083266
-0.0418225
-0.111115
-0.015701
0.172402
-0.0342353
-0.35076
-0.0804738
0.00869598
-0.146231
-0.0067723
-0.0984237
0.507432
-0.165696
0.00555059
-0.176724
-0.101385
-0.0113637
0.0154248
0.0810878
-0.0974117
-0.270342
-0.391864
-0.0984096
-0.0883971
-0.110119
-0.389568
-0.266078
0.0194162
0.363134
0.209212
-0.00322083
-0.00650863
0.0518984
-0.32859
-0.0577265
0.00578232
-0.104546
-0.0980322
-0.207117
-0.214359
0.0314744
0.0271298
-0.122317
-0.0979592
0.0590178
-0.100096
-0.208097
-0.0888234
-0.00326509
0.320028
-0.114522
-0.309317
0.0155241
-0.366551
0.00570411
-0.178768
0.000956964
-0.121806
-0.197676
0.0252603
-0.279634
-0.0603355
-0.00268766
-0.100474
-0.0791687
-0.0969184
-0.102481
-0.210258
-0.00275666
-0.044144
-0.171711
-0.395661
0.0183604
0.00614836
-0.078036
-0.119307
0.00880979
-0.0965192
-0.161507
0.208216
-0.0770967
0.0175889
0.0273785
-0.191818
-0.0252623
-0.197892
0.347607
-0.016434
0.0268816
-0.0919803
-0.0805407
-0.0966441
0.0798438
0.0451172
0.00909249
-0.098455
-0.280158
-0.0918837
-0.00215866
-0.246845
-0.117129
-0.120651
-0.0877297
-0.0732649
0.0176493
0.00283661
-0.1204
-0.135889
-0.14756
-0.0500469
-0.217916
-0.0616827
-0.00829432
-0.324898
0.00958078
-0.143543
-0.0559465
0.00875884
0.0197659
-0.00897049
0.216141
-0.0974325
0.018941
-0.0271621
-0.258216
-0.100584
-0.274442
0.0158058
-0.126029
0.0257707
-0.0272374
0.0175001
0.0098029
0.0073641
-0.184326
-0.0724404
-0.0155152
-0.104713
-0.0172759
0.517085
-0.00519083
-0.164335
-0.0154133
0.026083
-0.332288
-0.101799
0.0175743
0.00199211
-0.331146
0.00157943
-0.206017
-0.0146611
-0.123227
-0.0303699
-0.247389
-0.0829416
0.479334
0.0784507
-0.268606
0.352637
0.017478
-0.121129
-0.0602316
0.0262696
-0.103688
0.358941
-0.117862
0.0992681
-0.0885656
-0.0504091
-0.365935
0.348232
0.043358
0.0314567
-0.101621
0.0214659
-0.0405221
-0.328188
0.0404273
0.0198415
-0.113423
0.0467165
0.00365087
-0.110219
0.135623
0.000686407
-0.0948166
-0.103897
0.00968116
0.00404187
0.0256086
-0.0106359
-0.252003
-0.158258
0.406173
-0.334564
0.0227723
-0.20511
-0.390326
-0.094326
-0.0987185
-0.137654
-0.194019
-0.00320897
-0.0918902
0.00245421
-0.366168
-0.0190922
0.469704
-0.164846
-0.0467846
0.021856
-0.119708
-0.18348
-0.141054
-0.0789428
-0.363881
-0.310217
0.0218168
-0.124892
0.00630101
-0.396624
-0.0971024
0.0218631
-0.263109
0.0265633
-0.211494
-0.0304401
0.0214262
-0.012452
-0.0839893
-0.010646
-0.0818967
-0.380235
-0.097614
0.387003
0.0243972
0.336247
0.369569
0.0138455
0.0764269
0.0389468
0.0279103
-0.188021
0.00917356
0.0285941
0.0021208
-0.24725
0.0202343
-0.0893503
-0.0863943
-0.382612
-0.261758
-0.0872355
-0.287547
-0.0923604
0.0222688
-0.20133
-0.0441377
-0.0493655
0.0194631
-0.159432
-0.0989608
-0.0893136
0.0372596
-0.165392
0.0959811
-0.0454782
-0.138794
0.00188514
-0.0926943
0.00270156
0.007441
-0.207452
-0.0987876
-0.0981368
-0.186963
-0.383105
-0.103715
-0.288247
-0.144912
-0.00759974
-0.12189
-1.08435e-05
0.0297595
-0.218407
-0.122523
-0.00981605
-0.143872
-0.0932138
-0.137442
0.0137434
-0.128521
-0.381379
-0.279225
-0.0914279
0.0205742
0.023109
-0.00353632
-0.0368988
-0.00327283
-0.0947926
0.414176
0.0169446
-0.39606
-0.0652786
-0.111649
-0.289627
0.0339799
-0.0964981
-0.102585
-0.127939
-0.142615
-0.186488
-0.077729
-0.0932849
0.44785
-0.074216
-0.125692
-0.00577095
-0.248606
-0.0695736
-0.016841
-0.0322307
-0.0375147
-0.140569
-0.190332
0.00204394
-0.00816102
-0.0981498
-0.288458
0.0089881
-0.0906401
-0.0393128
-0.244916
0.00319347
-0.227177
-0.153356
-0.0387975
-0.0179223
-0.087138
-0.259792
-0.397589
0.00930183
-0.201485
0.513484
-0.333893
-0.0169179
-0.392149
-0.274181
-0.0924611
0.00342328
0.0121333
-0.0699487
-0.213031
-0.00995153
0.00426445
0.00424765
0.00397758
-0.244839
-0.221833
-0.0918942
-0.267277
0.00262318
-0.000669962
-0.161266
-0.234546
-0.0879521
-0.0166692
0.0274317
0.0316518
-0.32928
-0.387992
0.0136528
0.0314783
-0.092506
-0.0781901
-0.082021
0.024259
-0.0080536
-0.0242598
-0.123246
-0.04182
-0.274215
-0.202791
-0.145773
-0.210259
-0.162894
0.0169385
-0.194868
0.0313147
0.0190866
-0.0484593
-0.244632
-0.0052595
-0.000670543
-0.276864
-0.199397
-0.375984
-0.147736
0.122862
-0.0956006
0.0221182
-0.275907
-0.260192
-0.106806
0.00310278
-0.0767525
-0.27202
-0.139194
-0.246769
-0.127686
-0.195668
0.0299181
-0.0361538
0.02548
0.105033
0.285472
0.0499649
-0.111926
0.350408
-0.106623
-0.397991
-0.0106176
-0.110212
-0.152417
0.0147953
0.0553657
0.359865
-0.217282
-0.152193
-0.260981
-0.00819649
-0.0955203
-0.0707385
-0.000682907
-0.075345
-0.108799
0.16411
-0.184836
-0.0908143
-0.18266
-0.0736119
-0.271874
-0.0393531
-0.146277
0.018724
0.0138348
-0.124432
-0.213544
0.425925
-0.0399214
0.00712529
0.0310279
-0.0630608
0.507014
-0.0822334
-0.038438
-0.0961747
-0.11715
0.00366917
-0.264505
-0.0808927
-0.0878155
0.0133951
-0.176934
-0.0367132
-0.379853
-0.138153
-0.0135559
-0.0778559
0.0015547
-0.0150529
-0.0175551
0.00132264
0.127685
-0.256235
0.106337
-0.11132
0.00111837
-0.188307
0.420225
-0.103704
-0.0246747
0.118819
0.00485762
-0.0582406
-0.0539516
-0.275624
0.0206833
-0.310349
-0.0593539
-0.101582
-0.169381
-0.218728
-0.0357558
0.0125062
-0.144078
-0.248392
0.0141559
-0.0474415
-0.16673
-0.254364
-0.144484
0.00883377
-0.0191745
-0.230591
-0.0474384
-0.141161
-0.0911778
-0.0155812
-0.0960105
-0.105543
-0.0242322
-0.0355334
0.00485394
-0.10034
0.0211999
0.0372902
-0.354364
0.0286365
-0.211498
-0.055992
0.176136
0.00456429
-0.0179805
0.0178659
-0.140974
0.00172336
-0.0913551
-0.0390007
-0.374765
0.205358
-0.237824
-0.00269578
0.0218292
-0.156268
-0.112288
-0.11021
-0.208847
-0.125528
0.030224
-0.241419
0.443352
-0.0875323
-0.251444
-0.115518
-0.0902113
-0.0715593
-0.0609864
-0.198467
0.07289
-0.123594
0.439886
-0.124239
-0.0408089
-0.110353
0.0132645
-0.0193565
-0.057965
-0.0986754
-0.0314944
0.0200622
0.00229031
-0.114374
-0.0444371
-0.144189
0.0294849
0.0275409
0.0214587
-0.00322233
-0.0123221
-0.0290269
0.00544038
-0.22852
-0.0753365
0.369363
-0.00210996
0.0151695
0.193327
-0.146521
0.0694376
-0.327562
-0.133987
-0.359723
-0.0594368
-0.172908
-0.0336895
0.0185282
0.00363175
-0.0154956
-0.374302
0.0148556
-0.210076
-0.0299045
-0.391636
0.0339586
-0.141383
-0.100649
-0.00955028
0.00889503
-0.076674
0.0358796
0.0373384
-0.315669
0.00772795
0.0255508
-0.0665564
0.00519364
-0.00717607
-0.0380783
0.13132
-0.109577
-0.0645003
-0.0242183
0.000114772
-0.139925
0.0109556
0.0191917
0.00204226
-0.319747
-0.15937
-0.32948
0.116585
-0.0417176
-0.00235447
-0.0073442
-0.0757861
-0.0692106
-0.114847
0.102678
-0.10501
-0.00886124
0.0573631
-0.331751
0.0269295
-0.0707179
0.0150474
0.00703143
-0.091375
0.22359
-0.0306621
-0.201766
-0.083346
-0.173365
0.0166205
-0.0134356
-0.0862701
-0.215742
0.00940893
-0.198191
-0.0130882
-0.094312
-0.0198784
-0.0200907
-0.218933
-0.0235183
-0.0839275
-0.0983484
0.0220371
-0.00979235
0.0424749
0.00698549
-0.0351232
0.255226
-0.0232795
-0.0166544
-0.14725
-0.167163
-0.0750987
-0.106417
-0.133199
-0.0576564
-0.0104168
0.129314
-0.203228
-0.101875
0.0240095
-0.0167126
-0.2032
-0.0955062
-0.337914
0.0218112
0.0716485
-0.101799
-0.0877129
-0.0327605
-0.386474
0.474916
0.00644226
-0.193694
0.00334993
-0.0225577
-0.00230471
-0.244219
-0.0120661
-0.0233573
-0.0110115
-0.083214
-0.0437486
-0.249462
0.271365
-0.0206505
0.167011
0.0130167
-0.336797
0.00786723
-0.023821
0.0253802
-0.0871724
0.0255764
-0.180952
-0.0806561
-0.103464
0.114877
-0.10536
-0.357584
0.0246871
-0.0955878
-0.383188
-0.356207
-0.0879553
-0.145847
-0.38509
-0.184904
0.0103835
-0.0911619
-0.0869958
-0.0987497
-0.016334
-0.00751007
0.017706
0.0132345
-0.0627613
0.124036
-0.102786
-0.00760091
0.0300988
-0.395524
-0.0427023
0.0422921
0.191699
-0.0743622
-0.0273758
0.143626
0.196462
0.0702748
-0.0441822
-0.0824952
-0.334561
0.498604
-0.0195756
-0.256507
-0.194767
-0.383197
-0.201504
-0.0771814
0.0020413
-0.0345775
-0.00743034
-0.00996024
-0.00611905
-0.00755817
-0.0261696
-0.0674755
-0.39529
-0.1319
-0.0237747
-0.168831
-0.281236
-0.0871375
0.0510241
-0.153838
-0.0144779
0.0363664
0.188189
-0.396414
0.0257065
0.0141122
-0.10031
-0.105984
-0.145403
-0.146916
-0.101595
0.00891496
-0.197897
0.0518867
0.0113229
0.054147
-0.094204
-0.329053
-0.017814
-0.0101478
0.0152486
-0.162587
-0.002249
-0.0782274
0.0349919
0.00439271
-0.197619
-0.0212111
-0.14433
-0.152722
-0.097161
-0.0153089
-0.074594
-0.0106433
-0.224985
-0.277346
0.0277332
-0.329753
-0.136009
0.478854
0.0257437
-0.0845978
0.0244365
-0.0642837
-0.0805838
-0.148331
-0.098546
-0.087728
-0.0831076
-0.227265
0.000856992
-0.181194
-0.0201544
0.0104749
-0.103061
0.0292036
0.0244015
-0.0173801
-0.0254891
-0.39395
-0.00865349
0.0159881
-0.0977249
-0.114675
-0.107031
0.445735
-0.0791081
-0.380887
-0.0679557
-0.0933323
-0.0595911
-0.146286
-0.0767208
-0.378524
-0.091622
-0.0562746
-0.0215021
-0.0828196
-0.0879116
0.0557568
-0.169847
-0.0904
-0.0317936
-0.0641416
-0.026511
-0.0827975
0.00972144
-0.11311
0.307033
0.00302071
-0.143135
-0.0183246
0.0323287
0.00153158
0.114894
-0.124501
-0.0457269
-0.0282279
-0.0176823
0.29925
-0.153007
-0.201588
0.0285179
-0.00571969
-0.114001
0.0161025
-0.177846
-0.15507
-0.0316658
-0.162418
-0.0179061
-0.357506
0.053961
-0.0717749
-0.114461
-0.174542
0.0105509
0.0132668
-0.0799128
0.010991
0.00587037
-0.382017
-0.245874
0.0923772
-0.0806519
0.0103231
-0.0281143
-0.0961662
-0.0170638
-0.00925689
-0.143684
-0.0194519
-0.129689
0.0172202
-0.00874492
0.021082
-0.0803005
-0.0917771
0.0387502
0.0293969
0.0092079
0.0413173
0.00689986
0.428377
-0.139344
0.00955517
-0.154552
0.0252998
-0.18543
-0.10383
0.402008
-0.0172836
0.0489148
0.016801
0.0843778
0.0533947
-0.09281
-0.347006
0.0759129
-0.102067
0.493172
-0.111272
-0.0801811
-0.0292006
0.433411
-0.0982147
0.0242281
-0.313544
-0.114843
-0.0826117
0.0338116
-0.141574
0.225301
-0.0164537
-0.0439012
-0.381161
-0.0196271
0.00136629
-0.0261757
-0.182734
-0.0725997
-0.12676
0.000557874
-0.227347
-0.0643263
-0.0833903
-0.180183
-0.260198
-0.0717066
-0.0171367
0.00482096
-0.102634
0.0152735
0.073311
-0.00546374
-0.0102419
-0.0102734
0.0853349
-0.0923142
0.455225
0.132044
0.263438
-0.0883477
-0.0561384
-0.012778
-0.156958
-0.0930069
-0.00995725
0.00526901
-0.0799181
-0.375031
0.0242784
-0.146819
-0.139914
-0.0715026
0.0392523
-0.0399043
-0.0208361
-0.172192
-0.0129391
0.00515752
-0.374045
-0.0905206
0.0233999
-0.202003
-0.0822104
-0.344108
0.0261774
-0.0594203
-0.096175
-0.191138
-0.0784417
0.254904
-0.0466692
0.0182785
-0.0244207
-0.0030199
0.0338152
0.0626682
-0.038907
0.0119767
-0.104302
0.00546701
-0.068968
-0.0194078
-0.142137
-0.0949549
-0.301121
0.024051
-0.263778
-0.0241764
-0.0988964
0.0270005
0.108211
0.0237898
-0.11638
-0.220803
-0.0837616
0.0112326
-0.134264
0.00930334
-0.0514729
-0.220409
-0.0210022
0.0551261
-0.110544
-0.0752668
-0.100973
0.0126538
0.0364964
-0.0364693
0.0196619
0.129363
0.00882146
-0.00376276
0.069846
-0.190023
-0.0338079
-0.114324
-0.154972
-0.126056
-0.0918364
-0.0314525
-0.00356646
0.0426278
-0.256114
-0.0397138
-0.0138213
-0.0868317
-0.312067
0.00510328
-0.381474
-0.146079
-0.144766
-0.0100804
-0.0092234
-0.0822641
0.0540685
0.022515
0.173805
-0.0157157
0.0835256
-0.0569666
-0.0934441
0.435622
-0.0991872
-0.0446025
-0.101194
-0.085838
-0.0779671
-0.0754947
0.184018
-0.381577
-0.102252
-0.384617
0.0876583
-0.3557
-0.381499
-0.0172762
0.0100007
0.007369
-0.0355819
-0.107234
-0.0199233
0.0886083
-0.075232
-0.0396595
0.0801315
-0.173716
0.129209
-0.0512359
-0.172267
-0.0320801
-0.0914686
-0.0481025
0.114614
0.00380204
-0.234432
-0.344798
0.00828905
-0.0372394
-0.0839757
0.126635
-0.396125
0.00633315
-0.0201476
-0.106448
-0.037932
0.159988
-0.381705
0.0306138
-0.132741
-0.0532825
-0.00959078
0.00156176
-0.0899919
-0.360934
-0.0140555
-0.0461633
0.0286762
-0.0285309
0.185645
-0.148805
0.0493514
0.421481
-0.123436
-0.085527
-0.191858
-0.0370323
-0.0784887
0.0993083
0.120853
0.0268429
-0.0908387
-0.152214
0.0668639
0.184549
-0.108819
0.434793
0.422348
0.105887
0.027785
0.0244018
0.0314533
-0.345788
-0.111978
-0.0482775
-0.0383145
-0.0475644
0.017407
0.015872
0.0353919
-0.101349
-0.0631027
-0.149881
0.136664
-0.381976
-0.0823907
0.0365367
-0.113669
-0.00144366
0.0113871
-0.231464
0.000588819
-0.00337434
-0.107133
-0.143199
0.258879
-0.0847212
-0.106018
-0.0136779
-0.116845
-0.0101474
-0.0280585
0.0752969
0.0225906
-0.0249967
-0.141928
-0.262409
-0.0195597
-0.0937204
-0.00433051
-0.0174297
-0.00369189
0.443592
-0.0452347
-0.0472753
-0.389189
-0.0190942
-0.116272
-0.0878196
0.00895041
0.131477
0.00605542
-0.079691
-0.147851
0.0364966
-0.0924826
-0.119002
0.246485
0.0176819
-0.340074
0.0957981
0.402893
-0.0358151
0.157186
-0.258749
-0.0169497
0.328274
0.0375351
-0.145811
0.213397
0.00880579
-0.394757
0.0284189
-0.140489
-0.13708
0.341345
0.0286453
0.0769047
0.0482491
-0.108622
0.0655087
-0.0895781
0.0875944
-0.0918757
-0.0131799
-0.102428
0.0371118
-0.0686574
-0.101023
0.00518481
-0.00457666
0.491294
-0.0371559
-0.0825403
-0.0282623
-0.0954662
-0.0850894
-0.0615452
0.0147502
0.00890672
0.0276124
-0.00788167
-0.172968
0.0519018
0.199925
-0.0310951
0.00923276
-0.223586
-0.0469628
-0.0566085
-0.0857567
0.035582
-0.379288
-0.109413
-0.0563996
0.499262
-0.158428
-0.265685
-0.0987692
-0.338329
0.00425779
-0.153984
-0.378576
0.441396
0.0123859
0.0525729
-0.103862
-0.093782
-0.0899701
-0.289861
-0.028615
0.122343
-0.103918
-0.0895428
-0.381731
-0.0885012
-0.121309
-0.00127412
-0.148148
-0.0764546
0.0125881
-0.186997
-0.319961
0.0263459
-0.130273
0.0134908
-0.0220219
-0.124479
-0.153226
0.000540103
-0.0294728
-0.021384
-0.0191161
-0.0351438
-0.147261
-0.039827
0.00951941
0.0111627
-0.0749719
-0.0533704
-0.0483063
-0.258516
0.0326925
-0.175871
-0.391032
-0.123876
0.116251
-0.130117
-0.140432
-0.0883494
-0.0943617
-0.116697
-0.347914
0.00649708
-0.329828
-0.0888923
-0.00305762
0.0189018
-0.18991
-0.355243
-0.358807
-0.0209935
0.0116056
-0.0970663
-0.326536
-0.344431
-0.0271055
0.0881769
0.501269
0.0301388
-0.102649
-0.394743
-0.104923
-0.327843
0.0397875
0.0097655
0.00180652
0.108135
-0.103454
-0.0852648
-0.0555219
0.067452
-0.0858729
-0.35993
-0.0739506
-0.19846
-0.395221
-0.0942179
0.45819
0.0279617
0.0117831
-0.0961421
-0.00842845
-0.0162519
0.0265463
0.519299
-0.0979432
-0.393071
-0.200761
0.0223421
-0.21165
-0.0964777
-0.00941322
-0.398002
0.228111
0.104227
-0.0287144
-0.381677
-0.320831
0.0251225
-0.300364
-0.118717
-0.385926
-0.33012
-0.149353
0.00856021
-0.0297621
-0.26555
-0.0552942
-0.0990323
-0.103035
-0.337418
-0.14607
0.0661017
0.0765005
0.00459433
0.0534686
-0.370441
-0.0914219
0.0314031
-0.397374
-0.0904997
0.0129501
0.0736331
0.00881447
-0.171264
-0.0200739
0.506373
0.0999196
0.00674091
0.00106081
0.329685
-0.151561
-0.102455
-0.0044461
-0.105692
0.0368241
-0.0379605
-0.0671624
-0.347778
-0.0921279
-0.340514
-0.00574349
0.00110972
0.0103389
-0.0803831
0.00258736
0.0085147
-0.140504
-0.108781
-0.116233
-0.016722
-0.299783
-0.0912399
0.00894924
-0.366807
-0.125498
-0.0763212
0.481848
0.00893136
-0.396634
0.0889024
0.0515489
0.0824055
-0.00830428
-0.09581
-0.00223472
-0.0353246
0.15502
-0.0828831
-0.0925644
0.013777
0.00529956
-0.0321939
-0.0142163
-0.183596
0.0573773
-0.168572
-0.0466039
-0.149555
-0.0367514
-0.105596
-0.00619377
-0.246911
-0.025834
-0.00899187
-0.388705
0.330475
0.352597
-0.103207
0.16618
-0.101209
0.0345386
-0.309572
0.0318252
0.0031933
0.328627
-0.0730803
-0.393937
-0.375775
-0.173521
-0.271521
-0.20004
-0.293016
-0.00977252
-0.0554247
-0.0691524
-0.20452
0.102007
-0.267836
-0.0975431
-0.0301886
0.0428515
0.0166278
-0.272354
0.452091
-0.0446002
0.0188918
0.0274335
-0.0519224
-0.100165
-0.271001
-0.124683
0.00865363
0.388596
-0.175056
-0.211564
-0.146554
-0.00215655
-0.0405195
-0.209671
0.00179291
-0.173819
-0.100808
0.0331244
-0.0300877
-0.145197
0.339488
0.0534278
-0.104074
-0.0463634
-0.178105
-0.0641385
0.058747
-0.0389581
-0.326484
0.00108176
0.0736757
0.503897
-0.36742
-0.124331
-0.149541
-0.0567242
0.11388
0.0239972
-0.370634
-0.0640659
-0.0248867
-0.079078
0.0100703
0.00985277
0.518634
0.0264833
0.00820701
0.0193074
-0.117753
0.0546376
-0.0482951
-0.102803
-0.250306
-0.194143
0.0243848
-0.0177627
0.22928
-0.24809
-0.173983
0.125915
-0.165363
-0.104689
-0.286249
0.00987062
-0.309708
-0.0937312
0.00956892
-0.0440583
-0.00809847
0.432829
-0.194052
-0.0277622
0.494289
-0.242712
-0.00151575
0.0528249
-0.083885
-0.0975715
-0.0744612
-0.00899989
-0.359591
-0.0823921
0.45187
0.0186172
-0.198141
-0.074651
0.144336
-0.360583
-0.0631116
-0.00780204
-0.0775628
-0.239886
-0.0855933
-0.0903957
-0.293365
-0.00530414
-0.232421
0.018008
-0.378039
-0.00651529
0.247577
0.0571196
0.00761381
-0.122134
-0.173625
-0.167996
-0.126431
0.0411823
-0.124629
-0.000194106
-0.341603
-0.092109
0.0345617
-0.0153082
0.160994
-0.0222413
-0.111646
-0.110569
-0.305644
-0.126781
-0.027303
-0.029399
-0.138589
0.0733009
-0.118477
-0.00635312
0.0243663
-0.289815
-0.180634
-0.143004
0.350383
0.0112217
-0.20597
-0.00174923
0.102144
-0.369184
-0.386732
0.0258404
0.0194878
-0.0704794
0.10173
0.050907
-0.123135
-0.226065
-0.0143927
-0.00990138
0.0248959
0.00809481
0.303957
-0.0181561
-0.0843126
-0.170107
-0.0709093
-0.0102646
-0.0735595
-0.30065
-0.0888381
-0.00271368
-0.393761
0.0308265
-0.214252
0.162255
0.182899
0.0110645
-0.291385
-0.37722
-0.0767608
0.00557263
-0.137902
-0.0180972
0.104164
0.0481286
-0.0868056
0.0713474
-0.330069
-0.0942613
-0.119938
0.0267752
-0.260437
-0.0671361
0.0101993
0.42806
-0.00863521
-0.0587578
-0.0926872
0.046354
-0.361971
0.0145383
0.437337
0.0486502
0.00836265
-0.388064
-0.103015
0.083926
0.167167
-0.0770325
-0.122029
-0.0889946
-0.0582707
0.0377698
-0.0576036
-0.103002
0.0861518
-0.0892739
0.0444783
-0.101638
-0.0771391
-0.0374581
-0.124187
-0.00815247
-0.102292
0.0916224
-0.33177
-0.334062
-0.348475
-0.312083
-0.213994
0.0962094
-0.0269998
-0.109651
0.102476
0.0360882
-0.33808
-0.150951
0.0663058
-0.047347
-0.0626833
-0.0655969
-0.0820206
-0.209956
0.0088309
-0.0577789
-0.076369
0.049085
0.0119876
-0.0918776
-0.0121704
-0.0919602
0.0599011
-0.204144
-0.0790855
-0.104051
-0.183128
-0.167858
-0.178653
-0.00308757
-0.110846
-0.103909
-0.393016
-0.0338588
-0.092934
-0.0754268
0.488324
0.0317866
0.0406398
-0.113191
-0.0739561
-0.388386
-0.312619
0.160005
-0.230358
0.00401083
-0.0126599
-0.288147
0.281762
0.0338078
-0.152254
-0.0461691
0.0939809
0.0571763
-0.155626
-0.0141235
-0.165419
-0.115475
-0.394288
-0.1714
-0.0551271
-0.125459
-0.383006
0.0340017
0.0371249
-0.150525
-0.00683497
0.22515
-0.393657
-0.0928177
-0.104847
-0.0952487
-0.034909
-0.176764
-0.00981252
-0.10409
0.0195255
-0.380535
-0.00853709
0.0434646
-0.0996807
-0.177821
0.00780587
0.0425765
-0.38034
0.0439543
-0.132965
-0.0105538
-0.347692
-0.285189
-0.120159
0.314664
0.00531988
-0.0832564
-0.0993666
-0.104153
-0.00993794
-0.0348446
0.0079346
-0.093337
0.0263169
-0.093111
0.0474873
-0.0140378
-0.329143
-0.0119601
-0.0480117
-0.0546641
0.0169544
-0.100293
-0.00853621
-0.0269647
-0.138132
-0.071553
-0.0854047
0.0411042
-0.333198
-0.0724618
-0.152528
-0.000448323
-0.108079
-0.0296315
-0.103256
-0.0995808
-0.0943579
-0.244265
-0.211279
-0.238911
-0.28776
0.117543
-0.102392
0.0440184
-0.293441
0.0831067
-0.0286893
0.0352919
-0.0946983
-0.0026697
-0.186098
-0.114349
-0.101405
-0.26139
0.336776
0.0140368
-0.18255
0.195232
0.0580776
0.0768126
0.0363799
-0.11177
0.035975
-0.0930081
-0.0111002
-0.065926
-0.312517
-0.0283286
0.0277984
0.0341684
-0.19763
-0.00578485
0.0371356
-0.0581513
-0.0224953
-0.0583511
0.0114661
-0.084212
0.32846
0.120968
-0.263446
-0.376453
-0.0997259
-0.247724
-0.00538331
0.0239327
0.0626775
-0.0349481
0.151097
-0.0920395
-0.106257
-0.00885534
0.0338541
-0.0868782
-0.145786
-0.00882132
-0.00358643
0.112331
-0.392718
-0.0918179
-0.0526234
-0.0531694
0.0211545
-0.265618
-0.0986196
0.333614
0.161165
0.0396241
0.0583208
-0.096221
-0.222158
0.0650952
-0.0240733
-0.0463864
-0.101069
0.0655211
-0.366587
0.0160781
-0.113977
-0.00681358
0.130534
-0.0028654
0.0072291
-0.251111
-0.313507
0.271846
-0.0803125
-0.393951
0.044056
-0.155918
-0.0808046
-0.00507921
-0.131111
-0.107328
-0.125092
0.0240695
-0.0923951
-0.381271
-0.0253301
0.0247731
-0.0930045
-0.0704085
0.0206211
-0.0132735
-0.0247853
-0.0497384
-0.169925
-0.190492
0.317518
-0.167258
-0.00654525
0.0270662
-0.101242
-0.00777443
-0.0920093
0.119454
-0.0267918
-0.126691
0.0206585
0.0369865
-0.234808
0.00967429
-0.314093
0.0237353
-0.325624
-0.0978842
-0.168187
0.0178139
0.0104194
-0.212623
-0.00859927
-0.0295167
0.0566118
-0.217458
-0.299121
-0.0904836
-0.101232
0.0685996
-0.141891
0.0653754
-0.108357
-0.0207567
0.0223785
-0.397409
-0.107303
-0.316345
-0.0226613
-0.12101
-0.114483
-0.395141
-0.156593
-0.218013
-0.0955462
-0.00964532
-0.224662
-0.0194611
-0.0185731
-0.187976
-0.0989577
0.0913679
0.289434
0.0837116
0.00819862
-0.0566776
-0.225359
-0.0493543
0.0100733
-0.386357
0.066257
-0.00982642
-0.086493
0.00775787
0.0198745
-0.16915
-0.191312
-0.390863
-0.00896267
0.0772523
0.0085124
0.40879
-0.00396168
0.454488
-0.130778
-0.0969748
-0.0836995
-0.383288
0.149557
-0.251602
0.476956
0.0211171
0.0645436
0.112936
0.128403
0.49484
-0.156783
-0.362405
-0.0926844
0.508467
0.0308882
-0.119412
0.00692548
-0.396819
-0.0744176
-0.0419065
-0.0427914
-0.0289517
-9.58409e-05
-0.135104
-0.359128
-0.00531811
-0.0366634
0.00103294
-0.189933
-0.0358555
-0.289043
-0.0838768
-0.323598
0.0274844
0.000341526
-0.123385
0.428941
0.0244245
-0.0950087
0.0191527
-0.209007
0.175844
-0.157985
-0.101965
-0.356665
-0.00695085
-0.0214493
-0.0959205
-0.0842941
-0.0591863
-0.0644136
0.0103979
-0.078542
0.0254342
0.00326871
-0.0284549
0.0245948
-0.380436
-0.131725
-0.128858
-0.0701565
-0.222919
-0.244936
-0.00789989
-0.0801734
-0.00845422
0.484804
-0.0259695
0.0537425
0.0263479
0.00630605
-0.0183022
-0.164072
-0.0372228
0.436849
-0.0162098
0.162458
-0.00691569
0.490624
0.017517
-0.0841126
-0.0756362
-0.107381
-0.364451
0.00659816
-0.0991141
-0.150461
0.00642693
-0.00967963
0.0133928
-0.0904639
-0.357349
-0.0263852
-0.0163403
-0.146048
-0.109457
0.20246
-0.11531
0.035327
-0.109353
-0.0795106
-0.00697602
-0.146169
-0.034966
-0.0924821
0.0345594
-0.0255294
0.0197545
-0.134018
-0.0967399
-0.00819606
0.388905
-0.103133
0.00748592
-0.0158976
-0.000255192
0.408469
-0.142376
-0.144545
-0.0451867
-0.100105
0.0175032
0.0325456
-0.0395367
0.00950708
-0.152768
0.0374587
-0.084688
-0.304964
-0.081861
-0.00782631
-0.0886096
-0.118533
0.0178174
-0.161615
-0.0814929
-0.125077
0.0987396
-0.376428
-0.137415
0.0102797
-0.178467
-0.175726
-0.051078
-0.290062
-0.083603
-0.0547945
-0.125784
0.00546543
-0.181824
0.288529
-0.170906
0.00847308
0.016825
-0.0084577
0.168116
-0.0877987
-0.090903
-0.231081
-0.388449
-0.085873
0.0189207
0.498355
-0.0959734
-0.140767
0.0270815
0.0105523
-0.109352
-0.0955907
0.0403886
-0.083979
-0.374576
-0.155335
-0.359555
0.339915
-0.175303
-0.0870897
-0.292217
-0.0125643
-0.302983
-0.173492
-0.0233188
-0.0329617
0.004461
-0.356359
-0.184892
-0.124857
-0.0249839
-0.344198
-0.0154477
-0.194514
-0.0936124
0.0314032
-0.0863244
-0.252656
-0.102613
-0.135914
-0.0324487
0.0396971
0.0579376
-0.0888651
-0.0907999
-0.332925
-0.142885
-0.0104699
-0.397067
-0.218712
-0.0851654
0.00665311
0.0114095
-0.0824358
0.421036
0.0144683
-0.126681
0.305205
0.195903
-0.0904672
-0.105334
-0.322424
-0.164518
0.0484072
-0.0141837
0.29419
-0.0927979
-0.35165
-0.0231787
0.201078
0.32679
0.374749
-0.0306549
0.0183021
0.378667
-0.176435
-0.329017
0.417295
-0.0820626
0.0114842
0.415734
-0.169751
0.0474213
0.282274
-0.165782
-0.00850674
-0.151628
-0.128491
0.424804
0.0198287
-0.0789958
-0.149058
-0.378151
-0.0113025
-0.0461803
0.00215001
-0.0360224
0.00286236
-0.119401
0.037876
0.10334
0.381589
-0.085455
-0.154224
0.0808259
-0.0537565
-0.0286484
-0.309573
0.272281
-0.371983
-0.0129157
0.113504
-0.366742
0.331006
0.0419108
0.0862918
-0.189549
-0.122747
-0.220217
0.0103292
0.00476626
0.000311943
-0.164438
0.0183934
0.474358
0.491839
0.405772
-0.0469015
-0.254656
-0.364269
0.00443125
-0.293339
0.0351545
0.228132
-0.00375055
-0.0229364
-0.130761
-0.270604
0.00802089
-0.384537
-0.212537
0.326768
-0.23726
-0.00471137
0.0118184
-0.0798922
-0.0378453
-0.382177
-0.376016
0.0504738
-0.234031
0.00709343
-0.0142384
-0.0179372
0.0244739
-0.364687
-0.0439331
-0.347115
0.301279
-0.0310381
0.442896
-0.334572
-0.0910696
-0.358697
-0.0465986
-0.0208078
0.0247036
-0.0383947
0.465998
0.36165
-0.248661
0.0237186
-0.0343504
0.140065
0.00884406
-0.0953386
0.0790369
0.186877
0.250352
0.0537089
0.0159949
-0.00954767
-0.120268
0.0127981
0.0267905
0.325426
0.0590185
0.00155455
-0.117699
0.00185673
-0.313083
-0.0931225
0.486496
0.0336444
0.318505
0.0215402
-0.118575
-0.035341
-0.0359945
0.118854
-0.345581
-0.0932692
0.317763
-0.0164117
-0.0802596
-0.114904
-0.0882107
-0.244253
0.0306492
-0.249876
-0.193115
-0.00855773
0.269134
-0.199637
0.335175
0.0210507
-0.134479
0.422505
-0.19716
-0.150373
-0.0261788
-0.132991
0.0287424
0.0104066
-0.0726897
-0.107277
0.0107944
-0.0901419
-0.372011
-0.0965778
-0.37793
0.417736
-0.343857
-0.26232
-0.00878985
-0.0419924
-0.0154324
0.137814
-0.202633
-0.222093
0.0530181
0.0103274
-0.0162731
-0.323222
-0.0929893
-0.122076
-0.0954719
0.351175
-0.395905
-0.304167
0.0146331
-0.390926
0.0278137
0.110948
0.147302
-0.0964711
-0.105175
0.109714
-0.036818
0.293296
-0.0697051
-0.0971709
-0.381582
0.161256
-0.0818078
-0.0731994
0.0242736
0.475851
-0.144202
0.0629059
-0.36547
-0.390138
-0.0803697
0.105837
-0.0852255
-0.388836
0.0159409
-0.0182686
-0.00808139
-0.00631261
0.0585533
-0.396906
0.0547537
-0.132816
0.00497944
-0.0235957
0.44529
-0.0287522
-0.00976161
0.0178557
0.0287867
-0.145975
-0.0144407
-0.397209
-0.0266207
-0.0424752
-0.0259844
0.0511143
0.362554
-0.0148738
0.0123109
-0.0119289
-0.0624388
0.303776
-0.0525851
-0.0951272
0.00471382
0.0947905
-0.0792562
-0.251365
0.0697717
0.0167037
-0.0195898
-0.0124618
-0.277814
0.00510781
-0.0173099
-0.0536945
-0.323896
0.00418554
0.180789
0.0496701
0.0200756
-0.10461
-0.391997
-0.10323
-0.106515
-0.0541691
-0.0901308
0.0456636
0.34851
-0.240904
-0.0329271
-0.133289
-0.0765058
-0.102611
0.0539083
0.0277184
0.482027
-0.0454835
-0.247784
-0.129378
-0.0157122
0.0227473
-0.394382
-0.0818436
-0.0883609
0.0631013
0.0165807
-0.393651
-0.169321
-0.0115526
0.0107776
-0.0253928
0.0172201
0.0194887
0.034722
0.179041
-0.165388
0.0196617
0.045788
0.451326
0.013069
-0.240615
0.0601629
-0.0269599
-0.0668553
0.00794511
-0.17467
0.0633775
0.243516
0.0170319
-0.0206892
-0.329666
-0.364469
0.00813878
-0.0896025
0.206345
0.0255694
0.0842414
0.0105973
-0.0359773
-0.282164
-0.214114
-0.0629862
-0.113236
-0.0352137
-0.382441
-0.139127
-0.022838
-0.242568
0.0635055
-0.10856
-0.125485
-0.0888949
-0.329154
-0.200831
-0.0959235
-0.0177033
-0.0514187
0.0996084
-0.0149551
-0.0187742
-0.0772171
0.306944
-0.0168194
0.112132
-0.106702
0.0799129
0.415899
-0.0941539
-0.0624486
-0.287339
-0.344072
0.17154
0.101175
-0.0842206
-0.395678
-0.117792
0.0769471
-0.0157944
-0.00146852
-0.011746
-0.0788826
-0.104569
-0.19458
-0.0205564
-0.307576
0.00920679
-0.0771455
-0.0918413
0.312724
-0.204728
0.316113
0.382515
0.0603118
0.16596
0.0016798
0.130998
0.01654
-0.0264559
-0.0878657
-0.094292
0.0171669
0.0961919
-0.185147
-0.00111526
-0.0183534
0.116606
-0.39681
-0.193285
-0.125146
0.203241
0.0102391
-0.0812818
0.194364
-0.0337472
0.0319613
0.0117676
-0.0202081
0.0350243
-0.0546947
-0.148462
0.0098807
-0.0138091
0.229056
0.00364316
0.110899
0.138512
0.0255154
0.014229
-0.397085
-0.00925855
0.0242821
-0.0101233
0.0722477
-0.0113917
-0.345945
-0.0431444
-0.242882
0.00499475
-0.0205031
-0.0281139
-0.311903
-0.0723182
0.0369108
-0.0162872
-0.141626
0.103451
-0.124764
0.00132297
-0.199167