/*--------------------------------*- C++ -*----------------------------------*\
| =========                 |                                                 |
| \\      /  F ield         | OpenFOAM: The Open Source CFD Toolbox           |
|  \\    /   O peration     | Version:  v2012                                 |
|   \\  /    A nd           | Website:  www.openfoam.com                      |
|    \\/     M anipulation  |                                                 |
\*---------------------------------------------------------------------------*/
FoamFile
{
    version     2.0;
    format      ascii;
    class       volScalarField;
    location    "450";
    object      k_0;
}
// * * * * * * * * * * * * * * * * * * * * * * * * * * * * * * * * * * * * * //

dimensions      [0 2 -2 0 0 0 0];


internalField   nonuniform List<scalar> 
13851
(
0.000154425
0.0175787
0.000189527
0.000153834
0.00018737
0.000223928
0.000146918
0.000177197
0.000139897
0.000196301
0.00342251
0.0368531
0.0167037
0.032383
0.000144176
0.00016765
0.000157265
0.000164136
0.00268976
0.000139735
0.000153411
0.0001885
0.000143934
0.000151284
0.000145097
0.000177805
0.000155593
0.00312951
0.000154054
0.00015667
0.000235671
0.000157876
0.000188511
0.00412018
0.000151423
0.000206627
0.000142755
0.000146691
0.000199444
0.00281223
0.000145845
0.000132313
0.00557298
0.00335446
0.00309143
0.0148115
0.00330481
0.00855999
0.000156023
0.000224841
0.000185458
0.000196147
0.0114862
0.000146161
0.000154533
0.000132415
0.000143734
0.0144302
0.000156158
0.000147645
0.000100946
0.0207662
0.000199008
0.00018999
0.000204566
0.000157406
0.000970922
0.00344748
0.000167308
0.000163871
0.0150282
0.00949438
0.0180407
0.000147058
0.000141491
0.000142884
0.000187716
0.0163168
0.000176872
0.0174117
0.000149365
0.00272236
0.000144232
0.0137395
0.000198992
0.038486
0.000199379
0.0300285
0.000157908
0.000141665
0.000206633
0.000175016
0.00344546
0.000161125
0.00015753
0.000148421
0.000187776
0.0301371
0.000206163
0.000148393
0.0279121
0.0001781
0.000151141
0.00015467
0.000143235
0.000217824
0.000180197
0.000131358
0.022495
0.000230745
0.000150664
0.000142077
0.000172421
0.000153271
0.000150721
0.0102263
0.0312495
0.000131493
0.000157299
0.000158563
0.0054594
0.000154484
0.0193613
0.00771778
0.0110432
0.000149071
0.0114785
0.000177572
0.000152965
0.000197336
0.000145579
0.000139342
0.0181219
0.000144163
0.00921667
0.000141101
0.000131584
0.00833958
0.0282966
0.030191
0.0259625
0.000154158
0.00015042
0.000135764
0.000154106
0.00361967
0.000478901
0.000197249
0.000146713
0.00301767
0.000186519
0.000154732
0.0341879
0.000144218
0.000152941
0.000153937
0.000143252
0.000154066
0.000196029
0.000185154
0.00013365
0.000160753
0.0143401
0.000139216
0.000162505
0.000134016
0.000633523
0.000167693
0.000152613
0.0176447
0.0141507
0.000136739
0.000143432
0.0299107
0.000139059
0.00820966
0.000176826
0.000151002
0.00293863
0.000131668
0.000159131
0.0117268
0.000144013
0.000189848
0.000132983
0.000145041
0.00015759
0.000148882
0.000189934
0.000196341
0.00348347
0.01292
0.000143306
0.000167595
0.0221928
0.000152561
0.000149641
0.00267609
0.000150274
0.000143129
0.00014985
0.0154159
0.000165913
0.000143643
0.000188841
0.000144154
0.0317672
0.000157467
0.0285175
0.000132253
0.0370895
0.000150784
0.00413193
0.000131215
0.000135031
0.00380171
0.00019254
0.0150144
0.000143506
0.0296955
0.000157783
0.000149587
0.0339041
0.000195438
0.0398331
0.000145561
0.000163497
0.00014459
0.0149328
0.000131301
0.000177011
0.000249028
0.00013665
0.000142827
0.000183355
0.000178162
0.0300783
0.000172978
0.000135618
0.000143772
0.000235223
0.00541149
0.000137709
0.000191081
0.000141213
0.0378795
0.000178652
0.00201091
0.000154219
0.000159057
0.000165008
0.00583096
0.000149797
0.000154374
0.00017846
0.00958094
0.000193823
0.0101976
0.00487441
0.000144374
0.000135174
0.000162295
0.00113461
0.000138793
0.0111233
0.000152541
0.000149631
0.000160472
0.0329256
0.000580661
0.000164833
0.000152959
0.000442712
0.000175498
0.000166956
0.000139476
0.00275224
0.00202033
0.0423146
0.00328736
0.000137712
0.000131841
0.000142957
0.000177526
0.00102428
0.00514026
0.000141371
0.000144166
0.000391003
0.00259118
0.00020342
0.000155446
0.000147778
0.000169477
0.0025446
0.00939243
0.000161511
0.0377088
0.000139749
0.0382409
0.000160249
0.000157099
0.0414552
0.000148464
0.000211629
0.0355303
0.000141068
0.000173987
0.000161312
0.000154917
0.0268407
0.000161827
0.000149558
0.0333809
0.000132784
0.00015946
0.000154806
0.041364
0.000196459
0.000143533
0.000178665
0.000143755
0.0113252
0.00017155
0.00014389
0.000146129
0.000195902
0.000162702
0.000152641
0.000144172
0.000148318
0.000149386
0.00322836
0.0309539
0.0193763
0.000168348
0.0404876
0.0231921
0.000143791
0.000168238
0.000204097
0.000187052
0.000188301
0.000193652
0.0024721
0.000156789
0.0014258
0.0366003
0.000144442
0.000332749
0.000388377
0.00136959
0.000152612
0.000190711
0.0154213
0.000143834
0.00151384
0.000146081
0.000143807
0.000139599
0.000131399
0.000142286
0.0369761
0.00370235
0.000145237
0.00017293
0.000133381
0.0340919
0.00017222
0.00142116
0.0192449
0.000145494
0.000197078
0.000161539
0.00257308
0.000144749
0.00013161
0.000165642
0.0271202
0.000145054
0.0277369
0.000183977
0.000194719
0.0143483
0.00238608
0.00190427
0.000160346
0.000139782
0.00015061
0.000166519
0.000178366
0.0344935
0.000167607
0.0396727
0.0359368
0.00013349
0.000144479
0.0179845
0.0196327
0.000254373
0.0321095
0.000168191
0.000162351
0.000147889
0.0205725
0.000138119
0.000167182
0.000158884
0.00014625
0.000144017
0.000140746
0.0001339
0.000189271
0.000183227
0.0152016
0.000164715
0.000179844
0.000171395
0.00609643
0.000160541
0.00197824
0.000156599
0.00380194
0.000131487
0.000140479
0.00014659
0.00036379
0.00322467
0.0001947
0.000169457
0.0116107
0.00515434
0.000194988
0.000161266
0.000183783
0.000144443
0.00612724
0.000142811
0.0095177
0.00343918
0.000187528
0.0257932
0.000150975
0.00150695
0.00296746
0.0221732
0.000131625
0.000163964
0.000177464
0.000923331
0.000137504
0.000149484
0.000185261
0.000194472
0.000170345
0.0234124
0.000145577
0.000146658
0.0106381
0.000163553
0.000131618
0.0294791
0.000139705
0.00015443
0.000138349
0.000174004
0.000153002
0.000131986
0.000150408
0.0330214
0.000144385
0.000169439
0.000140312
0.000167439
0.0036522
0.000154457
0.000145881
0.000153518
0.000153213
0.00945475
0.000149487
0.000207711
0.00014394
0.000146381
0.0264796
0.0242853
0.000144436
0.000169571
0.000160689
0.00463841
0.0144654
0.000146715
0.00427309
0.000145004
0.000187859
0.000146873
0.0157308
0.000132905
0.0107496
0.000192953
0.000132433
0.00016953
0.0243367
0.00017784
0.00248158
0.000157124
0.00653846
0.000158051
0.000138639
0.000139682
0.00014613
0.0239358
0.000183454
0.000196575
0.00141785
0.000189546
0.00013408
0.0259199
0.00319567
0.000159312
0.000161069
0.00303207
0.00762097
0.035478
0.000153101
0.0161386
0.014573
0.0148227
0.000162766
0.000171703
0.00769615
0.00180912
0.00821238
0.00319531
0.0195613
0.000154537
0.020991
0.0144548
0.000131701
0.00171939
0.000183973
0.0197258
0.00015465
0.000143009
0.000142902
0.000144509
0.000189246
0.000174516
0.0265063
0.0235631
0.000140099
0.0092589
0.0246482
0.000245148
0.00293648
0.000168959
0.000131206
0.000140183
0.00203508
0.0279226
0.000153165
0.000190221
0.000206748
0.000132301
0.000180708
0.0086335
3.79956e-05
0.000193265
0.0252
0.0143746
0.00014531
0.000146378
0.0238642
0.0354751
0.000197246
0.000167391
0.000210374
0.000131588
0.000142334
0.0121531
0.000132047
0.000154489
0.000131555
0.000139653
0.0161215
0.000189103
0.000165799
0.00013196
0.0262487
0.00388087
0.000139939
0.000141674
0.00013898
0.000149784
0.0254536
0.0022126
0.00325329
0.0143947
0.00483286
0.000165892
0.0159231
0.0258846
0.000157821
0.000167785
0.000131183
0.000154462
0.000169146
0.0315141
0.0011702
0.000189798
0.000162853
0.000139227
0.00016734
0.000149613
0.00257079
0.000185453
0.000143812
0.000169472
0.000137486
0.000160066
0.000195548
0.000147282
0.000144191
0.000172325
0.000147456
0.000187773
0.00031624
0.000194306
0.000167739
0.000198177
0.000139034
0.000235555
0.000167487
0.014178
0.000150505
0.000149082
0.0193354
0.000155349
0.0140033
0.0365951
0.0154724
0.0282103
0.000138051
0.0124647
0.000139317
0.000139656
0.000132902
0.000139732
0.000184011
0.000165969
0.000172585
0.000131749
0.0229927
0.00019535
0.024373
0.000142176
0.000134406
0.000141111
0.000203395
0.0231875
0.000178903
0.000160442
0.000140022
0.000146986
0.000146854
0.000144094
7.62041e-05
0.026946
0.000147162
0.000131646
0.00014626
0.00014396
0.00176585
0.0137896
0.000167755
0.0279034
0.00765685
0.000143921
0.000196098
0.0255352
0.000168982
0.0391088
0.000149325
0.000162698
0.000178487
0.000163217
0.00425056
0.000144287
0.00807043
0.000143517
0.000163595
0.0285615
0.000143768
0.000153659
0.000211256
0.00013878
0.000158357
0.000508182
0.0314376
0.000185002
0.00781242
0.00360075
0.00013134
0.000141872
0.0244572
0.000203228
0.000180474
0.0368848
0.000139118
0.000166065
0.000131802
0.00337272
0.00157133
0.000159282
0.000149734
0.00384154
0.000156005
0.000140804
0.00923868
0.0141493
0.0288897
0.000132642
0.000146997
0.016332
0.00937617
0.000202106
0.000148966
0.0260236
0.000144271
0.00389781
0.000202225
0.000188851
0.000157767
0.0151831
0.000162973
0.000151361
0.000167422
0.000148591
0.000165852
0.000153457
0.000138831
0.0105742
0.000166551
0.000193526
0.000164732
0.00284292
0.000139474
0.00074539
0.000155468
0.000162772
0.000134933
0.000143451
0.000145246
0.0350226
0.000142569
0.000131882
0.0112826
0.000146644
0.0201899
0.000144057
0.000149823
0.000184938
0.00425162
0.00186375
0.000141724
0.000315652
0.0288948
0.000149647
0.0351649
0.000163278
0.000138504
0.000183021
0.00685035
0.000273512
0.000159449
0.000141196
0.000131459
0.00307323
0.000191736
0.000181547
0.00016088
0.000182499
0.00015068
0.000149352
0.000190194
0.00516038
0.000189419
0.00148672
0.000146732
0.00018804
0.000188076
0.0406689
0.000159109
0.0367022
0.000774399
0.000146766
0.013416
0.000222432
0.0261254
0.0333028
0.0331131
0.00454961
0.000174002
0.000138665
0.000165429
0.0150911
0.0132242
0.000145682
0.000146482
0.000183998
0.0025933
0.000132467
0.0115326
0.000138818
0.000145143
0.0112338
0.0161876
0.00360596
0.000139626
0.00014392
0.0105701
0.000109824
0.000195732
0.000153813
0.023091
0.000141246
0.0247341
0.000179895
0.00017241
0.000149616
0.000146698
0.0183156
0.000177305
0.0185739
0.000172502
0.000167199
0.0110127
0.0255729
0.0220071
0.000144982
0.000164359
0.000139827
0.000168179
0.000153433
0.034739
0.000166728
0.0342401
0.000132361
0.000184467
0.000142953
0.000178653
0.000166478
0.000163949
0.0285703
0.000174055
0.000175567
0.000151696
0.000184476
0.00573324
0.000212758
0.000154753
0.0145042
0.0001383
0.037291
0.00421864
0.000148203
0.0379315
0.0285214
0.0217852
0.00472819
0.000169604
0.000145424
0.0275994
0.000167693
0.0101267
0.0289512
0.000142107
0.00015211
0.000468505
0.00475733
0.0348644
0.000147033
0.000141194
0.023189
0.0284361
0.000193332
0.000158705
0.000152363
0.00458403
0.0141498
0.000188683
0.00013193
0.000174537
0.000138857
0.000161733
0.000810877
0.000148291
0.0111671
0.00616069
0.000145368
0.000151017
0.000145664
0.000153597
0.0159152
0.0229428
0.000163467
0.0359353
0.000142848
0.000163575
0.000145077
0.000138978
0.000147849
0.000145192
0.0217793
0.000144506
0.000178537
0.000145118
0.000159629
0.000737311
0.00794998
0.000157326
0.0245075
0.000182625
0.00124931
0.000167143
0.000167372
0.0162265
0.000160033
0.000176039
0.0342967
0.00850298
0.0112662
0.000173257
0.00305152
0.000150073
0.000172777
0.000178566
0.0354922
0.000145407
0.0291107
0.000141653
0.000142399
0.0322344
0.00014717
0.00979493
0.000158244
0.000139816
0.00017568
0.000139882
0.000143956
0.000144419
0.000149028
0.000149211
0.000142319
0.000114453
0.0137352
0.00018493
0.0293148
0.000146435
0.000155573
0.000158813
0.000144753
0.000139609
0.000187213
0.000149265
0.000142051
0.00014995
0.000145515
0.0201905
0.026358
0.000215373
0.032005
9.02063e-05
0.000142329
0.00329984
0.000162613
0.000142063
0.00379165
0.000225965
0.0071375
0.000141992
0.00326326
0.00522944
0.0168623
0.000136896
0.0178307
0.000165599
0.000155445
0.000148374
0.000139127
0.030901
0.000224172
0.00645989
0.000143279
0.000143802
0.0121441
0.000148278
0.00310355
0.00446191
0.0141573
0.0026683
0.00430308
0.000146163
0.000145095
0.000195566
0.000168021
0.000154787
0.0002119
0.000174498
0.000149438
0.00015205
0.0258099
0.000142319
0.0194744
0.00711098
0.00966784
0.000197956
0.000152616
0.000136642
0.000149144
0.00231538
0.00439046
0.000136894
0.000157744
0.000143054
0.000186623
0.000133139
0.000142599
0.00014977
0.000166796
0.00132243
0.000176496
0.000168811
0.000145698
0.000178448
0.0161138
0.00015053
0.0133402
0.0133563
0.000187614
0.000134372
0.00017471
0.000142996
0.000144173
0.000148799
0.0162545
0.000196219
0.0036582
0.000154874
0.00387423
0.000143387
0.000143732
0.000148554
0.00197111
0.00970638
0.000133312
0.000166441
0.000186168
0.025146
0.000154285
0.0180658
0.000192346
0.0308803
0.000191082
0.0327483
0.000190544
0.000187192
0.000262437
0.0259809
0.0042471
0.0157781
0.000143622
0.000209954
0.000133012
0.000154921
0.000158791
0.00014785
0.0260746
0.000163978
0.000161111
0.00470886
0.000207052
0.00982945
0.000143635
0.000154629
0.000160007
0.000137318
0.000167229
0.0213621
0.0022246
0.0170057
0.000140716
0.0001601
0.000154664
0.00808798
0.0323191
0.000194714
0.000136533
0.000148918
0.0162398
0.000177052
0.021434
0.027157
0.000209519
0.000134188
0.010188
0.000165983
0.000175073
0.000162287
0.0361851
0.00221616
0.000194666
0.000223922
0.000151425
0.000164843
0.000145107
0.0102619
0.000180862
0.0247498
0.00380938
0.000158617
0.000199629
0.000152531
0.0358668
0.000142713
0.000141165
0.00548883
0.0297507
0.0089927
0.0200664
0.000146843
0.000145404
0.0163031
0.0179365
0.0149615
0.000156263
0.00014633
0.000145428
0.0205182
0.000200135
0.000148968
0.000189452
0.000192959
0.0293931
0.00930145
0.00277355
0.000144389
0.0229727
0.000156671
0.000145739
0.000197958
0.0219714
0.000147026
0.000141697
0.00670632
0.0347106
0.000146627
0.000140614
0.0285328
0.00014077
0.00196034
0.000140714
0.00866273
0.000145458
0.000178902
0.0190849
0.0324854
0.000151847
0.00687517
0.0059637
0.0227683
0.00795182
0.0318667
0.000192875
0.000142676
0.00975659
0.000154826
0.000143751
0.000137181
0.00700252
0.000143707
0.0001394
0.000141911
0.000151709
0.0153483
0.000186779
0.00760121
0.000153115
0.000168854
0.000139538
0.000166118
0.00855092
0.0275623
0.000140705
0.000184026
0.00306893
0.000148306
0.000139364
0.0283801
0.000167942
0.000169238
0.000196152
0.0331797
0.0131536
0.00572181
0.0174473
0.000200879
0.00354949
0.00356214
0.0137433
0.000184057
0.000136463
0.000196375
0.000142642
0.000142588
0.026772
0.0285522
0.000154222
0.0379688
0.000244464
0.018826
0.000240532
0.000228224
0.000144283
0.000241491
0.000204606
0.000142477
0.000152168
0.0356688
0.0303969
0.0155533
0.0340589
0.000171503
0.0368802
0.0367329
0.000165632
0.000147794
0.000143204
0.00260364
0.000141749
7.9921e-05
0.000153312
0.000150265
0.00015476
0.0181408
0.038939
0.0194374
0.000149865
0.0111133
0.000158417
0.00016464
0.00014115
0.000141125
0.0135512
0.000161093
0.0262612
0.019235
0.000168812
0.000194984
0.000144594
0.00017255
0.000148203
0.000200581
0.000150649
0.000152809
0.000149489
0.000154092
0.000201756
0.000150419
0.000169209
0.000142802
0.000169761
0.000113853
0.0167048
0.000143701
0.000177221
0.000145146
0.000209278
0.000178711
0.0259578
0.000236333
0.000165149
0.00015479
0.000153425
0.000230186
0.000144935
0.00298644
0.000144046
0.000143686
0.000149179
0.0337159
0.000160438
0.000156562
0.000168313
0.000144536
0.000183228
0.0325778
0.00936948
0.000169108
0.000145069
0.00019238
0.000137155
0.00014438
0.000202023
0.0343002
0.000143674
0.000165709
0.000206251
0.0123715
0.000149129
0.000150183
0.0326909
0.000152213
0.000213283
3.39681e-05
0.0381346
0.000145705
0.000201833
0.000143464
0.039505
0.000198813
0.000174483
0.000194958
0.0198293
0.000151332
0.0351769
0.0265691
0.000148504
0.0201447
0.000187643
0.000153306
0.0134058
0.000146521
0.000145878
0.000138354
0.000207232
0.000226993
0.000203943
0.000152995
0.000150759
0.000163372
0.00202758
2.92428e-05
0.038099
0.00294238
0.000149885
0.000198921
0.000197534
0.0121018
0.000189961
0.00264745
0.000141891
0.000167417
0.000139358
0.0145159
0.000170911
0.000143393
0.026796
0.000213428
0.00016696
0.000160823
0.000132359
0.000144093
0.000180831
0.000168709
0.0124763
0.000184163
0.000186541
0.000183524
0.000194431
0.0374522
0.000190697
0.0381094
0.000143937
0.00014193
0.000191726
0.0197579
0.0110024
0.000220641
0.000153852
0.0151747
0.00301779
0.000143982
0.000159187
0.000139868
0.000173027
0.000184915
0.000578361
0.0129799
9.02652e-05
0.000152265
0.0251219
0.0136302
0.000144294
0.000196779
0.0279872
0.011007
0.000155048
0.000186261
0.000131236
0.000159545
0.000142498
0.000158504
0.0395662
0.024922
0.00997889
0.0151737
0.000151898
0.000168222
0.000179895
0.00014221
0.000149336
0.000139149
0.0308639
0.000141491
0.0346802
0.000170136
0.00019102
0.000205592
0.00015904
0.017683
0.0147279
0.000172539
0.000133688
0.000150754
0.0124217
0.00563226
0.000157021
0.000139642
0.00013944
0.000184829
0.000164918
0.000200299
0.0294058
0.000151688
0.00013862
0.000197007
0.000186426
0.0156549
0.0132402
0.000140726
0.000185505
0.000148124
0.0419879
0.000135104
0.0375742
0.000142772
0.000151469
0.000167937
0.000149565
0.000207152
0.000163964
0.000176767
0.0161859
0.0311956
0.000157868
0.000164236
0.000144059
0.0136405
0.0171848
0.000149393
0.00013546
0.00327505
0.00013133
0.0250009
0.000144601
0.00017134
0.000187818
0.0191674
0.000172443
0.00015277
0.000146394
0.000185086
0.0358152
0.000142759
0.012137
0.0349698
0.0160472
0.000726851
0.000167822
0.020166
0.000157502
0.000124626
0.000143333
0.00298353
0.00297561
0.0121342
0.0148931
0.0370775
0.000149382
0.000208118
0.000141723
0.0125006
0.00378947
0.0349952
0.0156369
0.00016097
0.0333847
0.00429432
0.000168885
0.000153162
0.000147223
0.0265715
0.000158972
0.000184933
0.0001583
0.000148655
0.000138946
0.000147557
0.0305159
0.000164939
0.000165778
0.016667
0.0109929
0.000145882
0.000143891
0.000139366
0.000165118
0.0366206
0.000141226
0.00015899
0.00017294
0.00483157
0.000190135
0.000175279
0.0100512
0.000164858
0.0382731
0.000163604
0.000165724
0.000143541
0.000157584
0.000185082
0.00522399
0.00336244
0.0292776
0.000187259
0.0165626
0.000156846
0.000156437
0.000145061
0.0106466
0.0196171
0.00672381
0.000231763
0.000154518
0.000145283
0.000142528
0.000144041
0.000139374
0.00883765
0.000163637
0.0116343
0.000166592
0.0266262
0.0112263
0.0378818
0.000178085
0.000158617
0.0152369
0.000171707
0.00490921
0.0290214
0.000138536
0.000177363
0.000160798
0.020496
0.00856612
0.000168656
0.000215853
0.00213174
0.000158879
0.000185752
0.000166127
0.015446
0.00359331
0.000155582
0.000146458
0.00316875
0.00139752
0.000195558
0.0101222
0.000196102
0.000166627
0.000144187
0.0401242
0.0330706
0.000191692
0.000164548
0.031314
0.0285335
0.000141949
0.000144561
0.000156057
0.0351815
0.0336434
0.00014377
0.0201594
0.000150075
0.000143564
0.000148292
0.0145926
0.000117625
0.000210198
0.0104198
0.00015361
0.000152738
0.000141679
0.0103045
0.00015242
0.0148739
0.00015521
0.0179701
0.000148883
0.000142728
0.000194592
0.00837767
0.00346819
0.000169735
0.0202635
0.000136283
0.00014651
0.000144709
0.000176147
0.000183608
0.000183513
0.000172416
0.0309254
0.000156223
0.000195851
0.00024271
0.0373956
0.00014729
0.0248345
0.0303345
0.000156886
0.0038143
0.000183729
0.022403
0.000147656
0.00018724
0.000144859
0.00288691
0.0143437
0.000195458
0.0372672
0.000155174
0.000177022
0.000152229
0.021122
0.000134333
0.000139757
0.00290873
0.000195227
0.02113
0.00806192
0.000183251
0.000162761
0.000138156
0.00275048
0.000166469
0.000142714
0.000201073
0.000142789
0.000174431
0.000145327
0.0189239
0.000155382
0.00352127
0.0039832
0.000166966
0.000240697
0.000181917
0.0422124
0.000146354
0.0195014
0.0202763
0.000139753
0.000144492
0.000153383
0.000149043
0.000172834
0.000144105
0.00176716
0.000186421
0.00395886
0.000198063
0.000147894
0.000149529
0.000138565
0.0168496
0.000146776
0.000145379
0.000124217
0.000155041
0.0137319
0.0364962
0.000189912
0.000155747
0.000168118
0.00015261
0.000150056
0.000195377
0.000136039
0.000155364
0.0110284
0.0391699
0.00150622
0.000152485
0.0123096
0.0134183
0.000149088
0.00379515
0.0318484
0.00014384
0.000154403
0.000143277
0.0181506
0.0172331
0.00226682
0.000135933
0.00015578
0.000152779
0.000146607
0.00019536
0.000148067
0.000190268
0.00797224
0.0367287
0.000138561
0.000155184
0.000154063
0.0157009
0.000132387
0.0170174
0.0115762
0.000255311
0.0106541
0.0182895
0.0236236
0.000151877
0.00446439
0.00441758
0.000151212
0.000137911
0.000140664
0.0367374
0.0105302
0.0136794
0.000143771
0.0389794
0.000147564
0.000204892
0.000139195
0.000154274
0.000151082
0.0001384
0.0175016
0.000151335
0.0303972
0.0294883
0.0166682
0.000177958
0.000178546
0.0168575
0.0352999
0.000149651
0.00621114
0.000138558
0.000131637
0.000143649
0.000201616
0.000141045
0.0164364
0.000164815
0.000585679
0.000172928
0.0118178
0.0169388
0.000201038
0.000138125
0.000181064
0.000190365
0.0169394
0.000147404
0.000134415
0.000158296
0.0248112
0.00014856
0.00462773
0.0157879
0.000173241
0.000183908
0.000147528
0.00176533
0.000148884
0.0376846
0.000135729
0.00852857
0.000164853
0.000146257
0.0161698
0.0158456
0.000135358
0.000183753
0.000157049
0.0127512
0.000204257
0.000207594
0.000489824
0.000149093
0.000180386
0.0274722
0.000142917
0.000195635
0.000152498
0.00018668
0.000166227
0.0121977
0.0234774
0.000146595
0.0249582
0.000151603
0.000175349
0.0318362
0.0154516
0.000170709
0.0259177
6.2901e-05
0.00014657
0.00454957
0.000198036
0.000164662
0.000151221
0.0272619
0.00013568
0.0134298
0.000307549
0.000197401
0.000143515
0.000167648
0.0247123
0.00017567
0.025037
0.000150235
0.000155323
0.000218378
0.0281963
0.00015861
0.0361444
0.00212733
0.0168646
0.000148458
0.0271869
0.0105462
0.0180033
0.000144084
0.000148
0.000146585
0.0371854
0.00016441
0.00222355
0.00147685
0.000149355
0.000137525
0.000143908
0.0170933
0.00926318
0.0284406
0.0170608
0.000141403
0.0246933
0.033505
0.000197284
0.0111851
0.0260369
0.000170913
0.0117744
0.000154023
0.000158074
0.0157363
0.0221553
0.000151453
0.0364884
0.000149352
0.000144711
0.0318387
0.0234859
0.0336902
0.013304
0.000165691
0.000149275
0.00016028
0.0323059
0.01528
0.000142719
0.000175851
0.00311583
0.000144825
0.000147154
0.0289616
0.0233502
0.000153817
0.000144345
0.00015093
0.000152672
0.00832006
0.000149004
0.00014515
0.000159163
0.0006623
0.0195114
0.000174316
0.0246634
0.00014683
0.000157739
0.0291766
0.0345789
0.000163188
0.00023448
0.00014339
0.000169662
0.000152793
0.000156133
0.000186913
0.000144835
0.000688359
0.000167459
0.000142393
0.000157074
0.0140949
0.0215592
0.0216803
0.000144986
0.000171862
0.0352731
0.00235838
0.000155542
0.000146951
0.000144705
0.00335817
0.000147366
0.000149387
0.000161965
0.00014435
0.0294236
0.000248557
0.000149062
0.000156288
0.000135272
0.000147985
0.0290369
0.00300256
0.000185017
0.0122707
0.000201046
0.000149606
0.00014325
0.000146339
0.000146242
0.000148807
0.000166541
0.00018881
0.0316284
0.000151422
0.00019276
0.0217664
0.000342156
0.000144782
0.000139868
0.000154174
0.0277701
0.000145717
0.00123679
4.79344e-05
0.000188272
0.000147292
0.0139262
0.00013569
0.00021439
0.00013751
0.000135935
0.000148807
0.000142499
0.000189522
0.0200896
0.000241821
0.000172355
0.0292933
0.00366711
0.0156622
0.000165743
0.0236857
0.0121759
0.00019299
0.0242687
0.029605
0.000194282
0.00202901
0.000149134
0.000141044
0.0257645
0.000142623
0.000156445
0.0337131
0.000184726
0.0333884
0.000266019
0.000140971
0.000157737
0.000146798
0.000179551
0.000138941
0.000257944
0.0227566
0.0306893
0.0105753
0.000146984
0.000136145
0.000185423
0.0390378
0.0296322
0.000198382
0.00126626
0.000140745
0.00299821
0.0270263
0.000252181
0.000156078
0.000147359
0.000135864
0.000154547
0.00014747
0.000146598
0.00015597
0.0282907
0.000186493
0.0256288
0.00230555
0.00381689
0.000207119
0.000143233
0.000142142
0.000148459
0.000138731
0.000148919
0.00210671
0.0197857
0.0103821
0.0390097
0.00015396
0.0174702
0.000199894
0.0362826
0.0299683
0.00014761
0.000142379
0.00307294
0.000147154
0.000135534
0.00559924
0.0295205
0.0057341
0.000145245
0.000146895
0.000155283
0.000171926
0.0126804
0.000138787
0.000155901
0.000589289
0.000139625
0.00557888
0.000171573
0.0364047
0.000149154
4.18284e-05
0.0381251
0.00016928
0.0316164
0.000193161
0.0265336
0.000135469
0.000158305
0.000141417
0.000164459
0.0153706
0.000144693
0.0128035
0.00014786
0.000147349
0.000144347
0.0387408
0.00017503
0.000192873
0.0063112
0.000139553
0.000174503
0.0141251
0.000181612
0.000141307
0.000152576
0.000147339
0.000182748
0.000146616
0.00014314
0.0408108
0.0365677
0.0374038
0.000692533
0.00129471
0.0175578
0.000185173
0.0401739
0.000196475
0.000134881
0.000142181
0.000131427
0.000148635
0.0330144
0.0333795
0.000138097
0.0110078
0.0399492
0.000162827
0.000151146
0.000170845
0.0260053
0.0283115
0.0284748
0.0250374
0.0296983
0.000131504
0.000157847
0.000192006
0.00466389
0.0170582
0.000143888
0.000197786
0.0163245
0.000167151
0.0342496
0.000149627
0.00031333
0.0171658
0.0342576
0.00018631
0.000165977
0.0158897
0.000198519
0.034693
0.037576
0.0293246
0.00019401
0.0237041
0.000147158
0.000157662
0.000176629
0.0213956
0.00383262
0.0263832
0.00015125
0.000197183
0.00018714
0.000151718
0.0302042
0.000143874
0.000196877
0.0201303
0.000143812
0.0390815
0.0262043
0.0373141
0.0260721
0.00296399
0.00185837
0.000144757
0.0336798
0.000147533
0.000142398
0.000173531
0.000155484
0.0306235
0.000155773
0.000172311
0.000156136
0.000142442
0.0177294
0.000153555
0.000194606
0.00437169
0.000138445
0.0264205
0.000191782
0.00015154
0.0119096
0.000133304
0.000143503
0.000266885
0.000150505
0.0395911
0.00412675
0.000138333
0.000196096
0.0001537
0.0350924
0.029795
0.000185486
0.0182099
0.000158397
0.000144801
0.0342586
0.000155421
0.000146628
0.00588631
0.000172155
0.000140561
0.000142221
0.000198013
0.000153239
0.0200558
0.000189561
0.000173577
0.0213344
0.000178879
0.000184993
0.000145194
0.0357994
0.016364
0.0209889
0.000144183
0.000137283
0.000185817
0.000165203
0.00547318
0.000146822
0.00265707
0.00014617
0.000868064
0.000149796
0.000207282
0.000178348
0.000194631
0.0267226
0.0198984
0.0316321
0.0285624
0.000131679
0.00113261
0.00133204
0.0198607
0.000143189
0.000101375
0.016031
0.0151057
0.000195415
0.00184818
0.000372382
0.0373033
0.000175288
0.000122455
0.000138273
0.00017675
0.000173556
0.000143576
0.000184946
0.0210896
0.000200493
0.0159054
0.0021481
0.000142582
0.000141211
0.000167607
0.0001437
0.00691651
0.000139102
0.000141294
0.0399983
0.000172787
0.000170642
0.000191719
0.000152837
0.000193656
0.0126252
0.0304335
0.0135984
0.000157887
0.0301749
0.000153442
0.000138602
0.000153606
0.0247113
0.000126782
0.00015263
0.000173405
0.000151373
0.000142177
0.000143755
0.000149172
0.00015976
0.026676
0.0018718
0.000163157
0.0307041
0.0197238
0.00470551
0.0147673
0.000144994
0.000164146
0.000596438
0.000144491
0.000281493
0.000160526
0.000155687
0.0211014
0.0305485
0.000139111
0.000171617
0.000164247
0.000188043
0.0175175
0.0406062
0.0374201
0.000148626
0.000188384
0.0384106
0.000187934
0.000195837
0.00353201
0.0263727
0.0356907
0.0407871
0.000138589
0.0225589
0.00013794
0.000153617
0.000144478
0.00018375
0.0361626
0.0140644
0.00240569
0.0140287
0.00018234
0.000134968
0.000139763
0.000147045
0.000160466
0.000174976
0.0388208
0.0408569
0.000186847
0.0081049
0.000148724
0.000182434
0.000138907
0.0365149
0.000192504
0.000148206
0.00020376
0.000191576
0.0399444
0.0248199
0.00019856
0.00682801
0.000157597
0.0207889
0.000139859
0.0168264
0.00375312
0.000153166
0.000182469
0.000146349
0.0300194
0.0123302
0.000173499
0.0236742
0.00013871
0.0294432
0.000186367
0.000223146
0.000177639
0.000140349
0.000196732
0.000183696
0.000156109
0.000182527
0.00016563
0.000167364
0.0140665
0.000202444
0.000154394
0.00016503
0.00017021
0.000166761
0.000151785
0.0421043
0.000193516
0.000994104
0.0107962
0.000145051
0.0293074
0.000144521
0.000156318
0.00015506
0.0292257
0.000170921
0.0355698
0.0155196
0.000184023
0.000191839
0.000195347
0.0255958
0.000198806
0.0172827
0.000170566
0.000175419
0.000142862
0.0315687
0.00267689
0.000169633
0.000145271
0.000170487
0.00015895
0.000156869
0.000177221
0.000171721
0.000147825
0.000168625
0.0158387
0.0311332
0.000222259
0.000173371
0.000132936
0.0269967
0.000166366
0.00018328
0.00318357
0.000173856
0.038483
0.000135859
0.000168185
0.000156055
0.000168311
0.000143766
0.0300476
0.00311062
0.0146933
0.000171125
0.0313729
0.000167313
0.000158506
0.0261683
0.000183742
0.000182436
0.012535
0.000182365
0.0001559
0.000172292
0.00018628
0.000156907
0.000621822
0.0252021
0.0045823
0.000140406
0.000151914
0.000218187
0.031623
0.000143275
0.000175375
0.000144918
0.000165328
0.0185432
0.000164025
0.000163485
0.000140725
0.000140358
0.0156798
0.0245987
0.00014705
0.0337816
0.000198397
0.00013514
0.000160141
0.0315346
0.000194786
0.000191571
0.00014445
0.000161005
0.000203651
0.000146304
0.000143629
0.0292097
0.000163774
0.0301011
0.000188352
0.000159404
0.0347238
0.00019943
0.000204488
0.000140971
0.00323842
0.000163689
0.000160153
0.0239291
0.000172787
0.000148226
0.000192977
0.000156713
0.000158691
0.000135705
0.00381598
0.000144875
0.000188425
0.0112762
0.000192208
0.000142669
0.000967274
0.000164799
0.0138917
0.000180668
0.024951
0.000196202
0.0330764
0.00013904
0.000186405
0.000158114
0.000142283
0.0051011
0.016506
0.000157077
0.00175478
0.000157787
0.000185622
0.0251217
0.000158974
0.00280577
0.0178591
0.0159692
0.0256213
0.00106822
0.00038208
0.000140754
0.00018876
0.000169838
0.00913252
0.0362698
0.0363086
0.0412219
0.0384955
0.000140163
0.000601179
0.000144077
0.000151425
0.000147533
0.00176089
0.000190287
0.000192635
0.000142907
0.00921974
0.000161231
0.0217908
0.000142475
0.00018512
0.000164245
0.00018492
0.000175257
0.000191651
0.000152958
0.000111009
0.000212449
0.00014125
0.0242992
0.000152402
0.000198947
0.000155913
0.000164577
0.000146472
0.000144017
0.000183276