/*--------------------------------*- C++ -*----------------------------------*\
| =========                 |                                                 |
| \\      /  F ield         | OpenFOAM: The Open Source CFD Toolbox           |
|  \\    /   O peration     | Version:  v2012                                 |
|   \\  /    A nd           | Website:  www.openfoam.com                      |
|    \\/     M anipulation  |                                                 |
\*---------------------------------------------------------------------------*/
FoamFile
{
    version     2.0;
    format      ascii;
    class       surfaceVectorField;
    location    "450";
    object      Uf;
}
// * * * * * * * * * * * * * * * * * * * * * * * * * * * * * * * * * * * * * //

dimensions      [0 1 -1 0 0 0 0];


internalField   nonuniform List<vector> 
20537
(
(1.02342 -0.0109888 1.53586e-22)
(1.02344 -0.0110471 -1.97986e-22)
(1.02376 -0.0110771 8.73121e-23)
(0.622846 -0.0568439 -1.17274e-21)
(0.679861 -0.058287 -3.06897e-21)
(0.669101 -0.0835757 8.08015e-22)
(1.04195 -0.057062 -3.83848e-21)
(1.03964 -0.0560805 -1.73683e-21)
(1.03945 -0.0585864 -5.94108e-21)
(1.02281 -0.0109328 7.41618e-23)
(1.02319 -0.0110074 -9.05589e-23)
(1.02302 -0.0110232 -1.7823e-22)
(1.06878 -0.052671 0)
(1.06738 -0.0536573 3.8587e-22)
(1.0673 -0.0518761 0)
(1.01669 -0.0518005 0)
(1.0243 -0.0494699 1.05136e-21)
(1.02001 -0.0445691 3.53414e-22)
(1.03135 -0.000663122 0)
(1.03197 -0.000841781 0)
(1.03175 -0.000370658 -3.48168e-21)
(1.04588 -0.0400959 7.16738e-21)
(1.04696 -0.0392536 5.57338e-21)
(1.04723 -0.0410641 -3.09635e-21)
(1.00815 -0.00263589 -5.13903e-23)
(1.00831 -0.00273868 1.35737e-22)
(1.00805 -0.00259856 0)
(1.01299 -0.0335649 1.87752e-21)
(1.01624 -0.0314647 7.89728e-22)
(1.01692 -0.0355288 -3.27974e-23)
(0.912949 0.0999156 2.812e-22)
(0.900857 0.0938835 0)
(0.908803 0.0804365 5.4261e-23)
(0.393034 -0.0114287 8.4198e-22)
(0.37893 -0.0268016 0)
(0.352583 -0.00683604 -2.36493e-21)
(0.970752 -0.0510914 2.7734e-23)
(1.01158 -0.0517994 -3.65702e-21)
(0.977232 -0.0494422 -1.44779e-20)
(0.00186125 0.0841305 -3.08381e-21)
(0.0170557 0.0634855 6.63374e-22)
(-0.0233532 0.0624389 -4.52537e-21)
(1.02032 -0.000389388 -1.06339e-21)
(1.02033 -0.000350305 -7.88991e-24)
(1.02043 -0.000406632 -2.12545e-23)
(1.03865 -0.0264346 -1.06352e-21)
(1.03902 -0.0267846 -1.46711e-21)
(1.03859 -0.0269728 -4.58618e-22)
(1.04399 -0.0202103 1.34294e-21)
(1.04325 -0.0198087 -2.26073e-22)
(1.04395 -0.0195699 6.38124e-21)
(1.02277 -0.0192002 0)
(1.02359 -0.0195352 0)
(1.02293 -0.0202515 0)
(1.08714 -0.0643171 -3.54592e-21)
(1.08713 -0.0673424 -1.75293e-22)
(1.09294 -0.0657711 1.05028e-22)
(1.008 -0.00254129 -2.23338e-22)
(1.00826 -0.00268124 -2.9865e-22)
(1.02237 -0.0107722 1.89739e-22)
(1.02263 -0.0108084 -7.27591e-23)
(1.04481 -0.0559654 0)
(1.0447 -0.0586215 9.41872e-22)
(1.00099 7.71112e-05 7.92352e-23)
(1.00131 0.00010883 7.36764e-23)
(1.00165 0.000146865 -1.42164e-22)
(1.00315 -0.000237554 5.4155e-22)
(1.00175 -9.01085e-05 -2.52633e-22)
(1.00323 -0.000241007 -7.47481e-22)
(1.00074 4.48722e-05 0)
(1.00046 1.102e-05 -1.9953e-22)
(1.04447 -0.0394441 -4.39066e-21)
(1.0447 -0.041245 -3.32701e-21)
(1.0522 -0.0146141 -6.94994e-21)
(1.05172 -0.0139445 -1.42501e-21)
(1.05132 -0.0145416 1.38411e-22)
(0.00718595 -0.0831389 -1.17038e-20)
(0.0104289 -0.0806305 4.40053e-22)
(1.02319 -0.0109452 2.67396e-22)
(1.02348 -0.0110389 1.09533e-23)
(1.02941 -0.0179071 1.98882e-22)
(1.02993 -0.0182618 -9.21263e-22)
(1.02941 -0.0183595 -7.92333e-22)
(1.00844 -0.0521215 0)
(1.01287 -0.0590628 -2.34543e-22)
(1.04392 -0.0209565 -2.26576e-21)
(1.04475 -0.0207329 -1.20213e-21)
(1.03947 -0.0536736 8.11215e-23)
(1.03713 -0.0548936 5.23208e-21)
(0.950536 -0.128872 4.93604e-22)
(0.949484 -0.101982 -2.74024e-22)
(0.93563 -0.117769 -3.0045e-21)
(1.00312 -0.000198136 2.41812e-22)
(1.00434 -0.000362241 2.22116e-22)
(1.0854 -0.0446056 -3.15906e-21)
(1.0857 -0.0448771 -6.20217e-21)
(1.0849 -0.0450743 -1.67045e-20)
(1.0907 -0.0457254 2.06984e-21)
(1.09132 -0.0452508 1.0039e-20)
(1.09142 -0.0461334 -3.36584e-21)
(1.06309 -0.0919835 -2.51801e-22)
(1.06797 -0.0918928 4.27673e-21)
(1.06352 -0.0876061 7.10371e-21)
(1.00946 -0.0322069 -1.87624e-21)
(1.01045 -0.0373507 3.42666e-21)
(0.965816 -0.139278 2.3306e-21)
(0.946813 -0.150343 -2.51676e-21)
(1.01862 -0.0071185 3.45088e-22)
(1.0187 -0.00726099 -2.79515e-22)
(1.01895 -0.00732847 2.44991e-22)
(1.00747 0.00188058 -8.89804e-23)
(1.0073 0.00182686 -4.29799e-23)
(1.0072 0.00175239 -6.47216e-24)
(0.0187397 0.0881208 1.01554e-20)
(0.0273155 0.0820228 1.41098e-20)
(0.0165678 0.0747942 8.19795e-21)
(0.884627 0.072701 -7.8154e-22)
(0.884173 0.0406336 1.08924e-21)
(0.885873 0.063184 7.16631e-22)
(0.886496 0.0983729 2.69772e-21)
(0.887866 0.079792 5.415e-21)
(0.129383 0.104131 0)
(0.157188 0.0908205 1.50599e-21)
(0.174106 0.0914861 0)
(0.910127 0.0059753 -7.48526e-21)
(0.900764 0.0319912 2.3429e-21)
(0.913267 0.0397105 8.01194e-21)
(0.884901 0.146201 -3.13024e-21)
(0.866837 0.1543 -2.66554e-22)
(0.873818 0.160264 -7.99306e-22)
(1.05263 -0.0153165 7.28965e-22)
(1.05306 -0.014668 -6.51387e-21)
(0.993218 -0.0135883 -2.98247e-21)
(0.996822 -0.0112292 8.91611e-22)
(0.996613 -0.0164215 6.0777e-22)
(1.07623 -0.0425567 -1.08924e-20)
(1.077 -0.0428477 1.14352e-21)
(1.07674 -0.0419525 3.04573e-21)
(1.08269 -0.0488599 -5.95834e-21)
(1.08228 -0.0483891 -5.98874e-21)
(1.08319 -0.0480472 6.17642e-21)
(-0.036615 0.014687 4.22186e-21)
(-0.0290497 0.0220903 -1.35859e-20)
(-0.0260097 0.00688024 -1.65852e-20)
(1.02005 -0.000431674 -1.06448e-21)
(1.01965 -0.000224107 8.4923e-22)
(1.02018 -0.000445273 -4.31307e-22)
(1.01296 -0.000777788 7.61279e-24)
(1.01289 -0.000745531 0)
(1.01389 -0.000887419 0)
(1.00765 0.00193528 -4.44591e-23)
(1.00774 0.0020182 8.10064e-25)
(1.00227 -0.000113658 -4.08297e-22)
(1.00274 -0.000144195 2.31853e-22)
(1.00195 -9.11297e-05 -9.43659e-23)
(-0.0812733 0.00011387 0)
(-0.0939015 0.0117897 0)
(-0.079882 -0.00519968 1.33072e-20)
(1.02939 -0.0173153 4.78547e-22)
(1.02882 -0.0174449 5.30786e-22)
(1.03294 -0.00325585 -1.25255e-21)
(1.0324 -0.00300193 -1.89223e-21)
(1.033 -0.00281075 3.51565e-21)
(1.0659 -0.0973493 -2.85513e-21)
(1.05734 -0.0925066 -1.16618e-20)
(0.60883 -0.103445 -6.05799e-21)
(0.610553 -0.093812 2.7708e-21)
(0.574452 -0.106724 1.54379e-20)
(0.999014 -0.0117625 6.72754e-22)
(0.998527 -0.00637486 -3.5345e-21)
(1.00279 -0.00910392 1.75566e-21)
(1.07279 -0.0533691 7.72193e-21)
(1.0717 -0.0542851 1.08237e-21)
(1.07321 -0.05481 7.3755e-21)
(1.07444 -0.0783182 0)
(1.062 -0.0781545 1.15283e-21)
(1.06479 -0.0689233 -1.20938e-21)
(1.0253 -0.0114001 0)
(1.02486 -0.011569 0)
(1.02541 -0.0117441 1.31474e-23)
(1.08025 -0.0468245 -4.21606e-22)
(1.08296 -0.0466473 6.37967e-22)
(0.929965 -0.047785 -6.61282e-22)
(0.920173 -0.0202286 1.22644e-21)
(1.06436 -0.0284167 5.11371e-22)
(1.06345 -0.0288203 -5.77335e-21)
(1.06339 -0.0277423 -5.87654e-21)
(1.02283 -0.0182127 -1.3457e-22)
(1.02206 -0.0186376 -3.19763e-22)
(0.352371 0.0022259 -7.82243e-22)
(0.341924 0.00290374 1.84213e-20)
(0.317872 0.00649969 1.32599e-20)
(1.0196 -0.048439 4.39906e-21)
(1.01824 -0.0496583 4.63665e-21)
(1.053 -0.048922 -1.40582e-21)
(0.578643 -0.0558874 7.33928e-22)
(0.579199 -0.0262821 2.40099e-21)
(1.02021 -0.000377706 -3.17439e-21)
(1.01985 -0.000460174 -3.31477e-23)
(1.01368 -0.00119759 0)
(1.01392 -0.00132779 -7.17111e-22)
(1.01371 -0.00141212 0)
(1.01033 -0.00374449 0)
(1.01027 -0.00371364 8.64279e-23)
(1.01006 -0.00361699 0)
(1.04672 -0.055586 -7.28184e-21)
(1.04508 -0.0546221 -5.84655e-21)
(0.441619 0.00212333 0)
(0.462198 0.00015997 0)
(0.44312 0.00349863 -9.42776e-21)
(1.06105 -0.0393722 1.3029e-23)
(1.06199 -0.0402664 -3.94974e-21)
(1.06075 -0.0406366 4.26858e-22)
(0.331847 0.000720171 -9.97249e-21)
(0.30478 0.00240389 1.23116e-20)
(1.03651 -0.00657869 1.56636e-21)
(1.0358 -0.00658733 -4.93846e-23)
(1.0359 -0.00606466 -3.67853e-21)
(0.891752 -0.0626684 -3.3291e-21)
(0.896071 -0.0569121 2.78857e-22)
(0.891867 -0.0399608 -2.27739e-22)
(1.02297 -0.0037067 -3.57593e-22)
(1.02322 -0.00393834 -8.92201e-22)
(1.02278 -0.00385047 1.74644e-23)
(0.125633 0.0834488 -1.14315e-20)
(0.142472 0.0720757 -3.17127e-20)
(0.107737 0.0813298 3.95567e-21)
(1.00025 -0.0160881 -7.01686e-22)
(0.994806 -0.0144314 -5.13568e-21)
(0.406413 0.00140071 1.24176e-21)
(0.444926 -0.0162682 1.40646e-20)
(1.01205 -0.0303328 1.06192e-21)
(1.01394 -0.0345868 7.01793e-23)
(1.01643 -0.0308457 2.86728e-23)
(0.697274 0.0784257 0)
(0.77309 0.0560109 1.70921e-21)
(0.740298 0.0667958 0)
(1.04969 -0.0192463 -2.12583e-21)
(1.04901 -0.0196294 -5.60277e-21)
(1.04998 -0.0201733 0)
(1.00819 2.75167e-06 1.16951e-22)
(1.00797 -0.000113966 0)
(1.00819 6.71457e-05 0)
(1.08476 -0.0442795 2.55948e-20)
(1.08525 -0.0444114 1.45246e-20)
(1.02602 0.001123 -5.58092e-22)
(1.0257 0.00373674 -5.40472e-22)
(1.0286 0.00195929 -2.16656e-22)
(0.923384 -0.072221 -6.79558e-21)
(1.05315 -0.0230383 -3.79648e-21)
(1.05288 -0.0236468 0)
(1.05377 -0.023697 -2.14539e-23)
(1.04962 -0.0185862 -4.85222e-21)
(1.05056 -0.0189189 9.30796e-23)
(1.00096 -5.41565e-05 6.79642e-23)
(1.00105 -4.65825e-05 -1.40143e-22)
(1.00177 -0.000152235 3.85977e-23)
(1.0702 -0.0537542 -7.22612e-21)
(1.07015 -0.0520106 0)
(0.663804 -0.0167489 -5.92898e-21)
(0.640955 -0.0121722 0)
(0.641314 -0.0127875 0)
(0.988544 -0.0159385 -1.27831e-21)
(0.990167 -0.00983174 4.043e-23)
(1.00015 6.89452e-06 2.37855e-22)
(1.00086 -6.23309e-05 -1.7885e-22)
(-0.108522 0.162885 -3.57806e-21)
(-0.061592 0.168645 1.03113e-21)
(-0.0945768 0.163576 -1.6801e-20)
(1.0678 -0.0395417 0)
(1.06875 -0.0390165 0)
(1.06764 -0.0384647 4.65801e-21)
(1.02322 -0.011227 -1.28912e-22)
(1.02349 -0.0115089 0)
(1.02328 -0.0113429 1.25506e-22)
(1.05689 -0.00747257 3.77381e-21)
(1.05778 -0.00774634 1.84366e-20)
(1.0028 0.000125209 -2.93355e-23)
(1.00361 0.000189071 -4.65323e-23)
(1.00301 0.000122653 2.31695e-23)
(1.00357 -0.0272481 -2.23481e-21)
(1.00026 -0.0239751 2.36829e-21)
(1.00465 -0.0222323 -1.50477e-21)
(1.07146 -0.0395687 0)
(1.07069 -0.0400675 0)
(1.07168 -0.0406353 -6.74817e-21)
(1.00733 0.00151796 -6.48554e-23)
(1.00718 0.00148406 -1.35198e-23)
(1.00711 0.0013913 -2.49906e-23)
(0.941369 -0.0487395 0)
(0.895264 -0.0486527 -7.73045e-21)
(1.03052 -0.0545619 3.59873e-21)
(1.03104 -0.0466619 2.84643e-21)
(1.00158 -0.000122433 -2.94577e-22)
(1.00057 -3.86995e-05 1.98908e-22)
(1.00147 -0.000108694 3.14676e-22)
(1.00845 0.000173397 1.05798e-22)
(1.00819 -9.11066e-05 -6.1778e-23)
(1.02614 -0.000648064 -5.06031e-22)
(1.02405 0.000359101 8.95165e-22)
(1.00048 -6.47096e-06 -4.13147e-23)
(1.00046 -4.78108e-05 -6.52525e-22)
(1.0025 -0.000201922 -3.98259e-22)
(1.00156 -0.000109926 -9.60947e-23)
(0.739482 0.0234923 -7.66054e-21)
(0.752481 0.0455818 -5.24566e-21)
(0.690241 -0.0223691 5.23308e-22)
(0.690772 -0.0232225 -1.08821e-21)
(1.00609 0.000973645 1.12191e-23)
(1.00608 0.00103442 -2.62228e-23)
(1.00619 0.00105657 -2.34534e-23)
(1.00674 -0.000421141 0)
(1.00652 -0.000409373 1.39258e-22)
(1.00444 -0.000215427 1.19445e-22)
(1.01237 -0.000689413 1.27501e-23)
(1.01103 -0.000640495 -2.67256e-22)
(1.01057 -0.000514861 -5.64268e-22)
(0.0154917 0.0954503 -4.7026e-21)
(0.0100257 0.0930903 -9.53274e-21)
(1.0564 -0.00840492 -6.04572e-21)
(1.05577 -0.00739732 -6.92735e-21)
(0.966747 -0.0534527 9.18941e-21)
(0.928142 -0.0505477 9.55642e-21)
(0.841904 0.0837327 -1.10226e-21)
(0.907653 0.132901 -1.87116e-21)
(0.897959 0.129617 -5.14252e-22)
(1.01052 0.00609296 4.15571e-22)
(1.01092 0.00567695 1.67255e-22)
(1.01135 0.0067733 3.77191e-22)
(0.936783 0.114319 -1.20584e-21)
(0.916054 0.130034 3.04791e-21)
(1.06421 -0.03953 3.70531e-21)
(1.06516 -0.0393554 -5.64813e-21)
(1.06486 -0.0405833 -1.32313e-22)
(1.02208 -0.0106392 3.06685e-22)
(1.02219 -0.0107483 2.41206e-22)
(1.07524 -0.0679288 0)
(1.07512 -0.0659301 0)
(1.07747 -0.067029 8.84033e-21)
(1.01831 -0.00690161 0)
(1.01855 -0.00696407 -3.46962e-22)
(1.00862 -0.00206584 -3.90796e-23)
(1.00883 -0.00219197 -2.99599e-23)
(1.00875 -0.00205522 1.99386e-23)
(0.361714 -7.08443e-05 -1.2704e-20)
(0.373088 -0.00345696 -1.94833e-20)
(1.02311 -0.00351627 -6.54595e-22)
(1.02267 -0.00343911 3.86539e-22)
(0.7479 -0.0286578 3.40704e-21)
(1.00864 -0.00092701 -7.07645e-23)
(1.00846 -0.000891044 1.53554e-23)
(1.00814 -0.00074726 -2.77182e-24)
(1.00611 0.000895918 8.22517e-23)
(1.00599 0.000871391 -4.40329e-23)
(1.02474 -0.0474799 -1.21521e-20)
(1.02961 -0.0471648 1.03545e-21)
(1.05829 -0.0478067 4.00067e-22)
(0.179582 -0.140803 -5.86481e-22)
(0.130592 -0.127806 6.3245e-21)
(0.149428 -0.137321 -3.11546e-21)
(0.175835 -0.114387 1.68146e-22)
(0.23195 -0.103254 -2.20987e-22)
(0.187336 -0.11876 2.27385e-21)
(-0.122573 0.155939 -6.69246e-21)
(-0.13104 0.15172 0)
(1.01329 -0.000933307 2.54041e-22)
(1.01151 -0.000461772 -2.72497e-22)
(1.0147 -0.00472589 4.92687e-22)
(1.01481 -0.00463575 4.66065e-22)
(1.0151 -0.00449251 -4.20215e-23)
(1.009 0.0026213 1.38906e-22)
(1.00879 0.00253155 9.61269e-23)
(1.0091 0.00263236 -1.79396e-22)
(1.03696 -0.0161949 -1.40262e-21)
(1.03751 -0.0167323 0)
(1.03742 -0.0160029 0)
(0.886486 0.0165368 2.34641e-21)
(0.885525 0.00964478 -1.81904e-21)
(1.03036 -0.00124764 -1.78485e-21)
(1.02765 -0.0026282 5.34381e-23)
(1.02752 0.000774899 2.6127e-21)
(1.07617 -0.0708029 0)
(1.07268 -0.0692741 0)
(1.03067 -0.000441144 -7.84136e-22)
(1.03084 -0.00089363 0)
(0.889462 0.112476 -6.07694e-22)
(0.88709 0.119115 -1.24105e-21)
(1.08504 -0.0374817 0)
(1.08483 -0.0381806 0)
(1.0113 -0.000759267 -3.55452e-22)
(1.01163 -0.000753913 1.9302e-21)
(1.01254 -0.000823853 -1.15473e-22)
(-0.0308594 0.101377 -2.55008e-21)
(0.045894 0.098848 -3.21567e-21)
(1.00186 -9.23184e-05 -4.72159e-22)
(1.00257 -0.00014179 -5.70508e-23)
(1.04265 -0.0129519 -2.85907e-21)
(1.04329 -0.0130271 -2.65502e-22)
(1.04277 -0.0123615 -1.98117e-21)
(1.0365 -0.0164884 -4.69612e-22)
(1.03632 -0.0157558 1.89135e-21)
(1.01327 -0.00485478 3.94917e-23)
(1.01301 -0.00470733 3.58141e-23)
(1.01319 -0.00483956 4.71433e-23)
(1.03015 -0.0163121 7.40917e-22)
(1.03007 -0.0158517 -1.14309e-21)
(1.03058 -0.0162234 -2.38411e-21)
(1.08389 -0.0493999 0)
(1.0824 -0.049646 1.12268e-20)
(1.07537 -0.0422118 -6.41862e-21)
(1.07563 -0.0431754 -8.05352e-21)
(1.0116 0.00306732 6.26443e-24)
(1.01122 0.00294067 -1.09247e-23)
(1.01157 0.00300168 -4.59376e-24)
(1.05921 -0.0203331 -3.43121e-21)
(1.05909 -0.0209847 -6.32592e-21)
(1.05994 -0.0208235 6.98035e-21)
(-0.0709465 -0.0107463 0)
(-0.0778305 0.00515114 -5.04447e-21)
(1.00841 -0.00194594 -7.0674e-23)
(1.00851 -0.00207634 -5.1421e-23)
(1.03269 -0.0237036 -2.09684e-22)
(1.03344 -0.0234193 -3.64169e-22)
(1.03263 -0.0228963 -4.01479e-22)
(1.00801 0.00229002 -1.58902e-23)
(1.00809 0.00232512 5.89802e-23)
(1.00781 0.00220208 -5.78362e-23)
(1.03294 0.0015522 2.2333e-22)
(1.03253 -0.00394139 8.40501e-22)
(1.06531 -0.0290868 1.30925e-20)
(1.06521 -0.0279762 1.23394e-20)
(1.02198 -0.0104759 -1.24159e-22)
(1.02172 -0.0104622 1.88136e-23)
(0.53971 0.0113042 -8.49441e-21)
(0.477261 0.0187322 -1.90257e-20)
(0.536388 0.0133908 3.94476e-21)
(0.41338 0.00525268 -1.10817e-20)
(0.438728 0.00175784 0)
(1.00475 -0.000951197 -2.46357e-22)
(1.00488 -0.00101809 0)
(1.00485 -0.0010147 2.66001e-22)
(1.01354 -0.00501073 -4.79266e-23)
(1.01336 -0.00487217 6.34002e-24)
(0.14218 -0.122893 0)
(0.170592 -0.106163 0)
(1.00821 -0.0018238 3.35409e-23)
(1.00832 -0.00180882 -3.82322e-23)
(0.85745 0.157005 -5.77001e-21)
(0.856825 0.141311 -5.19365e-21)
(1.06294 -0.0399661 -3.65629e-22)
(1.06322 -0.0386504 -2.20948e-21)
(1.0143 -0.00557904 6.00431e-22)
(1.01432 -0.00583754 1.96446e-22)
(1.0143 -0.0056857 8.60633e-22)
(1.06085 -0.0615806 1.62532e-21)
(1.09246 -0.0618525 -2.8843e-21)
(1.00781 0.00175387 -1.86154e-23)
(1.00798 0.00179052 3.99772e-23)
(1.00809 0.00188719 8.41371e-23)
(1.04453 -0.0220723 -2.1695e-21)
(1.04389 -0.021609 -3.33303e-21)
(1.04386 -0.0222759 0)
(0.983804 -0.0480818 -1.24599e-20)
(1.0229 -0.00306024 2.50619e-21)
(1.02262 -0.00283899 2.2896e-23)
(1.02252 -0.00302067 2.51092e-21)
(1.0445 -0.0607354 -6.58165e-21)
(1.04691 -0.0597279 -8.24584e-21)
(1.00708 0.000691398 0)
(1.0067 0.000579826 0)
(1.00704 0.000644991 4.78854e-24)
(1.00062 1.57592e-05 7.68914e-23)
(1.00083 2.78665e-05 -8.71123e-23)
(1.00132 3.78995e-05 -4.11015e-22)
(1.02564 -0.0112128 0)
(1.02504 -0.0111766 2.53006e-22)
(1.01339 -0.00100106 3.47414e-22)
(1.01337 -0.00093876 1.34673e-21)
(1.06777 -0.0572007 4.91217e-21)
(1.06621 -0.058181 -3.58067e-22)
(1.06808 -0.059288 -1.621e-21)
(1.0397 -0.010222 -6.47098e-22)
(1.03859 -0.00643958 -7.13088e-22)
(1.03577 -0.0100878 -5.94838e-22)
(0.906973 -0.0265817 -1.95534e-21)
(-0.0435198 0.00502613 2.62636e-20)
(-0.0491443 0.0211103 1.0619e-21)
(1.00864 0.0003225 7.23048e-23)
(1.00856 0.000245691 -2.51856e-23)
(1.00886 0.00052997 6.4764e-23)
(1.06001 -0.0304992 1.47753e-21)
(1.06082 -0.0300278 1.49753e-21)
(1.05991 -0.0294573 -5.021e-21)
(0.604804 -0.11257 1.03349e-22)
(0.638705 -0.10204 -1.05527e-20)
(1.04116 -0.0126737 2.59411e-21)
(1.04187 -0.0128625 -6.31263e-22)
(1.04133 -0.0122325 5.49889e-21)
(1.01459 -0.00477544 2.51167e-22)
(1.01439 -0.00485593 0)
(0.91597 -0.136711 -4.055e-21)
(0.914654 -0.119432 2.88469e-22)
(0.930409 -0.127942 -3.63201e-21)
(1.01433 -0.0052721 -5.38735e-22)
(1.0142 -0.00545339 -5.42823e-22)
(1.01039 -0.0037769 0)
(1.0106 -0.0038724 -1.97394e-22)
(1.00989 0.00656342 -1.33966e-22)
(1.00986 0.00543741 1.11541e-22)
(0.260323 0.0690255 6.86827e-21)
(0.322963 0.0444102 -3.28023e-21)
(0.304213 0.0520927 1.98989e-20)
(1.00335 -0.000153013 0)
(1.00575 -0.000239868 0)
(1.00285 -0.000180503 0)
(1.0202 -0.00505306 0)
(1.01985 -0.00484621 0)
(1.02001 -0.00513994 0)
(1.02973 -0.0184515 -1.80216e-21)
(1.03193 -0.0192327 3.9794e-22)
(1.03026 -0.0207953 -6.8498e-22)
(1.02331 -0.00307682 0)
(1.0232 -0.00328913 -1.63006e-21)
(0.422171 -0.154917 5.60532e-21)
(0.367815 -0.160413 -1.98551e-21)
(0.382423 -0.160343 2.32283e-22)
(1.04572 -0.0202314 -3.19526e-21)
(1.04531 -0.0195177 -1.7307e-21)
(1.04628 -0.0196933 -2.61014e-21)
(0.486137 -0.010995 3.21261e-21)
(0.467231 -0.00808745 1.51334e-20)
(0.484687 -0.0114276 1.28456e-20)
(1.00941 0.00227527 2.46482e-23)
(1.00973 0.00239762 1.44141e-23)
(1.00952 0.00237018 2.01023e-24)
(0.738048 -0.0361744 -4.02132e-21)
(0.700663 -0.0347002 3.12791e-21)
(0.71089 -0.0342067 -7.72947e-21)
(1.02316 -0.0110546 -1.44681e-22)
(1.02294 -0.0109203 2.03691e-23)
(0.902321 -0.16166 -4.73238e-21)
(0.897905 -0.150558 1.3463e-21)
(0.895345 -0.154126 8.24041e-21)
(1.008 0.00165999 6.80515e-24)
(1.0078 0.00161478 -6.29066e-23)
(1.00773 0.00153068 -6.27071e-23)
(1.00875 0.00257929 1.26221e-22)
(1.00896 0.00268097 1.99598e-22)
(1.00864 0.00255265 -2.01447e-22)
(0.972364 0.0837023 4.6828e-22)
(0.956544 0.0929438 1.01755e-21)
(0.966281 0.0822776 4.84864e-22)
(1.00012 -0.0237823 -2.31922e-21)
(1.00177 -0.019985 0)
(1.00516 -0.0236686 1.15038e-21)
(0.0909255 0.11166 0)
(0.102668 0.112977 8.95715e-22)
(1.02081 -0.00100228 -2.26417e-21)
(1.02065 -0.00086539 -9.50737e-22)
(1.02058 -0.000978479 0)
(0.489237 -0.0109101 2.57581e-21)
(0.506868 -0.0138323 -4.18798e-21)
(1.04533 -0.02061 -2.40011e-21)
(1.04607 -0.0207191 2.86615e-21)
(1.03709 -0.00697957 4.13876e-22)
(1.03716 -0.00643174 6.37955e-21)
(0.756195 -0.0306588 0)
(0.729738 -0.0288752 -1.181e-21)
(0.727996 -0.0292424 0)
(1.08017 -0.0549073 -2.16857e-21)
(1.08064 -0.0562244 7.79756e-21)
(1.08184 -0.0549589 6.70115e-21)
(0.645713 -0.0326093 6.59138e-21)
(0.617081 -0.0302986 0)
(0.617261 -0.0313749 4.52729e-21)
(1.00056 2.92398e-05 4.54892e-22)
(1.00057 2.92708e-05 -5.3383e-22)
(1.0001 3.23449e-05 6.05872e-24)
(1.05426 -0.0258767 -1.45021e-20)
(1.05508 -0.0266294 5.12595e-21)
(1.05403 -0.0268239 -7.83181e-21)
(1.00259 0.000106736 4.03999e-23)
(1.00192 4.20265e-05 -2.055e-23)
(-0.0715115 0.0638035 -5.19581e-21)
(-0.0634343 0.0709701 5.78788e-21)
(-0.0629791 0.0613181 2.05746e-20)
(1.0082 0.00170849 7.07139e-23)
(1.00827 0.00179692 8.99002e-24)
(1.04317 -0.0388799 1.12735e-21)
(1.04409 -0.0380049 -4.93051e-21)
(0.995677 -0.0860639 3.34707e-22)
(1.0052 -0.0867158 1.62125e-21)
(1.00008 -0.0972069 -3.31706e-22)
(1.00467 -0.0008819 -5.56142e-23)
(1.00463 -0.000882466 -2.40937e-22)
(1.00868 0.000347319 -1.59777e-22)
(1.07705 -0.0396621 -3.68398e-21)
(1.07643 -0.0402584 1.92551e-21)
(1.07616 -0.0393957 -2.69755e-22)
(1.02439 -0.035962 3.16523e-22)
(1.02496 -0.0339651 6.54323e-23)
(1.02265 -0.0338645 -4.66868e-23)
(0.470268 -0.150005 5.47053e-21)
(0.455591 -0.150849 3.52495e-21)
(1.08187 -0.0851137 0)
(1.08347 -0.0756828 -2.4612e-21)
(1.00888 0.00260506 1.36164e-22)
(1.00919 0.00271579 -1.11399e-23)
(1.02036 -0.0049807 -1.54664e-21)
(1.02051 -0.00524677 1.1419e-21)
(1.00619 -0.0447893 0)
(1.0004 -0.0512167 0)
(0.935111 0.0261099 4.10013e-22)
(0.937681 0.0130771 4.12703e-22)
(0.951225 0.0255736 -7.13295e-21)
(1.01498 0.00395385 3.76865e-22)
(1.01442 0.0038937 -2.52635e-23)
(1.01482 0.00412859 -5.77261e-23)
(1.02745 -0.0180098 -2.59937e-22)
(1.02935 -0.0159128 -1.01846e-21)
(1.00437 0.000274328 -4.63807e-23)
(1.00414 0.000252503 -8.47918e-23)
(0.583992 -0.026134 -9.51473e-21)
(0.560804 -0.0236304 -1.44882e-20)
(0.579708 -0.0258885 -9.24083e-21)
(1.06698 -0.0401232 0)
(1.06808 -0.0407265 0)
(0.913953 -0.167663 4.47908e-21)
(0.917853 -0.163673 -6.13804e-21)
(0.907623 -0.167123 -3.88263e-21)
(1.03613 -0.0167011 9.60727e-22)
(1.03567 -0.0168779 1.59227e-21)
(1.03554 -0.0162258 -5.85058e-23)
(1.03943 -0.0219476 1.13123e-21)
(1.03934 -0.0212509 -3.4647e-21)
(1.03883 -0.0216003 -6.69561e-21)
(1.01868 -0.0143551 1.4579e-22)
(1.02017 -0.0151206 -3.65508e-22)
(1.01941 -0.0131089 -4.57122e-22)
(0.934262 0.039289 7.15232e-22)
(0.919169 0.0272129 0)
(1.03215 -0.0100461 1.91325e-22)
(1.03252 -0.0104284 6.24742e-22)
(1.03191 -0.0103071 -2.02529e-21)
(1.03672 -0.0171166 -2.89164e-22)
(1.07456 -0.0354326 0)
(1.07545 -0.0358011 0)
(1.07443 -0.0363342 7.50261e-21)
(0.985421 0.0722222 2.96296e-21)
(0.953845 0.0773756 2.27742e-21)
(0.991907 0.0649311 1.8714e-20)
(1.04339 -0.0110662 1.38568e-21)
(1.04089 -0.0137686 2.45868e-21)
(0.993695 -0.0469072 5.96693e-21)
(1.03158 -0.0464796 -1.61884e-22)
(0.410445 0.00633977 1.17785e-20)
(0.334788 0.0134309 9.28347e-21)
(0.29992 0.0114644 -2.71436e-22)
(1.02349 -0.000588987 2.51447e-21)
(1.02311 -0.000463195 6.00363e-22)
(1.02318 -0.000690581 3.95923e-21)
(1.00856 0.00248924 -8.25658e-23)
(1.02285 -0.017352 -1.45554e-22)
(1.02243 -0.0165819 0)
(1.02306 -0.0163513 0)
(0.978986 -0.164736 2.97131e-22)
(0.997725 -0.152424 4.23565e-21)
(0.993566 -0.177839 2.62585e-22)
(1.00889 0.00275323 5.39082e-23)
(1.00886 0.0026828 0)
(1.00919 0.00293144 -1.17545e-22)
(1.02964 -0.0712883 -1.34163e-20)
(1.03596 -0.0744828 -2.80493e-24)
(0.991313 -0.0720726 1.29435e-21)
(1.04109 -0.013248 -1.95019e-21)
(1.04057 -0.0126313 1.48708e-23)
(1.03237 -0.00977843 0)
(1.03177 -0.00964792 0)
(1.05353 -0.0224323 -3.66723e-21)
(1.05263 -0.0225096 -6.79921e-21)
(0.785939 -0.0334285 0)
(0.783138 -0.0329534 0)
(1.02427 0.0122874 -2.51565e-21)
(1.02167 0.00969415 1.1109e-21)
(1.02089 0.0135836 -4.41393e-22)
(1.0175 -0.0154989 -3.65e-22)
(1.0176 -0.0135453 3.26472e-22)
(1.04244 -0.0135496 -6.37014e-21)
(1.01476 -0.100808 -1.26336e-22)
(1.02538 -0.0873881 1.58752e-22)
(1.02999 -0.110459 3.84471e-22)
(1.06008 -0.0385389 -4.35646e-22)
(1.06126 -0.0381628 5.57264e-21)
(1.03828 -0.0262151 1.14305e-21)
(1.03848 -0.0259995 2.47903e-21)
(1.00903 -0.0023142 -5.73124e-23)
(1.00891 -0.00231513 -9.12427e-23)
(0.892528 -0.0789322 -1.45828e-22)
(0.89166 -0.0639296 -1.40175e-22)
(1.03371 0.0130687 0)
(1.03091 0.0202158 3.19718e-22)
(1.03019 0.0184788 -3.74017e-23)
(0.659883 -0.0387638 6.41547e-21)
(0.628982 -0.035665 0)
(0.627741 -0.0374236 1.17722e-21)
(0.926399 0.0996527 2.96667e-22)
(0.917093 0.11153 -1.98103e-20)
(1.01552 0.00401479 2.28683e-23)
(1.01503 0.00387239 9.83419e-23)
(1.00919 0.00207446 -3.33007e-23)
(1.0093 0.00218421 0)
(1.00951 0.00220044 8.19606e-24)
(1.00317 0.000118182 5.52168e-25)
(1.00342 0.000143677 -2.41321e-23)
(1.00402 0.000236354 4.98271e-23)
(1.07472 -0.0346786 -6.91871e-21)
(1.07384 -0.0351012 4.17341e-22)
(0.955216 -0.180756 -6.21727e-22)
(0.960234 -0.15006 -3.36176e-23)
(0.852795 0.155863 6.59778e-22)
(0.837504 0.134922 0)
(0.84924 0.1509 -5.11675e-22)
(1.0093 -0.00323712 0)
(1.00946 -0.00331423 0)
(1.0096 -0.00338272 -1.09864e-22)
(1.02088 0.000198608 1.12034e-21)
(1.02095 7.33083e-05 -1.48175e-21)
(1.02109 0.000203075 5.57966e-22)
(0.999403 -0.112434 5.16251e-21)
(1.0034 -0.0917358 -1.14138e-22)
(0.904714 -0.078174 2.64011e-22)
(0.898306 -0.0888087 2.93229e-22)
(0.904671 -0.0874967 2.41106e-21)
(1.07683 -0.0732186 0)
(1.07929 -0.0714885 5.89146e-21)
(1.02933 -0.0168711 5.49344e-22)
(1.02985 -0.017237 -1.44374e-21)
(1.03348 -0.00346099 -6.95217e-22)
(1.03289 -0.0035867 -1.46221e-21)
(1.06348 -0.0309037 -1.09898e-22)
(1.06259 -0.0313012 -6.17708e-21)
(1.06357 -0.0320398 2.13084e-21)
(0.902451 -0.0655316 4.67303e-22)
(0.913242 -0.0664589 -2.21716e-22)
(1.06195 -0.0708691 -8.00539e-21)
(1.01864 -0.0675832 4.00356e-21)
(1.03407 -0.0229152 -1.29336e-22)
(1.03385 -0.0225368 -1.67773e-22)
(1.03442 -0.0226404 5.32621e-23)
(0.396573 0.0197135 -4.43416e-21)
(0.442226 0.0155585 -8.04001e-21)
(1.00929 -0.00256188 -3.93173e-23)
(1.0094 -0.00256875 0)
(1.00921 -0.00242833 0)
(0.589374 -0.0260966 1.73336e-20)
(0.610009 -0.0282745 1.29292e-20)
(1.05859 -0.0198804 2.64964e-21)
(1.05945 -0.0196603 3.00339e-21)
(1.0426 -0.0194446 -1.55511e-21)
(1.04265 -0.0200451 1.44226e-21)
(0.672174 -0.0395633 3.06336e-21)
(0.635845 -0.038155 1.6091e-21)
(0.646024 -0.0375403 -1.3703e-20)
(1.02356 -0.0097184 6.79031e-23)
(1.02344 -0.00980156 -1.8574e-21)
(1.02382 -0.0099723 9.4284e-23)
(1.0081 -0.0292053 -8.87371e-22)
(1.00381 -0.0324235 -4.58032e-22)
(0.646745 -0.0245298 7.4418e-23)
(0.646167 -0.0227701 0)
(0.672129 -0.02576 -8.65219e-21)
(1.00904 -0.00310594 -2.14721e-22)
(1.00916 -0.00316826 0)
(1.07067 -0.0324908 5.54794e-21)
(1.07165 -0.0329705 2.77212e-21)
(1.07064 -0.0335877 4.40892e-22)
(1.05189 -0.0238496 5.45772e-21)
(1.05273 -0.0245804 7.53959e-21)
(1.02926 -0.0163995 7.0617e-22)
(1.02883 -0.0164489 2.26862e-21)
(0.230467 -0.147587 3.71164e-21)
(0.218224 -0.143459 -1.77319e-21)
(1.03381 -0.0231687 0)
(1.03437 -0.023283 0)
(1.03053 -0.0102044 -1.60545e-22)
(1.03084 -0.0101022 1.83028e-21)
(1.031 -0.0105646 2.79347e-21)
(0.722742 -0.0280292 -5.52785e-21)
(0.71449 -0.0261591 7.07062e-21)
(0.692712 -0.0231315 4.49393e-21)
(1.00748 0.0019703 -1.29264e-22)
(1.00754 0.00202794 7.74723e-23)
(1.00728 0.00189714 -5.32616e-23)
(1.03963 -0.0224425 4.3481e-21)
(1.04 -0.0221097 5.79865e-21)
(1.0091 0.00677833 -3.61512e-22)
(1.00809 0.00677636 -5.1189e-23)
(1.00864 0.00562833 -5.04701e-23)
(0.696594 -0.0417617 -2.66278e-21)
(0.697565 -0.0411725 7.15686e-21)
(1.08442 -0.0428174 -5.49342e-21)
(1.08458 -0.0431396 -5.68852e-21)
(1.08478 -0.0427789 -1.87017e-20)
(1.02103 -0.00101142 -2.18435e-21)
(1.02097 -0.00113911 1.35054e-22)
(1.07146 -0.037716 7.58182e-21)
(1.0714 -0.0387083 0)
(1.07053 -0.038 0)
(1.02111 -0.000511859 -1.88884e-21)
(1.02118 -0.000628308 -2.01058e-21)
(1.02136 -0.00051724 -1.91727e-21)
(0.443253 0.00354187 -1.44676e-20)
(0.455157 0.00545753 1.78696e-21)
(1.02184 -0.0162638 -2.93931e-23)
(1.02167 -0.0184918 1.0094e-23)
(1.024 -0.0176534 4.63981e-22)
(1.00092 7.11537e-05 -1.17885e-22)
(1.00116 8.91085e-05 -1.46795e-22)
(1.00161 0.000121491 -1.97759e-22)
(1.01484 -0.00588988 -1.03782e-22)
(1.0151 -0.00601929 -2.60361e-22)
(1.01482 -0.00586858 -4.23548e-23)
(1.08401 -0.0427898 6.65343e-21)
(1.08414 -0.0423988 -1.00124e-20)
(1.05355 -0.0251758 5.42404e-21)
(1.05449 -0.0250787 -1.7948e-21)
(1.04368 -0.0116592 1.65969e-21)
(1.04378 -0.0122219 -1.20892e-21)
(1.04313 -0.0119039 3.78043e-21)
(1.02072 0.000178713 1.64374e-21)
(1.02368 -0.00962842 9.14353e-22)
(1.02332 -0.00948921 2.94046e-22)
(1.03017 -0.0104052 -1.26049e-21)
(1.02997 -0.00991251 -1.71326e-22)
(0.8934 0.105223 0)
(0.89092 0.0800604 7.03753e-22)
(0.156566 0.147024 -6.23603e-21)
(0.162343 0.157665 -3.3861e-24)
(0.555728 0.00466969 0)
(0.594345 -0.00647 1.68751e-20)
(0.565163 -0.00199292 -1.84596e-20)
(1.01933 -0.0136889 5.49772e-22)
(1.01835 -0.0146019 -6.61348e-23)
(1.01825 -0.0129116 1.1691e-21)
(0.712295 -0.040914 -5.58489e-21)
(0.703118 -0.0411665 3.39263e-21)
(0.835942 -0.114481 6.26908e-21)
(0.80176 -0.113949 5.96777e-21)
(0.793439 -0.117157 -9.15074e-21)
(1.02032 -0.000449176 -8.4197e-22)
(1.06003 -0.0315154 0)
(1.05917 -0.0308772 -5.14161e-21)
(1.07475 -0.0752145 6.43617e-21)
(1.07641 -0.0760274 4.98903e-21)
(1.02367 0.00568496 0)
(1.02142 0.00727058 0)
(1.02157 0.00371018 -5.13587e-22)
(1.01853 -0.046073 -6.14242e-22)
(1.0171 -0.042913 -6.60471e-22)
(1.02088 -0.0438848 2.7992e-22)
(1.08161 -0.0466694 0)
(1.08103 -0.0469427 0)
(1.08115 -0.0462973 -5.92461e-21)
(1.09113 -0.0704146 -5.41163e-21)
(1.02315 -0.00715623 -3.26138e-22)
(1.02259 -0.00771207 -4.08847e-22)
(1.02207 -0.00707727 2.79665e-22)
(0.893302 -0.201573 -7.63972e-22)
(0.914143 -0.198067 0)
(0.900194 -0.208422 3.04667e-21)
(0.647253 -0.0269629 -6.13466e-23)
(0.620426 -0.0248268 4.08304e-21)
(0.625366 -0.0247884 -4.51486e-22)
(1.0201 -0.000289762 0)
(1.02036 -0.000292249 4.82966e-22)
(0.985788 -0.00562063 3.04451e-21)
(0.991368 -0.00485579 1.00132e-21)
(0.987862 -0.0113125 1.35576e-21)
(0.979576 -0.00412936 -4.38128e-22)
(0.986811 -0.000340767 -3.66913e-21)
(0.99545 -0.105985 2.86894e-24)
(1.01017 -0.102048 0)
(0.998156 -0.109288 -1.59867e-22)
(1.04363 -0.0111663 -3.89093e-21)
(1.04431 -0.0115284 1.96188e-21)
(1.01979 -0.0494868 -2.63393e-22)
(1.01539 -0.0483136 -6.86821e-22)
(-0.0792154 0.0564208 1.45601e-20)
(-0.0800404 0.0668932 5.96976e-21)
(1.01381 -0.00516899 -1.18262e-22)
(1.01372 -0.00514814 5.80327e-23)
(0.870249 -0.204896 6.52416e-22)
(0.883396 -0.188774 -1.12542e-20)
(1.01463 -0.00575224 -1.16221e-23)
(1.0149 -0.0059201 1.39818e-22)
(1.02103 -0.000407877 1.13308e-21)
(1.0209 -0.000511784 1.83118e-21)
(1.00506 0.000358161 8.29085e-23)
(1.00459 0.000293979 5.21874e-23)
(1.00756 0.0016318 -5.14388e-23)
(1.00746 0.00154233 -1.71864e-23)
(1.01266 -0.00442398 -3.04928e-23)