/*--------------------------------*- C++ -*----------------------------------*\
| =========                 |                                                 |
| \\      /  F ield         | OpenFOAM: The Open Source CFD Toolbox           |
|  \\    /   O peration     | Version:  v2012                                 |
|   \\  /    A nd           | Website:  www.openfoam.com                      |
|    \\/     M anipulation  |                                                 |
\*---------------------------------------------------------------------------*/
FoamFile
{
    version     2.0;
    format      ascii;
    class       volScalarField;
    location    "50";
    object      ddt0(omega);
}
// * * * * * * * * * * * * * * * * * * * * * * * * * * * * * * * * * * * * * //

dimensions      [0 0 -2 0 0 0 0];


internalField   nonuniform List<scalar> 
13917
(
-0.000283799
-1.77882e-05
-0.470642
6.29779e-05
-6.6714e-06
0.0241277
-0.466944
-0.46905
-0.0266229
-0.000281764
-0.0247125
-0.00279948
6.53387e-05
-2.57039
-3.57022e-05
-3.19038e-05
-1.71223e-05
-0.00324954
-0.00249613
-1.73223e-05
-2.81752e-06
-0.468353
-1.40285e-05
-0.435186
-1.90572e-05
-0.348269
0.00285724
-0.000780443
0.022504
-0.0022387
-0.000427729
-0.000120795
0.000142688
2.66313e-05
-1.2326e-05
0.391813
-1.3907e-05
-0.191176
0.000130923
-0.00496103
-5.22306e-05
-1.23697e-06
-3.85739e-05
-0.00115208
-1.06959e-05
4.22382e-05
-0.00320843
-0.007417
0.0390898
-3.57565e-05
-0.000308015
-2.68946e-06
-0.0553027
-4.24636e-06
-1.83741e-05
-0.000293544
-0.0206098
-1.48411e-05
-0.000113182
-1.11815e-05
0.30946
-1.7033e-05
-2.99252
-1.88291e-05
-0.0214221
1.13331
9.77131e-07
2.80953e-06
-0.0232436
-0.000179284
-5.76876e-06
0.0285257
-0.497215
-1.67673e-05
0.029061
-0.00155478
-0.534341
-1.88859e-05
-0.192102
-2.38875e-06
-7.15848e-06
9.07718e-07
-0.00310834
-0.244088
0.372539
-1.75152e-05
-1.11696e-05
0.672593
-0.000280631
-3.92724e-05
-0.383434
-0.000537633
-2.27447e-05
-5.74004e-06
0.946879
0.00116858
-0.0209248
-0.00601704
0.00445572
-0.000784658
-4.24961e-05
-8.50841e-05
-0.00178454
-3.46415e-05
-3.2015e-05
0.273915
0.0147809
-0.00814332
-1.76626e-05
-0.000498775
-0.0820897
-0.161337
-0.00373418
0.192241
-4.04762e-06
0.0604869
-1.93663e-05
0.00488703
0.0922472
-1.81318e-05
-1.0292e-06
-0.0698356
-0.0229898
-0.000132211
-4.03312e-05
-7.77836e-06
-1.10657e-05
-4.13263e-05
-4.89876e-05
0.0204706
-0.274268
-1.22082e-06
-9.15445e-06
-2.04554e-06
-1.866
-0.416531
-0.000315539
-0.000674491
8.26967e-07
2.50389e-05
1.0066
-2.48895e-05
-1.85326e-06
0.000551582
2.28327e-06
0.248948
0.0177416
-2.90765e-06
-2.40679e-05
-0.00010796
-0.00529909
0.0483128
-0.0109447
4.25996e-05
-0.000191029
-0.0356349
-0.000273317
0.0130905
-1.24993
-1.94506
4.21932e-06
-0.000552169
-1.79459e-06
-0.0205457
-0.00457323
-0.00453054
-3.41751e-05
-0.00594953
-1.48135e-05
5.10175e-05
-3.1647e-05
-0.123292
-0.00263349
-1.73475e-05
0.123805
0.000186677
-0.333222
0.0119717
0.251591
-2.06334e-05
-0.0008181
-0.00050724
-2.37485e-05
-1.11479e-05
-0.000174899
-0.286724
-0.00016257
-0.116881
-0.00127146
-0.0075836
0.189747
0.502263
0.0021833
-1.26587e-05
-0.00691507
-0.00241593
-6.79283e-05
-2.32024e-05
0.00630869
0.520257
-0.000119069
-3.5433e-05
-0.00530245
-0.00543601
-0.583743
-1.99876
-1.10829e-05
-1.32736e-05
-0.00597397
-0.372928
-7.82492e-07
-0.491831
-0.854109
-0.00767304
-3.0148e-05
0.00205256
-0.00461144
-0.367256
-2.26521e-05
0.0964173
-2.04705e-05
-0.0030926
-5.13116e-05
-0.257088
0.316541
-4.07104e-05
0.127982
-0.00021359
-2.96936e-05
0.663571
-0.00233121
-0.00122459
-0.385975
-1.18035
-5.02023e-05
-0.000135704
-0.367076
0.211483
-6.83791e-06
-2.82265e-05
-0.152854
-0.0212233
-3.63017e-06
2.05306
-0.00644567
-0.00133771
-0.000436712
-4.91495e-06
0.000261543
-0.815335
6.9531e-07
0.000440358
0.00085906
-1.1518e-05
-1.54093e-05
-0.00737799
-0.0624598
-0.00975802
-0.000229824
-3.47866e-05
-2.82397e-06
-0.0307222
0.426452
2.90756
-3.34412e-05
-0.508914
-0.698892
-0.0118326
-0.196152
-0.00177935
-4.7832e-06
-4.51741e-05
-0.00351996
-0.299258
-0.0130901
-0.00010062
-2.41616
-8.28691e-05
-5.25369e-05
-0.97848
-1.92396e-05
0.0719254
-7.88673e-05
-7.43581e-06
-2.37458e-05
7.30706e-05
-0.000251177
2.00771
-4.52629e-05
-4.71752e-06
0.0329066
-0.390809
0.601709
-2.25712e-05
0.039931
1.00748e-06
-2.99816e-06
-1.8688e-05
0.0352947
-2.73607e-05
-0.00348382
-0.000365903
-1.52767e-05
-0.0052831
-1.4947e-05
-0.0337339
0.000203435
-0.000657764
-1.90364e-05
-1.64666e-05
-0.0941567
0.0163102
-1.9675e-05
-4.91734e-05
-1.17718
-2.2021e-05
-0.449742
-2.02849e-05
-0.276887
1.81828e-05
0.0159359
-0.00115417
0.00789949
-4.33532e-05
-0.570692
0.0078938
-4.6563e-05
-0.0221616
0.00742605
-9.96931e-06
-0.207314
-0.00751493
-0.694193
-2.27314e-05
0.459526
-0.000174473
0.466676
0.00643218
0.00204024
-0.000532897
-0.492702
-4.62776e-06
-4.10997e-05
0.0160764
-8.97494e-06
-2.37883e-05
-0.41135
0.00853494
-1.97947e-05
0.32252
0.0266339
-4.09994e-05
0.224284
0.356743
-2.02919e-05
-2.85975e-05
3.81139e-06
-2.47901e-05
0.0267434
0.21154
0.041434
-0.000467411
-1.71041e-05
0.000296176
0.217194
-0.00272492
-0.489662
-0.275348
0.223792
-4.56151e-05
2.46313
-3.16893e-05
-0.451485
-1.11516e-05
0.00979686
-0.00580791
4.2257e-05
-6.31344e-06
-0.00529957
-0.00101685
-0.0059122
-0.212116
0.308279
-0.42121
0.000156701
0.000162119
-2.78825e-05
0.271875
-0.457566
-1.24639e-05
-0.0143637
-1.02384e-05
0.0706171
1.78736e-05
-4.57081e-06
-1.74205e-05
0.0843907
-1.66706e-05
-0.155343
-0.57332
-0.0141898
0.000623678
-1.2678e-05
0.0146405
0.00549176
-1.81551e-05
0.0101075
-1.06024e-05
-1.2745e-05
-0.00202751
-5.77458e-06
-1.39291e-05
-2.8654e-05
-0.0140287
-2.29744e-06
0.124294
0.167894
0.148265
0.00240522
-0.311416
-0.453033
-0.00261061
-1.68578e-05
-0.0095826
0.000106644
-0.000189884
-1.27553e-05
0.203564
-0.42744
0.251683
-2.1637e-05
-0.00826646
-5.58209e-05
0.000113453
-0.00596245
-2.42443e-05
2.21147
-1.90119e-05
-2.53289e-05
-0.400086
-0.30712
-0.353209
0.00110191
0.201095
-0.279217
-0.126008
-0.553474
-5.05957e-05
-0.00477046
-2.49634e-05
-1.09396e-05
-1.31903
-0.00347714
-4.74967e-05
-0.0025276
-0.00229652
-0.638333
-1.80301e-05
-0.0169646
-0.643492
0.0291003
0.0855356
-2.83464e-06
-1.26256e-05
-7.00242e-05
-4.06636e-05
-4.39682e-05
-0.136101
0.0161756
-6.09495e-05
0.216094
-0.000265819
-0.0196137
-0.0137902
0.0199532
-0.0176115
0.559468
-0.0178759
-0.002147
-0.0115947
-0.00171291
-0.0232864
0.0218711
-0.00158318
-0.0103522
-7.25109e-05
-1.16772
-0.000385088
-1.69487e-05
-7.2793e-05
-2.36425e-05
-0.422682
0.176959
-2.24551e-05
-5.5965e-05
-0.240895
-0.553386
-6.8534e-06
0.487829
7.31778e-06
0.000752749
-2.08376e-05
-0.600647
-0.0737302
-9.99866e-05
-8.39708e-06
-0.344346
0.00173617
0.194336
-2.75341e-06
-0.856012
-0.0170986
-1.27974
-1.60134e-05
0.281972
0.822018
-0.00271369
-2.76594e-05
-1.56121e-05
-0.00111468
-0.139407
-5.36132e-05
-2.78572e-05
-3.56333e-05
-3.68269e-05
-0.579399
-1.05566
-0.0026295
-0.000491026
-4.25337e-05
-4.14508e-05
-0.00831446
0.114052
-0.000771332
-1.56131e-05
-1.35749e-05
2.0667e-06
-0.679308
0.659646
-1.03028e-05
-2.38221e-06
2.02372
-0.00185855
-0.0011388
-1.19498e-05
-2.40218e-05
-7.29801e-05
-0.0101179
0.0163074
-0.00076541
-0.0106535
-0.00962947
-3.5495
-0.00132152
-2.14872e-05
-0.737493
3.13819e-06
-2.29178e-05
-4.5605e-06
-0.973407
0.000987628
-5.22096e-05
0.0287523
-0.0023805
-1.79069
-0.00954272
-0.000797348
-0.00258782
-5.89947e-06
0.713931
0.0174528
-0.456995
-1.85674e-05
-0.000523987
-0.00228501
-0.282503
-0.87277
-0.00648991
0.00171113
-4.29495e-05
-4.13858e-05
-1.2232e-05
-0.00365055
-0.00169708
7.41672e-07
-0.00460051
-0.00170424
-0.462419
0.174025
-2.71053e-05
-0.0201343
-0.304078
0.000117304
-2.94739e-06
-0.0307593
0.559102
0.0204773
-0.00388856
-4.8381e-05
0.140121
-0.000941573
-5.83795e-05
-0.000449665
-0.0104545
0.000135608
-0.00276433
-0.230943
-0.0118411
-0.00108175
0.718531
-3.35522e-05
-0.935308
-4.03318e-06
-1.04725e-05
0.0167101
0.568426
0.0206572
-3.39567e-05
-1.76815e-05
-3.09264e-06
-0.000195951
0.0948689
-0.00396294
-5.17904e-05
-0.0138066
-0.00540918
-2.02525e-05
0.264562
-0.00214759
0.738896
-2.22778e-05
-0.0122109
-2.34455e-05
-0.661859
-0.000696932
-0.000368657
-0.00053739
-4.49457e-05
-2.1351e-05
-9.71182e-06
0.00244372
-4.1087e-05
-0.0306715
0.151861
-0.00602133
-4.08282e-05
-0.0102321
0.0267462
0.0975636
-1.16858e-06
-4.48056e-05
-2.73994e-05
-6.70085e-05
-0.000124436
0.762125
-4.37033e-06
0.104726
-0.000111115
-0.0235194
-0.000117468
-0.49346
-0.000211621
-1.48765e-05
-0.31254
-1.59437
-1.48607e-05
3.42514e-06
-0.306423
-0.00128583
-0.0130861
-9.95677e-06
-8.5243e-06
0.0115297
4.19021e-05
-0.00548272
-0.00599128
-2.08593e-05
-0.00535046
-0.460579
-1.0807e-06
3.74868e-05
-3.35968e-05
-0.0347378
-1.76754e-06
-3.08817e-05
-0.117022
-1.89213e-05
0.516767
-0.000179781
3.73323e-05
-3.35449e-05
0.00025076
-1.73148e-05
-0.00146655
-4.52307e-05
0.000896885
6.11666e-06
0.330628
0.0257324
0.152853
-6.20627e-05
-5.56472e-06
-0.000958118
-0.000646186
-0.223778
0.0832196
-0.00311299
-1.39585e-05
-0.0544446
0.0353856
0.811128
-0.00420401
-0.00352927
-0.071999
-0.000157615
1.66724e-05
-0.00713748
0.00388547
-0.00301627
0.0127427
-0.00273937
3.59772e-05
-0.0120347
-8.08586e-05
-1.16989e-05
-5.65419e-05
-0.000542248
-8.00638e-05
-1.62863e-05
-4.39066e-05
-0.00562558
-2.57261e-05
-0.00528578
-1.08424e-05
-8.94622e-06
-2.01891e-06
-2.2372e-05
-3.50536e-05
-7.51129e-05
-3.31411e-05
-0.640756
-0.00195304
0.0232682
-4.56582e-05
-4.85446e-06
3.38506e-05
-0.00219098
1.59535e-06
0.0504284
0.000293467
-1.5706
-0.000108324
-0.00878276
-1.04394e-05
-2.2736e-06
-3.96512e-05
-1.6704e-05
0.0574119
-4.44806e-06
-0.715128
-7.71853e-05
0.190346
0.000556873
0.000338544
-0.0224735
-3.49537e-05
3.46559e-09
-0.00227028
-2.25721e-06
-8.63846e-06
-0.647775
-1.80418e-05
-3.11244e-06
-0.000292331
-2.98396e-05
-5.97818e-05
-0.000108972
-0.00359373
-0.406448
-0.000288374
-1.02271e-06
-5.36196e-05
-0.289725
0.00164366
-1.51523e-05
-1.78379e-05
-0.499841
-0.237266
-0.23256
-0.000473891
3.68467e-05
-5.02442e-05
-5.73335e-05
-0.0018051
-0.000362886
0.114388
3.11509e-05
-0.149893
-1.61403e-05
-1.54001e-05
-0.187321
-9.85275e-06
-0.000446814
-1.55762e-05
-2.71012e-05
-0.000327227
0.00562004
-1.252e-05
0.528311
-0.0751723
-0.000676513
-2.16692e-05
-2.7604e-05
-0.00498912
-1.26913
-6.95573e-06
-3.2093
-2.8387e-05
-0.000368147
-1.28573e-05
-1.10513e-05
-0.160422
-1.08198e-05
2.73089
-0.000757947
-8.73212e-07
-3.85861e-05
-1.64368e-06
-2.26858e-05
3.42512e-05
0.0266829
-3.81477e-06
-1.83546e-05
-0.257504
0.172296
-0.0012537
-0.000500508
-0.00569693
-0.000162358
-2.30109e-05
0.000191128
-0.635018
-0.00012779
-7.36606e-06
-1.02972e-05
0.11462
-0.00153281
0.161548
-2.94123e-06
-8.81039e-08
-0.155098
-0.00121906
-1.44469e-05
0.161371
-0.0102291
-2.27255e-05
-0.0058522
-4.03357e-05
-1.26176e-05
-4.28303e-05
-0.450538
-3.92215e-05
-3.46508e-06
-2.27692e-05
1.52186
8.52278e-05
0.00100844
0.00115147
-9.71701e-06
-9.76398e-05
-1.16834e-05
0.0455964
-2.53628e-05
-3.10141e-06
-4.08491e-06
-0.00842933
-2.69436e-06
-0.0122724
-0.215798
-0.363801
-4.12071e-05
0.482636
-0.081848
-1.58007e-05
0.111044
0.502929
-0.0558397
-0.326104
-0.278791
1.14253
-0.00871016
-1.85255e-05
-0.237807
-0.00119002
-0.473585
-1.68878e-05
-2.21434e-05
-1.23523e-05
-1.3405e-05
-0.00023154
-0.000618465
-0.0833927
-2.23184e-05
-3.60112e-06
0.204225
0.00585155
4.23345e-07
-0.00346399
-0.000433742
-1.14093e-05
0.0187428
-0.00234666
-1.64107e-05
7.77935e-05
-0.128363
-0.216803
-0.0142999
-1.3711e-05
0.00190127
-0.00266064
0.100612
0.263479
-0.0018913
-2.19974e-05
-1.18454e-05
-1.60615e-05
-4.72037e-05
-2.47923e-05
-4.97026e-05
-7.59614e-05
-7.44937e-05
0.295555
-0.0206019
-2.48974e-06
-0.00875125
-0.127823
-0.000359665
-6.73531e-06
-0.89628
-1.71398e-05
-8.66081e-06
3.16614e-05
0.246951
4.11455e-07
-2.22377e-05
-0.494707
0.815543
-0.290754
-0.0107314
0.526173
-2.26917e-05
-0.0110265
-5.49947e-06
-2.23376e-05
-1.3061e-06
-0.203101
-0.254904
-1.67968e-05
-3.79286e-05
-1.52886e-05
-0.200701
-2.43544e-05
-0.000565953
-1.92814e-06
-2.05667e-05
-0.0101441
-8.34356e-06
-0.00194566
0.0142119
-0.378518
-1.30667e-05
0.00315585
-2.62752e-05
-0.52783
-0.184404
-1.5023e-05
-0.14605
-0.00635371
-0.00270745
-1.20314e-06
-0.00667116
-3.62564e-06
-0.000248814
-0.000132832
-0.0107057
-0.304866
1.80672
-0.0184769
0.601755
-4.74752e-05
-0.0682816
-1.09827e-05
-5.97466e-05
-0.50078
-1.10658e-05
-2.97568e-06
-1.26339e-05
-9.71532e-06
0.294791
-3.79814e-05
-1.41991e-05
-0.00536237
-0.00086093
-0.00406472
0.00305087
-0.000261833
0.0957492
-0.000344135
-0.0013928
0.000164558
-0.370811
-0.00143618
-0.954126
-0.34553
-0.000119991
-7.19735e-06
-0.248256
1.04211
-6.09578e-06
-0.00784601
-0.000877678
1.1997e-05
-0.000263614
-9.07457e-06
-6.80829e-05
8.28546e-09
-0.00350413
0.00286553
-3.07013e-05
-0.00237985
-1.672e-05
0.00127118
-4.65167e-05
-0.000180561
-0.00445729
-2.95262e-05
-5.9388e-06
-1.72831e-05
0.0120334
-0.000229332
0.466162
-1.51785e-05
-1.74273e-05
-0.00571764
-1.55147e-05
-0.00327481
-9.21188e-05
1.19186e-05
-0.00675015
-1.78376e-05
-0.28526
-2.45228e-06
-0.00107835
-0.295255
-0.0325998
-2.34105e-05
-2.91863e-05
0.147281
-2.11914e-05
-2.85609e-05
0.132062
-0.379668
3.79536e-05
0.0155918
-1.89124e-05
-5.08867e-06
-0.206807
-1.6417e-05
-3.49511e-05
-1.63047
-1.43811e-05
0.039513
-7.99777e-06
-3.50973e-05
-1.30733e-05
0.000161841
-0.208567
-1.39986e-05
-1.25132e-05
-2.22417e-05
-1.55153e-05
-2.91451e-05
0.0265861
-0.00244505
-3.04191e-06
0.166272
0.000134047
-0.0664758
-0.322761
-0.0214763
-1.70646e-05
-5.34709e-06
-1.39089e-05
0.0206497
-2.64346e-05
-0.181527
-0.138853
-1.02587e-06
-0.503476
0.0175593
-0.00386982
0.0113642
-0.000579148
-0.00825528
-0.296368
0.00333908
0.0909932
-0.277812
-0.00400463
-4.36404e-05
-0.340947
-0.000120428
-1.69153e-05
-4.26302e-05
0.150469
-3.00814e-05
-2.24485e-05
0.000179019
-0.00439421
-0.000217842
-0.267819
-2.31125e-05
0.489337
-0.000216529
0.14782
-0.00787952
0.00173788
-0.00039019
-1.88337e-05
-1.78767e-05
-0.418441
-2.09987e-05
-1.26407e-05
-6.6786e-05
-2.5627e-05
-1.9882e-05
0.000493762
-0.0108236
-0.0117774
0.00270398
0.00118722
0.305938
0.00630661
-1.84292e-05
-0.14549
-0.0421535
-3.42412e-05
-2.84929e-05
-0.000556249
0.035675
-1.49918e-06
-0.00417379
0.028017
-3.97508e-05
-1.18529e-05
2.11951e-05
-1.24537e-05
-0.00758721
9.91835e-05
-3.29755e-05
0.865806
-0.118126
3.52303e-05
-3.29772
-0.00353972
0.108083
-1.84178e-05
-0.000185972
-0.0365476
-1.73302
-0.00184947
0.0156398
-0.00013856
-2.10244e-06
-7.67384e-06
-1.49644e-05
-1.33973e-05
-4.61411e-06
3.66823e-05
-2.18378e-05
-0.0203517
-2.85431e-05
-0.000321506
-1.17937e-05
0.000325594
-0.0130693
-0.0412255
-1.70107e-05
0.00201821
-8.10639e-06
-0.126928
-1.08202e-05
0.00019112
-8.28787e-06
-0.451956
-0.560177
0.0241618
-2.121e-05
-0.0200364
-1.66945e-05
-0.000191981
-0.435023
-1.29839e-05
-4.08172e-06
-0.000787103
-0.000431179
-0.501567
-2.1916e-05
6.16647e-05
4.07355e-05
-1.55299e-05
-0.000848194
-1.79227e-05
-4.85836e-05
-1.09154e-05
-0.719761
-5.01803e-05
0.227807
0.0825663
-0.00296163
-0.278489
-4.2589e-05
-4.77739e-05
0.00030205
-0.845243
3.81018e-05
-0.000105719
-0.00255744
0.221518
-2.33862e-05
-0.0289719
-0.00258355
-0.00477874
-2.69434e-05
-3.94395e-05
0.00566405
-6.7166e-06
-1.36663e-06
-0.000402564
-1.98454e-05
1.38575e-05
-0.000222369
-0.00788272
-0.0474886
-0.418585
0.000104186
-0.0100933
2.91427
-0.185895
-0.00120347
0.00640165
0.0697153
-0.00176721
0.554695
-1.31932e-05
1.4762
0.188071
-1.65491e-05
-6.22671e-06
-2.59441e-05
1.30608e-05
-0.000605259
-1.01674e-05
1.94972e-05
-0.00138292
-3.60043e-05
-0.000316182
-0.43032
4.92217e-05
-7.9987e-05
0.00485688
-1.36838e-05
0.410304
5.12381e-06
-0.00278744
-2.44362e-05
-0.782071
-0.173943
-1.68662e-05
9.65375e-06
0.164909
2.91754e-05
0.226281
-3.08083e-05
-1.31272e-05
-0.473388
-5.79234e-06
-0.00181349
-0.46158
-3.65038e-06
-0.00235605
-0.000185207
-3.8674e-05
-4.91279e-05
-0.145842
-0.0702703
-1.22907e-05
-4.46825e-05
-1.24793e-05
-7.65248e-05
0.000775207
-0.721572
-3.45205e-06
-0.000225956
0.0124594
0.469115
-0.862541
-8.34206e-06
-0.0030345
0.00427471
-3.75466e-05
-9.01937e-06
-0.00515072
-0.332689
-3.32083e-06
0.000388497
-0.435322
0.00619113
-0.00456863
-2.50355e-05
-8.22976e-06
-1.08968e-07
-5.47781e-08
-0.128603
-0.00497695
-3.56658e-05
8.80678e-06
-8.22973e-05
-1.06557e-06
-1.63763e-05
-5.43192e-06
-0.0100563
-0.000214929
0.121978
0.00371463
-0.299031
-0.207955
-7.26558e-06
-0.00383659
-4.21068e-05
6.45423e-05
-0.877015
-1.72607e-05
-2.25206e-05
-0.0042564
-0.0144114
0.00091617
0.363005
0.812268
-1.70988e-05
-0.162145
-3.84518e-05
-1.03402e-05
0.000739665
-1.29918e-06
5.06593e-07
-0.0480067
0.361696
-1.42736e-05
0.0193456
-2.06925e-05
-1.66854e-05
-2.34406e-05
-0.0164132
-0.000148404
1.24879e-05
0.353637
-1.45795e-05
-0.0357133
-0.345191
-6.87291e-06
0.00408105
-3.08046e-05
-0.309937
-0.0046068
-1.75584e-06
-0.0913852
-0.00420658
0.000310934
-2.52326e-07
-0.193063
2.12331e-05
0.00744533
3.21684e-05
0.00032416
-0.758218
-1.78622e-05
0.00589547
-1.28958e-05
-0.00253324
-5.86055e-05
-6.917e-06
0.158195
-2.28508e-05
-0.0135809
-0.0024625
0.00534231
4.15802e-05
0.00178342
-3.42322e-06
-0.438082
-0.000253541
0.988221
-0.000231751
-0.00651567
-1.52878e-05
-0.000553152
-1.33285e-05
-0.000319013
-0.337809
-1.99072e-05
-2.72031e-05
0.0189155
-2.62372e-05
2.2668
-8.6799e-06
-0.0843426
0.47604
-0.000313124
-2.1292e-05
-2.54542e-05
-4.56201e-06
-4.8707e-05
-0.00603054
-0.00214344
-0.000380716
-7.04786e-05
-2.07329e-05
-2.36297
-5.31477e-05
-0.0002492
2.88423
-1.42666e-05
-0.48105
-0.00379727
6.84737e-06
0.00488951
-0.407993
0.0303991
-0.180634
-1.40386
-2.37909e-05
0.0157448
0.0514324
0.0123829
-1.18967e-05
-5.92433e-06
-0.018647
-0.121946
0.420803
0.0347729
1.33831e-05
0.00129393
-0.00194764
-0.359818
0.10047
-0.00264092
-0.0230685
-2.69013e-05
-7.78137e-05
-0.00150396
-1.30828e-05
-0.00385827
-0.225674
-4.63836e-06
0.0643159
-4.50299e-06
-1.24526e-05
-0.306248
-0.316865
-4.21075e-05
1.69816e-05
-8.81758e-06
-1.52751e-05
6.19058e-05
-0.0390482
1.8058e-05
-2.37473e-05
-1.67655e-05
-0.00129529
-0.000179301
-0.000136277
0.0282838
-1.16392e-05
-0.365457
0.173119
-0.339552
0.00247125
-0.0016525
-0.299461
-0.00109309
-0.198714
0.0234971
-0.437429
-2.19973e-05
0.928064
-0.28004
-5.05402e-05
-1.58016e-05
-0.000508468
0.259887
-0.587808
-8.32683e-06
-1.60337e-05
-0.332543
0.161339
-0.304006
-3.61228e-05
1.93096e-05
-0.0251961
-9.06526e-06
-0.347744
-0.0262
0.175516
-0.175087
-1.13532e-05
-2.29248e-05
-4.22574e-05
-1.23692e-05
-0.117023
-0.00206836
-9.8017e-05
-2.81833e-06
0.00328061
-0.0595415
-0.00122302
0.393201
0.160352
0.102138
-0.00381971
-9.5009e-06
-1.17083e-05
-0.0827243
-4.03434e-05
-1.73449e-05
-1.77102e-05
-0.0565095
-0.0016387
-0.00337915
-0.00510425
-1.5773e-05
0.0669601
-0.000780272
-2.09175e-05
0.197288
5.30422e-07
2.27036e-05
2.71709e-06
0.0257299
0.133819
-2.92238e-06
0.167828
-0.00598355
0.751649
0.385319
0.00028025
-1.94556e-05
-1.12235e-05
0.0640161
-0.0001504
-0.176896
-0.000790239
-0.190668
-1.97844
-3.41658e-06
-1.94036e-06
-2.03959e-05
-2.87034e-06
0.441123
0.653574
-2.18556e-06
0.141425
-0.00269369
-1.52398e-05
-6.88352e-06
-2.51751e-05
-0.0143475
-9.93648e-06
0.0944454
-0.000172638
-1.99735e-05
-4.87828e-05
0.00294232
-1.18074
-0.00162598
-3.01869e-05
-0.000780628
-1.26704e-05
-2.90062e-05
-0.00033691
-0.086369
-0.0267722
0.211251
-4.32578e-05
-4.49162e-05
-2.10803e-05
-0.00389875
-2.65893e-05
-2.37772e-05
-0.0282028
-0.0062688
0.0331424
-1.8877e-05
0.0254558
-0.0683379
-4.52426e-06
0.0572154
-0.0186103
-0.00128271
0.00337033
-1.76722e-05
0.238729
0.000126532
-5.40587e-06
-2.12287e-05
-4.06505e-05
1.77856
-5.97201e-05
2.90426e-05
9.81739e-05
-0.189391
-0.251817
-5.11553e-06
-3.8704e-05
-2.42524e-05
-1.3476e-05
-0.00802954
-8.69759e-06
-0.00339502
-4.70344e-05
-0.333144
1.37277e-05
-0.470223
-3.97556e-05
0.333382
-7.71238e-06
-3.98231e-05
0.672929
0.0132956
-0.000924616
0.277844
-0.000126904
-0.00223609
-4.76005e-06
-0.333145
-8.28901e-07
-2.58756e-05
-0.0013211
-0.00130862
0.0827606
0.116652
-0.00843898
0.406863
-0.00439414
0.0255088
-4.95962e-05
-0.000140652
-0.000418292
-0.366341
-4.04679e-05
-0.258634
-0.0149093
6.44463e-06
-3.1669e-06
-1.48292e-05
0.0670861
0.0017803
-4.3349e-05
-1.08719e-05
-4.99437e-05
-0.000180111
-0.00172614
-0.0194789
0.0100821
-2.23571e-05
0.0615322
-0.00245043
-1.0506
-0.00498091
-2.26881e-05
-4.56093e-05
-0.00204094
-4.45551e-05
-0.00339922
-0.40025
-1.24204e-05
-5.61352e-05
-0.043849
0.00860046
-9.20978e-06
-0.187208
-8.0043e-05
-0.0718572
-0.000240174
-5.88202e-05
-3.61829e-06
0.100822
-3.64515e-05
0.000545742
0.0225882
0.535097
-0.00203325
-0.00105583
-0.0001028
0.000178817
-5.80895e-07
0.628116
-0.000279161
-7.88939e-06
-0.000564259
-1.89584e-05
-3.56337e-06
0.0207188
-8.6071e-06
-1.72296e-05
-1.28863e-05
-0.0263769
-4.11326e-06
-0.000188864
-0.00996181
0.000167928
-0.00442988
1.63534e-07
0.00624531
0.0127685
-0.00259359
-0.00136343
0.000743028
-0.0143066
-0.344891
0.0200256
-3.62567e-06
-0.787561
-0.0332015
-3.05735e-06
-6.00298e-05
-4.3642e-05
-0.000227182
-0.0010841
-1.55291e-06
-0.00172206
-0.330148
-5.40162e-05
-3.7096e-06
0.271638
-0.057719
-0.00166665
-3.77863e-05
-0.950265
-0.246815
-0.00507841
-1.66558e-05
-0.354774
-0.00173044
0.000507838
0.160322
-0.000240163
-4.42556e-05
-0.000494928
-0.0014362
-0.000934604
-0.00190457
0.044901
-2.73129e-05
0.42807
0.013978
0.0975933
-4.24771e-05
0.00339226
-1.04876e-06
-1.94208e-05
-0.329564
-0.321086
-0.0325412
0.0531175
1.12097e-05
-0.00235683
-4.77988e-05
0.35041
0.381408
-1.29213e-06
-1.06587e-05
0.000265317
-5.9301e-06
-0.00384594
-0.449197
0.23853
-0.00263633
-9.15703e-06
3.53319e-06
-0.31033
-3.44723e-05
-0.00389993
-2.78988e-05
-1.85987e-05
0.0272718
-0.360042
-1.73229
0.0256779
-1.27795e-05
-0.0105744
-5.71351e-05
0.000746376
0.269436
0.127106
-8.96343e-06
4.51696e-08
-0.000713364
-1.52946e-05
-4.96158e-06
-0.36326
-0.345642
-2.17035e-05
-5.06995e-05
-2.88245e-06
-2.49017e-05
0.025041
-1.47213e-05
0.181956
-0.00713164
-0.00090116
-2.04243e-05
-5.14253e-05
0.162123
-0.0011847
0.0121154
0.414097
-1.1537e-05
-0.965258
-7.6599e-05
0.000687643
0.0124333
-0.511491
0.080067
-0.00221761
-2.28786e-05
0.00715717
-1.59618e-05
2.43838e-06
-7.49547e-06
0.287061
2.89019e-06
0.0740342
2.18395
-0.00250794
-5.88999e-06
0.00146237
-0.000339703
-2.61573e-06
-0.0178456
-4.91994e-05
9.53575e-05
-0.000936728
-7.57884e-06
-0.0693321
-2.49132e-05
-0.0200521
-4.99053e-06
-2.54215e-05
0.640686
-0.306955
-1.71223e-05
-0.000193678
-0.00154387
-0.00014112
-0.0051962
-0.000124793
-2.49158e-05
-0.000164387
1.18957
-3.09886e-05
0.19814
0.000425587
0.929448
-0.00116711
-9.28156e-06
-0.366191
-5.22455e-05
-0.41563
4.84894e-05
0.0638481
-0.284601
-1.1286
-1.59095
0.0232097
0.00549447
-1.37608e-06
-0.43292
0.0021039
-4.24714e-06
-0.176392
0.0425645
-1.79127e-06
-2.54652e-05
-0.000286904
-0.000302994
-0.00101628
-0.66457
-3.63172e-06
-2.69844e-05
-0.0011539
0.000274203
-1.33602e-05
-0.0085891
-2.98177e-05
0.0847264
-1.82792e-05
-0.00433319
-0.00050484
-0.00179761
0.000499821
-0.114808
-0.00161528
-2.72656e-05
0.00687214
-0.492547
0.548741
4.15113e-07
0.0765697
-0.000495824
0.0266067
-4.30901e-07
-1.70632e-05
-0.296166
-0.00158525
0.090969
-0.36254
-3.59111e-05
-0.019465
-1.96848e-05
-2.85591e-05
-0.53558
0.00375561
-2.80102e-05
-0.202263
-0.000128704
0.000814769
7.94009e-05
-0.00125252
-1.18382e-05
0.283582
-0.307777
0.217683
-0.0186204
-0.000149629
-0.000518101
0.0615303
-2.46003e-05
-7.90334e-06
0.000237637
-6.11373e-05
0.011825
0.314476
0.288857
-0.150586
-0.0052294
8.60264e-07
-0.342399
-3.89053e-05
-0.0105003
-4.75735e-06
0.370969
-2.66295e-05
0.000795882
-0.181327
-0.00723916
-2.45879e-05
-0.000116072
-0.456664
-2.15855e-06
-0.0209077
-2.38654e-05
-0.890126
-0.174213
-0.0190151
0.00363102
-2.97098e-05
0.0214075
-0.0178624
-0.00168278
-2.397e-05
1.17992e-05
-2.25962e-05
-0.00507898
-5.13208e-06
-0.00925732
1.10224e-06
-2.03989e-05
0.95433
-1.90518e-05
-0.00014124
-7.0593e-05
-1.7749e-06
-0.292661
-2.14682e-05
-2.07997e-06
-0.295726
-0.00114089
0.346457
-1.11973e-05
0.197587
-0.00140486
-0.246235
-2.36879e-05
-0.0214044
7.63685e-06
-0.00224657
-0.0175144
-0.0122277
-0.00668495
-0.378305
-0.00779291
0.119835
-3.82579e-05
-0.0181366
-5.03015e-05
0.0408963
-4.62565e-06
7.08758e-06
-1.37287e-05
-0.00440707
3.30801e-05
-1.15376
-0.00438802
-0.32576
0.235624
-0.0123603
-1.55342e-05
-0.141076
0.000266361
1.41953e-06
-1.19714e-05
-1.36201e-05
-0.269231
-1.08468e-05
0.507413
-1.95054e-05
-0.000345684
-0.297292
-1.9834e-05
-1.36479e-05
-1.43117e-05
-0.994581
-2.35115e-05
-2.55307e-05
-0.00016694
6.38368e-05
-0.000207757
-1.65879e-05
0.0128073
0.0017608
-0.000901758
-0.00940492
0.201444
-0.260875
-0.647987
-3.9665e-05
-1.91137e-05
-0.000503137
-2.8265e-06
0.000139032
0.138156
-0.189941
-3.95038e-05
-4.88538e-06
-0.325339
-1.1363
-3.65488e-05
-2.63382e-05
2.71821e-05
0.0636258
-0.164957
-0.000148667
-0.000234225
-6.39733e-06
-0.0345508
-0.0153032
0.00455844
0.000155683
0.000166527
-1.61558e-07
-0.000819457
0.0205975
-3.4004e-06
-9.84667e-06
-0.000121449
-0.451396
-2.45334e-05
0.0200229
-1.2716e-05
-0.265183
-0.000107874
-0.000505311
-4.30952e-05
-2.62758e-05
0.0323757
-0.327355
0.00428978
-0.0659472
0.262225
-7.30709e-06
-0.317168
0.0114077
-7.1736e-05
0.0674541
0.397366
-0.0184447
-5.80004e-07
-0.34993
0.123334
-5.4445e-06
-7.2308e-05
-0.00848468
-0.000143185
-1.22953e-05
-2.0903e-05
-8.23492e-06
-6.9355e-05
-0.00281232
0.000297245
0.0022133
-0.00149269
-5.94361e-05
-9.44393e-06
-0.258609
-2.33668e-05
-5.12971e-06
-3.09012e-05
7.23803e-06
-0.00237037
-1.57947e-05
-2.43625e-05
-0.0377462
-2.29919e-05
-0.228378
-1.45834e-05
1.12814
-0.424982
-0.0056981
-9.13042e-06
1.00275e-08
-0.326848
-4.00497e-05
-4.12583e-05
-1.60774e-06
0.0122088
-0.0513455
-0.00090466
-0.357551
0.000570895
-0.142503
-2.65484e-07
-0.00900686
-1.04524e-05
-8.52912e-06
0.149085
-0.248279
-0.0468126
-2.92205e-05
-0.00773748
-0.0085284
0.275491
-0.314695
-0.0242981
-0.000696642
-4.23485e-05
-0.407726
-1.33792e-05
-1.08406e-05
0.0425596
-0.0164353
-0.000293932
-0.00163343
0.000741435
-0.000184607
-0.000204604
0.0450069
-9.40861e-05
-2.39086e-05
0.10496
-0.00132409
-3.04938e-05
-0.283666
-2.38577e-05
-1.10327e-05
-0.0137388
0.00165681
-0.192189
-3.06831e-05
-1.88602e-06
-2.11071e-05
0.0289989
-2.39786e-05
0.00971155
0.0737668
-0.399922
-0.218735
1.19713
-2.62606e-05
-0.480845
-0.0127643
-6.56743e-06
0.000186456
-0.000677399
6.63331e-05
-0.00753557
-0.356939
0.247211
-0.416024
0.0582062
-9.724e-06
-0.0168516
-2.74183e-05
0.141725
-0.000453367
6.47562e-06
-6.08571e-05
-1.39562e-05
-2.35784e-05
-0.0135606
0.230371
-4.40748e-05
-3.36522e-05
-4.63515e-05
-0.554354
-3.34322e-05
0.545669
0.523301
0.0148306
-4.39627e-06
-2.29943e-05
-0.247906
0.0458295
-6.40498e-06
0.00666998
-3.27395e-06
0.00198168
0.00219763
-0.00781068
-0.0042774
-1.03688
-2.77862e-05
-7.55181e-06
1.07973
-0.272332
-0.000238354
-1.70441e-08
-1.91445e-05
-0.800461
-1.7009e-05
-4.45176e-05
-1.9339e-05
-1.72437e-05
-0.181659
-0.265097
0.0169917
-0.000749424
-0.305208
-0.175465
-4.17088e-05
-0.000888787
-3.53893e-05
0.00297163
-6.88206e-06
-1.63104e-05
-1.84492e-05
-2.79621e-05
-1.73289e-05
0.122864
2.34011e-05
0.0125642
-2.20291e-05
-0.000514992
-0.000104083
-0.00916271
-1.58238e-05
-0.0009123
-0.00114923
0.000253729
1.00854
-2.63165e-05
-0.0515643
-0.000518372
5.52346e-05
-5.23133e-05
-2.29764e-05
-0.322894
0.449232
-6.96432e-06
-1.5371e-05
-0.326069
0.386252
-0.00312669
-0.319648
-1.28059e-05
0.194759
-0.000854432
-4.19313e-05
0.0639824
4.30275e-05
-0.299058
-1.22247e-05
-1.07434e-05
-1.09945e-05
-0.310693
-0.362388
-3.88685e-05
-0.00142448
1.04778
-2.58128e-05
-1.68682e-05
-5.73999e-05
0.0044154
-0.292459
-0.00066111
4.93028e-05
-0.000905338
-1.70348e-05
-1.40435e-05
-4.35532e-05
-2.28745e-05
-0.0270159
-1.24452e-05
-0.00464135
0.0329781
-0.000533738
-5.15325e-05
0.309791
-0.00947244
-1.61126e-05
-0.000208545
-0.000789508
0.0129153
7.16596e-06
0.433177
-0.00204356
-1.68984e-05
-0.00305859
-0.00289961
-0.000108028
0.714287
-0.00367639
7.36944e-05
0.0281081
-1.83752e-05
0.00186335
-0.00134342
0.00328985
-2.52891e-05
-1.64533e-05
-4.23613e-05
0.000929256
-0.00428315
-0.004661
0.308034
0.122919
0.298777
-2.16023e-06
-0.0120747
-0.459471
-0.311565
-1.84044e-05
-1.60238e-05
-0.00487052
-0.38801
-2.45594e-05
-0.00153043
1.08157
-0.501831
1.34342
-0.00666159
-0.0135594
-0.330783
-0.00650375
-2.86849e-05
0.607444
0.00731538
-7.69742e-06
-8.75705e-06
-2.07215e-05
0.404465
-0.00333165
-0.300113
-3.39908e-05
-0.333469
-1.1501e-05
-3.65258
-0.148118
-7.85574e-06
-0.00133725
-0.400586
-0.288822
-0.00152466
-1.84333e-05
-2.51158e-05
-3.38177e-06
0.00333428
-0.0083247
-0.230084
-0.304549
-2.64787e-05
0.141187
0.00243534
1.68107
-2.74679e-05
-1.37081e-05
1.73478
-0.0023512
-1.7123e-05
-0.00149443
-0.00219706
-6.99486e-05
0.150361
-0.497868
0.272521
-0.327303
-1.03512e-05
-2.39228e-05
-0.00208671
0.0956416
-0.798716
-1.17215e-05
0.0119127
-0.000466621
0.0385151
2.32922e-05
-3.69016e-06
0.0143817
-0.161126
-0.756512
0.0261841
-0.0557424
-2.29524e-05
-0.0162251
-0.343479
-4.72758e-06
-0.00362023
-0.00810521
-3.70843e-05
-0.0200502
-0.349603
-0.00338972
-2.1291e-06
0.0428042
-0.0122943
0.668226
-4.08025e-05
-1.37271e-05
-1.68331e-05
4.72044e-05
-1.74714e-05
-0.000446361
0.000146332
-0.000278895
-0.0595442
-0.00127882
-0.371872
-5.71252e-05
8.91845e-05
-9.06507e-05
-0.371383
0.000124711
0.0190528
-7.16542e-05
8.82936e-05
0.530112
-0.0116697
-9.17639e-06
0.000545054
-0.309989
-0.289482
0.0264296
-1.71279e-05
-2.07313e-05
-2.1904e-05
-1.072
-2.27956e-05
0.00433583
-0.000600833
-0.000121602
-0.000180015
-0.00611866
-0.0648549
-1.81054e-05
0.167039
-4.32753e-05
-0.000420828
-2.12779e-05
-1.16161e-05
-0.00236874
-0.150054
-2.37295e-05
0.0802255
0.0213163
-0.0169871
-0.00122916
-2.3612e-05
-2.00006e-05
-0.000662834
2.35207e-05
0.666464
0.165799
-9.81891e-05
0.0317687
-1.8472e-05
-1.25695e-05
-1.01914e-05
-4.17238e-07
0.856241
-3.60894e-05
-0.0579899
-0.00227833
2.48286e-05
0.0381368
-0.103798
-0.367948
-0.0351948
-5.43519e-05
-9.71396e-06
-6.4334e-06
5.8923e-05
-0.0249811
0.00399018
0.475261