/*--------------------------------*- C++ -*----------------------------------*\
| =========                 |                                                 |
| \\      /  F ield         | OpenFOAM: The Open Source CFD Toolbox           |
|  \\    /   O peration     | Version:  v2012                                 |
|   \\  /    A nd           | Website:  www.openfoam.com                      |
|    \\/     M anipulation  |                                                 |
\*---------------------------------------------------------------------------*/
FoamFile
{
    version     2.0;
    format      ascii;
    class       surfaceScalarField;
    location    "50";
    object      phi;
}
// * * * * * * * * * * * * * * * * * * * * * * * * * * * * * * * * * * * * * //

dimensions      [0 3 -1 0 0 0 0];
oriented        oriented;


internalField   nonuniform List<scalar> 
20673
(
-0.167298
0.159882
0.0074173
0.366311
-0.307494
-0.0587928
0.0158391
-0.0378218
0.0219828
0.157976
-0.276598
0.118638
-0.371197
-0.105893
0.477121
-0.0224498
-8.97997e-05
0.0225396
0.0266969
-0.0221391
-0.00455783
0.00918461
0.0127671
-0.0219517
0.0158733
-0.0242734
0.00840013
-0.0568785
0.153953
-0.097074
-0.119007
0.116126
0.00288108
0.148616
0.0109083
-0.159524
-0.0934903
-0.00705055
0.000719722
0.00633083
0.199164
-0.0317197
-0.16744
0.241875
-0.237492
-0.00437645
-0.0985725
0.296251
-0.197659
0.141712
-0.162545
0.0208338
0.156348
-0.00773086
0.34179
0.257076
-0.598739
-0.36866
0.572954
-0.204279
0.024275
0.00242186
-0.597356
0.340479
0.256959
0.0361062
-0.0269216
-0.316896
-0.0502488
0.367184
-0.00681205
0.0278849
-0.0210728
-0.107567
0.0755154
0.0320515
-0.0991505
0.0486162
0.0505343
-0.0641762
0.0493877
0.0147885
-0.14271
0.105967
0.036743
0.154425
-0.166481
0.0120576
0.194947
-0.20229
0.0073475
-0.100368
0.13717
-0.0368016
0.173141
-0.0428859
-0.130254
-0.38272
0.366846
0.0158948
0.0888895
-0.111942
0.0230523
-0.358613
-0.238662
-0.000528704
-0.000684211
0.00121292
-0.192342
-0.0483209
-0.0114254
0.00110048
0.0103249
-0.575573
0.586743
-0.0107616
0.685459
-0.38282
-0.302625
0.36774
-0.534261
0.166788
-0.0459983
-0.0216701
0.0676685
-0.174274
-0.14977
0.324077
0.0905289
0.0767434
-0.167272
0.146838
-0.00512443
-0.0205624
-0.111679
0.132242
-0.00178839
0.00872604
-0.00693765
-0.677498
0.433647
0.244115
0.040275
-0.164288
0.124018
-0.288167
0.0410101
0.247161
-0.00482135
0.00303296
0.0500049
0.123136
0.171766
-0.27032
0.210719
-0.223906
0.0131932
-0.123374
0.00436662
0.277362
-0.349381
0.0720505
0.080876
0.162989
-0.243855
-0.330602
0.156361
-0.0260609
-0.0256166
0.0516775
0.156897
0.20944
-0.00705055
-0.158642
0.500552
0.0132974
-0.0357471
-0.0883092
0.0950468
-0.00673768
-0.515207
0.313832
0.254253
-0.362922
-0.105937
0.109814
-0.00387734
-0.162469
0.1787
-0.0162297
-0.525056
0.153884
-0.00994317
0.0258165
0.000105892
0.00112769
-0.00123358
0.132555
-0.449406
-0.00587526
-0.0071448
0.0130201
-0.00926064
0.142157
-0.132896
0.00237782
0.000528272
-0.0029061
0.0673758
0.194983
-0.262339
0.0345642
-0.0265641
-0.00800013
-0.611638
0.332215
0.27944
-0.318415
0.598702
-0.280232
-0.265856
0.0102675
0.0224496
-0.032717
0.00374491
-0.00427361
0.000145132
0.00218007
-0.0023252
-0.215944
0.283341
0.373489
0.198753
-0.572163
-0.0954764
0.00716723
0.211538
-0.171256
0.513561
-0.145602
-0.000866875
-0.00133586
0.00220274
0.118612
-0.00541802
-0.113194
-0.0438267
0.361854
-0.317965
-0.263058
0.0590181
0.204047
-0.0421773
-0.053299
0.023031
-0.0356632
0.0126322
0.0938813
-0.132775
0.0388941
0.131434
-0.00403276
-0.127401
-0.0777973
-0.0286115
0.106409
0.0539169
-0.0624261
0.00850921
-0.456386
0.555286
-0.0986724
0.125152
0.00315395
-0.128306
0.0216652
-0.0676635
-0.27389
0.0769595
0.196945
-0.47793
0.0825608
0.395487
0.029381
-0.0254571
-0.00392386
-0.00688453
-0.0591732
0.0660578
0.0936203
-0.114182
0.0961358
0.200137
0.157549
-0.148795
-0.00875282
-0.000821908
0.00273881
-0.0019169
-0.00364278
-0.00778259
-0.121963
0.137043
-0.015079
0.0295073
-0.000126249
-0.27321
0.111439
0.161772
0.00916576
-0.00910853
-5.72283e-05
-0.368433
0.496647
-0.128145
0.0110796
-0.0101184
-0.000961226
0.00256905
-0.00193505
-0.000634007
-0.0715525
0.164173
-0.0926205
0.493582
0.191888
-0.102727
-0.00320963
-0.000215108
-0.00199212
0.00220723
-0.0522715
-0.0468788
-0.60637
0.123899
0.482739
-0.240764
-0.0222848
0.0939633
0.222506
-0.316439
-0.531341
-0.0747169
-0.48681
0.584211
-0.0969819
0.0229412
0.00198253
-0.00349275
0.00151022
-0.0758364
-0.197373
0.153215
-0.302954
0.213054
-0.581703
-0.124534
0.0656946
0.0588394
0.00825096
0.0278553
-0.0136494
-0.153647
0.0507003
0.0032166
-0.124144
0.437973
0.106005
-0.177557
-0.099542
0.123475
-0.0239333
0.448382
-0.184692
-0.2636
-0.223297
0.276442
-0.0531396
-0.0715724
0.0274381
0.0441344
-0.0774653
0.331719
0.038437
-0.000235622
-0.0382013
0.0204538
0.0398762
-0.06033
0.00975314
-0.297915
0.50109
-0.161349
-0.339641
0.219426
-0.213294
-0.00612775
0.158759
0.00452807
-0.163286
0.000548778
0.00861698
0.0201081
-0.121288
0.101181
-0.0765936
-0.0471674
0.123762
0.218213
-0.210561
-0.0076464
0.00460887
-0.000855263
-0.0037536
-0.170636
0.00816939
0.0222732
-0.0764134
0.0541403
-0.000771506
0.00314933
-0.0686666
-0.0558673
-0.153101
0.217837
-0.0647335
-0.0827504
-0.0106526
0.0934029
0.248626
0.350557
-0.599163
0.119687
-0.0258056
-0.138905
0.0169427
0.0204543
-0.0982514
-0.200636
-0.0732416
-0.160212
0.158041
0.00217188
0.126975
0.225814
-0.352736
0.0298636
0.0952884
0.149902
-0.138548
-0.0113525
0.00991837
-0.00414971
-0.00576866
0.107911
0.0140705
-0.121982
-0.0135899
0.238483
-0.224878
0.0452394
-0.0407325
-0.00450687
-0.0466417
-0.0654089
0.112051
0.00518805
-0.00320552
0.00208916
0.00899043
0.0457482
-0.00731118
-0.264792
0.400791
-0.135946
0.00681934
0.111793
-0.0106754
0.165102
0.301526
0.146946
-0.0829294
0.456491
0.18878
-0.0870048
-0.101774
0.0277784
-0.0345904
-0.0320645
0.121918
-0.0898539
0.00380758
0.000801288
0.150379
-0.150221
-0.000156187
-0.118707
0.103106
0.0156012
-0.00851344
0.076682
-0.0681685
0.00259626
-0.00245113
-0.10949
0.08914
0.0203502
0.625705
-0.287206
-0.338416
-0.0285542
-0.0169202
0.0454744
-0.100126
-0.0074403
0.627371
-0.62686
-0.299346
0.255572
0.00988471
-0.0814327
0.0715481
-0.0887058
0.0851788
0.00352704
0.0197223
0.180808
-0.200523
-0.337778
-0.339521
0.167131
-0.00188307
-0.165247
0.158245
0.000515342
-0.000733529
0.000839421
-0.0780957
0.0988222
-0.0207264
-0.284535
-0.0981662
-0.0825623
0.359951
0.0108175
0.120617
0.0145064
0.0245244
-0.0390308
-0.285755
0.0624675
0.0278403
-0.0206323
-0.00720807
0.00281249
0.000237636
-0.00305012
-0.0140122
-0.104695
-0.415391
-0.0624277
-0.0569754
0.0390787
0.0178967
0.151556
-0.007213
-0.144342
0.00484819
0.0011437
-0.00599188
-0.490078
0.28409
0.206038
0.0521751
-0.0782359
-0.393271
0.12854
-0.000988964
0.112232
-0.111243
-0.12557
-0.449671
-0.00174146
-0.000763499
0.00250496
0.0283943
-0.024176
-0.00421828
0.0684854
0.173395
-0.117373
0.0226473
0.0947257
0.0400069
0.178211
-0.448977
0.0337102
0.000815736
0.0880738
0.130792
-0.0228797
-0.0107727
0.161154
-0.0443588
0.0147005
0.0296583
0.00352788
-0.000715389
-0.586246
0.488446
0.0981122
0.190641
0.00430944
-0.00528516
0.00441828
-0.00226615
-0.00162395
0.0038901
-0.29754
0.546216
-0.464035
0.437688
0.0264905
-0.0153403
-9.54835e-05
-0.125052
0.102834
0.0222184
0.398725
-0.601831
0.203132
-0.080475
0.105034
-0.0245591
-0.144924
0.138338
0.00658603
-0.104041
0.0212907
-0.166811
-0.00997831
0.176791
0.581641
-0.231041
0.141003
0.000515458
-0.141518
0.00298983
-0.00315272
0.000162885
-0.292356
0.385375
-0.0929736
0.0537633
-0.129441
0.0756785
-0.0348599
-0.0131235
0.0479834
-0.242804
0.336802
-0.287488
-0.0618652
-0.0302388
-0.108526
0.138766
-0.00186228
0.0129604
-0.0110981
0.109906
-0.0897977
0.118013
0.0707683
0.00804401
0.191124
0.242738
0.369233
-0.611949
0.00362976
-0.00384487
0.00238056
0.0422559
-0.0446365
0.0487081
-0.0948963
0.0461882
-0.38146
-0.067404
-7.44147e-05
-0.000140296
0.000214711
0.00435139
-0.00430048
-5.0906e-05
-0.0399751
0.0622483
0.030554
0.00401019
-0.122072
0.112812
0.263268
0.469303
-0.657641
0.188707
-0.143295
0.00403312
0.139263
0.000413539
-0.00048914
7.56017e-05
0.123378
-0.134919
0.0115417
-0.172559
0.253445
-0.102015
0.0239189
-0.142994
-0.0218572
-0.0947705
-0.448952
0.544145
-0.0823122
0.078799
0.00351319
0.259534
0.275251
-0.534662
0.0467956
-0.00155623
-0.212937
0.232668
-0.0727689
0.471537
0.0771338
0.114662
-0.191792
0.0517214
-0.128314
0.10357
-0.114223
0.030376
-0.110851
-0.00892962
0.132038
-0.123107
0.375834
-0.0853091
-0.290487
0.0815235
-0.0897982
0.00827477
-0.0202936
-0.0240652
0.026701
-0.0243204
-0.219347
-0.270674
0.0634399
-0.0143586
-0.0490813
-0.476237
0.00667395
0.469566
0.179852
0.196022
-0.470308
0.101949
0.0614893
-0.0410355
-0.0564831
0.517461
-0.46076
-0.104332
0.103344
-0.176307
0.00949895
-0.269131
0.396166
0.00298319
0.164149
-0.24108
0.0221929
0.2189
-0.0080638
0.00308186
0.00498194
0.0807272
-0.127368
0.120789
-0.126206
-0.28145
-0.10176
0.38328
0.0592845
-0.346743
-0.000971484
-0.00257833
0.00354982
-0.00444095
0.00398401
0.000456938
0.293547
0.203158
-0.39128
0.62173
-0.230102
-0.0736459
-0.00866628
-0.294175
-0.0592428
0.353477
-0.000735603
0.0018633
0.0952119
-0.37658
-0.00356896
0.0018275
-0.33486
0.251509
0.0833778
0.102711
-0.0153065
-0.0874048
0.218387
-0.146182
-0.0722011
0.0162013
-0.0102599
-0.00594144
0.0549571
-0.208054
0.00450951
-0.073176
-0.0519044
0.0127331
0.0391713
0.178963
-0.101825
-0.0627037
-0.0623483
-0.0113027
0.0718419
-0.0605391
0.0472295
-0.275838
0.228626
-0.00109457
-0.000388691
0.00148326
-0.0513405
0.0227862
5.08288e-05
0.00430056
-0.185921
0.173307
0.0126149
-0.00234473
0.000511284
0.00183345
-0.160302
-0.0541579
0.214463
0.00139629
-0.0021309
0.000734613
-0.04159
-0.0103144
0.0670363
-0.0916022
0.024566
0.0927802
-0.0257437
0.0266959
-0.0108568
-0.562762
0.341792
0.220988
0.13979
0.0101135
-0.000760398
-6.15083e-05
-0.186477
0.294565
-0.108075
0.224875
-0.00772998
-0.217137
0.00482696
-0.00410724
-0.06276
0.0726448
-0.218094
-0.0445448
0.26266
-0.0891126
0.0805992
-0.0345878
-0.0295883
-0.598872
0.327994
0.271127
0.00291425
-0.000345199
-0.116313
0.0364833
0.0798299
-0.260295
0.519956
0.503948
-0.362925
-0.140907
0.117871
-0.594122
0.239338
0.261845
-0.00821784
0.0897414
-0.0350521
0.0449038
-0.00985164
-0.0401776
0.0247973
0.0153802
0.000945719
-0.0019172
-0.379595
0.0063796
0.373261
-0.0583334
0.112097
-0.00840601
0.00892067
-0.000514653
0.126083
-0.168074
0.0419932
0.00570128
-0.0023532
0.00276674
0.00293716
0.205038
-0.474825
0.270003
0.0983845
-0.0496763
0.314614
-0.49193
0.177431
-0.0209306
0.0731057
-0.138734
-0.191837
0.0143384
0.00186296
-0.0319273
-0.112996
0.188232
0.0813076
-0.269527
0.464862
-0.570698
0.105859
0.142891
-0.132073
-0.0892788
0.0960984
0.126548
-0.127486
0.000939196
-0.0144075
-0.0370261
0.0514336
-0.000987154
0.00238345
0.00661726
-0.00176908
0.010276
0.130728
0.0585506
-0.115429
0.0117225
-0.475636
-0.00370666
0.00144051
-0.0145039
-0.00884815
0.0233521
-0.0202723
0.283912
-0.26361
0.0885822
-0.0840726
-0.294694
0.499154
-0.204426
0.0301542
0.0767518
-0.106906
-0.105129
-0.229706
-0.324582
-0.238161
-0.290705
0.106233
0.184481
-0.0243591
-0.0142523
0.0386113
-0.0723755
-0.21832
-0.0182726
0.0164103
0.00112936
-0.000365354
-0.000764003
0.0839667
-0.0913843
0.00741771
0.0244729
-0.042781
0.0183081
-0.218456
0.265702
-0.0343516
-0.0226238
0.037206
0.589499
-0.251778
-0.337623
-0.0696445
-0.295463
0.109005
0.204225
-0.338153
0.133951
-0.0728528
-0.0698568
-0.363449
0.606231
-0.399706
0.458143
-0.0584049
0.387704
-0.0729955
0.0900079
-0.0982257
-0.323173
-0.28845
-0.000849307
-0.00149543
-0.0110394
0.0448712
-0.0338319
0.00387809
0.00257313
-0.00645121
-0.0760818
-0.0334082
-0.00734531
-0.00664799
0.0139933
0.00402201
0.000424985
-0.004447
0.168519
-0.0424349
-0.469939
0.0903953
0.103988
0.0179534
-0.121941
-0.267893
0.0755597
0.202974
-0.193983
-0.00898811
0.234614
0.391163
0.0106961
0.0290252
-0.0145188
-0.0583804
0.0473411
-0.190699
0.204409
-0.0137048
0.111412
0.0221962
-0.133607
-0.169804
-0.0161153
-0.258632
0.210321
0.00838568
0.118162
0.188294
-0.240518
0.0522356
-0.0974049
0.0924799
0.00492501
-0.178739
0.274897
-0.4358
0.379486
0.00343695
-0.00417255
0.00356943
0.00161862
0.00622975
-0.00266032
0.0452171
0.0854156
-0.130632
0.00647973
-0.00260165
0.00369341
-0.00478798
-0.00223631
0.00305139
-0.000815083
0.00355802
0.000359953
-0.00391797
0.143501
0.366386
-0.509536
-0.13337
0.00357812
0.129793
0.22426
-0.0359545
0.343534
-0.268865
-0.0746475
-0.107232
0.0233941
0.0838379
0.00354339
0.482282
-0.534258
0.0524304
0.0134643
-0.136193
0.12273
-0.00434952
-0.151462
0.155813
0.00410561
-0.0021615
-0.00194411
0.338563
0.251013
0.123016
-0.0048112
-0.118204
0.00138233
-0.00239404
0.00101171
0.096866
-0.0130417
-0.0838242
0.00104186
-0.00245886
0.00141701
0.249797
-0.245818
0.225571
0.517258
0.110552
-0.149534
-0.0211006
0.505136
-0.299848
-0.0254996
-0.0138539
0.0393535
-0.031857
-0.00832053
-0.155811
0.146883
0.00124304
-0.00226095
0.00101792
0.0202148
0.19051
0.105916
0.0137711
-0.00552363
0.00328733
-0.0109594
0.0508357
-0.0179
0.101867
-0.00103171
-0.0985103
0.110369
0.0126473
0.119597
-0.144995
0.0253981
0.0898469
0.0268178
-0.116665
-0.177572
0.180367
-0.00279377
0.0938529
-0.119135
0.0252822
0.0235648
-0.138835
-0.0192547
0.158091
0.109668
0.000780413
-0.110448
-0.525612
0.540407
-0.0143658
0.104163
-0.0330348
-0.0711282
0.217872
-0.0183278
-0.199539
-0.426551
0.307402
0.119248
-0.156779
0.00724745
-0.26426
0.179887
0.0843911
0.000595384
0.00351023
0.0133547
0.0161526
0.0822848
-0.376399
-0.513867
0.419518
-0.0275318
-0.011107
0.0386387
0.00520556
-0.00118355
0.593497
-0.224211
0.000547092
0.000494764
-0.314864
0.22962
0.0852606
0.120635
-0.0909333
-0.0297015
0.0162046
0.319046
-0.335193
0.00144633
-0.000659563
-0.000786766
0.0665132
-0.0882322
0.021719
0.0395527
0.179878
0.304838
-0.194011
-0.110809
0.0124363
-0.0197816
-0.111476
0.0794112
-0.0113394
0.0112372
0.000102142
0.242769
-0.606197
0.000136427
-0.00298757
0.00285114
-0.00597464
0.0912153
-0.0133841
-0.0778311
-0.355478
-0.0709911
-0.00210886
0.00428893
0.026586
-0.0122025
-0.0143835
-0.133157
0.169831
-0.036672
0.118508
0.385547
-0.220869
0.262529
-0.0416436
-0.146885
-0.0662229
0.0963771
-0.0413281
0.524028
-0.513458
0.150657
0.647894
-0.435209
-0.212461
0.404113
0.244011
0.00143093
-0.00150534
-0.0395432
-0.0676887
0.0353639
-0.0967327
0.111121
-0.0143878
0.569365
-0.0997375
-0.0522909
-0.403921
-0.00612785
0.11754
-0.018143
0.00933204
0.00881092
0.149997
-0.166186
0.0161909
-0.109186
0.335047
0.449921
-0.245661
-0.278261
-0.099846
0.37811
0.0175694
-0.00243654
0.00503281
0.401296
0.15982
-0.561046
-0.274307
-0.133896
0.408214
0.000979677
-0.0271595
-0.15041
0.105368
0.113021
0.0527445
-0.298537
-0.143449
0.258586
-0.115126
0.1783
-0.218641
0.0403453
-0.00173301
0.111401
0.0603892
-0.0716919
0.0251858
0.0985193
0.00546903
-0.150222
0.0575561
0.0926664
0.0112084
0.0876138
0.00615111
0.114638
0.449581
-0.298123
-0.151407
0.00279871
0.000191119
-0.452622
0.246993
-0.0221106
0.2492
0.0105804
-0.259769
0.0705858
0.0335772
0.0775407
0.0236452
-0.101186
-0.0159579
0.397794
-0.381566
-0.00470683
0.101573
0.107008
-0.134777
0.0277693
0.00038273
0.000858756
-0.00124149
-0.0792817
-0.0709402
-0.00156477
0.0953009
-0.0937353
0.144204
-0.148552
0.319129
0.145755
0.0430198
-0.0163188
0.0980046
-0.0157728
0.0135538
0.00221896
0.162988
-0.341701
-0.154854
0.185896
-0.0310387
0.105334
0.00578686
-0.000156428
-0.00219677
0.00578045
-0.00578045
0.118502
-0.122534
-0.0608972
0.106114
-0.0310787
-0.206407
0.199595
-0.224818
0.0252313
-0.205037
0.257805
-0.0707754
-0.0190736
0.0898494
-0.0499072
0.0186096
0.148681
0.00287614
0.0158405
-0.0119935
-0.00377927
-0.00286041
-0.00847897
0.0253486
-0.21935
0.19401
-0.00926013
0.115177
0.084895
-0.0183817
0.079763
0.0951059
-0.174866
-0.287571
0.0793554
0.208221
-0.0285553
0.00192974
0.0266256
0.0452647
-0.0322637
-0.013001
-0.0377254
0.0330382
0.0046872
-0.0370749
-0.0649667
0.102042
-0.53604
0.0495626
0.00321822
-0.000303966
-0.0047276
-0.464267
0.448661
0.182559
-0.181671
-0.000885538
-0.00834403
-0.116601
0.124946
-0.123458
0.02309
-0.0146466
0.120614
0.0343072
-0.0138337
-0.0204735
0.109438
-0.0195911
-0.0162352
0.193076
-0.176838
0.0225259
0.0204939
0.263955
-0.200526
-0.0634167
0.00401146
-0.000453438
0.276833
-0.574341
-0.00601341
0.407364
0.056625
0.00681484
0.035945
0.00931973
0.030103
-0.00477608
-0.025327
0.09364
0.170326
0.252586
-0.266158
-0.448336
0.174041
0.0109788
-0.153972
0.00285078
0.114997
-0.0945428
0.218294
-0.0186924
0.105364
-0.123264
0.135679
-0.256129
0.27238
-0.0538879
-0.063485
0.125737
-0.0107391
-0.0943199
0.0704798
0.0238402
-0.0379505
0.354554
-0.316547
-0.0871286
-0.0204389
0.107568
-0.0692584
-0.00493783
0.00606719
0.0340001
0.119954
0.107835
-0.0302945
-0.188117
0.0332665
-0.254172
0.53369
-0.279246
0.29642
0.0788009
-0.375118
-0.0859126
0.308448
-0.0835732
-0.0138337
0.0974071
0.153809
-0.0632797
-0.0503395
0.0985104
-0.0481708
-0.037603
0.0231955
-0.143801
-0.0164112
-0.225328
-0.373311
0.032736
-0.090277
0.0575411
0.0224461
0.007657
-0.101607
0.0826353
0.0189713
0.051248
-0.343556
-0.183622
0.146371
0.0372521
-0.11257
-0.400769
-0.166571
-0.0376712
0.204247
-0.0499484
0.212944
0.00547061
0.0211154
-0.281556
0.613799
-0.0660585
0.193858
-0.00768968
-0.186164
0.0893823
0.026744
0.144384
-0.0606403
-0.0837437
-3.41071e-05
-0.000553375
0.000587482
-0.0249134
-0.0856638
0.110577
0.0413869
-0.262237
0.00069498
-0.00101464
0.000319657
0.00484072
0.000939725
0.350871
-0.269797
-0.0810434
0.224197
0.0250136
0.0919962
-0.0736264
-0.0183697
0.0809295
-0.118004
0.119476
0.00390159
-0.346375
-0.243367
0.589815
0.037989
0.266866
-0.102446
0.0871399
0.244941
-0.0566988
-0.114922
-0.0125634
-0.158029
0.127791
0.386265
-0.0897528
-0.148801
0.155641
-0.0068392
-0.0231214
0.399899
-0.17049
-0.229364
-0.272028
-0.0243323
0.296383
0.670566
-0.389104
-0.281226
-0.00270019
-0.00174077
-0.40854
0.621598
-0.197506
0.00681232
0.00178576
0.00813261
0.00354878
0.203178
-0.206719
0.0393264
-0.00338138
-0.0240419
-0.186513
0.0692497
0.0679207
0.235567
0.122864
-0.00894947
-0.113914
-0.0893073
-0.380937
0.136023
-0.00531343
-0.130708
0.325861
-0.582627
0.257097
0.111367
-0.0978748
-0.0134922
-0.216504
-0.0983439
-0.0295642
0.0309466
0.0482082
-0.0429992
-0.00520897
-0.00704279
-0.0111002
-0.555956
-0.0703977
-0.228881
0.125095
-0.118943
-0.14593
0.159502
-0.0135708
-0.000840381
0.00322154
-0.00238116
0.0204688
-0.0172648
-0.00320398
-0.133298
-0.029246
-0.339118
-0.00254495
0.341694
0.101323
-0.0113152
-0.024351
0.0195749
-0.0871676
-0.0071523
0.0563385
-0.106678
0.143773
-0.000947051
-0.142825
-0.0238034
-0.0117508
0.0355542
-0.163025
0.147146
0.0158802
0.158153
-0.180008
0.00527556
0.0891573
-0.0944327
-0.0744053
-0.00702738
-0.148514
0.0152171
-0.00370989
0.0190099
-0.0153
0.145526
-0.152308
0.00678328
-0.27857
0.0746854
0.2039
0.102574
-0.110917
0.0657775
0.113189
-0.402288
0.321728
0.0806335
-0.186512
0.0199463
0.0125149
0.145035
-0.1653
-0.0479896
-0.38792
-0.0305415
0.418521
0.178382
0.150353
-0.0134285
-0.136924
-0.0588029
0.241833
-0.183017
-0.138183
0.0232614
0.000505841
-0.339603
-0.235248
0.463269
-0.227992
0.140285
-0.548816
0.213697
-0.162594
-0.0510935
0.216135
0.228012
-0.443962
0.0302722
0.181991
-0.212257
0.623574
-0.285109
-0.338254
0.00102929
0.000417039
-0.14632
0.152474
-0.00615322
0.0392192
-0.0404396
0.241645
-0.514314
0.272941
-0.358291
-0.200916
0.559241
-0.039515
0.0863885
-0.0468733
0.149127
-0.0295291
0.248061
-0.199422
-0.0486385
0.0488613
0.0176082
-0.0664695
0.134156
-0.0421737
-0.0919817
-0.0900322
0.0691016
0.00734954
0.0995608
-0.122563
0.0230024
-0.0840747
0.259365
-0.175269
-0.636707
0.0292608
0.607468
0.596617
-0.192243
-0.255457
0.0143871
0.0107446
-0.0111525
0.000407875
-0.603131
0.244871
-0.0842712
0.0116655
0.0726057
-0.123284
0.153561
-0.00138022
-0.0070258
0.105408
-0.135737
0.0303293
0.107947
0.0262093
-0.0163512
0.105734
-0.436052
0.0961756
0.340038
0.28158
0.315435
0.0100283
-0.429485
0.283752
0.14574
-0.302112
0.0881827
0.213942
-0.0555656
-0.020112
0.0756776
0.248033
-0.00953754
0.0901138
0.455711
-0.5458
-0.00565937
0.175281
-0.169617
-0.0509436
-0.421174
0.472287
0.323879
-0.470875
0.147359
-0.162733
0.0086836
0.00389538
-0.00473576
0.165658
-0.173766
0.00811006
0.246154
0.153783
0.460274
0.126898
0.00501855
-0.00517497
0.00920707
0.327615
-0.0938668
-0.233725
-0.11372
0.276727
0.0717407
-0.0228794
-0.0797988
0.0873635
-0.00756459
-0.00638522
-0.000781415
0.00716663
-0.115075
0.113512
-0.0445542
-0.234002
-0.230009
-0.355948
0.502294
-0.178077
0.0144117
-0.153245
-0.0106472
0.019463
-0.0998405
0.0803775
0.0557139
0.117594
-0.000227231
-0.000161459
-0.283094
0.081976
0.201136
0.040552
-0.217995
0.177449
0.00584566
-0.00754336
0.0016977
0.155234
-0.449894
0.00458725
0.213289
0.278487
-0.354056
0.0756037
0.33281
0.260942
-0.593563
0.00236662
-0.15116
0.0888989
0.0146713
0.20787
-0.275071
0.0672195
0.0383375
0.000988873
0.00200204
0.00826776
-0.0102698
0.0311912
0.230277
-0.314087
-0.112739
0.426955
-0.089718
-0.0211061
0.110824
-0.0730628
-0.323445
0.566262
-0.0864772
0.0977973
-0.01132
-0.434611
0.120661
-0.153965
-0.284427
0.363307
-0.0788238
0.435168
-0.147578
-0.287518
-0.105766
-0.247346
-0.0971724
0.344558
0.0418776
-0.096203
0.141722
0.0414986
-0.183219
0.387808
-0.586318
0.198513
0.376205
-0.501032
0.125044
-0.00668557
-0.273688
0.280378
0.0209204
-0.315534
0.294677
-0.338478
0.0664745
-0.0316319
0.042812
-0.0111801
0.293843
0.0443779
-0.33817
-0.103021
0.397646
-0.294548
0.0183548
-0.00287939
-0.0154754
-0.0246896
0.024454
-0.153012
0.136779
-0.156604
-0.00235671
-0.120564
0.122921
-0.0481809
-0.168285
0.216473
0.468943
-0.156571
-0.312286
0.126706
-0.0499626
-0.000597102
0.110545
0.000822782
0.265261
-0.481935
0.216704
-0.300205
0.106219
-0.000643673
0.0211124
-0.0523917
-0.0828765
0.13527
0.00134832
-0.00134222
-6.10712e-06
0.528103
0.172225
-0.000608715
0.00459273
-0.184439
0.156003
0.0284379
-0.275622
0.0596968
0.0120972
-0.011753
-0.000344171
-0.0171152
0.0104428
0.0066724
0.348704
-0.327713
0.102243
-0.0969672
0.487877
0.108957
-0.338371
0.0910707
0.428221
-0.186382
-0.000824352
0.000684056
0.468157
-0.251823
-0.325963
0.284337
-0.0474162
-0.275631
0.0790219
0.196618
0.0331902
0.0874448
-0.0934844
0.0436052
0.308367
0.0673657
-0.375667
0.101046
-0.122036
0.0209896
0.377555
0.161096
-0.538571
0.00229405
0.500113
-0.484072
-0.0159384
0.345143
0.368267
0.212051
-0.580295
0.0133886
0.458393
0.0223098
-0.00856776
0.0128788
-0.00431104
0.0118908
-0.0418943
0.0300035
-0.00468482
-0.178936
-0.046949
-0.0693641
-0.00691435
0.00752138
-0.000607029
-0.286061
0.345375
0.000185705
0.00303252
-0.0394222
0.0138055
-0.00707029
0.000155937
-0.00305166
0.0116158
-0.00856417
0.00201495
0.0163399
-0.0195189
0.0199016
-0.067979
0.100715
0.182965
0.0795808
0.0077431
-0.154277
-0.0301593
0.0057323
-0.0202362
-0.406686
0.0513047
0.0838079
0.278102
0.279857
0.0477813
0.537465
0.166317
-0.230859
0.0645475
0.123505
-0.14467
0.021166
0.00111699
-0.00247257
0.00135557
0.368345
-0.284478
0.425015
-0.177974
-0.247029
-0.00213534
0.00942403
-0.00728869
0.0126605
-0.0780286
0.0653681
-0.265287
0.258602
0.0182289
0.0205175
-0.173773
0.153259
-0.0669624
-0.209473
0.276464
0.0254405
0.0227677
0.0870894
-0.0688606
0.165192
-0.209152
0.0439645
-0.163416
-0.112206
0.00834845
-0.00634642
0.00675745
-0.000911785
0.00519302
-0.0153114
-0.361258
0.076893
-0.0822781
-0.0291973
-0.00848922
0.115497
-0.00559205
-0.00241687
0.00800891
-0.0248197
-0.119346
0.129954
-0.0106076
0.259854
0.17329
-0.257346
-0.0712223
-0.211855
-0.507226
-0.111019
0.0702565
0.507486
-0.363662
0.168598
0.00970586
-0.0636877
-0.0993361
-0.00118662
0.00032587
0.000860758
-0.135951
0.0313084
0.104643
-0.0884927
-0.237432
0.121757
0.00381225
-0.00181851
-0.00199374
0.16225
0.325155
-0.251266
-0.0738798
-0.00329737
8.55843e-05
0.00321179
-0.358544
0.0894682
-0.300712
-0.00138491
0.0772069
-0.107334
0.0301271
0.00557866
-0.00433562
0.482821
0.30413
-0.342027
-0.0179402
0.0248189
-0.00687874
-0.113651
0.066702
-0.0194398
0.0860786
-0.0666387
-0.138204
0.0335203
0.104684
-0.0496817
-0.06226
-0.487292
0.179346
0.308001
-0.0956722
0.0983194
-0.00264709
0.178516
0.146649
0.00266125
0.360711
-0.363277
-0.0712377
-0.216328
-0.0417777
0.0162781
0.000167614
-0.00655283
-0.366068
0.083133
0.283004
0.496806
-0.12039
-0.0654958
0.344015
0.0121974
0.0616771
-0.180168
-0.00709235
0.187264
-0.223675
-0.205804
-0.299817
0.0817451
0.00284731
0.36153
-0.053104
-0.0089714
-0.0706991
-0.0180763
0.0887755
-0.00420149
-0.00340485
0.00760634
-0.324435
0.0816687
0.116495
-0.0288844
-0.0876099
0.183844
-0.158488
-0.000206012
-0.000453551
0.00293502
0.000877233
0.00349069
-0.000751885
-0.123279
0.120923
-0.00310179
-0.0140134
0.462397
0.0105207
-0.0348798
-0.471974
0.478947
-0.0749419
-0.14896
0.167423
-0.154958
-0.0124642
-0.0806474
-0.0368017
0.00926998
0.0355059
0.0429946
-0.0785004
0.0862059
0.027425
-0.113631
-0.0102189
0.0391951
-0.0289762
-0.281352
-0.274685
0.556335
-0.0650374
0.0999254
-0.034888
0.0993648
0.335879
-0.0873786
0.153159
0.0215512
-0.016273
-0.0052782
0.234739
0.108815
0.168798
-0.640753
0.220701
-0.264263
0.0435777
0.106963
-0.256091
0.149155
-0.000312214
-0.000874408
0.463659
-0.0961718
-0.367278
0.510639
-0.170079
0.00944424
-0.0217624
0.12949
-0.107727
0.149442
-0.149037
-0.000404292
-0.0263302
0.00197922
-0.0972438
-0.018283
0.115527
0.0109253
0.000478037
-0.0114033
0.00706202
-0.138549
0.113154
-0.165543
-0.00840668
0.00105493
-0.180169
0.00971023
0.0675466
-0.0772568
0.0035655
0.0243194
0.208219
-0.0108642
-0.197347
-0.311474
-0.0507846
0.362324
0.00492516
0.0166378
-0.0215629
-0.0516616
-0.252739
0.262497
-0.143515
0.0330767
0.110439
0.154576
-0.00457736
-0.34701
0.123056
0.223979
-0.0251941
0.191517
-0.138829
0.245815
0.153775
0.287881
0.309134
0.137494
0.00627975
-0.0231896
0.0506278
-0.373297
0.136355
-0.128007
-0.00834802
0.102489
0.213861
-0.316286
0.104743
-0.0940398
-0.010703
-0.247965
0.57417
0.15601
-0.000189384
-0.13318
-0.230587
0.171795
0.318898
-0.0768016
-0.242066
-0.300089
-0.065907
0.0367907
-0.0367979
7.17188e-06
-0.0867201
-0.0310144
0.117735
-0.0152108
0.0427217
-0.0275108
0.27014
0.188028
-0.324502
0.262871
0.0616552
0.00655345
-0.275919
-0.0781026
0.0163062
0.114464
-0.13077
-0.122972
0.0362519
-0.231893
-0.115094
0.0231683
0.11517
-0.262471
0.365037
-0.0232271
0.0653696
-0.0421425
-0.287965
0.0352313
-0.0047981
0.197877
0.00410551
0.000721456
-0.0822239
0.100014
-0.0177901
-0.084087
0.395853
-0.311698
-0.224538
0.187887
0.0366605
0.00199087
-0.0105586
0.350134
-0.347386
0.469707
-0.11
-0.359599
-0.0072618
0.00166975
0.00184662
-0.00267097
0.0245355
-0.194338
-0.0205169
-0.0820757
0.102593
0.542921
-0.285716
0.233619
-0.0139993
0.235018
-0.21281
-0.355395
-0.0805062
-0.0963336
0.0149016
0.0814321
0.306757
-0.280956
-0.0257447
0.0132695
0.0643108
-0.0775803
0.193454
0.405295
-0.441729
0.0864947
-0.293442
0.199595
0.0168725
-0.114116
0.0036873
0.00213811
-0.0058254
-0.227605
-0.0678394
-0.00730896
-0.230941
0.238267
-0.34275
-0.144482
0.193831
-0.185783
0.480087
-0.147105
0.0187362
0.13546
-0.121995
-0.584508
0.261084
0.00826155
0.0366422
0.115685
-0.0958955
0.0308582
0.00516887
-0.00147546
-0.0206088
-0.00794649
0.392217
-0.309008
-0.298847
0.0475911
-0.262164
0.334369
-0.0721766
-0.0109422
-0.174671
0.142955
0.00168132
0.00316501
-0.00484634
-0.00214032
-0.00526646
0.00740679
0.227646
-0.172685
0.00361104
0.00648341
-0.0136282
-0.144934
0.146762
-0.00182637
-0.103718
0.0832008
-0.11259
0.0876773
-0.00388059
-0.0122774
0.107609
-0.00286558
0.0294463
0.0554309
-0.0848772
0.00463838
-0.000893467
0.143709
-0.00201901
-0.141689
0.173336
-0.000419253
-0.0287796
0.077396
-0.399266
-0.0073332
0.215382
-0.138412
0.0547235
-0.0450133
-0.126867
0.140255
-0.0133868
0.369592
-0.287249
0.120364
0.00250081
-0.0983834
0.11469
-0.0064991
-0.00203157
0.000219126
0.00181244
0.216113
-0.00730927
-0.208795
-0.0469616
0.0367427
0.0223343
0.137
-0.159333
-0.032144
0.0921717
-0.0600276
-0.0546203
-0.0471808
0.101801
0.116981
-0.083791
-0.159646
0.180167
-0.365419
0.208059
0.0338736
0.29767
-0.429363
0.131753
-0.0393706
0.204566
-0.500455
-0.0247436
0.18622
-0.366689
0.106327
0.260416
0.000370039
0.110882
-0.111251
-0.0245101
0.118363
0.0119901
0.00394985
-0.01594
0.0806117
0.0257346
-0.106346
-0.0361396
-0.0573449
-0.0388639
-0.0195165
0.0730498
0.264541
-0.361136
0.0966502
-0.000868738
0.0133196
-0.0424507
0.0291311
0.318835
-0.389905
0.0711619
0.357245
-0.151946
-0.0092729
0.161222
0.00132798
0.00941666
0.34388
-0.593883
0.250014
0.12724
-0.00467534
-0.122564
0.0748869
-0.00670802
-0.0681788
0.116487
-0.150078
0.0335919
0.370735
-0.274052
-0.0966693
-0.289989
0.227903
0.0621009
-0.185762
0.321734
-0.135915
-0.0767007
-0.0668142
-0.146583
0.0994164
0.234668
0.00364553
-0.0332098
0.033428
-0.0176032
-0.0158248
-0.119899
0.120415
-0.0947828
0.00830566
-0.0148325
0.158542
0.0949865
-0.0882593
-0.00672722
-0.214788
0.218345
-0.203284
0.155109
0.015278
0.0358526
-0.0511305
-0.0692003
0.090105
-0.0209047
0.0114457
-0.00620853
0.030344
-0.0475374
-0.589151
-0.413828
0.314219
0.0996599
-0.152424
0.30935
0.341724
-0.0614174
-0.280288
0.122784
0.153662
-0.0597617
-0.0718975
0.13166
0.365913
-0.0673698
-0.298487
-0.00118672
0.108094
-0.106907
-0.496897
0.446124
-0.165301
-0.30285
0.126734
-0.0187863
-0.0114318
0.116796
-0.0598347
0.0892811
-0.351429
0.0653995
0.0347033
-0.168983
-0.244796
0.0133783
0.0363147
-0.049693
0.281273
0.21791
-0.182974
0.140088
0.457881
-0.192588
0.017621
0.0875387
-0.10516
-0.000240119
0.0743242
-0.102936
0.281881
-0.0804647
-0.0554858
0.356214
-0.13801
-0.218177
0.148819
-0.002802
0.00224862
0.238241
0.0963784
-0.334575
0.201307
-0.272537
-0.137096
0.115335
0.170272
0.0122907
0.00418669
0.287239
0.119077
-0.174953
0.0558792
0.254508
-0.278821
0.110051
-0.497909
0.135464
-0.0119579
-0.101682
-0.164461
-0.218035
-0.232673
0.450922
-0.166971
-0.0421776
-0.000963168
-0.00218955
-0.202726