/*--------------------------------*- C++ -*----------------------------------*\
| =========                 |                                                 |
| \\      /  F ield         | OpenFOAM: The Open Source CFD Toolbox           |
|  \\    /   O peration     | Version:  v2012                                 |
|   \\  /    A nd           | Website:  www.openfoam.com                      |
|    \\/     M anipulation  |                                                 |
\*---------------------------------------------------------------------------*/
FoamFile
{
    version     2.0;
    format      ascii;
    class       volScalarField;
    location    "950";
    object      omega;
}
// * * * * * * * * * * * * * * * * * * * * * * * * * * * * * * * * * * * * * //

dimensions      [0 0 -1 0 0 0 0];


internalField   nonuniform List<scalar> 
13917
(
5.24983
0.0412663
0.19613
0.0222663
0.0291484
0.0406006
0.0267518
0.0819921
0.0255079
9.98862
0.0787299
0.0217939
0.0245772
1.30946
0.0280198
6.95438
0.0218839
0.0672709
0.108728
7.8727
0.0341681
0.0217741
0.0444843
0.0217756
0.0233523
0.0363812
1.99657
11.227
0.0475681
0.0200233
10.0899
0.0644486
0.0223023
2.99276
0.0214217
0.10109
0.0241592
0.0235871
0.0267883
0.0384644
0.021844
0.0217794
0.02402
0.102811
0.1023
0.193006
0.0323798
5.71141
1.24329
0.0214401
0.0217597
0.111774
16.3286
0.0217167
0.0217935
0.110582
4.27836
0.0444949
0.0216394
0.14934
2.64247
0.0305331
0.0209775
0.0231591
3.12443
0.0851427
0.0521164
0.103495
0.0730422
5.80981
2.94867
3.12342
0.021752
0.0213733
0.0350662
0.0238574
0.024747
0.0212875
0.0236269
0.0223809
0.0223203
0.0219932
0.0217343
3.09321
0.0211516
0.121329
0.0621379
0.0216323
0.0380886
0.021813
0.0207435
0.0241904
1.19752
0.0211067
0.0222729
0.0517372
1.37947
0.0222566
0.0215318
0.120142
0.021359
0.0212634
0.0223669
0.0214732
0.0246749
3.41033
2.94122
0.0303939
0.0220599
2.0346
0.0215418
2.95117
0.0473927
5.39254
3.13284
0.0242985
0.101729
0.020878
0.181073
0.0216668
0.0218921
0.0210315
0.0568618
0.0898626
5.35164
3.18817
0.0229832
0.0369211
0.021159
0.0908411
0.0322764
0.139028
3.49956
0.0242543
0.0752916
1.99853
2.78245
5.24912
0.0388584
0.0235339
0.520188
0.0211455
3.40867
0.021205
0.0216747
0.0250985
2.93581
0.318672
6.31241
0.021754
0.0352903
0.0211353
0.0216525
0.0216756
1.65242
0.0224917
0.0214104
3.4669
0.021493
0.0210642
0.021137
2.81656
0.0262725
0.674677
2.51632
0.105907
23.419
2.76951
0.0195907
0.0412436
0.0219149
3.39062
0.0254667
2.55998
0.0682
0.0212899
0.0222691
0.121658
0.0315302
0.0268825
0.0239128
0.0218165
0.0217579
0.167416
0.183778
0.129038
0.02173
0.16752
0.0200333
0.0994515
0.0684335
0.0943639
0.133517
5.1156
0.0211145
5.16901
0.0259386
3.57746
0.0213811
0.0222458
0.0303581
5.5973
6.70158
0.0237545
2.09506
0.0365336
0.035689
0.0211477
0.120986
0.022315
0.0208856
0.036448
0.0395802
5.8695
0.0731926
0.0381774
2.92581
0.0226514
0.0203456
0.0203337
3.0564
0.158517
0.140643
0.0213651
0.0211075
2.01594
6.23693
0.0202946
0.0202826
0.0218563
0.0203564
0.0203471
3.27921
3.81118
0.0219471
0.0195956
0.0727104
3.35974
0.0216129
0.0213624
2.10403
3.46801
0.180285
2.91889
0.0933813
0.0212133
2.58767
0.0755527
0.0443476
0.0729115
0.0234864
4.42183
0.0216805
0.0413629
0.0619356
0.0220654
0.0219792
0.0231353
0.027322
0.0214917
3.71314
1.18956
0.0210345
0.0202837
0.0226291
0.0202882
0.0216852
0.0245632
0.0364993
0.0211562
4.18037
2.83431
0.0215219
0.0252228
0.586979
0.0202321
0.0901119
3.32511
0.0202429
4.28443
0.0213985
2.81028
0.0213767
0.0263831
0.0221442
0.0211717
0.144005
0.0227204
0.333365
0.028368
1.10265
0.0255945
1.80396
5.47299
0.0211347
0.0506053
0.0279415
0.0246091
0.0286434
0.0235809
0.0211807
0.0224
0.119937
0.0379055
0.0401603
0.0234096
0.0213456
3.5125
8.29513
0.0210767
0.0230462
0.0246489
0.50261
0.120806
2.80807
2.55463
0.0585253
0.148551
0.0248822
2.96834
0.527667
0.195875
0.0243844
0.0277049
1.98962
0.0221878
0.0445439
0.0936012
0.0217576
3.38935
0.0211977
0.0405091
0.0204479
18.0042
0.0207973
0.0378498
0.0371416
0.0487641
0.0216562
0.0729893
3.22814
0.0221645
0.0221783
2.92377
3.29715
2.64446
1.34485
0.0202214
0.0218997
3.53097
0.148537
0.0202346
0.0285965
0.0217274
0.0533973
0.03893
0.108726
0.0902619
0.0906864
0.040065
3.19329
0.021198
0.0221731
0.0307513
0.177897
0.0217209
6.17925
0.03984
0.257793
0.0218387
0.117155
0.0234321
1.19685
0.0217494
0.166934
0.562415
0.0398729
0.0215468
2.12146
0.0206435
2.50911
0.1454
0.0217468
1.22245
0.0225469
0.290424
0.0207042
6.7329
0.289535
0.0236565
2.05657
0.0788957
0.0231094
2.62083
0.232157
0.0232331
0.144799
0.021802
0.0800716
0.195442
0.0212226
0.0261728
0.0233807
0.0211565
0.0209351
0.0212481
2.87129
0.11824
0.0219887
0.021311
0.0216086
0.0494749
0.104778
0.0202827
0.0196096
0.118816
0.116104
0.0211987
0.0235057
2.60044
1.63408
0.100202
0.114781
2.76213
0.0207339
0.0202513
0.0313088
0.0209249
0.020295
0.0220309
0.020266
0.020676
2.75852
0.0218479
0.0412925
3.8194
0.0502674
0.0209045
0.0216329
2.64475
0.0303851
6.53681
0.0203746
0.0213503
0.0207127
0.0203669
0.0240351
0.0227545
2.59
0.0254763
3.49991
0.0213445
0.0347735
0.0262519
0.0222456
0.0909466
2.63347
0.0216919
1.69656
0.0209379
0.0213428
0.0215597
0.0225657
0.020841
0.0222214
3.46363
2.56225
0.0208231
1.89933
0.116297
0.0218809
0.0548384
0.0701185
2.5786
0.0269354
3.41851
0.285655
0.296921
0.0227783
0.0654321
0.0270323
0.0233416
2.44336
0.0208849
0.0216614
0.0222796
0.0258366
0.0333015
0.157362
0.0521135
0.0249362
0.0261331
0.0641506
0.0533081
0.0219907
1.52456
0.0357698
0.0283903
2.50757
0.0211601
0.0554552
0.137568
0.020839
3.27703
0.0214469
0.0203633
0.050753
0.0203852
0.0224599
0.119305
3.54338
1.87255
0.0211325
0.0224741
0.0232896
2.17084
2.3391
0.0218839
0.0217589
0.0211131
0.0574326
0.5341
0.0212198
0.0216334
0.022156
0.021136
0.0258939
0.028458
0.0210821
0.0528376
0.0208415
0.0216513
0.0232341
2.85151
0.0204019
0.0237547
0.0214971
0.0337413
0.0642024
0.0571765
0.0644203
0.127973
0.0229967
0.0582424
3.59104
2.81645
3.44714
0.0210018
0.0215114
0.026665
0.0214339
3.17726
0.0202605
0.772826
0.025925
3.4845
0.0987498
0.0240106
3.22496
0.0208133
0.0606488
0.0221728
0.0224918
3.48431
0.0203217
0.209033
0.0212022
0.0228706
0.0215581
0.14891
0.0262086
0.0202643
0.103829
0.0537117
0.684716
2.81943
3.6001
2.55258
0.0204093
6.07
0.0205387
2.70772
0.342424
0.0230688
0.0246935
0.0213077
0.0352888
0.0236627
0.0203358
0.0221885
0.0242911
2.59131
0.0211828
0.0583018
0.0216276
0.0202534
0.0214492
0.140207
2.73873
8.70463
0.0682578
0.0283145
1.30475
3.24963
0.0207303
2.59566
0.0240551
0.09482
0.0214286
1.76104
0.0211162
0.0261998
0.0216978
0.704187
0.036697
3.09521
0.0211717
0.0351329
0.021411
0.0214725
3.05924
0.101345
0.0216068
0.11856
0.0213453
0.0222025
0.0212684
2.91711
0.0211866
0.0278458
0.0202501
0.0215012
0.178438
0.0211797
0.110626
0.0221382
0.0208146
2.73708
0.0600183
0.0218267
17.7526
0.207628
0.125665
0.143203
0.0207968
0.0290668
2.97304
0.231253
0.0299896
0.0241757
0.0265569
0.0219979
0.0212374
0.0623848
0.0692186
0.0250976
2.51152
0.0371512
0.848367
2.39943
0.0376083
0.0360391
0.132337
3.83549
0.0211863
0.0318766
0.0615725
0.0208261
0.0212957
0.0214326
0.0242193
0.0225086
5.76636
0.0343129
0.0211816
0.0870442
0.021073
2.78146
0.0213914
0.0211571
3.44374
0.0604884
0.284279
0.0218147
0.021271
0.0211262
0.0221535
0.0282423
0.0211579
6.03817
0.0304367
0.567947
0.29028
0.0314216
3.62891
0.0224803
0.0221013
0.0214755
3.21003
1.98639
0.0263453
5.7629
0.705741
0.020808
0.0211145
0.0240457
3.33419
0.31431
0.0369863
0.0221189
0.0237525
0.097943
0.0242121
0.10847
0.0344525
0.0222099
0.0224088
0.0221162
0.0281518
0.0261303
0.237262
0.0250112
0.0244884
5.78708
0.0212675
0.738506
0.0238459
0.0342144
0.0257311
0.222056
0.0218545
0.0572135
2.73206
0.249684
0.0214578
0.0250385
0.0231158
0.0213465
0.0216815
0.0322755
0.0260391
0.155495
0.110725
0.0207697
0.21514
0.0254538
0.0258718
0.121452
0.0219959
0.0605198
1.17285
0.0202889
0.0605223
0.0797432
0.0341413
0.0210499
0.0208687
0.021227
7.15676
0.0222589
0.0215667
0.0400053
0.0211836
0.0209524
0.105914
0.395579
0.038094
1.70303
0.0495356
3.58519
0.0216866
0.0252443
0.527384
0.0230864
0.0252812
0.0216353
0.021257
0.021789
0.0255098
0.0591536
0.0210456
0.126953
0.021979
0.413194
0.0238858
0.0268708
0.0204526
0.0737345
0.0266683
2.72913
0.0392942
0.0220349
2.85259
0.022502
3.94001
0.023464
0.0552285
0.0237112
0.02093
0.0214411
3.32728
0.0280657
0.133246
1.63064
0.02134
0.0344076
0.0195825
0.0267954
0.461408
0.0196076
2.61103
0.0238345
0.0564686
0.0996339
0.63778
0.0204121
0.0213456
0.0983978
0.0207865
0.021679
0.023017
0.0214625
0.0401083
0.0204009
0.1009
0.022206
5.64956
4.0504
0.0464829
3.5668
1.74457
7.49087
0.636827
0.0207466
0.0220836
0.0215786
0.0225122
0.0211175
0.0281868
0.0212296
0.11267
0.0217158
1.93927
0.022172
0.0306209
0.0864886
0.0210406
0.041105
0.0225004
0.0227101
0.0260025
0.0206487
3.73192
0.0741303
0.064327
0.0210743
0.0215106
0.0220017
0.0220651
2.51374
0.0207688
0.112482
0.0210985
0.272818
0.0260225
0.0212148
0.0589227
0.0309812
0.0207802
0.298338
2.55467
0.0241417
0.0734757
0.0207651
0.120799
0.0209347
0.022066
3.56704
0.0215937
0.0223449
0.0858074
3.90931
0.0214389
0.799495
1.46821
0.0219026
0.02319
0.0215107
2.49168
0.0214824
0.111449
0.0216983
3.32315
0.0264014
2.53895
0.0213138
0.0201407
0.293879
0.0229873
0.0211841
3.62671
0.0229653
0.0209239
0.756994
0.0218916
0.0220803
0.0684828
0.0231248
3.17379
0.0390432
0.0698017
0.133229
0.0236866
3.26719
0.0224266
0.0642317
0.0213916
3.66279
0.283866
0.0218706
0.0209783
0.0221446
0.0218874
0.0208162
0.0207471
0.0211044
0.021432
0.0289731
0.0202895
0.022778
0.0685385
2.54274
2.73206
0.0796987
0.0220126
0.295364
0.0211843
0.489519
0.487253
24.4119
0.0203202
0.0207563
0.0217316
0.0216223
0.0203006
0.0207099
0.0212499
0.037206
0.0209315
11.5358
0.747712
0.0209604
3.36044
0.0214025
0.021258
0.029882
2.88536
0.0580361
0.0212159
0.28641
0.0212464
0.0212693
0.262441
0.0221978
1.53626
0.0224298
0.0637709
0.0209139
0.021091
0.0305957
0.343098
0.022896
3.06146
0.0340357
0.0229801
0.0235104
0.0215087
0.0208496
0.0860643
0.0334411
0.0249272
3.09074
9.45266
0.285141
0.0909128
0.0210404
3.21673
0.0210329
2.58379
0.0599866
0.0262638
0.0227173
2.631
1.76686
2.63833
0.0222023
0.562424
0.0208282
0.0212348
0.0345996
0.0221487
0.0216734
0.426826
4.19469
0.0210901
0.0272079
3.42579
0.0211761
0.0202442
0.76886
2.75485
0.0223898
0.0206354
0.0263429
0.0216106
0.0212212
0.0322544
0.0256909
0.0215588
0.565118
0.0222687
0.0171695
0.486656
0.0331424
3.54982
0.0218429
0.0221239
0.135877
3.94633
0.273596
0.0240401
0.0318874
0.0220189
0.022462
0.0214234
2.70222
0.0250758
0.0223751
0.0505411
0.0211723
0.250794
0.0717545
0.108696
0.056308
0.425225
0.326886
2.57202
3.10103
0.0235675
0.431178
0.0202589
0.055807
0.073935
0.418814
0.0245822
0.0225025
0.0254178
0.51907
0.0231019
2.56307
0.0343767
0.0831341
2.57299
0.0212414
0.0937214
0.0234356
0.0216634
0.0272922
0.0177165
0.0202545
0.0207175
0.0227462
3.09108
0.0209218
0.0229761
0.0236618
0.022425
0.0215595
0.0868755
0.0652666
0.0223796
0.0210344
0.0835561
0.106465
0.0367402
3.34114
0.021867
0.0214526
1.87156
0.021575
0.0231985
3.13473
3.42833
0.0291247
0.0558957
0.026475
7.69386
0.10431
0.0320289
2.82055
0.0211752
0.0750494
2.52938
0.189395
0.524396
1.20125
0.0206537
0.0216086
0.0244252
0.0215826
0.021704
0.237667
0.0216031
0.0433665
0.0204912
0.05417
2.63135
0.0231534
2.30689
1.69073
0.0214524
0.0712243
0.0261131
0.0228443
0.0213485
3.29341
0.0671463
3.67977
0.0272768
2.63272
0.081488
0.0212847
0.0577904
0.0345674
0.0212555
0.0212294
0.151508
0.0213553
0.0255208
0.035991
0.0254507
0.0220499
0.0525627
2.4855
0.0211494
0.155025
0.0656701
0.0216772
0.0211616
0.0251148
2.42589
0.383422
0.0208639
0.0298058
0.0289663
0.693377
6.68104
0.0216292
0.0209464
0.0206501
0.0215147
0.0244782
0.0238986
2.76406
0.022153
0.0242743
0.0377941
0.0306482
0.0788752
2.76828
2.57323
0.0218428
0.0215456
0.0208978
0.0226887
0.0654393
3.80775
0.0799475
0.0894142
0.0299631
0.0477148
0.0235741
0.0429585
0.0252533
0.10081
0.0211091
0.116852
0.0465711
0.0207698
0.0217926
2.97155
0.0472262
0.0389627
2.52439
0.115022
0.0211287
0.385931
0.0234981
0.0212376
2.64705
0.555419
0.0211247
0.0290978
0.0986696
0.0331642
0.022284
0.0203825
0.0211746
0.0208769
0.0213427
0.0292964
0.0491874
4.48218
0.0336356
0.0255947
0.0309658
0.0787217
0.0209971
0.0333875
0.152164
0.221173
2.84453
0.0228776
0.0203663
3.53755
0.021056
0.263403
0.0228916
0.0415172
0.0219263
0.0211068
0.251505
0.0260708
0.0227826
0.0215004
2.63329
0.516877
3.31435
0.02182
0.021576
1.21913
0.0210494
0.0207552
0.113341
0.566938
0.0266285
0.032765
0.022216
3.02405
0.0212486
0.0243378
0.0220511
0.0203518
0.212716
0.0212447
0.0208583
0.682836
0.055233
2.5777
0.205697
0.0211872
0.0296927
0.0209589
0.0210871
0.0235707
0.0225497
0.0216547
0.182107
0.0216197
0.0679803
0.0269035
0.0252156
0.0216297
0.022071
0.0211985
3.33323
0.0202524
0.607124
0.0651139
0.0228611
0.0496622
0.0327124
0.0300077
0.0215458
0.0276585
0.0209402
0.0207654
0.259385
0.0364254
0.027816
0.0213758
0.0213025
0.0210322
0.0659664
0.0211747
2.87102
0.0441482
0.021156
0.021314
0.0206215
0.0439167
0.0360343
1.79942
0.0298466
0.253734
0.025237
0.0893964
0.0237992
2.79606
0.0204836
0.0202138
0.0248335
0.0924405
0.0206492
2.93822
0.0216242
0.0214843
0.116559
0.148089
8.29277
0.105775
0.0255315
0.143803
0.0373947
0.0207068
2.82335
0.0214127
0.021279
2.3347
0.02055
2.95611
0.101029
0.0210807
0.0214473
0.0207408
3.6407
0.0215057
0.0203804
0.0700055
0.0211926
0.0209283
0.0221447
0.0207196
0.0433417
0.0217356
0.0242222
0.0207059
1.929
0.056328
0.0207257
0.0207335
0.0223384
0.0212984
0.0238339
0.0218995
0.0213083
0.0217626
0.021461
0.0225299
0.0215211
0.0598715
0.0206154
0.0741428
0.0216844
0.0478477
0.0208312
0.0216328
0.0211637
0.0202929
0.0353851
0.0260504
0.0250079
2.61647
0.0218782
3.37674
2.79415
0.0740081
3.62542
0.0216377
0.021497
1.3192
2.58606
0.0211182
3.3573
0.0207094
0.110629
0.670669
0.0237048
0.0762185
1.46423
1.89686
0.0213599
0.0450176
0.0209765
0.359572
0.0241839
3.124
6.44736
0.0217429
0.0536248
0.562894
0.0219851
2.03791
0.205767
0.0231919
0.0209562
0.0987166
3.32226
0.0207036
0.031323
0.0219384
0.490203
0.119665
0.0215817
0.0208602
2.19318
0.0210427
0.0214586
0.0221441
0.0207337
1.44614
0.0284384
0.0281291
3.16281
0.0213477
0.0543729
0.0217388
0.0886218
0.0529593
0.347048
0.0208004
0.0273236
0.0208968
0.0217095
0.0237676
0.0215153
2.37833
0.0226778
0.0207748
0.0211608
0.235822
0.020939
0.423389
2.54485
0.806274
0.0215531
0.0209261
0.0212509
0.784617
0.0218286
3.29583
0.0214338
1.17064
0.0230601
0.0226991
0.211903
0.021641
0.0218231
3.38364
0.100463
2.92143
0.0218925
3.48975
1.54068
0.0215839
3.13256
0.021728
0.0253212
2.52717
0.0235022
0.0405996
3.7575
0.0296873
0.0634084
0.0216149
2.76161
0.0214386
0.400624
0.0212534
4.30959
0.0214597
0.0215788
0.0234946
0.516203
0.0209603
0.0244662
0.0608185
1.53674
0.0212693
0.0288973
3.44215
0.0966842
1.6545
0.0721444
0.0208271
0.100973
0.869319
0.0240043
1.50094
0.020174
0.130546
6.24158
0.021003
6.58869
0.0213164
3.4452
0.94729
0.0237792
0.0239094
0.416751
0.738684
0.0214794
0.0228136
0.020748
0.0216039
3.20161
0.0610973
0.17307
0.0216861
0.0271339
2.98966
0.0275539
0.792146
2.26372
0.0211493
0.0213932
0.176648
2.58911
2.40993
0.643241
0.186688
0.0373631
0.0467735
3.41248
2.53439
0.53922
0.0209562
0.074311
0.0431277
0.0671954
0.0214682
0.0258965
0.0567938
0.119335
0.773067
0.0220495
0.113185
3.14881
0.0416177
0.0214351
0.0214399
0.177444
0.0209615
3.51263
0.0277348
0.0219376
0.155728
0.0392295
0.0207114
0.0349436
0.0292086
0.0214951
3.69925
0.024617
3.71387
0.0210003
3.01447
0.402715
0.185558
0.020293
0.0262433
0.0301702
0.112957
0.104544
0.0637458
3.20486
0.225971
0.0196376
0.0255606
0.022333
0.112978
6.39438
0.0207792
0.0206868
0.0227266
0.629145
0.117349
0.0210525
0.0479523
0.15594
0.0209281
0.0333806
0.0239124
3.69476
0.0268914
0.399544
3.37106
0.0279595
0.0244307
1.41893
0.0211519
0.0444222
2.95657
0.0245766
0.0774715
0.0309061
0.0548155
2.58058
3.44737
0.0215928
0.998564
0.174083
0.0205586
0.119306
0.0627638
0.1026
2.24592
0.738633
0.703389
0.0982288
2.75037
0.0266393
0.0624359
0.0205557
0.0217785
0.0215494
0.0209251
0.2359
0.116951
0.0202578
0.045523
0.15637
0.0211382
0.570054
3.11485
0.0200483
0.0217856
0.0206752
0.0225808
0.0428211
0.021435
2.61753
0.0290579
0.0660548
0.0257569
0.0652086
0.0455167
0.0326246
0.125932
0.0214941
0.0226861
0.0202198
0.0209396
3.48179
0.0883918
0.0285075
2.62679
0.0217491
0.0221068
0.0315769
0.0207399
0.0211002
0.0696531
0.0251793
3.2321
2.56887
2.59491
0.0216449
2.79734
0.0212721
0.489776
0.0206902
0.126694
2.61981
0.0215226
0.400918
3.48856
0.0318932
0.0224661
0.020962
0.0274689
2.60924
0.0207081
0.0218281
0.0225097
0.0237239
0.180361
0.0228601
0.0254584
0.0211185
0.022465
1.48433
0.0332718
0.0239022
0.113404
0.155638
3.19921
1.02012
0.023224
0.0225091
3.01041
0.021487
0.0619735
0.0216749
3.25
0.0221713
0.0219776
0.0317133
2.76948
0.0213959
0.0207963
0.0204668
0.133541
11.1079
0.107439
0.0214852
0.0238018
0.0209297
3.22086
0.0211463
2.33727
0.0540488
0.0217525
0.146003
0.0333148
0.0777753
0.0220987
0.0207458
0.0296369
0.0401986
0.114758
0.0217622
0.021991
0.0220497
2.86833
0.0216501
0.022425
3.40712
0.0230695
0.0263205
0.0244741
0.0211165
0.021277
0.246357
0.0233893
1.51107
0.252837
0.0199993
1.15652
0.0219244
0.0962375
0.0468629
0.0226695
0.0203307
0.0199729
0.0214232
1.08248
0.0455068
3.38599
2.69654
0.0209576
0.0252032
0.0373929
1.54068
0.021426
0.243383
3.44673
3.15128
0.0212958
0.0229663
0.0220509
0.604609
3.4533
0.0217527
0.0215527
0.0299175
2.74306
0.0217032
0.0230425
0.0229994
0.108234
0.82623
0.0205054
2.67804
0.0284607
0.0214234
2.53473
0.0537558
1.44551
1.10563
0.0314502
0.0255809
0.0224839
0.0265136
0.0221491
0.0639285
0.0450523
0.021316
0.0243012
0.192132
2.60486
0.0206923
0.0998287
2.7839
1.66641
0.0214626
0.021579
0.241563
2.85413
0.0784535
0.0211746
2.63082
0.0626061
0.0200589
4.48311
0.0270236
0.0217608
0.152199
0.0214582
0.0344794
0.0208929
0.0198797
0.021604
0.0204607
3.11629
0.0202528
0.0211779
0.0722486
0.0248779
0.0243769
0.121938
0.0215503
0.0214876
0.022917
0.0224539
0.249169
0.255285
0.738782
1.00531
0.0334681
0.368788
0.0418333
2.84598
2.68951
3.03853
0.0209065
0.0296791
0.0214465
0.0215829
0.0210009
0.0223507
0.176922
0.0560911
0.0371394
0.0211146
0.021399
0.0530212
0.0218113
0.0219395
0.0215577
3.22179
0.0304216
7.78084
0.0216322
0.262397
0.0220439
0.0218982
0.0222277
0.0411471
0.021072
0.0794908
2.92357
0.0397309
3.61229
0.249339
0.0230193
0.0271259
0.338039
0.102876
0.020398
0.020954
0.0199919
2.74237
0.0198604
0.0756569
0.0415167
0.0726388
0.510872
0.841947
0.0611814
3.73663
0.0207171
0.0204595
0.254401
3.11077
0.0214462
0.0216184
1.17874
0.0209693
0.163211
0.0228922
0.0210784
0.0252541
0.0215422
0.0672808
2.86438
3.12497
0.024607
0.0215614
0.0729158
0.0225998
0.0733402
0.0209106
0.124857
0.0843727
0.0219389
0.0217119
0.0200459
0.114014
0.0436652
0.18425
1.69204
0.029155
3.04311
0.0692246
0.102388
3.34816
0.0212906
2.68696
0.0223858
3.25282
0.220027
2.65119
3.2118
0.0220598
0.0516885
0.20719
0.0214868
3.87143
0.0215183
0.0215311
0.0257288
0.0221346
0.030077
0.208922
1.73026
2.51435
0.025598
0.0387094
0.022598
0.0218942
0.0217013
0.117905
0.0804013
2.60386
0.0431649
0.0203024
0.0207596
0.0221406
0.227222
0.0240587
0.0225104
0.0249026
0.0800284
0.0308607
0.0408889
0.0361348
2.7265
0.0288117
0.0319583
0.0214322
0.0257995
0.373254
0.0208768
0.0444988
0.0207347
2.56594
0.0319884
0.0211473
0.0465825
2.90444
0.374091
0.0324496
0.0209815
2.54295
0.0219914
0.0209362
0.0203451
2.38711
1.73334
0.0230073
2.21649
3.00083
0.0246232
0.0362478
0.0571286
3.67251
0.0300065
3.42192
0.0220351
0.0428225
0.0256881
3.61
0.0325266
0.020857
3.01602
0.0216978
0.0223835
1.60471
3.22693
0.0647048
0.589785
0.0243197
0.0226807
2.56037
0.0211523
0.0211924
0.0216
0.0435881
0.0214108
0.0307596
0.024622
0.151421
2.14785
0.0222167
3.84043
0.0244884
2.96894
3.47379
0.0215751
0.0217717
0.0252879
0.242514
0.176263
0.063071
2.90445
2.60282
0.150598
0.0226723
2.99383
3.28004
0.0411764
1.57016
0.0216397
0.021368
0.0216146
0.0225092
0.021305
0.0323151
3.16871
0.0304315
0.233763
3.7368
2.88466
2.5954
3.24737
0.0279226
3.56375
0.0992076
0.0696891
0.0206689
0.0215373
0.0641878
4.05352
0.0226314
2.74455
3.11105
0.0209479
0.0216261
0.0217434
0.0818612
0.0220927
0.0684359
2.72355
0.0206669
0.0214096
0.0209244
0.0222935
0.0915684
2.96066
0.0352852
3.15261
0.101312
0.0211717
0.273881
0.117313
0.021725
0.684432
1.76295
2.59717
1.97721
3.46762
0.0214107
2.72544
2.99177
0.14448
3.09001
0.0209821
0.0232165
0.0238013
0.0233427
3.28788
0.0625701
0.0217443
0.0268783
0.311436
3.06885
0.0225545
0.0220654
3.44747
3.2293
0.0217544
0.0275616
0.0977445
0.0213316
0.0214207
2.60039
0.0211279
0.235869
0.271528
3.38152
0.0210547
0.0684474
0.13151
0.0211159
0.0201042
2.41431
2.41331
0.0219737
0.0327021
0.155976
0.206391
3.44711
1.92145
0.0254782
0.270636
0.298015
0.0337225
0.0211177
0.0782758
0.0204157
0.0202129
3.28823
0.0365949
0.0876335
0.0242846
0.0255008
0.0209644
0.0204646
0.0221713
0.0223812
2.47903
0.0240451
1.22736
6.1667
0.0423096
0.0671817
2.6076
3.52947
2.52143
0.0208494
0.0246776
0.0342639
0.0252596
0.160876
0.311404
0.0221444
1.12313
3.25353
0.0262786
0.0854465
0.0709283
0.0932175
0.101687
0.0227455
0.112846
0.123863
0.136736
0.152274
0.105286
0.0774242
0.0265584
0.0210975
0.032063
0.0847278
0.0210907
0.341184
3.61833
0.155496
2.97537
0.0200781
0.0207248
0.0421183
2.9242
0.0222999
0.0237813
0.0607756
2.863
1.1407
0.0215151
0.0304476
0.0250144
2.66082
0.306584
0.0240508
0.429389
3.04236
0.0941928
3.33195
0.08859
0.206872
3.55319
0.0195824
3.68967
3.10892
0.0225252
0.0661164
0.0917618
0.0252997
0.0208951
0.321011
1.05549
0.0208726
0.0209179
2.58656
1.05585
0.0744177
0.0217709
0.194009
0.11907
3.08033
3.72512
0.0216028
0.0213832
0.0222501
0.022917
3.38307
1.19988
2.99247
0.0791366
0.190214
0.492843
0.0229236
0.0210569
3.10001
0.0209374
3.50316
0.0209929
3.32221
0.0225416
0.0224101
0.730791
0.0216053
0.103842
0.451252
0.0244017
0.023497
0.0226724
0.170874
3.31419
0.14202
2.99812
0.0239424
0.0227134
0.0273703
0.0717374
3.80936
2.58544
0.0908639
0.205303
0.114851
2.75265
0.0210996
0.0209071
0.0206831
0.0206702
0.156197
0.0655501
0.404381
0.0396439
0.136559
0.0211328
0.257109
0.104737
2.77855
0.0214736
0.0228288
0.0198952
2.97383
0.0242257
0.567397
0.148853
0.11204
0.193339
0.0200184
0.0361009
0.138723
0.167752
0.901233
0.0216552
0.1233
0.0220507
0.021952
0.0937976
0.989955
1.72804
0.0218414
0.0808437
0.133548
2.65881
5.27225
3.40521
3.43162
0.0210364
0.0580412
0.021624
0.128094
0.0211849
0.103421
0.0232081
0.0473872
0.240239
0.442337
0.0235198
0.0910142
3.08464
0.109857
0.0234826
1.63354
0.100628
0.022307
0.0222828
3.33417
0.0282899
0.116513
0.443614
0.307821
4.11336
0.0231143
3.01546
2.90502
1.10692
0.296802
0.0308168
0.101056
0.0915611
3.36363
0.0655332
0.0221758
1.66568
0.0469925
0.347464
0.0272864
2.53247
0.668785
2.27575
0.0259362
1.12741
0.0240843
3.09615
0.140341
2.21931
7.40421
0.0209448
0.019878
3.09838
3.65035
0.0335601
0.02209
0.0406565
0.029472
3.04201
0.0715417
3.13372
0.0257576
3.19123
0.112372
1.07915
0.0221306
0.136969
2.51304
0.0237381
0.079929
0.0200655
0.0242026
0.0216501
0.258601
0.0212033
0.0216424
3.52926
2.93149
0.0206517
3.72827
0.0223466
0.0215356
0.0213126
0.020929
0.0217879
0.795292
3.42009
0.0206419
0.927425
0.0646757
0.0464509
1.58473
0.0812089
0.0253238
0.0314
0.021299
0.250734
0.0298537
3.7726
0.0246303
3.19546
1.09424
0.0673027
2.10145
3.26092
0.0207868
3.69708
0.0537531
0.0629345
0.0381297
0.0211898
0.0402166
0.181783
0.0216055
0.0649604
0.0214212
3.39714
0.134417
2.5611
0.166225
0.158202
3.50172
0.0216031
0.0211826
0.0602468
0.0229196
0.0217707
0.0217997
0.0268986
0.0211035
0.0212043
0.0226586
0.0413015
0.0231946
0.026996
0.0229067
0.0349671
0.0956022
0.0235167
3.49354
0.0232814
0.0212638
0.0882253
0.0411867
0.0230453
0.0210909
0.657172
0.0233857
3.1748
0.0235692
0.105136
0.0213117
0.0214349
0.0888001
3.59812
0.0677207
0.034321
0.020161
3.09156
0.0216745
0.021168
0.0736313
0.023892
0.13107
3.06319
0.0930657
0.102419
0.0403716
4.16276
0.0215161
0.0216552
0.0610366
0.277067
0.0575321
0.0938651
2.51829
0.0272443
0.0215998
0.0275768
0.193769
0.0553656
0.0216252
0.0961777
0.0922189
0.0620658
0.0217798
0.021659
0.164253
0.0610339
2.34369
0.401502
0.0236251
0.0678149
0.021754
0.0432453
2.13636
0.0217329
0.149735
0.071716
0.0791348
1.05521
0.0215676
0.0213937
0.0212525
3.53562
0.203104
0.0234269
0.0891185
0.104967
0.0217291
0.0214451
0.126195
3.66277
0.164844
3.11834
0.145719
0.0301762
0.611354
0.115122
0.0299697
0.080625
0.0839661
0.109386
0.0215467
0.0929703
0.126997
0.0223939
0.642612
0.0385263
0.0742848
0.0268454
0.140329
0.0211109
4.01389
0.0244383
0.0208071
0.0209658
0.0207564
0.022666
0.022457
0.0208994
0.0240481
0.0216474
0.0223332
0.242166
0.0753652
0.0222167
0.0615208
0.0245256
0.021722
0.0204269
0.0453468
0.026422
2.60915
0.0215859
0.0216046
0.066375
0.139489
0.0216282
0.0215735
0.105921
0.0234933
0.0882003
0.0585634
0.0215793
4.33169
0.0237109
0.0223392
0.0711074
3.77588
0.0223639
0.0563771
0.0208695
0.0256098
0.0213617
0.0269437
0.0211973
0.0216202
0.0410523
0.0589609
8.51834
0.0498276
0.0215248
0.0282243
3.21827
0.0482857
0.171395
0.0952009
0.0216573
0.0526545
0.678905
0.180965
1.26418
0.0257224
3.34599
0.306713
0.0291858
0.0217356
0.0726114
0.0222873
0.0547897
3.06752
0.0215928
0.224339
0.0218313
2.86806
0.0479316
0.0224102
0.0596478
2.95789
0.257505
0.0237921
0.0704578
0.0301305
0.0206353
2.55996
0.020517
0.0334772
0.0211039
0.0248767
2.56777
0.0694551
0.0206779
0.0286935
0.149338
0.0215765
0.0219426
0.0280693
0.0251778
0.0214759
0.023703
0.0243529
0.0220687
0.0211067
0.0597746
0.0995519
0.171846
0.0210338
0.0564579
3.0059
4.36692
0.0208199
0.021627
0.024991
0.0862914
0.0222159
0.0210826
0.0212337
0.020895
0.0257629
0.0273194
0.0246326
0.0632307
0.023301
0.02044
0.0232921
0.0617379
0.0464462
0.1032
0.0222069
0.0283318
3.21628
0.0291931
0.0245705
4.18565
3.18066
0.0949607
0.0655446
0.154479
0.0213848
0.248601
0.0268235
4.8616
0.0214194
0.0212322
1.92909
0.0208162
0.261613
2.71755
0.0220243
11.9398
0.0304791
0.0317133
0.0266968
0.071086
0.0286689
0.0260971
0.473604
0.020886
0.0241579
3.5651
0.0230247
0.0214895
0.0300063
3.16517
0.0222422
0.0222449
3.18526
0.0234455
0.0266551
0.0566922
0.020351
7.79501
0.0240295
0.0223903
0.100449
0.0556153
3.06071
0.0234154
2.00454
0.0333184
0.0857855
2.63213
0.0215824
0.0323314
0.0879961
0.0222063
1.88944
0.0222732
0.0232029
2.93778
0.0222744
0.0407549
0.084756
0.737481
0.029891
0.0263732
0.0223557
0.0238072
0.0868306
0.0244123
0.0305143
0.0748168
0.0525353
0.0216832
3.38283
0.0377861
0.0204509
0.022859
0.0212413
0.0207831
0.0203565
0.0216034
0.0215463
0.0296508
0.0238037
0.0406763
0.0202146
0.0204457
0.0224095
0.075832
0.0207439
0.0298207
0.0629121
0.0285526
0.0297499
0.021446
0.0232135
0.0241912
0.03742
0.0281737
0.0241935
2.63481
0.0217603
2.26284
0.0247375
0.0855331
0.0831832
0.0215668
0.057207
0.0310771
3.13183
3.00323
0.0252835
0.0217737
0.0234888
0.029527
0.0473284
0.0215584
0.0311801
0.0522757
0.0222653
0.0559085
0.047666
0.062411
0.0281626
0.149045
0.0933108
0.0268302
0.346028
0.0230555
0.122077
0.0224912
0.0212791
0.0790211
0.0812449
0.0214034
0.0490887
0.0214483
0.0216774
0.0214837
0.0220619
0.021514
0.0214157
0.0214101
0.0222407
0.154964
0.022655
0.0213586
0.0225241
0.0225833
0.187859
2.94131
0.0607884
0.0240986
3.28735
0.0214556
0.0213723
0.35892
0.0319052
0.0222615
0.0222811
0.0216956
0.154791
0.0218079
0.0254495
0.0223462
0.0336012
3.77948
0.0214601
0.0564895
0.0636335
0.0250437
0.0428769
0.0207014
0.0217183
0.0580321
1.57967
0.0232323
0.0356754
2.50144
0.0883805
0.0208223
2.74763
0.0226948
0.0196373
0.0578258
3.51885
0.0214841
0.0207301
0.0231333
0.0302463
0.0335081
0.0214324
0.0224489
0.0388144
0.0217121
0.028568
0.0256524
1.36814
0.0204186
2.88471
0.562227
0.0367537
0.0213543
0.089235
0.0210511
0.0234079
0.021615
0.0544258
0.0201861
0.0201672
0.0402081
0.0604514
1.34556
0.0219413
0.0200832
0.0232606
0.0208251
2.88697
0.0233556
0.0228146
0.0221597
0.0600688
0.0470806
0.0234937
0.0230788
0.0442839
0.0217025
0.0216499
0.0233926
0.0221667
0.102475
0.021183
0.0297867
0.0220112
0.0215368
0.0485929
0.0867055
2.81609
0.0214849
0.0578564
0.391557
2.95841
3.29694
0.0309543
0.0215509
0.0244817
0.0296684
2.43195
0.0218982
0.0250526
0.0268936
0.0306265
0.0202409
0.0533464
0.0460403
1.03342
0.0221272
0.0217079
0.0871064
1.01042
0.0201175
0.024497
0.0331837
0.0199756
0.0225188
0.0450835
0.0209826
0.0214797
0.0217415
0.0243917
0.0788989
0.035792
0.0225325
0.0206597
0.0222152
0.140013
0.0199296
0.0208537
0.0257995
0.0854546
0.0254786
3.87832
0.024418
0.0214836
0.0215455
0.023083
0.0212108
0.0327889
0.0596437
0.0209184
0.0210124
0.02205
0.0213105
0.0221395
0.0444546
2.61172
0.0227848
0.0959011
0.0232942
0.0213265
0.192799
0.0235062
3.56849
0.0218256
0.0217947
0.0207389
0.0215032
0.0225866
0.0303558
0.0387311
0.132789
0.0276896
0.0525957
0.02181
0.0324176
0.0214433
0.0233971
0.0331103
2.58107
3.07862
0.0218922
3.26586
0.115907
0.0418564
0.433693
0.0198317
0.0214181
0.0217115
0.0229358
2.69767
0.0207818
0.0693809
0.373283
0.0224383
0.0799991
0.0199655
0.0310804
0.304045
1.80343
0.0218538
0.160478
0.111841
0.483461
0.0261211
3.27546
0.0226155
0.106429
0.0985192
0.0205134
0.0393963
0.0313785
0.0236173
0.403475
0.0304672
0.0209477
0.0220074
0.0562172
0.0217794
0.0549718
0.0215841
0.0198992
0.023059
0.032389
0.0215591
0.0787558
0.0264628
0.0236274
0.0198728
0.0215305
0.501279
0.0779998
0.140806
0.0334487
0.0249485
0.0277205
0.0254479
0.0214543
0.0227362
0.0336003
0.0231803
0.0241394
0.0203915
0.0258317
2.86026
0.0220137
2.49162
0.130302
0.0216765
0.0216982
0.0202605
0.0285682
0.0367819
0.0200922
0.0254463
0.0229436
0.0220105
0.0211419
0.0220925
0.0212828
0.0216424
0.220784
0.0219484
0.0260047
0.0214631
0.159801
0.0697169
0.0214828
0.208599
0.0216615
0.0239302
0.0302317
0.324414
0.0288572
0.0210102
0.0213654
0.0324793
0.0413783
0.14145
0.0227789
0.0494459
0.110219
0.0219849
0.0215176
0.113548
0.0519167
0.0309701
0.0216999
0.0219359
0.0227413
0.0233566
0.0209055
2.48358
0.0240143
0.0239471