/*--------------------------------*- C++ -*----------------------------------*\
| =========                 |                                                 |
| \\      /  F ield         | OpenFOAM: The Open Source CFD Toolbox           |
|  \\    /   O peration     | Version:  v2012                                 |
|   \\  /    A nd           | Website:  www.openfoam.com                      |
|    \\/     M anipulation  |                                                 |
\*---------------------------------------------------------------------------*/
FoamFile
{
    version     2.0;
    format      ascii;
    class       volScalarField;
    location    "950";
    object      p;
}
// * * * * * * * * * * * * * * * * * * * * * * * * * * * * * * * * * * * * * //

dimensions      [0 2 -2 0 0 0 0];


internalField   nonuniform List<scalar> 
13917
(
-0.086284
0.00648993
-0.0728334
-0.0259433
0.00401753
0.00577033
-0.037575
0.0172605
-0.0499194
-0.0953718
0.0154161
-0.017649
-0.0152504
0.0239064
0.00121442
-0.0854297
0.000391299
0.0122294
-0.0586443
-0.0905288
-0.00611175
-0.00241729
-0.0452855
-0.00224937
-0.0215673
-0.00357314
-0.0162031
-0.0955425
0.00404772
0.000120387
-0.0943479
-0.0624953
-0.0213126
-0.0846725
0.000818864
0.0195528
-0.00890742
-0.00389888
-0.038621
-0.0128135
0.000641321
0.00106835
-0.0452563
-0.0638002
-0.0627318
-0.00232299
-0.00684548
-0.137528
0.0157002
0.000777102
-0.017378
-0.0233828
-0.0759607
-0.0100413
-0.0110202
-0.0258902
-0.0921826
-0.0440915
0.00104848
0.000968936
-0.0121788
0.00155676
0.000133958
-0.0215989
-0.0834077
4.03426e-05
0.00652984
0.0204545
0.0137601
-0.0792681
-0.0806605
-0.0834823
-0.0254019
0.00102228
-0.0064816
-0.0171181
0.00167633
0.00100626
-0.0172798
-0.021481
-0.00517812
0.000267235
-0.025151
-0.0798613
-0.0104759
0.0103303
-0.0619009
-0.0101799
-0.0123641
0.000358014
0.000522494
-0.0463023
0.0145363
0.000607061
-0.00873472
0.00528044
-0.0195261
-0.000531932
-0.010384
-0.0100381
0.000375142
0.000350287
-0.00525589
-0.000902136
0.00166336
-0.0743249
-0.104726
0.00171872
0.00110426
-0.0170492
-0.0163613
-0.0854101
0.00286195
-0.145332
-0.0852612
-0.0151255
-0.0580657
0.00061341
-0.0698451
-0.024587
0.00026273
0.000928314
0.00763796
-0.043314
-0.0750628
-0.0792949
-0.0223084
-0.00588717
-0.000580695
-0.0452201
-0.0540185
0.00502173
-0.0768754
-0.0145389
-0.0634655
-0.0196352
0.00318513
-0.0719502
-0.00192648
-0.00377993
0.00801182
0.000967233
-0.0759586
-0.00488005
-0.0236134
0.0010692
-0.0807614
-0.0107146
-0.139536
-0.0101911
-0.012683
0.00035909
-0.0233729
-0.0248614
-0.0216479
0.000267857
-0.000871098
-0.0776561
0.000561405
0.000597336
-0.00842017
-0.0866751
-0.00394275
0.00550274
-0.0699117
-0.0120833
-0.0763611
-0.0775578
4.14873e-05
-0.00112268
-0.00175671
-0.0802643
-0.0502723
-0.00147294
-0.0206171
0.000523818
-0.0266199
-0.0198237
-0.0537397
-0.00332561
-0.0436149
-0.00196743
-0.0168631
-0.0356564
-0.0697585
0.00567456
-0.0165745
-0.0327231
0.000145691
0.00959065
-0.0192123
-0.0620257
-0.0394507
-0.0883586
0.000570108
-0.0757588
-0.0232913
-0.0770975
0.00076218
-4.34943e-05
-0.00816463
-0.0804809
-0.0718686
-0.00719913
-0.00672565
0.00200373
-0.0130657
0.000966008
-0.0223164
-0.00471426
-0.00120522
0.00593633
0.00638193
-0.139046
-0.0634928
-0.00292817
-0.0951514
-0.00610982
0.000682925
0.000690725
-0.0895725
-0.0373504
-0.0293512
-0.0160273
8.82544e-05
-0.0196317
-0.0764271
0.000658957
0.000645388
0.000536761
0.000712261
0.000720068
-0.0838951
-0.120958
-0.00386367
6.73044e-05
-0.0307002
-0.0810763
0.000572033
-0.0158562
-0.0119718
-0.0762348
-0.038236
-0.0954742
-0.0140135
-0.00506708
-0.0745344
-0.0316976
0.00205979
-0.0529769
-0.00767888
-0.126142
-0.0248014
-0.0201265
-0.0226041
-0.00324868
0.000687597
-0.0222862
0.00340201
0.000982647
-0.0760692
0.0145299
0.000933801
0.000617343
0.000445029
0.000609345
-0.0250352
-0.0153792
-0.0332827
0.000977062
-0.071806
-0.104611
-0.0144097
0.0026006
0.00907119
0.000735062
-0.00821787
-0.0765336
0.000735067
-0.0798728
0.000938577
-0.0799325
0.000481874
0.000162096
-0.00301503
-0.00406785
-0.0556793
-0.00275323
-0.0137849
-0.019849
0.00763888
0.00105039
-0.0054955
-0.0711486
0.000580167
-0.0385762
0.00365352
-0.0135307
0.00378363
-0.0181036
0.000728607
-0.00270583
-0.0153463
0.00231825
-0.0202462
-0.0182767
-0.0155221
-0.0758399
-0.0801798
-0.00043578
0.000474791
-0.0141776
0.0117045
-0.0719586
-0.100259
-0.00396211
-1.0714e-05
0.00203266
0.00227793
-0.0804502
0.0117546
-0.0729612
-0.0149789
0.00093809
-0.0168463
-0.000811684
0.00790268
-0.0608513
0.000499538
-0.081594
-0.0103014
-0.0666324
0.000825184
-0.0866493
-0.00256008
-0.0215554
0.00186764
0.000534045
0.000536164
-0.055201
-0.0778961
-0.00957702
-0.000604943
-0.0852167
-0.0794281
-0.0312338
0.029332
0.000711775
-0.00491403
-0.0758893
0.00174995
0.000709817
0.00420844
-0.0135923
-0.0041421
-0.0213509
-0.0390352
-0.00855642
-0.00816276
-0.0626902
-0.0876611
-0.000539188
-0.0100474
0.00469063
-0.0636616
0.000513525
-0.0872531
-0.0630116
-0.00677181
-0.0108088
-0.00263133
0.000836082
0.00497302
0.00105921
-0.0322186
0.0052263
0.00332072
-0.0143697
-0.0756833
0.000844072
-0.0631682
-0.0399125
0.00103138
0.00902069
-0.00184784
-0.000550998
0.000202751
-0.0938827
-0.000816105
-0.0113642
-0.0165622
-0.00739636
-0.00793496
-0.058529
-0.0778368
-0.0126897
-0.0552958
-0.00602717
-0.00739634
-0.072027
-0.0104634
-0.0429461
-0.0190082
-0.00457574
-0.00486305
-0.000588847
-0.00153607
-0.0113246
-0.0103992
-0.00028121
-0.00275624
-0.0324398
0.0212146
0.000768355
4.39427e-05
-0.0713779
-0.00336737
-0.00404076
-0.0116091
-0.000916036
-0.0242207
0.000427307
-0.0599397
-0.078888
0.000909241
0.000743811
-0.0054976
-0.00489887
0.000769232
-0.00361931
0.00074698
0.000888441
-0.0934731
-0.00612456
-0.0137392
-0.0720677
-0.0372241
-0.00120109
-0.0227897
-0.0631382
-0.00734122
-0.0740928
0.000802263
-0.0155932
0.000889889
0.000749896
-0.00885702
-0.00123809
0.00770056
0.00124348
-0.0758956
-0.0153239
-0.0490101
0.00113746
-0.00473445
-0.0160739
-0.0263704
-0.0138023
-0.0231748
-0.00129439
-0.00453208
-0.00279676
-0.002087
-0.00120564
-0.00841017
-0.0761112
-0.0114165
-0.00121148
-0.00504949
-0.0702729
-0.0156136
-0.0366042
-0.0746332
-0.0752324
-0.0454454
-0.0822225
-0.00240756
-0.000519098
-0.00143974
0.000184036
0.000704526
-0.00750066
-0.0403361
0.000469889
-0.0103327
-0.00923682
-0.0458801
-0.00901484
-0.0676969
-0.0510095
0.00128528
0.00294054
0.0107102
-0.0125042
-0.0100925
0.0214936
-0.0379842
-0.0206872
-0.047426
-0.0105939
-0.0120576
-0.0181834
-0.00351991
-0.0753381
-0.00476352
0.000750728
-0.0331949
0.000794498
-0.00570604
-0.0138623
-0.0744322
-0.0187784
-0.00857146
-0.0312284
0.0014812
-0.0267236
0.025332
-0.00996566
-0.0107272
-0.00850344
-0.0248915
-0.00292328
-0.00016595
0.000506528
-0.000179503
-0.00482622
0.00266856
-0.0281131
0.000499953
-0.0501009
-0.00354168
-0.00309052
-0.0192533
-0.0947734
0.000234592
-0.036646
0.0009712
-0.0485567
-0.0389891
0.000257068
-0.022295
-0.0103438
-0.0175193
0.00902888
-0.0769969
-0.0984947
-0.0726497
-0.000301468
-0.00256053
0.00113231
-0.0157033
-0.0849219
0.00075476
-0.00481229
-0.0240777
-0.0807072
-0.0096232
-0.0445632
-0.103
-0.00108602
-0.0704019
-0.000522674
0.00138441
-0.0797574
0.000780384
-0.0745241
0.000189177
-0.0155927
-0.00251839
-0.0672847
0.00270457
0.000540296
-0.0654856
-0.0357545
-0.0189109
-0.0800426
-0.0778343
-0.0716495
0.000208931
-0.0770596
0.000255404
-0.00167389
-0.0111083
0.00148756
0.000639888
0.000445631
-0.0376309
-0.0432287
0.000776773
-0.000519485
-0.0131946
-0.0804372
-0.00933259
-0.0622148
-0.0100949
0.00053685
0.000606536
-0.00752574
-0.064721
-0.10166
-0.0522683
-0.0289212
-0.0625554
-0.0805263
0.000266601
-0.0378304
-0.014258
-0.0761209
-0.015361
-0.0759077
-0.00475397
0.00219689
-0.0241188
-0.0220347
-0.0351278
-0.0886298
0.000416337
-0.0335326
0.00055693
0.000427548
-0.0886024
-0.0120234
0.000841171
-0.0390211
-0.0156929
0.00134515
0.000349108
-0.0888441
-0.00958861
0.00385477
0.000749823
0.000741612
-0.0621173
0.000271993
-0.044472
0.00010393
-0.00287944
-0.00974707
-0.0627547
-0.0098746
-0.070485
-0.0742366
0.0160373
-0.0153345
-0.00108532
0.00170021
-0.0945306
-0.0763011
-0.00622629
-0.00948165
0.00220255
0.000120457
-0.00114817
0.000171776
-0.0375007
-0.0203157
-0.0483388
-0.0358753
0.0222428
0.0255388
0.00189192
-0.0246703
-0.0417702
-0.0805821
0.000709885
0.00249037
0.000289257
-0.00303257
0.000258015
0.000530721
0.00143893
-0.00678967
-0.0781382
-0.0608178
-0.00133396
-0.0602279
0.000416601
-0.0993479
0.000960038
-0.000452529
-0.0749914
-0.0404273
-0.00812169
-0.0250991
0.000784243
-6.86701e-05
-0.0290194
-0.0387758
-0.00336861
-0.0726602
-0.019472
-0.00326064
-0.00727791
0.00242986
-0.0746363
-0.0308229
-0.000874753
0.00066663
-0.0769399
-0.0144665
-0.0230661
-0.0736965
-0.00432046
-0.00259751
-0.000388996
-0.00806258
-0.07667
-0.0026037
-0.0340986
-0.0284148
-0.036179
-0.0768534
0.00197983
-0.0411305
-0.0600275
-0.00864451
-0.0210906
-0.00101239
-0.0380636
0.00312553
-0.0778145
-0.0123239
0.00189142
-0.0731879
0.000170824
-0.0038485
-0.00999299
0.00376907
-0.027248
-0.0761786
0.000252661
-0.0709153
-0.0643332
-0.00181853
-0.0164452
-0.0130225
-0.00682573
-0.014705
-0.0241645
0.00302846
0.00111385
-0.00780834
-0.0431472
-0.000964953
-0.0774254
-0.0489537
-0.0455069
-0.0414923
-0.00461557
-0.0693943
-0.0190124
0.000427999
-0.0415861
-0.0151765
-0.0586441
-0.00150867
-0.00134129
-0.00105887
-0.0796129
-0.0206358
0.00105938
-0.0651234
-0.003371
-0.00102611
-0.0276101
-0.0149314
0.00407253
-0.0240718
-0.00440422
-0.0754865
-0.0246487
0.00207269
-0.06786
0.00152117
0.00185498
0.000461629
0.000190699
-0.0237557
-0.0110918
-0.000290279
-0.00144799
0.00080203
-5.85953e-05
-0.0139891
-0.0105474
-0.0461233
0.000811912
-0.0523142
0.000409281
-0.0645995
0.00375142
0.00049768
-0.0975171
-0.0203785
-0.0761407
-0.0432452
0.00387424
0.00148153
-0.000183038
-0.0164036
-0.0845408
-0.0363946
0.0189796
-0.0209965
-0.0146199
-0.05823
4.78275e-05
0.00161345
-0.00321222
5.80391e-05
-0.0812638
-0.0382552
0.00303229
-0.0565539
0.007505
0.000530988
4.07522e-05
-0.00675906
-0.000965822
-0.00935106
-0.0136986
-0.00234689
-0.0644277
0.000528379
0.00400364
-0.00810345
-0.0835848
-0.0756032
0.0118752
-0.0753334
-0.0235191
-0.0837283
0.0107974
-0.00193409
0.00131466
-0.0190907
-0.0170665
-0.00835089
-0.0372649
-0.00832088
0.0221492
-0.00951932
-0.0776294
-0.0207232
-0.0589528
-0.00830021
1.58391e-05
-0.0124385
-0.0198722
0.0013765
-0.0316233
0.000851664
-0.0750724
-0.0373343
0.00157938
-0.000323216
-0.0194431
-0.00113143
6.42698e-05
-0.0536049
-0.0021097
-0.011281
-0.00494693
-0.00383279
0.000414142
-0.0059814
-0.0713672
0.00212388
-0.00213865
-0.00841248
-0.0408813
-0.00536881
-0.0544378
-0.000657414
-0.0100069
0.000835115
-0.000107791
-0.0873458
1.58799e-05
-0.0261337
-0.0590128
-0.0861092
0.000824836
0.00911354
-0.0706921
0.00107351
9.82789e-05
-0.00230042
-0.0788602
-0.0188499
-0.0661303
-0.0187377
-0.0741086
0.000438909
0.0342794
-0.000387949
0.000689364
-0.0055131
-0.00843641
0.000213695
-0.0770319
-0.010422
-0.00406805
0.0102521
0.00103547
0.00136321
-0.0388615
-0.012295
-0.0857617
-0.0142012
-0.0730245
-0.013966
-0.0352042
-0.075802
-0.00780949
-0.0402348
-0.0167689
-0.0734334
-0.00153177
-0.0265855
0.000845237
0.00126538
-0.0103017
0.000847111
0.000862952
0.000939347
-0.0166859
-0.02644
0.000429635
-0.0107921
-0.0597666
-0.0839393
-0.0717596
-0.0583216
-0.00133244
-0.00461843
-0.00832056
-0.0685116
-0.00290185
-0.0704903
0.000755066
-0.00195873
-0.0128824
-0.00692382
0.000751647
0.000876055
-0.0110936
-0.0244251
-0.00424288
-0.0997224
0.0118823
-0.00315138
-0.0841993
-0.0170442
-0.000687019
0.00174239
-0.089787
-0.0112088
0.000524802
-0.00865724
0.000533186
-0.000351468
-0.0768885
0.00138751
-0.0248185
-0.0267215
0.00430578
-0.00133843
0.000948724
-0.00879883
0.0086946
-0.0178601
-0.0809409
0.00335019
-0.00392968
0.000466836
-0.0197045
-0.00133979
-0.0683811
-0.0623368
-0.0198098
-0.0772426
-0.102796
0.00640855
-0.068925
0.00091691
-0.0745894
0.000930182
0.00980179
-0.0243422
-0.043875
-0.0171298
0.0340615
-0.0122899
-0.0766972
0.000679448
-0.0191763
0.000850802
-0.00862499
-0.0630373
-0.00799287
-0.0183061
0.00516878
-0.080665
0.00096102
-0.0550133
-0.0799093
0.00015041
0.000727842
-0.00605794
-0.0987588
-0.017314
0.000216702
-0.0373724
-0.0219342
-0.000279296
0.00313645
-0.00323364
-0.0189546
-0.00906076
0.000794711
0.00257585
-0.00253144
0.00282952
-0.074317
-0.0256835
-0.0201701
0.000924965
-0.0886069
-0.000890068
0.000366236
-0.00574177
-0.0308741
-0.0268068
0.000795639
-0.0610973
0.00194597
-7.85275e-05
-0.0528376
-0.00467304
0.000545775
-0.0497207
-0.0698753
-0.0717747
-0.0239548
-0.00195218
0.00564502
-0.0814181
-0.0038063
-0.0283299
0.000740156
-0.0238535
-0.0289036
-0.00632047
-0.0307348
0.00137899
-0.0251357
0.0235356
-0.00854821
-0.060471
-0.0305474
-0.0153042
-0.0134676
0.000175238
-0.0747163
-0.012402
-0.00703537
0.003034
0.00206243
0.000729753
-0.000752721
-0.0175894
-0.0771963
-0.00372869
-0.00977345
-0.043877
-0.00831142
-0.013109
-0.00894533
-0.0731682
-0.000268676
-0.000261041
0.00308755
0.000933509
0.00506249
-0.0763052
-0.0236209
-0.0184469
-0.0195422
0.00105761
-0.00937605
-0.082558
-0.0741602
0.00286698
-0.021755
-0.00528636
-0.0731112
-0.0104822
-0.00962273
-0.0826891
-0.000223019
-0.0335479
-0.0825968
-0.0710095
-0.0113807
-0.0045906
0.000836761
-0.00305444
-0.0132914
-0.0131659
-0.00283876
-0.0775297
5.0439e-05
-0.0333112
4.48073e-05
-0.0713029
-0.0719977
-0.0116208
-0.0197255
-0.0240629
-0.0184827
-0.0739242
-0.00212088
-0.0123872
-0.0141341
-0.0735922
-0.0506798
-0.0811794
-0.0151672
-0.0515484
-0.0134368
0.000829667
0.0109486
-0.0325362
0.000528107
-0.00580094
0.00379076
-0.0144549
-0.0118065
-0.00454984
-0.00350033
-0.0315763
-0.0532563
0.0320476
-0.00857296
0.000130944
0.00286573
-0.00887991
-0.00788227
0.000867898
-0.0768882
-0.0597014
-7.46962e-05
-0.0583687
0.000539633
0.00934392
-0.0712273
-0.0181605
-0.00411517
0.000842137
-0.0197441
-0.00782962
-0.00793605
-0.0764837
1.76302e-05
-0.0356216
0.00257237
0.000858219
-0.0570617
-0.0971373
-0.042427
-0.026039
-0.00265145
-0.00410366
-0.0105337
-0.0742423
-0.0752805
0.00131635
-0.00763635
-0.00712613
-0.0533739
-0.0419705
0.000721507
-0.01091
-0.0643295
0.000465459
-0.00787707
0.000865766
6.36667e-05
-0.0259909
-0.0847061
-0.0327419
0.00189871
-0.0794658
-0.0104865
-0.000170425
0.00713171
-0.00605105
-0.0123013
-0.0379183
-0.00536587
0.000513094
0.0030486
-0.0538796
-0.0127741
-0.021965
0.000527623
-0.0080176
-0.0010648
-0.0147253
-0.027136
-0.0139036
-0.0732338
-0.013242
-0.0314525
-0.0504304
-0.0133679
-0.000203995
-0.00813066
-0.0264446
-0.0766151
-0.107281
-0.00712037
0.000575757
-0.0732726
-0.00425467
0.000610818
-0.0243203
-0.0128962
-0.0133613
-0.00442784
-0.0761115
-0.0271065
-0.00604351
-0.0191825
0.0291144
-0.075343
-0.0799311
-0.000318037
-0.00370743
-0.000698576
0.000519674
0.000892171
-0.00410524
-0.00519796
-0.016497
-0.0390591
-0.0219308
-0.0777903
-0.0130497
-5.99791e-05
-0.0319514
0.000567228
-0.0769902
-0.0127215
-0.00107079
0.00823427
-0.0627408
0.0279683
-0.0736454
-0.0116389
-0.0404605
-0.00114123
-0.000117492
0.000715283
-0.0129416
-0.0135497
-0.0769407
-0.0178019
-0.0311746
0.00282959
0.00074695
-0.0224773
0.00085537
-0.00067044
-0.0730374
0.000747185
0.0196786
-0.0593885
-0.0131657
-0.0537689
-0.0400446
-0.0401966
-0.0110084
0.00173997
-0.00259027
0.000122004
0.00170822
0.00454898
0.00179064
-0.00066767
0.000591594
0.000939822
0.00921146
-0.00495824
-0.0941699
-0.0343073
0.000998405
-0.0148928
0.000260586
-0.0321178
0.00204328
-0.0163859
0.00177238
0.000211308
0.0008884
-0.0137039
-0.00269735
-0.0733813
8.60369e-05
0.000729666
-0.0186696
0.00259271
0.000221181
-0.0847998
-0.00653147
-0.000902045
-0.00260889
0.00340613
-0.0728837
0.0010014
-0.0265818
-0.00101421
0.0017865
0.000864866
-0.0754492
-0.0173837
0.000447646
0.0247051
0.000262601
-0.0859348
0.000407588
-0.00487527
-0.0167374
0.000870986
-0.0754038
0.000550452
0.000549986
-0.0608232
-0.01173
-0.00105261
0.000811011
0.000881049
-0.0566444
-0.0221962
0.00178425
-0.0015977
-0.00398796
0.00738681
-0.00176358
-0.00178885
-0.0169201
-0.0144658
-0.0376295
-0.000577552
0.000935744
-0.0231666
-0.00994405
-0.0108803
-0.0148855
0.00769153
0.000293916
-0.050856
-0.00246951
0.00845375
-2.62603e-05
-0.0137976
-0.00384338
0.00076683
-0.0117595
0.000208778
-0.0455212
0.0306247
0.00187454
-0.076336
-0.0977342
-0.0564993
-0.0761315
-0.00342581
-0.0149071
-0.0170132
0.0135268
0.000937721
-0.0789581
0.00014699
-0.0723733
-0.00325986
-0.0348443
-0.0461367
0.00733403
0.010015
-0.000137768
-0.0569751
-0.00317471
-0.00241166
-0.0349319
-0.0823239
-0.0927023
-0.015063
0.0055514
-0.00778582
0.000429583
-0.01657
0.00125044
-0.01338
-0.00554548
0.000863222
-0.0755885
0.000862442
-0.0515655
-0.00580738
-0.0139123
-0.0107091
-0.0103429
-3.13733e-07
-0.0771279
-7.30474e-05
-0.0186466
-0.0255432
-0.000757024
-0.0178286
0.00162278
-0.0354804
-0.0751219
-0.0150327
-0.00323412
-0.0256064
0.00185165
-0.0245951
-0.0021494
2.20197e-05
-0.0393361
0.000504135
-0.000692688
-0.0449509
-0.0107817
-0.0305108
-0.0127079
-0.000755584
-0.00891301
0.00256618
-0.00504698
-0.010938
0.00962625
0.00355164
-0.00126699
-9.90797e-05
-0.0126968
0.00990204
-0.00935799
-0.0763978
-0.000136746
-0.018008
-0.0113334
0.00137448
-0.0751029
-0.00873481
0.000404908
-0.0753045
-0.0555478
-0.0858867
0.00116926
-0.079734
-0.0189019
-0.00643604
-0.0792558
-0.00633402
-0.000544296
-0.0570556
-0.00354491
0.00439106
-0.085974
-0.00181139
-0.0504747
-0.022523
-0.0775906
-0.01813
-0.00855915
-0.0130221
-0.0814342
-0.0186725
-0.0162282
0.00126388
-0.0167188
-0.000148597
0.0014011
-0.0108405
6.46492e-05
-0.0113535
-0.00776837
-0.0777649
0.0187193
0.0197182
-0.027677
4.35945e-05
-0.0437637
-0.0160977
-0.00526448
-0.0624385
0.000703334
-0.0366982
-0.0817745
-2.84419e-05
-0.071438
-0.0151081
-0.0789861
-0.0150833
-0.0154476
0.00103494
-0.00799887
-0.00644164
-0.0186268
-0.023715
-0.000662749
-0.00814972
-0.080579
-0.0213272
-0.0759536
-0.000356355
-0.0222034
-0.0851683
0.00220288
0.00774716
-0.0770658
-0.0106422
-0.016916
-0.0731032
0.014295
0.028673
-0.0103645
-0.0781497
-0.0102176
0.00367818
-0.0828215
-0.0695464
-0.00404176
-0.0054071
-0.0361
-0.0311027
-0.0174555
-0.0132679
-0.0476495
-0.0203009
-0.00929051
0.00245559
0.00106603
0.024982
-0.0759122
3.85043e-05
-0.0179305
-0.0180983
0.0156897
8.76704e-05
-0.0766075
-0.0210756
0.00101623
0.000111173
0.000255052
-0.00162507
-0.0314509
-0.0397886
-0.0139612
-0.0744142
0.00188498
-0.0745872
0.000600259
-0.0817204
-0.0746721
-0.0731488
0.000764924
-0.0150793
-0.00179041
0.00162548
-0.00998598
-0.0581606
-0.0848227
-0.0129011
4.80774e-05
-0.019152
0.00126931
-0.0461334
-0.0750029
0.000409981
-0.00143747
-0.0166555
0.0148045
0.00327137
0.000552328
-0.0135593
0.00300415
-0.00439582
0.00107268
-0.00727593
-0.0754339
0.000876284
-0.00802423
-0.0760658
-0.0345703
-0.00492368
-0.0670859
-0.00753379
0.000904005
-0.101332
-0.0129753
-0.00627039
-0.0603132
-0.0607128
0.0171854
-0.0796255
-0.0217073
-0.00100229
-0.00978635
0.00022784
-0.0710463
-0.037815
-0.00517128
-0.034537
-0.00564968
-0.00230649
-0.027212
-0.106503
-0.0171869
-0.0725653
7.4364e-05
-0.0249171
-0.0138666
-0.00274269
-0.0751353
-0.0078449
0.000734057
0.00755214
-0.0725865
-0.00740064
-0.00991891
-0.0875735
9.3268e-05
-0.00918697
4.54849e-05
-0.00742943
-0.0574924
-0.0179688
-0.0583338
-0.038874
-0.0301093
-0.00231683
-0.0170773
0.00451418
0.00306613
0.027159
-0.0135112
-0.0075368
0.000716474
0.000419079
-0.0762495
-0.074479
-0.00748128
-0.035668
-0.000263583
-0.00511068
-0.000953503
0.000104548
0.000962133
-0.00935039
-0.0267524
-0.0863378
0.0260416
-0.000287295
-0.0240993
0.019283
-0.01171
-0.0763399
-0.00146706
-0.0632315
0.035974
-0.00545678
0.0129246
-0.0791846
-0.00669087
-0.0087849
0.000498478
-0.0124908
-0.0240933
-0.000658075
-0.0234875
-0.00284407
-0.00443829
-0.0746411
-0.0140533
-0.024346
-0.0095153
-0.00142985
-0.0655926
-0.0307247
-0.000434971
-0.0475536
0.0123204
-0.0823453
-0.00924648
-0.00774654
-0.00497033
-0.0971237
-0.0126544
-0.0491106
-0.0246645
-0.0798229
0.00118679
-0.000468834
0.0049629
-0.0743666
-0.0169848
8.45889e-05
0.000100072
-0.0780296
-0.0959217
-0.0160091
-0.0184142
-0.00307694
-0.00391484
-0.073958
9.37793e-05
-0.0780519
-0.0615522
-0.000421815
-0.0131643
0.00320013
0.001965
-0.0326066
0.000881519
-0.0199131
0.00272289
-0.00378939
-0.0227533
-0.00824665
0.00108242
-0.0897286
-0.00532992
-0.0152276
-0.0804714
-0.0106888
0.0020892
-0.0292775
-0.000506991
0.000825798
-0.0050534
-0.0414811
0.000504908
0.00295783
0.000626615
-0.0142202
-0.0138567
-0.0254977
-0.0178394
-0.0138477
0.000797298
0.000604621
-0.0176383
0.00378457
-0.0589899
-0.0725042
-0.103168
-0.00261113
0.00135949
-0.0111369
-0.0776832
-0.0169483
-0.00252916
-0.0801463
-0.0807737
-0.0014643
-0.0229912
-0.0202151
0.0103815
-0.0825659
0.0010282
-0.0162091
-0.0383071
-0.069298
-0.022059
-0.024275
-0.00566094
-0.072893
-0.0729312
-4.94537e-05
-0.074185
0.00154356
-0.0176208
-0.0285175
-0.0595037
-0.0161324
-0.00985026
-0.0086719
-0.000348442
-0.0152172
-0.00463504
-0.00750294
0.0120462
-0.00681592
0.000918355
-0.030774
-0.0745218
0.0316548
-0.000652785
-0.00992838
0.0243761
-0.0279551
0.00102002
-0.0176449
0.00129088
-0.0789616
0.0156602
-0.00270248
0.0198026
-0.071495
0.000666984
-0.0742908
-0.0149151
-0.00515034
0.000161162
-0.00212176
0.00378815
-4.61218e-05
0.000540895
-0.00119516
0.000134788
-0.0888409
0.000748335
-0.00776335
-0.0459983
-0.0444718
-0.00417676
-0.0628947
-0.00969133
-0.0186764
-0.0133545
-0.012669
0.0025384
0.00134756
-0.0762373
-0.000923909
0.00274851
-0.0106854
0.00687097
-0.0941841
0.034831
-0.0867746
-0.00161787
-0.00106653
-0.0176234
-0.00606862
0.000557661
0.0013917
-0.0765606
-0.0666579
-0.00494327
-0.00697544
-0.0171072
-0.0700295
-0.0215367
-0.00718757
-0.00841605
-0.0733689
-0.018548
-0.0807432
-0.0237031
0.00214244
-0.00836323
-0.000381855
-0.00237625
-0.0570883
-0.00461783
-0.0345509
-0.086421
-0.0087812
-0.0738342
-0.00628954
-0.00152493
-0.022978
-0.00159088
-0.0150024
0.000811313
0.000565981
0.00061888
-0.101093
0.00051252
0.0127958
0.00590746
-0.0347978
0.0247655
0.0310539
-0.0577698
-0.0781546
0.000872341
7.26803e-06
0.00191491
-0.0778979
-0.0133931
-0.0227847
-0.013867
-0.00553343
-0.0152137
-0.0116334
7.75015e-05
-0.0101574
-0.0191971
-0.0328229
-0.0914179
-0.0857001
-0.0299939
-0.00135564
-0.00911551
-0.0183992
-0.0146859
-0.0027153
-0.0687802
-0.0688994
-0.007636
-0.00510888
0.000659716
-0.00324749
0.00537153
-0.0748425
-0.0271835
-0.0186465
-0.0803666
-0.0613174
-0.0725282
-0.0795159
-0.0119759
-0.101373
-0.0179512
-0.0729132
-0.0756321
-0.102847
-0.08183
0.000277419
-0.023869
0.00167329
-0.00150564
-0.0854436
-0.00949189
-0.0172308
-0.041417
-0.0224754
-0.0461721
-0.0771357
-0.0774008
-0.041652
-0.0257503
-0.00841548
-0.0123722
-2.46419e-05
-0.0244578
-0.00786383
-0.0602851
0.017217
-0.0181667
0.000758035
-0.000858471
-0.00246897
-0.0771782
-0.00602381
-0.00119128
-0.017899
-0.00783353
-0.0464477
0.00131622
0.00274387
-0.0985112
-0.0182516
-0.0459465
-0.0172395
-0.0424972
0.0116408
0.00362893
-0.00530736
0.000161136
-0.0225728
-0.0318669
-0.00270637
-0.0340477
-0.0873064
-0.0100465
-0.00774754
-0.00539642
-0.0537941
-0.00775397
-0.00460622
0.000778719
0.0246545
-0.0699088
-0.00146923
-0.0108502
-0.0818651
-0.0116042
0.00300551
-0.0223053
-0.0739955
-0.0181683
-0.0813858
-0.00684873
0.00300784
0.000969755
-0.0776044
-0.0376015
0.000455095
-0.0830857
-0.0134091
-0.0123752
-0.0183595
-0.0767871
0.00593532
0.0115072
-0.0413052
-0.0237368
-0.0789648
-0.00313608
-0.0112018
-0.0224771
-0.0299119
-0.0165709
0.00194781
-0.0124969
-0.000421755
-0.078024
-0.0248081
-0.0816019
-0.0127596
-0.0824098
-0.0748758
-0.0212091
-0.0214383
-0.0398023
-0.0128002
-0.0762475
-0.033377
-0.0865969
-0.0817396
-0.00907758
0.00156511
-0.0777833
-0.098118
0.0056886
-0.0765291
-0.00828724
-0.00199444
-0.0231203
-0.0063557
-0.0121255
-0.0470779
-0.0824116
0.00240079
0.00286929
-0.120456
-0.076008
0.00682794
-0.0820226
0.00145016
-0.0778842
-0.0408995
-0.0623332
-0.00128789
-0.00165244
-0.055079
-0.0744066
0.000248591
-0.0617154
-0.0835308
-0.00139427
-0.020806
0.00113809
-0.00851177
-0.0073962
-0.0344467
-0.101232
-0.000558095
-0.0165544
-0.00164593
-0.0181418
-0.0670457
-0.0855896
-0.00316303
-0.0780635
-0.0122464
-0.00903091
0.00257573
-0.00175045
0.000500667
-0.0762986
-0.0780951
0.0220281
0.0222213
-0.0782785
-0.00195883
-0.0792064
-0.0824559
-0.00579894
-0.0794706
0.000456203
-0.00874526
-0.0147993
-0.0366425
-0.0795598
-0.0306174
-0.0204867
-0.0218326
0.00134743
-0.0798724
0.00143953
0.000705561
-0.074797
-0.0830439
-0.024346
-0.0116801
-0.0232662
-0.0152224
-0.0174717
0.032633
-0.00709145
-0.0772345
0.0020693
-0.0790782
-0.00455132
-0.00906739
-0.0577963
-0.00251047
0.000679046
0.0236342
0.0273917
8.83009e-05
0.00339509
-0.0308926
-0.0763723
-0.0778754
-0.00724503
-0.0178543
0.00116136
-0.00495924
-0.0234579
-0.009704
0.0168228
0.000203268
0.000722259
-0.0861603
-0.00989621
-0.0232587
-0.0315592
0.00216967
1.19559e-05
0.000498128
-0.0241957
-0.0242742
-0.0181913
-0.0315373
-0.00946987
-0.0725892
-0.0178034
-0.047157
-0.0172011
-0.0790622
-0.0131596
0.000837317
-0.0321071
-0.0241423
-0.0175175
-0.0136438
-0.00846088
-0.0252118
-0.0232728
-0.0760784
-0.0142677
-0.062711
-0.0472876
-0.0643004
-0.0659926
-0.0248318
-0.0675601
-0.0691083
-0.0705512
-0.0719034
-0.0689537
-0.044928
0.00335483
-0.00768087
-0.0367022
-0.0608471
-0.00540133
-0.0166736
-0.0782043
-0.00232907
-0.0864105
0.000672124
0.000313764
0.00269516
-0.0821923
-0.0242538
-0.00653657
-0.0723627
-0.0256997
-0.0154593
-0.010352
0.000880245
-0.0261086
-0.111713
-0.000664585
-0.0409257
-0.0652442
-0.0807768
-0.0582409
-0.0812008
-0.0266895
-0.00229541
-0.0776745
5.37819e-05
-0.0766104
-0.0763983
-0.0114783
-0.0189849
-0.0117759
-0.000267016
-0.00013066
-0.0140937
0.00732949
0.000863248
0.00089076
0.0216127
-0.0769954
-0.0165229
-0.0125616
-0.0742774
-0.0368509
-0.0830959
-0.0732345
-0.0206566
-0.0166811
-0.0236725
-0.00562132
-0.0822193
-0.0102825
-0.0905539
-0.061031
-0.075446
-0.00938171
-0.00441492
-0.00549684
-0.079006
0.000470735
-0.0788203
9.55775e-05
-0.0796938
-0.0242739
-0.00628556
-0.0034862
-0.00567171
-0.0624633
-0.0106025
-0.0160449
-0.00394373
-0.0243075
-0.0758156
-0.0820212
-0.00270856
-0.0825472
-0.00569316
-0.00181831
-0.0371315
-0.0163014
-0.0755474
-0.0278531
-0.00995539
-0.0735738
-0.0641455
-0.080119
0.000176131
0.000571866
-0.000564485
-0.00131876
-0.0666622
0.0134058
-0.00702926
-0.0096161
-0.0671141
-0.00358309
-0.00311881
0.00562726
-0.106756
-0.0181325
-0.0230336
0.000554519
-0.081917
0.00101717
-0.0187792
-0.0635843
-0.0630674
-0.0745959
0.000640951
-0.0439181
-0.00540865
-0.0692618
-0.0766629
-0.0134248
-0.0650933
-0.00506704
0.000870088
-0.00791255
-0.0061179
0.0200584
-0.00484156
-0.0116779
0.000942763
0.011484
-0.077119
-0.0792404
-0.0790723
-0.000371026
-0.0298779
-0.000295566
-0.0663291
0.000594204
-0.00795185
-0.00202456
-0.0356507
-0.00347322
-0.00717098
-0.0035529
-0.00873893
-0.0768746
-0.0741361
-0.00254912
-0.0218062
-0.0730387
-0.000430613
0.000964217
-0.0794186
-0.0266091
-0.00548482
-0.0749338
-0.00551312
-0.0850118
-0.00184014
-0.0859152
-0.08823
-0.00547315
-0.0137669
-0.0328832
-0.0611716
-0.0568343
-0.0805175
0.00733198
-0.0236336
-0.0772879
0.00286076
-0.0210698
-0.0105403
-0.0645294
0.0154345
-0.0780175
-0.0470627
0.0316269
-0.0144421
-0.0872183
-0.00874918
-0.0783102
-0.0727509
-0.00522311
0.000527293
-0.0801824
-0.0772669
0.00317993
-0.0218919
-0.0099849
0.0019624
-0.0807576
0.0147754
-0.0756966
-0.0155355
-0.0745255
-0.00784152
0.0100799
-0.0230211
-0.0226381
-0.0336904
-0.00459193
-0.0684028
0.000669317
-0.029322
-0.0216819
-0.000334035
-0.00647823
-0.0234806
-0.0781837
-0.0789283
-0.00114509
-0.0764729
-0.01922
-0.0018607
-0.0133206
5.43837e-05
-0.0241464
-0.076597
-0.0780813
0.000265618
-0.0137358
-0.0572541
-0.0601323
-0.0735871
-0.0622109
-0.0167433
-0.0546112
-0.0146774
-0.000995658
0.000546543
-0.0760149
-0.0094254
-0.0795778
-0.0762595
-0.0283864
-0.0772431
-0.0737694
-0.00240893
-0.0777839
-0.0293386
-0.0480522
0.00512688
-0.00361774
0.00461967
-0.077329
-0.0209917
0.010419
-0.0164495
-0.0793748
-0.0694443
0.0154599
-0.0750261
-0.073504
-0.078159
-0.0124137
0.00063152
-0.0585915
-0.0157404
-0.0218724
-0.0224484
-0.0129837
-0.0033308
-0.0113982
-0.0156091
-0.00690585
-0.0158285
-0.00949354
-0.00989137
0.00274308
-0.0740654
-0.0158291
-0.0787348
-0.0176693
-0.011803
-0.0638317
-0.0598887
-0.00648484
-0.00270114
-0.0123801
-0.0420491
-0.078502
-0.0413841
-0.0223305
-0.0143919
-0.00137095
-0.00718793
-0.0768726
-0.0576535
-0.00525754
0.000664697
-0.0816672
-0.0222393
-0.0102607
-0.0592939
-0.0335112
-0.0341219
-0.0776562
-0.0559539
-0.00869784
-0.0108453
-0.0819269
-0.00430551
-0.0172691
-0.0180714
0.00119318
-0.0582078
-0.0221954
-0.039709
-0.0113622
-0.0168228
-0.0363099
-0.0738329
-0.0675446
-0.0215078
-0.0653962
-0.071811
-0.034943
-0.025285
-0.0240798
-0.0305395
-0.0294102
-0.0770524
-0.00804907
-0.00244617
-0.0496333
-0.0239583
-0.0595386
-0.000922211
-0.0118202
-0.0336313
0.00102719
-0.0230662
0.00697064
-0.0203257
-0.00337703
-0.0133761
-0.0787743
-0.072991
-0.0104265
-0.00780966
-0.0670128
-0.0233772
-0.00284296
0.00069723
-0.0776117
-0.0274328
-0.076362
0.000181539
-0.0529525
-0.0758906
-0.0685176
-0.0489165
0.00243076
-0.0673502
0.00133622
-0.0164621
-0.0732345
-0.0699736
-0.0144895
-0.00987478
-0.0150882
0.00388416
-0.0137516
-0.0713234
-0.00355473
-0.0727555
-0.043034
-0.00288373
0.00071593
-0.00106819
-0.0133323
-0.0154614
-0.000296582
-0.0415429
-0.0117935
-0.0135521
-0.00239472
-0.0605196
-0.0252916
-0.0321582
-0.0189908
0.000760972
0.000518142
-0.0539283
0.00200888
-0.0787644
-0.02082
-0.0226564
-0.0155951
0.00890331
-0.0168245
-0.0164312
-0.0126199
-0.0403408
-0.0117641
-0.0325116
-0.000581088
-0.111695
-0.0401656
-0.0162998
-0.00902422
-0.0757841
-0.00168492
-0.0288741
0.000867021
-0.0435164
0.000694167
-0.0102878
-0.00840597
-0.0231568
0.00691482
-0.0352841
-0.0941151
-0.0287904