/*--------------------------------*- C++ -*----------------------------------*\
| =========                 |                                                 |
| \\      /  F ield         | OpenFOAM: The Open Source CFD Toolbox           |
|  \\    /   O peration     | Version:  v2012                                 |
|   \\  /    A nd           | Website:  www.openfoam.com                      |
|    \\/     M anipulation  |                                                 |
\*---------------------------------------------------------------------------*/
FoamFile
{
    version     2.0;
    format      ascii;
    class       volVectorField;
    location    "350";
    object      cellDisplacement;
}
// * * * * * * * * * * * * * * * * * * * * * * * * * * * * * * * * * * * * * //

dimensions      [0 1 0 0 0 0 0];


internalField   nonuniform List<vector> 
13917
(
(0 0.0338076 0)
(0 0.0307349 0)
(0 0.0337861 0)
(0 0.0299952 0)
(0 0.0260783 0)
(0 0.0306016 0)
(0 0.0326719 0)
(0 0.0316265 0)
(0 0.0326707 0)
(0 0.0338077 0)
(0 0.0315919 0)
(0 0.0276107 0)
(0 0.000913012 0)
(0 0.0321383 0)
(0 0.0293708 0)
(0 0.0338076 0)
(0 0.000707587 0)
(0 0.0316599 0)
(0 0.0337379 0)
(0 0.0338076 0)
(0 0.032006 0)
(0 0.0236891 0)
(0 0.0334695 0)
(0 0.023476 0)
(0 0.0310138 0)
(0 0.0319412 0)
(0 0.0332641 0)
(0 0.0338077 0)
(0 0.0318096 0)
(0 0.0004769 0)
(0 0.0338077 0)
(0 0.0336663 0)
(0 0.0297636 0)
(0 0.0338074 0)
(0 0.0159375 0)
(0 0.0315728 0)
(0 0.0303375 0)
(0 0.00104284 0)
(0 0.0327158 0)
(0 0.0327038 0)
(0 0.000216245 0)
(0 0.0110653 0)
(0 0.0322156 0)
(0 0.033743 0)
(0 0.0337388 0)
(0 0.0336701 0)
(0 0.0319583 0)
(0 0.0338024 0)
(0 0.0308721 0)
(0 0.0161106 0)
(0 0.0273558 0)
(0 0.0336513 0)
(0 0.0338077 0)
(0 0.0261043 0)
(0 0.0267786 0)
(0 0.0336581 0)
(0 0.0338077 0)
(0 0.033454 0)
(0 0.0107901 0)
(0 0.0336622 0)
(0 0.0337565 0)
(0 0.0180413 0)
(0 7.34338e-05 0)
(0 0.0309007 0)
(0 0.0338018 0)
(0 0.000724226 0)
(0 0.0317636 0)
(0 0.0314808 0)
(0 0.031689 0)
(0 0.0338077 0)
(0 0.0337987 0)
(0 0.0338075 0)
(0 0.0276208 0)
(0 0.0106708 0)
(0 0.0321068 0)
(0 0.0310048 0)
(0 0.0258506 0)
(0 0.010396 0)
(0 0.0309047 0)
(0 0.0299289 0)
(0 0.0270441 0)
(0 0.000823908 0)
(0 0.0273624 0)
(0 0.0338013 0)
(0 0.00892789 0)
(0 0.0322536 0)
(0 0.0336559 0)
(0 0.00459022 0)
(0 0.0326377 0)
(0 0.000846082 0)
(0 0.00137839 0)
(0 0.0322945 0)
(0 0.0307692 0)
(0 0.0139548 0)
(0 0.0280712 0)
(0 0.0318449 0)
(0 0.0330481 0)
(0 0.00114305 0)
(0 0.00516665 0)
(0 0.0330573 0)
(0 0.000208015 0)
(0 0.000253199 0)
(0 0.0273044 0)
(0 0.00208571 0)
(0 0.0256137 0)
(0 0.0338035 0)
(0 0.0338057 0)
(0 0.0178677 0)
(0 0.0111793 0)
(0 0.0332737 0)
(0 0.00594406 0)
(0 0.0338074 0)
(0 0.0318918 0)
(0 0.0338027 0)
(0 0.0338015 0)
(0 0.0311118 0)
(0 0.0337314 0)
(0 0.000870332 0)
(0 0.0337774 0)
(0 0.0262183 0)
(0 0.0010231 0)
(0 0.010259 0)
(0 0.0317972 0)
(0 0.0336788 0)
(0 0.0338077 0)
(0 0.0338022 0)
(0 0.0307801 0)
(0 0.0321524 0)
(0 0.0170053 0)
(0 0.0336871 0)
(0 0.0332652 0)
(0 0.0335003 0)
(0 0.0338066 0)
(0 0.0310566 0)
(0 0.0337018 0)
(0 0.0332398 0)
(0 0.0337377 0)
(0 0.0338077 0)
(0 0.0319295 0)
(0 0.000563454 0)
(0 0.0278893 0)
(0 0.0102656 0)
(0 0.0338032 0)
(0 0.0194493 0)
(0 0.0267054 0)
(0 0.0114142 0)
(0 0.033799 0)
(0 0.0227561 0)
(0 0.0338039 0)
(0 0.0264356 0)
(0 0.0325265 0)
(0 0.00022473 0)
(0 0.0263706 0)
(0 0.0262996 0)
(0 0.0330641 0)
(0 0.0234551 0)
(0 0.00239704 0)
(0 0.0338069 0)
(0 0.000419731 0)
(0 0.000712937 0)
(0 0.0156619 0)
(0 0.033794 0)
(0 0.0304572 0)
(0 0.0277966 0)
(0 0.0337874 0)
(0 0.0330887 0)
(0 0.0338077 0)
(0 0.0337899 0)
(0 9.82849e-05 0)
(0 0.0319692 0)
(0 0.0238103 0)
(0 0.0338065 0)
(0 0.0326496 0)
(0 0.0337487 0)
(0 0.0334797 0)
(0 0.000358318 0)
(0 0.0300283 0)
(0 0.0336552 0)
(0 0.0332332 0)
(0 0.0305478 0)
(0 0.0321314 0)
(0 0.0235438 0)
(0 0.0273054 0)
(0 0.0337301 0)
(0 0.0337783 0)
(0 0.0334866 0)
(0 0.0270604 0)
(0 0.033726 0)
(0 0.00058952 0)
(0 0.0322261 0)
(0 0.033468 0)
(0 0.033731 0)
(0 0.0337173 0)
(0 0.0338077 0)
(0 0.0141323 0)
(0 0.0338077 0)
(0 0.0321307 0)
(0 0.0338063 0)
(0 0.015618 0)
(0 0.0232921 0)
(0 0.031836 0)
(0 0.0338077 0)
(0 0.0338077 0)
(0 0.0297081 0)
(0 0.0333508 0)
(0 0.0313169 0)
(0 0.0325944 0)
(0 0.0104165 0)
(0 0.0336603 0)
(0 0.026965 0)
(0 0.0134217 0)
(0 0.0262048 0)
(0 0.0263225 0)
(0 0.033803 0)
(0 0.0336952 0)
(0 0.0319899 0)
(0 0.0338027 0)
(0 0.00265019 0)
(0 0.00584015 0)
(0 0.00575541 0)
(0 0.0337927 0)
(0 0.0337222 0)
(0 0.0337274 0)
(0 0.0114228 0)
(0 4.96373e-05 0)
(0 0.0332454 0)
(0 0.0338077 0)
(0 0.00531454 0)
(0 0.00510655 0)
(0 0.000200089 0)
(0 0.00593776 0)
(0 0.00585042 0)
(0 0.0338075 0)
(0 0.0338014 0)
(0 0.0252608 0)
(0 0.000210201 0)
(0 0.0335805 0)
(0 0.0338076 0)
(0 0.000559567 0)
(0 0.0106238 0)
(0 0.0333299 0)
(0 0.0338034 0)
(0 0.0337284 0)
(0 0.0338036 0)
(0 0.03355 0)
(0 0.019652 0)
(0 0.0337891 0)
(0 0.0335986 0)
(0 0.0318583 0)
(0 0.0336691 0)
(0 0.0295957 0)
(0 0.0338025 0)
(0 0.0265333 0)
(0 0.0330856 0)
(0 0.0334517 0)
(0 0.0253809 0)
(0 9.49748e-05 0)
(0 0.030899 0)
(0 0.0249152 0)
(0 0.0145741 0)
(0 0.0338077 0)
(0 0.0314065 0)
(0 0.0110162 0)
(0 0.00499555 0)
(0 0.0237686 0)
(0 0.00510827 0)
(0 0.026581 0)
(0 0.00170222 0)
(0 0.0331994 0)
(0 0.011194 0)
(0 0.0338077 0)
(0 0.0338051 0)
(0 0.0248813 0)
(0 0.0249348 0)
(0 0.0336604 0)
(0 0.00465115 0)
(0 0.0330109 0)
(0 0.0338076 0)
(0 0.00472969 0)
(0 0.0338077 0)
(0 0.0142356 0)
(0 0.0337917 0)
(0 0.000283908 0)
(0 0.0289307 0)
(0 0.0255959 0)
(0 0.0188284 0)
(0 0.0337502 0)
(0 0.0016712 0)
(0 0.0331048 0)
(0 0.0323772 0)
(0 0.0313812 0)
(0 0.0116262 0)
(0 0.0333573 0)
(0 0.0338077 0)
(0 0.000770852 0)
(0 0.0334916 0)
(0 0.0253653 0)
(0 0.0311103 0)
(0 0.0258298 0)
(0 0.0309227 0)
(0 0.0140099 0)
(0 0.0020543 0)
(0 0.0336357 0)
(0 0.0221549 0)
(0 0.0330523 0)
(0 0.0308249 0)
(0 0.00987471 0)
(0 0.0338067 0)
(0 0.0338076 0)
(0 0.0159556 0)
(0 0.0039956 0)
(0 0.0311645 0)
(0 0.0263022 0)
(0 0.0337655 0)
(0 0.033806 0)
(0 0.033749 0)
(0 0.000450375 0)
(0 0.0334922 0)
(0 0.0246478 0)
(0 0.0338004 0)
(0 0.0264806 0)
(0 0.0337857 0)
(0 0.00150249 0)
(0 0.0291968 0)
(0 0.0332903 0)
(0 0.023884 0)
(0 0.0308133 0)
(0 0.0337261 0)
(0 0.000625287 0)
(0 0.0338064 0)
(0 0.00715029 0)
(0 0.0335028 0)
(0 0.00454734 0)
(0 0.0338077 0)
(0 0.00885748 0)
(0 0.0330198 0)
(0 0.0314247 0)
(0 0.000333834 0)
(0 0.000850502 0)
(0 0.0336754 0)
(0 0.0338024 0)
(0 0.0279488 0)
(0 0.0237412 0)
(0 0.0338072 0)
(0 0.0338028 0)
(0 0.0337637 0)
(0 0.0320634 0)
(0 0.00459753 0)
(0 0.0255715 0)
(0 0.0338036 0)
(0 0.0335078 0)
(0 0.00470396 0)
(0 0.0256325 0)
(0 0.026763 0)
(0 0.0325084 0)
(0 0.0330512 0)
(0 0.0336946 0)
(0 0.033449 0)
(0 0.0329681 0)
(0 0.0334873 0)
(0 0.0338075 0)
(0 0.017402 0)
(0 0.0280298 0)
(0 0.0261791 0)
(0 0.0337688 0)
(0 0.00049694 0)
(0 0.0338077 0)
(0 0.0334767 0)
(0 0.00583363 0)
(0 0.0270294 0)
(0 0.0334943 0)
(0 0.00411297 0)
(0 0.0305334 0)
(0 0.0103696 0)
(0 0.0337313 0)
(0 0.0336683 0)
(0 0.0314887 0)
(0 0.0252297 0)
(0 0.0337892 0)
(0 0.00459478 0)
(0 0.0337849 0)
(0 0.0337239 0)
(0 0.0102466 0)
(0 0.0306487 0)
(0 0.0259203 0)
(0 0.00523282 0)
(0 0.0105023 0)
(0 0.0338075 0)
(0 0.00520028 0)
(0 0.0303487 0)
(0 0.0332842 0)
(0 0.032891 0)
(0 0.0292601 0)
(0 0.0337815 0)
(0 0.0337914 0)
(0 0.0301333 0)
(0 0.0337505 0)
(0 0.0255055 0)
(0 0.0328624 0)
(0 0.0337837 0)
(0 0.00633753 0)
(0 0.0326817 0)
(0 0.030869 0)
(0 0.0184798 0)
(0 0.0106426 0)
(0 0.0179608 0)
(0 0.0337388 0)
(0 0.0331241 0)
(0 0.0275625 0)
(0 0.0180697 0)
(0 0.0228831 0)
(0 0.0334285 0)
(0 0.0312025 0)
(0 0.00453706 0)
(0 0.000112491 0)
(0 0.0337622 0)
(0 0.0334688 0)
(0 0.0193016 0)
(0 0.0302236 0)
(0 0.0337357 0)
(0 0.0329243 0)
(0 0.000698061 0)
(0 0.0337442 0)
(0 0.0337991 0)
(0 0.00725729 0)
(0 0.00451882 0)
(0 0.0316821 0)
(0 0.0100201 0)
(0 0.00462309 0)
(0 0.0254692 0)
(0 0.00461174 0)
(0 0.00708323 0)
(0 0.033794 0)
(0 0.0258174 0)
(0 0.0328277 0)
(0 0.0338077 0)
(0 0.0334717 0)
(0 0.013863 0)
(0 0.0260291 0)
(0 0.0337838 0)
(0 0.0317936 0)
(0 0.0338077 0)
(0 0.00455637 0)
(0 0.0179865 0)
(0 0.00475543 0)
(0 0.00600761 0)
(0 0.0301751 0)
(0 0.0259343 0)
(0 0.0337277 0)
(0 0.0104534 0)
(0 0.0338037 0)
(0 0.0177917 0)
(0 0.033308 0)
(0 0.0108153 0)
(0 0.0266687 0)
(0 0.0335577 0)
(0 0.0337598 0)
(0 0.026545 0)
(0 0.0330203 0)
(0 0.0144465 0)
(0 0.0040458 0)
(0 0.0225068 0)
(0 0.0260607 0)
(0 0.0125218 0)
(0 0.00337013 0)
(0 0.0338068 0)
(0 0.0337559 0)
(0 0.0120648 0)
(0 0.0333869 0)
(0 0.0337598 0)
(0 0.0036927 0)
(0 0.0335165 0)
(0 0.0337011 0)
(0 0.0337897 0)
(0 0.0328293 0)
(0 0.0338034 0)
(0 0.00570621 0)
(0 0.00573489 0)
(0 0.026076 0)
(0 0.000606905 0)
(0 0.011014 0)
(0 0.0293937 0)
(0 0.0337601 0)
(0 0.0013392 0)
(0 0.0258387 0)
(0 0.0281569 0)
(0 0.0326618 0)
(0 0.0321703 0)
(0 0.0337717 0)
(0 0.0335674 0)
(0 0.0121077 0)
(0 0.0250304 0)
(0 0.0317465 0)
(0 0.0330675 0)
(0 0.0273979 0)
(0 0.0321462 0)
(0 0.0332461 0)
(0 0.0323967 0)
(0 0.0337781 0)
(0 0.00815727 0)
(0 0.0330946 0)
(0 0.0336646 0)
(0 0.0077794 0)
(0 0.0338073 0)
(0 0.00407335 0)
(0 0.00589125 0)
(0 0.0334535 0)
(0 0.00464791 0)
(0 0.00286612 0)
(0 0.0336195 0)
(0 0.033807 0)
(0 0.0332603 0)
(0 0.0151016 0)
(0 0.0306389 0)
(0 0.0126082 0)
(0 0.0337445 0)
(0 0.0336401 0)
(0 0.0269705 0)
(0 0.0264851 0)
(0 0.0138703 0)
(0 0.0334313 0)
(0 0.0202326 0)
(0 0.0170421 0)
(0 0.000601009 0)
(0 0.0229607 0)
(0 0.0180105 0)
(0 0.0207297 0)
(0 0.0326751 0)
(0 0.00114525 0)
(0 0.0335697 0)
(0 0.00716699 0)
(0 0.0233423 0)
(0 0.030776 0)
(0 0.0338068 0)
(0 0.00328962 0)
(0 0.0319097 0)
(0 0.0147346 0)
(0 0.0332774 0)
(0 0.0335895 0)
(0 0.0323122 0)
(0 0.0334729 0)
(0 0.0331103 0)
(0 0.0304122 0)
(0 0.031712 0)
(0 0.0338061 0)
(0 0.0337957 0)
(0 0.0338077 0)
(0 0.0149262 0)
(0 0.0220168 0)
(0 0.0121942 0)
(0 0.0228127 0)
(0 0.0338024 0)
(0 0.00477505 0)
(0 0.026547 0)
(0 0.0321462 0)
(0 0.0338051 0)
(0 0.0330503 0)
(0 0.0322067 0)
(0 0.0338074 0)
(0 0.0120051 0)
(0 0.0336664 0)
(0 0.00139273 0)
(0 0.0144646 0)
(0 0.0338055 0)
(0 0.00455358 0)
(0 0.0337878 0)
(0 9.54646e-05 0)
(0 0.00268997 0)
(0 0.0223966 0)
(0 0.0337692 0)
(0 0.0206445 0)
(0 0.0045009 0)
(0 0.0337455 0)
(0 0.0334959 0)
(0 0.0240162 0)
(0 0.0337979 0)
(0 0.0338066 0)
(0 0.0337894 0)
(0 0.00312739 0)
(0 0.0338077 0)
(0 0.000228455 0)
(0 0.0337437 0)
(0 0.0227884 0)
(0 0.014597 0)
(0 0.00437065 0)
(0 0.000224388 0)
(0 0.0332155 0)
(0 0.0320442 0)
(0 0.004644 0)
(0 0.00136569 0)
(0 0.00180328 0)
(0 0.0337964 0)
(0 0.017106 0)
(0 0.0336409 0)
(0 0.0255136 0)
(0 0.00428356 0)
(0 0.000520723 0)
(0 0.0336687 0)
(0 0.0337836 0)
(0 0.0338073 0)
(0 0.0336565 0)
(0 0.0326765 0)
(0 0.0337748 0)
(0 0.0338076 0)
(0 0.0107964 0)
(0 0.0337604 0)
(0 0.00177292 0)
(0 0.0337464 0)
(0 0.0228359 0)
(0 0.0337893 0)
(0 0.0175169 0)
(0 0.0210362 0)
(0 0.0270004 0)
(0 0.0238319 0)
(0 0.0332338 0)
(0 0.0338019 0)
(0 0.00123935 0)
(0 0.0331651 0)
(0 0.0168092 0)
(0 0.000155782 0)
(0 0.0338075 0)
(0 0.0330001 0)
(0 0.0170395 0)
(0 0.0337029 0)
(0 0.0106702 0)
(0 0.0137256 0)
(0 0.000163063 0)
(0 0.0338073 0)
(0 0.0169331 0)
(0 0.0251683 0)
(0 0.00467553 0)
(0 0.0168487 0)
(0 0.033766 0)
(0 0.000215691 0)
(0 0.0337077 0)
(0 0.000881311 0)
(0 0.00877673 0)
(0 0.033751 0)
(0 0.033652 0)
(0 0.0266812 0)
(0 0.0338077 0)
(0 0.0337864 0)
(0 0.0308803 0)
(0 0.03366 0)
(0 0.0115513 0)
(0 0.029442 0)
(0 0.0338071 0)
(0 0.0337917 0)
(0 0.0316252 0)
(0 0.0303992 0)
(0 0.0212161 0)
(0 0.00104144 0)
(0 0.0184418 0)
(0 0.000436569 0)
(0 0.0336028 0)
(0 0.0317614 0)
(0 0.0337791 0)
(0 0.0332636 0)
(0 0.0310927 0)
(0 0.0336543 0)
(0 0.0223587 0)
(0 0.0330356 0)
(0 0.0337196 0)
(0 0.0338076 0)
(0 0.0141674 0)
(0 0.0227796 0)
(0 0.000320856 0)
(0 0.0087889 0)
(0 0.00138118 0)
(0 0.000501248 0)
(0 0.0126923 0)
(0 0.00286618 0)
(0 0.0338077 0)
(0 0.0333564 0)
(0 0.00285624 0)
(0 0.0337178 0)
(0 0.00136044 0)
(0 0.0338055 0)
(0 0.014077 0)
(0 0.016887 0)
(0 0.0338071 0)
(0 0.0335753 0)
(0 0.00948241 0)
(0 0.0281277 0)
(0 0.00410127 0)
(0 0.0160087 0)
(0 0.0298593 0)
(0 0.0328874 0)
(0 0.018529 0)
(0 0.0338077 0)
(0 0.0325572 0)
(0 0.0210643 0)
(0 0.00934312 0)
(0 0.0225849 0)
(0 0.0338066 0)
(0 0.0306532 0)
(0 0.00168933 0)
(0 0.016999 0)
(0 0.0338076 0)
(0 0.0332903 0)
(0 0.0321948 0)
(0 0.0338077 0)
(0 0.0259932 0)
(0 0.00938812 0)
(0 0.0163643 0)
(0 0.0301187 0)
(0 0.0338029 0)
(0 0.00957294 0)
(0 0.0332305 0)
(0 0.0297057 0)
(0 0.0319245 0)
(0 0.0337504 0)
(0 0.0245502 0)
(0 0.0336965 0)
(0 0.0333644 0)
(0 0.0278067 0)
(0 0.0299727 0)
(0 0.00170263 0)
(0 0.0328511 0)
(0 0.0248366 0)
(0 0.0337932 0)
(0 0.0311535 0)
(0 0.0138592 0)
(0 0.0338077 0)
(0 0.000799395 0)
(0 0.0261906 0)
(0 0.0302964 0)
(0 0.030591 0)
(0 0.0322412 0)
(0 0.0337901 0)
(0 0.000995295 0)
(0 0.0336504 0)
(0 0.0337829 0)
(0 0.000428414 0)
(0 0.023228 0)
(0 0.0312071 0)
(0 0.00211016 0)
(0 0.0200842 0)
(0 0.0267199 0)
(0 0.0280141 0)
(0 0.0106553 0)
(0 0.0336593 0)
(0 0.0337066 0)
(0 0.0110449 0)
(0 0.0337951 0)
(0 0.0326338 0)
(0 0.0326851 0)
(0 0.0337127 0)
(0 0.0257928 0)
(0 0.0336645 0)
(0 0.0330871 0)
(0 0.00376751 0)
(0 0.0335773 0)
(0 0.0334905 0)
(0 0.033343 0)
(0 0.0164577 0)
(0 0.0130333 0)
(0 0.0182466 0)
(0 0.0338077 0)
(0 0.0295773 0)
(0 0.0140954 0)
(0 0.0334854 0)
(0 0.0189912 0)
(0 0.0146681 0)
(0 0.033654 0)
(0 0.0330687 0)
(0 0.0278712 0)
(0 0.0329736 0)
(0 0.0324674 0)
(0 0.0338038 0)
(0 0.0267838 0)
(0 0.0260061 0)
(0 0.0337802 0)
(0 0.0144301 0)
(0 0.0182035 0)
(0 0.000835614 0)
(0 0.00142472 0)
(0 0.0278978 0)
(0 0.0311891 0)
(0 0.0323835 0)
(0 0.016206 0)
(0 0.00389938 0)
(0 0.0219715 0)
(0 0.0229821 0)
(0 0.0303793 0)
(0 0.0328154 0)
(0 0.00463977 0)
(0 0.0336731 0)
(0 0.0291217 0)
(0 0.0337836 0)
(0 0.028041 0)
(0 0.000617016 0)
(0 0.0338064 0)
(0 0.030041 0)
(0 0.0338077 0)
(0 0.0319415 0)
(0 0.028276 0)
(0 0.0246245 0)
(0 0.013908 0)
(0 0.0227808 0)
(0 0.0338062 0)
(0 0.0328089 0)
(0 0.0309883 0)
(0 0.0328756 0)
(0 0.0195624 0)
(0 0.0333532 0)
(0 0.000152342 0)
(0 0.0172523 0)
(0 0.0195876 0)
(0 0.000211281 0)
(0 0.0337914 0)
(0 0.0319907 0)
(0 0.0284289 0)
(0 0.0337242 0)
(0 0.025528 0)
(0 0.00652134 0)
(0 0.00172359 0)
(0 0.0334642 0)
(0 0.011499 0)
(0 0.0257361 0)
(0 0.030041 0)
(0 0.0215134 0)
(0 0.0334926 0)
(0 0.00625723 0)
(0 0.0324265 0)
(0 0.027739 0)
(0 0.0338076 0)
(0 0.0338077 0)
(0 0.0266741 0)
(0 0.0338039 0)
(0 0.0330618 0)
(0 0.0338076 0)
(0 0.0261097 0)
(0 0.0083825 0)
(0 0.013304 0)
(0 0.0255579 0)
(0 0.0297354 0)
(0 0.0144715 0)
(0 0.0328546 0)
(0 0.0193931 0)
(0 0.0313014 0)
(0 0.0260521 0)
(0 0.0337964 0)
(0 0.0293805 0)
(0 0.0332141 0)
(0 0.0333802 0)
(0 0.0149923 0)
(0 0.0327493 0)
(0 0.0300567 0)
(0 0.0151001 0)
(0 0.0324178 0)
(0 0.00449718 0)
(0 0.0338065 0)
(0 0.0336172 0)
(0 0.00352271 0)
(0 0.0158417 0)
(0 0.0200265 0)
(0 0.023682 0)
(0 0.0223113 0)
(0 0.0337812 0)
(0 0.00888309 0)
(0 0.033036 0)
(0 0.0170604 0)
(0 0.00582051 0)
(0 0.028502 0)
(0 0.019554 0)
(0 0.0336604 0)
(0 0.0182769 0)
(0 0.00937784 0)
(0 0.0091674 0)
(0 0.033763 0)
(0 0.0296709 0)
(0 0.033678 0)
(0 0.0113164 0)
(0 0.0330183 0)
(0 0.00440755 0)
(0 0.0224682 0)
(0 0.0338076 0)
(0 0.00142112 0)
(0 0.0301583 0)
(0 0.0337118 0)
(0 0.0338076 0)
(0 0.00445861 0)
(0 0.0259044 0)
(0 0.0337832 0)
(0 0.0107711 0)
(0 0.0255076 0)
(0 0.0219041 0)
(0 0.0337979 0)
(0 0.0189807 0)
(0 0.0337512 0)
(0 0.0269846 0)
(0 0.0338073 0)
(0 0.0288287 0)
(0 0.033624 0)
(0 0.0182112 0)
(0 0.00324239 0)
(0 0.00528209 0)
(0 0.00252366 0)
(0 0.00069098 0)
(0 0.0338057 0)
(0 0.0295059 0)
(0 0.0115062 0)
(0 0.0266369 0)
(0 0.0106269 0)
(0 0.0131677 0)
(0 0.0336053 0)
(0 0.029964 0)
(0 0.0338026 0)
(0 0.0327879 0)
(0 0.0336995 0)
(0 0.0336462 0)
(0 0.0318352 0)
(0 0.0338072 0)
(0 0.0281787 0)
(0 0.0335918 0)
(0 0.0191304 0)
(0 0.0338077 0)
(0 0.00583991 0)
(0 0.0285685 0)
(0 0.00451076 0)
(0 0.0146603 0)
(0 0.0270941 0)
(0 0.00445719 0)
(0 0.0084709 0)
(0 0.0115709 0)
(0 0.0222795 0)
(0 0.032673 0)
(0 0.00353011 0)
(0 0.0293598 0)
(0 0.0336756 0)
(0 0.0337927 0)
(0 0.033787 0)
(0 0.0337018 0)
(0 0.0238555 0)
(0 0.0054059 0)
(0 0.0179167 0)
(0 0.0337806 0)
(0 0.0200117 0)
(0 0.0338077 0)
(0 0.00554866 0)
(0 0.00885294 0)
(0 0.00493036 0)
(0 0.0247333 0)
(0 0.00538973 0)
(0 0.00485417 0)
(0 0.0185692 0)
(0 0.0330713 0)
(0 0.0115553 0)
(0 0.0338073 0)
(0 0.0264656 0)
(0 0.014157 0)
(0 0.0338059 0)
(0 0.0196462 0)
(0 0.0181482 0)
(0 0.0175909 0)
(0 0.0338072 0)
(0 0.0330798 0)
(0 0.000507942 0)
(0 0.00966085 0)
(0 0.0154955 0)
(0 0.0176774 0)
(0 0.0337969 0)
(0 0.013583 0)
(0 0.0329622 0)
(0 0.0303428 0)
(0 0.0284725 0)
(0 0.0139746 0)
(0 0.0107636 0)
(0 0.0319236 0)
(0 0.025518 0)
(0 0.0303206 0)
(0 0.0338075 0)
(0 0.0190394 0)
(0 0.00189264 0)
(0 0.0256298 0)
(0 0.0206822 0)
(0 0.0125754 0)
(0 0.0337294 0)
(0 0.0333417 0)
(0 0.0316761 0)
(0 0.0338076 0)
(0 0.0338071 0)
(0 0.0253143 0)
(0 0.0337364 0)
(0 0.011154 0)
(0 0.0338076 0)
(0 0.0103736 0)
(0 0.0337326 0)
(0 0.0334515 0)
(0 0.0327218 0)
(0 0.0300473 0)
(0 0.033639 0)
(0 0.033272 0)
(0 0.0338009 0)
(0 0.00418693 0)
(0 0.0232736 0)
(0 0.00455806 0)
(0 0.0194262 0)
(0 0.033372 0)
(0 0.0274753 0)
(0 0.0267247 0)
(0 0.0334572 0)
(0 0.0338076 0)
(0 0.0106651 0)
(0 0.0329384 0)
(0 0.0338076 0)
(0 0.000107436 0)
(0 0.00477773 0)
(0 0.0267064 0)
(0 0.0338031 0)
(0 0.0295848 0)
(0 0.000189735 0)
(0 0.0326068 0)
(0 0.0257103 0)
(0 0.0171672 0)
(0 0.02789 0)
(0 0.0300629 0)
(0 0.0251796 0)
(0 0.021209 0)
(0 0.00430697 0)
(0 0.00990697 0)
(0 0.0198139 0)
(0 0.0188255 0)
(0 0.0338076 0)
(0 0.0283508 0)
(0 0.029176 0)
(0 0.0050635 0)
(0 0.0338076 0)
(0 0.00509761 0)
(0 0.00425234 0)
(0 0.0317931 0)
(0 0.029478 0)
(0 0.0304471 0)
(0 0.00435489 0)
(0 0.0337817 0)
(0 0.0139396 0)
(0 0.023764 0)
(0 0.0335626 0)
(0 0.0189115 0)
(0 0.000349117 0)
(0 0.0336587 0)
(0 0.0337551 0)
(0 0.0336466 0)
(0 0.033728 0)
(0 0.00974679 0)
(0 0.0337243 0)
(0 0.033807 0)
(0 0.00101434 0)
(0 0.0337323 0)
(0 0.00493977 0)
(0 0.0334052 0)
(0 0.0335756 0)
(0 0.0195559 0)
(0 0.0320497 0)
(0 0.0146226 0)
(0 0.0320771 0)
(0 0.0311932 0)
(0 0.0293326 0)
(0 0.033783 0)
(0 0.0330902 0)
(0 0.0335145 0)
(0 0.0337544 0)
(0 0.00157014 0)
(0 0.0337444 0)
(0 0.030259 0)
(0 0.0250757 0)
(0 0.0201998 0)
(0 0.00973145 0)
(0 0.00358997 0)
(0 0.0100655 0)
(0 0.0301652 0)
(0 0.0338019 0)
(0 0.0120758 0)
(0 0.0294497 0)
(0 0.0320359 0)
(0 0.0282564 0)
(0 0.025248 0)
(0 0.0334215 0)
(0 0.0336856 0)
(0 0.0239173 0)
(0 0.0153299 0)
(0 0.0324058 0)
(0 0.00510555 0)
(0 0.0305433 0)
(0 0.0338071 0)
(0 0.0283757 0)
(0 0.0194124 0)
(0 0.03322 0)
(0 0.0142598 0)
(0 0.0295909 0)
(0 0.0338068 0)
(0 0.0338076 0)
(0 0.027392 0)
(0 0.0333736 0)
(0 0.0307388 0)
(0 0.0338077 0)
(0 0.0329468 0)
(0 0.0321289 0)
(0 0.0337971 0)
(0 0.0166479 0)
(0 0.033606 0)
(0 0.0337922 0)
(0 0.0337803 0)
(0 0.0205744 0)
(0 0.0302963 0)
(0 0.00688698 0)
(0 0.0229833 0)
(0 0.0014735 0)
(0 0.0255721 0)
(0 0.0236199 0)
(0 0.0337936 0)
(0 0.00140286 0)
(0 0.0333492 0)
(0 0.00660338 0)
(0 0.033634 0)
(0 0.0337875 0)
(0 0.0299259 0)
(0 0.0337406 0)
(0 0.0329747 0)
(0 0.0201423 0)
(0 0.0337052 0)
(0 0.0299921 0)
(0 0.0296502 0)
(0 0.0204157 0)
(0 0.0338076 0)
(0 0.0336456 0)
(0 0.0338076 0)
(0 0.031946 0)
(0 0.0337806 0)
(0 0.0334812 0)
(0 0.00420516 0)
(0 0.0268475 0)
(0 0.0331291 0)
(0 0.00435175 0)
(0 0.0199265 0)
(0 0.0336236 0)
(0 0.0204702 0)
(0 0.0312429 0)
(0 0.0319982 0)
(0 0.0299495 0)
(0 0.0296562 0)
(0 0.0335792 0)
(0 0.0336071 0)
(0 0.0162554 0)
(0 0.0335977 0)
(0 0.0286224 0)
(0 0.0256753 0)
(0 0.0173498 0)
(0 0.0112408 0)
(0 0.0338009 0)
(0 0.0337711 0)
(0 0.0129276 0)
(0 0.0331742 0)
(0 0.00389535 0)
(0 0.0257226 0)
(0 0.0338077 0)
(0 0.0263578 0)
(0 0.00551932 0)
(0 0.00686342 0)
(0 0.0206171 0)
(0 0.00113296 0)
(0 0.0299527 0)
(0 0.0338013 0)
(0 0.0228039 0)
(0 0.0321201 0)
(0 0.00957238 0)
(0 0.0040152 0)
(0 0.0336943 0)
(0 0.0338019 0)
(0 0.0337765 0)
(0 0.0283579 0)
(0 0.0028361 0)
(0 0.00620836 0)
(0 0.0291508 0)
(0 0.0336904 0)
(0 0.0338062 0)
(0 0.00364629 0)
(0 0.0334091 0)
(0 0.0316777 0)
(0 0.0335418 0)
(0 0.0319553 0)
(0 0.00377667 0)
(0 0.0310515 0)
(0 0.0337408 0)
(0 0.0144395 0)
(0 0.0328733 0)
(0 0.00390225 0)
(0 0.0114793 0)
(0 0.0279464 0)
(0 0.033807 0)
(0 0.033404 0)
(0 0.00939987 0)
(0 0.0337905 0)
(0 0.0335942 0)
(0 0.0161286 0)
(0 0.0336461 0)
(0 0.00179527 0)
(0 0.00742527 0)
(0 0.033764 0)
(0 0.0212548 0)
(0 0.0143997 0)
(0 0.0272736 0)
(0 0.0337175 0)
(0 0.0324109 0)
(0 0.0297571 0)
(0 0.0060754 0)
(0 0.0178744 0)
(0 0.013358 0)
(0 0.0191384 0)
(0 0.0327284 0)
(0 0.033054 0)
(0 0.0338077 0)
(0 0.0324846 0)
(0 0.0323468 0)
(0 0.0331826 0)
(0 0.0334555 0)
(0 0.0148196 0)
(0 0.0321179 0)
(0 0.0337176 0)
(0 0.0337898 0)
(0 0.0338046 0)
(0 0.0287383 0)
(0 0.00595279 0)
(0 0.0338077 0)
(0 0.00491514 0)
(0 0.00512702 0)
(0 0.0308197 0)
(0 0.0328107 0)
(0 0.0277435 0)
(0 0.0049531 0)
(0 0.0337943 0)
(0 0.0323058 0)
(0 0.0283581 0)
(0 0.0194863 0)
(0 0.0335899 0)
(0 0.0337921 0)
(0 0.0338076 0)
(0 0.0217791 0)
(0 0.0231833 0)
(0 0.0304172 0)
(0 0.000686365 0)
(0 0.00745509 0)
(0 0.0333835 0)
(0 0.0208379 0)
(0 0.0319095 0)
(0 0.03316 0)
(0 0.0295869 0)
(0 0.0338015 0)
(0 0.0141896 0)
(0 0.0272345 0)
(0 0.0296661 0)
(0 0.00570009 0)
(0 0.0337892 0)
(0 0.0150737 0)
(0 0.0129151 0)
(0 0.0334809 0)
(0 0.0336254 0)
(0 0.033568 0)
(0 0.0337858 0)
(0 0.0119779 0)
(0 0.0330079 0)
(0 0.0147725 0)
(0 0.0156187 0)
(0 0.0254764 0)
(0 0.00360015 0)
(0 0.0262292 0)
(0 0.0337869 0)
(0 0.0261016 0)
(0 0.0335654 0)
(0 0.0199736 0)
(0 0.0111333 0)
(0 0.0260497 0)
(0 0.00371103 0)
(0 0.0175413 0)
(0 0.0338076 0)
(0 0.00383206 0)
(0 0.0309908 0)
(0 0.0336645 0)
(0 0.00291902 0)
(0 0.0335595 0)
(0 0.0331644 0)
(0 0.0330376 0)
(0 0.0249644 0)
(0 0.0175126 0)
(0 0.0139856 0)
(0 0.0114096 0)
(0 0.00344652 0)
(0 0.0306374 0)
(0 0.0134182 0)
(0 0.00225259 0)
(0 0.0158608 0)
(0 0.00588484 0)
(0 0.0319249 0)
(0 0.0189692 0)
(0 0.0338026 0)
(0 0.0333762 0)
(0 0.0110698 0)
(0 0.0104735 0)
(0 0.00925834 0)
(0 0.0333487 0)
(0 0.0100499 0)
(0 0.0331852 0)
(0 0.0184074 0)
(0 8.44678e-05 0)
(0 0.0112947 0)
(0 0.0335285 0)
(0 0.0285129 0)
(0 0.0337867 0)
(0 0.00661304 0)
(0 0.00368088 0)
(0 0.0315677 0)
(0 0.00338952 0)
(0 0.00967386 0)
(0 0.0338072 0)
(0 0.0246598 0)
(0 0.0022341 0)
(0 0.0334131 0)
(0 0.0336391 0)
(0 0.0338077 0)
(0 0.00377161 0)
(0 0.0321658 0)
(0 0.0334261 0)
(0 0.010209 0)
(0 0.00813257 0)
(0 0.0337893 0)
(0 0.0197092 0)
(0 0.000335363 0)
(0 0.0335847 0)
(0 0.00821025 0)
(0 0.0338069 0)
(0 0.00390357 0)
(0 0.0165466 0)
(0 0.0227484 0)
(0 0.00839267 0)
(0 0.0338064 0)
(0 0.000364807 0)
(0 0.00613378 0)
(0 0.0336841 0)
(0 0.0126558 0)
(0 0.0142274 0)
(0 0.00413523 0)
(0 0.00776789 0)
(0 0.0335074 0)
(0 0.0273921 0)
(0 0.0247369 0)
(0 0.00740377 0)
(0 0.033336 0)
(0 0.0252987 0)
(0 0.00788824 0)
(0 0.00835458 0)
(0 0.0294044 0)
(0 0.00982057 0)
(0 0.0319997 0)
(0 0.022429 0)
(0 0.0135932 0)
(0 0.027651 0)
(0 0.00513511 0)
(0 0.0289929 0)
(0 0.0248559 0)
(0 0.0319033 0)
(0 0.00922014 0)
(0 0.0336688 0)
(0 0.0230997 0)
(0 0.031034 0)
(0 0.0124309 0)
(0 0.0260435 0)
(0 0.018709 0)
(0 0.00414546 0)
(0 0.0324948 0)
(0 0.0286196 0)
(0 0.0325164 0)
(0 0.0335857 0)
(0 0.0057584 0)
(0 0.033807 0)
(0 0.0338034 0)
(0 0.0336838 0)
(0 0.0338041 0)
(0 0.0234388 0)
(0 0.0244915 0)
(0 0.0331662 0)
(0 0.0337239 0)
(0 0.00603378 0)
(0 0.0338076 0)
(0 0.010571 0)
(0 0.033759 0)
(0 0.0256239 0)
(0 0.0318667 0)
(0 0.033658 0)
(0 0.0324283 0)
(0 0.0334821 0)
(0 0.00182263 0)
(0 0.0335271 0)
(0 0.014671 0)
(0 0.0125942 0)
(0 0.032054 0)
(0 0.0338067 0)
(0 0.0338074 0)
(0 0.0269891 0)
(0 0.0250818 0)
(0 0.0333125 0)
(0 0.000637135 0)
(0 0.0337325 0)
(0 0.000508113 0)
(0 0.0301708 0)
(0 0.00863845 0)
(0 0.00030128 0)
(0 0.0338076 0)
(0 0.00809177 0)
(0 0.0332096 0)
(0 0.0260466 0)
(0 0.0331533 0)
(0 0.0336129 0)
(0 0.025223 0)
(0 0.012846 0)
(0 0.0337996 0)
(0 0.0151101 0)
(0 0.0200439 0)
(0 0.0296108 0)
(0 0.0104986 0)
(0 0.0337284 0)
(0 0.0287359 0)
(0 0.0328154 0)
(0 0.0338076 0)
(0 0.0192763 0)
(0 0.0324846 0)
(0 0.0273632 0)
(0 0.000382088 0)
(0 0.0333825 0)
(0 0.0127745 0)
(0 0.0119479 0)
(0 0.0327747 0)
(0 0.000482865 0)
(0 0.00185195 0)
(0 0.0321277 0)
(0 0.0246053 0)
(0 0.0337511 0)
(0 0.0295019 0)
(0 0.0113764 0)
(0 0.0163295 0)
(0 0.00323094 0)
(0 0.00955355 0)
(0 0.0190449 0)
(0 0.033715 0)
(0 0.0264097 0)
(0 0.0212572 0)
(0 0.0138125 0)
(0 0.0158024 0)
(0 0.0261001 0)
(0 0.0266026 0)
(0 0.0338026 0)
(0 0.00158242 0)
(0 0.0329502 0)
(0 0.0297482 0)
(0 0.0149264 0)
(0 0.0337917 0)
(0 0.025344 0)
(0 0.000880337 0)
(0 0.0338076 0)
(0 0.0337246 0)
(0 0.0338071 0)
(0 0.0145435 0)
(0 0.0338049 0)
(0 0.0328228 0)
(0 0.0243043 0)
(0 0.0338076 0)
(0 0.0252587 0)
(0 0.0286257 0)
(0 0.033783 0)
(0 0.0285018 0)
(0 0.0314543 0)
(0 0.0338076 0)
(0 0.0309879 0)
(0 0.0336315 0)
(0 0.0256522 0)
(0 0.0338008 0)
(0 0.0203489 0)
(0 0.019279 0)
(0 0.01496 0)
(0 0.0338076 0)
(0 0.0207484 0)
(0 0.00498313 0)
(0 0.0243301 0)
(0 0.0231745 0)
(0 0.014308 0)
(0 0.0056404 0)
(0 0.03311 0)
(0 0.0324964 0)
(0 0.0191121 0)
(0 0.0316148 0)
(0 0.0338061 0)
(0 0.0311009 0)
(0 0.033619 0)
(0 0.0335572 0)
(0 0.0123561 0)
(0 0.0336989 0)
(0 0.0328969 0)
(0 0.0294809 0)
(0 0.0337749 0)
(0 0.00338317 0)
(0 0.0337077 0)
(0 0.0338076 0)
(0 0.0146014 0)
(0 0.0338077 0)
(0 0.011297 0)
(0 0.0338043 0)
(0 0.0337193 0)
(0 0.0308341 0)
(0 0.0256036 0)
(0 0.019322 0)
(0 0.0263551 0)
(0 0.0182969 0)
(0 0.0306818 0)
(0 0.010883 0)
(0 0.0249377 0)
(0 0.0338025 0)
(0 0.0334264 0)
(0 0.0337941 0)
(0 0.0209159 0)
(0 0.0323005 0)
(0 0.0338068 0)
(0 0.0146912 0)
(0 0.0257214 0)
(0 0.0338006 0)
(0 0.00964987 0)
(0 0.017964 0)
(0 0.0337823 0)
(0 0.0337215 0)
(0 0.0336026 0)
(0 0.0259592 0)
(0 0.033787 0)
(0 0.0324982 0)
(0 0.0282401 0)
(0 0.0338055 0)
(0 0.0337866 0)
(0 0.0204253 0)
(0 0.00804704 0)
(0 0.0336157 0)
(0 0.0333197 0)
(0 0.0334293 0)
(0 0.0240558 0)
(0 0.0326955 0)
(0 0.0333668 0)
(0 0.0329288 0)
(0 0.0262165 0)
(0 0.0110337 0)
(0 0.0319087 0)
(0 0.0338076 0)
(0 0.031899 0)
(0 0.0181629 0)
(0 0.0188533 0)
(0 0.0307695 0)
(0 0.0139975 0)
(0 0.0338068 0)
(0 0.0323364 0)
(0 0.00617701 0)
(0 0.0336151 0)
(0 0.0112432 0)
(0 0.00786754 0)
(0 0.033128 0)
(0 0.0329618 0)
(0 0.0244916 0)
(0 0.033806 0)
(0 0.013344 0)
(0 0.0338065 0)
(0 0.0129453 0)
(0 0.0338075 0)
(0 0.0337903 0)
(0 0.0337832 0)
(0 0.00406621 0)
(0 0.0317104 0)
(0 0.0311133 0)
(0 0.0325259 0)
(0 0.0335548 0)
(0 0.0336553 0)
(0 0.0338024 0)
(0 0.0328842 0)
(0 0.000162731 0)
(0 0.0318278 0)
(0 0.014976 0)
(0 0.0337167 0)
(0 0.0338077 0)
(0 0.000380678 0)
(0 0.00693604 0)
(0 0.0300443 0)
(0 0.0336125 0)
(0 0.0324728 0)
(0 0.0135817 0)
(0 0.0330078 0)
(0 0.0335884 0)
(0 0.0109458 0)
(0 0.0110461 0)
(0 0.029886 0)
(0 0.0338064 0)
(0 0.0285917 0)
(0 0.0122393 0)
(0 0.0338028 0)
(0 0.0327663 0)
(0 0.02979 0)
(0 0.0337794 0)
(0 0.0173291 0)
(0 0.0319353 0)
(0 0.0338061 0)
(0 0.00074815 0)
(0 0.032803 0)
(0 0.0332413 0)
(0 0.0336184 0)
(0 0.0337116 0)
(0 0.0338047 0)
(0 0.0253269 0)
(0 0.0304838 0)
(0 0.0328279 0)
(0 0.00824877 0)
(0 0.0337634 0)
(0 0.0335713 0)
(0 0.0334524 0)
(0 0.0337542 0)
(0 0.0333457 0)
(0 0.0258236 0)
(0 0.0336416 0)
(0 0.0338038 0)
(0 0.0319421 0)
(0 0.0336764 0)
(0 4.79488e-05 0)
(0 0.0278734 0)
(0 0.0252885 0)
(0 0.0135369 0)
(0 0.0337927 0)
(0 0.0328354 0)
(0 0.00367062 0)
(0 0.0309505 0)
(0 0.0337793 0)
(0 0.0167863 0)
(0 0.0207987 0)
(0 0.033802 0)
(0 0.000418927 0)
(0 0.0263045 0)
(0 3.14329e-05 0)
(0 0.0283455 0)
(0 0.0335031 0)
(0 0.0205109 0)
(0 0.0337837 0)
(0 0.032937 0)
(0 0.0335445 0)
(0 0.0298121 0)
(0 0.0334004 0)
(0 0.0280787 0)
(0 0.0302039 0)
(0 0.031828 0)
(0 0.0244584 0)
(0 0.0285857 0)
(0 0.00344697 0)
(0 0.0129578 0)
(0 0.0338058 0)
(0 0.0337381 0)
(0 0.0314987 0)
(0 0.0337728 0)
(0 0.0212735 0)
(0 0.026472 0)
(0 0.0311695 0)
(0 0.0110258 0)
(0 0.0114578 0)
(0 0.033107 0)
(0 0.0320942 0)
(0 0.0338075 0)
(0 0.0335523 0)
(0 0.0337418 0)
(0 0.0258101 0)
(0 0.0337043 0)
(0 0.0190527 0)
(0 0.0337957 0)
(0 0.00739334 0)
(0 0.0337557 0)
(0 0.0336506 0)
(0 0.00414055 0)
(0 0.0335948 0)
(0 0.0338076 0)
(0 0.0318523 0)
(0 0.00329506 0)
(0 0.000788241 0)
(0 0.0317686 0)
(0 0.0337538 0)
(0 0.0100275 0)
(0 0.0281497 0)
(0 0.00196379 0)
(0 0.000990258 0)
(0 0.0337842 0)
(0 0.00334886 0)
(0 0.0320665 0)
(0 0.00919578 0)
(0 0.00142807 0)
(0 0.0337789 0)
(0 0.0330524 0)
(0 0.0271255 0)
(0 0.0337182 0)
(0 0.030654 0)
(0 0.0338064 0)
(0 0.0301322 0)
(0 0.00219032 0)
(0 0.027505 0)
(0 0.0338068 0)
(0 0.0243888 0)
(0 0.0336192 0)
(0 0.0265994 0)
(0 0.0338028 0)
(0 0.0188529 0)
(0 0.0227737 0)
(0 0.0261061 0)
(0 0.0337881 0)
(0 0.0171546 0)
(0 0.0118754 0)
(0 0.00626781 0)
(0 0.0337733 0)
(0 0.0338075 0)
(0 0.0336076 0)
(0 0.0174335 0)
(0 0.0286158 0)
(0 0.0120986 0)
(0 0.0338076 0)
(0 2.99905e-05 0)
(0 0.0337951 0)
(0 0.0336151 0)
(0 0.0214239 0)
(0 0.0336861 0)
(0 0.0304472 0)
(0 0.00351677 0)
(0 0.0298472 0)
(0 0.00746559 0)
(0 0.0325138 0)
(0 0.0315852 0)
(0 0.0333667 0)
(0 0.0276574 0)
(0 0.0269975 0)
(0 0.018522 0)
(0 0.033807 0)
(0 0.00354341 0)
(0 0.00328511 0)
(0 0.0338044 0)
(0 0.0296997 0)
(0 0.0146256 0)
(0 0.0319646 0)
(0 0.0164772 0)
(0 0.0142115 0)
(0 0.0223598 0)
(0 0.0318571 0)
(0 0.0324925 0)
(0 0.00309586 0)
(0 0.0027621 0)
(0 0.0327599 0)
(0 0.0277994 0)
(0 0.0336278 0)
(0 0.0331546 0)
(0 0.00358464 0)
(0 0.0043051 0)
(0 0.00257286 0)
(0 0.0202481 0)
(0 0.0305248 0)
(0 0.0335384 0)
(0 0.0338076 0)
(0 0.0338033 0)
(0 0.014483 0)
(0 0.0102935 0)
(0 0.0325339 0)
(0 0.0337962 0)
(0 0.0217488 0)
(0 0.0116915 0)
(0 0.0338049 0)
(0 0.0338019 0)
(0 0.00282112 0)
(0 0.0307929 0)
(0 0.02898 0)
(0 0.0259223 0)
(0 0.0338057 0)
(0 0.00604046 0)
(0 0.00569163 0)
(0 0.0329973 0)
(0 0.0337873 0)
(0 0.0271017 0)
(0 0.0309422 0)
(0 0.0285121 0)
(0 0.0337573 0)
(0 0.0337869 0)
(0 0.00663572 0)
(0 0.0337887 0)
(0 0.0288634 0)
(0 0.0175568 0)
(0 0.0337544 0)
(0 0.0336074 0)
(0 0.0328166 0)
(0 0.0301538 0)
(0 0.0319952 0)
(0 0.0288326 0)
(0 0.00279925 0)
(0 0.0306827 0)
(0 0.0274071 0)
(0 0.0315408 0)
(0 0.0325156 0)
(0 0.0137437 0)
(0 0.0319716 0)
(0 0.0337895 0)
(0 0.0335983 0)
(0 0.00960457 0)
(0 0.0335333 0)
(0 0.0336938 0)
(0 0.0330023 0)
(0 0.0137623 0)
(0 0.025699 0)
(0 0.00358376 0)