/*--------------------------------*- C++ -*----------------------------------*\
| =========                 |                                                 |
| \\      /  F ield         | OpenFOAM: The Open Source CFD Toolbox           |
|  \\    /   O peration     | Version:  v2012                                 |
|   \\  /    A nd           | Website:  www.openfoam.com                      |
|    \\/     M anipulation  |                                                 |
\*---------------------------------------------------------------------------*/
FoamFile
{
    version     2.0;
    format      ascii;
    class       volScalarField;
    location    "350";
    object      k;
}
// * * * * * * * * * * * * * * * * * * * * * * * * * * * * * * * * * * * * * //

dimensions      [0 2 -2 0 0 0 0];


internalField   nonuniform List<scalar> 
13917
(
0.0164649
0.000179333
0.000224969
0.000150929
0.000166327
0.00017906
0.000159973
0.00020714
0.000157666
0.00189625
0.000205438
0.000148923
0.000166862
0.00630542
0.000163257
0.0134686
0.000149803
0.000195647
0.000193604
0.0127232
0.00016899
0.000148717
0.000175627
0.000148725
0.000154279
0.000171362
0.0275898
0.00145614
0.0001806
0.000137084
0.00116985
0.000183869
0.000151207
0.0281472
0.000146337
0.000226761
0.000156522
0.000165108
0.000160068
0.000172082
0.000147822
0.000146482
0.000155055
0.000192825
0.000192592
0.000142428
0.000167655
0.0146681
0.0169452
0.000146438
0.000148702
0.000196597
0.00764457
0.000148533
0.00014902
0.000196011
0.000145868
0.00017558
0.00014607
0.000104897
0.0240617
0.000176646
0.000141785
0.000153798
0.0287502
0.000442282
0.000184207
0.000225073
0.000200111
0.0162054
0.0167232
0.0260425
0.000148264
0.00014532
0.000169874
0.000155572
0.00015701
0.000144921
0.000155068
0.000151461
0.000151102
0.000150757
0.000148099
0.0156918
0.000142102
0.000233827
0.000183125
0.000146272
0.000171456
0.000149751
0.000140922
0.000155381
0.020845
0.000144515
0.000151191
0.000183415
0.0136532
0.000153402
0.00014536
0.000218081
0.000144823
0.00014401
0.000151318
0.00014676
0.000156909
0.0163588
0.0233651
0.000178235
0.00014765
0.0356672
0.000145079
0.0291152
0.000179939
0.0144099
0.0281764
0.000156517
0.000192416
0.000142313
0.00020541
0.000147149
0.000150669
0.000143826
0.000187167
0.000190717
0.0184726
0.0203558
0.000153307
0.000171079
0.000144756
0.000190893
0.000165954
0.00017865
0.0403246
0.000156469
0.000187115
0.0368741
0.0267575
0.0201105
0.00017347
0.000164545
0.00501736
0.000144349
0.0152094
0.000144127
0.000147536
0.000159313
0.0159554
0.00811439
0.0141725
0.000148816
0.000169375
0.000143202
0.000147258
0.000147212
0.0225768
0.000151268
0.000146171
0.0413095
0.000146337
0.000143678
0.000142401
0.0296096
0.000160622
0.00390226
0.0222328
0.000182893
0.00702426
0.0148069
0.000131226
0.000175012
0.000149356
0.0386921
0.000157553
0.0250387
0.000187129
0.000144619
0.000150903
0.000198506
0.000165273
0.000161549
0.000154885
0.00014892
0.000148717
0.000206751
0.000205413
0.000179184
0.000148515
0.000216473
0.000137064
0.000214504
0.000187498
0.000191164
0.000198258
0.016442
0.00014451
0.0187331
0.000159202
0.0393858
0.00014607
0.000150503
0.000165288
0.0159336
0.0173761
0.000155568
0.0207065
0.00017269
0.000169976
0.000144326
0.000198151
0.000151088
0.000141509
0.000180582
0.000185877
0.0146678
0.000186621
0.00017258
0.0324251
0.000156157
0.00013798
0.000137891
0.0139347
0.000202867
0.000123673
0.000143583
0.000142487
0.0384034
0.0160157
0.000137068
0.000136894
0.000147845
0.00013832
0.000138247
0.0244006
0.015415
0.000149562
0.000131528
0.000187586
0.0245446
0.000147707
0.000143561
0.0265194
0.0162585
0.000218805
0.0325784
0.000194772
0.000144169
0.0170742
0.000188505
0.000177992
0.000186555
0.000154942
0.0150439
0.000147385
0.00017453
0.00018493
0.000150023
0.000148402
0.000153698
0.000164031
0.000146386
0.0243786
0.0144229
0.000144011
0.000136766
0.00015181
0.000136802
0.000147407
0.000167439
0.000170393
0.000144517
0.0243052
0.0249433
0.000146663
0.000158712
0.000201995
0.000137493
0.000197071
0.0274726
0.000137556
0.0200105
0.000145957
0.0289275
0.000145107
0.000159885
0.00015032
0.000143918
0.000199255
0.000157362
0.000544008
0.000162698
0.0194351
0.000163205
0.00410316
0.01987
0.000144544
0.000179184
0.000165084
0.000157202
0.00016587
0.000154891
0.000144938
0.000154797
0.000198877
0.000178165
0.000173624
0.000154527
0.000143444
0.0409142
0.0135688
0.00014413
0.000151447
0.00015724
0.000313888
0.000196878
0.0266825
0.0250535
0.000321666
0.000224085
0.000157832
0.0126137
0.000315192
0.000223794
0.000166
0.000162353
0.022866
0.00015037
0.000182573
0.0001909
0.000148761
0.0384094
0.000142528
0.000172259
0.00014003
0.00558517
0.000139755
0.000171884
0.000173337
0.000266493
0.000148432
0.000186527
0.0116932
0.00015078
0.000150355
0.0312477
0.0127918
0.0234787
0.00412165
0.000137159
0.000149403
0.0175973
0.00021732
0.000137274
0.000166044
0.000148573
0.000179882
0.000172657
0.000194626
0.000195277
0.000197093
0.000172049
0.0241417
0.000145085
0.000150796
0.000169347
0.000206084
0.000148211
0.014511
0.000171814
0.00379638
0.000149286
0.000201674
0.000153655
0.0230171
0.000146695
0.000122424
0.000344502
0.000175567
0.000146973
0.00410328
0.000141081
0.0216636
0.000199152
0.000146768
0.0207939
0.00015162
0.00196702
0.000140643
0.014085
0.00273417
0.000155326
0.0391502
0.00019102
0.000153923
0.0265483
0.000218334
0.00015423
0.000199402
0.000148929
0.000191748
0.000223794
0.000142757
0.000158971
0.0001544
0.000143572
0.000140702
0.000145447
0.0278866
0.00019294
0.000149993
0.000145905
0.000147874
0.000178891
0.000271043
0.000138601
0.000131364
0.000196369
0.000202139
0.000144275
0.000154942
0.0241218
0.027807
0.000889616
0.000194545
0.00661442
0.000141971
0.000138136
0.000166563
0.000140596
0.00013866
0.000149871
0.000138232
0.000141615
0.0158689
0.000149208
0.000174074
0.0263733
0.000179127
0.000141754
0.000147031
0.0270606
0.000165618
0.0158222
0.000139565
0.000143802
0.000141557
0.000138657
0.000156185
0.000152221
0.0229118
0.00016072
0.0183711
0.000143768
0.000168397
0.000158021
0.000150788
0.000193614
0.0237519
0.000148347
0.0296698
0.000142113
0.000144287
0.000147555
0.000151652
0.000140954
0.000151216
0.040796
0.0242715
0.000140714
0.00625244
0.000195773
0.000148503
0.00018117
0.00018579
0.0261174
0.000160052
0.0169532
0.00368034
0.00314773
0.00015224
0.00033495
0.000147755
0.000154501
0.0124594
0.000142209
0.000148202
0.000151203
0.00015835
0.000167936
0.000201419
0.000179329
0.000155223
0.000160814
0.000192463
0.000181421
0.000149996
0.00999279
0.00016969
0.000162622
0.0225636
0.000142168
0.000182493
0.000201039
0.000139959
0.0402495
0.000145197
0.000138635
0.000179622
0.000139604
0.000153849
0.000199353
0.0432718
0.0332971
0.000142294
0.000151496
0.0001521
0.0081775
0.00677316
0.000149486
0.00014881
0.000142053
0.000182957
0.00448503
0.000145312
0.00014788
0.000150088
0.000143246
0.000158441
0.000162613
0.000143813
0.000179764
0.000139979
0.000148118
0.000154057
0.0271712
0.00013701
0.000154814
0.000146389
0.00016756
0.000184582
0.000183033
0.000185967
0.000225557
0.000153439
0.000188986
0.0380522
0.0168304
0.0297213
0.000143495
0.000147257
0.000157288
0.000145163
0.0291384
0.000137941
0.00521286
0.000159123
0.0321149
0.000200403
0.000155121
0.00923526
0.000140692
0.00018246
0.000153212
0.00014963
0.0345405
0.000139067
0.000213746
0.000143293
0.000155558
0.000147579
0.000200135
0.000159647
0.00013626
0.000193139
0.000180647
0.00465324
0.0109613
0.0412681
0.0250563
0.00013707
0.0166184
0.000139186
0.0256659
0.0091655
0.000151351
0.000161162
0.00014443
0.000169305
0.000154416
0.000139135
0.000153216
0.000165688
0.00672121
0.000142805
0.000181708
0.00014792
0.000136109
0.000146387
0.000210507
0.021902
0.00842955
0.000185398
0.000162346
0.00120331
0.0258367
0.000141053
0.0190136
0.000163882
0.000192321
0.000145161
0.00318056
0.000142992
0.000159254
0.000147783
0.00558633
0.000170465
0.0311912
0.000144538
0.000169335
0.000146438
0.00014523
0.025393
0.000180889
0.00014729
0.000195924
0.000143441
0.000148674
0.000143947
0.0277573
0.00014282
0.000165025
0.000137889
0.000146838
0.000206334
0.000143415
0.000194303
0.00015189
0.000139833
0.025089
0.000182333
0.000149152
0.0082821
0.00020996
0.000268766
0.000201399
0.000140474
0.000164853
0.0250038
0.000227054
0.000165301
0.000156495
0.000160066
0.000151483
0.000145256
0.000627222
0.000186263
0.00015787
0.020604
0.000170859
0.000277525
0.0101874
0.000174499
0.000170372
0.000197849
0.0217005
0.000144948
0.000186688
0.000655825
0.00013991
0.000146018
0.00014634
0.000155677
0.000153845
0.0168234
0.000167515
0.000143608
0.000189694
0.000143923
0.0283643
0.000145945
0.000144797
0.0426987
0.000183145
0.00385886
0.000148751
0.000142806
0.000144657
0.000150363
0.000162012
0.000143988
0.0177401
0.000165031
0.00127544
0.00375669
0.000184273
0.0413369
0.000151563
0.00015277
0.000146743
0.0289471
0.0369261
0.000159806
0.0178913
0.011543
0.000139872
0.000144477
0.000156299
0.0147858
0.00392438
0.000170806
0.000150225
0.000154842
0.000193064
0.000156219
0.000194247
0.00016777
0.000150905
0.000151578
0.000152287
0.000161857
0.000161079
0.000232783
0.000158016
0.000155565
0.0174902
0.000148131
0.0098414
0.000155794
0.000171934
0.00015879
0.00021921
0.00015051
0.000181093
0.0203812
0.00250476
0.000145383
0.000157993
0.000159997
0.000144091
0.000147542
0.000167554
0.000158478
0.00021668
0.000194566
0.000140225
0.000224849
0.00015759
0.000158446
0.000196237
0.000149773
0.00018246
0.00852402
0.000136176
0.000183009
0.000191067
0.000167458
0.000143333
0.000141209
0.000145231
0.0140887
0.000151029
0.000146625
0.000171872
0.000144297
0.00014244
0.000195325
0.00151118
0.000178867
0.0305736
0.000178232
0.0185249
0.00014754
0.000158047
4.23406e-05
0.00015133
0.00023046
0.000148213
0.000145502
0.000148674
0.00015894
0.000183609
0.000143313
0.00133283
0.000149238
0.00957301
0.000155822
0.000159867
0.000140059
0.000186767
0.000160716
0.0271771
0.000180514
0.000150478
0.0265532
0.000151923
0.0228123
0.000153936
0.000218143
0.000154962
0.000142817
0.000145141
0.0374275
0.000161796
0.000271123
0.0275005
0.000143982
0.000167792
0.000131361
0.000162763
0.0072562
0.000131765
0.0176411
0.000154928
0.00021881
0.000191992
0.000204582
0.000137878
0.000146168
0.000196977
0.000140448
0.000148294
0.000153627
0.000146949
0.000172037
0.000137709
0.000209592
0.000150912
0.0156876
0.0226038
0.000257357
0.0199604
0.0313073
0.0140533
0.000350218
0.000139419
0.000148231
0.000146843
0.000152003
0.000142146
0.000162003
0.000143604
0.000260398
0.000148575
0.000887016
0.000150708
0.000164024
0.000194346
0.000143984
0.000173771
0.000151939
0.000150315
0.000159073
0.000141078
0.0425799
0.000187643
0.000749362
0.000144166
0.000144962
0.000149711
0.000149662
0.0228755
0.00013961
0.000188151
0.000142718
0.0039529
0.0001589
0.000143964
0.000181833
0.00017764
0.000139744
0.00337502
0.0165491
0.000156495
0.000186683
0.000140416
0.000220677
0.000142232
0.000149663
0.0215027
0.000148368
0.000151203
0.00018932
0.0200243
0.000143615
0.000216388
0.00230494
0.000147204
0.000153442
0.000147278
0.00419346
0.000144707
0.000194458
0.000148183
0.0410224
0.000159868
0.0185179
0.000145863
0.000137451
0.00321102
0.000158156
0.000145625
0.0357557
0.00015348
0.000140769
0.000381269
0.000147242
0.000148218
0.000185862
0.0001539
0.0301999
0.000172597
0.000185694
0.000199252
0.000154705
0.0398464
0.000151723
0.00018439
0.000144172
0.0262973
0.00369747
0.000149068
0.000142198
0.000148547
0.000149488
0.000141349
0.00014214
0.000144407
0.000144938
0.000163228
0.000136179
0.000152971
0.000185227
0.0214565
0.0280575
0.000188149
0.000149736
0.00298772
0.000143025
9.14884e-05
0.00605579
0.00649037
0.000138346
0.000139524
0.000146877
0.000147906
0.000138093
0.000141526
0.000143412
0.000171279
0.000140827
0.00860059
0.000360852
0.000141513
0.0365846
0.000144289
0.000145459
0.000174809
0.0286984
0.000183648
0.000144218
0.00403475
0.000145414
0.000145567
0.000139775
0.000148664
0.0220632
0.000151493
0.000153376
0.000141765
0.000144143
0.000165677
0.000303051
0.000153173
0.0283409
0.000180719
0.000159696
0.000154141
0.000145024
0.000140958
0.000189865
0.000166778
0.000157543
0.0314883
0.0104891
0.000298183
0.000190917
0.000144021
0.0308695
0.000143804
0.0254065
0.00018392
0.000159101
0.000152655
0.0246863
0.0301336
0.00195484
0.000148546
0.00826558
0.000141526
0.00014362
0.000167677
0.000150615
0.000147959
7.67006e-05
0.0197457
0.000144156
0.000160003
0.0243507
0.000143054
0.000137243
0.00387
0.0302079
0.000151616
0.000139583
0.000159484
0.000146823
0.00014526
0.000167933
0.000159664
0.000146522
0.00169235
0.000147457
0.000267432
0.0067482
0.000176702
0.0265951
0.000148942
0.000150493
0.000197253
0.0197424
0.00128432
0.000152328
0.000167346
0.000149628
0.000151622
0.000143583
0.0270806
0.000159253
0.000151009
0.000178659
0.000143785
0.00237367
0.000186264
0.000194486
0.000180703
7.5063e-05
0.00346407
0.0204038
0.0364808
0.00016494
0.000179014
0.000137474
0.000182284
0.000188329
0.00706621
0.000156632
0.000149664
0.000158263
0.000286255
0.000153862
0.0252446
0.000168712
0.000192123
0.0250307
0.000145197
0.000191973
0.000154722
0.000148216
0.000163123
0.000234733
0.000138581
0.000139746
0.000152765
0.0069427
0.00014085
0.000153558
0.000154329
0.0001517
0.000147246
0.000194118
0.000184084
0.000151008
0.000143832
0.000196254
0.000222735
0.000175093
0.0406204
0.000149158
0.000144552
0.0340868
0.000146636
0.000154138
0.0367622
0.0280392
0.000162922
0.00018246
0.000160771
0.0141022
0.000185719
0.000166939
0.0132848
0.000144947
0.000188095
0.0234483
0.000206699
0.00446421
0.0236384
0.000141429
0.000147835
0.000166865
0.000147454
0.000148399
0.000232224
0.000148635
0.000175341
0.000137858
0.00017985
0.0271834
0.00015404
0.00966625
0.0297593
0.000144632
0.000186182
0.000160466
0.000153115
0.000144184
0.0305247
0.000184872
0.0215232
0.000161367
0.0171619
0.000191984
0.000142888
0.000260274
0.000168807
0.000166
0.00014422
0.000133707
0.00014422
0.000158834
0.000170668
0.000159186
0.000149762
0.000179457
0.0151337
0.000142539
0.000216504
0.000146163
0.000148333
0.000142827
0.000161656
0.00230632
0.000199456
0.000142177
0.000163194
0.000132112
0.000317851
0.0170812
0.000147556
0.000140825
0.000141365
0.000145056
0.000171633
0.000155905
0.00246028
0.000150085
0.000155956
0.000238809
0.000131356
0.000187856
0.0306276
0.019072
0.00014889
0.000146753
0.000140392
0.000152642
0.000184237
0.0410253
0.000834338
0.000195434
0.000164997
0.000177219
0.000154201
0.000180379
0.000158419
0.000192425
0.000144531
0.000217187
0.000193845
0.000141222
0.000148531
0.0338084
0.000177787
0.000227941
0.0208083
0.000199288
0.000144625
0.00019806
0.00016367
0.000142765
0.021986
0.00178433
0.000144601
0.000163392
0.00019188
0.000167679
0.000151096
0.000137575
0.000142994
0.000141507
0.000143932
0.00016365
0.000179353
0.0218137
0.000168256
0.000158459
0.00016473
0.000191062
0.000143515
0.000168311
0.000146438
0.000212475
0.0235146
0.000153145
0.000137469
0.0275904
0.000141786
0.000620642
0.000153005
0.000174136
0.000149717
0.000142223
0.000106898
0.000159288
0.000152815
0.000144851
0.0344889
3.31999e-05
0.0255774
0.000148682
0.00014769
0.0226641
0.000143777
0.000142112
0.000202819
0.0014384
0.000160446
0.000166991
0.000150851
0.00591109
0.000142895
0.000155535
0.000149733
0.000137272
0.00021283
0.000142937
0.000141253
5.81674e-05
0.000180461
0.0270483
0.000212304
0.000142371
0.000163693
0.000142449
0.000144304
0.000154458
0.000153193
0.000148039
0.000206254
0.000147445
0.000186307
0.000162301
0.000179117
0.000147042
0.000157173
0.000145027
0.0313797
0.000138478
0.00027875
0.000184172
0.000156073
0.000178103
0.000166834
0.000164014
0.00014724
0.000164842
0.000141461
0.000141245
0.00231732
0.000174289
0.000164534
0.000145934
0.000145785
0.000143338
0.000192035
0.000143705
0.0319891
0.000175918
0.000144527
0.000143227
0.000139741
0.000175865
0.000191947
0.0315927
0.000216505
0.00221326
0.000180514
0.000193597
0.000155262
0.0258644
0.000137831
0.000138113
0.000157406
0.00113254
0.000140013
0.0322482
0.000147964
0.000146821
0.000202872
0.000123195
0.0147745
0.00125493
0.000158422
0.000222905
0.000195975
0.000141879
0.0266561
0.000144354
0.000144479
0.00618836
0.000138879
0.0335265
0.000639422
0.0001425
0.000145147
0.000142112
0.0399351
0.000146518
0.000137573
0.000185836
0.000142434
0.000142161
0.000143564
0.000141954
0.00017452
0.000148288
0.00015617
0.000139075
0.00860304
0.000241564
0.000139239
0.000139322
0.0001514
0.000143121
0.000154979
0.000149085
0.000145575
0.00014846
0.000144832
0.000152166
0.000146582
0.000188464
0.000139748
0.000186973
0.000148241
0.00018506
0.000141848
0.000147874
0.000143902
0.000138824
0.000169692
0.000158954
0.000157
0.0288513
0.000182028
0.0406618
0.0310498
0.000186811
0.0212769
0.000148007
0.000146272
0.00770304
0.0248896
0.000143772
0.0254399
0.000140608
0.000195164
0.0125074
0.000154768
0.000187577
0.0162351
0.0369709
0.000146219
0.000175504
0.000141719
0.00207126
0.000155744
0.0364438
0.0135847
0.000148652
0.000235411
0.000306799
0.000150268
0.00660759
0.00249043
0.000154063
0.000140769
0.00117552
0.0284706
0.000141842
0.000165128
0.000149581
0.00102611
0.000199476
0.000147598
0.000142197
0.000859076
0.000143961
0.000144663
0.000150421
0.000139947
0.00177827
0.000162616
0.000161988
0.0322306
0.000143954
0.000180422
0.000148088
0.00122284
0.000181069
0.00128115
0.000141532
0.000160766
0.000142191
0.000148954
0.000154587
0.000146921
0.0111256
0.000152645
0.000140437
0.000142605
0.00141458
0.000140663
0.00311052
0.0179245
0.00211007
0.00014743
0.00014285
0.000143035
0.000216975
0.000149192
0.00968036
0.000146926
0.0124776
0.00015374
0.000150284
0.000142478
0.000148036
0.000149815
0.0272554
0.000192197
0.0320135
0.000147777
0.0305709
0.0239876
0.000147655
0.02816
0.000148586
0.000157865
0.0188281
0.000154622
0.000176374
0.0211608
0.000165473
0.000183768
0.000146769
0.00416473
0.000144583
0.0042705
0.000142982
0.0196136
0.000144758
0.000145581
0.000154273
0.00888198
0.000143175
0.000180016
0.000184881
0.0199506
0.000143587
0.000163871
0.0371428
0.000258023
0.00158738
0.000187679
0.000141862
0.000193112
0.00894985
0.000156122
0.00256672
0.000137782
0.000198072
0.0152984
0.000143624
0.0172557
0.000143245
0.0264454
0.00127288
0.000155418
0.000155156
0.00560809
0.00861698
0.000144631
0.000152773
0.000140177
0.000147778
0.0222391
0.000184601
0.000201712
0.00014796
0.000161004
0.0342905
0.000170443
2.98867e-05
0.00184532
0.000142083
0.000144067
0.000204859
0.0237199
0.00980941
0.0120349
0.000207434
0.000171153
0.000208874
0.0351969
0.0245134
0.00336597
0.000140772
0.000187733
0.000175286
0.00018725
0.0001461
0.000158373
0.000183003
0.00021927
0.00584507
0.000147704
0.000137686
0.0312233
0.000175747
0.000144335
0.00014443
0.000278305
0.000143312
0.0415352
0.000161832
0.000146822
0.000220885
0.000132272
0.00013914
0.000169242
0.000163162
0.000146365
0.0380116
0.000157291
0.0416075
0.000143784
0.0295078
5.00691e-05
0.000205454
0.000138845
0.000159825
0.000166143
0.00020187
0.000197459
0.000183658
0.0230852
0.00112132
0.000132367
0.000158693
0.000149112
0.000194593
0.0159029
0.000140883
0.000138938
0.000152736
0.000123294
0.000214489
0.000144081
0.000178483
0.000223517
0.00014071
0.000145054
0.000155997
0.0409069
0.000160067
0.00545519
0.0110295
0.00016172
0.000157148
0.00208579
0.000142798
0.000177545
0.0242642
0.000168083
0.000189768
0.000164389
0.000180334
0.022122
0.0298391
0.000146557
0.0173228
0.00071126
0.000138895
0.000196439
0.000184041
0.000199004
0.00879029
0.000415522
0.0122646
0.000194099
0.0249165
0.000160351
0.000183076
0.000138979
0.000148544
0.000147048
0.000141241
0.000133473
0.000217974
0.000138563
0.000182917
0.000202234
0.000142627
0.00278888
0.0306916
0.000137207
0.000148918
0.000139614
0.000152207
0.000174099
0.000144569
0.0167721
0.000162966
0.000185766
0.000159687
0.000186451
0.000200911
0.000170029
0.000141782
0.000146406
0.000152606
0.000138239
0.000143241
0.0359113
0.000190753
0.000163295
0.0201525
0.000148304
0.000150308
0.000167635
0.000140917
0.0001444
0.000188537
0.000157862
0.024211
0.0315441
0.0255263
0.000146872
0.0303206
0.000143595
5.56902e-05
0.000138975
0.000196664
0.0235561
0.000145687
0.000135404
0.0241379
0.000166938
0.000153287
0.000142784
0.000161646
0.021611
0.00013971
0.000148949
0.000155587
0.0001663
0.000204504
0.000155854
0.0001584
0.000141875
0.000155203
0.0024365
0.000167757
0.000154835
0.000194578
0.000266492
0.0368142
0.0182863
0.000160316
0.000151797
0.0241691
0.000146435
0.00018321
0.000147404
0.021763
0.000149487
0.000149482
0.000171784
0.0281773
0.00014402
0.000141553
0.000137644
0.000200147
0.00963799
0.000197011
0.000144619
0.000155265
0.0001409
0.0319867
0.000142645
0.00456421
0.000179925
0.000148316
0.000192469
0.000170776
0.00128099
0.000149926
0.000142097
0.00016422
0.000175591
0.000203405
0.000148522
0.000149932
0.000149044
0.0306043
0.000146961
0.000152731
0.0291901
0.000153821
0.000168281
0.000156467
0.00014444
0.000145417
0.00805103
0.000153806
0.0192882
0.00121583
0.000135207
0.0151286
0.00014969
0.000193609
0.000178183
0.000153991
0.000139187
0.000134923
0.000144486
0.0238335
0.000175734
0.0311039
0.0274304
0.000141687
0.000160835
0.00017088
0.000892748
0.000144773
0.00444051
0.0315
0.0165055
0.000144683
0.00015322
0.000150209
0.000351361
0.0356695
0.000146151
0.000145309
0.000163973
0.0145862
0.000148039
0.000153394
0.000153404
0.000194756
0.000171939
0.000137904
0.0280061
0.000162736
0.000144224
0.016674
0.000179832
0.0196319
0.0224701
0.000166536
0.000158612
0.000153618
0.000160958
0.000150645
0.000194488
0.000175428
0.000145586
0.000156146
0.000230988
0.0244451
0.000139519
0.000196308
0.0302877
0.0252847
0.000146191
0.000146993
0.00255746
0.00741796
0.000227949
0.000144393
0.0353621
0.000183176
0.000136141
0.0214158
0.000160951
0.000148732
0.000123296
0.000146951
0.000182649
0.000142521
0.000133614
0.000147769
0.000137618
0.0287914
0.000138468
0.000142539
0.000186683
0.000156763
0.000156935
0.000195912
0.00014735
0.000144682
0.000153313
0.000151908
0.00197751
0.00228163
2.04826e-05
0.0189273
0.000171205
0.00646207
0.000192463
0.0314199
0.0314928
0.0291822
0.000141489
0.000165717
0.000144949
0.000147697
0.000143724
0.000149175
0.000205507
0.000180726
0.000171664
0.000142421
0.000144095
0.000179307
0.000148886
0.000149696
0.000147455
0.0341355
0.000165172
0.0128099
0.000146661
0.00185073
0.000150216
0.000149085
0.000150616
0.000173024
0.000142477
0.000189166
0.0291098
0.000172712
0.0264746
0.00934491
0.000159229
0.000160908
0.00362302
0.000196007
0.000139659
0.000143404
0.000135205
0.0276695
0.000133583
0.000220777
0.000205737
0.0001875
0.00108482
0.000260787
0.000182826
0.0391252
0.000141983
0.000137372
0.000283676
0.00703406
0.000145783
0.000146759
0.0233728
0.000140876
0.000217314
0.000156523
0.000142307
0.000158554
0.000146216
0.000185902
0.0285025
0.0255091
0.000156746
0.000147287
0.000190185
0.000152301
0.000189503
0.000141054
0.000197086
0.000189465
0.000149668
0.000148424
0.000135777
0.000202011
0.000193578
0.000205611
0.00266313
0.000163681
0.0136061
0.000185451
0.000193642
0.0246962
0.000143776
0.0282473
0.000151554
0.0339522
0.000109322
0.0271102
0.0257149
0.000151078
0.000180443
0.000317914
0.000147072
0.020973
0.000147032
0.000146389
0.000158345
0.000150511
0.000163957
0.000228321
0.000877427
0.0207586
0.000158605
0.000171788
0.000152348
0.000148825
0.00014776
0.000199889
0.000188309
0.0255539
0.00017579
0.00013892
0.000140189
0.000150248
0.000215349
0.000156289
0.000151438
0.000157589
0.00019231
0.000164749
0.000175614
0.000175752
0.0298466
0.000163172
0.000165956
0.000144788
0.000158448
0.000155184
0.000302122
0.00017549
0.000140942
0.0184006
0.000166504
0.000144061
0.000177235
0.0318149
0.00545379
0.000167365
0.000141005
0.0247298
0.000149959
0.000140776
0.000139279
0.00961977
0.00293303
0.000159159
0.00793837
0.022164
0.000169183
0.000175708
0.000183001
0.0417146
0.00016456
0.0351834
0.000150072
0.000214237
0.000162389
0.0335428
0.000166824
0.000142599
0.0348358
0.000146585
0.000151615
0.0264921
0.00854554
0.000237095
0.000156422
0.000155796
0.000152404
0.00686266
0.00014399
0.00014254
0.000146486
0.000175737
0.000144612
0.000167557
0.000168766
0.00313841
0.0018159
0.000150769
0.02144
0.000167563
0.0325641
0.0268614
0.000146347
0.000148646
0.000157635
0.0011041
0.000205345
0.00018453
0.0310558
0.0272066
0.000563372
0.000150736
0.00597418
0.022117
0.000189143
0.000687642
0.000148084
0.000146273
0.000146449
0.000151921
0.000143385
0.000166267
0.0259503
0.000166884
0.00187246
0.0152854
0.00309223
0.0256948
0.0369994
0.000161396
0.0372168
0.000193021
0.00018571
0.000138807
0.000147398
0.000183915
0.0232921
0.000151787
0.0257194
0.0360948
0.000142148
0.000147249
0.000147237
0.00019361
0.000150349
0.00018623
0.028526
0.000139293
0.000143885
0.000141722
0.000151236
0.000190917
0.0279852
0.000170374
0.0103657
0.000196155
0.000142743
0.00151558
0.000202071
0.000148767
6.89839e-05
0.00115207
0.024691
0.00204336
0.0249313
0.000146617
0.00548764
0.0295052
0.000204823
0.0135299
0.000143608
0.000154234
0.000155532
0.000153865
0.0219826
0.000184537
0.00014848
0.000160581
0.00191065
0.0294195
0.000150264
0.000159597
0.0417646
0.0365831
0.000148333
0.000161901
0.000194432
0.000143575
0.000144157
0.0224247
0.000142591
0.0002293
0.00138314
0.0235337
0.000142265
0.000187642
0.000197215
0.000143742
0.000137034
0.0412854
0.0100448
0.000149222
0.000170452
0.000202396
0.000210013
0.038494
0.00546709
0.000158587
0.00291407
0.00415073
0.000168297
0.000141868
0.000208241
0.000137185
0.000138128
0.0239202
0.00017031
0.000192276
0.000156039
0.000158589
0.000143288
0.000138433
0.00015058
0.000151386
0.0149038
0.000155615
0.00118824
0.0181106
0.000175122
0.000185191
0.022417
0.031641
0.0166238
0.000141778
0.000156771
0.000168866
0.000158186
0.000214295
0.00376738
0.000150461
0.00184328
0.0287871
0.000160007
0.00018936
0.000186138
0.000191012
0.000192737
0.000152574
0.000194866
0.000196915
0.000199009
0.000201383
0.000193715
0.00018801
0.000161667
0.000141842
0.000166337
0.000189144
0.000142511
2.33743e-05
0.0389655
0.000219989
0.0339982
0.000136579
0.000141081
0.000219322
0.0193969
0.000151103
0.000155676
0.00018248
0.0229612
0.0229204
0.000146972
0.000167063
0.000157541
0.0108941
0.00262536
0.000155335
9.30519e-05
0.0294453
0.000191045
0.0356425
0.000192122
0.00443011
0.0385948
0.000131152
0.0357351
0.0324896
0.000152109
0.000186588
0.000194779
0.000157809
0.000142474
0.00156266
0.0229217
0.000142914
0.000143263
0.0231001
5.16935e-05
0.0001896
0.00014889
0.000229191
0.000196268
0.0359132
0.026678
0.000146932
0.000143897
0.000150911
0.00015876
0.0330272
0.0230802
0.0314983
0.000187935
0.000131875
0.00549752
0.000159104
0.00014166
0.0293548
0.00014327
0.035742
0.000141816
0.0364364
0.000151957
0.000151542
0.0131005
0.000146512
0.000192912
0.00405823
0.000166179
0.000154616
0.000152348
0.000204474
0.0245621
0.000205149
0.0342555
0.000168003
0.000157383
0.000160872
0.000188704
0.0391921
0.0216674
0.000194938
0.00021287
0.000194842
0.012328
0.000146384
0.000143076
0.00013948
0.000138825
0.000102206
0.00019632
0.00535188
0.000172347
0.000198646
0.00014359
0.00383236
4.7519e-05
0.00989835
0.000144509
0.000152857
0.000133844
0.0316378
0.000183365
0.00959032
0.000114067
0.000194231
0.00016233
0.000135484
0.000169689
0.000203783
9.34733e-05
2.82005e-05
0.000146237
0.000196333
0.000150031
0.000148715
0.000198824
0.0165203
0.00131399
0.000149083
0.00019211
0.000193244
0.0263842
0.0183877
0.030488
0.0245625
0.00014379
0.000182857
0.000147621
0.000197279
0.000144982
0.000197764
0.000153372
0.000177737
0.0039012
0.00540058
0.000164369
0.000197576
0.0325817
0.000195246
0.000154231
0.0276779
0.000193317
0.000153615
0.000149801
0.0227467
0.000162438
0.000200282
3.79408e-05
0.00526109
0.0196359
0.000160298
0.0251023
0.0289234
0.023521
0.000877475
0.00016526
0.000192275
0.00019048
0.0281562
0.000226539
0.000150644
0.000712564
0.000194919
0.000109447
0.000161606
0.0188644
8.20903e-05
0.00143468
0.000158503
0.000166324
0.000156088
0.0254989
0.000204003
0.00445942
0.0152212
0.000140716
0.000133829
0.0282248
0.0346462
0.000180521
0.000150308
0.000173291
0.000165494
0.021745
0.000206568
0.0323748
0.00015915
0.0321123
0.000199387
0.0236977
0.000150449
0.00014041
0.022084
0.000166325
0.000188438
0.000136133
0.00015599
0.000147452
0.00358095
0.000143676
0.000147
0.0378698
0.00814625
0.000138684
0.0372392
0.00015141
0.00014736
0.000143833
0.000142963
0.000148607
7.73554e-05
0.0392067
0.000139994
0.0101013
0.000184048
0.00017636
0.00276516
0.0001885
0.000158357
0.000165028
0.00014312
0.00380012
0.000166152
0.0379485
0.000171019
0.0169031
0.000569708
0.000186296
0.00151715
0.0317677
0.000139679
0.0232638
0.000181126
0.000183687
0.000178135
0.000144308
0.000201048
0.000206405
0.000146918
0.000240343
0.000143974
0.0255734
0.000198532
0.0194801
0.000203864
0.000202489
0.0371466
0.000147682
0.000144985
0.000182418
0.000153308
0.000148586
0.000148806
0.00016094
0.000143295
0.000142657
0.000152547
0.000173459
0.000154051
0.000161282
0.000156856
0.000173293
0.000192331
0.000154849
0.0274588
0.000154177
0.00014343
0.000190029
0.000172889
0.000159112
0.00014336
0.00714625
0.000153724
0.0280384
0.000154265
0.000195538
0.000143536
0.00014673
0.000196284
0.0401816
0.000184986
0.000169489
0.000135893
0.0362066
0.000147698
0.000142408
0.000186653
0.000155237
0.000198287
0.0326649
0.00019085
0.000164449
0.000172901
0.0196791
0.000147291
0.000147894
0.000184913
0.00234531
0.000181474
0.000193549
0.0235289
0.000161396
0.000147342
0.000161232
0.000227025
0.000180393
0.000147142
0.000191717
0.00019143
0.000183959
0.000148493
0.000147179
0.000209947
0.000183976
0.00114783
0.00682598
0.000154712
0.000185322
0.000148399
0.000174311
0.00647987
0.000148664
0.000202606
0.000416084
0.000190242
0.0236656
0.000146414
0.000146422
0.000142857
0.0364929
0.000212497
0.000154776
0.000196326
0.000193495
0.000148163
0.000146841
0.000189359
0.0367535
0.000217409
0.0313664
0.000221345
0.000163773
2.7128e-05
0.000195409
0.00016368
0.00259216
0.000189271
0.00453902
0.00014673
0.000191706
0.000197605
0.000151677
0.00730929
0.000172154
0.000192244