/*--------------------------------*- C++ -*----------------------------------*\
| =========                 |                                                 |
| \\      /  F ield         | OpenFOAM: The Open Source CFD Toolbox           |
|  \\    /   O peration     | Version:  v2012                                 |
|   \\  /    A nd           | Website:  www.openfoam.com                      |
|    \\/     M anipulation  |                                                 |
\*---------------------------------------------------------------------------*/
FoamFile
{
    version     2.0;
    format      ascii;
    class       pointVectorField;
    location    "250";
    object      pointDisplacement;
}
// * * * * * * * * * * * * * * * * * * * * * * * * * * * * * * * * * * * * * //

dimensions      [0 1 0 0 0 0 0];


internalField   nonuniform List<vector> 
14332
(
(0 0 0)
(0 0.0565711 0)
(0 0 0)
(0 0.0565711 0)
(0 0 0)
(0 0 0)
(0 0 0)
(0 0 0)
(0 0 0)
(0 0 0)
(0 0 0)
(0 0 0)
(0 0 0)
(0 0 0)
(0 0 0)
(0 0 0)
(0 0 0)
(0 0 0)
(0 0 0)
(0 0 0)
(0 0 0)
(0 0 0)
(0 0 0)
(0 0 0)
(0 0 0)
(0 0 0)
(0 0 0)
(0 0 0)
(0 0 0)
(0 0 0)
(0 0 0)
(0 0 0)
(0 0 0)
(0 0 0)
(0 0 0)
(0 0 0)
(0 0 0)
(0 0 0)
(0 0 0)
(0 0 0)
(0 0 0)
(0 0 0)
(0 0 0)
(0 0 0)
(0 0 0)
(0 0 0)
(0 0 0)
(0 0 0)
(0 0 0)
(0 0 0)
(0 0 0)
(0 0 0)
(0 0 0)
(0 0 0)
(0 0 0)
(0 0 0)
(0 0 0)
(0 0 0)
(0 0 0)
(0 0 0)
(0 0 0)
(0 0 0)
(0 0 0)
(0 0 0)
(0 0 0)
(0 0 0)
(0 0 0)
(0 0 0)
(0 0 0)
(0 0 0)
(0 0 0)
(0 0 0)
(0 0 0)
(0 0 0)
(0 0 0)
(0 0 0)
(0 0 0)
(0 0 0)
(0 0 0)
(0 0 0)
(0 0 0)
(0 0 0)
(0 0 0)
(0 0 0)
(0 0 0)
(0 0 0)
(0 0 0)
(0 0 0)
(0 0 0)
(0 0 0)
(0 0 0)
(0 0 0)
(0 0 0)
(0 0 0)
(0 0 0)
(0 0 0)
(0 0 0)
(0 0 0)
(0 0 0)
(0 0 0)
(0 0 0)
(0 0 0)
(0 0 0)
(0 0 0)
(0 0 0)
(0 0 0)
(0 0 0)
(0 0 0)
(0 0 0)
(0 0 0)
(0 0 0)
(0 0 0)
(0 0 0)
(0 0 0)
(0 0 0)
(0 0 0)
(0 0 0)
(0 0 0)
(0 0 0)
(0 0 0)
(0 0 0)
(0 0 0)
(0 0 0)
(0 0 0)
(0 0 0)
(0 0 0)
(0 0 0)
(0 0 0)
(0 0 0)
(0 0 0)
(0 0 0)
(0 0 0)
(0 0 0)
(0 0 0)
(0 0.0565711 0)
(0 0.0565711 0)
(0 0.0565711 0)
(0 0.0565711 0)
(0 0.0565711 0)
(0 0.0565711 0)
(0 0.0565711 0)
(0 0.0565711 0)
(0 0.0565711 0)
(0 0.0565711 0)
(0 0.0565711 0)
(0 0.0565711 0)
(0 0.0565711 0)
(0 0.0565711 0)
(0 0.0565711 0)
(0 0.0565711 0)
(0 0.0565711 0)
(0 0.0565711 0)
(0 0.0565711 0)
(0 0.0565711 0)
(0 0.0565711 0)
(0 0.0565711 0)
(0 0.0565711 0)
(0 0.0565711 0)
(0 0.0565711 0)
(0 0.0565711 0)
(0 0.0565711 0)
(0 0.0565711 0)
(0 0.0565711 0)
(0 0.0565711 0)
(0 0.0565711 0)
(0 0.0565711 0)
(0 0.0565711 0)
(0 0.0565711 0)
(0 0.0565711 0)
(0 0.0565711 0)
(0 0.0565711 0)
(0 0.0565711 0)
(0 0.0565711 0)
(0 0.0565711 0)
(0 0.0565711 0)
(0 0.0565711 0)
(0 0.0565711 0)
(0 0.0565711 0)
(0 0.0565711 0)
(0 0 0)
(0 0 0)
(0 0 0)
(0 0 0)
(0 0 0)
(0 0 0)
(0 0 0)
(0 0 0)
(0 0 0)
(0 0 0)
(0 0 0)
(0 0 0)
(0 0 0)
(0 0 0)
(0 0 0)
(0 0 0)
(0 0 0)
(0 0 0)
(0 0 0)
(0 0 0)
(0 0 0)
(0 0 0)
(0 0 0)
(0 0 0)
(0 0 0)
(0 0 0)
(0 0 0)
(0 0 0)
(0 0 0)
(0 0 0)
(0 0 0)
(0 0 0)
(0 0 0)
(0 0 0)
(0 0 0)
(0 0 0)
(0 0 0)
(0 0 0)
(0 0 0)
(0 0 0)
(0 0 0)
(0 0 0)
(0 0 0)
(0 0 0)
(0 0 0)
(0 0 0)
(0 0 0)
(0 0 0)
(0 0 0)
(0 0 0)
(0 0 0)
(0 0 0)
(0 0 0)
(0 0 0)
(0 0 0)
(0 0 0)
(0 0 0)
(0 0 0)
(0 0 0)
(0 0 0)
(0 0 0)
(0 0 0)
(0 0 0)
(0 0 0)
(0 0 0)
(0 0 0)
(0 0 0)
(0 0 0)
(0 0 0)
(0 0 0)
(0 0 0)
(0 0 0)
(0 0 0)
(0 0 0)
(0 0 0)
(0 0 0)
(0 0 0)
(0 0 0)
(0 0 0)
(0 0 0)
(0 0 0)
(0 0 0)
(0 0 0)
(0 0 0)
(0 0 0)
(0 0 0)
(0 0 0)
(0 0 0)
(0 0 0)
(0 0 0)
(0 0 0)
(0 0 0)
(0 0 0)
(0 0 0)
(0 0 0)
(0 0 0)
(0 0 0)
(0 0 0)
(0 0 0)
(0 0 0)
(0 0 0)
(0 0 0)
(0 0 0)
(0 0 0)
(0 0 0)
(0 0 0)
(0 0 0)
(0 0 0)
(0 0 0)
(0 0 0)
(0 0 0)
(0 0 0)
(0 0 0)
(0 0 0)
(0 0 0)
(0 0 0)
(0 0 0)
(0 0 0)
(0 0 0)
(0 0 0)
(0 0 0)
(0 0 0)
(0 0 0)
(0 0 0)
(0 0 0)
(0 0 0)
(0 0 0)
(0 0 0)
(0 0 0)
(0 0 0)
(0 0.0565711 0)
(0 0.0565711 0)
(0 0.0565711 0)
(0 0.0565711 0)
(0 0.0565711 0)
(0 0.0565711 0)
(0 0.0565711 0)
(0 0.0565711 0)
(0 0.0565711 0)
(0 0.0565711 0)
(0 0.0565711 0)
(0 0.0565711 0)
(0 0.0565711 0)
(0 0.0565711 0)
(0 0.0565711 0)
(0 0.0565711 0)
(0 0.0565711 0)
(0 0.0565711 0)
(0 0.0565711 0)
(0 0.0565711 0)
(0 0.0565711 0)
(0 0.0565711 0)
(0 0.0565711 0)
(0 0.0565711 0)
(0 0.0565711 0)
(0 0.0565711 0)
(0 0.0565711 0)
(0 0.0565711 0)
(0 0.0565711 0)
(0 0.0565711 0)
(0 0.0565711 0)
(0 0.0565711 0)
(0 0.0565711 0)
(0 0.0565711 0)
(0 0.0565711 0)
(0 0.0565711 0)
(0 0.0565711 0)
(0 0.0565711 0)
(0 0.0565711 0)
(0 0.0565711 0)
(0 0.0565711 0)
(0 0.0565711 0)
(0 0.0565711 0)
(0 0.0565711 0)
(0 0.0565711 0)
(0 0.0565711 0)
(0 0.00187652 0)
(0 0.0565711 0)
(0 0.0565711 0)
(0 0.0565711 0)
(0 0.00216038 0)
(0 0.056571 0)
(0 0.00151584 0)
(0 0.000938847 0)
(0 0.00040279 0)
(0 0.00322723 0)
(0 0.000665148 0)
(0 0.00109638 0)
(0 0.0565711 0)
(0 0.00307009 0)
(0 0.000444907 0)
(0 0.00345874 0)
(0 0.000445986 0)
(0 0.00395713 0)
(0 0.0565711 0)
(0 0.000390295 0)
(0 0.000414801 0)
(0 0.000262075 0)
(0 0.000256106 0)
(0 0.000208421 0)
(0 0.00172611 0)
(0 0.000714624 0)
(0 0.0565711 0)
(0 0.0565711 0)
(0 0.0565711 0)
(0 0.000175572 0)
(0 0.000118299 0)
(0 0.00299665 0)
(0 0.00319205 0)
(0 0.00318591 0)
(0 0.00400015 0)
(0 0.00214393 0)
(0 0.00151502 0)
(0 0.000971007 0)
(0 0.000496716 0)
(0 0.000652305 0)
(0 0.000396305 0)
(0 0.000333812 0)
(0 0.00013474 0)
(0 0.0565711 0)
(0 0.0565711 0)
(0 7.1025e-05 0)
(0 6.81931e-05 0)
(0 0.00441976 0)
(0 0.00252302 0)
(0 0.00211299 0)
(0 0.00183258 0)
(0 0.0015086 0)
(0 0.00132509 0)
(0 0.000588896 0)
(0 0.000795461 0)
(0 0.00102906 0)
(0 0.000214019 0)
(0 0.000771506 0)
(0 0.000359635 0)
(0 0.000238174 0)
(0 0.000211858 0)
(0 0.000173091 0)
(0 0.000315104 0)
(0 3.42469e-05 0)
(0 0.0531271 0)
(0 0.052937 0)
(0 0.0532224 0)
(0 0.0530254 0)
(0 0.0533037 0)
(0 0.0530993 0)
(0 0.0533703 0)
(0 0.0531597 0)
(0 0.0534264 0)
(0 0.0532063 0)
(0 0.0534672 0)
(0 0.0532382 0)
(0 0.0534941 0)
(0 0.0532567 0)
(0 0.0535096 0)
(0 0.0532646 0)
(0 0.0535109 0)
(0 0.0532671 0)
(0 0.0534941 0)
(0 0.0532432 0)
(0 0.0534624 0)
(0 0.0531794 0)
(0 0.053413 0)
(0 0.0531055 0)
(0 0.0533435 0)
(0 0.0530287 0)
(0 0.0532477 0)
(0 0.0529329 0)
(0 0.0531565 0)
(0 0.0528295 0)
(0 0.0530644 0)
(0 0.0527152 0)
(0 0.0529352 0)
(0 0.0525676 0)
(0 0.0527755 0)
(0 0.052344 0)
(0 0.0521733 0)
(0 0.0519437 0)
(0 0.0165853 0)
(0 0.0160606 0)
(0 0.0517562 0)
(0 0.0515172 0)
(0 0.0161961 0)
(0 0.0156948 0)
(0 0.0513128 0)
(0 0.051063 0)
(0 0.0158267 0)
(0 0.015323 0)
(0 0.0154591 0)
(0 0.0149502 0)
(0 0.0508384 0)
(0 0.0505821 0)
(0 0.015065 0)
(0 0.0145709 0)
(0 0.0503336 0)
(0 0.0500663 0)
(0 0.0146592 0)
(0 0.0141802 0)
(0 0.0140862 0)
(0 0.0497921 0)
(0 0.0495083 0)
(0 0.0500876 0)
(0 0.0142469 0)
(0 0.0137814 0)
(0 0.0492047 0)
(0 0.0489102 0)
(0 0.0138332 0)
(0 0.0142713 0)
(0 0.0133768 0)
(0 0.0537174 0)
(0 0.0531397 0)
(0 0.0529781 0)
(0 0.0533317 0)
(0 0.0531877 0)
(0 0.0535093 0)
(0 0.0533599 0)
(0 0.0536666 0)
(0 0.0535009 0)
(0 0.053811 0)
(0 0.0536436 0)
(0 0.0539442 0)
(0 0.0537707 0)
(0 0.0540682 0)
(0 0.0538845 0)
(0 0.0541744 0)
(0 0.0539892 0)
(0 0.0542646 0)
(0 0.0540852 0)
(0 0.0543499 0)
(0 0.054169 0)
(0 0.054424 0)
(0 0.05424 0)
(0 0.054488 0)
(0 0.0543017 0)
(0 0.0540372 0)
(0 0.0540961 0)
(0 0.0543594 0)
(0 0.0541536 0)
(0 0.0544055 0)
(0 0.0541947 0)
(0 0.054439 0)
(0 0.054228 0)
(0 0.0544701 0)
(0 0.0542423 0)
(0 0.0544853 0)
(0 0.054258 0)
(0 0.0544881 0)
(0 0.0542933 0)
(0 0.0545025 0)
(0 0.0543059 0)
(0 0.0545136 0)
(0 0.0542998 0)
(0 0.0545059 0)
(0 0.054285 0)
(0 0.0544888 0)
(0 0.0542666 0)
(0 0.0544733 0)
(0 0.054246 0)
(0 0.0544566 0)
(0 0.0542227 0)
(0 0.0544327 0)
(0 0.0541948 0)
(0 0.0544043 0)
(0 0.0541642 0)
(0 0.0538152 0)
(0 0.0540609 0)
(0 0.0539918 0)
(0 0.0542285 0)
(0 0.0134134 0)
(0 0.012966 0)
(0 0.0485765 0)
(0 0.0482798 0)
(0 0.0546438 0)
(0 0.0129862 0)
(0 0.0125485 0)
(0 0.0479119 0)
(0 0.047615 0)
(0 0.0125515 0)
(0 0.0121261 0)
(0 0.0121134 0)
(0 0.0472154 0)
(0 0.046915 0)
(0 0.0121096 0)
(0 0.0116996 0)
(0 0.0547368 0)
(0 0.0464914 0)
(0 0.0461788 0)
(0 0.0467537 0)
(0 0.0546576 0)
(0 0.0116641 0)
(0 0.0120325 0)
(0 0.0112709 0)
(0 0.045728 0)
(0 0.0454071 0)
(0 0.0112237 0)
(0 0.0108412 0)
(0 0.0107846 0)
(0 0.010411 0)
(0 0.0449275 0)
(0 0.0446008 0)
(0 0.0103488 0)
(0 0.00998089 0)
(0 0.0100329 0)
(0 0.0440872 0)
(0 0.0437518 0)
(0 0.00961515 0)
(0 0.00966375 0)
(0 0.0095509 0)
(0 0.0432114 0)
(0 0.0428846 0)
(0 0.0433819 0)
(0 0.04254 0)
(0 0.0430248 0)
(0 0.0421871 0)
(0 0.0426786 0)
(0 0.0418122 0)
(0 0.0412849 0)
(0 0.0409111 0)
(0 0.0414142 0)
(0 0.040539 0)
(0 0.00919525 0)
(0 0.00912408 0)
(0 0.0399702 0)
(0 0.0396039 0)
(0 0.0401725 0)
(0 0.0392303 0)
(0 0.0530326 0)
(0 0.0087913 0)
(0 0.00870111 0)
(0 0.0397865 0)
(0 0.0388402 0)
(0 0.0382513 0)
(0 0.0378656 0)
(0 0.0384438 0)
(0 0.0374663 0)
(0 0.0380291 0)
(0 0.0370493 0)
(0 0.037585 0)
(0 0.0366155 0)
(0 0.0371327 0)
(0 0.0361721 0)
(0 0.0356213 0)
(0 0.0351876 0)
(0 0.0486065 0)
(0 0.00835199 0)
(0 0.00827785 0)
(0 0.0357234 0)
(0 0.0347479 0)
(0 0.0341777 0)
(0 0.0337464 0)
(0 0.0343024 0)
(0 0.0333095 0)
(0 0.0338492 0)
(0 0.0328659 0)
(0 0.0079413 0)
(0 0.0078592 0)
(0 0.00821219 0)
(0 0.0322945 0)
(0 0.0318634 0)
(0 0.0324173 0)
(0 0.0314267 0)
(0 0.0319624 0)
(0 0.030981 0)
(0 0.031499 0)
(0 0.0305273 0)
(0 0.0310274 0)
(0 0.0300679 0)
(0 0.0295391 0)
(0 0.0290923 0)
(0 0.0296061 0)
(0 0.0286453 0)
(0 0.00753314 0)
(0 0.00764009 0)
(0 0.00744057 0)
(0 0.0281002 0)
(0 0.0276687 0)
(0 0.028196 0)
(0 0.0272337 0)
(0 0.0277416 0)
(0 0.0267925 0)
(0 0.0272912 0)
(0 0.0263472 0)
(0 0.0258338 0)
(0 0.0254039 0)
(0 0.0258945 0)
(0 0.02497 0)
(0 0.0254358 0)
(0 0.0245343 0)
(0 0.0240369 0)
(0 0.0236228 0)
(0 0.0240987 0)
(0 0.0232065 0)
(0 0.0236564 0)
(0 0.0227866 0)
(0 0.00712382 0)
(0 0.00702685 0)
(0 0.0223085 0)
(0 0.0219115 0)
(0 0.0223683 0)
(0 0.0215115 0)
(0 0.0219491 0)
(0 0.0211089 0)
(0 0.0215277 0)
(0 0.0207059 0)
(0 0.0202641 0)
(0 0.0198795 0)
(0 0.0203025 0)
(0 0.0194929 0)
(0 0.0198949 0)
(0 0.0191039 0)
(0 0.0186836 0)
(0 0.0183136 0)
(0 0.053711 0)
(0 0.0563422 0)
(0 0.0563025 0)
(0 0.0563248 0)
(0 0.0562831 0)
(0 0.0563047 0)
(0 0.0562553 0)
(0 0.0562816 0)
(0 0.0562342 0)
(0 0.0562573 0)
(0 0.0562071 0)
(0 0.0562307 0)
(0 0.0562786 0)
(0 0.0562527 0)
(0 0.0562984 0)
(0 0.0562699 0)
(0 0.0563159 0)
(0 0.0562848 0)
(0 0.0563285 0)
(0 0.0562969 0)
(0 0.0563371 0)
(0 0.0563042 0)
(0 0.0563441 0)
(0 0.0563099 0)
(0 0.056349 0)
(0 0.0562666 0)
(0 0.0561824 0)
(0 0.056313 0)
(0 0.0563512 0)
(0 0.00672861 0)
(0 0.00661856 0)
(0 0.056179 0)
(0 0.0380677 0)
(0 0.0178741 0)
(0 0.0175236 0)
(0 0.0435253 0)
(0 0.0194853 0)
(0 0.0563145 0)
(0 0.0563508 0)
(0 0.0312589 0)
(0 0.0372415 0)
(0 0.00633959 0)
(0 0.00621412 0)
(0 0.0065116 0)
(0 0.0426099 0)
(0 0.0429048 0)
(0 0.0419488 0)
(0 0.0422294 0)
(0 0.0412267 0)
(0 0.041497 0)
(0 0.0404412 0)
(0 0.0406889 0)
(0 0.0395821 0)
(0 0.0397995 0)
(0 0.0563787 0)
(0 0.0563122 0)
(0 0.0563475 0)
(0 0.0170649 0)
(0 0.0167343 0)
(0 0.05357 0)
(0 0.031972 0)
(0 0.0386357 0)
(0 0.038837 0)
(0 0.0400113 0)
(0 0.0390259 0)
(0 0.0401963 0)
(0 0.0391902 0)
(0 0.04036 0)
(0 0.0393363 0)
(0 0.0405071 0)
(0 0.0394639 0)
(0 0.0406325 0)
(0 0.0395657 0)
(0 0.0407342 0)
(0 0.0396397 0)
(0 0.0408147 0)
(0 0.039693 0)
(0 0.0408686 0)
(0 0.0397221 0)
(0 0.0408969 0)
(0 0.0397256 0)
(0 0.040901 0)
(0 0.0397029 0)
(0 0.0408802 0)
(0 0.0396568 0)
(0 0.0408332 0)
(0 0.00594068 0)
(0 0.00608481 0)
(0 0.00581079 0)
(0 0.0395896 0)
(0 0.0407634 0)
(0 0.0563057 0)
(0 0.0563409 0)
(0 0.0562676 0)
(0 0.0394992 0)
(0 0.04067 0)
(0 0.0162577 0)
(0 0.0159475 0)
(0 0.0164025 0)
(0 0.015635 0)
(0 0.039387 0)
(0 0.0405504 0)
(0 0.0055482 0)
(0 0.00541339 0)
(0 0.0376178 0)
(0 0.0562973 0)
(0 0.0563313 0)
(0 0.0392391 0)
(0 0.040402 0)
(0 0.0418555 0)
(0 0.0160686 0)
(0 0.0153185 0)
(0 0.0148708 0)
(0 0.0145726 0)
(0 0.0390597 0)
(0 0.0402312 0)
(0 0.0563658 0)
(0 0.0419768 0)
(0 0.0141115 0)
(0 0.0138351 0)
(0 0.0388638 0)
(0 0.0400427 0)
(0 0.0413486 0)
(0 0.0411726 0)
(0 0.0398387 0)
(0 0.0410001 0)
(0 0.0396183 0)
(0 0.0407867 0)
(0 0.039371 0)
(0 0.0405432 0)
(0 0.0562862 0)
(0 0.0563194 0)
(0 0.0563595 0)
(0 0.0563487 0)
(0 0.0563054 0)
(0 0.0563343 0)
(0 0.0563759 0)
(0 0.0563604 0)
(0 0.0563165 0)
(0 0.0563408 0)
(0 0.0563824 0)
(0 0.0563628 0)
(0 0.0564001 0)
(0 0.0563823 0)
(0 0.056416 0)
(0 0.0563993 0)
(0 0.0564288 0)
(0 0.0564133 0)
(0 0.0564403 0)
(0 0.0564251 0)
(0 0.0564516 0)
(0 0.0564352 0)
(0 0.05646 0)
(0 0.0564437 0)
(0 0.0564663 0)
(0 0.0564508 0)
(0 0.056472 0)
(0 0.0564564 0)
(0 0.0564771 0)
(0 0.0564619 0)
(0 0.0564813 0)
(0 0.0564671 0)
(0 0.056485 0)
(0 0.0564712 0)
(0 0.0564883 0)
(0 0.0564749 0)
(0 0.0564913 0)
(0 0.0564784 0)
(0 0.056494 0)
(0 0.0564811 0)
(0 0.0564959 0)
(0 0.0564834 0)
(0 0.0564974 0)
(0 0.0564851 0)
(0 0.0564989 0)
(0 0.0564865 0)
(0 0.0564697 0)
(0 0.0564569 0)
(0 0.0564268 0)
(0 0.0563832 0)
(0 0.056295 0)
(0 0.0565111 0)
(0 0.0565058 0)
(0 0.039096 0)
(0 0.0402537 0)
(0 0.0419408 0)
(0 0.0382261 0)
(0 0.00516717 0)
(0 0.00503121 0)
(0 0.0387905 0)
(0 0.039936 0)
(0 0.0149893 0)
(0 0.0160222 0)
(0 0.0384606 0)
(0 0.0396208 0)
(0 0.0564946 0)
(0 0.0133583 0)
(0 0.0131035 0)
(0 0.00479575 0)
(0 0.00465855 0)
(0 0.00487084 0)
(0 0.038464 0)
(0 0.0564474 0)
(0 0.0563851 0)
(0 0.00443414 0)
(0 0.0045533 0)
(0 0.0126121 0)
(0 0.0123774 0)
(0 0.00429361 0)
(0 0.0383353 0)
(0 0.0529363 0)
(0 0.0118737 0)
(0 0.0116598 0)
(0 0.0120842 0)
(0 0.0121395 0)
(0 0.0114418 0)
(0 0.0118983 0)
(0 0.0112195 0)
(0 0.00408239 0)
(0 0.00394103 0)
(0 0.0116536 0)
(0 0.0109934 0)
(0 0.0105497 0)
(0 0.0103427 0)
(0 0.0374328 0)
(0 0.0363511 0)
(0 0.0361856 0)
(0 0.035035 0)
(0 0.0348761 0)
(0 0.0336577 0)
(0 0.0335059 0)
(0 0.0378316 0)
(0 0.0508154 0)
(0 0.0546615 0)
(0 0.0322376 0)
(0 0.0320984 0)
(0 0.00988966 0)
(0 0.0097018 0)
(0 0.0101321 0)
(0 0.00951002 0)
(0 0.037897 0)
(0 0.00374187 0)
(0 0.00360082 0)
(0 0.00907149 0)
(0 0.00889824 0)
(0 0.0165661 0)
(0 0.030787 0)
(0 0.0306618 0)
(0 0.0309106 0)
(0 0.0113331 0)
(0 0.0115173 0)
(0 0.00991901 0)
(0 0.00341195 0)
(0 0.00327343 0)
(0 0.00343255 0)
(0 0.00845235 0)
(0 0.00829722 0)
(0 0.0292885 0)
(0 0.0291868 0)
(0 0.0535132 0)
(0 0.0107543 0)
(0 0.0109099 0)
(0 0.00309436 0)
(0 0.00322369 0)
(0 0.00295103 0)
(0 0.00784503 0)
(0 0.00770767 0)
(0 0.0457105 0)
(0 0.0453337 0)
(0 0.0458858 0)
(0 0.0454969 0)
(0 0.0460394 0)
(0 0.0456412 0)
(0 0.0462428 0)
(0 0.0457627 0)
(0 0.0463031 0)
(0 0.0458379 0)
(0 0.0463626 0)
(0 0.0458911 0)
(0 0.0453091 0)
(0 0.0464016 0)
(0 0.0459193 0)
(0 0.0464168 0)
(0 0.0459046 0)
(0 0.0464042 0)
(0 0.046922 0)
(0 0.0458656 0)
(0 0.0469027 0)
(0 0.0474136 0)
(0 0.0473854 0)
(0 0.0478882 0)
(0 0.0277486 0)
(0 0.0276749 0)
(0 0.0538128 0)
(0 0.0564807 0)
(0 0.041606 0)
(0 0.00275756 0)
(0 0.00264146 0)
(0 0.0101367 0)
(0 0.010263 0)
(0 0.00725055 0)
(0 0.0071308 0)
(0 0.0075649 0)
(0 0.00700459 0)
(0 0.00736395 0)
(0 0.0074163 0)
(0 0.00687224 0)
(0 0.00645733 0)
(0 0.00634124 0)
(0 0.0465863 0)
(0 0.00726215 0)
(0 0.0559696 0)
(0 0.0558883 0)
(0 0.0559599 0)
(0 0.0478521 0)
(0 0.0483464 0)
(0 0.0223346 0)
(0 0.0282293 0)
(0 0.0107067 0)
(0 0.0151755 0)
(0 0.0214077 0)
(0 0.0473365 0)
(0 0.0278925 0)
(0 0.0230507 0)
(0 0.0207806 0)
(0 0.0270943 0)
(0 0.0424204 0)
(0 0.0261758 0)
(0 0.0261314 0)
(0 0.0275815 0)
(0 0.026068 0)
(0 0.0274743 0)
(0 0.0259868 0)
(0 0.0273486 0)
(0 0.025879 0)
(0 0.0272023 0)
(0 0.0257484 0)
(0 0.0243755 0)
(0 0.0242673 0)
(0 0.0256146 0)
(0 0.0241577 0)
(0 0.0261986 0)
(0 0.0531506 0)
(0 0.0245648 0)
(0 0.0453666 0)
(0 0.0452982 0)
(0 0.0447869 0)
(0 0.0446962 0)
(0 0.0441723 0)
(0 0.00574923 0)
(0 0.00615661 0)
(0 0.00586646 0)
(0 0.00546162 0)
(0 0.00557116 0)
(0 0.00597324 0)
(0 0.00567032 0)
(0 0.00527139 0)
(0 0.00536367 0)
(0 0.00606863 0)
(0 0.00496753 0)
(0 0.00505379 0)
(0 0.00466023 0)
(0 0.00474129 0)
(0 0.00512951 0)
(0 0.00481177 0)
(0 0.00456935 0)
(0 0.00519386 0)
(0 0.00487108 0)
(0 0.00247077 0)
(0 0.00449288 0)
(0 0.00454792 0)
(0 0.00235167 0)
(0 0.00248429 0)
(0 0.022758 0)
(0 0.022679 0)
(0 0.0240359 0)
(0 0.0225863 0)
(0 0.0539395 0)
(0 0.0368807 0)
(0 0.0540745 0)
(0 0.0539488 0)
(0 0.0528177 0)
(0 0.0558767 0)
(0 0.0559493 0)
(0 0.00592363 0)
(0 0.00582362 0)
(0 0.0527259 0)
(0 0.00947974 0)
(0 0.00958052 0)
(0 0.056026 0)
(0 0.0560154 0)
(0 0.0559378 0)
(0 0.0560038 0)
(0 0.0559249 0)
(0 0.0559922 0)
(0 0.055909 0)
(0 0.0559774 0)
(0 0.0558881 0)
(0 0.0559589 0)
(0 0.0562328 0)
(0 0.0238994 0)
(0 0.022478 0)
(0 0.0483024 0)
(0 0.0487877 0)
(0 0.0211236 0)
(0 0.021046 0)
(0 0.0223592 0)
(0 0.0209517 0)
(0 0.0222267 0)
(0 0.0208423 0)
(0 0.0220857 0)
(0 0.0207247 0)
(0 0.0194493 0)
(0 0.0193618 0)
(0 0.0205982 0)
(0 0.0192626 0)
(0 0.0558655 0)
(0 0.0559381 0)
(0 0.00524616 0)
(0 0.00220157 0)
(0 0.00231296 0)
(0 0.0103811 0)
(0 0.00967315 0)
(0 0.01049 0)
(0 0.00975084 0)
(0 0.0105941 0)
(0 0.00981626 0)
(0 0.0106918 0)
(0 0.00417352 0)
(0 0.00422507 0)
(0 0.00987129 0)
(0 0.0107764 0)
(0 0.0204583 0)
(0 0.0191482 0)
(0 0.0179401 0)
(0 0.0178389 0)
(0 0.0190223 0)
(0 0.0177402 0)
(0 0.018885 0)
(0 0.0176323 0)
(0 0.0187356 0)
(0 0.0175118 0)
(0 0.0163798 0)
(0 0.0162899 0)
(0 0.0173816 0)
(0 0.016189 0)
(0 0.0172412 0)
(0 0.0160766 0)
(0 0.00207308 0)
(0 0.0150041 0)
(0 0.0149192 0)
(0 0.0159537 0)
(0 0.014823 0)
(0 0.0440683 0)
(0 0.0435393 0)
(0 0.0450916 0)
(0 0.00991725 0)
(0 0.00540439 0)
(0 0.00532014 0)
(0 0.00571669 0)
(0 0.00522818 0)
(0 0.0056025 0)
(0 0.00512872 0)
(0 0.0487337 0)
(0 0.00475437 0)
(0 0.00466932 0)
(0 0.0535546 0)
(0 0.0492122 0)
(0 0.0492517 0)
(0 0.0554449 0)
(0 0.0553052 0)
(0 0.0553801 0)
(0 0.0552365 0)
(0 0.0553112 0)
(0 0.0560859 0)
(0 0.0196554 0)
(0 0.0565559 0)
(0 0.0565495 0)
(0 0.0565531 0)
(0 0.056547 0)
(0 0.0565507 0)
(0 0.0565443 0)
(0 0.0565483 0)
(0 0.056541 0)
(0 0.0565454 0)
(0 0.0565369 0)
(0 0.0565414 0)
(0 0.0565492 0)
(0 0.0565453 0)
(0 0.0565522 0)
(0 0.0565485 0)
(0 0.0565321 0)
(0 0.0565547 0)
(0 0.0565513 0)
(0 0.0565443 0)
(0 0.0565471 0)
(0 0.0565544 0)
(0 0.0565495 0)
(0 0.0565419 0)
(0 0.0565444 0)
(0 0.0565514 0)
(0 0.0565465 0)
(0 0.056553 0)
(0 0.056548 0)
(0 0.0565542 0)
(0 0.0565489 0)
(0 0.0565548 0)
(0 0.0565491 0)
(0 0.0565548 0)
(0 0.0565488 0)
(0 0.0565542 0)
(0 0.0565366 0)
(0 0.0565554 0)
(0 0.0565481 0)
(0 0.056553 0)
(0 0.056542 0)
(0 0.0565417 0)
(0 0.0565358 0)
(0 0.0558387 0)
(0 0.0559139 0)
(0 0.0158143 0)
(0 0.0137682 0)
(0 0.00879496 0)
(0 0.00385448 0)
(0 0.00390326 0)
(0 0.00426558 0)
(0 0.00394124 0)
(0 0.0332736 0)
(0 0.0551565 0)
(0 0.00194244 0)
(0 0.00181245 0)
(0 0.0165809 0)
(0 0.0560639 0)
(0 0.0558427 0)
(0 0.0558114 0)
(0 0.0558877 0)
(0 0.04915 0)
(0 0.0486532 0)
(0 0.00548146 0)
(0 0.0550824 0)
(0 0.00429444 0)
(0 0.00396783 0)
(0 0.00361938 0)
(0 0.00364457 0)
(0 0.0565465 0)
(0 0.056551 0)
(0 0.0557852 0)
(0 0.0558579 0)
(0 0.0557532 0)
(0 0.055823 0)
(0 0.049665 0)
(0 0.0496902 0)
(0 0.0468322 0)
(0 0.00429562 0)
(0 0.00422486 0)
(0 0.0137003 0)
(0 0.0126224 0)
(0 0.0434188 0)
(0 0.0428901 0)
(0 0.0430086 0)
(0 0.0423536 0)
(0 0.0424655 0)
(0 0.0418078 0)
(0 0.0419144 0)
(0 0.0412475 0)
(0 0.0413517 0)
(0 0.0406953 0)
(0 0.0407655 0)
(0 0.0401321 0)
(0 0.0401667 0)
(0 0.0395204 0)
(0 0.0395617 0)
(0 0.0389033 0)
(0 0.0389497 0)
(0 0.0382949 0)
(0 0.0439398 0)
(0 0.0383287 0)
(0 0.0376771 0)
(0 0.0388165 0)
(0 0.0376995 0)
(0 0.0370524 0)
(0 0.0370044 0)
(0 0.0363833 0)
(0 0.0364213 0)
(0 0.0357563 0)
(0 0.0408143 0)
(0 0.0405111 0)
(0 0.0357836 0)
(0 0.0351232 0)
(0 0.0350755 0)
(0 0.0344468 0)
(0 0.0344863 0)
(0 0.0338182 0)
(0 0.0338468 0)
(0 0.0331873 0)
(0 0.0332052 0)
(0 0.0325488 0)
(0 0.0325579 0)
(0 0.031907 0)
(0 0.0318775 0)
(0 0.0312427 0)
(0 0.0312686 0)
(0 0.0306109 0)
(0 0.0305601 0)
(0 0.0299354 0)
(0 0.0337555 0)
(0 0.0299818 0)
(0 0.0293145 0)
(0 0.0292435 0)
(0 0.0286336 0)
(0 0.0286936 0)
(0 0.0280245 0)
(0 0.0280718 0)
(0 0.0274158 0)
(0 0.0274516 0)
(0 0.0268085 0)
(0 0.0268335 0)
(0 0.0262028 0)
(0 0.0262175 0)
(0 0.0255997 0)
(0 0.00871049 0)
(0 0.0286287 0)
(0 0.00802116 0)
(0 0.0554474 0)
(0 0.0553775 0)
(0 0.00330069 0)
(0 0.00332522 0)
(0 0.0557138 0)
(0 0.0557838 0)
(0 0.054996 0)
(0 0.020256 0)
(0 0.0198282 0)
(0 0.0205783 0)
(0 0.020133 0)
(0 0.0208623 0)
(0 0.0204003 0)
(0 0.0560025 0)
(0 0.00426407 0)
(0 0.00416856 0)
(0 0.00386467 0)
(0 0.00376476 0)
(0 0.00548121 0)
(0 0.0049611 0)
(0 0.00501344 0)
(0 0.027346 0)
(0 0.00900154 0)
(0 0.00168829 0)
(0 0.00156725 0)
(0 0.00166777 0)
(0 0.0234468 0)
(0 0.0565571 0)
(0 0.0565551 0)
(0 0.0565477 0)
(0 0.0565529 0)
(0 0.0565583 0)
(0 0.0565559 0)
(0 0.0565606 0)
(0 0.0565583 0)
(0 0.0565622 0)
(0 0.0565601 0)
(0 0.0565634 0)
(0 0.0565615 0)
(0 0.0565645 0)
(0 0.0565627 0)
(0 0.0565653 0)
(0 0.0565636 0)
(0 0.0565605 0)
(0 0.0565616 0)
(0 0.0565644 0)
(0 0.0565625 0)
(0 0.056565 0)
(0 0.0565632 0)
(0 0.0565656 0)
(0 0.0565639 0)
(0 0.056566 0)
(0 0.0565645 0)
(0 0.0565664 0)
(0 0.056565 0)
(0 0.0565668 0)
(0 0.0565653 0)
(0 0.056567 0)
(0 0.0565656 0)
(0 0.0565673 0)
(0 0.056566 0)
(0 0.0565675 0)
(0 0.0565663 0)
(0 0.0565677 0)
(0 0.0565665 0)
(0 0.0565648 0)
(0 0.0565651 0)
(0 0.0565668 0)
(0 0.0565654 0)
(0 0.056567 0)
(0 0.0565656 0)
(0 0.0565672 0)
(0 0.0565659 0)
(0 0.0565632 0)
(0 0.0565635 0)
(0 0.0565621 0)
(0 0.056558 0)
(0 0.0565504 0)
(0 0.00795604 0)
(0 0.0555049 0)
(0 0.0554361 0)
(0 0.0552996 0)
(0 0.055358 0)
(0 0.05549 0)
(0 0.0554095 0)
(0 0.0555378 0)
(0 0.0554539 0)
(0 0.0555782 0)
(0 0.0554916 0)
(0 0.0556122 0)
(0 0.0555218 0)
(0 0.0556395 0)
(0 0.0555458 0)
(0 0.0554193 0)
(0 0.0554401 0)
(0 0.0555634 0)
(0 0.0554547 0)
(0 0.055575 0)
(0 0.0554628 0)
(0 0.0555812 0)
(0 0.0554637 0)
(0 0.0555793 0)
(0 0.0553442 0)
(0 0.0553207 0)
(0 0.055306 0)
(0 0.0554575 0)
(0 0.055569 0)
(0 0.0255607 0)
(0 0.0249745 0)
(0 0.0249997 0)
(0 0.0243933 0)
(0 0.0498468 0)
(0 0.055443 0)
(0 0.0555518 0)
(0 0.00431108 0)
(0 0.0502795 0)
(0 0.0565583 0)
(0 0.0557985 0)
(0 0.05009 0)
(0 0.0424994 0)
(0 0.0490615 0)
(0 0.0485455 0)
(0 0.0432658 0)
(0 0.0437762 0)
(0 0.0565681 0)
(0 0.0199604 0)
(0 0.0125879 0)
(0 0.0549162 0)
(0 0.00385261 0)
(0 0.00379592 0)
(0 0.00414606 0)
(0 0.0037304 0)
(0 0.055921 0)
(0 0.0565673 0)
(0 0.0548233 0)
(0 0.0244029 0)
(0 0.0238032 0)
(0 0.00725966 0)
(0 0.00721828 0)
(0 0.0114879 0)
(0 0.0114854 0)
(0 0.0033827 0)
(0 0.00333042 0)
(0 0.00365636 0)
(0 0.003269 0)
(0 0.00144076 0)
(0 0.00154901 0)
(0 0.0554204 0)
(0 0.0555284 0)
(0 0.0553041 0)
(0 0.0556518 0)
(0 0.0556273 0)
(0 0.0554989 0)
(0 0.0555967 0)
(0 0.0565686 0)
(0 0.018621 0)
(0 0.00346162 0)
(0 0.00335778 0)
(0 0.00449326 0)
(0 0.00452013 0)
(0 0.0402043 0)
(0 0.0196889 0)
(0 0.0199399 0)
(0 0.0192455 0)
(0 0.0194808 0)
(0 0.0188024 0)
(0 0.0190224 0)
(0 0.0183602 0)
(0 0.0185648 0)
(0 0.0179189 0)
(0 0.0181083 0)
(0 0.017479 0)
(0 0.017654 0)
(0 0.0170418 0)
(0 0.0182649 0)
(0 0.0177972 0)
(0 0.0183892 0)
(0 0.0179092 0)
(0 0.0184822 0)
(0 0.0189776 0)
(0 0.0190508 0)
(0 0.0185446 0)
(0 0.0107529 0)
(0 0.0103118 0)
(0 0.0104372 0)
(0 0.00995216 0)
(0 0.0101141 0)
(0 0.00967328 0)
(0 0.0098005 0)
(0 0.00937444 0)
(0 0.00947653 0)
(0 0.00905695 0)
(0 0.009145 0)
(0 0.002986 0)
(0 0.0030106 0)
(0 0.00295053 0)
(0 0.00333825 0)
(0 0.00302374 0)
(0 0.00132272 0)
(0 0.0515466 0)
(0 0.0556691 0)
(0 0.0557411 0)
(0 0.0556808 0)
(0 0.0499871 0)
(0 0.0504107 0)
(0 0.0495504 0)
(0 0.0238091 0)
(0 0.0556715 0)
(0 0.0190929 0)
(0 0.0557176 0)
(0 0.0557527 0)
(0 0.0430767 0)
(0 0.043577 0)
(0 0.011485 0)
(0 0.0125337 0)
(0 0.0389671 0)
(0 0.056564 0)
(0 0.00365703 0)
(0 0.00324668 0)
(0 0.0035415 0)
(0 0.00312869 0)
(0 0.00341999 0)
(0 0.00651368 0)
(0 0.00649827 0)
(0 0.00658276 0)
(0 0.0185766 0)
(0 0.00270155 0)
(0 0.0027159 0)
(0 0.00302503 0)
(0 0.00271862 0)
(0 0.0112053 0)
(0 0.0554608 0)
(0 0.0232237 0)
(0 0.0232135 0)
(0 0.0249151 0)
(0 0.016849 0)
(0 0.0164282 0)
(0 0.0087259 0)
(0 0.00880969 0)
(0 0.0162182 0)
(0 0.015814 0)
(0 0.0160093 0)
(0 0.0154112 0)
(0 0.0155921 0)
(0 0.0150096 0)
(0 0.0148133 0)
(0 0.0144277 0)
(0 0.0146098 0)
(0 0.0140438 0)
(0 0.0138469 0)
(0 0.0134791 0)
(0 0.0132675 0)
(0 0.0129164 0)
(0 0.0142121 0)
(0 0.00294662 0)
(0 0.0028975 0)
(0 0.011587 0)
(0 0.00121325 0)
(0 0.0280846 0)
(0 0.0103654 0)
(0 0.0565667 0)
(0 0.033848 0)
(0 0.011703 0)
(0 0.0103934 0)
(0 0.049682 0)
(0 0.0489475 0)
(0 0.0494555 0)
(0 0.0484126 0)
(0 0.0254269 0)
(0 0.0556191 0)
(0 0.00110582 0)
(0 0.0556856 0)
(0 0.0557996 0)
(0 0.055689 0)
(0 0.0547384 0)
(0 0.0546389 0)
(0 0.00956561 0)
(0 0.0123202 0)
(0 0.00780243 0)
(0 0.0076271 0)
(0 0.00816284 0)
(0 0.00796732 0)
(0 0.00849781 0)
(0 0.00828323 0)
(0 0.00880777 0)
(0 0.00857515 0)
(0 0.00909282 0)
(0 0.00806561 0)
(0 0.0434846 0)
(0 0.00357375 0)
(0 0.00305491 0)
(0 0.012689 0)
(0 0.0123601 0)
(0 0.00241537 0)
(0 0.00242015 0)
(0 0.00838022 0)
(0 0.00846157 0)
(0 0.0351965 0)
(0 0.0493351 0)
(0 0.0498333 0)
(0 0.0157401 0)
(0 0.0160247 0)
(0 0.0191053 0)
(0 0.00400061 0)
(0 0.00400122 0)
(0 0.0428528 0)
(0 0.0423525 0)
(0 0.0433448 0)
(0 0.0440635 0)
(0 0.0185785 0)
(0 0.0180653 0)
(0 0.00829568 0)
(0 0.00257917 0)
(0 0.00254219 0)
(0 0.0501026 0)
(0 0.0504902 0)
(0 0.00577919 0)
(0 0.00579643 0)
(0 0.012569 0)
(0 0.0120422 0)
(0 0.0497153 0)
(0 0.00884333 0)
(0 0.00804367 0)
(0 0.00811209 0)
(0 0.00771455 0)
(0 0.00776522 0)
(0 0.0492361 0)
(0 0.0118197 0)
(0 0.0196437 0)
(0 0.0565577 0)
(0 0.00925412 0)
(0 0.00931435 0)
(0 0.00935296 0)
(0 0.00719056 0)
(0 0.00301413 0)
(0 0.0201564 0)
(0 0.00100815 0)
(0 0.0503381 0)
(0 0.0498723 0)
(0 0.0504788 0)
(0 0.0500147 0)
(0 0.0506062 0)
(0 0.0501434 0)
(0 0.0507247 0)
(0 0.050263 0)
(0 0.0508294 0)
(0 0.0503718 0)
(0 0.050921 0)
(0 0.0504693 0)
(0 0.0510029 0)
(0 0.050552 0)
(0 0.0510734 0)
(0 0.0506212 0)
(0 0.0500797 0)
(0 0.0501352 0)
(0 0.050681 0)
(0 0.0501689 0)
(0 0.0507255 0)
(0 0.0502147 0)
(0 0.0507252 0)
(0 0.0502385 0)
(0 0.0507185 0)
(0 0.0502515 0)
(0 0.0507449 0)
(0 0.0502608 0)
(0 0.0507657 0)
(0 0.050255 0)
(0 0.0507665 0)
(0 0.0502294 0)
(0 0.0496946 0)
(0 0.0496624 0)
(0 0.0501901 0)
(0 0.0496169 0)
(0 0.0501329 0)
(0 0.0495541 0)
(0 0.0500612 0)
(0 0.0494738 0)
(0 0.0495136 0)
(0 0.0497061 0)
(0 0.0496547 0)
(0 0.0490979 0)
(0 0.0499722 0)
(0 0.0493759 0)
(0 0.0488491 0)
(0 0.0487464 0)
(0 0.0481814 0)
(0 0.0480772 0)
(0 0.0506172 0)
(0 0.0498629 0)
(0 0.0512636 0)
(0 0.0510416 0)
(0 0.0474746 0)
(0 0.0473666 0)
(0 0.0479581 0)
(0 0.0472409 0)
(0 0.0511888 0)
(0 0.0514 0)
(0 0.0478218 0)
(0 0.0470972 0)
(0 0.0475683 0)
(0 0.0468208 0)
(0 0.0469037 0)
(0 0.00091777 0)
(0 0.00100846 0)
(0 0.00453776 0)
(0 0.00399148 0)
(0 0.00454531 0)
(0 0.00397055 0)
(0 0.0557657 0)
(0 0.0558738 0)
(0 0.0558995 0)
(0 0.0031555 0)
(0 0.00212262 0)
(0 0.00213022 0)
(0 0.00925893 0)
(0 0.0237843 0)
(0 0.0231777 0)
(0 0.0438199 0)
(0 0.044515 0)
(0 0.00274847 0)
(0 0.00284692 0)
(0 0.0425508 0)
(0 0.0504895 0)
(0 0.0508666 0)
(0 0.0508649 0)
(0 0.0479013 0)
(0 0.0226722 0)
(0 0.0231493 0)
(0 0.00271255 0)
(0 0.0512291 0)
(0 0.0512176 0)
(0 0.0512237 0)
(0 0.0555398 0)
(0 0.0554835 0)
(0 0.00737178 0)
(0 0.00741308 0)
(0 0.00779666 0)
(0 0.00743802 0)
(0 0.0421008 0)
(0 0.0416078 0)
(0 0.00464284 0)
(0 0.00464954 0)
(0 0.00498665 0)
(0 0.00498353 0)
(0 0.00532636 0)
(0 0.00464278 0)
(0 0.0022286 0)
(0 0.00220371 0)
(0 0.00249567 0)
(0 0.00216872 0)
(0 0.00224344 0)
(0 0.00908724 0)
(0 0.00958914 0)
(0 0.00454213 0)
(0 0.0039379 0)
(0 0.0190864 0)
(0 0.0185507 0)
(0 0.012221 0)
(0 0.0476694 0)
(0 0.0469376 0)
(0 0.0463299 0)
(0 0.0483552 0)
(0 0.00934045 0)
(0 0.00815896 0)
(0 0.00825172 0)
(0 0.00805077 0)
(0 0.0555595 0)
(0 0.00183845 0)
(0 0.00184973 0)
(0 0.00212632 0)
(0 0.00184972 0)
(0 0.0130268 0)
(0 0.00506385 0)
(0 0.0548321 0)
(0 0.0546494 0)
(0 0.0547409 0)
(0 0.000819186 0)
(0 0.000896219 0)
(0 0.0497072 0)
(0 0.0501952 0)
(0 0.0480024 0)
(0 0.047847 0)
(0 0.000737238 0)
(0 0.00243937 0)
(0 0.00212373 0)
(0 0.00185888 0)
(0 0.00182502 0)
(0 0.00181631 0)
(0 0.0558389 0)
(0 0.0559394 0)
(0 0.0034833 0)
(0 0.00349949 0)
(0 0.00496575 0)
(0 0.00462219 0)
(0 0.0151807 0)
(0 0.0154434 0)
(0 0.0163075 0)
(0 0.0157035 0)
(0 0.0165844 0)
(0 0.015952 0)
(0 0.0168556 0)
(0 0.0161909 0)
(0 0.0171228 0)
(0 0.0164261 0)
(0 0.0173838 0)
(0 0.00706152 0)
(0 0.00707931 0)
(0 0.0493567 0)
(0 0.00243942 0)
(0 0.0025371 0)
(0 0.00233598 0)
(0 0.0442742 0)
(0 0.0564171 0)
(0 0.0461649 0)
(0 0.0455177 0)
(0 0.0545515 0)
(0 0.0546378 0)
(0 0.0563453 0)
(0 0.0547129 0)
(0 0.048901 0)
(0 0.0237235 0)
(0 0.056466 0)
(0 0.0181253 0)
(0 0.0565596 0)
(0 0.0563795 0)
(0 0.00931031 0)
(0 0.00881535 0)
(0 0.0435421 0)
(0 0.00781124 0)
(0 0.0461116 0)
(0 0.0461867 0)
(0 0.0565004 0)
(0 0.0545138 0)
(0 0.0565683 0)
(0 0.0565085 0)
(0 0.00211042 0)
(0 0.00183783 0)
(0 0.00158412 0)
(0 0.00157693 0)
(0 0.0534772 0)
(0 0.0546833 0)
(0 0.0546928 0)
(0 0.0565665 0)
(0 0.0537801 0)
(0 0.0545991 0)
(0 0.00936141 0)
(0 0.00832309 0)
(0 0.00720813 0)
(0 0.00730622 0)
(0 0.0166577 0)
(0 0.0176422 0)
(0 0.0156822 0)
(0 0.0548591 0)
(0 0.0563804 0)
(0 0.0416485 0)
(0 0.0512532 0)
(0 0.0420064 0)
(0 0.0474287 0)
(0 0.0472508 0)
(0 0.0476607 0)
(0 0.047041 0)
(0 0.0464775 0)
(0 0.0556869 0)
(0 0.00064693 0)
(0 0.0559051 0)
(0 0.0231173 0)
(0 0.00985711 0)
(0 0.0556101 0)
(0 0.0448024 0)
(0 0.0481978 0)
(0 0.0488489 0)
(0 0.0559926 0)
(0 0.0560212 0)
(0 0.0558485 0)
(0 0.0565596 0)
(0 0.0565618 0)
(0 0.0565633 0)
(0 0.056565 0)
(0 0.0565661 0)
(0 0.0565673 0)
(0 0.056568 0)
(0 0.0565663 0)
(0 0.0565682 0)
(0 0.0565674 0)
(0 0.0565689 0)
(0 0.0565682 0)
(0 0.0565669 0)
(0 0.0565686 0)
(0 0.0565695 0)
(0 0.0565676 0)
(0 0.0565691 0)
(0 0.0565681 0)
(0 0.0565695 0)
(0 0.0565689 0)
(0 0.0120541 0)
(0 0.0126983 0)
(0 0.0504339 0)
(0 0.0503137 0)
(0 0.0508563 0)
(0 0.050729 0)
(0 0.0512419 0)
(0 0.0511076 0)
(0 0.051365 0)
(0 0.00298448 0)
(0 0.00301721 0)
(0 0.0515697 0)
(0 0.0515448 0)
(0 0.0557173 0)
(0 0.000573719 0)
(0 0.0289105 0)
(0 0.0213256 0)
(0 0.0215879 0)
(0 0.0220682 0)
(0 0.0490091 0)
(0 0.0111912 0)
(0 0.0243365 0)
(0 0.00557299 0)
(0 0.0253058 0)
(0 0.0563452 0)
(0 0.0195612 0)
(0 0.0169294 0)
(0 0.00817574 0)
(0 0.0217847 0)
(0 0.018407 0)