/*--------------------------------*- C++ -*----------------------------------*\
| =========                 |                                                 |
| \\      /  F ield         | OpenFOAM: The Open Source CFD Toolbox           |
|  \\    /   O peration     | Version:  v2012                                 |
|   \\  /    A nd           | Website:  www.openfoam.com                      |
|    \\/     M anipulation  |                                                 |
\*---------------------------------------------------------------------------*/
FoamFile
{
    version     2.0;
    format      ascii;
    class       volVectorField;
    location    "250";
    object      U;
}
// * * * * * * * * * * * * * * * * * * * * * * * * * * * * * * * * * * * * * //

dimensions      [0 1 -1 0 0 0 0];


internalField   nonuniform List<vector> 
13851
(
(1.01948 -0.00682091 -2.27242e-21)
(0.604478 0.169854 0)
(1.04478 -0.0666208 9.02788e-21)
(1.01983 -0.00654848 0)
(1.06489 -0.0510367 9.65876e-21)
(1.07289 -0.0259065 -2.70544e-22)
(1.02988 -0.00139783 -2.76023e-21)
(1.04271 -0.0459713 -6.95058e-21)
(1.01062 -0.00165387 -2.75966e-22)
(1.00141 -0.0645084 -6.87979e-23)
(0.913512 -0.00468973 0)
(0.483212 -0.182721 -3.36144e-22)
(1.01301 -0.0384225 -1.31329e-20)
(0.0915165 0.222755 0)
(1.01923 -0.000460027 -1.48227e-21)
(1.02859 -0.0278614 0)
(1.03877 -0.0212604 -8.20607e-21)
(1.02149 -0.0204089 2.80839e-22)
(1.08582 -0.0435298 9.46353e-21)
(1.01049 -0.00163288 -1.33127e-22)
(1.01969 -0.00669186 0)
(1.04791 -0.0645704 5.05448e-21)
(1.00172 -3.36261e-06 0)
(1.00453 -0.000156398 0)
(1.00123 -2.7242e-05 0)
(1.04078 -0.0467237 0)
(1.04792 -0.016302 -2.83891e-21)
(0.0218443 -0.120682 0)
(1.01936 -0.00722974 1.69628e-21)
(1.02584 -0.0167436 -5.78835e-22)
(1.07817 -0.042544 0)
(1.0391 -0.0221938 8.45189e-21)
(1.04198 -0.0653744 -4.31031e-21)
(0.952425 0.112413 0)
(1.00533 -0.000182059 -8.63474e-23)
(1.07659 -0.0523134 0)
(1.07723 -0.0565043 2.10589e-22)
(1.08209 -0.0756377 0)
(0.998752 -0.0691365 0)
(0.96986 0.0735747 0)
(1.01715 -0.00579344 5.53291e-23)
(1.00551 0.000187621 5.51787e-24)
(-0.00633481 0.0309696 -2.19783e-20)
(0.897089 -0.06485 0)
(0.890641 -0.0409322 0)
(0.0660502 0.051098 0)
(0.900255 -0.106652 -1.79476e-21)
(0.843017 0.0743727 -1.59408e-21)
(1.04877 -0.0168477 1.23585e-20)
(1.02762 -0.032021 5.58482e-23)
(1.06962 -0.0438659 -1.27601e-20)
(1.07093 -0.0465883 0)
(-0.030581 -0.114825 3.06083e-20)
(1.01894 -0.000448751 -1.58143e-21)
(1.01247 -0.000674782 1.63079e-21)
(1.00569 0.000220753 1.09538e-22)
(1.00451 -0.00016567 0)
(-0.0349144 -0.113145 -6.27403e-21)
(1.02555 -0.0162813 0)
(1.03069 -0.0037654 2.7672e-21)
(1.08197 -0.0800653 1.14312e-20)
(0.620429 0.0234255 1.00864e-20)
(0.997719 -0.0358165 2.06341e-21)
(1.06822 -0.050698 1.03566e-21)
(1.09898 0.00972349 0)
(1.02048 -0.00476303 1.52313e-21)
(1.08779 -0.0578957 0)
(0.910796 -0.146339 0)
(1.05921 -0.0309439 0)
(1.02058 -0.0200491 -2.89667e-22)
(0.358115 -2.03133e-05 2.47569e-20)
(1.05609 -0.0609238 1.04167e-20)
(0.583865 0.188244 7.47923e-22)
(1.0189 -0.000478944 4.32531e-21)
(1.01324 -0.00108058 1.22989e-21)
(1.01301 -0.00211609 0)
(1.04838 -0.0625143 -7.49545e-21)
(0.484431 -0.00369971 2.08564e-20)
(1.05741 -0.0424006 1.94526e-20)
(0.33887 -0.00354586 0)
(1.03343 -0.0072891 -3.15915e-21)
(0.904071 0.0170832 4.2556e-22)
(1.02131 -0.0038296 0)
(0.051857 0.0119655 -1.56415e-20)
(1.00048 -0.0406959 -2.62738e-21)
(0.5173 -0.176817 -3.49781e-21)
(1.0447 -0.0266083 5.13024e-22)
(0.612899 0.0876031 -2.3102e-20)
(1.04496 -0.0215575 5.15023e-21)
(1.01171 -0.00237732 0)
(1.076 -0.0517443 -7.40823e-21)
(1.00843 0.00687884 7.59786e-22)
(0.913621 -0.162415 2.03207e-21)
(1.04859 -0.0258208 0)
(1.04548 -0.0208442 5.1024e-21)
(1.0032 -0.000104838 -1.16554e-21)
(1.06606 -0.0506153 -1.03811e-20)
(0.657652 -0.0146181 0)
(1.02457 -0.0381325 3.54205e-22)
(1.00247 -5.2976e-05 9.86593e-22)
(0.0594925 0.238581 -6.32646e-20)
(1.06323 -0.0408331 -1.06593e-21)
(1.02008 -0.00982653 0)
(1.05401 -0.00946987 -1.51814e-20)
(1.00186 6.92832e-05 0)
(1.03004 -0.0363634 1.48506e-21)
(1.06584 -0.0416695 1.00792e-20)
(1.00491 0.00032245 -5.29725e-24)
(0.964978 -0.0606465 0)
(1.07914 -0.014767 1.97756e-22)
(1.00306 -7.78226e-05 0)
(1.01201 -0.00252838 2.74194e-22)
(1.01108 0.00566119 6.17543e-22)
(1.00103 2.59409e-05 -3.80956e-22)
(1.00384 -0.000116755 -5.12463e-22)
(0.848827 0.17928 -4.202e-21)
(0.69181 -0.0181394 1.63754e-20)
(1.00446 0.000122856 2.56232e-22)
(1.00664 -0.000270228 0)
(1.01084 -0.000510596 4.77907e-22)
(-0.00360942 0.031672 -2.47742e-22)
(1.05301 -0.00986049 1.23869e-20)
(0.983592 -0.0380832 1.30787e-20)
(0.903067 0.179772 1.49692e-22)
(0.850595 0.0702957 0)
(1.0105 -0.000842781 -2.67899e-22)
(0.864924 0.102911 0)
(1.06036 -0.0417402 0)
(1.01974 -0.00653847 -1.88623e-22)
(1.07484 -0.056244 0)
(1.01697 -0.00562381 -4.44599e-22)
(1.00985 -0.00133044 0)
(0.379063 -0.005052 -2.28058e-20)
(1.02127 -0.00358972 0)
(0.836208 0.17047 5.82378e-21)
(1.00943 -0.00059102 0)
(1.00442 0.000108626 -2.08004e-22)
(1.06229 -0.058895 -1.04578e-20)
(0.10862 0.0455569 1.70313e-20)
(0.164457 0.00346298 0)
(0.00725866 0.219844 7.16006e-20)
(1.01213 -0.000639715 -8.77191e-22)
(1.01667 -0.00267465 -1.10184e-21)
(1.00803 -0.000204407 -4.86794e-22)
(1.03282 -0.0165867 -6.05039e-21)
(0.903409 -0.0974603 -8.99515e-22)
(1.0225 0.00083571 -2.60554e-22)
(1.07533 -0.0582004 1.27452e-20)
(1.0292 -0.00140026 -2.23009e-21)
(0.889316 0.000344214 7.0373e-22)
(1.07891 -0.0422247 -1.29393e-21)
(1.01127 -0.000632639 0)
(0.112378 0.227568 1.73484e-20)
(1.00442 -0.000173645 5.67142e-22)
(1.03914 -0.0140499 0)
(1.03222 -0.0163481 8.00619e-21)
(1.01351 -0.00304776 -1.98673e-22)
(1.02645 -0.0151586 -2.90684e-21)
(1.07113 -0.0465958 0)
(1.06897 -0.0438791 1.17888e-20)
(1.00772 0.00106394 4.52112e-23)
(1.05512 -0.0231151 -1.08201e-20)
(-0.036073 -0.119435 0)
(1.0097 -0.00128764 0)
(1.0278 -0.019826 5.81097e-22)
(1.00676 -2.09323e-05 6.46388e-22)
(1.02496 0.00240558 2.41832e-22)
(1.0604 -0.031087 0)
(1.01958 -0.00662915 8.8611e-22)
(0.499739 0.0073452 1.93541e-20)
(0.467892 -0.00158351 -2.50975e-20)
(1.00728 -0.000878851 3.07871e-22)
(1.01365 -0.00316351 0)
(0.142051 0.0198687 1.38649e-21)
(1.0095 -0.00118427 0)
(0.832152 0.028523 1.66535e-21)
(1.05924 -0.0414905 0)
(1.01753 -0.00436118 1.31576e-21)
(1.08218 -0.0416649 4.76166e-21)
(1.00542 0.000440892 0)
(1.03865 -0.0235994 -6.39919e-21)
(1.04133 -0.0595942 -1.03704e-22)
(1.02112 -0.00305915 -2.19969e-21)
(1.05055 -0.0661578 1.91815e-21)
(1.00417 0.000272741 -2.80212e-23)
(1.00228 -7.70792e-05 -4.86475e-22)
(1.01986 -0.00483205 -1.49487e-21)
(1.01264 -0.000742715 2.55101e-22)
(1.06641 -0.054757 -1.03048e-20)
(0.988246 -0.0109994 9.06746e-21)
(0.90527 -0.136502 1.86233e-21)
(-0.0405356 -0.115622 -1.41102e-20)
(1.01242 -0.00265993 8.44717e-22)
(1.05574 -0.0326636 -2.84064e-21)
(0.671776 0.00552213 -1.89958e-20)
(1.03775 -0.0136736 -4.84495e-21)
(1.01665 -0.00259806 5.3306e-22)
(0.970648 -0.114144 8.46638e-21)
(1.01722 -0.0039817 -8.97099e-22)
(1.01319 -0.00216629 -8.84253e-22)
(1.01038 -0.00132846 -2.70288e-22)
(0.19317 0.0681134 8.49845e-21)
(1.00417 -0.000122983 -1.85441e-22)
(1.01842 -0.00461081 -1.39086e-21)
(0.999333 -0.0311626 0)
(1.02152 -0.00322497 0)
(0.526247 -0.130088 9.9079e-21)
(1.04089 -0.0215108 6.41671e-21)
(0.505409 -0.0163431 -1.48695e-20)
(1.0064 0.00075428 -6.35762e-23)
(0.75873 -0.0440908 0)
(1.01999 -0.00953022 2.92314e-22)
(0.908132 -0.14066 0)
(1.00515 0.000483267 -3.41606e-23)
(1.00757 -6.51449e-05 0)
(0.953325 0.0437936 -3.33481e-22)
(1.011 -0.0419892 2.40109e-21)
(0.0203085 0.0597825 0)
(1.01946 -0.00105341 3.91926e-21)
(0.52035 -0.0184286 7.44281e-21)
(1.04075 -0.0220938 -4.04669e-21)
(1.03421 -0.00756792 -3.62002e-21)
(0.771481 -0.0356869 -3.79418e-22)
(1.07225 -0.0489203 9.00773e-21)
(0.661901 -0.0404234 -1.27134e-20)
(1.00145 -2.86184e-05 -2.67281e-23)
(1.04973 -0.0291197 -6.72849e-21)
(1.0015 3.99052e-05 5.3695e-23)
(-0.0819907 -0.065286 6.31315e-21)
(1.00535 0.000541141 7.53131e-23)
(1.03899 -0.0454281 4.73466e-21)
(1.07911 -0.0887109 0)
(1.00712 -0.000811754 6.11823e-22)
(1.01219 -0.00248663 1.66569e-22)
(1.06996 -0.0419345 -1.34205e-20)
(1.03319 -0.0285193 -1.36975e-21)
(0.580809 -0.126895 -2.08279e-20)
(1.08134 0.0245763 -9.43508e-23)
(1.00799 -0.000159661 8.8635e-23)
(1.01871 -0.00470242 0)
(1.0662 -0.0492594 -3.78286e-24)
(0.964988 -0.0446665 -1.80599e-21)
(1.01012 0.00138751 0)
(0.994557 -0.0320477 0)
(1.00234 9.89297e-05 -9.43472e-23)
(0.605263 -0.0334262 -1.50736e-20)
(1.06288 -0.0417479 0)
(0.91516 0.00505912 -2.43665e-21)
(1.03137 -0.0165909 0)
(1.03314 -0.0220008 0)
(1.03031 -0.00327851 1.3569e-21)
(0.949553 -0.0458097 1.91811e-21)
(1.02913 -0.0104421 3.42829e-22)
(1.03198 -0.0168522 -2.94045e-21)
(1.06911 -0.0383554 -5.38306e-21)
(0.912566 0.0114136 3.76292e-21)
(0.994214 -0.00802992 -7.81167e-21)
(1.04928 -0.0582689 1.12264e-20)
(0.449324 -0.00642908 0)
(1.02196 -0.000891909 2.40993e-21)
(1.00763 -0.000108588 -3.53786e-22)
(1.01965 -0.0180186 -4.85527e-22)
(0.986595 0.000274272 1.99363e-21)
(1.00952 -0.00106606 0)
(1.0471 -0.0427937 1.19957e-20)
(1.03721 -0.0138023 -3.56323e-22)
(1.02911 -0.0100313 2.82982e-21)
(1.04849 -0.0250785 0)
(0.809602 -0.0368937 1.22637e-20)
(1.01017 0.00622576 -2.08907e-22)
(1.03001 -0.00526904 -6.28351e-22)
(1.03853 -0.0142878 5.6996e-21)
(1.0885 -0.0146175 6.28846e-21)
(1.05681 -0.041149 8.25309e-22)
(1.02852 -0.0267159 -5.44992e-22)
(1.01004 -0.00143305 -2.67123e-23)
(0.90162 -0.0066814 -9.72487e-22)
(1.0157 0.0192724 5.56996e-22)
(0.673472 -0.0461054 8.5796e-21)
(0.915685 0.0226438 0)
(1.01037 0.00137029 4.31877e-24)
(1.00614 0.000752733 0)
(1.00201 7.57645e-05 1.72232e-23)
(1.06888 -0.0376185 -5.48518e-21)
(0.983468 -0.03884 -1.11997e-20)
(0.823833 -0.037443 0)
(1.01191 -0.00197183 -1.29589e-21)
(1.01991 -6.33843e-06 0)
(1.09167 -0.0446247 0)
(0.926086 -0.0488428 1.22721e-21)
(1.07846 -0.0583107 0)
(1.02578 -0.0158881 1.18128e-22)
(1.03093 -0.00416561 0)
(1.05865 -0.0339663 -1.08109e-20)
(0.929056 -0.0180867 0)
(1.05947 -0.0429607 -1.73357e-20)
(1.02844 -0.0199338 5.81869e-22)
(0.502886 -0.164017 1.08871e-21)
(1.01036 -0.00157656 3.04841e-22)
(0.626689 -0.0353526 2.29123e-20)
(1.05487 -0.0224601 -1.13444e-20)
(1.03781 -0.0210121 0)
(0.68834 -0.0476924 7.27369e-22)
(1.021 -0.00883272 -7.26923e-22)
(1.03688 -0.0367965 0)
(0.691044 -0.032293 -1.20703e-20)
(1.01159 -0.00190957 0)
(1.06585 -0.0355563 -1.06884e-20)
(1.0477 -0.0263864 5.64856e-21)
(1.02546 -0.0154391 1.76004e-21)
(0.159935 0.0256421 0)
(1.02826 -0.0199374 -1.40689e-21)
(1.02774 -0.0102722 -1.90228e-21)
(0.737982 -0.0309825 2.4287e-20)
(1.00584 0.000131771 1.26166e-22)
(1.03348 -0.0226416 0)
(1.01008 -0.00238844 5.84482e-22)
(0.721927 -0.0493102 1.09144e-20)
(1.07667 -0.0486196 -1.95893e-20)
(1.01969 -0.00116331 -4.06197e-21)
(1.06572 -0.0400339 5.11193e-21)
(1.02001 -0.000703059 -3.99123e-21)
(0.491573 -0.0150832 0)
(1.035 -0.000524477 0)
(1.00196 -3.28624e-05 4.04842e-22)
(1.01521 -0.00350134 3.90288e-22)
(1.07607 -0.0481212 1.17184e-20)
(1.04943 -0.0279243 2.28946e-22)
(1.0399 -0.0131247 0)
(1.01976 7.77714e-05 -1.01926e-21)
(1.02102 -0.00873339 7.14962e-22)
(1.02723 -0.0101293 -2.02102e-21)
(0.902049 -0.0140735 4.85297e-22)
(0.280575 0.230888 1.8029e-21)
(0.541143 0.0238999 0)
(1.01361 -0.0195487 -1.08905e-21)
(0.734125 -0.0501351 1.74524e-20)
(0.889205 -0.0740701 0)
(1.01917 -0.0004466 -3.30065e-21)
(1.05525 -0.0336985 0)
(1.07954 -0.0603415 0)
(1.00267 0.00148722 5.05732e-22)
(1.03996 -0.0379513 0)
(1.07081 -0.04644 1.36132e-21)
(1.08655 -0.0446986 -4.98033e-21)
(1.02005 0.00156954 0)
(0.874459 -0.00868659 0)
(0.666251 -0.0336471 1.7371e-21)
(1.01919 -0.000365632 1.9381e-21)
(1.01562 -0.0244952 0)
(1.01065 -0.0258963 0)
(1.05977 -0.126246 -9.05886e-21)
(1.04032 -0.0127969 -3.74372e-21)
(1.04312 -0.0401282 9.12079e-23)
(-0.0895621 -0.0684833 1.99979e-20)
(1.01391 -0.00328875 0)
(0.86498 -0.0540347 0)
(1.01518 -0.00342029 8.01036e-22)
(1.01987 -0.000643118 4.66033e-21)
(1.00271 0.000123902 9.05026e-23)
(1.00504 0.000367373 5.90107e-23)
(1.01287 -0.00280924 -1.39971e-22)
(0.700799 -0.0365643 1.18029e-20)
(0.970083 -0.12746 -6.94271e-21)
(1.02061 -0.00616524 -3.05231e-21)
(1.06546 -0.0345223 -1.49644e-20)
(1.00647 0.000137975 6.99277e-23)
(0.466784 -0.165785 0)
(1.02299 -0.0245493 -3.49614e-22)
(0.861837 -0.003398 1.83345e-21)
(0.538372 0.0124181 -1.53353e-20)
(1.02062 -0.0063835 2.05964e-21)
(1.01239 -0.0455785 -1.66798e-21)
(1.04572 -0.0270387 -5.49581e-21)
(0.851 0.00907379 1.94944e-20)
(1.01623 -0.00503027 3.61288e-22)
(1.00449 0.000112368 -2.56513e-22)
(1.02508 0.00687666 0)
(0.158529 0.241125 -8.61695e-20)
(1.01294 -0.000908211 -7.8383e-22)
(0.23876 -0.0191967 4.29726e-21)
(1.00355 0.00538736 -4.5164e-22)
(1.07077 -0.0465223 1.05386e-20)
(0.395382 0.00476218 -9.17758e-21)
(0.99134 -0.0495289 -1.89368e-21)
(1.00086 -0.0508092 1.40392e-21)
(1.02306 -0.00883898 9.32548e-22)
(1.01043 -0.00150281 0)
(1.01828 -0.000270802 3.52274e-21)
(1.01452 -0.0179401 2.96241e-21)
(1.06636 -0.0394753 -1.23458e-20)
(0.124017 0.20696 -1.06045e-20)
(1.06199 -0.0302596 -1.20546e-20)
(0.703609 -0.0433217 1.19863e-20)
(0.686598 -0.0337583 6.30765e-21)
(1.00646 0.000103712 2.9273e-22)
(1.02235 -0.000894824 -1.48652e-21)
(0.496554 0.0201964 0)
(0.372194 -0.00418704 0)
(1.06488 -0.0905809 2.46795e-21)
(0.713396 -0.0229927 -1.54486e-20)
(1.02676 0.00854436 5.485e-22)
(1.04622 -0.0280674 0)
(1.00208 -6.00156e-05 3.18396e-22)
(0.935783 -0.0773025 0)
(1.00893 -0.00128472 1.638e-22)
(1.02962 -0.0284086 0)
(1.02194 -0.00802983 1.39317e-21)
(1.0277 -0.00268462 -2.22256e-21)
(1.00169 4.68359e-05 1.8068e-23)
(1.0114 -0.00184416 -1.66581e-22)
(1.00674 1.65389e-05 0)
(1.06804 -0.0497175 -1.5317e-20)
(1.04141 -0.0258063 4.56206e-22)
(0.521838 -0.0195547 -2.43034e-20)
(1.01839 -0.0196351 0)
(1.06623 -0.0409424 -5.57911e-21)
(1.03351 0.000966417 1.89565e-21)
(0.945089 -0.0291942 -1.50732e-21)
(1.03188 -0.0226703 -1.46518e-21)
(1.04813 -0.133059 3.39336e-22)
(1.03741 -0.020289 8.19808e-21)
(0.965116 0.055475 -2.99307e-22)
(1.00441 0.000122002 0)
(1.01111 -0.00178547 1.59799e-22)
(1.00172 -5.34164e-05 4.93025e-22)
(1.09329 -0.0879263 -1.55265e-20)
(0.879208 -0.123714 0)
(1.07249 -0.050705 0)
(1.03085 0.00178579 -2.49666e-21)
(0.499617 -0.0236821 2.58482e-20)
(0.954089 0.133668 -3.98623e-22)
(1.03878 -0.0286083 4.79094e-22)
(1.01014 -0.000541235 -3.13296e-23)
(1.07073 -0.0419131 8.59344e-21)
(1.01603 -0.0048443 -7.85468e-22)
(0.932149 -0.0238486 1.45553e-21)
(1.00183 5.54572e-05 0)
(0.977425 -0.15053 -6.85324e-21)
(0.884878 0.014341 0)
(1.03622 -0.0625246 4.08367e-22)
(0.502114 -0.0131052 0)
(1.01701 -0.00386534 6.02212e-22)
(1.02941 0.0126007 -7.0639e-23)
(0.877087 -0.00167684 0)
(0.307526 0.235357 0)
(1.00442 0.000287345 -1.63355e-24)
(1.04691 -0.0301949 0)
(1.0586 -0.042567 -1.52188e-20)
(1.01046 0.0101384 4.94093e-22)
(1.00815 -0.00105228 0)
(1.02672 -0.0103434 -5.78088e-21)
(1.07882 -0.0411691 1.25934e-21)
(1.07088 -0.046694 -1.025e-20)
(1.01792 -0.0246067 0)
(0.414991 -0.0930388 0)
(1.00184 -3.53762e-05 0)
(1.01552 -0.00361357 4.40007e-22)
(-0.0168178 0.0149088 1.57216e-20)
(1.02784 -0.0198474 -5.30894e-22)
(1.00592 0.000715497 3.28948e-23)
(0.54686 0.0972681 1.18359e-20)
(1.01029 -0.00144248 0)
(1.01971 -0.00663905 1.29663e-22)
(1.00903 -0.0012326 0)
(1.03033 -0.0167179 6.40961e-22)
(1.02537 -0.0139586 -5.29096e-22)
(1.00618 0.000729341 0)
(1.01683 -0.00346606 5.88156e-22)
(0.764109 -0.0326974 -1.79601e-20)
(1.02168 -0.00409869 -2.3457e-21)
(1.06216 -0.0324118 2.81039e-20)
(1.00971 -0.000668826 0)
(1.0189 -0.0140751 6.02175e-22)
(1.01046 0.0404078 4.64203e-24)
(1.00082 -9.35277e-06 0)
(1.01615 -0.00501232 1.31978e-22)
(1.00193 2.32357e-05 4.12698e-22)
(1.00176 -4.1382e-05 -1.94658e-22)
(0.836723 -0.0510004 7.01053e-22)
(1.02963 -0.00962949 0)
(1.05297 -0.0300843 3.25058e-22)
(1.02105 -0.00280532 0)
(1.00275 -7.08522e-05 0)
(-0.0158908 0.239516 0)
(0.48789 -0.0112633 -5.10516e-21)
(1.02228 -0.00334317 2.69604e-21)
(1.0175 -0.0152798 7.14648e-22)
(1.03239 -0.0232833 1.54466e-21)
(0.975195 -0.0613884 0)
(0.0441689 0.026766 0)
(1.01555 -0.00372446 4.97161e-22)
(0.959828 -0.142418 2.50339e-21)
(1.01651 -0.00522499 4.95524e-23)
(1.06209 -0.0551369 1.0081e-20)
(1.02879 -0.00368168 3.89747e-21)
(-0.105037 -0.00656297 0)
(1.00407 0.000117633 0)
(-0.0306361 -0.10363 -3.2699e-20)
(1.00115 0.00160291 -1.37139e-20)
(1.00556 0.000160742 -1.1723e-22)
(1.01512 -0.013802 -1.47927e-21)
(0.579128 -0.00853897 0)
(1.03727 -0.0463499 -3.83561e-22)
(0.921383 0.0234963 -5.08234e-21)
(1.00785 -0.000334462 0)
(0.904189 0.177631 4.55228e-21)
(1.01165 -0.00056252 -1.19984e-21)
(1.00901 -0.00108002 0)
(1.01029 -0.00157311 0)
(1.0278 -0.00127867 -2.30923e-21)
(0.39591 -0.00956551 0)
(1.06777 -0.0431809 0)
(1.07114 -0.0470011 0)
(1.07925 -0.0420797 1.66234e-20)
(1.00635 -0.0390011 2.87723e-21)
(1.00796 0.00107197 0)
(0.894658 -0.0309177 1.55538e-21)
(0.878926 -0.112011 -3.7733e-21)
(1.0396 -0.0239461 0)
(1.05447 -0.0238129 9.27738e-21)
(0.989929 -0.0557539 5.81607e-22)
(0.899113 0.184919 -3.13614e-21)
(0.805046 -0.045949 0)
(1.01736 -0.000276778 1.48115e-21)
(-0.112898 -0.000200984 7.82825e-21)
(0.0797777 0.0346705 0)
(0.132844 0.08354 -1.08623e-20)
(1.02811 -0.0199555 -6.54691e-22)
(1.01353 -0.0144845 0)
(0.914542 0.193157 0)
(1.02539 0.0183902 6.97565e-23)
(0.915733 0.0287196 0)
(0.949545 -0.10794 0)
(0.886468 -0.152521 1.29628e-20)
(1.02623 -0.0154238 1.80245e-21)
(0.868475 -0.149588 1.89749e-21)
(1.02825 -0.0514632 2.82225e-20)
(1.00428 0.000128124 0)
(1.02084 0.0164079 0)
(1.06855 -0.0431507 0)
(0.463602 -0.00533909 0)
(1.03106 -0.016967 0)
(1.01811 -0.00318714 -2.20431e-21)
(1.01325 -0.00293599 1.89168e-22)
(1.01761 -0.00554881 -5.39226e-22)
(1.06623 -0.0531977 -6.65866e-22)
(1.03285 -0.0227233 0)
(0.665112 0.0967356 9.75847e-21)
(0.417484 -0.0835923 0)
(1.00845 -0.000526665 0)
(-0.00995024 0.0205752 -2.97849e-20)
(0.529696 -0.0123131 9.34904e-21)
(1.02042 -0.0577624 0)
(0.874198 -0.0697128 4.11396e-21)
(1.06103 -0.032275 -1.30456e-20)
(1.0055 0.000631084 6.10251e-23)
(1.01093 -0.00173046 0)
(1.03307 0.00735703 -1.38888e-23)
(0.860223 -0.0257802 0)
(1.03992 -0.0144696 0)
(1.07653 -0.0451674 -1.16002e-20)
(1.07409 -0.0505909 5.38993e-22)
(1.00565 0.000252703 0)
(1.04093 0.00327723 1.92778e-21)
(0.902564 0.190049 -3.0609e-21)
(1.05495 -0.117396 0)
(1.07067 -0.0470028 -1.55345e-20)
(0.406474 -0.0111539 0)
(1.02804 -0.0531085 2.15385e-20)
(1.0167 -0.00540791 0)
(1.02808 -0.00242581 -2.36404e-21)
(0.489326 0.148734 1.15477e-21)
(0.674341 -0.0327006 0)
(1.07383 -0.0482922 1.3861e-20)
(1.06274 -0.0294724 0)
(0.990436 -0.0359854 -4.07078e-21)
(1.00525 0.0003862 0)
(1.01534 -0.00342213 0)
(0.962243 -0.150902 0)
(1.00539 0.000252539 -1.87936e-22)
(1.03049 -0.016679 2.33053e-21)
(1.00539 0.000473576 -5.04654e-23)
(1.01031 -0.00116713 9.90429e-24)
(1.01158 -0.0517453 -2.22654e-20)
(1.06722 -0.0512983 1.23177e-20)
(1.02869 -0.000871525 -1.3233e-21)
(1.00538 0.00028133 0)
(0.322828 -0.0389058 -4.39973e-20)
(0.967482 -0.143527 6.50316e-21)
(1.01058 -0.00164518 0)
(1.00449 -0.000197648 6.02974e-22)
(1.00963 -0.0012131 -5.09581e-22)
(1.01879 -0.000340717 -3.68379e-21)
(0.14637 0.229969 3.82125e-20)
(0.921833 -0.0487162 1.06184e-20)
(0.905826 -0.0944033 -9.99507e-21)
(0.100949 0.107753 0)
(0.891951 0.166326 7.17373e-22)
(1.06197 -0.0278864 2.0115e-20)
(0.443811 -0.00197841 0)
(0.483751 -0.0126005 0)
(1.01949 0.00239756 -7.334e-22)
(1.05863 -0.0318753 0)
(1.0056 0.000666731 -3.36108e-23)
(1.01005 -0.00161811 5.87098e-22)
(1.0309 -0.0323273 -6.68676e-21)
(0.816937 -0.0326026 0)
(0.919299 -0.0427909 0)
(1.07587 -0.0448284 1.0683e-20)
(1.04177 -0.0287974 3.74615e-21)
(1.01001 -0.00150436 0)
(1.02741 -0.0251519 -1.15466e-21)
(1.01787 -0.00104893 -5.48763e-22)
(0.927495 0.0530076 5.39408e-21)
(1.06777 -0.0451455 -2.81198e-20)
(1.02069 -0.00263575 -6.4579e-21)
(1.01457 -0.021458 9.06232e-22)
(1.00809 -0.00101273 0)
(1.04978 -0.0239537 0)
(1.07331 -0.0515927 9.20729e-21)
(1.02996 -0.00364215 -2.61436e-21)
(1.01577 -0.00468177 1.8274e-22)
(1.02286 -0.0260679 1.62307e-23)
(1.02784 -0.0062946 4.12699e-21)
(1.06489 -0.0524498 -1.02031e-20)
(1.08823 -0.0908088 -2.14723e-22)
(1.07168 -0.04901 0)
(1.02659 -0.0234227 -9.59464e-22)
(1.07408 -0.048813 1.49978e-22)
(1.00976 -0.00144521 3.03693e-22)
(1.04406 -0.0788907 4.20766e-22)
(1.03189 -0.00154219 -8.06454e-22)
(0.0428291 0.118596 0)
(1.02017 -0.00960896 -2.7127e-22)
(1.00339 -0.000120569 -2.51272e-22)
(0.991302 -0.0597464 0)
(1.02237 -0.0144962 -3.12306e-22)
(0.362048 -0.00347253 6.89437e-21)
(0.634947 -0.0323462 7.79246e-21)
(-0.0431103 0.0525331 -1.90327e-20)
(0.533866 0.119487 -6.86005e-21)
(1.00883 -0.00123953 -6.94709e-22)
(1.03888 -0.0609795 0)
(1.01092 0.00141385 -1.06197e-22)
(1.01027 -0.00129773 7.87059e-25)
(1.00401 0.000131577 -7.51633e-23)
(1.0104 -0.00129095 0)
(1.0153 0.000603229 0)
(1.01692 -0.0197074 0)
(1.03027 -0.017811 0)
(1.00515 0.000278719 8.57429e-23)
(0.854057 -0.107923 -1.28179e-21)
(0.994609 0.000165848 1.02256e-20)
(0.827847 -0.100421 0)
(1.01266 -0.00254593 2.09886e-22)
(1.00374 0.000161912 0)
(1.00248 -3.29018e-05 0)
(1.07788 -0.0634246 -1.43025e-20)
(0.69556 -0.0216988 2.13685e-20)
(1.07284 -0.0373191 0)
(1.04962 -0.0245506 0)
(1.01115 0.00147912 7.53399e-23)
(1.00264 -7.15126e-05 3.02112e-22)
(1.0074 -0.000330797 3.55452e-22)
(1.01402 -0.00313731 0)
(1.06377 -0.0472803 -2.16951e-20)
(0.277011 -0.181987 0)
(1.02735 -0.00606255 4.08452e-21)
(1.00514 0.000305988 -8.10102e-23)
(1.02809 -0.000948571 -2.3927e-21)
(1.01391 -0.00316027 -4.66668e-22)
(1.0136 -0.138857 2.97497e-21)
(-0.0387954 -0.12672 3.78041e-22)
(1.02749 -0.0261767 -7.85593e-22)
(0.631771 -0.00573493 -1.50065e-20)
(0.900533 0.185836 -3.50251e-21)
(1.01557 -0.0044972 -1.7409e-22)
(1.07105 -0.0467766 1.95124e-20)
(0.258128 0.240225 1.22603e-20)
(1.05924 -0.0330223 0)
(0.496538 -0.189526 -5.58578e-21)
(1.03286 -0.00751379 -3.06549e-21)
(1.02042 -0.0187781 5.8805e-22)
(1.07207 -0.0370955 0)
(1.01862 -0.0181651 -6.70916e-22)
(0.928577 -0.147321 0)
(1.02186 -0.00316338 0)
(0.911096 0.196481 0)
(1.00174 5.15464e-05 1.32078e-22)
(1.06756 -0.0212519 -9.39617e-21)
(0.523535 -0.0168584 0)
(1.01386 -0.00213566 -8.57691e-22)
(1.02129 -0.0125122 0)
(0.988186 -0.0297567 0)
(1.00921 -0.00117709 2.01598e-22)
(1.0384 -0.0227192 -3.27086e-21)
(1.06276 -0.0527372 9.64909e-22)
(0.11122 0.105169 0)
(1.06705 -0.0453211 1.34769e-20)
(1.06968 -0.0464842 2.84949e-21)
(0.978769 -0.0600242 7.11454e-22)
(1.00517 0.000451148 5.30502e-23)
(1.01239 -0.00244159 -2.03543e-22)
(-0.0571931 0.233439 0)
(1.07422 -0.0505344 -3.43457e-21)
(1.03622 -0.0288818 4.69499e-22)
(0.655576 -0.0340842 -1.76579e-21)
(1.01013 -0.00169335 6.30664e-22)
(1.01554 -2.5374e-05 -1.13172e-22)
(1.0043 0.000111412 1.88371e-22)
(0.898128 0.137509 -1.59605e-20)
(1.08021 -0.0539079 0)
(1.0283 -0.0190952 2.5142e-21)
(1.01859 -0.0070134 0)
(1.00006 0.0424733 -5.7684e-23)
(1.04583 -0.0179542 -4.26017e-21)
(1.00261 -3.2533e-05 0)
(0.0057249 0.012665 3.33835e-20)
(0.896934 0.00223727 -5.2387e-21)
(0.590575 -0.0213555 -1.86636e-20)
(1.0058 0.000161421 -3.90019e-22)
(1.02737 -0.00569291 0)
(0.460322 -0.00330167 1.23664e-20)
(-0.00162559 -0.163111 4.03991e-20)
(1.07548 -0.0508463 1.82762e-20)
(1.01761 -0.00136999 5.68191e-22)
(0.93467 -0.05309 0)
(1.02163 -0.00355072 0)
(0.978142 0.0480371 0)
(1.05328 -0.0907124 6.97623e-21)
(1.03586 -0.0659061 -4.03508e-22)
(1.03353 -0.0208679 -3.71828e-21)
(-0.0077295 0.0494812 5.23602e-22)
(1.02588 -0.00836376 -9.2973e-22)
(1.02124 -0.0015856 0)
(1.07299 -0.0552169 3.39363e-20)
(1.00361 -0.00012551 -4.91957e-22)
(1.00257 -5.27019e-05 2.38263e-22)
(1.02565 -0.0144262 -1.5153e-21)
(1.00961 -0.00140239 -3.30506e-22)
(0.00378812 0.0107574 0)
(1.0349 -0.0314182 -3.81497e-21)
(1.07081 -0.046733 2.3105e-20)
(1.02686 -0.000346227 2.05897e-21)
(1.01242 0.0249115 -3.44095e-22)
(1.01019 -0.00156245 -4.52481e-22)
(1.01948 -0.0109556 4.75426e-21)
(1.00639 -0.000230286 -2.22788e-22)
(1.02493 -0.00937258 0)
(1.00364 0.000117634 7.69085e-23)
(1.01512 -0.00418076 3.38153e-22)
(1.0115 -0.000728079 4.77079e-22)
(0.675411 -0.0311089 1.59138e-20)
(1.01312 -0.00293033 2.89509e-22)
(1.00467 8.98248e-05 0)
(0.902485 0.0645368 1.47038e-21)
(1.02879 -0.0025125 4.88386e-21)
(0.481361 -0.00664812 -1.14338e-20)
(1.0014 2.64802e-05 -2.57431e-22)
(1.01692 -0.00179823 5.7606e-22)
(1.0724 -0.0423775 0)
(0.995752 -0.143838 0)
(0.99722 -0.0698828 2.47506e-21)
(1.0078 -0.000426293 2.15847e-22)
(1.10022 -0.0231217 -1.51867e-21)
(0.658723 -0.00654885 7.02848e-21)
(1.02965 -0.0100324 -2.9697e-21)
(0.777661 -0.0394027 1.47684e-23)
(1.06652 -0.0211471 0)
(1.00924 -0.00130174 6.61528e-22)
(1.03638 -0.00333933 2.20899e-22)
(-0.00533833 0.0269366 1.17442e-20)
(1.09935 -0.0308035 1.82599e-21)
(1.03136 -0.0213974 -4.36037e-23)
(1.00831 -0.000455127 0)
(1.00493 0.000298166 7.23712e-23)
(0.87689 -0.0527301 1.44281e-21)
(1.03214 -0.0717049 1.29093e-20)
(1.02716 -0.0049511 0)
(1.02826 -0.0196832 -2.12173e-22)
(1.03654 -0.00665587 -2.22542e-22)
(1.01828 -0.000280936 -3.66868e-21)
(1.01713 -0.00158555 -5.82678e-22)
(1.07925 -0.0448295 0)
(0.911662 -0.163205 5.94763e-21)
(1.06499 -0.0555086 1.06241e-20)
(0.929067 0.00102303 0)
(1.02686 -0.00545768 -4.36524e-21)
(1.06355 -0.054619 2.01462e-22)
(1.07058 -0.0447935 -5.34161e-21)
(0.746144 -0.0519633 -1.41116e-20)
(1.02789 -0.0188188 0)
(0.371696 -0.132441 6.29719e-21)
(1.0797 -0.0425365 -1.56261e-20)
(1.0292 -0.00219781 2.20714e-21)
(0.153431 0.00179122 1.23187e-20)
(1.03699 -0.0699373 -1.82699e-22)
(0.724294 0.00380078 1.86387e-20)
(0.128388 0.12583 -1.94256e-22)
(0.686474 -0.0306312 0)
(0.966339 -0.0749213 -5.37272e-22)
(1.0275 -0.0361814 -3.82743e-21)
(1.00938 -0.00133453 -5.92596e-22)
(1.01399 -0.0162278 0)
(-0.0523595 -0.100567 -5.05301e-20)
(0.0875976 0.00213069 8.30345e-21)
(1.01496 -0.00301026 8.53159e-22)
(1.00196 -5.24919e-05 -4.81432e-22)
(1.06964 -0.0425609 9.31549e-21)
(0.98192 -0.0124627 8.87167e-24)
(1.00532 6.97961e-05 -1.75759e-22)
(-0.0214171 -0.142016 0)
(1.0098 -0.00161465 -3.17876e-22)
(1.02141 -0.00581536 1.06583e-21)
(-0.0108144 0.0128944 -3.0992e-22)
(0.466871 -0.00348939 -1.14249e-20)
(0.982826 -0.0707709 -2.19256e-22)
(1.01028 -0.00133186 0)
(1.01987 -0.000460812 -2.85269e-21)
(-0.00583753 -0.156612 -4.36686e-20)
(1.0645 -0.0470518 1.48863e-20)
(1.07421 -0.0477271 2.48607e-20)
(1.01797 -0.0013779 -1.40353e-21)
(0.595094 0.0177786 1.59429e-20)
(1.05993 -0.112085 -8.85805e-21)
(0.742444 -0.0298712 1.90752e-20)
(1.06491 -0.0416835 0)
(1.0644 -0.0344467 -8.44484e-21)
(1.02715 -0.010467 2.45854e-21)
(1.0286 -0.00325003 1.26132e-21)
(0.595057 0.17458 3.38127e-22)
(1.07536 -0.0345348 0)
(0.364814 -0.00434047 0)
(1.03073 0.00796455 -8.41221e-22)
(1.06087 -0.0300222 1.13356e-20)
(0.0163035 0.0057616 -2.48423e-20)
(0.695321 0.012264 4.35413e-21)
(0.511602 -0.00854898 -1.08967e-20)
(1.02388 -0.00341636 0)
(1.06177 -0.0256805 0)
(1.01044 -0.00158791 0)
(1.02646 -0.0244034 1.69004e-21)
(1.02097 -0.0120987 1.14985e-22)
(0.425736 -0.199262 -3.87901e-22)
(1.01061 -7.46851e-05 0)
(0.491213 -0.0250589 -1.26073e-20)
(1.00517 5.28855e-05 0)
(1.07189 -0.0420888 1.00097e-20)
(1.01554 -0.00409446 -3.40282e-22)
(1.05241 -0.101751 0)
(1.0628 -0.028545 -8.1123e-21)
(1.0606 -0.0257878 1.54157e-21)
(0.634094 -0.0112378 0)
(1.0679 -0.0344658 -1.02339e-20)
(1.03181 -0.0156493 1.69851e-21)
(1.00408 -0.000116237 2.02258e-22)
(1.07124 -0.0423686 8.96323e-21)
(0.829522 0.0215895 1.12338e-21)
(1.0025 -0.052187 0)
(1.02965 -0.0167226 0)
(0.455676 -0.00263536 3.50534e-21)
(1.00924 -0.00099155 0)
(0.184954 0.127259 1.88268e-22)
(0.972312 -0.129433 -4.53915e-22)
(1.02478 -0.00869106 0)
(0.728767 -0.0410368 0)
(0.126524 0.240226 8.13464e-20)
(0.494784 -0.00847807 -1.32127e-21)
(0.957726 -0.0600556 -3.69351e-22)
(1.03159 0.00506279 1.20052e-21)
(1.01473 -0.00325333 3.75417e-22)
(0.58042 -0.0204285 9.41546e-21)
(1.0156 -0.000157429 0)
(0.846371 0.199085 1.1354e-21)
(0.499364 -0.0170537 -8.9062e-21)
(1.01267 -0.00262622 2.79526e-24)
(1.04475 -0.00879279 0)
(1.09357 -0.0816568 1.66756e-20)
(0.944921 -0.169398 -2.86696e-21)
(0.294984 -0.128164 -1.67465e-21)
(1.0256 -0.00679508 -3.98391e-21)
(1.00532 -0.00026207 0)
(0.614518 0.232691 0)
(0.512993 -0.0165562 -7.64215e-21)
(1.07094 -0.0472639 4.00181e-21)
(1.03132 -0.0207077 -4.57239e-23)
(1.01783 -0.00233287 0)
(0.960162 -0.126573 2.03092e-21)
(-0.0424864 0.0134405 2.50504e-20)
(1.07048 -0.0451148 -4.91768e-21)
(1.00472 7.08619e-05 1.04286e-23)
(1.02788 -0.037989 4.05993e-21)
(1.00928 -0.00115992 -3.61213e-22)
(1.00715 -0.000174726 -8.35752e-23)
(1.00567 -0.0320145 4.58609e-22)
(1.00199 -4.37813e-05 -6.10348e-22)
(0.982647 -0.144142 -1.62298e-20)
(0.93203 0.000424221 -2.70635e-22)
(1.02142 -0.00605603 -1.12119e-21)
(1.01667 -0.00312793 -6.14077e-22)
(1.01496 -0.00328082 -4.30315e-22)
(1.02616 -0.0146576 -5.77529e-22)
(0.403166 -0.00323103 1.1507e-20)
(0.570883 -0.00162942 -2.27523e-21)
(1.04778 -0.0294583 0)
(0.377558 -0.128325 -1.64746e-20)
(1.01553 -0.0039977 0)
(1.04576 -0.029804 0)
(1.01452 -0.00312262 -5.75902e-22)
(1.00942 -0.00119863 1.78497e-22)
(1.02167 -0.00847844 -1.66215e-21)
(1.02102 -0.00599061 0)
(0.445687 -0.00787907 1.08598e-20)
(1.0224 -0.00359685 -3.7365e-21)
(1.07118 -0.0374981 0)
(1.02402 -0.00372098 1.76013e-21)
(1.03188 -0.0218984 -1.55601e-21)
(1.01037 -0.0389357 -4.61376e-22)
(0.0274613 -0.143888 -4.0884e-20)
(1.00733 -0.000310901 0)
(0.472194 0.12053 0)
(1.02492 -0.00243666 0)
(1.07675 -0.0430754 -1.46939e-20)
(1.0356 -0.0324508 -2.49977e-22)
(1.04176 -0.034262 0)
(0.357315 -0.00228262 6.42184e-21)
(1.05058 -0.0235334 0)
(1.0326 -0.0260126 4.58029e-22)
(0.427678 -0.197729 3.3593e-21)
(0.850589 0.19703 -7.89724e-21)
(-0.0352978 -0.0581908 2.93636e-20)
(1.04574 -0.0417855 0)
(0.896337 0.0136307 -1.16441e-21)
(1.02003 -0.00920777 0)
(1.06721 -0.0336247 3.26953e-20)
(1.0643 -0.0408248 0)
(0.306328 -0.124927 0)
(1.00716 -0.000315319 -6.90027e-22)
(0.152049 -0.0426816 0)
(1.01223 -0.00236241 0)
(1.01281 -0.00263298 0)
(0.0894424 0.199575 1.75741e-21)
(1.01069 -0.00218211 5.83353e-22)