/*--------------------------------*- C++ -*----------------------------------*\
| =========                 |                                                 |
| \\      /  F ield         | OpenFOAM: The Open Source CFD Toolbox           |
|  \\    /   O peration     | Version:  v2012                                 |
|   \\  /    A nd           | Website:  www.openfoam.com                      |
|    \\/     M anipulation  |                                                 |
\*---------------------------------------------------------------------------*/
FoamFile
{
    version     2.0;
    format      ascii;
    class       volScalarField;
    location    "750";
    object      ddt0(k);
}
// * * * * * * * * * * * * * * * * * * * * * * * * * * * * * * * * * * * * * //

dimensions      [0 2 -3 0 0 0 0];


internalField   nonuniform List<scalar> 
13851
(
1.08466e-07
-2.06932e-08
-2.26598e-08
-5.86462e-05
-1.3988e-08
-1.87726e-09
-1.85721e-08
-2.62806e-08
-0.000171377
4.70701e-09
2.25589e-08
-9.05327e-09
-4.20043e-09
8.96076e-05
3.36786e-08
-6.56663e-07
-6.63849e-05
-5.01522e-09
4.00929e-06
9.3951e-08
5.75752e-08
3.02737e-08
0.00560319
-2.63943e-09
-0.00442655
-1.62931e-07
0.000232845
-0.001644
-0.000328432
-1.51794e-08
-0.000118897
-1.93646e-08
2.97041e-07
-0.00136987
-2.61789e-09
-0.000118944
-1.15217e-09
0.00083489
0.00010361
-2.77135e-08
0.000582507
-0.000488052
-5.92886e-05
4.20364e-06
-0.000895619
-2.31431e-08
-3.99527e-08
-2.93103e-07
2.13412e-08
-2.93271e-09
4.98792e-05
-5.02909e-09
-7.28102e-07
-2.1472e-08
-9.06316e-05
-2.95576e-08
1.45478e-07
0.000455147
-3.54327e-05
0.00041121
-9.63691e-09
-8.60754e-06
-2.80658e-09
2.03742e-08
3.32008e-06
2.54026e-06
0.000389544
2.22391e-06
-9.37474e-09
5.0017e-05
-0.000279218
1.20667e-07
-9.20013e-09
0.000417131
-1.6799e-08
1.58925e-08
-9.26641e-05
-1.77685e-08
-0.00302402
-2.78169e-09
-5.66517e-09
6.65166e-06
6.30395e-09
0.000178697
0.000441219
-0.000177622
3.14568e-08
-0.000113146
7.57143e-09
6.89283e-05
-4.51701e-09
-1.92289e-08
-6.0263e-05
-0.000125129
-0.000249609
-9.48858e-06
-2.30756e-08
-1.18692e-06
0.00019622
2.26338e-06
-1.25044e-06
2.84354e-07
1.17729e-07
-1.31593e-08
-1.86162e-08
1.36318e-07
-2.0029e-08
-0.000295431
-2.02861e-08
-5.86389e-09
2.19349e-08
-2.22074e-08
-1.01015e-06
3.38543e-08
1.31175e-06
-2.08771e-08
-1.98098e-08
-2.71443e-08
-4.20165e-05
9.30359e-05
-6.91913e-06
-6.99051e-09
-1.73201e-08
0.000347984
4.53259e-06
4.1651e-06
-2.4603e-08
-2.07484e-08
-0.00041999
7.99134e-08
3.01688e-08
2.62661e-08
-0.000160104
-0.00136878
5.69702e-08
-0.000286668
3.24629e-06
-0.000234806
2.50997e-07
9.92483e-08
8.36304e-06
-2.24398e-08
7.84388e-09
3.35209e-06
-0.000202153
5.7497e-09
-1.74103e-08
-8.52152e-05
-0.000326928
5.54583e-09
-1.07166e-06
-7.42331e-07
2.78778e-08
1.79194e-06
-1.07466e-08
2.51956e-09
-9.18313e-09
2.78469e-05
6.47719e-08
-3.09197e-08
-3.66888e-09
-0.000246902
1.42256e-07
-2.61549e-07
8.17615e-05
-0.000395754
-0.000302603
5.08063e-05
-3.7736e-08
-0.00262113
-9.82284e-09
-2.20627e-08
1.45213e-07
-1.1069e-08
-0.000341946
-1.1916e-05
3.68261e-07
-2.14367e-08
-1.84403e-08
2.63498e-07
4.32872e-06
7.65836e-06
2.22486e-08
9.43902e-08
-3.05795e-05
-0.00034493
3.27661e-07
5.61194e-08
-9.84317e-09
-1.59234e-08
0.00188352
6.48842e-08
4.65639e-05
-3.73774e-09
4.15492e-09
-9.49151e-07
6.07531e-07
-3.05972e-08
2.32183e-09
-8.3426e-07
3.32668e-06
0.000614375
0.00090872
3.25124e-08
0.000607347
0.000624804
-4.17382e-09
5.15984e-08
-5.66136e-06
5.13504e-09
-5.78009e-07
-1.82122e-08
8.18126e-06
-8.12196e-10
5.92055e-08
2.37592e-08
-2.40291e-09
-2.85106e-07
-1.55678e-08
3.96031e-06
-2.15011e-08
-4.6658e-08
0.000145713
-0.000311228
-9.27056e-09
5.7683e-08
-1.4701e-09
2.66746e-06
7.47779e-10
4.66652e-08
-0.000650873
-1.31383e-08
3.66187e-09
-7.8125e-10
0.000677161
-1.49698e-08
0.00394622
0.000967741
-1.33278e-07
-2.09719e-09
0.00079408
0.000460148
-0.00100582
-5.24502e-07
2.20431e-08
-2.93139e-06
-1.4409e-06
-2.00215e-08
-5.96456e-06
-1.27236e-07
-0.000129227
1.31797e-06
-2.51535e-08
-2.10393e-08
-1.10553e-06
-0.000161368
-0.0001914
-1.82082e-08
3.52921e-06
8.64942e-09
-9.28538e-07
3.84094e-06
-2.17607e-08
1.07704e-07
1.61955e-06
-8.94097e-09
1.13779e-06
7.54837e-08
-0.000764079
-7.01685e-09
-6.65632e-10
-1.75592e-08
0.000172089
5.20821e-05
1.18894e-07
-7.00766e-09
3.68178e-06
3.93764e-06
8.16161e-07
1.03577e-07
0.000222416
0.000202106
-1.06031e-08
1.35728e-08
-0.0312181
-1.5456e-08
-9.04026e-09
7.25883e-07
4.44394e-08
-1.35324e-08
-2.64312e-09
8.7968e-10
-1.92566e-08
1.90566e-08
-9.1688e-09
-0.000100836
1.00564e-07
-2.72164e-08
-0.000104777
0.000400017
-7.94157e-09
3.11037e-08
0.000161523
-2.08068e-08
-6.49273e-09
1.0109e-07
0.000264832
-0.00129457
2.18504e-07
-1.50065e-08
-0.0029956
-9.54824e-09
2.50466e-07
0.000208748
-0.00104117
-3.0515e-08
0.0622415
-0.000179417
-0.000456141
-7.97424e-07
2.78097e-07
-0.000372383
0.000135345
-0.00155651
2.59478e-09
-0.000105986
-2.15886e-07
-4.11892e-06
-7.06655e-07
-3.87255e-09
2.04475e-07
2.21982e-09
-0.000126889
-2.01519e-06
-2.10661e-08
-3.97984e-08
2.79181e-08
-0.000385153
5.2553e-06
-1.52867e-08
-0.000216279
9.82084e-10
2.79835e-08
-2.92182e-08
0.000196637
1.01045e-05
-8.26615e-07
2.0902e-08
1.56628e-09
0.000156567
-1.27883e-08
3.01311e-06
-1.31976e-08
9.39197e-08
-1.08945e-08
8.41053e-09
-2.74428e-08
6.45074e-07
-9.72615e-07
1.03006e-06
-0.000370728
0.000167153
6.97643e-09
0.00077671
-2.23571e-06
-1.60991e-08
-0.00132363
2.86324e-07
0.000238335
2.76321e-08
-2.1285e-07
8.09175e-06
0.00393761
6.69927e-07
-0.000124262
1.07553e-08
-3.18471e-05
-4.05779e-05
8.96948e-09
-0.000140272
2.57124e-08
0.00128609
1.10313e-08
-4.86259e-08
1.59362e-06
-1.43671e-06
2.71984e-09
-1.01199e-08
4.58083e-08
-1.86566e-08
-2.61688e-08
1.00588e-07
-0.00167932
-1.0857e-08
6.297e-08
-2.03989e-05
-1.60797e-10
0.00172812
-3.66463e-08
-0.00121167
6.48969e-09
-1.47643e-07
-0.000179512
4.20289e-06
8.7346e-08
-0.000189528
0.000435085
0.000226177
-7.4685e-09
2.5696e-07
2.72055e-08
-2.05571e-07
-6.20245e-09
-5.72479e-05
0.00119703
0.00252504
5.84705e-10
1.74834e-06
-6.13426e-07
2.06106e-05
-2.47488e-08
-9.75721e-05
-4.61247e-06
0.002363
-4.0082e-08
0.00419375
3.30357e-09
-1.13899e-08
-5.55848e-05
2.70922e-06
4.2192e-09
-2.00566e-08
6.26114e-08
-2.02371e-08
0.00184719
1.88388e-07
2.88987e-07
-2.80619e-08
1.03855e-08
-1.45548e-09
0.00226419
-2.81974e-08
-7.36507e-10
-0.00132387
-0.000949294
2.85252e-08
6.74556e-06
-1.13212e-09
-9.92319e-09
1.55673e-09
1.08851e-06
-5.19042e-08
-2.59467e-08
-5.81405e-09
-9.59209e-07
-2.83702e-08
0.000213049
-9.35821e-09
-2.1419e-08
-0.000971085
2.98195e-08
-3.31076e-08
-9.43725e-09
-2.78539e-08
-3.29018e-08
2.59978e-05
-0.00152952
2.51558e-08
1.01332e-05
-1.71881e-09
-5.52213e-09
-6.44933e-05
-5.76414e-06
8.84538e-08
-1.896e-08
0.000250203
2.7109e-07
-0.000441244
-1.15327e-08
2.47287e-08
6.81462e-07
-4.78974e-09
-5.4606e-05
2.34257e-05
0.00209689
-7.43809e-09
-9.57322e-07
-1.43667e-08
-0.000233668
-2.13116e-08
6.43925e-07
2.53639e-08
1.88247e-08
1.20958e-07
1.40092e-07
-1.3126e-08
0.000100741
9.01197e-05
0.000540861
9.05256e-05
-0.00149629
-4.99619e-05
5.52992e-06
2.69458e-09
-1.12777e-09
0.00966584
6.11572e-09
-2.42356e-08
5.34437e-08
-0.000227792
-2.86012e-08
-2.02401e-08
-3.7419e-07
2.82283e-08
5.62024e-10
-0.000683371
-1.81123e-08
-0.000624855
-0.000391459
-3.12941e-09
-3.36733e-08
-3.98266e-07
-0.00109691
-1.34844e-08
0.00431832
-0.00491404
-3.37088e-08
5.40844e-05
5.08853e-06
7.27546e-08
-8.07569e-09
-0.00101339
0.000260387
-3.26048e-08
-5.65696e-06
-1.32182e-08
-2.06417e-08
-0.00152498
0.00138501
5.4497e-08
-5.13894e-08
3.30346e-09
-2.10219e-08
-0.000585676
-0.000176555
-2.66821e-08
-4.75715e-05
-2.68964e-08
-9.65095e-09
9.32146e-08
-2.06848e-08
-2.59838e-08
1.49432e-08
0.00017402
-1.03164e-06
0.000110234
-2.93013e-08
8.7251e-09
0.000131121
-3.79265e-09
5.88375e-07
-2.10172e-08
-1.14387e-08
2.42903e-08
-0.00123445
0.000222557
-7.88523e-09
-6.74154e-05
-3.26166e-08
1.14759e-07
-0.000622914
-0.000129755
-2.33689e-08
-1.2142e-08
-7.06681e-07
0.000203059
-2.17511e-06
-3.58812e-08
0.000798264
-2.08613e-08
1.76891e-09
-0.00139523
-0.00152303
9.33527e-07
-0.000434567
2.76404e-06
-7.40127e-06
1.41574e-08
-5.71975e-05
-4.72731e-05
-8.0561e-09
-0.000122706
0.00215322
8.08711e-08
9.60873e-08
-2.89011e-08
1.87845e-06
-2.18755e-08
0.00109387
-2.86781e-08
-8.46342e-09
-6.40065e-09
1.29547e-08
-1.04613e-08
-0.000152015
-8.66277e-09
3.80987e-06
-1.02174e-08
-2.04273e-07
-1.53642e-08
8.89701e-10
2.58951e-08
-4.5417e-05
2.82185e-08
-0.000244039
2.59864e-08
-1.8333e-08
-1.49386e-08
1.43993e-07
-3.75428e-09
-1.89154e-07
-2.42652e-08
6.42561e-08
-5.40602e-05
-2.05067e-09
-0.000166316
-1.37787e-09
-3.74615e-07
-5.22383e-05
-0.000745725
-2.17573e-06
0.00660901
-4.11061e-07
3.80225e-06
0.00134963
-2.84328e-08
2.28249e-05
8.47828e-09
1.74316e-08
0.000113106
-0.00251007
-1.68673e-08
-1.46716e-07
-3.11798e-08
3.86148e-05
-0.000107046
1.23375e-09
-1.08872e-06
0.00236233
-1.08163e-09
-8.84827e-10
-1.75052e-07
-0.000172443
-3.45037e-05
-6.36351e-09
1.02134e-06
-2.78352e-08
1.33901e-09
-4.08718e-05
1.63247e-06
-1.06125e-06
-2.64109e-08
1.81807e-07
3.47362e-07
-1.19152e-07
-7.52503e-09
1.52345e-09
2.31757e-10
2.50111e-08
-1.15234e-07
1.44708e-07
1.00729e-07
5.79851e-08
-0.000518455
3.71598e-06
-0.00304115
0.0063341
-7.20864e-07
0.000215123
-4.5387e-09
-0.00148049
-7.3006e-11
-2.1987e-09
2.73844e-09
-1.59339e-06
3.1444e-08
-1.81117e-09
-2.37165e-09
-3.53574e-07
-0.000112168
-2.04265e-08
0.000826357
-1.91105e-08
-0.000168692
8.50423e-07
0.000132308
-1.21259e-07
6.12298e-09
-2.43787e-08
0.000133596
-5.68236e-07
2.07116e-08
-4.23943e-06
9.10649e-09
-0.00563578
-3.60921e-07
2.94627e-06
2.44742e-08
-1.51458e-05
2.6425e-09
-8.00441e-10
-5.80128e-09
1.41382e-09
-0.000683074
-1.88809e-08
-3.16757e-05
0.000175118
-1.273e-07
-0.000259352
0.000221181
3.30229e-06
-1.27819e-06
-4.73022e-07
-1.96239e-11
1.42691e-09
-1.766e-08
-1.32191e-08
-9.44038e-09
1.58112e-07
-1.19476e-06
-2.14002e-08
-0.00226212
1.36101e-08
-8.08041e-05
2.06086e-10
-5.6551e-05
-7.7877e-10
-7.49949e-10
-9.17495e-10
-0.000627468
7.22009e-11
-0.00239369
0.00154362
8.15621e-08
2.40113e-07
-3.48765e-08
-0.000877183
2.48241e-09
-2.75402e-08
-6.13624e-05
-4.88251e-10
-2.10315e-08
-1.74391e-08
-1.26556e-08
-0.000113354
1.92022e-08
2.5669e-08
-1.31057e-05
-0.00015747
-4.78396e-08
-2.5101e-08
-0.000391201
-1.84831e-08
-0.000240587
-6.23653e-09
-2.99002e-08
-0.00420236
3.1998e-07
1.19916e-06
1.00392e-07
6.31508e-08
-4.26364e-10
1.13455e-10
1.05626e-07
1.16617e-08
2.97685e-10
-2.13879e-08
2.15241e-05
-1.22303e-08
5.85715e-06
-0.00258485
-0.000903618
2.0936e-07
0.000461724
-2.66003e-07
-5.34198e-10
8.08016e-07
-1.63138e-08
-1.14668e-08
-0.00350976
0.000220663
-0.000638879
-0.000630422
8.2703e-09
-1.27116e-09
-1.04013e-07
-3.68677e-09
-1.13711e-08
0.0038761
-4.04756e-07
-0.000138732
-3.88039e-07
3.43545e-07
2.54926e-09
-1.52695e-08
0.00240346
2.79112e-07
-2.9434e-08
-4.38683e-10
1.34024e-06
2.57061e-07
0.000967493
-9.45406e-09
-6.81186e-09
-0.000113289
-6.71355e-09
2.41949e-08
-1.96611e-08
-0.000181697
-2.67087e-08
-7.46911e-05
-1.74873e-09
-1.44229e-07
5.36775e-08
1.71008e-08
2.5405e-08
-8.39739e-09
-1.67359e-08
-1.26575e-08
-4.0359e-06
-1.34619e-08
-0.000172086
5.61807e-09
0.0012025
1.56924e-06
2.08658e-08
-1.75526e-08
-1.04395e-05
-0.00134222
-6.23823e-09
2.66668e-07
1.64041e-09
-0.000146223
-1.46496e-09
3.87582e-07
-5.58487e-09
-1.26048e-08
-0.00265253
2.37165e-08
-9.61471e-09
-2.02362e-08
5.5376e-05
5.36648e-05
0.00230061
-1.93188e-08
0.000216592
-5.58474e-09
-1.2344e-08
-1.19955e-08
-3.88008e-08
-6.6105e-10
0.000543968
-0.00450898
-1.47274e-08
-8.88939e-09
3.29194e-08
-2.17243e-08
-3.07343e-05
7.84875e-07
0.000172245
-0.000352527
-1.45755e-08
-4.29793e-09
-7.01179e-09
7.00916e-08
-3.02959e-07
-2.81939e-08
-4.2515e-09
0.000823501
-9.74951e-05
2.32234e-07
-3.59144e-05
1.83956e-07
-4.1437e-09
5.10966e-08
2.81489e-07
-7.16715e-05
1.09415e-08
-0.000349552
2.98202e-07
-3.4236e-09
-0.00131997
-0.00202376
-0.000119507
-0.000945923
-0.00123667
-6.7627e-09
-3.32551e-06
-1.96771e-09
6.87757e-05
3.03625e-08
-2.05958e-08
0.0020141
8.69089e-09
-1.58776e-08
-2.08e-08
5.47655e-09
-0.000118277
-1.19013e-06
-1.6428e-08
3.3543e-10
0.000205005
2.02708e-08
-4.06649e-05
-1.56681e-08
3.34751e-07
0.00126929
-1.10121e-08
-3.53844e-06
3.08881e-08
2.51625e-08
-3.34667e-05
1.06496e-08
2.93618e-06
-1.42537e-07
0.000180338
-3.4643e-08
-0.000152496
9.02719e-09
0.000451157
-0.000178734
-0.000170407
7.46101e-08
-4.52199e-09
5.7371e-09
-7.34865e-10
-4.11052e-08
-4.01008e-09
-0.000180668
3.31535e-08
-1.84091e-09
-1.39804e-07
-7.08769e-09
-1.87059e-08
-1.85247e-08
3.08604e-08
-3.36014e-08
3.36617e-08
-0.000719568
-6.19123e-05
1.09645e-09
-2.04973e-08
0.00159324
-2.08721e-08
-0.000376439
-1.81169e-08
2.42687e-07
-1.2238e-08
-7.81735e-09
-1.58097e-08
-4.39109e-09
-1.7917e-08
-7.1374e-07
2.0524e-09
4.33681e-06
-2.91087e-09
-0.000110802
0.000129646
1.40975e-06
-6.24382e-06
-1.43573e-08
-0.000225403
7.4526e-07
-2.30214e-09
3.14419e-08
-2.01006e-08
-0.00045629
-1.27336e-08
-1.27455e-08
-0.000319952
-1.03031e-05
-3.39064e-08
6.66318e-09
-0.00114385
-0.000193614
-0.00123226
3.34099e-08
-1.85516e-08
-2.88642e-08
2.24476e-07
-2.29494e-10
0.000265104
4.97508e-07
-1.53097e-09
-2.30093e-06
-4.45965e-06
-1.81397e-08
-0.000656004
-9.49893e-05
8.24682e-07
8.07724e-09
-0.001198
1.82564e-07
-7.46676e-09
-0.000116362
1.64275e-08
-1.11753e-08
-1.05805e-08
-1.66891e-08
-4.10972e-08
6.38112e-05
0.000159915
-1.2471e-08
-0.000169587
-6.88936e-09
7.57618e-09
-5.09424e-06
-1.36182e-09
-0.000383636
-2.72707e-08
-1.23219e-08
1.04346e-08
1.18068e-08
0.000206507
-0.000200385
-5.06925e-07
0.000210475
-0.000955295
-2.519e-08
-1.56975e-08
-1.7084e-09
4.70849e-06
-2.86997e-08
-3.29482e-08
-3.0233e-08
-0.00396666
-4.69193e-06
-3.67612e-08
1.87019e-07
2.6464e-08
9.23917e-07
-5.28314e-05
-3.48963e-08
-2.69589e-08
-3.22672e-08
0.00228559
-2.11599e-08
-0.000494483
-1.36521e-09
-6.66213e-09
-1.28162e-08
-1.4918e-08
2.43774e-08
2.39769e-06
-1.9581e-05
-0.00060722
-3.30805e-07
-4.80599e-09
-0.00142451
-3.33553e-08
0.00659323
0.000258353
-1.06865e-08
-7.25685e-05
-0.000548751
0.000261839
-7.26265e-08
1.0559e-08
0.000276488
7.18776e-09
2.46295e-08
-1.23571e-07
1.9047e-05
1.60113e-08
-7.21046e-06
7.42035e-09
-0.00251095
0.00364878
-1.82052e-08
-6.80709e-09
2.80672e-08
3.52835e-07
2.27209e-08
-8.37925e-09
-1.87733e-08
-9.22659e-09
-2.825e-08
-7.6832e-06
-2.68207e-09
-0.0013201
-0.00011826
5.98037e-09
2.40397e-09
-3.98758e-08
-8.39903e-09
0.000179324
-0.000121822
-0.000293649
-0.000129525
-3.78034e-09
2.63086e-08
2.62706e-08
-1.7135e-08
-1.76923e-07
2.2768e-08
-7.29713e-10
1.09013e-07
1.53127e-08
-0.00175244
4.94027e-08
0.000149695
-7.17438e-09
1.81124e-08
7.42336e-07
4.92391e-07
2.51812e-07
-2.37945e-09
-9.46781e-05
0.000320441
0.000315031
-1.13797e-05
-0.00232714
-0.000265608
0.00045476
1.18973e-09
7.87675e-09
-2.08029e-08
-3.30759e-06
-4.54007e-08
2.31884e-07
4.45665e-05
-3.47258e-08
-2.25443e-08
4.80035e-09
6.73498e-07
-1.80267e-08
-2.39674e-08
1.02142e-08
4.09044e-06
-1.94424e-08
-1.65118e-08
-7.33301e-09
-2.70443e-08
-8.21847e-09
3.05649e-08
5.73672e-09
1.50186e-08
0.00257884
5.30627e-09
-1.77582e-08
-0.000453819
-0.000378695
-0.000115213
0.000487405
-9.85041e-08
-0.00048908
-1.9728e-08
-2.22493e-07
1.95924e-08
-3.72828e-09
-2.78002e-08
-9.50372e-05
-2.87349e-08
4.40939e-07
-0.000655689
-3.16478e-08
-1.02992e-08
1.62079e-08
2.32008e-06
-4.89111e-10
-8.43213e-05
-2.17804e-08
-2.46932e-06
-9.1827e-10
-1.18551e-08
-7.8316e-09
2.38163e-07
-7.20554e-09
0.000180165
-0.000260754
4.53789e-07
-0.00135803
4.38129e-09
-6.31205e-05
0.000167338
1.1928e-09
0.00419186
-1.39772e-08
1.42487e-06
-1.04457e-08
-3.16612e-08
-9.6649e-09
1.45471e-10
9.00918e-10
-3.78449e-08
1.90839e-07
7.65113e-09
-2.45756e-10
3.67815e-06
-1.88733e-08
-0.0011613
-7.54928e-10
1.61252e-08
-1.59801e-08
0.00038674
0.000374517
-4.90397e-09
1.19602e-06
-1.99787e-08
-2.16653e-08
-1.30481e-07
0.000718391
7.8663e-08
-9.84296e-10
-3.3936e-08
-7.49542e-07
3.88359e-07
-5.47151e-05
4.02484e-08
-8.61129e-07
-3.22874e-09
2.37854e-07
-2.0249e-08
-6.10336e-09
-0.00203588
-9.06342e-06
2.45723e-08
-7.46809e-09
-4.78182e-05
-1.76876e-08
8.20258e-08
-8.07011e-10
2.20912e-07
0.00352926
-3.32542e-08
9.3079e-05
-5.49034e-09
-6.11056e-09
-7.29762e-08
-1.96713e-08
8.27409e-07
-0.000114583
5.18496e-08
-0.00155974
-1.08783e-08
-1.60505e-09
2.28784e-06
-6.33897e-10
-1.68613e-09
-2.03869e-08
4.26164e-09
2.07135e-07
5.9866e-08
-1.74111e-08
1.64077e-07
-7.75205e-09
-6.69172e-09
-8.10797e-10
4.34748e-10
-0.00184086
-2.27958e-08
-1.50702e-08
9.75036e-06
-1.82462e-08
-7.42531e-09
-1.36543e-05
-6.08454e-10
-0.000102996
-3.11706e-08
-2.23865e-05
3.11605e-06
-3.38312e-07
0.000339488
7.99692e-09
1.59608e-05
-6.60024e-09
4.04199e-08
2.56889e-08
-6.96553e-09
-2.48297e-08
-1.27798e-08
7.15037e-09
-2.5825e-08
8.83905e-09
-1.10881e-08
2.06683e-08
-4.68128e-05
1.97153e-05
-0.000661873
-2.95596e-08
-1.91628e-06
0.00025385
-0.000239575
-3.43623e-09
-2.52413e-08
-7.76573e-05
-1.44704e-08
1.42994e-08
-0.0738209
-0.000710908
-2.4579e-08
3.29567e-08
-8.92502e-10
-3.32394e-06
7.13561e-10
-5.47763e-08
-0.00349901
-2.25445e-08
-2.62752e-08
-0.00057492
-2.98054e-09
-5.5437e-07
-0.0015078
-3.65778e-07
-2.14938e-08
-1.11678e-08
-1.04397e-08
-8.38107e-05
0.006228
0.0018955
8.50303e-08
3.01515e-09
0.000373204
-4.82081e-09
-2.50982e-07
-4.30254e-07
-3.19892e-08
9.55588e-08
-4.31701e-09
0.000639199
-0.000584586
-4.24904e-08
2.12767e-07
-4.17701e-08
0.00872221
7.60189e-08
-8.35243e-08
-1.30993e-07
-9.41368e-09
-1.44149e-05
-4.77886e-09
-3.42392e-09
-5.10316e-10
-4.93884e-06
-0.00103878
-2.76228e-09
-0.000146702
6.49036e-08
-1.27205e-07
-5.90095e-10
-0.0011237
-2.26031e-08
-5.64967e-09
-1.30921e-08
-6.40024e-08
-2.13193e-08
-1.73998e-07
-1.21531e-08
-6.23126e-09
-1.99917e-08
-7.69422e-05
7.17528e-08
-2.94614e-09
-1.08257e-08
-8.58073e-09
1.59012e-07
-4.50491e-09
-1.48731e-09
-0.0442697
3.37055e-08
-0.000695584
-4.05e-08
0.000184421
4.5723e-06
5.74568e-10
0.000492998
-4.48647e-09
2.77629e-08
-2.27835e-09
2.46296e-08
4.66745e-09
-4.38497e-09
3.99693e-08
2.129e-08
2.06969e-08
1.23963e-08
-1.90461e-08
1.22202e-06
-2.59146e-08
1.53088e-08
-0.000152111
2.97855e-08
-1.08455e-07
-3.62926e-09
-0.00010739
1.00598e-08
-1.50341e-08
-2.2949e-08
2.4085e-08
0.000313463
8.73893e-07
-2.27834e-09
-0.000918938
1.28801e-05
-8.83752e-05
4.57799e-07
-3.58893e-06
-1.38293e-08
2.06362e-06
-3.49798e-08
-1.20881e-07
-0.00613722
0.00017146
8.26231e-07
-0.000613116
-3.08475e-09
0.000232268
-1.36917e-08
1.97513e-07
1.34587e-08
-0.00118282
0.0011955
-1.85502e-08
-1.52573e-08
9.26767e-07
3.3727e-07
3.84142e-09
-0.000154098
-4.56903e-10
-6.13775e-09
-2.64978e-08
-7.72947e-09
2.57978e-08
-4.96274e-09
4.35831e-09
1.56488e-08
1.76195e-05
5.68098e-08
1.11526e-07
3.92199e-09
0.000227721
0.000249909
-1.52886e-08
-1.84846e-06
1.24317e-08
8.60131e-09
0.00160855
-1.31848e-08
-2.19209e-08
6.58903e-10
0.000432004
1.13996e-09
-5.98426e-09
7.11211e-08
-0.000898424
-1.474e-08
2.07841e-08
1.76647e-07
-0.000752566
5.31117e-09
5.65618e-08
-1.29135e-06
-5.88591e-10
2.04839e-06
-2.10772e-08
0.000383613
2.80362e-08
2.28372e-09
-2.27211e-08
1.54863e-07
-7.44631e-09
-1.6163e-08
9.41139e-07
-0.000547954
-3.40496e-08
0.00045291
-4.75913e-09
-2.0132e-08
1.76523e-07
-3.27777e-09
-2.31927e-08
0.00307479
3.22262e-10
7.57794e-08
-2.61497e-07
-0.000470697
-0.00019087
-3.05351e-08
-3.33869e-08
1.94256e-08
-1.01752e-08
-9.44303e-10
-8.52997e-09
-0.000800009
-2.84844e-09
-8.47641e-06
1.01187e-06
-2.60676e-08
-1.92313e-08
1.51756e-08
1.01366e-06
1.42449e-05
-2.41256e-08
9.7685e-09
1.42336e-08
-0.000206375
2.82091e-07
-2.16856e-08
3.36831e-08
3.71581e-08
1.42061e-08
0.00141623
-3.57216e-08
-0.000163614
0.00151242
-0.000259629
-2.64796e-08
-2.33422e-08
3.96636e-08
-3.32164e-07
-1.36875e-08
-3.47164e-08
3.37843e-08
-3.24251e-09
1.00129e-08
-4.55952e-09
-2.82405e-08
-3.47998e-08
-8.68123e-09
-0.000110712
-1.62357e-08
0.00883485
-9.5901e-09
-5.49759e-07
1.39176e-08
9.04692e-07
-1.2987e-07
-4.26745e-09
-0.00394694
3.87447e-08
-1.1149e-09
4.03897e-08
-8.06676e-09
1.3005e-08
-6.18495e-09
-0.000128215
2.23469e-08
7.1142e-08
2.21423e-06
-0.0040899
2.47713e-08
-1.38408e-05
0.000274696
7.04388e-08
-1.24586e-08
-1.29125e-08
-1.47449e-07
1.16859e-07
-0.000171155
-1.32597e-08
6.40665e-05
-2.41506e-08
2.81124e-06
0.000406493
3.75361e-08
-0.00162005
2.76083e-08
1.76733e-08
1.59535e-08
0.000100971
2.79916e-08
-9.72694e-09
2.8231e-08
2.64136e-07
2.1911e-08
4.14352e-09
-8.49211e-09
-1.44165e-05
2.86929e-11
2.26962e-08
-0.000693255
2.63421e-08
-3.02334e-09
7.18945e-08
2.81339e-08
-0.00529472
-2.17952e-08
7.49757e-09
-1.51875e-08
3.79434e-08
-4.50232e-09
-8.34422e-09
1.82678e-07
-4.74775e-05
-6.34149e-09
-4.91087e-10
0.00204295
-3.39271e-08
9.07653e-05
-1.98959e-08
-0.000936787
-1.27951e-08
3.14565e-09
-1.9674e-08
-0.000105559
-0.0013846
1.10615e-07
-4.49175e-08
-2.0078e-07
-2.7617e-08
-1.09869e-09
-0.000252199
-9.99874e-09
1.02866e-07
-3.47678e-08
-4.54099e-08
-1.45495e-09
0.00252383
-1.85066e-08
1.50897e-08
-2.74418e-08
-1.22554e-05
4.24056e-05
-1.11291e-08
-4.52663e-09
0.00279688
2.34497e-07
0.00039483
-0.00154528
3.08988e-06
-7.78805e-09
2.52961e-08
4.16094e-07
-0.000349566
-3.1501e-08
-3.26525e-08
-2.89487e-09
-2.16721e-08
-0.000160915
0.000128747
2.02004e-07
1.01671e-06
2.18497e-06
2.9392e-08
6.48741e-05
-1.37399e-08
-1.18544e-08
7.6408e-08
-0.00196001
-9.73894e-07
2.02081e-07
-0.000267283
-2.00639e-08
-0.00102001
-0.000215864
0.00148707
-4.96971e-09
-0.000118913
0.000319577
-0.000157086
-2.46751e-05
0.000330462
2.42012e-07
2.23134e-08
-1.01579e-06
-8.6068e-08
-2.82213e-08
0.00042113
3.16448e-07
-2.0295e-08
0.000396409
-3.98155e-09
-3.47928e-09
7.33121e-08
3.01787e-09
-0.000687374
-3.87239e-08
-2.35382e-05
-1.38503e-08
8.23893e-08
0.00184029
0.000743133
1.00331e-06
-2.73263e-09
-1.03616e-08
1.68459e-07
-4.13642e-07
-1.86799e-08
4.68319e-08
5.97994e-08
-4.77879e-07
-2.19737e-08
-5.35611e-07
1.48432e-08
1.47492e-08
-0.000770031
-2.04102e-05
-8.05451e-09
-1.29042e-07
-0.000116142
-2.13213e-08
-9.57445e-10
0.000618339
-4.00318e-06
2.56978e-08
-2.57839e-09
-9.15402e-09
-5.68354e-08
-2.7832e-08
-0.000377971
-7.24985e-08
-2.12297e-08
-4.65665e-09
-2.83531e-06
2.58639e-08
-0.000124282
1.91462e-05
-2.27435e-08
4.83116e-10
3.06878e-08
-4.76643e-09
2.70731e-09
4.50732e-09
8.37924e-09
-1.49963e-08
-1.42754e-08
1.65552e-08
-4.43706e-09
1.62907e-08
-0.000864108
-1.53062e-09
0.00235125
-3.75492e-05
-2.13002e-08
2.00325e-06
-2.14408e-06
-1.74233e-07
-2.06498e-08
3.01021e-07
-1.02697e-08
6.40582e-07
3.4488e-10
2.17038e-08
-4.67339e-09
-0.000150145
-1.76159e-08
-0.000604679
-2.18305e-08
4.42895e-09
-5.31185e-10
-7.18472e-08
-6.35787e-09
8.17174e-08
8.31803e-08
-0.000127976
-9.60936e-09
4.75498e-05
0.00125995
0.000272302
-1.92887e-08
3.32304e-07
-1.03358e-06
0.00261802
-5.37724e-05
-2.84918e-09
-1.11884e-08
8.87662e-07
-0.000247316
-0.000959447
6.54667e-08
1.17326e-05
-4.47414e-09
-7.05811e-09
2.74479e-08
-3.30644e-09
-1.22507e-09
6.13593e-07
-1.08417e-09
1.97516e-06
-1.15823e-08
0.00148856
-0.000385963
-0.000598571
-0.000518707
0.000309749
-3.99806e-09
-5.44045e-09
0.00354022
-1.13231e-08
-9.32843e-09
-1.80539e-08
8.99012e-09
-0.000995396
-0.000160838
1.84883e-09
-3.37043e-08
1.98426e-08
2.10631e-08
0.000161156
-1.21992e-08
-0.00126656
0.00150544
-3.98085e-09
6.42528e-12
-0.000169659
6.60878e-08
-3.04192e-08
3.59803e-09
0.00207045
0.000352609
-7.63258e-09
-1.25667e-06
-9.3565e-10
0.000304111
0.00973079
-2.11142e-08
-0.000672214
4.48411e-05
0.00107363
-1.34932e-08
-3.22211e-08
-7.44752e-10
-1.14407e-09
-0.000752726
-2.41834e-08
-9.88569e-06
-1.20794e-06
-0.000168407
4.88362e-09
1.34335e-08
4.50789e-05
1.00147e-08
0.00293907
-0.000180907
-2.30585e-08
-2.43435e-08
-2.1581e-08
-2.92458e-07
-0.000739617
-2.74655e-08
-0.000109626
1.51813e-07
4.21407e-08
-2.1148e-08
-1.41884e-08
3.58997e-06
7.80106e-08
-9.53446e-05
-3.54626e-09
3.50128e-08
9.68067e-09
6.5051e-07
-2.62057e-08
0.000124381
0.00104598
-3.33677e-05
-2.92073e-07
-1.91791e-08
1.22096e-08
3.00112e-07
3.73446e-06
0.000116388
0.00360594
-7.72974e-09
-0.000451018
9.82248e-07
-0.000428047
-1.65033e-08
-2.98883e-09
2.3749e-08
5.46209e-09
0.00204126
-6.72643e-09
1.45109e-08
-0.00016546
0.0013003
0.000387626
-0.000665094
2.5329e-08
7.41292e-08
-1.37844e-08
0.0014017
2.69232e-08
0.00558779
-1.59625e-08
-0.00540299
-3.32363e-08
2.07172e-09
1.39383e-08
1.14647e-08
2.16973e-08
-2.81173e-08
-0.000255407
-1.19415e-08
-2.46221e-08
5.58321e-08
-0.000122401
0.000185177
5.84462e-09
-0.000282066
2.45463e-08
-4.61957e-09
-1.54732e-08
-2.36521e-08
8.25764e-08
3.54474e-09
-0.00195883
-1.14878e-07
-2.1643e-08
7.447e-09
3.06676e-08
3.08495e-08
-1.62946e-08
0.00183549
0.000807182
6.11424e-06
-4.28333e-08
4.12579e-05
-4.95146e-09
5.30517e-07
-2.35138e-08
7.70436e-08
0.000308822
-0.00020096
-1.63855e-07
-0.000847315
2.54923e-08
-7.29394e-08
-1.8872e-08
-0.00139013
-5.26161e-07
-1.45508e-07
3.94759e-06
-3.37491e-09
-0.00166489
1.36183e-07
-4.70701e-06
2.29148e-06
0.00192715
-0.000258783
-0.000704769
-5.26867e-05
-2.96591e-07
7.57976e-09
-7.02643e-09
4.87492e-09
-2.50853e-08
-3.26779e-08
3.10266e-08
-8.49768e-09
0.000363087
-9.85329e-09
-1.66184e-08
-1.55337e-08
2.92993e-07
-1.05654e-08
-2.7693e-08
0.000492484
7.82206e-09
-1.67383e-08
-2.90005e-08
-0.000111184
8.4754e-09
0.00105423
7.49868e-07
2.48147e-08
1.79482e-08
-6.43022e-09
-2.37674e-05
4.50669e-05
4.61425e-08
-3.01082e-08
-1.78627e-08
-7.37766e-05
-0.000318774
-4.18354e-05
-1.08918e-08
4.10537e-08
-5.02952e-06
-6.88395e-09
-6.91926e-09
-1.09572e-08
-0.00097589
-1.68094e-07
2.56886e-08
-1.85739e-08
-2.73694e-08
-0.00304445
2.56667e-08
6.89988e-06
-2.23185e-08
1.54815e-08
-2.9292e-08
-2.34472e-07
1.81021e-08
7.71183e-09
0.000116375
-7.12745e-05
7.33907e-05
-0.000571119
0.00023159
-0.000769662
0.00241972
-6.21927e-09
-2.48684e-08
-0.00261711
0.000218041
0.00269281
-2.91978e-08
6.05958e-08
1.75592e-09
-8.32427e-09
-0.00176776
0.00147059
2.01837e-07
1.49347e-09
-8.27152e-07
3.50175e-07
1.04743e-07
0.000345661
-0.000112708
-5.37139e-06
-1.73491e-08
9.91548e-05
-0.000388548
1.08886e-07
-1.22714e-08
7.37602e-08
-2.54415e-09
-1.55086e-08
3.2779e-08
-2.76302e-08
2.44544e-08
2.60057e-08
-1.12053e-08
1.5074e-08
-6.65165e-07
-0.000134197
1.09328e-08
2.19299e-08
0.000258375
-1.9456e-06
-1.2664e-09
5.32238e-06
3.3895e-06
-0.0001148
-1.3681e-08
5.98218e-09
3.01379e-09
2.77762e-08
4.81266e-08
-2.27661e-08
1.19876e-07
-6.34503e-09
3.63333e-08
-9.97145e-07
-3.35077e-09
2.04233e-08
-0.000248515
-0.000849882
0.000350026
-3.13276e-05
-1.87677e-07
-3.32613e-08
8.9552e-10
1.11317e-08
-1.39453e-08
0.00233036
4.07038e-09
-4.25353e-10
-1.674e-08
0.000203941
0.0122157
-2.14496e-08
2.03769e-07
3.19056e-08
2.91457e-08
1.30887e-08
-4.70819e-07
5.16154e-08
4.01096e-08
-3.07789e-06
-2.07767e-08
0.000334449
-1.84025e-08
-0.000116203
1.86549e-08
-1.75027e-08
-1.89067e-08
3.07176e-07
9.46371e-07
-1.94318e-08
3.76378e-08
1.72483e-08
9.6359e-09
-0.000699861
-0.000420599
-0.00589479
-3.22474e-10
-0.000186722
2.74685e-07
6.71095e-08
7.21783e-09
5.21075e-08
1.18086e-08
-0.000172679
0.000263378
5.55226e-08
-4.03767e-09
-0.000657322
-7.0211e-08
4.11518e-05
0.000312827
-6.32536e-07
2.02123e-08
2.29051e-07
-0.00486349
-0.000126494
0.000370687
5.61621e-08
-7.39239e-10
5.62571e-08
-1.55878e-08
0.00160327
1.58926e-08
2.74584e-08
6.94152e-07
-0.000446321
-3.0934e-09
-2.69497e-08
-0.000164254
1.82562e-08
-3.80607e-05
4.6472e-07
3.08984e-09
7.64637e-08
-2.49331e-06
4.30681e-08
0.000585751
2.69415e-08
4.22662e-05
1.70361e-08
5.44331e-10
-2.77021e-08
1.0106e-08
-1.44311e-08
-4.76054e-07
3.28714e-09
-5.01922e-09
-1.68039e-06
-2.77886e-08
6.61458e-09
-4.07646e-09
1.21546e-08
0.000148493
1.73202e-08
2.41819e-08
-9.13779e-10
5.97733e-08
-2.40961e-08
-1.53941e-06
1.22176e-08
8.1601e-08
-2.06082e-06
-1.87653e-08
2.59196e-07
4.09885e-07
-1.51708e-08
2.12854e-07
0.000683152
-0.00014139
-1.02333e-08
0.000899785
-6.91603e-05
-1.7257e-08
-8.6551e-09
1.86066e-06
0.0004509
2.24379e-07
-0.000153555
1.92878e-06
-3.26581e-08
3.67763e-07
-2.53783e-08
-1.53191e-08
6.06453e-08
-0.00284399
-4.00336e-06
-3.14324e-06
2.39125e-05
-8.74478e-05
0.000185579
-3.10546e-08
0.000141054
7.12444e-09
-0.00112974
0.000163003
-7.90863e-09
-1.2606e-08
-0.000121206
-2.16849e-09
-5.11019e-09
-6.11829e-05
-0.000165117
3.27471e-06
-2.83953e-08
0.000245382
-1.22323e-08
-0.00107927
-7.15897e-05
-5.04942e-09
-2.84222e-05
0.000696057
0.000260032
-0.000142686
-0.000168057
-0.000110747
-1.47096e-08
-1.1333e-08
1.35781e-07
1.79418e-07
-4.26853e-09
-1.17732e-06
4.65007e-09
-0.000257393
1.40952e-05
-2.06586e-07
6.84663e-07
-0.000325067
1.68185e-05
-1.29641e-06
1.46009e-06
-9.98351e-05
-2.57439e-05
-2.94371e-08
-1.99328e-08
-0.00053884
1.05518e-08
-1.14743e-08
-0.000796385
-6.5611e-09
0.000241159
-2.69902e-09
0.000220902
-2.88388e-08
1.46441e-09
-0.00219742
-1.05928e-09
-4.39465e-08
-0.000150871
0.00469271
-0.00133272
-2.2974e-08
-5.25001e-08
-1.52849e-08
-1.72647e-08
4.51526e-07
9.31459e-09
-2.37539e-10
0.000433668
2.00613e-07
2.85394e-08
-0.000125801
5.52414e-08
2.32987e-08
-2.5589e-06
1.76882e-07
2.90085e-08
5.23973e-10
3.39525e-07
-1.8292e-08
1.66549e-07
-2.19314e-05
0.000264517
-1.46745e-08
5.23045e-08
4.02396e-05
-3.03947e-08
8.00158e-08
-2.01472e-08
8.71679e-08
-0.00140367
1.56787e-07
-9.94442e-09
0.0118781
-1.32097e-08
-0.000434863
-8.62554e-09
-1.04736e-08
2.16002e-07
-2.83162e-05
2.94549e-08
5.71774e-06
-1.19567e-05
-1.31672e-08
4.85397e-09
4.85386e-07
9.20282e-08
0.00025914
-6.78315e-09
0.000148403
7.14075e-07
-1.7583e-08
7.13708e-09
-3.7207e-07
2.25359e-08
-3.83219e-07
1.54073e-07
1.12017e-08
1.79743e-08
-3.37232e-08
0.00055991
-3.83122e-09
1.38093e-08
-3.28104e-08
8.26499e-07
9.48349e-09
1.89457e-07
0.000397124
-1.90785e-08
1.04279e-06
-3.37523e-08
-5.01396e-09
-4.60489e-09
3.31173e-10
-2.39107e-08
-4.07434e-09
4.00297e-07
0.000194603
1.31287e-07
7.53157e-08
-3.05738e-08
-2.07919e-09
-1.95076e-05
-2.35569e-08
-0.00560035
0.00277082
-4.89643e-05
3.94804e-07
2.94154e-08
-2.56064e-08
-3.71522e-09
9.54291e-10
2.38534e-06
-1.78048e-08
0.000398416
1.65944e-07
-0.000653047
-6.73732e-07