/*--------------------------------*- C++ -*----------------------------------*\
| =========                 |                                                 |
| \\      /  F ield         | OpenFOAM: The Open Source CFD Toolbox           |
|  \\    /   O peration     | Version:  v2012                                 |
|   \\  /    A nd           | Website:  www.openfoam.com                      |
|    \\/     M anipulation  |                                                 |
\*---------------------------------------------------------------------------*/
FoamFile
{
    version     2.0;
    format      ascii;
    class       volVectorField;
    location    "750";
    object      ddtCorrDdt0(U);
}
// * * * * * * * * * * * * * * * * * * * * * * * * * * * * * * * * * * * * * //

dimensions      [0 1 -2 0 0 0 0];


internalField   nonuniform List<vector> 
13917
(
(-0.0086119 0.00147909 -6.60412e-18)
(-0.00178517 0.000285361 -1.33037e-18)
(-0.123131 0.0136793 -9.27074e-19)
(0.00109251 -0.00043808 -2.23925e-18)
(-7.39689e-05 -0.0010693 4.28663e-18)
(-9.0665e-05 -0.0036511 -1.43571e-16)
(-0.111394 -0.0312273 -8.39814e-18)
(-0.136684 0.0500835 -3.30508e-18)
(-0.0388442 0.06348 5.107e-18)
(-0.0132157 -0.000125647 -1.37e-17)
(0.0438539 -0.014483 -8.0659e-18)
(0.0126453 -0.0101422 -3.25552e-19)
(0.0011423 -0.000550125 1.36194e-18)
(-0.120943 0.0146032 -1.95691e-17)
(-0.0026394 -0.0021355 3.36999e-19)
(-0.00301038 -0.00136925 5.03067e-18)
(-0.00194105 -8.60301e-05 -5.47354e-18)
(-0.00148383 0.0167791 2.39915e-18)
(0.0118875 -0.00998226 2.306e-19)
(-4.90895e-05 -0.000232437 -7.14656e-18)
(1.48395e-06 7.194e-05 -8.85812e-19)
(-0.114686 -0.0318873 4.65894e-18)
(-0.000146828 -0.000577892 -1.18104e-18)
(-0.124161 0.0468824 2.3647e-18)
(-0.000538638 -0.001736 1.01455e-18)
(-0.0615888 -0.0682693 5.93196e-18)
(-0.000319131 -0.00398408 -7.51514e-18)
(-0.000605533 -0.00436123 1.12881e-17)
(0.00329117 -0.00703964 7.22858e-18)
(-0.0201682 0.00860248 -3.43147e-17)
(-0.00938431 0.00289126 3.73907e-18)
(-0.00499951 0.00169111 1.92298e-18)
(-0.000757675 -0.00371646 -4.69303e-18)
(-6.61412e-05 -0.00303266 3.87764e-17)
(-0.000415574 -0.00195474 2.39442e-18)
(0.0475158 -0.0457814 6.88082e-19)
(-0.000123552 -0.000522576 2.63831e-18)
(-0.102075 0.0386111 1.67396e-17)
(0.00183977 -0.00126638 2.63412e-18)
(0.00332194 0.00144635 1.12389e-17)
(-0.000337632 -2.90912e-05 -1.51966e-18)
(-2.93684e-07 3.96136e-05 -2.27668e-18)
(0.000108817 0.00033265 -9.57148e-21)
(-0.000240989 -0.00471303 -2.99785e-17)
(-0.000781792 0.00167697 1.59154e-18)
(-0.000347951 -0.00320869 2.00549e-17)
(-0.000628634 0.0164056 8.32907e-18)
(0.0105336 0.0213076 -2.23255e-17)
(0.000557668 -0.00251847 -1.9107e-16)
(-9.96768e-05 -4.71383e-05 7.10787e-19)
(0.00145344 0.0048925 -6.18863e-18)
(-0.00032883 -0.00258477 -3.30438e-18)
(0.00116901 -0.00199288 1.30066e-16)
(-9.16403e-05 -0.00307538 -2.15685e-17)
(-0.0019783 -0.000146661 4.61204e-18)
(-0.00167969 0.00536087 -2.09206e-18)
(0.0434331 -0.0115686 8.80615e-18)
(-0.00114828 -0.00156505 -3.92679e-18)
(-0.00217066 0.00395771 7.85771e-19)
(-0.000769836 0.00158134 2.66002e-19)
(0.0698275 0.010516 -2.01692e-17)
(-0.00177611 0.000393705 -1.56579e-19)
(-0.078632 0.0115552 8.00797e-18)
(-6.66522e-05 -0.000267945 6.27226e-18)
(-1.83763e-05 -0.00370702 8.88551e-17)
(0.0780225 0.0251117 -2.93878e-17)
(2.62737e-06 -0.00119309 -2.83479e-18)
(2.51736e-05 -0.00211214 3.7288e-18)
(0.03883 0.0399986 1.49934e-17)
(-0.00695287 -0.00065281 4.05156e-19)
(-6.95093e-05 -0.000998407 1.14453e-18)
(-0.0477446 0.0676114 -5.54374e-17)
(0.0626721 0.0201851 -2.2471e-18)
(-0.000508449 -0.00168609 -3.89654e-18)
(0.000776323 -0.00249093 6.74238e-18)
(0.00739142 -0.0145612 -1.9949e-18)
(0.0243255 0.0189603 4.3049e-17)
(-0.000709057 0.00256413 1.86866e-18)
(-0.0293699 -0.0603531 6.09344e-18)
(-2.29876e-06 4.50768e-05 -6.41198e-18)
(3.95267e-07 -1.00184e-05 2.85734e-18)
(-2.9675e-06 -0.0010729 3.77864e-18)
(9.77747e-07 -0.00356956 3.31889e-17)
(-0.10361 0.0434628 -3.1871e-18)
(0.0226387 0.000909622 -5.8317e-20)
(-0.000618579 0.00249294 3.14978e-20)
(-3.59278e-06 -0.000110243 1.7672e-18)
(0.0533485 0.0113494 -3.16349e-17)
(0.00141818 0.00465245 3.02006e-18)
(0.000123497 0.000341282 -2.51146e-20)
(0.0239758 0.0311413 1.31804e-17)
(-0.017487 0.00245686 1.69831e-17)
(-0.00098921 0.000608701 -1.9883e-19)
(-0.00166985 -0.00193614 -1.39356e-19)
(0.0566832 0.0142415 5.04797e-17)
(-0.000398703 -0.00358101 6.50026e-17)
(0.0376955 0.0122883 1.82097e-17)
(0.00634861 0.0202632 4.57725e-20)
(0.0103423 -0.0240382 -1.2836e-18)
(0.000173603 -0.00405412 -4.48053e-17)
(-0.000422511 -2.89841e-05 -2.09998e-18)
(-7.65105e-05 -0.00359497 -5.93872e-18)
(-0.000261212 -0.0045356 3.8701e-17)
(2.43302e-05 0.00279047 2.55431e-18)
(-0.000595969 0.00024982 8.3879e-19)
(-0.0337545 0.0574352 5.7156e-18)
(0.00171104 -0.00811151 2.50329e-17)
(0.01079 0.0227505 2.09774e-17)
(-0.0019782 4.38986e-05 1.16548e-18)
(-0.00999646 0.00160148 4.37486e-18)
(0.0677884 0.00216157 -1.86298e-17)
(-0.002432 -0.00100248 -7.03889e-18)
(0.0145083 -0.0148498 5.64922e-19)
(-0.0315065 0.0577149 1.9456e-17)
(-0.000252277 -0.00268358 1.4476e-17)
(0.000456143 -0.00329869 1.30828e-17)
(-0.000471136 -0.00119893 -7.93041e-18)
(-0.00011905 -0.00304987 3.80473e-18)
(-0.157411 8.84574e-05 1.36982e-17)
(-0.000347098 -0.00305493 3.92194e-17)
(1.05152e-06 6.03549e-05 2.1604e-18)
(0.0368712 0.0403965 -2.91571e-17)
(-0.164187 0.01034 3.35653e-19)
(-0.000604024 -0.00428548 -1.14738e-18)
(-0.000188829 -4.35082e-05 -1.46979e-18)
(-0.00160914 -0.00191094 6.51048e-18)
(-0.00105048 0.00137353 5.32765e-20)
(-0.000166432 -2.67238e-05 1.82305e-19)
(2.12027e-05 0.000200688 1.37637e-19)
(-0.00060043 -0.00331736 -1.23414e-16)
(-0.155325 0.00193189 5.93842e-18)
(-0.000229728 -0.00266496 1.39111e-18)
(-0.000862011 0.00169241 1.65972e-19)
(2.0494e-07 6.24606e-05 1.50683e-18)
(-0.0144101 0.0297903 -6.25412e-17)
(-0.117441 0.0388072 -2.25832e-18)
(-0.00857905 0.001025 -2.45411e-18)
(0.000209217 -0.00410232 6.67686e-17)
(1.34889e-07 -0.00124809 2.64898e-18)
(-0.000259631 -0.00303959 -2.24133e-17)
(0.0481406 -0.0359702 8.6852e-19)
(-0.000445293 0.000830212 7.15738e-20)
(-0.000663072 -0.0024938 -3.99612e-17)
(-9.48498e-05 -0.00464835 3.83937e-17)
(1.89437e-05 -0.00215465 -1.90524e-18)
(-0.0675794 0.0753455 6.13296e-17)
(0.00319341 -0.00830219 4.64114e-18)
(-0.000338464 -0.00257352 -1.43824e-17)
(-0.000372593 0.000740695 -2.63418e-19)
(-0.00526149 0.000961758 -8.90984e-19)
(0.0152991 0.00864206 -2.86063e-17)
(0.000168888 -0.00300902 1.68641e-16)
(0.0263477 -0.00338711 -5.40444e-21)
(-0.00587316 -0.00340806 9.99854e-19)
(-0.00392515 0.00391998 -1.86867e-18)
(0.0159797 0.0181337 -3.80611e-17)
(-0.00661177 -0.00062181 8.54812e-19)
(-4.16733e-05 0.0551899 4.04027e-18)
(0.0272731 0.0171082 -2.96644e-17)
(-0.0117643 0.0278755 -1.77655e-17)
(-0.00108272 -0.00264436 -6.38519e-18)
(7.35566e-05 -0.00397588 3.63138e-17)
(1.66861e-06 5.56412e-05 2.41626e-19)
(0.0362856 0.0108982 -2.3532e-17)
(0.0148847 -0.0142448 -2.14348e-18)
(0.0113059 -0.0236179 3.8374e-19)
(-0.000102596 0.00278909 -5.29253e-18)
(0.0122667 0.0148576 7.42729e-18)
(-0.000714735 0.00125936 -5.31553e-19)
(-4.5145e-05 -0.00365478 7.61103e-18)
(-0.0066702 -0.00288736 -1.32567e-19)
(0.0668812 0.00463527 -2.29684e-17)
(0.0123429 -0.0170162 6.42173e-18)
(-0.00225243 -0.000262403 6.68196e-18)
(-0.0935574 0.0918616 -1.26932e-17)
(-0.00557768 -0.00434749 2.13165e-18)
(-0.153724 -0.000297828 6.65628e-18)
(-6.44418e-05 -0.00294609 1.01041e-16)
(-0.0744868 0.07924 -5.34388e-18)
(-0.00118529 -0.000327167 3.94317e-19)
(-0.0180784 0.00306911 -3.16429e-17)
(-0.00984751 0.0032803 9.51153e-18)
(-0.000414973 0.000849284 9.94555e-20)
(-2.16076e-05 -0.000143936 -5.0642e-18)
(-0.00236002 -0.00306574 -1.94473e-17)
(-0.0414538 -0.07396 -8.21601e-18)
(-0.0274091 -0.000940194 -2.39728e-17)
(0.0201538 0.0182151 1.47369e-17)
(-0.00340254 0.00950808 2.51577e-19)
(0.0192151 -0.021986 1.59866e-18)
(0.0927963 -0.017758 4.88699e-19)
(0.024713 0.000939592 7.87968e-18)
(-0.0262064 -0.00461665 8.95775e-18)
(-0.000144834 -0.000685466 -4.47809e-18)
(-8.14548e-05 -0.0040424 6.46511e-17)
(-0.000348735 -0.00393964 3.28885e-18)
(-0.000234614 6.53842e-07 -3.26332e-19)
(-0.00102486 0.000621166 1.15118e-18)
(0.000144744 -0.00850057 2.64532e-17)
(0.00776732 -0.0103595 1.14326e-17)
(0.00302751 0.00191702 1.29878e-18)
(-8.64333e-05 -3.90207e-05 -2.55468e-18)
(0.0129481 0.0118203 -1.11794e-17)
(0.0148094 0.00778225 2.64649e-17)
(0.0644143 0.0180601 1.18987e-18)
(-0.0587383 0.0616684 -3.02912e-17)
(-0.000381913 -0.00191763 -5.47072e-18)
(-0.00118307 -0.00156898 3.35095e-18)
(0.00728868 0.0195262 8.71752e-18)
(-0.0645914 -0.055993 -5.01461e-18)
(-0.000673964 -0.00247158 3.52454e-17)
(-0.124448 -0.016634 9.34266e-19)
(0.0682531 0.0140929 1.05932e-17)
(0.020161 -0.0211811 -1.80205e-18)
(-0.000611532 0.000205758 2.95424e-19)
(0.0016981 -0.00385492 -2.14948e-16)
(0.00749121 0.0162504 -2.2007e-17)
(0.0860848 0.00675597 -6.46002e-17)
(-0.000729564 -0.00122577 6.64987e-19)
(0.0793949 0.0149428 8.56067e-19)
(-0.00114053 -0.000352749 1.02025e-19)
(-0.0182308 0.0132217 1.68262e-17)
(-0.000344979 -3.61164e-05 2.25957e-18)
(-0.0672753 0.0403164 -1.95724e-17)
(-0.0276486 0.0534798 2.26298e-17)
(-0.00315272 -0.0013924 1.57758e-18)
(-0.00599454 -0.0164514 2.59524e-17)
(-0.00396248 0.00420143 -3.43769e-18)
(-0.000595613 0.000151476 -3.07762e-18)
(0.0395061 -0.044844 -9.08324e-19)
(0.0115183 -0.0165422 4.26849e-19)
(-0.0029044 0.00946688 1.41424e-17)
(-0.10356 0.0179383 -9.16521e-19)
(0.0719588 0.0131742 3.54791e-17)
(-0.000341881 4.54767e-05 -4.88766e-19)
(-0.00520544 0.00177473 -2.47516e-18)
(0.021724 0.0343892 4.46297e-17)
(0.0146851 0.00198647 5.98659e-18)
(-2.00958e-08 4.11867e-05 1.4634e-18)
(-0.00038927 -0.000517063 2.27096e-18)
(0.0269549 0.00262033 4.51276e-18)
(0.0409743 0.0182106 7.47468e-18)
(2.82863e-06 8.38592e-06 4.24374e-19)
(0.0302506 -0.0393672 4.36174e-19)
(-0.0073192 0.0284927 1.60256e-17)
(8.86365e-05 -0.00395073 -5.72042e-17)
(-0.00783253 0.00239357 8.13315e-18)
(2.11813e-06 4.49485e-05 -1.74497e-18)
(-0.00430975 -0.00463452 4.21484e-18)
(0.0564433 0.0147473 1.56199e-19)
(0.000379607 0.000785629 2.54067e-18)
(-0.01997 0.000767871 -2.05368e-17)
(0.000346125 -0.00423209 -2.08779e-17)
(-0.000997861 0.00135446 1.00809e-20)
(-0.00108132 -0.00164425 1.52844e-19)
(0.0200764 -0.00246688 6.84973e-18)
(0.0154626 -0.00394917 -3.63751e-18)
(0.0248156 -0.00325243 -6.18618e-18)
(-0.00245658 -0.00313793 1.10321e-18)
(-0.00276987 -0.00207464 -6.38229e-18)
(2.4601e-06 1.50052e-05 -4.3644e-18)
(-0.168005 0.00909764 9.22745e-18)
(-0.0091116 0.0156151 -1.99058e-18)
(0.0133192 -0.0424252 -2.53353e-18)
(-0.000610543 0.000107565 2.54488e-18)
(0.0808016 0.0123225 -5.4641e-17)
(-0.0897411 0.0178649 1.29457e-17)
(-0.0363421 0.0637019 -5.64399e-18)
(-0.0257495 -0.0576938 1.66881e-18)
(0.0072448 -0.0154172 1.21862e-17)
(-3.26889e-06 5.11555e-06 1.27528e-20)
(-0.000255702 -4.40176e-05 -4.11673e-19)
(0.000932694 0.0166132 -4.36388e-18)
(-0.0327639 0.0314824 2.04461e-18)
(0.0126799 0.0381036 -5.54427e-17)
(-0.00195628 0.00387541 2.0307e-18)
(-0.0569985 0.0568536 -7.21728e-20)
(0.00533537 -0.0068345 -4.927e-18)
(5.62966e-05 0.000142396 -2.63041e-19)
(0.0363237 0.00450113 -3.99555e-18)
(-6.56697e-05 -0.000241723 9.01314e-19)
(-0.0945647 0.0909082 2.14789e-17)
(0.00279913 0.00181515 1.71439e-18)
(5.15263e-06 8.08891e-06 -2.15361e-19)
(-0.0036785 -0.00158882 -1.38828e-17)
(-0.00568573 -0.00358425 4.35317e-18)
(-3.19461e-05 -0.00394085 -1.21661e-17)
(0.0303315 -0.0406487 -7.64067e-19)
(-0.00439671 -0.00260279 3.23894e-18)
(0.000195591 0.00135084 8.8271e-19)
(-0.0369246 0.0283593 -8.67196e-17)
(-0.103206 0.0249175 -3.03674e-18)
(-0.0024152 0.0143343 5.95412e-18)
(-0.000700664 -0.00123006 2.89391e-18)
(-0.0860625 0.0905639 3.19545e-17)
(-2.55457e-06 -0.000423775 -6.53255e-19)
(0.000203854 0.0012815 3.40079e-19)
(-0.000433414 -0.00113445 7.84445e-18)
(0.00399475 -0.0084998 -4.33387e-18)
(-8.93568e-06 -2.97157e-05 2.34053e-18)
(-0.0193079 0.0133879 5.01113e-18)
(-0.00751359 0.00221152 -9.79858e-18)
(-0.000662361 0.00124207 6.55462e-19)
(0.0138727 0.0112733 1.16061e-17)
(-0.00261586 0.00128671 8.03321e-20)
(7.10049e-05 -0.00318321 1.02051e-16)
(-0.00549289 -0.00413579 3.57297e-19)
(-0.0166175 0.00280275 3.84258e-17)
(-0.000371125 0.00110088 1.17821e-19)
(-0.00104312 -0.00162857 1.23686e-18)
(0.0665775 0.00222968 -1.67125e-17)
(-0.157989 0.0171219 1.56594e-18)
(-0.000504922 -0.00121991 -1.25947e-18)
(-0.00030238 -4.31197e-05 8.7443e-19)
(0.0376682 0.00562665 -2.25414e-18)
(-0.00112425 -2.31392e-05 6.92469e-19)
(0.058663 0.0223883 -1.78883e-17)
(-0.000390147 0.00107257 -1.82647e-19)
(-0.0677584 0.0428808 1.62796e-17)
(0.000705314 0.00015711 1.9401e-18)
(-0.0110113 -0.0168159 -3.43321e-17)
(0.00443372 0.00695013 -2.39903e-17)
(0.000673834 -0.00222795 1.50332e-17)
(-0.00109769 -0.00259182 1.2052e-17)
(-0.0112747 0.0296625 3.51459e-17)
(0.00104962 -0.00411802 -3.23554e-17)
(-0.00372235 -0.00144578 -2.25884e-18)
(0.0395977 0.020327 -2.51841e-17)
(0.000544841 -0.0108238 1.56725e-18)
(-0.0016425 -0.00123774 -5.54035e-18)
(-0.150425 0.0247087 9.23122e-19)
(-0.000125381 -0.00397295 -5.57614e-17)
(-0.0832402 0.0210045 -1.61156e-17)
(-0.000446363 -0.00289802 1.4997e-19)
(-0.0862624 -0.00291519 1.01923e-18)
(-0.00538132 0.0022169 2.04726e-18)
(0.0347331 -0.00408229 -4.36023e-17)
(0.000920049 -0.00414354 2.28805e-17)
(-0.00182341 -0.00782797 8.72445e-18)
(-0.00225671 -0.00787355 -8.54453e-18)
(-0.13295 0.0142622 -5.65845e-19)
(-5.46414e-06 -3.03394e-05 3.26256e-18)
(-0.00703682 -0.00299592 2.57649e-19)
(0.0631236 0.000924571 9.61572e-17)
(-0.00104384 -0.00203612 7.38261e-18)
(-0.00266168 -0.000873038 -6.24525e-18)
(-0.106795 0.0179542 -9.1473e-18)
(0.000732721 -0.00868249 -3.56056e-17)
(-0.00221439 4.67545e-05 4.63897e-18)
(0.0772141 -0.0130058 1.07558e-17)
(0.00282355 -0.00641227 -6.51025e-18)
(-0.000389253 -0.000118349 -6.05427e-19)
(-0.160807 0.00163175 -1.36256e-17)
(0.0642897 -0.0350447 -9.1704e-18)
(-7.78137e-05 -0.000273609 -1.24737e-18)
(-0.000623127 -0.000428711 -2.33168e-19)
(-1.36039e-05 -0.000358373 2.23642e-18)
(-0.000332981 0.000771561 -7.54729e-20)
(-0.0426141 0.0299169 1.05892e-16)
(-0.0815358 0.0841528 1.14752e-17)
(-0.000940125 -0.00333044 6.68465e-18)
(0.0622927 0.000715805 1.46652e-17)
(-0.00050511 -0.00148712 -7.6535e-18)
(-0.0208911 0.000666726 -1.68746e-17)
(0.0114282 0.0102721 1.1703e-16)
(0.00828853 0.00887493 2.02814e-18)
(-0.128277 -0.0194498 5.3588e-18)
(-0.0343905 0.0363845 -3.3713e-17)
(-0.0255852 0.0541041 1.32112e-18)
(-0.000386281 0.000113783 6.55654e-19)
(0.0138197 -0.0414385 3.39466e-18)
(-0.000620777 -0.000296313 2.45831e-18)
(0.0800971 0.0164198 4.04612e-17)
(-0.000828828 0.00153195 7.44855e-19)
(0.00036258 -0.00240053 4.65281e-17)
(-0.00896433 0.0284613 7.53007e-18)
(0.00212082 0.000176998 -1.74727e-18)
(-1.03985e-05 -0.000131562 4.28379e-18)
(0.00703707 0.0182788 -3.3893e-17)
(-0.018801 0.00269293 -2.10936e-17)
(-0.000572322 0.0242275 -2.33526e-18)
(0.00187032 -0.000149119 -1.79467e-17)
(0.0379136 -0.0027848 -2.20105e-17)
(0.0878135 0.00718764 1.04353e-16)
(-0.00448196 -0.00491664 -6.26794e-18)
(-0.0125955 0.000173788 2.48796e-17)
(-0.000359491 -0.000506004 -1.66991e-18)
(0.0156439 0.00120678 -1.64683e-17)
(-0.101552 -0.0477575 -4.15762e-19)
(-0.00132649 -0.0012391 6.46199e-18)
(-0.0145121 0.0314733 4.33114e-17)
(-0.00033762 -0.00152801 -9.3586e-18)
(-0.029288 0.0574838 2.22995e-17)
(0.00067878 0.000222905 -5.96341e-19)
(-1.9783e-06 1.85472e-05 -3.8738e-18)
(-0.0026846 0.000932569 -1.07091e-18)
(0.0215072 -0.0251524 5.14602e-18)
(-0.00269329 0.000829723 -3.77034e-19)
(0.0163832 -0.00683546 -1.72566e-18)
(0.0167781 -0.00426363 2.193e-18)
(0.0332488 -0.0178336 -1.04129e-17)
(0.00101331 -0.00354751 6.39702e-17)
(-0.00164215 -0.00115542 6.83204e-18)
(0.00155218 -0.00388249 1.70717e-16)
(0.00123791 -0.00380434 3.8657e-17)
(-0.000281147 -0.00075817 -6.57944e-19)
(0.00112331 -0.00817044 9.74342e-19)
(-0.00103279 -0.00201687 -9.49394e-18)
(-0.000429489 -0.00172215 -3.44821e-18)
(-0.0198746 0.00771262 -2.16688e-17)
(4.52986e-06 2.08201e-05 2.08354e-18)
(-0.00051522 -0.00182449 -4.09798e-18)
(-0.000617351 -0.000258473 -1.18403e-18)
(-0.0481001 0.0278647 1.43221e-17)
(6.013e-07 6.83627e-05 -1.63948e-18)
(-0.0916989 -0.00647909 7.52523e-19)
(-0.01703 -0.0405266 -2.87478e-18)
(0.00486699 0.0036385 -2.69274e-17)
(-0.0256604 -0.00537321 -3.66643e-17)
(-0.0256522 -0.0240943 6.38602e-18)
(0.0897747 0.00791679 -4.38377e-19)
(0.00829958 0.00858651 -3.44837e-18)
(-0.000466989 -0.001423 3.72176e-18)
(-0.0226238 0.0343934 2.30028e-17)
(0.00181001 -0.00103256 -2.10153e-18)
(-0.00567474 0.00178179 9.11237e-19)
(-0.000171593 -0.000761179 -2.17971e-18)
(-0.0753312 0.080315 -2.60238e-17)
(-0.0854708 -0.0495388 1.5992e-18)
(-0.0179841 -0.0405311 4.28948e-18)
(-0.00275883 -0.00171439 -1.0961e-17)
(-0.00586306 0.033307 -5.5836e-19)
(-0.000405009 -0.00285965 1.69534e-17)
(0.00203078 -0.0013299 4.10641e-18)
(0.000555482 0.0237238 -2.43694e-18)
(-0.00256173 0.000102659 1.41457e-18)
(0.00955621 -0.0403877 8.56188e-19)
(-0.00194283 0.000114743 4.25995e-19)
(-1.21792e-05 -3.58515e-05 -7.82463e-20)
(0.0551894 0.0247708 1.82369e-18)
(-0.150938 -0.00335984 -7.16583e-18)
(-0.149202 -0.00678263 1.71621e-18)
(-0.0164041 -0.00657816 -1.23465e-17)
(0.00283127 0.00487425 5.28546e-17)
(-0.150548 0.0272786 -1.87641e-18)
(0.0709309 0.00610416 4.38347e-17)
(-0.0144499 0.0207951 2.43659e-17)
(-5.34797e-05 0.000188445 1.97172e-19)
(0.00375318 0.0181975 2.22014e-17)
(-0.00257092 0.000202538 2.24951e-19)
(-0.00117827 -0.00166881 1.15183e-18)
(-0.0533519 0.0560263 5.08816e-18)
(0.000172918 0.017067 -1.24078e-18)
(0.000281779 4.23937e-05 1.24495e-20)
(-0.0101477 0.014946 1.57362e-17)
(0.0063135 0.00904657 1.9298e-17)
(-0.028349 0.0199558 1.49461e-17)
(-0.000308506 -0.000803988 4.96094e-18)
(0.0277116 0.0281298 1.9413e-17)
(0.0226999 0.0194854 1.88622e-17)
(-0.00824998 -0.0191988 3.26105e-17)
(-0.1125 -0.0104702 -1.98153e-18)
(3.63766e-07 7.0173e-05 -7.77342e-18)
(-0.00133399 -0.00128682 -1.52615e-18)
(-0.000344795 6.6627e-07 -5.06346e-19)
(-0.00641714 -0.000959388 -1.08206e-18)
(-0.000377797 0.000111445 1.58e-19)
(-0.0179849 -0.0753126 -4.24847e-18)
(-0.000806066 -0.00352881 1.27249e-17)
(-0.00436867 -0.00238025 -3.70941e-18)
(0.0132086 0.0022676 3.18038e-17)
(-0.00135366 0.00530815 1.144e-17)
(0.0372741 0.00806244 4.93398e-18)
(0.0658512 0.00574706 1.42069e-17)
(0.00296777 -0.0087817 -1.89478e-18)
(0.031378 -0.0181837 4.75303e-18)
(0.0529255 -0.036977 -1.72843e-18)
(0.0298336 0.0274573 -4.28599e-17)
(-0.0120164 0.0117577 -1.01672e-17)
(-0.0136313 0.0419127 2.08688e-17)
(0.0104791 -0.000812193 -2.75321e-18)
(0.0261075 -0.0265241 -1.84825e-18)
(9.48255e-05 -0.00373305 9.39107e-18)
(0.0102493 -0.00506616 -4.55399e-18)
(0.0164575 0.023172 3.15677e-18)
(-0.000240292 3.82507e-05 -9.61011e-19)
(-0.0309342 0.0390896 4.87343e-17)
(0.00117855 0.00546489 2.58108e-18)
(0.000198208 0.000589863 -1.3123e-18)
(-0.00612516 -0.000894196 -5.13056e-21)
(-0.000531404 0.00269141 -6.88641e-19)
(-0.0230589 0.0219918 -3.31917e-17)
(-0.0358491 0.0610032 -2.31456e-17)
(-0.00108813 -8.60039e-05 2.2006e-19)
(5.19022e-05 0.000117994 -5.59708e-19)
(-0.0225633 -0.0751022 2.55867e-18)
(0.0919937 0.0079864 -2.50244e-18)
(4.44071e-06 1.61335e-05 1.72427e-18)
(-0.114085 -0.00476508 7.36503e-18)
(0.000966099 0.00142415 5.22418e-18)
(-0.0239148 -0.00261027 9.94682e-18)
(-0.00115747 -0.000146892 -1.96178e-18)
(0.0763556 0.0144164 9.10293e-18)
(-0.0809901 0.0958893 1.25963e-17)
(-0.00525235 0.0012609 2.74308e-18)
(-0.00158225 0.0014943 -5.69386e-20)
(-0.0216916 -0.0295722 3.64606e-18)
(-0.0272135 -0.000549601 1.7101e-17)
(0.00773552 0.00813645 4.85774e-17)
(2.81478e-06 1.95018e-05 -1.44734e-18)
(0.0630859 0.0150161 2.84065e-17)
(-0.00041579 -0.00228853 2.79328e-17)
(0.0433143 0.0048921 -1.66793e-17)
(0.000181774 0.000634033 6.94266e-19)
(0.0214359 0.00155331 -7.30134e-18)
(0.0203866 0.011308 -3.40075e-17)
(0.00948216 0.00739844 1.80971e-17)
(-0.000634194 -0.000377216 1.04003e-18)
(-0.00193787 -0.000438907 1.28623e-18)
(0.00611409 -0.0146364 -7.47307e-18)
(-0.0331708 0.059155 5.8643e-17)
(0.000306197 4.84883e-05 2.97741e-21)
(-0.000589671 -0.000447629 -2.65999e-18)
(-0.000199801 -0.000144544 6.25531e-20)
(-0.000214633 -0.000152794 4.37069e-19)
(0.0834834 0.0117796 -1.81891e-17)
(-0.0485135 0.0547154 -1.12924e-17)
(0.00871714 0.00760695 -1.67169e-17)
(-0.0285359 0.00040524 -3.04725e-17)
(-0.000245735 -3.03574e-05 1.46298e-18)
(-0.00041891 -4.85831e-05 4.77849e-19)
(-0.00399741 0.0327886 1.43455e-17)
(0.0295764 0.0265988 -4.28815e-17)
(-0.00421055 0.00742856 -2.38209e-18)
(-0.000708283 0.00132006 1.58409e-19)
(-0.000446384 -0.00172214 3.37163e-18)
(-1.23843e-05 -0.00168137 -2.7977e-18)
(0.0413899 0.0040595 2.89445e-18)
(0.0280235 0.000989769 -9.66098e-18)
(-6.80703e-06 -9.34827e-05 2.37822e-18)
(-9.05774e-05 -0.00166501 5.01749e-19)
(0.011882 -0.040097 -8.33075e-19)
(0.0102884 -0.000236972 4.65523e-18)
(0.00479336 0.00672679 1.48402e-18)
(-0.00127039 -0.00139679 2.81542e-18)
(-0.00275354 0.000612048 -2.20999e-18)
(-0.0045564 0.000590291 -6.74989e-20)
(0.0170252 0.0218242 -7.79186e-18)
(0.000130083 -0.0105098 -1.91356e-18)
(-0.0275415 -0.000613751 6.90131e-17)
(-0.0225249 0.0366123 -1.55955e-17)
(0.00709198 0.0327453 4.3417e-17)
(-0.0623651 0.0619845 7.69135e-17)
(-0.0164081 0.00369261 -1.43495e-17)
(-0.000662367 -0.00128133 -1.4933e-18)
(0.0573807 0.0159722 -3.56776e-18)
(2.10806e-06 -0.00163006 1.39551e-18)
(-0.0027571 -0.000892941 3.81604e-18)
(0.00193931 0.00137318 8.88499e-19)
(-0.0343688 0.0412378 1.45387e-17)
(-0.00423876 -0.00727456 3.87169e-18)
(-0.00036574 -2.98488e-05 2.10399e-18)
(-0.00946311 -0.0189614 -3.6936e-17)
(-0.0220146 0.00989834 -3.14242e-17)
(0.0188042 0.0179205 -3.81011e-17)
(0.00541088 0.0326424 -6.68444e-17)
(-0.00186363 -0.00390996 4.76842e-17)
(0.00685594 0.0093508 8.37057e-18)
(-2.07729e-05 -0.000186438 -7.28746e-18)
(0.00161823 0.0143393 -6.36269e-18)
(-0.011593 -0.0177804 2.4462e-17)
(-0.152532 0.0399288 -8.46994e-19)
(-0.00185913 5.19492e-05 3.40012e-21)
(-0.0023504 0.00654323 -2.17615e-17)
(-0.0285338 0.000624953 2.10679e-17)
(-0.0307697 0.0383273 5.15195e-18)
(0.0645054 0.00850497 2.71348e-17)
(0.00637289 0.0216608 9.91691e-18)
(-0.0172304 -0.00703878 -1.65019e-18)
(-0.00288919 -0.00148327 -1.63263e-17)
(-0.00283612 0.00256974 1.4051e-18)
(-0.00128497 -0.00142037 3.54297e-18)
(-0.00223916 -0.00527439 6.79911e-18)
(-0.000228383 -0.00460533 3.5136e-17)
(9.66693e-05 -0.00257663 -3.84541e-19)
(0.0081663 0.0154072 9.59289e-18)
(0.000409889 -0.00410491 -3.27491e-17)
(-0.15076 0.0437934 1.33197e-18)
(0.00877023 0.00781303 1.18232e-17)
(-0.00329995 0.000586929 -1.54324e-18)
(0.0355824 0.00695555 -5.53192e-18)
(-0.0632267 0.0940042 -2.1615e-17)
(-0.00401821 -0.00163395 1.10528e-18)
(-0.000771625 -0.0024032 2.06543e-17)
(0.00136474 -0.00151911 4.95547e-17)
(-0.0368477 0.0461442 -7.9541e-17)
(-0.0777978 0.0818807 -4.64893e-18)
(-0.0298926 0.00236989 5.90319e-17)
(-7.9871e-06 0.000218222 -1.55239e-19)
(-0.164592 0.00194198 6.77014e-18)
(0.0067609 -0.0142166 2.49436e-18)
(-0.000370356 -2.42166e-05 -5.76775e-19)
(-0.00562394 0.00475579 1.35548e-18)
(0.0229447 0.0113399 -4.31674e-18)
(-0.000772675 -0.00367023 3.13026e-17)
(-0.0194945 0.00944193 2.73218e-17)
(-0.0359803 -0.0625605 4.5425e-18)
(-0.0113123 0.0413806 3.36408e-18)
(0.00851344 -0.000533725 -7.27355e-18)
(0.000302359 0.0161901 -2.22267e-17)
(-0.000968018 0.00293986 -4.46649e-18)
(-0.0113741 0.018193 -2.85208e-17)
(1.05235e-06 4.99325e-05 -2.91984e-19)
(-2.17211e-05 -0.000129245 -1.15591e-18)
(-0.0899619 0.0899488 -1.69287e-17)
(-0.035604 0.0475142 2.90697e-17)
(0.000812779 -0.00355691 7.37728e-17)
(-0.000837785 0.00295894 -2.15718e-18)
(-0.00220349 -0.000172729 2.80129e-18)
(-0.000100569 -0.00161168 -5.57291e-19)
(0.00580948 -0.00689402 -1.50776e-18)
(9.17284e-05 -0.00286068 2.71226e-17)
(0.0111002 -0.0221423 -3.67347e-18)
(-0.00290523 0.00273212 7.86924e-19)
(0.0306484 -0.0164077 3.66442e-18)
(0.00787807 0.0173524 6.91858e-18)
(-0.00119814 -0.0001545 2.51445e-18)
(-0.00404046 -0.016543 2.75785e-18)
(0.010053 -0.0215371 1.83841e-18)
(-0.000660786 -0.0335311 1.57742e-19)
(-0.000823469 -0.00108137 9.58944e-18)
(-0.00751606 0.0426629 -2.37523e-17)
(-0.00066081 0.00265159 -2.28765e-18)
(0.0209108 -0.00393678 2.23122e-17)
(-0.0137813 0.000298413 1.18735e-17)
(-0.00466437 -0.00716266 -1.96791e-18)
(-0.00257609 0.00667589 2.38155e-17)
(-0.000325439 -0.000106898 -4.96672e-19)
(3.92238e-05 0.000745373 -1.70663e-19)
(-0.00106798 0.00150033 -2.72044e-19)
(-0.00279011 -0.00846791 -8.16715e-18)
(-0.000431079 -0.00319977 -2.43655e-17)
(-0.0354506 0.0164843 -1.98312e-19)
(0.00753904 -0.00243917 -3.12106e-17)
(0.0114681 0.0151597 -2.90166e-18)
(-0.000379669 -0.000139477 -1.17071e-18)
(-0.0155862 0.0380778 1.85114e-17)
(0.000845316 -0.00369998 2.09782e-17)
(0.0751506 -0.0475133 2.06985e-18)
(0.000346206 0.000812862 -2.26791e-18)
(-0.000724922 -0.00312333 -2.68495e-18)
(-0.000574558 -0.000494874 3.0631e-18)
(0.00442284 -0.00107433 2.4743e-18)
(-0.00216145 0.0041422 -2.94609e-18)
(0.0221288 0.0123055 3.07783e-17)
(-1.77599e-06 2.74832e-05 1.68535e-18)
(-0.0109221 -0.0211363 6.90572e-18)
(0.0043246 -7.35901e-05 -1.74723e-18)
(0.0419299 -0.0169746 4.10311e-18)
(-0.0169065 0.000876366 -2.89962e-18)
(0.0690159 0.0176917 2.96607e-18)
(-0.00545163 -0.0073853 -2.83467e-19)
(-0.00183991 -0.000470993 -7.69736e-19)
(-0.0152164 0.0284395 3.34076e-17)
(0.0946583 0.0087008 -1.6671e-17)
(-0.0014454 -0.000759681 -8.83722e-19)
(0.00190231 0.001219 -8.72948e-19)
(-0.0818226 0.0899246 -8.39912e-17)
(-0.028805 0.00277871 -3.09086e-17)
(0.0140872 0.0370233 9.46957e-18)
(9.28593e-06 1.65416e-05 1.01576e-18)
(-0.0015518 0.00159247 7.89336e-19)
(-0.0111174 -0.0155629 -3.40303e-17)
(0.00222559 3.34456e-05 3.64541e-18)
(-0.00171052 0.0232497 -1.19458e-17)
(0.0190014 -0.00183762 -1.44645e-17)
(6.26324e-05 0.00074814 -1.10399e-19)
(0.0154248 0.00598334 1.02834e-17)
(-0.122491 0.0214784 9.68989e-19)
(0.000375172 0.000675525 -7.24345e-19)
(0.000973811 2.04695e-05 2.05715e-18)
(-0.000171183 -0.000154665 2.85085e-19)
(-0.160968 0.0143651 -1.68229e-18)
(1.22297e-06 7.17512e-05 -1.35744e-18)
(-0.00266694 -0.00165753 2.82039e-18)
(0.0652745 0.0042601 -7.25689e-18)
(-0.00238622 -0.00122513 1.60581e-18)
(-0.0432282 0.0518398 2.92845e-17)
(-0.00412485 0.00374278 1.88706e-19)
(-0.000802279 -0.00380357 -1.15182e-18)
(-0.000188724 -0.000166276 8.96695e-19)
(-0.00588823 -0.00489145 1.55524e-18)
(-0.000393816 -0.00110747 -4.16801e-18)
(-0.0117432 0.0102087 -4.08747e-18)
(-0.000312053 -7.63341e-05 4.3068e-19)
(-0.00819772 -0.00754592 5.34635e-18)
(0.000875455 0.00148337 -1.8636e-18)
(0.0649401 0.0355955 -1.91826e-17)
(0.00408772 -0.00251928 -3.14318e-17)
(0.0301842 0.0242617 5.17872e-17)
(-0.000354908 -1.94661e-06 1.01345e-18)
(-7.28526e-06 -6.92959e-05 -3.02201e-18)
(-0.0156956 0.0039749 1.26755e-17)
(-0.0108953 0.00330775 6.73053e-18)
(-0.118451 0.019727 -3.25928e-19)
(-0.00445611 0.0442136 -6.95884e-18)
(-0.00243088 0.0162443 2.54801e-17)
(-0.000387303 -0.00182949 -2.62021e-18)
(-0.0448757 0.030703 1.23348e-17)
(0.000424542 -0.00310489 -7.11911e-17)
(0.00110143 -0.034102 -1.63543e-19)
(-0.0325087 0.0156131 4.1044e-18)
(0.00261075 0.015615 4.35425e-17)
(-0.0154344 -0.0512269 -5.21246e-18)
(-0.0080988 0.000384208 6.83435e-18)
(0.00523011 -0.00631093 4.01841e-18)
(-0.0217766 0.0281834 -2.30963e-18)
(5.16413e-05 -0.0079236 -1.56811e-17)
(-0.0027854 0.0156199 -3.5879e-17)
(0.00029729 -0.00313686 8.64209e-17)
(-0.00420984 0.014859 -1.2464e-17)
(0.00141592 0.000331987 3.06695e-18)
(0.0241909 0.0120102 8.53214e-18)
(-0.00390854 -0.00134411 6.89262e-19)
(0.000183894 0.00075961 -9.23085e-19)
(0.00425722 -0.000800444 -3.74686e-18)
(-0.00997397 0.00212574 -7.96273e-19)
(-0.00501955 0.000901627 -1.214e-18)
(-0.000391691 -0.00120504 6.18323e-18)
(-0.000278579 -2.53862e-05 -1.50721e-18)
(0.00996913 0.01655 -1.17536e-17)
(0.00083302 0.00233102 6.71341e-18)
(-0.00293404 0.0237503 1.97231e-17)
(-0.00036538 -0.00176369 1.44582e-18)
(-0.000258213 -0.0014712 -6.5338e-19)
(3.35122e-07 6.43954e-05 6.17768e-19)
(-0.00275796 0.000361897 -9.59733e-19)
(0.000241241 0.000280744 4.28317e-19)
(-0.00419875 0.0013075 6.37573e-19)
(-0.000142064 -0.0001627 -1.29418e-18)
(0.0783337 0.0134506 -4.06972e-17)
(0.0106581 -0.0108128 9.53072e-18)
(-0.00108338 -0.00385951 -1.5512e-17)
(-0.000406145 4.4516e-05 3.85694e-19)
(3.47766e-06 6.79271e-05 -1.6405e-18)
(-0.000992055 -0.00435787 2.43149e-18)
(-0.012199 0.0122264 1.27378e-17)
(-0.000127022 -0.00266167 4.87288e-18)
(0.030109 0.00200603 -3.93409e-17)
(-0.0126631 -0.00436313 -2.04427e-18)
(0.084443 0.0202488 2.15922e-17)
(0.00436899 -0.000335001 1.43456e-18)
(-0.00821603 0.0362178 9.81703e-18)
(8.59617e-05 0.00199437 -3.65909e-18)
(-5.35065e-06 6.7229e-05 3.91043e-18)
(-0.000228269 -0.000130977 -1.76492e-18)
(-0.00265977 0.00115227 2.69048e-19)
(0.045089 0.00576242 -3.6013e-17)
(2.8905e-06 6.56551e-05 -4.43852e-19)
(-0.0609515 0.0599965 -6.45134e-18)
(-0.00439791 0.00129814 5.88026e-20)
(0.0109368 0.010606 -2.44971e-17)
(-0.0039767 -0.00521698 -1.26253e-17)
(-0.0133109 -0.00428542 2.28995e-17)
(0.0391226 -0.0165817 -3.09279e-18)
(-0.00016217 0.000554785 -2.01754e-19)
(1.15169e-07 3.41324e-06 -1.81208e-18)
(0.0114568 -0.0109285 -9.52649e-18)
(-0.000129213 -0.00210605 2.313e-18)
(-0.00150764 -0.00166842 -9.75728e-18)
(0.0209572 0.00728288 -1.67705e-17)
(-0.00234556 -0.000215177 -7.20468e-18)
(-7.8382e-06 -0.000354934 -4.6236e-19)
(-0.00345091 0.00508142 -1.02782e-17)
(-0.000357106 -0.000427589 1.01204e-18)
(-6.86314e-05 8.65355e-05 5.18464e-19)
(-0.00495389 0.001429 -1.40759e-18)
(0.000290923 -0.00329657 -1.47204e-17)
(-0.12227 0.0163003 -1.31151e-17)
(-0.00718233 0.00160101 9.45923e-18)
(0.000392931 0.000634936 -1.3333e-18)
(-0.000359949 -3.26711e-05 -5.35172e-19)
(-0.0341594 0.0430737 -1.08241e-17)
(-0.00235496 -0.00837983 2.82534e-18)
(-0.00165076 -0.000923493 4.19486e-19)
(-0.00182948 0.000133954 -8.45991e-19)