/*--------------------------------*- C++ -*----------------------------------*\
| =========                 |                                                 |
| \\      /  F ield         | OpenFOAM: The Open Source CFD Toolbox           |
|  \\    /   O peration     | Version:  v2012                                 |
|   \\  /    A nd           | Website:  www.openfoam.com                      |
|    \\/     M anipulation  |                                                 |
\*---------------------------------------------------------------------------*/
FoamFile
{
    version     2.0;
    format      ascii;
    class       surfaceVectorField;
    location    "550";
    object      Uf_0;
}
// * * * * * * * * * * * * * * * * * * * * * * * * * * * * * * * * * * * * * //

dimensions      [0 1 -1 0 0 0 0];


internalField   nonuniform List<vector> 
20673
(
(1.09988 0.13263 1.04406e-21)
(1.10425 0.130207 1.67812e-20)
(1.09946 0.127414 -2.74326e-22)
(1.02351 0.0443758 -9.37993e-22)
(1.02222 0.0436614 9.68901e-22)
(1.02249 0.0457399 -5.30446e-22)
(0.477837 -0.0716204 0)
(0.510798 -0.0745363 -9.05938e-21)
(0.537251 -0.075784 9.21603e-21)
(1.0608 -0.015645 1.36184e-20)
(1.06105 -0.0143954 8.47266e-21)
(1.05974 -0.0148365 -1.22845e-21)
(0.996487 0.00405442 1.25336e-21)
(0.996313 0.00364546 1.02273e-20)
(0.996009 0.00425959 7.31715e-22)
(0.371789 0.0604409 -1.3634e-19)
(0.360086 0.033353 -3.40002e-19)
(0.343019 0.061233 -2.14264e-19)
(0.433649 -0.0612134 0)
(0.427617 -0.06282 4.77161e-21)
(0.475887 -0.0661395 -3.13815e-20)
(0.531179 -0.0743366 3.38703e-20)
(0.483407 -0.0711245 1.25802e-20)
(0.500929 -0.0740273 4.33844e-20)
(0.340745 -0.0575065 9.64055e-21)
(0.311966 -0.0538185 2.45714e-20)
(0.281615 -0.050567 4.11728e-20)
(1.14075 0.160302 3.02296e-20)
(1.14703 0.160495 -7.09468e-20)
(1.14433 0.166549 -5.368e-20)
(1.1378 -0.072649 -2.26446e-20)
(1.13613 -0.0733248 -3.31099e-20)
(1.13882 -0.0744395 -6.56348e-20)
(1.10658 -0.0544345 2.93714e-21)
(1.10742 -0.0560448 -1.07036e-20)
(1.10808 -0.0539436 -1.6847e-22)
(1.0618 -0.0160065 2.79492e-21)
(-0.0645005 -0.00202645 0)
(-0.0486599 -0.00594887 -2.11914e-20)
(-0.0699056 -0.00389892 0)
(0.9747 0.10049 3.6152e-21)
(0.970427 0.099886 9.16916e-21)
(0.973565 0.096079 -1.23736e-22)
(0.997098 0.0957388 -5.60765e-22)
(0.99475 0.0931763 2.50868e-21)
(0.998542 0.0918854 0)
(1.0165 0.0505173 1.36295e-22)
(1.018 0.0501613 -1.08778e-22)
(1.01678 0.0488691 -5.63706e-23)
(1.15457 0.0241981 1.43968e-20)
(1.15543 0.0268935 6.15709e-21)
(1.15772 0.0236369 -4.13302e-21)
(1.1052 -0.0553492 -1.20015e-21)
(1.10537 -0.0533091 3.226e-21)
(1.00166 0.00521302 3.6368e-22)
(1.00167 0.00497919 1.18207e-21)
(1.00148 0.00481208 7.83995e-23)
(0.999984 0.00104292 -1.8593e-21)
(0.999973 0.00139498 -3.76154e-21)
(0.999986 0.0010496 -3.14954e-22)
(0.433183 -0.0615378 1.97417e-20)
(0.398639 -0.0606048 0)
(1.00102 0.0081071 4.12165e-21)
(1.0011 0.00857844 1.76898e-21)
(1.00122 0.00841904 1.79125e-21)
(0.571845 -0.0802784 -3.216e-20)
(0.581201 -0.0807957 1.95422e-20)
(0.995562 0.0165038 -1.85607e-22)
(0.995076 0.0163099 -7.56519e-21)
(0.995333 0.017144 2.02015e-21)
(0.488954 -0.0613227 6.65681e-21)
(0.453529 -0.0573397 0)
(0.44924 -0.0590121 -5.9529e-22)
(0.788477 0.0392191 -5.25359e-21)
(0.779475 0.0448154 0)
(0.780728 0.0329045 1.94641e-20)
(0.760757 0.12352 6.39315e-20)
(0.75921 0.136058 3.47464e-21)
(0.750324 0.126824 3.941e-20)
(0.713139 0.560668 0)
(0.74405 0.571283 1.55342e-20)
(0.72206 0.60442 0)
(1.20303 0.107799 -3.26558e-20)
(1.20297 0.102871 0)
(1.20794 0.10443 0)
(1.1192 0.119831 0)
(1.11579 0.122809 -1.57032e-20)
(1.11488 0.117999 0)
(1.06634 0.0960228 3.16506e-21)
(1.0633 0.0966685 7.24646e-21)
(1.06431 0.0931949 8.47645e-21)
(0.84197 0.0741571 5.87569e-21)
(0.83418 0.0768523 0)
(0.835503 0.0674013 1.60109e-20)
(0.908025 0.00547431 -2.90576e-20)
(0.910763 0.00244483 1.68578e-21)
(0.912051 0.00633145 2.3303e-20)
(0.991782 0.0133453 0)
(0.991254 0.0140604 0)
(0.991971 0.0142661 -2.94564e-21)
(1.1417 -0.0901916 -6.97657e-21)
(1.13993 -0.0909563 -2.01551e-20)
(1.1182 -0.092469 1.81467e-20)
(1.00088 0.00775885 1.12219e-23)
(1.00102 0.0076479 2.02756e-22)
(0.0736026 -0.0304455 1.32292e-20)
(0.0495193 -0.0269262 -2.47668e-20)
(0.0615204 -0.0279556 4.76224e-21)
(1.06845 -0.0207059 -3.07755e-21)
(1.06949 -0.0216838 -9.6564e-21)
(0.237908 -0.00915352 1.6462e-21)
(0.213521 -0.00608847 1.32911e-21)
(0.24175 -0.00856707 -2.08885e-21)
(1.00882 0.000965844 0)
(1.00922 0.000947606 3.83024e-22)
(1.00837 0.000548185 -8.17017e-22)
(0.999996 0.000731648 -2.916e-21)
(1 0.000342167 3.07732e-22)
(1 0.000373905 3.34776e-21)
(1.02168 0.00222614 -3.68743e-21)
(1.02137 0.00243832 5.69678e-21)
(1.02123 0.00210481 4.11369e-21)
(0.696101 0.199133 -1.60308e-20)
(0.712482 0.206952 4.31703e-20)
(0.695445 0.22094 4.04912e-20)
(1.0414 0.0256126 7.2807e-24)
(1.0424 0.0264021 -5.07401e-22)
(1.04269 0.0254156 2.06818e-21)
(0.890989 0.0216159 0)
(0.889508 0.0170458 0)
(0.894923 0.0181592 -2.71955e-20)
(1.15399 0.0205854 -3.37508e-20)
(1.15123 0.0238757 6.02998e-21)
(1.16204 -0.0126486 2.44945e-21)
(1.16015 -0.0101358 -7.67771e-21)
(1.15894 -0.0132499 -7.6713e-21)
(0.0907869 0.125498 3.60384e-20)
(0.0900702 0.161089 -1.48717e-20)
(0.119825 0.140072 1.30942e-19)
(1.0034 0.000777505 2.13045e-22)
(1.00372 0.000706591 -1.68812e-22)
(1.00365 0.00109338 -3.11881e-22)
(1.0936 0.0153535 1.39132e-20)
(1.0947 0.016531 1.09475e-20)
(1.09534 0.0147523 2.7497e-20)
(0.966355 0.0128023 -1.93942e-21)
(0.965129 0.0114842 7.38922e-21)
(0.964764 0.013591 -1.38768e-20)
(0.084498 0.0955645 1.11781e-19)
(0.0510687 0.12814 -1.44146e-19)
(0.904966 0.00860198 -3.99825e-20)
(0.903807 0.00416204 -2.2055e-20)
(1.01624 0.0521287 4.08918e-22)
(1.01486 0.0506011 -2.21708e-24)
(1.09281 0.0404206 -1.28844e-20)
(1.09191 0.0426441 -1.17563e-20)
(1.09465 0.042381 4.87762e-21)
(1.13981 -0.0721012 3.40246e-20)
(1.13715 -0.0706541 4.33908e-20)
(0.99599 0.0326453 1.60986e-21)
(0.995992 0.0311708 -1.4314e-21)
(0.997085 0.0321601 1.29946e-21)
(1.07677 0.0470093 7.48527e-21)
(1.07898 0.0481682 6.00165e-21)
(1.07675 0.0496018 0)
(1.04015 0.025772 1.03214e-22)
(1.04034 0.0247967 1.80093e-21)
(0.539884 0.0552349 -7.82097e-21)
(0.398593 0.0373056 4.16131e-20)
(0.451722 0.042164 1.79999e-21)
(1.02484 0.0436557 -1.20232e-21)
(1.02492 0.0457045 0)
(-0.0632208 0.000540843 4.40999e-20)
(1.00166 0.00542291 -1.93052e-21)
(1.00186 0.00560863 -1.48648e-21)
(0.37961 0.0954605 3.04753e-20)
(0.403322 0.064838 9.2898e-20)
(1.08642 0.381938 4.7499e-20)
(1.04513 0.354132 -1.7389e-20)
(0.789124 0.266429 1.03016e-19)
(0.995726 0.00027398 6.9005e-21)
(0.995272 0.000497805 6.11002e-21)
(0.987709 0.000610532 -4.43496e-21)
(0.98847 0.000478815 1.13456e-20)
(1.1838 -0.0523451 -2.14657e-20)
(1.18168 -0.0541206 -8.90831e-20)
(1.18572 -0.0550216 3.44544e-20)
(1.06407 0.142545 4.6823e-21)
(1.06945 0.142754 -5.52462e-21)
(1.06569 0.148665 3.33395e-21)
(0.996913 0.00389196 -2.06104e-21)
(0.996639 0.00446592 -2.79516e-21)
(0.401978 -0.0641517 -5.73371e-20)
(0.369387 -0.0612136 1.6987e-20)
(-0.143342 -0.0132513 0)
(-0.120055 -0.0160771 0)
(-0.126856 -0.0150877 -1.58911e-20)
(0.996224 0.0166437 -1.98414e-22)
(0.995925 0.0156559 7.55233e-23)
(0.0908363 0.195918 -7.97672e-20)
(0.12549 0.214314 -6.55495e-20)
(0.0928059 0.234458 8.3434e-20)
(1.09927 -0.0647984 -1.42829e-20)
(1.0982 -0.0640022 2.59033e-21)
(1.09944 -0.063272 3.13431e-20)
(-0.151736 -0.00857354 2.47962e-20)
(-0.127377 -0.012608 1.56536e-20)
(-0.142768 -0.00867649 1.33992e-20)
(1.0583 0.0277929 -3.53684e-21)
(1.05977 0.0283875 0)
(1.0585 0.0295095 -7.7135e-21)
(0.470464 -0.0513622 -1.63761e-21)
(0.466811 -0.0534144 1.51649e-20)
(0.50542 -0.0558722 -2.15317e-20)
(0.999946 0.00208183 0)
(0.999896 0.00242694 0)
(0.999917 0.0024651 0)
(1.00009 0.00329208 0)
(1.00011 0.00361105 2.02926e-21)
(1.00012 0.0032163 0)
(0.996137 0.000517482 2.53709e-21)
(0.389081 0.121715 8.42479e-20)
(0.399478 0.151849 -2.7772e-20)
(0.420868 0.127849 1.39984e-19)
(0.101487 -0.0349944 1.38834e-20)
(0.0895262 -0.0341708 8.04535e-21)
(-0.0748753 0.0142197 -9.34306e-21)
(-0.114174 0.0113649 -1.97793e-20)
(-0.103481 0.0110301 4.92216e-20)
(1.05675 0.0273151 7.29493e-21)
(1.05801 0.0263059 -7.68678e-21)
(1.00042 0.00452109 -7.21227e-22)
(1.00048 0.00443381 2.01627e-21)
(1.00036 0.00410095 2.40855e-21)
(1.10616 0.410121 -3.86347e-20)
(1.19903 0.446035 0)
(1.09186 0.0141581 -1.90138e-20)
(1.09155 0.0162029 -5.3573e-21)
(1.02194 0.00209149 -3.82491e-21)
(1.02209 0.00241396 -3.80723e-21)
(-0.0509353 -0.0236653 0)
(-0.0767868 -0.0210194 0)
(-0.064873 -0.0218741 0)
(1.18564 0.141131 -8.86972e-21)
(1.17954 0.142877 1.49278e-20)
(1.1827 0.147433 8.92379e-22)
(1.0252 0.0254454 -2.92965e-21)
(1.02556 0.0246025 3.48773e-21)
(1.02449 0.0245751 -1.33126e-21)
(0.975279 0.0557773 -4.44374e-21)
(0.9732 0.0570454 3.87443e-21)
(0.975707 0.0583529 -4.88722e-21)
(1.17505 0.44016 8.41701e-21)
(1.03443 0.402252 2.69234e-20)
(0.374195 0.00627778 -8.67668e-20)
(0.402977 -0.000795292 1.08539e-19)
(0.380162 -0.0282812 1.58409e-19)
(1.15289 -0.0548955 0)
(1.15497 -0.0547012 0)
(1.15414 -0.0571011 -1.58957e-20)
(1.15823 -0.00233753 2.48074e-20)
(1.1612 -0.00184564 -7.72901e-23)
(1.15934 0.000511644 3.08682e-20)
(1.1074 -0.0733073 7.78297e-21)
(1.10736 -0.0741548 0)
(1.10643 -0.0738724 1.75331e-20)
(0.594179 0.134155 2.34971e-20)
(0.614314 0.119795 -3.31425e-20)
(0.616042 0.146201 1.15224e-21)
(1.0116 0.0059419 1.81723e-22)
(1.01208 0.00604858 -3.20943e-22)
(1.01189 0.00646184 1.53221e-21)
(0.840977 0.00237136 -2.45601e-20)
(0.844397 0.00973814 7.31141e-20)
(0.84853 0.00297043 4.97075e-20)
(0.679804 0.192329 -4.92552e-20)
(0.697826 0.183832 -5.20866e-20)
(1.06655 0.0214448 2.72931e-22)
(1.06794 0.0211663 -1.42456e-20)
(1.06678 0.0197509 -5.19668e-21)
(1.01733 0.0130226 6.56352e-22)
(1.01735 0.0124161 2.86146e-21)
(1.01796 0.0129767 3.82196e-21)
(0.357023 -0.0526562 3.27256e-20)
(0.347368 -0.0514257 -4.84802e-21)
(0.420115 -0.0535726 3.71826e-20)
(0.816743 0.499192 0)
(0.788678 0.51678 -1.49216e-20)
(0.827099 0.525051 -4.27435e-21)
(1.16354 -0.0144476 5.22221e-22)
(1.16462 -0.0117271 8.21365e-21)
(1.01963 0.049728 0)
(1.01957 0.051577 -1.49836e-22)
(1.11712 0.133087 1.85712e-20)
(1.11326 0.135727 1.79911e-20)
(1.11806 0.138259 3.84774e-20)
(-0.157975 -0.00753719 -2.90659e-20)
(-0.186678 -0.00738263 2.53458e-20)
(-0.174758 -0.00731866 4.23142e-20)
(0.255369 -0.0119098 2.09646e-20)
(0.230986 -0.00835896 0)
(1.10994 -0.0620277 -1.51503e-20)
(1.10892 -0.0627308 -2.77253e-20)
(1.11007 -0.063211 -2.47299e-20)
(0.356943 -0.0540425 2.36967e-20)
(0.298091 -0.0523017 6.28341e-20)
(0.949284 0.0113372 -1.05806e-20)
(0.94791 0.0133883 -8.04864e-21)
(0.947175 0.0106645 2.65086e-21)
(0.0881582 -0.129185 -9.7486e-21)
(0.0991659 -0.0993302 4.27076e-20)
(0.0612464 -0.104661 1.10428e-19)
(1.00126 0.0146977 -2.41291e-21)
(1.00136 0.0154075 -1.22829e-21)
(1.00098 0.0150576 -1.32243e-21)
(0.181203 0.0992207 -7.12501e-20)
(0.211285 0.0808127 8.08757e-21)
(0.212323 0.115932 2.98104e-20)
(0.107296 -0.0100221 7.4352e-21)
(0.114823 -0.0114381 -3.03043e-20)
(0.128075 -0.015073 -1.19374e-20)
(0.907556 0.0165223 7.91671e-21)
(0.904739 0.0197941 -9.30959e-22)
(0.909357 0.0202312 -1.17689e-20)
(1.00001 0.0011059 5.12586e-22)
(0.999991 0.00109417 -3.04069e-21)
(1.18591 -0.0506426 2.24052e-20)
(1.18151 -0.0501019 4.35742e-20)
(0.0704199 -0.0117424 1.24251e-20)
(0.0902336 -0.0156634 -7.9968e-21)
(0.0828449 -0.0150407 3.27052e-21)
(0.762714 0.111648 -1.97814e-20)
(0.774339 0.12043 2.37126e-20)
(1.00516 0.000686932 -4.43815e-22)
(1.0054 0.00100025 -5.36482e-22)
(1.00551 0.000585432 4.28544e-23)
(0.975205 0.0530398 9.48606e-22)
(0.977551 0.0543585 -3.71257e-22)
(1.03714 0.0290995 -8.30953e-22)
(1.03797 0.0300617 -2.01782e-21)
(1.03679 0.0301296 0)
(1.00484 0.000701332 8.00546e-23)
(1.0047 0.000344296 1.31863e-22)
(1.01852 0.00184159 3.91117e-22)
(1.01876 0.00166092 2.25913e-21)
(1.01843 0.00156883 0)
(0.346018 0.00725714 -1.47236e-19)
(0.187351 -0.0317672 7.1412e-21)
(0.176346 -0.0290009 -4.91149e-21)
(0.165907 -0.025889 5.70053e-21)
(0.950803 0.00893629 -1.82793e-20)
(0.951829 0.0116686 -6.97112e-21)
(1.04337 0.0271697 -7.27435e-22)
(1.04206 0.0274433 -4.00933e-21)
(0.999971 0.00101815 3.33687e-21)
(1 0.000693021 -3.62543e-21)
(1.19575 0.0145866 -2.92442e-20)
(1.22829 0.0183349 -4.17874e-20)
(1.15227 0.00927448 3.81305e-20)
(0.618615 -0.0854192 -4.15638e-20)
(0.562036 -0.0802052 -3.14592e-20)
(1.09998 0.137565 -1.39818e-20)
(1.09551 0.134378 1.09964e-20)
(0.577764 0.145198 -2.48114e-20)
(0.57834 0.117496 5.48549e-21)
(0.995237 0.000962963 -7.47837e-21)
(0.994777 0.000675998 7.04319e-21)
(0.906086 0.0125756 3.19354e-20)
(0.910353 0.013687 1.47555e-20)
(1.14796 -0.0894296 -7.41716e-21)
(1.14445 -0.0889369 0)
(1.13692 -0.086632 0)
(1.02669 0.0134829 -1.63864e-21)
(1.02665 0.0141028 0)
(1.02588 0.0135593 0)
(0.963657 0.0249964 -6.355e-21)
(0.961529 0.0257857 -1.58189e-20)
(0.962231 0.0231627 -3.83572e-20)
(0.662922 0.196163 3.21078e-23)
(0.642541 0.202282 -3.58116e-22)
(0.660995 0.219089 -3.84257e-22)
(0.987499 0.00135022 -3.74078e-21)
(0.986923 0.000844723 2.0853e-21)
(0.596914 -0.0679104 -2.86964e-20)
(0.522022 -0.063321 2.85476e-20)
(0.591853 -0.0662094 -3.14207e-20)
(0.804791 0.603777 -2.7249e-22)
(0.812608 0.57473 3.85183e-21)
(0.778126 0.575487 1.60854e-20)
(0.967699 0.0144083 7.85672e-21)
(0.968236 0.0122102 -1.294e-21)
(1.02507 0.0112839 -2.68323e-21)
(1.02515 0.0118771 -2.77057e-21)
(1.02442 0.0113711 3.17227e-21)
(1.06068 0.103475 -5.50654e-21)
(1.05691 0.103862 3.30859e-23)
(1.05944 0.107878 4.22762e-21)
(1.13289 -0.025947 -8.03759e-21)
(1.13475 -0.0276063 -2.07691e-20)
(1.13446 -0.0244613 -2.72589e-20)
(0.112395 -0.150479 -4.69334e-20)
(0.0729089 -0.159884 -4.23332e-20)
(1.12984 -0.0531557 -2.07925e-21)
(1.13181 -0.0536991 9.27114e-21)
(1.13 -0.0549266 2.05457e-20)
(1.02429 0.188094 -3.11871e-21)
(1.02754 0.183227 0)
(1.03199 0.187509 0)
(1.0847 0.0679146 -2.44235e-20)
(1.08242 0.0699355 -7.06331e-22)
(1.08175 0.0667749 -2.15717e-20)
(-0.0372842 0.0446766 -5.19138e-20)
(-0.0550749 0.0500518 -2.10376e-20)
(-0.0872305 0.0430864 7.24309e-20)
(1.05889 0.142939 1.78977e-22)
(1.06196 0.137999 6.1043e-21)
(1.0497 -0.0943712 -7.37861e-21)
(1.09022 -0.0921971 -1.16955e-21)
(1.10387 -0.0922978 -7.59336e-21)
(-0.183031 -0.00683668 4.40994e-20)
(-0.15856 -0.00928063 -3.31324e-21)
(1.23953 0.0191927 -4.00181e-20)
(1.14297 0.0139016 2.22677e-20)
(0.942079 0.0476284 -6.15082e-21)
(0.939275 0.0492927 -2.46125e-20)
(0.939113 0.0456336 1.33497e-21)
(0.789269 -0.0241342 -9.27858e-21)
(0.78357 -0.0156767 -2.4748e-20)
(0.77774 -0.0266376 7.7108e-21)
(1.00002 0.0025558 -2.37549e-22)
(1.00004 0.00246005 1.33608e-21)
(0.999995 0.00210619 1.40403e-21)
(1.15039 -0.0559053 0)
(1.15116 -0.0531581 0)
(1.11128 -0.0612963 4.31657e-20)
(1.10981 -0.0606238 -7.92472e-22)
(1.1077 -0.0725585 1.19421e-21)
(1.10844 -0.0729472 4.50462e-21)
(1.06633 0.0228907 6.18461e-21)
(1.0652 0.0215766 5.95936e-21)
(1.14592 -0.0150218 -6.66406e-21)
(1.14448 -0.0170404 5.65398e-20)
(1.1474 -0.0174665 5.8711e-20)
(1.03459 0.021639 -8.22611e-21)
(1.03548 0.0223054 3.57287e-21)
(1.03437 0.0225898 -5.11036e-21)
(0.83785 -0.00391365 -4.98047e-20)
(0.833244 0.00327861 -5.5568e-20)
(1.04994 0.182694 -7.76006e-21)
(1.04266 0.181921 -3.55393e-21)
(1.0481 0.175905 0)
(-0.281625 -6.49153e-05 -2.26453e-20)
(-0.297592 0.000999185 2.06462e-20)
(-0.269252 -6.42676e-05 7.47491e-20)
(1.10674 -0.065363 -1.49408e-21)
(1.10757 -0.0663683 -2.35541e-20)
(1.10801 -0.0650402 5.87103e-21)
(1.01539 0.0587531 5.84237e-22)
(1.01535 0.0606344 -1.38092e-22)
(1.0135 0.0593523 0)
(0.704171 -0.0766622 3.54746e-20)
(0.694434 -0.0764769 5.94504e-21)
(0.770053 -0.0775794 -1.10708e-20)
(1.01589 0.206001 0)
(1.01282 0.210944 0)
(1.02071 0.210986 5.71033e-21)
(0.198317 -0.0323111 -2.39112e-20)
(0.213004 -0.0354831 0)
(0.150247 0.0822181 -9.62324e-20)
(0.150939 0.119606 -3.69553e-20)
(0.611573 -0.0698498 -1.25202e-20)
(0.679624 -0.0702909 2.61952e-21)
(1.01373 0.0281056 3.42344e-23)
(1.01447 0.0288152 0)
(1.01358 0.0290276 1.41864e-22)
(1.19138 0.140136 -1.66798e-20)
(1.18799 0.135665 2.4806e-20)
(1.12431 0.121682 0)
(1.12312 0.116876 -2.06456e-21)
(1.02744 0.0133503 1.88657e-22)
(1.02664 0.0128333 -2.07131e-22)
(1.00039 0.00463015 5.58813e-24)
(1.0005 0.00498234 -8.33142e-22)
(0.93718 0.121398 1.10757e-20)
(0.933255 0.117356 0)
(0.939404 0.116846 -7.21122e-21)
(0.533062 -0.0655472 4.19332e-21)
(0.527962 -0.0657089 -1.85729e-20)
(1.25952 0.153741 4.77991e-20)
(1.26691 0.152334 -1.73665e-20)
(1.26728 0.159149 4.39325e-20)
(-0.0200227 0.0448343 -7.01261e-21)
(0.0462826 0.0590757 -1.63353e-19)
(1.12608 0.0454518 8.0988e-21)
(1.12542 0.0482024 -4.09447e-20)
(1.12842 0.0470599 -8.87348e-21)
(1.11574 -0.0701116 1.32539e-20)
(1.11475 -0.0705665 -1.51097e-20)
(1.11533 -0.0712722 3.00806e-20)
(1.16567 -0.0893737 -3.15402e-20)
(1.16959 -0.0911906 1.24513e-20)
(1.17256 -0.0907972 -1.57369e-20)
(-0.0306859 0.0163611 -2.0304e-20)
(-0.0433254 0.0160622 0)
(1.25121 0.195926 -2.81698e-20)
(1.25186 0.189438 -2.87857e-20)
(1.25921 0.193608 -7.75089e-20)
(0.999873 0.00859451 2.47838e-21)
(0.999948 0.00816932 -1.50893e-21)
(0.99978 0.00806795 -1.39332e-21)
(0.566928 0.0556319 -6.08358e-22)
(0.572458 0.0757187 -6.68959e-22)
(0.547615 0.0698143 5.50188e-20)
(0.796956 0.0358739 2.90415e-20)
(0.7961 0.047044 3.44415e-21)
(1.00998 0.000396924 -1.14143e-21)
(1.00961 0.000392708 6.11207e-22)
(1.02477 0.0261445 -2.15985e-22)
(1.02593 0.026265 -1.80399e-21)
(0.865074 0.466641 0)
(0.860038 0.439427 0)
(0.886909 0.448438 2.5877e-21)
(1.21652 0.496679 -2.35109e-20)
(1.21639 0.476243 3.82314e-20)
(1.11077 0.440379 0)
(1.08372 -0.00492716 0)
(1.085 -0.00584532 5.54282e-22)
(1.08535 -0.00422247 1.27899e-20)
(1.00322 0.00093201 3.27952e-22)
(1.0032 0.000582709 2.19078e-22)
(1.13867 -0.01907 -8.08052e-21)
(1.13694 -0.0171849 -8.29812e-21)
(1.14006 -0.016742 7.31627e-21)
(1.13166 -0.0279474 3.30834e-20)
(1.13063 -0.0250107 1.4174e-20)
(-0.15928 -0.0118254 -2.45505e-20)
(-0.165369 -0.0112191 0)
(1.21755 -0.0259517 -4.39379e-20)
(1.22572 -0.0287698 -4.9943e-20)
(1.2551 -0.0255661 -4.4689e-20)
(0.992251 0.0128604 -6.5831e-21)
(0.991773 0.0127029 -4.27448e-22)
(0.994907 0.0329229 6.6083e-21)
(0.995964 0.0338617 -2.85297e-21)
(1.15548 -0.00288088 2.89468e-20)
(1.15704 -0.00524989 -2.50527e-21)
(0.501212 -0.0689249 -8.27426e-21)
(0.556114 -0.0723786 0)
(0.538269 -0.0718403 1.58738e-20)
(0.965528 0.0239595 2.31999e-20)
(0.965274 0.0263739 9.96738e-21)
(0.419474 -0.0634359 4.74022e-21)
(0.409249 -0.0633431 -2.01935e-20)
(0.460109 -0.0669757 1.8201e-20)
(-0.212016 -0.00719199 -1.50261e-20)
(-0.187504 -0.00851744 -1.73333e-20)
(-0.206647 -0.00715474 6.43069e-21)
(1.1161 -0.0690187 -1.43365e-20)
(1.11707 -0.0700648 3.41563e-21)
(1.01682 0.0129647 -8.26972e-22)
(1.01731 0.0134951 1.02726e-22)
(0.491838 0.390027 -2.48933e-20)
(0.511299 0.424867 -2.38193e-21)
(0.458606 0.425644 -3.93106e-20)
(1.14703 -0.00384987 -2.00169e-20)
(1.14989 -0.00363284 -1.9227e-22)
(1.14807 -0.00121734 1.01096e-21)
(-0.275033 -0.0042508 -1.42292e-20)
(-0.24513 -0.00649169 1.28304e-20)
(-0.262421 -0.00342796 2.39952e-20)
(1.00342 0.0194915 3.93881e-21)
(1.00383 0.0199198 1.38823e-22)
(1.00345 0.0203427 -1.75847e-21)
(0.681292 0.0767978 2.76938e-20)
(0.639414 0.0740845 4.44114e-20)
(1.01293 0.0272913 3.41597e-23)
(1.01381 0.0271897 -6.62311e-23)
(1.20141 0.0813846 3.14285e-20)
(1.19787 0.0787164 2.66945e-20)
(1.19732 0.0830734 0)
(1.00867 0.00125667 1.94674e-22)
(1.00845 0.000870202 7.14873e-22)
(0.0490041 -0.0326803 -2.25082e-21)
(0.0255085 -0.0305389 2.09182e-20)
(0.0433804 -0.0312996 -5.19383e-21)
(0.339332 -0.0500325 -4.59048e-20)
(0.33018 -0.0491487 1.52072e-20)
(0.399577 -0.0502981 -2.0215e-20)
(0.996537 0.0991179 4.04977e-21)
(1.00022 0.0978718 -4.46901e-21)
(1.17267 0.492768 -8.83765e-20)
(1.2141 0.505322 -7.60378e-20)
(1.18403 0.474719 3.8968e-20)
(1.08768 0.0687192 -1.01519e-20)
(1.08634 0.0657084 3.95927e-21)
(1.01609 0.0128415 8.88966e-22)
(1.0162 0.012261 9.8645e-22)
(1.14182 -0.0894722 -1.39126e-20)
(1.14099 -0.0901982 1.0195e-20)
(1.10553 -0.0657077 5.87147e-22)
(1.10588 -0.0643945 1.11466e-20)
(1.12386 0.0438721 3.36259e-21)
(1.12651 0.042759 3.24229e-20)
(0.597374 -0.0798462 2.24086e-20)
(0.552531 -0.0779726 1.54499e-20)
(0.620159 -0.0808074 1.77393e-20)
(-0.219244 -0.00425586 1.31325e-20)
(-0.239097 -0.00421487 -3.37485e-20)
(1.0126 0.00323602 -4.69952e-22)
(1.01301 0.00328449 -2.21965e-22)
(1.01279 0.00284225 -1.90687e-23)
(1.0694 0.0950602 -1.11761e-20)
(1.06857 0.0989604 6.63928e-21)
(-0.0330099 -0.0263349 4.2898e-20)
(-0.0212818 -0.0271088 -1.17371e-20)
(-0.126739 0.0159843 4.85521e-20)
(-0.153919 0.0138173 -1.54633e-20)
(-0.130179 0.0164244 2.87307e-20)
(1.00001 0.00252523 -1.65911e-21)
(0.999992 0.00293955 -1.55159e-21)
(1.00638 0.00943403 1.98314e-22)
(1.00682 0.00970419 -3.25026e-22)
(1.00658 0.00992284 5.10012e-22)
(0.278948 -0.00894378 1.83182e-20)
(0.297878 -0.0118412 -5.85635e-21)
(1.16112 -0.0558865 2.39172e-20)
(1.15901 -0.0566305 5.25152e-21)
(1.16044 -0.0585694 6.90346e-21)
(1.00006 0.000139329 3.72108e-22)
(1.00003 0.000106525 -2.41313e-22)
(1.00006 0.000174945 -1.02896e-21)
(1.12863 -0.0854354 9.79989e-21)
(1.1259 -0.0850853 -4.73147e-20)
(1.12036 -0.0836759 -2.06153e-20)
(1.1955 0.020495 0)
(1.19463 0.0167322 -2.27016e-20)
(1.19144 0.0197171 -2.61184e-20)
(0.798517 -0.0240014 2.21527e-20)
(0.794037 -0.0336606 3.48534e-20)
(1.097 0.11481 -2.62404e-21)
(1.10001 0.118594 1.98294e-20)
(1.10086 0.113407 -5.28897e-21)
(1.00004 0.00288779 0)
(1.00006 0.00244242 0)
(0.981247 0.216908 -8.10962e-21)
(0.982796 0.207172 -6.29329e-21)
(0.972925 0.211266 -2.74239e-21)
(-0.187163 -0.00747075 -2.94472e-20)
(-0.185172 -0.00667012 4.81971e-20)
(-0.216369 -0.00382024 0)
(1.04359 0.00218833 1.68109e-22)
(1.04381 0.00141928 -1.14788e-20)
(1.0447 0.00200009 -9.19513e-21)
(1.20654 0.156767 -2.6697e-20)
(1.20078 0.159768 2.39384e-20)
(1.20184 0.152087 2.32371e-20)
(0.567569 0.16278 -1.65902e-20)
(0.582892 0.183613 3.17695e-20)
(0.552967 0.188735 3.40841e-20)
(1.0363 0.0281127 -9.00919e-22)
(1.03743 0.0279636 1.29618e-22)
(0.996052 0.0298556 -1.38805e-21)
(0.995074 0.0302583 -1.37251e-21)
(1.12361 -0.0463767 -1.86514e-20)
(1.12557 -0.047327 -4.23525e-21)
(1.12355 -0.0483442 6.2467e-21)
(0.311495 -0.0177071 0)
(0.296213 -0.0149514 0)
(0.293742 -0.0150074 -5.71556e-21)
(1.12784 -0.0529391 -1.30056e-20)
(1.12965 -0.051399 1.35607e-21)
(0.940132 0.125877 -1.58332e-21)
(0.934457 0.12702 8.62691e-21)
(0.978708 0.100409 9.9497e-21)
(0.976032 0.104269 -1.74102e-21)
(1.00006 0.000302677 -1.67487e-21)
(1.00005 0.000263083 4.344e-23)
(1.00002 0.000177523 1.91404e-22)
(0.0517743 -0.00863525 -5.84849e-21)
(0.0589104 -0.00900884 1.91443e-20)
(0.48946 -0.0249672 -3.59311e-20)
(0.573938 -0.0276522 1.598e-22)
(0.56917 -0.0248465 -3.36549e-20)
(1.12493 -0.0842887 1.00266e-20)
(1.12773 -0.0855886 -4.94872e-22)
(1.12784 -0.0859828 1.62399e-20)
(1.01553 0.0127771 -2.64639e-22)
(1.01604 0.0133433 -8.65573e-22)
(-0.186396 -0.00856999 3.26504e-20)
(-0.160716 -0.010584 -3.58536e-20)
(-0.170393 -0.00926365 -2.88867e-23)
(-0.0484429 -0.0107743 1.29804e-20)
(-0.0431979 -0.00952213 -4.86952e-21)
(-0.0697639 -0.00631125 1.20403e-20)
(0.989924 -0.0939063 8.48092e-21)
(1.01042 -0.0943578 2.00805e-20)
(0.468942 -0.0513186 -1.65781e-20)
(0.439769 -0.0502215 1.62998e-21)
(1.10032 -0.065287 -1.38009e-20)
(1.09921 -0.0659264 5.26612e-21)
(1.00004 0.00334989 -3.71065e-22)
(1.0066 0.000772239 2.29064e-22)
(1.00625 0.00082518 1.28495e-22)
(1.00666 0.00121366 -1.75999e-22)
(1.15355 0.0181512 -1.49506e-20)
(1.15065 0.0176721 2.59191e-20)
(1.15291 0.0152593 2.45223e-20)
(-0.0184955 -0.0236813 3.55661e-20)
(-0.0361192 -0.0204391 4.05822e-20)
(-0.0416497 -0.0201737 -2.39286e-20)
(1.18619 -0.024034 6.50891e-21)
(1.18818 -0.0215809 -3.4508e-20)
(1.18952 -0.0254321 1.99751e-20)
(1.07451 0.0460849 7.02707e-21)
(1.07657 0.0447837 -9.02445e-21)
(1.20349 -0.0248795 1.45744e-20)
(1.14646 -0.0320279 0)
(1.08935 -0.0462682 9.61922e-23)
(1.08818 -0.0454317 -8.60876e-21)
(1.01838 0.00101023 -2.48255e-21)
(1.01836 0.00126619 -1.83381e-21)
(1.01859 0.00111829 1.6281e-21)
(0.84774 0.0363199 2.57275e-20)
(0.839823 0.0307564 -1.5389e-21)
(0.751044 0.0177894 7.52689e-20)
(1.0021 0.00508877 1.41196e-22)
(1.0021 0.0048627 -1.13197e-21)
(1.00189 0.00472606 -4.51236e-23)
(0.704371 -0.0781569 7.12178e-21)
(0.633909 -0.0758321 2.37198e-20)
(1.08229 -0.00365558 0)
(1.08187 -0.00529432 -7.53386e-21)
(1.00007 0.000107954 0)
(1.0001 0.000170269 0)
(1.00305 0.1133 3.14602e-21)
(1.0018 0.118077 3.44583e-21)
(0.998933 0.11354 2.50447e-21)
(1.02231 0.193905 -6.68627e-22)
(1.01787 0.188388 -2.98268e-21)
(0.778265 -0.00589519 0)
(0.788548 -0.00537724 0)
(1.13572 -0.0880126 2.31487e-20)
(1.13191 -0.0861555 1.58765e-20)
(1.00032 0.148462 -7.01927e-22)
(1.00054 0.154684 -7.7282e-22)
(0.994487 0.15049 -6.77351e-22)
(1.04722 0.00879719 1.09706e-20)
(1.04794 0.0097208 4.41849e-21)
(1.04672 0.00954177 -4.47018e-21)
(1.27808 0.0372949 2.80412e-20)
(1.28081 0.0419503 5.872e-20)
(1.29869 0.0390816 9.1862e-20)
(0.635787 -0.081182 0)
(0.570847 -0.0799962 0)
(0.417862 -0.0300309 -3.27304e-21)
(0.422881 -0.0283915 -3.17848e-21)
(1.00296 0.0192404 -8.78707e-22)
(1.0033 0.0188394 4.35704e-21)
(0.967463 -0.0908973 -4.06655e-21)
(1.01705 -0.0897358 4.03062e-20)
(0.9539 -0.0895862 1.54379e-20)
(0.9985 0.00071847 -1.79058e-21)
(0.998399 0.000986965 -1.40472e-21)
(0.998213 0.000795869 1.10292e-21)
(1.04675 0.0078635 7.37905e-21)
(1.04798 0.00795893 5.75901e-21)
(1.00114 0.0139417 3.875e-21)
(1.00152 0.0142895 -1.58873e-21)
(0.83421 0.633995 -1.91774e-20)
(0.787258 0.639585 0)
(1.00165 0.00096908 6.72667e-22)
(1.00179 0.000845045 0)
(1.00154 0.00076083 -1.04901e-22)
(1.20472 0.0837679 -2.75631e-20)
(1.20525 0.0795204 2.72073e-20)
(1.09311 0.117149 1.3732e-21)
(1.09357 0.112011 -8.93139e-21)
(1.03363 0.0208992 3.66746e-21)
(1.03474 0.0206696 -9.39752e-21)
(1.14015 -0.0210288 0)
(1.13703 -0.0206207 2.21835e-20)
(1.04025 0.0612545 8.01745e-22)
(1.04122 0.0594479 -2.71016e-21)
(1.04265 0.0613711 0)
(0.11937 0.0616394 1.49076e-19)
(0.106893 0.045634 3.8431e-20)
(0.104542 0.0777223 2.35896e-19)
(1.01965 0.200653 2.10601e-21)
(1.01218 0.200884 0)
(1.17658 0.136913 4.89619e-20)
(1.17325 0.142997 -8.98926e-21)
(1.03208 0.0145457 -1.50071e-21)
(1.03283 0.0152209 -4.13183e-21)
(1.03286 0.014302 -3.522e-21)
(0.996973 0.0294376 0)
(0.996092 0.0286433 5.33088e-21)
(-0.175882 -0.00577184 -9.2145e-20)
(-0.197007 -0.00545509 1.38451e-20)
(-0.201513 -0.00557183 -1.67206e-20)
(0.0498087 -0.0113334 -8.2611e-21)
(0.041851 -0.0107712 -8.37487e-21)
(0.0632676 -0.0151594 -3.37185e-20)
(1.00137 0.0161343 7.49107e-22)
(1.0017 0.0157731 -1.23856e-21)
(1.00732 0.000713362 -2.35151e-22)
(1.00777 0.000961321 -7.78904e-22)
(1.00735 0.00126134 -6.71466e-22)
(0.840665 0.0350749 0)
(0.955895 0.0455201 0)
(1.01692 0.026477 0)
(1.01721 0.0275122 -5.953e-22)
(1.01804 0.0269905 -1.49903e-21)
(-0.0949335 -0.0186201 0)
(-0.112136 -0.0169521 0)
(1.03125 0.0140721 3.86005e-21)
(1.03127 0.0149644 3.5052e-21)
(0.0536699 -0.0333942 0)
(0.0723134 -0.035173 0)
(1.05093 -0.00754614 -2.77217e-23)
(1.05031 -0.00829381 -6.9408e-21)
(1.05135 -0.00835649 9.36568e-21)
(1.2131 0.333519 0)
(1.20091 0.332464 -4.43713e-20)
(1.20572 0.345321 0)
(1.11272 0.00228738 -4.29224e-20)
(1.11251 0.00452542 -1.94612e-21)
(1.1149 0.00354117 3.01119e-21)
(0.0975238 0.309351 -6.79048e-20)
(0.0959257 0.269238 9.59629e-21)
(0.130983 0.28677 -7.01451e-20)
(0.945317 0.048782 8.68264e-21)
(0.944832 0.0453306 0)
(1.29161 0.0311226 -6.4355e-20)
(1.25366 0.0274194 8.87959e-21)
(0.515249 0.297241 1.26177e-19)
(0.488424 0.307529 4.58492e-20)
(0.516266 0.329745 8.67392e-20)
(1.00715 0.113582 2.36407e-21)
(1.00468 0.110111 2.85954e-22)
(1.16223 -0.0539565 2.59231e-20)
(1.16316 -0.055852 2.01357e-20)
(0.949264 0.515003 6.96652e-21)
(0.966284 0.533148 7.44723e-21)
(0.937053 0.538058 -1.64622e-20)
(0.997971 0.0466641 1.45552e-21)
(0.996425 0.0461749 -1.80829e-21)
(0.996887 0.0480741 -3.54954e-21)
(0.133583 -0.0311122 0)
(0.108931 -0.0270234 0)
(0.119404 -0.0278431 2.2517e-20)
(0.582037 0.0444645 1.2207e-21)
(0.561376 0.035487 -8.2481e-21)
(-0.0318965 -0.0135567 -1.4138e-20)
(-0.0505231 -0.0115133 -7.94944e-21)
(0.923313 0.0219857 -3.08708e-20)
(0.919709 0.0232695 -5.13664e-22)
(0.922541 0.0260313 -2.56907e-20)
(0.167458 -0.00923129 5.40483e-21)
(0.143697 -0.00567283 -1.82427e-20)
(0.170758 -0.00834997 1.11884e-20)
(1.07273 0.0942063 -6.14361e-21)
(1.07515 0.097791 0)
(1.0763 0.0940694 0)
(-0.102029 -0.000579378 7.14662e-20)
(-0.0744557 -0.000129378 -5.61991e-20)
(-0.064668 -0.0010806 3.43953e-20)
(0.521725 0.266179 -9.60691e-21)
(0.547051 0.289466 -8.83824e-21)
(0.926765 0.356446 3.99546e-21)
(0.910215 0.353922 0)
(0.919134 0.371605 -3.13936e-22)
(0.944834 0.362088 3.84388e-21)
(0.936647 0.343562 4.21242e-21)
(0.451442 -0.0703745 0)
(0.423602 -0.0699188 -7.84389e-21)
(0.999777 0.0026947 1.91549e-21)
(0.999718 0.0030075 0)
(0.999748 0.00304094 0)
(1.05694 0.181719 3.17263e-21)
(1.05379 0.188678 -2.52577e-21)
(-0.125552 -0.00856115 -2.90876e-20)
(-0.137754 -0.00808147 5.58182e-20)
(0.983957 0.0322993 6.83736e-21)
(0.983049 0.0332416 1.28161e-22)
(0.982676 0.0315238 9.8858e-21)
(1.00421 0.0776663 0)
(1.005 0.0751869 0)
(1.00218 0.0756835 0)
(-0.0270485 -0.0104561 1.27032e-20)
(-0.0196558 -0.0105771 -4.29687e-20)
(0.841828 0.485193 0)
(0.874097 0.49347 1.24967e-21)
(1.0192 0.0553028 -4.45015e-22)
(1.01919 0.0570029 -3.3291e-22)
(1.02112 0.0564321 -1.30289e-21)
(1.15884 -0.0867308 -5.5872e-21)
(1.15495 -0.0871617 1.63709e-22)
(0.678171 0.555688 -1.35899e-20)
(0.70445 0.527727 -3.18977e-20)
(1.00951 0.00531918 -6.64069e-23)
(1.00997 0.00558748 -1.65701e-22)
(1.00988 0.00507738 -1.81089e-22)
(0.0999131 -0.00982826 2.4352e-20)
(0.0809819 -0.00659573 4.26285e-20)
(1.15451 -0.0901997 -3.9813e-20)
(1.14764 -0.0926179 -2.33696e-21)
(1.15336 -0.089097 1.70937e-20)
(1.00209 0.00531037 1.19504e-21)
(1.00231 0.00546734 2.37306e-21)
(1.01053 0.0138702 1.53911e-22)
(1.00998 0.0134893 -6.85244e-23)