/*--------------------------------*- C++ -*----------------------------------*\
| =========                 |                                                 |
| \\      /  F ield         | OpenFOAM: The Open Source CFD Toolbox           |
|  \\    /   O peration     | Version:  v2012                                 |
|   \\  /    A nd           | Website:  www.openfoam.com                      |
|    \\/     M anipulation  |                                                 |
\*---------------------------------------------------------------------------*/
FoamFile
{
    version     2.0;
    format      ascii;
    class       surfaceScalarField;
    location    "450";
    object      meshPhi;
}
// * * * * * * * * * * * * * * * * * * * * * * * * * * * * * * * * * * * * * //

dimensions      [0 3 -1 0 0 0 0];
oriented        oriented;


internalField   nonuniform List<scalar> 
20580
(
-0.000104539
0.000116928
-1.23789e-05
-0.000259034
0.000114643
0.000144777
-9.5387e-06
-0.000248921
5.76064e-05
-7.55262e-05
1.79199e-05
2.05643e-05
1.53906e-05
-2.31775e-05
1.50352e-05
0.000217372
-0.000232031
-0.000163165
0.000255337
4.0385e-05
2.38517e-05
-4.20479e-05
-2.89104e-05
-3.55081e-05
6.44186e-05
-6.67442e-05
0.000370541
-0.000302876
9.9665e-05
-0.000170536
7.09112e-05
-4.92589e-05
-0.000201367
0.000254127
0.000298023
-5.56529e-05
-0.000241963
-2.22686e-05
5.71336e-05
-3.4865e-05
-0.000104438
0.000195883
-9.13315e-05
-9.37818e-05
-1.67228e-05
0.000110513
-7.28253e-05
5.49471e-05
1.78782e-05
-0.000348396
0.000107393
0.000243175
-6.1417e-05
-4.0028e-05
0.000101449
3.18764e-05
-0.000136404
0.000215469
-8.34707e-05
-0.00013189
8.66893e-05
0.000157513
-0.000243888
-7.53055e-05
3.61526e-05
3.91533e-05
1.43756e-05
5.38004e-07
-1.23388e-05
-8.98328e-05
2.11814e-06
8.77165e-05
-0.0001681
0.000102553
6.55816e-05
-0.000108802
7.2405e-05
3.64001e-05
-3.39946e-05
-5.50314e-05
8.90277e-05
-7.85896e-05
4.28542e-05
3.57356e-05
7.19111e-05
0.000255187
-0.000320958
-1.02568e-05
6.77636e-05
-5.75066e-05
0.000115006
-0.00027756
0.000106822
2.10048e-05
-0.000127815
3.30844e-05
4.39074e-05
-7.69915e-05
-0.000119789
-3.92283e-05
0.000159077
7.559e-05
-8.95882e-05
1.39984e-05
2.28406e-09
1.55205e-05
-0.000100737
5.96552e-05
4.10835e-05
6.00639e-05
1.71274e-05
-7.71911e-05
0.000350677
-0.0002796
-6.98209e-05
6.36639e-05
-8.04007e-05
1.6737e-05
-3.53662e-05
-4.32231e-05
-3.84775e-05
-2.15947e-05
-0.000115895
9.35795e-05
2.23183e-05
-5.58084e-05
-1.6406e-05
7.22146e-05
6.90377e-05
0.000257455
-0.00032339
5.05446e-05
-9.45828e-05
-3.67733e-05
9.48401e-05
-5.80592e-05
0.00034177
-0.000149851
-0.000191221
1.46158e-05
0.000283649
-4.41519e-05
-1.59202e-05
6.00722e-05
0.000354018
-0.000103123
-0.0002505
2.87955e-05
-0.000122568
-0.000224233
0.000171011
5.34087e-05
4.5684e-05
-7.4329e-05
2.8645e-05
0.000247824
0.000103776
0.000114554
-7.72281e-06
4.21534e-06
5.94487e-05
-0.00011259
6.08609e-05
5.17315e-05
6.47362e-05
4.79858e-06
-6.95348e-05
0.000201253
-0.000246745
-7.59533e-05
-3.28457e-05
0.000329087
-0.000339286
1.08711e-05
0.000144873
0.000197451
0.000112564
-5.05359e-05
-6.20235e-05
7.02901e-05
4.22767e-05
8.21761e-06
5.65186e-05
1.88067e-05
-0.000101901
0.000121466
0.000205644
-0.000325695
-7.22434e-05
6.1611e-05
1.06325e-05
-4.16879e-05
6.23511e-05
-2.0663e-05
-9.91694e-05
-6.30831e-05
0.000162319
-0.000353145
0.000236401
0.000117766
-5.65797e-05
6.13783e-05
9.66329e-05
-0.000209989
0.000113517
0.00012103
0.000140602
-0.000261194
-1.61962e-05
-5.66291e-05
-0.000374792
6.41574e-05
0.000321645
1.4461e-05
-0.000104292
6.48902e-05
-0.000355794
0.000294382
-0.000180276
0.000303093
-0.000101008
-2.31365e-06
0.000103326
-0.000212007
9.22961e-05
5.522e-05
1.46779e-05
-6.98979e-05
1.14161e-05
-6.79958e-05
4.73696e-05
3.50776e-05
-8.24471e-05
0.000233298
-0.00014633
-1.71971e-05
5.9176e-05
-4.19789e-05
0.000321041
-0.000312913
-6.83645e-06
-5.72775e-05
4.70209e-05
5.23759e-05
0.000301846
-0.00012844
0.000243996
-3.3963e-05
-2.61092e-05
-1.95911e-05
6.69608e-05
-7.96587e-05
1.50604e-05
6.45984e-05
7.55044e-05
-0.000105258
2.97577e-05
-0.000470502
0.00019272
0.000280521
7.01187e-05
6.04236e-05
-0.000130533
-3.67121e-05
-2.40178e-05
6.07299e-05
-0.000131823
6.88864e-05
6.29459e-05
-3.88739e-05
0.000109001
-5.63498e-05
0.000154746
-9.83843e-05
-0.000147015
2.12336e-05
0.000125801
0.000316284
-0.000357905
4.2303e-05
-0.000124739
0.000318746
-0.000190965
-0.000187255
2.6228e-05
0.000161091
-0.000356754
0.000235499
1.6292e-05
-5.79799e-05
-0.000250812
0.000122957
-8.39183e-05
-0.000262167
-0.000232507
8.6229e-05
0.000146417
-0.000289604
0.000362023
-0.000103111
-2.32332e-06
0.000105442
0.000155493
-0.00010653
-4.89294e-05
-7.64452e-05
-4.07204e-05
0.000117176
-0.00015291
-7.10954e-05
-0.000349282
0.000148682
0.000208222
-3.1641e-05
9.49553e-05
5.17875e-05
5.81888e-06
-1.5765e-05
-5.64783e-05
-0.000117772
2.31467e-05
9.46315e-05
0.000380729
-3.26029e-05
-0.000343924
-0.000197411
-6.59905e-05
0.000264445
5.68032e-05
-7.47391e-05
1.79359e-05
-0.000114972
1.37927e-05
0.000101184
0.000106806
-7.73683e-06
-9.9068e-05
-0.000136375
-0.000331181
0.000160222
-0.000113358
-4.68231e-05
-4.17455e-05
7.60802e-05
-3.43346e-05
-0.000174539
0.000162607
1.19983e-05
-8.62602e-05
0.000244058
0.000221269
1.81256e-05
-0.000239226
-5.04826e-05
-5.0253e-05
-4.6146e-05
7.92306e-05
0.000145616
-4.59179e-05
-7.66605e-05
3.5905e-05
4.07556e-05
-0.000108983
-2.40121e-05
5.90898e-05
-0.000186602
7.44225e-05
0.000112205
0.000118215
-0.000202851
8.47132e-05
2.07547e-05
-0.000121757
5.75797e-05
0.000208986
-0.000266178
0.000353929
-3.19087e-05
-1.18373e-05
9.15533e-05
-7.97117e-05
-0.000105313
5.66052e-05
4.87094e-05
-0.000292271
0.00015762
0.000135102
-3.20159e-05
-0.000331438
4.81726e-05
-2.43794e-05
-3.84684e-05
6.2848e-05
0.000130881
2.93689e-05
-0.000100961
6.20933e-05
3.2081e-05
-0.000135182
0.000103966
5.15548e-05
5.37366e-05
6.00265e-05
-0.000113758
0.000237372
-0.000337428
0.000100394
-0.000361356
0.000309348
5.24198e-05
-0.000260538
0.00027659
-1.12339e-05
1.34905e-06
5.87149e-05
-8.58921e-06
0.000116955
-0.000108306
-0.000296443
0.000157788
0.000139207
3.27196e-05
-2.99101e-05
6.98349e-07
5.88064e-05
2.20813e-05
-8.08876e-05
-2.12281e-06
-0.000185062
-0.000119225
8.24626e-05
-6.13892e-05
3.91206e-05
-5.66572e-05
6.82019e-05
-1.15445e-05
2.64057e-05
-8.30627e-05
2.46253e-05
-6.87773e-05
-0.000152496
-7.98561e-05
-4.3893e-05
-3.5407e-05
7.93008e-05
2.73784e-05
0.000207295
-0.000230975
-6.63768e-05
-0.000272574
6.93911e-05
9.34748e-05
-0.000162822
-1.62575e-05
3.9403e-05
-1.33455e-05
-7.37318e-06
-7.22854e-05
7.86779e-05
-0.000108616
2.99409e-05
-9.32454e-05
-1.401e-05
0.000107263
-0.000316718
0.000259527
0.000125867
8.64081e-05
-0.000212117
3.10904e-05
-0.000124328
3.81343e-06
-0.00011878
-4.03869e-05
0.000217638
-7.80673e-05
-0.000139411
4.41791e-05
-0.000218624
-2.04415e-05
-3.96307e-05
-5.62289e-05
3.18495e-05
-8.96911e-05
0.000110706
-0.000222829
0.000191108
3.17622e-05
-0.000214985
0.000346577
-0.000131201
-0.00041802
0.000333089
8.96997e-05
-5.96869e-05
-4.56243e-05
0.000158591
-0.000167093
4.6335e-06
5.25001e-05
-0.000212942
0.000228342
-0.00011645
-0.00017534
4.759e-05
8.19154e-05
-0.000129496
1.21589e-06
-9.08987e-05
-0.000279532
0.000343867
-6.25963e-05
0.000360545
-5.72018e-05
-0.000301671
0.000145504
-6.99592e-05
-7.55405e-05
7.57573e-05
3.79999e-05
-0.000113752
8.01508e-05
-2.83182e-05
-5.18325e-05
4.85969e-05
3.14634e-05
-8.00601e-05
-0.000197246
9.29297e-05
-6.86537e-05
6.06006e-05
8.05356e-06
6.43703e-05
1.57805e-05
-0.000148855
-0.000104704
0.00025361
0.000165487
1.89538e-05
-0.000184373
3.15943e-05
-7.21967e-05
4.06025e-05
-0.000197605
0.000249214
-5.12925e-05
-0.000109915
8.12067e-07
0.000109112
7.8618e-05
-0.000275033
9.65161e-05
3.17266e-06
-0.000109187
0.000107409
-0.000169256
6.3535e-06
0.000162966
-6.3368e-05
-0.000166426
0.000230117
0.000311709
-0.000296832
-0.000110591
5.58376e-05
5.47576e-05
0.000344106
-0.000341198
-1.21261e-06
-1.75352e-05
-3.91112e-05
-0.000270213
-3.65372e-05
8.07517e-05
4.88709e-05
-0.000129612
-1.0018e-05
6.5238e-05
5.18714e-05
2.80048e-05
-7.98761e-05
0.000208927
-6.49577e-05
-0.000143921
-1.96763e-06
0.000167518
3.90627e-06
-5.08288e-05
4.87359e-05
-0.000102773
9.09404e-05
0.000350223
-3.70968e-05
-0.000309564
-0.000208407
-8.1459e-05
6.4576e-05
1.68832e-05
-0.000160252
-6.25151e-05
-0.000260698
6.35071e-05
-1.45084e-05
-0.000291966
6.76259e-05
-1.90288e-05
0.000372448
-0.000293762
-4.03783e-05
-3.49267e-05
3.3585e-05
3.947e-05
-7.30549e-05
-6.29435e-05
-6.8869e-05
3.32268e-05
1.36327e-06
-9.39173e-05
-3.42093e-06
9.73404e-05
5.54061e-05
8.20604e-06
-6.36121e-05
-8.52265e-05
2.94184e-05
-0.000126629
0.000175602
6.23726e-05
-0.000237816
-7.80844e-05
-9.41132e-06
8.74984e-05
-5.33542e-05
-5.72316e-05
0.000209411
-8.33913e-05
-3.10702e-05
-7.41843e-05
0.00010895
0.00010367
-0.000212497
-7.34076e-05
2.42181e-05
4.91896e-05
0.000120636
1.60092e-05
-0.000136634
-6.3488e-05
2.74465e-05
5.8864e-05
0.000258242
-0.000209749
-4.81366e-05
0.000108022
-9.58567e-06
6.83923e-05
6.12793e-05
-7.44509e-05
1.31716e-05
-0.000150186
-0.000263088
-2.32855e-06
0.000313026
-0.000310722
-1.37928e-06
5.97906e-05
5.24598e-05
-0.000112244
8.94171e-05
3.48446e-05
-0.000124256
0.00015188
0.000106593
-0.000164525
0.000162464
5.32034e-06
0.000115326
0.000413378
-0.00011063
-0.00030136
-0.000135373
7.90325e-05
-1.86919e-05
0.00010963
-9.09258e-05
6.66148e-05
4.11674e-05
-0.00010778
8.54713e-05
-0.000341419
0.00025823
9.54861e-06
0.000302349
4.8716e-05
7.04262e-05
9.71727e-06
-8.01433e-05
-5.79408e-05
6.65887e-05
-8.6478e-06
0.00011407
-0.000174098
6.00894e-05
0.000114274
0.000269949
-9.56525e-05
9.94704e-05
5.19302e-05
5.9855e-05
-0.00011178
8.91917e-05
5.24846e-05
-0.000141663
2.68743e-05
-0.000191329
4.30713e-09
7.04221e-05
-4.13303e-05
-1.87419e-05
6.00722e-05
-0.00022918
1.54871e-05
0.000213929
-0.000216026
0.000181895
3.42454e-05
-5.09663e-05
-2.961e-05
8.05776e-05
-0.000455862
0.000307306
0.000151947
0.000251209
-0.000241043
-5.55869e-06
-1.59139e-05
0.000105116
0.000171455
-8.82178e-05
-8.31945e-05
-2.48208e-05
0.000328628
-0.000298215
-8.52214e-05
0.000112701
-2.46595e-05
0.000102091
0.000251188
2.53388e-05
2.19932e-05
-3.11829e-05
-0.00023249
0.000160963
7.16837e-05
-4.51214e-06
3.66868e-05
-6.55971e-05
0.00014936
6.61863e-05
-0.000362868
8.86244e-05
0.000275688
6.60045e-05
7.93582e-06
4.88674e-05
0.000334572
-0.000235763
-9.83806e-05
0.000112638
-5.04308e-05
6.00722e-05
-9.64134e-06
0.000257865
-0.000199947
0.000277156
5.76658e-05
2.75777e-05
0.000121859
5.54597e-05
1.38905e-05
-6.93502e-05
-6.459e-05
7.4937e-05
-1.03466e-05
-4.29175e-05
0.00014387
-0.000100916
-2.01733e-05
5.3923e-05
4.18656e-05
-8.57577e-05
0.000232062
-7.85013e-05
-6.56834e-05
0.000144214
1.42349e-05
-6.46657e-05
8.11703e-05
2.30753e-05
-0.000104244
-7.73821e-05
-0.000218283
2.25845e-05
-7.35496e-05
0.000113592
-6.17533e-05
-5.18358e-05
7.63201e-05
-2.98009e-06
-7.33399e-05
7.17953e-05
-0.000123647
5.18605e-05
-0.000161666
6.59581e-05
9.57145e-05
-2.77947e-05
-4.88657e-05
4.32736e-05
-8.65959e-05
4.33223e-05
-8.7166e-05
5.31729e-05
0.000119174
0.000242821
6.70491e-05
-2.23494e-05
-4.46996e-05
-3.09323e-05
-2.91399e-05
-7.53907e-05
7.40007e-05
1.3903e-06
-1.6965e-06
-7.36936e-05
2.44015e-05
-0.000173247
7.26526e-05
-0.000159851
8.72364e-05
0.000228598
-8.61224e-05
-0.000142368
-5.31107e-05
3.59137e-05
-0.000165409
7.26875e-05
9.27294e-05
-0.000107921
0.000108836
1.665e-05
0.000150603
-7.55066e-05
-0.00025202
6.06253e-05
0.000191619
6.36723e-05
1.26479e-05
-6.20142e-05
-7.96395e-05
-0.000372207
6.69319e-05
0.00022223
-0.000159211
-6.29233e-05
4.34525e-05
0.000177954
0.000198533
-4.02392e-05
-2.00379e-07
5.56601e-05
2.64486e-05
-0.000122096
0.000110719
-0.000287099
0.000224147
-0.000211086
-4.91928e-05
-4.43586e-05
-2.42382e-05
6.8597e-05
0.000102022
-0.000316644
0.000105672
-0.000241483
1.26029e-05
-0.000115782
0.000143434
5.43878e-05
0.000167932
1.08802e-06
-1.71811e-05
-0.000343931
-0.000120545
7.46652e-06
0.000113088
0.00011587
-4.69759e-05
9.65033e-05
2.58059e-05
-0.000122299
6.31112e-05
3.66447e-05
-8.10032e-05
-5.08137e-05
0.000208741
6.50485e-05
-2.58481e-05
-7.83616e-05
0.000104215
0.000362455
-8.25328e-06
-0.00034839
-8.05392e-06
8.9226e-05
-0.000141683
1.10341e-05
0.000130667
3.63582e-05
-7.30703e-05
-0.000155921
-9.58183e-05
-3.81721e-05
0.000139405
-5.05675e-05
-6.20188e-05
-4.606e-05
-4.5034e-05
9.10957e-05
0.000107474
2.62745e-05
-0.000133738
3.1668e-05
3.39306e-05
-6.55986e-05
-0.000150023
-9.2275e-05
0.000243011
8.22079e-05
-3.52761e-06
-7.05221e-05
3.20446e-05
0.00023261
-9.23061e-05
-0.000140117
-3.37905e-05
-3.96171e-05
-0.000219836
0.000155204
6.47794e-05
-1.64525e-05
7.00632e-05
-5.36105e-05
-0.000163899
-5.19714e-05
-0.000183553
9.4941e-05
0.000110286
2.37884e-05
-0.000134063
-0.000125215
3.65631e-05
8.8657e-05
-0.000105655
-0.000255321
1.30501e-05
0.000213724
-0.000226431
0.000103459
6.8029e-05
0.00018318
-0.000283259
0.000310771
-2.52414e-05
0.000146316
-3.21906e-05
-8.08237e-05
7.88676e-05
1.95666e-06
-0.000180161
-0.000172252
0.000195966
-0.000176943
5.51034e-05
9.8313e-06
-6.49347e-05
0.000271933
-3.89017e-05
-0.000232482
9.92912e-05
-6.14315e-05
-3.78582e-05
-0.00014145
-1.39733e-05
0.000155488
-8.3635e-05
1.90455e-05
0.000192137
5.73863e-05
-8.95523e-05
-7.8506e-05
2.26013e-05
-9.12542e-05
0.000103215
0.000137301
5.477e-05
-0.000192001
-7.2488e-08
6.13517e-05
6.68221e-05
4.37745e-06
-9.82923e-05
0.000176168
0.000238616
5.26792e-06
-0.000125803
-0.000209837
2.65952e-05
0.000183374
0.000112186
-0.000150327
4.24399e-05
-0.000332888
0.000293943
-3.00361e-05
-3.00361e-05
-8.47536e-05
3.94876e-05
4.52664e-05
-8.21351e-05
-3.36344e-06
8.55002e-05
-0.000250413
3.97378e-05
0.000115616
7.82522e-05
3.24917e-05
-0.000110741
9.38009e-06
-6.73209e-05
0.000104766
-0.000339512
0.000243108
2.09151e-05
4.6134e-05
7.90741e-05
4.02677e-05
-0.000119336
-4.6552e-05
7.35856e-05
-2.70334e-05
-6.04355e-05
0.000169485
-0.000107935
7.71904e-05
3.07466e-05
-0.000340723
0.000235727
0.000105729
1.06701e-05
-1.74222e-05
6.00722e-05
-1.43881e-05
5.0744e-05
-9.6927e-05
4.61858e-05
-0.000318748
0.000252807
-6.52086e-05
0.000180184
3.5299e-05
0.000160729
-0.000330016
9.39361e-05
0.000245364
-3.87273e-05
-4.60257e-05
0.000143512
-7.0825e-05
2.89027e-06
-0.000144553
-0.000174713
-5.44405e-05
0.000229516
-0.000272352
0.00012321
0.00020218
0.000112082
-0.000314247
5.16534e-05
-9.77116e-05
0.000413116
-0.00032275
0.000319228
-0.000117084
9.79822e-05
-3.64194e-05
-6.15617e-05
4.96631e-06
-8.57895e-05
0.000153063
-0.000239052
0.000107863
-4.53381e-05
-6.25209e-05
0.000304987
2.40752e-05
6.32781e-06
-0.00024224
7.12798e-05
0.00020117
0.000112522
-0.000136221
-3.41623e-05
0.000170456
-0.000236731
0.000321845
-8.33484e-05
2.067e-05
-0.000261427
0.000241563
-7.71397e-05
-4.06264e-05
-0.000330997
0.000100416
0.00023144
-4.31038e-05
-2.61315e-05
6.92357e-05
-0.000314372
0.000198474
0.000121097
0.000209969
-0.000241291
3.16216e-05
5.79694e-05
-7.43751e-05
-0.000194904
0.000109728
8.52177e-05
-9.33719e-05
-1.19655e-05
0.000126958
1.75216e-05
-0.000228524
0.00021429
7.70126e-05
-0.000251369
0.000124645
-0.000342701
0.000219537
-0.000101406
2.50791e-05
7.63287e-05
-4.86633e-05
-3.1704e-05
8.0368e-05
-1.42847e-05
0.000190022
-1.76353e-05
5.20461e-05
-3.44107e-05
-0.000178638
0.000301081
-2.19383e-05
-0.000275966
5.28794e-05
1.79407e-05
-7.082e-05
5.72983e-05
5.54341e-05
0.000104404
-0.000159802
-0.000128559
-0.000163413
0.000292976
-3.14655e-05
-5.59185e-05
-0.000130655
8.60335e-06
-6.75933e-05
5.89905e-05
5.89711e-05
0.000257868
0.000172225
-0.000239385
6.73248e-05
0.00011495
-6.48271e-05
-0.000125308
0.000190268
-4.01132e-05
-4.64826e-05
-5.23875e-06
8.34935e-05
1.89326e-05
-0.000101066
9.15707e-05
-0.000203003
0.000111644
0.000103884
0.000372232
-0.00034262
-2.79279e-05
6.49356e-05
6.54609e-05
-0.00020683
-7.45556e-05
7.57783e-05
3.27808e-05
-0.000242453
-0.000165619
-9.88526e-05
-9.59934e-05
-9.04174e-05
-1.53854e-05
4.11649e-05
-2.70657e-05
-3.40435e-05
6.11092e-05
6.48817e-05
-1.20022e-05
-8.64472e-05
4.33439e-05
-4.03243e-05
5.78511e-05
-1.75268e-05
4.93198e-05
-6.42357e-05
9.75579e-06
5.44799e-05
9.47039e-05
7.82612e-05
-0.000216686
0.000138497
-2.29054e-06
0.000162474
-0.000158826
7.24556e-05
2.68369e-05
0.000332351
3.87452e-05
4.9711e-05
-0.000330507
0.000197273
-6.53244e-05
-0.000131895
7.35771e-05
3.11262e-06
-7.66896e-05
-0.000275569
0.000243053
3.31047e-05
-0.000171473
-0.000100458
0.000272257
4.0621e-06
-9.48432e-05
9.07944e-05
-0.000102139
0.000159884
-5.76926e-05
-1.06289e-05
-0.000275391
0.000286231
7.40276e-05
-8.76311e-05
1.36044e-05
0.00012454
0.000204394
-0.000326405
3.33298e-05
4.15444e-05
-7.4874e-05
9.29135e-06
-0.000110694
0.000307451
-0.000239606
6.32541e-06
-0.000242661
0.000237005
5.00799e-05
5.93179e-05
-0.000109393
8.96918e-05
0.000354144
-7.16317e-05
-9.82214e-06
8.14551e-05
8.00807e-05
-7.62408e-06
0.00040121
-5.95809e-05
-0.000336795
3.95899e-05
3.48627e-05
-7.44525e-05
-0.000107822
4.64091e-05
6.38884e-05
5.85604e-05
-0.000122439
0.000218966
-0.000127139
-9.19097e-05
5.54914e-05
4.17842e-05
-7.22543e-05
3.04701e-05
0.00015404
0.000250899
-0.000117722
8.10731e-05
3.6653e-05
6.17233e-05
0.000276595
-0.000336807
0.000319677
7.0856e-05
2.27952e-05
-9.365e-05
-5.9686e-05
4.32336e-05
6.37941e-05
0.000129939
-0.000193623
4.65207e-05
-0.000182665
-0.000318375
2.16786e-05
0.000297136
-0.000126958
-1.59104e-05
0.000142907
3.49559e-05
-7.67012e-05
5.15869e-05
2.20105e-05
-7.35972e-05
0.000303347
3.73074e-05
-0.000337204
-1.9227e-05
-3.41366e-05
5.33636e-05
7.63385e-05
0.000268571
0.000163591
0.000173631
6.59794e-05
-0.000239373
-0.00020712
0.000319583
0.000255697
-0.000114737
2.59969e-05
4.97296e-05
-7.57264e-05
-5.46338e-05
-7.05748e-05
6.55869e-05
-0.000250657
-2.42454e-05
-0.000314409
4.69237e-06
5.94124e-05
2.20051e-05
-8.14172e-05
0.000217805
-0.000171093
-4.44855e-05
0.000108335
-0.000136399
2.80751e-05
0.000207069
1.3749e-05
-0.000220505
8.54081e-05
0.000128448
-0.000213694
0.000123184
-0.000239141
0.000116117
4.73272e-05
3.13371e-05
-7.8664e-05
2.75855e-05
-6.89157e-05
0.000229498
-1.98793e-05
-0.000209286
-2.56396e-05
-4.48825e-05
0.000297054
-0.000241668
-5.45459e-05
0.00017179
-9.86409e-05
-7.31117e-05
4.39033e-05
-7.92693e-05
-4.25734e-05
-3.17557e-05
-0.00020442
-9.05047e-05
0.000296101
0.000262764
-0.000134694
-1.23096e-05
-8.1654e-06
5.78951e-05
0.000113919
-4.66531e-05
-6.72612e-05
-0.000162247
3.53335e-05
-5.45808e-05
6.31847e-05
-1.77526e-05
0.000191602
-0.000229221
6.5466e-05
-5.29514e-05
-2.85073e-05
5.00552e-05
-9.25512e-05
4.24968e-05
-0.000108829
-1.6877e-05
0.000125716
-3.41615e-05
6.74914e-05
-0.000108651
1.59294e-06
0.000107064
7.45605e-05
-4.35709e-05
-3.09894e-05
7.80859e-05
0.000203709
-0.000280829
-2.67419e-05
8.7605e-05
-6.13576e-05
-4.65752e-05
1.5289e-05
-0.000269661
0.000257395
2.8832e-05
-6.2795e-05
4.53617e-05
-8.96473e-05
4.42862e-05
6.52854e-05
0.000162466
-3.64208e-06
-0.000277883
0.000282643
4.66499e-05
-6.4285e-05
-9.82707e-05
-3.25517e-05
0.000130844
-6.13597e-05
-1.34089e-05
7.47693e-05
0.000183201
0.000231368
2.44138e-05
-2.95147e-05
1.29248e-05
-0.000184875
-3.79149e-05
0.00022284
7.7877e-05
-0.000179956
-5.57909e-05
-0.000253016
6.6204e-05
-1.49355e-05
4.70869e-05
3.54195e-06
-0.000112187
-0.000156106
-8.1898e-05
0.000238224
0.000138839
-2.6625e-05
-0.000157534
-0.000199512
0.000218925
-0.000229388
0.000151203
-0.000191176
4.00293e-05
-5.75237e-05
3.82967e-05
0.000107398
8.02698e-05
-0.000187598
6.39099e-05
0.000190485
0.000284348
4.7559e-06
-0.000281597
-0.000258099
0.000321011
-5.89878e-05
0.000159509
-6.59917e-05
-0.000203203
0.000224562
-0.000134908
5.85032e-06
0.000129074
-1.33758e-05
-0.000224848
0.000238708
-9.30359e-05
0.000148506
7.99945e-05
-0.000106734
-0.000211031
8.63662e-06
0.000203483
4.10084e-05
2.61977e-05
-6.72061e-05
7.53136e-05
-6.9755e-05
2.7189e-05
0.000114747
-0.000141919
3.99411e-05
-6.55807e-05
6.11452e-05
-8.35063e-05
2.23613e-05
-0.00018405
-8.74629e-05
2.61038e-05
-0.000100224
0.0001043
7.34577e-05
4.95397e-05
-0.000122991
-2.58516e-05
7.12137e-05
-0.000351462
4.99045e-05
0.000304534
1.55688e-05
5.84594e-05
6.94784e-05
0.000134267
9.85116e-05
-7.24981e-05
3.21738e-05
0.000106985
-6.31029e-05
-4.38793e-05
0.000103513
0.000263205
7.24711e-06
-0.000142136
-0.000318539
4.06904e-05
4.43129e-05
3.02478e-05
-1.92384e-05
5.61453e-05
-3.69069e-05
-0.000369701
0.000174964
0.000195671
4.36052e-05
6.32257e-05
-9.2038e-05
2.88129e-05
-1.17546e-05
-6.06372e-05
7.40637e-05
8.12363e-05
-9.15706e-05
-1.30584e-05
0.000115637
-2.00101e-05
6.10185e-05
5.59577e-05
3.63314e-05
-9.22879e-05
7.33545e-05
0.000203948
9.18302e-05
4.27601e-05
-0.000134579
-0.000256636
-7.34376e-05
-0.000213537
-0.000104135
0.000318024
-9.60066e-05
8.15963e-06
8.78494e-05
0.000115628
-3.96247e-05
-7.85297e-05
0.000118165
0.000351358
-0.000266189
-7.43512e-05
-8.87714e-05
7.00887e-05
9.33595e-05
-0.000153221
5.9892e-05
0.000163435
-6.95988e-05
-9.37924e-05
0.000132733
-0.000246501
0.000113878
0.000156846
-0.000272831
5.18102e-05
-0.000150056
-4.18088e-05
-0.000143017
-5.03766e-05
-6.88382e-05
-0.000182008
8.29054e-05
0.000108077
-0.000171095
2.16752e-05
-0.000130492
1.55857e-05
-8.31781e-05
-9.66907e-05
5.66663e-05
-8.17147e-05
1.2357e-05
6.93582e-05
-9.92306e-05
2.76005e-05
3.60978e-06
-0.000104565
-4.54321e-05
7.23325e-05
-2.69004e-05
-0.000202981
0.000150749
5.22959e-05
8.14171e-05
-1.05599e-05
0.000112769
0.000333615
-0.000257749
-7.35828e-05
-0.000145553
-8.35081e-05
-2.25819e-05
-7.41041e-05
-0.000243039
0.000106287
0.000136986
-0.000337632
-1.44293e-05
3.70091e-06
0.000318009
-0.000317974
9.17062e-05
5.22633e-05
-0.000143952
6.08262e-05
-2.91582e-05
-2.25604e-05
0.000232798
-2.71026e-05
6.65728e-05
0.000307201
-1.47933e-05
8.60534e-05
-3.00946e-05
-0.000103385
4.78095e-06
9.86118e-05
-4.58372e-05
6.00721e-05
0.000140783
-0.000133518
0.000227371
-3.49414e-05
0.000234872
-0.000243872
-7.30805e-05
2.72434e-05
-0.00010605
6.64332e-05
-7.38523e-05
-0.000129051
8.32382e-05
-0.000125998
-0.000145282
-2.65904e-05
-6.54355e-05
9.20274e-05
0.00011891
0.000117262
-0.000113713
0.000118751
-0.000232173
0.00011358
-6.15107e-05
-3.80994e-05
9.96139e-05
-0.000195404
-0.000144701
7.98096e-05
-0.000279241
0.000174617
0.000163977
-0.000377139
3.08877e-05
-7.58734e-05
4.49859e-05
-1.6814e-05
5.47824e-05
1.79015e-05
-0.000113905
6.91298e-05
1.59532e-05
0.000124846
4.76664e-05
2.49475e-05
-7.26138e-05
-5.49557e-05
3.09379e-05
1.34561e-05
0.000103811
0.000100006
-2.65427e-05
-8.04507e-05
-0.000103575
-0.000230938
0.000291757
-0.000282033
-0.000403746
0.000201759
0.000211279
-0.000318006
6.3976e-05
3.22462e-05
-8.32737e-05
-7.09152e-05
0.000154225
-0.000142458
9.93147e-05
4.3153e-05
-5.61178e-05
0.000149501
-9.43563e-05
3.93266e-05
-0.000190217
0.000260661
-6.99426e-05
6.82811e-05
2.94205e-05
-2.94205e-05
-3.241e-05
-4.31162e-05
0.000184314
-8.21759e-05
-0.000102063
4.11751e-05
-1.09515e-05
-0.000287362
0.000287338
2.76173e-07
6.91618e-05
8.55904e-06
-7.77206e-05
0.000247942
-3.02288e-05
-9.72589e-05
7.65435e-05
2.07165e-05
6.16651e-05
-8.75161e-05
-8.5834e-05
-0.000135069
1.41855e-05
0.000120908
0.000331529
-0.000334286
7.24236e-06
7.8606e-05
-3.46983e-05
-0.000253503
0.000111028
0.000142707
0.000259816
-1.62006e-05
8.81564e-05
0.000230859
-0.000231019
4.94837e-07
0.00030821
-9.87876e-05
-0.000360259
0.000260237
0.000102567
-0.000182049
9.55495e-05
8.65699e-05
4.48062e-05
2.51359e-05
-6.99421e-05
0.00024518
-0.000103598
-0.000141374
6.86714e-05
0.000158755
-0.000227275
-1.75242e-05
9.66033e-05
-1.45079e-05
6.60949e-05
0.00010069
9.04404e-05
-0.000234235
0.000119165
0.000115231
3.79597e-05
-8.22884e-05
4.43289e-05
-0.000179492
-0.000214046
-5.16282e-05
7.26503e-05
-6.98658e-05
2.28157e-06
0.000275031
-0.000173882
7.31198e-05
-9.84413e-05
2.53234e-05
0.000150653
-7.24411e-06
-0.000143386
-0.000137737
6.13036e-05
-9.02864e-05
0.000137111
-4.68074e-05
0.000162228
6.27728e-05
0.00011065
-0.000172848
2.59689e-05
-2.59689e-05
9.67485e-05
7.50735e-05
-0.000192295
0.000271341
0.000117186
-5.43016e-05
-0.000117289
-0.000103999
0.000221563
-9.68824e-05
9.92099e-05
-2.3226e-06
-0.000195727
-2.3781e-05
0.000227108
5.18261e-05
6.15727e-05
-0.000113393
-8.80204e-05
3.00503e-05
8.02268e-05
-0.000110276
-0.000134954
4.46849e-05
8.21595e-05
-5.78819e-05
-2.42774e-05
0.000164661
-9.02186e-05
2.28595e-07
8.79233e-05
4.84346e-05
-0.000136347
8.09253e-05
-0.000295086
0.000220742
0.000208005
-0.000194644
-9.52942e-05
1.35802e-05
5.89255e-05
-8.31635e-05
6.56247e-05
-3.33084e-05
-4.89797e-05
0.000362365
-4.83021e-05
-0.000312805
-0.000139036
-0.000229574
1.68574e-05
9.90441e-05
-0.000115884
0.000108886
0.000155624
-0.000264051
0.000345373
-0.000350663
8.98425e-06
7.12919e-05
-3.5139e-05
-4.49608e-05
0.000104757
6.41241e-05
-2.6198e-05
-3.79261e-05
0.000115798
1.7383e-05
0.000133291
-0.000178938
-0.000138014
0.000317289
0.000341296
-8.14219e-05
-4.89932e-05
-4.26283e-05
9.16229e-05
0.000138384
-0.000135475
2.50219e-05
9.80881e-05
-0.000113267
1.55958e-05
-9.99547e-05
5.92421e-05
5.71683e-05
-0.00011894
6.1779e-05
4.29606e-05
-8.02986e-05
0.000317944
-2.03782e-06
-0.000146779
0.000153906
-1.55923e-05
6.03984e-05
-0.000125352
0.000258202
-0.000223448
0.000132902
9.06957e-05
-0.000268813
-5.03161e-05
6.36532e-05
1.39667e-05
-7.76198e-05
-5.4879e-06
-3.8389e-05
2.19236e-05
-6.6806e-05
-0.000296158
0.000332303
-3.52831e-05
-0.000129686
6.67527e-05
8.82781e-05
0.00010481
-0.000192986
-2.33475e-05
-9.52046e-05
0.000118568
0.000187552
-6.01747e-05
0.000297583
5.94744e-05
-0.000223115
0.000164035
5.16832e-05
0.000148987
-0.000190686
-0.000105763
7.10088e-05
3.47569e-05
0.000296798
-0.000112209
-0.000184342
-2.94902e-05
-4.49606e-05
0.000276875
-0.000149959
-0.000126176
-7.74785e-06
8.05649e-05
-7.28157e-05
-7.84821e-05
5.2076e-05
2.64063e-05
0.000213905
-8.92254e-05
-0.000124521
-0.000159387
5.32283e-05
0.000116327
-8.01754e-05
4.84109e-05
3.17646e-05
5.21609e-05
-8.48419e-05
3.26817e-05
4.17594e-05
0.000188026
0.000138662
-0.000145884
0.000313564
-2.14817e-05
-4.58216e-05
6.00723e-05
-1.42507e-05
5.98756e-05
0.000275892
-8.61504e-05
6.35723e-05
5.89909e-05
-0.000317206
0.00026088
-0.000100883
0.000160194
-1.26684e-05
-8.45893e-05
0.000185682
-0.000221559
0.000242261
2.03611e-05
0.000150788
-7.07296e-05
4.58996e-05
2.48301e-05
8.13452e-05
-4.14661e-05
-3.98787e-05
-1.67233e-05
7.99496e-05
-0.00041621
0.00027089
-6.87721e-05
2.334e-05
0.00030756
-0.000220143
5.02041e-06
-0.000191215
-0.000134898
-0.00020209
6.39289e-05
0.000104622
-0.000117781
-9.43512e-06
0.000128607
3.95897e-05
-8.46357e-05
4.50464e-05
4.65174e-05
-9.04049e-05
4.38881e-05
6.65155e-05
0.000279005
4.91743e-05
5.59258e-06
-0.000130018
0.000193917
-0.000297306
9.47483e-06
-2.87987e-05
-5.13766e-05
0.000114208
3.74675e-05
4.62425e-05
-7.40371e-05
-0.00013366
0.000193497
5.9263e-05
-0.000257509
0.000275704
-0.000191705
0.000108336
-0.000123499
2.0124e-05
-0.00038266
3.46632e-05
6.99826e-05
5.87071e-06
8.0457e-05
2.88313e-05
-0.000109286
-5.40445e-05
3.48061e-05
4.21083e-05
-0.000177143
3.45056e-05
-4.40014e-05
0.000134805
-9.07682e-05
-6.5642e-05
-0.000272395
8.38151e-05
-0.000191136
0.000107406
6.48939e-06
0.000132194
-3.61191e-05
-2.47642e-05
6.08832e-05
-0.000142608
-8.97117e-05
-5.50837e-05
9.66993e-05
-4.16139e-05
1.23622e-05
0.000126039
-0.000113698
3.09363e-05
5.64563e-05
-7.71944e-05
2.07385e-05
6.39641e-05
-7.50744e-06
6.3852e-05
-4.11489e-05
-2.2703e-05
4.72996e-05
5.54374e-05
3.33839e-05
-8.88201e-05
-0.000250996
4.82218e-05
5.3112e-06
-8.33933e-05
-0.00010754
5.96353e-05
4.79072e-05
-0.000100823
-0.000141953
-3.36084e-05
-5.64546e-05
-5.76203e-05
-9.81825e-06
6.7439e-05
-0.000178719
-7.78377e-05
0.000257082
-4.40802e-05
-0.000104487
-0.000324807
0.000121514
0.000123196
-0.000301299
6.6766e-05
-4.77904e-05
-0.000338619
2.6321e-05
0.000316613
0.000184241
-0.000100343
5.58063e-05
-6.58243e-05
0.000275102
-0.000238547
-3.5973e-05
-7.36661e-05
3.40354e-05
0.000253183
-6.92667e-05
-0.000183704
0.000141713
-6.66554e-05
-7.50353e-05
-8.20183e-05
5.90735e-05
2.29449e-05
0.00022606
5.06784e-05
6.32437e-05
2.53688e-05
0.000127854
-0.000153079
9.04561e-05
0.000123596
5.22264e-05
2.9119e-05
-0.000267511
9.86151e-05
-0.00012413
2.55202e-05
7.39273e-05
-5.05672e-05
-2.01622e-05
-0.000330596
6.94232e-05
0.000262811
6.43868e-05
-3.08033e-05
-3.35835e-05
-0.000235181
0.000143066
2.60707e-05
-6.31866e-05
3.71159e-05
-2.70908e-05
-3.44012e-05
6.1492e-05
3.22418e-05
3.2145e-05
0.000206565
-0.000126787
-7.97013e-05
0.000318906
-0.000256019
-6.20458e-05
0.000283154
8.0457e-05
6.24693e-05
1.43295e-05
-7.52312e-05
-9.22077e-05
8.1534e-05
-0.000326891
0.000246431
3.59672e-05
0.000141808
-0.000219711
0.000219403
-8.16296e-05
-0.000137687
0.000167862
-6.71593e-05
-0.000186047
-6.4663e-05
-0.000101271
-0.000309743
-0.000248537
0.000148845
0.000100028
0.000107179
0.00015204
-0.000258976
-0.000185118
0.000191972
0.000198179
3.53399e-05
-5.88728e-05
7.49483e-05
-1.60752e-05
-0.00010679
6.15421e-05
4.52507e-05
0.000224236
-0.000140119
-8.39152e-05
0.000103533
-0.000161623
5.81366e-05
3.6423e-05
-9.40428e-05
0.000137122
-6.83046e-05
6.53246e-05
0.000119059
-0.000288453
7.84716e-05
-0.000199089
0.000120721
0.000218104
7.8874e-05
-0.000340865
8.27605e-05
0.000260106
0.000140797
3.9196e-05
-0.000179935
0.00028968
1.43234e-05
-0.000352126
1.8553e-05
-0.000104576
-5.70793e-05
0.000283142
2.64542e-05
1.36341e-05
-0.000110512
4.98713e-05
-0.000252334
3.12401e-05
-5.98211e-05
2.8581e-05
5.91456e-05
4.13055e-05
-0.000100449
0.000109113
-4.37081e-05
-6.53996e-05
-7.00112e-05
-4.77061e-05
0.000328534
-4.83356e-05
-0.000278349
6.9677e-05
-5.66117e-05
-5.89286e-05
0.000115548
5.72491e-06
0.000213671
-0.00028164
0.000181531
-7.90914e-05
1.07869e-05
-0.000126881
-0.000111387
0.000238431
-0.000114123
-9.34844e-05
8.54323e-05
-1.51902e-05
7.02936e-05
3.53329e-05
0.000118895
-0.000154204
0.000308979
-0.000269341
-3.81474e-05
-3.7899e-05
-0.000108995
1.5513e-05
7.82338e-05
0.000160222
-0.000134702
-0.000272609
0.00028461
0.00028403
4.54867e-05
-0.000326153
-0.000123354
8.04632e-05
-0.00018981