/*--------------------------------*- C++ -*----------------------------------*\
| =========                 |                                                 |
| \\      /  F ield         | OpenFOAM: The Open Source CFD Toolbox           |
|  \\    /   O peration     | Version:  v2012                                 |
|   \\  /    A nd           | Website:  www.openfoam.com                      |
|    \\/     M anipulation  |                                                 |
\*---------------------------------------------------------------------------*/
FoamFile
{
    version     2.0;
    format      ascii;
    class       surfaceScalarField;
    location    "400";
    object      meshPhiCN_0;
}
// * * * * * * * * * * * * * * * * * * * * * * * * * * * * * * * * * * * * * //

dimensions      [0 3 -1 0 0 0 0];
oriented        oriented;


internalField   nonuniform List<scalar> 
20580
(
1.90398e-06
-2.13e-06
2.25474e-07
4.38353e-06
-1.94065e-06
-2.45756e-06
1.61403e-07
4.2002e-06
-1.05001e-06
1.37678e-06
-3.26656e-07
1.62556e-07
1.20509e-07
-2.03577e-07
-2.58693e-07
-3.73908e-06
3.97888e-06
2.88033e-06
-4.51802e-06
2.24233e-07
1.46162e-07
-2.87854e-07
5.27627e-07
6.47964e-07
-1.1756e-06
9.15454e-07
-5.02989e-06
4.07907e-06
-1.80317e-06
3.08292e-06
-1.2827e-06
4.46338e-07
1.83333e-06
-2.35151e-06
-4.74837e-06
8.90004e-07
3.84644e-06
4.08541e-07
-1.05044e-06
6.41606e-07
1.87521e-06
-3.51937e-06
1.6393e-06
1.70976e-06
3.04893e-07
-2.01482e-06
1.32811e-06
-1.00204e-06
-3.26016e-07
4.8317e-06
-1.50515e-06
-3.3987e-06
1.11883e-06
7.29188e-07
-1.84823e-06
-5.80533e-07
2.4839e-06
-3.88027e-06
1.50211e-06
2.3731e-06
-1.49386e-06
-2.71168e-06
4.18586e-06
1.37611e-06
-6.60868e-07
-7.15689e-07
1.35552e-08
6.34417e-10
-1.81381e-08
1.63764e-06
-3.8614e-08
-1.59914e-06
3.06296e-06
-1.86898e-06
-1.19485e-06
1.98413e-06
-1.32044e-06
-6.63792e-07
6.19579e-07
1.00301e-06
-1.62266e-06
1.43327e-06
-7.81547e-07
-6.51795e-07
-7.06723e-07
-2.48558e-06
3.06316e-06
1.87997e-07
-1.24297e-06
1.05432e-06
-2.0283e-06
4.88775e-06
-1.94591e-06
-3.82639e-07
2.32792e-06
-6.04364e-07
-8.0182e-07
1.40618e-06
2.14745e-06
7.03427e-07
-2.85542e-06
-1.37802e-06
1.63321e-06
-2.55174e-07
1.63955e-12
9.88595e-09
1.83971e-06
-1.08964e-06
-7.50365e-07
-1.0955e-06
-3.12414e-07
1.40781e-06
-5.11867e-06
4.04432e-06
1.0173e-06
-1.16058e-06
1.46565e-06
-3.05113e-07
6.45002e-07
7.88207e-07
1.61794e-07
9.08034e-08
2.11497e-06
-1.70801e-06
-4.07306e-07
1.01787e-06
2.9922e-07
-1.31717e-06
-7.7792e-07
-2.89961e-06
3.57916e-06
-4.24166e-07
7.84832e-07
6.70147e-07
-1.72844e-06
1.05806e-06
-5.59536e-06
2.43735e-06
3.11866e-06
-2.31598e-07
-4.52183e-06
8.05923e-07
2.90322e-07
-1.0961e-06
-5.7068e-06
1.65485e-06
4.04334e-06
-5.24946e-07
2.23452e-06
4.03508e-06
-3.07922e-06
-9.62207e-07
-8.33464e-07
1.35656e-06
-5.22982e-07
-3.64518e-06
-1.5156e-06
-2.08713e-06
1.40679e-07
-7.68453e-08
-1.08378e-06
2.05276e-06
-1.10964e-06
-9.432e-07
-1.17979e-06
-8.74524e-08
1.26725e-06
-1.81485e-06
2.18569e-06
1.38502e-06
5.98976e-07
-4.12165e-06
4.20414e-06
-1.3599e-07
-2.37749e-06
-3.24898e-06
-2.05266e-06
9.21562e-07
1.1309e-06
-1.28174e-06
-7.71019e-07
-1.49762e-07
-1.03002e-06
-3.42403e-07
1.85553e-06
-1.76449e-06
-2.98833e-06
4.68859e-06
1.31866e-06
-1.12491e-06
-1.94162e-07
7.65232e-07
-1.14469e-06
3.78819e-07
1.79096e-06
1.13926e-06
-2.93364e-06
5.21377e-06
-3.50492e-06
-1.75636e-06
1.03113e-06
-1.11858e-06
-1.73734e-06
3.77171e-06
-2.03982e-06
-2.02448e-06
-2.34732e-06
4.34537e-06
2.95463e-07
1.033e-06
3.49768e-06
-5.9423e-07
-3.11326e-06
-2.63617e-07
1.90112e-06
-7.17907e-07
3.87935e-06
-3.25441e-06
2.62171e-06
-4.44861e-06
1.84099e-06
4.21678e-08
-1.88349e-06
3.79583e-06
-1.65418e-06
-1.02095e-06
-2.71107e-07
1.29101e-06
-2.08051e-07
1.23921e-06
-8.70002e-07
-6.44251e-07
1.51273e-06
-4.03374e-06
2.5224e-06
3.14931e-07
-1.08761e-06
7.71711e-07
-4.43535e-06
4.29426e-06
9.31261e-08
1.04919e-06
-8.61729e-07
-8.48423e-07
-4.86144e-06
2.26305e-06
-4.30958e-06
1.42445e-07
1.09505e-07
3.59691e-07
-1.23064e-06
1.45303e-06
-2.74737e-07
-1.17838e-06
-1.37763e-06
1.92017e-06
-5.42892e-07
5.49391e-06
-2.25785e-06
-3.32882e-06
-1.27807e-06
-1.1014e-06
2.37925e-06
6.7037e-07
4.38554e-07
-1.10903e-06
2.40125e-06
-1.25515e-06
-1.14683e-06
7.08551e-07
-1.98683e-06
1.02246e-06
-2.80724e-06
1.78401e-06
2.66934e-06
-3.85445e-07
-2.28508e-06
-4.89411e-06
5.51412e-06
-6.57856e-07
1.39646e-06
-3.63642e-06
2.13779e-06
3.37901e-06
-4.73343e-07
-2.90919e-06
3.91917e-06
-2.6385e-06
-2.99249e-07
1.06348e-06
4.4081e-06
-2.16424e-06
1.15088e-06
3.60564e-06
4.11013e-06
-1.52802e-06
-2.59262e-06
3.26908e-06
-4.15554e-06
1.87689e-06
4.22916e-08
-1.91963e-06
-2.81491e-06
1.92761e-06
8.85205e-07
1.39286e-06
7.41951e-07
-2.13534e-06
2.74964e-06
1.27773e-06
2.25497e-06
-9.60432e-07
-1.4255e-06
-1.38841e-07
4.25749e-07
-9.43883e-07
-1.06059e-07
2.87705e-07
1.03087e-06
2.14686e-06
-4.21976e-07
-1.7254e-06
-4.8285e-06
4.06353e-07
4.32148e-06
2.86465e-06
9.60761e-07
-3.86932e-06
-1.03558e-06
1.36264e-06
-3.26957e-07
2.09436e-06
-2.51251e-07
-1.84337e-06
-1.94695e-06
1.41019e-07
1.80571e-06
1.58771e-06
3.80454e-06
-2.89624e-06
2.04726e-06
8.45755e-07
7.61282e-07
-1.38725e-06
6.2606e-07
3.14925e-06
-2.93601e-06
-2.16486e-07
1.48284e-06
-4.21233e-06
-3.89349e-06
-3.19029e-07
4.20178e-06
9.21835e-07
9.17582e-07
8.43353e-07
-1.4478e-06
-2.63643e-06
8.30856e-07
1.39894e-06
-6.55221e-07
-7.43857e-07
1.9834e-06
4.40976e-07
-1.08625e-06
3.37017e-06
-1.34527e-06
-2.02647e-06
-2.13315e-06
3.65862e-06
-1.52911e-06
-3.78296e-07
2.21892e-06
-9.6834e-07
-3.50666e-06
4.452e-06
-4.91804e-06
4.46498e-07
2.15687e-07
-1.66846e-06
1.45254e-06
1.91969e-06
-1.03188e-06
-8.87924e-07
4.86064e-06
-2.63393e-06
-2.25254e-06
3.01941e-07
2.97949e-06
-8.84211e-07
4.4442e-07
7.01236e-07
-1.14559e-06
-2.36734e-06
-5.31137e-07
1.84014e-06
-1.13176e-06
-5.83944e-07
2.46027e-06
-1.88288e-06
-9.33833e-07
-9.78771e-07
-1.09333e-06
2.07182e-06
-3.88712e-06
5.52619e-06
-1.65076e-06
5.46396e-06
-4.69326e-06
-7.87704e-07
2.07603e-06
-2.25504e-06
8.97392e-08
-2.4602e-08
-1.07091e-06
1.54746e-07
-2.10815e-06
1.95075e-06
5.10571e-06
-2.72487e-06
-2.40085e-06
-1.68711e-08
-8.65307e-09
-1.36171e-10
-1.07221e-06
-4.0265e-07
1.47486e-06
3.83033e-08
3.33696e-06
2.17257e-06
-1.50275e-06
1.12472e-06
-7.16071e-07
1.03341e-06
-1.24391e-06
2.10548e-07
-4.8169e-07
1.51516e-06
-4.49786e-07
1.25552e-06
2.69066e-06
1.40792e-06
8.00038e-07
6.45365e-07
-1.44544e-06
-2.45759e-07
-1.85666e-06
2.02883e-06
4.2609e-07
1.63733e-06
-1.25629e-06
-1.69219e-06
2.94628e-06
-1.40479e-07
3.20436e-07
-1.15483e-07
1.34477e-07
1.31845e-06
-1.43573e-06
1.98184e-06
-5.46343e-07
1.69944e-06
2.55343e-07
-1.95506e-06
2.03366e-06
-1.77842e-06
-2.26537e-06
-1.55426e-06
3.81419e-06
-5.66633e-07
2.26578e-06
-6.94677e-08
2.16356e-06
7.36971e-07
-3.83292e-06
1.37106e-06
2.45037e-06
-7.97131e-07
3.94186e-06
8.4608e-08
1.64033e-07
1.0251e-06
-5.80614e-07
1.6339e-06
-2.01708e-06
3.99381e-06
-3.42659e-06
-5.70007e-07
3.49601e-06
-5.63402e-06
2.12512e-06
4.05257e-06
-3.27588e-06
-8.86675e-07
1.08796e-06
8.31608e-07
-2.85746e-06
3.00832e-06
-8.54036e-08
-9.64705e-07
3.66239e-06
-3.93939e-06
1.92598e-06
2.90664e-06
-8.67496e-07
-1.49327e-06
2.36055e-06
-2.21501e-08
1.6556e-06
4.3288e-06
-5.35281e-06
9.66651e-07
-5.42152e-06
8.51156e-07
4.50039e-06
-2.64954e-06
1.27357e-06
1.37563e-06
-1.38092e-06
-6.92706e-07
2.07323e-06
-1.46111e-06
5.16217e-07
9.44903e-07
-8.85846e-07
-5.73515e-07
1.45935e-06
3.53893e-06
-1.66897e-06
1.25312e-06
-1.10617e-06
-1.47033e-07
-1.17342e-06
-2.87678e-07
2.58695e-06
1.81481e-06
-4.40259e-06
-2.99057e-06
-3.42379e-07
3.33e-06
-5.76704e-07
1.318e-06
-7.41224e-07
3.37129e-06
-4.25987e-06
8.73598e-07
2.00416e-06
-1.48077e-08
-1.98948e-06
-1.13825e-06
3.96175e-06
-1.75952e-06
-2.0962e-08
7.24039e-07
-7.4659e-07
3.03648e-06
-1.14027e-07
-2.9271e-06
1.07059e-06
2.81447e-06
-3.90467e-06
-4.91258e-06
4.67544e-06
2.01558e-06
-1.01779e-06
-9.98035e-07
-5.25362e-06
5.17804e-06
1.85285e-08
3.19561e-07
7.12767e-07
1.60282e-06
2.33697e-07
-1.47056e-06
-8.89931e-07
2.35993e-06
1.8511e-07
-1.20549e-06
-9.46317e-07
-5.10966e-07
1.45722e-06
-3.74116e-06
1.16143e-06
2.57576e-06
3.55707e-08
-3.02885e-06
-2.20118e-08
2.57034e-07
-2.86744e-07
1.87231e-06
-1.65689e-06
-3.85094e-06
4.00143e-07
3.3362e-06
3.73408e-06
1.48543e-06
-1.17743e-06
-3.07839e-07
2.8708e-06
1.11891e-06
4.43621e-06
-1.08459e-06
1.76925e-07
3.62436e-06
-1.23275e-06
3.4688e-07
-3.77319e-06
2.92119e-06
7.37702e-07
6.38132e-07
-6.12169e-07
-7.19432e-07
1.33161e-06
1.14618e-06
1.25417e-06
-3.07315e-08
-8.48884e-10
1.71331e-06
6.2411e-08
-1.77585e-06
-1.00975e-06
-1.49554e-07
1.15934e-06
1.55431e-06
-5.36553e-07
2.30887e-06
-3.13003e-06
-1.11106e-06
4.23218e-06
1.42325e-06
1.71532e-07
-1.59491e-06
9.72348e-07
1.04293e-06
-3.77224e-06
1.50169e-06
5.66753e-07
1.35306e-06
-1.93564e-06
-1.84045e-06
3.76699e-06
1.33786e-06
-4.41367e-07
-8.96473e-07
-2.1956e-06
-2.91379e-07
2.48643e-06
-5.10707e-07
2.04851e-07
4.42394e-07
-4.48719e-06
3.63609e-06
8.33623e-07
-1.96908e-06
1.74758e-07
-1.24697e-06
-1.11679e-06
1.35685e-06
-2.40049e-07
1.42766e-06
2.51433e-06
4.2452e-08
-4.27158e-06
4.21679e-06
1.85539e-08
-1.09019e-06
-9.56497e-07
2.04632e-06
-1.62879e-06
-6.34697e-07
2.26319e-06
-2.64208e-06
-1.85614e-06
2.96849e-06
-2.93347e-06
-9.68303e-08
-2.09928e-06
-5.72288e-06
1.52757e-06
4.12292e-06
2.45683e-06
-1.43494e-06
3.40521e-07
-1.9974e-06
1.65647e-06
-1.21436e-06
-7.50425e-07
1.96469e-06
-9.35517e-07
3.64951e-06
-2.77606e-06
-1.49525e-07
-4.76353e-06
-8.7355e-07
-1.28669e-06
-1.77483e-07
1.46419e-06
1.05611e-06
-1.21361e-06
1.5763e-07
-2.05785e-06
3.1388e-06
-1.08399e-06
-1.47191e-06
-3.44999e-06
1.74251e-06
-1.8122e-06
-9.45879e-07
-1.09024e-06
2.03585e-06
-1.62452e-06
-9.55951e-07
2.57974e-06
-4.84887e-07
3.44973e-06
-7.87136e-11
-1.28663e-06
7.53234e-07
3.41566e-07
-1.09479e-06
3.98296e-06
-2.69042e-07
-3.72687e-06
3.8656e-06
-3.25738e-06
-6.13154e-07
9.30977e-07
5.4092e-07
-1.47217e-06
5.05712e-06
-3.47974e-06
-1.69097e-06
-1.9347e-06
1.79045e-06
4.17525e-08
2.89853e-07
-1.91493e-06
-3.09726e-06
1.59258e-06
1.50148e-06
2.59612e-07
-3.53971e-06
3.15127e-06
4.89455e-07
-7.08474e-07
1.38278e-07
-1.14216e-06
-2.81389e-06
1.30561e-07
1.10064e-07
-1.77732e-07
4.14348e-06
-2.87199e-06
-1.2795e-06
3.55451e-08
-6.69622e-07
1.19724e-06
-2.69142e-06
-1.19248e-06
4.91318e-06
-1.20095e-06
-3.77768e-06
-1.20325e-06
-1.44682e-07
-8.90791e-07
-5.42675e-06
3.82746e-06
1.58931e-06
-2.0516e-06
9.19095e-07
-1.09479e-06
1.75712e-07
-4.35505e-06
3.3662e-06
-4.49309e-06
-9.394e-07
-4.97187e-07
-2.19798e-06
-1.01692e-06
-2.53947e-07
1.27205e-06
1.17871e-06
-1.36755e-06
1.88838e-07
7.7786e-07
-2.60855e-06
1.82887e-06
-1.59873e-07
4.01315e-07
-7.63083e-07
1.56308e-06
-2.12979e-06
1.42373e-06
1.19119e-06
-2.61638e-06
-2.59429e-07
1.17854e-06
-1.47993e-06
-4.2068e-07
1.90049e-06
1.32724e-06
3.74889e-06
-4.1251e-07
1.34325e-06
-2.07397e-06
1.12729e-06
9.46295e-07
-1.39566e-06
5.44621e-08
1.34115e-06
-1.30681e-06
2.25022e-06
-9.4394e-07
2.93506e-06
-1.19713e-06
-1.7383e-06
5.07199e-07
8.91562e-07
-7.89002e-07
1.57894e-06
-7.89794e-07
1.58863e-06
-9.6911e-07
-1.80796e-06
-3.67449e-06
-1.23583e-06
4.11271e-07
8.24536e-07
1.31301e-07
1.23692e-07
1.37429e-06
-1.34892e-06
-2.53426e-08
3.09264e-08
1.34338e-06
-4.24862e-07
3.01181e-06
-1.31653e-06
2.89542e-06
-1.58076e-06
-4.07654e-06
1.53238e-06
2.53599e-06
9.71272e-07
-6.56633e-07
3.00549e-06
-1.32052e-06
-1.68556e-06
-7.70241e-07
7.03329e-07
1.20818e-07
-1.21811e-06
5.75931e-07
4.36162e-06
-1.05195e-06
-3.32446e-06
-1.16442e-06
-2.31446e-07
1.1302e-06
8.79975e-07
4.03847e-06
-1.22113e-06
-3.97111e-06
2.84183e-06
1.1221e-06
-7.64619e-07
-3.13796e-06
-3.43833e-06
6.95956e-07
3.68062e-09
-1.01902e-06
-4.81832e-07
2.22407e-06
-2.0184e-06
4.82653e-06
-3.78104e-06
3.58306e-06
8.34151e-07
8.08525e-07
4.41799e-07
-1.25032e-06
-1.66446e-06
5.14753e-06
-1.92491e-06
4.18637e-06
-2.19104e-07
2.08646e-06
-2.58725e-06
-9.73654e-07
-3.00354e-06
-1.50563e-08
2.3258e-07
4.60299e-06
2.19387e-06
-1.35897e-07
-2.05873e-06
-2.11179e-06
8.55988e-07
-1.75649e-06
-4.69724e-07
2.22573e-06
-1.15249e-06
-6.67914e-07
1.47645e-06
8.50398e-07
-3.5022e-06
-1.18569e-06
4.71376e-07
1.42907e-06
-1.90078e-06
-4.65497e-06
1.06002e-07
4.40624e-06
1.46853e-07
-1.62687e-06
2.57626e-06
-2.00659e-07
-2.37657e-06
-6.63625e-07
1.33355e-06
2.6901e-06
1.65292e-06
6.96392e-07
-2.54366e-06
9.21947e-07
1.13071e-06
8.40272e-07
8.21479e-07
-1.66189e-06
-1.95608e-06
-4.78198e-07
2.43341e-06
-5.82809e-07
-6.23595e-07
1.2037e-06
2.35863e-06
1.44518e-06
-3.83273e-06
-1.50031e-06
6.4376e-08
1.29392e-06
-1.34037e-07
-4.11555e-06
1.62953e-06
2.47502e-06
6.15851e-07
7.22039e-07
3.90182e-06
-2.75888e-06
-1.152e-06
2.99893e-07
-1.27708e-06
9.77192e-07
2.92958e-06
9.29129e-07
3.33397e-06
-1.72468e-06
-2.00711e-06
-4.32901e-07
2.43941e-06
2.28275e-06
-6.66633e-07
-1.61655e-06
1.60712e-06
3.84698e-06
-2.25692e-07
-3.69683e-06
3.90407e-06
-1.87034e-06
-1.22948e-06
-3.29637e-06
3.30643e-06
-3.68681e-06
2.97787e-07
-2.64139e-06
5.80782e-07
1.47583e-06
-1.44019e-06
-3.57371e-08
2.63969e-06
2.53922e-06
-3.53976e-06
3.19436e-06
-1.00428e-06
-1.79187e-07
1.18355e-06
-4.56845e-06
6.50636e-07
3.89249e-06
-1.81219e-06
1.12106e-06
6.90959e-07
2.56557e-06
2.53518e-07
-2.82174e-06
1.52625e-06
-3.47524e-07
-3.29364e-06
-9.82063e-07
1.63174e-06
1.43005e-06
-4.12441e-07
1.66558e-06
-1.8803e-06
-2.4775e-06
-9.88103e-07
3.46171e-06
1.32106e-09
-1.1181e-06
-1.21778e-06
-7.98512e-08
1.79301e-06
-2.44501e-06
-3.34143e-06
-9.58702e-08
2.28897e-06
3.72645e-06
-4.7211e-07
-3.26264e-06
-2.04619e-06
2.74196e-06
-5.20458e-07
4.00683e-06
-3.57848e-06
1.28841e-07
1.28841e-07
1.54591e-06
-7.20282e-07
-8.25579e-07
1.49772e-06
6.13282e-08
-1.55916e-06
4.23999e-06
-6.75227e-07
-2.10445e-06
-1.42724e-06
-5.9265e-07
2.01975e-06
-1.70961e-07
1.22715e-06
-1.21884e-06
3.84868e-06
-2.80067e-06
-3.85513e-07
-8.48312e-07
-1.44193e-06
-7.34266e-07
2.17567e-06
8.50894e-07
-1.34551e-06
4.94346e-07
1.07447e-06
-3.0176e-06
1.96697e-06
-1.40675e-06
-5.60335e-07
5.12985e-06
-3.55761e-06
-1.60718e-06
8.99418e-08
-1.61752e-07
-1.09564e-06
2.62327e-07
-9.2563e-07
1.76801e-06
-8.4253e-07
4.39738e-06
-3.51353e-06
1.10244e-06
-3.05567e-06
-6.37599e-07
-2.90498e-06
1.91614e-06
-5.79957e-07
-1.49016e-06
7.06343e-07
8.3957e-07
-2.60169e-06
1.28346e-06
-5.25478e-08
2.62775e-06
3.05917e-06
9.5407e-07
-4.02757e-06
4.26775e-06
-1.94429e-06
-3.24256e-06
-1.80694e-06
5.04712e-06
-9.42398e-07
1.78251e-06
-5.60826e-06
4.32831e-06
-5.11558e-06
1.86905e-06
-1.78639e-06
6.64002e-07
1.12236e-06
-9.06645e-08
1.56646e-06
-2.62859e-06
4.09478e-06
-1.96653e-06
8.2658e-07
1.13983e-06
-3.83857e-06
-3.00147e-07
-4.62354e-08
1.71967e-06
-1.20222e-06
-3.38935e-06
-2.04832e-06
2.47281e-06
6.20018e-07
-3.09556e-06
2.86224e-06
-3.94852e-06
1.01392e-06
-3.34278e-07
4.22917e-06
-3.93067e-06
1.40588e-06
7.40516e-07
5.51894e-06
-1.68133e-06
-3.87023e-06
7.87366e-07
4.77219e-07
-1.26465e-06
2.68596e-06
-1.7285e-06
-1.05927e-06
-3.73176e-06
4.28315e-06
-5.62303e-07
-1.05725e-06
1.35639e-06
3.51046e-06
-1.97682e-06
-1.53638e-06
3.72138e-07
4.61034e-08
-5.30938e-07
-1.62166e-07
2.08289e-06
-1.98329e-06
-1.34706e-06
4.39096e-06
-1.98177e-06
5.41278e-06
-3.48251e-06
1.84979e-06
-4.5749e-07
-1.39243e-06
8.87206e-07
5.77993e-07
-1.46521e-06
2.54752e-07
-3.39209e-06
3.21428e-07
-2.15075e-07
1.42261e-07
3.01611e-06
-3.33226e-06
2.38973e-07
3.01307e-06
-9.67134e-07
-3.28302e-07
1.29531e-06
-1.04467e-06
-1.0001e-06
-1.88568e-06
2.88323e-06
1.90694e-06
2.42912e-06
-4.38715e-06
5.73764e-07
1.00886e-06
2.35927e-06
-1.57171e-07
1.23462e-06
-1.07767e-06
-9.09645e-07
-4.01498e-06
-3.03275e-06
4.20876e-06
-1.18639e-06
-2.09273e-06
1.1649e-06
2.25241e-06
-3.42229e-06
7.3141e-07
8.47652e-07
9.55455e-08
-1.5229e-06
-3.45257e-07
1.84285e-06
-1.5678e-06
3.47048e-06
-1.91663e-06
-1.8912e-06
-5.1286e-06
4.66663e-06
3.8409e-07
-1.18422e-06
-1.18684e-06
3.74898e-06
1.35808e-06
-1.3806e-06
-5.82523e-07
4.2986e-06
2.7747e-06
1.77834e-06
1.72818e-06
1.63702e-06
-1.26857e-07
3.15531e-07
4.94604e-07
6.22642e-07
-1.11735e-06
-1.18645e-06
2.19368e-07
1.57917e-06
-7.91941e-07
7.39518e-07
-1.06061e-06
3.21183e-07
-8.99203e-07
1.17161e-06
-1.7787e-07
-9.93589e-07
-1.72517e-06
-1.39764e-06
3.86293e-06
-2.47064e-06
1.93704e-08
-1.32478e-06
1.34487e-06
-1.32245e-06
-4.89882e-07
-4.5341e-06
-5.18842e-07
-5.74548e-07
3.79766e-06
-3.53571e-06
1.16902e-06
2.36264e-06
-1.3418e-06
-5.6759e-08
1.3985e-06
4.65711e-06
-4.11715e-06
-5.61264e-07
2.88801e-06
1.68682e-06
-4.5918e-06
-7.38814e-08
1.72492e-06
-1.65206e-06
1.83941e-06
-2.88175e-06
1.03925e-06
1.507e-07
3.86271e-06
-4.03274e-06
-1.3498e-06
1.59778e-06
-2.48057e-07
-1.45733e-06
-2.39655e-06
3.76845e-06
-6.08171e-07
-7.57884e-07
1.36622e-06
-1.69485e-07
2.01912e-06
-3.4499e-06
2.65331e-06
-1.07228e-07
4.11464e-06
-4.03155e-06
-9.13041e-07
-1.0815e-06
1.99412e-06
-1.63514e-06
-3.66316e-06
1.30789e-06
1.79368e-07
-1.48751e-06
-1.46162e-06
1.39131e-07
-5.87709e-06
8.73759e-07
4.88228e-06
-7.22207e-07
-6.35985e-07
1.35813e-06
1.96405e-06
-8.45437e-07
-1.16333e-06
-1.06625e-06
2.22908e-06
-3.75843e-06
2.17316e-06
1.67572e-06
-1.01175e-06
-7.62947e-07
1.3187e-06
-5.56117e-07
-2.25563e-06
-3.71532e-06
2.14449e-06
-1.477e-06
-6.67732e-07
-8.97174e-07
-4.02553e-06
4.85647e-06
-3.80162e-06
-1.29165e-06
-4.15539e-07
1.70719e-06
1.08797e-06
-7.88067e-07
-1.14298e-06
-2.32698e-06
3.46342e-06
-8.44712e-07
3.31472e-06
4.35735e-06
-2.93491e-07
-4.08922e-06
2.30887e-06
2.89297e-07
-2.5993e-06
-6.37574e-07
1.39899e-06
-9.41526e-07
-4.01746e-07
1.34294e-06
-4.43526e-06
-5.47834e-07
4.9113e-06
3.50456e-07
6.22229e-07
-9.72594e-07
-9.13705e-07
-3.93865e-06
-2.95423e-06
-3.10178e-06
-1.17768e-06
4.2712e-06
2.43381e-06
-3.81017e-06
-4.27848e-06
1.90947e-06
-4.74225e-07
-9.0709e-07
1.38125e-06
9.95853e-07
1.28632e-06
-1.19648e-06
4.22446e-06
4.08259e-07
4.24107e-06
-6.41988e-08
-1.08493e-06
-4.01757e-07
1.48673e-06
-1.90778e-06
1.53551e-06
3.94176e-07
-1.97152e-06
2.48164e-06
-5.10917e-07
-3.66559e-06
-2.43439e-07
3.89703e-06
-1.53407e-06
-2.30603e-06
3.8344e-06
-2.19354e-06
4.25136e-06
-2.06688e-06
-8.63097e-07
-5.7148e-07
1.43451e-06
-5.02743e-07
1.256e-06
-3.9577e-06
3.41896e-07
3.59934e-06
4.70248e-07
8.24166e-07
-5.07552e-06
4.11506e-06
9.27896e-07
-3.11291e-06
1.78672e-06
1.32418e-06
-8.00756e-07
1.44567e-06
7.76678e-07
5.79749e-07
2.98234e-06
1.31671e-06
-4.3492e-06
-3.66254e-06
2.44503e-06
2.23592e-07
1.4893e-07
-1.05605e-06
-2.07687e-06
8.50529e-07
1.22624e-06
2.95025e-06
-6.42707e-07
9.9719e-07
-1.15458e-06
3.17392e-07
-3.4267e-06
4.09364e-06
-1.17023e-06
9.65661e-07
5.19873e-07
-9.1268e-07
1.6875e-06
-7.74863e-07
1.98274e-06
3.07524e-07
-2.29106e-06
6.23515e-07
-1.23157e-06
1.98102e-06
-2.90438e-08
-1.95225e-06
-1.35903e-06
7.94181e-07
5.64863e-07
-1.20669e-06
-3.14213e-06
4.30729e-06
4.87564e-07
-1.59726e-06
1.11811e-06
8.48737e-07
-1.63603e-07
2.8237e-06
-2.70939e-06
-1.22176e-07
1.1549e-06
-8.27032e-07
1.63445e-06
-8.07456e-07
-1.15282e-06
-2.93375e-06
5.33016e-08
4.0351e-06
-4.14232e-06
-8.50235e-07
1.17177e-06
1.78241e-06
5.90491e-07
-2.37467e-06
1.11938e-06
2.44591e-07
-1.36389e-06
-2.49251e-06
-3.17982e-06
1.57679e-07
-2.12696e-07
7.27693e-08
3.28402e-06
6.74965e-07
-3.96187e-06
-1.40196e-06
3.23772e-06
4.63939e-07
2.11726e-06
-1.20743e-06
-1.11813e-07
2.93884e-07
-6.45791e-08
2.04528e-06
2.68477e-06
1.40659e-06
-4.10629e-06
-2.53227e-06
4.85516e-07
2.40709e-06
3.06422e-06
-3.13422e-06
3.26997e-06
-2.72393e-06
3.44095e-06
-7.21229e-07
1.04862e-06
-6.98055e-07
-1.93729e-06
-1.44769e-06
3.38109e-06
-1.16627e-06
-3.36042e-06
-1.89406e-06
-3.16815e-08
1.80912e-06
3.39151e-06
-4.25425e-06
7.8168e-07
-2.88885e-06
1.19455e-06
3.26753e-06
-3.63232e-06
2.45139e-06
-1.06319e-07
-2.34608e-06
2.27628e-07
3.82799e-06
-4.07488e-06
1.67701e-06
-2.67967e-06
-1.45846e-06
1.94595e-06
1.83063e-06
-7.34444e-08
-1.74071e-06
-7.47393e-07
-4.77503e-07
1.22497e-06
-4.6979e-07
3.99801e-07
-4.95916e-07
-2.09328e-06
2.58892e-06
-7.31249e-07
1.20165e-06
-1.11484e-06
1.5226e-06
-4.07702e-07
3.29533e-06
1.59568e-06
-4.76253e-07
1.82233e-06
-1.89735e-06
-1.33924e-06
-9.03112e-07
2.24184e-06
4.71306e-07
-1.29836e-06
5.18344e-06
-7.34526e-07
-4.52048e-06
-2.83877e-07
-1.06596e-06
-1.24153e-06
-2.37915e-06
-1.74661e-06
1.32814e-06
-5.89674e-07
-1.95e-06
1.1501e-06
7.9975e-07
-1.3275e-06
-3.42558e-06
-1.31666e-07
2.5819e-06
4.90504e-06
-6.31656e-07
-8.07693e-07
-5.51318e-07
3.51124e-07
-1.02694e-06
6.75718e-07
5.45222e-06
-2.60001e-06
-2.89717e-06
-7.94275e-07
-1.15269e-06
1.67804e-06
-5.25327e-07
1.34997e-07
6.88349e-07
-8.75914e-07
-9.2462e-07
1.01355e-06
2.38029e-07
-2.10763e-06
3.64686e-07
-1.11205e-06
-1.02027e-06
-6.62412e-07
1.68265e-06
-1.18536e-06
-3.31015e-06
-1.67107e-06
-7.78094e-07
2.44855e-06
4.26211e-06
1.21806e-06
3.10082e-06
1.49848e-06
-4.61871e-06
1.75037e-06
-1.48765e-07
-1.60166e-06
-2.1045e-06
7.21738e-07
1.43023e-06
-2.15282e-06
-3.82385e-06
2.80935e-06
7.77077e-07
1.6171e-06
-1.27688e-06
-1.6939e-06
2.77786e-06
-1.08604e-06
-2.97789e-06
1.26771e-06
1.70884e-06
-2.24304e-06
4.17221e-06
-1.93213e-06
-2.58805e-06
4.48721e-06
-9.39568e-07
2.71991e-06
7.41424e-07
2.53953e-06
9.17906e-07
1.25432e-06
3.28498e-06
-1.49744e-06
-1.95219e-06
3.08815e-06
-3.94821e-07
2.37662e-06
-2.84629e-07
1.51902e-06
1.76129e-06
-1.0323e-06
1.49199e-06
-2.25651e-07
-1.26641e-06
1.81155e-06
-5.03875e-07
-6.579e-08
1.90577e-06
8.34927e-07
-1.33144e-06
4.95551e-07
3.65041e-06
-2.71379e-06
-9.41573e-07
-1.48414e-06
1.92498e-07
-2.05373e-06
-4.48703e-06
3.43258e-06
9.75726e-07
2.5968e-06
1.48978e-06
4.1131e-07
1.34973e-06
4.19289e-06
-1.83953e-06
-2.36873e-06
3.61706e-06
1.54429e-07
-3.81794e-08
-3.34484e-06
3.28414e-06
-1.67247e-06
-9.52984e-07
2.62516e-06
-1.1217e-06
5.36864e-07
4.00748e-07
-4.14253e-06
4.94006e-07
-1.21343e-06
-2.13409e-06
9.9463e-08
-1.56902e-06
5.4872e-07
1.88405e-06
-8.71412e-08
-1.79748e-06
8.35374e-07
-1.09479e-06
-2.55774e-06
2.42496e-06
-3.90846e-06
5.99942e-07
-3.98596e-06
4.1268e-06
1.33191e-06
-4.96509e-07
1.93136e-06
-1.21028e-06
1.32632e-06
2.318e-06
-1.5184e-06
1.95754e-06
2.26573e-06
4.8521e-07
1.19391e-06
-1.67922e-06
-2.16863e-06
-2.13806e-06
2.07316e-06
-2.10189e-06
4.10063e-06
-2.00884e-06
1.12191e-06
6.94942e-07
-1.81724e-06
2.91886e-06
2.1775e-06
-5.33212e-07
4.83004e-06
-3.01698e-06
-2.40662e-06
5.48603e-06
-5.63413e-07
1.38388e-06
-8.20603e-07
-9.70515e-08
2.8369e-07
-3.26373e-07
2.07667e-06
-1.26242e-06
-2.89842e-07
-2.26897e-06
-8.70027e-07
-4.55346e-07
1.32506e-06
1.00296e-06
-5.64673e-07
-2.45359e-07
-1.89302e-06
-1.82362e-06
4.83948e-07
1.44138e-06
1.85299e-06
2.62536e-06
-4.54103e-06
4.39108e-06
3.50931e-06
-1.81767e-06
-1.86189e-06
4.14399e-06
-8.33918e-07
2.44593e-07
1.50878e-06
1.28467e-06
-2.79528e-06
2.59267e-06
-1.80776e-06
-7.85457e-07
1.0186e-06
-2.71414e-06
1.71973e-06
-7.16788e-07
3.09266e-06
-4.26115e-06
1.13969e-06
-1.24629e-06
-2.07204e-07
2.07204e-07
5.90822e-07
7.86049e-07
-3.29841e-06
1.4685e-06
1.82433e-06
-3.02244e-07
7.89055e-08
3.49123e-06
-3.47277e-06
-3.30567e-09
-1.26108e-06
-1.56055e-07
1.4172e-06
-4.27563e-06
5.19539e-07
1.77381e-06
-1.39599e-06
-3.77843e-07
-1.12419e-06
1.59547e-06
1.54769e-06
2.45013e-06
-2.5733e-07
-2.19411e-06
-4.86229e-06
4.85041e-06
-1.06208e-07
-1.43519e-06
6.33409e-07
4.34127e-06
-1.90835e-06
-2.44892e-06
-4.41236e-06
2.74253e-07
-1.60729e-06
-2.63162e-06
2.6259e-06
-5.54871e-09
-5.18394e-06
1.65248e-06
5.05081e-06
-3.66943e-06
-1.45205e-06
3.2973e-06
-1.73182e-06
-1.56851e-06
-8.16665e-07
-4.58236e-07
1.27512e-06
-4.29042e-06
1.80809e-06
2.469e-06
-1.21631e-06
-2.81528e-06
4.02202e-06
3.19573e-07
-1.76197e-06
2.64746e-07
-1.20648e-06
-1.80488e-06
-1.62322e-06
4.09129e-06
-2.08736e-06
-2.01522e-06
-6.92046e-07
1.50027e-06
-8.0822e-07
1.49747e-06
1.83053e-06
9.41171e-07
-1.63338e-07
1.34324e-07
-4.60733e-09
-4.62436e-06
2.91524e-06
-1.33293e-06
1.79442e-06
-4.61624e-07
-2.74039e-06
1.31775e-07
2.60762e-06
2.50922e-06
-1.11696e-06
1.6387e-06
-2.48955e-06
8.49509e-07
-2.92874e-06
-6.14733e-07
-1.12361e-06
1.65272e-06
-1.79047e-07
1.79047e-07
-1.75384e-06
-1.3608e-06
2.97853e-06
-4.22625e-06
-1.2033e-06
5.18364e-07
2.09449e-06
1.85579e-06
-3.96012e-06
1.76683e-06
-1.80962e-06
4.23559e-08
6.75996e-07
8.16483e-08
-8.56922e-07
-9.44734e-07
-1.12234e-06
2.06661e-06
1.60616e-06
-5.47989e-07
-1.46295e-06
2.01091e-06
2.44845e-06
-8.11075e-07
-1.5005e-06
1.0573e-06
4.43301e-07
-2.97871e-06
1.63206e-06
-2.6296e-09
-1.60023e-06
-8.81533e-07
2.48084e-06
-5.63307e-07
2.01349e-06
-1.57607e-06
-3.60676e-06
3.36431e-06
1.73982e-06
-2.47912e-07
-1.07409e-06
1.5159e-06
-1.1966e-06
6.07296e-07
8.92962e-07
-5.4091e-06
7.20499e-07
4.62672e-06
2.03227e-06
3.36821e-06
-3.06568e-07
-1.80142e-06
2.10679e-06
-1.79235e-06
-2.55521e-06
4.32153e-06
-3.81751e-06
3.80372e-06
-9.96643e-08
-1.30341e-06
6.4224e-07
8.19801e-07
-1.91032e-06
-1.16866e-06
4.77465e-07
6.91216e-07
-2.11236e-06
-3.16194e-07
-2.42515e-06
2.63638e-06
2.05099e-06
-4.70506e-06
-3.35553e-06
7.77796e-07
8.93931e-07
7.77739e-07
-1.67174e-06
-2.51601e-06
2.46245e-06
-4.22257e-07
-1.13249e-06
1.29718e-06
-1.78946e-07
1.82105e-06
-1.0795e-06
-1.04085e-06
2.16514e-06
-1.12477e-06
-7.8306e-07
1.30921e-06
-5.20486e-06
5.92636e-09
4.65109e-07
-5.03696e-07
2.84186e-07
-1.10078e-06
2.10935e-06
-4.35552e-06
3.96924e-06
-2.3641e-06
-1.61396e-06
1.42625e-06
2.61644e-07
-1.16062e-06
-2.54645e-07
1.41525e-06
-4.48317e-08
-3.17189e-07
-4.02863e-07
1.22715e-06
3.58474e-06
-4.04341e-06
4.31615e-07
2.36074e-06
-1.21546e-06
-1.5857e-06
-1.88234e-06
3.463e-06
4.24691e-07
1.73124e-06
-2.15702e-06
-3.32655e-06
8.8791e-07
-4.43588e-06
-1.00526e-06
3.76912e-06
-2.77983e-06
-1.25003e-07
-3.93671e-07
3.93298e-07
1.9282e-06
-1.29459e-06
-6.33667e-07
-5.02481e-06
1.89233e-06
3.12147e-06
5.37455e-07
8.19406e-07
-4.37483e-06
2.36506e-06
1.98086e-06
1.41489e-07
-1.47146e-06
1.32975e-06
1.43761e-06
-9.54348e-07
-4.83992e-07
-3.77225e-06
1.5698e-06
2.19245e-06
-2.95443e-07
7.81559e-08
1.33228e-07
1.4616e-06
-8.82379e-07
-5.79051e-07
-9.51062e-07
1.54691e-06
-5.95877e-07
-7.22008e-07
-3.25099e-06
-2.52274e-06
2.65354e-06
-4.87568e-06
3.32065e-07
8.35078e-07
-1.09479e-06
2.59713e-07
-8.15495e-07
-3.74184e-06
1.56907e-06
-1.15796e-06
-6.61744e-07
3.48795e-06
-2.86165e-06
2.28469e-07
-4.48762e-07
2.31035e-07
1.54274e-06
-3.31175e-06
2.06746e-06
-2.29186e-06
-3.66493e-07
-2.71728e-06
1.28934e-06
-8.36708e-07
-4.5262e-07
-1.48367e-06
7.56482e-07
7.27308e-07
3.04876e-07
-1.45756e-06
3.88617e-06
-2.56771e-06
1.26281e-06
-4.2824e-07
-3.4411e-06
2.45024e-06
-1.68624e-08
5.71218e-07
2.20083e-06
3.31074e-06
-4.98287e-07
-8.75509e-07
1.25906e-06
1.00095e-07
-1.30798e-06
-7.21635e-07
1.54271e-06
-8.21091e-07
-8.49856e-07
1.65162e-06
-8.01946e-07
-1.01504e-06
-4.28635e-06
2.55379e-07
3.34502e-08
2.32988e-06
-3.47896e-06
3.31812e-06
-1.0776e-07
5.25011e-07
9.36745e-07
-2.07919e-06
-6.91155e-07
-8.43907e-07
1.35089e-06
2.25508e-06
-3.27496e-06
-1.07981e-06
2.79449e-06
-3.00539e-06
3.44667e-06
-1.94946e-06
2.24996e-06
-3.66651e-07
5.61741e-06
-5.13258e-07
-1.6362e-07
-1.34396e-08
-1.46793e-06
-5.26063e-07
1.99384e-06
9.86474e-07
-6.34691e-07
-7.63819e-07
3.21211e-06
-1.42768e-07
7.97886e-07
-2.44534e-06
1.64567e-06
8.08741e-07
3.35334e-06
-1.50277e-06
3.42218e-06
-1.92465e-06
-1.18078e-07
-2.40549e-06
6.60015e-07
4.52327e-07
-1.11236e-06
2.53835e-06
1.59621e-06
1.00445e-06
-1.76336e-06
7.58852e-07
-2.24762e-07
-2.29215e-06
6.10408e-07
-1.85342e-07
-1.02973e-06
1.40806e-06
-3.78251e-07
-1.1666e-06
1.36935e-07
-1.16523e-06
7.51176e-07
4.14124e-07
-8.62177e-07
-1.01059e-06
-6.08571e-07
1.61916e-06
4.27995e-06
-8.24499e-07
-9.68149e-08
1.51999e-06
1.96234e-06
-1.08832e-06
-8.74218e-07
1.73306e-06
2.44224e-06
-2.40415e-07
-4.67841e-07
1.05037e-06
1.78982e-07
-1.22936e-06
2.89155e-06
1.26226e-06
-4.18388e-06
-9.44943e-08
-2.62356e-07
4.71509e-06
-1.78096e-06
-1.98776e-06
4.84386e-06
-1.21743e-06
8.70456e-07
3.0111e-06
-2.36175e-07
-2.87316e-06
-3.30771e-06
1.79998e-06
-1.02861e-06
1.21396e-06
-4.44565e-06
3.83136e-06
5.808e-07
1.34429e-06
-1.41228e-07
-4.36713e-06
1.19109e-06
3.16476e-06
-2.57621e-06
1.21146e-06
1.36364e-06
1.49519e-06
-1.07693e-06
-4.18306e-07
-1.88647e-06
-9.23934e-07
-1.15301e-06
-4.44082e-07
-2.24238e-06
2.67679e-06
-1.59875e-06
-2.18282e-06
-9.52142e-07
-5.31028e-07
4.32387e-06
-1.79721e-06
2.2619e-06
-4.65057e-07
-1.34739e-06
9.21789e-07
3.67544e-07
5.28757e-06
-1.11632e-06
-4.21847e-06
-1.17346e-06
5.61413e-07
6.12073e-07
4.14187e-06
-2.52373e-06
-4.75285e-07
1.15198e-06
-6.7656e-07
4.9375e-07
6.26983e-07
-1.12068e-06
-5.87596e-07
-5.85842e-07
-3.72787e-06
2.28713e-06
1.43734e-06
-4.82761e-06
3.84286e-06
9.41153e-07
-4.26793e-06
-1.20271e-06
-6.94358e-07
-1.62896e-07
8.83314e-07
1.67375e-06
-9.92119e-07
3.92619e-06
-2.97668e-06
-6.55736e-07
-2.48815e-06
3.84733e-06
-3.90564e-06
1.45014e-06
2.44898e-06
-3.00819e-06
1.20234e-06
3.16101e-06
1.09849e-06
9.2702e-07
2.84392e-06
4.43796e-06
-2.6596e-06
-1.78921e-06
-1.85639e-06
-2.63622e-06
4.47662e-06
3.12854e-06
-3.25478e-06
-3.43518e-06
-6.12764e-07
1.07322e-06
-1.36628e-06
2.93047e-07
1.94693e-06
-1.12199e-06
-8.24986e-07
-3.95977e-06
2.47017e-06
1.47846e-06
-1.86636e-06
2.91093e-06
-1.04814e-06
-6.63943e-07
1.71431e-06
-2.3165e-06
1.2477e-06
-1.19327e-06
-9.64743e-07
2.29094e-06
-1.39666e-06
3.53598e-06
-2.14733e-06
-3.69187e-06
-1.3405e-06
4.36633e-06
-1.07168e-06
-3.36926e-06
-2.5355e-06
-7.05517e-07
3.23668e-06
-3.25138e-06
-1.61048e-07
3.06743e-06
-1.63605e-07
1.89787e-06
1.03654e-06
-4.30045e-06
-4.04221e-07
-2.48654e-07
2.01505e-06
-7.97148e-07
4.0325e-06
-1.3238e-07
1.09949e-06
-1.19532e-07
-1.07795e-06
-7.5283e-07
1.83068e-06
-1.9879e-06
7.96215e-07
1.19142e-06
1.27523e-06
8.68972e-07
-4.9254e-06
7.18776e-07
4.14373e-06
-1.27206e-06
1.03094e-06
1.07319e-06
-2.10454e-06
-3.79949e-08
-3.70939e-06
4.70763e-06
-3.03857e-06
1.4448e-06
-1.96958e-07
2.19039e-06
1.91786e-06
-4.1163e-06
2.07033e-06
1.70468e-06
-1.55792e-06
2.76845e-07
-1.28108e-06
-6.41141e-07
-2.15795e-06
2.79718e-06
-4.53433e-06
3.91812e-06
5.53789e-07
6.91158e-07
1.98747e-06
-2.82903e-07
-1.42613e-06