/*--------------------------------*- C++ -*----------------------------------*\
| =========                 |                                                 |
| \\      /  F ield         | OpenFOAM: The Open Source CFD Toolbox           |
|  \\    /   O peration     | Version:  v2012                                 |
|   \\  /    A nd           | Website:  www.openfoam.com                      |
|    \\/     M anipulation  |                                                 |
\*---------------------------------------------------------------------------*/
FoamFile
{
    version     2.0;
    format      ascii;
    class       volScalarField;
    location    "900";
    object      ddt0(k);
}
// * * * * * * * * * * * * * * * * * * * * * * * * * * * * * * * * * * * * * //

dimensions      [0 2 -3 0 0 0 0];


internalField   nonuniform List<scalar> 
13851
(
-1.59599e-07
0.0044346
2.68367e-06
-4.37191e-09
-1.58363e-08
7.84899e-05
-1.02306e-09
1.42241e-07
4.54507e-09
-2.15514e-06
4.65625e-05
0.00620228
0.00118418
0.00625342
3.01489e-09
-2.9869e-07
-7.76174e-10
1.10595e-06
0.000158376
8.3443e-10
1.74271e-08
2.55425e-06
-7.47099e-09
-3.32687e-08
-8.35288e-09
-3.2266e-08
1.15235e-08
-8.44341e-05
-1.29353e-07
2.06465e-07
-0.00140994
6.16744e-10
2.42132e-06
0.000738922
-3.34581e-08
3.09018e-07
-9.97356e-05
2.7631e-06
-1.43377e-06
0.00246661
2.11126e-08
-5.38866e-09
3.20955e-05
-0.000389954
0.000165944
-0.00104297
-4.24058e-05
0.00418524
1.08203e-08
-0.000450494
-2.31985e-07
-8.38035e-07
0.000397756
6.14985e-09
1.85959e-09
-7.84457e-09
-1.78574e-08
0.000321136
1.82507e-07
-1.47563e-09
8.14429e-06
-0.000906931
7.43459e-06
-1.29537e-07
-6.21987e-05
-3.36745e-07
7.35352e-05
-0.00045839
3.69261e-09
9.75375e-07
-0.000136128
-0.000977627
0.00479997
6.22453e-09
2.31488e-09
2.54132e-09
1.95468e-06
2.63094e-07
7.95735e-08
-0.000128662
9.78318e-09
0.000470282
1.21084e-08
0.000861424
9.66753e-06
0.00710964
1.97875e-05
0.00372022
5.83543e-09
-4.39555e-08
3.64403e-07
-2.42496e-06
-0.000798821
6.36264e-10
7.02785e-09
-3.71653e-08
-2.47589e-08
0.000653504
-0.000290168
-3.63713e-08
0.00461111
-3.8853e-08
-5.69217e-08
3.8734e-09
2.49434e-08
-0.00019192
-8.21477e-08
-8.87068e-09
-0.00105014
8.98316e-05
-3.92972e-08
-4.52841e-08
-1.90883e-06
-5.44394e-08
-3.73602e-08
-0.00122081
0.000730354
-4.55173e-09
-2.9678e-08
-7.40571e-09
-0.000160284
5.5901e-09
0.00116797
-0.00372396
0.00225808
-1.3837e-06
0.00283688
2.18134e-08
9.16991e-08
5.85834e-08
2.05906e-08
1.67468e-09
-0.000170794
1.14379e-08
4.52396e-05
3.17053e-10
-4.04081e-09
-0.000694203
0.00588434
-0.00422398
0.00423268
4.08754e-09
2.27712e-08
1.64836e-09
2.91913e-08
-0.000526594
9.81313e-06
1.25982e-07
-1.54866e-09
0.000614242
6.45486e-08
1.30643e-09
0.00609793
-1.73475e-08
1.70128e-08
2.80875e-08
1.52854e-09
8.93497e-08
-8.49458e-07
-2.39128e-07
-2.73145e-09
8.27039e-09
0.000315612
1.00148e-09
1.892e-07
2.65297e-09
1.30995e-05
5.65105e-09
1.18588e-07
-0.000853215
-2.22652e-05
-3.51644e-09
-2.04724e-09
-0.00383528
4.87709e-10
0.0048554
4.08192e-08
1.64623e-07
0.000138012
-1.29951e-08
-1.23866e-08
-0.000815987
9.56667e-09
2.59958e-06
-6.57033e-09
-2.41717e-08
-5.38391e-07
1.18767e-09
2.47377e-07
-3.81957e-06
-0.000216101
0.000362202
-2.30038e-07
1.12928e-08
-0.000807079
1.79351e-08
-1.86355e-08
0.000448647
9.11455e-08
-1.18661e-09
-1.9773e-06
-0.0045621
-6.4821e-08
-1.31303e-09
-2.68607e-06
9.65582e-09
0.00449568
1.05266e-09
-4.10262e-05
-9.66094e-09
0.000157069
-4.49677e-08
0.000288986
-1.02484e-08
3.02376e-09
0.00139518
8.60315e-06
-0.00411575
4.97915e-09
-2.06388e-05
3.28099e-09
1.11493e-08
0.000907839
-6.54668e-07
-0.000168255
-1.76066e-08
2.62758e-09
3.29084e-08
0.000356912
-1.01636e-08
2.84309e-08
-0.00480673
-3.3478e-09
-1.26212e-07
-1.68076e-07
1.5617e-06
0.00221493
-9.15475e-05
1.03541e-08
-4.74585e-10
-0.00122155
0.00143477
1.18195e-07
-3.12947e-06
1.29179e-08
-9.92535e-05
-1.45701e-08
0.0017356
3.27322e-08
-2.95763e-09
-3.17685e-06
0.00164363
2.35172e-08
3.61694e-08
-8.57378e-08
0.000670495
-3.43558e-06
-0.000597961
-0.000163249
-8.20546e-10
3.8271e-09
4.77538e-07
-0.00159809
-5.89601e-08
0.000458402
1.83444e-08
2.272e-08
1.90956e-09
0.000999149
0.000110286
-4.3015e-06
1.8192e-08
-0.0112601
6.4307e-08
-2.30597e-07
2.48911e-09
0.000808859
0.000131519
-0.000416147
0.000446344
3.26692e-09
-8.8695e-09
2.73239e-08
-6.80878e-08
0.0011698
0.00623278
-5.52694e-09
-2.02862e-09
-0.0101589
0.000938619
-5.68832e-07
1.51735e-07
-3.34083e-10
1.11037e-08
0.000305559
0.00055854
1.48919e-07
0.00600487
3.81945e-09
-7.31749e-05
7.35315e-09
4.5127e-09
-0.000354369
-6.27776e-09
-0.000195995
0.000427409
-4.54739e-09
-3.29602e-08
-4.99721e-10
1.33203e-07
0.00716344
1.5117e-07
2.55439e-08
0.000924491
-2.65342e-09
-8.19236e-09
-3.03372e-06
-0.000477902
-3.08108e-08
4.52605e-09
-6.44473e-08
2.01897e-09
-0.000111813
4.76313e-07
-9.30361e-09
-1.94007e-09
-7.13401e-08
-8.64884e-10
1.62122e-08
-1.77326e-09
-5.91508e-09
2.53432e-08
-5.14931e-05
0.00441073
-0.0011736
5.1952e-07
-0.000414322
-0.002816
3.69172e-09
1.75621e-08
7.29173e-08
6.28673e-06
1.92658e-06
-7.44256e-07
0.00016045
-1.41001e-06
0.00604568
0.000194961
3.23144e-09
-0.000692693
-0.000435822
-0.000983852
1.63629e-08
-2.00127e-05
0.000418573
-4.28272e-09
0.00489934
1.8916e-09
1.3794e-09
9.06648e-09
-1.07797e-08
1.00699e-09
0.000233007
0.000161074
5.21801e-09
-1.58143e-08
-4.10923e-09
0.00491252
-6.06779e-07
0.00522114
-0.000774604
3.3731e-09
1.19818e-05
-8.6568e-09
0.00506777
2.19069e-08
-3.3806e-09
1.07468e-06
0.00394384
5.42599e-10
0.00701316
4.30818e-07
-7.59422e-07
-0.00111018
-0.000160863
-0.000182941
2.6378e-06
3.96211e-09
7.40271e-09
-4.65208e-09
-6.89109e-08
0.00559756
2.54654e-09
-0.000174503
0.000357129
-3.44234e-09
-1.50073e-09
-0.00119238
-0.00016137
-0.00223564
0.000859387
-8.85855e-06
-1.40479e-08
-2.98051e-08
-0.00278188
8.08353e-10
-2.40579e-07
1.57987e-06
-3.04697e-09
3.22924e-08
-1.89366e-10
6.90961e-10
-2.08078e-07
1.94564e-07
-9.57555e-05
7.15519e-07
-8.33853e-08
-1.47459e-06
0.00298711
-2.01414e-08
-0.00129159
7.14137e-09
0.00111049
-4.74517e-09
1.2679e-09
-2.64852e-08
-3.72787e-05
0.000432755
-5.33737e-07
-6.34167e-07
-0.000217046
-0.000443162
2.82545e-05
4.79631e-09
-1.67044e-07
2.09945e-08
0.0031855
2.10287e-08
0.00236726
0.00303353
1.25871e-06
-4.68967e-06
1.14169e-07
0.000126602
0.00256886
0.00323742
-6.37563e-09
-1.01995e-08
5.28978e-08
0.000131937
-4.57117e-10
2.52488e-08
3.56691e-08
-7.94018e-07
2.20688e-06
0.00413467
-1.90299e-08
-1.05152e-08
0.000363281
3.52791e-07
-8.15083e-09
0.00278135
4.08881e-09
-6.20982e-08
4.59442e-09
-1.12829e-07
6.25001e-08
-1.07887e-08
8.4983e-08
0.000996436
1.26658e-08
-3.99694e-10
1.0231e-09
3.1871e-06
0.00031978
-5.96176e-08
2.32565e-08
-5.53463e-08
-5.5125e-08
0.00973795
2.07324e-08
7.28223e-05
8.05967e-09
-2.52785e-08
0.00508267
-2.56104e-05
9.33888e-09
3.09998e-06
-3.28352e-08
9.38856e-06
9.6307e-05
-1.58409e-08
-0.000170343
2.30676e-08
3.4076e-07
-1.36198e-09
-0.000361779
-8.00874e-09
0.000216919
-3.25502e-06
-3.16804e-09
2.32752e-06
0.000281554
-1.79234e-07
0.000947451
-2.78855e-08
-0.0011046
3.70819e-09
-1.66444e-09
2.23054e-09
-2.14807e-09
-0.000163517
-1.66887e-07
-6.44775e-07
8.94967e-05
6.97671e-06
2.94709e-09
0.000252507
-8.50223e-05
-1.85492e-08
7.64137e-09
0.000208986
-0.00399292
0.000188388
9.61941e-09
-0.000465302
0.000346643
-0.00577978
1.60617e-07
3.13846e-06
-0.00295794
7.0191e-05
0.000394309
0.00048941
0.00577265
1.14411e-07
0.00552375
0.000152981
-6.24205e-09
6.95749e-05
-1.80574e-07
-4.44945e-05
4.41159e-08
1.20965e-09
2.81497e-09
-5.05317e-10
1.23432e-07
8.28483e-07
0.00164088
0.00279773
-6.51333e-10
0.000320935
0.000104651
0.000100442
0.000521705
4.02016e-09
-6.04494e-09
3.57162e-09
5.81713e-05
0.000334035
1.7123e-08
-9.5813e-08
-3.39493e-08
-9.40245e-09
-3.25227e-06
-0.00718315
2.85776e-05
-6.50896e-07
-0.000165621
4.44075e-05
2.27994e-08
-2.75165e-09
-0.00587831
0.000345549
-1.75774e-07
-1.40278e-10
1.40741e-05
-1.29151e-08
4.73345e-09
0.00250571
-9.20943e-09
4.06626e-08
-1.36449e-08
3.01585e-09
0.000259035
-2.47563e-08
-6.80557e-07
-1.06959e-08
0.00397813
-0.000113817
5.06322e-09
-1.33037e-08
-6.32605e-08
7.69304e-09
0.00348668
0.0012653
0.0009628
-0.00932246
0.00116024
2.87949e-09
-6.21633e-05
-5.29306e-05
-1.63447e-06
9.63983e-09
-5.38181e-09
-2.9799e-06
-2.67539e-07
0.00107456
0.00595517
-1.45747e-07
-3.87346e-08
3.32775e-09
-2.47206e-07
-3.94376e-07
0.000740188
-2.09568e-07
7.93953e-09
1.17875e-06
2.24473e-10
5.96275e-09
-3.36698e-07
-1.89904e-09
2.10094e-08
-6.09149e-07
1.36705e-08
1.13497e-07
-3.12112e-05
-6.19067e-07
-2.42846e-07
-1.2934e-07
4.06454e-09
-0.000691762
-7.01596e-06
-0.0115317
-3.58774e-08
-3.83955e-08
-0.000990897
3.2986e-08
-0.000914782
8.64762e-05
-0.00397276
0.000666095
2.18145e-09
-0.00114939
1.85258e-07
2.9875e-09
-8.91677e-09
2.74141e-09
-1.00692e-06
5.95931e-07
-2.07436e-09
-9.6025e-09
-0.00245479
-3.87142e-06
-0.00250487
1.21568e-08
-7.81093e-09
-9.54237e-09
4.04332e-07
-0.00173141
-5.07206e-08
5.56633e-09
1.70329e-07
-2.74447e-08
-1.348e-08
4.4034e-09
-4.57205e-06
0.000229598
1.35916e-08
-9.73515e-09
-1.33128e-09
3.54187e-09
0.000821614
0.000322718
-2.99078e-07
0.000379117
-0.00266149
1.90734e-08
-6.91958e-07
0.00377263
9.86505e-09
0.00704407
1.07937e-08
6.18073e-07
-4.82491e-08
3.36169e-07
0.000143909
9.25529e-09
-0.00632209
2.25483e-08
5.04055e-09
1.57824e-05
2.45455e-08
-7.81451e-08
9.07031e-06
-1.91494e-09
-6.11863e-09
-0.00519199
-0.00401375
-1.85439e-07
0.000444099
-5.06632e-05
-1.10785e-08
1.23679e-08
0.00453155
8.56694e-08
1.99686e-06
0.000133109
-1.11874e-08
1.34171e-08
-5.40479e-09
0.00369627
-5.31014e-05
1.34083e-07
3.90079e-08
0.000388329
1.07388e-08
-1.10159e-08
0.000835494
0.00151532
0.000362421
-3.35195e-09
1.07934e-08
-3.78873e-05
-5.99417e-05
1.96502e-07
-2.5443e-07
-4.92151e-05
1.09908e-08
0.000844924
5.57237e-06
2.01909e-06
1.00312e-08
-0.00336102
1.50114e-06
-7.05431e-07
6.23407e-05
-3.57973e-08
-6.15791e-08
7.47632e-08
4.77436e-09
0.000962754
-1.47259e-07
-7.53112e-07
-4.72801e-07
0.000217367
1.69024e-09
-0.00509527
-2.80133e-08
3.39693e-06
-4.19604e-09
1.61455e-08
-6.5315e-11
0.000415371
-1.04294e-09
-1.23861e-09
0.000508734
-2.32256e-09
-8.6508e-06
1.40277e-08
-4.26782e-08
-1.63564e-07
0.00263364
0.00115808
-1.19829e-09
-0.00400182
0.000290554
2.20627e-08
0.000584249
5.81494e-09
4.86054e-09
4.48686e-06
0.000391576
-0.00316097
1.81405e-08
-1.17881e-09
-9.2267e-09
0.000393166
2.69268e-06
-1.5447e-06
1.52468e-07
2.79442e-06
8.36653e-09
-6.8501e-08
9.64175e-09
-0.0015062
3.16391e-07
0.00861699
1.11978e-08
2.89674e-07
-3.44375e-07
-0.000556095
1.5839e-07
0.00175081
3.74731e-05
-2.50405e-09
0.00102917
-0.000223977
-0.00101275
-0.00444693
0.000780988
-0.000317495
-5.46346e-07
4.81942e-09
-5.26934e-07
0.000550572
0.00143339
2.63363e-08
-2.66606e-08
-1.86769e-07
-0.000292712
-2.0547e-10
0.000339334
-1.16514e-08
1.35383e-08
0.000628536
-2.8848e-05
-5.00729e-05
2.85979e-09
-3.38342e-11
4.23867e-06
-4.22537e-06
-3.45242e-07
-7.29553e-07
-0.000622377
-2.48861e-05
-0.00141643
-7.77579e-08
-1.74015e-08
2.6013e-08
-1.75484e-09
0.00389265
-1.75403e-08
-0.000157633
-1.54732e-05
1.27681e-09
0.00112536
-0.000912216
6.59927e-05
5.57806e-09
6.21249e-09
4.77869e-09
-3.04956e-07
-8.17822e-08
0.00196776
1.35985e-08
-0.000195117
7.13013e-10
-1.67183e-07
9.93861e-09
8.47369e-06
2.68484e-10
5.03745e-09
0.000513267
-2.8454e-08
-2.76354e-07
-3.71988e-08
-1.78909e-07
0.00606751
1.18264e-05
5.12439e-08
-2.72058e-05
-3.45411e-08
-0.005974
-0.000435481
2.51068e-08
8.83646e-05
0.00434531
1.72734e-05
-0.000163941
-1.5805e-05
1.09004e-08
0.000347496
1.36089e-08
-0.003063
-6.39653e-05
7.54041e-09
8.65655e-09
-4.05379e-05
-0.00102377
-0.00136451
2.45314e-08
-9.68848e-09
0.00012613
-1.2833e-05
-7.31835e-07
2.48257e-08
-4.59e-07
-0.000776177
-0.000127647
-3.62931e-07
-1.02363e-09
-4.58075e-07
-1.36029e-09
-4.04537e-08
-0.000159713
-3.18073e-08
2.45537e-05
0.00309416
1.2122e-08
9.14077e-08
8.59374e-09
8.30003e-08
-0.000135437
5.55579e-05
-3.88936e-09
0.00275665
8.41211e-09
-1.37916e-08
1.5347e-08
-5.31355e-10
1.05301e-11
9.66205e-09
-9.79484e-05
1.04551e-08
-6.37044e-08
7.60703e-09
-1.74427e-09
-0.000388905
-0.000206216
-2.27588e-08
-0.00471104
-1.92329e-06
-0.0016775
-1.60197e-07
-7.86682e-08
-0.00015049
8.03956e-09
1.03832e-06
0.00276175
-0.00999425
0.000239153
3.13675e-08
0.000714238
-2.5911e-08
-1.78472e-08
-4.53309e-08
-0.000668407
-1.139e-08
-0.00389463
1.203e-08
1.12615e-08
0.00411681
-9.35609e-07
0.000633731
5.972e-09
3.35457e-09
-3.52904e-06
4.72744e-09
-2.29762e-10
4.90038e-07
9.16785e-09
-3.78899e-05
5.93975e-09
-6.39389e-06
-4.84866e-05
-2.00429e-06
-0.00278962
-2.1123e-09
-3.33217e-08
-4.51055e-06
1.45463e-09
2.9816e-09
-2.33763e-07
3.17647e-09
-1.73318e-08
3.40288e-08
-1.16253e-08
4.68769e-05
0.000364741
8.03478e-06
0.000842528
-4.81807e-06
5.72055e-09
-0.00129667
-3.19962e-08
2.84785e-09
-0.000422159
0.000150197
0.00018444
2.62329e-09
-0.000104839
-0.00141799
0.000505309
-2.12813e-09
0.00108765
-1.42944e-07
1.24221e-08
7.32296e-07
-4.6593e-09
0.0100639
-0.000133276
0.00686064
2.3313e-08
9.878e-09
0.00180829
2.62505e-08
0.0010451
-0.000677939
-0.0217644
0.000158697
-0.00173539
-2.69754e-08
-4.95523e-09
8.73914e-06
4.0678e-06
7.0317e-09
5.22977e-06
6.65495e-08
3.3658e-09
-3.38614e-07
-0.00352657
-1.58544e-08
7.27091e-05
0.000664977
-0.0020755
-1.86472e-06
6.32559e-09
-2.01758e-08
4.60936e-08
0.00028711
-0.000178642
-2.46902e-09
-6.57803e-08
2.2341e-08
-2.63462e-07
-2.77842e-09
2.02452e-08
1.22029e-08
9.55003e-09
-1.65715e-05
8.53062e-07
1.73986e-06
-4.04237e-10
-1.38234e-08
-4.45449e-05
3.46301e-09
0.00069576
-0.00311588
-2.34931e-07
-1.14118e-08
-3.25584e-08
1.02979e-09
-8.73641e-09
4.72007e-08
2.74158e-06
-1.97767e-07
-0.000315346
5.51208e-09
0.000658675
6.11136e-09
2.48696e-08
-8.65318e-09
-0.000885421
0.000303002
-2.25908e-09
1.09673e-08
1.11358e-06
-0.000115434
-5.93161e-08
-0.0163033
1.5808e-06
0.00481431
-1.37029e-07
0.000667634
1.80474e-08
-2.53932e-07
-3.49037e-05
0.000111845
-0.00126691
-0.0034618
-1.61237e-08
2.28836e-05
-2.71335e-09
5.15418e-08
9.65392e-09
2.5442e-08
5.04182e-05
-1.01966e-07
-4.6133e-09
-0.000676555
-1.08485e-06
0.00679976
3.45447e-09
1.43686e-08
1.4293e-07
-2.95084e-08
-7.67851e-07
-0.00245718
0.00264981
-0.0003094
1.07346e-09
7.49084e-09
-8.97681e-07
-0.00604589
0.000917607
1.06534e-05
-2.40881e-08
2.6599e-09
-0.000641255
-2.14419e-07
0.00871203
-0.000858874
-0.000220273
-4.27496e-09
0.000376009
-1.3765e-06
7.0559e-08
-5.20797e-09
0.000373588
0.00122013
-1.21396e-07
-0.000264291
-6.51106e-08
2.47376e-06
1.59023e-08
1.28772e-05
4.76232e-07
4.88247e-05
0.000759838
1.07355e-08
-4.13008e-07
1.97136e-08
0.000362858
-3.99453e-06
-1.49788e-09
-8.0747e-05
4.19739e-05
-5.38445e-05
-0.000459627
6.31644e-10
-5.05886e-09
-9.57656e-05
-0.000508028
-0.000485457
3.60897e-09
-2.54579e-09
7.7456e-09
3.37022e-05
1.09139e-07
1.02121e-08
0.00071814
3.22652e-06
0.00301814
0.000420069
0.00438968
-2.55769e-10
1.89026e-05
9.93698e-09
2.05252e-08
-6.14412e-07
-0.0018538
-1.02552e-09
1.34328e-08
-0.000248454
0.000583358
-9.70586e-08
3.3279e-10
-0.0044347
-4.98172e-09
-0.000493416
1.27331e-09
-0.00519994
-6.28903e-09
-6.94479e-08
0.000557315
0.000976454
1.73984e-08
0.000473042
0.00320296
-0.00151737
0.0005407
0.00506034
2.12366e-05
-8.2373e-10
-0.00348517
-6.04219e-08
2.28916e-09
-2.99492e-08
0.00137524
1.76389e-08
-0.000443438
1.46692e-08
-8.70388e-07
-4.77793e-05
1.64804e-08
-0.000487591
2.64336e-08
-3.08843e-05
1.24947e-09
6.21889e-09
4.11044e-05
0.00525148
2.62494e-10
-1.62224e-07
0.000691306
-3.31167e-09
-9.70513e-09
0.000153014
1.34082e-08
-3.51611e-07
-7.12632e-07
-0.00443927
0.000362513
-0.000111293
-0.000564836
5.70964e-06
0.0014984
-0.000597962
-0.00991494
-1.32373e-07
-3.3235e-09
-4.14732e-07
3.26356e-10
2.12585e-09
-0.00429086
7.80761e-05
2.00548e-08
0.00636028
-0.000111408
6.4852e-05
0.000174314
-0.000204356
8.57108e-09
-9.92202e-05
-8.59793e-05
2.84035e-07
1.76009e-08
0.000489832
0.000646991
-0.0120253
0.000425094
-3.32167e-07
-0.000233496
0.000318926
5.25158e-09
3.59293e-10
-8.97892e-09
0.000213889
4.77214e-09
-9.88169e-06
2.51392e-09
1.39343e-08
4.67102e-08
0.000346477
-0.00039539
0.00196593
5.74697e-08
0.000318819
1.47675e-07
2.80594e-07
2.17566e-09
-4.58233e-09
8.41422e-05
-3.00094e-08
-7.23209e-05
0.00285759
0.000456852
-3.49277e-07
-1.5949e-09
-5.94482e-07
2.30374e-09
5.56737e-07
1.56967e-07
2.34945e-08
5.76932e-08
2.36608e-09
-4.02044e-07
1.29964e-08
-2.4098e-07
3.07749e-07
-2.9121e-07
1.03264e-05
-0.000140368
-8.92941e-09
5.98169e-09
3.15936e-08
2.2701e-05
5.0049e-06
-0.00113677
1.07458e-05
5.5606e-09
1.24763e-08
9.36412e-09
-0.000119978
1.79109e-08
0.000160397
-1.1684e-09
1.80367e-08
-5.85225e-08
0.00082849
-4.23495e-09
-2.33456e-07
-2.17083e-06
-5.98369e-09
2.05078e-08
0.000894841
0.00017947
1.64176e-08
1.71168e-08
1.5779e-06
-9.32069e-10
-2.80381e-08
-2.23392e-06
-0.000179423
1.69512e-08
3.44125e-07
-8.63226e-06
0.00026456
8.02741e-09
1.46118e-08
-0.000186636
1.97164e-08
-0.000163438
-7.77228e-06
-0.000659002
-5.94938e-09
9.40871e-06
6.94152e-11
-0.000154094
4.41798e-07
-3.51341e-08
-4.8026e-07
0.00195655
1.14985e-08
-0.000345423
0.0115967
3.67785e-08
5.03261e-05
-2.4602e-07
5.47326e-09
9.35177e-05
8.47888e-09
2.55435e-08
-7.68061e-09
-1.70665e-07
3.41525e-05
-4.04007e-07
2.84096e-08
3.4352e-09
4.98477e-09
0.00106461
6.18743e-06
-0.000316535
0.000987725
8.32194e-09
3.99168e-07
5.24473e-07
-0.000291231
-1.44947e-06
-0.000400724
6.18113e-09
-2.35451e-06
-3.3416e-09
0.000342006
3.45488e-08
-2.22467e-10
-0.00542845
1.3881e-05
-6.84823e-08
-4.30285e-06
-9.47974e-09
-1.84575e-09
-1.42348e-06
-2.29736e-07
0.00111304
-7.80329e-08
8.78768e-07
-1.82873e-06
3.88246e-07
0.014804
7.90599e-06
-0.000206799
-8.24886e-09
-1.45987e-08
-1.15164e-06
0.00203789
-0.000301075
-0.000540676
-3.9629e-08
-0.000221424
0.000276338
2.13431e-08
1.01523e-08
1.64349e-09
-9.17738e-09
-2.27223e-07
4.69454e-06
0.000309399
-1.83949e-05
1.70399e-08
-0.00116169
-3.24619e-05
3.65921e-10
-8.96264e-06
0.00484665
-0.000334682
1.35276e-08
-1.29915e-07
-9.2514e-09
4.34256e-09
1.2886e-07
3.75563e-08
-0.000201824
9.08104e-05
-0.000579054
-0.00231772
9.25978e-09
-2.13121e-07
-1.53272e-06
-4.64743e-09
1.03887e-09
8.66139e-10
0.00113972
-1.02333e-09
0.000162959
-2.36173e-07
5.45692e-06
1.49386e-06
-6.15365e-06
-1.92829e-06
0.000407358
-1.1078e-08
-4.32679e-09
-1.04407e-06
0.000593167
0.00048078
7.2066e-09
2.8837e-09
-4.30741e-09
1.02536e-06
-1.10537e-07
-1.10816e-07
0.00950171
5.84577e-09
-7.27433e-09
2.90163e-07
1.87466e-05
-0.000116361
0.00376465
7.41294e-10
-1.62187e-07
3.75822e-08
-0.000362062
-1.07071e-09
-0.000215208
1.6066e-07
5.76628e-09
-1.54179e-06
6.05873e-09
1.47659e-05
4.12322e-09
1.04722e-08
0.000900744
0.000738487
5.15879e-09
-5.496e-08
6.03327e-09
0.000503318
0.0005117
-1.33718e-08
-1.73987e-08
0.000184398
-6.06179e-09
-0.000160534
2.72221e-08
2.64013e-06
5.138e-07
0.00308347
2.49658e-07
2.71232e-07
8.23636e-10
-1.24157e-07
0.000514717
-2.86879e-10
0.000194828
0.00573589
0.00805122
0.000252873
-1.05553e-07
0.00014133
4.26159e-09
1.49541e-05
6.08095e-09
0.00158096
0.00121086
0.00104113
-0.000655208
0.00879511
-1.82532e-06
-0.000216013
1.2755e-08
-0.000116551
-0.000554977
0.000540381
0.000694477
-1.60306e-09
0.0146347
0.00530005
-1.68577e-07
-5.13477e-10
-1.33449e-09
-0.000121315
7.57797e-09
-9.31423e-08
-6.63615e-08
-6.90359e-09
-3.81843e-10
1.74291e-08
0.000423831
3.96811e-06
-1.76427e-07
-0.000923345
0.000731162
-1.04273e-06
9.50675e-09
-1.93994e-08
1.7271e-06
-0.00021419
-3.91899e-06
6.50973e-08
1.98409e-09
-9.50662e-05
1.85617e-06
1.40183e-08
0.000394198
-1.48366e-07
-4.32453e-05
5.16017e-09
1.14892e-06
7.35138e-09
-6.59067e-08
-1.44773e-07
-0.00150126
0.00163782
-0.000123462
1.61608e-06
-0.00825214
1.16817e-06
7.33925e-09
-1.02966e-08
-0.000505714
0.00196569
-0.00221278
0.000191167
1.5284e-08
1.79316e-08
1.96805e-09
-1.17162e-09
2.06951e-09
-0.000359132
-9.74877e-08
0.00021287
-1.80076e-07
-0.00115425
0.0048491
-2.16149e-05
1.087e-05
9.32377e-09
-0.000262661
-4.6748e-07
-0.0136602
-0.00017481
-1.72308e-09
0.000357321
-1.09453e-08
0.00268791
0.000744365
-2.9669e-07
0.00104688
0.00183036
-3.18338e-08
1.80457e-06
1.39931e-08
-0.00799419
0.000220245
1.10587e-08
-9.88539e-10
0.0020238
0.000436554
-6.67206e-07
-0.0101981
-6.05153e-07
2.25005e-06
-6.06866e-09
0.00565678
-0.000178088
-2.26481e-06
7.1716e-09
0.000708647
0.00178528
1.49156e-08
5.51517e-09
9.26668e-09
0.000602951
0.000937341
6.7671e-09
-9.62527e-05
9.42343e-09
-1.0085e-08
-4.22208e-09
-0.00211213
7.89444e-05
-0.000259315
-0.000316437
6.90939e-09
2.47279e-08
-2.56536e-10
0.00115674
2.38569e-09
-0.00849033
-1.13349e-07
-0.00115584
2.72361e-09
1.54338e-09
-3.54896e-07
-0.000229451
-0.000153718
-4.04678e-07
-0.00299412
1.06007e-07
2.15298e-08
5.17701e-09
4.61237e-10
-7.59452e-08
-1.24796e-07
1.14761e-06
0.00078577
1.03806e-08
8.68642e-07
-0.00109527
0.0145876
5.03896e-08
-6.72821e-05
-7.06122e-05
4.8403e-09
-0.000620785
-9.2127e-08
0.00356863
2.2521e-08
-2.31834e-06
-3.24279e-08
-0.0248754
-0.000127771
-6.03575e-06
0.000180817
-9.6044e-09
-2.67512e-08
-1.36448e-08
-4.3463e-05
4.24115e-09
2.4166e-09
0.00228582
-2.81694e-06
0.00286597
0.000147767
-1.71736e-08
-5.88944e-08
-8.87586e-09
0.00179899
-2.1066e-06
2.53197e-07
3.64472e-07
3.86978e-07
-6.94498e-09
1.55659e-08
0.0155631
2.12763e-09
-0.000319501
0.00111684
-2.53384e-06
0.000556665
-1.43552e-06
-0.000391065
2.69562e-08
0.000889618
0.00572154
-2.36933e-10
1.36243e-08
4.9522e-08
3.39588e-09
-5.18469e-08
1.10754e-09
0.00346829
-1.91901e-07
0.00105536
2.18105e-05
3.21463e-08
1.49165e-08
-1.41916e-08
0.000306455
2.26348e-08
1.82235e-08
-2.53103e-05
8.23541e-09
-0.00409361
0.000255389
-1.71516e-08
-1.89787e-07
-2.45224e-07
2.71927e-08
1.02355e-08
1.5734e-05
-1.91562e-08
9.63817e-09
-0.000361034
-0.000234385
0.00539517
2.88723e-08
0.00058375
1.74528e-05
2.7292e-09
0.000519171
0.00109569
5.41217e-09
1.27811e-08
5.41759e-09
-0.000145493
-0.00191592
-0.00108952
-1.66087e-08
1.09998e-08
-4.77022e-07
-1.96275e-09
-7.78227e-07
-4.44318e-09
0.000247028
-0.00031841
-2.84218e-05
-2.45019e-09
1.20059e-08
4.99843e-09
-0.00585903
-4.63311e-09
-0.0015297
-0.000363866
-0.000439116
-0.00889215
-0.0013706
0.00914769
-2.35805e-07
-0.00242945
0.00370633
7.85755e-09
-9.46892e-09
-8.07939e-10
0.000273214
-0.000161873
0.000480044
-6.6317e-09
-0.000125745
2.64893e-08
1.25195e-06
-3.17242e-08
5.91964e-08
1.09064e-08
-1.64492e-09
-0.00120513
5.1868e-09
-0.0038448
0.0030202
-0.00157722
-4.95663e-07
-4.3665e-08
-0.00249124
0.000611428
-6.62679e-09
0.00037829
-1.5939e-08
-3.12829e-09
8.28102e-09
-0.000165389
-5.91089e-08
0.000801965
-2.31317e-06
-0.000767465
8.25876e-07
-0.000299265
6.00198e-05
-1.61994e-05
-8.33526e-11
-1.53887e-06
-2.57094e-06
-0.00296725
5.42096e-08
-6.87958e-09
3.38579e-09
-0.00626759
-2.03697e-08
0.000883026
0.000605281
1.20147e-08
9.32858e-07
5.1554e-08
-0.000554562
6.5421e-09
-0.00023428
2.37614e-10
0.000553199
5.15264e-09
8.87755e-09
0.000634648
-0.00119101
-4.70417e-09
-3.38798e-09
2.28987e-08
0.000787142
-0.00024755
-6.98787e-05
-0.000797179
1.30472e-08
-1.53615e-06
-1.28296e-05
5.33192e-08
-0.000111256
-3.20528e-07
-1.61819e-07
7.80868e-09
-0.000156847
0.000333219
1.33702e-08
-8.54861e-05
1.71441e-08
1.03301e-07
0.00088863
0.000545979
2.61894e-07
0.000148373
-4.73738e-06
1.81861e-11
0.000662635
1.00399e-07
8.18512e-09
6.93279e-09
-0.00106694
-3.86774e-09
0.000889488
-0.000481296
5.32251e-06
4.05724e-09
1.11601e-06
2.29818e-05
8.33666e-08
-0.00125896
1.1919e-08
1.28493e-08
9.18107e-05
-0.000539608
6.71427e-09
0.000412661
0.00596251
0.000801224
-8.22956e-09
-0.000638085
-0.00295701
0.000281106
1.16703e-09
-1.32867e-06
-1.39568e-08
0.000232701
-2.62067e-06
-0.000342888
-0.0017887
1.83159e-08
-1.83323e-11
3.87887e-09
-0.00249149
-0.00108255
0.00508017
-0.000188453
3.12775e-10
-0.000282005
0.000806403
-3.37257e-07
1.34167e-06
8.02662e-05
1.10011e-06
0.00047444
1.29931e-08
7.16873e-09
-0.000223808
0.000444215
2.18935e-06
0.00642376
4.32447e-08
1.02848e-08
0.00462245
0.000269297
-0.000405043
-0.00012113
-1.97199e-07
1.47132e-08
4.49073e-09
0.000539998
-0.000762553
-1.45382e-09
-2.41222e-08
0.00110672
3.76288e-09
2.61791e-08
0.00123321
0.00620048
4.27019e-08
-1.41137e-09
7.59597e-09
1.21898e-09
0.000468218
3.65711e-09
-2.80584e-08
4.6664e-08
-8.94073e-06
0.002553
0.00279341
-0.00103041
1.60917e-08
1.27677e-07
0.000306305
0.000697061
3.10959e-07
-0.00108401
5.0647e-09
3.01077e-08
2.67891e-07
3.35337e-06
-1.05693e-06
-2.92188e-08
0.00311423
4.26084e-09
-4.3225e-09
1.38985e-07
-0.00267563
0.00398336
3.60118e-05
2.94177e-09
-3.46357e-09
0.00047323
0.00381354
1.22266e-08
4.48942e-08
-1.23399e-09
0.00125818
2.5603e-08
-2.5827e-08
-4.80291e-08
1.28352e-08
0.000200141
-0.000628873
1.91644e-08
1.43876e-08
-1.62498e-08
-6.47542e-09
0.000402427
0.00460709
-2.16365e-07
-4.34672e-05
1.80792e-06
1.42267e-08
5.50416e-09
1.35686e-08
-1.03344e-08
1.25226e-08
-2.61003e-08
-2.94046e-06
0.000775738
-2.6361e-07
-4.36332e-07
8.67207e-05
-0.00049898
1.86059e-08
1.84063e-09
1.00796e-08
0.00185758
-1.24458e-08
-0.000441374
-5.28221e-05
3.86644e-06
3.62033e-07
-2.49193e-05
1.50512e-10
1.578e-05
-5.37975e-09
9.04764e-09
-1.66503e-08
3.26317e-09
6.22787e-06
0.000978562
0.000289624
-1.07404e-07
0.00559309
7.53195e-05
0.000154686
7.41248e-09
0.000227584
-0.000326579
6.68337e-08
-0.000273534
0.00118147
-4.93738e-07
-0.0015149
5.13717e-09
-4.33796e-08
0.00209501
-5.26345e-09
1.09237e-08
0.00466503
0.000156094
0.00487624
5.08697e-06
-9.87823e-09
-4.1203e-06
2.48502e-08
0.000162902
-2.91966e-08
0.000263227
0.0039205
0.000976992
-0.00178672
1.7923e-08
-4.82028e-09
-2.12036e-07
0.00403387
0.000113293
5.71533e-06
-5.94843e-05
-3.68575e-10
-0.000475702
-0.000168216
0.000180824
1.83999e-07
1.955e-08
8.85227e-08
-4.12676e-08
3.25827e-08
2.5978e-08
1.28743e-08
0.000197031
-2.83474e-07
-2.75953e-05
0.00103576
-0.00160578
2.04318e-07
5.09019e-09
-1.37368e-08
-7.9619e-08
-6.07982e-09
3.83472e-09
0.00318263
-0.00224413
-0.0107367
-0.000100402
6.46516e-09
4.40261e-05
1.19269e-06
0.000413932
-0.000177871
-5.88131e-09
1.82651e-08
0.0011122
6.85885e-09
-4.57253e-09
-0.00431664
0.000154511
7.04092e-06
1.86844e-08
2.55939e-08
8.22129e-07
-3.23237e-07
-0.00321279
-1.76204e-08
-5.06148e-07
4.41459e-05
9.08061e-09
-0.000861158
-3.62653e-07
0.00430793
1.1854e-08
4.9874e-06
0.00268829
-2.75098e-07
0.000659123
-6.90749e-07
-0.000104352
1.46011e-09
6.55092e-08
1.00546e-08
-1.31995e-07
-0.00271274
-8.8319e-09
9.81802e-06
-3.57565e-08
-4.37793e-09
-1.87266e-09
-3.19235e-05
-5.82771e-09
-6.41463e-07
-0.00380079
-4.91596e-09
-7.51539e-07
0.000417693
-1.47903e-06
-4.94928e-08
-2.50057e-07
-3.316e-09
2.53906e-06
4.75096e-08
8.53893e-09
-0.000274482
-0.000146573
0.000159443
0.000496823
7.07343e-05
0.000765693
-6.75102e-08
-0.000266691
7.0245e-07
2.51596e-09
-6.57516e-09
-5.6161e-09
-8.54003e-09
0.000414141
0.000550359
-4.23945e-08
-0.000237654
-0.000256887
6.03948e-09
-1.43797e-07
1.0177e-08
-0.00144763
0.00123261
0.000114231
0.00167585
7.52996e-05
-6.30442e-09
-1.38892e-05
1.90919e-07
0.00107857
-0.000387322
9.38551e-09
-1.02419e-07
0.00109959
-1.52209e-07
0.00261736
-1.81041e-08
0.00039224
0.00113502
-0.000158777
-5.44941e-08
-1.75245e-07
-4.77404e-06
2.56944e-07
-0.000209998
-5.233e-05
0.000251015
-6.09226e-07
-0.000989781
2.67191e-08
2.70436e-07
-1.13041e-08
-0.000117149
0.00194749
-0.000135987
-3.0523e-08
4.14357e-06
-2.52699e-06
-3.60433e-08
0.00110665
6.56516e-09
-5.02761e-07
8.28586e-06
4.40546e-09
0.00801265
0.00027536
-0.000189196
-0.00140285
-0.000676871
0.00379982
1.51529e-08
0.000296273
2.58969e-08
6.83596e-09
4.61165e-08
1.15147e-08
-0.000134615
1.12551e-08
-2.64326e-09
9.77236e-09
1.30505e-08
-0.00324776
3.64794e-08
-6.03427e-07
0.000171243
-1.79785e-09
-0.000170264
-5.72866e-08
-9.56939e-08
3.36077e-06
0.000149219
4.31107e-09
-0.00453552
1.78641e-08
-0.000224432
0.000984858
-1.13505e-07
2.00614e-07
3.55283e-08
5.57066e-05
1.04233e-05
-2.35316e-07
-0.0134492
-6.60877e-07
-1.21444e-09
0.00499214
8.70012e-09
-1.97157e-08
8.63729e-05
6.43172e-09
-9.41437e-10
-7.83164e-09
1.04467e-06
4.8854e-08
6.1787e-05
-1.02303e-05
0.00011256
0.00319908
-4.85904e-08
7.83245e-07
2.01031e-08
-4.69821e-05
-0.00013914
0.00328388
1.02875e-09
-9.51631e-09
-2.5953e-08
-1.44443e-07
-0.00167035
-1.98102e-08
0.00296238
3.99548e-08
-8.50362e-06
-1.72456e-08
0.000229283
8.23032e-06
-3.99935e-07
-0.000162485
0.00414809
0.00112486
4.59914e-05
-2.88158e-09
1.68079e-05
-2.28427e-06
-0.000126395
-1.67734e-08
9.63071e-06
-0.000108399
-0.00138212
-2.45935e-07
0.000119286
0.0012777
-0.000236547
-4.56197e-09
-1.28619e-05
-9.37926e-10
-4.21596e-08
-6.96987e-09
7.38262e-09
-1.40231e-07
0.00281757
0.000645089
-0.00207246
0.000614878
-9.69075e-10
8.31252e-09
-1.88637e-07
7.79412e-09
0.000382655
-1.63714e-08
-1.06908e-08
-0.000469897
2.0147e-06
2.3394e-06
-2.36642e-07
-3.95851e-08
-1.38013e-06
-0.000237448
-9.40263e-05
-0.000231704
6.61831e-09
-4.5381e-05
2.78153e-07
-4.91214e-09
6.60356e-09
7.52956e-05
1.87809e-05
-1.11263e-05
2.40589e-06
1.5984e-08
-1.74226e-08
8.82075e-09
4.69405e-09
8.71146e-09
0.00498874
-0.000162812
-6.95231e-08
0.0010093
6.88745e-05
0.00280827
-0.000726569
8.48102e-09
-2.08107e-08
1.68733e-05
4.03764e-09
1.48701e-05
-1.41931e-08
1.12494e-08
-0.000817909
-0.000115177
-1.96308e-08
8.65548e-10
-7.54439e-08
-3.90189e-07
-0.00020581
0.00876466
-0.000119606
-3.99974e-08
4.40642e-08
-1.69133e-05
-1.23984e-07
5.15988e-08
0.000656863
-0.00147772
-0.000646611
-0.000290011
-1.19723e-08
-0.000645216
-1.18012e-09
-6.65296e-08
1.1902e-08
9.46342e-07
-0.000450832
-4.39602e-05
0.00312652
0.000123837
5.77088e-07
-7.59482e-09
2.55011e-09
2.67796e-08
-1.77623e-08
1.43656e-08
-0.000281061
-0.00027847
-2.48416e-08
-0.00158125
-9.82241e-09
4.58777e-07
-1.93366e-09
-0.000194789
-3.56754e-06
-3.90389e-08
7.77968e-06
-4.49924e-07
0.00493856
-0.000139148
1.68024e-06
-0.00013984
1.99515e-08
0.00347453
-2.7173e-05
0.000132104
-0.000268334
2.75286e-07
1.66266e-07
2.30164e-08
0.00109094
0.000103918
3.35887e-08
0.00724864
-9.64569e-06
0.00385873
1.37519e-06
5.00679e-06
1.77093e-06
-2.35871e-10
1.14237e-07
-1.6637e-06
9.58785e-09
-2.93439e-07
-8.2009e-08