/*--------------------------------*- C++ -*----------------------------------*\
| =========                 |                                                 |
| \\      /  F ield         | OpenFOAM: The Open Source CFD Toolbox           |
|  \\    /   O peration     | Version:  v2012                                 |
|   \\  /    A nd           | Website:  www.openfoam.com                      |
|    \\/     M anipulation  |                                                 |
\*---------------------------------------------------------------------------*/
FoamFile
{
    version     2.0;
    format      ascii;
    class       volVectorField;
    location    "900";
    object      U;
}
// * * * * * * * * * * * * * * * * * * * * * * * * * * * * * * * * * * * * * //

dimensions      [0 1 -1 0 0 0 0];


internalField   nonuniform List<vector> 
13851
(
(1.01549 -0.0107987 0)
(0.561381 -0.10586 1.23216e-21)
(1.04037 -0.0463533 0)
(1.01513 -0.00966866 1.44395e-22)
(1.05256 -0.0566937 -6.34683e-22)
(0.984181 0.0228275 0)
(1.03034 -0.00228083 -3.69715e-21)
(1.04383 -0.0426215 2.39918e-20)
(1.01014 -0.000558613 -3.31355e-23)
(1.0465 -0.050298 1.95987e-21)
(0.990402 -0.00565451 0)
(0.513374 0.0246909 -1.08576e-20)
(1.00474 -0.0947165 1.05807e-20)
(0.104588 -0.0579278 0)
(1.01936 -0.000574967 2.31893e-21)
(1.03125 -0.0361847 -2.4487e-21)
(1.03885 -0.0242318 3.62023e-21)
(1.01923 -0.0146354 2.41324e-22)
(1.05598 -0.0939338 1.11496e-20)
(1.01 -0.000584013 0)
(1.01529 -0.00951823 -8.15576e-24)
(1.04078 -0.0472504 -4.24176e-21)
(1.00452 3.23216e-05 -2.80027e-24)
(1.00461 -8.79239e-05 0)
(1.00352 -4.25067e-05 0)
(1.04301 -0.0427837 -6.84461e-21)
(1.0484 -0.0186419 -7.45476e-21)
(0.00276284 -0.0426323 4.62603e-20)
(1.0159 -0.0108122 -4.37833e-24)
(1.02234 -0.0182537 7.68289e-22)
(0.97953 0.0364118 -3.80078e-21)
(1.03925 -0.0252028 -7.7116e-21)
(1.04081 -0.0458993 0)
(0.866003 -0.0582185 -2.54323e-21)
(1.0054 -8.5635e-05 2.63958e-23)
(1.08482 -0.0563022 0)
(1.09507 -0.0569632 2.62021e-20)
(1.01914 -0.0645054 0)
(1.04885 -0.0497502 -2.33373e-21)
(0.860631 -0.0238219 0)
(1.01545 -0.00649973 1.22197e-21)
(1.0102 0.000265823 -2.68454e-24)
(0.0205326 0.0971297 -3.49359e-20)
(0.944857 0.0484588 -1.92389e-21)
(0.929682 0.0218169 -3.99927e-21)
(0.193663 -0.106604 3.97921e-20)
(0.898295 0.0765305 -1.26718e-21)
(0.956249 -0.173248 0)
(1.04925 -0.0192311 -3.92151e-21)
(1.02195 0.0330517 -3.52386e-22)
(1.06807 -0.0530686 0)
(1.06908 -0.0667477 -1.35204e-20)
(-0.0253785 -0.00490364 0)
(1.01902 -0.000528266 -2.54498e-21)
(1.01172 -0.000714819 0)
(1.01044 0.000285924 5.25152e-23)
(1.00615 1.03755e-05 0)
(-0.0369921 -0.0291015 3.38178e-21)
(1.02233 -0.0176919 0)
(1.03098 -0.00478976 0)
(1.01643 -0.0612604 0)
(0.463244 -0.13639 0)
(1.03813 -0.00722413 -1.81818e-21)
(1.05465 -0.0610952 0)
(0.937789 -0.0344225 0)
(1.01374 -0.0114072 3.0092e-22)
(1.09606 -0.0573052 1.64142e-20)
(0.896891 0.107172 -1.98337e-21)
(1.05871 -0.0341354 0)
(1.01955 -0.0144084 0)
(0.341762 -0.0035769 -6.52635e-22)
(1.04099 -0.0575436 -1.55856e-20)
(0.547983 -0.108579 0)
(1.019 -0.000559288 -6.78271e-21)
(1.01239 -0.00114957 3.68147e-21)
(1.01202 -0.000705218 -1.67562e-22)
(1.0417 -0.0472309 6.28394e-21)
(0.467458 -0.0104665 -3.85882e-20)
(1.05378 -0.0444478 -1.59002e-20)
(0.326912 -0.00682372 0)
(1.03356 -0.00869287 4.17899e-21)
(0.89619 -0.0245571 -7.52538e-22)
(1.02103 -0.00455826 0)
(0.162426 -0.00679208 4.48431e-20)
(1.03753 -0.00246089 1.29223e-21)
(0.583656 -0.00356786 9.88867e-21)
(1.00396 0.0191126 5.00833e-21)
(0.899646 -0.149254 -1.02699e-22)
(1.04525 -0.0240603 -5.3831e-21)
(1.01518 0.000346266 2.95207e-22)
(1.08432 -0.056353 2.08123e-20)
(1.01982 -0.017288 0)
(0.900896 0.123892 2.26331e-21)
(1.04882 -0.0282652 9.02971e-21)
(1.04578 -0.0233283 0)
(1.00434 -1.15984e-05 4.44298e-23)
(1.05366 -0.0579163 -1.12127e-20)
(0.666263 -0.0918508 -1.10929e-20)
(1.02089 0.0383709 0)
(1.00347 1.32347e-05 -9.19597e-23)
(-0.0215063 -0.108635 -7.57461e-21)
(1.06021 -0.04552 -1.17706e-20)
(1.0183 -0.0112283 0)
(1.05508 -0.011814 0)
(1.00466 3.9455e-05 8.46649e-24)
(1.02203 0.0260668 9.52096e-22)
(1.06302 -0.0478021 -1.22937e-20)
(1.00941 0.000222835 -5.5875e-23)
(0.938717 -0.0559658 0)
(0.977045 0.0148733 -4.11091e-22)
(1.00351 -1.94909e-05 8.99745e-23)
(1.0156 0.000402255 -1.46613e-22)
(1.01891 -0.0153427 6.43631e-22)
(1.00098 4.35846e-05 5.49092e-24)
(1.00434 -3.29846e-05 -8.73362e-23)
(0.782627 -0.174522 0)
(0.694949 -0.0944958 -7.86304e-21)
(1.00881 0.000143959 3.02225e-23)
(1.00592 -0.000243446 0)
(1.01005 -0.000525537 -1.06508e-21)
(0.00892734 0.108269 6.79353e-20)
(1.05402 -0.0121782 -3.79244e-21)
(0.975531 -0.0981741 0)
(0.875234 -0.17233 2.57051e-21)
(0.980577 -0.164038 -2.96609e-21)
(1.01976 -0.000238118 -3.79141e-22)
(0.967403 -0.150402 1.41719e-21)
(1.05677 -0.0451232 0)
(1.01512 -0.00883175 0)
(1.04448 -0.0697894 0)
(1.01533 -0.00629453 2.3435e-21)
(1.00904 -0.00097974 -1.67324e-22)
(0.362465 -0.0080661 -1.03373e-20)
(1.02103 -0.00428386 -1.52061e-21)
(0.79263 -0.151829 0)
(1.00875 -0.000474616 4.90577e-22)
(1.00877 0.000123383 -2.20799e-22)
(1.04962 -0.0571242 3.58338e-20)
(0.0337615 -0.063856 2.14601e-21)
(0.341998 0.126357 0)
(-0.0526843 -0.112712 9.06819e-21)
(1.01137 -0.000675148 1.8536e-21)
(1.01743 -0.00200809 3.04264e-22)
(1.01313 0.000464058 1.98214e-22)
(1.03196 -0.0194419 -2.27896e-21)
(0.939237 0.0807557 3.67899e-21)
(1.01382 0.000275723 7.70252e-24)
(1.04174 -0.069271 0)
(1.02963 -0.00224727 6.38859e-21)
(0.931956 -0.0167138 -5.86141e-21)
(1.08105 -0.0480049 0)
(1.01043 -0.000646923 0)
(0.113943 -0.0651007 2.65088e-20)
(1.00612 -1.04174e-05 0)
(1.03923 -0.0161951 -9.02181e-21)
(1.03126 -0.0191734 0)
(1.01183 -0.00271101 -1.25722e-22)
(1.02405 -0.0171885 -6.41188e-21)
(1.0678 -0.067895 0)
(1.0668 -0.0527937 -1.84158e-21)
(1.01283 0.000462233 -1.81264e-23)
(1.05543 -0.025883 -6.94552e-21)
(-0.0369191 -0.0257944 0)
(1.00893 -0.000916899 3.64139e-22)
(1.021 -0.0247116 -2.21133e-21)
(1.01169 0.000372316 0)
(1.01278 -0.00118524 -4.85448e-23)
(1.05992 -0.0344491 0)
(1.01522 -0.00866282 0)
(0.560942 -0.12327 0)
(0.450933 -0.00777626 4.6493e-20)
(1.00808 -0.000104543 0)
(1.01194 -0.0028468 4.46903e-22)
(0.313894 0.117034 0)
(1.00877 -0.000839124 -1.73748e-22)
(0.95555 -0.154841 -5.39892e-21)
(1.05581 -0.0444773 7.89625e-21)
(1.01733 -0.000449337 5.35469e-23)
(1.0593 -0.0961197 -1.55761e-20)
(1.01007 0.00027781 3.00889e-23)
(1.03896 -0.0267834 0)
(1.02163 -0.0566695 2.1367e-23)
(1.02095 -0.00367392 1.02714e-20)
(1.04017 -0.0482229 2.78948e-21)
(1.00844 9.70737e-05 -4.03949e-24)
(1.00459 -1.55242e-05 1.94395e-22)
(1.01419 -0.0121906 5.5289e-22)
(1.01183 -0.000780364 3.13566e-21)
(1.04849 -0.0593546 -9.66182e-21)
(1.02577 -0.0691506 -2.45569e-21)
(0.899597 0.103487 -1.6998e-21)
(-0.0331255 -0.00855342 1.03453e-20)
(1.01665 0.00033747 -3.54047e-22)
(1.055 -0.0352864 3.49431e-21)
(0.491042 -0.127103 -3.96202e-22)
(1.03774 -0.015798 3.72891e-22)
(1.01669 -0.00178646 2.83074e-22)
(0.880372 0.12128 1.37481e-21)
(1.01709 -0.000726378 1.66269e-22)
(1.01213 -0.00075495 2.55028e-22)
(1.02003 0.000262972 3.7307e-22)
(0.372385 -0.204408 2.35718e-20)
(1.00345 -0.000110596 -1.28041e-21)
(1.01764 -0.00518927 4.7802e-21)
(1.03334 -0.0575079 0)
(1.02136 -0.00387251 1.73547e-21)
(0.276821 0.0229021 1.68995e-20)
(1.04108 -0.024265 -1.73694e-20)
(0.485753 -0.0204391 -2.72372e-20)
(1.01123 0.000346815 -2.91637e-23)
(0.738671 -0.0496815 -1.08558e-20)
(1.01818 -0.0108856 0)
(0.891058 0.14751 0)
(1.00966 0.000239177 3.57054e-23)
(1.0127 0.00045763 0)
(1.01396 -0.0525725 4.23929e-22)
(1.02861 0.00088869 3.61421e-21)
(0.0951565 -0.0855877 0)
(1.0195 -0.00130249 3.02109e-21)
(0.501055 -0.022831 1.35114e-20)
(1.04097 -0.0248906 1.09116e-20)
(1.03437 -0.00901645 4.92617e-21)
(0.76972 -0.0662914 -2.29451e-20)
(1.05892 -0.0697611 -1.0139e-20)
(0.642263 -0.0407466 2.80957e-21)
(1.0035 2.8102e-06 0)
(1.04976 -0.0314285 8.4865e-21)
(1.00375 1.5778e-05 8.35627e-24)
(-0.0688155 0.0203059 -6.12628e-21)
(1.0099 0.000256701 -1.74771e-23)
(1.04233 -0.0423249 5.31384e-21)
(0.953329 0.0470146 0)
(1.00795 -9.30118e-05 1.79249e-22)
(1.01617 0.000248406 0)
(1.06919 -0.0495446 0)
(1.00741 -0.0118073 1.11033e-21)
(0.331777 0.0185247 -1.82275e-22)
(0.929907 -0.0410712 0)
(1.01313 0.00047979 -1.68245e-22)
(1.01794 -0.00531408 -2.68718e-21)
(0.992477 0.0424032 0)
(1.028 0.037219 -4.22875e-21)
(1.01542 0.000597651 2.27609e-23)
(1.03492 -0.0595226 0)
(1.00586 4.83435e-05 0)
(0.587223 -0.0350933 -1.41139e-20)
(1.05933 -0.0463903 0)
(0.879619 0.0469083 -3.18075e-21)
(1.03016 -0.0195252 -4.03423e-21)
(1.03253 -0.0264421 1.29855e-20)
(1.00997 0.00305364 7.08307e-22)
(1.02476 0.0327256 4.48752e-21)
(1.02853 -0.012211 8.73466e-21)
(1.0309 -0.0198337 4.22162e-21)
(1.06849 -0.0442702 6.7795e-21)
(1.05279 -0.0919629 0)
(1.02181 -0.0669897 1.99754e-21)
(1.03283 -0.0570193 -1.689e-20)
(0.437526 -0.00247046 -3.30546e-20)
(1.02218 -0.00129347 -3.53445e-21)
(1.01273 0.000457187 1.78424e-22)
(1.0199 -0.0145351 -2.03707e-23)
(0.783386 0.00670831 -1.40429e-21)
(1.01504 0.000371713 0)
(1.01125 -0.102667 -9.75549e-21)
(1.03715 -0.0159522 -4.82373e-22)
(1.02855 -0.0117388 -4.11018e-21)
(1.04876 -0.0275516 -8.02812e-21)
(0.807295 -0.069079 2.19153e-20)
(1.02553 -0.0143484 -2.8406e-22)
(1.01104 0.00469039 -7.89618e-22)
(1.03856 -0.0164715 1.5449e-20)
(0.90645 0.0232688 4.6737e-21)
(1.05378 -0.0431097 -1.51607e-20)
(1.03025 -0.0353663 8.28666e-21)
(1.00918 -0.00106344 -3.40684e-22)
(0.898022 -0.00314597 7.25926e-22)
(1.01727 -0.0210703 3.08454e-22)
(0.653473 -0.0432128 1.02512e-20)
(0.993274 -0.0318623 0)
(1.0156 0.000694185 -5.81794e-24)
(1.01085 0.000306382 0)
(1.0049 3.21436e-05 0)
(1.06828 -0.0432691 -6.80613e-21)
(0.767412 0.0271711 2.29251e-21)
(0.906693 -0.0772418 5.85465e-22)
(1.01109 -0.000719475 -2.12353e-22)
(1.0202 -0.000206334 3.24733e-21)
(0.893456 0.0325758 0)
(0.904205 0.0245209 -8.7905e-22)
(1.04099 -0.0723119 0)
(1.0228 -0.017543 0)
(1.03119 -0.0052244 -4.6425e-21)
(1.0576 -0.0370523 0)
(0.902895 -0.00186598 0)
(1.02745 -0.101672 6.16444e-21)
(1.02347 -0.0252721 2.9764e-21)
(0.595191 -0.013741 1.24632e-20)
(1.00943 -0.00119934 0)
(0.608285 -0.0373738 -3.3734e-21)
(1.05524 -0.0252084 -1.23603e-20)
(1.03779 -0.0240973 -7.87557e-21)
(0.667184 -0.0451397 -2.16211e-20)
(1.01954 -0.00987228 1.42799e-21)
(1.01535 0.0281069 0)
(0.679337 -0.04657 0)
(1.01083 -0.000702955 2.12572e-23)
(1.06504 -0.0402894 -2.38491e-20)
(1.04794 -0.0287911 0)
(1.0227 -0.0170006 0)
(0.0553149 -0.0790343 -1.90276e-21)
(1.02289 -0.0255704 0)
(1.02698 -0.011998 3.50677e-21)
(0.741463 -0.0729167 5.88703e-20)
(1.0106 0.000295588 0)
(1.0331 -0.0271749 -1.05709e-20)
(1.02154 0.0013548 0)
(0.698752 -0.0460983 0)
(1.08187 -0.0546327 8.86645e-21)
(1.01973 -0.00144137 -3.18239e-21)
(1.06353 -0.045616 -6.19522e-21)
(1.02017 -0.000938463 -3.07481e-21)
(0.486632 -0.011349 0)
(1.00565 0.00280354 -2.68775e-21)
(1.00474 1.20326e-06 0)
(1.01304 -0.00318869 -1.83778e-24)
(1.08116 -0.0546423 0)
(1.04954 -0.030281 -8.68697e-21)
(1.04008 -0.0151718 4.84853e-21)
(1.02006 -0.000104371 0)
(1.0196 -0.00977434 -2.59186e-21)
(1.02643 -0.0118248 -6.28458e-21)
(0.970467 0.00165145 4.74977e-21)
(0.232836 -0.0681743 2.71262e-20)
(0.54609 -0.147839 0)
(1.02252 -0.0138488 -1.71091e-21)
(0.710172 -0.0475231 -1.83728e-20)
(0.750851 -0.0744175 3.54537e-21)
(1.01926 -0.000561909 5.16785e-21)
(1.05439 -0.0361519 1.40522e-20)
(1.03799 -0.0720234 1.41023e-21)
(1.02657 -0.0176813 4.6251e-22)
(1.00055 -0.00139321 5.0493e-21)
(1.07043 -0.0629796 0)
(1.05211 -0.0968891 1.54116e-20)
(1.01346 -0.00634135 6.30445e-22)
(0.768047 0.053335 -7.5094e-23)
(0.650076 -0.0415543 0)
(1.01934 -0.000461756 2.43472e-21)
(1.01742 0.023934 -1.03852e-23)
(1.02146 0.0262666 2.20748e-22)
(1.01458 -0.018024 -1.87501e-21)
(1.04054 -0.0148235 -4.95159e-21)
(0.9975 0.00113353 -1.08664e-20)
(-0.0740124 0.0118947 0)
(1.01214 -0.00297312 7.33994e-22)
(0.800309 0.104335 -2.69466e-21)
(1.01298 -0.00310093 4.91855e-25)
(1.02004 -0.000867084 -2.86895e-21)
(1.00653 5.44176e-05 0)
(1.00959 0.000234605 3.30199e-23)
(1.01136 -0.00250507 6.23176e-22)
(0.684406 -0.0448762 2.47235e-20)
(0.906427 0.120813 0)
(1.01976 -0.0070444 -1.62147e-21)
(1.06474 -0.0390146 0)
(1.01143 0.000358127 0)
(0.558037 -0.0121737 -7.10336e-21)
(1.02565 -0.0405526 3.95837e-21)
(0.825982 -0.0407397 -9.70931e-22)
(0.566664 -0.129563 1.33868e-21)
(1.01972 -0.0072717 1.72738e-21)
(1.02815 0.00400721 -3.12568e-21)
(1.04608 -0.0294544 1.83951e-20)
(0.854331 -0.0760528 -9.58765e-21)
(1.01462 -0.00558816 -5.18901e-22)
(1.00885 0.000149823 0)
(1.00888 -0.00724578 8.86436e-22)
(0.0499345 -0.0933272 2.7225e-20)
(1.0121 -0.000958107 -3.46583e-21)
(0.0902471 -0.0654451 0)
(1.02388 -0.0195467 -3.66367e-22)
(1.07126 -0.0639956 0)
(0.534954 -0.127588 0)
(1.01325 0.0522788 8.72387e-22)
(1.00704 0.0513554 -8.52652e-22)
(1.01799 0.00496315 0)
(1.00947 -0.00127651 3.14729e-22)
(1.01847 -0.000318897 -2.86038e-21)
(1.02176 -0.0143345 0)
(1.06458 -0.0450989 0)
(0.173348 -0.0256219 0)
(1.06167 -0.0338494 1.48236e-20)
(0.682572 -0.0437484 -2.50622e-21)
(0.673095 -0.0456532 0)
(1.0114 0.000358019 1.90816e-22)
(1.02259 -0.00132068 -4.55153e-21)
(0.543076 -0.146915 0)
(0.357312 -0.00698854 0)
(0.972878 0.053538 0)
(0.717973 -0.089102 -4.44521e-21)
(1.00726 -0.00757607 0)
(1.04655 -0.0304158 4.13647e-21)
(1.00352 -2.16429e-05 0)
(0.81459 -0.072606 2.16707e-21)
(1.00915 -0.000268319 -9.61565e-23)
(1.03237 -0.0357546 -3.58393e-21)
(1.01796 0.00398515 -1.32455e-21)
(1.02796 -0.00350139 6.82622e-23)
(1.00412 6.70872e-06 -8.24153e-24)
(1.01072 -0.000644901 0)
(1.01168 0.000373068 1.9634e-22)
(1.05625 -0.0603844 0)
(0.998207 -0.0149282 1.66133e-21)
(0.531032 -0.0195924 -4.43221e-20)
(1.02031 -0.0138852 -2.88847e-23)
(1.06389 -0.0469766 2.04317e-20)
(1.0027 -0.00805394 2.546e-21)
(1.03346 0.000574967 0)
(1.03113 -0.0279013 2.36118e-21)
(0.998585 -0.0124164 4.10173e-22)
(1.03731 -0.0233367 3.82304e-21)
(1.00809 -0.0626655 -4.15452e-22)
(1.00877 0.000120135 9.07631e-23)
(1.01049 -0.000633715 0)
(1.00368 -3.02643e-05 -2.25821e-22)
(1.01307 -0.0584823 0)
(0.882073 0.0838798 -2.90715e-21)
(1.05456 -0.069383 6.31858e-23)
(1.00415 -0.00998057 -1.98815e-21)
(0.503271 -0.0181768 7.18011e-20)
(0.871399 -0.0810839 2.62692e-21)
(1.00958 0.0197362 0)
(1.00934 -0.000546032 0)
(1.07042 -0.0496011 -2.17989e-20)
(1.01447 -0.00536796 -1.65896e-21)
(1.02516 -0.0148547 0)
(1.00487 2.5573e-05 3.3889e-23)
(0.931921 0.00132585 1.92651e-21)
(0.951456 -0.0686901 0)
(1.04148 -0.0450862 0)
(0.481796 -0.0184995 0)
(1.01774 -0.00105485 -3.49156e-22)
(1.00423 -0.0118779 2.87677e-22)
(0.931732 -0.0458336 -6.20795e-21)
(0.146239 -0.067204 2.80982e-20)
(1.00874 9.77466e-05 5.61577e-24)
(1.04718 -0.0323181 8.56768e-21)
(1.05474 -0.0450934 8.61471e-21)
(1.02321 -0.0186567 2.54839e-22)
(1.00852 -0.000223272 -2.0027e-23)
(1.0258 -0.0120413 -5.84845e-23)
(1.08077 -0.0469716 -2.56129e-20)
(1.06916 -0.0656596 0)
(1.02076 -0.0115847 1.1168e-22)
(0.355019 0.0515161 0)
(1.00418 2.42339e-05 0)
(1.01327 -0.00333308 0)
(0.00664485 0.0920763 0)
(1.0199 -0.024511 2.52062e-21)
(1.01056 0.000285565 0)
(0.823149 -0.151099 0)
(1.00937 -0.00121075 0)
(1.0152 -0.0104284 -1.55422e-22)
(1.00897 -0.000394461 0)
(1.00996 -0.0319321 -4.74178e-22)
(1.02325 -0.0156459 -1.04691e-21)
(1.01094 0.000326514 0)
(1.01745 -0.00131267 -1.16253e-23)
(0.767546 -0.0789973 -3.1328e-20)
(1.02139 -0.00487648 0)
(1.06153 -0.0361189 -1.74211e-20)
(1.00899 -0.000542388 1.58262e-22)
(1.02126 0.00128968 1.3054e-21)
(1.00592 -0.0413231 5.5447e-22)
(1.00068 4.48883e-06 -5.55707e-23)
(1.01415 -0.00543523 0)
(1.00187 5.42848e-05 -5.9488e-24)
(1.00174 -1.75363e-05 2.90964e-23)
(0.965048 -0.0763553 6.30449e-21)
(1.0292 -0.0112782 0)
(0.999216 0.023773 -1.15144e-21)
(1.02093 -0.00338075 -6.93917e-21)
(1.00444 1.78535e-05 1.31178e-23)
(-0.06303 -0.136502 0)
(0.466999 -0.0163254 7.12815e-21)
(1.02217 -0.00402465 2.06672e-21)
(1.02315 0.00186777 -1.7554e-21)
(1.03203 -0.0284164 0)
(1.01112 0.065757 0)
(0.13563 -0.020228 0)
(1.01333 -0.00344356 0)
(0.916128 0.13215 0)
(1.01491 -0.00582147 0)
(1.04723 -0.0549824 -9.56247e-21)
(1.02901 -0.00461304 -1.77541e-21)
(-0.100359 0.0326277 2.39492e-20)
(1.00848 8.33516e-05 -7.76232e-24)
(-0.0229186 0.00796065 0)
(1.01397 -0.0668478 0)
(1.01026 0.000269109 5.62303e-23)
(1.0246 -0.000256065 -1.95924e-23)
(0.604306 -0.0904986 2.51792e-20)
(1.04181 -0.0426821 -7.1725e-21)
(0.893853 -0.00516464 0)
(1.0071 -0.00029827 0)
(0.845606 -0.120009 -2.63691e-22)
(1.01093 -0.000593077 2.66054e-22)
(1.00847 -0.000629653 2.1188e-22)
(1.00938 -0.00112526 2.77485e-22)
(1.02819 -0.00203927 6.2536e-23)
(0.381651 -0.0116389 1.74884e-20)
(1.06508 -0.0509582 -1.8335e-21)
(1.07611 -0.0612814 2.32457e-20)
(1.08037 -0.0868434 4.43153e-22)
(1.03188 -0.00219679 -1.82435e-21)
(1.01314 0.000472406 6.87241e-24)
(0.861403 -0.112234 -5.88394e-21)
(0.896291 0.0772535 2.83022e-21)
(1.03997 -0.0269844 0)
(1.05471 -0.0265367 -1.12728e-20)
(1.0163 0.0594868 0)
(0.872697 -0.16275 7.55578e-21)
(0.782683 -0.0520877 0)
(1.01739 -0.000337946 -1.54908e-22)
(-0.108483 0.0217055 0)
(0.234325 -0.0824779 0)
(0.289425 -0.202226 -2.99874e-20)
(1.02177 -0.0256885 0)
(1.0265 -0.000266775 1.32413e-21)
(0.877355 -0.178953 0)
(1.0066 -0.0176519 0)
(1.03646 -0.0914605 -2.0426e-22)
(0.876809 0.12326 1.87079e-21)
(0.811205 0.0221516 -6.84255e-23)
(1.02363 -0.0173531 6.3911e-21)
(0.776787 0.0255121 1.80311e-22)
(1.01026 -0.0593464 -1.52195e-20)
(1.00868 0.00010147 -6.25382e-24)
(1.01306 -0.0169911 0)
(1.06639 -0.051301 1.91511e-21)
(0.441675 -0.0104944 5.29595e-21)
(1.02969 -0.0200383 -9.98953e-21)
(1.01758 -0.00365521 -7.20655e-21)
(1.01163 -0.00260547 5.29551e-22)
(1.01639 -0.00614538 -1.07187e-21)
(1.05037 -0.0589969 6.68027e-22)
(1.00803 -0.019608 -5.95359e-22)
(0.930574 -0.144694 -1.77864e-21)
(0.370164 0.030766 0)
(1.00818 -0.000297711 -8.0606e-23)
(0.0130306 0.0944351 -1.57957e-21)
(0.513156 -0.0208642 0)
(1.03283 0.0482281 -1.45005e-21)
(0.903125 0.0301884 3.44978e-21)
(1.06036 -0.0357825 0)
(1.01002 0.000243008 -9.03552e-24)
(1.01039 -0.00058797 3.80714e-23)
(0.997946 -0.00882573 1.75691e-22)
(0.831034 -0.111387 0)
(1.04006 -0.0166554 0)
(1.07972 -0.0518582 1.51099e-20)
(1.08354 -0.0576671 -3.18708e-20)
(1.01039 0.000284407 0)
(0.996943 -0.00679204 -6.15712e-22)
(0.883676 -0.146094 0)
(1.02718 -0.0234218 -9.91461e-24)
(1.06607 -0.06447 0)
(0.391982 -0.0129839 4.48535e-21)
(1.00914 -0.0584456 1.75734e-20)
(1.01505 -0.00604082 -7.29328e-23)
(1.02837 -0.00324821 -3.25987e-21)
(0.561285 -0.160398 5.15167e-22)
(0.661391 -0.0450607 0)
(1.08008 -0.0566447 1.92008e-20)
(1.06258 -0.0331092 0)
(1.04439 -0.0100926 2.00356e-21)
(1.00986 0.00025799 -6.14121e-23)
(1.01438 -0.00375246 1.48755e-21)
(0.89617 0.0070473 6.97368e-22)
(1.01007 0.000266591 0)
(1.02898 -0.0196765 1.95927e-21)
(1.01 0.000270318 9.89741e-23)
(1.00942 -0.00104154 0)
(0.991845 -0.0602706 3.7514e-20)
(1.05328 -0.0598467 0)
(1.00662 -0.00894603 1.54407e-21)
(1.01004 0.000264552 0)
(0.139133 -0.0734025 0)
(0.891007 0.137835 -2.5421e-21)
(1.00959 -0.00133737 -4.82667e-22)
(1.00659 1.56581e-05 0)
(1.01519 0.000445869 0)
(1.01895 -0.00040854 -5.10558e-21)
(0.0382396 -0.0887887 -6.19359e-22)
(0.878489 0.0886191 -2.87316e-21)
(0.891668 0.122993 2.61244e-21)
(0.223282 -0.210136 0)
(0.846156 -0.104105 -2.92032e-21)
(1.06202 -0.0313837 1.65025e-20)
(0.421408 -0.00700687 -5.84656e-21)
(0.463219 -0.0168381 1.73229e-20)
(1.01365 -0.0072038 -8.40338e-22)
(1.05797 -0.0349647 0)
(1.01012 0.000249204 1.42915e-23)
(1.02148 0.000493377 0)
(1.03532 -0.0376741 0)
(0.818389 -0.0889864 3.08664e-20)
(0.756175 0.051965 1.78849e-21)
(1.07886 -0.0517563 -1.40025e-20)
(1.04257 -0.0313664 6.61966e-21)
(1.00967 -0.000518907 0)
(1.02804 -0.0354092 -3.49592e-22)
(1.01528 -0.00208752 0)
(0.890307 -0.0332481 -8.43092e-22)
(1.06348 -0.0542554 1.6918e-20)
(1.02056 -0.00317527 -9.95379e-21)
(1.02238 -0.013025 5.5838e-22)
(1.00842 -0.000235449 -7.045e-23)
(1.05004 -0.0264712 1.52101e-20)
(1.05258 -0.0704999 0)
(1.03023 -0.00462914 0)
(1.0142 -0.00516669 0)
(1.02725 -0.0412676 -1.12803e-21)
(1.0277 -0.00746976 5.99866e-21)
(1.05101 -0.0571372 1.01158e-20)
(1.01571 -0.0534444 0)
(1.05955 -0.0681961 0)
(1.02549 -0.035316 -3.11797e-21)
(1.08072 -0.056543 -1.89128e-20)
(1.00947 -0.000503689 -5.46041e-23)
(1.00155 0.0438199 -4.80842e-21)
(1.00817 0.00252088 -3.21221e-23)
(0.13878 -0.195053 0)
(1.0184 -0.0108724 0)
(1.00434 -3.83502e-05 -2.37556e-22)
(0.966482 -0.0554453 0)
(1.02041 -0.0148738 9.12685e-22)
(0.521266 -0.114753 2.50961e-20)
(0.61767 -0.0379999 -2.74159e-20)
(-0.0344395 -0.0177675 0)
(0.792103 -0.15691 -1.80876e-21)
(1.00902 -0.000284903 0)
(1.01846 -0.0569793 -1.76992e-20)
(1.01596 0.000727006 4.18517e-23)
(1.00937 -0.00113306 -7.36512e-22)
(1.00842 8.59742e-05 -4.07618e-23)
(1.00948 -0.00115215 -2.20559e-22)
(1.01647 0.00131221 -1.79688e-23)
(1.02095 -0.0137392 0)
(1.01138 -0.0301172 0)
(1.00976 0.000249336 4.11627e-23)
(0.700691 -0.0350057 0)
(1.01763 -0.0698188 0)
(0.663146 -0.0408244 -4.50897e-21)
(1.01116 -0.00214836 -5.36325e-22)
(1.00809 8.24777e-05 -5.39281e-23)
(1.00593 4.27599e-05 2.01632e-22)
(1.03651 -0.0683658 0)
(0.485921 -0.109027 7.92664e-22)
(1.07333 -0.0431678 -2.31669e-21)
(1.04984 -0.0270401 3.86522e-21)
(1.01613 0.000621651 -4.07494e-23)
(1.00419 3.62736e-06 -1.80083e-22)
(1.00714 -0.000189217 1.14866e-22)
(1.01217 -0.00276998 -3.50639e-22)
(1.08205 -0.0667122 -3.4484e-20)
(0.247429 0.163734 -8.01244e-23)
(1.02721 -0.00720177 -1.99509e-21)
(1.00974 0.000247052 -3.88914e-23)
(1.02852 -0.0017171 -3.38575e-21)
(1.01211 -0.00280705 3.24369e-22)
(1.03048 -0.0147587 0)
(-0.0335638 -0.0216523 -3.84773e-20)
(1.02915 -0.0361657 -3.31639e-22)
(0.63681 -0.103557 0)
(0.858615 -0.136906 2.27338e-21)
(1.01405 -0.00494977 0)
(1.07497 -0.0614399 -1.37261e-20)
(0.121169 -0.078772 -4.28057e-20)
(1.05838 -0.0362271 0)
(0.501301 0.0336613 5.92749e-22)
(1.03293 -0.00892306 -4.20493e-21)
(1.01977 -0.0146358 6.07597e-23)
(1.07235 -0.0428773 -8.35671e-21)
(1.02018 -0.0142774 2.88455e-23)
(0.886033 0.148179 -3.86291e-21)
(1.02175 -0.00380906 -1.83799e-21)
(0.879563 -0.180247 0)
(1.00467 1.0212e-05 -6.79477e-23)
(1.06856 -0.0248932 0)
(0.50416 -0.0223431 3.1329e-20)
(1.01272 -0.000475249 -4.10843e-22)
(1.01973 -0.013434 0)
(1.04334 -0.0154675 0)
(1.00863 -0.00068718 -2.21726e-22)
(1.03859 -0.025885 4.4588e-21)
(0.842081 0.029521 4.44689e-22)
(0.284309 0.0901649 1.64637e-21)
(1.06215 -0.0538052 -1.63314e-20)
(1.02582 -0.0994085 1.10435e-21)
(1.00823 0.0631865 5.54986e-23)
(1.00971 0.00024755 -4.8479e-23)
(1.01096 -0.00205516 8.08001e-22)
(-0.0951749 -0.146176 0)
(1.08324 -0.0573351 3.25265e-20)
(1.0041 -0.0115295 8.91805e-23)
(0.638566 -0.0404823 2.60386e-20)
(1.01049 -0.000136548 2.55542e-22)
(1.01583 -4.73035e-05 -2.85673e-21)
(1.00869 0.000100625 8.45593e-23)
(0.839061 -0.0655052 0)
(1.08968 -0.0594412 0)
(1.0242 -0.0231731 0)
(1.01588 -0.00835173 0)
(1.013 -0.0463042 -1.28931e-22)
(1.04617 -0.0203334 1.58655e-22)
(1.00619 5.11884e-05 -2.2716e-22)
(0.0525068 0.0768864 -6.003e-20)
(1.06632 -0.102386 7.62758e-23)
(0.583159 -0.0364724 -2.02126e-22)
(1.01056 0.000293856 1.21601e-22)
(1.02727 -0.00678461 0)
(0.439154 -0.00886833 -2.33701e-20)
(-0.00483757 -0.045938 1.24021e-20)
(1.083 -0.056012 -1.12513e-20)
(1.01502 -0.00169267 0)
(0.907431 -0.0554652 3.73046e-20)
(1.02143 -0.00424897 1.53716e-21)
(1.0161 -0.0550268 -5.60292e-22)
(1.0318 -0.0411459 0)
(1.04125 -0.0449524 0)
(1.03282 -0.0248334 5.63694e-21)
(0.0244317 -0.0296891 0)
(1.01556 0.00577771 1.64609e-21)
(1.0138 0.000231518 7.59937e-22)
(1.092 -0.0570065 -2.54728e-20)
(1.00451 -2.78413e-05 2.89594e-22)
(1.00207 -4.81985e-05 1.00014e-21)
(1.02339 -0.0161815 6.04573e-21)
(1.00939 -0.000466749 5.94245e-23)
(0.0513404 0.0787716 2.41886e-20)
(1.03761 -0.0352452 5.74343e-21)
(1.06789 -0.0647553 0)
(1.00765 -0.0103976 -1.00296e-21)
(1.01766 -0.0277022 1.14349e-22)
(1.00977 -0.000565629 9.55778e-23)
(0.825442 0.0150302 -1.14947e-21)
(1.00591 -0.000167855 -3.28052e-22)
(1.01692 0.00623444 -6.83657e-22)
(1.00799 6.83608e-05 -1.11565e-22)
(1.01365 -0.00456558 2.17418e-21)
(1.01059 -0.0007212 1.4486e-21)
(0.66413 -0.0455248 0)
(1.01155 -0.00262061 -5.27492e-22)
(1.00909 0.000182292 9.5598e-24)
(0.995223 -0.0990101 3.52759e-22)
(1.0291 -0.00337467 -6.90357e-21)
(0.460663 -0.0126399 2.15054e-20)
(1.00398 5.85646e-06 1.24474e-22)
(1.01637 -0.00223812 6.52968e-22)
(1.07312 -0.0501457 0)
(1.00753 -0.013907 0)
(0.896344 0.0742553 4.45981e-22)
(1.00774 -0.000228636 -7.8288e-23)
(0.940755 0.0268577 0)
(0.654175 -0.109521 -1.48745e-20)
(1.02916 -0.0117411 -6.47404e-23)
(0.765054 -0.0549627 2.01796e-20)
(1.06744 -0.0247316 -1.57941e-22)
(1.00914 -0.000414268 0)
(1.00617 0.00691129 -7.18689e-22)
(0.0303379 0.089189 0)
(0.956248 0.0289775 1.71403e-21)
(1.02999 -0.0263552 -2.28347e-21)
(1.00802 -0.000266217 1.01596e-22)
(1.00946 0.000228919 0)
(0.927021 0.0100272 3.17679e-21)
(1.04134 -0.043917 0)
(1.00373 -0.0464813 -9.06488e-23)
(1.02325 -0.0244848 -2.18855e-21)
(1.00732 0.010008 7.7123e-22)
(1.01833 -0.000351449 0)
(1.01589 -0.00212317 0)
(1.08211 -0.0504401 2.27865e-20)
(0.906566 0.142845 0)
(1.04741 -0.0578624 9.95668e-21)
(0.74905 0.0141829 -1.81945e-21)
(1.02677 -0.00651061 0)
(1.04818 -0.0561973 9.89974e-21)
(1.07027 -0.0552915 0)
(0.721426 -0.0483387 0)
(1.02354 -0.0224296 0)
(0.182042 0.0876164 0)
(1.07806 -0.0870851 2.30163e-20)
(1.02956 -0.00306875 -3.11557e-21)
(0.36543 -0.0853434 4.42488e-20)
(1.00814 0.0335891 0)
(0.610807 -0.130427 0)
(0.303399 0.086905 0)
(0.688957 -0.063495 0)
(0.995959 0.0778285 -7.43879e-22)
(1.03572 -0.0412186 -8.01166e-21)
(1.00921 -0.000447067 0)
(1.02157 -0.0148763 0)
(-0.0477144 -0.0274244 -2.6781e-20)
(0.232754 -0.0296159 2.62151e-20)
(1.01271 -0.00252505 -5.19069e-23)
(1.00368 4.40087e-07 0)
(1.0685 -0.0506041 3.90363e-21)
(0.939749 -0.00921605 4.24201e-24)
(1.00991 0.000241855 1.69941e-22)
(-0.0201927 -0.026341 0)
(1.01021 -0.000135379 -1.23505e-22)
(1.02074 -0.00674911 -6.80908e-21)
(0.021223 0.0853101 0)
(0.446687 -0.00939791 -2.17782e-20)
(0.99596 0.0724102 -2.78992e-23)
(1.00938 -0.00114743 7.13719e-22)
(1.02006 -0.000675386 4.62334e-23)
(-0.0094384 -0.0421868 -2.76642e-20)
(1.07907 -0.0667942 3.9356e-20)
(1.07971 -0.056068 3.39319e-20)
(1.01528 -0.00554412 5.12356e-22)
(0.577609 -0.135913 0)
(1.02519 -0.0281765 1.15012e-23)
(0.547249 -0.105633 6.89133e-22)
(1.06181 -0.0473298 1.15726e-20)
(1.06357 -0.0387104 -1.03425e-20)
(1.02628 -0.0122014 3.62736e-21)
(1.02885 -0.00414447 1.78291e-21)
(0.57316 -0.0795313 -4.93227e-22)
(1.07629 -0.0398664 -2.46443e-21)
(0.350402 -0.00719054 0)
(1.00525 -0.00526967 -2.67062e-22)
(1.06055 -0.0334411 -1.39397e-20)
(0.0760619 0.0677562 -5.1965e-20)
(0.593836 -0.13417 0)
(0.494218 -0.0163274 0)
(1.02386 -0.00414296 0)
(1.06204 -0.0290576 1.63323e-20)
(1.00948 -0.00126662 4.74365e-22)
(1.02674 -0.0362284 -6.00086e-21)
(1.01946 -0.0131457 0)
(0.377339 0.0816327 1.42921e-21)
(1.0107 -9.3107e-05 -4.0413e-21)
(0.47624 -0.0252718 2.75706e-20)
(1.00971 0.000227184 -2.81911e-22)
(1.07227 -0.0497662 -9.58133e-21)
(1.01436 -0.00451181 -3.89842e-21)
(1.02863 -0.0350864 -1.37531e-21)
(1.06282 -0.0321123 0)
(1.0608 -0.02906 -1.55644e-20)
(0.644117 -0.0950746 0)
(1.06762 -0.0393167 -1.26153e-20)
(1.00718 -0.0318923 1.35627e-21)
(1.00423 -4.8673e-05 -9.21509e-24)
(1.07127 -0.0503247 8.36674e-21)
(0.919933 -0.132926 6.13074e-21)
(1.04017 0.00887038 1.39665e-21)
(1.02781 -0.019729 -3.28065e-21)
(0.436466 -0.00840571 2.60979e-20)
(1.01457 0.000369445 1.22297e-22)
(0.379284 0.0973999 -1.56694e-20)
(0.9336 0.121499 -6.83943e-22)
(1.02393 -0.0101059 4.6086e-21)
(0.709566 -0.0458496 1.747e-20)
(0.026426 -0.100151 -9.48541e-21)
(0.474829 -0.0149813 2.47823e-21)
(1.00754 0.060375 4.06059e-21)
(1.00583 -0.00275029 8.30788e-22)
(1.01266 -0.00288578 0)
(0.574241 -0.0351467 2.00975e-20)
(1.01571 -0.000186879 0)
(0.786623 -0.173799 0)
(0.480016 -0.0205302 0)
(1.01118 -0.00227389 6.55068e-22)
(1.04542 -0.010697 -2.8219e-20)
(1.01662 -0.0632684 0)
(0.894111 0.153813 1.69955e-21)
(0.177144 0.118328 0)
(1.0252 -0.00801676 2.88516e-21)
(1.00703 -3.12489e-05 0)
(0.515018 -0.164877 -4.39103e-22)
(0.493298 -0.0213228 1.4116e-20)
(1.06496 -0.0659579 -5.08435e-21)
(1.02981 -0.025358 2.34467e-21)
(1.01519 -0.00480689 0)
(0.945582 0.120134 1.99969e-21)
(-0.0275785 0.0667534 0)
(1.06992 -0.0563004 -6.33034e-21)
(1.00915 0.000182764 5.10816e-24)
(1.03663 -0.0417225 3.97271e-21)
(1.00864 -0.00073386 -4.47152e-24)
(1.00635 -0.00015702 3.56696e-22)
(1.01961 0.0337576 0)
(1.00327 -1.9742e-06 2.43611e-22)
(0.899286 0.00171057 4.19547e-22)
(1.02357 -0.0511771 0)
(1.0207 -0.00700716 7.20651e-21)
(1.01788 -0.00179967 3.48145e-22)
(1.01282 -0.0029267 0)
(1.0239 -0.0165783 2.18667e-21)
(0.381687 -0.00709321 3.19748e-20)
(0.595444 -0.10191 -2.59017e-20)
(1.04798 -0.0316823 -1.57048e-20)
(0.177942 0.0704124 2.1471e-21)
(1.0144 -0.00440046 3.36479e-21)
(1.04616 -0.0319992 0)
(1.01248 -0.00272078 0)
(1.00873 -0.000788297 1.41338e-22)
(1.02043 -0.0095734 0)
(1.02026 -0.00689936 0)
(0.424397 -0.0117203 2.0092e-20)
(1.02225 -0.00431816 1.11843e-21)
(1.07124 -0.0433424 -2.46206e-20)
(1.02397 -0.00449279 0)
(1.03088 -0.0268421 -2.31231e-21)
(1.01068 0.0393941 0)
(0.0036209 -0.0484139 1.47626e-22)
(1.00661 -0.00027336 -4.91719e-24)
(0.58873 -0.151681 -5.27819e-22)
(1.00344 -0.0497467 -2.27137e-22)
(1.0894 -0.0774206 0)
(1.03842 -0.035723 -6.28659e-21)
(1.04319 -0.0358757 0)
(0.341751 -0.00571841 -1.01933e-20)
(1.05084 -0.0260943 -4.75047e-21)
(1.00816 -0.0148214 -8.5322e-22)
(0.398958 0.066154 -9.61937e-21)
(0.814684 -0.0922059 3.39955e-21)
(-0.0317337 0.0426707 -2.74272e-20)
(1.04578 -0.0408838 0)
(0.952472 -0.0275915 -3.2815e-21)
(1.01824 -0.0104306 2.32128e-21)
(1.06692 -0.0382803 0)
(1.06147 -0.0459991 2.3649e-20)
(0.168536 0.103449 -9.32283e-22)
(1.00713 -0.000157458 -1.0393e-22)
(0.222411 0.112753 -2.13339e-20)
(1.01084 -0.00195665 -1.90898e-22)
(1.01127 -0.00225499 -6.31948e-22)
(0.148774 -0.0148474 0)
(1.01925 0.00119673 1.43487e-22)
(1.04206 -0.099422 -6.82404e-21)
(1.03318 -0.0255144 -1.02162e-20)