/*--------------------------------*- C++ -*----------------------------------*\
| =========                 |                                                 |
| \\      /  F ield         | OpenFOAM: The Open Source CFD Toolbox           |
|  \\    /   O peration     | Version:  v2012                                 |
|   \\  /    A nd           | Website:  www.openfoam.com                      |
|    \\/     M anipulation  |                                                 |
\*---------------------------------------------------------------------------*/
FoamFile
{
    version     2.0;
    format      ascii;
    class       surfaceVectorField;
    location    "300";
    object      ddtCorrDdt0(Uf);
}
// * * * * * * * * * * * * * * * * * * * * * * * * * * * * * * * * * * * * * //

dimensions      [0 1 -2 0 0 0 0];


internalField   nonuniform List<vector> 
20580
(
(-0.034719 0.00514865 6.29797e-18)
(-0.0364385 0.00563335 -4.70152e-18)
(-0.0352203 0.0038004 -1.38968e-17)
(-0.000398869 0.00282239 -5.08731e-18)
(-0.000349367 0.00292596 -8.92007e-18)
(-0.000484983 0.00291193 2.51083e-18)
(-0.000484327 0.00268579 2.1062e-18)
(-0.000343645 0.00269908 9.4221e-18)
(-0.0212982 0.00531265 7.53072e-18)
(-0.0217598 0.00411266 9.67711e-18)
(-0.0231562 0.00555271 1.95184e-17)
(0.000179867 -4.57094e-05 6.92144e-21)
(0.000161365 -4.24846e-05 5.57127e-20)
(0.000166112 -2.52065e-05 -2.94807e-19)
(0.000223346 0.00449619 -1.54426e-18)
(0.000442395 0.00460621 -2.64261e-18)
(0.000400517 0.00434611 4.79176e-18)
(-0.000110963 -0.000282042 5.18034e-18)
(-5.16051e-05 -0.000364481 1.63296e-17)
(0.000288776 5.22723e-05 9.79842e-19)
(0.000310962 4.81043e-05 -2.00906e-18)
(0.000343952 2.7486e-05 -2.12439e-18)
(0.0644467 0.00694579 1.40466e-17)
(0.0636438 0.00636699 -5.20002e-18)
(0.0671307 0.00717015 2.46722e-17)
(0.000427552 -0.00225101 -4.31225e-18)
(0.000390602 -0.00225433 -1.56909e-19)
(0.000418885 -0.00222317 -6.53633e-19)
(0.0104829 0.0141723 1.10284e-17)
(0.0100402 0.0134293 2.49594e-17)
(0.0110061 0.0134896 3.58039e-18)
(0.000371651 -0.000948933 -1.06546e-19)
(0.000396451 -0.000960642 -4.22195e-20)
(0.00039825 -0.000990461 -3.23595e-20)
(0.000969618 -0.00204231 -1.86469e-18)
(0.00101314 -0.00200319 2.98438e-18)
(0.00100436 -0.00200835 2.34731e-18)
(0.0837605 0.0120331 7.70349e-18)
(0.0856749 0.0135645 1.47893e-17)
(0.0837159 0.0128309 3.44908e-17)
(-0.00675094 0.000304514 4.75163e-19)
(-0.00716452 0.000489511 -1.70197e-17)
(-0.00669598 0.000774141 6.26564e-18)
(0.00687736 -0.037967 4.63349e-18)
(0.00835938 -0.0375523 -6.9713e-18)
(0.00789574 -0.0394851 9.77793e-18)
(-0.0552549 0.0085492 -3.20494e-17)
(-0.0544661 0.00988156 -3.57163e-18)
(-0.0565884 0.00953015 1.31004e-17)
(0.000479943 0.0013681 -1.73524e-18)
(0.000450002 0.00137685 4.18134e-18)
(0.000510337 0.00143121 -1.53392e-18)
(-0.0264642 0.030119 -5.11196e-18)
(-0.0262427 0.0314841 -1.32441e-17)
(-0.0277461 0.0309965 -2.20578e-17)
(-0.0341233 0.00699731 8.16584e-18)
(-0.0329215 0.00489951 2.65831e-17)
(-0.00869695 0.00394272 6.93564e-18)
(-0.00814154 0.0041703 -8.13157e-18)
(-0.00819303 0.00346524 -4.18592e-18)
(0.00504622 0.002013 6.30323e-18)
(0.00502583 0.00179492 2.21846e-18)
(0.00484494 0.00193686 -2.89043e-19)
(-0.0514063 0.0394281 3.08058e-17)
(-0.0558805 0.0395024 4.65057e-17)
(-0.0582206 0.0422651 9.53118e-18)
(3.39868e-06 -1.2847e-05 -2.82992e-20)
(5.72071e-06 -1.8229e-05 -1.35398e-20)
(3.3437e-06 -1.07672e-05 -8.43437e-19)
(0.0166621 0.060746 -4.10611e-18)
(0.0205454 0.0573867 -2.27345e-17)
(0.0279482 0.0629293 -6.5036e-18)
(0.00173697 -0.0165761 1.39658e-17)
(0.00231431 -0.0173379 -1.30997e-17)
(0.00123466 -0.0174516 1.12754e-17)
(-0.0277903 -0.0507683 3.10484e-17)
(-0.0230062 -0.0476295 5.41631e-18)
(-0.0268896 -0.0492857 7.45526e-18)
(0.0621214 0.0101579 -6.70302e-18)
(0.0612984 0.0123623 -1.67811e-17)
(0.0846301 0.00889107 -8.74202e-18)
(0.0231652 -0.00862956 2.58686e-18)
(0.0261065 -0.00733915 -1.35278e-17)
(0.0289772 -0.00648378 3.57719e-19)
(0.000454356 0.000793822 -3.4054e-19)
(0.00048612 0.000789577 2.02546e-18)
(0.000461528 0.000761998 -9.02745e-19)
(-0.0275319 0.00748073 -2.59206e-17)
(-0.0280688 0.00723952 -1.35455e-17)
(-0.0272497 0.00717304 -4.40782e-17)
(-0.00018435 -0.000302423 -9.14979e-18)
(-0.000154281 -0.000213672 6.26698e-18)
(-0.0364422 -0.00183321 -2.50878e-18)
(-0.0364563 -0.00400925 4.23092e-18)
(-0.0344481 -0.00235417 4.86042e-17)
(0.0511356 0.0234447 -1.82101e-17)
(0.0508206 0.0240044 2.45942e-18)
(0.0492964 0.024318 -1.29555e-17)
(0.00626491 0.0100995 1.34793e-17)
(0.00582295 0.0104852 2.30673e-18)
(0.00654849 0.010597 -6.88926e-18)
(0.0163669 -0.010281 -2.86557e-19)
(0.0111221 -0.0122215 9.81606e-18)
(0.0132806 -0.0112985 -1.88401e-17)
(1.08893e-06 -7.44517e-06 5.54101e-19)
(3.15467e-06 -1.52151e-05 5.15893e-19)
(0.0342181 0.00605506 4.92977e-17)
(0.0187226 0.0066316 1.85992e-17)
(0.0182588 0.0073774 -1.55475e-17)
(-0.0216725 0.0322299 -2.59151e-17)
(-0.0157878 0.0347178 2.16959e-17)
(-0.00687711 0.034126 4.44352e-17)
(0.00190241 -9.41747e-05 -2.06236e-19)
(0.00187542 -6.54932e-05 -1.3668e-19)
(0.00192659 -3.07679e-05 2.37551e-19)
(0.0357793 0.029075 -7.7988e-18)
(0.0366248 0.0299869 -1.36621e-18)
(0.036891 0.029261 -5.47331e-18)
(0.0203146 -0.0098946 -2.80144e-19)
(0.017305 -0.0108259 2.08579e-18)
(-0.0301337 0.0115729 -2.53218e-17)
(-0.0306955 0.0119545 4.65064e-17)
(0.0187118 -0.0159681 4.31404e-18)
(0.0160941 -0.014833 -7.74196e-18)
(0.0185978 -0.0167944 9.95296e-18)
(0.0225417 -0.00944709 3.52809e-18)
(0.0252918 -0.00835095 -8.82557e-18)
(0.0285049 -0.00717703 3.6913e-18)
(0.00116393 0.000416631 2.11564e-18)
(0.00117193 0.000349148 -1.25531e-18)
(0.00113777 0.000370735 1.3463e-18)
(-0.00027218 5.70578e-05 -8.62945e-19)
(-0.000296629 4.69221e-05 -5.27162e-18)
(-0.00780678 -0.0379073 1.08841e-17)
(-0.00677474 -0.0394516 -4.98496e-18)
(-0.00640249 -0.0373668 3.51492e-18)
(0.00274237 0.00261714 2.04457e-18)
(0.00263576 0.00246827 -5.18529e-19)
(0.0025749 0.00262314 -2.41233e-19)
(0.000919331 -0.0021076 -3.50223e-18)
(0.000955247 -0.00209152 -2.31588e-18)
(-0.0117826 0.0182353 -2.43245e-17)
(-0.00942851 0.0180701 -2.45457e-17)
(-0.0104954 0.0155867 -5.23851e-17)
(0.00059528 -0.00234441 -7.38422e-18)
(0.000617412 -0.00231929 -1.11619e-17)
(0.000688427 -0.00232624 9.45261e-18)
(0.00531857 -0.0386621 -6.97577e-18)
(0.00628054 -0.0366611 -7.41016e-18)
(-0.00053631 -0.00297337 -1.24353e-17)
(-0.000631279 -0.00321808 -2.17569e-20)
(-0.00033123 -0.00317501 -1.54688e-17)
(0.08247 0.0106186 -1.52189e-17)
(0.0806159 0.0100404 2.80895e-17)
(0.083125 0.0103672 3.63571e-17)
(0.00195022 -0.000101087 -4.64873e-20)
(0.00188963 -0.000163553 7.61792e-20)
(-0.0385099 -0.00129351 -6.77493e-18)
(-0.0361539 6.01695e-05 1.57189e-17)
(0.0348516 0.0286379 -1.7488e-17)
(0.0361924 0.0278077 5.71107e-18)
(-0.0498362 -0.0514118 3.51861e-17)
(-0.0509801 -0.0493238 -2.01692e-18)
(-0.0479438 -0.0489224 -6.43853e-18)
(0.0692791 0.0156095 -1.49862e-17)
(0.0692009 0.0161934 2.26269e-18)
(0.066195 0.0163995 1.97797e-17)
(0.00034696 -0.000934746 -1.43952e-19)
(0.000346207 -0.00090714 -2.18469e-19)
(-0.0321518 -0.0531955 -4.45689e-18)
(-0.029274 -0.0518219 1.60965e-17)
(0.000109398 -0.00185425 -3.97501e-18)
(0.000130802 -0.00184535 -1.14792e-18)
(0.000131846 -0.00192255 -1.57959e-18)
(0.00287294 0.00254896 2.89854e-18)
(0.00285559 0.00270757 -2.099e-18)
(0.00916702 -0.015628 -9.876e-19)
(0.0100981 -0.0153535 3.49774e-19)
(0.00940867 -0.0147655 -1.33875e-19)
(0.00831725 -0.0157789 7.37522e-19)
(0.00893845 -0.016541 -2.67935e-19)
(0.0676021 0.0156564 -7.46258e-18)
(0.0700565 0.0137692 -1.13894e-17)
(0.00182299 -0.00959992 -3.05959e-17)
(0.00200575 -0.00980349 -1.80961e-18)
(0.00188296 0.00103323 -2.74574e-18)
(0.00192586 0.000943668 -1.88012e-19)
(0.00183701 0.000960512 -1.58684e-18)
(-0.0301592 0.00743244 3.05348e-17)
(-0.0299543 0.00805497 -6.69084e-18)
(-0.0309231 0.00868405 4.74886e-17)
(-0.0327535 0.00361237 1.33131e-17)
(-0.0355897 0.00437264 3.34616e-17)
(-0.0335503 0.00325126 -2.24618e-17)
(-0.0108754 0.00513752 9.70773e-18)
(-0.0106392 0.00578881 6.71581e-18)
(-0.0114529 0.00574801 8.23522e-18)
(0.00136274 -0.0012707 2.85492e-18)
(0.00134701 -0.00131982 4.5621e-19)
(0.00139515 -0.00127637 3.75737e-21)
(0.0717973 0.0160701 3.0296e-18)
(0.0723967 0.0134434 9.25711e-18)
(-0.00223164 -0.00340134 -1.07893e-18)
(-0.0022654 -0.00305715 -5.22125e-18)
(-0.00253904 -0.00325147 5.00861e-18)
(0.00385593 0.00101275 9.35542e-19)
(0.0037703 0.000886464 9.19881e-19)
(0.00370788 0.00103585 2.39521e-18)
(-0.0525246 0.0077308 -6.12303e-17)
(-0.0524415 0.00722837 4.41887e-17)
(7.56547e-05 0.000522972 -8.20697e-19)
(0.000106868 0.000546261 -2.3827e-18)
(8.08957e-05 0.000552117 -3.38451e-19)
(0.012999 0.0609012 -1.4425e-17)
(0.0161119 0.0574298 1.38984e-17)
(0.00102712 -0.000682827 1.36816e-19)
(0.000994787 -0.000718374 -1.48209e-19)
(0.00100979 -0.000759514 9.82802e-20)
(0.00192205 0.00112655 2.24444e-18)
(0.0019309 0.00103543 -2.88384e-18)
(0.0280375 0.029268 7.99078e-18)
(0.0272976 0.0311677 1.53899e-17)
(0.0295519 0.0302191 1.69205e-17)
(0.00616751 0.00969509 1.69047e-17)
(0.00672712 0.00979797 -4.0697e-18)
(0.0841876 0.0134862 3.54193e-18)
(0.0836055 0.0131494 -5.74038e-17)
(0.0816265 0.0133291 -2.79989e-17)
(0.0720172 0.0162906 -6.12669e-19)
(0.0682974 0.0163803 2.38878e-17)
(-0.0292482 0.00585937 1.24486e-17)
(-0.0296323 0.0049107 3.15992e-18)
(-0.0285526 0.00494598 8.86194e-17)
(0.00525228 0.00207436 1.36027e-18)
(0.00503095 0.00222553 3.6715e-18)
(0.0460244 0.0075551 -1.11485e-17)
(0.0492842 0.00956824 3.34395e-17)
(0.0474396 0.00742301 4.0041e-17)
(0.000627543 -0.00211337 -1.71833e-18)
(0.000651604 -0.00207854 5.59584e-18)
(0.000605944 -0.00210579 1.16212e-18)
(-0.0277719 0.00861802 3.89766e-17)
(-0.0278965 0.00835271 -6.8795e-18)
(0.000595043 -0.00235007 6.29877e-18)
(0.000534955 -0.00237001 5.40757e-18)
(-0.000257009 -0.000308181 -1.12101e-17)
(-0.000200573 -0.000397999 -1.16681e-17)
(-0.0347732 0.0152627 -1.27537e-17)
(-0.0320611 0.0152763 1.39406e-17)
(-0.0290905 0.00692135 -9.953e-19)
(-0.030584 0.00684367 1.31968e-17)
(-0.00434419 0.0344283 5.45236e-18)
(-0.00860489 0.0334068 -5.61789e-18)
(-0.00947992 0.0314349 5.73419e-18)
(0.0189696 -0.014879 1.36639e-17)
(0.0186945 -0.0138716 1.81343e-18)
(0.0179068 -0.014432 -4.98538e-18)
(0.00128266 -4.33021e-05 8.4685e-20)
(0.00128217 -9.25411e-05 -1.08502e-18)
(0.00131378 -3.2531e-05 2.14597e-19)
(-0.00148166 -0.0405166 3.70176e-18)
(0.00031201 -0.0402012 -1.25586e-17)
(-0.000430954 -0.0388998 -2.66484e-17)
(0.0231543 0.0168443 -1.86526e-20)
(0.0249642 0.0167408 -8.25045e-18)
(0.027332 0.0151412 -2.74457e-18)
(0.0237077 0.00813384 -4.75073e-17)
(0.0244731 0.00839599 -2.11225e-17)
(0.0243358 0.00758041 -3.2646e-17)
(-0.00304531 -0.0411645 1.93545e-17)
(-0.000966598 -0.0425398 2.47268e-18)
(0.00296259 -0.00766475 -2.15314e-17)
(0.00266655 -0.00760267 1.93923e-17)
(0.00291806 -0.00736063 -6.89033e-18)
(0.00394793 -0.00789909 5.20561e-18)
(0.00358563 -0.00765818 2.47234e-17)
(0.00352226 -0.00817698 1.05167e-17)
(0.00137226 -0.00148377 1.44731e-18)
(0.00140532 -0.00141966 2.73571e-19)
(0.00146097 -0.00142992 2.75647e-18)
(0.00107785 0.000660537 3.11186e-18)
(0.00109477 0.000722896 -3.7452e-19)
(0.00104225 0.000716376 -9.2475e-19)
(-0.00776375 0.00876279 5.17044e-18)
(-0.00739189 0.00931433 8.74992e-18)
(-0.00818744 0.00920874 -9.50249e-18)
(0.00105422 0.000612502 -1.21414e-18)
(0.00109513 0.000591525 -3.11217e-19)
(-0.031849 0.00384264 8.77354e-18)
(-0.0301646 0.00257669 5.60779e-17)
(-0.000292264 -0.000223433 -6.59489e-18)
(-0.000330761 -0.000307331 1.83688e-17)
(0.000493877 0.00134681 -1.23336e-18)
(0.000439949 0.00133251 -2.90257e-18)
(0.00710589 0.000416174 1.3158e-18)
(0.007427 0.000380169 1.21036e-18)
(0.00726382 0.000186781 -3.07271e-19)
(0.00113245 0.000496944 -3.65043e-19)
(0.00118874 0.000501019 -3.69233e-19)
(-0.00195376 0.0344219 -9.2549e-19)
(-0.00349985 0.0347406 1.97067e-18)
(-0.00237482 0.0360825 -4.5593e-17)
(0.000779719 0.0177783 1.77456e-18)
(0.000400009 0.0171465 -1.36315e-17)
(0.00120355 0.0171132 -2.04567e-17)
(-0.0341225 -0.0165905 7.54681e-18)
(-0.0332615 -0.0184782 -1.04672e-17)
(-0.0357387 -0.0180951 -1.65271e-17)
(-0.000454762 -0.00271519 1.13007e-19)
(-0.000721204 -0.00271938 -5.78e-18)
(0.000478836 0.000385977 -1.06013e-18)
(0.000501174 0.000377566 1.40287e-18)
(0.000486994 0.000413531 -3.77435e-19)
(0.000262307 5.31937e-05 -3.84846e-18)
(0.000250978 7.90282e-05 3.27654e-18)
(-0.0215059 0.00695109 -2.20012e-17)
(-0.0198659 0.00582259 -2.46084e-17)
(-0.0301138 0.00690524 -1.0976e-17)
(-0.0318 0.00622114 -2.63738e-17)
(0.0207836 -0.00938503 -8.61564e-18)
(0.0201397 -0.0101768 -4.15827e-18)
(0.0213078 -0.0102459 -2.62394e-18)
(0.000455714 0.00114431 -2.30791e-18)
(0.000476724 0.00111925 -4.42421e-18)
(0.000425785 0.00110201 -3.46596e-18)
(0.00194032 0.000618225 -1.8472e-18)
(0.00196129 0.000707504 4.29621e-19)
(0.00200568 0.000616979 -2.3361e-18)
(0.0650511 0.0191137 1.87203e-18)
(0.0624921 0.0200218 -6.54841e-18)
(0.0636074 0.0194962 1.89401e-17)
(-0.0265089 0.0243551 5.4437e-18)
(-0.0259376 0.0244663 -1.42948e-17)
(-0.0262839 0.0249366 -4.06938e-18)
(0.00193327 -0.0115022 7.01454e-19)
(0.0020834 -0.0113551 -7.61107e-18)
(0.00230792 -0.0115533 -3.58611e-17)
(0.00125706 5.91659e-05 1.23595e-19)
(0.00121358 -6.97353e-05 -5.40852e-19)
(0.0137346 0.00656894 7.64391e-18)
(0.0131576 0.00688873 3.73245e-18)
(0.0133248 0.00619069 -8.30124e-18)
(0.0508075 0.0252859 -6.04147e-18)
(0.052101 0.0245425 -1.22551e-17)
(0.0498853 0.0257358 -8.25804e-18)
(-0.0104732 0.00091183 -1.01469e-17)
(-0.011114 0.000866245 -1.40991e-17)
(-0.0105324 0.00151824 7.0003e-18)
(0.00503049 0.00159925 -3.20113e-18)
(0.00525395 0.00171253 3.98561e-18)
(0.00339963 0.00696865 -2.30674e-18)
(0.00298168 0.00713722 -2.98753e-19)
(0.00309687 0.00671701 8.30644e-18)
(0.04541 0.00598599 2.32811e-17)
(0.0464586 0.00680303 -2.54743e-18)
(0.0510513 0.0228578 9.46329e-18)
(0.0533475 0.0224572 6.32693e-19)
(0.0108049 0.0147289 4.66954e-18)
(0.0100546 0.0146447 -2.31109e-17)
(-0.0126402 0.0367724 -4.18708e-18)
(-0.0166683 0.0349355 1.78861e-18)
(-0.0205425 0.0346218 5.09912e-18)
(0.00190373 -0.00936009 -2.65331e-17)
(-0.029778 0.00447652 9.28668e-18)
(-0.0311469 0.00516478 5.05047e-18)
(0.00278085 -0.00611759 9.4773e-18)
(0.00260071 -0.00648471 1.7327e-18)
(0.0023736 -0.00611748 -2.51278e-18)
(-0.0102669 -0.000616343 -3.6764e-18)
(-0.0096744 -0.000821711 -1.68009e-18)
(-0.010244 -0.00135235 1.42517e-18)
(0.0287875 0.0274162 4.85415e-18)
(0.0265263 0.0283848 -5.43179e-17)
(0.00212919 -0.0017132 1.17825e-18)
(0.00203984 -0.00173607 -1.00072e-18)
(0.00208924 -0.00163831 -5.47719e-18)
(0.000606408 -0.0021362 -1.68106e-18)
(0.00065151 -0.00211468 -1.87227e-18)
(0.00508971 -0.0118641 -7.78729e-19)
(0.00473976 -0.0122358 1.36989e-18)
(0.00528733 -0.0122512 3.24092e-17)
(-0.0250545 0.072096 1.86596e-17)
(-0.00819719 0.0750701 1.08247e-17)
(-0.0121714 0.0739268 -5.11419e-18)
(0.0035402 0.000266677 1.0368e-20)
(0.00366059 0.000253157 -3.85673e-19)
(0.0035828 0.00010349 1.12882e-19)
(4.8375e-05 0.000501709 -1.3666e-18)
(6.82083e-05 0.000499566 2.4211e-18)
(-0.0293345 0.00777472 -4.73715e-17)
(0.0584739 0.00334074 3.0409e-17)
(0.0590365 0.00325875 7.071e-19)
(0.0615555 0.00477926 -1.43341e-18)
(0.0143301 0.00641397 4.19818e-17)
(0.0140168 0.00704066 8.94604e-18)
(-0.0040414 -0.0401933 -3.99273e-18)
(-0.00460501 -0.0420605 2.62923e-18)
(-0.000341984 0.0342174 2.69546e-17)
(-0.00158808 0.033068 -1.01783e-17)
(0.0011962 0.0184252 1.19753e-17)
(0.000324212 0.0184578 2.43443e-17)
(-0.0249154 0.0273416 -2.41802e-18)
(-0.0245206 0.0283909 -4.18398e-18)
(-0.0238556 0.0275204 -2.4242e-17)
(0.0010357 -0.00212555 3.38799e-19)
(0.00109129 -0.00210917 -4.77161e-18)
(0.0010624 -0.00212504 -9.40618e-19)
(0.000500371 -0.00231515 -1.72006e-18)
(0.000446054 -0.00233022 3.75809e-18)
(0.00044982 -0.00233666 -2.55153e-18)
(0.000286 -0.000737198 9.69393e-23)
(0.000289792 -0.000764042 -1.22337e-19)
(0.000259495 -0.000715786 -2.34559e-19)
(-0.0269745 0.0298127 -4.70082e-17)
(-0.0324236 0.0294014 -3.42512e-17)
(-0.00900113 2.39404e-05 1.07677e-17)
(-0.00920001 -0.000462023 4.02017e-18)
(-0.00875123 -0.000435003 6.52224e-18)
(-0.000704006 0.000392605 -1.76637e-18)
(-0.000731273 0.000328992 2.79005e-18)
(-0.000778389 0.000416983 -2.0212e-18)
(8.30459e-06 -3.53672e-05 -1.70172e-19)
(8.62843e-06 -3.07038e-05 -2.59117e-19)
(1.34982e-05 -4.43308e-05 -2.68139e-19)
(0.0213999 -0.00848177 1.10182e-17)
(0.0240971 -0.00794418 -7.23731e-18)
(0.0176977 -0.0103406 1.69217e-17)
(-0.00809532 0.00829451 -1.07236e-17)
(-0.00745459 0.00841261 -7.64021e-18)
(-0.00888465 -0.0361756 1.29784e-17)
(-0.00984021 -0.0383676 -6.19926e-18)
(0.0831891 0.0112655 -2.54102e-17)
(0.0863646 0.00897924 -1.46631e-17)
(0.0522409 0.00209495 -4.88541e-18)
(0.0557756 0.00283718 -3.55061e-18)
(0.0510051 0.00154001 -1.27283e-17)
(0.0539913 0.00300941 2.27047e-17)
(0.0486858 0.00153427 -6.59943e-18)
(-0.0141729 0.0181812 3.54541e-17)
(-0.0133314 0.020457 1.44329e-17)
(0.00693354 0.000650404 -5.17256e-20)
(0.00678739 0.000421794 -7.59322e-19)
(0.116001 0.00768033 -2.52612e-18)
(0.116945 0.00769641 3.0742e-18)
(0.115792 0.00850253 1.12111e-17)
(0.000322731 -0.000917794 2.87188e-19)
(0.000299571 -0.000899872 5.50019e-19)
(0.000296272 -0.000870745 6.35722e-19)
(0.000453536 0.00040077 -3.5301e-18)
(0.000471948 0.000362164 1.93828e-18)
(-0.0083831 0.0132346 5.78487e-18)
(-0.00775468 0.0137292 8.91175e-18)
(-0.00768374 0.0128747 6.09217e-18)
(9.59863e-05 -3.31516e-05 3.4213e-19)
(8.683e-05 -4.28323e-05 6.58379e-20)
(7.9965e-05 -2.798e-05 -3.33173e-19)
(-0.000635056 0.0347294 -1.93195e-17)
(0.00273098 0.0364397 -1.81931e-17)
(0.0138667 -0.0246864 -6.52637e-18)
(-0.0243406 -0.0264719 2.65964e-17)
(0.00698 -0.0284463 4.57147e-18)
(-0.016554 -0.0420978 3.49528e-18)
(-0.0188258 -0.0419952 2.87424e-17)
(-0.0173209 -0.0444154 -3.62266e-18)
(0.000430585 0.000413177 -3.83456e-19)
(0.000440841 0.000436127 -4.41427e-19)
(-0.00162352 -0.00361011 4.65315e-18)
(-0.00193994 -0.00351452 -8.72651e-18)
(-0.00167009 -0.00329447 -5.71262e-18)
(-0.0141089 -0.0421307 -1.95068e-17)
(-0.0153503 -0.0399244 -2.60157e-17)
(-0.0270987 0.0243566 -2.14235e-18)
(-0.0263029 0.0238108 -6.97816e-18)
(0.0196982 -0.015574 2.96868e-17)
(0.00681232 0.0009061 -6.65278e-19)
(0.00653306 0.000908999 -2.16028e-18)
(0.0066694 0.001144 1.81369e-18)
(-0.0103607 4.79375e-05 8.91119e-18)
(-0.00971837 0.000712095 6.89422e-18)
(-0.0455519 0.0109135 -3.32734e-17)
(-0.0441182 0.0107092 -1.39402e-17)
(0.0556331 0.00193076 -9.06412e-18)
(0.0586326 0.00326798 -4.99309e-18)
(-0.0360838 -0.00578411 -3.35571e-18)
(-0.038372 -0.00526562 3.47085e-18)
(0.00231837 -0.00473647 1.00381e-17)
(0.00218105 -0.00480302 -6.24503e-18)
(0.00236455 -0.00488314 7.33977e-18)
(0.00120054 -0.0020241 -7.34109e-19)
(0.00111253 -0.00206724 8.68037e-19)
(0.00113292 -0.00201013 9.48904e-19)
(0.00075102 0.00073261 8.32609e-19)
(0.000783375 0.00074069 2.19901e-18)
(0.000749691 0.000782354 6.03229e-18)
(-0.0229829 0.0676386 4.15621e-18)
(-0.0294102 0.0677799 1.82445e-17)
(-0.00912699 0.000529735 5.99797e-18)
(-0.00856895 0.000459242 -2.38591e-19)
(0.0881572 0.0118208 -1.89977e-17)
(0.0850329 0.0160643 8.41723e-18)
(4.27313e-05 0.00434988 -3.49244e-18)
(4.11831e-05 0.00458661 3.71861e-18)
(0.0034131 0.000270673 -1.98448e-19)
(0.00348893 0.00039815 -3.29544e-19)
(0.00183505 -0.0398291 5.4683e-18)
(0.00367655 -0.0392543 -4.87191e-19)
(0.00300721 -0.0378511 1.56929e-17)
(-0.0357044 -0.00706135 -1.60102e-18)
(-0.0342111 -0.00573679 2.10338e-18)
(-0.000106641 0.0010997 2.66063e-18)
(-0.000113411 0.0011389 3.94396e-18)
(-7.7294e-05 0.00115482 8.04592e-18)
(0.000841635 0.00188319 -2.93207e-18)
(0.000885867 0.00184752 -2.55831e-18)
(0.00080451 0.00181849 6.61382e-19)
(0.00224648 -0.00992875 1.38817e-17)
(0.00269272 -0.00981818 1.75939e-17)
(0.00260785 -0.0102302 -1.30479e-17)
(0.0294735 0.0258623 -2.15817e-17)
(0.0298967 0.0240184 4.07514e-17)
(0.0278901 0.024985 -3.56143e-17)
(0.0149798 0.0259882 -2.11981e-17)
(0.0169932 0.0268596 -1.43068e-18)
(0.0191844 0.0265293 -1.54262e-18)
(0.0319241 0.0275698 -1.05192e-18)
(0.0307079 0.0272081 7.43372e-18)
(0.0323588 0.0283778 8.35472e-18)
(-0.00634096 0.000100978 4.21393e-18)
(-0.00674503 -0.000224678 1.70078e-18)
(0.012319 -0.0280091 -1.63122e-18)
(0.0118829 -0.0261362 2.57858e-17)
(0.0106059 -0.0274266 -3.05567e-17)
(0.0118906 0.0254662 -2.35644e-18)
(0.013889 0.0254954 -9.94759e-18)
(0.00094618 -0.00315491 1.08014e-17)
(0.000881992 -0.00309246 -6.3196e-18)
(0.000805034 -0.0031811 -7.00874e-18)
(-0.0084163 -0.00488888 -1.67273e-18)
(-0.00866505 -0.00426478 -5.2676e-18)
(-0.00804555 -0.00458483 -1.34084e-17)
(0.0663574 0.00803007 -1.99832e-18)
(0.0640366 0.00807474 -3.46892e-18)
(0.0675127 0.00871261 -1.39696e-17)
(0.00118008 0.00435755 4.54214e-18)
(0.00134368 0.00450661 8.39304e-18)
(0.0013726 0.00428168 8.62098e-18)
(0.00990906 -0.0372179 1.79374e-18)
(0.0116382 -0.0372643 1.50341e-17)
(0.0106987 -0.0389888 1.20403e-17)
(0.0019309 0.00054295 -5.62438e-19)
(0.00188612 0.000614193 9.16741e-19)
(0.0308243 0.0267502 -1.80279e-18)
(2.33938e-05 -0.000219251 7.23695e-19)
(3.19051e-05 -0.000261022 -2.08916e-19)
(3.18576e-05 -0.000273741 -2.06621e-19)
(0.00555567 0.0107551 -5.53017e-18)
(0.00503438 0.011215 -1.13777e-17)
(0.00585649 0.0113085 -1.8654e-18)
(0.00415249 0.00108905 4.67319e-18)
(0.0041893 0.00123242 2.59093e-18)
(0.00433081 0.00112022 2.04183e-18)
(0.000857475 -0.00213193 -1.27435e-18)
(0.000909157 -0.00207665 -1.80435e-18)
(-0.0410133 0.0161461 5.0079e-18)
(-0.042891 0.016587 1.05349e-17)
(-0.0413016 0.0182126 -5.83864e-19)
(0.000304008 0.00164078 -5.28444e-18)
(0.000292018 0.00157969 -1.78334e-18)
(0.000234315 0.00158091 -4.76734e-18)
(-0.00128446 -0.0115033 -1.26142e-17)
(-0.000943528 -0.0114972 -6.82625e-18)
(0.00042306 0.000389123 4.44539e-18)
(0.000404386 0.00042364 3.95497e-18)
(-0.0333458 0.00834321 1.74997e-18)
(-0.0324838 0.00977633 3.67216e-18)
(-0.0316321 0.00800475 3.5854e-19)
(0.0838925 0.0140278 4.858e-17)
(0.0901762 0.0125088 4.73006e-17)
(-0.0103508 0.0344587 -1.09822e-18)
(-0.0140308 0.0348355 1.76182e-17)
(-0.00505195 0.0369545 -2.78524e-18)
(0.00261423 -0.00458535 3.43359e-18)
(0.00260763 -0.00437386 7.08965e-21)
(0.00280937 -0.00450107 1.4331e-17)
(-0.00809058 -0.00551362 9.74015e-19)
(-0.00884457 -0.00526099 1.07755e-17)
(1.01178e-05 -0.000130849 -7.22672e-19)
(5.16871e-06 -9.1495e-05 -1.25778e-19)
(5.79595e-06 -9.54069e-05 1.17258e-19)
(0.00505902 -0.0114109 -9.78675e-18)
(0.00466191 -0.0115993 -1.53506e-17)
(0.000729416 -0.00122337 -4.5334e-19)
(0.000693016 -0.0012157 -2.51918e-19)
(0.000726262 -0.0011842 -7.11861e-19)
(0.00535883 0.0105026 6.74967e-18)
(-0.0438071 -0.00154048 1.97806e-17)
(-0.026639 -8.60269e-05 -2.91188e-18)
(-0.0297444 -0.00255738 1.71205e-17)
(0.00248209 -0.00467518 6.0191e-18)
(0.00230246 -0.00457609 -8.67537e-18)
(0.00110913 0.00417297 -1.56263e-17)
(0.000997645 0.00429604 -7.62681e-18)
(3.5823e-05 -0.0016661 1.19969e-18)
(4.75915e-05 -0.00173839 -8.31266e-19)
(0.0325363 0.0265043 -9.72961e-18)
(0.032889 0.0278233 -1.67681e-17)
(0.000438431 0.000820183 -5.3902e-19)
(0.0004187 0.000791384 -2.23543e-18)
(-0.0504939 0.0232245 3.14183e-17)
(-0.0309044 0.0181428 1.66707e-17)
(0.0297441 0.0268781 1.35564e-18)
(0.0286728 0.0265152 -1.1024e-17)
(0.0303645 0.027507 7.77929e-18)
(0.0229133 0.00781508 2.04184e-18)
(0.0230833 0.00873697 -1.63327e-17)
(7.99592e-06 -3.95157e-05 -9.08758e-20)
(4.47775e-06 -2.65028e-05 3.10145e-19)
(0.0407944 -0.00218465 -3.04113e-18)
(0.0436736 -0.000773768 4.4469e-19)
(0.0477888 -0.00313485 -1.7128e-17)
(0.0721797 0.0162247 -2.26628e-18)
(0.072484 0.0155482 3.89512e-18)
(0.0693958 0.0168574 1.50746e-18)
(0.015792 -0.0116323 -5.46107e-18)
(0.0197123 -0.0103597 -3.73286e-18)
(0.00968791 -0.0359169 -3.24364e-18)
(-0.00420467 0.00496195 -4.06445e-18)
(-0.00394212 0.00530625 2.79326e-18)
(-0.00387057 0.00483635 9.58174e-18)
(0.0046076 -0.0130707 1.54288e-17)
(0.00437478 -0.0127131 -8.08953e-18)
(0.00399128 -0.0130484 1.02831e-17)
(-0.0405846 0.0142295 1.50955e-17)
(-0.0391621 0.0156508 7.21575e-18)
(-0.00154787 -0.00392974 1.62243e-17)
(-0.00128271 -0.00368334 7.55905e-18)
(0.0193237 -0.0133274 -2.38722e-17)
(0.0184803 -0.0130915 -2.57601e-18)
(0.00817783 0.00145607 3.51945e-18)
(0.00798221 0.00115854 -1.06397e-18)
(0.00777826 0.00150281 1.98838e-18)
(0.0688771 0.00929612 2.32578e-17)
(0.0708814 0.0109828 -1.37051e-17)
(0.0694225 0.0101286 1.24443e-18)
(-0.022485 0.0204218 3.81915e-18)
(-0.0236091 0.019624 -9.66364e-18)
(-0.0219092 0.0193138 -1.83472e-17)
(0.000457399 1.06575e-05 -1.82919e-19)
(0.000436182 2.29793e-05 -6.18975e-19)
(0.000437013 1.98004e-05 -1.39785e-18)
(-0.00178588 0.00276762 -4.03598e-18)
(-0.00167714 0.00262982 1.99347e-18)
(-0.00159466 0.00282104 -1.6443e-18)
(0.00181721 -0.041656 1.53146e-17)
(0.0199501 -0.00846598 -7.09327e-18)
(0.0248185 -0.00675663 -2.23777e-17)
(0.0143104 0.00470991 -4.70781e-18)
(0.0128602 0.00234832 2.5739e-18)
(0.0110898 0.00391441 5.35673e-18)
(0.000757647 0.000691408 4.67066e-18)
(0.000723543 0.000729725 -2.19074e-18)
(0.00191879 -0.011763 3.17715e-17)
(0.00066889 -0.00204704 5.45551e-19)
(0.000687536 -0.00201572 -3.94651e-18)
(0.000646746 -0.00204086 -3.89931e-18)
(-0.0496698 -0.00563767 5.36427e-18)
(-0.049175 -0.0029561 2.23662e-17)
(-0.0470321 -0.00482224 1.85945e-17)
(-0.0257463 0.0246753 -5.97718e-18)
(-0.0255415 0.0252157 -3.75234e-18)
(-0.0252035 0.0246325 6.5384e-18)
(-0.00188112 0.00291351 2.50085e-18)
(-0.00194154 0.00271699 -1.53674e-18)
(-0.00854602 0.00775724 -3.14941e-18)
(-0.00900721 0.00826595 -1.63818e-17)
(-0.0218678 0.0211691 -3.13698e-18)
(-0.0229844 0.0211869 2.33696e-17)
(0.00130026 -0.00103589 -1.1812e-18)
(0.00132768 -0.000969193 1.56442e-18)
(0.00128491 -0.00102201 -1.40126e-18)
(0.0032682 -0.00764173 -2.38966e-17)
(0.00301953 -0.00793725 -8.53895e-18)
(-0.0114955 -0.0314905 6.19158e-18)
(-0.0105215 -0.0331594 -2.93969e-17)
(-0.00980532 -0.0312143 -1.62998e-18)
(0.0677278 0.0191244 -1.03929e-17)
(0.0677333 0.0179343 9.5293e-18)
(0.0234818 0.0254479 3.16958e-17)
(0.000402333 -0.00163608 -6.46065e-21)
(0.000381183 -0.00158074 1.95866e-18)
(0.000366679 -0.00160125 2.3506e-18)
(0.000828271 -0.00213628 -7.3379e-20)
(0.000792629 -0.00215045 -3.141e-18)
(0.00267644 -0.00477006 3.42351e-18)
(0.057828 0.00942742 -3.83788e-18)
(0.0568229 0.00853904 1.19527e-17)
(0.0541293 0.00886149 2.01876e-18)
(-0.0249667 0.00912254 -1.17689e-17)
(-0.0239946 0.0102155 4.41287e-17)
(-0.0260435 0.00961266 5.57937e-17)
(-0.010277 0.0033481 2.73108e-19)
(-0.00968583 0.00338251 -6.11734e-18)
(-0.0101111 0.00402082 6.19973e-18)
(0.000437329 0.00116137 5.20375e-18)
(0.000485253 0.00118589 6.57055e-19)
(-0.0274635 0.0241441 -2.23414e-18)
(-0.0272962 0.0245262 -1.1624e-17)
(-0.0251525 0.0264684 7.48457e-18)
(-0.0254087 0.0257101 -2.85946e-18)
(-0.0246115 0.0258092 -2.05013e-17)
(-0.0324905 -0.0109023 -1.13578e-17)
(-0.031577 -0.0130801 1.19944e-17)
(-0.0303147 -0.0112211 -2.25649e-18)
(-0.00896415 0.00719339 2.23381e-17)
(-0.00819948 0.00728357 7.92218e-18)
(0.0587536 0.0103114 2.28113e-17)
(0.0613081 0.00999898 -1.6178e-17)
(0.0380136 0.0161009 2.17506e-17)
(0.0394622 0.0160469 7.61951e-18)
(0.0426415 0.0145821 4.91918e-17)
(-0.0014334 0.00379236 -3.0302e-18)
(-0.00129394 0.00395966 7.40887e-18)
(-0.00151232 0.00393879 -6.52599e-18)
(-0.00535673 0.000469037 -5.30196e-18)
(-0.00573017 0.000511163 2.09635e-17)
(-0.00547369 0.00011934 2.25543e-17)
(0.0165733 0.0100836 2.36935e-17)
(0.0120882 0.00913738 -2.30093e-17)
(-0.00953642 0.014884 1.90306e-17)
(0.000956575 0.000841374 4.52798e-19)
(0.000986556 0.000884813 9.17126e-19)
(0.000993804 0.000802257 5.64896e-19)
(0.00028068 -0.00070614 8.87385e-22)
(0.000274637 -0.000678018 -5.06045e-20)
(0.000250076 -0.00066109 -4.65432e-19)
(-0.033209 -0.00948297 1.67768e-18)
(-0.0343274 -0.0112374 3.22696e-19)
(0.0117577 0.0108584 -4.58432e-19)
(0.0109039 0.0109254 4.3148e-18)
(0.0112471 0.0101755 -2.1538e-17)
(0.000420088 0.000846695 1.32833e-18)
(0.000405616 0.000870281 9.67072e-19)
(0.000384188 0.000840118 1.4336e-18)
(3.61317e-05 -0.00025318 -1.39964e-19)
(3.33977e-05 -0.000257256 7.81744e-20)
(2.26793e-05 -0.000208274 7.54483e-19)
(0.00076046 -0.00122405 5.50784e-19)
(0.000730052 -0.00126288 4.43314e-19)
(0.000335967 -4.94962e-05 2.00311e-19)
(0.000355197 -4.79489e-05 6.11392e-19)
(0.000330538 -2.95153e-05 4.96934e-19)
(-0.00466637 0.00335615 1.37487e-18)
(-0.00490255 0.00363801 9.31333e-19)
(-0.0050637 0.00320679 4.33216e-18)
(0.000312372 -0.000752159 3.37801e-19)
(0.0652688 0.00745568 9.97586e-18)
(0.061683 0.00675273 -3.51913e-18)
(-0.00920549 0.00431581 8.64062e-18)
(-0.00920259 0.00360287 2.06999e-18)
(0.00158882 0.000261764 -2.78353e-19)
(0.00159804 0.000173771 3.41655e-20)
(0.00164998 0.000266732 -2.695e-19)
(0.0208048 -0.00756582 1.24e-17)
(0.0664954 0.0184372 5.02588e-18)
(0.0674755 0.0180978 -1.74738e-17)
(0.000863604 -0.00222233 -1.5735e-18)
(0.000940335 -0.00221377 2.71456e-19)
(0.000906958 -0.00219431 -2.52508e-18)
(-0.0349863 0.0088206 -8.86868e-18)
(0.00826255 0.0170018 -7.67048e-18)
(0.0106827 0.0158418 1.41373e-18)
(0.00932241 0.0165875 -2.30928e-17)
(0.00215193 -0.00175266 -4.05797e-19)
(0.00220503 -0.0016763 -6.60642e-19)
(0.00079031 -0.00222768 4.79278e-19)
(0.000827065 -0.00227964 -5.37571e-18)
(-0.00933285 0.00498435 -3.80494e-18)
(-0.00980473 0.00457595 -2.4867e-18)
(0.0846744 0.0131145 9.40228e-18)
(0.0834906 0.0140486 -6.25274e-18)
(0.0816247 0.014146 -9.4453e-18)
(-0.00834701 0.00610792 -7.58048e-18)
(-0.00985253 0.00361523 -1.85106e-17)
(-0.011244 0.00484809 1.72901e-17)
(-0.0118631 0.0123581 5.16204e-18)
(-0.011915 0.0133788 1.18452e-18)
(-0.0111044 0.0127861 7.43641e-18)
(0.00020177 -4.40964e-05 -2.32398e-19)
(0.000194052 -6.32938e-05 -3.16778e-20)
(0.114982 0.00811265 1.56852e-18)
(0.113125 0.00668049 -9.89549e-18)
(0.000349521 -0.000966942 1.80867e-19)
(-0.0119878 0.0141525 -9.25139e-18)
(-0.0113687 0.0146339 -1.63674e-17)
(-0.0121761 0.0150519 -1.95321e-17)
(0.00623367 0.0169322 1.34185e-17)