/*--------------------------------*- C++ -*----------------------------------*\
| =========                 |                                                 |
| \\      /  F ield         | OpenFOAM: The Open Source CFD Toolbox           |
|  \\    /   O peration     | Version:  v2012                                 |
|   \\  /    A nd           | Website:  www.openfoam.com                      |
|    \\/     M anipulation  |                                                 |
\*---------------------------------------------------------------------------*/
FoamFile
{
    version     2.0;
    format      ascii;
    class       pointVectorField;
    location    "300";
    object      pointDisplacement;
}
// * * * * * * * * * * * * * * * * * * * * * * * * * * * * * * * * * * * * * //

dimensions      [0 1 0 0 0 0 0];


internalField   nonuniform List<vector> 
14246
(
(0 0 0)
(-0 -0.08 -0)
(0 0 0)
(-0 -0.08 -0)
(0 0 0)
(0 0 0)
(0 0 0)
(0 0 0)
(0 0 0)
(0 0 0)
(0 0 0)
(0 0 0)
(0 0 0)
(0 0 0)
(0 0 0)
(0 0 0)
(0 0 0)
(0 0 0)
(0 0 0)
(0 0 0)
(0 0 0)
(0 0 0)
(0 0 0)
(0 0 0)
(0 0 0)
(0 0 0)
(0 0 0)
(0 0 0)
(0 0 0)
(0 0 0)
(0 0 0)
(0 0 0)
(0 0 0)
(0 0 0)
(0 0 0)
(0 0 0)
(0 0 0)
(0 0 0)
(0 0 0)
(0 0 0)
(0 0 0)
(0 0 0)
(0 0 0)
(0 0 0)
(0 0 0)
(0 0 0)
(0 0 0)
(0 0 0)
(0 0 0)
(0 0 0)
(0 0 0)
(0 0 0)
(0 0 0)
(0 0 0)
(0 0 0)
(0 0 0)
(0 0 0)
(0 0 0)
(0 0 0)
(0 0 0)
(0 0 0)
(0 0 0)
(0 0 0)
(0 0 0)
(0 0 0)
(0 0 0)
(0 0 0)
(0 0 0)
(0 0 0)
(0 0 0)
(0 0 0)
(0 0 0)
(0 0 0)
(0 0 0)
(0 0 0)
(-0 -0.08 -0)
(-0 -0.08 -0)
(-0 -0.08 -0)
(-0 -0.08 -0)
(-0 -0.08 -0)
(-0 -0.08 -0)
(-0 -0.08 -0)
(-0 -0.08 -0)
(-0 -0.08 -0)
(-0 -0.08 -0)
(-0 -0.08 -0)
(-0 -0.08 -0)
(-0 -0.08 -0)
(-0 -0.08 -0)
(-0 -0.08 -0)
(-0 -0.08 -0)
(-0 -0.08 -0)
(-0 -0.08 -0)
(-0 -0.08 -0)
(-0 -0.08 -0)
(-0 -0.08 -0)
(-0 -0.08 -0)
(-0 -0.08 -0)
(-0 -0.08 -0)
(-0 -0.08 -0)
(-0 -0.08 -0)
(-0 -0.08 -0)
(-0 -0.08 -0)
(-0 -0.08 -0)
(-0 -0.08 -0)
(-0 -0.08 -0)
(-0 -0.08 -0)
(-0 -0.08 -0)
(-0 -0.08 -0)
(-0 -0.08 -0)
(-0 -0.08 -0)
(-0 -0.08 -0)
(-0 -0.08 -0)
(-0 -0.08 -0)
(-0 -0.08 -0)
(-0 -0.08 -0)
(-0 -0.08 -0)
(-0 -0.08 -0)
(-0 -0.08 -0)
(-0 -0.08 -0)
(-0 -0.08 -0)
(-0 -0.08 -0)
(-0 -0.08 -0)
(-0 -0.08 -0)
(-0 -0.08 -0)
(-0 -0.08 -0)
(-0 -0.08 -0)
(-0 -0.08 -0)
(-0 -0.08 -0)
(-0 -0.08 -0)
(-0 -0.08 -0)
(-0 -0.08 -0)
(-0 -0.08 -0)
(-0 -0.08 -0)
(-0 -0.08 -0)
(-0 -0.08 -0)
(-0 -0.08 -0)
(-0 -0.08 -0)
(-0 -0.08 -0)
(-0 -0.08 -0)
(-0 -0.08 -0)
(-0 -0.08 -0)
(-0 -0.08 -0)
(-0 -0.08 -0)
(-0 -0.08 -0)
(-0 -0.08 -0)
(-0 -0.08 -0)
(-0 -0.08 -0)
(-0 -0.08 -0)
(-0 -0.08 -0)
(-0 -0.08 -0)
(-0 -0.08 -0)
(-0 -0.08 -0)
(-0 -0.08 -0)
(-0 -0.08 -0)
(-0 -0.08 -0)
(-0 -0.08 -0)
(-0 -0.08 -0)
(-0 -0.08 -0)
(-0 -0.08 -0)
(-0 -0.08 -0)
(-0 -0.08 -0)
(-0 -0.08 -0)
(-0 -0.08 -0)
(-0 -0.08 -0)
(-0 -0.08 -0)
(-0 -0.08 -0)
(-0 -0.08 -0)
(-0 -0.08 -0)
(-0 -0.08 -0)
(-0 -0.08 -0)
(-0 -0.08 -0)
(-0 -0.08 -0)
(-0 -0.08 -0)
(-0 -0.08 -0)
(-0 -0.08 -0)
(-0 -0.08 -0)
(-0 -0.08 -0)
(-0 -0.08 -0)
(-0 -0.08 -0)
(-0 -0.08 -0)
(-0 -0.08 -0)
(-0 -0.08 -0)
(-0 -0.08 -0)
(-0 -0.08 -0)
(-0 -0.08 -0)
(-0 -0.08 -0)
(-0 -0.08 -0)
(-0 -0.08 -0)
(-0 -0.08 -0)
(-0 -0.08 -0)
(-0 -0.08 -0)
(-0 -0.08 -0)
(-0 -0.08 -0)
(-0 -0.08 -0)
(-0 -0.08 -0)
(-0 -0.08 -0)
(-0 -0.08 -0)
(-0 -0.08 -0)
(-0 -0.08 -0)
(-0 -0.08 -0)
(-0 -0.08 -0)
(-0 -0.08 -0)
(-0 -0.08 -0)
(-0 -0.08 -0)
(-0 -0.08 -0)
(-0 -0.08 -0)
(-0 -0.08 -0)
(-0 -0.08 -0)
(-0 -0.08 -0)
(0 0 0)
(0 0 0)
(0 0 0)
(0 0 0)
(0 0 0)
(0 0 0)
(0 0 0)
(0 0 0)
(0 0 0)
(0 0 0)
(0 0 0)
(0 0 0)
(0 0 0)
(0 0 0)
(0 0 0)
(0 0 0)
(0 0 0)
(0 0 0)
(0 0 0)
(0 0 0)
(0 0 0)
(0 0 0)
(0 0 0)
(0 0 0)
(0 0 0)
(0 0 0)
(0 0 0)
(0 0 0)
(0 0 0)
(0 0 0)
(0 0 0)
(0 0 0)
(0 0 0)
(0 0 0)
(0 0 0)
(0 0 0)
(0 0 0)
(0 0 0)
(0 0 0)
(0 0 0)
(0 0 0)
(0 0 0)
(0 0 0)
(0 0 0)
(0 0 0)
(0 0 0)
(0 0 0)
(0 0 0)
(0 0 0)
(0 0 0)
(0 0 0)
(0 0 0)
(0 0 0)
(0 0 0)
(0 0 0)
(0 0 0)
(0 0 0)
(0 0 0)
(0 0 0)
(0 0 0)
(0 0 0)
(0 0 0)
(0 0 0)
(0 0 0)
(0 0 0)
(0 0 0)
(0 0 0)
(0 0 0)
(0 0 0)
(0 0 0)
(0 0 0)
(-0 -0.08 -0)
(-0 -0.08 -0)
(-0 -0.08 -0)
(-0 -0.08 -0)
(-0 -0.08 -0)
(-0 -0.08 -0)
(-0 -0.08 -0)
(-0 -0.08 -0)
(-0 -0.08 -0)
(-0 -0.08 -0)
(-0 -0.08 -0)
(-0 -0.08 -0)
(-0 -0.08 -0)
(-0 -0.08 -0)
(-0 -0.08 -0)
(-0 -0.08 -0)
(-0 -0.08 -0)
(-0 -0.08 -0)
(-0 -0.08 -0)
(-0 -0.08 -0)
(-0 -0.08 -0)
(-0 -0.08 -0)
(-0 -0.08 -0)
(-0 -0.08 -0)
(-0 -0.08 -0)
(-0 -0.08 -0)
(-0 -0.08 -0)
(-0 -0.08 -0)
(-0 -0.08 -0)
(-0 -0.08 -0)
(-0 -0.08 -0)
(-0 -0.08 -0)
(-0 -0.08 -0)
(-0 -0.08 -0)
(-0 -0.08 -0)
(-0 -0.08 -0)
(-0 -0.08 -0)
(-0 -0.08 -0)
(-0 -0.08 -0)
(-0 -0.08 -0)
(-0 -0.08 -0)
(-0 -0.08 -0)
(-0 -0.08 -0)
(-0 -0.08 -0)
(-0 -0.08 -0)
(-0 -0.08 -0)
(-0 -0.08 -0)
(-0 -0.08 -0)
(-0 -0.08 -0)
(-0 -0.08 -0)
(-0 -0.08 -0)
(-0 -0.08 -0)
(-0 -0.08 -0)
(-0 -0.08 -0)
(-0 -0.08 -0)
(-0 -0.08 -0)
(-0 -0.08 -0)
(-0 -0.08 -0)
(-0 -0.08 -0)
(-0 -0.08 -0)
(-0 -0.08 -0)
(-0 -0.08 -0)
(-0 -0.08 -0)
(-0 -0.08 -0)
(-0 -0.08 -0)
(-0 -0.08 -0)
(-0 -0.08 -0)
(-0 -0.08 -0)
(-0 -0.08 -0)
(-0 -0.08 -0)
(-0 -0.08 -0)
(-0 -0.08 -0)
(-0 -0.08 -0)
(-0 -0.08 -0)
(-0 -0.08 -0)
(-0 -0.08 -0)
(-0 -0.08 -0)
(-0 -0.08 -0)
(-0 -0.08 -0)
(-0 -0.08 -0)
(-0 -0.08 -0)
(-0 -0.08 -0)
(-0 -0.08 -0)
(-0 -0.08 -0)
(-0 -0.08 -0)
(-0 -0.08 -0)
(-0 -0.08 -0)
(-0 -0.08 -0)
(-0 -0.08 -0)
(-0 -0.08 -0)
(-0 -0.08 -0)
(-0 -0.08 -0)
(-0 -0.08 -0)
(-0 -0.08 -0)
(-0 -0.08 -0)
(-0 -0.08 -0)
(-0 -0.08 -0)
(-0 -0.08 -0)
(-0 -0.08 -0)
(-0 -0.08 -0)
(-0 -0.08 -0)
(-0 -0.08 -0)
(-0 -0.08 -0)
(-0 -0.08 -0)
(-0 -0.08 -0)
(-0 -0.08 -0)
(-0 -0.08 -0)
(-0 -0.08 -0)
(-0 -0.08 -0)
(-0 -0.08 -0)
(-0 -0.08 -0)
(-0 -0.08 -0)
(-0 -0.08 -0)
(-0 -0.08 -0)
(-0 -0.08 -0)
(-0 -0.08 -0)
(-0 -0.08 -0)
(-0 -0.08 -0)
(-0 -0.08 -0)
(-0 -0.08 -0)
(-0 -0.08 -0)
(-0 -0.08 -0)
(-0 -0.08 -0)
(-0 -0.08 -0)
(-0 -0.08 -0)
(-0 -0.08 -0)
(-0 -0.08 -0)
(-0 -0.08 -0)
(-0 -0.08 -0)
(-0 -0.08 -0)
(-0 -0.08 -0)
(-0 -0.08 -0)
(-0 -0.08 -0)
(-0 -0.08 -0)
(-0 -0.08 -0)
(0 -0.08 0)
(0 -0.08 0)
(0 -0.08 0)
(0 -0.08 0)
(0 -0.08 0)
(0 -0.08 0)
(0 -0.08 0)
(0 -0.08 0)
(0 -0.08 0)
(0 -0.08 0)
(0 -0.08 0)
(0 -0.08 0)
(0 -0.08 0)
(0 -0.08 0)
(0 -0.08 0)
(0 -0.08 0)
(0 -0.00425525 0)
(0 -0.00480112 0)
(0 -0.00518222 0)
(0 -0.00643253 0)
(0 -0.00580022 0)
(0 -0.0069099 0)
(0 -0.00550581 0)
(0 -0.08 0)
(0 -0.00374785 0)
(0 -0.00381446 0)
(0 -0.00281884 0)
(0 -0.08 0)
(0 -0.08 0)
(0 -0.08 0)
(0 -0.08 0)
(0 -0.08 0)
(0 -0.08 0)
(0 -0.08 0)
(0 -0.08 0)
(0 -0.08 0)
(0 -0.08 0)
(0 -0.08 0)
(0 -0.08 0)
(0 -0.08 0)
(0 -0.08 0)
(0 -0.00285456 0)
(0 -0.00542894 0)
(0 -0.00519931 0)
(0 -0.00491566 0)
(0 -0.00172782 0)
(0 -0.00198671 0)
(0 -0.00110753 0)
(0 -0.00624464 0)
(0 -0.00625994 0)
(0 -0.0044081 0)
(0 -0.00515678 0)
(0 -0.00536511 0)
(0 -0.00419123 0)
(0 -0.0033142 0)
(0 -0.00360966 0)
(0 -0.00229051 0)
(0 -0.00116885 0)
(0 -0.000535631 0)
(0 -0.00598177 0)
(0 -0.0113411 0)
(0 -0.0110782 0)
(0 -0.0161734 0)
(0 -0.0158432 0)
(0 -0.0205259 0)
(0 -0.0201361 0)
(0 -0.0245404 0)
(0 -0.024062 0)
(0 -0.0281511 0)
(0 -0.0275731 0)
(0 -0.0313141 0)
(0 -0.0306568 0)
(0 -0.0341664 0)
(0 -0.033435 0)
(0 -0.0367501 0)
(0 -0.0375186 0)
(0 -0.0398949 0)
(0 -0.0406542 0)
(0 -0.0428475 0)
(0 -0.0435728 0)
(0 -0.0456113 0)
(0 -0.0463085 0)
(0 -0.0481927 0)
(0 -0.0489086 0)
(0 -0.0506036 0)
(0 -0.0513446 0)
(0 -0.0528586 0)
(0 -0.053541 0)
(0 -0.0549408 0)
(0 -0.0555856 0)
(0 -0.0568853 0)
(0 -0.0574726 0)
(0 -0.0587189 0)
(0 -0.0592284 0)
(0 -0.060403 0)
(0 -0.0608935 0)
(0 -0.061963 0)
(0 -0.0624337 0)
(0 -0.0634104 0)
(0 -0.0638669 0)
(0 -0.0647681 0)
(0 -0.0652157 0)
(0 -0.0642993 0)
(0 -0.0655846 0)
(0 -0.0651055 0)
(0 -0.0663279 0)
(0 -0.0658402 0)
(0 -0.0670114 0)
(0 -0.0665127 0)
(0 -0.0676449 0)
(0 -0.0671228 0)
(0 -0.0681707 0)
(0 -0.0676896 0)
(0 -0.0686508 0)
(0 -0.0681824 0)
(0 -0.0691642 0)
(0 -0.0686251 0)
(0 -0.0696211 0)
(0 -0.0690496 0)
(0 -0.0700005 0)
(0 -0.0688283 0)
(0 -0.0694256 0)
(0 -0.0703424 0)
(0 -0.0697547 0)
(0 -0.0706457 0)
(0 -0.0700513 0)
(0 -0.070923 0)
(0 -0.0703157 0)
(0 -0.0711572 0)
(0 -0.0694287 0)
(0 -0.07055 0)
(0 -0.0713401 0)
(0 -0.0707262 0)
(0 -0.0714987 0)
(0 -0.0708526 0)
(0 -0.0716002 0)
(0 -0.0709628 0)
(0 -0.0716952 0)
(0 -0.0710486 0)
(0 -0.0717865 0)
(0 -0.0710963 0)
(0 -0.071831 0)
(0 -0.0703477 0)
(0 -0.0708798 0)
(0 -0.0711089 0)
(0 -0.0718343 0)
(0 -0.0710979 0)
(0 -0.0718022 0)
(0 -0.0724869 0)
(0 -0.0724578 0)
(0 -0.0717676 0)
(0 -0.0724178 0)
(0 -0.0730744 0)
(0 -0.0730204 0)
(0 -0.0723552 0)
(0 -0.0729487 0)
(0 -0.073581 0)
(0 -0.0735035 0)
(0 -0.0728613 0)
(0 -0.0734135 0)
(0 -0.0727624 0)
(0 -0.0733148 0)
(0 -0.0739227 0)
(0 -0.0738371 0)
(0 -0.0732123 0)
(0 -0.0737366 0)
(0 -0.0744273 0)
(0 -0.0742219 0)
(0 -0.0736263 0)
(0 -0.0740892 0)
(0 -0.0746844 0)
(0 -0.0745056 0)
(0 -0.073868 0)
(0 -0.0743839 0)
(0 -0.0749161 0)
(0 -0.0748085 0)
(0 -0.0742613 0)
(0 -0.0746776 0)
(0 -0.0741114 0)
(0 -0.0745338 0)
(0 -0.0750701 0)
(0 -0.074929 0)
(0 -0.0743805 0)
(0 -0.07478 0)
(0 -0.0742197 0)
(0 -0.0746239 0)
(0 -0.0751547 0)
(0 -0.0750005 0)
(0 -0.0744603 0)
(0 -0.0748397 0)
(0 -0.0753515 0)
(0 -0.0751937 0)
(0 -0.0746723 0)
(0 -0.0750308 0)
(0 -0.0744993 0)
(0 -0.0748651 0)
(0 -0.0753641 0)
(0 -0.0752032 0)
(0 -0.0746969 0)
(0 -0.0750366 0)
(0 -0.0755188 0)
(0 -0.0753575 0)
(0 -0.0748602 0)
(0 -0.0751866 0)
(0 -0.0746717 0)
(0 -0.0750017 0)
(0 -0.0744735 0)
(0 -0.074807 0)
(0 -0.0753094 0)
(0 -0.0751187 0)
(0 -0.0746071 0)
(0 -0.0749254 0)
(0 -0.0754106 0)
(0 -0.0752235 0)
(0 -0.0747255 0)
(0 -0.0750263 0)
(0 -0.0745167 0)
(0 -0.0748211 0)
(0 -0.0420749 0)
(0 -0.0720781 0)
(0 -0.064292 0)
(0 -0.0656187 0)
(0 -0.0646874 0)
(0 -0.0660243 0)
(0 -0.0650653 0)
(0 -0.0675439 0)
(0 -0.0780837 0)
(0 -0.078328 0)
(0 -0.0781546 0)
(0 -0.0783897 0)
(0 -0.0782075 0)
(0 -0.0784404 0)
(0 -0.0782505 0)
(0 -0.0784823 0)
(0 -0.0541933 0)
(0 -0.0782865 0)
(0 -0.0785089 0)
(0 -0.0778369 0)
(0 -0.0783104 0)
(0 -0.0785206 0)
(0 -0.0786567 0)
(0 -0.0783221 0)
(0 -0.0785262 0)
(0 -0.0780791 0)
(0 -0.0783242 0)
(0 -0.078523 0)
(0 -0.0787094 0)
(0 -0.0787012 0)
(0 -0.0785109 0)
(0 -0.0786844 0)
(0 -0.0784886 0)
(0 -0.0786577 0)
(0 -0.0788397 0)
(0 -0.0788098 0)
(0 -0.0521667 0)
(0 -0.0789781 0)
(0 -0.0789453 0)
(0 -0.0787725 0)
(0 -0.0789046 0)
(0 -0.0790644 0)
(0 -0.0790217 0)
(0 -0.0788564 0)
(0 -0.0789724 0)
(0 -0.0791255 0)
(0 -0.0790748 0)
(0 -0.079216 0)
(0 -0.079164 0)
(0 -0.0790196 0)
(0 -0.0791086 0)
(0 -0.0792402 0)
(0 -0.0791852 0)
(0 -0.0793069 0)
(0 -0.0792525 0)
(0 -0.0793637 0)
(0 -0.0793071 0)
(0 -0.0794115 0)
(0 -0.0793527 0)
(0 -0.0794528 0)
(0 -0.0793936 0)
(0 -0.0794874 0)
(0 -0.0794294 0)
(0 -0.0795171 0)
(0 -0.0794608 0)
(0 -0.0795423 0)
(0 -0.0794884 0)
(0 -0.0795638 0)
(0 -0.0795122 0)
(0 -0.0795846 0)
(0 -0.0795342 0)
(0 -0.079603 0)
(0 -0.0795547 0)
(0 -0.0796181 0)
(0 -0.0795696 0)
(0 -0.0796307 0)
(0 -0.0795828 0)
(0 -0.079641 0)
(0 -0.079594 0)
(0 -0.0796497 0)
(0 -0.0796021 0)
(0 -0.0796574 0)
(0 -0.0796109 0)
(0 -0.0796644 0)
(0 -0.0796183 0)
(0 -0.0796706 0)
(0 -0.0796243 0)
(0 -0.079676 0)
(0 -0.0796296 0)
(0 -0.0796802 0)
(0 -0.0796354 0)
(0 -0.0796831 0)
(0 -0.0796394 0)
(0 -0.0796855 0)
(0 -0.079641 0)
(0 -0.0796875 0)
(0 -0.0796429 0)
(0 -0.0796893 0)
(0 -0.0796447 0)
(0 -0.0796907 0)
(0 -0.0796466 0)
(0 -0.0796912 0)
(0 -0.0796472 0)
(0 -0.0796913 0)
(0 -0.0796472 0)
(0 -0.0796911 0)
(0 -0.0796467 0)
(0 -0.0796906 0)
(0 -0.0796457 0)
(0 -0.0796904 0)
(0 -0.079645 0)
(0 -0.0796907 0)
(0 -0.0796439 0)
(0 -0.0796891 0)
(0 -0.0796427 0)
(0 -0.0796861 0)
(0 -0.07964 0)
(0 -0.0796825 0)
(0 -0.0796362 0)
(0 -0.0796784 0)
(0 -0.0796323 0)
(0 -0.0796748 0)
(0 -0.0796252 0)
(0 -0.0796708 0)
(0 -0.0796204 0)
(0 -0.0796673 0)
(0 -0.0796194 0)
(0 -0.0796636 0)
(0 -0.079616 0)
(0 -0.0796586 0)
(0 -0.0796101 0)
(0 -0.0796534 0)
(0 -0.0796043 0)
(0 -0.0796478 0)
(0 -0.0795987 0)
(0 -0.0796427 0)
(0 -0.0795939 0)
(0 -0.079636 0)
(0 -0.0795862 0)
(0 -0.0796279 0)
(0 -0.0795785 0)
(0 -0.0796204 0)
(0 -0.0795711 0)
(0 -0.0796124 0)
(0 -0.0795603 0)
(0 -0.0796036 0)
(0 -0.0795492 0)
(0 -0.0795945 0)
(0 -0.0795379 0)
(0 -0.0795835 0)
(0 -0.0795271 0)
(0 -0.0795719 0)
(0 -0.0795166 0)
(0 -0.079561 0)
(0 -0.0795035 0)
(0 -0.0795488 0)
(0 -0.0794886 0)
(0 -0.0795357 0)
(0 -0.0794739 0)
(0 -0.0795217 0)
(0 -0.0795799 0)
(0 -0.0795662 0)
(0 -0.0795068 0)
(0 -0.0795521 0)
(0 -0.0796397 0)
(0 -0.079672 0)
(0 -0.0796966 0)
(0 -0.0797114 0)
(0 -0.0797302 0)
(0 -0.0797299 0)
(0 -0.0795948 0)
(0 -0.0795959 0)
(0 -0.0795805 0)
(0 -0.0795367 0)
(0 -0.0794605 0)
(0 -0.0797305 0)
(0 -0.0795652 0)
(0 -0.0795014 0)
(0 -0.0795477 0)
(0 -0.0792857 0)
(0 -0.0797245 0)
(0 -0.07944 0)
(0 -0.0789696 0)
(0 -0.0797053 0)
(0 -0.0796778 0)
(0 -0.0663785 0)
(0 -0.0654081 0)
(0 -0.0795886 0)
(0 -0.0796095 0)
(0 -0.0794636 0)
(0 -0.0666559 0)
(0 -0.0655117 0)
(0 -0.0669184 0)
(0 -0.0659406 0)
(0 -0.0672009 0)
(0 -0.0661853 0)
(0 -0.0648813 0)
(0 -0.0650086 0)
(0 -0.0636558 0)
(0 -0.0637773 0)
(0 -0.0622371 0)
(0 -0.0624272 0)
(0 -0.0663569 0)
(0 -0.0677949 0)
(0 -0.0607545 0)
(0 -0.0609481 0)
(0 -0.0592035 0)
(0 -0.059369 0)
(0 -0.0610967 0)
(0 -0.0594856 0)
(0 -0.061193 0)
(0 -0.0576347 0)
(0 -0.0249894 0)
(0 -0.0798374 0)
(0 -0.0797905 0)
(0 -0.0798148 0)
(0 -0.0798587 0)
(0 -0.0798373 0)
(0 -0.0798783 0)
(0 -0.0798559 0)
(0 -0.0798937 0)
(0 -0.0798719 0)
(0 -0.0799054 0)
(0 -0.0798857 0)
(0 -0.0799143 0)
(0 -0.0798949 0)
(0 -0.0799205 0)
(0 -0.0799011 0)
(0 -0.0799247 0)
(0 -0.0798099 0)
(0 -0.0799046 0)
(0 -0.0799269 0)
(0 -0.0798733 0)
(0 -0.0653338 0)
(0 -0.0799054 0)
(0 -0.0799267 0)
(0 -0.0724853 0)
(0 -0.0469139 0)
(0 -0.0799041 0)
(0 -0.0799242 0)
(0 -0.0799221 0)
(0 -0.0569963 0)
(0 -0.0589825 0)
(0 -0.0577843 0)
(0 -0.055743 0)
(0 -0.0565648 0)
(0 -0.0585523 0)
(0 -0.0573517 0)
(0 -0.0592732 0)
(0 -0.058093 0)
(0 -0.0560864 0)
(0 -0.0568532 0)
(0 -0.0587991 0)
(0 -0.0576003 0)
(0 -0.0555403 0)
(0 -0.0563165 0)
(0 -0.0583254 0)
(0 -0.0570575 0)
(0 -0.0590161 0)
(0 -0.0577626 0)
(0 -0.0557232 0)
(0 -0.05644 0)
(0 -0.0584463 0)
(0 -0.0571394 0)
(0 -0.0550441 0)
(0 -0.0557623 0)
(0 -0.0578531 0)
(0 -0.0564803 0)
(0 -0.0543263 0)
(0 -0.0550363 0)
(0 -0.0571329 0)
(0 -0.0557098 0)
(0 -0.0535615 0)
(0 -0.0542568 0)
(0 -0.0563361 0)
(0 -0.054902 0)
(0 -0.0569261 0)
(0 -0.0555252 0)
(0 -0.0534094 0)
(0 -0.0540513 0)
(0 -0.0562113 0)
(0 -0.0546885 0)
(0 -0.0525055 0)
(0 -0.0530754 0)
(0 -0.0550848 0)
(0 -0.0535646 0)
(0 -0.0514536 0)
(0 -0.0519803 0)
(0 -0.0540302 0)
(0 -0.0524517 0)
(0 -0.054455 0)
(0 -0.0528646 0)
(0 -0.050785 0)
(0 -0.0511964 0)
(0 -0.053216 0)
(0 -0.0515405 0)
(0 -0.0535043 0)
(0 -0.051819 0)
(0 -0.0536963 0)
(0 -0.0519905 0)
(0 -0.0537062 0)
(0 -0.0520268 0)
(0 -0.0501937 0)
(0 -0.0502743 0)
(0 -0.052069 0)
(0 -0.0502803 0)
(0 -0.0520322 0)
(0 -0.050198 0)
(0 -0.0519251 0)
(0 -0.0500449 0)
(0 -0.0517666 0)
(0 -0.0497837 0)
(0 -0.0480327 0)
(0 -0.047703 0)
(0 -0.0459183 0)
(0 -0.0455225 0)
(0 -0.0436987 0)
(0 -0.0432518 0)
(0 -0.0413702 0)
(0 -0.0408962 0)
(0 -0.0490227 0)
(0 -0.0514736 0)
(0 -0.0389577 0)
(0 -0.0384474 0)
(0 -0.0393398 0)
(0 -0.0365022 0)
(0 -0.0359325 0)
(0 -0.0377932 0)
(0 -0.0339929 0)
(0 -0.0352086 0)
(0 -0.0370098 0)
(0 -0.0552529 0)
(0 -0.0537438 0)
(0 -0.0343057 0)
(0 -0.0359926 0)
(0 -0.075685 0)
(0 -0.0758157 0)
(0 -0.0741191 0)
(0 -0.0739686 0)
(0 -0.0799377 0)
(0 -0.0799485 0)
(0 -0.0799404 0)
(0 -0.0799506 0)
(0 -0.0799427 0)
(0 -0.0799525 0)
(0 -0.0799446 0)
(0 -0.0799543 0)
(0 -0.0799465 0)
(0 -0.079956 0)
(0 -0.0799483 0)
(0 -0.0799575 0)
(0 -0.0799501 0)
(0 -0.079959 0)
(0 -0.0799518 0)
(0 -0.0799603 0)
(0 -0.0799533 0)
(0 -0.0799616 0)
(0 -0.0799548 0)
(0 -0.079963 0)
(0 -0.0799562 0)
(0 -0.0799642 0)
(0 -0.0799575 0)
(0 -0.0799652 0)
(0 -0.0799587 0)
(0 -0.0799661 0)
(0 -0.0799598 0)
(0 -0.0799671 0)
(0 -0.0799609 0)
(0 -0.079968 0)
(0 -0.0799622 0)
(0 -0.0799688 0)
(0 -0.079963 0)
(0 -0.0799696 0)
(0 -0.0799639 0)
(0 -0.0799704 0)
(0 -0.0799648 0)
(0 -0.0799712 0)
(0 -0.0799654 0)
(0 -0.0799718 0)
(0 -0.0799661 0)
(0 -0.0799723 0)
(0 -0.0799665 0)
(0 -0.0799729 0)
(0 -0.0799675 0)
(0 -0.0799735 0)
(0 -0.0799688 0)
(0 -0.0799743 0)
(0 -0.0799696 0)
(0 -0.0799749 0)
(0 -0.0799701 0)
(0 -0.0799754 0)
(0 -0.0799706 0)
(0 -0.0799759 0)
(0 -0.0799711 0)
(0 -0.0799764 0)
(0 -0.0799716 0)
(0 -0.0799769 0)
(0 -0.0799721 0)
(0 -0.0799773 0)
(0 -0.0799726 0)
(0 -0.0799777 0)
(0 -0.079973 0)
(0 -0.0799782 0)
(0 -0.0799735 0)
(0 -0.0799785 0)
(0 -0.079974 0)
(0 -0.0799788 0)
(0 -0.0799742 0)
(0 -0.0799792 0)
(0 -0.0799744 0)
(0 -0.0799796 0)
(0 -0.0799746 0)
(0 -0.0799799 0)
(0 -0.0799751 0)
(0 -0.0799802 0)
(0 -0.0799757 0)
(0 -0.0799805 0)
(0 -0.0799763 0)
(0 -0.0799808 0)
(0 -0.0799767 0)
(0 -0.0799812 0)
(0 -0.079977 0)
(0 -0.0799815 0)
(0 -0.0799772 0)
(0 -0.0799817 0)
(0 -0.0799774 0)
(0 -0.0799819 0)
(0 -0.0799777 0)
(0 -0.0799821 0)
(0 -0.0799781 0)
(0 -0.0799824 0)
(0 -0.0799784 0)
(0 -0.0799626 0)
(0 -0.0799826 0)
(0 -0.0799785 0)
(0 -0.0799828 0)
(0 -0.0799786 0)
(0 -0.079983 0)
(0 -0.0799787 0)
(0 -0.0799689 0)
(0 -0.0799832 0)
(0 -0.0799788 0)
(0 -0.0799832 0)
(0 -0.0799789 0)
(0 -0.0799834 0)
(0 -0.0799791 0)
(0 -0.0799742 0)
(0 -0.0799834 0)
(0 -0.0799793 0)
(0 -0.0799834 0)
(0 -0.0799793 0)
(0 -0.0799835 0)
(0 -0.0799792 0)
(0 -0.0799761 0)
(0 -0.0799836 0)
(0 -0.0799792 0)
(0 -0.0799837 0)
(0 -0.0799791 0)
(0 -0.0799778 0)
(0 -0.0799838 0)
(0 -0.0799789 0)
(0 -0.0799837 0)
(0 -0.0799789 0)
(0 -0.0799837 0)
(0 -0.079979 0)
(0 -0.0799806 0)
(0 -0.0799837 0)
(0 -0.079979 0)
(0 -0.0799836 0)
(0 -0.0799789 0)
(0 -0.0799835 0)
(0 -0.0799787 0)
(0 -0.0799519 0)
(0 -0.0799649 0)
(0 -0.0799372 0)
(0 -0.0799732 0)
(0 -0.0799711 0)
(0 -0.0799675 0)
(0 -0.079983 0)
(0 -0.0799586 0)
(0 -0.0799835 0)
(0 -0.0799785 0)
(0 -0.0799738 0)
(0 -0.0799833 0)
(0 -0.0799782 0)
(0 -0.079983 0)
(0 -0.0799778 0)
(0 -0.079973 0)
(0 -0.0799731 0)
(0 -0.0799837 0)
(0 -0.0799827 0)
(0 -0.0799772 0)
(0 -0.0799451 0)
(0 -0.0799287 0)
(0 -0.0799845 0)
(0 -0.0799824 0)
(0 -0.0799765 0)
(0 -0.0799816 0)
(0 -0.0799756 0)
(0 -0.0799855 0)
(0 -0.0799809 0)
(0 -0.0799747 0)
(0 -0.0799861 0)
(0 -0.0799689 0)
(0 -0.0799805 0)
(0 -0.0799737 0)
(0 -0.0799872 0)
(0 -0.0799799 0)
(0 -0.0799723 0)
(0 -0.0799873 0)
(0 -0.0799788 0)
(0 -0.0799873 0)
(0 -0.0799876 0)
(0 -0.0332011 0)
(0 -0.0315992 0)
(0 -0.0700314 0)
(0 -0.0799556 0)
(0 -0.03471 0)
(0 -0.0375713 0)
(0 -0.0799626 0)
(0 -0.0799874 0)
(0 -0.0799661 0)
(0 -0.0799682 0)
(0 -0.0799722 0)
(0 -0.0799735 0)
(0 -0.0799732 0)
(0 -0.079974 0)
(0 -0.0799011 0)
(0 -0.0798777 0)
(0 -0.0783906 0)
(0 -0.0782529 0)
(0 -0.0784334 0)
(0 -0.0782985 0)
(0 -0.0784736 0)
(0 -0.0783447 0)
(0 -0.0785128 0)
(0 -0.0783789 0)
(0 -0.0785445 0)
(0 -0.0783994 0)
(0 -0.0785707 0)
(0 -0.0784292 0)
(0 -0.0785983 0)
(0 -0.0784673 0)
(0 -0.0786253 0)
(0 -0.0785028 0)
(0 -0.0786494 0)
(0 -0.078524 0)
(0 -0.0786703 0)
(0 -0.0785362 0)
(0 -0.0786834 0)
(0 -0.0785536 0)
(0 -0.0786971 0)
(0 -0.0785701 0)
(0 -0.0787172 0)
(0 -0.0785852 0)
(0 -0.078734 0)
(0 -0.0785991 0)
(0 -0.0784379 0)
(0 -0.0784526 0)
(0 -0.0786124 0)
(0 -0.0784695 0)
(0 -0.0786244 0)
(0 -0.078481 0)
(0 -0.0786336 0)
(0 -0.0784814 0)
(0 -0.0786402 0)
(0 -0.0784863 0)
(0 -0.0786455 0)
(0 -0.0784975 0)
(0 -0.0786482 0)
(0 -0.0784937 0)
(0 -0.0786479 0)
(0 -0.0784906 0)
(0 -0.0786467 0)
(0 -0.078498 0)
(0 -0.0786441 0)
(0 -0.078489 0)
(0 -0.0786373 0)
(0 -0.0784713 0)
(0 -0.078627 0)
(0 -0.0784647 0)
(0 -0.0786154 0)
(0 -0.0784533 0)
(0 -0.0786021 0)
(0 -0.0784404 0)
(0 -0.0785855 0)
(0 -0.0784182 0)
(0 -0.0785637 0)
(0 -0.0783832 0)
(0 -0.0785375 0)
(0 -0.0783521 0)
(0 -0.0781849 0)
(0 -0.0781486 0)
(0 -0.0783186 0)
(0 -0.0781102 0)
(0 -0.0782812 0)
(0 -0.0780651 0)
(0 -0.078238 0)
(0 -0.0780141 0)
(0 -0.0781888 0)
(0 -0.0779576 0)
(0 -0.0781336 0)
(0 -0.0778945 0)
(0 -0.0780713 0)
(0 -0.0778226 0)
(0 -0.0782803 0)
(0 -0.0780022 0)
(0 -0.0777423 0)
(0 -0.0783632 0)
(0 -0.0777743 0)
(0 -0.0783932 0)
(0 -0.0783457 0)
(0 -0.0782285 0)
(0 -0.0775476 0)
(0 -0.0774556 0)
(0 -0.0776539 0)
(0 -0.0773551 0)
(0 -0.0775568 0)
(0 -0.0772408 0)
(0 -0.0774415 0)
(0 -0.0771039 0)
(0 -0.0772855 0)
(0 -0.0769455 0)
(0 -0.0771272 0)
(0 -0.0782631 0)
(0 -0.0783301 0)
(0 -0.0782761 0)
(0 -0.0779392 0)
(0 -0.0799649 0)
(0 -0.0799627 0)
(0 -0.0799537 0)
(0 -0.079951 0)
(0 -0.0799872 0)
(0 -0.0767752 0)
(0 -0.0769717 0)
(0 -0.0799399 0)
(0 -0.0799367 0)
(0 -0.0765873 0)
(0 -0.076781 0)
(0 -0.0799957 0)
(0 -0.0799943 0)
(0 -0.0799959 0)
(0 -0.0799947 0)
(0 -0.0799962 0)
(0 -0.079995 0)
(0 -0.0799964 0)
(0 -0.0799952 0)
(0 -0.0799966 0)
(0 -0.0799955 0)
(0 -0.0799968 0)
(0 -0.0799957 0)
(0 -0.079997 0)
(0 -0.0799959 0)
(0 -0.0799971 0)
(0 -0.0799961 0)
(0 -0.0799973 0)
(0 -0.0799963 0)
(0 -0.0799974 0)
(0 -0.0799965 0)
(0 -0.076374 0)
(0 -0.0765647 0)
(0 -0.076138 0)
(0 -0.076325 0)
(0 -0.0304139 0)
(0 -0.0288494 0)
(0 -0.0361671 0)
(0 -0.0390024 0)
(0 -0.076917 0)
(0 -0.0483265 0)
(0 -0.0799976 0)
(0 -0.0799967 0)
(0 -0.0799869 0)
(0 -0.0799977 0)
(0 -0.0799969 0)
(0 -0.0799978 0)
(0 -0.079997 0)
(0 -0.0589613 0)
(0 -0.0799436 0)
(0 -0.0799979 0)
(0 -0.0799971 0)
(0 -0.0772471 0)
(0 -0.0798736 0)
(0 -0.0798464 0)
(0 -0.0581643 0)
(0 -0.0799947 0)
(0 -0.0799408 0)
(0 -0.079998 0)
(0 -0.0799973 0)
(0 -0.0799962 0)
(0 -0.0799964 0)
(0 -0.0799974 0)
(0 -0.0799965 0)
(0 -0.0799976 0)
(0 -0.0799967 0)
(0 -0.0799977 0)
(0 -0.0799969 0)
(0 -0.0799978 0)
(0 -0.0799971 0)
(0 -0.0799979 0)
(0 -0.0799972 0)
(0 -0.079998 0)
(0 -0.0799973 0)
(0 -0.0767389 0)
(0 -0.0764946 0)
(0 -0.0760651 0)
(0 -0.0762312 0)
(0 -0.0781053 0)
(0 -0.0799981 0)
(0 -0.0799975 0)
(0 -0.0799982 0)
(0 -0.0799976 0)
(0 -0.0766481 0)
(0 -0.0763822 0)
(0 -0.0759435 0)
(0 -0.07609 0)
(0 -0.0756251 0)
(0 -0.0757657 0)
(0 -0.0752728 0)
(0 -0.0754057 0)
(0 -0.0758989 0)
(0 -0.0755282 0)
(0 -0.0750109 0)
(0 -0.0751185 0)
(0 -0.0756282 0)
(0 -0.0752101 0)
(0 -0.0757173 0)
(0 -0.0752867 0)
(0 -0.0747611 0)
(0 -0.0748236 0)
(0 -0.0742696 0)
(0 -0.0743144 0)
(0 -0.0748601 0)
(0 -0.0743286 0)
(0 -0.0748749 0)
(0 -0.074326 0)
(0 -0.074866 0)
(0 -0.0742796 0)
(0 -0.0748292 0)
(0 -0.0742223 0)
(0 -0.0747775 0)
(0 -0.0741769 0)
(0 -0.0747093 0)
(0 -0.0740865 0)
(0 -0.0746088 0)
(0 -0.073965 0)
(0 -0.0737314 0)
(0 -0.0744761 0)
(0 -0.073824 0)
(0 -0.0743129 0)
(0 -0.0736271 0)
(0 -0.0741126 0)
(0 -0.0733993 0)
(0 -0.0799861 0)
(0 -0.0799926 0)
(0 -0.0799983 0)
(0 -0.0799977 0)
(0 -0.079923 0)
(0 -0.0799198 0)
(0 -0.0376021 0)
(0 -0.0404153 0)
(0 -0.0345015 0)
(0 -0.0275956 0)
(0 -0.0260752 0)
(0 -0.0784447 0)
(0 -0.0796205 0)
(0 -0.0777632 0)
(0 -0.0799984 0)
(0 -0.0799978 0)
(0 -0.0799984 0)
(0 -0.0799979 0)
(0 -0.0799986 0)
(0 -0.079998 0)
(0 -0.0799971 0)
(0 -0.0799973 0)
(0 -0.0799981 0)
(0 -0.0799974 0)
(0 -0.0799982 0)
(0 -0.0799975 0)
(0 -0.0799983 0)
(0 -0.0799977 0)
(0 -0.0799985 0)
(0 -0.0799978 0)
(0 -0.0787878 0)
(0 -0.0787698 0)
(0 -0.07879 0)
(0 -0.079995 0)
(0 -0.0799985 0)
(0 -0.0799979 0)
(0 -0.0799986 0)
(0 -0.0799981 0)
(0 -0.0799963 0)
(0 -0.0799987 0)
(0 -0.0799981 0)
(0 -0.079997 0)
(0 -0.0596274 0)
(0 -0.0736764 0)
(0 -0.0799272 0)
(0 -0.0787566 0)
(0 -0.0763823 0)
(0 -0.0767868 0)
(0 -0.0782384 0)
(0 -0.0787047 0)
(0 -0.0799955 0)
(0 -0.0731072 0)
(0 -0.0799972 0)
(0 -0.0785591 0)
(0 -0.0799079 0)
(0 -0.079913 0)
(0 -0.079994 0)
(0 -0.0799494 0)
(0 -0.0798411 0)
(0 -0.0798093 0)
(0 -0.0799987 0)
(0 -0.0799982 0)
(0 -0.0390783 0)
(0 -0.0419099 0)
(0 -0.0751234 0)
(0 -0.0787264 0)
(0 -0.0799967 0)
(0 -0.0788546 0)
(0 -0.0753682 0)
(0 -0.0799988 0)
(0 -0.0799983 0)
(0 -0.0799989 0)
(0 -0.0799984 0)
(0 -0.0799977 0)
(0 -0.0799978 0)
(0 -0.0799985 0)
(0 -0.0799979 0)
(0 -0.0799986 0)
(0 -0.079998 0)
(0 -0.0799987 0)
(0 -0.0799981 0)
(0 -0.0799987 0)
(0 -0.0799982 0)
(0 -0.0799971 0)
(0 -0.0788169 0)
(0 -0.0799978 0)
(0 -0.024747 0)
(0 -0.0232858 0)
(0 -0.024481 0)
(0 -0.0217544 0)
(0 -0.0228045 0)
(0 -0.0201299 0)
(0 -0.0210196 0)
(0 -0.0184148 0)
(0 -0.0191182 0)
(0 -0.0799988 0)
(0 -0.0799983 0)
(0 -0.0799989 0)
(0 -0.0799984 0)
(0 -0.0773383 0)
(0 -0.079999 0)
(0 -0.0799985 0)
(0 -0.0799978 0)
(0 -0.0799979 0)
(0 -0.0799985 0)
(0 -0.079998 0)
(0 -0.0799986 0)
(0 -0.0799982 0)
(0 -0.0799988 0)
(0 -0.0799983 0)
(0 -0.0799957 0)
(0 -0.0799982 0)
(0 -0.0299788 0)
(0 -0.0430481 0)
(0 -0.0443837 0)
(0 -0.0798906 0)
(0 -0.0798962 0)
(0 -0.0736722 0)
(0 -0.0799962 0)
(0 -0.016612 0)
(0 -0.0799989 0)
(0 -0.0799984 0)
(0 -0.0799989 0)
(0 -0.0799985 0)
(0 -0.079999 0)
(0 -0.0799986 0)
(0 -0.0799978 0)
(0 -0.0641012 0)
(0 -0.0728514 0)
(0 -0.0668471 0)
(0 -0.075182 0)
(0 -0.0799985 0)
(0 -0.0735229 0)
(0 -0.0455463 0)
(0 -0.046832 0)
(0 -0.0326942 0)
(0 -0.0292437 0)
(0 -0.0799991 0)
(0 -0.0799987 0)
(0 -0.0799974 0)
(0 -0.079997 0)
(0 -0.0171256 0)
(0 -0.0195995 0)
(0 -0.0799988 0)
(0 -0.0799985 0)
(0 -0.0799988 0)
(0 -0.0479311 0)
(0 -0.0491968 0)
(0 -0.0501974 0)
(0 -0.0514323 0)
(0 -0.0523434 0)
(0 -0.0535545 0)
(0 -0.054367 0)
(0 -0.055544 0)
(0 -0.0562717 0)
(0 -0.0573947 0)
(0 -0.0580735 0)
(0 -0.0566705 0)
(0 -0.0504098 0)
(0 -0.05914 0)
(0 -0.0597666 0)
(0 -0.0174338 0)
(0 -0.0799403 0)
(0 -0.0799565 0)
(0 -0.0681462 0)
(0 -0.0691841 0)
(0 -0.0686125 0)
(0 -0.0696274 0)
(0 -0.0690478 0)
(0 -0.0679894 0)
(0 -0.0684391 0)
(0 -0.0694509 0)
(0 -0.0688717 0)
(0 -0.0677872 0)
(0 -0.0682372 0)
(0 -0.0692923 0)
(0 -0.0686678 0)
(0 -0.0696881 0)
(0 -0.0690744 0)
(0 -0.0679985 0)
(0 -0.0684134 0)
(0 -0.0694627 0)
(0 -0.0688114 0)
(0 -0.0698331 0)
(0 -0.0691984 0)
(0 -0.0681331 0)
(0 -0.0685298 0)
(0 -0.0695394 0)
(0 -0.0688567 0)
(0 -0.0676602 0)
(0 -0.0681756 0)
(0 -0.0691695 0)
(0 -0.0685275 0)
(0 -0.0674996 0)
(0 -0.0678518 0)
(0 -0.0689533 0)
(0 -0.0681814 0)
(0 -0.0671076 0)
(0 -0.0674315 0)
(0 -0.0685771 0)
(0 -0.0677365 0)
(0 -0.0664533 0)
(0 -0.0669509 0)
(0 -0.068036 0)
(0 -0.0672709 0)
(0 -0.0661092 0)
(0 -0.0664283 0)
(0 -0.0675727 0)
(0 -0.0667539 0)
(0 -0.0655022 0)
(0 -0.06586 0)
(0 -0.0670556 0)
(0 -0.066168 0)
(0 -0.0649157 0)
(0 -0.065218 0)
(0 -0.0664345 0)
(0 -0.0654795 0)
(0 -0.0747302 0)
(0 -0.0218318 0)
(0 -0.0232076 0)
(0 -0.0730407 0)
(0 -0.0724383 0)
(0 -0.0387417 0)
(0 -0.0421023 0)
(0 -0.0386851 0)
(0 -0.0420214 0)
(0 -0.038572 0)
(0 -0.0418807 0)
(0 -0.0384618 0)
(0 -0.0421008 0)
(0 -0.0383256 0)
(0 -0.0413038 0)
(0 -0.0356638 0)
(0 -0.0392458 0)
(0 -0.0369516 0)
(0 -0.0404505 0)
(0 -0.038219 0)
(0 -0.0345638 0)
(0 -0.0358833 0)
(0 -0.0394403 0)
(0 -0.0371458 0)
(0 -0.0798028 0)
(0 -0.0797661 0)
(0 -0.0797715 0)
(0 -0.0798341 0)
(0 -0.0380408 0)
(0 -0.079871 0)
(0 -0.0798769 0)
(0 -0.0798645 0)
(0 -0.0799991 0)
(0 -0.0799987 0)
(0 -0.0799981 0)
(0 -0.0799982 0)
(0 -0.0799988 0)
(0 -0.0799983 0)
(0 -0.0799989 0)
(0 -0.0799984 0)
(0 -0.079999 0)
(0 -0.0799985 0)
(0 -0.0799991 0)
(0 -0.0799986 0)
(0 -0.0799991 0)
(0 -0.0799987 0)
(0 -0.079998 0)
(0 -0.0799982 0)
(0 -0.0799988 0)
(0 -0.0799983 0)
(0 -0.0799989 0)
(0 -0.0799984 0)
(0 -0.079999 0)
(0 -0.0799985 0)
(0 -0.0799991 0)
(0 -0.0799986 0)
(0 -0.0799975 0)
(0 -0.040605 0)
(0 -0.0383424 0)
(0 -0.0347254 0)
(0 -0.0359695 0)
(0 -0.0395164 0)
(0 -0.0371968 0)
(0 -0.0607709 0)
(0 -0.0613324 0)
(0 -0.0603875 0)
(0 -0.0618494 0)
(0 -0.0608921 0)
(0 -0.0623072 0)
(0 -0.0612552 0)
(0 -0.0626798 0)
(0 -0.0615935 0)
(0 -0.0629653 0)
(0 -0.0618559 0)
(0 -0.0631635 0)
(0 -0.0620508 0)
(0 -0.0632793 0)
(0 -0.0621917 0)
(0 -0.063464 0)
(0 -0.0666588 0)
(0 -0.0657071 0)
(0 -0.0644674 0)
(0 -0.0334727 0)
(0 -0.0347636 0)
(0 -0.038385 0)
(0 -0.0360071 0)
(0 -0.0410268 0)
(0 -0.0439894 0)
(0 -0.0174411 0)
(0 -0.0198747 0)
(0 -0.0432138 0)
(0 -0.079999 0)
(0 -0.0797227 0)
(0 -0.079726 0)
(0 -0.0799991 0)
(0 -0.039521 0)
(0 -0.0372 0)
(0 -0.0335479 0)
(0 -0.0348199 0)
(0 -0.03834 0)
(0 -0.036012 0)
(0 -0.0799979 0)
(0 -0.079998 0)
(0 -0.0799987 0)
(0 -0.0799982 0)
(0 -0.0799988 0)
(0 -0.0799983 0)
(0 -0.0799989 0)
(0 -0.0799984 0)
(0 -0.079999 0)
(0 -0.0799986 0)
(0 -0.0799991 0)
(0 -0.0799987 0)
(0 -0.039397 0)
(0 -0.0370855 0)
(0 -0.0335832 0)
(0 -0.0346894 0)
(0 -0.0380862 0)
(0 -0.0356973 0)
(0 -0.0321727 0)
(0 -0.0332843 0)
(0 -0.0366468 0)
(0 -0.0343599 0)
(0 -0.0797941 0)
(0 -0.0798251 0)
(0 -0.0319194 0)
(0 -0.0284777 0)
(0 -0.014748 0)
(0 -0.0799991 0)
(0 -0.0799531 0)
(0 -0.0799667 0)
(0 -0.0799695 0)
(0 -0.0799774 0)
(0 -0.0799806 0)
(0 -0.0799745 0)
(0 -0.0799831 0)
(0 -0.0799802 0)
(0 -0.0799871 0)
(0 -0.0307558 0)
(0 -0.0319093 0)
(0 -0.0354002 0)
(0 -0.0329863 0)
(0 -0.079901 0)
(0 -0.0798824 0)
(0 -0.0799048 0)
(0 -0.0798872 0)
(0 -0.0799993 0)
(0 -0.0799993 0)
(0 -0.0799988 0)
(0 -0.0799981 0)
(0 -0.0799982 0)
(0 -0.0799989 0)
(0 -0.0799984 0)
(0 -0.079999 0)
(0 -0.0799985 0)
(0 -0.0799991 0)
(0 -0.0799987 0)
(0 -0.0363462 0)
(0 -0.0339707 0)
(0 -0.030476 0)
(0 -0.0315096 0)
(0 -0.0348724 0)
(0 -0.0324417 0)
(0 -0.0356976 0)
(0 -0.0332821 0)
(0 -0.0299245 0)
(0 -0.0307924 0)
(0 -0.0340365 0)
(0 -0.0315659 0)
(0 -0.0346903 0)
(0 -0.0322354 0)
(0 -0.0290458 0)
(0 -0.029731 0)
(0 -0.0327944 0)
(0 -0.030299 0)
(0 -0.0272074 0)
(0 -0.0277615 0)
(0 -0.0797829 0)
(0 -0.0332327 0)
(0 -0.0622989 0)
(0 -0.0798134 0)
(0 -0.0799083 0)
(0 -0.0798913 0)
(0 -0.0799113 0)
(0 -0.0798955 0)
(0 -0.079914 0)
(0 -0.0798986 0)
(0 -0.0799166 0)
(0 -0.0799007 0)
(0 -0.0799185 0)
(0 -0.0799027 0)
(0 -0.0799198 0)
(0 -0.0799046 0)
(0 -0.0799214 0)
(0 -0.0799064 0)
(0 -0.0798874 0)
(0 -0.0798897 0)
(0 -0.0799082 0)
(0 -0.0798919 0)
(0 -0.0799097 0)
(0 -0.0798942 0)
(0 -0.0799112 0)
(0 -0.079896 0)
(0 -0.0799126 0)
(0 -0.079897 0)
(0 -0.0799136 0)
(0 -0.0798982 0)
(0 -0.0799146 0)
(0 -0.0798995 0)
(0 -0.0799155 0)
(0 -0.0799005 0)
(0 -0.0799162 0)
(0 -0.0799018 0)
(0 -0.0799168 0)
(0 -0.0799022 0)
(0 -0.0799173 0)
(0 -0.0799028 0)
(0 -0.0799179 0)
(0 -0.0799034 0)
(0 -0.0799183 0)
(0 -0.0799034 0)
(0 -0.0799182 0)
(0 -0.0799035 0)
(0 -0.0799183 0)
(0 -0.0799036 0)
(0 -0.0799183 0)
(0 -0.0799037 0)
(0 -0.0798869 0)
(0 -0.0798872 0)
(0 -0.0799038 0)
(0 -0.0798876 0)
(0 -0.079904 0)
(0 -0.0798881 0)
(0 -0.0799041 0)
(0 -0.0798882 0)
(0 -0.079904 0)
(0 -0.0798879 0)
(0 -0.0799039 0)
(0 -0.0798877 0)
(0 -0.0799038 0)
(0 -0.0798876 0)
(0 -0.0799036 0)
(0 -0.0798874 0)
(0 -0.0799033 0)
(0 -0.0798875 0)
(0 -0.0799029 0)
(0 -0.0798868 0)
(0 -0.0799025 0)
(0 -0.0798862 0)
(0 -0.079902 0)