/*--------------------------------*- C++ -*----------------------------------*\
| =========                 |                                                 |
| \\      /  F ield         | OpenFOAM: The Open Source CFD Toolbox           |
|  \\    /   O peration     | Version:  v2012                                 |
|   \\  /    A nd           | Website:  www.openfoam.com                      |
|    \\/     M anipulation  |                                                 |
\*---------------------------------------------------------------------------*/
FoamFile
{
    version     2.0;
    format      ascii;
    class       surfaceVectorField;
    location    "550";
    object      ddtCorrDdt0(Uf);
}
// * * * * * * * * * * * * * * * * * * * * * * * * * * * * * * * * * * * * * //

dimensions      [0 1 -2 0 0 0 0];


internalField   nonuniform List<vector> 
20642
(
(-0.00402279 -0.00155385 -6.61999e-18)
(-0.00499244 -0.002061 -1.16602e-18)
(-0.00360073 -0.00247486 9.98721e-18)
(-0.00622574 -0.00993537 -1.69953e-19)
(-0.00787365 -0.0105146 -1.00266e-19)
(-0.00748648 -0.00840014 -4.72393e-19)
(0.00473016 -0.00150948 2.75305e-18)
(0.00539256 -0.00116383 6.95141e-18)
(0.00533192 -0.00204325 8.01972e-18)
(-3.45447e-05 9.70943e-05 5.27375e-18)
(-3.50288e-05 9.54681e-05 3.94981e-18)
(-3.58308e-05 9.37795e-05 -4.78766e-19)
(-0.00643208 0.000433777 7.48298e-20)
(-0.00759206 0.00114276 2.53013e-19)
(-0.00614494 0.00164701 4.78705e-20)
(-0.00464897 -0.00898089 -1.56394e-19)
(-0.0045611 -0.0111096 9.71211e-20)
(-0.000256657 7.91987e-05 6.46549e-18)
(-0.000233385 6.56728e-05 -3.27716e-19)
(-0.000254059 4.46412e-05 2.33015e-19)
(-0.0402433 0.00617971 -1.11841e-18)
(-0.0485131 0.00580874 1.67659e-18)
(-0.0433263 0.0133987 -9.01605e-19)
(-6.90379e-05 0.000393884 -4.03293e-18)
(-7.97173e-05 0.000382292 -2.47954e-19)
(-8.17252e-05 0.000401314 -1.31185e-18)
(0.00507889 -0.00703774 -1.97756e-18)
(0.011411 -0.0109374 -6.46282e-18)
(-0.0333916 0.00865452 2.53709e-18)
(-0.036349 0.00112062 -7.46389e-19)
(-6.96393e-05 9.01851e-05 -1.14437e-18)
(-7.17543e-05 9.48795e-05 -1.88177e-18)
(-6.63332e-05 8.82585e-05 -3.34849e-18)
(-2.97969e-05 2.85922e-06 -5.82305e-19)
(-2.69014e-05 2.88594e-06 2.12487e-19)
(0.067016 0.105614 -5.70045e-20)
(0.0685888 0.116484 -1.81796e-18)
(0.0855163 0.0958638 3.51456e-18)
(0.00202193 -0.00275731 1.33127e-20)
(0.00214842 -0.00330755 1.91438e-19)
(0.00147243 -0.00305135 2.28907e-20)
(-0.00350481 -0.00122121 -8.21378e-18)
(-0.00457322 -0.000922184 7.0779e-18)
(-5.77506e-05 -2.43233e-06 -4.84003e-20)
(-5.87411e-05 -2.60063e-06 5.3774e-20)
(-4.96312e-05 -1.3876e-06 3.59723e-20)
(-0.028868 0.0104078 3.2372e-18)
(-0.024067 0.01105 -7.33399e-19)
(-0.0261943 0.00671219 1.7093e-21)
(0.00151912 0.00439053 -7.81663e-18)
(0.00202166 0.0044471 -3.85422e-18)
(0.00166419 0.00494445 -4.68308e-18)
(-0.0157865 -0.01531 -1.26821e-17)
(-0.00810501 -0.0156376 -2.93687e-18)
(-0.00833164 -0.0123901 2.52173e-18)
(0.000403878 0.00367047 2.77621e-19)
(0.000742518 0.00404218 6.70116e-20)
(0.000230394 0.00416171 -4.41846e-20)
(-0.000201012 0.000125853 -1.799e-19)
(-0.00017526 0.00012024 -3.25095e-20)
(-0.000195316 0.000150655 -4.09422e-20)
(-0.00126099 0.000730603 7.09417e-18)
(-0.00116048 0.000755122 3.52632e-18)
(-0.00125844 0.000837858 -4.53174e-18)
(-0.000225565 0.000119325 -1.48841e-19)
(-0.00019924 0.00010179 -4.48775e-20)
(1.45248e-05 0.000135415 -4.33324e-18)
(2.52667e-05 0.000127472 -5.08888e-19)
(2.31712e-05 0.000144039 8.90125e-19)
(-0.000860737 0.00575568 -1.43342e-19)
(-0.000443004 0.00519715 -1.4905e-19)
(-0.00119199 0.00512635 -1.15679e-19)
(-0.00427137 -0.0464351 5.23161e-19)
(-0.00068318 -0.0440372 1.83977e-19)
(0.00516184 -0.0392667 -4.05681e-19)
(0.0038437 -0.00256413 2.30399e-18)
(-0.00966192 0.0104331 6.05973e-19)
(-0.00759846 0.0099967 -1.6636e-18)
(-0.00918179 0.00844018 -7.35209e-20)
(-3.4823e-05 0.00011394 2.16707e-20)
(-7.23748e-05 0.000135515 -1.71783e-20)
(-5.78005e-05 9.1698e-05 5.87635e-21)
(0.000514204 -0.0031702 2.15294e-18)
(0.000451781 -0.00361898 6.667e-18)
(1.15781e-05 0.00128087 2.64317e-18)
(7.89025e-05 0.00122809 6.65758e-18)
(8.06969e-05 0.00132817 -3.72725e-18)
(-4.23301e-05 0.000108093 6.05984e-19)
(-4.6942e-05 0.000107217 4.5134e-19)
(-4.3631e-05 0.000102653 -3.92977e-20)
(2.64611e-05 -0.00286114 -1.84322e-18)
(5.22749e-05 -0.00328802 9.58213e-19)
(0.000571017 -0.00325492 3.12932e-18)
(-0.000118541 -0.000260639 -1.35812e-20)
(-6.34475e-05 -0.000242401 -3.85375e-20)
(-5.68437e-05 -0.000328847 -8.51033e-24)
(-0.0550956 -0.000622159 3.59436e-19)
(-0.0585418 0.00877808 1.28961e-18)
(-0.000624977 0.000320982 -3.7737e-19)
(-0.000596088 0.000383711 4.74297e-19)
(-0.000694579 0.000383727 -4.29465e-19)
(-7.28993e-05 -4.28689e-07 -2.33381e-19)
(-8.53966e-05 -1.09714e-06 1.06243e-19)
(-7.11846e-05 -6.0934e-07 6.08562e-19)
(-0.000279179 9.15318e-05 5.96603e-18)
(-0.000256128 0.000109238 -5.66897e-18)
(0.00358934 0.000103765 1.27341e-18)
(0.00396244 -0.00020011 -4.55715e-19)
(0.00338884 -0.000339427 -3.00972e-19)
(-2.41332e-05 -9.75475e-08 -4.81946e-20)
(-2.11927e-05 1.01926e-07 -3.3292e-20)
(-3.05786e-05 -1.22705e-06 8.63975e-20)
(0.000731965 -0.000406951 -3.78813e-20)
(0.00094236 -0.000589484 -4.2796e-20)
(0.000659407 -0.000606336 -2.61777e-20)
(-2.97767e-05 0.000325368 1.98456e-18)
(-3.7243e-05 0.000315105 -1.97514e-18)
(-2.46989e-05 0.000317207 -5.19871e-18)
(0.00173258 0.00221221 1.82968e-18)
(0.00164588 0.0019824 7.24207e-18)
(0.00193481 0.00206687 4.74013e-18)
(0.00147744 0.00237631 -5.44897e-18)
(0.00176154 0.00256559 -2.50229e-18)
(-0.0329018 0.00111157 9.56113e-19)
(-0.0302212 0.00194382 -7.13693e-19)
(-0.0333745 0.00424919 3.94593e-19)
(9.5276e-05 0.00323422 -2.03277e-19)
(0.000566802 0.00315169 5.5323e-19)
(0.0801789 0.0237097 -5.22193e-18)
(0.0685353 0.0177865 3.94578e-19)
(0.0700085 0.0319707 8.002e-18)
(-0.137465 -0.135337 -1.64402e-18)
(-0.132131 -0.106808 3.11688e-18)
(-0.136138 -0.127212 3.54695e-18)
(-0.000151119 -0.000217402 -2.84595e-20)
(-0.000170669 -0.000293897 -1.01222e-20)
(-7.24301e-05 9.27811e-05 1.53943e-18)
(-6.82727e-05 8.67903e-05 1.33396e-18)
(-0.0125186 0.00375396 -9.72066e-19)
(-0.0140337 0.00361397 2.80154e-18)
(-0.0130122 0.00238952 3.70267e-18)
(0.00426232 -0.000110275 1.21099e-18)
(0.00538355 -0.000335857 -9.46465e-19)
(0.00452921 -9.31716e-05 -3.46307e-18)
(-0.000114589 4.63694e-05 2.18956e-19)
(-0.000109378 4.83572e-05 -7.82428e-19)
(-0.000109916 3.75577e-05 -5.96404e-20)
(-0.000129519 6.6742e-05 1.10234e-18)
(-0.000122701 6.60797e-05 -9.12729e-19)
(-0.000124729 7.57684e-05 4.39264e-19)
(-0.0116665 0.00385363 -1.69587e-18)
(-0.0121757 0.00510351 1.85904e-18)
(-0.0101384 -0.00492102 1.76957e-18)
(-0.00137399 0.000672488 1.49641e-18)
(-0.00124928 0.000588518 -2.01535e-18)
(0.000591985 -0.000268328 1.51191e-19)
(0.000751772 -0.000170358 6.1094e-20)
(-0.0363891 -0.00014837 -9.98378e-19)
(-0.0328703 -0.00241682 8.79009e-19)
(-0.00150102 0.0939021 2.76423e-18)
(0.00400126 0.101478 2.74889e-19)
(0.0171946 0.101633 2.12378e-18)
(0.00417746 -0.00835555 2.94124e-19)
(0.00285992 -0.00937483 -1.07142e-19)
(0.00270369 -0.00742063 3.04051e-21)
(-1.77336e-05 -1.27841e-06 -1.3116e-19)
(-1.81395e-05 -1.13851e-06 1.13941e-20)
(-1.72573e-05 -1.86379e-06 2.03696e-20)
(5.80424e-06 0.000124534 -1.04191e-18)
(1.8437e-06 0.000139437 2.34661e-19)
(0.00134304 -0.00121968 -2.63193e-18)
(0.00161542 -0.000123024 -1.26488e-17)
(0.00169571 -0.00140403 -6.80473e-18)
(0.00551452 0.0144215 -3.08893e-20)
(0.00332845 0.0116613 2.192e-19)
(0.00657154 0.0118107 -8.25127e-20)
(-0.0117039 0.0108637 6.22204e-19)
(-0.0142598 0.0112284 -2.76195e-18)
(-0.0133783 0.00873748 1.19307e-18)
(-0.0494802 -0.00883841 -4.32993e-20)
(-0.059973 -0.0100883 -2.78902e-18)
(-0.0306319 0.0153203 2.0845e-18)
(0.00182316 -0.00109285 3.18824e-18)
(0.00140858 -0.000773337 -6.54036e-18)
(0.00187608 -0.000723974 -1.02623e-18)
(-0.000262879 -0.00288102 -3.72702e-18)
(0.00048209 -0.00138103 -5.36339e-18)
(-0.000346108 -0.0024807 3.68721e-18)
(-0.000397466 -0.00258459 2.85799e-18)
(0.000110308 -0.00252323 -9.36457e-18)
(-9.12101e-06 0.000114483 -9.38069e-19)
(-8.16172e-06 0.000118772 -2.52401e-18)
(-1.20244e-05 0.000110864 -1.04882e-18)
(0.000457555 -0.000175965 1.12315e-19)
(0.000428049 -0.000313373 6.53159e-20)
(0.00118451 0.00439399 1.19008e-19)
(0.00129883 0.00385139 -1.0845e-19)
(7.36904e-06 0.00031068 1.79427e-18)
(3.68705e-05 0.00030844 -1.18897e-18)
(1.03785e-05 0.000337905 1.69238e-20)
(-0.00194993 0.00107684 -1.64904e-19)
(-0.0020737 0.00136348 -3.47687e-19)
(-0.0016193 0.00131454 -3.4365e-19)
(0.000356125 -0.000117647 -1.45536e-19)
(0.000447205 -2.37595e-05 8.13072e-20)
(6.62347e-06 0.000276319 -1.76265e-19)
(-2.51589e-05 0.000304587 -2.23621e-19)
(-4.08283e-05 0.000110602 -5.5394e-19)
(-3.90589e-05 0.000106164 -5.46715e-19)
(2.90131e-05 -0.000142032 1.26966e-20)
(5.46066e-05 -0.000115553 -3.96102e-19)
(1.794e-05 -0.000104761 5.3773e-19)
(-6.82933e-05 -1.88379e-06 -1.62441e-20)
(-6.77029e-05 -2.21542e-06 -4.26262e-20)
(-5.82597e-05 -1.0395e-06 -9.27912e-21)
(-5.34609e-06 0.000118263 -1.55768e-18)
(-9.11956e-06 0.000109584 1.7038e-18)
(-0.00127411 -0.007481 3.08616e-19)
(-0.000794914 -0.0075974 -9.95989e-19)
(-0.00086228 -0.00729778 -1.34893e-18)
(-6.90872e-05 1.16069e-05 1.23497e-18)
(-6.90436e-05 1.38672e-05 -1.71087e-19)
(-7.09673e-05 1.03986e-05 3.1601e-19)
(-0.00909385 0.0476374 4.77775e-19)
(-0.0044987 0.0525996 2.2898e-20)
(-0.0125379 0.0529901 5.87627e-19)
(-4.28628e-05 0.00121111 2.58089e-18)
(-7.19201e-05 0.00129856 1.09732e-18)
(-6.95059e-05 5.88969e-06 -7.47036e-19)
(-7.12515e-05 5.38139e-06 4.50638e-19)
(-6.96271e-05 3.76237e-06 1.7056e-19)
(0.00319025 0.000369522 1.96854e-18)
(0.00365778 0.000636615 -5.60576e-19)
(-5.6212e-05 -2.27385e-06 -5.44307e-20)
(-6.03738e-05 -3.26234e-06 -1.14151e-20)
(-6.05757e-05 -2.59675e-06 4.34731e-20)
(-6.00937e-05 -2.06536e-06 -7.15803e-20)
(-6.10174e-05 -2.39436e-06 1.11304e-19)
(-3.73978e-05 0.000334071 9.87698e-18)
(-0.134761 -0.157242 -5.50323e-18)
(-0.135894 -0.149947 -2.6128e-18)
(2.76332e-05 -4.88383e-05 -1.56865e-20)
(5.56693e-05 -3.27721e-05 -2.61546e-20)
(2.0293e-05 -2.49075e-05 -5.77713e-21)
(-0.000204112 2.97163e-06 -6.58867e-19)
(-0.000185437 -1.59945e-05 2.09941e-19)
(-0.000209735 -2.53764e-05 -7.38596e-19)
(-0.00969008 0.012959 -3.63945e-19)
(0.0473005 -0.00713429 5.74418e-19)
(0.0539487 -0.00643277 3.72081e-19)
(0.0589369 0.000987372 3.64137e-19)
(-7.55504e-05 -2.62772e-06 -6.26338e-20)
(-7.68453e-05 -2.67489e-06 1.07828e-19)
(-6.82974e-05 -1.38012e-06 -4.11991e-20)
(-6.91542e-05 7.89272e-06 8.33635e-19)
(-6.77166e-05 6.2979e-06 -4.59084e-19)
(0.0311031 -0.00755206 7.96755e-19)
(0.0285316 -0.00461862 8.94043e-19)
(0.0315145 -0.00304567 2.31549e-19)
(-2.4375e-05 -1.27964e-06 -2.70045e-20)
(-2.51917e-05 -1.27399e-06 -4.83832e-20)
(-2.35859e-05 -5.99186e-07 4.50508e-20)
(-2.36659e-05 -1.31644e-06 2.66121e-20)
(-2.50439e-05 -2.09661e-06 -3.2725e-20)
(3.22182e-05 -0.000176277 -1.85704e-19)
(-3.89426e-06 -0.000149967 4.02584e-19)
(-8.54593e-05 -3.48252e-06 -4.36585e-20)
(-8.62884e-05 -2.44036e-06 -3.9895e-20)
(-8.41296e-05 -2.23365e-06 2.74257e-21)
(-0.00176788 0.000710564 2.00869e-19)
(-0.00216116 0.000622005 1.28538e-19)
(-0.00143918 0.00275364 -6.07193e-19)
(-0.00150833 0.00296199 1.53095e-18)
(-0.00198762 0.00283201 -3.96437e-18)
(0.0196555 -0.0124435 -7.78527e-18)
(0.0154509 -0.014288 6.95827e-18)
(0.0204174 -0.0181166 -1.95028e-18)
(0.0053044 -0.00694799 1.35251e-19)
(0.00729109 -0.00902229 -4.04548e-19)
(0.00123411 -0.000469858 1.97237e-19)
(0.00115088 -0.000825214 -1.35425e-19)
(-0.00472268 -0.0479553 1.22863e-18)
(-0.0091754 -0.0513423 -4.20627e-19)
(-3.29122e-06 1.2699e-05 -9.15409e-19)
(-1.71074e-06 1.62804e-05 -1.85257e-18)
(0.000170135 -0.00377455 6.25839e-18)
(-0.000421618 -0.00343995 -1.16765e-18)
(-0.00609536 0.00942802 -4.51338e-19)
(-0.00591899 0.0113622 -8.42461e-19)
(0.0012774 -0.00247842 5.5324e-18)
(0.000740467 -0.00142016 1.38213e-17)
(-1.71504e-05 0.000465404 2.14205e-18)
(3.2453e-05 0.000468014 1.09343e-18)
(-6.12116e-06 0.000415476 -4.65783e-19)
(0.00103587 0.00433568 2.25028e-18)
(0.00134677 0.00398393 7.20488e-18)
(-4.77441e-05 -4.53971e-06 1.3778e-20)
(-4.87795e-05 -6.28471e-06 1.04192e-20)
(-4.97846e-05 -5.02475e-06 -9.77764e-21)
(0.00544286 0.00105984 2.13112e-18)
(0.00508838 0.000453325 -2.1119e-18)
(0.00482669 0.00116997 6.7804e-18)
(1.54654e-05 0.000121521 -2.78264e-18)
(1.12545e-05 0.000121758 7.1874e-19)
(1.13384e-05 0.000116357 -8.77536e-19)
(-7.28738e-05 -2.33704e-06 -4.80851e-20)
(-6.81693e-05 -1.59969e-06 -2.8197e-20)
(0.000183361 -0.000180463 5.57989e-20)
(0.000102843 -0.000178413 -3.66751e-20)
(0.000126619 -0.000123629 -3.47127e-20)
(-0.0168886 0.0112647 -2.34969e-18)
(-0.0146846 0.0142325 -1.56804e-18)
(-0.00316692 0.00531786 -1.19612e-18)
(-0.00375946 0.00529018 4.55575e-18)
(-0.00338006 0.00469499 4.55876e-18)
(0.00664797 -0.000483291 1.04167e-18)
(0.00678351 -0.000690423 -2.25544e-18)
(0.00638721 -0.000488933 -4.522e-18)
(-0.0012034 -0.0075187 7.9975e-18)
(-0.00105196 -0.00734668 -1.10558e-17)
(-1.23878e-06 0.000118025 -2.33966e-19)
(-7.66292e-06 0.000110567 2.17147e-19)
(-1.16238e-05 0.000120243 -7.54716e-19)
(0.00105636 0.00501821 -3.9878e-20)
(0.0017065 0.00479122 7.77647e-20)
(-8.2322e-05 2.96927e-05 1.64307e-20)
(-9.30411e-05 3.16303e-05 1.20604e-19)
(-8.55542e-05 1.94945e-05 6.30653e-20)
(-0.00261609 0.00516681 -4.7395e-18)
(-0.00285884 0.00576645 -5.09891e-18)
(-0.000323347 0.000554299 4.83393e-18)
(-0.000348819 0.000558398 7.85781e-18)
(-0.00032588 0.000578406 7.46388e-18)
(-0.0097295 -0.0358851 -9.45736e-19)
(-0.0106698 -0.0319369 1.4993e-20)
(-0.0132405 -0.0352642 -1.26167e-18)
(0.00178971 0.000954001 -4.06077e-18)
(0.00279474 0.000692352 -8.24762e-19)
(0.00309659 0.000415134 -2.39649e-18)
(-2.98822e-05 0.000525876 1.33589e-18)
(-6.76335e-05 0.00047106 -4.82543e-19)
(0.000390147 0.00142405 -8.0376e-18)
(0.000458931 0.0015296 -2.50306e-18)
(0.000541862 0.00138996 -2.44421e-18)
(-0.00349874 -0.049744 -3.61097e-19)
(0.000891654 -0.0436995 3.80952e-19)
(-0.0144636 0.108004 8.58322e-19)
(-0.0173106 0.0989996 -1.2927e-18)
(-0.0313507 0.0950739 -4.34713e-19)
(0.00887024 -0.000105525 2.53401e-18)
(0.0089604 -9.42971e-05 -4.74104e-18)
(0.00895253 -0.000176736 -5.12571e-21)
(-0.00197223 0.00709885 -4.41854e-21)
(-0.00129393 0.00630202 1.10752e-19)
(-0.00244377 0.00631527 1.75689e-19)
(-7.24281e-05 -5.16431e-07 -9.46694e-19)
(0.0679602 0.107991 -2.25828e-18)
(0.0785887 0.0906807 -9.7644e-19)
(0.0873369 0.079669 5.73386e-19)
(0.000263808 -0.000156524 -4.00467e-20)
(0.000257416 -6.74409e-05 -5.83059e-20)
(-0.00158322 0.00225371 -1.91514e-18)
(-0.00134951 0.00272409 5.01543e-18)
(-9.40525e-05 2.55371e-05 -8.47346e-19)
(-9.46112e-05 2.66698e-05 -3.39058e-19)
(-9.68823e-05 3.0007e-05 -1.99491e-19)
(-1.43677e-05 9.28105e-05 2.12261e-19)
(-1.43082e-05 9.67792e-05 -4.83276e-19)
(-1.767e-05 9.00025e-05 3.35836e-19)
(0.00455238 -0.000529783 1.31869e-21)
(0.00445592 0.000694239 4.95916e-20)
(0.00385821 -0.000170859 3.51935e-20)
(-4.32294e-05 -0.00367448 2.83703e-18)
(-0.000697129 -0.00421014 -1.80389e-18)
(0.0571789 0.0306086 -7.44422e-19)
(0.0650971 -0.000208201 -1.37623e-17)
(0.059293 -0.0102762 -2.1533e-17)
(0.0569048 -0.0177372 1.10615e-17)
(-0.000119783 5.65893e-05 -3.20334e-19)
(-0.000121819 4.49299e-05 -8.9453e-20)
(0.00282986 0.000544038 2.13587e-19)
(0.00253128 0.000698905 -2.4947e-19)
(0.00283686 0.000978201 8.54656e-19)
(-2.12546e-05 -8.46836e-07 -1.07126e-20)
(-2.16156e-05 -1.16343e-06 1.29267e-19)
(-2.14557e-05 -1.29267e-06 1.4425e-20)
(-1.47272e-05 8.88589e-05 1.21272e-18)
(-1.16525e-05 9.5726e-05 2.38303e-18)
(0.0332696 -0.0175643 -5.11642e-19)
(0.0413313 -0.00916661 3.45352e-18)
(-0.000480681 -0.000319352 -3.00906e-20)
(-0.00058354 -0.000382128 -1.77763e-20)
(-0.000483215 -0.000446109 -2.44594e-20)
(-8.47103e-05 -4.54054e-06 1.3136e-19)
(-8.51274e-05 -4.38176e-06 -7.17621e-21)
(0.00242241 0.00103399 -1.27101e-18)
(0.00231577 0.00113656 3.77825e-20)
(0.00346048 0.000799611 -2.74225e-18)
(-3.84507e-05 -2.19449e-06 -3.00634e-21)
(-3.7495e-05 -1.87636e-06 6.45674e-21)
(-3.24069e-05 -9.80317e-07 2.19882e-20)
(-4.55974e-05 -3.90876e-06 1.2547e-20)
(-4.52954e-05 -3.0212e-06 -6.50699e-20)
(-7.80186e-05 1.97872e-06 -4.94892e-19)
(-7.85345e-05 2.83537e-06 -8.07292e-19)
(-7.88839e-05 1.12195e-06 4.49964e-19)
(0.0169994 0.0250064 -3.35082e-19)
(0.0156577 0.0225813 -4.41902e-18)
(0.0185559 0.0231207 3.24883e-20)
(-0.00180865 -0.000193625 2.20337e-19)
(-0.0016048 -3.57612e-05 2.31541e-19)
(-0.00156787 -0.000291117 3.87563e-20)
(0.0395563 0.139812 -2.85844e-19)
(0.014528 0.0623233 2.23806e-18)
(0.0193476 0.0573927 2.89619e-18)
(0.0167765 0.0554212 5.162e-18)
(0.0445639 -0.00827971 -1.21516e-18)
(0.0371421 -0.00932332 3.54486e-19)
(0.0383234 -0.00485814 9.76405e-20)
(0.00402188 -6.56274e-05 -3.2799e-18)
(0.0646496 0.0689028 7.22641e-19)
(0.0439424 0.0702234 1.96794e-18)
(0.0627002 0.0725805 1.77535e-18)
(-1.45229e-05 -1.5783e-05 -6.59294e-21)
(-1.52358e-05 -1.76683e-05 -1.82665e-20)
(-1.29316e-05 -1.68951e-05 -3.42515e-21)
(-0.00287813 0.00763521 -1.26776e-19)
(-0.00165006 0.00813341 7.63196e-20)
(-0.000262687 0.00012382 -1.42416e-19)
(-0.000311289 0.000128082 1.7874e-19)
(-0.000272413 0.000161304 -2.93505e-20)
(0.00500515 -0.00290246 1.91319e-18)
(0.00461878 -0.00222108 -5.17319e-18)
(0.00562966 -0.00266216 2.0129e-18)
(-5.6401e-05 0.000389151 -1.72777e-18)
(-0.034064 0.081737 3.02397e-19)
(-0.0176345 0.0890505 -9.46379e-19)
(-0.0319399 0.0853966 -5.77544e-19)
(-0.00575253 -0.00474199 -4.62906e-18)
(-0.00558453 -0.0041379 -2.24252e-18)
(-0.00628774 -0.00423878 5.32903e-20)
(-3.17438e-05 -3.36593e-07 4.33616e-20)
(-3.43599e-05 -7.65162e-07 9.74268e-21)
(-3.17032e-05 -3.55506e-07 1.07086e-20)
(-3.50026e-05 0.00010201 2.67541e-18)
(-3.34451e-05 0.000100677 -2.43931e-18)
(-0.0154151 0.00358456 8.39266e-19)
(-0.0173419 0.00346963 4.10507e-18)
(-0.0159987 0.00205679 3.63919e-18)
(-0.00029785 0.000550249 -6.37737e-18)
(-0.000318179 0.000525993 -2.82463e-18)
(-0.00205969 -2.24253e-05 -9.79822e-20)
(-0.00201101 -0.000410563 7.06287e-20)
(-4.29833e-05 0.000302831 6.57354e-19)
(-3.82317e-05 0.000292617 -1.5013e-18)
(-5.17149e-05 0.000289086 2.58897e-18)
(-0.000251204 0.000101087 1.61312e-19)
(-7.44763e-05 9.41602e-05 -4.82389e-19)
(-7.72004e-05 9.75703e-05 -4.72822e-19)
(-0.0124669 0.016041 -2.89267e-18)
(-0.0111367 0.0154109 -2.06513e-18)
(-0.0115709 0.0175529 -2.05771e-18)
(0.00589075 0.0016904 -6.44188e-18)
(0.0063063 0.000813983 -8.10278e-19)
(-0.00541649 -0.0370145 -9.14393e-19)
(-0.00882703 -0.0413137 -3.24504e-19)
(-7.29656e-05 9.05282e-05 -9.94076e-19)
(-7.77596e-05 9.55105e-05 -8.95723e-19)
(-0.0147943 0.0171165 2.11244e-18)
(-0.0140924 0.0145768 -9.04865e-19)
(6.65295e-06 0.000132928 6.88238e-21)
(-1.03587e-05 8.70252e-05 -2.5786e-20)
(-0.0139619 0.0425226 4.61351e-19)
(-0.00596974 0.0418828 1.26634e-18)
(-0.00524457 -0.00536001 -1.20884e-19)
(-0.0061621 -0.00554683 -3.29798e-18)
(0.00123947 0.00245822 1.37648e-18)
(0.00122021 0.00220991 -1.33047e-18)
(-0.00770107 0.0121558 5.18819e-18)
(-0.0068636 0.0112781 -1.00254e-18)
(-0.00818251 0.0109266 4.39617e-19)
(-0.00555474 -0.00272057 -4.6591e-18)
(-0.00491573 -0.00385087 6.43195e-18)
(-0.00669225 -0.00369014 1.0858e-17)
(3.21687e-05 -7.23211e-05 3.07478e-20)
(1.18353e-05 -5.85951e-05 -1.38191e-20)
(0.00574851 -0.000615036 1.53055e-19)
(0.00620205 -0.000870941 4.48588e-18)
(0.0060511 -0.000613851 -2.3885e-18)
(0.000205482 -7.52854e-05 -7.17841e-19)
(0.000250106 -8.15218e-05 4.34661e-18)
(0.000225266 -3.71156e-05 1.31614e-18)
(0.000685854 0.00122197 2.95652e-18)
(0.000390732 0.00148961 3.17936e-18)
(-3.55222e-06 -0.000218138 -4.87821e-20)
(-4.93232e-05 -0.000185019 -1.38191e-19)
(-0.00039147 -0.000272986 -4.48551e-21)
(-0.00046585 -0.000214813 -5.87601e-21)
(7.35044e-05 0.0025116 5.91719e-19)
(0.000361995 0.00238903 1.25111e-19)
(0.000128502 0.00218061 2.0548e-19)
(0.000472527 -0.000756146 3.48017e-18)
(0.000995354 -0.000773857 -1.3819e-18)
(0.000831624 -0.00109209 5.25938e-18)
(0.00877261 -0.000101643 2.11854e-18)
(0.0086196 -1.36119e-05 1.08601e-18)
(-0.000574908 -1.57558e-05 9.58458e-19)
(-0.000646602 -8.08123e-07 -2.71716e-19)
(-0.000620131 -8.92208e-05 -1.53276e-19)
(-0.00930168 -0.0523985 -2.5372e-18)
(-0.00166652 -0.0504576 2.83708e-19)
(-0.0135967 -0.0565219 -5.05383e-18)
(-0.00682067 0.00235576 -6.48036e-20)
(-0.00717989 0.00119316 -6.01584e-21)
(-0.00612079 0.00162216 1.22854e-19)
(0.00277586 0.000166136 -4.47788e-19)
(0.00023203 -0.000257468 1.44877e-19)
(-0.0149151 0.00503766 -1.64836e-18)
(7.06604e-05 -9.03584e-05 -4.08365e-19)
(9.68686e-05 -0.00012236 -1.22142e-21)
(-9.02181e-05 2.63344e-06 -9.38671e-20)
(-8.92021e-05 2.1588e-06 3.56078e-20)
(-9.10577e-05 5.50339e-06 -1.3063e-19)
(-0.0153464 4.93993e-05 -8.15975e-19)
(-0.0132514 -0.00156776 -6.24908e-19)
(-0.0125186 0.000920931 1.61079e-18)
(-0.0186516 -0.000601327 8.2193e-19)
(-0.0173833 0.00295322 -3.76837e-19)
(0.0608175 0.0152312 8.05022e-18)
(0.000260499 0.00143474 6.87825e-18)
(0.000340722 0.00133921 -3.96192e-19)
(-0.000434101 0.00646872 1.44756e-19)
(0.00752365 0.00168469 5.52092e-19)
(0.00912906 0.00317328 3.74997e-18)
(0.00738173 0.00400734 -5.17604e-19)
(-8.04918e-05 1.21349e-06 6.64472e-19)
(-7.85653e-05 4.36963e-07 -7.26524e-19)
(-7.91072e-05 2.4196e-06 3.52908e-19)
(-7.93591e-05 -1.24441e-05 2.5495e-21)
(-8.25641e-05 -1.39557e-05 8.65407e-21)
(-7.78257e-05 -1.1928e-05 4.86031e-20)
(-8.00004e-05 -1.37966e-05 -3.10573e-20)
(-7.596e-05 -1.11481e-05 -4.01534e-20)
(0.0642832 0.0654834 2.99388e-18)
(-0.0100951 0.0145162 7.70388e-19)
(-0.00866924 0.0131908 5.53412e-18)
(-0.0106339 0.0129308 -9.35251e-19)
(-0.0167324 0.0181959 2.98921e-19)
(-0.0191361 0.0192746 -5.69361e-19)
(-0.0185081 0.0165353 -9.36632e-19)
(-2.44307e-05 1.44995e-05 3.26479e-19)
(-2.5292e-05 1.58504e-05 2.54401e-19)
(-2.31057e-05 1.65202e-05 -3.23744e-18)
(-1.70247e-05 -1.09052e-06 -1.60378e-20)
(-1.93063e-05 -3.92327e-07 -2.02056e-20)
(-0.00730611 -0.055908 1.6617e-19)
(-0.000737658 -0.0535461 -1.96044e-18)
(0.00540019 -0.000652461 1.96031e-18)
(-7.04517e-05 -9.74345e-06 -4.51348e-21)
(-7.21456e-05 -9.86135e-06 2.53776e-20)
(-7.2762e-05 -1.1597e-05 -9.51219e-20)
(-6.92889e-05 -9.76592e-06 -4.5018e-21)
(-6.86721e-05 -7.98815e-06 -4.28485e-20)
(-2.9532e-05 2.65477e-07 6.594e-20)
(-1.98603e-05 -3.84543e-07 1.389e-22)
(-8.06875e-05 -1.6143e-05 6.13263e-20)
(-8.56482e-05 -1.78525e-05 7.19904e-20)
(-7.93652e-05 -2.00239e-05 1.31973e-20)
(-7.65008e-05 -1.49724e-05 6.27117e-20)
(-0.000632244 -0.00212254 3.47246e-18)
(-0.000804834 -0.0024499 8.9249e-18)
(0.0569601 0.0179097 3.46278e-18)
(0.0550559 0.0280296 -1.22139e-18)
(0.0500553 0.0208389 5.10119e-18)
(8.88523e-06 9.25298e-05 8.09087e-20)
(-1.52826e-05 8.85219e-05 -4.86949e-19)
(2.76133e-06 7.03788e-05 -5.96533e-19)
(-2.17757e-05 -2.50795e-05 -1.12993e-21)
(-2.33078e-05 -2.5805e-05 2.69157e-21)
(-2.32462e-05 -2.35476e-05 -7.25791e-21)
(-0.00615044 0.00103198 -9.48436e-19)
(-0.00638934 0.000402596 -6.67742e-19)
(-0.00578056 0.00056164 -1.75955e-18)
(0.00225293 -0.00210988 7.95702e-19)
(0.00175698 -0.00176261 -8.4042e-18)
(0.00177587 -0.00217574 4.44351e-18)
(-5.08533e-05 -2.27918e-06 -2.51489e-20)
(-4.74269e-05 -1.5674e-06 1.95098e-20)
(-4.64971e-05 -1.64611e-06 6.45625e-20)
(-2.62207e-05 1.48209e-05 -6.1944e-19)
(-2.55e-05 1.31637e-05 1.43127e-18)
(-0.00532343 -0.0479394 1.40878e-18)
(-0.0119573 -0.0542341 2.30676e-19)
(-0.00156269 0.00174911 8.22461e-20)
(-0.00163799 0.001041 4.33097e-18)
(-0.00152107 0.00152042 6.26912e-18)
(-0.00927444 0.0156375 9.81982e-19)
(0.00591795 0.000589367 6.26706e-18)
(0.00718971 -0.000430295 -8.90298e-18)
(-0.0112446 -0.00599681 -6.89846e-19)
(-0.0108175 -0.00718357 4.72532e-20)
(-0.0122488 -0.00696481 9.49755e-19)
(-9.21271e-05 2.16715e-05 -2.84605e-19)
(-9.40313e-05 2.45569e-05 -8.04434e-19)
(0.0275073 0.0654792 -1.76054e-18)
(0.0239145 0.070132 3.88595e-19)
(-0.00592224 0.00157514 -1.26009e-18)
(-0.00660852 0.00151909 4.29995e-18)
(-0.00477616 0.00893174 1.10473e-18)
(-0.00623607 0.00800438 1.20744e-19)
(-0.000700528 0.00264474 2.92078e-18)
(-0.000666644 0.00285912 3.71602e-18)
(-0.000457177 0.00271312 -3.1535e-18)
(-0.000508121 -3.14323e-05 -8.65094e-20)
(-0.000527745 3.56817e-05 4.96424e-19)
(0.0566551 0.0099771 -9.57199e-19)
(7.78384e-06 0.000121269 -2.09406e-18)
(5.07422e-06 0.000115533 -2.91878e-18)
(4.92346e-06 0.000119782 -7.04405e-19)
(0.000687726 -0.00267953 1.73027e-19)
(0.000727633 -0.00291763 -5.05172e-19)
(0.000414103 -0.00279695 7.96382e-19)
(-0.00497082 -0.00378786 1.77785e-18)
(-0.00442279 -0.0033265 4.7194e-19)
(-0.00437181 -0.00398393 2.83757e-18)
(1.35676e-05 0.000156581 -3.47106e-19)
(1.05884e-05 0.000118497 4.47977e-19)
(-1.72189e-05 0.000148633 -4.88021e-19)
(-2.12496e-05 -2.01714e-07 8.58881e-20)
(6.35341e-06 0.000111354 -1.9624e-18)
(-0.00384432 -0.00401938 -3.04535e-19)
(-0.00298822 -0.00340021 -1.15246e-19)
(-0.00281715 -0.00453244 4.13586e-19)
(0.000231698 0.000157923 -2.34355e-21)
(0.00029945 9.19447e-05 -1.11826e-19)
(0.000340561 0.000175954 1.40864e-19)
(0.00706813 -0.00122278 -1.55144e-18)
(0.0066526 -0.0010462 3.6347e-18)
(0.00693503 -0.000941846 -7.69358e-19)
(-0.031096 0.0491268 3.10203e-19)
(-0.0341938 0.06185 1.15577e-18)
(-0.0497506 0.034494 4.99837e-19)
(-0.000158868 -0.000250635 -1.43031e-19)
(-0.000187718 -0.000197618 -1.07024e-19)
(-0.000122425 -0.000203198 -1.40441e-19)
(-6.95509e-05 -1.18344e-05 -1.65633e-21)
(-6.84199e-05 -9.17845e-06 2.26318e-20)
(-0.000690334 -0.000289566 -4.86878e-21)
(-0.000718865 -0.000435087 6.32996e-20)
(-7.08104e-05 -1.41942e-05 8.5526e-21)
(-6.93551e-05 -1.39145e-05 3.25974e-21)
(1.14199e-05 0.000126798 6.3911e-20)
(-3.34235e-05 3.90683e-06 1.33953e-18)
(-3.12167e-05 1.89443e-06 4.82569e-19)
(-0.000957305 -0.000588717 7.32475e-18)
(-0.00108667 -0.000585991 1.72227e-18)
(-0.00103961 -0.000716405 1.40268e-18)
(-0.000124042 -0.000317928 1.18587e-19)
(-0.000213895 -0.000320182 4.30673e-20)
(0.00925753 -0.000130743 4.54783e-19)
(0.0091347 -0.000173416 -2.24507e-18)
(0.0244598 -0.00904169 -4.33372e-18)
(0.0190346 -0.0071566 -7.63899e-18)
(-7.56055e-05 8.50884e-05 -1.29265e-18)
(-7.16256e-05 8.19614e-05 5.87855e-19)
(-7.42902e-05 8.32707e-05 -4.35557e-19)
(-0.00225677 -0.00166809 -5.14985e-20)
(-0.00290461 -0.00175648 1.51053e-19)
(-0.002693 -0.0011842 1.11029e-19)
(-0.0389258 -0.000876947 -1.2158e-18)
(-0.039698 -0.00525655 -2.5936e-19)
(-0.0422018 -0.00207725 -2.33923e-20)
(-4.85834e-05 -2.40726e-05 -4.57816e-20)
(-5.00888e-05 -2.15454e-05 -9.13282e-20)
(-5.13757e-05 -2.53049e-05 4.78993e-20)
(0.0245704 -0.00110655 -2.72314e-19)
(0.0256968 -0.00325531 -9.58429e-19)
(0.0225991 -0.00313779 2.10857e-20)
(0.00719569 -0.00150326 1.487e-18)
(0.00745012 -0.00135858 -7.87347e-18)
(-4.92408e-05 -2.53136e-05 -4.19185e-20)
(-4.5452e-05 -2.29362e-05 -2.04457e-20)
(0.00177378 -0.00142045 -4.50389e-18)
(0.00220264 -0.00137684 1.17167e-17)
(0.000164281 0.000204091 -8.55764e-20)
(0.000149575 0.000127848 -5.13268e-20)
(0.0149987 0.0272459 3.88985e-18)
(0.0175678 0.0280342 1.38936e-18)
(-3.11872e-05 -3.99931e-07 -9.52092e-21)
(-2.74565e-05 1.67173e-07 2.93026e-20)
(0.00166901 -0.00183728 -4.62643e-20)
(0.00193609 -0.00145493 -1.97962e-20)
(0.00150556 -0.00142376 -3.96812e-20)
(2.31476e-05 0.000187398 -1.04883e-19)
(5.22655e-05 0.000154693 5.93106e-20)
(-0.000102616 3.23822e-05 1.60047e-19)
(-0.000101853 3.11454e-05 -6.37523e-20)
(-9.9711e-05 3.18842e-05 -2.05458e-19)
(0.00172784 0.0103571 2.63673e-18)
(0.00149259 0.00920325 4.56098e-18)
(0.00276765 0.00962127 -1.79372e-18)
(-8.14548e-05 -2.30502e-06 -6.43846e-20)
(-8.17884e-05 -2.50403e-06 7.96876e-20)
(-7.84054e-05 -1.86397e-06 -2.46181e-19)
(0.0513934 -0.00669404 -1.13073e-18)
(0.0502336 -0.0121755 -7.8777e-19)
(0.000650568 -0.000176822 -7.83606e-20)
(0.000758235 -0.000181275 -2.51461e-19)
(0.000681607 -8.31891e-05 -5.71576e-19)
(0.00451623 -0.00167855 1.40266e-19)
(0.00535438 -0.000845972 1.41375e-19)
(0.00343679 -0.0505539 2.40207e-18)
(0.00753171 -0.0476631 5.34639e-18)
(0.0187549 -0.0434497 -6.2439e-19)
(0.00921453 -5.74487e-05 -2.1151e-18)
(-5.38799e-05 -2.91004e-06 -6.15546e-20)
(-5.25968e-05 -3.38403e-06 1.01352e-19)
(-0.00236823 0.00040684 1.64222e-18)
(-0.00242142 0.000582463 -4.64621e-18)
(-0.00221088 0.000567026 -3.13348e-19)
(-0.00545933 -0.00232282 -3.09609e-21)
(-0.00477622 -0.0032478 -2.69552e-19)
(-0.00446932 -0.00196005 5.1939e-20)
(-4.4268e-05 0.000581606 1.33077e-18)
(-7.21591e-05 0.00064504 -1.0656e-18)
(-0.000106359 0.000578301 6.52253e-20)
(-0.00623698 -0.00093109 -1.72354e-20)
(-0.00534945 1.94707e-05 1.53819e-19)
(5.8183e-06 0.000249352 -1.85203e-19)
(2.83854e-05 0.000249072 -1.1113e-18)
(8.08336e-05 -6.82184e-06 9.33112e-21)
(0.000106575 2.39375e-05 4.56306e-21)
(5.6546e-05 2.42855e-05 7.95091e-20)
(-8.25422e-05 -2.91833e-06 -1.87342e-19)
(-8.05861e-05 -2.4154e-06 2.40746e-19)
(-0.0172239 -0.00123227 -2.89337e-18)
(-0.0188157 -2.91183e-05 -1.20393e-19)
(-0.0165651 0.000478532 2.78479e-19)
(0.00925988 0.0160051 -2.16023e-19)
(0.00856106 0.0193499 2.52547e-19)
(0.00574012 0.0164702 -1.09476e-19)
(0.000554573 -0.00238138 -7.39659e-19)
(0.000897838 -0.00247012 -6.09582e-19)
(3.46913e-06 0.000225186 -1.02224e-19)
(-1.53245e-05 0.000245319 -3.76052e-19)
(-2.62429e-05 1.33758e-05 -1.12577e-18)
(-2.70511e-05 1.09833e-05 6.97916e-19)
(-2.86925e-05 1.28155e-05 3.08867e-18)
(0.00255979 0.000874948 4.07839e-18)
(0.00133084 0.0013077 3.3879e-19)
(3.07016e-05 -0.000593779 6.00666e-18)
(0.000224541 -0.000348587 -4.75872e-19)
(-0.000118695 3.05855e-05 -4.91414e-22)
(-0.00012381 2.68854e-05 -2.85892e-20)
(-0.000113594 2.31627e-05 -1.61903e-20)
(0.00392735 0.00160847 1.00058e-19)
(0.00459785 0.00271019 -7.92939e-20)
(0.00288203 0.00232002 3.78077e-20)
(1.37632e-05 0.0005815 -1.77011e-19)
(-0.0647203 0.00193045 7.39616e-19)
(-0.073334 -0.0204193 -8.99274e-19)
(-0.064986 -0.0118143 -1.37324e-18)
(0.00115784 0.0003495 -2.03225e-20)
(0.00120981 0.00026891 2.38656e-18)
(0.00109005 0.000282413 -4.12542e-19)
(0.0106097 -0.00832372 2.55982e-18)
(0.00793359 -0.0102875 6.20323e-19)