/*--------------------------------*- C++ -*----------------------------------*\
| =========                 |                                                 |
| \\      /  F ield         | OpenFOAM: The Open Source CFD Toolbox           |
|  \\    /   O peration     | Version:  v2012                                 |
|   \\  /    A nd           | Website:  www.openfoam.com                      |
|    \\/     M anipulation  |                                                 |
\*---------------------------------------------------------------------------*/
FoamFile
{
    version     2.0;
    format      ascii;
    class       volVectorField;
    location    "550";
    object      ddtCorrDdt0(U);
}
// * * * * * * * * * * * * * * * * * * * * * * * * * * * * * * * * * * * * * //

dimensions      [0 1 -2 0 0 0 0];


internalField   nonuniform List<vector> 
13917
(
(-0.00404186 -0.00205091 1.50943e-17)
(-0.007021 -0.00982606 -2.79456e-20)
(0.00523149 -0.00153503 1.95455e-17)
(-3.55978e-05 9.49697e-05 8.42618e-18)
(-0.00668728 0.000914133 4.93794e-19)
(-0.00517009 -0.0101035 -3.9534e-19)
(-0.000250258 6.61162e-05 3.33665e-18)
(-0.042665 0.00734182 -1.44962e-18)
(-7.58179e-05 0.00039167 -2.86599e-18)
(0.00589129 -0.00900751 -4.20438e-18)
(-0.0376194 0.00422718 -7.66237e-19)
(-6.99015e-05 9.14717e-05 -5.19543e-18)
(-2.40288e-05 2.48094e-06 -2.5334e-18)
(0.074879 0.107125 7.65175e-19)
(0.00189919 -0.00301768 -2.82281e-21)
(-0.0039444 -0.00121471 -2.55594e-17)
(-5.63294e-05 -2.17499e-06 4.59643e-20)
(-0.0263428 0.00912546 -3.44212e-19)
(0.00171898 0.00457478 -2.03959e-17)
(-0.0100287 -0.0151078 -2.85456e-18)
(0.000474399 0.0039595 -2.35257e-19)
(-0.000193403 0.000131473 -2.18484e-19)
(-0.00123084 0.000774979 1.29425e-17)
(-0.000208458 0.000119544 -1.27745e-19)
(2.09676e-05 0.00013641 -7.72875e-18)
(-0.000898799 0.00538762 -3.495e-19)
(-0.00205953 -0.043742 -1.49142e-18)
(0.0050148 -0.00382887 1.54787e-18)
(-0.00890044 0.00957086 -3.08965e-19)
(-5.38213e-05 0.000113732 1.19598e-20)
(0.00292566 -0.00252848 2.98321e-18)
(5.34233e-05 0.00129211 -2.58146e-18)
(-4.44915e-05 0.000107038 4.44993e-18)
(0.000207082 -0.00312584 2.01976e-18)
(-7.98622e-05 -0.000268718 -6.78148e-20)
(-0.054418 0.0043044 1.98121e-18)
(-0.000632991 0.000355704 -1.19481e-18)
(-8.55573e-05 -8.12498e-07 8.62469e-19)
(-0.000263299 9.14865e-05 9.30113e-18)
(0.0036447 -0.000108752 1.58314e-19)
(-2.62762e-05 -4.10958e-07 -1.87704e-19)
(0.00076786 -0.000521326 -6.15605e-20)
(-3.03077e-05 0.000320667 -8.81981e-18)
(0.00176257 0.00210234 1.12911e-17)
(0.00165746 0.00236161 -9.71132e-18)
(-0.0322845 0.00242144 6.36601e-19)
(0.000324687 0.00334269 9.31793e-19)
(0.0741404 0.0265088 -1.29237e-18)
(-0.136558 -0.123514 -8.13641e-19)
(-0.000142499 -0.000254466 2.95237e-20)
(-7.01155e-05 9.01538e-05 3.19761e-18)
(-0.0132196 0.00317208 6.1343e-18)
(0.00528678 -0.000170563 2.57846e-18)
(-0.000111689 4.43783e-05 -3.9104e-19)
(-0.000125294 6.89476e-05 -4.3644e-19)
(-0.0121731 0.00413186 -6.22439e-18)
(-0.00207926 -0.00423539 1.17319e-18)
(-0.00130462 0.000684525 5.41337e-19)
(0.000700155 -0.000290734 1.80732e-19)
(-0.0343739 -0.000668286 1.3082e-18)
(0.0059211 0.0982039 5.33001e-18)
(0.00326948 -0.00855162 -1.25056e-19)
(-1.75646e-05 -1.38674e-06 1.92642e-20)
(7.0726e-06 0.000133698 -4.43887e-19)
(0.00141803 -0.000896128 -2.10209e-17)
(0.00492092 0.0126674 -7.14199e-20)
(-0.0132127 0.0101583 -8.3362e-21)
(-0.0549953 -0.00527969 -1.16722e-18)
(-0.0311336 0.0115279 6.54156e-18)
(0.00169065 -0.00087882 -4.34034e-18)
(-0.000187852 -0.00230183 -8.76114e-18)
(-0.000103726 -0.00272378 -4.6831e-18)
(-9.76553e-06 0.00011481 -1.629e-18)
(0.000486095 -0.000239602 1.39659e-19)
(0.00104709 0.0040901 3.66352e-19)
(1.80774e-05 0.00032195 3.01202e-18)
(-0.0018966 0.00123306 -2.95311e-19)
(0.000426744 -0.000108167 -7.21878e-20)
(-4.59667e-06 0.000300305 3.91874e-19)
(-4.07543e-05 0.000108827 -2.19003e-18)
(3.58892e-05 -0.000124464 5.09026e-19)
(-6.60421e-05 -1.70792e-06 1.42377e-20)
(-8.4821e-06 0.00011405 -2.05179e-19)
(-0.00113636 -0.00746881 7.22267e-19)
(-6.95135e-05 1.20224e-05 8.65555e-20)
(-0.00793071 0.0505382 -2.66558e-18)
(-3.58226e-05 0.00127859 8.33688e-18)
(-7.10146e-05 5.31936e-06 -7.14657e-19)
(0.00350394 0.000345871 2.41047e-18)
(-5.88729e-05 -2.60697e-06 -2.91891e-20)
(-6.07318e-05 -2.32876e-06 -1.00951e-20)
(-2.9959e-05 0.000330967 1.11581e-17)
(-0.14143 -0.150555 -3.66642e-18)
(3.213e-05 -3.44746e-05 -2.62553e-20)
(-0.000198517 -1.26396e-05 -2.396e-18)
(-0.0103522 0.0114888 1.26332e-18)
(0.0558675 -0.00339207 9.58847e-19)
(-7.46202e-05 -2.28052e-06 -6.07786e-20)
(-6.90767e-05 6.75808e-06 -7.40409e-19)
(0.0304625 -0.00500139 4.95409e-19)
(-2.43881e-05 -9.72028e-07 6.33605e-20)
(-2.42694e-05 -1.44727e-06 -6.7549e-21)
(2.09009e-05 -0.000155073 -4.02632e-19)
(-8.57733e-05 -2.82312e-06 -6.69523e-20)
(-0.0019805 0.000846573 9.76198e-20)
(-0.00152806 0.0028605 -5.07473e-18)
(0.0184872 -0.0146075 2.33544e-18)
(0.00525097 -0.00811517 5.65628e-20)
(0.00111854 -0.000644619 -1.46061e-19)
(-0.00633946 -0.0485312 2.42808e-18)
(-1.74233e-06 1.41196e-05 -3.59477e-18)
(-9.97508e-05 -0.00349036 -2.47893e-19)
(-0.00652745 0.0103317 -2.68233e-18)
(0.086388 0.0203659 -8.88795e-18)
(0.00122589 -0.00160464 2.15255e-17)
(1.90953e-06 0.00045137 2.54142e-18)
(0.0013025 0.00424183 6.45507e-18)
(-4.89401e-05 -5.26586e-06 -5.09163e-21)
(0.00511052 0.000911572 2.14088e-18)
(1.2421e-05 0.000119804 -2.99777e-18)
(-7.05364e-05 -2.00729e-06 -4.54193e-20)
(0.000135587 -0.000155426 -1.94084e-20)
(-0.0152257 0.0123672 -4.66952e-18)
(-0.00346893 0.00513967 6.78665e-18)
(0.00658073 -0.000575694 4.05148e-19)
(-0.0013544 -0.00746091 1.04921e-19)
(-7.2266e-06 0.000115844 1.1481e-18)
(0.0013307 0.00473931 -1.02609e-19)
(-8.63242e-05 2.7134e-05 1.94959e-19)
(-0.00292812 0.00546238 -7.56855e-18)
(-0.000331249 0.000563275 1.93592e-17)
(-0.0112699 -0.034133 -2.16922e-18)
(0.00255784 0.000691553 -7.07141e-18)
(-4.05847e-05 0.000481007 1.65886e-18)
(0.000458768 0.00145389 -1.30688e-17)
(-0.00327416 -0.0474999 -8.19384e-21)
(-0.0198194 0.100156 2.35027e-18)
(0.00894659 -0.000132538 -2.76662e-18)
(-0.00186762 0.0064845 1.05261e-19)
(-5.93628e-05 -6.00659e-08 -1.6467e-18)
(0.0798709 0.0936304 5.0857e-19)
(0.000289524 -0.0001119 -1.85725e-19)
(-0.00140641 0.00258282 5.29744e-18)
(-9.58297e-05 2.75047e-05 -1.15082e-18)
(-1.53616e-05 9.32006e-05 -7.77299e-19)
(0.00432586 -2.45187e-05 -1.00579e-20)
(-0.00031351 -0.00341411 9.15876e-19)
(0.0553098 0.0294027 -1.73888e-18)
(0.0611118 -0.00859991 -2.56716e-17)
(-0.00011883 4.97058e-05 8.48127e-19)
(0.00274181 0.000716175 -1.14918e-18)
(-2.14667e-05 -1.1655e-06 -1.91889e-20)
(-1.33157e-05 9.25e-05 1.2261e-18)
(1.71293e-05 0.000123169 -2.53217e-18)
(0.0401746 -0.0109098 -4.85897e-20)
(-0.000521223 -0.000381419 -5.12096e-20)
(-8.54114e-05 -4.32958e-06 -5.52028e-20)
(0.00273688 0.00099602 -6.22628e-18)
(-3.68158e-05 -1.71145e-06 -2.82149e-20)
(-4.65717e-05 -3.93795e-06 2.78562e-20)
(-7.82531e-05 1.87494e-06 5.29821e-19)
(0.0165768 0.0238017 -3.9632e-18)
(-0.00165304 -0.000198481 2.91151e-19)
(0.0549095 0.124758 -3.79007e-19)
(0.016394 0.0584839 7.37181e-18)
(0.0393671 -0.00741498 -1.57995e-19)
(0.0034516 -9.60355e-06 3.42866e-20)
(0.0567814 0.0706941 4.71084e-18)
(-1.42593e-05 -1.67283e-05 -1.03666e-20)
(-0.00208487 0.00763231 -1.06931e-19)
(-0.000276918 0.000129379 -1.25774e-19)
(0.00507298 -0.00260358 4.40888e-18)
(-6.16628e-05 0.000396242 -5.3954e-18)
(-0.0295117 0.0843993 -3.01559e-18)
(-0.00583881 -0.00438115 -4.81756e-18)
(-3.28147e-05 -5.18227e-07 5.12528e-20)
(-3.47547e-05 9.88825e-05 2.43682e-18)
(-0.0162261 0.00300685 2.13734e-18)
(-0.000313095 0.000544776 -1.32156e-17)
(-0.00195593 -0.000203543 1.74017e-19)
(-4.40035e-05 0.000295741 -3.2377e-18)
(-0.000246759 0.000114701 -1.03185e-19)
(-7.44226e-05 9.49702e-05 1.59526e-19)
(-0.0118822 0.0161956 -5.12192e-18)
(0.00583637 0.00124664 2.12027e-18)
(-0.0076659 -0.0378767 4.7208e-19)
(-7.47635e-05 9.35305e-05 -1.23999e-18)
(-0.0138451 0.0157172 1.97429e-19)
(-1.48368e-05 0.000114146 2.85932e-20)
(-0.0103085 0.0446029 3.76406e-18)
(-0.00566812 -0.0052254 -4.3443e-18)
(0.00130457 0.00236131 -1.24178e-18)
(-0.00765812 0.0114763 1.77502e-19)
(-0.00559022 -0.00345646 6.02545e-18)
(2.42867e-05 -5.97761e-05 -7.69971e-21)
(0.00600368 -0.000715411 4.95052e-18)
(0.000226692 -6.46805e-05 -5.58173e-20)
(0.0010065 0.0012486 -9.72068e-19)
(-4.49365e-05 -0.000218611 -4.06945e-22)
(-0.000441449 -0.000266142 -9.39697e-21)
(0.000185633 0.00237466 2.36021e-19)
(0.00073998 -0.000895464 7.17677e-18)
(0.00880373 -8.25046e-05 7.11167e-18)
(-0.000616326 -3.20781e-05 6.82691e-20)
(-0.00871367 -0.0532065 -3.73282e-18)
(-0.00676845 0.00176385 6.28214e-20)
(0.00291657 0.000376797 1.58685e-18)
(0.000229935 -0.000203651 1.5755e-19)
(-0.0148 0.00405426 -3.56211e-19)
(7.1936e-05 -0.000107107 -1.31212e-18)
(-8.99036e-05 3.53568e-06 5.70018e-20)
(-0.0138301 -0.000531366 -1.73036e-18)
(-0.0168163 0.000559683 -2.21519e-19)
(0.0658632 0.0118133 2.22949e-18)
(0.000334229 0.00142294 -3.02262e-18)
(-0.000815272 0.0061476 1.31871e-19)
(0.00806749 0.00296549 5.52268e-18)
(-7.94587e-05 8.88488e-07 5.95044e-19)
(-8.01136e-05 -1.27417e-05 4.47401e-20)
(-7.82172e-05 -1.21422e-05 -3.68575e-20)
(0.0720425 0.0672555 -2.79188e-18)
(-0.00987917 0.0136147 2.91659e-19)
(-0.0181669 0.0179049 -3.75976e-18)
(-2.46663e-05 1.61796e-05 -2.41213e-18)
(-1.82641e-05 -7.83989e-07 -2.5919e-20)
(-0.00374877 -0.0525647 -8.19987e-19)
(0.00548296 -0.000525003 -4.57892e-18)
(-7.14631e-05 -1.02238e-05 2.87487e-20)
(-6.93326e-05 -9.15926e-06 -4.13007e-20)
(-2.41168e-05 1.02747e-07 5.4126e-20)
(-8.2133e-05 -1.58696e-05 -1.40116e-20)
(-7.87774e-05 -1.64114e-05 1.40444e-19)
(-0.000626285 -0.00241863 9.57501e-18)
(0.0541355 0.0223134 -6.76682e-18)
(-2.58869e-06 8.5606e-05 -1.85329e-18)
(-2.27797e-05 -2.49636e-05 -2.60851e-21)
(-0.00608283 0.000683676 -5.64537e-18)
(0.0019291 -0.00200679 4.07152e-18)
(-4.88089e-05 -1.90843e-06 2.60971e-20)
(-2.54365e-05 1.48821e-05 3.3173e-18)
(-0.0107681 -0.0519299 2.94051e-18)
(-0.00151052 0.00145511 8.9314e-18)
(-0.010202 0.014904 1.05638e-18)
(0.00692716 0.00058032 -3.90356e-18)
(-0.0113671 -0.00681579 1.84484e-18)
(-9.38939e-05 2.40676e-05 -5.65262e-19)
(0.0298134 0.0686858 -1.2192e-18)
(-0.00621199 0.00133981 3.03592e-18)
(-0.00569043 0.00874215 2.38617e-18)
(-0.000616765 0.00274266 -3.37154e-18)
(-0.000535136 -5.17969e-06 1.8272e-18)
(0.057645 0.0151886 1.22737e-17)
(5.81703e-06 0.000119359 -7.70396e-18)
(0.00063615 -0.0027741 7.25223e-19)
(-0.00454442 -0.00379593 3.00122e-18)
(5.0918e-07 0.000144474 -9.23836e-19)
(-1.58991e-05 -6.21555e-08 1.61049e-19)
(3.51243e-06 0.000116142 -1.53772e-18)
(-0.00327447 -0.00400164 1.42251e-19)
(0.000285328 0.00014348 1.00287e-19)
(0.00689483 -0.0010679 3.2436e-18)
(-0.0379922 0.049557 2.06461e-19)
(-0.00015228 -0.000215379 -2.23092e-19)
(-6.92886e-05 -1.04074e-05 2.60453e-20)
(-0.000658892 -0.000368865 6.48947e-20)
(-6.99572e-05 -1.32013e-05 -2.7487e-20)
(1.00439e-05 0.000123451 4.31927e-18)
(-3.65318e-05 2.74356e-06 1.72095e-18)
(-0.00102742 -0.000627225 4.59444e-18)
(-0.000168459 -0.000296939 -5.88668e-20)
(0.00922121 -0.000168423 -2.45533e-18)
(0.020552 -0.00989878 -1.83734e-17)
(-7.36873e-05 8.34241e-05 -9.4912e-19)
(-0.00258963 -0.00155904 5.83675e-20)
(-0.0407396 -0.00298218 1.95641e-19)
(-5.0286e-05 -2.41049e-05 6.01081e-20)
(0.024411 -0.00236109 -2.97993e-19)
(0.00724608 -0.00136474 -6.43964e-18)
(-4.77657e-05 -2.41179e-05 -1.44937e-19)
(0.00195509 -0.00129282 1.06485e-17)
(0.000185169 0.000163573 -1.01303e-19)
(0.0167448 0.0266849 4.18465e-18)
(-3.06518e-05 -1.08383e-07 1.33093e-20)
(0.00170655 -0.00159575 -2.16879e-20)
(2.47177e-05 0.000163547 1.21681e-19)
(-0.000101546 3.22814e-05 -2.70517e-19)
(0.00206903 0.00994562 1.00516e-17)
(-8.11967e-05 -2.14671e-06 -2.47285e-19)
(0.0494561 -0.00912021 -2.22167e-18)
(0.000695171 -0.000142427 -1.14755e-18)
(-0.0240676 0.0482828 -1.36813e-19)
(0.00475152 -0.000960139 5.16302e-20)
(0.00993177 -0.0474683 4.49096e-18)
(0.00929565 -7.03068e-05 3.39458e-18)
(-5.26481e-05 -2.80706e-06 -8.44295e-20)
(-0.00234309 0.000528651 -4.06985e-18)
(-0.00496964 -0.00249332 2.22119e-20)
(-7.49806e-05 0.000599829 1.62653e-18)
(-0.00610793 -0.000125608 -5.82913e-20)
(1.46607e-05 0.000256012 -6.4048e-19)
(7.80658e-05 1.44507e-05 2.5924e-20)
(-8.21506e-05 -2.74523e-06 1.92527e-19)
(-0.017553 -0.000331176 -5.38128e-18)
(0.00768249 0.0171431 4.63155e-19)
(0.000740611 -0.00254103 -4.70514e-19)
(-3.13129e-06 0.000242384 2.68665e-19)
(-2.6995e-05 1.26845e-05 1.52646e-18)
(0.00209299 0.00107469 3.50707e-18)
(0.00028294 -0.000614552 5.20816e-19)
(-0.000118687 2.75533e-05 -2.14591e-20)
(0.00356141 0.0021394 3.43897e-20)
(-2.11529e-05 0.000563894 1.05368e-18)
(-0.0674237 -0.00915224 -5.39222e-20)
(0.00115677 0.000298762 1.14042e-17)
(0.0101405 -0.00987653 -7.18896e-18)
(-0.0374053 0.0810016 4.96173e-18)
(-0.00133143 0.0111865 -6.63599e-20)
(-0.00989923 -0.0291569 2.50556e-18)
(-0.00198217 -0.00172115 -1.14684e-19)
(-0.000438588 -0.00774596 -2.56771e-18)
(-0.0611492 0.012195 1.58232e-19)
(0.00438674 -0.00145921 -1.15667e-17)
(-2.83907e-05 2.82764e-06 1.83967e-18)
(0.00210446 -0.00247656 3.37706e-20)
(0.000275159 -0.0444932 9.7814e-19)
(-0.000451019 8.35278e-05 -4.68926e-20)
(-0.00876292 -0.0108572 -1.50287e-19)
(0.00115672 0.00256356 3.94733e-18)
(-5.15908e-05 -8.3258e-07 6.92722e-20)
(0.00498873 -0.00315698 7.20769e-20)
(-7.03837e-05 8.84406e-06 -2.91898e-18)
(-0.000197179 0.000798395 -6.45741e-18)
(-0.000211374 -0.000105377 1.26928e-19)
(-0.0216294 -0.015019 -2.25466e-17)
(-8.43126e-05 -9.54966e-06 1.3266e-19)
(0.000473053 -0.00204971 8.41679e-19)
(-0.00677176 0.00280695 -1.78844e-19)
(-0.00368767 0.00888597 7.81851e-20)
(-5.69865e-05 -1.9247e-06 -6.99056e-21)
(-0.000257675 0.00246908 -6.51519e-18)
(-0.000583832 0.00272063 1.40431e-17)
(-0.000187353 3.16038e-05 -5.41498e-19)
(-0.000471113 9.07732e-06 2.24026e-20)
(0.000429246 -0.00401977 1.25011e-17)
(-0.000979232 0.00321221 -6.31131e-18)
(-5.44139e-05 0.0445742 -4.18794e-19)
(0.0595894 0.104036 -8.68239e-19)
(-5.03216e-05 -2.59353e-05 6.60961e-20)
(5.60209e-07 6.29428e-06 -3.24938e-19)
(-0.00148467 -0.00015574 -7.10927e-18)
(-0.0125824 -0.0265076 -1.41048e-18)
(-4.92608e-05 -2.46709e-05 -6.2384e-22)
(-0.00622683 -0.0018901 -1.41804e-19)
(-0.000103612 0.000101755 1.71977e-18)
(0.00720509 0.00965089 -9.81878e-20)
(0.000412429 -0.00225509 -9.0214e-19)
(-0.00646106 0.00764 -1.67247e-18)
(-0.00555981 -0.0144142 -7.82116e-19)
(0.0244942 0.000288989 -5.88135e-19)
(-0.000256441 0.000787091 -3.93908e-18)
(-0.00268405 -0.00390461 -2.47612e-18)
(-7.67976e-05 3.02625e-05 -1.77311e-19)
(-0.000191455 5.28533e-05 3.61235e-21)
(-0.00824185 0.0013043 9.66002e-20)
(0.00639763 0.00807797 -2.93703e-18)
(-4.79874e-05 -6.12461e-07 7.40678e-20)
(-0.00560266 -0.00204912 -1.35958e-17)
(-0.000247933 0.000781067 4.04863e-18)
(-0.00299404 -0.0739516 -2.26361e-20)
(-0.000132784 6.51529e-05 2.28929e-18)
(-0.00983807 -0.0210477 6.17494e-19)
(0.00402452 0.00100891 -1.96536e-19)
(-0.129113 -0.177902 1.67319e-18)
(0.000826728 0.000444545 -2.01254e-19)
(-0.0156282 0.0183863 3.7581e-18)
(-0.0379736 0.000717337 -3.26843e-18)
(-0.00806785 0.00371323 1.58649e-18)
(-7.73122e-05 8.6371e-05 -1.58302e-18)
(0.00815533 0.0122781 -6.18043e-18)
(-0.000286719 -0.000300637 -1.90596e-19)
(0.0121915 0.0664073 -3.83961e-18)
(-0.00773862 0.0128253 9.72129e-18)
(0.000714614 0.000714656 3.6379e-19)
(-0.129083 -0.162962 1.66004e-18)
(4.57871e-05 0.000359253 5.47482e-19)
(-0.0065933 -0.0458729 -3.587e-19)
(-8.51292e-05 -1.32758e-05 4.73152e-20)
(-0.00592236 -0.0163729 -2.91138e-18)
(-0.00179889 -0.0518889 8.69476e-19)
(-0.000362022 0.000383533 -3.10898e-19)
(-0.0111989 -0.0585869 2.7839e-18)
(0.0200724 0.00336799 3.60187e-20)
(-0.00041895 -3.42739e-05 1.6129e-18)
(0.015964 0.0477244 -4.48403e-18)
(0.00262897 -0.0017628 5.94514e-18)
(-0.000256829 0.000313031 9.58474e-19)
(0.00150792 0.0109108 -5.68772e-18)
(-3.5872e-05 -1.97054e-05 -1.14447e-18)
(0.0216376 0.00632356 -1.02056e-19)
(0.00554429 -0.000763149 -6.49224e-18)
(-6.9106e-05 8.4835e-06 2.32843e-18)
(-0.00020766 0.000245479 -3.33023e-18)
(8.77825e-06 0.000210828 -4.16986e-19)
(-9.52672e-05 3.04828e-05 4.08497e-19)
(-8.649e-05 1.36191e-05 -3.18412e-19)
(-5.19822e-05 1.81021e-05 -6.35318e-20)
(-0.00973722 0.112856 -3.73662e-19)
(0.0350563 -0.011129 8.08825e-19)
(-0.00015825 6.13061e-05 3.22034e-18)
(-5.81466e-05 5.93595e-05 -1.86665e-20)
(-0.000169896 7.99972e-05 1.53629e-19)
(-0.00265346 -0.000678391 4.10602e-18)
(-0.0618165 -0.0484767 -9.55164e-19)
(-0.00010087 -1.10321e-05 1.54142e-19)
(-1.47763e-05 -1.46856e-05 -1.94612e-21)
(0.00116171 0.000406311 -1.3602e-17)
(-0.00701342 -0.0212324 -1.32233e-18)
(-0.000103963 3.30693e-05 4.63833e-19)
(-0.000339725 0.000353028 -3.87085e-18)
(-0.0433963 0.0571632 9.14555e-19)
(0.0593503 0.00770286 1.34977e-19)
(0.00610423 0.0162293 -4.89041e-20)
(0.00226292 0.00437037 1.11232e-17)
(0.00168352 -0.00749721 -4.89188e-18)
(-0.000172173 -0.000178968 -1.1261e-19)
(-7.77535e-05 -1.44568e-05 -1.0609e-20)
(-0.000986782 0.00299347 -4.95512e-19)
(-8.60622e-05 1.3565e-05 8.91949e-19)
(-9.35887e-05 -4.00532e-06 1.21257e-19)
(1.86776e-05 9.84258e-05 1.76751e-18)
(-7.11406e-05 -1.08536e-05 -2.006e-19)
(-0.000126464 -0.000158297 1.32741e-19)
(0.0364181 0.0601332 6.64131e-18)
(-3.44507e-05 -2.93462e-05 2.24945e-19)
(0.00371862 -0.00127393 7.78777e-19)
(0.00906003 -0.00019148 -2.05269e-18)
(-0.00239386 0.000286252 7.35826e-18)
(-9.03451e-05 1.59678e-06 -2.44005e-19)
(-1.61571e-05 8.51523e-05 1.23077e-18)
(0.0182697 0.0428123 2.34525e-18)
(-0.000128903 0.0026365 1.08142e-18)
(0.00669621 -0.0003994 1.55178e-18)
(-0.000175291 -4.54853e-05 5.23836e-20)
(-3.69448e-05 3.01586e-05 -8.96753e-19)
(-0.000402989 -0.000310269 5.9617e-20)
(-8.01576e-05 -2.38086e-05 -1.48058e-19)
(-0.000609953 0.000280387 4.78989e-19)
(-2.36513e-05 0.000519087 -2.48112e-20)
(-0.0496559 0.0506 1.73734e-18)
(3.75166e-05 0.00719951 1.08898e-19)
(-0.00166775 0.00197657 -7.60203e-18)
(-3.95161e-05 3.22948e-05 1.47003e-18)
(-0.000570777 0.000503203 -5.13317e-18)
(0.0030776 0.00681277 -7.86968e-20)
(6.52128e-05 -7.18061e-05 4.4029e-19)
(-0.0110825 -0.00519592 -3.13331e-18)
(-0.00449441 0.0466876 1.11785e-20)
(-9.75168e-05 9.94604e-05 -1.56336e-18)
(0.0542233 -0.0428284 -1.72848e-19)
(-8.92135e-05 -4.69437e-06 -2.48588e-19)
(-8.91981e-05 3.74306e-06 -6.34202e-19)
(-0.000167681 6.77291e-05 -3.55323e-19)
(0.000107991 0.000310502 7.03187e-20)
(-8.9543e-05 6.94066e-06 8.09802e-20)
(-7.30127e-05 -8.48296e-08 -2.76881e-19)
(0.00303929 0.000664434 4.69866e-18)
(-0.00739178 0.0921016 9.17259e-19)
(-8.89528e-05 8.72407e-06 -1.26245e-19)
(-0.00173129 -0.053258 3.38803e-19)
(0.00132587 0.000576114 -1.20879e-18)
(-2.26136e-05 4.84226e-06 1.7291e-18)
(-0.00295344 0.000500648 -4.13452e-18)
(-0.000126219 0.0006443 -1.11852e-17)
(0.0235732 0.0423614 -7.79189e-19)
(-0.00023298 0.000303264 -9.26495e-20)
(-0.00147876 0.00306027 7.98276e-18)
(-0.020935 -0.0647858 1.09238e-18)
(-0.0251904 -0.0532207 -5.33182e-19)
(6.58831e-05 0.000474327 -1.28321e-19)
(0.00185786 0.0104984 7.75808e-20)
(0.00456841 0.00714046 1.1346e-19)
(-0.000481479 -5.69108e-05 -2.20836e-18)
(0.00159256 0.0337043 -1.7517e-18)
(-6.06709e-05 -2.89892e-06 5.54988e-20)
(-0.000107384 5.11079e-05 -1.14123e-18)
(-0.000207363 1.6474e-05 8.16297e-19)
(-0.00015165 0.000319615 5.69922e-19)
(0.00157112 0.0026787 7.61164e-19)
(0.00533746 0.00263165 5.72676e-18)
(-0.000916082 0.00133365 4.01484e-18)
(0.00184576 -0.00333754 -6.7169e-20)
(-0.0032388 -0.00203671 2.23744e-19)
(-0.0218896 0.0128505 -1.47339e-18)
(0.00531382 -0.00492988 -6.87269e-20)
(-0.000154754 5.13627e-05 -2.35747e-18)
(0.0638283 0.122166 -3.84206e-18)
(-0.000994023 -0.000139034 -1.22753e-17)
(0.000610412 -0.000209552 9.4565e-19)
(0.00148639 0.0744831 3.69459e-20)
(-6.89314e-05 1.06706e-05 2.21926e-18)
(0.00571295 -0.0056517 3.00733e-18)
(-0.0182848 0.00398736 5.785e-18)
(-8.75227e-05 -6.44035e-06 1.55127e-20)
(0.00521417 0.000319846 1.6524e-17)
(-8.59644e-05 3.05667e-06 8.69442e-20)
(-7.5574e-05 -2.47508e-05 3.08738e-20)
(-0.00281766 -0.000408196 -6.25221e-18)
(-0.000175026 -1.94632e-05 4.8323e-20)
(-8.19114e-05 1.43265e-06 5.13057e-19)
(-0.0168928 -0.00216698 -2.92572e-19)
(0.00144783 0.000629965 -3.81873e-18)
(-0.00939369 -0.0712383 4.4704e-18)
(-7.79185e-05 1.65441e-06 -1.45732e-18)
(-3.0018e-05 0.00014789 -1.5204e-18)
(-0.000929079 -0.00296336 1.89083e-19)
(-0.00812745 0.029544 5.97483e-19)
(-0.0592274 -0.0164863 -1.60634e-18)
(-0.000135274 4.25694e-05 1.97943e-18)
(-0.000120234 6.3275e-05 -1.41911e-18)
(-7.6794e-05 1.71731e-06 -1.73637e-18)
(-0.00381602 -0.0028478 9.85813e-18)
(-0.0330717 0.00329399 -5.37702e-19)
(-0.000129187 5.9163e-05 -5.75969e-21)
(-5.1002e-05 -1.18869e-06 -3.63155e-20)
(-0.000348826 -0.000271118 -4.04526e-21)
(-9.2159e-05 2.76034e-05 1.03981e-18)
(-0.00186259 0.00453607 6.06277e-21)
(-2.594e-05 -0.000419952 7.67274e-19)
(-5.93132e-05 -1.91836e-06 -5.42139e-20)
(-0.00103097 0.00139554 -6.16852e-18)
(-8.70665e-05 -5.19815e-06 2.55004e-19)
(-0.000145364 9.92451e-05 2.31964e-19)
(-3.0811e-06 0.000197671 8.5876e-19)
(0.00223945 -0.00898065 7.82567e-18)
(-7.80759e-05 -5.93848e-06 -1.34013e-21)
(-8.14427e-05 0.000172914 -1.81912e-18)
(0.000299973 3.71379e-05 -3.28729e-19)
(-0.000545889 0.000471956 2.75607e-18)
(-0.00346285 0.00177228 1.06633e-17)
(0.00237619 0.0156334 1.48726e-18)
(-0.00529759 -0.00386585 7.27948e-19)
(0.031434 -0.0095082 8.22203e-19)
(-5.60577e-05 0.000222141 3.43288e-18)
(-0.0188042 0.0100172 5.8488e-19)
(0.000355029 0.0012112 6.77853e-18)
(0.0367389 0.0518811 -5.92238e-18)
(0.0087598 -0.00020503 -2.81806e-18)
(-0.000122981 1.34285e-05 -3.64558e-20)
(-0.000170481 4.37719e-05 -1.50778e-19)
(0.00242418 -0.00413811 1.71931e-19)
(-5.10735e-05 5.75503e-05 -2.00348e-18)
(0.000868762 -0.00393102 1.0086e-17)
(-4.94995e-05 -1.85557e-05 -2.54986e-19)
(-0.0278758 0.0557648 -1.31607e-19)
(0.000184831 -8.59482e-05 -1.33496e-18)
(0.000613961 -0.00271068 2.27841e-18)
(0.026984 -0.00421004 3.09246e-19)
(-4.29222e-05 0.000310241 3.96148e-18)
(0.0178044 -0.0268774 -1.89171e-17)
(-8.98968e-05 1.12091e-05 4.3126e-20)
(-8.91457e-05 0.000811176 -5.08479e-18)
(-7.67049e-05 -3.10046e-06 -7.06327e-20)
(-0.000334178 0.0015793 -2.40777e-19)
(0.00235249 -0.00303087 1.08867e-19)
(-0.0001354 -1.7969e-05 6.38705e-20)
(0.00103354 -0.000597803 1.29934e-18)
(-1.9595e-05 4.1495e-08 -4.41745e-20)
(-2.58121e-05 5.40332e-06 -7.97655e-19)
(-0.000180391 5.5636e-05 1.37242e-19)
(0.00472028 0.00258611 -1.04543e-17)
(-0.0028929 0.00486061 -1.12637e-19)
(-6.72053e-05 -1.55757e-05 -1.46052e-19)
(0.00164961 0.00162597 -4.45287e-18)
(-0.00291851 0.000179351 3.10778e-18)
(-0.0106587 -0.0345612 1.05807e-18)
(0.000187999 -0.00397153 4.67809e-18)
(0.000397488 0.00163166 -1.25515e-17)
(0.0221236 0.0461501 1.61182e-18)
(-7.82756e-05 -4.39582e-06 7.70016e-21)
(0.00425944 -0.000742478 1.52768e-17)
(-2.10105e-05 1.89685e-07 6.72253e-20)
(-0.0164492 0.09728 -3.38795e-18)
(0.0587795 0.0311394 2.81928e-20)
(-0.000499002 0.00215696 -9.27489e-20)
(0.00565625 -0.000791988 6.78151e-20)
(-2.31142e-05 -1.17331e-06 -1.74683e-20)
(-0.000913061 -0.000170627 9.38216e-18)
(-3.32659e-05 0.00028871 8.31318e-20)
(-0.000129015 -3.21452e-06 -2.00467e-19)
(-7.84556e-05 -3.03708e-06 -8.03678e-20)
(-4.19402e-05 1.2227e-06 4.56481e-18)
(0.00328213 -0.00374298 8.50438e-18)
(-7.90899e-05 1.02315e-05 6.88917e-19)
(-0.000108186 0.001156 1.22243e-17)
(-0.000103027 4.6358e-05 9.514e-19)
(-6.61722e-05 -1.33954e-05 1.58884e-19)
(-4.00779e-05 -2.57604e-06 6.56152e-20)
(-0.0279876 0.0019061 -2.17899e-18)
(0.0108506 0.0304203 -3.69596e-18)
(-0.0278172 -0.0351535 2.93216e-17)
(-0.000791779 0.00253944 9.76592e-18)
(-7.61131e-05 -0.000369797 -3.42738e-19)
(0.00464897 0.0250411 -5.22164e-18)
(0.00255836 -0.0022025 -2.21057e-18)
(-8.53947e-05 -8.89296e-06 3.17597e-20)
(0.000153799 0.038158 1.43845e-18)
(-3.69287e-05 8.03481e-07 5.70674e-18)
(0.000105592 0.000177828 2.55706e-17)
(-5.42291e-05 6.13693e-05 2.39451e-18)
(0.00997917 0.0097832 3.00588e-18)
(-9.17967e-05 2.83406e-05 -1.07468e-18)
(-0.000761117 0.00521354 1.0094e-19)
(-1.34347e-05 9.99089e-05 -2.59256e-19)
(0.0122155 0.0181751 -1.01312e-18)
(-0.00108873 -0.000393796 9.94579e-20)
(0.00356046 0.00165382 -8.66678e-18)
(-6.42645e-05 -4.78225e-06 2.194e-20)
(-0.000891075 -0.000561073 9.92675e-18)
(-0.000285705 -3.60417e-05 -3.29094e-20)
(-2.25115e-05 -5.46521e-07 6.50354e-21)
(-0.00257394 -0.00461225 5.05259e-18)
(0.0404876 0.00193459 -2.37746e-19)
(-0.000382971 -0.000158719 3.32689e-19)
(-0.00670144 0.00878774 -4.41627e-18)
(-2.61622e-05 1.47431e-05 -3.49527e-18)
(-0.000983453 0.000841371 2.80303e-19)
(-2.10626e-05 -5.66263e-07 8.02546e-21)
(-0.00175163 -0.0047295 3.28032e-19)
(-7.82224e-05 1.39229e-05 6.83501e-19)
(-0.00445779 -0.00393026 -5.40487e-19)
(-5.37173e-05 -1.81101e-05 -2.78438e-20)
(-0.000323699 -0.0001199 5.04262e-20)
(0.00579652 0.00867552 -5.60931e-18)
(-2.18328e-05 -1.17589e-06 6.14216e-20)
(-0.00372596 0.00785471 9.36708e-20)
(-6.78066e-05 -3.63982e-07 -2.31191e-20)
(-8.60531e-05 -1.04142e-05 -1.27044e-20)
(0.00119973 0.103881 -2.39775e-18)
(-4.47691e-05 0.00116084 -2.05292e-18)
(-0.000124885 3.94643e-05 -9.00159e-19)
(0.0088933 7.7481e-05 -3.9636e-18)
(0.00122286 -0.000439133 6.52143e-18)
(-0.0172633 -0.0562203 6.51591e-20)
(-0.0198758 0.00278858 -4.49402e-18)
(-8.91954e-05 1.20333e-05 -3.458e-20)
(0.00236265 -0.00359151 3.60664e-19)
(0.000907474 -0.0104594 -1.33997e-17)
(0.00206504 0.000477823 -4.28928e-18)
(-0.000859052 0.00256637 5.87238e-19)
(-0.000562464 0.000406705 1.82517e-18)
(-7.85799e-06 0.00591139 1.27958e-19)
(-7.09973e-05 -4.39799e-07 -2.30025e-20)
(-4.67839e-05 -2.85844e-05 1.93262e-19)
(-0.000863372 0.0142705 2.26082e-19)
(-0.00422798 0.00198696 2.63046e-19)
(0.000227593 0.000159698 -1.08512e-18)
(0.0106396 0.0801488 -3.98599e-19)
(-0.00117962 -0.00030529 1.13985e-18)
(-0.085344 -0.0754309 -2.50092e-19)
(-0.0623679 -0.00853806 5.29117e-21)
(0.0106719 0.0149123 -9.2448e-19)
(-9.61755e-05 -0.00157628 -1.22511e-18)
(-0.00610558 0.011074 -2.15955e-18)
(0.00160736 -0.00155412 -1.92489e-17)
(7.82655e-05 -2.85025e-05 -2.77893e-20)
(0.0100598 0.00385605 8.58251e-19)
(-0.00354046 0.0155902 -8.51491e-20)
(-8.69404e-05 -1.00597e-05 -1.12637e-22)
(-7.45723e-05 -2.67217e-06 -1.28693e-22)
(-3.80766e-05 -1.98456e-06 4.08326e-20)
(-0.000987057 -0.0038437 -1.38563e-19)
(-7.6599e-05 1.15397e-06 1.12354e-18)
(0.00406076 -0.00084138 3.92554e-18)
(-0.000220127 0.000676817 -8.16498e-18)
(-8.87467e-05 1.04517e-06 -2.28311e-19)
(0.000858562 0.00249312 8.01496e-18)
(-6.58094e-05 -5.307e-06 3.46865e-20)
(0.0111644 -0.00740084 1.06392e-17)
(0.000130312 0.000241466 -6.77086e-20)
(-0.000100837 3.56438e-05 5.06766e-20)
(0.00271296 0.000566323 -7.2346e-18)
(-0.00288305 0.00154297 4.05683e-18)
(-0.00502079 -0.0854123 -1.91607e-19)
(-2.14569e-05 0.000101749 -2.42125e-19)
(0.000869533 -0.000483328 2.51242e-20)
(-0.000154101 2.44871e-05 -1.1548e-20)
(-2.23722e-05 0.000134487 2.84099e-18)
(-0.00036771 4.98593e-05 -1.05332e-17)
(-0.000102886 2.36189e-05 3.27164e-19)
(0.00803103 -0.000229727 -9.86218e-18)
(0.000961799 -0.000423287 -3.33126e-18)
(-0.0414372 0.127282 -6.0425e-19)
(-0.00934243 -0.103868 -1.72726e-18)
(0.00925654 0.00536878 -3.11649e-19)
(-2.1053e-05 0.00170775 7.28086e-18)
(-3.19245e-05 0.000139866 -8.0118e-19)
(-8.61118e-05 -1.66797e-06 -3.41545e-20)
(-0.000334737 -4.95083e-05 -8.3328e-20)
(0.00715787 -0.00165006 9.30196e-18)
(-0.01702 -0.0653475 -2.72428e-18)
(0.000271362 -9.50509e-05 8.2305e-18)
(0.00712233 -0.000458673 1.3695e-20)
(-0.0148765 -0.0319638 -3.8609e-19)
(-8.48188e-05 -1.08915e-05 3.61017e-19)
(-0.000118458 3.33187e-05 7.17085e-21)
(-0.000681629 0.000197696 1.96462e-18)
(-0.000998273 0.00295271 -1.06108e-17)
(-0.0273846 -0.0576465 2.25055e-18)
(-0.00113388 -0.000553982 -8.58783e-19)
(-2.31652e-05 0.000128042 -1.71852e-18)
(-8.43662e-05 0.000159254 3.63077e-18)
(4.84689e-05 8.67169e-05 -3.41587e-17)
(-0.00164633 -0.00127783 1.23434e-19)
(-0.00535198 0.00747885 -2.6423e-18)
(-0.000244565 0.000678906 2.56389e-17)
(-0.000174118 -1.77563e-05 2.86881e-18)
(-4.11662e-05 0.000111773 7.72321e-19)
(-8.51935e-05 -1.33806e-06 3.45184e-20)
(-0.000343271 2.8024e-05 5.52692e-18)
(-0.00274771 -0.00296869 -3.64705e-19)
(0.00327964 -0.0018842 -3.53446e-18)
(-0.000145993 0.000733625 -1.90934e-18)
(-0.00453597 0.000157476 -4.33218e-19)
(0.00758428 -0.000303959 -1.79647e-18)
(0.000684701 0.00116552 4.32602e-20)
(-0.0218186 -0.00100992 2.87986e-19)
(-0.000484453 0.000373015 7.91469e-20)
(-0.00452426 -0.00547353 1.93525e-19)
(4.61376e-05 -0.000112562 1.40784e-18)
(0.00181887 0.000341228 -3.17789e-18)
(-6.92528e-05 -2.67625e-06 -4.13439e-20)
(-0.000139008 0.000831509 1.49765e-17)
(0.00969212 0.0300245 7.64258e-18)
(-0.00824463 0.079202 1.77786e-19)
(-4.77169e-05 5.36258e-05 4.82681e-18)
(-6.66234e-05 0.000692017 -3.50418e-18)
(-7.82146e-05 8.18407e-07 -1.68739e-18)
(-4.92497e-05 5.00792e-05 -1.51938e-18)
(-7.37078e-06 0.000106617 -2.95646e-18)
(0.0041704 0.00717563 -5.14748e-19)
(0.0013889 0.00810909 -2.36025e-20)
(-0.025802 0.000760795 1.4331e-18)
(-0.00454698 0.00827654 4.35387e-18)
(-8.93598e-05 1.24599e-05 9.43144e-20)
(0.00344696 -0.00103234 -1.12912e-17)
(-8.5621e-05 0.000375746 1.93009e-18)
(-0.000164687 0.000307813 3.62241e-18)
(-0.00574079 0.00971637 1.29566e-18)
(2.7108e-05 7.76262e-06 2.68003e-19)
(-7.71042e-05 0.000822472 -4.47452e-19)
(0.0533531 -0.00796595 -2.68295e-19)
(-6.95303e-05 -1.713e-05 -6.1886e-20)
(-0.00260797 0.00163733 -1.5059e-18)
(-0.00749485 -0.00757645 1.01749e-18)
(-0.000264211 0.000655817 -1.26365e-17)
(-7.76418e-05 -1.84608e-05 1.28864e-19)
(-8.85375e-05 7.89768e-07 -3.88792e-21)
(-4.70605e-05 -2.16824e-05 2.43514e-20)
(0.00117653 -0.000660824 -8.54223e-18)
(-5.02953e-05 0.000107967 -4.05912e-18)
(8.20833e-05 0.000445369 -4.16933e-20)
(-0.000212538 0.000784903 1.11285e-17)
(-0.000106631 2.64445e-05 -2.58012e-19)
(-9.39293e-05 4.19064e-06 -1.59951e-19)
(-0.0111855 0.00368952 2.17267e-18)
(0.0539157 -0.00379908 -2.26465e-20)