/*--------------------------------*- C++ -*----------------------------------*\
| =========                 |                                                 |
| \\      /  F ield         | OpenFOAM: The Open Source CFD Toolbox           |
|  \\    /   O peration     | Version:  v2012                                 |
|   \\  /    A nd           | Website:  www.openfoam.com                      |
|    \\/     M anipulation  |                                                 |
\*---------------------------------------------------------------------------*/
FoamFile
{
    version     2.0;
    format      ascii;
    class       surfaceScalarField;
    location    "550";
    object      meshPhi;
}
// * * * * * * * * * * * * * * * * * * * * * * * * * * * * * * * * * * * * * //

dimensions      [0 3 -1 0 0 0 0];
oriented        oriented;


internalField   nonuniform List<scalar> 
20642
(
8.05947e-05
1.29662e-05
-9.35608e-05
-0.000258662
0.00044305
-0.000183706
-5.11133e-05
-7.94988e-05
0.000130622
-4.741e-05
0.000352252
-0.000302797
-0.000352916
0.000512478
-0.000157494
-0.000452306
0.00019454
0.000144983
-0.00031512
0.000170683
-0.000535681
0.000304274
0.000231828
-0.000139587
-0.00013203
0.00027214
-7.96927e-05
-1.20801e-05
-0.000234123
-0.000301107
-0.000461454
0.000397703
6.75591e-05
1.88856e-05
1.52465e-05
-0.000308262
0.000467874
-0.000159402
-0.00037131
0.000495224
-0.000122354
7.4342e-06
7.31605e-05
1.01424e-05
7.95852e-06
-1.19952e-05
0.00052516
-0.000231438
-0.000293265
-0.000192457
0.0001364
5.60873e-05
9.74461e-05
-5.35571e-05
-4.3889e-05
-0.000373999
0.000242938
0.000131636
-8.50713e-05
-0.000296165
0.000385878
-0.000111918
-9.74154e-05
0.000209453
0.000334246
-0.000414234
-0.000422813
0.000219796
0.000204273
0.000397352
-0.000157565
-0.000239226
0.000330356
-0.000186266
-0.000144025
-7.96927e-05
0.000468391
-0.000172319
-0.000295517
4.01863e-07
8.61484e-06
-8.77084e-06
-7.00034e-05
-9.68932e-06
-0.00024175
8.64208e-05
0.000155384
0.000426639
-0.000284923
-0.000139537
9.43469e-05
-4.76061e-05
-4.67406e-05
2.05929e-05
-0.000303994
0.000288645
-4.03806e-05
0.000345007
-0.000343232
-3.90617e-05
0.000383876
-1.11086e-05
4.04551e-05
-9.15524e-06
0.00028953
-0.000144049
-0.000236088
0.000358672
-0.000122144
-1.36388e-07
-2.83224e-06
6.91678e-06
-0.000174885
0.000263827
-8.59746e-05
0.000388243
-4.57079e-05
-0.000341587
-8.22263e-05
-6.4939e-05
0.000147189
-0.000173238
9.10422e-05
5.37449e-05
-0.00016356
0.000109846
-0.000334595
-3.8601e-05
0.000128982
-7.82362e-05
-5.07444e-05
0.000217457
0.000197323
-0.000414626
-0.000224315
0.000249137
-4.13768e-05
-0.000415978
-6.67788e-05
0.000205999
-0.000139164
5.28738e-05
-8.67682e-05
3.38944e-05
0.000397329
-0.000465568
7.29413e-05
0.000496472
-0.000376621
-0.000115397
-0.000173998
0.000107261
-7.00034e-05
0.000107647
-0.000219426
-0.000269797
9.79706e-05
0.000191388
-0.000137603
-0.000210047
0.000111666
9.8386e-05
0.000144782
0.000216601
-0.000359031
-1.19766e-06
-9.14172e-08
1.84122e-06
-0.000154262
-0.000267131
-8.71241e-05
-1.06893e-05
9.78164e-05
1.66792e-05
-1.06311e-05
-5.98183e-06
-0.000195241
0.000459321
-0.000263597
-0.000324015
0.000283967
0.000291473
-8.94669e-05
5.40433e-05
3.54236e-05
-2.61975e-05
-8.15811e-05
0.000107783
6.86872e-05
2.56598e-05
-0.000494619
0.000421656
7.76446e-05
-0.000200553
-6.55535e-05
0.000381057
-0.000137587
-0.000508335
0.000258338
0.000251335
-0.000319448
0.00048203
-0.000160374
-0.000271414
7.45644e-05
-0.000199403
-0.000307376
0.000265925
0.000162205
0.000324294
0.000155143
-0.000475755
1.19267e-05
1.1932e-05
-1.53183e-05
-6.6849e-05
-0.00042235
0.000134118
-8.04132e-05
-5.3701e-05
-0.00022685
0.000203914
4.29466e-05
-0.00047366
0.00019936
0.000274598
-0.000132164
-0.000109521
6.66563e-05
5.16723e-05
-9.33496e-05
-0.000340859
0.000105245
-6.47869e-06
2.1902e-05
-7.17959e-06
-2.29062e-05
3.54546e-05
0.000276845
-0.000267258
0.000484891
-3.24999e-05
0.000303089
-0.000265052
-8.16882e-05
-0.000352299
0.000437111
0.00027365
0.000434352
-0.000233925
-0.000200296
1.88159e-05
1.38551e-05
-2.09262e-05
0.00012758
-4.12183e-05
0.000221423
-0.000362992
0.000141763
3.60505e-06
2.57368e-06
-4.13296e-06
-1.01597e-06
6.10265e-06
0.000452181
-0.000124741
4.3848e-05
6.39079e-06
-3.94989e-05
-0.000509736
0.000193228
-9.59311e-05
-9.54034e-06
0.000105474
-8.13454e-05
-1.55326e-05
9.68791e-05
-0.000270995
0.000418472
8.0909e-05
0.000185814
0.000156461
0.000173968
-6.32526e-05
0.000177064
-0.000101731
5.4125e-05
-0.000443874
0.000272066
2.73206e-05
-0.000114442
2.72239e-05
0.000260871
-0.000287011
-0.00010976
-8.26623e-05
-1.88615e-05
2.29771e-05
3.31012e-07
8.74394e-05
6.42394e-05
-0.000151665
0.000104011
0.000302297
-0.00040103
3.19709e-05
-1.1877e-05
0.000267418
-9.76995e-05
-0.000165726
0.000181667
0.000278142
0.000112196
7.31094e-05
-0.000185254
5.71076e-05
-9.2051e-05
3.49434e-05
5.89362e-05
7.51843e-05
0.000379133
-0.000130492
-0.000247297
0.000125423
0.000256187
0.000306315
7.11646e-05
-0.000370917
-6.9295e-05
0.000181533
-0.000277662
8.15194e-05
0.000196354
8.55116e-05
-0.000211906
0.000126451
-0.000106901
6.78732e-05
3.90288e-05
0.000317503
-0.000289064
-0.000196163
5.55108e-05
0.000140695
0.000344822
-0.000188285
0.000206169
-0.000107347
-9.88162e-05
4.96652e-05
3.51355e-05
-8.48007e-05
0.000453463
-0.00017709
-0.000275769
1.00226e-05
0.000429346
-0.000440662
1.15237e-05
-9.50549e-05
-0.00017267
3.39078e-05
-0.000129837
8.51144e-05
-0.000343572
0.00026548
-0.000436754
0.000398176
4.36002e-05
0.000222093
4.86154e-05
-0.000268308
-0.000104493
7.82994e-05
-0.000500473
-2.57303e-05
-5.84515e-05
8.41822e-05
-7.95399e-05
0.000481982
0.000251551
-0.000352122
0.000101045
-3.61299e-06
-1.14608e-06
6.63654e-06
-0.000372299
-5.90559e-05
0.000167851
0.000266623
-0.000440161
0.000358525
8.52649e-05
-7.88256e-06
6.1856e-05
-6.63126e-05
-2.57688e-05
9.20819e-05
5.08543e-06
6.65666e-06
-7.53583e-06
-1.36749e-06
-1.37689e-05
-0.000400265
0.00031707
9.66558e-05
-4.67854e-05
-7.28009e-05
0.000119591
0.000514075
-0.000185604
-0.000326975
-8.46188e-06
7.00075e-05
7.7945e-05
-0.000147949
0.000362865
-0.000187023
-0.000175717
-2.08377e-05
7.79356e-05
-0.000157522
7.95897e-05
-2.69986e-06
2.65778e-06
1.09091e-07
0.000166511
0.000287533
-0.000625084
0.00036554
0.000264293
-3.27935e-05
-6.65573e-05
9.93517e-05
-0.000340636
-0.00022064
0.000144641
7.60115e-05
5.9134e-05
-0.000194961
0.000135918
-4.0521e-06
1.06883e-05
-3.96123e-06
0.000280997
-0.000326549
-9.60991e-05
0.000206299
-0.000110151
-8.93064e-05
-0.000188093
0.000287756
0.000227589
0.00034412
-0.000371746
2.85728e-05
-0.000285437
-0.000385973
0.000348013
3.98961e-05
-0.000133127
9.32511e-05
-4.92383e-05
0.000136691
-0.000144438
0.000230016
-0.000404491
2.22876e-05
0.000170648
-0.000130723
1.28224e-05
-1.2169e-05
-0.000251157
-0.000222224
-0.000172943
0.000232196
-9.74419e-05
-7.57651e-05
0.000191314
-9.04298e-05
-0.000100852
5.76104e-05
-9.37028e-05
3.60925e-05
0.000212847
-0.000241133
4.24297e-05
-9.14484e-05
4.90186e-05
-9.00577e-05
0.000316915
-0.000226153
-6.4236e-05
-4.26644e-05
7.14281e-05
-0.000370284
-0.000365524
-7.05802e-05
0.000163015
0.000209004
-0.000371268
7.17168e-05
2.23016e-05
-9.40184e-05
-2.01253e-05
6.97906e-05
-0.000454535
0.000339912
0.000116429
0.000216074
-0.000277791
6.17712e-05
0.000298367
0.000104419
-0.000401997
-8.88601e-05
0.00017599
0.000109946
-0.00033821
0.000496998
0.000259436
-0.000311386
6.04621e-05
0.000543468
-0.000236614
-0.000305346
0.000366089
0.000178699
-0.000103966
-0.00015329
-4.28329e-05
0.00022075
5.04573e-05
5.95353e-05
-0.00010999
1.88753e-05
-5.53564e-05
5.84519e-05
7.7485e-06
9.97036e-05
-0.000103726
0.000100663
-8.93713e-05
-7.38495e-05
0.000206204
-0.000107838
-9.8333e-05
-7.53238e-05
0.000183548
-0.000108199
-0.000289128
0.000273081
3.85636e-05
2.28435e-07
-1.00546e-06
0.00017872
0.000166166
-4.43385e-05
-0.000141023
9.22694e-05
5.27097e-05
-8.25049e-05
-5.42244e-05
4.76601e-06
-1.90193e-06
5.30218e-06
9.88512e-05
0.000104599
-9.57134e-05
5.36937e-05
1.49936e-05
5.62005e-05
6.07123e-05
-0.000116911
0.000482761
-0.000292398
-0.000186718
-3.35746e-06
5.20535e-06
-1.56315e-06
0.000161919
8.72974e-05
-0.000249125
-4.12732e-05
8.91681e-05
-4.78948e-05
1.74285e-05
-6.07469e-06
-6.9421e-06
-1.23235e-05
-0.00025284
-0.000108451
0.000324578
6.84453e-05
4.67231e-05
-0.000115166
7.31026e-05
-5.3433e-05
0.000103892
-9.78905e-05
-0.000132871
0.000230839
-0.000219059
0.000310396
-7.05531e-05
-8.69661e-05
-3.34971e-05
0.000195492
-0.000167427
-0.000275957
-0.000221009
0.000150894
7.01721e-05
-0.000328807
-0.000123859
-4.77643e-05
5.92e-05
-0.000321717
0.000266755
-0.000312957
0.000229235
8.39249e-05
0.000269045
-0.000164113
-0.000104798
0.000542611
-0.000216114
-0.000322426
4.98542e-07
0.000226084
0.000413851
-0.000524274
0.000112958
-0.00023402
-8.07342e-05
0.000318946
-8.97015e-05
3.54476e-05
5.42539e-05
0.000400726
-9.40715e-05
-0.000306535
0.000289289
-9.34685e-05
-0.000191303
1.52942e-05
-9.33651e-05
-9.23357e-05
0.000454397
9.81297e-05
-7.85196e-05
0.000366244
6.83135e-05
-1.53542e-05
-0.000271276
0.000193475
7.80396e-05
0.000121016
0.000172205
8.50733e-05
-5.50107e-05
3.52863e-05
-0.00011663
0.000554127
-0.000181581
-0.000365607
-0.000370022
0.000524912
-0.000152275
-8.56882e-05
-0.000119305
0.000205027
-1.2874e-05
8.89601e-05
-7.32489e-05
-0.000120079
0.000287455
-0.00016721
-5.2636e-05
-3.70655e-05
-8.63221e-05
7.62036e-05
-4.42349e-05
-4.52319e-05
8.40698e-05
-0.000313782
-0.000129892
8.3112e-05
3.87648e-06
-5.07996e-06
0.000337733
0.000124177
-0.00046021
0.000327882
0.000217766
0.000347938
7.68336e-05
-0.000416325
0.000115696
-0.000155
3.93242e-05
2.84423e-05
1.95795e-05
-3.10214e-05
0.000189399
0.000173594
-9.6199e-05
0.000300973
-0.000204267
-2.72584e-06
0.000226943
0.000149257
0.000138637
-0.000287806
3.53868e-05
1.13648e-05
9.92361e-06
-0.000149833
0.000256088
-0.000106122
0.000460523
3.72536e-05
-0.000494975
-6.28375e-05
0.000336769
-0.000272782
0.000123672
-0.000474277
-0.000438378
0.000240179
-7.86522e-05
0.000314986
-0.000231381
6.95639e-05
-2.39433e-05
-0.000126865
0.00022879
-0.000101862
-0.000108217
0.00041357
-0.000303694
-0.00016741
-0.000145274
-0.000119072
-0.000317955
0.000199709
-0.00019822
1.79758e-05
2.82945e-05
-9.46065e-05
5.55036e-06
6.61665e-05
0.000281139
7.59522e-05
-0.000350491
-2.81727e-05
9.28053e-05
-6.36697e-05
0.000255735
0.000369838
9.75026e-05
-0.000466388
-0.00013527
0.000141467
-6.18001e-06
-0.00011408
1.38874e-05
0.000100193
-6.06442e-05
-0.000159989
-7.68608e-06
-4.05049e-06
1.17946e-05
-3.06346e-05
-0.000181192
-0.000496077
0.000128664
-0.000128765
4.83561e-05
0.000448083
-7.73072e-05
7.25719e-05
-0.000123677
5.41661e-05
-1.15421e-05
-0.000447274
7.75788e-05
-0.000294663
6.53752e-05
-0.000407257
0.000345727
5.10827e-05
0.000392642
-0.000169858
7.24473e-05
1.50354e-05
4.33923e-06
-1.31509e-05
-8.57828e-05
5.299e-05
-0.000153713
0.00015022
2.56736e-05
-0.000106899
0.000215792
-2.34671e-05
-7.59214e-05
0.000101474
7.11209e-05
2.63253e-05
0.000159809
2.71766e-05
-0.000176456
0.000295463
-0.000138256
-0.000156962
0.000424317
-0.000125231
9.00463e-07
-8.52074e-06
2.44426e-05
-2.82443e-06
9.88964e-05
9.06033e-05
-0.000189451
9.63356e-05
-0.000127699
3.13662e-05
-7.38946e-05
0.000386959
-0.000309815
0.000403078
-0.000333894
-4.79528e-05
-5.37776e-05
0.000110009
7.78883e-06
-0.000117796
3.00785e-05
-0.000128455
9.83858e-05
-0.000414455
0.000106432
7.88076e-06
-9.07717e-05
0.000476487
-0.000296931
-0.000175841
5.48574e-05
5.55706e-05
-0.000110426
-0.000186054
0.000155487
0.000103137
-9.15769e-05
0.000587163
-0.000400142
0.000316866
8.67528e-05
-0.000395921
0.000236451
0.000159827
0.000128278
0.000197137
-9.25823e-05
-0.000104515
0.000278224
-0.000160297
-0.000117815
-0.000282262
0.000162388
-0.000165731
-1.5576e-05
0.000181412
-5.1391e-05
9.68972e-05
-4.5506e-05
0.000370493
-5.77644e-05
0.000325578
-0.000396199
0.000306056
0.000207708
-5.33426e-05
-8.33666e-05
0.000136725
9.00375e-06
-8.76045e-06
4.72061e-06
7.05766e-05
6.55372e-05
-0.000231147
3.4527e-05
-0.000142224
0.000220463
0.000279807
-0.000131619
0.000262151
-0.000130441
6.73816e-05
-9.46062e-05
-0.000157557
-0.000290249
0.000448028
8.42658e-05
0.00014699
-0.000228663
9.53466e-05
0.00010573
0.000273113
0.000151922
0.000242182
0.000318038
-5.22518e-05
-7.37993e-05
0.000126059
7.96045e-05
2.56209e-05
-0.000103427
-8.8823e-05
0.000158835
8.35025e-05
0.000224024
-0.000137195
-0.00042462
-2.0311e-05
0.00037639
-0.000353005
0.000121216
-8.6263e-05
-3.45219e-05
0.000244015
-8.73717e-05
-0.000150674
3.04568e-05
-8.40136e-05
0.000111793
9.97249e-06
-0.000503278
0.000287269
0.000217424
0.000334217
-0.000155444
0.000167023
0.000148895
-0.000315713
0.000481428
-0.000152923
-0.00032633
-9.63214e-05
0.000179895
-8.35665e-05
0.000151498
-8.50063e-05
-0.000283424
0.000435787
-0.00015072
0.000168713
-5.2996e-05
0.00031764
-0.000470384
0.000156755
-0.000173359
0.000340601
-0.000145572
6.60846e-05
-8.01563e-06
0.000170017
-0.00031779
0.000148247
-0.000378125
0.000260161
-0.000398738
0.000305692
0.000102567
-0.000288468
0.000170829
0.000130233
0.000355974
6.9246e-06
-0.000356314
-0.000366314
0.000179424
-0.000139148
0.000358032
-0.000216264
-7.85645e-05
-0.000295287
0.000379657
-0.000354102
-0.000100722
0.00046054
0.000174424
-0.00027282
9.85541e-05
-1.44218e-05
0.000381417
-0.000366571
-1.38218e-05
8.84997e-05
-7.22347e-05
-3.31812e-07
-2.03947e-06
4.01379e-05
-0.000175388
-0.000268896
0.000137383
4.6378e-06
0.000350546
-0.000168931
-0.000332437
-9.50818e-05
-7.92272e-05
0.000174322
0.000221134
0.00014846
-0.000369508
1.24365e-05
4.35883e-06
0.00015296
-1.65337e-05
-7.58467e-05
-5.29143e-05
-0.000188844
3.89052e-05
0.000152823
8.71802e-05
9.42235e-07
-8.53822e-05
-0.000393818
0.000288447
0.000106142
-0.000153176
-0.000121822
7.57631e-05
0.000269859
7.66021e-05
-7.33484e-05
-4.37457e-05
-0.000142212
-6.73892e-05
-7.76491e-05
0.000145041
0.000454088
-0.000132661
-0.000327265
0.000159899
0.000167684
-8.55498e-05
3.05391e-05
-0.000219411
6.97122e-05
-4.00601e-05
0.000307842
7.33165e-05
-0.000440057
-0.000157841
6.1527e-05
-0.000271621
0.000435485
-1.73131e-05
7.44207e-05
-1.74925e-05
9.5637e-05
-7.58912e-05
-0.000142119
0.000321605
-0.000169125
-2.69164e-05
0.00010833
-8.2765e-06
0.000116347
6.61479e-05
-0.000407765
-6.2511e-05
0.000402874
-0.000337364
-0.00019214
9.70748e-05
0.000191322
5.02753e-05
-0.000239632
0.000102355
-0.000322811
0.000191561
-0.00030235
0.000130675
0.000171877
0.000184929
3.82338e-05
-0.000221322
-0.000439503
0.000104519
0.000126629
-0.000224445
-0.000118366
0.000148455
-0.00033307
-6.36118e-05
-0.000137685
-0.000190355
0.000328088
-0.00030269
0.000299283
1.16627e-05
2.92064e-06
8.78388e-05
-7.40192e-05
8.92278e-05
-0.000438076
0.000361579
-0.00037879
-0.000229511
-5.44125e-05
0.00029276
-5.7402e-05
-1.04747e-05
9.1301e-05
9.61682e-05
-6.53969e-05
4.20711e-05
-0.00026289
-0.000119216
0.000268544
-0.000158957
9.97542e-05
5.92209e-05
-7.72475e-05
9.6331e-05
8.90384e-06
-0.000151706
0.00021955
-6.77202e-05
4.47846e-05
-0.000168896
0.000143435
-0.000142958
-4.74619e-07
-0.000105258
-0.000159173
0.00026481
0.000100471
-0.000132839
0.000107433
2.59229e-05
-3.51993e-05
-9.72242e-05
0.00031664
-1.46346e-05
0.000234562
-4.78366e-05
0.000154644
0.000185313
-0.000115496
-6.98008e-05
2.39978e-05
-2.62221e-05
-0.000350967
-0.000109964
0.000307963
0.000175965
0.000141735
-0.000317209
-0.000331156
8.3226e-05
0.000248435
-0.000151797
0.000123321
2.84901e-05
0.000104227
-0.00020674
0.000102592
0.000310248
-0.000197162
-0.000110648
0.000157931
0.000369337
-0.000469722
0.000238642
0.00034249
-0.000164112
-0.000178139
-0.000327314
0.000190771
0.000186361
0.000281614
-0.000292081
9.25153e-05
0.00019977
-0.000295387
0.000199691
0.000159505
-7.00594e-05
-8.94402e-05
-5.71404e-05
0.000183532
0.000159171
0.000100085
0.000106256
-0.000210831
0.000128751
9.47765e-05
-4.44149e-05
-3.93102e-05
8.37254e-05
7.54871e-05
-5.86401e-05
9.4556e-05
-9.96592e-05
0.000228978
-5.44215e-05
-9.08231e-05
7.54321e-05
-4.32644e-05
8.41517e-05
0.000103667
-0.000230461
9.65055e-05
-6.65009e-05
-0.000196635
0.000325299
-0.000128637
-0.000277095
-0.000109476
8.63757e-05
-0.000330927
0.000245964
0.00027818
-0.000180423
-9.55239e-05
7.59944e-05
0.000103214
-0.000179191
0.000112296
0.000105666
-0.000217933
-0.000422058
0.00010406
0.000321196
-0.000451259
0.000324877
-0.000241681
-7.02e-05
0.000286856
-0.000155282
-0.000131422
0.000117376
0.00028926
-0.000406107
-7.83499e-05
-0.00027969
0.000363944
2.09106e-05
-6.51945e-06
0.000108844
-0.00047022
-0.000294734
-9.50843e-05
0.00033213
0.000101275
-0.000430881
-0.00010246
-0.000166844
0.000269686
6.94245e-06
0.000196747
-9.24444e-05
-0.000107266
-9.01999e-05
-0.000351697
0.000533405
-0.000176119
-0.000299945
-7.697e-05
9.92288e-05
-3.75216e-05
-6.17065e-05
-5.89495e-05
7.66807e-05
-1.15564e-05
0.000139083
0.000182875
-0.000321164
-0.000317108
0.00024052
-0.000171789
-0.000130323
0.000204947
-7.39926e-05
-0.00013087
0.000254595
-0.00033591
8.16605e-05
7.41865e-05
-0.000144735
-0.000371034
0.000328962
4.38006e-05
-0.000287549
-0.000104513
4.02776e-05
7.10947e-05
-0.000138482
-5.2351e-05
-3.31988e-05
0.000258408
7.95706e-05
-0.000331355
0.000343688
9.61474e-05
-0.000434395
0.000161863
0.000150101
0.000128527
-0.000407825
0.000286163
7.39675e-05
-0.000119574
4.5609e-05
6.64859e-07
9.10828e-05
0.000324864
0.000135948
-0.000460531
-0.000312578
0.00022325
0.000117902
-4.93869e-05
-6.85137e-05
-7.53816e-05
0.000299232
-9.52637e-05
7.96258e-05
1.56381e-05
-0.000223882
0.000274793
-4.63075e-05
-0.000107498
0.00015385
-1.56189e-05
4.60397e-05
0.000323106
-0.000102782
-0.000217033
5.57851e-05
6.2118e-05
-1.19959e-05
-7.63971e-05
-0.000126882
0.000119284
7.60625e-06
1.38269e-06
1.26151e-06
-1.72446e-06
3.69381e-07
-5.16047e-05
0.00043815
-0.000120666
-3.11165e-05
0.000412872
-7.83275e-05
-6.41242e-05
-2.53196e-05
9.34286e-05
0.00017173
-9.75807e-05
-7.41244e-05
0.000101267
-0.000252848
-0.000237194
-0.000212714
-0.000154047
4.95586e-05
-1.13672e-05
-8.24218e-05
9.37898e-05
0.000103284
4.01564e-05
4.93586e-06
-5.81673e-05
-1.04368e-05
-4.86995e-05
5.91363e-05
-2.4733e-06
-2.75845e-06
6.27187e-06
6.98322e-05
-0.000177176
-0.000203029
-0.000296967
0.000100496
0.000225576
2.80988e-05
-0.000100555
7.3436e-05
-4.23809e-06
4.70491e-06
-0.000193496
-9.83695e-05
-9.68657e-05
-0.000273947
7.88621e-05
3.82378e-05
-1.49023e-05
-2.00182e-06
4.89617e-05
-1.88359e-05
-7.94827e-05
-7.45577e-05
-0.000254164
-6.41213e-05
0.0003274
0.000220028
-0.000125285
-9.46807e-05
-0.000445186
9.88975e-05
2.64991e-05
-8.64864e-05
-6.33195e-06
1.52861e-05
-0.000222253
5.87301e-05
-0.000141955
0.000118651
2.33125e-05
-5.82373e-05
-3.70264e-05
-0.000117033
-0.000103908
0.000160183
-0.000262276
-0.000163457
0.000112381
5.10878e-05
-8.60953e-05
4.48222e-05
8.00611e-05
0.000169661
-0.000104901
0.00018289
-7.79767e-05
-1.74631e-05
4.22744e-05
0.000136036
-0.000177685
4.16734e-05
0.000393393
-0.00025841
-0.000127385
7.5141e-05
-0.000372113
8.6315e-05
0.000468045
-0.000364344
1.79193e-05
0.000384789
-0.000415727
0.00022084
5.05867e-05
-0.000271184
-3.43539e-05
-6.39366e-05
9.82929e-05
1.29443e-05
-2.28054e-05
1.59894e-05
-0.000167934
-0.000103104
0.000431626
-0.000264446
-0.000162388
7.99625e-08
-2.89256e-06
-9.15165e-05
4.01257e-05
-0.000159107
-0.000188472
0.00034774
-0.000378844
0.000253242
0.000129339
0.000106422
9.07533e-05
0.000204857
9.55607e-05
0.000209224
-0.000301587
-3.09537e-06
1.05026e-06
-4.84648e-05
-4.30513e-05
-0.000421991
0.000178921
0.000453671
7.52386e-05
-7.22214e-05
-0.000177155
-0.000198145
6.91239e-05
-0.000122452
5.03427e-06
-4.37935e-06
7.53482e-05
-0.00017566
0.000100347
1.07965e-05
1.41352e-05
-1.60242e-05
-2.68149e-05
-0.000153166
0.000191624
0.0001815
8.79183e-05
6.42978e-05
3.801e-05
-7.62348e-05
3.82248e-05
-0.000128241
1.36617e-06
0.000335317
0.000102186
-0.000437009
-7.35229e-05
0.000173642
5.885e-05
-0.000273716
0.000188723
0.000307736
3.84061e-05
6.08231e-05
-0.000136022
0.000108012
2.80157e-05
-0.000117225
-0.000275794
-0.000319835
0.00028206
0.000158694
0.000311687
2.9621e-05
-1.14693e-05
-2.58675e-05
0.000332829
-0.000301079
5.47931e-06
6.32866e-06
0.00021157
-9.70154e-05
-0.000114478
-0.000270874
0.000358203
-8.65467e-05
8.99163e-05
6.9593e-05
0.00026102
-3.99466e-05
-8.62399e-05
-0.000319923
0.000406524
-9.82298e-05
0.000210552
0.000302253
-0.00040891
0.000282823
-0.000141664
-0.000140913
-0.000192834
0.000102436
4.49332e-05
0.000229139
-0.000151302
-0.000231523
0.000384659
6.43725e-06
-9.93131e-07
-0.000174563
0.000158986
1.12757e-05
2.67211e-05
-5.70238e-06
1.64881e-05
9.21357e-05
0.000188117
-5.45625e-05
7.56694e-07
7.46853e-05
-5.38665e-05
4.34298e-05
0.000143314
-0.000272382
0.000129257
-1.22078e-05
-4.83498e-05
7.33834e-05
-9.11182e-05
-7.87052e-05
3.0207e-05
-1.24748e-05
-3.62038e-05
-7.78747e-05
0.000311092
-0.000222735
0.000358068
-0.000280651
6.30533e-05
3.34526e-05
-7.10584e-05
0.00018682
-0.000115686
-0.000157023
-5.59218e-05
0.000356761
-0.00038719
3.36128e-05
-2.83692e-05
9.61274e-05
-6.64232e-05
-8.09614e-05
-0.0002598
0.000346731
-0.000314085
0.000316842
-1.0925e-06
-0.000197526
0.000205885
-8.12427e-06
0.000311461
8.37639e-05
-0.00038765
-8.62146e-05
4.88564e-05
3.73582e-05
-0.000320936
5.12569e-05
0.000270144
0.000312914
0.000112922
-0.000425358
5.34331e-05
-0.00021019
-0.000374746
0.000225201
-7.32109e-05
6.18442e-05
0.000323377
-0.000235627
-1.93354e-06
3.55087e-05
-2.38269e-05
0.000258565
-8.70121e-05
3.43763e-05
0.000137613
5.99195e-05
0.000257596
6.79351e-05
-8.52483e-05
-0.000140591
0.000465459
-0.000324561
-3.7134e-05
0.000207823
0.000356596
-6.89329e-05
-0.000344484
0.00041226
0.000104127
-5.8539e-05
0.000211815
-0.000152775
0.000244278
-0.000365819
5.36221e-05
-0.000155847
0.000295669
0.000134785
-0.000112021
-0.00038112
9.89051e-05
-0.000191448
-8.55984e-05
0.000229071
8.81983e-05
-0.000437366
8.5924e-06
0.000258545
-2.57731e-05
3.34601e-05
7.47784e-05
-0.00027195
-0.000363948
6.72721e-05
-7.21398e-05
0.00036005
-0.000286769
0.000332187
-0.000215231
-0.000114573
6.20479e-05
-9.13333e-05
2.92855e-05
-1.27623e-05
1.98524e-05
-6.84695e-06
0.000322479
-0.000462772
2.10563e-05
-0.000339402
0.000459618
-0.000321487
-0.000137203
0.000300861
-0.000230117
-7.01638e-05
-0.000117253
-1.87635e-05
-1.22325e-05
3.23299e-05
0.000205606
-8.76984e-05
-0.000117847
-2.71323e-05
-0.000114816
-9.67863e-06
7.37625e-06
2.30428e-06
-0.000426554
0.000304999
0.000128517
0.000265678
7.41342e-06
-4.15932e-05
-0.000431328
0.000223182
0.000216444
2.64452e-05
0.000399659
-0.000420861
0.000138904
-0.000416853
0.000279152
0.000231553
-0.000175358
-4.68593e-05
0.000174289
0.000199125
5.55773e-05
-0.000246352
-0.000141052
5.37587e-05
8.72985e-05
-0.000273223
0.000141627
-6.13356e-05
0.000237704
-8.63771e-05
0.000153402
0.000326739
-0.000158738
0.000112475
-0.000358629
0.000124771
-7.08158e-05
8.5084e-05
-9.0333e-06
0.000119564
-0.000190543
0.000137338
9.943e-05
-0.000236671
0.000137573
-0.000223019
-7.5493e-05
-0.000191665
0.000272844
-0.00023012
-7.24791e-05
0.000243891
-0.000264899
7.63448e-05
-0.000415065
0.000132601
-8.07969e-05
-0.000232593
0.000317504
0.000136774
-0.000243546
-6.03006e-05
0.000379128
-6.80556e-05
-0.000246776
0.000322243
-0.000186237
1.22757e-05
-0.000169112
0.000314506
9.0615e-05
-0.000403987
0.000337226
-0.000116023
-0.000226429
-0.000169099
4.60631e-05
-0.000274415
0.000304612
6.93682e-05
0.00041463
0.000145614
-6.2287e-05
-8.3316e-05
-0.00021841
0.000321907
-6.26673e-05
0.000376341
-0.000311489
-1.45147e-05
1.70326e-05
1.66213e-05
1.94533e-05
-2.9126e-05
-0.00035307
-5.75545e-05
0.000414112
-8.93864e-05
-0.000277068
0.000367496
0.00032941
-7.4518e-05
0.000187045
-0.000257006
2.71853e-05
-9.2303e-05
6.56704e-05
0.000353759
-0.000441415
9.19841e-05
0.000160656
-0.000363338
0.000309683
0.000151771
-0.000256672
7.40748e-05
-1.3953e-05
0.000164893
-0.000107957
7.15064e-05
7.26031e-05
-0.000144102
0.000407395
-9.18371e-05
3.48047e-06
-1.29653e-05
8.70392e-05
-7.3151e-05
0.000216396
-0.000382529
0.000167552
-5.60007e-05
0.000363695
-0.000274464
0.000295753
-0.000429439
0.000134513
0.000495629
-0.000354733
-0.000138
8.5459e-05
0.000226266
-0.000305429
-0.00013145
-0.000287889
-0.000100881
2.94799e-05
7.14021e-05
0.00019236
0.000105538
-0.000297492
0.000412993
-7.71974e-05
-0.000197975
0.000346513
-0.000200323
-0.000221974
0.000224749
-8.70225e-05
4.74121e-07
-3.68385e-06
0.000265933
9.81597e-05
-0.00036169
-0.000123429
0.000410805
-0.000286787
2.4879e-06
2.87297e-06
-0.000148199
0.000104728
-0.000326817
0.000222906
0.000420244
-0.000123673
7.29629e-05
-0.00018269
-0.000478481
0.000358362
0.000121135
-0.000146248
-2.06763e-05
0.000172169
-3.65765e-05
7.36193e-06
3.62325e-05
0.000138228
0.000140096
0.000266403
0.000362135
7.95826e-05
-0.000437234
0.000417592
-0.000307769
-0.000108062
0.000331258
9.30414e-05
-0.0004188
0.00020242
-2.16803e-05
-0.000120415
-0.000405178
0.000198997
0.000206405
-0.000330463
0.000421652
6.09249e-05
-8.02696e-05
1.93447e-05
-3.7797e-05
-9.52421e-05
-0.000325751
0.000421763
0.000101582
0.000175743
-0.00031338
6.83591e-05
0.000470987
-0.000372504
0.000180921
1.43479e-05
-0.00018431
9.13134e-05
0.000196185
-0.00028443
-0.000512445
0.000208808
0.000309538
-0.000374513
0.000294973
8.13575e-05
6.03039e-05
0.000267497
-6.07877e-05
-0.000271059
0.000339349
-0.000289719
0.000275614
0.000439448
0.000127583
-5.49589e-05
-7.26195e-05
-0.000301791
-0.000110899
-0.00026134
0.000173382
8.81995e-05
0.000154398
-0.000262743
0.000108465
-8.31328e-05
-0.000239763
0.000328862
0.000134229
0.000224782
-9.61378e-05
0.000313845
0.000113987
-0.000350078
0.000239298
-0.000331847
0.000159384
0.000173015
0.000102115
-7.4701e-05
-9.57805e-05
4.15842e-05
0.000112561
9.90734e-05
-2.298e-05
7.90562e-05
-5.55317e-05
0.000342012
-0.000259723
0.000294366
-0.000385017
-2.641e-05
-0.000376594
-9.98789e-05
0.00045789
-0.000158877
0.000187279
1.49965e-05
-0.000191404
-0.000334679
-0.000269781
-9.32751e-05
-0.000154768
5.46911e-05
0.000100315
-0.000142107
0.00047238
-0.000328489
0.000416253
-0.000288377
-0.000120406
9.81491e-05
-0.000126622
0.000344933
0.000226054
-2.74194e-05
-0.000151191
8.0423e-05
-0.000314982
0.000464238
-0.00014746
0.000169113
-5.72597e-05
-0.000194836
0.000260057
-0.000192743
9.7159e-05
-2.47995e-05
-7.08187e-05
0.000354542
-0.000450261
4.87599e-05
4.81374e-05
-6.95084e-07
-2.89832e-05
0.000282047
7.18352e-05
-0.000170619
7.95368e-05
-4.48008e-05
2.82728e-05
7.02083e-05
-0.00010286
-0.000354039
0.000457707
7.52114e-05
7.04125e-05
0.000101206
0.000166722
-0.000265081
0.00052242
-0.000399984
-0.000119248
0.000432779
5.17411e-05
-0.000383727
0.000349645
4.62146e-05
8.49492e-05
8.68015e-05
-0.000226296
-0.000137984
0.000367693
5.03351e-05
-9.47498e-05
-0.000297871
0.00042356
-0.000132692
0.000250962
-0.000118241
0.000282726
6.10365e-05
-7.8806e-05
1.96373e-05
4.7706e-05
6.46495e-05
-5.52197e-05
2.22052e-05
3.28501e-06
-1.58018e-05
-6.57081e-05
-3.88036e-05
-0.000444117
0.000128243
0.000317936
-2.84005e-05
0.000227689
-0.00018835
-0.000361687
-0.00010659
0.000468968
0.000250891
0.000291413
-0.000196932
0.000108002
0.000126137
-0.000407889
0.00010129
-0.000133876
-0.000193045
0.000122143
-0.000183963
6.18606e-05
0.000155308
0.000184585
-0.000339605
-8.51826e-05
3.22667e-05
5.29162e-05
-0.00011862
0.000439874
-0.000318562
0.000112901
0.000367189
2.03994e-05
-0.000377571
-3.26272e-05
8.06551e-05
-4.80278e-05
-4.70183e-05
-0.000387093
0.000358957
3.08685e-05
-9.94252e-05
7.61837e-05
-0.000335765
0.000248835
9.04453e-05
-2.62606e-05
-7.15533e-05
7.84964e-05
-0.00018627
0.000110952
8.33013e-05
0.000175035
-0.000254485
0.000426443
-0.000307631
-0.000110923
0.000169469
-0.000275332
0.000106246
8.68165e-06
-7.43648e-05
-0.000310407
-0.000131584
-0.000186743
0.000114319
7.24732e-05
-0.000160507
7.02516e-05
9.02591e-05
-6.60604e-05
0.000137573
-8.57663e-05
-8.48134e-05
0.000342877
-5.20596e-05
0.000100348
4.77433e-05
0.000331043
-0.00036868
-0.000146026
8.37496e-05
-0.000283432
0.000401344
-3.57015e-05
-0.000146843
4.62979e-05
0.000103442
0.000207043
-0.000117995
5.44836e-05
8.78675e-05
0.000323099
0.000122794
-0.000441317
-0.000108929
-3.5186e-05
8.2299e-05
-0.000107453
0.000285814
-0.000370923
9.58614e-05
0.000143751
0.000139304
-0.000218952
0.000201531
-5.33082e-05
-2.60578e-05
7.93662e-05
8.719e-05
0.0002455
6.39507e-05
-0.000300209
-6.82102e-05
-3.26702e-05
2.10816e-05
0.000355723
0.000284929
-0.000272907
-0.000363523
9.48636e-05
-9.41839e-05
4.57196e-05
0.000307515
-0.000123785
-1.05494e-05
3.70545e-06
9.97753e-06
-0.000214822
0.000271037
-0.000334324
6.93213e-05
8.10053e-05
-0.000135552
5.2794e-05
8.27627e-05
0.000294884
-0.00035038
0.000178143
0.000172338
0.000328348
-4.46198e-05
0.000225032
0.000195935
-0.000333643
0.000112415
0.000133123
-0.000242257
0.000354202
-0.000144669
-0.000357268
-0.000120092
-0.000304783
-6.51986e-05
-4.81938e-05
-3.79014e-05
-0.000351756
-8.8673e-06
0.000362876
1.58197e-05
3.86826e-05
0.000184155
0.000340805
-2.97845e-05
-0.000306288
0.000345454
-0.000276022
0.000165668
-9.20287e-05
-7.36117e-05
0.000248579
-0.000134797
4.20249e-05
-0.000312127
-3.23796e-05
-5.46324e-05
3.71989e-05
-9.05069e-05
-0.000470605
0.000114529
7.25567e-05
9.31361e-05
0.000166162
-0.000255758
8.55603e-05
-5.29283e-05
-3.26319e-05
0.000128392
-0.00022291
-0.000119485
0.00019012
-7.06229e-05
0.000122873
0.000262632
-9.21737e-05
0.000185285
0.000142986
-0.000326767
-5.21288e-06
-0.000185731
0.000190971
0.000117126
-4.94361e-05
-6.76868e-05
-2.38663e-05
9.7481e-05
-7.23984e-05
-0.000431294
-1.51302e-05
7.75072e-05
0.000249748
-0.000303781
0.00011348
0.00010781
-0.000435206
-0.000337783
0.000114811
0.000142018
-0.000236884
9.49284e-05
-7.00166e-05
5.87202e-05
1.12964e-05
0.000244112
9.90742e-05
-4.42062e-05
8.90285e-05
-1.06463e-06
3.29152e-06
0.000113223
-1.57455e-05
-9.48192e-05
-0.000142081
-6.34139e-05
-4.82364e-05
0.000111652
-0.000316296
-5.63451e-05
-3.70614e-06
2.27445e-06
-0.000216881
-9.78404e-05
0.000354471
-0.000422829
7.38726e-05
0.000285556
-0.00027945
0.000419594
-0.000462591
0.00031734
0.000146437
-0.000369007
-0.000136608
-0.000438079
7.6119e-05
-9.87848e-05