/*--------------------------------*- C++ -*----------------------------------*\
| =========                 |                                                 |
| \\      /  F ield         | OpenFOAM: The Open Source CFD Toolbox           |
|  \\    /   O peration     | Version:  v2012                                 |
|   \\  /    A nd           | Website:  www.openfoam.com                      |
|    \\/     M anipulation  |                                                 |
\*---------------------------------------------------------------------------*/
FoamFile
{
    version     2.0;
    format      ascii;
    class       volScalarField;
    location    "800";
    object      ddt0(k);
}
// * * * * * * * * * * * * * * * * * * * * * * * * * * * * * * * * * * * * * //

dimensions      [0 2 -3 0 0 0 0];


internalField   nonuniform List<scalar> 
13851
(
4.56022e-07
2.5349e-08
2.64681e-08
0.00011703
-1.8408e-08
3.43543e-08
-1.35269e-08
-3.94578e-08
-0.000224586
-8.61866e-09
-2.63248e-08
-1.09545e-08
1.00614e-08
0.000143348
7.13063e-08
2.91581e-06
0.000135887
-5.37768e-09
-3.36198e-07
2.09255e-07
4.7509e-08
-8.36207e-09
-0.00175041
-3.68737e-09
0.000181069
4.02377e-07
-5.68233e-05
0.00133696
0.000304696
-2.26612e-08
-0.000113353
-1.26933e-08
8.50495e-07
0.000916131
-2.63102e-08
0.000191411
-1.63824e-09
0.00671385
-0.000688207
-9.91688e-09
-0.000572755
0.000226069
5.8901e-05
-1.02612e-05
-0.000403816
-7.78565e-09
-4.08968e-08
6.43952e-07
-6.11496e-09
1.0485e-08
-8.77412e-05
5.26879e-09
2.50665e-06
2.87305e-08
0.000311976
-7.49082e-09
7.42468e-07
-0.00046658
-4.71889e-05
-1.26106e-06
-1.0517e-08
1.26851e-05
-2.6713e-09
-4.01859e-09
-3.39636e-06
-3.15147e-06
-6.42552e-05
7.49979e-07
-2.66015e-08
0.00012322
0.000162361
5.25712e-09
1.37498e-08
-3.43255e-05
5.10435e-08
-2.47828e-08
0.000143524
-2.48062e-08
-0.000223835
-1.8398e-09
-2.8615e-08
1.7767e-06
7.52407e-10
0.000108342
3.75324e-05
-3.46395e-05
-8.5354e-09
8.64299e-05
-1.09028e-08
-0.000269281
4.96865e-09
-1.21724e-08
5.40949e-06
-2.21614e-05
0.000149592
6.48223e-06
4.43088e-09
1.64053e-06
-0.000292022
-1.96215e-06
1.54234e-06
-5.72221e-07
-3.03662e-07
1.44826e-08
-1.6198e-08
-4.44479e-10
-1.47609e-08
0.000127851
-1.16941e-08
-8.15051e-09
-1.11775e-07
-9.81074e-09
4.61348e-07
-3.24072e-08
6.78788e-07
2.22807e-08
-2.24101e-08
-3.98235e-08
0.000112781
0.000159976
2.544e-06
-1.61928e-08
-2.26746e-08
0.000415397
3.20667e-06
-3.73329e-06
3.66112e-09
7.30945e-08
0.000606883
7.83355e-08
-1.07438e-08
3.41864e-08
0.00292167
0.0012331
-2.09441e-08
-1.33699e-05
-9.39814e-07
4.74867e-05
-2.38093e-07
1.0255e-07
-7.5776e-07
-2.04765e-09
-8.60806e-09
-5.57658e-07
0.00652191
-2.70365e-08
-2.45119e-08
-5.23081e-05
0.000379878
-3.44038e-08
7.18336e-07
3.6306e-07
-3.22678e-08
4.02313e-06
7.95352e-09
1.26821e-09
-8.89356e-09
-0.000570303
8.36602e-08
-6.94658e-09
-5.16796e-09
0.00027503
3.2654e-08
5.5948e-07
0.000141641
-0.000579334
-0.000590763
-6.54833e-05
-8.84876e-08
0.00178632
-9.03158e-09
-2.35859e-08
-6.76031e-09
-1.54125e-08
0.000169742
-2.98215e-05
-9.14514e-07
-2.49256e-08
4.78136e-08
-3.35793e-07
7.96758e-07
-8.4542e-06
-8.35181e-09
7.90778e-08
6.34251e-05
0.000389287
9.24915e-07
-5.23315e-08
1.09784e-08
-1.93462e-08
0.00277125
8.33888e-08
0.000208745
3.51263e-08
-2.68184e-08
2.30982e-06
8.52804e-07
2.70183e-09
-7.81418e-10
2.6718e-06
-2.14186e-06
0.000129924
-0.000634379
7.4782e-08
-0.00168572
-3.31411e-06
-2.71686e-09
1.30849e-07
-0.00016658
3.09817e-08
2.65362e-06
-2.15984e-08
-3.10561e-06
-1.8082e-09
1.45249e-08
-1.93631e-08
1.01181e-08
-3.42204e-06
9.49881e-09
-7.26468e-06
-2.4183e-08
-3.85617e-07
0.000146562
6.38389e-05
3.7334e-09
1.33877e-07
-2.86278e-09
-2.26847e-06
-1.5759e-08
7.1199e-09
0.000809837
2.75379e-08
3.09466e-08
-1.08642e-09
-0.000571813
-2.27475e-08
0.00342874
-0.000600768
-1.06106e-06
-3.00169e-09
-0.000128839
6.65175e-05
-0.000571562
2.69208e-06
4.07885e-08
2.02137e-06
-1.76312e-06
4.53611e-08
-1.91719e-06
-9.38143e-08
0.000337652
-1.58111e-06
-3.20415e-08
2.9477e-08
2.25802e-06
0.000243055
-0.000136615
-2.06984e-08
-1.9569e-06
-9.2649e-09
2.16147e-06
-1.90465e-06
2.80713e-08
2.35513e-08
-1.20032e-06
1.36729e-08
-6.26116e-07
3.39292e-07
0.00176148
-1.02845e-08
9.35195e-09
1.61849e-08
0.00052869
3.99137e-05
6.88387e-08
-1.48739e-08
-3.14513e-06
-3.50939e-07
6.39759e-07
2.44884e-08
0.000374312
-0.000217766
3.43535e-08
5.38285e-08
0.00748509
-1.96734e-08
-8.91248e-09
6.76725e-07
1.12701e-07
-2.17402e-08
-4.32046e-09
-1.52306e-08
-2.56785e-08
4.41124e-08
-9.45376e-09
-0.000242465
4.44265e-08
-7.68594e-09
0.000196195
0.000338063
7.97547e-09
-4.25251e-08
-0.000227393
-4.68755e-09
7.91363e-09
3.15213e-08
2.57893e-05
0.000665948
-1.10204e-07
-2.00441e-08
0.00220251
-9.56805e-09
-9.86192e-08
-0.000227553
0.00157378
-6.73265e-09
-0.0258269
0.000202756
0.000297135
-4.69838e-07
1.00271e-06
-0.00011756
0.000579552
-0.000965223
1.43471e-09
7.19255e-05
5.24855e-05
1.05939e-05
2.77913e-06
-1.67282e-09
-3.05321e-09
-7.51935e-09
7.36252e-05
6.73472e-07
-3.02373e-08
-4.13231e-08
1.7049e-08
0.000259317
-4.9817e-06
-2.03532e-08
0.00010973
-2.05013e-08
3.17944e-08
-8.00953e-09
6.0724e-05
-4.02831e-06
2.61468e-06
-2.3877e-08
2.95153e-08
-0.000376551
1.11653e-08
2.06405e-06
3.3393e-08
2.87922e-08
-4.24689e-08
-9.42006e-09
-1.01393e-08
-5.4629e-07
9.47888e-07
-1.68488e-06
0.00152313
-0.000281217
-2.71933e-08
-0.000576872
3.00359e-06
-1.6086e-08
0.00219382
-5.16277e-08
-0.000301497
1.40299e-08
4.13329e-07
-2.4745e-06
-0.0030874
-1.80791e-07
0.000154706
2.07254e-09
-5.96932e-05
3.5016e-05
3.78923e-08
0.000374195
3.73535e-08
-0.00052548
5.30979e-08
7.90286e-08
-6.5728e-07
1.77178e-06
1.72852e-09
3.40884e-08
1.02111e-07
4.82593e-08
-5.47024e-09
7.51346e-08
-0.000960664
1.34255e-08
1.24319e-07
5.87642e-05
2.51291e-08
-0.0015829
1.436e-07
0.000531208
3.16111e-08
3.29242e-07
-2.99055e-05
-2.52265e-06
-1.25405e-08
-7.22401e-05
-3.10041e-05
-0.000188029
1.15486e-08
-8.35354e-07
3.64555e-08
4.1445e-07
-1.8904e-08
8.53118e-05
-0.000666361
-0.00581676
3.02856e-08
-7.89116e-07
2.13325e-05
5.19137e-05
-1.82616e-08
7.91108e-05
2.64332e-06
-0.000239865
-1.25106e-07
-0.00508702
3.31742e-09
-1.55511e-08
0.000301569
-7.48729e-06
-8.00105e-09
2.70259e-08
1.28017e-07
-2.00714e-08
-0.00012659
-5.23283e-08
-4.93859e-08
1.3562e-08
2.88443e-09
2.59275e-09
-0.00105927
-4.57172e-09
2.38693e-09
-0.00455505
-0.00124654
-1.49624e-08
-6.14161e-06
-1.41069e-10
-1.0566e-08
2.68556e-08
-1.59773e-06
1.24858e-07
-3.58671e-09
1.88716e-08
4.69548e-06
1.96923e-08
-0.000790397
-1.15887e-08
1.55802e-08
-0.000546991
2.31986e-08
-3.41963e-08
-7.18677e-09
1.53236e-08
2.36659e-09
-0.000227805
-0.00336637
3.9505e-08
5.52408e-06
2.81892e-08
-1.43295e-08
0.00112178
-7.17808e-06
1.92156e-07
1.18237e-08
0.000540658
7.56397e-08
0.173416
1.42339e-08
3.49051e-08
-4.52533e-07
6.92329e-08
0.000678223
3.71516e-05
-0.00332627
-1.92117e-08
1.77486e-08
1.27956e-08
0.000292435
1.45899e-07
8.40492e-07
3.69886e-08
-2.40306e-08
1.08802e-07
-3.84664e-08
-1.76967e-08
-3.20872e-05
0.000969974
-0.000916788
-9.88591e-05
-0.00379882
-4.83884e-05
-4.71983e-06
4.28563e-09
-7.81119e-10
-0.00594187
-7.52813e-09
-3.5473e-09
-5.25844e-08
0.000264997
2.23034e-08
5.57428e-11
-9.95067e-08
-1.74437e-08
-2.32476e-09
0.00304638
6.86056e-09
0.000897002
3.91032e-05
-1.1243e-09
8.49549e-09
1.96062e-06
0.00233423
-2.19919e-08
0.00101924
-0.00908844
-9.83406e-09
0.000180484
-2.70174e-09
-9.05135e-07
-1.88123e-08
-0.00456721
-0.000127669
-8.41285e-09
-1.80376e-06
-2.44659e-08
7.21178e-09
-0.0026386
-0.000426268
5.2489e-08
1.19477e-07
-6.04006e-09
2.70791e-07
0.000667265
-0.000388186
-6.43066e-09
5.255e-05
-4.06039e-09
-2.61708e-08
-1.94389e-08
7.9212e-09
-1.74845e-08
-2.57882e-08
6.81573e-05
1.47808e-06
7.89527e-05
2.05103e-08
-1.01312e-08
0.0003372
-2.00107e-09
-1.03688e-06
2.17681e-08
5.62764e-08
3.95781e-08
-0.00147474
-0.000238176
3.48568e-08
3.44614e-05
-5.8962e-09
-3.56263e-08
0.000139138
0.000269195
-1.72023e-08
1.41487e-08
2.10021e-06
-4.506e-05
7.32541e-06
2.79494e-07
-0.0939308
9.19973e-09
5.27155e-08
0.00127333
0.00279557
4.67849e-07
0.000982969
1.28649e-06
3.06353e-05
-6.25036e-09
-3.64425e-05
-0.00119621
-1.12242e-08
4.08528e-05
-0.00264579
-4.3308e-08
9.76799e-08
2.9106e-09
-5.82526e-07
2.08065e-07
-0.000563935
-2.93869e-09
-1.17711e-08
1.72629e-08
-5.06842e-09
-1.20406e-08
0.000231777
-1.20481e-08
1.10899e-06
-1.68366e-08
4.52493e-07
1.27994e-08
-2.08771e-09
2.0297e-09
5.23978e-05
-8.39889e-09
5.30614e-05
3.46846e-08
-1.65666e-08
-1.30057e-08
6.50231e-09
1.81469e-08
1.69895e-08
2.49357e-08
-1.71278e-07
-1.03963e-06
3.65569e-10
-8.61251e-05
-2.74927e-09
9.93312e-07
2.80611e-05
-0.000871176
2.22279e-06
-0.00452647
-5.33458e-08
-6.14169e-06
-0.00220817
-5.25837e-09
0.00237164
-1.66776e-08
3.6704e-08
-9.43631e-05
0.000425168
-1.71585e-08
-1.10345e-08
2.05317e-09
-1.85988e-05
2.24707e-05
-2.70047e-08
2.78593e-06
0.00212431
-2.48545e-09
-2.51425e-09
4.02007e-07
-5.31819e-05
-0.00406167
7.47309e-09
-1.00885e-07
1.80763e-08
-2.8071e-09
-9.89289e-05
-1.24548e-07
7.81526e-07
-2.09827e-08
2.73263e-07
-4.40834e-07
2.67442e-07
2.45183e-09
-2.65257e-08
1.17412e-07
-2.44281e-08
4.13827e-07
2.87873e-08
-4.55655e-09
-4.44663e-07
0.00379656
1.82244e-06
0.00288467
-0.000848271
8.78815e-07
4.67404e-05
7.50466e-08
-0.00265089
-6.66331e-07
-1.32605e-08
4.75543e-08
5.81255e-06
4.475e-09
-3.83086e-09
-4.65132e-09
1.02864e-06
0.000122214
1.78721e-08
-0.000557875
-1.78128e-08
-0.00416085
-9.4438e-07
-0.000194891
-7.56647e-08
3.19978e-08
2.42248e-08
-0.000170511
1.23675e-06
1.63264e-08
1.9945e-05
2.22179e-09
0.00101693
1.01715e-06
2.01611e-06
3.64998e-08
-2.20725e-05
5.39858e-09
-2.02199e-09
-2.68924e-09
-2.51089e-09
0.000113314
-2.54095e-08
1.47348e-05
0.000233615
-8.80522e-08
-0.000318821
-0.000302053
2.76459e-06
-6.53402e-06
2.47077e-07
-1.34121e-11
8.52004e-09
-2.59551e-08
-1.33423e-08
-1.28927e-08
-4.18981e-08
2.80291e-07
1.90086e-07
0.0010964
-2.67238e-08
-0.000184382
-5.4823e-11
0.000133242
3.68181e-08
-1.52887e-09
-3.97041e-10
-0.000793763
3.45103e-08
0.00317346
-0.00251025
9.6975e-08
1.02327e-09
-9.75737e-09
0.00100354
-2.33886e-08
2.21988e-08
-0.000108523
-2.31205e-10
-2.83133e-10
-4.02564e-09
1.39189e-07
0.000259385
3.26205e-08
3.63567e-08
7.01583e-06
-0.000315634
-1.80338e-08
6.56641e-09
0.000175573
-2.6926e-08
0.000199848
-8.59483e-09
1.81973e-08
0.00247497
2.8342e-07
7.82986e-07
1.74477e-07
-2.11341e-08
-6.06698e-10
-5.92591e-11
-1.75162e-08
-2.54668e-09
-9.17664e-11
1.82866e-08
-7.83833e-06
-1.97858e-08
1.58932e-05
-0.00255466
0.00215259
1.73987e-07
-0.00023322
1.87226e-07
-3.94433e-10
1.01306e-06
-1.42185e-08
3.43791e-08
0.00303405
-0.000446764
0.0024379
-0.000101066
-2.70914e-08
-3.05259e-08
-1.57974e-07
-2.54201e-08
-2.17802e-08
-0.000565977
2.98435e-06
0.000396365
9.33764e-07
2.87086e-07
-2.40842e-09
-2.28709e-08
-0.00316225
-1.72549e-07
2.00953e-08
-6.66071e-10
6.17118e-07
-1.70742e-06
-0.000560037
8.53854e-09
-7.62581e-09
0.00024445
2.63218e-09
3.69563e-08
-1.96318e-08
0.000341502
-3.2582e-08
3.91771e-05
-6.64418e-09
-2.48588e-07
5.38858e-08
-2.31448e-07
3.62462e-08
1.288e-08
2.85592e-08
-1.78433e-08
4.43959e-05
2.00752e-09
-0.000205302
7.2095e-09
-0.00214743
0.00119999
3.64588e-08
-2.44784e-08
1.27359e-05
-0.00382585
3.52519e-08
2.88161e-07
6.53916e-09
-2.5248e-05
-1.18512e-08
4.71734e-06
-1.28565e-08
-1.79893e-08
0.0029435
4.02721e-08
-7.65916e-09
3.13078e-08
-0.000176926
-5.82707e-05
0.001708
-1.94472e-08
4.12058e-05
-1.07259e-08
-1.93097e-08
7.22877e-09
-4.07326e-08
-2.11134e-09
0.00339863
0.00220521
8.72877e-09
-1.22888e-08
3.13583e-08
-1.07938e-08
3.31848e-05
1.07038e-07
6.63532e-05
-0.000236687
2.82498e-08
2.57925e-07
-1.21504e-08
5.45758e-08
2.96208e-07
-5.278e-09
-5.89777e-09
-0.00101225
1.84919e-05
3.94535e-08
7.34611e-05
2.11522e-07
-5.1175e-09
7.02438e-08
2.81676e-07
7.93183e-06
4.25339e-08
0.000442171
-1.79337e-07
-4.83803e-09
0.000810845
0.00133347
0.000275605
-0.00385951
-0.00200219
-2.01333e-08
2.42306e-06
6.67633e-10
-0.00291622
3.88761e-09
-2.96235e-08
0.00207208
-2.90852e-08
-2.18577e-08
-1.98446e-08
-2.98256e-08
0.000286908
3.45002e-06
-8.64481e-09
8.59794e-09
0.000101756
-1.62259e-08
7.3198e-05
-4.73937e-09
2.6779e-07
-0.000252843
-1.12554e-08
1.05372e-05
1.06428e-08
3.56365e-08
3.97866e-05
-3.00556e-08
5.3119e-08
3.15253e-07
-0.000390743
-6.60391e-09
-4.05447e-05
3.70166e-08
0.00019779
3.68509e-05
-1.86894e-05
1.11977e-07
1.1551e-08
-2.75833e-08
-2.40546e-09
6.04828e-08
-2.73103e-09
0.000632282
-4.62534e-09
-1.24778e-08
9.35083e-08
-2.03143e-08
-1.83643e-08
-3.86949e-09
1.00291e-08
1.01173e-08
-2.03157e-09
-0.000125907
1.4859e-06
3.68031e-08
7.68158e-08
0.00295106
-7.27551e-10
0.000302094
-2.76578e-08
1.56116e-07
2.09969e-09
-2.59077e-08
3.84377e-08
-1.5732e-08
-1.08517e-08
1.64269e-06
1.86019e-09
-1.48234e-05
1.56722e-08
3.78981e-05
0.000188341
-3.51264e-06
2.49794e-07
4.5461e-09
-0.000262907
-1.67198e-06
-3.4955e-09
6.53383e-09
2.45719e-09
0.000365282
-3.43288e-09
2.81636e-08
0.00193428
7.58901e-05
-7.90168e-09
-9.93451e-09
-0.00110748
0.00114021
-0.0021021
1.34223e-08
-1.73766e-08
-7.00983e-09
-1.14169e-07
7.98224e-09
-0.000120982
-6.48589e-07
-4.31078e-10
2.70534e-06
3.12193e-06
-7.51667e-09
-0.000229866
6.21582e-05
2.65512e-06
6.63241e-09
-0.00104553
-1.05889e-08
-1.60888e-08
0.000375333
-1.45773e-08
-9.91209e-09
7.32104e-09
3.90755e-08
7.1719e-08
-0.000135695
-0.000361888
1.08577e-07
-0.000437138
5.425e-08
-2.04091e-09
3.84791e-06
-7.22062e-09
-0.000528697
-6.50514e-09
-1.63798e-08
-2.70807e-08
-2.20058e-09
0.000797185
-5.70919e-05
-2.01066e-07
-0.000254539
0.0013452
2.43999e-09
1.37248e-08
1.49566e-08
2.01905e-06
-6.75996e-09
-3.63845e-08
2.91083e-08
0.00175255
3.35569e-05
-3.47757e-08
1.49172e-07
3.60518e-08
-1.20528e-06
4.62991e-05
-9.88959e-09
-1.83196e-08
-5.25921e-09
-0.00260995
1.77845e-08
0.000446382
-2.56001e-08
-7.66846e-09
-9.04891e-09
7.4433e-09
-2.02678e-08
3.14687e-06
-5.42812e-06
-0.000597466
1.0412e-07
-1.40999e-08
0.00094157
1.2345e-09
-0.00744962
-9.91213e-05
2.3076e-08
7.82735e-05
0.000227175
-0.000147187
2.31383e-07
4.10759e-08
5.38152e-05
3.79683e-08
-1.36693e-08
-7.62957e-08
8.6743e-07
-9.8563e-09
-7.85373e-05
-6.95167e-10
0.00299944
-0.00572359
-2.77167e-08
-1.70344e-08
-5.31489e-08
3.90089e-06
4.0899e-08
-1.0227e-08
2.41158e-08
-1.23907e-09
1.15915e-08
8.54208e-06
1.09752e-10
-0.00340076
0.000222947
1.91005e-09
4.00552e-08
7.6883e-08
-1.02538e-08
-0.000530071
7.94016e-05
-0.000199431
-0.000270242
-1.56715e-08
-1.33568e-08
1.48777e-08
9.53759e-09
-8.30358e-06
4.57541e-08
-1.15508e-09
2.56801e-07
-2.57497e-08
-0.00238111
4.77555e-08
0.000168229
-4.06929e-10
-1.84286e-08
-1.32954e-06
-3.10021e-07
-1.1296e-07
9.17573e-09
5.47281e-05
0.000250793
0.0049577
-7.18005e-05
0.00277864
-0.000458401
0.000140284
6.64575e-09
-1.25823e-08
1.68714e-09
8.79672e-06
1.31767e-07
-4.63538e-08
-3.07595e-05
-6.56616e-09
-3.35024e-08
-6.86193e-09
1.69805e-06
-2.34758e-08
2.56103e-08
-2.70452e-08
-0.00349192
-8.26806e-09
-1.45448e-08
-9.49094e-09
4.58066e-09
-1.12768e-08
-1.50092e-08
-7.06206e-06
-1.35108e-08
0.00191595
-1.36293e-08
7.704e-09
0.000813218
0.00150226
0.000150555
-0.00159758
4.06844e-07
-0.00456284
-1.95228e-08
1.73377e-07
-2.18733e-08
-7.10045e-09
-5.77103e-09
4.74821e-05
1.56808e-08
-3.43584e-07
-0.000722407
3.30796e-09
-2.61261e-08
-3.17048e-08
3.08409e-06
-1.30369e-09
-0.00374114
6.08297e-10
3.76904e-06
3.96381e-11
8.19993e-09
3.54696e-08
2.80307e-07
1.09367e-08
-0.000213897
9.41299e-05
4.68288e-06
0.00144674
1.56958e-09
6.98494e-06
7.1182e-05
-1.30312e-08
-0.00489285
1.01429e-08
-1.25477e-06
8.93649e-09
-1.52368e-08
-1.76816e-08
-4.65154e-10
-2.91727e-08
-1.26541e-07
1.13247e-07
-7.29739e-09
3.58671e-10
-8.86249e-07
-1.35695e-08
-0.00083936
-9.16793e-10
3.79386e-08
5.29849e-08
6.31415e-05
0.00635329
-1.2615e-09
3.25555e-06
-2.0949e-08
2.16014e-08
-1.20377e-07
-0.000755101
1.18243e-07
-1.89668e-09
3.81194e-07
-9.63828e-07
2.91389e-07
-7.13355e-05
-3.09615e-09
-3.60024e-07
2.46788e-07
2.02075e-07
-7.03656e-09
-1.81246e-08
0.00262817
5.34164e-05
7.83004e-09
-1.59848e-08
5.91494e-05
-1.50043e-08
2.67196e-08
-8.47917e-09
1.15605e-07
0.000928643
-2.25134e-08
-1.66771e-05
3.39869e-08
-7.39144e-09
-5.33097e-07
-2.85135e-08
-1.16998e-06
-0.000322678
3.94363e-09
0.00264247
-1.94125e-08
-3.06979e-09
-1.30627e-06
-1.34679e-09
-2.01349e-09
2.09342e-08
3.73081e-08
8.97783e-08
-2.01851e-07
1.30425e-08
7.45243e-08
-2.01101e-08
-1.37563e-08
-1.01849e-09
-1.17596e-08
5.09937e-05
-4.43104e-09
-5.98094e-09
-1.04335e-05
-1.62282e-08
-1.69512e-08
0.00112584
-1.16406e-09
3.02248e-05
1.36441e-08
0.000520531
-5.34344e-06
2.63237e-07
-0.00319565
-2.81543e-08
1.24148e-06
9.11578e-09
-1.65924e-06
1.71437e-08
-1.784e-08
-8.57107e-09
-3.65412e-09
3.85508e-08
5.91316e-09
1.17754e-08
-1.25759e-08
-1.82704e-08
5.78239e-05
-5.94108e-05
-0.00416138
-4.29782e-09
1.82547e-06
-0.000274643
0.000424598
-5.25925e-10
2.32137e-08
0.000381386
6.46102e-09
-2.6258e-08
-0.106435
-0.000651432
1.89767e-08
1.06004e-07
-2.8976e-08
-1.96327e-06
1.30031e-10
-5.69038e-08
-0.00535799
1.00899e-08
-3.97743e-08
-0.00166101
2.55051e-08
-3.32353e-06
0.00115176
9.97931e-07
4.97315e-09
-1.28778e-08
8.59856e-09
9.13242e-05
-0.0010432
0.00462563
5.07044e-08
-2.67938e-09
-0.000230562
-4.71453e-09
-8.87232e-07
4.2939e-07
-7.31981e-09
3.47597e-08
-1.3462e-08
-0.00176251
0.00145731
-1.34539e-08
-5.92723e-08
1.41421e-07
-0.00906766
2.89864e-08
2.68736e-07
-8.52952e-06
5.47322e-08
3.97766e-06
2.41804e-07
-2.49844e-09
6.96457e-08
4.19766e-06
-0.00446608
-1.58181e-08
0.000320591
2.81114e-08
2.69417e-07
-1.49331e-09
0.0012395
2.68737e-08
-2.19246e-08
-2.12066e-08
-1.15325e-07
-5.66525e-08
-6.93965e-07
-1.70262e-08
-2.70695e-08
4.63859e-08
1.63294e-05
4.22579e-08
-5.89861e-10
2.55547e-09
6.71937e-08
4.00965e-06
-1.50209e-09
2.24022e-07
0.0665543
-2.72602e-08
-0.00119905
6.65295e-08
-0.000280794
-4.7992e-06
7.43462e-09
2.6439e-05
-6.30466e-09
-1.28753e-08
4.8125e-08
4.26506e-08
9.86949e-08
1.41005e-07
2.632e-08
3.71845e-09
3.50482e-08
-2.63302e-08
-2.46296e-08
-1.57837e-06
2.3997e-08
-2.08307e-08
-9.83324e-05
2.56276e-09
-1.07157e-08
-3.13236e-09
0.00011597
1.09907e-07
1.41771e-08
2.61463e-08
-2.86639e-08
-1.66218e-05
-7.124e-07
4.8383e-08
-0.000201784
3.4927e-05
-3.06498e-05
-1.70388e-07
1.37563e-05
-6.96965e-09
-1.46957e-06
-3.6102e-08
9.91328e-08
0.0126303
-0.000626949
-5.69038e-06
-0.00113564
-9.01259e-10
-5.10124e-06
-6.9166e-09
2.97306e-07
-2.31648e-08
-0.00467329
0.00267813
-7.06353e-09
-2.03445e-08
-5.92246e-06
-5.66701e-07
-1.52443e-08
0.000166958
-1.84816e-09
-2.15806e-08
2.28693e-08
8.79356e-09
3.1381e-08
1.63782e-08
-1.55371e-09
3.04965e-09
-5.05495e-05
5.16051e-08
7.62549e-08
-1.59944e-08
-0.000287953
-0.000661183
-2.19817e-08
1.48891e-05
-2.32086e-08
-3.50424e-08
-0.000910609
-1.93862e-08
-7.94023e-09
-1.22276e-08
-0.000207808
-1.61407e-08
-7.49211e-09
3.78729e-08
-0.00157144
-2.14511e-08
-1.24618e-08
1.97446e-07
0.000226351
8.6455e-09
1.35325e-08
3.43202e-06
-1.5208e-09
6.36572e-07
-2.96677e-08
-2.46459e-05
2.74722e-08
-5.93641e-09
3.14664e-09
-8.07938e-08
-8.7912e-09
6.69419e-09
-1.23626e-06
-0.000378943
-4.01209e-11
-9.28759e-06
-4.86282e-09
-2.9917e-08
-1.03814e-07
-1.68139e-08
-4.48046e-09
-0.0036104
-7.27535e-10
3.15538e-08
-4.51106e-07
0.000450394
0.000211136
-6.96925e-09
6.03467e-08
-1.68525e-08
-1.24153e-08
8.5968e-09
-8.41579e-09
-0.00338186
-2.12191e-09
1.17701e-05
3.16026e-07
-4.02291e-08
-1.38676e-08
3.69014e-08
3.35383e-07
-6.06034e-06
-4.69542e-07
-3.50883e-08
-2.56681e-08
-0.000292373
1.73411e-07
1.75065e-08
9.39793e-08
-1.04683e-07
7.19788e-08
-0.0011293
6.30598e-08
-0.000220119
-0.00125802
0.000233035
2.40489e-08
-1.6116e-08
3.80858e-08
6.15706e-09
-1.14702e-08
-1.97245e-09
-5.99872e-07
-5.09521e-09
-2.54554e-08
-1.53265e-08
-2.26604e-08
2.95947e-09
9.2362e-10
0.000155016
-2.18971e-08
-0.0102434
-1.10279e-08
4.4927e-07
-6.70922e-09
6.64526e-07
-7.17075e-08
1.18263e-08
0.00250783
-3.57165e-08
-2.25046e-09
7.34555e-08
-1.91058e-08
-1.07926e-08
-4.56785e-09
-4.87933e-05
-1.87658e-08
3.76428e-08
-5.85772e-06
0.00265048
-1.41335e-08
6.52047e-05
5.92436e-05
5.69375e-09
3.99889e-09
1.94383e-08
2.33153e-08
-5.18197e-08
2.54398e-05
-2.22645e-08
0.000217103
-1.5578e-08
-2.09839e-06
-0.00101708
1.03451e-08
-0.00382908
-1.22439e-08
3.91558e-08
-2.42629e-08
0.0012474
2.81599e-08
-1.30829e-08
1.89289e-08
-1.88704e-08
-9.86775e-09
-1.43712e-08
-1.00944e-08
-0.00060922
-1.90925e-09
-1.54577e-08
0.00144658
-9.99943e-09
1.03538e-08
-6.14863e-08
-1.17647e-08
-0.00015768
-3.24362e-08
-5.36501e-10
-1.52143e-08
-5.38891e-08
8.34954e-09
3.05988e-09
2.13852e-07
0.00118325
9.79432e-09
-7.46856e-10
0.0049519
-9.02997e-09
-8.49553e-06
-1.6783e-08
0.00123001
-2.08648e-08
-2.37713e-08
-1.99401e-08
9.24009e-05
0.00167232
2.30392e-07
-2.84545e-07
-7.32236e-08
-3.28547e-09
-1.38722e-11
-8.76667e-05
-1.32736e-08
3.40942e-07
-3.64609e-08
9.02254e-08
2.33819e-10
0.00310924
-1.71363e-08
1.28334e-07
-3.82195e-08
1.44976e-05
0.000484154
-2.07668e-08
5.87226e-08
-0.000845416
2.12405e-07
-0.00252983
-0.00428411
-2.81319e-06
-2.18104e-09
3.64471e-08
-1.45168e-07
0.00280715
-1.46089e-08
7.00178e-08
5.124e-10
-1.78712e-08
-0.000134675
0.000420812
1.07908e-07
-1.69451e-06
-6.03093e-06
1.02366e-08
0.000160763
-1.13574e-08
-2.06626e-08
-9.27338e-08
0.00154796
2.28839e-06
-1.1604e-06
0.000623474
-1.93681e-08
0.00127765
0.00039874
-0.000871192
-6.68854e-09
-3.09017e-05
-0.000319527
0.000420266
0.000337584
9.98173e-05
2.93957e-07
3.28612e-08
5.27766e-07
5.99134e-08
7.34336e-10
-4.72552e-05
9.81273e-08
-2.39668e-08
8.59314e-05
-2.80547e-09
-2.72399e-07
4.90516e-08
-1.32777e-08
-0.0208659
-4.95795e-08
8.55351e-05
1.1882e-07
4.05487e-08
-0.000467069
0.000412155
-1.39508e-06
2.2264e-09
-4.34745e-09
-4.36507e-08
-3.52121e-08
-1.96158e-08
5.9846e-08
1.52221e-07
-3.13514e-07
1.07207e-08
1.93509e-06
-2.52383e-08
2.40275e-08
-0.00419238
4.36019e-06
-1.14653e-08
2.58204e-06
0.000125817
1.17074e-08
-2.83812e-08
-0.0008206
6.98907e-06
3.17816e-09
2.85603e-08
-9.34703e-09
-1.64109e-07
8.59758e-09
0.000230751
9.06377e-08
3.79547e-09
-6.57827e-09
2.56875e-06
-1.27336e-08
-0.000246278
-4.44058e-05
-1.22009e-08
-1.57019e-08
1.12657e-08
-5.36334e-09
2.38775e-08
-2.91701e-08
5.76605e-09
-3.05125e-10
8.22073e-09
-2.35598e-08
7.33075e-09
1.46105e-07
0.00235527
-2.78562e-09
0.000620707
6.40075e-05
-3.07122e-08
-2.73675e-06
-1.13925e-06
1.13923e-09
-9.7078e-09
2.10265e-07
3.47777e-08
-1.40898e-06
3.59334e-08
-1.12423e-08
-6.48163e-09
1.11228e-05
-3.79737e-10
0.00181477
-6.28048e-09
-6.3714e-09
-1.66437e-08
-1.54852e-07
8.72325e-09
2.25753e-08
2.52138e-07
-0.000213248
-4.80555e-09
-5.09957e-06
0.000374053
0.000265436
-1.9154e-08
-9.3671e-08
6.20733e-06
-0.000311333
-0.000949096
2.67439e-09
-2.66952e-08
1.41028e-06
0.000415168
0.0016321
5.6086e-08
1.12798e-06
-6.30616e-09
-1.42368e-08
1.33498e-10
-2.82772e-09
5.92015e-10
-8.72355e-07
-2.44458e-09
-2.51443e-06
-2.1877e-08
-0.000158677
-0.00114958
-0.00248783
-0.00405751
0.000197266
7.14499e-09
-1.44585e-09
-0.00406824
-2.01362e-08
-1.96929e-08
-2.7182e-08
-2.75716e-07
0.000362186
1.25155e-05
-1.19194e-08
-6.88907e-09
-2.19575e-08
3.09814e-09
7.67451e-05
-1.66375e-08
-0.00456846
2.91201e-06
-2.67783e-09
4.76577e-10
0.000254138
3.41651e-07
-1.01407e-08
-1.35631e-08
0.00266455
-0.000321222
-1.11259e-09
2.60795e-06
-2.30305e-09
0.000382984
0.000932734
-1.73267e-08
0.000431523
-2.37832e-05
0.00555524
-2.12308e-08
-1.36014e-08
-2.62485e-09
-1.67336e-09
0.00159711
-6.34095e-10
-8.71966e-06
4.32483e-06
5.85005e-05
7.64057e-09
-2.8365e-08
4.93783e-05
1.0153e-08
-0.0040511
0.00030462
-3.26716e-08
2.62704e-08
2.92815e-08
2.21137e-06
-0.00132738
-2.11492e-08
0.000188291
1.75057e-08
1.05221e-07
-7.41174e-09
-2.21822e-08
-2.23638e-06
1.94848e-08
9.29802e-05
-3.3262e-09
4.60341e-08
2.40199e-09
6.87616e-07
2.44726e-08
0.00104224
-0.000136445
-9.23241e-06
8.41835e-07
1.09602e-08
-2.70143e-08
1.60524e-07
-3.34043e-06
1.75115e-05
-0.00289332
-9.42836e-09
-0.00453042
-5.11842e-07
-0.000393323
-6.31501e-09
3.83354e-08
2.66356e-08
-1.07674e-08
0.00401708
-1.24665e-08
3.96891e-08
-0.0003064
-0.000583984
-0.00013129
0.000229121
-1.61373e-08
-2.45169e-09
-1.68897e-08
-1.26316e-05
-1.43999e-08
0.00313852
-1.79643e-08
0.000903843
-2.22508e-08
-1.48163e-08
3.7755e-08
-6.09006e-09
-1.16174e-08
-6.02738e-10
0.000370923
1.19936e-07
-1.3363e-10
8.27611e-09
0.000244963
-0.000151466
1.01332e-09
0.000455139
-1.53283e-08
5.91833e-08
4.14903e-08
-3.37141e-08
2.97226e-09
-1.38024e-08
0.00717457
1.32055e-07
2.02714e-09
-1.37921e-08
3.11379e-06
1.35913e-08
-1.78181e-08
-0.00111527
-0.00118101
-6.10189e-06
-1.56663e-08
0.000154901
-1.34563e-09
3.13803e-07
1.942e-08
1.0535e-07
0.00457833
0.000272213
-1.1823e-07
0.000475106
1.3099e-08
1.28337e-07
-1.6081e-08
-0.00140208
-5.55086e-07
6.81227e-08
-3.23783e-06
-4.90722e-09
-0.00332232
-1.24291e-07
-2.74985e-06
-3.0621e-06
-0.00252319
0.00039891
0.00181368
-5.42979e-05
-2.25147e-07
-4.30001e-09
-6.60829e-09
-9.12259e-09
-2.12334e-08
1.88537e-06
-8.95095e-09
-6.11995e-08
-0.00031489
6.25339e-09
-1.83424e-08
1.05518e-07
-1.3703e-07
3.33511e-08
-3.9098e-08
0.000231225
2.17089e-08
1.41888e-07
-5.77322e-09
0.000108129
-2.56507e-08
0.00326375
-4.63758e-08
3.82831e-08
2.36324e-08
-7.54833e-09
9.29423e-05
-1.51309e-05
-2.05057e-08
1.22253e-09
-2.70734e-08
0.00030829
8.07836e-05
0.000105683
-1.02913e-08
-1.43887e-08
-0.000176033
3.73344e-10
-1.61205e-08
-2.68919e-08
0.000759061
1.26601e-06
8.31067e-09
-2.81485e-09
1.81645e-08
0.00308745
-1.61622e-07
-8.15883e-06
-1.46917e-10
3.92392e-08
-2.19591e-08
6.35016e-07
-3.50257e-09
-1.82628e-09
-0.000162802
0.000261146
-0.000125684
-0.000543729
-0.000269025
-0.000585555
-0.00351901
2.74593e-11
-6.11236e-09
0.00495906
-0.000125996
0.00494668
1.90143e-09
1.93759e-08
-1.89627e-09
1.03923e-08
-0.0033144
-0.0004526
7.96997e-08
-1.51076e-08
-4.82493e-06
-2.48334e-07
4.21637e-08
5.82079e-05
-0.000349728
1.39837e-05
-2.64834e-08
0.00102721
-0.00236628
3.83059e-06
4.1811e-08
2.14933e-08
2.80669e-09
-8.03281e-09
4.17121e-08
2.06277e-08
-1.74154e-08
9.43882e-08
3.24347e-08
-2.34686e-08
5.82447e-06
0.000212263
-7.60904e-09
1.05932e-07
0.000203078
4.29791e-06
-9.36164e-10
-6.25721e-06
2.18391e-05
6.87596e-05
3.47403e-08
-8.44069e-09
3.66572e-08
1.33103e-08
-3.23644e-08
-3.2944e-08
4.77221e-08
3.95672e-08
1.13198e-07
2.11303e-06
-4.83044e-09
-1.61156e-08
0.000337838
-0.000273527
0.000425516
6.82934e-05
6.20954e-07
-2.42503e-08
-3.38774e-09
3.79411e-08
-1.86359e-08
-0.00104994
-5.59841e-09
-1.61494e-09
-2.49129e-08
-0.000202922
-0.00123568
5.56442e-09
2.02211e-07
9.76105e-09
-9.29648e-09
3.62965e-08
2.27602e-07
4.76128e-08
4.03414e-08
0.000100118
2.8701e-08
-0.000318698
3.04607e-08
0.000415468
3.16163e-08
-2.65207e-08
-1.68642e-08
3.78992e-08
-1.48217e-06
-2.03392e-08
-9.02484e-08
3.39268e-08
-1.76243e-08
-0.00443415
0.000221387
0.000642638
-1.43563e-09
-0.000121578
1.64056e-07
5.27415e-08
-1.32691e-08
-1.54418e-08
-2.71999e-08
-0.000245006
-2.47981e-06
1.72128e-07
-8.16888e-09
-0.000133798
5.18874e-08
9.78849e-05
-0.000292494
6.0737e-06
-2.30842e-08
-2.2532e-07
0.00287077
-9.7116e-05
0.000200523
-1.42979e-08
-2.40127e-08
9.6429e-08
-7.70038e-09
-0.00203961
-2.43112e-08
3.11237e-08
-7.05218e-06
-1.45169e-05
-2.46134e-08
3.6118e-09
0.000188301
6.89838e-08
-0.000730614
-5.21599e-08
-1.28818e-08
6.95535e-08
5.50155e-07
2.80208e-08
-0.00247621
4.32699e-08
4.9061e-05
2.03004e-08
-4.19952e-10
-1.07505e-09
6.76774e-07
2.37182e-09
3.10426e-07
-1.06145e-09
-2.69993e-08
1.80497e-06
1.72562e-08
-1.45635e-08
-1.50919e-08
7.52417e-09
0.000913781
1.098e-07
5.80124e-09
-1.44402e-08
2.50674e-08
1.10602e-08
5.97321e-07
3.75286e-08
1.7349e-08
3.16474e-06
4.40752e-10
2.29581e-07
-3.81186e-07
-8.61111e-09
1.36877e-07
2.89075e-05
-0.000383476
3.94717e-09
0.00162779
0.000162553
1.14091e-08
2.20953e-09
1.6595e-06
0.000150298
-1.3948e-07
0.000291556
-5.8586e-06
-5.47986e-09
2.92841e-07
-2.26321e-08
3.28389e-08
-4.06287e-09
0.00756357
4.31546e-06
-9.93049e-07
-5.84164e-05
-0.000288073
0.00049383
-8.85374e-09
-1.47344e-06
-9.07918e-09
-0.00268498
0.000164362
-6.90337e-09
-1.61807e-08
-0.000208934
5.20187e-09
-7.42754e-09
-8.14029e-06
-0.000464402
-1.87927e-06
1.26477e-08
0.000139245
-1.62681e-08
-0.000800376
8.2729e-05
-6.55129e-09
3.27167e-05
0.0023894
-7.63458e-05
0.000304802
0.000125816
-1.46729e-05
-7.41703e-09
-3.69169e-10
1.95493e-10
9.90422e-08
-8.01274e-09
4.98254e-06
-1.25298e-08
0.00019031
4.03936e-05
2.02575e-07
-6.35488e-06
0.000262977
3.09191e-05
-6.25681e-06
1.47215e-07
0.000155289
4.69448e-05
1.50619e-08
-2.52456e-08
-0.00364812
-1.75186e-08
-2.08356e-08
0.00122108
9.28282e-09
-0.00350982
4.27627e-09
-0.000513343
1.03977e-08
4.33198e-09
0.000824207
-5.16871e-08
-3.79089e-08
-0.000180055
-0.00494645
-0.000436891
1.72958e-08
1.11474e-07
-1.26958e-08
9.05367e-08
-7.5421e-07
9.34714e-08
-1.58306e-10
-7.65657e-05
-2.68307e-08
2.67648e-09
0.00028546
4.81241e-08
-1.41903e-08
8.1391e-07
-4.95282e-08
1.26957e-07
5.11129e-09
-6.44897e-07
-1.66419e-08
-2.26043e-07
8.58721e-05
2.92415e-05
-1.51856e-08
2.17656e-08
0.000109752
1.46685e-08
3.05894e-08
2.91128e-08
3.70477e-08
0.00472018
-9.0618e-09
-2.59727e-09
-0.0105299
-1.49363e-08
-0.00010476
-6.07891e-09
1.96481e-08
4.94706e-07
9.13113e-05
9.22879e-09
-4.33412e-06
-1.57868e-05
3.81935e-08
-3.60852e-09
-1.25127e-06
4.55541e-08
-0.000576578
9.70124e-10
0.0111527
-1.14394e-06
3.48477e-08
3.80085e-08
-2.99263e-07
1.50552e-08
-1.03383e-06
-1.88371e-08
-7.43183e-08
1.24633e-08
-5.70839e-09
-0.001507
1.06573e-08
3.49745e-08
-3.43709e-08
3.35348e-07
3.62634e-08
9.58752e-08
0.000122842
1.62546e-08
5.30281e-07
-3.11173e-08
6.84521e-09
-3.92025e-09
9.55775e-10
4.78239e-09
-6.74078e-09
2.90449e-07
-0.000233498
8.35763e-08
4.87293e-08
7.73156e-09
-2.73699e-08
1.66551e-05
1.12672e-08
0.00220314
-0.0001306
-4.34722e-06
-2.35613e-07
2.99072e-08
1.27077e-08
-1.42874e-09
-1.16021e-08
-8.1837e-07
1.49087e-09
-0.000348292
1.88288e-07
0.000610544
3.58136e-07
-5.67105e-09
-1.93439e-08
-0.00032957
5.25552e-09
3.62217e-08
3.30074e-06
-4.9054e-06
2.12086e-09
0.00107584
-1.7761e-10
4.06241e-10
-1.47391e-09
-5.24356e-09
-1.69185e-06
2.46549e-07