/*--------------------------------*- C++ -*----------------------------------*\
| =========                 |                                                 |
| \\      /  F ield         | OpenFOAM: The Open Source CFD Toolbox           |
|  \\    /   O peration     | Version:  v2012                                 |
|   \\  /    A nd           | Website:  www.openfoam.com                      |
|    \\/     M anipulation  |                                                 |
\*---------------------------------------------------------------------------*/
FoamFile
{
    version     2.0;
    format      ascii;
    class       volVectorField;
    location    "800";
    object      ddtCorrDdt0(U);
}
// * * * * * * * * * * * * * * * * * * * * * * * * * * * * * * * * * * * * * //

dimensions      [0 1 -2 0 0 0 0];


internalField   nonuniform List<vector> 
13851
(
(0.00346405 0.00047065 2.0786e-17)
(0.000179941 0.000111468 -6.30743e-19)
(0.000172338 0.000112263 1.27385e-19)
(-0.00551756 0.00285977 2.1336e-17)
(1.17117e-05 -3.76066e-06 8.90177e-19)
(0.000221562 0.00010424 -4.60303e-18)
(-5.82169e-05 0.000309286 -1.88562e-19)
(2.7287e-05 1.60125e-06 7.03883e-19)
(-0.00743126 0.000182935 -5.90991e-18)
(1.73175e-05 -5.90935e-05 -8.09268e-18)
(0.000312449 0.000433085 -4.68688e-17)
(2.26497e-05 -7.37473e-05 1.23443e-18)
(3.84035e-05 -0.000101843 2.02268e-19)
(-0.00854057 0.000102381 -4.69213e-18)
(0.0004537 0.000317257 -2.07631e-18)
(-0.00274543 0.00248397 -1.37684e-18)
(-0.00441771 0.00070398 -1.05972e-17)
(7.53679e-05 8.80134e-05 4.67942e-18)
(-0.00772011 0.00161686 3.63455e-17)
(0.00338428 0.00016928 -1.23433e-17)
(0.000533598 0.000139182 1.62455e-17)
(0.000249058 4.78635e-06 -1.45689e-18)
(-0.0147705 -0.000432874 4.75016e-17)
(-9.44757e-07 2.23692e-06 1.64384e-18)
(0.00143354 -0.0171362 -3.37459e-17)
(-0.000412436 0.00119389 2.93965e-18)
(0.00499847 0.00230481 8.0035e-18)
(-0.0038151 -0.0250108 -2.27745e-18)
(0.00314353 0.00516078 8.76301e-18)
(5.0802e-05 3.7594e-05 -6.4685e-19)
(-0.0014637 -0.00671583 4.90847e-17)
(-4.39427e-05 0.000298755 7.06856e-19)
(0.0028119 0.00129417 -1.35976e-17)
(-0.00573601 0.00173421 -1.74172e-17)
(0.000278162 0.000186845 1.11814e-17)
(0.00587161 0.00399133 -8.72303e-18)
(-5.46103e-07 2.21633e-06 -1.49891e-18)
(-0.0120622 0.000917125 -4.95304e-17)
(0.000896878 -0.00249313 -2.75661e-17)
(0.000103302 -0.000119696 1.43855e-18)
(-0.00207633 -0.00698143 2.40763e-18)
(0.00367243 0.005925 -5.2993e-19)
(-0.0012005 -0.000245097 5.19823e-17)
(0.0022413 -0.00112834 2.13786e-17)
(-7.56338e-05 0.00757818 3.71885e-18)
(7.14561e-05 -6.08586e-05 2.61027e-20)
(-7.41576e-06 7.81941e-06 5.2591e-19)
(-0.000389924 0.00365314 -6.4612e-19)
(0.000189753 6.4082e-05 1.65491e-18)
(3.86512e-05 -9.83263e-05 4.69483e-18)
(0.00353128 0.000863796 7.2259e-17)
(2.44243e-05 -0.000128747 1.21673e-17)
(-0.00245423 0.00264275 -5.59113e-18)
(2.0742e-05 0.000535465 7.85293e-18)
(-0.00878644 0.000414246 2.1854e-17)
(0.000102608 -0.000122729 3.76982e-19)
(0.00303464 0.00126945 1.63086e-17)
(-0.000999151 -0.00659133 -2.10915e-18)
(0.00316529 0.0107728 -5.33962e-18)
(-0.00663546 -0.000419248 -1.2072e-19)
(2.02817e-05 -7.77238e-05 7.16259e-19)
(0.00473276 0.0026137 -2.47918e-17)
(5.09563e-06 -0.000141519 -1.16974e-17)
(0.000196611 6.53329e-05 4.10686e-19)
(0.000284144 -0.00101428 9.84466e-18)
(0.00017613 -0.00104517 -5.9059e-20)
(-0.00683039 -0.000233123 5.97019e-18)
(2.87985e-05 -0.000442216 -9.79735e-18)
(0.000125679 -4.65277e-05 -4.24371e-19)
(0.00102588 0.0044143 -1.33094e-16)
(-0.00718613 -0.000844687 -3.00929e-17)
(0.000658009 1.37198e-05 7.85169e-18)
(5.98785e-05 -8.03487e-05 6.19318e-18)
(-0.00716107 -0.000203619 -7.54436e-18)
(0.00013434 0.000526316 -4.60514e-18)
(0.000195525 -4.716e-05 1.0308e-19)
(-0.00472335 0.00109346 -7.30471e-18)
(2.21735e-05 3.65008e-05 8.19455e-19)
(-0.00132506 -0.0199877 4.46246e-17)
(4.54136e-05 -1.09181e-05 1.50642e-18)
(0.000128011 -3.86064e-05 2.36856e-19)
(-0.00513442 0.00713246 9.20545e-18)
(0.000293353 0.000180665 -1.21387e-17)
(-0.00833728 0.00016183 2.78233e-17)
(-0.00697877 -0.000363215 9.25401e-18)
(-0.00476472 -0.00474674 -5.6423e-18)
(0.000255562 1.0974e-05 -6.38154e-19)
(0.00131658 0.00118737 -9.62461e-18)
(2.70485e-05 -4.02899e-05 7.063e-18)
(-0.000639738 -0.00676775 -4.76508e-19)
(2.40899e-05 -0.000134428 -4.78842e-19)
(-3.22714e-05 0.000305803 -7.71192e-19)
(0.000922701 0.00019417 -9.98422e-17)
(-0.00369315 -0.00432261 -1.41742e-17)
(-0.000285654 0.00262975 3.15598e-17)
(0.00185203 -0.000777407 8.47696e-18)
(6.78493e-05 -7.15355e-05 1.31104e-18)
(-0.00158646 0.00362265 8.09151e-19)
(0.00657046 -0.000199182 1.39752e-17)
(0.00172721 -0.00132155 3.83136e-17)
(-0.00142336 0.00397607 9.07784e-18)
(8.91059e-05 -0.000380679 1.89611e-19)
(0.000115453 -0.0003998 3.66313e-17)
(6.46801e-05 -0.000107495 1.10726e-18)
(7.72432e-05 -3.71485e-05 1.66441e-19)
(0.000431954 -8.55301e-05 -1.07293e-17)
(7.59843e-05 -4.20252e-05 1.32512e-19)
(-0.00715194 -0.00151596 2.76397e-17)
(-2.21172e-05 0.000293517 1.69361e-18)
(7.38513e-05 8.39213e-05 2.26822e-18)
(0.000313124 -6.80458e-05 5.66138e-20)
(7.37531e-05 -5.85141e-05 -3.08247e-21)
(0.000835508 -0.000721503 -3.33291e-18)
(6.59298e-05 -6.61308e-06 3.96081e-17)
(0.0019549 0.00207242 -4.11701e-18)
(2.4067e-05 0.000515536 5.29939e-18)
(4.0083e-05 -3.54557e-06 -2.16424e-19)
(2.60629e-05 2.46618e-06 -1.00713e-18)
(-0.00566514 0.00237204 -6.35299e-17)
(0.000218514 0.00577284 5.27451e-18)
(0.00134076 0.000247583 5.84924e-18)
(6.26034e-05 7.22692e-05 -7.22908e-19)
(0.000121477 -8.09963e-05 3.35333e-19)
(-0.0063987 -0.000396678 -2.37369e-18)
(-0.001799 -0.00745627 2.16141e-17)
(-2.74717e-06 -0.000470961 5.92446e-18)
(6.81243e-05 -6.92337e-05 6.78273e-19)
(0.000572104 0.000102241 -2.64346e-18)
(-0.00638675 -0.000978159 3.49016e-18)
(0.000675795 0.000293685 -3.66549e-19)
(0.000251277 -5.87957e-06 -9.60806e-20)
(0.000261709 0.000115298 -1.64869e-17)
(0.00385993 0.000559176 -5.77923e-17)
(-0.00479353 0.00150055 2.38253e-17)
(0.000256066 0.000465167 2.5922e-17)
(-0.00103928 0.0014214 1.04819e-17)
(3.04839e-05 -0.000426953 2.22894e-18)
(-0.00542892 -0.0036572 5.52651e-17)
(8.91278e-05 -0.0003429 -3.21928e-17)
(0.0006365 0.000420932 -2.9273e-18)
(-0.00367384 0.00688591 -3.67445e-18)
(9.45703e-05 -0.000210655 -1.33522e-18)
(2.78457e-05 -3.76922e-05 -3.60736e-18)
(8.72065e-05 -0.000603927 2.51128e-17)
(-0.00688539 -0.00336516 -1.27984e-17)
(0.000181263 -0.000100492 -2.24121e-18)
(2.05296e-05 3.36972e-05 -4.06948e-18)
(-0.00264913 -0.00502274 7.13509e-17)
(-0.00537238 0.00320505 5.23201e-18)
(0.000605819 0.000101181 5.75937e-18)
(-0.00104893 0.00400285 1.73287e-17)
(0.000567092 -0.000793794 3.33057e-18)
(3.66704e-05 -2.35918e-05 1.90248e-18)
(-0.00509683 -0.00153833 1.38854e-17)
(4.70567e-05 -0.000168482 -8.16901e-20)
(1.66956e-05 -5.18853e-05 -1.14636e-17)
(1.57964e-05 -6.96225e-05 1.68418e-18)
(0.00119784 -0.00224705 5.2029e-17)
(0.000566916 0.000373038 -8.46663e-18)
(5.22053e-05 0.00020035 7.88013e-18)
(-1.43794e-06 3.19152e-06 -1.09606e-18)
(0.00437487 0.00470164 -1.06248e-18)
(0.00045107 -6.1799e-05 1.63774e-17)
(-0.000129154 0.00355766 8.43108e-18)
(-0.00861045 1.40986e-05 -6.32918e-18)
(-0.00663107 0.00160723 -9.67006e-18)
(-0.00621941 0.00115615 -9.73243e-19)
(0.00327341 0.000965557 -1.00874e-16)
(0.000302941 -6.00131e-05 1.30552e-18)
(0.0044051 -0.00520039 2.84314e-18)
(1.6809e-05 -8.28731e-05 6.44942e-19)
(3.89982e-05 -2.9668e-06 1.98742e-19)
(0.000325449 -0.000216559 -9.7795e-19)
(3.37448e-06 -3.48197e-06 -1.89774e-19)
(-0.000728937 0.00323447 -2.91443e-17)
(-0.00102904 0.00311751 1.02177e-17)
(0.00114998 0.00406863 8.87939e-18)
(3.94243e-05 3.46581e-06 -1.56192e-18)
(9.8257e-05 0.000545666 -7.83244e-18)
(0.000812932 0.00398267 1.31535e-18)
(-0.000530768 -0.00689023 -1.68642e-17)
(0.00227508 -0.000785053 -1.89873e-17)
(0.000296799 -3.96858e-05 -7.10369e-20)
(0.000644316 0.000325996 2.95217e-18)
(-0.00418088 0.000423176 6.50168e-17)
(-0.00496115 0.00358359 -1.81655e-17)
(0.00273937 0.00153197 5.45439e-18)
(8.70924e-05 -0.000309925 -1.8652e-17)
(4.84052e-05 -0.000146094 1.87615e-18)
(6.53196e-05 -3.0706e-06 -4.99531e-19)
(-0.00422025 -0.00355435 3.05036e-17)
(0.000567854 0.000337527 6.71384e-19)
(-0.0084702 0.000178698 3.34495e-17)
(0.000222336 0.000104073 -1.70762e-17)
(0.000177731 -9.45885e-05 4.70222e-19)
(-0.00210161 0.00318084 4.38159e-18)
(0.00252572 0.00151788 8.0497e-19)
(6.26556e-05 7.55395e-05 6.67405e-18)
(0.000113431 9.8053e-05 -7.32176e-18)
(4.57239e-05 -0.000454308 -3.30033e-17)
(-0.00106372 0.00783203 2.08561e-17)
(0.00615837 0.00220461 -3.49377e-17)
(0.00160633 -0.00674099 1.34834e-17)
(0.000424576 0.000339631 -3.68406e-18)
(-0.000523782 -0.00111742 -1.1819e-17)
(0.00691303 0.0017085 7.5935e-18)
(3.58193e-05 -0.000275404 -7.15862e-19)
(0.000502057 0.0006536 -1.85718e-17)
(-0.00675688 -0.000405987 -2.04619e-17)
(0.000216591 0.000105212 3.96721e-18)
(-0.00292409 0.00188749 -1.6061e-17)
(0.000119079 -8.27941e-05 -1.73902e-19)
(-0.00251189 0.00856376 -3.64395e-17)
(-1.36201e-06 7.81674e-06 1.42836e-18)
(0.000256664 0.00017066 -2.80599e-18)
(0.000220512 -3.63879e-05 -3.98284e-19)
(3.60232e-05 -8.76951e-05 -3.82775e-18)
(0.00743492 -0.000607411 -9.89849e-18)
(9.19481e-05 9.0465e-05 -2.80503e-18)
(-6.03282e-05 -0.00029472 -1.71731e-17)
(3.81261e-05 5.3448e-06 8.84581e-19)
(0.00339957 -0.000464969 3.35798e-18)
(-0.00834284 0.000255157 -1.56412e-17)
(-0.00107692 0.00226618 9.13137e-18)
(0.000104902 -0.000300587 1.79736e-17)
(0.000491142 0.000688596 1.68658e-17)
(-5.8966e-07 1.27508e-05 1.13182e-18)
(9.68475e-05 -0.000570604 1.06622e-17)
(3.69096e-05 -2.11355e-05 -1.60374e-18)
(0.000267396 0.000169512 1.57939e-19)
(-0.00772325 0.00323044 1.87512e-17)
(9.09061e-05 -0.000307455 2.86281e-17)
(0.000212458 0.000106252 -2.25609e-18)
(1.28572e-06 -0.000143154 2.55182e-18)
(0.00119886 -0.00633032 -4.10578e-17)
(4.96391e-05 4.28488e-05 2.1311e-19)
(-0.00901985 0.000438717 3.10108e-17)
(0.00310742 -0.00609574 9.56749e-18)
(0.00163844 -0.000906381 -5.94248e-17)
(-1.03115e-06 3.64509e-06 1.07243e-18)
(-0.00646683 0.00573281 -4.3693e-17)
(-0.00761267 -0.000276237 -5.29691e-18)
(0.000899511 0.00820425 -2.21852e-19)
(-0.00269886 0.0020317 1.59635e-17)
(0.00033767 9.71158e-05 2.10996e-17)
(1.85377e-05 -0.000618857 3.8579e-18)
(0.00618598 -0.000604892 5.66851e-18)
(8.028e-05 0.000561771 5.32611e-18)
(0.00174336 -0.000555456 6.10874e-18)
(0.000341809 -2.9361e-05 6.3174e-18)
(-0.00515329 0.00111888 7.40924e-18)
(0.000208394 -0.00240199 -2.54205e-17)
(2.49194e-05 -2.71371e-06 -8.70388e-20)
(0.000212544 0.000138962 5.42585e-18)
(-0.00196851 0.00358239 -4.32835e-18)
(0.00451445 0.00415445 -9.55256e-20)
(0.00597603 0.000863292 -1.2477e-18)
(6.33729e-05 -5.86641e-06 1.98633e-18)
(-3.35616e-06 -0.000471771 -3.1887e-17)
(2.9567e-05 -3.76986e-05 5.50336e-18)
(0.00314255 0.00276784 1.69534e-17)
(-0.00351998 -0.00539439 1.2868e-19)
(0.000222451 0.000139315 -7.74785e-18)
(0.000492498 -6.15756e-05 3.34921e-17)
(-0.000175514 -0.00252353 2.64707e-17)
(5.89284e-05 -5.47473e-05 -1.63811e-18)
(9.52676e-05 -0.000389097 -1.74015e-17)
(0.000114787 0.00288104 -5.30695e-18)
(0.00602299 -0.0199359 3.05482e-17)
(2.06132e-05 -0.000113738 -2.57807e-19)
(3.42968e-05 -8.36407e-05 4.84014e-18)
(0.000102418 -0.000307025 -2.60566e-17)
(-0.00276555 -0.00158682 -2.20201e-18)
(-0.00359512 0.00160629 4.15779e-17)
(0.000629903 0.000140288 -2.21451e-17)
(6.51681e-05 7.27297e-05 -1.27049e-18)
(0.000559598 -0.00771416 4.4292e-18)
(-0.00466847 -0.00357354 1.34946e-17)
(0.00200521 0.00167506 1.1021e-17)
(0.000507303 -3.36523e-05 -2.65981e-17)
(-0.00360386 -0.00146259 -8.5185e-19)
(0.00321052 -0.000897317 2.93298e-17)
(0.000242574 0.000115143 -6.07827e-18)
(0.000367454 0.000313654 -1.69298e-18)
(-0.0239918 -0.0163832 -5.00318e-19)
(7.77064e-05 -1.18274e-05 -8.29475e-19)
(1.52446e-05 -6.5097e-05 1.05006e-18)
(0.00216453 0.00166991 -2.21847e-18)
(0.00045197 0.000321305 8.95991e-18)
(4.93842e-05 5.0792e-05 2.69428e-19)
(-1.34004e-06 6.83489e-06 2.09008e-18)
(3.82623e-05 -1.96134e-05 -1.5969e-18)
(2.04975e-05 -3.93868e-07 -4.45487e-19)
(0.00035518 0.000157084 -1.18725e-18)
(1.69712e-05 -6.72003e-05 -7.69527e-19)
(-0.00693073 -0.000141236 -1.77121e-18)
(0.000567293 0.000125437 -7.7261e-18)
(9.55492e-05 -9.35404e-05 1.10264e-18)
(0.00500834 0.00383265 6.97812e-18)
(-0.00661707 -0.000311208 -9.91745e-18)
(3.64301e-05 -0.000138392 1.88021e-17)
(0.00362999 -0.000169035 -1.33532e-17)
(0.00633015 0.000524119 -2.60051e-17)
(9.91175e-05 -0.000214369 6.30523e-18)
(3.549e-05 -0.000144068 -9.35055e-18)
(0.000585828 8.73733e-05 -7.73297e-18)
(-0.00795196 0.000152446 1.03069e-17)
(-0.00146261 0.0125043 3.77422e-17)
(0.000463836 -0.000370868 5.63619e-18)
(1.41999e-05 -4.58522e-06 -1.08578e-18)
(0.00395713 -0.00732951 -9.74526e-18)
(1.93328e-05 -8.16306e-05 6.6273e-19)
(0.000370089 -0.00044382 -1.19638e-19)
(0.00619349 0.000768457 3.59689e-17)
(0.00969957 -0.0145829 -2.29147e-17)
(5.18652e-05 0.000193279 -1.27059e-17)
(-0.0213822 -0.0183129 -1.74917e-17)
(0.0191951 -0.00423609 -1.8621e-17)
(-0.00807842 0.00209598 -2.02721e-17)
(0.000135112 -0.00110891 -3.48278e-17)
(5.65193e-05 -0.000390997 -4.46241e-17)
(-0.00171686 0.00144079 -2.69885e-17)
(-0.00611408 -0.000648369 2.74173e-17)
(-0.00237565 -0.0244545 2.40327e-17)
(0.000116127 9.55108e-05 5.72077e-18)
(-0.00422057 -0.00164089 -4.17468e-17)
(0.000389719 0.000496858 -7.15614e-18)
(-0.000149528 -0.000443493 1.0089e-17)
(-0.000160942 -0.000475363 -9.65154e-18)
(3.59775e-05 -0.000279072 7.361e-18)
(0.000333397 -0.000295419 2.99812e-17)
(0.000202122 -0.000235236 1.25238e-17)
(0.00166922 0.0013441 -4.1463e-18)
(8.98803e-05 -0.000406966 -3.43446e-18)
(1.92664e-05 -2.67119e-06 -1.2299e-19)
(-4.54333e-06 7.75905e-06 -4.77764e-19)
(0.000262497 8.28926e-05 -4.02784e-18)
(-0.00737293 0.00165066 2.26606e-17)
(-7.59711e-05 -0.000308199 6.5921e-17)
(7.69617e-05 -9.26116e-06 8.70217e-19)
(-0.000526046 0.00226789 -1.59518e-17)
(0.000190021 -0.000254593 2.49216e-18)
(0.000266605 0.000114393 2.55301e-17)
(4.8167e-05 0.000212401 -6.20925e-18)
(-0.00805012 0.000242799 -1.72872e-17)
(0.00151365 -0.00716735 1.83292e-18)
(-0.00246051 0.00305922 5.03213e-21)
(0.000210306 -4.01106e-05 -2.43613e-19)
(0.00020821 0.00010477 -3.75808e-18)
(0.00731528 0.00114691 1.74289e-17)
(5.38351e-05 -0.000154085 -1.09032e-18)
(-0.00571174 -0.00281501 -7.70878e-18)
(0.000234751 0.000118897 -4.39598e-18)
(0.000573121 5.7223e-05 -1.06898e-17)
(0.000191211 -0.000259956 -3.51791e-18)
(2.9028e-05 -3.61992e-05 -7.4668e-18)
(9.52058e-05 -9.00584e-05 -5.91262e-19)
(-0.00136451 0.0019477 -4.25623e-18)
(0.00227664 -0.0014887 8.48627e-18)
(0.000877354 -0.00259278 -4.92631e-18)
(0.0091621 -0.00617582 5.80755e-17)
(0.007731 0.00129128 -1.17487e-17)
(0.000185934 -9.83796e-05 3.36293e-18)
(0.00259796 -0.00594632 1.88687e-17)
(0.00410572 0.00372627 2.70252e-18)
(2.83973e-05 4.49433e-05 1.23363e-18)
(0.00607103 -0.0122737 1.89161e-17)
(0.00192559 -0.000200297 1.23687e-17)
(0.00684912 -0.00014517 -6.04222e-18)
(0.000254126 8.1002e-05 9.86015e-18)
(-0.000712215 0.000915219 -1.02907e-17)
(0.00150926 0.00961988 -7.46876e-18)
(0.0148678 0.022512 -2.56199e-17)
(-0.000514715 0.00216733 3.05697e-17)
(-9.74387e-05 0.00153842 -9.72849e-19)
(0.000150211 9.04579e-05 -6.06618e-18)
(-0.0014073 0.00388982 -1.4999e-17)
(-0.00159973 -0.000597871 7.14882e-17)
(0.00027801 8.81494e-05 -1.04096e-17)
(-0.00512541 0.00155422 -8.90462e-19)
(0.000288559 6.90258e-05 -3.59934e-17)
(0.00435551 -0.00597853 1.98409e-18)
(0.00035281 0.000292582 -1.87449e-19)
(-8.91294e-05 0.000708556 9.28673e-18)
(-0.000581903 -0.00181945 2.80164e-17)
(0.00499381 -0.000449641 5.21115e-17)
(1.84214e-05 -5.29911e-05 6.53753e-18)
(0.000226289 0.000108344 -1.53445e-17)
(0.000491328 0.000339857 5.78528e-19)
(0.000119445 0.000547524 -2.08447e-18)
(7.56614e-05 -7.27187e-05 4.70613e-20)
(0.000658185 0.000160574 1.59062e-17)
(-0.0130647 0.00702412 -6.91235e-18)
(5.97331e-05 -7.78369e-05 2.03357e-19)
(0.000539084 0.00061627 3.45562e-18)
(-0.00620559 -0.000453958 -4.06678e-18)
(0.000187721 0.000106007 1.04433e-17)
(0.00778349 -0.000581022 -2.30417e-18)
(6.51795e-05 0.000825069 9.38501e-18)
(0.000915853 0.0139561 -4.15644e-17)
(0.000221255 0.000104199 1.55178e-17)
(-0.000349321 0.00113832 -1.02611e-18)
(-0.000484787 -0.00164564 2.21409e-17)
(-0.00330066 -0.00658165 3.9385e-18)
(0.000381697 -7.61106e-05 1.21335e-17)
(0.00607072 0.000714636 -2.79062e-18)
(-0.00761471 -0.0003496 9.71495e-18)
(-0.00487862 0.00401006 2.72114e-17)
(5.80177e-05 -5.46403e-05 6.07378e-19)
(-0.0013845 0.00160757 -7.28886e-19)
(0.000270705 6.46741e-05 -7.7149e-18)
(-0.000636004 0.000999288 6.47215e-20)
(6.96225e-05 6.5064e-05 -1.77915e-18)
(-0.00356817 -0.000137765 -8.65861e-20)
(-0.0167294 -0.00102957 -1.82624e-18)
(0.0125486 0.00535185 -6.08606e-17)
(0.000202888 0.000106138 -2.35015e-18)
(-0.000571469 -0.00214609 -2.23952e-17)
(0.00266227 0.000750863 -1.59226e-17)
(-0.00415307 0.0017604 -4.21923e-17)
(8.13386e-06 1.90039e-05 -4.71792e-20)
(-0.00443636 -0.0011348 -3.36192e-19)
(0.0063335 0.0016731 3.05154e-18)
(-0.00701402 0.00445227 4.10297e-18)
(0.000352893 -2.53632e-05 -2.68585e-18)
(0.00393438 0.00895122 -3.2803e-18)
(3.63076e-05 -4.85707e-05 3.31485e-18)
(4.47956e-06 -2.88425e-06 9.7503e-20)
(-0.0087197 0.000379789 -2.15126e-17)
(0.00142527 0.000735523 1.68567e-17)
(1.81557e-05 -5.23318e-05 -6.38148e-18)
(0.000178803 0.000109571 5.04348e-19)
(0.000579108 0.000609509 -5.23218e-18)
(3.83431e-05 -2.00687e-05 2.9922e-19)
(-0.01648 -0.00139155 1.35576e-17)
(0.000362181 -0.00033453 -2.8071e-17)
(0.00179247 -0.000242941 -1.13518e-17)
(0.0001498 0.000221132 -4.51051e-18)
(0.000147453 9.45798e-05 4.22798e-18)
(1.38557e-05 -0.000127158 1.06692e-17)
(0.00867937 0.0240106 -1.00065e-18)
(9.14472e-05 -9.60204e-05 6.07183e-19)
(1.34764e-05 -0.00011759 -1.45997e-17)
(0.00920687 0.0118884 -8.05361e-19)
(-0.0139424 0.00787285 8.49125e-18)
(0.000244018 -1.44782e-05 -2.11347e-18)
(0.0018765 0.00788871 -1.16806e-17)
(4.51883e-06 -0.000142668 -7.55338e-21)
(1.65228e-05 -6.2448e-05 -2.01165e-18)
(0.00019325 0.000105527 7.07601e-18)
(0.000547792 -0.00277671 1.11313e-17)
(-1.93607e-05 0.000800026 1.19725e-17)
(7.89415e-05 -7.76504e-05 9.82115e-19)
(0.000144973 0.000105425 3.79178e-18)
(0.00116008 0.000303221 -2.57416e-19)
(0.000137139 0.000109905 6.19333e-18)
(-0.00796829 0.00821037 9.96791e-18)
(2.16354e-05 -7.04875e-05 -2.35182e-18)
(0.000102623 0.000363793 2.43803e-18)
(-0.000780243 0.00777256 2.54562e-19)
(0.000262988 -0.000271816 1.30185e-17)
(2.26506e-06 4.03791e-06 1.61589e-18)
(1.27094e-05 -8.80482e-05 -2.81886e-18)
(0.000159002 0.000210449 2.17758e-19)
(6.39812e-05 8.3381e-05 3.99589e-18)
(0.00237814 0.00511871 -3.97679e-17)
(0.00991407 0.00973942 4.12203e-18)
(0.000344801 9.60226e-05 -2.31752e-17)
(-0.000167988 -0.000229695 2.47625e-17)
(0.000193951 0.000105 -1.68241e-17)
(2.92131e-05 -6.98692e-05 2.22666e-18)
(-0.00456332 0.000474625 -6.15903e-18)
(0.00233101 0.00882682 3.8925e-19)
(0.000148615 -0.000329781 3.16538e-17)
(7.27397e-05 -0.000104417 -8.2501e-18)
(-0.00622408 -0.000382347 -1.12839e-17)
(0.000101487 -0.000333605 1.70885e-17)
(0.00745364 -0.00940232 -3.87856e-17)
(6.21699e-05 -0.000104558 -1.68048e-18)
(0.000259268 0.000107536 -1.06873e-17)
(-0.000888478 0.00232137 -1.89285e-17)
(0.000234405 0.000531267 -1.04465e-17)
(-0.00611946 -0.000664452 -2.99566e-18)
(0.00321604 0.000591966 1.31379e-17)
(0.00741822 0.00839464 5.90669e-17)
(0.000148471 -0.000198427 -3.07187e-18)
(0.000466512 -0.00112557 3.25673e-17)
(6.2673e-05 -6.60199e-05 4.03952e-19)
(0.00339167 0.00464987 -9.21059e-18)
(0.000101668 0.000807204 -9.26379e-18)
(0.00244321 0.00161804 2.40585e-17)
(0.000274653 6.85654e-05 5.96143e-18)
(0.000202793 -3.74025e-05 -7.83562e-19)
(0.000270728 -0.000253408 7.82148e-18)
(0.000352512 -0.00025209 -8.24949e-18)
(1.06569e-05 -4.45672e-06 -5.2447e-19)
(0.00101091 0.00106955 1.12974e-17)
(-0.00506454 0.000322814 1.2247e-17)
(-0.00845772 0.00688044 -6.37293e-17)
(0.00390907 -0.00122882 -5.49962e-17)
(0.00914862 0.0110326 -2.17945e-18)
(0.00261635 0.0008222 -1.87907e-17)
(-0.00491636 -0.0048737 -1.62017e-17)
(0.000118287 -0.000287585 1.12518e-17)
(-5.77976e-07 -1.50459e-05 3.26807e-18)
(0.0108486 -0.00157252 -2.28382e-17)
(1.65712e-05 -6.2942e-05 1.24967e-17)
(7.25761e-05 -7.08268e-05 3.05464e-20)
(0.00013706 -0.00029401 1.65593e-17)
(-0.000211288 0.00408323 1.13846e-17)
(0.000158719 0.000120772 4.78872e-18)
(8.07102e-05 -0.000216188 1.92811e-18)
(0.000678694 -7.71399e-05 3.26258e-17)
(0.000228589 -2.35961e-05 7.66512e-18)
(4.83479e-06 -6.23367e-05 2.21237e-18)
(0.00643788 -0.0134616 2.46785e-17)
(6.26744e-05 -6.34535e-05 1.20086e-19)
(-0.0060877 0.000193443 -9.53833e-18)
(0.00115175 0.00502689 1.85325e-17)
(4.67176e-05 -1.6942e-05 1.27357e-19)
(0.000114688 0.000139745 -2.58211e-18)
(0.00413547 0.00635311 2.46118e-17)
(0.00302534 -0.0184096 -1.1061e-17)
(5.11794e-05 4.72152e-05 -2.46566e-18)
(0.000319154 0.00826207 -4.00706e-17)
(0.0080806 -0.00365838 3.40192e-17)
(9.28688e-06 4.46791e-05 1.92585e-18)
(0.00197554 0.00475813 -1.32203e-16)
(-0.00719131 -4.71814e-05 -1.91195e-17)
(0.00320097 -0.00110446 -2.95545e-17)
(0.000144975 -0.000202222 1.16369e-18)
(0.00837064 0.0131358 -2.7427e-18)
(-0.00160752 -0.00141627 5.15744e-18)
(1.07123e-05 4.63563e-05 -6.45533e-18)
(0.00464981 -0.000918809 3.49752e-18)
(0.000122216 -6.35944e-05 -2.17716e-20)
(6.48859e-05 -6.94549e-05 -9.85051e-19)
(0.0106255 0.000268455 -2.33627e-17)
(0.00495444 -0.00583389 3.46968e-18)
(0.000275426 3.0144e-05 -5.26915e-18)
(-3.26664e-05 0.000781345 -8.6798e-18)
(1.3276e-05 -6.75869e-05 -2.27237e-18)
(7.01194e-05 0.00114092 1.83582e-17)
(-0.00650194 -0.000578582 7.46849e-18)
(-0.000660322 -0.00102882 -2.87379e-17)
(2.61129e-05 4.76952e-05 1.13524e-19)
(-0.00148203 0.0016117 -3.18145e-17)
(7.57311e-05 -7.52514e-05 -8.55036e-19)
(0.000126186 -5.57029e-05 5.26619e-19)
(0.000398001 -9.15564e-05 -2.11507e-17)
(3.1529e-05 0.000411065 -5.72675e-18)
(6.7311e-06 2.05149e-05 2.18701e-18)
(0.000194435 -5.6833e-05 -1.01022e-19)
(0.0034936 0.00350394 -8.9169e-18)
(0.00455811 9.62215e-06 -3.73777e-17)
(0.00265261 0.00402247 1.01203e-16)
(0.000150833 0.000117063 -1.66554e-18)
(3.11694e-05 -3.3865e-05 -3.58824e-18)
(-0.00296497 -0.00156012 -1.52674e-18)
(2.23882e-06 -5.55032e-05 -7.43928e-19)
(-0.00175753 0.000881691 -3.49408e-17)
(0.000170831 0.000301767 -8.0142e-18)
(0.000183757 0.000507856 -7.14427e-19)
(0.000318638 8.48895e-05 -2.17037e-17)
(0.00207538 0.00975882 -1.10792e-17)
(0.00370397 -0.00110059 -7.81966e-17)
(0.000219864 0.000105625 -9.2874e-18)
(-0.00200598 -0.00136076 -1.69321e-17)
(5.77851e-05 0.000172064 -1.60093e-17)
(0.000184996 -0.000195892 -7.01833e-18)
(0.00310848 0.00653631 2.85489e-18)
(-0.00875599 0.000534478 4.78452e-19)
(0.000114615 -0.000101137 7.443e-19)
(6.2456e-05 -6.4047e-05 1.79226e-18)
(0.00012695 -0.000401349 -2.83833e-17)
(0.00360081 0.00279684 2.24639e-18)
(-0.00435047 0.00625595 -6.51328e-18)
(3.70705e-05 0.00110623 -1.17234e-17)
(-0.0119265 -0.00191768 -3.85616e-17)
(1.94779e-05 0.000425903 6.58337e-18)
(0.000321055 0.000320513 6.08656e-18)
(-0.00612517 0.00525419 1.14052e-16)
(0.00870276 -0.0129158 1.25439e-17)
(0.00105222 -3.70184e-05 -4.11303e-20)
(-0.00585945 0.000308522 1.29551e-17)
(0.00192741 0.0023493 2.62536e-17)
(0.00810576 0.00281394 -6.4997e-18)
(0.000143113 8.24097e-05 -2.68145e-18)
(0.00205213 0.0116406 1.60746e-17)
(-0.0086787 0.00949835 -4.68227e-20)
(2.4168e-05 -9.26954e-05 2.09606e-18)
(0.00133559 2.92716e-05 7.29506e-17)
(-0.00895983 0.00952014 2.45842e-17)
(0.000305059 -4.71024e-05 2.5352e-19)
(0.00066217 0.000384419 4.68708e-18)
(9.10021e-05 -0.000124883 6.88265e-19)
(-6.99716e-05 0.000133202 2.40347e-18)
(0.000669636 -0.000101847 1.20088e-18)
(0.00171647 -0.000573216 5.60178e-17)
(9.20029e-05 -9.9012e-05 -7.55241e-19)
(-1.37008e-07 -3.14606e-06 -5.10641e-19)
(6.97623e-05 -0.000297001 -1.08084e-19)
(0.00022454 -4.28385e-06 -1.87038e-17)
(2.04156e-05 -6.86919e-05 -2.07849e-18)
(0.000295404 0.00362181 -2.8634e-19)
(8.51169e-07 -5.05103e-06 4.03787e-19)
(0.00192741 0.00239988 -2.15847e-17)
(0.000138308 -0.000215148 -1.54607e-17)
(-0.00067012 0.00105649 2.6315e-18)
(6.15896e-05 -0.000103095 1.29776e-17)
(5.01576e-06 -5.77921e-05 7.83675e-18)
(0.000465445 1.01177e-05 -1.82136e-17)
(-0.0011045 0.00162008 1.67673e-16)
(0.000335648 -7.09221e-05 -7.16275e-19)
(-0.00070494 0.00158336 1.49903e-18)
(0.000259525 0.000113057 1.86747e-17)
(3.95604e-05 -2.29643e-05 6.97086e-19)
(3.79801e-05 5.62418e-05 -1.85714e-18)
(0.000289437 -0.000222085 3.96169e-18)
(0.000144843 0.000104904 -1.42335e-18)
(-3.08998e-07 -0.000285381 -9.14818e-18)
(0.000177082 0.000121076 2.96939e-18)
(0.000140078 -0.000326257 -2.78551e-17)
(0.000588724 0.0109609 -5.26505e-18)
(1.62419e-06 -5.58455e-05 3.23293e-18)
(0.00729673 0.00047697 3.50307e-18)
(-1.05065e-06 1.24185e-05 -3.97124e-18)
(-0.00143196 0.00113291 2.46444e-17)
(-0.00129557 -0.00149717 -3.25261e-18)
(-0.00548892 0.0047929 -5.75769e-19)
(3.20215e-05 -0.000316346 2.11567e-17)
(0.0055695 -0.00383549 -4.58061e-17)
(0.000668494 -0.000124924 3.85299e-18)
(-0.000796159 -0.00161773 1.59656e-17)
(-0.00764985 0.00983017 -6.05399e-18)
(3.2184e-05 5.40361e-05 8.07071e-18)
(0.00638606 -0.012437 -1.71336e-17)
(0.000202831 -0.000244817 3.52219e-18)
(0.000283827 8.10658e-05 -2.10183e-18)
(0.00346317 -0.00137375 -6.14108e-17)
(0.0123038 -0.00705577 -1.38459e-17)
(3.08774e-05 4.6258e-05 -3.25066e-19)
(-2.85167e-05 -0.000241624 1.6818e-18)
(5.7566e-05 7.37712e-05 -1.31058e-18)
(0.00722176 0.00258965 -9.10639e-19)
(0.00158351 0.000299103 2.6198e-17)
(0.000136446 -1.77138e-05 9.3679e-20)
(3.27666e-05 -0.000444053 -7.39753e-18)
(-0.0116201 -0.0112365 -1.22669e-17)
(-1.06753e-06 1.66129e-05 -1.3943e-18)
(-1.39924e-06 1.53987e-05 5.6261e-18)
(-0.000477898 0.00117808 -1.53888e-18)
(0.00737473 0.000402094 -7.93442e-18)
(0.00717158 0.0148173 8.85358e-18)
(3.29053e-05 -0.00014006 -2.21425e-18)
(-0.000886516 -0.00126278 -3.52508e-18)
(0.000131941 0.000107378 7.582e-18)
(7.20356e-06 -4.88729e-05 6.61922e-19)
(-0.00203112 0.0112964 -2.18905e-19)
(-0.000968796 -0.00159876 -6.80196e-18)
(0.00235137 -0.00055558 2.25812e-17)
(6.46081e-06 1.58417e-05 5.29923e-19)
(0.000294211 0.00282158 1.47601e-17)
(0.000282257 -0.000367531 -5.18751e-19)
(-0.000294676 0.00100915 1.4212e-18)
(3.52857e-05 -0.000230485 -2.55919e-18)
(0.000170995 -0.000103261 -1.44479e-18)
(0.00062875 -7.43439e-05 -8.45217e-18)
(7.17524e-05 -0.000294622 -1.08025e-17)
(-9.77376e-05 0.00322932 2.05362e-18)
(0.000662814 6.44794e-05 -1.43958e-19)
(0.000615168 -4.73755e-06 7.20804e-18)
(0.00093518 -9.0889e-05 4.26639e-18)
(-0.000756676 -0.00535097 3.12381e-17)
(-0.00627655 0.00264442 8.78067e-19)
(0.00443636 -0.00338824 -1.78281e-18)
(0.0066898 0.0143388 4.75909e-18)
(-0.000894732 0.00375302 -2.29124e-17)
(-0.00797558 -9.04468e-06 -1.68388e-17)
(0.000394273 -0.000131907 -1.03184e-18)
(0.0113934 0.00139766 2.4422e-17)
(0.00354317 -0.000851883 4.14461e-17)
(8.08409e-05 7.93265e-05 6.04725e-19)
(0.000293902 0.000295114 -5.83678e-18)
(-0.00515187 0.00173201 -3.62786e-18)
(0.000262188 5.36628e-05 3.42189e-19)
(4.40973e-05 -7.32975e-06 -9.36801e-19)
(4.23898e-05 -5.21418e-06 -2.20614e-18)
(-0.00134025 0.00142768 -2.05554e-18)
(0.000352514 0.00130397 1.2534e-17)
(0.000117049 0.000364966 -4.08855e-18)
(0.00388058 -0.00529686 -5.30812e-18)
(4.01454e-05 -2.53358e-05 -9.99594e-20)
(0.00719078 0.01482 -1.97374e-17)
(0.00085418 -0.000620113 7.39351e-19)
(0.00589631 0.000586687 -2.13721e-17)
(-8.94137e-05 -0.000226498 -3.05583e-17)
(0.000221459 0.000100636 -1.65778e-17)
(0.000171072 0.000115456 -7.27612e-19)
(0.00568122 0.000871679 -6.89238e-18)
(0.00254607 -0.000211265 -2.8608e-18)
(0.00038614 -0.00012189 3.1095e-18)
(0.00188561 0.000312573 -2.87074e-18)
(0.000140044 9.46087e-05 -5.79053e-18)
(0.0103446 -0.00087386 1.71909e-17)
(-0.0014744 0.00134115 -8.12452e-18)
(0.00194483 0.00240329 -7.00303e-18)
(0.000255497 8.19928e-05 1.1871e-17)
(0.00928554 0.00614552 -4.15622e-17)
(3.72947e-05 -4.68406e-05 -4.17625e-18)
(-1.10522e-06 1.24042e-05 4.14139e-18)
(3.53251e-05 -0.000269028 -2.34356e-18)
(8.29735e-06 -4.49457e-05 4.87815e-18)
(0.00143944 0.00670512 -2.46375e-18)
(2.07735e-05 -8.15707e-07 4.08925e-19)
(-0.00296851 0.0101807 3.59373e-18)
(-0.00373691 -0.00131287 -2.28711e-18)
(-0.000163615 -0.000256162 -1.31844e-17)
(-0.00136078 -0.00044647 1.95494e-17)
(0.00640088 -0.000330683 6.26456e-18)
(0.00191278 0.00245303 5.41678e-18)
(-0.000877029 -0.00237939 -1.91394e-17)
(4.20749e-05 -0.000313833 -4.71971e-18)
(2.74634e-07 -6.32649e-05 -8.36527e-19)
(3.51061e-05 -7.15815e-05 3.1449e-18)
(2.58532e-05 3.71405e-05 -9.84196e-19)
(4.27194e-05 5.80222e-05 8.02232e-19)
(3.1842e-06 -5.22811e-06 -1.61867e-18)
(0.000228175 -0.00025153 -1.06303e-17)
(0.000704214 -0.000153907 -4.8486e-17)
(0.000294238 -0.000387879 4.35906e-18)
(-0.000914649 -0.0248545 -2.46361e-17)
(0.000180205 -3.29241e-05 7.70868e-19)
(-0.00722856 -0.000160877 1.42862e-17)
(8.55057e-07 6.18132e-06 5.86449e-18)
(-0.00667846 0.00344282 -7.80377e-17)
(0.000312011 0.000165808 -7.36524e-18)
(1.66522e-06 1.24694e-05 -6.43239e-18)
(1.38093e-06 -0.000133816 4.1209e-18)
(-0.00597622 0.00367307 1.54895e-18)
(0.000225374 0.000103143 5.95124e-18)
(0.000664573 0.00250468 5.85662e-18)
(-0.00752529 0.0111463 -9.42849e-18)
(0.00059343 0.000415736 8.77722e-19)
(0.00111175 -8.01058e-05 3.52423e-17)
(4.36263e-06 4.98605e-05 5.46228e-18)
(-0.00572256 0.00123126 1.84874e-17)
(0.000177507 -0.000166411 8.43762e-18)
(0.000165074 0.000119607 2.38391e-18)
(-0.000516898 0.0115795 -1.63625e-18)
(-1.16509e-07 -6.39935e-05 -7.03424e-20)
(9.01228e-05 -0.000211094 1.03996e-17)
(4.86147e-05 6.20222e-05 6.21939e-19)
(0.000173154 0.000803697 -3.06578e-18)
(-0.00298184 0.00141677 1.4771e-17)
(0.000253758 0.000100083 1.1963e-17)
(0.000261948 7.29373e-05 -1.73434e-17)
(0.00706156 0.000605451 -3.68828e-17)
(-0.000197433 -0.00102187 4.13717e-17)
(7.46692e-05 -0.000314407 -2.39458e-17)
(0.000221447 -0.000153113 1.3714e-18)
(0.00617157 0.0052923 1.15188e-17)
(2.49598e-05 3.65777e-05 4.86859e-19)