/*--------------------------------*- C++ -*----------------------------------*\
| =========                 |                                                 |
| \\      /  F ield         | OpenFOAM: The Open Source CFD Toolbox           |
|  \\    /   O peration     | Version:  v2012                                 |
|   \\  /    A nd           | Website:  www.openfoam.com                      |
|    \\/     M anipulation  |                                                 |
\*---------------------------------------------------------------------------*/
FoamFile
{
    version     2.0;
    format      ascii;
    class       surfaceScalarField;
    location    "800";
    object      meshPhiCN_0;
}
// * * * * * * * * * * * * * * * * * * * * * * * * * * * * * * * * * * * * * //

dimensions      [0 3 -1 0 0 0 0];
oriented        oriented;


internalField   nonuniform List<scalar> 
20580
(
0.000182478
-0.000204104
2.16081e-05
0.00045213
-0.000200104
-0.000252699
1.66491e-05
0.000434479
-0.000100556
0.000131836
-3.12804e-05
-3.57381e-05
-2.67429e-05
4.02735e-05
-2.6244e-05
-0.000379425
0.000405012
0.000284706
-0.000445537
-7.01843e-05
-4.14484e-05
7.30712e-05
5.0465e-05
6.19816e-05
-0.000112447
0.000116597
-0.000647304
0.000529097
-0.000173975
0.000297689
-0.000123783
8.59797e-05
0.000351469
-0.000443588
-0.000520478
9.71936e-05
0.000422585
3.88712e-05
-9.97303e-05
6.08591e-05
0.000182299
-0.000341918
0.000159422
0.000163698
2.919e-05
-0.000192903
0.000127121
-9.59137e-05
-3.12076e-05
0.0006079
-0.000187389
-0.000424313
0.000107208
6.98716e-05
-0.000177086
-5.56421e-05
0.000238101
-0.000376118
0.000145706
0.000230225
-0.000151333
-0.000274967
0.000425755
0.00013145
-6.31065e-05
-6.83444e-05
-2.49772e-05
-9.34682e-07
2.14331e-05
0.000156809
-3.69735e-06
-0.000153115
0.000293415
-0.000179004
-0.000114471
0.000189921
-0.000126387
-6.35385e-05
5.93398e-05
9.60609e-05
-0.000155404
0.000137183
-7.48046e-05
-6.23786e-05
-0.000125341
-0.000444788
0.000559385
1.79039e-05
-0.000118286
0.000100381
-0.000200679
0.000484315
-0.000186464
-3.66652e-05
0.000223109
-5.77509e-05
-7.66433e-05
0.000134394
0.000209105
6.84775e-05
-0.000277688
-0.000131947
0.000156382
-2.4435e-05
-3.96881e-09
-2.69689e-05
0.000175844
-0.000104132
-7.17139e-05
-0.000104845
-2.98969e-05
0.000134742
-0.000612237
0.000488147
0.000121897
-0.000111129
0.000140345
-2.92155e-05
6.17339e-05
7.54486e-05
6.71649e-05
3.76948e-05
0.000202301
-0.000163349
-3.89579e-05
9.7417e-05
2.86376e-05
-0.000126055
-0.000120448
-0.000449187
0.000564185
-8.80036e-05
0.000164669
6.41889e-05
-0.000165546
0.000101344
-0.000596603
0.000261584
0.000333795
-2.55258e-05
-0.000495365
7.707e-05
2.77897e-05
-0.00010486
-0.000618194
0.00018008
0.000437427
-5.02633e-05
0.000213946
0.000391344
-0.000298461
-9.32118e-05
-7.97444e-05
0.000129746
-5.00017e-05
-0.000432667
-0.000181182
-0.000199962
1.34806e-05
-7.35814e-06
-0.000103772
0.000196531
-0.000106236
-9.03003e-05
-0.000113001
-8.37624e-06
0.000121377
-0.000351285
0.000430657
0.000132581
5.7334e-05
-0.000574869
0.000592678
-1.89899e-05
-0.000252896
-0.000344674
-0.000196487
8.82135e-05
0.000108266
-0.000122696
-7.37963e-05
-1.43444e-05
-9.86568e-05
-3.28287e-05
0.000177878
-0.000212047
-0.000359004
0.000568573
0.000126106
-0.000107546
-1.85598e-05
7.27689e-05
-0.000108838
3.60687e-05
0.000173107
0.000110116
-0.000283339
0.000616766
-0.000412878
-0.000205678
9.87635e-05
-0.00010714
-0.000168656
0.000366501
-0.000198125
-0.00021129
-0.000245459
0.000455985
2.82716e-05
9.88497e-05
0.000653021
-0.000111783
-0.000560472
-2.52426e-05
0.000182048
-0.000113259
0.000620992
-0.000513828
0.00031471
-0.000529125
0.000176316
4.03864e-06
-0.000180363
0.000370082
-0.000161114
-9.639e-05
-2.56212e-05
0.000122011
-1.99275e-05
0.000118691
-8.26867e-05
-6.12302e-05
0.000143917
-0.000407263
0.000255449
3.00185e-05
-0.000103295
7.32768e-05
-0.000560773
0.000546566
1.19415e-05
9.99816e-05
-8.20779e-05
-9.1458e-05
-0.00052709
0.000224123
-0.000425763
5.92845e-05
4.55753e-05
3.41974e-05
-0.000116884
0.000139049
-2.62889e-05
-0.000112761
-0.000131798
0.000183735
-5.19439e-05
0.000821091
-0.000336329
-0.00048957
-0.000122395
-0.000105471
0.000227849
6.40833e-05
4.19247e-05
-0.000106008
0.000230109
-0.000120247
-0.000109877
6.78557e-05
-0.000190265
9.83672e-05
-0.000270134
0.000171746
0.000256634
-3.70661e-05
-0.000219601
-0.000552403
0.000625093
-7.38833e-05
0.000217602
-0.000556069
0.000333121
0.000326881
-4.57851e-05
-0.000281209
0.000622311
-0.000410832
-2.84387e-05
0.000101208
0.000437657
-0.000214559
0.000146421
0.000457432
0.000405873
-0.000150524
-0.000255591
0.000505254
-0.000631643
0.000179989
4.05556e-06
-0.000184058
-0.000271431
0.000185962
8.5412e-05
0.00013344
7.10799e-05
-0.000204538
0.000266864
0.000124079
0.00060824
-0.000258919
-0.00036263
5.49923e-05
-0.000165024
-9.03984e-05
-1.01572e-05
2.75187e-05
9.85865e-05
0.000205579
-4.04041e-05
-0.000165185
-0.000664136
5.68694e-05
0.000599918
0.000344638
0.000115205
-0.000461663
-9.91537e-05
0.000130462
-3.13083e-05
0.000200691
-2.40761e-05
-0.000176624
-0.000186437
1.35051e-05
0.000172929
0.000237987
0.000577929
-0.000279683
0.000197878
8.17342e-05
7.28694e-05
-0.000132803
5.99333e-05
0.000304659
-0.000283832
-2.09433e-05
0.000150582
-0.000426044
-0.000386238
-3.16392e-05
0.000417583
8.81206e-05
8.77198e-05
8.05508e-05
-0.000138302
-0.000254187
8.01543e-05
0.000133816
-6.26745e-05
-7.11415e-05
0.00019024
4.19146e-05
-0.000103145
0.000325757
-0.000129921
-0.00019588
-0.000206343
0.000354074
-0.000147865
-3.62288e-05
0.000212536
-0.000100539
-0.00036491
0.000464775
-0.000618227
5.57356e-05
2.06628e-05
-0.000159812
0.000139142
0.000183831
-9.88082e-05
-8.50255e-05
0.000510243
-0.000275169
-0.000235856
5.57855e-05
0.000577441
-8.40883e-05
4.25559e-05
6.71491e-05
-0.000109705
-0.000228465
-5.12662e-05
0.00017623
-0.000108386
-5.60003e-05
0.000235972
-0.000181485
-8.99952e-05
-9.3801e-05
-0.00010478
0.000198572
-0.000414491
0.000589206
-0.000175302
0.000631166
-0.000540326
-9.15625e-05
0.000454516
-0.000482575
1.95987e-05
-2.35485e-06
-0.000102491
1.49924e-05
-0.000204143
0.000189047
0.000517332
-0.000275361
-0.000242939
-5.68793e-05
5.19867e-05
-1.21393e-06
-0.00010265
-3.85443e-05
0.000141194
3.70566e-06
0.000323052
0.000208111
-0.000143941
0.000107159
-6.82875e-05
9.88987e-05
-0.000119051
2.01517e-05
-4.60928e-05
0.000144991
-4.29851e-05
0.000120055
0.000266202
0.0001394
7.66181e-05
6.18053e-05
-0.000138425
-4.77901e-05
-0.000361857
0.000403155
0.000115586
0.000474613
-0.000121131
-0.000163173
0.000284228
2.82526e-05
-6.84693e-05
2.31911e-05
1.28704e-05
0.000126179
-0.000137337
0.000189595
-5.22635e-05
0.000162764
2.4455e-05
-0.000187231
0.000551513
-0.00045197
-0.000219677
-0.000150809
0.00037021
-5.42694e-05
0.000217018
-6.65659e-06
0.000207339
7.04979e-05
-0.000379917
0.000136277
0.000243361
-7.71145e-05
0.000381609
3.56819e-05
6.91779e-05
9.81511e-05
-5.55954e-05
0.000156561
-0.000193244
0.000389033
-0.000333654
-5.54523e-05
0.000375425
-0.000605214
0.00022912
0.000728705
-0.000580682
-0.000156374
0.000104188
7.96403e-05
-0.000276822
0.000291662
-8.08806e-06
-9.16423e-05
0.00037169
-0.000398571
0.000203296
0.000306108
-8.30697e-05
-0.000142986
0.000226039
-2.12242e-06
0.000158669
0.000487726
-0.000599994
0.000109219
-0.000629263
9.98331e-05
0.000526494
-0.00025399
0.00012212
0.000131862
-0.00013224
-6.63316e-05
0.000198563
-0.000139908
4.94312e-05
9.04769e-05
-8.4829e-05
-5.49213e-05
0.00013975
0.000344295
-0.000162208
0.000119839
-0.000105782
-1.4058e-05
-0.000112363
-2.75459e-05
0.000259929
0.000182835
-0.000442854
-0.000288851
-3.30831e-05
0.000321816
-5.51498e-05
0.000126024
-7.08743e-05
0.000344925
-0.000435007
8.95324e-05
0.000191859
-1.41748e-06
-0.000190457
-0.000137251
0.000480152
-0.000168476
-5.53487e-06
0.00019048
-0.000187405
0.000295455
-1.10907e-05
-0.000284475
0.000110624
0.000290535
-0.000401721
-0.000544397
0.000518426
0.000193043
-9.74679e-05
-9.55828e-05
-0.000600502
0.000595425
2.11608e-06
3.06079e-05
6.82693e-05
0.000470482
6.36226e-05
-0.000140957
-8.53071e-05
0.000226245
1.7487e-05
-0.000113877
-9.05448e-05
-4.88842e-05
0.000139429
-0.000364755
0.000113407
0.00025126
3.4344e-06
-0.000292396
-6.81333e-06
8.86481e-05
-8.5014e-05
0.000179398
-0.000158743
-0.000611559
6.47768e-05
0.000540514
0.000363796
0.000142192
-0.000112722
-2.94706e-05
0.000279779
0.000109145
0.000455057
-0.000110853
2.53442e-05
0.000510031
-0.000118045
3.32161e-05
-0.000649236
0.000512036
7.04827e-05
6.09668e-05
-5.86248e-05
-6.88975e-05
0.000127522
0.000109873
0.000120217
-5.77669e-05
-2.36997e-06
0.000163939
5.97146e-06
-0.000169914
-9.67148e-05
-1.43242e-05
0.000111039
0.000148768
-5.13517e-05
0.000221033
-0.000306534
-0.000108878
0.000415135
0.000136301
1.6428e-05
-0.000152734
9.31329e-05
9.99012e-05
-0.000365486
0.000145542
5.4235e-05
0.000129493
-0.000190185
-0.000180968
0.00037094
0.000128138
-4.22741e-05
-8.58635e-05
-0.00021058
-2.79452e-05
0.000238506
0.00011024
-4.76568e-05
-0.000102203
-0.000450754
0.000366106
8.40196e-05
-0.000188555
1.67324e-05
-0.000119383
-0.000106967
0.000129959
-2.29919e-05
0.000261798
0.000458598
4.06462e-06
-0.000546778
0.000542764
2.40926e-06
-0.000104368
-9.15718e-05
0.00019593
-0.000156084
-6.08237e-05
0.000216897
-0.000265103
-0.000186055
0.000287199
-0.000283601
-9.28704e-06
-0.00020131
-0.000721886
0.000193189
0.000526258
0.000236314
-0.000137962
3.26272e-05
-0.000191362
0.000158713
-0.00011628
-7.18604e-05
0.000188137
-0.000149313
0.000596437
-0.000451114
-1.66769e-05
-0.000528039
-8.50499e-05
-0.000122933
-1.69621e-05
0.000139895
0.000101139
-0.000116235
1.50953e-05
-0.000199114
0.000303897
-0.00010489
-0.000199346
-0.000470906
0.000166968
-0.000173632
-9.06478e-05
-0.000104481
0.00019512
-0.000155689
-9.16148e-05
0.00024728
-4.69121e-05
0.000333988
-7.51837e-09
-0.000122926
7.21446e-05
3.27152e-05
-0.00010486
0.000400031
-2.70326e-05
-0.000373415
0.000377079
-0.000317504
-5.97759e-05
8.89651e-05
5.16861e-05
-0.000140653
0.000795091
-0.000536026
-0.000265033
-0.000438191
0.000420405
9.69528e-06
2.77786e-05
-0.000183485
-0.000299291
0.000153993
0.000145224
4.32705e-05
-0.000572951
0.00051989
0.000148635
-0.000196583
4.30072e-05
-0.000178276
-0.000438661
-4.40205e-05
-3.82117e-05
5.41754e-05
0.000405834
-0.000280977
-0.000125131
7.87127e-06
-6.40391e-05
0.000114504
-0.000260719
-0.000115532
0.000633494
-0.000154722
-0.000481306
-0.000115215
-1.38525e-05
-8.53013e-05
-0.000584235
0.000411695
0.000171798
-0.000196615
8.80302e-05
-0.00010486
1.68296e-05
-0.000450248
0.00034912
-0.000483973
-0.000100695
-4.81392e-05
-0.000212712
-9.68084e-05
-2.42468e-05
0.000121055
0.000112746
-0.000130807
1.80607e-05
7.4917e-05
-0.00025114
0.000176161
3.50568e-05
-9.37042e-05
-7.30791e-05
0.000149696
-0.000405098
0.000137032
0.000114657
-0.000251739
-2.4848e-05
0.000112878
-0.000141688
-4.02793e-05
0.000181964
0.000135041
0.000380923
-3.94227e-05
0.000128386
-0.000198282
0.000107794
9.04829e-05
-0.000133222
5.20193e-06
0.000128019
-0.000125325
0.000215837
-9.05271e-05
0.000282211
-0.000115139
-0.000167082
4.85174e-05
8.52982e-05
-7.55368e-05
0.000151159
-7.56219e-05
0.000152154
-9.28168e-05
-0.000207999
-0.00042381
-0.000117038
3.90123e-05
7.8026e-05
5.39943e-05
5.08655e-05
0.000131597
-0.000129171
-2.42681e-06
2.9613e-06
0.000128635
-4.26089e-05
0.000302519
-0.000126823
0.00027904
-0.000152281
-0.000399065
0.000150345
0.000248532
9.27081e-05
-6.26896e-05
0.000288741
-0.000126885
-0.00016187
0.000187423
-0.000189009
-2.89142e-05
-0.000262214
0.000131454
0.000439938
-0.000105829
-0.0003345
-0.000111144
-2.20777e-05
0.000108247
0.000138894
0.000649129
-0.000116834
-0.000387952
0.000277937
0.000109847
-7.5849e-05
-0.00031063
-0.00034647
7.02218e-05
3.49774e-07
-9.71582e-05
-4.61678e-05
0.000213126
-0.000193263
0.000501206
-0.000391306
0.000368461
8.58682e-05
7.74307e-05
4.23092e-05
-0.00011974
-0.000178154
0.000552955
-0.000184457
0.000421501
-2.19982e-05
0.000202109
-0.000250376
-9.49456e-05
-0.000293163
-1.90049e-06
2.99942e-05
0.000600418
0.00021042
-1.30334e-05
-0.000197403
-0.000202261
8.20003e-05
-0.000168454
-4.50461e-05
0.000213482
-0.000110165
-6.39656e-05
0.000141396
8.87101e-05
-0.000364414
-0.000113546
4.51195e-05
0.000136785
-0.000181914
-0.000632155
1.4394e-05
0.000607588
1.40586e-05
-0.00015575
0.000247317
-1.92607e-05
-0.000228089
-6.34656e-05
0.000127549
0.000272182
0.000167266
6.66286e-05
-0.000243328
8.82684e-05
0.000108257
8.04008e-05
7.86099e-05
-0.000159014
-0.000187605
-4.58643e-05
0.00023345
-5.52785e-05
-5.9228e-05
0.000114507
0.000261865
0.000161067
-0.000424176
-0.000143499
6.15766e-06
0.000123101
-5.59359e-05
-0.000406048
0.00016113
0.000244588
5.89834e-05
6.91542e-05
0.000383753
-0.000270932
-0.000113082
2.87189e-05
-0.0001223
9.35805e-05
0.000286089
9.07183e-05
0.000320355
-0.000165701
-0.000192512
-4.15245e-05
0.000234018
0.000218573
-6.38236e-05
-0.000154757
0.000184541
0.000445964
-2.27786e-05
-0.000373053
0.000395228
-0.000180598
-0.000118751
-0.000319708
0.000494296
-0.000542333
4.40476e-05
-0.000255401
5.619e-05
0.000141083
-0.000137668
-3.41547e-06
0.00031465
0.000300835
-0.000342052
0.000308849
-9.61864e-05
-1.71611e-05
0.000113347
-0.000474672
6.79042e-05
0.000405808
-0.000173319
0.000107232
6.60839e-05
0.000246892
2.43895e-05
-0.000271397
0.00014599
-3.32451e-05
-0.000335377
-0.000100168
0.000156311
0.00013703
-3.94518e-05
0.00015929
-0.000180168
-0.000239681
-9.56103e-05
0.00033517
1.26532e-07
-0.000107093
-0.000116642
-7.64113e-06
0.000171576
-0.000307654
-0.000416705
-9.19557e-06
0.000219598
0.0003663
-4.64257e-05
-0.000320107
-0.000195819
0.000262392
-7.4025e-05
0.000580605
-0.000512697
5.24299e-05
5.24299e-05
0.000147943
-6.89282e-05
-7.90154e-05
0.000143372
5.8711e-06
-0.000149246
0.000437108
-6.9364e-05
-0.000201816
-0.000136594
-5.67161e-05
0.000193304
-1.63736e-05
0.000117513
-0.000182641
0.000591852
-0.000423806
-3.65086e-05
-8.05298e-05
-0.000138029
-7.029e-05
0.00020831
8.12594e-05
-0.000128448
4.71884e-05
0.000105497
-0.000295855
0.000188408
-0.000134741
-5.36702e-05
0.000595154
-0.000411753
-0.000184679
-1.85389e-05
3.02703e-05
-0.00010486
2.51154e-05
-8.85766e-05
0.000169192
-8.06199e-05
0.000556825
-0.000441634
0.000113819
-0.000314501
-6.16133e-05
-0.000280548
0.000574661
-0.000163585
-0.000427292
6.7601e-05
8.03408e-05
-0.000250515
0.000123633
-5.04516e-06
0.000252327
0.000304947
9.50202e-05
-0.000400602
0.000475391
-0.000215062
-0.000353062
-0.00019572
0.000548755
-9.01643e-05
0.000170562
-0.000721237
0.000563458
-0.000557474
0.000204468
-0.000171034
6.35722e-05
0.00010746
-8.66902e-06
0.000149751
-0.000267197
0.00041731
-0.00018828
7.91401e-05
0.000109134
-0.000532771
-4.20565e-05
-1.10353e-05
0.000422408
-0.000124423
-0.000351151
-0.000196415
0.000237759
5.9627e-05
-0.000297514
0.000413149
-0.000561717
0.000145462
-3.60785e-05
0.000456303
-0.000421637
0.000134653
7.09162e-05
0.000577717
-0.000175264
-0.000403953
7.52404e-05
4.56142e-05
-0.000120855
0.000548578
-0.000346377
-0.000211331
-0.000366454
0.000421114
-5.51878e-05
-0.000101189
0.000129826
0.000340237
-0.000191548
-0.000148761
0.00016248
2.08206e-05
-0.000220939
-3.05945e-05
0.00039901
-0.000374195
-0.000134421
0.000438742
-0.000217494
0.000597977
-0.000383079
0.00017701
-4.37772e-05
-0.000133237
8.49446e-05
5.53411e-05
-0.000140287
2.49355e-05
-0.000331705
3.07832e-05
-9.08491e-05
6.00658e-05
0.000311822
-0.00052591
3.83197e-05
0.000482017
-9.23043e-05
-3.13167e-05
0.000123621
-0.000100017
-9.67706e-05
-0.000182256
0.000278963
0.00022451
0.000285368
-0.000511639
5.4925e-05
9.7619e-05
0.000228087
-1.50177e-05
0.000117988
-0.000102972
-0.000102996
-0.000450379
-0.000300627
0.000417861
-0.000117519
-0.000200655
0.000113149
0.000218711
-0.000332092
7.00201e-05
8.11383e-05
9.14453e-06
-0.000145743
-3.30482e-05
0.000176417
-0.000159869
0.000354412
-0.000194914
-0.000181338
-0.000649992
0.000598271
4.87661e-05
-0.000113349
-0.000114259
0.000361007
0.000130141
-0.000132276
-5.72236e-05
0.000423235
0.00028913
0.000172564
0.000167572
0.000157835
2.67287e-05
-7.15282e-05
4.7245e-05
5.94251e-05
-0.00010667
-0.000113255
2.09507e-05
0.000150899
-7.56596e-05
7.03885e-05
-0.000100983
3.05941e-05
-8.60907e-05
0.000112127
-1.70294e-05
-9.50982e-05
-0.000165312
-0.00013663
0.000378297
-0.000241794
4.00156e-06
-0.000283837
0.000277472
-0.000126476
-4.68454e-05
-0.000580587
-6.76835e-05
-8.67461e-05
0.000576714
-0.00034439
0.000114041
0.000230254
-0.000128434
-5.43327e-06
0.000133867
0.000480969
-0.000424215
-5.77791e-05
0.000299409
0.000175412
-0.000475387
-7.09072e-06
0.000165556
-0.000158489
0.000178298
-0.000279099
0.000100711
1.85672e-05
0.000481069
-0.000500003
-0.00012922
0.000152966
-2.37473e-05
-0.000217344
-0.000356713
0.00056962
-5.81793e-05
-7.25184e-05
0.000130697
-1.62187e-05
0.000193224
-0.000536631
0.000418195
-1.104e-05
0.000423521
-0.000413652
-8.7418e-05
-0.000103544
0.000190953
-0.000156563
-0.000617375
0.000125038
1.71452e-05
-0.000142185
-0.000139786
1.33083e-05
-0.000699761
0.000103915
0.000587403
-6.91067e-05
-6.0855e-05
0.000129962
0.000188211
-8.10102e-05
-0.000111521
-0.000102221
0.000213725
-0.000382288
0.000221969
0.000160434
-9.68635e-05
-7.29371e-05
0.000126125
-5.31875e-05
-0.000268668
-0.000437605
0.000205493
-0.000141519
-6.39805e-05
-0.000107754
-0.000482875
0.000587988
-0.000557919
-0.000123683
-3.97903e-05
0.000163471
0.000104186
-7.54671e-05
-0.000111363
-0.00022683
0.000338
-8.1196e-05
0.000318819
0.000556168
-3.78698e-05
-0.000519064
0.000221605
2.77718e-05
-0.000249444
-6.10177e-05
0.000133887
-9.00482e-05
-3.84207e-05
0.000128469
-0.000529125
-6.50732e-05
0.00058818
3.35619e-05
5.95877e-05
-9.31496e-05
-0.000133226
-0.000468864
-0.000285575
-0.000303023
-0.000115148
0.000417754
0.00036109
-0.000557167
-0.00044639
0.000200306
-4.53793e-05
-8.68062e-05
0.000132185
9.53674e-05
0.000123194
-0.000114486
0.000437488
4.23174e-05
0.000549229
-8.19691e-06
-0.000103708
-3.84113e-05
0.000142119
-0.00038051
0.000298905
7.77175e-05
-0.000189107
0.000238095
-4.90073e-05
-0.000361413
-2.39969e-05
0.000384861
-0.000149067
-0.00022419
0.000372974
-0.000215032
0.000417449
-0.000202696
-8.26126e-05
-5.47009e-05
0.000137313
-4.81522e-05
0.000120297
-0.000400587
3.46992e-05
0.000365307
4.47555e-05
7.83452e-05
-0.000518389
0.000421724
9.51873e-05
-0.00029988
0.00017219
0.000127626
-7.66359e-05
0.000138369
7.43145e-05
5.54315e-05
0.000356874
0.000158004
-0.000516927
-0.000458848
0.000235127
2.14879e-05
1.42532e-05
-0.00010106
-0.00019885
8.14352e-05
0.000117408
0.000283202
-6.16744e-05
9.52742e-05
-0.000110293
3.09819e-05
-0.000334387
0.000400108
-0.000114271
9.243e-05
4.97612e-05
-8.73746e-05
0.000161554
-7.41809e-05
0.000189969
2.946e-05
-0.000219446
5.9631e-05
-0.000117811
0.000189657
-2.78057e-06
-0.000186886
-0.00013015
7.60556e-05
5.40938e-05
-0.0001363
-0.000355576
0.000490186
4.66795e-05
-0.000152919
0.000107104
8.13e-05
-2.67063e-05
0.000471022
-0.000449614
-5.03281e-05
0.000109613
-7.91818e-05
0.000156485
-7.73044e-05
-0.000113964
-0.000283584
6.35896e-06
0.000485182
-0.000493494
-8.14291e-05
0.000112212
0.00017154
5.68218e-05
-0.000228399
0.000107107
2.34061e-05
-0.000130514
-0.000319844
-0.00040394
-4.24176e-05
5.12755e-05
-2.24528e-05
0.000322796
6.61994e-05
-0.000389083
-0.000135945
0.000314139
9.73472e-05
0.000441464
-0.000115563
2.59533e-05
-8.18166e-05
-6.18268e-06
0.000195829
0.000272545
0.000142987
-0.000415917
-0.000242342
4.64735e-05
0.000275139
0.00034845
-0.00038243
0.000400709
-0.00026394
0.000333717
-6.98752e-05
0.000100411
-6.68494e-05
-0.000187481
-0.000140125
0.000327485
-0.000111559
-0.000332503
-0.000495269
-8.28343e-06
0.000490443
0.000450199
-0.000559947
0.000102892
-0.000278442
0.000115197
0.00035468
-0.000391965
0.000235497
-1.02124e-05
-0.000225313
2.33459e-05
0.000392442
-0.000416634
0.000162412
-0.000259246
-0.000139635
0.00018631
0.000368675
-1.50881e-05
-0.000355484
-7.15827e-05
-4.57297e-05
0.000117312
-0.000131373
0.000121662
-4.74586e-05
-0.000200291
0.00024772
-6.97197e-05
0.000114475
-0.000106733
0.000145765
-3.9033e-05
0.000321342
0.000152672
-4.55658e-05
0.000174948
-0.000182065
-0.000128225
-8.6475e-05
0.000214689
4.51256e-05
-0.000124308
0.000613059
-8.70512e-05
-0.000531207
-2.71764e-05
-0.000102045
-0.000121289
-0.000234381
-0.000171964
0.00012655
-5.61613e-05
-0.000186749
0.00011015
7.65944e-05
-0.000180539
-0.000459071
-1.26507e-05
0.000248115
0.000555768
-7.09952e-05
-7.73507e-05
-5.27994e-05
3.35818e-05
-9.80051e-05
6.44233e-05
0.00064539
-0.000305436
-0.000341589
-7.61166e-05
-0.000110365
0.000160658
-5.02947e-05
2.05328e-05
0.0001059
-0.000129388
-0.000141913
0.000159935
2.27932e-05
-0.000201842
3.49289e-05
-0.000106512
-9.76775e-05
-6.34186e-05
0.000161094
-0.000128094
-0.000356133
-0.000160297
-7.46411e-05
0.000234919
0.000447922
0.000128176
0.000373022
0.000181911
-0.000555544
0.000167585
-1.42431e-05
-0.000153346
-0.000201838
6.91682e-05
0.000137081
-0.000206266
-0.000612462
0.000463978
0.000129594
0.000154953
-0.000122342
-0.00016297
0.000267465
-0.000104549
-0.000285269
0.000121482
0.00016371
-0.000231769
0.000430426
-0.000198849
-0.000273817
0.000476304
-9.04391e-05
0.000261935
7.29994e-05
0.000249708
8.79337e-05
0.000120159
0.000317708
-0.000144716
-0.000188657
0.000298661
-3.78356e-05
0.000227784
-2.72059e-05
0.000145192
0.00016878
-9.8915e-05
0.000142638
-2.15699e-05
-0.000121069
0.000173214
-4.81785e-05
-6.30099e-06
0.000182521
7.93046e-05
-0.000126261
4.69563e-05
0.000354331
-0.000263154
-9.12896e-05
-0.000142118
1.84329e-05
-0.000196844
-0.000582075
0.000449689
0.000128379
0.000254062
0.000145765
3.94183e-05
0.000129354
0.000424274
-0.000185545
-0.000239136
0.000589253
2.51836e-05
-6.45836e-06
-0.000554973
0.000554874
-0.000160074
-9.12258e-05
0.000251269
-0.000106176
5.08975e-05
3.93744e-05
-0.000406301
4.73094e-05
-0.000116207
-0.000535118
2.57678e-05
-0.000150211
5.25319e-05
0.000180466
-8.3455e-06
-0.000172134
8.00118e-05
-0.00010486
-0.000245752
0.00023307
-0.000396875
6.09905e-05
-0.000409945
0.000425656
0.000127567
-4.7555e-05
0.00018512
-0.000115965
0.000128919
0.000225277
-0.000145297
0.000219929
0.000253589
4.64152e-05
0.000114222
-0.00016064
-0.000207558
-0.000204687
0.000198493
-0.000207294
0.000405282
-0.000198265
0.000107371
6.6505e-05
-0.000173883
0.000341324
0.000252754
-0.000139242
0.000487614
-0.000304923
-0.000286444
0.000658807
-5.39163e-05
0.000132442
-7.85257e-05
2.92077e-05
-9.51705e-05
-3.12481e-05
0.000198827
-0.00012067
-2.7848e-05
-0.000217932
-8.32047e-05
-4.35475e-05
0.000126752
9.59288e-05
-5.40041e-05
-2.34884e-05
-0.000181209
-0.000174566
4.63321e-05
0.000140462
0.000180838
0.00040339
-0.000509568
0.000492594
0.000703356
-0.000351509
-0.000368079
0.000554683
-0.000111592
-5.60359e-05
0.000145364
0.000123791
-0.000269217
0.000248673
-0.000173362
-7.53272e-05
9.79597e-05
-0.000260971
0.000164705
-6.86472e-05
0.000332081
-0.000455061
0.000122106
-0.000119189
-5.13865e-05
5.13865e-05
5.65737e-05
7.5262e-05
-0.000321742
0.000143448
0.000178163
-7.19179e-05
1.91282e-05
0.000501993
-0.000501941
-4.82442e-07
-0.000120726
-1.49403e-05
0.000135666
-0.000432784
5.27647e-05
0.000169771
-0.000133611
-3.61619e-05
-0.00010764
0.000152765
0.000149822
0.000235773
-2.47618e-05
-0.000211054
-0.000578213
0.00058301
-1.2631e-05
-0.000137212
6.05681e-05
0.000442553
-0.000193826
-0.000249134
-0.000453472
2.82762e-05
-0.000153882
-0.000403269
0.000403564
-8.64389e-07
-0.000538166
0.000172496
0.000628491
-0.000454009
-0.000178935
0.000317756
-0.000166777
-0.000151104
-7.8212e-05
-4.38763e-05
0.000122088
-0.000427975
0.000180836
0.000246775
-0.000119874
-0.000277129
0.000396736
3.05897e-05
-0.000168628
2.53244e-05
-0.000115373
-0.000175796
-0.000157899
0.000408895
-0.000208021
-0.000201155
-6.62609e-05
0.000143639
-7.73789e-05
0.000312663
0.00037287
9.01202e-05
-0.000126365
0.000121508
-3.96855e-06
-0.000480033
0.000303489
-0.000127636
0.000171836
-4.42037e-05
-0.000262969
1.26448e-05
0.000250283
0.000240428
-0.000107009
0.000157602
-0.000239339
8.17062e-05
-0.000283196
-0.000109655
-0.000193293
0.000301946
-4.53472e-05
4.53472e-05
-0.000168885
-0.00013105
0.000335652
-0.000473632
-0.000204706
9.48566e-05
0.000204698
0.000181505
-0.000386687
0.000169115
-0.000173178
4.05426e-06
0.000340743
4.14002e-05
-0.00039542
-9.0466e-05
-0.000107479
0.000197935
0.000153645
-5.24546e-05
-0.000140041
0.000192493
0.000235574
-7.80011e-05
-0.000143415
0.000101037
4.23777e-05
-0.000287452
0.000157495
-3.99315e-07
-0.000153477
-8.45467e-05
0.000238004
-0.000140977
0.000514026
-0.000384556
-0.000363068
0.000339743
0.000166342
-2.3705e-05
-0.000102858
0.000145167
-0.000114552
5.81418e-05
8.5497e-05
-0.000632566
8.43167e-05
0.000546043
0.000242716
0.000400764
-2.94262e-05
-0.000172891
0.000202287
-0.000190089
-0.000271682
0.000460972
-0.000602289
0.000611471
-1.56673e-05
-0.000124444
6.13373e-05
7.84818e-05
-0.00018286
-0.000111933
4.57302e-05
6.62024e-05
-0.000202126
-3.03425e-05
-0.000232663
0.000312572
0.000241082
-0.000554244
-0.0005949
0.000141912
8.55208e-05
7.44105e-05
-0.000159934
-0.00024156
0.000236481
-4.36723e-05
-0.000171305
0.00019783
-2.72373e-05
0.000174477
-0.000103411
-9.9792e-05
0.000207619
-0.00010784
-7.49905e-05
0.000140217
-0.000555182
3.54918e-06
0.000255638
-0.000268073
2.72173e-05
-0.000105429
0.000218877
-0.000450849
0.000390057
-0.000231999
-0.000158321
0.000468019
8.76036e-05
-0.000111111
-2.43798e-05
0.00013549
9.5292e-06
6.66675e-05
-3.8269e-05
0.000116614
0.000517351
-0.00058048
6.1634e-05
0.000226377
-0.000116523
-0.000154099
-0.000182957
0.00033688
4.07551e-05
0.000166189
-0.000206971
-0.000327396
0.000105096
-0.000519734
-0.000103811
0.00038944
-0.000286316
-8.99462e-05
-0.000259307
0.000331825
0.000184614
-0.00012395
-6.067e-05
-0.000518249
0.00019593
0.000321885
5.1477e-05
7.84815e-05
-0.000483279
0.000261748
0.000220238
1.35244e-05
-0.000140631
0.000127104
0.000136996
-9.0902e-05
-4.60938e-05
-0.000373389
0.000155749
0.000217361
0.000277116
-9.25524e-05
-0.000202282
0.000139951
-8.45041e-05
-5.5447e-05
-9.105e-05
0.000148097
-5.70479e-05
-7.28909e-05
-0.000328201
-0.000242038
0.000254642
-0.000547645
3.75195e-05
7.99843e-05
-0.00010486
2.48755e-05
-0.000104471
-0.000481378
0.000150382
-0.00011097
-0.000103051
0.000554122
-0.000455726
0.000175563
-0.000278824
2.21135e-05
0.000147656
-0.000324131
0.000386847
-0.000423033
-3.55358e-05
-0.000263166
0.000123463
-8.01207e-05
-4.33425e-05
-0.000141992
7.23813e-05
6.96104e-05
2.91916e-05
-0.000139557
0.000725493
-0.000472213
0.000120046
-4.07415e-05
-0.000537288
0.000384573
-8.73988e-06
0.000332836
0.000235561
0.000352886
-0.00011131
-0.000182173
0.000205794
1.6487e-05
-0.000224715
-6.91064e-05
0.000147737
-7.86315e-05
-8.11991e-05
0.000157807
-7.66094e-05
-0.00011608
-0.000486897
-8.5452e-05
-9.7194e-06
0.000226968
-0.000338515
0.000518671
-1.65303e-05
5.02699e-05
8.9681e-05
-0.000199359
-6.54018e-05
-8.07193e-05
0.000129236
0.000233302
-0.000337744
-0.000103445
0.000449804
-0.000481603
0.000334641
-0.000189112
0.000215576
-3.51279e-05
0.000667472
-6.04618e-05
-0.000121742
-1.02115e-05
-0.000140443
-5.03269e-05
0.000190766
9.43381e-05
-6.07563e-05
-7.3503e-05
0.000309216
-6.02318e-05
7.68048e-05
-0.000235304
0.000158437
0.000114669
0.000475832
-0.000146312
0.000333655
-0.000187492
-1.13274e-05
-0.000230748
6.30481e-05
4.32274e-05
-0.000106276
0.000248935
0.0001566
9.61519e-05
-0.000168794
7.26394e-05
-2.15791e-05
-0.000220011
0.000198281
-5.39578e-05
-9.85479e-05
0.000134748
-3.62004e-05
-0.000111653
1.31047e-05
-0.000111458
7.18281e-05
3.96295e-05
-8.25646e-05
-9.67691e-05
-5.82734e-05
0.00015504
0.000438198
-8.41866e-05
-9.27102e-06
0.000145568
0.000187719
-0.000104097
-8.36251e-05
0.000176006
0.000247806
5.83722e-05
9.80485e-05
0.00010058
1.71384e-05
-0.000117719
0.000312006
0.000135889
-0.00044881
7.66333e-05
0.000181636
0.000567049
-0.000212136
-0.000215072
0.000526003
-0.000116544
8.34216e-05
0.00059029
-4.5886e-05
-0.000551966
-0.00032162
0.000175164
-9.74135e-05
0.0001149
-0.000480241
0.000416424
6.27969e-05
0.000128589
-5.9411e-05
-0.000442081
0.000120946
0.000320761
-0.000247363
0.000116348
0.000130976
0.000143168
-0.000103117
-4.00519e-05
-0.00039446
-8.84617e-05
-0.000110395
-4.42853e-05
-0.000223187
0.000267223
-0.000157899
-0.000215746
-9.11637e-05
-5.08288e-05
0.000467021
-0.000172139
0.000216678
-4.45472e-05
-0.000129038
8.82683e-05
3.51944e-05
0.000576785
-0.000121122
-0.000458531
-0.000112391
5.37689e-05
5.86219e-05
0.000410533
-0.000249738
-4.55081e-05
0.000110296
-6.47881e-05
4.72887e-05
6.00494e-05
-0.000107338
-5.62799e-05
-5.6111e-05
-0.000360553
0.000221302
0.000139117
-0.000556998
0.000447157
0.000108367
-0.000494297
-0.000140454
-0.000109204
-2.50421e-05
0.000131468
0.000160929
-0.000142438
0.000571086
-0.000430517
-6.2783e-05
-0.000247546
0.000383536
-0.000383032
0.000142508
0.000240369
-0.000293074
0.000117256
0.000324803
0.000112891
0.000176518
0.000539879
0.000433703
-0.000259743
-0.000174552
-0.000187101
-0.000265413
0.000452091
0.000323099
-0.000335062
-0.000345954
-6.16921e-05
0.000102766
-0.000130827
2.80603e-05
0.000186407
-0.000107425
-7.89875e-05
-0.000391425
0.00024459
0.000146481
-0.000180728
0.000282129
-0.000101483
-6.35787e-05
0.000164158
-0.000239426
0.00011923
-0.000114028
-0.000207378
0.000502407
-0.000136982
0.000347536
-0.000210734
-0.00038084
-0.000137726
0.000594831
-0.000144424
-0.000453917
-0.000245776
-6.84208e-05
0.000314097
-0.000506018
-2.50195e-05
0.000613794
-3.23404e-05
0.000182554
9.96397e-05
-0.000494559
-4.62056e-05
-2.37994e-05
0.000192907
-8.70475e-05
0.00044043
-5.45316e-05
0.000104422
-4.98899e-05
-0.000103242
-7.21014e-05
0.00017534
-0.000190464
7.62953e-05
0.000114159
0.00012221
8.32746e-05
-0.000573316
8.43496e-05
0.00048573
-0.000121626
9.88193e-05
0.000102863
-0.000201697
-9.98727e-06
-0.000373004
0.000491783
-0.000316977
0.000138059
-1.88293e-05
0.00022155
0.000194494
-0.000416331
0.000199219
0.000163183
-0.000149128
2.65154e-05
-0.000122702
-6.16766e-05
-0.000207541
0.000269177
-0.000539259
0.000470065
6.6577e-05
6.6155e-05
0.000190258
-2.70789e-05
-0.000136561
-0.000279692