/*--------------------------------*- C++ -*----------------------------------*\
| =========                 |                                                 |
| \\      /  F ield         | OpenFOAM: The Open Source CFD Toolbox           |
|  \\    /   O peration     | Version:  v2012                                 |
|   \\  /    A nd           | Website:  www.openfoam.com                      |
|    \\/     M anipulation  |                                                 |
\*---------------------------------------------------------------------------*/
FoamFile
{
    version     2.0;
    format      ascii;
    class       pointVectorField;
    location    "800";
    object      pointDisplacement;
}
// * * * * * * * * * * * * * * * * * * * * * * * * * * * * * * * * * * * * * //

dimensions      [0 1 0 0 0 0 0];


internalField   nonuniform List<vector> 
14246
(
(0 0 0)
(-0 -0.069286 -0)
(0 0 0)
(-0 -0.069286 -0)
(0 0 0)
(0 0 0)
(0 0 0)
(0 0 0)
(0 0 0)
(0 0 0)
(0 0 0)
(0 0 0)
(0 0 0)
(0 0 0)
(0 0 0)
(0 0 0)
(0 0 0)
(0 0 0)
(0 0 0)
(0 0 0)
(0 0 0)
(0 0 0)
(0 0 0)
(0 0 0)
(0 0 0)
(0 0 0)
(0 0 0)
(0 0 0)
(0 0 0)
(0 0 0)
(0 0 0)
(0 0 0)
(0 0 0)
(0 0 0)
(0 0 0)
(0 0 0)
(0 0 0)
(0 0 0)
(0 0 0)
(0 0 0)
(0 0 0)
(0 0 0)
(0 0 0)
(0 0 0)
(0 0 0)
(0 0 0)
(0 0 0)
(0 0 0)
(0 0 0)
(0 0 0)
(0 0 0)
(0 0 0)
(0 0 0)
(0 0 0)
(0 0 0)
(0 0 0)
(0 0 0)
(0 0 0)
(0 0 0)
(0 0 0)
(0 0 0)
(0 0 0)
(0 0 0)
(0 0 0)
(0 0 0)
(0 0 0)
(0 0 0)
(0 0 0)
(0 0 0)
(0 0 0)
(0 0 0)
(0 0 0)
(0 0 0)
(0 0 0)
(0 0 0)
(-0 -0.069286 -0)
(-0 -0.069286 -0)
(-0 -0.069286 -0)
(-0 -0.069286 -0)
(-0 -0.069286 -0)
(-0 -0.069286 -0)
(-0 -0.069286 -0)
(-0 -0.069286 -0)
(-0 -0.069286 -0)
(-0 -0.069286 -0)
(-0 -0.069286 -0)
(-0 -0.069286 -0)
(-0 -0.069286 -0)
(-0 -0.069286 -0)
(-0 -0.069286 -0)
(-0 -0.069286 -0)
(-0 -0.069286 -0)
(-0 -0.069286 -0)
(-0 -0.069286 -0)
(-0 -0.069286 -0)
(-0 -0.069286 -0)
(-0 -0.069286 -0)
(-0 -0.069286 -0)
(-0 -0.069286 -0)
(-0 -0.069286 -0)
(-0 -0.069286 -0)
(-0 -0.069286 -0)
(-0 -0.069286 -0)
(-0 -0.069286 -0)
(-0 -0.069286 -0)
(-0 -0.069286 -0)
(-0 -0.069286 -0)
(-0 -0.069286 -0)
(-0 -0.069286 -0)
(-0 -0.069286 -0)
(-0 -0.069286 -0)
(-0 -0.069286 -0)
(-0 -0.069286 -0)
(-0 -0.069286 -0)
(-0 -0.069286 -0)
(-0 -0.069286 -0)
(-0 -0.069286 -0)
(-0 -0.069286 -0)
(-0 -0.069286 -0)
(-0 -0.069286 -0)
(-0 -0.069286 -0)
(-0 -0.069286 -0)
(-0 -0.069286 -0)
(-0 -0.069286 -0)
(-0 -0.069286 -0)
(-0 -0.069286 -0)
(-0 -0.069286 -0)
(-0 -0.069286 -0)
(-0 -0.069286 -0)
(-0 -0.069286 -0)
(-0 -0.069286 -0)
(-0 -0.069286 -0)
(-0 -0.069286 -0)
(-0 -0.069286 -0)
(-0 -0.069286 -0)
(-0 -0.069286 -0)
(-0 -0.069286 -0)
(-0 -0.069286 -0)
(-0 -0.069286 -0)
(-0 -0.069286 -0)
(-0 -0.069286 -0)
(-0 -0.069286 -0)
(-0 -0.069286 -0)
(-0 -0.069286 -0)
(-0 -0.069286 -0)
(-0 -0.069286 -0)
(-0 -0.069286 -0)
(-0 -0.069286 -0)
(-0 -0.069286 -0)
(-0 -0.069286 -0)
(-0 -0.069286 -0)
(-0 -0.069286 -0)
(-0 -0.069286 -0)
(-0 -0.069286 -0)
(-0 -0.069286 -0)
(-0 -0.069286 -0)
(-0 -0.069286 -0)
(-0 -0.069286 -0)
(-0 -0.069286 -0)
(-0 -0.069286 -0)
(-0 -0.069286 -0)
(-0 -0.069286 -0)
(-0 -0.069286 -0)
(-0 -0.069286 -0)
(-0 -0.069286 -0)
(-0 -0.069286 -0)
(-0 -0.069286 -0)
(-0 -0.069286 -0)
(-0 -0.069286 -0)
(-0 -0.069286 -0)
(-0 -0.069286 -0)
(-0 -0.069286 -0)
(-0 -0.069286 -0)
(-0 -0.069286 -0)
(-0 -0.069286 -0)
(-0 -0.069286 -0)
(-0 -0.069286 -0)
(-0 -0.069286 -0)
(-0 -0.069286 -0)
(-0 -0.069286 -0)
(-0 -0.069286 -0)
(-0 -0.069286 -0)
(-0 -0.069286 -0)
(-0 -0.069286 -0)
(-0 -0.069286 -0)
(-0 -0.069286 -0)
(-0 -0.069286 -0)
(-0 -0.069286 -0)
(-0 -0.069286 -0)
(-0 -0.069286 -0)
(-0 -0.069286 -0)
(-0 -0.069286 -0)
(-0 -0.069286 -0)
(-0 -0.069286 -0)
(-0 -0.069286 -0)
(-0 -0.069286 -0)
(-0 -0.069286 -0)
(-0 -0.069286 -0)
(-0 -0.069286 -0)
(-0 -0.069286 -0)
(-0 -0.069286 -0)
(-0 -0.069286 -0)
(-0 -0.069286 -0)
(-0 -0.069286 -0)
(-0 -0.069286 -0)
(-0 -0.069286 -0)
(-0 -0.069286 -0)
(-0 -0.069286 -0)
(-0 -0.069286 -0)
(-0 -0.069286 -0)
(0 0 0)
(0 0 0)
(0 0 0)
(0 0 0)
(0 0 0)
(0 0 0)
(0 0 0)
(0 0 0)
(0 0 0)
(0 0 0)
(0 0 0)
(0 0 0)
(0 0 0)
(0 0 0)
(0 0 0)
(0 0 0)
(0 0 0)
(0 0 0)
(0 0 0)
(0 0 0)
(0 0 0)
(0 0 0)
(0 0 0)
(0 0 0)
(0 0 0)
(0 0 0)
(0 0 0)
(0 0 0)
(0 0 0)
(0 0 0)
(0 0 0)
(0 0 0)
(0 0 0)
(0 0 0)
(0 0 0)
(0 0 0)
(0 0 0)
(0 0 0)
(0 0 0)
(0 0 0)
(0 0 0)
(0 0 0)
(0 0 0)
(0 0 0)
(0 0 0)
(0 0 0)
(0 0 0)
(0 0 0)
(0 0 0)
(0 0 0)
(0 0 0)
(0 0 0)
(0 0 0)
(0 0 0)
(0 0 0)
(0 0 0)
(0 0 0)
(0 0 0)
(0 0 0)
(0 0 0)
(0 0 0)
(0 0 0)
(0 0 0)
(0 0 0)
(0 0 0)
(0 0 0)
(0 0 0)
(0 0 0)
(0 0 0)
(0 0 0)
(0 0 0)
(-0 -0.069286 -0)
(-0 -0.069286 -0)
(-0 -0.069286 -0)
(-0 -0.069286 -0)
(-0 -0.069286 -0)
(-0 -0.069286 -0)
(-0 -0.069286 -0)
(-0 -0.069286 -0)
(-0 -0.069286 -0)
(-0 -0.069286 -0)
(-0 -0.069286 -0)
(-0 -0.069286 -0)
(-0 -0.069286 -0)
(-0 -0.069286 -0)
(-0 -0.069286 -0)
(-0 -0.069286 -0)
(-0 -0.069286 -0)
(-0 -0.069286 -0)
(-0 -0.069286 -0)
(-0 -0.069286 -0)
(-0 -0.069286 -0)
(-0 -0.069286 -0)
(-0 -0.069286 -0)
(-0 -0.069286 -0)
(-0 -0.069286 -0)
(-0 -0.069286 -0)
(-0 -0.069286 -0)
(-0 -0.069286 -0)
(-0 -0.069286 -0)
(-0 -0.069286 -0)
(-0 -0.069286 -0)
(-0 -0.069286 -0)
(-0 -0.069286 -0)
(-0 -0.069286 -0)
(-0 -0.069286 -0)
(-0 -0.069286 -0)
(-0 -0.069286 -0)
(-0 -0.069286 -0)
(-0 -0.069286 -0)
(-0 -0.069286 -0)
(-0 -0.069286 -0)
(-0 -0.069286 -0)
(-0 -0.069286 -0)
(-0 -0.069286 -0)
(-0 -0.069286 -0)
(-0 -0.069286 -0)
(-0 -0.069286 -0)
(-0 -0.069286 -0)
(-0 -0.069286 -0)
(-0 -0.069286 -0)
(-0 -0.069286 -0)
(-0 -0.069286 -0)
(-0 -0.069286 -0)
(-0 -0.069286 -0)
(-0 -0.069286 -0)
(-0 -0.069286 -0)
(-0 -0.069286 -0)
(-0 -0.069286 -0)
(-0 -0.069286 -0)
(-0 -0.069286 -0)
(-0 -0.069286 -0)
(-0 -0.069286 -0)
(-0 -0.069286 -0)
(-0 -0.069286 -0)
(-0 -0.069286 -0)
(-0 -0.069286 -0)
(-0 -0.069286 -0)
(-0 -0.069286 -0)
(-0 -0.069286 -0)
(-0 -0.069286 -0)
(-0 -0.069286 -0)
(-0 -0.069286 -0)
(-0 -0.069286 -0)
(-0 -0.069286 -0)
(-0 -0.069286 -0)
(-0 -0.069286 -0)
(-0 -0.069286 -0)
(-0 -0.069286 -0)
(-0 -0.069286 -0)
(-0 -0.069286 -0)
(-0 -0.069286 -0)
(-0 -0.069286 -0)
(-0 -0.069286 -0)
(-0 -0.069286 -0)
(-0 -0.069286 -0)
(-0 -0.069286 -0)
(-0 -0.069286 -0)
(-0 -0.069286 -0)
(-0 -0.069286 -0)
(-0 -0.069286 -0)
(-0 -0.069286 -0)
(-0 -0.069286 -0)
(-0 -0.069286 -0)
(-0 -0.069286 -0)
(-0 -0.069286 -0)
(-0 -0.069286 -0)
(-0 -0.069286 -0)
(-0 -0.069286 -0)
(-0 -0.069286 -0)
(-0 -0.069286 -0)
(-0 -0.069286 -0)
(-0 -0.069286 -0)
(-0 -0.069286 -0)
(-0 -0.069286 -0)
(-0 -0.069286 -0)
(-0 -0.069286 -0)
(-0 -0.069286 -0)
(-0 -0.069286 -0)
(-0 -0.069286 -0)
(-0 -0.069286 -0)
(-0 -0.069286 -0)
(-0 -0.069286 -0)
(-0 -0.069286 -0)
(-0 -0.069286 -0)
(-0 -0.069286 -0)
(-0 -0.069286 -0)
(-0 -0.069286 -0)
(-0 -0.069286 -0)
(-0 -0.069286 -0)
(-0 -0.069286 -0)
(-0 -0.069286 -0)
(-0 -0.069286 -0)
(-0 -0.069286 -0)
(-0 -0.069286 -0)
(-0 -0.069286 -0)
(-0 -0.069286 -0)
(-0 -0.069286 -0)
(-0 -0.069286 -0)
(-0 -0.069286 -0)
(-0 -0.069286 -0)
(-0 -0.069286 -0)
(-0 -0.069286 -0)
(-0 -0.069286 -0)
(-0 -0.069286 -0)
(-0 -0.069286 -0)
(0 -0.0692859 0)
(0 -0.0692859 0)
(0 -0.0692859 0)
(0 -0.0692859 0)
(0 -0.0692859 0)
(0 -0.0692859 0)
(0 -0.0692859 0)
(0 -0.0692859 0)
(0 -0.0692859 0)
(0 -0.0692859 0)
(0 -0.0692859 0)
(0 -0.0692859 0)
(0 -0.0692859 0)
(0 -0.0692859 0)
(0 -0.0692859 0)
(0 -0.0692859 0)
(0 -0.0036907 0)
(0 -0.00415641 0)
(0 -0.00449449 0)
(0 -0.0055777 0)
(0 -0.00502227 0)
(0 -0.00598392 0)
(0 -0.00477313 0)
(0 -0.0692859 0)
(0 -0.00324931 0)
(0 -0.00330309 0)
(0 -0.00244079 0)
(0 -0.0692859 0)
(0 -0.0692859 0)
(0 -0.0692859 0)
(0 -0.0692859 0)
(0 -0.0692859 0)
(0 -0.0692859 0)
(0 -0.0692859 0)
(0 -0.0692859 0)
(0 -0.0692859 0)
(0 -0.0692859 0)
(0 -0.0692859 0)
(0 -0.0692859 0)
(0 -0.0692859 0)
(0 -0.0692859 0)
(0 -0.00247495 0)
(0 -0.00469915 0)
(0 -0.00450914 0)
(0 -0.00426263 0)
(0 -0.00149621 0)
(0 -0.0017223 0)
(0 -0.000959629 0)
(0 -0.00540799 0)
(0 -0.00542145 0)
(0 -0.00381669 0)
(0 -0.00447199 0)
(0 -0.00465214 0)
(0 -0.00363433 0)
(0 -0.00287001 0)
(0 -0.00312932 0)
(0 -0.00198333 0)
(0 -0.00101224 0)
(0 -0.000463963 0)
(0 -0.00518004 0)
(0 -0.00982058 0)
(0 -0.00959185 0)
(0 -0.0140041 0)
(0 -0.0137169 0)
(0 -0.0177721 0)
(0 -0.0174334 0)
(0 -0.021248 0)
(0 -0.0208331 0)
(0 -0.0243748 0)
(0 -0.0238741 0)
(0 -0.0271145 0)
(0 -0.0265454 0)
(0 -0.0295854 0)
(0 -0.0289522 0)
(0 -0.0318237 0)
(0 -0.0324894 0)
(0 -0.0345479 0)
(0 -0.0352057 0)
(0 -0.0371055 0)
(0 -0.0377339 0)
(0 -0.0394994 0)
(0 -0.0401035 0)
(0 -0.0417353 0)
(0 -0.0423556 0)
(0 -0.0438236 0)
(0 -0.0444656 0)
(0 -0.0457768 0)
(0 -0.046368 0)
(0 -0.0475801 0)
(0 -0.0481388 0)
(0 -0.0492643 0)
(0 -0.0497732 0)
(0 -0.0508527 0)
(0 -0.0512942 0)
(0 -0.0523116 0)
(0 -0.0527367 0)
(0 -0.0536631 0)
(0 -0.0540709 0)
(0 -0.0549169 0)
(0 -0.0553122 0)
(0 -0.0560928 0)
(0 -0.0564805 0)
(0 -0.0556867 0)
(0 -0.0568 0)
(0 -0.056385 0)
(0 -0.0574438 0)
(0 -0.0570215 0)
(0 -0.0580359 0)
(0 -0.0576041 0)
(0 -0.0585847 0)
(0 -0.0581326 0)
(0 -0.0590403 0)
(0 -0.0586238 0)
(0 -0.0594564 0)
(0 -0.0590509 0)
(0 -0.0599013 0)
(0 -0.0594346 0)
(0 -0.0602973 0)
(0 -0.0598026 0)
(0 -0.0606262 0)
(0 -0.0596098 0)
(0 -0.0601285 0)
(0 -0.0609224 0)
(0 -0.0604137 0)
(0 -0.0611853 0)
(0 -0.0606708 0)
(0 -0.0614257 0)
(0 -0.0609 0)
(0 -0.0616286 0)
(0 -0.0601319 0)
(0 -0.061103 0)
(0 -0.0617873 0)
(0 -0.0612558 0)
(0 -0.0619248 0)
(0 -0.0613654 0)
(0 -0.0620128 0)
(0 -0.061461 0)
(0 -0.0620953 0)
(0 -0.0615355 0)
(0 -0.0621746 0)
(0 -0.0615772 0)
(0 -0.0622134 0)
(0 -0.060929 0)
(0 -0.0613877 0)
(0 -0.0615884 0)
(0 -0.0622164 0)
(0 -0.0615791 0)
(0 -0.0621889 0)
(0 -0.0627815 0)
(0 -0.0627565 0)
(0 -0.0621592 0)
(0 -0.0627221 0)
(0 -0.0632903 0)
(0 -0.0632437 0)
(0 -0.0626681 0)
(0 -0.0631818 0)
(0 -0.063729 0)
(0 -0.063662 0)
(0 -0.0631062 0)
(0 -0.0635841 0)
(0 -0.0630206 0)
(0 -0.0634987 0)
(0 -0.0640248 0)
(0 -0.0639507 0)
(0 -0.06341 0)
(0 -0.0638636 0)
(0 -0.0644615 0)
(0 -0.0642837 0)
(0 -0.0637682 0)
(0 -0.0641688 0)
(0 -0.064684 0)
(0 -0.0645291 0)
(0 -0.0639773 0)
(0 -0.0644238 0)
(0 -0.0648844 0)
(0 -0.0647913 0)
(0 -0.0643177 0)
(0 -0.064678 0)
(0 -0.0641879 0)
(0 -0.0645535 0)
(0 -0.0650176 0)
(0 -0.0648954 0)
(0 -0.0644207 0)
(0 -0.0647663 0)
(0 -0.0642814 0)
(0 -0.0646311 0)
(0 -0.0650904 0)
(0 -0.0649568 0)
(0 -0.0644893 0)
(0 -0.0648175 0)
(0 -0.0652604 0)
(0 -0.0651237 0)
(0 -0.0646724 0)
(0 -0.0649826 0)
(0 -0.0645226 0)
(0 -0.0648391 0)
(0 -0.065271 0)
(0 -0.0651317 0)
(0 -0.0646935 0)
(0 -0.0649874 0)
(0 -0.0654047 0)
(0 -0.065265 0)
(0 -0.0648345 0)
(0 -0.0651168 0)
(0 -0.0646712 0)
(0 -0.0649567 0)
(0 -0.0644995 0)
(0 -0.0647881 0)
(0 -0.0652229 0)
(0 -0.0650577 0)
(0 -0.0646149 0)
(0 -0.0648902 0)
(0 -0.0653102 0)
(0 -0.0651481 0)
(0 -0.064717 0)
(0 -0.0649771 0)
(0 -0.064536 0)
(0 -0.0647994 0)
(0 -0.0364361 0)
(0 -0.0624264 0)
(0 -0.0556803 0)
(0 -0.0568293 0)
(0 -0.0560228 0)
(0 -0.0571806 0)
(0 -0.05635 0)
(0 -0.0584982 0)
(0 -0.0676255 0)
(0 -0.0678372 0)
(0 -0.067687 0)
(0 -0.0678906 0)
(0 -0.0677328 0)
(0 -0.0679345 0)
(0 -0.0677701 0)
(0 -0.0679709 0)
(0 -0.046933 0)
(0 -0.0678013 0)
(0 -0.067994 0)
(0 -0.0674117 0)
(0 -0.067822 0)
(0 -0.0680041 0)
(0 -0.0681219 0)
(0 -0.0678322 0)
(0 -0.068009 0)
(0 -0.0676217 0)
(0 -0.0678341 0)
(0 -0.0680063 0)
(0 -0.0681678 0)
(0 -0.0681607 0)
(0 -0.0679959 0)
(0 -0.0681462 0)
(0 -0.0679766 0)
(0 -0.0681232 0)
(0 -0.0682808 0)
(0 -0.068255 0)
(0 -0.0451774 0)
(0 -0.0684007 0)
(0 -0.0683724 0)
(0 -0.0682227 0)
(0 -0.0683371 0)
(0 -0.0684755 0)
(0 -0.0684385 0)
(0 -0.0682954 0)
(0 -0.0683959 0)
(0 -0.0685285 0)
(0 -0.0684846 0)
(0 -0.0686069 0)
(0 -0.0685618 0)
(0 -0.0684368 0)
(0 -0.0685139 0)
(0 -0.0686279 0)
(0 -0.0685802 0)
(0 -0.0686856 0)
(0 -0.0686385 0)
(0 -0.0687348 0)
(0 -0.0686858 0)
(0 -0.0687762 0)
(0 -0.0687253 0)
(0 -0.0688119 0)
(0 -0.0687607 0)
(0 -0.0688419 0)
(0 -0.0687917 0)
(0 -0.0688677 0)
(0 -0.068819 0)
(0 -0.0688895 0)
(0 -0.0688428 0)
(0 -0.0689081 0)
(0 -0.0688635 0)
(0 -0.0689261 0)
(0 -0.0688825 0)
(0 -0.0689421 0)
(0 -0.0689002 0)
(0 -0.0689551 0)
(0 -0.0689132 0)
(0 -0.068966 0)
(0 -0.0689246 0)
(0 -0.068975 0)
(0 -0.0689342 0)
(0 -0.0689825 0)
(0 -0.0689413 0)
(0 -0.0689892 0)
(0 -0.0689489 0)
(0 -0.0689952 0)
(0 -0.0689553 0)
(0 -0.0690006 0)
(0 -0.0689605 0)
(0 -0.0690053 0)
(0 -0.068965 0)
(0 -0.0690089 0)
(0 -0.0689701 0)
(0 -0.0690114 0)
(0 -0.0689735 0)
(0 -0.0690134 0)
(0 -0.0689749 0)
(0 -0.0690152 0)
(0 -0.0689765 0)
(0 -0.0690168 0)
(0 -0.0689781 0)
(0 -0.0690179 0)
(0 -0.0689797 0)
(0 -0.0690183 0)
(0 -0.0689802 0)
(0 -0.0690184 0)
(0 -0.0689801 0)
(0 -0.0690182 0)
(0 -0.0689797 0)
(0 -0.0690178 0)
(0 -0.0689789 0)
(0 -0.0690176 0)
(0 -0.0689782 0)
(0 -0.0690178 0)
(0 -0.0689772 0)
(0 -0.0690164 0)
(0 -0.0689762 0)
(0 -0.0690138 0)
(0 -0.0689738 0)
(0 -0.0690107 0)
(0 -0.0689706 0)
(0 -0.0690071 0)
(0 -0.0689671 0)
(0 -0.069004 0)
(0 -0.068961 0)
(0 -0.0690005 0)
(0 -0.0689568 0)
(0 -0.0689975 0)
(0 -0.0689559 0)
(0 -0.0689943 0)
(0 -0.068953 0)
(0 -0.0689899 0)
(0 -0.0689479 0)
(0 -0.0689854 0)
(0 -0.0689429 0)
(0 -0.0689806 0)
(0 -0.0689379 0)
(0 -0.0689761 0)
(0 -0.0689338 0)
(0 -0.0689703 0)
(0 -0.0689271 0)
(0 -0.0689632 0)
(0 -0.0689204 0)
(0 -0.0689567 0)
(0 -0.0689139 0)
(0 -0.0689497 0)
(0 -0.0689046 0)
(0 -0.068942 0)
(0 -0.0688949 0)
(0 -0.0689341 0)
(0 -0.068885 0)
(0 -0.0689245 0)
(0 -0.0688756 0)
(0 -0.0689144 0)
(0 -0.0688665 0)
(0 -0.068905 0)
(0 -0.0688551 0)
(0 -0.0688944 0)
(0 -0.0688421 0)
(0 -0.068883 0)
(0 -0.0688293 0)
(0 -0.0688708 0)
(0 -0.0689213 0)
(0 -0.0689094 0)
(0 -0.0688578 0)
(0 -0.0688971 0)
(0 -0.0689733 0)
(0 -0.0690014 0)
(0 -0.0690229 0)
(0 -0.0690357 0)
(0 -0.069052 0)
(0 -0.0690518 0)
(0 -0.0689347 0)
(0 -0.0689358 0)
(0 -0.0689225 0)
(0 -0.0688847 0)
(0 -0.0688186 0)
(0 -0.0690524 0)
(0 -0.068909 0)
(0 -0.0688534 0)
(0 -0.0688938 0)
(0 -0.0686673 0)
(0 -0.0690472 0)
(0 -0.0688 0)
(0 -0.0683935 0)
(0 -0.0690306 0)
(0 -0.0690068 0)
(0 -0.0574872 0)
(0 -0.0566467 0)
(0 -0.0689293 0)
(0 -0.0689477 0)
(0 -0.0688213 0)
(0 -0.0577273 0)
(0 -0.0567363 0)
(0 -0.0579546 0)
(0 -0.0571077 0)
(0 -0.0581993 0)
(0 -0.0573196 0)
(0 -0.0561901 0)
(0 -0.0563004 0)
(0 -0.0551288 0)
(0 -0.055234 0)
(0 -0.0539002 0)
(0 -0.0540648 0)
(0 -0.0574682 0)
(0 -0.0587138 0)
(0 -0.0526163 0)
(0 -0.0527839 0)
(0 -0.0512731 0)
(0 -0.0514163 0)
(0 -0.0529125 0)
(0 -0.0515172 0)
(0 -0.0529958 0)
(0 -0.0499141 0)
(0 -0.0216378 0)
(0 -0.069145 0)
(0 -0.0691043 0)
(0 -0.0691254 0)
(0 -0.0691634 0)
(0 -0.0691449 0)
(0 -0.0691804 0)
(0 -0.0691611 0)
(0 -0.0691938 0)
(0 -0.0691749 0)
(0 -0.0692039 0)
(0 -0.0691868 0)
(0 -0.0692117 0)
(0 -0.0691948 0)
(0 -0.069217 0)
(0 -0.0692002 0)
(0 -0.0692207 0)
(0 -0.0691211 0)
(0 -0.0692032 0)
(0 -0.0692226 0)
(0 -0.0691761 0)
(0 -0.056583 0)
(0 -0.0692039 0)
(0 -0.0692224 0)
(0 -0.0627794 0)
(0 -0.0406281 0)
(0 -0.0692028 0)
(0 -0.0692202 0)
(0 -0.0692185 0)
(0 -0.0493689 0)
(0 -0.0510883 0)
(0 -0.0500515 0)
(0 -0.0482842 0)
(0 -0.0489961 0)
(0 -0.0507168 0)
(0 -0.0496777 0)
(0 -0.0513413 0)
(0 -0.0503198 0)
(0 -0.0485826 0)
(0 -0.0492468 0)
(0 -0.0509315 0)
(0 -0.0498941 0)
(0 -0.0481107 0)
(0 -0.0487834 0)
(0 -0.0505225 0)
(0 -0.0494256 0)
(0 -0.0511208 0)
(0 -0.0500363 0)
(0 -0.048271 0)
(0 -0.0488917 0)
(0 -0.0506281 0)
(0 -0.049497 0)
(0 -0.0476834 0)
(0 -0.0483051 0)
(0 -0.0501147 0)
(0 -0.0489266 0)
(0 -0.0470623 0)
(0 -0.047677 0)
(0 -0.0494917 0)
(0 -0.0482603 0)
(0 -0.0464009 0)
(0 -0.0470033 0)
(0 -0.0488028 0)
(0 -0.0475622 0)
(0 -0.0493138 0)
(0 -0.0481018 0)
(0 -0.0462707 0)
(0 -0.0468265 0)
(0 -0.0486959 0)
(0 -0.0473781 0)
(0 -0.0454886 0)
(0 -0.0459818 0)
(0 -0.0477211 0)
(0 -0.0464052 0)
(0 -0.0445778 0)
(0 -0.0450337 0)
(0 -0.0468083 0)
(0 -0.0454418 0)
(0 -0.047176 0)
(0 -0.0457992 0)
(0 -0.0439989 0)
(0 -0.0443549 0)
(0 -0.0461032 0)
(0 -0.0446523 0)
(0 -0.0463523 0)
(0 -0.0448928 0)
(0 -0.0465179 0)
(0 -0.0450405 0)
(0 -0.0465256 0)
(0 -0.0450711 0)
(0 -0.0434843 0)
(0 -0.0435534 0)
(0 -0.0451068 0)
(0 -0.0435578 0)
(0 -0.0450741 0)
(0 -0.0434859 0)
(0 -0.0449806 0)
(0 -0.0433526 0)
(0 -0.0448424 0)
(0 -0.0431255 0)
(0 -0.0416101 0)
(0 -0.0413237 0)
(0 -0.0397789 0)
(0 -0.0394351 0)
(0 -0.0378563 0)
(0 -0.0374683 0)
(0 -0.0358394 0)
(0 -0.0354278 0)
(0 -0.042473 0)
(0 -0.044588 0)
(0 -0.0337496 0)
(0 -0.0333066 0)
(0 -0.0340816 0)
(0 -0.0316225 0)
(0 -0.0311284 0)
(0 -0.0327393 0)
(0 -0.029449 0)
(0 -0.0305007 0)
(0 -0.0320601 0)
(0 -0.0478658 0)
(0 -0.0465544 0)
(0 -0.0297179 0)
(0 -0.0311783 0)
(0 -0.0655476 0)
(0 -0.0656615 0)
(0 -0.064193 0)
(0 -0.0640616 0)
(0 -0.0692318 0)
(0 -0.0692412 0)
(0 -0.0692342 0)
(0 -0.069243 0)
(0 -0.0692362 0)
(0 -0.0692447 0)
(0 -0.0692378 0)
(0 -0.0692462 0)
(0 -0.0692395 0)
(0 -0.0692477 0)
(0 -0.0692411 0)
(0 -0.069249 0)
(0 -0.0692426 0)
(0 -0.0692503 0)
(0 -0.0692441 0)
(0 -0.0692515 0)
(0 -0.0692454 0)
(0 -0.0692526 0)
(0 -0.0692467 0)
(0 -0.0692538 0)
(0 -0.0692479 0)
(0 -0.0692548 0)
(0 -0.0692491 0)
(0 -0.0692557 0)
(0 -0.0692501 0)
(0 -0.0692565 0)
(0 -0.0692511 0)
(0 -0.0692574 0)
(0 -0.069252 0)
(0 -0.0692582 0)
(0 -0.0692531 0)
(0 -0.0692589 0)
(0 -0.0692539 0)
(0 -0.0692596 0)
(0 -0.0692546 0)
(0 -0.0692602 0)
(0 -0.0692554 0)
(0 -0.0692609 0)
(0 -0.069256 0)
(0 -0.0692614 0)
(0 -0.0692565 0)
(0 -0.0692619 0)
(0 -0.0692569 0)
(0 -0.0692624 0)
(0 -0.0692577 0)
(0 -0.069263 0)
(0 -0.0692589 0)
(0 -0.0692636 0)
(0 -0.0692596 0)
(0 -0.0692642 0)
(0 -0.06926 0)
(0 -0.0692646 0)
(0 -0.0692605 0)
(0 -0.0692651 0)
(0 -0.0692609 0)
(0 -0.0692655 0)
(0 -0.0692613 0)
(0 -0.0692659 0)
(0 -0.0692617 0)
(0 -0.0692663 0)
(0 -0.0692622 0)
(0 -0.0692666 0)
(0 -0.0692625 0)
(0 -0.069267 0)
(0 -0.069263 0)
(0 -0.0692673 0)
(0 -0.0692634 0)
(0 -0.0692676 0)
(0 -0.0692636 0)
(0 -0.0692679 0)
(0 -0.0692638 0)
(0 -0.0692682 0)
(0 -0.0692639 0)
(0 -0.0692685 0)
(0 -0.0692643 0)
(0 -0.0692688 0)
(0 -0.0692649 0)
(0 -0.0692691 0)
(0 -0.0692654 0)
(0 -0.0692693 0)
(0 -0.0692658 0)
(0 -0.0692697 0)
(0 -0.069266 0)
(0 -0.0692699 0)
(0 -0.0692662 0)
(0 -0.0692701 0)
(0 -0.0692664 0)
(0 -0.0692703 0)
(0 -0.0692666 0)
(0 -0.0692705 0)
(0 -0.069267 0)
(0 -0.0692707 0)
(0 -0.0692672 0)
(0 -0.0692535 0)
(0 -0.0692709 0)
(0 -0.0692673 0)
(0 -0.0692711 0)
(0 -0.0692674 0)
(0 -0.0692713 0)
(0 -0.0692675 0)
(0 -0.0692589 0)
(0 -0.0692714 0)
(0 -0.0692676 0)
(0 -0.0692714 0)
(0 -0.0692677 0)
(0 -0.0692715 0)
(0 -0.0692678 0)
(0 -0.0692636 0)
(0 -0.0692716 0)
(0 -0.069268 0)
(0 -0.0692716 0)
(0 -0.069268 0)
(0 -0.0692716 0)
(0 -0.0692679 0)
(0 -0.0692652 0)
(0 -0.0692717 0)
(0 -0.0692679 0)
(0 -0.0692718 0)
(0 -0.0692679 0)
(0 -0.0692667 0)
(0 -0.0692719 0)
(0 -0.0692677 0)
(0 -0.0692719 0)
(0 -0.0692676 0)
(0 -0.0692718 0)
(0 -0.0692677 0)
(0 -0.0692692 0)
(0 -0.0692718 0)
(0 -0.0692678 0)
(0 -0.0692718 0)
(0 -0.0692676 0)
(0 -0.0692717 0)
(0 -0.0692675 0)
(0 -0.0692442 0)
(0 -0.0692555 0)
(0 -0.0692314 0)
(0 -0.0692627 0)
(0 -0.0692609 0)
(0 -0.0692577 0)
(0 -0.0692712 0)
(0 -0.06925 0)
(0 -0.0692716 0)
(0 -0.0692673 0)
(0 -0.0692632 0)
(0 -0.0692715 0)
(0 -0.0692671 0)
(0 -0.0692712 0)
(0 -0.0692667 0)
(0 -0.0692626 0)
(0 -0.0692627 0)
(0 -0.0692718 0)
(0 -0.069271 0)
(0 -0.0692662 0)
(0 -0.0692383 0)
(0 -0.069224 0)
(0 -0.0692725 0)
(0 -0.0692707 0)
(0 -0.0692655 0)
(0 -0.06927 0)
(0 -0.0692648 0)
(0 -0.0692734 0)
(0 -0.0692694 0)
(0 -0.069264 0)
(0 -0.0692739 0)
(0 -0.069259 0)
(0 -0.069269 0)
(0 -0.0692631 0)
(0 -0.0692749 0)
(0 -0.0692685 0)
(0 -0.069262 0)
(0 -0.069275 0)
(0 -0.0692676 0)
(0 -0.0692749 0)
(0 -0.0692752 0)
(0 -0.0287602 0)
(0 -0.0273734 0)
(0 -0.0606543 0)
(0 -0.0692474 0)
(0 -0.0300666 0)
(0 -0.0325446 0)
(0 -0.0692535 0)
(0 -0.0692751 0)
(0 -0.0692566 0)
(0 -0.0692584 0)
(0 -0.0692618 0)
(0 -0.069263 0)
(0 -0.0692627 0)
(0 -0.0692634 0)
(0 -0.0692002 0)
(0 -0.06918 0)
(0 -0.0678903 0)
(0 -0.0677711 0)
(0 -0.0679275 0)
(0 -0.0678107 0)
(0 -0.0679624 0)
(0 -0.0678508 0)
(0 -0.0679964 0)
(0 -0.0678804 0)
(0 -0.068024 0)
(0 -0.0678983 0)
(0 -0.0680468 0)
(0 -0.0679242 0)
(0 -0.0680707 0)
(0 -0.0679573 0)
(0 -0.0680943 0)
(0 -0.0679882 0)
(0 -0.0681152 0)
(0 -0.0680066 0)
(0 -0.0681333 0)
(0 -0.0680172 0)
(0 -0.0681447 0)
(0 -0.0680324 0)
(0 -0.0681567 0)
(0 -0.0680467 0)
(0 -0.0681741 0)
(0 -0.0680598 0)
(0 -0.0681887 0)
(0 -0.0680719 0)
(0 -0.0679323 0)
(0 -0.0679451 0)
(0 -0.0680835 0)
(0 -0.0679598 0)
(0 -0.068094 0)
(0 -0.0679698 0)
(0 -0.068102 0)
(0 -0.0679702 0)
(0 -0.0681078 0)
(0 -0.0679745 0)
(0 -0.0681124 0)
(0 -0.0679843 0)
(0 -0.0681148 0)
(0 -0.0679811 0)
(0 -0.0681146 0)
(0 -0.0679785 0)
(0 -0.0681137 0)
(0 -0.067985 0)
(0 -0.0681115 0)
(0 -0.0679772 0)
(0 -0.0681057 0)
(0 -0.067962 0)
(0 -0.0680968 0)
(0 -0.0679563 0)
(0 -0.0680868 0)
(0 -0.0679465 0)
(0 -0.0680754 0)
(0 -0.0679353 0)
(0 -0.068061 0)
(0 -0.0679162 0)
(0 -0.0680422 0)
(0 -0.0678859 0)
(0 -0.0680195 0)
(0 -0.067859 0)
(0 -0.0677142 0)
(0 -0.0676828 0)
(0 -0.06783 0)
(0 -0.0676495 0)
(0 -0.0677976 0)
(0 -0.0676105 0)
(0 -0.0677601 0)
(0 -0.0675663 0)
(0 -0.0677175 0)
(0 -0.0675174 0)
(0 -0.0676697 0)
(0 -0.0674627 0)
(0 -0.0676158 0)
(0 -0.0674004 0)
(0 -0.0677966 0)
(0 -0.0675559 0)
(0 -0.0673309 0)
(0 -0.0678681 0)
(0 -0.0673587 0)
(0 -0.0678934 0)
(0 -0.067852 0)
(0 -0.0677502 0)
(0 -0.0671624 0)
(0 -0.0670827 0)
(0 -0.0672544 0)
(0 -0.0669956 0)
(0 -0.0671702 0)
(0 -0.0668966 0)
(0 -0.0670704 0)
(0 -0.0667781 0)
(0 -0.0669353 0)
(0 -0.0666409 0)
(0 -0.0667982 0)
(0 -0.0677819 0)
(0 -0.0678392 0)
(0 -0.0677922 0)
(0 -0.0675015 0)
(0 -0.0692555 0)
(0 -0.0692536 0)
(0 -0.0692458 0)
(0 -0.0692435 0)
(0 -0.0692749 0)
(0 -0.0664934 0)
(0 -0.0666636 0)
(0 -0.0692338 0)
(0 -0.0692311 0)
(0 -0.0663307 0)
(0 -0.0664984 0)
(0 -0.0692822 0)
(0 -0.069281 0)
(0 -0.0692824 0)
(0 -0.0692813 0)
(0 -0.0692826 0)
(0 -0.0692816 0)
(0 -0.0692828 0)
(0 -0.0692818 0)
(0 -0.069283 0)
(0 -0.069282 0)
(0 -0.0692832 0)
(0 -0.0692822 0)
(0 -0.0692833 0)
(0 -0.0692824 0)
(0 -0.0692834 0)
(0 -0.0692825 0)
(0 -0.0692836 0)
(0 -0.0692827 0)
(0 -0.0692837 0)
(0 -0.0692829 0)
(0 -0.066146 0)
(0 -0.0663111 0)
(0 -0.0659417 0)
(0 -0.0661035 0)
(0 -0.0263457 0)
(0 -0.0249913 0)
(0 -0.0313269 0)
(0 -0.0337828 0)
(0 -0.0666163 0)
(0 -0.0418673 0)
(0 -0.0692839 0)
(0 -0.0692831 0)
(0 -0.0692746 0)
(0 -0.069284 0)
(0 -0.0692832 0)
(0 -0.069284 0)
(0 -0.0692834 0)
(0 -0.0510636 0)
(0 -0.0692371 0)
(0 -0.0692841 0)
(0 -0.0692835 0)
(0 -0.0669022 0)
(0 -0.0691764 0)
(0 -0.0691529 0)
(0 -0.050372 0)
(0 -0.0692814 0)
(0 -0.0692346 0)
(0 -0.0692842 0)
(0 -0.0692836 0)
(0 -0.0692826 0)
(0 -0.0692828 0)
(0 -0.0692837 0)
(0 -0.069283 0)
(0 -0.0692838 0)
(0 -0.0692831 0)
(0 -0.0692839 0)
(0 -0.0692832 0)
(0 -0.0692841 0)
(0 -0.0692834 0)
(0 -0.0692842 0)
(0 -0.0692835 0)
(0 -0.0692842 0)
(0 -0.0692836 0)
(0 -0.0664619 0)
(0 -0.0662503 0)
(0 -0.0658784 0)
(0 -0.0660221 0)
(0 -0.0676432 0)
(0 -0.0692843 0)
(0 -0.0692838 0)
(0 -0.0692844 0)
(0 -0.0692839 0)
(0 -0.0663832 0)
(0 -0.0661528 0)
(0 -0.065773 0)
(0 -0.0658997 0)
(0 -0.0654971 0)
(0 -0.0656187 0)
(0 -0.0651918 0)
(0 -0.0653067 0)
(0 -0.0657338 0)
(0 -0.0654127 0)
(0 -0.0649647 0)
(0 -0.0650577 0)
(0 -0.0654991 0)
(0 -0.0651369 0)
(0 -0.0655763 0)
(0 -0.0652033 0)
(0 -0.064748 0)
(0 -0.0648021 0)
(0 -0.0643223 0)
(0 -0.064361 0)
(0 -0.0648337 0)
(0 -0.0643733 0)
(0 -0.0648465 0)
(0 -0.0643711 0)
(0 -0.0648388 0)
(0 -0.0643309 0)
(0 -0.0648069 0)
(0 -0.0642813 0)
(0 -0.0647621 0)
(0 -0.064242 0)
(0 -0.0647031 0)
(0 -0.0641637 0)
(0 -0.064616 0)
(0 -0.0640584 0)
(0 -0.063856 0)
(0 -0.064501 0)
(0 -0.0639362 0)
(0 -0.0643596 0)
(0 -0.0637656 0)
(0 -0.0641861 0)
(0 -0.0635682 0)
(0 -0.0692739 0)
(0 -0.0692795 0)
(0 -0.0692845 0)
(0 -0.0692839 0)
(0 -0.0692192 0)
(0 -0.0692165 0)
(0 -0.0325685 0)
(0 -0.0350054 0)
(0 -0.0298822 0)
(0 -0.0239042 0)
(0 -0.0225879 0)
(0 -0.0679391 0)
(0 -0.0689565 0)
(0 -0.0673489 0)
(0 -0.0692845 0)
(0 -0.069284 0)
(0 -0.0692846 0)
(0 -0.0692841 0)
(0 -0.0692847 0)
(0 -0.0692842 0)
(0 -0.0692834 0)
(0 -0.0692836 0)
(0 -0.0692843 0)
(0 -0.0692837 0)
(0 -0.0692844 0)
(0 -0.0692838 0)
(0 -0.0692845 0)
(0 -0.069284 0)
(0 -0.0692846 0)
(0 -0.0692841 0)
(0 -0.0682358 0)
(0 -0.0682199 0)
(0 -0.0682376 0)
(0 -0.0692816 0)
(0 -0.0692847 0)
(0 -0.0692842 0)
(0 -0.0692847 0)
(0 -0.0692843 0)
(0 -0.0692828 0)
(0 -0.0692848 0)
(0 -0.0692843 0)
(0 -0.0692834 0)
(0 -0.05164 0)
(0 -0.0638085 0)
(0 -0.0692228 0)
(0 -0.0682091 0)
(0 -0.0661533 0)
(0 -0.0665032 0)
(0 -0.0677604 0)
(0 -0.0681642 0)
(0 -0.069282 0)
(0 -0.0633153 0)
(0 -0.0692835 0)
(0 -0.0680363 0)
(0 -0.0692061 0)
(0 -0.0692105 0)
(0 -0.0692808 0)
(0 -0.0692421 0)
(0 -0.0691482 0)
(0 -0.0691207 0)
(0 -0.0692849 0)
(0 -0.0692844 0)
(0 -0.0338461 0)
(0 -0.0362989 0)
(0 -0.0650626 0)
(0 -0.0681817 0)
(0 -0.0692831 0)
(0 -0.0682932 0)
(0 -0.0652737 0)
(0 -0.0692849 0)
(0 -0.0692845 0)
(0 -0.069285 0)
(0 -0.0692846 0)
(0 -0.0692839 0)
(0 -0.069284 0)
(0 -0.0692846 0)
(0 -0.0692841 0)
(0 -0.0692847 0)
(0 -0.0692842 0)
(0 -0.0692848 0)
(0 -0.0692843 0)
(0 -0.0692849 0)
(0 -0.0692844 0)
(0 -0.0692834 0)
(0 -0.0682604 0)
(0 -0.069284 0)
(0 -0.0214361 0)
(0 -0.0201712 0)
(0 -0.0212076 0)
(0 -0.0188455 0)
(0 -0.0197557 0)
(0 -0.0174384 0)
(0 -0.0182099 0)
(0 -0.015953 0)
(0 -0.0165632 0)
(0 -0.0692849 0)
(0 -0.0692845 0)
(0 -0.069285 0)
(0 -0.0692846 0)
(0 -0.0669809 0)
(0 -0.0692851 0)
(0 -0.0692846 0)
(0 -0.069284 0)
(0 -0.0692841 0)
(0 -0.0692847 0)
(0 -0.0692842 0)
(0 -0.0692848 0)
(0 -0.0692844 0)
(0 -0.0692849 0)
(0 -0.0692845 0)
(0 -0.0692822 0)
(0 -0.0692843 0)
(0 -0.0259585 0)
(0 -0.0372859 0)
(0 -0.0384416 0)
(0 -0.0691911 0)
(0 -0.069196 0)
(0 -0.0638047 0)
(0 -0.0692826 0)
(0 -0.0143918 0)
(0 -0.069285 0)
(0 -0.0692845 0)
(0 -0.069285 0)
(0 -0.0692846 0)
(0 -0.0692851 0)
(0 -0.0692847 0)
(0 -0.069284 0)
(0 -0.0555149 0)
(0 -0.0630936 0)
(0 -0.0578932 0)
(0 -0.0651124 0)
(0 -0.0692847 0)
(0 -0.0636754 0)
(0 -0.0394498 0)
(0 -0.0405624 0)
(0 -0.0283109 0)
(0 -0.0253224 0)
(0 -0.0692852 0)
(0 -0.0692848 0)
(0 -0.0692837 0)
(0 -0.0692833 0)
(0 -0.0148375 0)
(0 -0.0169809 0)
(0 -0.0692849 0)
(0 -0.0692847 0)
(0 -0.0692849 0)
(0 -0.0415154 0)
(0 -0.0426107 0)
(0 -0.0434784 0)
(0 -0.0445469 0)
(0 -0.045337 0)
(0 -0.0463849 0)
(0 -0.0470894 0)
(0 -0.0481079 0)
(0 -0.0487388 0)
(0 -0.0497106 0)
(0 -0.050299 0)
(0 -0.0490826 0)
(0 -0.0436601 0)
(0 -0.0512221 0)
(0 -0.0517653 0)
(0 -0.0151024 0)
(0 -0.0692342 0)
(0 -0.0692482 0)
(0 -0.0590214 0)
(0 -0.0599198 0)
(0 -0.0594254 0)
(0 -0.0603039 0)
(0 -0.0598026 0)
(0 -0.0588864 0)
(0 -0.0592761 0)
(0 -0.0601518 0)
(0 -0.0596509 0)
(0 -0.0587121 0)
(0 -0.059102 0)
(0 -0.0600153 0)
(0 -0.059475 0)
(0 -0.0603581 0)
(0 -0.0598273 0)
(0 -0.058896 0)
(0 -0.0592555 0)
(0 -0.0601636 0)
(0 -0.0596001 0)
(0 -0.0604843 0)
(0 -0.0599351 0)
(0 -0.0590131 0)
(0 -0.0593565 0)
(0 -0.0602304 0)
(0 -0.0596395 0)
(0 -0.0586039 0)
(0 -0.05905 0)
(0 -0.0599103 0)
(0 -0.0593546 0)
(0 -0.0584649 0)
(0 -0.0587698 0)
(0 -0.0597232 0)
(0 -0.0590552 0)
(0 -0.0581259 0)
(0 -0.0584063 0)
(0 -0.0593978 0)
(0 -0.0586705 0)
(0 -0.0575599 0)
(0 -0.0579907 0)
(0 -0.0589298 0)
(0 -0.0582679 0)
(0 -0.0572624 0)
(0 -0.0575388 0)
(0 -0.0585294 0)
(0 -0.0578209 0)
(0 -0.0567376 0)
(0 -0.0570474 0)
(0 -0.0580821 0)
(0 -0.057314 0)
(0 -0.0562303 0)
(0 -0.056492 0)
(0 -0.0575446 0)
(0 -0.0567182 0)
(0 -0.0647209 0)
(0 -0.0189104 0)
(0 -0.0201017 0)
(0 -0.0632578 0)
(0 -0.0627359 0)
(0 -0.0335519 0)
(0 -0.0364617 0)
(0 -0.0335014 0)
(0 -0.0363908 0)
(0 -0.0334018 0)
(0 -0.0362685 0)
(0 -0.0333071 0)
(0 -0.036459 0)
(0 -0.0331893 0)
(0 -0.0357683 0)
(0 -0.0308998 0)
(0 -0.0340012 0)
(0 -0.0320154 0)
(0 -0.0350448 0)
(0 -0.0331132 0)
(0 -0.0299482 0)
(0 -0.0310913 0)
(0 -0.0341711 0)
(0 -0.0321849 0)
(0 -0.0691151 0)
(0 -0.0690833 0)
(0 -0.069088 0)
(0 -0.0691422 0)
(0 -0.0329422 0)
(0 -0.0691742 0)
(0 -0.0691793 0)
(0 -0.0691686 0)
(0 -0.0692852 0)
(0 -0.0692849 0)
(0 -0.0692843 0)
(0 -0.0692844 0)
(0 -0.0692849 0)
(0 -0.0692845 0)
(0 -0.069285 0)
(0 -0.0692846 0)
(0 -0.0692851 0)
(0 -0.0692847 0)
(0 -0.0692851 0)
(0 -0.0692848 0)
(0 -0.0692852 0)
(0 -0.0692848 0)
(0 -0.0692842 0)
(0 -0.0692844 0)
(0 -0.0692849 0)
(0 -0.0692845 0)
(0 -0.069285 0)
(0 -0.0692846 0)
(0 -0.0692851 0)
(0 -0.0692847 0)
(0 -0.0692852 0)
(0 -0.0692848 0)
(0 -0.0692838 0)
(0 -0.0351798 0)
(0 -0.0332215 0)
(0 -0.0300897 0)
(0 -0.0311674 0)
(0 -0.0342385 0)
(0 -0.0322307 0)
(0 -0.0526347 0)
(0 -0.0531213 0)
(0 -0.0523034 0)
(0 -0.0535696 0)
(0 -0.0527409 0)
(0 -0.0539667 0)
(0 -0.053056 0)
(0 -0.05429 0)
(0 -0.0533496 0)
(0 -0.0545377 0)
(0 -0.0535774 0)
(0 -0.0547098 0)
(0 -0.0537467 0)
(0 -0.0548106 0)
(0 -0.0538693 0)
(0 -0.054971 0)
(0 -0.0577385 0)
(0 -0.0569149 0)
(0 -0.0558423 0)
(0 -0.0290059 0)
(0 -0.0301243 0)
(0 -0.0332603 0)
(0 -0.0312018 0)
(0 -0.035528 0)
(0 -0.0380944 0)
(0 -0.0151118 0)
(0 -0.0172201 0)
(0 -0.0374273 0)
(0 -0.0692851 0)
(0 -0.0690457 0)
(0 -0.0690486 0)
(0 -0.0692852 0)
(0 -0.0342447 0)
(0 -0.0322355 0)
(0 -0.0290725 0)
(0 -0.030175 0)
(0 -0.0332238 0)
(0 -0.0312082 0)
(0 -0.0692841 0)
(0 -0.0692843 0)
(0 -0.0692849 0)
(0 -0.0692844 0)
(0 -0.0692849 0)
(0 -0.0692845 0)
(0 -0.069285 0)
(0 -0.0692846 0)
(0 -0.0692851 0)
(0 -0.0692847 0)
(0 -0.0692852 0)
(0 -0.0692848 0)
(0 -0.0341401 0)
(0 -0.0321384 0)
(0 -0.0291049 0)
(0 -0.0300632 0)
(0 -0.0330052 0)
(0 -0.0309362 0)
(0 -0.0278836 0)
(0 -0.0288465 0)
(0 -0.0317584 0)
(0 -0.0297781 0)
(0 -0.0691076 0)
(0 -0.0691344 0)
(0 -0.0276404 0)
(0 -0.0246595 0)
(0 -0.0127777 0)
(0 -0.0692852 0)
(0 -0.0692453 0)
(0 -0.069257 0)
(0 -0.0692595 0)
(0 -0.0692664 0)
(0 -0.0692691 0)
(0 -0.0692638 0)
(0 -0.0692713 0)
(0 -0.0692688 0)
(0 -0.0692747 0)
(0 -0.026657 0)
(0 -0.0276561 0)
(0 -0.0306789 0)
(0 -0.0285886 0)
(0 -0.0692002 0)
(0 -0.0691841 0)
(0 -0.0692034 0)
(0 -0.0691882 0)
(0 -0.0692853 0)
(0 -0.0692853 0)
(0 -0.0692849 0)
(0 -0.0692843 0)
(0 -0.0692844 0)
(0 -0.069285 0)
(0 -0.0692846 0)
(0 -0.0692851 0)
(0 -0.0692847 0)
(0 -0.0692852 0)
(0 -0.0692848 0)
(0 -0.0314976 0)
(0 -0.0294406 0)
(0 -0.0264147 0)
(0 -0.0273097 0)
(0 -0.0302211 0)
(0 -0.0281167 0)
(0 -0.0309356 0)
(0 -0.0288445 0)
(0 -0.0259371 0)
(0 -0.0266889 0)
(0 -0.0294978 0)
(0 -0.0273587 0)
(0 -0.0300637 0)
(0 -0.0279382 0)
(0 -0.0251764 0)
(0 -0.0257692 0)
(0 -0.0284216 0)
(0 -0.0262603 0)
(0 -0.023583 0)
(0 -0.0240619 0)