/*--------------------------------*- C++ -*----------------------------------*\
| =========                 |                                                 |
| \\      /  F ield         | OpenFOAM: The Open Source CFD Toolbox           |
|  \\    /   O peration     | Version:  v2012                                 |
|   \\  /    A nd           | Website:  www.openfoam.com                      |
|    \\/     M anipulation  |                                                 |
\*---------------------------------------------------------------------------*/
FoamFile
{
    version     2.0;
    format      ascii;
    class       volScalarField;
    location    "650";
    object      ddt0(omega);
}
// * * * * * * * * * * * * * * * * * * * * * * * * * * * * * * * * * * * * * //

dimensions      [0 0 -2 0 0 0 0];


internalField   nonuniform List<scalar> 
13917
(
-0.0108146
0.000758965
0.00214084
2.08803e-05
-0.000299584
0.000513363
0.000414167
-0.123381
0.000176324
-0.377914
0.00408838
-2.53191e-05
-1.20107e-05
-0.0315461
-0.000870088
0.00543741
5.94815e-06
-0.0126915
-0.00188308
-0.228677
0.000797282
-3.02734e-05
0.000935488
-2.83086e-05
6.62489e-05
0.00091917
-0.645399
0.124097
0.00115907
-2.21595e-05
-0.43977
-5.51309e-05
6.34427e-06
0.251093
-4.69871e-05
-0.435211
-6.83766e-05
8.05335e-06
0.000400855
0.00110108
-1.80287e-05
3.44305e-05
0.000117321
-0.00159954
-0.00113592
-0.0187627
0.00069273
-0.996735
-0.0764448
-4.39149e-05
-2.98448e-05
-0.00510104
-1.42446
-6.14401e-05
-5.88368e-05
-0.00471966
-0.0243623
0.000979102
4.442e-05
-0.020087
1.3059
-0.00175027
-3.70824e-06
5.8595e-05
0.255782
0.0174965
0.0015322
-0.452022
0.0193773
0.211182
-0.0322054
0.24029
-8.58484e-06
2.89619e-05
0.00088582
5.50558e-05
-0.000169862
3.40023e-05
4.80804e-05
8.76747e-06
-0.000137134
-4.41942e-06
-1.19832e-05
0.0684684
-4.91106e-05
-0.00142224
0.000182479
-5.51282e-05
0.00109079
9.16403e-06
-4.50325e-06
0.000106974
-0.103982
-6.00856e-05
-9.72908e-05
0.00049547
-0.176755
-4.77148e-05
-5.01341e-05
-0.0111458
9.21695e-06
8.26265e-06
-0.000139934
-3.86284e-05
-0.00013483
2.30528
0.352359
-0.00379353
5.18459e-05
-1.04699
-4.83713e-05
0.306822
0.00108084
-0.0889593
0.218587
7.87696e-05
-0.00145942
-2.29158e-05
-0.00284656
-1.65272e-05
-3.30439e-06
3.11221e-05
-0.0030528
-0.00110909
0.0275193
0.173199
5.07014e-05
0.000993817
3.422e-06
-0.00123941
0.000435333
-0.0188238
0.430818
6.87154e-05
-0.000384044
-0.648343
1.4063
0.157001
0.00105751
7.08119e-06
0.0217573
3.62665e-05
2.22466
-2.42043e-05
-1.53865e-05
0.000205244
-0.0249027
-0.0547628
-1.34165
-6.08147e-05
0.000986543
1.21062e-05
-1.78715e-05
-1.70236e-05
-0.718239
3.93861e-05
-3.91378e-05
0.283684
-2.82678e-05
-2.50338e-05
-3.50017e-05
0.334271
-0.000166003
0.0029058
0.26438
-0.00741093
1.40296
-0.731977
-4.3592e-06
0.00110006
-2.70434e-05
0.649784
0.000162295
1.29805
-0.00037347
-9.22238e-06
2.18268e-05
-0.00660253
0.000448977
-0.000129543
0.000124239
-2.5982e-05
-3.00007e-05
-0.0119643
-0.00517799
-0.0140234
-3.19493e-05
-0.0127347
-2.04717e-05
-0.0602558
-0.000498614
-0.00125502
-0.00625593
0.0823997
-5.9115e-05
0.145063
0.000320893
0.464368
-5.14186e-05
2.42678e-05
0.000502919
0.255744
0.173472
-0.000150199
0.00611269
0.000618864
0.0010287
3.50289e-05
-0.00621236
-0.000134827
-1.67283e-05
-0.00066488
-0.00103221
-1.28903
-0.000326284
0.00101788
0.778483
-3.92756e-05
-8.40713e-06
-1.095e-05
-0.831091
-0.00904239
-0.0136129
-4.54109e-05
-2.95113e-06
-0.0806615
0.304225
-9.19565e-06
-9.40141e-06
-1.86921e-05
-6.27321e-06
-6.29727e-06
0.223015
-1.31871
-7.87485e-05
-6.51878e-06
-0.000409526
0.168403
-2.19728e-05
-4.84207e-05
-0.335386
1.64459
-0.0101884
0.796458
-0.0040712
-2.51028e-05
-0.285051
-0.000532831
0.00116562
0.000310647
-0.00014002
-1.31668
-1.52518e-05
0.00113068
0.000315801
-8.41732e-05
-1.67402e-05
6.04249e-05
-5.29623e-05
-8.91348e-05
0.0303049
0.0744557
8.71044e-06
-9.02106e-06
2.17441e-05
-7.6747e-06
-1.45843e-05
-6.37603e-06
0.00105142
1.41731e-05
0.0028854
0.366127
-3.60589e-05
-3.02297e-05
-0.0209162
-2.35977e-05
-0.00349073
-0.0111485
-2.42129e-05
0.146703
-8.1133e-05
0.27781
-6.49335e-06
-0.000735426
-9.43756e-05
-1.76789e-05
-0.00541416
-3.62916e-06
-0.0295223
0.000541804
0.0281532
-0.000165748
-0.0606557
0.0792962
-2.14393e-05
0.000930236
-0.000155586
8.62395e-05
-0.000264075
5.40867e-05
-6.70337e-05
-7.78661e-06
-0.00676639
-0.000138397
0.00114091
4.2656e-05
-4.89744e-05
0.387691
-0.179489
-6.76675e-06
0.000178386
8.97493e-05
0.0377858
-0.00228168
0.382476
0.463345
0.065453
-0.018072
2.01078e-05
0.0219281
0.0768664
0.00272093
-1.56399e-05
-0.000888782
-0.256725
-7.34111e-06
0.00170721
-0.000830665
5.45197e-06
0.720821
-5.41175e-05
-0.000124472
-1.42771e-05
-2.29419
-2.52789e-05
0.00111633
0.000748445
0.0667315
3.76969e-06
0.00027932
1.81689
-8.25973e-05
-4.84939e-06
0.383878
2.29738
0.0133891
-0.00305066
-2.328e-05
-8.14938e-05
2.66196
-0.00990404
-2.31391e-05
-0.00028531
-4.2547e-05
0.00109734
0.00117039
-0.00333329
-0.00444216
-0.00393064
0.000172852
0.277567
5.55529e-06
-8.17899e-05
-0.000525233
-0.00765137
-1.05783e-05
-0.0289118
7.85224e-05
-7.24227e-05
-6.47807e-05
-0.0089797
-8.0541e-05
0.00840745
-2.63781e-05
-0.0144753
-0.0218187
0.00102026
-3.75006e-05
-0.0216145
1.33042e-05
0.441352
-0.00846973
-9.83479e-05
-0.0401581
-0.000127264
-0.000329562
-2.91771e-05
-0.307441
0.00324788
-4.17339e-05
-0.151868
0.000133157
-0.000134157
0.383321
-0.0427521
-3.55234e-05
-0.00659501
-7.71032e-05
-0.000414975
-1.02993e-05
-5.04569e-05
0.000320119
4.97716e-05
-2.12561e-05
-2.89852e-05
1.24649e-05
0.261806
-0.00197606
-6.81836e-05
1.78684e-05
-2.45874e-05
0.000994358
0.0146121
-1.96669e-05
-4.81049e-06
-0.00204024
-0.00942923
-1.88209e-05
-4.74834e-05
0.110059
0.0195537
0.0152619
-0.00222447
-0.0159043
-2.5918e-05
-2.26233e-05
0.000499355
-3.06719e-05
-2.28395e-05
-8.83869e-05
-2.38548e-05
-2.39117e-05
-0.684234
-7.98079e-05
0.00112601
-0.0681535
0.000968172
-1.67181e-05
-1.89988e-05
0.305284
0.00050231
0.113449
-9.34014e-06
-4.16383e-05
2.87997e-05
-1.34534e-05
-8.36726e-05
-0.000135481
0.0733817
-0.00452179
1.73212
-4.02133e-05
0.000696239
0.000711794
-0.000127834
-0.00289273
-0.00619098
-4.11566e-05
0.136943
-1.34613e-05
-3.48096e-05
-1.33923e-05
-0.000130686
-1.97259e-05
-6.38007e-05
0.350811
2.24904
-2.08007e-05
-0.0451362
-0.00186642
-4.14697e-05
0.000864988
-0.00190634
0.316721
0.000336195
2.35526
0.0357389
0.0426154
-0.000141137
0.0417442
0.00063061
-0.000148238
-0.0284724
-2.15552e-06
-5.55754e-05
-9.43565e-05
0.00025651
0.000810491
-0.00520357
0.000888747
-9.38379e-05
-3.26218e-05
0.000759113
0.000861031
-7.06612e-05
-0.00271173
0.000978553
0.000548185
0.540618
-5.42993e-05
0.000762029
-0.00935967
-2.90767e-05
-0.00525992
-3.48562e-05
-1.46452e-05
0.0010022
-1.16359e-05
-4.32952e-05
-0.00744473
0.0718783
0.183772
-3.87095e-05
4.21258e-05
-7.64646e-05
-0.0333946
-0.0415254
-6.80164e-05
-5.9371e-05
-4.09679e-05
0.000650023
0.0143522
-1.46891e-07
-1.58706e-05
3.82722e-05
-2.31958e-05
-0.000250585
0.000591803
-1.19003e-06
0.000898139
-2.99427e-05
-3.20058e-05
3.95018e-05
0.383722
-1.3445e-05
0.000143642
-8.70319e-05
0.000690048
0.00057219
0.000454179
-6.95747e-05
-0.0106489
9.87082e-06
0.00045323
0.442581
-0.523162
-0.151122
-2.17503e-05
-3.91936e-06
-9.60555e-05
-3.42683e-05
0.419436
-2.59497e-05
0.437194
0.000324024
1.82981
-0.00331513
0.000117306
-0.0106467
-2.19742e-05
-0.00101649
-5.08651e-05
-9.15956e-05
1.15086
-2.37181e-05
0.00620451
5.0842e-06
-3.10956e-05
-1.17768e-05
-0.00418705
-0.000208113
-9.12477e-06
-0.00171691
0.000957003
0.0249556
-0.0486859
0.356571
0.316243
-1.39764e-05
0.189157
5.67881e-06
1.7488
-0.0218155
-0.000101825
-0.000929814
1.08928e-05
0.000922261
0.00010603
-2.11251e-05
-5.02814e-05
-1.00084e-05
-0.0353696
-3.58189e-05
4.36551e-05
-5.45962e-05
-9.57845e-06
-3.03234e-05
-0.0159217
-0.0393517
-2.289
0.000455196
0.000582101
-0.0135812
0.15959
-2.87211e-05
-0.0418228
-1.35728e-05
-0.00332164
-3.5232e-05
-0.0211741
-2.26252e-05
-0.000637672
-1.6018e-05
0.0388958
0.00104507
0.467672
1.64973e-06
0.000955572
-1.7415e-05
9.30035e-06
0.310828
-0.0126924
-2.06416e-05
-0.0043922
-4.89996e-05
-9.05992e-05
1.11469e-05
0.34642
-3.79968e-05
-0.000143418
-2.44712e-05
-2.17809e-05
-0.00742768
1.08728e-05
-0.00305357
-2.14686e-05
-2.50687e-05
0.506353
2.51214e-05
-6.73526e-05
-1.54478
0.00604465
0.211554
-0.0103314
-2.27572e-05
-0.0010144
0.341106
-0.0351703
0.00041882
-6.09561e-05
-0.0008776
-2.19813e-05
1.27462e-05
0.053213
9.58024e-05
0.000207184
0.398563
0.00104058
0.0493538
-0.0286959
0.000404231
0.00104473
-0.00569175
0.159162
-6.57621e-05
-0.000369997
0.0574151
-2.50455e-05
-4.71909e-06
-3.06002e-05
-0.000135853
-6.3694e-05
0.142259
0.000211083
-2.90257e-05
-0.00050171
4.308e-07
0.430008
-7.94266e-05
9.26525e-07
0.00853035
0.000815965
-0.0158372
-5.79467e-06
-0.000112876
-1.51878e-05
1.71249e-05
0.000523666
-1.10019e-05
0.054691
0.000716552
0.0834574
-0.0211789
0.000136593
0.329751
4.20293e-05
-4.63356e-05
-1.43948e-05
-0.0143192
0.0897362
0.000356779
0.0318199
0.269093
-2.48612e-05
-4.71021e-06
-0.000107758
2.36978
0.00672323
0.00105632
1.50648e-05
0.000143617
-0.0040451
9.75161e-06
-0.0032119
0.00025894
-9.81207e-05
9.11563e-06
-4.15843e-05
0.000531744
-2.32797e-05
-0.0217599
9.21685e-05
-0.000160968
0.15511
-0.000718393
0.468258
-5.30431e-05
2.19796e-05
0.000323666
-0.00163883
1.44347e-06
-0.000973728
-0.0492421
-0.0102406
-3.17129e-05
9.11999e-05
-4.69547e-05
-3.98715e-05
-1.59471e-05
-0.00134312
-0.00237993
-0.0154067
-0.00314465
-2.45055e-05
-0.0291541
0.000181197
0.000268463
-0.00449184
-9.3367e-05
-0.000997947
0.00917195
-1.0135e-05
0.00079168
-0.00174939
0.000272762
-2.5048e-06
-1.82281e-05
1.2837e-05
0.136874
-7.43913e-07
-8.71591e-05
-3.2005e-05
-1.07229e-05
-1.29141e-05
-0.00427024
-0.0202288
-0.00193564
0.0474656
0.00112137
-0.0202151
-1.53184e-05
-0.000206877
-0.00994602
-0.000116449
0.05177
4.55434e-06
-8.61686e-06
-9.00419e-06
9.3589e-05
0.000323996
-2.8757e-06
-0.00309558
5.46012e-05
0.0826722
-3.80225e-05
0.000326759
-1.02676e-05
0.000215417
-0.000744558
0.174262
-0.00270084
4.21348e-06
0.381552
7.74188e-06
0.0911573
8.82725e-05
0.0051358
-5.46914e-06
-3.14538e-05
-3.34729e-05
1.10203
0.000541494
0.132907
0.0119224
-4.00955e-05
0.00033281
-5.68937e-06
0.000645276
-0.00719957
-7.59658e-06
0.00519931
0.000145425
0.00289613
-0.0012807
0.00896229
-1.03371e-06
-2.42939e-05
-0.0039056
-2.41818e-05
-6.1114e-05
-3.21078e-05
2.6911e-06
5.27583e-05
-1.21822e-06
-0.0196576
-0.00010094
0.100975
0.0691052
0.00286789
0.211286
0.163387
-0.235068
0.0224606
-2.48195e-05
-6.65905e-05
-2.52856e-05
-1.15598e-05
-4.0298e-05
0.000533435
-3.0898e-05
-0.0307805
-6.28049e-05
-0.0275282
-2.35476e-06
0.00022879
-0.00367208
-2.82511e-05
0.00113231
7.92545e-06
-7.90248e-05
0.000358639
-1.07269e-06
0.216362
-0.000286667
-0.00676087
-9.76048e-06
-3.24829e-05
-1.85059e-05
5.12209e-05
0.332995
-2.46338e-05
0.00110532
-2.35277e-05
0.0113377
-0.000707209
-2.86515e-05
-0.00104659
-0.00318888
-2.44459e-05
-0.0175041
-0.0404005
-0.000208786
0.000191556
-2.74074e-05
-0.00881798
9.71894e-05
4.90163e-05
0.258442
-2.14807e-05
2.49769e-05
-0.000222593
0.230006
-9.74612e-06
0.0757204
-0.0196863
1.45988e-05
-0.000107473
-6.29058e-07
-0.00956006
-3.16614e-05
-0.0015667
-2.48686e-05
-0.0050578
-0.000746244
-0.0409325
1.81874e-05
1.13597e-05
0.014511
-6.09732e-05
-0.000309562
0.529225
-8.31694e-05
-2.32307e-05
0.364601
1.48402e-06
-5.42934e-05
0.000256079
-4.42237e-05
0.393537
0.00113513
-0.00156434
-0.00983452
0.000139371
0.114181
-0.000117701
0.000597141
-3.55865e-05
-0.0439578
0.0209464
-6.40413e-07
7.86984e-05
-9.70769e-05
-6.73686e-05
9.88993e-06
1.80616e-05
-4.80502e-06
-3.34408e-05
0.000631159
-9.63469e-06
-8.04135e-05
0.000385884
0.29281
0.259659
-0.000186617
-1.76286e-05
0.0136799
-3.23776e-05
-0.0109459
-0.00240986
-0.139484
-2.62588e-05
-2.52159e-05
-4.25795e-05
-5.95184e-05
-2.33286e-05
1.94182e-05
-4.18061e-05
0.00109293
-2.31753e-05
-2.21277
0.229123
-1.51197e-05
1.35464
-3.52753e-05
1.44578e-05
-0.00206276
0.395944
0.000604658
-2.29235e-05
-0.00472465
-4.33891e-05
9.06366e-06
0.0401894
-8.24951e-05
-0.520709
3.25748e-05
-0.026398
-1.42783e-05
2.43553e-05
0.000549034
-0.000557352
1.0822e-05
0.145926
0.00599968
-1.13731e-05
-0.000122961
-3.07581e-05
-1.85097e-05
-0.00129293
0.000154713
0.00019866
-0.0165688
-1.75106
0.00114711
-0.00152528
7.09214e-06
-0.121839
2.97541e-05
0.137668
0.000614136
0.000311244
-3.26192e-07
-0.0770585
0.304953
1.54296
0.000143725
0.0822374
9.257e-07
-3.16493e-05
0.000108562
-9.99335e-05
-2.64267e-05
-0.0304481
0.217641
2.61245e-05
0.000183172
0.154531
5.3828e-06
-2.16834e-05
0.22913
0.449487
-1.65222e-05
6.42633e-06
0.000376178
-2.05406e-05
1.2159e-06
-0.00175233
-0.000283662
-2.66714e-05
0.0219974
0.000150618
-0.225239
-0.00699067
0.00374184
-0.0344495
-3.38407e-06
-8.40922e-06
0.000438462
0.221226
0.000193117
-0.00034216
0.000598466
8.45901e-06
3.34749e-05
-0.000123574
0.181841
-0.000130507
5.18994e-06
0.000761135
-2.14134e-05
-0.00849438
0.00042552
-0.00207899
-0.00107076
-0.0203089
0.0160077
-0.0448646
0.665067
1.42284e-05
-0.0172258
-2.31055e-05
0.000776217
-0.00051392
-0.0228395
0.000222506
-8.60289e-05
0.000285011
0.0643431
-0.000121224
0.335938
0.000971033
-0.00208423
0.322151
-8.74794e-06
-0.00284348
-2.95737e-05
-6.27055e-05
-0.00114439
-0.213399
1.81772e-05
-2.68725e-05
2.57323e-06
2.44942
-2.0918e-05
-9.54892e-05
0.000104215
-0.000111272
-4.09826e-05
-0.00337386
-0.00169565
2.95405e-06
-2.14256e-05
-0.00487756
0.000793839
9.42623e-06
0.19809
-5.02363e-06
-3.32009e-05
0.158419
-8.74785e-05
-0.000100443
0.742108
-0.0758633
-0.000747063
0.00073666
-3.88899e-05
0.0807533
-0.037687
0.000703127
-0.027511
-7.15763e-06
-0.000472281
0.314602
-0.00396631
0.047357
0.0815982
-2.60553e-05
-2.64126e-05
-1.81698e-05
-4.03506e-05
-3.48294e-05
-0.0214179
-1.94293e-05
0.00112159
-1.72803e-05
-0.000808801
0.410192
-5.64494e-05
-0.0238479
0.135449
-3.29758e-05
-0.00182693
-0.000351881
-5.3154e-05
-3.91425e-05
-0.148607
0.000587953
0.194302
0.000348937
-0.67188
-0.00199127
-0.000105111
0.012913
0.000964933
-0.00072662
-2.80758e-05
-0.0122708
-3.87718e-05
9.88836e-05
0.00091224
-0.000317472
9.45353e-06
0.000796336
-0.0657591
-3.71445e-05
-0.0161138
-0.00934509
-6.14601e-05
-3.11133e-05
-0.0005051
2.22839
-0.011016
-3.45228e-05
0.000222541
-0.000491342
0.00849047
0.273904
-2.63227e-05
-3.1623e-05
-2.80049e-05
-3.07269e-05
-6.02643e-05
-0.000119155
2.53167
4.09099e-05
0.000187141
-0.153735
-0.00019514
5.66187e-05
0.481956
-0.312129
-2.79008e-06
-2.17911e-05
-3.23041e-05
-8.35647e-05
-0.00179453
0.281206
-0.00382309
-0.00328417
0.000421684
0.000760063
0.000108276
-0.00360865
5.36194e-05
-0.00109369
-5.07483e-05
0.00374847
-0.00352104
-3.34632e-05
-7.96016e-06
0.581507
0.000959946
-0.142393
0.395797
-0.00679243
-1.44212e-05
-0.0327857
-3.24754e-05
-5.28835e-05
-0.0434876
0.0555742
-5.48044e-05
-0.000710928
-0.00136588
0.00084804
6.5924e-06
-2.24426e-06
-3.14922e-05
-1.93454e-05
-3.98144e-05
0.000656048
0.00101156
0.0714723
0.000889634
0.000316215
0.000514356
-0.00169989
-2.51942e-05
0.000817666
-0.0134766
-0.0269845
0.354662
-0.000152592
-2.71136e-06
-0.0849216
-3.28039e-05
0.00169039
5.3693e-05
0.00111934
-4.90037e-05
-3.26395e-05
-0.0244983
0.000358278
-0.000167103
-3.57876e-05
-0.781121
-0.00594865
0.139762
4.22144e-05
-3.46746e-05
0.0729019
-2.54894e-05
-2.35847e-05
-0.00882996
0.0679676
0.000304217
0.000781859
4.33693e-06
0.972927
-4.6188e-05
-0.000363571
8.7812e-06
-3.85567e-06
-0.0138221
-4.51655e-05
-1.9651e-05
-0.0240122
0.000100732
-0.0535782
0.00300154
-4.57198e-05
0.000604777
-1.07778e-05
-2.1997e-05
-9.9494e-05
-3.43242e-05
-4.23284e-05
0.0139912
-2.71545e-05
0.000122628
-0.00117508
-0.000333048
-1.9724e-05
-0.000406714
7.34468e-06
-0.179307
6.31693e-06
0.128187
0.000233976
-3.3518e-05
0.000705962
0.000781518
0.000659011
-4.65941e-05
0.000735449
-1.38468e-05
-3.38725e-05
-0.117627
8.86892e-05
-0.000416482
-3.92474e-05
-3.40079e-05
5.34122e-05
-0.0040247
-2.33832e-05
0.726628
0.00105431
1.70171e-05
-4.94317e-05
-2.11213e-05
0.00109228
0.0147073
0.257904
0.0466098
0.00386499
-0.000748375
-0.00310992
-0.000327547
-0.00979843
-1.62147e-05
9.72145e-06
0.000182613
-0.0849731
-2.33797e-05
0.432919
-5.7994e-05
-3.80161e-05
-0.00985359
-0.0219861
-0.359469
-0.00442001
0.000303674
-0.0106969
0.0378702
9.44274e-06
0.00575535
-3.45058e-05
-5.5493e-06
-0.0562226
-1.64032e-05
0.634692
-0.00471519
-2.29747e-05
-3.24382e-05
1.70767e-05
0.434662
-2.7111e-05
-1.40537e-06
8.05101e-05
-4.83709e-05
-1.45481e-05
8.64759e-05
-7.10482e-06
0.000561794
-1.32531e-05
4.11279e-06
-2.57068e-05
-0.017267
-0.00351106
-2.54526e-05
-2.56815e-05
-1.87916e-05
-5.03765e-05
0.00014624
3.38817e-05
-6.91051e-05
-1.01554e-05
-5.58002e-05
-7.80605e-05
-3.51434e-05
0.000254475
-1.99493e-05
0.000131057
-2.30613e-05
0.00157729
-3.47965e-05
-3.99679e-05
-1.50616e-05
-1.30678e-06
0.00101235
-0.000715163
0.000198141
-0.231535
0.00728021
0.267594
0.493973
5.22845e-05
1.7557
-3.64594e-05
-3.44188e-05
0.014667
0.338547
8.44116e-05
0.100289
-2.98813e-05
-0.00250416
-0.385601
0.000140976
2.41673e-05
-0.209321
0.0121669
-2.45496e-05
0.000628883
-1.46906e-05
-0.00431102
0.000182489
0.79984
-0.197106
-3.69885e-05
-0.00282105
0.00455822
5.75966e-06
-0.031005
-0.00308382
-2.41273e-05
-3.36942e-05
0.0550613
-0.0442443
7.93113e-06
0.000495368
-9.05823e-05
-0.0464297
-0.00734925
-5.0778e-05
-3.48404e-05
0.107544
-2.74224e-05
-3.31195e-05
1.03473e-05
-2.6667e-05
-0.0232442
-0.00107592
0.000545086
-0.114146
-3.97426e-05
0.000850672
-1.11228e-05
0.0432223
0.000840874
-0.000845436
-3.40864e-05
0.000440259
-6.68295e-06
-4.2566e-05
9.96391e-05
-4.60653e-05
-0.0273828
-5.31828e-05
-2.56919e-05
-3.77332e-05
-0.110597
-3.18832e-05
-0.00505368
-0.045463
0.449456
2.11471e-05
-3.24108e-05
-4.44541e-05
0.133229
-6.98624e-05
2.54459
-2.82914e-05
-0.211116
-6.40715e-05
-7.26619e-05
-0.00742296
-5.93911e-05
7.78705e-06
-0.0282418
-0.0015259
0.469666
-9.77039e-05
2.13138
-0.0172635
-5.44606e-05
0.0857594
-6.7734e-05
-0.000590249
0.152135
-0.000274373
0.000853451
0.207091
8.08748e-05
0.000609539
-2.06676e-05
0.490147
-3.40196e-05
-0.0165848
-4.54226e-05
0.181509
-3.2375e-05
-4.8222e-05
1.83987e-05
0.118224
-2.85957e-05
0.00419802
0.000576949
-0.231274
-4.31557e-05
0.00035753
0.929995
0.0463212
-0.0283981
-0.000531776
-3.48495e-05
-0.00210252
-0.119525
-0.000225169
-0.0167511
1.29677e-05
-0.00585898
-0.124664
-3.20891e-05
0.306769
-4.87317e-05
2.01735
-0.0180478
3.94357e-05
-0.00012193
-0.00728047
0.470612
-3.24055e-05
4.40897e-05
-2.67681e-05
-5.78609e-05
0.381688
0.000344507
-0.0181799
4.41199e-05
0.000440113
0.581217
0.000215036
0.0206294
1.59741
-5.25246e-05
-3.64028e-05
0.00120493
0.0704694
-0.0563139
-0.0899017
-0.00626281
0.00105932
-0.00285093
1.74802
0.293103
0.0296189
-3.49535e-05
-0.000313411
0.00112667
-0.000371585
-3.90382e-05
0.000241541
0.000678031
0.00737083
0.499703
6.51599e-05
-0.0873599
-0.0704853
0.00107885
-3.46856e-05
-3.44265e-05
0.498317
-3.60111e-05
0.286015
0.000493493
0.000553843
-0.0171008
-0.00668347
-2.62366e-05
0.000963921
0.00059552
-3.83088e-05
0.482575
-3.77665e-05
0.293375
-5.32683e-05
0.199903
-0.00701121
-0.00252957
-2.03936e-06
0.000232856
0.000250648
-0.000470501
-0.00607472
0.00044502
0.272198
0.0312347
-9.82117e-06
0.000241304
-0.000109281
-0.00300867
0.213886
6.02221e-06
-2.61914e-05
-7.97444e-06
-0.0193766
0.0156375
-5.73734e-05
0.00107736
-0.0146149
-2.72635e-05
-0.00725424
-0.000139828
0.368208
-0.000860882
0.0166673
2.83491
0.000538561
-0.000208198
-0.0153375
-3.03555e-05
0.0011385
0.352087
-2.58482e-05
-0.00110317
0.00019272
0.000244432
0.0235457
1.67286
-2.21053e-05
-0.0850218
0.0392949
-1.7612e-05
-0.00214711
0.000636597
-0.00573079
-0.0363592
-0.0152113
0.13249
-0.00315134
0.366415
0.000316906
-0.00148526
-9.49259e-06
-8.32116e-06
-3.88565e-05
-1.63954e-05
-0.0176268
-0.000667205
1.82391e-05
0.00137406
-0.00191857
-3.042e-05
0.0579791
0.488078
1.06675e-05
-6.84471e-05
-8.60639e-06
-0.000132905
0.000500358
-3.3654e-05
-0.580314
0.000600496
0.000287739
-0.00037596
-0.000136437
-0.00115116
-0.000504661
-0.0337309
-3.90181e-05
-0.000134431
1.68712e-05
-4.78316e-05
1.189
-0.00289601
0.000283225
-0.357238
4.46065e-05
-0.000108075
0.000233838
-3.18492e-05
-3.0105e-06
-0.000957758
0.000268821
0.261721
-0.371196
1.5002
-2.09607e-05
2.85482
-4.23221e-05
-0.00484015
-2.64023e-05
-0.00280938
-0.0833936
-4.01835e-05
-0.0256138
0.138722
0.000599813
-6.40136e-05
-2.46406e-05
0.000329741
-0.0225655
-2.73923e-05
-8.0275e-06
-5.34025e-06
2.71754e-06
-5.98121e-06
-2.31162e-05
0.000286033
-4.90347e-05
-3.59367e-05
-0.014805
0.000890303
-0.000305733
-0.00299779
0.410092
0.904863
0.0663493
-6.00556e-05
-0.000154358
0.326646
-4.03477e-05
0.00070896
-1.53239e-05
0.69003
3.19403e-05
2.56373e-05
-0.000494783
0.212831
-3.8064e-05
-3.44506e-05
-1.59482e-05
-0.00360878
-1.6754
-0.00583274
-3.48749e-05
-0.000324712
-2.14222e-05
-0.15542
-4.85899e-06
-0.0344471
0.000256519
4.38103e-05
-0.0149611
-0.000180536
-0.00493105
1.09093e-05
-1.88277e-05
0.000667783
0.00096505
-0.00746111
-1.13397e-05
-8.78244e-05
1.69463e-05
0.475344
-3.68161e-05
-3.03845e-05
1.80917
-7.65366e-05
2.59323e-06
0.000208492
-1.81759e-06
-7.31141e-05
-0.172826
9.17803e-05
-0.237462
-0.0790392
-8.16591e-07
-0.402892
-4.51276e-05
-0.00341705
0.00103061
-2.24378e-05
-6.6707e-06
1.06929e-06
-3.42764e-05
-0.0819524
0.000501741
-0.179099
0.397936
-1.33296e-05
-0.00699885
0.00106489
-0.0176441
-3.29525e-05
0.00227254
1.80239
0.186767
-2.87116e-05
5.21849e-05
-1.04321e-05
0.00996466
1.29475
0.00042947
-4.59222e-05
0.000671694
-0.786141
-1.57372e-05
6.47135e-05
-0.000194353
-0.00239716
-0.0101509
-2.0168e-05
0.362782
-0.00108582
-3.59567e-05
-0.0379832
0.000389148
-0.281248
0.0741691
0.000635179
-0.000597599
-3.145e-05
-8.62053e-05
-0.00010217
-0.00856059
0.00125661
-7.09294e-05
0.000194275
0.0122812
-0.0572053
-2.71193e-05
-0.00462753
1.68782
-0.498865
-7.73041e-05
-2.75718e-05
-0.144722
-0.00974642
0.121276
-3.45841e-06
2.43451
-0.00111973
-3.46889e-07
0.0834582
0.000334844
-6.67545e-05
-0.0138395
4.23965e-06
0.02146
-3.42568e-05
1.87701e-06
1.68832e-05
-1.59571e-05
0.0970235
4.62372e-06
-4.69746e-05
0.000190517
0.000199516
-0.000282714
-0.00255863
-5.0617e-05
-3.17982e-05
-3.73958e-05
-5.5363e-05
0.00526041
-0.00379933
-0.0161425
-0.0639162
-0.0013924
-0.0360216
-0.00109002
0.699643
-0.330257
0.188808
-1.38523e-05
3.65832e-05
-3.18228e-05
-5.22091e-05
-5.34542e-05
-9.82394e-05
0.0054101
-0.000329126
0.000987317
-3.04293e-05
-3.55277e-05
-0.000622952
-1.27747e-05
-8.62951e-05
-5.34018e-05
-0.225964
0.000715043
0.207838
-2.08135e-05
-0.09849
-8.82449e-05
3.56817e-05
-9.21953e-05
0.000452154
-2.16697e-05
-0.00071676
0.345223
0.00116138
-0.0375599
-0.149098
-2.54105e-05
0.000439547
0.0194607
-0.00505736
-2.71214e-06
-4.7814e-05
9.86475e-07
0.413849
3.74749e-06
0.101806
-0.000530452
-0.000317103
-0.0514058
0.0410668
0.000471328
0.482309
-7.7895e-07
-1.79204e-05
-0.0296673
1.9517
-3.82595e-05
-2.00306e-05
0.296181
-3.53083e-05
-0.0118612
-4.6699e-05
-5.8364e-06
4.35444e-05
-2.65069e-05
0.000244106
0.402312
0.259791
0.000222157
-3.2403e-05
-0.000849059
3.76826e-07
-0.00100139
-1.67705e-05
-0.0032786
-0.00114186
-8.68398e-05
-6.28369e-05
-3.64178e-06
-0.00824476
0.0008174
0.00415216
-0.0222876
0.000609443
0.0862864
5.49174e-05
-0.00227872
1.71367
-4.26147e-05
0.404078
-1.02643e-05
-0.238972
-0.0107402
0.382155
0.42479
1.11876e-08
0.000852709
-0.0497923
1.65626e-05
0.201078
-4.90202e-05
-2.97016e-05
0.000295974
6.46122e-07
0.000545743
-0.037051
0.169785
1.04507
0.000304383
0.00111575
-5.73164e-05
5.55404e-05
-1.51395e-05
-0.00890672
-0.000408762
0.149028
0.00107028
1.67511e-05
-2.54156e-05
-7.77209e-05
-0.0353245
-0.000182501
-8.75076e-05
0.000171215
-0.00244256
0.000601724
0.00104947
-0.00193836
0.442541
0.000570214
0.000652119
-3.23819e-05
0.00029685
-0.0268009
0.0101721
0.00124139
-3.18568e-05
-0.0425376
0.000822424
-3.96854e-06
0.00105013
0.505777
-0.0208029
0.00069695
-3.43034e-05
0.308392
-8.84112e-05
-2.74967e-05
1.26555e-05
-0.0607793
-0.0171542
-2.83733e-05
-0.025287
-0.0228827
-3.68363e-05
-0.00173544
0.000670919
0.292027
0.000671176
1.58873
-9.89876e-05
0.00103193
-5.40388e-05
0.533029
0.000785372
-3.88712e-05
0.612468
-4.53536e-05
-5.83235e-05
-0.0464429
2.823
0.0095624
-0.0195006
0.00016951
3.49287e-05
-0.0377956
-8.34291e-06
-4.28178e-05
-2.25965e-05
0.00108843
-3.3456e-05
-0.000383843
-3.21416e-05
0.00924099
-0.013799
1.44769e-05
0.136371
-2.34032e-05
0.359619
-0.0305143
-2.30492e-05
-1.42515e-05
0.000266118
0.0222265
0.0221886
0.000519832
0.40815
0.341849
0.0139307
-7.16002e-06
1.81915
0.298298
-0.000198895
-0.0119737
-6.00784e-05
4.77773e-06
-2.23685e-05
-0.000142437
-5.24152e-05
0.000642447
0.193126
-0.0011608
-0.138007
-1.22679
2.77403
1.10878
1.09321
-0.00101673
1.05247
-0.0022596
-0.000159039
-2.65323e-05
9.99715e-06
0.000492024
0.026891
1.71607e-05
-0.0194501
0.867869
-1.17122e-05
-2.04531e-05
-9.04727e-05
-0.0021108
-0.000100658
0.000135423
0.414038
-2.69082e-05
-4.56189e-05
-1.29641e-05
-1.0777e-05
-0.00141763
0.275023
0.000820357
1.25052
-0.00471629
-3.59864e-05
-0.0343665
-0.0112202
2.13573e-06
-0.0176261
-0.0156871
0.222456
-0.0385071
0.0705069
5.11352e-06
-0.000853864
0.238627
-0.0109236
0.213172
-5.03456e-05
-0.000114443
2.45184e-05
0.000108301
1.14292
0.000508202
-1.7152e-05
0.00040501
0.0115935
0.116486
-1.6051e-05
-0.000643279
0.166563
1.21016
-9.90432e-06
0.000327256
-0.00342679
-4.31914e-05
-3.66371e-05
-0.0472163
-2.98863e-05
-0.020689
-0.0540038
1.84391
-2.13057e-05
-0.000154531
-0.0042447
-2.77291e-06
8.41112e-06
-0.886489
-0.0546256
5.58537e-05
-0.000700316
-0.00927463
-0.0152398
0.896991
-0.0218386
0.000225256
-0.0108555
-0.00285377
0.000949031
-4.79494e-05
0.00957595
-1.38043e-05
1.09595e-05
0.238677
0.00102138
-0.00222331
0.000194744
0.000148421
-3.50327e-05
-3.68255e-06
7.56716e-06
2.0518e-05
-0.0315074
0.000172293
-0.0238208
0.0863941
0.00112263
0.000549868
-0.0269082
1.18437
-0.0391903
6.40396e-05
0.000233516
0.00095817
0.000204624
-0.0127422
0.00375494
9.38332e-06
-0.0190409
-0.0279176
0.000226012
-0.000408809
0.00041607
-0.000781659
-0.00132566
4.45106e-05
-0.00131254
-0.00293271
-0.00299905
-0.00187926
-0.00130008
-0.000175849
-0.000101259
-4.65042e-05
0.000810821
-0.000241591
-2.59479e-05
-0.0218349
0.661502
-0.0159367
0.630738
4.94233e-06
-2.85845e-05
0.0035059
-0.0146627
1.83199e-05
-0.000171029
-0.00142358
-0.913999
0.262236
-4.68305e-05
-0.000133688
0.000250947
0.523213
0.0152542
0.00014499
-0.0115389
0.153718
-0.00109487
1.46774
-0.00198328
0.00150372
0.859163
-4.95826e-06
0.522954
-0.0473358
-6.9658e-05
-0.000245169
-0.00386665
-0.000589063
-3.31752e-05
-0.0233927
-0.000290645
2.27167e-05
2.29313e-05
0.01438
-0.034492
-0.000952707
-4.95911e-05
0.0032693
-0.00493881
0.74227
-0.0631249
-2.24348e-05
-3.93875e-05
1.29029e-05
-3.50735e-05
1.70485
0.259587
0.535631
-0.000199275
-0.00234775
0.0202544
-1.72513e-05
-3.64966e-05
0.083781
-4.8324e-05
1.39511
-7.07653e-07
1.38737
3.15804e-05
-0.000136275
-0.437339
-4.08517e-05
-0.00149231
0.0150719
-3.76902e-05
-0.000270262
3.72533e-05
0.011606
0.190526
-0.0101865
0.499397
-2.58736e-05
-2.28882e-05
0.000467019
-0.000771486
0.366767
0.171029
-0.0040718
0.00411425
-0.001667
-0.0281142
-0.000361844
-4.01356e-05
-2.73361e-05
-2.69637e-05
-0.00797404
-0.00582703
0.0162326
0.00115209
-0.00381892
-1.27874e-05
0.00100314
-0.336957
0.369314
-3.4561e-05
4.30556e-05
1.60049e-06
0.250975
0.000466005
0.109979
-0.00987043
-0.00126101
-0.00320392
-1.22716e-06
0.000898318
-0.0102051
-0.00674193
-0.0281449
-4.61898e-05
-0.00277983
-0.000102212
3.25387e-05
-0.00467626
-0.0221394
-0.0191605
-7.59402e-05
-0.0024261
-0.0229511
1.22986
0.141375
1.92437
1.93905
-1.2952e-05
0.000722349
4.13795e-05
-0.00286081
-5.57811e-05
-0.00563841
-0.000252216
0.000969819
-0.00422938
0.00136847
1.38686e-05
-0.00364084
-0.0101415
-0.0027992
-0.000301553
0.0412649
-0.00194401
-4.70303e-05
6.96874e-05
1.62954
0.00057579
-0.00892505
-0.0070698
0.00097235
0.232066
-1.38501e-05
-0.0107613
0.377008
0.0660327
-0.0489533
0.00074791
-0.000953044
-0.000730056
1.70721
0.025532
6.45856e-06
-0.028035
9.47568e-05
-0.0152116
0.000245912
0.432721
-0.0256215
-0.0253837
0.00025548
0.100869
3.91745e-05
0.289635
-0.0107002
-0.0287166
-0.0138667
-3.22219e-05
4.10891e-06
0.115287
1.19881
0.0123925
-3.99199e-06
0.00117516
-0.00111952
0.00870216
0.00272401
-0.082663
0.000208805
-0.142429
-0.00737629
-0.0987477
1.68313e-06
-0.0150419
0.938986
-3.86367e-06
-0.00111072
-3.43345e-06
0.000182229
-1.81258e-05
-0.00601939
-2.99489e-05
-1.76811e-05
0.44548
0.0204615
-2.68984e-05
0.533722
-3.11221e-06
7.1409e-06
-4.05623e-05
-3.66775e-05
-8.08723e-06
-0.0221926
0.985476
-2.19793e-05
-0.0218439
0.00040982
0.000403259
-0.0217304
-0.000475701
0.000190082
0.000411198
-5.00503e-05
0.0011889
-0.000164309
0.433528
-6.08173e-05
0.404977
-0.0219193
9.20659e-05
0.977191
-0.163584
-2.57296e-05
0.108474
0.000839714
0.000657832
-0.00155546
-1.34457e-05
-0.00127322
-0.0091492
-2.14263e-05
-0.00152022
-4.73121e-05
2.22851
-0.002307
-0.0480812
0.00368044
4.85935e-05
1.28564
-4.42867e-05
-6.06109e-05
0.000463569
-1.03438e-05
-1.26197e-05
-1.10768e-05
0.000266672
-1.05728e-05
-4.28397e-05
-2.02114e-05
0.00121377
4.0561e-06
0.00019796
-6.21771e-05
-0.00183742
-0.00314037
2.65457e-05
2.09697
3.20447e-05
-4.38177e-05
-0.000708989
0.00031068
-5.11899e-05
-5.58302e-06
-0.0333292
8.96723e-05
0.0592948
0.000108884
-0.00462699
-4.22672e-05
1.8069e-05
-0.00565554
0.495246
0.000512779
0.000797243
-1.74693e-05
0.712782
-1.69818e-05
-4.36635e-05
0.000168491
0.00015793
-0.00660282
0.0334871
-0.0010688
-0.0214923
0.00114545
0.212271
-3.55418e-05
-2.8844e-05
0.000237111
-0.0209623
0.000398686
-0.00302323
0.487485
0.000261874
-2.99934e-05
0.000480814
0.00619515
-0.00042661
-2.03717e-05
-0.00116907
-0.00178509
0.000599598
-7.66829e-06
-1.62747e-05
-0.0116502
0.000576791
0.401944
-0.0350267
-0.000313461
0.000486625
-1.0686e-05
0.000405672
-0.0274795
-5.24432e-05
-0.00897932
-0.00513523
-0.00127182
-0.0217628
-2.37736e-05
-1.66005e-05
-4.7022e-05
0.872817