/*--------------------------------*- C++ -*----------------------------------*\
| =========                 |                                                 |
| \\      /  F ield         | OpenFOAM: The Open Source CFD Toolbox           |
|  \\    /   O peration     | Version:  v2012                                 |
|   \\  /    A nd           | Website:  www.openfoam.com                      |
|    \\/     M anipulation  |                                                 |
\*---------------------------------------------------------------------------*/
FoamFile
{
    version     2.0;
    format      ascii;
    class       surfaceScalarField;
    location    "650";
    object      meshPhi;
}
// * * * * * * * * * * * * * * * * * * * * * * * * * * * * * * * * * * * * * //

dimensions      [0 3 -1 0 0 0 0];
oriented        oriented;


internalField   nonuniform List<scalar> 
20642
(
-0.00121764
-0.000195896
0.00141354
0.0039396
-0.0067469
0.00279719
0.000772329
0.00120124
-0.0019737
0.000717676
-0.00533304
0.00458331
0.00546055
-0.00792591
0.00243465
0.0068902
-0.00296389
-0.00219614
0.00477371
-0.0025856
0.00814295
-0.00462561
-0.00352336
0.00211246
0.00199822
-0.00411846
0.00120401
0.000182508
0.00355853
0.00457786
0.00697523
-0.00601372
-0.00102122
-0.000276145
-0.000222934
0.00468022
-0.00710266
0.00241962
0.00567047
-0.00756153
0.00186776
-0.000112318
-0.00110532
-0.000178683
-0.000139975
0.000211015
-0.00798137
0.00351703
0.00445768
0.00290889
-0.00206156
-0.00084772
-0.00147224
0.000809152
0.000663084
0.00567665
-0.00368703
-0.0019981
0.00131602
0.00457885
-0.00596511
0.00169314
0.00147372
-0.00316852
-0.00517377
0.00641281
0.00641239
-0.00333343
-0.00309823
-0.00603233
0.00239192
0.00363215
-0.00500028
0.00281929
0.00218016
0.00120401
-0.00711475
0.00261726
0.0044894
-7.97288e-06
-0.000170997
0.00017449
0.00105763
0.000146388
0.0036547
-0.00130644
-0.002349
-0.00646366
0.00431607
0.0021136
-0.00142541
0.000719243
0.000706167
-0.000334663
0.00494689
-0.00469519
0.000613967
-0.00524463
0.00521611
0.000593533
-0.00583371
0.000176527
-0.000641789
0.000144957
-0.00438535
0.00218187
0.00357888
-0.00543663
0.00185143
2.56352e-06
5.33994e-05
-0.000130178
0.0030159
-0.00454557
0.00147909
-0.00587627
0.000691859
0.00517012
0.00124275
0.000981472
-0.00222454
0.00261837
-0.00137601
-0.000812532
0.00247275
-0.00166061
0.00507897
0.000585858
-0.00194873
0.00118204
0.00076668
-0.00331293
-0.00300529
0.00631619
0.00364255
-0.00404413
0.000625445
0.00628564
0.00100968
-0.00311461
0.00210421
-0.00079883
0.00131091
-0.000512084
-0.00603762
0.00707403
-0.00110894
-0.00753794
0.0057178
0.00175119
0.00263082
-0.00162167
0.00105763
-0.00162857
0.00331978
0.00465694
-0.00169367
-0.00289346
0.00208042
0.00317418
-0.00168748
-0.00148675
-0.00235583
-0.00351938
0.00583862
2.30963e-05
1.76206e-06
-3.55282e-05
0.00233926
0.00405113
0.00131634
0.000161503
-0.00147788
-0.000322718
0.000205436
0.000115647
0.00296591
-0.00697815
0.00400518
0.00492748
-0.00431828
-0.00442914
0.00135168
-0.000816497
-0.000535187
0.00039582
0.00123262
-0.00162849
-0.00103774
-0.000387674
0.00744893
-0.00635394
-0.00116975
0.00346478
0.00112969
-0.00578269
0.00208784
0.00771368
-0.00392
-0.00381412
0.0049374
-0.00744726
0.00247706
0.00469291
-0.00129143
0.0030255
0.00466421
-0.00402948
-0.00245769
-0.00495348
-0.00237106
0.0072687
-0.000205981
-0.000206387
0.000264666
0.00100631
0.00635622
-0.00202636
0.00121495
0.000811358
0.00342498
-0.00308246
-0.000650334
0.00718913
-0.00302536
-0.00416795
0.00199804
0.00165576
-0.0010033
-0.000779433
0.00140264
0.00516763
-0.00159558
0.000114456
-0.000386428
0.000127879
0.000409034
-0.000632718
-0.00419024
0.00407313
-0.00738838
0.000533437
-0.00498089
0.00435757
0.00124256
0.00536059
-0.00665091
-0.00415613
-0.00657843
0.00354281
0.00303387
-0.000313366
-0.000230608
0.000348204
-0.0019199
0.00061801
-0.00335347
0.0054981
-0.00214728
-6.85542e-05
-4.89012e-05
7.85176e-05
1.93361e-05
-0.000116104
-0.00690552
0.00190439
-0.000726548
-0.000105793
0.000654209
0.00788261
-0.00298892
0.00144938
0.000144141
-0.00159355
0.001229
0.000234673
-0.00146368
0.00441729
-0.00681507
-0.0013961
-0.00319867
-0.00236825
-0.00263297
0.000934322
-0.00261571
0.00153697
-0.000817733
0.00674123
-0.00413144
-0.00041278
0.00172909
-0.000413196
-0.00395922
0.00435594
0.00165902
0.00124942
0.000348831
-0.000424817
-6.11081e-06
-0.00132129
-0.000970706
0.00229183
-0.00156113
-0.00453923
0.00601672
-0.000551276
0.00020441
-0.00460957
0.00168164
0.00285964
-0.00276018
-0.00422506
-0.00169617
-0.00110529
0.00280079
-0.000862794
0.00139073
-0.000527933
-0.000890449
-0.00113593
-0.00574847
0.00197821
0.00374926
-0.00190343
-0.00388736
-0.00488207
-0.00113599
0.00591556
0.00104759
-0.00274431
0.00420092
-0.00123336
-0.0029706
-0.00129354
0.00320551
-0.00191271
0.0016151
-0.00102545
-0.000589659
-0.00481929
0.00438763
0.0029652
-0.000839102
-0.00212667
-0.00521948
0.00285025
-0.00311578
0.0016223
0.00149342
-0.000750353
-0.000530834
0.00128119
-0.00688492
0.00268859
0.00418747
-0.00015927
-0.00661056
0.00678527
-0.000177326
0.00164102
0.00298857
-0.000512297
0.00196165
-0.00132076
0.00533532
-0.00412163
0.00656473
-0.00598916
-0.000655703
-0.00383958
-0.000842428
0.00464093
0.00157879
-0.00118302
0.00789707
0.000388747
0.000883113
-0.00127187
0.00120806
-0.00732458
-0.00381399
0.0053393
-0.00153218
6.89304e-05
2.18555e-05
-0.000126639
0.00559177
0.000887151
-0.00254189
-0.00403815
0.00684607
-0.00557426
-0.00132686
0.0001308
-0.00102564
0.00100187
0.000389322
-0.0013912
-9.45545e-05
-0.000123888
0.000139991
2.5317e-05
0.000254437
0.00620653
-0.00491347
-0.00150004
0.000706899
0.00109997
-0.00180693
-0.00782009
0.00282307
0.00497447
0.00013036
-0.0010578
-0.00117772
0.00223547
-0.00549532
0.00283227
0.00266137
0.000314821
-0.00117756
0.00238009
-0.00120257
5.25685e-05
-5.17979e-05
-2.12351e-06
-0.00252828
-0.00436512
0.00967782
-0.00566069
-0.00408889
0.000495454
0.00100557
-0.00150103
0.00515499
0.00333438
-0.00218581
-0.00114872
-0.000894712
0.00294982
-0.00205633
7.68195e-05
-0.000202571
7.50465e-05
-0.00425406
0.00494263
0.00145296
-0.00311907
0.00166548
0.00135118
0.00284595
-0.0043768
-0.00346245
-0.00520919
0.00562751
-0.000432568
0.00442258
0.00583419
-0.00526223
-0.000603009
0.00201215
-0.0014094
0.00074404
-0.00206549
0.00218504
-0.00347944
0.00611216
-0.000336896
-0.00257924
0.00197587
-0.000253808
0.000241261
0.00381252
0.00337266
0.00261682
-0.00351313
0.00147281
0.00114516
-0.00289173
0.00136688
0.00152445
-0.000870391
0.00141568
-0.000545293
-0.003489
0.00395404
-0.000641038
0.00138162
-0.000740585
0.00136561
-0.00480567
0.00342957
0.0009705
0.000644588
-0.00116413
0.00602915
0.00568753
0.00109724
-0.00247458
-0.00317232
0.00563577
-0.00108351
-0.000336936
0.00142045
0.000304058
-0.00105441
0.0069132
-0.00516956
-0.00177115
-0.00326984
0.00420386
-0.000934708
-0.00453551
-0.00158761
0.00611145
0.00134716
-0.00303086
-0.00166224
0.00517208
-0.00759851
-0.00417192
0.00501062
-0.000973678
-0.00840824
0.00366312
0.00472267
-0.00566521
-0.00276275
0.00157078
0.00231721
0.000647463
-0.00335091
-0.00076234
-0.000899498
0.00166181
-0.000293635
0.000858971
-0.00090786
-0.000138867
-0.00178363
0.00185586
-0.00180694
0.0016047
0.00111581
-0.00311671
0.00162996
0.00148633
0.00113847
-0.00277419
0.0016354
0.00426212
-0.00402748
-0.00056864
-4.40883e-06
1.93657e-05
-0.00270501
-0.00251527
0.000669876
0.00252155
-0.00165143
-0.000941011
0.00147355
0.000971072
-8.94422e-05
3.56032e-05
-9.53329e-05
-0.00177409
-0.00188359
0.00172412
-0.000811215
-0.000226527
-0.000849113
-0.000917285
0.00176638
-0.00741585
0.00449347
0.00286707
6.61479e-05
-0.000102672
3.07982e-05
-0.00244884
-0.00132034
0.00376796
0.000623563
-0.00134717
0.000723604
-0.000319964
0.000111345
0.000127594
0.000181565
0.00372415
0.00164135
-0.00491185
-0.00103411
-0.000705917
0.00174
-0.00110489
0.000807296
-0.00156966
0.00148066
0.00200985
-0.00349153
0.00339767
-0.00481331
0.00106602
0.00131403
0.000506583
-0.00295644
0.00254254
0.00419151
0.00334141
-0.00228129
-0.00106088
0.00500117
0.00188344
0.000721651
-0.000889289
0.00483063
-0.00400856
0.00474013
-0.00347195
-0.00127105
-0.00407085
0.00248323
0.00158578
-0.00834135
0.003321
0.0049588
-9.39959e-06
-0.00342808
-0.00642882
0.00814754
-0.00175655
0.00385989
0.00132923
-0.00525695
0.00135523
-0.000535551
-0.00081968
-0.00609492
0.00143058
0.00466284
-0.00492842
0.00159012
0.00326217
-0.000272696
0.00166721
0.00143434
-0.00706214
-0.0017469
0.00139734
-0.00550379
-0.000997805
0.000223992
0.00410705
-0.00292894
-0.00118147
-0.00206437
-0.00293083
-0.00128531
0.000831115
-0.000533121
0.0017621
-0.00837049
0.00274116
0.00552155
0.00574614
-0.00814774
0.00236226
0.00129545
0.00180375
-0.00309963
0.000237925
-0.00164606
0.00135613
0.00181908
-0.00435427
0.00253292
0.000795236
0.000559994
0.00159329
-0.0014059
0.00066831
0.000683373
-0.00138906
0.00517871
0.00196261
-0.00125578
-7.34802e-05
9.62433e-05
-0.00515944
-0.00189783
0.00703179
-0.0050415
-0.00334562
-0.00541629
-0.00119723
0.00648392
-0.00174852
0.00234257
-0.000594302
-0.000456757
-0.000314101
0.000497792
-0.00286836
-0.00262869
0.00145861
-0.00456347
0.00309743
4.7033e-05
-0.00392264
-0.00225855
-0.002098
0.00435539
-0.000534632
-0.000208536
-0.000182399
0.00226676
-0.00387402
0.00160542
-0.00713961
-0.000578125
0.00767647
0.000953843
-0.00511233
0.00414106
-0.00191528
0.00734152
0.00665078
-0.00364386
0.00129388
-0.00518729
0.00381294
-0.00111848
0.000385359
0.00191834
-0.00345937
0.00154021
0.00171192
-0.00654665
0.00481004
0.00253573
0.00220054
0.00180632
0.00482377
-0.00294084
0.00291576
-0.000264535
-0.000427481
0.00142934
-8.38557e-05
-0.000999654
-0.00450822
-0.00121974
0.00562394
0.000536994
-0.00176993
0.0012148
-0.00388166
-0.00572709
-0.00151115
0.00722463
0.00204414
-0.00213774
9.33882e-05
0.00172356
-0.000209816
-0.00151376
0.000916462
0.00241784
0.00014833
7.82369e-05
-0.000228057
0.000463411
0.00274105
0.00770683
-0.00200005
0.00194551
-0.000730606
-0.00693684
0.0011962
-0.00109656
0.00186879
-0.00079269
0.000169124
0.00683169
-0.00118523
0.00445994
-0.00101379
0.00631281
-0.00535701
-0.000777671
-0.00597917
0.00256743
-0.00109503
-0.000268667
-7.76894e-05
0.000234903
0.00129604
-0.00080059
0.00231609
-0.00226648
-0.000388005
0.00161639
-0.00326277
0.000440934
0.00142875
-0.00190823
-0.00107451
-0.000397729
-0.00256146
-0.000436044
0.00282936
-0.00447539
0.00209433
0.00237754
-0.00644939
0.00190325
-1.73691e-05
0.000164218
-0.000436389
5.03226e-05
-0.00149511
-0.00136971
0.00286417
-0.0014555
0.00192936
-0.0004739
0.00112321
-0.00588426
0.00471074
-0.00625317
0.00518194
0.000724482
0.000812485
-0.00166208
-0.000117678
0.00177973
-0.000454539
0.00194117
-0.00148675
0.00629326
-0.00161626
-0.000145231
0.00167574
-0.00730198
0.0045518
0.00269352
-0.000828813
-0.000839588
0.00166838
0.00281443
-0.0023519
-0.00189747
0.00168491
-0.00909885
0.0060572
-0.00479762
-0.00131373
0.00600508
-0.00358635
-0.00242382
-0.00194287
-0.00298009
0.00139957
0.00158
-0.00420952
0.00242546
0.00178256
0.00427648
-0.00246023
0.00250619
0.000235545
-0.00274322
0.000776428
-0.00146394
0.000687514
-0.00590094
0.000919223
-0.00494757
0.00602016
-0.00473472
-0.00321038
0.0008061
0.00125981
-0.00206611
-0.00016427
0.000159747
-8.60099e-05
-0.00106629
-0.000991025
0.00349549
-0.000646419
0.00266638
-0.0033483
-0.00424781
0.00199116
-0.00396561
0.00197325
-0.00128296
0.001802
0.00240203
0.00442657
-0.00683161
-0.00146726
-0.00255387
0.00397659
-0.00144106
-0.00159839
-0.00415123
-0.00230869
-0.00365989
-0.0048042
0.000789517
0.0011151
-0.00190471
-0.00149874
-0.000483076
0.00194832
0.00134212
-0.00239997
-0.0012621
-0.00390527
0.00239403
0.00647255
0.000312298
-0.00578972
0.00543144
-0.00228822
0.00162923
0.000651121
-0.00405733
0.00145153
0.0025078
-0.000460148
0.0012693
-0.00210975
-0.000188462
0.00764371
-0.00436338
-0.00330198
-0.00505816
0.00235249
-0.00253102
-0.00225609
0.00478426
-0.00732302
0.00232561
0.00496406
0.00145543
-0.00271824
0.00126272
-0.00228903
0.00128439
0.0043034
-0.00661696
0.00228819
-0.00254972
0.000800943
-0.0048575
0.00719521
-0.00239894
0.00262731
-0.00516137
0.00219967
-0.000998559
0.000120433
-0.00257447
0.00481244
-0.00224496
0.00573585
-0.00394647
0.00620543
-0.00475478
-0.0015967
0.004525
-0.00268196
-0.00204113
-0.00565235
-0.000109835
0.00566037
0.00554735
-0.00271687
0.00211397
-0.00543939
0.00328419
0.00124859
0.00470013
-0.00603895
0.00548646
0.00155912
-0.00713196
-0.00263918
0.00412827
-0.00149128
0.00021944
-0.00580462
0.0055791
0.000258139
-0.00165454
0.00135134
6.45767e-06
3.96277e-05
-0.000606549
0.00265043
0.00406824
-0.00207848
-7.2134e-05
-0.00545495
0.00256533
0.00504906
0.00143702
0.00119738
-0.00263456
-0.00334991
-0.00224929
0.00559809
-0.000240772
-8.43705e-05
-0.00231178
0.000249887
0.00114597
0.000799482
0.00340312
-0.000699694
-0.0027548
-0.0016264
-1.75552e-05
0.00159347
0.00598029
-0.0043798
-0.0016119
0.00240084
0.00191297
-0.00141264
-0.00414355
-0.00142523
0.00136509
0.000789916
0.00256175
0.00101819
0.00117322
-0.00219145
-0.0069428
0.00202738
0.0049597
-0.00242325
-0.00254101
0.00129251
-0.000461391
0.0033196
-0.00105468
0.000643245
-0.00494682
-0.00110098
0.00660437
0.00238501
-0.000929666
0.00412385
-0.00661101
0.00026157
-0.00112436
0.000328054
-0.00179528
0.00142556
0.00211582
-0.004789
0.002515
0.00050599
-0.0020382
0.000149331
-0.00209539
-0.00100541
0.00619693
0.000961909
-0.00620169
0.00519495
0.002904
-0.00146719
-0.00335587
-0.000883742
0.00420578
-0.00154643
0.00480424
-0.00285477
0.00457502
-0.00197719
-0.00260071
-0.00323037
-0.000669249
0.00386818
0.0067226
-0.00159933
-0.00191526
0.00339493
0.00178875
-0.00224343
0.0050407
0.00096255
0.00208518
0.00288318
-0.00496892
0.00485217
-0.00479515
-0.000186674
-4.60379e-05
-0.0013861
0.00116812
-0.0013837
0.00679045
-0.00555597
0.0058219
0.00370615
0.000877408
-0.00472439
0.000877334
0.000159828
-0.00139598
-0.00145294
0.000988251
-0.000680252
0.00424738
0.00180385
-0.00406333
0.00240217
-0.00150746
-0.000894943
0.00113392
-0.00141536
-0.000130903
0.00229497
-0.00332107
0.00102441
-0.000676879
0.00255274
-0.00216726
0.00216005
7.17124e-06
0.00159355
0.00240994
-0.00400905
-0.00151797
0.0024947
-0.00201644
-0.000487279
0.000660472
0.00182699
-0.0048691
0.000282448
-0.00409491
0.000833899
-0.00235277
-0.00280042
0.0017454
0.00105482
-0.000426633
0.000466109
0.00533247
0.0016699
-0.00468291
-0.00266413
-0.00214571
0.00480257
0.00502453
-0.00126281
-0.00376915
0.00229389
-0.00186353
-0.00043053
-0.00157626
0.00312667
-0.0015515
-0.00531814
0.00338292
0.00189416
-0.00245287
-0.00573037
0.00713746
-0.00362567
-0.00518746
0.00248573
0.00269839
0.00497271
-0.00289952
-0.00282862
-0.00427531
0.00442132
-0.00140036
-0.00302385
0.0044788
-0.00302757
-0.00241017
0.00105862
0.00135149
0.000860537
-0.00277978
-0.00241063
-0.00151319
-0.00160641
0.00335553
-0.00205062
-0.00150713
0.000671031
0.000593909
-0.00126494
-0.00118859
0.000922932
-0.00170827
0.00180043
-0.00346441
0.000823406
0.00170154
-0.00141239
0.000674801
-0.00131175
-0.00156764
0.00348506
-0.00145803
0.00100471
0.002976
-0.00492333
0.00194705
0.00430013
0.00169626
-0.00130772
0.00500965
-0.00372386
-0.0047344
0.00307325
0.00162358
-0.00114852
-0.00155986
0.00270816
-0.00169777
-0.00159759
0.00329499
0.00641478
-0.00158113
-0.00488336
0.0068503
-0.00504345
0.00375309
0.00108885
-0.00434057
0.00234983
0.00198866
-0.00188484
-0.00463803
0.00651634
0.00125279
0.00447899
-0.00582428
-0.00038212
0.000119346
-0.00169517
0.0073197
0.0045891
0.00147918
-0.0052899
-0.00161073
0.00686234
0.00155261
0.00252836
-0.00408652
-0.000124218
-0.0029754
0.00139811
0.00170599
0.00143713
0.00543904
-0.00824461
0.00272104
0.00454981
0.0011675
-0.00149918
0.000566888
0.00093228
0.00101237
-0.00131814
0.000198976
-0.00210699
-0.00277025
0.00486517
0.0052154
-0.00395321
0.0025996
0.00197204
-0.00309942
0.00111902
0.00197927
-0.00386284
0.00509707
-0.00123918
-0.00112242
0.00219178
0.00562829
-0.00499044
-0.000664482
0.00436991
0.00157902
-0.000608527
-0.00107417
0.00209234
0.00079093
0.000501574
-0.00416849
-0.00128547
0.00534859
-0.00533424
-0.00149353
0.00674506
-0.00277167
-0.0025761
-0.00193215
0.00612666
-0.00430078
-0.00111755
0.00180661
-0.00068909
-1.23197e-05
-0.00168482
-0.00502631
-0.00210502
0.00712803
0.00473984
-0.00338509
-0.00178131
0.000746159
0.00103514
0.00114171
-0.00452967
0.00143927
-0.001203
-0.000236263
0.00362506
-0.00444672
0.000699983
0.00162493
-0.00232554
0.000260519
-0.000767581
-0.00537585
0.00170826
0.00361383
-0.000842823
-0.000938503
0.000224516
0.00143219
0.00191719
-0.00180236
-0.00011493
-2.64768e-05
-2.41466e-05
3.29754e-05
-5.41762e-06
0.000757216
-0.00679731
0.00182349
0.00047022
-0.00657571
0.00124925
0.00113666
0.000447741
-0.00165494
-0.00259539
0.00147479
0.00112027
-0.001532
0.00382526
0.0037187
0.00333195
0.00232752
-0.000748786
0.00017174
0.00124525
-0.001417
-0.00156057
-0.000606751
-8.46108e-05
0.000998571
0.000157681
0.000735763
-0.000893444
4.73867e-05
5.28018e-05
-0.000120191
-0.00105532
0.00267759
0.0032017
0.0046896
-0.00167387
-0.00375033
-0.000534412
0.00191096
-0.00139503
8.06812e-05
-8.95908e-05
0.00292912
0.00148912
0.00146626
0.00414714
-0.00147357
-0.000636087
0.000247628
2.92087e-05
-0.000714322
0.00027476
0.00120093
0.00112651
0.00390926
0.000988254
-0.0050353
-0.00332642
0.00189414
0.00143142
0.00676391
-0.00150345
-0.000470663
0.00153345
0.000117456
-0.000284064
0.00336014
-0.000887872
0.00214497
-0.00179281
-0.000352258
0.000879862
0.000559404
0.00176948
0.001571
-0.00242717
0.00397444
0.00247001
-0.00169819
-0.000771975
0.00130075
-0.000677183
-0.00133245
-0.00281867
0.00158525
-0.00276379
0.00117839
0.000254623
-0.000616659
-0.00205576
0.0026852
-0.000629768
-0.00591765
0.0038856
0.00192479
-0.00113536
0.00579643
-0.00134507
-0.00743476
0.00578714
-0.000269593
-0.00579219
0.00652207
-0.00334289
-0.000765777
0.00410524
0.000519044
0.000966004
-0.00148508
-0.000227369
0.000400642
-0.000281366
0.00254266
0.001561
-0.00696239
0.00426918
0.00261725
-1.52251e-06
5.50227e-05
0.00138265
-0.000606228
0.00241009
0.00285523
-0.00526751
0.0061204
-0.00408835
-0.00209121
-0.0016087
-0.00137188
-0.00301912
-0.00159985
-0.00349643
0.00504357
5.90204e-05
-2.00462e-05
0.000732218
0.00065043
0.00648643
-0.00274451
-0.00704477
-0.00139563
0.00134021
0.00286001
0.00320379
-0.00104458
0.00185051
-9.59716e-05
8.34321e-05
-0.00113899
0.00265537
-0.00151684
-0.000183631
-0.000240796
0.000272713
0.000428647
0.00245136
-0.00306574
-0.00274281
-0.00132912
-0.000977724
-0.000574264
0.00115177
-0.000577509
0.00193774
-2.06428e-05
-0.00510647
-0.00155665
0.00665613
0.00111163
-0.00262524
-0.000954244
0.00443463
-0.00288219
-0.00469784
-0.000580249
-0.000918933
0.00205523
-0.001632
-0.0004233
0.00178
0.00418841
0.00485928
-0.00428532
-0.00251799
-0.00495186
-0.000503241
0.000194509
0.000408555
-0.00524961
0.00475077
-0.000106003
-0.000122458
-0.00319946
0.00146714
0.00173129
0.00410905
-0.00543364
0.0013128
-0.00135865
-0.00105158
-0.00395085
0.00060465
0.00131265
0.00487087
-0.00618878
0.00148504
-0.00318313
-0.00477585
0.0064646
-0.0042835
0.00214574
0.00213424
0.00291479
-0.00154832
-0.000678859
-0.0037634
0.00238526
0.00364668
-0.00605961
-0.000124631
1.92082e-05
0.00278733
-0.00253805
-0.00019411
-0.000461011
0.000106362
-0.000307397
-0.00157015
-0.00319893
0.000841978
-1.1666e-05
-0.00115292
0.000813826
-0.000656146
-0.0021676
0.00411978
-0.0019549
0.000199396
0.000791186
-0.00120053
0.00137731
0.00118966
-0.000530099
0.000218474
0.000546983
0.00117656
-0.00514592
0.00368689
-0.00572046
0.00448682
-0.000952624
-0.00050541
0.00107468
-0.0028254
0.00174969
0.00281583
0.00100069
-0.00538263
0.00583904
-0.000507046
0.000538842
-0.0018271
0.00126316
0.00130235
0.00418545
-0.00558217
0.00475084
-0.00479354
1.65258e-05
0.00299157
-0.00311803
0.000123039
-0.00486126
-0.00130854
0.0060535
0.00130255
-0.000738131
-0.000564415
0.00486536
-0.000777064
-0.00409505
-0.00498847
-0.00180277
0.00678549
-0.00096025
0.00377242
0.00591216
-0.00355341
0.00110609
-0.00093436
-0.00489646
0.0035674
3.19152e-05
-0.000586808
0.0003937
-0.00416753
0.0013146
-0.000519364
-0.00208252
-0.000908631
-0.00390595
-0.00102638
0.00128795
0.00218048
-0.00722239
0.00503818
0.000594482
-0.00332921
-0.00571416
0.00110369
0.00523692
-0.00626714
-0.0015732
0.00104657
-0.00379176
0.00273723
-0.00369777
0.00553218
-0.000811055
0.00236111
-0.00447937
-0.00203681
0.00173929
0.00592337
-0.00149511
0.00289418
0.00129471
-0.00346459
-0.00134248
0.00665517
-0.000130202
-0.0039182
0.000424557
-0.000551736
-0.00113261
0.00411903
0.00565855
-0.00101643
0.00109517
-0.00546638
0.00435395
-0.00558449
0.00362129
0.00192379
-0.000937432
0.00137988
-0.00044245
0.000244657
-0.000379808
0.000131252
-0.00499728
0.00717421
-0.000319861
0.00515638
-0.00699944
0.00489651
0.00208911
-0.00456102
0.00348873
0.00106367
0.00177165
0.000283509
0.000212314
-0.000560232
-0.00310796
0.00132568
0.00178144
0.000409971
0.00173492
0.000187495
-0.000142922
-4.46488e-05
0.00640479
-0.00458175
-0.00193109
-0.00403299
-0.000114515
0.000641229
0.0064643
-0.00334792
-0.0032443
-0.000397523
-0.00601015
0.00632429
-0.00213316
0.00639991
-0.00428465
-0.00405914
0.00265121
0.00070848
-0.00263456
-0.0032338
-0.000903907
0.00400312
0.00213119
-0.000812247
-0.001319
0.00413534
-0.00214357
0.000928674
-0.00359875
0.00130565
-0.00235182
-0.00500552
0.00239953
-0.00170017
0.00543138
-0.00188944
0.00124255
-0.00149238
0.000158171
-0.00180821
0.00288183
-0.00207771
-0.0015043
0.00358072
-0.00208092
0.00337344
0.00119878
0.00304031
-0.00432742
0.00370559
0.00116536
-0.00385493
0.0041889
-0.00115343
0.00628619
-0.00200863
0.00133811
0.00385929
-0.00526471
-0.00206819
0.00368275
0.000940317
-0.0059143
0.00109123
0.0039628
-0.00517068
0.00281594
-0.000185601
0.00256142
-0.00483288
-0.00139319
0.00620933
-0.00510816
0.00175739
0.00343472
0.00256472
-0.000695944
0.00412373
-0.00458089
-0.00107091
-0.00640534
-0.00220029
0.000941192
0.00125896
0.00364453
-0.00536727
0.00101829
-0.0061217
0.00506944
0.000258018
-0.000302966
-0.000285574
-0.000333583
0.000499667
0.00532495
0.000868087
-0.00624822
0.00135717
0.00420722
-0.0055801
-0.00499755
0.00113047
-0.00297301
0.00408577
-0.000519892
0.00176419
-0.00125444
-0.00552655
0.00689918
-0.00143857
-0.00253103
0.00572859
-0.00470399
-0.00229759
0.0038859
-0.00138963
0.000210951
-0.00249286
0.00164855
-0.00108046
-0.00109704
0.00217742
-0.00625909
0.00141053
-6.17387e-05
0.000230401
-0.00131502
0.00110519
-0.00327989
0.00579743
-0.00253951
0.000846071
-0.00550502
0.00415444
-0.0045414
0.00659552
-0.00206656
-0.00769118
0.00550709
0.00214037
-0.00138873
-0.00367157
0.00495927
0.00197233
0.00432067
0.00152415
-0.000445392
-0.00107877
-0.00291369
-0.00159867
0.00450645
-0.00628857
0.00117529
0.00299988
-0.00525017
0.00299911
0.00332597
-0.00339946
0.00131634
-9.34232e-06
7.24843e-05
-0.0043399
-0.00160436
0.00590589
0.00198821
-0.0066229
0.00462717
-4.91302e-05
-5.67e-05
0.00223921
-0.00158635
0.00495023
-0.00337624
-0.00645161
0.00189805
-0.00110285
0.00276145
0.00743898
-0.0055691
-0.00188432
0.00254465
0.000358784
-0.00299471
0.000619397
-0.000124503
-0.000613825
-0.00209135
-0.00211949
-0.00432342
-0.00550836
-0.00121119
0.00665061
-0.00633902
0.00467169
0.00164012
-0.00515006
-0.00144773
0.006514
-0.00306075
0.000377997
0.00209411
0.00614691
-0.00301857
-0.00313149
0.0050319
-0.0064202
-0.000920466
0.00121273
-0.000292264
0.000571046
0.00147232
0.00503943
-0.00652298
-0.00153475
-0.00266124
0.00474583
-0.00103278
-0.00730336
0.00577823
-0.00291943
-0.000231858
0.00297537
-0.00153432
-0.00329047
0.00477405
0.00770471
-0.00314128
-0.00465622
0.00567832
-0.00447292
-0.00123374
-0.000936881
-0.00405149
0.000935248
0.00417523
-0.00522181
0.0044077
-0.0041928
-0.00668475
-0.00192768
0.000830386
0.00109723
0.0045696
0.00167922
0.00395326
-0.00262259
-0.00133418
-0.00233647
0.00397634
-0.00164148
0.00134523
0.00388558
-0.00532589
-0.00203437
-0.00340711
0.00145724
-0.00475754
-0.00188748
0.00579006
-0.00395485
0.00502941
-0.00241542
-0.00262213
-0.00192689
0.00141047
0.00144708
-0.000628267
-0.00170216
-0.00149815
0.000440337
-0.00151538
0.00106506
-0.00549692
0.00417729
-0.00436548
0.00570594
0.000409169
0.00583925
0.00155866
-0.00714993
0.00240067
-0.00301379
-0.00024164
0.0030812
0.00506948
0.00420433
0.00145235
0.00290277
-0.00102662
-0.00188004
0.00217382
-0.00722802
0.00502743
-0.00644015
0.00446539
0.00186224
-0.0014836
0.0020548
-0.00560067
-0.00363608
0.000440637
0.00272271
-0.00121531
0.00479475
-0.00706615
0.00224405
-0.00255659
0.00093284
0.00317883
-0.00424013
0.00291983
-0.00183941
0.000469157
0.00134147
-0.00552722
0.00702261
-0.000736676
-0.00072727
1.17874e-05
0.000490413
-0.00427087
-0.00108768
0.00257909
-0.00120226
0.00067686
-0.000535689
-0.00132855
0.00159583
0.00549761
-0.00710496
-0.00113647
-0.00106394
-0.00175441
-0.00288334
0.00458892
-0.00806664
0.00617856
0.0018405
-0.00672527
-0.000781761
0.00568095
-0.00518003
-0.000684594
-0.00128382
-0.00131183
0.00341456
0.00208181
-0.00555028
-0.000760475
0.0014315
0.00455442
-0.00647495
0.00200631
-0.00379439
0.00178773
-0.00448646
-0.00116112
0.00149956
-0.00037394
-0.000899537
-0.00122031
0.000842983
-0.000339963
-6.3109e-05
0.00030417
0.000992743
0.000586259
0.00674713
-0.00194865
-0.0048302
0.000447363
-0.00358936
0.0029712
0.0055978
0.00164844
-0.00725636
-0.00435445
-0.00490193
0.00331526
-0.00163323
-0.00191545
0.00619311
-0.00153036
0.0020289
0.00292586
-0.0018461
0.00278053
-0.000934983
-0.00234826
-0.00279669
0.00514516
0.00128696
-0.000487493
-0.00079947
0.00180539
-0.00669681
0.00485019
-0.00170738
-0.00546473
-0.000303602
0.00561487
0.000492939
-0.00121855
0.000725614
0.000881099
0.005842
-0.00541941
-0.000465925
0.00187929
-0.0014393
0.00556083
-0.00411852
-0.00149982
0.000495975
0.00135325
-0.0013819
0.00327523
-0.00194906
-0.00141117
-0.00295936
0.00430581
-0.00639393
0.00460991
0.00166183
-0.00256802
0.00417255
-0.00161007
-0.000152578
0.00130453
0.00471562
0.00199863
0.00282314
-0.00172818
-0.00109562
0.00242516
-0.00106146
-0.00136375
0.000998159
-0.00207869
0.0012965
0.00128208
-0.00530825
0.00098059
-0.00189052
-0.00073809
-0.00510917
0.00569693
0.00220655
-0.00126549
0.00455838
-0.00644987
0.000539387
0.00267803
-0.000843111
-0.00188864
-0.00333938
0.00172845
-0.000799583
-0.00128802
-0.00493839
-0.00187834
0.00674721
0.0019852
0.000643005
-0.00154465
0.00201795
-0.00433031
0.00562221
-0.0014558
-0.00217702
-0.00210979
0.00344551
-0.00316966
0.000805393
0.000393688
-0.00119908
-0.00135049
-0.00387215
-0.00101016
0.00473838
0.00103055
0.000493593
-0.00031376
-0.00529829
-0.00451373
0.00432507
0.00592914
-0.00154863
0.00142296
-0.000690743
-0.00465752
0.00187498
0.000197944
-6.96446e-05
-0.00018729
0.00383913
-0.00440238
0.0054337
-0.00112772
-0.00129134
0.00204807
-0.000797665
-0.00125046
-0.00494207
0.00530799
-0.00269845
-0.00261085
-0.0049728
0.000675695
-0.00345367
-0.00300868
0.00535172
-0.00192625
-0.00227608
0.00414603
-0.00537578
0.00219562
0.00555663
0.001866
0.00462303
0.000988926
0.000728122
0.000572622
0.0056847
0.000143089
-0.00586118
-0.000250734
-0.000613942
-0.00284467
-0.00526016
0.000441991
0.00454445
-0.00512985
0.00444729
-0.00250383
0.0013909
0.00111256
-0.00375943
0.00203873
-0.000637539
0.00473497
0.000489198
0.000825399
-0.000562011
0.0013674
0.00732237
-0.00178307
-0.00109656
-0.0014076
-0.00282073
0.00434538
-0.00129266
0.000799651
0.000493009
-0.00220507
0.00383196
0.00180584
-0.00287333
0.00106733
-0.00185913
-0.00397662
0.00139565
-0.00281028
-0.0021688
0.00495564
7.88097e-05
0.00280805
-0.00288719
-0.00176962
0.000746917
0.00102266
0.000453609
-0.00185406
0.0013776
0.00678941
0.000237885
-0.00146181
-0.00383784
0.00467273
-0.00171622
-0.00164224
0.00662712
0.00509475
-0.00173256
-0.00214843
0.00358376
-0.00143615
0.00105782
-0.000887156
-0.000170669
-0.00418802
-0.001499
0.000667877
-0.00134506
2.04116e-05
-6.31071e-05
-0.00207559
0.000289159
0.00173772
0.00219667
0.000958098
0.000728785
-0.00168691
0.00479493
0.000854141
7.09438e-05
-4.3602e-05
0.00328555
0.00148229
-0.00532222
0.0063436
-0.001109
-0.00455915
0.00429383
-0.00644541
0.00704233
-0.00483136
-0.00222884
0.00554484
0.00205256
0.00697924
-0.001445
0.00187598
0.00310411
-0.00399676
0.000868333
0.00653964
0.00613959
-0.000487123
0.000566018
-0.00136154
0.000795526
0.000261755
-0.00569106
0.00612333
-0.00159187
0.00180594
3.92072e-05
-0.00185914
0.000688411
0.00198526
-0.000366873
-0.00183549
0.00154486
-0.00593591
-0.00562087
0.00597465
-0.000393313
0.000268364
-0.00526082
0.00128066
-0.00184163
0.00128787
-0.0020195
-0.00359996
0.00109038
-0.00670307
0.00555563
-0.00335704
0.00184768
0.00150818
0.000856
-0.00571539
1.02781e-07
0.000186123
-0.0025307
0.00320101
-0.000671129
0.00148157
0.000920348
0.00311479
-0.00178991
0.00116492
-0.00274868
0.00158346
0.00387863
-0.00283986
0.00160449
0.00129931
0.00104125
-0.00137258
0.000331329
0.000159721
-0.000643944
-0.00160956
-0.001541
-0.000577615
0.00389284
-0.0015451
0.00199853
-0.00331997
-0.00187328
-0.00475486
0.00452718
-0.00101961
-0.00351737
-0.00350365
0.00516209
-0.00135613
-0.00337899
0.00472511
-0.00449667
-0.00450265
0.0067976
-0.00162866
-0.00108966
-0.00249211
0.00414435
-0.00165586
-0.00352873
0.00144985
0.000864121
0.00159204
-0.00245625
-0.000566708
0.0024441
-0.000986198
-0.0014582
-0.00407486
0.00186466
-0.00687065
0.00555267
-0.00601878
0.000432541
-0.000539748
0.00361863
0.000398041
0.00115395
-0.00158548
-0.00291328
-0.000919946
0.00370212
0.0017957
-0.000813153
-0.000956498
0.000900149
0.00292661
-0.00399266
-0.00654954
0.00457034
-0.00405251
-0.00488622
-0.00674893
0.00371259
0.00297466
-0.00150754
0.00393145
-0.00111825
0.00246809
-0.00135037
-0.00521523
-0.0054835
0.00121178
0.00231544
0.00382739
0.00186087
-6.80092e-05
0.00213535
0.00474155
0.000862347
0.000424609
0.0063059
-0.00500602
-0.00134693
-0.00586569
0.00426747
0.00142942
-0.00300651
0.00495312
-0.00387354
-0.00210648
-0.00447143
-0.000411682
0.00145292
-0.000726645
-0.0024457