/*--------------------------------*- C++ -*----------------------------------*\
| =========                 |                                                 |
| \\      /  F ield         | OpenFOAM: The Open Source CFD Toolbox           |
|  \\    /   O peration     | Version:  v2012                                 |
|   \\  /    A nd           | Website:  www.openfoam.com                      |
|    \\/     M anipulation  |                                                 |
\*---------------------------------------------------------------------------*/
FoamFile
{
    version     2.0;
    format      ascii;
    class       volScalarField;
    location    "650";
    object      p;
}
// * * * * * * * * * * * * * * * * * * * * * * * * * * * * * * * * * * * * * //

dimensions      [0 2 -2 0 0 0 0];


internalField   nonuniform List<scalar> 
13917
(
-0.0449567
-0.000122618
-0.0685196
-0.0329886
-0.000372214
-0.00135621
-0.0483414
0.0141972
-0.0618698
-0.0706863
0.0119488
-0.0233738
-0.0198505
0.0165508
-0.003855
-0.0424969
-0.000792049
0.0101218
-0.0668971
-0.0558508
-0.00820276
-0.00598565
-0.0597284
-0.00577096
-0.0283225
-0.00492422
0.0191789
-0.0707757
0.00347767
0.000217973
-0.0702006
-0.0804797
-0.0277728
-0.0407708
-0.00128423
0.01153
-0.0136387
-0.00691101
-0.0496411
-0.0163037
0.00019402
1.59919e-05
-0.0555244
-0.0738525
-0.072759
-0.0505993
-0.00941909
-0.0544016
-0.0214767
-0.00136163
-0.0230329
-0.0496183
-0.0375014
-0.0148084
-0.015944
-0.0509602
-0.0662433
-0.0583053
7.84302e-05
-0.048869
-0.13762
-0.00208675
0.000118332
-0.0283398
-0.0557061
-0.00424081
0.00566298
0.0113423
0.01165
-0.033656
-0.0583511
-0.0386794
-0.0315851
-5.95805e-05
-0.00819158
-0.0230282
-0.00207795
-1.09505e-05
-0.0232267
-0.0279773
-0.00962354
-0.00111395
-0.0312499
-0.0592232
-0.0146797
0.0190598
-0.0799357
-0.0143185
-0.015642
-0.000809361
-0.000532103
-0.0568026
-0.0231124
-0.00158738
-0.0135504
0.00487621
0.0118733
-0.00248876
-0.0145594
0.00425341
0.00017995
0.000166274
-0.00971587
-0.00300153
-0.00199418
-0.0917102
-0.0592178
-0.00263213
0.000103102
0.0225241
-0.0208366
-0.042189
0.00267263
-0.0623869
-0.0557459
-0.0207167
-0.067036
-0.00010092
-0.0688767
-0.0302855
-0.00114285
-0.000292046
0.00715883
-0.0583784
-0.0435036
-0.0580231
-0.0291456
-0.00718461
-0.00290702
-0.0595227
-0.0694648
-0.0146758
-0.070971
-0.0200592
-0.0798748
0.0214333
-0.153272
-0.0754602
-0.00277971
-0.00678137
-0.00254878
-8.57746e-05
-0.0962187
-0.00848896
-0.0295423
0.000635176
-0.058109
-0.00250498
-0.0658942
-0.0150201
-0.0162827
0.000241346
-0.0292224
-0.0305474
0.0127447
-0.00281966
-0.00294789
-0.0799792
-5.27018e-05
-0.000108783
-0.0124522
-0.0627032
-0.0082581
-0.00685349
-0.0759959
0.00760837
-0.0368783
-0.0721466
4.49073e-05
-0.0017205
-0.00535125
-0.0562128
-0.062155
-0.119516
-0.037369
0.000179784
-0.0337171
-0.0495113
-0.0689385
-0.00759991
-0.0537187
-0.00555879
-0.0224546
-0.0598583
-0.0678832
-0.011746
-0.0221095
-0.0595465
0.000374288
0.0167319
-0.0357068
-0.0732818
-0.0583011
-0.0501654
-0.00163132
-0.0406515
-0.0307212
-0.073361
-0.00127188
-0.00316456
-0.0115612
-0.0344377
-0.0721283
-0.0119093
0.0188259
-0.00148269
-0.0167854
-0.000208369
-0.0505126
-0.00915122
-0.00364685
0.000350977
0.000496336
-0.0607536
-0.0803645
-0.00388283
-0.057577
-0.0095384
-0.000269528
-0.000245548
-0.0682926
-0.0587217
-0.0609421
-0.020717
7.6589e-05
0.0249773
-0.0393663
-0.000323808
-0.000342122
3.93184e-05
-0.000211157
-0.000190049
-0.0401648
-0.0578222
-0.00793079
9.83625e-05
-0.0485156
-0.0366487
-0.000228587
-0.0205253
0.0212
-0.103938
-0.0595883
-0.0570132
-0.0371564
-0.00871722
-0.0691515
-0.0497315
0.0014666
-0.0664964
-0.0124296
-0.0642728
-0.0306185
-0.0287566
-0.0379528
-0.00725966
0.000248576
-0.029137
-0.000128412
-0.00142192
-0.0444886
0.00641549
-0.000703647
-0.00040528
-0.00275699
-0.000435311
-0.03084
-0.0199842
-0.0452115
-0.0006236
-0.0906054
-0.0579039
-0.0195287
-0.000979655
-0.0491924
-9.54966e-05
0.00109343
-0.0459074
-8.98954e-05
-0.0348461
-0.00140426
-0.0638522
0.000155207
-0.00458305
-0.00704689
-0.00747719
-0.0625277
-0.00546579
0.00904946
-0.0264806
0.00716719
0.000563983
0.0106986
-0.0880224
-0.000218354
-0.0529037
-0.000257808
-0.0187639
-0.000307866
-0.0242042
-0.00152468
-0.00539655
-0.0460518
0.00386681
-0.0286002
-0.0244236
-0.0201716
-0.0761447
-0.0334747
-0.00269867
0.0011947
-0.0195729
0.00109369
-0.0895638
-0.0579872
-0.109471
-0.00183213
-0.0166425
-0.00100226
-0.0598217
-0.00113442
-0.0696104
-0.0195441
-0.00394542
0.0176328
-0.0042232
0.000241614
-0.0721614
-0.000550081
-0.0562772
-0.0144838
-0.0874171
3.74569e-05
-0.0551344
-0.0052786
-0.0301316
-0.00108612
-0.00111625
-0.000508253
-0.0688514
-0.0833351
-0.0144699
-0.00399392
-0.0417836
-0.0903146
-0.0774192
0.0207425
-0.000112941
-0.00914212
-0.111178
-0.0196292
-0.000128046
-0.000139014
-0.0187944
-0.000967158
-0.0300748
-0.0568413
-0.0248467
0.0016136
-0.0819317
-0.0465577
-0.00284894
-0.0150023
-0.000215567
-0.0640217
-0.000352292
-0.0487161
-0.0822586
-0.00531672
-0.0157231
-0.0227149
0.00106437
-0.0311256
0.000434168
-0.0609334
-0.0510615
0.00010115
-0.0195277
-0.0608626
6.78207e-05
-0.0763416
-0.0590103
0.000552558
-0.0285969
-0.00582862
-0.00144525
-0.00179199
-0.0600356
-0.00134578
-0.0163793
0.0272429
0.00045944
-0.0127241
-0.0743568
-0.118601
-0.0179341
-0.0621451
-0.0103484
0.00227541
-0.0684836
-0.0146561
-0.0544372
-0.0252852
-0.00805925
-0.00814005
-0.00294819
-0.170115
0.00641824
-0.0153683
-0.00251078
-0.00635919
-0.046361
0.00160434
-2.14846e-05
4.46161e-05
-0.0886264
-0.0201122
-0.00746692
-0.0166952
-0.0902528
0.00767953
-0.00527513
-0.0674593
-0.0617845
0.000276752
-3.0565e-05
-0.00835186
-0.00817911
-6.57709e-06
-0.00768323
-3.67506e-05
0.000221339
-0.0635128
-0.0104945
-0.0177084
-0.0881712
-0.051348
-0.00364333
-0.0285716
-0.0729664
-0.0102859
-0.0433629
9.011e-06
-0.0204655
-3.59991e-05
-0.000134857
-0.0135991
-0.00516837
-0.0874928
0.0019172
-0.0990232
-0.0201744
-0.0636014
0.00170164
-0.00910078
-0.0388617
-0.0794719
-0.0190003
0.0117728
-0.00378884
-0.00768987
-0.00631777
-0.00609753
-0.00362642
-0.0123185
-0.0719648
-0.117951
-0.00362575
0.0105855
-0.0849711
-0.0202076
-0.0513946
-0.103651
-0.0670917
-0.0576626
-0.0916935
-0.00274902
-0.00270249
-0.00538852
-0.00275967
0.00160092
-0.0122666
-0.0681954
-0.000612468
-0.015106
-0.014105
-0.0576021
-0.0116107
-0.067669
-0.066203
-0.000109938
-0.00065605
0.00943839
-0.0164901
-0.0150201
0.00951728
-0.0506777
-0.0275981
-0.0853331
-0.0148056
-0.0157807
-0.0505327
-0.00646426
-0.0831573
-0.0079593
-0.000135373
-0.0473658
6.96366e-07
-0.00910751
-0.0436082
-0.102098
0.0252711
-0.0126124
-0.0389763
-0.000511284
-0.0684448
-0.0415836
-0.0147875
-0.0156163
-0.0125073
-0.039548
-0.00715889
-0.00233059
-0.000341396
-0.00322501
-0.00834082
0.00257502
-0.0372567
-0.000539193
-0.0651099
-0.00648751
-0.00677144
-0.025563
-0.0548361
-0.00121059
-0.0460003
-0.00137424
-0.0629432
-0.0543695
0.00350055
-0.0386615
0.00477591
-0.0235398
0.00783882
-0.0716612
-0.0613548
-0.090511
-0.00253202
-0.00596125
2.43322e-05
-0.0208146
-0.0547227
-6.33359e-05
-0.0157469
-0.0317345
-0.0587785
0.00267071
-0.0548631
-0.0702001
-0.00346399
-0.0948788
-0.0024505
-0.00150824
-0.0568492
-1.02359e-05
-0.0793216
0.000144255
-0.0201828
-0.00596575
-0.0682633
0.0026771
-0.000567644
-0.0765308
-0.0504782
-0.00464327
-0.059276
-0.0875077
-0.0677319
-0.00125608
-0.0357783
0.000201222
-0.156227
-0.00207061
-0.00153682
0.000697718
0.000284184
-0.0500718
-0.0531244
-1.1374e-05
-0.00249668
-0.0176594
-0.0602561
-0.0135313
-0.0808919
-0.0148289
-0.0005608
-2.51644e-05
-0.0508441
-0.0645897
-0.0653451
-0.0662305
-0.0382066
-0.0624723
-0.036444
-0.0017253
-0.0719334
-0.0188276
-0.107751
-0.020444
-0.0609689
-0.00822819
0.00215293
-0.0301205
-0.00581967
-0.0474101
-0.0559363
-0.000778483
-0.0451979
-0.00141369
0.000269488
-0.0484549
0.00784314
-0.00110624
-0.0573018
-0.0203646
-0.00125703
0.000240216
-0.0480511
-0.0138162
-2.33676e-05
-8.45771e-05
-0.00122326
-0.0637569
0.000134353
-0.0590886
-0.00143832
-0.00567987
-0.149399
-0.0814282
-0.0146647
-0.08145
-0.0809325
-0.00713834
-0.0496902
-0.00345585
-0.00348025
-0.0553329
-0.0990006
-0.00931029
-0.014272
0.00221094
-0.00144174
-0.00374583
-0.00291597
-0.0535565
-0.0269745
-0.0890296
-0.0483948
-0.00536426
-0.0480419
0.00395572
-0.0341826
-0.0588148
-0.0354221
-0.0015121
0.00255515
-0.00227927
-0.00587171
-0.00115174
-6.35318e-05
-0.000472106
-0.0104039
-0.0369793
-0.0783325
-0.00364208
-0.0722346
-0.000800862
-0.0571655
-0.00141233
-0.00270958
-0.100233
-0.0553551
-0.00666794
-0.0314479
0.000591228
-0.00222222
-0.0361957
-0.0502651
-0.00660951
-0.0548716
-0.0261567
-0.00849622
-0.00619489
0.00271404
-0.0889326
-0.0385639
-0.00302786
-0.00129034
-0.044895
0.0295092
-0.0305167
-0.0451495
0.00183152
-0.00533349
-0.00262683
-0.0127584
-0.0832014
-0.00481486
-0.0462914
-0.0354884
-0.0455167
-0.110048
-0.00135779
-0.0577032
-0.0774212
-0.0134196
-0.0275674
-0.00319626
-0.0493046
-0.00044561
-0.118437
-0.0172967
-0.00128202
-0.050029
0.000597527
-0.0036152
-0.0149445
-0.00184687
-0.035642
-0.098063
-0.00110513
-0.0959569
-0.0642263
0.00107488
-0.0216372
-0.0181281
-0.0104147
-0.0195838
-0.0300911
-0.000798538
0.00194672
-0.0489466
-0.0586272
-0.00329304
-0.11382
-0.0607272
-0.0572691
-0.0583199
-0.00883301
-0.0929634
0.0113198
-0.000805524
-0.0563711
-0.0336816
-0.0755292
-0.00412694
-0.003808
-0.00358887
-0.0335526
-0.0269912
-0.00143508
-0.0851597
-0.00664048
-0.00343397
-0.0512971
0.00990927
0.000509646
0.0103406
-0.00221118
-0.118835
-0.0305818
-0.00196128
-0.0618455
-0.00155398
-0.00305177
-0.000616893
-0.00126815
-0.0300042
-0.0157725
0.00384515
-0.0040343
0.00163004
-0.00275589
-0.00468593
-0.0155716
-0.058385
1.10146e-05
-0.0655796
-0.00449982
-0.0686668
0.000970949
-0.000579079
-0.0563909
-0.02677
-0.0421203
-0.0528757
0.00255534
-0.00194507
-0.00238744
-0.0215614
-0.0486372
-0.0472784
-0.0044415
0.00832039
-0.0194737
-0.075139
7.16761e-05
-0.00174781
-0.0114625
8.63464e-05
-0.0686412
-0.0478626
0.00304652
-0.0664477
0.00282687
-0.00073099
-0.00159034
-0.0240226
-0.00330005
-0.0140251
-0.0190976
-0.00563373
-0.0843075
-0.00073124
0.0130995
-0.0128383
-0.0399268
-0.0454235
-0.00107703
-0.105594
0.0132261
-0.040132
0.000422377
-0.00447855
-0.00110178
-0.0246777
-0.0229542
-0.0123436
-0.0484107
-0.0124724
0.00652815
-0.0142362
-0.0634468
-0.0270348
-0.0748558
-0.0191681
-0.00214555
-0.0153638
-0.026214
-0.00156241
-0.0410183
0.000113177
-0.107769
-0.0536282
0.00206434
-0.00253974
-0.0243609
-0.00450685
-0.00270757
-0.0801483
-0.00470979
0.00670084
-0.0084415
-0.00425427
-0.00416578
-0.00979141
-0.0968709
-0.000912692
-0.00475319
-0.00469685
-0.0700121
-0.00997552
-0.0677366
-0.00290901
0.00521126
0.000298137
-0.00296631
-0.046408
-0.00160428
-0.0332543
-0.0711651
-0.0443102
0.00033782
0.00194502
-0.061691
0.000290248
-0.00367805
-0.00564893
-0.0620194
-0.0237386
-0.0760435
-0.024473
-0.0855179
-0.00433691
-0.0312096
-0.00267624
0.000432673
-0.000988736
-0.0123032
0.000575686
-0.0741209
-0.0154323
-0.00719707
-0.00563421
0.000418907
-0.00109016
-0.0546146
-0.017527
-0.0543562
-0.0184869
-0.100326
-0.0475584
-0.0443443
-0.0695782
-0.0125575
-0.0553431
-0.0217366
-0.0669679
-0.00360935
-0.0331057
0.000221843
-0.00143773
-0.0151884
0.000178085
3.72875e-05
-0.000885045
-0.0218341
-0.035206
-0.000791596
-0.0158377
-0.0754127
-0.0639739
-0.0669471
-0.0712258
-0.00480213
-0.000942027
-0.0124093
-0.0619973
-0.00874922
-0.0783795
-7.56635e-05
-0.00451665
-0.0173483
-0.0112571
-8.30695e-05
-5.19958e-05
-0.015571
-0.0340918
-0.00741354
-0.0660743
-0.000924588
-0.00613114
-0.0505586
-0.0220519
-0.00309052
-0.00201353
-0.0493101
-0.0138462
1.60962e-05
-0.00792499
-0.00162932
-0.00260736
-0.109163
-0.0012147
0.00981558
-0.033972
0.00418711
-0.00382727
-0.00046633
-0.0120921
0.00229183
-0.0238828
-0.037297
0.00154804
-0.00694523
-0.00336011
-0.0246922
-0.00380148
-0.0874452
-0.0800093
-0.0263482
-0.0460713
-0.0650598
0.00252859
-0.0876487
-0.000769501
-0.0612004
-0.000358048
-0.112027
-0.0396674
-0.0555651
-0.0230831
-0.0355529
0.0292788
-0.102081
0.0007298
-0.00393405
0.000141131
-0.0128203
-0.0811636
-0.0127001
-0.0239742
-0.00400279
-0.0347653
-0.000402202
-0.0685872
-0.0360481
0.000109501
-0.000102208
-0.0266865
-0.057513
-0.0232148
0.000169167
-0.0480008
-0.0276585
-0.00249453
-0.000533439
-0.00762385
-0.0244909
-0.0151183
0.000611799
0.00378482
-0.00797339
0.000609725
-0.0564729
-0.0321176
-0.0263809
-0.000359152
-0.0490552
-0.000535429
0.000835838
-0.00823921
-0.0377526
-0.0340979
0.000415292
-0.0700341
-0.0012973
-0.00335943
-0.068511
-0.0082018
3.71248e-05
-0.063572
-0.0855691
-0.0973531
-0.0625502
-0.00422327
-0.0804573
-0.0423219
-0.00679107
-0.0625107
-8.85105e-05
-0.0378805
-0.0472285
-0.0101183
-0.0395738
-0.00146226
-0.03297
-0.00192623
-0.0133935
-0.0768915
-0.0414639
-0.0353726
-0.0979605
-0.00126489
-0.103593
-0.0176012
-0.0114155
0.00268646
0.00350859
0.000417088
-0.00299772
-0.0236368
-0.101988
-0.00679504
-0.0147119
-0.053742
-0.0131107
-0.0181283
-0.0229699
-0.100433
-0.00361513
-0.00246829
0.0112623
-0.000329281
-0.0013205
-0.0715163
-0.0299866
-0.0234372
0.0257904
-0.00135832
-0.0142832
-0.0440036
-0.0595568
-0.00126721
-0.0350289
-0.00953916
-0.0453339
0.00733472
-0.0125534
-0.0587298
-0.00242192
-0.0510839
-0.0634292
-0.0690484
-0.0166954
-0.0323668
7.3886e-06
-0.00668454
-0.0177688
-0.0182208
-0.00652702
-0.114463
-0.00152803
-0.0463199
-0.00171408
-0.0963593
-0.0700473
-0.0167457
-0.0696716
0.00940561
-0.0235353
-0.102319
-0.00682319
-0.0176275
-0.0189996
-0.0716786
-0.0647262
-0.0366247
-0.0204013
-0.0905788
-0.0317367
0.000486017
0.00022841
-0.0439376
0.000604951
-0.00960127
-0.0399243
-0.0193465
-0.0166388
-0.00601057
-0.00798178
-0.0385416
-0.0689109
-0.0237318
-0.0126424
-0.0359589
0.00420528
-0.0135042
-0.0118841
0.000862834
-0.114525
-0.0623546
-0.00225163
-0.0738866
0.00140574
0.00234128
-0.0838492
-0.02378
-0.00717589
3.65005e-05
-0.0247181
-0.0115642
-0.0126826
-0.109122
-0.00294002
-0.0451816
0.00349642
0.00126006
-0.0701207
-0.0580839
-0.0994981
-0.0324722
-0.0053325
-0.0071682
-0.0155614
-0.102663
-0.109304
0.00205381
-0.0205057
-0.0103181
-0.0693425
-0.0516436
0.00166914
-0.0156343
-0.0753365
-0.00174805
0.00595292
0.00152685
-0.00203148
-0.0322649
-0.0419949
-0.0462863
0.00303279
-0.0710521
-0.0398103
-0.00235898
-0.0449701
-0.00944438
-0.0167208
-0.0738792
-0.00931341
-0.00172655
-0.00106421
-0.0645445
-0.0166428
-0.0284997
-0.000680096
-0.0120591
-0.00346044
-0.0196024
-0.0361734
-0.0190346
-0.0564462
-0.0171726
-0.0407323
-0.0647583
-0.0300101
-0.00240507
-0.0103748
-0.059228
-0.10476
-0.0580848
-0.0118553
-0.000595942
-0.0699687
-0.00735023
-0.000878027
-0.0314662
-0.0162342
-0.0186115
-0.00755934
-0.0729329
-0.0355127
-0.0106971
-0.0240727
0.00226267
-0.0638707
-0.0368562
-0.00308153
-0.00747213
-0.0332251
-0.000163552
0.000270059
-0.01152
-0.0118213
-0.0221489
-0.0513754
-0.0284245
-0.0848823
-0.0176175
-0.00422066
-0.0388846
-0.000598831
-0.108213
-0.0172739
-0.00346636
-0.0050682
-0.0820279
0.000682832
-0.0775835
-0.0160113
-0.0524952
-0.00359338
-0.00229825
-0.00304557
-0.0173982
-0.0187006
-0.108507
-0.0233547
-0.0482553
0.00230831
0.00121249
-0.0282701
0.00131761
-0.00304202
-0.0881485
0.000246154
-0.0102394
-0.0753796
-0.0176472
-0.0697352
-0.0525078
-0.052309
-0.0157959
-0.0018309
-0.00542134
-0.00196145
0.000579927
-0.00134847
-0.000864788
-0.00271327
-0.00149966
-0.000408436
0.00997481
-0.00855547
-0.0569999
-0.0476024
-0.000529636
-0.0195419
-0.00158502
-0.0450953
0.00314823
0.0256833
-0.00324906
0.00164643
0.00102015
-0.0351776
-0.00727454
-0.0642955
-0.00164402
0.000288495
-0.0249216
0.00228873
-0.00167853
-0.0414885
-0.010817
-0.00303269
-0.0128574
-0.0437944
-0.0473572
0.00169516
-0.0347802
-0.0110603
0.00291055
7.89509e-05
-0.063557
-0.0224035
0.000137532
-0.0190863
-0.00147353
-0.0436221
0.00147889
-0.00833103
-0.0219192
9.92299e-05
-0.0836089
4.20153e-05
-0.000632861
-0.0764693
-0.0161224
-0.00346183
0.000620786
0.000268519
-0.0737555
-0.0282555
-0.00161269
-0.00403139
0.0147883
0.00214635
-0.00425259
-0.00429179
-0.0227517
-0.0190835
-0.0472021
-0.00357448
-0.00140928
-0.0293306
-0.0140423
-0.0159334
-0.0200493
0.0082345
-0.00153042
-0.0644705
-0.00605127
0.00266889
-0.00218364
-0.0189472
-0.00720517
0.000140325
-0.0147233
-0.00438874
-0.0567629
-0.00450416
-0.00125714
-0.0696482
-0.0584933
-0.0700835
-0.114126
-0.00717352
-0.0200574
0.0122622
-0.101272
-0.000524134
-0.0370058
-0.00186559
-0.093409
0.00713759
-0.0439872
-0.060261
0.012644
0.0483975
-0.0018085
-0.0741889
-0.00617695
2.97988e-05
-0.0443154
-0.0424821
-0.0564167
-0.020436
0.0021772
0.00701156
-0.000709403
-0.0680114
-0.00389574
-0.0187339
-0.00894364
-0.00322833
-0.0514101
0.000127089
-0.0662207
-0.0101708
0.0103895
-0.0420771
-0.0150794
-0.00216641
-0.0850606
-0.00225441
-0.0236831
-0.0324278
-0.00301407
-0.0652435
-0.00293754
-0.0462494
-0.0597471
-0.0199304
0.000403572
-0.0316959
-0.00435586
-0.0381077
-0.00013531
-0.00210299
-0.0506154
0.000154858
-0.00272458
-0.0550097
-0.015518
-0.0694245
-0.0179779
-0.00303472
-0.0130261
0.00208937
-0.00836332
-0.00923211
-0.0757552
-0.00666424
-0.00423941
-0.00228526
-0.0172635
0.00130685
-0.0140966
-0.103829
-0.00182616
0.00989384
-0.0164401
-0.00161141
-0.0709313
-0.0133115
-0.000796469
-0.0483165
-0.0653593
-0.043085
-0.00147568
-0.0618046
0.00930032
-0.0106719
-0.0377943
-0.010657
-0.00513058
-0.0793409
-0.00813688
0.00135744
-0.0432687
-0.00570085
-0.0647253
-0.0282282
-0.0833767
-0.0232048
-0.00825832
-0.0176022
-0.0359458
-0.0237734
-0.0207544
-0.00197483
-0.00542744
-0.00233936
-0.00106742
-0.0134879
0.00558397
-0.0158765
-0.0111817
-0.0541301
-0.00366597
-0.0347176
-0.0457367
-0.00210391
-0.0584667
0.00976442
-0.0099611
-0.0627886
0.000406854
-0.0572538
-0.035334
-0.00220483
-0.077605
-0.0197783
-0.0638615
-0.0631276
-0.0211837
-0.00276978
-0.0126658
-0.0099638
-0.0234685
-0.0307259
-0.0029062
-0.0126324
-0.0565116
-0.0359015
-0.0812692
-0.00293668
-0.0294964
-0.0433932
-0.0018176
0.00313487
-0.106913
-0.0148765
-0.0218325
-0.0803176
-0.0913565
-0.0249295
0.000488372
-0.117938
-0.0123101
0.00196549
-0.0534295
-0.0756235
-0.00934984
-0.00877017
-0.0528012
-0.0437192
-0.0326654
-0.0182243
-0.0596225
-0.0334248
0.00608852
-0.00272793
0.000236253
0.0250705
-0.0528073
-0.000537895
-0.0228478
-0.0230594
-0.00831045
-0.00207561
-0.0828964
-0.0280659
-0.000971674
-0.0392637
0.00158422
-0.00407372
-0.042691
-0.0516051
-0.0190303
-0.0853184
-0.00088793
-0.0992701
-0.00156524
-0.0379554
-0.0640637
-0.078305
0.000157273
-0.0204225
-0.00538632
0.0136957
-0.035215
-0.0739207
-0.0565935
0.00957181
7.39427e-05
-0.0255742
-0.00155657
-0.0597625
-0.040831
0.000208798
-0.00381596
-0.0224693
-0.0345606
0.0153151
-0.00161668
-0.0179709
-0.0333896
-0.00758872
0.00183701
-0.0119746
-0.0915748
-0.00369243
0.000366168
-0.111439
-0.0450635
-0.0094828
-0.0621217
-0.0114879
0.000549478
-0.057623
-0.0174271
0.0021037
-0.0766515
-0.078898
-0.0835147
-0.0592142
-0.0273612
-0.0185129
0.00993401
-0.001536
-0.0863898
-0.0532907
-0.0213871
-0.0680192
0.00730823
0.00349268
-0.0500687
-0.0584933
-0.0230511
-0.0992915
6.84445e-05
-0.031183
-0.0189806
-0.00560045
-0.0728879
0.00720004
0.000364556
0.00171975
-0.0813494
-0.0113121
-0.0168161
-0.0558249
0.000260692
-0.0138954
4.43223e-05
-0.0121581
-0.0748967
-0.0230546
-0.0827238
-0.0504307
-0.0469517
-0.00705195
-0.0310262
0.00140304
-0.00271528
0.0244414
-0.0185265
-0.0122834
0.000451679
-0.00172676
-0.0559953
-0.103271
-0.0111236
-0.106437
-0.00288099
-0.00948437
-0.00453447
-0.00195228
-0.000832888
-0.00871877
-0.0349286
-0.043563
0.00920208
-0.131701
-0.0297269
-0.134386
-0.0162708
-0.079928
-0.00386171
-0.0679894
-0.0448594
-0.00878955
-0.0300562
-0.0368222
-0.00941448
-0.0127241
-0.000171832
-0.0170626
-0.0770867
-0.00287422
-0.0297858
-0.0055896
-0.00754668
-0.0887346
-0.0185838
-0.0320014
-0.0135964
-0.003752
-0.0621565
-0.0414616
-0.00459987
-0.0603741
-0.00987543
-0.0441395
-0.0225389
-0.0114782
-0.00946269
-0.0570234
-0.0175779
-0.0635101
-0.0305278
-0.0584805
-0.000340752
-0.00356216
0.000153161
-0.0654089
-0.0218639
-0.00203382
-0.00159976
-0.115047
-0.0631317
-0.0433454
-0.023176
-0.00766317
-0.00702299
-0.0696578
8.34086e-05
-0.0603905
-0.0802533
-0.00313615
-0.0542915
-0.00241748
0.00232112
-0.0396427
0.000199332
-0.026629
8.172e-05
-0.00867307
-0.0288989
-0.0129158
-0.000579849
-0.0488729
-0.00862999
-0.0198355
-0.0578371
-0.0156979
-0.00173272
-0.0378026
-0.00279486
-0.00144829
-0.00103372
-0.0509502
0.00971865
0.00130464
0.000279839
0.0120942
-0.0191718
-0.0483738
-0.026272
-0.0183726
7.33896e-05
0.000318346
-0.0226981
-0.0283968
-0.0769635
-0.0946362
-0.0581092
-0.00546272
0.00224691
-0.013701
-0.0647221
-0.0220767
0.00121471
-0.0561969
-0.0605152
-0.00380365
-0.0299287
-0.0263947
0.00210076
-0.0577397
-0.000769186
-0.0207594
-0.050023
-0.0781399
-0.0280511
-0.0314551
-0.0102989
-0.0957004
-0.0613916
-0.00187166
-0.0678935
-0.00319253
-0.0225104
-0.072468
-0.0772281
0.0100428
-0.0274995
-0.0115059
-0.0050597
-0.0197827
-0.00887521
-0.0121596
0.00789942
-0.00638344
-0.00138632
-0.0395425
-0.0721304
-0.0133507
-0.00285416
-0.0330249
-0.112908
0.0096388
-0.00136016
-0.023141
0.00103664
-0.0628256
-0.00216892
-0.00579169
-0.117639
-0.0971446
0.000269852
-0.0522343
-0.0201163
-0.00932176
-0.0457043
-0.00534957
0.00297587
-0.00221756
0.000302814
-0.00422258
-0.00153608
-0.0566007
0.000211005
-0.0115364
-0.0601938
-0.0554662
-0.00876202
-0.0684853
-0.0143265
-0.0234868
-0.0187274
-0.0179293
-0.000798744
-0.000176416
-0.0661181
-0.0235392
-0.00223554
-0.00807921
0.000947595
-0.0577917
-0.0249329
-0.058049
-0.00418046
-0.00506096
-0.0228134
-0.0102612
-0.00159815
-0.0013843
-0.105729
-0.0884318
-0.00595939
-0.0107996
-0.0220232
-0.0940879
-0.0276583
-0.0117344
-0.0129043
-0.0899608
-0.0248119
-0.0334337
-0.0292472
0.00118475
-0.0130775
-0.00329921
-0.00630381
-0.0743267
-0.00802291
-0.0522506
-0.0438277
-0.00984766
-0.0614956
-0.000712223
-0.00387738
-0.0304895
-0.00299851
-0.0410591
9.21465e-05
-0.0015536
0.000307714
-0.055992
0.00036494
-0.00321282
0.00183546
-0.0517853
0.024595
0.0230037
-0.0737966
-0.0956765
0.000209429
-0.00165527
0.00180804
-0.0904359
-0.0183355
-0.028472
-0.024189
-0.00891158
-0.0528429
-0.01595
6.54736e-05
-0.014768
-0.0247005
-0.049422
-0.0516059
-0.0424889
-0.0386909
-0.00364017
-0.00896483
-0.024527
-0.030408
-0.00555338
-0.0777318
-0.0890318
-0.0122256
-0.00922985
0.000216274
-0.015823
0.00134786
-0.0916336
-0.0660316
-0.0249076
-0.0607254
-0.0777003
-0.0955775
-0.0592702
-0.0165802
-0.0586368
-0.0239557
-0.0965864
-0.0712471
-0.0590032
-0.0551368
-0.00105747
-0.0367577
0.00186339
-0.00451682
-0.0424239
-0.0140817
-0.0226301
-0.0524754
-0.028992
-0.0594556
-0.110157
-0.0883103
-0.0948127
-0.0337781
-0.00975476
-0.0176126
-0.00257858
-0.0304617
-0.0377875
-0.0736965
-0.102728
-0.0259966
0.000279992
-0.00315482
-0.00636843
-0.110921
-0.0106657
-0.0049885
-0.0239471
0.000135026
-0.059915
-3.28934e-05
-0.00173985
-0.0586524
-0.0243805
-0.0595027
-0.0223799
-0.0537851
-0.0379818
-0.00201904
-0.00474665
-0.00188081
-0.0742983
-0.0426268
-0.00576043
-0.0475779
-0.0453507
0.000270274
-0.0104059
-0.00873988
-0.0784566
-0.0123839
-0.00784603
0.000221494
-0.0131083
-0.0616823
-0.00379609
-0.068759
-0.0578396
-0.015909
-0.00184745
-0.0363137
-0.0953443
-0.0242656
-0.0536691
-0.0113878
-0.0020776
0.000532317
-0.0737269
-0.0496586
-0.00161814
-0.0412951
-0.0178897
-0.0176014
0.0084312
-0.0965447
-0.00628836
-0.0425804
-0.0515852
-0.0307086
-0.0596948
-0.0063165
-0.0155696
-0.0280849
-0.0424669
-0.0216502
-0.00336743
-0.0169007
0.00194603
-0.0698692
-0.0316739
-0.0364395
-0.0171852
-0.0391002
-0.052474
-0.0267999
-0.0275036
-0.0504059
0.0091737
-0.102712
-0.0494174
-0.043887
-0.0627802
0.0107134
-0.000539268
-0.0950334
-0.057695
0.000848032
-0.0613539
-0.0128154
-0.00505892
-0.0286047
-0.0109836
-0.0165084
-0.060951
-0.037883
-0.00294082
0.0013826
-0.0538178
-0.116792
-0.127078
-0.0459709
-0.00300052
-0.0673975
-0.0572751
-0.0792884
-0.00361221
-0.00478022
-0.0698454
-0.0509454
-0.00300167
-0.0680936
-0.0437063
-0.00392054
-0.0265779
-0.00140133
-0.00956077
-0.0120193
-0.0510676
-0.0575744
-0.00271506
-0.0211609
-0.00422571
-0.0241459
-0.0830138
-0.0424812
-0.00502816
-0.0782642
-0.0371532
-0.0131725
0.00012673
-0.0171819
-0.000509228
-0.0676203
-0.0661176
-0.0923598
-0.0303964
-0.0380548
-0.00507976
-0.064318
-0.0383435
-0.0406946
-0.0624713
-0.00172889
-0.0135873
-0.0203169
-0.0457327
-0.0601709
-0.0468168
-0.0264333
-0.0289716
-0.00180644
-0.0380084
-0.000733401
0.00115239
-0.0830612
-0.0462984
-0.0305291
-0.0160471
-0.0473428
-0.0200119
-0.0223216
-0.0303793
-0.0109565
-0.110591
0.00114105
-0.0644707
-0.00791718
-0.00664837
-0.063741
-0.00547718
0.000400506
0.0166392
-0.0372038
-0.00250674
-0.00269333
-0.057177
-0.101825
-0.0569388
-0.0662428
-0.023869
-0.00130943
-0.00619527
-0.0320641
-0.0138183
0.00878632
-0.00136823
0.000326082
-0.0438237
-0.012143
-0.0452361
-0.0404328
0.000804227
-0.00216271
-0.000879044
-0.0309424
-0.0311765
-0.0729786
-0.0403414
-0.0632711
-0.0709928
-0.0250684
-0.0613008
-0.0802199
-0.0654471
-0.0747843
0.000358943
-0.0412765
-0.0331364
-0.0234851
-0.0505416
-0.00651288
-0.0320493
-0.0647306
-0.0476586
-0.0193988
-0.0763189
-0.0613527
-0.0771698
-0.078102
-0.0320209
-0.078767
-0.0794156
-0.0798588
-0.0801633
-0.0841043
-0.0593112
-0.000625895
-0.0114468
-0.0484888
-0.0735752
-0.00896553
-0.060861
-0.0793592
-0.0444161
-0.0451743
0.000325316
-0.00166402
-0.00245438
-0.0584654
-0.0311237
-0.0112158
-0.0987011
-0.134787
-0.0226354
-0.0150369
-0.00372728
-0.034103
-0.0730606
-0.00261314
-0.0510106
-0.062114
-0.0378015
-0.0686149
-0.0483763
-0.0480655
0.0012328
-0.0679672
6.10403e-05
-0.0847876
-0.0514408
-0.0166064
-0.0344552
-0.0332225
-0.00485773
-0.00231958
0.00980298
-0.00239783
-0.000412843
-0.000454939
-0.0834528
-0.0698506
-0.0339175
-0.0176573
-0.073932
-0.0566469
-0.0423168
-0.0762138
-0.0263669
-0.02153
-0.0304199
-0.00901064
-0.0531388
-0.028871
-0.0581362
-0.0751082
-0.0689422
-0.0130952
-0.00752446
-0.008853
-0.0387484
-0.00167774
-0.0600426
7.79617e-05
-0.0461122
-0.0312757
-0.0108803
0.00714647
-0.009041
-0.0714232
-0.0175193
-0.0205781
-0.00854089
-0.031364
-0.100595
-0.037369
-0.0357393
-0.0401297
-0.00909471
-0.00426452
-0.0479974
-0.0323676
-0.106409
-0.11953
-0.029178
-0.0752211
-0.0716879
-0.0592781
7.17544e-05
-0.00150258
-0.00273793
-0.00366037
-0.0622186
0.00834086
6.30518e-05
-0.0112067
-0.0712783
-0.00684978
-0.00810441
0.0184524
-0.0704851
-0.0228837
-0.0299423
0.000302529
-0.0385717
-0.000413493
-0.00525666
-0.0621502
-0.071108
-0.068883
0.000266393
-0.0575792
-0.0379741
-0.0622647
-0.0677486
-0.0179123
-0.0713928
-0.0093867
-0.000833052
-0.00404718
-0.0220547
-0.025452
-0.00901411
-0.0278502
-0.00553591
-0.126848
-0.0393274
-0.0550256
-0.0676594
-0.00261297
-0.0452261
-0.00275658
-0.0719066
-0.00161773
-0.0309078
-0.00630605
-0.0495303
-0.00389279
-0.01455
-0.00647502
0.00370992
-0.0478109
-0.10003
-0.006999
0.00710531
-0.0975635
-0.00232966
-0.000668118
-0.0620612
-0.0353223
-0.0330217
-0.063111
0.000744241
-0.0420977
-0.00429016
-0.0581357
-0.0468975
-0.031223
0.00898996
-0.0436607
-0.0705701
-0.0677427
-0.0564688
-0.00457137
-0.030322
-0.06203
-0.00131447
-0.0607434
-0.0147702
-0.0771173
-0.026264
-0.0662557
-0.0590399
0.0231471
-0.0198955
-0.0454295
-0.0425059
-0.0603979
-0.0520392
-0.00857634
0.000372422
-0.037498
-0.0792592
0.00179373
-0.0283042
-0.0114447
-0.0031773
-0.057044
0.00639974
-0.0552431
-0.0210006
-0.0645929
-0.0352492
-0.0159262
-0.0296001
-0.0590141
-0.10322
-0.00773782
-0.0887716
0.000238084
-0.0377817
-0.027541
-0.00202671
-0.0103501
-0.029214
-0.0635244
-0.0643448
-0.00341528
-0.0928393
-0.025382
-0.00504802
-0.0180578
-0.0021097
-0.0304054
-0.0696919
-0.0579927
-0.00161244
0.00960939
-0.072511
-0.0785891
-0.0613327
-0.0764491
-0.0225482
-0.0699049
-0.0193144
-0.0028015
-0.0041872
-0.0987245
-0.0134367
-0.062018
-0.0617474
-0.0456297
-0.0999571
-0.0757741
-0.00508775
-0.0380802
-0.0438144
-0.0623905
0.000598498
-0.00695039
0.00186837
-0.11163
-0.0267118
0.000248769
-0.0210399
-0.0613079
-0.0771125
-0.0769027
-0.0951944
-0.0866847
-0.0593883
-0.0174132
-0.00156059
-0.0751177
-0.0214379
-0.0279688
-0.0286319
-0.0177344
-0.00650097
-0.0158037
-0.0212869
-0.00733999
-0.0215385
-0.0136478
-0.0139795
-0.00153809
-0.1015
-0.0215796
-0.0673635
-0.0237308
-0.0163531
-0.0775349
-0.0781027
-0.0099824
-0.00569933
0.010764
-0.0514803
-0.0390488
-0.0510796
-0.0479408
-0.0191621
-0.00426277
0.004686
-0.0798697
-0.0725645
-0.00706332
-0.000168081
-0.0412708
-0.0281751
-0.0145182
-0.0738614
-0.042545
-0.056673
-0.0450181
-0.0666188
0.0091112
-0.0130285
-0.0359209
-0.00814358
-0.0228155
-0.0314189
-0.000368963
-0.0749277
-0.0456208
-0.0902273
-0.0157935
-0.0222688
-0.0470471
-0.0715836
-0.0899923
-0.0272991
-0.0784185
-0.095164
-0.0506705
-0.0315474
-0.0298587
-0.0582398
-0.045321
-0.0902698
-0.0104707
-0.00696127
-0.0635015
-0.0301391
-0.0777253
-0.0665716
-0.016811
-0.0575441
0.00181228
-0.0432377
-0.0118253
-0.0259167
-0.00689435
-0.0179565
-0.0636559
-0.0744829
-0.0154126
0.00359652
-0.0792375
-0.0294746
-0.00627744
-0.00213205
-0.0812094
-0.0578748
-0.0488968
-0.0159668
-0.0676018
-0.0648953
-0.0799341
-0.0626935
0.00650743
-0.0855827
0.00472793
-0.0218133
-0.0992016
-0.0805231
-0.0199811
0.0110559
-0.0199277
0.00974656
-0.0187294
-0.0809664
-0.00677932
-0.0779175
-0.0535694
-0.00566282
-0.00135654
-0.00341288
-0.018694
-0.0210954
-0.00251391
-0.0516364
-0.0167348
-0.0189134
-0.00364394
-0.0751514
-0.0322075
-0.0480606
-0.0253039
0.000792239
-0.000789671
-0.070134
0.00157279
-0.062989
-0.0264773
-0.0282409
-0.029154
-0.0303397
-0.0223123
-0.0218105
-0.0394711
-0.049837
-0.0313098
-0.0479225
-0.00321585
-0.0626016
-0.0498576
-0.0220352
-0.00689935
-0.101429
-0.00409703
-0.0438532
-0.000335151
-0.054837
-0.00136617
-0.0145991
-0.0125276
-0.0287961
0.00103146
-0.0506011
-0.0711287
-0.0424075
-0.0213889
-0.0153118
-0.0942417