/*--------------------------------*- C++ -*----------------------------------*\
| =========                 |                                                 |
| \\      /  F ield         | OpenFOAM: The Open Source CFD Toolbox           |
|  \\    /   O peration     | Version:  v2012                                 |
|   \\  /    A nd           | Website:  www.openfoam.com                      |
|    \\/     M anipulation  |                                                 |
\*---------------------------------------------------------------------------*/
FoamFile
{
    version     2.0;
    format      ascii;
    class       volScalarField;
    location    "300";
    object      k_0;
}
// * * * * * * * * * * * * * * * * * * * * * * * * * * * * * * * * * * * * * //

dimensions      [0 2 -2 0 0 0 0];


internalField   nonuniform List<scalar> 
13851
(
0.000154774
0.0134096
0.000194328
0.000154109
0.000191836
0.000224997
0.00014725
0.000180671
0.000139091
0.000202129
0.00342188
0.0367463
0.0159159
0.0302185
0.000144057
0.00017005
0.000158518
0.000165912
0.00190008
0.000138979
0.000153663
0.000193143
0.00014768
0.000150618
0.000149332
0.000181293
0.000156687
0.00312611
0.000154426
0.000157711
0.000246106
0.000159208
0.000193144
0.00342549
0.000150686
0.000218875
0.000195854
0.000174763
0.000206033
0.00247722
0.000145557
0.000132897
0.00611072
0.00338738
0.00300211
0.0151312
0.00310244
0.00686998
0.000157171
0.000291636
0.000189632
0.000201519
0.0120391
0.000145938
0.000153294
0.000133034
0.000144814
0.0148276
0.000157148
0.00014803
0.000175124
0.0222154
0.000211057
0.0001949
0.000240693
0.000157764
0.00175041
0.00343559
0.000169905
0.0001656
0.0166602
0.0120502
0.0142223
0.000146816
0.000141323
0.00014162
0.000192243
0.0178723
0.000180308
0.0192207
0.000149744
0.00293065
0.000144243
0.0144892
0.000209429
0.0384956
0.000204935
0.0275141
0.000159279
0.000141285
0.000218869
0.0001831
0.00373708
0.000162911
0.000158873
0.00014993
0.000192307
0.0321517
0.000251936
0.00015008
0.0273251
0.000181559
0.000151478
0.000155651
0.000145375
0.00023592
0.000183814
0.000131708
0.0257887
0.000231544
0.000151183
0.000141538
0.000180345
0.000152763
0.000151078
0.008907
0.0331559
0.000131736
0.000154261
0.000155977
0.00598482
0.000155441
0.0187029
0.00744874
0.00914537
0.000146021
0.00969158
0.000181051
0.00015315
0.000202861
0.000145285
0.000138969
0.0201736
0.000144172
0.00768883
0.000140696
0.00013181
0.0106177
0.0291848
0.0289852
0.0255222
0.000153345
0.000151321
0.000136994
0.000154925
0.00371789
0.000267031
0.000202745
0.000147016
0.00293662
0.000190719
0.000153124
0.0316727
0.000145499
0.000153685
0.000154729
0.000142426
0.00015485
0.00020136
0.000189333
0.000134594
0.00016251
0.0147885
0.00013885
0.000164187
0.000134997
0.000328627
0.000170327
0.000152773
0.018803
0.0154761
0.000136447
0.000142623
0.0289381
0.000138742
0.00613691
0.000180251
0.000151484
0.00216257
0.000132156
0.000160621
0.014404
0.000144011
0.000194691
0.00013333
0.000148205
0.000157967
0.000148596
0.000194829
0.000200511
0.00338893
0.0134752
0.000142765
0.000170218
0.0234969
0.000153252
0.00014986
0.0031875
0.000150456
0.000141861
0.00014653
0.0155698
0.000159412
0.000143583
0.000192496
0.000144161
0.0316185
0.000158763
0.0312382
0.000132937
0.0400801
0.000151074
0.00356722
0.000131613
0.000136253
0.0033591
0.000199638
0.0151735
0.000143445
0.0324949
0.000159116
0.000149967
0.035971
0.000200723
0.0434013
0.000149159
0.000165609
0.000147117
0.0155677
0.000131732
0.000180448
0.000268271
0.000136369
0.000142462
0.000187229
0.000181694
0.0297736
0.000245437
0.00013689
0.000143717
0.000258008
0.00496744
0.000138294
0.000195092
0.00014302
0.0412959
0.000182173
0.00209727
0.000155033
0.000160461
0.000168212
0.00482984
0.000150219
0.000155213
0.000181927
0.0121012
0.000197387
0.0124725
0.00516266
0.000144364
0.000136363
0.000163898
0.00072487
0.00013913
0.00892533
0.000153228
0.00015005
0.00016217
0.0347355
0.00108968
0.000168085
0.000153706
0.000359694
0.000178861
0.000169298
0.000139091
0.00292331
0.00173869
0.0463235
0.0032768
0.000138452
0.000132446
0.00014484
0.000180916
0.000654996
0.00308097
0.000140318
0.00014411
0.00034867
0.00286811
0.000209665
0.000156366
0.000148163
0.000172329
0.00289826
0.00811768
0.000163118
0.0376788
0.000139318
0.0416446
0.000161927
0.000158317
0.0453227
0.000148621
0.000232236
0.0382985
0.000140066
0.000177289
0.000163119
0.000155787
0.0277481
0.000163452
0.00014997
0.0354845
0.000133471
0.000160911
0.000150919
0.045345
0.000202373
0.000143476
0.000182175
0.000143695
0.0123229
0.000177984
0.000147465
0.000145184
0.000201747
0.000164698
0.000153362
0.000144115
0.000148461
0.000149781
0.00327192
0.0324381
0.0206944
0.000170501
0.0443206
0.0213997
0.00014368
0.000170924
0.000210873
0.00020266
0.000193705
0.000198779
0.00159969
0.000156676
0.000521754
0.039647
0.000144299
0.000464317
0.000469941
0.000519173
0.00015333
0.00019694
0.0160144
0.000142983
0.00166843
0.000145114
0.000143748
0.000141202
0.000131795
0.000141601
0.03998
0.00352946
0.000145254
0.000176135
0.000134273
0.0339556
0.000174852
0.00164265
0.0206524
0.000145513
0.000205294
0.000163362
0.00176083
0.000144384
0.000131852
0.000168333
0.0276374
0.000144792
0.0285477
0.000194242
0.00019994
0.014852
0.00140823
0.00115247
0.000163498
0.000139474
0.000150307
0.000168432
0.000181844
0.0318895
0.000170231
0.0432013
0.0387886
0.0001344
0.000144477
0.01906
0.0217891
0.00027602
0.0340084
0.000172834
0.000164274
0.000150234
0.0180899
0.000137591
0.000169536
0.000161357
0.000146487
0.000146207
0.000139787
0.000134894
0.000194068
0.000187407
0.0165471
0.000166518
0.000183473
0.000172707
0.00481428
0.000162121
0.000557152
0.000157754
0.00337868
0.000131709
0.000139561
0.000149748
6.78373e-05
0.0038123
0.000199943
0.000170329
0.0125755
0.00427628
0.000207327
0.000158664
0.00018772
0.000144097
0.00418403
0.000145512
0.0050422
0.00296284
0.000192015
0.0282515
0.00015194
0.0015924
0.00293641
0.0238064
0.000131879
0.000166114
0.00018094
0.00169214
0.000137103
0.000149876
0.000189276
0.000199558
0.00017289
0.0250869
0.000149106
0.000145744
0.0115083
0.00016535
0.000132176
0.0278723
0.000139393
0.00015478
0.000137832
0.000176933
0.000153682
0.000132609
0.000150987
0.0348859
0.000144408
0.000172286
0.000139993
0.000171159
0.00336805
0.000153478
0.000145392
0.000152922
0.000152837
0.0061055
0.000149897
0.000214301
0.000143931
0.000148767
0.0258564
0.0266309
0.00014446
0.000176341
0.000162269
0.00476149
0.0150755
0.000145835
0.00389697
0.000144676
0.000192384
0.000147186
0.0162665
0.000133268
0.011254
0.000195958
0.000133033
0.000176172
0.0262144
0.000181296
0.00289755
0.000154114
0.00489119
0.000156562
0.000138317
0.00013922
0.000146346
0.0264318
0.00018734
0.000202223
0.000958827
0.000196056
0.000135045
0.025453
0.00332077
0.000160814
0.000162869
0.00442309
0.00719504
0.03828
0.000152614
0.0165978
0.0150816
0.0148718
0.000164516
0.000185546
0.00665311
0.00181167
0.0102377
0.00325238
0.0154039
0.000155366
0.0170823
0.0159133
0.000131935
0.00153969
0.000187935
0.02168
0.000155511
0.000142962
0.000142116
0.000144346
0.000194029
0.000177505
0.0224072
0.0253367
0.000139652
0.0100774
0.0268989
0.000219808
0.00302363
0.000171768
0.000131655
0.000139318
0.00140894
0.0279846
0.000153935
0.000195115
0.000217712
0.000132903
0.000181983
0.00798211
6.6955e-05
0.000198364
0.0278112
0.0160459
0.000144971
0.000146631
0.0236468
0.0383222
0.000203227
0.000170002
0.000219181
0.000132049
0.000142217
0.0077958
0.000132578
0.000155325
0.000132029
0.000139466
0.0176422
0.000193863
0.000166699
0.000132482
0.0271205
0.00392257
0.000139521
0.000142877
0.000139358
0.00014947
0.0261181
0.0024561
0.00310034
0.0141267
0.00340372
0.000168296
0.0175406
0.0284005
0.000158159
0.000170429
0.000131631
0.000150483
0.000171708
0.032783
0.000466374
0.000194655
0.000164819
0.000138561
0.00016971
0.000149453
0.00302314
0.000189603
0.000143794
0.000171865
0.000137091
0.000161726
0.000200804
0.000147639
0.000143822
0.000174962
0.0001478
0.000192292
0.00011643
0.000199405
0.000170131
0.000204317
0.000138402
0.000250258
0.000171157
0.0136639
0.000150783
0.00015028
0.0223998
0.000156291
0.0144541
0.0397517
0.0156175
0.0268625
0.000137549
0.0154092
0.000139488
0.000139434
0.000133235
0.000139528
0.000156919
0.000167899
0.000175311
0.000132209
0.0206693
0.000198853
0.0227211
0.000141394
0.000134934
0.000144075
0.000208977
0.024277
0.000182395
0.000162149
0.000139522
0.000149464
0.000145867
0.000143171
8.37214e-05
0.0266461
0.000147481
0.000132095
0.000146495
0.000143052
0.000538862
0.0143173
0.000170157
0.0298325
0.0062386
0.000143568
0.000201658
0.0269618
0.000171792
0.0390927
0.000149701
0.000164301
0.000181946
0.000164858
0.00383818
0.000144301
0.00736929
0.000146206
0.000165711
0.0312247
0.000142422
0.000154373
0.000216339
0.000138412
0.000159734
0.000447869
0.0299235
0.000189128
0.00645528
0.0024784
0.000131748
0.000141137
0.0242469
0.000213299
0.000184276
0.0400053
0.000138392
0.000165855
0.000132041
0.00218571
0.00225709
0.000160633
0.000149704
0.00332673
0.00015714
0.000143671
0.0100659
0.0173709
0.0313404
0.000133305
0.000147306
0.0179604
0.00965411
0.00021036
0.000148368
0.0284359
0.000144285
0.00338581
0.000209236
0.000193515
0.00015902
0.0154607
0.000167026
0.000150798
0.000198962
0.00014964
0.000159389
0.000154184
0.000138234
0.0114745
0.000168866
0.000198613
0.00016533
0.00245633
0.000138771
0.000522925
0.000153137
0.000166816
0.000135737
0.000143097
0.000144872
0.0377955
0.000141855
0.0001322
0.0122974
0.000146936
0.0221436
0.000147309
0.000150127
0.000189019
0.00169166
0.00240776
0.000141143
0.000288161
0.0306983
0.000150063
0.0376402
0.000165355
0.000137963
0.000220507
0.00750725
0.000266674
0.000160887
0.000140702
0.000131837
0.00293111
0.000196881
0.000184619
0.000162413
0.000218372
0.000150313
0.000149273
0.000195016
0.00429813
0.000194228
0.000686649
0.00014701
0.000192593
0.000192755
0.0446802
0.000160422
0.0369134
0.000510889
0.000147073
0.0139701
0.00023437
0.027175
0.031072
0.0354694
0.00395084
0.000176996
0.000138104
0.000167209
0.0155171
0.0139901
0.000144598
0.000149221
0.000187965
0.00284203
0.000133017
0.0119362
0.000138142
0.000145194
0.0121391
0.0178077
0.00254748
0.000139375
0.000143862
0.0109154
0.00011536
0.000201467
0.000153452
0.024696
0.000113847
0.0255034
0.000183535
0.000175589
0.000150027
0.000146997
0.0146662
0.000180608
0.0206377
0.000179215
0.000169787
0.0119275
0.0268406
0.0240441
0.000145058
0.000166582
0.000139418
0.000170608
0.000154106
0.0343579
0.000166136
0.0375453
0.000132872
0.000188509
0.000142755
0.000220086
0.000168935
0.000166145
0.030551
0.000177352
0.000178591
0.000151315
0.000188497
0.00419261
0.000226225
0.000155612
0.0158722
0.000138779
0.0340913
0.00386024
0.000148512
0.0410845
0.0284621
0.0238602
0.00401567
0.000174495
0.000144439
0.0299598
0.00016701
0.00867837
0.0317254
0.000141387
0.000152786
0.000168087
0.00432832
0.0348496
0.000147309
0.000141615
0.0212505
0.0311153
0.000198411
0.000160055
0.00015175
0.00408666
0.0148687
0.000193449
0.000132254
0.000177587
0.000138513
0.000157083
0.000601633
0.000150446
0.00656892
0.00413874
0.000145423
0.000152412
0.000144677
0.000154335
0.0176776
0.0247212
0.000165559
0.0361824
0.000142671
0.000165667
0.000144044
0.000138627
0.000148011
0.000145228
0.0239929
0.00014454
0.000182016
0.000145208
0.000161088
0.000677767
0.00810393
0.000154382
0.0244712
0.00018531
0.000946183
0.000169554
0.000169866
0.0179895
0.000161694
0.000179284
0.0339265
0.00446468
0.0119142
0.000176459
0.00302826
0.000150301
0.000175958
0.000182068
0.0356601
0.000144606
0.029275
0.000140938
0.000141599
0.0301931
0.000144498
0.00823427
0.000159552
0.000139338
0.00017688
0.000139432
0.000143898
0.00014127
0.00014942
0.000137206
0.00014158
0.000121597
0.0145043
0.000187905
0.0287742
0.000146694
0.000153327
0.000155414
0.000144574
0.000139213
0.00019173
0.000149641
0.000140918
0.000149969
0.000149305
0.0220823
0.0261348
0.000229049
0.0340665
7.87783e-05
0.000142202
0.00549102
0.000164553
0.0001414
0.00371736
0.000148213
0.00567693
0.000141817
0.00311969
0.00449977
0.0173164
0.0001366
0.0168453
0.000167812
0.000156514
0.000142065
0.000138398
0.0290433
0.000240169
0.00347728
0.000141978
0.000143792
0.0112359
0.000148602
0.00101458
0.00397956
0.00749696
0.00186125
0.00432403
0.000149227
0.000145031
0.000203182
0.000171864
0.000155783
0.000216976
0.000177821
0.00014983
0.000151304
0.0259492
0.000141154
0.0212008
0.00670552
0.00728931
0.000207073
0.000152344
0.000137419
0.00014903
0.00308684
0.00320572
0.000136596
0.00015502
0.000141754
0.000191067
0.000133783
0.000141358
0.000150166
0.000169298
0.00177461
0.000179728
0.000171169
0.000145242
0.000181889
0.0140741
0.00015104
0.0137067
0.00932711
0.000192166
0.00013518
0.000178022
0.000142948
0.000147922
0.000148642
0.0177736
0.000202067
0.00430281
0.000155882
0.00343425
0.000143354
0.000146199
0.000148652
0.00491165
0.00621767
0.000134226
0.000168907
0.00019075
0.0276537
0.000153426
0.0124903
0.000159001
0.0310501
0.000195962
0.0348839
0.000195426
0.000191718
3.64644e-05
0.0283451
0.00430313
0.0158662
0.00014525
0.000226691
0.00013364
0.000155803
0.000160307
0.00014818
0.0284997
0.000166029
0.000162882
0.00410061
0.000214904
0.00653245
0.000143577
0.000155599
0.000161445
0.000138023
0.000169117
0.01983
0.00177472
0.0128149
0.000140625
0.000161759
0.000154541
0.00759667
0.0340334
0.000202069
0.000137337
0.000149268
0.0166347
0.00018046
0.0176591
0.0271347
0.00023432
0.000135015
0.0109019
0.000167708
0.000178454
0.000164216
0.0389306
0.00290473
0.000199959
0.000234265
0.000151808
0.000168172
0.000145171
0.0109043
0.000184694
0.027058
0.003087
0.000160113
0.000206197
0.000153204
0.0385748
0.000155271
0.000144126
0.00376133
0.0324891
0.00638143
0.0225812
0.000146421
0.000145352
0.0180102
0.0157965
0.0155891
0.000155289
0.000146576
0.000145466
0.0224555
0.000206785
0.000149365
0.000222254
0.000198339
0.0285168
0.00981014
0.00205019
0.000144389
0.0251056
0.000157898
0.000145204
0.000203945
0.0233079
0.000147368
0.000140923
0.00682407
0.0371235
0.000144447
0.000140511
0.0285594
0.000143644
0.00137474
0.000140628
0.00748492
0.000145376
0.000182406
0.0165729
0.0341317
0.000152458
0.00746439
0.00377207
0.0200756
0.00670793
0.0319725
0.000217315
0.000142591
0.00594774
0.000153646
0.000143694
0.000137905
0.00520134
0.000143342
0.000154577
0.000141119
0.000151811
0.0167294
0.000191123
0.00362085
0.000153816
0.000171493
0.000139109
0.000168555
0.0100998
0.0267502
0.000140328
0.000187994
0.00294317
0.000148344
0.000138596
0.0309148
0.000170598
0.000171769
0.000201622
0.0305493
0.00921668
0.00719465
0.0199581
0.000214598
0.00331931
0.00314234
0.00762009
0.000188031
0.000137517
0.000202098
0.000142542
0.000142344
0.0267783
0.0311594
0.00015503
0.0363671
0.000258255
0.0205129
0.000154496
0.000234164
0.000144057
0.000257438
0.000197464
0.000143217
0.000152814
0.0383544
0.0327899
0.00967531
0.0365309
0.000174197
0.0404169
0.0396274
0.000168016
0.000147315
0.000142561
0.00294401
0.000141502
9.39274e-05
0.000152395
0.000150703
0.000155633
0.0165091
0.042626
0.0196531
0.000149799
0.0120603
0.000159655
0.00016656
0.000141025
0.000144111
0.0138892
0.000162712
0.0288269
0.0162778
0.000118433
0.00020062
0.000144501
0.000175117
0.000148396
0.000207281
0.000150688
0.00015349
0.000149383
0.000152967
0.000209587
0.000150888
0.000171818
0.00014368
0.000172393
0.000221246
0.0185394
0.000142907
0.000180668
0.000147881
0.000208795
0.000159014
0.0252493
0.00025427
0.000167483
0.000155788
0.000152953
0.000189038
0.000144652
0.00283003
0.000143988
0.000142355
0.000149093
0.035979
0.000162129
0.000156933
0.000174495
0.000148269
0.000187069
0.0346553
0.00696539
0.000171927
0.00014514
0.000202786
0.000138136
0.0001431
0.000210634
0.0375928
0.000147327
0.000167723
0.000211763
0.0135761
0.000149498
0.000150613
0.0358799
0.000152846
0.000256357
3.34943e-05
0.0420267
0.000145625
0.0001674
0.000143415
0.0430443
0.000205256
0.00017776
0.000200486
0.0199564
0.000151917
0.0385107
0.0237921
0.000148341
0.0184957
0.000192209
0.000152664
0.0136763
0.000146781
0.000144831
0.000137771
0.00021519
0.000215547
0.000213287
0.000153674
0.000151293
0.000165473
0.00251845
0.000317265
0.0416319
0.00287472
0.000150308
0.000205375
0.000203138
0.0128555
0.00019466
0.0029826
0.000141641
0.000172796
0.000138589
0.0152436
0.000173558
0.000143342
0.0268773
0.000230969
0.000169397
0.000172162
0.000133075
0.000148263
0.000183827
0.000171267
0.0120975
0.000188153
0.000190862
0.000186075
0.000199919
0.036925
0.000202988
0.0415184
0.000143119
0.000140856
0.000191577
0.0197274
0.0117337
0.000239681
0.00015241
0.0164877
0.00290379
0.00014265
0.000160752
0.000139715
0.000176243
0.000189066
0.000546598
0.0135056
2.99453e-05
0.000152931
0.0260724
0.0149019
0.000144284
0.000202774
0.0288679
0.0117902
0.00015607
0.000190531
0.000131666
0.000158323
0.000143026
0.000159813
0.0430894
0.0267468
0.00989725
0.0156016
0.00015255
0.000170655
0.000182249
0.000145713
0.000148726
0.000138422
0.0319929
0.000141194
0.0374325
0.000172763
0.000197964
0.000211909
0.000147931
0.0193871
0.0159118
0.000175732
0.000134658
0.000160048
0.0131095
0.00545091
0.000158275
0.000139461
0.000139094
0.000188912
0.000167079
0.000207241
0.0272585
0.00015232
0.000137981
0.000203042
0.000177109
0.0173351
0.0128184
0.000140609
0.000189647
0.000147918
0.0459222
0.00013621
0.0411136
0.000142109
0.000152076
0.000169714
0.000149302
0.000204534
0.000166138
0.000180198
0.0166547
0.03357
0.000159245
0.000166369
0.000143854
0.0145747
0.0175884
0.000148215
0.000136306
0.00314451
0.000131565
0.0275741
0.000147731
0.000174048
0.000192321
0.0211915
0.000175165
0.000152891
0.000146647
0.000189153
0.0384609
0.000142662
0.0123985
0.0351944
0.0151642
0.000515996
0.000170241
0.0219851
0.000158847
0.000112589
0.000143298
0.00298954
0.00291422
0.0130513
0.0154857
0.0363952
0.000145994
0.000235383
0.000140893
0.0138591
0.00388649
0.0376364
0.0160914
0.000162588
0.0320824
0.00532705
0.0001714
0.000153844
0.000147577
0.0292038
0.000160355
0.000189
0.000155295
0.00014873
0.000138623
0.000147779
0.0322181
0.000159112
0.000167963
0.0169484
0.00985355
0.000143332
0.000143879
0.000138626
0.000170595
0.0401024
0.000132164
0.000160343
0.000168273
0.00288448
0.000195007
0.000178612
0.0103806
0.000166959
0.041532
0.000165732
0.00016768
0.000143517
0.000154975
0.000189213
0.00452535
0.00318744
0.032132
0.000191718
0.0183125
0.000158982
0.000157601
0.000148949
0.0105267
0.0194665
0.00593083
0.000190054
0.000155469
0.000145363
0.000142185
0.000143983
0.000138607
0.00952463
0.000165627
0.0121859
0.000168885
0.0271196
0.00652478
0.0412177
0.00018673
0.000160106
0.0158481
0.000174386
0.00101334
0.0319237
0.000138206
0.000456418
0.000162519
0.0222395
0.00934814
0.00017111
0.00107078
0.00210605
0.000155403
0.000190765
0.000165525
0.0146827
0.00345987
0.000156645
0.000146723
0.00306243
0.000962082
0.000200777
0.0100476
0.000201717
0.000172006
0.000143461
0.0404581
0.0362752
0.000196546
0.000166791
0.0330655
0.0281022
0.0001411
0.000144593
0.000157177
0.0377277
0.035729
0.000143744
0.0222215
0.000150517
0.000142881
0.000148463
0.0150289
0.000105448
0.000229022
0.0111598
0.000154345
0.000153402
0.000141364
0.0111364
0.000151592
0.0161263
0.000155578
0.0135918
0.000149222
0.000142613
0.000199826
0.00908931
0.00339397
0.000172299
0.0171855
0.000137368
0.000146741
0.000144755
0.000179561
0.000187515
0.000187405
0.000175219
0.0327663
0.000157387
0.000201373
0.000255466
0.0370195
0.000146189
0.0272677
0.0332197
0.000158148
0.00525439
0.000187637
0.0224509
0.000147996
0.000190496
0.000143578
0.000596873
0.0158947
0.000202066
0.0402883
0.000156097
0.000180334
0.000152807
0.0232107
0.000135395
0.00013959
0.00327526
0.000200789
0.0211698
0.00941659
0.000187103
0.000164685
0.000137606
0.00101985
0.000167964
0.000143383
0.000208144
0.000141194
0.000177768
0.000145396
0.0177995
0.000154083
0.0035763
0.00341112
0.000168077
0.000246003
0.000185093
0.0461933
0.000145875
0.0180681
0.0235886
0.000139319
0.000144521
0.000154096
0.0001494
0.000175918
0.000143702
0.00648104
0.000190765
0.00335879
0.000217091
0.000147682
0.00014992
0.000137991
0.018278
0.000147035
0.000145093
0.000128127
0.000156067
0.00775423
0.0393458
0.000194756
0.00015614
0.000170585
0.000153252
0.000150491
0.000183614
0.000136865
0.000156431
0.0112604
0.0428169
0.00141967
0.000153108
0.0131922
0.0120589
0.000149449
0.00318486
0.0333763
0.000143811
0.000155355
0.000143219
0.0202519
0.017084
0.00449245
0.000136789
0.000156847
0.000152066
0.000146896
0.000200544
0.000148091
0.000371791
0.00793938
0.039834
0.000138124
0.000156227
0.000154976
0.0149084
0.000133136
0.0170692
0.011675
0.000245506
0.00611778
0.0193783
0.0201099
0.000151586
0.00570741
0.00725679
0.000151791
0.000137398
0.000140348
0.0396286
0.0113382
0.0144737
0.00014777
0.0423827
0.000147878
0.00021056
0.000139027
0.000155081
0.000151642
0.000138006
0.0171962
0.000151934
0.0303349
0.0285195
0.0168177
0.000181384
0.000182005
0.0167592
0.0378234
0.000148607
0.00674525
0.00013796
0.000131912
0.000143629
0.000226639
0.000140565
0.0169135
0.000165655
0.00139473
0.000175752
0.0120489
0.0173197
0.000207046
0.000137793
0.000183529
0.000195057
0.0166075
0.00014629
0.000134878
0.000157065
0.025425
0.000148022
0.00415149
0.0163063
0.000176477
0.000187928
0.000146479
0.00271308
0.000149272
0.0412682
0.000135526
0.00932593
0.000167149
0.000146484
0.0166806
0.0162518
0.000135319
0.000187643
0.000158205
0.0136298
0.00020129
0.000252029
0.00110123
0.000149494
0.000182658
0.0292238
0.000142054
0.000215818
0.000151643
0.000191032
0.000168674
0.0122923
0.0255052
0.000146856
0.0274209
0.000152189
0.000178745
0.0332512
0.0160117
0.000173233
0.028247
9.13896e-05
0.000146848
0.00415391
0.000204224
0.000166916
0.000151802
0.027701
0.000135604
0.0139887
0.000586395
0.000203528
0.000143452
0.000169788
0.0270445
0.000179043
0.0257796
0.000150686
0.000156337
0.000228499
0.0285287
0.000160095
0.0389234
0.00248247
0.0173235
0.000148579
0.0269303
0.00692551
0.0175887
0.000144057
0.000153513
0.000145873
0.0402022
0.000182953
0.0030594
0.0026825
0.00014976
0.000138138
0.000143878
0.016578
0.0121142
0.0276154
0.0173665
0.000141141
0.0264068
0.0355879
0.000203183
0.0120286
0.0284314
0.00017353
0.0114676
0.000154928
0.000159495
0.0178345
0.0210306
0.000147056
0.0356575
0.000149282
0.000144762
0.0311616
0.0255341
0.0369883
0.0147422
0.00016789
0.000149678
0.000158607
0.0345121
0.0158149
0.000142646
0.000179115
0.00437731
0.000144881
0.000147397
0.02988
0.0240214
0.000154575
0.000144323
0.000151479
0.000153299
0.00882564
0.000149349
0.000143882
0.000160556
0.000455674
0.0203717
0.00184783
0.0258389
0.00014711
0.000158907
0.0316781
0.0368927
0.000164927
0.000248014
0.00014333
0.00017251
0.000152922
0.000148907
0.000191142
0.000143554
0.000694895
0.00016982
0.0001412
0.000158165
0.0105008
0.024799
0.0237393
0.000145059
0.000168885
0.0378353
0.00154767
0.000156628
0.000145826
0.000144708
0.00315936
0.000147618
0.000148303
0.000163787
0.000144368
0.0320108
0.000242612
0.000149468
0.00015738
0.000136142
0.00014804
0.0279353
0.00670703
0.000189156
0.0131065
0.000214458
0.000150005
0.000143186
0.00014657
0.000145527
0.000149209
0.000162205
0.00019159
0.0331311
0.000150618
0.000197869
0.0237634
0.000706228
0.000144472
0.000139711
0.000155101
0.0263542
0.000144986
0.000330528
9.92162e-07
0.000197645
0.000149893
0.0152321
0.000137075
0.00015816
0.000137578
0.000137296
0.000148313
0.000141266
0.000195874
0.0192755
0.000232417
0.00017541
0.0288236
0.0044566
0.0148581
0.000168139
0.0257648
0.0129683
0.000198234
0.0218517
0.0307619
0.000199733
0.00339569
0.000149487
0.000140667
0.0262815
0.00014211
0.000157567
0.0336734
0.000403888
0.0333153
0.000277457
0.000140082
0.000182463
0.000147009
0.000273837
0.00013884
0.000502219
0.0226945
0.0316754
0.0109672
0.000147167
0.000136052
0.000189617
0.0367084
0.0322997
0.000204887
0.00184099
0.000140394
0.00424505
0.0297701
0.000246681
0.000157069
0.000147572
0.000136971
0.000155386
0.000147221
0.000146122
0.000157038
0.0307875
0.000190875
0.0280868
0.0069666
0.00150635
0.0002195
0.000143192
0.000143456
0.000146894
0.000138944
0.000149278
0.00581179
0.0163379
0.00989681
0.0424116
0.000154861
0.0177047
0.000205704
0.0390561
0.032958
0.000147629
0.000141145
0.00302489
0.000147299
0.000135473
0.00652375
0.0321481
0.00696337
0.000145334
0.000147152
0.000157239
0.000174775
0.00828821
0.000138143
0.000156617
0.000444207
0.000140781
0.0046407
0.000174409
0.0363674
0.000149552
6.81309e-05
0.0350379
0.000171806
0.0336452
0.000198279
0.0291401
0.000136653
0.000159573
0.000140638
0.000166513
0.0156768
0.000148606
0.0131978
0.000146267
0.000146427
0.000144317
0.0420974
0.000178355
0.000197951
0.00607364
0.000139273
0.000177167
0.0144792
0.000184432
0.000140821
0.000152467
0.000147437
0.000187239
0.000145465
0.000141865
0.0445601
0.0397947
0.0404917
0.000486662
0.000900626
0.0179183
0.000189221
0.043819
0.00020214
0.000136003
0.000145562
0.000131664
0.000148796
0.035396
0.0356842
0.000138767
0.0112843
0.0436665
0.000164851
0.000150288
0.000169643
0.0262774
0.0289701
0.0310462
0.0219938
0.0324027
0.000131739
0.000145279
0.000197208
0.00404186
0.0193767
0.000143879
0.000203961
0.0167725
0.000169498
0.0316316
0.000149859
0.000533646
0.0175978
0.0375207
0.000190544
0.000168196
0.0173666
0.000204881
0.0380484
0.0409314
0.0318703
0.000199359
0.0223969
0.00014743
0.000159509
0.00018005
0.0236196
0.00321479
0.0290222
0.000150619
0.000203496
0.000189502
0.000151378
0.0315763
0.000143854
0.000202652
0.0220593
0.000143774
0.0388428
0.0244622
0.0408053
0.0256848
0.00151302
0.00558135
0.000143718
0.0362293
0.000145903
0.00014174
0.000176786
0.000156528
0.0335951
0.000156874
0.000169804
0.000157235
0.000141204
0.0139292
0.00015429
0.000200019
0.00421279
0.000138102
0.0291504
0.000196921
0.000150561
0.0119662
0.000131469
0.000143436
0.000295348
0.000150967
0.0432406
0.00756993
0.000138921
0.000202008
0.000154457
0.0379848
0.0325656
0.000189652
0.0181728
0.000158765
0.000144818
0.0340699
0.0001565
0.000145875
0.00688012
0.000175256
0.000140289
0.000141046
0.000203799
0.000153938
0.0219053
0.000159915
0.000330605
0.021498
0.00018237
0.000189074
0.000144162
0.0388582
0.0181508
0.0209165
0.000144166
0.000137945
0.000189985
0.000167343
0.00466886
0.0001461
0.0038653
0.000145014
0.000482077
0.000148789
0.00101749
0.000224029
0.000200178
0.029414
0.0174219
0.0330238
0.0311992
0.000131963
0.00159206
0.00192058
0.0219512
0.000143472
0.000187009
0.0177443
0.0155913
0.000201148
0.00103185
0.00150047
0.0406877
0.000178562
0.000123281
0.000137896
0.000180142
0.000176809
0.000143544
0.000189042
0.0211844
0.000563128
0.0161806
0.00350272
0.000142509
0.000140452
0.000169068
0.000143676
0.00732635
0.000138391
0.000140344
0.0438509
0.00017326
0.000173262
0.000196811
0.000151864
0.000198916
0.0133606
0.0333499
0.0143213
0.000159283
0.0330224
0.000153774
0.000138578
0.000154465
0.0269925
0.000133395
0.000138646
0.000173969
0.000151941
0.000141069
0.000143737
0.000149534
0.000161381
0.0260438
0.0027472
0.000165111
0.0322697
0.0215251
0.00768221
0.0151917
0.000145073
0.000166305
0.000756847
0.000144514
0.000227569
0.000162203
0.000156769
0.0225077
0.0334949
0.00013842
0.000174682
0.000166354
0.000192491
0.016889
0.0404885
0.0406814
0.000148047
0.000192888
0.0416819
0.000192464
0.000201704
0.0076297
0.026573
0.0393884
0.044527
0.000137958
0.0211001
0.000138598
0.000153939
0.000144495
0.000187753
0.0396811
0.0154304
0.00310484
0.014772
0.000186218
0.000134984
0.000139592
0.000147297
0.000156494
0.000178342
0.0423712
0.0446271
0.000191148
0.00838308
0.000148862
0.000186307
0.000138519
0.0399642
0.000198182
0.000147571
0.000213229
0.000196601
0.0401698
0.027326
0.00020452
0.00746483
0.000158815
0.0206502
0.00018069
0.0185579
0.00377786
0.000153395
0.000186321
0.000146557
0.030869
0.0130163
0.000176719
0.0246713
0.000141463
0.0303108
0.000190695
0.00024227
0.000181162
0.000140229
0.000202715
0.00018671
0.000157243
0.000186346
0.000167921
0.000169741
0.0144278
0.000210949
0.000155214
0.00016715
0.000173123
0.000169068
0.000150876
0.0422805
0.000198822
0.00208806
0.0115517
0.000145128
0.0321793
0.000144506
0.000157097
0.000155948
0.0320538
0.000173478
0.0390396
0.0157564
0.000188048
0.000195635
0.000200981
0.0254627
0.000205111
0.0171782
0.00016366
0.000178716
0.000142184
0.0346858
0.00259555
0.000162334
0.000148627
0.000173088
0.000160473
0.000157993
0.000180563
0.000174806
0.000148164
0.000171111
0.0161041
0.0307886
0.000231958
0.000176617
0.000133675
0.0267896
0.000168826
0.000187144
0.00187915
0.000177068
0.0386598
0.000135765
0.000166802
0.000156677
0.000170676
0.000143614
0.0330503
0.00421672
0.0115036
0.000173858
0.0331352
0.000157591
0.000159983
0.0259087
0.000187666
0.000181434
0.0134267
0.000186914
0.000156991
0.000175416
0.000190601
0.000158322
0.00050271
0.0277896
0.00413898
0.000140283
0.000139537
0.000131832
0.0294938
0.000143239
0.000178725
0.000143633
0.000167475
0.0152087
0.000166037
0.000165497
0.000140435
0.000140177
0.0139978
0.026816
0.0001466
0.0336411
0.000198823
0.00013514
0.000167344
0.0346652
0.000200405
0.000196578
0.000144476
0.000162721
0.000211464
0.000149152
0.00014289
0.0286107
0.00016586
0.0331065
0.000192962
0.000160975
0.0382247
0.0002065
0.000211158
0.000140734
0.00380223
0.000165844
0.000161795
0.0256776
0.000176007
0.000148292
0.000198211
0.000157927
0.000160853
0.000136232
0.000742828
0.000144915
0.00019305
0.00787611
0.000197463
0.000141421
0.000283797
0.000167065
0.0128874
0.000224161
0.0274336
0.000202485
0.0362378
0.000138737
0.000190742
0.000159541
0.000142196
0.00460528
0.012304
0.000158367
0.00120971
0.000163899
0.00018977
0.0276371
0.000160505
0.00661584
0.0144447
0.0169175
0.0256836
0.000665274
0.000287182
0.000139888
0.000193455
0.000172453
0.00857801
0.0363472
0.0397164
0.04128
0.0418247
0.000139977
0.000233338
0.000144043
0.000152027
0.000147835
0.00181615
0.00022663
0.000197572
0.00014237
0.00956411
0.00016299
0.0238875
0.000141724
0.000188504
0.000166485
0.000188952
0.000178503
0.000196654
0.000153714
0.00018449
0.000227857
0.000140999
0.0241507
0.000142473
0.000201286
0.000155174
0.000166732