/*--------------------------------*- C++ -*----------------------------------*\
| =========                 |                                                 |
| \\      /  F ield         | OpenFOAM: The Open Source CFD Toolbox           |
|  \\    /   O peration     | Version:  v2012                                 |
|   \\  /    A nd           | Website:  www.openfoam.com                      |
|    \\/     M anipulation  |                                                 |
\*---------------------------------------------------------------------------*/
FoamFile
{
    version     2.0;
    format      ascii;
    class       surfaceVectorField;
    location    "200";
    object      ddtCorrDdt0(Uf);
}
// * * * * * * * * * * * * * * * * * * * * * * * * * * * * * * * * * * * * * //

dimensions      [0 1 -2 0 0 0 0];


internalField   nonuniform List<vector> 
20537
(
(-0.00060753 -0.00132093 -1.25752e-20)
(-0.000895427 -0.00130988 -1.60456e-19)
(-0.000729496 -0.00165767 -5.38586e-20)
(0.0306205 -0.05644 -2.2602e-18)
(0.000148887 -0.0787269 -1.12537e-18)
(0.0242317 -0.0316888 -8.73517e-19)
(0.00367009 0.0142367 -7.13801e-19)
(0.00542887 0.0140672 -2.68483e-19)
(0.00494634 0.0158256 3.70841e-18)
(-0.000950886 -0.000803094 1.62364e-19)
(-0.000997927 -0.00104255 -1.53777e-19)
(-0.00123236 -0.000787027 -1.15537e-19)
(-0.00716238 0.00247179 -5.70648e-19)
(-0.00722635 0.00346465 -1.81374e-18)
(-0.00638889 0.00293786 -1.69927e-18)
(-0.0550507 0.06067 9.60044e-19)
(-0.0575626 0.0419938 -2.03962e-19)
(-0.0395722 0.0470488 1.61994e-18)
(-3.72792e-05 8.88089e-05 -5.00815e-19)
(-3.58383e-05 9.29987e-05 -1.54094e-18)
(-4.00289e-05 8.74679e-05 -2.06329e-18)
(0.00353381 0.00389703 3.08548e-18)
(0.00304189 0.00351205 4.1757e-19)
(0.0029587 0.00428205 -5.11132e-18)
(0.000108394 -2.26208e-05 1.0554e-19)
(0.000107473 -2.35664e-05 7.58142e-20)
(0.000104962 -1.40385e-05 -1.30239e-20)
(0.0311181 0.00136299 8.55965e-19)
(0.0288838 -0.00135537 6.18251e-19)
(0.0271306 0.00220122 6.48927e-19)
(0.00263162 -0.0918679 4.86966e-19)
(0.00986361 -0.0948333 -5.63866e-19)
(0.0160628 -0.0794633 4.84026e-18)
(0.0783414 0.0716546 1.20364e-18)
(0.0670446 0.0817897 3.63176e-19)
(0.0775638 0.0853001 2.17595e-18)
(-0.00759156 -0.0327241 8.72805e-19)
(-0.0103185 -0.0303544 1.9295e-19)
(-0.00589344 -0.0320761 -4.06115e-18)
(0.074457 -0.0450143 -4.98363e-18)
(0.0856344 -0.0397032 2.17404e-18)
(0.072448 -0.0526552 -5.93213e-18)
(7.71799e-06 8.12956e-06 -1.56838e-18)
(6.37773e-06 9.09646e-06 -2.49545e-20)
(7.25695e-06 1.03187e-05 -4.22893e-19)
(0.00138587 -0.00376883 8.45098e-19)
(0.00176698 -0.00343048 1.35709e-18)
(0.00193508 -0.00404085 1.47109e-18)
(0.000390361 -0.000257195 -6.71498e-19)
(0.000336651 -0.000309033 7.23714e-19)
(0.000332818 -0.000227037 5.82696e-19)
(0.00229045 0.00448084 1.50449e-19)
(0.00157053 0.00433238 1.13854e-19)
(0.00181354 0.0052563 -1.30795e-19)
(-0.0293247 -0.0196797 1.85649e-19)
(-0.0326784 -0.0169733 -9.21418e-19)
(-0.0301164 -0.0147988 -4.51337e-19)
(0.00010939 -2.22062e-05 2.54749e-19)
(0.000110047 -2.61476e-05 3.00122e-19)
(-0.000919686 -0.000591475 -6.36751e-20)
(-0.000730703 -0.000775908 4.0494e-20)
(0.00222493 0.012807 -7.27658e-19)
(0.00150196 0.0144722 -7.51606e-21)
(9.92984e-05 -2.29623e-06 -6.80013e-21)
(0.000106883 -2.47179e-06 -6.02891e-20)
(0.000117728 -1.55286e-06 1.15373e-19)
(9.93519e-05 -2.01568e-06 6.22539e-19)
(8.21691e-05 -8.88302e-07 -5.10173e-20)
(0.00010149 -1.0285e-06 -8.09263e-19)
(9.06802e-05 -6.52901e-07 -1.39888e-19)
(7.21442e-05 -2.02845e-06 -1.72174e-20)
(0.00419808 0.00355372 2.20659e-19)
(0.0041333 0.00442059 2.97164e-19)
(6.0782e-05 0.000322457 5.18583e-18)
(5.29061e-05 0.000303931 2.11179e-19)
(7.58586e-05 0.000298079 3.45646e-18)
(-0.00403112 0.0283755 -1.83213e-18)
(-0.00589099 0.0218407 -1.08757e-17)
(-0.000447297 -0.00111272 -2.30526e-19)
(-0.000322597 -0.00136231 3.00269e-19)
(-0.000676715 0.000908475 1.93678e-19)
(-0.000823686 0.000792753 -1.522e-19)
(-0.000797508 0.00103375 -9.34632e-20)
(-0.0507194 0.0758265 2.03484e-18)
(-0.0754528 0.0770757 2.80078e-18)
(0.000454206 -0.000314629 1.2461e-19)
(0.000448605 -0.00020408 -1.86426e-18)
(0.00601923 0.012408 -2.54629e-18)
(0.00743694 0.013806 -1.51992e-18)
(-0.0331482 0.0398172 5.8973e-19)
(-0.032745 0.014097 2.14865e-18)
(-0.0249688 0.0297895 2.94379e-18)
(9.88066e-05 -1.8676e-06 3.21672e-19)
(0.000104058 -2.08077e-06 3.18233e-19)
(0.00679736 6.96798e-05 -3.8445e-19)
(0.00670046 0.000691739 9.436e-18)
(0.0071715 0.000344416 9.17543e-18)
(0.0125343 0.0011543 -4.25179e-18)
(0.0151332 0.000456074 6.88872e-19)
(0.0150131 0.00126151 -8.89758e-18)
(-0.0279495 0.0304439 1.93487e-18)
(-0.032148 0.0270474 1.24315e-18)
(-0.026022 0.0261412 3.36035e-19)
(0.0346723 0.00105126 -2.51112e-20)
(0.0324859 0.00536702 2.53813e-18)
(-0.0392706 0.0581234 1.08997e-18)
(-0.0306677 0.0757333 3.75386e-18)
(-6.00736e-06 -5.17845e-05 -2.53568e-20)
(-1.2187e-05 -5.44006e-05 -1.10296e-19)
(-4.37426e-06 -5.89331e-05 1.43764e-19)
(0.000114148 -3.72319e-05 9.0069e-20)
(0.000115364 -2.40508e-05 1.00587e-19)
(0.000112497 -3.21042e-05 3.21178e-20)
(-0.00098939 0.0658226 -1.08068e-17)
(0.00881642 0.06135 -5.63025e-18)
(0.0159585 0.0645725 4.04633e-18)
(0.0159719 -0.100479 2.87617e-18)
(0.0243397 -0.0750524 1.14392e-18)
(0.0211276 -0.0871218 4.3183e-19)
(0.00700347 -0.118917 1.82443e-18)
(0.0109166 -0.112448 -2.65956e-18)
(-0.00436906 -0.168937 -2.40585e-18)
(0.0600616 -0.151518 5.01635e-19)
(0.0462787 -0.16064 -2.13397e-19)
(0.0107296 -0.0656767 -3.27522e-18)
(0.0123776 -0.0856234 -3.2083e-18)
(0.0065245 -0.0963685 -3.59903e-18)
(0.0434534 -0.124243 -6.93959e-19)
(0.0519388 -0.106367 5.33286e-19)
(0.0273274 -0.163967 8.10582e-18)
(6.76126e-05 0.000340176 1.07306e-18)
(4.58408e-05 0.000342343 8.18015e-18)
(0.0185386 0.0298604 1.49677e-18)
(0.0162395 0.0219982 2.6565e-19)
(0.0102128 0.0307208 -5.83513e-19)
(-0.00190071 -0.00155994 -3.41951e-18)
(-0.00176247 -0.00190529 -8.52796e-19)
(-0.00151206 -0.00154911 -7.91071e-19)
(-0.00531152 -0.00869915 -3.13003e-18)
(-0.00449396 -0.00804062 -1.06099e-18)
(-0.00414517 -0.00938202 -4.15713e-18)
(0.00559463 0.00831649 5.19416e-18)
(0.00433062 0.00957993 -4.95676e-18)
(0.00451797 0.0128324 4.36348e-18)
(9.40025e-06 5.18964e-06 -2.7719e-19)
(1.04964e-05 3.88595e-06 -1.1131e-18)
(7.44372e-06 2.96181e-06 -6.23929e-19)
(3.07392e-05 1.61162e-06 -1.13776e-19)
(3.29929e-05 3.58802e-07 2.03128e-19)
(2.79643e-05 -8.45797e-07 -2.138e-19)
(0.00011258 -5.07591e-05 1.33298e-20)
(0.000116386 -4.29796e-05 -2.18219e-20)
(0.000125535 3.20842e-07 -2.01044e-19)
(0.000127829 -1.48445e-07 -3.99446e-20)
(0.000122233 -1.40594e-06 1.59696e-19)
(0.00964538 -0.00726889 7.03293e-18)
(0.0117163 -0.0161311 -1.04192e-17)
(0.00638844 -0.0105331 2.53125e-18)
(-0.000562777 0.000766646 6.99305e-20)
(-0.000516395 0.000950685 1.07372e-19)
(-2.37018e-05 8.41969e-05 -8.73141e-19)
(-2.55871e-05 8.26034e-05 -5.23286e-19)
(-2.7709e-05 9.15264e-05 1.74091e-19)
(-0.0309784 0.0358914 2.59614e-18)
(-0.0234474 0.0338739 1.87113e-18)
(-0.123013 -0.0402514 1.09258e-18)
(-0.107511 -0.053643 -1.07461e-18)
(-0.11538 -0.0589073 -9.39926e-19)
(0.0290234 0.00880594 6.28479e-19)
(0.0311013 0.0039487 -6.2888e-19)
(0.026186 0.00495406 -5.88992e-19)
(-0.00842821 0.000246413 -3.55942e-18)
(-0.00884092 0.00113591 -1.34786e-18)
(-0.0095473 0.0003499 -2.01514e-18)
(-0.0956504 -0.0203614 -4.86292e-19)
(-0.111361 0.00504027 6.83589e-18)
(-0.100647 -0.0097877 -4.95633e-18)
(-0.00210194 -0.00268611 1.68276e-19)
(-0.00219015 -0.0020815 1.08e-18)
(-0.00273223 -0.00251516 6.62235e-20)
(0.00804017 0.000820987 2.32961e-18)
(0.00827469 0.00197087 -1.3355e-18)
(0.00488509 -0.0115425 6.39351e-19)
(0.0080792 -0.0428904 -1.99626e-18)
(-0.000323511 0.000905884 -9.41656e-19)
(-0.000294465 0.000968143 3.3202e-19)
(-0.000251928 0.00090756 -1.26077e-19)
(0.00252891 0.00375588 2.38375e-19)
(0.00312149 0.00455331 -9.33838e-20)
(-0.012974 0.000412179 -3.17746e-20)
(-0.0126645 0.000329015 2.66603e-18)
(-0.0127338 0.000117799 2.38417e-18)
(-0.00573042 0.00423448 4.53828e-18)
(-0.006208 0.00496175 -3.53469e-19)
(0.000149826 0.0044417 3.74402e-18)
(0.0616699 -0.0237837 -4.41876e-18)
(0.0340492 -0.0761859 2.58291e-19)
(8.01595e-06 6.23188e-06 -2.44781e-19)
(8.82337e-06 4.97557e-06 7.55316e-19)
(2.68157e-05 5.73009e-07 -1.81003e-19)
(2.42628e-05 4.04548e-07 -2.02453e-19)
(2.75603e-05 3.85844e-06 1.50738e-19)
(0.000104206 -7.92134e-05 2.43874e-19)
(9.33985e-05 -7.7577e-05 -1.6e-19)
(0.00010085 -6.80103e-05 4.70676e-20)
(0.0011203 0.0121852 -3.61619e-18)
(0.00240081 0.0120364 -1.31575e-18)
(-0.00309697 -0.00347486 -2.48187e-18)
(-0.00324768 -0.00471421 8.28384e-18)
(-0.00161282 -0.00370144 7.25645e-18)
(-0.00107329 0.00235112 -1.98686e-18)
(-0.0013699 0.00234479 1.91818e-19)
(-0.00123916 0.00264392 -1.95437e-19)
(-0.010235 0.000785612 6.24434e-18)
(-0.0101613 0.000396092 7.29349e-19)
(-1.71694e-05 5.85875e-05 7.57262e-20)
(-1.8138e-05 4.69121e-05 -1.78016e-18)
(-1.98079e-05 6.2664e-05 -5.61604e-19)
(-0.00389123 0.115807 4.54474e-18)
(-0.00223879 0.113794 -1.23778e-18)
(-0.00476295 0.111181 -2.47197e-19)
(-1.16613e-05 -2.15514e-05 2.4272e-19)
(-1.34273e-05 -2.04798e-05 5.68855e-19)
(-1.25614e-05 -1.53868e-05 -2.32968e-19)
(0.0680945 -0.132658 -7.8019e-18)
(0.149083 -0.123901 -1.53109e-17)
(0.0498789 -0.109175 4.24486e-18)
(0.0264078 0.0127579 5.97584e-19)
(0.0325144 0.0126944 -2.95465e-19)
(0.0891289 0.0578755 -7.46585e-19)
(0.0741934 0.0588055 6.21069e-19)
(-0.00450398 0.0353568 1.89022e-19)
(-0.012451 0.0404242 2.20917e-18)
(-0.0113765 0.0313466 1.59311e-18)
(0.129934 -0.138207 -4.24857e-20)
(0.132246 -0.120506 -1.75652e-18)
(0.150059 -0.111646 2.19337e-18)
(0.000293913 0.000239099 2.49142e-18)
(0.000330751 0.000206606 1.16678e-18)
(0.000325342 0.000273021 -1.63755e-18)
(0.000399022 -0.000210209 -5.0978e-20)
(0.000355547 -0.000139313 5.38614e-20)
(0.000322467 -0.000234278 1.48317e-19)
(0.00630884 -0.000222732 -1.27766e-17)
(0.00697424 -0.00073838 -7.59809e-18)
(0.00383453 -0.0133187 5.01173e-19)
(0.0066026 -0.015006 -4.65223e-19)
(0.00280114 -0.0159551 -3.57309e-19)
(0.00703788 0.0217613 4.11578e-19)
(0.000357785 0.000529574 2.69807e-18)
(0.000399289 0.00056019 2.48914e-18)
(0.000336979 0.000602791 2.69926e-18)
(0.000248956 0.000224473 1.93485e-18)
(0.000245888 0.000292313 -4.87131e-19)
(0.000109158 -2.50479e-06 -2.41825e-20)
(0.000111401 -2.61013e-06 3.28304e-20)
(0.000121007 -4.94772e-06 4.00837e-20)
(-0.00808837 0.00192052 1.76607e-18)
(-0.00703319 0.00152846 1.45088e-18)
(-0.0102781 -0.0600789 2.47644e-18)
(-0.0111931 -0.0643165 2.84176e-18)
(-0.00622134 -0.059255 3.36314e-18)
(0.0183792 0.0388891 -7.41695e-19)
(0.0255788 0.0244036 2.13539e-20)
(8.21094e-05 -1.10688e-06 -2.12753e-19)
(0.000106501 -2.5503e-06 2.29647e-20)
(-0.00810925 -0.228091 -2.35872e-19)
(-0.00362931 -0.231778 -2.87343e-17)
(-0.0123981 -0.189473 -1.73789e-17)
(-0.00182133 0.00107026 -9.9974e-19)
(-0.00172102 0.000856356 -3.55162e-18)
(-0.00157448 0.0010723 6.51435e-19)
(0.000254494 -0.000110038 -2.22417e-20)
(0.000307444 -7.46393e-05 -7.37796e-21)
(0.000293777 -0.00016717 -4.73665e-20)
(-0.000102873 0.000275678 -2.75781e-18)
(-0.000114013 0.000284467 1.67882e-18)
(4.47747e-05 -5.46603e-06 4.08815e-21)
(5.24873e-05 -8.2344e-06 6.79817e-21)
(4.31745e-05 -5.74461e-06 -8.95424e-21)
(0.0127679 0.0391294 2.15168e-20)
(0.0203578 0.0362057 2.12581e-19)
(0.0139806 0.0299085 -1.69916e-19)
(-0.00174276 0.000228583 -1.16603e-18)
(-0.00192473 0.000395869 -4.96758e-18)
(-0.0020152 0.000113828 -2.05678e-18)
(8.34469e-05 -7.48717e-05 1.87972e-20)
(8.77566e-05 -7.13124e-05 -2.01845e-20)
(8.31893e-05 -6.8995e-05 -4.28443e-20)
(-0.0117206 0.00608744 3.19152e-18)
(-0.0131564 0.00639758 4.68027e-18)
(-0.0716044 0.0351596 1.51359e-19)
(-0.0549781 0.0280044 8.65533e-19)
(0.000108479 3.02244e-06 1.11552e-19)
(8.32247e-05 8.30155e-07 6.75541e-20)
(0.000109539 2.1243e-06 -1.67218e-19)
(0.000436532 -0.000309813 7.0154e-20)
(0.000478826 -0.000148966 -1.45208e-19)
(0.00174621 -0.0120628 -7.92938e-19)
(0.00468569 -0.0112897 1.06565e-19)
(5.55406e-05 5.58282e-07 8.31212e-20)
(5.57003e-05 -2.35693e-07 -1.83774e-19)
(0.000118243 5.08556e-06 1.64551e-19)
(0.000104022 2.91588e-06 -2.59385e-19)
(0.0363553 0.0477115 5.58222e-19)
(0.0121961 0.00781398 -4.54702e-18)
(-0.00869132 -0.0541003 -8.86961e-19)
(-0.013792 -0.0578823 -1.62906e-18)
(0.000102382 -1.6521e-05 -2.76295e-21)
(0.000103563 -1.50363e-05 2.67956e-20)
(0.00010198 -2.25204e-05 -4.14562e-21)
(6.90998e-05 -1.05085e-06 8.46521e-21)
(6.81802e-05 -9.12225e-07 -2.56897e-19)
(6.0945e-05 -1.57898e-07 1.298e-19)
(2.26636e-05 -2.72388e-06 2.39245e-19)
(3.62136e-05 6.84067e-06 -2.06792e-19)
(4.25887e-05 -6.71806e-06 -2.56798e-20)
(-0.0140936 0.0649081 -3.14202e-18)
(-0.00496576 0.0777267 -1.59425e-17)
(-8.51619e-05 0.000279756 1.03792e-17)
(-9.88722e-05 0.000264144 6.10622e-18)
(-0.00969427 -0.0325008 5.12125e-19)
(-0.00680789 -0.0345936 -3.39996e-19)
(-0.0137916 -0.110839 4.13154e-18)
(0.0332485 -0.133599 -3.01025e-18)
(0.0524018 -0.0941995 7.11948e-20)
(0.000465316 -0.00159448 -1.75085e-19)
(0.000218193 -0.00137867 2.17139e-20)
(0.000132417 -0.00187685 -2.88361e-21)
(0.0203054 -0.139522 3.69446e-20)
(0.00605289 -0.17618 -2.37737e-18)
(-0.00155385 0.00183408 2.09667e-18)
(-0.0016033 0.00164503 5.01352e-18)
(-0.00184272 0.00185405 4.68423e-18)
(-0.000852379 -0.000388775 -5.72282e-20)
(-0.00106435 -0.000335982 -1.19489e-19)
(-0.019912 0.0048346 -4.98945e-18)
(-0.0184966 0.00391578 5.56199e-19)
(-0.0204278 0.00241546 -7.85382e-19)
(-6.48789e-06 -4.41675e-05 -3.37097e-21)
(-1.16908e-06 -5.13036e-05 -6.1395e-20)
(8.05696e-05 5.02769e-05 1.45258e-19)
(7.73637e-05 4.99639e-05 3.53863e-20)
(7.64246e-05 4.50085e-05 9.68617e-20)
(-0.0132411 0.00056376 -3.91308e-18)
(-0.0123727 0.000844104 -1.19443e-18)
(-1.05221e-05 -2.51225e-05 -7.11543e-20)
(-1.06045e-05 -2.14049e-05 4.90651e-19)
(0.0454656 0.057875 -1.19633e-18)
(7.21373e-05 1.16701e-05 -5.96675e-20)
(7.57368e-05 1.34606e-05 -1.32092e-19)
(7.44614e-05 8.71027e-06 3.97898e-20)
(0.0001015 -1.89091e-05 -6.38691e-21)
(0.000103545 -1.15024e-05 -7.0806e-20)
(-0.00493185 0.00327566 -5.97345e-19)
(-0.0037717 0.00240832 1.35637e-19)
(0.00193006 0.00258298 -4.78502e-18)
(-0.0185978 0.0300208 -2.17286e-18)
(0.0111293 0.0128507 -2.3808e-18)
(-0.00172335 0.0401857 -4.33434e-18)
(0.0789355 0.11545 3.23592e-19)
(0.0851005 0.114821 -3.77644e-19)
(0.0678036 0.134856 5.26551e-19)
(-0.00769467 -0.233998 1.60776e-17)
(-0.0159793 -0.224073 2.53633e-17)
(2.65457e-05 2.91537e-06 8.42819e-20)
(3.74895e-05 2.00952e-06 1.89658e-19)
(0.00114284 -0.00112774 1.66808e-19)
(0.00150959 -0.00115232 5.49115e-19)
(0.00124866 -0.00160748 -1.19217e-19)
(0.00013959 3.91165e-05 -7.24227e-21)
(0.000129213 1.86997e-05 -1.89589e-20)
(0.000129129 3.6112e-05 4.69248e-20)
(-0.000129446 -0.000330626 -6.40717e-19)
(-0.000103765 -0.000373753 -1.07279e-18)
(-8.91624e-05 -0.000317554 -3.85628e-20)
(0.0250288 -0.0611465 1.66195e-19)
(0.0311726 -0.0485456 2.42056e-19)
(-0.000781968 0.00781136 1.2964e-18)
(0.00150684 0.00707565 8.11284e-20)
(-0.000401441 0.00567568 5.67443e-19)
(-0.0224154 0.00620069 -7.24011e-18)
(-0.0196334 0.007499 -2.71433e-18)
(-3.72437e-05 8.49568e-05 1.77002e-18)
(-3.41283e-05 8.79869e-05 1.62719e-19)
(0.00168955 -0.121819 -2.89547e-19)
(0.000710733 -0.131259 -1.01299e-19)
(0.000946583 0.000459219 -6.32147e-18)
(0.0011318 0.000358696 -3.52095e-18)
(3.92275e-05 2.07833e-06 -2.79886e-19)
(3.81121e-05 2.42206e-06 1.50436e-19)
(3.29272e-05 3.03224e-06 8.44349e-20)
(0.060408 -0.0544344 4.55683e-18)
(0.0784677 -0.0400194 -4.52993e-18)
(0.000122773 1.20449e-06 -2.10828e-19)
(0.000128979 2.35949e-06 3.29455e-19)
(6.11339e-05 1.01486e-05 1.55104e-18)
(6.89628e-05 3.34833e-05 7.88119e-19)
(5.16829e-05 3.38959e-05 -9.45406e-20)
(-0.000165836 -0.000346008 1.97211e-18)
(-0.000149852 -0.000301661 1.94895e-18)
(6.49286e-05 -2.2382e-05 -1.74928e-20)
(6.21261e-05 -2.72491e-05 1.36178e-19)
(6.0939e-05 -3.21064e-05 -2.30908e-20)
(-0.000463348 0.000388838 -1.20212e-19)
(-0.000404972 0.000343826 -1.95984e-19)
(-0.000468475 0.000289313 9.73686e-19)
(-0.00588089 -0.00995122 -2.94047e-18)
(-0.00639852 -0.0084899 -5.77452e-19)
(-0.00198161 -0.00116038 1.06074e-18)
(-0.00227897 -0.00146685 4.25295e-18)
(7.92903e-05 -2.89589e-05 -6.23046e-21)
(7.68088e-05 -3.43733e-05 1.67179e-20)
(8.38222e-05 -1.88763e-05 -1.57178e-20)
(-2.03112e-06 0.000586341 5.3779e-18)
(4.1558e-06 0.000617175 2.50622e-18)
(-3.58588e-05 0.000609044 1.3065e-18)
(0.00839349 -0.000647629 -9.59636e-18)
(0.0111581 -0.00473163 8.36615e-18)
(8.35069e-05 4.92493e-05 8.20136e-20)
(8.4486e-05 5.38874e-05 -2.81678e-20)
(-0.0034171 2.78605e-05 -7.4561e-20)
(-0.00306564 -0.000512787 9.8297e-20)
(-0.00288984 8.3639e-05 7.27488e-20)
(0.000131724 2.14292e-05 -2.37533e-19)
(0.000131798 2.18014e-05 8.75674e-20)
(0.000126741 1.77668e-05 -7.71998e-20)
(-0.00322601 0.0080482 -2.18603e-19)
(-0.000397271 0.0109102 -1.43233e-19)
(-0.000395246 0.000899967 2.16488e-18)
(-0.000340111 0.000855231 -4.53154e-20)
(-0.000706133 -0.000400541 -2.30122e-20)
(-0.000813641 -0.000243358 7.07408e-20)
(-0.0180145 -0.104424 1.39088e-18)
(0.010538 -0.110086 -7.88628e-20)
(-0.0124984 -0.101903 2.54059e-18)
(-0.00122385 -0.00197241 -1.3799e-17)
(-0.00443063 -0.00305984 -6.83372e-18)
(0.000141166 9.58901e-06 1.97336e-19)
(0.000141225 1.67419e-05 3.07397e-21)
(0.000141857 8.02571e-06 -1.26589e-19)
(6.8762e-05 -1.64011e-05 -3.04418e-19)
(6.78128e-05 -1.14946e-05 -4.62355e-20)
(0.0725841 0.112147 -1.13133e-18)
(0.0912515 0.0946657 8.61351e-20)
(8.69547e-05 4.68851e-05 -1.14505e-19)
(8.23589e-05 4.44267e-05 -1.24526e-19)
(0.0555576 -0.0855142 3.32616e-18)
(0.0626896 -0.0631586 8.91123e-20)
(-0.00146529 0.00211098 2.30417e-19)
(-0.00127592 0.00185412 -3.05294e-18)
(0.00158188 0.000402893 -1.26397e-20)
(0.00148846 0.000704994 2.0077e-19)
(0.00191921 0.000595732 1.52389e-19)
(-0.0242918 -0.0237152 -5.96792e-20)
(-0.026531 -0.0210116 5.84265e-19)
(8.36055e-05 -8.48192e-05 -5.26655e-21)
(7.85345e-05 -8.41477e-05 2.18951e-20)
(8.3707e-05 -9.05011e-05 -6.99606e-21)
(0.000596389 -0.000293365 4.7671e-19)
(0.000528896 -0.000360353 5.11385e-19)
(0.00060929 -0.000406554 -2.97248e-19)
(-0.00889076 0.00402351 -3.48059e-18)
(-6.13071e-06 -2.42485e-05 9.86259e-19)
(-4.99997e-06 -2.33137e-05 4.70296e-19)
(-6.41872e-06 -2.31108e-05 4.47899e-20)
(0.00101192 0.0159454 -3.6699e-18)
(-0.000135204 0.0146129 6.03783e-19)
(4.81764e-05 -1.26797e-05 1.82275e-20)
(4.70551e-05 -1.11279e-05 -7.63247e-22)
(4.61094e-05 -8.67264e-06 1.44825e-21)
(0.000111099 -5.69588e-06 -5.14376e-20)
(0.000114011 -5.54549e-06 -2.76359e-20)
(0.000123908 -6.30698e-06 -3.45625e-19)
(-0.0018836 -0.00326245 2.06217e-19)
(-0.00148014 -0.00278676 -2.91947e-19)
(2.44735e-05 -2.45948e-06 2.72764e-19)
(2.32163e-05 -9.76434e-08 -2.61575e-19)
(-0.00931673 0.00449834 -5.9057e-18)
(-0.00929393 0.00573786 -2.79765e-18)
(-0.010667 0.00516203 -7.41635e-19)
(0.0122292 -0.0365512 5.27049e-20)
(0.0168913 -0.0399374 6.58053e-19)
(0.0165734 -0.0336744 4.42815e-19)
(0.0149718 -0.0319604 1.79606e-18)
(0.00667046 0.00799813 -1.65111e-17)
(0.00757058 0.00425942 9.3356e-18)
(0.000496962 -0.00040822 1.48473e-19)
(0.000635114 -0.000334879 7.57985e-20)
(0.000555071 -0.000533681 2.34508e-20)
(-0.000104773 0.0012275 -4.06283e-18)
(-0.000163997 0.00115192 1.22825e-19)
(-7.007e-05 0.00112972 -1.14013e-18)
(-0.137508 -0.0223416 6.34067e-19)
(-0.126878 -0.0218574 1.30907e-18)
(4.37652e-05 -3.24816e-05 5.23208e-19)
(5.15917e-05 -1.41646e-05 -7.40021e-19)
(4.23571e-05 -1.04074e-05 -1.71229e-19)
(0.000777434 -0.00108249 -1.38937e-19)
(0.000965071 -0.000814548 -2.56795e-20)
(-0.00522675 0.180698 -6.3202e-18)
(0.00343156 0.176536 -2.2616e-18)
(-0.0111364 0.163171 -4.32017e-18)
(0.00164136 1.10503e-06 8.93485e-20)
(0.00132983 0.000199406 3.66588e-19)
(0.000117447 -7.55041e-05 -4.05721e-20)
(0.000112466 -8.9917e-05 6.87692e-20)
(0.000864879 -0.00184644 1.38216e-19)
(0.000720625 -0.00131428 -1.02863e-20)
(0.0320469 -0.17509 1.44106e-18)
(0.0424795 -0.157298 6.94022e-19)
(0.0787833 -0.146352 7.15304e-20)
(4.17289e-05 1.1964e-06 9.48622e-20)
(6.29107e-05 2.4906e-06 -6.67698e-21)
(3.99142e-05 1.02976e-06 1.49927e-19)
(4.58218e-06 7.43673e-05 -5.04951e-19)
(7.80725e-06 7.0545e-05 2.59548e-20)
(7.45198e-06 7.34505e-05 2.266e-19)
(0.0185603 -0.019785 -6.61473e-20)
(0.0153244 -0.0197411 -6.17978e-19)
(0.0166631 -0.0170061 5.02734e-21)
(-6.08692e-06 -2.4217e-05 5.99908e-20)
(-8.01719e-06 -2.59101e-05 1.13689e-19)
(-0.162848 0.203503 -3.64304e-18)
(-0.176895 0.214978 8.35255e-18)
(-0.161534 0.205149 2.71218e-18)
(0.000406257 -8.10115e-05 2.7672e-19)
(0.000349374 -9.85877e-05 2.19668e-19)
(0.000363802 -2.08991e-05 1.20197e-18)
(-0.0115488 -0.00206176 -7.9189e-20)
(-0.0123003 -0.00171 -4.32106e-18)
(-0.011695 -0.001712 -5.23904e-18)
(6.74909e-05 -6.33772e-05 5.53265e-21)
(6.75996e-05 -6.18346e-05 8.49816e-21)
(6.99573e-05 -7.68998e-05 -5.82455e-21)
(-0.00740571 -0.00490643 3.05874e-18)
(-0.00721141 -0.0041613 -2.62464e-18)
(-0.00664948 -0.00504762 6.49988e-18)
(0.000213624 -7.37308e-05 -3.59645e-20)
(0.000201809 -0.000138392 -3.00633e-20)
(-0.000172618 0.198058 6.36517e-19)
(0.00119499 0.202925 -1.1255e-18)
(5.20487e-05 0.206386 5.19752e-19)
(6.51536e-05 -6.22408e-05 -1.05689e-21)
(6.94136e-05 -6.87668e-05 5.79599e-20)
(6.4704e-05 -5.93059e-05 5.41714e-20)
(0.000147098 3.63735e-05 1.63263e-19)
(0.000158362 4.33427e-05 7.66788e-20)
(0.000146561 3.33714e-05 5.00157e-20)
(-0.0232759 -0.0591121 -3.49778e-19)
(-0.0163333 -0.0698073 6.01468e-18)
(-0.0109176 -0.0591216 2.39282e-18)
(0.0235046 0.0211352 -2.83563e-19)
(0.0234267 0.0161579 2.88535e-19)
(0.0180592 0.0188091 2.10076e-19)
(-0.0417643 -0.155013 8.38995e-19)
(-0.0363635 -0.174786 7.94882e-19)
(6.79794e-06 -2.2015e-07 -2.38178e-19)
(7.69521e-06 2.14706e-06 7.56248e-19)
(6.50491e-06 -1.93966e-06 9.19013e-20)
(-0.011298 -0.00239436 2.82936e-18)
(-0.0107455 -0.00243879 6.6817e-18)
(0.000441022 -0.00012931 2.69919e-20)
(0.000460337 -5.15868e-05 1.76888e-18)
(-1.18596e-05 5.64765e-05 -1.57719e-19)
(-1.54256e-05 7.50357e-05 1.10077e-18)
(0.00478572 -0.0259837 -3.82437e-18)
(0.0048063 -0.0266116 6.44794e-20)
(0.00444534 -0.0245135 3.59384e-18)
(-0.0112504 -0.0050925 1.74028e-18)
(-0.0127027 -0.00520877 3.23156e-18)
(-0.0118372 -0.00676658 3.90526e-19)
(-0.00962508 0.000864307 2.73975e-18)
(-0.00946028 0.000711926 -1.63406e-18)
(-0.00958711 0.00127593 3.6839e-18)
(9.49756e-05 -1.85242e-06 1.00257e-19)
(9.50857e-05 -1.38613e-06 -1.38385e-19)
(6.81791e-05 -9.52065e-07 -3.99373e-20)
(0.000401127 0.000773487 -1.0743e-18)
(0.000359634 0.000866946 -1.36866e-18)
(0.000460545 0.00083531 1.18588e-18)
(4.67762e-05 -4.72971e-06 7.96218e-20)
(3.45006e-05 -2.57246e-06 3.68339e-20)
(0.00646736 -0.0171254 -8.58983e-18)
(0.00135576 -0.016231 -3.55269e-18)
(0.00509479 -0.0110557 -4.97808e-18)
(6.23818e-05 -5.54118e-05 -3.65343e-20)
(6.65838e-05 -6.59082e-05 -4.07633e-20)
(0.00484119 0.00318595 2.30141e-18)
(0.00423289 0.00280085 6.11189e-19)
(-0.0741163 0.14114 -2.21981e-19)
(-0.0843592 0.128873 2.04854e-18)
(-0.130772 0.156183 7.15328e-19)
(0.000140468 1.0104e-05 9.50267e-22)
(0.000141525 2.93567e-06 1.62654e-21)
(0.000373119 -0.000417229 8.10473e-20)
(-0.0008492 -0.000892703 6.25712e-18)
(-0.0011159 -0.000968987 -8.63479e-19)
(-0.00101035 -0.000690026 3.85431e-18)
(-0.0107979 0.0180293 -6.58671e-19)
(-0.00918858 0.0151407 1.41328e-19)
(-0.00696961 0.0172314 8.35256e-19)
(-0.128573 0.186775 -8.35276e-18)
(-0.161934 0.200012 -2.23093e-18)
(-0.0876478 -0.0333453 -3.4363e-18)
(-0.0757657 -0.0394609 -2.33751e-18)
(0.000145174 4.03014e-05 -7.13313e-20)
(0.000155959 5.87445e-05 -5.49688e-20)
(1.73787e-06 7.34868e-05 -5.30384e-19)
(2.45142e-06 7.7483e-05 1.37744e-19)
(-0.0257416 0.07028 -3.15817e-19)
(-0.0380821 0.0912961 -2.82023e-19)
(0.0513891 -0.0337275 3.05962e-19)
(0.0530734 -0.0181553 -1.23123e-19)
(0.0471157 -0.0320535 1.46481e-18)
(0.000111404 0.000230492 8.4098e-22)
(8.99003e-05 0.000142401 -2.82258e-20)
(3.30426e-05 0.000179251 -4.55606e-20)
(0.0216217 -0.0191266 -6.39678e-20)
(0.0203531 -0.0226144 -4.75303e-19)
(5.76962e-05 -1.24438e-05 5.01133e-21)
(6.12508e-05 -1.17971e-05 4.21185e-20)
(-0.0093312 -0.000581625 -1.30356e-18)
(-0.00969604 -0.000349565 -1.81886e-18)
(-0.00947092 -0.000159808 2.6159e-18)
(-0.0019335 0.00127918 -1.54969e-18)
(-0.00212161 0.00104612 1.57112e-19)
(-0.00691669 0.140754 -2.74227e-18)
(-0.00925952 0.103803 -1.93325e-18)
(0.00182158 0.116013 6.07022e-19)
(-0.000218753 -0.000349148 2.62875e-19)
(-0.00025101 -0.000346942 -3.48541e-19)
(-0.00023439 -0.000314863 -1.12235e-18)
(0.000145461 -0.00110632 3.58151e-19)
(8.40407e-05 -0.000969019 -3.84466e-19)
(2.03359e-05 -0.00110073 -1.21938e-19)
(-0.00655945 0.00656911 1.01623e-19)
(-0.00821857 0.00555484 -1.00345e-19)
(-0.00634828 0.00441185 1.37954e-19)
(0.0494062 -0.0414719 6.06619e-19)
(0.054622 -0.0353621 -1.14594e-19)
(-6.43751e-05 -8.52044e-05 -4.74412e-19)
(-6.85685e-05 -9.19015e-05 -6.3231e-20)
(-7.24311e-05 -8.32108e-05 4.78593e-19)
(-0.000192125 -0.000406412 1.00905e-18)
(-0.000759617 0.00013697 -1.132e-18)
(-0.000686527 1.49245e-05 2.77335e-19)
(-0.000865338 4.14132e-05 7.83927e-19)
(0.044195 -0.0542212 -3.59907e-19)
(0.0504346 -0.051846 4.58297e-19)
(0.0458018 -0.0459922 6.80684e-19)
(0.00736402 -0.0394596 -2.05317e-18)
(0.00780656 -0.0333852 -4.85159e-19)
(-0.00720256 0.00229445 1.40854e-18)
(-0.0033245 0.00155054 -1.25654e-18)
(0.0214699 0.00072739 -1.00685e-18)
(0.015197 -0.00141929 8.90602e-19)
(0.015051 0.00446829 -3.81027e-18)
(-8.2199e-06 4.34183e-05 7.89204e-19)
(-8.13639e-06 4.19825e-05 -2.39507e-19)
(-6.02373e-06 3.89153e-05 1.57875e-18)
(0.000135549 2.74255e-05 3.63039e-21)
(0.00273478 0.00306142 3.95826e-19)
(0.00325769 0.00272883 -2.83055e-20)
(0.00270315 0.0022769 -5.03455e-20)
(-0.0539558 0.0728516 1.66822e-18)
(-0.0669178 0.0615293 2.14667e-18)
(-0.0471391 0.0379173 -7.92371e-19)
(0.000244075 -0.000270489 1.09331e-19)
(0.000201715 -0.000254329 -4.53271e-20)
(0.000188029 -0.000323595 -3.93676e-20)
(-0.0303766 -0.0183362 1.33137e-18)
(-0.0339666 -0.0143666 1.94025e-18)
(-0.031069 -0.0194869 3.28784e-18)
(4.69835e-05 -5.58226e-05 -1.34137e-18)
(4.04194e-05 -5.59604e-05 1.0615e-18)
(-5.74448e-05 -8.36769e-05 -6.88839e-19)
(-6.08499e-05 -7.87507e-05 -7.20091e-19)
(0.000301206 0.000528595 -4.45897e-18)
(0.000354237 0.000485753 -3.0762e-18)
(0.00478872 -0.0271137 -4.00334e-18)
(0.00465716 -0.0253055 -5.20617e-19)
(-0.00487952 -0.0109633 1.15652e-18)
(-0.00358494 -0.00865527 -5.16628e-19)
(-0.00233593 -0.0106633 -1.61975e-19)
(-0.00576342 0.00927393 3.72252e-19)
(-0.0046879 0.00727487 6.67658e-20)
(6.8102e-05 -1.55367e-05 5.06206e-19)
(-0.107844 0.056313 1.02543e-18)
(-0.105825 0.0420365 -2.36286e-19)
(-0.10291 0.0185116 -1.87145e-19)
(-0.000783878 0.00233322 3.6772e-19)
(-0.000914389 0.00212463 -1.10797e-18)
(0.000947829 -0.00419526 -1.24926e-18)
(0.000862788 -0.00355563 -4.48278e-19)
(7.45277e-05 4.83419e-05 -5.51563e-20)
(7.80018e-05 5.5544e-05 4.87168e-20)
(-0.0036761 0.110737 9.31679e-19)
(-0.00531787 0.115737 2.86997e-19)
(-0.0161681 -0.0041105 -3.51442e-19)
(-0.0176763 -0.00798338 1.85721e-20)
(-0.0132547 -0.00741851 4.24914e-19)
(-0.0104735 0.00555168 -4.41509e-18)
(-0.00952677 0.00516399 -1.61846e-18)
(-0.00935073 0.00573316 2.84416e-18)
(-0.00233274 -0.0845563 -2.88811e-19)
(-0.00736653 -0.0972374 1.14681e-17)
(0.000147462 0.000313809 5.00978e-21)
(0.00019115 0.00024049 2.14533e-20)
(6.1781e-05 -4.19859e-05 -8.38001e-21)
(6.51175e-05 -5.23494e-05 -2.02439e-20)
(6.36164e-05 -3.81692e-05 2.2129e-20)
(4.02384e-05 -6.20202e-06 -8.74948e-22)
(3.93479e-05 -5.61957e-06 -4.1258e-22)
(4.63481e-05 -8.19996e-06 2.80862e-20)
(-0.00068124 0.000191564 -2.58924e-18)
(-0.000802857 0.000229602 -2.18606e-18)
(-0.0384995 0.0769172 3.77102e-18)
(-0.0641518 0.11797 -2.53696e-18)
(0.0620671 -0.0613917 -1.56269e-19)
(0.0647937 -0.0348952 -1.14671e-18)
(0.057235 -0.0409944 8.82559e-19)
(0.000116267 -3.95789e-05 -1.2957e-20)
(0.000114061 -4.60606e-05 3.0795e-19)
(0.000119854 -4.08395e-05 -3.31276e-19)
(-1.11197e-05 2.14865e-05 7.12928e-19)
(-8.08294e-06 2.34769e-05 3.9913e-20)
(-1.13314e-05 2.45436e-05 3.6653e-19)
(-0.102589 0.079559 -6.65568e-19)
(-0.105847 0.093821 1.68937e-18)
(0.00600806 0.102276 7.49898e-19)
(0.00586749 0.086711 4.56098e-20)
(0.00960708 0.0791551 -2.64987e-19)
(-0.0244388 0.00732818 2.9115e-18)
(-0.0246061 0.00436314 -3.59008e-18)
(-0.000491594 0.000685427 -3.97267e-19)
(-0.000609885 0.000618977 -6.8747e-19)
(-2.52615e-05 8.69258e-05 -1.85689e-18)
(-2.18669e-05 7.97162e-05 -8.83747e-19)
(-0.000404548 0.00109389 -3.84925e-18)
(-0.000371725 0.0011742 2.51998e-18)
(-0.000492379 0.00116704 2.52348e-18)
(0.00218857 0.110321 9.28527e-19)
(0.00393056 0.102952 1.0846e-18)
(-0.0319045 -0.0177599 -7.67849e-19)
(-0.0260554 -0.0223991 -5.31669e-19)
(-0.00244839 -0.000774876 -1.69215e-19)
(-0.00227249 -0.000630125 7.90164e-20)
(-0.0021603 -0.000948283 -8.39017e-19)
(0.102081 0.0518254 -4.81483e-19)
(0.0934381 0.0412943 -2.82694e-19)
(7.29006e-05 5.40384e-05 4.2776e-20)
(6.96992e-05 4.55838e-05 1.26077e-20)
(7.2048e-05 4.78385e-05 5.02905e-20)
(-0.00919371 -0.00102535 3.39604e-19)
(-0.00903133 -0.000822873 -4.24083e-18)
(1.25077e-05 0.000563878 4.16068e-18)
(-2.20662e-05 0.000569517 8.0237e-19)
(0.000284876 -0.000354218 -3.03715e-20)
(0.000331463 -0.000399115 -1.10388e-19)
(-0.0110249 0.00455929 -1.49375e-18)
(-0.00975843 0.00463259 -3.81156e-18)
(-0.0100967 0.00420913 7.53563e-19)
(4.05351e-05 0.000143344 1.54197e-19)
(5.20556e-05 0.000136451 -8.25797e-21)
(4.15935e-05 0.000157927 3.48932e-19)
(0.00317345 0.038543 -1.44008e-18)
(0.00572191 0.0488904 1.49266e-19)
(-0.00205021 -0.0116602 3.30601e-18)
(-0.0012482 -0.0127432 3.39257e-18)
(-0.00097298 -0.0131223 3.65555e-18)
(0.000110663 -3.7882e-05 -1.84323e-20)
(0.000117379 -3.26219e-05 -8.63867e-20)
(-0.000709641 0.000612283 -4.75491e-18)
(-0.000719164 0.000532625 1.19123e-18)
(-0.000799578 0.000584513 -1.47748e-18)
(0.000473568 0.000509033 -1.05335e-18)
(0.000457116 0.000600843 -9.68387e-20)
(-0.000419424 0.000601062 -6.72842e-20)
(-0.000382136 0.000709927 -1.88095e-19)