/*--------------------------------*- C++ -*----------------------------------*\
| =========                 |                                                 |
| \\      /  F ield         | OpenFOAM: The Open Source CFD Toolbox           |
|  \\    /   O peration     | Version:  v2012                                 |
|   \\  /    A nd           | Website:  www.openfoam.com                      |
|    \\/     M anipulation  |                                                 |
\*---------------------------------------------------------------------------*/
FoamFile
{
    version     2.0;
    format      ascii;
    class       volVectorField;
    location    "200";
    object      U;
}
// * * * * * * * * * * * * * * * * * * * * * * * * * * * * * * * * * * * * * //

dimensions      [0 1 -1 0 0 0 0];


internalField   nonuniform List<vector> 
13851
(
(1.01612 -0.00789653 -2.16733e-21)
(0.650814 0.266548 0)
(1.05865 -0.0621784 2.90579e-21)
(1.01658 -0.00688212 -1.00247e-21)
(1.06348 -0.0471632 0)
(1.06655 0.0405817 0)
(1.0296 -0.00174635 0)
(1.04808 -0.0481013 -7.19017e-21)
(1.01002 -0.00118822 -3.60999e-22)
(1.02509 -0.088487 3.44134e-21)
(0.918791 -0.0366106 0)
(0.649014 -0.196407 5.15779e-21)
(1.00404 -0.0527542 -2.96254e-22)
(0.213436 0.248008 -9.74654e-21)
(1.01879 -0.000518748 1.46879e-21)
(1.02634 -0.0343122 0)
(1.03849 -0.0232515 0)
(1.02432 -0.0188705 3.75795e-22)
(1.0575 -0.0402398 1.86657e-22)
(1.00988 -0.00119694 3.54823e-22)
(1.01675 -0.00698909 -1.1825e-22)
(1.05954 -0.0593871 8.39305e-21)
(1.00261 1.22997e-05 -2.29904e-22)
(1.00417 -0.000115417 3.91519e-22)
(1.00202 -2.30041e-05 0)
(1.04674 -0.049372 5.54578e-21)
(1.04816 -0.017331 2.93251e-21)
(0.0262785 -0.13246 -3.99348e-20)
(1.01638 -0.00836372 2.24021e-21)
(1.02439 -0.0165917 5.84325e-22)
(1.07355 0.0424153 0)
(1.0389 -0.0242831 0)
(1.05618 -0.0627433 5.00676e-21)
(0.935522 0.188954 -3.32707e-21)
(1.00491 -0.000131652 -4.83887e-22)
(1.08279 -0.0571462 -3.51263e-20)
(1.08982 -0.06428 -4.29696e-20)
(1.08011 -0.0422491 0)
(1.02706 -0.0937975 3.87554e-21)
(0.952909 0.170776 -1.61611e-21)
(1.01596 -0.00601498 -5.80225e-23)
(1.00689 0.000195757 -1.24979e-22)
(-0.0400797 0.0350367 0)
(0.900354 -0.100075 -3.07707e-21)
(0.890618 -0.0783466 3.97736e-21)
(-0.0187887 -0.105924 -1.08051e-20)
(0.893184 -0.140665 2.73067e-21)
(0.845 -0.10177 0)
(1.04905 -0.0178732 -9.51738e-21)
(1.04932 -0.0207546 0)
(1.06897 -0.0454899 0)
(1.06475 -0.0511739 0)
(-0.0231707 -0.203191 -1.59708e-20)
(1.01846 -0.000488498 6.45496e-21)
(1.01163 -0.00068564 9.77124e-22)
(1.00709 0.000221799 2.48766e-22)
(1.00473 -7.88881e-05 9.58946e-22)
(0.00523373 -0.195972 0)
(1.02425 -0.0162192 1.67049e-22)
(1.03036 -0.00423023 0)
(1.08417 -0.0437861 4.51593e-21)
(0.484146 0.0677699 -5.77034e-23)
(1.02444 -0.0486054 0)
(1.06418 -0.0471379 -1.18612e-20)
(0.974858 0.0978706 0)
(1.01485 -0.00561472 1.87445e-21)
(1.09678 -0.0659781 0)
(0.899822 -0.17115 0)
(1.06023 -0.0317292 0)
(1.02374 -0.019269 -3.91611e-22)
(0.341213 -0.0004061 -3.33974e-20)
(1.05441 -0.0668138 1.47432e-20)
(0.686388 0.268871 -5.49722e-21)
(1.01843 -0.000516345 0)
(1.0124 -0.00108961 1.0743e-21)
(1.01224 -0.00154562 5.72692e-22)
(1.0587 -0.0581614 4.07915e-21)
(0.491874 -0.00898304 2.98796e-20)
(1.05906 -0.0421097 6.781e-21)
(0.321291 -0.00361353 -7.87174e-21)
(1.03306 -0.00797048 9.51528e-21)
(0.90295 0.00724476 -1.19102e-22)
(1.02069 -0.00412651 -1.96057e-21)
(0.00303634 -0.131214 0)
(1.03036 -0.0492252 -2.49552e-21)
(0.692904 -0.2073 -1.02639e-20)
(1.05745 0.00790562 -1.75875e-21)
(0.669258 -0.0711245 1.53765e-20)
(1.04527 -0.0231117 4.30966e-21)
(1.01271 -0.00147432 0)
(1.08178 -0.0567161 5.15662e-20)
(1.00245 -0.00794773 -3.05527e-21)
(0.90247 -0.177028 -2.3482e-21)
(1.04935 -0.0273417 -1.45366e-20)
(1.04577 -0.0223142 -4.25692e-21)
(1.00331 -5.92996e-05 -2.23948e-23)
(1.06378 -0.0470122 0)
(0.634062 -0.0632039 0)
(1.05026 -0.0285054 -6.14506e-23)
(1.00261 -2.08174e-05 -3.34646e-22)
(0.122151 0.166474 -1.89304e-20)
(1.0638 -0.0409465 -1.09155e-21)
(1.01879 -0.0107044 -3.7295e-24)
(1.05429 -0.0100519 -2.36508e-20)
(1.00288 6.67763e-05 2.41556e-23)
(1.06004 -0.016717 -5.22241e-22)
(1.06594 -0.0420573 -9.69854e-21)
(1.00621 0.000305481 -2.10881e-22)
(0.956305 -0.0639184 -1.87e-21)
(1.05094 0.054161 4.35661e-22)
(1.00295 -4.8225e-05 6.74093e-22)
(1.01306 -0.00161096 -3.31488e-22)
(1.00526 -0.00715355 0)
(1.00092 3.25872e-05 -5.00662e-22)
(1.00368 -7.54004e-05 -4.9035e-22)
(0.917793 0.245242 3.89947e-21)
(0.668355 -0.0617248 -2.03585e-20)
(1.00572 0.000130886 3.02782e-22)
(1.0059 -0.00024651 0)
(1.01 -0.00050235 0)
(-0.0346494 0.0286958 -1.05e-21)
(1.05328 -0.0104709 1.58947e-20)
(0.973776 -0.0529485 4.5885e-21)
(0.916648 0.192996 2.57532e-20)
(0.853048 -0.0798367 -3.53505e-22)
(1.01248 -0.00108003 -3.15566e-22)
(0.846274 -0.0410678 0)
(1.06136 -0.041506 0)
(1.01695 -0.00650267 0)
(1.06545 -0.044826 -6.4949e-21)
(1.01581 -0.00583353 -3.18642e-22)
(1.00909 -0.00115581 -2.24585e-22)
(0.362317 -0.00563472 3.07313e-20)
(1.02066 -0.00388027 0)
(0.912882 0.233195 0)
(1.00868 -0.000521266 3.14545e-22)
(1.00567 0.000116492 0)
(1.06215 -0.0662952 0)
(0.0632724 0.226146 1.6746e-20)
(0.2127 0.195927 3.00256e-21)
(0.0610217 0.13061 0)
(1.01128 -0.000646911 7.63923e-22)
(1.01598 -0.00350922 -6.50677e-22)
(1.00966 6.03838e-05 0)
(1.03184 -0.0179677 -1.55955e-21)
(0.907406 -0.128966 7.01814e-22)
(1.02324 0.00259985 -3.52094e-22)
(1.06659 -0.0444994 0)
(1.0289 -0.00174064 0)
(0.889153 -0.0355754 -2.52307e-21)
(1.08126 -0.0435652 -2.24998e-20)
(1.0104 -0.000618839 1.54939e-22)
(0.230146 0.246327 2.85857e-20)
(1.00466 -9.08657e-05 -3.49267e-22)
(1.03889 -0.0151955 -6.92263e-21)
(1.03119 -0.0176607 0)
(1.01243 -0.00289946 -1.63579e-22)
(1.0251 -0.0155986 -2.50519e-21)
(1.06407 -0.050857 0)
(1.06821 -0.0451926 1.20652e-20)
(1.00923 0.000891771 -5.09518e-23)
(1.05583 -0.0240848 0)
(-0.0037573 -0.20204 0)
(1.00896 -0.0011123 0)
(1.02358 -0.0192949 0)
(1.00827 0.000114975 -7.55038e-22)
(1.02525 0.00431472 2.82553e-22)
(1.0614 -0.0318231 -1.26209e-20)
(1.01698 -0.00657797 -9.47778e-22)
(0.473113 -0.075032 9.10973e-22)
(0.475258 -0.00512496 -3.59345e-20)
(1.00716 -0.000575723 7.85822e-22)
(1.01256 -0.003035 5.05564e-22)
(0.19483 0.209686 2.10476e-21)
(1.00877 -0.00102212 2.47669e-22)
(0.856679 -0.132646 -9.69028e-22)
(1.06046 -0.0413224 0)
(1.0178 -0.00405667 0)
(1.05518 -0.042054 -9.36227e-21)
(1.00677 0.000409449 -6.15975e-24)
(1.0385 -0.0259617 3.49926e-21)
(1.03768 -0.0659439 -1.38683e-20)
(1.02054 -0.00333096 -4.46685e-21)
(1.06175 -0.0591473 -1.73957e-20)
(1.00537 0.000238909 -1.3002e-24)
(1.00291 -4.20113e-05 0)
(1.01434 -0.00648213 0)
(1.01178 -0.000746182 0)
(1.0644 -0.047813 9.34046e-21)
(0.971669 -0.0562358 5.82581e-21)
(0.89787 -0.164416 -1.9796e-21)
(-0.0290183 -0.203566 5.53608e-20)
(1.01358 -0.001812 1.01548e-21)
(1.05697 -0.0335773 9.13435e-21)
(0.548727 0.0678879 -2.05395e-21)
(1.03741 -0.0148114 -3.18808e-22)
(1.01577 -0.00308797 1.94707e-21)
(0.984476 0.0227221 -5.19858e-21)
(1.01725 -0.00384412 3.50612e-22)
(1.01239 -0.00161772 5.68439e-22)
(1.01254 -0.00158195 3.16886e-22)
(0.12432 -0.0567735 0)
(1.00357 -0.000111123 -3.92202e-23)
(1.01762 -0.00484498 -1.32194e-21)
(0.99824 -0.0624184 0)
(1.02095 -0.00351483 0)
(0.488585 0.00513796 -2.55224e-20)
(1.04087 -0.0233714 0)
(0.496704 -0.0205686 -2.50491e-21)
(1.00781 0.000653346 -3.78285e-23)
(0.758301 -0.053805 1.62524e-20)
(1.01869 -0.0103388 -9.73332e-23)
(0.917266 0.00636865 -5.7915e-21)
(1.00645 0.00043418 4.85212e-23)
(1.00918 0.000100963 -1.83395e-22)
(0.952664 0.0251564 0)
(1.03817 -0.0411501 2.12183e-21)
(-0.0783525 -0.102392 8.35715e-22)
(1.01897 -0.00118259 -5.85616e-21)
(0.512587 -0.0233152 -1.00255e-20)
(1.04075 -0.0240401 -1.55152e-22)
(1.03386 -0.00826769 -3.56216e-21)
(0.776731 -0.0596313 1.44222e-20)
(1.06292 -0.0478439 7.84276e-21)
(0.654956 -0.045317 0)
(1.0021 -7.78481e-06 3.26733e-23)
(1.0508 -0.0306134 -7.02169e-21)
(1.00239 3.53095e-05 -6.28993e-23)
(-0.0770285 -0.170923 1.40431e-20)
(1.00667 0.000479239 5.32741e-23)
(1.04469 -0.0489141 5.84783e-21)
(1.10065 0.0232479 0)
(1.00701 -0.000530557 -7.88962e-22)
(1.01327 -0.0016344 0)
(1.07009 -0.0433748 -3.50469e-21)
(1.03482 -0.0105568 2.3057e-21)
(0.564689 0.0025096 2.75472e-20)
(0.925965 0.107626 3.01407e-21)
(1.00963 7.19256e-05 0)
(1.01791 -0.00494294 0)
(1.086 0.0213698 4.6386e-22)
(0.9963 -0.0830546 -2.92507e-22)
(1.01182 0.00124917 0)
(0.99508 -0.0668409 0)
(1.00349 9.67872e-05 0)
(0.597788 -0.0386183 0)
(1.0634 -0.041661 8.90332e-21)
(0.918093 0.150438 2.37579e-21)
(1.03018 -0.0178538 0)
(1.0317 -0.0245148 0)
(1.02603 0.00614034 -7.46509e-22)
(0.979311 -0.0892784 0)
(1.0284 -0.0112182 0)
(1.03085 -0.0181972 0)
(1.06978 -0.0392675 -5.70028e-21)
(0.934536 -0.0747398 5.74528e-21)
(0.972928 -0.0483223 -5.65542e-21)
(1.04773 -0.0660847 -1.40677e-20)
(0.507246 -0.0201787 2.99487e-20)
(1.02156 -0.00108628 0)
(1.00924 9.16639e-05 -2.03384e-22)
(1.02213 -0.0186557 -1.44503e-21)
(0.915201 0.195953 0)
(1.01118 -0.000694411 0)
(1.02076 -0.0320584 -1.16232e-20)
(1.03684 -0.0149597 6.1137e-21)
(1.0284 -0.0107904 0)
(1.04918 -0.0265848 0)
(0.815194 -0.0602263 7.28938e-23)
(1.00703 0.00245094 1.45555e-21)
(1.02747 0.00482514 7.52692e-22)
(1.03824 -0.01547 -5.92214e-21)
(0.97034 0.132521 0)
(1.0585 -0.041104 1.36309e-20)
(1.0257 -0.0326961 5.82861e-22)
(1.00926 -0.00124622 2.41565e-22)
(0.89649 -0.020313 -7.22646e-22)
(1.0115 0.018221 7.67365e-22)
(0.663573 -0.0472442 0)
(0.918643 -0.00652991 -1.92644e-21)
(1.01209 0.00123692 0)
(1.00751 0.000633197 0)
(1.00305 7.13138e-05 -1.98844e-23)
(1.06961 -0.0384584 5.72289e-21)
(0.917664 0.193324 -6.57746e-21)
(0.870078 -0.17265 1.60318e-21)
(1.0112 -0.00148477 0)
(1.01954 -9.44236e-05 1.04853e-21)
(0.983129 0.130214 0)
(0.925632 -0.0563551 -1.31895e-22)
(1.06742 -0.0429827 0)
(1.02443 -0.0160243 0)
(1.03059 -0.00465386 0)
(1.05979 -0.0346496 -1.2281e-20)
(0.931634 -0.0245443 2.80911e-21)
(1.03429 -0.0365851 5.77762e-21)
(1.02463 -0.0204476 -1.1712e-22)
(0.685648 -0.212331 0)
(1.00956 -0.0013781 1.4164e-24)
(0.620243 -0.0411758 -1.2866e-20)
(1.05553 -0.0234319 -1.17654e-20)
(1.0374 -0.0230254 0)
(0.679261 -0.0499805 -9.40854e-21)
(1.01995 -0.00931761 5.53679e-22)
(1.06521 -0.00867951 0)
(0.694689 -0.0470184 0)
(1.0109 -0.00143855 0)
(1.06667 -0.0362122 -1.89139e-20)
(1.04849 -0.028011 1.22687e-20)
(1.0242 -0.0156354 0)
(0.0827207 0.213125 -4.8856e-21)
(1.02417 -0.0203613 -3.75919e-22)
(1.02694 -0.0109776 0)
(0.7373 -0.0623854 2.97125e-21)
(1.00725 0.000167278 1.47539e-22)
(1.03215 -0.025334 -9.80702e-22)
(1.01275 -0.00283504 8.46844e-22)
(0.712208 -0.0508053 -1.6137e-20)
(1.0805 -0.0522981 -1.45065e-20)
(1.0192 -0.00130802 4.06138e-21)
(1.0661 -0.0405234 -1.02721e-20)
(1.01958 -0.000825267 0)
(0.535326 -0.0332443 0)
(1.02583 0.0121528 2.00278e-21)
(1.00281 -1.08031e-05 0)
(1.01395 -0.00337281 3.56404e-23)
(1.07947 -0.0519004 1.46599e-20)
(1.0504 -0.0294267 0)
(1.03971 -0.0141821 -1.1177e-20)
(1.0194 9.63436e-08 0)
(1.01998 -0.00920643 -6.38934e-22)
(1.02641 -0.0108072 0)
(0.906119 -0.0484255 -1.17483e-22)
(0.38421 0.234574 -5.21991e-20)
(0.482165 -0.0402379 -4.47807e-21)
(1.02014 -0.0240728 -2.27437e-21)
(0.725316 -0.0527738 1.36614e-22)
(0.870613 0.00619255 9.63156e-21)
(1.0187 -0.000506507 -1.66028e-21)
(1.05659 -0.034595 -1.49593e-20)
(1.06899 -0.0423254 0)
(1.00247 -0.0166134 1.86219e-21)
(1.04923 -0.00559646 -5.98902e-21)
(1.06709 -0.0508149 0)
(1.05663 -0.0376779 0)
(1.01384 1.92878e-05 0)
(0.871337 0.208614 -8.25701e-21)
(0.665638 -0.0437615 -2.34021e-21)
(1.01875 -0.00041241 1.55989e-21)
(1.02867 -0.0205725 -1.79871e-22)
(1.0242 -0.0250228 2.85815e-22)
(1.10368 -0.0910057 -2.82689e-24)
(1.04015 -0.013819 7.60077e-21)
(1.05436 -0.00286494 -3.33507e-21)
(-0.0785817 -0.176185 -7.27497e-21)
(1.01281 -0.00316537 -1.06745e-21)
(0.861707 0.196187 1.185e-20)
(1.01391 -0.0032635 -1.16001e-21)
(1.01944 -0.000756529 2.79562e-21)
(1.0039 0.000118451 4.5965e-23)
(1.00636 0.000344364 1.20651e-22)
(1.01185 -0.00267584 -2.54767e-22)
(0.701152 -0.0472997 -6.8148e-21)
(0.988301 -0.0632647 0)
(1.01978 -0.00649317 -2.88445e-21)
(1.06632 -0.0351617 -3.38798e-20)
(1.00796 0.000178327 -3.11288e-22)
(0.642183 -0.221561 -2.32236e-21)
(1.01609 -0.0339859 -3.98583e-22)
(0.868067 -0.198459 -1.52186e-21)
(0.491504 -0.0627448 2.91163e-22)
(1.01977 -0.00671985 1.96702e-21)
(1.04374 -0.0440229 -3.63207e-21)
(1.0465 -0.0289252 9.15469e-21)
(0.86351 -0.188797 -7.51622e-22)
(1.0151 -0.00515912 -2.41773e-22)
(1.00576 0.000124052 -3.03107e-22)
(1.0128 0.00745842 1.46294e-21)
(0.230605 0.135004 0)
(1.01209 -0.000909304 0)
(0.124447 0.193714 0)
(1.00009 -0.0133107 3.47153e-21)
(1.06681 -0.051575 -1.23056e-20)
(0.415526 -0.0852156 7.70928e-21)
(1.00947 -0.057026 0)
(1.01977 -0.0521023 -1.25988e-22)
(1.02598 -0.00428 -1.07156e-21)
(1.00959 -0.00137129 0)
(1.01785 -0.000290782 -1.06857e-22)
(1.01937 -0.0222964 1.10007e-21)
(1.06681 -0.0400776 0)
(0.247316 0.244659 2.17234e-20)
(1.06292 -0.030962 -1.25235e-20)
(0.697691 -0.0487073 -1.58234e-20)
(0.689025 -0.0467093 8.6819e-21)
(1.00795 0.000163694 0)
(1.02196 -0.00109777 0)
(0.45786 -0.0545392 4.71372e-21)
(0.355142 -0.00454425 0)
(1.12064 -0.0046769 3.63893e-21)
(0.696906 -0.0620211 1.5241e-20)
(1.0125 0.00965581 0)
(1.04713 -0.0299564 -3.19516e-21)
(1.00242 -3.4652e-05 0)
(0.917133 -0.00413076 -8.74504e-21)
(1.0086 -0.000851972 4.3425e-22)
(1.02801 -0.03451 0)
(1.02427 -0.00414615 -1.71634e-21)
(1.02733 -0.00306634 -2.25453e-21)
(1.00263 4.08013e-05 -2.35138e-23)
(1.01073 -0.00135846 0)
(1.00825 0.000127122 2.38404e-22)
(1.06422 -0.0471325 0)
(1.03462 0.00108094 -3.12962e-21)
(0.559996 -0.0574881 -4.37208e-20)
(1.02257 -0.0203857 -1.85364e-21)
(1.06645 -0.0414747 1.14549e-20)
(1.01731 0.0113612 4.41893e-21)
(0.966025 -0.0725059 0)
(1.02994 -0.0255069 -1.47898e-21)
(1.09394 -0.0993037 -1.2337e-20)
(1.03693 -0.0222144 0)
(0.962655 0.042224 7.43492e-22)
(1.00565 0.000126039 -1.02203e-22)
(1.01046 -0.00131477 1.23653e-21)
(1.00228 -3.48236e-05 0)
(1.09648 -0.0407626 0)
(0.891169 -0.20679 -3.26276e-21)
(1.06324 -0.0469177 1.30304e-20)
(1.01493 0.00868649 -2.88995e-21)
(0.551404 -0.0551609 4.38645e-20)
(0.931908 0.187574 3.73659e-21)
(1.05635 -0.00045428 0)
(1.0093 -0.000524478 0)
(1.07103 -0.0435069 -1.80182e-20)
(1.01492 -0.00496333 0)
(0.950002 -0.0741614 -3.93296e-24)
(1.00288 5.20295e-05 0)
(1.03369 -0.132083 0)
(0.885515 -0.0833473 -4.41905e-22)
(1.05057 -0.0641405 0)
(0.496072 -0.0177695 0)
(1.01712 -0.0041923 7.16823e-22)
(1.02705 0.0186029 2.61645e-22)
(0.882122 -0.106709 0)
(0.38211 0.136145 0)
(1.00563 0.000249785 0)
(1.04812 -0.0320656 0)
(1.05999 -0.0421735 0)
(1.00531 0.00595616 -5.92497e-22)
(1.00787 -0.000704558 1.01817e-22)
(1.02586 -0.0109924 0)
(1.08098 -0.0423888 0)
(1.06561 -0.050861 -2.60801e-21)
(1.02622 -0.0237427 2.38924e-21)
(0.401002 -0.23408 -5.8187e-23)
(1.00254 -2.94284e-06 -1.24052e-22)
(1.01422 -0.00351619 0)
(-0.0864343 -0.046428 0)
(1.02332 -0.0185905 -1.65274e-22)
(1.00727 0.000599913 -1.8223e-23)
(0.604527 -0.0869662 1.3874e-20)
(1.00947 -0.00130675 0)
(1.01625 -0.00736682 1.30751e-21)
(1.00858 -0.000854511 0)
(1.01529 -0.0123436 0)
(1.02421 -0.0143955 -4.5549e-22)
(1.00757 0.000630458 4.02568e-23)
(1.01666 -0.00387681 -6.93411e-22)
(0.761643 -0.0633219 0)
(1.02105 -0.00441689 0)
(1.06312 -0.0330763 1.47466e-20)
(1.00895 -0.000593325 -3.26834e-22)
(1.02651 -0.0119173 0)
(1.00609 0.0409537 0)
(1.00068 -3.14142e-06 5.83624e-22)
(1.01492 -0.00500698 8.09108e-24)
(1.00173 3.6201e-05 1.40646e-22)
(1.00159 -2.57001e-05 2.89796e-22)
(0.896345 -0.143482 1.96217e-21)
(1.02897 -0.0103896 0)
(1.06738 0.0154118 7.07705e-22)
(1.02049 -0.00306734 4.50191e-21)
(1.00312 -2.7643e-05 0)
(0.0642049 0.199349 1.72867e-20)
(0.481025 -0.0152196 0)
(1.02173 -0.00366123 0)
(1.02678 -0.014187 0)
(1.0307 -0.0263252 1.55901e-21)
(1.01335 -0.0955546 0)
(-0.0371055 -0.123431 -1.6217e-20)
(1.01428 -0.00364947 0)
(0.981364 -0.100989 -5.69484e-21)
(1.01537 -0.0053869 2.52366e-22)
(1.06316 -0.0489528 9.24805e-21)
(1.02842 -0.00412726 0)
(-0.132783 -0.133758 0)
(1.00531 0.00011831 0)
(-0.0265321 -0.193959 -5.23e-20)
(0.968819 -0.0341488 -9.02104e-21)
(1.00695 0.000178376 0)
(1.02384 -0.0155834 0)
(0.552436 -0.0780275 0)
(1.04358 -0.0504993 -1.26166e-20)
(0.915167 0.086532 -1.59844e-21)
(1.00705 -0.000306543 -3.15834e-23)
(0.902655 0.213468 6.12576e-21)
(1.01082 -0.000570285 -1.07038e-21)
(1.00835 -0.000905715 5.8055e-22)
(1.0095 -0.00135762 -8.10081e-22)
(1.02749 -0.00159666 2.29441e-21)
(0.379597 -0.0100395 0)
(1.06731 -0.0439911 -1.23964e-20)
(1.07018 -0.0535094 1.78885e-20)
(1.06036 -0.0537888 1.45579e-20)
(1.03277 -0.042372 2.48905e-21)
(1.0095 0.000909829 -1.75853e-23)
(0.860145 -0.0328824 5.3147e-22)
(0.898062 -0.195313 2.53377e-22)
(1.03959 -0.026262 -3.81769e-21)
(1.0552 -0.0248245 -1.50269e-22)
(1.0285 -0.0812359 0)
(0.900348 0.197497 -5.53449e-22)
(0.805693 -0.0562689 0)
(1.01685 -0.000307325 0)
(-0.137887 -0.133932 4.5251e-20)
(0.0303834 -0.118875 1.44886e-20)
(0.0351916 -0.0537523 0)
(1.02367 -0.0199346 1.55727e-22)
(1.02349 -0.0176761 5.0251e-24)
(0.893249 0.0107839 -8.03271e-21)
(1.02189 0.0223544 0)
(0.926686 -0.0589636 -1.14808e-21)
(0.960962 0.0401946 0)
(0.943151 -0.117622 1.20099e-20)
(1.02486 -0.0157673 1.99294e-21)
(0.922951 -0.107475 1.3415e-20)
(1.02884 -0.0646102 3.76583e-22)
(1.00553 0.000129034 1.51151e-23)
(1.01683 0.0175361 0)
(1.06809 -0.0442249 -2.54687e-22)
(0.457643 -0.00825941 0)
(1.02975 -0.0182355 -1.27506e-21)
(1.0174 -0.00335655 7.26701e-22)
(1.0122 -0.00278485 -3.0605e-22)
(1.01661 -0.00582945 0)
(1.06404 -0.0475826 -9.93205e-21)
(1.02704 -0.00951616 1.14731e-21)
(0.691369 -0.04037 -9.32048e-21)
(0.414145 -0.240611 0)
(1.00786 -0.000431421 -2.79042e-22)
(-0.070225 -0.0202196 -1.50153e-21)
(0.532992 -0.0208083 4.13321e-22)
(1.07922 -0.0469829 4.76593e-22)
(0.888179 -0.170083 -7.88974e-21)
(1.06202 -0.0329697 0)
(1.00681 0.000527954 1.37489e-23)
(1.01031 -0.00124735 -4.20619e-22)
(1.0373 0.0119653 0)
(0.824797 -0.0337942 -2.70835e-22)
(1.03972 -0.0156389 6.03587e-22)
(1.07896 -0.0477842 -1.41882e-20)
(1.07867 -0.0570845 0)
(1.00704 0.000246932 -3.59383e-22)
(1.01914 0.0204164 2.24593e-21)
(0.87368 0.157529 -8.39432e-21)
(1.10157 -0.0885264 1.84867e-20)
(1.06522 -0.0496514 0)
(0.390492 -0.011793 0)
(1.02774 -0.0651066 1.37635e-20)
(1.01553 -0.00558234 -2.17128e-22)
(1.02773 -0.00279872 2.40216e-21)
(0.519874 -0.0721685 3.30097e-22)
(0.676955 -0.0460053 -1.88525e-20)
(1.07658 -0.0534375 2.02742e-22)
(1.06365 -0.0301711 0)
(1.01943 -0.055369 0)
(1.00659 0.000362179 -3.80677e-23)
(1.01445 -0.00356093 0)
(1.01319 -0.122522 0)
(1.00676 0.000246838 0)
(1.02915 -0.0178496 2.25805e-21)
(1.00672 0.000434152 -6.49727e-23)
(1.00949 -0.00109949 0)
(1.01233 -0.0649924 -3.64161e-21)
(1.06402 -0.0472145 1.13471e-20)
(1.01647 0.0052139 -2.43144e-21)
(1.00674 0.000270522 0)
(0.177763 0.175814 9.80333e-21)
(0.989882 -0.0284786 5.34161e-21)
(1.00975 -0.00146842 0)
(1.00488 -0.000101045 0)
(1.01132 -0.000828841 -1.51543e-22)
(1.01835 -0.000370473 0)
(0.213629 0.0850413 0)
(0.926507 0.109328 1.16935e-20)
(0.91181 0.0679935 -5.72397e-21)
(-0.0131144 -0.0259786 4.16697e-21)
(0.905087 0.215251 1.69027e-22)
(1.06285 -0.0286104 0)
(0.438309 -0.00403121 -1.71761e-20)
(0.474502 -0.0162021 3.25609e-21)
(1.01278 6.68981e-05 8.86204e-22)
(1.05971 -0.0326541 0)
(1.00691 0.000547703 1.425e-23)
(1.01244 -0.00215988 -1.76939e-22)
(1.03117 -0.0388392 -5.39261e-21)
(0.809406 -0.0605249 1.52472e-20)
(0.888505 0.203178 -5.87795e-21)
(1.07802 -0.0474207 0)
(1.04258 -0.0313962 0)
(1.00946 -0.00107815 0)
(1.02321 -0.0310687 -7.55134e-22)
(1.01556 -0.000948893 -1.37808e-21)
(0.92165 0.112953 2.48567e-21)
(1.06638 -0.0456116 0)
(1.02013 -0.00287937 2.11441e-21)
(1.02214 -0.024519 2.28674e-21)
(1.00779 -0.000680805 -4.08113e-22)
(1.05043 -0.0252967 4.23277e-21)
(1.06334 -0.0462393 -2.32935e-20)
(1.02962 -0.00409618 0)
(1.01466 -0.00477265 1.18448e-22)
(1.01718 -0.036349 -2.60884e-22)
(1.02731 -0.00686271 6.90609e-21)
(1.06362 -0.0475476 1.00379e-20)
(1.09893 -0.0472072 -1.21238e-20)
(1.06355 -0.0479403 0)
(1.02077 -0.0289422 0)
(1.07734 -0.0539816 -1.52884e-20)
(1.00923 -0.00103573 4.01087e-22)
(1.11015 -0.0292386 1.49659e-21)
(1.02504 0.00906894 0)
(-0.0571816 -0.0248579 9.83383e-21)
(1.01892 -0.0103548 -2.38326e-24)
(1.00341 -7.75107e-05 0)
(0.983932 -0.0639809 0)
(1.02187 -0.0149253 -3.74206e-23)
(0.402468 -0.100875 -5.47192e-21)
(0.631725 -0.04059 6.20874e-22)
(-0.128134 -0.105714 2.25833e-20)
(0.575868 -0.0670959 -9.3828e-21)
(1.00849 -0.000826384 -1.57404e-21)
(1.03411 -0.0659734 0)
(1.01265 0.00131375 -1.52978e-23)
(1.00944 -0.00120865 -1.10736e-22)
(1.00525 0.000131291 8.49599e-23)
(1.00956 -0.00121986 2.04895e-22)
(1.01691 0.00119537 0)
(1.02191 -0.0215183 2.80399e-21)
(1.01775 -0.01315 -1.90015e-21)
(1.00649 0.000269011 0)
(0.87875 -0.0203443 0)
(0.965775 -0.0418353 9.39275e-21)
(0.848259 -0.00453547 -1.06772e-20)
(1.01166 -0.00231952 3.29643e-22)
(1.00497 0.000157263 1.43274e-22)
(1.00349 4.15941e-06 8.03949e-22)
(1.07056 -0.043864 0)
(0.579224 0.0783869 -2.7523e-21)
(1.07391 -0.038331 7.72982e-21)
(1.05031 -0.0259262 0)
(1.01286 0.00139547 0)
(1.00296 -3.17964e-05 7.52903e-22)
(1.00681 -0.000266627 0)
(1.01289 -0.00296384 0)
(1.06315 -0.0600885 -1.48732e-20)
(0.333354 -0.0725977 0)
(1.02682 -0.00661151 -1.39517e-21)
(1.00648 0.000292197 0)
(1.02779 -0.00125814 -4.87165e-21)
(1.0128 -0.00299874 3.5756e-22)
(1.08175 -0.137498 0)
(-0.0188162 -0.209153 2.70318e-20)
(1.02389 -0.0326447 -8.72437e-22)
(0.593457 -0.0612603 0)
(0.896151 0.209865 4.68996e-21)
(1.01448 -0.00458049 -1.12842e-22)
(1.06949 -0.0528267 1.02067e-20)
(0.33768 0.156982 0)
(1.06032 -0.0337413 1.22357e-20)
(0.655717 -0.184832 0)
(1.03246 -0.00820697 -3.11712e-21)
(1.02291 -0.0186711 1.03468e-22)
(1.07305 -0.0380849 8.72363e-22)
(1.02171 -0.0194288 1.5551e-21)
(0.942058 -0.00984466 5.93243e-21)
(1.02131 -0.00346275 0)
(0.894654 0.088629 -1.21315e-20)
(1.00278 4.7238e-05 0)
(1.06831 -0.0217633 0)
(0.517732 -0.0223573 1.16519e-20)
(1.01307 -0.00134638 -1.6325e-21)
(1.02051 -0.0133748 -2.58928e-23)
(1.01272 -0.0527548 0)
(1.00854 -0.000988111 1.2288e-24)
(1.03814 -0.0249669 0)
(0.956608 0.15735 0)
(0.210702 0.242132 -8.85708e-21)
(1.06578 -0.0454039 -8.34817e-22)
(1.04217 -0.0309253 3.9927e-21)
(0.996802 -0.0716375 0)
(1.00648 0.000413149 6.99884e-23)
(1.01141 -0.00222064 -9.19507e-22)
(0.0170422 0.182548 4.65467e-20)
(1.07888 -0.0565794 -5.2341e-21)
(1.03639 -0.00720308 0)
(0.653534 -0.0431122 -7.27123e-21)
(1.00989 -0.00108778 3.98556e-22)
(1.01517 -3.54651e-05 3.81125e-21)
(1.00555 0.000114433 -9.32595e-23)
(0.90773 0.211348 -1.32007e-20)
(1.08675 -0.0655275 -2.45063e-20)
(1.02548 -0.0196033 1.47192e-21)
(1.01685 -0.00731774 -4.60404e-22)
(0.995373 0.0385854 0)
(1.04602 -0.0191774 0)
(1.00365 7.303e-06 -1.18473e-21)
(-0.0611423 -0.0202535 6.98717e-20)
(0.932425 -0.087274 -6.79443e-23)
(0.599198 -0.0412884 0)
(1.00721 0.000183542 -4.55614e-22)
(1.02685 -0.00622558 -2.57571e-21)
(0.458641 -0.00610333 1.74008e-20)
(0.0125633 -0.221962 0)
(1.08063 -0.0555631 -9.27322e-21)
(1.01558 -0.00102757 1.39785e-21)
(0.931632 -0.0625397 3.11521e-20)
(1.02105 -0.00385385 -2.05676e-21)
(0.974585 0.0374574 0)
(1.07866 -0.0714226 0)
(1.05226 -0.0665805 8.74287e-21)
(1.03227 -0.0230467 3.76849e-21)
(-0.106499 -0.109474 0)
(1.02775 -0.00114329 1.1113e-21)
(1.01858 0.00117253 -1.26488e-21)
(1.08466 -0.0632368 2.07365e-20)
(1.00361 -7.83573e-05 0)
(1.00217 -4.77477e-05 0)
(1.02443 -0.0148407 -5.03033e-22)
(1.0091 -0.000986153 -8.7129e-22)
(-0.0764592 -0.0501641 -2.268e-20)
(1.03558 -0.0361059 -1.9076e-21)
(1.06575 -0.0503334 0)
(1.01483 0.00345145 4.27411e-21)
(1.00767 0.0227998 -3.90579e-22)
(1.00961 -0.00114263 -8.0515e-22)
(0.923728 0.181464 0)
(1.00573 -0.000193742 -4.78517e-22)
(1.0279 -0.00289255 8.2222e-22)
(1.00488 0.000116843 4.497e-22)
(1.01406 -0.00423541 1.73878e-22)
(1.01063 -0.000710433 -4.92972e-22)
(0.679197 -0.0460558 -1.30165e-21)
(1.01208 -0.00279668 2.62281e-22)
(1.00596 0.000124393 2.28414e-23)
(0.894584 -0.0251566 -1.72016e-21)
(1.02845 -0.00289757 2.54709e-21)
(0.479161 -0.0106034 -1.61072e-20)
(1.00233 2.96246e-05 0)
(1.01541 -0.00237073 1.42201e-21)
(1.07309 -0.0443263 0)
(1.06793 -0.14821 0)
(1.007 0.0153094 5.76766e-21)
(1.00727 -0.000335131 -6.16947e-22)
(0.994413 0.105531 0)
(0.616151 -0.0549546 5.15104e-22)
(1.02896 -0.010812 0)
(0.782959 -0.0547014 1.41596e-20)
(1.06726 -0.021678 0)
(1.00878 -0.000904012 -8.69192e-22)
(1.03158 0.0101083 -1.81416e-22)
(-0.0488125 0.0208208 -3.89298e-20)
(1.02988 0.0844071 8.2307e-23)
(1.02926 -0.02372 1.34088e-21)
(1.0077 -0.000374116 0)
(1.00624 0.000285498 0)
(0.89304 -0.149387 0)
(1.0531 -0.0729929 9.14039e-21)
(0.995172 -0.00897128 -4.6384e-22)
(1.02477 -0.0200375 7.18144e-22)
(1.03443 0.00833939 -9.89347e-22)
(1.01777 -0.000319469 0)
(1.01539 -0.00189304 -7.12089e-22)
(1.08227 -0.0465335 0)
(0.941406 -0.18122 4.25953e-21)
(1.06422 -0.0483711 -9.61799e-21)
(0.894293 0.211237 -4.73088e-22)
(1.02634 -0.00597035 2.21472e-21)
(1.06358 -0.0484029 0)
(1.0697 -0.0473174 1.40751e-21)
(0.735919 -0.0531391 3.64609e-20)
(1.02519 -0.0190268 -3.89437e-22)
(0.331474 0.0182517 0)
(1.05844 -0.0520476 -4.97691e-22)
(1.02888 -0.00257239 2.26877e-21)
(0.221319 -0.118807 -1.34401e-20)
(1.09167 -0.031041 -2.90921e-22)
(0.642616 0.0188074 -8.52262e-22)
(0.238365 0.243701 7.74404e-21)
(0.689582 -0.0613841 1.5565e-20)
(0.993662 -0.0988704 -5.24915e-22)
(1.02934 -0.0450355 -2.29915e-21)
(1.00889 -0.000940587 3.97651e-22)
(1.01782 -0.0215054 0)
(-0.00739859 -0.192592 0)
(0.113793 -0.135304 -1.24049e-20)
(1.0137 -0.00267136 1.13024e-21)
(1.00242 -2.50441e-05 -5.88689e-22)
(1.06952 -0.0439882 -3.21643e-21)
(0.993621 -0.00922606 -9.44013e-22)
(1.00668 0.000129708 2.06582e-22)
(-0.00967805 -0.220443 0)
(1.00957 -0.00104032 -4.03443e-22)
(1.02065 -0.0061529 -4.12693e-21)
(-0.0927266 -0.0554913 0)
(0.467514 -0.00685305 1.55432e-20)
(1.00104 -0.0790534 -3.37332e-23)
(1.00945 -0.0012345 -1.52999e-22)
(1.01946 -0.000567016 -4.83092e-21)
(0.0103791 -0.221613 0)
(1.06267 -0.0594227 2.27491e-20)
(1.07668 -0.0524534 1.36579e-20)
(1.01472 -0.00320436 0)
(0.528649 -0.0379811 -2.60404e-21)
(1.10116 -0.0806092 0)
(0.660149 0.0619401 3.21678e-21)
(1.06512 -0.0418992 2.45588e-21)
(1.06529 -0.0350694 1.78854e-20)
(1.0263 -0.0111443 1.19608e-21)
(1.02824 -0.00367036 0)
(0.738475 0.273405 1.27028e-22)
(1.07662 -0.035266 -3.32201e-20)
(0.347664 -0.00467448 0)
(1.01575 0.0131466 -3.71301e-22)
(1.06182 -0.0307647 2.33208e-20)
(-0.0501227 -0.075205 4.17392e-20)
(0.609028 0.0142257 -1.59092e-22)
(0.515444 -0.0156455 1.5006e-20)
(1.02338 -0.00377559 0)
(1.0626 -0.0263977 0)
(1.00963 -0.00140745 0)
(1.02127 -0.0307175 0)
(1.02012 -0.0130542 2.65796e-23)
(0.568258 -0.164607 2.42756e-21)
(1.0103 -8.3958e-05 -5.18502e-21)
(0.47814 -0.0267702 -2.21728e-20)
(1.00651 0.000119405 1.12237e-22)
(1.07245 -0.0439302 -2.61663e-21)
(1.01456 -0.00423946 1.22078e-21)
(1.086 -0.0780606 -8.46948e-21)
(1.06371 -0.0292542 0)
(1.06142 -0.0265468 0)
(0.604456 -0.0653025 0)
(1.06878 -0.0351682 -1.06506e-20)
(1.01461 -0.00906639 -2.7589e-21)
(1.00377 -7.96279e-05 8.77982e-22)
(1.07157 -0.0441251 2.1137e-20)
(0.853508 -0.154636 5.59009e-21)
(1.04353 -0.0552888 9.85951e-22)
(1.02816 -0.0177582 -2.02426e-21)
(0.458208 -0.00539754 4.95707e-21)
(1.01085 -0.000610128 0)
(0.293028 0.237645 8.30064e-21)
(0.997623 -0.101397 1.08913e-20)
(1.02395 -0.00921857 -2.88878e-21)
(0.726934 -0.0498597 -1.5866e-20)
(0.194438 0.16141 2.40761e-20)
(0.493464 -0.0133925 1.463e-20)
(0.982102 -0.0909449 -2.72207e-22)
(1.01878 0.0123799 1.08931e-21)
(1.01351 -0.00305961 0)
(0.590783 -0.0420513 -1.75736e-21)
(1.01514 -0.000172096 5.70959e-21)
(0.899212 0.247032 -4.08961e-21)
(0.489479 -0.0208599 0)
(1.01166 -0.00244058 2.85248e-22)
(1.04477 -0.00949734 0)
(1.09283 -0.0384903 5.97631e-21)
(0.968235 -0.07886 0)
(0.268666 0.0406745 -2.88714e-21)
(1.02494 -0.00731869 0)
(1.00552 -0.00014818 -8.43127e-22)
(0.716776 0.157249 -1.61344e-21)
(0.505632 -0.021334 1.04713e-20)
(1.06464 -0.0494888 0)
(1.02931 -0.0227826 -1.37652e-21)
(1.01529 -0.00351442 0)
(0.986309 -0.120686 0)
(-0.127239 -0.106925 0)
(1.06924 -0.0477665 0)
(1.00602 0.000112753 0)
(1.03073 -0.0467829 0)
(1.00859 -0.000985484 -2.78108e-22)
(1.00637 -0.000160874 -5.11484e-23)
(1.02119 -0.0339318 -2.75236e-22)
(1.00228 -1.86576e-05 -1.15222e-21)
(1.02363 -0.105239 0)
(0.937542 -0.0528026 -1.52073e-22)
(1.02064 -0.00639948 4.8932e-21)
(1.01635 -0.00399546 0)
(1.01372 -0.0030899 1.1857e-21)
(1.02489 -0.0151087 2.7576e-21)
(0.389834 -0.00426812 1.57839e-20)
(0.534889 -0.0744185 -8.15688e-21)
(1.04889 -0.0311949 -1.25663e-23)
(0.324924 0.0326868 2.51328e-20)
(1.01458 -0.0041465 -1.65833e-21)
(1.04689 -0.0318288 0)
(1.01332 -0.00289438 0)
(1.00871 -0.00102359 2.76422e-22)
(1.02071 -0.00891683 5.22617e-23)
(1.02022 -0.00632127 -5.01058e-22)
(0.434181 -0.0100319 0)
(1.02184 -0.0039273 -7.35551e-22)
(1.07208 -0.0384746 -8.77378e-22)
(1.02351 -0.00409957 0)
(1.02997 -0.0244322 0)
(1.02702 -0.0380707 3.99229e-23)
(0.0449682 -0.189654 1.73248e-20)
(1.00655 -0.000281563 1.13854e-22)
(0.509652 -0.107308 0)
(0.989935 -0.00970607 -2.23654e-21)
(1.06714 -0.0586664 -8.02845e-21)
(1.0367 -0.0370395 -4.87849e-21)
(1.04366 -0.0372833 0)
(0.340129 -0.00257845 8.64677e-21)
(1.05121 -0.0247817 -3.89829e-21)
(1.0316 -0.0104869 -1.23627e-21)
(0.576494 -0.178286 -1.62305e-20)
(0.857236 0.221276 2.91262e-21)
(-0.0397306 -0.151596 3.7113e-21)
(1.04922 -0.0434777 0)
(0.897936 -0.0207102 9.74082e-22)
(1.01876 -0.00989775 1.02887e-22)
(1.0681 -0.0343043 8.61402e-21)
(1.06474 -0.0410402 -1.26564e-20)
(0.266825 0.0474165 -1.64631e-20)
(1.00664 -0.000239361 0)
(0.147916 0.171477 1.89659e-21)
(1.01127 -0.00212721 6.58061e-22)
(1.01179 -0.00242457 0)
(0.216444 0.247708 1.85923e-20)
(1.01308 -0.00214066 3.361e-22)
(1.04152 -0.042872 1.65465e-20)
(1.03251 -0.0237572 -4.57686e-21)
(1.00962 -0.00140525 0)
(1.01508 0.0160496 -3.94083e-21)
(1.00969 -0.00143994 -4.12784e-22)
(1.0196 -0.000517453 4.23194e-21)
(1.01371 0.00165911 0)
(1.03175 -0.00780195 0)