/*--------------------------------*- C++ -*----------------------------------*\
| =========                 |                                                 |
| \\      /  F ield         | OpenFOAM: The Open Source CFD Toolbox           |
|  \\    /   O peration     | Version:  v2012                                 |
|   \\  /    A nd           | Website:  www.openfoam.com                      |
|    \\/     M anipulation  |                                                 |
\*---------------------------------------------------------------------------*/
FoamFile
{
    version     2.0;
    format      ascii;
    class       volVectorField;
    location    "200";
    object      cellDisplacement;
}
// * * * * * * * * * * * * * * * * * * * * * * * * * * * * * * * * * * * * * //

dimensions      [0 1 0 0 0 0 0];


internalField   nonuniform List<vector> 
13917
(
(0 0.0400021 0)
(0 0.0363116 0)
(0 0.0399761 0)
(0 0.035498 0)
(0 0.030746 0)
(0 0.0361519 0)
(0 0.0386557 0)
(0 0.0373768 0)
(0 0.0386628 0)
(0 0.040002 0)
(0 0.0373358 0)
(0 0.0326757 0)
(0 0.00108774 0)
(0 0.0379893 0)
(0 0.034686 0)
(0 0.0400021 0)
(0 0.000826279 0)
(0 0.0374185 0)
(0 0.0399179 0)
(0 0.040002 0)
(0 0.0378423 0)
(0 0.0279644 0)
(0 0.0395983 0)
(0 0.0277114 0)
(0 0.0366868 0)
(0 0.0377628 0)
(0 0.0393457 0)
(0 0.0400021 0)
(0 0.037601 0)
(0 0.000540326 0)
(0 0.040002 0)
(0 0.0398332 0)
(0 0.0352162 0)
(0 0.0400019 0)
(0 0.0187146 0)
(0 0.0373116 0)
(0 0.0358643 0)
(0 0.00123608 0)
(0 0.038708 0)
(0 0.0386778 0)
(0 0.000249243 0)
(0 0.0128524 0)
(0 0.0381276 0)
(0 0.0399244 0)
(0 0.0399192 0)
(0 0.0398358 0)
(0 0.0377862 0)
(0 0.0399956 0)
(0 0.0364655 0)
(0 0.0189211 0)
(0 0.0323743 0)
(0 0.0398133 0)
(0 0.0400021 0)
(0 0.0308684 0)
(0 0.0316667 0)
(0 0.0398215 0)
(0 0.0400021 0)
(0 0.0395799 0)
(0 0.0125284 0)
(0 0.0398261 0)
(0 0.03994 0)
(0 0.0211394 0)
(0 8.37923e-05 0)
(0 0.0365538 0)
(0 0.039995 0)
(0 0.000819289 0)
(0 0.0375448 0)
(0 0.0372008 0)
(0 0.0374529 0)
(0 0.0400021 0)
(0 0.0399913 0)
(0 0.040002 0)
(0 0.0327093 0)
(0 0.0123924 0)
(0 0.0379626 0)
(0 0.0366676 0)
(0 0.0304876 0)
(0 0.0120693 0)
(0 0.0365492 0)
(0 0.0354106 0)
(0 0.0319511 0)
(0 0.000962199 0)
(0 0.0324047 0)
(0 0.0399945 0)
(0 0.0106098 0)
(0 0.0381308 0)
(0 0.039821 0)
(0 0.00546443 0)
(0 0.0385989 0)
(0 0.000987444 0)
(0 0.00160601 0)
(0 0.0382205 0)
(0 0.036342 0)
(0 0.0163686 0)
(0 0.0331802 0)
(0 0.0376428 0)
(0 0.0390855 0)
(0 0.00135056 0)
(0 0.00614938 0)
(0 0.0390976 0)
(0 0.000238906 0)
(0 0.000290683 0)
(0 0.0322589 0)
(0 0.00246829 0)
(0 0.030207 0)
(0 0.0399971 0)
(0 0.0399997 0)
(0 0.0209304 0)
(0 0.0129824 0)
(0 0.0393573 0)
(0 0.00706097 0)
(0 0.0400018 0)
(0 0.0376998 0)
(0 0.039996 0)
(0 0.0399947 0)
(0 0.0367924 0)
(0 0.0399102 0)
(0 0.00100885 0)
(0 0.0399656 0)
(0 0.0310623 0)
(0 0.00119503 0)
(0 0.0119218 0)
(0 0.0375846 0)
(0 0.0398468 0)
(0 0.0400021 0)
(0 0.0399956 0)
(0 0.0364129 0)
(0 0.0380165 0)
(0 0.0200401 0)
(0 0.0398568 0)
(0 0.0393604 0)
(0 0.0396311 0)
(0 0.0400008 0)
(0 0.0367263 0)
(0 0.0398754 0)
(0 0.0393164 0)
(0 0.0399172 0)
(0 0.0400021 0)
(0 0.0377476 0)
(0 0.000668166 0)
(0 0.0328779 0)
(0 0.0119205 0)
(0 0.0399967 0)
(0 0.0229847 0)
(0 0.0316308 0)
(0 0.0132379 0)
(0 0.0399916 0)
(0 0.0267352 0)
(0 0.0399974 0)
(0 0.0312589 0)
(0 0.0384667 0)
(0 0.000257684 0)
(0 0.0312372 0)
(0 0.0311588 0)
(0 0.0391046 0)
(0 0.0276642 0)
(0 0.00283465 0)
(0 0.0400011 0)
(0 0.000486183 0)
(0 0.000826515 0)
(0 0.0185487 0)
(0 0.0399855 0)
(0 0.0359959 0)
(0 0.0327668 0)
(0 0.0399775 0)
(0 0.039135 0)
(0 0.0400021 0)
(0 0.0399805 0)
(0 0.000111855 0)
(0 0.0377945 0)
(0 0.0281004 0)
(0 0.0400007 0)
(0 0.0386383 0)
(0 0.0399306 0)
(0 0.0396071 0)
(0 0.000412006 0)
(0 0.0355377 0)
(0 0.039818 0)
(0 0.0393228 0)
(0 0.0361028 0)
(0 0.0380284 0)
(0 0.0277879 0)
(0 0.0323141 0)
(0 0.0399083 0)
(0 0.0399667 0)
(0 0.0396146 0)
(0 0.0320244 0)
(0 0.0399034 0)
(0 0.000667952 0)
(0 0.038098 0)
(0 0.039593 0)
(0 0.03991 0)
(0 0.039893 0)
(0 0.0400021 0)
(0 0.0165817 0)
(0 0.0400021 0)
(0 0.0380065 0)
(0 0.0400005 0)
(0 0.0183394 0)
(0 0.0274749 0)
(0 0.0376424 0)
(0 0.0400021 0)
(0 0.0400021 0)
(0 0.0351144 0)
(0 0.0394504 0)
(0 0.0370134 0)
(0 0.0385478 0)
(0 0.0121025 0)
(0 0.0398242 0)
(0 0.0318553 0)
(0 0.0158214 0)
(0 0.0308889 0)
(0 0.0310271 0)
(0 0.0399964 0)
(0 0.0398676 0)
(0 0.0378204 0)
(0 0.0399961 0)
(0 0.00314258 0)
(0 0.00675631 0)
(0 0.00665579 0)
(0 0.0399839 0)
(0 0.0398989 0)
(0 0.039905 0)
(0 0.013568 0)
(0 5.66401e-05 0)
(0 0.0393231 0)
(0 0.0400021 0)
(0 0.00615356 0)
(0 0.0059136 0)
(0 0.000231317 0)
(0 0.0068637 0)
(0 0.00676013 0)
(0 0.040002 0)
(0 0.0399945 0)
(0 0.0298347 0)
(0 0.000238325 0)
(0 0.0397285 0)
(0 0.040002 0)
(0 0.00064972 0)
(0 0.0126211 0)
(0 0.039425 0)
(0 0.039997 0)
(0 0.0399063 0)
(0 0.0399971 0)
(0 0.0396913 0)
(0 0.0232254 0)
(0 0.0399796 0)
(0 0.0397503 0)
(0 0.0376603 0)
(0 0.0398358 0)
(0 0.0349827 0)
(0 0.0399958 0)
(0 0.0314326 0)
(0 0.0391356 0)
(0 0.0395737 0)
(0 0.0299709 0)
(0 0.00010952 0)
(0 0.0365528 0)
(0 0.0293623 0)
(0 0.0170744 0)
(0 0.0400021 0)
(0 0.0371085 0)
(0 0.0128313 0)
(0 0.00578791 0)
(0 0.0280328 0)
(0 0.00592023 0)
(0 0.0314895 0)
(0 0.00202829 0)
(0 0.0392763 0)
(0 0.0130361 0)
(0 0.0400021 0)
(0 0.0399989 0)
(0 0.0294457 0)
(0 0.0293938 0)
(0 0.039824 0)
(0 0.00534608 0)
(0 0.0390421 0)
(0 0.0400021 0)
(0 0.0054385 0)
(0 0.0400021 0)
(0 0.0166751 0)
(0 0.0399828 0)
(0 0.000326487 0)
(0 0.0341643 0)
(0 0.0302229 0)
(0 0.0222462 0)
(0 0.0399327 0)
(0 0.00198313 0)
(0 0.0391541 0)
(0 0.038295 0)
(0 0.0370783 0)
(0 0.0134862 0)
(0 0.0394584 0)
(0 0.0400021 0)
(0 0.000894605 0)
(0 0.0396235 0)
(0 0.0298981 0)
(0 0.0367885 0)
(0 0.0304511 0)
(0 0.0365739 0)
(0 0.0164237 0)
(0 0.00243734 0)
(0 0.0397944 0)
(0 0.0260486 0)
(0 0.0390961 0)
(0 0.0364582 0)
(0 0.0117364 0)
(0 0.040001 0)
(0 0.0400021 0)
(0 0.0187938 0)
(0 0.00454758 0)
(0 0.0368535 0)
(0 0.0309894 0)
(0 0.0399517 0)
(0 0.04 0)
(0 0.0399309 0)
(0 0.000509432 0)
(0 0.0396214 0)
(0 0.0290545 0)
(0 0.0399933 0)
(0 0.0312004 0)
(0 0.0399756 0)
(0 0.00178873 0)
(0 0.034479 0)
(0 0.0393774 0)
(0 0.0281798 0)
(0 0.0364048 0)
(0 0.0399041 0)
(0 0.000729072 0)
(0 0.0400006 0)
(0 0.00850221 0)
(0 0.039642 0)
(0 0.00519972 0)
(0 0.040002 0)
(0 0.0104751 0)
(0 0.0390577 0)
(0 0.0371421 0)
(0 0.000377757 0)
(0 0.000991502 0)
(0 0.0398435 0)
(0 0.0399958 0)
(0 0.0330393 0)
(0 0.0280096 0)
(0 0.0400016 0)
(0 0.0399962 0)
(0 0.0399488 0)
(0 0.0378993 0)
(0 0.00528856 0)
(0 0.0302111 0)
(0 0.0399973 0)
(0 0.0396402 0)
(0 0.00541321 0)
(0 0.0302146 0)
(0 0.0316614 0)
(0 0.0384398 0)
(0 0.0390951 0)
(0 0.0398656 0)
(0 0.0395697 0)
(0 0.0389907 0)
(0 0.0396231 0)
(0 0.0400019 0)
(0 0.0205086 0)
(0 0.0331377 0)
(0 0.0308639 0)
(0 0.0399552 0)
(0 0.000577757 0)
(0 0.0400021 0)
(0 0.0396107 0)
(0 0.00664662 0)
(0 0.0319611 0)
(0 0.039624 0)
(0 0.00468231 0)
(0 0.0360585 0)
(0 0.0120229 0)
(0 0.0399098 0)
(0 0.0398335 0)
(0 0.0372179 0)
(0 0.0298565 0)
(0 0.0399797 0)
(0 0.00524995 0)
(0 0.0399745 0)
(0 0.0399009 0)
(0 0.0118756 0)
(0 0.036197 0)
(0 0.0305978 0)
(0 0.00596097 0)
(0 0.0123105 0)
(0 0.0400018 0)
(0 0.00592301 0)
(0 0.0358821 0)
(0 0.03937 0)
(0 0.0388984 0)
(0 0.0345859 0)
(0 0.0399703 0)
(0 0.0399828 0)
(0 0.0356309 0)
(0 0.0399331 0)
(0 0.0301423 0)
(0 0.038864 0)
(0 0.0399732 0)
(0 0.00753835 0)
(0 0.038671 0)
(0 0.0365117 0)
(0 0.0218397 0)
(0 0.0125879 0)
(0 0.0211724 0)
(0 0.0399186 0)
(0 0.0391777 0)
(0 0.0325885 0)
(0 0.021293 0)
(0 0.0270157 0)
(0 0.0395475 0)
(0 0.0368646 0)
(0 0.00519895 0)
(0 0.00012803 0)
(0 0.0399478 0)
(0 0.0395934 0)
(0 0.022804 0)
(0 0.035735 0)
(0 0.0399148 0)
(0 0.0389363 0)
(0 0.000789632 0)
(0 0.0399255 0)
(0 0.0399917 0)
(0 0.00837067 0)
(0 0.00518209 0)
(0 0.0374561 0)
(0 0.0118533 0)
(0 0.00529989 0)
(0 0.0300785 0)
(0 0.00529102 0)
(0 0.00816931 0)
(0 0.0399855 0)
(0 0.0305104 0)
(0 0.038826 0)
(0 0.0400021 0)
(0 0.0395995 0)
(0 0.0163416 0)
(0 0.0308346 0)
(0 0.0399732 0)
(0 0.0375909 0)
(0 0.0400021 0)
(0 0.00521332 0)
(0 0.0213289 0)
(0 0.0054346 0)
(0 0.00693868 0)
(0 0.0356718 0)
(0 0.0306095 0)
(0 0.0399052 0)
(0 0.0120909 0)
(0 0.0399974 0)
(0 0.0210976 0)
(0 0.0394091 0)
(0 0.0125177 0)
(0 0.0315051 0)
(0 0.0397006 0)
(0 0.0399441 0)
(0 0.0314058 0)
(0 0.0390518 0)
(0 0.0170325 0)
(0 0.00479077 0)
(0 0.0265723 0)
(0 0.030766 0)
(0 0.0147612 0)
(0 0.00400867 0)
(0 0.040001 0)
(0 0.0399393 0)
(0 0.0142228 0)
(0 0.0394941 0)
(0 0.0399448 0)
(0 0.00439233 0)
(0 0.0396528 0)
(0 0.0398756 0)
(0 0.0399803 0)
(0 0.0388457 0)
(0 0.0399969 0)
(0 0.00650236 0)
(0 0.00653622 0)
(0 0.0307791 0)
(0 0.000686596 0)
(0 0.0127501 0)
(0 0.0347427 0)
(0 0.0399445 0)
(0 0.00156085 0)
(0 0.0305575 0)
(0 0.0332838 0)
(0 0.0386497 0)
(0 0.0380403 0)
(0 0.0399587 0)
(0 0.0397151 0)
(0 0.014067 0)
(0 0.0295042 0)
(0 0.0375228 0)
(0 0.0391119 0)
(0 0.0323939 0)
(0 0.0379986 0)
(0 0.0393328 0)
(0 0.0383189 0)
(0 0.0399663 0)
(0 0.00969789 0)
(0 0.0391442 0)
(0 0.0398292 0)
(0 0.00920451 0)
(0 0.0400017 0)
(0 0.00482358 0)
(0 0.00680197 0)
(0 0.0395774 0)
(0 0.0053204 0)
(0 0.00339697 0)
(0 0.0397748 0)
(0 0.0400013 0)
(0 0.0393412 0)
(0 0.0178906 0)
(0 0.0362655 0)
(0 0.0146705 0)
(0 0.0399257 0)
(0 0.0397994 0)
(0 0.0318872 0)
(0 0.03132 0)
(0 0.0164389 0)
(0 0.0395496 0)
(0 0.0237179 0)
(0 0.0200721 0)
(0 0.000698335 0)
(0 0.0270851 0)
(0 0.0212885 0)
(0 0.0243703 0)
(0 0.0386537 0)
(0 0.00133449 0)
(0 0.0397177 0)
(0 0.00848163 0)
(0 0.027561 0)
(0 0.0364021 0)
(0 0.040001 0)
(0 0.00384115 0)
(0 0.0377618 0)
(0 0.0172689 0)
(0 0.039373 0)
(0 0.03974 0)
(0 0.0382037 0)
(0 0.0395991 0)
(0 0.0391613 0)
(0 0.0359693 0)
(0 0.037482 0)
(0 0.0400002 0)
(0 0.0399875 0)
(0 0.0400021 0)
(0 0.0175711 0)
(0 0.0259933 0)
(0 0.0141654 0)
(0 0.0270142 0)
(0 0.0399958 0)
(0 0.00548663 0)
(0 0.0312723 0)
(0 0.0380256 0)
(0 0.039999 0)
(0 0.0390893 0)
(0 0.038117 0)
(0 0.0400016 0)
(0 0.0141504 0)
(0 0.0398344 0)
(0 0.00164361 0)
(0 0.0169037 0)
(0 0.0399995 0)
(0 0.00521398 0)
(0 0.0399782 0)
(0 0.00010933 0)
(0 0.00320084 0)
(0 0.0264403 0)
(0 0.0399557 0)
(0 0.0242646 0)
(0 0.00522413 0)
(0 0.0399275 0)
(0 0.0396282 0)
(0 0.0282436 0)
(0 0.0399903 0)
(0 0.0400008 0)
(0 0.0399799 0)
(0 0.00365328 0)
(0 0.0400021 0)
(0 0.000261517 0)
(0 0.0399245 0)
(0 0.0267744 0)
(0 0.0170554 0)
(0 0.00497724 0)
(0 0.000257537 0)
(0 0.0392967 0)
(0 0.037926 0)
(0 0.00531986 0)
(0 0.00161416 0)
(0 0.00214862 0)
(0 0.0399885 0)
(0 0.0202562 0)
(0 0.0398033 0)
(0 0.0301745 0)
(0 0.00497111 0)
(0 0.000603235 0)
(0 0.039834 0)
(0 0.0399729 0)
(0 0.0400015 0)
(0 0.0398207 0)
(0 0.0386557 0)
(0 0.0399623 0)
(0 0.040002 0)
(0 0.0126531 0)
(0 0.0399449 0)
(0 0.00211249 0)
(0 0.0399293 0)
(0 0.0270408 0)
(0 0.0399799 0)
(0 0.0207062 0)
(0 0.0247366 0)
(0 0.031978 0)
(0 0.0280231 0)
(0 0.0393177 0)
(0 0.0399951 0)
(0 0.00144633 0)
(0 0.0392359 0)
(0 0.019769 0)
(0 0.000178804 0)
(0 0.0400018 0)
(0 0.0390283 0)
(0 0.0200284 0)
(0 0.0398756 0)
(0 0.0126786 0)
(0 0.0160275 0)
(0 0.000186994 0)
(0 0.0400017 0)
(0 0.0200538 0)
(0 0.0296619 0)
(0 0.00537019 0)
(0 0.0198075 0)
(0 0.0399517 0)
(0 0.000247408 0)
(0 0.0398815 0)
(0 0.00103211 0)
(0 0.0103804 0)
(0 0.0399334 0)
(0 0.0398165 0)
(0 0.0315463 0)
(0 0.0400021 0)
(0 0.0399765 0)
(0 0.036478 0)
(0 0.0398237 0)
(0 0.0136159 0)
(0 0.0347693 0)
(0 0.0400013 0)
(0 0.039983 0)
(0 0.0373893 0)
(0 0.0359385 0)
(0 0.0249478 0)
(0 0.00122017 0)
(0 0.0217568 0)
(0 0.000493776 0)
(0 0.0397557 0)
(0 0.0375663 0)
(0 0.0399674 0)
(0 0.0393532 0)
(0 0.0367317 0)
(0 0.0398165 0)
(0 0.026292 0)
(0 0.0390786 0)
(0 0.0398957 0)
(0 0.0400021 0)
(0 0.016614 0)
(0 0.0267999 0)
(0 0.000362912 0)
(0 0.0103949 0)
(0 0.00161319 0)
(0 0.000580061 0)
(0 0.0147657 0)
(0 0.0034032 0)
(0 0.0400021 0)
(0 0.0394691 0)
(0 0.00338732 0)
(0 0.0398942 0)
(0 0.00158725 0)
(0 0.0399994 0)
(0 0.016483 0)
(0 0.0198967 0)
(0 0.0400015 0)
(0 0.0397233 0)
(0 0.0109046 0)
(0 0.0333048 0)
(0 0.00467516 0)
(0 0.0188446 0)
(0 0.0353453 0)
(0 0.03891 0)
(0 0.0218902 0)
(0 0.0400021 0)
(0 0.0385078 0)
(0 0.0247114 0)
(0 0.0107416 0)
(0 0.0265684 0)
(0 0.0400008 0)
(0 0.0362815 0)
(0 0.00200131 0)
(0 0.0199892 0)
(0 0.040002 0)
(0 0.0393772 0)
(0 0.038082 0)
(0 0.0400021 0)
(0 0.0306106 0)
(0 0.0111004 0)
(0 0.0192762 0)
(0 0.0356033 0)
(0 0.0399965 0)
(0 0.0110152 0)
(0 0.0393135 0)
(0 0.0351638 0)
(0 0.0377785 0)
(0 0.0399341 0)
(0 0.0289422 0)
(0 0.039868 0)
(0 0.0394784 0)
(0 0.0328668 0)
(0 0.0354614 0)
(0 0.00201741 0)
(0 0.038867 0)
(0 0.0292721 0)
(0 0.0399849 0)
(0 0.0368381 0)
(0 0.0161597 0)
(0 0.0400021 0)
(0 0.000905546 0)
(0 0.0308465 0)
(0 0.0358179 0)
(0 0.0361427 0)
(0 0.0381407 0)
(0 0.0399812 0)
(0 0.0011619 0)
(0 0.0398156 0)
(0 0.0399721 0)
(0 0.000484732 0)
(0 0.0275057 0)
(0 0.0369025 0)
(0 0.00250605 0)
(0 0.0237972 0)
(0 0.031649 0)
(0 0.0330549 0)
(0 0.012327 0)
(0 0.0398228 0)
(0 0.0398801 0)
(0 0.0130155 0)
(0 0.0399872 0)
(0 0.0386191 0)
(0 0.0386768 0)
(0 0.0398874 0)
(0 0.0304697 0)
(0 0.039832 0)
(0 0.0391325 0)
(0 0.00438223 0)
(0 0.0397258 0)
(0 0.0396198 0)
(0 0.0394529 0)
(0 0.019416 0)
(0 0.0153668 0)
(0 0.0215234 0)
(0 0.0400021 0)
(0 0.0349956 0)
(0 0.0164939 0)
(0 0.0396214 0)
(0 0.0224346 0)
(0 0.0172878 0)
(0 0.0398166 0)
(0 0.0391105 0)
(0 0.0328782 0)
(0 0.0389956 0)
(0 0.038391 0)
(0 0.0399975 0)
(0 0.0317255 0)
(0 0.0306705 0)
(0 0.0399689 0)
(0 0.0168541 0)
(0 0.0213225 0)
(0 0.000974425 0)
(0 0.00166548 0)
(0 0.0330319 0)
(0 0.0368785 0)
(0 0.0382892 0)
(0 0.0191173 0)
(0 0.00443287 0)
(0 0.025915 0)
(0 0.0270067 0)
(0 0.0359171 0)
(0 0.0388298 0)
(0 0.00530764 0)
(0 0.0398405 0)
(0 0.0343913 0)
(0 0.039973 0)
(0 0.0330796 0)
(0 0.000719804 0)
(0 0.0400005 0)
(0 0.0355401 0)
(0 0.0400021 0)
(0 0.0378057 0)
(0 0.0333553 0)
(0 0.0290358 0)
(0 0.0163623 0)
(0 0.0269798 0)
(0 0.0400003 0)
(0 0.0388159 0)
(0 0.0366073 0)
(0 0.0388775 0)
(0 0.0231825 0)
(0 0.0394648 0)
(0 0.000172782 0)
(0 0.0202096 0)
(0 0.0229464 0)
(0 0.000239517 0)
(0 0.0399823 0)
(0 0.0378582 0)
(0 0.0335373 0)
(0 0.0399015 0)
(0 0.0300653 0)
(0 0.00758555 0)
(0 0.00202047 0)
(0 0.0395879 0)
(0 0.0135503 0)
(0 0.0304324 0)
(0 0.0355245 0)
(0 0.0253991 0)
(0 0.0396296 0)
(0 0.0072769 0)
(0 0.0383393 0)
(0 0.0327849 0)
(0 0.0400021 0)
(0 0.0400021 0)
(0 0.0314333 0)
(0 0.0399976 0)
(0 0.0391018 0)
(0 0.0400021 0)
(0 0.0307595 0)
(0 0.00990952 0)
(0 0.0155262 0)
(0 0.030261 0)
(0 0.0351724 0)
(0 0.0171472 0)
(0 0.03887 0)
(0 0.0229488 0)
(0 0.0369837 0)
(0 0.0308047 0)
(0 0.0399886 0)
(0 0.0347642 0)
(0 0.0393022 0)
(0 0.039487 0)
(0 0.0176366 0)
(0 0.0387319 0)
(0 0.0355576 0)
(0 0.0176638 0)
(0 0.0383525 0)
(0 0.0051366 0)
(0 0.0400008 0)
(0 0.0397729 0)
(0 0.00400264 0)
(0 0.0186556 0)
(0 0.0237526 0)
(0 0.0279446 0)
(0 0.0263154 0)
(0 0.0399699 0)
(0 0.0105013 0)
(0 0.0390716 0)
(0 0.0201698 0)
(0 0.00663299 0)
(0 0.0336516 0)
(0 0.023121 0)
(0 0.0398275 0)
(0 0.0214181 0)
(0 0.0110843 0)
(0 0.0105348 0)
(0 0.039948 0)
(0 0.0350642 0)
(0 0.0398465 0)
(0 0.0133246 0)
(0 0.0390507 0)
(0 0.00502873 0)
(0 0.0265028 0)
(0 0.040002 0)
(0 0.00166564 0)
(0 0.0356899 0)
(0 0.039887 0)
(0 0.0400021 0)
(0 0.00508597 0)
(0 0.0305071 0)
(0 0.0399725 0)
(0 0.012498 0)
(0 0.0300925 0)
(0 0.0258587 0)
(0 0.0399904 0)
(0 0.0225154 0)
(0 0.0399342 0)
(0 0.0319404 0)
(0 0.0400016 0)
(0 0.0340414 0)
(0 0.0397798 0)
(0 0.0214641 0)
(0 0.00370187 0)
(0 0.00601634 0)
(0 0.0030015 0)
(0 0.000782769 0)
(0 0.0399998 0)
(0 0.0348847 0)
(0 0.0136047 0)
(0 0.0313831 0)
(0 0.0123252 0)
(0 0.0153613 0)
(0 0.0397588 0)
(0 0.0354302 0)
(0 0.0399959 0)
(0 0.0387788 0)
(0 0.0398736 0)
(0 0.0398071 0)
(0 0.037673 0)
(0 0.0400016 0)
(0 0.0333037 0)
(0 0.0397429 0)
(0 0.0226814 0)
(0 0.0400021 0)
(0 0.00665617 0)
(0 0.0338255 0)
(0 0.00514818 0)
(0 0.0171496 0)
(0 0.0320354 0)
(0 0.00508814 0)
(0 0.00981151 0)
(0 0.0134942 0)
(0 0.026391 0)
(0 0.0386505 0)
(0 0.0041062 0)
(0 0.0347131 0)
(0 0.0398441 0)
(0 0.0399839 0)
(0 0.039977 0)
(0 0.0398751 0)
(0 0.0281509 0)
(0 0.00615861 0)
(0 0.021206 0)
(0 0.0399694 0)
(0 0.0234532 0)
(0 0.0400021 0)
(0 0.00639243 0)
(0 0.0104641 0)
(0 0.00587595 0)
(0 0.029239 0)
(0 0.0062103 0)
(0 0.00554983 0)
(0 0.0219942 0)
(0 0.0391209 0)
(0 0.0136634 0)
(0 0.0400016 0)
(0 0.0311796 0)
(0 0.016731 0)
(0 0.04 0)
(0 0.02329 0)
(0 0.0213973 0)
(0 0.020604 0)
(0 0.0400015 0)
(0 0.0391263 0)
(0 0.0005863 0)
(0 0.0111149 0)
(0 0.0182089 0)
(0 0.0208299 0)
(0 0.0399893 0)
(0 0.0158552 0)
(0 0.0389819 0)
(0 0.0359082 0)
(0 0.0335876 0)
(0 0.0164763 0)
(0 0.0125243 0)
(0 0.0377469 0)
(0 0.0300545 0)
(0 0.0358618 0)
(0 0.040002 0)
(0 0.0223268 0)
(0 0.00224281 0)
(0 0.0302346 0)
(0 0.0245275 0)
(0 0.0148277 0)
(0 0.0399086 0)
(0 0.0394523 0)
(0 0.037465 0)
(0 0.040002 0)
(0 0.0400013 0)
(0 0.0298122 0)
(0 0.0399169 0)
(0 0.0129985 0)
(0 0.040002 0)
(0 0.012061 0)
(0 0.0399111 0)
(0 0.0395736 0)
(0 0.0387188 0)
(0 0.0355389 0)
(0 0.0397979 0)
(0 0.0393552 0)
(0 0.0399941 0)
(0 0.00476987 0)
(0 0.0273549 0)
(0 0.00520509 0)
(0 0.0229886 0)
(0 0.0394879 0)
(0 0.0324731 0)
(0 0.0316327 0)
(0 0.0395791 0)
(0 0.0400021 0)
(0 0.012404 0)
(0 0.0389783 0)
(0 0.0400021 0)
(0 0.000122945 0)
(0 0.00550279 0)
(0 0.0314628 0)
(0 0.0399965 0)
(0 0.0349961 0)
(0 0.000217164 0)
(0 0.0385788 0)
(0 0.0304578 0)
(0 0.0202237 0)
(0 0.0329059 0)
(0 0.0355245 0)
(0 0.0298159 0)
(0 0.0248835 0)
(0 0.00490796 0)
(0 0.0114286 0)
(0 0.0232176 0)
(0 0.0220748 0)
(0 0.0400021 0)
(0 0.033568 0)
(0 0.0345227 0)
(0 0.00577015 0)
(0 0.040002 0)
(0 0.00580636 0)
(0 0.00484123 0)
(0 0.0375884 0)
(0 0.0349039 0)
(0 0.0360308 0)
(0 0.00496623 0)
(0 0.0399706 0)
(0 0.0162506 0)
(0 0.0280322 0)
(0 0.0397097 0)
(0 0.0223493 0)
(0 0.000395163 0)
(0 0.0398231 0)
(0 0.0399392 0)
(0 0.0398113 0)
(0 0.0399057 0)
(0 0.0112204 0)
(0 0.0399011 0)
(0 0.0400013 0)
(0 0.00120255 0)
(0 0.0399109 0)
(0 0.00568918 0)
(0 0.0395183 0)
(0 0.0397225 0)
(0 0.0229069 0)
(0 0.0379194 0)
(0 0.017095 0)
(0 0.0379451 0)
(0 0.0368527 0)
(0 0.0346738 0)
(0 0.0399722 0)
(0 0.0391461 0)
(0 0.0396486 0)
(0 0.0399375 0)
(0 0.00183445 0)
(0 0.0399268 0)
(0 0.0357786 0)
(0 0.0296431 0)
(0 0.0237266 0)
(0 0.011224 0)
(0 0.00409797 0)
(0 0.0118563 0)
(0 0.035678 0)
(0 0.0399953 0)
(0 0.0142762 0)
(0 0.0348162 0)
(0 0.0379165 0)
(0 0.0333979 0)
(0 0.0298728 0)
(0 0.0395367 0)
(0 0.0398573 0)
(0 0.0282148 0)
(0 0.0180475 0)
(0 0.0383147 0)
(0 0.00581949 0)
(0 0.0360834 0)
(0 0.0400014 0)
(0 0.033592 0)
(0 0.0230233 0)
(0 0.0392925 0)
(0 0.0166931 0)
(0 0.0349821 0)
(0 0.0400011 0)
(0 0.0400021 0)
(0 0.0323157 0)
(0 0.0394801 0)
(0 0.0363336 0)
(0 0.0400021 0)
(0 0.0389643 0)
(0 0.0379916 0)
(0 0.0399893 0)
(0 0.019607 0)
(0 0.0397592 0)
(0 0.0399833 0)
(0 0.0399692 0)
(0 0.0241242 0)
(0 0.0357734 0)
(0 0.00793921 0)
(0 0.027137 0)
(0 0.00175736 0)
(0 0.0302555 0)
(0 0.0278864 0)
(0 0.0399854 0)
(0 0.00164348 0)
(0 0.0394537 0)
(0 0.00772494 0)
(0 0.0397964 0)
(0 0.0399776 0)
(0 0.0353835 0)
(0 0.0399209 0)
(0 0.0389969 0)
(0 0.0238838 0)
(0 0.0398805 0)
(0 0.0354378 0)
(0 0.0350604 0)
(0 0.0241869 0)
(0 0.040002 0)
(0 0.0398076 0)
(0 0.0400021 0)
(0 0.0377797 0)
(0 0.0399692 0)
(0 0.0396085 0)
(0 0.004795 0)
(0 0.0316407 0)
(0 0.039193 0)
(0 0.00495683 0)
(0 0.0235595 0)
(0 0.0397796 0)
(0 0.0242517 0)
(0 0.0369434 0)
(0 0.0378315 0)
(0 0.0353904 0)
(0 0.035114 0)
(0 0.0397293 0)
(0 0.0397595 0)
(0 0.0192493 0)
(0 0.0397484 0)
(0 0.0337667 0)
(0 0.0303587 0)
(0 0.0205362 0)
(0 0.0130307 0)
(0 0.0399941 0)
(0 0.0399579 0)
(0 0.0151974 0)
(0 0.0392554 0)
(0 0.00443202 0)
(0 0.0302979 0)
(0 0.0400021 0)
(0 0.0311997 0)
(0 0.00653441 0)
(0 0.00790907 0)
(0 0.0244514 0)
(0 0.00134747 0)
(0 0.0354065 0)
(0 0.0399945 0)
(0 0.026898 0)
(0 0.038006 0)
(0 0.0110353 0)
(0 0.00456909 0)
(0 0.0398661 0)
(0 0.0399951 0)
(0 0.0399643 0)
(0 0.0335769 0)
(0 0.00336376 0)
(0 0.00734905 0)
(0 0.0344654 0)
(0 0.039863 0)
(0 0.0400004 0)
(0 0.00414385 0)
(0 0.0395217 0)
(0 0.0374528 0)
(0 0.0396852 0)
(0 0.037821 0)
(0 0.00429368 0)
(0 0.0367148 0)
(0 0.0399217 0)
(0 0.0169595 0)
(0 0.0388764 0)
(0 0.00443721 0)
(0 0.0134754 0)
(0 0.0330939 0)
(0 0.0400013 0)
(0 0.0395185 0)
(0 0.0108344 0)
(0 0.0399812 0)
(0 0.0397444 0)
(0 0.0189902 0)
(0 0.0398067 0)
(0 0.0021302 0)
(0 0.00884024 0)
(0 0.0399492 0)
(0 0.0249388 0)
(0 0.0169027 0)
(0 0.0321737 0)
(0 0.0398935 0)
(0 0.0383292 0)
(0 0.0352094 0)
(0 0.00706156 0)
(0 0.0211555 0)
(0 0.0157431 0)
(0 0.0226833 0)
(0 0.0387165 0)
(0 0.0390963 0)
(0 0.0400021 0)
(0 0.0384171 0)
(0 0.038269 0)
(0 0.0392624 0)
(0 0.0395777 0)
(0 0.0174412 0)
(0 0.0379772 0)
(0 0.0398932 0)
(0 0.0399808 0)
(0 0.0399983 0)
(0 0.0339643 0)
(0 0.00691318 0)
(0 0.0400021 0)
(0 0.0058197 0)
(0 0.00584099 0)
(0 0.0364648 0)
(0 0.0388053 0)
(0 0.032816 0)
(0 0.00586452 0)
(0 0.039986 0)
(0 0.0382167 0)
(0 0.0335095 0)
(0 0.0231135 0)
(0 0.0397387 0)
(0 0.0399833 0)
(0 0.040002 0)
(0 0.025691 0)
(0 0.0273797 0)
(0 0.0359189 0)
(0 0.000795405 0)
(0 0.00860287 0)
(0 0.0394907 0)
(0 0.0244405 0)
(0 0.0377377 0)
(0 0.0392316 0)
(0 0.0350097 0)
(0 0.0399947 0)
(0 0.016845 0)
(0 0.0321449 0)
(0 0.0351262 0)
(0 0.0066189 0)
(0 0.0399801 0)
(0 0.0178861 0)
(0 0.0152213 0)
(0 0.0396076 0)
(0 0.0397851 0)
(0 0.0397122 0)
(0 0.0399759 0)
(0 0.0142228 0)
(0 0.0390524 0)
(0 0.0174141 0)
(0 0.0183842 0)
(0 0.0300509 0)
(0 0.0042921 0)
(0 0.0310321 0)
(0 0.0399774 0)
(0 0.0308963 0)
(0 0.0397104 0)
(0 0.0234596 0)
(0 0.0128972 0)
(0 0.0308578 0)
(0 0.00422406 0)
(0 0.0206773 0)
(0 0.040002 0)
(0 0.00437803 0)
(0 0.0366097 0)
(0 0.0398309 0)
(0 0.00347998 0)
(0 0.0397061 0)
(0 0.0392368 0)
(0 0.0390873 0)
(0 0.0295324 0)
(0 0.0205163 0)
(0 0.016521 0)
(0 0.0133891 0)
(0 0.00391429 0)
(0 0.0361971 0)
(0 0.0156232 0)
(0 0.00266299 0)
(0 0.0186406 0)
(0 0.00674598 0)
(0 0.0377373 0)
(0 0.022419 0)
(0 0.039996 0)
(0 0.0394859 0)
(0 0.0128852 0)
(0 0.0124486 0)
(0 0.0108365 0)
(0 0.0394527 0)
(0 0.011602 0)
(0 0.0392505 0)
(0 0.0215673 0)
(0 9.5668e-05 0)
(0 0.0130901 0)
(0 0.0396654 0)
(0 0.0336788 0)
(0 0.0399767 0)
(0 0.00773441 0)
(0 0.00420507 0)
(0 0.0373357 0)
(0 0.00385042 0)
(0 0.0113295 0)
(0 0.0400016 0)
(0 0.0291493 0)
(0 0.00264447 0)
(0 0.0395263 0)
(0 0.0397983 0)
(0 0.0400021 0)
(0 0.00428671 0)
(0 0.0380511 0)
(0 0.0395419 0)
(0 0.0117911 0)
(0 0.00941339 0)
(0 0.0399798 0)
(0 0.0233658 0)
(0 0.00038554 0)
(0 0.0397325 0)
(0 0.00959948 0)
(0 0.0400012 0)
(0 0.00443801 0)
(0 0.0195635 0)
(0 0.0269428 0)
(0 0.00971744 0)
(0 0.0400005 0)
(0 0.000421404 0)
(0 0.00712675 0)
(0 0.0398543 0)
(0 0.0150239 0)
(0 0.0167683 0)
(0 0.004713 0)
(0 0.00897585 0)
(0 0.0396454 0)
(0 0.0324319 0)
(0 0.0291657 0)
(0 0.00875222 0)
(0 0.0394326 0)
(0 0.029796 0)
(0 0.00932492 0)
(0 0.00987485 0)
(0 0.0347834 0)
(0 0.011677 0)
(0 0.0378682 0)
(0 0.0264617 0)
(0 0.0159072 0)
(0 0.0327414 0)
(0 0.0061104 0)
(0 0.0342799 0)
(0 0.0294172 0)
(0 0.0377119 0)
(0 0.0107875 0)
(0 0.0398352 0)
(0 0.0272688 0)
(0 0.0366698 0)
(0 0.0146063 0)
(0 0.0308144 0)
(0 0.0221042 0)
(0 0.00473946 0)
(0 0.0384283 0)
(0 0.033793 0)
(0 0.0384794 0)
(0 0.0397337 0)
(0 0.00657438 0)
(0 0.0400013 0)
(0 0.0399969 0)
(0 0.0398535 0)
(0 0.0399978 0)
(0 0.0276784 0)
(0 0.0289883 0)
(0 0.0392279 0)
(0 0.0399006 0)
(0 0.00691782 0)
(0 0.0400021 0)
(0 0.012396 0)
(0 0.039944 0)
(0 0.030169 0)
(0 0.0377093 0)
(0 0.0398222 0)
(0 0.0383385 0)
(0 0.0396088 0)
(0 0.00213781 0)
(0 0.0396686 0)
(0 0.0173379 0)
(0 0.0146132 0)
(0 0.0379281 0)
(0 0.040001 0)
(0 0.0400017 0)
(0 0.0319364 0)
(0 0.0295384 0)
(0 0.0394046 0)
(0 0.000743619 0)
(0 0.0399111 0)
(0 0.000574879 0)
(0 0.0356767 0)
(0 0.0102248 0)
(0 0.000340746 0)
(0 0.0400021 0)
(0 0.00936274 0)
(0 0.0392945 0)
(0 0.0307782 0)
(0 0.0392126 0)
(0 0.0397669 0)
(0 0.0298339 0)
(0 0.0150959 0)
(0 0.0399925 0)
(0 0.0177798 0)
(0 0.0237689 0)
(0 0.0350455 0)
(0 0.0123659 0)
(0 0.0399061 0)
(0 0.0339241 0)
(0 0.0388233 0)
(0 0.040002 0)
(0 0.0228467 0)
(0 0.0384111 0)
(0 0.0324095 0)
(0 0.000432106 0)
(0 0.0394912 0)
(0 0.0148276 0)
(0 0.0140319 0)
(0 0.0387775 0)
(0 0.000555114 0)
(0 0.0021896 0)
(0 0.0380247 0)
(0 0.0291087 0)
(0 0.0399336 0)
(0 0.0348866 0)
(0 0.0133988 0)
(0 0.0193384 0)
(0 0.00366899 0)
(0 0.0113037 0)
(0 0.0222927 0)
(0 0.0398899 0)
(0 0.0311086 0)
(0 0.0250877 0)
(0 0.0162457 0)
(0 0.0187454 0)
(0 0.0307416 0)
(0 0.0314513 0)
(0 0.039996 0)
(0 0.00185709 0)
(0 0.0389677 0)
(0 0.0351731 0)
(0 0.0174538 0)
(0 0.0399829 0)
(0 0.0299684 0)
(0 0.00102777 0)
(0 0.0400021 0)
(0 0.039902 0)
(0 0.0400015 0)
(0 0.0170172 0)
(0 0.0399987 0)
(0 0.038814 0)
(0 0.0287291 0)
(0 0.040002 0)
(0 0.0298537 0)
(0 0.0338038 0)
(0 0.0399722 0)
(0 0.0336694 0)
(0 0.0371759 0)
(0 0.040002 0)
(0 0.0366254 0)
(0 0.0397909 0)
(0 0.0303912 0)
(0 0.0399938 0)
(0 0.0241239 0)
(0 0.0225736 0)
(0 0.0177532 0)
(0 0.0400021 0)
(0 0.0245991 0)
(0 0.005922 0)
(0 0.0286884 0)
(0 0.0272367 0)
(0 0.0168337 0)
(0 0.00643896 0)
(0 0.0391623 0)
(0 0.0384203 0)
(0 0.022635 0)
(0 0.0373788 0)
(0 0.0400002 0)
(0 0.0367431 0)
(0 0.039774 0)
(0 0.0397003 0)
(0 0.0145131 0)
(0 0.0398709 0)
(0 0.0389035 0)
(0 0.0348386 0)
(0 0.0399625 0)
(0 0.00386271 0)
(0 0.0398813 0)
(0 0.0400021 0)
(0 0.0171756 0)
(0 0.0400021 0)
(0 0.0134225 0)
(0 0.039998 0)
(0 0.0398952 0)
(0 0.0364639 0)
(0 0.0301994 0)
(0 0.0226264 0)
(0 0.0310432 0)
(0 0.0217071 0)
(0 0.0363013 0)
(0 0.0128149 0)
(0 0.0294873 0)
(0 0.0399959 0)
(0 0.0395433 0)
(0 0.0399858 0)
(0 0.0246711 0)
(0 0.0382065 0)
(0 0.0400011 0)
(0 0.0171383 0)
(0 0.0302892 0)
(0 0.0399937 0)
(0 0.0114655 0)
(0 0.0213068 0)
(0 0.0399717 0)
(0 0.0398976 0)
(0 0.0397541 0)
(0 0.0305702 0)
(0 0.0399775 0)
(0 0.0384314 0)
(0 0.0333138 0)
(0 0.0399995 0)
(0 0.0399766 0)
(0 0.0239476 0)
(0 0.00952517 0)
(0 0.039771 0)
(0 0.0394181 0)
(0 0.0395465 0)
(0 0.0284678 0)
(0 0.0386905 0)
(0 0.0394718 0)
(0 0.038943 0)
(0 0.0308777 0)
(0 0.012807 0)
(0 0.0377139 0)
(0 0.040002 0)
(0 0.0377099 0)
(0 0.0215455 0)
(0 0.0223613 0)
(0 0.0363444 0)
(0 0.0164553 0)
(0 0.0400011 0)
(0 0.0382478 0)
(0 0.00707541 0)
(0 0.0397694 0)
(0 0.0130147 0)
(0 0.00929866 0)
(0 0.0391912 0)
(0 0.0389979 0)
(0 0.0289845 0)
(0 0.0400001 0)
(0 0.0155395 0)
(0 0.0400007 0)
(0 0.01517 0)
(0 0.0400019 0)
(0 0.0399811 0)
(0 0.0399727 0)
(0 0.00464727 0)
(0 0.0375008 0)
(0 0.0367747 0)
(0 0.0384585 0)
(0 0.0396969 0)
(0 0.0398198 0)
(0 0.0399958 0)
(0 0.0388885 0)
(0 0.000184497 0)
(0 0.0376436 0)
(0 0.0175225 0)
(0 0.0398923 0)
(0 0.0400021 0)
(0 0.000437231 0)
(0 0.00819964 0)
(0 0.0355347 0)
(0 0.0397661 0)
(0 0.0383944 0)
(0 0.0159292 0)
(0 0.0390409 0)
(0 0.0397372 0)
(0 0.0129447 0)
(0 0.0127839 0)
(0 0.0353256 0)
(0 0.0400006 0)
(0 0.0337563 0)
(0 0.0141795 0)
(0 0.0399963 0)
(0 0.038765 0)
(0 0.0352042 0)
(0 0.0399679 0)
(0 0.0205109 0)
(0 0.0377529 0)
(0 0.0400001 0)
(0 0.000892483 0)
(0 0.0387928 0)
(0 0.0393344 0)
(0 0.0397766 0)
(0 0.0398857 0)
(0 0.0399985 0)
(0 0.0300068 0)
(0 0.0359996 0)
(0 0.038821 0)
(0 0.00964859 0)
(0 0.0399491 0)
(0 0.0397182 0)
(0 0.0395737 0)
(0 0.0399374 0)
(0 0.0394445 0)
(0 0.0304079 0)
(0 0.0398017 0)
(0 0.0399973 0)
(0 0.037777 0)
(0 0.0398464 0)
(0 5.46452e-05 0)
(0 0.0330055 0)
(0 0.029924 0)
(0 0.0159942 0)
(0 0.0399842 0)
(0 0.0388308 0)
(0 0.00419122 0)
(0 0.03657 0)
(0 0.039968 0)
(0 0.0198698 0)
(0 0.0243928 0)
(0 0.0399952 0)
(0 0.000474519 0)
(0 0.0311 0)
(0 3.58389e-05 0)
(0 0.0334998 0)
(0 0.0396405 0)
(0 0.0243137 0)
(0 0.039973 0)
(0 0.0389684 0)
(0 0.0396853 0)
(0 0.0352237 0)
(0 0.0395117 0)
(0 0.0331222 0)
(0 0.0356793 0)
(0 0.0376167 0)
(0 0.0289432 0)
(0 0.033785 0)
(0 0.00393464 0)
(0 0.0151993 0)
(0 0.0399998 0)
(0 0.0399194 0)
(0 0.0372405 0)
(0 0.0399598 0)
(0 0.0250926 0)
(0 0.0312751 0)
(0 0.0368406 0)
(0 0.0129366 0)
(0 0.0133563 0)
(0 0.0391582 0)
(0 0.0379671 0)
(0 0.040002 0)
(0 0.0396933 0)
(0 0.0399222 0)
(0 0.0305804 0)
(0 0.0398768 0)
(0 0.0225682 0)
(0 0.0399878 0)
(0 0.00873803 0)
(0 0.0399394 0)
(0 0.0398119 0)
(0 0.00490458 0)
(0 0.0397448 0)
(0 0.0400021 0)
(0 0.03766 0)
(0 0.00392024 0)
(0 0.000912978 0)
(0 0.0375672 0)
(0 0.0399368 0)
(0 0.0118084 0)
(0 0.0333266 0)
(0 0.0023296 0)
(0 0.00117315 0)
(0 0.0399741 0)
(0 0.0039898 0)
(0 0.0379316 0)
(0 0.0109252 0)
(0 0.00169511 0)
(0 0.0399673 0)
(0 0.0391014 0)
(0 0.0320178 0)
(0 0.0398941 0)
(0 0.0362062 0)
(0 0.0400006 0)
(0 0.0355763 0)
(0 0.00260359 0)
(0 0.0324949 0)
(0 0.040001 0)
(0 0.0288588 0)
(0 0.0397762 0)
(0 0.0315089 0)
(0 0.0399963 0)
(0 0.0221746 0)
(0 0.026867 0)
(0 0.0307751 0)
(0 0.0399784 0)
(0 0.0203516 0)
(0 0.0139422 0)
(0 0.0073285 0)
(0 0.0399613 0)
(0 0.0400017 0)
(0 0.0397606 0)
(0 0.0206873 0)
(0 0.0338027 0)
(0 0.0143036 0)
(0 0.040002 0)
(0 3.42267e-05 0)
(0 0.0399869 0)
(0 0.0397729 0)
(0 0.0252728 0)
(0 0.0398552 0)
(0 0.035971 0)
(0 0.00399569 0)
(0 0.0353396 0)
(0 0.00861775 0)
(0 0.0384569 0)
(0 0.0373334 0)
(0 0.0394704 0)
(0 0.0327449 0)
(0 0.0319108 0)
(0 0.0217841 0)
(0 0.0400012 0)
(0 0.00419756 0)
(0 0.00391271 0)
(0 0.0399982 0)
(0 0.0351141 0)
(0 0.0170648 0)
(0 0.0378182 0)
(0 0.0194132 0)
(0 0.0166565 0)
(0 0.0262615 0)
(0 0.0377058 0)
(0 0.0384158 0)
(0 0.00351484 0)
(0 0.00315818 0)
(0 0.0387386 0)
(0 0.0328846 0)
(0 0.0397851 0)
(0 0.0392174 0)
(0 0.0042707 0)
(0 0.00492282 0)
(0 0.00294102 0)
(0 0.0240022 0)
(0 0.0360482 0)
(0 0.0396823 0)
(0 0.0400021 0)
(0 0.0399967 0)
(0 0.0171081 0)
(0 0.0119004 0)
(0 0.0384745 0)
(0 0.0399882 0)
(0 0.0257671 0)
(0 0.0135316 0)
(0 0.0399987 0)
(0 0.0399951 0)
(0 0.00334657 0)
(0 0.0364316 0)
(0 0.0342922 0)
(0 0.0305368 0)
(0 0.0399997 0)
(0 0.00691808 0)
(0 0.00676404 0)
(0 0.0390392 0)
(0 0.0399773 0)
(0 0.0320908 0)
(0 0.0366089 0)
(0 0.0336905 0)
(0 0.039942 0)
(0 0.0399769 0)
(0 0.00776895 0)
(0 0.0399791 0)
(0 0.0340773 0)
(0 0.0208285 0)
(0 0.0399376 0)
(0 0.0397635 0)
(0 0.0388067 0)
(0 0.0356021 0)
(0 0.0378317 0)
(0 0.0340495 0)
(0 0.00333133 0)
(0 0.0362658 0)
(0 0.0323904 0)
(0 0.0372755 0)
(0 0.0384499 0)
(0 0.01609 0)
(0 0.0378279 0)
(0 0.0399802 0)
(0 0.0397488 0)
(0 0.0113107 0)
(0 0.0396711 0)
(0 0.0398641 0)
(0 0.0390301 0)
(0 0.0161012 0)
(0 0.0304208 0)
(0 0.00407087 0)
(0 0.0399927 0)
(0 0.0364698 0)
(0 0.0220838 0)