/*--------------------------------*- C++ -*----------------------------------*\
| =========                 |                                                 |
| \\      /  F ield         | OpenFOAM: The Open Source CFD Toolbox           |
|  \\    /   O peration     | Version:  v2012                                 |
|   \\  /    A nd           | Website:  www.openfoam.com                      |
|    \\/     M anipulation  |                                                 |
\*---------------------------------------------------------------------------*/
FoamFile
{
    version     2.0;
    format      ascii;
    class       volScalarField;
    location    "800";
    object      k_0;
}
// * * * * * * * * * * * * * * * * * * * * * * * * * * * * * * * * * * * * * //

dimensions      [0 2 -2 0 0 0 0];


internalField   nonuniform List<scalar> 
13851
(
0.000202512
0.000155036
0.000154831
0.0195507
0.000148438
0.000157607
0.000155817
0.000147708
0.0531732
0.000148412
0.000177094
0.000148466
0.000149065
0.0296337
0.00017004
0.000205655
0.0171288
0.000148697
0.000251515
0.000202207
0.000173106
0.000156219
0.0362928
0.000149734
0.0380182
0.000187011
0.000109539
0.0215391
0.0477922
0.000146813
0.0446666
0.000155792
0.000202888
0.0710877
0.000170279
0.0471101
0.00014981
0.0321728
0.0661615
0.000148977
0.0708436
0.0497067
0.00620133
0.000222684
0.0529715
0.000147781
0.000145552
0.000204332
0.000152777
0.000149018
0.0252153
0.00014927
0.000205489
0.000165332
0.0278127
0.000148977
0.00020299
0.0682493
0.00010885
0.0301129
0.000148517
0.000243663
0.0001486
0.000153058
0.000181513
0.000182169
0.0243203
0.000166545
0.00014923
0.0282674
0.0401422
0.000177452
0.000148602
0.0267833
0.000166807
0.000152882
0.0224593
0.000146011
0.0255779
0.00014781
0.000149302
0.000244857
0.000169759
0.0315332
0.0315251
0.0435927
0.000156486
0.021698
0.000148383
0.0444872
0.000149383
0.000155967
0.00962092
0.0394119
0.060454
0.000199565
0.000147928
0.000206244
0.0262191
0.000195308
0.000207425
0.000162072
0.000163
0.000148865
0.000147778
0.000175849
0.000147771
0.0424273
0.000155932
0.00014854
0.000159912
0.000147795
0.000204331
0.000179502
0.000203316
0.000164424
0.000146575
0.000147199
0.0170387
0.0317065
0.00019031
0.000147785
0.000149143
0.049698
0.000224102
0.000172375
0.00014792
0.000171785
0.0659093
0.000176623
0.000156128
0.000162903
0.0113119
0.0699929
0.000177751
0.0600408
0.00016618
0.0422234
0.000160116
0.000176625
0.000234677
0.000150572
0.000148406
0.000171459
0.0381089
0.000152389
0.000145943
0.0399391
0.0422323
0.000172456
0.000207147
0.00020269
0.000180653
0.00022348
0.000149601
0.000148686
0.00014861
0.0622685
0.000174374
0.000154302
0.000149584
0.0475518
0.000175393
0.000204384
0.0302869
0.0572859
0.0585862
0.0299039
0.000159739
0.0775843
0.000148622
0.000146555
0.000179671
0.000148827
0.0639435
0.000158529
0.000210451
0.000146488
0.000166852
0.000209388
0.000223118
0.000219938
0.000159262
0.000176389
0.00716189
0.0429567
0.000202886
0.000157471
0.000149409
0.000147271
0.0212476
0.000174315
0.024271
0.000157844
0.000152125
0.000205852
0.000202293
0.000149876
0.000149801
0.000167346
0.000234583
0.0646832
0.0684934
0.000170064
0.000296205
0.0606832
0.000152314
0.000176761
0.0546122
0.00015663
0.000205466
0.000149085
0.000241203
0.000149538
0.00017098
0.000154028
0.000148927
0.000220655
0.00014995
0.000497726
0.000146452
0.000201909
0.0268837
0.0618232
0.000157118
0.00017707
0.000149743
0.000169765
0.00014807
0.000170579
0.032271
0.000157066
0.00015659
0.000148722
0.066398
0.000146803
0.0201551
0.0674365
0.000191763
0.000149645
0.000354797
0.0321968
0.0532025
0.000205207
0.000166089
0.00017487
0.000216155
0.000167132
0.00019863
0.000161349
0.0232299
0.000200725
0.000147209
0.000158067
0.00020669
0.0462736
0.0248621
0.000147211
0.000172861
0.000148351
0.000215598
0.000222664
0.000158683
0.000175982
0.000201373
0.000148303
0.000162496
0.000199913
0.0107533
0.000148505
0.000148902
0.000157262
0.0631803
0.0118491
0.000175975
0.000147953
0.000223006
0.000222724
0.00019984
0.00017563
0.0618527
0.0256988
0.00015901
0.000167191
0.032259
0.000147766
0.000148602
0.000200454
0.00017397
0.000146873
0.000149517
0.000148025
0.000147885
0.000166178
0.000148558
0.0549615
0.000174262
0.000148461
0.0460164
0.0469924
0.00014935
0.000202529
0.0253857
0.000150802
0.000149431
0.000175381
0.0294707
0.0767543
0.000182511
0.000148354
0.0747515
0.00014857
0.000184081
0.0305289
0.00902555
0.000153982
0.0195112
0.0011464
0.0474096
0.000201881
0.000162671
0.0651183
0.0561076
0.0171386
0.000150046
0.0245236
0.00843406
0.000214379
0.000207597
0.000152339
0.000181756
0.000157875
0.0229311
0.000163521
0.000147028
0.000144881
0.000158373
0.0440421
0.000375405
0.000147697
0.0592049
0.000157918
0.000163154
0.000154552
0.0251141
0.000223062
0.000206133
0.000153623
0.000155896
0.0448588
0.000149437
0.000226584
0.000158909
0.000175281
0.000158502
0.00014837
0.000148435
0.000197795
0.00019893
0.000201071
0.00320919
0.0455958
0.000152516
0.0653495
0.000224124
0.000146828
0.0111265
0.000191905
0.0308832
0.000157855
0.000188658
0.000198519
0.0221914
0.000195939
0.0255968
0.000151178
0.000132134
0.00669223
0.000163104
0.02816
0.00016539
0.0706852
0.000166812
0.00017376
0.000200494
0.000212535
0.000148696
0.000158277
0.000174997
0.000167122
0.000147939
0.000176336
0.0691751
0.000148586
0.000176752
0.012084
0.000154431
0.00150472
0.000176479
0.0800644
0.000157322
0.000185519
0.000317491
0.000225846
0.00017523
0.0212304
0.0270684
0.000372121
0.000148328
0.000197243
0.000165375
0.000188287
0.000147805
0.00727335
0.0746613
0.0271784
0.000155837
0.000201086
0.000226598
0.0129269
0.000145618
0.0181803
0.000220077
0.0341641
0.000161977
0.0248049
0.000148615
0.000148752
0.0238421
0.00020581
0.000148429
0.000155066
0.000177186
0.00014678
0.0720885
0.000182111
0.000191417
0.0001581
0.000151218
0.000149319
0.0123639
0.000148423
0.000149245
0.0318422
0.0680693
0.000155576
0.000249998
0.00014864
0.000148546
0.000154991
0.00020147
0.000176342
0.000148026
0.00015201
0.000189588
0.000153374
0.0796697
0.000148428
0.000160849
0.0538007
0.000160797
0.000145235
0.000148745
0.000157945
0.000150425
0.000338961
0.0390018
0.000166338
0.000600383
0.000155116
0.000148326
0.0635439
0.000199946
0.000160162
0.000148711
0.0537929
0.000159592
0.00206547
0.000148863
0.00016328
0.000196866
0.000168584
0.0601499
0.000202388
0.0195089
0.000152677
0.000203228
0.000148311
0.0465158
0.000176331
0.000202289
0.000165205
0.00015329
0.000160843
0.00018017
0.000148511
0.0135465
0.0615253
0.0806407
0.0073099
0.0376065
0.0335221
0.000225998
0.000156611
0.000149346
0.0032879
0.000148414
0.00014791
0.000157789
0.0666707
0.000154737
0.000150553
0.000173557
0.000174105
0.000148479
0.0843368
0.000147913
0.0676939
0.000317293
0.000147811
0.000153752
0.00022382
0.0126014
0.00014689
0.059723
0.0164122
0.000147163
0.055994
0.000249835
0.000201428
0.000152627
0.030468
0.0306932
0.000147404
0.000243962
0.000149174
0.000147932
0.0200076
0.0715793
0.000169646
0.000175722
0.00014843
0.000182596
0.0677305
0.062454
0.000148187
0.0237132
0.000147994
0.000149245
0.000175452
0.000161027
0.000145587
0.000152875
0.057947
0.000209561
0.0543551
0.00015413
0.000148338
0.0631313
0.000149154
0.000198138
0.000160594
0.000166796
0.000165791
0.0527729
0.0304261
0.000157692
0.0169645
0.000153449
0.000181198
0.0505913
0.0338549
0.00014911
0.000148339
0.000163468
0.0556543
0.000240404
0.000182195
0.00881594
0.000161231
0.000165952
0.0392682
0.086602
0.000182197
0.0659759
0.000215404
0.047499
0.000150584
7.09422e-05
0.00732041
0.00014846
0.0108623
0.0879768
0.000159768
0.000176565
0.000148881
0.000509377
0.000175545
0.0537909
0.000148446
0.000149021
0.000155371
0.000173626
0.000148493
0.0635522
0.000148981
0.000214282
0.00015266
0.0001888
0.000148844
0.000148504
0.000167508
0.0239179
0.000174869
0.0581484
0.000163308
0.000146863
0.000147555
0.000179902
0.000151965
0.000189501
0.000155555
0.000159856
8.3832e-05
0.000149163
0.020558
0.00014967
0.00019572
0.0194745
0.057097
0.000156582
0.046255
0.000172991
0.000205296
0.0877546
0.000148602
0.08764
0.000157983
0.000163982
0.00927854
0.00194056
0.000146992
0.000188918
0.000149772
0.0463846
0.0262042
0.000149636
0.00016721
0.0750879
0.00014974
0.000149662
0.000187318
0.017315
0.0216535
0.000149444
0.000200399
0.000152931
0.000148535
6.97969e-05
0.000200842
0.000194654
0.000145368
0.000199935
0.000163818
0.000183734
0.000150581
0.000151837
0.000174272
0.000155168
0.000202189
0.000177369
0.000177202
0.000178601
0.000302369
0.000252237
0.0576871
0.0495283
0.000205656
0.0383693
0.000163404
0.0237785
0.000202469
0.000148396
0.000165314
0.000229106
0.000157424
0.000147806
0.000147755
0.000195737
0.0229379
0.000161081
0.0643461
0.000146898
0.0259959
0.000178249
0.0241308
0.000188421
0.000157505
0.000154875
0.0282981
0.000194702
0.00016306
0.000200323
0.000150848
0.00311509
0.000195971
0.000214519
0.000164419
0.00028182
0.000148607
0.000149612
0.000151894
0.00014855
0.0509453
0.000147876
0.000110192
0.0619813
0.000188978
0.0643066
0.0291013
0.000216143
0.000209725
0.000156674
0.000149137
0.000148823
0.000146032
0.000147523
0.000148843
0.000181704
0.000203529
0.00016456
0.014139
0.00015179
0.0530825
0.000149954
0.0226438
0.000168455
0.000149881
0.000148819
0.0575712
0.000157857
0.0246257
0.0880886
0.00017562
0.000184648
0.000146996
0.0702084
0.000153517
0.000154833
8.4028e-05
0.000149161
0.000150542
0.000148352
0.0001763
0.0245525
0.000161005
0.000164918
0.000225728
0.0587315
0.00015705
0.000156314
0.0494725
0.000145984
0.048634
0.000149289
0.00015345
0.0224339
0.000190576
0.000202831
0.000184056
0.000175152
0.000149476
0.000149954
0.000182499
0.000150756
0.000149529
0.00016187
0.000218694
0.000147772
0.000200774
0.000904947
0.0174909
0.00018386
0.0444941
0.000160351
0.000149104
0.000194627
0.000146994
0.000158409
0.0534845
0.0451243
0.0873875
0.0501264
0.000149823
0.000149498
0.000169089
0.000151519
0.000147621
0.0306734
0.000216434
0.0298169
0.000196076
0.000190993
0.000148598
0.000146865
0.00420696
0.000191286
0.000154062
0.000149658
0.000202964
0.000206981
0.0660551
0.000149556
0.000148938
0.0211136
0.000150527
0.000165598
0.00014679
0.0681824
0.000148155
0.0219215
0.00014848
0.000188942
0.000171063
0.000168684
0.000164766
0.000148592
0.00015503
0.000148023
0.000133215
0.000150543
0.0292079
0.00015109
0.0299948
0.0641866
0.000163013
0.000147885
0.0135351
0.0405353
0.000158286
0.000190551
0.000148807
0.0200641
0.00014852
0.000230338
0.000148383
0.000148001
0.0196347
0.000166039
0.000148678
0.000165854
0.0657976
0.000424017
0.0774084
0.000147187
0.0410782
0.000148467
0.000147817
0.000149596
0.000144491
0.000149531
0.0820239
0.0576146
0.000149996
0.000148954
0.000170116
0.000147807
0.0170238
0.000195726
0.0337592
0.0664525
0.000154946
0.000202116
0.000148414
0.000172858
0.000175242
0.000148493
0.000149349
0.000607682
0.0279484
0.000184086
0.00843398
0.000183438
0.000148624
0.000170777
0.000190976
0.0207076
0.000165087
0.00209636
0.000191878
0.000149457
0.0573558
0.0548665
0.0298719
0.013141
0.0179595
0.000152615
0.000174591
0.00014925
0.00162986
0.000156919
0.000147049
0.07976
0.000151547
0.00014789
0.000149115
0.000151239
0.0649414
0.000227085
0.000147274
0.000171242
0.0299093
0.000152061
0.00769222
0.000151633
0.000189318
0.0703859
0.000148581
0.000232554
0.00015992
0.000164114
0.000489494
0.000151531
0.000241756
0.000185172
0.0697142
0.000150195
0.0274297
0.000162641
0.0416899
0.0220644
0.0223561
0.000175754
0.000148672
0.000149892
0.000149739
0.000172414
0.000148765
0.0621503
0.000158599
0.000156542
0.000156894
0.000152511
0.000147127
0.000159855
0.000158092
0.000153729
0.000157249
0.0861355
0.00015513
0.000162246
0.00016944
0.0795439
0.000150641
0.0471264
0.000146023
0.000161031
0.000150563
0.000148353
0.000166628
0.000148294
0.000147227
0.000162733
0.000148734
0.000214727
0.000151551
0.00959897
0.00285834
0.000216236
0.000229267
0.000149401
0.0607499
0.000205383
0.000149476
0.000157891
0.000150347
0.0505833
0.000151612
0.00016259
0.0104899
0.00992487
0.000177484
0.000149489
0.0535988
0.00740989
0.0219102
0.000159832
0.00014681
0.000148111
0.000182591
0.000148639
0.0262612
0.000198703
0.000149281
0.000224706
0.000218816
0.000148245
0.0870059
0.0198983
0.00021581
0.000151352
0.0525584
0.00018153
0.000148054
0.0244142
0.000156131
0.000148026
0.000147927
0.000165681
0.00017265
0.0579351
0.0477073
0.000173423
0.0589262
0.000167177
0.000148433
0.000168379
0.000147775
0.00187964
0.000148339
0.000148188
0.000153146
0.000150657
0.0631591
0.0227464
0.000238808
0.0295673
0.0865759
0.000157115
0.000148642
0.00015155
0.000244311
0.00014826
0.000148551
0.000169082
0.0330063
0.000228039
0.000145939
0.000165452
0.000165064
0.000200884
0.00724107
0.000147162
0.000145473
0.000153797
0.0155926
0.000161802
0.0676131
0.000151786
0.000149017
0.000148084
0.000147921
0.000154009
0.000215606
0.0474628
0.0564426
0.000156847
0.000148331
0.00185191
0.000150451
0.034368
0.0378293
0.000158162
0.0270972
0.0499303
0.0401198
0.000180982
0.000164871
0.0457952
0.000163119
0.000160292
0.000169418
0.000206399
0.000150574
0.000494538
0.000148459
0.0483967
0.0242607
0.000146052
0.000152809
0.0001669
0.000235917
0.000166117
0.000148867
0.000160888
0.000151575
0.000157762
0.000237964
0.000149032
0.0442523
0.0245631
0.000148507
0.000163927
0.000172293
0.000148499
0.0443259
0.0121965
0.0628286
0.034473
0.000148216
0.000154339
0.000157233
0.000149639
0.000237628
0.000166551
0.000149686
0.000183716
0.000154855
0.0403019
0.000171249
0.0251763
0.000151445
0.000152065
0.000163486
0.00019079
0.000184108
0.000148277
0.00962518
0.0452646
0.0285146
0.0378196
0.0525818
0.0573404
0.0396063
0.00014826
0.000148321
0.000149085
0.000240879
0.000175816
0.000183708
0.0137028
0.000149964
0.00014567
0.000148436
0.000224838
0.000145876
0.000158781
0.000152685
0.0299116
0.000151184
0.00014703
0.000148535
0.000148376
0.000149004
0.000159966
0.000235164
0.000160388
0.0660589
0.00014829
0.000147949
0.0659823
0.0668317
0.0216063
0.0192524
0.000163762
0.0238486
0.000146764
0.000169104
0.000152049
0.000148504
0.000155254
0.0260867
0.000152394
0.000191179
0.00465047
0.000150105
0.000148281
0.000155157
0.000216103
0.000149799
0.0299198
0.000149003
0.000222019
0.000148774
0.000149961
0.000158493
0.00017118
0.000149097
7.32408e-05
0.0410506
0.000214024
0.0701242
0.000148607
0.0245204
0.000331618
0.000148328
0.0240775
0.000149612
0.0001618
0.000149408
0.000149815
0.000147645
0.000148513
0.000150232
0.000155742
0.000184241
0.0001497
0.0001486
0.000165758
0.000146859
0.0865288
0.000148775
0.00016417
0.000167132
0.035185
0.00475655
0.00014893
0.000216145
0.00014674
0.000164074
0.000172866
0.0154609
0.000176838
0.000149802
0.000198922
0.000167615
0.000190503
4.27754e-05
0.000160902
0.000199625
0.000182121
0.000185124
0.000151088
0.000147837
0.0169128
0.0115029
0.000154611
0.000148031
0.00832245
0.000146952
0.000172238
0.000147776
0.000176837
0.0212988
0.000145079
0.0155838
0.000157499
0.00014907
0.000209537
0.000147038
0.000161263
0.0361588
0.00017032
0.0192198
0.000147615
0.000149749
0.00016221
0.000149476
0.000149609
0.000160778
0.000161856
0.0001842
0.000178361
0.000148979
0.000165424
0.000147689
0.00014837
0.000149401
0.000148344
0.000665811
0.000148418
0.000151725
0.000246538
0.000146907
0.000147952
0.0649949
0.000149633
0.0119132
0.000152752
0.0639371
0.000222303
0.000164307
0.00275657
0.00017782
0.000283995
0.00015043
0.00020844
0.000157741
0.000147745
0.000147798
0.000151682
0.000163531
0.000148307
0.000171063
0.00014734
0.000152053
0.00684189
0.0250892
0.000236649
0.000155096
0.000163119
0.0368001
0.0287988
0.000149109
0.000158462
0.000335542
0.000149723
0.000168497
0.00195302
0.0563028
0.000159673
0.000174023
0.000150989
0.000221894
0.000149894
0.00016112
0.0237025
0.000149271
0.000147896
0.085964
0.0001709
0.000245283
0.0709849
0.000195866
0.000150031
0.000147361
0.000150083
0.0316961
0.00585354
0.0571305
0.000174569
0.000148577
0.0422882
0.000148675
0.000201926
0.000155372
0.000153259
0.000172875
0.000148351
0.0878301
0.0873573
0.000146952
0.000183594
0.000176676
0.00384561
0.00017188
0.000182048
0.000242619
0.000167094
0.000166414
0.000182964
0.00014869
0.00016837
0.000168231
0.034439
0.000148193
0.00143096
0.000172778
0.000183482
0.000149805
0.0839441
0.000157876
0.000152381
0.000147658
0.000166537
0.000166059
0.000166264
0.000148803
0.000150744
0.000171945
0.00853016
0.000175699
0.000148994
0.000150506
0.000168331
0.000219238
0.000149102
0.000180222
0.0255273
0.000167569
0.0584083
0.000172135
0.0256036
0.00024084
0.000148282
0.00207352
0.000149551
0.000154737
0.000165671
0.000166615
0.000189956
0.000176336
0.000165736
0.000167073
0.000162554
0.000153323
0.000145813
0.00016946
0.00015692
0.000157366
0.00329124
0.00015641
0.00015918
0.000147759
0.026393
0.000178921
0.00014897
0.000155517
0.000151655
0.0293503
0.000198714
0.000165699
0.0524248
7.8131e-05
0.00041976
0.000189782
0.000236208
0.000147388
0.000184661
0.000148497
0.000155527
0.028478
0.0440474
0.000252659
0.000765855
0.00014875
0.0254947
0.000147364
0.000190552
0.000154595
0.0192307
0.0819843
0.000158343
0.000148018
0.000241214
0.000162042
0.000148156
0.037725
0.000148477
0.000152494
0.000156969
0.000149382
0.000161958
0.00015179
0.000148591
0.000163134
0.000259482
0.000171336
0.000175787
0.00014814
0.029891
0.0444361
0.000147902
0.000245165
0.000154515
0.000157259
0.0568031
0.000147882
0.00015069
0.000156704
0.0464294
0.000148191
0.000149157
0.000169912
0.020218
0.000147782
0.00015965
0.000161624
0.00270045
0.000171795
0.000169496
0.000223458
0.000148493
0.000172573
0.000146078
0.0283273
0.000161035
0.00014842
0.000159735
0.000186909
0.000148927
0.000149619
0.000201743
0.0467099
0.000150407
0.0298082
0.000149205
0.000146039
0.000181708
0.000148183
0.000148426
0.0867392
0.000149814
0.000171068
0.000208623
0.0530227
0.00206186
0.000148182
0.000152708
0.000156491
0.000148413
0.000148643
0.000148592
0.0071436
0.000149268
0.000213618
0.000200081
0.000147873
0.000147002
0.000161697
0.000200047
0.000247573
0.000166407
0.000176816
0.000152932
0.0547226
0.000175809
0.000163995
0.000172313
0.000171644
0.000188163
0.025184
0.000171071
0.0308269
0.0289794
0.0229557
0.000155459
0.00014838
0.000167434
0.000159338
0.000147819
0.000150451
0.000177918
0.000149596
0.000149841
0.000148298
0.000145417
0.000153546
0.000149105
0.0216314
0.000147997
0.0478925
0.000148467
0.000173346
0.00015071
0.00020018
0.000173152
0.000148691
0.0591061
0.000152648
0.000149477
0.000171477
0.000147587
0.000158844
0.000148713
0.0475534
0.000153608
0.000171394
0.000170278
0.056081
0.00015794
0.000187526
0.00307179
0.000169383
0.000149348
0.000151954
0.000175428
0.000180683
0.0249029
0.000146961
0.0320909
0.000149002
0.000169199
0.0822806
0.00016525
0.015561
0.00015512
0.000164436
0.000154195
0.0868708
0.000161865
0.000148855
0.000168517
0.00019985
0.000152448
0.000148315
0.000148874
0.0651268
0.000149665
0.000157263
0.0680665
0.000155458
0.000148295
0.000171282
0.000154723
0.0433717
0.000145683
0.000148424
0.000147101
0.000154858
0.000150313
0.000149389
0.000183484
0.0639401
0.000148176
0.000148634
0.051256
0.000150108
0.0160053
0.000154235
0.0807038
0.000147728
0.000153438
0.000146737
0.0320886
0.0698268
0.000159168
0.000168957
0.000155537
0.00014823
0.00014872
0.0477221
0.000148817
0.00019049
0.000147448
0.000173943
0.000149226
0.0640871
0.000146948
0.000175298
0.000147767
0.000220858
0.000341995
0.000147379
0.0001661
0.0882524
0.000184948
0.0262278
0.0134735
0.000204106
0.0001519
0.000165583
0.000190094
0.0162228
0.00014995
0.000170809
0.00015662
0.000148468
0.028853
0.0370363
0.000184692
0.000204703
0.000239221
0.000162604
0.0627305
0.000147751
0.000147287
0.000187722
0.0878353
0.000217041
0.000200318
0.00523489
0.000146788
0.08549
0.0367504
0.0815741
0.000149299
0.0315222
0.0447855
0.000367067
0.000403981
0.0477809
0.000191165
0.000161634
0.000204313
0.000154434
0.000148396
0.00145294
0.000191663
0.000145686
0.0362869
0.00014922
0.000158474
0.000172665
0.000155582
0.000816094
0.000160295
0.01208
0.000175032
0.000154966
0.0213927
0.0733759
0.000200838
0.000149882
0.000154592
0.000183228
0.000168302
0.000146845
0.00017326
0.000167241
0.000197949
0.000148339
0.000210203
0.000153615
0.000168494
0.0366677
0.000163507
0.000151343
0.000184863
0.0331284
0.000149262
0.000151
0.0784437
0.00022684
0.000154205
0.000155159
0.000148555
0.000174233
0.00015709
0.049261
0.000189525
0.000150268
0.000149443
0.000166465
0.000159264
0.00022914
0.0292063
0.000147662
0.000148205
0.000158279
0.000149252
0.000154284
0.000151263
0.000151323
0.000154729
0.000147956
0.0001542
0.000149311
0.00017647
0.0134109
0.000149743
0.0710258
0.0161593
0.000146091
0.00018225
0.000186769
0.000178983
0.000150768
0.000191825
0.000158836
0.00016836
0.000161979
0.000152202
0.000149343
0.0244828
0.000161077
0.0199099
0.000150726
0.000148461
0.000148118
0.000172922
0.00014811
0.000176204
0.00018283
0.000323409
0.000147547
0.000140782
0.0118808
0.0473239
0.000146726
0.000194741
0.000221283
0.0141936
0.00339744
0.000150308
0.000149691
0.00019362
0.00390558
0.0103545
0.000171204
0.000249489
0.000149499
0.000147971
0.000164463
0.000149271
0.000149094
0.000199425
0.000149754
0.000169251
0.000147684
0.0735044
0.0699601
0.0385327
0.0352184
0.0441723
0.000149083
0.000148923
0.0844327
0.000147164
0.000147498
0.000146065
0.000183291
0.0720842
0.0262381
0.00015626
0.000149614
0.000151906
0.000162905
0.030042
0.000148126
0.0152408
0.0751869
0.000149221
0.000149128
0.036625
0.000189365
0.000153147
0.000148303
0.0771044
0.0447568
0.000148901
0.000216377
0.000149671
0.0493739
0.000629859
0.000153811
0.026054
0.0159179
0.060107
0.000147526
0.000149906
0.000149612
0.000149898
0.0680268
0.000147903
0.000197886
0.000227979
0.0230467
0.000151134
0.000173912
5.73887e-05
0.000173753
0.0828113
0.0516358
0.000145465
0.000157111
0.000157265
0.00020459
0.0582068
0.000145261
0.0251501
0.000160614
0.000173441
0.000150784
0.000147524
0.000223292
0.00016839
0.018737
0.000149268
0.000173817
0.000150856
0.000200168
0.00015471
0.0624567
0.0146337
0.00020253
0.000194273
0.000148274
0.00015299
0.000190081
0.00018182
0.0619716
0.0877711
0.000148918
0.0196714
0.000170349
0.0732816
0.000159352
0.000170345
0.000169128
0.000149237
0.066764
0.000148419
0.000164884
0.0319445
0.0720411
0.000714571
0.0708291
0.000157934
0.000175766
0.00014705
0.0740348
0.000156988
0.0413146
0.000146988
0.0503489
0.000145127
0.000148012
0.000164323
0.000158552
0.000159875
0.000148433
0.0388171
0.000174497
0.000147929
0.000166035
0.0328973
0.000230947
0.000148561
0.0563088
0.000153958
0.000167089
0.000165447
0.000145866
0.000178089
0.000147982
0.0272086
0.000172821
0.000159382
0.000148307
0.000231442
0.000169752
0.000146987
0.0513405
0.00668079
0.000222526
0.000146756
0.00179905
0.000148887
0.000191174
0.000160102
0.000181111
0.0141457
0.0377598
0.000159546
0.070827
0.00016967
0.000157723
0.000147091
0.0613437
0.000179437
0.000190003
0.000165479
0.00014959
0.0203132
0.000183281
0.000239154
0.000246369
0.0877851
0.039007
0.00679711
0.0333368
0.000157993
0.000158704
0.000148593
0.00014917
0.000145413
0.000211013
0.00015861
0.000159877
0.0625423
0.000147889
0.000147003
0.000172884
0.000200188
0.000159963
0.000147216
0.0660276
0.000154282
0.000176585
0.000149444
0.0227357
0.000157187
0.0808662
0.000166523
0.000165719
0.000171405
0.000148549
0.0104636
0.000141429
0.000180131
0.000148779
0.000147259
0.0240513
0.0444472
0.0459562
0.000148127
0.000180317
0.000651893
0.000149188
0.000147969
0.000149043
0.0707123
0.00017159
0.000163169
0.000160078
0.000157905
0.0509876
0.000179222
0.000222825
0.000158709
0.000164676
0.000145391
0.000182984
0.000173086
0.000148389
0.0457898
0.053789
0.0631547
0.0450021
0.0410712
0.0851511
0.0858241
0.000151441
0.000148256
0.07355
0.0385272
0.0372476
0.000148898
0.000170643
0.00014858
0.000148152
0.00986339
0.073781
0.000182439
0.000148021
0.000175428
0.000191155
0.000174554
0.0385783
0.00406126
0.000236302
0.000147294
0.0621228
0.00507634
0.000227557
0.000165387
0.000171831
0.000149276
0.000147293
0.000168416
0.000172335
0.00015397
0.000171792
0.000159933
0.00015445
0.000232403
0.0363441
0.000159248
0.000173287
0.0465071
0.000219827
0.000148685
0.000192257
0.000229396
0.0278941
0.000169379
0.000149418
0.000161581
0.0001574
0.000158493
0.00014587
0.000159003
0.00016417
0.00017563
0.000201902
0.000149497
0.000151757
0.0387106
0.0506616
0.0707447
8.00941e-05
0.000198502
0.000144925
0.000148501
0.000162122
0.000146898
0.087541
0.000148468
0.000149812
0.000146377
0.0457968
0.022146
0.000150028
0.000182841
0.000158586
0.00016168
0.000161537
0.000159797
0.000171135
0.000166635
0.0208301
0.000157862
0.0405474
0.000167304
0.0697382
0.000160499
0.000147424
0.000147012
0.000192203
0.000201631
0.000146792
0.000162985
0.000160844
0.00017581
0.0324158
0.0235828
0.0354518
0.000149811
0.000318526
0.000158718
0.000164554
0.000148291
0.000179523
0.000152705
0.0299389
0.00029026
0.000165952
0.000148494
0.0496639
0.000155813
0.0358763
0.0373622
0.000235578
0.000153626
0.000197056
0.0424162
0.000228604
0.0519549
0.000177062
0.000148462
0.000167315
0.000148183
0.084206
0.000154002
0.000162519
0.000166056
0.0671857
0.000148248
0.000148277
0.0411697
0.000169589
0.0810358
0.000158789
0.000148303
0.000170857
0.000218452
0.000162474
0.0169481
0.00016445
0.00132131
0.000155546
0.000149611
0.000148189
0.000215184
0.000150602
0.000182116
0.000148636
0.000148725
0.000210444
0.000158042
0.000149231
0.000148202
0.000164483
0.000247382
0.000173698
0.000168776
0.00015527
0.000178034
0.000148737
0.000191066
0.000162314
0.000172249
0.000166794
0.000160832
0.000174262
0.000163071
0.000148053
0.000184397
0.0474465
0.0350968
0.000149452
0.000626017
0.0353751
0.000148238
0.000150596
0.00022652
0.040991
0.000156244
0.0348836
0.000248356
0.000149367
0.000190618
0.000145361
0.000157482
0.000178821
0.0380105
0.000204039
0.000240712
9.21296e-05
0.0442522
0.0538976
0.000153345
0.0462749
0.000148401
0.00422298
0.0505974
0.00014862
0.000148438
0.0343009
0.000149046
0.000148531
0.000213085
0.0613338
0.000217315
0.000158114
0.0456865
0.000148591
0.0503302
0.0400732
0.000149209
0.00015899
0.0122062
0.0443038
0.036899
0.0409877
0.0333596
0.000147334
0.000151574
0.000179535
0.000182988
0.000148502
0.000217666
0.000148335
0.0418489
0.000242816
0.000164238
0.000249702
0.0426629
0.000247943
0.000231981
0.000165677
0.0188481
0.000253993
0.000156677
0.000145638
0.00874806
0.000161384
0.000147068
0.0828242
0.000148242
0.0124814
0.000149157
0.0717952
0.000157084
0.000148173
0.00688893
0.000156016
0.000160535
0.0309707
0.0768718
0.000615916
0.000160264
0.000175587
0.000151849
0.000171657
0.000198687
0.000172039
0.000149351
0.000317833
0.000180538
0.000161721
0.0323728
0.000170746
0.000162276
0.000198629
0.000183451
0.000174908
0.000148146
0.000206891
0.000147038
0.000199101
0.000108574
0.0414175
0.000147144
0.000168333
0.0250627
0.00015286
0.000178415
0.000164436
0.000170323
0.0786755
0.000180832
0.000151946
0.0297355
0.000147187
0.0486718
0.000148781
0.000152057
0.000199481
0.0467384
0.000161877
0.00018835
0.00022316
0.000164381
0.0001497
0.000176848
0.000171861
0.0627883
0.000155275
0.00529741
0.000201886
0.000164413
0.000161369
0.000177913
0.000166413
0.000167397
0.000180969
0.000162599
0.000154321
0.000149579
0.000992636
0.000148499
0.000160187
0.000145441
0.000197461
0.000160807
0.000181219
0.0437992
0.000151228
0.000218583
0.000144616
0.0001492
0.00014922
0.000149329
0.000158829
0.000147674
0.000191087
0.0254924
0.000181371
0.000174085
0.000156387
0.000148862
0.000182244
0.000148671
0.0355447
0.0437192
0.0279537
0.000206051
0.000163931
0.00015967
0.000149147
0.000158092
0.000170405
0.000169097
0.0482896
0.000181503
0.0576286
0.000206389
0.000149353
0.000146901
0.0347519
0.000148216
0.000162141
0.000166359
0.000241014
0.000153114
0.0674006
0.000149094
0.000155982
0.000148587
0.000150545
0.000176721
0.000197214
0.000149614
0.000165691
0.000159738
0.000174886
0.000181427
0.000218993
0.000198707
0.000211844
0.000203426
0.000158451
0.000151627
0.000181361
0.0459129
0.0829953
0.0524175
0.00016475
0.030593
0.000196827
0.000151562
0.000147969
0.000183866
0.000148916
0.000165678
0.0221947
0.000148083
0.000147697
0.000293194
0.010183
0.000176668
0.000513355
0.000149048
0.0278312
0.000169021
0.0711368
0.000157175
0.000148735
0.051467
0.000165016
0.00014858
0.000171741
0.000149666
0.000189925
0.000160064
0.00016412
0.085829
0.000159601
0.0580061
0.000147718
0.0521311
0.000149108
0.000157138
0.000150332
0.000171269
0.00014888
0.000166092
0.049261
0.000205132
0.000174895
0.000161231
0.000168124
0.000148139
0.000149144
0.000152279
0.00234691
0.000156734
0.0742449
0.0357178
0.000188609
0.000149406
0.000191975
0.000205191
0.00020091
0.000158107
0.0390691
0.000148327
0.000144909
0.000148188
0.0121036
0.000149155
0.000148532
0.0515761
0.00014811
0.000201225
0.000171708
0.000148023
0.0629713
0.000161145
0.0713005
0.000148363
0.00528162
0.000151313
0.000167014
0.028001
0.000182597
0.000147939
0.000159808
0.0406891
0.000165495
0.000193262
0.000163344
0.000156839
0.000186909
0.000158312
0.000150123
0.00694327
0.000160609
0.000161146
0.000205497
0.000148211
0.000147612
0.000149197
0.000164351
0.00014912
0.000155298
0.0632672
0.0156509
0.000171337
0.00938621
0.000183574
0.000167808
0.0687114
0.0494035
0.000150069
0.0159022
0.0598796
0.0365891
0.00195812
0.000162309
0.0381896
0.0552497
0.0454222
0.00205639
0.0841256
0.000162888
0.000169444
0.000157836
0.000158155
0.000149715
0.000304414
0.000149894
0.0183459
0.000174223
0.000197533
0.000145197
0.000186999
0.000163704
0.000152117
0.000149951
0.000148682
0.000173716
0.000153721
0.000150174
0.000172518
0.0560914
0.000154726
0.000191744
0.000146845
0.000173662
0.000169138
0.00014925
0.000156353
0.000147676
0.072045
0.0651591
0.000205275
0.00693406
0.000161272
0.000188755
0.00014882
0.000172935
0.000148853
0.000149922
0.000149528
0.0577236
0.000146933
0.00017623
0.000263818
0.000157609
0.000163542
0.000148142
0.0672893
0.000206463
0.0396972
0.0348034
0.000201181
0.000238613
0.0322844
0.000244978
0.000130654
0.016483
0.000174155
0.000159046
0.00359495
0.0758645
0.000148341