/*--------------------------------*- C++ -*----------------------------------*\
| =========                 |                                                 |
| \\      /  F ield         | OpenFOAM: The Open Source CFD Toolbox           |
|  \\    /   O peration     | Version:  v2012                                 |
|   \\  /    A nd           | Website:  www.openfoam.com                      |
|    \\/     M anipulation  |                                                 |
\*---------------------------------------------------------------------------*/
FoamFile
{
    version     2.0;
    format      ascii;
    class       volVectorField;
    location    "950";
    object      ddt0(U);
}
// * * * * * * * * * * * * * * * * * * * * * * * * * * * * * * * * * * * * * //

dimensions      [0 1 -2 0 0 0 0];


internalField   nonuniform List<vector> 
13917
(
(-0.000323247 -0.000296091 -3.97019e-18)
(-0.000213303 -0.000200488 -3.60294e-19)
(0.00997776 -0.00381832 -3.49806e-18)
(-0.000412591 7.06133e-05 -8.09179e-19)
(-4.83513e-05 -7.42035e-05 3.34042e-19)
(6.29894e-06 0.000152183 1.46355e-17)
(0.00909878 -0.00288412 8.06608e-18)
(0.00990124 -0.00408914 -1.05605e-17)
(0.00279063 0.000573338 1.43684e-17)
(-0.000483055 -0.00042152 7.2891e-18)
(-0.00286508 -0.00191053 -2.48088e-18)
(-0.00127404 0.000144087 4.75472e-18)
(-0.000419925 7.95713e-05 1.48011e-17)
(0.00281933 -2.71063e-05 -1.22265e-17)
(-8.06164e-05 -0.000317192 6.68668e-18)
(-0.00012412 -0.00030498 2.62169e-18)
(-0.000186603 -0.000215937 -8.90066e-19)
(-0.000129095 -0.00018809 -1.55022e-17)
(-0.00121109 0.000163739 -2.11064e-19)
(-0.000147677 -1.64573e-05 8.26427e-20)
(-2.45273e-05 2.60841e-05 -2.3196e-20)
(0.00905488 -0.00274698 -7.81515e-18)
(-0.000125753 -5.51624e-05 -3.26108e-18)
(0.0107606 -0.00420685 -1.78228e-17)
(-0.00012776 -9.62016e-05 7.67717e-19)
(0.00954 -0.00138569 -9.09577e-18)
(1.39519e-05 -0.000202215 -8.91145e-17)
(7.07767e-05 -0.000180045 -9.11054e-18)
(0.000640605 1.62597e-06 5.71323e-18)
(-0.000780305 8.65921e-05 3.31133e-18)
(-0.000364993 -0.000251867 -2.9135e-17)
(-0.00025145 -0.000235492 5.7084e-18)
(1.94271e-05 -0.000246388 -2.62384e-17)
(-6.26775e-06 -0.000259955 5.88189e-18)
(-7.40002e-05 -0.000105922 -3.34524e-18)
(-0.00377783 -0.00226722 -2.76977e-17)
(-0.000124765 -4.33735e-05 -1.0761e-18)
(0.00164886 -0.00148447 -8.98431e-18)
(-0.00049902 8.09765e-05 5.84471e-18)
(0.0125516 0.000680772 2.03996e-17)
(-0.000488347 -1.54029e-06 1.31217e-19)
(-1.43584e-05 8.45043e-06 -4.61388e-18)
(-0.000452124 2.26542e-06 -1.64758e-20)
(0.000147843 -0.000111655 5.46649e-17)
(-0.000300855 -5.55034e-05 2.92329e-18)
(-1.13699e-05 -0.000268248 4.91375e-18)
(-0.000139259 -0.000209437 9.95682e-18)
(9.92427e-06 -0.000734569 2.8226e-17)
(-2.1425e-05 0.000243302 -2.83847e-16)
(-0.000327542 -5.25926e-06 -5.57472e-19)
(-0.000381716 -0.00015228 4.63703e-18)
(-2.74801e-05 -0.000105907 7.43876e-18)
(-4.86012e-05 0.000273779 2.68417e-16)
(-7.26445e-06 -0.000263722 -2.41676e-17)
(-0.000188415 -0.000220664 -8.92971e-20)
(-0.000310123 -0.000123761 -2.80247e-17)
(-0.00266946 -0.00194154 -7.16595e-18)
(-0.000129643 -7.90553e-05 -2.92525e-18)
(-0.00029836 -0.000114425 -1.72647e-17)
(-0.000296393 -5.71598e-05 -2.79097e-19)
(0.00682711 -0.000491848 4.07284e-17)
(-0.000215004 -0.000197959 3.60158e-19)
(0.00269131 9.78283e-05 2.28869e-18)
(-0.000167008 -2.35453e-05 -2.99086e-19)
(2.45853e-05 0.000143006 -4.883e-17)
(0.00480081 0.00142451 -8.30649e-17)
(9.63822e-06 -8.74415e-05 -4.57793e-18)
(1.38813e-06 -0.000125785 -4.89409e-18)
(0.000737732 -0.00236953 -2.51443e-17)
(-0.000228249 -0.000350847 5.59683e-20)
(-3.62357e-05 -6.0275e-05 -2.27068e-19)
(0.00337781 0.000337925 -2.12458e-17)
(-0.00186076 0.00103032 3.08326e-17)
(-0.000111573 -9.89616e-05 -2.5938e-18)
(1.2752e-05 0.000274508 6.0597e-18)
(-0.000936018 0.000758213 1.55523e-17)
(-0.00326609 0.000268298 -2.57849e-17)
(-0.000306666 -5.97883e-05 -4.40417e-18)
(0.00965787 0.000236108 8.7373e-18)
(-2.23659e-05 4.89288e-05 -1.32643e-19)
(-6.54062e-05 4.91888e-05 2.27886e-18)
(1.16661e-05 -6.80158e-05 6.04978e-18)
(5.44379e-05 0.000130891 7.86674e-17)
(0.00160515 -0.00178036 4.92152e-18)
(0.0016 -0.00036825 -3.74046e-17)
(-0.000307543 -5.37735e-05 -3.98003e-18)
(-9.79003e-05 3.43783e-05 -3.62898e-18)
(0.0071302 0.000178729 4.0153e-17)
(-0.000377627 -0.000147616 1.27977e-17)
(-0.000461325 1.36048e-06 5.8303e-20)
(-0.00279295 0.000365892 2.58475e-17)
(-0.000711292 -0.000303058 -1.85517e-17)
(-0.000268457 -0.000123199 -4.90856e-19)
(-8.44337e-05 -0.000237066 1.03086e-17)
(-0.00341118 0.00188226 -3.34535e-18)
(-1.72836e-05 0.000145659 -8.79354e-17)
(-0.000880764 -0.00202989 -1.31363e-17)
(-1.69975e-05 -0.000492348 -9.96772e-18)
(-0.00218321 0.00168729 1.20192e-17)
(9.13498e-05 -1.83883e-05 -7.65525e-18)
(-0.000387301 -2.84353e-05 -1.70538e-19)
(-1.48376e-05 -0.000239096 9.23486e-17)
(0.00012748 -0.000100081 -8.42116e-17)
(-0.000332799 -6.23376e-05 -1.23156e-17)
(-0.000313621 -7.13631e-05 3.97655e-19)
(0.00275278 0.00139493 -6.30292e-17)
(0.000597252 -0.000170553 -1.89416e-17)
(5.48143e-05 -0.000705981 1.75351e-17)
(-0.000193153 -0.000217164 -2.83635e-20)
(-0.000369853 -0.000305195 -1.51128e-17)
(0.00440645 0.00078064 1.39826e-17)
(0.0126087 0.000751273 -1.6701e-17)
(-0.00166974 0.000409056 -2.7289e-18)
(0.00269756 0.00131206 3.95279e-17)
(-1.10449e-05 -0.000181167 2.05535e-17)
(3.47247e-05 0.000305199 7.37273e-17)
(-0.000146997 -8.66646e-05 7.62089e-18)
(5.42964e-06 0.000217717 -8.15657e-17)
(0.0109524 -0.000302396 -1.16829e-17)
(-6.21314e-06 -0.000264305 -1.52276e-17)
(-1.27182e-05 1.87762e-05 1.97124e-18)
(0.000787938 -0.0022182 8.42248e-18)
(0.00824479 -0.000600214 -2.13101e-18)
(6.32642e-05 -0.000184763 1.64369e-17)
(-0.000380368 -2.68486e-06 -1.36629e-19)
(-8.36904e-05 -0.000225586 3.69428e-18)
(-0.00027984 -9.50506e-05 2.12895e-18)
(-0.000387849 -2.12645e-06 2.33778e-19)
(-0.000532934 2.79397e-06 -1.86851e-19)
(-8.81546e-06 0.000155265 6.84745e-17)
(0.00869738 -0.00150353 -2.83915e-18)
(-1.20554e-05 -0.000169073 2.61072e-18)
(-0.000291837 -6.17988e-05 -3.54637e-18)
(-1.71521e-05 2.06982e-05 -4.32667e-19)
(0.000853796 0.00317606 -2.05576e-17)
(0.0110537 -0.00425882 1.20773e-17)
(-0.000316009 -0.000312425 1.15923e-17)
(8.88647e-05 -8.34113e-06 -3.82826e-18)
(1.28188e-05 -9.73829e-05 3.06185e-18)
(-8.96774e-06 -0.000262618 5.3206e-18)
(-0.00663959 -0.00218285 8.04138e-18)
(-0.000328452 -3.44988e-05 2.36488e-19)
(-4.35415e-05 -0.000146121 -2.62565e-17)
(0.000145031 -6.27655e-05 1.42676e-17)
(3.86333e-06 -0.00012141 4.96271e-18)
(0.00406621 -0.000299296 3.3777e-18)
(0.000709791 -0.000105697 -8.72945e-18)
(-2.61001e-05 -9.71426e-05 1.40195e-17)
(-0.000308596 -2.31215e-05 -1.38479e-20)
(-0.000234832 -0.000264278 -9.79483e-19)
(-0.000618374 -0.00070492 2.10895e-19)
(1.63604e-05 0.000289084 2.04483e-16)
(-0.00156498 -0.000931741 -6.62141e-18)
(-0.000100525 -0.000426161 -3.63773e-19)
(-0.000287145 -0.00015154 -7.85708e-18)
(0.000724793 0.000477263 3.47415e-17)
(-0.000217559 -0.000341305 -2.43373e-18)
(0.00567355 -0.00578007 -3.11229e-17)
(-0.00334455 0.000286 1.10212e-17)
(0.000168433 0.00372428 -2.23093e-17)
(-3.65314e-05 -0.000253673 5.01025e-18)
(-2.93397e-05 -0.000213531 5.07481e-17)
(-2.10498e-05 4.32678e-05 -2.33948e-18)
(-0.000974052 -0.00191234 4.8623e-18)
(-0.00165093 0.000322727 -1.26882e-18)
(-0.0021922 0.00154026 1.23143e-17)
(-0.000328678 -6.08543e-05 9.38851e-19)
(-0.000311502 -0.000711641 2.81884e-18)
(-0.00029744 -5.85165e-05 1.27444e-18)
(-1.07026e-05 -0.000239992 -7.57543e-17)
(-0.000150097 -0.000426852 6.99682e-18)
(0.00429274 0.000249632 -3.47805e-17)
(-0.00166607 0.000759453 -2.38825e-18)
(-0.000179054 -0.000242812 -3.14465e-19)
(0.00600583 -0.00256188 1.52859e-18)
(-4.41104e-05 -0.000452763 -3.42019e-19)
(0.00867475 -0.00166379 1.60978e-18)
(-2.79281e-07 0.000221398 5.87139e-17)
(0.00430067 -0.000717749 -3.29077e-18)
(-0.000215265 -0.000114947 -1.81356e-19)
(-0.000754159 -0.000258106 2.45431e-17)
(-0.000382735 -0.000241034 6.03633e-18)
(-0.000323951 -2.75184e-05 -3.79591e-18)
(-0.000101225 3.09467e-05 3.70268e-18)
(-2.53708e-05 -0.000319617 -1.51379e-17)
(0.009443 -0.00138374 -5.76543e-18)
(-0.00165637 -0.000522442 -1.16541e-17)
(0.00125718 0.000466497 1.86292e-17)
(-0.000291042 -0.000136702 -1.00687e-17)
(-0.00264223 0.00047271 9.1627e-18)
(-0.00487705 -0.00459049 -1.94426e-17)
(0.00177223 -0.000419522 5.93558e-17)
(-0.00130432 -0.000992869 5.53659e-17)
(-0.000111952 -5.24486e-05 -2.90007e-18)
(2.63351e-05 1.17409e-05 -4.90475e-17)
(1.4038e-05 -0.000214084 6.90514e-17)
(-0.000570942 -1.54867e-06 -1.12338e-18)
(-0.000276897 -0.000127342 -7.28019e-19)
(0.000512333 -0.000312333 -1.79173e-18)
(-0.000452241 -0.00727953 1.06719e-17)
(-0.000463465 -0.000117494 -3.69889e-18)
(-0.000322975 -5.03621e-06 2.37689e-19)
(-0.000434294 -0.000650916 3.15262e-18)
(-0.000650086 -0.00067018 9.20216e-19)
(-0.00214378 0.000865744 1.16105e-17)
(0.0031398 0.00185402 8.24672e-18)
(-7.25286e-05 -0.000112266 2.70931e-18)
(-0.000128407 -8.68704e-05 1.51492e-18)
(-6.03192e-05 -0.000529447 3.88371e-17)
(0.00994237 -0.00262383 1.36238e-17)
(-5.62907e-05 -0.000136048 1.97003e-17)
(0.00889428 -0.00312546 5.18486e-19)
(-0.00238031 0.000684573 -3.4605e-17)
(-0.00262624 0.000348822 -5.84953e-18)
(-0.000292413 -7.26637e-05 -6.8876e-19)
(0.000297842 0.000175961 1.39928e-17)
(-0.00018842 -0.000508975 2.02379e-17)
(0.00321197 0.000720476 7.2551e-17)
(-0.000168265 -4.37237e-05 -1.21187e-18)
(0.00737743 -0.000333953 -6.76251e-17)
(-0.000207992 -0.000105229 5.19812e-19)
(-0.000552555 0.000235148 -7.08488e-18)
(-0.000483866 -2.06073e-06 -1.84192e-19)
(-0.000321798 -0.00153912 -9.03964e-18)
(0.00251014 0.00170285 -2.07157e-17)
(-0.000125742 -0.000310226 -5.77292e-18)
(0.00078789 -0.00212696 4.56398e-17)
(-0.000291412 -0.000148947 -1.13186e-18)
(-0.000285815 -6.90241e-05 8.54344e-19)
(-0.00589611 -0.00202931 2.58953e-17)
(-0.00152943 0.000771317 -1.25463e-17)
(-0.000288262 -0.000142718 3.25371e-17)
(0.0112498 -0.00405036 3.4705e-18)
(-0.00236238 0.00064724 2.31714e-17)
(-0.000475018 -1.8555e-05 -5.18248e-20)
(-0.000260967 -0.000235265 -7.22017e-18)
(-0.00249091 0.000336687 -5.36417e-18)
(0.000922835 -4.22736e-06 9.55257e-18)
(-6.64185e-05 4.75042e-05 1.64361e-19)
(-0.000257045 -1.92516e-05 -5.387e-19)
(0.0112284 0.0010585 8.23377e-18)
(-0.000581496 -0.00231246 -2.68858e-17)
(-3.21899e-05 1.91071e-06 -1.07273e-18)
(-0.00690665 -0.000712375 1.44836e-17)
(0.000278775 0.000130362 5.23554e-18)
(-3.23223e-05 -0.000212112 -4.2512e-17)
(-0.000321349 -0.000253536 -1.33186e-17)
(-4.75319e-05 4.54672e-05 2.39418e-18)
(1.50826e-05 -0.000416875 -4.33258e-18)
(-0.00301968 0.000523512 -2.20621e-18)
(-0.0003231 -1.30281e-05 -2.99653e-18)
(-0.000883991 -0.000403604 9.80429e-18)
(0.000126112 2.72249e-05 1.1742e-17)
(-0.000280106 -8.79437e-05 1.49342e-18)
(-0.000125825 -7.07686e-05 -3.77073e-18)
(-0.00128921 -0.000610603 1.0652e-17)
(0.0117489 0.00120532 3.90669e-18)
(-0.00149958 -0.000859027 2.94886e-18)
(-2.24446e-05 -0.000324268 1.28787e-18)
(-8.37986e-05 -0.000314177 -1.14686e-17)
(-2.50284e-05 3.29682e-06 -1.87059e-19)
(0.00847014 -0.000290379 -2.87958e-18)
(0.00109927 0.00266488 -3.25178e-17)
(-0.00715425 0.00175933 -1.92815e-17)
(-0.000314848 -6.9866e-05 -8.00998e-20)
(0.000191847 0.00121462 2.61947e-17)
(0.00123467 -0.000189267 -6.84914e-18)
(0.00767413 -0.00571102 1.72615e-17)
(0.00994825 0.00034752 -1.77129e-18)
(-0.000960945 0.000856469 1.18767e-18)
(-4.45364e-05 4.98203e-05 -1.38727e-18)
(-0.000421893 -1.72299e-06 4.23576e-20)
(-0.000133031 -0.000263748 2.37135e-18)
(-0.00176895 -0.00066946 -3.34856e-17)
(0.000797505 -0.000895935 -5.136e-17)
(-0.000299577 -0.000109385 1.04485e-17)
(0.00283727 0.00217849 -6.43326e-18)
(-0.000772164 0.000114659 8.07697e-18)
(-0.000570745 1.76124e-06 6.5355e-19)
(0.00401828 0.00146996 -2.92825e-17)
(-0.00016753 -2.60002e-05 4.11322e-19)
(0.00632569 -0.00260679 -2.22499e-17)
(-0.000458571 -0.000108135 1.59923e-18)
(-6.63787e-05 2.00762e-06 1.09537e-18)
(-0.000122404 -0.000325336 1.28209e-18)
(-8.66396e-05 -0.000431344 5.58083e-19)
(-2.81887e-05 -0.000210264 1.51853e-17)
(-0.00760236 -0.000878196 -1.17777e-18)
(-9.29829e-05 -0.000362759 -3.82413e-18)
(-0.000322476 -1.72946e-05 -3.12406e-18)
(-0.0015879 0.00227039 4.44413e-17)
(0.0113948 -0.00415927 -8.53463e-18)
(0.0014495 0.00265526 -8.26379e-18)
(-0.000167983 -4.62382e-05 2.10297e-18)
(0.00745986 -0.00531292 3.616e-17)
(1.36201e-05 4.58573e-05 1.20325e-17)
(-0.000323564 -1.75347e-05 1.76335e-18)
(-0.000145871 -8.91794e-05 -7.06955e-18)
(0.000801422 -7.60079e-05 1.01574e-17)
(-0.000239551 -2.0633e-06 -5.67274e-19)
(-0.000593113 0.000273666 -2.42529e-17)
(-0.000308477 -0.000254357 1.45562e-17)
(-0.000298597 -5.20467e-05 2.48198e-18)
(-0.000467849 -0.000694823 -3.95764e-18)
(-0.000233647 -0.000195178 -6.19257e-19)
(-5.33513e-06 0.000213613 1.90645e-16)
(-5.14656e-05 -0.000442216 3.74413e-20)
(-0.00066955 -0.00028255 -2.69879e-17)
(-0.000321539 -1.59998e-05 3.72097e-18)
(-0.000128011 -6.51364e-05 7.38897e-18)
(0.00445885 0.000603997 -4.9856e-17)
(0.00682298 -0.000553714 6.2449e-18)
(-0.000148571 -8.01246e-05 -3.40077e-18)
(-0.000465444 -1.55076e-06 3.4553e-20)
(0.00445301 0.00184658 1.80321e-17)
(-0.000227951 -0.000126668 -4.80109e-20)
(-0.00181531 0.00110885 -2.31805e-17)
(-0.00032175 -1.81464e-05 -5.18656e-18)
(-0.0003727 -0.00145241 1.25157e-17)
(-0.00035789 3.90967e-05 7.31506e-18)
(6.64723e-06 -0.00137192 -1.69659e-18)
(-0.000411866 -0.000274806 2.0323e-17)
(4.09822e-05 0.00030247 1.96598e-16)
(-4.10271e-05 -0.000248325 6.38534e-18)
(-0.00166738 0.00311496 2.84906e-17)
(0.00022469 0.00011277 -2.08209e-17)
(-0.000134431 -0.000322613 3.40783e-19)
(-0.000434604 -0.00225574 2.8363e-18)
(0.000713049 -0.000434046 -1.1651e-17)
(-0.000133055 -0.000183022 -6.07601e-18)
(0.00593954 -0.00162121 -2.37696e-18)
(3.23229e-06 -2.03147e-06 1.44383e-16)
(0.000897635 -0.000397167 -4.10755e-18)
(-1.21753e-05 -0.000251726 1.75174e-18)
(0.0135103 0.000240187 8.70537e-18)
(-0.000272485 -0.000223076 -2.41329e-18)
(0.00373065 -0.000538907 -5.42654e-17)
(0.00020853 9.17992e-05 -4.75436e-17)
(0.000337148 -0.0004206 -7.25085e-18)
(0.000314271 -0.000442089 3.59909e-18)
(0.00915183 -0.00376027 1.63123e-17)
(-3.36692e-05 5.98047e-05 -3.69814e-18)
(-0.000157248 -0.000440422 -9.24151e-18)
(0.00452063 0.000803236 -3.98454e-17)
(-9.24103e-05 -0.000103548 1.99618e-18)
(-0.000145031 -0.000279712 -5.69056e-18)
(0.00221372 -0.000325431 3.00256e-17)
(0.000555697 -0.000279943 4.82762e-18)
(-0.000197427 -0.000232141 -8.58336e-20)
(-0.00401021 -0.00421823 7.54939e-18)
(0.000574669 3.04165e-05 -5.23374e-18)
(-0.000367931 -1.23437e-05 -2.67812e-19)
(0.0108278 -6.29178e-05 1.52459e-17)
(-0.00609883 -0.00328654 -1.39107e-18)
(-0.000181285 -3.15997e-05 -2.4725e-19)
(-0.000250188 -2.39444e-05 -1.96732e-19)
(3.4118e-05 5.39608e-05 -1.1486e-17)
(-0.000318527 -1.73679e-05 -2.27005e-18)
(-0.000250597 0.00241688 -6.7137e-17)
(0.00481341 -0.00137935 -1.0455e-17)
(-0.000171145 0.000221557 -3.08802e-17)
(0.00455224 0.000638857 -9.32465e-18)
(-0.000119171 -9.73625e-05 1.46109e-18)
(-0.00094847 -0.00041296 -1.08138e-17)
(0.000516907 0.000339145 5.64226e-17)
(-0.000439471 -0.00043801 9.65839e-18)
(0.00878795 -0.00298485 -9.19111e-19)
(-0.0017034 -0.000823192 -5.32826e-17)
(0.00249001 0.00160942 3.80323e-17)
(-0.000432759 -3.47632e-05 3.27718e-19)
(-0.00745411 0.0017464 1.21603e-17)
(-0.000284733 -3.37343e-05 -1.46558e-20)
(0.00770867 -7.78526e-05 5.21978e-18)
(-0.000293032 -6.39328e-05 -6.75405e-20)
(3.25005e-05 0.000323146 -1.03693e-16)
(0.000247831 0.000198894 3.48115e-17)
(-0.000457824 -2.00692e-05 -1.04351e-18)
(-4.93849e-05 5.95881e-05 5.43415e-18)
(-0.00010499 -0.000512754 4.91393e-19)
(-0.000804718 -0.000267731 -8.72069e-19)
(0.00018686 -0.000201167 -3.37043e-19)
(0.000319679 0.000867961 2.18344e-17)
(0.00378202 -0.000413559 2.74347e-17)
(0.0032003 0.000642872 -1.26501e-16)
(2.22481e-05 -0.00043338 7.36848e-19)
(-0.00045682 -0.000400176 -6.60802e-18)
(-0.000254395 -2.15223e-05 3.48303e-19)
(0.00104592 -7.12065e-05 -1.74542e-19)
(0.00926114 -0.00227335 5.15469e-18)
(-0.000141558 -0.000110882 -8.3342e-19)
(-0.00150478 0.00198664 -5.23811e-17)
(-7.74257e-05 -0.000125488 4.89586e-18)
(0.00169938 0.00142687 -4.10825e-17)
(-0.000359148 2.85262e-05 -6.98565e-18)
(-3.43433e-05 5.69394e-05 2.55016e-18)
(-0.000212955 -0.000214039 4.0468e-19)
(0.00873224 0.00245585 1.67163e-18)
(-0.00020792 -0.000219474 1.39818e-18)
(0.0116758 0.00136067 1.23263e-18)
(0.00060041 -0.000417135 -5.92249e-17)
(-0.00289109 -0.00103882 4.32383e-18)
(0.000177004 0.00015873 4.93516e-17)
(-0.000134915 -0.000180438 5.61446e-18)
(0.000260619 0.000161251 -3.06669e-17)
(0.000204196 0.000150477 3.16416e-17)
(-0.000159713 -7.91878e-05 -1.58234e-19)
(0.000547351 -0.000219821 5.62249e-18)
(-0.000109201 -9.64164e-05 -1.59524e-18)
(-9.00383e-05 -0.000113159 8.53089e-19)
(-0.000789854 2.91817e-05 1.37405e-17)
(-5.11721e-05 5.19492e-06 -6.71369e-19)
(-8.30553e-05 -9.7531e-05 2.83578e-19)
(-0.000259465 -3.48098e-05 1.17305e-22)
(0.000117281 0.00161964 -5.23569e-18)
(-2.19833e-05 4.12634e-05 2.6087e-18)
(0.0133449 0.000171683 -1.06348e-17)
(0.00747542 0.002126 -3.06311e-18)
(1.66449e-06 2.16558e-05 -3.39262e-17)
(-0.00119616 -0.00102465 -1.11705e-17)
(0.0125708 0.000699665 1.13733e-17)
(0.00206045 0.000764662 -2.48909e-18)
(-0.000465956 -0.000423773 -4.85179e-18)
(-0.000121381 -0.00010148 -9.54628e-19)
(0.00039148 0.00100258 -1.01946e-18)
(-0.000485354 7.12759e-05 -5.99238e-18)
(-0.000259714 -0.000242325 -9.88465e-18)
(-0.000112607 -6.72585e-05 -1.35982e-18)
(0.00462025 -0.000892214 -9.2146e-18)
(0.00942101 -0.00259266 1.19054e-18)
(0.00641452 0.0023416 -1.13852e-18)
(-0.000107909 -0.000306151 -6.1769e-18)
(0.00050334 8.331e-05 -1.0107e-17)
(-1.44324e-05 -0.000245822 8.98334e-18)
(-0.000510973 7.60175e-05 2.42411e-17)
(0.000145406 -0.000269397 1.41275e-17)
(-0.000192562 -0.000248135 -2.8972e-19)
(-0.00658713 0.00257802 -2.33243e-17)
(-0.000206029 -0.000213924 -2.98027e-20)
(-0.000221983 -2.59432e-06 1.28518e-18)
(-0.00143801 0.00128678 -1.65989e-18)
(0.00915941 -0.00151625 -4.27008e-18)
(0.00910131 -0.0016444 2.83236e-18)
(-0.000536204 -0.00083697 -2.61555e-17)
(-0.00014892 0.000106156 4.58322e-17)
(0.00573602 -0.00196362 8.93935e-18)
(0.00315268 0.00168192 -2.61545e-18)
(-0.00247355 -8.62537e-05 3.67533e-17)
(-0.000539982 1.12757e-06 -7.40111e-19)
(-8.58077e-05 -0.000375982 1.18712e-17)
(-0.000195263 -0.000240958 3.49966e-19)
(-0.000112352 -9.26727e-05 1.72448e-18)
(0.0025569 0.00203634 -5.66946e-17)
(-0.000118609 -0.000239548 -4.68636e-18)
(-0.000614627 1.08705e-06 -7.0887e-19)
(-0.000272304 4.9285e-05 5.31458e-18)
(-0.000412585 -0.00037749 5.91253e-18)
(-0.00193834 -7.81613e-05 2.87253e-17)
(-0.000158045 -7.98146e-05 -3.17338e-18)
(0.000149964 -0.00163753 -1.69543e-17)
(0.000934583 0.000814517 -6.05653e-17)
(0.000166447 -0.00154785 1.29228e-17)
(0.0127518 -5.29437e-05 4.86719e-18)
(-2.44396e-05 3.69669e-05 -4.02001e-18)
(-0.000143619 -0.000110579 4.35012e-18)
(-0.000586195 -2.74948e-06 3.76215e-19)
(-0.000202893 -0.000351298 2.59376e-18)
(-0.000416662 -3.25117e-05 6.2054e-19)
(0.009187 -0.000745927 -4.85478e-18)
(-0.000171066 0.000181697 1.2989e-17)
(-9.76811e-05 -0.000358597 -1.13551e-18)
(0.00102691 0.000144408 1.41466e-17)
(-0.000313933 -0.000123629 2.45288e-17)
(-0.00114696 -0.00194462 -2.11003e-17)
(0.00334086 0.00185364 -6.37852e-18)
(0.000713405 -0.000152546 6.40394e-18)
(-0.00281366 -0.000863559 -2.42409e-18)
(-0.00677389 -0.00276787 -1.04252e-17)
(9.49743e-05 -0.00174178 2.5055e-18)
(-0.000387894 1.26209e-05 9.9686e-18)
(0.000933979 0.000596096 -6.66907e-18)
(-0.000827721 -0.000248161 -5.7811e-18)
(-0.00361364 -7.76546e-05 -4.82228e-18)
(4.66958e-05 0.000150508 8.58814e-18)
(-0.00094549 -6.59189e-05 9.63188e-18)
(2.06478e-05 -0.000992662 7.22242e-18)
(-0.000613119 -2.47635e-06 7.36563e-19)
(0.000734689 0.00363527 -1.75027e-17)
(-0.00035465 -0.000157497 -4.00979e-18)
(-0.000343506 -6.1006e-06 -2.28328e-18)
(-0.000196494 -0.000343017 3.39823e-18)
(-0.000318368 -5.93668e-05 -5.39441e-18)
(-0.00216002 -0.000159541 3.49727e-18)
(0.00291177 0.00109622 -1.11287e-17)
(-0.000230282 -0.000118221 -5.07331e-20)
(-0.000601922 1.26158e-06 2.18799e-18)
(0.010239 -0.00202112 -7.79213e-18)
(0.00206518 0.000757887 2.22059e-17)
(-6.10336e-05 3.92553e-06 5.92729e-19)
(0.0130274 7.3884e-05 1.88559e-17)
(-0.000367121 -4.59904e-05 6.95736e-18)
(-0.00118652 -0.000732665 3.59311e-17)
(-0.000215805 -0.000122619 -8.87671e-20)
(-0.0012344 0.00103262 5.64468e-18)
(0.00343727 -0.0034433 1.27931e-17)
(-0.000243445 -0.000255426 -6.62133e-18)
(-0.000258929 -0.000133821 -4.35415e-18)
(0.0121893 0.000695491 3.67847e-18)
(-0.00150558 -0.000451639 -1.69805e-17)
(0.000487885 0.000317862 1.08774e-16)
(-2.42678e-05 4.5055e-06 1.29725e-18)
(-0.00262196 0.000639658 -1.83669e-18)
(-2.68865e-06 0.000220826 9.50914e-17)
(0.00479554 0.000988333 3.5247e-18)
(-0.00033781 -5.77014e-06 1.5664e-18)
(0.00145424 -0.000259508 -1.82389e-18)
(0.00258234 0.00268221 4.57957e-17)
(-0.000513183 -0.000451345 -2.13677e-17)
(-0.000243821 -2.77545e-05 7.92932e-20)
(-0.000171364 -0.000214842 2.89462e-18)
(-0.000713328 0.000782854 2.72e-18)
(0.00159524 0.00148812 1.20018e-17)
(-0.000661117 1.55388e-06 1.54554e-18)
(-0.000247668 -1.95041e-05 6.60092e-20)
(-0.000336538 -8.3482e-06 -2.06054e-19)
(-0.000347473 -7.44299e-06 -1.18677e-19)
(-0.000138506 0.00103736 1.23254e-17)
(0.00220489 0.00199505 8.43896e-18)
(-0.000497772 -0.000429951 2.45679e-17)
(-0.00175362 -0.000369774 -3.71076e-17)
(-0.000409019 -9.82072e-07 -7.26816e-20)
(-0.000378079 -2.4256e-05 -1.92571e-19)
(0.000504805 -2.71995e-06 3.3297e-17)
(0.00175175 0.00266821 4.95183e-17)
(-0.000313047 -0.000141353 -2.78774e-18)
(-0.000309876 -5.58199e-05 3.88717e-19)
(-9.48881e-05 -0.000109861 -1.33859e-18)
(3.81476e-06 -0.000142711 1.66115e-18)
(0.00484289 0.00142375 -3.98857e-18)
(0.00222168 -0.00046008 -3.8437e-17)
(-8.74983e-05 2.94428e-05 -1.77544e-18)
(-2.55103e-05 -0.000141703 -1.84979e-18)
(-0.00730315 0.00205952 1.55319e-17)
(-0.00079859 -0.000262951 -1.35247e-17)
(-0.000424625 -0.000273952 2.4766e-17)
(-0.000127917 -9.95365e-05 6.99472e-19)
(-0.000217805 -0.000231727 6.95798e-19)
(-0.000211986 -0.000267269 -5.12036e-18)
(-5.26376e-05 -0.00100612 2.0271e-18)
(0.000651978 -0.000446558 5.44225e-18)
(-0.00172072 -0.00047493 1.93611e-17)
(0.000521434 0.00104266 -2.15674e-18)
(0.000545895 -0.000571908 -1.72883e-17)
(0.00312129 0.00160223 2.3383e-17)
(-0.00066213 -0.000236595 3.32396e-18)
(-0.000156551 -5.46437e-05 1.15951e-18)
(-0.0028354 0.000581508 -2.30943e-17)
(1.28042e-05 -0.000140432 1.33434e-18)
(-0.00014267 -0.000284795 6.03696e-18)
(-0.000423141 -6.93949e-05 2.83491e-18)
(0.00127318 0.00323122 -3.49764e-18)
(0.000159693 -0.000528306 1.28012e-18)
(-0.000486909 -5.76236e-06 1.70128e-19)
(7.73199e-05 -0.00151645 -1.93791e-17)
(-0.000835036 0.000212405 5.21068e-18)
(0.000450792 0.000859348 -4.5327e-17)
(0.00054178 -0.000492269 1.40403e-17)
(2.9681e-05 -0.000295455 1.94073e-17)
(-0.000398469 -0.00040302 -2.41205e-18)
(-4.64692e-05 5.55865e-05 -1.90074e-18)
(0.0018463 0.00271526 1.93211e-17)
(-3.48805e-05 -0.00144319 -1.27929e-17)
(0.0062077 -0.00336613 5.86588e-18)
(-0.000203544 -0.000208944 -6.48053e-20)
(-0.000306693 -0.000135195 -1.71428e-17)
(-0.00182283 -0.000343255 4.42678e-17)
(-0.00180643 -0.00082214 -7.37528e-18)
(-0.000169589 0.000441811 -7.88691e-18)
(3.01292e-05 -0.000494542 1.75083e-17)
(-0.000574552 -0.000889968 2.74095e-17)
(-0.000120287 -0.00030519 -1.27159e-19)
(-0.000266386 -0.000151538 -3.27841e-18)
(-0.000133987 -0.000102908 2.26899e-18)
(0.000136962 -0.000325823 -1.75812e-18)
(0.00013055 -7.96851e-05 1.38607e-17)
(3.81693e-06 -7.35059e-05 5.15975e-18)
(-0.000227104 -0.00052466 8.55061e-18)
(0.000101296 2.07826e-05 -3.62108e-17)
(0.00621259 -0.00346658 -1.30577e-17)
(0.000542375 0.000295771 -3.53598e-17)
(-0.000215107 -0.00024613 1.51601e-18)
(-0.00122903 -0.00183286 2.46084e-17)
(0.00285249 -0.00347115 -1.00145e-17)
(-0.000127367 -0.000332103 -2.65071e-19)
(-4.25763e-05 -0.000129928 -7.37712e-18)
(0.000166346 0.00045381 4.12731e-17)
(0.00149478 0.00233452 -1.25914e-17)
(0.00533512 -0.00136422 -8.18309e-18)
(-0.00179629 -6.25095e-05 3.53689e-17)
(-0.00052377 2.66745e-06 -4.46588e-19)
(0.0104502 -0.000257731 -7.74651e-18)
(-0.000833134 0.000723936 -1.12537e-17)
(-0.000541266 -4.0654e-06 7.24163e-19)
(-0.000307224 -0.000164027 -1.3376e-18)
(-0.00066834 -0.00113619 1.60212e-17)
(1.84951e-05 -0.000251792 -3.46585e-18)
(-0.000726692 0.000109737 -7.16939e-20)
(0.00977101 -8.11474e-05 2.01154e-17)
(0.000920705 0.000460095 2.41871e-17)
(-0.000738309 -0.000201441 -3.98071e-18)
(0.00186058 0.00280172 -1.63339e-17)
(-0.000298956 -7.48166e-05 1.60779e-18)
(-0.00256486 2.29637e-06 1.66895e-17)
(-4.0697e-05 4.50131e-05 -1.60758e-19)
(-9.06616e-05 2.4958e-05 1.72094e-18)
(0.00802585 -0.00532537 -2.63011e-17)
(0.0016845 0.00221176 2.25113e-18)
(0.000124418 0.000188865 -1.74633e-17)
(-0.000302935 -7.21376e-05 8.75941e-19)
(-0.000185215 -0.000238262 1.53694e-18)
(-2.7367e-05 -0.000139242 2.70862e-18)
(-0.000788056 0.000111362 1.16493e-18)
(-1.59585e-05 0.000260241 -4.48178e-17)
(-0.00203586 0.00145098 -1.57294e-17)
(-0.000271417 -0.000149741 -8.15923e-18)
(-0.00265469 -0.000819457 5.57072e-18)
(-0.000148372 -0.000536467 -9.10356e-18)
(-0.000214836 -0.000127402 -4.8333e-19)
(0.000979862 -0.00117072 2.20629e-17)
(-0.00184329 0.00148639 -4.7816e-19)
(-0.00415693 0.00437502 -1.45859e-17)
(-0.000177656 -3.45399e-05 -3.63909e-18)
(0.001032 0.000241971 -6.94435e-18)
(-0.000313832 -6.0797e-05 7.88429e-18)
(0.00108531 -0.000304322 4.44143e-17)
(-0.000515243 -0.000404611 2.60585e-17)
(0.000131778 -0.000541303 2.02092e-18)
(-0.000307914 -0.000136295 1.63639e-17)
(-0.000414372 -4.14346e-06 -1.32738e-19)
(-0.000352622 3.30934e-06 -3.45159e-18)
(-0.000279996 -9.22918e-05 -3.90603e-18)
(0.000316336 -0.00050782 1.50523e-19)
(-6.42091e-06 -0.000267147 3.65179e-18)
(-0.000730703 0.00132393 1.20319e-16)
(0.000752115 0.000549739 6.76801e-18)
(-0.000284087 -0.000662916 -8.80127e-18)
(-0.000366909 -9.22932e-06 -5.70953e-20)
(0.000629812 0.000657151 -2.00933e-17)
(0.000143948 0.000208813 7.74806e-17)
(-0.00112186 -0.00323079 -3.14882e-19)
(-0.000328005 -1.33637e-05 3.16064e-18)
(-1.14078e-05 -0.000271373 -4.32644e-19)
(-0.000240137 -1.70367e-05 5.30285e-20)
(-0.000585685 -5.11876e-05 3.18005e-18)
(-0.000298165 -0.000117607 1.59741e-17)
(0.00267119 0.00272999 -6.35621e-17)
(-3.82222e-05 5.41391e-05 4.13109e-18)
(0.00309261 -0.00222724 -9.25062e-17)
(-0.000567364 -8.36715e-05 5.32668e-18)
(-0.00296995 -0.00171716 9.29279e-18)
(-0.000684833 -0.000393469 -6.20495e-18)
(-0.00137326 0.0011574 3.32908e-17)
(9.98952e-05 -0.000583932 -2.46398e-18)
(-0.000173015 -0.00020723 -2.25562e-18)
(-0.0024107 -0.000351771 2.43959e-17)
(-0.000185987 0.000553323 4.58389e-17)
(-0.000165955 -0.000141406 6.33317e-19)
(-0.000420026 -6.11838e-05 -4.6846e-18)
(0.00328968 -0.0020491 4.57747e-17)
(-0.00156191 -6.20206e-05 -7.30927e-17)
(0.000698873 -0.000965017 4.64848e-17)
(-8.76965e-05 5.78032e-06 -1.43994e-18)
(-0.00026241 -0.000128132 3.57225e-18)
(-2.29461e-05 -0.00128156 5.3046e-18)
(-0.000462385 -1.52492e-05 1.34785e-17)
(0.000111128 -0.000165747 -5.48381e-17)
(-0.00121546 -0.000571258 8.32768e-18)
(-0.00035369 2.17461e-06 2.94646e-18)
(-0.000739528 -0.000647769 1.30633e-17)
(0.0101121 -0.00390871 7.83168e-19)
(-0.000327995 -9.56804e-06 1.26619e-18)
(-0.000386274 3.75004e-05 1.40895e-18)
(-0.000315706 -1.16054e-05 3.19954e-19)
(0.00714816 -0.000500256 -3.54053e-18)
(-1.13391e-05 2.7699e-05 -2.70802e-18)
(-0.000110181 -0.000302185 9.40762e-18)
(0.0042777 0.000226061 4.2997e-18)
(-0.000130393 -0.000275952 -2.66863e-18)
(0.00167125 0.00183537 5.05163e-18)
(-0.000287655 -0.000159302 5.11921e-18)
(2.54617e-05 -0.000236802 -3.12093e-17)
(-0.00031603 -1.08385e-05 1.90815e-19)
(-3.64013e-05 -0.000483559 -4.24665e-18)
(-0.00013732 -9.53054e-05 4.21162e-18)
(-0.000424642 -2.03839e-05 3.44726e-17)
(-0.000422961 -3.0092e-06 2.06736e-19)
(-4.28008e-05 -0.000693022 2.02275e-17)
(-0.000364636 -4.71269e-05 4.70606e-19)
(0.00364888 0.00210334 9.20732e-18)
(0.000480756 0.000459116 1.32775e-18)
(0.00182207 0.00271393 -3.34767e-17)
(-0.000570562 -3.13417e-06 1.17113e-18)
(-4.23007e-05 6.24413e-05 5.3998e-18)
(-0.000624785 -0.000222681 7.56311e-18)
(-0.000418249 -0.000247315 -1.45193e-17)
(0.00305904 -0.00040228 -4.59517e-18)
(0.0017823 0.00205745 1.61228e-17)
(-0.000141288 -0.000158437 -1.92972e-17)
(-9.85173e-05 -0.000117556 -6.14623e-19)
(6.81884e-05 0.0016789 -1.0105e-17)
(9.21622e-05 0.00020493 -5.21887e-17)
(-0.00490683 0.00402468 1.22424e-17)
(-0.00121796 0.00119918 -9.61911e-17)
(-0.00016659 -0.000319279 1.84864e-17)
(0.00920451 0.00108139 7.8702e-19)
(-0.000291243 -0.000329294 2.74712e-18)
(-0.000764193 9.66752e-05 2.88877e-17)
(-1.95002e-06 0.000827599 1.61232e-17)
(0.000468469 -0.000283187 1.14024e-17)
(-0.000163559 -0.000151147 9.31451e-18)
(0.000134378 0.000243945 -1.11359e-17)
(-0.000190767 -0.000110606 -1.89744e-18)
(-0.000413604 -5.49189e-06 8.01446e-20)
(-0.000656527 -0.00121676 -3.00735e-19)
(-0.000142211 -0.000323189 -9.61241e-19)
(-0.000330775 -7.25272e-06 -3.65218e-18)
(-0.000580125 -6.0615e-05 -5.12437e-18)
(-0.000374391 -0.000284847 9.14028e-18)
(-0.000229882 -0.00026363 1.02077e-18)
(-0.000124189 -0.000105039 -1.59652e-18)
(-0.000411331 -7.50445e-07 -4.53452e-20)
(-0.000209044 -0.000612008 -2.12662e-18)
(-0.00036217 -6.77674e-05 -2.29678e-18)
(0.000104664 -0.000127486 5.88945e-17)
(-7.56327e-05 -0.000121171 -7.94551e-19)
(-7.97604e-05 -0.000130706 -3.84532e-18)
(-1.50777e-05 2.22513e-05 2.01276e-18)
(-0.000199112 -0.000242202 -1.73465e-19)
(-0.000428442 -1.28549e-06 6.65663e-19)
(-0.000234806 -0.00023158 1.36748e-18)
(-0.000306316 -1.55016e-05 -7.82673e-19)
(-0.00108624 0.000966018 -6.11296e-18)
(-0.00114567 0.000273592 -2.9897e-18)
(-0.000225013 0.000157712 2.90701e-17)
(-0.000422577 -3.16115e-05 -8.75813e-19)
(-4.42057e-05 2.97801e-05 3.60792e-19)
(8.28184e-05 -0.000214066 8.95048e-18)
(-0.000381696 3.39373e-05 -1.39068e-18)