/*--------------------------------*- C++ -*----------------------------------*\
| =========                 |                                                 |
| \\      /  F ield         | OpenFOAM: The Open Source CFD Toolbox           |
|  \\    /   O peration     | Version:  v2012                                 |
|   \\  /    A nd           | Website:  www.openfoam.com                      |
|    \\/     M anipulation  |                                                 |
\*---------------------------------------------------------------------------*/
FoamFile
{
    version     2.0;
    format      ascii;
    class       volScalarField;
    location    "250";
    object      ddt0(k);
}
// * * * * * * * * * * * * * * * * * * * * * * * * * * * * * * * * * * * * * //

dimensions      [0 2 -3 0 0 0 0];


internalField   nonuniform List<scalar> 
13851
(
1.08666e-06
-0.000240166
-3.9812e-06
1.17864e-06
3.71277e-06
-0.00141724
2.15495e-08
-4.30408e-06
2.54839e-07
-1.09147e-05
2.49535e-05
0.00145375
-0.00833052
0.00136171
2.95076e-07
-2.16636e-06
-6.56536e-07
7.06677e-07
-0.00840494
2.6169e-07
1.19302e-06
-3.29504e-06
1.06507e-07
4.72646e-07
1.44409e-07
-4.49494e-06
-3.96393e-07
4.71252e-05
1.06933e-06
3.94329e-07
-0.00499889
-7.38324e-07
-4.7496e-06
-0.00194962
4.74199e-07
9.90358e-06
-0.0051305
-0.00506027
-6.63992e-06
-0.000971454
3.02345e-07
2.14835e-08
0.000308952
-0.000494624
-0.00055996
-0.000430157
0.000324622
-0.00320158
-4.25102e-07
-0.0018842
4.85643e-06
8.76911e-06
-0.000642262
2.33218e-07
4.29572e-07
4.47216e-08
-1.35043e-07
-0.000400658
4.01269e-07
1.79802e-08
-0.00485364
-0.0035483
-3.35886e-07
5.09725e-06
0.000360633
1.36247e-06
-0.0154633
0.000902482
-1.34032e-06
7.65656e-07
-0.00088206
-0.0151927
0.00538196
2.22505e-07
2.58952e-07
4.41495e-07
-3.92877e-06
-0.00250038
-1.85041e-06
-0.000685804
3.2896e-08
-0.000363518
2.73339e-07
-0.000311736
-2.04629e-06
0.00234333
-0.000271336
-0.0196313
-7.62136e-07
5.37922e-07
8.8662e-06
1.89024e-05
0.000707756
-1.16976e-06
-7.00203e-07
-1.97422e-07
4.24855e-06
-0.00624471
-0.00108484
-1.89086e-07
5.60685e-05
1.21467e-06
6.84813e-07
-1.1073e-07
1.98136e-08
-0.000799825
2.90786e-06
4.42817e-08
-0.0145339
-0.00148048
1.40861e-07
5.5238e-07
6.85441e-06
3.71649e-07
2.06692e-07
0.0051196
-0.00674651
6.82677e-09
-1.35116e-07
3.00857e-07
0.000409563
-1.16687e-07
-0.00833476
-0.00266312
0.000617631
-8.71328e-06
-0.00252072
-4.9285e-07
1.17457e-06
-0.000162765
2.99515e-07
1.93077e-07
-0.00120437
2.63153e-07
0.00428872
1.91174e-07
4.22601e-10
-0.0159113
0.00274005
0.0218691
-0.000310272
4.60372e-07
2.65115e-08
-1.84112e-07
-1.52176e-07
-0.000519135
-2.37937e-05
-4.55246e-05
3.75413e-08
-0.000332874
4.64468e-06
2.12514e-07
0.00141768
-1.31493e-07
-1.87104e-07
-1.04292e-07
-8.31707e-08
2.9511e-07
9.12602e-06
4.50254e-06
2.1283e-07
-7.29007e-07
-0.000437131
1.94451e-07
-1.39792e-08
-1.89802e-07
-1.55055e-05
-1.28346e-06
1.09414e-06
-0.00226464
-0.00203046
5.40804e-08
-1.04467e-07
0.024238
1.91195e-07
-0.000920763
-1.10577e-06
1.88812e-07
-0.00852388
9.37303e-08
-9.87178e-07
-0.0163518
2.74443e-07
-1.38963e-06
8.21443e-08
2.27833e-07
1.37636e-06
4.00565e-07
4.30458e-06
-8.00723e-06
0.000641165
-0.000683742
4.97805e-07
-1.60031e-06
-0.00369685
-1.54471e-07
1.29343e-07
0.000658984
2.59094e-07
4.65259e-07
-9.75119e-06
-0.000841018
-4.36055e-07
3.50905e-07
-9.04142e-06
2.53104e-07
0.00648532
-7.13457e-07
-0.00340266
1.7968e-07
-0.00524736
7.0769e-07
0.000388265
8.32531e-08
-1.86236e-07
5.50076e-05
-1.76427e-06
-0.00104573
3.36571e-07
-0.00362803
-7.41668e-07
3.47717e-08
-0.00686741
2.30217e-05
-0.00431584
2.56561e-07
-1.46779e-06
-1.87756e-08
-0.00116365
9.92177e-08
-4.45209e-06
5.49032e-05
5.59561e-08
5.1698e-07
4.15308e-06
-1.32349e-06
0.00760673
0.000682142
-1.82799e-07
3.58119e-07
-0.00548736
0.000397272
5.28077e-07
-1.06169e-05
4.41587e-08
-0.00386432
9.75374e-07
0.000100231
-5.87079e-08
-6.34996e-07
4.89591e-07
0.000338075
1.275e-07
-1.21695e-07
2.96396e-06
-0.000245218
-8.3606e-06
-0.0152184
-0.00034799
2.2209e-07
-2.04563e-07
8.54311e-07
0.00958568
-7.25359e-07
-0.00821189
-1.49521e-07
1.22222e-07
-1.06675e-06
-0.00699596
8.36645e-06
2.51909e-08
-1.96508e-07
-0.00722151
-2.17937e-06
-1.83394e-06
1.88459e-07
-0.000374908
0.00114146
-0.0045975
1.79777e-05
-2.28472e-08
1.58186e-07
6.37152e-08
2.88232e-06
0.00705559
-0.000285852
3.77056e-07
2.77268e-07
-0.00487995
-0.00137586
-0.00288312
3.64574e-07
3.01845e-08
-1.63139e-06
-0.00104665
-0.00835678
-1.26556e-07
0.000874776
1.70965e-07
-0.00405182
-6.8273e-07
-6.50288e-07
-0.00491963
4.97953e-07
-0.000941278
-0.00566441
3.70552e-07
1.27304e-06
-1.23877e-06
3.72471e-07
0.00284586
-1.12854e-07
1.68974e-07
-0.00712971
-2.82254e-08
-7.6904e-07
-2.3378e-05
-0.00552856
7.65734e-06
3.23374e-07
2.55518e-06
3.01806e-07
-0.00191905
2.12796e-06
2.50909e-07
-2.80709e-07
6.703e-06
-1.36987e-06
-1.65537e-07
2.76975e-07
5.06716e-07
1.809e-07
-0.000165535
0.0015915
-0.00229269
1.1012e-06
-0.00580823
-0.00430159
3.24366e-07
-1.7372e-06
-0.0039227
4.88038e-05
-7.17415e-06
5.9518e-06
-0.00831937
1.22865e-06
0.00298873
-0.00498653
2.90029e-07
-0.00224414
-0.00174576
0.0023981
-1.64544e-07
-8.38142e-06
-0.00112433
-1.37944e-07
0.00344256
-2.69719e-07
3.07184e-07
3.05896e-08
6.80674e-08
-1.72983e-08
-0.00517084
0.0017626
3.82596e-07
7.85599e-07
-6.06544e-08
-0.000910362
-2.14339e-06
0.000812557
-0.00234897
4.0484e-07
-4.49868e-06
-1.3588e-06
-0.000244826
2.06914e-07
-3.09196e-09
4.96198e-06
0.000714478
3.06662e-07
0.00283847
3.43232e-05
4.73236e-06
-0.00208063
-8.29947e-05
-0.000352204
-9.79841e-07
1.5087e-07
8.92577e-08
1.10239e-06
2.62676e-06
0.00394463
-9.89515e-07
-0.00481887
-0.00545483
-6.8196e-08
2.19433e-07
-0.00220162
-0.00124295
6.91897e-06
-0.00718009
6.33529e-06
-1.49604e-06
-6.48052e-08
-0.0047428
9.47645e-08
-2.09989e-06
-7.04704e-07
6.82879e-08
2.96651e-08
3.39801e-07
-1.29681e-07
5.06656e-06
-1.58951e-06
-0.00320822
8.63347e-07
3.01564e-06
-2.94183e-06
0.000352052
-8.67772e-07
0.0035649
-5.23179e-07
0.000127463
5.18222e-09
3.21411e-07
1.62356e-07
-0.00475361
-0.00119178
6.28686e-05
-2.58995e-06
-0.0023647
-0.00266291
-0.000193548
1.99601e-07
4.46985e-06
2.04709e-07
0.000286607
-7.73591e-08
0.00955622
0.000223954
-6.42445e-06
-0.00347608
2.44027e-07
0.000882275
0.000425622
0.000737175
6.43859e-08
-1.72128e-06
-1.44725e-06
1.52637e-05
7.96133e-08
2.10237e-07
4.4424e-06
4.41194e-06
6.1729e-07
0.00441417
2.50716e-07
-3.58763e-07
-0.000784671
2.84447e-08
1.43149e-07
-0.0119409
1.42338e-07
1.14405e-06
1.65882e-07
8.00004e-07
3.61158e-07
1.6211e-07
1.55068e-07
-0.00737489
2.60373e-07
-9.97469e-07
1.86702e-07
3.73106e-06
0.00127568
3.86924e-07
7.23584e-08
3.90045e-07
3.69264e-07
0.00227884
1.09198e-07
-0.000544445
2.73843e-07
-5.07653e-08
0.000310926
-0.00319771
2.37519e-07
-2.7084e-06
-8.97273e-07
0.000260746
-0.00026405
-3.63991e-07
0.00183229
2.4543e-07
3.34653e-06
5.35543e-08
-0.00164413
8.22036e-09
-0.000719975
-6.65831e-06
1.39896e-08
-1.57473e-06
-0.00450244
-4.72348e-06
-0.000433107
-2.06433e-07
0.0016643
4.81504e-07
2.00829e-07
1.82764e-07
6.281e-08
-0.00152091
3.82175e-06
9.47934e-06
-0.00891505
-1.41514e-06
3.22382e-07
-0.00761807
-0.000327836
-9.84962e-07
-8.03861e-07
0.000177838
-0.000291466
-0.00584444
2.26062e-07
-0.00168891
-6.73309e-05
-0.00110777
-1.46896e-07
-7.83805e-06
0.00276825
0.0010256
5.3367e-06
0.000573463
0.010398
3.04769e-07
0.0102479
-0.0102334
8.20828e-09
0.00102317
4.26056e-06
-0.00267993
-7.5278e-08
3.38495e-07
-5.84044e-08
3.54105e-07
4.52856e-06
2.22055e-07
-0.0177325
0.00397864
2.0026e-07
-0.000494553
-0.00391693
-0.000476697
3.16625e-05
-1.11288e-06
1.04362e-07
2.90026e-07
8.80227e-05
-0.0074541
-2.17096e-07
5.79791e-06
-3.18885e-06
4.78892e-08
-1.55469e-05
-1.07935e-05
0.0022041
6.73965e-06
-0.00172998
-0.0110747
2.59604e-07
5.83102e-08
-0.00467381
-0.00545641
9.77918e-06
-8.13495e-07
1.61156e-06
7.59289e-08
2.65585e-07
0.0087591
4.40413e-08
-2.0087e-08
9.91072e-08
1.69274e-07
-0.00984512
4.54362e-06
7.99981e-07
4.76313e-08
0.00341509
0.000157336
1.50407e-07
3.99023e-09
-1.42623e-06
1.48091e-07
0.000431263
0.000268363
0.000295148
-0.00188612
0.000883913
-8.73964e-07
-0.00215621
-0.00313566
1.94376e-06
-1.41143e-06
1.04165e-07
-2.02552e-05
-2.84059e-06
-0.00780777
0.00261654
5.73606e-06
-1.62675e-06
2.3305e-07
-1.63949e-06
-4.2727e-07
-0.000651404
4.32712e-06
2.87912e-07
9.33247e-07
9.5234e-08
-9.43202e-07
6.35205e-05
3.11818e-08
1.8343e-07
-2.68285e-06
1.02569e-07
4.18531e-06
-0.00382245
7.66706e-06
-1.42616e-06
1.01381e-05
2.21208e-07
-1.67703e-05
1.11957e-06
-0.00204709
6.45462e-07
-1.06163e-07
-0.0131228
6.27531e-07
-0.00240299
-0.00456242
-0.00156222
-0.0067401
1.06631e-07
-0.0155541
-8.15268e-08
1.67241e-07
1.38988e-08
1.63519e-07
-9.55975e-06
9.52098e-07
5.37273e-07
4.87653e-08
-0.000714721
-3.77995e-06
-0.00100226
3.66044e-08
3.1249e-08
7.20757e-08
-0.0037301
-0.00399711
3.42218e-06
-1.00335e-06
2.53738e-07
-9.94076e-08
3.61042e-07
-1.30304e-07
-0.0125523
-0.0134079
1.19379e-07
5.25854e-08
5.62322e-08
-1.13438e-07
0.0100933
-0.000539567
-1.94702e-06
-0.00526953
0.00113565
1.73409e-07
7.15196e-06
0.000736569
-1.47746e-06
0.00300034
3.44885e-08
7.97721e-07
3.3025e-06
9.00866e-07
0.000402451
2.48664e-07
0.00113796
-6.41694e-08
3.22355e-07
-0.00377823
3.71833e-07
6.78634e-07
3.17776e-07
2.04722e-07
-8.42179e-07
0.0015655
0.0136478
4.13465e-06
-0.00811084
0.000374912
8.40731e-08
4.66492e-08
9.90068e-05
8.28776e-06
-1.99337e-06
-0.00475454
-1.2495e-08
7.44018e-08
8.46637e-11
0.000151829
-0.0141248
-4.39411e-08
6.02688e-07
0.00117079
-4.94805e-07
7.83543e-08
-0.00166476
-0.000677669
-0.00503065
-2.80805e-09
1.10592e-07
-0.00239188
-0.000142268
1.09821e-05
-1.56531e-07
-0.00920285
2.59064e-07
0.000258302
0.00111881
-6.29897e-06
-4.98139e-07
-0.00132804
-8.30319e-07
-2.66057e-06
-0.0030551
-9.13296e-08
-3.7881e-07
3.54018e-07
2.05746e-07
-0.0011835
-2.33165e-06
4.48988e-06
2.63672e-06
0.00131408
2.56199e-07
0.00166764
2.05274e-07
-1.14737e-06
-2.12018e-08
1.5302e-07
1.73773e-07
-0.0055949
-3.62122e-08
-1.40117e-08
0.00159012
4.08365e-08
-0.00294248
-1.54545e-07
8.66979e-08
4.7657e-06
0.0110962
0.00108567
2.42667e-07
-0.0128094
-0.0054387
1.10366e-07
-0.00596719
2.02537e-07
1.77798e-07
8.99566e-07
-0.000187612
-0.00820032
-5.55956e-07
2.14538e-07
4.69447e-08
0.000760744
-7.09656e-06
4.46194e-06
-8.89588e-08
-7.95448e-06
2.08624e-07
-2.41492e-07
5.69765e-06
-0.00153141
3.99793e-06
0.00459756
1.20621e-07
3.05489e-06
5.70019e-06
-0.00612517
6.93611e-08
-0.00415736
-0.00883999
3.32698e-08
-0.00101797
-1.58956e-05
-0.00363854
0.0145619
-0.00661141
0.000275019
-4.12576e-06
1.89891e-07
1.32194e-06
-0.000517668
-0.00073728
-1.37755e-07
5.71663e-08
4.3333e-06
-0.0014683
-3.42607e-08
-0.000393419
-5.99832e-09
3.23808e-07
-0.000983054
-0.00246315
0.000263351
1.79848e-07
2.90366e-07
-0.000207022
-0.0103871
7.64114e-06
-2.09689e-07
-0.00291148
0.00139747
-0.00384799
2.62385e-06
3.36132e-07
1.94717e-07
5.32043e-08
0.00687751
3.26526e-06
-0.00106972
5.71668e-06
-1.16074e-06
-0.00185884
-0.00339459
-0.00346156
1.8913e-07
-7.88399e-07
1.52879e-07
-1.71804e-06
6.77628e-07
0.00430729
6.97781e-08
-0.00264773
-3.14978e-08
4.66739e-06
2.27728e-07
0.00191229
-8.81968e-07
-7.94196e-07
-0.00552112
1.82245e-06
1.68478e-06
4.18594e-07
4.56808e-06
-0.00310395
-7.8757e-06
2.93805e-08
-0.00201242
-4.95748e-07
0.017896
0.0013514
2.54426e-07
-0.00490649
0.000435343
-0.00321763
0.000182555
4.63295e-06
-2.04262e-07
-0.00484236
4.89628e-08
0.0038827
-0.00325857
1.35781e-08
-1.01166e-07
-0.00512057
-0.000157398
-0.0142029
1.80324e-07
-7.07437e-08
-0.00377053
-0.00356416
6.07739e-06
-4.76861e-07
-6.12399e-07
0.00134551
-0.00138906
5.83004e-06
-1.49294e-08
-4.06702e-06
2.0506e-07
-3.69768e-07
-0.000949479
-1.00236e-07
0.00606387
0.000465845
3.42993e-07
-9.52125e-08
-2.28046e-07
3.06969e-07
-0.00168225
-0.00375168
-1.56585e-06
-0.00234019
2.46925e-07
-1.66743e-06
-1.5278e-07
1.98807e-07
4.71525e-07
3.5015e-07
-0.00247712
2.3737e-07
3.32639e-06
1.95283e-07
-6.66786e-07
-0.00105993
3.05614e-05
-9.77621e-08
-0.00390595
4.74335e-06
-0.00959663
-2.51827e-06
-2.5396e-06
-0.000949059
-8.90729e-07
-2.8256e-07
0.00327843
-0.00373937
-0.000966634
-3.33351e-06
-0.000124351
6.52196e-07
1.31435e-06
1.80655e-06
-0.0100337
3.54491e-07
0.015281
5.58027e-08
1.01138e-08
0.00461408
-8.89659e-07
-0.00841287
-6.23083e-07
1.76536e-07
-1.81054e-05
1.64249e-07
2.89252e-07
-7.76293e-08
3.71522e-08
-4.5989e-05
-1.14496e-08
-0.0110691
-0.00142006
-7.87885e-06
0.0107178
6.95767e-08
2.77919e-07
-4.15055e-05
3.57272e-07
1.88335e-07
5.44458e-06
2.29633e-08
4.29012e-07
6.65015e-07
2.31439e-07
-0.00319916
-0.0115766
-1.81097e-06
-0.00700682
-0.0109015
2.74168e-07
0.00116543
-1.6385e-06
1.87262e-09
-0.000814219
0.000930144
0.00313041
2.72054e-07
-0.0004523
-0.00103113
-0.00127049
8.88141e-08
-0.0083521
-2.09697e-06
-4.41373e-07
-1.88225e-07
2.62927e-08
0.0119153
-1.18607e-05
0.00138393
3.48105e-07
2.98111e-07
0.000414804
2.35096e-07
0.00871584
0.000739896
0.00943013
-0.00858509
-0.000518741
9.75571e-08
4.14932e-07
-5.3663e-06
5.62074e-06
-1.71146e-07
0.000604402
-3.41107e-06
1.03388e-08
-5.94205e-07
-0.0211869
4.4624e-07
-0.003403
-0.00870836
0.00342111
-0.00825423
5.77131e-08
-3.50498e-07
4.79577e-07
-0.00225663
0.00049819
8.05827e-08
1.33233e-07
3.02258e-07
5.15771e-06
-1.05113e-07
2.79671e-07
2.88338e-08
-1.75511e-06
-0.0139369
-6.67692e-07
6.86018e-07
1.69949e-07
3.49839e-06
-0.00770725
-1.95658e-08
-0.00219584
-0.00353522
5.47923e-06
-2.92143e-07
1.75292e-06
3.36677e-07
2.55497e-07
4.20199e-07
-0.00248245
7.54603e-06
-0.00221329
-1.66414e-07
0.000526743
3.20932e-07
-2.69962e-08
5.32303e-07
0.000471248
0.00244274
2.77974e-07
-1.74755e-06
-2.8216e-06
-0.00247158
3.97123e-07
0.00664177
-7.85916e-06
0.00476653
-9.4837e-06
-0.00632037
5.7451e-06
5.41767e-06
-0.00334658
-0.00405343
-0.000273285
-0.00132174
-2.75066e-08
0.00787802
-1.33418e-07
-3.61452e-08
-4.51267e-07
1.66952e-07
-0.00379921
-1.7236e-06
-1.23748e-06
0.000625973
-0.00237865
0.00260219
3.1738e-07
-3.35979e-07
-8.53067e-08
-5.94703e-07
1.37769e-06
0.00644872
0.000625703
0.00682179
2.13594e-07
-8.63948e-07
5.62681e-08
0.00102236
-0.00746792
-5.03598e-06
7.0503e-08
1.20929e-08
-0.00178704
-4.63888e-06
0.0120376
-0.00561468
-6.90055e-06
-2.65941e-07
-0.00936467
1.38236e-06
-2.43463e-06
-1.38999e-06
-0.0055743
-0.00163841
7.5663e-05
-5.36747e-06
6.6474e-07
5.08109e-06
2.95821e-07
-0.00100813
-1.44801e-06
-0.00365165
0.000663975
-4.44312e-07
6.35494e-06
-1.17857e-07
-0.00560831
-0.0123034
-1.79093e-07
0.00070763
-0.0040018
0.00126366
-0.0120908
4.46064e-07
4.3279e-07
-0.00200657
-0.00736607
-0.00169185
5.25876e-07
5.76217e-08
3.779e-07
-0.0032004
1.25605e-05
4.43498e-08
0.00289249
-7.01971e-06
0.00920322
-0.00921362
-0.000698216
2.11291e-07
-0.00947973
-5.65402e-07
4.17018e-08
3.88838e-06
-0.0040171
2.11024e-08
1.03699e-07
6.10749e-05
-0.00596927
-3.19549e-06
1.89083e-07
0.0156472
-1.64614e-07
0.000185282
2.26672e-07
0.000345483
4.36252e-07
3.30266e-06
0.00500445
-0.00758827
-8.36436e-08
-0.00138507
0.000433736
0.00210426
-0.00846115
0.00392927
-2.39603e-06
3.07741e-07
-0.00274435
3.83608e-07
2.99039e-07
-4.69665e-07
0.00293114
1.59585e-07
-0.000769284
8.51374e-08
-3.11394e-06
-0.00229536
-7.64749e-06
0.00693821
-7.496e-08
-0.000180614
1.91802e-07
-1.103e-06
-0.0124446
0.000230271
1.91239e-07
4.0082e-06
-0.00111206
5.44067e-07
6.88064e-10
-0.00441468
-1.56353e-06
-2.09447e-06
1.26488e-05
0.014121
0.00183233
-0.0133986
-0.0133539
5.66124e-07
1.38455e-06
0.000891301
0.00909996
3.86768e-06
1.81963e-08
1.05523e-05
2.97581e-07
2.88478e-07
-0.0322803
-0.00411678
5.91062e-07
0.0031418
-1.45974e-05
-0.00308067
0.000811855
-0.000709741
2.96859e-07
-1.70811e-05
-0.00116402
5.38136e-07
-1.15308e-07
-0.00584804
-0.00595884
0.0106595
-0.00603959
-6.2489e-07
-0.00269958
-0.00535301
-1.09979e-06
4.6837e-07
-5.94269e-08
-0.000504228
1.34182e-07
-0.0105128
5.35049e-07
4.74738e-09
5.94597e-07
-0.00797262
-0.0062725
-0.00149256
5.7144e-07
-0.00966459
9.25955e-08
1.38454e-08
2.41018e-07
-1.41604e-07
-0.000244148
-8.27618e-07
-0.00299702
0.0178014
0.00237935
7.26783e-06
2.71869e-07
-2.01725e-06
4.46815e-07
5.56619e-06
2.03276e-07
-8.75618e-08
5.07272e-07
2.24746e-07
-1.79638e-06
-1.96357e-08
-2.91594e-06
-3.70199e-08
-2.99022e-06
0.00112957
-0.00164386
-1.21564e-07
-1.10627e-07
-3.87083e-08
4.71401e-06
2.98174e-05
-0.00562169
0.0077093
-7.61627e-07
-3.23846e-07
1.67361e-07
4.88796e-07
2.78069e-07
0.00135867
2.88722e-07
4.2185e-07
3.00775e-07
-0.00676741
-1.13473e-06
1.27146e-06
6.64397e-06
-1.6857e-08
4.1114e-06
-0.00714381
-0.00789977
-1.68256e-06
2.74804e-07
-0.00063133
4.62995e-08
4.86723e-07
-0.00806886
-0.00283873
-1.68873e-07
8.4462e-08
3.94904e-05
-0.00992236
2.96282e-08
1.76419e-08
-0.00242149
-6.99617e-08
-0.00115104
-0.0130574
-0.00812224
4.49611e-07
4.0566e-05
3.31247e-07
-0.00412145
5.43578e-06
-3.98787e-06
8.41872e-06
-0.00146706
-6.67399e-08
-0.00757442
0.0124056
4.16836e-07
-0.00770609
5.53671e-06
3.44481e-07
-0.000180892
1.14217e-07
-1.93823e-07
6.97659e-09
-0.00138744
-4.65593e-06
2.38496e-06
-3.63448e-08
-2.09601e-08
-1.47502e-08
0.00125541
-0.00903902
-0.00615842
-0.000862342
5.42269e-11
6.55642e-06
-0.000308102
-0.00121379
-9.38986e-06
-0.000408752
1.39506e-07
6.79577e-06
3.80962e-08
0.000749177
1.40749e-07
3.25016e-07
-0.0278629
0.0099686
-2.43775e-06
-1.08718e-05
1.82613e-07
-6.93687e-08
-5.65919e-06
-2.79955e-06
0.00248615
3.66564e-06
-6.85315e-06
-6.75389e-06
2.86678e-05
0.00961161
2.71182e-05
-0.00583669
-1.3544e-07
3.68851e-07
-0.00270413
-0.00136601
-0.00106157
-0.00279299
5.09166e-07
-0.00334167
-0.00169607
4.29652e-07
-6.01376e-07
1.77076e-07
2.02006e-07
4.60682e-06
0.000385982
-0.000560454
-0.00441006
-1.27385e-07
-0.00373703
-0.00201169
2.34281e-07
2.11617e-05
0.00297967
-0.00104598
-3.78694e-07
5.0801e-06
9.87241e-08
5.40101e-07
5.67798e-07
-3.53587e-07
-0.00507577
-0.00410192
0.000108346
-0.00197506
-8.74757e-08
-1.11229e-06
-4.07225e-06
-1.36144e-07
3.78555e-07
6.21225e-08
-0.00777166
9.75827e-08
-0.00603592
-5.62093e-07
1.09638e-06
-0.00263932
1.46833e-05
-0.00272939
-0.00924935
-2.84517e-07
-6.14706e-08
-1.18931e-05
-0.00890073
-0.00881809
-6.40028e-07
1.7439e-07
-1.33852e-08
-5.13919e-06
-1.95306e-06
9.85085e-06
0.0118837
-6.14317e-08
8.7944e-09
6.76612e-06
-0.000363211
-0.00172138
-0.000712935
1.83715e-07
4.2301e-06
3.6793e-07
-0.00441835
-1.73375e-07
-0.00310007
7.35954e-07
-4.48999e-08
1.60288e-06
1.41507e-07
8.96011e-06
-1.51756e-06
-4.16548e-07
-0.00081666
-0.00626613
-7.73478e-07
-1.914e-06
3.05306e-07
-0.00902405
-0.00137509
4.58303e-07
-1.19484e-07
-0.00172615
1.68032e-08
-0.00125559
-1.02061e-07
4.55276e-07
-7.46495e-06
-0.000957562
5.64373e-07
7.91496e-07
5.22087e-08
4.82269e-06
-0.00581819
3.05876e-07
0.000461175
0.00216601
-0.000494354
0.0119321
-6.33283e-07
-0.00355647
-5.96622e-08
0.00887617
3.19122e-07
-0.000285969
-0.000952971
-0.00120734
-0.00154236
0.00956139
-2.6348e-08
-7.74006e-06
1.36449e-07
-0.00124342
-0.00133005
-0.00591774
-0.000690828
-7.72169e-07
0.0115908
0.00811502
-7.12669e-07
5.62443e-07
3.82808e-08
-0.00250321
-5.70976e-07
4.66905e-06
9.09632e-08
5.47846e-07
1.99329e-07
3.49529e-07
-0.00623325
-0.000389603
-1.90414e-06
-0.00181943
-0.00846489
-6.09041e-07
3.06026e-07
-1.15109e-07
-6.95202e-07
-0.00285488
7.37013e-05
-2.80282e-07
6.33093e-07
0.00130553
-6.94247e-06
-8.4912e-07
-0.00034557
-1.78981e-06
-0.00524161
9.76871e-09
7.63802e-07
3.12561e-07
1.6112e-07
3.77002e-06
-0.00201491
3.10636e-05
-0.00274189
-5.46255e-06
-0.00116571
-5.803e-07
-5.81453e-07
1.44739e-07
0.000119066
-0.0012412
-0.00017727
0.00111771
-3.34379e-07
2.90999e-07
1.47118e-07
2.8465e-07
8.12326e-08
-0.000708604
-1.66317e-06
-0.000820953
-1.26216e-06
-0.00433398
0.0115379
-0.00419239
1.37702e-06
-5.70286e-07
-0.00162668
-1.01056e-06
0.0243957
-0.00195827
2.0355e-07
-2.7236e-05
-1.23548e-06
0.000746943
-0.00267389
-1.41969e-06
0.00402787
-0.00011699
-2.39382e-07
-4.28953e-06
1.10349e-08
-0.00225525
0.00109815
-4.72905e-07
4.79664e-08
-0.000602078
0.017395
5.55374e-05
-0.00784157
8.71656e-06
-3.66378e-07
3.18633e-07
0.0108554
-0.00264262
-9.94173e-06
-8.97289e-07
-0.00686699
0.00387212
1.27396e-07
2.18174e-07
-5.5471e-07
-0.00609888
-0.0070228
2.83561e-07
-0.00234788
-5.94726e-09
-7.84051e-08
4.83465e-07
-0.0016989
0.00746929
-0.000772559
-0.000964632
5.67559e-07
-5.14363e-08
8.77622e-08
-0.00338464
5.29392e-07
-0.00141956
1.18063e-06
-0.000207549
8.86367e-09
2.90827e-07
6.98299e-05
-0.000550752
-0.00195458
-2.48088e-06
-0.00178299
1.6609e-07
1.85829e-07
2.03893e-07
-4.12791e-06
3.22903e-06
3.69836e-06
2.67908e-07
-0.00653807
-5.15434e-07
4.70242e-05
3.94875e-05
0.0103633
-1.1445e-07
-0.00289478
-0.00327446
-9.51524e-08
-0.000552566
4.44061e-06
-0.000945486
1.39677e-07
-8.81341e-06
5.09597e-07
0.0235291
-0.00131199
1.48579e-05
-0.00517817
6.58519e-07
2.95188e-06
5.29996e-07
-0.00281376
-2.06418e-07
1.7248e-07
0.00172638
-9.72382e-06
-0.00110874
-0.0116852
4.52056e-06
-1.67649e-06
7.29692e-09
0.00510347
1.75589e-06
8.38535e-07
1.2231e-05
-6.27223e-07
-5.01634e-07
3.16633e-07
-0.00162165
4.91281e-07
-0.000261352
0.000224573
2.00429e-06
-3.83803e-05
-5.97752e-06
-0.00440041
9.9897e-08
0.00023375
0.00339237
1.90802e-07
2.70781e-07
9.02805e-08
7.36414e-09
-3.63725e-06
1.27578e-07
7.37804e-05
5.29434e-06
0.00035055
2.47431e-05
3.70406e-07
5.74265e-08
-1.44023e-07
-0.00930698
1.8178e-07
3.14942e-07
-0.0105138
-2.22334e-07
0.00980187
-0.00539502
5.84363e-06
1.1797e-06
-2.62585e-06
-1.13109e-08
-4.4029e-09
9.79034e-05
4.11365e-08
-2.86611e-07
-3.66814e-05
-0.00336567
-0.00975569
3.1328e-08
-0.00107089
0.00111059
2.53928e-08
0.0011961
-0.00723267
2.72176e-07
-2.72662e-07
3.49921e-07
-0.0112452
-0.00196565
0.00333383
-1.1678e-07
-4.78024e-07
-4.06652e-07
4.04286e-08
1.09802e-05
5.23478e-07
-1.53897e-05
0.000110575
-0.00577293
2.11804e-07
-3.43846e-07
-1.21908e-07
-0.0022092
2.09637e-07
-0.00191041
1.36992e-05
-6.28112e-07
-0.00298638
-0.00222264
0.0117769
-7.62955e-07
0.00261848
-1.40599e-05
-5.67193e-08
3.12244e-09
1.08831e-07
-0.00534338
-0.000882653
-0.00110324
8.40034e-08
-0.00500411
1.82897e-07
-0.0047032
3.35732e-07
5.8424e-08
-5.19973e-08
2.04702e-07
-0.0019001
-3.84565e-08
-0.0231327
0.00291566
-0.00188954
-4.89951e-06
3.31982e-06
-0.00198042
-0.00603877
1.76347e-07
-0.000650722
-1.29695e-07
1.77139e-10
3.08308e-07
-0.000486757
3.01529e-07
-0.00099613
1.8177e-06
0.000301441
2.41516e-07
-6.65475e-05
-0.00167021
2.84292e-05
1.90458e-07
-4.44427e-06
-9.74751e-06
-0.00201461
-2.56524e-08
9.83014e-08
5.9443e-07
-0.0230273
-2.94418e-07
-0.00037254
-0.000925278
-1.2142e-06
-5.64685e-06
-1.97623e-07
0.000267688
2.94639e-08
-0.00289079
5.1477e-08
-0.000599425
-3.23497e-07
1.29838e-07
-0.00103184
-0.00179628
1.04964e-07
4.62459e-06
-4.06162e-07
-0.00109052
-0.000666342
0.000162779
0.000222796
5.81282e-08
-3.54553e-06
-0.00460556
5.69104e-07
-0.000518378
-4.0704e-07
5.39317e-06
-1.18273e-06
-3.33049e-05
-0.0044724
1.35006e-07
-0.00275709
-8.02684e-08
-2.82437e-06
-0.00760597
-0.000968098
3.04753e-07
-0.00416463
0.00639323
4.78506e-08
0.000147948
7.30703e-06
-9.87905e-07
-5.58863e-08
-0.00469511
9.46946e-08
0.00065827
9.11794e-05
9.01652e-05
3.33415e-07
8.76422e-07
-0.00352353
-2.52574e-06
-0.00392213
-6.06059e-09
-4.18581e-07
-1.13237e-05
-0.00592226
-1.79818e-07
-0.00562658
0.00459901
-0.00112067
5.16019e-07
-0.0060598
-0.00426079
-0.00160385
2.53667e-07
-1.00283e-05
-2.13327e-07
-0.00513975
-5.20797e-06
-5.43623e-05
0.000426592
8.83386e-08
1.87608e-07
2.66221e-07
-0.00189684
-0.0184295
0.000100477
-0.00172564
1.13451e-07
-0.00350573
-0.00644161
1.022e-05
-0.000970381
-0.00390091
3.1465e-07
0.000444159
-2.41022e-07
-1.9526e-07
-0.011827
-0.00792082
3.57835e-06
0.00247626
5.436e-07
2.19332e-07
0.00925241
-0.00421866
-0.00863285
-0.00130399
-1.62307e-06
6.30881e-08
5.35338e-07
-0.00628904
-0.00171492
3.15624e-07
2.94085e-06
-2.46313e-05
1.96338e-07
2.53482e-07
-0.00767552
0.00202029
6.70911e-08
2.24913e-07
-4.54073e-08
5.392e-07
-0.000354088
1.12018e-08
5.193e-07
-4.1662e-07
-8.01277e-05
0.000585409
0.00611084
-0.00344426
1.3335e-07
8.47801e-08
-0.00495195
-0.00619132
1.43823e-07
-9.17003e-06
3.4694e-07
-2.44255e-06
8.29942e-07
2.48485e-06
-7.8436e-06
4.78712e-07
0.000647372
-3.80384e-07
4.34933e-07
1.55672e-07
-0.00476279
0.00324054
-0.00335234
1.7688e-07
6.36033e-07
-0.00577538
-0.000127138
-4.11458e-07
-6.87252e-09
1.91108e-07
-2.34427e-05
2.69927e-07
4.82684e-07
-1.42762e-06
2.7608e-07
-0.00465083
-0.00189739
9.24545e-08
-4.5965e-07
-2.81416e-07
5.18726e-07
-0.0167711
0.000146477
4.12018e-06
-0.00119753
1.38106e-05
5.04253e-08
3.66964e-07
1.44629e-07
-1.80642e-07
6.22223e-08
3.11427e-07
-6.82677e-06
-0.00730732
-6.39324e-07
6.44181e-06
-0.00349877
0.000130877
2.51115e-07
1.67892e-07
-2.0444e-07
0.00877917
-1.69494e-07
0.00724825
-0.00739379
1.76146e-06
1.68063e-06
-0.0020362
-1.07634e-07
-1.12697e-05
5.89482e-08
-1.55139e-07
-2.32383e-07
9.42687e-08
1.81638e-05
-0.008375
-5.35352e-05
-3.61125e-06
0.0162787
6.64931e-05
0.00151922
-1.23369e-06
-0.00409124
-0.00124719
8.0325e-06
0.00480673
-0.00739882
7.93355e-06
0.000442134
1.56555e-08
2.80962e-07
-0.00580161
7.62915e-09
-5.00636e-07
0.0047523
0.000147782
-0.00462792
0.00391469
3.20671e-07
-2.15458e-05
2.73644e-07
-1.13438e-05
3.62794e-07
-4.15158e-06
-0.000408429
-0.0078646
-0.00711063
3.46435e-07
9.72062e-08
4.90523e-06
0.00746833
-0.00433832
0.000216028
-0.0139934
1.03274e-07
-0.0149491
-0.00149476
-0.00219398
4.68066e-07
3.24588e-07
1.99199e-07
6.60685e-07
3.31431e-07
7.22225e-08
-4.45318e-07
-0.00453934
4.82862e-06
-0.00325729
-4.30022e-05
-0.00286632
9.97806e-06
3.31423e-07
1.8398e-08
3.05028e-07
3.24345e-08
1.38678e-08
7.14496e-05
0.000559772
-0.0094999
-0.0048331
-1.43188e-07
-0.00169974
-0.00209297
-0.00555405
-0.00212555
5.2174e-07
2.27365e-07
1.35994e-05
4.23923e-07
9.94526e-08
-0.00205006
-0.00448829
-0.0127766
2.6996e-07
2.03312e-07
-3.18731e-07
-3.54322e-06
-0.0017883
-1.18536e-07
1.0782e-06
-0.00948792
1.16562e-07
-0.00149065
-3.44418e-06
0.00475859
4.83261e-08
-0.0056655
0.00750192
-1.04822e-06
-0.00640098
8.44566e-06
-0.00265535
-2.2067e-07
-2.26302e-07
1.55701e-07
-1.63887e-06
-0.00134716
1.90915e-07
-0.000228052
2.01879e-07
2.83035e-07
2.3468e-07
-0.00450984
-6.81292e-08
4.74935e-06
0.00257514
-9.11058e-09
-4.22659e-07
-0.000273028
-5.41828e-06
3.87892e-07
-7.5019e-07
4.86731e-07
-2.21209e-06
-1.70616e-08
4.37824e-07
-0.00413354
-0.00611944
-0.00492329
0.0161731
-0.00857526
-0.00140184
4.65207e-06
-0.00499391
-0.000171559
-2.15105e-07
-9.2093e-08
1.06118e-08
5.21816e-07
-0.00619317
-0.00613334
-5.4616e-08
-0.00010134
-0.00341971
-2.99667e-07
-5.73436e-07
2.28277e-07
-0.00423263
-0.0078843
-0.00424824
0.000212785
-0.00416881
1.22112e-08
-0.00874931
5.21883e-06
-0.000339671
-0.0120172
2.77545e-07
9.24546e-06
-0.000764639
-9.94606e-07
0.00724103
5.6584e-07
-7.66546e-07
-0.00109391
-0.00298801
4.78328e-06
-2.2322e-06
-0.00244261
7.6725e-06
-0.00245632
-0.0040216
-0.00479918
8.33306e-06
-0.00648005
2.144e-07
-2.37769e-07
8.82677e-07
-0.00231613
-0.000248872
-0.00234906
4.97696e-07
8.38864e-05
-3.66954e-06
4.24754e-07
-0.00715242
2.78763e-07
9.32899e-06
-0.00300353
2.77979e-07
0.00853109
0.00712145
-0.0032411
-0.00529253
-0.00355081
6.48854e-05
-1.06076e-07
-0.00613593
3.9557e-07
-7.13596e-08
-2.16941e-06
-4.85204e-07
-0.00276244
-4.91726e-07
6.16193e-07
-5.01251e-07
1.59696e-07
-0.00118764
2.48059e-08
8.11654e-06
0.000506326
2.03586e-07
-0.00131351
5.21006e-06
-4.19565e-07
5.85904e-05
-0.0111533
3.55119e-07
2.08957e-05
3.01702e-08
-0.00359308
-0.000163256
-1.57169e-07
6.13305e-06
-2.42829e-08
-0.00610543
-0.00382651
4.63237e-06
-0.00742869
1.49937e-06
1.76102e-07
0.0068712
-2.70123e-07
-2.70133e-07
-0.0117524
2.32774e-06
1.21642e-07
4.34699e-07
-0.000283244
1.35859e-07
-0.00321833
-0.00901121
6.34173e-05
-0.00105502
3.38119e-06
-6.22798e-06
-1.37572e-07
-0.00601331
-0.00144431
-0.000769497
2.4124e-07
1.55807e-07
3.70514e-06
-1.37262e-06
-0.000566581
-2.513e-07
0.00155322
-1.19139e-09
-0.00010088
5.29639e-07
0.000742878
0.0044994
7.83679e-06
-0.00165111
0.0127451
-0.00750318
-0.00392886
-3.34272e-09
-0.013833
-0.0140373
-0.00206173
-7.34275e-08
-0.00354145
-0.00186935
-0.00146898
7.19696e-06
-0.0081327
-0.00169282
-0.00607317
2.85083e-06
-0.0101204
1.97657e-07
8.21103e-07
2.46103e-06
3.03543e-07
4.79267e-06
-0.00124006
-2.80282e-05
-0.00181194
-0.00869299
3.18327e-07
1.64289e-07
-5.40699e-07
2.92103e-07
-0.0114506
-8.81755e-08
3.27422e-07
-0.00590988
-0.000136639
3.70468e-07
6.0968e-06
5.10674e-07
-1.02345e-05
-0.00123355
-0.00310812
-0.00131517
-1.66627e-07
-0.00345445
5.24342e-07
-7.64683e-09
-1.31546e-07
-0.00377442
9.86267e-05
-0.0085569
-0.000766721
-6.86488e-08
3.91038e-07
2.96742e-07
1.20518e-08
-7.33255e-07
-2.48525e-05
-0.0136852
-1.70546e-06
-0.00692822
-0.00320897
-4.47445e-05
-0.000638403
2.00367e-07
-1.83212e-06
1.19747e-05
2.14035e-07
0.000143196
-1.22265e-06
-4.82144e-07
-0.00329185
-0.00294636
-1.39865e-07
2.14984e-06
-1.92228e-06
-8.23713e-06
-0.00150995
0.00727793
-0.00572063
-4.2728e-07
5.51842e-06
-0.00484234
5.5431e-06
8.05746e-06
-2.46634e-06
-0.0046568
-0.00826182
-0.00471093
-1.44557e-08
-0.00696549
2.15014e-07
1.1046e-06
3.04216e-07
-4.7538e-06
-0.00772515
-0.00190448
0.00128999
-0.000901574
-4.69112e-06
1.2941e-07
1.68006e-07
2.30269e-07
-1.19071e-07
-1.25336e-06
-0.00579801
-0.00382441
5.0745e-06
-0.0025587
5.48104e-07
-5.41255e-06
2.10521e-07
-0.00305695
9.16587e-06
-3.90465e-07
0.00452879
6.19772e-06
0.00819466
-0.0021209
-0.000345577
0.000112531
-4.66897e-07
-0.000513831
-0.0117777
-0.0102937
-0.00153972
4.6267e-07
-5.77511e-06
2.06584e-07
-0.00794524
-0.00111139
-3.5919e-06
0.0020833
-0.010325
0.00223874
-6.31039e-06
0.0043622
-9.6883e-07
1.83073e-07
7.1235e-06
-6.69766e-06
-5.2092e-07
-6.09398e-06
-2.16272e-06
-2.46894e-06
-0.00018706
-3.57762e-07
3.62716e-07
-1.53641e-06
-2.3826e-06
-6.79789e-07
-4.76983e-07
0.00565278
3.07499e-05
0.000425165
-0.00231966
2.55197e-07
-0.00256692
2.16541e-07
1.06767e-06
7.71103e-08
-0.00290174
-1.54825e-06
-0.0019385
-0.000610536
-6.2365e-06
5.93935e-06
8.29551e-06
-0.00175591
8.72105e-06