/*--------------------------------*- C++ -*----------------------------------*\
| =========                 |                                                 |
| \\      /  F ield         | OpenFOAM: The Open Source CFD Toolbox           |
|  \\    /   O peration     | Version:  v2012                                 |
|   \\  /    A nd           | Website:  www.openfoam.com                      |
|    \\/     M anipulation  |                                                 |
\*---------------------------------------------------------------------------*/
FoamFile
{
    version     2.0;
    format      ascii;
    class       volVectorField;
    location    "750";
    object      ddt0(U);
}
// * * * * * * * * * * * * * * * * * * * * * * * * * * * * * * * * * * * * * //

dimensions      [0 1 -2 0 0 0 0];


internalField   nonuniform List<vector> 
13917
(
(0.00170521 0.00369958 2.39475e-17)
(0.010744 0.00086615 -6.78221e-19)
(-0.00384206 0.00753676 7.67694e-18)
(0.000128379 -0.000111267 6.22489e-18)
(0.00363174 -0.00522231 -9.04829e-21)
(0.0100893 0.00220605 1.71313e-19)
(0.000445925 -0.000246807 5.72877e-18)
(0.0232146 -0.0248778 -2.24447e-19)
(0.000143155 -0.000477651 2.39769e-18)
(-0.00498548 -6.42845e-05 -3.98189e-18)
(0.0213222 -0.022039 -6.8411e-20)
(0.000136093 -5.48701e-05 -5.64652e-18)
(0.000151525 -1.26927e-06 2.0565e-18)
(-0.120022 -0.118289 -1.92745e-18)
(0.00121184 0.00340326 -6.59082e-20)
(0.00185721 0.00239396 -3.09391e-17)
(4.54785e-05 2.69422e-06 -3.84124e-20)
(0.0129773 -0.0204154 5.33309e-20)
(-0.00323417 -0.00119071 -2.99972e-18)
(0.0163276 0.0188837 -2.57876e-17)
(-0.00289272 -0.00226686 7.98302e-19)
(0.000117554 -9.22354e-05 6.02486e-20)
(0.00084761 -0.00116113 -1.71446e-18)
(0.000137118 -9.87177e-05 -2.12781e-20)
(7.4937e-05 -1.1507e-05 3.96424e-19)
(-0.00293796 -0.00422164 -2.88886e-19)
(0.081484 0.0685279 -3.79586e-18)
(-0.00501799 -0.00226798 6.29423e-18)
(0.000392984 -0.0123562 -4.41435e-20)
(-7.65113e-05 -0.000117795 -5.14263e-20)
(0.00304771 -0.00546372 1.34123e-19)
(0.000249172 -0.000749011 2.93928e-18)
(0.000121743 -5.94223e-05 -2.03261e-18)
(-0.00363891 0.00507088 -3.88564e-18)
(0.000290794 0.000166048 -1.17958e-20)
(0.0317572 -0.02483 -3.36272e-20)
(0.00035855 -0.000585323 1.57873e-18)
(0.000148842 4.30634e-07 9.75063e-20)
(0.000447135 -0.000280817 -2.88181e-18)
(-0.00211381 0.00302288 3.32734e-19)
(1.11949e-05 5.67573e-07 -3.52159e-19)
(-9.81969e-05 0.000855636 6.49856e-19)
(0.00010531 -0.000380995 -1.41751e-17)
(-0.00136244 0.000694836 9.49353e-18)
(-0.0015461 0.000404914 7.02792e-19)
(0.0118799 -0.0174517 7.94563e-19)
(-0.00236675 -0.00192359 -1.81943e-18)
(-0.0410225 0.064084 -4.39102e-18)
(0.072153 0.0490244 2.53402e-18)
(0.000319224 0.000111563 4.23554e-20)
(0.000139432 -5.34141e-05 5.08823e-18)
(0.00529497 -0.00906523 -3.94235e-18)
(-0.0121853 0.000241371 -2.73453e-19)
(0.000193308 -5.62135e-05 1.52557e-18)
(0.000198877 -7.80073e-05 -1.32385e-18)
(0.00425958 -0.00895439 4.08799e-18)
(0.00047177 0.00069414 -4.27001e-18)
(0.000922031 -0.00112524 9.75839e-19)
(-0.000218878 0.000675157 -3.44773e-19)
(0.0144632 -0.0181189 1.33028e-18)
(-0.0378504 -0.101102 -2.29038e-18)
(0.00432002 0.00706102 1.37063e-19)
(-1.81997e-05 -1.69884e-08 -9.10219e-23)
(8.44833e-05 -2.31768e-05 1.19205e-18)
(-0.00131768 0.00902756 1.27273e-17)
(-0.0133839 -0.0091113 -8.68547e-20)
(0.00306949 -0.0151641 -2.30835e-20)
(0.0330595 -0.0200873 5.19054e-20)
(0.015208 -0.0241838 7.08596e-20)
(-0.00730503 0.00140224 -5.13744e-18)
(0.000342094 0.00938523 2.09376e-18)
(-0.0036238 0.00446234 -3.32921e-18)
(8.38189e-05 -0.000141435 -2.76342e-18)
(-0.000123415 0.000507943 7.93694e-21)
(-0.00344656 -0.00196787 -5.9054e-19)
(-4.23345e-05 -0.000103318 -2.14615e-18)
(0.000433357 -0.00202826 7.73301e-20)
(-0.000181236 0.000394266 9.63561e-20)
(-1.34678e-05 -0.000105902 -2.20802e-18)
(0.000117913 -5.81724e-05 2.99715e-18)
(0.000177865 0.000187697 -8.3201e-19)
(6.28885e-05 1.38672e-06 7.72017e-20)
(8.34043e-05 -0.000139125 -2.42914e-18)
(-0.000291292 0.0137327 3.71813e-18)
(0.000159579 -1.29322e-05 3.22214e-18)
(-0.0197998 -0.0529734 -2.59336e-20)
(0.000259024 -0.000801008 2.71877e-18)
(0.000165509 -5.57447e-06 2.27336e-19)
(-0.00237987 0.0025669 4.26475e-19)
(4.48164e-05 3.46618e-06 5.85234e-20)
(3.66977e-05 5.27462e-06 1.4414e-21)
(0.000100253 -0.000394136 1.56182e-17)
(0.0735886 0.0638238 -2.11158e-18)
(3.84081e-05 0.000109312 -1.89001e-19)
(0.000308806 -6.89962e-05 -4.10117e-19)
(0.000270166 -0.0146303 1.75952e-19)
(0.0232155 0.0561178 2.38366e-18)
(9.3564e-05 2.52893e-06 -5.1095e-21)
(0.00016072 -6.77051e-06 -1.57874e-18)
(-0.0170465 0.03289 -7.25534e-19)
(-2.64675e-06 4.30004e-07 -8.09866e-20)
(-5.93136e-06 1.45117e-06 8.95559e-20)
(0.00021416 0.000197782 2.69568e-19)
(0.000105094 2.36981e-06 -7.01267e-21)
(0.000741819 -0.00181232 5.38007e-20)
(-0.00916536 -0.00468775 -1.45875e-17)
(-0.0142599 0.03099 7.69448e-19)
(0.0028359 0.00866694 -1.12164e-19)
(-0.000215831 0.00114456 1.43514e-19)
(0.0878796 0.0690214 -2.55761e-19)
(0.000118155 -1.44669e-05 1.52964e-18)
(-0.00292487 0.00581676 4.82199e-18)
(-0.00191257 -0.0115407 -3.27204e-20)
(-0.071666 0.0706982 -5.0332e-18)
(-0.000954794 0.00931369 -1.37766e-17)
(-0.000128599 -0.00018993 3.92608e-18)
(-0.00273269 -0.00123146 -3.9716e-18)
(1.93075e-05 4.64374e-06 1.84737e-20)
(-0.00422415 0.00454326 8.82233e-19)
(5.84948e-05 -0.000130752 -9.88494e-19)
(6.47084e-05 1.75529e-06 6.01465e-22)
(3.45665e-05 0.000238267 -2.30616e-19)
(0.0035528 -0.0178615 2.30335e-19)
(-0.000484155 -0.00467693 -1.63743e-18)
(-0.013441 0.000664291 -1.13762e-18)
(-0.000400895 0.0132912 -4.27854e-18)
(0.000103003 -3.265e-05 -6.04537e-18)
(-0.00411846 -0.00222173 5.16506e-19)
(7.86217e-05 2.7902e-05 5.38742e-21)
(-0.000905472 -0.00464302 2.67333e-18)
(0.000374643 -0.000727 -5.5285e-19)
(0.0313791 0.00393752 -1.08875e-18)
(-0.0115631 -0.000577101 6.09e-19)
(-0.000117032 -0.000238603 -2.04464e-18)
(6.30134e-05 -0.00040733 -6.80171e-18)
(0.0812474 0.0779616 1.88218e-19)
(-0.00314042 -0.0755494 -1.51556e-17)
(-0.0142369 -0.000578357 -5.72399e-18)
(-0.00299464 -0.00579917 1.61294e-19)
(0.000123435 5.18251e-08 -6.70263e-19)
(-0.0609837 -0.0797374 5.49787e-19)
(-9.72613e-05 0.000306207 -1.76535e-21)
(-0.00867495 -0.00569951 1.38342e-17)
(0.000137475 9.80627e-06 -2.26595e-19)
(9.24272e-05 -0.000119242 1.42007e-18)
(-0.00282103 0.00301987 2.16534e-19)
(0.000576205 0.00999848 3.18334e-18)
(-0.0109329 0.00967455 1.15102e-18)
(-0.0110302 0.0579301 9.38934e-18)
(0.000198972 -6.30299e-05 -8.62625e-20)
(-0.00212113 0.0017399 1.07515e-18)
(-1.26547e-05 1.18038e-06 -2.81255e-20)
(9.13964e-05 -0.000117971 -8.87959e-19)
(5.54025e-05 -0.000130142 -1.46846e-18)
(0.0413883 0.061986 2.26402e-18)
(0.000685694 -5.4798e-05 1.76406e-19)
(0.000104363 3.87674e-06 -2.4083e-20)
(-0.0112921 -0.00236393 2.65744e-19)
(1.27591e-05 1.8175e-06 -2.43854e-19)
(1.68634e-05 3.56825e-06 -3.21288e-20)
(0.000149625 2.93489e-06 -8.92393e-20)
(-0.0247838 0.000401393 -8.47739e-18)
(0.00139738 -0.000957035 1.09774e-18)
(-0.0393152 -0.0968858 -5.87762e-19)
(-0.0611886 -0.0244242 5.85068e-18)
(-0.0226693 0.0449656 1.3048e-18)
(-0.00801369 6.92418e-05 -3.89078e-18)
(-0.0942855 -0.0120029 3.69921e-18)
(-3.08944e-05 1.34207e-05 5.57133e-21)
(-0.00360574 -0.00674825 3.67244e-20)
(0.00017011 -0.000157924 -1.96539e-20)
(-0.0116905 0.00504682 -1.2411e-17)
(0.000125356 -0.000473554 -2.92455e-18)
(0.00621375 -0.0709488 -8.16675e-18)
(0.00634652 -0.00120323 -1.373e-18)
(6.06116e-07 -5.36725e-07 3.42054e-20)
(0.000130105 -0.00011929 6.90043e-19)
(0.00667215 -0.0106777 3.34069e-18)
(0.000358372 -0.000708877 5.64812e-18)
(0.0015986 -0.0011447 -2.89165e-19)
(0.000127754 -0.000363059 -2.00088e-18)
(0.000176283 -0.00013582 1.97058e-20)
(0.000142731 -5.63969e-05 -1.59572e-18)
(-0.00176385 -0.0143456 3.50458e-18)
(-0.00525848 0.00448024 -3.12664e-18)
(0.034009 0.00777165 -2.64082e-19)
(0.000141021 -5.55871e-05 2.43559e-18)
(-0.000621571 -0.0149388 4.4893e-18)
(-0.00011188 -9.97284e-05 3.26069e-20)
(-0.015107 -0.0457367 1.43178e-19)
(0.00694856 -0.000562068 3.66464e-19)
(-0.00126622 5.26179e-05 -8.61116e-19)
(-0.00149671 -0.0102519 -3.00205e-18)
(0.00470972 0.00560941 4.17623e-19)
(6.42173e-05 0.000113181 -9.32717e-20)
(-0.0127481 0.000845831 -4.6465e-18)
(0.000105401 0.000293421 1.04595e-18)
(-0.0106177 -0.00105729 3.48411e-19)
(0.000236826 0.000158906 -5.84451e-20)
(0.000556161 -6.44682e-05 1.34344e-19)
(-0.00161576 -0.00133342 1.25208e-18)
(-0.00587932 0.00152881 -1.14692e-18)
(-0.0143761 -0.000392224 6.18591e-18)
(0.000623866 -0.000335612 3.24638e-19)
(0.0663751 0.0606953 -2.28591e-18)
(0.00336711 -0.00554089 3.24507e-22)
(-0.00197885 0.00209898 -8.90454e-19)
(5.38992e-06 0.00032117 1.81085e-19)
(0.00551398 -0.0102352 -9.30364e-18)
(0.000136345 0.000212312 -5.04932e-19)
(0.000110927 2.54307e-05 7.82844e-20)
(0.00947287 -0.00844845 7.66051e-19)
(0.0108693 -0.0100787 -1.14673e-20)
(-0.0200416 0.0530378 -1.75264e-19)
(0.0001435 -0.000499905 1.2797e-18)
(-0.00360145 -0.00478225 9.34418e-21)
(-0.00878916 0.0118296 -6.05062e-18)
(0.00015686 1.70279e-06 -6.65279e-19)
(4.66186e-05 2.76165e-05 2.15361e-20)
(4.56871e-05 2.52364e-05 1.00586e-19)
(-0.0941533 0.00565798 -1.69462e-17)
(-0.00121225 -0.0124215 -8.64323e-18)
(0.000539077 -0.0179682 -2.6053e-18)
(0.000132767 -2.05581e-05 1.24595e-18)
(-1.30898e-05 8.43156e-08 1.83334e-21)
(0.0741091 0.0863296 -1.99543e-18)
(-0.0122434 0.000650797 1.04264e-19)
(4.36754e-05 2.67064e-05 -7.57879e-20)
(4.13443e-05 2.51152e-05 -6.93961e-20)
(1.17989e-05 9.84163e-07 -3.76943e-20)
(4.99129e-05 2.56526e-05 -1.82228e-19)
(4.82503e-05 2.42989e-05 -1.61786e-19)
(-0.00309502 0.00410971 6.19534e-18)
(-0.0241159 0.0342458 -4.24792e-18)
(2.39526e-05 6.77939e-05 -3.54319e-19)
(-2.35423e-05 1.76135e-05 -8.42285e-21)
(0.00339884 -0.00383524 2.15473e-19)
(-0.00679558 0.00297496 5.4998e-18)
(2.54004e-05 1.29318e-06 6.50711e-21)
(0.000138546 -1.79446e-05 -8.58776e-19)
(0.0793853 0.0615258 2.33764e-18)
(-0.00848875 -0.00803932 2.0785e-18)
(-0.00156724 -0.0131943 5.81336e-18)
(-0.00738837 0.0129753 9.0371e-18)
(0.0104983 -0.0039131 -4.83124e-18)
(0.000137411 1.31986e-05 -3.29276e-19)
(-0.086309 -0.017675 -1.68383e-17)
(0.00305403 -0.00428374 6.54203e-19)
(-0.00169789 -0.00995994 1.75761e-19)
(-0.000580782 -0.00174614 3.44888e-18)
(0.000550979 -0.000296441 -7.46779e-19)
(-0.0145226 0.0407411 1.40626e-17)
(6.47994e-05 -0.000136207 2.4732e-20)
(0.00182 0.00244987 -1.9152e-19)
(0.00538648 -0.000713918 -3.90215e-19)
(-2.14492e-05 4.19023e-05 3.39721e-19)
(1.24185e-05 -1.75774e-07 4.20214e-19)
(9.61112e-05 -2.25757e-05 3.40529e-18)
(0.00474514 0.000177508 5.71382e-19)
(-0.000232244 0.000188545 4.3386e-19)
(-0.0132664 0.00122815 -2.23908e-18)
(-0.0415843 -0.104606 1.121e-18)
(0.000258841 0.000106287 1.05611e-19)
(4.26702e-05 2.7288e-05 1.23922e-19)
(0.000761324 -0.000152393 -2.50293e-19)
(4.35408e-05 3.06397e-05 6.25995e-20)
(6.01726e-05 -0.000136535 2.78948e-18)
(0.000167875 -2.23658e-06 -1.01537e-18)
(0.00141351 -0.000139627 -5.83638e-19)
(0.000321005 0.000142752 -1.42038e-19)
(-0.0129959 -0.00115011 7.31368e-19)
(-0.0179309 0.0284042 1.03329e-20)
(0.000144074 -5.41059e-05 1.53506e-18)
(0.00271939 -0.000780968 -7.31415e-20)
(0.0149438 -0.0213916 5.1256e-19)
(3.86696e-06 3.10165e-05 -1.12973e-19)
(-0.01531 0.0238551 -3.40033e-18)
(-0.0133787 0.00160433 -3.70821e-18)
(4.06802e-06 3.05673e-05 1.23997e-19)
(-0.00744624 0.00190323 -6.37077e-18)
(-0.000190428 0.000117262 -1.82348e-19)
(-0.0259061 -0.00269213 -2.78376e-18)
(2.79484e-06 -3.96419e-07 -1.14988e-19)
(0.000270068 0.00236748 -6.17524e-20)
(-5.69806e-05 4.48339e-05 3.22982e-20)
(0.00014051 -6.85349e-06 -5.17932e-19)
(-0.00639117 -0.00458549 -9.65746e-19)
(0.00013293 3.19953e-06 2.92231e-19)
(-0.0281061 0.0535277 -9.3655e-19)
(-0.000142646 0.000728372 3.11385e-18)
(-0.0369739 -0.11646 -2.71664e-18)
(-0.00266616 0.00422511 7.64083e-20)
(0.0365213 0.0520662 5.9475e-18)
(-0.0133163 -0.000814246 1.08502e-18)
(2.50665e-05 2.11983e-06 3.50367e-19)
(0.00156421 -0.00161536 7.29008e-18)
(0.00480535 -0.00185867 -6.43437e-19)
(-0.000166583 -0.000336385 2.34662e-18)
(0.0040493 -0.00406577 4.25062e-19)
(-2.88151e-06 -6.87817e-05 -3.7772e-19)
(-2.3354e-05 0.000122186 -6.77286e-22)
(0.000131824 4.25327e-06 -2.71864e-19)
(0.00902042 -0.0101538 -2.82221e-18)
(-0.0224613 -0.00729022 3.04028e-19)
(0.00154702 0.00232828 -1.68852e-18)
(2.14476e-05 -7.27101e-05 -3.66072e-18)
(0.000140137 -1.36976e-05 1.38227e-18)
(-0.0111074 -0.00207122 -4.3139e-18)
(-0.00521173 0.00110556 1.05156e-18)
(0.000107207 4.09618e-06 -5.87119e-21)
(-0.00509639 0.000720086 5.19313e-19)
(-0.000179307 -0.000272688 -3.05708e-19)
(0.0693766 0.00106984 1.12633e-19)
(0.00205845 0.000954177 5.2675e-18)
(-0.00857968 0.0238431 1.55684e-18)
(0.00846258 -0.0630017 2.66853e-17)
(-0.00780725 -0.0151422 2.45936e-20)
(0.0269395 0.00435166 5.10061e-19)
(0.00247296 -0.000290664 1.96241e-19)
(-3.47641e-05 0.0138845 -3.44499e-18)
(0.0756882 -0.0103909 -4.81064e-19)
(-0.00283134 0.00740418 6.67747e-18)
(0.00016368 -1.83086e-06 -8.6476e-19)
(0.000675094 0.00323658 3.78633e-21)
(0.070088 0.0675217 -2.005e-18)
(0.000315099 -0.000260643 1.52122e-20)
(0.012484 0.000402943 2.8144e-19)
(-0.00135498 -0.000213215 2.24031e-18)
(3.5663e-05 1.69528e-06 2.4492e-20)
(-0.0112861 0.00579781 3.7296e-18)
(0.000169774 -9.23861e-06 -1.40695e-18)
(0.000280997 -0.000948635 -1.29638e-18)
(0.000155167 4.81239e-06 4.1782e-20)
(0.0327335 0.0178373 -1.02219e-18)
(0.000126061 1.99896e-05 1.24564e-19)
(0.00138815 0.00183711 -3.41528e-18)
(0.0027739 -0.00636541 -1.8094e-21)
(-0.00367992 -0.0138456 -1.42693e-20)
(3.64057e-05 2.98274e-06 -6.30044e-20)
(-0.000559279 -0.00134273 1.77083e-18)
(-0.00786436 0.00114308 1.19387e-17)
(0.000272464 -9.10264e-05 -1.07516e-18)
(0.000378613 -0.000234082 -6.16295e-21)
(-0.00307923 0.00658294 -2.25048e-18)
(-0.00858986 -0.00202243 1.11722e-17)
(-0.0206063 -0.0319974 2.00642e-18)
(-0.118371 -0.127673 -7.4528e-19)
(1.11239e-05 2.83474e-05 3.63e-19)
(8.39335e-05 9.6819e-05 2.50347e-19)
(-0.00836303 -0.00954088 -8.85731e-18)
(0.0255067 0.00164954 3.52952e-18)
(1.30333e-05 2.66273e-05 -3.2117e-19)
(0.00518141 -0.00305463 3.2259e-19)
(0.0001637 -7.77604e-05 -6.9224e-19)
(-0.0122257 -0.00163113 4.90786e-19)
(0.00159515 0.00192429 -1.43631e-18)
(-0.000283077 -0.0076597 1.42972e-18)
(0.0134195 0.00342746 -2.79028e-18)
(-0.018014 0.0215756 -1.2456e-18)
(0.000338045 -0.000908901 1.55182e-18)
(0.000651424 0.00696097 -4.73202e-19)
(7.14081e-05 3.12422e-05 -3.74186e-21)
(0.000262994 -0.000106122 1.05527e-18)
(0.00438071 -0.00626015 1.09281e-18)
(-0.00864331 -0.0012842 1.19488e-17)
(2.84162e-05 6.20085e-07 -6.43347e-20)
(0.00459042 0.00381848 -3.76636e-18)
(0.000321248 -0.000906926 -1.1212e-18)
(0.011424 0.00366482 1.44693e-19)
(0.000213337 -7.9561e-05 6.02148e-19)
(0.0201724 0.00224655 2.56984e-18)
(-0.00424562 0.00216875 2.29829e-19)
(0.0680665 0.0681575 -1.46502e-18)
(-0.000788844 0.000342934 -2.35836e-19)
(-0.000782689 -0.0171139 3.30132e-18)
(0.0134974 -0.0209283 -6.54972e-18)
(0.0031195 -0.00762793 -2.53784e-22)
(0.000147655 -5.64861e-05 -1.33703e-18)
(-0.00561794 -0.000495561 -6.21161e-18)
(0.000317094 9.44309e-05 9.40885e-20)
(-0.0675171 -0.0366924 2.30856e-18)
(-0.00217933 -0.0110739 5.95074e-18)
(-0.000901366 0.000115672 -2.85077e-19)
(0.0579074 0.0700883 2.82672e-18)
(-0.000219314 -4.1505e-05 7.48762e-20)
(0.0212143 0.0274172 -7.38736e-20)
(8.27801e-05 3.85763e-05 -2.43071e-21)
(0.0122371 0.0222386 2.8535e-17)
(0.020992 0.030938 -5.49535e-19)
(0.000168872 -0.000408786 -5.23212e-19)
(0.0775191 0.0821941 5.4501e-18)
(-0.0172625 0.0144567 1.37163e-18)
(0.000487364 -0.000199061 9.45067e-19)
(-0.0397352 -0.0263057 -2.74107e-18)
(0.00359311 -0.00467783 -3.8813e-18)
(0.000145182 -0.000289883 6.98692e-19)
(-0.00661027 -0.00555487 3.87688e-18)
(0.000136229 6.84077e-05 -1.86396e-19)
(-0.0211213 0.0136387 -2.42672e-18)
(-0.00456251 0.00656785 -3.54426e-18)
(0.000163507 -8.57795e-06 2.29721e-18)
(0.000324829 -0.000395771 5.79303e-18)
(3.09716e-05 -4.96787e-05 -1.27838e-19)
(0.0001372 3.34922e-07 1.37085e-19)
(0.000140244 -6.79759e-06 -3.91689e-19)
(6.05842e-05 5.11018e-05 7.78132e-21)
(-0.0283571 -0.089236 1.77532e-18)
(-0.0127839 0.0434065 -1.73052e-18)
(0.000228525 -9.1588e-05 1.28457e-18)
(3.4519e-05 2.92763e-05 -2.68811e-20)
(0.00014523 -5.68067e-05 3.72953e-19)
(0.00240722 -0.00110367 4.18887e-18)
(0.0455258 -0.00276454 1.0478e-19)
(2.21399e-05 7.23921e-06 1.2498e-19)
(-2.93005e-05 1.10443e-05 2.86869e-21)
(0.00173082 0.00098035 -8.80715e-18)
(0.0196336 0.00441855 1.57579e-18)
(0.000143555 -5.20177e-06 -8.25846e-20)
(0.000180753 -0.00037312 3.31701e-18)
(0.00780061 -0.0443479 -1.52974e-17)
(-0.00612541 0.0851989 -4.51514e-18)
(-0.0159258 -0.011338 -2.05662e-20)
(-0.00348227 -0.000708468 1.10189e-17)
(-0.00101266 0.0145134 6.35828e-18)
(0.000200249 8.88787e-05 -1.79525e-19)
(1.0348e-05 2.00636e-05 2.24941e-19)
(-0.00122238 -0.00261537 -3.90529e-19)
(0.000142726 -6.66234e-06 -1.70933e-19)
(1.20343e-05 6.5113e-06 -2.77858e-20)
(-8.33886e-07 7.39427e-05 -1.64036e-19)
(3.4865e-06 2.03035e-05 -5.84129e-20)
(0.000159396 8.99725e-05 -1.01894e-20)
(-0.0716349 0.00707243 -7.2609e-19)
(0.000147363 7.2829e-05 2.71633e-19)
(-0.0012454 0.00379377 6.46994e-19)
(-0.0131575 -0.00128214 -5.29022e-18)
(0.00172238 -0.00147304 -6.82367e-18)
(0.000112489 2.82608e-05 -1.44052e-20)
(9.40876e-05 -0.000110388 -9.42149e-20)
(-0.0391865 -0.0189182 -6.33564e-18)
(-0.00156257 -0.00175648 2.7625e-19)
(-0.013611 0.000453948 3.57237e-19)
(9.5866e-05 -1.14329e-05 -1.31764e-19)
(0.000131199 -1.98433e-05 2.00769e-18)
(0.00040969 4.74075e-05 -1.3861e-19)
(5.32442e-05 2.74336e-05 -1.54526e-19)
(0.000401216 -0.000522742 -1.66452e-18)
(-0.000291246 -0.000186981 4.55581e-20)
(0.0101831 -0.0415209 5.10631e-18)
(-0.00386618 -0.00507873 -1.06551e-20)
(-0.00900939 -0.00721511 4.47274e-18)
(0.000129349 -1.99767e-05 -3.59296e-18)
(0.000562501 -0.000743627 5.07368e-18)
(-0.00720571 -0.00303476 6.69101e-20)
(0.000109567 0.000186809 8.60593e-19)
(0.00934721 -0.0042716 2.26508e-18)
(-0.0176096 -0.0351577 -2.28632e-18)
(0.000159386 -7.3336e-05 1.3374e-18)
(0.0172696 0.118682 -7.73599e-18)
(0.000112501 3.45776e-05 -2.89647e-20)
(0.000151474 -1.16496e-06 6.88992e-19)
(0.000152777 -5.07034e-05 -8.83993e-20)
(-0.000220973 2.91924e-05 -1.42035e-19)
(0.000111869 1.88856e-05 9.83009e-20)
(0.000169788 6.99308e-07 7.90773e-19)
(-0.0117921 -0.00107886 3.15531e-18)
(-0.0192281 -0.0872173 -5.31268e-18)
(0.000110434 1.57595e-05 -9.11228e-20)
(0.0451068 0.0482793 -1.67894e-18)
(0.00117062 0.00131253 -3.88018e-18)
(0.000151711 -6.44095e-06 2.02561e-18)
(0.00186409 -0.00194138 1.34569e-18)
(0.000775396 -0.00113062 -5.25074e-18)
(-0.0474353 -0.0122753 -9.32518e-18)
(0.000335848 -0.000463838 -1.06477e-18)
(-0.00903833 -0.00301208 -8.14426e-18)
(0.0324507 0.0193269 -3.86267e-19)
(0.0336172 0.0129582 -1.52217e-19)
(-0.000314808 -9.20193e-05 -6.08406e-20)
(-0.0103134 -0.0104553 1.52393e-19)
(-0.00963062 -0.00197725 5.03505e-20)
(0.000548235 -0.000226749 -1.04537e-18)
(-0.0151553 -0.0231184 2.58515e-18)
(3.77663e-05 5.84411e-06 -3.43362e-21)
(0.000185067 -5.85929e-05 -5.59159e-19)
(0.000299827 -9.35979e-05 5.16921e-19)
(0.000245402 -0.000441685 1.66633e-17)
(-0.0028079 -0.000581658 4.33598e-19)
(-0.00514634 0.00267064 2.16544e-17)
(0.000423027 -0.00127716 1.9156e-18)
(0.00106937 0.00334828 -2.81292e-19)
(0.00345502 -0.000902642 -1.96364e-19)
(0.00829651 -0.0212619 -1.01543e-19)
(0.000586302 0.00743685 -1.92319e-19)
(0.000229851 -8.22626e-05 4.49502e-19)
(-0.112965 -0.117106 -1.86566e-18)
(0.00110755 -0.000476226 -3.99422e-20)
(-3.75203e-05 0.000702875 -6.04336e-19)
(-0.0578877 -0.0582407 -3.93239e-18)
(0.000169761 -1.20436e-05 -3.07663e-18)
(0.00101501 0.0081706 -3.14499e-19)
(0.00688801 -0.0120108 2.7665e-18)
(0.000139247 6.68531e-06 -1.91884e-19)
(-0.0120561 -0.0027066 -9.52719e-18)
(0.000150649 -1.6167e-06 -4.10957e-19)
(5.01959e-05 2.73295e-05 -3.32066e-19)
(0.0023359 -0.00134803 1.79242e-18)
(7.7866e-05 -2.64346e-05 -8.78786e-20)
(0.000157527 1.31732e-06 2.55683e-19)
(0.00999201 -0.00903846 3.30417e-18)
(-0.00788176 -0.0059843 2.71548e-18)
(0.056968 0.100802 6.4741e-18)
(0.000154182 1.16912e-06 -3.21968e-18)
(0.000127082 -0.000192154 -4.02705e-20)
(0.00249858 0.00128281 2.15789e-19)
(-0.0104115 -0.0251631 -3.87938e-18)
(0.0185215 -0.0272501 -3.11298e-18)
(0.000219018 -6.537e-05 -2.72315e-18)
(0.000194533 -7.19735e-05 -2.85077e-19)
(0.000155122 2.21262e-06 -6.58685e-19)
(0.00439984 -0.000665454 2.45904e-18)
(0.0291658 -0.0379447 -2.33324e-18)
(8.63287e-05 -1.55844e-05 -3.62045e-20)
(2.64785e-05 9.39762e-07 3.6463e-20)
(0.00050176 -1.29098e-06 -4.33731e-20)
(0.000138716 2.49141e-06 -5.60718e-19)
(-0.00198365 -0.00388376 -6.79311e-20)
(0.000569138 0.000331821 1.71862e-18)
(3.52164e-05 3.92736e-06 -1.38639e-19)
(0.000442051 -0.00136487 -1.02051e-18)
(0.000140565 6.20808e-06 1.51865e-19)
(0.00011504 -4.20383e-05 -2.66203e-19)
(4.77618e-05 -5.15358e-05 -3.47819e-19)
(-0.00162444 0.0179996 -9.69316e-18)
(6.88334e-05 5.32746e-06 -4.32013e-20)
(0.000204616 -0.000254415 6.1256e-19)
(-0.000166361 0.000254414 -1.85534e-19)
(0.000555731 -0.000714582 1.28213e-18)
(0.00143137 -0.00292532 3.74833e-18)
(-0.0124461 -0.0101093 1.14564e-18)
(0.00572266 -0.00104237 7.07051e-19)
(-0.0122028 0.038135 -1.4796e-18)
(6.61369e-05 -9.87718e-05 2.6442e-18)
(0.00721934 -0.0179037 1.11584e-20)
(-0.0103814 -0.000291424 -7.44968e-18)
(-0.0609474 0.0106572 4.92154e-18)
(-0.0127798 -0.00167811 -2.21394e-18)
(0.000127719 -3.88054e-06 2.12561e-20)
(0.000174519 -4.75716e-05 -1.89154e-19)
(0.00144541 0.00421857 9.77669e-21)
(0.000131859 -3.29771e-05 1.79479e-19)
(-0.000902378 0.010335 6.70886e-18)
(-1.69529e-06 2.9943e-05 -8.93036e-20)
(-0.0284895 -0.14201 -3.16234e-18)
(0.0001492 0.000270534 -2.84041e-18)
(-0.00816059 0.0075698 4.20374e-18)
(-0.0142684 0.0281547 1.75494e-18)
(0.000124463 -0.000377785 1.26728e-18)
(-0.0252962 0.0390818 1.48235e-17)
(0.000110674 1.12352e-05 4.29523e-21)
(0.000576712 -0.000979515 1.12853e-17)
(9.18532e-05 3.83511e-06 -2.04986e-21)
(-0.000830968 -0.00102426 1.8024e-19)
(-0.00916114 0.00731065 5.63909e-18)
(5.09994e-05 -6.25751e-06 1.20665e-19)
(0.00357759 0.00547901 -1.6694e-17)
(-1.03676e-05 4.21896e-07 -3.34501e-20)
(0.000154735 -4.83385e-06 -3.24996e-18)
(0.000171318 -5.68204e-05 -1.03755e-19)
(-0.00456731 0.0025149 -2.35554e-17)
(-0.00144481 -0.00479887 3.22881e-20)
(4.59177e-05 2.97223e-05 8.47524e-20)
(-0.000772799 0.000946176 -3.29173e-18)
(0.00203069 -0.00174363 -7.66134e-18)
(-0.0126058 0.184112 -1.13301e-18)
(0.000881246 0.0103603 3.49009e-18)
(-0.00954594 -0.00407871 3.55196e-18)
(-0.0502974 -0.0139397 -1.01968e-18)
(6.98922e-05 3.99961e-06 1.71406e-22)
(-0.0106963 0.00104277 7.66576e-20)
(-2.20988e-05 -1.32439e-06 -3.43548e-20)
(-0.00416916 -0.0792394 2.17259e-17)
(-0.0319535 0.0349991 -1.02209e-18)
(-0.00111366 -0.00146835 -5.32978e-19)
(-0.00290401 0.00463025 -8.35854e-20)
(-6.69714e-06 5.26368e-07 8.1158e-20)
(0.00108356 -0.000431492 -4.07193e-18)
(0.000115586 -0.000351172 3.1077e-18)
(3.5985e-05 -1.17642e-05 3.07935e-20)
(9.76684e-05 3.38869e-06 1.4972e-20)
(0.000166547 -4.62351e-07 9.80101e-22)
(-0.000468775 0.010293 -2.09537e-18)
(0.000151127 -1.33658e-05 -1.05661e-19)
(0.000338237 -0.000846809 -1.35335e-17)
(0.00018007 -5.32744e-05 6.55864e-19)
(4.42952e-05 2.72758e-05 6.60733e-20)
(1.25235e-05 2.44924e-06 2.27149e-19)
(0.0117921 -0.0159073 -2.81688e-18)
(-0.0186566 -0.0111567 7.17949e-18)
(0.043659 0.0471903 -5.84023e-18)
(-0.000340734 -0.00173831 1.54382e-17)
(0.000569454 0.000255945 -6.44734e-19)
(-0.0102828 -0.0120571 -6.78605e-18)
(-0.00745772 0.00318841 -3.04932e-18)
(7.91208e-05 3.83351e-05 1.22538e-19)
(-0.01715 -0.0270358 -8.31896e-19)
(0.000160291 -1.06403e-06 1.23506e-18)
(0.00139707 -0.00115813 -9.26435e-18)
(0.000133312 -3.59161e-05 -1.20895e-18)
(-0.00651022 0.000686214 -1.87212e-18)
(0.000137481 -3.27028e-07 1.07158e-18)
(-0.00305138 -0.00356539 -1.85486e-19)
(9.32092e-05 -0.000126076 9.59828e-19)
(-0.0273308 0.190118 -9.53361e-20)
(0.00130883 -0.000338122 -7.17372e-18)
(-0.00306487 0.00882144 -1.14882e-17)
(4.94089e-05 6.08944e-06 1.55893e-19)
(0.00127191 -0.000123842 -4.61534e-18)
(0.000257791 -8.32995e-05 3.4633e-20)
(-1.81644e-06 1.94952e-07 -3.62532e-20)
(0.000989172 0.00838212 -4.13488e-18)
(-0.0352609 0.0388178 -2.42539e-18)
(0.000404966 -8.70226e-05 -1.51791e-19)
(-0.000721555 -0.00840923 1.33667e-18)
(0.000140078 -1.61424e-05 -2.72805e-18)
(4.76471e-05 -0.000995272 2.46107e-19)
(-8.59087e-06 4.18851e-07 8.51544e-20)
(0.000174133 0.00888899 1.08155e-18)
(0.000151859 -1.81843e-05 6.62321e-19)
(0.00539664 -0.000640774 -6.41608e-19)
(4.54759e-09 2.91606e-05 -2.32775e-19)
(0.000342281 -6.81141e-05 5.39726e-20)
(-0.00849226 -0.00199339 -1.08728e-17)
(-1.01788e-05 1.25872e-06 -2.57586e-20)
(-0.00187358 -0.00630788 -5.60723e-18)
(6.86825e-05 8.67476e-07 6.32521e-20)
(0.000129028 1.6438e-05 -1.91265e-19)
(-0.0327811 -0.0993117 7.62837e-18)
(0.000329587 -0.000813772 1.61158e-18)
(0.000211251 -5.9226e-05 1.82744e-18)
(-0.0135706 -0.000402263 -7.76429e-18)
(0.00390688 0.00482989 9.47693e-18)
(0.0348125 0.011779 1.17876e-19)
(0.0080005 -0.0123016 -6.0402e-18)
(0.000109703 8.11092e-06 -5.8974e-20)
(0.0014176 0.00403143 7.96586e-19)
(0.000395074 0.0191829 -1.14904e-17)
(0.00686185 -0.000846916 -3.7459e-18)
(-0.000996827 -0.00222463 -4.1343e-19)
(0.000275729 -0.000566522 -1.2346e-18)
(-0.00414629 -0.00379889 2.19888e-19)
(7.06323e-05 1.31922e-06 -8.87266e-20)
(0.000100649 6.10476e-05 4.85138e-20)
(-0.00959139 -0.0181991 2.23522e-20)
(0.00165962 -0.00350022 3.91325e-18)
(-6.43656e-05 0.000156657 -1.58399e-18)
(-0.0781213 -0.0640698 -6.48815e-18)
(0.00132433 -0.000461194 6.01026e-18)
(0.0615283 0.00986527 -2.616e-19)
(0.0164602 -0.0294559 -1.44662e-18)
(-0.0225532 -0.00130675 -5.40355e-19)
(0.00141918 0.00108924 1.12724e-18)
(-0.00215852 -0.00926813 3.2064e-18)
(-0.00673201 0.00234249 1.24855e-17)
(7.2333e-06 0.000140671 1.41502e-19)
(-0.00937701 0.00653385 -4.24572e-19)
(-0.00728311 -0.0231308 -1.61445e-20)
(0.00013075 1.39789e-05 1.81327e-20)
(6.669e-05 2.42718e-06 -1.54661e-19)
(9.16534e-06 2.38174e-06 8.03774e-20)
(0.00325314 0.00176388 -9.6435e-20)
(0.000162997 2.69546e-06 4.38035e-19)
(-0.0104603 0.00118823 -3.6407e-18)
(0.000266984 -0.000813965 3.79002e-18)
(0.000113804 8.15777e-07 -8.5619e-20)
(-0.00110686 -0.000446581 -1.15874e-18)
(5.03622e-05 6.71326e-06 -2.44332e-20)
(-0.0103951 0.0218917 3.8673e-18)
(-0.000213516 4.35712e-05 1.78774e-19)
(8.36575e-05 1.50654e-05 1.15602e-20)
(-0.00885847 -0.00526008 4.49005e-19)
(0.00125165 -0.00246489 -5.51255e-18)
(0.0159046 0.0121358 -5.13344e-19)
(0.000100792 -0.000130764 -6.06687e-18)
(-0.000457859 0.000809863 -1.56897e-20)
(0.000136063 -2.27274e-05 1.68115e-20)
(0.000110388 -0.000171218 1.30055e-18)
(0.000563916 -0.000303347 1.01983e-17)
(0.000144234 -1.33633e-05 6.52247e-19)
(-0.0146709 4.64064e-05 2.10265e-18)
(-0.000116512 0.0011235 -2.44349e-19)
(-0.0343485 -0.2008 5.49486e-18)
(0.0237577 0.0313055 -1.64345e-19)
(-0.0102404 0.00462327 -1.79752e-19)
(-0.00889774 -0.00490824 7.63812e-18)
(0.00013214 -0.000182784 3.8838e-18)
(0.000106361 1.4291e-06 7.96741e-21)
(0.000296129 -0.000109576 -1.45918e-19)
(-0.0131053 0.00200117 9.581e-19)
(0.069854 0.0876653 -3.69113e-18)
(9.76321e-05 0.000351101 -4.10336e-18)
(-0.0139854 0.000477308 1.53183e-18)
(0.0395871 0.0357468 6.93371e-19)
(0.000127046 2.0563e-05 -2.23294e-19)
(0.000101143 3.20298e-06 -7.02981e-21)
(0.000501 -0.000521214 -1.44095e-18)
(-0.00861493 -0.000305129 -1.29858e-17)
(0.032751 0.000559244 -2.41971e-19)
(0.00142677 -0.000267676 1.3148e-18)
(0.0001089 -0.000163517 9.55401e-19)
(0.000214824 -0.000241916 1.57012e-18)
(0.00144688 -0.00127108 1.15201e-17)
(0.00196443 -0.000310327 6.93862e-20)
(-0.000752529 -0.00695672 4.3645e-18)
(0.000290376 -0.000817212 -6.09799e-18)
(0.000291388 -5.08518e-05 1.06869e-18)
(0.000116506 -5.78031e-05 -1.14781e-18)
(0.000106045 1.0925e-06 -1.45248e-19)
(0.000551826 -0.000270412 -9.28378e-18)
(0.00377786 -5.39686e-05 2.18457e-19)
(0.00392067 -0.0054529 -1.20828e-17)
(-0.000210712 -0.000473594 1.17741e-19)
(0.00243871 -0.00286578 1.46994e-19)
(-0.0143727 0.000198759 4.70362e-18)
(-0.00132147 -0.000807375 8.50077e-20)
(0.0278289 -0.00562364 -1.11241e-18)
(0.000253266 -0.000483611 9.15197e-19)
(0.00660052 0.000280706 -9.3266e-20)
(0.000281714 0.000160166 4.78472e-18)
(0.00647847 -0.000423133 -4.79993e-19)
(6.2682e-05 2.41574e-06 -1.16298e-19)
(0.000517691 -0.00101991 9.47442e-18)
(-0.0162047 -0.0113406 -8.82222e-18)
(-0.00552824 -0.0782069 3.46192e-19)
(0.000125896 -3.22578e-05 -5.88731e-19)
(-0.000237406 -0.00038779 -5.02223e-18)
(0.000164029 1.95823e-06 2.27434e-19)
(0.000134521 -2.88479e-05 -7.84344e-20)
(8.29922e-05 -0.000131344 -1.20235e-18)
(-0.00840167 -0.00128433 1.93551e-18)
(-0.00637335 -0.00524398 4.70725e-20)
(0.0116074 -0.0151032 -2.21818e-18)
(-0.00156727 -0.00700335 -1.81338e-18)
(0.000108748 2.02646e-06 -2.06184e-19)
(0.00535232 -0.00590761 1.85588e-18)
(0.000154009 -0.000467455 -5.83566e-18)
(0.000264309 -0.000439332 -1.38007e-18)
(-0.0016745 -0.00848859 2.27083e-18)
(6.76292e-05 0.000116963 -3.96929e-20)
(0.000563397 -0.000949702 5.54825e-18)
(0.01051 0.0568755 1.16788e-18)
(5.52304e-05 2.27651e-05 -1.5941e-19)
(0.00107162 -0.00234832 4.45721e-18)
(0.00927375 -0.000877306 2.75803e-19)
(0.000306316 -0.000798926 -5.51721e-18)
(0.000110992 4.00264e-05 2.48902e-21)
(0.000113568 2.66749e-05 -1.35683e-20)
(9.3911e-05 6.14401e-05 -1.27098e-20)
(-0.00650772 0.00110885 3.76388e-18)
(0.000121385 -6.01323e-05 -9.50385e-21)
(-0.000322884 -9.40538e-05 -3.69888e-20)
(0.000290599 -0.00092518 8.33496e-18)
(0.000146258 -1.35244e-05 -1.61813e-19)
(0.000108659 2.80985e-05 -1.15847e-20)
(0.00393576 -0.0082926 -3.52687e-18)
(-0.0255246 0.0531343 -6.00453e-18)
(-0.0130386 -0.0085647 5.5068e-19)
(0.0076973 0.0973488 6.81085e-18)
(-0.0102772 -0.00191494 2.41089e-19)
(-0.00785222 -0.0103414 2.92347e-19)
(7.75851e-05 -0.000135549 3.03585e-18)
(0.000441063 -0.00237397 -4.58994e-19)