/*--------------------------------*- C++ -*----------------------------------*\
| =========                 |                                                 |
| \\      /  F ield         | OpenFOAM: The Open Source CFD Toolbox           |
|  \\    /   O peration     | Version:  v2012                                 |
|   \\  /    A nd           | Website:  www.openfoam.com                      |
|    \\/     M anipulation  |                                                 |
\*---------------------------------------------------------------------------*/
FoamFile
{
    version     2.0;
    format      ascii;
    class       volScalarField;
    location    "750";
    object      k;
}
// * * * * * * * * * * * * * * * * * * * * * * * * * * * * * * * * * * * * * //

dimensions      [0 2 -2 0 0 0 0];


internalField   nonuniform List<scalar> 
13851
(
0.000155444
0.0251825
0.00019111
0.000154608
0.000190507
0.00021572
0.00014718
0.000178724
0.000139809
0.00019121
0.00370686
0.0310472
0.0172633
0.0219167
0.000144139
0.000169624
0.000158128
0.000164042
0.00252525
0.00013965
0.000154118
0.000190579
0.000144225
0.00015129
0.000145424
0.000179239
0.000156312
0.00217632
0.000154991
0.000157255
0.000141798
0.000158777
0.000190155
0.00534813
0.000151409
0.00021198
0.000879289
0.000140494
0.000193737
0.00564168
0.000145929
0.000132347
0.00658064
0.00320298
0.00333133
0.0104128
0.0032922
0.00624919
0.00015677
0.000669006
0.000187723
0.000199545
0.0106053
0.000146067
0.000154198
0.00013244
0.000144155
0.0138548
0.00015671
0.000147967
0.00010816
0.027656
0.000196766
0.00019368
0.000272247
0.000159363
0.00465111
0.00295604
0.000168808
0.000163595
0.0158663
0.0160497
0.0239981
0.000146965
0.000141449
0.000142743
0.000189554
0.0176749
0.000178899
0.0182348
0.000149701
0.00343912
0.000144306
0.0106757
0.000201586
0.0313376
0.000205416
0.0118343
0.00015879
0.000141789
0.000212183
0.000175918
0.00275273
0.000162216
0.000158396
0.000148971
0.000191005
0.0307281
0.00150795
0.000148959
0.0219099
0.000180149
0.000151513
0.00015531
0.000142497
0.000169183
0.000182305
0.000131343
0.0298349
0.000230982
0.000150996
0.000142177
0.000171001
0.000153244
0.000151025
0.0109417
0.0316653
0.000131508
0.000156416
0.0001578
0.00648631
0.000155113
0.0196101
0.00344498
0.00443749
0.000147673
0.00312784
0.000179613
0.000153528
0.000202064
0.000145656
0.000139277
0.0192622
0.000144234
0.0117706
0.000141027
0.000131605
0.0147271
0.0346496
0.0230888
0.0217994
0.000153958
0.000150304
0.000135995
0.000154717
0.00305683
0.000218209
0.000201855
0.000146956
0.00334697
0.000187932
0.000154318
0.0219758
0.000144685
0.000153478
0.000154531
0.000143154
0.000154581
0.000199529
0.000187433
0.000133411
0.000161814
0.0132816
0.00013915
0.000163926
0.000134183
0.000247421
0.000169207
0.000153122
0.0201015
0.0152834
0.000136705
0.000143341
0.0232025
0.000139001
0.0082124
0.000178865
0.000150375
0.00293729
0.000131631
0.000160137
0.0188704
0.000144072
0.000192086
0.000132795
0.000145635
0.000159561
0.00014884
0.000193553
0.000193452
0.00312659
0.0118787
0.000143213
0.000169117
0.0285241
0.000153068
0.000149569
0.00392282
0.00014975
0.000142979
0.000148399
0.0140225
0.000163403
0.000143696
0.000187066
0.000144223
0.0440273
0.000158335
0.0305413
0.000132171
0.0412168
0.000151141
0.00304351
0.000131162
0.000135248
0.00332137
0.000199286
0.0105769
0.000143508
0.0318313
0.000158668
0.000149911
0.0359293
0.000199625
0.0436035
0.000146064
0.000164749
0.000143864
0.0149862
0.000131235
0.000178393
0.000568442
0.000136615
0.000142781
0.00018534
0.000181966
0.0446647
0.000293526
0.00013585
0.000143829
6.37401e-05
0.00654275
0.000136566
0.000188377
0.000140471
0.0409198
0.000180727
0.00454681
0.000154833
0.000160121
0.000168034
0.00649808
0.000150154
0.000155005
0.000180264
0.00158615
0.000192298
0.0168964
0.00534467
0.000144418
0.000135391
0.000161839
0.012331
0.000139017
0.0100023
0.000153046
0.000149984
0.000161516
0.0350212
0.000317498
0.000167444
0.000153498
0.000870192
0.000177492
0.000168918
0.000139405
0.00334503
0.000536248
0.0465073
0.00367871
0.000136634
0.00013175
0.000142113
0.000179309
0.0135985
0.00962378
0.000141257
0.000144167
0.00187107
0.00381707
0.000209845
0.000155987
0.000148103
0.000171125
0.00375361
0.00868609
0.000162889
0.0304438
0.000139671
0.0414516
0.00016127
0.00015795
0.0456924
0.000148695
0.000171957
0.0382919
0.000140959
0.000175816
0.000162412
0.000155422
0.0380835
0.000163206
0.000149901
0.0348056
0.000132854
0.00016055
0.00015526
0.0461097
0.000197448
0.00014354
0.000180641
0.000143761
0.0124557
0.000178604
0.000144339
0.000146014
0.000196984
0.000163893
0.00015316
0.000144171
0.000148543
0.000149717
0.00353563
0.0230237
0.0225065
0.000166351
0.0452788
0.0252106
0.000143755
0.000169792
0.000211243
0.000188337
0.000195296
0.000196494
0.00225098
0.000158364
0.0105206
0.0396631
0.000144389
0.00145224
0.00168054
0.00294936
0.000153129
0.000198062
0.0153827
0.000143735
0.00795926
0.00014596
0.000143813
0.000139046
0.000131368
0.000142207
0.040301
0.00346439
0.000145356
0.000174731
0.000133485
0.0291827
0.000175384
0.00794102
0.0218742
0.000145621
0.000207297
0.000162655
0.00768242
0.000144772
0.000131631
0.000169717
0.0213745
0.000145001
0.0396392
0.000186597
0.000197374
0.0154379
0.00406475
0.00402167
0.000161117
0.000139737
0.000150501
0.000164591
0.000180306
0.0216528
0.000169104
0.0437941
0.0388639
0.000133606
0.000144527
0.0208549
0.0207751
0.000181594
0.0327071
0.000171455
0.000163522
0.000148494
0.0216258
0.00013805
0.000168958
0.000158699
0.000146476
0.000143177
0.000140645
0.000134052
0.00019287
0.000189188
0.0168206
0.000163857
0.000181872
0.000176878
0.00617217
0.000161784
0.00579726
0.00015741
0.00275975
0.000131505
0.000140382
0.000147182
0.000321051
0.00424638
0.000199036
0.000174508
0.0129212
0.00485204
0.000204568
0.000160581
0.000185718
0.000144466
0.0061277
0.000142336
0.0206885
0.00542139
0.000188106
0.0276615
0.000150546
0.000470977
0.0051459
0.0213333
0.000131538
0.000165233
0.000179504
0.000366709
0.000137451
0.00014981
0.000186683
0.000197375
0.000169764
0.0288388
0.00014611
0.000146549
0.010711
0.000165136
0.000131531
0.0151146
0.000139658
0.000155455
0.000138279
0.000178257
0.000153437
0.000131898
0.000150019
0.0341193
0.000144471
0.000171066
0.000140251
0.000167089
0.00116734
0.000154218
0.000145832
0.000153446
0.000153218
0.0115253
0.000149837
0.00020864
0.000143993
0.000147011
0.0231915
0.026035
0.000144524
0.000169467
0.000161918
0.00663143
0.0107378
0.000146613
0.00318711
0.000145049
0.000190941
0.000147156
0.0154476
0.000132859
0.0101341
0.000194024
0.000132473
0.000168277
0.0256516
0.000179079
0.00374827
0.000156243
0.0059537
0.000157631
0.000138581
0.000139596
0.000146318
0.0253201
0.000185681
0.000198381
0.00194184
0.000195272
0.000133827
0.0248852
0.00426567
0.000160313
0.000162154
0.00662647
0.00320578
0.0400424
0.000152955
0.0157725
0.0106526
0.0127794
0.000164333
0.000170174
0.00275068
0.000541872
0.00110352
0.00347182
0.0314531
0.000155073
0.0326954
0.0206834
0.000131712
0.000431793
0.000186148
0.0211846
0.0001553
0.000143032
0.000142808
0.000144608
0.000192986
0.000177815
0.00772651
0.0271705
0.000140018
0.00966604
0.0264895
0.00111427
0.00451721
0.00017057
0.000131109
0.000140091
0.000708521
0.0271797
0.000153716
0.000191788
0.000211356
0.000132322
0.000186494
0.00128797
8.32733e-05
0.000196728
0.0266918
0.0208742
0.000145363
0.000146608
0.0213913
0.0382721
0.000198163
0.000168875
0.000212413
0.000131557
0.000142366
0.0225461
0.000132051
0.000155121
0.000131511
0.000139633
0.0223768
0.0001928
0.000170249
0.000131962
0.0410418
0.00343337
0.00013987
0.000142067
0.000139301
0.000149666
0.0210682
0.00391708
0.00349695
0.0142964
0.00693144
0.000167268
0.0171374
0.0277113
0.000159555
0.000169313
0.000131085
0.000153743
0.000170734
0.0321621
0.0126734
0.000191358
0.000164059
0.00013915
0.000169563
0.000149974
0.00382551
0.000187968
0.000143857
0.000167693
0.000137433
0.000161086
0.000200016
0.000147586
0.000144194
0.000175293
0.000147781
0.000190975
0.000265039
0.000198369
0.00017026
0.000199039
0.000138958
0.000113086
0.000171741
0.0147701
0.000150843
0.000149577
0.0266549
0.000155647
0.0139822
0.0395968
0.0121704
0.0155485
0.000137984
0.0196454
0.000137549
0.000139629
0.000132853
0.000139712
0.000152171
0.000164551
0.000176335
0.000131738
0.0285712
0.000195307
0.0298451
0.000142065
0.000134225
0.000141416
0.000209752
0.0295373
0.000180577
0.000161486
0.000137816
0.000147682
0.000146686
0.000143983
0.000162654
0.0289234
0.000147472
0.000131631
0.000146456
0.000143851
0.0071196
0.012209
0.000169986
0.0286418
0.00427571
0.000143923
0.000198173
0.0214149
0.000170605
0.0316638
0.000149658
0.000162212
0.000180174
0.000162303
0.00291357
0.000144364
0.00203791
0.000142976
0.00016479
0.0306221
0.000143589
0.000154017
0.000203502
0.000138714
0.000159296
0.00820654
0.0195195
0.000187483
0.00685254
0.00417519
0.000131299
0.000141764
0.0240009
0.00020815
0.00018513
0.0399926
0.000139062
0.000166143
0.000131817
0.00733572
0.00553595
0.000160349
0.000149952
0.00136723
0.000156753
0.000141132
0.00921729
0.00331699
0.030852
0.000132703
0.000147302
0.0176214
0.00690775
0.000204359
0.000149237
0.0326438
0.000144348
0.00217812
0.000205878
0.000189822
0.000158703
0.0110433
0.000165011
0.000151996
0.000766603
0.000149057
0.000163346
0.000153913
0.000138757
0.0100998
0.000167999
0.000196723
0.000168889
0.00073953
0.000139395
0.0082994
0.000154862
0.000164931
0.000134787
0.000143433
0.000145165
0.0376401
0.000142488
0.000131916
0.00121195
0.000146899
0.0217177
0.000143875
0.000149978
0.00018676
0.0127494
0.00461509
0.000141642
0.000124428
0.0293542
0.000150001
0.0384432
0.000164455
0.000138433
0.000188835
0.00754847
0.000207568
0.00016059
0.000141116
0.000131443
0.00500677
0.000192431
0.000188633
0.000162162
0.000188321
0.000150556
0.000149578
0.000191624
0.00325891
0.00019314
0.0138545
0.000147015
0.000191239
0.0001906
0.0458182
0.000160099
0.0324054
0.00103267
0.000147023
0.011132
0.000197872
0.0285551
0.0191358
0.0347418
0.00486883
0.000175449
0.000138594
0.000163682
0.0150462
0.0109239
0.0001455
0.000147058
0.000186064
0.00355117
0.000132533
0.00977345
0.00013877
0.000145264
0.0107999
0.0175176
0.00420711
0.000139598
0.000143925
0.00823887
3.02479e-05
0.000196895
0.000154452
0.0252507
0.000241339
0.0295929
0.000181979
0.000174205
0.000149954
0.000146968
0.021496
0.00017886
0.0196456
0.000175518
0.000168683
0.0101036
0.0282368
0.0236833
0.000145112
0.000165644
0.000139758
0.000170733
0.000153795
0.0297865
0.000166647
0.0365006
0.000132427
0.000186333
0.000142983
0.000179153
0.000167877
0.000165224
0.0292953
0.000175851
0.000180154
0.000151783
0.000186413
0.00829144
0.000216046
0.000155401
0.015604
0.000138537
0.0187948
0.003669
0.000148481
0.041847
0.0217319
0.0234249
0.00494194
0.000172491
0.00014529
0.0294941
0.000167593
0.00855912
0.0309764
0.000142015
0.000152593
0.000371863
0.00294755
0.0282256
0.000147311
0.000141459
0.0230479
0.0304645
0.000196867
0.000159772
0.000152815
0.00352928
0.0123593
0.000191423
0.00013197
0.000175889
0.000138796
0.000160135
0.00310111
0.000148886
0.0198068
0.00504052
0.000145497
0.000150799
0.000145532
0.000154085
0.0170579
0.0246085
0.000164711
0.0340603
0.000142883
0.000164821
0.000144932
0.000138914
0.000148067
0.00014531
0.0232924
0.000144602
0.000180284
0.000145261
0.000160788
0.00342765
0.00612564
0.000156511
0.0211464
0.000189444
0.00241987
0.000168589
0.000168788
0.0171427
0.000161051
0.000179177
0.0297669
0.00311145
0.0117309
0.000174933
0.00347883
0.000150389
0.000174532
0.000180594
0.0291687
0.000145312
0.0266542
0.000141542
0.000142291
0.0213673
0.000145138
0.00962649
0.000159221
0.000139729
0.000181371
0.000139804
0.000143961
0.000139695
0.00014937
9.5455e-05
0.000142228
3.40889e-05
0.0126781
0.000185531
0.0216371
0.00014668
0.00015499
0.000163149
0.000144855
0.000139536
0.000189359
0.000149566
0.000141898
0.000150207
0.000145971
0.0217908
0.0295239
0.000207866
0.0327843
8.33583e-05
0.000142359
0.00858707
0.000163809
0.000141984
0.00322301
0.000387013
0.00245928
0.000141949
0.00330797
0.00288441
0.0172477
0.000136849
0.0177197
0.000167018
0.000156156
0.000141051
0.000139054
0.041512
0.000167023
0.0106998
0.000143099
0.000143853
0.00194772
0.000148565
0.0104671
0.00430318
0.00322462
0.00293547
0.00236657
0.00014685
0.00014521
0.000206726
0.000168414
0.000155441
0.000213722
0.000176206
0.000149749
0.000152566
0.0299286
0.000142166
0.0212164
0.00972548
0.00947676
0.000187371
0.000152533
0.000136925
0.000149287
0.00424636
0.00552035
0.000136847
0.00015676
0.000142874
0.000189081
0.000133274
0.000142422
0.000150107
0.000168254
0.00393215
0.000180296
0.000167953
0.00014559
0.000180027
0.0145826
0.000150907
0.0111718
0.0150832
0.0001896
0.000134603
0.000176537
0.000143022
0.00014461
0.000148905
0.0176271
0.000197258
0.00401681
0.000155534
0.00182756
0.000143417
0.000143082
0.00014878
0.00922446
0.000445777
0.000133141
0.000167873
0.00019323
0.0267997
0.000154099
0.0148325
0.000152497
0.0424552
0.000188938
0.0365462
0.000191946
0.000189442
0.000303097
0.0278994
0.00284394
0.0169003
0.000144138
0.000231257
0.000133136
0.000155585
0.00015972
0.000148158
0.0279859
0.000165323
0.0001622
0.00430893
0.000213202
0.00974325
0.000143642
0.000155283
0.00016117
0.000137601
0.000164943
0.0230676
0.00701241
0.0163637
0.000140718
0.000161116
0.000155327
0.00151079
0.0328539
0.000206952
0.000136814
0.000149201
0.0155032
0.00017826
0.0326945
0.0274495
0.000178098
0.000134407
0.0153361
0.000164153
0.000176996
0.000163455
0.0398558
0.00423278
0.000199222
0.00023853
0.000151807
0.000164165
0.000145232
0.0113061
0.000185939
0.0265752
0.00167281
0.000159536
0.00020166
0.000153032
0.0397844
0.000180174
0.000141218
0.000342764
0.0319189
0.000499192
0.0272139
0.000146701
0.000145532
0.0175018
0.0164427
0.0140364
0.000155966
0.000146545
0.000145555
0.0221054
0.000201
0.000149312
0.000898785
0.000193759
0.0441593
0.0140374
0.00885375
0.000144443
0.0295817
0.000157467
0.000145678
0.000200142
0.0289707
0.000147295
0.000141565
0.00497455
0.0382371
0.000145395
0.000140614
0.0266083
0.000140878
0.000886654
0.000140716
0.00206479
0.00014559
0.000180655
0.0148106
0.0330949
0.000152307
0.00732821
0.00515253
0.0302387
0.00848294
0.0418855
0.00020147
0.000142716
0.0117311
0.000154505
0.000143759
0.000137463
0.00289858
0.000143693
0.000479289
0.000141783
0.000152535
0.0168592
0.000186495
0.0170223
0.000153645
0.000190712
0.000139456
0.000167527
0.0149456
0.0227385
0.000140635
0.000186313
0.00366105
0.000148524
0.000139298
0.0304496
0.000169482
0.00017147
0.000198245
0.0210269
0.000466707
0.0117136
0.0245416
0.000206597
0.00351891
0.00495713
0.00173899
0.000186442
0.000136165
0.000197693
0.000142683
0.000142517
0.028825
0.0306369
0.000154556
0.0233566
0.000318191
0.020482
0.000784095
0.000209324
0.000144358
0.000461521
0.000410716
0.000142689
0.000152647
0.0385574
0.0319997
0.017373
0.0383176
0.000175383
0.0393732
0.04011
0.000167014
0.000147629
0.00014312
0.00356099
0.000141723
6.89531e-05
0.00015304
0.000150621
0.000155084
0.0168079
0.0441577
0.0206195
0.000150049
0.0167176
0.000159335
0.000166424
0.000141128
0.000141235
0.0131276
0.000162413
0.0280846
0.0208431
0.000654966
0.000196313
0.000144566
0.000176018
0.000148432
0.000201405
0.000149993
0.000153323
0.000149626
0.000153778
0.00020509
0.00015079
0.000170732
0.00014287
0.000171341
0.000126338
0.0178574
0.000143607
0.000179252
0.000144565
0.000223886
0.000157264
0.0257842
0.000234465
0.000166489
0.000155455
0.000153285
0.00107151
0.000145003
0.000867237
0.000144048
0.000143528
0.000149215
0.0353881
0.000161485
0.00015824
0.000168625
0.00014467
0.00018474
0.0335944
0.00807405
0.000170743
0.000145197
0.000294729
0.000136727
0.00014415
0.000194986
0.0366233
0.000143477
0.000167654
0.000220239
0.0183906
0.000149458
0.000150537
0.0347774
0.000152691
0.0004551
9.41724e-06
0.0439693
0.000145847
0.00016904
0.000143508
0.0429612
0.000199689
0.00017601
0.000196519
0.0210736
0.000151766
0.0411012
0.0353206
0.000148621
0.0187548
0.000189717
0.000153093
0.0136806
0.000146793
0.00014571
0.000138306
0.000214022
0.000633128
0.000207709
0.000153514
0.000151151
0.00016457
0.00434075
0.000325698
0.0433274
0.00373889
0.000150226
0.000199742
0.000202066
0.0130136
0.000187829
0.00352227
0.000141867
0.000168373
0.000139277
0.00109596
0.000174283
0.000143435
0.0282912
0.000233943
0.000168347
0.00016508
0.000132251
0.000144248
0.000181821
0.00017024
0.00219779
0.000186633
0.000187056
0.000185
0.000199037
0.0391976
0.000221259
0.04301
0.000143845
0.000141749
9.98053e-05
0.0228519
0.0121159
0.00014835
0.000153578
0.0169136
0.00370515
0.000143808
0.000160144
0.000139855
0.000174862
0.000187028
0.000239404
0.0114189
0.000380084
0.000152754
0.0287096
0.0148311
0.000144342
0.00021025
0.0325277
0.0118574
0.000155731
0.000187932
0.000131168
0.000159177
0.000142646
0.00015953
0.0439527
0.0261722
0.00958888
0.0169137
0.000152367
0.000171058
0.000183047
0.000142351
0.000149183
0.000139066
0.0317487
0.000141455
0.0395123
0.000173646
0.00018945
0.00021383
0.000117211
0.01911
0.0206009
0.000174367
0.000133816
0.000152822
0.0175164
0.00830852
0.000157842
0.000139622
0.000139446
0.000186219
0.000166303
0.000201915
0.0415361
0.000152139
0.000138563
0.000198019
0.000266495
0.0167765
0.0167392
0.000140724
0.000188122
0.000148211
0.0459297
0.000135326
0.0402722
0.000141835
0.000151907
0.000165625
0.000149472
0.000211618
0.000165245
0.000178768
0.0165232
0.0326613
0.000158757
0.000165521
0.000144135
0.0191546
0.0175646
0.000149224
0.000135727
0.00362223
0.000131339
0.026352
0.000144119
0.000171255
0.000187527
0.0057835
0.000175944
0.000152692
0.000146591
0.000186736
0.0388633
0.000142801
0.000748791
0.0230769
0.0175623
0.00114009
0.000170652
0.0219086
0.000158328
0.000500092
0.000143358
0.00394752
0.00400328
0.0106893
0.0127678
0.0416151
0.000145711
0.000188744
0.00014157
0.0133806
0.00310251
0.0375938
0.0155954
0.000162297
0.0395699
0.00597561
0.000171995
0.000153512
0.000147532
0.028309
0.00016003
0.000186556
0.000157211
0.000148882
0.00013889
0.000147788
0.0307634
8.62934e-05
0.000167333
0.0162537
0.0111834
0.000143839
0.000143944
0.000139346
0.000163247
0.0391408
0.000105238
0.000160077
0.000171795
0.00037429
0.00019035
0.000177256
0.00840087
0.000166384
0.0426159
0.000164815
0.000164955
0.00014358
0.000156662
0.000187661
0.00281519
0.00366929
0.0312223
0.000188483
0.0329201
0.00015634
0.000157221
0.000145372
0.0108629
0.0239992
0.00486911
0.000491818
0.000155164
0.000145421
0.000142475
0.000144044
0.000139286
0.0101352
0.000164984
0.0112283
0.000168976
0.028681
0.0226041
0.0410791
0.0001892
0.00015954
0.0147831
0.000175652
0.000802133
0.0307614
0.00013848
0.000889383
0.000161869
0.0203601
0.00865456
0.00017154
0.00122205
0.00509344
0.00015782
0.000190535
0.000166052
0.0185716
0.00331316
0.000156305
0.000146672
0.00420158
0.00156799
0.000199826
0.00109933
0.000197736
0.000164845
0.000144093
0.0233001
0.0352418
0.000188319
0.000165852
0.0315613
0.0226914
0.0001418
0.000144654
0.000156813
0.0379019
0.0352272
0.000143807
0.0215766
0.000150427
0.000143472
0.000148523
0.0145991
0.000914744
0.000217427
0.0116142
0.000153962
0.000153242
0.000141639
0.00950731
0.000152173
0.03181
0.000156452
0.0250595
0.000149162
0.000142769
0.00019903
0.00969794
0.00341146
0.000171989
0.024404
0.000135721
0.000146761
0.000144814
0.000177704
0.000186116
0.000185945
0.000174819
0.0347201
0.000156987
0.000200558
0.000180396
0.0375562
0.000147051
0.026561
0.0324548
0.000157671
0.00537839
0.00018537
0.0215112
0.000147975
0.000186763
0.000144637
0.000239139
0.0153058
0.000209399
0.0411718
0.00015547
0.000178592
0.000152574
0.0226699
0.000134517
0.000139741
0.00419514
0.00018996
0.0225433
0.0144117
0.000184809
0.000163996
0.000138115
0.0274511
0.000164951
0.000142901
0.000202185
0.000139062
0.000176359
0.00014546
0.0189665
0.000155022
0.00306202
0.00295038
0.000166235
0.00126002
0.000182292
0.0462664
0.000146313
0.0126186
0.034019
0.000139671
0.000144584
0.000153931
0.000149335
0.000174324
0.000144055
0.00409705
0.000188343
0.00226385
0.000237828
0.000147992
0.000149871
0.000138602
0.0229687
0.000147049
0.000145459
9.21715e-05
0.000155714
0.0250088
0.0405496
0.000191379
0.000157138
0.000169757
0.000153106
0.000150405
0.000195853
0.000136318
0.000156062
0.00987884
0.0421637
0.00297982
0.000152973
0.0114427
0.000546606
0.000149377
0.00131847
0.0337331
0.000143875
0.000155043
0.000143277
0.025034
0.0190198
0.00679617
0.000136208
0.000156518
0.000153479
0.000146848
0.000199206
0.000148273
0.000507023
0.00704063
0.0415279
0.000138495
0.000155873
0.00015467
0.0211044
0.000132243
0.0172925
0.0115838
0.00131433
0.00394988
0.022088
0.035074
0.000151921
0.00514023
0.00463954
0.000151636
0.000137873
0.000140632
0.0405481
0.0112238
0.0116197
0.000144084
0.0432945
0.000147862
0.000212299
0.000139388
0.000154884
0.0001515
0.00013834
0.0213927
0.000151764
0.0275505
0.0221784
0.0161811
0.000179008
0.00018017
0.0174839
0.0381651
0.000149545
0.00685734
0.000138568
0.000131658
0.00014369
0.00024892
0.000141127
0.0167474
0.000164721
0.000320245
0.000175832
0.0110883
0.0170701
0.000215735
0.00013807
0.000183478
0.000187292
0.0195775
0.000147103
0.000134133
0.000157933
0.0283375
0.000148404
0.00185966
0.0155682
0.000175128
0.000185344
0.000147315
0.00427898
0.000149222
0.0403275
0.000135721
0.00895346
0.000166162
0.000146506
0.0162369
0.0144324
0.000135438
0.000185269
0.000157921
0.011251
0.000191487
0.000281224
0.000265211
0.000149439
0.000184071
0.0282992
0.000142984
0.0002666
0.000153177
0.00018847
0.000167649
0.0128808
0.025182
0.000146871
0.0266656
0.000152047
0.000177239
0.0319965
0.0151563
0.000173728
0.0278283
0.000168525
0.000146787
0.0017576
0.000198823
0.00016598
0.000151645
0.0285116
0.000135762
0.0168671
0.000198607
0.000199728
0.000143515
0.000166389
0.0265243
0.000177641
0.0291091
0.000150596
0.00015603
0.000228231
0.0281542
0.000159512
0.0392432
0.00746757
0.0173398
0.000148683
0.026745
0.0111244
0.0241646
0.00014412
0.000149344
0.000146458
0.0406882
0.000170485
0.00449486
0.00266329
0.000149703
0.000137847
0.000143942
0.022355
0.0159684
0.0222134
0.0171133
0.000141373
0.0261596
0.036512
0.000198495
0.0114047
0.0279528
0.000173036
0.0155551
0.000154637
0.000158945
0.0226229
0.0210278
0.000147943
0.0230644
0.000149528
0.000144823
0.0444183
0.025235
0.0399659
0.0142259
0.000167611
0.000149625
0.000159807
0.0366406
0.0138209
0.000142756
0.000177469
0.00584153
0.000144937
0.000147404
0.0304359
0.0341384
0.000154393
0.000144377
0.000151338
0.000153023
0.000671367
0.000149292
0.000144956
0.000160301
0.000215235
0.0360084
0.00286204
0.0284839
0.000147115
0.0001586
0.0312142
0.0376289
0.000164609
0.000236153
0.00014339
0.000171277
0.000152749
0.000151948
0.000185872
0.000144576
0.0139044
0.000170114
0.000142257
0.00015786
0.0145562
0.0310673
0.023351
0.00014511
0.000170979
0.03901
0.00724375
0.000156257
0.00014664
0.000144742
0.00327444
0.000147615
0.000149211
0.000163145
0.000144432
0.0315531
0.000244303
0.000149412
0.000157082
0.000135536
0.000148196
0.023843
0.00789058
0.000187395
0.0121732
0.000202874
0.000149955
0.000143243
0.000146592
0.000146121
0.000149156
0.000165266
0.00019036
0.0317613
0.000151843
0.000196817
0.0234499
0.00025005
0.000144835
0.000139856
0.000154796
0.0411057
0.000145602
0.00477317
0.000441585
0.000185177
0.000147551
0.0150986
0.000135938
0.000501179
0.000137631
0.000136188
0.00014866
0.000142302
0.000181696
0.019766
0.000760136
0.000173854
0.0178757
0.000458956
0.000738701
0.000167137
0.0254618
0.0127746
0.00019735
0.0336883
0.031582
0.000196048
0.00330415
0.000149431
0.000141174
0.0251704
0.00014255
0.000157244
0.0415962
0.000439491
0.0282365
0.000209592
0.000140823
0.00015349
0.000147025
0.000395538
0.000139166
0.000986794
0.0238524
0.0308318
0.00929685
0.000147194
0.000136244
0.000187543
0.0227074
0.0318007
0.000200887
0.00390715
0.000140707
0.00756599
0.0285339
0.000223718
0.000156573
0.000147589
0.000135385
0.000154859
0.000147549
0.000146543
0.000156733
0.0303392
0.000189046
0.027454
0.00137672
0.0049666
0.000212355
0.000143251
0.000142572
0.000148444
0.000138904
0.000149227
0.00835645
0.0258124
0.00158858
0.0431338
0.000154564
0.0179532
0.000205288
0.0395246
0.0318108
0.00014781
0.000142208
0.00459866
0.000147354
0.000135615
0.00238622
0.0316736
0.0113367
0.000145389
0.000147163
0.000154667
0.000173458
0.0159931
0.00013879
0.00015671
0.00099189
0.000138855
0.00424339
0.000173106
0.0389322
0.0001495
0.000294501
0.0218446
0.000172478
0.0357007
0.000196267
0.0282966
0.000135697
0.000159309
0.000141273
0.000165986
0.0167287
0.000145058
0.0113858
0.000147759
0.000147217
0.000144369
0.0424861
0.000176975
0.000196565
0.0026781
0.000139572
0.000179314
0.0149431
0.000182905
0.000141421
0.000152572
0.000147537
0.000185978
0.000146334
0.00014299
0.0445495
0.0417479
0.0408078
0.00169694
0.00141388
0.0181924
0.00018672
0.0445384
0.000201183
0.000135093
0.000142343
0.000131439
0.000148874
0.0375677
0.0374271
0.000138425
0.00938461
0.0430851
0.000163998
0.000151534
0.000170581
0.028723
0.029234
0.0305553
0.00570309
0.0318717
0.000131513
9.47862e-05
0.000196249
0.00230656
0.0240693
0.00014394
0.000198667
0.0170557
0.000169757
0.021075
0.000149906
0.00126938
0.0179104
0.0366238
0.000187865
0.000167467
0.0172922
0.000199335
0.0369224
0.0406399
0.0314166
0.000196061
0.0228815
0.000147429
0.00015659
0.000178601
0.0228821
0.00377022
0.028078
0.000151292
0.000200552
0.000189701
0.000151828
0.0326446
0.000143918
0.00019837
0.0216768
0.000143838
0.0411081
0.0378734
0.0400504
0.0267608
0.00271906
0.00495567
0.000144609
0.0384233
0.000147312
0.000142426
0.000175433
0.000156201
0.0326624
0.000156506
0.000171571
0.000156906
0.000142256
0.0223899
0.000154115
0.000196448
0.0014204
0.000138387
0.0278657
0.000195922
0.000151954
0.0134824
0.000137878
0.000143499
0.0019031
0.000150885
0.0427686
0.0013769
0.000138643
0.000197194
0.000154277
0.0401303
0.0319508
0.000187886
0.00557603
0.000160611
0.000144845
0.0425493
0.000156123
0.000146505
0.011002
0.000173755
0.000140532
0.000142087
0.000202531
0.000153774
0.0216591
0.000130268
0.000358593
0.0210938
0.000180517
0.000185954
0.000145037
0.0409208
0.0174385
0.0248313
0.000144226
0.000137624
0.000188596
0.000167087
0.00388306
0.000146701
0.00612754
0.000145886
0.000223737
0.000149723
0.000445718
0.00017757
0.000196147
0.0282335
0.0195717
0.0330362
0.030639
0.000131701
0.0036043
0.00481708
0.0212268
0.000143409
0.000108217
0.0172107
0.0122283
0.000196595
0.00150465
0.0142656
0.042529
0.000176907
7.59795e-05
0.000138215
0.000178708
0.000175226
0.000143604
0.000186682
0.0218474
0.00121997
0.0140548
0.00586514
0.000142616
0.000141067
0.000170992
0.000143738
0.0114565
0.000139071
0.000141131
0.0451087
0.000103276
0.000171156
0.000195757
0.000152742
0.000190079
0.0134296
0.0325309
0.0141886
0.000158747
0.032309
0.000153018
0.000138705
0.000154187
0.0265472
0.000139379
7.6318e-05
8.85355e-05
0.000151803
0.000141996
0.000143798
0.000149472
0.000160754
0.0225266
0.00626038
0.000164432
0.0335664
0.0213336
0.00354355
0.0121795
0.000145129
0.000165421
0.000259349
0.000144574
0.000181701
0.000161584
0.000156415
0.0274175
0.0326206
0.00013911
0.000173211
0.000165558
0.000186846
0.0255949
0.0389459
0.0422768
0.000148492
0.00018984
0.0425349
0.000189594
0.00019692
0.00101953
0.028281
0.0419385
0.0449064
0.000138551
0.0213483
0.000138279
0.000154416
0.000144564
0.000185507
0.0420711
0.0151429
0.00598943
0.0111534
0.000183928
0.00013506
0.000139747
0.000147305
0.000159071
0.000176926
0.0437352
0.0443462
0.000188394
0.000555829
0.000148965
0.000183736
0.000138838
0.0390936
0.000204171
0.000148091
0.000203716
0.000195405
0.023998
0.026379
0.000203103
0.00788131
0.00015852
0.0263223
0.000129355
0.0233787
0.00337728
0.000152835
0.000183389
0.000146586
0.030359
0.0128864
0.000175118
0.0377311
0.000124331
0.0322154
0.000187555
0.000223204
0.000180712
0.000140344
0.000197708
0.000184102
0.000156867
0.000182997
0.000166998
0.000168911
0.0155215
0.000205843
0.000154884
0.000166723
0.000171849
0.000169288
0.000152317
0.0363942
0.000197963
0.000736087
0.00991031
0.000145184
0.0312136
0.000144551
0.000157055
0.000155721
0.0311991
0.000174394
0.0377112
0.0138309
0.000184983
0.000185128
0.000196679
0.0299555
0.000199599
0.00526731
0.000168131
0.000177077
0.00014292
0.0334328
0.00545334
0.000166903
0.00014589
0.000174006
0.000159897
0.000157724
0.000178844
0.00017335
0.000148139
0.000171589
0.019409
0.0220137
0.000238501
0.000175273
0.000133018
0.0288809
0.000167801
0.000184973
0.000337213
0.000175494
0.0281809
0.000135941
0.000167824
0.000157111
0.000171002
0.000143837
0.0317182
0.000955608
0.0142161
0.000174814
0.0345855
0.000109347
0.000159425
0.0293265
0.000185477
0.000104876
0.010568
0.000184266
0.000156647
0.000173928
0.000187947
0.000155911
0.00116003
0.0266107
0.00296771
0.000140405
0.000131104
0.0016427
0.011052
0.000143302
0.000177373
0.000144733
0.000167045
0.0215043
0.000165449
0.000164761
0.000140696
0.000140331
0.0104242
0.0264347
0.000147005
0.0191908
0.000126559
0.000135237
0.000164899
0.0333508
0.000199353
0.000195236
0.00014454
0.000162095
0.000194638
0.000146976
0.000143536
0.0439082
0.000165031
0.0318299
0.000190113
0.000160381
0.0409862
0.000201071
0.000211793
0.000140947
0.00443707
0.000164934
0.000161181
0.0246394
0.000174656
0.000148446
0.000190925
0.000157516
0.000157354
0.00013598
0.00441642
0.000144982
0.000197871
0.010839
0.000196462
0.000142472
0.000658368
0.000166128
0.0192847
0.000201393
0.0266325
0.000199067
0.0353407
0.000138987
0.000189041
0.000159006
0.000142313
0.00362983
0.0259534
0.000157887
0.000279713
0.000160959
0.000188326
0.026734
0.000159922
0.0018255
0.000724303
0.0339103
0.0305417
0.000215722
0.000210078
0.000140614
0.000198739
0.000173146
0.00360242
0.0261447
0.0389244
0.0388422
0.0420183
0.000140131
0.000330579
0.000144105
0.000151864
0.000147823
0.00582099
0.000177463
0.000204028
0.000142828
0.009386
0.000162334
0.023413
0.000142461
0.000184555
0.000165558
0.000186402
0.000176613
0.000195124
0.000153497
0.000114122
0.000200929
0.000141223
0.0214699
8.94758e-05
0.000192331
0.000155675
0.000165891
0.000146341