/*--------------------------------*- C++ -*----------------------------------*\
| =========                 |                                                 |
| \\      /  F ield         | OpenFOAM: The Open Source CFD Toolbox           |
|  \\    /   O peration     | Version:  v2012                                 |
|   \\  /    A nd           | Website:  www.openfoam.com                      |
|    \\/     M anipulation  |                                                 |
\*---------------------------------------------------------------------------*/
FoamFile
{
    version     2.0;
    format      ascii;
    class       volVectorField;
    location    "750";
    object      U_0;
}
// * * * * * * * * * * * * * * * * * * * * * * * * * * * * * * * * * * * * * //

dimensions      [0 1 -1 0 0 0 0];


internalField   nonuniform List<vector> 
13851
(
(1.01855 -0.0134855 1.1714e-23)
(0.577239 -0.163187 1.9629e-21)
(1.0413 -0.0498144 4.58733e-22)
(1.01784 -0.0125643 0)
(1.06112 -0.0611982 -6.8423e-22)
(0.980688 -0.0021004 1.40339e-21)
(1.03227 -0.00204466 0)
(1.04863 -0.0436417 -8.23696e-21)
(1.00751 -0.00173419 -4.74289e-23)
(1.04756 -0.0397876 0)
(0.968332 0.0407945 0)
(0.444088 0.091294 -1.14244e-23)
(0.967528 -0.093585 2.21445e-20)
(0.0656339 -0.130962 -1.71349e-20)
(1.0201 -0.000585478 -4.703e-21)
(1.03801 -0.0366276 0)
(1.04368 -0.02478 7.81268e-21)
(1.02119 -0.0173308 3.2651e-23)
(1.0661 -0.10204 1.2565e-20)
(1.00742 -0.00173031 3.0005e-23)
(1.01782 -0.0123435 0)
(1.04269 -0.0512458 8.10302e-21)
(1.00122 7.89549e-05 -1.06715e-22)
(1.00214 -0.000139172 1.23396e-22)
(1.00069 1.3668e-05 0)
(1.04759 -0.0435906 0)
(1.05312 -0.018507 -1.53273e-20)
(-0.00300004 -0.040832 -2.68065e-22)
(1.01885 -0.0133521 -1.58286e-23)
(1.02599 -0.0205233 -8.5638e-22)
(0.974619 0.00770941 0)
(1.04419 -0.0257527 -8.35575e-21)
(1.04173 -0.0485048 2.91616e-21)
(0.88017 -0.103927 -1.65262e-21)
(1.00282 -0.000171274 -1.01304e-22)
(1.09569 -0.0553466 0)
(1.10266 -0.0551287 0)
(1.02581 -0.0820784 -5.69052e-21)
(1.04806 -0.038119 0)
(0.871373 -0.0805615 0)
(1.01645 -0.00793189 1.35689e-21)
(1.00649 0.00100561 6.17635e-23)
(0.0287172 0.107405 0)
(0.917706 0.0958384 0)
(0.909679 0.0814904 2.81047e-21)
(0.207369 -0.0620523 -4.09663e-20)
(0.892157 0.118802 1.15704e-21)
(0.962441 -0.108281 8.41277e-22)
(1.05407 -0.0190835 4.15419e-21)
(1.00932 0.0240795 -1.62383e-21)
(1.07791 -0.0543245 0)
(1.08209 -0.0687458 0)
(-0.026335 0.0404913 2.37645e-20)
(1.01977 -0.000547038 -1.28837e-20)
(1.01173 -0.000833478 0)
(1.00673 0.0010779 0)
(1.00245 -4.32424e-05 2.89408e-22)
(-0.054442 0.0162782 0)
(1.02585 -0.0198776 8.19716e-22)
(1.03316 -0.00469949 -3.95428e-21)
(1.02165 -0.0799785 -3.57324e-21)
(0.452604 -0.153561 3.16834e-21)
(1.03236 0.00117702 1.57067e-21)
(1.06467 -0.0658884 1.02371e-21)
(0.958776 -0.0724691 1.89851e-21)
(1.01769 -0.0149182 2.97892e-22)
(1.0777 -0.0550019 -1.70924e-20)
(0.899866 0.128336 -1.63729e-21)
(1.06534 -0.0345067 0)
(1.02144 -0.0167747 1.5822e-22)
(0.308525 -0.00172291 -5.55595e-20)
(1.00065 -0.0566151 5.01413e-22)
(0.545396 -0.165943 -2.88606e-21)
(1.01974 -0.000576118 1.14639e-20)
(1.01227 -0.0013936 -1.01549e-21)
(1.00948 -0.00238233 0)
(1.04429 -0.0509026 3.29929e-21)
(0.428232 -0.00719848 0)
(1.06063 -0.0463088 8.08272e-21)
(0.293559 -0.0049015 0)
(1.03633 -0.00874292 -4.31437e-21)
(0.904219 -0.0795287 0)
(1.02229 -0.00487032 0)
(0.171733 0.0242362 0)
(1.02905 0.00443973 1.78721e-21)
(0.503365 0.0687052 0)
(0.997932 0.00386971 4.69203e-21)
(0.887988 -0.12533 2.30177e-21)
(1.05029 -0.0243179 0)
(1.01014 -0.000213479 0)
(1.09569 -0.0553782 1.1057e-20)
(1.0258 -0.0171829 5.4554e-22)
(0.903584 0.126935 -4.40328e-21)
(1.05432 -0.0285934 1.89782e-20)
(1.05077 -0.0235398 0)
(1.00111 -3.17924e-05 4.43996e-23)
(1.06274 -0.0624117 0)
(0.631465 -0.0797287 0)
(1.00774 0.0292304 1.5401e-21)
(1.00057 -1.36682e-05 0)
(-0.0520166 -0.0763229 5.75396e-21)
(1.0681 -0.0470028 -1.35408e-21)
(1.02066 -0.0130476 -1.44213e-21)
(1.05966 -0.0109651 0)
(1.00234 0.000109339 5.40743e-23)
(1.00848 0.0158394 0)
(1.07154 -0.0492368 1.30426e-20)
(1.00609 0.000885235 -6.76891e-23)
(0.888367 -0.0550299 1.81246e-20)
(0.97861 -0.010405 1.56695e-21)
(1.0009 -5.47267e-05 6.63885e-23)
(1.01049 -0.000184414 0)
(1.0239 -0.0157603 0)
(0.999842 2.05699e-05 0)
(1.00149 -8.49855e-05 -7.78177e-25)
(0.778294 -0.202111 6.27756e-22)
(0.659391 -0.0837649 0)
(1.00532 0.000576151 1.84462e-22)
(1.00469 -0.00032283 7.70987e-22)
(1.00988 -0.000620937 1.13463e-21)
(0.0169954 0.120813 -3.36873e-20)
(1.05855 -0.0114 3.91735e-21)
(0.936445 -0.0966737 -3.39632e-20)
(0.869591 -0.186457 -6.81666e-21)
(1.00296 -0.126774 -5.20381e-21)
(1.01425 0.000854946 1.51304e-22)
(1.00203 -0.150291 0)
(1.06415 -0.04688 3.48655e-22)
(1.01742 -0.0117346 7.94175e-23)
(1.05617 -0.0787298 0)
(1.01628 -0.0076795 -1.25835e-21)
(1.00738 -0.00173097 0)
(0.328309 -0.00607976 3.00464e-20)
(1.02226 -0.00456296 1.56795e-21)
(0.77541 -0.195081 -1.47151e-21)
(1.00712 -0.000739908 0)
(1.00527 0.000517981 -3.51741e-23)
(1.01111 -0.0563396 -1.67081e-20)
(0.0278669 -0.141725 -1.99997e-20)
(0.363938 0.104185 0)
(-0.0759515 -0.0763461 -7.3342e-21)
(1.01133 -0.00078482 0)
(1.01533 -0.00405571 -2.92521e-22)
(1.00852 0.00135286 0)
(1.03605 -0.0203152 1.17264e-20)
(0.910175 0.115734 -2.31881e-21)
(1.00722 -0.00054805 -9.8869e-23)
(1.05292 -0.0791489 1.11735e-20)
(1.03149 -0.0020337 3.20492e-21)
(0.915797 0.0481221 3.08571e-21)
(1.09081 -0.0473306 -4.2004e-20)
(1.01017 -0.000768097 0)
(0.0728907 -0.124995 1.96873e-20)
(1.00238 -5.52028e-05 1.22537e-22)
(1.0432 -0.0163942 -2.86924e-22)
(1.03528 -0.0201003 -8.35511e-21)
(1.01117 -0.00429975 1.58682e-22)
(1.02755 -0.0189233 5.72996e-21)
(1.08104 -0.0702096 0)
(1.0765 -0.0542156 0)
(1.00943 0.00189453 -5.06971e-25)
(1.06118 -0.0258179 -7.23047e-21)
(-0.0511733 0.0191652 0)
(1.0072 -0.00165046 -4.21681e-22)
(1.02628 -0.0278323 1.49002e-21)
(1.00746 0.00119939 -1.91377e-22)
(1.00651 -0.00312129 -2.20227e-23)
(1.06667 -0.0347845 0)
(1.01741 -0.0114711 0)
(0.535018 -0.100134 2.46891e-20)
(0.412398 -0.00487738 0)
(1.00471 -0.0005736 -1.67972e-22)
(1.01136 -0.00444487 1.67395e-22)
(0.318653 0.0845564 -1.11097e-20)
(1.00701 -0.00150771 -4.61086e-22)
(0.947199 -0.0542813 -1.40087e-20)
(1.06298 -0.0461998 -1.0434e-20)
(1.01492 -0.0029626 -7.93294e-22)
(1.06137 -0.10243 -1.86483e-20)
(1.00672 0.00109256 -2.90999e-24)
(1.04405 -0.0273725 4.69646e-21)
(0.977335 -0.0555379 1.71539e-20)
(1.02212 -0.00388936 3.59564e-21)
(1.04217 -0.0531256 -8.59618e-21)
(1.0056 0.000428741 1.16879e-23)
(1.00105 2.30219e-05 -3.3754e-22)
(1.01834 -0.015418 3.11975e-22)
(1.01171 -0.000927313 1.08842e-21)
(1.05703 -0.0654448 1.05908e-20)
(1.04552 -0.0608518 9.87592e-22)
(0.893914 0.129855 1.27465e-21)
(-0.0348169 0.0375886 0)
(1.0114 -0.000201591 0)
(1.06138 -0.03593 1.12815e-20)
(0.477129 -0.147761 -7.94888e-21)
(1.04159 -0.0160603 -6.71864e-21)
(1.0146 -0.00393509 2.95378e-22)
(0.861423 0.051454 4.9674e-22)
(1.01476 -0.00313987 1.00088e-21)
(1.00966 -0.00247146 0)
(1.01438 0.0014104 -4.53238e-22)
(0.372697 -0.183224 -1.30057e-20)
(1.00269 -0.000146051 0)
(1.01866 -0.00585794 6.66254e-23)
(1.045 -0.049884 0)
(1.02258 -0.0040924 -7.03028e-21)
(0.256127 -0.0446453 3.26745e-22)
(1.04597 -0.024705 -1.02461e-20)
(0.447995 -0.0175102 1.75055e-20)
(1.00795 0.00145212 0)
(0.689673 -0.0461278 1.10793e-20)
(1.02045 -0.0126758 -1.44456e-21)
(0.874086 0.0803599 -2.3221e-21)
(1.00651 0.000999992 -4.40907e-23)
(1.00828 0.0013965 -1.92157e-22)
(1.00831 -0.0276249 3.10634e-21)
(1.0201 0.00234148 2.40544e-21)
(0.126435 -0.0389186 0)
(1.02031 -0.00135358 0)
(0.462691 -0.0197671 -2.7629e-20)
(1.04592 -0.0253527 1.66702e-20)
(1.03725 -0.00905156 0)
(0.723249 -0.0597643 2.32014e-20)
(1.07184 -0.0744909 1.12784e-20)
(0.596368 -0.0380885 0)
(1.00052 1.81693e-05 0)
(1.05551 -0.0319053 -9.38805e-21)
(1.00176 6.41404e-05 -8.27443e-23)
(-0.0615324 0.0670012 1.19138e-20)
(1.00676 0.00107847 -4.37226e-24)
(1.04701 -0.0428383 0)
(0.942938 0.00639463 0)
(1.00457 -0.000519053 3.33588e-22)
(1.011 -0.000274856 -9.96629e-23)
(1.07856 -0.0503366 -1.37913e-20)
(1.00837 -0.0213515 1.62744e-21)
(0.308446 -0.0471226 8.21467e-21)
(0.955011 -0.0806881 -1.2009e-21)
(1.00856 0.00141047 0)
(1.01901 -0.00597524 -2.81456e-21)
(0.981876 0.0162111 3.37619e-21)
(1.00614 0.0542371 -1.47771e-21)
(1.01142 0.00234194 6.16636e-23)
(1.04699 -0.0504007 -2.95095e-21)
(1.0031 0.000165284 5.27148e-23)
(0.544539 -0.0321098 2.89586e-20)
(1.06722 -0.0480792 1.38286e-20)
(0.866821 -0.049702 0)
(1.03421 -0.0205971 -4.16752e-21)
(1.03769 -0.0274757 0)
(1.00902 -0.00454441 0)
(1.00364 0.0576327 1.51344e-21)
(1.03137 -0.0128359 -8.05483e-21)
(1.03501 -0.0208497 2.16996e-21)
(1.07703 -0.0447516 -1.45879e-20)
(1.09243 -0.0572349 2.68817e-22)
(1.04184 -0.0610507 0)
(0.991184 -0.0559941 1.74921e-20)
(0.39066 0.00268586 -3.19117e-20)
(1.02324 -0.00126314 -7.34059e-21)
(1.00825 0.00136141 0)
(1.02214 -0.0164481 1.05071e-22)
(0.829959 -0.0383889 0)
(1.00991 0.000933528 2.924e-22)
(0.988204 -0.111699 1.3579e-20)
(1.04099 -0.0162598 -5.00901e-22)
(1.03134 -0.0123178 4.35302e-21)
(1.0542 -0.0278462 -9.57189e-21)
(0.760036 -0.0629031 2.38649e-20)
(1.02342 -0.0127021 -1.1413e-22)
(1.00932 -0.00295855 0)
(1.04253 -0.0167209 8.32579e-21)
(0.929933 -0.0110859 2.06876e-21)
(1.06053 -0.0447678 0)
(1.03704 -0.0360524 1.28387e-21)
(1.00755 -0.00187846 0)
(0.907751 -0.0661757 0)
(1.01674 -0.0238923 0)
(0.605279 -0.0415493 -1.34864e-20)
(0.977427 0.0124972 8.5972e-22)
(1.01156 0.00249256 -7.91568e-23)
(1.00771 0.00136021 0)
(1.00259 0.000113397 9.19772e-24)
(1.07667 -0.0436981 1.44405e-20)
(0.804047 -0.032672 0)
(0.887156 0.0432346 0)
(1.00864 -0.00217629 -1.52586e-23)
(1.02098 -0.000158557 -1.64213e-21)
(0.918873 -0.00273222 -1.85074e-21)
(0.896476 -0.0320586 0)
(1.05275 -0.0831383 0)
(1.02633 -0.0195799 -1.95012e-21)
(1.03343 -0.00515513 -5.82145e-22)
(1.06434 -0.0377507 0)
(0.898937 -0.0554479 -1.94464e-22)
(1.00942 -0.109549 -2.75057e-20)
(1.02883 -0.0278456 0)
(0.517165 0.0628793 2.14054e-22)
(1.00788 -0.00209976 -7.21996e-22)
(0.564604 -0.0342757 -2.75637e-20)
(1.06091 -0.0251119 1.89524e-21)
(1.0426 -0.024706 -4.04521e-21)
(0.61872 -0.0430619 1.08504e-20)
(1.02151 -0.0112274 0)
(1.00283 0.0144314 -2.2031e-21)
(0.633975 -0.0416703 3.44701e-20)
(1.00837 -0.00209864 1.54207e-23)
(1.07282 -0.040749 0)
(1.05343 -0.0291642 7.52822e-21)
(1.02611 -0.0189711 8.97481e-22)
(0.0626224 -0.148811 0)
(1.02837 -0.0282554 3.79132e-21)
(1.02969 -0.0127302 7.5806e-21)
(0.698032 -0.0647806 -4.39896e-20)
(1.00672 0.00106478 1.55352e-22)
(1.03833 -0.0281669 0)
(1.01551 0.00276311 -3.06821e-22)
(0.648486 -0.0445427 -1.72739e-20)
(1.09239 -0.0539488 -9.41645e-21)
(1.02058 -0.00149649 0)
(1.07183 -0.046751 6.56449e-21)
(1.02101 -0.000945151 0)
(0.440698 -0.0042516 3.01972e-20)
(1.00622 -0.00653744 0)
(1.00125 5.98503e-05 0)
(1.01262 -0.00526668 -2.80355e-22)
(1.09172 -0.0540411 0)
(1.05522 -0.0306948 -8.77045e-21)
(1.044 -0.0152746 -1.49807e-20)
(1.02082 -5.40054e-05 -1.62101e-21)
(1.02152 -0.0110978 -2.80781e-21)
(1.02908 -0.0125813 -8.18141e-21)
(0.94703 0.0533044 0)
(0.184444 -0.0704871 3.73432e-23)
(0.52938 -0.132065 -6.18923e-20)
(1.02406 -0.0136965 0)
(0.659805 -0.0455968 9.57684e-21)
(0.720596 -0.106477 -1.18858e-21)
(1.02 -0.000575057 -5.25864e-21)
(1.06076 -0.0369047 0)
(1.04892 -0.0837559 0)
(1.03186 -0.0143544 -5.27434e-23)
(0.997547 -0.0161565 8.47449e-21)
(1.08239 -0.0644612 -1.97014e-21)
(1.05703 -0.105858 6.46342e-22)
(1.01552 -0.0100994 -5.41841e-22)
(0.757633 -0.0517826 2.11977e-21)
(0.60536 -0.0375701 3.22858e-21)
(1.02007 -0.000466542 4.92392e-21)
(1.00286 0.0227184 -5.59394e-22)
(1.00578 0.0266457 5.58638e-22)
(0.980326 -0.0362931 -3.34712e-22)
(1.04445 -0.0148872 1.54074e-20)
(0.993513 -0.0153441 -1.0936e-21)
(-0.068257 0.0597607 -5.73429e-21)
(1.01162 -0.0046362 0)
(0.769827 -0.0128079 -5.34734e-21)
(1.01251 -0.00518742 -2.17427e-22)
(1.02085 -0.000871073 -1.4704e-21)
(1.00365 0.000210451 -5.05704e-23)
(1.00627 0.000946201 7.35807e-23)
(1.01063 -0.00390115 -3.50744e-22)
(0.638151 -0.0408707 9.33129e-21)
(0.880448 0.0723535 -2.5328e-22)
(1.02123 -0.00782805 -3.51246e-21)
(1.07237 -0.0393925 -2.06244e-20)
(1.00742 0.00124726 0)
(0.488495 0.0675246 -2.47658e-22)
(1.03452 -0.0410507 3.61022e-21)
(0.814047 0.0640282 1.90507e-21)
(0.543824 -0.109467 -4.6423e-20)
(1.02122 -0.00810216 4.48235e-21)
(1.01716 0.00549153 -7.15572e-21)
(1.05152 -0.0298972 -1.89202e-20)
(0.834228 0.0410166 1.60147e-20)
(1.01534 -0.00693633 2.18325e-21)
(1.00531 0.000601853 -1.48133e-22)
(1.01252 -0.0132492 7.32256e-22)
(0.00556165 -0.0542631 7.72149e-21)
(1.01196 -0.00115337 -1.86137e-21)
(0.0947038 -0.133797 0)
(1.03043 -0.0172391 -3.8687e-22)
(1.08351 -0.0653462 -3.31922e-20)
(0.50709 -0.0981937 -5.84932e-20)
(0.985377 0.0556927 -3.46798e-22)
(0.980233 0.0500198 9.20087e-23)
(1.01416 0.000327097 7.56298e-22)
(1.00819 -0.00202728 1.10777e-21)
(1.01919 -0.000325148 0)
(1.02384 -0.0145262 -7.23398e-22)
(1.0729 -0.0460757 -1.61959e-20)
(0.129767 -0.11178 3.86322e-20)
(1.06853 -0.0340123 1.15534e-20)
(0.634775 -0.0410925 -2.08116e-20)
(0.627715 -0.0410919 0)
(1.00735 0.00122223 -2.27556e-22)
(1.0237 -0.00128174 4.64285e-21)
(0.524375 -0.127205 4.75628e-20)
(0.323247 -0.00495479 0)
(0.954745 0.0175506 -8.26876e-21)
(0.679777 -0.0794982 4.69378e-21)
(1.01128 -0.014186 -3.69483e-22)
(1.05207 -0.0308909 4.30041e-21)
(1.00043 -1.641e-06 0)
(0.783945 -0.103281 -8.56259e-23)
(1.00604 -0.00108788 8.29414e-23)
(1.03889 -0.0361698 3.96972e-21)
(1.01448 -0.00035241 0)
(1.02976 -0.00343903 -9.90851e-21)
(1.00206 6.715e-05 0)
(1.00818 -0.00199603 -1.14092e-22)
(1.00749 0.00122435 1.2202e-22)
(1.06634 -0.0646827 -1.88391e-20)
(1.00163 -0.0286332 -1.44876e-21)
(0.484589 -0.0093596 4.23196e-20)
(1.02204 -0.0155363 0)
(1.0724 -0.048216 -6.87661e-21)
(1.00812 -0.0174335 -1.47988e-21)
(1.01861 0.0337267 9.2583e-22)
(1.03659 -0.0290696 5.06681e-21)
(0.95594 -0.029807 -1.79821e-22)
(1.04201 -0.023955 1.17551e-22)
(1.00682 -0.0462491 3.03715e-23)
(1.00532 0.000508398 4.47818e-23)
(1.00795 -0.00191819 -2.80547e-23)
(1.0005 1.1744e-05 1.8611e-22)
(1.01672 -0.0824039 2.37229e-21)
(0.88658 0.123121 3.95651e-21)
(1.06687 -0.0751896 1.79848e-20)
(1.01 -0.0182836 1.56789e-21)
(0.455182 -0.00836911 -7.97424e-20)
(0.891245 -0.112898 1.58499e-21)
(1.00183 0.00676806 2.2876e-21)
(1.00911 -0.00062442 9.3493e-22)
(1.07987 -0.0502525 3.42752e-20)
(1.01513 -0.00666571 0)
(1.01332 0.0278757 -1.97419e-21)
(1.00223 0.000108834 1.25945e-22)
(0.86036 -0.00222803 3.79837e-21)
(0.951001 0.00205497 7.551e-21)
(1.04271 -0.0457216 0)
(0.444006 -0.0154121 3.90869e-20)
(1.01537 -0.00327614 1.07961e-23)
(0.999807 -0.0185401 2.95689e-22)
(0.929967 0.0274912 -5.39353e-21)
(0.099326 -0.0268589 0)
(1.00585 0.000479798 -2.03608e-23)
(1.05282 -0.0328707 0)
(1.06179 -0.0470029 9.60918e-21)
(1.02251 -0.0176459 1.19195e-22)
(1.0054 -0.000864667 -1.22394e-22)
(1.02845 -0.0128917 0)
(1.09041 -0.0462926 0)
(1.08165 -0.0676559 1.46289e-20)
(1.02079 -0.0132746 -1.65873e-21)
(0.373562 0.128273 -4.32362e-21)
(1.00083 3.16905e-05 0)
(1.01294 -0.00549243 1.2897e-22)
(0.0249112 0.108166 1.62708e-21)
(1.0252 -0.0280132 -6.88655e-22)
(1.00747 0.00128517 0)
(0.811277 -0.120619 0)
(1.00803 -0.00194097 -3.8503e-22)
(1.01816 -0.0132706 -2.32318e-23)
(1.00615 -0.00121248 0)
(1.01897 -0.038509 3.03715e-22)
(1.02643 -0.017312 1.07796e-21)
(1.00771 0.00138195 0)
(1.01517 -0.00349098 3.22839e-22)
(0.724057 -0.0711674 3.66435e-20)
(1.02272 -0.00520188 -3.80662e-21)
(1.06856 -0.0364894 1.82735e-20)
(1.00743 -0.000844552 6.32586e-22)
(1.01873 -0.00164038 0)
(1.0078 -0.0471281 -1.33435e-22)
(0.999689 -1.085e-05 0)
(1.01476 -0.0071131 0)
(1.0001 2.14921e-05 -1.28974e-23)
(0.999953 -2.71381e-05 0)
(0.942158 0.0338921 -5.18848e-22)
(1.03195 -0.0117701 9.94284e-21)
(0.991896 0.00484188 -4.97988e-21)
(1.02206 -0.00356715 -7.13683e-21)
(1.00103 1.09066e-05 0)
(-0.0737065 -0.137154 -1.2426e-20)
(0.429707 -0.0133874 -3.16708e-20)
(1.02348 -0.00422281 0)
(1.02003 -0.000402502 0)
(1.03753 -0.0294603 -1.31684e-21)
(0.986433 0.0709884 0)
(0.155375 0.0158095 2.69237e-21)
(1.01307 -0.00558945 1.18825e-22)
(0.887531 0.0985556 -1.86646e-21)
(1.01571 -0.0071625 1.27925e-21)
(1.05422 -0.0603562 0)
(1.031 -0.00458908 -3.73551e-21)
(-0.0721629 0.0749316 -2.32591e-20)
(1.00507 0.000384762 1.83795e-22)
(-0.0226052 0.053092 2.86682e-20)
(1.03613 -0.0646831 5.2891e-24)
(1.00649 0.00100459 0)
(1.02209 -0.00132286 1.0879e-21)
(0.57147 -0.0729384 -1.25501e-20)
(1.04633 -0.0429222 -6.83208e-21)
(0.899762 -0.0802253 2.14542e-21)
(1.00584 -0.00040751 0)
(0.868652 -0.141957 0)
(1.01096 -0.000676474 0)
(1.0064 -0.0012645 -1.45927e-22)
(1.00772 -0.00205455 -5.61241e-22)
(1.02991 -0.00186694 0)
(0.346966 -0.0095076 -1.85355e-20)
(1.07431 -0.0524565 -1.39899e-20)
(1.08804 -0.0614364 -8.0979e-21)
(1.08704 -0.0884949 -6.16367e-20)
(1.02454 0.00110791 -3.44637e-21)
(1.00965 0.00193904 -8.17625e-24)
(0.827959 -0.114929 9.6614e-21)
(0.894637 0.120639 6.99038e-21)
(1.04509 -0.027529 0)
(1.06046 -0.02654 0)
(0.993463 0.0609457 -5.58896e-23)
(0.880604 -0.184295 4.05987e-23)
(0.731945 -0.0486474 0)
(1.01809 -0.00035143 -2.52153e-21)
(-0.0791664 0.0669406 7.98726e-20)
(0.23588 -0.0383568 4.30725e-20)
(0.300912 -0.178405 -1.72826e-20)
(1.02729 -0.0286598 -5.3034e-21)
(1.02359 -0.00054976 -6.94508e-22)
(0.851971 -0.14391 6.21886e-21)
(1.00417 -0.0241701 0)
(1.08535 -0.0704557 8.7506e-22)
(0.857449 0.046019 -3.45267e-21)
(0.730162 0.0047989 5.33154e-21)
(1.02715 -0.0191895 -6.94501e-21)
(0.699673 -0.000129239 -5.42617e-21)
(0.964676 -0.0565919 3.29347e-20)
(1.00527 0.000443363 8.11699e-24)
(1.01119 -0.0210734 0)
(1.0758 -0.0526593 3.23931e-20)
(0.40496 -0.00779748 1.64061e-20)
(1.03382 -0.0212014 0)
(1.01843 -0.00406505 -1.27509e-21)
(1.01092 -0.0041295 -6.1139e-22)
(1.01742 -0.0071992 0)
(1.05914 -0.0644977 0)
(1.01232 -0.0281208 0)
(0.935849 -0.135746 -3.08525e-21)
(0.377793 0.112986 -6.11295e-22)
(1.00589 -0.00056784 -1.21868e-22)
(0.0276707 0.108613 -4.77015e-20)
(0.473544 -0.0169328 -1.74328e-20)
(1.01139 0.0398161 -9.92225e-22)
(0.900221 0.0915842 -2.35998e-21)
(1.06726 -0.0361983 1.63706e-20)
(1.00701 0.00111713 2.58548e-23)
(1.00777 -0.0018332 0)
(0.9907 -0.0194807 -1.95774e-22)
(0.797494 -0.112184 0)
(1.0441 -0.0168353 0)
(1.08995 -0.0514121 2.97269e-20)
(1.09484 -0.0567254 -2.63423e-20)
(1.00673 0.00108342 1.16924e-22)
(1.00311 -0.0189141 4.9033e-22)
(0.90819 -0.177657 -1.68282e-21)
(1.00883 -0.0373857 1.83998e-21)
(1.07812 -0.0669675 6.59367e-22)
(0.357021 -0.0108237 3.73679e-20)
(0.963572 -0.0558825 -2.88945e-22)
(1.0159 -0.00743174 2.54312e-21)
(1.0302 -0.00315192 -3.38717e-21)
(0.559371 -0.114206 3.52594e-21)
(0.616549 -0.0403197 -1.35676e-20)
(1.09098 -0.056103 -2.03887e-20)
(1.06945 -0.033163 1.93227e-20)
(1.03914 0.00295746 -1.5826e-21)
(1.0065 0.0010217 0)
(1.01483 -0.00446042 -1.58176e-21)
(0.824225 -0.00441175 -4.28593e-21)
(1.00647 0.00101422 1.60231e-22)
(1.03304 -0.0208982 -3.87939e-21)
(1.00672 0.00108518 -3.17703e-23)
(1.0083 -0.00153633 -9.78246e-22)
(0.944424 -0.0574801 -4.34089e-20)
(1.06278 -0.064755 0)
(1.01148 -0.0162872 1.20833e-21)
(1.00649 0.00102221 1.5993e-22)
(0.147767 -0.1346 0)
(0.869302 0.0824773 1.09277e-21)
(1.0082 -0.00223241 0)
(1.00268 -3.62436e-05 -1.33879e-22)
(1.01001 0.000979878 -3.08904e-22)
(1.01969 -0.000417392 0)
(-0.00515844 -0.0439442 -3.01132e-20)
(0.86247 -0.00670197 0)
(0.874713 0.0350764 3.53348e-21)
(0.247493 -0.19104 0)
(0.855763 -0.142636 -2.4564e-21)
(1.06866 -0.0313409 0)
(0.385209 -0.00454235 5.99405e-21)
(0.426223 -0.014069 -4.48396e-21)
(1.01618 -0.0108943 1.54632e-21)
(1.0646 -0.0354517 0)
(1.00714 0.00115386 -1.18454e-23)
(1.01569 0.00192867 -2.86602e-22)
(1.04152 -0.0376614 0)
(0.775752 -0.082386 0)
(0.763087 -0.0390679 0)
(1.08907 -0.051408 -3.00791e-20)
(1.04801 -0.0318899 -1.69371e-21)
(1.00701 -0.00156188 -1.59448e-23)
(1.03523 -0.036416 4.15524e-21)
(1.0134 -0.00463174 -6.48558e-22)
(0.898105 -0.0970272 -2.48234e-21)
(1.07312 -0.056372 -1.8114e-20)
(1.02164 -0.00335731 0)
(1.02328 -0.0132475 0)
(1.00534 -0.000855421 6.22759e-23)
(1.05548 -0.0266684 0)
(1.06506 -0.0770714 -1.12301e-20)
(1.03233 -0.00455281 3.73466e-21)
(1.01477 -0.00647177 -6.07448e-22)
(1.03589 -0.0412717 0)
(1.02986 -0.00772315 -2.03587e-21)
(1.05938 -0.0621595 -1.16727e-20)
(1.01964 -0.0757135 -2.31257e-21)
(1.07184 -0.0727653 -1.38811e-20)
(1.03309 -0.0368 0)
(1.09165 -0.055881 2.27815e-20)
(1.0068 -0.00149052 -1.64802e-23)
(0.976255 0.0190391 5.37385e-22)
(1.00815 -0.00588411 0)
(0.175509 -0.173375 0)
(1.02063 -0.0126159 1.34033e-21)
(1.00119 -5.58034e-05 -3.806e-22)
(0.918003 -0.0544776 -1.92488e-20)
(1.02332 -0.0169076 0)
(0.487279 -0.0814142 4.85598e-20)
(0.574257 -0.0343875 2.61361e-20)
(0.0153314 0.0229603 0)
(0.786597 -0.131281 0)
(1.00596 -0.00108014 7.2598e-23)
(0.974006 -0.0562739 -1.83499e-20)
(1.01178 0.00254048 -3.86512e-23)
(1.00818 -0.00172144 4.29109e-22)
(1.00506 0.000377093 -4.88994e-23)
(1.00839 -0.00170506 -4.86289e-22)
(1.01095 0.00266888 0)
(1.02255 -0.0148609 -3.27398e-22)
(1.01941 -0.0364308 0)
(1.00626 0.00095658 -1.06589e-22)
(0.658476 -0.0779217 -3.75016e-22)
(1.04014 -0.0652609 0)
(0.623924 -0.0846793 -2.74651e-21)
(1.01014 -0.00360556 4.66265e-22)
(1.0049 0.000346348 -3.04686e-23)
(1.00215 0.000104914 -1.26596e-22)
(1.04674 -0.0806049 -2.6786e-21)
(0.468617 -0.139322 6.96049e-22)
(1.08208 -0.0430643 3.83961e-20)
(1.05533 -0.0272728 0)
(1.01189 0.00238115 3.08361e-23)
(1.00086 6.1257e-08 -3.13479e-22)
(1.00487 -0.000349199 -6.05752e-23)
(1.01152 -0.00452677 1.40077e-22)
(1.1057 -0.065365 7.31656e-21)
(0.286706 0.153804 -1.44834e-21)
(1.02931 -0.0074549 2.06053e-21)
(1.00629 0.000961141 0)
(1.03024 -0.00150964 0)
(1.01149 -0.00452082 0)
(0.974803 -0.00730765 -2.5933e-21)
(-0.0403688 0.0233355 0)
(1.03629 -0.0368865 0)
(0.606516 -0.0899732 0)
(0.881322 -0.156793 3.33354e-21)
(1.01457 -0.00620425 -1.82504e-21)
(1.08686 -0.0618475 4.37237e-20)
(0.0735367 -0.0431703 6.24785e-21)
(1.06514 -0.0368017 0)
(0.432564 0.0899528 -1.72511e-21)
(1.03568 -0.00901999 4.34087e-21)
(1.02194 -0.0168118 1.29491e-22)
(1.08099 -0.0428307 -3.5635e-20)
(1.02229 -0.0158717 -9.25665e-24)
(0.866731 0.0855175 9.43189e-21)
(1.023 -0.0040047 0)
(0.865446 -0.175918 -5.66911e-21)
(1.00212 8.95352e-05 -7.83089e-23)
(1.07509 -0.0239929 3.01897e-21)
(0.465653 -0.0191107 -3.97393e-21)
(1.0099 -0.00229875 -1.80193e-22)
(1.02247 -0.0153034 -4.91847e-22)
(1.04167 -0.00203284 -2.16762e-21)
(1.00659 -0.00138655 5.74222e-22)
(1.04359 -0.02648 -1.06727e-22)
(0.879776 -0.00870566 1.91646e-21)
(0.251462 0.0156525 2.04548e-20)
(1.07156 -0.0560852 1.64177e-20)
(1.01406 -0.110622 2.83902e-21)
(0.975966 0.0695331 2.73543e-22)
(1.00648 0.00100682 -3.47329e-23)
(1.00989 -0.00343939 5.50853e-22)
(-0.0922426 -0.145775 0)
(1.09505 -0.0563525 2.07471e-20)
(1.00529 -0.0226526 -9.83414e-22)
(0.594228 -0.0367141 -2.64402e-20)
(1.00708 -0.00117354 -2.36889e-22)
(1.01644 -4.47177e-05 2.35161e-22)
(1.00523 0.000447941 -1.55586e-22)
(0.843806 -0.123927 0)
(1.06955 -0.0573317 0)
(1.029 -0.0254469 -7.04028e-21)
(1.0176 -0.0104504 8.6229e-22)
(1.01523 -0.0471184 3.59189e-22)
(1.05091 -0.0203839 -5.71094e-21)
(1.00233 0.000121139 0)
(0.0669851 0.0867889 1.17762e-20)
(1.08863 -0.0519564 2.43612e-21)
(0.541219 -0.0300157 0)
(1.00674 0.00107341 -1.47369e-22)
(1.02933 -0.00699911 -3.80605e-21)
(0.40202 -0.00613475 -2.31357e-20)
(-0.0134782 -0.0131605 -8.17769e-22)
(1.09423 -0.055126 -1.19605e-20)
(1.01297 -0.00421986 3.32211e-22)
(0.855126 -0.0531058 -2.5775e-21)
(1.0227 -0.00450248 4.86543e-21)
(1.01623 -0.0448068 6.63804e-22)
(1.02612 -0.051062 0)
(1.0415 -0.0458266 -5.57754e-21)
(1.03772 -0.0258259 1.91451e-22)
(0.0671694 0.0133607 -4.434e-20)
(1.01213 -0.000228525 -7.85202e-22)
(1.01129 -0.00350305 1.14015e-21)
(1.10616 -0.0553019 2.70253e-20)
(1.0014 -5.28908e-05 1.40605e-22)
(1.00161 -6.94132e-05 0)
(1.02667 -0.0179001 0)
(1.00665 -0.00142182 -7.9984e-25)
(0.0686589 0.0901914 -6.92196e-20)
(1.0434 -0.0355841 -1.16003e-20)
(1.08004 -0.0668693 -1.10521e-20)
(1.01285 -0.0169882 -4.39047e-23)
(1.01836 -0.0302422 -1.85912e-22)
(1.00718 -0.00164801 -4.69963e-23)
(0.870432 -0.0230567 0)
(1.00402 -0.000265381 -9.59931e-23)
(1.01298 0.000657872 -6.5696e-22)
(1.00466 0.000316843 3.83593e-23)
(1.01404 -0.00577521 0)
(1.01004 -0.00091881 3.138e-21)
(0.619328 -0.0404786 -3.01956e-20)
(1.01086 -0.00408516 3.65005e-22)
(1.00539 0.000689955 0)
(1.03893 -0.107421 5.55448e-22)
(1.03101 -0.00326073 -3.51991e-21)
(0.423014 -0.00968051 -6.81528e-22)
(1.00147 5.6746e-05 0)
(1.01445 -0.00443381 6.1737e-22)
(1.08282 -0.0505029 0)
(0.940749 -0.000931378 -5.71786e-22)
(0.880252 0.0148716 6.31941e-22)
(1.00521 -0.000428293 1.33331e-22)
(0.951639 -0.0088787 -6.00875e-21)
(0.624618 -0.0980285 2.00693e-21)
(1.03198 -0.0122756 -8.82703e-21)
(0.716505 -0.0502326 0)
(1.07388 -0.0238761 -1.64601e-22)
(1.00634 -0.00128777 3.72335e-23)
(1.00313 -0.00197879 -8.07523e-23)
(0.0413552 0.0996545 1.80248e-20)
(0.960853 -0.00473369 4.64164e-21)
(1.03523 -0.027686 -7.23569e-21)
(1.00577 -0.000493931 0)
(1.00607 0.000891419 0)
(0.92088 0.0762174 -4.48095e-21)
(1.03958 -0.0439932 0)
(1.01964 -0.05317 1.6858e-23)
(1.02838 -0.0270433 5.7601e-22)
(1.00309 0.000567114 8.36931e-22)
(1.01905 -0.000366815 0)
(1.01396 -0.00442114 3.30885e-22)
(1.09221 -0.0497356 8.76485e-21)
(0.895042 0.14394 -2.03488e-21)
(1.05527 -0.0639431 -1.08807e-20)
(0.775688 -0.0571321 0)
(1.02876 -0.00672634 3.27255e-21)
(1.0557 -0.06172 -1.12126e-20)
(1.0807 -0.0563495 0)
(0.669872 -0.0468222 1.95469e-20)
(1.02817 -0.0248143 5.89158e-21)
(0.164933 0.020003 0)
(1.09296 -0.0901216 2.55865e-20)
(1.03148 -0.00291548 6.95236e-23)
(0.337682 -0.0470842 0)
(0.985449 0.0145263 5.01338e-22)
(0.592067 -0.136747 1.84322e-21)
(0.273396 0.00227948 -2.36003e-20)
(0.645743 -0.0550893 7.30696e-20)
(0.966006 0.0840491 4.09289e-22)
(1.04196 -0.040355 -3.77918e-21)
(1.00646 -0.00134696 -1.08042e-24)
(1.02415 -0.0149394 3.30348e-22)
(-0.0640816 0.0204347 0)
(0.223539 0.00388752 2.45721e-20)
(1.01189 -0.00462603 0)
(1.00054 5.66685e-06 -2.25473e-22)
(1.07797 -0.0515934 0)
(0.92658 -0.0444262 1.78491e-22)
(1.00605 0.000870416 -5.39692e-23)
(-0.0246753 0.0165054 0)
(1.00681 -0.00111074 2.39953e-22)
(1.02225 -0.00738694 0)
(0.0418244 0.100019 0)
(0.409079 -0.00653127 -2.06706e-20)
(0.962129 0.0750025 -2.71483e-22)
(1.00816 -0.00177105 -2.54696e-22)
(1.02086 -0.000663465 1.50982e-21)
(-0.0191664 -0.00557958 1.43857e-20)
(1.1 -0.0655093 7.25769e-21)
(1.09052 -0.0556114 -1.81049e-20)
(1.01644 -0.00839838 0)
(0.557689 -0.12298 3.66496e-20)
(1.01198 -0.0438514 -2.13527e-21)
(0.527313 -0.133531 -6.72058e-22)
(1.07013 -0.0488569 9.20823e-21)
(1.07107 -0.03916 -1.08839e-20)
(1.02897 -0.0130195 0)
(1.03079 -0.00409403 -1.83084e-21)
(0.54783 -0.145854 -1.61069e-21)
(1.08485 -0.0392659 2.90837e-21)
(0.316589 -0.00523425 0)
(1.00884 -0.013229 2.28602e-21)
(1.06728 -0.0336454 -1.45942e-20)
(0.0933512 0.0790332 4.64683e-20)
(0.576076 -0.136925 -1.954e-20)
(0.454951 -0.0127417 2.07372e-20)
(1.02535 -0.00428149 0)
(1.06851 -0.0288449 -3.44602e-20)
(1.00804 -0.00214148 2.89136e-22)
(1.03434 -0.0373454 -6.57465e-21)
(1.02217 -0.0150055 2.35978e-21)
(0.339381 0.117748 -1.62469e-21)
(1.01114 -9.56957e-05 0)
(0.43808 -0.0228158 0)
(1.00585 0.000817726 0)
(1.08186 -0.0501792 1.01687e-20)
(1.01488 -0.00545057 0)
(1.01803 -0.0467415 1.81311e-22)
(1.0696 -0.0320973 -2.1007e-20)
(1.06718 -0.0289168 2.33998e-21)
(0.611283 -0.081636 -2.33601e-20)
(1.07551 -0.039489 0)
(1.01661 -0.0395607 4.21794e-23)
(1.00172 -0.000108592 -6.04027e-23)
(1.08089 -0.050956 -9.09061e-21)
(0.905452 -0.0193913 8.26329e-21)
(1.02392 0.0140704 9.26537e-22)
(1.03186 -0.0211156 1.73924e-22)
(0.399059 -0.00570899 2.64579e-20)
(1.00952 0.000913377 0)
(0.370254 0.0193075 2.37791e-20)
(0.902694 0.0955665 8.33349e-22)
(1.02614 -0.0109062 -1.02551e-22)
(0.661903 -0.0424706 -1.77839e-20)
(-0.0122952 -0.0662948 -2.11865e-20)
(0.436719 -0.0118145 -2.00262e-20)
(0.979835 0.0748585 -3.85808e-22)
(1.0083 -0.0109437 -1.36455e-21)
(1.01205 -0.00486273 -4.57513e-22)
(0.532388 -0.0282687 0)
(1.01635 -0.000193372 0)
(0.809055 -0.198802 -5.06349e-23)
(0.44248 -0.0176737 1.66518e-20)
(1.01027 -0.00369029 -8.45306e-22)
(1.04926 -0.0102992 -1.16111e-20)
(1.02463 -0.0854181 0)
(0.874518 0.114104 2.91234e-21)
(0.170846 0.0612028 9.25864e-22)
(1.02723 -0.00846393 -3.0637e-21)
(1.00321 -0.000108632 -3.86913e-22)
(0.494977 -0.169414 -1.55615e-21)
(0.455206 -0.0182493 0)
(1.07723 -0.0688437 1.07421e-20)
(1.03488 -0.0267107 5.10402e-21)
(1.01592 -0.00759895 -3.78373e-22)
(0.913864 0.107206 0)
(0.00857936 0.0918299 -5.25741e-20)
(1.08052 -0.0574778 0)
(1.00542 0.000700451 -6.06232e-24)
(1.04257 -0.0407316 0)
(1.00671 -0.00140893 -3.34778e-22)
(1.00541 -0.000230653 0)
(1.00018 0.0352877 0)
(1.00032 5.07493e-06 3.81419e-22)
(0.836854 -0.0189336 5.24208e-21)
(1.02127 -0.00681865 0)
(1.02224 -0.00768923 -9.16979e-22)
(1.01568 -0.00381945 -1.64258e-22)
(1.01225 -0.00495934 2.29223e-22)
(1.02728 -0.0182632 -2.36363e-21)
(0.347259 -0.00478 -1.09398e-20)
(0.565659 -0.0832413 0)
(1.05363 -0.0322008 3.97913e-24)
(0.15955 0.000603008 0)
(1.01492 -0.00529565 0)
(1.05174 -0.0325424 0)
(1.01178 -0.00465849 6.522e-23)
(1.00686 -0.00148307 4.01143e-22)
(1.02234 -0.0107208 0)
(1.02175 -0.00760918 7.68433e-21)
(0.388592 -0.00922601 -1.66823e-22)
(1.0236 -0.00454134 0)
(1.07987 -0.0434804 0)
(1.0255 -0.00465768 0)
(1.03617 -0.0280478 -6.39144e-23)
(0.989666 0.0386801 0)
(-0.0119177 -0.0273665 -2.59638e-20)
(1.00527 -0.00036822 -1.03448e-21)
(0.583661 -0.0996708 -3.33373e-21)
(1.02085 -0.0559537 2.78118e-22)
(1.0885 -0.0771873 0)
(1.04413 -0.0360245 6.47108e-21)
(1.04873 -0.0364315 0)
(0.308274 -0.00366312 0)
(1.05629 -0.0262315 0)
(1.01034 -0.023682 -9.04078e-22)
(0.3558 0.114564 1.46698e-21)
(0.867604 -0.111802 1.4948e-21)
(-0.0287176 0.0862109 2.81869e-20)
(1.0512 -0.0419929 -2.71301e-21)
(0.935409 0.0322336 1.45054e-21)
(1.02037 -0.0121405 0)
(1.07464 -0.0384229 0)
(1.06956 -0.0474173 3.15845e-21)
(0.156632 0.0409367 0)