/*--------------------------------*- C++ -*----------------------------------*\
| =========                 |                                                 |
| \\      /  F ield         | OpenFOAM: The Open Source CFD Toolbox           |
|  \\    /   O peration     | Version:  v2012                                 |
|   \\  /    A nd           | Website:  www.openfoam.com                      |
|    \\/     M anipulation  |                                                 |
\*---------------------------------------------------------------------------*/
FoamFile
{
    version     2.0;
    format      ascii;
    class       volScalarField;
    location    "850";
    object      omega;
}
// * * * * * * * * * * * * * * * * * * * * * * * * * * * * * * * * * * * * * //

dimensions      [0 0 -1 0 0 0 0];


internalField   nonuniform List<scalar> 
13851
(
0.0231905
1.22796
0.0735971
0.0229035
0.0750956
0.171926
0.021601
0.0437306
0.0206742
0.0852875
0.236398
1.92954
2.58552
2.82571
0.02141
0.0318068
0.0242787
0.027256
0.728914
0.0206686
0.0227556
0.0715385
0.0212465
0.0224141
0.0214269
0.0445004
0.0237205
10.6957
0.0230243
0.0236827
0.314667
0.0245502
0.0703127
0.364773
0.0224206
0.161968
0.332045
0.17593
0.0945129
0.383601
0.0212804
0.019739
3.05952
0.249774
0.267642
4.58075
0.254082
0.628137
0.0239162
0.090918
0.0693172
0.126985
3.51146
0.02157
0.022536
0.0197409
0.0213133
2.09011
0.0234932
0.0216254
0.15895
3.75356
0.0474762
0.0876567
0.894052
0.02465
0.987302
0.250675
0.032287
0.0271017
7.36291
2.61261
1.29638
0.0216817
0.0210218
0.020896
0.0687176
5.22737
0.044685
6.73838
0.0217979
0.232423
0.0213418
5.60136
0.0494165
1.9368
0.0544113
1.89339
0.0247312
0.0208999
0.162523
0.0337377
0.25335
0.0266983
0.024538
0.0221223
0.0772444
2.75819
0.110155
0.0221208
3.58266
0.0478896
0.0220604
0.0235013
0.0209157
0.0525683
0.0530324
0.0196423
3.41957
0.233572
0.0224757
0.020972
0.0302013
0.0229956
0.0224752
0.433073
2.82345
0.0196797
0.0230447
0.0230255
3.23106
0.0233902
2.63333
0.378181
0.611901
0.0216395
0.626638
0.046408
0.0225924
0.127187
0.0212635
0.0207176
5.97423
0.0213438
0.400558
0.0209102
0.0196926
2.49674
2.20031
2.49898
3.34067
0.0224764
0.0226123
0.02007
0.0228948
0.235744
0.070299
0.128192
0.0215866
0.279957
0.0719671
0.0225559
2.90059
0.0213681
0.022623
0.0228141
0.0210065
0.0227817
0.126618
0.0682607
0.0197399
0.0266887
2.08757
0.0207019
0.0267923
0.0199015
0.0843033
0.0327206
0.0224815
3.48069
6.43007
0.0203913
0.0210237
2.49484
0.0206935
0.605815
0.0448701
0.022583
0.811071
0.0196513
0.0252242
2.82838
0.0213445
0.0767294
0.0197175
0.0215081
0.0248292
0.0218403
0.0851512
0.0854168
0.247118
2.6781
0.0212073
0.0323538
3.44581
0.0224965
0.0223675
0.432556
0.0223951
0.0209278
0.0217284
5.54903
0.0241687
0.0212405
0.0675168
0.0213546
2.89146
0.0244077
3.14244
0.0196628
3.48838
0.02198
0.431998
0.0196085
0.0199875
0.232536
0.0477985
3.46444
0.0213444
3.09912
0.0245537
0.0218344
3.15031
0.122888
3.53813
0.021583
0.0284353
0.0210747
2.00535
0.0196057
0.0431811
0.614254
0.0203827
0.0211208
0.0618277
0.0403588
2.94337
1.34263
0.0200495
0.0212515
0.240804
0.139213
0.0201575
0.0729145
0.0205677
3.32904
0.0490566
0.408959
0.0228923
0.0250695
0.0277139
0.125994
0.0218088
0.0229701
0.0494719
0.100449
0.0784779
2.56412
23.2049
0.0214313
0.0200078
0.0263113
0.805574
0.0204694
2.17627
0.0224852
0.0217802
0.0262631
3.15963
0.0275532
0.0275407
0.0226159
0.895747
0.0422595
0.0309408
0.0207273
0.238272
0.0946461
3.77466
0.25561
0.0201727
0.0196245
0.0208477
0.0473887
0.800786
0.58237
0.0207847
0.0214412
0.89102
0.234291
0.147464
0.0232307
0.0216311
0.0345495
0.232888
1.86758
0.0262759
1.94745
0.020748
3.36721
0.0263533
0.0241556
3.73636
0.0215643
0.0581309
3.17988
0.0207634
0.0410932
0.0268104
0.0230556
2.24917
0.0264427
0.0217596
3.02882
0.0197864
0.0252862
0.0223246
3.82086
0.115394
0.0213439
0.0495016
0.0213772
9.85132
0.0306048
0.0212641
0.0212407
0.112628
0.027826
0.0225555
0.0214446
0.0215452
0.0217248
0.258254
3.43466
3.21067
0.0297615
3.77718
2.53822
0.0213674
0.0329337
0.149493
0.0345376
0.0529401
0.111445
0.783322
0.0249581
0.739543
3.2637
0.0214272
0.0837697
0.0794391
1.08138
0.0225483
0.0564102
1.99747
0.021049
0.741411
0.021229
0.0213897
0.0204379
0.0196402
0.0209513
3.33832
0.361631
0.0213421
0.039431
0.0198326
1.93891
0.0377045
0.627908
3.15703
0.0213527
0.0518505
0.0269029
0.630561
0.0211996
0.0196973
0.0293808
3.83377
0.0214084
2.3603
0.0350251
0.11933
5.11227
0.160285
0.174185
0.0254154
0.0207795
0.0220606
0.0286959
0.0489447
2.71999
0.0327391
3.60619
3.22001
0.0198456
0.0214385
3.53702
5.03683
0.423143
2.89372
0.0297964
0.0274446
0.0220377
2.5417
0.0205159
0.0311343
0.0248724
0.021537
0.0209588
0.0207371
0.019888
0.0851243
0.0493042
5.94809
0.0275923
0.0522955
0.0329542
0.106173
0.0258887
1.36638
0.0239345
0.249776
0.0196796
0.0207174
0.0217591
0.436445
0.324784
0.119464
0.0319131
8.05931
0.356321
0.0472717
0.0233358
0.063245
0.0211812
0.123985
0.0208993
1.95288
0.35125
0.0659989
3.24273
0.022683
0.158154
0.354045
4.49648
0.0196211
0.0286924
0.0459405
0.0294403
0.020471
0.0217355
0.0675023
0.119055
0.0311035
1.53178
0.0215679
0.0213014
2.16884
0.0275021
0.0196099
1.77565
0.0207692
0.0231652
0.0205541
0.0389159
0.0224735
0.0196443
0.0225073
3.04256
0.0213524
0.0347543
0.0208267
0.027708
0.227515
0.0231757
0.0212487
0.0230312
0.0230108
0.463951
0.0217637
0.0779762
0.0213444
0.0217654
3.08019
3.38508
0.0213787
0.0283994
0.0260418
0.17971
4.55861
0.0213151
0.362402
0.0212221
0.0749676
0.0215679
2.00811
0.0197711
3.99417
0.0790528
0.0197531
0.0284287
2.77965
0.0443963
0.283451
0.0228614
0.417498
0.0229495
0.0206401
0.0207342
0.0215491
4.02905
0.0620422
0.124695
0.459688
0.0457821
0.0197806
2.82746
0.313905
0.0253701
0.0268676
0.174908
0.35854
3.48995
0.0223873
2.0472
5.71742
4.57012
0.0271016
0.0290566
0.658282
0.151925
0.0800419
0.43061
2.10054
0.0229341
2.13254
2.81446
0.0196887
0.097045
0.0637222
4.16825
0.0230483
0.0212269
0.0209835
0.0212402
0.0834209
0.0370291
1.8808
1.51988
0.0207751
2.2564
3.14383
0.0980606
0.33815
0.0341424
0.0195837
0.0206941
0.224328
2.86397
0.0226991
0.0860663
0.160556
0.0197277
0.0388106
0.439659
0.258102
0.11034
3.80947
2.84013
0.0212402
0.0215496
1.30922
3.17187
0.12246
0.032609
0.0517973
0.0196513
0.021104
2.02294
0.0197071
0.0229686
0.0196373
0.0207897
2.86317
0.0837304
0.029502
0.0196963
2.63289
0.441082
0.0207746
0.0210239
0.02052
0.0219715
3.65671
0.420155
0.425812
3.69907
0.435605
0.0310299
5.73013
3.29791
0.02543
0.0327023
0.0195774
0.022169
0.0330714
3.0267
0.742585
0.0847002
0.0277168
0.0206273
0.0314051
0.0224752
0.273292
0.0690288
0.0213368
0.0304366
0.0204728
0.0260516
0.122699
0.0216013
0.0211615
0.0378446
0.021567
0.0763027
0.305446
0.117471
0.0318712
0.126612
0.0206123
0.143117
0.0289995
3.13044
0.0219149
0.0222103
3.27904
0.0232439
5.79959
3.24575
2.54581
1.6712
0.0205153
2.94324
0.0203379
0.0207838
0.0197638
0.0207979
0.0251534
0.0283148
0.0367454
0.01968
2.39117
0.0852461
2.43721
0.0209203
0.0198757
0.0208107
0.142242
3.42162
0.0506418
0.0263001
0.0203837
0.0218613
0.0216292
0.0210563
0.169822
1.7095
0.0215467
0.0196683
0.021561
0.0210482
0.9864
2.29797
0.0320064
2.70643
0.384264
0.0211462
0.123342
4.33688
0.034033
1.9363
0.0217827
0.0265088
0.0497236
0.0268068
0.434874
0.0213676
0.573533
0.0209311
0.0292965
3.07398
0.0209933
0.0227372
0.0503857
0.0206492
0.0248169
0.880136
2.6172
0.06719
1.73441
0.180076
0.0196232
0.0209007
2.90135
0.15254
0.0435071
3.27983
0.0205747
0.0241412
0.0197038
0.474817
0.962779
0.024978
0.0217546
0.208752
0.0238378
0.0207855
2.90666
0.10677
2.87505
0.019771
0.0215399
5.31006
4.81836
0.142988
0.0222468
3.34314
0.0213553
0.222483
0.130861
0.070026
0.0243987
2.97247
0.0264401
0.0230198
0.302597
0.0221084
0.0241264
0.0225975
0.0205942
2.92278
0.0304439
0.111765
0.0289756
0.141624
0.0206487
0.872167
0.0228287
0.0263126
0.0199597
0.021114
0.0214139
3.13663
0.0209693
0.0197322
0.518659
0.0215665
3.93688
0.0211305
0.0224993
0.066908
1.33707
0.355799
0.0209313
0.847967
2.71932
0.0217912
3.31475
0.0290275
0.0205664
0.0419703
2.85695
0.656341
0.0252196
0.0208941
0.0196554
0.325886
0.0784418
0.0569402
0.0258861
0.041008
0.0221041
0.022359
0.085101
0.331023
0.0829192
0.743778
0.0215228
0.0763343
0.0804159
3.84512
0.0248339
2.3755
0.315545
0.0215801
7.85181
0.0954984
2.70731
2.61883
2.95902
0.211047
0.0390333
0.0205813
0.0281711
2.09798
7.62124
0.021177
0.0217768
0.063885
0.233062
0.0197758
3.52055
0.0205519
0.0213568
2.3393
5.22
0.220117
0.0207735
0.021404
3.69708
0.179063
0.114344
0.0235507
2.79242
0.29103
2.89075
0.0522112
0.0386309
0.0217627
0.0215602
1.37621
0.0474085
5.78275
0.0309414
0.0322936
4.0821
2.72745
3.447
0.0214263
0.02965
0.0207622
0.0325373
0.0226595
1.89677
0.0242768
3.24136
0.0197736
0.0654928
0.0211211
0.146265
0.0315742
0.0292771
2.72304
0.0413222
0.0412732
0.0225584
0.0653665
0.616706
0.0579091
0.0230442
6.396
0.0204017
2.57841
0.362465
0.0215699
3.48875
3.83807
3.61299
0.172322
0.0297573
0.0211635
2.88091
0.0243408
0.598469
3.15625
0.0209266
0.0224839
0.353238
0.440939
2.07383
0.0215114
0.0209092
1.40864
3.10196
0.11114
0.0248286
0.0229069
0.341655
2.21842
0.0832362
0.0197378
0.0393473
0.0206633
0.0235455
0.105696
0.0221239
2.06922
0.205163
0.021364
0.0227804
0.0211857
0.0226435
5.92894
2.79047
0.0283338
2.45253
0.0211204
0.028349
0.0211212
0.0206781
0.021511
0.02135
3.94352
0.0213793
0.0497682
0.0214287
0.0253797
0.137005
4.44866
0.022902
1.36946
0.060452
0.444336
0.031151
0.031475
7.74646
0.0260659
0.0379422
1.89402
0.7674
3.05624
0.0382371
0.276807
0.0218295
0.0393562
0.0490973
2.1579
0.0214428
2.13182
0.0208839
0.0209373
2.69975
0.0215583
2.02706
0.0246296
0.0207482
0.0357736
0.020762
0.0214102
0.0206747
0.021743
0.193213
0.0209429
0.17996
2.07666
0.0602323
2.5815
0.0215437
0.0228837
0.0228324
0.0212492
0.0207411
0.0764991
0.0218436
0.0208452
0.0218018
0.0215138
3.82004
1.6751
0.0545357
2.86634
0.177358
0.021098
0.554929
0.0275396
0.0209343
0.275754
0.0513561
0.458394
0.0210801
0.25426
0.429429
2.10203
0.0204148
2.6308
0.0297597
0.0236038
0.020792
0.0205806
2.08089
0.0830476
0.506156
0.0209391
0.0213047
0.613226
0.0215866
1.3766
0.307201
1.53541
0.736064
0.310744
0.0217051
0.0213045
0.052075
0.0278895
0.0234902
0.14985
0.0399297
0.0218738
0.0227835
1.69462
0.0208653
3.51645
1.57724
0.610451
0.193301
0.0222807
0.0202034
0.0216431
0.290178
0.250212
0.0204144
0.0235587
0.020909
0.0744291
0.0198517
0.0208706
0.0218629
0.0313786
0.76666
0.0393942
0.0300865
0.0214722
0.0499295
2.524
0.0221128
7.9538
2.36674
0.0776038
0.019971
0.0422309
0.021221
0.021296
0.0215875
5.06388
0.115492
0.310324
0.0235565
0.240947
0.0212723
0.0210101
0.0215671
0.508747
0.943745
0.0197223
0.0310101
0.0522544
3.52462
0.0231568
1.29323
0.0251143
2.88377
0.0728715
3.31173
0.0865115
0.076512
0.435124
3.08189
0.291433
5.40873
0.0212757
0.138273
0.0198371
0.0231266
0.025512
0.0215649
3.14201
0.0284462
0.0266166
0.261186
0.168645
0.541123
0.0213596
0.0232767
0.0253647
0.0202839
0.0292345
1.33957
0.48397
1.08428
0.0209443
0.0261304
0.0239245
0.439848
2.96263
0.0515252
0.02018
0.0217892
2.08909
0.0430928
2.05626
2.73546
0.0628532
0.0199507
2.22553
0.0287067
0.041643
0.0274685
3.39173
0.291565
0.11828
0.156023
0.0221263
0.026729
0.0213651
2.86814
0.0450784
3.21375
0.131613
0.0253425
0.137455
0.0224509
3.41672
0.191085
0.0207667
0.202899
3.04224
0.270236
3.22575
0.0216421
0.0213245
5.64262
2.59665
2.02014
0.0227877
0.0215561
0.0213578
3.72849
0.134371
0.0217242
0.0538
0.0829105
2.57459
2.07962
0.590491
0.0214186
3.22571
0.0241378
0.021231
0.133066
3.69627
0.0216066
0.020877
5.84602
3.33618
0.0214097
0.0209288
2.16988
0.0207
0.2279
0.020945
0.419088
0.0213179
0.05059
1.10472
3.00855
0.0223045
5.12381
0.261515
2.31604
1.7496
2.8446
0.0550296
0.0211544
2.27316
0.0232129
0.0213764
0.0202552
0.462028
0.0211297
0.282254
0.0208934
0.0232186
4.96919
0.0627822
1.98565
0.0225775
0.0247646
0.0207258
0.031137
2.35064
3.24296
0.020867
0.0637212
0.304594
0.0215358
0.0205946
2.97393
0.0327422
0.033369
0.123849
2.58947
0.945298
1.89663
3.11436
0.0688564
0.252532
0.28316
1.63832
0.063578
0.0200859
0.121303
0.0211416
0.0211356
1.73792
3.02168
0.0228644
2.67238
0.0868648
3.82809
0.0807117
0.055414
0.0212052
0.0999304
0.0511674
0.0210941
0.0223884
3.23909
2.82072
1.29234
3.40257
0.0365787
3.2973
3.3511
0.0306153
0.021751
0.0210376
0.2317
0.0210005
0.176685
0.0223921
0.0219505
0.0230289
2.60844
3.7553
2.53184
0.0217777
2.38547
0.0245004
0.0282665
0.0209895
0.0207727
2.11925
0.0262681
3.31996
1.4324
0.0483511
0.110502
0.0214787
0.0385602
0.0215429
0.133953
0.0224253
0.022505
0.0217074
0.0224733
0.145476
0.0220024
0.0331573
0.0211609
0.033746
0.139243
5.82667
0.0210494
0.0458954
0.0212088
0.0550258
0.0225723
2.72383
0.141495
0.0303631
0.0233904
0.0224292
0.132293
0.0212288
0.189162
0.0214256
0.0209803
0.0222442
3.01528
0.0261894
0.0241921
0.0293206
0.0212887
0.0615565
2.92134
2.05652
0.0340415
0.0213732
0.0366778
0.0201271
0.0210637
0.194492
3.2223
0.0210434
0.0291076
0.119142
2.54732
0.0217628
0.0219311
3.24514
0.0223676
0.0583641
0.159563
3.82191
0.021329
0.0230534
0.0212405
3.48486
0.125048
0.039676
0.113296
2.5732
0.0222486
3.66518
2.04646
0.021538
2.68165
0.0777256
0.0224063
2.16965
0.0215142
0.021208
0.0205196
0.165065
0.0760233
0.151058
0.0225259
0.0221662
0.029045
0.347645
0.210454
3.71396
0.314837
0.021921
0.125619
0.126765
2.11775
0.0704968
0.232524
0.0210132
0.0292483
0.0205994
0.248743
0.0347351
0.0212339
1.79395
0.139232
0.0309863
0.0260133
0.0196625
0.0212184
0.0509572
0.0326629
0.569557
0.0635865
0.0627947
0.0573929
0.111547
2.01753
0.0565514
3.66086
0.021063
0.0208462
0.201082
2.5588
2.36243
0.120375
0.0227472
4.90977
0.300641
0.0210293
0.0256697
0.0208222
0.0394216
0.0673264
0.0443278
2.59286
0.224754
0.0224319
2.75527
6.42027
0.0214155
0.0864363
2.23972
2.08783
0.023444
0.0717631
0.0195982
0.0231392
0.0211112
0.0246747
3.64853
2.74057
2.48208
5.07274
0.0224242
0.0324286
0.0517549
0.0208997
0.0219105
0.0205875
3.04052
0.0209639
3.49467
0.0347515
0.0435567
0.150146
0.196765
4.69739
2.74095
0.038657
0.0198613
0.0222801
2.47589
1.33588
0.0242727
0.020789
0.0206559
0.0596573
0.0291532
0.136762
2.11711
0.0223992
0.0205406
0.115972
0.0334906
6.34958
1.04508
0.0209399
0.0689053
0.0214905
3.70751
0.0200102
3.30852
0.020968
0.0223413
0.0299046
0.0219533
0.0529929
0.0288379
0.0449809
2.12101
2.82934
0.024678
0.0287665
0.021198
2.62247
2.13771
0.0219005
0.0200761
0.289071
0.0196558
3.91691
0.0211065
0.031864
0.0658292
0.102285
0.0360239
0.0224997
0.0215798
0.0672722
3.29102
0.0211546
0.348935
2.95489
0.851462
0.16318
0.0318809
3.54779
0.0249319
0.235143
0.0212732
0.320282
0.309816
3.55378
2.20235
2.08732
0.0217587
0.0790814
0.0208695
8.2654
0.277353
3.14618
2.07657
0.0261242
2.03634
0.764912
0.0330852
0.0225422
0.0215907
3.41427
0.0249747
0.0668105
0.0236096
0.0215773
0.0206782
0.0215045
2.79482
0.195466
0.0298451
2.1334
1.98303
0.0213637
0.0213046
0.0205845
0.0270913
3.28053
0.193941
0.0248991
0.0248381
0.923918
0.0727997
0.042352
4.82139
0.0291084
3.57277
0.0292374
0.0281798
0.021282
0.0235417
0.0671367
0.381157
0.319976
3.23015
0.0662829
2.94628
0.024252
0.0239385
0.0214371
2.33584
2.53992
0.344201
0.056326
0.0232087
0.0213793
0.0210893
0.0214218
0.020606
2.67397
0.0281298
3.25068
0.0307785
2.6876
1.88724
3.34264
0.0350638
0.0253234
1.99246
0.0373493
1.63683
3.40488
0.0206262
0.0529119
0.0263659
4.24863
4.30106
0.0331421
0.0524626
0.39565
0.0232149
0.0473951
0.0241249
2.43724
0.358281
0.0235802
0.021575
0.313705
0.164774
0.123799
0.691515
0.121581
0.0273462
0.0212496
1.85361
3.22475
0.0733877
0.0297175
2.84179
2.67542
0.0208864
0.0214031
0.0237795
3.2104
3.06157
0.0213373
4.26073
0.0219556
0.0210593
0.0215476
5.76791
0.303528
0.0543603
2.42616
0.0226675
0.0224694
0.0209761
7.03071
0.0222802
2.76373
0.0235151
1.20053
0.0217732
0.0211416
0.118424
2.79292
0.275862
0.0341288
2.40202
0.0200016
0.0214809
0.0214129
0.0419786
0.0617206
0.061767
0.0341858
3.2509
0.0239319
0.119707
0.391865
2.00207
0.0214185
3.4195
3.13966
0.0245848
0.361718
0.0630218
2.9306
0.0215607
0.0648756
0.0211255
1.63199
7.40468
0.0802621
3.46208
0.02319
0.046919
0.0222896
3.93084
0.0199287
0.0208059
0.544142
0.0823626
2.70012
2.2911
0.0615998
0.0275555
0.020502
1.34386
0.0293257
0.0211523
0.137444
0.0205971
0.0413209
0.0213719
0.616579
0.0226502
0.243173
0.316487
0.0300218
0.0994163
0.0521898
3.73344
0.021281
1.12618
1.61801
0.0207319
0.0213527
0.0226098
0.0217983
0.0374042
0.0212686
0.0698164
0.0728832
0.180402
0.0573845
0.021452
0.0217935
0.0205133
2.92746
0.0214987
0.0212556
0.182927
0.0235687
1.21123
3.45474
0.084572
0.0237621
0.0320879
0.0224226
0.021942
0.0331674
0.0201355
0.0236803
2.37538
3.40264
0.530427
0.0223761
2.2951
0.773299
0.0218154
0.164851
3.12922
0.0213521
0.0232373
0.021312
3.08795
2.31271
0.57042
0.0201163
0.0236038
0.0231055
0.0215741
0.124555
0.0215024
0.0412012
3.38021
3.5781
0.0206082
0.0235508
0.0232352
2.40184
0.019651
2.22606
2.22154
0.170578
0.747512
3.62444
2.08763
0.0226117
0.572562
0.0713127
0.0222487
0.0204814
0.0208744
3.42905
2.09363
2.51702
0.0212049
3.60425
0.0215437
0.152225
0.0205342
0.022887
0.0221889
0.020597
2.38668
0.0223102
1.8912
2.71551
2.18776
0.0444709
0.0500212
2.27668
3.24291
0.0219093
3.85565
0.020519
0.0196986
0.0212942
0.0334698
0.0207574
2.09474
0.028875
0.227126
0.0352607
2.21172
2.10699
0.0917081
0.0205721
0.0525859
0.0711856
2.35058
0.0214504
0.0198237
0.0229776
1.85119
0.0215899
0.282158
2.02399
0.0394018
0.0570929
0.0214654
0.363178
0.0217324
3.31895
0.0202638
2.49944
0.0301818
0.0214963
2.03637
2.11812
0.0202044
0.0630448
0.0240347
2.62679
0.0453109
0.754181
0.213236
0.0217319
0.0526609
2.70423
0.0211341
0.0312505
0.0229593
0.0735848
0.0311375
2.20776
2.96568
0.0215082
3.45716
0.022247
0.0418232
2.96552
2.01185
0.0338958
3.04654
0.211528
0.0215867
0.300262
0.12328
0.0297253
0.0222644
2.69235
0.0202352
3.00697
0.1163
0.103638
0.02135
0.029327
3.25522
0.0422786
2.76648
0.0219661
0.0234272
0.114859
2.7823
0.0255126
3.28144
0.761435
2.13377
0.0215588
2.77553
2.33253
2.43697
0.021396
0.0219769
0.0212915
3.38225
0.0267498
0.356219
0.362056
0.0217519
0.0203281
0.0213666
2.39892
2.64722
3.5147
2.14117
0.0209637
2.73129
3.2525
0.125161
2.05283
3.11078
0.032773
3.05298
0.0230938
0.0251888
2.96586
2.75183
0.0218234
2.91558
0.021684
0.0213923
2.51793
3.04182
3.64101
8.79395
0.0299127
0.021759
0.023218
3.34896
2.09315
0.0211674
0.0446691
0.383623
0.0214249
0.0214934
3.03678
2.30257
0.022739
0.0214326
0.0221799
0.0223989
0.613948
0.0217811
0.0211825
0.0250511
0.148672
2.31973
0.0629634
2.81793
0.0215184
0.0241794
2.89863
3.27434
0.027131
0.188434
0.0213302
0.0341366
0.0225098
0.0222359
0.0625962
0.0211137
0.812783
0.0312
0.020864
0.0239046
2.42323
1.5505
3.5913
0.0214368
0.0247924
3.3765
0.503394
0.0236779
0.0213762
0.0214797
0.275316
0.0215068
0.0220121
0.027013
0.0213401
2.94827
0.0914776
0.0217138
0.0237497
0.0200524
0.0214988
1.49122
0.120294
0.0675294
2.01383
0.0510911
0.0218162
0.0213109
0.021491
0.0212574
0.0216993
0.0239747
0.0704132
2.92478
0.0225463
0.105623
3.47719
0.141604
0.0212136
0.0208224
0.0231989
2.34146
0.0212146
0.994978
0.236201
0.0417158
0.0221034
6.23508
0.0200535
0.0622588
0.0204429
0.0200839
0.0216389
0.0208569
0.0321503
2.68054
0.0869968
0.036705
1.4099
0.0863891
0.647411
0.0306168
3.07906
1.99087
0.104074
2.2831
3.08325
0.109684
0.364716
0.0217914
0.020775
1.7545
0.0210163
0.0238347
2.77002
0.0353766
1.94355
0.142519
0.0207864
0.0227145
0.0214705
0.0372074
0.0205013
0.0384935
2.79822
2.98062
0.967983
0.0214651
0.020271
0.0691965
2.56018
2.99466
0.110838
0.803991
0.0208747
1.39928
3.63562
0.419134
0.0234503
0.0214897
0.0199516
0.0230041
0.021412
0.0213074
0.0236408
2.94891
0.0736555
3.27927
0.0441232
1.81416
0.163045
0.021267
0.0210649
0.0220472
0.0205876
0.0217618
0.155524
2.32489
0.673253
3.57245
0.0231674
2.20499
0.135262
3.31809
3.34987
0.0214641
0.0208421
0.101029
0.0214601
0.0202203
0.388226
2.97172
1.77766
0.0213873
0.0214959
0.0237964
0.0362071
2.30026
0.0205384
0.0237807
0.290977
0.020361
0.334662
0.0357463
2.50418
0.0217507
0.207433
2.56662
0.0338466
3.2999
0.108365
3.36977
0.0200392
0.0245523
0.0208502
0.0287016
5.57064
0.0213738
2.20592
0.0218791
0.0216382
0.0214437
3.48135
0.0422042
0.107556
0.561559
0.0206834
0.0421262
2.21709
0.0524184
0.0208276
0.0228413
0.0214595
0.042727
0.0213086
0.0209267
3.59197
3.62672
3.36411
0.182284
0.442659
2.21291
0.0673828
3.68007
0.120099
0.0199802
0.0209263
0.0196686
0.0215861
3.39757
3.35702
0.020388
2.52935
3.46074
0.0284885
0.0224358
0.0247636
2.66155
2.99113
2.9978
1.29514
3.01848
0.0196699
0.19481
0.097043
0.263855
3.06425
0.0213306
0.123671
2.21319
0.031286
2.63631
0.0217376
0.0446379
2.22077
3.20434
0.0716347
0.0300538
5.1597
0.124669
3.25164
3.31189
2.92339
0.109643
2.71967
0.0215104
0.0245584
0.0449849
4.1335
0.312426
3.48954
0.0223492
0.110315
0.0679147
0.0225286
3.12846
0.0213513
0.124691
3.87881
0.0213617
2.12976
2.34489
3.29382
2.68912
1.45345
0.0814667
0.0210932
3.44557
0.021803
0.020933
0.0394526
0.0235191
3.2133
0.0237093
0.0249035
0.023733
0.020848
2.34965
0.0226693
0.112937
0.305613
0.020612
3.79328
0.0972615
0.0225612
2.29543
0.183638
0.0213492
0.481578
0.0219674
3.44237
0.0695799
0.0204214
0.111465
0.0227319
3.54114
3.06599
0.0693442
1.05397
0.0253132
0.021486
2.63262
0.0237322
0.0212962
1.69527
0.0390276
0.0208787
0.0208504
0.126407
0.0225547
3.79305
0.199282
0.0324602
2.81973
0.0506846
0.0594199
0.0211377
3.58362
6.23126
2.62897
0.0214005
0.0202986
0.0690323
0.0293748
0.389781
0.0213255
0.421205
0.0212503
0.195807
0.0219688
0.0339338
0.150652
0.110088
3.61569
1.44112
3.08439
3.04761
0.0197027
0.680644
0.831797
4.53519
0.0212173
0.154929
5.92532
2.3837
0.111423
0.678134
0.817317
3.67132
0.0437416
0.182728
0.0205832
0.0453936
0.0410373
0.0213161
0.0670155
2.71647
0.0647136
2.21527
1.25063
0.0211589
0.0208337
0.0292893
0.0213222
0.962461
0.0205681
0.0208082
3.79918
0.197313
0.0315549
0.0980691
0.0226401
0.0794127
2.1167
3.16111
2.01536
0.025085
3.1199
0.0227707
0.020579
0.023033
3.18148
0.203194
0.198354
0.197349
0.0222038
0.0208644
0.021322
0.0218078
0.0259726
3.25835
1.11961
0.0277904
3.1712
3.81501
0.0572443
6.67142
0.021417
0.028764
0.0691665
0.0214035
0.0234063
0.026142
0.0236469
3.53154
3.18603
0.0205632
0.0381592
0.0286463
0.0655697
2.42439
2.03643
3.61758
0.0216202
0.0786416
3.53849
0.0778186
0.111174
0.0857205
2.65898
3.75265
3.66878
0.0205326
2.72315
0.0203722
0.0228446
0.0213312
0.0574401
3.71736
6.56606
0.441921
2.98173
0.0539391
0.020163
0.0208065
0.0214957
0.0232952
0.0419891
3.70043
3.55784
0.0735833
0.610466
0.0215964
0.0536256
0.0206634
3.26711
0.0731826
0.0215451
0.132458
0.0985511
1.90846
3.67352
0.126549
2.78426
0.0242817
2.57514
0.193448
2.93348
0.278627
0.0226638
0.0532594
0.0214658
2.99295
2.3903
0.038424
2.26643
0.186623
2.18186
0.0631137
0.137174
0.0388781
0.0208928
0.115627
0.0563197
0.0238265
0.0530145
0.0298138
0.0312722
2.33223
0.146969
0.022881
0.0291961
0.0348598
0.0307031
0.0226823
1.99086
0.106615
0.33155
8.73733
0.0213824
3.26111
0.021462
0.0239864
0.0231378
3.19925
0.036249
3.31396
6.0551
0.0567708
0.0430139
0.113818
1.65317
0.128327
1.02265
0.024504
0.0438454
0.0209893
3.32166
0.403355
0.0244497
0.0215359
0.0354232
0.0254204
0.0239257
0.0471806
0.0381801
0.0215705
0.0325056
5.29433
3.9545
0.265365
0.0394134
0.0198003
1.71338
0.0311651
0.0616858
0.931034
0.0414087
1.96592
0.0202507
0.0244195
0.0239115
0.0317638
0.0212002
3.42169
0.295045
2.46141
0.0356056
3.2177
0.196728
0.0252053
1.68885
0.0631008
0.198921
4.92199
0.0412659
0.0236821
0.0390868
0.0638771
0.0240291
0.301124
3.86046
0.308787
0.0208983
0.19852
0.302848
1.9081
0.0212603
0.0422888
0.0211439
0.0295535
2.42503
0.0283875
0.0280891
0.0208881
0.020865
0.630075
3.11221
0.0213449
1.55422
0.20119
0.0201773
0.0248008
3.35619
0.110735
0.0990761
0.0213689
0.0264039
0.0995326
0.0217356
0.0210541
2.74512
0.0283626
3.38497
0.0794966
0.0255931
3.6971
0.111371
0.14989
0.0209304
0.444554
0.0291368
0.0259566
1.52547
0.0386798
0.0215306
0.0788992
0.0240915
0.0248049
0.0201619
1.55047
0.0213496
0.0662705
2.37786
0.0964132
0.0208781
0.581495
0.0297504
2.60497
0.152615
3.51495
0.102815
3.18426
0.0206937
0.0730499
0.0250161
0.0211226
0.434679
1.93904
0.0246029
0.726092
0.0243364
0.0689121
3.57805
0.0254853
0.05249
0.954306
2.43309
1.64145
0.172559
0.0236587
0.020769
0.0697022
0.0339457
0.591371
1.9717
3.25078
2.01444
3.42737
0.0208377
1.62767
0.0213981
0.0223013
0.0215353
0.415075
0.142224
0.0825653
0.0210343
10.5399
0.0266039
3.65341
0.0209637
0.0593957
0.0293548
0.0665994
0.040303
0.0997343
0.0226482
0.157237
0.121347
0.0209537
3.18796
0.194085
0.0469015
0.0227122
0.0289954
0.0216086
0.02106
0.0616676
0.0384472
2.08714
0.198133
0.0810618
0.883701
0.0212573
1.42475
0.0617054
1.98692
0.0293802
0.0298219
0.443249
0.0302605
0.155235
0.0634192
4.38085
0.0232078
0.0216091
3.06802
0.0306629
0.0233554
0.026958
0.029024
0.0205792
0.0258123
3.38381
0.0216667
0.0402347
3.35432
0.108404
0.0680691
0.934185
1.73774
3.53635
2.61854
1.32585
0.0527922
0.819528
0.0225399
0.024463
0.0214769
0.0209883
2.18796
0.393624
0.0306314
0.0207494
0.554281
0.0854993
0.0213191
0.0583625
0.050221
0.0212148
0.0227987
1.49337
0.0259693
0.0360004
0.0355017
0.0214604
0.0863252
0.0619403
0.0286587
0.189252
0.0734154
0.549834
0.258532
2.93368
0.0232857
5.04642
0.150845
0.13817
0.0628517
1.69153
0.0712826
0.0257113
0.0473925
0.0635955
0.023255
0.0679677
0.0210848
0.0212521
0.0200871
0.0240737
3.36694
0.0204585
0.100186
0.0241185
0.0234446
0.0238582
0.517166
0.023147
0.0586842
0.0215086
0.0239694
0.0244801
0.0208025
0.344792
0.0233308
0.0206231
0.0222062
0.0278707
0.0210568
1.97138
0.0265176
2.46606
1.1759
2.29804
0.0566081
0.0707537
0.116565
0.0387799
0.025075
0.0247171
1.86328
2.95526
1.64316
0.0611774
0.0306016
0.0214561
2.00563
0.0384155
3.20498
0.021663
0.992087
0.135164
1.43853
1.17901
0.020134
0.0214118
0.0203959
0.0282045
3.00779
0.0459958
0.989541
0.0252682
0.0282145
0.0210018
0.0218026
0.0324035
0.0233792
0.0236268
0.0210078
0.190258
0.287588
2.98512
0.0248803
0.40098
0.0207778
0.0203129
0.100591
0.0218713
0.0238097
0.0618906
0.0237959
0.0659556
0.0214184
0.0248069
0.0215237
0.0240777
3.30136
0.0212045
0.023311
0.0224804
0.023535
0.757043
0.0217437
0.0474102
1.46656
0.024195
0.0287414
0.0223269
0.0236663
0.0217393
0.125112
0.0214423
0.026074
2.60478
0.0208461
0.0283557
0.0476323
0.0591194
2.24505
0.0201079
0.0234643
0.0225698
0.0293431
0.093896
0.917309
3.1626
0.0202874
0.0278378
0.0805656
0.0240398
1.57074
0.0199959
0.021553
0.801305
0.0386412
0.0234054
0.0200595
0.150541
0.112054
1.96851
0.0215545
1.63606
0.0200323
0.0205551
0.0232657
0.0735879
3.76783
0.0215048
0.0209254
0.357117
0.0214478
0.0230394
0.191543
2.8001
0.0214393
0.0205331
0.0224243
0.0302523
0.184124
3.2547
0.0218075
0.100878
0.0214955
0.0213455
2.01097
0.0231038
0.0217876
0.0293802
0.193535
0.125641
0.0231237
0.0220882
2.40961
0.0387431
0.0222666
0.422317
2.66195
0.0214613
0.0216981
0.0229868
0.0213597
0.021454
0.0209165
0.0202616
0.0375309
0.0229064
0.0415694
0.0455338
1.97916
0.7897
0.0298125
0.0200876
0.0213514
0.0221207
0.022961
0.0386859
0.0280493
0.711931
0.0233236
0.0869788
0.0238964
2.76161
2.03487
0.027732
0.0230723
0.118656
0.0235347
0.0261667
0.0213862
0.0222252
0.0211086
0.0354638
0.039841
0.044273
0.101362
0.022972
0.025177
0.0221585
3.30572
2.55052
0.381843
0.0262492
0.127675
0.103315
3.00027
0.0218884
0.269744
0.0616827
0.0213931
0.0217637
2.30227
0.0214892
0.0223187
0.0230635
1.09147
0.0214715
0.0217136
0.0251571
2.37978
0.0209676
0.0486472
1.02922
0.0233334
0.0214947
0.0211471
0.021416
0.0217362
0.0216809
0.0363376
0.0228529
0.0214766
0.0216881
0.0217078
0.027774
0.0213688
0.278324
0.0215426
0.0216749
0.0363554
0.0332337
0.0342646
1.98817
1.04084
3.35899
0.0359502
0.0208874
0.0361324
1.99566
0.0202372
0.143867
0.0239824
1.02409
0.0230087
0.0413867
0.0217302
0.0213821
0.109057
0.211186
1.75969
0.27765
3.4463
0.0217009
0.0209724
1.98172
0.020208
0.0214826
3.15161
0.0210108
2.23803
0.0214361
0.163886
0.101761
0.0234738
0.611463
0.0258618
0.0726513
0.159584
0.403979
1.20399
2.78634
0.373112
2.1652
0.0215287
2.16898
0.0214507
0.021308
0.0210161
0.0218479
1.01388
0.0222867
4.84114
0.0214859
0.0213741
0.0215544
0.17177
0.0217402
0.0206008
0.0533605
0.0249168
0.0257879
0.0247579
0.0275169
0.199422
1.87249
0.0983396
0.917189
0.0936747
0.0222611
0.33559
0.0214467
0.0280282
0.0672206
2.70993
0.0398335
3.40722
0.0214576
0.76489
2.38514
0.138356
3.5698
0.283055
0.0233145
0.0213179
0.0236766
0.0214451
0.0213025
2.35544
2.25424
0.0210649
1.34928
0.0214139
0.102107
0.0209862
0.198971
0.0266179
0.0231814
0.0206806
0.540545
1.36958
0.354349
0.0206203
0.0206874
0.0257978
0.0221204
0.0221455
0.505097
0.0824655
0.0446468
1.94978
0.0401462
0.0217537
0.0306291
0.0680628
0.0218296
3.11723
0.052262
0.136985
0.0229304
0.0238548
0.0203251
0.0196514
0.0213657
0.0257434
0.0207924
2.17583
0.0367811
0.0715243
0.0212657
0.0388552
0.0214381
0.0570726
0.0377037
0.0515528
3.05826
0.0252777
0.0213283
0.0244129
0.0217711
2.3699
0.0714073
0.038727
0.0519253
3.4601
2.25275
0.10464
0.0472865
0.0213907
0.0228529
0.0230122
0.030579
0.0995901
0.0255967
0.0215285
0.482001
0.197009
0.0217225
0.023113
0.052556
0.0222086
0.0209646
0.0373846
0.021387
0.021829
0.0209395
0.0232919
0.0219672
0.042387
2.15951
0.0214597
0.333032
0.0936629
0.10254
0.0209306
0.021586
0.0751442
0.0254771
0.0214301
0.063375
0.0213362
0.0489495
0.0215606
0.0382941
1.67244
0.0512985
0.0224054
0.056004
1.78988
1.14589
0.0214277
0.0341392
3.27942
0.0211983
0.0221476
0.0736032
6.92717
3.31282
0.0235039
0.0213347
0.0281837
0.021218
0.0222268
0.0273917
0.0217241
3.50701
0.0217526
0.602338
0.0214411
0.0214633
0.0458931
0.0213644
0.0215323
0.0273701
0.794652
0.0205715
0.0353034
0.0218184
0.0211544
0.0217473
0.0272493
0.025125
0.0658713
0.0229048
0.0217064
0.0217818
0.0367967
0.022286
3.51514
0.021942
0.1032
0.0321438
0.0231267
0.0267959
0.989188
0.0214857
0.0219818
0.0200189
0.0773114
0.307204
0.0216563
0.0342995
0.0209425
0.0333002
0.0214462
0.276147
1.52925
0.0232461
0.0248538
0.0266846
0.0270335
0.0223474
0.0207448
0.045314
0.0214071