/*--------------------------------*- C++ -*----------------------------------*\
| =========                 |                                                 |
| \\      /  F ield         | OpenFOAM: The Open Source CFD Toolbox           |
|  \\    /   O peration     | Version:  v2012                                 |
|   \\  /    A nd           | Website:  www.openfoam.com                      |
|    \\/     M anipulation  |                                                 |
\*---------------------------------------------------------------------------*/
FoamFile
{
    version     2.0;
    format      ascii;
    class       volScalarField;
    location    "850";
    object      k_0;
}
// * * * * * * * * * * * * * * * * * * * * * * * * * * * * * * * * * * * * * //

dimensions      [0 2 -2 0 0 0 0];


internalField   nonuniform List<scalar> 
13851
(
0.000198727
0.000154243
0.000154038
0.0197656
0.00014843
0.00015667
0.00015489
0.000147586
0.0489114
0.000148399
0.000175911
0.000148437
0.000148977
0.027243
0.000167791
0.000198291
0.0179916
0.000148399
0.000224697
0.000198589
0.000170813
0.000155747
0.02821
0.000149734
0.0140559
0.000182913
0.000190521
0.00496184
0.0447051
0.000146666
0.0461591
0.000154865
0.000198476
0.0658024
0.000169284
0.0442567
0.00014981
0.0124266
0.0674604
0.000148798
0.068079
0.0466337
0.00638003
0.00021393
0.04933
0.000147579
0.000145605
0.000198097
0.000152371
0.000148941
0.0255937
0.000149219
0.000198289
0.000163389
0.025416
0.000148802
0.000198897
0.0658274
0.000122454
0.0293982
0.000148488
0.000234443
0.000148588
0.000152636
0.000180955
0.000181411
0.0240684
0.000165918
0.000149038
0.0288714
0.0415053
0.000175373
0.000148464
0.0262343
0.000164718
0.000152608
0.0234823
0.000145923
0.0105749
0.000147694
0.000149105
0.000224395
0.0001688
0.0295179
0.0304785
0.0451035
0.000155992
0.0196522
0.000148347
0.0459131
0.000149337
0.000155025
0.00964849
0.0406921
0.0607859
0.000196766
0.000147731
0.000199451
0.0264882
0.000192567
0.000200498
0.000162083
0.000162959
0.000148729
0.000147577
0.00017409
0.000147568
0.0439149
0.000154991
0.000148255
0.000159596
0.000147596
0.000199912
0.000177885
0.000198015
0.000162597
0.000146485
0.000147105
0.0172026
0.0323486
0.000187711
0.000147533
0.000148959
0.0473624
0.000218618
0.000172158
0.000147723
0.000171054
0.0626217
0.000174194
0.000155667
0.000161746
0.00378104
0.0650598
0.000176495
0.0607282
0.000165655
0.0436538
0.000160053
0.000174089
0.000220117
0.000150447
0.000148371
0.000170932
0.0197587
0.000152169
0.000145864
0.0412312
0.0390661
0.000171689
0.000200325
0.000198651
0.000179023
0.000217297
0.000149521
0.000148653
0.000148586
0.0635056
0.000171856
0.000153531
0.000149583
0.044571
0.000173507
0.000198145
0.0278125
0.0523178
0.0532897
0.0302653
0.000159341
0.0640972
0.000148593
0.000146486
0.000177831
0.000148825
0.0643073
0.000221298
0.000202735
0.000146415
0.00016475
0.000201999
0.00021559
0.000213713
0.000158828
0.000173941
0.00741087
0.039722
0.000198521
0.000157345
0.000149312
0.000147087
0.00612661
0.000171811
0.0219771
0.000156883
0.000151908
0.000198899
0.000197738
0.000149456
0.000149458
0.000166581
0.000220639
0.0644705
0.0665048
0.000167799
0.000337428
0.0605416
0.000152275
0.000173953
0.050199
0.00015581
0.000197821
0.000148899
0.000223118
0.000149531
0.000169893
0.00015368
0.000148855
0.000215568
0.00014954
0.00049845
0.000146384
0.000198407
0.0253173
0.0624013
0.000157027
0.000174256
0.00014974
0.00016971
0.000148026
0.000169563
0.0334932
0.000157001
0.000155761
0.000148719
0.0645026
0.00014665
0.0130603
0.0657719
0.000189268
0.000149645
0.000268198
0.0309789
0.0494983
0.000197678
0.000164391
0.000173878
0.000210179
0.000165012
0.000195683
0.000160979
0.0207767
0.000197554
0.00014712
0.000156989
0.000199731
0.0433418
0.0226628
0.000147034
0.000172619
0.000148311
0.000209076
0.000217234
0.000157548
0.000174121
0.000198197
0.000148146
0.000162408
0.000194425
0.00222135
0.000148476
0.000148835
0.000157211
0.0572916
0.0120447
0.000173733
0.00014769
0.000217326
0.000217209
0.000195229
0.000173666
0.0563765
0.0256597
0.000157894
0.000165214
0.0186064
0.000147551
0.00014858
0.00019596
0.00017299
0.0001467
0.000149511
0.000147976
0.000147864
0.000164399
0.000148534
0.0504519
0.000172015
0.000148273
0.0430827
0.0447957
0.000149283
0.000198889
0.0258049
0.00015067
0.000149368
0.000173226
0.0283681
0.0787916
0.000180439
0.000148348
0.0604229
0.00014854
0.000182039
0.0308393
0.00111549
0.000153235
0.0081346
0.00064945
0.0491102
0.000197805
0.000162429
0.0658777
0.0534732
0.00482825
0.000149679
0.0253676
0.00793181
0.000208743
0.000205141
0.000152306
0.000179816
0.000157713
0.0207517
0.000163599
0.000146997
0.000144916
0.000157648
0.0455626
0.000375444
0.000147489
0.0596694
0.000157765
0.000162004
0.000153753
0.0245297
0.000215419
0.000198999
0.000153316
0.000155119
0.0425016
0.000149341
0.000218862
0.000157787
0.000173148
0.000158337
0.000148331
0.000148246
0.000194265
0.00019544
0.000197841
0.0014315
0.043296
0.000152283
0.0637261
0.000216008
0.000146599
0.00205191
0.000188939
0.0310828
0.000157148
0.000184266
0.000232144
0.00414263
0.000192785
0.0231704
0.000150783
0.000214876
0.00693481
0.000161693
0.0255091
0.000163838
0.0689297
0.000164872
0.000170869
0.000197391
0.000206337
0.000148663
0.000157234
0.000173998
0.000165014
0.000147741
0.000174029
0.0572094
0.00014844
0.000173995
0.0121493
0.000153761
0.00092274
0.000173416
0.0810165
0.00015646
0.000181667
0.000298835
0.000217637
0.000173491
0.0192322
0.0264323
0.000301515
0.000148185
0.000193827
0.000163885
0.000183917
0.000147564
0.00746805
0.0629051
0.00808856
0.000155053
0.00019789
0.000234368
0.0131427
0.000145518
0.0189156
0.0002119
0.0301793
0.000161577
0.00934598
0.000148544
0.000148748
0.0217264
0.00023352
0.00014841
0.00015427
0.000174474
0.000146701
0.0580584
0.000180113
0.00018848
0.000156972
0.000150821
0.000149294
0.00268805
0.000148231
0.000149222
0.0293142
0.0551525
0.000155161
0.00023002
0.000148631
0.000148524
0.000154284
0.000198244
0.000173257
0.00014783
0.000151486
0.000187022
0.000152689
0.0792148
0.000148401
0.000159418
0.0499685
0.000160628
0.000145237
0.000148716
0.000156836
0.000149964
0.000295781
0.037301
0.000164617
0.000635111
0.000154387
0.000148293
0.0594971
0.000225082
0.000160039
0.00014855
0.0511856
0.000159511
0.00132401
0.000148733
0.000162069
0.000193578
0.000166376
0.0572437
0.0002276
0.00307878
0.000152514
0.000198874
0.000148143
0.0434663
0.000173299
0.000197711
0.000163694
0.000152997
0.000160652
0.000178282
0.000148506
0.0139438
0.0577815
0.0794054
0.00707538
0.0355268
0.0344089
0.000218281
0.00015653
0.000149329
0.00159257
0.000148399
0.000147711
0.000157688
0.0668654
0.000153931
0.000150444
0.000172821
0.000172627
0.000148475
0.0744552
0.000147721
0.0638103
0.000274422
0.000147687
0.000153024
0.000214319
0.00218643
0.000146723
0.0396857
0.0103515
0.000146822
0.0581791
0.000224146
0.000198075
0.000152468
0.0272855
0.0303222
0.000147043
0.0002255
0.000148987
0.000147736
0.0218392
0.0698979
0.000167948
0.000172684
0.000148421
0.000179177
0.0640789
0.0635141
0.00014785
0.0245947
0.000147798
0.000149054
0.000173687
0.000159574
0.000145484
0.00015261
0.0600697
0.000203819
0.0563735
0.000153382
0.000148297
0.0570096
0.000149128
0.000194561
0.00015921
0.000164719
0.000164153
0.049045
0.0302755
0.000156719
0.017604
0.00015275
0.00017937
0.0474283
0.0312057
0.000148928
0.000148179
0.000163015
0.0575854
0.00022252
0.000178767
0.00558821
0.000159753
0.000164073
0.0418299
0.0780712
0.000180666
0.0622205
0.000206914
0.0450863
0.000150239
0.00011677
0.00061072
0.000148428
0.0111281
0.0826806
0.00015938
0.000174043
0.000148702
0.000519183
0.000174628
0.0454297
0.00014826
0.000149019
0.000155301
0.000172173
0.000148466
0.0637178
0.000148979
0.000206231
0.000152509
0.000184422
0.000148706
0.000148498
0.000167012
0.0248535
0.000173206
0.058712
0.00016211
0.000146778
0.000147253
0.000178073
0.000151449
0.000187223
0.0001547
0.000159764
0.000123879
0.000149139
0.0187348
0.000149666
0.000189937
0.0201607
0.0521476
0.000156723
0.0329967
0.000172269
0.000200769
0.0830298
0.000148272
0.0803446
0.000157826
0.000162514
0.00904955
0.000371035
0.00014674
0.000186704
0.000149357
0.0437647
0.0265323
0.000149419
0.000166424
0.0609693
0.000149736
0.000149656
0.000183152
0.0156389
0.0173348
0.000149383
0.000197192
0.000152283
0.000148526
0.000120398
0.000197645
0.000191856
0.000145299
0.000194446
0.000163592
0.00018008
0.000150527
0.00015163
0.000173453
0.000155105
0.000196363
0.000175196
0.000175113
0.000177583
0.000140164
0.000225797
0.0484164
0.0266359
0.000199169
0.0359176
0.000163093
0.025331
0.000198946
0.000148135
0.000163495
0.000221071
0.0001568
0.000147699
0.000147652
0.000190094
0.0207777
0.000159639
0.0629823
0.000146809
0.0213774
0.000177474
0.0245376
0.00018623
0.000156631
0.00015408
0.0287568
0.000191855
0.000162734
0.000234616
0.000150458
0.00123892
0.000190223
0.000206575
0.000163045
0.000243427
0.000148527
0.000149607
0.000151857
0.000148539
0.0476009
0.000147858
0.000156832
0.056296
0.000186765
0.0652683
0.0292804
0.000208034
0.000204255
0.000156646
0.000149133
0.00014876
0.00014595
0.000147229
0.00014884
0.000179813
0.000199275
0.000164283
0.00344456
0.000151534
0.0488625
0.000149953
0.0228908
0.000167577
0.00014988
0.000148813
0.0524778
0.000156914
0.0168936
0.0822679
0.000173022
0.000182097
0.000146675
0.0655697
0.000153308
0.000154032
0.000123404
0.000149154
0.000150413
0.000148038
0.000173296
0.0221723
0.000159941
0.000163472
0.000215636
0.0597517
0.000157023
0.000156072
0.0466983
0.00014591
0.0458936
0.000149287
0.000152755
0.00877752
0.00018664
0.00019768
0.000182341
0.000173438
0.000149468
0.000149953
0.000180684
0.000150394
0.000149524
0.00016033
0.00021017
0.000147748
0.000197072
0.000634272
0.0109691
0.000182133
0.0459744
0.00016024
0.000149099
0.000191778
0.0001469
0.000157354
0.043974
0.0429405
0.0798641
0.0474808
0.000149597
0.000149293
0.000168698
0.000151329
0.000147404
0.0228144
0.000209789
0.0272149
0.000190149
0.000187051
0.00014858
0.000146711
0.00122443
0.000188482
0.000153308
0.000149657
0.00019761
0.000201537
0.0646974
0.000149484
0.000148927
0.0189084
0.000150477
0.000164003
0.000146717
0.0682655
0.000147984
0.0226808
0.00014846
0.000186687
0.000168907
0.000168353
0.000163345
0.00014846
0.000154249
0.000148006
0.000177868
0.00015047
0.0268181
0.00015067
0.0125163
0.0595086
0.00016174
0.000147869
0.0135185
0.0375454
0.000157266
0.000186546
0.000148746
0.0182003
0.000148253
0.000219974
0.000148352
0.000147983
0.0125068
0.000164359
0.000148647
0.000163869
0.0634053
0.000402121
0.0647751
0.000147021
0.0383602
0.000148437
0.000147795
0.000149508
0.000144523
0.00014952
0.071618
0.0475733
0.00014959
0.000148952
0.000168354
0.000147608
0.0170235
0.000192641
0.0315975
0.0672916
0.000154177
0.00019629
0.000148382
0.000170662
0.000174537
0.000148156
0.000149348
0.000374196
0.0282963
0.000181536
0.00882693
0.000180435
0.000148611
0.000169208
0.000186897
0.0213756
0.000163389
0.000667947
0.000189001
0.00014945
0.0559322
0.0554976
0.0272353
0.00379152
0.0205298
0.000152441
0.000173566
0.000149237
0.000116923
0.00015632
0.000147018
0.0684596
0.000151307
0.000147875
0.000148935
0.000151024
0.0650689
0.000219312
0.000147143
0.000169696
0.0282522
0.000151724
0.00805467
0.000151537
0.000185739
0.0691863
0.000148555
0.000234181
0.000159199
0.00016279
0.000476361
0.000151289
0.000222756
0.0001813
0.0668883
0.000149754
0.0249611
0.000161278
0.0398175
0.0225562
0.0201576
0.000173086
0.000148556
0.000149666
0.000149735
0.000169694
0.000148748
0.0592076
0.000158195
0.000156432
0.000156858
0.000152336
0.000146968
0.000158517
0.000157402
0.000153001
0.00015672
0.0830071
0.000193334
0.000160858
0.000168835
0.0675246
0.000150529
0.0489042
0.000145958
0.000160657
0.000150497
0.000148156
0.000166162
0.000148262
0.000147102
0.000162386
0.000148699
0.000208084
0.000151066
0.00983434
0.000226035
0.000209994
0.000217947
0.000149033
0.0616964
0.000201672
0.000149468
0.000157244
0.000150236
0.0525517
0.000151526
0.000162433
0.00125343
0.0100132
0.000176427
0.000149192
0.0496728
0.000764299
0.0241955
0.000159098
0.000146722
0.000147766
0.000180508
0.000148545
0.025991
0.000194944
0.000149261
0.000216
0.000210704
0.00014794
0.0827775
0.0206208
0.000208817
0.000150922
0.0490225
0.000179653
0.000148025
0.0219814
0.000155848
0.00014774
0.000147755
0.00016373
0.000169897
0.0530004
0.0493412
0.000170633
0.0536347
0.00016511
0.000148368
0.000168288
0.000147686
0.000702775
0.000148017
0.000148174
0.000152892
0.000150292
0.0578568
0.0204643
0.000218088
0.0295103
0.0847825
0.000157015
0.000148485
0.00015107
0.000223961
0.000147929
0.000148434
0.000168214
0.0114638
0.00022204
0.000145935
0.000164902
0.000163604
0.000197767
0.00750317
0.000146816
0.000145382
0.000153059
0.00276093
0.000160257
0.0642236
0.000151588
0.000149008
0.000147793
0.000147739
0.000153666
0.000208081
0.0452832
0.0516486
0.000156841
0.000148297
0.00081931
0.00014999
0.0133104
0.0370882
0.000158018
0.0281065
0.0466976
0.0413669
0.000177677
0.00016318
0.0427528
0.000161664
0.000160083
0.000169008
0.000200842
0.000150248
0.000473791
0.000148394
0.0392888
0.00577471
0.000145985
0.000152661
0.000166429
0.000221076
0.000164372
0.000148859
0.000159485
0.000151532
0.000156649
0.000230975
0.00014901
0.0409428
0.0221767
0.000148432
0.000162319
0.00016956
0.000148466
0.0420649
0.0106629
0.0636886
0.0318348
0.00014818
0.000153945
0.00015654
0.000149539
0.000217687
0.000164761
0.000149682
0.000180367
0.000154762
0.0248366
0.000169054
0.0238608
0.000151405
0.000151758
0.000163779
0.000188172
0.000182044
0.000148144
0.00846294
0.0434626
0.022266
0.0388874
0.0434463
0.0523698
0.0378893
0.000148141
0.000148281
0.000148733
0.000221283
0.000172787
0.000181722
0.0141711
0.000149542
0.000145645
0.000148423
0.000209184
0.000145796
0.000157618
0.000152448
0.0244298
0.000151056
0.000146939
0.000148503
0.00014819
0.000149001
0.000159837
0.000217273
0.00016017
0.049018
0.00014826
0.000147762
0.0624436
0.0616592
0.0194606
0.013311
0.000163523
0.0201329
0.000146682
0.000168647
0.000151745
0.000148483
0.000154381
0.0269199
0.000151786
0.000188563
0.00125752
0.000149667
0.000148084
0.000155073
0.000208574
0.000149797
0.02461
0.000148649
0.000210313
0.000148766
0.000149561
0.000157449
0.000170609
0.000149009
0.000171355
0.0424516
0.000203342
0.0646171
0.000148544
0.025306
0.000165196
0.000148299
0.00521403
0.000149517
0.00016187
0.000149323
0.000149414
0.000147608
0.000148517
0.000150021
0.000155692
0.00018147
0.000149387
0.000148594
0.000165352
0.0001466
0.080974
0.000148771
0.000162694
0.000165036
0.034029
0.000508468
0.000148904
0.000209095
0.000146671
0.000162266
0.000172132
0.0102
0.000174219
0.0001498
0.000193526
0.000167731
0.000186823
0.000202414
0.000160693
0.000196098
0.000178743
0.000182034
0.000150954
0.000147595
0.0104698
0.0115405
0.000154066
0.000148001
0.00869305
0.000146849
0.000170181
0.000147693
0.000175825
0.00584687
0.00014501
0.016025
0.000156548
0.000149062
0.000202113
0.000147007
0.000161431
0.0334878
0.00016849
0.0122537
0.000147575
0.000149746
0.000162062
0.000149464
0.000149607
0.000159377
0.000160545
0.000181538
0.000177224
0.000148837
0.000164863
0.000147454
0.000148338
0.000149386
0.000148316
0.000438599
0.000148097
0.000151618
0.000229402
0.000146811
0.000147921
0.0592104
0.00014963
0.0121658
0.000152115
0.0571303
0.000214966
0.000164155
0.000946824
0.000176503
0.000271421
0.000150013
0.000202496
0.000157006
0.000147496
0.000147598
0.000151592
0.000162034
0.000148116
0.000170349
0.000147266
0.000151724
0.00709398
0.0254314
0.000337002
0.000154235
0.000162865
0.0365423
0.0294032
0.000149084
0.000157319
0.000308577
0.000149337
0.000167427
0.000334048
0.0515613
0.000158385
0.000171337
0.00015079
0.000212883
0.000149892
0.00016087
0.00631371
0.000149126
0.000147774
0.0789771
0.000169717
0.000221762
0.0651922
0.000190364
0.000149911
0.000147288
0.000149681
0.0328862
0.000491201
0.0383933
0.000173422
0.000148557
0.0423341
0.00014866
0.000197656
0.000155313
0.000152568
0.00017074
0.000148319
0.0828682
0.0846453
0.000146624
0.000181254
0.000173582
0.000847471
0.000170548
0.000178602
0.00021979
0.000165018
0.000203227
0.000179546
0.000148676
0.000166154
0.00016787
0.0309642
0.000148157
0.000468356
0.000171445
0.000179834
0.000149803
0.0838753
0.000156804
0.000152204
0.000147446
0.000165846
0.000165267
0.000165943
0.000148789
0.000150557
0.000171173
0.00856345
0.00017454
0.000148972
0.000150449
0.000166101
0.000211277
0.000149076
0.000178919
0.0133512
0.000167061
0.052908
0.000169422
0.0259451
0.000222282
0.000148158
0.000678887
0.000149551
0.000154322
0.000163776
0.000164859
0.000187633
0.000173369
0.0001653
0.000166499
0.000161343
0.000153065
0.000145738
0.000169233
0.000155928
0.000157203
0.000191848
0.000155844
0.000158871
0.000147646
0.0240446
0.000177701
0.000148831
0.000154668
0.000151631
0.0285242
0.000195085
0.000163798
0.048978
0.000223452
0.000331415
0.000187429
0.000235821
0.000147268
0.00018486
0.000148388
0.00015549
0.0138266
0.041798
0.000229377
0.000453045
0.000148735
0.0250209
0.000147244
0.000186417
0.000154323
0.0175681
0.0724946
0.00015716
0.000148005
0.000224356
0.000161933
0.000148112
0.0392005
0.000148476
0.000152316
0.000155978
0.00014931
0.000160853
0.00015176
0.000148564
0.000162585
0.000239701
0.000169084
0.000174602
0.000148096
0.0301584
0.0423957
0.000147884
0.000232577
0.000154249
0.000157178
0.0396479
0.000147863
0.000150545
0.00015655
0.0464247
0.000148154
0.00014915
0.000168218
0.0230805
0.000147764
0.000159425
0.000161258
5.38975e-05
0.000170586
0.000167877
0.00021529
0.000148492
0.000171755
0.000146024
0.0277471
0.000160051
0.000148411
0.000158421
0.000184846
0.000148919
0.000149232
0.00019856
0.045237
0.000149948
0.0290016
0.000149192
0.000145981
0.000179703
0.000148147
0.000148104
0.0783661
0.00014981
0.000168985
0.000201505
0.0551877
3.90551e-05
0.000147834
0.000152683
0.000156389
0.000148391
0.000148544
0.000148561
0.00614527
0.000149249
0.000221143
0.000194929
0.000147748
0.00014673
0.000160527
0.000194928
0.000231882
0.000166087
0.000175539
0.000152676
0.050226
0.000174892
0.000162195
0.000169749
0.000170983
0.000185957
0.024885
0.000168507
0.0283243
0.0123497
0.0233335
0.000154598
0.000148189
0.000166203
0.000159191
0.000147529
0.000149991
0.000176979
0.000149592
0.000149602
0.000148266
0.000145339
0.000152831
0.000148768
0.0225501
0.000147983
0.0201347
0.000148444
0.000172625
0.00015037
0.000195466
0.000172398
0.000148577
0.0494785
0.000152611
0.000149465
0.000169087
0.000147345
0.000158626
0.000148412
0.0456547
0.000153273
0.000169621
0.000170669
0.046376
0.000157565
0.000200983
0.000322912
0.00016878
0.000148987
0.000151412
0.000174677
0.000178882
0.0253916
0.000146774
0.0327007
0.000148821
0.000169122
0.0806068
0.000164358
0.015996
0.000154696
0.000162908
0.000153925
0.0847098
0.00016086
0.000148852
0.000167966
0.000196655
0.000152062
0.000148289
0.000148865
0.0663466
0.000149657
0.00015691
0.0631775
0.000155179
0.000148158
0.000170553
0.000154308
0.0314135
0.000145653
0.000148352
0.000147021
0.000154838
0.000149906
0.000149036
0.000180463
0.0595803
0.000148024
0.000148628
0.0316974
0.000149678
0.0164244
0.000153458
0.0822808
0.000147515
0.000153224
0.000146667
0.0294187
0.063891
0.000158879
0.000168604
0.000155604
0.000148036
0.000148711
0.0459072
0.000148813
0.000186292
0.000147384
0.000171032
0.000149205
0.0463961
0.000146864
0.000172427
0.000147631
0.000215183
0.000280771
0.00014714
0.000165654
0.0838085
0.000181832
0.0202998
0.0130216
0.000199863
0.000151853
0.000164042
0.000187746
0.00296352
0.000149539
0.000168243
0.00015651
0.00014828
0.0263901
0.0378443
0.000181942
0.00020099
0.000222412
0.000161967
0.056557
0.000147451
0.000147055
0.000185589
0.0831452
0.000210176
0.000196388
0.000338259
0.000146701
0.08454
0.0338686
0.0781264
0.000149294
0.0321647
0.0462538
0.000298473
0.000394275
0.0446523
0.000187034
0.000160548
0.000199999
0.000154386
0.000148209
0.000697409
0.000188571
0.000145616
0.0351083
0.000149199
0.000158184
0.000170389
0.000155454
6.19819e-05
0.000160155
0.0121857
0.000172109
0.000154889
0.00408315
0.0725842
0.000197698
0.00014986
0.000154534
0.000181343
0.000167901
0.000146778
0.00017187
0.000166931
0.000194394
0.000148158
0.000204739
0.000153343
0.00016793
0.0323282
0.000202695
0.000151317
0.000183259
0.034398
0.000149121
0.000150798
0.0782503
0.00021671
0.000153677
0.000154421
0.000148522
0.000173389
0.000156057
0.0463554
0.000187225
0.000150144
0.000149442
0.000165892
0.000158831
0.000127563
0.0295195
0.00014746
0.00014817
0.000157581
0.00014924
0.000153634
0.000151045
0.000150903
0.000154655
0.000147774
0.000153928
0.000149252
0.000173547
0.00310104
0.000149741
0.0559423
0.0168566
0.000146034
0.000181509
0.000184788
0.000177779
0.000150628
0.000188577
0.000157741
0.000168386
0.000160603
0.00015183
0.000149341
0.0250675
0.000159618
0.0131206
0.000150597
0.000148435
0.000148078
0.000172185
0.000147954
0.000174258
0.000179569
0.000285372
0.000147433
0.000262354
0.00365872
0.0454592
0.000146645
0.00019163
0.000217206
0.00446363
6.47549e-05
0.000150288
0.0001495
0.000191133
0.000162322
0.00508307
0.000169062
0.000233426
0.000149499
0.000147709
0.000164007
0.000149253
0.000149082
0.000195547
0.000149751
0.000169354
0.000147471
0.0718106
0.0573547
0.0223231
0.0304287
0.0425079
0.000149022
0.000148892
0.0743737
0.000146948
0.00014725
0.000146004
0.000181738
0.0672052
0.0267851
0.000156134
0.000149219
0.000151599
0.00016252
0.02834
0.000148111
0.0138259
0.0733109
0.000149199
0.000149118
0.0338016
0.000185296
0.000152467
0.000148275
0.063754
0.0444025
0.000148582
0.000210201
0.000149666
0.0472042
0.00017303
0.000153083
0.026896
0.0164353
0.0417127
0.000147313
0.000149495
0.000149603
0.000149897
0.0627419
0.000147703
0.000193926
0.00023669
0.023433
0.000150711
0.000172936
0.000230561
0.000172343
0.07179
0.053772
0.000145446
0.000156118
0.000156263
0.000196694
0.0525563
0.0001452
0.0228038
0.00016026
0.000170836
0.000150652
0.000147498
0.0002127
0.000167205
0.0188536
0.000149252
0.000172722
0.000150466
0.000195741
0.000153915
0.0581666
0.00197323
0.00019826
0.000189077
0.000148094
0.000152729
0.000187049
0.000181068
0.0561309
0.0813471
0.00014891
0.0162804
0.000169861
0.0738813
0.000158072
0.000169192
0.000167584
0.00014895
0.0495053
0.000148386
0.000163259
0.0295061
0.0698682
0.00047397
0.0668622
0.000157559
0.000173738
0.000146808
0.0724603
0.000156574
0.0222683
0.000146745
0.0390635
0.000145054
0.000147959
0.000162762
0.000158439
0.000159646
0.000148242
0.0358318
0.000171622
0.000147735
0.000165203
0.0301199
0.000229553
0.000148502
0.0586862
0.000153588
0.000165015
0.000163514
0.000145836
0.000176615
0.000147924
0.0111682
0.000172067
0.000158094
0.000148274
0.00021925
0.000167982
0.000146742
0.0336859
0.000907004
0.000215025
0.000146454
0.000254353
0.000148861
0.000188807
0.000158784
0.000179651
0.00385668
0.0348742
0.00015951
0.0665698
0.000168946
0.000157465
0.000146947
0.0470301
0.000178091
0.000187729
0.000165344
0.000149589
0.0212772
0.000181518
0.00022274
0.000227147
0.0835855
0.0359958
0.00263312
0.0341781
0.000157717
0.000158589
0.000148563
0.000148878
0.000145345
0.00020512
0.000158207
0.000159708
0.064447
0.00014772
0.00014694
0.000170135
0.000196928
0.000158747
0.000147118
0.0658373
0.000153654
0.000173549
0.000149278
0.0235582
0.000157034
0.0696865
0.000166229
0.000164133
0.000170552
0.00014852
0.0105875
0.000233465
0.000178547
0.0001486
0.000147233
0.02172
0.0460054
0.0431102
0.000147842
0.000178793
0.000150173
0.000148852
0.000147938
0.000148856
0.0662143
0.000170876
0.000162615
0.000158723
0.000156802
0.0416687
0.000178019
0.000217093
0.000157495
0.000163099
0.00014531
0.000181469
0.000172107
0.000148318
0.0445388
0.0559696
0.0610242
0.0440142
0.0423
0.0826816
0.0766717
0.000151408
0.000147929
0.0584314
0.0387752
0.0193722
0.000148718
0.000168613
0.000148567
0.000147994
0.011083
0.0715136
0.000179952
0.00014797
0.000227368
0.000188421
0.00017295
0.0365946
0.000555012
0.000232214
0.000147269
0.0581109
0.00411377
0.000216954
0.000163472
0.000169918
0.000149245
0.000147171
0.000166923
0.00017092
0.000153614
0.000169284
0.000158713
0.00015418
0.000216355
0.0335892
0.00015904
0.000170599
0.044803
0.000208859
0.000148678
0.000192003
0.000224521
0.025457
0.000168045
0.000149117
0.000160283
0.00015672
0.000158253
0.000145837
0.00015893
0.000162456
0.000172842
0.000197892
0.000149495
0.000151421
0.0357286
0.0478794
0.0704248
0.000228782
0.000193076
0.000144876
0.000148491
0.000160854
0.000146684
0.0845584
0.000148445
0.000149809
0.000146273
0.0444206
0.0121044
0.000149912
0.00017997
0.000157917
0.000161394
0.000160368
0.00015969
0.000168924
0.000165436
0.0211618
0.000156807
0.0404938
0.000166274
0.0697146
0.000159492
0.000147403
0.000146881
0.000189135
0.000198413
0.000146728
0.00016269
0.000159782
0.000174527
0.0283037
0.0239869
0.0245887
0.000149808
0.000145739
0.000158435
0.000163916
0.000148257
0.000178037
0.000152459
0.0275648
0.000280898
0.000165332
0.00014847
0.0472208
0.000155757
0.0332455
0.0374508
0.000216252
0.000153314
0.000194292
0.032838
0.000131021
0.0484443
0.000175638
0.000148244
0.00016639
0.000147882
0.0784425
0.000153717
0.000161426
0.000230244
0.0678044
0.000148035
0.000148087
0.042808
0.000168345
0.0804108
0.000158743
0.000148272
0.000169384
0.000213673
0.000162315
0.0116637
0.000163747
0.000153313
0.000154875
0.000149603
0.000147995
0.000208182
0.000150518
0.000180534
0.000148611
0.000148524
0.000204989
0.000156924
0.000148958
0.000148167
0.000163565
0.000175551
0.000170946
0.000167213
0.000155156
0.000176495
0.000148561
0.000188593
0.000161044
0.000170329
0.000166701
0.00015939
0.000173477
0.00016302
0.000147754
0.000181507
0.0491697
0.0325407
0.000149091
0.000311034
0.0326793
0.000148063
0.00015053
0.00022088
0.0391153
0.000156196
0.0322045
0.000226548
0.000148988
0.000186812
0.000145302
0.00015649
0.000177162
0.0213043
0.000199896
0.000227225
0.000246913
0.0435439
0.051486
0.000152656
0.0429768
0.000148374
0.00457063
0.0488735
0.000148587
0.00014843
0.0316297
0.000149006
0.000148506
0.000254171
0.0546311
0.000210308
0.000156992
0.0441363
0.000148585
0.0475915
0.0371259
0.000149203
0.000120575
0.00459984
0.0444674
0.0339607
0.0379379
0.0306341
0.000147204
0.000151513
0.000177768
0.000180408
0.00014848
0.000207201
0.00014831
0.0386986
0.000245362
0.00016403
0.000228528
0.0394469
0.000242171
0.000215723
0.000165151
0.0197357
0.000234361
0.000155695
0.000145579
0.00686547
0.000161056
0.000146868
0.0834992
0.000148092
0.00875082
0.000149118
0.0685206
0.000156037
0.000148048
0.00502674
0.000155956
0.00016039
0.0284353
0.0638703
0.00037199
0.000158905
0.000172549
0.000151709
0.000169045
0.00019567
0.000169443
0.000149346
0.000307582
0.000178518
0.000161237
0.0296212
0.000168787
0.000161994
0.000195409
0.00018156
0.000172086
0.000148017
0.000201061
0.0001469
0.000195806
0.000158008
0.0402159
0.000147066
0.000166941
0.0255678
0.000152212
0.000176943
0.00016262
0.000168831
0.0654962
0.00017866
0.000151875
0.0178342
0.000147121
0.0465617
0.000148752
0.000151516
0.000195759
0.0439901
0.000161272
0.000188533
0.000213443
0.000162616
0.000149372
0.000176633
0.000170514
0.064266
0.000155229
0.00307727
0.000198652
0.000162617
0.000160143
0.000176717
0.000165335
0.000167529
0.000178712
0.000162317
0.00015375
0.000149183
0.000461202
0.000148373
0.000159142
0.00014544
0.000192772
0.00015967
0.000178786
0.0414035
0.000151216
0.000210977
0.000144622
0.000149138
0.000149202
0.00014932
0.000157601
0.000147578
0.000187172
0.0254879
0.000178755
0.000171984
0.000155421
0.000148659
0.000206798
0.000148497
0.025862
0.0248363
0.0288209
0.000199597
0.000163165
0.000158378
0.000149122
0.000157918
0.000170029
0.000168144
0.0478061
0.000178706
0.0599816
0.00019979
0.000149349
0.000146836
0.0321477
0.000148023
0.000160728
0.000165844
0.000223747
0.000152444
0.0633226
0.000149085
0.000155444
0.00014858
0.000150415
0.00017665
0.000192187
0.000149386
0.000163753
0.000159641
0.000172611
0.000178402
0.000211268
0.000196438
0.000205468
0.000196822
0.000157257
0.000151291
0.00017822
0.0434255
0.071974
0.0490027
0.000162977
0.0112568
0.000191637
0.000151053
0.000147915
0.00018023
0.000148884
0.000163716
0.0228754
0.000147938
0.000147439
0.000247734
0.0129363
0.000173665
0.000395339
0.000148992
0.0254867
0.00016802
0.0710068
0.000157157
0.000148556
0.0483168
0.000165092
0.000148493
0.000171087
0.000149659
0.000187637
0.000159113
0.000164564
0.0847127
0.000159431
0.0399823
0.000147584
0.0541116
0.000149019
0.000156309
0.000150118
0.000170128
0.00014887
0.000165813
0.0468811
0.000238467
0.000173256
0.000160702
0.000168189
0.000147939
0.000148904
0.000151681
0.00010145
0.000155748
0.0712213
0.0340192
0.000186512
0.00014939
0.000189475
0.000200524
0.000197575
0.000156954
0.0388284
0.000148152
0.000144869
0.000148013
0.00211835
0.000148879
0.000148408
0.0484732
0.000147982
0.000197141
0.000171107
0.000147676
0.0573984
0.000159682
0.0683086
0.000148155
0.000188744
0.000151014
0.000166857
0.0289211
0.000180309
0.000147778
0.000158487
0.0296032
0.00016355
0.000190627
0.000161887
0.000156199
0.000184946
0.000157976
0.000149694
0.00714322
0.000159603
0.000159674
0.000197536
0.000148058
0.000147405
0.000149194
0.000162528
0.000149009
0.000155025
0.0459951
0.0140517
0.000170748
0.00950415
0.000179949
0.000165585
0.0694181
0.051271
0.000149979
0.0166744
0.036215
0.0337046
0.000730945
0.000161146
0.0264216
0.0508783
0.0435387
0.000724829
0.0739342
0.000162679
0.000169193
0.000157655
0.000157003
0.000149576
0.000265235
0.000149893
0.0184837
0.000173607
0.000194806
0.000145184
0.00018383
0.000163473
0.000152102
0.00014995
0.000148678
0.000173096
0.000152996
0.000149733
0.000169773
0.0574811
0.000153964
0.000189364
0.000146772
0.000173034
0.000168968
0.000149135
0.000155969
0.000147588
0.0684595
0.0586637
0.00020156
0.00191171
0.000160895
0.000186409
0.000148807
0.000170208
0.000148663
0.000149685
0.000149517
0.0481272
0.00014677
0.000173143
0.000247281
0.000157147
0.000161976
0.000148065
0.0688934
0.000200924
0.040561
0.032227
0.000197021
0.000223966
0.0296028
0.000225995
0.000176475
0.0171401