/*--------------------------------*- C++ -*----------------------------------*\
| =========                 |                                                 |
| \\      /  F ield         | OpenFOAM: The Open Source CFD Toolbox           |
|  \\    /   O peration     | Version:  v2012                                 |
|   \\  /    A nd           | Website:  www.openfoam.com                      |
|    \\/     M anipulation  |                                                 |
\*---------------------------------------------------------------------------*/
FoamFile
{
    version     2.0;
    format      ascii;
    class       surfaceScalarField;
    location    "850";
    object      meshPhiCN_0;
}
// * * * * * * * * * * * * * * * * * * * * * * * * * * * * * * * * * * * * * //

dimensions      [0 3 -1 0 0 0 0];
oriented        oriented;


internalField   nonuniform List<scalar> 
20580
(
0.000386996
-0.000432862
4.5826e-05
0.000957813
-0.000423925
-0.000535356
3.52686e-05
0.000920367
-0.000213271
0.000279615
-6.63434e-05
-7.53392e-05
-5.6378e-05
8.48948e-05
-5.56215e-05
-0.000804171
0.000858362
0.00060208
-0.000942263
-0.000148363
-8.76186e-05
0.000154468
0.000107033
0.000131458
-0.000238492
0.000246898
-0.00137066
0.00112032
-0.000368954
0.000631312
-0.00026251
0.000181747
0.000742966
-0.000937758
-0.00110275
0.000205929
0.000895303
8.24431e-05
-0.000211521
0.000129078
0.000386415
-0.000724782
0.000337923
0.000347156
6.19031e-05
-0.000409093
0.000269615
-0.000203426
-6.61891e-05
0.00128627
-0.000396505
-0.000897882
0.000227375
0.000148189
-0.00037558
-0.000118005
0.000504955
-0.000797399
0.0003089
0.000488078
-0.000320847
-0.000582973
0.000902641
0.000278797
-0.000133844
-0.000144954
-5.2654e-05
-1.97056e-06
4.51829e-05
0.000332579
-7.84177e-06
-0.000324744
0.000622069
-0.000379513
-0.000242698
0.000402797
-0.000268051
-0.000134757
0.000125854
0.000203736
-0.000329597
0.000290955
-0.000158655
-0.000132301
-0.000265059
-0.000940642
0.00118292
3.79729e-05
-0.000250875
0.000212902
-0.000424427
0.00102416
-0.000395445
-7.77577e-05
0.000473157
-0.000122485
-0.000162555
0.000285039
0.000443415
0.000145209
-0.000588854
-0.00027985
0.000331674
-5.18249e-05
-8.36459e-09
-5.68522e-05
0.00037295
-0.000220856
-0.0001521
-0.000222369
-6.34093e-05
0.000285778
-0.00129699
0.00103406
0.000258232
-0.000235698
0.000297661
-6.19639e-05
0.000130933
0.000160021
0.000142452
7.99481e-05
0.000429065
-0.00034645
-8.26266e-05
0.000206614
6.07383e-05
-0.000267354
-0.000254941
-0.00095076
0.0011941
-0.000185222
0.000346387
0.000136127
-0.00035108
0.000214921
-0.00126443
0.000554375
0.000707418
-5.40806e-05
-0.00104957
0.00016346
5.89401e-05
-0.0002224
-0.00131004
0.000381603
0.000926967
-0.000106594
0.000453712
0.000828885
-0.000632198
-0.00019743
-0.000169132
0.000275182
-0.00010605
-0.000916613
-0.00038382
-0.000424074
2.85892e-05
-1.56061e-05
-0.000220092
0.000416816
-0.000225312
-0.000191515
-0.000239668
-1.77654e-05
0.000257433
-0.000742544
0.000910256
0.000281186
0.000121598
-0.00121724
0.00125491
-4.02089e-05
-0.000535995
-0.000730518
-0.000416731
0.000187093
0.000229622
-0.000260227
-0.000156516
-3.04234e-05
-0.000209244
-6.96253e-05
0.000377256
-0.00044917
-0.000760472
0.00120434
0.000267461
-0.000228097
-3.9364e-05
0.000154338
-0.000230837
7.64991e-05
0.000367036
0.000233479
-0.000600774
0.00130619
-0.000874411
-0.000435608
0.00020947
-0.000227236
-0.000357342
0.000776497
-0.000419793
-0.000447892
-0.00052032
0.000966568
5.9962e-05
0.000209653
0.00137957
-0.000236177
-0.00118406
-5.35373e-05
0.000386108
-0.000239639
0.00131384
-0.00108717
0.000666636
-0.00112087
0.000373949
8.56554e-06
-0.000382531
0.000784767
-0.000341648
-0.000204437
-5.43407e-05
0.000258777
-4.22647e-05
0.000251735
-0.000175373
-0.000129865
0.000305237
-0.000863476
0.000541584
6.36672e-05
-0.000219082
0.000155415
-0.00118745
0.00115734
2.52855e-05
0.000212054
-0.000174081
-0.000193819
-0.00111698
0.000474059
-0.000900596
0.000125738
9.66619e-05
7.25303e-05
-0.000247903
0.000294914
-5.57569e-05
-0.000239157
-0.000279532
0.000389687
-0.000110169
0.00173813
-0.000711964
-0.0010364
-0.000259566
-0.000223676
0.000483202
0.000135916
8.89193e-05
-0.000224835
0.000488032
-0.000255029
-0.000233036
0.000143904
-0.000403504
0.000208615
-0.000572891
0.000364231
0.00054427
-7.86095e-05
-0.000465732
-0.00117013
0.00132408
-0.000156508
0.000460545
-0.00117695
0.000705027
0.00069307
-9.70761e-05
-0.000596244
0.00131704
-0.00086952
-6.03165e-05
0.000214654
0.000925679
-0.000453871
0.000309814
0.000967821
0.000860661
-0.000319194
-0.00054199
0.00106941
-0.001337
0.000381726
8.60117e-06
-0.000390358
-0.000575606
0.000394353
0.000181127
0.000282989
0.000150741
-0.000433773
0.000565186
0.000262799
0.00128614
-0.000547504
-0.000766795
0.000116254
-0.000348858
-0.000191729
-2.15428e-05
5.83653e-05
0.000209095
0.000436014
-8.56934e-05
-0.000350344
-0.00140484
0.000120296
0.00126892
0.000730065
0.000244046
-0.000978006
-0.000210298
0.0002767
-6.64027e-05
0.00042564
-5.10623e-05
-0.000374597
-0.000395415
2.86431e-05
0.000366766
0.000503782
0.00122333
-0.000593141
0.000419649
0.000173338
0.000154551
-0.000281665
0.000127114
0.000645928
-0.000601785
-4.44036e-05
0.000319258
-0.000903302
-0.000818916
-6.70821e-05
0.000885355
0.000186897
0.000186047
0.000170842
-0.000293329
-0.000539067
0.000169986
0.000283814
-0.000132928
-0.000150886
0.000403471
8.88979e-05
-0.000218763
0.000690818
-0.000275519
-0.000415391
-0.000437475
0.000750664
-0.000313493
-7.68374e-05
0.000450767
-0.000213099
-0.000773435
0.000985086
-0.00130914
0.000118025
4.38237e-05
-0.000338946
0.000295106
0.00038989
-0.000209564
-0.000180332
0.0010816
-0.00058331
-0.000499973
0.000117837
0.00121986
-0.000178345
9.0258e-05
0.000142418
-0.000232677
-0.000484523
-0.000108724
0.000373737
-0.00022986
-0.000118767
0.000500455
-0.000384867
-0.000190848
-0.00019894
-0.000222226
0.000421145
-0.000878409
0.00124867
-0.00037152
0.00133703
-0.00114462
-0.000193955
0.000960356
-0.00101969
4.14101e-05
-4.99448e-06
-0.000217375
3.17841e-05
-0.00043279
0.000400771
0.00109461
-0.000582647
-0.00051408
-0.000119942
0.000109609
-2.55993e-06
-0.000217714
-8.17497e-05
0.000299463
7.8569e-06
0.000684939
0.000441344
-0.000305261
0.000227276
-0.000144833
0.000209757
-0.000252498
4.27403e-05
-9.77595e-05
0.000307516
-9.11684e-05
0.000254628
0.000564481
0.000295596
0.000162501
0.000131084
-0.000293588
-0.000101016
-0.000764861
0.000852088
0.000244401
0.00100357
-0.000256856
-0.000346005
0.00060269
5.95193e-05
-0.000144258
4.88509e-05
2.72971e-05
0.000267616
-0.000291275
0.000402108
-0.000110845
0.000345186
5.18639e-05
-0.00039708
0.00116608
-0.000955634
-0.000465416
-0.00031952
0.00078431
-0.000115093
0.000460245
-1.41177e-05
0.000439737
0.00014952
-0.000805603
0.000288968
0.000516035
-0.000163494
0.000809053
7.56788e-05
0.000146721
0.000208172
-0.000117914
0.000332027
-0.000409824
0.000824912
-0.000707483
-0.000117584
0.000795543
-0.00128249
0.000485498
0.00154157
-0.00122848
-0.000330815
0.000220973
0.00016891
-0.000586873
0.000618313
-1.71542e-05
-0.000194367
0.000787731
-0.000844741
0.000430929
0.000648862
-0.000176168
-0.000303232
0.00047936
-4.5011e-06
0.000336495
0.00103145
-0.001269
0.000231001
-0.00133237
0.000211378
0.0011147
-0.000538679
0.000259
0.000279663
-0.000280467
-0.000140682
0.00042113
-0.000296736
0.00010484
0.000191895
-0.000179916
-0.000116484
0.0002964
0.000729768
-0.000343831
0.00025417
-0.000224356
-2.98159e-05
-0.000238313
-5.84229e-05
0.000550997
0.000387564
-0.000938748
-0.000612359
-7.0136e-05
0.000682226
-0.000116969
0.000267288
-0.000150319
0.000731049
-0.000922008
0.000189761
0.000406874
-3.00603e-06
-0.000403904
-0.000290745
0.00101709
-0.00035732
-1.16927e-05
0.000402387
-0.000395954
0.000626523
-2.35183e-05
-0.000603246
0.000234515
0.000615915
-0.000851643
-0.00115336
0.0010983
0.000409416
-0.000206716
-0.000202718
-0.00127098
0.00126014
4.47845e-06
6.49173e-05
0.000144794
0.000994742
0.000134513
-0.000298939
-0.000180918
0.000479815
3.70886e-05
-0.000241525
-0.000192039
-0.00010368
0.000295719
-0.000773443
0.00024047
0.000532788
7.28084e-06
-0.00061989
-1.43871e-05
0.000187144
-0.000179522
0.000380483
-0.000336677
-0.00129357
0.000137007
0.00114326
0.000771436
0.000301579
-0.000239074
-6.25051e-05
0.000593251
0.00023143
0.000964422
-0.000234943
5.36692e-05
0.00108004
-0.000250366
7.04489e-05
-0.00137292
0.00108272
0.000149489
0.000129306
-0.000124339
-0.000146127
0.000270465
0.000233026
0.000254964
-0.000121821
-4.99684e-06
0.000347701
1.2665e-05
-0.000360374
-0.000205125
-3.03806e-05
0.000235506
0.000315526
-0.000108913
0.000468739
-0.000649764
-0.000230794
0.000879948
0.000289082
3.48423e-05
-0.000323934
0.00019752
0.000211875
-0.000774363
0.000308342
0.000115028
0.000274644
-0.000403301
-0.000383756
0.000786596
0.000271771
-8.96605e-05
-0.00018211
-0.000446598
-5.92662e-05
0.00050582
0.000233048
-0.000100761
-0.000216069
-0.000955053
0.000775666
0.000178019
-0.000399877
3.54881e-05
-0.000253202
-0.000226869
0.000275633
-4.87642e-05
0.000553823
0.000970121
8.6207e-06
-0.00115772
0.00114917
5.10108e-06
-0.000221347
-0.000194208
0.00041553
-0.000331033
-0.000128999
0.00046001
-0.000561723
-0.000394215
0.000608932
-0.000601316
-1.9696e-05
-0.000426941
-0.00152848
0.000409052
0.00111422
0.000501171
-0.000292589
6.91916e-05
-0.000405819
0.000336577
-0.00024662
-0.000152409
0.000399021
-0.000315915
0.00126185
-0.000954466
-3.53305e-05
-0.00111873
-0.000180346
-0.000260733
-3.59754e-05
0.000296707
0.00021451
-0.000246526
3.2016e-05
-0.000422163
0.000644311
-0.000222388
-0.000421677
-0.000996178
0.000354116
-0.000368252
-0.000192252
-0.00022159
0.000413823
-0.000330172
-0.000194288
0.000524405
-9.94649e-05
0.000708122
-1.59459e-08
-0.000260718
0.000153014
6.93866e-05
-0.0002224
0.000847734
-5.7288e-05
-0.000791351
0.000799176
-0.000672935
-0.000126689
0.000188688
0.000109622
-0.000298315
0.00168259
-0.0011344
-0.00056089
-0.000925804
0.000888183
2.04831e-05
5.89106e-05
-0.000389123
-0.000634715
0.000326575
0.000307979
9.15014e-05
-0.00121157
0.00109931
0.00031387
-0.000415204
9.08176e-05
-0.000377112
-0.000927885
-9.29688e-05
-8.06998e-05
0.000114406
0.000860172
-0.000595557
-0.000265222
1.66313e-05
-0.000135822
0.000242855
-0.000552759
-0.000244941
0.00134155
-0.000327655
-0.0010193
-0.000244362
-2.93801e-05
-0.000180918
-0.00123807
0.00087243
0.000364049
-0.000416982
0.000186706
-0.0002224
3.56944e-05
-0.000954358
0.000739994
-0.00102561
-0.000213394
-0.000102063
-0.000450994
-0.000205324
-5.14257e-05
0.000256749
0.000239126
-0.000277433
3.83054e-05
0.000158864
-0.000532558
0.000373553
7.3925e-05
-0.000197591
-0.000154995
0.000317493
-0.000856353
0.000290588
0.000243141
-0.000533844
-5.27009e-05
0.000239407
-0.000300507
-8.54287e-05
0.000385927
0.000285723
0.000805909
-8.36125e-05
0.000272296
-0.00042054
0.000228623
0.000191907
-0.000282553
1.10329e-05
0.00027152
-0.000265793
0.000457751
-0.000191993
0.000598511
-0.000244186
-0.000354349
0.000102902
0.000180911
-0.000160208
0.000320597
-0.000160389
0.000322704
-0.000196856
-0.000440417
-0.000897411
-0.00024823
8.27424e-05
0.000165488
0.000114518
0.000107882
0.000279108
-0.000273962
-5.14709e-06
6.2807e-06
0.000272826
-9.03241e-05
0.000641284
-0.000268934
0.000591707
-0.00032292
-0.00084624
0.000318811
0.000527025
0.000196627
-0.00013296
0.000612367
-0.0002691
-0.000343298
0.000396037
-0.000399426
-6.1101e-05
-0.000552238
0.000276812
0.000932704
-0.000224371
-0.000709183
-0.000235729
-4.68253e-05
0.000229584
0.000293919
0.00137363
-0.000247796
-0.000822675
0.000589382
0.000232934
-0.000160819
-0.00065862
-0.000733171
0.000148583
7.41847e-07
-0.000206066
-9.79157e-05
0.000452011
-0.00040986
0.00106248
-0.000829532
0.000780859
0.00018198
0.000164225
8.97347e-05
-0.00025396
-0.00037753
0.00117172
-0.000391211
0.000893201
-4.66163e-05
0.0004285
-0.000530851
-0.00020134
-0.000621671
-4.02417e-06
6.35186e-05
0.00127145
0.000446271
-2.7642e-05
-0.000418666
-0.000428972
0.000173913
-0.000357256
-9.55335e-05
0.00045275
-0.000233651
-0.000135666
0.00029989
0.00018805
-0.000772512
-0.000240824
9.56916e-05
0.0002901
-0.000385812
-0.00133587
3.04139e-05
0.00128387
2.9817e-05
-0.000330331
0.000524474
-4.08453e-05
-0.000483701
-0.000134606
0.000270522
0.000577035
0.00035461
0.000141261
-0.000515895
0.000187205
0.000229598
0.000170523
0.000166725
-0.000337255
-0.000397883
-9.72716e-05
0.000495113
-0.000117242
-0.000125619
0.00024286
0.000554729
0.0003412
-0.000898611
-0.000304345
1.30597e-05
0.000261088
-0.000118636
-0.000860704
0.000341543
0.00051844
0.0001251
0.000146671
0.000813488
-0.000574342
-0.000239716
6.09107e-05
-0.000259389
0.000198478
0.000606305
0.000192263
0.000678802
-0.000351127
-0.00040828
-8.80653e-05
0.000496303
0.000463569
-0.000135363
-0.000328224
0.00039093
0.00094468
-4.82729e-05
-0.0007906
0.000837564
-0.000383002
-0.00025184
-0.000677413
0.00104635
-0.00114809
9.32451e-05
-0.000541512
0.000119134
0.000299226
-0.000291984
-7.24395e-06
0.000666345
0.00063711
-0.000725164
0.000654754
-0.000204005
-3.63976e-05
0.000240402
-0.00100585
0.00014389
0.000859885
-0.000367597
0.000227432
0.000140159
0.000523289
5.16933e-05
-0.000575245
0.000309635
-7.05104e-05
-0.000710862
-0.000212318
0.000331386
0.000290513
-8.36743e-05
0.000337841
-0.000382114
-0.000508186
-0.000202718
0.000710635
2.68366e-07
-0.000227137
-0.00024739
-1.62062e-05
0.000363898
-0.000651399
-0.000882342
-1.95025e-05
0.000465735
0.000776531
-9.84206e-05
-0.000678618
-0.000415165
0.000556294
-0.000156605
0.0012283
-0.0010847
0.0001112
0.0001112
0.000313775
-0.000146191
-0.000167586
0.000304081
1.24521e-05
-0.000316539
0.000926297
-0.000146996
-0.000428015
-0.000289697
-0.000120288
0.000409972
-3.47272e-05
0.000249237
-0.000385664
0.00124968
-0.000894783
-7.74322e-05
-0.000170798
-0.000292747
-0.000149078
0.000441804
0.000172345
-0.00027243
0.000100083
0.000223715
-0.000627392
0.000399596
-0.000285774
-0.00011383
0.00126049
-0.000872072
-0.000391153
-3.90663e-05
6.37759e-05
-0.0002224
5.32679e-05
-0.00018786
0.000358833
-0.000170985
0.00117911
-0.000935213
0.000241129
-0.000666314
-0.000130625
-0.000594784
0.00121509
-0.000345899
-0.000903486
0.000143376
0.000170396
-0.000531235
0.000262168
-1.0699e-05
0.000535094
0.000645833
0.000201235
-0.000848463
0.001007
-0.000455581
-0.000748174
-0.000414765
0.00116288
-0.000191231
0.000361748
-0.00152737
0.00119319
-0.00118132
0.000433273
-0.000362747
0.000134831
0.000227912
-1.83863e-05
0.00031761
-0.0005665
0.000884741
-0.000399314
0.000167844
0.000231455
-0.00112813
-8.90522e-05
-2.33145e-05
0.000892384
-0.000263662
-0.000744145
-0.000416559
0.000503904
0.000126374
-0.000630569
0.00087466
-0.00118923
0.000307955
-7.64188e-05
0.000966473
-0.0008931
0.000285585
0.000150407
0.00122335
-0.000371141
-0.000855467
0.000159579
9.67443e-05
-0.000256326
0.00115935
-0.000732071
-0.00044666
-0.00077613
0.000891837
-0.000116878
-0.000214615
0.000275352
0.000721539
-0.000406217
-0.000315479
0.000343082
4.39611e-05
-0.000466508
-6.46757e-05
0.000843425
-0.000791028
-0.000284694
0.000929159
-0.00046002
0.00126475
-0.000810322
0.000375424
-9.2848e-05
-0.000282585
0.00018016
0.000117374
-0.000297537
5.28559e-05
-0.00070314
6.5289e-05
-0.000192684
0.000127395
0.000660762
-0.0011123
8.10424e-05
0.00101943
-0.000195771
-6.64205e-05
0.000262191
-0.000212123
-0.00020522
-0.000386512
0.000591595
0.000475514
0.000604436
-0.00108371
0.000116492
0.000207014
0.000483695
-3.18514e-05
0.000250244
-0.000218395
-0.000218168
-0.00095404
-0.000637392
0.000885929
-0.000249163
-0.000425562
0.000239786
0.000463485
-0.000703795
0.000148508
0.000172089
1.93944e-05
-0.000309103
-7.00925e-05
0.000374166
-0.000338923
0.000751351
-0.000413225
-0.00038459
-0.0013763
0.00126674
0.00010326
-0.000240405
-0.000242176
0.000765143
0.000275994
-0.000280523
-0.000121308
0.000897209
0.000612902
0.000365952
0.000355369
0.000334685
5.63431e-05
-0.000150787
0.000100203
0.000126036
-0.00022624
-0.000240206
4.44349e-05
0.000320046
-0.000160469
0.000149289
-0.000214177
6.48879e-05
-0.000182591
0.000237814
-3.61181e-05
-0.000201697
-0.000350606
-0.000289717
0.00080215
-0.000512702
8.46163e-06
-0.000599895
0.000586451
-0.000268246
-9.93556e-05
-0.00122942
-0.000143316
-0.000183624
0.00122077
-0.000730299
0.000241827
0.000488268
-0.000272398
-1.15236e-05
0.000283921
0.00101868
-0.00089854
-0.000122378
0.000634616
0.000371788
-0.00100762
-1.50385e-05
0.000351124
-0.000336135
0.000378064
-0.00059181
0.000213546
3.9325e-05
0.00101886
-0.00105899
-0.000274066
0.000324429
-5.03662e-05
-0.000460084
-0.000755096
0.00120572
-0.000123394
-0.000153806
0.0002772
-3.43985e-05
0.000409812
-0.00113551
0.000884859
-2.33713e-05
0.000896524
-0.000875699
-0.000185405
-0.000219605
0.000404992
-0.000332055
-0.00130561
0.000265195
3.63636e-05
-0.000301564
-0.000296475
2.82259e-05
-0.00147725
0.000219347
0.00124003
-0.00014657
-0.000129069
0.000275639
0.000399172
-0.000171813
-0.000236513
-0.000216789
0.000453263
-0.000810451
0.000470565
0.000340265
-0.000205438
-0.000154694
0.000267501
-0.000112807
-0.000567232
-0.000923813
0.000435825
-0.000300145
-0.000135695
-0.000228257
-0.00102289
0.0012455
-0.0011811
-0.00026232
-8.43914e-05
0.000346706
0.00022097
-0.00016006
-0.000236107
-0.000480918
0.0007166
-0.000172084
0.000675678
0.00117775
-8.01919e-05
-0.0010992
0.000469789
5.8875e-05
-0.000528822
-0.000129414
0.000283964
-0.000190986
-8.14875e-05
0.000272473
-0.00111791
-0.000137467
0.00124261
7.11824e-05
0.000126381
-0.000197564
-0.00028204
-0.000993233
-0.000605503
-0.000641592
-0.000243819
0.000884485
0.000762521
-0.00117648
-0.000946261
0.000424599
-9.62462e-05
-0.00018411
0.000280355
0.000202264
0.00026128
-0.000242817
0.000926528
8.96251e-05
0.00116277
-1.73543e-05
-0.000219957
-8.14675e-05
0.000301424
-0.000804963
0.000632319
0.000164401
-0.000401068
0.000504965
-0.000103937
-0.000765591
-5.08313e-05
0.00081521
-0.000315855
-0.000475043
0.000790255
-0.000455816
0.000884875
-0.000429673
-0.000175215
-0.000116016
0.00029123
-0.000102127
0.000255141
-0.000848962
7.35367e-05
0.00077416
9.49233e-05
0.000166165
-0.00109681
0.000892202
0.000201397
-0.000635923
0.00036514
0.000270639
-0.000162539
0.000293471
0.000157616
0.000117566
0.000756032
0.000334721
-0.00109514
-0.000971609
0.000498656
4.55718e-05
3.02301e-05
-0.00021434
-0.000421728
0.00017271
0.000249
0.000600351
-0.000130745
0.00020207
-0.000233923
6.55963e-05
-0.000708045
0.000847913
-0.000242169
0.000196037
0.00010554
-0.000185315
0.000342644
-0.000157332
0.000402905
6.24816e-05
-0.000465425
0.000126473
-0.000249868
0.000402225
-5.89705e-06
-0.000396351
-0.000276038
0.000161308
0.000114729
-0.000288715
-0.000753216
0.0010383
9.90008e-05
-0.000324322
0.000227157
0.00017243
-5.64804e-05
0.000996109
-0.000950869
-0.000106742
0.000232481
-0.000167938
0.000331893
-0.000163957
-0.000241662
-0.000601252
1.34704e-05
0.00102773
-0.00104538
-0.000172705
0.000237994
0.000363806
0.000120509
-0.000484397
0.000227167
4.96427e-05
-0.000276812
-0.000677343
-0.000855466
-8.93939e-05
0.000108047
-4.7328e-05
0.000684386
0.000140358
-0.00082493
-0.000288259
0.000666092
0.000205712
0.000932919
-0.000245102
5.46836e-05
-0.000172433
-1.31123e-05
0.000415312
0.000577796
0.000303127
-0.000881749
-0.000513813
9.85318e-05
0.000582781
0.000738086
-0.000810006
0.000848698
-0.000559745
0.000707719
-0.000148186
0.000212965
-0.000141783
-0.00039751
-0.000297104
0.000694348
-0.000236608
-0.000704989
-0.00104727
-1.75157e-05
0.00103704
0.000951685
-0.00118374
0.000217494
-0.000590444
0.000244275
0.000751242
-0.000830261
0.000499426
-2.16578e-05
-0.000477832
4.94573e-05
0.000831341
-0.000882639
0.000344423
-0.000549778
-0.000296146
0.000395136
0.000779954
-3.1919e-05
-0.00075208
-0.000151822
-9.69895e-05
0.000248811
-0.000277474
0.000256921
-0.000100634
-0.000424708
0.00052527
-0.000147871
0.000242794
-0.000226372
0.000309158
-8.27862e-05
0.000681355
0.000323806
-9.66418e-05
0.000371042
-0.000386136
-0.000271954
-0.000183405
0.000455335
9.5708e-05
-0.000263648
0.00129543
-0.000183968
-0.00112254
-5.76391e-05
-0.000216429
-0.000257202
-0.000496832
-0.000364519
0.000268403
-0.000119114
-0.000396077
0.000233619
0.000162449
-0.000381544
-0.000970138
-2.68287e-05
0.000526183
0.00117524
-0.000150129
-0.000164055
-0.000111984
7.12246e-05
-0.000207862
0.000136637
0.00136717
-0.000647044
-0.000723627
-0.000161434
-0.000234075
0.000340744
-0.000106671
4.34293e-05
0.000224013
-0.000273648
-0.000300152
0.00033831
4.83245e-05
-0.000427944
7.40818e-05
-0.000225904
-0.000207164
-0.000134504
0.000341663
-0.000271444
-0.000754711
-0.000339957
-0.000158299
0.000498214
0.000948434
0.000271418
0.00079009
0.000385293
-0.0011767
0.000355424
-3.02076e-05
-0.000325227
-0.00042806
0.000146697
0.000290729
-0.000437465
-0.00129317
0.000979704
0.000273599
0.000328602
-0.000259448
-0.000345628
0.000567241
-0.000221727
-0.000604762
0.000257534
0.00034705
-0.000491255
0.000912324
-0.000421479
-0.000580411
0.0010096
-0.000191806
0.000555516
0.00015477
0.000529428
0.000186481
0.000254819
0.000673618
-0.00030684
-0.000400011
0.000633239
-8.02454e-05
0.000483105
-5.77016e-05
0.000307942
0.000357963
-0.000209787
0.000302524
-4.57481e-05
-0.000256778
0.000367372
-0.000102183
-1.33627e-05
0.000387076
0.0001682
-0.000267791
9.95909e-05
0.000751429
-0.000558072
-0.000193599
-0.000301419
3.90945e-05
-0.000417468
-0.00123175
0.000951546
0.000271665
0.00053839
0.0003089
8.36013e-05
0.000274343
0.00089949
-0.000393375
-0.000506996
0.00124663
5.3278e-05
-1.36619e-05
-0.00117404
0.00117378
-0.000339432
-0.000193444
0.000532803
-0.000225192
0.00010795
8.33972e-05
-0.000860573
0.00010034
-0.000246467
-0.00113157
5.44875e-05
-0.000318584
0.000111415
0.00038275
-1.77e-05
-0.000365079
0.000169699
-0.0002224
-0.000521177
0.000494279
-0.000841245
0.000129274
-0.00086843
0.000901658
0.00027056
-0.000100861
0.000392614
-0.000245946
0.000273397
0.000477741
-0.000308157
0.000465837
0.000537129
9.84432e-05
0.000242256
-0.000340705
-0.000440128
-0.000434103
0.000420964
-0.000439469
0.0008592
-0.000420334
0.000227724
0.000141051
-0.00036879
0.000722867
0.000535309
-0.000294159
0.0010336
-0.00064634
-0.000606731
0.0013954
-0.000114353
0.000280899
-0.000166547
6.16793e-05
-0.000200988
-6.62727e-05
0.000421684
-0.000255933
-5.90589e-05
-0.000462182
-0.000176471
-9.23612e-05
0.000268832
0.000203458
-0.000114539
-4.98146e-05
-0.000384312
-0.000370239
9.8266e-05
0.00029783
0.000383435
0.000854236
-0.00107951
0.00104352
0.00148613
-0.000742688
-0.000777737
0.0011725
-0.000235911
-0.000118073
0.000308253
0.000262506
-0.000570899
0.00052739
-0.000367672
-0.000159756
0.000207755
-0.000553473
0.000349324
-0.000145594
0.00070383
-0.000964509
0.000258799
-0.000252792
-0.000108924
0.000108924
0.000119989
0.000159625
-0.000682265
0.000304182
0.000377796
-0.000152304
4.05256e-05
0.00106298
-0.0010629
-1.02159e-06
-0.000256052
-3.16874e-05
0.000287738
-0.000917302
0.000111834
0.000360069
-0.000283377
-7.66959e-05
-0.000228297
0.000324003
0.000317626
0.000499955
-5.25075e-05
-0.000447545
-0.00122036
0.00123046
-2.66555e-05
-0.000291016
0.000128461
0.000938262
-0.000410941
-0.000528193
-0.000960569
5.98947e-05
-0.000326364
-0.000853947
0.000854538
-1.83037e-06
-0.00114067
0.000365599
0.00132882
-0.000959983
-0.000378319
0.000673499
-0.000353497
-0.000320284
-0.000165882
-9.30586e-05
0.000258941
-0.000907344
0.000383382
0.000523171
-0.000254134
-0.000587506
0.000841059
6.48778e-05
-0.000357643
5.37112e-05
-0.000244697
-0.000372756
-0.000334813
0.000867022
-0.000441095
-0.000426531
-0.000140534
0.000304648
-0.000164115
0.00066063
0.0007878
0.000191138
-0.000266641
0.000256375
-8.37384e-06
-0.00101655
0.000642638
-0.000270704
0.000364449
-9.37521e-05
-0.000557631
2.68133e-05
0.000530724
0.00050988
-0.000226938
0.000334244
-0.000507592
0.000173283
-0.000600461
-0.000232153
-0.000409207
0.00063925
-9.60531e-05
9.60531e-05
-0.000358141
-0.000277905
0.000710974
-0.0010033
-0.000433353
0.000200815
0.000433506
0.000384404
-0.000818987
0.000358677
-0.000367294
8.59868e-06
0.000719968
8.74805e-05
-0.000835513
-0.00019187
-0.000227953
0.0004198
0.000325869
-0.000111251
-0.000297013
0.000408258
0.000499603
-0.000165425
-0.000304172
0.000214291
8.98802e-05
-0.000609594
0.000333999
-8.45582e-07
-0.000325503
-0.000179311
0.000504771
-0.000298107
0.00108694
-0.0008132
-0.000769427
0.000719967
0.000352798
-5.02765e-05
-0.000218154
0.000307888
-0.000242956
0.000123314
0.000181333
-0.00134006
0.000178619
0.00115671
0.000514141
0.000848938
-6.24087e-05
-0.000366676
0.000429021
-0.00040293
-0.000575879
0.000977089
-0.00127441
0.00129378
-3.315e-05
-0.000263938
0.000130092
0.000166446
-0.000387815
-0.000237401
9.69906e-05
0.000140411
-0.000428607
-6.43424e-05
-0.000493373
0.000662071
0.00051066
-0.001174
-0.00125815
0.000300127
0.000181383
0.000157819
-0.000339207
-0.000512267
0.000501493
-9.24861e-05
-0.000362754
0.000418865
-5.76746e-05
0.000370015
-0.000219306
-0.000211644
0.000440329
-0.000228714
-0.00015905
0.000297145
-0.00117657
7.49235e-06
0.000539694
-0.00056595
5.7726e-05
-0.000223608
0.000463928
-0.000955615
0.000826833
-0.000491799
-0.000335611
0.000989598
0.000185228
-0.000235658
-5.17078e-05
0.000287365
2.01426e-05
0.000140936
-8.11658e-05
0.00024733
0.00109519
-0.00122887
0.000130477
0.000480115
-0.000247129
-0.000326678
-0.000387858
0.000714142
8.64359e-05
0.000352462
-0.000438958
-0.000694098
0.000222573
-0.00110075
-0.000219942
0.000825069
-0.000606624
-0.000190002
-0.000547724
0.000700902
0.000391539
-0.000262879
-0.000128672
-0.00109848
0.000415288
0.000682264
0.000109179
0.000166454
-0.0010237
0.00055442
0.000466495
2.86839e-05
-0.000298266
0.000269577
0.000290558
-0.000192797
-9.77617e-05
-0.000791609
0.000330194
0.000460807
0.000585279
-0.000195487
-0.000427243
0.000296826
-0.000179227
-0.000117599
-0.000193109
0.0003141
-0.000120994
-0.000154479
-0.000695583
-0.000513243
0.000539963
-0.0011602
7.94817e-05
0.000169641
-0.0002224
5.27591e-05
-0.000221078
-0.00101873
0.00031894
-0.000235353
-0.000218021
0.00117216
-0.000964078
0.000370876
-0.000589009
4.69005e-05
0.000313163
-0.000687096
0.000817799
-0.000894354
-7.52749e-05
-0.000557469
0.000261856
-0.00016993
-9.19263e-05
-0.000301155
0.000153515
0.000147639
6.19132e-05
-0.00029599
0.00153472
-0.000998969
0.000254609
-8.64099e-05
-0.00113689
0.000813695
-1.84657e-05
0.000703243
0.00049919
0.000747845
-0.000234556
-0.000383727
0.000435175
3.48518e-05
-0.000475057
-0.000146569
0.000313339
-0.000166771
-0.000172217
0.000334697
-0.000162483
-0.000245701
-0.0010306
-0.000180127
-2.04843e-05
0.0004812
-0.00071771
0.00109777
-3.49883e-05
0.000106619
0.000190207
-0.000422812
-0.000138713
-0.0001712
0.000274101
0.000494286
-0.000715601
-0.000219377
0.000951288
-0.00101857
0.000709427
-0.000400925
0.000457214
-7.45025e-05
0.00141031
-0.000127742
-0.000256889
-2.15465e-05
-0.000297868
-0.00010674
0.000404599
0.000200084
-0.00012886
-0.000155862
0.000655683
-0.000127747
0.000162855
-0.000498942
0.000335946
0.00024279
0.00100747
-0.000310222
0.000707436
-0.00039754
-2.40197e-05
-0.000489308
0.000133721
9.16823e-05
-0.000225403
0.000527603
0.000331911
0.000203927
-0.000357994
0.00015406
-4.57622e-05
-0.000466573
0.000418641
-0.000113946
-0.000209013
0.00028579
-7.67784e-05
-0.000236809
2.77942e-05
-0.000236394
0.000152342
8.40515e-05
-0.000175112
-0.000205238
-0.000123592
0.000328824
0.000928972
-0.000178478
-1.9663e-05
0.000308736
0.00039813
-0.000220779
-0.00017736
0.000373138
0.000525356
0.000123332
0.000207148
0.000213322
3.63492e-05
-0.000249673
0.000661276
0.000288009
-0.000951251
0.000161843
0.000383612
0.00120123
-0.000449415
-0.00045583
0.0011148
-0.000247182
0.000176926
0.0012486
-9.706e-05
-0.00116758
-0.000681935
0.000371395
-0.000206607
0.000243696
-0.00101777
0.000882495
0.000133083
0.000272728
-0.000126007
-0.000937123
0.000256378
0.00067995
-0.000524546
0.000246719
0.000277738
0.000303649
-0.000218703
-8.49471e-05
-0.000833558
-0.000187613
-0.00023413
-9.38982e-05
-0.000473231
0.000566589
-0.00033476
-0.000457407
-0.000193352
-0.000107804
0.000989799
-0.000365091
0.000459552
-9.44802e-05
-0.00027356
0.000187211
7.46448e-05
0.00121918
-0.000256018
-0.000969325
-0.000238373
0.00011404
0.000124333
0.00087018
-0.00052937
-9.65195e-05
0.00023393
-0.000137411
0.000100296
0.000127361
-0.000227657
-0.000119366
-0.000119007
-0.000764391
0.000469158
0.000294929
-0.00117973
0.000947056
0.000229527
-0.00104719
-0.000297548
-0.000230722
-5.29347e-05
0.000277944
0.000340984
-0.000301577
0.0012091
-0.000911514
-0.000133158
-0.000524906
0.000813253
-0.000812201
0.000302179
0.000509694
-0.000621426
0.000248623
0.000688575
0.000239322
0.000373402
0.00114202
0.000917831
-0.000549739
-0.000369415
-0.000396675
-0.000562708
0.000958466
0.000683975
-0.000709354
-0.000733506
-0.000130801
0.000217959
-0.000277475
5.95137e-05
0.00039534
-0.000227832
-0.000167521
-0.000829626
0.000518389
0.000310461
-0.000383275
0.000598317
-0.000215219
-0.000134846
0.000348166
-0.00050749
0.000252878
-0.000241846
-0.000438195
0.00106155
-0.000290484
0.000736976
-0.000446881
-0.00080722
-0.000291925
0.00125931
-0.000305766
-0.000961037
-0.000521224
-0.000145101
0.000666109
-0.00107035
-5.29227e-05
0.00129827
-6.84072e-05
0.000387156
0.000211316
-0.00104767
-9.78851e-05
-5.04761e-05
0.000409135
-0.000184371
0.000932816
-0.000115658
0.000221471
-0.000105813
-0.000218967
-0.00015292
0.000371878
-0.000403946
0.000161811
0.000242115
0.000259191
0.000176615
-0.00121316
0.000178487
0.00102775
-0.000257959
0.000209577
0.000218154
-0.000427764
-2.10972e-05
-0.000790826
0.0010423
-0.000671822
0.000292813
-3.99355e-05
0.000469639
0.000412281
-0.000882529
0.000422498
0.000346095
-0.000316286
5.62373e-05
-0.000260242
-0.000130805
-0.000440158
0.000570876
-0.00114185
0.000995279
0.000140971
0.00014031
0.000403518
-5.74317e-05
-0.000289634
-0.000593039
0.000498572
0.00100398
-0.00104827
-0.00104643
-0.000167561
0.00120156
0.000456603
-0.000297844
0.000702168
0.000367237
-0.00107219
-0.000213701
5.9007e-05
-0.000420605
-0.000635664
0.000639574
0.000391285
-0.000295612
-0.000286704
0.00040154
-0.000114851
0.000346124