/*--------------------------------*- C++ -*----------------------------------*\
| =========                 |                                                 |
| \\      /  F ield         | OpenFOAM: The Open Source CFD Toolbox           |
|  \\    /   O peration     | Version:  v2012                                 |
|   \\  /    A nd           | Website:  www.openfoam.com                      |
|    \\/     M anipulation  |                                                 |
\*---------------------------------------------------------------------------*/
FoamFile
{
    version     2.0;
    format      ascii;
    class       pointVectorField;
    location    "850";
    object      pointDisplacement;
}
// * * * * * * * * * * * * * * * * * * * * * * * * * * * * * * * * * * * * * //

dimensions      [0 1 0 0 0 0 0];


internalField   nonuniform List<vector> 
14246
(
(0 0 0)
(-0 -0.0565774 -0)
(0 0 0)
(-0 -0.0565774 -0)
(0 0 0)
(0 0 0)
(0 0 0)
(0 0 0)
(0 0 0)
(0 0 0)
(0 0 0)
(0 0 0)
(0 0 0)
(0 0 0)
(0 0 0)
(0 0 0)
(0 0 0)
(0 0 0)
(0 0 0)
(0 0 0)
(0 0 0)
(0 0 0)
(0 0 0)
(0 0 0)
(0 0 0)
(0 0 0)
(0 0 0)
(0 0 0)
(0 0 0)
(0 0 0)
(0 0 0)
(0 0 0)
(0 0 0)
(0 0 0)
(0 0 0)
(0 0 0)
(0 0 0)
(0 0 0)
(0 0 0)
(0 0 0)
(0 0 0)
(0 0 0)
(0 0 0)
(0 0 0)
(0 0 0)
(0 0 0)
(0 0 0)
(0 0 0)
(0 0 0)
(0 0 0)
(0 0 0)
(0 0 0)
(0 0 0)
(0 0 0)
(0 0 0)
(0 0 0)
(0 0 0)
(0 0 0)
(0 0 0)
(0 0 0)
(0 0 0)
(0 0 0)
(0 0 0)
(0 0 0)
(0 0 0)
(0 0 0)
(0 0 0)
(0 0 0)
(0 0 0)
(0 0 0)
(0 0 0)
(0 0 0)
(0 0 0)
(0 0 0)
(0 0 0)
(-0 -0.0565774 -0)
(-0 -0.0565774 -0)
(-0 -0.0565774 -0)
(-0 -0.0565774 -0)
(-0 -0.0565774 -0)
(-0 -0.0565774 -0)
(-0 -0.0565774 -0)
(-0 -0.0565774 -0)
(-0 -0.0565774 -0)
(-0 -0.0565774 -0)
(-0 -0.0565774 -0)
(-0 -0.0565774 -0)
(-0 -0.0565774 -0)
(-0 -0.0565774 -0)
(-0 -0.0565774 -0)
(-0 -0.0565774 -0)
(-0 -0.0565774 -0)
(-0 -0.0565774 -0)
(-0 -0.0565774 -0)
(-0 -0.0565774 -0)
(-0 -0.0565774 -0)
(-0 -0.0565774 -0)
(-0 -0.0565774 -0)
(-0 -0.0565774 -0)
(-0 -0.0565774 -0)
(-0 -0.0565774 -0)
(-0 -0.0565774 -0)
(-0 -0.0565774 -0)
(-0 -0.0565774 -0)
(-0 -0.0565774 -0)
(-0 -0.0565774 -0)
(-0 -0.0565774 -0)
(-0 -0.0565774 -0)
(-0 -0.0565774 -0)
(-0 -0.0565774 -0)
(-0 -0.0565774 -0)
(-0 -0.0565774 -0)
(-0 -0.0565774 -0)
(-0 -0.0565774 -0)
(-0 -0.0565774 -0)
(-0 -0.0565774 -0)
(-0 -0.0565774 -0)
(-0 -0.0565774 -0)
(-0 -0.0565774 -0)
(-0 -0.0565774 -0)
(-0 -0.0565774 -0)
(-0 -0.0565774 -0)
(-0 -0.0565774 -0)
(-0 -0.0565774 -0)
(-0 -0.0565774 -0)
(-0 -0.0565774 -0)
(-0 -0.0565774 -0)
(-0 -0.0565774 -0)
(-0 -0.0565774 -0)
(-0 -0.0565774 -0)
(-0 -0.0565774 -0)
(-0 -0.0565774 -0)
(-0 -0.0565774 -0)
(-0 -0.0565774 -0)
(-0 -0.0565774 -0)
(-0 -0.0565774 -0)
(-0 -0.0565774 -0)
(-0 -0.0565774 -0)
(-0 -0.0565774 -0)
(-0 -0.0565774 -0)
(-0 -0.0565774 -0)
(-0 -0.0565774 -0)
(-0 -0.0565774 -0)
(-0 -0.0565774 -0)
(-0 -0.0565774 -0)
(-0 -0.0565774 -0)
(-0 -0.0565774 -0)
(-0 -0.0565774 -0)
(-0 -0.0565774 -0)
(-0 -0.0565774 -0)
(-0 -0.0565774 -0)
(-0 -0.0565774 -0)
(-0 -0.0565774 -0)
(-0 -0.0565774 -0)
(-0 -0.0565774 -0)
(-0 -0.0565774 -0)
(-0 -0.0565774 -0)
(-0 -0.0565774 -0)
(-0 -0.0565774 -0)
(-0 -0.0565774 -0)
(-0 -0.0565774 -0)
(-0 -0.0565774 -0)
(-0 -0.0565774 -0)
(-0 -0.0565774 -0)
(-0 -0.0565774 -0)
(-0 -0.0565774 -0)
(-0 -0.0565774 -0)
(-0 -0.0565774 -0)
(-0 -0.0565774 -0)
(-0 -0.0565774 -0)
(-0 -0.0565774 -0)
(-0 -0.0565774 -0)
(-0 -0.0565774 -0)
(-0 -0.0565774 -0)
(-0 -0.0565774 -0)
(-0 -0.0565774 -0)
(-0 -0.0565774 -0)
(-0 -0.0565774 -0)
(-0 -0.0565774 -0)
(-0 -0.0565774 -0)
(-0 -0.0565774 -0)
(-0 -0.0565774 -0)
(-0 -0.0565774 -0)
(-0 -0.0565774 -0)
(-0 -0.0565774 -0)
(-0 -0.0565774 -0)
(-0 -0.0565774 -0)
(-0 -0.0565774 -0)
(-0 -0.0565774 -0)
(-0 -0.0565774 -0)
(-0 -0.0565774 -0)
(-0 -0.0565774 -0)
(-0 -0.0565774 -0)
(-0 -0.0565774 -0)
(-0 -0.0565774 -0)
(-0 -0.0565774 -0)
(-0 -0.0565774 -0)
(-0 -0.0565774 -0)
(-0 -0.0565774 -0)
(-0 -0.0565774 -0)
(-0 -0.0565774 -0)
(-0 -0.0565774 -0)
(-0 -0.0565774 -0)
(-0 -0.0565774 -0)
(-0 -0.0565774 -0)
(-0 -0.0565774 -0)
(-0 -0.0565774 -0)
(-0 -0.0565774 -0)
(-0 -0.0565774 -0)
(-0 -0.0565774 -0)
(0 0 0)
(0 0 0)
(0 0 0)
(0 0 0)
(0 0 0)
(0 0 0)
(0 0 0)
(0 0 0)
(0 0 0)
(0 0 0)
(0 0 0)
(0 0 0)
(0 0 0)
(0 0 0)
(0 0 0)
(0 0 0)
(0 0 0)
(0 0 0)
(0 0 0)
(0 0 0)
(0 0 0)
(0 0 0)
(0 0 0)
(0 0 0)
(0 0 0)
(0 0 0)
(0 0 0)
(0 0 0)
(0 0 0)
(0 0 0)
(0 0 0)
(0 0 0)
(0 0 0)
(0 0 0)
(0 0 0)
(0 0 0)
(0 0 0)
(0 0 0)
(0 0 0)
(0 0 0)
(0 0 0)
(0 0 0)
(0 0 0)
(0 0 0)
(0 0 0)
(0 0 0)
(0 0 0)
(0 0 0)
(0 0 0)
(0 0 0)
(0 0 0)
(0 0 0)
(0 0 0)
(0 0 0)
(0 0 0)
(0 0 0)
(0 0 0)
(0 0 0)
(0 0 0)
(0 0 0)
(0 0 0)
(0 0 0)
(0 0 0)
(0 0 0)
(0 0 0)
(0 0 0)
(0 0 0)
(0 0 0)
(0 0 0)
(0 0 0)
(0 0 0)
(-0 -0.0565774 -0)
(-0 -0.0565774 -0)
(-0 -0.0565774 -0)
(-0 -0.0565774 -0)
(-0 -0.0565774 -0)
(-0 -0.0565774 -0)
(-0 -0.0565774 -0)
(-0 -0.0565774 -0)
(-0 -0.0565774 -0)
(-0 -0.0565774 -0)
(-0 -0.0565774 -0)
(-0 -0.0565774 -0)
(-0 -0.0565774 -0)
(-0 -0.0565774 -0)
(-0 -0.0565774 -0)
(-0 -0.0565774 -0)
(-0 -0.0565774 -0)
(-0 -0.0565774 -0)
(-0 -0.0565774 -0)
(-0 -0.0565774 -0)
(-0 -0.0565774 -0)
(-0 -0.0565774 -0)
(-0 -0.0565774 -0)
(-0 -0.0565774 -0)
(-0 -0.0565774 -0)
(-0 -0.0565774 -0)
(-0 -0.0565774 -0)
(-0 -0.0565774 -0)
(-0 -0.0565774 -0)
(-0 -0.0565774 -0)
(-0 -0.0565774 -0)
(-0 -0.0565774 -0)
(-0 -0.0565774 -0)
(-0 -0.0565774 -0)
(-0 -0.0565774 -0)
(-0 -0.0565774 -0)
(-0 -0.0565774 -0)
(-0 -0.0565774 -0)
(-0 -0.0565774 -0)
(-0 -0.0565774 -0)
(-0 -0.0565774 -0)
(-0 -0.0565774 -0)
(-0 -0.0565774 -0)
(-0 -0.0565774 -0)
(-0 -0.0565774 -0)
(-0 -0.0565774 -0)
(-0 -0.0565774 -0)
(-0 -0.0565774 -0)
(-0 -0.0565774 -0)
(-0 -0.0565774 -0)
(-0 -0.0565774 -0)
(-0 -0.0565774 -0)
(-0 -0.0565774 -0)
(-0 -0.0565774 -0)
(-0 -0.0565774 -0)
(-0 -0.0565774 -0)
(-0 -0.0565774 -0)
(-0 -0.0565774 -0)
(-0 -0.0565774 -0)
(-0 -0.0565774 -0)
(-0 -0.0565774 -0)
(-0 -0.0565774 -0)
(-0 -0.0565774 -0)
(-0 -0.0565774 -0)
(-0 -0.0565774 -0)
(-0 -0.0565774 -0)
(-0 -0.0565774 -0)
(-0 -0.0565774 -0)
(-0 -0.0565774 -0)
(-0 -0.0565774 -0)
(-0 -0.0565774 -0)
(-0 -0.0565774 -0)
(-0 -0.0565774 -0)
(-0 -0.0565774 -0)
(-0 -0.0565774 -0)
(-0 -0.0565774 -0)
(-0 -0.0565774 -0)
(-0 -0.0565774 -0)
(-0 -0.0565774 -0)
(-0 -0.0565774 -0)
(-0 -0.0565774 -0)
(-0 -0.0565774 -0)
(-0 -0.0565774 -0)
(-0 -0.0565774 -0)
(-0 -0.0565774 -0)
(-0 -0.0565774 -0)
(-0 -0.0565774 -0)
(-0 -0.0565774 -0)
(-0 -0.0565774 -0)
(-0 -0.0565774 -0)
(-0 -0.0565774 -0)
(-0 -0.0565774 -0)
(-0 -0.0565774 -0)
(-0 -0.0565774 -0)
(-0 -0.0565774 -0)
(-0 -0.0565774 -0)
(-0 -0.0565774 -0)
(-0 -0.0565774 -0)
(-0 -0.0565774 -0)
(-0 -0.0565774 -0)
(-0 -0.0565774 -0)
(-0 -0.0565774 -0)
(-0 -0.0565774 -0)
(-0 -0.0565774 -0)
(-0 -0.0565774 -0)
(-0 -0.0565774 -0)
(-0 -0.0565774 -0)
(-0 -0.0565774 -0)
(-0 -0.0565774 -0)
(-0 -0.0565774 -0)
(-0 -0.0565774 -0)
(-0 -0.0565774 -0)
(-0 -0.0565774 -0)
(-0 -0.0565774 -0)
(-0 -0.0565774 -0)
(-0 -0.0565774 -0)
(-0 -0.0565774 -0)
(-0 -0.0565774 -0)
(-0 -0.0565774 -0)
(-0 -0.0565774 -0)
(-0 -0.0565774 -0)
(-0 -0.0565774 -0)
(-0 -0.0565774 -0)
(-0 -0.0565774 -0)
(-0 -0.0565774 -0)
(-0 -0.0565774 -0)
(-0 -0.0565774 -0)
(-0 -0.0565774 -0)
(-0 -0.0565774 -0)
(-0 -0.0565774 -0)
(-0 -0.0565774 -0)
(-0 -0.0565774 -0)
(-0 -0.0565774 -0)
(-0 -0.0565774 -0)
(-0 -0.0565774 -0)
(0 -0.0565774 0)
(0 -0.0565774 0)
(0 -0.0565773 0)
(0 -0.0565774 0)
(0 -0.0565774 0)
(0 -0.0565774 0)
(0 -0.0565773 0)
(0 -0.0565773 0)
(0 -0.0565774 0)
(0 -0.0565774 0)
(0 -0.0565774 0)
(0 -0.0565774 0)
(0 -0.0565774 0)
(0 -0.0565774 0)
(0 -0.0565774 0)
(0 -0.0565774 0)
(0 -0.00302367 0)
(0 -0.00339344 0)
(0 -0.00368153 0)
(0 -0.0045665 0)
(0 -0.00410203 0)
(0 -0.00488734 0)
(0 -0.00390659 0)
(0 -0.0565772 0)
(0 -0.00266028 0)
(0 -0.00269892 0)
(0 -0.00199461 0)
(0 -0.0565774 0)
(0 -0.0565774 0)
(0 -0.0565773 0)
(0 -0.0565774 0)
(0 -0.0565774 0)
(0 -0.0565774 0)
(0 -0.0565774 0)
(0 -0.0565774 0)
(0 -0.0565774 0)
(0 -0.0565774 0)
(0 -0.0565774 0)
(0 -0.0565774 0)
(0 -0.0565774 0)
(0 -0.0565774 0)
(0 -0.00202656 0)
(0 -0.00383594 0)
(0 -0.00369433 0)
(0 -0.00349027 0)
(0 -0.00122304 0)
(0 -0.00141011 0)
(0 -0.000785149 0)
(0 -0.00441772 0)
(0 -0.00442805 0)
(0 -0.00311721 0)
(0 -0.00366215 0)
(0 -0.00380858 0)
(0 -0.00297625 0)
(0 -0.00234548 0)
(0 -0.00256191 0)
(0 -0.00162091 0)
(0 -0.000827567 0)
(0 -0.000379455 0)
(0 -0.00423135 0)
(0 -0.00802128 0)
(0 -0.00783342 0)
(0 -0.0114369 0)
(0 -0.011201 0)
(0 -0.014513 0)
(0 -0.0142353 0)
(0 -0.0173512 0)
(0 -0.0170117 0)
(0 -0.019905 0)
(0 -0.0194961 0)
(0 -0.0221436 0)
(0 -0.0216791 0)
(0 -0.0241628 0)
(0 -0.0236462 0)
(0 -0.0259924 0)
(0 -0.0265358 0)
(0 -0.0282182 0)
(0 -0.0287554 0)
(0 -0.0303077 0)
(0 -0.030821 0)
(0 -0.0322632 0)
(0 -0.0327566 0)
(0 -0.0340894 0)
(0 -0.0345961 0)
(0 -0.0357951 0)
(0 -0.0363194 0)
(0 -0.0373905 0)
(0 -0.0378729 0)
(0 -0.038863 0)
(0 -0.0393189 0)
(0 -0.0402382 0)
(0 -0.0406537 0)
(0 -0.0415355 0)
(0 -0.0418961 0)
(0 -0.0427271 0)
(0 -0.0430742 0)
(0 -0.0438308 0)
(0 -0.0441636 0)
(0 -0.0448546 0)
(0 -0.045177 0)
(0 -0.0458146 0)
(0 -0.0461306 0)
(0 -0.0454834 0)
(0 -0.0463922 0)
(0 -0.0460539 0)
(0 -0.0469181 0)
(0 -0.0465738 0)
(0 -0.0474017 0)
(0 -0.0470498 0)
(0 -0.0478502 0)
(0 -0.0474817 0)
(0 -0.0482224 0)
(0 -0.0478831 0)
(0 -0.0485625 0)
(0 -0.0482322 0)
(0 -0.048926 0)
(0 -0.048546 0)
(0 -0.0492497 0)
(0 -0.0488468 0)
(0 -0.0495186 0)
(0 -0.0486866 0)
(0 -0.0491133 0)
(0 -0.0497608 0)
(0 -0.0493465 0)
(0 -0.0499757 0)
(0 -0.0495565 0)
(0 -0.0501722 0)
(0 -0.0497439 0)
(0 -0.0503381 0)
(0 -0.0491176 0)
(0 -0.0499098 0)
(0 -0.0504678 0)
(0 -0.0500348 0)
(0 -0.0505803 0)
(0 -0.0501247 0)
(0 -0.0506526 0)
(0 -0.0502031 0)
(0 -0.0507203 0)
(0 -0.0502645 0)
(0 -0.0507856 0)
(0 -0.0502992 0)
(0 -0.050818 0)
(0 -0.0497706 0)
(0 -0.0501398 0)
(0 -0.0503092 0)
(0 -0.0508213 0)
(0 -0.0503025 0)
(0 -0.0507997 0)
(0 -0.051282 0)
(0 -0.0512624 0)
(0 -0.0507763 0)
(0 -0.051235 0)
(0 -0.0516975 0)
(0 -0.0516601 0)
(0 -0.0511916 0)
(0 -0.0516102 0)
(0 -0.0520556 0)
(0 -0.0520013 0)
(0 -0.0515489 0)
(0 -0.0519382 0)
(0 -0.0514795 0)
(0 -0.0518688 0)
(0 -0.0522971 0)
(0 -0.0522369 0)
(0 -0.0517969 0)
(0 -0.0521663 0)
(0 -0.0526529 0)
(0 -0.0525084 0)
(0 -0.0520888 0)
(0 -0.0524151 0)
(0 -0.0528344 0)
(0 -0.0527086 0)
(0 -0.0522594 0)
(0 -0.0526231 0)
(0 -0.0529979 0)
(0 -0.0529224 0)
(0 -0.0525369 0)
(0 -0.0528303 0)
(0 -0.0524315 0)
(0 -0.0527291 0)
(0 -0.0531067 0)
(0 -0.0530074 0)
(0 -0.0526212 0)
(0 -0.0529024 0)
(0 -0.0525079 0)
(0 -0.0527924 0)
(0 -0.0531661 0)
(0 -0.0530574 0)
(0 -0.0526771 0)
(0 -0.0529441 0)
(0 -0.0533044 0)
(0 -0.0531932 0)
(0 -0.0528262 0)
(0 -0.0530786 0)
(0 -0.0527045 0)
(0 -0.0529621 0)
(0 -0.0533134 0)
(0 -0.0532003 0)
(0 -0.0528439 0)
(0 -0.0530831 0)
(0 -0.0534225 0)
(0 -0.053309 0)
(0 -0.0529589 0)
(0 -0.0531886 0)
(0 -0.0528263 0)
(0 -0.0530586 0)
(0 -0.0526867 0)
(0 -0.0529216 0)
(0 -0.0532752 0)
(0 -0.053141 0)
(0 -0.0527809 0)
(0 -0.053005 0)
(0 -0.0533465 0)
(0 -0.0532148 0)
(0 -0.0528642 0)
(0 -0.0530759 0)
(0 -0.0527171 0)
(0 -0.0529314 0)
(0 -0.029761 0)
(0 -0.050989 0)
(0 -0.0454772 0)
(0 -0.046415 0)
(0 -0.0457563 0)
(0 -0.0467013 0)
(0 -0.046023 0)
(0 -0.0477819 0)
(0 -0.0552244 0)
(0 -0.055397 0)
(0 -0.0552746 0)
(0 -0.0554405 0)
(0 -0.0553119 0)
(0 -0.0554763 0)
(0 -0.0553422 0)
(0 -0.0555059 0)
(0 -0.0383341 0)
(0 -0.0553676 0)
(0 -0.0555247 0)
(0 -0.0550502 0)
(0 -0.0553845 0)
(0 -0.0555329 0)
(0 -0.055629 0)
(0 -0.0553928 0)
(0 -0.0555369 0)
(0 -0.0552211 0)
(0 -0.0553943 0)
(0 -0.0555348 0)
(0 -0.0556664 0)
(0 -0.0556607 0)
(0 -0.0555264 0)
(0 -0.055649 0)
(0 -0.0555107 0)
(0 -0.0556303 0)
(0 -0.0557587 0)
(0 -0.0557377 0)
(0 -0.0369011 0)
(0 -0.0558565 0)
(0 -0.0558334 0)
(0 -0.0557115 0)
(0 -0.0558048 0)
(0 -0.0559175 0)
(0 -0.0558874 0)
(0 -0.0557709 0)
(0 -0.0558527 0)
(0 -0.0559607 0)
(0 -0.055925 0)
(0 -0.0560246 0)
(0 -0.055988 0)
(0 -0.0558862 0)
(0 -0.055949 0)
(0 -0.0560417 0)
(0 -0.056003 0)
(0 -0.0560888 0)
(0 -0.0560505 0)
(0 -0.0561289 0)
(0 -0.056089 0)
(0 -0.0561626 0)
(0 -0.0561212 0)
(0 -0.0561917 0)
(0 -0.05615 0)
(0 -0.0562161 0)
(0 -0.0561753 0)
(0 -0.0562371 0)
(0 -0.0561975 0)
(0 -0.0562549 0)
(0 -0.0562169 0)
(0 -0.05627 0)
(0 -0.0562337 0)
(0 -0.0562847 0)
(0 -0.0562493 0)
(0 -0.0562977 0)
(0 -0.0562637 0)
(0 -0.0563083 0)
(0 -0.0562742 0)
(0 -0.0563172 0)
(0 -0.0562835 0)
(0 -0.0563246 0)
(0 -0.0562914 0)
(0 -0.0563307 0)
(0 -0.0562971 0)
(0 -0.0563361 0)
(0 -0.0563034 0)
(0 -0.056341 0)
(0 -0.0563086 0)
(0 -0.0563454 0)
(0 -0.0563128 0)
(0 -0.0563492 0)
(0 -0.0563165 0)
(0 -0.0563521 0)
(0 -0.0563206 0)
(0 -0.0563542 0)
(0 -0.0563234 0)
(0 -0.0563559 0)
(0 -0.0563246 0)
(0 -0.0563573 0)
(0 -0.0563259 0)
(0 -0.0563586 0)
(0 -0.0563271 0)
(0 -0.0563595 0)
(0 -0.0563284 0)
(0 -0.0563598 0)
(0 -0.0563288 0)
(0 -0.0563598 0)
(0 -0.0563288 0)
(0 -0.0563597 0)
(0 -0.0563284 0)
(0 -0.0563593 0)
(0 -0.0563277 0)
(0 -0.0563592 0)
(0 -0.0563272 0)
(0 -0.0563594 0)
(0 -0.0563264 0)
(0 -0.0563582 0)
(0 -0.0563256 0)
(0 -0.0563562 0)
(0 -0.0563237 0)
(0 -0.0563537 0)
(0 -0.0563211 0)
(0 -0.0563508 0)
(0 -0.0563183 0)
(0 -0.0563483 0)
(0 -0.0563134 0)
(0 -0.0563455 0)
(0 -0.05631 0)
(0 -0.0563431 0)
(0 -0.0563094 0)
(0 -0.0563405 0)
(0 -0.056307 0)
(0 -0.056337 0)
(0 -0.0563029 0)
(0 -0.0563334 0)
(0 -0.0562989 0)
(0 -0.0563295 0)
(0 -0.0562949 0)
(0 -0.0563259 0)
(0 -0.0562915 0)
(0 -0.0563212 0)
(0 -0.0562861 0)
(0 -0.0563155 0)
(0 -0.0562807 0)
(0 -0.0563102 0)
(0 -0.0562755 0)
(0 -0.0563045 0)
(0 -0.0562678 0)
(0 -0.0562983 0)
(0 -0.05626 0)
(0 -0.0562918 0)
(0 -0.0562519 0)
(0 -0.056284 0)
(0 -0.0562443 0)
(0 -0.0562758 0)
(0 -0.0562369 0)
(0 -0.0562681 0)
(0 -0.0562277 0)
(0 -0.0562596 0)
(0 -0.0562172 0)
(0 -0.0562503 0)
(0 -0.0562068 0)
(0 -0.0562404 0)
(0 -0.0562814 0)
(0 -0.0562718 0)
(0 -0.0562299 0)
(0 -0.0562618 0)
(0 -0.0563236 0)
(0 -0.0563465 0)
(0 -0.0563638 0)
(0 -0.0563741 0)
(0 -0.0563872 0)
(0 -0.056387 0)
(0 -0.0562918 0)
(0 -0.0562927 0)
(0 -0.056282 0)
(0 -0.0562511 0)
(0 -0.0561973 0)
(0 -0.0563875 0)
(0 -0.0562712 0)
(0 -0.0562263 0)
(0 -0.056259 0)
(0 -0.056074 0)
(0 -0.0563833 0)
(0 -0.056183 0)
(0 -0.055851 0)
(0 -0.0563698 0)
(0 -0.0563504 0)
(0 -0.0469512 0)
(0 -0.0462648 0)
(0 -0.0562875 0)
(0 -0.0563022 0)
(0 -0.0561992 0)
(0 -0.0471467 0)
(0 -0.0463374 0)
(0 -0.0473318 0)
(0 -0.0466402 0)
(0 -0.0475314 0)
(0 -0.046813 0)
(0 -0.0458909 0)
(0 -0.0459807 0)
(0 -0.0450242 0)
(0 -0.04511 0)
(0 -0.0440211 0)
(0 -0.0441554 0)
(0 -0.0469342 0)
(0 -0.0479518 0)
(0 -0.0429731 0)
(0 -0.0431096 0)
(0 -0.0418763 0)
(0 -0.0419927 0)
(0 -0.0432143 0)
(0 -0.0420746 0)
(0 -0.043282 0)
(0 -0.0407658 0)
(0 -0.0176704 0)
(0 -0.0564625 0)
(0 -0.0564294 0)
(0 -0.0564466 0)
(0 -0.0564776 0)
(0 -0.0564625 0)
(0 -0.0564914 0)
(0 -0.0564757 0)
(0 -0.0565023 0)
(0 -0.0564869 0)
(0 -0.0565105 0)
(0 -0.0564966 0)
(0 -0.0565169 0)
(0 -0.0565031 0)
(0 -0.0565212 0)
(0 -0.0565076 0)
(0 -0.0565242 0)
(0 -0.0564431 0)
(0 -0.05651 0)
(0 -0.0565258 0)
(0 -0.0564879 0)
(0 -0.0462165 0)
(0 -0.0565106 0)
(0 -0.0565256 0)
(0 -0.051278 0)
(0 -0.0331848 0)
(0 -0.0565097 0)
(0 -0.0565238 0)
(0 -0.0565224 0)
(0 -0.0403498 0)
(0 -0.0417531 0)
(0 -0.0409069 0)
(0 -0.0394643 0)
(0 -0.0400454 0)
(0 -0.0414499 0)
(0 -0.0406019 0)
(0 -0.0419597 0)
(0 -0.0411259 0)
(0 -0.0397079 0)
(0 -0.0402502 0)
(0 -0.0416251 0)
(0 -0.0407789 0)
(0 -0.0393233 0)
(0 -0.0398732 0)
(0 -0.0412923 0)
(0 -0.0403979 0)
(0 -0.0417809 0)
(0 -0.0408965 0)
(0 -0.0394564 0)
(0 -0.039963 0)
(0 -0.0413792 0)
(0 -0.0404566 0)
(0 -0.0389774 0)
(0 -0.0394846 0)
(0 -0.0409604 0)
(0 -0.0399917 0)
(0 -0.0384713 0)
(0 -0.0389731 0)
(0 -0.0404528 0)
(0 -0.0394492 0)
(0 -0.0379328 0)
(0 -0.0384247 0)
(0 -0.039892 0)
(0 -0.0388809 0)
(0 -0.0403093 0)
(0 -0.0393214 0)
(0 -0.037828 0)
(0 -0.0382816 0)
(0 -0.0398064 0)
(0 -0.0387316 0)
(0 -0.03719 0)
(0 -0.0375924 0)
(0 -0.0390116 0)
(0 -0.0379378 0)
(0 -0.0364464 0)
(0 -0.0368187 0)
(0 -0.0382669 0)
(0 -0.0371518 0)
(0 -0.038567 0)
(0 -0.0374434 0)
(0 -0.0359741 0)
(0 -0.0362643 0)
(0 -0.0376911 0)
(0 -0.0365065 0)
(0 -0.0378936 0)
(0 -0.0367017 0)
(0 -0.0380276 0)
(0 -0.036821 0)
(0 -0.0380327 0)
(0 -0.0368447 0)
(0 -0.0355501 0)
(0 -0.0356053 0)
(0 -0.0368725 0)
(0 -0.0356076 0)
(0 -0.0368443 0)
(0 -0.0355477 0)
(0 -0.0367664 0)
(0 -0.0354375 0)
(0 -0.0366521 0)
(0 -0.0352506 0)
(0 -0.0340148 0)
(0 -0.0337794 0)
(0 -0.0325191 0)
(0 -0.0322367 0)
(0 -0.0309484 0)
(0 -0.0306298 0)
(0 -0.0293005 0)
(0 -0.0289625 0)
(0 -0.0347281 0)
(0 -0.036443 0)
(0 -0.0275927 0)
(0 -0.0272293 0)
(0 -0.0278658 0)
(0 -0.0258544 0)
(0 -0.0254495 0)
(0 -0.0267645 0)
(0 -0.0240783 0)
(0 -0.0249355 0)
(0 -0.0262082 0)
(0 -0.0391281 0)
(0 -0.0380495 0)
(0 -0.0242945 0)
(0 -0.0254864 0)
(0 -0.0535396 0)
(0 -0.0536314 0)
(0 -0.0524372 0)
(0 -0.052331 0)
(0 -0.0565334 0)
(0 -0.056541 0)
(0 -0.0565354 0)
(0 -0.0565425 0)
(0 -0.056537 0)
(0 -0.0565439 0)
(0 -0.0565383 0)
(0 -0.0565451 0)
(0 -0.0565397 0)
(0 -0.0565463 0)
(0 -0.056541 0)
(0 -0.0565474 0)
(0 -0.0565422 0)
(0 -0.0565485 0)
(0 -0.0565434 0)
(0 -0.0565494 0)
(0 -0.0565445 0)
(0 -0.0565503 0)
(0 -0.0565455 0)
(0 -0.0565513 0)
(0 -0.0565465 0)
(0 -0.0565521 0)
(0 -0.0565474 0)
(0 -0.0565528 0)
(0 -0.0565483 0)
(0 -0.0565535 0)
(0 -0.0565491 0)
(0 -0.0565542 0)
(0 -0.0565499 0)
(0 -0.0565549 0)
(0 -0.0565507 0)
(0 -0.0565554 0)
(0 -0.0565513 0)
(0 -0.056556 0)
(0 -0.0565519 0)
(0 -0.0565565 0)
(0 -0.0565526 0)
(0 -0.0565571 0)
(0 -0.056553 0)
(0 -0.0565575 0)
(0 -0.0565535 0)
(0 -0.0565579 0)
(0 -0.0565538 0)
(0 -0.0565583 0)
(0 -0.0565545 0)
(0 -0.0565587 0)
(0 -0.0565554 0)
(0 -0.0565593 0)
(0 -0.056556 0)
(0 -0.0565597 0)
(0 -0.0565563 0)
(0 -0.0565601 0)
(0 -0.0565567 0)
(0 -0.0565604 0)
(0 -0.056557 0)
(0 -0.0565608 0)
(0 -0.0565574 0)
(0 -0.0565611 0)
(0 -0.0565577 0)
(0 -0.0565614 0)
(0 -0.0565581 0)
(0 -0.0565617 0)
(0 -0.0565584 0)
(0 -0.056562 0)
(0 -0.0565587 0)
(0 -0.0565623 0)
(0 -0.056559 0)
(0 -0.0565625 0)
(0 -0.0565592 0)
(0 -0.0565627 0)
(0 -0.0565594 0)
(0 -0.056563 0)
(0 -0.0565595 0)
(0 -0.0565632 0)
(0 -0.0565598 0)
(0 -0.0565634 0)
(0 -0.0565603 0)
(0 -0.0565636 0)
(0 -0.0565607 0)
(0 -0.0565639 0)
(0 -0.056561 0)
(0 -0.0565641 0)
(0 -0.0565612 0)
(0 -0.0565643 0)
(0 -0.0565613 0)
(0 -0.0565645 0)
(0 -0.0565615 0)
(0 -0.0565646 0)
(0 -0.0565617 0)
(0 -0.0565648 0)
(0 -0.056562 0)
(0 -0.0565649 0)
(0 -0.0565621 0)
(0 -0.056551 0)
(0 -0.0565651 0)
(0 -0.0565622 0)
(0 -0.0565653 0)
(0 -0.0565623 0)
(0 -0.0565654 0)
(0 -0.0565624 0)
(0 -0.0565555 0)
(0 -0.0565655 0)
(0 -0.0565625 0)
(0 -0.0565656 0)
(0 -0.0565625 0)
(0 -0.0565657 0)
(0 -0.0565626 0)
(0 -0.0565592 0)
(0 -0.0565657 0)
(0 -0.0565628 0)
(0 -0.0565657 0)
(0 -0.0565628 0)
(0 -0.0565657 0)
(0 -0.0565627 0)
(0 -0.0565606 0)
(0 -0.0565658 0)
(0 -0.0565627 0)
(0 -0.0565659 0)
(0 -0.0565627 0)
(0 -0.0565617 0)
(0 -0.056566 0)
(0 -0.0565625 0)
(0 -0.0565659 0)
(0 -0.0565625 0)
(0 -0.0565659 0)
(0 -0.0565626 0)
(0 -0.0565637 0)
(0 -0.0565659 0)
(0 -0.0565626 0)
(0 -0.0565658 0)
(0 -0.0565625 0)
(0 -0.0565658 0)
(0 -0.0565624 0)
(0 -0.0565435 0)
(0 -0.0565527 0)
(0 -0.0565331 0)
(0 -0.0565585 0)
(0 -0.056557 0)
(0 -0.0565545 0)
(0 -0.0565654 0)
(0 -0.0565482 0)
(0 -0.0565657 0)
(0 -0.0565622 0)
(0 -0.0565589 0)
(0 -0.0565656 0)
(0 -0.056562 0)
(0 -0.0565654 0)
(0 -0.0565617 0)
(0 -0.0565584 0)
(0 -0.0565584 0)
(0 -0.0565659 0)
(0 -0.0565652 0)
(0 -0.0565613 0)
(0 -0.0565387 0)
(0 -0.0565271 0)
(0 -0.0565664 0)
(0 -0.056565 0)
(0 -0.0565608 0)
(0 -0.0565644 0)
(0 -0.0565602 0)
(0 -0.0565672 0)
(0 -0.0565639 0)
(0 -0.0565595 0)
(0 -0.0565676 0)
(0 -0.0565554 0)
(0 -0.0565636 0)
(0 -0.0565588 0)
(0 -0.0565684 0)
(0 -0.0565632 0)
(0 -0.0565579 0)
(0 -0.0565684 0)
(0 -0.0565624 0)
(0 -0.0565684 0)
(0 -0.0565686 0)
(0 -0.0235105 0)
(0 -0.0223785 0)
(0 -0.0495447 0)
(0 -0.0565461 0)
(0 -0.0245769 0)
(0 -0.0266009 0)
(0 -0.0565511 0)
(0 -0.0565685 0)
(0 -0.0565535 0)
(0 -0.056555 0)
(0 -0.0565578 0)
(0 -0.0565587 0)
(0 -0.0565585 0)
(0 -0.056559 0)
(0 -0.0565075 0)
(0 -0.0564911 0)
(0 -0.0554443 0)
(0 -0.0553474 0)
(0 -0.0554745 0)
(0 -0.0553795 0)
(0 -0.0555028 0)
(0 -0.055412 0)
(0 -0.0555303 0)
(0 -0.0554361 0)
(0 -0.0555527 0)
(0 -0.0554506 0)
(0 -0.0555712 0)
(0 -0.0554716 0)
(0 -0.0555906 0)
(0 -0.0554984 0)
(0 -0.0556096 0)
(0 -0.0555234 0)
(0 -0.0556266 0)
(0 -0.0555383 0)
(0 -0.0556413 0)
(0 -0.0555468 0)
(0 -0.0556505 0)
(0 -0.0555591 0)
(0 -0.0556601 0)
(0 -0.0555707 0)
(0 -0.0556742 0)
(0 -0.0555813 0)
(0 -0.055686 0)
(0 -0.055591 0)
(0 -0.0554776 0)
(0 -0.0554879 0)
(0 -0.0556004 0)
(0 -0.0554999 0)
(0 -0.0556089 0)
(0 -0.055508 0)
(0 -0.0556154 0)
(0 -0.0555083 0)
(0 -0.0556201 0)
(0 -0.0555118 0)
(0 -0.0556238 0)
(0 -0.0555197 0)
(0 -0.0556257 0)
(0 -0.0555171 0)
(0 -0.0556256 0)
(0 -0.055515 0)
(0 -0.0556248 0)
(0 -0.0555202 0)
(0 -0.0556231 0)
(0 -0.055514 0)
(0 -0.0556183 0)
(0 -0.0555016 0)
(0 -0.0556111 0)
(0 -0.0554969 0)
(0 -0.055603 0)
(0 -0.0554889 0)
(0 -0.0555937 0)
(0 -0.0554798 0)
(0 -0.0555819 0)
(0 -0.0554642 0)
(0 -0.0555666 0)
(0 -0.0554395 0)
(0 -0.055548 0)
(0 -0.0554175 0)
(0 -0.0552998 0)
(0 -0.0552741 0)
(0 -0.0553937 0)
(0 -0.055247 0)
(0 -0.0553672 0)
(0 -0.055215 0)
(0 -0.0553366 0)
(0 -0.0551789 0)
(0 -0.0553018 0)
(0 -0.055139 0)
(0 -0.0552627 0)
(0 -0.0550943 0)
(0 -0.0552187 0)
(0 -0.0550435 0)
(0 -0.0553671 0)
(0 -0.0551698 0)
(0 -0.0549867 0)
(0 -0.0554253 0)
(0 -0.0550101 0)
(0 -0.0554462 0)
(0 -0.0554128 0)
(0 -0.0553302 0)
(0 -0.0548497 0)
(0 -0.0547846 0)
(0 -0.0549242 0)
(0 -0.0547135 0)
(0 -0.0548555 0)
(0 -0.0546327 0)
(0 -0.0547741 0)
(0 -0.054536 0)
(0 -0.0546639 0)
(0 -0.0544241 0)
(0 -0.054552 0)
(0 -0.0553551 0)
(0 -0.0554018 0)
(0 -0.0553637 0)
(0 -0.0551267 0)
(0 -0.0565526 0)
(0 -0.0565511 0)
(0 -0.0565447 0)
(0 -0.0565428 0)
(0 -0.0565684 0)
(0 -0.0543038 0)
(0 -0.0544422 0)
(0 -0.056535 0)
(0 -0.0565328 0)
(0 -0.0541711 0)
(0 -0.0543075 0)
(0 -0.0565743 0)
(0 -0.0565734 0)
(0 -0.0565745 0)
(0 -0.0565736 0)
(0 -0.0565747 0)
(0 -0.0565738 0)
(0 -0.0565748 0)
(0 -0.056574 0)
(0 -0.056575 0)
(0 -0.0565742 0)
(0 -0.0565751 0)
(0 -0.0565744 0)
(0 -0.0565752 0)
(0 -0.0565745 0)
(0 -0.0565753 0)
(0 -0.0565746 0)
(0 -0.0565754 0)
(0 -0.0565748 0)
(0 -0.0565756 0)
(0 -0.0565749 0)
(0 -0.0540205 0)
(0 -0.0541548 0)
(0 -0.0538538 0)
(0 -0.0539855 0)
(0 -0.0215372 0)
(0 -0.0204316 0)
(0 -0.0256035 0)
(0 -0.02761 0)
(0 -0.0544044 0)
(0 -0.0342294 0)
(0 -0.0565757 0)
(0 -0.056575 0)
(0 -0.0565681 0)
(0 -0.0565758 0)
(0 -0.0565752 0)
(0 -0.0565758 0)
(0 -0.0565753 0)
(0 -0.0417057 0)
(0 -0.0565375 0)
(0 -0.0565759 0)
(0 -0.0565754 0)
(0 -0.0546379 0)
(0 -0.0564882 0)
(0 -0.056469 0)
(0 -0.0411431 0)
(0 -0.0565737 0)
(0 -0.0565355 0)
(0 -0.056576 0)
(0 -0.0565755 0)
(0 -0.0565747 0)
(0 -0.0565748 0)
(0 -0.0565756 0)
(0 -0.0565749 0)
(0 -0.0565757 0)
(0 -0.0565751 0)
(0 -0.0565757 0)
(0 -0.0565752 0)
(0 -0.0565758 0)
(0 -0.0565753 0)
(0 -0.0565759 0)
(0 -0.0565754 0)
(0 -0.056576 0)
(0 -0.0565755 0)
(0 -0.0542775 0)
(0 -0.0541049 0)
(0 -0.0538018 0)
(0 -0.0539187 0)
(0 -0.0552435 0)
(0 -0.0565761 0)
(0 -0.0565756 0)
(0 -0.0565761 0)
(0 -0.0565757 0)
(0 -0.0542129 0)
(0 -0.0540249 0)
(0 -0.0537153 0)
(0 -0.0538182 0)
(0 -0.05349 0)
(0 -0.0535887 0)
(0 -0.0532408 0)
(0 -0.0533341 0)
(0 -0.0536822 0)
(0 -0.0534201 0)
(0 -0.0530549 0)
(0 -0.0531304 0)
(0 -0.0534903 0)
(0 -0.0531947 0)
(0 -0.0535529 0)
(0 -0.0532486 0)
(0 -0.0528773 0)
(0 -0.0529213 0)
(0 -0.0525299 0)
(0 -0.0525614 0)
(0 -0.052947 0)
(0 -0.0525714 0)
(0 -0.0529574 0)
(0 -0.0525695 0)
(0 -0.0529511 0)
(0 -0.0525368 0)
(0 -0.0529252 0)
(0 -0.0524963 0)
(0 -0.0528886 0)
(0 -0.0524642 0)
(0 -0.0528405 0)
(0 -0.0524004 0)
(0 -0.0527695 0)
(0 -0.0523145 0)
(0 -0.0521494 0)
(0 -0.0526758 0)
(0 -0.0522149 0)
(0 -0.0525604 0)
(0 -0.0520756 0)
(0 -0.0524187 0)
(0 -0.0519143 0)
(0 -0.0565676 0)
(0 -0.0565722 0)
(0 -0.0565762 0)
(0 -0.0565757 0)
(0 -0.0565231 0)
(0 -0.0565208 0)
(0 -0.0266153 0)
(0 -0.0286068 0)
(0 -0.0244195 0)
(0 -0.0195416 0)
(0 -0.018467 0)
(0 -0.0554822 0)
(0 -0.05631 0)
(0 -0.0550009 0)
(0 -0.0565762 0)
(0 -0.0565758 0)
(0 -0.0565763 0)
(0 -0.0565759 0)
(0 -0.0565764 0)
(0 -0.056576 0)
(0 -0.0565753 0)
(0 -0.0565754 0)
(0 -0.056576 0)
(0 -0.0565755 0)
(0 -0.0565761 0)
(0 -0.0565756 0)
(0 -0.0565762 0)
(0 -0.0565758 0)
(0 -0.0565763 0)
(0 -0.0565759 0)
(0 -0.055724 0)
(0 -0.0557112 0)
(0 -0.0557255 0)
(0 -0.0565739 0)
(0 -0.0565764 0)
(0 -0.0565759 0)
(0 -0.0565764 0)
(0 -0.056576 0)
(0 -0.0565748 0)
(0 -0.0565764 0)
(0 -0.0565761 0)
(0 -0.0565753 0)
(0 -0.0421783 0)
(0 -0.0521108 0)
(0 -0.056526 0)
(0 -0.0557023 0)
(0 -0.0540268 0)
(0 -0.0543104 0)
(0 -0.0553363 0)
(0 -0.0556657 0)
(0 -0.0565742 0)
(0 -0.0517083 0)
(0 -0.0565754 0)
(0 -0.0555629 0)
(0 -0.0565124 0)
(0 -0.056516 0)
(0 -0.0565732 0)
(0 -0.0565417 0)
(0 -0.0564652 0)
(0 -0.0564428 0)
(0 -0.0565765 0)
(0 -0.0565761 0)
(0 -0.0276569 0)
(0 -0.0296611 0)
(0 -0.0531359 0)
(0 -0.0556808 0)
(0 -0.0565751 0)
(0 -0.0557709 0)
(0 -0.0533059 0)
(0 -0.0565765 0)
(0 -0.0565762 0)
(0 -0.0565766 0)
(0 -0.0565762 0)
(0 -0.0565757 0)
(0 -0.0565758 0)
(0 -0.0565763 0)
(0 -0.0565759 0)
(0 -0.0565764 0)
(0 -0.056576 0)
(0 -0.0565764 0)
(0 -0.056576 0)
(0 -0.0565765 0)
(0 -0.0565761 0)
(0 -0.0565753 0)
(0 -0.0557445 0)
(0 -0.0565758 0)
(0 -0.0175238 0)
(0 -0.0164913 0)
(0 -0.0173401 0)
(0 -0.0154092 0)
(0 -0.0161542 0)
(0 -0.0142595 0)
(0 -0.0148911 0)
(0 -0.0130457 0)
(0 -0.0135455 0)
(0 -0.0565765 0)
(0 -0.0565762 0)
(0 -0.0565766 0)
(0 -0.0565763 0)
(0 -0.0547007 0)
(0 -0.0565767 0)
(0 -0.0565763 0)
(0 -0.0565758 0)
(0 -0.0565759 0)
(0 -0.0565763 0)
(0 -0.056576 0)
(0 -0.0565764 0)
(0 -0.0565761 0)
(0 -0.0565765 0)
(0 -0.0565762 0)
(0 -0.0565744 0)
(0 -0.0565761 0)
(0 -0.0212005 0)
(0 -0.0304701 0)
(0 -0.0314117 0)
(0 -0.0565002 0)
(0 -0.0565042 0)
(0 -0.0521073 0)
(0 -0.0565747 0)
(0 -0.01177 0)
(0 -0.0565766 0)
(0 -0.0565762 0)
(0 -0.0565766 0)
(0 -0.0565763 0)
(0 -0.0565767 0)
(0 -0.0565764 0)
(0 -0.0565758 0)
(0 -0.0453409 0)
(0 -0.051527 0)
(0 -0.0472831 0)
(0 -0.0531745 0)
(0 -0.0565763 0)
(0 -0.0520019 0)
(0 -0.0322377 0)
(0 -0.0331445 0)
(0 -0.0231232 0)
(0 -0.0206817 0)
(0 -0.0565767 0)
(0 -0.0565764 0)
(0 -0.0565755 0)
(0 -0.0565752 0)
(0 -0.0121354 0)
(0 -0.013888 0)
(0 -0.0565765 0)
(0 -0.0565763 0)
(0 -0.0565765 0)
(0 -0.033925 0)
(0 -0.0348175 0)
(0 -0.0355283 0)
(0 -0.0363988 0)
(0 -0.037046 0)
(0 -0.0378996 0)
(0 -0.0384768 0)
(0 -0.0393065 0)
(0 -0.0398232 0)
(0 -0.0406149 0)
(0 -0.0410967 0)
(0 -0.0401006 0)
(0 -0.0356723 0)
(0 -0.041849 0)
(0 -0.0422935 0)
(0 -0.0123494 0)
(0 -0.0565352 0)
(0 -0.0565466 0)
(0 -0.0482246 0)
(0 -0.0489568 0)
(0 -0.048554 0)
(0 -0.0492698 0)
(0 -0.0488614 0)
(0 -0.0481147 0)
(0 -0.0484323 0)
(0 -0.049146 0)
(0 -0.0487378 0)
(0 -0.0479726 0)
(0 -0.0482905 0)
(0 -0.0490347 0)
(0 -0.0485946 0)
(0 -0.0493141 0)
(0 -0.0488817 0)
(0 -0.0481227 0)
(0 -0.0484157 0)
(0 -0.0491556 0)
(0 -0.0486964 0)
(0 -0.0494167 0)
(0 -0.0489691 0)
(0 -0.0482177 0)
(0 -0.0484974 0)
(0 -0.0492094 0)
(0 -0.0487278 0)
(0 -0.0478837 0)
(0 -0.048247 0)
(0 -0.0489481 0)
(0 -0.048495 0)
(0 -0.04777 0)
(0 -0.0480183 0)
(0 -0.0487952 0)
(0 -0.0482508 0)
(0 -0.0474935 0)
(0 -0.0477221 0)
(0 -0.0485298 0)
(0 -0.0479373 0)
(0 -0.0470325 0)
(0 -0.0473836 0)
(0 -0.0481488 0)
(0 -0.0476096 0)
(0 -0.0467903 0)
(0 -0.0470158 0)
(0 -0.0478229 0)
(0 -0.0472459 0)
(0 -0.0463632 0)
(0 -0.0466158 0)
(0 -0.0474587 0)
(0 -0.046833 0)
(0 -0.0459501 0)
(0 -0.0461633 0)
(0 -0.0470206 0)
(0 -0.0463473 0)
(0 -0.0528552 0)
(0 -0.0154586 0)
(0 -0.0164316 0)
(0 -0.0516615 0)
(0 -0.0512356 0)
(0 -0.0274025 0)
(0 -0.0297787 0)
(0 -0.027361 0)
(0 -0.0297209 0)
(0 -0.0272795 0)
(0 -0.0296209 0)
(0 -0.027202 0)
(0 -0.0297763 0)
(0 -0.0271055 0)
(0 -0.0292117 0)
(0 -0.0252675 0)
(0 -0.0278008 0)
(0 -0.0261791 0)
(0 -0.0286532 0)
(0 -0.0270758 0)
(0 -0.0244906 0)
(0 -0.0254246 0)
(0 -0.0279398 0)
(0 -0.0263183 0)
(0 -0.0564382 0)
(0 -0.0564124 0)
(0 -0.0564162 0)
(0 -0.0564603 0)
(0 -0.0269032 0)
(0 -0.0564865 0)
(0 -0.0564906 0)
(0 -0.0564819 0)
(0 -0.0565768 0)
(0 -0.0565765 0)
(0 -0.0565761 0)
(0 -0.0565761 0)
(0 -0.0565765 0)
(0 -0.0565762 0)
(0 -0.0565766 0)
(0 -0.0565763 0)
(0 -0.0565767 0)
(0 -0.0565763 0)
(0 -0.0565767 0)
(0 -0.0565764 0)
(0 -0.0565768 0)
(0 -0.0565765 0)
(0 -0.056576 0)
(0 -0.0565761 0)
(0 -0.0565765 0)
(0 -0.0565762 0)
(0 -0.0565766 0)
(0 -0.0565762 0)
(0 -0.0565767 0)
(0 -0.0565763 0)
(0 -0.0565767 0)
(0 -0.0565764 0)
(0 -0.0565756 0)
(0 -0.0287641 0)
(0 -0.0271655 0)
(0 -0.0246076 0)
(0 -0.0254885 0)
(0 -0.0279969 0)
(0 -0.026358 0)
(0 -0.0430021 0)
(0 -0.0434002 0)
(0 -0.0427336 0)
(0 -0.0437671 0)
(0 -0.0430918 0)
(0 -0.0440924 0)
(0 -0.0433502 0)
(0 -0.0443574 0)
(0 -0.0435909 0)
(0 -0.0445605 0)
(0 -0.043778 0)
(0 -0.044702 0)
(0 -0.0439172 0)
(0 -0.0447852 0)
(0 -0.0440183 0)
(0 -0.0449172 0)
(0 -0.047178 0)
(0 -0.0465071 0)
(0 -0.0456337 0)
(0 -0.0237236 0)
(0 -0.0246382 0)
(0 -0.0272 0)
(0 -0.0255192 0)
(0 -0.0290152 0)
(0 -0.0311119 0)
(0 -0.0123608 0)
(0 -0.0140846 0)
(0 -0.0305806 0)
(0 -0.0565767 0)
(0 -0.0563818 0)
(0 -0.0563841 0)
(0 -0.0565767 0)
(0 -0.0280049 0)
(0 -0.0263645 0)
(0 -0.0237801 0)
(0 -0.0246818 0)
(0 -0.0271729 0)
(0 -0.025527 0)
(0 -0.0565759 0)
(0 -0.056576 0)
(0 -0.0565765 0)
(0 -0.0565761 0)
(0 -0.0565766 0)
(0 -0.0565762 0)
(0 -0.0565766 0)
(0 -0.0565763 0)
(0 -0.0565767 0)
(0 -0.0565764 0)
(0 -0.0565768 0)
(0 -0.0565764 0)
(0 -0.0279223 0)
(0 -0.0262877 0)
(0 -0.023809 0)
(0 -0.0245927 0)
(0 -0.0269964 0)
(0 -0.0253065 0)
(0 -0.0228123 0)
(0 -0.0235997 0)
(0 -0.0259784 0)
(0 -0.0243612 0)
(0 -0.0564322 0)
(0 -0.056454 0)
(0 -0.0225766 0)
(0 -0.0201414 0)
(0 -0.0104512 0)
(0 -0.0565767 0)
(0 -0.0565443 0)
(0 -0.0565538 0)
(0 -0.0565558 0)
(0 -0.0565614 0)
(0 -0.0565636 0)
(0 -0.0565593 0)
(0 -0.0565654 0)
(0 -0.0565634 0)
(0 -0.0565682 0)
(0 -0.0218113 0)
(0 -0.0226283 0)
(0 -0.0250972 0)
(0 -0.0233902 0)
(0 -0.0565076 0)
(0 -0.0564945 0)
(0 -0.0565103 0)
(0 -0.0564979 0)
(0 -0.0565768 0)
(0 -0.0565769 0)
(0 -0.0565765 0)
(0 -0.056576 0)
(0 -0.0565761 0)
(0 -0.0565766 0)
(0 -0.0565762 0)
(0 -0.0565767 0)
(0 -0.0565763 0)
(0 -0.0565767 0)
(0 -0.0565764 0)
(0 -0.0257656 0)
(0 -0.0240859 0)
(0 -0.0216147 0)
(0 -0.0223459 0)