/*--------------------------------*- C++ -*----------------------------------*\
| =========                 |                                                 |
| \\      /  F ield         | OpenFOAM: The Open Source CFD Toolbox           |
|  \\    /   O peration     | Version:  v2012                                 |
|   \\  /    A nd           | Website:  www.openfoam.com                      |
|    \\/     M anipulation  |                                                 |
\*---------------------------------------------------------------------------*/
FoamFile
{
    version     2.0;
    format      ascii;
    class       surfaceVectorField;
    location    "850";
    object      Uf_0;
}
// * * * * * * * * * * * * * * * * * * * * * * * * * * * * * * * * * * * * * //

dimensions      [0 1 -1 0 0 0 0];


internalField   nonuniform List<vector> 
20580
(
(1.1257 0.0451572 7.93229e-21)
(1.12566 0.0475674 3.55955e-21)
(1.12357 0.0455646 1.17933e-20)
(1.06754 -0.0243478 4.31471e-21)
(1.068 -0.0253731 1.87116e-21)
(1.06926 -0.0243025 7.94369e-21)
(1.06692 -0.0228481 -1.36923e-20)
(1.06563 -0.0239703 -1.91154e-21)
(-0.192506 -0.0165875 0)
(-0.1673 -0.0195987 0)
(-0.191425 -0.0174122 0)
(1.00205 -0.000515483 4.72617e-22)
(1.00184 -0.000477113 -1.23493e-21)
(1.00193 -0.000284354 0)
(1.07799 -0.0370223 -1.8538e-20)
(1.07778 -0.0390164 6.58611e-21)
(1.0758 -0.0378595 -1.77191e-20)
(1.05712 0.00857072 4.91054e-22)
(1.05756 0.00940491 2.05868e-20)
(1.01328 -0.000864017 1.20832e-21)
(1.01297 -0.000877702 6.59717e-22)
(1.01226 -0.000540925 1.26915e-21)
(0.325922 0.0355897 -1.11313e-20)
(0.331624 0.0355094 1.24115e-21)
(0.304041 0.0319089 -1.78101e-20)
(0.990492 -0.00659245 2.173e-21)
(0.990922 -0.00594039 -5.00018e-21)
(0.991305 -0.00655983 3.85121e-21)
(1.15605 -0.0954004 7.31056e-22)
(1.15101 -0.0955193 -1.00837e-22)
(1.15406 -0.100208 6.58496e-22)
(1.00101 -0.0075961 -3.75861e-21)
(1.00116 -0.00790494 3.74158e-21)
(1.00101 -0.0079627 -2.6572e-21)
(0.980019 -0.0171667 5.67367e-21)
(0.979602 -0.0180666 1.02658e-20)
(0.980797 -0.0177829 -3.43958e-21)
(0.117605 0.00923597 0)
(0.104105 0.00603849 0)
(0.122131 0.0114018 0)
(1.09554 0.00638744 -9.43029e-21)
(1.09716 0.00657498 2.7511e-20)
(1.09613 0.00502248 0)
(1.08657 0.0449064 0)
(1.08627 0.0448611 0)
(1.08643 0.0452116 0)
(-0.290659 -0.00766132 1.86913e-21)
(-0.314058 -0.0073404 -2.85631e-20)
(-0.30132 -0.00422554 2.8964e-20)
(1.03326 -0.0194208 -2.78588e-21)
(1.03413 -0.0194754 -4.03351e-21)
(1.03377 -0.0203013 6.7433e-21)
(1.19026 0.0396465 -2.05979e-20)
(1.1928 0.0378709 -3.49235e-20)
(1.19085 0.0416105 -3.55806e-20)
(1.12778 0.0447762 3.3863e-21)
(1.12573 0.0431595 -1.88926e-20)
(1.10808 0.00191884 1.80471e-20)
(1.10735 0.000113884 -7.45265e-21)
(1.10586 0.00184337 2.26806e-21)
(1.03693 -0.089413 -4.08285e-21)
(1.0337 -0.0897504 0)
(1.03532 -0.0864004 0)
(0.741184 -0.356933 0)
(0.592487 -0.293845 -5.86986e-21)
(0.457939 -0.231388 2.33727e-20)
(1.00005 -0.000195284 -2.57107e-23)
(1.00009 -0.000258094 6.29313e-22)
(1.00006 -0.00016423 4.7789e-21)
(1.23561 -0.0264572 0)
(1.22845 -0.0261684 6.00657e-20)
(1.13374 -0.0140782 -2.28242e-20)
(1.08452 0.0362302 6.3698e-21)
(1.08451 0.0368744 0)
(1.08522 0.0366093 9.2311e-21)
(1.09009 0.0573568 -1.83426e-20)
(1.08888 0.0584142 -5.44372e-21)
(1.08803 0.0576807 5.68778e-21)
(1.16798 0.0723123 2.52979e-20)
(1.17073 0.0730945 -1.51785e-20)
(1.12888 0.0761281 4.34497e-20)
(0.472116 0.0310011 5.88571e-21)
(0.448718 0.02921 1.75304e-21)
(0.440517 0.0286749 -3.4711e-21)
(1.02013 -0.0121662 -1.13006e-22)
(1.01975 -0.0125179 -1.41684e-21)
(1.01952 -0.0118844 -1.10386e-21)
(-0.0719356 -0.0151345 8.98732e-21)
(-0.102069 -0.0149843 -1.76673e-20)
(-0.054502 -0.0148101 -2.04651e-20)
(1.05773 0.00814871 -9.05425e-21)
(1.05661 0.00799709 -9.26686e-21)
(1.11837 0.0464088 6.64492e-21)
(1.11667 0.0466297 -3.51988e-20)
(1.11742 0.04473 -2.6153e-20)
(0.386091 0.0608107 -1.36792e-20)
(0.375632 0.0603552 4.185e-21)
(0.433988 0.0652535 -2.03245e-21)
(1.12161 -0.0829142 7.03668e-21)
(1.12279 -0.0794749 -2.96755e-20)
(1.12488 -0.0835883 1.19472e-20)
(0.470931 0.0290396 3.15584e-21)
(0.501418 0.0312749 5.74236e-21)
(0.478616 0.0284427 -1.51949e-20)
(1.00002 -0.000127377 -2.23504e-21)
(1.00005 -0.000233702 -2.50971e-21)
(1.27638 -0.153457 0)
(1.21122 -0.144009 0)
(1.19503 -0.134401 -3.58326e-20)
(-0.00100109 0.0133045 -2.15006e-20)
(0.0153265 0.0145655 0)
(0.0484495 0.0148378 5.09537e-20)
(1.00439 -0.0367284 -8.76562e-22)
(1.00517 -0.0358912 -1.02514e-21)
(1.00552 -0.037135 -8.74846e-22)
(0.197335 0.0485639 -4.51048e-21)
(0.244225 0.0537348 1.51423e-20)
(0.208115 0.0500187 -1.10477e-20)
(0.49482 0.0336994 3.02214e-21)
(0.503626 0.0334352 -5.08954e-21)
(-0.275958 -0.00691805 1.01431e-19)
(-0.278603 -0.00816861 -1.25128e-19)
(1.09815 -0.457265 -3.13274e-20)
(1.09038 -0.465097 1.36451e-20)
(1.08406 -0.470057 -3.77632e-20)
(0.519077 0.0398217 -7.43455e-21)
(0.509748 0.0396624 0)
(0.483184 0.0358709 -6.91249e-21)
(1.01382 -0.0221922 0)
(1.01311 -0.0222043 5.02622e-24)
(1.0134 -0.0214156 -1.18368e-22)
(1.01984 -0.000165415 1.94801e-21)
(1.01966 -8.39159e-05 -3.03942e-21)
(1.09055 0.0457027 1.1184e-20)
(1.09012 0.0460524 1.16258e-20)
(1.09016 0.0453018 4.58126e-21)
(1.04288 -0.0571728 0)
(1.04111 -0.0553153 0)
(1.04363 -0.0552893 1.05123e-21)
(0.98043 -0.0161173 -9.25597e-21)
(0.979041 -0.0163833 1.15866e-20)
(-0.219239 0.00244376 3.97141e-20)
(-0.216955 0.001633 -4.50158e-20)
(-0.254494 -0.000296509 -4.87072e-20)
(0.972588 -0.0100757 0)
(0.973806 -0.0102315 4.28778e-21)
(0.972937 -0.0113567 -6.01091e-21)
(1.08687 0.0450252 1.65719e-21)
(1.08662 0.0446634 -1.3199e-20)
(1.07256 0.0170136 -1.195e-20)
(1.07355 0.0174859 -4.60332e-22)
(1.07258 0.018058 -3.34967e-20)
(0.17118 0.00546991 -6.39544e-21)
(0.189764 0.00930082 0)
(0.165818 0.00542633 0)
(1.00381 -0.0376217 1.89425e-21)
(1.0034 -0.0362986 0)
(1.1188 0.0485614 1.39962e-20)
(1.12028 0.0463707 4.33361e-20)
(0.183605 0.0475208 -2.25034e-21)
(0.157152 0.0411945 1.85325e-21)
(1.08357 0.0523115 -8.47597e-21)
(1.08476 0.052497 4.98982e-21)
(1.08589 0.0533623 -1.84215e-20)
(-0.0207011 0.00867457 6.70368e-21)
(-0.00920589 0.00948901 -1.3349e-21)
(0.00235519 0.0128132 2.08938e-20)
(1.00088 -0.00728341 -2.77757e-21)
(1.001 -0.00723832 -1.06348e-21)
(1.09258 0.0565324 3.48629e-21)
(1.093 0.057174 -2.12485e-20)
(0.995527 -0.00148991 8.34049e-22)
(0.995586 -0.00191777 -1.35611e-21)
(0.995098 -0.00183319 1.15286e-21)
(1.04196 -0.0585574 5.24025e-22)
(1.04426 -0.0583103 8.20093e-22)
(0.864708 -0.446287 7.52986e-23)
(0.888644 -0.441157 -2.26969e-21)
(0.872129 -0.424414 -1.25065e-20)
(0.838735 -0.450778 8.4849e-23)
(0.858127 -0.475249 -1.57468e-21)
(-0.0328122 0.00485579 4.24216e-20)
(-0.0468962 0.00310485 -1.3151e-20)
(0.69937 -0.114004 0)
(0.692878 -0.130286 0)
(1.01907 -0.0387557 -4.53822e-22)
(1.01792 -0.0389273 6.18938e-22)
(1.01843 -0.0377043 1.95813e-22)
(-0.13239 -0.0174378 -1.96835e-20)
(-0.163996 -0.0141753 4.23776e-20)
(-0.151178 -0.0150666 2.99041e-20)
(-0.135947 -0.00777257 1.35167e-20)
(-0.168233 -0.00627665 -5.44038e-20)
(-0.137645 -0.00908212 -6.31887e-20)
(1.11506 0.00537945 1.35808e-20)
(1.11631 0.00397301 8.8199e-21)
(1.1172 0.00609052 2.05034e-22)
(0.99334 -0.0247933 3.54101e-21)
(0.99255 -0.0244265 -1.14223e-21)
(0.992685 -0.0255506 -2.53143e-21)
(-0.00196424 0.00997993 -1.32066e-21)
(-0.0285499 0.00375482 5.62304e-22)
(1.07883 0.0157637 7.1438e-21)
(1.07844 0.0147254 7.93657e-21)
(1.07964 0.0150521 1.42463e-21)
(1.01857 -0.0728855 9.14173e-22)
(1.01631 -0.071633 8.2065e-22)
(1.01841 -0.0701551 -3.3886e-22)
(-0.273943 -0.00756356 6.53053e-20)
(-0.257988 -0.00672814 -4.60506e-20)
(1.02092 -0.00631221 9.5835e-22)
(1.02072 -0.00665805 0)
(1.02141 -0.00667521 5.39665e-22)
(1.23773 -0.0228195 -7.47276e-20)
(1.26965 -0.0293519 6.11565e-20)
(1.00445 -0.0174931 0)
(1.00429 -0.0168605 -1.13557e-22)
(1.00394 -0.0171723 -2.5545e-21)
(1.02034 -0.0388434 -3.2731e-22)
(1.01965 -0.04013 -3.50135e-22)
(1.25066 -0.0859562 3.20477e-21)
(1.25043 -0.0810564 -4.8787e-20)
(1.25479 -0.0853261 -2.69971e-21)
(1.11802 -0.082718 -4.88146e-22)
(1.11975 -0.0866968 2.24323e-20)
(0.094671 0.00758657 2.04294e-21)
(0.104652 0.00864035 -2.47717e-20)
(0.117581 0.013058 -2.23136e-20)
(0.00328713 0.00932606 3.73579e-20)
(0.020053 0.0140721 3.12702e-22)
(-0.117957 -0.011674 4.45702e-20)
(-0.109217 -0.0115292 1.3549e-20)
(-0.0758182 -0.0140133 -5.83881e-20)
(1.0389 -0.0919318 3.27765e-21)
(1.03987 -0.0885785 -5.11377e-21)
(0.276609 0.00396018 1.74788e-21)
(0.25106 0.000716435 -4.3627e-21)
(0.278795 0.00438077 -1.33078e-20)
(0.991102 -0.0105029 -1.89272e-22)
(0.991549 -0.0109718 -5.22029e-21)
(0.991674 -0.0101585 -3.5775e-21)
(-0.0537897 -0.0168803 2.25442e-20)
(-0.0950742 -0.0134234 5.40834e-20)
(0.970616 -0.00997123 0)
(0.972055 -0.0083594 -9.89121e-21)
(1.0584 0.00771139 0)
(1.05876 0.00846784 0)
(-0.260521 -0.00409878 -9.11341e-20)
(-0.261018 -0.006142 8.40419e-20)
(-0.128799 -0.012108 4.16708e-20)
(-0.154622 -0.0109913 3.98439e-20)
(-0.0148587 0.0211283 1.26296e-20)
(-0.0316702 0.0168025 5.17542e-20)
(-0.0516858 0.0148843 5.16262e-20)
(1.08913 -0.43487 1.49131e-20)
(1.08 -0.416676 -2.19238e-21)
(1.06769 -0.428967 -1.52404e-21)
(1.00892 -0.0231784 8.8371e-23)
(1.00825 -0.0231634 -6.4672e-22)
(1.00887 -0.0239631 -3.94629e-22)
(1.08837 0.0457459 0)
(1.08794 0.0455473 9.14624e-22)
(1.08821 0.0452867 1.02334e-20)
(-0.151898 0.00547557 2.33602e-20)
(-0.149483 0.00445943 -4.27182e-20)
(-0.182416 0.000615433 0)
(1.2039 -0.185916 6.79565e-20)
(1.21156 -0.186166 3.11235e-20)
(1.20725 -0.193112 -3.24547e-21)
(1.08882 0.0460837 2.70872e-20)
(1.08823 0.0463715 8.02831e-21)
(0.806881 -0.116405 -2.3419e-20)
(0.805147 -0.105952 -2.28351e-20)
(0.816015 -0.110571 0)
(0.813945 -0.149213 0)
(0.812042 -0.137687 2.041e-20)
(0.801152 -0.145913 0)
(0.988344 -0.0258325 8.89228e-22)
(0.989285 -0.0261579 -1.36147e-21)
(0.988458 -0.0271949 6.68374e-22)
(1.01662 -0.021708 0)
(1.01714 -0.0224511 -7.61195e-22)
(1.0172 -0.0216127 -4.74984e-22)
(1.12095 -0.00855397 -4.31597e-21)
(1.12246 -0.0100707 2.68834e-20)
(1.12329 -0.00723207 -4.04603e-21)
(1.01609 -0.0208912 5.77401e-22)
(1.01581 -0.0217948 -1.66966e-22)
(-0.134128 -0.00847583 8.08835e-20)
(-0.100534 -0.0107373 -2.91158e-20)
(1.05784 0.00694166 6.22396e-21)
(1.05909 0.00716588 0)
(1.03248 -0.0194086 2.27623e-21)
(1.0328 -0.0186981 -9.23153e-23)
(1.02349 -0.123964 -1.13807e-21)
(1.0255 -0.128213 -1.03191e-21)
(1.02041 -0.12715 1.1465e-21)
(1.01455 -0.0222774 0)
(1.01441 -0.0230869 0)
(1.20345 -0.0177993 0)
(1.20235 -0.0142267 0)
(1.20645 -0.0161606 -2.63404e-20)
(1.15482 -0.043895 1.87867e-20)
(1.15158 -0.042832 -1.59244e-20)
(1.15219 -0.0463338 0)
(1.10717 0.0468826 7.90098e-21)
(1.10587 0.0468821 -1.53665e-20)
(1.10662 0.0482302 6.96021e-21)
(1.0716 0.0164904 1.02646e-20)
(1.07247 0.0159673 4.835e-21)
(1.01391 -0.00789649 9.70697e-23)
(1.0137 -0.00812108 6.8344e-22)
(1.01424 -0.00823708 7.12291e-22)
(1.01365 -0.000764352 -2.53735e-22)
(1.0137 -0.00116516 1.20368e-21)
(-0.21688 -0.0136446 0)
(-0.196611 -0.0174056 0)
(-0.106142 -0.0197533 -3.44226e-21)
(-0.0916319 -0.0199607 -2.08753e-20)
(1.10783 -0.345355 -1.20157e-20)
(1.0991 -0.355771 -4.51301e-20)
(1.11376 -0.356319 1.13642e-20)
(1.02797 -0.0164379 0)
(1.02702 -0.0163467 3.24063e-21)
(1.02741 -0.015751 -4.69553e-23)
(1.01339 -0.0384576 3.55937e-22)
(1.0144 -0.0391387 -1.34949e-22)
(1.01338 -0.0398012 -1.46431e-21)
(0.105988 0.0261995 0)
(0.126238 0.0306333 -2.64115e-22)
(0.101779 0.0271364 2.17064e-20)
(1.16575 0.0478073 5.28045e-21)
(1.16882 0.047225 0)
(1.16857 0.0506811 -2.39738e-20)
(0.603158 -0.193329 -2.54694e-20)
(0.626228 -0.186095 -3.91485e-20)
(0.622586 -0.21586 -1.16566e-19)
(1.00972 -0.0234047 4.67275e-22)
(1.00913 -0.0224317 5.72378e-22)
(1.12581 -0.148202 0)
(1.12383 -0.142304 -7.1987e-22)
(1.12064 -0.147768 0)
(0.259038 0.0521374 -1.19183e-20)
(0.221015 0.047783 2.03314e-21)
(0.250542 0.051682 -1.21574e-20)
(1.10536 0.0112482 0)
(1.10658 0.0125916 0)
(1.10664 0.0103087 0)
(1.03053 -0.0893381 -2.06454e-21)
(1.03185 -0.0925138 0)
(1.09345 -0.0659518 -1.54704e-20)
(1.09461 -0.0628912 1.42575e-20)
(1.09119 -0.0640667 1.51193e-20)
(1.33461 -0.163325 5.21867e-20)
(1.33029 -0.153982 -4.70567e-20)
(0.404387 0.060871 2.10928e-21)
(0.351791 0.0573424 -1.60196e-20)
(1.16031 -0.0960726 0)
(1.1575 -0.091989 -2.74498e-20)
(-0.0166715 0.0180031 2.55362e-22)
(-0.0471238 0.0174059 3.21488e-20)
(-0.0578829 0.0162334 -3.1441e-20)
(0.71637 -0.112229 0)
(-0.105929 -0.0109686 1.0553e-20)
(-0.138127 -0.00951571 -8.72386e-20)
(0.851897 -0.0860659 3.59583e-20)
(0.842686 -0.0847302 1.99575e-20)
(0.84762 -0.0775279 -1.96521e-20)
(1.10279 0.0137152 -3.45992e-21)
(1.10116 0.0131533 -1.04078e-20)
(1.10166 0.0149225 -1.946e-20)
(1.25105 -0.0916499 0)
(1.24568 -0.0870516 0)
(0.973006 -0.0428721 -1.66429e-21)
(0.97317 -0.0408325 6.07858e-21)
(0.974892 -0.0416859 1.42428e-20)
(0.990577 -0.0101084 6.04282e-22)
(0.990444 -0.0110093 7.24884e-21)
(0.744497 -0.292 -1.9272e-20)
(0.727861 -0.30654 0)
(0.751141 -0.309817 -1.19731e-20)
(1.21144 0.0172645 -3.53018e-20)
(1.15027 0.0179518 -5.63867e-20)
(1.14813 0.0223572 8.63119e-21)
(1.00575 -0.0686799 3.36476e-21)
(1.0054 -0.0706505 -2.07976e-21)
(1.00333 -0.0694788 4.5331e-21)
(1.02108 -0.00597295 1.34533e-21)
(1.02046 -0.00602127 -3.52396e-21)
(-0.14157 -0.0118425 -7.93261e-20)
(0.323441 0.021805 8.56067e-21)
(0.325569 0.0239711 0)
(0.300717 0.0187629 0)
(1.12903 -0.152535 0)
(1.13113 -0.147132 -5.34858e-21)
(1.08923 0.0459073 1.89986e-21)
(1.08919 0.0465435 9.54313e-21)
(1.20454 -0.0220662 -4.31485e-20)
(1.20005 -0.0198842 -2.533e-20)
(1.15791 -0.0449581 1.77328e-20)
(1.15722 -0.0414507 -7.8906e-22)
(1.18053 0.0384777 -1.81572e-20)
(1.18305 0.0365818 1.79908e-20)
(1.1798 0.0352751 3.24503e-20)
(0.971879 -0.0193718 2.48811e-21)
(0.972569 -0.020783 0)
(0.970763 -0.0208688 0)
(0.983387 -0.00763253 7.42956e-21)
(0.982823 -0.00695396 -1.24199e-21)
(0.983821 -0.00675782 8.07782e-21)
(1.00123 -0.00624902 2.48769e-21)
(1.00114 -0.00636235 -2.96035e-22)
(1.00106 -0.00594804 1.27465e-21)
(-0.0152955 0.0117478 -1.28956e-20)
(-0.0407171 0.0091429 2.01359e-20)
(1.10064 0.0104919 -1.23533e-21)
(1.10046 0.0120316 -1.09107e-20)
(1.09953 0.0109062 -1.88441e-20)
(1.05898 -0.000797003 -3.58611e-21)
(1.05957 -0.000273013 -6.47161e-21)
(1.06 -0.00108752 1.61393e-21)
(1.00012 -0.00047002 -5.70237e-22)
(1.00012 -0.000412559 9.69927e-22)
(1.00018 -0.000558748 9.60184e-22)
(0.459261 0.0275007 7.1881e-22)
(0.453366 0.0287612 -7.68379e-21)
(0.486209 0.0306412 -3.93379e-21)
(1.11987 -0.00624817 3.79322e-20)
(1.11839 -0.0091433 -3.37838e-20)
(1.09111 0.0452507 -5.4887e-21)
(1.09121 0.0461118 -8.73321e-21)
(0.130767 0.0109012 7.25123e-21)
(0.111249 0.00568589 0)
(0.41367 0.0435119 3.73574e-21)
(0.386448 0.0408257 -5.99267e-21)
(0.41944 0.0421405 -3.68512e-21)
(0.4034 0.0433543 -8.03146e-21)
(0.445011 0.0467378 0)
(-0.224306 0.00237167 4.60712e-20)
(-0.19288 0.00478209 9.98236e-20)
(1.02655 -0.120715 1.54614e-21)
(1.02182 -0.119734 -1.66426e-21)
(0.770712 0.0686874 -3.17383e-21)
(0.783063 0.0685586 0)
(0.699539 0.0654023 0)
(1.00075 -0.00700068 -5.84357e-23)
(1.00064 -0.00670303 4.26953e-21)
(1.00074 -0.00664726 -1.6867e-21)
(1.0142 -0.00765543 -5.68092e-22)
(1.01362 -0.00749943 -1.02948e-21)
(1.13647 -0.00962284 2.6997e-21)
(1.13762 -0.0120652 2.7029e-21)
(1.13473 -0.011903 -3.44135e-22)
(1.00113 -0.000374462 -6.77467e-22)
(1.00102 -0.000478316 0)
(1.00095 -0.000314819 0)
(-0.00291606 0.0231023 1.4213e-20)
(0.0256147 0.0238358 -2.71773e-20)
(1.10073 0.0650581 3.65193e-21)
(1.10386 0.0636783 -1.03008e-20)
(1.09997 0.064095 -3.11037e-21)
(1.09277 0.0483576 1.75056e-21)
(1.09354 0.0487992 3.19683e-21)
(1.09242 0.0492507 -3.50171e-21)
(1.01447 -0.00744488 4.07338e-22)
(1.01475 -0.00780036 1.36106e-21)
(1.07726 0.0170158 -4.90199e-21)
(1.07808 0.0163574 1.31886e-20)
(1.07684 0.0160631 8.00656e-21)
(1.09202 0.0480194 1.33921e-20)
(1.09272 0.0475613 -6.96556e-21)
(1.16285 0.0494183 -2.79067e-20)
(1.16348 0.0455835 -3.16499e-20)
(1.11315 -0.443026 -7.36879e-21)
(1.02914 -0.117258 2.95198e-21)
(1.02734 -0.113346 -8.27284e-22)
(1.03143 -0.11385 3.03627e-22)
(1.10384 0.0126485 -3.84948e-21)
(1.10347 0.0104862 0)
(-0.290481 -0.00850556 -5.0982e-20)
(-0.287841 -0.00668682 -1.28919e-20)
(0.340862 0.0248346 1.92685e-21)
(0.318266 0.0195067 -2.59289e-21)
(1.11519 0.0465086 -7.29853e-21)
(1.11576 0.0481741 -1.73364e-20)
(0.891256 -0.0613384 8.93312e-21)
(0.886987 -0.057281 -7.46934e-21)
(0.885765 -0.0638645 2.05028e-20)
(0.97607 -0.0220563 4.72154e-21)
(0.975602 -0.0208361 0)
(0.977036 -0.0208616 0)
(1.01779 -0.0160207 -6.12118e-22)
(1.01781 -0.0166561 -4.83861e-22)
(1.01853 -0.0163706 2.26467e-22)
(1.25958 0.010735 -3.32035e-20)
(1.25533 0.0169404 7.45601e-20)
(1.1019 0.00983341 1.60277e-21)
(1.1004 0.00887906 2.97102e-20)
(0.0924207 0.00402626 -1.03038e-20)
(0.0810657 0.00206997 0)
(1.07764 -0.0347956 7.56592e-22)
(1.07974 -0.0358769 6.85231e-21)
(1.00601 -0.066392 8.70423e-22)
(1.00816 -0.0677841 0)
(1.08757 0.045381 9.29754e-22)
(1.0872 0.0451544 1.69638e-21)
(1.0874 0.0449051 -1.0429e-22)
(1.1138 0.0461823 0)
(1.11461 0.0447111 2.53567e-20)
(1.04362 -0.0115897 -3.64745e-22)
(1.04453 -0.0120007 1.85033e-21)
(1.04366 -0.0124561 4.7008e-21)
(1.03963 -0.028176 4.20101e-21)
(1.03834 -0.0281479 3.85726e-21)
(1.03898 -0.0271697 0)
(0.699352 -0.14411 0)
(0.719804 -0.147889 0)
(0.708817 -0.161192 0)
(1.2519 -0.0965424 5.20511e-21)
(1.25206 -0.102292 5.20522e-21)
(1.24653 -0.0981728 -2.72506e-20)
(0.0196828 0.0285532 0)
(0.0409878 0.0302275 0)
(0.0566109 0.0317492 2.59562e-20)
(0.155562 0.0454539 -8.53732e-21)
(0.142126 0.0439719 2.48922e-20)
(0.193864 0.0487209 1.10982e-20)
(1.09391 0.006119 -7.99361e-21)
(1.09476 0.00773819 -7.37906e-23)
(0.928391 -0.690578 6.8158e-21)
(0.927832 -0.745466 0)
(0.979329 -0.743953 0)
(-0.0120669 0.0266687 0)
(0.00335136 0.027761 1.62686e-20)
(0.936087 -0.0183288 7.6073e-21)
(0.938567 -0.0172552 -5.22575e-21)
(0.935982 -0.0152847 2.2685e-20)
(1.09493 0.0198297 6.01971e-21)
(1.09572 0.0189833 1.78648e-20)
(1.09437 0.0190523 1.34723e-20)
(0.31058 0.035626 4.12499e-21)
(0.331273 0.0387611 3.98673e-22)
(0.299615 0.0349287 4.00597e-21)
(1.07193 -0.0444751 -5.37721e-21)
(1.07303 -0.0457248 -4.87615e-21)
(1.07083 -0.04602 -1.0399e-20)
(1.08604 0.0448478 1.83641e-21)
(1.08577 0.044918 1.43451e-21)
(1.08596 0.0451318 -8.35868e-22)
(1.01266 -0.0380903 4.5031e-22)
(1.01337 -0.0376589 1.2199e-21)
(1.25592 -0.0951096 -7.68894e-20)
(1.00008 -0.00184331 0)
(1.00012 -0.002149 -1.93995e-22)
(1.0001 -0.00220203 -3.28579e-21)
(1.125 -0.0758989 1.28174e-20)
(1.12676 -0.0732546 1.17515e-20)
(1.12815 -0.0775459 3.44117e-20)
(1.02033 -0.0782887 -3.29671e-22)
(1.02273 -0.0787 -9.91789e-22)
(1.02128 -0.0808424 -1.1463e-22)
(0.981103 -0.0151258 -5.22645e-22)
(0.981769 -0.0159463 -2.04472e-20)
(1.13431 0.0568162 1.83798e-21)
(1.13334 0.0587775 1.5662e-20)
(1.1357 0.0584725 1.41855e-21)
(1.04333 -0.0206313 6.6418e-21)
(1.04234 -0.0199735 -2.38991e-22)
(1.04356 -0.0195332 6.67641e-22)
(0.179313 -0.535988 -6.2742e-20)
(0.134493 -0.581414 2.6787e-20)
(1.01423 -0.00702296 0)
(1.01482 -0.00722572 0)
(1.12975 0.0443153 -2.07486e-21)
(1.13185 0.0436675 9.6349e-22)
(1.12982 0.0421762 -1.78874e-20)
(0.0866156 0.00707923 3.20536e-20)
(0.0689717 0.0032994 9.20064e-21)
(-0.0324424 0.0171228 -1.43943e-20)
(-0.0408456 0.0177853 -2.06769e-20)
(0.00363147 0.0196777 6.82152e-21)
(0.897181 -0.0702462 -9.83816e-21)
(0.902399 -0.0688713 -3.20233e-20)
(0.900703 -0.0745845 -3.14803e-20)
(1.09407 0.0207411 -1.89964e-20)
(1.0954 0.0206995 -1.48517e-20)
(1.00004 -0.00123162 0)
(1.00002 -0.000927251 7.83654e-23)
(1.00002 -0.000938844 1.08518e-23)
(0.754449 -0.278152 -2.0768e-20)
(0.734687 -0.272152 7.87192e-21)
(1.00105 -0.0126927 1.98712e-21)
(1.0011 -0.012114 2.2165e-21)
(1.00138 -0.0125799 1.36201e-22)
(1.12151 -0.07495 2.04595e-21)
(0.0226927 -0.0432697 2.22763e-22)
(-0.0562983 -0.0367476 7.27463e-21)
(-0.030169 -0.039975 -2.07943e-20)
(0.894276 -0.0664235 2.07541e-20)
(0.896164 -0.0601192 2.26526e-20)
(1.07047 -0.0427741 -8.56338e-21)
(1.07284 -0.0423642 8.13167e-21)
(0.996493 0.000145807 1.34914e-23)
(0.996114 -7.87388e-05 4.48365e-22)
(0.122697 0.0422073 -4.9265e-20)
(0.164024 0.0449491 -2.12534e-20)
(1.02084 -0.01236 -2.92902e-22)
(1.02047 -0.0117101 3.16107e-21)
(0.921699 -0.42444 0)
(1.04146 -0.493298 4.8811e-20)
(0.133866 0.0422564 -1.62814e-20)
(0.122771 0.0402837 7.87533e-21)
(0.169497 0.0446356 -1.71841e-20)
(1.19596 -0.18537 -3.40843e-20)
(1.20059 -0.178627 3.50678e-20)
(1.00011 -0.000524375 0)
(1.00006 -0.000378291 0)
(1.25896 -0.311341 -1.87611e-20)
(1.28055 -0.309375 0)
(1.2882 -0.323353 0)
(0.00994279 0.00904653 5.77794e-21)
(0.0182959 0.00900013 -3.12743e-20)
(0.0333484 0.0146358 -5.00523e-20)
(0.558211 0.0429211 -4.59981e-21)
(0.527211 0.0393155 -7.24378e-22)
(1.08598 0.0446461 0)
(1.09978 -0.0143062 -9.10029e-22)
(1.10013 -0.0164515 4.83293e-22)
(1.09783 -0.0151164 -1.39643e-22)
(0.718039 -0.340816 -4.83053e-21)
(0.711239 -0.321568 2.71823e-20)
(0.693472 -0.336436 2.63237e-20)
(1.13301 0.0551833 -1.54348e-20)
(1.13528 0.0547677 -1.72094e-21)
(1.07755 0.0179836 -2.20631e-20)
(1.07634 0.0176449 -6.22482e-21)
(1.09089 -0.405241 1.43332e-20)
(1.07399 -0.402135 -1.74676e-20)
(1.04396 -0.129852 0)
(1.03936 -0.129805 8.76429e-22)
(1.04185 -0.126005 0)
(0.228933 0.00500352 -1.21072e-20)
(0.2102 0.00332986 0)
(0.210243 0.00229379 -3.1642e-21)
(1.15716 0.029971 -5.43704e-22)
(1.1547 0.0320311 1.60209e-20)
(1.15464 0.0281999 -9.02938e-20)
(1.00975 -0.000562348 4.53564e-22)
(1.01032 -0.000800885 -1.01332e-21)
(1.00986 -0.00119672 4.29769e-22)
(1.07841 -0.0160192 0)
(1.07669 -0.0157535 9.18221e-21)
(1.07722 -0.0173595 -1.10041e-20)
(1.08758 0.0458626 2.35163e-20)
(0.459659 0.0266672 1.09631e-20)
(0.434962 0.0264055 1.632e-20)
(0.328135 0.00453087 0)
(0.347248 0.00710843 -7.16548e-21)
(0.335565 0.00471899 0)
(1.01717 -0.0156699 -1.51729e-21)
(1.0178 -0.0155052 1.63977e-21)
(0.584454 -0.207017 -6.24818e-21)
(0.991953 -0.0113752 3.42471e-22)
(0.992385 -0.0117659 -3.40934e-21)
(0.992519 -0.0110133 -1.12547e-22)
(1.11461 0.0559642 9.82797e-21)
(1.11627 0.0561413 -1.57641e-20)
(1.11557 0.0545271 1.03431e-20)
(1.17119 0.0450415 -1.6335e-21)
(1.17367 0.0435186 -1.48016e-21)
(1.17007 0.0425541 2.89255e-20)
(1.07969 -0.0165849 0)
(1.07925 -0.0153006 0)
(1.11872 -0.00473913 6.73766e-21)
(1.12063 -0.00370422 5.64208e-20)
(1.15971 0.0288859 -2.35406e-21)
(1.15939 0.0325539 1.66857e-20)
(0.998223 -0.0233673 -2.28682e-21)
(0.998875 -0.0241 -2.07261e-21)
(0.998872 -0.0229179 -5.32973e-21)
(0.809325 -0.126268 -3.1839e-21)
(0.797694 -0.121819 2.3941e-20)
(1.0927 0.0437986 3.26781e-21)
(1.09205 0.0443881 -1.27785e-20)
(1.09198 0.0434257 -1.16519e-20)
(1.16611 0.0775265 -4.4687e-21)
(1.1676 0.0768011 3.31277e-20)
(1.16899 0.0756387 5.15027e-20)
(0.997437 -0.00767967 -4.3324e-22)
(0.997741 -0.00744496 2.50024e-21)
(0.997536 -0.00712703 1.57268e-21)
(0.981692 -0.0142574 1.31475e-20)
(0.980352 -0.0143967 1.65023e-20)
(0.89208 -0.0718455 1.75914e-20)
(0.390558 0.0493726 0)
(0.400826 0.0493269 0)
(0.433521 0.0533301 0)
(-0.242216 -0.0104267 0)
(-0.270507 -0.00845602 7.90734e-20)
(-0.244661 -0.011241 5.13601e-20)
(1.10978 0.00657327 -1.6573e-21)
(1.10904 0.00534109 -7.9548e-21)
(1.11081 0.0052977 -1.17045e-20)
(1.02881 -0.0165369 3.83724e-21)
(1.02844 -0.0171843 0)
(1.16088 0.0505259 -6.35323e-21)
(1.16327 0.0524243 -4.80656e-20)
(1.17815 0.0402464 -2.82845e-21)
(1.17579 0.0419717 1.4554e-20)
(1.17496 0.0390671 1.67836e-20)
(1.11033 0.0443864 8.99807e-21)
(1.10865 0.0444541 -1.36953e-20)
(1.10931 0.0430843 -1.43343e-20)
(1.11764 -0.00262281 -8.50143e-21)
(1.11647 -0.00521703 -4.64322e-20)
(0.380876 0.0479185 9.19199e-21)
(0.354651 0.0433355 0)
(-0.114192 0.00565408 1.27552e-20)
(-0.110603 0.00494625 3.01881e-20)
(-0.14385 0.00171238 -5.23433e-20)
(1.08165 -0.0229138 5.13983e-21)
(1.08199 -0.0244332 -6.77668e-21)
(1.08333 -0.0229068 -1.30092e-23)
(1.09115 0.00343156 -1.46421e-20)
(1.09245 0.00379374 2.14516e-20)
(1.09101 0.00471702 -1.53337e-20)
(1.22878 -0.189192 1.56338e-20)
(1.20167 -0.177566 5.36036e-20)
(1.06854 -0.153772 4.76734e-20)
(1.01902 -0.0206365 0)
(1.01945 -0.0214595 0)
(1.01832 -0.0209654 -5.38448e-22)
(1.0013 -0.00608532 -2.73714e-21)
(1.00136 -0.00593918 -1.1737e-21)
(1.00118 -0.00568238 -6.54299e-21)
(1.11171 0.0445077 1.55741e-20)
(1.1108 0.0458983 1.69723e-20)
(1.14198 -0.113708 -1.94614e-20)
(1.13997 -0.109494 0)
(1.13701 -0.11347 0)
(1.02155 -0.0124331 -3.48409e-21)
(1.02218 -0.0125407 -5.28421e-22)
(1.02177 -0.0119986 -2.17964e-21)
(1.00016 -0.00214833 -1.49112e-21)
(1.00013 -0.00214745 3.25891e-21)
(1.00009 -0.00183842 2.96583e-22)
(1.001 -0.0131056 -2.26512e-21)
(1.00077 -0.0126587 3.3664e-21)
(1.00394 -0.000684898 5.11422e-22)
(1.00423 -0.00070883 -1.94276e-22)
(1.00393 -0.000408048 -1.42894e-22)
(1.09514 -0.00787661 -4.58574e-20)
(1.097 -0.00792736 3.2848e-21)
(1.09619 -0.00620431 -1.50017e-20)
(1.00141 -0.0065329 1.23479e-21)
(0.319543 0.0357227 -2.34213e-21)
(0.349812 0.0391382 -2.35761e-22)
(1.10997 0.00220391 2.13894e-20)
(1.10827 0.00356702 -6.30523e-21)
(1.01047 -0.0309734 5.25901e-22)
(1.0097 -0.0309061 1.14561e-21)
(1.01031 -0.0317374 2.28703e-21)
(0.444255 0.0235765 2.41441e-21)
(0.104545 0.0256918 3.59207e-21)
(0.0867248 0.0233348 0)
(0.973468 -0.0154944 0)
(0.973952 -0.0168419 0)
(0.974943 -0.0157188 0)
(1.12961 0.0466279 0)
(-0.188102 0.00337099 8.99934e-21)
(-0.221716 0.000537112 8.02032e-21)
(-0.185458 0.00276014 -8.5301e-21)
(0.971195 -0.0440618 -2.31673e-21)
(0.973392 -0.0448744 -3.73326e-21)
(0.972762 -0.0141396 -4.69935e-21)
(0.971595 -0.0156103 -1.5053e-20)
(1.11168 0.00166054 2.89471e-20)
(1.11158 0.00379904 -3.82814e-21)
(0.0680216 0.00532857 0)
(0.063277 0.00620011 0)
(0.08637 0.0100478 -1.46626e-20)
(0.293389 -0.00827526 -2.776e-20)
(0.218414 -0.00542026 -7.16302e-20)
(0.279494 -0.0101158 -6.37426e-20)
(1.13538 0.00116636 2.62669e-22)
(1.13808 0.00122893 -4.90624e-20)
(1.1364 -0.000902145 -1.56082e-21)
(1.00229 -0.000499055 1.7125e-21)
(1.00219 -0.000710478 5.50418e-23)
(0.765625 0.0689574 9.79362e-25)
(0.841628 0.070348 3.69785e-20)
(1.00075 -0.00736461 0)
(1.14065 0.00131563 -2.49507e-20)
(1.14212 -0.00101865 2.39151e-20)
(1.14368 0.00170933 2.50736e-20)
(-0.193642 0.0034477 0)
(-0.162872 0.00764702 -3.46109e-20)
(1.16281 0.0798908 -9.47308e-21)
(1.16548 0.0787445 -3.19305e-20)
(1.16277 0.077353 9.72818e-21)
(1.0583 -0.00165636 4.60959e-21)
(1.05782 -0.00081174 -7.56969e-21)
(1.24698 -0.204605 -4.72687e-20)
(1.30225 -0.214947 7.1227e-21)
(1.33032 -0.170427 4.86203e-20)
(1.30564 -0.162917 2.29631e-20)
(1.30338 -0.171341 -1.97091e-20)
(-0.112367 -0.00631136 -3.69994e-20)
(-0.102214 -0.005056 -1.65641e-20)
(-0.0711414 -0.00691846 4.59778e-20)
(1.20553 -0.0255967 -9.37919e-21)
(1.20241 -0.0280187 3.47942e-20)
(1.20659 -0.0294682 3.33355e-20)
(0.783556 -0.0955351 2.46749e-20)
(0.783934 -0.0841219 -1.14981e-20)
(0.771627 -0.0886903 -1.24877e-20)
(0.0128985 0.0191219 -1.45317e-20)
(0.0251596 0.0205329 0)
(0.147656 0.0357368 1.2352e-20)
(0.169302 0.0395352 -1.70415e-20)
(0.140896 0.0353813 6.02428e-22)
(1.18197 0.0706222 0)
(1.16325 0.0708652 -1.3147e-20)
(1.04087 -0.0283069 3.55008e-21)
(1.04017 -0.029397 1.35732e-21)
(-0.267239 -0.00736404 6.42497e-21)
(-0.243036 -0.00911831 4.53797e-20)
(-0.233857 -0.00836321 9.86416e-20)
(0.195715 -0.00159151 -2.77677e-21)
(0.198163 -0.00200619 0)
(0.478668 -0.446838 2.00504e-20)
(0.445641 -0.420316 -1.91881e-21)
(0.447314 -0.468072 5.86564e-22)
(0.507623 -0.426245 7.53971e-20)
(0.517501 -0.468117 1.80073e-20)
(0.934075 -0.0196469 -1.31452e-21)
(0.93548 -0.0208137 -8.37702e-21)
(1.13945 -0.00531339 6.63903e-21)
(1.13801 -0.00739995 -2.3815e-20)
(1.1409 -0.00735884 1.40728e-21)
(0.942446 -0.113938 -2.04148e-20)
(0.945792 -0.109521 -1.1901e-20)
(0.948337 -0.115193 1.48445e-20)
(0.290979 0.00622136 4.43363e-27)
(0.270015 0.00242739 1.07087e-21)
(0.789642 -0.142736 -3.99721e-20)
(0.787921 -0.129553 5.2785e-21)
(0.774646 -0.138648 -2.34029e-20)
(1.00778 -0.00170941 1.22963e-22)
(1.00774 -0.00203262 -2.0537e-23)
(1.00812 -0.00190942 1.3308e-22)
(1.01984 -0.000277992 1.79479e-21)
(1.01972 -0.000223777 -3.34123e-21)
(1.06435 -0.0781902 -1.08637e-20)
(1.06719 -0.0787923 -2.2512e-20)
(1.06469 -0.0807775 1.00442e-20)
(-0.146942 -0.00920869 3.71586e-20)
(-0.123531 -0.00752107 2.82508e-20)
(0.245709 -0.564757 -4.24123e-20)
(1.01961 -0.0203118 2.67938e-21)
(1.01862 -0.019961 0)
(-0.0643579 0.0168935 3.25923e-20)
(0.931671 -0.110946 2.12453e-21)
(0.937543 -0.112855 -1.28679e-20)
(0.935301 -0.106949 8.81194e-21)
(1.09255 -0.0683151 -1.51583e-21)
(1.09558 -0.0670752 -1.49304e-20)
(1.0604 0.000260453 0)
(1.05945 0.000479313 5.08528e-21)
(0.0690548 0.00417604 0)
(0.0482267 0.00337156 0)
(1.15793 0.0518695 2.54709e-20)
(1.15885 0.0484303 5.74882e-20)
(1.08694 0.0454818 -5.41364e-22)
(1.01948 -0.0754141 3.79812e-22)
(1.0177 -0.0772667 1.33926e-21)
(1.06912 -0.0415126 1.22263e-21)
(1.06837 -0.0431922 -8.01743e-21)
(0.52848 0.0293062 -7.53618e-21)
(0.532888 0.0288272 2.35619e-20)
(0.506963 0.0271199 6.24072e-21)
(0.975245 -0.0234248 -2.91588e-22)
(0.976819 -0.0232914 9.95701e-21)
(1.18174 0.0415923 -1.77291e-20)
(1.07988 -0.0226002 -1.03147e-21)
(1.08131 -0.0210337 -6.24025e-21)
(1.11181 -0.000223981 -5.13869e-21)
(1.11361 0.0015302 -1.9487e-21)
(0.92889 -0.115964 -3.70217e-21)
(0.92557 -0.109678 -4.7079e-21)
(0.991382 -0.0117695 3.73462e-21)
(1.0116 -0.0312231 -1.61622e-21)
(1.01084 -0.030145 -1.00334e-21)
(1.21423 -0.0826956 8.19706e-21)
(1.21523 -0.0872523 1.58468e-22)
(1.21969 -0.0823211 -2.53044e-20)
(1.21949 -0.187133 2.45018e-20)
(1.21552 -0.179858 -2.28517e-20)
(1.15291 0.0333957 1.57894e-20)
(1.15059 0.0347601 -6.54226e-20)
(1.15073 0.0314211 -1.70446e-20)
(1.33668 -0.174562 5.82857e-20)
(0.520583 0.0287795 -1.46627e-20)
(0.550522 0.0307313 -5.25913e-21)
(1.00724 -0.0717952 -4.87936e-21)
(1.00512 -0.0727569 -8.32729e-21)
(0.100986 0.0385506 2.31762e-20)
(1.11935 0.0601862 -2.8554e-20)
(1.11743 0.0597724 -2.24315e-20)
(1.11915 0.0617618 -4.35571e-20)