/*--------------------------------*- C++ -*----------------------------------*\
| =========                 |                                                 |
| \\      /  F ield         | OpenFOAM: The Open Source CFD Toolbox           |
|  \\    /   O peration     | Version:  v2012                                 |
|   \\  /    A nd           | Website:  www.openfoam.com                      |
|    \\/     M anipulation  |                                                 |
\*---------------------------------------------------------------------------*/
FoamFile
{
    version     2.0;
    format      ascii;
    class       volScalarField;
    location    "1000";
    object      omega_0;
}
// * * * * * * * * * * * * * * * * * * * * * * * * * * * * * * * * * * * * * //

dimensions      [0 0 -1 0 0 0 0];


internalField   nonuniform List<scalar> 
13917
(
5.27163
0.0395039
0.192959
0.0221581
0.028611
0.0390421
0.0259585
0.0746354
0.024894
9.4808
0.0698141
0.0217503
0.0245858
1.25268
0.0275967
6.98627
0.0217864
0.0615457
0.101525
8.12116
0.0326623
0.0217922
0.0412968
0.0217949
0.0231083
0.0346439
2.10704
10.5519
0.0447005
0.0199928
9.41541
0.0593692
0.0221941
2.92192
0.0215238
0.0916905
0.0238796
0.0240321
0.0259998
0.0364426
0.0216752
0.0218209
0.0236407
0.0955968
0.0950861
0.203179
0.0310861
5.71304
1.28107
0.0215421
0.0217205
0.105157
16.3322
0.0216926
0.0217601
0.103905
5.10454
0.0413001
0.0217087
0.151721
2.42723
0.0303589
0.0208219
0.0229386
3.0645
0.109898
0.0487488
0.0937985
0.0667645
5.75156
2.93999
3.05933
0.0217145
0.0214717
0.0334518
0.0235626
0.0246216
0.0213825
0.0233624
0.0222631
0.0222653
0.0219382
0.0216999
3.07369
0.0211533
0.0975751
0.0573119
0.0216505
0.036097
0.0217036
0.0207333
0.0237836
1.22321
0.0211946
0.0222009
0.048498
1.73153
0.0223449
0.0215454
0.112558
0.0211487
0.0210884
0.0223039
0.0215404
0.0245676
3.3255
2.98299
0.0307839
0.0221668
2.13605
0.0215413
2.87915
0.0446028
4.37949
3.07323
0.0239495
0.0946047
0.0207935
0.169737
0.021644
0.0218546
0.021119
0.0529717
0.0834376
5.31517
3.15641
0.0227829
0.035126
0.0212175
0.0842666
0.0305915
0.135912
3.43028
0.0239136
0.0694392
2.07815
2.49654
5.18005
0.0368642
0.0239757
0.390981
0.0212418
3.31505
0.0212199
0.0216468
0.0250355
2.93494
0.598393
6.18903
0.0217255
0.0335708
0.0209589
0.0216276
0.0216521
1.81951
0.022528
0.021472
3.40341
0.0213334
0.0209413
0.0211402
2.74472
0.0258134
0.360538
2.45912
0.16982
22.7125
3.02163
0.0195829
0.0390267
0.0219359
3.30604
0.0248581
2.41675
0.0637188
0.0211066
0.0221598
0.114458
0.0299704
0.0263641
0.0235512
0.0218376
0.0217189
0.15068
0.174971
0.126277
0.0216944
0.14671
0.0200045
0.0971344
0.0639656
0.0874699
0.125497
5.12973
0.0212023
5.12287
0.0253297
3.51065
0.0214826
0.022281
0.029289
5.54959
6.61361
0.0235383
2.18743
0.0349288
0.0339571
0.0212432
0.114183
0.0222604
0.0209198
0.034413
0.0356547
6.03275
0.0675108
0.0362734
2.83931
0.0228049
0.0203737
0.0203606
3.58138
0.152242
0.143176
0.0213663
0.0209742
2.02328
6.16044
0.0203171
0.0203032
0.0217257
0.0203856
0.0203755
3.22509
4.71245
0.0219356
0.0195866
0.0676259
3.29954
0.021431
0.0213639
2.19115
3.36723
0.167095
2.83132
0.0878507
0.0212269
2.65919
0.0702235
0.0418297
0.0673024
0.0232949
5.47878
0.0216552
0.0389066
0.0577839
0.0220517
0.0218629
0.0229148
0.0271054
0.0216097
3.65525
1.30712
0.0211342
0.0203044
0.0226554
0.0203091
0.0216595
0.0245636
0.0343691
0.0212556
4.12792
2.84705
0.0215063
0.0251225
0.717037
0.0202449
0.0889354
3.26142
0.0202567
4.24075
0.0215145
2.74084
0.0211834
0.0260636
0.0221272
0.0211904
0.136831
0.0229466
0.68952
0.0274527
1.20184
0.0260515
2.01519
5.43826
0.0210238
0.0469491
0.0275821
0.0242321
0.0281426
0.0233158
0.0212776
0.0225641
0.113249
0.0369275
0.0378344
0.0231699
0.0213474
3.44779
8.2812
0.0211358
0.022287
0.024266
0.0481913
0.11245
2.77385
2.4232
0.0744719
0.138539
0.0248258
2.96664
0.0502002
0.192814
0.0243728
0.0273091
2.10838
0.0222125
0.0424778
0.086762
0.0216399
3.30429
0.0212016
0.0376337
0.0204582
17.9805
0.0208085
0.0357408
0.0354197
0.0616669
0.0215379
0.0673602
3.14023
0.0221004
0.0222041
2.84021
3.20016
2.58124
1.10917
0.0202343
0.0218817
3.42603
0.138358
0.020249
0.0280859
0.0216954
0.0504467
0.0366775
0.101699
0.0852089
0.0894015
0.0372533
3.14678
0.0212555
0.0221075
0.0298934
0.170124
0.0215766
6.21248
0.0370493
0.263899
0.0218022
0.113109
0.0224751
1.18634
0.0218793
0.177688
0.644806
0.0377993
0.0215291
2.31063
0.0206404
2.4409
0.143021
0.0218878
1.23444
0.0225124
0.288284
0.0207524
7.04391
0.289595
0.0234214
2.01622
0.0763114
0.0229578
2.52726
0.211869
0.0230403
0.137613
0.0217838
0.076952
0.192123
0.0212275
0.0254591
0.0231392
0.0211725
0.0209414
0.0213042
2.59677
0.167443
0.0219385
0.0213755
0.0216307
0.0460362
0.101902
0.0202912
0.0196012
0.110554
0.110732
0.0212176
0.0232868
2.50059
1.72783
0.126653
0.107417
2.76864
0.0207854
0.0202603
0.030167
0.0209309
0.0203051
0.0220142
0.0202766
0.0207246
3.0486
0.0218257
0.038949
3.76524
0.0466808
0.0209409
0.0216101
2.55856
0.0293332
6.50229
0.0203833
0.0213486
0.0207069
0.0203968
0.0237717
0.0227156
2.49456
0.0255199
3.4132
0.021343
0.0327351
0.0258008
0.0222013
0.0853818
2.56368
0.0216626
1.65156
0.0209745
0.021377
0.0215861
0.0225293
0.0208724
0.0222637
3.39579
2.4081
0.0208523
2.03566
0.108287
0.0218756
0.050888
0.0644004
2.49515
0.026107
3.34394
0.299361
0.307801
0.0227358
0.0842613
0.026063
0.0231688
2.46846
0.0208631
0.0216396
0.0222066
0.0251773
0.0318673
0.14851
0.0481588
0.0237036
0.02598
0.0589909
0.0502947
0.0219408
1.45467
0.033685
0.0274617
2.41397
0.0211621
0.0523297
0.135138
0.0208473
3.21746
0.0214881
0.0203927
0.0471889
0.0203953
0.0225751
0.113309
3.49781
1.76343
0.0211354
0.022334
0.0234536
2.24504
2.25873
0.0218447
0.0217297
0.0211158
0.0535689
0.547228
0.0212876
0.0214616
0.0221984
0.021151
0.0258243
0.0274738
0.0210254
0.0488362
0.0208503
0.0216682
0.023013
2.8033
0.0204209
0.0234239
0.0216141
0.0318657
0.0594296
0.0538078
0.060089
0.120108
0.0228092
0.0540499
3.52333
3.1932
3.39119
0.0210585
0.0215419
0.0245987
0.0214255
3.11411
0.0202733
0.784552
0.025312
3.41367
0.102738
0.0236333
3.16287
0.0208442
0.0558752
0.0222512
0.0226603
3.40905
0.0203308
0.200301
0.0210293
0.0228559
0.0215852
0.140288
0.0261118
0.0202813
0.0965627
0.0498547
0.606707
2.84221
3.54252
2.47708
0.0204285
6.00727
0.0204243
2.44667
0.636074
0.0231416
0.0226917
0.0211024
0.0332928
0.0233431
0.0203464
0.0222796
0.0243394
2.65749
0.0211848
0.0537894
0.0216093
0.0202696
0.0212435
0.123149
2.7134
7.64065
0.0629982
0.0273345
1.64947
3.18465
0.0207816
2.56603
0.024095
0.0872045
0.0214205
2.03777
0.0211308
0.0261543
0.0216672
0.615383
0.0345149
3.02177
0.0211394
0.0331965
0.021507
0.0212895
3.00496
0.141389
0.0217128
0.111379
0.0213469
0.0223304
0.0210882
2.85102
0.0211884
0.0275206
0.0202622
0.0216034
0.171024
0.0210083
0.103526
0.0221256
0.0208244
2.45838
0.0553614
0.0217927
17.9409
0.19213
0.074793
0.138963
0.0208258
0.0285991
2.93951
0.222233
0.0290049
0.0238914
0.0264375
0.0219952
0.0212843
0.0829132
0.0641326
0.0246175
2.43429
0.0349142
0.222844
2.33129
0.0373784
0.0340931
0.125141
3.78316
0.0212832
0.0329607
0.0795897
0.0208353
0.0212885
0.0212143
0.0239867
0.0225607
5.73079
0.0322949
0.0212311
0.0805346
0.0210575
2.73361
0.0215078
0.0212159
3.39495
0.0559842
0.296687
0.0217677
0.0210831
0.0211938
0.0220608
0.0272324
0.0211803
5.99499
0.0292474
0.434304
0.295733
0.0324199
3.57378
0.0223408
0.022207
0.0215743
3.14332
1.8966
0.0256818
5.75036
0.762331
0.0208195
0.0211736
0.023787
3.25736
0.351363
0.0347942
0.0220307
0.0234221
0.0900173
0.0241747
0.101485
0.0324353
0.0221467
0.0222885
0.0222315
0.0271496
0.0259749
0.227517
0.0245932
0.024235
5.73846
0.0210869
0.783515
0.0235911
0.0331194
0.0251368
0.211055
0.0218045
0.0527296
2.71381
0.231298
0.0214477
0.0246156
0.0233408
0.0213436
0.0216541
0.0317267
0.0258505
0.142069
0.103604
0.0207984
0.215447
0.0248486
0.0252046
0.114044
0.021972
0.0557586
1.64784
0.0203052
0.0560057
0.0748044
0.0321551
0.0210851
0.0209001
0.0212758
7.11819
0.0221569
0.0216953
0.0371881
0.0212065
0.0209927
0.0994435
0.937595
0.0373463
1.74678
0.0468191
3.47522
0.021659
0.025086
0.756803
0.0231799
0.0309138
0.0215253
0.0212597
0.0217446
0.025048
0.0557831
0.021082
0.133084
0.0220331
0.675588
0.0236236
0.0260401
0.0204621
0.0680864
0.0263215
2.65727
0.0386731
0.0219017
2.82077
0.022371
3.88351
0.0231774
0.0529128
0.0236892
0.0209843
0.0214323
3.23226
0.0270806
0.077625
1.67801
0.0213375
0.0323988
0.0195744
0.0258299
0.542681
0.0195975
2.72838
0.0234892
0.0557336
0.0926415
0.261879
0.0204415
0.0213735
0.0929858
0.0208169
0.0216593
0.0228442
0.0214961
0.0372887
0.020429
0.097945
0.0221448
5.65109
3.99481
0.0800116
3.47976
1.71345
7.50848
0.118134
0.0207599
0.0222099
0.0215579
0.0223867
0.0211204
0.0271922
0.0212327
0.108263
0.0216922
1.93326
0.022081
0.0291801
0.0816046
0.0211064
0.0387939
0.0223704
0.0228834
0.0253487
0.020634
3.6872
0.0687602
0.0710281
0.0211335
0.0215059
0.0220252
0.0221145
2.42784
0.0207822
0.144963
0.0211121
0.285607
0.0257336
0.021225
0.0543168
0.0302125
0.0207944
0.292562
2.55046
0.0238995
0.0678332
0.0207992
0.111635
0.0209429
0.0221148
3.53324
0.0216073
0.0222256
0.0793635
3.88598
0.0212436
0.624542
1.78095
0.0220226
0.0231536
0.0215419
2.53355
0.0214787
0.103963
0.0216645
3.2649
0.0260828
2.46207
0.0213782
0.0201299
0.298732
0.0231092
0.021094
3.56166
0.0228143
0.0209333
0.300682
0.0220267
0.0222063
0.0634438
0.0229456
3.10329
0.036935
0.0641547
0.132461
0.023372
3.19808
0.0223432
0.0594573
0.0213885
3.59717
0.299566
0.0218171
0.0209847
0.0222884
0.0218468
0.0208345
0.0208156
0.0212099
0.0214243
0.0279175
0.0203058
0.0226446
0.0631999
2.54729
2.65759
0.0736175
0.0220331
0.300943
0.0211876
0.615047
0.551718
23.6834
0.0203434
0.02077
0.0217396
0.0216136
0.0203222
0.0207174
0.02125
0.0351067
0.0209405
11.7553
0.305293
0.0209777
3.26719
0.021399
0.0213132
0.0301972
2.81683
0.0548732
0.0210394
0.309514
0.0213382
0.0213356
0.209554
0.0223214
1.73737
0.0222982
0.0632885
0.0209477
0.0211841
0.0295016
0.0411124
0.0227193
2.99058
0.029251
0.0231658
0.0234578
0.0215031
0.0208789
0.0794987
0.0315646
0.0244688
3.01881
10.0257
0.0431349
0.084003
0.0211396
3.15154
0.0211213
2.45706
0.0559373
0.0255402
0.0225655
2.50184
1.64239
2.1737
0.0225325
0.66559
0.0208381
0.0212372
0.0325369
0.0220918
0.0216426
0.430236
4.15619
0.0211819
0.0263151
3.36455
0.0210211
0.0202604
0.782292
2.68868
0.0222798
0.0205243
0.0256278
0.0215894
0.0212886
0.0317128
0.02532
0.0215404
0.478457
0.0226598
0.0373892
0.55181
0.028643
3.48721
0.0217925
0.0220395
0.105084
3.9355
0.26556
0.0223051
0.0306756
0.0219473
0.0223276
0.0212
2.62624
0.0251678
0.022401
0.0467133
0.0211887
0.236251
0.0662722
0.101065
0.0518892
0.525558
0.359159
2.49218
3.0057
0.0240158
0.530433
0.020276
0.0520898
0.0688289
0.486777
0.0241309
0.0226756
0.0248687
0.0955754
0.0229475
2.46824
0.0325511
0.0780388
2.46345
0.0212439
0.0863141
0.0232178
0.0216507
0.0271139
0.0348616
0.0202457
0.0207452
0.0225899
2.86618
0.020933
0.0228273
0.0233412
0.0223403
0.0215418
0.081787
0.0599832
0.0224046
0.0210941
0.0791155
0.0689554
0.0354883
3.2729
0.0218128
0.0214489
1.7954
0.0217023
0.0230279
3.03748
3.3645
0.0286475
0.0522298
0.0259655
7.67377
0.129027
0.0307483
2.8428
0.0212431
0.0697086
2.48623
0.1803
0.546808
1.1615
0.0206971
0.0216292
0.0245182
0.0215631
0.0217191
0.227855
0.0216126
0.0404618
0.0205148
0.0499549
2.54286
0.0229751
2.34279
1.67158
0.0214476
0.0654886
0.0257203
0.0226965
0.0213451
3.23152
0.0619898
3.63842
0.0265419
2.60811
0.0765604
0.0211117
0.0777575
0.0326962
0.0212237
0.0212409
0.151051
0.0213517
0.025049
0.0343035
0.0251033
0.0219748
0.0485496
2.42936
0.0211525
0.141925
0.0655261
0.0216581
0.0211658
0.0253253
1.76825
0.561957
0.0209158
0.028502
0.0272339
0.319137
6.61061
0.0216031
0.0209582
0.0206927
0.021509
0.0248907
0.0236587
2.29324
0.0221961
0.0238637
0.0269731
0.0283939
0.0728296
2.69721
2.49812
0.0217926
0.0216154
0.0209062
0.0225665
0.0602299
3.75932
0.0873464
0.0845825
0.0289654
0.0441267
0.0232684
0.0406386
0.0248182
0.0935899
0.0211928
0.106882
0.0436405
0.020818
0.0217499
2.87812
0.0439797
0.0254876
2.50701
0.109806
0.0211963
0.462803
0.0237579
0.0212402
2.59296
0.392653
0.0212107
0.0286294
0.0917422
0.0317098
0.022177
0.0204095
0.0211789
0.0209137
0.0213401
0.0281998
0.0463387
4.42983
0.0321224
0.0250052
0.029486
0.0739111
0.0210557
0.0319503
0.147459
0.198362
2.90395
0.0227561
0.0203925
3.4748
0.0210747
0.251173
0.0226991
0.0391963
0.0218761
0.0211286
0.195974
0.0254233
0.0226755
0.0214963
2.53415
0.472644
3.24942
0.0218696
0.0215908
1.19847
0.0209259
0.0208128
0.108156
0.489125
0.0259783
0.0310889
0.0221178
2.86844
0.0212492
0.0241854
0.0219757
0.0203766
0.19389
0.0212452
0.0208927
0.706725
0.0509599
2.5002
0.196827
0.0211884
0.0284595
0.0209972
0.0211543
0.0235228
0.0225638
0.0216289
0.166468
0.0215943
0.0631712
0.0266412
0.0257117
0.0216065
0.0220354
0.0212556
3.27797
0.0202485
0.14591
0.060013
0.022887
0.045894
0.0310311
0.0287178
0.0215308
0.0260765
0.0209608
0.0208153
0.244722
0.0351891
0.0253741
0.0214353
0.0213962
0.0210849
0.0609997
0.0211891
2.78755
0.0411578
0.0212537
0.0213157
0.0206642
0.0409832
0.0316089
1.70347
0.034714
0.247657
0.0257477
0.0839413
0.0236281
2.75203
0.0205075
0.0202073
0.024395
0.0856139
0.0206933
2.85051
0.0216161
0.0215526
0.112793
0.149915
8.30931
0.114737
0.0249603
0.136921
0.0300774
0.0207711
2.77264
0.0214088
0.0210955
2.28273
0.0205863
2.86243
0.0986178
0.0210937
0.0214382
0.0208088
3.58037
0.021275
0.0204075
0.0646001
0.0211937
0.0209671
0.021895
0.0207829
0.0401622
0.0216974
0.0241832
0.0207196
2.08713
0.0550146
0.0207389
0.0207472
0.0222346
0.0213003
0.0234899
0.0219442
0.0214236
0.0217212
0.0214741
0.0224226
0.0215054
0.0556276
0.0206595
0.068465
0.0217069
0.0453166
0.0208817
0.0216086
0.0211841
0.0202933
0.0336972
0.0257598
0.0244735
2.51931
0.0246642
3.30681
2.72132
0.0683194
3.536
0.021652
0.0214833
1.74247
2.46622
0.0211708
3.29306
0.0207557
0.102688
0.725002
0.0233827
0.0704899
1.46918
1.84249
0.0213866
0.0416597
0.020995
0.271199
0.0237839
3.02482
6.8649
0.0217075
0.052095
0.736302
0.0218667
2.13011
0.192928
0.0229991
0.0209612
0.111847
3.2586
0.0207677
0.0298003
0.0219105
1.05196
0.113063
0.0215653
0.0209136
1.71878
0.0211085
0.0214539
0.0220522
0.0207627
1.63723
0.0280319
0.0271507
3.0972
0.0213452
0.0513582
0.021704
0.107588
0.0494427
0.248771
0.0208497
0.0264473
0.0207513
0.0217846
0.0234304
0.0215032
2.40794
0.0225468
0.0208074
0.0211634
0.225288
0.0209441
0.377814
2.47036
0.769405
0.0215981
0.0209821
0.021251
0.502891
0.0217959
3.12713
0.0214661
1.62089
0.0228934
0.0229117
0.189028
0.0216256
0.0217252
3.32116
0.0934121
2.83404
0.0220366
3.42238
1.65056
0.0215802
3.06395
0.021714
0.0250664
2.49186
0.0233485
0.0385494
3.72811
0.0288594
0.0584962
0.0215941
2.5454
0.0214336
0.38631
0.0212537
4.26919
0.021454
0.0215781
0.0234954
0.675476
0.0210178
0.0256007
0.0574618
1.46514
0.0212687
0.0280332
3.3607
0.09636
1.58736
0.0671945
0.020879
0.0939649
1.36019
0.0237839
1.79
0.0201641
0.123132
6.28568
0.0210674
6.50851
0.0213179
3.3887
1.07183
0.0235004
0.0238433
0.444962
0.780957
0.0214765
0.0226325
0.0207797
0.0215925
3.16364
0.0570511
0.175593
0.0217434
0.0263656
2.89186
0.0275925
0.624847
1.61213
0.021151
0.0213911
0.162512
2.48646
2.34872
0.750772
0.169436
0.0355075
0.0472627
3.32691
2.45211
0.537684
0.0209614
0.0689325
0.0402877
0.0628801
0.021457
0.0252236
0.0531088
0.110109
0.78118
0.0221753
0.124389
3.08085
0.0393376
0.0214326
0.0214367
0.0676041
0.0210241
3.45257
0.0268908
0.0218488
0.142725
0.0298244
0.0207254
0.033054
0.028052
0.0214817
3.63955
0.024869
3.66383
0.0210836
2.93919
0.361898
0.170452
0.0202929
0.0256396
0.0292567
0.0891924
0.0986697
0.0587775
3.1646
0.629822
0.0196256
0.0250265
0.0224608
0.105776
6.34511
0.0206473
0.020701
0.0225754
0.703907
0.0888621
0.0211377
0.0451624
0.141644
0.0209356
0.0286296
0.0236762
3.63993
0.0265618
0.391108
3.20131
0.0269987
0.0241665
1.72566
0.0211571
0.0418998
2.97618
0.0247072
0.0745897
0.0294416
0.0505865
2.48233
3.38058
0.0215736
0.983946
0.461694
0.0205942
0.111135
0.0581472
0.0973442
2.31415
1.06657
0.76405
0.0919311
2.78347
0.0259733
0.0574546
0.0204545
0.0217364
0.0215321
0.020944
0.19753
0.109192
0.0202503
0.0432243
0.147169
0.0211433
0.535043
3.04249
0.020019
0.0217568
0.0205711
0.0224857
0.039701
0.0214301
2.6384
0.0279196
0.0614051
0.0254013
0.0610185
0.0446675
0.0317557
0.110089
0.0214809
0.0225788
0.0202077
0.0210126
3.40464
0.0814301
0.0276919
2.49766
0.0218028
0.0220697
0.0305242
0.0207872
0.0212062
0.0663985
0.0246607
3.18111
2.49405
2.42278
0.0216243
2.58475
0.0212715
0.329311
0.0207044
0.119089
2.49673
0.0215641
0.449219
3.42543
0.0306593
0.0225215
0.0208498
0.0267243
2.54755
0.0207365
0.0217786
0.0226996
0.0242044
0.164284
0.0228763
0.0249117
0.0211204
0.0226331
1.77201
0.0316039
0.0237735
0.106219
0.0739407
3.09932
0.970989
0.0233674
0.0224367
3.00499
0.0214748
0.0572177
0.0216493
3.2109
0.0222811
0.0220174
0.0308179
2.69881
0.0213944
0.0208472
0.020489
0.122998
11.8015
0.101251
0.0214829
0.0236302
0.0209404
3.15863
0.0210185
2.47809
0.0498654
0.021806
0.135112
0.0323555
0.0828666
0.022017
0.0208039
0.0285477
0.0381327
0.111561
0.0217208
0.0219473
0.0221605
2.7894
0.0217028
0.0224221
3.34214
0.0229057
0.0260579
0.0240426
0.0211753
0.0213822
0.456588
0.0231128
1.48638
0.2465
0.0199931
1.51607
0.0218731
0.0901182
0.0440088
0.0226782
0.0203347
0.0199651
0.0214186
1.08141
0.0420877
3.33202
2.66515
0.0209796
0.0256019
0.0355049
1.4865
0.0214193
0.251218
3.37564
3.12392
0.0213524
0.0227657
0.0219757
0.0857196
3.37051
0.0216741
0.0215525
0.0286501
2.90078
0.0216694
0.022829
0.0228778
0.100254
1.08775
0.0205275
2.59549
0.0280569
0.0214213
2.52007
0.0496044
1.64071
1.02723
0.0302451
0.0253004
0.0224726
0.0260108
0.0220953
0.0589598
0.0425639
0.021431
0.023895
0.193112
2.507
0.0207194
0.0940158
2.5848
1.80356
0.0215891
0.0215578
0.221986
2.84054
0.0862739
0.0212018
2.58164
0.0576404
0.0200534
4.43124
0.0263148
0.0217514
0.150892
0.0214925
0.029974
0.0209478
0.0198719
0.0216462
0.0204835
3.0531
0.0202495
0.0211874
0.066774
0.0243644
0.0241319
0.11438
0.021537
0.0214846
0.0227566
0.0223487
0.239872
0.245808
0.622828
0.982651
0.0328403
0.435879
0.0392663
2.76527
2.55959
2.979
0.0209356
0.0288568
0.0214386
0.0215794
0.0210839
0.0224808
0.162769
0.0517247
0.035312
0.0211206
0.021397
0.0488893
0.0217639
0.0219045
0.0215464
3.16593
0.0292617
7.74777
0.0216132
0.251956
0.0219951
0.0219434
0.0222092
0.0382209
0.0210863
0.073825
2.85041
0.0376612
3.54838
0.543567
0.023296
0.0263476
0.353816
0.096957
0.0204037
0.0210352
0.0199844
2.70614
0.0198505
0.0822466
0.045763
0.0674548
0.632769
0.257455
0.0564469
3.67946
0.0207816
0.0204788
0.102535
2.94704
0.0214366
0.021598
1.15442
0.020975
0.149785
0.0229322
0.0209276
0.0248324
0.0215258
0.0624823
2.80124
3.06445
0.0241576
0.0216377
0.0695333
0.0224601
0.0687775
0.0209284
0.116874
0.0778282
0.0219021
0.0217068
0.0200417
0.108634
0.0419676
0.167899
1.84597
0.0281505
3.02878
0.0638178
0.0947137
3.29766
0.0212893
2.64134
0.0222738
3.19866
0.183004
2.62293
3.1641
0.0219863
0.0482857
0.047384
0.0215273
3.83837
0.0215081
0.0215146
0.0250917
0.0220467
0.0287639
0.214559
1.2184
2.42476
0.0250274
0.0367175
0.0224777
0.0219526
0.0216707
0.111649
0.0742639
2.46413
0.0405939
0.0202993
0.0207892
0.0221345
0.2051
0.023821
0.0224967
0.0244607
0.077155
0.02941
0.0387001
0.0357932
2.66246
0.0278358
0.0303591
0.0214253
0.0251514
0.440686
0.0454655
0.0420351
0.0207837
2.53079
0.0304892
0.0211738
0.0433574
2.81774
0.401582
0.031136
0.020989
2.4457
0.0219494
0.0209435
0.0203468
2.3475
2.02311
0.0232747
2.26025
2.97247
0.0247957
0.0358299
0.0533513
3.62165
0.0288733
3.33693
0.0219935
0.0341971
0.025913
3.54627
0.0309007
0.0209262
2.92035
0.0217038
0.0222872
1.58249
3.06672
0.0625801
0.701353
0.023891
0.0225189
2.6447
0.0211765
0.0211933
0.0215817
0.0407212
0.021405
0.0299845
0.0247798
0.166596
1.97601
0.0221164
3.79361
0.0246048
2.88307
3.41098
0.0215577
0.0217289
0.0247161
0.590951
0.162588
0.0585342
2.82186
2.52913
0.458686
0.0227895
2.77561
3.3164
0.0402162
1.79928
0.0216248
0.0214062
0.0215973
0.0224258
0.0213097
0.0306571
3.10502
0.0299277
0.220231
4.76757
2.41386
2.43647
3.14902
0.0275408
3.49243
0.0923593
0.0642993
0.0206835
0.021575
0.0591816
4.01057
0.0226565
2.68981
3.01017
0.0209824
0.0216013
0.021882
0.0781684
0.0220437
0.0634945
2.67624
0.0206933
0.0214111
0.0209549
0.0221922
0.0846969
2.89081
0.0336895
3.07165
0.0954537
0.0211741
0.272932
0.113582
0.0215925
0.561082
1.66329
2.47078
1.90545
3.40767
0.0214473
2.70861
2.91568
0.139221
3.06735
0.0210563
0.0230481
0.0235256
0.0230741
3.246
0.0581489
0.0217048
0.02614
0.308612
2.99612
0.0226721
0.0219914
3.38785
3.12909
0.021715
0.0268231
0.0916391
0.0213309
0.0214193
2.4941
0.0211341
0.225162
0.268221
3.33291
0.0210684
0.0653
0.124075
0.0211434
0.0200947
2.38577
2.34221
0.0220281
0.0318484
0.14816
0.187543
3.3663
2.02166
0.0249608
0.2741
0.32706
0.032052
0.0211196
0.0692902
0.0204359
0.0202064
3.23457
0.0347832
0.0820095
0.0238754
0.0255536
0.0210268
0.020499
0.0220766
0.0222588
2.46761
0.0236763
1.42283
6.1014
0.039795
0.0620392
2.53661
3.46404
2.48717
0.0208394
0.0242086
0.0325492
0.0247715
0.148553
0.316707
0.0220535
1.27371
3.18834
0.0256888
0.0789586
0.0655408
0.0863075
0.0944189
0.0225726
0.10524
0.115773
0.127974
0.142631
0.0977558
0.0716264
0.0263467
0.0211036
0.0304974
0.0783025
0.021102
0.411173
3.55423
0.142926
2.87734
0.0200709
0.0207778
0.0348752
2.91151
0.022188
0.0235671
0.055966
2.5527
1.06343
0.0215031
0.0296227
0.024516
2.55115
0.312205
0.0236696
0.556466
2.96837
0.0873406
3.23898
0.082771
0.229152
3.48251
0.0195751
3.62913
3.03899
0.0224166
0.061812
0.0863889
0.0250469
0.0209482
0.798819
1.09986
0.020954
0.0210046
2.4792
0.835997
0.0697157
0.021737
0.194485
0.111747
2.98142
3.66732
0.0215806
0.0213821
0.0221453
0.0231037
3.30467
1.17409
2.91392
0.0730403
0.169294
0.55223
0.0231073
0.0210685
3.02867
0.0210102
3.42598
0.0208566
3.2265
0.0223983
0.0223378
0.734036
0.0216526
0.0966276
0.433277
0.0243414
0.0233432
0.0225102
0.157302
3.25498
0.137766
2.90698
0.0244167
0.022922
0.0264904
0.0672181
3.75741
2.44469
0.0856431
0.196414
0.107347
2.78487
0.0210683
0.0209859
0.0207108
0.0206848
0.15895
0.0599709
0.383751
0.0375549
0.12857
0.0211544
0.269589
0.118838
2.71881
0.0214717
0.0226472
0.0198872
2.89147
0.0203472
0.679135
0.144142
0.104642
0.180124
0.0200124
0.0339131
0.134514
0.173827
0.73342
0.0216607
0.11559
0.0220186
0.0220538
0.0915809
0.964658
1.62893
0.0218277
0.0760322
0.123319
2.45036
5.245
3.33609
3.37993
0.0210949
0.0540017
0.0216851
0.120189
0.0212774
0.0976929
0.0231094
0.0440798
0.242025
0.451113
0.0239644
0.0904692
3.01243
0.101641
0.0233491
1.6223
0.0929478
0.022384
0.0223712
3.28856
0.0273379
0.110323
0.42288
0.326536
4.08466
0.0234317
2.97191
2.83389
1.06235
0.664003
0.0294744
0.093969
0.0848581
3.30304
0.0660559
0.0220816
1.78728
0.0485408
0.414524
0.0265967
2.52122
0.703806
2.19164
0.0252575
0.382519
0.0237712
3.03854
0.13606
2.40372
7.39449
0.0209502
0.0198676
3.02848
3.58784
0.0294867
0.0220081
0.038492
0.0290079
3.01442
0.0665419
3.06623
0.0252221
3.12705
0.10695
1.10587
0.0220423
0.130692
2.40604
0.0242227
0.0737002
0.0200616
0.0238146
0.021623
0.264067
0.0212119
0.0216203
3.45466
2.90283
0.0206668
3.6705
0.0222371
0.0215716
0.0213107
0.0209901
0.0217438
0.634031
3.33957
0.0206873
1.48085
0.0596189
0.0429416
1.87894
0.0750027
0.0248334
0.0298427
0.0213006
0.254876
0.029094
3.71681
0.0249309
3.1624
1.15795
0.0626376
1.4738
3.2006
0.0207982
3.63803
0.0500629
0.0580903
0.0359494
0.021211
0.0429617
0.166177
0.0215834
0.0586949
0.0214228
3.34312
0.125934
2.47611
0.154423
0.147587
3.42416
0.0215822
0.021276
0.0555693
0.0227492
0.0217281
0.0217536
0.0262349
0.0211261
0.0212052
0.0225192
0.0390888
0.0229917
0.0263576
0.0229706
0.0345391
0.0881369
0.0232722
3.43509
0.0230573
0.0212633
0.0815932
0.0382369
0.0232168
0.0211171
1.17409
0.0231077
3.10735
0.0232652
0.0988131
0.0213107
0.0214777
0.0878054
3.53574
0.0624594
0.0328062
0.0201711
2.99458
0.0216447
0.0211692
0.0679197
0.0235437
0.123112
2.9886
0.0862765
0.0980756
0.0381845
4.11404
0.0215282
0.0216266
0.0570996
0.276825
0.0530916
0.0879799
2.41587
0.0265418
0.0215766
0.0266802
0.192632
0.0510523
0.0216011
0.0891485
0.0851014
0.0575646
0.0217376
0.0216351
0.147376
0.0567588
1.89913
0.492982
0.023477
0.0625968
0.0217145
0.0400673
2.18066
0.0217032
0.147119
0.0702135
0.0739248
1.08901
0.0215494
0.0214167
0.0212535
3.46125
0.194191
0.0232238
0.0878208
0.097638
0.0216925
0.0214718
0.119285
3.59996
0.147858
3.04845
0.136808
0.0288149
0.536823
0.107385
0.0286495
0.139363
0.077485
0.21473
0.0215285
0.0857191
0.118768
0.0222903
1.31194
0.0364328
0.0697309
0.026171
0.131471
0.0211319
3.94893
0.0239897
0.0208168
0.0210551
0.0207825
0.0225342
0.0223431
0.0209495
0.0236639
0.0216243
0.0222391
0.24471
0.0695509
0.0221149
0.0571318
0.0241273
0.0216934
0.0204572
0.0419806
0.0265302
2.61886
0.0215661
0.0215866
0.0621898
0.144754
0.0216025
0.0215528
0.0999315
0.0232006
0.0828452
0.0544143
0.0216322
3.59579
0.023384
0.0222372
0.0678466
3.72265
0.0225234
0.0524723
0.0209509
0.0249879
0.0214599
0.0262937
0.0212006
0.0216006
0.0397628
0.0547097
8.12403
0.0464443
0.0215086
0.027395
3.1637
0.0455833
0.15899
0.0882887
0.0216325
0.0492189
0.0703981
0.169678
1.54082
0.0251803
3.28504
0.299585
0.0284519
0.0216973
0.0681696
0.0221854
0.0505319
2.96711
0.0215781
0.275606
0.0217931
2.78529
0.0457284
0.0222905
0.0552719
2.87431
0.415671
0.0234567
0.0651535
0.0288455
0.0206508
2.48602
0.0205419
0.0320728
0.0211093
0.0245967
2.46402
0.0640903
0.0205559
0.0280411
0.142236
0.0215585
0.0218935
0.0271406
0.0248648
0.021464
0.0233832
0.0241109
0.0220068
0.0211189
0.0551437
0.0920397
0.158184
0.0210375
0.0520994
2.93436
4.31849
0.0208134
0.0216088
0.0244578
0.079836
0.0221391
0.0211043
0.0212392
0.0209665
0.0254173
0.0264548
0.0248927
0.0583146
0.0230805
0.0204719
0.0231052
0.0569493
0.0433591
0.0953626
0.022114
0.0275086
3.14975
0.0284517
0.0241048
4.12985
3.11413
0.0876338
0.0605682
0.144544
0.0214279
0.195382
0.0263735
5.3936
0.0214167
0.0212333
1.33581
0.0208262
0.26032
2.48903
0.0219509
11.4923
0.0291717
0.0301211
0.0261098
0.0666694
0.0279966
0.0254615
0.419114
0.0209041
0.0237592
3.50224
0.0229782
0.0215123
0.0289103
3.09662
0.0221478
0.0221513
3.08363
0.0238729
0.0260566
0.0522629
0.0203687
8.54564
0.0236579
0.022295
0.0959741
0.0513004
3.02535
0.0231337
1.91855
0.0315829
0.080158
2.47672
0.0215659
0.0307505
0.0808446
0.0221085
1.8641
0.0221882
0.0229522
2.86895
0.0222566
0.0378654
0.0793049
0.758364
0.0285891
0.0257124
0.0222351
0.0234643
0.0798745
0.02407
0.0291127
0.0690719
0.0484557
0.0217407
3.32493
0.0353785
0.0204834
0.0227126
0.0212424
0.0208561
0.0203743
0.0215925
0.0215313
0.0285757
0.0234731
0.0391734
0.0202301
0.0204646
0.0231502
0.0701877
0.0207563
0.0293814
0.0577214
0.0278322
0.0286055
0.0214723
0.0229626
0.0238352
0.0356067
0.0276153
0.0239989
2.54693
0.0217485
2.24945
0.0242429
0.0788324
0.0799075
0.0215596
0.0527649
0.0296165
3.06178
2.90633
0.0247082
0.0217353
0.0231983
0.028261
0.0437776
0.0213887
0.0444981
0.0487127
0.0229276
0.0520729
0.0455458
0.0571171
0.0275771
0.148599
0.0812715
0.0263916
0.496959
0.0233469
0.114195
0.0223558
0.0212785
0.0728278
0.0752648
0.0214018
0.0462908
0.0214463
0.0216463
0.0214731
0.0219828
0.0215009
0.0214137
0.0214037
0.0221977
0.145436
0.0226869
0.0213575
0.0225149
0.0224546
0.170352
2.8478
0.0567924
0.0237864
3.22955
0.0214453
0.0213707
0.423676
0.0303762
0.0222901
0.0222185
0.0216698
0.142707
0.021792
0.0248465
0.0222741
0.0321953
3.71343
0.0214577
0.0524195
0.0589771
0.0245044
0.0403672
0.0207476
0.021682
0.0549341
1.72783
0.0229768
0.0340416
2.45372
0.0820965
0.0208987
2.59312
0.0225742
0.0196253
0.0553348
3.44867
0.021523
0.0207526
0.0228927
0.029431
0.0322638
0.0214283
0.0223422
0.0368248
0.0216765
0.02784
0.0250359
1.43474
0.0204119
2.88539
0.473683
0.034742
0.0213795
0.0821081
0.0211366
0.0232014
0.0215951
0.0502049
0.0201975
0.0201773
0.0379102
0.0555031
1.03953
0.0218983
0.020078
0.0230022
0.0209028
2.80578
0.023243
0.0226579
0.0220743
0.0561564
0.0435751
0.0232043
0.0229623
0.0410308
0.0216851
0.0217191
0.0231181
0.0220755
0.115045
0.0211915
0.0293523
0.0219392
0.0215201
0.0453254
0.0808866
2.75946
0.0214754
0.0541397
0.35791
2.88395
3.20014
0.030121
0.0215375
0.0240843
0.028623
2.41796
0.0218613
0.024556
0.0261654
0.0292051
0.0202587
0.0492394
0.0428148
1.02775
0.0220433
0.0216728
0.0818769
1.00836
0.0201249
0.0240674
0.0313952
0.0199653
0.0224029
0.0417608
0.0209898
0.0214675
0.0217023
0.0239633
0.0728272
0.0339288
0.0224018
0.0206995
0.0221618
0.135718
0.0199187
0.0209236
0.0253232
0.0790635
0.0249093
3.9351
0.0240715
0.0214746
0.0215289
0.0228938
0.0212118
0.0311751
0.0544965
0.021004
0.0210164
0.0219743
0.0213092
0.0221351
0.0419881
2.52024
0.0230198
0.0893031
0.0236798
0.0213241
0.194592
0.0232573
3.50416
0.0217766
0.0217917
0.0207607
0.021489
0.0224593
0.0289625
0.0375644
0.327012
0.0271877
0.0488053
0.0217853
0.0318384
0.0214407
0.0231681
0.0312771
2.51691
3.01479
0.0218712
3.2009
0.10167
0.0389828
0.968187
0.0198125
0.0214148
0.0217088
0.0227767
2.6283
0.0208548
0.0638101
0.356635
0.0223651
0.0746169
0.0199565
0.0301451
0.309965
2.0127
0.0218236
0.142425
0.103682
0.423785
0.0255261
3.21867
0.0224641
0.101906
0.0929467
0.0205339
0.0381834
0.0302491
0.0233064
0.399409
0.0290532
0.0210402
0.022126
0.0638575
0.0217463
0.0527471
0.0215673
0.0198903
0.0231496
0.0307106
0.0215407
0.0734336
0.0260765
0.0236926
0.0198567
0.021527
0.448345
0.0732869
0.135921
0.0317369
0.0244531
0.0272326
0.0251342
0.0214461
0.0225927
0.0323648
0.0229743
0.0237527
0.0204125
0.0252073
2.82904
0.0219419
2.0396
0.122924
0.021686
0.0216668
0.0202794
0.0277632
0.0351573
0.0200978
0.0248556
0.0228436
0.0220069
0.02117
0.0220461
0.0213744
0.0216392
0.20883
0.0220509
0.0261034
0.02146
0.150246
0.0974
0.0214713
0.190892
0.0216479
0.0235766
0.0296215
0.318045
0.0278993
0.0210139
0.0214042
0.0319214
0.0391571
0.133518
0.0227657
0.0461438
0.104117
0.0219173
0.0215074
0.104777
0.0484401
0.0295935
0.0216677