/*--------------------------------*- C++ -*----------------------------------*\
| =========                 |                                                 |
| \\      /  F ield         | OpenFOAM: The Open Source CFD Toolbox           |
|  \\    /   O peration     | Version:  v2012                                 |
|   \\  /    A nd           | Website:  www.openfoam.com                      |
|    \\/     M anipulation  |                                                 |
\*---------------------------------------------------------------------------*/
FoamFile
{
    version     2.0;
    format      ascii;
    class       volScalarField;
    location    "850";
    object      ddt0(k);
}
// * * * * * * * * * * * * * * * * * * * * * * * * * * * * * * * * * * * * * //

dimensions      [0 2 -3 0 0 0 0];


internalField   nonuniform List<scalar> 
13917
(
-0.000199529
2.27002e-06
2.14596e-06
-5.06414e-08
-2.0265e-07
2.60843e-06
-7.05908e-08
-6.30319e-05
-6.14323e-08
-0.000182658
-5.42766e-06
-5.60317e-08
-1.39611e-07
-0.0189346
-3.7589e-07
-0.000182473
1.57076e-07
-3.57408e-06
-5.9499e-07
-0.000323276
-2.32745e-07
-3.53536e-08
-1.0272e-07
-3.46431e-08
-5.58871e-08
-1.60501e-07
0.00549016
-9.1421e-05
-1.84821e-07
4.89692e-08
4.5302e-05
-2.58391e-07
-5.24988e-08
3.25507e-05
-9.83527e-08
2.49478e-05
7.60833e-08
-2.50782e-08
-6.85784e-08
-5.35866e-07
7.37719e-08
-2.35195e-07
-5.89962e-08
-7.5346e-07
-6.73238e-07
-0.000791879
-1.26055e-07
-0.000750497
0.00177874
-9.01487e-08
-5.78688e-08
1.30926e-06
-8.7797e-05
-9.09598e-08
-8.00865e-08
9.94169e-07
1.10512e-05
-9.57807e-08
-1.84273e-07
0.000173737
-0.00768347
4.63552e-06
7.58123e-09
-5.2707e-08
0.00136521
3.70975e-05
-4.63552e-07
-2.25139e-06
-1.57165e-06
-0.000160354
0.00024501
-3.75769e-05
-6.86758e-08
-1.8911e-07
-2.71603e-07
-4.50505e-08
2.63466e-07
-1.21209e-07
-4.5798e-08
-5.12723e-08
-1.52431e-07
1.50499e-07
-7.05993e-08
-0.00103476
-6.54771e-08
-3.21105e-05
-2.48963e-07
-7.96916e-08
-5.95791e-07
1.65046e-07
3.23803e-08
-5.85236e-08
0.0023169
-1.01658e-07
-8.46973e-08
-7.15616e-07
0.00182601
1.01221e-07
-7.46141e-08
1.81837e-06
6.02521e-08
5.02394e-08
-1.5108e-07
-1.57074e-08
2.9755e-07
8.2022e-05
3.36167e-05
6.11707e-06
-2.13104e-07
0.00572042
-8.45466e-08
7.83728e-05
-4.68278e-07
-0.000607061
0.00127985
-3.6124e-08
-6.678e-07
6.65753e-08
5.42646e-08
-6.2286e-08
1.47121e-07
-1.00074e-07
-1.1668e-06
-3.45476e-07
-0.000123008
-0.000955933
-5.25669e-08
-4.0034e-07
-5.82486e-08
-3.31686e-07
-7.93849e-08
-2.44949e-05
-0.000953291
-3.37831e-08
-3.68025e-07
0.00500782
-0.00538706
-0.000192991
-2.31574e-07
-2.68525e-08
-0.01549
-1.27051e-07
-4.44371e-05
-5.93455e-08
-7.39562e-08
3.21201e-07
2.46276e-07
-0.000339572
0.000497118
-8.65202e-08
-4.71369e-07
4.8276e-08
-7.48362e-08
-6.20277e-08
0.0036299
2.08135e-08
-1.6606e-08
-0.000862012
1.16214e-07
1.01237e-07
-6.0172e-08
-2.62846e-05
4.60293e-07
-0.0104003
-0.00138184
-5.60186e-05
-3.45374e-05
-0.00232654
1.59056e-08
-3.5383e-07
-1.90158e-08
-0.000888236
-6.08484e-08
-0.00403311
1.39276e-06
7.9283e-08
-5.11852e-08
1.87351e-06
-7.57299e-08
5.13943e-07
-5.79081e-08
-2.46826e-08
-5.7989e-08
-2.13997e-06
2.97503e-07
9.23649e-06
-5.71448e-08
-2.44299e-06
4.72949e-08
-1.32016e-05
1.4064e-06
-6.45501e-07
-1.04249e-06
-0.000198349
-1.04258e-07
-0.000123155
-9.558e-08
-0.000883464
-1.07962e-07
-3.14579e-08
-8.89083e-08
-0.000177125
-0.00013197
5.73109e-08
0.00615439
6.19868e-07
-4.46071e-07
-1.30539e-07
1.4227e-06
-1.5336e-07
-4.53355e-08
-4.3215e-07
2.70145e-06
-0.000244871
-3.31085e-07
-3.28732e-07
0.000842024
-7.58144e-08
8.31044e-09
7.80826e-09
-0.003662
9.4621e-07
2.23344e-05
-6.9621e-08
9.27144e-09
0.00535601
-0.000116964
3.51935e-09
3.8682e-09
6.45257e-08
9.63716e-09
8.72322e-09
-8.0634e-05
-0.00200669
-8.99606e-08
1.6555e-08
3.68036e-07
-7.01585e-05
1.3228e-07
-7.20186e-08
0.00618501
-0.000624207
7.70173e-06
0.000728521
3.58953e-06
-5.97563e-08
-0.00152204
3.46152e-07
-2.70403e-07
-2.79292e-07
2.08367e-08
-0.00191362
-6.53827e-08
-3.7682e-07
8.00033e-07
-8.54107e-08
5.12417e-08
-5.29798e-08
1.33296e-06
-1.09778e-07
-0.000104124
0.00292468
-6.18018e-08
3.75287e-10
6.47411e-08
-3.73956e-11
-6.33801e-08
-1.45666e-07
-7.23713e-08
-9.40311e-08
-0.000261903
0.00010485
-6.07717e-08
6.86857e-07
-0.000442036
8.82737e-09
-3.87009e-06
-0.00010655
3.956e-09
-0.000142738
-6.09662e-08
-0.000168543
7.35439e-08
-6.21489e-07
-9.23115e-08
-6.48568e-08
-6.82253e-07
1.50072e-08
5.79301e-05
-1.5663e-07
0.00131675
3.18955e-06
0.00387348
-0.000211542
9.38132e-08
-2.89602e-08
1.34475e-06
-2.21223e-08
5.89336e-07
-4.96496e-08
-9.87134e-08
-3.61078e-08
3.04425e-06
-5.20538e-06
-3.3312e-07
-4.87284e-08
-7.00469e-08
-0.000903667
-0.000149448
-4.4709e-08
-3.25067e-06
-2.61361e-08
-0.00729893
-5.66602e-07
0.000195889
-0.00253388
6.14117e-05
1.24122e-05
5.56445e-07
-0.00105019
-0.0100034
-5.34944e-07
-1.44893e-07
-5.58775e-07
0.00553516
9.70542e-09
2.39101e-06
-5.99735e-07
1.50353e-07
-0.000799359
-7.23798e-08
-6.60058e-08
2.7998e-08
-0.000331308
-4.54026e-08
-2.57043e-07
4.16709e-07
4.88116e-05
1.49771e-07
-2.96826e-07
0.000659812
-7.60592e-08
7.5535e-09
0.000189881
0.000498183
-0.00203296
-0.0226335
1.06049e-09
-1.05368e-07
-0.00122695
1.13432e-05
-1.89893e-09
9.86867e-07
-6.70318e-08
-1.44879e-06
-2.04639e-07
-2.82214e-07
3.01439e-06
-4.08548e-06
-9.01735e-08
-8.81607e-05
-6.57408e-08
-7.4241e-08
6.53127e-07
-1.20361e-06
1.41303e-07
-0.000197673
-8.12904e-08
-0.000374357
-8.34426e-08
5.55549e-06
-3.43474e-06
0.00305328
-2.3099e-08
3.78448e-06
-0.000140409
3.29387e-07
-6.13918e-08
0.000256996
-2.29546e-08
-0.00125784
-1.3565e-06
5.85133e-08
0.00366653
-9.89686e-08
0.000479479
-4.12735e-08
-0.000367154
0.000631181
1.67691e-08
0.00604336
-3.00927e-06
-2.24595e-08
-0.00140577
3.155e-07
-8.13263e-09
-9.41707e-07
-1.07637e-07
-3.35108e-06
4.26861e-06
-7.00511e-08
-6.33591e-08
-5.17989e-08
-5.88604e-08
-5.44033e-08
-7.99299e-08
-0.00153611
-4.72705e-05
-7.53694e-08
-7.1088e-08
-5.19045e-08
6.71922e-08
-0.000506642
4.60251e-08
1.52098e-08
-7.40908e-07
4.82905e-06
-6.38531e-08
9.11299e-09
-0.00235323
0.00431896
0.000316531
-6.2469e-07
-0.00082436
-1.67725e-08
3.70049e-08
2.29165e-08
-5.53551e-08
4.30831e-08
-9.66763e-08
3.25445e-08
-1.60149e-08
-0.00200888
-1.1023e-07
-6.89531e-07
-0.000291361
1.49137e-08
-4.82176e-08
-7.45158e-08
-0.00131819
-4.76009e-08
-0.000122175
6.40769e-08
-5.87443e-08
1.98334e-08
4.2636e-09
8.11014e-08
-8.26093e-08
-0.00248061
2.41882e-06
-0.000296116
-5.60155e-08
-8.70629e-08
-9.87721e-07
-1.4788e-07
2.71666e-06
-0.00206858
-6.34922e-08
0.00280495
-5.42185e-08
-6.62001e-08
-5.04016e-08
-1.0178e-07
-4.23843e-08
-9.0893e-08
-0.000919155
-0.00503635
-4.02535e-08
0.00377892
-8.78954e-07
-9.53282e-08
3.95782e-08
8.384e-08
-0.00123789
-6.51458e-08
0.000352085
0.000104803
0.000176289
-9.27822e-08
3.29939e-05
-7.26255e-06
2.42148e-09
-0.00131021
4.73802e-08
-8.8767e-08
-8.04878e-08
-6.23217e-08
-3.07584e-07
-2.59088e-08
-1.66305e-07
-5.28499e-07
9.09602e-07
-1.4227e-06
-1.68966e-06
-7.74955e-08
-0.0120021
-7.53676e-08
-1.6075e-07
-0.00111
-7.28765e-08
-1.93041e-06
1.6785e-06
-5.10494e-08
-0.000763102
-6.70158e-08
2.95133e-09
6.93605e-08
6.57382e-08
-7.77046e-08
3.14106e-06
-0.000569615
0.00430349
-6.22596e-08
-5.20626e-08
9.45148e-08
-0.00194085
-0.0030755
-8.29744e-08
-8.32381e-08
-6.01708e-08
4.97109e-07
0.000797658
-4.59843e-08
1.39515e-07
-5.18763e-08
-5.77502e-08
-4.74722e-07
-1.12039e-07
7.59884e-08
-1.66813e-07
-5.15106e-08
-5.18126e-08
-5.03714e-08
0.000152891
-2.48252e-08
-5.44108e-08
-1.42833e-07
-8.64448e-08
8.58438e-09
-1.82777e-06
1.01353e-06
4.0016e-06
-4.57586e-08
-1.30948e-06
-0.000871467
-0.00215042
-0.000362813
-4.73043e-08
-5.79328e-08
-4.2239e-06
-5.55207e-08
0.00101791
1.23935e-08
0.00670283
-9.5549e-08
-0.00102676
-4.53179e-06
-5.85143e-08
-0.000220447
-4.40283e-08
-6.1182e-08
9.02913e-08
1.26073e-07
-0.00104634
5.64985e-08
-1.17449e-05
2.03903e-08
-1.11882e-07
-5.56376e-08
-5.56012e-07
-3.19913e-07
-8.65726e-09
-8.00371e-07
3.29067e-08
0.00465511
-0.000506036
-0.000705284
-0.00132076
-2.51207e-08
-0.000122635
3.20478e-08
-0.00699094
0.00163737
1.83224e-07
-4.63451e-06
5.7196e-08
-7.72212e-08
-5.76192e-08
5.46401e-08
7.52768e-08
-1.39278e-07
-0.000841248
-6.77207e-08
-2.09666e-07
-9.08898e-08
-9.34995e-09
1.22727e-07
5.26085e-05
0.000466821
-0.000318334
-2.68607e-07
-1.07446e-07
0.000647547
-4.09994e-05
-4.04685e-08
-0.00207022
-1.32565e-07
2.56617e-07
-5.63318e-08
-5.205e-05
-5.88266e-08
-1.2333e-06
-7.62534e-08
0.00632849
-6.50628e-08
0.00147767
6.70226e-08
-8.86633e-08
-3.74642e-08
4.4572e-08
-3.85402e-05
-1.42716e-05
-4.48973e-08
-5.41241e-07
-7.0845e-08
1.4413e-07
4.11228e-08
5.74256e-05
-6.73469e-08
1.57497e-06
1.84741e-08
-4.15144e-08
-1.01753e-06
4.57194e-08
-5.80144e-07
1.5595e-07
-4.60595e-08
-0.00724787
-2.1259e-07
-8.77558e-08
-0.000102366
1.23061e-06
-0.000386179
1.47383e-06
-4.10699e-08
-1.961e-07
5.62139e-05
6.49355e-06
4.44141e-08
7.48989e-08
-1.73095e-06
1.39412e-07
-1.03512e-07
0.000180894
5.77195e-08
-7.84278e-08
-0.00113638
-6.43457e-08
-0.00413257
-0.00277228
-6.42973e-07
-1.86726e-07
-9.48154e-07
-0.000118945
-1.0215e-07
4.95651e-06
-8.40126e-05
-4.70827e-08
4.62753e-08
1.2777e-07
-2.80206e-08
-8.92662e-08
-0.000147252
-7.15304e-08
-4.08352e-08
-5.24205e-07
4.8394e-08
0.000278135
-4.81511e-08
-5.32922e-08
-0.000658177
-3.40181e-08
-0.000728972
-6.68483e-08
-5.38101e-08
-4.3978e-08
-5.38006e-08
-7.31397e-08
-7.49407e-08
-0.000126722
-2.24961e-07
0.00380145
-0.000664527
4.74718e-06
-0.000631486
-5.1791e-08
2.24633e-08
-2.78438e-08
-9.90974e-05
0.00565578
-1.05589e-07
-0.000126888
-0.00279112
-4.67015e-08
-4.71489e-08
8.22135e-08
0.000496305
1.0736e-05
-6.90367e-08
-5.31935e-08
-5.41364e-08
3.51372e-07
4.13058e-07
-3.79442e-07
-7.54317e-08
-8.97046e-08
-5.16966e-08
4.32287e-08
-7.40382e-08
9.62875e-07
6.72232e-06
-8.29933e-09
-1.64772e-07
-0.000128807
2.1532e-06
-0.00119848
3.72214e-08
1.92819e-06
-8.46975e-08
4.74832e-07
1.5094e-07
-4.4471e-08
0.000760367
-2.38783e-05
-5.4956e-08
-1.42893e-08
-9.24642e-08
-5.66314e-08
-7.28496e-08
-2.9775e-06
1.38538e-06
-1.1998e-05
-6.44641e-07
-4.16008e-08
4.11978e-05
-6.08517e-08
-6.25843e-08
-6.0059e-07
-1.16662e-07
-7.62213e-08
0.00134501
-1.86813e-08
-7.54598e-08
2.81792e-06
-7.51281e-08
-8.08037e-08
-4.56497e-08
-1.0156e-07
-0.000146146
-5.27684e-08
-2.97383e-08
-6.99052e-08
-7.32199e-08
-4.93762e-08
1.1415e-06
-6.15046e-05
-4.24753e-06
0.00406106
-1.16125e-06
-0.00191729
-7.08286e-08
2.93437e-07
-5.13878e-05
2.35245e-07
1.06154e-05
1.4468e-07
4.06695e-08
-6.7751e-08
6.65019e-09
-1.84738e-06
-7.8573e-08
9.06156e-05
-1.36472e-07
0.00265863
3.24517e-08
-6.59154e-08
4.19634e-08
-2.9339e-07
-5.06528e-07
-0.00107485
-5.07479e-06
1.65504e-07
0.000179588
-5.09224e-08
-0.000104579
-5.74657e-08
4.07072e-06
2.99766e-07
-6.12834e-08
-5.52535e-08
-0.000331213
-7.7333e-08
-0.000298625
0.00392129
-5.63238e-08
-7.97728e-08
1.80247e-08
8.25461e-08
-0.00187231
1.83868e-08
-0.00162051
-5.5671e-08
5.18661e-06
-5.87644e-07
-0.000664252
-2.68283e-08
2.11545e-08
3.82029e-06
-4.36758e-08
-9.58844e-08
-2.29962e-08
-6.90259e-08
-7.84655e-08
-2.79732e-08
-2.09746e-06
-9.76013e-08
-0.000199056
-0.00011399
0.000409967
-0.000781127
0.00346954
-0.000176311
-0.00648526
-4.03033e-08
1.07287e-07
-6.37558e-08
-4.5376e-08
-6.16459e-08
-7.45742e-08
-7.20649e-08
-0.000550098
-9.36138e-08
-0.000141008
-5.34864e-08
-6.60009e-08
1.66675e-06
-5.86353e-08
-7.27614e-07
-4.95691e-08
-5.99129e-09
-7.69226e-08
-4.40904e-08
-0.000403231
7.75902e-08
0.000285425
-4.46975e-08
-6.31106e-08
-1.03204e-08
-1.19585e-07
-0.00121574
-4.18187e-08
-2.66762e-05
-5.42907e-08
5.97546e-05
-8.88075e-07
-6.24904e-08
-4.61645e-08
1.37461e-06
-4.29391e-08
-0.000576878
-0.00176743
7.53643e-08
-3.11849e-07
-5.06097e-08
-3.48855e-06
1.1649e-07
-9.1145e-08
-0.000150967
7.0536e-08
-5.14506e-08
-5.21344e-07
-0.00017907
-1.54307e-07
-0.00229646
0.000369343
-1.55979e-07
6.27473e-08
-6.53622e-08
-0.000892588
-6.53948e-08
-7.95601e-07
-6.09085e-08
-0.000773328
-7.79337e-07
0.0012568
-7.70395e-08
2.38551e-08
0.000164531
-9.8105e-08
1.22116e-06
-0.000678115
-1.14324e-08
-5.51792e-08
-0.00666498
-9.56361e-08
1.18458e-07
-2.01191e-08
-9.61196e-09
0.00118028
-5.34252e-07
2.01528e-08
3.07211e-06
-5.5216e-08
-0.000792051
-9.19826e-08
-5.26321e-08
-5.77195e-08
-0.000223498
0.000230181
-6.17533e-08
7.13343e-08
1.92635e-08
-8.2955e-08
-1.91431e-07
1.39237e-08
-2.44926e-08
-5.5424e-08
-1.26434e-07
-1.79676e-08
-2.75772e-08
-3.22617e-07
-0.00143566
-0.000894705
-4.09789e-07
-1.07731e-08
0.000109866
-6.74967e-08
-4.36105e-05
-0.000899043
-6.73735e-06
-3.35345e-09
-4.15066e-08
-8.23506e-08
-9.93387e-08
-7.09434e-09
4.13332e-08
-6.67369e-08
-1.55032e-07
-5.40714e-08
-0.000372612
-0.00715654
-6.61545e-08
-0.000436364
-5.98025e-08
-8.66151e-08
5.88848e-06
0.000125665
-2.19725e-06
9.25681e-08
-0.000542324
-9.57974e-08
-6.06018e-08
5.91276e-05
1.59819e-07
0.00343485
-5.05017e-08
-2.75329e-05
-4.9299e-08
-1.08399e-07
-1.1307e-07
-0.000343569
-4.48438e-08
1.64325e-05
-1.36438e-05
-5.7362e-08
1.01883e-07
-6.11023e-08
-4.28189e-08
-4.8717e-07
-6.48214e-08
-7.76301e-08
-0.000129302
-0.000583916
3.80468e-05
-5.35182e-07
-4.81586e-08
-0.000286812
-1.0504e-07
-0.00279843
6.71616e-07
-6.45651e-08
-4.51428e-08
0.00270208
0.00288719
-0.00121356
1.23633e-06
0.00403759
-1.64344e-07
-7.21808e-08
-6.58004e-08
-1.02187e-07
-5.95795e-08
-4.26545e-05
-0.000152084
-1.04306e-07
-6.30504e-08
-7.17358e-05
2.13181e-08
-3.46532e-09
0.00690064
0.000307664
-4.84939e-08
2.90299e-08
-6.88483e-08
-7.41749e-08
-4.78592e-08
-1.58239e-06
3.00583e-07
-6.51933e-08
0.0049825
2.24857e-07
0.000216927
-0.00134861
-6.85512e-06
-0.000180432
-6.4345e-08
-5.31525e-08
-2.19678e-05
-0.000181826
0.00057631
-4.84164e-06
-6.17002e-09
-5.68001e-08
-5.10653e-08
-8.93666e-08
-0.00125862
1.23506e-06
3.80334e-08
-1.67648e-07
-5.67431e-08
-8.33251e-06
-2.68133e-07
-7.60411e-07
-9.12795e-09
-1.27349e-05
0.000347347
-0.00267255
7.40021e-05
-1.02871e-08
7.58469e-06
-4.38409e-09
4.8347e-07
5.74114e-07
-0.00286127
-6.45854e-08
1.1043e-07
-8.58257e-08
-0.00408779
-1.00874e-08
-0.00138955
-9.95887e-08
3.02233e-06
-0.00164596
4.24076e-08
7.85879e-08
1.73974e-09
-1.01262e-07
-1.22945e-06
0.000126814
2.03359e-08
-4.59156e-08
-4.50498e-08
-0.00104133
-5.67153e-08
-1.68805e-08
-5.85852e-08
-7.99365e-08
-6.95038e-08
2.63008e-06
3.96881e-08
3.7922e-08
-4.60438e-08
-7.66381e-06
-3.11885e-05
2.37671e-06
-0.000860249
-6.19921e-08
-6.62863e-08
0.00443745
-3.96492e-08
6.89941e-09
9.71349e-05
-0.000218821
-1.10974e-06
4.87045e-07
3.10687e-07
-0.000116541
-1.20387e-05
-2.32093e-07
0.000214282
-4.14577e-08
2.22665e-07
-0.0012934
-6.18805e-07
0.00271687
0.00698801
-2.85251e-08
-4.95485e-08
-1.44791e-07
-6.67907e-08
-4.52077e-08
1.52596e-05
6.82927e-08
-1.28056e-08
-2.24196e-08
-3.0684e-08
-0.00120471
-4.55247e-09
-0.00277691
0.00359135
-6.62227e-08
4.85106e-08
3.46664e-07
-2.10743e-08
-5.46772e-08
-0.000339469
-2.64652e-07
-0.000147538
-1.08838e-07
-0.00463631
2.89211e-06
-6.26262e-08
0.000296173
-8.34342e-08
4.56513e-06
-6.32356e-08
5.96533e-05
-5.40065e-08
-1.69627e-09
-2.79768e-07
2.29123e-07
-5.58316e-08
-1.83667e-07
0.00113999
-6.55572e-08
-2.50221e-06
-1.87135e-05
-9.76145e-08
-6.30963e-08
2.43028e-06
-0.00184185
-0.000259084
-7.32203e-08
-6.52948e-08
-4.28038e-06
-0.00290406
-0.000176105
-5.97464e-08
-5.54306e-08
-3.30991e-08
-6.0161e-08
-1.31437e-07
7.7298e-08
-0.00183904
-7.43871e-08
-5.6287e-08
0.000236025
-5.16429e-06
-3.99905e-07
0.000319028
-0.00467592
-6.40525e-08
-4.91876e-08
-5.5513e-08
-3.15683e-08
5.14117e-08
-0.000353424
0.000167934
2.20797e-06
-9.90786e-10
-1.49559e-07
-5.70134e-08
-2.15637e-05
1.11494e-08
-7.42685e-07
-1.05087e-07
-8.45282e-06
-4.79128e-06
-6.47305e-08
-6.7195e-08
0.000330378
2.75776e-08
0.000191265
-0.00137489
3.18197e-06
-4.09144e-08
-0.000302579
-7.9287e-08
-7.52921e-08
-0.00210713
0.00168492
-1.10137e-07
-1.35144e-06
-5.68336e-07
-3.60538e-07
-5.29545e-08
-2.29435e-08
-6.63863e-08
-4.46107e-08
-5.47165e-08
-1.22716e-07
-1.24405e-06
-0.000146192
-3.6807e-07
-7.34865e-08
-7.70901e-08
2.58282e-06
-5.12692e-08
-2.56524e-07
-1.75711e-05
-2.57264e-06
-2.69716e-05
-6.93283e-08
-1.70905e-08
-0.000263839
-5.88763e-08
0.000434234
-5.18943e-08
-6.99504e-07
-6.24929e-08
-5.94003e-08
-1.17789e-05
-8.99253e-08
-1.18656e-07
-6.96993e-08
0.00909497
1.76209e-05
-4.89228e-05
-1.26018e-07
-5.81638e-08
0.00739164
1.07406e-07
9.85903e-10
2.47429e-06
0.00455565
-9.93729e-08
-7.94139e-08
-5.33329e-08
0.000538872
-6.28069e-08
-4.51756e-07
-5.62878e-08
-1.64122e-08
-1.46758e-06
-6.26475e-08
-4.43386e-08
-7.37523e-05
-1.7183e-07
0.00911884
-2.36985e-06
-6.59139e-08
-7.72625e-08
-5.03641e-08
-4.63915e-08
1.6813e-07
-1.097e-07
-6.76712e-08
2.53323e-06
-5.94096e-08
3.43215e-07
-1.35853e-06
6.05505e-06
-7.54428e-08
2.58958e-06
-7.31773e-08
-0.000406015
1.5394e-08
-0.002145
-2.85752e-07
-1.15671e-07
-1.67304e-07
-7.9599e-08
-7.77977e-08
-8.54665e-08
5.56408e-08
-6.58913e-08
-6.27058e-08
-0.000661422
1.84981e-06
-7.04172e-06
-2.50871e-08
-7.69567e-08
1.73448e-07
-2.88872e-06
-5.61864e-08
0.000651465
-6.31987e-09
-1.04612e-07
-6.75164e-08
-2.42212e-08
3.44541e-09
-2.4967e-05
0.00323976
1.56083e-05
0.000512977
4.05737e-06
3.57815e-06
-2.67967e-07
3.56566e-05
-2.15825e-08
1.37912e-08
-7.0636e-08
-0.000530492
-2.61742e-08
0.000235277
-9.69211e-08
-1.42493e-08
3.92737e-06
6.07196e-05
-0.000104154
0.000225924
-8.47847e-08
3.29835e-06
-4.97855e-05
2.86273e-08
0.000219572
-6.07239e-08
7.26897e-08
-0.0007489
-2.16128e-08
0.000377345
-7.3241e-06
-5.26519e-08
-5.5863e-08
1.66808e-08
-0.000665211
1.12228e-07
-2.19372e-08
-3.30666e-07
-7.28995e-08
-4.7243e-08
-5.31497e-07
3.74509e-08
-1.29508e-07
-6.86735e-08
4.06534e-07
-4.01102e-08
0.00434592
4.01241e-05
-4.01616e-08
-4.05064e-08
-4.78449e-08
-6.80013e-08
-5.43256e-08
-7.30617e-08
-1.27937e-08
-6.85609e-08
-7.82815e-08
-4.36774e-08
-5.71163e-08
-1.64395e-06
-2.3305e-08
-2.66029e-07
-4.5575e-08
1.86773e-06
-7.38958e-08
-6.32692e-08
-6.50286e-08
4.46477e-08
-4.38026e-07
-8.32841e-07
-5.98455e-08
0.00872295
0.000103787
-0.000895269
0.000427475
-3.32864e-07
-0.00135015
-5.46894e-08
-5.7671e-08
0.00216513
-0.00264387
1.69962e-07
-5.53713e-05
-4.5691e-08
-3.55597e-07
-0.00383223
-5.52205e-08
-2.09936e-07
-0.0176731
0.00291621
2.83052e-08
-1.38052e-07
-6.83981e-08
0.00073137
-5.73907e-08
0.000219013
-0.000461497
-6.17709e-08
2.6598e-05
0.0004021
1.63347e-07
-0.00241572
-0.00122746
-1.63721e-08
-5.55678e-08
-0.00147424
-0.000163786
3.31788e-08
-7.7201e-08
-1.19402e-07
0.000113983
3.37662e-06
-8.95482e-08
-7.60548e-08
0.00030374
-5.4774e-08
-6.669e-08
-5.34126e-08
-4.72645e-08
-0.000756717
-1.669e-06
-7.816e-08
-0.000311202
-5.59407e-08
-1.54732e-06
-6.95267e-08
-0.00120915
2.97224e-07
0.000707442
-7.04056e-08
-7.24109e-08
7.19487e-08
1.47927e-08
-5.92292e-08
-8.6631e-08
-0.00213488
-3.16943e-08
-5.00374e-08
-6.67727e-08
-0.00110321
-5.49515e-08
-0.00152669
-0.00290561
0.00363045
-1.0022e-07
-6.77642e-08
-6.13511e-08
-0.00383825
-9.1127e-08
-0.00123047
3.08218e-08
0.0014612
-6.32231e-09
5.48059e-08
-3.0266e-05
-9.927e-08
1.58461e-07
-0.000131646
-6.50393e-07
0.000260505
-1.441e-08
-0.000969626
0.00382201
-9.31678e-08
-1.58481e-05
-1.02612e-07
-6.0346e-07
-0.00138966
-2.10446e-07
6.27218e-07
-0.000156244
3.98234e-07
-2.1779e-07
-7.37842e-08
0.000615077
-6.45596e-08
-0.00235642
-6.14124e-08
-0.000156551
-6.55983e-08
-8.79565e-08
2.42232e-07
0.00317414
-5.93163e-08
0.00013605
-2.51272e-06
-0.0123087
-6.58274e-08
1.52195e-08
-0.000895548
-0.000173119
-0.00146301
5.66193e-07
-7.45946e-08
-3.07015e-07
0.000921263
4.55464e-08
0.000575385
1.81655e-08
-5.70635e-07
-0.000196428
-6.45906e-08
-0.000161742
-6.67534e-08
-0.000738674
-0.000487887
-3.81971e-08
1.88225e-07
-0.00243884
0.00374546
-6.70902e-08
-5.21204e-08
-5.16986e-08
-1.00444e-07
-0.000849847
8.48258e-07
2.70344e-05
-1.46074e-07
-1.22773e-07
0.000408258
3.36692e-06
-0.00127148
-0.00131067
-7.34645e-08
-6.004e-08
-5.46799e-07
-0.00254378
-0.000599689
-0.00376502
3.51152e-06
-5.12236e-07
-2.76643e-06
-0.000724459
-0.00135577
0.00293139
-5.76167e-08
1.02903e-07
-1.09878e-08
1.28513e-06
-6.53699e-08
-6.22843e-08
3.87453e-07
-8.01681e-06
0.00199479
-2.42965e-07
-0.00166085
-0.000214902
-2.56233e-07
-6.63803e-08
-6.59454e-08
-0.000447702
-7.56938e-08
-0.00079679
-1.40098e-07
3.16911e-07
2.05178e-06
-6.66483e-06
-4.05927e-08
-1.03967e-07
-7.74506e-08
-6.10613e-08
-0.000461598
1.75026e-06
-0.000409944
-6.27902e-08
5.64252e-05
3.14393e-05
-1.97007e-06
2.80311e-08
-8.04953e-08
3.82496e-07
-2.02987e-05
4.11345e-06
-2.74288e-07
-0.000686391
-0.000143622
2.6397e-08
-8.4164e-08
-9.2236e-08
-7.60429e-07
-0.000127344
5.01185e-08
-4.02168e-08
-4.42506e-08
-6.49727e-05
-1.7976e-05
-9.43855e-08
-9.57942e-07
2.19736e-06
-5.56579e-08
-3.07783e-07
6.87832e-08
-0.000503331
-1.14478e-06
0.00237056
-0.00190737
-8.10163e-08
1.1375e-07
-0.00051346
-6.11677e-08
-4.3057e-07
7.96845e-05
-1.45834e-07
-3.04484e-06
-6.52708e-08
-1.9611e-07
-0.00258999
-0.00103876
-7.35695e-08
-0.000320063
-0.000115713
-2.08443e-08
-7.47732e-07
1.37089e-08
3.75137e-06
-0.00134365
0.000557599
-0.00326021
1.00149e-06
-1.26086e-05
-1.11396e-07
1.47617e-08
6.90623e-09
-6.84481e-08
-6.38051e-08
-6.40199e-08
-4.69074e-05
-8.47261e-06
1.80134e-08
1.90942e-06
-1.20302e-06
-5.87042e-08
0.00425034
0.00148545
4.11478e-08
-9.40515e-08
4.18071e-09
-8.86138e-08
-1.25922e-07
-6.37394e-08
-0.00238531
-7.68681e-08
3.33007e-07
2.51946e-07
1.08583e-06
-1.98075e-06
1.814e-06
-0.00801972
-6.43281e-08
-8.04445e-08
1.09921e-08
-8.03301e-08
-0.0010288
3.94224e-08
3.33284e-08
-0.0076664
-1.44536e-07
-1.32675e-07
5.59043e-07
-5.65852e-08
-3.4114e-08
-2.92717e-06
-7.81624e-08
-9.27273e-05
0.010879
-0.00535067
-6.81978e-08
0.000581805
-6.43505e-08
-0.000152639
-4.05799e-08
-6.05201e-07
0.00118022
-6.98488e-08
-0.000130014
-7.29154e-05
-9.96021e-08
-9.38355e-08
8.73227e-08
-8.47109e-08
-0.00235679
-4.91467e-08
-6.56732e-08
-3.08583e-08
-3.70741e-08
-4.48402e-07
-1.05681e-07
-8.67553e-08
-6.22408e-08
6.49249e-08
0.000480682
-9.85913e-08
-3.58785e-07
-7.0441e-07
-0.00022209
0.000123761
0.00338711
-9.85378e-08
-1.60932e-07
5.67619e-05
-7.13067e-08
-2.0015e-07
-6.96613e-08
-0.00104434
4.73803e-08
-5.71022e-08
1.27778e-07
-0.000654693
-6.36428e-08
-6.97528e-08
-2.28426e-08
1.44764e-06
-0.000530099
2.27591e-06
-6.832e-08
-2.28092e-07
-5.63763e-08
-0.000373552
4.82744e-09
-0.00101683
-1.81813e-07
-1.35766e-07
-1.10527e-05
1.99168e-06
0.000160573
-5.6053e-08
1.15815e-08
-1.86029e-07
2.3845e-07
2.38322e-06
-6.75204e-08
-1.02226e-07
3.70264e-08
0.000254071
-6.99935e-08
-1.04958e-07
-0.00102538
-7.44009e-09
-1.25322e-06
-6.55779e-08
-4.91382e-08
-9.62158e-08
-0.00349768
-5.67811e-08
-0.0134919
-0.000630283
2.07354e-08
0.00217203
-5.97088e-08
1.04131e-06
-6.18904e-07
-1.02424e-07
4.37645e-08
1.82707e-08
-6.20394e-08
0.00171717
-1.34305e-07
-0.000400137
9.85244e-05
-6.9316e-08
3.81736e-06
-5.716e-07
-8.6417e-05
-5.67436e-08
0.000740787
-0.00101367
-0.000982243
-3.80824e-08
-5.2761e-08
-5.39681e-08
-0.00507283
-0.000932657
2.45815e-07
-8.30049e-08
-7.90837e-08
-0.00309047
-7.13238e-08
-5.30794e-08
-1.1899e-07
-2.14473e-07
-0.000145401
-2.61313e-08
-0.00103131
-1.33928e-06
-6.55974e-08
-0.00237736
-1.92913e-07
0.00324526
0.00466415
-1.38647e-07
-5.4745e-07
-1.06357e-07
4.1682e-07
-1.08684e-07
-1.21048e-06
-9.61971e-07
-1.94064e-08
-6.1003e-08
-5.90685e-06
0.00646733
-4.76684e-08
4.19945e-06
0.00127063
0.00395885
1.46847e-08
-5.83544e-08
-0.00124461
-0.000678141
9.36704e-05
-8.77319e-08
0.0048945
-2.59438e-08
2.65037e-08
-0.000139119
-1.06387e-07
-9.46996e-08
0.00029889
-7.71022e-08
-2.27312e-05
-7.43135e-08
1.03701e-08
-9.25401e-08
-2.30342e-08
0.00152649
2.32607e-08
-6.37531e-08
-1.81051e-07
-5.93961e-08
2.55692e-08
-4.82581e-07
-9.47107e-08
-6.63616e-08
-2.3166e-08
-4.15326e-08
7.30286e-06
0.000487805
4.2599e-05
0.000761844
-1.55481e-06
-0.00408435
3.29381e-06
0.0005196
0.00554584
0.00164851
-5.12349e-08
5.51048e-07
-5.92724e-08
-8.98771e-08
-7.5135e-08
1.60354e-07
1.62199e-06
-1.19157e-07
-3.24252e-07
-5.56077e-08
-6.00844e-08
-5.38604e-08
-6.15706e-08
-1.10786e-07
-9.99454e-08
-0.000489116
-2.21791e-07
-0.000150366
-6.30902e-08
-0.000551805
-9.8581e-08
-9.47559e-08
-7.46402e-08
-1.15227e-07
-5.54308e-08
1.72476e-07
9.35591e-05
-6.58978e-07
-0.000205398
0.000908147
1.28704e-07
-1.23402e-07
-4.80324e-05
2.34513e-06
2.87477e-08
-5.24119e-08
2.0491e-08
0.00020837
1.32921e-08
3.11057e-05
1.25854e-05
2.30844e-07
-0.0248578
-0.0220606
-2.42704e-07
-0.000390557
4.0878e-08
-2.70619e-08
-0.000284268
0.000143665
-6.36586e-08
-7.21902e-08
0.0131761
-5.75698e-08
3.81255e-06
-1.10558e-07
3.1398e-09
4.60486e-08
-6.6481e-08
1.61156e-07
0.000155968
-5.56673e-05
-6.54647e-08
-2.38785e-08
-2.95191e-06
-4.75512e-08
1.86455e-06
-6.1105e-08
-1.11101e-06
-4.08765e-07
-1.08611e-07
-8.95502e-08
2.89227e-08
3.92631e-06
-8.76039e-06
-8.3245e-07
-0.00054083
-1.82149e-07
-0.00102224
-3.22391e-07
-2.54368e-07
-0.000984576
-6.36068e-08
7.04347e-05
-4.93007e-08
-0.000474919
-2.95762e-05
-0.000107422
-0.000188004
1.59879e-07
2.73461e-07
-0.000391786
-9.62016e-08
-0.00014848
-9.54404e-08
-5.8633e-08
-6.28184e-08
-5.44523e-08
-7.65013e-08
3.82181e-05
-0.000631912
-0.00221051
-8.63757e-08
-6.0702e-07
-3.3636e-08
-1.62854e-07
-7.39652e-08
3.80018e-06
-4.47258e-07
-0.00319382
-5.08498e-07
1.59809e-08
-4.47973e-08
-6.01457e-08
-9.49472e-07
9.15349e-08
-1.24081e-08
-6.65696e-08
-3.18288e-06
-7.68605e-08
-1.13088e-07
-1.84126e-06
0.000169824
-1.80809e-07
-7.99563e-08
-5.80656e-08
-6.23673e-08
5.84474e-05
0.00030607
-8.46947e-07
-5.25599e-08
-0.00248762
-9.91416e-08
-8.65016e-08
2.50163e-08
0.000289664
0.00214487
-2.05271e-07
-5.72939e-08
-0.00135439
-1.06024e-07
-5.51837e-08
2.4761e-08
0.00112994
0.000603293
1.37539e-07
-0.00312405
0.00136278
-1.43904e-07
-1.34316e-06
5.20079e-07
-0.0004902
-2.22349e-07
-0.000764481
-1.18989e-07
-7.15992e-05
2.40857e-06
-0.000615445
-7.98333e-08
-4.74464e-08
0.000276398
-8.7381e-08
-4.44307e-08
0.00192377
-0.000472686
-2.43294e-06
-0.000169848
-5.76242e-08
-5.19119e-08
-0.000455621
-7.77157e-08
-6.67219e-08
-7.17519e-08
-7.57764e-10
-5.49842e-08
1.48455e-06
-1.45487e-07
0.000268804
0.000423322
-5.22547e-08
-0.00013356
-1.45309e-07
0.000169778
-0.000155898
-7.14476e-08
-6.39747e-08
-6.13445e-08
-0.000114128
1.3922e-06
1.80762e-07
0.000208179
-0.000891426
-0.000118406
-1.04022e-07
-0.000270671
-3.41253e-05
-8.87448e-06
-0.000368922
-1.00243e-07
-9.40157e-08
-6.66491e-08
-1.26198e-07
-7.71944e-08
-8.09769e-08
-3.93873e-05
-4.52732e-07
-0.00126851
-0.00258397
-0.00257958
-0.00462387
-6.12703e-05
-1.59928e-06
-0.000954926
-7.9709e-08
-3.1487e-07
-4.06902e-08
-8.00289e-08
-2.56286e-07
-0.000140129
6.87064e-08
-0.000788181
0.000347141
-5.60622e-08
-7.02063e-08
2.58349e-08
-2.07082e-06
-1.12452e-07
1.78589e-07
0.000217832
-4.79633e-08
-7.74279e-08
-5.66504e-08
-5.00111e-08
-6.42387e-07
3.12007e-05
-1.06918e-07
0.000664085
3.23637e-06
-6.65117e-08
6.08979e-05
4.84351e-06
1.49069e-07
3.06892e-05
5.28398e-05
-0.0027201
-0.00109407
-7.17079e-05
-8.97672e-08
-0.000340421
7.26314e-05
-9.9133e-08
-0.000860566
-9.01415e-08
3.08606e-10
-2.81018e-08
-5.39572e-08
-0.00100746
3.46052e-07
-6.28274e-08
-1.2285e-07
0.000154649
1.45989e-05
-9.3901e-08
9.59013e-07
-0.000822988
0.000237132
-7.01301e-08
-6.44077e-08
1.50604e-06
-5.95613e-08
-6.71954e-08
0.00310435
-5.73006e-08
-2.10999e-06
-4.01406e-05
-0.000730536
-5.4403e-08
-2.74297e-06
-4.61958e-07
-8.98852e-08
1.81521e-08
0.00748634
-0.00198489
-1.57031e-07
1.85461e-06
3.15648e-07
-1.80831e-06
-0.000999041
-0.00241751
-7.93343e-08
0.000520906
-0.000234781
-1.99784e-07
-6.25219e-08
-6.37324e-06
-2.52094e-08
1.41403e-08
-0.000100571
-5.1891e-07
1.28129e-06
-6.10156e-08
-6.43518e-07
-7.26466e-08
-3.14947e-08
-5.34159e-08
-5.16736e-08
-0.00281587
-5.74287e-08
-0.000842661
-0.00014611
-5.50204e-07
-1.87749e-07
-0.00231915
-0.000868991
-0.00283596
5.72916e-08
-6.45641e-08
-1.96121e-07
-7.1709e-08
-2.7881e-06
-0.000814581
-5.37343e-08
-0.000283286
-0.00013059
-6.81988e-08
-5.68727e-07
-2.30655e-07
-6.86957e-07
-7.76169e-07
-5.13204e-08
-9.09557e-07
-1.07789e-06
-1.4506e-06
-1.30474e-06
-7.68852e-07
-2.14836e-07
9.42072e-07
-6.07633e-08
-8.11074e-08
-5.4037e-07
-5.1713e-08
1.77956e-05
-0.000768131
2.53155e-05
0.00047631
2.76492e-08
-3.53487e-08
-6.29992e-05
0.00147782
-5.19952e-08
3.99159e-08
8.21382e-09
-0.00793237
0.00968672
-9.05015e-08
1.26389e-06
-7.86741e-08
0.000382439
0.000854467
-5.67791e-08
-1.08613e-05
3.62364e-05
-5.88926e-07
-0.000181198
9.82337e-07
0.00051856
-0.000958574
1.53735e-08
-0.000386408
-0.000228404
-3.91611e-08
1.2954e-06
3.88961e-06
-6.55529e-07
-6.87672e-08
-0.000128621
-0.00144136
-9.26562e-08
-9.21532e-08
-0.00247762
1.1753e-05
2.14256e-06
-7.0912e-08
-5.73136e-06
-2.28768e-07
0.000290947
-0.000278289
-7.18835e-08
-6.29711e-08
-5.23857e-08
-7.75109e-08
-0.00061469
0.0104681
0.00118629
-4.48103e-07
-9.24176e-06
0.00158791
-5.89991e-08
-6.10382e-08
-1.06772e-05
-7.48731e-08
-0.00105056
1.3132e-08
-0.000212597
-5.15082e-08
-1.27322e-07
-0.000635343
-7.15254e-08
-6.97817e-07
-0.00239575
-1.38216e-07
-1.78898e-07
-5.1818e-08
1.11614e-06
-7.3432e-05
4.69826e-06
0.000221244
-9.06726e-08
5.23387e-08
-7.17362e-08
1.90287e-06
-0.00032701
-0.00718464
3.67622e-06
-3.46624e-06
-6.98137e-07
0.000569459
1.0389e-06
-3.30135e-08
-4.99156e-08
-4.11046e-08
7.77492e-07
-1.16602e-06
0.00249629
-6.9092e-07
-8.07411e-07
-6.94098e-08
-0.000371005
-1.13949e-05
0.000385247
-6.86877e-08
-5.16281e-08
1.09706e-08
0.000118525
1.94764e-05
0.0039554
4.57934e-06
-6.90051e-07
-1.66144e-06
2.38653e-08
-8.39502e-08
3.86621e-06
-1.13275e-05
4.46979e-05
-8.61445e-08
-7.63129e-07
-1.28029e-07
1.07908e-08
-2.84568e-06
0.00122644
-0.0020011
-9.98716e-08
2.51605e-06
4.14892e-05
-0.00506258
-0.000136732
-0.00094953
-0.000529628
-4.43233e-08
2.76124e-07
-1.50265e-07
-8.22676e-07
-1.11475e-07
4.72973e-06
-3.01673e-07
3.035e-09
-3.26463e-05
-0.00244306
-1.43858e-08
-3.79008e-06
-0.00017948
7.63099e-08
-3.22128e-07
0.00321548
-1.30457e-07
1.24603e-07
-1.68421e-07
-0.000897819
-1.18223e-07
5.01195e-06
6.00615e-05
0.00122196
-0.000170268