/*--------------------------------*- C++ -*----------------------------------*\
| =========                 |                                                 |
| \\      /  F ield         | OpenFOAM: The Open Source CFD Toolbox           |
|  \\    /   O peration     | Version:  v2012                                 |
|   \\  /    A nd           | Website:  www.openfoam.com                      |
|    \\/     M anipulation  |                                                 |
\*---------------------------------------------------------------------------*/
FoamFile
{
    version     2.0;
    format      ascii;
    class       volVectorField;
    location    "650";
    object      cellDisplacement;
}
// * * * * * * * * * * * * * * * * * * * * * * * * * * * * * * * * * * * * * //

dimensions      [0 1 0 0 0 0 0];


internalField   nonuniform List<vector> 
13917
(
(0 0.0665242 0)
(0 0.0604171 0)
(0 0.0664814 0)
(0 0.0590584 0)
(0 0.0511755 0)
(0 0.0601524 0)
(0 0.0642979 0)
(0 0.0621814 0)
(0 0.0643062 0)
(0 0.0665239 0)
(0 0.0621137 0)
(0 0.0543693 0)
(0 0.00181069 0)
(0 0.0631942 0)
(0 0.0577205 0)
(0 0.0665242 0)
(0 0.00137805 0)
(0 0.0622508 0)
(0 0.0663857 0)
(0 0.066524 0)
(0 0.0629539 0)
(0 0.0465423 0)
(0 0.0658583 0)
(0 0.0461212 0)
(0 0.0610364 0)
(0 0.0628222 0)
(0 0.06544 0)
(0 0.0665242 0)
(0 0.0625537 0)
(0 0.000908634 0)
(0 0.0665239 0)
(0 0.0662459 0)
(0 0.0585931 0)
(0 0.0665238 0)
(0 0.0311624 0)
(0 0.0620735 0)
(0 0.0596746 0)
(0 0.00205663 0)
(0 0.0643844 0)
(0 0.0643373 0)
(0 0.00041729 0)
(0 0.0214562 0)
(0 0.0634183 0)
(0 0.0663963 0)
(0 0.0663879 0)
(0 0.0662501 0)
(0 0.062861 0)
(0 0.0665134 0)
(0 0.0606704 0)
(0 0.0315048 0)
(0 0.0538682 0)
(0 0.0662134 0)
(0 0.0665242 0)
(0 0.0513704 0)
(0 0.0526986 0)
(0 0.0662269 0)
(0 0.0665242 0)
(0 0.0658278 0)
(0 0.0209173 0)
(0 0.0662342 0)
(0 0.0664218 0)
(0 0.0352199 0)
(0 0.000140697 0)
(0 0.0608156 0)
(0 0.0665125 0)
(0 0.00137836 0)
(0 0.0624606 0)
(0 0.0618899 0)
(0 0.0623077 0)
(0 0.0665242 0)
(0 0.0665064 0)
(0 0.066524 0)
(0 0.0544198 0)
(0 0.0206893 0)
(0 0.0631532 0)
(0 0.0610064 0)
(0 0.0507444 0)
(0 0.0201515 0)
(0 0.06081 0)
(0 0.0589163 0)
(0 0.053174 0)
(0 0.00160465 0)
(0 0.0539135 0)
(0 0.0665117 0)
(0 0.0176509 0)
(0 0.0634297 0)
(0 0.0662256 0)
(0 0.00908941 0)
(0 0.0642067 0)
(0 0.00164705 0)
(0 0.00267999 0)
(0 0.0635724 0)
(0 0.0604653 0)
(0 0.027263 0)
(0 0.0552173 0)
(0 0.0626228 0)
(0 0.0650097 0)
(0 0.0022468 0)
(0 0.0102285 0)
(0 0.0650302 0)
(0 0.000400425 0)
(0 0.000487257 0)
(0 0.053686 0)
(0 0.00410492 0)
(0 0.0502775 0)
(0 0.066516 0)
(0 0.0665202 0)
(0 0.0348736 0)
(0 0.0216743 0)
(0 0.065459 0)
(0 0.011756 0)
(0 0.0665237 0)
(0 0.0627175 0)
(0 0.0665142 0)
(0 0.066512 0)
(0 0.0612135 0)
(0 0.066373 0)
(0 0.00168591 0)
(0 0.0664642 0)
(0 0.0516795 0)
(0 0.00199283 0)
(0 0.0199005 0)
(0 0.0625263 0)
(0 0.0662686 0)
(0 0.0665242 0)
(0 0.0665134 0)
(0 0.0605813 0)
(0 0.0632423 0)
(0 0.03335 0)
(0 0.066285 0)
(0 0.0654634 0)
(0 0.0659122 0)
(0 0.0665221 0)
(0 0.061104 0)
(0 0.0663155 0)
(0 0.0653912 0)
(0 0.0663842 0)
(0 0.0665242 0)
(0 0.0627969 0)
(0 0.00111162 0)
(0 0.0547217 0)
(0 0.0199021 0)
(0 0.0665153 0)
(0 0.0382527 0)
(0 0.0526263 0)
(0 0.0221084 0)
(0 0.0665068 0)
(0 0.0445212 0)
(0 0.0665164 0)
(0 0.0520204 0)
(0 0.0639879 0)
(0 0.000432086 0)
(0 0.0519713 0)
(0 0.0518396 0)
(0 0.0650412 0)
(0 0.0460422 0)
(0 0.00471474 0)
(0 0.0665226 0)
(0 0.000812932 0)
(0 0.00138122 0)
(0 0.0308677 0)
(0 0.0664968 0)
(0 0.0598934 0)
(0 0.0545371 0)
(0 0.0664836 0)
(0 0.0650919 0)
(0 0.0665242 0)
(0 0.0664885 0)
(0 0.000187926 0)
(0 0.0628745 0)
(0 0.0467689 0)
(0 0.0665219 0)
(0 0.0642655 0)
(0 0.0664063 0)
(0 0.0658733 0)
(0 0.000690282 0)
(0 0.0591241 0)
(0 0.066221 0)
(0 0.065401 0)
(0 0.0600707 0)
(0 0.0632538 0)
(0 0.0462486 0)
(0 0.0537683 0)
(0 0.0663697 0)
(0 0.066466 0)
(0 0.0658849 0)
(0 0.0532865 0)
(0 0.0663617 0)
(0 0.00112325 0)
(0 0.0633755 0)
(0 0.06585 0)
(0 0.0663726 0)
(0 0.0663446 0)
(0 0.0665241 0)
(0 0.0276161 0)
(0 0.0665242 0)
(0 0.063225 0)
(0 0.0665215 0)
(0 0.030538 0)
(0 0.0457267 0)
(0 0.0626228 0)
(0 0.0665242 0)
(0 0.0665242 0)
(0 0.0584299 0)
(0 0.0656131 0)
(0 0.0615804 0)
(0 0.0641221 0)
(0 0.020203 0)
(0 0.0662312 0)
(0 0.0530147 0)
(0 0.0263281 0)
(0 0.0514144 0)
(0 0.0516446 0)
(0 0.0665147 0)
(0 0.0663027 0)
(0 0.0629175 0)
(0 0.0665143 0)
(0 0.00522987 0)
(0 0.0112926 0)
(0 0.0111258 0)
(0 0.0664942 0)
(0 0.0663543 0)
(0 0.0663643 0)
(0 0.0225812 0)
(0 9.51052e-05 0)
(0 0.0654022 0)
(0 0.0665242 0)
(0 0.0102831 0)
(0 0.00988176 0)
(0 0.000386948 0)
(0 0.0114746 0)
(0 0.0113026 0)
(0 0.066524 0)
(0 0.0665116 0)
(0 0.0496539 0)
(0 0.000400735 0)
(0 0.0660736 0)
(0 0.0665241 0)
(0 0.00108528 0)
(0 0.0210058 0)
(0 0.0655712 0)
(0 0.0665158 0)
(0 0.0663666 0)
(0 0.066516 0)
(0 0.066012 0)
(0 0.0386533 0)
(0 0.0664871 0)
(0 0.0661095 0)
(0 0.0626521 0)
(0 0.0662504 0)
(0 0.0582111 0)
(0 0.0665138 0)
(0 0.0522954 0)
(0 0.0650947 0)
(0 0.0658183 0)
(0 0.0498811 0)
(0 0.000183344 0)
(0 0.0608136 0)
(0 0.0488741 0)
(0 0.0284458 0)
(0 0.0665241 0)
(0 0.0617347 0)
(0 0.0214063 0)
(0 0.00967052 0)
(0 0.0466564 0)
(0 0.0098908 0)
(0 0.0523897 0)
(0 0.00337529 0)
(0 0.0653263 0)
(0 0.0217488 0)
(0 0.0665242 0)
(0 0.0665189 0)
(0 0.0489992 0)
(0 0.0489252 0)
(0 0.0662306 0)
(0 0.00895201 0)
(0 0.0649388 0)
(0 0.0665241 0)
(0 0.00910569 0)
(0 0.0665242 0)
(0 0.0277816 0)
(0 0.0664924 0)
(0 0.000546997 0)
(0 0.0568541 0)
(0 0.0503007 0)
(0 0.0370223 0)
(0 0.0664099 0)
(0 0.0032975 0)
(0 0.0651235 0)
(0 0.0637034 0)
(0 0.0616842 0)
(0 0.0225221 0)
(0 0.0656266 0)
(0 0.0665242 0)
(0 0.00149451 0)
(0 0.0659001 0)
(0 0.0497653 0)
(0 0.0612071 0)
(0 0.050685 0)
(0 0.0608506 0)
(0 0.0273581 0)
(0 0.00405281 0)
(0 0.0661821 0)
(0 0.0433721 0)
(0 0.0650293 0)
(0 0.0606587 0)
(0 0.0195304 0)
(0 0.0665223 0)
(0 0.0665242 0)
(0 0.0312778 0)
(0 0.00763707 0)
(0 0.0613148 0)
(0 0.0515843 0)
(0 0.0664411 0)
(0 0.0665207 0)
(0 0.0664068 0)
(0 0.000857084 0)
(0 0.0658963 0)
(0 0.0483602 0)
(0 0.0665097 0)
(0 0.051935 0)
(0 0.0664806 0)
(0 0.00297766 0)
(0 0.0573768 0)
(0 0.0654924 0)
(0 0.0469012 0)
(0 0.0605717 0)
(0 0.0663629 0)
(0 0.00121647 0)
(0 0.0665216 0)
(0 0.0141432 0)
(0 0.0659289 0)
(0 0.00872008 0)
(0 0.0665241 0)
(0 0.0174244 0)
(0 0.0649658 0)
(0 0.0617938 0)
(0 0.000635487 0)
(0 0.00165436 0)
(0 0.066263 0)
(0 0.0665138 0)
(0 0.0549826 0)
(0 0.0466176 0)
(0 0.0665234 0)
(0 0.0665145 0)
(0 0.0664363 0)
(0 0.0630453 0)
(0 0.00885371 0)
(0 0.0502789 0)
(0 0.0665162 0)
(0 0.0659274 0)
(0 0.00906126 0)
(0 0.0502919 0)
(0 0.0526864 0)
(0 0.0639428 0)
(0 0.0650276 0)
(0 0.0662996 0)
(0 0.0658113 0)
(0 0.0648538 0)
(0 0.0658979 0)
(0 0.0665239 0)
(0 0.0341296 0)
(0 0.0551459 0)
(0 0.0513718 0)
(0 0.066447 0)
(0 0.000964744 0)
(0 0.0665241 0)
(0 0.0658773 0)
(0 0.011157 0)
(0 0.0531887 0)
(0 0.0659007 0)
(0 0.00786268 0)
(0 0.0599957 0)
(0 0.0200809 0)
(0 0.0663722 0)
(0 0.0662464 0)
(0 0.0619192 0)
(0 0.0496826 0)
(0 0.0664873 0)
(0 0.0088063 0)
(0 0.0664787 0)
(0 0.0663576 0)
(0 0.019837 0)
(0 0.0602255 0)
(0 0.0509251 0)
(0 0.0100069 0)
(0 0.0205083 0)
(0 0.0665237 0)
(0 0.00994366 0)
(0 0.0597042 0)
(0 0.0654797 0)
(0 0.0647011 0)
(0 0.0575523 0)
(0 0.0664719 0)
(0 0.0664923 0)
(0 0.0592868 0)
(0 0.0664107 0)
(0 0.0501634 0)
(0 0.0646441 0)
(0 0.0664767 0)
(0 0.0125394 0)
(0 0.0643219 0)
(0 0.060747 0)
(0 0.0363463 0)
(0 0.0209509 0)
(0 0.0352335 0)
(0 0.0663864 0)
(0 0.0651627 0)
(0 0.0542328 0)
(0 0.0354359 0)
(0 0.044963 0)
(0 0.0657748 0)
(0 0.061333 0)
(0 0.00871345 0)
(0 0.0002151 0)
(0 0.0664347 0)
(0 0.0658501 0)
(0 0.0379512 0)
(0 0.0594599 0)
(0 0.0663803 0)
(0 0.0647622 0)
(0 0.00132849 0)
(0 0.0663982 0)
(0 0.0665071 0)
(0 0.0140015 0)
(0 0.00868323 0)
(0 0.0623141 0)
(0 0.0197283 0)
(0 0.00888143 0)
(0 0.0500597 0)
(0 0.00886457 0)
(0 0.013665 0)
(0 0.0664968 0)
(0 0.050776 0)
(0 0.0645824 0)
(0 0.0665242 0)
(0 0.0658606 0)
(0 0.0271939 0)
(0 0.0513016 0)
(0 0.0664765 0)
(0 0.0625374 0)
(0 0.0665242 0)
(0 0.00874128 0)
(0 0.035489 0)
(0 0.00911543 0)
(0 0.0116025 0)
(0 0.0593551 0)
(0 0.050945 0)
(0 0.0663644 0)
(0 0.0202076 0)
(0 0.0665164 0)
(0 0.0351045 0)
(0 0.0655447 0)
(0 0.0209172 0)
(0 0.0524321 0)
(0 0.0660275 0)
(0 0.0664286 0)
(0 0.0522608 0)
(0 0.0649531 0)
(0 0.0283433 0)
(0 0.00797333 0)
(0 0.0442246 0)
(0 0.0512048 0)
(0 0.0245635 0)
(0 0.00666864 0)
(0 0.0665224 0)
(0 0.0664206 0)
(0 0.0236675 0)
(0 0.0656855 0)
(0 0.0664299 0)
(0 0.00731236 0)
(0 0.0659485 0)
(0 0.0663155 0)
(0 0.0664882 0)
(0 0.0646112 0)
(0 0.0665157 0)
(0 0.0109144 0)
(0 0.0109707 0)
(0 0.051227 0)
(0 0.0011551 0)
(0 0.0213044 0)
(0 0.0578128 0)
(0 0.0664293 0)
(0 0.00260439 0)
(0 0.0508525 0)
(0 0.0553892 0)
(0 0.0642857 0)
(0 0.0632819 0)
(0 0.0664528 0)
(0 0.066051 0)
(0 0.0234825 0)
(0 0.0491093 0)
(0 0.0624237 0)
(0 0.0650552 0)
(0 0.0539094 0)
(0 0.0632095 0)
(0 0.0654194 0)
(0 0.0637429 0)
(0 0.0664651 0)
(0 0.0161327 0)
(0 0.0651085 0)
(0 0.0662395 0)
(0 0.0153145 0)
(0 0.0665234 0)
(0 0.00802795 0)
(0 0.011375 0)
(0 0.0658241 0)
(0 0.00891964 0)
(0 0.00565386 0)
(0 0.0661498 0)
(0 0.0665228 0)
(0 0.0654318 0)
(0 0.0297719 0)
(0 0.0603297 0)
(0 0.0244806 0)
(0 0.0663983 0)
(0 0.06619 0)
(0 0.0530665 0)
(0 0.0521217 0)
(0 0.0273551 0)
(0 0.0657784 0)
(0 0.0395142 0)
(0 0.0334059 0)
(0 0.00116625 0)
(0 0.0450771 0)
(0 0.0354285 0)
(0 0.0405763 0)
(0 0.0642963 0)
(0 0.00222688 0)
(0 0.0660554 0)
(0 0.0141117 0)
(0 0.0458706 0)
(0 0.0605651 0)
(0 0.0665224 0)
(0 0.00640548 0)
(0 0.0628139 0)
(0 0.0287675 0)
(0 0.0654849 0)
(0 0.0660925 0)
(0 0.0635517 0)
(0 0.0658601 0)
(0 0.0651356 0)
(0 0.0598475 0)
(0 0.0623563 0)
(0 0.0665211 0)
(0 0.0665001 0)
(0 0.0665241 0)
(0 0.0292456 0)
(0 0.0432598 0)
(0 0.0236477 0)
(0 0.0449516 0)
(0 0.0665138 0)
(0 0.00918821 0)
(0 0.052055 0)
(0 0.0632565 0)
(0 0.066519 0)
(0 0.0650167 0)
(0 0.0634008 0)
(0 0.0665234 0)
(0 0.0235475 0)
(0 0.0662474 0)
(0 0.00273489 0)
(0 0.0281777 0)
(0 0.0665199 0)
(0 0.00874052 0)
(0 0.0664849 0)
(0 0.000183406 0)
(0 0.0053289 0)
(0 0.0440044 0)
(0 0.0664479 0)
(0 0.0404022 0)
(0 0.00872407 0)
(0 0.0664014 0)
(0 0.0659079 0)
(0 0.0470249 0)
(0 0.0665048 0)
(0 0.066522 0)
(0 0.0664876 0)
(0 0.00609165 0)
(0 0.0665242 0)
(0 0.000438735 0)
(0 0.0663962 0)
(0 0.044586 0)
(0 0.0284319 0)
(0 0.00835695 0)
(0 0.000431727 0)
(0 0.0653596 0)
(0 0.0630837 0)
(0 0.00891682 0)
(0 0.00268511 0)
(0 0.0035751 0)
(0 0.0665018 0)
(0 0.0337097 0)
(0 0.0661964 0)
(0 0.0502149 0)
(0 0.00830214 0)
(0 0.00100853 0)
(0 0.0662473 0)
(0 0.0664762 0)
(0 0.0665232 0)
(0 0.0662255 0)
(0 0.0642996 0)
(0 0.0664588 0)
(0 0.0665241 0)
(0 0.0210796 0)
(0 0.0664299 0)
(0 0.00351468 0)
(0 0.0664042 0)
(0 0.0449958 0)
(0 0.0664876 0)
(0 0.0344589 0)
(0 0.0411844 0)
(0 0.0532039 0)
(0 0.0466587 0)
(0 0.0653945 0)
(0 0.0665127 0)
(0 0.00241245 0)
(0 0.0652593 0)
(0 0.0329101 0)
(0 0.000299741 0)
(0 0.0665237 0)
(0 0.0649154 0)
(0 0.0333454 0)
(0 0.066316 0)
(0 0.0210982 0)
(0 0.0267219 0)
(0 0.000313549 0)
(0 0.0665235 0)
(0 0.0333729 0)
(0 0.0493728 0)
(0 0.00899428 0)
(0 0.0329766 0)
(0 0.0664414 0)
(0 0.000414814 0)
(0 0.0663258 0)
(0 0.00172012 0)
(0 0.0172683 0)
(0 0.0664109 0)
(0 0.0662181 0)
(0 0.052499 0)
(0 0.0665242 0)
(0 0.0664821 0)
(0 0.0606925 0)
(0 0.0662304 0)
(0 0.022658 0)
(0 0.0578589 0)
(0 0.0665229 0)
(0 0.0664928 0)
(0 0.0622034 0)
(0 0.0597978 0)
(0 0.0415362 0)
(0 0.00203331 0)
(0 0.0362037 0)
(0 0.00083076 0)
(0 0.0661184 0)
(0 0.0624962 0)
(0 0.066467 0)
(0 0.0654532 0)
(0 0.0611126 0)
(0 0.0662181 0)
(0 0.0437762 0)
(0 0.0650001 0)
(0 0.0663491 0)
(0 0.0665241 0)
(0 0.027673 0)
(0 0.0446183 0)
(0 0.000610584 0)
(0 0.0172932 0)
(0 0.00269015 0)
(0 0.000970173 0)
(0 0.0246406 0)
(0 0.00566279 0)
(0 0.0665242 0)
(0 0.0656429 0)
(0 0.00563042 0)
(0 0.0663466 0)
(0 0.0026476 0)
(0 0.0665197 0)
(0 0.027464 0)
(0 0.0331122 0)
(0 0.0665231 0)
(0 0.0660648 0)
(0 0.0182547 0)
(0 0.0554105 0)
(0 0.00784777 0)
(0 0.0313656 0)
(0 0.0588019 0)
(0 0.0647192 0)
(0 0.0364273 0)
(0 0.0665242 0)
(0 0.0640559 0)
(0 0.041163 0)
(0 0.0179831 0)
(0 0.0442333 0)
(0 0.066522 0)
(0 0.0603566 0)
(0 0.0033275 0)
(0 0.0332776 0)
(0 0.066524 0)
(0 0.0654916 0)
(0 0.0633501 0)
(0 0.0665242 0)
(0 0.0509555 0)
(0 0.0184654 0)
(0 0.0320805 0)
(0 0.0592415 0)
(0 0.0665149 0)
(0 0.0184366 0)
(0 0.0653877 0)
(0 0.0585006 0)
(0 0.062842 0)
(0 0.066412 0)
(0 0.0481727 0)
(0 0.0663035 0)
(0 0.0656582 0)
(0 0.0546964 0)
(0 0.0590009 0)
(0 0.00335415 0)
(0 0.0646481 0)
(0 0.0487235 0)
(0 0.0664957 0)
(0 0.0612894 0)
(0 0.026952 0)
(0 0.0665242 0)
(0 0.00152294 0)
(0 0.0513475 0)
(0 0.0595976 0)
(0 0.0601371 0)
(0 0.0634466 0)
(0 0.0664897 0)
(0 0.00193784 0)
(0 0.0662163 0)
(0 0.0664748 0)
(0 0.000815529 0)
(0 0.0457691 0)
(0 0.0613961 0)
(0 0.00416984 0)
(0 0.0395976 0)
(0 0.0526563 0)
(0 0.0550128 0)
(0 0.020601 0)
(0 0.0662287 0)
(0 0.0663234 0)
(0 0.0216597 0)
(0 0.0664996 0)
(0 0.0642339 0)
(0 0.0643308 0)
(0 0.0663354 0)
(0 0.0507095 0)
(0 0.0662435 0)
(0 0.0650876 0)
(0 0.00731449 0)
(0 0.066069 0)
(0 0.0658942 0)
(0 0.0656162 0)
(0 0.0323079 0)
(0 0.0255711 0)
(0 0.0358156 0)
(0 0.0665242 0)
(0 0.0582267 0)
(0 0.0274861 0)
(0 0.0658948 0)
(0 0.0373341 0)
(0 0.028769 0)
(0 0.0662188 0)
(0 0.0650513 0)
(0 0.0547201 0)
(0 0.0648603 0)
(0 0.0638621 0)
(0 0.0665165 0)
(0 0.052783 0)
(0 0.0510489 0)
(0 0.0664696 0)
(0 0.0280987 0)
(0 0.0355276 0)
(0 0.00162573 0)
(0 0.00277681 0)
(0 0.0549571 0)
(0 0.0613564 0)
(0 0.0636931 0)
(0 0.031811 0)
(0 0.00744682 0)
(0 0.0431279 0)
(0 0.0449713 0)
(0 0.0597622 0)
(0 0.0645845 0)
(0 0.00889993 0)
(0 0.066258 0)
(0 0.0572311 0)
(0 0.0664762 0)
(0 0.0550549 0)
(0 0.00120081 0)
(0 0.0665216 0)
(0 0.0591322 0)
(0 0.0665242 0)
(0 0.0628839 0)
(0 0.0555134 0)
(0 0.0483276 0)
(0 0.027237 0)
(0 0.0448935 0)
(0 0.0665213 0)
(0 0.0645638 0)
(0 0.0609066 0)
(0 0.0646649 0)
(0 0.0385744 0)
(0 0.0656359 0)
(0 0.000290502 0)
(0 0.033672 0)
(0 0.0382343 0)
(0 0.000402748 0)
(0 0.0664915 0)
(0 0.0629734 0)
(0 0.0558157 0)
(0 0.0663587 0)
(0 0.0500487 0)
(0 0.0126603 0)
(0 0.00336637 0)
(0 0.0658412 0)
(0 0.0225497 0)
(0 0.0506448 0)
(0 0.0591099 0)
(0 0.0422696 0)
(0 0.0659085 0)
(0 0.0121459 0)
(0 0.0637751 0)
(0 0.0545603 0)
(0 0.0665242 0)
(0 0.0665242 0)
(0 0.0523218 0)
(0 0.0665168 0)
(0 0.0650358 0)
(0 0.0665242 0)
(0 0.0512024 0)
(0 0.0164831 0)
(0 0.0258896 0)
(0 0.0503513 0)
(0 0.0585232 0)
(0 0.0285347 0)
(0 0.0646534 0)
(0 0.0381909 0)
(0 0.0615303 0)
(0 0.0512646 0)
(0 0.0665019 0)
(0 0.0578419 0)
(0 0.0653661 0)
(0 0.0656746 0)
(0 0.0293585 0)
(0 0.0644267 0)
(0 0.0591616 0)
(0 0.0294383 0)
(0 0.0637966 0)
(0 0.00861711 0)
(0 0.0665219 0)
(0 0.0661468 0)
(0 0.00672528 0)
(0 0.0310488 0)
(0 0.0395248 0)
(0 0.0465094 0)
(0 0.043795 0)
(0 0.0664711 0)
(0 0.0174678 0)
(0 0.0649872 0)
(0 0.0335659 0)
(0 0.0111335 0)
(0 0.0560028 0)
(0 0.0384793 0)
(0 0.0662359 0)
(0 0.0356833 0)
(0 0.0184383 0)
(0 0.0176392 0)
(0 0.066435 0)
(0 0.0583472 0)
(0 0.0662679 0)
(0 0.022177 0)
(0 0.0649526 0)
(0 0.00843889 0)
(0 0.0441071 0)
(0 0.066524 0)
(0 0.00277533 0)
(0 0.0593773 0)
(0 0.0663347 0)
(0 0.0665241 0)
(0 0.0085354 0)
(0 0.0507836 0)
(0 0.0664755 0)
(0 0.0208701 0)
(0 0.0500859 0)
(0 0.0430353 0)
(0 0.0665049 0)
(0 0.0374662 0)
(0 0.0664125 0)
(0 0.0531456 0)
(0 0.0665233 0)
(0 0.0566501 0)
(0 0.0661575 0)
(0 0.0357197 0)
(0 0.00621182 0)
(0 0.0101002 0)
(0 0.00499358 0)
(0 0.00131643 0)
(0 0.0665203 0)
(0 0.0580479 0)
(0 0.0226406 0)
(0 0.0522392 0)
(0 0.0205841 0)
(0 0.025617 0)
(0 0.0661235 0)
(0 0.0589536 0)
(0 0.066514 0)
(0 0.0645044 0)
(0 0.0663121 0)
(0 0.0662029 0)
(0 0.062667 0)
(0 0.0665233 0)
(0 0.0554228 0)
(0 0.0660973 0)
(0 0.0377399 0)
(0 0.0665241 0)
(0 0.0111718 0)
(0 0.0562756 0)
(0 0.00863846 0)
(0 0.028581 0)
(0 0.0533127 0)
(0 0.00853721 0)
(0 0.0163924 0)
(0 0.0225053 0)
(0 0.0439133 0)
(0 0.0642912 0)
(0 0.00685381 0)
(0 0.0577629 0)
(0 0.0662639 0)
(0 0.0664941 0)
(0 0.0664829 0)
(0 0.0663151 0)
(0 0.046853 0)
(0 0.0103383 0)
(0 0.0352903 0)
(0 0.0664704 0)
(0 0.0390753 0)
(0 0.0665242 0)
(0 0.0106965 0)
(0 0.0174062 0)
(0 0.00977352 0)
(0 0.0486592 0)
(0 0.0103914 0)
(0 0.00930749 0)
(0 0.0366017 0)
(0 0.06507 0)
(0 0.0227392 0)
(0 0.0665233 0)
(0 0.0519008 0)
(0 0.0278382 0)
(0 0.0665206 0)
(0 0.0387528 0)
(0 0.0356072 0)
(0 0.0343303 0)
(0 0.0665232 0)
(0 0.0650787 0)
(0 0.00098126 0)
(0 0.0186044 0)
(0 0.0303174 0)
(0 0.0346651 0)
(0 0.0665031 0)
(0 0.0264369 0)
(0 0.0648381 0)
(0 0.0597396 0)
(0 0.0558993 0)
(0 0.0274176 0)
(0 0.0208993 0)
(0 0.0627959 0)
(0 0.0500306 0)
(0 0.0596689 0)
(0 0.0665239 0)
(0 0.0371924 0)
(0 0.00373179 0)
(0 0.0503227 0)
(0 0.0408128 0)
(0 0.0246737 0)
(0 0.0663702 0)
(0 0.0656148 0)
(0 0.0623282 0)
(0 0.0665239 0)
(0 0.0665229 0)
(0 0.0496277 0)
(0 0.0663839 0)
(0 0.0216825 0)
(0 0.066524 0)
(0 0.0201303 0)
(0 0.0663742 0)
(0 0.0658181 0)
(0 0.0644009 0)
(0 0.0591327 0)
(0 0.0661874 0)
(0 0.0654549 0)
(0 0.0665109 0)
(0 0.00800807 0)
(0 0.0455495 0)
(0 0.00873249 0)
(0 0.0382572 0)
(0 0.0656738 0)
(0 0.0540418 0)
(0 0.0526341 0)
(0 0.0658261 0)
(0 0.0665241 0)
(0 0.0207009 0)
(0 0.0648291 0)
(0 0.0665241 0)
(0 0.000206288 0)
(0 0.00920895 0)
(0 0.0523713 0)
(0 0.0665149 0)
(0 0.0582298 0)
(0 0.000364344 0)
(0 0.0641706 0)
(0 0.0506747 0)
(0 0.0336572 0)
(0 0.0547654 0)
(0 0.0591115 0)
(0 0.0496106 0)
(0 0.0414489 0)
(0 0.00823916 0)
(0 0.0191147 0)
(0 0.038684 0)
(0 0.0367729 0)
(0 0.0665241 0)
(0 0.0558479 0)
(0 0.0574406 0)
(0 0.00968577 0)
(0 0.0665241 0)
(0 0.00974778 0)
(0 0.00812929 0)
(0 0.0625334 0)
(0 0.058065 0)
(0 0.0599433 0)
(0 0.00833521 0)
(0 0.0664723 0)
(0 0.0271048 0)
(0 0.0466552 0)
(0 0.066042 0)
(0 0.0371947 0)
(0 0.000664775 0)
(0 0.0662295 0)
(0 0.0664206 0)
(0 0.0662091 0)
(0 0.0663655 0)
(0 0.0187775 0)
(0 0.0663578 0)
(0 0.0665228 0)
(0 0.00200047 0)
(0 0.066374 0)
(0 0.0095209 0)
(0 0.0657268 0)
(0 0.0660637 0)
(0 0.0381695 0)
(0 0.0630781 0)
(0 0.0284941 0)
(0 0.0631227 0)
(0 0.0613132 0)
(0 0.0576981 0)
(0 0.0664749 0)
(0 0.0651111 0)
(0 0.0659417 0)
(0 0.0664177 0)
(0 0.0030589 0)
(0 0.0664001 0)
(0 0.0595322 0)
(0 0.0493318 0)
(0 0.0395113 0)
(0 0.0187735 0)
(0 0.00687653 0)
(0 0.019732 0)
(0 0.0593637 0)
(0 0.0665129 0)
(0 0.0237571 0)
(0 0.0579344 0)
(0 0.0630678 0)
(0 0.0555791 0)
(0 0.0497114 0)
(0 0.0657568 0)
(0 0.0662852 0)
(0 0.0469593 0)
(0 0.0300383 0)
(0 0.0637346 0)
(0 0.0097679 0)
(0 0.0600388 0)
(0 0.066523 0)
(0 0.0558896 0)
(0 0.0383094 0)
(0 0.0653514 0)
(0 0.0278156 0)
(0 0.0582099 0)
(0 0.0665225 0)
(0 0.0665241 0)
(0 0.0537844 0)
(0 0.0656637 0)
(0 0.0604534 0)
(0 0.0665242 0)
(0 0.0648096 0)
(0 0.0632012 0)
(0 0.0665031 0)
(0 0.0326319 0)
(0 0.0661242 0)
(0 0.0664933 0)
(0 0.06647 0)
(0 0.0401893 0)
(0 0.0595233 0)
(0 0.013282 0)
(0 0.0451648 0)
(0 0.00292328 0)
(0 0.0503479 0)
(0 0.0464124 0)
(0 0.0664967 0)
(0 0.00273874 0)
(0 0.0656197 0)
(0 0.0128758 0)
(0 0.0661845 0)
(0 0.0664838 0)
(0 0.0588763 0)
(0 0.0663904 0)
(0 0.0648623 0)
(0 0.0397407 0)
(0 0.0663235 0)
(0 0.0589677 0)
(0 0.0583394 0)
(0 0.0402465 0)
(0 0.0665241 0)
(0 0.0662039 0)
(0 0.0665241 0)
(0 0.0628502 0)
(0 0.06647 0)
(0 0.0658755 0)
(0 0.00804816 0)
(0 0.0526663 0)
(0 0.0651884 0)
(0 0.00832218 0)
(0 0.0392095 0)
(0 0.0661574 0)
(0 0.0403541 0)
(0 0.0614639 0)
(0 0.062936 0)
(0 0.0588888 0)
(0 0.0584139 0)
(0 0.0660744 0)
(0 0.066124 0)
(0 0.0320339 0)
(0 0.066106 0)
(0 0.0561966 0)
(0 0.0505223 0)
(0 0.0341755 0)
(0 0.0217651 0)
(0 0.066511 0)
(0 0.0664514 0)
(0 0.0253018 0)
(0 0.0652885 0)
(0 0.00744383 0)
(0 0.0504353 0)
(0 0.0665242 0)
(0 0.051914 0)
(0 0.0108735 0)
(0 0.0132329 0)
(0 0.0406864 0)
(0 0.00224197 0)
(0 0.0589147 0)
(0 0.0665116 0)
(0 0.0447655 0)
(0 0.0632206 0)
(0 0.0184604 0)
(0 0.00767356 0)
(0 0.0663002 0)
(0 0.0665126 0)
(0 0.0664618 0)
(0 0.0558625 0)
(0 0.00559338 0)
(0 0.0122289 0)
(0 0.0573515 0)
(0 0.0662946 0)
(0 0.0665214 0)
(0 0.00696208 0)
(0 0.0657319 0)
(0 0.0623086 0)
(0 0.0660015 0)
(0 0.0629098 0)
(0 0.00721298 0)
(0 0.0610851 0)
(0 0.0663919 0)
(0 0.0282406 0)
(0 0.0646643 0)
(0 0.00745359 0)
(0 0.0224417 0)
(0 0.0550588 0)
(0 0.0665229 0)
(0 0.0657269 0)
(0 0.0181254 0)
(0 0.0664898 0)
(0 0.0660996 0)
(0 0.0316066 0)
(0 0.0662021 0)
(0 0.00354454 0)
(0 0.0147033 0)
(0 0.066437 0)
(0 0.0415405 0)
(0 0.0281474 0)
(0 0.0535484 0)
(0 0.0663455 0)
(0 0.0637604 0)
(0 0.0585816 0)
(0 0.011788 0)
(0 0.0352063 0)
(0 0.0261985 0)
(0 0.0377435 0)
(0 0.0644004 0)
(0 0.0650294 0)
(0 0.0665242 0)
(0 0.0639058 0)
(0 0.0636581 0)
(0 0.0653013 0)
(0 0.0658246 0)
(0 0.0290308 0)
(0 0.0631774 0)
(0 0.0663448 0)
(0 0.0664891 0)
(0 0.066518 0)
(0 0.0565201 0)
(0 0.0115429 0)
(0 0.0665241 0)
(0 0.00968513 0)
(0 0.00980535 0)
(0 0.0606658 0)
(0 0.0645482 0)
(0 0.0546077 0)
(0 0.00975984 0)
(0 0.0664977 0)
(0 0.0635725 0)
(0 0.0557648 0)
(0 0.0384617 0)
(0 0.0660894 0)
(0 0.0664932 0)
(0 0.0665241 0)
(0 0.0427548 0)
(0 0.0455684 0)
(0 0.0597645 0)
(0 0.00132946 0)
(0 0.014388 0)
(0 0.0656804 0)
(0 0.0407136 0)
(0 0.0627806 0)
(0 0.0652518 0)
(0 0.0582494 0)
(0 0.0665119 0)
(0 0.0280255 0)
(0 0.0534989 0)
(0 0.058434 0)
(0 0.0110519 0)
(0 0.066488 0)
(0 0.0297592 0)
(0 0.02533 0)
(0 0.0658731 0)
(0 0.0661663 0)
(0 0.0660457 0)
(0 0.066481 0)
(0 0.0236635 0)
(0 0.064955 0)
(0 0.0289787 0)
(0 0.0305998 0)
(0 0.0500171 0)
(0 0.00713946 0)
(0 0.0516395 0)
(0 0.0664834 0)
(0 0.0514097 0)
(0 0.0660438 0)
(0 0.0390669 0)
(0 0.0215462 0)
(0 0.0513403 0)
(0 0.0070938 0)
(0 0.0344097 0)
(0 0.0665241 0)
(0 0.0073444 0)
(0 0.0609106 0)
(0 0.0662421 0)
(0 0.00578907 0)
(0 0.0660361 0)
(0 0.0652604 0)
(0 0.0650128 0)
(0 0.0491454 0)
(0 0.0341826 0)
(0 0.0274876 0)
(0 0.0222995 0)
(0 0.00657784 0)
(0 0.0602273 0)
(0 0.0260664 0)
(0 0.00442949 0)
(0 0.0310359 0)
(0 0.0113044 0)
(0 0.0627789 0)
(0 0.0373109 0)
(0 0.0665141 0)
(0 0.0656728 0)
(0 0.0214996 0)
(0 0.0207123 0)
(0 0.0180588 0)
(0 0.0656181 0)
(0 0.0194008 0)
(0 0.0652819 0)
(0 0.0359333 0)
(0 0.000160916 0)
(0 0.0218657 0)
(0 0.0659693 0)
(0 0.056047 0)
(0 0.0664823 0)
(0 0.0128921 0)
(0 0.00705451 0)
(0 0.062114 0)
(0 0.00647002 0)
(0 0.0188779 0)
(0 0.0665233 0)
(0 0.0485103 0)
(0 0.00439762 0)
(0 0.0657392 0)
(0 0.0661883 0)
(0 0.0665242 0)
(0 0.00720182 0)
(0 0.0632982 0)
(0 0.0657649 0)
(0 0.0197145 0)
(0 0.0157302 0)
(0 0.0664875 0)
(0 0.0388791 0)
(0 0.000645989 0)
(0 0.0660794 0)
(0 0.0160015 0)
(0 0.0665227 0)
(0 0.0074553 0)
(0 0.0325565 0)
(0 0.0448319 0)
(0 0.0162368 0)
(0 0.0665216 0)
(0 0.000705119 0)
(0 0.011898 0)
(0 0.0662807 0)
(0 0.024997 0)
(0 0.0279045 0)
(0 0.00791167 0)
(0 0.0150061 0)
(0 0.0659353 0)
(0 0.0539603 0)
(0 0.0485444 0)
(0 0.0145579 0)
(0 0.0655838 0)
(0 0.0496002 0)
(0 0.0155106 0)
(0 0.0164258 0)
(0 0.0578762 0)
(0 0.0194271 0)
(0 0.0629903 0)
(0 0.0440385 0)
(0 0.0265081 0)
(0 0.0544739 0)
(0 0.0101639 0)
(0 0.0570433 0)
(0 0.0489514 0)
(0 0.0627369 0)
(0 0.0179788 0)
(0 0.0662494 0)
(0 0.0453842 0)
(0 0.061011 0)
(0 0.0243202 0)
(0 0.0512769 0)
(0 0.0367852 0)
(0 0.00794877 0)
(0 0.0639243 0)
(0 0.0562375 0)
(0 0.0640029 0)
(0 0.0660811 0)
(0 0.0110294 0)
(0 0.0665228 0)
(0 0.0665156 0)
(0 0.0662795 0)
(0 0.0665171 0)
(0 0.0460658 0)
(0 0.0482376 0)
(0 0.0652453 0)
(0 0.0663569 0)
(0 0.0115918 0)
(0 0.0665241 0)
(0 0.0206489 0)
(0 0.0664284 0)
(0 0.050222 0)
(0 0.0627277 0)
(0 0.066228 0)
(0 0.0637723 0)
(0 0.0658743 0)
(0 0.00356143 0)
(0 0.0659738 0)
(0 0.0288485 0)
(0 0.0244032 0)
(0 0.0630913 0)
(0 0.0665223 0)
(0 0.0665235 0)
(0 0.0531412 0)
(0 0.0491717 0)
(0 0.0655376 0)
(0 0.00124039 0)
(0 0.0663743 0)
(0 0.000967186 0)
(0 0.0593628 0)
(0 0.0170188 0)
(0 0.00057331 0)
(0 0.0665241 0)
(0 0.0156471 0)
(0 0.0653544 0)
(0 0.0512219 0)
(0 0.0652201 0)
(0 0.0661366 0)
(0 0.0496477 0)
(0 0.0251346 0)
(0 0.0665084 0)
(0 0.0295954 0)
(0 0.0395497 0)
(0 0.0583065 0)
(0 0.0205802 0)
(0 0.0663661 0)
(0 0.0564558 0)
(0 0.0645762 0)
(0 0.066524 0)
(0 0.0380152 0)
(0 0.0638951 0)
(0 0.05392 0)
(0 0.000727036 0)
(0 0.0656822 0)
(0 0.0247589 0)
(0 0.0233663 0)
(0 0.0644996 0)
(0 0.000930084 0)
(0 0.00364209 0)
(0 0.0632472 0)
(0 0.0484404 0)
(0 0.0664114 0)
(0 0.0580505 0)
(0 0.0222995 0)
(0 0.0321822 0)
(0 0.00616591 0)
(0 0.0188141 0)
(0 0.0371518 0)
(0 0.0663393 0)
(0 0.0517833 0)
(0 0.0417494 0)
(0 0.0270442 0)
(0 0.0311898 0)
(0 0.0511731 0)
(0 0.0523411 0)
(0 0.0665141 0)
(0 0.0030935 0)
(0 0.0648147 0)
(0 0.0585269 0)
(0 0.0290908 0)
(0 0.0664926 0)
(0 0.0498724 0)
(0 0.00171416 0)
(0 0.0665241 0)
(0 0.0663594 0)
(0 0.0665231 0)
(0 0.0283587 0)
(0 0.0665186 0)
(0 0.0645599 0)
(0 0.0478113 0)
(0 0.066524 0)
(0 0.0496828 0)
(0 0.0562552 0)
(0 0.0664749 0)
(0 0.0560311 0)
(0 0.0618496 0)
(0 0.0665241 0)
(0 0.0609371 0)
(0 0.0661763 0)
(0 0.0505639 0)
(0 0.0665106 0)
(0 0.0401404 0)
(0 0.0376174 0)
(0 0.0295378 0)
(0 0.0665242 0)
(0 0.0409307 0)
(0 0.0098602 0)
(0 0.0477492 0)
(0 0.0453533 0)
(0 0.0280214 0)
(0 0.0108026 0)
(0 0.0651383 0)
(0 0.0639075 0)
(0 0.0376683 0)
(0 0.062186 0)
(0 0.066521 0)
(0 0.0611317 0)
(0 0.0661481 0)
(0 0.0660271 0)
(0 0.0241668 0)
(0 0.0663083 0)
(0 0.0647086 0)
(0 0.0579726 0)
(0 0.066459 0)
(0 0.00648153 0)
(0 0.0663254 0)
(0 0.0665242 0)
(0 0.0285915 0)
(0 0.0665242 0)
(0 0.0223334 0)
(0 0.0665175 0)
(0 0.0663481 0)
(0 0.0606689 0)
(0 0.0502644 0)
(0 0.0377044 0)
(0 0.0516741 0)
(0 0.0361219 0)
(0 0.0603947 0)
(0 0.0213285 0)
(0 0.0490718 0)
(0 0.066514 0)
(0 0.065768 0)
(0 0.0664973 0)
(0 0.0410559 0)
(0 0.0635565 0)
(0 0.0665225 0)
(0 0.0285812 0)
(0 0.0504213 0)
(0 0.0665103 0)
(0 0.0190751 0)
(0 0.0354528 0)
(0 0.0664742 0)
(0 0.066352 0)
(0 0.0661151 0)
(0 0.050888 0)
(0 0.0664836 0)
(0 0.0639295 0)
(0 0.0554444 0)
(0 0.0665199 0)
(0 0.0664821 0)
(0 0.0398956 0)
(0 0.0158545 0)
(0 0.0661437 0)
(0 0.0655609 0)
(0 0.0657732 0)
(0 0.0473733 0)
(0 0.0643528 0)
(0 0.0656501 0)
(0 0.0647744 0)
(0 0.0513996 0)
(0 0.0213842 0)
(0 0.0627388 0)
(0 0.066524 0)
(0 0.0627344 0)
(0 0.0358514 0)
(0 0.0372084 0)
(0 0.0604711 0)
(0 0.0273956 0)
(0 0.0665225 0)
(0 0.0636251 0)
(0 0.0118588 0)
(0 0.0661406 0)
(0 0.021747 0)
(0 0.0154674 0)
(0 0.0651856 0)
(0 0.0648648 0)
(0 0.0482323 0)
(0 0.0665209 0)
(0 0.0259256 0)
(0 0.0665218 0)
(0 0.0252721 0)
(0 0.0665239 0)
(0 0.0664897 0)
(0 0.0664757 0)
(0 0.007795 0)
(0 0.0623879 0)
(0 0.0611847 0)
(0 0.0639721 0)
(0 0.0660212 0)
(0 0.0662238 0)
(0 0.0665137 0)
(0 0.0646839 0)
(0 0.000310217 0)
(0 0.0626245 0)
(0 0.0292012 0)
(0 0.0663435 0)
(0 0.0665242 0)
(0 0.000732813 0)
(0 0.0136385 0)
(0 0.0591258 0)
(0 0.0661351 0)
(0 0.063866 0)
(0 0.026532 0)
(0 0.0649379 0)
(0 0.0660875 0)
(0 0.021544 0)
(0 0.0213625 0)
(0 0.0587806 0)
(0 0.0665217 0)
(0 0.0561769 0)
(0 0.0236883 0)
(0 0.0665146 0)
(0 0.0644797 0)
(0 0.0585798 0)
(0 0.0664679 0)
(0 0.0341333 0)
(0 0.0628055 0)
(0 0.066521 0)
(0 0.00148455 0)
(0 0.0645263 0)
(0 0.0654193 0)
(0 0.0661522 0)
(0 0.0663323 0)
(0 0.0665183 0)
(0 0.0499244 0)
(0 0.0598964 0)
(0 0.0645721 0)
(0 0.0160819 0)
(0 0.066437 0)
(0 0.0660565 0)
(0 0.0658177 0)
(0 0.0664176 0)
(0 0.0656037 0)
(0 0.0506189 0)
(0 0.0661942 0)
(0 0.0665162 0)
(0 0.0628456 0)
(0 0.0662671 0)
(0 9.17823e-05 0)
(0 0.0549127 0)
(0 0.0497954 0)
(0 0.0266108 0)
(0 0.0664947 0)
(0 0.0645886 0)
(0 0.00703234 0)
(0 0.0608455 0)
(0 0.0664681 0)
(0 0.033066 0)
(0 0.0406348 0)
(0 0.0665128 0)
(0 0.000798032 0)
(0 0.0517564 0)
(0 6.01885e-05 0)
(0 0.0557486 0)
(0 0.0659272 0)
(0 0.0404562 0)
(0 0.0664762 0)
(0 0.064816 0)
(0 0.0660024 0)
(0 0.0586124 0)
(0 0.0657159 0)
(0 0.055126 0)
(0 0.0593687 0)
(0 0.0625778 0)
(0 0.0481642 0)
(0 0.0562222 0)
(0 0.00660261 0)
(0 0.0253159 0)
(0 0.0665204 0)
(0 0.0663878 0)
(0 0.0619568 0)
(0 0.0664544 0)
(0 0.041758 0)
(0 0.0520494 0)
(0 0.061294 0)
(0 0.0215468 0)
(0 0.0222777 0)
(0 0.0651313 0)
(0 0.0631587 0)
(0 0.066524 0)
(0 0.0660144 0)
(0 0.0663924 0)
(0 0.0508785 0)
(0 0.0663175 0)
(0 0.0375565 0)
(0 0.0665007 0)
(0 0.0145347 0)
(0 0.0664211 0)
(0 0.0662105 0)
(0 0.00816376 0)
(0 0.0661 0)
(0 0.0665241 0)
(0 0.0626519 0)
(0 0.0065214 0)
(0 0.00152624 0)
(0 0.0624979 0)
(0 0.0664167 0)
(0 0.0196533 0)
(0 0.0554478 0)
(0 0.00387366 0)
(0 0.00195245 0)
(0 0.066478 0)
(0 0.00663801 0)
(0 0.0631006 0)
(0 0.0181751 0)
(0 0.00281732 0)
(0 0.066467 0)
(0 0.0650371 0)
(0 0.0532873 0)
(0 0.0663465 0)
(0 0.060242 0)
(0 0.0665217 0)
(0 0.0591954 0)
(0 0.00433212 0)
(0 0.0540784 0)
(0 0.0665223 0)
(0 0.0480242 0)
(0 0.066152 0)
(0 0.0524226 0)
(0 0.0665146 0)
(0 0.036915 0)
(0 0.044714 0)
(0 0.0512246 0)
(0 0.0664851 0)
(0 0.0338641 0)
(0 0.0232183 0)
(0 0.0122164 0)
(0 0.0664568 0)
(0 0.0665236 0)
(0 0.0661263 0)
(0 0.0344255 0)
(0 0.0562527 0)
(0 0.023803 0)
(0 0.066524 0)
(0 5.74689e-05 0)
(0 0.0664991 0)
(0 0.0661461 0)
(0 0.042058 0)
(0 0.0662821 0)
(0 0.0598524 0)
(0 0.00671368 0)
(0 0.0587885 0)
(0 0.0144116 0)
(0 0.0639715 0)
(0 0.0621107 0)
(0 0.0656468 0)
(0 0.0544808 0)
(0 0.0531063 0)
(0 0.0362652 0)
(0 0.0665227 0)
(0 0.00698676 0)
(0 0.0065111 0)
(0 0.0665178 0)
(0 0.058429 0)
(0 0.0284573 0)
(0 0.0629106 0)
(0 0.0323076 0)
(0 0.0277471 0)
(0 0.0437349 0)
(0 0.0627184 0)
(0 0.0639001 0)
(0 0.00590727 0)
(0 0.00529754 0)
(0 0.0644353 0)
(0 0.054721 0)
(0 0.0661669 0)
(0 0.0652298 0)
(0 0.00710527 0)
(0 0.00825578 0)
(0 0.00493382 0)
(0 0.039938 0)
(0 0.0599782 0)
(0 0.0659963 0)
(0 0.0665241 0)
(0 0.0665153 0)
(0 0.0284649 0)
(0 0.0198918 0)
(0 0.0640008 0)
(0 0.0665014 0)
(0 0.0428749 0)
(0 0.0226116 0)
(0 0.0665187 0)
(0 0.0665127 0)
(0 0.00556254 0)
(0 0.0606113 0)
(0 0.0570573 0)
(0 0.0508322 0)
(0 0.0665203 0)
(0 0.0115957 0)
(0 0.0112612 0)
(0 0.0649333 0)
(0 0.0664833 0)
(0 0.0533926 0)
(0 0.0609052 0)
(0 0.0560656 0)
(0 0.0664252 0)
(0 0.0664828 0)
(0 0.0129476 0)
(0 0.0664863 0)
(0 0.0567102 0)
(0 0.0346586 0)
(0 0.066418 0)
(0 0.0661307 0)
(0 0.0645479 0)
(0 0.0592388 0)
(0 0.0629365 0)
(0 0.0566634 0)
(0 0.00554557 0)
(0 0.0603409 0)
(0 0.0539044 0)
(0 0.0620141 0)
(0 0.0639599 0)
(0 0.0268102 0)
(0 0.0629262 0)
(0 0.0664882 0)
(0 0.0661062 0)
(0 0.0188251 0)
(0 0.0659786 0)
(0 0.0662966 0)
(0 0.0649178 0)
(0 0.0268329 0)
(0 0.0506187 0)
(0 0.00684052 0)
(0 0.0665087 0)
(0 0.060679 0)
(0 0.0367476 0)
(0 0.0662791 0)
(0 0.0662652 0)
(0 0.00602058 0)
(0 0.0665242 0)