/*--------------------------------*- C++ -*----------------------------------*\
| =========                 |                                                 |
| \\      /  F ield         | OpenFOAM: The Open Source CFD Toolbox           |
|  \\    /   O peration     | Version:  v2012                                 |
|   \\  /    A nd           | Website:  www.openfoam.com                      |
|    \\/     M anipulation  |                                                 |
\*---------------------------------------------------------------------------*/
FoamFile
{
    version     2.0;
    format      ascii;
    class       volScalarField;
    location    "650";
    object      k_0;
}
// * * * * * * * * * * * * * * * * * * * * * * * * * * * * * * * * * * * * * //

dimensions      [0 2 -2 0 0 0 0];


internalField   nonuniform List<scalar> 
13917
(
0.0176206
0.000179992
0.000237185
0.000151488
0.000163924
0.000180018
0.000161502
0.000204751
0.000158907
0.00193077
0.000201841
0.000149406
0.000166752
0.0219369
0.000166076
0.0144467
0.00015094
0.000192263
0.000198749
0.0137051
0.000170206
0.000148799
0.00017861
0.000148805
0.000155149
0.000171809
0.00510251
0.00116319
0.000178946
0.000137385
0.00131382
0.000187608
0.000151772
0.0298442
0.000145647
0.000225638
0.00015743
0.000160523
0.000161579
0.00017571
0.000150922
0.000145883
0.000156033
0.000198295
0.000197998
0.000152229
0.000168881
0.0181237
0.000391078
0.000145748
0.000149179
0.000199471
0.00844036
0.000148985
0.00014951
0.000199018
0.000233595
0.000178563
0.000145535
0.000135228
0.0191669
0.000184664
0.000145017
0.000154608
0.027984
0.00027233
0.000182012
0.000227721
0.000197292
0.0175497
0.0148004
0.0276854
0.000148726
0.000144536
0.000171329
0.000156514
0.000156434
0.000144191
0.00015596
0.000152063
0.000151787
0.000151147
0.000148572
0.0155014
0.000142098
0.00020236
0.000186734
0.000146074
0.000175118
0.00015099
0.000141007
0.000156377
0.000403058
0.000143631
0.000151873
0.000181105
0.00693474
0.000152106
0.000145211
0.000228998
0.000148807
0.000147704
0.000152055
0.000145967
0.000156289
0.0192956
0.0245096
0.000185743
0.000147346
0.0148099
0.00014507
0.0307846
0.000178264
0.018401
0.0272946
0.000157511
0.000197395
0.000143488
0.000213453
0.000147597
0.000150977
0.000142872
0.000184488
0.000194501
0.0201666
0.0200072
0.000154079
0.000172749
0.000144136
0.000194791
0.000168105
0.000215179
0.0439316
0.000157453
0.000191319
0.0226962
0.0197707
0.0220752
0.000173408
0.000160037
0.014071
0.000143397
0.0182028
0.000143992
0.000148008
0.000162054
0.0141986
0.00405534
0.0166325
0.000149282
0.00017245
0.000146832
0.000147728
0.000147648
0.0160148
0.00015157
0.000145443
0.0451654
0.000149326
0.00014546
0.000142394
0.0310959
0.00016167
0.0136312
0.0241382
0.000276876
0.00746657
0.0216529
0.000131413
0.000174754
0.000149445
0.0414641
0.000158781
0.021603
0.000190215
0.000148192
0.000151463
0.000201347
0.000167343
0.000162589
0.000155848
0.000148992
0.000149195
0.000219559
0.000213385
0.000222982
0.000148985
0.00022535
0.00013737
0.000234444
0.000190705
0.000196271
0.000202142
0.0175269
0.000143663
0.020418
0.000160624
0.043089
0.000145368
0.00015074
0.000166569
0.0172412
0.0189639
0.000156504
0.00204137
0.0001727
0.000173088
0.000143382
0.000200911
0.000151774
0.000140983
0.000177589
0.000180555
0.017612
0.000190694
0.000173082
0.0333229
0.000154567
0.000137512
0.000137439
0.0210197
0.000206058
0.000140603
0.000143572
0.000145581
0.0320863
0.0174465
0.000136694
0.000136541
0.000150749
0.00013783
0.000137769
0.02597
0.0187617
0.000149879
0.000131767
0.000190688
0.026287
0.000150284
0.000143544
0.00384306
0.0196922
0.000218357
0.0335166
0.000197591
0.000144051
0.0219108
0.000191717
0.000176668
0.000190437
0.000155861
0.0180993
0.000147847
0.000177842
0.000188116
0.000150343
0.000150824
0.000154512
0.000164082
0.000145702
0.0264024
0.00497635
0.000142961
0.000136428
0.000152066
0.000136458
0.000147863
0.000167241
0.000172993
0.00014346
0.0265813
0.0261302
0.000147017
0.000158485
6.20485e-05
0.000137211
0.000211218
0.0296643
0.000137264
0.0215929
0.000145153
0.0305527
0.000148639
0.000162592
0.000150674
0.000143733
0.000204175
0.000154737
0.00020583
0.000164535
0.00638189
0.000164653
0.000197678
0.0218571
0.000146173
0.000182246
0.000163861
0.00015821
0.000163667
0.000155788
0.000144069
0.000152997
0.000201605
0.000122411
0.000176845
0.00015538
0.000143426
0.0447147
0.0146433
0.000143428
0.000169996
0.00015826
0.000389233
0.00020308
0.0277231
0.022805
0.000248805
0.000219652
0.000157965
0.0122624
0.000552346
0.00023407
0.00016587
0.00016526
0.00208258
0.000150498
0.000182959
0.000195949
0.000150439
0.0410191
0.000142495
0.000174974
0.000140025
0.00624924
0.000139587
0.000174879
0.000173218
0.000213787
0.000149856
0.000190478
0.0138841
0.000151416
0.00015049
0.03293
0.0152956
0.0253158
0.0175336
0.00013689
0.000149788
0.0215014
0.000217608
0.000136988
0.000164088
0.000149042
0.000185809
0.000175659
0.000198205
0.000198628
0.000211428
0.000174804
0.0255207
0.000144477
0.000151433
0.000166603
0.00021266
0.00015045
0.0155179
0.000174535
0.0029722
0.000149793
0.000204536
0.000167247
0.000235498
0.000146324
0.000141733
0.000263075
0.000174958
0.000147358
0.00241836
0.000141346
0.0234313
0.000203385
0.00014664
0.000325753
0.000151994
0.000720138
0.000139859
0.0152195
0.00066076
0.000156182
0.0321689
0.000203567
0.000154806
0.0286165
0.000237534
0.000155024
0.000204375
0.000149317
0.000205667
0.000236084
0.000142712
0.000160381
0.000155255
0.000143408
0.00014063
0.000144912
0.0191058
0.000269728
0.000150563
0.000145344
0.000147901
0.000181872
0.000248272
0.000138392
0.000131547
0.000202494
0.000205602
0.000144096
0.000155773
0.0241435
0.0375496
0.000851576
0.000199965
0.00648832
0.000141279
0.000137905
0.000167321
0.000140524
0.000138429
0.000150219
0.000137977
0.000140929
0.0212642
0.000149637
0.000178121
0.0287802
0.000182166
0.000141224
0.000147468
0.0292725
0.000166789
0.0173301
0.000139461
0.000143853
0.000141959
0.000138162
0.000157076
0.000152548
0.0232678
0.000121237
0.0217746
0.000143819
0.000170812
0.000103932
0.000151389
0.00019649
0.0254851
0.000148805
0.0344047
0.000141574
0.000143959
0.000147547
0.000152081
0.00014049
0.000150792
0.0444889
0.0203866
0.000140279
0.000195256
0.000201856
0.000148457
0.000184266
0.000189365
0.0281546
0.000161552
0.019789
0.0020696
0.00208242
0.000152616
0.000241231
8.04053e-05
0.000155406
0.0127148
0.000142454
0.000148628
0.000151884
0.000159679
0.000169952
0.000207998
0.000182552
0.00015779
0.000160574
0.000189924
0.000186184
0.000150568
0.0222331
0.00017222
0.000164483
0.0233217
0.00014216
0.000187235
0.000203443
0.000139846
0.0438988
0.000144802
0.000138148
0.000182679
0.000139492
0.000152787
0.000201751
0.0476205
0.0373546
0.000142289
0.00015212
0.000151908
0.00862206
0.00645589
0.000150014
0.000149286
0.000142042
0.000186076
0.00181212
0.000144628
0.00015027
0.00015032
0.000143092
0.000158947
0.00016445
0.000144508
0.000182977
0.000139863
0.000148187
0.000154878
0.0282392
0.000136757
0.000155772
0.000145725
0.000169878
0.000187848
0.000186233
0.000189147
0.000238611
0.000154193
0.000186171
0.0416031
0.0210424
0.0323819
0.000142745
0.000147211
0.000162146
0.000145366
0.0284244
0.000137649
0.00233627
0.000160549
0.0341286
0.000217472
0.000156097
0.00950225
0.000140234
0.000185813
0.000151991
0.000149916
0.0367695
0.000138923
0.000227679
0.000147072
0.00015552
0.000147568
0.000206302
0.000160014
0.000135991
0.000198714
0.000183697
0.00576594
0.00924623
0.0453943
0.0270243
0.000136815
0.0180631
0.000141343
0.0196881
0.0045259
0.000152236
0.000168953
0.000148337
0.000171801
0.000155318
0.00013896
0.000151888
0.000165306
0.00525455
0.000142827
0.000185142
0.000148326
0.00013586
0.000149268
0.000219782
0.0221822
0.00859991
0.000189129
0.00016416
0.000593627
0.0276573
0.000140219
0.0203592
0.000163566
0.000196713
0.000145364
0.00208714
0.000142839
0.000160751
0.000148271
0.00487159
0.000173068
0.0310837
0.000144933
0.000171853
0.000145704
0.000148973
0.0267383
0.00027692
0.000146592
0.000199589
0.000143425
0.000147992
0.000147779
0.02914
0.00014284
0.000164427
0.000137606
0.000146126
0.000212815
0.000147007
0.000198212
0.000151733
0.000139692
0.0186856
0.000185843
0.000149652
0.00934578
0.000224817
0.000246849
0.000203269
0.000140044
0.000167815
0.0260479
0.000236885
0.000166261
0.00015739
0.000161542
0.000151265
0.000144837
0.000596796
0.000189547
0.000159101
0.0219388
0.000173492
0.000256806
0.00915537
0.000157304
0.000173119
0.000201661
0.0233135
0.000144105
0.000196044
0.000815888
0.000139774
0.000145963
0.000149398
0.000154513
0.000153432
0.0183384
0.000169797
0.000143056
0.000194413
0.000144016
0.0294427
0.000145122
0.000144134
0.0468655
0.000186375
0.00300292
0.000149194
0.000142406
0.000143904
0.000150881
0.000163741
0.000143741
0.0194304
0.000167234
0.0056105
0.0032712
0.000197244
0.0455574
0.000152188
0.000151346
0.000146016
0.0311956
0.0365928
0.000161306
0.0195847
0.000984391
0.000139694
0.000143772
0.000157219
0.0172572
0.00229645
0.000173446
0.000150732
0.000155797
0.000197507
0.000156437
0.000197934
0.000170065
0.000151569
0.000152189
0.000150795
0.000163593
0.00016105
0.000235358
0.000159054
0.000161436
0.0191859
0.000140655
0.00111924
0.000156674
0.000173076
0.00016018
0.000233271
0.000151024
0.000184272
0.0202298
0.00274694
0.000145608
0.000159048
0.000157751
0.000144186
0.000148026
0.000172711
0.000102732
0.000223462
0.000198424
0.000139803
0.000171947
0.000158824
0.000159786
0.000200082
0.000150205
0.000185829
5.5016e-05
0.000135945
0.000186274
0.00019411
0.000169745
0.000142826
0.000140744
0.000144793
0.0152213
0.000151587
0.000145917
0.000174577
0.000144076
0.000141843
0.000198293
0.000267361
0.000186331
0.0379717
0.000183176
0.0229328
0.000148016
0.00015732
1.53235e-05
0.000152186
0.000219992
0.000149469
0.000145354
0.000149138
0.000160001
0.000188727
0.000142803
0.00174567
0.000149443
0.00389827
0.000156701
0.000161366
0.000140044
0.000190676
0.000163424
0.0292146
0.000190517
0.000151995
0.0275823
0.000152562
0.0247329
0.000154787
0.000250798
0.000155072
0.000142056
0.000145338
0.0393472
0.000163527
0.000250177
0.0368717
0.000144069
0.000170104
0.000131587
0.000171113
0.00162028
0.000132037
0.0218709
0.0001559
0.000256345
0.000196735
0.000277901
0.000137405
0.000145751
0.000200146
0.000139995
0.000148717
0.000154384
0.000146863
0.000174764
0.000137263
0.000237842
0.000151579
0.0168829
0.0245441
0.000373345
0.0237573
0.0372634
0.0150866
0.000343139
0.000139217
0.000147295
0.000147236
0.000152646
0.000142135
0.000163735
0.00014364
0.000237369
0.000149016
0.00098462
0.000151245
0.000165935
0.000198191
0.000143191
0.000177984
0.000152573
0.000151315
0.000160509
0.000141328
0.0471789
0.000190983
0.0015864
0.000143432
0.000145074
0.000149809
0.000149927
0.0241932
0.000139408
0.000271222
0.000142586
0.00253368
0.000161736
0.000143883
0.000185093
0.000185695
0.00013953
0.00350878
0.0174343
0.000157571
0.000190666
0.00013991
0.000236927
0.000142246
0.000149896
0.0228101
0.000148025
0.000151787
0.000193982
0.0213342
0.000143688
0.000431457
0.00133522
0.000146827
0.00015346
0.00014723
0.00432417
0.000144794
0.000200274
0.000148651
0.0448184
0.000162783
0.0157433
0.000145345
0.000137541
0.000990938
0.000157094
0.000140706
0.0391889
0.000154257
0.000140654
0.00156406
0.00014687
0.000147243
0.000189199
0.000154673
0.0296751
0.000176225
0.000189345
0.000201785
0.000155649
0.0432791
0.000152476
0.000187693
0.000144247
0.0285947
0.00250947
0.000149483
0.000142516
0.000148301
0.000150017
0.000141737
0.000141314
0.000143323
0.000145108
0.000165155
0.000135948
0.000153729
0.000189135
0.0236926
0.0300852
0.000192489
0.000149837
0.0012069
0.000143035
8.21276e-05
0.00161302
0.00691961
0.000137937
0.000139312
0.000146758
0.000148211
0.0001377
0.000141937
0.000143481
0.000174072
0.000140719
0.00960685
0.000899364
0.000141297
0.0383415
0.000144374
0.000144969
0.000180934
0.0300285
0.000189061
0.000146944
0.00270814
0.00014465
0.000144977
9.87347e-05
0.00014793
0.0273645
0.000152105
0.000378722
0.000141255
0.00014312
0.0001671
0.000251158
0.000153913
0.0302531
0.00018458
0.000157722
0.000154036
0.000145155
0.000140519
0.000194566
0.000168954
0.000158737
0.0338747
0.0120779
0.000241494
0.000195883
0.000142967
0.0334464
0.000142822
0.0233783
0.000186936
0.00016051
0.000153343
0.0207979
0.0366099
0.00375392
0.000146321
0.00247677
0.000141879
0.000143662
0.000169957
0.000151257
0.000148412
0.000115888
0.0211075
0.000143145
0.000161482
0.026139
0.000146445
0.000136944
0.00353563
0.031442
0.000152232
0.000141893
0.000160952
0.000147239
0.000144609
0.000172517
0.000160908
0.000146887
0.00520928
0.000147057
0.000982517
0.00115687
0.000180177
0.0288561
0.000149367
0.000151022
0.000264404
0.0209783
0.000528971
0.000174507
0.000168212
0.000150091
0.000152247
0.000143298
0.0291887
0.000169557
0.000151179
0.000181834
0.000143628
0.0027552
0.000190044
0.000200252
0.000183825
4.69945e-05
0.00246757
0.0213403
0.0385479
0.000160298
0.000140799
0.000137156
0.000185388
0.00019145
0.00295541
0.000157793
0.000149987
0.000159594
0.000237396
0.000154702
0.0271021
0.000171177
0.000195218
0.0247583
0.000145063
0.000196508
0.000155541
0.000148555
0.000163376
0.00062541
0.000138673
0.000139342
0.000153459
0.00962954
0.000140707
0.000154361
0.000155232
0.000152434
0.000147638
0.000197602
0.000187527
0.000151156
0.000143076
0.00021433
0.000222746
0.000176367
0.0441899
0.000149607
0.000144643
0.0378419
0.000145943
0.000154959
0.038744
0.0304152
0.00016394
0.000185626
0.000161758
0.0155129
0.000270705
0.000168779
0.0111918
0.00014425
0.000191344
0.0254029
0.000215439
0.00264866
0.00237769
0.000140765
0.000147868
0.000166244
0.000147861
0.000148485
0.000237582
0.000148349
0.000178277
0.000137504
0.000182898
0.0294064
0.000154832
0.0101976
0.0358973
0.00014474
0.000189825
0.000161809
0.000153852
0.000144294
0.0331715
0.000188563
0.0230413
0.000162878
0.0208818
0.000195212
0.000142511
0.000497087
0.000171265
0.000148593
0.000144143
0.000146578
0.000144329
0.000159911
0.000171581
0.000160466
0.000150231
0.000182711
0.0120114
0.000142532
0.000223205
0.000335624
0.000148742
0.000142815
0.000167724
0.00456801
0.000103275
0.000141402
0.000165008
0.000156299
0.00028798
0.0188402
0.000147993
0.000140694
0.000140712
0.000145185
0.000167908
0.000156813
0.00491947
0.00015036
0.000157035
0.000541903
0.000178032
0.000192136
0.0319356
0.0207757
0.000149318
0.000145992
0.000140292
0.000153381
0.000187641
0.0456623
0.00157047
0.000199277
0.000166022
0.000180331
0.000155094
0.0001251
0.000159433
0.000197874
0.000143697
0.000240053
0.000147736
0.000140447
0.000148966
0.0355093
0.000180805
0.000381711
0.0232058
0.000201804
0.000143895
1.33228e-05
0.000161047
0.000142746
0.0237304
0.00625166
0.00014378
0.000163701
0.000196371
0.000170269
0.000151659
0.00013714
0.000142989
0.000140966
0.000144012
0.000165614
0.000183682
0.0237786
0.000170954
0.000159807
0.000166758
0.000194234
0.000142736
0.000170009
0.000165742
0.000233414
0.0248177
0.000154027
0.00013704
0.0300123
0.000141595
0.000516085
0.000153759
0.000178254
0.00015025
0.000142004
8.41911e-05
0.000160745
0.000153731
0.000144947
0.0215919
5.45549e-05
0.0274422
0.000148792
0.000147752
0.000341654
0.000145718
0.000141428
0.000207334
0.00440115
0.000161891
0.000169262
0.000151395
0.00780218
0.000142917
0.000156574
0.000150205
0.000136873
0.000229774
0.000142967
0.000140731
9.8487e-05
0.00018376
0.0164402
0.000225809
0.000142378
0.000165617
0.000141866
0.000143551
0.0001543
0.000152958
0.000148481
0.000215235
0.000147874
0.000189418
0.00016168
0.000204423
0.000147491
0.000149607
0.000144469
0.034171
0.00013851
0.000255643
0.00018793
0.000155711
0.000181276
0.000169089
0.000165981
0.000147613
0.000172242
0.000141187
0.000140446
0.00322702
0.000175447
0.000166632
0.000145266
0.000145042
0.000143474
0.000190945
0.000143569
0.0330515
0.000178858
0.000143473
0.000143212
0.000139045
0.00017881
0.000416021
0.0371272
0.000210657
0.00274341
0.000203258
0.000196575
0.000156725
0.0268759
0.000137476
0.000138149
0.000158564
0.00253902
0.000139286
0.0339803
0.000148249
0.000146013
0.000207221
0.000133219
0.0161861
0.00207032
0.000159777
0.00021846
0.000478013
0.000141077
0.0276052
0.000144443
0.000148158
0.00493059
0.000138322
0.0351069
0.000740266
0.00014237
0.000145344
0.000141281
0.0439861
0.000150164
0.000137137
0.000189796
0.000142447
0.000141559
0.000144042
0.000141224
0.000177495
0.000148767
0.000156184
0.000138878
9.36661e-05
0.000230863
0.000139038
0.000139116
0.000152007
0.000143107
0.000155947
0.00014921
0.000144635
0.000148933
0.00014469
0.00015288
0.000146931
0.000186098
0.000139045
0.000190827
0.000148285
0.000184425
0.000141067
0.000148309
0.000143705
0.00013879
0.000172674
0.000161746
0.000158179
0.0192189
0.000231735
0.0442456
0.0321997
0.000190873
0.0255094
0.000148089
0.000146594
0.000342257
0.0232781
0.000143889
0.027345
0.000139847
0.000200832
0.0011598
0.000155716
0.000191329
0.0272406
0.0320377
0.000145798
0.000178531
0.000141494
0.000404928
0.000156805
0.0382592
0.0148774
0.000149124
0.000225041
0.000168583
0.000151574
0.00712256
0.00294831
0.000154843
0.000140716
0.00165725
0.0307956
0.000141049
0.00016719
0.000150054
0.000191794
0.00020213
0.000147984
0.000141401
0.0014443
0.000143192
0.000144771
0.000150937
0.000139516
0.00169052
0.000166933
0.000163725
0.0348827
0.000144032
0.000186035
0.000148555
0.00163781
0.000184244
8.24341e-05
0.000140753
0.000162377
0.000144871
0.000147975
0.000155507
0.00014727
0.0116065
0.00015336
0.000139953
0.000142612
0.00313884
0.000140603
0.00603088
0.0187481
0.00154064
0.000147364
0.00014206
0.000143073
0.000469045
0.000149688
0.0130341
0.000146426
0.0122977
0.000154513
0.000151335
0.000135534
0.000148422
0.000150825
0.0294752
0.000196908
0.0336329
0.000147409
0.0326401
0.0362929
0.000147906
0.0301847
0.000148938
0.000160209
0.021855
0.000155902
0.000175826
0.0225451
0.00016628
0.000187311
0.000147186
0.00543195
0.000144692
0.00559307
0.000143012
0.0211379
0.000144885
0.000145554
0.000154495
0.00299982
0.00014239
0.000210749
0.000190585
0.0241783
0.00014367
0.000164978
0.0396175
0.000241228
0.00137056
0.000190722
0.000141062
0.000196824
0.00832537
0.000157223
0.0016137
0.000137872
0.000201601
0.0165756
0.000142842
0.018978
0.000143233
0.0283299
0.00125214
0.000156319
0.000154854
0.00450654
0.00174368
0.000144704
0.000153506
0.000139706
0.000148121
0.0219092
0.000187737
0.000174722
0.000147908
0.000162639
0.0358935
0.000159945
0.000377691
0.00353895
0.00014208
0.00014412
0.000213999
0.0232424
0.00670912
0.000820108
0.000217082
0.000174484
0.000239966
0.0369104
0.0263452
0.002546
0.000140718
0.000191048
0.000178239
0.000190592
0.000146399
0.000159703
0.000186321
0.000245059
0.00122409
0.000147315
0.000988082
0.0337147
0.000174959
0.000144398
0.000144508
0.000249566
0.000142489
0.0455492
0.000163569
0.000148513
0.000227794
0.000309344
0.000138936
0.000171765
0.000165033
0.000146693
0.0420181
0.000162368
0.0460603
0.000142809
0.0314229
6.13148e-05
0.000214436
0.000138839
0.000161146
0.000166922
0.000259462
0.000200174
0.000187359
0.0225704
0.00158023
0.000132702
0.000159994
0.000149226
0.000198733
0.0174131
0.000143332
0.000138734
0.00015343
8.06853e-05
0.000209392
0.000143195
0.000182835
0.000228296
0.000140621
0.000268464
0.000156942
0.0452171
0.000163373
0.00529545
0.0148876
0.000163446
0.000158268
0.00114595
0.000142771
0.00017649
0.0253491
0.000167352
0.000203773
0.000166324
0.000183638
0.0221133
0.0314818
0.000146947
0.0140503
0.000924072
0.000138346
0.000202647
0.000187256
0.000202376
0.00894143
0.000150044
0.000648583
0.000197116
0.0262772
0.000161823
0.000186422
0.00014123
0.000149
0.000147429
0.000140989
0.000110971
0.00024953
0.000138645
0.000183023
0.000209385
0.000142595
0.00333375
0.030399
0.000137546
0.000149391
0.000142049
0.000153008
0.000177041
0.000144679
0.0216609
0.000164816
0.000188913
0.000161047
0.000189826
0.000225837
0.000172029
0.000486416
0.000146738
0.00015344
0.000138331
0.000142332
0.0384387
0.000195039
0.000164315
0.01981
0.000148346
0.000150862
0.000168202
0.000140147
0.000143315
0.000194958
0.000159142
0.0256777
0.0180085
0.0213071
0.000147283
0.0226954
0.000143678
3.15163e-05
0.000138768
0.000202451
0.0205937
0.000145304
0.000110346
0.0259546
0.000167969
0.00015275
0.000144422
0.000163041
0.0233749
0.000139288
0.000149406
0.000153525
0.000161377
0.000213949
0.00015557
0.000159735
0.000141866
0.00015317
0.00128556
0.000170136
0.00015575
0.000198745
0.00024461
0.0385156
0.0190981
0.000159076
0.000152611
0.0251929
0.000146766
0.000186695
0.000147873
0.0220173
0.00014871
0.000149644
0.000168837
0.0300976
0.000144061
0.000140751
0.000137304
0.000205654
0.0109115
0.00019966
0.00014468
0.000156686
0.000140769
0.0347289
0.000145629
0.00380719
0.000183209
0.000148354
0.000204847
0.000172218
0.00247195
0.000150409
0.0001414
0.000166265
0.000174914
0.000208528
0.000148997
0.0001505
0.000148279
0.0319391
0.000146464
0.000152599
0.0304144
0.000154614
0.000178591
0.000157608
0.000143773
0.000144583
0.00655077
0.000154646
0.0269619
0.00312509
0.000135277
0.0308054
0.000150219
0.000196559
0.0001818
0.000153798
0.000139135
0.000135015
0.000144589
0.00238984
0.000178765
0.0338899
0.0287563
0.000141397
0.000126352
0.000174361
0.00102595
0.00014492
0.00546556
0.0330889
0.0167953
0.000144048
0.000153994
0.000150723
0.000297201
0.037851
0.000147854
0.000145282
0.000165938
0.0214811
0.000148523
0.000154189
0.000154399
0.000200285
0.000105369
0.000137567
0.0301494
0.000166778
0.000144279
0.0179067
0.000183124
0.0332281
0.0147781
0.000168033
0.000161021
0.000153554
0.000161951
0.000151287
0.000191939
0.000180191
0.000144667
0.000157247
0.000238593
0.0176634
0.000139121
0.000199159
0.0230006
0.0278456
0.000145323
0.000147386
0.00321057
0.00766314
0.000221469
0.000144121
0.0247726
0.000186569
0.000136184
0.0233673
0.000162405
0.000149035
0.000152724
0.000146854
0.000184097
0.000141728
0.000133674
0.000147743
0.000137279
0.0280653
0.000138471
0.000142447
0.000190299
0.000157925
0.00015819
0.000201649
0.000147704
0.000144756
0.000154053
0.000152581
0.00279116
0.00275125
6.26333e-06
0.0152189
0.000176134
0.00328379
0.000195237
0.0326083
0.022692
0.0288203
0.000141057
0.000166628
0.000145116
0.000147926
0.000142791
0.000148874
0.000214146
0.000183982
0.000172758
0.000142373
0.00014415
0.000182361
0.000149357
0.000150224
0.000147776
0.0371696
0.000167358
0.0137898
0.000147042
0.00326564
0.000150811
0.000149232
0.00015093
0.000175896
0.000142333
0.00019248
0.0306695
0.000176462
0.0287636
0.00609959
0.000156229
0.000162554
0.00140971
0.000198781
0.000139676
0.000142434
0.00013528
0.0288469
0.000133688
0.000220171
0.000209552
0.000190735
0.012083
0.00315329
0.00018639
0.0433683
0.000141246
0.000137115
0.000551802
0.00936653
0.000146056
0.000147167
0.00785037
0.000140818
0.000220198
0.000156044
0.00014546
0.000159558
0.000146548
0.000189086
0.029716
0.0270465
0.000157913
0.00014639
0.000196853
0.000152964
0.000192917
0.000140814
0.000203372
0.000194031
0.000150203
0.000148683
0.000135795
0.000206147
0.000220692
0.000216599
0.00247186
0.000165636
0.0137321
0.000189396
0.000198922
0.0257228
0.000143871
0.0296779
0.000152163
0.0369923
0.000100646
0.0286245
0.0249756
0.00015167
0.000183563
0.000602233
0.000146964
0.0223817
0.00014736
0.000146729
0.000159681
0.000151029
0.000165898
0.000175525
0.00145738
0.0212813
0.000159969
0.000175197
0.000153044
0.000148944
0.00014824
0.00020248
0.000192753
0.0230337
0.000179267
0.000138986
0.000139748
0.000150489
0.000235773
0.00015731
0.000151597
0.000158745
0.000204422
0.000166787
0.000174648
0.000181607
0.031263
0.000165074
0.000168125
0.000144935
0.000159793
0.00020537
0.00147863
0.00017899
0.000140147
0.0198181
0.00016875
0.000143757
0.000180195
0.0333179
0.00506758
0.000168821
0.000140927
0.0261865
0.000150526
0.00014069
0.000139353
0.00520634
0.00159403
0.000156209
0.00838023
0.0202316
0.000168135
0.0001817
0.000186206
0.0461076
0.00016668
0.0369697
0.000150646
0.000615885
0.000164646
0.0366963
0.000169082
0.000141647
0.0366855
0.000146483
0.00015227
0.0309579
0.0114243
0.000227295
0.000202637
0.000156857
0.000153099
0.00496376
0.000143737
0.000142565
0.000146864
0.000178697
0.000144741
0.000169196
0.000167884
0.00539077
0.0022854
0.000151313
0.0230096
0.000166812
0.0344945
0.0290972
0.000146705
0.000149124
0.000158895
0.000498974
0.000213632
0.00018766
0.0326266
0.0292499
0.00248862
0.000150711
0.0080895
0.023159
0.000204514
0.000628531
0.000148455
0.000146107
0.000146807
0.000152736
0.000143336
0.000168457
0.0276611
0.00017027
0.00329122
0.0192447
0.00637005
0.0220032
0.0387175
0.0001653
0.0404869
0.00019657
0.000189654
0.000138598
0.000147336
0.000187584
0.0253498
0.00015199
0.0273536
0.0377567
0.000141632
0.00014769
0.000146608
0.000199314
0.000150963
0.000189423
0.029773
0.0001389
0.000143873
0.000141268
0.000151822
0.000196003
0.0295828
0.000170753
0.0122519
0.000198969
0.00014275
0.00296072
0.000205982
0.000150487
7.2447e-05
0.00138517
0.0228387
0.00135792
0.026876
0.000146479
0.006167
0.0313457
0.000204617
0.0141178
0.000142697
0.000155091
0.000156437
0.000154714
0.022706
0.000187631
0.00014896
0.00016218
0.00376371
0.0314641
0.000150271
0.000150739
0.0457342
0.038102
0.000148801
0.00016325
0.000197333
0.000143607
0.000144199
0.0185101
0.000142545
0.000236703
0.00315888
0.0251218
0.000142124
0.000195009
0.000202365
0.000143403
0.000137115
0.0246671
0.00805174
0.000149432
0.000172569
0.000205286
0.000225905
0.0413892
0.00599778
0.000159851
0.00264062
0.00245357
0.000170847
0.000141861
0.000202748
0.000136891
0.000138191
0.0254492
0.000173467
0.000195253
0.000157135
0.000162645
0.000142494
0.000137886
0.000151111
0.000151984
0.0160895
0.000156658
0.00116049
0.0198246
0.000178638
0.000188746
0.0239529
0.0341076
0.0179078
0.000141722
0.000157947
0.000171456
0.000159403
0.000218177
0.00375955
0.000150985
0.00174964
0.0310748
0.000161304
0.000194145
0.000189807
0.00019619
0.00019827
0.000153292
0.000200805
0.000203152
0.000205813
0.000208608
0.000199388
0.00019173
0.000160997
0.000141784
0.000168547
0.000193842
0.0001424
0.000318528
0.0427854
0.000227016
0.0354727
0.000136656
0.000140226
0.000763716
0.0171618
0.000151671
0.00015667
0.000185752
0.0178385
0.0154869
0.000147314
0.000168184
0.000158794
0.0110218
0.00356302
0.00015634
3.83144e-05
0.0314282
0.000195872
0.03696
0.000195191
0.00550588
0.0420431
0.000131326
0.0395115
0.0350358
0.000152804
0.000189779
0.000197694
0.000160185
0.000141707
0.000854962
0.00190226
0.00014198
0.000142294
0.0223876
8.03459e-05
0.000192842
0.000149374
0.000234755
0.000199854
0.0377015
0.0291082
0.000147356
0.000143931
0.000151466
0.000156792
0.0340983
0.0021151
0.0319671
0.000192355
0.000116042
0.00209489
0.000157113
0.000141545
0.0314586
0.000142328
0.0383665
0.000144986
0.0380074
0.000152604
0.000152303
0.00308496
0.000146069
0.000198311
0.00623809
0.000166345
0.000155851
0.000153043
0.000212667
0.0262505
0.000204788
0.0361803
0.000163229
0.000154827
0.000162489
0.000191823
0.0437029
0.0196748
0.000198025
0.000227098
0.000200656
0.0100196
0.000140372
0.00014208
0.000139066
0.000138614
0.000135901
0.000193128
0.00491229
0.000176274
0.000204958
0.000143367
0.00282053
0.00189635
0.00979965
0.000144563
0.000153593
0.000133915
0.0336024
0.000168882
0.0044318
0.000161091
0.000199895
0.000153561
0.000135533
0.000172233
0.000204912
0.000120487
3.65587e-05
0.000146143
0.000202341
0.000150537
0.000148099
0.000206765
0.0182271
0.000999434
0.000149421
0.000195563
0.000227856
0.0219751
0.0200997
0.0316321
0.0265597
0.000143062
0.00018593
0.000147466
0.00020353
0.000144182
0.000200609
0.000154378
0.000180749
0.00296535
0.00563271
0.000159822
0.000215493
0.035065
0.000200643
0.000155536
0.0339274
0.000198428
0.000152438
0.000149712
0.0239165
0.000164258
0.00020291
5.66072e-05
0.00548154
0.0209699
0.000156885
0.0236799
0.0303735
0.00942391
0.000201565
0.00016737
0.000197493
0.000195141
0.0289164
0.000224167
0.000151174
0.000694895
0.000207659
6.43995e-05
0.000162834
0.0221066
5.80097e-05
0.00178755
0.000159843
0.00205356
0.000157038
0.0269499
0.000204991
0.0034578
0.0167001
0.000140656
0.000133936
0.0301938
0.0381259
0.00018063
0.000150818
0.000177445
0.000168797
0.019985
0.000201665
0.0349748
0.000160407
0.034813
0.000202219
0.000731178
0.000150967
0.000169626
0.021382
0.000161414
0.000192762
0.000136167
0.000157073
0.000147911
0.00254101
0.000143614
0.000147433
0.0410406
0.00876082
0.000138469
0.0412931
0.000152001
0.000147305
0.000143922
0.000142161
0.000149067
9.561e-05
0.0422739
0.000139264
0.0168139
0.000187767
0.00017941
0.00168671
0.000193038
0.000159565
0.000167075
0.000143108
0.0024286
0.000167321
0.042229
0.000169268
0.0176386
0.000523739
0.000189364
0.00275233
0.0345401
0.000139506
0.0251293
0.000184204
0.000187155
0.000180315
0.00014409
0.000207989
0.000215526
0.000147337
0.000213417
0.00014396
0.0270344
0.000205157
0.0200426
0.000211616
0.000210098
0.0400126
0.000148099
0.000144171
0.000185967
0.000154044
0.000149061
0.000149276
0.000162274
0.000143048
0.000142684
0.000153233
0.000177033
0.00015484
0.000162401
0.000156237
0.000179557
0.000197058
0.000155702
0.0297323
0.000154998
0.000143499
0.000194934
0.000175732
0.000157468
0.000143048
0.012918
0.000154567
0.0301119
0.000155153
0.000198413
0.000143582
0.000146563
0.000216333
0.044114
0.000188842
0.000170387
0.000135695
0.0381378
0.000148179
0.000142427
0.000190736
0.000156237
0.000201898
0.035083
0.000195453
0.000298948
0.000177064
0.0211303
0.000147352
0.000148343
0.000188333
0.0028927
0.000184891
0.000196412
0.0239017
0.000162672
0.000147761
0.000162894
0.000234235
0.000183607
0.000147592
0.000197033
0.000196232
0.000187104
0.000148944
0.000147632
0.000217842
0.000187007
0.00201574
0.00224991
0.000156108
0.000188967
0.000148871
0.000177255
0.00677241
0.000149132
0.000205766
0.000571552
0.000193235
0.000398997
0.000146777
0.000146347
0.00014287
0.0394646
0.00022488
0.000155607
0.000213406
0.000199152
0.000148642
0.000146773
0.000237358
0.0404814
0.000221842
0.0338068
0.000217645
0.000165685
6.86754e-05
0.000201465
0.000165597
0.0105326
0.000193902
0.0118973
0.0001471
0.000196382