/*--------------------------------*- C++ -*----------------------------------*\
| =========                 |                                                 |
| \\      /  F ield         | OpenFOAM: The Open Source CFD Toolbox           |
|  \\    /   O peration     | Version:  v2012                                 |
|   \\  /    A nd           | Website:  www.openfoam.com                      |
|    \\/     M anipulation  |                                                 |
\*---------------------------------------------------------------------------*/
FoamFile
{
    version     2.0;
    format      ascii;
    class       surfaceScalarField;
    location    "700";
    object      meshPhi;
}
// * * * * * * * * * * * * * * * * * * * * * * * * * * * * * * * * * * * * * //

dimensions      [0 3 -1 0 0 0 0];
oriented        oriented;


internalField   nonuniform List<scalar> 
20673
(
-0.000201285
-0.000127028
0.000328166
0.00021846
0.000270289
-0.000490966
-0.00016316
5.13106e-05
0.000111849
-0.000503343
-4.57076e-05
0.000547559
0.000600073
-0.000618659
1.57388e-05
0.000139212
-0.000144052
4.8396e-06
-0.000113446
-4.2166e-05
0.000155611
0.000137176
-0.000110231
-2.69456e-05
0.000130984
-2.34978e-05
-0.000107487
0.000257642
-5.36087e-05
-0.000204091
0.000185448
8.39678e-06
-0.000193858
0.000258942
-0.000271159
1.215e-05
-0.000368586
-7.5486e-05
0.000119506
-4.40196e-05
0.000282673
-0.000477661
0.000194605
-0.000195815
-0.000246758
0.000441989
-0.000602533
0.000195417
0.00040533
0.000274849
-1.27744e-05
-0.000262159
-5.71661e-05
0.000316032
-0.000365237
0.000371621
-1.80335e-05
-0.000101594
2.69246e-06
9.73262e-05
1.20749e-05
-0.000125521
2.33419e-05
-0.000443931
0.000413109
6.7543e-05
6.96325e-05
0.000659196
-0.000618787
-4.40468e-05
0.00015642
-9.27156e-05
-6.37051e-05
0.000113848
0.000145979
-0.000259833
-4.25278e-05
0.00018052
-0.000138
-8.10964e-05
0.000159226
-7.81312e-05
-1.71799e-05
0.000213429
-0.000196281
-0.0001545
-0.000160244
0.000314612
-0.000221437
-0.000164582
0.000385637
0.000247149
4.83592e-05
-0.00029554
9.52576e-05
-0.000393042
0.000297783
-0.000258582
-0.000357895
0.000614547
9.97522e-05
4.29116e-05
-0.000142667
-0.000383987
0.000399952
0.00012579
-9.92278e-05
-2.65624e-05
0.000401592
-0.0005042
9.47831e-05
-0.000100513
5.72955e-06
-5.59348e-05
-5.58698e-05
7.28765e-05
-4.43987e-06
-3.33589e-05
3.66909e-05
-0.000434199
-9.12183e-05
0.000500165
-0.000219797
0.000203505
1.62862e-05
0.000446459
-0.000588994
0.000139533
0.000394057
-0.000369663
-2.44264e-05
-5.72343e-05
0.000331985
-0.000299777
0.000171878
0.000127842
-0.000118374
0.00010405
1.43241e-05
7.82761e-06
6.6442e-05
-0.000100309
0.000474586
-0.00019721
-0.000277848
0.000381564
-0.000563398
0.000181464
-0.000129082
1.07075e-05
0.000371183
-0.000275933
-0.000467281
-0.000136999
0.00024925
0.000146268
-0.00039603
-5.08828e-05
0.000236315
-0.000583146
-0.000138655
0.000718868
0.000510177
-0.000419141
-9.18861e-05
-9.10542e-05
0.000534563
0.000151473
-0.000137247
-1.42274e-05
0.000606105
-0.000390144
2.91735e-05
-0.000413363
3.68547e-05
0.000156792
-1.75799e-05
4.2646e-05
9.84451e-05
-0.000141093
-3.60672e-05
0.000593422
0.000569614
6.14091e-05
0.000144525
2.60351e-05
-0.00017057
0.000259565
4.96933e-05
-0.000309427
6.36771e-06
0.00059131
0.000115959
1.50246e-05
-0.000125423
8.46111e-05
4.08116e-05
0.000678296
-2.32359e-05
-0.000108556
3.5975e-06
0.000104958
-0.000301286
0.000157893
0.000143334
-9.06265e-05
0.000101332
-1.07054e-05
0.000604387
-0.000528835
-7.73674e-05
-0.000120168
-3.96237e-05
0.000159791
-6.41455e-06
-0.000213808
0.000218587
-0.000294303
6.02606e-05
0.00022903
0.000497507
-0.000141304
0.000144508
-3.20452e-06
8.5556e-05
4.02341e-05
0.00014054
-0.00012993
-1.06109e-05
0.000410573
0.000191892
-0.000327824
0.00030927
1.15404e-05
-6.8982e-05
0.000111627
0.000181723
0.000292286
-2.39814e-05
-0.000430917
0.000127076
-9.74752e-05
-2.96011e-05
-9.68624e-05
0.000308199
-0.000211381
-0.000713285
0.00023465
0.000472941
0.000217978
-0.000509166
0.000290472
5.42399e-05
-0.000123223
0.000116842
3.42239e-05
-0.000151066
0.000209784
-2.48819e-05
-0.000184921
0.000144098
-0.000288174
0.000144013
0.00022583
-0.000209856
-1.59911e-05
-0.000121547
-0.000104218
0.000225761
0.000300155
0.000109163
-0.000431031
-0.000186039
0.000331172
-0.000145132
-0.000160748
-5.90554e-05
0.000238641
-0.000487498
0.000247601
-0.000361033
0.000580208
-0.000230177
-6.68571e-05
-7.63326e-05
0.000143189
0.000186948
-0.000166729
-2.02227e-05
-0.00020254
-9.72832e-05
0.000637404
-0.000443926
0.00016235
0.000127446
-0.000289906
0.000132573
-0.000117341
-1.52314e-05
0.000134919
-4.0136e-05
0.000226589
-9.51901e-06
-0.000217107
4.98524e-05
-0.00011671
-8.96431e-05
0.000404905
-0.000315321
-0.000126522
8.14876e-05
4.50342e-05
0.000484303
0.000136564
-0.000627183
-1.0071e-05
-0.000109898
0.000119969
-9.20855e-05
-2.06354e-05
0.000112721
-0.000394044
8.56768e-05
0.000308351
9.29959e-05
-9.83976e-05
-6.01876e-05
0.000204701
-0.000114603
7.29665e-05
4.16364e-05
-0.000239382
0.000196846
4.89325e-05
-0.000103993
2.87542e-05
-0.000305455
0.000522635
0.000551771
-0.000442873
-0.000111734
-3.5534e-05
5.38861e-05
-0.000296533
-7.54005e-05
0.000331669
-2.721e-05
0.000115055
-2.22705e-05
-9.27846e-05
-0.000483654
0.000393927
-0.000544186
-4.76324e-05
-0.000102775
3.90661e-08
-8.4807e-06
0.000136989
-0.000128512
0.000137714
-7.01721e-05
-0.00031497
0.000113541
4.97578e-05
-0.000171307
0.000600251
-6.22744e-06
-0.000316694
-7.73751e-05
-0.000138238
-4.05005e-05
0.000178733
0.000165345
-0.000617873
0.000444081
0.000547824
1.5414e-05
-0.000563741
-6.85562e-07
-0.0001695
0.000170181
0.00055925
1.05388e-05
0.000109766
-0.000163921
5.41533e-05
-0.000106369
0.000167863
-6.14963e-05
0.00059743
-0.000216265
0.00014143
-0.000585245
0.000434504
0.000222414
0.000158522
-0.000381332
0.000264775
-0.000272013
7.15871e-06
-6.11604e-05
-6.53615e-05
0.000317745
-0.000124399
-0.000193386
-0.000306787
0.00030813
-1.43662e-06
-0.000175885
-0.000251984
0.000427359
0.000151589
-3.22706e-05
-0.000119318
-0.000115303
0.000374664
-0.000187451
6.5956e-05
0.000121492
-0.000110575
1.99481e-05
0.000125225
-0.000133709
0.00037643
4.74258e-05
-0.000424102
-0.00020342
0.000297171
-9.37439e-05
-0.000213983
0.000237602
-2.52708e-05
-3.15735e-05
0.000241335
-5.36126e-05
0.000280155
0.000222487
3.32567e-06
-0.000232702
0.000470151
0.000147705
0.000117267
-0.00026504
0.00069025
-0.000584504
-0.000110697
-0.000309977
0.000123939
-0.000156832
-0.000157221
0.000313936
2.52133e-05
-0.000103329
7.81158e-05
0.000160273
-0.000246524
8.62183e-05
0.000604794
-0.000345972
-0.000260195
-7.42384e-05
-9.4007e-05
0.000168244
0.000290677
-0.000252863
-3.7882e-05
-9.35488e-06
0.00012441
-0.000113564
0.000103493
-4.57529e-05
0.000155517
0.000607008
-4.76775e-05
-0.000564194
-0.000266793
0.000169893
-0.000349168
0.000194525
-0.00044478
0.000601761
-0.000373991
3.97656e-05
1.38923e-05
-0.000314182
0.000300121
9.70367e-05
5.93826e-05
0.000194539
-8.13441e-05
-0.000113204
2.13593e-05
0.000130229
0.000204823
0.000103292
-0.000308275
0.000156838
8.37438e-06
-0.000165227
0.000213105
-0.000123811
-8.92978e-05
0.000109723
3.08174e-05
2.36125e-05
0.000139825
-0.000163445
-0.000131519
0.000543203
-0.000419316
-0.000186706
0.000187299
-5.93176e-07
-0.000134546
0.000248386
-2.13703e-05
-2.81171e-05
-0.000352165
-0.000365844
-0.00016965
2.15008e-05
0.000148142
3.0591e-05
8.63705e-05
-0.000116963
0.00049072
-0.000332106
-0.000159246
-6.37091e-05
5.18711e-05
-0.000242572
0.000324881
-8.24032e-05
-4.21514e-05
0.000306839
-4.04819e-05
-8.49409e-05
-0.000110243
-5.09265e-05
0.000161166
0.000317989
-0.000578199
-0.000600661
1.5012e-05
0.000307241
-0.000163208
-0.000169952
0.000104861
6.50893e-05
-5.21448e-05
0.000599121
-8.39529e-05
-6.10797e-05
0.000145032
-9.78086e-05
0.000131922
-3.41133e-05
0.000242256
-8.54374e-05
0.000221588
-0.000593041
-0.000106752
0.000166469
-5.97174e-05
0.000163213
-0.000305819
0.00014252
-0.000114031
0.000120352
-6.32144e-06
8.56586e-06
0.000442478
-0.00045567
0.000123684
2.77878e-05
-0.000131256
0.000732628
-0.000240356
0.000130643
0.00010968
-0.000132025
4.44835e-05
0.000117287
-0.000108366
-8.92142e-06
-4.56475e-05
-8.23972e-05
0.000128044
-0.000447111
0.000250784
-3.50951e-05
-0.000139721
0.000174813
-0.000406066
0.00022974
-0.000449081
0.000658986
0.00014889
-4.91415e-05
-8.60597e-05
0.000246299
0.000315643
-0.000110988
3.56713e-05
-0.000142858
0.000107186
-3.17076e-06
-9.46378e-05
-0.000111499
-0.000181711
0.000263427
0.000138753
-0.00036054
4.01261e-05
8.69499e-05
0.000105448
-0.00011706
1.16116e-05
-0.000214211
-4.16279e-06
0.000337889
0.000220829
-0.000571778
-1.65654e-05
0.000104521
5.85061e-05
0.000127614
-0.000186135
1.55309e-05
7.12087e-08
-1.80931e-05
-0.000155179
-5.0617e-05
0.00020579
-0.000130671
-0.000113298
0.000243933
3.94636e-05
-0.000242878
0.000257052
-0.00032467
6.74308e-05
1.56403e-05
0.000218168
-0.000161305
0.00032331
-0.000162099
6.7696e-05
3.69049e-05
-0.000104601
0.000486787
8.70724e-05
-0.000578044
-0.000260776
4.94303e-05
0.000211316
-0.000192464
0.000186542
5.92086e-06
0.000473148
7.54871e-05
0.000494709
-0.00063593
0.000307904
-0.00018561
-0.000122351
0.000137028
-8.47724e-05
-5.22558e-05
0.000116785
0.000200917
0.0002525
-0.000238742
0.000408696
-0.00012638
-3.23732e-05
3.09956e-05
-7.30025e-07
-7.81607e-05
-3.64422e-05
-0.000176049
0.00011833
5.77177e-05
0.000203444
-4.31395e-05
-0.00016031
0.000126021
-0.000585662
-0.00012973
8.62863e-05
4.34439e-05
8.86242e-05
2.97068e-05
-0.000118331
-0.000147524
-3.99302e-05
4.04594e-06
-0.000124214
-0.000116787
-0.000184546
-0.000282303
8.89883e-05
-5.13284e-06
-0.00011969
-0.00019001
0.000298166
-0.000108243
0.00013234
-7.11452e-05
-6.11944e-05
0.000177222
3.81644e-05
-0.000215408
0.000354878
0.000154418
4.47823e-05
-0.000155029
-0.000195378
0.000338031
0.000259764
-0.000177285
-0.000123229
9.25144e-05
3.98939e-05
-0.00013241
-0.000356459
0.00035816
-1.30952e-05
6.71916e-05
-0.000141432
0.000264109
0.000225849
1.24888e-05
-1.17315e-06
0.000470751
-0.000250809
-0.000220278
-0.000229709
-7.71675e-05
0.000155968
0.000141217
-0.000149291
-5.89314e-06
0.000395483
-0.000146158
-0.00024951
6.64104e-05
-0.000526832
0.000456937
0.00012601
6.40599e-05
-0.000190076
0.000126837
-9.11668e-05
-8.57608e-05
-9.02897e-05
-0.000503491
0.000506765
-9.62693e-05
0.00018859
-9.23231e-05
-0.00039994
0.000463868
-6.33877e-05
0.000566402
-0.000503653
-0.000214406
0.000691945
3.01178e-05
-0.000136489
-0.000132522
5.44175e-05
5.66205e-05
-0.000140305
-0.000100078
-0.000119047
0.000375882
0.000495297
0.000189481
-0.000270662
2.80098e-05
-0.000356236
0.000575754
-0.000220706
3.22667e-06
-6.38847e-05
6.0658e-05
0.00021368
7.69236e-05
0.000161779
0.000146366
0.000659925
-0.000578784
-8.75388e-05
0.000655812
-0.000163829
0.00014413
-7.2223e-05
-7.19074e-05
-3.00733e-05
-7.61104e-05
0.000106184
-0.000435625
0.000566801
8.73092e-05
-1.14937e-05
-0.000108977
-6.84856e-05
0.000160998
0.000515332
-0.000748357
0.000227609
0.000128423
-4.38119e-05
0.000717113
-6.48174e-05
1.56923e-05
0.000101595
0.000267026
0.000272399
-0.000541829
-6.12673e-05
0.000194994
-0.000133734
4.88998e-05
0.000304272
-0.000353459
9.55118e-05
-0.000109286
1.37739e-05
0.000503458
-0.000127344
0.000218256
-9.30352e-05
-1.72941e-05
-0.000105513
0.000122806
0.000117415
0.000352966
0.000179
-0.000120507
0.000153325
-1.07135e-05
-0.000142615
0.000610014
-0.000275513
-0.000336038
0.000132725
-9.82151e-05
-3.451e-05
-5.80557e-05
-0.000128651
9.38586e-05
-5.2344e-06
-0.000187937
-0.000233504
0.000421345
8.43796e-05
-0.000104659
2.02799e-05
0.000287214
-0.00035534
6.77781e-05
-0.00013824
3.58956e-05
0.000102344
-0.000166045
0.000148749
0.000256877
-0.000102049
-0.000154842
6.05721e-05
0.000196289
-4.12558e-05
-0.000121905
-1.91371e-05
-0.000246631
0.000263693
0.000162111
-0.00031905
9.94189e-05
3.31536e-05
0.000591829
-0.000121923
-0.000471129
-0.000302265
0.000509692
-0.00020822
6.17355e-05
5.777e-05
-0.000169979
3.22795e-07
0.000518455
-0.000687611
0.000167263
9.19351e-05
0.000121164
-0.000137957
5.68587e-05
4.94567e-05
-0.000406055
0.000332596
2.29749e-05
-0.00011506
3.28428e-05
-0.000162973
0.000130126
-0.000373157
4.93013e-06
0.000193551
0.000413611
-0.000618159
-0.000406823
9.03588e-06
-0.000416378
0.000549124
0.000185535
-5.95311e-05
-0.000104753
-4.36416e-05
0.000148393
0.000123902
-0.00016652
4.26183e-05
4.20726e-05
0.000102058
0.000490125
-0.000719747
0.000225365
-0.000212001
-4.87991e-05
5.53057e-05
4.80551e-05
-0.000103361
0.00034783
-3.91771e-05
-0.000308794
-0.000126119
5.1479e-05
8.08604e-05
-0.000121981
0.000490131
-0.000215441
-0.000295077
2.14599e-05
0.000181978
0.000544618
-9.44356e-05
-0.000461024
0.000159551
-3.58692e-05
-0.000518871
0.000424953
0.00010628
-1.07681e-05
-0.000246209
0.000115504
-0.000482257
0.000509622
-2.84649e-05
-0.000216024
-6.1591e-05
0.000274994
0.000159683
0.000147482
-0.00017803
-8.87918e-05
0.000187785
4.11283e-05
-0.000228955
2.74651e-05
-9.66127e-05
6.91473e-05
-6.06408e-05
-7.75995e-05
-1.2324e-05
-0.000101707
-0.000299786
0.000138405
0.000253568
4.02062e-06
0.000437494
-0.000110726
2.95497e-05
7.58979e-05
-9.6314e-05
0.000143271
-4.69574e-05
-0.00078722
0.000300579
0.000483976
0.000129038
8.9212e-05
-0.000658795
7.58889e-05
0.000579741
-0.000199773
0.000137814
6.1951e-05
0.000524935
-0.000260166
0.000215425
-0.000236801
-0.000151472
0.000380912
-0.000230205
-8.09092e-05
0.00012958
-4.86708e-05
-0.000430144
0.000277781
6.88659e-05
6.81622e-05
0.000107546
-0.000124822
1.72755e-05
0.000144516
-9.59066e-06
-0.000134933
0.00017744
-0.000131028
-4.64125e-05
0.000385052
0.000223481
3.47357e-05
-0.000141489
7.19272e-05
-0.000144922
0.00055047
-0.000414492
1.69629e-05
-3.84626e-06
0.000593886
0.000643237
-5.48852e-05
-0.000590543
-0.000172734
0.000155528
-3.95091e-05
2.81767e-06
0.000548947
0.000159455
-0.000711343
-1.96433e-05
0.000555366
0.000139402
4.61261e-05
-0.000157942
0.000150015
-3.93089e-05
0.000123688
0.000159535
-9.11042e-05
-6.84313e-05
-0.000118449
0.000110043
8.40581e-06
-0.000132684
0.000156289
0.000134057
-9.66348e-05
-3.74223e-05
-0.000106909
0.000109958
-3.04861e-06
7.53032e-06
0.000340142
-0.000135026
0.000620426
-0.000160779
0.000217667
-5.69044e-05
3.1232e-05
0.000369594
0.00018689
0.000175286
-0.000362478
-0.000506455
0.000368295
-0.000150507
-4.58594e-05
-0.000124093
7.62552e-05
8.32782e-05
0.000216413
0.000208224
-0.000425087
0.000158224
-0.000217907
5.96574e-05
0.000301912
-0.000489941
-0.000159221
-0.000345854
0.000288249
-0.000100513
0.000503474
-1.74548e-05
-0.000487097
0.000159062
1.5275e-06
-0.000160594
0.000474243
0.000161139
-6.85099e-05
-8.05742e-05
9.0609e-05
3.78139e-05
0.000103029
-0.000112383
-1.15358e-05
0.000114564
-0.000203042
0.000189132
1.3887e-05
-1.8064e-05
-0.000100385
8.14057e-05
5.13192e-05
0.000125078
-5.33034e-05
-7.17752e-05
-8.36155e-05
0.000125274
-4.16583e-05
0.000316213
-0.000281202
-6.87016e-05
-0.000151057
0.000286699
-0.000135713
-2.23851e-05
0.000524807
0.000141036
0.000466129
-0.000609119
3.11598e-05
-0.0001575
0.000126336
-0.000247319
-0.000108897
-3.37437e-05
9.84675e-05
0.000307703
-0.00019012
-0.00011765
-0.000374119
0.000183121
0.000190821
3.22274e-05
7.68493e-05
-0.000109077
0.000323338
-0.000475246
-0.000170445
0.000234026
-6.36041e-05
0.000124685
-0.000102358
-2.23277e-05
0.000129111
-0.000174907
4.57908e-05
-0.000113869
5.22278e-05
6.1641e-05
-0.000156826
-0.000378425
-0.000411107
2.07497e-05
-8.47846e-05
0.000186755
-0.000302222
8.83884e-05
0.000378119
-0.000104172
0.000156929
-5.27576e-05
-1.78223e-05
0.000141725
0.000192552
0.000202724
0.000130248
-4.03065e-05
-8.99414e-05
0.000456662
-0.00020795
0.000170575
-0.000202167
4.51908e-05
7.98875e-05
8.78313e-05
8.00308e-05
0.000241317
-9.68162e-05
-0.000170374
3.21303e-05
4.44631e-05
-0.000214927
-0.00025001
-6.25335e-05
0.000312467
0.000207591
-0.000190069
-1.75372e-05
0.000194777
0.000100281
-0.00029519
0.0001592
3.49488e-05
-0.000194161
1.54882e-05
-0.00016224
0.000297271
-0.000135139
0.000161201
-0.000235858
7.46262e-05
-8.06607e-05
-4.38052e-05
8.26312e-05
6.60248e-05
-0.000154561
8.85321e-05
-0.000305747
0.000465692
-0.000160429
-0.000315644
-0.000379189
0.000685699
-0.000158996
0.000345564
2.29436e-05
0.00051213
-0.000536754
0.000114308
-8.20811e-05
0.000118814
-6.89624e-05
0.000671183
-0.000161359
8.58846e-05
0.000133043
-0.000108937
0.000159452
-5.05159e-05
-9.13679e-06
-9.77722e-05
-1.76711e-06
2.7527e-05
-6.13124e-05
-5.25563e-05
0.000126667
0.000297093
-0.000425244
-3.17803e-05
-0.000145162
0.000176931
-0.000786666
0.000345894
0.000435563
-1.99712e-05
9.80974e-05
-7.81262e-05
0.000184039
-3.64357e-05
-0.000147607
0.000407774
-0.000185749
-9.54999e-05
0.000461234
-0.00036732
8.01625e-05
5.38943e-05
5.25203e-05
0.000142007
5.77539e-05
4.70679e-05
-0.000104822
-3.9914e-05
-1.63454e-06
0.000124054
-4.75359e-05
-7.65178e-05
-0.000110337
-7.66819e-05
0.000159644
-8.2965e-05
0.000252295
-0.000575531
-0.000114686
-1.52441e-05
-6.66191e-05
0.000146807
-8.01884e-05
0.000332399
-2.52868e-05
-0.000307252
0.000573845
-0.000390408
0.000408718
0.000134535
-0.00054476
0.000155945
-0.000167966
-3.18143e-05
-0.000164006
1.45785e-05
-0.000218231
0.000620281
-6.93441e-05
-0.000137235
0.000185266
0.000132584
-0.000223719
-0.000110102
-1.96284e-05
0.000153316
-0.000122161
0.000339774
-7.8623e-05
-0.000127639
0.000206253
-1.27543e-07
5.77409e-05
0.000384579
-0.000100936
0.000242109
-8.3912e-05
-1.02722e-05
0.000129967
-0.000119695
-0.00021886
-0.000123759
0.000342408
-0.00056485
-2.39209e-05
7.29692e-05
0.000567059
-0.000527273
0.000551516
-2.40863e-05
-0.00014517
0.00013124
-2.15182e-05
-0.000280893
0.000307257
-3.27554e-05
0.000521601
-0.000525674
3.28434e-06
0.000180516
0.00034113
-0.000146502
0.0002729
-0.000224212
-0.00077329
0.000392529
-0.000466821
0.000135455
0.00033041
0.000329655
4.11233e-05
-0.000371199
0.000262467
-0.000101302
0.000149519
3.80107e-06
-0.000159975
5.58015e-05
-0.000216594
1.62404e-05
-0.000177462
0.000161196
-0.000157269
0.000106339
0.000277672
-0.000115938
0.000136771
0.000437905
-0.000579464
-6.2322e-05
0.000130018
-1.76351e-05
0.000117206
-0.000420127
0.000359451
-0.000452626
9.21955e-05
-8.41175e-05
0.000150139
0.000239442
-0.000205579
-3.38892e-05
0.000140705
-7.78128e-05
-8.86153e-05
0.000158961
-2.98541e-05
0.000174672
1.26715e-05
-0.000187366
7.69475e-05
-0.000106753
2.98052e-05
0.000165613
-0.000149396
0.000370448
-0.000142827
-0.000227697
-0.000242371
-0.000131901
0.000180722
-0.000399117
1.67166e-05
-0.000102478
9.76872e-05
6.90751e-05
5.28283e-05
-0.000121904
0.000599147
-0.000127304
-0.000322355
-4.94207e-05
0.000371469
4.34339e-05
-0.000171082
0.000127772
-7.62933e-05
6.6037e-05
3.86225e-05
-0.000137995
-0.000150232
-0.000191505
-1.15544e-05
-0.000465933
0.000218612
-0.000253913
-0.000172786
0.000425979
-0.00046652
-0.000308903
-0.000235985
0.000250413
-1.44592e-05
-0.000161439
0.000552901
-0.00014494
0.000308064
-0.000142709
-6.62061e-05
0.000135281
0.000105544
-4.77897e-05
-0.000525323
0.000269137
0.000255323
0.000226347
-5.57929e-05
-1.02846e-05
0.000194319
0.000440955
-0.000310471
-0.000130786
-0.000225589
0.000630545
-0.000405447
-0.00012732
5.54021e-05
7.19185e-05
-8.57815e-05
-7.44393e-05
0.00016022
4.713e-05
9.02452e-05
-0.000137376
0.000210441
-0.000185236
-2.52152e-05
2.29828e-05
-0.000351353
-7.54498e-05
9.84247e-05
0.000313772
4.45445e-05
6.24657e-05
0.000265988
7.65277e-05
-0.000342783
-0.000292141
0.000145462
0.000146634
-9.53212e-05
0.000342431
0.000258108
-4.47146e-05
-8.62628e-05
0.000152674
-6.64114e-05
-1.95603e-05
0.000227135
-0.00038332
0.000201725
0.000181359
0.000124222
-0.000107507
6.78993e-05
0.000370173
-0.000439163
2.86227e-05
-0.000112238
-0.000208284
-8.74219e-06
-0.00033038
4.45073e-05
5.3662e-05
-0.000149934
4.80282e-05
-0.000133811
0.000139386
-0.000158639
1.92527e-05
0.000418023
-0.000351151
0.000328189
0.000274968
1.51704e-05
0.000505493
-0.000311567
0.000116049
-4.50579e-06
0.000101377
0.000121091
0.00016561
-0.000420212
0.000123209
0.000118087
-0.000146213
-0.000452023
-0.000338807
8.43438e-05
-0.000119441
-0.000138667
0.00024002
0.000143492
6.35619e-05
-0.000207059
-0.000723421
0.000293655
0.000424536
-0.000161489
0.00018846
-2.6985e-05
-0.00050753
7.63594e-06
9.99096e-05
-0.000257097
0.000203428
1.69963e-05
0.000222415
-2.20398e-05
-0.000300583
-0.000262375
6.60149e-06
0.00022985
-0.000537282
0.000671196
-0.000143434
-0.000557859
0.000112302
-0.000226202
0.00020333
2.28559e-05
6.45991e-05
0.000329435
0.000211965
-4.59306e-05
-0.000166042
-7.01575e-05
9.76221e-05
-0.000123656
0.000271291
0.000339042
-0.000311961
0.000235978
-8.25072e-05
-0.000153486
1.54483e-05
0.000123938
5.89694e-05
0.000104531
-0.000163505
0.000626576
-0.00014416
0.000249702
0.000113358
-0.000363145
-0.00061286
0.000383428
0.000389452
-0.000361027
-2.88097e-05
-0.00041637
-3.37209e-06
-0.000120868
5.42479e-05
-0.000219928
3.41031e-06
-0.000109132
-0.000273638
0.000414091
-0.000140867
0.000185415
-0.00017703
-4.29403e-05
0.000229921
-0.000187019
-8.39264e-05
0.000119643
-3.57166e-05
0.000212067
-0.000213612
1.51745e-06
0.000599854
-0.000192879
-7.58221e-05
-3.94428e-05
0.000115265
-5.23297e-05
0.000118367
0.000147395
0.000461503
-0.000611697
-0.0001674
0.000525841
-9.70069e-05
-8.34979e-05
0.000180501
0.000156189
5.42387e-05
-5.06886e-05
0.000227889
-4.32318e-05
3.82186e-05
-2.07623e-06
-0.000415305
0.000318216
3.48496e-05
0.000160135
-6.231e-05
-0.000420781
-0.00024268
0.000283758
0.000143607
0.000164225
4.9748e-05
-0.000595627
-0.000230367
-9.07986e-05
0.000321075
-9.15483e-05
-1.07753e-06
-0.000497806
0.00049468
0.000460126
-0.000596035
0.000133868
-6.40416e-05
-0.000171295
0.000212878
8.20675e-05
-0.000112141
-0.000113008
9.39565e-06
-0.000233616
0.000449541
0.000102115
-7.6902e-05
0.000484658
-0.000235318
-0.000250044
-0.000111177
0.000159204
-0.000459676
0.000207179
-0.000190306
0.00023864
-0.000221188
-0.000159303
0.000291824
-0.000132587
-0.000623552
0.000403258
-0.000189683
0.000318451
-0.000128845
-0.000205822
1.87227e-05
0.000155489
-0.000106913
-0.000133732
0.000240615
-0.00029496
0.000420177
1.8393e-05
0.000106292
0.000114379
-5.62231e-05
-5.8156e-05
-0.000100273
9.00009e-05
2.12803e-05
-9.83223e-05
-0.000310986
0.000153096
0.000124525
0.00019621
8.31893e-05
-0.000279502
-0.000113397
4.52313e-05
6.81652e-05
5.95918e-05
5.46073e-05
-0.0001142
0.000244012
-0.000256868
0.00049422
-0.000701326
0.000204215
-4.64039e-05
0.000185799
-0.000137237
-2.14018e-05
-1.82726e-05
0.00016176
0.00016615
4.58037e-05
0.000155034
-0.000297656
0.000142527
-0.000103947
0.000147218
-4.32713e-05
5.20513e-05
0.000225283
-0.000277471
0.000215824
0.000122023
0.000212482
-0.000100557
-0.00011194
-0.000146394
0.000167887
-6.20373e-05
0.000305955
0.000104339
3.93552e-05
-0.000143694
-0.000227348
-9.91785e-05
0.000326423
-0.000226522
0.000522333
-0.000297122
-0.000188117
-0.000104063
0.000375161
-0.000258036
-0.00019115
-0.00044129
0.000625591
-5.17491e-05
0.000440761
0.000301562
-0.000139324
-0.000241132
0.000399268
0.000460781
-0.000693354
0.00022711
5.84235e-05
-0.000145751
0.000300251
-0.000154577
-0.000482479
0.000120926
0.000360428
-1.48107e-05
-0.000227913
0.000617074
-0.00012475
0.000589505
-7.47754e-05
-0.000517551
-0.00011358
-4.27627e-07
1.23769e-05
0.000490235
-0.000503512
0.000574266
-0.000501874
-8.9837e-05
-0.000434083
0.000271926
0.00016163
-3.86731e-05
0.000211065
-0.000192554
6.98566e-05
-8.98278e-05
-0.000208606
-9.7021e-05
0.000305553
-1.06769e-05
0.000147999
-0.00050207
7.1459e-05
0.000404699
0.000128651
-0.000134495
2.91213e-06
0.000275021
-3.34547e-05
-0.000241591
-1.44547e-06
-0.000248626
0.000154151
0.000334838
-0.000489006
0.000143794
-0.000147921
4.1247e-06
-7.34219e-05
0.000240223
-0.000166838
3.34159e-05
0.000126133
-0.000325716
0.000159101
4.37102e-05
-0.000202832
-0.000527054
0.000121303
0.000403904
5.96548e-05
-0.000106732
4.52326e-05
-9.98479e-05
0.000207641
6.44646e-05
-0.00042167
6.2041e-05
4.06762e-05
-0.000102717
2.52059e-06
0.000123334
5.09642e-05
-0.000154482
0.000103515
-0.000363139
-7.13082e-05
0.00010284
-4.75345e-05
0.000234627
-2.40302e-06
-0.000232283
0.000130888
-0.000204342
0.000213975
-2.8572e-05
-0.000239756
0.000594628
-0.000369952
-7.67447e-06
7.67447e-06
-0.000265836
-1.0186e-05
-0.000537434
0.000547194
0.000286787
-0.000594281
0.000306245
-0.000138903
0.000157842
-1.8942e-05
0.000170861
-0.000518056
0.000416347
-0.000384791
-3.32237e-05
-0.000392636
0.000203999
0.000188273
-0.000564024
0.000394019
0.00015439
-0.000188273
-1.77333e-06
0.000154776
0.000242799
0.000324269
-6.86484e-05
-4.47481e-05
-0.000209437
-0.000139917
0.000349145
0.000411357
-0.00041594
6.67813e-05
-0.000163625
7.73006e-05
5.04714e-05
-0.000165644
0.000220665
-0.000624583
0.000401836
0.000491348
0.000105988
-6.47244e-06
0.000150265
-6.07947e-05
-0.000116313
0.000177104
9.61525e-05
-0.000114688
1.85356e-05
0.000203525
0.000166844
-0.000485819
0.00025801
-0.000310243
0.00017124
-3.33115e-05
-0.000187844
-0.000297291
0.000134944
-0.000328677
-0.000186077
8.10224e-05
0.000105049
-0.000395473
0.00016191
9.39558e-06
-0.000107611
-0.000198761
0.000532456
-0.000335401
-0.000495866
0.000224254
0.000271107
8.27184e-05
2.95038e-06
-8.56688e-05
-0.000684731
2.27454e-05
-0.000383288
7.71474e-05
-0.000468421
-0.000153693
0.000618987
0.000129407
-0.000130308
-1.76732e-05
0.000302346
-0.000175017
-0.000100372
0.000256347
-0.000387835
-0.000117011
0.000503181
1.82735e-05
-0.000129452
-0.000114533
5.35447e-05
6.09879e-05
-0.000254365
-0.000370623
0.000437567
-0.000551563
0.000101846
-0.000187831
0.000254141
-6.63301e-05
-0.000106308
-4.2431e-05
-2.11327e-06
-9.93346e-05
-4.94394e-05
0.00014877
-0.000117216
0.000541968
0.00014119
0.00045926
7.27726e-05
-0.000537241
0.000209613
-0.000640273
0.000424022
-1.46548e-05
0.00061149
-0.000542952
-7.21917e-05
-0.000149262
3.06253e-05
0.000249991
-0.00026979
1.96567e-05
0.000117537
-1.06246e-06
-0.000116909
-0.000360332
-0.000125287
0.000465158
-0.000643869
0.000439029
0.000204606
0.000748516
-0.000289984
-0.000464383
-0.000102728
0.000560629
-5.75049e-05
0.000128314
-7.08093e-05
-0.000441805
0.000633409
-0.000196309
-0.000670037
0.000228334
0.000434599
-5.43942e-05
0.000129384
-7.49907e-05
-8.05817e-05
-8.33401e-05
-0.000173221
-0.000210286
-0.000153085
-0.000260713
0.000107402
0.000153262
-0.000462812
0.000296452
0.000165696
0.000169252
-0.000613178
0.00043603
-9.6191e-05
-0.000273484
8.35718e-05
7.71714e-05
-0.000184108
0.000434769
9.41051e-06
-0.000447078
-0.000122232
0.000581218
0.000118797
-5.92055e-05
0.000396908
-0.000248353
-0.000148731
-0.000125193
3.77948e-05
8.73976e-05
2.58777e-06
-0.000329541
-0.0001152
3.90893e-05
0.000255959
0.000113149
-0.000369321
-0.000131056
0.000539883
5.68792e-05
4.70195e-05
-0.000103899
-0.000107315
-1.16095e-05
0.000118925
0.000285959
0.000456113
0.00012058
9.18842e-05
7.94559e-05
-0.000199899
-1.28157e-07
0.000607444
-0.000131411
-0.000389172
0.000124721
-3.84347e-05
0.000167623
0.000387821
-0.000194677
-0.00045663
-8.8573e-05
9.59558e-05
-0.000364269
0.000267537
-0.000181641
0.000149849
6.9201e-05
0.000153446
-0.000403702
0.000625264
-0.000227585
-0.000202273
-0.000116092
0.000318352
-0.000313621
0.000299456
7.06726e-06
-8.31201e-05
0.000218161
0.000248801
-0.000476379
0.000180024
-0.00040485
0.000376869
2.60103e-05
-0.000179472
1.05679e-05
-0.000181062
-9.5716e-05
-1.12402e-05
0.000106956
-0.000166284
6.33312e-05
0.000102952
0.000380142
-0.000130552
0.000141697
-0.000108858
7.40784e-05
3.57832e-05
-0.000109862
0.000470321
0.000182739
-0.0001093
3.38502e-05
-4.26686e-05
-9.45795e-05
-2.74995e-05
0.000101578
0.000139731
-8.5827e-05
-5.3904e-05
-0.000123102
6.87074e-05
-4.71245e-05
0.000124072
0.00011221
0.000123753
-0.000427126
0.000560144
-0.000125887
-0.000137209
0.000392942
-0.000135479
3.91651e-05
-0.000437838
0.000681149
0.000662803
-0.000433283
-0.000375379
0.000593923
-1.44976e-05
-0.00035426
3.46344e-06
0.000350271
-0.000240415
-0.000106019
0.000346331
0.000102716
-9.72099e-06
-9.2995e-05
0.000213542
0.000443881
4.96574e-06
-0.000489148
0.000483248
0.000113016
-5.87077e-05
-5.43088e-05
-0.000165318
1.57113e-05
0.0001496
-0.00028515
-0.000358632
0.00029229
0.000414296
-0.000191159
-0.000223451
-0.000644628
0.00044629
0.000195703
1.02199e-05
0.000104158
0.000116279
0.000176024
-0.000313966
-0.000153883
0.000467493
-0.000278026
0.000373229
-6.33367e-05
-5.11959e-05
-2.11448e-05
0.000103863
-0.000116824
6.92589e-06
-0.000115932
0.000569503
-0.000139093
0.000191603
0.000208146
-3.34977e-05
9.54877e-05
-0.000113115
1.76277e-05
3.63989e-05
-0.000166735
-9.14959e-05
0.000258195
-0.000407084
-0.000398467
-0.000130257
-0.000491957
0.000291657
0.000150445
-0.000247695
-0.000455271
0.00012643
0.000158614
-7.92471e-05
0.000408537
0.000181208
-0.000129236
-6.22279e-05
-6.83899e-05
0.000130617
7.85524e-05
-0.00022088
0.000142308
-0.00056886
0.000370623
-5.88276e-05
-7.50218e-05
-5.45888e-05
0.00012961
0.000175184
0.000104459
0.000465215
-0.000570562
-8.444e-05
0.000124809
-4.03693e-05
-0.000151462
0.000641705
-0.000238962
0.000524402
-0.000219393
-7.45899e-05
0.000293965
0.000102213
2.80343e-05
-1.62713e-05
-0.000453969
-0.00027448
-7.56083e-05
-6.36331e-05
0.000139241
-7.37229e-06
0.000149064
0.000172761
-3.60041e-05
-0.000136761
4.79468e-05
-0.000188698
0.00014073
0.000124254
-8.1346e-05
0.000144972
-0.000487208
0.000337086
0.000153818
2.13182e-05
-0.000175146
-0.000444096
0.000547699
0.00067834
-0.000337539
-0.000349453
-0.000629715
0.000403687
5.6613e-05
-0.000160786
9.93662e-05
-3.21365e-06
-0.000227582
0.000636032
-0.000414823
0.000119365
-0.000499614
-0.000619118
0.000147727
-0.000157805
0.000466899
-0.000307234
0.000422798
-0.00011591
-0.000568008
0.000557376
-0.000111199
0.000627634
0.000209607
0.000191167
-0.00060035
-0.000252279
-0.00018393
0.000184189
-2.66468e-07
-0.000100864
0.000131397
-3.05326e-05
-0.000155582
0.00062526
-4.39947e-05
0.000210687
-0.00016672
-0.000165874
-0.000360133
-2.32794e-05
0.000121377
2.02339e-05
-9.52558e-05
-2.58717e-05
-9.14698e-05
-0.000154108
-0.000106649
-0.000120855
1.35396e-05
7.86215e-05
-0.000120852
3.99428e-05
0.000182607
1.9538e-05