/*--------------------------------*- C++ -*----------------------------------*\
| =========                 |                                                 |
| \\      /  F ield         | OpenFOAM: The Open Source CFD Toolbox           |
|  \\    /   O peration     | Version:  v2012                                 |
|   \\  /    A nd           | Website:  www.openfoam.com                      |
|    \\/     M anipulation  |                                                 |
\*---------------------------------------------------------------------------*/
FoamFile
{
    version     2.0;
    format      ascii;
    class       volScalarField;
    location    "700";
    object      omega;
}
// * * * * * * * * * * * * * * * * * * * * * * * * * * * * * * * * * * * * * //

dimensions      [0 0 -1 0 0 0 0];


internalField   nonuniform List<scalar> 
13917
(
0.0400182
0.0221923
4.74309
0.0236249
0.0221081
0.433079
4.38842
4.91372
5.47974
0.0649547
0.15908
0.0661166
0.0237003
12.378
0.0261969
0.025027
0.0223101
0.0531812
0.0648973
0.0221138
0.0222669
4.29845
0.0220936
4.92712
0.0220147
4.12507
0.0411059
0.0535394
0.74589
0.0999918
0.0426507
0.0279714
0.0357902
0.0255823
0.0220299
1.12235
0.0221023
3.79777
0.0254573
6.27312
0.0219071
0.0222858
0.0215887
0.081501
0.0220945
0.0273403
0.0523683
0.0696499
2.81979
0.0220199
0.0269097
0.0223451
3.26202
0.0259453
0.0223229
0.0268811
0.156266
0.0220381
0.0250302
0.0220496
10.2626
0.0221956
23.7695
0.0221024
0.403783
17.0259
0.0221037
0.0220453
0.17332
0.0364788
0.0221158
5.59659
4.28526
0.0220203
2.89934
0.0772941
5.7154
0.0227709
3.8662
0.022237
0.022205
0.0221112
0.373595
3.77309
4.77546
0.0226714
0.0221805
14.7664
0.0266353
0.0215799
4.05875
0.0867529
0.0218897
0.0230075
15.5164
0.366893
0.120375
0.0642344
0.135325
0.105674
0.0218212
0.0323673
0.0817531
0.0231768
0.0218025
5.83992
0.446472
0.0735202
0.0223166
0.045578
4.25638
5.50117
0.0850428
5.70116
0.0229593
3.24
0.0220121
1.48944
5.06908
0.0259234
0.0222739
0.166275
4.57077
0.0504607
0.0219813
0.0228376
0.0220578
0.0219889
0.0216102
0.406584
3.57152
0.0228665
0.0221183
0.0222744
4.38848
4.89688
0.0405666
0.112733
0.0220966
0.0257816
0.408486
0.0217769
0.0225778
0.101622
0.0220452
5.81332
0.786472
0.0222915
0.0217491
0.0286167
0.0560092
3.23452
0.0875221
0.0414258
0.0270733
6.4564
0.0349941
3.791
7.86926
4.22461
0.0242166
0.0416504
0.022237
0.115186
0.0833395
0.132858
0.0231466
0.0596622
0.0219234
0.0333472
0.0417267
6.65249
0.0925413
0.0226235
5.5019
0.0454744
3.56555
1.94614
5.76858
0.0219286
0.0907589
0.0441874
0.0217709
0.0221715
0.0300121
4.26856
0.342307
8.3199
0.0367006
0.124208
0.517543
5.29335
0.311275
0.0221039
0.117842
0.0400224
0.0224818
0.0218982
0.232582
7.37373
0.0262485
0.0220352
0.0553227
0.0553354
4.72894
2.25297
0.022032
0.0220516
0.0627731
4.51238
0.0224796
4.39983
6.66564
0.124651
0.02181
0.581739
0.0549741
6.10023
0.0219707
10.9272
0.0219227
0.0894373
0.0218973
3.84069
5.86573
0.0253628
2.04002
0.0274081
0.0218137
1.00188
0.0906116
0.0362769
4.8285
8.95826
0.0217766
0.0284749
3.99424
4.61097
0.0222291
0.0219521
5.01038
0.136531
0.0222668
0.234745
0.0954283
0.0405812
0.0372353
0.022229
0.0452364
7.35838
0.0219571
0.11625
0.141091
0.0220343
0.0220278
0.0690863
3.74371
0.0822665
0.0303374
0.0263671
0.0222712
5.91169
6.97042
0.297804
0.0218212
4.54043
7.05968
4.23158
3.78692
0.0826243
0.0222156
0.0219374
0.0526509
4.07543
0.11918
0.0247445
3.2831
0.0427225
0.0216026
8.50106
0.0220903
5.49359
0.0257764
0.022262
0.027397
0.0411062
0.0419083
0.242301
0.0324666
0.0220608
0.318989
4.86154
6.90875
0.0219718
4.62436
0.0221728
0.0220553
0.0220194
1.14157
0.0221059
0.0977518
0.0362789
0.0219031
0.0555328
0.0231529
2.36929
0.0442937
0.0793905
0.0218147
0.0220189
4.34774
5.11185
0.0220065
0.0219173
8.5605
0.0219103
4.12823
0.0218072
3.8449
0.0224313
0.48141
0.0334884
3.02139
0.0239212
2.22379
0.305978
0.0273997
0.135699
0.522709
0.0222697
3.67594
0.120486
5.7797
0.0247724
6.58235
0.029213
4.65866
0.246036
0.111496
0.108388
4.64413
0.0222172
0.0433511
4.22831
0.0221743
0.023484
6.34862
0.283373
0.0225531
0.234127
0.681118
0.0218629
6.12684
0.52646
0.0220838
0.0218984
0.0221802
0.021744
0.332432
5.67544
0.692352
4.24195
0.022018
0.130755
6.67538
0.042743
4.30681
3.90859
5.73793
0.0217703
0.270039
0.021878
11.0436
0.0220472
3.76439
0.0953582
0.0246879
0.022199
0.059659
0.0992897
0.0722294
8.07187
4.42444
9.43422
0.0471918
0.0607909
0.0219599
4.76565
4.15825
0.0220573
0.975929
0.0220432
0.303091
0.0224283
0.0222272
0.0231886
3.54988
0.0231521
3.42207
6.03986
0.141631
0.471568
0.0222577
0.485402
0.423927
0.0220396
0.314736
0.0221584
0.0220297
0.100245
0.0222616
0.0220191
0.0218741
0.34498
0.0222481
5.49239
3.92642
5.26394
0.311257
3.34711
6.07054
0.0421035
0.0220239
0.17236
0.0252381
0.0297817
0.0220964
5.7336
4.39011
3.98031
0.0249945
0.108457
0.0245201
0.0259234
0.0718286
0.0229504
0.32047
0.0223049
0.0220969
4.03965
3.55641
3.55941
0.128618
6.30667
3.64597
4.18523
5.81766
0.0216396
0.0573919
0.0230097
0.0220815
1.0786
0.0533709
0.0218928
0.0617418
0.0399094
5.84331
0.0220356
0.117032
14.106
0.755613
4.3652
0.0222554
0.0220644
0.0224459
0.0351767
0.0217728
4.28053
0.534268
0.0323064
5.34587
0.0268002
0.117506
4.30162
0.801582
0.137289
0.468822
0.116684
0.0602776
0.162251
0.0428301
0.158333
0.598412
0.0483426
0.0819432
0.021873
2.624
0.0276835
0.0216749
0.033719
0.0228812
5.37939
5.72447
0.0219049
0.02162
4.48365
8.61779
0.0222618
5.69858
0.0228674
0.226906
0.0219191
5.00765
3.4882
0.028544
0.0223405
3.32139
0.261787
6.98435
0.0222694
6.50187
2.42436
8.77498
0.0216846
4.56407
6.18844
0.0428217
0.0218915
0.0222976
0.0774838
0.344277
0.0218258
0.0219043
0.0219605
0.021955
5.11581
1.1369
0.0422152
0.331826
0.0219695
0.0218284
0.106112
4.9991
0.0334788
0.0219375
0.0220256
0.0220652
8.69129
5.84273
0.0221746
0.0220644
0.231322
0.042524
0.0334301
0.0220566
0.0232669
0.0270242
0.0800212
0.416196
0.341009
0.176756
0.0975742
2.55049
0.0773233
0.0219815
6.13317
0.0220688
0.0237731
0.0242989
2.3729
0.0759732
0.0218336
0.75632
0.112817
12.1295
0.0985888
0.0356969
0.042037
0.0221901
6.66246
0.526424
4.20329
0.0222194
0.0295901
0.331706
3.89808
23.9915
0.0672869
0.149177
0.0249655
0.0241808
0.0220592
0.0542696
0.0871564
0.0221623
0.054463
0.13466
4.29213
6.28264
0.0240745
0.113748
2.31843
0.0285053
0.0223903
3.50875
6.30436
5.6115
0.298033
0.0216247
5.46536
0.0758962
0.0218683
0.031619
0.0751085
0.0344252
0.0981196
3.89401
0.158178
0.0379378
6.60463
0.0231829
7.37361
0.0222378
0.0221679
4.67395
6.23649
0.640472
0.0231775
0.0225708
0.0220677
0.0433701
3.34792
0.125349
0.0243918
0.127887
0.0585139
0.0219237
2.11029
0.121754
0.346826
0.0219538
0.153312
0.022857
9.8473
0.0662569
0.0757574
0.0299264
0.0218837
0.0216904
0.022095
0.120066
0.0276998
0.341212
7.04812
0.0588733
0.021872
0.154617
0.66456
1.86419
0.0219332
0.0270806
0.0219121
0.0289482
0.0251967
6.00088
0.0222291
4.47756
0.0286877
0.15702
0.0879141
4.30619
0.0789214
0.0222504
4.30943
17.5427
0.0220383
0.024217
3.34771
0.236788
0.119106
0.0222376
0.022371
0.355781
0.0248278
0.0715525
0.0657772
0.0216922
0.0552679
4.77425
0.0219165
0.0230242
0.0219802
5.3594
0.0222658
0.0246505
6.01686
0.0233406
6.22808
0.0271513
0.0365032
0.0219729
0.0506013
0.0220275
0.0587947
0.021889
0.0857123
0.0228687
26.9665
3.01787
5.02859
0.0223242
0.0222066
0.0733203
0.0485534
4.75403
5.32671
0.0526537
0.022033
0.341953
0.652086
0.322529
0.293682
0.0506
3.82869
0.0394628
0.040659
0.148133
0.183837
0.0519182
1.1011
0.0513656
0.0235833
0.0800287
0.0275074
0.0217535
0.0287297
0.0455334
0.0279481
0.0220345
0.0219302
0.0588349
0.023372
0.0724497
0.0220352
0.0220574
0.0222734
0.0231594
0.0215451
0.0258799
0.0220002
5.18779
0.0648846
0.357327
0.0217965
0.0222473
0.0481747
0.0613376
0.0226855
8.20689
0.0801856
11.222
0.0287904
0.123623
0.0224527
0.0222689
0.0219378
0.0231656
7.78059
0.0222552
4.968
0.0261685
6.01161
0.0496807
0.0815502
0.154226
0.0216827
0.022291
0.0660614
0.022046
0.022402
7.90902
0.0227094
0.0221806
0.0279641
0.0219456
0.0216769
0.0280123
0.0285841
6.11632
0.035193
0.0219154
0.0218817
3.90959
0.117986
0.0221989
0.0222239
8.1433
3.13076
8.54576
0.0355982
0.0235931
0.0217879
0.021659
0.0492418
0.0362547
0.215035
0.0251857
3.7635
0.0223125
0.0236296
9.25306
0.0220495
0.0278264
0.0219944
0.022081
0.0440967
0.0426381
0.0225053
6.16664
4.30063
0.0892688
0.0219778
0.0216005
0.121358
4.38156
0.0222612
1.83339
0.0216002
0.0429176
0.0217509
0.0217944
0.374597
0.0220024
3.34584
0.040132
0.0222732
0.0216203
0.0220669
0.021915
0.0229365
4.14747
0.0218773
0.0217765
5.02541
5.7841
0.039157
0.0471301
0.0678359
0.0251762
0.0217907
0.0280568
5.03445
0.0907462
0.0221309
0.022281
5.43664
0.0362986
4.32686
0.0222664
0.0227947
6.36587
0.0337462
0.0225847
7.92093
1.73041
0.0219118
0.133093
0.0219353
0.0219765
0.0217838
4.27111
0.0215379
0.0219419
0.0217851
3.49946
0.0247628
0.224873
0.0624235
0.0217861
0.0327688
0.0221746
4.25018
0.0219677
0.0218962
0.0221816
0.126154
0.0221738
0.158005
5.74202
4.76661
0.0265452
0.582013
5.26598
0.0220145
6.84915
9.59835
4.75694
3.36674
4.9228
36.9526
0.143567
0.0223238
3.81105
0.0336783
4.06916
0.0216781
0.0218859
0.0221987
0.0221678
0.0259974
0.0310205
4.48273
0.0218753
0.0220717
6.46236
0.296438
0.0220668
0.0380043
0.0297068
0.0222268
2.79856
0.0386621
0.0237485
0.0246968
5.69179
7.69154
1.29825
0.0217333
0.264732
0.112423
4.56295
5.76567
0.0905896
0.021915
0.0225155
0.0223146
0.0214999
0.0232514
0.0216322
0.0271378
0.0383955
5.60221
0.13367
0.0219562
0.120633
4.20599
0.0417727
0.0223064
6.55247
0.0218856
0.0223222
0.0377213
6.5822
0.0221738
0.0219549
4.40131
0.206925
1.86625
0.107398
1.13149
0.0219299
0.176195
0.0223357
0.0220012
0.0223307
4.24591
6.26919
0.0217696
0.0216169
0.0220138
3.62498
0.023025
0.0297722
0.0220464
0.0224338
0.170234
0.0218029
0.0600115
0.35163
3.55651
0.0220025
0.0836822
0.0242503
4.49105
4.1675
0.0220206
4.40237
0.0724874
1.44494
0.0221726
3.495
0.0222453
0.0266928
0.0428108
0.10745
4.48654
0.458711
0.185897
6.3755
0.0218655
0.281678
0.0217844
0.0274861
4.39401
0.0220911
0.0222529
0.0228235
0.0221982
5.15871
0.0216775
0.0220845
0.0561792
0.0472229
0.050653
0.594765
0.134094
7.61292
0.0659656
0.0355139
0.0396734
4.6644
0.0402846
14.2193
4.04286
0.0254751
0.0218067
3.22605
0.342282
0.0222953
0.111131
0.03389
0.0223459
0.026399
0.0222429
0.0427942
0.0222921
0.0495636
0.107992
0.0218857
0.061083
0.0218171
0.0599943
0.0218847
0.0260393
0.0586663
0.023515
0.0221191
0.0217796
2.09903
0.0814249
6.12291
0.0220167
0.0221427
0.0599588
0.0219954
0.0917734
0.0816135
0.0223479
0.0958944
0.0218012
10.0398
0.0222603
0.0374514
5.49253
0.278755
0.0219372
0.0236177
6.76965
0.0220039
0.0219237
4.4172
4.1219
0.024238
0.171757
0.0221045
0.0221127
4.29984
0.0230397
0.0216929
0.242219
0.0218225
3.0901
0.0221986
0.0216956
0.0221978
0.136369
3.6189
0.022123
0.0222687
0.0219308
0.0258859
0.0220779
0.986473
0.0590885
0.0222688
5.66348
0.0497456
0.273044
3.66735
3.63651
0.0217575
0.0222502
0.0220467
0.761266
0.0263558
3.65882
5.64134
0.0239057
4.29461
2.31813
0.050043
0.149782
0.0699459
0.383068
4.52454
0.0635326
1.06075
3.80199
0.064833
0.0251866
4.47402
0.0540534
0.0216902
0.0233348
13.5602
0.0381992
0.0218987
0.0526056
0.101131
0.0386315
4.38048
0.0237535
6.41501
0.0397692
0.303206
0.126083
0.283693
0.0290076
0.0217917
0.0225829
4.75643
0.0219984
0.0240916
0.0218025
0.0232793
0.0218799
0.0353173
0.155465
1.90361
0.0450786
0.0574936
4.00437
0.360315
0.0218738
3.24144
4.16538
0.0217336
0.0219149
0.0308486
6.6391
0.0222545
0.0697984
0.61924
0.048037
0.0220628
0.0231678
0.021839
0.111411
0.0395622
0.0219914
31.1044
3.84476
0.0430546
2.22407
0.0657045
5.48287
0.0232786
0.0254726
4.31113
2.85134
0.0915095
1.76641
0.0283524
0.0222764
0.0219663
0.0221879
0.0220305
0.0226227
0.0527925
0.0219455
0.126098
0.0219443
0.028506
0.0217645
0.0810073
0.125212
0.818112
0.022002
0.280796
0.0219647
4.41849
0.0220381
0.0255243
0.0221248
0.246922
4.62105
0.144001
0.0219395
0.133987
0.0220277
0.0298226
4.10126
0.0219488
0.0223501
0.0455137
0.031585
4.30022
0.0219469
0.0297711
0.0231641
0.0220428
0.0321882
0.022476
0.021751
0.0236478
6.42329
0.0244784
0.293134
5.65993
0.0519282
3.51885
0.0242291
0.0217573
0.0309574
8.28007
0.0233775
0.0365054
0.0424275
5.02596
0.0219012
5.76967
0.0626141
0.070554
0.0217248
0.0216349
0.176879
0.0224178
0.022286
0.0336134
0.021687
0.0243628
0.0286181
0.070972
0.267981
4.31536
0.0252321
0.0748201
3.12268
7.47473
0.0377837
0.264796
6.51931
0.0395611
13.0747
0.0236527
20.7993
5.43563
0.021673
0.022262
0.0219582
0.0226184
0.0451156
0.021767
0.0238822
0.0906226
0.0233149
0.0354186
4.21261
0.0300879
0.0241845
5.48136
0.0225897
5.61559
0.02438
0.0541645
0.0218905
6.75061
5.91281
0.0220265
0.0227395
3.66662
0.029402
6.72836
0.0220234
0.0218209
4.29363
0.022721
0.0442851
9.53135
0.0220662
0.0549082
0.0292441
0.0216311
0.0219051
3.76704
5.49586
0.0222148
0.0235365
0.0220581
0.0265815
0.0360676
6.12863
0.022663
2.56161
4.54207
0.274944
4.05901
0.0226679
0.124438
0.195408
0.0290014
0.0220622
0.0606761
4.02922
0.023365
0.0463217
4.98241
3.64395
0.297167
0.0252018
0.0222624
0.0222463
0.0220684
7.35511
0.0552868
0.0238562
0.0228532
0.0244169
0.0222702
0.0219815
0.0220435
0.0734798
0.0382134
5.58761
0.0469242
5.03052
3.3277
0.0304429
0.0510555
0.021814
0.0285453
8.19521
0.0221364
0.0235758
0.0517642
0.119295
0.0563963
3.80733
0.253282
0.0218892
3.89071
0.0215989
0.0222728
0.0459147
0.0222735
0.0219521
0.173496
6.8245
0.021828
4.22992
0.0221201
0.0217477
0.0234928
2.68192
0.0292061
0.024352
12.7104
0.0229467
0.221908
3.33158
0.0222462
0.048028
0.0220118
5.84465
0.0710463
0.0220449
4.07733
0.0541797
0.0788661
0.0222786
6.41883
0.0291429
0.390599
0.0229593
0.0721712
6.79391
0.0217681
1.46372
0.0221142
0.0622319
0.0521575
0.0222453
4.52069
0.0235964
0.116967
0.0577193
0.0963511
0.0405068
0.0441468
0.0225899
4.94898
0.031827
6.92107
0.0299653
0.0648791
0.0219795
0.0440028
0.0220503
0.0696536
4.6367
0.0227586
0.0218332
3.42127
0.0228518
3.29312
0.0224974
4.3214
0.348456
0.0353221
0.0219945
0.0219444
0.0221102
0.0216316
0.103528
0.0564241
0.039006
0.0258447
0.0220838
2.87393
0.023621
0.0341049
2.73791
0.0220376
13.4359
0.0515647
0.0298986
1.25553
4.29669
0.328849
4.48418
9.42589
0.0218944
0.371373
4.8988
0.351496
0.0221739
0.0222199
0.116651
3.99608
5.49433
0.652571
0.0223331
0.0506067
0.0402457
3.34235
4.94126
0.0423766
0.13073
0.0239233
0.0813387
0.0911715
0.0221657
0.105397
8.03672
0.0221313
3.975
0.0222534
0.0219765
4.69326
3.94179
0.0218529
0.0224112
0.0224931
0.0218266
0.0488792
0.180885
0.0231333
0.0219915
0.0220996
0.0405248
0.0278831
0.0276127
0.337365
0.0220296
4.00315
7.55353
4.19098
0.154443
0.0524451
1.52257
0.0335467
3.75669
2.40938
9.69319
0.0224266
6.55518
3.40519
0.0217717
0.0220381
0.104438
4.39567
9.82165
0.0217896
0.0220325
3.54497
5.0967
6.87234
0.0240263
0.0239271
1.86878
0.0221989
3.66837
7.20538
1.55997
2.62758
0.022068
0.0219302
0.0218896
0.0261359
4.02844
0.0404105
0.0255487
0.0226275
0.087081
7.02023
0.0404831
6.11736
5.3408
5.17811
2.16559
0.0220524
0.0221728
4.34373
0.0216656
0.0216883
0.0230604
2.81935
0.0374644
9.33869
0.132746
0.0220291
5.16076
0.0395692
0.0218833
6.0545
0.169647
0.025144
0.0221263
5.08677
4.34296
0.0221807
7.42283
4.57218
6.19855
2.39979
0.0833102
0.0219346
0.0225848
1.85581
0.0256354
4.49043
0.0418589
3.49199
0.262353
0.0228939
0.029061
0.0219316
0.0227013
4.62002
6.8492
0.0220685
4.8628
0.0431445
0.0220398
0.0248193
0.0219397
0.164161
0.0224696
2.3082
0.0516277
0.0219256
0.0218764
0.0980021
8.15909
0.0391694
0.0240221
0.0429589
0.0220448
0.0231639
0.0274357
8.61899
4.03477
4.36892
0.0217234
0.0218699
0.0223617
0.125647
0.0218802
0.0224097
0.175147
0.0591005
1.33476
0.0216602
4.30071
4.00665
0.0222843
8.73305
0.116886
0.037359
2.04784
0.0223091
5.10109
0.0295237
0.023058
0.0239004
0.0216619
0.218385
0.0224657
0.0228173
0.0308583
3.45902
3.55356
0.0222463
0.0220234
0.0235562
0.0220044
0.134571
0.0224358
0.0843543
0.0235887
4.09369
0.0227045
4.20772
0.0217252
5.30795
0.0224277
0.0216461
6.93467
0.317917
0.109929
1.34982
0.0442963
0.0409125
0.0220457
5.07706
0.0220647
0.0218866
0.0876676
0.0645958
9.9993
4.40257
0.12366
6.92501
0.129956
0.957932
0.0219002
0.0249963
0.0279989
4.04207
0.0248398
4.1509
4.42214
0.0222188
0.0220699
0.0220199
1.6212
3.33549
0.0234043
0.0221107
0.0257834
0.0281882
0.038212
0.384715
0.324366
0.0220652
0.640987
0.085144
8.49248
0.0723375
0.023304
0.0239399
4.99526
0.0218866
0.0893036
4.59463
0.0227335
0.0254609
0.180413
0.134986
0.0227666
6.24059
0.0244343
0.277202
0.0406543
0.0303521
0.0227792
4.2881
0.0218639
0.0981171
1.45051
4.76259
0.0498845
0.0671612
0.0256951
0.0480693
0.0222659
4.97357
0.0267787
0.0220022
0.0299835
0.022093
0.0222692
2.94117
0.0220694
0.0221794
0.0220524
0.133006
0.022251
0.0332405
0.07344
0.237458
0.117779
0.0222537
0.242311
0.480568
0.226164
0.0851224
0.02723
0.159233
4.77814
0.664385
0.0222845
7.69194
4.20911
0.0222839
0.0241821
0.0216514
0.717925
0.106804
0.0220709
1.29055
4.09106
0.0218145
0.0222176
3.71401
4.09863
0.0660735
0.0216655
11.2952
3.20331
3.26402
0.0220306
4.05289
0.0836428
0.0712163
4.32052
0.0262487
0.0216633
0.030174
0.192215
0.0321512
3.95384
4.36161
0.0218277
6.46274
0.521386
4.50211
0.0217229
0.0516029
0.0222928
0.0219315
4.07974
3.71198
0.275752
4.24234
0.0293472
0.0507822
0.0222174
4.57277
5.84101
0.0220492
0.0222758
0.0317794
0.021829
0.051271
4.43911
7.43902
0.0513542
0.0225022
0.0221775
4.07245
0.0250184
0.0531027
0.0218069
0.0230011
0.741047
4.10944
0.541075
2.93029
0.0221714
0.301208
0.0223159
0.0480395
9.77432
6.76512
0.0220743
0.0222938
0.0358536
0.0257243
0.0221947
4.33144
4.06353
0.0217937
0.0215219
0.0221913
0.0219717
2.69126
0.0217486
3.86443
0.103669
0.0643842
0.0218684
0.0481009
4.49798
0.0337959
0.453936
5.85104
0.0222556
7.11348
0.0331328
0.0355163
0.365491
7.11733
4.56428
0.0609054
0.0219044
0.259849
0.0217589
0.0253008
0.022215
3.8824
0.0317513
2.58918
0.343406
0.0488787
0.0221252
0.299065
0.0270108
0.0222704
0.254645
0.021605
0.0382781
0.0343309
0.0221783
9.83417
0.0234031
0.544087
0.0228367
0.0219419
5.54897
3.64125
0.0241201
0.0324588
0.0394978
0.0581826
0.0592338
0.0263507
0.025955
0.0252963
0.220389
0.0250517
4.02238
0.0602752
0.328569
0.119863
0.0226911
4.48644
0.0216154
4.53557
0.0242236
4.24163
5.86101
9.04731
7.76837
0.30708
0.0778002
0.0220391
4.25942
0.0860227
0.0220445
7.78113
5.60112
0.0232853
0.0238365
0.0309199
0.0309263
0.0325728
5.20207
0.0222841
0.0300101
0.0353713
0.0323189
0.0221652
0.0866301
0.0216205
4.13106
0.0236734
0.13448
0.03204
0.0399669
0.125358
4.22877
0.0871816
0.0218423
0.249315
4.27146
22.6425
0.0224291
4.19296
0.0290874
1.79845
0.0220647
0.0245493
3.79986
0.0523879
4.98531
7.25618
0.0334673
4.76195
0.0219804
0.0216104
8.76847
0.0591666
0.0244688
5.21182
0.027051
0.046009
0.0294221
0.07167
0.0221864
5.7295
5.21893
7.06668
0.277179
0.0255995
0.0574296
4.94932
0.0240701
0.0223148
0.0831863
0.021698
0.297028
7.78244
6.30369
5.18601
0.0562125
0.0224973
4.08507
0.021604
0.0749603
0.0222357
23.9564
0.0238353
0.0479369
3.68191
0.119698
0.022029
0.0322106
8.99066
0.0220766
0.147444
0.0218008
9.55419
4.16578
0.11584
0.0798961
0.0219551
0.210053
0.140538
0.0397214
0.0218056
0.022538
0.0221473
0.0552492
0.0221243
0.0876005
0.0221238
0.0218117
6.33353
0.0218779
0.0269471
0.0251887
0.0222748
3.59484
0.0218716
0.0339882
3.9497
0.0491152
3.93449
0.0220664
4.38211
0.0516929
4.98533
0.0236077
0.128991
0.0222106
0.0413605
0.125814
0.115032
0.261255
4.03894
0.221342
1.92657
0.0269681
0.113373
0.0419893
0.895031
0.0250829
0.0221557
0.0220359
0.0524103
0.0465357
3.29944
0.0539741
4.66387
6.82872
0.102837
0.022013
4.98531
0.20212
0.0224765
0.024078
0.0220797
4.90931
0.0220379
8.14841
0.0218647
0.0271822
4.8371
0.0791917
0.0220465
0.0220302
7.84419
0.0218817
0.0240808
0.0253282
0.0326574
0.027796
0.0221736
0.159029
0.0812193
0.043945
0.331536
4.36849
3.58851
6.12883
0.0217399
0.0219951
0.102908
0.022507
0.0475337
4.13456
3.71481
0.0216619
0.022046
3.3182
0.681821
0.0216779
0.0218444
0.0265685
13.1252
4.02698
0.0266666
0.0342403
0.0222006
0.375657
0.128537
0.141862
0.0317308
0.0443433
0.0224175
0.0384928
0.303511
0.0227727
0.0221767
0.0264578
4.55856
0.025224
7.19801
0.0221086
3.76746
0.0366684
0.0279375
0.0217825
0.0219315
0.822462
7.85991
0.0580051
4.20734
9.71983
0.0225367
3.94714
0.146863
0.0218989
4.79503
0.367073
0.116041
0.0222539
3.43531
4.45408
0.0219815
0.0397613
4.21558
0.0453013
0.0220581
0.0218035
0.0224298
0.0239961
0.0824464
0.280125
0.0772935
0.078467
0.0217271
0.0222002
4.63703
0.021852
0.0487732
0.02663
0.02218
0.0508176
0.0220292
0.0237442
0.336946
0.0220028
4.40761
0.0220252
14.9298
3.63309
0.0945781
0.0222525
0.0222927
4.08986
0.0216502
0.0242597
0.0223415
0.345713
1.27336
0.0339944
3.63012
0.0420769
2.08309
0.0225389
0.0701426
0.0218161
0.0221409
5.03923
3.67531
1.3999
0.0238393
0.0699432
0.0700298
4.77013
3.99733
0.320227
0.0396192
0.0215989
4.07609
0.0219285
0.0219888
0.294384
0.116003
0.0283563
0.201317
0.0474765
0.0317753
0.0278177
4.95085
0.0244592
0.0219969
6.71677
0.0469114
0.0217229
3.40817
0.0220351
0.0221131
0.163708
0.155115
12.169
0.0217395
0.0248109
0.0219225
2.22231
0.0218751
0.551596
4.47528
3.55163
3.39661
33.2136
0.0302846
4.41635
0.863201
0.0222107
0.030682
0.0439057
0.0303814
1.22906
4.09858
4.36837
3.50671
2.40941
0.022161
0.107158
0.0220425
4.82762
0.0288286
0.0232282
0.0241858
0.0227443
0.0218884
0.107344
4.36174
0.021727
0.0237179
0.0218684
4.54184
0.0235664
5.33683
3.82397
1.31055
0.0220957
0.0218946
4.41698
0.398631
0.0221403
0.308034
0.0222288
0.144148
0.188886
0.0957689
0.05208
10.6789
0.021806
0.0218189
0.218134
3.2729
0.0295672
0.0472883
0.0219432
8.53904
0.0220175
0.0219557
0.0232135
0.0220028
5.22541
3.99758
2.21759
0.0608179
4.10231
0.620252
0.0216663
0.0313576
0.0217052
1.26738
0.0220221
0.0248778
0.0220049
0.0219265
0.0217966
2.92794
0.0228862
1.70457
0.0216152
0.032593
0.022945
1.56338
0.0220497
0.0318063
0.0354394
0.0705499
6.73767
0.0219228
4.17876
0.0695172
0.0458925
0.0219909
0.021956
3.45536
15.9286
0.0220389
0.0219021
0.259207
0.225708
0.038553
3.90026
0.0227674
0.641869
0.0315532
0.0217123
5.44715
0.0231022
3.89463
0.0220332
0.0227331
0.022122
4.22674
3.53366
0.0216818
0.244682
0.233634
0.0220617
0.0218824
0.0219044
0.259645
3.94394
0.0652932
0.0243788
0.0399628
0.0220338
0.0220569
0.0237678
0.0220081
0.190556
0.022069
0.0644104
0.643484
0.0363742
0.0216243
3.98041
0.07513
0.0220426
0.0818989
0.0308325
1.95458
0.0245188
10.206
0.0574209
0.0220008
0.0882365
0.0870904
0.0247626
5.74068
0.0606969
0.0300329
2.67258
0.0219472
0.153943
0.0886263
0.1294
0.0219462
0.0219825
0.0216467
0.0332992
0.0563973
0.0551511
6.44509
4.58303
3.85586
0.0222669
1.89763
3.70091
4.1395
0.0220064
0.0220336
0.0543678
4.15278
0.0241966
0.0356295
32.455
5.03498
16.7206
0.11442
0.16976
3.30651
0.395825
0.0216206
11.6902
0.282015
0.0223563
0.0223868
0.0228368
4.60144
0.0980682
5.24612
0.0240534
8.57756
0.022153
1.83798
3.77154
0.0222186
0.034437
4.18078
4.70237
0.0559894
0.022916
0.0237439
0.0223887
0.23126
0.125144
2.6777
4.05103
0.0217585
5.27848
0.170766
1.47426
0.022031
0.0221656
2.67386
0.260631
0.021967
0.0504923
0.0732639
0.0392268
4.09062
4.57775
4.54399
4.02795
0.0255334
0.0216754
0.0663142
4.45938
10.2273
0.0219689
0.27844
0.0920305
0.448743
0.0225393
0.0222566
1.20574
4.63976
7.02683
1.66928
4.1881
0.0219647
0.246678
4.01756
0.0222413
0.062454
0.108274
0.0216914
0.165341
4.82543
0.244577
0.0222556
5.24079
0.119506
27.2943
0.0215166
0.023742
0.0221744
0.0232323
0.0221394
0.0545047
0.0405938
0.042857
0.333834
0.0340847
4.17183
0.0253223
0.0291589
0.0282363
8.9243
0.0580085
4.90817
0.0282768
0.0278669
19.0175
0.097696
0.0220749
0.0429618
4.6091
5.27174
0.303681
0.0219827
0.0219169
0.0219434
1.7037
0.0231866
2.48585
1.32705
0.258655
0.0321926
0.264713
5.4906
0.0221401
7.28622
0.0337644
0.0511001
0.0219536
0.0219381
0.0538435
4.21856
0.022081
4.8821
0.526546
0.0995128
0.192459
0.0218839
0.0220266
0.0301632
0.0229901
25.431
24.7892
0.0850396
0.827786
0.0219693
0.0221097
0.0222012
0.0222458
7.50386
0.0232888
4.44323
0.0873921
0.0225693
0.392475
2.75818
3.39917
8.4508
0.0236313
0.0217997
0.0221312
0.0235989
0.738034
0.245058
5.62862
0.0221559
0.0224758
0.162259
0.0222602
0.201055
0.023695
0.152348
0.173376
0.0416187
0.0400866
0.0217358
0.0477002
0.0384487
0.213004
0.0808304
0.042619
0.021873
0.25065
0.0218943
3.32128
3.61706
0.930665
0.0220808
0.10989
0.0220269
0.0497974
0.0230369
0.0227704
0.028245
8.78175
4.03618
0.0792148
0.0477513
0.230568
0.0790083
3.95943
4.14204
0.031099
4.11463
0.362238
0.0218615
0.0565214
4.15899
0.0969917
0.0222366
0.0544342
2.25239
0.567994
8.55957
0.0221776
1.33354
0.0220982
0.0219376
0.0428523
0.48709
0.0222639
4.18604
5.09489
0.214807
11.1277
0.376183
4.65578
0.326129
0.0217331
0.0248916
0.0216646
0.0435062
0.299612
0.481343
0.0243933
0.0421066
0.021653
4.25684
0.0390872
0.0480565
4.05983
0.0997527
6.7243
4.57942
0.0219763
6.71193
0.0221177
0.0283647
0.0477664
3.8398
0.158365
0.027851
0.023309
0.5796
0.0347086
4.29445
5.94136
0.0324182
3.20542
0.046037
0.022273
1.16266
0.0631558
0.0230032
8.93454
15.1953
0.0301925
0.0260454
0.134822
5.97202
0.0219645
0.0222468
0.0216772
0.0217663
0.0223324
4.81269
0.0316792
3.87154
0.0219587
0.0219663
0.85692
0.0222279
0.0238412
0.0220592
0.0220356
2.74241
0.0217743
4.7286
0.0220343
0.0231566
0.0416947
0.0221768
0.144935
0.0217866
0.0222652
0.0218018
0.0279128
0.0898406
0.0246328
3.62626
0.0219425
0.0439684
0.0299966
4.13005
0.0227598
0.022269
0.0217307
0.0216973
0.398412
0.0219125
0.0219159
0.0247186
2.07803
0.0219379
0.0430506
0.0327799
0.0220253
4.86026
6.67427
0.345228
4.92672
0.0249866
0.114136
0.0221572
0.0999124
0.342249
0.0223612
2.56886
0.134347
4.6132
0.0308556
0.0220347
1.58881
0.0437054
0.805628
5.01662
0.0216002
0.0219913
7.45747
3.18598
0.060673
0.0568242
0.0230866
10.5173
5.72665
0.0215208
0.0219702
0.0221396
0.0221741
0.0222484
0.0220389
0.0354906
4.14419
0.0311748
0.0221983
0.432204
0.0219908
0.834285
0.0461893
0.0221392
0.0277125
0.0219216
0.372861
0.024912
0.0513053
0.0219686
0.0222932
4.43584
4.82299
0.0221774
0.0525038
0.0445346
0.0311582
0.0239264
0.0222713
0.0228519
1.63326
0.565106
0.0409353
4.8991
0.0225571
24.2344
0.10725
0.0259959
17.3084
0.0230726
4.26525
5.30749
3.38923
4.01547
4.02893
3.69438
0.0216698
0.0274066
0.024718
0.0216522
0.0217604
0.0294803
0.0760254
0.0217969
0.0294318
0.125514
0.076465
0.335439
0.209451
0.0339055
1.82229
9.51717
0.0339286
0.0248875
0.132558
8.70537
3.79781
0.0255508
0.0216411
0.0218775
0.0217919
0.0320992
3.76069
0.374887
0.0217729
4.59023
0.0219837
0.143152
4.13219
0.0817319
0.195619
0.0898762
0.33253
0.0228334
0.03329
0.0218708
0.239459
0.0219731
0.0230367
0.0335836
0.158794
0.0221774
0.0244574
5.38887
0.0218239
0.0220682
0.0290663
5.67233
0.116975
0.806052
0.0386894
0.02215
3.31764
0.037352
0.0233686
0.0220248
0.030881
0.0267326
0.0220346
0.0281833
4.44173
0.0236031
0.0216653
0.0469976
0.0218878
0.0317671
0.0301602
0.0220682
0.0219997
4.67372
0.0217244
0.0220347
0.021665
0.0257918
0.0214878
4.81607
0.025997
0.216715
0.0219627
0.0219266
0.0221074
4.25588
0.0659512
0.0220428
0.0216318
5.49977
0.02512
0.0678375
0.021864
0.151324
0.0234004
0.0215654
3.87446
0.021792
0.0222651
0.0221474
0.0220243
0.0241493
0.0221272
0.0220371
1.63239
1.52485
4.62609
0.294889
8.33977
0.0218668
4.52732
0.0219692
4.03521
7.91477
0.0218028
10.2882
0.021981
4.13978
11.6032
0.26535
4.06073
3.91873
0.831178
2.38552
6.07548
5.1967
0.0435437
0.0431319
4.60017
0.0235024
0.0216708
2.00439
0.0239487
0.0282693
11.8418
0.022991
0.803296
3.61665
6.30567
0.384746
0.120219
0.0222519
0.0282602
0.0483033
0.0222998
6.85626
0.36298
0.108724
0.0219162
0.0220697
8.04956
0.0217049
0.732321
0.021865
9.07401
4.42588
0.0336106
0.0261927
0.0220063
10.1983
4.04851
0.025452
0.0338854
0.0222858
0.0222855
0.0591877
0.0231721
0.0320407
0.0668281
0.0242765
0.0332918
0.0220415
0.0321422
15.1504
0.02258
10.7363
0.0219793
3.56307
0.0548687
0.0220403
9.90726
0.129147
0.0218577
0.155378
0.0220396
0.50932
0.0222042
0.0220138
3.8321
0.0221467
0.107729
0.0234426
0.141999
0.0218609
0.0223401
0.0218646
0.0300677
0.024244
0.0222987
0.0226034
0.0253542
0.022454
0.127007
0.0643637
0.0300735
0.0233581
0.0216541
2.35429
8.29935
0.0227776
0.0225348
0.0226534
0.0379904
0.0222299
0.0352919
0.0215772
0.0222853
0.220802
0.0233406
0.0222847
0.0219092
4.74554
10.9254
0.0216035
0.0720062
0.058057
0.239667
0.211785
6.6644
4.28481
0.660727
0.0229989
0.140977
0.02193
0.0313976
7.11751
4.38398
0.135298
0.0239378
15.3392
0.022043
0.046929
0.410641
0.0222318
0.139371
0.0234856
0.0232766
0.0753504
0.151576
3.91139
3.35186
0.0218386
0.0216102
4.74962
3.7329
0.0222421
0.0291429
0.125
0.0220577
0.022017
0.0241395
2.28474
0.02178
4.2308
0.0295071
0.0222534
0.27711
0.0749607
0.0693966
0.116774
4.87188
0.02442
0.0350762
0.0272411
0.0237658
9.58832
0.0320937
4.2302
4.0704
0.0667358
4.10843
0.0465743
0.0481027
0.348436
0.021734
4.22516
0.0898773
0.0337825
0.0291139
0.0221784
0.0216788
4.09765
0.0434488
4.24505
4.3195
0.022116
4.19961
0.0218408
0.0219626
0.0287719
11.2616
0.0761389
0.0217117
4.08561
0.0219984
0.0238174
3.89784
0.0237099
3.43276
0.0222728
4.35451
4.23541
0.0690739
2.59744
0.0233836
3.41917
0.0216452
5.28761
4.72763
4.37966
5.05562
0.0219472
0.0218448
0.24403
3.68168
3.41182
3.79952
3.7257
0.0221521
4.88903
3.40946
0.0224167
4.88332
0.031541
0.0332792
12.1213
0.0383568
4.36286
0.0219422
0.0380271
0.0349962
0.208367
6.24457
0.0369587
3.53514
4.44023
0.0221726
0.0246198
0.0238115
0.0249382
3.42547
0.0220164
0.021768
0.0394313
3.69876
3.9165
0.0283461
3.84948
4.15611
0.0219681
8.47176
4.66154
0.183499
3.96662
0.0671933
0.024399
0.0221732
0.158817
0.0265364
0.0816043
9.89154
4.50254
0.029095
0.074623
0.0257838
0.0395467
0.0216579
0.0425379
0.0247022
0.0918273
4.60706
6.92471
3.85724
0.0216843
0.134549
0.0642966
4.15862
0.0232301
4.64126
4.71302
4.16735
0.0222002
0.173512
4.49678
10.7606
7.36359
0.0366367
5.47381
3.84553
0.0640564
0.0696049
0.0241846
0.0293318
4.6814
0.0454423
0.0221868
3.26767
0.0220708
0.0223306
0.12626
0.126298
0.0218512
0.0901344
0.0247357
3.71173
10.7513