/*--------------------------------*- C++ -*----------------------------------*\
| =========                 |                                                 |
| \\      /  F ield         | OpenFOAM: The Open Source CFD Toolbox           |
|  \\    /   O peration     | Version:  v2012                                 |
|   \\  /    A nd           | Website:  www.openfoam.com                      |
|    \\/     M anipulation  |                                                 |
\*---------------------------------------------------------------------------*/
FoamFile
{
    version     2.0;
    format      ascii;
    class       surfaceVectorField;
    location    "700";
    object      Uf;
}
// * * * * * * * * * * * * * * * * * * * * * * * * * * * * * * * * * * * * * //

dimensions      [0 1 -1 0 0 0 0];


internalField   nonuniform List<vector> 
20673
(
(1.09438 0.126208 -1.24248e-20)
(1.09851 0.123759 -1.30449e-20)
(1.09383 0.121206 -1.05905e-20)
(1.02119 0.0425156 -3.50918e-23)
(1.01999 0.0418139 4.56227e-22)
(1.0202 0.0437903 5.06341e-23)
(0.523768 -0.0634217 1.31264e-20)
(0.558012 -0.0655942 -4.64843e-20)
(0.583983 -0.0667399 -7.66515e-21)
(1.05855 -0.00954543 5.63941e-21)
(1.05868 -0.00848887 -6.35049e-21)
(1.05758 -0.00891021 -8.34532e-21)
(0.996443 0.0032909 0)
(0.996263 0.00287116 0)
(0.995953 0.00343838 0)
(0.371983 0.0563 -1.39012e-19)
(0.360113 0.029134 -1.75038e-19)
(0.343123 0.0572353 -2.07479e-19)
(0.472223 -0.0550408 0)
(0.466851 -0.0565649 1.5995e-20)
(0.515772 -0.059383 1.31766e-20)
(0.582335 -0.0643417 -1.62852e-20)
(0.533878 -0.0618019 1.69611e-21)
(0.552568 -0.0645652 -1.3033e-20)
(0.41168 -0.0565402 0)
(0.381416 -0.0534525 -2.93142e-20)
(0.348522 -0.0495308 -2.01448e-20)
(1.13493 0.151584 -1.7838e-20)
(1.14104 0.15151 1.24912e-20)
(1.13866 0.157545 -1.14926e-21)
(1.12268 -0.0581665 -1.20762e-21)
(1.12121 -0.0587899 1.42977e-20)
(1.1236 -0.059745 -9.88321e-22)
(1.09694 -0.0407307 -9.40966e-21)
(1.09751 -0.0420897 -1.41091e-20)
(1.0982 -0.0404533 -1.79567e-20)
(1.05945 -0.00979787 1.06548e-20)
(-0.0254356 -0.000246695 1.68915e-21)
(-0.00454271 -0.0041771 -1.00617e-20)
(-0.0314796 -0.00171491 3.38064e-21)
(0.973041 0.0960959 2.03088e-21)
(0.968855 0.0954846 1.22698e-20)
(0.971958 0.0917819 4.30897e-21)
(0.994923 0.0915658 -6.55329e-21)
(0.992666 0.0890651 3.56753e-22)
(0.996367 0.0878457 7.06631e-21)
(1.01435 0.0482261 -4.82536e-22)
(1.01579 0.0479133 2.92405e-22)
(1.01466 0.046657 3.86142e-22)
(1.14084 0.0238773 -4.62064e-21)
(1.14176 0.0261973 -2.31674e-20)
(1.14363 0.0231915 0)
(1.09574 -0.0413626 8.43878e-21)
(1.09601 -0.039728 1.89543e-20)
(1.00155 0.00499338 0)
(1.00156 0.00477264 0)
(1.00138 0.00461109 0)
(0.999978 0.000903902 0)
(0.999965 0.00121874 4.00738e-21)
(0.999981 0.000914799 0)
(0.471035 -0.0557068 0)
(0.436169 -0.0552041 0)
(1.00087 0.00766389 -6.31651e-21)
(1.00092 0.00809651 -1.26188e-21)
(1.00105 0.00795766 -2.10109e-22)
(0.622858 -0.0697714 -9.19419e-21)
(0.632889 -0.0701887 -1.55086e-20)
(0.995166 0.0148684 0)
(0.994687 0.0146562 0)
(0.994915 0.0154457 0)
(0.522082 -0.0564058 -1.72073e-20)
(0.485757 -0.0529037 1.00996e-20)
(0.482054 -0.0545021 -1.01352e-20)
(0.788437 0.0343625 -6.86163e-20)
(0.779457 0.039938 4.51143e-20)
(0.780718 0.0280622 -1.9933e-20)
(0.760741 0.11846 -4.22198e-20)
(0.759222 0.130967 -3.82686e-20)
(0.750317 0.121757 3.52206e-20)
(0.715601 0.555333 1.19097e-20)
(0.746618 0.565669 0)
(0.724943 0.599097 0)
(1.19202 0.0971028 4.29216e-20)
(1.19153 0.0924149 -6.74348e-21)
(1.19645 0.0934061 4.52902e-20)
(1.11249 0.11337 -1.32897e-20)
(1.10934 0.116341 0)
(1.1083 0.111779 -1.53121e-20)
(1.06158 0.0918009 -1.73323e-21)
(1.05869 0.0924399 -4.9469e-22)
(1.05962 0.0891156 1.2841e-20)
(0.841763 0.0693514 -1.8729e-20)
(0.833984 0.0720456 -4.95174e-20)
(0.835305 0.062605 4.52473e-21)
(0.908031 0.00143372 -2.20203e-20)
(0.910794 -0.0015533 -1.02794e-20)
(0.912046 0.0023448 -1.48548e-21)
(0.991497 0.0115606 -3.7192e-21)
(0.990949 0.0121976 7.89275e-22)
(0.991659 0.0124585 -3.09896e-21)
(1.1314 -0.0751648 -1.17688e-21)
(1.1317 -0.0753886 -1.43125e-20)
(1.12128 -0.0776129 -3.58839e-20)
(1.00073 0.00733634 -2.00673e-21)
(1.00087 0.00724131 3.36176e-22)
(0.115239 -0.0267843 -1.54621e-20)
(0.090554 -0.0236455 8.3306e-21)
(0.102386 -0.0244032 -9.85992e-21)
(1.06542 -0.0134737 -2.64637e-21)
(1.06637 -0.0142535 1.72125e-20)
(0.274147 -0.00660435 -4.56425e-21)
(0.250408 -0.0034697 0)
(0.27803 -0.00605714 0)
(1.00845 0.000929339 -2.71263e-22)
(1.00884 0.000914508 4.57122e-23)
(1.00801 0.000526905 1.74428e-22)
(0.999994 0.000644764 -2.81547e-21)
(1 0.000299641 -4.18232e-21)
(0.999999 0.000329242 9.35276e-22)
(1.02133 0.00279814 -3.67273e-21)
(1.021 0.0029587 5.63938e-23)
(1.0209 0.00262917 3.72991e-21)
(0.696351 0.194046 -1.11112e-20)
(0.712743 0.201766 1.22822e-22)
(0.695808 0.215788 1.79189e-20)
(1.03861 0.0254369 -3.56493e-21)
(1.03953 0.0262059 -4.43245e-22)
(1.03982 0.025313 0)
(0.890859 0.0173337 0)
(0.889448 0.0127635 -2.41479e-20)
(0.89482 0.0139378 0)
(1.14013 0.0207223 2.96793e-21)
(1.13783 0.0237545 -2.27304e-20)
(1.14536 -0.0081957 -1.21321e-20)
(1.14385 -0.00596077 -2.65479e-20)
(1.14266 -0.00856727 4.60682e-22)
(0.0905392 0.121834 -4.39312e-20)
(0.0899102 0.157462 1.18432e-19)
(0.119636 0.136339 1.32524e-19)
(1.00326 0.000744693 -1.03266e-21)
(1.00356 0.000676067 -8.99392e-22)
(1.0035 0.00104504 -1.36036e-22)
(1.08646 0.0177665 -1.29198e-20)
(1.08745 0.0187912 -7.62342e-21)
(1.08801 0.0172492 -5.02668e-21)
(0.966145 0.00985361 -1.28137e-20)
(0.964931 0.00851621 -4.13852e-21)
(0.964545 0.0105993 2.30806e-21)
(0.0842608 0.0919368 -1.20502e-19)
(0.0508867 0.124309 -2.43601e-19)
(0.904945 0.00452202 -3.75201e-20)
(0.903826 6.8846e-05 1.75121e-21)
(1.01406 0.0497586 -7.0197e-22)
(1.01277 0.0482775 -2.57798e-22)
(1.08582 0.0400206 1.08188e-20)
(1.08501 0.0420249 0)
(1.08751 0.0417828 0)
(1.12445 -0.057669 0)
(1.12268 -0.0564654 0)
(0.994999 0.0304295 1.65623e-21)
(0.995048 0.0289911 6.20263e-21)
(0.996089 0.0299949 -4.91822e-21)
(1.07109 0.0459317 0)
(1.07314 0.0470097 -5.28498e-21)
(1.07108 0.0483059 7.46321e-21)
(1.03744 0.0255301 -3.56201e-21)
(1.03764 0.0246439 -1.86999e-21)
(0.610719 0.0588249 1.4224e-20)
(0.461934 0.0415124 2.95336e-22)
(0.519446 0.0458155 5.3495e-20)
(1.02248 0.0418542 -1.46742e-21)
(1.02251 0.0438029 5.80864e-22)
(-0.0237245 0.0020095 9.19642e-21)
(1.00154 0.00519139 -1.49211e-21)
(1.00173 0.00536645 0)
(0.379647 0.0910602 1.34e-19)
(0.403256 0.0606639 9.23487e-20)
(1.13134 0.390164 -3.12996e-20)
(1.09388 0.362865 1.82624e-20)
(0.837731 0.279298 1.58999e-20)
(0.995734 -0.000544271 -3.04263e-22)
(0.995276 -0.000384641 -4.1445e-21)
(0.987732 -0.0012863 5.87276e-21)
(0.988486 -0.00133662 -1.73682e-20)
(1.16008 -0.0415854 -6.14526e-21)
(1.15832 -0.0428904 -4.33613e-20)
(1.16158 -0.0437789 -1.41296e-20)
(1.06 0.136519 -3.57139e-21)
(1.06525 0.136603 -2.84232e-21)
(1.06173 0.142473 -3.04329e-21)
(0.996864 0.00318856 -3.29191e-21)
(0.996577 0.003702 2.04722e-21)
(0.476894 -0.0633406 1.52423e-20)
(0.441906 -0.0602196 0)
(-0.101996 -0.0132743 2.83895e-20)
(-0.0780582 -0.0164649 6.91083e-21)
(-0.0854544 -0.0156051 -2.09684e-20)
(0.995818 0.0150427 0)
(0.995556 0.014107 0)
(0.0907962 0.192317 0)
(0.125586 0.210757 6.46519e-20)
(0.0928671 0.230949 -7.91817e-20)
(1.09019 -0.0478597 4.47674e-21)
(1.08953 -0.0471498 -1.09031e-21)
(1.09052 -0.0467875 1.02148e-21)
(-0.1064 -0.00702272 -2.23734e-21)
(-0.0822534 -0.0110527 6.84529e-20)
(-0.0974848 -0.00715442 4.38672e-20)
(1.05425 0.028095 -3.20283e-21)
(1.05559 0.0286764 -4.3327e-21)
(1.0544 0.0296471 2.28544e-21)
(0.49765 -0.0475936 -7.41998e-22)
(0.494562 -0.0497201 -1.16046e-20)
(0.532777 -0.0516695 5.68463e-21)
(0.99993 0.00184599 -7.78231e-23)
(0.999877 0.00215936 3.75108e-21)
(0.999897 0.00220368 0)
(1.00005 0.00303569 2.90187e-21)
(1.00006 0.0033468 6.78779e-21)
(1.00008 0.00296657 -4.43983e-22)
(0.996142 -0.000243995 1.27878e-21)
(0.389423 0.117445 5.57416e-20)
(0.400026 0.1476 -7.54885e-20)
(0.421329 0.123395 6.28356e-20)
(0.14378 -0.0308906 0)
(0.13201 -0.030226 0)
(-0.0690145 0.0189057 -7.59351e-20)
(-0.111198 0.0157719 -1.10739e-20)
(-0.099799 0.0154134 4.64235e-20)
(1.05283 0.0276093 -3.08198e-21)
(1.05402 0.0267464 5.0272e-22)
(1.00036 0.00426051 -4.35621e-22)
(1.00042 0.0041836 -2.30426e-21)
(1.0003 0.00385359 -8.84887e-23)
(1.14612 0.4172 5.00984e-20)
(1.22152 0.443001 -2.93819e-21)
(1.08491 0.0167177 6.36226e-21)
(1.08462 0.0185056 -4.48669e-21)
(1.02163 0.00270722 -2.8373e-21)
(1.02172 0.00302668 -3.14553e-21)
(-0.00439777 -0.0228211 1.15547e-20)
(-0.0311226 -0.0200918 -7.21263e-21)
(-0.0187744 -0.0208322 -3.80402e-20)
(1.17766 0.130627 -5.22023e-21)
(1.17178 0.132725 1.93439e-20)
(1.1752 0.136982 8.73879e-21)
(1.02337 0.0246765 1.23292e-21)
(1.02374 0.0238971 0)
(1.02273 0.0238413 0)
(0.974108 0.0524653 0)
(0.97204 0.0536686 4.03719e-21)
(0.974488 0.0549936 0)
(1.19908 0.439642 -8.02161e-21)
(1.08252 0.414189 3.70328e-20)
(0.374076 0.00209987 0)
(0.40287 -0.00505844 5.0754e-20)
(0.379994 -0.0325077 0)
(1.13615 -0.0430224 8.35163e-21)
(1.13793 -0.0428676 -2.55342e-20)
(1.13737 -0.0448578 3.96413e-21)
(1.14258 0.000725427 -2.5944e-20)
(1.14517 0.000991947 -2.4911e-20)
(1.14368 0.00311081 -4.9992e-20)
(1.09501 -0.0566559 0)
(1.09443 -0.0574904 7.37063e-21)
(1.09385 -0.0568721 -1.40655e-20)
(0.594653 0.129494 4.56818e-20)
(0.614652 0.115078 6.91416e-20)
(0.61646 0.141391 6.70806e-20)
(1.01106 0.00579886 -1.16378e-22)
(1.01152 0.00591488 7.27355e-22)
(1.01133 0.00630668 -3.41693e-22)
(0.841011 -0.00226667 4.1266e-21)
(0.844385 0.00508223 -1.08026e-19)
(0.84853 -0.00163861 -5.25559e-20)
(0.680088 0.187282 2.14885e-21)
(0.698042 0.178806 2.55258e-20)
(1.06198 0.022684 0)
(1.06325 0.0224878 7.01306e-21)
(1.06222 0.0211918 3.53144e-21)
(1.01634 0.0127313 -2.84189e-22)
(1.01638 0.0121562 -1.67498e-21)
(1.01694 0.0127057 -1.5421e-21)
(0.431989 -0.054051 0)
(0.422214 -0.0537747 4.67227e-21)
(0.499052 -0.0551325 -1.38221e-20)
(0.818782 0.492888 8.14876e-21)
(0.790766 0.510772 1.35974e-20)
(0.829437 0.518784 3.46579e-21)
(1.14647 -0.0097572 0)
(1.14756 -0.00763489 0)
(1.01736 0.0475312 -1.67385e-22)
(1.01726 0.0492902 -2.62893e-22)
(1.11097 0.12614 -3.26171e-20)
(1.10735 0.128799 -1.55903e-20)
(1.11205 0.131079 -3.60355e-20)
(-0.147376 -0.0111647 -8.2563e-20)
(-0.177768 -0.0102952 4.70559e-20)
(-0.164388 -0.0106297 -4.01322e-20)
(0.290504 -0.00944774 -2.87027e-21)
(0.267368 -0.00602604 1.14095e-21)
(1.09897 -0.0472797 3.11495e-21)
(1.09803 -0.047746 2.41596e-20)
(1.09891 -0.0483339 -1.5339e-20)
(0.431509 -0.0552744 0)
(0.368308 -0.0540495 -5.32994e-20)
(0.949158 0.0080017 -1.03979e-20)
(0.947751 0.0100112 1.52133e-20)
(0.947074 0.00727535 -1.46367e-20)
(0.0881048 -0.132847 -9.67339e-21)
(0.0992969 -0.102905 8.22696e-20)
(0.0610325 -0.107807 1.09407e-19)
(1.00086 0.0136031 1.30761e-21)
(1.00093 0.0142509 -4.01677e-21)
(1.00057 0.0139119 -1.52531e-21)
(0.18112 0.0953208 2.05232e-21)
(0.211205 0.0768846 -8.06849e-21)
(0.212309 0.112039 -1.58672e-20)
(0.142869 -0.00750513 -2.72329e-21)
(0.150443 -0.00929128 0)
(0.163361 -0.0127073 1.18473e-20)
(0.907439 0.0124634 2.60486e-20)
(0.904593 0.0156856 -1.12852e-20)
(0.909192 0.0161895 1.604e-20)
(1 0.000979048 -5.90049e-22)
(0.999986 0.000964032 -3.6438e-22)
(1.16169 -0.0403918 3.1946e-20)
(1.15916 -0.0398719 3.84393e-20)
(0.106571 -0.00896055 0)
(0.12643 -0.0127773 -7.06173e-21)
(0.119176 -0.0120922 1.62488e-20)
(0.762672 0.106627 2.00727e-20)
(0.774288 0.115376 -1.78522e-20)
(1.00494 0.000653484 -9.18402e-23)
(1.00517 0.000951207 3.57646e-22)
(1.00527 0.000556965 0)
(0.974086 0.0497883 3.11253e-21)
(0.976363 0.0511293 -1.05663e-20)
(1.03451 0.0284837 1.48719e-21)
(1.03526 0.0294049 -1.86656e-21)
(1.03415 0.0294254 1.37344e-21)
(1.00463 0.000667649 -8.22329e-23)
(1.0045 0.000327153 1.95864e-22)
(1.01816 0.00203279 -3.0693e-23)
(1.01843 0.00186937 -3.70806e-22)
(1.01809 0.00173709 -2.44402e-21)
(0.345945 0.00311091 0)
(0.222378 -0.0286191 -5.96237e-21)
(0.211565 -0.025897 8.82107e-21)
(0.200955 -0.0229601 -7.27107e-21)
(0.950709 0.00563353 9.19792e-21)
(0.951696 0.0083793 -3.40938e-21)
(1.04041 0.0269477 -3.80586e-22)
(1.03917 0.027143 2.21032e-21)
(0.999967 0.000877194 -3.47446e-21)
(0.999996 0.000597425 3.79932e-21)
(1.25476 0.00293644 2.82546e-20)
(1.26704 0.00572122 5.47045e-20)
(1.23018 -0.00446599 -6.38632e-20)
(0.669059 -0.0744399 1.62939e-20)
(0.612434 -0.0700612 1.78912e-20)
(1.09462 0.130944 9.78978e-24)
(1.09022 0.127988 2.96139e-21)
(0.578143 0.140619 -1.25678e-19)
(0.578636 0.112726 5.60936e-20)
(0.995234 7.75349e-05 1.29069e-20)
(0.994781 -0.000278569 -3.45054e-21)
(0.906023 0.00850346 -2.21532e-21)
(0.910268 0.00967488 2.38894e-20)
(1.12873 -0.0733279 1.24946e-20)
(1.12557 -0.0730933 -2.69324e-21)
(1.11896 -0.0708411 -1.19043e-20)
(1.02527 0.0135501 -8.99986e-23)
(1.02519 0.0141222 -1.92292e-21)
(1.02449 0.0135786 2.32911e-21)
(0.963238 0.0218979 -5.93363e-21)
(0.961083 0.0226506 -1.26734e-20)
(0.961834 0.0200315 1.842e-21)
(0.663257 0.191137 -1.7489e-21)
(0.642952 0.197337 4.90097e-20)
(0.661411 0.214041 -6.91772e-20)
(0.987509 -0.000549278 6.97779e-21)
(0.986947 -0.00112445 3.64876e-21)
(0.676532 -0.0640212 -1.30839e-20)
(0.600461 -0.0605501 -1.13255e-20)
(0.672447 -0.063187 -3.34942e-20)
(0.8078 0.597769 0)
(0.81541 0.568493 4.61823e-21)
(0.780757 0.5696 0)
(0.967452 0.011478 -7.50381e-21)
(0.968025 0.00930629 3.29167e-22)
(1.02384 0.0114279 3.56022e-21)
(1.02388 0.0119792 -3.51892e-21)
(1.02321 0.011466 1.01342e-21)
(1.05624 0.0989559 0)
(1.05264 0.0993497 -3.07181e-21)
(1.0551 0.103177 -4.96094e-21)
(1.12002 -0.0181925 3.73825e-21)
(1.12156 -0.0196737 -1.23219e-20)
(1.12141 -0.0169865 -1.92848e-20)
(0.112176 -0.154128 -9.18907e-20)
(0.0727129 -0.163477 -7.21664e-20)
(1.11667 -0.041064 -1.76187e-21)
(1.11833 -0.0415922 7.81327e-21)
(1.11673 -0.0425826 6.31425e-21)
(1.02193 0.181501 -1.94534e-21)
(1.02505 0.176699 2.56749e-22)
(1.02948 0.18082 -8.34234e-21)
(1.07857 0.0652271 -8.79338e-21)
(1.07647 0.0671132 5.43827e-22)
(1.07581 0.0641803 2.28704e-21)
(-0.0311896 0.0501739 4.77261e-20)
(-0.0500216 0.0563942 7.01708e-20)
(-0.0828324 0.0488154 7.62933e-20)
(1.05501 0.136973 0)
(1.05791 0.132167 5.42708e-21)
(1.08901 -0.0769236 0)
(1.1228 -0.0738671 -2.39991e-20)
(1.13193 -0.0737453 8.39761e-21)
(-0.13723 -0.00493952 -3.69157e-20)
(-0.113517 -0.00767373 2.11501e-20)
(1.2787 0.0054639 -4.07413e-20)
(1.22306 0.0044936 3.49847e-20)
(0.941444 0.0438748 6.89684e-21)
(0.938635 0.0454785 1.95535e-20)
(0.938521 0.0418534 2.5026e-20)
(0.789327 -0.0289716 6.77065e-21)
(0.783648 -0.0204963 -4.84082e-20)
(0.777776 -0.0314768 -3.23787e-20)
(1 0.00232393 3.86539e-22)
(1.00002 0.00224077 -2.81002e-21)
(0.999982 0.001905 -1.44083e-21)
(1.13408 -0.0438403 -1.33935e-21)
(1.13478 -0.041564 4.19596e-21)
(1.1002 -0.0468273 -8.96902e-21)
(1.09904 -0.0460679 -1.16709e-20)
(1.09543 -0.0558982 -1.06601e-20)
(1.0961 -0.0565285 -1.58416e-20)
(1.06174 0.0239616 4.6228e-21)
(1.06073 0.0227517 1.04367e-22)
(1.13146 -0.00942892 -1.21688e-20)
(1.13018 -0.0111306 1.79971e-20)
(1.13267 -0.0115649 1.90452e-20)
(1.03237 0.0214796 -2.0844e-21)
(1.03318 0.022133 -1.76127e-21)
(1.03213 0.0223415 2.28224e-21)
(0.837864 -0.00854728 4.93972e-20)
(0.8333 -0.0013829 5.51132e-20)
(1.04697 0.175838 1.20246e-20)
(1.03984 0.175194 -5.21085e-21)
(1.04508 0.16922 -5.94758e-21)
(-0.284422 0.000516389 2.31761e-20)
(-0.300712 0.00193686 -4.038e-20)
(-0.27105 0.000252778 0)
(1.09589 -0.049598 -8.59481e-21)
(1.09641 -0.0505076 -9.82908e-21)
(1.09694 -0.0495419 0)
(1.0131 0.0560771 -3.02897e-21)
(1.01302 0.0578756 7.59826e-22)
(1.01126 0.0566228 -1.17624e-21)
(0.7758 -0.0680523 -4.0397e-21)
(0.767505 -0.0684296 1.94871e-20)
(0.839851 -0.0683348 3.13829e-20)
(1.01391 0.199208 1.71764e-21)
(1.01097 0.204119 2.63982e-21)
(1.01872 0.20405 7.76867e-21)
(0.233046 -0.0291467 -2.37633e-20)
(0.248134 -0.0320294 -3.16645e-21)
(0.150264 0.078367 2.11877e-20)
(0.150788 0.115741 1.68054e-20)
(0.690348 -0.0652442 -3.62722e-20)
(0.758582 -0.0654118 0)
(1.01235 0.0268343 5.91174e-22)
(1.01303 0.0275317 4.11005e-22)
(1.01217 0.0276968 -3.80013e-22)
(1.18316 0.129294 -3.24995e-21)
(1.17957 0.125164 2.52252e-21)
(1.11747 0.114967 -1.35857e-20)
(1.11612 0.110416 1.77696e-20)
(1.02598 0.0134727 1.76406e-21)
(1.02525 0.0129495 -8.2299e-23)
(1.00033 0.0043604 3.02662e-21)
(1.00042 0.00470518 2.24817e-21)
(0.936048 0.116485 3.60014e-21)
(0.932184 0.11249 1.58714e-20)
(0.93826 0.112007 2.96465e-21)
(0.566735 -0.0601025 -5.88533e-21)
(0.562288 -0.0602115 1.72123e-21)
(1.25183 0.137605 -7.01178e-20)
(1.25926 0.13562 4.62082e-20)
(1.26032 0.142559 -7.36723e-20)
(-0.0128503 0.0502418 -3.71998e-20)
(0.0570564 0.0652834 -8.22862e-20)
(1.11621 0.0439834 -6.1892e-21)
(1.11571 0.046485 -2.88826e-21)
(1.11839 0.0453631 4.08348e-20)
(1.10322 -0.0551648 7.14571e-21)
(1.10229 -0.0554403 3.09451e-20)
(1.10285 -0.0562513 1.10871e-21)
(1.14131 -0.0712269 8.13529e-21)
(1.14825 -0.0731246 -1.14856e-20)
(1.15141 -0.0726167 2.0821e-21)
(-0.021138 0.0212398 8.69583e-21)
(-0.0348326 0.0208497 -7.38985e-20)
(1.24639 0.181096 2.72806e-20)
(1.24667 0.174445 4.16923e-20)
(1.25463 0.178399 1.30653e-20)
(0.999719 0.00803108 9.7044e-21)
(0.99981 0.0076481 3.31335e-21)
(0.999642 0.00753456 -2.32478e-21)
(0.567107 0.0510232 3.72993e-20)
(0.57259 0.0710146 -1.00426e-19)
(0.547877 0.0651716 -1.75987e-20)
(0.796915 0.0310388 -7.47889e-20)
(0.796024 0.0421943 -2.29649e-20)
(1.00961 0.000390026 0)
(1.00924 0.00038554 -1.74956e-22)
(1.02294 0.025326 1.9385e-22)
(1.02403 0.0254701 -1.43703e-21)
(0.866744 0.45996 0)
(0.861527 0.432823 1.69538e-20)
(0.888409 0.441611 0)
(1.22416 0.488216 8.23544e-21)
(1.22762 0.46837 -1.1348e-20)
(1.14056 0.444559 -9.62015e-21)
(1.07797 0.000180396 -1.51821e-21)
(1.07912 -0.000580981 6.13174e-21)
(1.07938 0.00080455 1.21562e-20)
(1.00308 0.000893086 -2.18777e-22)
(1.00307 0.000559024 -4.31346e-22)
(1.12516 -0.0125891 -8.8111e-21)
(1.1237 -0.0109442 2.8424e-20)
(1.1264 -0.0106392 -3.21869e-22)
(1.1189 -0.0198323 -8.11079e-22)
(1.11813 -0.0173231 3.71706e-21)
(-0.117908 -0.0113359 -2.09423e-20)
(-0.124651 -0.0108479 -7.51083e-21)
(1.23764 -0.0277943 -1.61259e-21)
(1.23673 -0.0298774 2.57842e-20)
(1.23649 -0.0277645 4.14477e-21)
(0.991979 0.0111456 -3.52399e-21)
(0.991508 0.0109411 7.49223e-21)
(0.993924 0.0306536 -2.31163e-22)
(0.994928 0.0316111 -3.08385e-21)
(1.14021 0.00043072 2.82118e-22)
(1.14141 -0.00165689 2.46746e-20)
(0.54001 -0.0624668 -1.36608e-21)
(0.595769 -0.0652269 4.95959e-21)
(0.578486 -0.0646333 8.43133e-21)
(0.96511 0.0209244 5.47237e-21)
(0.964803 0.0232931 -1.02061e-20)
(0.459127 -0.0571465 3.99076e-21)
(0.449356 -0.0569905 4.73797e-21)
(0.501308 -0.0600502 -4.99655e-21)
(-0.171768 -0.00614853 1.43521e-20)
(-0.147097 -0.00782585 -2.94478e-20)
(-0.165851 -0.00600236 0)
(1.10362 -0.0541786 -1.53754e-20)
(1.10449 -0.0552751 1.35137e-20)
(1.01586 0.0126572 1.95358e-21)
(1.01631 0.0131838 7.95279e-22)
(0.493188 0.38586 -1.08497e-20)
(0.512874 0.420789 1.10511e-19)
(0.459893 0.421718 1.45376e-21)
(1.13288 -1.28523e-05 -2.00151e-20)
(1.13537 4.89375e-05 1.68634e-22)
(1.13389 0.00219538 -1.21511e-21)
(-0.262918 -0.00441196 8.31706e-20)
(-0.232469 -0.00755132 -6.5932e-20)
(-0.249193 -0.00390817 -1.27568e-19)
(1.00275 0.0181326 -7.6521e-22)
(1.00313 0.0185657 5.79811e-24)
(1.00275 0.0189343 -2.68007e-21)
(0.759749 0.080049 -4.68947e-20)
(0.714388 0.0778621 -5.13071e-20)
(1.0116 0.0260269 3.60091e-22)
(1.01246 0.0259684 1.05473e-22)
(1.18806 0.072118 -2.91477e-20)
(1.18447 0.0699405 2.67928e-21)
(1.18436 0.0740742 -2.14284e-20)
(1.0083 0.00120961 -2.91709e-22)
(1.00809 0.000835935 -1.72308e-22)
(0.0935367 -0.028889 -6.46004e-21)
(0.0693655 -0.0269872 3.44892e-20)
(0.0874219 -0.0278036 1.93776e-20)
(0.413956 -0.053353 -3.90068e-21)
(0.404577 -0.0531156 1.33953e-20)
(0.478407 -0.0536841 1.62743e-20)
(0.994363 0.0948506 -1.08477e-21)
(0.997957 0.093653 -1.31543e-21)
(1.17431 0.48216 -9.47117e-21)
(1.21667 0.494588 -1.8609e-20)
(1.18525 0.463806 6.496e-21)
(1.08138 0.065953 0)
(1.08008 0.0631604 0)
(1.01516 0.0125193 -2.26581e-22)
(1.01529 0.0119711 6.46834e-23)
(1.1256 -0.0740902 2.04466e-20)
(1.13093 -0.0755557 2.53598e-20)
(1.0948 -0.0496766 1.45199e-20)
(1.09529 -0.0486386 -9.13388e-21)
(1.11415 0.0426353 -3.0685e-21)
(1.11652 0.0415477 -1.49296e-20)
(0.646149 -0.0696758 6.27843e-21)
(0.600628 -0.0684929 -1.51417e-20)
(0.6682 -0.0704159 2.01894e-20)
(-0.17963 -0.00322963 9.14503e-21)
(-0.200079 -0.00271858 2.55921e-20)
(1.01212 0.00319217 -4.50295e-22)
(1.01253 0.00324684 -4.04914e-22)
(1.01231 0.00280873 -4.27112e-22)
(1.06447 0.0908645 -2.04354e-21)
(1.06373 0.0945583 4.65624e-21)
(0.0141691 -0.0257563 3.65677e-20)
(0.0263702 -0.0263663 3.01665e-20)
(-0.124251 0.0203604 2.69204e-20)
(-0.152753 0.0179189 -7.03845e-20)
(-0.127647 0.0207905 0)
(0.999984 0.00228993 5.35423e-21)
(0.999966 0.00268331 5.04088e-21)
(1.00597 0.00891177 4.74774e-22)
(1.00638 0.00917684 -2.02104e-21)
(1.00614 0.00937224 -2.48544e-21)
(0.314019 -0.00585819 4.39704e-21)
(0.331613 -0.00868214 8.27558e-21)
(1.1434 -0.043916 4.04706e-20)
(1.14164 -0.0445014 -9.39374e-21)
(1.14276 -0.0461447 2.07762e-20)
(1.00006 0.000129333 -5.3912e-22)
(1.00002 9.86083e-05 -6.51873e-22)
(1.00005 0.000162308 1.36419e-22)
(1.1098 -0.0710488 -5.50638e-22)
(1.10738 -0.0707109 6.20184e-22)
(1.10537 -0.0692692 8.71231e-21)
(1.17658 0.017462 -5.26883e-22)
(1.17545 0.0142957 -2.06931e-20)
(1.1729 0.0172209 2.3839e-22)
(0.798601 -0.0288343 6.89645e-20)
(0.79411 -0.0385234 4.63483e-20)
(1.09113 0.109218 -1.65412e-21)
(1.0941 0.11276 -2.64497e-20)
(1.09476 0.107798 -1.01264e-20)
(1.00002 0.00264454 -1.34892e-21)
(1.00004 0.00222381 4.5157e-22)
(0.979888 0.210348 0)
(0.981328 0.200728 -2.90398e-21)
(0.971631 0.204863 0)
(-0.144623 -0.0061938 2.52551e-20)
(-0.142424 -0.00532196 0)
(-0.173866 -0.0023001 -4.14369e-20)
(1.04191 0.00472302 -1.68091e-21)
(1.04218 0.0040773 0)
(1.04293 0.00463371 -4.18669e-21)
(1.19923 0.144596 -6.52485e-21)
(1.19376 0.14793 -2.27743e-20)
(1.1943 0.140291 -2.21071e-20)
(0.567992 0.158157 -5.95988e-20)
(0.583325 0.17893 7.78639e-20)
(0.553458 0.184099 3.29181e-20)
(1.03375 0.0275364 1.13208e-21)
(1.03482 0.0274397 0)
(0.995149 0.0277108 5.177e-22)
(0.994175 0.0280622 5.88356e-21)
(1.11158 -0.0350526 3.40432e-20)
(1.1132 -0.0359191 -1.70676e-20)
(1.11146 -0.0366993 1.72136e-20)
(0.343557 -0.0146465 0)
(0.329476 -0.0119745 0)
(0.327077 -0.0121645 -8.24988e-21)
(1.11497 -0.0408052 -1.09596e-20)
(1.11657 -0.0395655 -1.91659e-20)
(0.93895 0.120899 2.69831e-22)
(0.933356 0.12201 -6.21455e-22)
(0.97696 0.0960464 7.48336e-21)
(0.974315 0.0997941 5.97928e-21)
(1.00005 0.000280514 1.31576e-21)
(1.00005 0.000243855 1.56684e-22)
(1.00002 0.000164084 -2.49463e-22)
(0.0875034 -0.00584986 -2.4674e-21)
(0.0946777 -0.006331 2.02838e-21)
(0.583804 -0.0357579 3.21906e-20)
(0.671419 -0.0382408 -8.43906e-23)
(0.666575 -0.0360198 3.00957e-20)
(1.10402 -0.070156 1.51792e-20)
(1.10784 -0.0712853 3.54216e-20)
(1.11051 -0.0717977 1.85714e-20)
(1.01462 0.012441 -1.14463e-21)
(1.01509 0.0130006 -1.66954e-21)
(-0.153491 -0.00993385 0)
(-0.127225 -0.0128679 -1.58622e-20)
(-0.138066 -0.0114213 0)
(-0.00582188 -0.00875392 1.62056e-21)
(-0.00075562 -0.00781475 0)
(-0.0251193 -0.00450998 -2.34447e-20)
(1.03553 -0.0769305 0)
(1.05338 -0.0771257 -9.62625e-21)
(0.495761 -0.0477285 -3.05643e-21)
(0.467115 -0.0468751 -5.74347e-22)
(1.09085 -0.0484 -3.27863e-21)
(1.08994 -0.048645 2.44789e-22)
(1 0.00307443 -3.67524e-21)
(1.00631 0.00073561 3.80491e-23)
(1.00597 0.000785166 0)
(1.00637 0.00115647 0)
(1.13962 0.0186281 -3.29988e-21)
(1.13703 0.0183668 -1.15318e-20)
(1.1389 0.016153 1.70982e-21)
(0.0266019 -0.0208351 -6.40504e-20)
(0.00845714 -0.0177154 -2.27136e-20)
(0.00316142 -0.0175643 1.4414e-20)
(1.16477 -0.0192383 1.26699e-22)
(1.16655 -0.0173943 1.21679e-20)
(1.16735 -0.0206086 2.61017e-20)
(1.069 0.0450676 -3.64397e-21)
(1.0709 0.0439018 0)
(1.2337 -0.0271367 -1.30658e-20)
(1.20261 -0.0342665 -2.49392e-20)
(1.08362 -0.0336276 5.21888e-21)
(1.08269 -0.0329842 -2.1683e-20)
(1.01808 0.0011395 -6.65084e-23)
(1.01804 0.00141585 1.37705e-21)
(1.01831 0.00128153 -1.20706e-21)
(0.952489 0.0286213 -1.51737e-20)
(0.944392 0.0228413 2.83092e-20)
(0.852108 0.00952012 -7.20661e-20)
(1.00197 0.00487526 -2.9223e-22)
(1.00198 0.0046612 1.39898e-21)
(1.00178 0.00453295 2.65851e-23)
(0.775062 -0.0690311 -3.47434e-20)
(0.705477 -0.0679832 -2.02938e-20)
(1.07669 0.00124435 -1.86274e-22)
(1.07637 -0.00016153 -9.96199e-21)
(1.00006 0.000100228 0)
(1.00009 0.000158658 0)
(1.00067 0.108636 5.65879e-21)
(0.999441 0.113284 -2.81655e-21)
(0.996653 0.108874 1.43372e-21)
(1.02007 0.187217 7.39764e-22)
(1.01564 0.181864 1.71699e-22)
(0.778379 -0.0107487 2.60315e-20)
(0.788635 -0.0102113 -7.48888e-20)
(1.11797 -0.0730622 7.36821e-21)
(1.11281 -0.0714013 -1.10334e-20)
(0.998074 0.142911 -1.71845e-21)
(0.998322 0.149001 -1.96114e-21)
(0.99237 0.144931 4.46023e-21)
(1.04476 0.0107101 1.49486e-20)
(1.04538 0.0115625 4.76639e-21)
(1.04426 0.0113289 -1.09957e-21)
(1.23747 0.0196683 -5.24406e-20)
(1.24067 0.0235383 -5.16775e-20)
(1.2563 0.0205583 -7.88605e-20)
(0.684849 -0.0704201 0)
(0.620334 -0.0700188 0)
(0.507491 -0.041088 2.95029e-21)
(0.513157 -0.0398024 2.86506e-21)
(1.00232 0.0178701 -2.93113e-22)
(1.00268 0.0175181 -4.43257e-22)
(1.01819 -0.0747927 1.36351e-20)
(1.06449 -0.0730838 1.35871e-22)
(1.00678 -0.0739202 -7.77922e-21)
(0.998498 0.00022219 -1.01714e-21)
(0.998393 0.000490096 0)
(0.998208 0.000267715 -9.13956e-21)
(1.04439 0.00986591 3.57012e-21)
(1.0455 0.0100177 8.95884e-21)
(1.00078 0.0129157 2.38071e-21)
(1.00114 0.0132472 6.12979e-21)
(0.837564 0.627862 1.82452e-20)
(0.790485 0.633871 0)
(1.00158 0.000935254 -1.94272e-21)
(1.00171 0.000815371 2.84233e-22)
(1.00147 0.000734119 -8.88933e-22)
(1.19143 0.0740515 2.55102e-20)
(1.19151 0.0700208 -6.16377e-20)
(1.08748 0.111543 -1.58698e-21)
(1.08779 0.106622 5.60444e-23)
(1.0315 0.0207503 1.9614e-21)
(1.03255 0.0205927 -2.26283e-21)
(1.12637 -0.0143161 -2.98573e-20)
(1.12371 -0.0138568 -4.78104e-20)
(1.0368 0.0587592 1.06063e-21)
(1.03774 0.0570577 -1.72537e-21)
(1.03907 0.0588973 -1.41689e-21)
(0.119399 0.0577751 -5.70605e-21)
(0.106673 0.0414151 -6.08318e-21)
(0.104356 0.0740398 -6.37524e-21)
(1.01753 0.193889 -1.70221e-21)
(1.01019 0.194216 -1.90687e-21)
(1.16857 0.127067 2.52113e-21)
(1.16565 0.133144 0)
(1.03032 0.014849 1.71628e-21)
(1.031 0.015509 0)
(1.03107 0.0146724 0)
(0.99607 0.0273427 -8.29849e-21)
(0.995232 0.0265321 -5.66506e-21)
(-0.168191 -0.00869091 5.53266e-20)
(-0.18994 -0.00783536 3.10852e-21)
(-0.19557 -0.00784384 0)
(0.0865168 -0.00846277 -6.7072e-21)
(0.0787014 -0.00796548 -3.7324e-21)
(0.100255 -0.0121473 7.10815e-21)
(1.00091 0.0149149 -1.48818e-21)
(1.00125 0.0146001 -4.77839e-22)
(1.007 0.000680859 -3.48741e-23)
(1.00743 0.000919992 0)
(1.00703 0.00120556 9.40447e-23)
(0.944477 0.0276214 1.01058e-20)
(1.06298 0.0374694 -5.70573e-20)
(1.01545 0.0254124 9.7529e-23)
(1.0157 0.0263987 -1.14837e-23)
(1.01651 0.0259308 5.39848e-22)
(-0.0520137 -0.0193694 -2.27449e-20)
(-0.0694757 -0.0172143 0)
(1.02956 0.0143722 2.94721e-22)
(1.02953 0.0151792 1.16972e-21)
(0.098792 -0.0295242 -5.1191e-20)
(0.117739 -0.0310732 2.66248e-21)
(1.04934 -0.00319817 0)
(1.04885 -0.00386636 0)
(1.04978 -0.00384565 8.1337e-21)
(1.21275 0.321589 -2.25895e-20)
(1.20049 0.320795 -2.5202e-20)
(1.2056 0.333592 6.49308e-21)
(1.10326 0.00631284 -3.66952e-20)
(1.10311 0.00824848 1.53359e-21)
(1.1052 0.00735261 -2.26357e-20)
(0.0976934 0.305978 5.11419e-20)
(0.0960422 0.265786 -2.6267e-20)
(0.131198 0.28333 1.32845e-19)
(0.944637 0.045061 -1.46719e-20)
(0.944202 0.041649 -1.69184e-20)
(1.28985 0.0131064 -7.1471e-20)
(1.28697 0.0122505 -6.48394e-21)
(0.516177 0.292819 -1.19774e-19)
(0.489312 0.303207 -8.92298e-20)
(0.517326 0.325349 -4.81833e-20)
(1.00466 0.10891 7.514e-22)
(1.00226 0.105539 1.5595e-23)
(1.14417 -0.0423621 -5.97897e-21)
(1.14523 -0.0439443 2.21061e-20)
(0.95136 0.507532 2.5614e-22)
(0.968551 0.525502 -1.67058e-20)
(0.939328 0.530714 0)
(0.996527 0.0441019 2.12251e-21)
(0.995035 0.0435893 -1.09147e-21)
(0.995443 0.0454445 -8.14935e-22)
(0.171254 -0.0271317 1.48371e-20)
(0.146378 -0.0232665 8.2759e-21)
(0.156617 -0.0241561 -1.98701e-20)
(0.582198 0.0398746 7.48633e-20)
(0.561516 0.0308708 -4.09878e-21)
(0.0106358 -0.0112421 -1.16881e-20)
(-0.00763143 -0.00930414 1.32596e-21)
(0.923091 0.0181425 -9.42981e-21)
(0.919495 0.0193673 -5.73632e-23)
(0.922285 0.0221504 0)
(0.20318 -0.0073148 5.30252e-21)
(0.179845 -0.00363866 4.40064e-21)
(0.206613 -0.00653008 -1.34732e-21)
(1.06762 0.0900189 8.71658e-21)
(1.06997 0.0934026 1.56592e-21)
(1.07101 0.0898581 4.62571e-22)
(-0.0965447 -0.00107765 1.45236e-20)
(-0.0664707 -0.000644598 -1.83117e-20)
(-0.0553262 -0.00203227 -6.83163e-20)
(0.522534 0.261716 -4.47991e-20)
(0.547938 0.284894 0)
(0.927344 0.349428 7.61058e-21)
(0.910819 0.347066 2.91538e-21)
(0.919913 0.364596 3.65634e-21)
(0.945398 0.354863 3.74408e-21)
(0.937026 0.336501 5.31613e-22)
(0.495853 -0.0626556 1.04987e-20)
(0.467937 -0.0623181 1.26608e-21)
(0.999755 0.00238148 2.24758e-21)
(0.999689 0.00266821 1.75257e-21)
(0.999721 0.00271059 -2.94464e-22)
(1.05381 0.174764 -9.11163e-22)
(1.05085 0.181641 1.15414e-20)
(-0.112628 -0.0131609 -3.21634e-20)
(-0.126491 -0.0122522 -1.45675e-19)
(0.983178 0.0296913 6.52473e-21)
(0.982241 0.0305919 2.44052e-21)
(0.981918 0.0288808 -7.21407e-21)
(1.00202 0.0741298 -1.7029e-21)
(1.00281 0.071746 2.28958e-21)
(1.00007 0.0721964 3.60591e-21)
(0.0147435 -0.00840217 0)
(0.0215401 -0.00843045 0)
(0.84366 0.478634 -1.14487e-20)
(0.875951 0.486641 0)
(1.01683 0.0528349 -1.37261e-22)
(1.01678 0.0544541 3.27894e-22)
(1.01865 0.0539416 2.44303e-22)
(1.13384 -0.0692476 2.31142e-20)
(1.13104 -0.0698125 -1.70623e-21)
(0.680536 0.550617 4.45915e-20)
(0.706635 0.522418 3.02561e-20)
(1.00906 0.00513811 -2.91736e-23)
(1.00949 0.00540877 3.86567e-23)
(1.00941 0.00491838 9.55826e-23)
(0.135345 -0.0073237 9.37975e-22)
(0.115918 -0.00403659 8.08999e-22)
(1.13652 -0.0732382 2.03499e-20)
(1.138 -0.0756661 3.90914e-20)
(1.13301 -0.0728229 -8.48738e-21)