/*--------------------------------*- C++ -*----------------------------------*\
| =========                 |                                                 |
| \\      /  F ield         | OpenFOAM: The Open Source CFD Toolbox           |
|  \\    /   O peration     | Version:  v2012                                 |
|   \\  /    A nd           | Website:  www.openfoam.com                      |
|    \\/     M anipulation  |                                                 |
\*---------------------------------------------------------------------------*/
FoamFile
{
    version     2.0;
    format      ascii;
    class       volScalarField;
    location    "600";
    object      p;
}
// * * * * * * * * * * * * * * * * * * * * * * * * * * * * * * * * * * * * * //

dimensions      [0 2 -2 0 0 0 0];


internalField   nonuniform List<scalar> 
13851
(
0.000483017
0.0247042
-0.031717
0.000354053
-0.0592438
-0.0026251
-0.0222803
-0.0291697
-0.000552817
0.00317534
-0.00664629
0.0468336
-0.101001
-0.187928
-0.0150724
-0.011021
-0.0232377
0.00196918
-0.102124
-0.000613382
2.82891e-05
-0.0357966
1.10278e-05
-0.000940885
2.58679e-05
-0.0269591
-0.0337886
-0.126088
0.000234852
-0.00573798
-0.00756224
-0.0233824
-0.0288763
-0.0128095
-0.00100841
-0.0634269
-0.0664404
-0.0780527
0.00597154
-0.00988236
-0.0050905
7.94398e-05
-0.110967
-0.00377878
-0.00251627
-0.125929
-0.00165101
-0.00181953
-0.0345099
-0.00754613
-0.0614598
-0.0778994
-0.123048
-0.0146907
-0.0073309
7.75206e-05
-0.000232088
-0.128954
-0.00584565
-0.0220037
-0.0751519
-0.102931
0.00910663
-0.0665739
0.00950086
0.00209192
-0.0648826
-0.00209585
-0.044416
0.00240293
-0.0662914
-0.0627711
0.0156639
-0.0148799
-0.00641276
-0.000162796
-0.0370341
-0.0901532
-0.0454042
-0.0612124
-0.0227327
-0.00106506
-0.0141293
-0.119361
0.00957853
0.0531012
-0.00142117
-0.0524334
-0.029945
0.000551263
-0.0636518
-0.00042526
-0.00187905
-0.0335877
-0.0306301
-0.000180018
-0.0614459
-0.10769
-0.00747203
-0.000169086
-0.160958
-0.0517215
-0.00347443
-0.040549
2.35477e-05
-0.00472796
-0.0550904
4.90932e-05
-0.0614263
-0.00140491
-0.000623085
0.000616902
-0.00042015
-0.000902239
-0.000617499
-0.0212314
-0.10911
6.24909e-05
-0.00301691
-0.00660074
-0.111987
-0.0396687
-0.102876
-0.0220655
-0.000469364
-0.00043215
-0.00415124
-0.0482158
-0.000179513
-0.0786101
-0.00522902
-0.00195605
-0.0671652
-0.0142874
-0.0125973
-0.00234254
6.19161e-05
-0.063725
-0.0723218
0.0202721
-0.158281
-0.00687493
0.00132425
0.000128945
-0.0169634
-0.00359593
0.000438503
-0.0774349
-0.0217668
-0.00220085
-0.0597988
-0.00615658
-0.188564
-0.000160826
-0.0254109
-0.0164104
-0.00214037
-0.00857651
-0.0786334
-0.0610299
3.94788e-05
-0.0401471
-0.12865
-0.00186157
-0.0041217
9.44818e-05
0.000691726
-0.0454798
-0.000421357
-0.115781
-0.0896843
-0.000408187
-0.00223462
0.0107117
-0.00188395
0.00132692
-0.0469967
0.000941205
-0.104797
5.1384e-05
-0.022789
-0.0618671
-0.0146336
-0.0384851
-1.52119e-05
4.58147e-05
0.00225154
-0.00656152
-0.0625484
0.00817876
-0.00195613
-0.124147
0.000750035
-0.041239
-0.0984113
-0.0241287
0.001179
-0.00718391
0.000948297
-0.000145196
-0.000438833
-0.129321
-0.0039202
-0.010171
0.00425221
-0.0148556
-0.0113761
-0.0255137
-0.0778337
4.20037e-05
-0.077168
-0.00371163
-0.00292469
3.24668e-05
0.000109769
-0.00710714
0.00900693
-0.126257
-0.0148364
-0.0780311
-0.0254216
-0.0233346
-0.093738
-0.079052
-0.0696845
0.000101718
-0.0346907
1.5603e-05
-0.123919
2.69098e-05
-0.0250171
0.0191175
-0.000405454
0.000683027
-0.0593385
0.00639529
-0.0169018
0.00737078
0.000104589
-0.0103802
-0.00950496
-0.0150482
0.000151243
0.00619751
2.33497e-05
-0.0728187
-0.0517141
-0.00717627
-0.0151649
-0.0156838
0.00153511
-0.0137255
-0.0166245
-0.0158539
-0.0554334
0.0111141
0.0064802
-0.0657776
-0.101738
-0.0168963
9.12171e-05
0.00196331
-0.0123454
6.2521e-05
-0.104688
-0.0234715
-0.016843
-0.0334336
-0.0950121
0.00236302
0.00162442
-0.0247493
-0.00930303
-0.0444755
-0.0106439
-0.00192552
-0.00121581
-0.00268087
-0.0621273
-0.00620362
0.000163887
1.21887e-05
-1.38741e-05
-0.0549184
-0.0163035
0.00402055
-0.000424442
-0.0160797
-0.0119186
0.00267205
-0.0835332
-0.00657131
-0.0220196
-0.0444415
0.00233216
-0.104438
-0.00667702
0.0595794
-0.00195154
-0.0729984
-0.0398498
-0.0221042
-0.0647444
-0.00750606
-0.00422883
-0.0872574
-0.000484471
-0.0514578
-0.0325635
-0.00661276
-0.071241
-0.00608492
-0.0150754
-0.100917
8.60615e-05
-0.0161508
-0.000574133
-0.0632596
-0.0625503
-0.014969
-0.0538468
-0.015669
-0.0979064
0.00124399
7.4226e-05
-0.0014115
-0.0631741
-0.0344591
-0.0265374
-0.0160388
-0.00778858
-0.0146648
-0.00513989
-0.176036
-0.119851
0.00492617
-0.0632203
-0.0782295
-0.0148864
-0.0409324
-0.0836483
-7.51167e-05
0.00988065
-0.0725289
-0.0995943
0.000185861
-0.00618898
-0.0811795
-0.0151455
-0.00402665
-0.00452117
-0.0318903
-0.0271
0.0104729
-0.124826
-0.00218098
-0.00379827
-0.00134209
-0.0156428
2.06764e-05
4.23697e-05
-0.00242434
-0.0808697
0.00098348
-0.0108679
-0.0509664
0.000115896
0.0567313
-0.00479672
-0.00362749
-0.116755
-0.0105971
0.00976066
-0.0305361
-0.00109965
-0.00502312
6.52468e-05
0.00039437
-0.156442
-0.00636439
-0.0596645
0.000203556
-0.0740036
-0.118613
-0.00806588
-0.0077334
0.00135274
-0.00253844
-0.0151446
0.00425364
-0.0542516
-0.18307
-0.0467543
-0.0710324
-0.0837451
0.000131558
-0.0171957
-0.120031
-0.0647576
0.0185254
-0.106255
0.000482831
-0.0310546
-0.000109571
-0.0805377
-0.000479405
-0.0123937
0.00131127
-0.0201254
2.27458e-06
-0.000484942
9.84621e-05
-0.0661599
0.0076292
-0.0985649
0.00324334
-0.0551464
0.00412847
-0.0124178
-0.0138112
-0.0261235
-0.0217558
-0.00502629
6.19261e-05
-0.000528362
7.58586e-05
-0.0765812
-0.00252338
-0.0780017
0.00403133
-0.097705
-0.0110467
-0.00301609
-0.00623235
-0.0594618
-0.00513896
-0.00859386
2.71001e-05
0.00730572
0.000196373
-0.0236551
-0.0807567
0.00113356
-0.00134352
-0.00121365
-0.153804
1.16174e-05
-0.0319296
-0.0466959
0.00251121
-0.00052169
-0.0138683
-0.0594787
-0.0754633
0.0049918
0.0127742
7.67518e-05
-0.00135246
-0.115679
-0.00336642
2.2603e-05
-0.0675463
-0.00246547
0.000405573
-0.000656084
0.00151469
-0.00820054
2.87916e-05
0.00118935
-0.100759
-0.0142261
-0.0474164
-0.0024013
-0.00100984
-0.00321886
-0.00106902
-0.00360803
-0.000938603
-0.00102943
0.00490949
-0.0177402
-0.00358552
-0.0148022
-0.000102699
-0.172778
-0.0804053
-0.0154506
-0.00111487
-0.0145054
-0.0181918
-0.122586
-0.0014012
0.0025599
-0.00520451
-0.054969
-0.0205256
-0.123029
4.67852e-05
-0.12181
0.00535784
7.75036e-05
-0.00108503
-0.108204
-0.023775
-0.00875872
-0.00314874
-0.0143356
-0.00747215
-0.00150244
-0.00176078
-0.0208067
-0.0652472
-0.0586862
-0.0714307
-0.097001
0.00906534
4.75869e-05
-0.107774
-0.00425564
-0.0238651
-0.0393802
-0.0178032
-0.0223451
-0.0754039
-0.0139352
-0.124434
-0.123672
-0.1298
-0.00483138
-0.00132525
-0.0131133
-0.00192435
0.0131132
-0.00728167
0.0046414
-0.00792621
-0.00383163
-0.0727342
5.59446e-05
-0.00181814
-0.0595143
-0.0809601
-0.014403
-0.0113637
-0.00219331
-0.00737225
-0.0623961
0.00429564
-0.0480064
0.0126985
-0.00142082
-0.113949
-0.0881835
-0.00981432
-0.00222289
-0.0463453
-6.75304e-06
-0.000520501
0.00190565
-0.110102
-0.0262591
-0.0614584
-0.066444
8.25744e-05
0.00444227
-0.0208339
-0.0302114
-0.0740076
-0.0656576
-0.0724229
-0.00506301
-0.0205315
-0.0896196
-0.0851849
-0.0656698
-0.0474619
0.00960174
4.78984e-05
-0.00744266
0.00051951
7.1336e-05
-0.0137358
4.82757e-05
-0.00315696
-0.0719507
-0.0644821
0.00344967
7.68341e-05
-0.0581639
-0.00930605
-0.00219132
-5.77002e-05
4.65862e-05
-0.0150858
-0.154402
-0.00587723
-0.00301395
-0.131729
-0.0125537
-0.0464295
-0.0813714
-0.0772344
9.92455e-05
-0.0440187
-8.18049e-06
-0.00104805
-0.0149512
-0.103435
-0.0111281
-0.0616777
-0.0260244
-0.000634251
-0.00869697
0.00127618
-0.00909187
-0.0613459
-0.0146165
0.00510448
-0.000557685
-0.0349983
-0.0790633
-0.021463
-0.00496094
-0.00564959
-0.0181966
-0.0595815
-0.0730776
-0.0768582
-0.00665108
-0.065241
-0.000666123
0.0163117
0.00105505
-0.133022
-0.00420155
-0.000309539
-0.0638158
-0.00308633
-0.118215
-0.0787739
-0.125671
-0.0718627
-0.000515582
-0.064033
5.22874e-05
-0.00293072
4.76347e-05
-0.00317145
5.83933e-05
0.0038932
0.0011103
6.72442e-05
-0.0544557
0.00679494
-0.0595298
-0.00189732
4.59391e-05
7.3865e-05
-0.0797916
-0.0870011
-0.0567528
-0.0348249
5.13972e-05
-0.000109258
-0.00147345
-0.0018258
-0.0804946
0.0311678
-0.0179315
6.00336e-05
-0.0211156
-0.00194337
0.0113137
-0.125833
-0.00941082
-0.110711
-0.0195495
-0.00505599
-0.0719506
-0.154333
-0.0448698
0.0539181
-0.0221073
0.00169755
-0.0562965
0.00260513
-0.00406206
-0.0152293
-0.0184753
8.35227e-05
-0.0509081
-0.0803015
3.31342e-05
-0.00311513
0.00910074
-0.00148108
-0.0225413
-0.016324
-0.0407279
-0.0602274
-0.103815
-0.0101128
4.2626e-05
-0.00196217
-0.166607
-0.0658407
0.0073057
-0.0787362
-0.000288777
-0.0152921
5.61469e-05
-0.00640069
-0.0709308
-0.00753554
-0.00250588
-0.00412527
-0.0314076
6.20203e-05
-0.111699
0.00897253
-0.0928813
8.37644e-05
-0.0181799
-0.0844927
-0.126712
-0.0633325
0.00108341
-0.0704694
-0.0146837
-0.00532677
-0.0381786
-0.0230353
-0.0164713
-0.125041
0.00169605
0.000922414
-0.0655418
-0.000415392
-0.00392107
-0.00807365
-0.000640111
-0.114218
-0.0191055
-0.0738168
0.00345976
-0.0028659
-0.000656574
-0.0139723
-0.00190624
0.00176269
3.51159e-05
-0.00497402
-0.0048141
-0.0856113
-0.00235716
9.31799e-05
-0.00014481
-0.0210295
-0.0843585
7.27248e-05
0.00129747
-0.0601343
0.0218887
-0.000970699
-0.00116381
-0.00424807
-0.111388
-0.017451
-0.0861122
-0.0501545
-0.000635321
-0.000393049
-0.111085
-0.00813238
-0.0130676
-0.0014511
5.61268e-05
-0.00347405
-0.0191551
0.00327518
-0.00639259
-0.000315784
-0.0141978
0.00126707
-0.060287
-0.00699791
-0.059885
-0.0105575
-0.0179134
-0.0573304
-0.0647688
-0.0613449
-0.00685201
0.0084662
-0.096586
-0.0214902
-0.118433
0.0147048
-0.108663
-0.0632915
-0.0968271
3.25979e-05
-0.0129017
-0.000664185
0.00427044
-0.129957
-0.118623
-0.00107346
-2.12139e-05
-0.0596581
0.00041654
8.47954e-05
-0.124898
-0.000297417
-0.0122029
-0.115453
-0.0860973
-0.00928964
-0.00285732
-0.0156862
-0.126677
-0.0819374
-0.065085
-0.000158753
-0.116915
-0.037634
-0.0879332
-0.0539355
-0.0500687
-0.0142611
-0.0205802
0.0195471
-0.0571653
-0.0645587
0.000907159
-0.0456904
-0.113753
-0.112638
-0.088368
-0.0167539
-0.0462937
-0.00212333
-0.00736708
-0.0028861
0.0418659
-0.0149489
-0.0673749
8.38708e-05
-0.0597909
-0.00649098
-0.0383433
-0.0472586
-0.0452552
-0.107712
-0.0528812
0.00265581
-0.000993682
-0.0602627
0.00208204
0.0113432
-0.0123894
-0.0866754
4.17916e-05
-0.060714
0.000127898
-0.0130649
-0.0788991
-0.158924
-0.0850355
0.000301209
0.000995308
-0.00150682
-0.0938601
-0.0148367
-0.0255118
-0.0759149
-0.00211475
-0.0324353
-0.0771813
-0.00665876
0.0192283
-0.0156804
-0.000173578
-0.0183717
-0.0784099
-0.0752245
-0.0131337
-0.000284919
0.00100902
-0.119946
-0.0652255
9.19622e-05
-0.0133714
-0.00163941
-0.0038583
-0.00616766
-0.000126958
-0.0154252
-0.00589039
-0.0119487
0.00133235
-0.00141001
-0.00866736
-0.0737044
-0.111372
-0.0328478
0.00405389
-0.00670051
-0.0306489
-0.00143863
-0.00171015
-0.0092547
-0.011536
-0.0752392
-0.0153322
-0.0564217
-0.0166579
-0.0139174
-0.00477741
-0.126759
-0.00297292
-0.0844693
0.00340953
-0.0893892
-0.0197417
-0.0267649
-0.0652764
-0.0355183
0.00560292
0.0425538
-0.00213373
-0.119082
-0.0319196
-0.00343548
-0.0044612
-0.0519634
-0.0526365
0.0156385
-0.00115669
0.0171154
-0.00189064
-0.00197051
-0.171285
-0.000207872
-0.103839
-0.0167336
-0.00183284
0.00472317
-0.00201547
-0.0158549
0.000220352
-0.0217005
-0.0649683
-0.00219266
-0.0787553
-0.119663
0.00216764
-0.0434264
-0.0201466
-0.00185018
-0.000887328
-0.00711535
-0.00200332
-0.0626043
-0.0274918
-0.000501446
-0.00255294
9.58502e-05
-0.0896984
0.0277785
0.0101631
-0.103912
-0.075152
-0.00727294
0.00412214
-0.0270805
-0.00234121
-0.00126665
-0.00461547
0.000309719
-0.00666696
-0.00204528
-0.00844369
-0.128422
-0.000549066
-0.104459
-0.0190438
-0.0307824
0.000281141
-0.000319046
0.015887
0.0143423
0.00482301
-2.63273e-05
-0.0132027
-0.00217211
-0.0135107
0.0049254
-3.08314e-05
0.00959444
-0.100353
-0.00357937
-2.90776e-05
-0.0090664
0.0110016
-0.000618879
-0.0387938
-0.0421651
-0.0330193
-0.0281254
-0.000219089
0.0221791
-0.000430251
-0.0963045
-0.0937094
-0.0156129
-0.091901
-0.0153116
9.5253e-05
-0.00271131
-0.00535126
-0.00684355
-0.000521755
-0.00181691
-6.3417e-05
-0.0628871
8.94071e-05
-0.000111046
-0.0233187
-0.0389731
-0.070843
0.00518308
0.00434212
-0.00505697
-0.0575888
-0.102877
-0.0317948
-0.117865
-0.0671535
-0.0624541
8.94493e-05
-0.0522097
-0.0112082
0.000137312
-0.00292208
-0.0912551
-0.0638325
-0.00300115
-0.0395576
-0.00488812
-0.0126
-1.1973e-05
-0.00613936
0.00301256
0.0144787
6.89141e-05
-0.037832
0.00850574
-0.0725462
-0.00105391
0.0123613
5.34505e-05
-0.0233946
-0.0078569
-0.0845669
-0.0604985
-0.0630656
-0.0668679
-0.087119
-0.00530903
-0.126952
-4.62243e-05
0.0252943
9.46456e-05
-0.0130428
-0.0407773
-0.0158569
-0.0837722
-0.0200375
-0.0312345
0.000574103
-0.0900642
0.0038248
-0.0152399
-0.030375
-0.00737691
6.91788e-05
0.00485564
-0.0286286
-0.00803424
0.0156901
-0.00575115
-0.036405
-0.000156205
-0.0224951
-0.105784
0.0111661
7.92854e-05
-0.0267395
-0.125476
-0.0218289
0.0230821
-0.104435
0.00215192
8.79809e-05
-0.0804912
0.00479607
-0.0427812
-0.0332408
-0.0817106
-0.0063925
-0.0754627
0.0157294
-0.00356574
-0.00094855
-0.0128657
-0.117539
0.00679146
-0.0847648
-0.00564691
-0.0398967
-0.0702902
-0.0216307
-0.080291
-0.079262
0.00014997
0.00418134
-0.0811384
0.00973051
-0.0656952
-0.0100053
-0.00905637
-0.0779322
-0.102197
-0.121963
-0.0106274
-0.0209169
-0.01128
-0.0870605
-0.0630713
-0.0210846
-0.00606236
-0.0226744
-0.0177115
-0.0835497
0.00148611
-0.0168279
-0.0711873
-0.0312119
-0.00349921
-0.0723663
-0.0924094
-0.0225279
-0.001691
-0.126514
-0.0847634
-0.000421227
-0.00522556
0.0223194
0.000155408
0.00122909
-0.005825
-0.0198068
-0.00842199
-0.0566246
0.010643
-0.10391
-0.0239912
-0.109462
-0.00449543
-0.0427402
-0.100651
-0.0180938
0.00184239
-0.00872267
-0.0622691
-0.00109332
-0.0154597
5.5747e-05
0.00322799
-0.00489034
-0.0645918
-0.00175844
0.0011268
-0.0970169
-0.0152399
-0.00740193
-0.0177729
-0.0016485
-0.00179877
-0.0451362
-0.0725238
-0.170326
-0.00223794
-0.059158
-0.00285383
-0.00564463
-0.00028656
-0.0869017
-0.0423389
-0.00862047
-0.073088
0.0183836
0.0136588
-0.0713791
-0.0654851
0.00162686
-0.00651201
-0.0053127
0.00853595
-0.0585769
3.74812e-05
-0.0685074
-0.00823
-0.00682347
0.0293415
-0.0835356
-0.00398944
-0.188673
0.013981
-0.0966363
-0.00812154
-0.00628908
-0.00648328
0.0150341
-0.00631846
0.000933844
-0.0245146
-0.0889962
-0.097432
0.0191036
-0.0801236
-0.00139141
-0.0658485
-0.081806
-0.0441011
-0.0106298
-0.00299625
0.000609075
-0.00485536
-0.0803278
-0.00919762
-0.0233934
-0.00377757
-0.105092
-0.0649323
-0.138629
-0.00216992
-0.0786793
-0.00709144
-0.00292274
-0.00627578
3.58109e-05
-0.129514
-0.0129947
-0.075899
0.013392
-0.00335761
-0.0653831
-0.0156866
-0.00375156
-0.0092753
-0.0609898
0.000967807
-0.0191211
-0.00239548
-0.00581728
-0.0709598
-0.0250473
-0.0174439
0.000995294
-0.01578
-0.040842
-0.0721179
-0.002427
-0.0492965
2.49415e-06
0.00943491
-0.000902221
-0.100634
0.0292691
-0.046904
-0.0332274
-0.014773
0.00258656
-0.00567988
-0.00285902
-0.0159489
1.59997e-05
0.00117702
-0.0953931
-0.030734
0.00166735
0.000165043
9.39122e-05
-0.059124
-0.102551
-0.101634
-0.0432084
-0.0135087
-0.00347129
2.64932e-05
-0.000166487
-0.0922151
-0.068452
7.82683e-05
-0.00212754
0.0073247
-0.077592
-0.0228916
-0.0228324
-0.06797
-0.021416
-0.00521449
-0.0808835
-0.0612563
-0.00810787
-0.00104261
-0.0107207
-0.0691175
-0.0603983
-0.0260761
-0.0676213
-0.142207
-0.029048
-0.0662812
0.0314179
-0.00322379
-0.104998
-0.0629471
-0.0126938
-0.129919
-0.0180702
-0.00110412
-0.000339598
-0.0876909
0.00240832
-0.0674786
-0.016985
-0.0325708
-0.0496463
-0.00135926
-0.0705365
-0.0665136
-0.00328943
-0.0264926
-0.0609789
-0.0746524
-0.1185
-0.00585045
0.000986984
-0.00500107
0.000398181
-0.000322751
0.0128197
4.29506e-05
-0.0105722
0.032344
0.0238331
-0.0254448
0.00160276
3.51626e-05
4.72821e-05
-0.00255027
-0.0182894
-0.000545993
-0.0577946
-0.0206338
0.00182548
-0.0705036
0.0424022
0.00958489
-0.0693547
-0.00226828
-0.000738331
-0.0756699
-0.145563
-0.117257
-0.00607364
-0.0012213
-0.0984382
-0.00246841
7.09356e-05
-0.0389779
-0.00381402
-0.0499192
-0.0607278
-0.00128956
-0.125288
-0.0694041
-0.025359
-0.102163
-0.0923948
-0.0166339
0.00791598
-0.087861
-0.116891
-0.0310914
-0.0608528
2.2781e-05
-0.0108849
0.000853584
-0.0122654
-0.0694544
-0.111968
-0.126964
-0.122896
-0.0318044
-0.00484511
0.000183968
7.9726e-05
-0.0068362
-0.000358645
-0.101743
-0.00423163
-0.0754977
-0.00200536
0.00864632
-0.0683541
-0.0657937
-0.0874015
-0.0783519
-0.0488242
0.000102152
0.000949674
-0.0818278
-0.0908187
-0.0303541
-0.00328815
-0.000366135
-0.0314596
-0.020038
-0.0660615
0.00888923
-0.0339864
-0.000330021
-0.0602974
-0.00361348
-0.0751847
-0.00335038
-0.00520876
-0.0607129
-0.00341899
-0.0664855
8.15388e-05
-0.0673165
-0.000109201
-0.0334379
0.00534173
-0.0152555
0.00916979
-0.035683
-0.0491348
-0.13012
-0.0995024
-0.0288839
-0.0258734
-0.00672164
-0.080041
-0.129239
-0.00153245
8.95907e-05
-0.00241555
5.49636e-05
-0.0617931
3.22049e-05
0.00514107
-0.0176703
0.00955896
0.00171484
-0.000616413
-0.0218104
-0.0602704
-0.086087
-0.00849583
0.0163037
-0.184656
-0.00472968
0.034084
-0.00364911
-0.0959632
-0.045101
0.000626074
-0.0127962
-0.00245116
-0.00250922
-0.116366
-0.121707
0.0211073
-0.00049219
0.00195758
-0.00150808
-0.07469
-0.00196981
-0.089919
-0.129056
-0.0120565
0.0335192
0.00325475
-0.0031078
-0.00484501
-0.0209275
-0.0716308
-0.0145993
-0.0598831
-0.00190124
-0.00545494
-0.00180636
-0.0117193
-0.109583
-0.0689836
-0.0155846
-0.127126
-0.102948
-0.000481639
-0.0129998
-0.000230968
-0.000621814
-0.0661089
-0.0639379
-0.010595
-0.00786527
0.0127355
-0.0197317
-0.0479729
-0.123727
-0.0155284
-0.0724245
-0.0495923
0.00294347
-0.0127365
-0.00170048
-0.059596
-0.00615903
-0.00108471
-0.0714447
-0.0291525
-0.0982453
0.00142412
-0.0265535
0.000167356
-0.128507
-0.146977
-0.0220272
-0.00600242
-0.029436
-0.0132689
-0.00363957
-0.0159927
-0.000356287
-0.115686
-0.0188664
-0.121672
-0.00720188
-0.102138
0.0246901
-0.0749463
0.0014117
-0.038178
-0.123529
-0.00208012
0.0151246
-0.0657246
-0.00144649
0.0023989
-0.0288071
-0.148519
-0.11088
-0.005449
-0.00392243
-0.00916129
-0.00328914
0.00894637
-0.0148134
-0.133849
-0.000781495
-0.026415
-0.021638
-0.00114216
0.0385837
-0.0802606
0.000840702
-0.0699705
-0.000575799
-0.00133947
0.0542975
-0.067949
-0.00268369
-0.0448727
-0.108758
-0.148646
-0.00156971
-0.0163
-0.0270217
-0.0883248
-0.0956809
-0.0147388
-0.0761572
-0.0264749
-0.00292959
-0.00828918
-0.12153
-0.00441527
-0.00251089
-0.117242
-0.00461131
-0.0183427
-0.00418238
-0.112318
-0.00881717
-0.106786
0.000999465
0.0264777
-0.0262544
-0.00800519
-0.0766834
-0.115813
-0.00158983
-0.00937529
-0.0570016
9.04107e-05
-0.0157786
-0.0165651
-0.0296184
-0.0565143
-0.0574777
0.00390607
-0.0851607
-0.0309942
-0.0744774
0.0183249
0.04899
-0.000482589
-0.0763188
-0.0747937
-0.04412
-0.00420252
-0.0593274
-0.148229
-0.0166738
0.0037847
3.46239e-05
0.0176467
-0.0729041
0.00896439
-0.0784765
-0.00252086
-0.0567181
-0.005615
-0.0803985
9.17665e-05
-0.00354558
-0.0017095
0.00465779
-0.149868
-0.0742978
-0.0590868
-0.0231983
-0.000329298
0.0260311
0.00528266
0.000896757
-0.0616444
9.78495e-05
-0.04827
-0.0126213
-0.00431354
-0.00773102
-0.0031547
0.000427248
0.00568615
0.0143616
-0.00280623
-0.0605277
-0.00347861
0.0044383
0.0044512
-0.0013191
-0.014014
-0.0130356
-0.026364
-0.0262607
-0.00371819
0.00206272
-0.0615228
-0.00643733
0.00950226
-0.00371093
-0.0204622
-0.000188042
-0.0799054
-0.015977
-0.00554576
-0.0875915
-0.0378212
0.0247889
-0.0793295
-0.0607707
0.00133836
-0.0153381
-0.0168734
-0.0258009
-0.00174944
0.000104515
-0.0367879
-0.127581
-0.0671454
-0.0875488
-0.0161406
-0.11727
0.0180172
-0.0273577
-0.00448368
-0.0961228
-0.0151591
-0.0334114
-0.014213
-0.0697189
-0.134103
0.00528813
6.51217e-05
-0.0239503
-0.000107182
-0.0214233
-0.078912
-0.00603453
0.00248918
-0.126364
-0.0728301
-0.00109473
-0.0340065
-0.0390441
-0.136426
1.44006e-05
-0.130222
-0.128819
0.0025268
-0.00551436
-0.12167
0.0182184
-0.000555293
0.00330216
0.0023401
-0.0313251
-0.000335842
-0.00333964
-0.0794283
-0.116423
-0.11912
0.000140409
-0.0708771
-0.0155284
-0.0756385
0.000341296
-0.01248
-0.0291452
-0.00111867
-0.138276
-0.033358
0.0279477
-0.167181
-0.128146
-0.0203097
-0.057135
-0.131565
-0.0873608
-0.0027074
-0.109741
-0.000223606
7.5397e-05
-0.0130677
-0.000169913
0.000351174
-0.128782
0.0050251
-0.000742284
0.00353925
-0.128618
-0.127587
0.00768557
-0.00108643
0.000433588
-0.00098633
-0.135283
-0.000307514
-9.08054e-06
-0.00934106
0.0207666
-0.00147447
0.00278113
-0.126986
-0.047261
-0.0287458
-0.000539241
-0.0012864
-0.0223984
-0.0658704
-0.000168713
-0.11258
-0.0480033
-0.0177484
-0.127751
-0.124303
4.33154e-05
-0.0592078
-0.0155409
-0.117275
-0.0037554
0.0137373
-0.000675857
-0.0202755
0.00127404
-0.113891
0.000616287
-0.000592836
-1.61409e-05
-0.0612414
-0.0436676
-0.129863
-0.0981141
-0.0174144
-0.0749466
-0.0242549
-0.0404871
-0.106029
-0.125839
0.000910684
-0.0885727
-0.0134946
-0.021996
0.00200515
-0.0624031
-0.0433414
-0.0320296
-0.104265
3.83567e-05
-0.135942
-0.000295793
-0.0271699
-0.0149453
0.00457799
-0.0831847
-0.0421496
-0.0934694
-0.0251203
-0.0235074
0.0149451
-0.107886
-0.0440804
-0.0837877
0.000865578
-0.129926
-0.00682542
-0.105853
-0.071696
-0.142656
-0.0161385
0.000933547
-0.00209859
-0.0797118
0.00191648
-0.00210202
-0.000802164
-0.0185985
0.000357511
-0.0155376
-0.138974
-0.0610654
-0.165486
-0.128645
-0.00442201
-0.115125
-0.0890884
-0.0682093
-0.116451
-0.0853652
0.00321115
-0.130574
-0.0326327
-0.0436524
-0.0685039
-0.106118
-0.000625487
-0.179383
-0.00277014
-0.0156073
-0.00676158
-0.0958125
-0.0652758
-0.0738244
-0.0111312
-0.0200578
-0.00787941
-0.0810188
-0.122407
-0.00923328
-0.0561799
-0.00502424
-0.0169231
-0.0136518
-0.0986214
-0.120321
-0.0131125
-0.016883
-0.0305841
-0.00541202
-0.00328912
-0.0258035
0.000118294
-0.0113935
0.00325539
-0.110235
-0.00346307
-0.109218
-0.0171942
-0.00788453
-0.0909524
-0.0873091
-0.00299831
0.016205
-0.0145865
-0.0358878
-0.000650182
-0.000763805
-0.0105369
-7.37733e-05
-0.021817
-0.00303177
-0.000289466
-0.00804306
-0.0771848
0.00251225
-0.086482
-0.0172205
-0.00931535
-0.0823734
-0.00462199
-0.0328321
-0.000405211
-0.0176609
-0.00545844
-0.013321
-0.00127719
-0.022971
-0.0136801
-0.087447
-0.00891742
-0.0182494
-0.018772
8.35914e-05
-0.00670898
-0.00479204
0.00159424
-0.060777
-0.11796
0.00931263
-0.021061
-0.0140959
-0.0171308
-0.00237934
-0.0198904
-0.00666834
0.00549531
-0.107898
-0.000275643
-0.0742745
-0.0895873
-0.000439729
-0.00549323
-0.00367787
-0.0353408
-0.0208039
-0.00248585
-0.00443998
-0.0686766
0.00833447
-0.000555206
-0.0905282
7.73525e-05
0.0024107
-6.45607e-05
3.82621e-05
-0.00147568
-0.000139855
-0.00186739
-0.105167
0.0127638
-0.0247803
0.0536153
0.0119867
0.0153197
-0.0424801
-0.0948065
-0.118544
-0.0715318
-0.0341459
-0.096139
-0.0678302
-0.00167152
-0.0252845
0.000455021
0.0200569
-0.00351842
-0.0206784
-0.00773899
-0.00405952
0.0424041
0.0283373
-0.000940942
0.00160504
-0.0135331
0.00252481
0.000373503
0.00111445
-0.159198
-0.105749
-0.0215024
-0.0119857
8.10394e-05
-0.0615665
-0.161453
-0.0842678
-0.0323514
-0.06963
-0.00319603
-0.0648523
-0.0625945
-0.001295
-0.00501436
-0.012057
2.86091e-05
-0.00297681
-0.00388618
-0.00323539
-0.0204601
-0.0885431
-0.0626902
-0.0794887
0.0035135
-0.0629862
-0.0624389
-0.0126718
-1.78557e-05
0.000542119
-5.57509e-05
-0.0247099
0.00201353
-0.0462837
-0.00297566
-0.0709935
-0.0380593
-0.130555
-0.0721013
-0.0838902
-0.0663918
-0.00683752
-0.000147771
0.000830806
-0.0104445
5.30533e-05
-0.0086617
-0.0859031
-0.0722991
-0.0139073
-0.015209
0.00123471
-0.0164935
-0.0561655
-0.000230195
0.000887735
-0.093098
4.18516e-05
-0.0102822
-0.0150245
0.00704441
-0.0209052
-0.0715301
-0.149329
-0.00370657
-0.0833222
-0.0724301
-0.0727369
8.0836e-05
-0.0107125
-0.00157067
-0.0143965
-0.125704
0.000144492
-0.128121
0.000476404
-0.00191477
-0.0167953
-0.0743007
-0.0493502
-0.0736036
0.00156718
-0.000415224
0.000209181
-0.131347
-0.000910079
0.000499327
-0.000508004
-0.00893025
0.00840418
-0.000522424
-9.46338e-05
-0.066797
-0.0699441
-0.0783963
0.0348327
-0.0989243
-0.130826
-0.0599737
-0.0674545
-0.0699453
7.61489e-05
9.40181e-05
5.77742e-05
-0.00706619
-0.0793936
-0.0823032
0.000275716
-0.127573
-0.0662503
-0.0472719
-0.000205297
-0.0131819
-0.0945257
-0.101246
-0.085225
-0.00211602
-0.0826053
5.05698e-05
-0.0975697
-0.0678868
0.00237685
-0.0666219
-0.0142864
-0.0643009
-0.131232
-0.00538373
-0.154946
-0.00557028
0.000910003
-0.131302
-0.0698093
-0.0604441
-0.0166879
-0.0929349
-0.0615755
-0.0648818
-0.0744267
-0.0892578
-0.0689948
-0.100974
-0.014926
-0.000487686
-0.0504234
-0.0739271
0.000291244
-0.0701616
-0.000987636
-0.040639
0.00428033
-0.000873199
-0.0938607
-0.0150691
-0.0696532
-0.0859321
-0.0153265
0.0193706
-0.0300748
-0.0688647
-0.0985373
-0.0684104
0.00230993
-0.00154277
-0.0774204
0.000315088
8.46447e-05
-0.0438778
-0.025393
-0.0706218
-0.0293432
-0.0103227
-0.0223875
-0.000137144
-0.0537111
-0.0144148
-0.0689087
0.00266238
-0.00131285
-0.061574
-0.0694873
-2.52216e-05
-0.131013
-0.0891046
-0.0148229
0.0195297
-0.0206983
-0.0678889
0.00368554
0.000286597
-0.0607849
-0.0151569
-0.073415
-0.0794724
-0.0617531
-0.000351376
0.00278191
-0.017934
-0.0041652
-0.037668
-0.00193346
-0.0750382
-0.055606
-0.00363295
-0.000345291
-0.0697922
-0.0123323
-0.0908206
-0.0967517
-0.00372753
-0.146121
-0.0572386
-0.0266993
-0.00130072
-0.071671
-0.0706229
-0.152339
-0.0163732
0.000315917
-0.0587336
-0.0104095
-0.0133952
-0.00194003
-0.00241342
-0.000614484
-0.000890855
-0.00120775
-0.00358772
-0.0253113
-0.0666069
-0.0639642
0.00556981
-0.0986083
-0.0818825
6.98613e-05
-0.0733669
-0.0718667
-0.0739735
-0.000384299
-0.0695881
-0.0764595
-0.122442
-0.0641758
-0.101635
-0.0272881
-0.0683129
-0.0563282
-0.091808
-0.00107185
-0.0517313
-0.0552494
-0.0140939
-0.0601646
-0.147098
0.00248102
-0.125263
-0.060966
-0.00919423
-0.00150496
0.00216566
-0.0142704
-0.0114379
-0.000258603
-0.000885485
-0.0631502
-0.0695765
0.00447844
-0.0706904
-0.000989338
-0.000565123
-0.119563
-0.0734785
-0.120785
-0.0438079
-0.0761525
-0.000457028
-0.000147571
-0.0371623
-0.0862768
-0.0603369
-0.0999586
-0.0710338
-0.0252317
-0.000650099
-0.0141096
-0.0258384
-0.0377187
-0.16677
-0.0687679
-0.02103
-0.0910904
-0.0926287
0.00243605
-0.123663
-0.016268
-0.0298987
0.0111024
-0.0163872
-0.00125177
-0.0275415
-0.028382
-0.10461
-0.071866
-0.000227525
-0.0549305
-0.0225703
-0.0122934
-0.141731
0.0393123
-0.0708119
-0.00132515
-0.060472
-0.073021
-0.0612793
-0.0618478
0.00475273
-0.0981184
-0.0616952
-0.0669322
-0.000292807
-0.102853
0.000377493
-0.000133488
-0.0128303
-0.0334564
-0.0647116
-0.0852961
-0.00310206
-0.119538
-0.0329833
7.65776e-05
-0.00341715
-0.0144637
-0.00507389
-0.0467166
-0.0672512
-0.0660649
-0.0603252
-0.00338691
-0.00639607
-0.0283512
-0.00154797
-0.0680877
0.00831845
-0.001425
-0.0192908
-0.0710911
0.0486446
-0.0694401
-0.0631316
-0.112884
-0.0155112
-0.151786
-0.0868879
-0.0723571
-0.00311721
-0.000551515
-0.0239551
-0.0152997
-0.103903
-0.120001
-0.0294875
-0.0935864
-0.0892752
-0.0598953
-0.0267164
0.0259792
0.00662074
-0.00473288
-0.0613441
0.000481242
-0.0279814
-0.0195957
-0.0241271
-0.0163428
-0.132484
-0.069099
-0.00732102
-0.0121079
-0.0373455
-0.00470977
-0.000106356
0.0453145
-0.0699412
-0.000754259
-0.112733
-0.0141336
-0.0699481
-0.0172168
0.000942333
-0.0110015
-0.0727151
-0.00390445
-0.0609383
-0.127407
-0.0236681
0.00844779
-0.0663352
0.0261592
-0.0640774
0.00283662
-0.00594327
-0.0556413
-0.000176508
-0.0630148
-0.00505899
-0.00513883
0.000112837
-0.00326251
-0.0357089
-0.0147378
-0.0561791
-0.0539936
-0.0164192
-0.00200992
-0.126188
-0.169458
0.00926523
-0.045722
9.20432e-05
0.0315754
-0.0420441
-0.0591178
0.0113086
-0.055851
0.0519137
4.90493e-05
-0.0125883
0.00126476
-0.00148084
-0.00769734
-0.0613169
0.00337108
-0.0869841
-0.000531508
-0.0887521
-0.0677164
-0.0371682
0.0303632
-0.059393
-0.0714395
-0.116628
0.00838732
-0.0249146
-0.0546996
-0.0310368
-0.000426581
-0.0902967
-0.0635207
0.000410451
-0.00473335
-0.0635452
0.00952417
-0.00667619
-0.0122848
-0.0464648
0.000126531
-0.0131591
-0.0646547
-0.0166706
-0.0222378
-0.00360983
-0.0038008
0.0472125
-0.0897017
-0.00310771
0.0522417
-0.0762689
8.7066e-05
-0.00161488
-0.061899
-0.0655552
-0.0711495
-0.014964
-0.0256378
0.0144757
-5.71239e-06
-0.00267502
-0.0230555
-0.0266029
-0.062548
-0.0617587
-0.0327189
-0.0639219
-0.0237725
-0.0797417
-0.00433938
-0.0119296
-0.0466594
-0.0294882
0.00940487
-0.0460608
-0.00631351
-0.00629388
-0.0283773
-0.000503734
0.000254361
0.0199406
-0.0127142
0.00735583
-0.080917
-0.0657547
-0.000101085
-0.0907112
-0.0417452
-0.133036
0.000201646
-0.0738148
-0.0354294
-0.0705198
-0.00198641
-0.062856
-0.0383997
-0.00839859
-0.0127752
0.0350633
-0.0420255
0.0127729
-0.00147991
-0.0599755
-0.0706923
-0.0367744
0.00304031
0.0133668
-0.111898
0.0249523
0.00695066
-0.00128707
-0.000896481
0.00669158
-0.00151417
-0.00284906
0.0384661
-0.069639
0.0423426
-0.0754415
-0.00363908
0.0167515
-0.0161755
-0.0313612
-0.015025
-0.00726965
-0.0194214
0.00619494
-0.0034543
-0.108449
-0.0267942
-0.0833782
0.000186031
0.00052273
-0.0422091
-0.0595063
-0.0218617
-0.0713245
-0.0268751
-0.0750437
0.0214607
-0.00446096
-0.151361
-0.0675023
0.00887977
-0.0129171
-0.0239091
-0.0102727
-0.00204212
-0.0591122
-0.000150999
-0.118137
-0.0829521
-0.0642073
0.0159929
0.000660594
0.01633
-0.0591485
0.0531864
-0.00687797
-0.00520285
-0.0144353
-0.00348099
0.00155395
0.0120471
-0.0744011
-0.00536806
-0.00568332
-0.0990622
-0.0408489
-0.0225503
0.00360488
-0.00864286
0.000382895
-0.0103841
-0.0687921
-0.000770337
-0.0250248
-0.0836815
-0.0712705
-0.057351
-0.0090082
-0.0183163
-0.0676201