/*--------------------------------*- C++ -*----------------------------------*\
| =========                 |                                                 |
| \\      /  F ield         | OpenFOAM: The Open Source CFD Toolbox           |
|  \\    /   O peration     | Version:  v2012                                 |
|   \\  /    A nd           | Website:  www.openfoam.com                      |
|    \\/     M anipulation  |                                                 |
\*---------------------------------------------------------------------------*/
FoamFile
{
    version     2.0;
    format      ascii;
    class       volVectorField;
    location    "900";
    object      U;
}
// * * * * * * * * * * * * * * * * * * * * * * * * * * * * * * * * * * * * * //

dimensions      [0 1 -1 0 0 0 0];


internalField   nonuniform List<vector> 
13851
(
(1.14229 0.038749 8.6085e-21)
(1.07297 -0.0265991 0)
(1.07143 -0.0255418 0)
(-0.183527 -0.0191512 0)
(1.00202 -0.000455427 1.99286e-21)
(1.08231 -0.0410434 1.79285e-20)
(1.06207 0.0101624 -4.96219e-21)
(1.0135 -0.000811758 0)
(0.249543 0.0299922 2.08402e-20)
(0.991057 -0.00780339 0)
(1.15963 -0.104177 5.4128e-20)
(1.00121 -0.00843269 -3.98396e-21)
(0.980505 -0.019689 8.1072e-21)
(0.0582571 0.00845476 3.5008e-20)
(1.1053 0.00442925 3.17648e-20)
(1.09848 0.0561797 0)
(-0.302503 -0.00546759 -1.19342e-19)
(1.03599 -0.020697 -5.53521e-21)
(1.20117 0.0269129 0)
(1.14321 0.0372227 0)
(1.11657 -0.00179735 0)
(1.03798 -0.0930066 0)
(0.550454 -0.268717 -8.65586e-20)
(1.00007 -0.000205806 4.81991e-21)
(1.15763 -0.0140089 3.47307e-20)
(1.09568 0.0413535 -3.23574e-20)
(1.12737 0.067674 -2.22739e-20)
(1.11398 0.0637177 4.25552e-20)
(0.384317 0.03488 0)
(1.02101 -0.0128707 0)
(-0.0858511 -0.0134121 -1.49739e-19)
(1.06221 0.00946682 0)
(1.13595 0.0408931 0)
(0.326992 0.0471395 -4.69273e-20)
(1.12875 -0.0880931 1.04567e-20)
(0.416975 0.0364155 -2.71372e-20)
(1.00004 -0.000185051 -4.99645e-21)
(1.18125 -0.14879 1.29792e-20)
(-0.00618572 0.0172686 2.80075e-20)
(1.00626 -0.0390514 2.04962e-21)
(0.175399 0.0425996 -1.56504e-22)
(0.420257 0.0383847 -1.22637e-20)
(-0.230912 -0.00677501 -1.1637e-19)
(1.09141 -0.473855 -1.89278e-20)
(0.433309 0.0426295 0)
(1.01461 -0.0233295 0)
(1.02038 -7.13227e-05 1.05151e-21)
(1.10686 0.0544699 0)
(1.0456 -0.0588245 -5.10769e-21)
(0.980192 -0.0187264 0)
(-0.231032 0.00211689 3.64059e-20)
(0.973352 -0.0129425 0)
(1.09923 0.0557602 0)
(1.08047 0.0191869 -2.67058e-20)
(0.108135 0.00598039 -4.59888e-20)
(1.00521 -0.0393284 0)
(1.13744 0.0413844 0)
(0.145362 0.0374745 -1.21067e-20)
(1.11696 0.0694693 0)
(-0.0383486 0.00821471 -3.93814e-20)
(1.00111 -0.00794842 -3.66754e-21)
(1.11907 0.0658917 4.12299e-20)
(0.995459 -0.00282326 -4.84324e-22)
(1.04597 -0.0610887 0)
(0.87254 -0.443597 6.79886e-21)
(0.85405 -0.463471 0)
(-0.059109 0.0048486 3.88431e-20)
(0.692665 -0.121433 0)
(1.02024 -0.0407173 2.95186e-22)
(-0.154805 -0.0164337 -7.91212e-20)
(-0.153025 -0.00754514 8.42894e-20)
(1.12627 0.00118921 3.12823e-20)
(0.993535 -0.0267825 0)
(-0.0426194 0.00604163 0)
(1.08723 0.0160768 -1.88866e-20)
(1.02004 -0.0753179 3.60353e-22)
(-0.278588 -0.00805445 1.71978e-19)
(1.02206 -0.00673683 0)
(1.21977 -0.0173505 3.09205e-20)
(1.00482 -0.018183 3.98722e-21)
(1.02147 -0.0413703 -2.08508e-21)
(1.2638 -0.095825 0)
(1.12514 -0.0896985 3.25688e-20)
(0.050741 0.00843121 -1.44034e-20)
(-0.0252527 0.00832324 0)
(-0.108413 -0.0108562 -7.38745e-20)
(1.04121 -0.0942691 7.72e-21)
(0.201605 0.0053294 -2.95286e-20)
(0.991705 -0.0120021 -4.13451e-22)
(-0.08282 -0.0122879 0)
(0.972111 -0.0121462 1.70643e-20)
(1.06347 0.00915068 -2.71457e-20)
(-0.221333 -0.00589117 8.92035e-20)
(-0.140531 -0.010363 8.24145e-20)
(-0.0478926 0.0188036 7.52188e-20)
(1.07663 -0.435002 0)
(1.00962 -0.0248151 3.23736e-22)
(1.10305 0.0560064 5.97644e-21)
(-0.166443 0.00394462 0)
(1.21144 -0.197886 -7.72624e-20)
(1.10393 0.0566925 1.36605e-20)
(0.80937 -0.115751 3.73306e-20)
(0.809499 -0.148605 5.6971e-20)
(0.989411 -0.0285282 8.15587e-21)
(1.01827 -0.0231677 1.43208e-21)
(1.13091 -0.0131592 1.71624e-20)
(1.01754 -0.0228624 -9.11695e-22)
(-0.134195 -0.0092776 -1.79581e-19)
(1.06353 0.00834033 2.08281e-20)
(1.03504 -0.0200891 1.04527e-22)
(1.02518 -0.131439 -1.76244e-21)
(1.01539 -0.0237933 0)
(1.21085 -0.0235328 -9.20638e-21)
(1.16017 -0.0507905 6.68762e-20)
(1.12698 0.0462236 9.97618e-22)
(1.07968 0.0179954 0)
(1.01464 -0.00851274 1.44284e-21)
(1.01419 -0.000952989 0)
(-0.199057 -0.0167882 0)
(-0.119408 -0.020468 0)
(1.10672 -0.361363 0)
(1.02921 -0.016947 5.51244e-21)
(1.01529 -0.0412256 2.59087e-23)
(0.0742059 0.0209483 0)
(1.17935 0.0373442 1.49997e-20)
(0.613762 -0.201589 0)
(1.01015 -0.024504 1.40405e-22)
(1.12734 -0.153648 0)
(0.195033 0.038671 6.51301e-21)
(1.11647 0.0090092 -3.81693e-21)
(1.03458 -0.094925 -2.39909e-21)
(1.0979 -0.0686523 1.56656e-20)
(1.29837 -0.168438 8.03497e-20)
(0.311447 0.0450334 5.82564e-20)
(1.16399 -0.101384 -6.43011e-20)
(-0.0593447 0.0193111 2.66303e-20)
(0.705862 -0.113935 0)
(-0.123023 -0.0100174 6.93645e-20)
(0.847295 -0.0878722 0)
(1.11257 0.0122764 -1.29287e-20)
(1.26029 -0.0994838 -2.38139e-20)
(0.974431 -0.0447667 0)
(0.99101 -0.0121039 4.00061e-21)
(0.741641 -0.307033 -6.21264e-20)
(1.11881 0.0174741 6.761e-20)
(1.00653 -0.0733613 0)
(1.02183 -0.00629637 -6.67834e-22)
(-0.132287 -0.0108469 0)
(0.245026 0.0226075 1.55876e-20)
(1.13238 -0.155962 0)
(1.10515 0.0563416 -1.63184e-20)
(1.20976 -0.0266366 -2.37164e-20)
(1.16412 -0.049939 -3.70829e-20)
(1.19138 0.0255051 0)
(0.972217 -0.022912 -1.46572e-20)
(0.983547 -0.00895366 -5.18287e-21)
(1.00124 -0.00664869 -4.99012e-21)
(-0.0410476 0.0134947 3.38341e-20)
(1.11044 0.00912134 -4.26895e-21)
(1.06441 -0.000625928 1.34892e-20)
(1.00014 -0.000479079 -1.31847e-21)
(0.39734 0.0349461 -3.00859e-20)
(1.12831 -0.0122856 -1.01319e-21)
(1.10791 0.0540332 0)
(0.0613003 0.00679007 0)
(0.334775 0.0405202 0)
(0.346062 0.0417607 0)
(-0.215381 0.00401636 6.74382e-20)
(1.02598 -0.126595 -1.05312e-21)
(0.671615 0.0594472 -1.57427e-20)
(1.00082 -0.00730661 0)
(1.01456 -0.00809821 -5.45799e-22)
(1.14518 -0.0169353 5.64815e-21)
(1.00105 -0.000417498 0)
(-0.021077 0.023719 -1.14396e-19)
(1.13608 0.0584427 -4.82444e-20)
(1.11292 0.0569443 0)
(1.01517 -0.00806531 -7.52759e-22)
(1.08556 0.0176491 -3.55835e-21)
(1.11188 0.0561657 0)
(1.17584 0.0367319 1.08806e-20)
(1.09814 -0.455832 0)
(1.03158 -0.119731 0)
(1.11458 0.00935713 0)
(-0.242627 -0.00764603 1.13993e-19)
(0.253286 0.022652 -2.29253e-22)
(1.13514 0.0424471 0)
(0.888508 -0.0659855 -3.38724e-20)
(0.976668 -0.0236911 0)
(1.01919 -0.0173564 0)
(1.21296 0.0120922 -6.58077e-20)
(1.11109 0.00798825 3.08999e-21)
(0.0394259 0.00378922 -4.34478e-20)
(1.0838 -0.0390159 1.85319e-20)
(1.00838 -0.0712894 2.6416e-21)
(1.10111 0.055888 0)
(1.13359 0.0419439 0)
(1.04702 -0.0125949 -4.73053e-21)
(1.04169 -0.0293313 1.63799e-22)
(0.708545 -0.156827 0)
(1.25987 -0.111711 9.62064e-20)
(0.0139547 0.0285211 4.44219e-20)
(0.128938 0.0407251 -4.20614e-20)
(1.10383 0.00532756 -1.98802e-20)
(0.936079 -0.705718 -6.79247e-20)
(-0.0154748 0.0263594 0)
(0.937158 -0.0209576 -2.44988e-20)
(1.1059 0.0191887 -4.32697e-20)
(0.244372 0.0310895 3.94826e-20)
(1.07642 -0.0484318 9.75887e-21)
(1.09682 0.0561278 4.87787e-20)
(1.01465 -0.040364 0)
(1.26367 -0.107748 -8.45113e-20)
(1.00011 -0.00206113 0)
(1.13239 -0.0810492 8.24443e-20)
(1.02355 -0.0831364 -1.84466e-21)
(0.981467 -0.017635 2.65324e-20)
(1.15115 0.0467537 0)
(1.04603 -0.0211414 -6.68919e-23)
(0.152585 -0.533957 0)
(1.0152 -0.00763682 0)
(1.14645 0.035708 3.63212e-20)
(0.0319082 0.00564849 1.68538e-20)
(-0.0430726 0.0202363 -7.15143e-20)
(0.900389 -0.0754998 -9.2014e-22)
(1.10579 0.0201179 3.03689e-20)
(1.00002 -0.00103247 4.50763e-21)
(0.744629 -0.285813 1.88172e-20)
(1.00153 -0.0134171 7.76668e-21)
(1.12909 -0.0823009 -6.88981e-20)
(-0.0338584 -0.0410916 1.2934e-19)
(0.894169 -0.0667025 -2.85886e-20)
(1.07633 -0.0463119 8.24405e-21)
(0.996252 -0.00078986 0)
(0.116296 0.0391649 4.67248e-20)
(1.02171 -0.0126893 -2.9773e-21)
(0.899513 -0.429599 0)
(0.109472 0.037557 -1.65787e-20)
(1.20402 -0.192893 -6.07743e-20)
(1.0001 -0.000458264 0)
(1.28711 -0.328238 0)
(-0.0152389 0.00801671 -9.17485e-21)
(0.46316 0.0455216 1.1245e-20)
(1.09754 0.0557378 -4.50234e-20)
(1.10674 -0.0182293 1.81508e-20)
(0.705486 -0.338465 0)
(1.15131 0.0448946 0)
(1.08526 0.0188407 7.21187e-21)
(1.07943 -0.41734 -3.50274e-20)
(1.04425 -0.133671 6.21817e-21)
(0.145935 0.00383074 0)
(1.1669 0.0211478 9.07169e-20)
(1.0104 -0.000860672 0)
(1.08334 -0.0182033 0)
(1.1021 0.0566006 0)
(0.385781 0.0331561 2.30529e-20)
(0.276146 0.00864446 7.97277e-21)
(1.01872 -0.0166274 0)
(0.589747 -0.197187 0)
(0.992573 -0.0128531 1.44749e-20)
(1.1378 0.0489981 3.39787e-22)
(1.18296 0.0328089 -2.87875e-20)
(1.08519 -0.0176949 0)
(1.12862 -0.00918194 1.13774e-21)
(1.16984 0.0211061 -8.7708e-20)
(0.999342 -0.025026 -4.88546e-21)
(0.804541 -0.125435 -4.13296e-20)
(1.10864 0.0503321 2.43532e-20)
(1.15641 0.0624224 -4.98117e-20)
(0.99772 -0.00843145 -1.29973e-22)
(0.981383 -0.0166347 -3.01015e-20)
(0.894901 -0.0739447 7.38714e-20)
(0.333243 0.0426099 -7.98483e-21)
(-0.249612 -0.010011 -2.95651e-20)
(1.12006 0.00258758 2.59288e-20)
(1.03024 -0.0174884 1.05445e-22)
(1.17472 0.0396488 4.15847e-21)
(1.18715 0.0293464 0)
(1.12812 0.0419502 0)
(1.12674 -0.00838495 0)
(0.305257 0.0389737 4.59801e-21)
(-0.132708 0.00405265 0)
(1.08812 -0.0258318 0)
(1.10012 0.00254603 -3.18782e-20)
(1.13025 -0.16832 -1.6117e-21)
(1.02038 -0.0223498 0)
(1.00137 -0.00630291 2.70982e-21)
(1.12987 0.0422234 0)
(1.14476 -0.119132 3.36867e-21)
(1.02312 -0.012924 3.74056e-21)
(1.00012 -0.00203024 2.4568e-21)
(1.0013 -0.0138035 -1.12862e-20)
(1.00423 -0.000640182 0)
(1.10405 -0.00982202 -3.8007e-20)
(1.00142 -0.00673627 2.75376e-21)
(0.260744 0.0318731 -5.29608e-21)
(1.11842 -0.000641404 1.48495e-20)
(1.01136 -0.0331647 -1.17998e-21)
(0.392914 0.0323273 2.42881e-20)
(0.0626427 0.0192198 0)
(0.974481 -0.018352 8.49944e-21)
(1.14557 0.0373887 -3.9464e-20)
(-0.200807 0.00258858 -1.75365e-20)
(0.973284 -0.0471487 -1.24645e-20)
(0.973109 -0.0176556 -4.51867e-21)
(1.12069 -0.00115253 0)
(0.0253008 0.00577386 0)
(0.2197 -0.0162988 -3.6105e-20)
(1.1463 -0.00537526 2.5742e-20)
(1.00224 -0.000601841 -2.72751e-21)
(0.707448 0.0611091 0)
(1.00092 -0.00778233 0)
(1.15187 -0.00577966 -3.51318e-21)
(-0.184968 0.0048567 0)
(1.15847 0.0618192 -8.51322e-20)
(1.06315 -0.000957734 0)
(1.2342 -0.202751 0)
(1.31577 -0.180622 7.54076e-20)
(-0.106836 -0.00811087 0)
(1.21217 -0.0341806 6.91386e-20)
(0.779674 -0.0941598 8.99986e-20)
(-0.0168796 0.0212896 -2.75355e-20)
(0.112793 0.0280221 2.76376e-20)
(1.13721 0.061783 2.28675e-20)
(1.04303 -0.0301436 -7.93765e-21)
(-0.249985 -0.00718781 9.85646e-20)
(0.110161 -0.00040619 0)
(0.459736 -0.44824 0)
(0.494895 -0.454196 0)
(0.935521 -0.0221647 4.56304e-20)
(1.14874 -0.0126052 -4.88351e-20)
(0.946111 -0.117644 6.54914e-22)
(0.210008 0.00600025 3.38837e-20)
(0.784353 -0.140989 4.24219e-20)
(1.00816 -0.00197748 -1.51555e-22)
(1.0204 -0.000152372 3.38262e-23)
(1.06893 -0.0834911 -3.05728e-20)
(-0.133316 -0.0106402 0)
(0.206147 -0.540667 -1.09136e-19)
(1.0204 -0.021541 0)
(-0.0575877 0.0188131 1.29914e-19)
(0.935332 -0.114801 -7.06844e-22)
(1.09858 -0.0716069 -1.04101e-20)
(1.06472 0.000220203 -1.46151e-20)
(0.0158268 0.00377928 -3.35254e-22)
(1.17173 0.0393742 -1.43589e-20)
(1.10018 0.0563705 0)
(1.0213 -0.0808575 0)
(1.07377 -0.0453888 -8.15222e-21)
(0.46213 0.0378183 -2.40911e-20)
(0.976521 -0.025339 0)
(1.19087 0.0286583 0)
(1.08675 -0.0245783 0)
(1.12184 -0.00245524 2.998e-20)
(0.92941 -0.117122 2.18721e-20)
(0.991911 -0.0128405 -1.48133e-20)
(1.01216 -0.0327666 0)
(1.22413 -0.0926564 0)
(1.21932 -0.193959 0)
(1.16368 0.0243704 0)
(1.3439 -0.182751 -1.74262e-19)
(0.471832 0.0391026 3.85603e-20)
(1.00773 -0.0748396 2.04929e-21)
(0.0946692 0.0366445 -8.5151e-21)
(1.14213 0.0510412 2.87884e-20)
(1.02844 -0.00917945 3.37616e-22)
(1.13691 0.0641278 7.1622e-20)
(1.14013 0.0252775 -2.33286e-20)
(-0.15298 0.00624601 5.64742e-20)
(1.06697 -0.0809463 0)
(1.09171 0.0448102 -1.46016e-20)
(1.10841 0.0680095 1.83266e-20)
(1.25018 -0.103667 0)
(1.22024 -0.102958 1.26249e-19)
(0.201487 0.00607279 -1.87879e-20)
(1.04631 -0.0411265 1.42006e-20)
(1.14097 0.0587771 5.81088e-20)
(-0.324528 -0.00628902 0)
(1.10159 -0.0294304 3.44937e-20)
(0.166361 0.00729965 2.61892e-20)
(1.10842 -0.0316114 -2.05899e-20)
(0.133386 0.0388443 6.62945e-20)
(1.09916 0.0015468 1.97248e-20)
(1.08377 0.0306093 -1.85806e-20)
(1.17264 0.0161347 3.46672e-22)
(1.24234 -0.172587 -6.02893e-20)
(0.983596 -0.00987514 1.13069e-20)
(1.08531 -0.0307742 -8.34202e-21)
(1.14892 -0.122072 -4.23215e-21)
(1.08701 0.0173044 1.69767e-20)
(1.01283 -0.0254564 -1.34646e-22)
(1.11999 0.00437998 0)
(0.573144 0.0605595 -3.97293e-20)
(0.994331 -0.0267313 1.10402e-20)
(1.10717 0.0179563 7.1666e-21)
(-0.209485 -0.0165124 0)
(1.06696 -0.0425801 1.81784e-20)
(1.24638 -0.481719 7.73373e-20)
(1.09361 0.0281212 0)
(0.278884 -0.0178697 0)
(1.07883 -0.0499427 0)
(1.09507 0.0403383 1.68771e-21)
(0.913147 -0.680231 5.15062e-20)
(1.18254 0.0348472 -1.52043e-20)
(1.13126 -0.0181683 0)
(0.256907 0.00569417 0)
(-0.0348033 0.0050919 0)
(1.25406 -0.322732 0)
(0.998565 -0.0250833 0)
(1.22045 -0.0891659 4.25818e-21)
(1.10963 -0.0381845 0)
(1.09247 0.0439213 1.37961e-20)
(1.02768 -0.0186311 2.7144e-21)
(-0.234537 -0.00558829 -5.27804e-22)
(0.531581 0.061181 -6.20048e-21)
(1.21069 -0.0618118 1.085e-20)
(1.07344 -0.0433809 -4.02306e-21)
(1.17248 0.0182102 -1.157e-20)
(1.12405 0.0634463 5.61738e-20)
(-0.235227 -0.0125213 0)
(1.02515 -0.00374959 -4.24101e-21)
(-0.28442 -0.00484702 0)
(1.2519 -0.159777 0)
(0.300589 -0.185271 2.62222e-20)
(1.04851 -0.136542 -9.51588e-21)
(1.12648 0.0445697 9.41691e-20)
(0.987312 -0.0171021 0)
(1.00123 -0.000357984 -1.28191e-21)
(0.0980241 0.00418681 5.62889e-20)
(1.1271 0.0621708 -2.5252e-20)
(0.990376 -0.00836231 -6.61958e-21)
(1.07278 -0.0280839 0)
(1.10886 0.0179765 0)
(1.01283 -0.00905873 9.82159e-23)
(0.601897 0.063537 6.10465e-21)
(1.14885 -0.0100901 8.21392e-20)
(1.14034 0.0240539 0)
(1.07867 -0.00351112 -2.81261e-20)
(1.04703 -0.0399759 -1.17076e-20)
(0.971837 -0.00692195 -3.36271e-20)
(1.29506 -0.116734 -4.31881e-20)
(1.01021 -0.0323623 5.17984e-21)
(0.972917 -0.00588074 2.98498e-20)
(0.821361 0.0630657 2.67433e-20)
(0.606259 0.0588829 3.3528e-20)
(1.03145 -0.0923696 6.53151e-21)
(1.10624 0.0658626 1.84439e-20)
(0.995667 -0.00227515 -8.30098e-21)
(1.00153 -0.00638284 0)
(1.06924 -0.0435678 -1.25753e-20)
(1.1661 0.0244 0)
(1.09042 0.0299654 1.70895e-20)
(1.01268 -0.0269348 8.05597e-22)
(1.05654 -0.0328714 -8.05564e-21)
(1.10849 -0.350464 0)
(1.06495 -0.0203129 0)
(0.323192 -0.0242812 -1.40868e-19)
(1.00139 -0.00788133 -5.48453e-21)
(1.07928 0.00783213 4.9206e-21)
(0.439031 0.0439634 0)
(0.936577 -0.160569 2.46099e-20)
(1.01948 -0.000788381 -6.41293e-21)
(1.00039 -0.00674181 0)
(1.07823 -0.0044723 9.36219e-21)
(1.05001 -0.011651 1.09786e-20)
(1.23433 -0.373818 -3.47058e-20)
(0.740048 0.0602882 1.00947e-20)
(1.1078 -0.0167355 0)
(0.320306 -1.1196 -2.24066e-21)
(1.07096 -0.0422252 1.33615e-20)
(1.00017 -0.0107342 -5.17194e-21)
(0.22554 0.0362378 1.25245e-20)
(1.10904 0.0675594 -1.88244e-20)
(0.876257 -0.122658 0)
(0.995463 -0.0306934 1.08479e-20)
(0.10103 0.025656 -2.99553e-20)
(0.856666 -0.0932252 2.28588e-20)
(1.17633 -0.641426 -1.67332e-20)
(0.988788 -0.0276635 3.64155e-21)
(1.10072 -0.0634601 -5.44954e-20)
(1.22438 -0.0999513 -1.3131e-19)
(1.0932 0.0147086 0)
(0.14434 0.0325103 -2.42285e-20)
(1.12592 0.0643616 -5.52148e-20)
(1.27041 -0.0743554 9.40015e-21)
(0.975577 -0.0711862 -8.18051e-21)
(1.21327 -0.0306508 -3.89918e-20)
(1.00047 -0.0263482 0)
(0.373311 0.0334647 1.3411e-20)
(1.09408 0.0273515 0)
(1.13247 0.042536 0)
(1.10815 -0.0362554 0)
(1.0219 -0.0776891 -3.34282e-22)
(0.942999 -0.158326 -3.94102e-20)
(1.14564 -0.0137953 0)
(1.0018 -0.000547304 -2.22443e-21)
(-0.267468 -0.00762998 0)
(0.198668 0.0334567 0)
(0.363723 -0.0286138 1.17061e-19)
(-0.179771 -0.0058569 -6.352e-20)
(0.759931 0.0617595 -8.9173e-21)
(-0.234737 0.000488496 7.75308e-20)
(1.18678 0.0320412 3.56485e-20)
(0.911612 -0.0792245 -2.48544e-20)
(0.999656 -0.00271691 4.43861e-21)
(1.22309 -0.482477 -4.39779e-20)
(0.991108 -0.00708251 8.92075e-21)
(1.01252 -0.0247454 -3.70426e-22)
(0.905419 -0.0958826 0)
(0.00203293 0.0268969 -2.90488e-20)
(1.07071 -0.0197518 -9.66323e-21)
(0.970036 -0.0399409 0)
(1.07029 -0.282275 1.5131e-21)
(1.13766 -0.0394803 5.90119e-21)
(0.989117 -0.0024603 0)
(0.661207 0.0237948 -8.84311e-20)
(1.0083 -0.0237573 -1.68896e-21)
(0.236007 0.0411979 -2.48331e-20)
(1.22498 -0.358352 6.51018e-20)
(1.00524 -0.018805 -2.21641e-21)
(1.06581 -0.010833 -2.09535e-20)
(1.25617 -0.135231 -5.43294e-20)
(1.13579 0.0640469 9.45009e-20)
(1.02246 -0.0131977 -5.2675e-23)
(0.961046 -0.0960637 2.46328e-20)
(1.06182 -0.401787 0)
(1.03291 -0.00385497 -1.98e-21)
(-0.0697812 -0.000679401 -6.62581e-20)
(1.19923 0.0274347 0)
(1.14954 0.033833 8.63112e-20)
(0.974164 -0.0694084 -1.50255e-20)
(0.839357 0.0646147 -1.83989e-20)
(-0.0820132 0.00744195 0)
(1.03363 -0.00409403 -4.8345e-21)
(1.22813 -0.00826454 0)
(1.01776 -0.0409011 -4.70785e-22)
(1.00876 -0.0243552 -1.3982e-21)
(0.902234 0.0631894 3.14157e-20)
(0.13685 0.039798 0)
(1.12139 -0.0377033 1.23656e-20)
(1.08925 0.0298807 -1.9041e-20)
(0.990471 -0.00582186 1.49633e-20)
(1.09937 0.0343484 0)
(0.223292 0.0409185 -2.54519e-20)
(-0.0412554 0.016435 5.88502e-20)
(1.03683 -0.00745816 0)
(-0.28315 -0.0025369 -1.16142e-19)
(1.0123 -0.0262627 1.234e-22)
(1.01902 -0.0416876 -3.29282e-22)
(1.13218 -0.0163252 0)
(1.07603 0.012564 3.49764e-20)
(1.02542 -0.00346176 4.59793e-21)
(1.01721 -0.0754074 0)
(-0.0561231 -6.13784e-05 -1.35723e-19)
(1.2376 -0.169342 1.57383e-21)
(-0.0851847 -0.000548911 0)
(1.06856 -0.0201146 3.01831e-21)
(0.992784 -0.0135818 -2.28568e-22)
(0.354356 0.042865 -2.63278e-20)
(0.999438 -0.00388365 0)
(1.22141 -0.0789656 -1.54396e-20)
(1.08271 0.00211074 -1.97149e-20)
(1.08894 0.0142473 0)
(1.10747 -0.0224536 -3.75685e-20)
(0.540345 0.0516057 0)
(-0.119603 0.00610761 -5.21801e-20)
(1.08309 -0.0347953 2.16719e-20)
(-0.285187 -0.00583226 -9.81343e-20)
(1.06189 -0.00294243 9.41309e-21)
(1.15496 -0.0252259 0)
(0.429386 0.0401339 -6.19321e-21)
(0.133287 0.0106676 -2.26565e-20)
(1.01139 -0.0413817 6.90411e-22)
(0.99973 -0.0262306 5.88769e-21)
(0.816586 -0.157444 1.1682e-20)
(-0.0760321 0.000934622 1.54748e-19)
(1.09909 0.0629509 1.73885e-20)
(1.0982 0.0341178 0)
(1.06917 -0.562583 1.4199e-19)
(1.07602 0.0133154 -2.83959e-20)
(1.09719 0.00225585 4.15431e-20)
(0.0557535 -0.0536186 1.70598e-19)
(0.608424 0.0148573 0)
(1.08232 -0.340061 1.43984e-20)
(0.220924 0.0392317 0)
(1.12735 0.0538836 4.07102e-20)
(0.477582 0.0410593 -3.07139e-21)
(1.04205 -0.0396577 -1.42236e-20)
(1.11606 0.0700469 0)
(1.20745 0.0393495 4.73014e-20)
(0.999826 -0.00927958 0)
(-0.305828 -0.00187853 0)
(0.415087 0.0438626 0)
(1.03116 -0.124954 0)
(1.11434 0.0115059 0)
(1.00193 -0.0362721 0)
(0.468292 -0.837174 1.77007e-21)
(1.14132 -0.189142 -4.83621e-21)
(0.583932 -0.193958 1.35651e-19)
(1.00951 -0.0328844 -2.72145e-21)
(1.00073 -0.00048712 -5.83694e-22)
(0.909731 -0.0468807 0)
(1.13632 -0.0420416 0)
(1.00145 -0.00758741 1.39105e-21)
(-0.0264095 0.0243165 4.01452e-20)
(1.00085 -0.000584003 -5.82876e-22)
(1.12798 0.0530966 -3.85424e-20)
(0.968937 -0.0677841 1.50059e-20)
(1.09347 0.0443203 0)
(0.990339 -0.0281765 5.61742e-21)
(0.988388 -0.00258703 -1.00792e-20)
(1.09116 -0.162483 -4.11587e-20)
(-0.281744 -0.0044104 0)
(1.13265 -0.0230516 -8.28987e-21)
(-0.072276 0.0185448 0)
(1.101 -0.0665004 4.0281e-20)
(1.01303 -0.0101108 1.41734e-21)
(1.03141 -0.011783 -9.30709e-21)
(1.14772 -0.0186794 2.79599e-20)
(1.05535 -0.0338054 -8.8121e-21)
(1.1876 -0.0362401 0)
(1.07488 -0.0219466 0)
(0.87625 -0.114943 0)
(1.11376 0.068833 1.1254e-21)
(0.99932 -0.00360787 -4.74177e-21)
(0.280668 0.00435576 -1.36435e-20)
(1.00006 -0.00140181 5.08418e-21)
(1.09415 0.0501064 9.33942e-21)
(-0.268977 -0.00558624 2.17374e-19)
(0.398468 0.0437346 3.50148e-21)
(0.881517 -0.0271936 0)
(0.792906 -0.274338 -1.36375e-19)
(1.05922 -0.281507 1.82452e-20)
(1.21831 -0.245288 0)
(0.384315 0.0447512 0)
(1.03929 -0.00865024 -1.70188e-20)
(0.568621 0.021057 1.67327e-19)
(0.940659 -0.119694 -1.88098e-20)
(1.10412 -0.0295533 -1.96968e-20)
(-0.167508 -0.00763414 -1.12349e-19)
(1.27289 0.00222733 0)
(1.0289 -0.00967467 0)
(1.18563 -0.0385255 0)
(1.04635 -0.0117688 -7.23683e-21)
(0.443151 0.0372366 3.11419e-21)
(-0.251894 0.000722657 4.23491e-20)
(1.02421 -0.0432397 0)
(0.690937 -0.146499 0)
(0.595302 0.0656921 6.27064e-21)
(0.999984 -0.00115709 0)
(0.999976 -0.0015557 0)
(1.09512 0.042071 3.80062e-20)
(0.262512 0.00175583 5.20693e-21)
(0.918962 0.0689476 2.03605e-20)
(0.973338 -0.0162592 0)
(1.1764 0.0121541 -5.75375e-21)
(1.06316 -0.0201922 -8.61891e-21)
(0.987271 -0.00360279 0)
(1.11284 0.0688994 0)
(1.17596 0.0146165 3.25836e-21)
(1.21346 -0.179889 9.99071e-20)
(1.02376 -0.00314304 -1.7431e-21)
(1.10975 0.0497812 0)
(0.904471 -0.207345 1.49986e-20)
(1.09332 0.0387667 0)
(0.956895 -0.0188928 0)
(1.00707 -0.0686026 0)
(1.13382 -0.188947 0)
(0.913902 -0.0480161 0)
(1.10788 0.0523913 0)
(1.12404 0.00226511 3.51218e-21)
(1.1266 -0.00089958 3.32316e-20)
(1.07101 -0.327486 -3.04068e-20)
(1.16703 -0.651195 0)
(1.20331 0.0238025 8.6166e-22)
(0.637032 0.060163 0)
(1.06308 -0.10468 -6.05511e-22)
(1.10553 0.0555476 1.25761e-21)
(0.0883174 0.0131014 -3.08086e-21)
(1.02077 -0.177598 9.17717e-22)
(0.869595 0.0618716 -3.62167e-20)
(1.14869 0.0357001 -3.88967e-20)
(1.03242 -0.0216475 4.92917e-21)
(1.09601 0.00127262 -1.82807e-20)
(1.19964 0.0210238 3.68979e-20)
(1.0563 -0.0890623 -1.54808e-20)
(1.0049 -0.0175189 -3.43146e-21)
(1.00541 -0.0165989 0)
(1.09591 0.0497767 2.34081e-21)
(0.194616 0.00367693 0)
(1.0807 0.00760819 -2.67185e-21)
(0.0776075 0.0335686 2.84215e-20)
(1.01283 -0.0104881 -6.89057e-22)
(0.885256 0.0683722 -3.16853e-20)
(0.996504 -0.370524 0)
(-0.210472 0.00234462 0)
(1.18616 -0.0436039 -4.58173e-20)
(1.0811 -0.0494022 -7.08163e-21)
(1.0721 -0.0239397 -4.17253e-22)
(-0.198395 0.00503378 0)
(1.21535 -0.174649 -8.23544e-20)
(1.02129 -0.170741 1.04535e-21)
(1.12826 0.0633691 -1.39528e-20)
(1.04577 -0.0378804 -9.7211e-21)
(1.24308 -0.440142 -8.30518e-20)
(1.09519 0.0503107 -1.08281e-20)
(1.1294 0.0525852 -1.9229e-20)
(1.10663 -0.0476753 1.96043e-20)
(1.26821 -0.149752 -5.80868e-20)
(0.988042 -0.0175293 5.98479e-21)
(1.00007 -0.00164465 -5.02605e-21)
(0.940466 -0.020572 1.08095e-20)
(0.986623 -0.00437733 1.96139e-21)
(0.410904 0.0389014 -1.33055e-20)
(1.00398 -0.000784521 8.30446e-22)
(1.10827 0.0671419 0)
(0.32242 0.0404802 1.63263e-22)
(1.18965 -0.0451547 -3.84372e-20)
(-0.0249302 0.0192091 0)
(-0.153198 0.00516488 0)
(1.13067 0.05287 0)
(1.22699 -0.241202 6.63925e-21)
(0.884365 -0.0346166 -3.20766e-20)
(0.998592 -0.00019054 -3.66044e-22)
(0.98263 -0.0158672 0)
(1.02089 -0.00684062 0)
(1.03067 -0.0118114 7.10242e-21)
(1.00101 -0.000546407 2.40457e-21)
(1.15337 -0.0191608 0)
(1.20438 -0.0177525 -9.05291e-20)
(0.901121 -0.21883 1.19449e-20)
(1.15002 0.0620611 -8.64747e-20)
(1.0231 -0.0648787 0)
(0.236962 0.0293093 -2.00804e-20)
(0.999981 -0.000143835 -3.66528e-21)
(-0.153038 -0.0229131 7.52942e-24)
(1.11769 -0.094565 -2.54004e-20)
(0.999934 -0.000281677 0)
(0.996985 -0.00100143 0)
(0.381788 0.0436735 -3.58354e-21)
(1.08316 -0.0428506 -2.03376e-20)
(0.919232 0.0701855 -4.25803e-20)
(0.431688 0.0423204 0)
(1.111 0.0114742 -1.826e-20)
(1.13403 0.0142271 0)
(1.03249 -0.0029818 1.23565e-20)
(0.294186 0.0442563 2.08334e-20)
(0.98437 -0.0821097 0)
(1.07175 -0.0210386 0)
(1.11266 0.0690951 0)
(0.998625 -0.000681976 1.13578e-20)
(0.97336 -0.042975 -5.05284e-21)
(1.03644 -0.0130239 0)
(1.09605 0.025935 2.46862e-20)
(0.171164 0.00494819 -3.41556e-20)
(1.09227 -0.0626307 -2.87284e-20)
(1.10774 -0.0425953 0)
(1.25487 -0.16655 0)
(-0.0718587 0.0144376 -1.19313e-19)
(0.885838 -0.0568888 -1.26878e-21)
(0.986184 -0.105727 8.84269e-21)
(0.461067 0.0412936 -1.19084e-20)
(1.02045 -0.00662427 0)
(0.450272 0.0402082 1.68114e-20)
(1.00038 -0.00120422 0)
(1.06557 -0.0188154 5.07783e-21)
(1.22852 -0.0108993 1.36736e-19)
(1.1144 0.0379243 2.75958e-21)
(1.12787 0.0450175 0)
(1.18805 -0.102364 -2.83888e-20)
(1.13353 -0.0208119 0)
(0.999512 -0.000853373 -1.30068e-24)
(0.99999 -0.000152042 -3.91423e-21)
(1.15858 -0.0244466 0)
(1.04362 -0.0395972 4.95324e-21)
(0.999634 -0.000680992 1.27121e-20)
(1.0797 0.0115765 0)
(1.24413 -0.204137 -1.68519e-20)
(1.00473 -0.00570591 2.7701e-21)
(1.20596 -0.259359 1.07869e-20)
(1.2698 -0.470714 -7.79729e-20)
(0.970002 0.0714206 1.14634e-20)
(1.18656 -0.0977974 0)
(-0.0471977 -0.0205951 -2.56012e-19)
(0.83787 -0.0907861 0)
(0.998451 -0.000516684 -1.24339e-20)
(1.21856 -0.114213 0)
(1.01225 -0.0109078 1.90677e-22)
(1.08602 -0.0288786 -2.92466e-21)
(0.682799 0.0635194 -1.48762e-20)
(0.483284 0.0386416 -1.97309e-20)
(0.558639 0.0207207 6.84106e-21)
(0.500612 0.0453399 -2.31743e-20)
(1.02799 -0.0436684 -2.8054e-21)
(1.02411 -0.0423918 -1.0217e-21)
(0.975919 -0.278519 3.29751e-21)
(1.00353 -0.0659122 -4.49736e-21)
(1.02253 -0.0199362 3.31625e-21)
(0.576134 -0.295432 9.01612e-20)
(1.13704 0.0501617 -3.57715e-22)
(0.156123 0.00915231 0)
(1.09359 0.0506316 -5.08822e-21)
(1.11574 0.0381991 0)
(0.985219 -0.00625051 -2.5204e-21)
(1.0208 -0.0133727 1.81637e-21)
(1.29589 -0.333864 0)
(1.14199 0.022589 6.32384e-20)
(1.06762 -0.0187584 -5.78425e-21)
(0.999802 -0.000101063 0)
(1.1255 0.0463153 -1.99718e-20)
(1.22369 -0.0445413 -8.36005e-20)
(0.0883425 0.0344856 -3.78274e-20)
(0.972376 -0.020961 0)
(1.0009 -0.00337552 0)
(0.153456 0.00288907 2.57536e-20)
(0.958032 -0.0174975 0)
(1.10795 -0.0270766 2.05067e-20)
(1.01244 -0.00855422 3.52817e-22)
(0.0209509 0.0286384 0)
(1.00984 -0.000498878 4.59129e-22)
(-0.260242 -0.00834935 8.74887e-20)
(0.994805 -0.00597704 -7.17696e-21)
(1.19598 -0.196681 0)
(1.11402 -0.00738179 5.01591e-20)
(0.95248 -0.282186 -4.75617e-21)
(1.1086 -0.0460397 0)
(0.992887 -0.02579 4.54895e-21)
(1.07243 -0.0308294 -8.35733e-21)
(1.00334 -0.00409187 0)
(1.10423 0.0657603 -8.93561e-21)
(0.961059 -0.0266758 0)
(0.295895 0.0122903 -6.851e-21)
(1.04798 -0.0371082 -3.76556e-21)
(0.956998 0.0622731 1.46512e-20)
(0.26077 0.0376383 -4.31716e-20)
(1.10228 -0.0520323 -3.01065e-20)
(1.00394 -0.00293287 -1.15564e-21)
(-0.183288 -0.0207691 -1.62694e-19)
(0.736816 0.0616144 5.3095e-21)
(1.08545 -0.0347863 -2.26798e-20)
(1.11297 0.0385733 8.1596e-21)
(0.982657 -0.0149 4.96095e-21)
(0.229694 0.00441548 -3.7615e-20)
(1.03332 -0.0223469 2.72938e-21)
(1.2013 0.0185009 4.3108e-20)
(0.999177 -0.0101412 -5.87653e-21)
(1.00362 -0.00427137 0)
(0.960407 0.0740644 2.70446e-20)
(1.10833 -0.0207635 2.24282e-20)
(1.00045 -0.00726104 0)
(1.0817 0.0192373 2.89945e-20)
(0.142508 0.0370074 1.61026e-20)
(0.721863 -0.789108 -1.34419e-20)
(0.547964 0.0649761 0)
(1.01784 -0.0165913 0)
(0.104668 0.0153043 2.71064e-20)
(0.997486 -0.00893842 -3.81177e-21)
(1.00453 -0.00538184 -1.92735e-21)
(0.973671 -0.0238271 -1.47892e-20)
(1.0204 -0.000242402 3.01432e-21)
(0.999875 -0.0021307 0)
(0.49701 0.0630378 -1.47403e-20)
(0.653303 0.0607936 0)
(1.04655 -0.022215 5.38826e-21)
(1.00089 -0.000800516 1.19666e-21)
(1.12274 -0.0349739 1.34967e-20)
(1.01596 -0.0236862 0)
(-0.151594 -0.0251637 -4.76968e-20)
(1.22274 -0.110642 9.10535e-21)
(0.0697437 0.00978011 5.09008e-21)
(-0.00507771 0.0212418 0)
(1.07195 -0.0319041 8.8676e-21)
(1.10885 0.0518981 2.75409e-20)
(0.999849 -0.00984041 0)
(1.11657 -0.00416689 -2.44434e-20)
(0.991326 -0.352944 -1.33375e-21)
(1.03859 -0.00799972 2.16038e-20)
(1.00033 -0.0011829 0)
(1.29539 -0.310559 0)
(-0.241414 0.00151048 4.51423e-20)
(1.13204 0.0145865 1.18168e-20)
(-0.325228 -0.00856542 0)
(1.11781 0.0243672 3.01322e-20)
(0.995777 -0.00313407 4.46237e-21)
(1.126 -0.046511 -3.26835e-20)
(1.11246 0.0393434 0)
(-0.296594 -0.00326992 0)
(1.10189 -0.0107607 0)
(1.08729 0.073392 1.59117e-21)
(1.14416 0.0226714 -5.13498e-20)
(1.0002 -0.00226939 1.58815e-21)
(0.368724 -0.12493 4.45661e-20)
(0.267589 -0.089646 0)
(0.20167 0.0093535 1.92175e-20)
(1.24701 0.00604868 0)
(0.914503 0.0625547 2.67491e-20)
(0.978531 -0.0720848 1.22722e-20)
(0.726315 -0.35181 6.75852e-21)
(0.972314 -0.00414109 -1.87259e-20)
(1.16037 0.0580165 -1.53926e-20)
(1.0553 -0.0857312 0)
(1.00798 -0.00157345 -1.34571e-22)
(0.50248 0.0642971 0)
(1.01935 -0.0639181 7.67148e-22)
(1.00386 -0.00269275 -8.25816e-22)
(1.01268 -0.0414503 0)
(1.01796 -0.0621504 -7.42778e-22)
(-0.00852238 0.0261637 6.53111e-21)
(1.19513 0.0248066 0)
(1.01206 -0.0151906 -4.48324e-23)
(1.12797 -0.0439749 4.32376e-21)
(0.0374061 0.00725401 -8.19323e-21)
(1.03728 -0.0590744 4.4781e-21)
(-0.339545 -0.00648088 -1.24546e-19)
(0.95721 -0.0436734 0)
(1.1195 0.0332796 -2.68247e-20)
(0.10197 0.0372111 0)
(1.00124 -0.00697271 -1.5159e-21)
(1.09634 0.0639017 1.52841e-20)
(1.06491 -0.100954 0)
(1.10527 -0.0531275 -1.0839e-20)
(0.677632 -0.816733 -9.19165e-21)
(1.02177 -0.0633109 0)
(1.25851 -0.0835435 -9.56759e-20)
(1.09374 0.0400773 0)
(0.182691 0.041695 4.62821e-20)
(1.04825 -0.00625024 -1.54078e-20)
(0.250841 0.00929844 1.65504e-20)
(1.10026 -0.0317318 -8.38696e-21)
(0.0404704 0.0143201 2.62809e-20)
(-0.282795 -0.0005952 -1.92766e-19)
(0.228763 0.00533854 2.57146e-21)
(1.10897 0.0141272 0)
(0.98992 -0.0241366 5.51683e-21)
(1.02732 -0.0448409 3.00138e-21)
(0.999967 -0.00111643 1.45794e-21)
(1.083 0.0295772 -1.66387e-20)
(0.996964 -0.0028798 -1.1217e-20)
(0.156717 0.0343029 2.10753e-20)
(1.02773 -0.116687 -1.18778e-21)
(0.924668 -0.0877235 -2.12602e-20)
(0.88879 -0.0535204 1.87733e-20)
(0.980617 -0.0706994 -1.2482e-20)
(1.01742 -0.0160068 1.7866e-21)
(1.06993 0.0149041 -1.74126e-20)
(1.06217 -0.0868987 1.74305e-20)
(1.06565 -0.0120308 -1.33233e-20)
(1.04196 -0.0978285 -2.85394e-22)
(0.307659 0.0433349 -2.30532e-20)
(1.10086 0.0646909 0)
(1.0978 -0.0233337 0)
(1.11094 -0.152311 0)
(0.531875 0.06371 0)
(0.970669 -0.0424707 5.66328e-21)
(-0.118175 -0.00714738 3.80711e-20)
(1.01982 -0.00657889 0)
(1.0286 -0.140642 1.03504e-21)
(0.959294 -0.0253682 1.68422e-20)