/*--------------------------------*- C++ -*----------------------------------*\
| =========                 |                                                 |
| \\      /  F ield         | OpenFOAM: The Open Source CFD Toolbox           |
|  \\    /   O peration     | Version:  v2012                                 |
|   \\  /    A nd           | Website:  www.openfoam.com                      |
|    \\/     M anipulation  |                                                 |
\*---------------------------------------------------------------------------*/
FoamFile
{
    version     2.0;
    format      ascii;
    class       volScalarField;
    location    "750";
    object      ddt0(omega);
}
// * * * * * * * * * * * * * * * * * * * * * * * * * * * * * * * * * * * * * //

dimensions      [0 0 -2 0 0 0 0];


internalField   nonuniform List<scalar> 
13917
(
-8.05764e-05
1.09713e-06
-0.00929984
1.29416e-05
-2.10405e-07
-0.00104075
-0.0408977
0.000755578
-0.0141881
-8.97296e-05
-0.000699689
-0.000616541
1.27556e-05
-0.307886
1.82933e-05
-2.52551e-06
8.85485e-07
-0.000265033
-0.000595797
-1.57171e-07
3.75456e-08
-0.046183
-3.4662e-07
0.00186378
1.20723e-06
-0.0700061
-0.00250989
0.000619028
0.0585691
-0.00213904
-0.000173631
-3.44373e-05
2.79577e-05
-3.65733e-05
1.06464e-06
-0.0749718
-3.74605e-07
-0.0441576
5.2813e-06
0.0212036
-1.82506e-07
1.69341e-08
1.06276e-06
2.75235e-05
3.49559e-06
4.48204e-05
-0.000271261
-0.000117635
0.00242131
-1.41606e-07
1.97825e-05
-4.26453e-07
0.0143239
-1.44651e-05
4.38494e-08
-2.93533e-05
-0.000276081
-1.10191e-06
-9.81555e-06
3.29013e-06
0.0800934
1.6148e-06
-0.0874146
-1.92164e-07
0.00731348
0.0708627
-8.45608e-08
-1.26265e-08
0.000975555
-6.99835e-05
-2.90968e-07
-0.0157836
-0.0251052
1.10618e-06
0.00350184
-0.000909142
-0.0373484
1.63352e-06
-0.0889969
2.44722e-08
-3.89251e-08
-6.36249e-08
0.0329313
-0.0395474
0.0174544
2.39265e-06
-1.00005e-07
-1.97718
-4.80209e-07
1.08681e-06
-0.0299992
-0.00218786
1.2571e-06
-4.38877e-06
-5.57858
0.00191353
-0.000358581
-0.000163346
-0.000778213
-0.0191392
3.16723e-08
4.25958e-05
-0.000719639
1.34185e-06
3.07066e-07
-0.0267788
-0.0171391
-0.000163743
1.14456e-06
-0.000134076
-0.0147528
0.0160547
-0.000641775
-0.023986
-6.53401e-07
-0.0102652
6.17424e-07
0.00200784
0.00921373
-6.01048e-05
2.61363e-08
0.000926406
-0.0477578
-0.000333051
-2.46456e-07
-4.33393e-06
3.30509e-06
-2.75522e-07
8.45269e-07
0.00123377
-0.0479551
-1.15895e-06
3.47747e-06
2.53327e-08
-0.0413164
0.00189708
-7.84855e-05
-0.0055447
-6.89694e-08
-0.000304591
-0.0555534
1.71309e-06
-2.75388e-06
0.00270766
8.39793e-09
-0.0225298
0.0369286
-3.30164e-07
1.48968e-06
-3.07144e-05
-0.000253159
-0.0106721
-0.000579979
0.000106668
-2.83282e-05
0.0573469
-5.36592e-05
-0.022653
-0.0422799
-0.0406239
-2.15181e-05
0.00367149
1.162e-08
-0.000414212
-0.000570564
-0.000868321
1.99383e-06
-0.000135152
2.75185e-06
0.000507574
-0.000297862
-0.0509239
-0.00072834
7.28256e-07
-0.0174913
7.03979e-05
-0.0506519
0.00136782
-0.0222014
-1.03377e-06
-0.000469266
-0.000154507
1.7936e-06
-1.63661e-07
0.000299183
-0.0617188
-0.00732287
0.12305
-0.000142533
-0.000144122
0.0132681
0.0389476
-0.00454207
-4.36504e-07
-0.00987882
0.00232436
-1.15749e-06
1.39651e-06
-0.00202683
-1.76239
-1.64213e-05
-1.43465e-07
-0.000206494
-0.000228925
-0.0262119
0.0861119
9.9943e-07
-1.47097e-06
-9.15204e-05
-0.0315311
-2.41806e-06
-0.0373537
-0.027515
-0.00019284
1.62144e-07
-0.043016
-0.000259186
-0.0234889
6.74327e-07
0.0697768
-9.7991e-07
-0.00134385
-1.12589e-07
-0.0382006
-0.0297061
-2.44147e-06
0.350347
-3.27544e-05
1.8388e-07
-0.0705993
-0.000843256
-0.000134495
-0.000238956
-0.0347835
8.32557e-09
-3.61339e-05
-0.0264694
0.00581498
1.60555e-08
2.01394e-07
0.0136867
-0.000308876
-6.9477e-09
-0.0175125
-0.000542723
0.00548003
-9.82674e-05
1.50759e-08
-0.00129912
-0.0291942
5.75382e-06
-0.00323484
0.0232164
3.16806e-06
-6.54298e-07
-0.000349633
-0.00455423
-0.00041439
0.000265426
-1.78452e-05
-3.75154e-09
-0.015243
-0.0361369
-0.0502418
2.94104e-08
-0.0190665
-0.0901008
-0.0232985
-0.090687
-0.000871972
-1.78128e-08
-5.76048e-08
-0.000240303
-0.041617
0.0008905
-7.3957e-06
0.0671917
-0.000275126
7.01095e-07
0.0011581
-1.23674e-07
-0.0164466
-1.26791e-05
-1.84406e-08
-1.36614e-05
0.000114612
0.000942307
-0.0216253
-7.6684e-06
5.15863e-06
0.0013408
0.000702812
-0.0430661
7.01661e-07
-0.0132811
-5.4038e-08
5.37767e-06
5.26368e-07
0.0169346
-7.54386e-08
-0.000447466
-8.50655e-05
2.70978e-06
-0.000254792
5.85844e-06
0.0025508
8.70415e-05
-0.000581113
2.5522e-06
-5.18992e-07
-0.014747
-0.110289
6.7179e-07
-7.19085e-08
-0.00235256
-1.5953e-07
-0.0248057
2.45546e-06
-0.0347798
1.00447e-05
0.123977
-0.000104193
0.00490262
3.10949e-05
-0.0521347
0.00612716
-1.62732e-05
-0.000205527
0.00918628
-3.11514e-06
-0.0516335
0.00102528
-0.0843506
0.000114109
0.0145025
-4.38093e-05
-0.00664698
-0.0456382
0.000215447
-0.00190613
-0.0180776
-3.29008e-08
-0.000186732
-0.016495
-1.49246e-06
-4.30109e-08
-0.112774
-0.00316478
1.1145e-06
0.0256821
0.0394422
5.7286e-08
0.0244101
-0.0831382
-1.33525e-07
-5.16058e-08
7.63952e-09
1.54937e-06
0.0134785
-0.0206925
0.0192257
-0.0154145
9.71223e-07
-0.0055215
-0.0206542
-0.000172591
-0.0425514
-0.0365467
-0.0267194
1.4965e-07
-0.0479492
-1.13607e-07
0.0502763
3.31793e-06
0.00678459
-0.000652917
1.82483e-06
-1.09632e-07
-0.000141086
-0.00270013
-0.00038289
0.0724261
-0.0103675
-0.0613967
0.000638195
-0.000479075
1.88115e-07
0.0173931
-0.0582315
-2.07815e-06
-0.0470885
5.31569e-07
-0.0103764
9.75666e-06
-2.87339e-09
-1.11347e-05
-0.0953037
-1.21134e-06
-0.0192638
0.136355
0.000221436
0.0270895
-2.59159e-06
-0.0121527
0.00798923
4.04695e-08
-0.0011962
-1.4005e-06
8.91656e-07
-0.00206227
-3.76332e-09
1.12331e-06
-1.37787e-07
-0.00940266
3.71532e-08
0.00769817
-0.076427
-0.0316444
-0.00448268
-0.0484582
-0.0208007
-0.000180221
7.61108e-07
-0.00263583
4.4364e-06
-4.4226e-05
-4.06931e-07
-0.0208857
-0.0446231
-0.0502148
-1.43422e-06
-0.00045267
-0.000332062
3.10775e-06
-0.000388113
1.10665e-06
-0.339643
1.18323e-06
-9.12084e-08
-0.0233437
-0.0498072
-0.0528726
-0.0018578
-0.0593497
-0.0484399
-0.0200065
-0.0494428
7.90695e-07
-0.000186225
-9.17107e-06
-1.89055e-06
0.111653
-0.000269179
3.22573e-06
-0.000390975
-0.000154981
-0.0511787
8.62355e-08
2.9496e-05
0.354112
-0.0250911
-0.0167464
3.9334e-08
-1.96006e-06
-1.31826e-06
-4.54019e-05
1.51114e-07
-0.0498064
-0.00255127
-3.00574e-05
0.0405922
-3.01538e-05
-0.000223394
-0.0228777
0.0130933
-1.8047e-05
-0.074904
0.000375604
-0.000445824
-0.00185923
-0.000233302
-0.000597634
-0.00202825
-0.000368486
-0.000252097
9.08831e-07
0.0317012
-9.1534e-05
2.8923e-06
-5.68355e-05
1.64708e-06
-0.0465166
-0.0230136
-5.21816e-07
8.35909e-07
-0.0256619
-0.03953
-8.6815e-09
0.0115721
6.68763e-06
-0.00464031
-5.9572e-07
-0.0224684
0.035444
-2.95081e-05
3.44623e-06
-0.0635839
-0.00657406
-0.0148179
-3.1804e-09
-0.027966
0.00195652
0.00479792
2.96766e-06
0.00571817
-0.0476501
-0.000176988
-8.75362e-08
-1.4853e-06
-0.000922084
0.0226095
2.82998e-06
3.19067e-08
-3.10049e-08
-1.94731e-08
-0.0189572
0.0953793
-0.000171299
-0.00786347
-5.20463e-07
2.99271e-08
-0.000456179
-0.0286123
-0.000103082
3.00442e-06
9.36461e-07
-1.49664e-08
0.00347431
0.0596399
-1.016e-07
1.21561e-07
0.113878
-0.000240999
-9.55577e-05
-1.94842e-06
1.108e-05
-1.85899e-05
-0.000282268
0.000456279
-0.00667247
-0.00235418
-0.000616689
0.0776739
-0.00132805
7.93731e-07
-0.028306
-7.02359e-08
-6.87358e-07
6.30103e-07
0.0669688
0.000520888
-1.2652e-09
-0.0259093
-0.00152385
0.102676
-0.000766773
0.000794262
-0.000163691
-1.58209e-07
-0.0449547
-0.106793
-0.0298314
6.06229e-07
-5.91561e-05
-0.00933796
-0.0336301
-0.138751
-0.000253848
-0.00230326
-1.46275e-06
-3.20658e-06
-1.92381e-06
-0.00399459
0.00041874
-1.20312e-07
-0.00022882
0.00485143
-0.0255716
-0.0149123
4.22231e-07
-0.000171371
0.0706869
-6.13357e-07
-1.971e-06
-0.00167625
-0.0370385
-0.0130045
-0.00981392
9.01902e-07
0.0368846
-0.000856238
-1.10857e-07
-7.76608e-05
-0.000273064
-0.000193589
-0.0026141
-0.0858344
-0.00150914
-0.000184423
-0.0451628
8.31474e-07
-0.0539571
2.30672e-08
-1.33993e-07
-0.0132961
-0.0363886
-0.0877165
9.06084e-07
7.28564e-07
8.71385e-08
-0.000280516
0.00699505
-0.0008648
-3.02682e-06
0.000175799
-0.000244791
-7.74213e-07
0.327777
-0.000892522
0.10599
2.39566e-07
-0.00120225
2.66113e-06
0.260777
-0.000896917
-0.00101025
-5.92578e-05
6.1549e-08
2.57329e-06
3.38813e-06
-0.00125199
-3.90821e-05
-0.00925608
0.029145
-0.000185597
7.1869e-08
-0.00190885
-0.175125
-0.0708739
5.56719e-06
5.67488e-05
5.61388e-08
-4.19753e-05
-1.23037e-05
-0.0460962
1.50096e-08
-1.84447
-4.09873e-05
-0.000146284
-0.00056999
-0.0233794
-0.00212588
-1.40332e-06
-0.0408293
-0.107571
-1.81438e-06
3.57159e-06
0.0656718
-0.00416471
0.000524588
-1.27447e-08
3.06801e-06
-0.00260675
8.65719e-07
-0.000440561
-0.000373475
2.69798e-06
-0.00021208
-0.00680514
5.71151e-06
1.08658e-05
-5.23524e-08
-0.137577
3.23739e-08
-2.02833e-06
-0.0404462
-1.84039e-06
-0.0345135
-3.00348e-05
3.84677e-05
-4.26899e-08
-0.00124994
3.9077e-07
-0.000366178
4.63772e-08
-0.000218153
6.60531e-06
0.203638
-0.015751
-0.0315306
-1.4587e-06
-7.64165e-08
-0.000648225
-0.000188493
-0.0714543
-0.0251201
-0.00024626
9.41367e-07
-0.00406603
-0.113574
0.0850837
-0.00430187
-0.000101124
-0.0929071
-0.000104962
-0.000219852
-0.00175539
-0.000427951
-0.000254982
0.0774561
-0.000173873
7.32019e-06
-0.000286961
-1.76869e-05
3.69302e-06
-3.72746e-05
-0.000185847
-2.67437e-05
4.42874e-07
-1.47458e-07
-0.000350522
2.94244e-06
-0.000435776
8.94973e-07
1.83932e-07
2.09153e-08
6.80399e-06
1.14398e-06
-1.41682e-05
-6.91444e-08
-0.0218525
-0.000597756
-0.0496687
4.95573e-08
2.86579e-08
-0.000172664
-0.000479277
-6.93067e-07
-0.00467646
-0.00128648
0.00930242
-4.51912e-05
-0.000815304
4.92293e-06
2.74673e-08
2.53847e-10
-1.29657e-05
-0.0598458
2.11361e-08
0.0144356
-1.78135e-05
-0.0129882
-0.00128044
-0.00179021
0.000168828
1.36614e-06
3.00061e-10
-0.000603343
3.88067e-07
-3.29057e-06
-0.0131294
1.93201e-06
-5.4571e-08
-3.90961e-05
1.34949e-07
8.59294e-07
-2.68699e-05
-0.0024914
-0.0973208
-7.71648e-05
5.69717e-06
-1.1497e-07
-0.0288816
-0.00167855
-2.12422e-06
1.2581e-06
-0.00962562
0.0577781
-0.061039
0.00255709
7.81988e-06
-1.73429e-08
9.36489e-07
-0.000349083
-8.03626e-05
-0.00302247
0.000457918
-0.0550723
2.0617e-06
-4.99039e-06
-0.0656849
3.82866e-07
6.43754e-05
-1.62705e-06
-1.03161e-07
-0.000104681
-0.00538305
3.03539e-06
-0.0341643
-0.000866713
-0.00144256
7.44395e-07
1.68899e-06
3.26255e-05
0.0359876
-8.17252e-09
0.0541299
1.70239e-06
-0.000164262
4.72034e-06
3.94123e-06
0.0586946
3.99607e-06
0.0554553
-0.000153675
1.30424e-08
1.16828e-06
3.74022e-07
-5.28124e-07
1.08633e-05
-0.0414052
5.00473e-06
2.91432e-06
-0.00219481
-0.0199009
-0.000207245
-0.000250818
-0.000394839
-1.55666e-05
1.56264e-06
-0.000236152
-0.0272085
-0.00242953
-4.63875e-07
3.63803e-06
-0.025402
-0.000125238
-0.0170782
1.58661e-08
-4.79054e-07
-0.212756
-0.000102372
2.82239e-06
-0.0517945
0.000279678
-5.15269e-07
-0.00113543
5.35622e-09
3.58329e-06
9.10306e-08
-0.0194726
1.17303e-06
7.12154e-06
1.6312e-06
0.0491217
6.21503e-06
-0.00459403
-0.0124288
4.22191e-06
-0.000572519
-8.93986e-08
-0.0159041
2.5395e-07
5.32899e-06
-7.04898e-08
-4.16976e-05
-8.72948e-08
-0.00147693
0.0209478
-0.00102087
-1.1815e-05
-0.033653
-0.0296656
-6.10449e-07
0.0813377
0.093336
-0.0226615
-0.0510402
-0.00226024
-0.0342585
-0.00148153
7.93951e-07
-0.0878858
-0.000101569
-0.0594736
2.81358e-06
1.49566e-06
-2.04165e-06
-1.34553e-07
-2.01404e-05
-0.000226479
-0.0800429
1.4136e-06
-2.76233e-08
-0.0144138
-0.00399932
2.81175e-08
0.0031331
-6.35147e-05
3.89709e-06
-0.0946708
0.00361351
8.05787e-07
6.91898e-06
0.0144946
-0.0608675
0.00382296
4.26678e-06
-0.00676746
-0.000995452
-0.0208021
-0.0297107
-0.000933692
-2.70597e-07
4.55167e-06
2.71547e-06
7.10322e-07
9.77116e-07
6.87887e-07
-1.88488e-05
-9.4181e-05
0.0509043
-0.000215163
6.94443e-06
-0.00105011
-0.0210717
-0.000152374
-1.67303e-06
-0.0487511
2.63416e-06
-3.26621e-06
6.97538e-05
0.0727862
7.34404e-09
1.52217e-07
-0.0346187
-0.0998218
0.0737725
0.000534005
-0.0738826
-1.61121e-07
-0.00225598
-2.48235e-06
3.1873e-07
-2.15636e-06
-0.0605204
-0.0304913
3.17247e-06
1.21993e-06
-1.7445e-06
0.0456727
6.00329e-06
-6.20866e-05
2.85769e-07
9.40473e-07
-0.00227031
4.39725e-06
-0.000435768
-0.00518161
-0.0558221
2.92096e-06
0.00291162
1.17162e-06
-0.0223943
-0.0200227
1.12065e-06
-0.0150279
-0.000378528
0.00242254
-4.79478e-08
-0.0943728
6.02945e-09
-2.86507e-05
-0.000132625
0.00021248
-0.0320314
0.13339
0.000397739
-0.0394678
5.16508e-08
-0.00497577
3.99115e-06
-1.41193e-05
-0.0322907
-2.03919e-06
1.32325e-08
5.56725e-06
3.43351e-06
0.0349625
1.21453e-06
-3.1855e-07
-0.000209766
-0.000209592
-0.000158193
-0.0160659
-0.000758957
-0.0529526
-0.000676234
-0.000114853
-0.000204777
-0.0435673
-0.000212662
0.0475489
-0.073363
-1.19079e-05
4.56786e-06
-0.0472175
0.0833667
-8.96219e-07
0.000119524
-9.86294e-05
7.72934e-06
-2.80683e-05
3.51859e-06
-0.000131866
3.95902e-10
-0.000126151
0.00223932
-1.02334e-07
-0.000436903
3.22178e-06
0.00102637
6.85919e-08
0.000177349
-0.000275334
2.64964e-06
5.03065e-06
3.18526e-06
0.139317
-0.000179794
-0.031194
1.23586e-06
1.47167e-06
-0.000270379
-1.60256e-06
-0.000760336
-0.000493467
7.76634e-06
-0.000297682
3.13214e-06
0.0386901
-1.1305e-06
-0.000184068
-0.0868465
-0.0135356
-7.56676e-08
1.29224e-06
0.0240339
2.61664e-07
1.40812e-07
-0.0146519
-0.0200175
-1.74322e-05
0.00262865
-1.52435e-07
5.15263e-06
-0.0520474
5.81938e-06
1.31085e-06
0.0197805
3.684e-06
0.00909605
-5.69839e-08
1.18929e-06
-2.55339e-06
-0.000541967
-0.0376162
-1.00409e-06
-2.97782e-06
-1.12775e-07
-1.18493e-05
-1.06982e-07
-0.00398227
-0.000346344
-3.98906e-09
-0.0191143
0.00413942
-0.00700222
-0.0480133
0.0127329
3.05605e-06
-1.6299e-06
-2.12519e-06
0.0595555
3.52897e-06
-0.0368231
-0.0319281
-1.24297e-05
-0.0376114
0.000173848
-0.000256438
0.000508921
-0.00588082
0.043047
-0.022879
0.00278167
-0.072094
-0.0370271
-0.000496668
-2.26135e-06
-0.0429612
0.000696512
2.92632e-06
9.30263e-07
0.106041
-5.0782e-05
-4.42745e-07
-0.000329053
-0.000824622
-9.98969e-05
-0.0509882
8.41669e-07
-0.0356243
-0.000211959
0.106399
-0.000997305
-0.00731859
-5.31151e-05
2.94601e-06
-1.74953e-05
-0.00511728
6.36333e-07
-1.53195e-05
5.64321e-07
2.3156e-06
1.94315e-06
0.000173229
-0.000727509
0.0177767
0.0040072
-0.00314443
-0.0350632
-0.0024321
2.3411e-06
0.0474642
-0.063397
1.45443e-06
7.44081e-08
-7.35364e-05
-0.0494204
2.52866e-08
-0.00033521
-0.00979434
-5.92039e-05
8.2312e-07
7.55336e-06
3.96354e-06
9.71448e-05
9.78991e-05
-5.8281e-08
0.164904
-0.0920286
-9.43462e-05
0.139582
-0.000558221
-16.0999
-1.09889e-06
-1.66125e-05
-0.00900581
0.111524
-0.000855438
0.0886515
-3.82388e-05
1.27115e-08
4.49985e-06
-1.2539e-07
1.13592e-06
-2.90242e-06
9.2349e-05
1.3875e-08
-0.000306622
1.4925e-07
-4.46602e-05
3.75528e-06
-0.00259835
-0.000291207
-0.0976242
-2.95177e-07
-0.00804718
4.46076e-06
0.00299408
6.17892e-07
-0.000386216
-4.83184e-07
-0.00584968
-0.0235212
-0.000146739
-6.85356e-08
-0.000501329
-1.01796e-06
-4.33817e-05
-0.022753
3.43172e-06
-2.00494e-06
-0.000221592
-7.55227e-05
-0.0401728
1.19845e-07
0.000124253
1.11291e-05
2.5831e-07
0.000319219
4.04503e-06
1.30377e-07
3.76749e-06
-0.031659
-2.91816e-06
0.0236353
-0.0162382
-0.000227831
-0.0440944
-1.53383e-06
1.25941e-07
0.000237467
-0.0327166
9.02192e-06
-0.000151002
-0.000193534
8.25486
-5.3029e-07
-0.00922768
-0.000400468
-0.000387594
1.56877e-06
1.14348e-06
0.00140872
-2.035e-06
-1.80882e-09
4.65268e-05
2.73069e-06
-3.1352e-05
-4.30708e-05
-0.000366272
-0.0210136
-0.05069
3.30942e-06
-0.000214436
0.0804628
0.0248894
-0.000171255
0.00262242
-0.0441548
-0.000163051
0.0669304
-9.66634e-07
11.4246
-0.0544716
2.98637e-06
2.94838e-10
2.57808e-07
7.5906e-06
-0.000218868
3.94554e-06
-3.82396e-06
-0.000992901
-3.6758e-07
0.000556647
-0.0320507
3.81226e-05
-3.51094e-06
-0.0151098
2.70782e-06
0.00168602
3.58586e-07
-0.0052067
-5.22146e-07
-0.0249402
-0.0307585
-9.37603e-07
7.23121e-06
-0.0940742
-0.000203869
-0.0286353
-8.11563e-08
3.75829e-06
-0.0278028
5.11837e-06
-0.00151959
0.208999
6.58874e-08
-0.000295995
-4.50476e-05
1.1929e-06
-2.56293e-09
-0.0941565
-0.0338941
3.23749e-06
7.43214e-07
-1.37769e-06
-1.76645e-05
-0.00769703
-0.0498135
-4.14404e-06
-0.0188017
-0.0153047
0.107515
0.0440058
4.9629e-06
-0.000631174
7.21761e-05
-0.000173002
1.04487e-07
-0.000369465
-0.0350526
-8.71354e-06
-0.000179531
0.00471679
-0.00555489
0.0448432
5.03355e-05
-3.39938e-06
4.09253e-08
4.79335e-08
-0.0475509
-0.000258167
1.05695e-06
7.34261e-06
-5.26263e-06
2.47893e-08
-1.38996e-06
6.17574e-07
-0.000238291
-0.000178965
-0.0174967
0.00421314
0.0278704
-0.0321801
-1.38473e-05
-0.000207874
4.17365e-08
-1.04892e-05
-0.0280063
1.19665e-06
2.25296e-06
-0.000116977
1.07967e-05
0.00585564
-0.0830822
0.188404
2.46399e-06
-0.0480345
1.10126e-06
3.68803e-06
0.00718133
9.74907e-09
5.82392e-06
0.00120577
-0.0329824
3.5298e-06
-0.0268429
5.64332e-07
3.09064e-06
2.02034e-06
0.00701922
-3.57325e-05
2.50851e-06
0.109983
7.41358e-06
-0.00157647
-0.069012
-9.78403e-09
0.00420287
-6.2347e-08
0.0197795
-0.000365385
3.8693e-07
-0.0768249
-0.000171229
-0.000109013
1.45694e-08
-0.0421269
-1.9029e-05
0.0164724
9.97382e-06
-0.000363535
-0.0261819
2.89528e-06
0.149042
-9.69119e-07
-0.000451779
5.90909e-05
-1.38894e-08
-0.00507613
-1.82962e-06
-0.000614523
-0.000330445
-0.00355008
-0.000201837
0.00228517
-3.92913e-06
0.00406238
-0.000232635
0.0225389
0.000235337
-0.000311771
2.88222e-06
-0.000185876
7.71567e-07
-0.000759035
-0.00955473
-5.76444e-06
5.75303e-07
0.00426507
2.20821e-06
0.0696207
3.24142e-06
-0.0292195
0.124069
-6.9799e-05
6.36988e-07
3.49006e-07
-2.82705e-07
8.77425e-07
-0.00104365
-0.00145953
-0.0017625
-1.46904e-05
-1.13857e-07
0.0879533
-1.18841e-07
-6.27985e-05
0.118492
9.60622e-07
0.395801
-0.000251365
-5.64778e-05
-0.000972706
-0.0368838
0.0294285
-0.0113296
0.0457474
-5.38261e-07
-0.00250285
-0.0291257
0.0966628
-7.41652e-08
-2.93359e-07
-0.00011411
-0.0840206
0.00115202
0.0172747
9.72107e-06
0.000174088
-0.000157946
-0.0629915
-0.00730225
-0.00018659
-5.23153e-05
7.64304e-07
-0.000674898
-0.000954127
-1.15584e-07
-0.000849431
-0.00946067
-2.60811e-07
-0.0111
2.83231e-08
3.57913e-06
-0.0556765
-0.030509
4.34391e-08
9.99476e-06
4.0835e-06
3.55508e-06
-0.000337511
0.00149519
6.92979e-06
2.46835e-07
-1.98953e-07
-0.000225387
-3.59285e-05
-3.13125e-05
0.001344
1.13803e-06
-0.0250611
-0.0423885
-0.0173107
7.36499e-05
-0.000333265
0.0686223
-0.000100983
-0.092497
-0.0342017
-0.116076
4.01632e-07
-0.0258076
-0.0403052
3.94658e-08
2.49482e-07
-0.000800415
-0.0135389
0.0283514
4.3997e-06
-1.65972e-06
-0.0525095
16.1315
-0.426436
6.66862e-07
0.000117309
0.00729257
-2.86387e-06
-0.0493991
0.0867389
-0.080364
-0.155874
5.0431e-07
-3.33021e-07
6.86123e-08
-0.000290621
-0.064525
-0.000177412
-1.46158e-05
-8.81946e-07
0.00182055
-0.0480212
-0.000230592
-0.0297471
-0.0104803
-0.00467835
0.0151505
3.17783e-07
-5.36479e-08
-0.0217505
1.04678e-06
2.86572e-06
-1.38021e-06
-0.0114825
-0.000141459
0.137154
-0.00186074
6.48994e-07
-0.0257904
-0.000135135
1.79324e-06
-0.0255477
-0.00255817
6.06103e-05
6.32696e-06
0.0103818
-0.0200817
-1.20998e-07
-0.0236723
-0.0160758
0.0670562
-0.134252
-0.00164552
-1.114e-06
2.89728e-06
-0.108986
-1.84134e-05
-0.0038066
-0.000169183
-0.300925
0.02076
1.25945e-06
-6.51795e-05
-9.85555e-07
-3.86978e-06
-0.00344529
0.0188636
3.62174e-10
-0.011745
-0.000181994
-1.72039e-06
1.07342e-05
2.43657e-07
-0.000787537
3.47251e-06
-0.00551993
-9.97972e-05
-1.03034e-06
4.33134e-08
0.0404438
-0.0525828
-0.000156038
3.33632e-07
-0.000202224
8.59959e-07
9.23752e-07
-8.19466e-06
-0.0706169
-0.0259744
-0.0167654
5.78909e-07
4.57398e-08
3.40595e-07
-0.000812791
-1.59576e-07
3.02669e-08
0.00106423
-9.72833e-05
-0.0129247
2.84208e-06
-0.0218714
-0.0250166
-9.77491e-09
-0.0682057
0.000600258
-0.000168031
0.00110028
4.23352e-07
0.0298495
-0.000376732
-3.96094e-06
3.16044e-05
1.05856e-06
-0.0118868
-1.61621e-06
9.95206e-06
-0.000199236
-0.0235621
-0.0429717
2.80797e-08
-1.78668e-07
3.99231e-06
2.94333e-06
-0.00183276
-1.29713e-06
-0.000768855
9.79215e-07
-0.0372627
7.64008e-06
-0.0322786
6.08376e-07
-0.036316
3.44621e-06
1.13871e-06
0.0949099
0.0256034
-0.0381396
-0.0681153
0.000247968
-0.000157736
4.70854e-07
-0.0191834
3.38488e-08
-1.56749e-07
-0.00184533
-0.000681902
0.129908
-0.0161226
-0.000827944
-0.0335425
-0.0016495
-0.318386
3.14274e-06
-1.20156e-05
4.66435e-05
-0.02257
-4.64671e-06
-0.0197519
-0.00648901
6.7451e-06
-8.45377e-08
-1.86649e-06
-0.126862
0.00118545
7.5249e-08
-4.46953e-07
-4.06682e-06
-3.79334e-05
-0.000146504
0.00680182
-0.0038278
-1.03453e-07
0.00863295
-0.000458474
-0.0285609
-0.000420042
5.57786e-07
-1.02936e-05
-0.0236359
5.40536e-08
-0.00090368
-0.0212233
-2.51253e-06
-7.30943e-06
0.00183827
-0.0208352
-4.79412e-06
-0.172073
-4.71025e-06
-0.0092818
-0.000232293
-0.000117018
5.81196e-06
-0.0182257
1.24987e-08
-0.000584932
0.00402272
-0.00309738
-0.000303279
-0.000661249
-1.27254e-05
0.000262734
3.2383e-08
0.00328451
-2.12246e-05
4.47293e-06
-6.32576e-05
-1.49746e-07
-2.28162e-09
-0.00441909
-4.86604e-08
-4.92859e-08
-2.01152e-06
-0.000616866
-1.9954e-07
-5.14213e-05
-0.000215992
-0.00487556
-0.00252402
1.82418e-08
-0.00497159
0.0104927
-0.00442932
-0.000607226
0.000178884
-0.000838992
-0.000518685
0.0274067
-3.82929e-09
-0.0136111
-0.0529618
-4.70819e-09
-4.47611e-06
9.59401e-07
-0.0566601
-0.000340456
5.8835e-06
0.00766701
-0.0210286
-1.89631e-08
-3.9843e-07
-0.0912453
-0.0192853
-0.000674154
1.2456e-06
0.00406933
-0.0513027
0.00543347
3.53891e-07
-0.0227
-0.000863833
-0.000352368
-0.0144603
-2.59257e-05
9.63913e-07
-6.92661e-05
-0.0025482
-8.59246e-05
-0.0839154
-0.0236083
6.46163e-07
-0.0353231
-0.00092629
-0.0190942
6.97933e-07
0.00195268
-4.91256e-07
-1.21516e-06
-0.0220728
0.073283
0.0106486
-0.0119336
-1.34894e-06
-0.000237463
-2.40411e-06
-0.0181862
0.0160467
2.61457e-07
4.05396e-06
-3.4224e-05
4.7241e-06
-0.000312265
-0.0155979
-0.0257985
-0.000194363
3.18193e-06
6.82425e-06
-0.0205252
-1.68877e-05
-0.000189397
8.28421e-07
-1.20244e-06
-0.031782
0.0399315
0.0645704
-0.0321403
-3.10808e-08
-0.00827718
-1.82682e-06
0.000776047
0.0480252
-0.0449186
-1.386e-07
3.99781e-09
-0.000136508
-3.73475e-05
-8.196e-07
-0.0130136
-0.0218976
2.36348e-06
9.1419e-07
-5.18786e-08
2.39002e-07
0.00393035
3.3032e-06
-0.0824951
0.000302531
-0.000716444
1.88052e-06
-7.97674e-05
-0.0254227
-0.000104824
-0.000356706
0.0622526
-3.15457e-06
-0.0282118
-0.000148285
0.000327781
-0.000973138
-0.0292294
-0.0217511
-0.000484995
-6.10827e-07
-0.00811254
3.27345e-06
-8.98294e-05
-1.40884e-06
-0.0689474
-0.000200669
-0.322595
-0.0473448
-0.000129342
-3.06748e-07
-0.00390384
-3.08473e-05
4.60111e-09
-0.0348238
8.33697e-07
-0.000160703
-0.000108763
-9.07088e-07
0.0353015
4.61931e-07
-0.183164
-4.48741e-06
2.6715e-07
0.0452862
-0.049539
7.80256e-06
-0.000296704
-0.000184587
-0.000507704
-0.000382096
-1.81886e-05
-1.77546e-05
-1.29093e-05
-0.0114702
4.36741e-05
-0.0498971
0.000118869
-0.0532857
-0.000499825
4.7889e-06
-0.00800087
7.18662e-07
-0.0305742
-5.73951e-05
-0.0164611
0.302104
0.133297
-0.0245229
-0.00405505
0.00297778
5.51281e-06
-0.0224743
-0.000275399
5.22522e-07
-0.0473945
-0.014759
-8.63228e-06
2.47404e-06
-6.24163e-05
-6.24559e-05
-8.88406e-05
-0.0262694
-7.96796e-09
-5.60871e-05
-0.000130913
0.000238478
-8.19522e-08
-0.000276587
1.63252e-06
-0.0486229
-4.75838e-06
-0.00161892
-8.03249e-05
-0.0001532
-0.0014176
0.0421519
-0.000726433
2.67074e-07
0.004104
-0.0352234
0.49413
6.17403e-06
-0.0151646
-5.27793e-05
-0.0327212
1.07329e-07
-8.56921e-06
-0.0371689
-0.000499477
-0.0265304
-0.0395725
-0.000500668
-0.02549
-6.60533e-07
1.65704e-06
-0.039053
-0.00389121
-1.20103e-06
-0.00387197
-2.72967e-05
0.0010396
0.000151473
-0.000716143
3.54561e-06
-0.0224709
-0.000560876
-0.0188396
0.0116071
-1.84182e-05
-0.000213638
-0.0273384
-1.05492e-06
-3.14533e-06
-0.00140184
7.98444e-07
-0.00429058
0.097438
0.0377646
-0.107877
-0.000254068
6.29e-06
-0.0213801
1.07635e-06
-0.000205375
2.53611e-08
0.509809
1.6318e-06
-0.00384494
-0.0466694
-0.000704463
-4.20436e-08
1.22911e-05
0.249227
1.75312e-07
7.38934e-05
1.63791e-06
0.0228499
-0.0195708
0.00055786
0.0147865
1.19297e-07
0.00894921
0.000137493
-0.000151863
1.50323e-06
7.4046e-06
-6.542e-08
-0.000280287
-3.31346e-07
-0.000196398
-1.22505e-07
2.33453e-06
-0.0286078
2.20732e-06
-2.77568e-05
-8.1336e-06
1.8884e-08
-0.0508365
1.61425e-06
-5.39898e-05
-0.0260126
-0.000375057
-0.0445568
7.87668e-07
-0.0186139
-0.000481007
-0.00414031
2.18762e-06
0.000323793
7.53978e-06
-0.000154347
-0.000163827
-0.000291994
-0.00371403
-0.0228439
-0.00363942
0.0987048
8.26621e-06
-0.000296627
0.00136416
-0.320907
3.7592e-05
7.17366e-06
1.06354e-06
-0.000215088
-0.000138638
0.0796002
-0.000223977
-0.006681
-0.0294826
-0.00795103
-1.73714e-06
0.00211106
0.00160852
-2.67313e-06
-1.7493e-05
-3.641e-07
-0.0053858
1.13282e-06
0.0761699
2.04396e-06
-2.58721e-05
-0.0175055
0.00046905
4.93598e-07
1.08365e-06
-0.0284492
1.06016e-06
-9.37815e-07
-1.33416e-05
-2.44771e-05
-3.93807e-05
-1.1286e-06
0.000117924
0.000753095
-0.000857083
0.0104147
-0.0109733
-0.0497365
-0.0203945
4.43377e-07
2.86873e-07
-0.00109295
5.94123e-06
0.000704691
-0.0286174
-0.0500072
1.21075e-06
4.93704e-07
-0.0699279
0.0889745
1.22478e-06
4.31872e-07
-0.000206021
0.171058
-0.0799841
-2.25002e-05
-6.1367e-05
-1.01275e-07
0.0271475
0.000157079
-7.86795e-05
-6.77422e-05
-0.000706612
-4.03543e-07
-0.000141672
-0.00916389
5.68117e-07
3.86922e-06
-1.99978e-05
-0.0275192
9.32319e-06
-0.055137
-3.78571e-07
-0.0390236
-9.98873e-05
-0.00137821
1.11488e-07
1.72176e-07
-0.016459
-0.012812
-0.00359085
0.00464022
0.124238
-4.29875e-06
-0.0286302
-0.000568254
6.79371e-07
-0.0136396
-0.0409969
0.000663545
3.17956e-08
-0.0544828
-0.0174271
4.90248e-06
-0.000347279
-0.0170406
-0.000203757
-2.10492e-06
2.15105e-06
3.45501e-06
-2.15261e-06
-0.000704464
-0.0016033
0.00172514
-0.00084434
8.6881e-07
-2.96772e-06
-0.00257669
1.31204e-06
-0.00015139
0.000236017
9.05004e-06
-0.000344378
4.55397e-07
-1.58344e-06
-2.29018e-05
1.79963e-07
-0.0156584
7.57098e-07
1.51131
-0.0592998
-0.000837096
-1.99756e-06
9.71207e-10
-0.0218472
1.08205e-06
-1.32456e-07
-1.74782e-06
-0.0144846
-0.0857613
-0.000104378
-0.051607
0.0022511
0.0474943
-8.92566e-07
-0.000265299
4.19484e-06
-4.4278e-07
-0.0167081
-0.0461314
-0.140331
1.55704e-06
-0.000278046
-0.000150493
0.0180271
-0.0241746
-0.00590725
-0.000134971
1.03009e-06
-0.0222392
3.2502e-06
3.18554e-06
-0.000526761
0.000190087
0.000174566
-0.000745228
0.00135072
-6.12316e-05
-3.67998e-05
-0.0269437
-7.70536e-06
2.24845e-07
-0.0432869
-0.000758239
1.35727e-06
-0.0407891
-5.92846e-08
-4.71721e-07
-0.000844948
-0.00268094
0.222423
1.21572e-06
8.92798e-06
-5.02081e-07
-0.0552416
6.34378e-07
-0.00262362
-0.011077
-0.0583103
-0.0331641
0.100031
-2.36888e-05
-0.0178004
-0.0184055
-4.01353e-08
9.10435e-06
-0.00127624
-3.09055e-05
0.000997747
-0.0350778
-0.0124459
-0.0736221
-0.0100643
-2.78348e-06
0.000246664
-8.26906e-08
-0.00889241
-4.80731e-05
5.8767e-06
-7.59704e-06
2.9723e-06
-1.74671e-07
-0.00104862
-0.0133435
4.59255e-07
-3.23963e-06
4.90873e-08
-0.0304449
-2.46334e-06
-0.0382107
-0.0634456
-0.142234
-3.14813e-07
-2.21055e-07
-0.0519451
0.133474
-3.96873e-07
-0.00920187
8.09451e-09
-0.0013088
-0.000443281
-0.000285116
-0.00029634
0.00394607
8.59119e-07
4.36163e-06
0.00541601
-0.0480186
-5.04875e-05
-4.10049e-05
-1.04838e-06
0.0213277
1.12469e-06
-1.93389e-07
4.69932e-06
-1.101e-07
0.0643854
-0.0414429
-0.00963557
-0.000593839
-0.0218024
0.000757528
9.84415e-07
-7.10951e-05
1.13844e-06
0.00418126
4.78697e-06
-4.79865e-06
1.09236e-06
1.52057e-07
3.26574e-06
0.996512
9.15167e-06
0.0921828
2.96288e-06
-8.46321e-05
2.00938e-06
0.00487984
7.21674e-08
-7.78387e-05
-0.000131318
-8.25506e-05
0.0255302
1.35851e-07
-0.0418969
-1.71302e-05
-0.000340278
3.5699e-06
4.73836e-07
-0.0464654
-0.130982
4.82361e-06
2.85463e-06
-0.00640522
0.0181387
0.00126388
-0.0323392
-2.9062e-06
-0.0270344
-7.38999e-05
7.94863e-07
-0.0172105
1.20947e-05
-0.0838143
1.11693e-06
3.68516e-06
-4.63334e-07
-0.0449354
-0.0548126
1.07452e-06
-0.0188822
0.00755457
-7.93484e-08
2.74953e-06
-2.03173e-07
-0.0441262
-0.0264213
-4.12749e-05
5.45322e-06
-0.000150012
3.13409e-07
-4.39753e-07
-3.07309e-06
1.21385e-07
0.00125699
2.0831e-09
-0.000410005
-0.0244516
-0.000112803
7.28872e-07
-0.0123523
-0.000270269
1.52922e-07
-0.000891031
-6.65316e-05
-0.0170738
3.91433e-05
0.0960237
-0.000423563
-1.29323e-06
-0.0010268
-0.00124622
-8.665e-06
-0.0423333
-0.000432704
-5.07697e-05
-0.00606902
-8.5045e-07
-0.00293927
3.14097e-06
-0.00120958
3.49493e-07
-1.3232e-06
1.05582e-06
0.00328437
-0.000311624
-0.000329826
-0.0310338
-0.0192381
-0.0696292
3.0947e-08
-0.00962213
-0.0680291
-0.0180587
1.01151e-06
-1.44995e-06
-0.000167641
-0.0653345
-3.42514e-07
-0.000122082
-0.116184
-0.0427711
7.97697
-0.00176836
-0.000468799
-0.0642413
-0.0722264
1.64267e-06
-16.582
-0.00496766
3.79983e-06
5.02369e-06
-1.33228e-06
-0.0125561
-0.00147051
0.000747161
5.96167e-07
-0.15551
3.49341e-06
0.101938
-0.0315676
-3.01392e-06
-0.000106603
-0.0188443
-0.00106694
-0.000319798
2.77399e-06
-1.59854e-06
-1.67612e-06
0.0155889
-0.000734861
-0.409632
-0.0212338
1.51075e-06
-0.0133958
-0.00239101
0.208119
-6.99258e-08
-6.53581e-08
0.156841
-0.0359101
-1.21172e-06
-0.000270395
0.00201204
-9.67034e-05
-0.0432101
-0.0236537
-0.0230158
-0.0232586
-4.03934e-06
2.28418e-06
0.000570405
-0.0132028
0.0461433
3.91199e-06
0.00119488
-0.00961038
-0.0169821
1.126e-05
2.44314e-08
0.0422331
0.0193173
-0.160479
-0.0177189
0.00206127
5.14293e-07
-0.04844
-0.0241306
-1.80422e-06
-0.000773041
0.000349061
1.14368e-06
-0.00035015
0.000409848
-0.0406397
3.72698e-08
0.0158232
0.000864655
0.337061
8.57949e-07
3.43859e-06
9.473e-07
1.19767e-05
7.27674e-07
-0.000339088
-8.96226e-05
-0.00281441
0.00117649
-0.000105479
-0.0374403
-1.66583e-05
-3.17563e-05
-2.48391e-05
-0.0535141
0.000811541
-0.0277902
-1.84166e-05
7.19637e-05
-0.121475
0.00221512
4.58279e-07
-0.00482845