/*--------------------------------*- C++ -*----------------------------------*\
| =========                 |                                                 |
| \\      /  F ield         | OpenFOAM: The Open Source CFD Toolbox           |
|  \\    /   O peration     | Version:  v2012                                 |
|   \\  /    A nd           | Website:  www.openfoam.com                      |
|    \\/     M anipulation  |                                                 |
\*---------------------------------------------------------------------------*/
FoamFile
{
    version     2.0;
    format      ascii;
    class       volScalarField;
    location    "750";
    object      omega_0;
}
// * * * * * * * * * * * * * * * * * * * * * * * * * * * * * * * * * * * * * //

dimensions      [0 0 -1 0 0 0 0];


internalField   nonuniform List<scalar> 
13917
(
0.0409594
0.0222354
4.6429
0.0239258
0.0221093
0.43284
4.27825
4.82469
5.22792
0.0672852
0.176455
0.0707379
0.024013
14.2531
0.0263685
0.0252028
0.022358
0.0563093
0.069521
0.0221143
0.022267
4.18867
0.0220954
4.87422
0.0220181
4.06517
0.0412769
0.0537515
0.762591
0.10557
0.0438638
0.0284331
0.0359415
0.0256038
0.0220331
2.09777
0.0221038
3.80266
0.0260807
6.46091
0.021912
0.0222859
0.0215869
0.0821134
0.0221384
0.027304
0.0554744
0.0745416
2.80805
0.0220204
0.0276084
0.0223473
3.22591
0.0259807
0.0223716
0.0274768
0.173
0.022044
0.0253761
0.0220884
9.62812
0.0222396
24.1904
0.022103
0.402925
17.5538
0.0221038
0.0220453
0.197738
0.0371636
0.022117
5.38621
4.24085
0.0220242
2.89332
0.0825324
5.75542
0.0228906
3.87559
0.0222371
0.0222051
0.0221112
0.369224
3.73885
4.51711
0.0227829
0.0221807
16.3114
0.0272951
0.0215779
4.0012
0.0904949
0.021908
0.0230615
16.4527
0.372914
0.130647
0.0686607
0.143792
0.108431
0.0218232
0.0324093
0.0823623
0.0233596
0.0218086
5.59473
0.458401
0.079011
0.0223663
0.0467989
4.10579
5.64398
0.0907771
5.44059
0.0229658
3.2613
0.0220159
1.49041
5.0932
0.0259784
0.022274
0.187959
4.57193
0.0506918
0.0219828
0.0228823
0.0220963
0.0219904
0.0216085
0.414449
3.59427
0.0228724
0.0221645
0.0222745
6.19008
4.85942
0.0415497
0.115338
0.0220968
0.025863
0.851473
0.0217874
0.0225887
0.102456
0.0220453
5.73549
0.800733
0.0222939
0.0217572
0.0291022
0.059712
3.25107
0.0937486
0.0420567
0.0275772
6.33654
0.035572
4.30453
8.08982
6.05208
0.0242656
0.0416071
0.022237
0.124955
0.0889946
0.14085
0.0233239
0.0636566
0.0219489
0.0333476
0.0424281
6.61527
0.0986033
0.0226916
5.51292
0.046137
3.5766
1.94359
5.71469
0.0219407
0.0952267
0.0455482
0.0217812
0.0221717
0.0301865
4.20344
0.379041
8.03394
0.0383765
0.132558
1.24332
4.95279
0.336716
0.0221057
0.121615
0.040061
0.0225164
0.0219176
0.236843
8.2202
0.0269319
0.0220356
0.0589756
0.0590646
4.71826
3.7379
0.0220354
0.0220583
0.0670841
4.4281
0.0224894
4.28103
6.74806
0.133032
0.0218159
0.582782
0.0585066
6.09415
0.0219739
10.3553
0.0219339
0.0949305
0.0219006
3.81122
5.59727
0.0255534
2.15591
0.0279484
0.0218193
1.65682
0.0967536
0.0379223
4.80464
9.17653
0.0217781
0.0289791
3.90721
4.44004
0.0222292
0.0219541
5.08999
0.148397
0.0222668
0.419336
0.102951
0.0408126
0.0381645
0.022229
0.0458371
7.42302
0.0219962
0.12181
0.142285
0.0220703
0.0220325
0.0739202
3.92394
0.0881676
0.0305209
0.0265495
0.0222712
5.75237
6.69228
0.746575
0.0218266
4.49908
7.4197
4.54708
3.80682
0.0882909
0.0222156
0.0219388
0.0558358
4.08903
0.130369
0.0250641
5.06804
0.0459749
0.0216006
8.24142
0.0220909
5.49547
0.026388
0.022262
0.0276627
0.0417347
0.0419302
0.480895
0.03283
0.0221101
0.604136
4.84204
6.55597
0.021975
4.83406
0.0221728
0.0221042
0.0220233
1.15321
0.0221059
0.104158
0.0371076
0.0219267
0.0592103
0.0232773
2.35924
0.0449456
0.0831068
0.0218309
0.0220232
4.21625
5.08277
0.0220104
0.0219197
8.36921
0.0219252
4.06122
0.0218226
3.79119
0.0225399
0.511162
0.0351082
3.00916
0.0239647
5.15615
0.316158
0.0276713
0.147782
0.537429
0.0222983
3.70246
0.119118
6.05824
0.0248696
6.73174
0.0297973
4.32893
0.248792
0.113913
0.110743
4.51906
0.0222173
0.0441568
4.03448
0.0221809
0.0235923
6.84572
0.288929
0.0226212
0.407207
0.700291
0.0218644
6.17994
1.21926
0.0220845
0.0219016
0.0221802
0.0217519
0.562757
5.65288
0.688956
4.06497
0.0220223
0.137157
6.62734
0.0453888
4.19181
3.88068
5.45143
0.0217725
0.603502
0.0218815
10.5735
0.0220854
3.74989
0.102885
0.0251572
0.0221991
0.0635888
0.104241
0.0774121
7.92365
4.16672
9.44242
0.0478647
0.0628246
0.0219618
4.56046
4.07083
0.02207
2.38748
0.0220472
0.301032
0.0225362
0.0222273
0.0233067
3.67057
0.0232656
3.59524
5.7202
0.151766
0.462035
0.0222864
0.489589
0.419654
0.0220424
0.32116
0.0221655
0.0220337
0.105752
0.0222616
0.0220226
0.0218777
0.320658
0.0222482
5.60551
3.96739
5.33177
0.335116
3.48329
6.09015
0.0446924
0.0220282
0.187943
0.0258216
0.0304008
0.0220985
5.67588
4.29122
4.01582
0.0251565
0.117604
0.0245681
0.0266255
0.077024
0.0230448
0.684815
0.0223553
0.022097
3.94121
3.57625
3.56927
0.133812
6.47196
3.64033
4.00101
5.93954
0.0216389
0.0611393
0.0231091
0.0220893
2.50671
0.0565797
0.0218855
0.0651706
0.0422887
5.96178
0.0220384
0.127729
13.2766
0.807855
4.49465
0.0222556
0.0220764
0.0224807
0.0357744
0.0217751
4.24337
0.542886
0.0326685
5.10274
0.0273827
0.12725
4.0663
0.816861
0.147144
1.01581
0.127287
0.0633204
0.177971
0.0457097
0.175307
0.599323
0.0517177
0.0884636
0.021881
4.61928
0.0284586
0.0216815
0.034258
0.0230174
5.4415
5.48485
0.0219172
0.0216181
4.44519
8.6533
0.0222618
5.79571
0.0230322
0.242255
0.0219325
5.00521
4.43574
0.0290338
0.0224009
3.44407
0.284031
6.89219
0.0222694
6.57031
2.41556
8.56881
0.0216919
4.35493
5.6643
0.0454968
0.0218948
0.0223403
0.0827951
0.575349
0.0218182
0.0219071
0.0219615
0.021956
5.11146
2.40751
0.0448547
0.368339
0.0219735
0.0218302
0.115098
4.66759
0.0347137
0.0219645
0.0220296
0.0220656
8.39685
5.39913
0.0221748
0.0220659
0.430161
0.0454129
0.035062
0.0220667
0.0233853
0.0273867
0.0863155
0.427074
0.378431
0.194661
0.105827
4.51209
0.080581
0.021985
6.17281
0.0220689
0.0238945
0.0246873
4.49146
0.0776273
0.0218355
0.810187
0.119947
11.7984
0.106963
0.0360279
0.0445973
0.0221902
6.26048
0.547553
4.06865
0.0222623
0.0304771
0.368991
3.84969
24.1728
0.0720422
0.155138
0.0251321
0.0244032
0.0220687
0.0549769
0.0879944
0.0221627
0.0579942
0.136148
4.14807
6.18536
0.0242494
0.123256
3.45254
0.0288403
0.0223994
3.49089
6.12588
5.5263
0.33213
0.0216236
5.41291
0.0813756
0.0218726
0.0325402
0.0805894
0.0345694
0.103691
3.88933
0.173832
0.0403534
6.21719
0.0233481
7.61555
0.0222379
0.0221681
4.85599
6.0431
0.623185
0.0233424
0.0226347
0.0220694
0.046613
3.33039
0.133002
0.0246365
0.137194
0.0624434
0.0219375
2.26187
0.129397
0.785102
0.0219571
0.168666
0.0229878
9.30142
0.0686075
0.0771024
0.0308561
0.0218849
0.0216971
0.0221365
0.122696
0.0276691
0.359509
6.98028
0.0628862
0.0218735
0.169915
0.676961
2.86029
0.0219692
0.0271512
0.0219149
0.0301273
0.0255605
5.49086
0.0222291
5.10269
0.0298073
0.173746
0.0916255
4.25896
0.080447
0.0222885
4.32222
17.9463
0.0220562
0.0245921
4.39024
0.257118
0.130183
0.0222376
0.0224352
0.373437
0.0253218
0.0766481
0.0702704
0.0216992
0.0590033
4.68659
0.0219511
0.0232253
0.0219811
5.3729
0.0222659
0.0247931
5.96881
0.0234305
6.08388
0.0276494
0.0366289
0.0219738
0.0514373
0.0220314
0.0615572
0.0218901
0.0879645
0.023033
26.3069
2.99539
4.68087
0.0223533
0.0222066
0.0764504
0.050095
4.96511
5.00551
0.0557085
0.0220365
0.330381
0.651652
0.706279
0.356423
0.0536862
3.86417
0.0403327
0.0436255
0.161921
0.186548
0.054891
1.11198
0.0541832
0.0238689
0.0861007
0.0277927
0.0217673
0.0298688
0.046729
0.0283928
0.0220385
0.0219328
0.062824
0.0235975
0.0776147
0.0220389
0.0220609
0.0222735
0.0232668
0.0215427
0.026198
0.022001
5.19474
0.0695627
0.358005
0.0217985
0.0222474
0.0484619
0.0644916
0.0226885
7.85371
0.0828984
10.9621
0.0299285
0.134762
0.0225494
0.022269
0.0219389
0.0232894
7.66398
0.0222552
5.73571
0.0265143
5.93921
0.0505381
0.0843909
0.169589
0.0216857
0.022291
0.0707329
0.0220472
0.0224287
7.75249
0.0227831
0.0221807
0.0285991
0.0219474
0.0216773
0.028466
0.0284737
6.485
0.0359427
0.0219499
0.0218853
3.82822
0.120805
0.0222279
0.0222677
7.88918
4.19924
8.54786
0.0360641
0.0238789
0.0217894
0.0216584
0.0525854
0.037073
0.227207
0.0251811
3.82042
0.0223674
0.0237006
9.23469
0.0220535
0.0286526
0.0220062
0.0220812
0.0451725
0.0428007
0.0225934
6.00806
4.47509
0.0931672
0.0219812
0.0216007
0.129407
5.53338
0.0222612
3.088
0.0216003
0.0441341
0.0217679
0.0218129
0.782745
0.0220405
3.45804
0.0414398
0.0222733
0.0216198
0.022068
0.0219209
0.0231224
4.1341
0.0219064
0.0217906
4.79979
5.6649
0.0417012
0.0485672
0.0724636
0.0256078
0.0218021
0.0280589
5.03955
0.093202
0.022132
0.022337
5.11939
0.0381313
4.08168
0.0222665
0.0228005
6.28193
0.0353238
0.0226831
7.76442
1.71991
0.0219171
0.14472
0.0219364
0.0220115
0.0217858
4.19642
0.0215353
0.0219821
0.0217963
3.58106
0.0252549
0.240046
0.0620728
0.0218044
0.032836
0.0221747
4.06006
0.0219699
0.0219279
0.0221818
0.134506
0.0221739
0.173514
5.77693
4.75873
0.0266284
1.16182
5.1922
0.0220198
6.7509
8.88937
4.66043
3.49285
4.69994
36.9055
0.157582
0.0223694
3.8203
0.035225
3.98674
0.0216846
0.0219046
0.0222277
0.0221679
0.0265547
0.0312065
4.60081
0.0218929
0.0220736
6.37745
0.304305
0.0220669
0.0382911
0.0305351
0.0222891
2.78031
0.0387143
0.0238069
0.0251759
5.85583
7.7001
1.29795
0.0217479
0.286977
0.119666
4.43104
5.46011
0.096737
0.0219295
0.0226182
0.0223699
0.0214943
0.0233684
0.0216313
0.0275083
0.0392234
5.30108
0.146448
0.021998
0.131502
4.01128
0.0428471
0.0223121
6.72413
0.0219075
0.0223437
0.0377123
6.22728
0.0221739
0.0219585
4.27419
0.329242
2.88649
0.116783
1.87695
0.0219341
0.194229
0.0223443
0.0220037
0.0223379
4.19298
6.24791
0.0217837
0.0216164
0.0220283
4.64239
0.0231277
0.0307048
0.0220474
0.0224911
0.185572
0.0218232
0.0629899
0.362296
3.5692
0.0220344
0.0857953
0.0244322
4.45661
3.9967
0.0220244
4.28839
0.077802
1.4371
0.0221726
3.62142
0.0222453
0.0272484
0.0438551
0.116993
4.41949
1.13006
0.207352
6.16102
0.0218667
0.295592
0.0218021
0.0277856
4.26084
0.0221006
0.0222529
0.0229208
0.0222542
4.9097
0.0216798
0.0220865
0.0599114
0.0489185
0.0538614
0.592617
0.142013
7.47939
0.0709057
0.0372261
0.0425794
4.70663
0.0429361
13.755
3.98971
0.0260308
0.0218279
3.39413
0.776509
0.0222977
0.120452
0.0352045
0.0224391
0.0270096
0.022304
0.0437857
0.0222921
0.0525546
0.108709
0.0218891
0.0643348
0.0218357
0.0608417
0.0218861
0.0261213
0.0624397
0.0237606
0.0221755
0.0217947
2.09041
0.0844456
6.01911
0.0220203
0.0221834
0.0639693
0.0220065
0.0980774
0.0848686
0.0224412
0.103581
0.0218181
9.5704
0.0222631
0.0398371
5.77032
0.283915
0.0219411
0.0237441
6.96143
0.0220065
0.0219264
4.25719
4.00967
0.0242208
0.191878
0.022105
0.0221693
4.24828
0.0231536
0.0216964
0.374932
0.0218429
3.98542
0.0221987
0.0216989
0.0222238
0.14426
3.72925
0.0221279
0.0222936
0.0219348
0.0260747
0.0220781
1.00352
0.0622994
0.0222689
5.62428
0.0505232
0.28647
3.64467
3.61434
0.0217702
0.0222568
0.0220629
0.776877
0.026524
3.75773
5.58343
0.0239592
4.16928
2.3144
0.0531318
0.160972
0.0715245
0.378112
4.47414
0.0644349
1.21639
3.74411
0.0693012
0.0253554
4.50302
0.0542056
0.0216976
0.0235359
12.8527
0.0388069
0.0219109
0.0535424
0.108048
0.0394895
4.46042
0.0238965
6.25599
0.042584
0.612278
0.137251
0.307346
0.0297755
0.0218074
0.0226549
4.70468
0.022002
0.0241517
0.0218077
0.0233993
0.0218996
0.0355639
0.17054
1.89345
0.0452405
0.0571087
4.03835
0.369684
0.0218938
4.26932
4.14637
0.0217404
0.0219177
0.03183
6.53377
0.0222545
0.0744746
0.637522
0.0491024
0.0220639
0.0233849
0.0218615
0.120799
0.0401618
0.0219923
30.8898
3.86832
0.0436498
4.17138
0.0702503
7.05011
0.0233678
0.0259416
4.34507
4.25712
0.097515
1.76069
0.0288558
0.0222765
0.0220035
0.0222319
0.0220332
0.022634
0.0538149
0.0219494
0.136098
0.021946
0.0291965
0.0217796
0.0839769
0.134173
0.907213
0.0220064
0.304378
0.0220016
4.481
0.0220422
0.0255714
0.0221261
0.241193
4.60445
0.152866
0.0219436
0.146762
0.0220495
0.0304435
4.02047
0.0219798
0.0223575
0.0471074
0.032496
4.17955
0.0219507
0.0300186
0.0233875
0.0220467
0.0322721
0.0225345
0.0217529
0.0236997
6.48707
0.024715
0.568684
5.58116
0.0548721
3.61863
0.0244431
0.0217591
0.031247
8.42794
0.0236313
0.0370505
0.0451643
6.00352
0.021907
5.82749
0.0660385
0.0754105
0.0217314
0.0216349
0.196786
0.0224276
0.022286
0.0337325
0.0216938
0.0244168
0.0292109
0.0757836
0.266081
4.2202
0.025811
0.0801572
3.33819
7.53359
0.040142
0.268925
6.40001
0.0416354
12.5197
0.0236571
21.2079
5.56923
0.0216799
0.022262
0.0219604
0.0227487
0.0465777
0.0217829
0.0238905
0.0967737
0.0234891
0.0357159
4.18154
0.0302336
0.0245121
5.22471
0.0226876
5.74087
0.0247863
0.0548836
0.0218966
6.84451
5.87118
0.0220487
0.0228858
3.76608
0.0295509
6.59865
0.0220241
0.0218413
4.15465
0.0228584
0.044631
9.06498
0.0220682
0.0578688
0.0298371
0.021631
0.0219069
3.80665
5.4254
0.0222643
0.0237677
0.0220648
0.0269298
0.0356519
6.29076
0.0226969
2.55315
4.7522
0.628382
5.15923
0.0227955
0.131769
0.198217
0.029107
0.0220657
0.0647286
4.00295
0.0234112
0.046736
4.91591
3.65212
0.298973
0.0252004
0.0222895
0.0222463
0.0220689
7.29476
0.0588794
0.0241572
0.0230155
0.0247008
0.0222702
0.0219902
0.0220459
0.0786695
0.0408475
5.56716
0.0471494
4.9411
3.49765
0.0307345
0.0542426
0.021816
0.0288692
8.33457
0.0221742
0.0237103
0.0551057
0.130412
0.0564404
3.88168
0.447958
0.0219109
3.93114
0.0215975
0.0223385
0.0464997
0.0222736
0.021991
0.19798
6.62025
0.0218484
4.23673
0.0221579
0.0217595
0.023627
2.66719
0.0297639
0.0247552
12.0074
0.0230566
0.25087
3.45108
0.0222462
0.0482985
0.0220126
5.84874
0.075896
0.0220458
4.0592
0.0575624
0.0794121
0.0222787
6.39916
0.0292983
0.3886
0.0231488
0.0730258
6.8912
0.0217814
1.46402
0.0221189
0.0655172
0.0523668
0.0222453
4.37834
0.0237016
0.127588
0.0608726
0.0965092
0.0410257
0.0446593
0.0226186
4.88956
0.0320953
7.04481
0.0301458
0.0693269
0.0220083
0.0453686
0.0220526
0.0750064
4.6055
0.0228374
0.0218439
3.40652
0.0229864
3.435
0.0225791
4.31165
0.751631
0.0360537
0.0219981
0.0219472
0.0221111
0.0216307
0.111917
0.0572062
0.0392364
0.0261652
0.0220844
4.50909
0.0238693
0.034772
3.12932
0.0220398
12.6015
0.0548677
0.0312727
1.25495
4.29473
0.673199
4.48307
9.79807
0.0219014
0.383605
4.7879
0.358511
0.022174
0.0222213
0.12578
3.99119
5.63389
0.699002
0.0224279
0.0510597
0.0423574
3.45619
5.01125
0.0450777
0.142506
0.0240781
0.0844677
0.0972303
0.0221659
0.112495
7.75261
0.022132
4.48755
0.0222534
0.022011
4.81855
3.87896
0.0218545
0.0225166
0.0225685
0.0218465
0.0497756
0.208874
0.0233455
0.0219941
0.0221002
0.0432322
0.028409
0.0280916
0.613328
0.0220328
3.90534
7.40179
4.03913
0.156556
0.0548819
2.44625
0.0350156
3.78924
3.35064
10.6812
0.0224825
5.85036
3.54764
0.0217733
0.0220419
0.109691
4.13563
9.41875
0.0218087
0.022052
3.56687
6.00541
9.06078
0.0242191
0.0239489
1.85678
0.0222168
3.64215
6.92993
2.41802
3.6124
0.0220704
0.0219346
0.0218908
0.0261918
4.13593
0.0429568
0.0261256
0.0226343
0.0893692
6.94802
0.0431836
6.04559
5.25528
5.26274
2.15624
0.022056
0.0221729
4.34352
0.021667
0.0216953
0.0231393
2.8382
0.0393791
8.85661
0.143449
0.0220334
4.83792
0.0408668
0.0219026
5.93039
0.171714
0.0250548
0.0221866
4.99957
4.08399
0.0221809
7.14007
4.76067
5.66846
3.29118
0.0865405
0.0219435
0.0226781
2.02203
0.0260419
4.50756
0.0432783
4.76575
0.418242
0.0229115
0.0292704
0.021945
0.0227269
4.30681
6.97245
0.0220696
4.74895
0.0458469
0.022059
0.0249123
0.0219427
0.180482
0.022542
2.31486
0.0522593
0.0219354
0.0218776
0.0926935
8.41437
0.0411567
0.0241857
0.0444551
0.0220471
0.0233189
0.0282293
8.57338
4.15071
4.10631
0.0217259
0.021871
0.0224102
0.133175
0.021884
0.0224631
0.20059
0.0631293
2.38925
0.0216662
4.05941
4.12908
0.0222843
8.60541
0.127461
0.0396572
2.04047
0.0223546
4.8758
0.0297307
0.02311
0.0239374
0.0216629
0.347198
0.0224996
0.0229818
0.0307889
3.62561
3.64446
0.0222464
0.022024
0.0237261
0.0220366
0.146893
0.022442
0.0896386
0.0238312
4.08298
0.0228468
4.07761
0.0217282
4.90891
0.0225009
0.0216466
6.32946
0.324285
0.118144
2.17784
0.0444154
0.0432245
0.0220477
5.03866
0.0220656
0.0218904
0.0873361
0.0693165
9.43428
4.24553
0.134764
6.67672
0.139865
1.99396
0.0218943
0.0253801
0.0288796
3.92404
0.0248509
3.99545
4.44313
0.0222937
0.0220696
0.0220335
1.72691
3.34172
0.0236207
0.0221123
0.0259827
0.0287301
0.0401992
0.37507
0.335054
0.022066
0.633432
0.0896559
8.66554
0.0774405
0.0234231
0.0241581
4.6944
0.0218877
0.0951391
4.51536
0.0227859
0.0257516
0.208878
0.134593
0.0228
6.57993
0.0247168
0.272153
0.0435781
0.0305836
0.0229245
4.05214
0.021866
0.099981
1.45265
4.40572
0.0524078
0.0700872
0.0262834
0.0484594
0.0222659
4.57503
0.0274854
0.0220428
0.0309402
0.0220937
0.0222693
2.94203
0.0220726
0.0221794
0.0220662
0.144626
0.022252
0.0338407
0.0786532
0.253528
0.126398
0.0222537
0.248775
0.487182
0.245727
0.0894232
0.0272442
0.174663
4.78656
0.714774
0.0222845
7.60874
4.19272
0.0222839
0.0244306
0.0216517
0.753832
0.112346
0.0221231
1.29049
3.95759
0.0218162
0.0222198
3.80829
4.13316
0.0708136
0.0216673
11.1412
3.37407
3.24754
0.0220345
3.92697
0.0892488
0.0720606
4.11747
0.0267778
0.0216641
0.0310752
0.206313
0.0334718
3.97208
4.10245
0.0218384
6.31201
0.537937
4.36429
0.0217263
0.0515899
0.0222927
0.0219415
3.94694
4.75175
0.277309
4.6182
0.0296122
0.0534638
0.0222398
4.24496
5.89646
0.0220504
0.02233
0.0318141
0.0218524
0.0545184
4.28088
7.11412
0.0541668
0.0225847
0.0222463
3.9413
0.0251249
0.0563865
0.0218166
0.0230824
0.797559
5.0437
1.16907
2.92521
0.0221714
0.308026
0.0223442
0.0484275
9.22852
6.6267
0.0220774
0.0222939
0.03802
0.0257762
0.0221969
4.16205
3.93126
0.0218077
0.0215158
0.0221914
0.0219738
2.68557
0.021761
3.91411
0.1123
0.0691578
0.0218868
0.0491542
4.19886
0.0353465
0.467609
5.4817
0.022278
7.26031
0.0331852
0.0354898
0.374587
7.15236
4.43657
0.065125
0.021911
0.267309
0.0217723
0.0252776
0.0222181
3.93432
0.0320023
4.31023
0.774315
0.051565
0.0221261
0.322746
0.0277051
0.0222704
0.267997
0.0216031
0.0409939
0.0357085
0.0221827
9.32234
0.0235134
0.576528
0.0228804
0.0219448
5.14778
3.62992
0.0241615
0.0325138
0.0420464
0.0600934
0.063306
0.0270509
0.0261491
0.0257307
0.254839
0.0251324
4.0493
0.0611034
0.753489
0.127152
0.0228216
4.30335
0.0216138
4.43819
0.0242211
4.03603
8.19451
9.7694
7.81448
0.32315
0.0788827
0.022087
4.11182
0.0875043
0.0220464
7.75203
5.5454
0.0233267
0.0241368
0.0316778
0.0316953
0.034052
5.22332
0.0222841
0.0313846
0.0373731
0.0326425
0.0221653
0.0926598
0.0216211
4.13859
0.0237403
0.144578
0.0330273
0.0419997
0.130552
5.01406
0.0920979
0.0218522
0.2559
4.14391
21.3462
0.0225284
4.21493
0.0299407
1.79917
0.0220656
0.0246885
3.73716
0.0561154
4.86402
7.26838
0.0334976
4.47086
0.022001
0.0216107
8.82444
0.0591885
0.0246121
4.98287
0.0274928
0.0464391
0.02966
0.0748742
0.0222338
5.71335
5.20579
6.99331
0.267694
0.026002
0.0593304
4.83514
0.0241941
0.022334
0.0864584
0.0216992
0.301625
7.29898
6.2692
5.48734
0.0599572
0.0226058
3.95331
0.0216027
0.0803731
0.0222358
22.9459
0.0239891
0.0485161
3.71095
0.129813
0.0220301
0.0325142
8.39227
0.0220772
0.161504
0.021813
9.22485
3.99943
0.126093
0.083912
0.0219568
0.246721
0.15085
0.0416814
0.0218179
0.0226566
0.0221473
0.0589939
0.0221253
0.0936902
0.0221242
0.0218268
5.64938
0.0218978
0.0273971
0.0257039
0.0222749
3.60002
0.0218896
0.0345212
3.85066
0.0525657
3.97639
0.0220674
4.11153
0.0554705
4.75367
0.0237439
0.139501
0.0222853
0.0436522
0.135303
0.123117
0.304538
3.92904
0.244398
2.05593
0.0270285
0.12234
0.0424775
2.08011
0.0251581
0.0222226
0.0220384
0.0558857
0.0472952
4.70772
0.0574281
4.64371
6.67919
0.101652
0.0220282
5.48145
0.205056
0.0224873
0.0241392
0.0220828
4.96633
0.0220401
8.04048
0.0218832
0.0279469
4.78072
0.0809105
0.0220505
0.0220328
7.95159
0.0218988
0.0242018
0.0257589
0.0331434
0.0283488
0.0222068
0.178435
0.0814408
0.0443439
0.378438
4.17256
3.60397
6.15637
0.0217429
0.0219982
0.104843
0.0226155
0.0478547
4.15802
3.76039
0.0216632
0.0220482
3.44492
1.56899
0.0216804
0.0218555
0.0266841
12.3614
4.00779
0.0271145
0.0349031
0.0222008
0.365274
0.138111
0.142651
0.0317773
0.0448567
0.0224188
0.0398438
0.316256
0.022789
0.0222297
0.0268633
4.45135
0.0253513
7.09036
0.0221099
3.72308
0.0372037
0.0279169
0.0217848
0.0219343
0.86823
7.62922
0.0579889
4.35435
9.08131
0.0225657
3.87022
0.158417
0.0219081
4.97253
0.835254
0.126518
0.022254
3.51644
4.30281
0.0220211
0.0402823
4.28419
0.0463569
0.022072
0.0218176
0.0225034
0.0242991
0.0871735
0.309243
0.0773378
0.0824087
0.0217294
0.0222217
4.65659
0.0218675
0.0500912
0.0266037
0.0222531
0.0535032
0.0220332
0.0238486
0.324286
0.0220051
4.31115
0.0220293
16.2199
3.62049
0.101795
0.0222878
0.0222928
3.94634
0.0216507
0.0244718
0.0223462
0.361865
2.53701
0.0353356
3.61351
0.0425971
3.41476
0.0225416
0.0750505
0.021837
0.0221418
4.92367
3.67585
1.93156
0.0240131
0.074857
0.0749801
4.56055
3.88789
0.318865
0.0408673
0.0215971
3.97882
0.0219566
0.022021
0.297492
0.124589
0.028485
0.203865
0.0479733
0.0321096
0.0283654
4.63531
0.024757
0.0219995
6.58436
0.0473707
0.0217286
3.54792
0.0220361
0.0221147
0.179221
0.161055
11.606
0.0217459
0.0249035
0.0219278
2.22175
0.0218902
0.537645
4.78657
3.56848
3.55642
33.245
0.0302718
4.35103
0.863815
0.0222107
0.0309243
0.0442908
0.0305316
1.22631
4.07555
4.13316
3.5533
2.43083
0.0221756
0.115968
0.0220431
4.71992
0.0296285
0.0234487
0.0244354
0.0228491
0.0219008
0.116441
4.12304
0.0217292
0.0239081
0.0218694
4.54824
0.0237481
4.87168
3.89199
1.87113
0.0220975
0.0219076
4.50636
0.369977
0.0221411
0.318318
0.0222289
0.15055
0.191242
0.103484
0.0554972
10.7184
0.0218158
0.0218405
0.198914
3.42925
0.0302139
0.048299
0.021951
8.44094
0.0220216
0.0219576
0.0233542
0.0220068
4.99953
4.00314
3.2234
0.0652269
3.94774
1.51109
0.0216673
0.032656
0.0217089
1.26877
0.0220649
0.0250084
0.0220079
0.0219293
0.0218135
3.00306
0.0230589
1.6964
0.021619
0.0326112
0.022992
1.55475
0.0220531
0.0330775
0.0374545
0.0725804
5.97672
0.0219257
4.19854
0.0724806
0.0465556
0.0219872
0.0219594
3.56777
15.5923
0.0220845
0.0219262
0.248413
0.21861
0.0385267
3.80763
0.0228195
1.28816
0.0328998
0.0217154
5.46356
0.0233166
3.8813
0.0220359
0.0228307
0.0221233
4.2684
3.55956
0.021684
0.252168
0.226954
0.0220621
0.0219046
0.0219105
0.266463
3.84842
0.0679584
0.0247974
0.0413433
0.0220375
0.0220612
0.0239748
0.0220102
0.22443
0.0220715
0.0688247
0.697778
0.037427
0.021623
4.0251
0.0807687
0.0220462
0.0851848
0.0319932
2.8591
0.02453
9.52414
0.0602616
0.0220185
0.0933656
0.0922979
0.0250925
5.20994
0.064798
0.031444
3.70417
0.0219628
0.160037
0.0895586
0.134332
0.0219488
0.0219908
0.021647
0.0333697
0.0602048
0.0588956
6.3389
4.44819
3.91555
0.022267
1.89135
3.68371
3.99505
0.0220092
0.0220543
0.0579147
4.08119
0.0243154
0.0375469
32.5421
5.09198
17.3294
0.113545
0.186226
3.43597
0.695993
0.0216213
12.26
0.295921
0.0224212
0.0224757
0.0229224
4.27613
0.104071
5.22307
0.0242442
9.88737
0.0221983
3.55783
3.847
0.0222377
0.0361399
4.07818
4.72548
0.0585781
0.0230382
0.0238443
0.022394
0.238466
0.133749
4.32914
3.92423
0.0217674
5.17763
0.179538
2.34073
0.0220317
0.0221657
3.0209
0.263698
0.0219744
0.0527803
0.0733927
0.0392554
4.10843
4.44453
4.22373
3.90987
0.0257016
0.0216806
0.0661021
4.54988
9.86948
0.0220041
0.282458
0.0905445
0.446238
0.0226649
0.0222567
1.21559
5.2663
8.3423
1.6628
4.35732
0.0219678
0.267324
3.90659
0.0222478
0.0623756
0.117413
0.0216944
0.183785
4.62864
0.239915
0.0222557
5.38539
0.130758
26.4873
0.0215131
0.0240338
0.0222142
0.0234679
0.0221758
0.0562921
0.041096
0.0432604
0.324343
0.0357448
4.17022
0.0254063
0.0304065
0.0286776
8.95283
0.0577922
4.80124
0.0286524
0.0279528
18.5824
0.096767
0.0220766
0.0432893
5.34282
5.21035
0.320357
0.0219976
0.0219283
0.021963
3.23494
0.0232821
2.47774
1.32479
0.267154
0.0327912
0.295126
5.41777
0.0221761
7.03452
0.0341309
0.0512746
0.0219771
0.0219708
0.0567773
4.0179
0.0220814
4.76369
0.550364
0.0987459
0.206491
0.0219005
0.022029
0.0311944
0.0231812
24.4569
24.0793
0.0864216
0.871324
0.0219852
0.0221506
0.0222516
0.0222458
6.70579
0.0234924
4.32731
0.0875748
0.0226992
0.374709
3.9088
3.49287
8.37405
0.0238732
0.0218191
0.0221323
0.0238944
0.734521
0.246884
5.19329
0.0221564
0.022584
0.164412
0.0222602
0.327159
0.0237361
0.154025
0.175666
0.042158
0.0406518
0.0217427
0.0501157
0.0389791
0.216696
0.0810978
0.043093
0.0218752
0.257032
0.0219054
3.74561
3.64015
0.931924
0.022086
0.110434
0.0220362
0.0527086
0.0231742
0.0229259
0.0283089
8.71796
4.00693
0.079412
0.04854
0.239854
0.0814913
3.9886
3.96873
0.0314211
3.98537
0.376191
0.0218784
0.0564674
3.99957
0.0967952
0.0222366
0.05699
2.25049
1.27521
8.9434
0.0222327
2.5231
0.0220985
0.0219447
0.0458245
1.26031
0.022264
4.32923
4.67382
0.405312
10.5239
0.380066
4.30359
0.377022
0.0217389
0.0251831
0.0216698
0.0439495
0.313495
0.994929
0.024507
0.042693
0.021658
4.0372
0.0413475
0.0501758
3.99989
0.0997122
6.38284
4.25676
0.0219861
6.57195
0.0221178
0.028477
0.048049
3.79763
0.175765
0.0279162
0.0235564
0.583983
0.0355861
4.21841
5.74674
0.0323894
3.37884
0.0492461
0.022273
1.16402
0.0657587
0.0230353
8.79265
14.3764
0.0311996
0.0261089
0.142994
5.91358
0.0219695
0.0223004
0.021679
0.0217725
0.022336
4.67126
0.0319759
3.83949
0.0219601
0.0220021
0.872251
0.0222924
0.0238395
0.0220625
0.0220395
3.91357
0.0217867
4.62441
0.022081
0.0233442
0.0424032
0.0221777
0.145361
0.0218002
0.0222652
0.0218148
0.0285056
0.0902785
0.0250567
3.63195
0.0219581
0.0443964
0.0309821
3.96271
0.0227653
0.022269
0.0217443
0.0217031
0.370512
0.0219222
0.0219414
0.0250739
3.17611
0.0219394
0.0433751
0.0330852
0.0220352
4.87431
6.19176
0.725094
4.94093
0.0254627
0.121902
0.0221592
0.0997675
0.317226
0.022451
3.60708
0.141884
4.68077
0.0311327
0.0220389
1.59177
0.0445399
0.852826
4.83578
0.0216033
0.0219949
7.31082
3.36148
0.0647338
0.0576728
0.0231784
9.86421
5.72505
0.0215175
0.0219732
0.0221921
0.0221743
0.0222485
0.0220412
0.0356054
3.99624
0.0314858
0.0222041
0.419053
0.0219941
0.874826
0.0467123
0.0222057
0.0283366
0.0219266
0.386214
0.0250306
0.0518882
0.0219734
0.0223513
4.32975
4.73306
0.0221774
0.0560199
0.0446414
0.0314665
0.023963
0.0222713
0.0230217
1.77306
0.593474
0.0438924
4.96366
0.0226771
23.1371
0.116388
0.0262988
17.7687
0.0231085
4.12034
5.28863
3.51126
5.70706
3.92402
3.68379
0.0216773
0.0278968
0.0247575
0.0216563
0.0217743
0.0304352
0.0775941
0.0218126
0.0295803
0.135741
0.0773608
0.336975
0.2914
0.0346914
1.95738
9.38736
0.0340287
0.0249175
0.140853
8.23982
3.74828
0.0256708
0.0216452
0.0218902
0.0218042
0.0330954
3.81861
0.389763
0.0217904
4.5156
0.0219862
0.151905
4.12595
0.0822317
0.20463
0.0893081
0.335323
0.0228605
0.0333171
0.0218771
0.242943
0.0219791
0.023158
0.0350862
0.175636
0.0221776
0.0244692
5.11198
0.0218257
0.0221077
0.0291715
5.44379
0.12528
1.66084
0.0387303
0.0221501
3.48861
0.0373325
0.0235259
0.0220274
0.031219
0.0270683
0.0220374
0.0292464
4.47089
0.0237293
0.0216695
0.0469933
0.0218933
0.0319533
0.0302535
0.0220716
0.0220032
4.55892
0.0217301
0.022039
0.0216672
0.0259155
0.0214839
4.73208
0.0263573
0.23153
0.021964
0.0219554
0.0221671
4.12625
0.0707511
0.0220446
0.0216361
5.46569
0.0250847
0.0726787
0.0218683
0.165381
0.0235106
0.0215626
5.34625
0.0218117
0.0222736
0.0221481
0.0220683
0.0241856
0.0221274
0.0220394
1.63609
1.51866
4.50235
0.643571
7.56357
0.0218813
4.20792
0.0219708
4.03167
7.17565
0.0218043
9.58185
0.0219826
4.30885
11.0315
0.264449
3.97014
3.92752
0.871541
2.84623
5.6822
5.16115
0.0444697
0.046096
4.65014
0.0235426
0.0216735
3.34505
0.0241675
0.0283758
11.5979
0.0230723
1.41084
3.63135
6.0707
0.363816
0.130541
0.022252
0.0283961
0.0483642
0.0223582
6.61481
0.376221
0.108736
0.0219287
0.0220702
7.66759
0.0217105
0.808726
0.0218854
8.33559
4.18982
0.0335677
0.0264179
0.0220148
9.61169
4.07479
0.0255956
0.0344749
0.0222858
0.0222855
0.0632648
0.0232047
0.0320076
0.06795
0.0243915
0.0349385
0.022045
0.0322979
14.3177
0.0227002
10.3479
0.022011
3.73882
0.0548033
0.0220444
10.278
0.139005
0.0218664
0.157035
0.0220424
1.1927
0.022212
0.0220179
3.89702
0.0221474
0.116942
0.0236024
0.153042
0.0218796
0.0223565
0.0218685
0.0302438
0.0243263
0.0223151
0.0226306
0.0253025
0.0224753
0.136053
0.0653061
0.0315052
0.0233575
0.0216605
2.34992
10.146
0.0228014
0.0225549
0.0226741
0.0385402
0.0222682
0.0359647
0.0215752
0.0222853
0.219191
0.0233719
0.0222847
0.0219139
4.63028
10.2034
0.021602
0.0737373
0.0578361
0.260387
0.202522
5.97969
4.07822
0.722877
0.0231488
0.151664
0.0219315
0.0313938
6.54577
4.25105
0.136824
0.0239572
14.5616
0.0220466
0.0481043
0.382244
0.0222456
0.149205
0.0236068
0.0233827
0.078287
0.163989
3.95681
3.51694
0.0218453
0.0216106
4.62273
3.75942
0.0222585
0.0293467
0.133759
0.0220579
0.022019
0.0243001
2.89441
0.0217864
4.20306
0.0297058
0.0223094
0.545687
0.0803255
0.0746586
0.122283
4.95738
0.0244682
0.0366323
0.0271917
0.0238255
8.82084
0.0334908
4.29386
3.93265
0.0680624
4.07004
0.0477349
0.0489195
0.359424
0.0217396
4.01974
0.0955574
0.0341296
0.0292738
0.0221787
0.0216846
4.1057
0.0443549
4.218
4.40607
0.0221172
4.1414
0.0218447
0.0219683
0.028901
10.6392
0.081327
0.0217236
4.12397
0.0220033
0.0239172
3.87637
0.0238482
3.58895
0.0222729
4.11155
6.00657
0.0691331
3.80263
0.0234315
3.53681
0.0216506
5.16879
4.60212
4.19754
4.70899
0.0219486
0.0218654
0.255654
3.69001
3.49301
3.97663
3.86207
0.0221873
4.52397
3.53947
0.022438
6.92406
0.0315342
0.033879
11.7283
0.0387787
4.28674
0.0219533
0.0384467
0.0366023
0.222804
5.80061
0.0374572
3.65701
4.41439
0.0221727
0.0246924
0.0239079
0.0253083
3.5012
0.0220202
0.0217737
0.0398426
3.67712
3.85976
0.02894
4.01511
4.07687
0.0219754
7.68062
4.62025
0.213976
4.12987
0.0699346
0.0245086
0.0221735
0.165452
0.0269386
0.085585
9.23421
4.36119
0.0293216
0.0797684
0.0257951
0.0422249
0.021658
0.045523
0.0247605
0.0961499
4.60107
8.5525
3.8501
0.021692
0.142796
0.068685
4.03925
0.0232261
4.34117
4.67798
4.00139
0.0222757
0.174923
4.52372
10.2395
6.6679
0.0371247
5.46615
6.16628
0.0684529
0.0744087
0.0244515
0.0295626
4.33528
0.0455497
0.0221869
3.4193
0.0221113
0.0224107
0.135102
0.135544
0.0218756
0.0923013
0.0248733
3.77562
10.5852