/*--------------------------------*- C++ -*----------------------------------*\
| =========                 |                                                 |
| \\      /  F ield         | OpenFOAM: The Open Source CFD Toolbox           |
|  \\    /   O peration     | Version:  v2012                                 |
|   \\  /    A nd           | Website:  www.openfoam.com                      |
|    \\/     M anipulation  |                                                 |
\*---------------------------------------------------------------------------*/
FoamFile
{
    version     2.0;
    format      ascii;
    class       volVectorField;
    location    "750";
    object      U_0;
}
// * * * * * * * * * * * * * * * * * * * * * * * * * * * * * * * * * * * * * //

dimensions      [0 1 -1 0 0 0 0];


internalField   nonuniform List<vector> 
13917
(
(1.10075 0.130028 2.96258e-21)
(1.02275 0.0444199 0)
(0.501263 -0.0673419 0)
(1.06055 -0.0147619 -1.99222e-20)
(0.996268 0.00390838 3.85647e-22)
(0.358579 0.0562549 0)
(0.440211 -0.0569994 0)
(0.502098 -0.0665232 1.42555e-20)
(0.317313 -0.0573984 0)
(1.14402 0.161978 1.43006e-20)
(1.13846 -0.067802 -2.51742e-21)
(1.10794 -0.0536724 0)
(1.06111 -0.0156724 1.21393e-20)
(-0.0614834 -0.00345488 4.51496e-20)
(0.972785 0.0990006 0)
(0.996559 0.0936315 -5.45566e-21)
(1.01693 0.0499149 0)
(1.15444 0.0247944 -9.26304e-21)
(1.10645 -0.0532917 -1.67907e-21)
(1.00156 0.00494643 -2.4706e-21)
(0.999981 0.00111938 0)
(0.420248 -0.0552692 0)
(1.00106 0.00830005 0)
(0.558294 -0.0715158 -2.09312e-20)
(0.995248 0.0166616 1.22437e-21)
(0.455958 -0.0544686 0)
(0.782822 0.0379274 1.4028e-19)
(0.75684 0.12573 -1.43872e-19)
(0.728319 0.573956 0)
(1.20456 0.104925 1.27018e-20)
(1.11626 0.120272 3.01291e-20)
(1.06433 0.0952359 0)
(0.837 0.0730274 0)
(0.910351 0.00446083 -9.75767e-22)
(0.991614 0.0137767 0)
(1.1378 -0.0831014 2.54769e-20)
(1.00096 0.00780367 0)
(0.0675267 -0.0267719 1.61989e-20)
(1.06885 -0.0211162 -6.61164e-21)
(0.218089 -0.00945073 3.00264e-21)
(1.00887 0.000845108 -1.19506e-21)
(0.99999 0.000480911 -4.65023e-21)
(1.02139 0.00225572 -4.92437e-21)
(0.701867 0.208142 0)
(1.04206 0.0258952 0)
(0.891737 0.0184349 0)
(1.15188 0.0226627 0)
(1.15874 -0.0115913 4.42647e-20)
(0.104268 0.138256 3.26829e-20)
(1.00358 0.000826181 0)
(1.09412 0.0154851 -3.50549e-22)
(0.965424 0.0123335 -1.01243e-20)
(0.0753753 0.117016 7.62831e-20)
(0.905714 0.00576316 -2.48232e-20)
(1.01571 0.0509617 0)
(1.0928 0.0418278 -2.53185e-20)
(1.13901 -0.0669391 0)
(0.996245 0.0318711 -2.46429e-21)
(1.07728 0.048264 3.05228e-20)
(1.04048 0.0254285 0)
(0.466046 0.0471372 -1.45372e-20)
(1.02435 0.0445056 -2.18105e-21)
(-0.0627652 0.00167551 -4.99863e-20)
(1.00168 0.00537 0)
(0.385493 0.068624 0)
(0.985703 0.339253 1.06099e-19)
(0.995431 0.000153356 -1.37108e-20)
(0.988019 0.000293023 1.45425e-20)
(1.17893 -0.0505658 -4.91054e-20)
(1.06618 0.143685 -1.08703e-22)
(0.996665 0.00400799 0)
(0.37046 -0.0641366 9.45995e-21)
(-0.127747 -0.016472 5.89046e-20)
(0.995821 0.0162212 3.40278e-21)
(0.105618 0.21164 1.38226e-19)
(1.09987 -0.0638267 0)
(-0.135037 -0.0108384 1.56135e-20)
(1.05868 0.028488 1.59287e-20)
(0.471256 -0.0511469 -2.45644e-20)
(0.999911 0.00223008 -6.75374e-21)
(1.00011 0.00330474 -7.83829e-21)
(0.995985 0.000171728 6.90875e-21)
(0.404297 0.13191 -1.2706e-19)
(0.0926074 -0.0309431 0)
(-0.0977114 0.0127305 1.84017e-20)
(1.05751 0.0271804 -2.184e-20)
(1.0004 0.00422303 0)
(1.14091 0.420085 0)
(1.09206 0.0153169 -1.20079e-20)
(1.02186 0.00222624 0)
(-0.0577712 -0.0235887 2.39766e-20)
(1.18225 0.143823 1.89159e-20)
(1.02495 0.024924 0)
(0.974499 0.0568425 -2.02984e-20)
(1.0934 0.412961 -6.87088e-20)
(0.386142 -0.00470775 -6.49167e-20)
(1.15217 -0.0518903 0)
(1.15806 -0.000821193 0)
(1.11016 -0.0736452 0)
(0.607678 0.132889 0)
(1.01183 0.00609913 4.86826e-22)
(0.844607 0.00444587 1.80661e-21)
(0.691733 0.192881 -1.02612e-19)
(1.06692 0.0210079 1.25352e-20)
(1.01749 0.0129353 1.29635e-21)
(0.378797 -0.0571802 0)
(0.808862 0.513699 1.8014e-20)
(1.16155 -0.0124776 1.72844e-20)
(1.01889 0.0504648 -2.34904e-22)
(1.11575 0.135606 -3.58773e-20)
(-0.178457 -0.00754389 6.75646e-20)
(0.226285 -0.0100156 0)
(1.1112 -0.0612066 0)
(0.345034 -0.0571342 0)
(0.948139 0.0114534 -9.48533e-21)
(0.0828422 -0.113797 8.33976e-20)
(1.00115 0.0150369 7.885e-21)
(0.200392 0.0969238 3.09598e-20)
(0.10806 -0.0108176 0)
(0.907144 0.0183615 5.95255e-20)
(0.999986 0.000933477 2.19438e-21)
(1.1792 -0.0486725 8.83137e-20)
(0.0780337 -0.0127131 1.64284e-20)
(0.765745 0.118993 0)
(1.00535 0.000730688 -7.48072e-23)
(0.975921 0.0541582 0)
(1.03715 0.0297967 -7.30657e-21)
(1.00495 0.000591616 0)
(1.01855 0.0017112 2.13807e-21)
(0.361574 0.00946392 2.11038e-19)
(0.174525 -0.0257459 1.27933e-20)
(0.950581 0.0104904 -3.63653e-20)
(1.04247 0.0269853 8.81682e-21)
(0.999981 0.000890499 7.19032e-24)
(1.2024 0.0101243 -7.4827e-21)
(0.574389 -0.0749492 2.00971e-20)
(1.09789 0.134677 7.97628e-22)
(0.583894 0.133726 0)
(0.995119 0.00060234 1.15589e-20)
(0.908065 0.0140846 -9.79117e-20)
(1.14817 -0.0808777 -4.1753e-20)
(1.02633 0.0137639 -5.71553e-21)
(0.962429 0.0246378 -3.81219e-20)
(0.653836 0.204543 0)
(0.987384 0.000653043 -1.72753e-20)
(0.573985 -0.0681865 -4.47415e-22)
(0.79835 0.580448 -6.15648e-22)
(0.967366 0.0127468 -2.01385e-21)
(1.0248 0.0115381 -4.78189e-21)
(1.05885 0.104686 1.52919e-20)
(1.13293 -0.0246536 0)
(0.0926084 -0.1476 -9.33257e-20)
(1.13078 -0.0513472 2.43681e-20)
(1.027 0.187339 0)
(1.08265 0.0683969 0)
(-0.0600075 0.0465546 2.14021e-19)
(1.06136 0.140645 0)
(1.07828 -0.0851695 -8.3547e-22)
(-0.156699 -0.00858895 -6.56011e-20)
(1.20116 0.010574 6.84858e-20)
(0.940092 0.0475552 -5.85039e-21)
(0.783558 -0.0225344 -8.63334e-20)
(1.00004 0.00231261 2.68303e-21)
(1.14999 -0.0512467 -9.16637e-21)
(1.11173 -0.0602181 0)
(1.11083 -0.0729542 0)
(1.06592 0.0219975 2.46603e-20)
(1.14457 -0.0153184 9.01014e-20)
(1.0347 0.0221815 1.45181e-20)
(0.837699 0.000157525 -5.86376e-20)
(1.04702 0.180556 0)
(-0.289294 0.00129946 -3.27016e-22)
(1.10922 -0.0648705 0)
(1.01458 0.0595569 1.5622e-21)
(0.727568 -0.0769529 0)
(1.01573 0.20817 0)
(0.19562 -0.0296685 0)
(0.163225 0.0987265 -3.30669e-20)
(0.631596 -0.0714192 0)
(1.01381 0.0285177 3.501e-23)
(1.18811 0.138976 0)
(1.1219 0.119061 0)
(1.02687 0.0132589 6.14695e-21)
(1.0004 0.00460451 0)
(0.936464 0.118485 0)
(0.507214 -0.0583889 0)
(1.26595 0.155639 -4.98272e-20)
(-0.00978104 0.0471479 -2.00516e-19)
(1.12613 0.0467726 -2.22896e-21)
(1.11823 -0.0684781 4.21794e-20)
(1.17047 -0.0814422 0)
(-0.0516189 0.0165266 1.49253e-19)
(1.25391 0.19399 5.76583e-20)
(0.99982 0.00820236 -6.66422e-21)
(0.563114 0.0669503 0)
(0.793453 0.0397492 -2.19146e-19)
(1.00773 0.000318574 0)
(1.02519 0.0260038 -2.78594e-21)
(0.870232 0.44885 0)
(1.19499 0.481684 -4.26189e-21)
(1.08455 -0.0046734 0)
(1.00327 0.000736595 4.11564e-22)
(1.13762 -0.0164576 5.15826e-20)
(1.13079 -0.0249405 0)
(-0.153311 -0.0133395 0)
(1.23897 -0.0316567 5.81926e-20)
(0.991923 0.0128816 6.76237e-21)
(0.995535 0.0329926 3.28177e-21)
(1.15545 -0.00296562 6.83508e-21)
(0.522038 -0.0644963 0)
(0.964692 0.0249873 3.20707e-20)
(0.424416 -0.0582147 -3.14867e-20)
(-0.197621 -0.00825506 0)
(1.11909 -0.0678608 -2.79066e-20)
(1.01709 0.0132217 2.96065e-21)
(0.491635 0.411123 1.37905e-19)
(1.14711 -0.002354 4.40621e-20)
(-0.266474 -0.00524423 -1.56458e-19)
(1.0035 0.0196569 0)
(0.612696 0.0690957 -1.47097e-19)
(1.01338 0.027481 0)
(1.19873 0.0803425 -6.76376e-21)
(1.00868 0.00104951 2.09159e-21)
(0.0478653 -0.0305848 0)
(0.358653 -0.0544632 -1.9417e-20)
(0.997538 0.0972547 -2.33092e-22)
(1.18557 0.488371 1.13793e-19)
(1.08591 0.0673966 -2.45027e-20)
(1.01633 0.0127463 -2.59166e-21)
(1.14695 -0.08238 0)
(1.10767 -0.0645216 0)
(1.1249 0.0440129 7.95651e-21)
(0.583907 -0.0723127 -1.58892e-20)
(-0.216804 -0.00595113 0)
(1.01277 0.00318164 -3.0428e-21)
(1.06774 0.0965157 -1.08415e-20)
(-0.0306454 -0.0270979 0)
(-0.138066 0.0155683 0)
(1.00001 0.00258543 -3.12723e-21)
(1.00653 0.00965495 0)
(0.26915 -0.0102069 4.71938e-20)
(1.15766 -0.0530877 -3.62391e-20)
(1.00004 0.000136636 -8.85311e-22)
(1.13231 -0.0793561 -4.63933e-20)
(1.19224 0.0179872 -1.214e-21)
(0.793452 -0.0275766 9.42789e-20)
(1.09898 0.114799 -1.38349e-21)
(1.00006 0.00250325 -2.51252e-21)
(0.978778 0.211927 -8.36828e-21)
(-0.18925 -0.00703512 -4.37044e-21)
(1.04396 0.0019968 7.75033e-21)
(1.20315 0.156611 5.10044e-20)
(0.569149 0.178153 7.37839e-20)
(1.03682 0.028428 6.36728e-21)
(0.995612 0.0301851 1.37493e-20)
(1.12437 -0.0453585 5.23174e-20)
(0.28637 -0.0167539 0)
(1.12945 -0.0501912 -2.62779e-20)
(0.937289 0.123262 -2.13298e-20)
(0.976191 0.101743 7.82178e-21)
(1.00004 0.000239969 1.62503e-21)
(0.0571716 -0.00904186 0)
(0.547841 -0.0288687 -1.25033e-19)
(1.1374 -0.0834493 4.25794e-20)
(1.01585 0.0130152 -5.11576e-22)
(-0.174563 -0.0107619 6.20974e-20)
(-0.0478016 -0.00774676 -9.21965e-23)
(1.01526 -0.086676 1.84326e-20)
(0.453108 -0.0492868 3.00433e-20)
(1.10061 -0.0651749 -1.69889e-20)
(1.00006 0.00308732 0)
(1.00656 0.000883675 0)
(1.1513 0.0171079 2.49614e-20)
(-0.0235055 -0.0215795 -4.25183e-20)
(1.18465 -0.0232991 -1.13262e-20)
(1.07569 0.0459726 0)
(1.20046 -0.0323377 -5.75053e-20)
(1.0889 -0.0453897 -2.20077e-20)
(1.01841 0.00112404 0)
(0.826481 0.029716 -8.24187e-20)
(1.00199 0.00486955 -2.575e-21)
(0.688514 -0.0762387 5.14447e-20)
(1.08248 -0.00429842 1.2147e-22)
(1.00007 0.000138573 2.64088e-22)
(1.0013 0.114834 -1.30961e-22)
(1.02116 0.189178 2.14067e-21)
(0.78376 -0.0101421 0)
(1.13908 -0.0806996 4.44846e-20)
(0.998466 0.151243 0)
(1.04713 0.00940798 -2.32853e-21)
(1.28619 0.0352747 0)
(0.59335 -0.0723087 -1.80838e-20)
(0.451883 -0.0315814 -4.56784e-20)
(1.00318 0.0191164 4.43846e-21)
(0.979832 -0.0845851 3.79446e-20)
(0.998394 0.000598962 2.81718e-21)
(1.04718 0.00833936 2.90924e-20)
(1.00125 0.0143211 -1.11602e-20)
(0.810232 0.620013 2.20686e-21)
(1.00163 0.000865681 0)
(1.20374 0.0806213 6.70261e-20)
(1.09428 0.114406 0)
(1.03424 0.0211384 4.07428e-21)
(1.13758 -0.0189427 -8.15412e-20)
(1.04115 0.0607609 9.52422e-21)
(0.113301 0.0603746 1.32226e-20)
(1.01506 0.202976 -1.38973e-21)
(1.17661 0.140831 5.05592e-20)
(1.03248 0.0145865 0)
(0.996278 0.0291498 -1.0676e-20)
(-0.195655 -0.00564415 -3.71599e-20)
(0.0501416 -0.0112718 0)
(1.00143 0.0156773 -4.42179e-21)
(1.00747 0.000931993 1.17149e-21)
(0.879383 0.0382894 1.71205e-19)
(1.01723 0.0269705 1.06669e-21)
(-0.106831 -0.0190009 -5.46592e-20)
(1.03147 0.014499 -3.64151e-21)
(0.062852 -0.0320646 0)
(1.05089 -0.00767791 6.32896e-21)
(1.20559 0.33747 -4.91895e-20)
(1.11275 0.00371082 -5.76949e-20)
(0.110935 0.283659 -1.3601e-19)
(0.943942 0.0472469 -1.01209e-20)
(1.28062 0.0218007 -7.08479e-20)
(0.508703 0.30498 1.06078e-19)
(1.00447 0.11259 -4.43627e-21)
(1.15953 -0.0515616 5.55265e-20)
(0.949528 0.527532 1.60331e-20)
(0.996912 0.046718 1.84617e-21)
(0.121637 -0.0260928 0)
(0.571325 0.0459339 0)
(-0.040368 -0.0105874 6.79255e-21)
(0.921752 0.0230837 -3.6523e-20)
(0.148591 -0.00790629 -1.34881e-20)
(1.07433 0.0948049 -2.20777e-20)
(-0.084189 0.00119291 -6.80952e-20)
(0.526885 0.284078 0)
(0.918408 0.35887 -1.10062e-20)
(0.934699 0.353929 0)
(0.45045 -0.0643578 0)
(0.99974 0.00277707 8.78005e-21)
(1.05329 0.184039 1.51822e-20)
(-0.146934 -0.00789251 -1.21829e-19)
(0.983169 0.0322667 6.50071e-21)
(1.00361 0.0760445 -8.24086e-21)
(-0.0264181 -0.00806418 0)
(0.85705 0.483179 0)
(1.01959 0.0562734 0)
(1.15908 -0.0792928 2.89839e-20)
(0.698468 0.546339 0)
(1.00975 0.00531881 0)
(0.089458 -0.00783766 2.09967e-20)
(1.15711 -0.0817959 3.61022e-20)
(1.00213 0.00526269 2.5192e-21)
(1.01017 0.0137848 -1.41838e-22)
(0.998578 0.000415831 2.79737e-21)
(1.02521 0.0111123 0)
(1.2723 0.0318808 5.99379e-20)
(0.671831 -0.073983 0)
(0.386985 -0.276163 0)
(-0.164528 -0.00642372 -3.16428e-20)
(0.998277 0.0159724 0)
(1.21004 0.156445 -2.91942e-20)
(-0.195971 0.0189988 -2.57343e-19)
(1.12601 -0.00759994 -1.54437e-20)
(0.406224 -0.0560857 3.52259e-20)
(0.00356585 -0.0263614 3.57801e-20)
(0.32603 -0.0543997 0)
(1.01413 0.00581865 0)
(1.13058 -0.0817511 -3.90214e-20)
(1.01142 0.0132976 0)
(0.731386 0.083747 1.57777e-19)
(1.03952 0.0261837 -1.63944e-20)
(0.0853337 0.331302 1.43972e-19)
(1.19508 0.0205805 -6.50357e-20)
(1.07161 -0.0116809 2.38913e-20)
(0.999594 0.00333015 0)
(1.15253 -0.00178386 -5.56916e-20)
(1.19409 0.140638 0)
(1.17325 0.011694 0)
(0.324732 1.09242 -6.83349e-20)
(-0.123456 -2.82618e-05 0)
(-0.291206 -0.00312708 1.51366e-19)
(0.983735 0.220151 3.47281e-21)
(1.13765 0.158727 1.00286e-21)
(1.00619 0.0091858 -3.69982e-23)
(-0.114275 0.0163417 0)
(0.41211 -0.0530326 -8.47503e-21)
(1.00046 0.035887 -3.63295e-21)
(1.31107 0.0291644 1.10168e-19)
(0.995886 0.0121242 -1.3122e-20)
(1.23194 -0.0114009 0)
(1.05099 -0.0069655 -1.35855e-20)
(0.999804 0.00236356 -7.87429e-21)
(1.03625 0.0640145 -8.73634e-23)
(0.511214 -0.0517107 -3.71099e-21)
(1.03438 0.0643063 0)
(0.307933 -0.0210822 1.60416e-20)
(-0.0640325 0.0421336 0)
(1.12995 -0.0670266 6.26528e-20)
(0.44093 0.284943 -7.75432e-20)
(0.998699 0.0463159 -5.60746e-21)
(0.493595 0.368581 -1.89768e-19)
(0.46689 0.309724 -2.2562e-19)
(1.00233 0.0107811 -2.32344e-21)
(0.821841 0.483453 0)
(0.984579 0.0319687 -1.04683e-20)
(0.994709 0.0142598 1.34844e-21)
(1.2025 0.109473 4.54278e-20)
(1.00007 0.000358763 -1.9484e-21)
(0.994089 0.0161545 1.84426e-20)
(1.01166 0.0130716 0)
(1.25395 0.0338477 2.69411e-20)
(0.999956 0.0017875 -6.95374e-21)
(0.158522 -0.00960856 0)
(0.603334 -0.0615644 -2.70636e-20)
(-0.128987 0.0178435 0)
(1.24899 0.199818 5.74126e-20)
(0.289795 -0.0263281 8.92627e-21)
(-0.253528 -0.0067959 0)
(1.12374 -0.0081861 1.38658e-20)
(0.998613 0.0152663 -5.70552e-21)
(1.22755 0.0218518 -3.24889e-20)
(1.06847 -0.0196688 7.18763e-21)
(1.07262 0.102452 0)
(0.999841 0.00880451 3.8071e-21)
(0.601569 -0.0728556 -2.70825e-20)
(0.468713 -0.0605341 -1.4734e-20)
(0.657899 -0.0656178 1.39843e-21)
(0.985096 0.0921533 -1.07088e-20)
(1.19723 0.00756831 0)
(0.925127 0.0201189 1.05907e-21)
(1.07045 -0.0216605 -1.91866e-20)
(1.17096 0.00969201 4.24364e-21)
(1.02149 0.065668 0)
(1.13027 -0.0828393 -4.72702e-20)
(1.02001 0.0491839 7.86655e-22)
(1.00161 0.00102076 -1.29301e-21)
(-0.0779504 -0.0224156 5.14045e-20)
(0.191362 -0.0279111 -4.58558e-20)
(0.211028 -0.0306975 4.38652e-20)
(1.18069 0.224295 4.73136e-20)
(-0.137382 0.0134953 6.9705e-20)
(0.148472 -0.030466 -2.29607e-20)
(-0.112249 -0.0161356 0)
(-0.0997579 -0.0116912 -4.88207e-20)
(1.01777 0.00190137 -2.49025e-21)
(1.15392 0.00718519 0)
(1.02362 0.065483 -6.01034e-22)
(0.993177 0.0336728 -3.55158e-21)
(1.27084 -0.0220305 -2.6985e-20)
(1.15342 0.0190886 0)
(1.01897 -0.000167857 -1.3183e-21)
(1.17003 0.0568911 0)
(1.12408 -0.00208893 0)
(-0.0917983 -0.00891709 1.8253e-22)
(1.00252 0.0112169 5.81289e-21)
(1.16679 -0.0385595 8.26742e-20)
(-0.0134796 0.0100336 5.17335e-20)
(1.22432 0.352474 -5.0102e-20)
(0.163225 -0.0128506 -2.56553e-20)
(0.999954 0.00156893 0)
(0.999298 0.036384 -6.61659e-22)
(1.01186 0.00045264 0)
(1.05592 0.144518 -7.71009e-22)
(1.01405 0.00539243 2.47768e-21)
(0.56771 -0.0628502 -4.15558e-20)
(0.398352 -0.236501 0)
(1.00148 0.145791 0)
(-0.0763719 0.0239351 -8.82251e-20)
(1.09227 0.0391945 -2.70659e-22)
(1.14841 -0.0532345 5.20496e-20)
(-0.0767342 -0.0177127 -6.24565e-20)
(0.819589 0.581478 9.33183e-21)
(1.12856 -0.0668195 -3.75215e-20)
(1.15429 -0.0819376 5.81505e-20)
(1.16615 -0.0404225 -9.30499e-20)
(1.16657 0.074706 1.35103e-20)
(1.2184 0.00244577 0)
(1.10773 -0.0315386 3.15734e-21)
(1.12528 -0.0721774 0)
(0.374763 0.111594 0)
(1.1036 -0.0418747 -3.93189e-21)
(1.161 -0.0220143 6.64737e-22)
(1.01536 0.000729763 -1.9838e-21)
(1.25064 0.000292021 0)
(1.09738 0.018807 1.86211e-20)
(1.03178 0.00270041 -8.90238e-23)
(1.0515 0.140677 0)
(1.06135 0.0266043 0)
(-0.0887112 -0.0121693 0)
(0.367042 -0.060689 4.27672e-20)
(1.01644 0.0259055 -1.65871e-21)
(1.01829 0.000909757 0)
(0.587081 -0.0670353 0)
(-0.274149 -0.00425887 0)
(1.00006 0.000272059 -1.64164e-21)
(0.140059 -0.00868678 -1.78465e-21)
(1.06225 0.00348128 -1.63927e-22)
(1.23896 0.179421 -4.3967e-20)
(1.01584 0.02795 3.98876e-22)
(-0.181219 -0.0096508 0)
(1.14936 -0.0718819 -1.1149e-19)
(1.06201 0.102331 -1.15965e-20)
(1.04029 0.0401228 0)
(0.316166 -0.0304822 -7.69674e-21)
(1.25506 0.153351 -5.00413e-20)
(-0.250873 0.00854398 0)
(1.00005 0.000324671 1.81473e-21)
(-0.187687 -0.0089375 0)
(0.135711 0.05993 -7.5726e-21)
(0.854742 0.0393665 -8.1237e-20)
(1.03197 0.00326314 -6.98111e-21)
(-0.127518 0.013003 0)
(0.233469 -0.032401 9.3222e-20)
(1.1236 -0.0122873 -3.72684e-21)
(1.01075 0.0138304 1.48852e-22)
(1.01064 0.0503092 -4.47509e-21)
(1.09695 -0.065099 -2.53794e-20)
(1.2549 -0.0130935 0)
(1.01936 -0.000193625 1.55897e-21)
(1.00965 0.0130447 0)
(1.00525 0.00257881 1.82931e-23)
(1.00559 0.00269828 -1.43412e-22)
(-0.198262 -0.00946269 0)
(1.27346 -0.0173162 8.44164e-20)
(1.12293 -0.0108248 0)
(1.26626 0.142636 9.64859e-20)
(1.00659 0.0006901 0)
(1.01135 0.00579088 -3.06832e-21)
(1.19377 0.00555021 4.90796e-20)
(0.112007 -0.0335348 0)
(1.11468 0.0574041 2.35496e-20)
(1.03595 0.0224331 -1.8615e-20)
(0.995068 0.0147367 0)
(0.992346 0.00110919 2.34816e-20)
(0.796591 0.0304793 -8.68755e-20)
(-0.0108063 0.0184045 -2.34954e-19)
(1.00055 0.00398159 2.16003e-21)
(0.992599 0.00411999 0)
(1.12873 -0.0821332 4.08963e-20)
(1.1082 -0.0297344 2.46413e-20)
(1.11186 0.00214325 -2.49957e-20)
(0.998228 0.0348163 0)
(1.03151 0.0672918 0)
(1.04705 0.100429 -2.48943e-21)
(1.15847 -0.0230824 -1.16912e-21)
(0.94551 0.501317 5.48709e-22)
(1.26938 0.151031 1.68195e-19)
(1.22906 0.0176928 3.76831e-20)
(1.18152 -0.0110984 -9.57032e-22)
(1.21899 -0.0363348 5.62583e-20)
(1.17672 0.13378 -4.05921e-20)
(1.00232 0.0185504 0)
(-0.176171 -0.00908905 -7.65637e-20)
(0.992682 0.00054293 -2.66984e-20)
(1.00424 0.0790603 8.10061e-21)
(1.07367 -0.00292219 0)
(1.26024 -0.00148743 6.86297e-20)
(0.990947 0.297428 4.42474e-21)
(1.01045 0.00130389 1.48268e-21)
(1.22682 0.341569 0)
(1.21392 0.0985906 8.39057e-20)
(-0.0970625 -0.00635381 0)
(1.18288 -0.00868722 5.12024e-20)
(0.887085 0.140461 -6.30875e-20)
(1.12682 -0.00282458 3.05757e-20)
(0.99946 0.00363485 0)
(0.386941 -0.0331662 0)
(1.2169 0.3313 5.8548e-20)
(0.298775 -0.0512958 0)
(1.01928 0.0468879 0)
(1.10436 0.0457118 0)
(1.26912 0.138444 -1.23601e-19)
(0.0111765 -0.02839 7.9027e-20)
(-0.207507 0.00305341 0)
(1.16109 -0.00218051 -3.2516e-20)
(1.18926 0.226444 3.57414e-20)
(0.992604 0.092613 1.84406e-21)
(1.06091 0.060271 0)
(0.99712 0.0353678 6.24914e-21)
(0.888043 0.237116 3.29907e-21)
(0.669701 0.18645 5.25098e-20)
(0.973361 -0.00112592 -1.61839e-20)
(1.14455 -0.00409594 4.24188e-20)
(0.56818 0.152771 -8.39365e-20)
(0.311386 -0.0530474 -3.43595e-20)
(-0.244153 0.0100377 0)
(1.03464 0.0778865 3.9605e-21)
(1.14645 -0.0528793 -3.69305e-20)
(1.18406 -0.0733844 8.10222e-20)
(1.00587 0.123326 -2.49825e-21)
(0.968319 0.0269293 -4.28739e-20)
(0.173764 0.542888 0)
(0.549993 -0.0536916 -3.30542e-20)
(0.521458 -0.0709157 1.47001e-20)
(1.2634 0.1263 7.46221e-20)
(1.01846 0.00195532 -5.38629e-21)
(0.0954684 -0.00967451 -1.57881e-20)
(1.09812 -0.0636837 2.56753e-20)
(1.01037 0.000970983 8.98968e-22)
(1.10024 0.0800537 3.94305e-20)
(1.14362 -0.0354947 2.78935e-20)
(0.846398 0.0747191 1.17993e-20)
(1.20152 0.0997535 2.39774e-20)
(0.459081 -0.0521665 2.65634e-20)
(1.21483 0.0013035 -3.13264e-20)
(1.10294 -0.0279157 0)
(0.387821 -0.0325504 1.63966e-19)
(1.06366 0.0333438 2.90995e-20)
(-0.120097 -0.0096623 1.42605e-19)
(1 0.00230813 4.00401e-22)
(1.00054 0.00429545 -5.48515e-21)
(0.953396 -0.0857886 -5.44665e-20)
(0.520881 -0.0549191 -3.74005e-20)
(0.37567 0.242985 0)
(1.06428 0.0317907 -6.3223e-21)
(1.0159 0.0575407 1.06666e-21)
(0.993038 0.00451533 -6.52215e-22)
(1.09048 -0.045539 1.11739e-20)
(0.0783356 0.176941 0)
(1.11044 -0.0719254 0)
(1.06336 0.0607583 0)
(1.1287 -0.0651448 0)
(1.15003 -0.00369647 0)
(1.01572 0.0287387 0)
(1.16333 0.496293 3.7307e-20)
(1.10895 -0.0718374 0)
(1.12585 -0.0860897 -1.96294e-20)
(1.00535 0.0211332 0)
(1.21052 -0.00417945 1.83157e-20)
(1.06039 0.028315 -8.77003e-21)
(-0.0220879 0.0531893 -1.19444e-19)
(1.15013 0.158967 -4.30687e-20)
(1.00184 0.290624 -4.46485e-21)
(1.10549 0.0478224 0)
(1.00818 0.00302482 0)
(1.02969 0.00587783 0)
(1.03851 0.030398 1.14113e-20)
(0.965013 0.360058 -3.30297e-22)
(0.890172 0.0235277 0)
(1.26322 0.0651939 -1.58774e-19)
(0.466168 0.808536 2.77414e-20)
(1.14462 -0.0126561 -9.36996e-20)
(1.00926 0.00527072 1.26319e-21)
(1.2187 0.00987709 4.13899e-20)
(0.372618 0.273428 8.97688e-20)
(1.12816 -0.0840749 1.92577e-20)
(1.04316 0.00262686 -3.80026e-21)
(0.899765 0.036541 -7.52997e-20)
(1.00909 0.0129587 1.1699e-22)
(1.08512 -0.0218741 6.6712e-21)
(1.07987 0.0479036 -4.00094e-20)
(0.214272 -0.0323156 -1.00049e-19)
(0.999877 0.00242684 -6.92663e-21)
(1.22979 0.514968 -4.99933e-20)
(1.08654 -0.0183494 0)
(1.1367 -0.0686576 2.69865e-21)
(1.17835 0.15591 6.30181e-20)
(-0.13949 -0.0140649 -2.7341e-22)
(1.02471 0.289074 0)
(1.0102 0.0485524 2.19437e-21)
(-0.0555432 -0.0190404 -1.18969e-20)
(-0.285644 -0.00223187 -8.38702e-20)
(1.00756 0.037359 -1.20576e-21)
(1.07245 -0.00383868 0)
(1.15746 -0.0673985 0)
(1.25405 0.127537 4.24748e-20)
(1.18145 -0.0240338 -2.32263e-20)
(1.00016 0.000392601 0)
(1.04166 0.0400596 0)
(1.19352 0.328272 1.35712e-19)
(1.07227 -0.0127943 -2.63179e-20)
(1.17257 0.0155637 1.68079e-20)
(1.12323 -0.0434865 2.71326e-20)
(1.03041 0.00568763 0)
(1.12846 -0.02817 -1.71812e-20)
(0.509513 -0.0681393 5.06575e-20)
(1.04251 0.000865102 7.81604e-21)
(1.05771 -0.0102182 3.54871e-21)
(1.00468 0.00273946 -2.87592e-22)
(0.0474485 -0.00938885 -4.88219e-20)
(0.999956 0.00108963 0)
(0.985396 0.0881549 1.03136e-20)
(-0.284024 -0.00073986 4.82128e-20)
(0.99473 0.0724144 -6.68556e-21)
(0.580389 -0.0540262 8.75172e-21)
(1.08136 0.0712941 -2.63222e-21)
(0.831132 0.0788382 6.5431e-20)
(1.00504 0.00287081 -9.12428e-23)
(1.02283 0.223008 3.49517e-21)
(1.00095 0.0135781 4.06022e-21)
(1.16379 0.0830401 5.56338e-20)
(1.00783 0.00181886 -1.15309e-21)
(1.08351 0.270958 2.8877e-20)
(1.06193 0.00438178 -1.07116e-20)
(0.219148 0.13184 0)
(0.43079 0.684228 4.72826e-20)
(0.109477 -0.0344533 -1.02577e-19)
(1.01135 0.000437462 5.53649e-22)
(0.999675 0.00298901 -3.93963e-21)
(1.1712 0.130186 6.24395e-22)
(1.13156 0.123042 -8.12236e-23)
(0.0103564 -0.0135601 0)
(0.208256 -0.0466607 7.1706e-20)
(1.15515 0.0287309 -3.12836e-21)
(0.99295 0.0131454 6.56951e-22)
(1.25099 0.030942 0)
(0.342936 0.21797 0)
(1.1247 -0.0848178 0)
(1.26566 0.0691281 1.43416e-19)
(1.14663 0.0126222 -4.58917e-20)
(0.504858 -0.0540817 -4.06176e-20)
(1.09026 0.138816 1.9363e-20)
(1.08824 -0.0437823 1.93705e-20)
(1.22342 0.0354208 -1.24065e-19)
(0.852609 0.42778 1.3553e-20)
(1.15317 0.0307423 -1.18419e-20)
(0.304048 0.293747 2.10615e-19)
(1.15307 0.0375317 -2.1685e-20)
(1.06444 -0.0085657 0)
(1.14534 -0.0368976 3.21725e-20)
(1.00872 0.114216 2.33731e-21)
(1.03569 0.00412414 5.21683e-21)
(1.085 -0.0207112 0)
(1.11783 0.130417 3.54702e-20)
(1.05456 0.102953 0)
(0.999793 0.0135454 3.4691e-21)
(1.00705 0.00055205 -8.04488e-22)
(1.14752 -0.00867096 4.62939e-20)
(1.06884 0.010571 0)
(1.17554 0.0173974 0)
(0.993638 0.0127473 0)
(0.995414 0.00993803 0)
(0.999964 0.000871363 0)
(1.02715 0.0674369 -1.63345e-22)
(1.02406 0.000561402 -2.47565e-21)
(1.053 0.0879941 1.78533e-20)
(1.00414 0.00290008 0)
(-0.187986 -0.00882735 0)
(1.10406 -0.0549639 -1.37539e-20)
(0.471819 -0.282114 0)
(1.01281 0.00548676 -2.81092e-21)
(1.00007 0.00173931 0)
(0.801704 0.149156 0)
(1.17027 0.072688 -1.6135e-20)
(0.953434 0.00633231 -4.6494e-20)
(0.703565 0.013836 5.26676e-20)
(1.13708 0.209153 -1.90849e-21)
(0.898412 0.110579 -1.45893e-19)
(1.08659 -0.0195552 0)
(1.20441 0.00614247 -2.97322e-20)
(1.05595 0.0155466 -8.51159e-21)
(0.999902 0.00112876 3.58001e-22)
(1.00586 0.00240597 4.29125e-22)
(1.03929 0.0618617 -1.54898e-20)
(-0.304859 0.000339715 1.19869e-19)
(1.00006 0.00147797 0)
(1.09951 -0.0460567 -3.14191e-20)
(1.0544 0.0905498 7.82671e-21)
(-0.193711 0.0214723 7.40116e-20)
(0.966738 0.231391 0)
(1.14453 0.207425 4.02126e-20)
(1.13466 -0.0681053 -5.07567e-21)
(1.022 0.00644328 2.121e-21)
(1 4.62436e-05 0)
(1.10573 -0.0551505 9.78771e-22)
(0.988218 0.00519041 1.36319e-20)
(0.986357 0.0460657 1.76121e-20)
(0.83634 0.0133585 2.06205e-20)
(1.01566 0.0615732 -1.92109e-21)
(0.998621 0.00108386 2.60847e-21)
(1.09279 0.0590045 0)
(1.00665 0.00824429 -3.36163e-22)
(1.01726 0.000902488 5.25923e-21)
(1.06145 0.0979457 -4.25394e-21)
(0.884821 -0.0196871 -8.13789e-21)
(-0.0112822 -0.00991022 -2.50114e-20)
(1.08617 0.118025 2.16404e-21)
(1.04247 0.000267469 9.40458e-21)
(1.00956 0.00101444 -1.45357e-21)
(0.0404788 -0.033004 3.73908e-20)
(0.950394 0.367413 0)
(1.00348 0.0449407 2.03345e-22)
(1.02035 0.0461873 3.23085e-22)
(0.791192 0.0172437 4.96946e-20)
(1.16921 -0.0686905 5.26207e-20)
(-0.29892 -0.00336552 -2.47711e-20)
(0.894936 0.141004 5.03219e-20)
(1.06549 -0.00765455 0)
(1.01237 0.00330902 0)
(1.01748 0.00105541 -4.12618e-21)
(1.10539 -0.041818 6.05467e-20)
(1.09099 0.119274 -1.24882e-21)
(1.15198 -0.0756411 5.28489e-22)
(0.917783 0.0231043 -2.30905e-20)
(0.0983802 -0.0222308 0)
(1.03131 0.0456566 0)
(0.96588 0.0630382 7.50991e-21)
(-0.305482 -0.000516904 1.37041e-19)
(0.995676 0.011531 6.46597e-21)
(1.0986 0.0170334 7.21039e-21)
(1.00628 0.0336302 0)
(1.00207 0.00132304 1.83489e-23)
(1.11005 0.135722 6.48316e-20)
(0.773686 -0.00400209 0)
(1.05341 0.029073 1.60967e-20)
(0.545053 -0.0548366 0)
(0.239156 -0.0131715 2.35827e-20)
(1.18315 0.151267 -1.90003e-20)
(1.00267 0.0191847 -5.57003e-21)
(1.02627 0.00212311 3.29534e-21)
(1.11596 -0.0689483 0)
(1.13471 -0.0421025 0)
(1.00007 0.0004455 -2.02059e-21)
(1.2437 -0.0410535 5.80749e-20)
(1.02575 0.00233591 0)
(1.11442 0.124984 -3.1281e-20)
(1.0361 -0.00326094 0)
(1.03705 0.00597494 -5.25085e-21)
(1.27349 -0.0133228 -5.15085e-20)
(1.04327 0.0163332 -2.04022e-21)
(0.971494 -0.0854863 9.62519e-21)
(1.12144 0.0968264 0)
(0.999957 0.000812452 -2.31176e-22)
(1.02107 0.00332322 0)
(0.981285 0.00341774 -3.39549e-20)
(1.0106 0.0215543 -1.26428e-22)
(1.05723 -0.00903964 6.56281e-21)
(0.269933 0.686031 0)
(1.04123 0.00303511 -3.59762e-21)
(1.03309 0.0105344 -8.62913e-21)
(0.27909 -0.0593782 0)
(0.488416 -0.0661145 5.57744e-22)
(1.10461 -0.0293735 0)
(1.12593 0.124078 0)
(1.16582 0.00534655 -7.18405e-20)
(1.08408 0.0255984 0)
(1.02626 0.0150649 0)
(0.887821 0.0162127 2.02516e-20)
(-0.159909 -0.0125177 0)
(1.09325 0.272572 -1.60038e-20)
(0.998336 0.00580496 -6.19817e-21)
(1.03887 0.0392127 0)
(0.235448 -0.0488203 -8.48561e-20)
(1.12498 0.0223671 -3.57324e-20)
(-0.120482 -0.00706193 -7.14046e-20)
(0.999964 0.00105144 0)
(0.951041 0.00720706 5.09122e-20)
(0.0315234 -0.00853183 0)
(1.11712 0.0153326 0)
(1.05572 0.0275063 2.37138e-20)
(-0.297736 0.00126352 7.59151e-21)
(0.212422 0.240067 -3.03525e-20)
(1.01086 0.0209745 -2.03436e-22)
(1.21854 0.0362925 -3.65094e-20)
(1.00619 0.00252738 -4.43623e-22)
(1.04202 0.0163333 -3.59969e-21)
(1.01321 0.00577681 0)
(-0.151058 -0.0133434 -1.00076e-19)
(1.0236 0.000436498 0)
(1.04131 -0.00593078 -2.58676e-23)
(1.02683 0.0145689 0)
(0.919016 -0.0836721 -1.09263e-20)
(1.06813 -0.0170795 -1.54888e-20)
(1.24354 0.173186 0)
(0.70186 -0.0901727 -7.39111e-20)
(1.03753 0.00391356 3.02012e-21)
(0.844711 0.0314895 -5.4314e-20)
(1.00057 0.00377479 1.19548e-22)
(-0.154512 -0.00608311 0)
(1.00585 0.0110529 -1.51225e-22)
(1.04195 0.00240063 -3.6609e-21)
(0.998681 0.00158508 -1.2781e-21)
(1.11703 -0.0693227 5.81916e-22)
(0.998504 0.00147271 -3.88496e-22)
(1.21403 -0.003229 -1.91826e-20)
(0.246728 -0.0094527 3.95671e-20)
(0.620814 -0.073658 0)
(0.904678 0.0369937 4.23221e-20)
(1.15742 -0.0811339 4.22672e-20)
(-0.258907 -0.00181988 0)
(0.997464 0.0293203 0)
(0.0772741 -0.00696799 -1.89616e-20)
(0.347794 0.0404456 -1.59909e-19)
(-0.238813 -0.00166271 2.38787e-20)
(0.27702 -0.025318 4.01946e-20)
(0.262774 -0.05839 0)
(0.101581 0.159719 -5.3818e-20)
(1.21483 0.0109709 -3.8729e-20)
(1.01239 0.0513248 3.26781e-22)
(0.444349 -0.0503684 -2.961e-20)
(1.11631 0.0175168 -2.30943e-20)
(0.381448 -0.049918 0)
(1.03124 0.00373073 -1.15749e-20)
(1.02586 0.0244274 0)
(1.00499 0.0459468 8.11467e-21)
(1.00061 0.00407812 2.01957e-21)
(1.08966 0.0207029 0)
(0.891344 0.0963172 -6.38059e-20)
(0.0530262 -0.016172 5.04205e-21)
(1.02565 0.0233855 0)
(0.993899 0.00520543 -6.56325e-23)
(-0.222283 0.0147511 2.16585e-19)
(0.968 0.459214 0)
(0.981432 0.00212629 -2.40499e-20)
(0.812003 -0.0490637 0)
(1.10069 0.0614009 -3.71319e-20)
(1.04884 0.0224527 0)
(0.492416 0.721049 2.04993e-20)
(0.805771 -0.0438741 0)
(0.95248 0.0550902 0)
(1.06858 -0.0162057 0)
(0.216267 -0.00912254 0)
(-0.291244 0.000328712 -1.24273e-19)
(0.222535 0.0626497 -1.4947e-20)
(1.03564 -0.00270483 -3.071e-21)
(1.2512 0.160339 0)
(1.21075 0.0942871 -8.06381e-20)
(-0.217106 0.00321935 0)
(0.310895 -0.0529276 4.55104e-20)
(1.10515 -0.0656086 -1.97235e-20)
(1.01698 0.0280035 0)
(1.05708 0.0163506 6.673e-23)
(1.02983 0.0460266 2.67803e-21)
(1.01976 -0.000144983 0)
(1.02992 0.0685971 3.47682e-21)
(1.0177 0.00166158 -9.18251e-23)
(1.04957 0.0988228 0)
(1.08596 0.138463 9.53163e-21)
(-0.0583318 0.0237544 4.47483e-20)
(1.17133 -0.0429369 0)
(1.04188 -0.00532792 1.38973e-20)
(1.20083 0.00463651 0)
(-0.0980693 -0.0171789 -1.48272e-20)
(1.1068 0.130227 0)
(0.972811 0.0267207 -1.44306e-20)
(-0.12667 -0.00788585 0)
(1.0329 0.0207752 -1.41058e-20)
(0.987204 0.0439631 -1.1525e-20)
(0.817503 0.0680885 -7.0695e-20)
(-0.0222689 0.0304562 4.43861e-20)
(0.998423 8.79576e-05 -1.536e-20)
(1.00491 0.0215052 -3.97537e-21)
(0.40605 -0.0574806 0)
(1.14858 -0.0787392 -7.92883e-20)
(1.19457 -0.0741578 -1.08163e-19)
(1.18306 -0.0165702 2.52498e-20)
(1.1439 -0.0828464 -3.04208e-20)
(1.00863 0.0203 -8.42835e-22)
(1.22612 0.0109628 -1.44942e-21)
(0.971905 0.0286726 7.86313e-21)
(1.00389 0.0116221 1.29416e-22)
(0.969647 0.0246412 3.28363e-20)
(0.527708 -0.060824 2.48866e-20)
(-0.278317 -0.00381029 0)
(1.03429 0.00868606 1.03687e-20)
(1.02158 0.00330637 0)
(1.00627 0.035082 -1.51978e-21)
(1.13136 -0.0702289 4.60463e-20)
(1.02595 0.0661431 0)
(1.10598 0.0409063 0)
(0.989125 0.00480876 1.22894e-20)