/*--------------------------------*- C++ -*----------------------------------*\
| =========                 |                                                 |
| \\      /  F ield         | OpenFOAM: The Open Source CFD Toolbox           |
|  \\    /   O peration     | Version:  v2012                                 |
|   \\  /    A nd           | Website:  www.openfoam.com                      |
|    \\/     M anipulation  |                                                 |
\*---------------------------------------------------------------------------*/
FoamFile
{
    version     2.0;
    format      ascii;
    class       volScalarField;
    location    "900";
    object      ddt0(k);
}
// * * * * * * * * * * * * * * * * * * * * * * * * * * * * * * * * * * * * * //

dimensions      [0 2 -3 0 0 0 0];


internalField   nonuniform List<scalar> 
13917
(
1.24057e-08
-1.59121e-08
0.00101384
7.77366e-09
1.2848e-09
6.60892e-07
0.000553219
0.00129307
0.00034199
-1.32255e-07
2.05677e-07
3.50436e-07
8.4617e-09
-0.000172272
-5.91749e-08
-1.56556e-08
-1.34496e-08
4.04919e-08
3.53977e-07
2.00364e-09
-6.08714e-11
0.000517878
1.18841e-09
0.0014274
-5.02719e-09
9.05155e-05
2.93859e-07
-8.91689e-08
2.20307e-07
2.84665e-07
1.35375e-07
1.92905e-08
-4.5108e-08
-4.75989e-08
-5.88754e-09
0.000152539
1.89434e-09
0.000195838
2.41013e-08
8.03786e-05
5.56947e-09
-9.60626e-11
2.72569e-09
-1.70053e-07
1.10965e-08
9.71031e-08
4.14953e-08
-1.18107e-08
1.10512e-06
1.27723e-09
5.66054e-08
3.51616e-09
-2.06151e-06
1.23204e-08
-1.25146e-08
5.55224e-08
2.06223e-07
2.44265e-08
4.38562e-08
7.59993e-09
0.000517774
-1.65575e-08
-0.000170956
1.86937e-09
1.13577e-07
0.0220202
-4.60395e-10
1.65884e-09
-3.54357e-07
2.19641e-08
4.60327e-10
0.000532668
-0.000137089
-6.76612e-09
-5.3219e-07
5.4961e-07
-0.000145958
3.19505e-08
-0.000295493
6.09604e-10
1.78815e-09
-8.47955e-10
-7.66164e-07
0.000256583
0.000142156
3.06911e-08
2.71801e-09
-0.0410913
5.62346e-08
3.07414e-09
-7.63535e-05
1.22619e-07
-7.64654e-09
1.84748e-09
0.0559762
-5.885e-07
-8.38615e-08
-1.67435e-08
9.3985e-07
9.18074e-07
4.81795e-09
9.79296e-08
-2.33885e-07
3.81602e-08
2.9553e-09
0.000346691
1.68505e-07
-2.41231e-08
-1.49942e-08
-2.04987e-08
2.82516e-05
9.7635e-05
4.74295e-07
0.000289712
-1.48922e-09
7.69174e-07
-5.83064e-09
-7.25058e-07
0.000230027
-5.80269e-08
-1.26169e-10
-8.22346e-07
0.000219242
-5.08676e-09
2.89335e-09
1.96572e-09
-1.70783e-09
3.35939e-09
3.75255e-10
6.4012e-07
0.000300062
-1.08134e-09
1.05003e-08
-1.12057e-10
-0.00608558
0.00142093
-3.55641e-10
1.03755e-06
-2.15161e-10
-1.48323e-07
0.000104909
-3.80852e-10
7.03124e-09
1.01479e-07
1.88444e-10
0.000962078
-3.91443e-07
4.29963e-09
-7.99467e-10
1.8978e-08
8.83958e-08
7.68378e-07
1.94247e-07
-5.63499e-08
4.01956e-08
0.000124085
9.30533e-09
-0.000170125
-0.000180573
0.01079
-6.20963e-09
5.83175e-07
5.71221e-10
-6.7639e-08
4.57589e-07
9.39049e-07
3.86139e-08
4.00552e-08
8.12346e-10
9.18922e-08
-4.32115e-08
9.32634e-05
5.68644e-07
-1.73548e-08
0.00143026
-1.31307e-07
0.000321049
-1.15978e-06
0.00107413
1.18756e-08
1.16967e-07
6.07748e-08
2.75285e-10
3.30238e-09
5.73001e-08
5.04568e-05
5.87871e-06
9.52554e-05
6.52146e-08
5.7743e-07
-4.75096e-05
0.000155022
-3.98749e-06
1.54142e-09
8.79342e-07
-1.64562e-07
9.2745e-09
-9.37695e-09
1.02737e-07
-0.0131305
4.47676e-08
1.45619e-09
8.77139e-08
8.94595e-08
-0.000146937
-0.000142909
-6.62724e-09
2.3462e-08
-1.62986e-08
0.000487176
8.22845e-09
0.000622965
-0.000167496
5.73521e-07
3.2514e-09
-1.3441e-06
4.26323e-08
2.67555e-06
6.10777e-09
0.000802862
1.42018e-08
1.03017e-07
3.91861e-09
0.000156859
0.000239106
-2.27167e-08
3.66886e-05
4.23075e-08
4.481e-09
-6.43241e-05
5.72042e-07
6.46785e-08
0.00130066
-0.00018886
3.23631e-09
2.4662e-08
-5.81447e-05
0.000118545
1.07162e-09
1.34286e-09
1.02965e-05
-1.96246e-07
5.05638e-11
-1.27611e-05
-7.9442e-08
8.67098e-07
2.96495e-08
9.17312e-10
3.41432e-07
-0.000188689
9.35493e-09
-1.02511e-07
4.42748e-07
-1.09139e-09
2.3353e-08
2.01247e-07
1.24472e-05
2.10634e-07
2.64269e-08
4.85204e-08
5.47748e-11
0.000217558
-0.00036324
4.46407e-05
4.78837e-09
-0.000125408
-0.000163693
0.00109648
-0.000286121
6.23998e-07
1.43351e-09
5.25855e-10
2.10408e-08
1.03214e-05
-2.49938e-07
4.26694e-08
-0.000159161
1.77845e-07
5.9667e-10
-0.000144024
1.57362e-09
0.00154339
4.2437e-08
1.22674e-10
-1.2829e-10
-2.72131e-08
-1.96408e-07
-1.61161e-05
-1.1372e-08
1.85521e-08
6.82282e-06
0.00138024
-0.000284132
5.49622e-09
0.00152278
-1.5577e-10
1.84242e-08
-6.71215e-09
-5.03389e-06
1.13277e-09
-2.04033e-07
2.96518e-08
1.05878e-09
8.59739e-08
-1.09192e-08
-6.09419e-07
-4.23412e-08
5.76511e-08
4.84389e-09
2.29046e-08
4.54051e-05
0.000200904
-5.80363e-09
2.44664e-09
-0.00034168
5.12158e-09
-0.000130813
3.51177e-09
0.000189801
1.72588e-09
1.54403e-06
8.03107e-08
-2.10816e-08
-5.62469e-09
-0.0339666
1.98764e-06
3.78443e-09
-2.1134e-07
1.43957e-05
9.85081e-09
0.000287235
-1.05285e-06
-8.67146e-05
5.67796e-08
0.000172126
3.02539e-08
0.000159199
1.00245e-06
-9.35709e-08
-1.34198e-07
0.000871839
1.51181e-09
6.44062e-08
3.16016e-05
1.86146e-08
-1.68432e-08
-3.43785e-05
9.30945e-08
-1.88672e-08
-1.45282e-05
9.74144e-07
3.65204e-09
0.000188218
-4.37425e-05
1.39328e-09
8.43499e-09
-3.77459e-10
-6.25085e-10
0.000116833
0.00119195
-1.66658e-05
4.70117e-05
-7.88982e-09
-4.06558e-07
3.84745e-05
9.84341e-08
0.000582873
5.95049e-05
0.000196024
2.84697e-09
5.72961e-05
8.87239e-09
0.000646266
5.99003e-09
-3.82801e-07
-1.03468e-07
2.33266e-08
2.36272e-09
2.76457e-08
1.48561e-07
-1.64282e-08
-1.50112e-05
0.000133625
-1.38867e-05
2.19248e-07
-1.80414e-07
7.75382e-10
0.000132034
0.000386027
2.19915e-08
9.39417e-05
-7.9255e-09
-1.83544e-05
1.95093e-09
1.04753e-09
-1.44299e-08
-0.000632714
-1.50173e-08
-1.69274e-05
-2.27756e-05
3.15308e-07
-2.53614e-06
6.43463e-09
-1.20443e-07
-8.83595e-07
-3.03424e-09
1.7373e-07
1.97681e-08
-8.11427e-09
2.18164e-07
1.21279e-10
-4.46425e-09
8.47178e-09
-4.82417e-05
3.54313e-10
0.000217821
-0.00104439
1.34807e-05
8.71529e-07
7.18469e-05
-4.57797e-05
9.57193e-08
-8.48272e-09
-6.64472e-07
2.2442e-08
2.78431e-08
8.42128e-10
0.00110169
0.000440883
-0.00135924
-2.61008e-08
2.11609e-09
-9.45603e-08
2.93923e-08
1.0661e-08
-2.08162e-08
-2.96251e-05
-1.56028e-08
1.15073e-09
-0.00012905
0.000303067
0.000318668
1.78365e-07
-6.17144e-08
0.000339027
-8.25483e-05
-0.000104763
-1.47955e-09
7.05771e-09
-2.15874e-08
2.2643e-08
-1.94984e-05
3.3048e-08
-4.2458e-09
3.91629e-08
8.93875e-08
-0.00011504
-3.37374e-09
-1.66174e-07
-0.000204615
3.99126e-06
0.000224754
1.37166e-10
2.10095e-08
8.86527e-09
5.1091e-09
2.77321e-09
-0.000265442
4.80954e-06
-1.31022e-08
0.000134708
5.68397e-08
-7.20306e-08
-8.71731e-05
1.81444e-07
3.86749e-07
-2.81977e-05
-1.92443e-07
3.79858e-08
1.05441e-09
1.58517e-07
4.19264e-07
7.91085e-08
2.23088e-07
-3.32594e-09
6.67703e-10
-0.000353098
6.24387e-08
1.03112e-08
-5.34738e-09
3.47147e-08
-8.91795e-05
0.000369312
7.52781e-09
6.51407e-10
0.000285732
-6.38904e-05
1.20051e-10
0.000222246
1.9731e-08
-1.21981e-08
6.3115e-09
-0.000154463
0.000134547
2.12192e-08
-6.19763e-09
2.68916e-05
-1.03854e-06
3.2542e-05
5.8627e-11
-0.000168445
-6.3877e-07
-0.000214167
1.04989e-08
0.000132934
-0.000177197
1.0089e-07
8.48726e-09
-6.94375e-09
5.28888e-07
1.63985e-05
-6.00379e-09
7.11654e-09
5.50711e-10
5.28263e-10
-0.000135658
8.948e-07
9.97527e-08
2.79845e-06
7.0319e-09
4.57722e-09
-1.64322e-08
-0.000197263
6.26933e-08
2.85392e-09
-6.48159e-09
8.78121e-10
-0.000509187
0.000165169
2.38644e-09
-2.09349e-09
-1.3382e-05
1.59525e-07
7.96939e-08
2.32697e-08
-1.51346e-08
5.705e-09
-4.89847e-09
-2.60097e-06
5.3261e-06
2.28034e-06
-2.05588e-07
-0.000153983
2.72845e-07
2.56074e-09
-0.000171522
1.16107e-09
-1.72245e-08
2.85182e-08
0.000277757
6.89724e-08
3.60313e-09
1.53217e-07
-8.46969e-08
5.57537e-05
-1.75372e-07
6.24637e-07
8.6981e-08
2.76228e-09
-0.000227579
3.37507e-06
0.000647851
-1.28281e-08
6.06821e-08
-1.82128e-06
6.90171e-05
-9.8804e-05
-3.51781e-08
4.82376e-07
-1.12111e-08
2.1419e-08
2.1058e-08
-1.96912e-07
-1.89335e-07
-4.18822e-09
3.34221e-08
5.54067e-07
0.000719319
4.66385e-05
-9.73719e-09
-5.29221e-08
3.23303e-05
1.77929e-09
1.13345e-08
-8.61028e-07
0.000164482
0.00118511
-7.57408e-06
-4.94053e-10
0.00021614
5.39172e-07
5.01314e-09
5.16368e-08
5.55443e-08
-1.53471e-07
2.101e-07
-0.000226265
1.918e-07
1.34642e-07
-0.000218008
3.51452e-08
-0.000152565
6.611e-10
2.77419e-09
0.0017385
0.000211601
-1.24331e-06
3.55048e-08
-1.74928e-08
-1.33865e-09
1.82199e-07
-1.89758e-06
9.01732e-07
2.25625e-08
2.32418e-07
3.76937e-08
7.8326e-09
-0.000137792
9.25647e-07
3.59984e-05
1.39942e-08
-1.13881e-06
3.3025e-08
-0.000107882
-2.9993e-08
1.106e-07
6.0577e-08
2.1531e-09
5.78286e-09
-2.85755e-10
1.71863e-07
3.3019e-08
-1.78873e-05
4.90626e-06
3.2157e-08
3.24327e-09
-1.0608e-06
1.30265e-06
0.000761777
1.02741e-08
6.1445e-08
6.69477e-09
6.31389e-08
4.53147e-08
-0.000179473
9.40203e-10
0.000187533
6.20925e-08
2.73635e-07
2.56394e-07
-0.000138635
2.10792e-07
-5.49418e-09
-2.96827e-05
-0.000102961
1.30555e-08
2.70702e-08
0.000227437
2.27985e-06
-2.37762e-07
1.73307e-10
-2.55842e-09
7.75164e-07
2.44323e-08
-1.62633e-08
2.04828e-07
6.65069e-09
1.21201e-07
0.00107639
7.24387e-09
4.51723e-09
6.89977e-10
0.000172508
-4.85543e-11
-3.10594e-08
0.000100191
-1.37698e-08
0.000299788
3.7827e-08
6.49721e-09
6.07047e-10
-4.17618e-08
-6.57761e-09
3.95661e-08
1.49275e-09
-1.76592e-07
2.08322e-08
2.30847e-06
-9.77693e-06
-0.000196938
1.29743e-08
1.81117e-09
3.40752e-08
1.04359e-07
0.000125404
-0.000163262
4.25797e-08
-6.79765e-09
-5.46573e-05
1.76003e-06
6.77325e-06
-1.13928e-06
2.89362e-08
-0.000496844
1.44813e-08
1.54417e-07
4.22749e-07
1.54865e-08
4.32898e-08
-7.53181e-07
2.93481e-08
1.3565e-08
3.05116e-08
-1.75496e-09
1.36299e-08
6.13978e-08
5.68913e-08
1.37109e-08
-7.30214e-09
3.40147e-09
5.14481e-08
3.38844e-08
-2.35291e-08
-8.34003e-09
-6.05021e-09
-1.17749e-10
-1.9537e-08
4.16121e-09
8.4591e-09
8.84779e-10
-0.000147692
3.76651e-07
8.5914e-07
4.15466e-09
3.61513e-10
-9.26638e-08
3.41813e-08
-1.64637e-09
-0.000146516
-2.24499e-08
0.000759169
6.19339e-08
-3.14466e-07
2.88344e-08
-9.37281e-11
6.05595e-10
-1.10004e-08
7.90307e-05
1.4031e-10
-7.8144e-05
7.79251e-09
5.1487e-05
5.8528e-07
1.21068e-07
2.79564e-07
-1.19128e-09
-5.20315e-12
3.76593e-07
-2.27236e-09
1.17373e-08
-0.000431183
-1.81937e-08
5.58548e-10
5.00393e-08
1.34534e-09
-7.22875e-10
1.89977e-08
1.34326e-06
0.000156172
2.93443e-08
6.94534e-09
4.69392e-09
0.000114735
1.68169e-07
8.03864e-09
-1.46798e-08
-0.000456044
0.000141874
4.4389e-05
1.86796e-07
1.39844e-08
3.71672e-09
-8.00917e-10
2.20393e-07
2.77126e-08
7.8963e-06
1.75685e-07
0.000245497
-1.70511e-08
-1.90493e-09
5.85087e-05
-7.64331e-09
6.22568e-08
1.97437e-08
1.33651e-09
-6.74058e-08
8.89759e-07
2.4817e-08
0.000367816
0.000102959
1.31096e-07
3.86796e-09
6.28346e-09
6.59867e-07
-9.16914e-05
1.54564e-10
5.70476e-06
5.70346e-09
8.79956e-08
1.04489e-08
1.2309e-08
1.688e-05
1.87649e-08
-0.00180265
4.52312e-08
-1.54399e-10
9.03764e-10
-2.40231e-10
1.84639e-08
4.48508e-09
-2.95073e-06
1.05575e-08
7.17716e-09
0.000577348
0.000838489
1.33995e-07
8.30653e-08
2.05922e-08
5.35631e-08
-7.48779e-10
-1.86911e-07
-0.000154998
-2.05895e-07
2.94845e-09
-6.46966e-09
-2.9038e-05
6.89436e-08
6.30516e-05
-1.94057e-12
-2.05089e-09
0.000181539
7.48961e-08
2.87243e-08
5.27668e-05
-4.12586e-07
1.64318e-08
-6.78551e-07
6.0999e-10
1.71399e-08
3.43929e-09
-0.000128572
4.15099e-09
-3.53933e-10
-2.69092e-10
-0.0020215
2.08757e-08
6.80794e-07
-1.69587e-06
1.3566e-08
-9.56466e-08
2.114e-09
5.60888e-05
3.81066e-10
9.84882e-09
9.5536e-10
6.69703e-07
8.82611e-10
-1.08892e-06
5.40734e-05
0.00121797
3.21832e-08
8.57994e-05
9.7279e-05
2.3376e-08
0.000193556
0.000416874
9.65303e-05
9.84834e-05
0.000571591
7.75087e-05
2.44586e-07
-1.07158e-08
-0.000223588
7.35011e-08
0.000395317
9.01494e-09
-7.59422e-09
5.03256e-09
2.61476e-09
5.56738e-08
-1.92176e-07
0.000181927
-7.22163e-09
-1.61098e-09
4.64098e-05
4.28731e-07
-7.48713e-10
1.22379e-06
5.50675e-08
2.31499e-08
-9.91691e-06
1.068e-06
2.91436e-09
2.02179e-08
0.00011307
6.61738e-05
-2.88387e-08
1.18369e-08
-1.79354e-06
-1.25241e-07
0.000108114
0.000122538
6.55677e-07
5.87956e-09
2.93876e-08
-1.6038e-08
-2.36017e-09
-1.6795e-08
-1.34839e-09
6.15699e-09
2.2303e-08
0.000139288
-2.85846e-07
3.30289e-10
-3.37311e-07
-9.8806e-05
-1.25978e-08
1.34848e-08
-0.000150026
2.82444e-10
1.45762e-08
1.44054e-08
0.000145077
-5.1339e-10
1.32324e-08
0.000670536
-5.11764e-06
-1.41377e-05
-1.04077e-07
0.000360185
1.60636e-08
1.01996e-07
1.29218e-08
-3.4088e-09
1.1185e-08
-0.000114926
5.10938e-05
9.6215e-09
1.58279e-09
1.63127e-08
0.000258975
-2.00377e-08
6.21205e-08
-1.74818e-09
-1.68741e-08
1.66007e-06
1.21849e-08
2.8697e-08
-2.18482e-07
0.000309726
-2.65423e-09
-6.78409e-08
-1.33575e-08
-0.00014381
-9.45435e-05
-8.11728e-09
3.46637e-05
-1.29973e-08
6.99842e-08
-1.34673e-10
-0.000516669
5.23431e-11
5.48042e-08
3.92342e-08
-1.12257e-07
0.000357509
-4.19747e-05
1.0904e-06
5.77706e-05
2.82507e-09
-2.44417e-05
1.34957e-08
-1.28907e-08
0.000704051
2.22792e-08
1.16344e-11
-8.1325e-09
1.93485e-08
0.000143815
-1.95288e-09
4.61438e-10
1.05814e-07
-4.15695e-09
2.99233e-08
9.61703e-07
1.25477e-06
6.96534e-05
4.01139e-07
7.00173e-08
1.47478e-07
-5.90301e-05
1.45023e-07
0.00111259
7.12237e-05
4.33764e-08
1.14585e-08
-6.63239e-05
-2.39674e-05
6.13709e-09
1.07163e-07
6.38596e-08
8.11162e-09
5.6405e-08
2.12537e-08
1.15678e-08
-4.46613e-12
4.82548e-08
4.22738e-07
8.43945e-09
4.41331e-08
1.04325e-08
3.03172e-07
1.83369e-09
7.15237e-08
1.73855e-08
3.33255e-08
2.10732e-08
8.96399e-09
-4.99973e-06
-4.80613e-08
0.000528005
-3.33068e-09
-1.72266e-08
3.53318e-08
2.04685e-08
-1.78429e-08
-2.86753e-08
9.01256e-09
-1.81533e-07
1.00039e-08
0.000416847
6.68998e-09
1.31682e-07
-1.57926e-05
-1.86269e-05
1.6686e-08
-1.81019e-08
6.23438e-05
-2.79474e-09
6.60881e-09
0.000116555
-0.000129464
2.89036e-08
1.21537e-06
1.86591e-09
1.98651e-08
-7.28989e-05
-6.58708e-09
-1.1547e-09
-1.67868e-05
1.24517e-08
0.00117512
2.29671e-09
-1.43931e-09
8.02075e-09
1.26576e-06
0.000212817
1.93375e-08
1.13353e-08
1.55226e-08
1.22283e-08
1.41241e-09
2.35776e-06
3.2225e-08
7.12164e-11
0.00124075
2.7416e-07
-3.26163e-05
0.000382866
8.48062e-08
8.63107e-09
1.37422e-08
1.7547e-08
-2.77651e-07
-1.40592e-08
0.000222688
8.65316e-05
-4.93351e-09
0.00066179
-2.45324e-07
7.047e-08
1.59951e-06
2.85073e-07
-1.43032e-06
0.000433953
2.21091e-08
0.000533384
0.000316058
3.16223e-07
4.44371e-09
-4.20324e-05
2.29226e-08
9.22478e-09
3.88018e-08
0.000689277
3.11881e-08
8.20034e-09
3.10767e-07
2.02941e-07
1.6135e-08
1.69625e-05
-1.78279e-08
3.68749e-05
1.54119e-07
-1.84476e-05
4.37956e-07
-2.70574e-06
5.46659e-08
8.07432e-09
-1.84697e-08
0.00107812
-4.35497e-09
2.70261e-09
-2.7471e-10
-1.63098e-08
-6.49933e-09
-2.36442e-07
5.85747e-07
-1.56219e-06
1.1559e-06
-2.08193e-06
-0.00148903
1.99701e-06
-3.12853e-09
0.000206913
-0.000623802
-7.12049e-10
7.07309e-09
6.03689e-08
9.24094e-05
8.10686e-11
2.13153e-08
-1.80532e-06
-3.87392e-08
7.6519e-09
1.36522e-08
1.34709e-08
2.59342e-08
-4.8679e-08
7.78346e-10
0.000190842
-0.000417032
3.22348e-09
-5.24489e-05
3.30267e-07
0.0133991
-1.38579e-08
5.49049e-08
-0.000180347
0.000109779
6.1899e-07
-9.97931e-06
2.58155e-08
-1.03807e-10
1.79164e-08
-1.63382e-08
-1.54587e-09
6.08025e-09
1.6074e-07
1.55499e-08
9.1226e-08
1.15501e-09
5.20533e-08
1.27285e-08
1.16503e-07
3.72766e-07
8.49549e-05
2.16289e-08
-5.6559e-06
1.77795e-08
0.000541754
-8.56838e-09
-2.83509e-07
2.68492e-09
6.45047e-06
-0.000144456
8.70537e-07
1.65028e-08
-1.96975e-07
6.71293e-09
3.0885e-08
-0.000134431
1.4152e-08
9.56809e-09
1.96573e-08
5.26993e-08
0.00062428
1.52514e-08
-2.14943e-08
5.58745e-09
-6.43012e-09
6.36282e-07
-1.50924e-08
1.71819e-09
-1.48865e-08
-0.000175069
1.45866e-08
-8.00808e-05
0.00117532
4.19501e-08
0.00020277
1.19641e-08
1.94154e-09
3.66058e-08
-0.000124503
9.91399e-09
5.16474e-08
1.20617e-07
-0.138591
1.56362e-08
1.288e-05
4.10279e-08
-1.25425e-08
-8.49685e-10
-2.19119e-10
1.15212e-06
1.2318e-08
-5.96143e-11
-2.61919e-08
7.53602e-09
-5.62475e-09
3.5911e-08
2.00932e-07
6.72853e-07
0.000405695
2.35343e-08
1.31474e-07
-0.00068354
3.11349e-05
1.24257e-07
2.11003e-07
8.37048e-05
6.89997e-08
0.000954058
-3.46912e-08
0.00178066
3.43426e-07
1.14918e-08
1.45902e-10
9.61826e-10
1.50497e-08
-1.38553e-08
1.3504e-08
4.71607e-08
7.4223e-07
3.50246e-08
-2.26026e-07
-9.57682e-05
5.48654e-08
4.49236e-08
0.000329351
2.75005e-08
0.000221983
2.67928e-08
-6.07688e-07
1.42696e-08
-0.000148086
8.51449e-05
4.23982e-09
1.82462e-08
-0.000754767
-9.82035e-08
3.88493e-05
9.9379e-10
1.29675e-08
0.000734619
2.56186e-08
-2.59438e-07
-7.27888e-05
-2.50399e-09
5.89329e-08
3.13328e-08
4.59611e-10
1.76995e-09
-0.000419469
0.00010185
-1.03898e-08
3.84831e-08
2.28242e-08
7.6025e-09
-8.00834e-08
-0.000129311
8.01321e-09
1.86878e-06
0.00189253
4.56998e-05
9.80922e-05
2.8364e-08
1.20193e-06
4.32097e-08
-1.08789e-07
-5.50108e-09
1.88535e-07
-1.68168e-05
1.81346e-09
-3.37848e-08
0.00148165
2.69894e-06
-8.65207e-07
9.15068e-09
1.26008e-08
1.52462e-10
4.14158e-10
9.08035e-05
4.48655e-08
3.19766e-08
1.9166e-08
4.02241e-08
-1.08796e-10
2.3815e-08
-3.2532e-09
1.27611e-07
1.41899e-07
0.00137071
7.67863e-07
2.71088e-06
-2.42484e-05
1.75554e-08
6.50233e-08
4.54159e-09
-6.06808e-09
-0.000160562
-1.41356e-08
-1.74881e-08
5.0985e-08
-1.47987e-07
8.62569e-07
-0.00114048
6.06676e-06
-2.17152e-09
0.000148524
2.21575e-09
2.37654e-08
-5.29762e-07
-1.25449e-10
8.68498e-09
-9.53719e-07
-0.000392873
1.23417e-08
-0.000715962
-1.69335e-08
9.18163e-09
-1.51716e-08
-5.69851e-08
2.71748e-08
2.55e-08
0.000614934
-4.40863e-09
6.3763e-06
-2.08232e-05
1.40161e-10
1.02838e-07
8.28322e-10
2.06557e-05
-4.22916e-09
-1.79388e-09
-0.000478375
3.36534e-08
-8.75801e-08
-1.87361e-10
8.45015e-05
-1.75573e-07
1.22568e-06
5.68405e-09
-8.99543e-09
-0.000110784
8.05124e-09
-1.26955e-06
1.89723e-08
4.70517e-08
-1.13507e-07
1.25211e-10
0.000106413
-1.53002e-08
-2.06806e-07
3.93097e-08
1.80996e-06
-6.38272e-08
-4.82169e-08
9.01525e-09
0.00144459
9.2427e-08
0.000192245
1.6296e-07
1.9241e-07
-7.33135e-09
2.5607e-08
8.36429e-09
4.42717e-07
0.000763236
-1.94977e-08
1.01352e-09
-1.95284e-07
3.51625e-08
-0.00136959
1.84469e-08
-0.000310827
1.83343e-05
2.91354e-08
-4.30728e-09
5.37484e-09
-4.94167e-10
-1.06669e-09
-1.81759e-07
3.31294e-07
-2.52258e-08
1.11862e-08
1.46721e-09
-0.000136851
3.95295e-08
1.66529e-08
-0.000297775
5.17954e-09
-0.000183516
4.31137e-08
6.91326e-08
2.26567e-07
-7.37566e-05
0.000236391
0.000343905
0.000915235
1.49894e-08
-2.84287e-07
0.000104932
-2.82343e-06
1.99043e-09
6.31148e-09
1.08851e-07
-0.000446151
0.000213383
6.89982e-06
3.24246e-10
-8.06623e-07
6.67478e-08
5.8622e-05
-3.23659e-07
1.07214e-07
-1.12965e-07
-1.67355e-08
6.06271e-08
7.12728e-07
2.35965e-09
2.96347e-07
-0.000437032
1.43417e-09
0.000706552
1.7531e-10
1.57435e-08
-8.95511e-06
1.39794e-05
4.25798e-09
8.73464e-10
1.31807e-10
1.14526e-08
4.22538e-08
-7.4748e-07
1.37607e-08
-1.56337e-09
1.95443e-09
1.51532e-07
3.3685e-08
2.74682e-08
8.47357e-05
-5.0179e-09
-6.40289e-05
4.41739e-05
0.000396895
5.92357e-08
2.74361e-08
-2.37561e-05
7.08879e-08
-0.000323537
0.000281695
0.000396311
-1.5749e-08
7.58368e-05
0.000102929
2.9319e-09
-5.82138e-09
2.45082e-07
0.000113197
0.000339511
1.32325e-08
9.22218e-09
0.000297549
-0.00342661
-0.00141365
4.03976e-09
8.09086e-08
5.05725e-07
1.59381e-08
0.000397864
0.000114548
0.00428725
0.0193735
9.76474e-09
1.73023e-08
1.67887e-09
-1.26901e-07
0.000198827
1.16993e-07
4.17552e-08
-7.42049e-11
-2.12468e-07
9.97951e-05
1.50712e-07
0.000464134
6.79635e-05
0.000208796
-8.85199e-07
-6.92382e-09
1.78742e-09
-0.000225856
-1.60736e-09
7.91656e-09
-1.08961e-08
-2.56316e-07
6.79138e-08
7.96976e-05
2.80878e-07
-8.45703e-09
-0.000155521
4.46981e-08
-6.83706e-09
4.95935e-05
-3.6322e-07
-6.13102e-08
1.43411e-08
1.41635e-06
9.63767e-06
1.30137e-09
-0.00050289
0.00180314
0.00019196
-0.0106799
2.2585e-07
1.96278e-08
2.13711e-08
0.000182477
4.47765e-08
0.000460157
4.34114e-08
-0.00127996
-1.86292e-05
5.22142e-09
3.72565e-08
1.07968e-08
8.51004e-09
0.00016308
0.000210607
-1.3534e-09
8.50073e-05
1.03765e-07
1.10141e-08
9.08445e-09
7.57467e-09
7.90165e-07
-7.57106e-10
1.04386e-06
-3.66665e-07
1.56397e-08
1.98969e-09
-1.68956e-06
-0.000177319
7.05308e-08
-1.52991e-08
5.26551e-08
6.25914e-09
3.19062e-08
5.89362e-08
7.93871e-05
0.000227542
7.41157e-05
-9.35371e-10
2.45351e-09
-1.18363e-08
1.0771e-06
9.22468e-09
-1.50162e-08
-1.19512e-06
3.57668e-08
-0.000177765
1.07284e-08
-4.98922e-05
0.000221147
8.03048e-11
7.89966e-05
-2.03842e-07
1.23937e-07
-1.90607e-07
-1.06747e-08
0.00013997
4.63739e-08
1.65782e-09
-3.42544e-09
-1.46609e-09
-6.62251e-06
1.48799e-08
5.88012e-09
1.45039e-07
3.27957e-05
0.00021569
2.92459e-10
2.17523e-09
1.52811e-08
-5.10147e-09
6.77901e-07
8.48113e-09
8.13755e-09
3.7891e-08
-1.87815e-05
1.58974e-08
0.000701834
-6.62799e-10
-0.000202491
1.22956e-08
-5.87404e-10
0.000184658
1.99691e-06
3.05873e-06
-0.00120365
-2.92287e-07
7.14594e-08
-3.36482e-09
1.01774e-06
-7.55214e-11
9.44455e-09
9.23609e-07
3.92886e-07
0.000106698
0.000119495
-1.46172e-07
-0.000399362
3.74172e-07
0.000167041
-3.04306e-09
5.12946e-08
6.22045e-08
-0.000126936
4.95356e-08
-0.000112917
0.00022398
1.22012e-08
6.20137e-10
1.88061e-08
0.000115687
7.80858e-06
3.94995e-08
2.1918e-09
-2.74716e-08
3.01522e-08
6.69916e-08
3.50329e-05
5.00124e-07
1.18209e-09
-1.60043e-05
4.1292e-08
-0.000173558
-2.74431e-08
-1.87403e-08
2.911e-08
-0.000170229
1.76419e-09
8.55689e-09
0.000681248
-1.95991e-09
8.43009e-09
-1.52465e-06
-1.78319e-06
5.59569e-09
0.000174587
3.771e-08
-2.45311e-05
1.63742e-07
-7.31505e-08
2.57407e-08
2.59574e-05
5.40557e-09
-8.10586e-08
-3.31892e-08
0.00017246
4.6501e-08
1.97922e-08
4.42289e-08
3.96064e-07
-6.4189e-11
0.000191615
5.53612e-08
1.8989e-08
6.25302e-08
1.5884e-09
7.9149e-11
-7.93309e-07
-4.36889e-09
4.19848e-10
1.93233e-08
-2.19172e-07
2.97128e-09
8.84401e-09
1.0125e-07
-9.35674e-07
1.74415e-07
-2.5531e-11
7.68536e-07
-9.94537e-08
8.48565e-07
9.97358e-08
-6.79448e-07
3.80458e-07
0.00133357
4.36462e-07
6.73964e-11
-0.000637043
-0.00062736
5.9029e-11
3.53709e-08
-1.54269e-09
1.2783e-05
2.001e-07
1.56417e-08
-4.00305e-07
-0.000137099
3.84209e-09
4.21398e-09
-0.000932505
0.000237586
4.02835e-07
-1.31494e-09
0.00401982
-0.000107296
-6.33416e-07
-6.6928e-09
-0.000117985
6.25418e-07
8.69805e-09
0.000111762
5.48302e-08
-1.82766e-09
5.83798e-08
-5.23377e-07
7.04555e-08
-0.000696734
-7.72162e-05
8.35862e-11
-1.62151e-05
4.58849e-07
0.000113083
-1.11137e-09
1.27916e-06
-1.20892e-09
1.77483e-08
0.000340466
0.000278971
-8.14009e-06
0.000841319
-7.41879e-08
9.04621e-09
3.51912e-08
8.9841e-05
0.000230598
-1.53508e-09
-9.9437e-09
-3.74848e-08
9.70642e-09
6.97095e-08
0.000790844
-0.000409768
2.1914e-08
1.75364e-08
1.16064e-08
0.000214695
1.33095e-08
2.35781e-08
-8.87183e-10
-1.29172e-08
8.53147e-07
0.000192029
-2.70956e-05
1.06059e-06
1.6143e-09
-1.25928e-05
2.02219e-08
-4.16601e-07
0.000427046
6.82028e-05
-3.53416e-09
-7.11395e-11
1.18157e-07
-1.00328e-08
5.77254e-09
0.000488557
-0.000142575
3.78266e-09
-2.73729e-09
1.34663e-09
-1.70276e-10
-2.71114e-06
1.08167e-08
-0.000955847
5.02012e-08
3.97262e-07
-4.70146e-09
-8.2474e-08
-5.95884e-05
7.35224e-08
2.20023e-07
0.000151896
1.25877e-08
-0.000160649
-4.15266e-08
-4.1602e-07
-5.92583e-08
-2.9453e-05
0.000112771
3.15688e-07
1.61915e-08
-2.22623e-07
1.0307e-08
-1.64007e-08
1.37015e-08
-0.00116892
2.5102e-08
-0.00639764
-0.000209354
3.05105e-08
1.18628e-09
5.40395e-06
5.95868e-08
5.02993e-11
1.69319e-06
7.69132e-10
1.35092e-07
6.45848e-08
1.42058e-08
0.000348381
-1.80772e-08
1.5786e-05
4.40479e-09
6.01343e-09
0.000174263
0.00035909
-9.74257e-09
-1.73529e-07
1.28702e-07
-6.77784e-08
1.82177e-07
4.55669e-08
3.55514e-08
5.35904e-08
-8.00894e-06
9.95944e-09
-0.0012521
3.20597e-07
-0.000156235
1.13453e-06
2.85737e-08
0.000578171
-3.94793e-10
0.000600645
-4.12409e-08
4.31747e-05
-0.0016294
0.000469356
-3.11148e-05
-2.43606e-05
1.93721e-07
1.60605e-08
0.000671645
-6.30846e-09
-2.40076e-09
7.11748e-05
0.00133851
1.63885e-08
3.16936e-08
4.03061e-08
4.08517e-08
7.58163e-08
-0.000156236
6.47683e-11
6.82687e-08
1.0438e-07
-1.40803e-08
2.11971e-09
2.97538e-07
3.93769e-09
-0.00099304
8.6326e-09
2.64684e-07
5.5787e-08
6.95784e-08
8.67023e-08
0.000333205
1.35379e-08
2.89753e-09
-1.75581e-06
0.000681311
0.00074074
2.04922e-08
-0.000845596
6.19535e-08
-1.83291e-05
-5.01053e-10
-4.81461e-09
0.000350367
2.68344e-07
9.30385e-05
2.43672e-05
-1.18686e-07
-0.000195425
1.75574e-09
5.01368e-09
-3.93189e-05
1.48341e-06
-2.09006e-08
0.000607001
2.69413e-08
-1.30276e-07
-8.18807e-08
4.32074e-08
-7.85343e-09
0.00117897
0.00192635
3.31886e-05
-8.24021e-06
4.51697e-08
-2.70281e-09
0.000100449
-1.53509e-08
1.64544e-08
1.06908e-07
-1.17186e-09
2.58345e-07
0.000142565
0.000219864
0.000163708
1.43958e-07
2.13315e-08
-5.39249e-05
1.6341e-09
8.35964e-08
7.1872e-10
0.000478799
-1.45176e-08
4.41199e-07
0.000270744
-2.95319e-08
3.44105e-10
-4.75556e-08
-7.6913e-05
3.68326e-10
-4.70929e-07
-5.0401e-10
0.000433761
-8.4488e-05
-2.00729e-07
1.09316e-06
8.43365e-10
1.80312e-06
2.3889e-07
6.51015e-08
-1.09423e-09
1.49347e-08
7.07264e-10
1.52206e-07
1.21823e-09
2.7794e-07
-2.80266e-09
2.37478e-09
6.51326e-05
-3.57661e-09
3.06358e-08
4.13423e-08
-8.93255e-11
0.000326299
-7.06916e-09
-1.26066e-08
0.000160166
2.33517e-07
-0.00149269
5.23379e-09
5.04905e-05
2.60687e-07
0.000463763
-1.6922e-08
4.07032e-08
7.93017e-09
6.55509e-08
1.57189e-07
3.08581e-07
-3.61377e-06
-0.000133654
2.79755e-06
-0.0010231
2.48513e-08
1.16598e-07
-9.38897e-08
-0.000997851
3.04022e-08
7.03615e-09
2.58681e-09
1.44438e-07
-1.77439e-07
0.000119594
5.31112e-08
0.000875333
-0.000471963
7.21196e-07
1.52132e-08
0.000311598
-1.57695e-07
9.88897e-09
1.10257e-11
1.75008e-08
0.00197933
-1.88136e-09
0.000200544
-5.48461e-09
5.66759e-08
9.58211e-06
1.05816e-07
-7.90276e-09
1.01229e-09
-0.00018445
-6.03466e-09
-1.40451e-08
5.30478e-08
-4.56408e-09
4.00783e-08
-8.9254e-10
1.25014e-06
2.16039e-07
3.45593e-07
-1.92118e-06
0.000132449
0.000303704
-0.000135135
3.12195e-10
1.83134e-08
-4.40147e-08
2.24498e-08
6.34445e-07
-0.00111702
0.000256953
-1.12375e-09
-4.38802e-09
-5.52939e-05
-4.00324e-05
-1.3029e-09
2.07849e-09
1.76859e-08
0.000159381
-0.000319701
3.45331e-08
9.07906e-09
2.50741e-09
-4.11581e-07
1.14596e-07
4.12264e-07
-1.4007e-07
3.09507e-07
1.59338e-09
5.07916e-08
-2.48546e-05
3.50933e-09
1.55361e-08
2.71896e-08
0.000698127
-2.34032e-08
8.86871e-05
2.25189e-09
0.00029818
4.32581e-08
1.41291e-07
3.38786e-09
7.2134e-09
-1.68252e-06
-0.000524114
1.52928e-06
2.71367e-05
0.000160486
8.5255e-09
1.11544e-05
1.42025e-06
8.18846e-10
0.00138258
-1.49283e-05
-2.05464e-07
2.88053e-11
0.000188056
0.000114297
1.70721e-08
-8.27773e-08
0.000231793
2.07262e-08
1.97927e-08
1.95028e-09
1.21526e-08
4.28846e-08
3.85545e-08
-6.9718e-07
2.25984e-07
7.93432e-08
-6.18288e-10
1.41519e-08
0.00098667
-5.48749e-09
6.60485e-08
7.26112e-08
-8.71126e-10
3.24601e-08
-6.8463e-09
-1.36809e-08
-1.31634e-05
-1.80375e-09
5.60674e-06
-8.22949e-09
0.000986621
0.000339385
9.36038e-09
2.13726e-09
-1.02443e-11
-0.000140773
-1.22525e-09
1.02393e-08
7.64566e-09
1.03379e-06
-0.00155987
6.41529e-08
0.000375615
-7.2907e-08
-3.17459e-05
-8.78902e-10
5.60125e-08
1.3043e-08
3.64957e-09
7.71026e-05
0.000307337
4.86626e-05
-1.91004e-09
1.90312e-08
1.86328e-08
0.000133157
3.90598e-05
1.82375e-05
4.28785e-08
1.98815e-09
-0.000136954
9.80067e-09
5.79909e-09
1.59821e-05
1.97738e-07
4.19114e-08
-4.64843e-07
-4.68161e-07
-4.63539e-09
3.77448e-08
-0.000191802
4.32224e-08
-1.5694e-09
7.45629e-05
-9.67939e-07
-8.03043e-10
0.000106413
6.26237e-10
2.31816e-09
8.07894e-07
1.10909e-07
4.06331e-05
-1.13916e-09
1.86082e-09
1.75236e-08
2.19777e-06
-3.10003e-09
2.35932e-06
0.000660713
0.000292656
2.97939e-05
0.000136523
1.27621e-07
-0.000122146
8.47761e-07
1.89646e-09
-1.01442e-07
6.54126e-07
6.77802e-09
-7.43902e-08
-4.46403e-05
0.000126541
0.000106963
5.20742e-07
1.8474e-08
-1.29887e-07
1.16486e-09
9.10831e-05
5.99024e-08
2.11956e-08
3.24408e-08
1.71747e-08
5.29898e-09
-1.29009e-07
0.000117228
-2.29157e-10
2.15134e-08
2.40359e-09
-0.000136891
2.38848e-08
-0.000123138
-0.0013328
-7.13789e-05
-5.42994e-10
4.94634e-09
2.35893e-05
-7.72894e-06
3.02153e-09
9.78107e-07
8.58083e-10
9.5131e-08
-1.86218e-07
-1.66027e-09
1.04969e-07
0.00195174
-1.03599e-09
1.23533e-08
4.48327e-06
-9.07438e-06
3.66809e-08
-1.82722e-08
2.14321e-08
2.58903e-05
-6.31341e-09
1.71236e-09
1.22889e-08
2.08933e-08
-4.89403e-06
4.65746e-05
0.000256977
3.45692e-07
-0.000148713
-0.00140938
-1.81859e-09
7.19232e-08
-1.90554e-09
-5.16253e-06
1.99332e-08
-3.81964e-08
4.95398e-09
6.69461e-09
1.02836e-08
9.24564e-06
1.03093e-08
-2.73533e-06
7.99121e-09
3.05107e-07
1.56051e-08
3.6468e-07
-4.64595e-09
6.84697e-08
1.05396e-07
3.10048e-07
0.000288025
8.14977e-09
0.000234249
2.45778e-08
-5.99873e-08
-1.89411e-09
1.22125e-08
0.000168324
4.13243e-05
1.93907e-08
3.35445e-09
-5.62609e-06
-1.03204e-05
-2.21902e-07
0.000388531
-2.23679e-09
-4.72599e-05
7.39255e-08
-1.39114e-09
0.00160401
3.7625e-09
-0.000114398
-1.66226e-09
8.05687e-09
2.94954e-09
-6.72224e-06
0.000287792
-1.80482e-09
1.9315e-06
2.03067e-06
1.35412e-09
4.9086e-09
6.23748e-09
2.41589e-06
0.000119393
4.23779e-08
2.00657e-08
4.08499e-08
-5.93436e-09
1.88747e-08
2.98163e-08
-1.45415e-09
-6.71341e-07
1.56363e-08
2.88683e-07
1.12199e-05
4.31492e-08
-7.73858e-10
-0.00165634
-8.92592e-09
-5.61695e-09
1.36619e-08
6.7312e-08
-0.0067762
2.18395e-08
0.000436243
3.40302e-08
1.10731e-08
7.06408e-08
4.34498e-08
4.47397e-08
-0.000133605
2.8002e-07
6.80672e-08
7.19436e-05
9.91122e-09
-3.13615e-07
-2.87971e-07
-2.04501e-07
4.24402e-09
2.31859e-08
-1.07796e-09
7.92265e-07
1.8618e-07
1.57607e-07
-3.21302e-05
0.000105359
-0.00125752
-5.08502e-11
-5.38441e-06
0.000267508
0.000220282
7.95096e-09
7.57129e-09
3.32014e-08
0.000193959
-8.97397e-09
8.81664e-08
7.57213e-05
-0.000110318
0.000235328
6.26357e-07
8.57671e-07
-8.8084e-06
-3.9554e-05
4.78289e-09
-0.000950192
-3.19054e-06
7.27297e-09
2.63179e-08
-2.01551e-08
0.000133235
-7.37973e-09
0.00187347
3.98761e-09
0.00206738
-4.65498e-09
4.10809e-05
0.000234483