/*--------------------------------*- C++ -*----------------------------------*\
| =========                 |                                                 |
| \\      /  F ield         | OpenFOAM: The Open Source CFD Toolbox           |
|  \\    /   O peration     | Version:  v2012                                 |
|   \\  /    A nd           | Website:  www.openfoam.com                      |
|    \\/     M anipulation  |                                                 |
\*---------------------------------------------------------------------------*/
FoamFile
{
    version     2.0;
    format      ascii;
    class       volVectorField;
    location    "700";
    object      cellDisplacement;
}
// * * * * * * * * * * * * * * * * * * * * * * * * * * * * * * * * * * * * * //

dimensions      [0 1 0 0 0 0 0];


internalField   nonuniform List<vector> 
13917
(
(0 -0.0306027 0)
(0 -0.0278597 0)
(0 -0.0305835 0)
(0 -0.0271285 0)
(0 -0.0236995 0)
(0 -0.0277406 0)
(0 -0.0295709 0)
(0 -0.02866 0)
(0 -0.0295651 0)
(0 -0.0306028 0)
(0 -0.0286286 0)
(0 -0.024969 0)
(0 -0.00081883 0)
(0 -0.0291195 0)
(0 -0.0266339 0)
(0 -0.0306027 0)
(0 -0.000650378 0)
(0 -0.028688 0)
(0 -0.0305405 0)
(0 -0.0306027 0)
(0 -0.028987 0)
(0 -0.0214971 0)
(0 -0.0302976 0)
(0 -0.0213056 0)
(0 -0.0280667 0)
(0 -0.0289311 0)
(0 -0.0301196 0)
(0 -0.0306028 0)
(0 -0.0288182 0)
(0 -0.000446054 0)
(0 -0.0306028 0)
(0 -0.0304753 0)
(0 -0.0269241 0)
(0 -0.0306025 0)
(0 -0.0145699 0)
(0 -0.028613 0)
(0 -0.0274757 0)
(0 -0.000943685 0)
(0 -0.0296106 0)
(0 -0.0296118 0)
(0 -0.000200347 0)
(0 -0.0101995 0)
(0 -0.0291486 0)
(0 -0.0305449 0)
(0 -0.0305411 0)
(0 -0.0304804 0)
(0 -0.0289431 0)
(0 -0.0305981 0)
(0 -0.0279949 0)
(0 -0.0147262 0)
(0 -0.0247383 0)
(0 -0.0304633 0)
(0 -0.0306028 0)
(0 -0.0236324 0)
(0 -0.0242406 0)
(0 -0.0304694 0)
(0 -0.0306028 0)
(0 -0.0302837 0)
(0 -0.00994823 0)
(0 -0.0304733 0)
(0 -0.0305575 0)
(0 -0.0165142 0)
(0 -6.83888e-05 0)
(0 -0.0279634 0)
(0 -0.0305975 0)
(0 -0.000677874 0)
(0 -0.0287781 0)
(0 -0.0285313 0)
(0 -0.0287145 0)
(0 -0.0306028 0)
(0 -0.0305948 0)
(0 -0.0306026 0)
(0 -0.0249582 0)
(0 -0.00983723 0)
(0 -0.0290776 0)
(0 -0.0280657 0)
(0 -0.0234823 0)
(0 -0.00958611 0)
(0 -0.0279747 0)
(0 -0.027075 0)
(0 -0.0245112 0)
(0 -0.000757477 0)
(0 -0.0247228 0)
(0 -0.0305971 0)
(0 -0.00804599 0)
(0 -0.0292187 0)
(0 -0.0304659 0)
(0 -0.00412956 0)
(0 -0.0295524 0)
(0 -0.000777925 0)
(0 -0.00126844 0)
(0 -0.0292208 0)
(0 -0.0279037 0)
(0 -0.0127722 0)
(0 -0.0254255 0)
(0 -0.0288504 0)
(0 -0.0299272 0)
(0 -0.00104235 0)
(0 -0.00464949 0)
(0 -0.0299338 0)
(0 -0.000193059 0)
(0 -0.000235044 0)
(0 -0.0247464 0)
(0 -0.00189943 0)
(0 -0.023269 0)
(0 -0.030599 0)
(0 -0.030601 0)
(0 -0.0163591 0)
(0 -0.0103056 0)
(0 -0.0301283 0)
(0 -0.00534086 0)
(0 -0.0306025 0)
(0 -0.0288912 0)
(0 -0.0305984 0)
(0 -0.0305973 0)
(0 -0.028165 0)
(0 -0.0305346 0)
(0 -0.000803702 0)
(0 -0.0305758 0)
(0 -0.0236776 0)
(0 -0.000940535 0)
(0 -0.00945444 0)
(0 -0.0288088 0)
(0 -0.0304876 0)
(0 -0.0306028 0)
(0 -0.0305979 0)
(0 -0.0278524 0)
(0 -0.0291193 0)
(0 -0.0154833 0)
(0 -0.030495 0)
(0 -0.0301097 0)
(0 -0.0303289 0)
(0 -0.0306018 0)
(0 -0.0281158 0)
(0 -0.0305076 0)
(0 -0.0300982 0)
(0 -0.0305409 0)
(0 -0.0306028 0)
(0 -0.028922 0)
(0 -0.000509754 0)
(0 -0.0253502 0)
(0 -0.00946472 0)
(0 -0.0305987 0)
(0 -0.0176257 0)
(0 -0.0241257 0)
(0 -0.0105297 0)
(0 -0.030595 0)
(0 -0.0207701 0)
(0 -0.0305994 0)
(0 -0.0239328 0)
(0 -0.0294517 0)
(0 -0.000208733 0)
(0 -0.0238209 0)
(0 -0.0237507 0)
(0 -0.0299416 0)
(0 -0.0213135 0)
(0 -0.00218394 0)
(0 -0.030602 0)
(0 -0.000387772 0)
(0 -0.000658305 0)
(0 -0.0141624 0)
(0 -0.0305906 0)
(0 -0.0275947 0)
(0 -0.0252684 0)
(0 -0.0305848 0)
(0 -0.0299624 0)
(0 -0.0306028 0)
(0 -0.030587 0)
(0 -9.16741e-05 0)
(0 -0.0289582 0)
(0 -0.0216144 0)
(0 -0.0306017 0)
(0 -0.0295456 0)
(0 -0.0305506 0)
(0 -0.0303092 0)
(0 -0.000332389 0)
(0 -0.0271582 0)
(0 -0.0304669 0)
(0 -0.0300804 0)
(0 -0.0276773 0)
(0 -0.0290717 0)
(0 -0.021371 0)
(0 -0.0246937 0)
(0 -0.0305337 0)
(0 -0.0305766 0)
(0 -0.0303168 0)
(0 -0.0244723 0)
(0 -0.0305301 0)
(0 -0.000551366 0)
(0 -0.0291936 0)
(0 -0.0302988 0)
(0 -0.0305342 0)
(0 -0.0305223 0)
(0 -0.0306028 0)
(0 -0.0129314 0)
(0 -0.0306028 0)
(0 -0.0290839 0)
(0 -0.0306015 0)
(0 -0.014278 0)
(0 -0.0211628 0)
(0 -0.0288312 0)
(0 -0.0306027 0)
(0 -0.0306028 0)
(0 -0.0269109 0)
(0 -0.0301966 0)
(0 -0.028375 0)
(0 -0.0295129 0)
(0 -0.00960053 0)
(0 -0.0304714 0)
(0 -0.0244419 0)
(0 -0.0122212 0)
(0 -0.0238204 0)
(0 -0.0239276 0)
(0 -0.0305986 0)
(0 -0.0305016 0)
(0 -0.0289754 0)
(0 -0.0305984 0)
(0 -0.00239305 0)
(0 -0.00539811 0)
(0 -0.005321 0)
(0 -0.0305895 0)
(0 -0.0305267 0)
(0 -0.0305313 0)
(0 -0.0102819 0)
(0 -4.62271e-05 0)
(0 -0.0301033 0)
(0 -0.0306028 0)
(0 -0.00490986 0)
(0 -0.00471736 0)
(0 -0.000185056 0)
(0 -0.005491 0)
(0 -0.00541152 0)
(0 -0.0306026 0)
(0 -0.0305973 0)
(0 -0.0229063 0)
(0 -0.000196585 0)
(0 -0.0303995 0)
(0 -0.0306027 0)
(0 -0.00051609 0)
(0 -0.00956053 0)
(0 -0.030178 0)
(0 -0.0305989 0)
(0 -0.0305322 0)
(0 -0.0305991 0)
(0 -0.0303727 0)
(0 -0.0178084 0)
(0 -0.0305864 0)
(0 -0.0304158 0)
(0 -0.0288606 0)
(0 -0.0304785 0)
(0 -0.0268078 0)
(0 -0.0305982 0)
(0 -0.0239654 0)
(0 -0.0299538 0)
(0 -0.0302838 0)
(0 -0.0230202 0)
(0 -8.79639e-05 0)
(0 -0.0279612 0)
(0 -0.0226564 0)
(0 -0.0133508 0)
(0 -0.0306028 0)
(0 -0.0284704 0)
(0 -0.010137 0)
(0 -0.00461353 0)
(0 -0.0215978 0)
(0 -0.0047168 0)
(0 -0.0240081 0)
(0 -0.0015274 0)
(0 -0.0300532 0)
(0 -0.0103015 0)
(0 -0.0306028 0)
(0 -0.0306005 0)
(0 -0.0225017 0)
(0 -0.0226665 0)
(0 -0.0304718 0)
(0 -0.00431606 0)
(0 -0.029892 0)
(0 -0.0306027 0)
(0 -0.00438793 0)
(0 -0.0306027 0)
(0 -0.013043 0)
(0 -0.0305886 0)
(0 -0.000263338 0)
(0 -0.0262363 0)
(0 -0.0232166 0)
(0 -0.0170698 0)
(0 -0.0305515 0)
(0 -0.00151358 0)
(0 -0.029977 0)
(0 -0.0293108 0)
(0 -0.0284481 0)
(0 -0.0107239 0)
(0 -0.0302021 0)
(0 -0.0306028 0)
(0 -0.00071118 0)
(0 -0.0303184 0)
(0 -0.0230597 0)
(0 -0.0281663 0)
(0 -0.0234758 0)
(0 -0.0279876 0)
(0 -0.0128287 0)
(0 -0.00186124 0)
(0 -0.0304495 0)
(0 -0.0202059 0)
(0 -0.0299236 0)
(0 -0.0278987 0)
(0 -0.00888501 0)
(0 -0.0306019 0)
(0 -0.0306027 0)
(0 -0.0145385 0)
(0 -0.00372665 0)
(0 -0.0282145 0)
(0 -0.0239238 0)
(0 -0.0305649 0)
(0 -0.0306013 0)
(0 -0.0305508 0)
(0 -0.000421589 0)
(0 -0.0303215 0)
(0 -0.0224074 0)
(0 -0.0305962 0)
(0 -0.0240852 0)
(0 -0.0305831 0)
(0 -0.00134846 0)
(0 -0.0264775 0)
(0 -0.0301428 0)
(0 -0.0216898 0)
(0 -0.0279305 0)
(0 -0.0305297 0)
(0 -0.00057509 0)
(0 -0.0306016 0)
(0 -0.00644095 0)
(0 -0.0303257 0)
(0 -0.0042315 0)
(0 -0.0306028 0)
(0 -0.00804233 0)
(0 -0.029894 0)
(0 -0.0284716 0)
(0 -0.000312433 0)
(0 -0.000782353 0)
(0 -0.0304841 0)
(0 -0.030598 0)
(0 -0.0253109 0)
(0 -0.0215626 0)
(0 -0.0306024 0)
(0 -0.0305983 0)
(0 -0.0305638 0)
(0 -0.0290526 0)
(0 -0.00426442 0)
(0 -0.0231788 0)
(0 -0.0305991 0)
(0 -0.0303354 0)
(0 -0.00436207 0)
(0 -0.0233006 0)
(0 -0.0242141 0)
(0 -0.0294414 0)
(0 -0.0299225 0)
(0 -0.0305019 0)
(0 -0.0302823 0)
(0 -0.0298538 0)
(0 -0.0303119 0)
(0 -0.0306026 0)
(0 -0.0158429 0)
(0 -0.0253817 0)
(0 -0.0237919 0)
(0 -0.0305682 0)
(0 -0.000457875 0)
(0 -0.0306028 0)
(0 -0.0303021 0)
(0 -0.00543637 0)
(0 -0.0244695 0)
(0 -0.0303232 0)
(0 -0.00383564 0)
(0 -0.0276942 0)
(0 -0.00956898 0)
(0 -0.0305348 0)
(0 -0.0304789 0)
(0 -0.0285298 0)
(0 -0.0228183 0)
(0 -0.0305863 0)
(0 -0.00427718 0)
(0 -0.0305827 0)
(0 -0.0305281 0)
(0 -0.00945775 0)
(0 -0.0277963 0)
(0 -0.0235183 0)
(0 -0.00487823 0)
(0 -0.00962016 0)
(0 -0.0306026 0)
(0 -0.0048482 0)
(0 -0.0274802 0)
(0 -0.0301379 0)
(0 -0.0297845 0)
(0 -0.0265035 0)
(0 -0.0305796 0)
(0 -0.0305882 0)
(0 -0.0272812 0)
(0 -0.0305518 0)
(0 -0.0231107 0)
(0 -0.0297592 0)
(0 -0.0305814 0)
(0 -0.00570686 0)
(0 -0.0295777 0)
(0 -0.0279379 0)
(0 -0.0167473 0)
(0 -0.00963784 0)
(0 -0.0163454 0)
(0 -0.0305419 0)
(0 -0.0299938 0)
(0 -0.0249548 0)
(0 -0.0164526 0)
(0 -0.0207643 0)
(0 -0.0302618 0)
(0 -0.0282859 0)
(0 -0.0042173 0)
(0 -0.00010492 0)
(0 -0.030562 0)
(0 -0.0303004 0)
(0 -0.0174997 0)
(0 -0.027366 0)
(0 -0.030539 0)
(0 -0.0298177 0)
(0 -0.000653407 0)
(0 -0.0305461 0)
(0 -0.0305951 0)
(0 -0.00671953 0)
(0 -0.0041986 0)
(0 -0.0286956 0)
(0 -0.00907286 0)
(0 -0.00429621 0)
(0 -0.0230971 0)
(0 -0.00428385 0)
(0 -0.00655873 0)
(0 -0.0305907 0)
(0 -0.023393 0)
(0 -0.0297232 0)
(0 -0.0306028 0)
(0 -0.0303004 0)
(0 -0.012622 0)
(0 -0.023511 0)
(0 -0.0305816 0)
(0 -0.0287939 0)
(0 -0.0306028 0)
(0 -0.00423855 0)
(0 -0.0162278 0)
(0 -0.00442617 0)
(0 -0.00555838 0)
(0 -0.0273288 0)
(0 -0.0235357 0)
(0 -0.0305319 0)
(0 -0.00965922 0)
(0 -0.0305992 0)
(0 -0.0160528 0)
(0 -0.0301497 0)
(0 -0.00998978 0)
(0 -0.0241738 0)
(0 -0.0303795 0)
(0 -0.0305604 0)
(0 -0.0240149 0)
(0 -0.0299035 0)
(0 -0.0131486 0)
(0 -0.00366136 0)
(0 -0.0204228 0)
(0 -0.0236431 0)
(0 -0.0114029 0)
(0 -0.00303571 0)
(0 -0.030602 0)
(0 -0.030557 0)
(0 -0.0109879 0)
(0 -0.0302285 0)
(0 -0.0305598 0)
(0 -0.00331638 0)
(0 -0.0303411 0)
(0 -0.0305064 0)
(0 -0.0305868 0)
(0 -0.0297121 0)
(0 -0.0305989 0)
(0 -0.00531791 0)
(0 -0.00534423 0)
(0 -0.0236617 0)
(0 -0.000568059 0)
(0 -0.010172 0)
(0 -0.0266258 0)
(0 -0.0305605 0)
(0 -0.00123219 0)
(0 -0.0233892 0)
(0 -0.0255009 0)
(0 -0.0295584 0)
(0 -0.0291327 0)
(0 -0.0305707 0)
(0 -0.0303862 0)
(0 -0.011157 0)
(0 -0.0227551 0)
(0 -0.0287647 0)
(0 -0.0299399 0)
(0 -0.0248057 0)
(0 -0.0291268 0)
(0 -0.0300951 0)
(0 -0.0293279 0)
(0 -0.0305766 0)
(0 -0.0073487 0)
(0 -0.0299644 0)
(0 -0.0304753 0)
(0 -0.00705376 0)
(0 -0.0306024 0)
(0 -0.00368588 0)
(0 -0.00545186 0)
(0 -0.0302843 0)
(0 -0.00432267 0)
(0 -0.00258933 0)
(0 -0.0304349 0)
(0 -0.0306021 0)
(0 -0.0301169 0)
(0 -0.0136525 0)
(0 -0.0277104 0)
(0 -0.0116067 0)
(0 -0.0305467 0)
(0 -0.030454 0)
(0 -0.0244207 0)
(0 -0.023975 0)
(0 -0.0125362 0)
(0 -0.0302653 0)
(0 -0.0185052 0)
(0 -0.0155285 0)
(0 -0.000554009 0)
(0 -0.0208622 0)
(0 -0.0163186 0)
(0 -0.0189138 0)
(0 -0.029577 0)
(0 -0.0010538 0)
(0 -0.0303884 0)
(0 -0.00649739 0)
(0 -0.0211767 0)
(0 -0.0278529 0)
(0 -0.030602 0)
(0 -0.00302481 0)
(0 -0.0288721 0)
(0 -0.0134937 0)
(0 -0.0301218 0)
(0 -0.0304071 0)
(0 -0.0292672 0)
(0 -0.030303 0)
(0 -0.0299812 0)
(0 -0.0275246 0)
(0 -0.0287333 0)
(0 -0.0306013 0)
(0 -0.0305921 0)
(0 -0.0306027 0)
(0 -0.0136107 0)
(0 -0.019981 0)
(0 -0.0112375 0)
(0 -0.0206143 0)
(0 -0.0305981 0)
(0 -0.00443182 0)
(0 -0.0241551 0)
(0 -0.0290973 0)
(0 -0.0306004 0)
(0 -0.0299273 0)
(0 -0.0291406 0)
(0 -0.0306025 0)
(0 -0.0109356 0)
(0 -0.0304749 0)
(0 -0.00127092 0)
(0 -0.0132743 0)
(0 -0.0306008 0)
(0 -0.00423434 0)
(0 -0.030585 0)
(0 -8.87121e-05 0)
(0 -0.00241475 0)
(0 -0.0203257 0)
(0 -0.0305685 0)
(0 -0.0188399 0)
(0 -0.0041523 0)
(0 -0.0305472 0)
(0 -0.0303226 0)
(0 -0.0218981 0)
(0 -0.0305941 0)
(0 -0.0306018 0)
(0 -0.0305866 0)
(0 -0.00287483 0)
(0 -0.0306028 0)
(0 -0.000212357 0)
(0 -0.0305462 0)
(0 -0.0207983 0)
(0 -0.013397 0)
(0 -0.00407527 0)
(0 -0.000208324 0)
(0 -0.0300672 0)
(0 -0.0289917 0)
(0 -0.00431735 0)
(0 -0.00124509 0)
(0 -0.00161865 0)
(0 -0.0305927 0)
(0 -0.0154674 0)
(0 -0.0304522 0)
(0 -0.0230944 0)
(0 -0.00395172 0)
(0 -0.000481048 0)
(0 -0.030479 0)
(0 -0.0305814 0)
(0 -0.0306024 0)
(0 -0.030467 0)
(0 -0.0295782 0)
(0 -0.0305735 0)
(0 -0.0306027 0)
(0 -0.00989083 0)
(0 -0.0305609 0)
(0 -0.00159165 0)
(0 -0.0305475 0)
(0 -0.0206366 0)
(0 -0.0305864 0)
(0 -0.0158709 0)
(0 -0.0191883 0)
(0 -0.0243942 0)
(0 -0.0217332 0)
(0 -0.0300843 0)
(0 -0.0305976 0)
(0 -0.00113966 0)
(0 -0.0300219 0)
(0 -0.0153418 0)
(0 -0.000144622 0)
(0 -0.0306026 0)
(0 -0.0298835 0)
(0 -0.0155602 0)
(0 -0.0305093 0)
(0 -0.00960341 0)
(0 -0.0126043 0)
(0 -0.000151441 0)
(0 -0.0306024 0)
(0 -0.0153087 0)
(0 -0.0228848 0)
(0 -0.00434042 0)
(0 -0.0153838 0)
(0 -0.0305656 0)
(0 -0.000200303 0)
(0 -0.0305136 0)
(0 -0.000808782 0)
(0 -0.00796591 0)
(0 -0.0305527 0)
(0 -0.0304623 0)
(0 -0.0241581 0)
(0 -0.0306028 0)
(0 -0.0305837 0)
(0 -0.027998 0)
(0 -0.0304712 0)
(0 -0.0105233 0)
(0 -0.0266993 0)
(0 -0.0306022 0)
(0 -0.0305884 0)
(0 -0.0286434 0)
(0 -0.0275301 0)
(0 -0.0193522 0)
(0 -0.000955443 0)
(0 -0.0167652 0)
(0 -0.000408685 0)
(0 -0.0304192 0)
(0 -0.0287503 0)
(0 -0.0305775 0)
(0 -0.0301113 0)
(0 -0.0281889 0)
(0 -0.0304666 0)
(0 -0.0203881 0)
(0 -0.0299069 0)
(0 -0.0305242 0)
(0 -0.0306027 0)
(0 -0.0129689 0)
(0 -0.0207599 0)
(0 -0.000300356 0)
(0 -0.00797561 0)
(0 -0.0012698 0)
(0 -0.000463337 0)
(0 -0.0116852 0)
(0 -0.00258452 0)
(0 -0.0306028 0)
(0 -0.0301923 0)
(0 -0.00259383 0)
(0 -0.0305223 0)
(0 -0.00125128 0)
(0 -0.0306008 0)
(0 -0.0129017 0)
(0 -0.01538 0)
(0 -0.0306023 0)
(0 -0.0303941 0)
(0 -0.00879036 0)
(0 -0.0254215 0)
(0 -0.00382221 0)
(0 -0.0145975 0)
(0 -0.0269996 0)
(0 -0.0297675 0)
(0 -0.0168056 0)
(0 -0.0306027 0)
(0 -0.0294747 0)
(0 -0.0192524 0)
(0 -0.00866291 0)
(0 -0.0205853 0)
(0 -0.0306018 0)
(0 -0.0277239 0)
(0 -0.00153751 0)
(0 -0.0155171 0)
(0 -0.0306027 0)
(0 -0.0301434 0)
(0 -0.0291424 0)
(0 -0.0306028 0)
(0 -0.0236608 0)
(0 -0.00852448 0)
(0 -0.0149094 0)
(0 -0.0272796 0)
(0 -0.0305985 0)
(0 -0.00887209 0)
(0 -0.0300815 0)
(0 -0.0268598 0)
(0 -0.028886 0)
(0 -0.0305511 0)
(0 -0.0223165 0)
(0 -0.0305036 0)
(0 -0.0301997 0)
(0 -0.0251866 0)
(0 -0.0271158 0)
(0 -0.00154894 0)
(0 -0.0297344 0)
(0 -0.0225829 0)
(0 -0.0305897 0)
(0 -0.0282074 0)
(0 -0.0127388 0)
(0 -0.0306027 0)
(0 -0.000747695 0)
(0 -0.0238365 0)
(0 -0.0274356 0)
(0 -0.0277277 0)
(0 -0.029182 0)
(0 -0.030587 0)
(0 -0.000915255 0)
(0 -0.0304604 0)
(0 -0.0305807 0)
(0 -0.000400947 0)
(0 -0.0209888 0)
(0 -0.0282548 0)
(0 -0.00190234 0)
(0 -0.0181398 0)
(0 -0.0241381 0)
(0 -0.025431 0)
(0 -0.00984453 0)
(0 -0.0304707 0)
(0 -0.0305125 0)
(0 -0.0100663 0)
(0 -0.0305915 0)
(0 -0.0295315 0)
(0 -0.02958 0)
(0 -0.0305181 0)
(0 -0.0233817 0)
(0 -0.0304732 0)
(0 -0.0299617 0)
(0 -0.00347163 0)
(0 -0.0303959 0)
(0 -0.0303192 0)
(0 -0.0301802 0)
(0 -0.0149637 0)
(0 -0.0118654 0)
(0 -0.016591 0)
(0 -0.0306028 0)
(0 -0.0267553 0)
(0 -0.0129246 0)
(0 -0.0303099 0)
(0 -0.0172254 0)
(0 -0.0133563 0)
(0 -0.0304657 0)
(0 -0.029945 0)
(0 -0.0253092 0)
(0 -0.0298617 0)
(0 -0.0294043 0)
(0 -0.0305993 0)
(0 -0.0241955 0)
(0 -0.023624 0)
(0 -0.0305784 0)
(0 -0.0132475 0)
(0 -0.0166659 0)
(0 -0.000768555 0)
(0 -0.00130909 0)
(0 -0.0252139 0)
(0 -0.0282417 0)
(0 -0.029331 0)
(0 -0.0147372 0)
(0 -0.00363921 0)
(0 -0.0199718 0)
(0 -0.0209713 0)
(0 -0.0275094 0)
(0 -0.0296992 0)
(0 -0.00431653 0)
(0 -0.0304821 0)
(0 -0.0264082 0)
(0 -0.0305814 0)
(0 -0.0254622 0)
(0 -0.00056736 0)
(0 -0.0306017 0)
(0 -0.0271795 0)
(0 -0.0306028 0)
(0 -0.0288975 0)
(0 -0.0256772 0)
(0 -0.0223782 0)
(0 -0.0126922 0)
(0 -0.0205817 0)
(0 -0.0306014 0)
(0 -0.0296966 0)
(0 -0.0280951 0)
(0 -0.0297744 0)
(0 -0.0176657 0)
(0 -0.0301896 0)
(0 -0.000142441 0)
(0 -0.0157978 0)
(0 -0.0179262 0)
(0 -0.000197598 0)
(0 -0.0305883 0)
(0 -0.0289455 0)
(0 -0.0258146 0)
(0 -0.0305282 0)
(0 -0.023233 0)
(0 -0.00600805 0)
(0 -0.00158074 0)
(0 -0.030296 0)
(0 -0.0104793 0)
(0 -0.0233007 0)
(0 -0.0271946 0)
(0 -0.0195268 0)
(0 -0.0303165 0)
(0 -0.0057655 0)
(0 -0.0293717 0)
(0 -0.0251274 0)
(0 -0.0306027 0)
(0 -0.0306028 0)
(0 -0.024256 0)
(0 -0.0305994 0)
(0 -0.0299403 0)
(0 -0.0306027 0)
(0 -0.0237518 0)
(0 -0.00761928 0)
(0 -0.0122227 0)
(0 -0.0230959 0)
(0 -0.026908 0)
(0 -0.0130814 0)
(0 -0.0297382 0)
(0 -0.0175476 0)
(0 -0.0283734 0)
(0 -0.0235875 0)
(0 -0.0305928 0)
(0 -0.0265756 0)
(0 -0.030062 0)
(0 -0.0302209 0)
(0 -0.0136809 0)
(0 -0.0296532 0)
(0 -0.0271948 0)
(0 -0.0138465 0)
(0 -0.0293409 0)
(0 -0.00418709 0)
(0 -0.0306017 0)
(0 -0.0304322 0)
(0 -0.00328853 0)
(0 -0.0144386 0)
(0 -0.0180552 0)
(0 -0.0215035 0)
(0 -0.0202796 0)
(0 -0.0305793 0)
(0 -0.0080724 0)
(0 -0.0299153 0)
(0 -0.0154542 0)
(0 -0.00542398 0)
(0 -0.0258536 0)
(0 -0.017709 0)
(0 -0.0304695 0)
(0 -0.0167275 0)
(0 -0.00852127 0)
(0 -0.00850228 0)
(0 -0.0305631 0)
(0 -0.0268831 0)
(0 -0.0304864 0)
(0 -0.0103224 0)
(0 -0.0298992 0)
(0 -0.00410584 0)
(0 -0.0204188 0)
(0 -0.0306027 0)
(0 -0.00130345 0)
(0 -0.0272775 0)
(0 -0.0305169 0)
(0 -0.0306027 0)
(0 -0.00415378 0)
(0 -0.0235754 0)
(0 -0.030581 0)
(0 -0.00993461 0)
(0 -0.0231622 0)
(0 -0.0198815 0)
(0 -0.0305941 0)
(0 -0.0171096 0)
(0 -0.0305522 0)
(0 -0.0243952 0)
(0 -0.0306024 0)
(0 -0.0261462 0)
(0 -0.0304398 0)
(0 -0.0165768 0)
(0 -0.00301961 0)
(0 -0.0049243 0)
(0 -0.00227297 0)
(0 -0.000646298 0)
(0 -0.030601 0)
(0 -0.026718 0)
(0 -0.0104286 0)
(0 -0.0242292 0)
(0 -0.00980429 0)
(0 -0.0121008 0)
(0 -0.0304213 0)
(0 -0.0271283 0)
(0 -0.0305982 0)
(0 -0.029687 0)
(0 -0.030505 0)
(0 -0.0304589 0)
(0 -0.0288047 0)
(0 -0.0306023 0)
(0 -0.0255266 0)
(0 -0.0304091 0)
(0 -0.0172612 0)
(0 -0.0306027 0)
(0 -0.00544172 0)
(0 -0.0258221 0)
(0 -0.00420127 0)
(0 -0.0134442 0)
(0 -0.0245302 0)
(0 -0.00415097 0)
(0 -0.00782292 0)
(0 -0.0106383 0)
(0 -0.0201243 0)
(0 -0.0295758 0)
(0 -0.00325276 0)
(0 -0.0265842 0)
(0 -0.030484 0)
(0 -0.0305895 0)
(0 -0.0305844 0)
(0 -0.0305079 0)
(0 -0.0216585 0)
(0 -0.00503914 0)
(0 -0.0162095 0)
(0 -0.0305787 0)
(0 -0.0183071 0)
(0 -0.0306028 0)
(0 -0.00514181 0)
(0 -0.00804657 0)
(0 -0.00442795 0)
(0 -0.0224032 0)
(0 -0.00499409 0)
(0 -0.00451704 0)
(0 -0.016782 0)
(0 -0.0299393 0)
(0 -0.0104706 0)
(0 -0.0306024 0)
(0 -0.0240751 0)
(0 -0.0128439 0)
(0 -0.0306012 0)
(0 -0.0177283 0)
(0 -0.0165118 0)
(0 -0.0161078 0)
(0 -0.0306023 0)
(0 -0.0299514 0)
(0 -0.000470201 0)
(0 -0.00895328 0)
(0 -0.0141552 0)
(0 -0.0160967 0)
(0 -0.0305931 0)
(0 -0.0124767 0)
(0 -0.0298511 0)
(0 -0.0274453 0)
(0 -0.0258555 0)
(0 -0.0127199 0)
(0 -0.00991113 0)
(0 -0.0289098 0)
(0 -0.0232223 0)
(0 -0.0274407 0)
(0 -0.0306026 0)
(0 -0.0174135 0)
(0 -0.00171301 0)
(0 -0.0232748 0)
(0 -0.0186509 0)
(0 -0.0114496 0)
(0 -0.0305324 0)
(0 -0.0301786 0)
(0 -0.028673 0)
(0 -0.0306027 0)
(0 -0.0306023 0)
(0 -0.023039 0)
(0 -0.0305387 0)
(0 -0.0102602 0)
(0 -0.0306027 0)
(0 -0.00955704 0)
(0 -0.0305363 0)
(0 -0.0302836 0)
(0 -0.0296141 0)
(0 -0.0271926 0)
(0 -0.0304532 0)
(0 -0.0301274 0)
(0 -0.0305967 0)
(0 -0.00390321 0)
(0 -0.0212334 0)
(0 -0.00424415 0)
(0 -0.0175766 0)
(0 -0.0302063 0)
(0 -0.0248888 0)
(0 -0.02416 0)
(0 -0.0302907 0)
(0 -0.0306027 0)
(0 -0.00982329 0)
(0 -0.0298097 0)
(0 -0.0306027 0)
(0 -9.98821e-05 0)
(0 -0.00442826 0)
(0 -0.0242977 0)
(0 -0.0305987 0)
(0 -0.0267699 0)
(0 -0.000176377 0)
(0 -0.0295114 0)
(0 -0.0232225 0)
(0 -0.0156382 0)
(0 -0.0253209 0)
(0 -0.0272419 0)
(0 -0.0227516 0)
(0 -0.0193832 0)
(0 -0.00401456 0)
(0 -0.00916853 0)
(0 -0.018129 0)
(0 -0.0172195 0)
(0 -0.0306027 0)
(0 -0.0256245 0)
(0 -0.02639 0)
(0 -0.00471939 0)
(0 -0.0306027 0)
(0 -0.00475243 0)
(0 -0.00396551 0)
(0 -0.0287955 0)
(0 -0.0266473 0)
(0 -0.0275407 0)
(0 -0.00405774 0)
(0 -0.0305797 0)
(0 -0.0128138 0)
(0 -0.0215884 0)
(0 -0.0303817 0)
(0 -0.0171388 0)
(0 -0.000326634 0)
(0 -0.0304692 0)
(0 -0.0305556 0)
(0 -0.0304569 0)
(0 -0.0305319 0)
(0 -0.00903067 0)
(0 -0.0305289 0)
(0 -0.0306021 0)
(0 -0.00091819 0)
(0 -0.0305357 0)
(0 -0.00457853 0)
(0 -0.0302418 0)
(0 -0.0303951 0)
(0 -0.0178985 0)
(0 -0.0290043 0)
(0 -0.0134153 0)
(0 -0.0290337 0)
(0 -0.0282781 0)
(0 -0.026567 0)
(0 -0.0305809 0)
(0 -0.0299544 0)
(0 -0.0303408 0)
(0 -0.0305556 0)
(0 -0.00144322 0)
(0 -0.0305457 0)
(0 -0.0273962 0)
(0 -0.0227134 0)
(0 -0.018446 0)
(0 -0.0090073 0)
(0 -0.00334358 0)
(0 -0.00918046 0)
(0 -0.0272998 0)
(0 -0.0305976 0)
(0 -0.0109479 0)
(0 -0.026669 0)
(0 -0.028984 0)
(0 -0.0255948 0)
(0 -0.0228401 0)
(0 -0.0302577 0)
(0 -0.0304924 0)
(0 -0.021725 0)
(0 -0.0139773 0)
(0 -0.0293529 0)
(0 -0.00475802 0)
(0 -0.0276873 0)
(0 -0.0306022 0)
(0 -0.0256514 0)
(0 -0.017505 0)
(0 -0.030081 0)
(0 -0.013071 0)
(0 -0.0267982 0)
(0 -0.030602 0)
(0 -0.0306027 0)
(0 -0.0248715 0)
(0 -0.0302135 0)
(0 -0.0278455 0)
(0 -0.0306028 0)
(0 -0.0298358 0)
(0 -0.0290946 0)
(0 -0.0305934 0)
(0 -0.0151706 0)
(0 -0.0304223 0)
(0 -0.0305891 0)
(0 -0.0305784 0)
(0 -0.0188136 0)
(0 -0.0274834 0)
(0 -0.00637887 0)
(0 -0.0208518 0)
(0 -0.001322 0)
(0 -0.0231341 0)
(0 -0.0214307 0)
(0 -0.0305901 0)
(0 -0.00128709 0)
(0 -0.0301897 0)
(0 -0.00606065 0)
(0 -0.0304454 0)
(0 -0.0305849 0)
(0 -0.0270957 0)
(0 -0.0305432 0)
(0 -0.0298628 0)
(0 -0.0181686 0)
(0 -0.0305102 0)
(0 -0.0271807 0)
(0 -0.026843 0)
(0 -0.0184426 0)
(0 -0.0306027 0)
(0 -0.0304572 0)
(0 -0.0306027 0)
(0 -0.0289232 0)
(0 -0.0305788 0)
(0 -0.0303109 0)
(0 -0.00391845 0)
(0 -0.0244105 0)
(0 -0.0299893 0)
(0 -0.00405718 0)
(0 -0.0180476 0)
(0 -0.0304389 0)
(0 -0.0184914 0)
(0 -0.0282893 0)
(0 -0.0289815 0)
(0 -0.027139 0)
(0 -0.0268098 0)
(0 -0.0303967 0)
(0 -0.0304247 0)
(0 -0.0147 0)
(0 -0.0304157 0)
(0 -0.0259895 0)
(0 -0.0232479 0)
(0 -0.0156963 0)
(0 -0.0103728 0)
(0 -0.0305967 0)
(0 -0.0305702 0)
(0 -0.011808 0)
(0 -0.0300255 0)
(0 -0.0036337 0)
(0 -0.023408 0)
(0 -0.0306028 0)
(0 -0.023827 0)
(0 -0.00499889 0)
(0 -0.00635845 0)
(0 -0.0185909 0)
(0 -0.00102005 0)
(0 -0.0271297 0)
(0 -0.030597 0)
(0 -0.020723 0)
(0 -0.0290665 0)
(0 -0.00886256 0)
(0 -0.00374524 0)
(0 -0.0305011 0)
(0 -0.0305976 0)
(0 -0.0305752 0)
(0 -0.0256306 0)
(0 -0.00257035 0)
(0 -0.0056239 0)
(0 -0.0263955 0)
(0 -0.0304967 0)
(0 -0.0306015 0)
(0 -0.00340357 0)
(0 -0.0302467 0)
(0 -0.0286896 0)
(0 -0.0303627 0)
(0 -0.0289107 0)
(0 -0.00352453 0)
(0 -0.0281176 0)
(0 -0.0305429 0)
(0 -0.0131959 0)
(0 -0.0297697 0)
(0 -0.00364145 0)
(0 -0.0105006 0)
(0 -0.0252544 0)
(0 -0.0306021 0)
(0 -0.0302395 0)
(0 -0.00870393 0)
(0 -0.0305876 0)
(0 -0.0304124 0)
(0 -0.0147027 0)
(0 -0.030459 0)
(0 -0.00162023 0)
(0 -0.00667896 0)
(0 -0.030564 0)
(0 -0.0194238 0)
(0 -0.0131729 0)
(0 -0.0247663 0)
(0 -0.0305222 0)
(0 -0.029347 0)
(0 -0.0269173 0)
(0 -0.00560021 0)
(0 -0.0161717 0)
(0 -0.0121664 0)
(0 -0.0172796 0)
(0 -0.0296259 0)
(0 -0.0299272 0)
(0 -0.0306027 0)
(0 -0.0294134 0)
(0 -0.0292761 0)
(0 -0.0300347 0)
(0 -0.0302879 0)
(0 -0.0135171 0)
(0 -0.0290862 0)
(0 -0.0305226 0)
(0 -0.0305867 0)
(0 -0.0306001 0)
(0 -0.026035 0)
(0 -0.0054898 0)
(0 -0.0306027 0)
(0 -0.00444973 0)
(0 -0.00477935 0)
(0 -0.0278843 0)
(0 -0.0297083 0)
(0 -0.0251065 0)
(0 -0.00448383 0)
(0 -0.0305908 0)
(0 -0.029241 0)
(0 -0.0256957 0)
(0 -0.0175665 0)
(0 -0.0304096 0)
(0 -0.0305889 0)
(0 -0.0306027 0)
(0 -0.0197942 0)
(0 -0.0210264 0)
(0 -0.0275906 0)
(0 -0.000633923 0)
(0 -0.00690067 0)
(0 -0.0302243 0)
(0 -0.0190494 0)
(0 -0.0288889 0)
(0 -0.0300164 0)
(0 -0.0267616 0)
(0 -0.0305972 0)
(0 -0.0127939 0)
(0 -0.0247135 0)
(0 -0.0268185 0)
(0 -0.00525718 0)
(0 -0.0305862 0)
(0 -0.013598 0)
(0 -0.0117638 0)
(0 -0.0303119 0)
(0 -0.030438 0)
(0 -0.03039 0)
(0 -0.0305833 0)
(0 -0.0107999 0)
(0 -0.0298773 0)
(0 -0.0134479 0)
(0 -0.0142431 0)
(0 -0.0231387 0)
(0 -0.0032317 0)
(0 -0.0237292 0)
(0 -0.0305841 0)
(0 -0.0235954 0)
(0 -0.0303858 0)
(0 -0.0182412 0)
(0 -0.0102784 0)
(0 -0.0235307 0)
(0 -0.00346108 0)
(0 -0.0159647 0)
(0 -0.0306027 0)
(0 -0.00356765 0)
(0 -0.0280978 0)
(0 -0.0304739 0)
(0 -0.00261982 0)
(0 -0.0303788 0)
(0 -0.0300203 0)
(0 -0.0299045 0)
(0 -0.0225903 0)
(0 -0.0160342 0)
(0 -0.0126997 0)
(0 -0.0104402 0)
(0 -0.00321796 0)
(0 -0.0277704 0)
(0 -0.0123455 0)
(0 -0.00205294 0)
(0 -0.0144861 0)
(0 -0.00546789 0)
(0 -0.0289235 0)
(0 -0.0171893 0)
(0 -0.0305983 0)
(0 -0.0302141 0)
(0 -0.0101905 0)
(0 -0.00942633 0)
(0 -0.00849162 0)
(0 -0.0301894 0)
(0 -0.00929684 0)
(0 -0.0300501 0)
(0 -0.0168487 0)
(0 -7.89891e-05 0)
(0 -0.0104241 0)
(0 -0.0303534 0)
(0 -0.0258493 0)
(0 -0.0305841 0)
(0 -0.00607067 0)
(0 -0.00342702 0)
(0 -0.0285753 0)
(0 -0.00316457 0)
(0 -0.00886824 0)
(0 -0.0306023 0)
(0 -0.0223395 0)
(0 -0.00203402 0)
(0 -0.0302507 0)
(0 -0.0304528 0)
(0 -0.0306027 0)
(0 -0.00352032 0)
(0 -0.0291135 0)
(0 -0.0302625 0)
(0 -0.00944142 0)
(0 -0.0075136 0)
(0 -0.0305864 0)
(0 -0.0177835 0)
(0 -0.000311117 0)
(0 -0.0304046 0)
(0 -0.00753737 0)
(0 -0.030602 0)
(0 -0.00364294 0)
(0 -0.0149883 0)
(0 -0.0205508 0)
(0 -0.00775236 0)
(0 -0.0306016 0)
(0 -0.000337551 0)
(0 -0.00565515 0)
(0 -0.0304917 0)
(0 -0.0114133 0)
(0 -0.0129559 0)
(0 -0.00385421 0)
(0 -0.00718434 0)
(0 -0.0303309 0)
(0 -0.0247563 0)
(0 -0.0224825 0)
(0 -0.00673313 0)
(0 -0.0301832 0)
(0 -0.0230225 0)
(0 -0.00717188 0)
(0 -0.00759553 0)
(0 -0.0266062 0)
(0 -0.00883689 0)
(0 -0.0289542 0)
(0 -0.0203774 0)
(0 -0.0124645 0)
(0 -0.0249891 0)
(0 -0.0046226 0)
(0 -0.0262512 0)
(0 -0.0224767 0)
(0 -0.0289037 0)
(0 -0.00845924 0)
(0 -0.0304783 0)
(0 -0.0209635 0)
(0 -0.0281268 0)
(0 -0.0113599 0)
(0 -0.0235594 0)
(0 -0.0169639 0)
(0 -0.00385804 0)
(0 -0.0294237 0)
(0 -0.0259578 0)
(0 -0.0294249 0)
(0 -0.0304059 0)
(0 -0.00536168 0)
(0 -0.0306021 0)
(0 -0.030599 0)
(0 -0.0304916 0)
(0 -0.0305995 0)
(0 -0.0212607 0)
(0 -0.0221437 0)
(0 -0.030032 0)
(0 -0.0305286 0)
(0 -0.0056057 0)
(0 -0.0306027 0)
(0 -0.00967973 0)
(0 -0.030559 0)
(0 -0.0233314 0)
(0 -0.0288339 0)
(0 -0.0304687 0)
(0 -0.0293773 0)
(0 -0.030314 0)
(0 -0.0016708 0)
(0 -0.0303489 0)
(0 -0.0133092 0)
(0 -0.0116131 0)
(0 -0.029006 0)
(0 -0.0306019 0)
(0 -0.0306025 0)
(0 -0.0244119 0)
(0 -0.0228271 0)
(0 -0.0301618 0)
(0 -0.000585735 0)
(0 -0.030536 0)
(0 -0.000475511 0)
(0 -0.0273134 0)
(0 -0.00781472 0)
(0 -0.000282033 0)
(0 -0.0306027 0)
(0 -0.0074776 0)
(0 -0.0300592 0)
(0 -0.0236033 0)
(0 -0.0300203 0)
(0 -0.0304291 0)
(0 -0.0228287 0)
(0 -0.0117374 0)
(0 -0.0305956 0)
(0 -0.0137845 0)
(0 -0.0180778 0)
(0 -0.0267774 0)
(0 -0.00957484 0)
(0 -0.0305323 0)
(0 -0.0260693 0)
(0 -0.0297027 0)
(0 -0.0306027 0)
(0 -0.0174035 0)
(0 -0.0294205 0)
(0 -0.0247224 0)
(0 -0.000357693 0)
(0 -0.0302212 0)
(0 -0.0117765 0)
(0 -0.010924 0)
(0 -0.0296644 0)
(0 -0.00044797 0)
(0 -0.00168779 0)
(0 -0.0290679 0)
(0 -0.022265 0)
(0 -0.0305526 0)
(0 -0.0267072 0)
(0 -0.0103741 0)
(0 -0.0147656 0)
(0 -0.00301701 0)
(0 -0.00864738 0)
(0 -0.0174407 0)
(0 -0.0305206 0)
(0 -0.0240307 0)
(0 -0.0193084 0)
(0 -0.0126086 0)
(0 -0.0142594 0)
(0 -0.0237502 0)
(0 -0.0240893 0)
(0 -0.0305982 0)
(0 -0.00144986 0)
(0 -0.0298401 0)
(0 -0.0269352 0)
(0 -0.0136913 0)
(0 -0.0305885 0)
(0 -0.0229473 0)
(0 -0.000809321 0)
(0 -0.0306027 0)
(0 -0.0305286 0)
(0 -0.0306022 0)
(0 -0.0133351 0)
(0 -0.0306003 0)
(0 -0.0297273 0)
(0 -0.0220176 0)
(0 -0.0306027 0)
(0 -0.0228844 0)
(0 -0.0259599 0)
(0 -0.030581 0)
(0 -0.0258357 0)
(0 -0.0284998 0)
(0 -0.0306027 0)
(0 -0.0280751 0)
(0 -0.0304445 0)
(0 -0.0231679 0)
(0 -0.0305966 0)
(0 -0.0183599 0)
(0 -0.0176508 0)
(0 -0.013493 0)
(0 -0.0306027 0)
(0 -0.0187187 0)
(0 -0.00447629 0)
(0 -0.022112 0)
(0 -0.021144 0)
(0 -0.0130556 0)
(0 -0.00525217 0)
(0 -0.0299786 0)
(0 -0.0294382 0)
(0 -0.0172738 0)
(0 -0.028632 0)
(0 -0.0306013 0)
(0 -0.0281955 0)
(0 -0.0304351 0)
(0 -0.0303786 0)
(0 -0.0112953 0)
(0 -0.0305057 0)
(0 -0.0297924 0)
(0 -0.0267118 0)
(0 -0.0305737 0)
(0 -0.00315069 0)
(0 -0.0305136 0)
(0 -0.0306027 0)
(0 -0.0133256 0)
(0 -0.0306028 0)
(0 -0.0101706 0)
(0 -0.0305997 0)
(0 -0.0305242 0)
(0 -0.0279123 0)
(0 -0.0232555 0)
(0 -0.0176887 0)
(0 -0.023984 0)
(0 -0.0164898 0)
(0 -0.0277592 0)
(0 -0.00992769 0)
(0 -0.0225811 0)
(0 -0.0305982 0)
(0 -0.0302611 0)
(0 -0.0305906 0)
(0 -0.019015 0)
(0 -0.0292392 0)
(0 -0.030602 0)
(0 -0.013497 0)
(0 -0.0234098 0)
(0 -0.0305964 0)
(0 -0.00869754 0)
(0 -0.0162016 0)
(0 -0.0305801 0)
(0 -0.0305264 0)
(0 -0.0304206 0)
(0 -0.0236313 0)
(0 -0.0305841 0)
(0 -0.0294279 0)
(0 -0.0256437 0)
(0 -0.0306008 0)
(0 -0.0305841 0)
(0 -0.0186787 0)
(0 -0.00727973 0)
(0 -0.0304309 0)
(0 -0.0301631 0)
(0 -0.0302641 0)
(0 -0.0217576 0)
(0 -0.0295887 0)
(0 -0.0302076 0)
(0 -0.0298194 0)
(0 -0.0238583 0)
(0 -0.0101745 0)
(0 -0.0289136 0)
(0 -0.0306027 0)
(0 -0.0288958 0)
(0 -0.0163747 0)
(0 -0.0170001 0)
(0 -0.0279 0)
(0 -0.0127838 0)
(0 -0.030602 0)
(0 -0.0292727 0)
(0 -0.00574143 0)
(0 -0.0304313 0)
(0 -0.0103835 0)
(0 -0.00715477 0)
(0 -0.0299885 0)
(0 -0.0298354 0)
(0 -0.0221504 0)
(0 -0.0306013 0)
(0 -0.0122761 0)
(0 -0.0306017 0)
(0 -0.0118585 0)
(0 -0.0306026 0)
(0 -0.0305873 0)
(0 -0.0305808 0)
(0 -0.00378494 0)
(0 -0.0287092 0)
(0 -0.0281878 0)
(0 -0.0294609 0)
(0 -0.0303771 0)
(0 -0.0304656 0)
(0 -0.0305981 0)
(0 -0.0297808 0)
(0 -0.000152173 0)
(0 -0.0288118 0)
(0 -0.0137309 0)
(0 -0.0305216 0)
(0 -0.0306028 0)
(0 -0.000353308 0)
(0 -0.00630932 0)
(0 -0.0271905 0)
(0 -0.0304291 0)
(0 -0.0294139 0)
(0 -0.0124319 0)
(0 -0.0298858 0)
(0 -0.0304074 0)
(0 -0.00991573 0)
(0 -0.0102029 0)
(0 -0.0270714 0)
(0 -0.0306016 0)
(0 -0.0259362 0)
(0 -0.0112959 0)
(0 -0.0305984 0)
(0 -0.0296581 0)
(0 -0.0269919 0)
(0 -0.0305776 0)
(0 -0.0156782 0)
(0 -0.028929 0)
(0 -0.0306014 0)
(0 -0.000671149 0)
(0 -0.029706 0)
(0 -0.0300868 0)
(0 -0.0304318 0)
(0 -0.0305176 0)
(0 -0.0306001 0)
(0 -0.0228736 0)
(0 -0.027651 0)
(0 -0.0297304 0)
(0 -0.00757026 0)
(0 -0.0305631 0)
(0 -0.0303907 0)
(0 -0.0302856 0)
(0 -0.0305553 0)
(0 -0.0301915 0)
(0 -0.023509 0)
(0 -0.0304545 0)
(0 -0.0305993 0)
(0 -0.0289177 0)
(0 -0.030484 0)
(0 -4.46885e-05 0)
(0 -0.0251897 0)
(0 -0.0228736 0)
(0 -0.0122896 0)
(0 -0.0305894 0)
(0 -0.0297361 0)
(0 -0.00341825 0)
(0 -0.0280521 0)
(0 -0.0305773 0)
(0 -0.0151862 0)
(0 -0.0190148 0)
(0 -0.0305977 0)
(0 -0.000391891 0)
(0 -0.0238187 0)
(0 -2.92883e-05 0)
(0 -0.0256789 0)
(0 -0.0303269 0)
(0 -0.0185083 0)
(0 -0.0305816 0)
(0 -0.0298129 0)
(0 -0.030367 0)
(0 -0.0270185 0)
(0 -0.0302381 0)
(0 -0.0254982 0)
(0 -0.0273817 0)
(0 -0.0288422 0)
(0 -0.0221221 0)
(0 -0.0258956 0)
(0 -0.00321043 0)
(0 -0.01186 0)
(0 -0.0306011 0)
(0 -0.0305401 0)
(0 -0.0285275 0)
(0 -0.0305719 0)
(0 -0.0193391 0)
(0 -0.0239935 0)
(0 -0.0282393 0)
(0 -0.0100908 0)
(0 -0.0105374 0)
(0 -0.0299766 0)
(0 -0.029048 0)
(0 -0.0306026 0)
(0 -0.0303761 0)
(0 -0.0305445 0)
(0 -0.0233069 0)
(0 -0.0305114 0)
(0 -0.0172175 0)
(0 -0.0305921 0)
(0 -0.0067254 0)
(0 -0.0305564 0)
(0 -0.0304635 0)
(0 -0.00374317 0)
(0 -0.0304134 0)
(0 -0.0306027 0)
(0 -0.0288477 0)
(0 -0.00296734 0)
(0 -0.000728262 0)
(0 -0.0287651 0)
(0 -0.030555 0)
(0 -0.00914842 0)
(0 -0.0254448 0)
(0 -0.00177876 0)
(0 -0.000895889 0)
(0 -0.0305818 0)
(0 -0.00300691 0)
(0 -0.0290245 0)
(0 -0.00829326 0)
(0 -0.00129562 0)
(0 -0.0305772 0)
(0 -0.0299198 0)
(0 -0.0246132 0)
(0 -0.0305229 0)
(0 -0.0277965 0)
(0 -0.0306016 0)
(0 -0.0273388 0)
(0 -0.00197319 0)