/*--------------------------------*- C++ -*----------------------------------*\
| =========                 |                                                 |
| \\      /  F ield         | OpenFOAM: The Open Source CFD Toolbox           |
|  \\    /   O peration     | Version:  v2012                                 |
|   \\  /    A nd           | Website:  www.openfoam.com                      |
|    \\/     M anipulation  |                                                 |
\*---------------------------------------------------------------------------*/
FoamFile
{
    version     2.0;
    format      ascii;
    class       surfaceScalarField;
    location    "850";
    object      meshPhiCN_0;
}
// * * * * * * * * * * * * * * * * * * * * * * * * * * * * * * * * * * * * * //

dimensions      [0 3 -1 0 0 0 0];
oriented        oriented;


internalField   nonuniform List<scalar> 
20673
(
0.00011544
7.28526e-05
-0.000188207
-0.000125227
-0.000154938
0.000281454
9.35833e-05
-2.943e-05
-6.41526e-05
0.000288001
2.61532e-05
-0.000313267
-0.000345453
0.00035613
-9.05926e-06
-7.98478e-05
8.26238e-05
-2.77585e-06
6.50686e-05
2.4185e-05
-8.92533e-05
-7.86798e-05
6.3225e-05
1.54551e-05
-7.5128e-05
1.34775e-05
6.16508e-05
-0.000147768
3.07469e-05
0.000117056
-0.000106363
-4.81593e-06
0.000111186
-0.000148492
0.0001555
-6.96753e-06
0.000210921
4.32963e-05
-6.85445e-05
2.52482e-05
-0.000162151
0.000274006
-0.000111635
0.000112317
0.000141541
-0.00025352
0.000345511
-0.000112053
-0.000232418
-0.00015762
7.32591e-06
0.000150344
3.27821e-05
-0.000181228
0.000209985
-0.000213609
1.03744e-05
5.89279e-05
-1.56176e-06
-5.64691e-05
-6.92578e-06
7.19947e-05
-1.34463e-05
0.000255642
-0.000237895
-3.87404e-05
-3.99388e-05
-0.000378618
0.000355419
2.52958e-05
-8.97174e-05
5.31786e-05
3.65391e-05
-6.53031e-05
-8.37332e-05
0.00014904
2.43934e-05
-0.000103544
7.91549e-05
4.65143e-05
-9.13269e-05
4.48136e-05
9.85347e-06
-0.000122411
0.000112576
8.86073e-05
9.19018e-05
-0.000180432
0.000126983
9.43803e-05
-0.000221141
-0.000141767
-2.77392e-05
0.000169525
-5.46571e-05
0.000225527
-0.00017087
0.000148544
0.000205568
-0.000353007
-5.72139e-05
-2.46124e-05
8.18285e-05
0.000221273
-0.000230478
-7.21492e-05
5.69139e-05
1.52353e-05
-0.000229945
0.000288719
-5.43645e-05
5.76508e-05
-3.28628e-06
3.16238e-05
3.15771e-05
-4.11598e-05
2.57792e-06
1.93675e-05
-2.13056e-05
0.000245361
5.15527e-05
-0.00028247
0.00012607
-0.000116725
-9.3413e-06
-0.000255568
0.000337192
-7.98718e-05
-0.000226071
0.000212075
1.40138e-05
3.28226e-05
-0.000190384
0.000171925
-9.85726e-05
-7.3318e-05
6.78955e-05
-5.96797e-05
-8.21585e-06
-4.45434e-06
-3.77747e-05
5.7076e-05
-0.000272011
0.000113036
0.000159255
-0.000219096
0.000323495
-0.000104201
7.4037e-05
-6.14147e-06
-0.000212972
0.000158319
0.000267964
7.85625e-05
-0.000142884
-8.38495e-05
0.000227034
2.91836e-05
-0.000135537
0.000334676
7.95816e-05
-0.000412567
-0.000292433
0.000240261
5.26709e-05
5.21227e-05
-0.000305967
-8.68802e-05
7.87206e-05
8.16036e-06
-0.000347416
0.000223642
-1.6733e-05
0.000237582
-2.11666e-05
-8.9931e-05
1.00833e-05
-2.44604e-05
-5.64649e-05
8.09262e-05
2.07519e-05
-0.000341419
-0.000327314
-3.52923e-05
-8.28921e-05
-1.49324e-05
9.78308e-05
-0.000148868
-2.85004e-05
0.000177466
-3.66648e-06
-0.000340441
-6.65099e-05
-8.61763e-06
7.19384e-05
-4.85302e-05
-2.34082e-05
-0.000389589
1.33479e-05
6.22641e-05
-2.06341e-06
-6.02007e-05
0.000172782
-9.05472e-05
-8.21983e-05
5.19804e-05
-5.81207e-05
6.14028e-06
-0.000346151
0.000302899
4.43134e-05
6.89245e-05
2.27268e-05
-9.1651e-05
3.72001e-06
0.000123932
-0.000126731
0.000170623
-3.49226e-05
-0.000132825
-0.000286296
8.10475e-05
-8.28853e-05
1.83801e-06
-4.90721e-05
-2.3077e-05
-8.06096e-05
7.45237e-05
6.0861e-06
-0.000235132
-0.000109895
0.000189654
-0.000178898
-6.68095e-06
3.95659e-05
-6.40255e-05
-0.000104151
-0.000167519
1.35511e-05
0.000243656
-7.28868e-05
5.59086e-05
1.69782e-05
5.55552e-05
-0.000176766
0.000121237
0.0004083
-0.0001343
-0.000270693
-0.000125083
0.000292173
-0.000166677
-3.11102e-05
7.06767e-05
-6.70169e-05
-1.96298e-05
8.66467e-05
-0.000120318
1.42707e-05
0.000106059
-8.26398e-05
0.000165268
-8.25909e-05
-0.000129521
0.00012036
9.17145e-06
6.9716e-05
5.97769e-05
-0.00012949
-0.000170568
-6.20269e-05
0.000245051
0.000106717
-0.000189971
8.32532e-05
9.22012e-05
3.38727e-05
-0.000136687
0.000279238
-0.000141814
0.000206023
-0.000330986
0.000131341
3.8347e-05
4.37819e-05
-8.21284e-05
-0.000107227
9.56306e-05
1.15991e-05
0.000116159
5.5793e-05
-0.000365474
0.000254549
-9.3111e-05
-7.30929e-05
0.000166268
-7.60394e-05
6.73032e-05
8.73623e-06
-7.73852e-05
2.30207e-05
-0.000129948
5.45912e-06
0.000124511
-2.85937e-05
6.69412e-05
5.14558e-05
-0.000232423
0.000180993
7.25689e-05
-4.67387e-05
-2.58302e-05
-0.000278246
-7.84477e-05
0.000360332
5.77639e-06
6.30338e-05
-6.88102e-05
5.28172e-05
1.18358e-05
-6.4653e-05
0.000226093
-4.91579e-05
-0.000176927
-5.3985e-05
5.71173e-05
3.45206e-05
-0.000117406
6.57325e-05
-4.18512e-05
-2.38813e-05
0.000137307
-0.000112909
-2.77708e-05
5.90251e-05
-1.63043e-05
0.000175284
-0.000299906
-0.000315933
0.000253601
6.39811e-05
2.01733e-05
-3.05508e-05
0.000167062
4.24637e-05
-0.00018668
1.56068e-05
-6.59918e-05
1.27736e-05
5.32182e-05
0.000277611
-0.000226118
0.000311563
2.72715e-05
5.96012e-05
-2.26617e-08
4.86423e-06
-7.85719e-05
7.37099e-05
-7.89882e-05
4.02483e-05
0.000180642
-6.51176e-05
-2.85397e-05
9.82568e-05
-0.000345366
3.58246e-06
0.00018171
4.43974e-05
7.92877e-05
2.32294e-05
-0.000102514
-9.43754e-05
0.000352744
-0.000253463
-0.000314558
-8.85052e-06
0.000323715
3.9322e-07
9.72208e-05
-9.76112e-05
-0.000321366
-6.05534e-06
-6.29581e-05
9.40195e-05
-3.10605e-05
6.101e-05
-9.62811e-05
3.52723e-05
-0.000343053
0.000124173
-8.06454e-05
0.000333788
-0.000247749
-0.000127548
-9.09087e-05
0.000218687
-0.000151837
0.00015599
-4.10523e-06
3.50797e-05
3.74893e-05
-0.000182229
7.13443e-05
0.000110909
0.000175961
-0.000176731
8.23985e-07
0.000100845
0.000144478
-0.000245025
-8.69463e-05
1.85094e-05
6.84371e-05
6.61297e-05
-0.000214879
0.000107515
-3.78299e-05
-6.96832e-05
6.3422e-05
-1.14416e-05
-7.18245e-05
7.6691e-05
-0.000216026
-2.72154e-05
0.000243383
0.000116682
-0.000170458
5.37713e-05
0.00012417
-0.000137903
1.46746e-05
1.81084e-05
-0.000138413
3.07466e-05
-0.000160666
-0.000127603
-1.90738e-06
0.000133289
-0.000269276
-8.47055e-05
-6.72498e-05
0.000151997
-0.000394869
0.000334414
6.33348e-05
0.000177811
-7.10941e-05
8.99513e-05
9.01747e-05
-0.000180059
-1.44615e-05
5.92662e-05
-4.48047e-05
-9.19171e-05
0.000141384
-4.94466e-05
-0.000346858
0.000198423
0.000149231
4.25806e-05
5.39192e-05
-9.64988e-05
-0.000166722
0.000145033
2.17277e-05
5.36565e-06
-7.13574e-05
6.51364e-05
-5.936e-05
2.62423e-05
-8.91994e-05
-0.000347904
2.73254e-05
0.000323389
0.000153019
-9.74416e-05
0.000200253
-0.000111562
0.000253877
-0.000343392
0.000216363
-2.29894e-05
-7.96884e-06
0.000180221
-0.000172155
-5.5657e-05
-3.40599e-05
-0.00011158
4.66559e-05
6.49294e-05
-1.2251e-05
-7.4695e-05
-0.000117449
-5.92297e-05
0.000176773
-8.99517e-05
-4.80297e-06
9.47632e-05
-0.000122228
7.10132e-05
5.12176e-05
-6.29334e-05
-1.76759e-05
-1.35433e-05
-8.01982e-05
9.37464e-05
7.5769e-05
-0.000313046
0.000241665
0.00010709
-0.00010743
3.4023e-07
7.71759e-05
-0.000142474
1.2036e-05
1.58358e-05
0.000201619
0.000209442
9.7306e-05
-1.23322e-05
-8.49697e-05
-1.7546e-05
-4.95393e-05
6.70862e-05
-0.000281161
0.00019029
9.12462e-05
3.62731e-05
-2.95137e-05
0.000139106
-0.000186305
4.72553e-05
2.4172e-05
-0.000175956
2.32191e-05
4.87193e-05
6.32314e-05
2.92095e-05
-9.24386e-05
-0.000182694
0.00033217
0.000344735
-8.6152e-06
-0.0001762
9.35991e-05
9.74786e-05
-6.0145e-05
-3.7333e-05
2.99413e-05
-0.000343989
4.81526e-05
3.50333e-05
-8.31856e-05
5.60998e-05
-7.56661e-05
1.95663e-05
-0.000138941
4.9001e-05
-0.000126456
0.000338521
6.12298e-05
-9.54814e-05
3.4252e-05
-9.35977e-05
0.000175381
-8.17309e-05
6.54043e-05
-6.903e-05
3.62578e-06
-4.9159e-06
-0.000253915
0.000261498
-7.09409e-05
-1.59382e-05
7.52297e-05
-0.000419864
0.000137854
-7.49287e-05
-6.29057e-05
7.46928e-05
-2.51631e-05
-6.72723e-05
6.21553e-05
5.11704e-06
2.61819e-05
4.72603e-05
-7.34418e-05
0.000256458
-0.000143844
2.01294e-05
8.01395e-05
-0.000100267
0.000232824
-0.000131722
0.000256305
-0.000375985
-8.53973e-05
2.81856e-05
4.93555e-05
-0.000141252
-0.000180992
6.36423e-05
-2.04598e-05
8.19385e-05
-6.1478e-05
1.81864e-06
5.42812e-05
6.31039e-05
0.000102828
-0.000148967
-7.95673e-05
0.000206754
-2.30151e-05
-4.98717e-05
-6.04817e-05
6.71419e-05
-6.66009e-06
0.000124284
2.41441e-06
-0.000193222
-0.000126253
0.000327016
9.50138e-06
-5.995e-05
-3.35557e-05
-7.31916e-05
0.000106757
-8.98546e-06
-4.13177e-08
1.04755e-05
8.9004e-05
2.90317e-05
-0.000118032
7.49446e-05
6.49803e-05
-0.000139903
-2.26365e-05
0.000139315
-0.000147418
0.000186198
-3.86711e-05
-9.07385e-06
-0.000126647
9.25195e-05
-0.000185441
9.29754e-05
-3.88282e-05
-2.11675e-05
5.99957e-05
-0.000277951
-4.9716e-05
0.000330123
0.00014957
-2.8351e-05
-0.000121201
0.000110392
-0.000106995
-3.39604e-06
-0.000270886
-4.32184e-05
-0.000283956
0.000365016
-0.000176576
0.000106444
7.01659e-05
-7.85949e-05
4.86227e-05
2.99722e-05
-6.69767e-05
-0.000115227
-0.000144837
0.000136945
-0.000234439
7.24945e-05
1.87335e-05
-1.79379e-05
4.23142e-07
4.48304e-05
2.09021e-05
0.000100976
-6.78701e-05
-3.31049e-05
-0.000116687
2.4743e-05
9.19469e-05
-7.19312e-05
0.000334361
7.4409e-05
-4.9491e-05
-2.4918e-05
-5.08319e-05
-1.70389e-05
6.78708e-05
8.46144e-05
2.29025e-05
-2.32062e-06
7.12454e-05
6.6976e-05
0.000105835
0.000163647
-5.04117e-05
2.91017e-06
6.78457e-05
0.000108966
-0.000170989
6.2075e-05
-7.59057e-05
4.08066e-05
3.50991e-05
-0.000101644
-2.18889e-05
0.000123546
-0.000203407
-8.85092e-05
-2.56855e-05
8.89191e-05
0.000112009
-0.000193784
-0.000145945
9.96987e-05
6.92771e-05
-5.30631e-05
-2.28818e-05
7.59461e-05
0.00020465
-0.000205599
7.52121e-06
-3.85388e-05
8.11203e-05
-0.000151316
-0.000129394
-7.22224e-06
6.77857e-07
-0.000270009
0.000143856
0.000126346
0.000131752
4.42603e-05
-8.94632e-05
-8.10023e-05
8.5627e-05
3.38005e-06
-0.000226836
8.38313e-05
0.000143111
-3.79662e-05
0.00030124
-0.000261232
-7.22744e-05
-3.67423e-05
0.00010902
-7.27495e-05
5.22902e-05
4.91895e-05
5.17872e-05
0.000288987
-0.000290852
5.52166e-05
-0.000108168
5.29532e-05
0.000230334
-0.000267125
3.6504e-05
-0.000323764
0.000287942
0.000123207
-0.00039756
-1.72746e-05
7.82855e-05
7.58355e-05
-3.11189e-05
-3.24084e-05
8.04712e-05
5.73987e-05
6.82727e-05
-0.000215564
-0.000283297
-0.000108376
0.000155216
-1.60626e-05
0.000204232
-0.000330069
0.000126529
-1.85071e-06
3.66422e-05
-3.47915e-05
-0.000122559
-4.41206e-05
-9.27875e-05
-8.39475e-05
-0.000376954
0.000330673
5.00038e-05
-0.000376427
9.40412e-05
-8.26685e-05
4.14248e-05
4.12437e-05
1.72491e-05
4.36544e-05
-6.09035e-05
0.000250207
-0.000325551
-4.94389e-05
6.50917e-06
6.17353e-05
3.9281e-05
-9.23428e-05
-0.000295173
0.00042867
-0.000130358
-7.36592e-05
2.51291e-05
-0.000409546
3.70244e-05
-9.00057e-06
-5.82716e-05
-0.000152592
-0.000155643
0.000309656
3.51409e-05
-0.000111842
7.67054e-05
-2.80351e-05
-0.000174443
0.000202649
-5.47825e-05
6.26827e-05
-7.90029e-06
-0.000288928
7.30847e-05
-0.000125184
5.33617e-05
9.91934e-06
6.05187e-05
-7.04375e-05
-6.73447e-05
-0.00020245
-0.000102664
6.9116e-05
-8.79421e-05
6.1449e-06
8.17992e-05
-0.000349998
0.00015808
0.000192807
-7.61267e-05
5.6333e-05
1.97938e-05
3.32993e-05
7.3791e-05
-5.38342e-05
3.00228e-06
0.000107852
0.000133995
-0.000241794
-4.83974e-05
6.00293e-05
-1.16319e-05
-0.000164701
0.000203771
-3.88669e-05
7.929e-05
-2.05886e-05
-5.87013e-05
9.52381e-05
-8.53181e-05
-0.000147336
5.85324e-05
8.88124e-05
-3.47422e-05
-0.000112585
2.3663e-05
6.99207e-05
1.10826e-05
0.000142757
-0.000152667
-9.29788e-05
0.000182992
-5.70235e-05
-1.90159e-05
-0.000339703
6.99809e-05
0.00027043
0.000173379
-0.000292359
0.000119438
-3.54095e-05
-3.3135e-05
9.74944e-05
-1.85145e-07
-0.000297309
0.000394322
-9.59148e-05
-5.27301e-05
-6.94944e-05
7.91275e-05
-3.26123e-05
-2.81086e-05
0.000230802
-0.000188957
-1.31777e-05
6.59949e-05
-1.88373e-05
9.34751e-05
-7.46349e-05
0.00021425
-2.8293e-06
-0.000110658
-0.000236492
0.000353519
0.000234286
-5.2035e-06
0.000237426
-0.000313036
-0.000106416
3.41448e-05
6.00825e-05
2.50313e-05
-8.5113e-05
-7.10672e-05
9.55118e-05
-2.44448e-05
-2.41315e-05
-5.85369e-05
-0.000281599
0.000413502
-0.000129458
0.000121594
2.7989e-05
-3.17215e-05
-2.75628e-05
5.92844e-05
-0.000199445
2.24643e-05
0.000177066
7.23379e-05
-2.95267e-05
-4.63789e-05
6.99642e-05
-0.000278192
0.000122332
0.000167534
-1.23085e-05
-0.000104374
-0.000311104
5.39584e-05
0.000263419
-9.15132e-05
2.05734e-05
0.000297049
-0.000243255
-6.09588e-05
6.17625e-06
0.00014121
-6.62455e-05
0.00027617
-0.000291817
1.63009e-05
0.000124916
3.56296e-05
-0.00015907
-9.15757e-05
-8.45786e-05
0.000102109
5.09265e-05
-0.000107698
-2.35877e-05
0.00013131
-1.57531e-05
5.54139e-05
-3.96606e-05
3.47816e-05
4.45086e-05
7.06866e-06
5.83356e-05
0.000171949
-7.93848e-05
-0.000145432
-2.30599e-06
-0.000250129
6.33299e-05
-1.69488e-05
-4.35328e-05
5.52425e-05
-8.21755e-05
2.69332e-05
0.000451693
-0.000172458
-0.000277698
-7.40117e-05
-5.11687e-05
0.000378749
-4.36213e-05
-0.000333306
0.000114582
-7.90447e-05
-3.55326e-05
-0.00029995
0.000148692
-0.00012481
0.000137154
8.68463e-05
-0.000218389
0.000131988
4.64068e-05
-7.43225e-05
2.7916e-05
0.000246632
-0.000159267
-3.94992e-05
-3.90956e-05
-6.16848e-05
7.15936e-05
-9.90868e-06
-8.28853e-05
5.50062e-06
7.73895e-05
-0.000101774
7.51536e-05
2.66208e-05
-0.000220921
-0.00012822
-1.99233e-05
8.11536e-05
-4.12552e-05
8.32856e-05
-0.000316407
0.00023829
-9.7294e-06
2.20778e-06
-0.000340878
-0.000369562
3.15376e-05
0.000339289
9.90712e-05
-8.92023e-05
2.28587e-05
-1.62919e-06
-0.000315308
-9.15763e-05
0.000408584
1.12191e-05
-0.000317189
-7.99555e-05
-2.64561e-05
9.15975e-05
-8.70277e-05
2.25463e-05
-7.09437e-05
-9.15037e-05
5.22543e-05
3.92499e-05
6.79383e-05
-6.31169e-05
-4.8213e-06
7.61029e-05
-8.96416e-05
-7.68908e-05
5.54266e-05
2.14642e-05
6.13195e-05
-6.30681e-05
1.74858e-06
-4.31785e-06
-0.000195034
7.75918e-05
-0.000356477
9.22153e-05
-0.000124844
3.26377e-05
-1.78832e-05
-0.000211605
-0.000107174
-0.00010052
0.00020787
0.000291695
-0.000212108
8.63257e-05
2.63034e-05
7.11757e-05
-4.37374e-05
-4.77655e-05
-0.000124143
-0.000119442
0.000243845
-9.07476e-05
0.000124979
-3.42159e-05
-0.000173269
0.000281172
9.11827e-05
0.000198059
-0.000165314
5.76457e-05
-0.000288727
1.00102e-05
0.000279342
-9.1231e-05
-8.76111e-07
9.21102e-05
-0.000271908
-9.23894e-05
3.92281e-05
4.61027e-05
-5.19704e-05
-2.16888e-05
-5.90938e-05
6.44595e-05
6.61657e-06
-6.57103e-05
0.000116457
-0.000108478
-7.96503e-06
1.03609e-05
5.75774e-05
-4.66916e-05
-2.9435e-05
-7.1741e-05
3.05731e-05
4.11679e-05
4.79591e-05
-7.1853e-05
2.38938e-05
-0.000178067
0.000158471
3.87202e-05
8.66291e-05
-0.000164416
7.78297e-05
1.28366e-05
-0.000300951
-8.09412e-05
-0.000267525
0.000349594
-1.78721e-05
9.03362e-05
-7.24614e-05
0.000141833
6.08234e-05
1.88531e-05
-5.495e-05
-0.000176471
0.000109037
6.74741e-05
0.000214518
-0.000105
-0.000109414
-1.84846e-05
-4.40783e-05
6.25629e-05
-0.000185772
0.000273097
9.77564e-05
-0.000134222
3.64793e-05
-7.15155e-05
5.87092e-05
1.28064e-05
-7.4054e-05
0.000100321
-2.62641e-05
6.53114e-05
-2.99561e-05
-3.53553e-05
9.09341e-05
0.000217144
0.000235883
-1.16732e-05
4.77268e-05
-0.00010711
0.000173335
-5.01436e-05
-0.00021453
5.97497e-05
-9.00092e-05
3.026e-05
1.02224e-05
-8.12897e-05
-0.000110441
-0.000116275
-7.4706e-05
2.31185e-05
5.15876e-05
-0.000261774
0.000119208
-9.78302e-05
0.00011595
-2.592e-05
-4.58209e-05
-5.03772e-05
-4.59031e-05
-0.000138404
5.55278e-05
9.77194e-05
-1.84286e-05
-2.55012e-05
0.000123269
0.000143385
3.5864e-05
-0.000179204
-0.000119064
0.000109015
1.00585e-05
-0.000111677
-5.74964e-05
0.000169253
-9.13079e-05
-2.00447e-05
0.00011136
-8.88352e-06
9.30262e-05
-0.000170446
7.74859e-05
-9.24511e-05
0.000135269
-4.27993e-05
4.53692e-05
2.46362e-05
-4.6432e-05
-3.78694e-05
8.86505e-05
-5.07788e-05
0.000175257
-0.000266932
9.19602e-05
0.000179622
0.000215762
-0.000390062
9.11899e-05
-0.000198192
-1.31415e-05
-0.000293322
0.000307448
-6.55636e-05
4.70791e-05
-6.81479e-05
3.95546e-05
-0.000384404
9.24284e-05
-4.82341e-05
-7.46821e-05
6.24826e-05
-9.14562e-05
2.89742e-05
5.24057e-06
5.6079e-05
1.0218e-06
-1.59324e-05
3.51668e-05
3.01446e-05
-7.24996e-05
-0.000170035
0.000243407
1.82279e-05
8.32593e-05
-0.000101481
0.000450774
-0.000198166
-0.000249567
1.14548e-05
-5.62655e-05
4.48107e-05
-0.000105558
2.08981e-05
8.46619e-05
-0.000233844
0.000106521
5.4717e-05
-0.000264262
0.000210467
-4.59786e-05
-3.0912e-05
-3.01236e-05
-8.145e-05
-3.31258e-05
-2.69966e-05
6.01224e-05
2.30897e-05
9.46782e-07
-7.11532e-05
2.7265e-05
4.38881e-05
6.32857e-05
4.39821e-05
-9.15666e-05
4.75859e-05
-0.000143587
0.000327635
6.57803e-05
8.74353e-06
3.82105e-05
-8.42035e-05
4.59935e-05
-0.000190596
1.44993e-05
0.00017618
-0.000327987
0.000223188
-0.000234408
-7.71567e-05
0.000312442
-8.94302e-05
9.63386e-05
1.82474e-05
9.16554e-05
-8.14151e-06
0.000124792
-0.00035459
3.94522e-05
7.81192e-05
-0.000105401
-7.53843e-05
0.000127276
6.31508e-05
1.12582e-05
-8.79364e-05
7.00668e-05
-0.000194821
4.50952e-05
7.32091e-05
-0.000118299
7.22232e-08
-3.26947e-05
-0.000218484
5.73776e-05
-0.000138858
4.81267e-05
5.89178e-06
-7.45448e-05
6.86533e-05
0.000125496
7.09645e-05
-0.000196337
0.00032322
1.36862e-05
-4.19177e-05
-0.000325792
0.000303219
-0.000317163
1.38504e-05
8.32644e-05
-7.52753e-05
1.23422e-05
0.000162484
-0.000177784
1.89625e-05
-0.000299902
0.000302228
-1.8881e-06
-0.000103536
-0.000195586
8.39987e-05
-0.000156455
0.000128546
0.000443743
-0.000225251
0.000267678
-7.76684e-05
-0.000189453
-0.000189048
-2.35833e-05
0.000212876
-0.000150528
5.80983e-05
-8.57592e-05
-2.18017e-06
9.17555e-05
-3.20052e-05
0.000124229
-9.31438e-06
0.000101781
-9.24513e-05
9.02038e-05
-6.09919e-05
-0.000159256
6.64954e-05
-7.85091e-05
-0.000251392
0.000332661
3.57458e-05
-7.4574e-05
1.0142e-05
-6.72276e-05
0.000240985
-0.000205861
0.000259243
-5.28027e-05
4.82467e-05
-8.6114e-05
-0.000137336
0.000117914
1.94378e-05
-7.94711e-05
4.39635e-05
5.00795e-05
-9.11746e-05
1.71233e-05
-0.000100183
-7.26775e-06
0.000107464
-4.41346e-05
6.12299e-05
-1.70953e-05
-9.49844e-05
8.56837e-05
-0.000212488
8.19248e-05
0.000130607
0.000138976
7.56327e-05
-0.000104457
0.000230696
-9.58808e-06
5.87781e-05
-5.60301e-05
-3.96192e-05
-3.03006e-05
6.992e-05
-0.000343502
7.29892e-05
0.000184821
2.83349e-05
-0.000212975
-2.4912e-05
9.8126e-05
-7.3286e-05
4.37593e-05
-3.78767e-05
-2.21526e-05
7.91405e-05
8.61587e-05
0.00010984
6.62717e-06
0.000267265
-0.000125399
0.000145561
9.90546e-05
-0.000244196
0.000267716
0.000177255
0.000135355
-0.000143631
8.29345e-06
9.25971e-05
-0.0003174
8.31188e-05
-0.000176663
8.18537e-05
3.79736e-05
-7.75927e-05
-6.05364e-05
2.74107e-05
0.000301246
-0.000154335
-0.000146411
-0.000129817
3.19991e-05
5.89889e-06
-0.000111454
-0.000252915
0.000178075
7.50147e-05
0.000129514
-0.00036198
0.000232775
7.30268e-05
-3.17769e-05
-4.12502e-05
4.92014e-05
4.26959e-05
-9.18965e-05
-2.70322e-05
-5.17616e-05
7.87944e-05
-0.000120701
0.000106244
1.44625e-05
-1.29525e-05
0.000198094
4.32756e-05
-5.64532e-05
-0.000179937
-2.51564e-05
-3.52636e-05
-0.000152523
-4.3883e-05
0.000196563
0.000167545
-8.34228e-05
-8.40947e-05
5.46777e-05
-0.000196423
-0.000148036
2.56458e-05
4.94775e-05
-8.75686e-05
3.80914e-05
1.12188e-05
-0.000130273
0.000219763
-0.000115649
-0.000103973
-7.12497e-05
6.16622e-05
-3.88992e-05
-0.000212071
0.00025161
-1.64171e-05
6.43762e-05
0.000120827
5.07436e-06
0.000191081
-2.57307e-05
-3.07786e-05
8.59965e-05
-2.75474e-05
7.67494e-05
-7.99475e-05
9.09904e-05
-1.10428e-05
-0.000239474
0.000201177
-0.000188214
-0.000157695
-8.72369e-06
-0.000290654
0.000178625
-6.65307e-05
2.58438e-06
-5.81425e-05
-6.94492e-05
-9.49386e-05
0.000240902
-7.06645e-05
-6.77271e-05
8.38509e-05
0.000259049
0.000194143
-4.83768e-05
6.85076e-05
7.95296e-05
-0.000137658
-8.23008e-05
-3.64564e-05
0.000118761
0.000415037
-0.000168455
-0.000243548
9.2622e-05
-0.000108091
1.54772e-05
0.000290717
-4.37973e-06
-5.73049e-05
0.000147457
-0.000116674
-9.74851e-06
-0.00012757
1.26366e-05
0.000172342
0.000148913
-3.74522e-06
-0.000130404
0.000305906
-0.00038205
8.16727e-05
0.00031947
-6.43078e-05
0.000129742
-0.000116624
-1.31094e-05
-3.70597e-05
-0.000188998
-0.000121574
2.6344e-05
9.52353e-05
4.02401e-05
-5.59929e-05
7.09141e-05
-0.000155578
-0.000192672
0.000177367
-0.000135345
4.73221e-05
8.80318e-05
-8.86064e-06
-7.10868e-05
-3.38225e-05
-5.9955e-05
9.37799e-05
-0.000357704
8.23182e-05
-0.000143261
-6.50347e-05
0.000208345
0.000350557
-0.000219279
-0.000223169
0.00020689
1.65088e-05
0.00023868
1.93295e-06
6.93257e-05
-3.11148e-05
0.000127446
-1.97593e-06
6.25946e-05
0.000156808
-0.000237286
8.07249e-05
-0.000106344
0.000101535
2.46284e-05
-0.000131871
0.000107265
4.81375e-05
-6.86233e-05
2.04859e-05
-0.000121634
0.000122521
-8.70357e-07
-0.000344019
0.000110624
4.34891e-05
2.26231e-05
-6.61122e-05
3.00146e-05
-6.78913e-05
-8.45407e-05
-0.000264716
0.000350873
9.58691e-05
-0.000301131
5.56396e-05
4.78913e-05
-0.000103529
-8.95839e-05
-3.11092e-05
2.90719e-05
-0.000130703
2.49545e-05
-2.20565e-05
1.19691e-06
0.000237959
-0.000182319
-1.99886e-05
-9.18482e-05
3.56823e-05
0.000240984
0.000139181
-0.000162739
-8.23546e-05
-9.41781e-05
-2.83227e-05
0.000339222
0.000132105
5.20687e-05
-0.000184119
5.2509e-05
6.14964e-07
0.000284175
-0.000282323
-0.000263179
0.000340953
-7.65646e-05
3.6476e-05
9.76127e-05
-0.000121251
-4.70713e-05
6.43203e-05
6.55054e-05
-5.44683e-06
0.000134014
-0.000257876
-5.857e-05
4.41085e-05
-0.00027803
0.000134992
0.000143444
6.37676e-05
-9.13142e-05
0.000263567
-0.000118789
0.000109161
-0.000136885
0.000125973
9.13706e-05
-0.00016738
7.60474e-05
0.000358369
-0.000231773
0.000108786
-0.000182636
7.3895e-05
0.00011667
-1.06132e-05
-8.80915e-05
6.13213e-05
7.67037e-05
-0.000138008
0.000168835
-0.000240481
-1.05497e-05
-6.09656e-05
-6.56039e-05
3.22478e-05
3.33564e-05
5.75136e-05
-5.16216e-05
-1.19923e-05
5.53912e-05
0.000179932
-8.78063e-05
-7.14202e-05
-0.00011253
-4.77106e-05
0.000160301
6.50406e-05
-2.59432e-05
-3.90974e-05
-3.41799e-05
-3.13209e-05
6.55011e-05
-0.000139937
0.000147311
-0.000283986
0.00040297
-0.000117326
2.66154e-05
-0.000106567
7.87151e-05
1.22754e-05
1.04804e-05
-9.27784e-05
-9.5297e-05
-2.62712e-05
-8.89059e-05
0.000170697
-8.17339e-05
5.96208e-05
-8.44395e-05
2.4819e-05
-2.98525e-05
-0.000129204
0.000159136
-0.000123722
-6.99505e-05
-0.000121869
5.76743e-05
6.42032e-05
8.39668e-05
-9.62949e-05
3.55773e-05
-0.000175458
-5.98453e-05
-2.25729e-05
8.24181e-05
0.00013038
5.68772e-05
-0.000187196
0.000129658
-0.000298947
0.000170066
0.000107887
5.96813e-05
-0.000215177
0.000147999
0.000108978
0.000251569
-0.000356546
2.96544e-05
-0.00025256
-0.000172951
7.99052e-05
0.000138284
-0.000228968
-0.000264888
0.000398567
-0.000130529
-3.30612e-05
8.35855e-05
-0.000172187
8.86471e-05
0.000276319
-6.92506e-05
-0.000206407
8.49419e-06
0.000130713
-0.000354591
7.16931e-05
-0.000339053
4.29983e-05
0.000297669
6.58345e-05
2.4797e-07
-7.09711e-06
-0.000281117
0.000288736
-0.00032438
0.000283627
5.07743e-05
0.00024892
-0.000155929
-9.26837e-05
2.20497e-05
-0.000120351
0.000109842
-4.00675e-05
5.15223e-05
0.000119625
5.56367e-05
-0.000175217
6.12402e-06
-8.48886e-05
0.000285094
-4.05709e-05
-0.000229687
-7.48257e-05
7.82213e-05
-1.69279e-06
-0.000157748
1.91891e-05
0.000138574
8.28999e-07
0.000142592
-8.84795e-05
-0.00019219
0.000280675
-8.24756e-05
8.48424e-05
-2.36579e-06
4.21115e-05
-0.000137781
9.56912e-05
-1.91663e-05
-7.23456e-05
0.000186659
-9.12515e-05
-2.50698e-05
0.000116333
0.000301694
-6.94307e-05
-0.000231183
-3.46539e-05
6.19743e-05
-2.62722e-05
5.67369e-05
-0.000117979
-3.69583e-05
0.000241754
-3.55847e-05
-2.33305e-05
5.89153e-05
-1.46731e-06
-7.17388e-05
-2.92313e-05
8.86054e-05
-5.93723e-05
0.000208241
4.08911e-05
-5.89858e-05
2.72642e-05
-0.000134575
1.37831e-06
0.000133231
-7.50716e-05
0.000117202
-0.000122724
1.63873e-05
0.000136233
-0.000337737
0.000210201
4.45492e-06
-4.45492e-06
0.000152447
5.85298e-06
0.000308812
-0.000314408
-0.000164572
0.000341024
-0.000175732
7.96699e-05
-9.0533e-05
1.08645e-05
-9.79909e-05
0.000297122
-0.000239745
0.000221568
1.91343e-05
0.000225118
-0.00011696
-0.000107944
0.000322276
-0.00022511
-8.8188e-05
0.000105835
9.97148e-07
-8.69491e-05
-0.000139235
-0.000186034
3.93745e-05
2.56661e-05
0.000120112
8.02423e-05
-0.000200232
-0.000234731
0.000237403
-3.77193e-05
9.24898e-05
-4.43371e-05
-2.89488e-05
9.5008e-05
-0.000126586
0.000358315
-0.00023052
-0.000281685
-6.07627e-05
3.71237e-06
-8.61867e-05
3.48696e-05
6.67129e-05
-0.00010158
-5.515e-05
6.57814e-05
-1.06314e-05
-0.000116742
-9.57011e-05
0.000278107
-0.000147685
0.000175675
-9.69071e-05
1.87235e-05
0.000105655
0.000170466
-7.73751e-05
0.000188497
0.000106726
-4.6471e-05
-6.02515e-05
0.000226935
-9.29078e-05
-5.389e-06
6.1722e-05
0.00011392
-0.000305157
0.000192232
0.000284529
-0.000128679
-0.000155558
-4.74446e-05
-1.69224e-06
4.91369e-05
0.000393659
-1.30793e-05
0.000219711
-4.42214e-05
0.000268716
8.81741e-05
-0.000355089
-7.39597e-05
7.44956e-05
1.01085e-05
-0.000173401
0.000100376
5.75731e-05
-0.00014704
0.000222115
6.70132e-05
-0.000288154
-1.04811e-05
7.42494e-05
6.56922e-05
-3.07115e-05
-3.49807e-05
0.000145891
0.000212728
-0.000248097
0.000312855
-5.77386e-05
0.000107727
-0.000145756
3.80423e-05
6.09744e-05
2.45395e-05
1.22164e-06
5.69746e-05
2.83566e-05
-8.5329e-05
6.64698e-05
-0.000307167
-8.09745e-05
-0.000261425
-4.14208e-05
0.000305899
-0.000119578
0.000365351
-0.000241893
8.40543e-06
-0.00034971
0.000310556
4.12871e-05
8.56115e-05
-1.75655e-05
-0.000143365
0.000154721
-1.12728e-05
-6.81061e-05
6.15784e-07
6.77224e-05
0.000203934
7.09155e-05
-0.000263125
0.000369745
-0.000252119
-0.00011749
-0.000428884
0.000166183
0.000266103
5.87595e-05
-0.000320621
3.2983e-05
-7.35967e-05
4.0614e-05
0.000252171
-0.000361469
0.000112056
0.000382444
-0.000130297
-0.000248009
3.11987e-05
-7.42107e-05
4.30122e-05
4.62189e-05
4.78011e-05
9.93128e-05
0.000120563
8.77971e-05
0.000149521
-6.15954e-05
-8.78963e-05
0.000265241
-0.000169892
-9.4958e-05
-9.66456e-05
0.000350204
-0.000248972
5.51838e-05
0.000156899
-4.79341e-05
-4.42627e-05
0.000105598
-0.000250644
-5.4262e-06
0.000257714
7.00308e-05
-0.000332985
-6.81379e-05
3.39583e-05
-0.000227582
0.000142404
8.52808e-05
7.18064e-05
-2.16779e-05
-5.01284e-05
-1.49931e-06
0.000189149
6.60748e-05
-2.24204e-05
-0.000146753
-6.48731e-05
0.000211752
7.50549e-05
-0.000309169
-3.26241e-05
-2.69689e-05
5.9593e-05
6.15526e-05
6.65884e-06
-6.82115e-05
-0.000163817
-0.000261315
-6.91586e-05
-5.27e-05
-4.51291e-05
0.000113614
7.32918e-08
-0.00034735
7.46285e-05
0.000221082
-7.15359e-05
2.20449e-05
-9.46306e-05
-0.000218957
0.000111023
0.000260751
5.08023e-05
-5.49388e-05
0.00020857
-0.000153168
0.000104182
-8.59475e-05
-3.96925e-05
-8.80137e-05
0.000230246
-0.000356533
0.00012981
0.000116028
6.65939e-05
-0.000182615
0.000181425
-0.000173165
-4.09112e-06
4.7675e-05
-0.000124907
-0.000142478
0.000272866
-0.000102748
0.000233186
-0.000217132
-1.4985e-05
0.000102933
-6.0858e-06
0.000103849
5.48996e-05
6.44699e-06
-6.13466e-05
9.5375e-05
-3.63246e-05
-5.90496e-05
-0.0002181
7.49039e-05
-8.12716e-05
6.24368e-05
-4.24889e-05
-2.05241e-05
6.30131e-05
-0.00026996
-0.000104884
6.2691e-05
-1.94154e-05
2.44733e-05
5.42477e-05
1.57728e-05
-5.82618e-05
-8.01452e-05
4.92276e-05
3.09176e-05
7.06073e-05
-3.94083e-05
2.70291e-05
-7.11636e-05
-6.4358e-05
-7.09783e-05
0.000244956
-0.000321232
7.22046e-05
7.86687e-05
-0.000225289
7.77065e-05
-2.24638e-05
0.000249222
-0.000387574
-0.000379294
0.000247975
0.000215332
-0.000340686
8.38063e-06
0.000203041
-1.98503e-06
-0.000200746
0.000137907
6.0815e-05
-0.000198663
-5.89145e-05
5.57564e-06
5.33389e-05
-0.000122182
-0.000253984
-2.85577e-06
0.000281338
-0.000277955
-6.48226e-05
3.36728e-05
3.11497e-05
9.4821e-05
-9.01152e-06
-8.58057e-05
0.000163762
0.000205948
-0.000167659
-0.000237544
0.000109607
0.000128122
0.000368997
-0.000255444
-0.000112013
-5.86179e-06
-5.9742e-05
-6.66981e-05
-0.000100968
0.00018017
8.83098e-05
-0.000268273
0.000159194
-0.000213684
3.63279e-05
2.93643e-05
1.2128e-05
-5.95726e-05
6.70063e-05
-3.97247e-06
6.59982e-05
-0.000324087
7.97784e-05
-0.000109896
-0.000119381
1.92125e-05
-5.47687e-05
6.48794e-05
-1.01107e-05
-2.08772e-05
9.5623e-05
5.2473e-05
-0.000148074
0.000233201
0.000228105
7.45659e-05
0.000281982
-0.000167165
-8.41365e-05
0.000138576
0.00026106
-7.11527e-05
-8.92692e-05
4.54457e-05
-0.000234282
-0.000103926
7.41201e-05
3.5692e-05
3.92263e-05
-7.49182e-05
-4.50532e-05
0.000126685
-8.16196e-05
0.000324496
-0.000211377
3.37402e-05
4.30301e-05
3.13103e-05
-7.43403e-05
-0.000100471
-5.99663e-05
-0.000267068
0.000327548
4.8432e-05
-7.15866e-05
2.31545e-05
8.66369e-05
-0.000366988
0.00013713
-0.000300924
0.000125844
4.27852e-05
-0.000168619
-5.86261e-05
-1.60796e-05
9.36849e-06
0.000260456
0.000157486
4.33664e-05
3.64978e-05
-7.98639e-05
4.22844e-06
-8.54969e-05
-9.9089e-05
2.06506e-05
7.84408e-05
-2.74993e-05
0.000108226
-8.07136e-05
-7.12673e-05
4.66568e-05
-8.30948e-05
0.000279277
-0.000193193
-8.82231e-05
-1.22271e-05
0.000100456
0.000254936
-0.000314407
-0.000389307
0.000193714
0.000200603
0.000361552
-0.00023176
-3.24713e-05
9.22216e-05
-5.69932e-05
1.84325e-06
0.000129857
-0.000362828
0.000236685
-6.75491e-05
0.0002829
0.000355168
-8.47403e-05
9.05111e-05
-0.000267727
0.000176149
-0.0002424
6.6455e-05
0.000326414
-0.000320292
6.37675e-05
-0.000359902
-0.000120221
-0.000109021
0.000342474
0.000144687
0.000105496
-0.000105645
1.52837e-07
5.78524e-05
-7.53648e-05
1.75125e-05
8.90733e-05
-0.000357938
2.52338e-05
-0.000120843
9.56247e-05
9.512e-05
0.000206522
1.33523e-05
-6.96178e-05
-1.16055e-05
5.46356e-05
1.48392e-05
5.24641e-05
8.8383e-05
6.11647e-05
6.93184e-05
-7.76589e-06
-4.5269e-05
6.93169e-05
-2.29098e-05
-0.00010514
-1.12478e-05