/*--------------------------------*- C++ -*----------------------------------*\
| =========                 |                                                 |
| \\      /  F ield         | OpenFOAM: The Open Source CFD Toolbox           |
|  \\    /   O peration     | Version:  v2012                                 |
|   \\  /    A nd           | Website:  www.openfoam.com                      |
|    \\/     M anipulation  |                                                 |
\*---------------------------------------------------------------------------*/
FoamFile
{
    version     2.0;
    format      ascii;
    class       volScalarField;
    location    "850";
    object      omega;
}
// * * * * * * * * * * * * * * * * * * * * * * * * * * * * * * * * * * * * * //

dimensions      [0 0 -1 0 0 0 0];


internalField   nonuniform List<scalar> 
13917
(
0.0400365
0.0221834
4.83849
0.0235363
0.0221081
0.434364
4.52341
5.0018
5.61814
0.0651601
0.157421
0.0658735
0.0236097
12.2878
0.0261887
0.0250159
0.0222999
0.0533836
0.0646449
0.0221138
0.0222669
4.43823
0.0220935
4.99187
0.0220142
4.24656
0.0415982
0.0536348
0.753331
0.100642
0.0427019
0.0279611
0.0358069
0.0255882
0.0220296
0.670085
0.0221021
3.90284
0.0253274
6.32981
0.0219093
0.0222858
0.0215855
0.0817102
0.0220795
0.0273481
0.0525862
0.0700508
2.8096
0.02202
0.0268393
0.022344
3.2286
0.0259511
0.0223131
0.0268338
0.155145
0.0220349
0.0249901
0.0220363
10.2654
0.0221865
24.138
0.0221024
0.403191
17.2586
0.0221037
0.0220452
0.172765
0.0364908
0.0221156
5.71206
4.38566
0.0220199
2.89658
0.0768082
5.81155
0.0227428
3.9705
0.0222371
0.0222049
0.0221112
0.37326
3.89311
4.79186
0.0226427
0.0221805
15.2172
0.0265663
0.0215763
4.16724
0.0872792
0.0218842
0.0229984
15.9327
0.366992
0.120469
0.0645684
0.134252
0.106233
0.0218207
0.0323631
0.0819531
0.0231359
0.0218005
5.93763
0.45106
0.0739386
0.0223063
0.0456176
4.33543
5.58155
0.0846279
5.81308
0.0229604
3.26507
0.0220118
1.4931
5.14751
0.0259213
0.022274
0.166319
4.65431
0.0505576
0.021982
0.0228291
0.0220471
0.0219897
0.0216084
0.409765
3.6725
0.0228679
0.022104
0.0222744
4.32657
4.95451
0.0405751
0.112417
0.0220967
0.0258032
0.283188
0.0217717
0.022575
0.101806
0.0220451
5.86463
0.795022
0.0222908
0.0217448
0.0286078
0.056121
3.25183
0.0875761
0.0414576
0.0270435
6.44212
0.0349839
3.40283
8.00662
4.16409
0.0242122
0.0416937
0.022237
0.115415
0.082982
0.131848
0.0231058
0.0598421
0.0219141
0.0333327
0.0417551
6.7578
0.0920637
0.0226131
5.51645
0.0455336
3.67469
1.94347
5.80193
0.0219249
0.091452
0.044254
0.0217655
0.0221715
0.0299985
4.37998
0.346833
8.28654
0.0367325
0.123385
0.343967
5.3011
0.315432
0.0221037
0.117178
0.0402336
0.0225014
0.0218925
0.234477
7.4127
0.0261472
0.0220353
0.0554764
0.0554444
4.8289
2.12877
0.0220318
0.0220481
0.0631063
4.6073
0.0224776
4.54038
6.78788
0.123836
0.0218081
0.585088
0.0551655
6.21061
0.0219699
10.93
0.0219191
0.0900282
0.0218986
3.95405
5.96764
0.0253507
2.08535
0.0273803
0.0218119
0.653117
0.0901073
0.0363019
4.88898
9.12872
0.021776
0.0284656
4.11277
4.62624
0.0222292
0.021952
5.08103
0.136765
0.0222668
0.223352
0.0962038
0.0403413
0.0372482
0.0222291
0.0452507
7.47914
0.0219323
0.117116
0.140638
0.0220231
0.022025
0.0691577
3.78516
0.0822174
0.0303287
0.0263595
0.0222713
6.01351
7.00873
0.206558
0.0218196
4.6391
7.11094
3.97648
3.89283
0.0820225
0.0222156
0.0219379
0.0528633
4.16934
0.119919
0.0247047
3.09089
0.0423991
0.0216013
8.5204
0.0220903
5.51359
0.0256823
0.022262
0.0273832
0.0411374
0.0423419
0.216249
0.0324714
0.0220379
0.325168
4.90727
6.95584
0.0219711
4.48131
0.0221727
0.0220316
0.0220192
1.15602
0.0221059
0.0986576
0.0362864
0.0218938
0.0556674
0.0231355
2.35411
0.0443372
0.0797976
0.0218065
0.0220162
4.42619
5.22894
0.0220062
0.0219182
8.57996
0.0219063
4.23214
0.0217995
3.96892
0.022381
0.487191
0.0334275
3.01779
0.0239164
2.13653
0.308093
0.0273876
0.135988
0.529225
0.0222621
3.78225
0.119688
5.83578
0.0247591
6.62989
0.0292061
4.70335
0.248801
0.11227
0.108954
4.76629
0.0222173
0.0433899
4.30419
0.0221708
0.0234691
6.36262
0.285687
0.0225415
0.22739
0.687268
0.0218627
6.19408
0.316005
0.0220838
0.0218975
0.0221802
0.0217396
0.335186
5.70318
0.686495
4.31653
0.0220177
0.131516
6.68721
0.0427327
4.45073
4.01616
5.85437
0.0217695
0.209553
0.021877
11.0544
0.0220342
3.76314
0.0961148
0.0245874
0.022199
0.059899
0.09988
0.0726981
8.01038
4.47434
9.59522
0.0472626
0.0609927
0.0219598
4.7759
4.29368
0.0220526
0.974788
0.022043
0.306745
0.0223788
0.0222272
0.0231748
3.63111
0.023137
3.47248
5.91292
0.141366
0.473783
0.0222498
0.484284
0.426752
0.0220395
0.317274
0.0221552
0.0220295
0.100899
0.0222616
0.0220187
0.0218732
0.347481
0.0222481
5.55685
3.99172
5.28028
0.315424
3.41636
6.18456
0.0420871
0.0220235
0.173489
0.0251137
0.0297759
0.0220962
5.78002
4.51083
4.01727
0.024985
0.109201
0.0245416
0.0257857
0.0722955
0.022937
0.238322
0.0222949
0.0220969
4.15029
3.65976
3.66822
0.129702
6.32207
3.76354
4.27824
5.90653
0.0216381
0.0576509
0.0229984
0.0220775
0.984287
0.0535737
0.021903
0.062103
0.039893
5.92623
0.0220354
0.117515
13.8915
0.770437
4.42237
0.0222555
0.0220597
0.0224634
0.0351768
0.021772
4.35731
0.529898
0.032321
5.33928
0.0267553
0.117546
4.39536
0.81095
0.13681
0.30338
0.117163
0.0605759
0.163276
0.0426596
0.155901
0.601165
0.0481483
0.0822856
0.0218784
2.51124
0.0276064
0.0216639
0.033704
0.0228496
5.46119
5.82983
0.0219013
0.0216193
4.54328
8.76422
0.0222618
5.76753
0.0228179
0.229436
0.0219152
5.10977
3.09826
0.0285355
0.0223263
3.39957
0.264663
7.00254
0.0222694
6.621
2.4103
8.79558
0.0216736
4.58495
6.27289
0.0427987
0.0218905
0.0222887
0.0769429
0.342493
0.0218348
0.0219036
0.0219605
0.021955
5.21841
1.0515
0.0421849
0.335916
0.0219711
0.0218279
0.106866
5.1295
0.0334863
0.021927
0.0220254
0.0220652
8.71246
5.84335
0.0221746
0.0220645
0.208636
0.0423806
0.0334022
0.0220527
0.0232475
0.0270127
0.0804396
0.420895
0.345559
0.177787
0.0982426
2.36614
0.0777807
0.0219809
6.24345
0.0220688
0.0237591
0.0242193
2.27337
0.0762751
0.0218342
0.770893
0.113708
11.9378
0.0992628
0.035739
0.0420336
0.0221901
6.71911
0.53405
4.36678
0.0222103
0.0295649
0.335694
4.01183
24.3217
0.0676975
0.150458
0.0249511
0.0241529
0.0220553
0.0543171
0.0874482
0.0221631
0.0546592
0.13453
4.45759
6.30419
0.0240577
0.113912
2.08879
0.0284974
0.0223872
3.50389
6.34982
5.67487
0.30124
0.0216229
5.56723
0.0753901
0.0218701
0.0316188
0.0753929
0.0344343
0.098687
4.0034
0.159185
0.0377629
6.66229
0.0231483
7.47646
0.0222379
0.022168
4.5526
6.28401
0.648256
0.0231427
0.022559
0.0220677
0.043043
3.33924
0.124207
0.0243605
0.127335
0.0587773
0.0219197
2.16249
0.120652
0.237139
0.0219526
0.154281
0.0228244
9.67427
0.0664901
0.0759969
0.0298978
0.0218837
0.0216824
0.0220826
0.120745
0.0277102
0.345375
7.03395
0.0590969
0.0218719
0.155668
0.675301
1.21691
0.0219098
0.027082
0.0219114
0.0287912
0.0251561
6.09175
0.0222291
4.79542
0.0285418
0.155638
0.0885412
4.40581
0.0792183
0.0222415
4.40022
17.8495
0.0220327
0.0241372
3.0767
0.239166
0.119813
0.0222376
0.0223559
0.361386
0.0247253
0.0720253
0.0657621
0.0216835
0.0553528
4.87236
0.0218921
0.0229565
0.0219803
5.46223
0.0222658
0.0246352
6.11196
0.0233285
6.26798
0.0271258
0.036514
0.0219729
0.0506768
0.0220273
0.0590497
0.0218891
0.0862442
0.0228195
26.8598
3.02784
5.15714
0.0223389
0.0222066
0.073707
0.0486647
4.80022
5.4715
0.0528672
0.0220327
0.344357
0.661729
0.240818
0.296222
0.0507605
3.92305
0.0394677
0.0403452
0.149269
0.18495
0.0521185
1.09948
0.0515668
0.0235074
0.0802943
0.0274999
0.0217398
0.0285751
0.0456089
0.0279389
0.0220343
0.0219314
0.0590768
0.0233204
0.0729158
0.022035
0.0220572
0.0222735
0.0231432
0.0215394
0.0258614
0.0220003
5.29097
0.0645937
0.35742
0.0217958
0.0222474
0.0482319
0.0616542
0.0226859
8.22972
0.0805845
11.2438
0.0286436
0.12447
0.0224224
0.022269
0.0219379
0.0231523
7.85572
0.0222552
4.83427
0.0261492
6.02291
0.0497614
0.0819534
0.152964
0.0216796
0.022291
0.0657838
0.0220459
0.0223943
7.92674
0.0226978
0.0221806
0.0279339
0.0219455
0.0216772
0.028002
0.0286812
6.13046
0.0351929
0.0218908
0.0218832
4.03719
0.118695
0.0221915
0.0222145
8.16401
2.82706
8.68412
0.0357167
0.0235172
0.0217874
0.0216589
0.049052
0.0362599
0.232438
0.0251618
3.8613
0.0223005
0.0236214
9.38638
0.0220493
0.0277405
0.02199
0.022081
0.0441218
0.0432529
0.0224814
6.21301
4.34719
0.0899417
0.0219771
0.021594
0.120469
4.19798
0.0222612
1.67614
0.0215939
0.0429723
0.0217294
0.0217801
0.368394
0.0219853
3.21221
0.0401762
0.0222733
0.0216174
0.0220673
0.0219132
0.0228718
4.1503
0.0218569
0.0217671
5.19223
5.85154
0.0389906
0.0472444
0.0682501
0.0251218
0.0217857
0.0280777
5.13547
0.0912374
0.0221307
0.0222676
5.57632
0.0363018
4.39554
0.0222664
0.022798
6.50967
0.0337097
0.0225585
7.97381
1.72346
0.0219098
0.134194
0.0219353
0.0219613
0.0217832
4.3689
0.0215322
0.0219099
0.02178
3.41265
0.0246511
0.227319
0.0631627
0.0217701
0.032795
0.0221746
4.32282
0.0219674
0.0218742
0.0221816
0.125243
0.0221738
0.159006
5.83597
4.81019
0.0265513
0.381346
5.34795
0.0220115
6.9509
9.5987
4.83299
3.43944
5.09522
37.1101
0.144584
0.0223139
3.9201
0.0336466
4.20832
0.0216681
0.0218801
0.0221906
0.0221678
0.025933
0.0310191
4.58607
0.0218698
0.0220716
6.47801
0.299933
0.0220671
0.0378105
0.0296875
0.0222059
2.8109
0.038299
0.023742
0.0245888
5.75446
7.82275
1.29687
0.0217136
0.267703
0.113464
4.60864
5.88232
0.0900219
0.0219109
0.0224839
0.0223027
0.0214991
0.0232349
0.0216308
0.027127
0.0384085
5.5943
0.134172
0.0219246
0.121424
4.30209
0.0417948
0.0223033
6.65364
0.0218769
0.0223153
0.0377265
6.56431
0.0221738
0.0219536
4.54745
0.209912
1.6327
0.108062
0.714409
0.0219285
0.177177
0.022332
0.0220012
0.0223289
4.34788
6.37702
0.0217591
0.0216137
0.0220088
3.32723
0.0230097
0.0297458
0.0220464
0.0224229
0.17134
0.0217858
0.060298
0.355719
3.6651
0.0219925
0.084096
0.0242297
4.58953
4.26395
0.0220203
4.48453
0.0729453
1.43998
0.0221727
3.57796
0.0222454
0.0266501
0.0428785
0.108187
4.56532
0.280453
0.17585
6.42492
0.0218655
0.286179
0.0217697
0.0274797
4.54558
0.0220869
0.0222529
0.0228045
0.0221805
5.15868
0.0216748
0.0220844
0.0562722
0.0473267
0.0507941
0.602502
0.132857
7.67463
0.0655211
0.0355077
0.0393607
4.75121
0.0401272
14.2256
4.16615
0.0253921
0.0217882
3.28977
0.241613
0.0222946
0.111997
0.0338991
0.0223059
0.0263325
0.0222238
0.0428115
0.0222921
0.0497397
0.108013
0.0218848
0.061437
0.0218062
0.06016
0.0218849
0.0260364
0.0588969
0.0234608
0.0220955
0.0217691
2.10221
0.0819277
6.15817
0.0220162
0.0221334
0.0601493
0.0219911
0.0924666
0.0820654
0.0223078
0.0966468
0.0217905
10.0557
0.0222592
0.0372819
5.53863
0.282826
0.0219357
0.0236013
6.80808
0.0220038
0.0219232
4.4599
4.22261
0.0242382
0.164934
0.0221045
0.0220883
4.3918
0.0230206
0.0216898
0.246693
0.0218097
2.57855
0.0221986
0.0216929
0.0221907
0.135242
3.68724
0.0221201
0.022261
0.0219294
0.0258709
0.0220779
0.988317
0.0593836
0.0222689
5.69973
0.0498857
0.280969
3.79186
3.62851
0.0217474
0.0222475
0.0220413
0.769305
0.0263501
3.73002
5.73418
0.0239039
4.44693
2.32008
0.0502071
0.14756
0.0701959
0.381704
4.59423
0.0637506
1.08638
3.93285
0.0646824
0.0251697
4.56068
0.0540795
0.02168
0.0232915
13.5372
0.0382213
0.021895
0.0527105
0.101914
0.0386365
4.45921
0.0237383
6.45179
0.0394902
0.227384
0.127024
0.287065
0.028983
0.0217822
0.0225767
4.82599
0.021998
0.0240846
0.0218056
0.0232631
0.0218735
0.0353088
0.153329
1.89654
0.045118
0.0580536
4.035
0.36444
0.0218661
2.92064
4.23732
0.0217295
0.0219142
0.0308338
6.70958
0.0222545
0.0702362
0.628016
0.0481071
0.0220619
0.0231055
0.0218248
0.112304
0.0395819
0.0219915
31.1919
3.94371
0.0431008
2.04422
0.0655212
5.86145
0.0232652
0.0254165
4.30955
2.66217
0.0909646
1.77198
0.0283434
0.0222764
0.0219476
0.0221783
0.02203
0.0226197
0.0528998
0.0219441
0.125982
0.0219444
0.0284795
0.0217507
0.0814112
0.124665
0.835685
0.0219995
0.284059
0.0219462
4.40208
0.0220379
0.0255521
0.0221246
0.254615
4.72174
0.142902
0.0219379
0.134493
0.0220215
0.0298165
4.2051
0.0219354
0.022348
0.0456035
0.0315881
4.44842
0.0219454
0.0297592
0.023092
0.0220426
0.0321668
0.022465
0.0217503
0.0236406
6.53513
0.0244512
0.250814
5.71536
0.0521458
3.59399
0.0242032
0.0217565
0.0309436
8.43562
0.023305
0.0365249
0.0423667
5.17507
0.0218991
5.75044
0.0629451
0.0709962
0.0217204
0.0216323
0.169702
0.0224143
0.022286
0.0335477
0.0216782
0.0243583
0.0286046
0.0710625
0.265635
4.44288
0.0251112
0.0750243
2.87069
7.55543
0.0376307
0.266512
6.57754
0.0396082
13.07
0.0236552
20.6169
5.4408
0.021661
0.022262
0.021958
0.0225733
0.0451764
0.0217521
0.0238884
0.0899993
0.0232825
0.0354361
4.31529
0.0300967
0.0241293
5.61661
0.0225643
5.67814
0.0242954
0.054193
0.0218886
6.87891
6.0093
0.0220203
0.0226926
3.74472
0.0294099
6.76098
0.0220234
0.0218077
4.45579
0.0226807
0.0443441
9.41238
0.0220661
0.0551406
0.0292372
0.0216282
0.0219057
3.86558
5.57789
0.0222026
0.023489
0.0220547
0.0265674
0.0362065
6.22052
0.0226549
2.56111
4.39074
0.221675
3.81051
0.0226294
0.123189
0.196604
0.0290121
0.0220619
0.0606347
4.13252
0.0233579
0.0464194
5.05866
3.6467
0.290258
0.0252032
0.0222551
0.0222463
0.0220684
7.46039
0.0554754
0.0237941
0.0228029
0.0243806
0.0222702
0.0219779
0.0220437
0.0737066
0.0379482
5.61494
0.0469646
4.99542
3.38461
0.0304457
0.0512118
0.0218135
0.0285292
8.34149
0.022128
0.0235602
0.0518838
0.119945
0.0561668
3.8674
0.228198
0.0218812
3.98273
0.0215958
0.0222518
0.0460613
0.0222736
0.0219269
0.173278
6.85327
0.0218158
4.26488
0.0221115
0.0217373
0.0234757
2.67656
0.0291987
0.0242665
12.6896
0.0229274
0.232571
3.41256
0.0222462
0.0480793
0.0220119
5.94148
0.0714924
0.0220448
4.17034
0.0543946
0.0790781
0.0222786
6.52844
0.029135
0.387885
0.0228961
0.0723656
6.92895
0.0217587
1.46468
0.0221115
0.062551
0.0522083
0.0222453
4.5415
0.0235845
0.11757
0.0580067
0.096777
0.0405416
0.0442627
0.0225832
5.02003
0.031839
6.98543
0.0299538
0.064905
0.0219703
0.0440557
0.0220491
0.0692269
4.70174
0.0227473
0.0218299
3.41702
0.0228185
3.12773
0.0224763
4.3701
0.253418
0.0353198
0.0219942
0.0219438
0.0221104
0.0216299
0.104399
0.056541
0.0389756
0.0258259
0.0220838
2.75419
0.0235712
0.0340998
2.25644
0.0220367
13.23
0.0516842
0.0297148
1.25473
4.39162
0.334019
4.51404
9.47343
0.0218922
0.3762
4.95483
0.350484
0.0221739
0.0222195
0.116549
4.09408
5.55056
0.662654
0.0222854
0.050643
0.0402976
3.42268
4.92406
0.0423366
0.130804
0.0239064
0.0818029
0.0905641
0.0221657
0.106252
8.05966
0.0221312
3.62152
0.0222534
0.0219615
4.76441
4.05818
0.0218526
0.0223603
0.0224748
0.0218146
0.0489659
0.180266
0.0230728
0.0219914
0.0220995
0.0403456
0.0278657
0.0275959
0.344325
0.0220293
4.12525
7.59527
4.35575
0.155293
0.0526251
1.29483
0.0335294
3.85944
1.97828
9.83372
0.022416
6.60923
3.46865
0.021771
0.0220379
0.105207
4.45311
9.83939
0.0217722
0.0220267
3.64771
4.87318
7.04835
0.0240023
0.0239209
1.856
0.0221928
3.79436
7.17564
1.12704
2.74225
0.0220668
0.0219283
0.0218896
0.0261418
4.12166
0.0403255
0.0254609
0.0226308
0.0875903
7.11024
0.0402991
6.1426
5.35511
5.23815
2.16117
0.0220522
0.0221728
4.38097
0.0216633
0.0216784
0.023048
2.82982
0.0374851
9.29004
0.133794
0.0220289
5.30535
0.0396251
0.0218771
6.08436
0.170558
0.0251572
0.0220974
5.05216
4.42026
0.0221807
7.44985
4.43517
6.19964
2.50459
0.0837574
0.0219315
0.0225614
1.9137
0.0255965
4.50485
0.0419365
3.63148
0.261347
0.0228901
0.0290529
0.0219277
0.0226944
4.66067
6.91726
0.0220685
4.88291
0.043103
0.0220341
0.0248128
0.0219389
0.164982
0.0224526
2.31641
0.0517332
0.0219224
0.0218765
0.096475
8.27329
0.0392182
0.0240045
0.0430504
0.0220439
0.0231326
0.0273538
8.73573
4.09845
4.43534
0.0217219
0.0218697
0.0223518
0.124444
0.021879
0.0223989
0.174603
0.0593121
0.91811
0.0216486
4.38929
4.0682
0.0222843
8.82026
0.117366
0.0372217
2.04504
0.0222995
5.10157
0.029525
0.0230492
0.0238965
0.0216597
0.219206
0.0224847
0.0227586
0.0308664
3.51252
3.6305
0.0222464
0.0220236
0.0235306
0.0219944
0.135535
0.0224328
0.08497
0.0235388
4.19289
0.0226573
4.36866
0.0217234
5.4287
0.0224087
0.0216436
6.9255
0.316828
0.111428
0.933308
0.044283
0.0409518
0.0220456
5.17643
0.0220646
0.0218855
0.0880984
0.0642577
9.9508
4.45262
0.124527
6.9561
0.131077
0.965466
0.0219094
0.0249501
0.0279239
4.1587
0.0248433
4.24984
4.49425
0.022186
0.0220693
0.022015
1.65118
3.33808
0.0233596
0.0221105
0.0257676
0.0281728
0.0382391
0.388295
0.328812
0.0220652
0.634633
0.0857497
8.6441
0.0728007
0.0232877
0.0239117
5.14196
0.0218866
0.089998
4.68955
0.0227235
0.0254383
0.179664
0.135671
0.0227598
6.41268
0.0243979
0.283088
0.0403711
0.03035
0.0227353
4.36346
0.0218634
0.0986079
1.45287
4.80371
0.0500542
0.0674694
0.0256066
0.0481308
0.0222659
5.00895
0.026695
0.0219834
0.0299522
0.022093
0.0222693
2.93232
0.0220692
0.0221794
0.0220474
0.133221
0.02225
0.0332309
0.0736697
0.240261
0.118607
0.0222537
0.24564
0.484303
0.228346
0.0857751
0.0272371
0.160032
4.81028
0.67497
0.0222845
7.70776
4.27151
0.0222839
0.0241496
0.0216495
0.716542
0.107502
0.0220453
1.29126
4.19515
0.0218147
0.0222172
3.78577
4.17389
0.0657554
0.0216629
11.3261
3.26871
3.26045
0.0220303
4.1743
0.0830596
0.0714014
4.38015
0.0262016
0.0216614
0.0301539
0.194029
0.0321165
4.0391
4.45362
0.0218243
6.49271
0.527608
4.55222
0.0217211
0.0514836
0.022293
0.0219281
4.23747
3.46795
0.280739
3.97791
0.0293384
0.0509664
0.0222289
4.63563
5.92835
0.0220492
0.0222628
0.031816
0.0218096
0.0514044
4.60763
7.46873
0.0515535
0.022481
0.0221456
4.22307
0.0250054
0.0533179
0.0218035
0.0229881
0.754952
3.85766
0.433698
2.93517
0.0221714
0.303694
0.0223302
0.0480931
9.78732
6.81606
0.022074
0.0222939
0.0356729
0.025722
0.0221938
4.50435
4.17425
0.0217862
0.0215222
0.0221913
0.0219716
2.69667
0.0217373
3.93541
0.104579
0.0639985
0.0218621
0.0481695
4.5862
0.0337696
0.459004
5.84467
0.0222487
7.25176
0.0331364
0.0355483
0.369102
7.24855
4.61769
0.0606386
0.0219022
0.261352
0.0217478
0.0253124
0.0222123
3.93685
0.0317597
2.68497
0.250931
0.0490442
0.022125
0.302871
0.0269408
0.0222704
0.254285
0.021603
0.0379788
0.0343412
0.0221761
9.84999
0.0233888
0.551365
0.0228286
0.0219414
5.55665
3.76113
0.0241164
0.0325018
0.039356
0.0583501
0.0592061
0.0262485
0.025948
0.0252429
0.225901
0.0250436
4.06333
0.0604476
0.228995
0.118648
0.022653
4.66285
0.0216139
4.64622
0.0242232
4.31515
5.98125
9.10881
7.78087
0.310032
0.078086
0.0220149
4.4277
0.0864119
0.0220446
7.89458
5.651
0.0232784
0.0237728
0.0309194
0.0309245
0.0325004
5.30574
0.022284
0.0298327
0.0352461
0.0323149
0.0221652
0.086541
0.0216154
4.17597
0.0236625
0.135575
0.0320437
0.0400216
0.126433
3.96119
0.0876458
0.0218394
0.251196
4.42733
22.5229
0.0223938
4.20446
0.0290514
1.80431
0.0220646
0.02454
3.93486
0.0521478
5.02729
7.38231
0.0334582
4.89545
0.0219751
0.0216047
8.91777
0.059425
0.0244563
5.3656
0.0270326
0.0460705
0.0294177
0.0720235
0.022174
5.74757
5.26917
7.08171
0.283198
0.0255597
0.0575855
4.99908
0.0240574
0.0223082
0.0836386
0.0216986
0.298714
7.75622
6.42117
5.30977
0.0562799
0.0224604
4.21902
0.0216012
0.0752262
0.0222357
23.8369
0.0238177
0.0479309
3.77603
0.120682
0.022029
0.0321987
8.83534
0.0220766
0.147958
0.0217958
9.57354
4.2599
0.11633
0.0778355
0.0219549
0.216886
0.140232
0.0397789
0.0218007
0.0224953
0.0221473
0.0553002
0.0221242
0.0875149
0.0221242
0.0218045
6.3924
0.0218707
0.0269276
0.0251048
0.0222749
3.70605
0.0218659
0.03398
4.08705
0.0488658
3.96475
0.0220657
4.45263
0.0514345
5.15368
0.0235921
0.128915
0.0221748
0.0414111
0.125493
0.114561
0.263359
4.15086
0.222925
1.97105
0.0269722
0.113378
0.042053
0.902977
0.0250763
0.0221217
0.0220352
0.052432
0.0465909
3.02178
0.0541795
4.71335
6.85226
0.102748
0.0220078
4.84332
0.20342
0.0224742
0.0240715
0.0220775
4.90321
0.0220375
8.30254
0.0218579
0.0271065
4.9311
0.0795854
0.0220463
0.0220295
7.97935
0.0218766
0.024068
0.025277
0.0326353
0.0277776
0.0221657
0.15481
0.081736
0.0440069
0.334909
4.41317
3.69348
6.2406
0.0217384
0.0219933
0.103404
0.0224711
0.0475833
4.15124
3.81732
0.0216593
0.022046
3.39796
0.528713
0.0216753
0.0218412
0.0265773
13.0607
4.13031
0.0266365
0.0342343
0.0222006
0.378427
0.12807
0.141984
0.0317665
0.0443772
0.0224162
0.0385455
0.308059
0.0227698
0.0221592
0.0264333
4.68008
0.0252157
7.28069
0.0221085
3.89235
0.0366902
0.0279996
0.0217817
0.0219308
0.838505
7.88019
0.0585087
4.25968
9.68138
0.0225301
4.06782
0.144744
0.0219047
4.68471
0.264646
0.116539
0.0222539
3.52081
4.49976
0.0219609
0.0397925
4.29033
0.0453704
0.0220532
0.0217969
0.0224107
0.0239405
0.0830416
0.286771
0.0775015
0.078954
0.0217288
0.0221938
4.65074
0.0218469
0.0488532
0.0266128
0.0221377
0.0509926
0.0220288
0.0237323
0.339092
0.0220027
4.4951
0.0220249
15.5394
3.7542
0.0952757
0.0222446
0.0222928
4.20922
0.021648
0.0242339
0.0223399
0.350764
1.28486
0.0340025
3.75213
0.0421697
1.70805
0.02254
0.0704337
0.0218008
0.0221408
5.06306
3.79006
1.44881
0.0238176
0.0703337
0.0703868
4.78042
4.1306
0.3219
0.0396665
0.0215962
4.18147
0.0219163
0.0219768
0.296042
0.115722
0.0283469
0.202607
0.0475196
0.031792
0.0277964
5.08845
0.0244199
0.0219967
6.76934
0.0469041
0.0217193
3.47301
0.0220352
0.0221129
0.164529
0.156453
12.1209
0.0217361
0.0248032
0.0219205
2.23077
0.0218706
0.558566
4.27111
3.6597
3.45539
33.4159
0.0302861
4.5122
0.862687
0.0222107
0.0306764
0.0439657
0.0303854
1.22631
4.19893
4.42125
3.61023
2.43338
0.0221556
0.107535
0.0220425
4.84477
0.0287946
0.0231697
0.0241534
0.0227198
0.0218846
0.107811
4.41869
0.0217258
0.023691
0.0218683
4.64145
0.0235367
5.4313
3.86704
1.35629
0.0220955
0.0218909
4.4926
0.399718
0.0221401
0.311794
0.0222289
0.1454
0.189865
0.0965024
0.0521592
10.7153
0.0218025
0.0218025
0.23286
3.33832
0.0295593
0.0473567
0.0219401
8.68375
0.0220171
0.0219565
0.023188
0.0220004
5.16532
4.09386
1.87133
0.0604319
4.2181
0.594591
0.0216644
0.0312975
0.0217025
1.26801
0.0220016
0.0248679
0.022004
0.0219259
0.0217858
2.81919
0.0228292
1.71012
0.0216016
0.0325872
0.022971
1.55837
0.0220496
0.0317713
0.0353112
0.0708366
6.76529
0.0219221
4.26253
0.0698278
0.0459428
0.0220025
0.0219549
3.52706
16.0403
0.0220177
0.0218923
0.266545
0.241138
0.0381003
4.04666
0.0227581
0.416334
0.0314831
0.0217103
5.46046
0.0230293
4.00911
0.0220327
0.0227124
0.0221218
4.31349
3.63661
0.0216795
0.244812
0.243911
0.0220617
0.021873
0.0219073
0.261315
4.07683
0.065562
0.0242836
0.0400144
0.0220337
0.0220542
0.0237356
0.022008
0.189633
0.022067
0.0643029
0.653132
0.036413
0.0216229
3.97463
0.0754996
0.0220424
0.0821972
0.030788
1.60911
0.0245235
10.203
0.0576842
0.0219955
0.0887763
0.087693
0.024722
5.83175
0.0605558
0.0298378
2.14437
0.0219427
0.155375
0.0889873
0.130354
0.0219459
0.0219789
0.0216446
0.0331076
0.0563708
0.0551652
6.46762
4.62112
3.90555
0.022267
1.89028
3.82417
4.29437
0.0220053
0.0220277
0.0545469
4.27878
0.0241824
0.0355596
32.6577
5.1219
17.0732
0.114464
0.170591
3.38373
0.39774
0.0216152
12.3124
0.283207
0.0223391
0.0223569
0.0228251
4.65431
0.0987922
5.30057
0.0240298
8.68253
0.0221405
1.65702
3.84604
0.0222118
0.0343896
4.27851
4.71314
0.0562199
0.0228897
0.0237319
0.0223866
0.235176
0.124428
2.81645
4.19748
0.021754
5.29904
0.172495
0.798043
0.0220311
0.0221656
2.13299
0.262505
0.0219638
0.0506527
0.0732431
0.039208
4.12791
4.71516
4.61899
4.16057
0.0255266
0.0216685
0.0660146
4.528
10.2444
0.0219525
0.279912
0.0933054
0.44705
0.0224835
0.0222567
1.20537
4.44972
7.06664
1.68113
4.23628
0.0219643
0.247116
4.1455
0.0222387
0.0624541
0.109108
0.0216888
0.165932
4.99603
0.245694
0.0222556
5.29366
0.120265
27.2691
0.0215121
0.0236771
0.0221657
0.023156
0.0221312
0.0546474
0.0406264
0.0429182
0.332491
0.034042
4.26825
0.0253129
0.0289744
0.028225
9.06887
0.0578328
4.97091
0.0282698
0.0278714
19.1213
0.0972021
0.0220741
0.0429322
4.41274
5.34813
0.308017
0.021978
0.0219134
0.0219384
1.41095
0.0231733
2.4842
1.32543
0.258974
0.0321926
0.267446
5.56419
0.0221317
7.31128
0.0337722
0.0511478
0.0219477
0.0219219
0.0540746
4.31982
0.022081
4.92924
0.535458
0.0999259
0.194283
0.0218791
0.0220265
0.0301307
0.0229303
25.3565
24.6795
0.0853954
0.843312
0.0219646
0.0220989
0.0221871
0.0222458
7.52672
0.0232434
4.51797
0.0874654
0.0225123
0.394476
2.8762
3.48302
8.5571
0.0235843
0.021784
0.0221311
0.023513
0.735427
0.247521
5.74516
0.0221558
0.0224363
0.163174
0.0222602
0.211535
0.0236919
0.153054
0.174403
0.0416609
0.0401282
0.0217317
0.0478364
0.0384885
0.214268
0.0812829
0.0426567
0.0218726
0.251913
0.021891
3.46218
3.72798
0.931449
0.0220777
0.109916
0.0220226
0.0499462
0.0230086
0.0227168
0.0282316
8.90457
4.14727
0.0794815
0.0478301
0.235761
0.0793793
4.02817
4.25106
0.0310973
4.21586
0.367463
0.0218561
0.0567081
4.2891
0.0969488
0.0222366
0.0546392
2.25337
0.517322
8.68841
0.0221588
1.02465
0.0220981
0.021935
0.0426303
0.287705
0.0222639
4.23877
5.12724
0.211748
11.1274
0.373333
4.7158
0.329268
0.0217299
0.0248617
0.0216558
0.0435248
0.300876
0.465997
0.0243833
0.0421465
0.0216423
4.33442
0.0390787
0.0481898
4.18553
0.0997591
6.69918
4.66539
0.0219724
6.75667
0.0221176
0.0283773
0.0478146
3.96985
0.156867
0.0278357
0.0232327
0.584638
0.0347362
4.41033
5.87743
0.0322413
3.26779
0.0458201
0.022273
1.16157
0.0634317
0.0229973
9.02887
15.1274
0.0301579
0.0260432
0.133916
5.98339
0.0219621
0.0222324
0.021675
0.0217638
0.0223341
4.81392
0.0316786
3.98272
0.0219587
0.0219492
0.855405
0.0222052
0.0238641
0.0220591
0.0220353
2.32969
0.0217667
4.74299
0.0220112
0.0231126
0.0417246
0.0221774
0.145175
0.0217791
0.0222652
0.021796
0.0278874
0.0900165
0.0245579
3.74219
0.021938
0.0440263
0.0299674
4.2352
0.0227594
0.0222689
0.0217123
0.021692
0.400871
0.0219094
0.0219055
0.0246715
2.16239
0.0219379
0.0431301
0.0327817
0.0220209
4.88298
6.66141
0.258842
4.94818
0.0249091
0.113582
0.0221551
0.0995536
0.344414
0.0223278
2.22338
0.133043
4.59506
0.0308616
0.0220345
1.59497
0.043745
0.821003
5.16832
0.0215879
0.0219893
7.49061
3.25121
0.0605931
0.0569808
0.0230739
10.4687
5.7378
0.0215161
0.0219697
0.0221207
0.0221742
0.0222485
0.0220387
0.035547
4.28823
0.0311591
0.0221952
0.428906
0.0219906
0.849517
0.0461118
0.0221003
0.027678
0.0219199
0.377734
0.0249036
0.0506296
0.021966
0.0222778
4.51727
4.89345
0.0221775
0.0524549
0.0445373
0.0311452
0.0239228
0.0222713
0.022794
1.6732
0.57447
0.0406385
4.88618
0.0225154
24.149
0.107821
0.0259779
17.6202
0.0230668
4.43181
5.36116
3.46148
4.10505
4.14366
3.81534
0.0216555
0.0273876
0.0247082
0.0216438
0.0217482
0.0294336
0.0754439
0.0217874
0.029436
0.125464
0.0767388
0.332005
0.216578
0.0339263
1.85939
9.53906
0.0339166
0.024883
0.131546
8.66815
3.92393
0.0255494
0.0216306
0.0218738
0.0217863
0.0321009
3.85921
0.380653
0.0217554
4.68092
0.0219835
0.141436
4.19387
0.0820177
0.197946
0.0893544
0.330207
0.0228276
0.0332876
0.0218689
0.240858
0.0219701
0.0230135
0.0335593
0.15629
0.0221775
0.0244638
5.53391
0.0218242
0.0220556
0.0290476
5.66031
0.117815
0.579429
0.0383867
0.02215
3.37194
0.0373305
0.0233407
0.0220243
0.0308541
0.0267214
0.0220343
0.0280286
4.53189
0.0235864
0.0216587
0.0468903
0.0218861
0.0317859
0.0301818
0.022068
0.0219994
4.6814
0.0217211
0.0220344
0.0216616
0.0257846
0.021483
4.897
0.0259684
0.218997
0.0219627
0.0219135
0.0220756
4.34117
0.0655857
0.0220426
0.0216191
5.55365
0.0251112
0.0682286
0.0218628
0.152463
0.0233847
0.0215619
4.03307
0.0217736
0.0222616
0.0221473
0.0220028
0.0241471
0.0221271
0.022037
1.63425
1.5197
4.63882
0.214321
8.33091
0.0218626
4.59722
0.0219691
4.12169
7.90118
0.0218028
10.2805
0.0219809
4.18956
11.6024
0.262854
4.1676
4.01715
0.844253
1.7983
6.0654
5.25738
0.0435884
0.0429303
4.68905
0.0234972
0.0216672
1.86598
0.02392
0.02828
11.8617
0.022978
0.505299
3.72207
6.35803
0.388261
0.120408
0.022252
0.0282561
0.0481974
0.0222849
6.88823
0.368242
0.108539
0.0219125
0.0220698
8.01308
0.0217004
0.745692
0.0218563
9.07929
4.46748
0.0335981
0.0261828
0.0220025
10.2064
4.08176
0.0254401
0.0338814
0.0222858
0.0222855
0.0591293
0.0231702
0.0320706
0.0669843
0.0242664
0.0332166
0.0220414
0.0321454
15.0831
0.0225409
10.7522
0.0219673
3.39137
0.0549253
0.02204
9.96124
0.128793
0.021855
0.156184
0.0220395
0.393202
0.0221995
0.0220133
3.89856
0.0221466
0.108422
0.0234183
0.141815
0.0218536
0.0223347
0.0218635
0.0300837
0.0242381
0.0222944
0.0225977
0.0253878
0.0224479
0.126389
0.0645242
0.0298664
0.0233608
0.0216404
2.35538
8.44818
0.0227723
0.022529
0.0226481
0.0380059
0.0222214
0.0352907
0.0215735
0.0222853
0.235928
0.0233348
0.0222846
0.0219075
4.80451
10.8776
0.0216011
0.0723377
0.0580839
0.242115
0.230084
6.7191
4.34986
0.67147
0.0229634
0.140711
0.02193
0.0314025
7.10135
4.45546
0.135907
0.0239338
15.276
0.0220427
0.0470118
0.41483
0.0222257
0.138653
0.0234706
0.0232629
0.0757906
0.149287
3.92957
3.40994
0.0218432
0.0216042
4.78623
3.82937
0.0222358
0.0291327
0.124367
0.0220579
0.0220169
0.0241231
1.53694
0.0217776
4.33201
0.0295122
0.0222376
0.217757
0.0745342
0.0690188
0.117651
4.9597
0.0244181
0.0350841
0.0272228
0.0237599
9.57686
0.0320414
4.2078
4.18509
0.0669446
4.217
0.0466387
0.0481823
0.353394
0.0217311
4.30855
0.0905884
0.03379
0.0291074
0.0221784
0.0216709
4.15151
0.0435103
4.31529
4.28321
0.0221159
4.30107
0.0218397
0.0219597
0.028769
11.2558
0.0760424
0.0216941
4.07641
0.0219956
0.0238054
4.016
0.0236939
3.49179
0.0222728
4.41447
4.13605
0.0686885
2.69611
0.0233772
3.49155
0.0216325
5.33388
4.7709
4.42238
5.07528
0.0219472
0.0218339
0.246947
3.79643
3.50075
3.84651
3.78467
0.0221441
4.92146
3.47765
0.0224106
4.9554
0.0315633
0.0332715
12.1321
0.0383692
4.46847
0.0219489
0.0380368
0.0349927
0.21044
6.23628
0.0369634
3.60141
4.49227
0.0221725
0.0246142
0.0238003
0.0248925
3.51539
0.0220161
0.0217658
0.0394543
3.82358
4.05007
0.0283281
3.90032
4.28641
0.0219651
8.47493
4.76095
0.181702
4.01788
0.067457
0.0243889
0.0221731
0.16038
0.0265166
0.0821679
9.89677
4.54464
0.0290883
0.0746197
0.0257907
0.0393313
0.0216566
0.0423368
0.0247002
0.0924909
4.64793
6.98036
3.86413
0.0216722
0.133376
0.0642251
4.25714
0.0232324
4.67739
4.77045
4.29337
0.0221583
0.174302
4.57954
10.7708
7.35502
0.0366582
5.50624
4.02343
0.0641263
0.0697701
0.0241469
0.0293218
4.73131
0.0454407
0.0221869
3.33595
0.0220582
0.0223033
0.125585
0.125846
0.0218355
0.090631
0.0247255
3.7912