/*--------------------------------*- C++ -*----------------------------------*\
| =========                 |                                                 |
| \\      /  F ield         | OpenFOAM: The Open Source CFD Toolbox           |
|  \\    /   O peration     | Version:  v2012                                 |
|   \\  /    A nd           | Website:  www.openfoam.com                      |
|    \\/     M anipulation  |                                                 |
\*---------------------------------------------------------------------------*/
FoamFile
{
    version     2.0;
    format      ascii;
    class       surfaceScalarField;
    location    "850";
    object      phi;
}
// * * * * * * * * * * * * * * * * * * * * * * * * * * * * * * * * * * * * * //

dimensions      [0 3 -1 0 0 0 0];
oriented        oriented;


internalField   nonuniform List<scalar> 
20673
(
-0.172505
0.161891
0.0106132
0.370334
-0.3058
-0.0645347
0.0226053
-0.0490784
0.026473
0.151321
-0.276785
0.125463
-0.363605
-0.113683
0.477287
-0.0199194
-0.00263969
0.0225591
0.0344596
-0.0290535
-0.00540609
0.0084183
0.0190534
-0.0274717
0.0129231
-0.0245307
0.0116076
-0.0558703
0.157884
-0.102014
-0.107407
0.105801
0.00160601
0.149804
0.00452112
-0.154325
-0.0980805
-0.00101466
-0.000391246
0.0014059
0.2045
-0.0387094
-0.16579
0.241161
-0.24251
0.00134794
-0.106067
0.29993
-0.193865
0.141204
-0.163556
0.0223523
0.150645
-0.000841712
0.337628
0.261075
-0.59871
-0.368722
0.572917
-0.204196
0.0316506
0.00280901
-0.597056
0.33515
0.261901
0.044345
-0.0359267
-0.308119
-0.0588281
0.366945
-0.0046079
0.0320609
-0.027453
-0.105589
0.0779791
0.0276099
-0.100006
0.051855
0.0481511
-0.0655079
0.0528405
0.0126674
-0.148287
0.110068
0.0382185
0.156495
-0.171254
0.0147591
0.195178
-0.206303
0.0111246
-0.096407
0.138143
-0.0417362
0.17442
-0.0488083
-0.125612
-0.386627
0.362096
0.0245292
0.0880736
-0.108551
0.0204779
-0.363103
-0.233957
-0.0040439
-0.00197875
0.00602265
-0.18641
-0.0550025
-0.0162243
0.000843721
0.0153806
-0.57604
0.585947
-0.00992933
0.685445
-0.382078
-0.303368
0.362933
-0.535037
0.17209
-0.0500331
-0.017956
0.0679892
-0.170361
-0.155769
0.326128
0.096671
0.0709326
-0.167604
0.14764
-0.00643611
-0.0171283
-0.11201
0.129139
-0.00373597
0.0104147
-0.0066787
-0.676958
0.434064
0.242878
0.0434725
-0.16542
0.121947
-0.282732
0.0328739
0.249858
-0.00687685
0.00314088
0.0556497
0.11877
0.167151
-0.273219
0.213238
-0.224131
0.0108928
-0.112562
0.00515509
0.270323
-0.352111
0.0817856
0.085166
0.160839
-0.246005
-0.332244
0.161882
-0.0171396
-0.0182331
0.0353728
0.16422
0.206113
-0.00101466
-0.163182
0.500804
0.0160844
-0.0360038
-0.0776591
0.085403
-0.00774391
-0.515628
0.321467
0.262288
-0.361942
-0.106163
0.104297
0.00186678
-0.162009
0.182255
-0.0202461
-0.524945
0.161338
-0.0150195
0.0279427
6.51779e-05
-0.00426694
0.00420176
0.142009
-0.45013
-0.00772445
-0.00698304
0.0147075
-0.018429
0.144324
-0.125895
0.00505421
0.000318586
-0.0053728
0.0729341
0.190764
-0.263699
0.0342447
-0.0312989
-0.0029458
-0.611642
0.330552
0.28109
-0.320935
0.599123
-0.278191
-0.259638
0.00769429
0.0249638
-0.0326581
0.00536543
-0.00940933
0.00267158
0.00349408
-0.00616566
-0.212725
0.285658
0.370014
0.201836
-0.571854
-0.0882653
0.0106062
0.212492
-0.16902
0.513091
-0.150171
-0.00147577
0.00226635
-0.000790581
0.122297
-0.0034787
-0.118818
-0.0514715
0.365181
-0.313713
-0.261059
0.0521688
0.208889
-0.0391505
-0.0491147
0.0250781
-0.0350527
0.00997461
0.086335
-0.12501
0.0386747
0.129289
-0.00139831
-0.127891
-0.0654361
-0.0363419
0.101778
0.051615
-0.064187
0.012572
-0.453173
0.556657
-0.103496
0.121929
0.00853403
-0.130463
0.0187415
-0.0687747
-0.272098
0.072759
0.199338
-0.482402
0.0889323
0.393464
0.0330248
-0.0248553
-0.00816944
-0.00247104
-0.0628363
0.0653073
0.0945807
-0.111709
0.103873
0.196056
0.162442
-0.150842
-0.0116002
0.0026166
0.00663858
-0.00925518
-0.00302323
-0.0132011
-0.111365
0.131696
-0.0203313
0.0300963
0.00292849
-0.274484
0.117356
0.157128
0.00690472
-0.00755642
0.000651698
-0.362372
0.498898
-0.13653
0.0109602
-0.0120624
0.00110222
-0.00688676
0.00898106
-0.00209429
-0.0775653
0.165476
-0.0879111
0.49365
0.191795
-0.0970919
-0.00907146
0.00160377
0.00509495
-0.00669872
-0.0565044
-0.0435017
-0.605531
0.122682
0.482834
-0.245883
-0.015176
0.0996349
0.218813
-0.31845
-0.531389
-0.0741597
-0.489603
0.58303
-0.0934495
0.0224384
0.00779119
-0.0121864
0.00439525
-0.0828732
-0.191611
0.148401
-0.304172
0.212945
-0.581668
-0.129738
0.0653094
0.0644281
0.00744469
0.0369003
-0.017052
-0.155453
0.0514907
0.000124287
-0.116388
0.437855
0.101096
-0.178661
-0.0939794
0.112915
-0.018936
0.450554
-0.19123
-0.259329
-0.21565
0.276999
-0.0613488
-0.0715775
0.0243091
0.0472684
-0.0694788
0.331767
0.0423187
0.00547682
-0.0477956
0.017496
0.0438769
-0.0613729
0.0183895
-0.301122
0.503005
-0.167484
-0.335526
0.224414
-0.214225
-0.0101898
0.155041
0.00429252
-0.159334
-0.000537392
0.00744211
0.0215713
-0.115758
0.0941863
-0.0823067
-0.0433191
0.125626
0.219008
-0.214499
-0.00450985
0.00216072
0.00238159
-0.00454231
-0.17467
0.0126605
0.0335765
-0.091475
0.0578986
-0.000683949
0.00573816
-0.0764797
-0.0532578
-0.147901
0.219048
-0.071147
-0.0859735
-0.00561199
0.0915854
0.246963
0.352332
-0.599296
0.112897
-0.0265624
-0.134657
0.023292
0.0285026
-0.0939387
-0.202957
-0.0691414
-0.158078
0.154543
0.00353557
0.134049
0.220494
-0.354546
0.0247525
0.0971762
0.150189
-0.143003
-0.00718605
0.0172775
-0.00741771
-0.00985981
0.109138
0.00580901
-0.114947
-0.0065419
0.23575
-0.229209
0.059766
-0.046504
-0.013262
-0.0427116
-0.0703953
0.113107
0.0140371
-0.00624589
0.000239659
0.0107205
0.0573627
-0.015044
-0.258361
0.401339
-0.14298
0.00543309
0.116863
-0.0135345
0.17003
0.297327
0.153222
-0.0867713
0.456781
0.190173
-0.0923505
-0.097823
0.0344667
-0.0390746
-0.0323362
0.128691
-0.0963545
-0.000506732
0.00266746
0.152043
-0.151316
-0.000726186
-0.10711
0.0975977
0.00951254
-0.0111378
0.0761597
-0.0650219
3.11169e-05
0.00264046
-0.114666
0.0955797
0.0190859
0.624126
-0.280659
-0.343472
-0.0318182
-0.0135422
0.0453604
-0.102351
-0.00323821
0.626753
-0.626781
-0.303833
0.252359
0.00595642
-0.0810334
0.075077
-0.08863
0.0887061
-7.60792e-05
0.0245386
0.176541
-0.20108
-0.338259
-0.33871
0.164044
-0.00216278
-0.161882
0.153993
0.00104821
-0.00566148
0.00572666
-0.0766612
0.105382
-0.0287209
-0.280271
-0.106356
-0.0908195
0.361141
0.00849845
0.120791
0.0165808
0.0307565
-0.0473373
-0.286812
0.0711616
0.0368673
-0.0272669
-0.00960041
0.00743957
0.000372643
-0.00781221
-0.00626303
-0.100847
-0.413501
-0.0689074
-0.058615
0.0420542
0.0165609
0.149271
-0.00547087
-0.143801
0.0101249
0.00394595
-0.0140709
-0.490703
0.290277
0.200423
0.0397973
-0.0569369
-0.395854
0.137489
-0.00018146
0.115531
-0.115349
-0.12704
-0.449018
-0.0052475
0.000372172
0.00487533
0.0307121
-0.0229733
-0.00773871
0.0631094
0.178052
-0.119995
0.0182978
0.101697
0.0375222
0.181486
-0.454439
0.0409312
0.00415703
0.0839165
0.123924
-0.0147857
-0.0101088
0.162151
-0.0565978
0.0209457
0.0356521
0.00872822
-0.00128865
-0.587409
0.486464
0.100928
0.194262
0.000915888
-0.00133814
-0.000137627
-0.0033736
-0.00248295
0.00585655
-0.299099
0.546059
-0.460147
0.440546
0.0195938
-0.017973
0.00144812
-0.119075
0.0948737
0.0242017
0.398697
-0.60176
0.203062
-0.0763137
0.0913933
-0.0150796
-0.145452
0.142165
0.00328693
-0.103119
0.0171453
-0.167487
-0.0129958
0.180483
0.58168
-0.22935
0.139984
0.00581208
-0.145796
0.00734395
-0.00797149
0.000627537
-0.286976
0.386399
-0.099425
0.0539086
-0.134248
0.0803399
-0.0382594
-0.00970992
0.0479693
-0.238792
0.338425
-0.281537
-0.070575
-0.0260954
-0.105677
0.131772
0.000669377
0.0139044
-0.0145738
0.105591
-0.0840194
0.12266
0.0675133
0.0137903
0.190709
0.242639
0.36925
-0.61189
-0.0032059
0.00480967
0.00437041
0.0391677
-0.0435381
0.0548374
-0.0884653
0.0336279
-0.380477
-0.0739678
-0.00199229
-0.00574765
0.00773995
-0.000350687
-6.17511e-05
0.000412438
-0.0425521
0.0761286
0.0339262
0.000318521
-0.123106
0.104677
0.260743
0.470204
-0.657413
0.187189
-0.142725
0.00279309
0.139931
-0.00161274
0.00111569
0.000497055
0.117839
-0.134601
0.0167617
-0.170737
0.255903
-0.10872
0.0320583
-0.145154
-0.0151147
-0.0919786
-0.450435
0.542391
-0.0719543
0.0679049
0.00404937
0.255442
0.279157
-0.534606
0.0554932
0.00427277
-0.209381
0.233919
-0.0727223
0.471417
0.0840894
0.112382
-0.196472
0.0489777
-0.131284
0.105995
-0.111607
0.0227314
-0.0990451
-0.00338983
0.131431
-0.128041
0.376663
-0.0907985
-0.285866
0.0838638
-0.0967378
0.012874
-0.0278661
-0.0287317
0.0260706
-0.0217002
-0.226256
-0.26445
0.0813895
-0.0257455
-0.055644
-0.480561
0.0117044
0.468857
0.185879
0.190781
-0.473447
0.11107
0.0616809
-0.0441849
-0.0577849
0.517638
-0.459865
-0.1077
0.107518
-0.180418
0.012931
-0.2647
0.398746
0.00353847
0.160506
-0.246281
0.0281421
0.218138
-0.0082219
0.00213103
0.00609087
0.0852089
-0.127921
0.125909
-0.129388
-0.27514
-0.107669
0.382806
0.0681972
-0.349736
0.000648379
-0.00916002
0.00851164
0.00562661
-0.00362109
-0.00200552
0.288101
0.210794
-0.390232
0.62139
-0.231177
-0.0626157
-0.00933854
-0.289052
-0.067934
0.356982
-0.000720892
-0.00354605
0.102524
-0.377669
-0.00538392
0.000136418
-0.331563
0.254752
0.0768097
0.10423
-0.0109286
-0.093301
0.217069
-0.1439
-0.0731692
0.017714
-0.0120926
-0.00562139
0.062479
-0.21038
-0.000486281
-0.0759935
-0.0519827
0.0106995
0.0412833
0.182203
-0.098114
-0.0624257
-0.0566497
-0.00739441
0.0716423
-0.0642479
0.0553052
-0.280481
0.225175
-0.00436248
-0.00511971
0.00948219
-0.0522618
0.0204436
-0.000635136
0.000284449
-0.18879
0.169818
0.0189718
-0.0118363
0.00030006
0.0115363
-0.159671
-0.0581069
0.217778
-0.00133942
0.00410687
-0.00276746
-0.0444878
-0.00749498
0.0728703
-0.0942966
0.0214262
0.0947832
-0.0219129
0.0351559
-0.0125506
-0.562868
0.339562
0.223304
0.144481
0.00570826
-0.00559622
0.00821282
-0.178677
0.293556
-0.11488
0.222571
-0.00140863
-0.221163
-0.00128645
0.000895204
-0.066667
0.0726234
-0.213287
-0.0527111
0.265997
-0.0822778
0.07114
-0.0374453
-0.0280626
-0.59842
0.323471
0.274936
-0.00832192
0.00143515
-0.110386
0.0351345
0.0752518
-0.264412
0.519847
0.506828
-0.358408
-0.148426
0.113535
-0.594095
0.235253
0.267746
-0.0125042
0.0963681
-0.0386599
0.0569994
-0.0183395
-0.0379477
0.0217689
0.0161789
0.00805551
-0.00740713
-0.373326
-0.00336902
0.376692
-0.0626775
0.116586
-0.00955798
0.0102009
-0.000642938
0.125216
-0.166104
0.0408875
0.00781374
-0.0032438
0.00163106
0.0058567
0.210418
-0.477271
0.266841
0.0904145
-0.0355771
0.321303
-0.493556
0.172246
-0.0150254
0.0548227
-0.144098
-0.188148
0.0160899
0.00162409
-0.0287734
-0.116679
0.181776
0.0871606
-0.268937
0.462661
-0.571212
0.10855
0.140591
-0.132093
-0.0939011
0.0993342
0.125031
-0.128708
0.003677
-0.0131688
-0.0379588
0.0511276
-0.00704838
0.00570897
0.0138615
-0.0037366
0.00530549
0.134678
0.0626283
-0.118499
0.0169783
-0.477132
-0.00643725
0.00306365
-0.0203036
-0.00989184
0.0301954
-0.0305596
0.288686
-0.258128
0.093421
-0.0939073
-0.303836
0.500519
-0.196686
0.0382256
0.0743661
-0.112592
-0.0988348
-0.23273
-0.322878
-0.239991
-0.294244
0.110903
0.18334
-0.0257748
-0.00749924
0.033274
-0.0774406
-0.216804
-0.0193939
0.0200632
0.00406826
-0.00129043
-0.00277783
0.0797707
-0.0843732
0.00460252
0.0276219
-0.0449642
0.0173423
-0.214329
0.269633
-0.0334599
-0.0251551
0.0383214
0.587901
-0.245007
-0.342899
-0.0691381
-0.296148
0.117471
0.213291
-0.339168
0.125875
-0.0759972
-0.0722896
-0.363493
0.606129
-0.392507
0.460874
-0.0683693
0.387945
-0.0666465
0.0916348
-0.104139
-0.32401
-0.287633
-0.0102821
-0.00155421
-0.00251719
0.0377928
-0.0352756
0.0035514
0.00303087
-0.00658227
-0.0818719
-0.0327937
-0.00620365
-0.0130004
0.0192041
0.00957353
0.00220191
-0.0117754
0.166197
-0.0409806
-0.472137
0.0988081
0.111054
0.0142226
-0.125276
-0.266686
0.0802757
0.207408
-0.194845
-0.0125633
0.228384
0.395738
0.0187028
0.0359954
-0.0194146
-0.0510939
0.0485767
-0.189047
0.208652
-0.0196055
0.109898
0.0267371
-0.136635
-0.165314
-0.0234765
-0.259873
0.20487
0.00545283
0.119578
0.19521
-0.242207
0.046996
-0.0797973
0.0847747
-0.00497738
-0.174163
0.278035
-0.436203
0.378408
-0.00230057
0.00157968
0.0109087
0.00312837
0.0152835
-0.00437473
0.0436016
0.0912497
-0.134851
0.0061495
-0.00259809
0.00889509
-0.0132576
-0.000534449
-0.00457694
0.00511139
0.00417117
-0.000811181
-0.00335998
0.146662
0.363264
-0.509945
-0.13213
0.00190028
0.130229
0.22546
-0.0302501
0.346379
-0.263313
-0.0830663
-0.113552
0.0312081
0.0823442
0.004915
0.480669
-0.534105
0.0534108
0.0127441
-0.138448
0.125704
-0.00497694
-0.149665
0.154642
0.00300271
-0.00210797
-0.000894736
0.342783
0.245114
0.121912
-0.00888127
-0.11303
0.00134066
0.000865186
-0.00220585
0.103079
-0.0181538
-0.0849252
0.00102738
-0.0109116
0.00988417
0.248906
-0.251505
0.220945
0.517142
0.109587
-0.149518
-0.0251515
0.506201
-0.295797
-0.0317038
-0.0102701
0.0419739
-0.0321891
-0.00575864
-0.154771
0.151381
0.00296082
-0.00553863
0.00257781
0.0231892
0.190048
0.0983503
0.0145471
0.00190414
-0.00243859
-0.00871372
0.0525906
-0.012538
0.0923087
-0.00310557
-0.0908738
0.105287
0.0166249
0.122748
-0.14855
0.0258019
0.0867644
0.032419
-0.119183
-0.171758
0.177903
-0.00614531
0.0912646
-0.108624
0.0173595
0.0237787
-0.138323
-0.0140349
0.152357
0.105355
0.00389647
-0.109251
-0.526206
0.539654
-0.0134722
0.10796
-0.0295482
-0.0784123
0.215778
-0.0153463
-0.200432
-0.430135
0.303219
0.126911
-0.161033
0.0115149
-0.264638
0.184787
0.0798497
-0.000554849
0.00355756
0.0111415
0.0189548
0.0901435
-0.379198
-0.512513
0.420511
-0.0343536
-0.0101082
0.0444618
0.0122893
-0.00271578
0.593356
-0.224109
-0.00862481
0.00965219
-0.313247
0.232571
0.0806752
0.126326
-0.0971787
-0.0291469
0.00716162
0.323874
-0.331039
0.00827268
-0.00531133
-0.00296135
0.0640226
-0.09672
0.0326974
0.0441168
0.180297
0.305151
-0.190284
-0.114868
0.0187924
-0.0249961
-0.11707
0.0847334
-0.012815
0.0127448
7.01451e-05
0.242644
-0.606139
-2.63124e-05
-0.0075764
0.00760271
-0.00798224
0.0780246
-0.0130271
-0.0649975
-0.352775
-0.0773643
-0.00397456
0.00746864
0.0225455
-0.011631
-0.0109145
-0.130095
0.167013
-0.036918
0.125337
0.381485
-0.216938
0.265375
-0.048438
-0.139764
-0.0633381
0.101564
-0.042947
0.523594
-0.516609
0.158195
0.646898
-0.436663
-0.210248
0.405493
0.241393
0.00531718
-0.00730948
-0.0474218
-0.0661306
0.0361018
-0.103216
0.117275
-0.0140593
0.569183
-0.0989978
-0.0480082
-0.405174
-0.0103989
0.120297
-0.0120012
0.0049639
0.00703725
0.150666
-0.168453
0.0177873
-0.11495
0.335441
0.451336
-0.238047
-0.285442
-0.0922764
0.377719
0.0154089
0.000855846
-0.00082473
0.39835
0.162846
-0.5612
-0.267173
-0.141089
0.408262
0.0106172
-0.0228971
-0.148861
0.10598
0.111089
0.0427306
-0.294237
-0.149531
0.261823
-0.112292
0.183795
-0.220554
0.0367589
-0.00457014
0.109925
0.0643107
-0.0717051
0.0254751
0.100546
0.0105077
-0.150056
0.0607963
0.0892598
0.0191112
0.0862709
0.00797362
0.117936
0.452018
-0.292767
-0.159254
0.00745123
-0.00010727
-0.452808
0.250164
-0.0275933
0.252336
0.0057273
-0.258064
0.0773724
0.030588
0.0831236
0.0199156
-0.103039
-0.01439
0.396867
-0.382492
-0.000737214
0.103816
0.111118
-0.140371
0.0292525
0.00251568
0.00167762
-0.0041933
-0.0820905
-0.0679657
0.00451322
0.0934043
-0.0979176
0.142252
-0.147229
0.320951
0.141709
0.0402089
-0.0141384
0.103492
-0.0234208
0.0179991
0.00542176
0.170535
-0.344699
-0.157468
0.186815
-0.0293474
0.112095
0.00517994
-0.00258325
-0.000660555
0.0123341
-0.0123341
0.118979
-0.120377
-0.0662548
0.109856
-0.037537
-0.204973
0.198816
-0.227969
0.0291529
-0.211796
0.254526
-0.075476
-0.0147165
0.0901924
-0.0528359
0.0265657
0.147546
0.00172499
0.0132314
-0.0154255
-0.00799531
-0.00319906
-0.00961592
0.019815
-0.21814
0.198325
-0.0100079
0.108358
0.0935879
-0.0295653
0.0864023
0.0919268
-0.178329
-0.291221
0.0885056
0.202715
-0.0305803
0.00296972
0.0276106
0.0519097
-0.0335546
-0.0183551
-0.0473775
0.0363501
0.0110273
-0.0385988
-0.069645
0.108244
-0.535497
0.0458757
-0.00629997
-0.00202194
0.00456079
-0.463604
0.449195
0.186595
-0.183499
-0.00309631
-0.00667329
-0.113146
0.11982
-0.125179
0.0287718
-0.015184
0.125252
0.0363024
-0.0103679
-0.0259345
0.11213
-0.0253654
-0.020447
0.192334
-0.171887
0.0201928
0.0200161
0.265315
-0.197981
-0.0673347
0.00413556
3.56096e-05
0.275215
-0.574315
-0.00937813
0.407725
0.0663994
0.01499
0.0388388
0.0130709
0.0324409
-0.00758516
-0.0248557
0.0974815
0.167833
0.257782
-0.264325
-0.448132
0.180959
0.00465534
-0.149809
0.00269022
0.114666
-0.0861637
0.221271
-0.0224557
0.10011
-0.112648
0.13512
-0.262101
0.26926
-0.0518793
-0.0681153
0.115918
-0.00125133
-0.0803637
0.0719553
0.0084084
-0.0472962
0.358944
-0.31165
-0.0845335
-0.0253863
0.10992
-0.073875
0.000514544
0.00355372
0.0325231
0.125361
0.109634
-0.0265101
-0.189598
0.0321302
-0.25713
0.5337
-0.276585
0.290743
0.0859817
-0.37673
-0.0916042
0.310416
-0.0890869
-0.00972257
0.0988095
0.154826
-0.0581545
-0.0557927
0.105026
-0.0492336
-0.0383223
0.0251535
-0.140864
-0.0172143
-0.221484
-0.376949
0.0284305
-0.0910063
0.0625759
0.0225771
0.00986374
-0.103841
0.084993
0.0188477
0.0582175
-0.345196
-0.179899
0.148252
0.0316475
-0.120045
-0.396571
-0.160291
-0.0419881
0.202279
-0.0532749
0.214113
0.00508437
0.0174611
-0.283209
0.613759
-0.0703322
0.188976
-0.0026663
-0.18631
0.0832056
0.0225949
0.14916
-0.0607633
-0.0883965
0.00505661
0.000206681
-0.00526329
-0.021307
-0.091002
0.112309
0.0487924
-0.265732
0.00197124
-0.00078387
-0.00118737
0.00992729
0.0024068
0.353905
-0.265001
-0.0889059
0.221694
0.0306416
0.107579
-0.0781849
-0.0293942
0.0857544
-0.124353
0.118885
-0.00104623
-0.346539
-0.243077
0.589611
0.0341435
0.271006
-0.104424
0.0934957
0.243325
-0.0615498
-0.11328
-0.0154281
-0.150804
0.124709
0.386873
-0.0961346
-0.145366
0.150914
-0.00554851
-0.0281326
0.399941
-0.176142
-0.223801
-0.266172
-0.031593
0.297764
0.669619
-0.390923
-0.278708
0.00362646
0.00200015
-0.408669
0.621613
-0.201949
0.0129011
0.00399459
0.0132829
0.009838
0.201326
-0.211164
0.0470199
-0.00818115
-0.027776
-0.186723
0.0661336
0.0720097
0.232944
0.122138
-0.00436963
-0.117768
-0.0975178
-0.375932
0.139364
-0.00521858
-0.134145
0.323463
-0.582274
0.258793
0.111745
-0.102317
-0.00942828
-0.219392
-0.0938565
-0.0186095
0.0199501
0.0498329
-0.0434459
-0.00638696
-0.00296369
-0.00903747
-0.555365
-0.0714432
-0.231651
0.12994
-0.121966
-0.14785
0.16381
-0.0159602
0.00106272
-0.00290972
0.001847
0.0170846
-0.016651
-0.000433606
-0.135305
-0.0282507
-0.332444
-0.0123391
0.344781
0.107336
-0.0157013
-0.0266882
0.019103
-0.0838276
0.00346386
0.0579857
-0.113778
0.142912
0.000334449
-0.143246
-0.0287954
-0.00593143
0.0347268
-0.165472
0.152224
0.0132475
0.160645
-0.175759
0.00217709
0.0940153
-0.0961924
-0.0776867
-0.00334677
-0.149592
0.0142872
-0.00179706
0.0195747
-0.0177776
0.14776
-0.153719
0.00595814
-0.280682
0.0807364
0.199945
0.0994252
-0.106099
0.0712655
0.110938
-0.404493
0.316954
0.0875354
-0.185661
0.0253698
0.015326
0.147116
-0.169845
-0.04438
-0.382098
-0.0397258
0.42182
0.178935
0.148984
-0.0147088
-0.134275
-0.0633229
0.242824
-0.179501
-0.139369
0.0260897
0.00910687
-0.341552
-0.227408
0.462443
-0.235037
0.140116
-0.548785
0.215296
-0.158216
-0.0570807
0.222535
0.222329
-0.444874
0.0262058
0.186529
-0.212735
0.622882
-0.282609
-0.340284
0.00685952
0.00141316
-0.14725
0.146306
0.000944292
0.0390518
-0.037716
0.236261
-0.513631
0.277355
-0.357548
-0.201615
0.559161
-0.0348176
0.0860013
-0.0511837
0.152673
-0.0299253
0.250212
-0.194485
-0.0557262
0.0408112
0.0159441
-0.0567553
0.136975
-0.0399833
-0.0969918
-0.0740611
0.0590357
0.00331501
0.0978856
-0.125653
0.0277675
-0.0892171
0.260698
-0.171482
-0.636665
0.0291079
0.607556
0.59529
-0.189812
-0.256449
0.0101672
0.0154464
-0.0157928
0.000346483
-0.603021
0.245472
-0.092742
0.0193069
0.0734352
-0.128301
0.154507
-0.00162213
-0.00793586
0.110648
-0.137232
0.0265846
0.11291
0.024065
-0.0128864
0.096092
-0.438607
0.102344
0.336254
0.281689
0.315326
0.00339477
-0.429654
0.276105
0.153549
-0.299279
0.0804471
0.218832
-0.0474461
-0.0206885
0.0681346
0.251472
-0.0157226
0.0945236
0.451546
-0.54607
-0.00816956
0.178013
-0.169844
-0.0576593
-0.416624
0.474275
0.321653
-0.470531
0.148858
-0.162186
0.0137259
-0.000397147
0.00145987
0.166489
-0.177999
0.0115099
0.250875
0.149063
0.460877
0.125047
0.00310514
-0.00568839
0.00569632
0.331695
-0.102127
-0.229569
-0.108648
0.279181
0.0629512
-0.02214
-0.0856911
0.103342
-0.017651
-0.0122515
-0.0017668
0.0140183
-0.112361
0.116875
-0.0501396
-0.230543
-0.233361
-0.354064
0.501525
-0.179891
0.00925355
-0.147576
-0.013929
0.0218713
-0.0908438
0.0689725
0.0497326
0.120086
-0.00918373
0.00406402
-0.286501
0.0879197
0.198581
0.0336923
-0.215708
0.182016
0.0111148
-0.0138237
0.00270896
0.145964
-0.449801
0.00233627
0.213441
0.273502
-0.357045
0.083541
0.333952
0.259385
-0.593348
0.0052017
-0.156044
0.0870045
0.0189905
0.204877
-0.276868
0.0719904
0.0427912
0.00422867
0.00127746
0.0135161
-0.0147936
0.0303419
0.22576
-0.309234
-0.118836
0.428063
-0.0909727
-0.0119775
0.10295
-0.0736308
-0.323482
0.566124
-0.0849204
0.103594
-0.0186737
-0.435866
0.126624
-0.155929
-0.279159
0.364299
-0.0851428
0.437573
-0.154516
-0.283061
-0.11076
-0.241596
-0.102626
0.344219
0.0284105
-0.0893242
0.145698
0.0407544
-0.186452
0.387963
-0.586305
0.198342
0.372283
-0.502208
0.129914
-0.0159835
-0.267283
0.283267
0.0299824
-0.319673
0.289688
-0.339369
0.0731958
-0.0321332
0.0447093
-0.012576
0.288984
0.0514121
-0.340399
-0.109985
0.40026
-0.290279
0.0213472
-0.00784463
-0.0135026
-0.0257344
0.0312112
-0.152176
0.131728
-0.161384
0.000424913
-0.121634
0.121209
-0.0515857
-0.166351
0.217936
0.471278
-0.163056
-0.308227
0.125122
-0.0541892
-0.00568779
0.114382
-0.00263658
0.270455
-0.481809
0.211351
-0.302612
0.112327
-0.00329649
0.0203811
-0.0517333
-0.0833089
0.135042
-0.00120333
0.00567256
-0.00446923
0.528078
0.167338
0.000673091
-0.00429418
-0.183284
0.155939
0.0273449
-0.277473
0.0647472
0.0154909
-0.0148892
-0.000601728
-0.0189066
0.0101673
0.00873931
0.352815
-0.322836
0.103742
-0.101565
0.48864
0.106638
-0.33879
0.0971914
0.426928
-0.190678
0.00016727
-0.00591492
0.469898
-0.247375
-0.328378
0.280043
-0.0501564
-0.273615
0.0740519
0.199563
0.0329392
0.0933864
-0.0919774
0.0461747
0.303974
0.0742781
-0.378255
0.0977006
-0.12389
0.0261895
0.374285
0.164024
-0.538312
0.00685219
0.503086
-0.481285
-0.0218062
0.347198
0.363955
0.215995
-0.579951
0.00662504
0.458479
0.0275962
-0.0125359
0.0163394
-0.00380341
0.0166723
-0.052978
0.0363057
0.00116637
-0.181065
-0.0428812
-0.0675051
-0.0119531
0.0136735
-0.00172037
-0.280459
0.348655
0.000421843
-0.00672182
-0.0258203
0.00758718
-0.0135098
0.00155671
-0.000318556
0.0159882
-0.0156696
0.00623844
0.0151088
-0.0161596
0.0186753
-0.0719907
0.100421
0.178759
0.0866159
0.00500347
-0.154537
-0.0287464
0.00678765
-0.0270912
-0.411571
0.0587903
0.090935
0.274243
0.276351
0.0553424
0.537125
0.163845
-0.230903
0.0670578
0.120075
-0.146843
0.0267672
-0.00405151
0.00472193
-0.000670429
0.371384
-0.280452
0.425123
-0.184558
-0.240566
-0.00245565
0.0106113
-0.00815566
0.00862413
-0.0779986
0.0693745
-0.269322
0.253339
0.023049
0.0230987
-0.176603
0.153504
-0.0731822
-0.205597
0.278778
0.0249729
0.0248601
0.08879
-0.065741
0.16114
-0.212006
0.0508663
-0.166464
-0.107152
0.0132924
-0.0120149
0.0122874
-0.00117262
0.00314535
-0.0152077
-0.362717
0.0835548
-0.088005
-0.0290646
-0.00914618
0.120265
-0.00755469
-0.00410771
0.0116624
-0.0262698
-0.121195
0.123453
-0.00225814
0.255937
0.169589
-0.258807
-0.076778
-0.209724
-0.505301
-0.113663
0.0657643
0.508458
-0.361814
0.169658
0.0141367
-0.062912
-0.10256
-0.00481126
0.00251673
0.00229454
-0.133033
0.0355869
0.097446
-0.0952756
-0.233104
0.124623
-0.00335571
0.00452626
-0.00117055
0.167093
0.327172
-0.245045
-0.0821267
-0.00358562
-0.000917796
0.00450342
-0.360723
0.0960206
-0.304934
0.00565365
0.0735712
-0.108662
0.0350907
0.00220981
0.000751017
0.482619
0.298867
-0.346166
-0.0236391
0.0335641
-0.00992505
-0.102153
0.0592717
-0.0289745
0.0942551
-0.0652806
-0.138404
0.037412
0.100992
-0.0447632
-0.0637882
-0.486391
0.173695
0.312693
-0.102238
0.100728
0.00150992
0.172476
0.154695
0.0111636
0.356657
-0.367826
-0.0803704
-0.210851
-0.0460853
0.0143815
0.00115161
-0.0134031
-0.368636
0.0898416
0.278791
0.497922
-0.125651
-0.0734582
0.346959
0.0218879
0.0672433
-0.182612
-0.00507426
0.187686
-0.231714
-0.19794
-0.302641
0.0893526
-0.00169235
0.363729
-0.0597584
-0.0091863
-0.0763735
-0.0137491
0.0901226
-0.0116427
-0.00506854
0.0167112
-0.32685
0.0880557
0.117898
-0.0255525
-0.0923452
0.183607
-0.163792
-0.00651311
0.00120178
-0.00425274
0.00089703
0.0101252
-0.00348663
-0.121557
0.121982
-0.00518062
-0.013726
0.46325
0.00539474
-0.0311695
-0.470865
0.479019
-0.0729934
-0.151138
0.172885
-0.156936
-0.0159492
-0.077608
-0.0434976
0.00914404
0.0461127
0.0296448
-0.0757575
0.091575
0.0163722
-0.107947
-0.0142654
0.0434678
-0.0292024
-0.28398
-0.272211
0.556174
-0.0586867
0.101707
-0.0430198
0.106275
0.331294
-0.0850789
0.156344
0.0296535
-0.0212511
-0.00840236
0.229734
0.116644
0.169869
-0.640735
0.218067
-0.267259
0.0491909
0.100943
-0.255389
0.154445
-0.00327558
-0.00153568
0.465727
-0.102519
-0.36322
0.511769
-0.176624
0.00862685
-0.020662
0.13186
-0.111199
0.147954
-0.146967
-0.000987428
-0.0262362
-0.000451941
-0.1003
-0.00774258
0.108042
0.0147991
0.000429337
-0.0152285
-0.00164271
-0.132275
0.113653
-0.165386
-0.000979202
0.00116006
-0.175073
0.00464799
0.0537536
-0.0584016
0.00203926
0.0300216
0.205109
-0.00643858
-0.19867
-0.306404
-0.0583293
0.36473
0.00211809
0.0202311
-0.0223492
-0.0377149
-0.246922
0.265312
-0.146593
0.0375561
0.109037
0.156295
-0.00562894
-0.344841
0.117593
0.227246
-0.0282068
0.192051
-0.143671
0.244613
0.155833
0.288145
0.30887
0.137564
0.00534784
-0.0264308
0.0507399
-0.368226
0.139517
-0.130412
-0.00910535
0.11015
0.208167
-0.318321
0.104363
-0.0980738
-0.00628956
-0.250518
0.573962
0.156746
0.001816
-0.133946
-0.231892
0.168569
0.320358
-0.082294
-0.238066
-0.295877
-0.0727629
0.0389983
-0.037601
-0.00139725
-0.0920426
-0.0293742
0.121417
-0.0225729
0.0502786
-0.0277057
0.26448
0.196393
-0.323833
0.26721
0.0566214
0.00811964
-0.270748
-0.0862993
0.0187676
0.11689
-0.135658
-0.127154
0.0351111
-0.234926
-0.109916
0.0275978
0.114567
-0.257552
0.367698
-0.0181027
0.0502926
-0.0321899
-0.290656
0.0437335
-6.43903e-05
0.192398
-0.000301625
-0.000984825
-0.0764589
0.10189
-0.0254309
-0.0930803
0.399742
-0.306665
-0.223058
0.192631
0.0304266
0.00199422
-0.0145302
0.35341
-0.342251
0.472817
-0.117742
-0.355081
-0.011374
0.00381936
-0.00423363
0.0044009
0.0312045
-0.196518
-0.00941215
-0.0863649
0.095777
0.542783
-0.281714
0.229558
-0.0116186
0.238715
-0.210574
-0.352146
-0.0864691
-0.0939965
0.0234358
0.0705607
0.306147
-0.287178
-0.0189721
0.0237284
0.0668689
-0.0905973
0.195768
0.403353
-0.444779
0.0926247
-0.296726
0.194598
0.00597811
-0.106278
0.0120922
0.00258369
-0.0146759
-0.220577
-0.0755722
0.00132777
-0.236742
0.235413
-0.347928
-0.138467
0.19827
-0.18448
0.479843
-0.1459
0.0207801
0.13745
-0.124706
-0.584449
0.260965
0.0158813
0.0411181
0.115953
-0.0958764
0.0371896
0.0130515
-0.00415642
-0.0214932
-0.00908717
0.394672
-0.304834
-0.301664
0.0566179
-0.257606
0.338054
-0.0804495
-0.00853237
-0.17871
0.14
0.00131314
0.0121548
-0.0134679
-0.0045955
-0.00948957
0.0140851
0.230808
-0.168329
0.0060144
0.0084174
-0.0154004
-0.143644
0.146304
-0.00266001
-0.0968256
0.0874134
-0.114264
0.0929566
-0.00127241
-0.0127411
0.110638
-0.00627514
0.0354602
0.0553783
-0.0908385
0.00971348
-0.00434805
0.13485
0.00331516
-0.138165
0.171115
-0.00133872
-0.0244853
0.0763403
-0.397928
-0.0136474
0.215058
-0.1423
0.0369318
-0.0322838
-0.126751
0.144943
-0.0181921
0.37267
-0.282529
0.123825
-0.00168773
-0.100406
0.119174
-0.00322881
0.000966687
-0.00114042
0.000173736
0.214761
-0.00146131
-0.2133
-0.0519767
0.0377113
0.0286399
0.130927
-0.159567
-0.0179642
0.086745
-0.0687808
-0.0520588
-0.0522916
0.10435
0.122767
-0.0898275
-0.159855
0.182953
-0.367541
0.20507
0.0431453
0.305234
-0.430202
0.124965
-0.0461202
0.20726
-0.49975
-0.0264784
0.184381
-0.369386
0.112966
0.256418
0.00610019
0.109783
-0.115883
-0.0161928
0.107457
0.0116678
0.00570483
-0.0173726
0.0780871
0.0311328
-0.10922
-0.0319643
-0.0600131
-0.041234
-0.00985991
0.0729348
0.260266
-0.36334
0.103071
0.00662206
0.0081296
-0.0421158
0.0339862
0.323787
-0.390558
0.0667661
0.352767
-0.152137
-0.0110546
0.163192
0.00251641
0.0129299
0.342854
-0.593822
0.250967
0.130526
-0.0070431
-0.123482
0.0743499
-0.00262056
-0.0717294
0.121945
-0.152879
0.0309338
0.373369
-0.268176
-0.105194
-0.287108
0.230207
0.0569001
-0.179502
0.322535
-0.143037
-0.0812914
-0.0653017
-0.146905
0.103586
0.231947
0.00563219
-0.0242417
0.03446
-0.0235188
-0.0109412
-0.11893
0.124742
-0.10092
0.0159996
-0.0186094
0.153459
0.100816
-0.0906516
-0.0101648
-0.212828
0.222666
-0.204982
0.153396
0.0116119
0.0425995
-0.0542115
-0.0687735
0.098607
-0.0298336
0.00272908
-0.00444769
0.0345903
-0.0476855
-0.58898
-0.415524
0.309609
0.105912
-0.146171
0.31039
0.345938
-0.0704182
-0.27552
0.117598
0.159401
-0.0561576
-0.0777443
0.133902
0.370482
-0.0766241
-0.293861
-0.000664329
0.100046
-0.0993814
-0.500032
0.442364
-0.168025
-0.298222
0.128932
-0.0160217
-0.00641739
0.106527
-0.0597142
0.0951744
-0.354725
0.0742643
0.0347616
-0.175284
-0.240243
0.0127749
0.04382
-0.0565949
0.274364
0.226154
-0.184758
0.135949
0.457709
-0.187256
0.020427
0.0762369
-0.0966639
-0.0014565
0.0657898
-0.102132
0.277399
-0.0741509
-0.058882
0.358702
-0.144799
-0.213904
0.149301
0.0038687
-0.00366202
0.233461
0.102701
-0.336164
0.194842
-0.275213
-0.139344
0.118682
0.171602
0.0149934
0.00629729
0.282316
0.116378
-0.177979
0.0616006
0.250194
-0.281788
0.118017
-0.500118
0.137569
-0.017494
-0.0952405
-0.169085
-0.214093
-0.235475
0.449557
-0.162729
-0.049278
-0.00346597
-0.00450553
-0.201853
-0.0145336
0.216386
-0.0656085
0.0874797
-0.0314961
-0.00183215
-0.00317132
0.0152635
-0.222415
0.0205617
-0.445431
0.231325
0.0529649
0.125293
-0.178258