/*--------------------------------*- C++ -*----------------------------------*\
| =========                 |                                                 |
| \\      /  F ield         | OpenFOAM: The Open Source CFD Toolbox           |
|  \\    /   O peration     | Version:  v2012                                 |
|   \\  /    A nd           | Website:  www.openfoam.com                      |
|    \\/     M anipulation  |                                                 |
\*---------------------------------------------------------------------------*/
FoamFile
{
    version     2.0;
    format      ascii;
    class       surfaceScalarField;
    location    "500";
    object      meshPhi;
}
// * * * * * * * * * * * * * * * * * * * * * * * * * * * * * * * * * * * * * //

dimensions      [0 3 -1 0 0 0 0];
oriented        oriented;


internalField   nonuniform List<scalar> 
20642
(
7.42102e-05
1.1939e-05
-8.61492e-05
-0.000239398
0.000409998
-0.00017
-4.70663e-05
-7.32044e-05
0.000120279
-4.3818e-05
0.000325552
-0.000279889
-0.000329068
0.000477718
-0.0001468
-0.000418692
0.000180085
0.000133682
-0.000290577
0.000157385
-0.000495011
0.000281178
0.000214196
-0.000128664
-0.000121701
0.000250835
-7.33796e-05
-1.11231e-05
-0.000216339
-0.000278282
-0.000427577
0.000368436
6.25891e-05
1.76831e-05
1.42757e-05
-0.000284574
0.000431887
-0.000147136
-0.000344383
0.000459233
-0.000113456
6.84529e-06
6.73649e-05
9.81652e-06
7.70071e-06
-1.16015e-05
0.000485253
-0.000213843
-0.000271015
-0.000177238
0.000125613
5.16518e-05
8.97267e-05
-4.93144e-05
-4.04122e-05
-0.000345403
0.00022434
0.000121574
-7.94459e-05
-0.000276531
0.000360251
-0.000103109
-8.97473e-05
0.000192962
0.000312201
-0.000386964
-0.00039066
0.000203055
0.000188734
0.000367003
-0.000145527
-0.000220978
0.00030446
-0.000171664
-0.000132742
-7.33796e-05
0.000432713
-0.000159188
-0.00027304
4.02924e-07
8.63806e-06
-8.79334e-06
-6.44579e-05
-8.92174e-06
-0.000222653
7.95928e-05
0.000143108
0.000394515
-0.000263508
-0.000129035
8.6873e-05
-4.38348e-05
-4.30379e-05
1.95504e-05
-0.00028872
0.000274086
-3.73187e-05
0.000318799
-0.000317638
-3.61434e-05
0.000355205
-1.05005e-05
3.82405e-05
-8.65406e-06
0.000266945
-0.000132817
-0.000217805
0.000330871
-0.000112678
-1.34507e-07
-2.79799e-06
6.82638e-06
-0.000169178
0.000255129
-8.30972e-05
0.000357967
-4.21456e-05
-0.000314965
-7.57225e-05
-5.98025e-05
0.000135546
-0.000159537
8.38414e-05
4.9501e-05
-0.000150644
0.00010117
-0.000309041
-3.56485e-05
0.000118765
-7.20391e-05
-4.67251e-05
0.000201124
0.000182475
-0.000383485
-0.000212915
0.000236429
-3.83461e-05
-0.000385519
-6.15075e-05
0.000189737
-0.000128182
4.86853e-05
-7.98947e-05
3.12094e-05
0.000369026
-0.000432477
6.77583e-05
0.000460817
-0.000349646
-0.000107111
-0.000160264
9.87919e-05
-6.44579e-05
9.91756e-05
-0.000202161
-0.000261084
9.48576e-05
0.000176276
-0.00012674
-0.000193427
0.000102831
9.06001e-05
0.000137275
0.000205279
-0.000340392
-1.19154e-06
-9.0932e-08
1.83232e-06
-0.000142534
-0.000246847
-8.02234e-05
-9.84269e-06
9.00686e-05
1.67396e-05
-1.06696e-05
-6.00297e-06
-0.000180375
0.00042436
-0.000243564
-0.00029949
0.000262457
0.00026929
-8.23795e-05
4.97621e-05
3.26174e-05
-2.41227e-05
-7.512e-05
9.92466e-05
6.3246e-05
2.36271e-05
-0.000457721
0.000390126
7.18539e-05
-0.000194141
-6.34008e-05
0.000351851
-0.000127039
-0.000469821
0.000238733
0.000232289
-0.000297913
0.000449436
-0.000149528
-0.000262817
7.22451e-05
-0.000184297
-0.000284124
0.000245892
0.00014997
0.000301319
0.000144185
-0.000442149
1.15333e-05
1.15405e-05
-1.48104e-05
-6.18617e-05
-0.000390925
0.000123495
-7.40441e-05
-4.94476e-05
-0.00021219
0.000190741
4.01721e-05
-0.000437243
0.000184011
0.000253488
-0.000121724
-0.000100871
6.23573e-05
4.83494e-05
-8.73483e-05
-0.000314489
9.71024e-05
-6.27295e-06
2.12076e-05
-6.97099e-06
-2.22502e-05
3.44507e-05
0.000255245
-0.000247232
0.000448486
-3.09497e-05
0.000288719
-0.000252534
-7.57707e-05
-0.000326858
0.000405458
0.000252774
0.000400444
-0.000215661
-0.00018467
1.78948e-05
1.31686e-05
-1.98883e-05
0.000119342
-3.85551e-05
0.000204136
-0.000334674
0.000130705
3.56993e-06
2.5479e-06
-4.09107e-06
-1.0064e-06
6.0446e-06
0.000420061
-0.000115879
4.1578e-05
6.05718e-06
-3.74364e-05
-0.00047551
0.000180256
-8.83323e-05
-8.78464e-06
9.71188e-05
-7.49017e-05
-1.43022e-05
8.92048e-05
-0.000257088
0.000396841
7.82823e-05
0.000179628
0.000144198
0.000160324
-5.91885e-05
0.000165572
-9.3672e-05
4.98374e-05
-0.000410036
0.000251296
2.51566e-05
-0.000105378
2.51605e-05
0.000241067
-0.000265257
-0.000101081
-7.61259e-05
-1.8505e-05
2.25524e-05
3.24741e-07
8.05176e-05
5.91539e-05
-0.00013966
9.62803e-05
0.000279823
-0.000371296
3.09059e-05
-1.14764e-05
0.000258669
-9.44552e-05
-0.000160364
0.000167845
0.000256939
0.000103333
6.73349e-05
-0.000170624
5.25837e-05
-8.4759e-05
3.21753e-05
5.4268e-05
6.9229e-05
0.00035031
-0.000120572
-0.000228524
0.000115813
0.000236528
0.00028925
6.72356e-05
-0.000350361
-6.38209e-05
0.000167191
-0.000255831
7.51097e-05
0.000180911
7.87819e-05
-0.000195229
0.000116496
-9.8433e-05
6.24965e-05
3.59371e-05
0.000293439
-0.00026719
-0.000180658
5.11231e-05
0.000129572
0.000317799
-0.000173538
0.000189861
-9.88556e-05
-9.10008e-05
4.57309e-05
3.23521e-05
-7.8083e-05
0.000418845
-0.000163567
-0.000254746
9.47396e-06
0.000398778
-0.000409335
1.07013e-05
-9.19945e-05
-0.000167262
3.12219e-05
-0.000119552
7.96265e-05
-0.000321519
0.000248406
-0.000404451
0.000368661
4.0374e-05
0.000215009
4.71041e-05
-0.000259802
-9.6217e-05
7.20979e-05
-0.000468602
-2.36922e-05
-5.38214e-05
7.7514e-05
-7.3857e-05
0.000447555
0.000232107
-0.00032493
9.3242e-05
-3.58158e-06
-1.13611e-06
6.5802e-06
-0.00034483
-5.46906e-05
0.000154738
0.000245809
-0.000411673
0.000335251
7.97561e-05
-7.47923e-06
5.86807e-05
-6.10596e-05
-2.37275e-05
8.47875e-05
4.99138e-06
6.53602e-06
-7.39096e-06
-1.34172e-06
-1.34999e-05
-0.000374376
0.000296504
9.04025e-05
-4.30804e-05
-6.70356e-05
0.00011012
0.000475782
-0.000171776
-0.00030267
-7.86077e-06
6.44643e-05
7.17729e-05
-0.000136234
0.000334525
-0.000172414
-0.000162003
-1.9187e-05
7.17639e-05
-0.000145049
7.32874e-05
-2.69456e-06
2.65316e-06
1.08817e-07
0.000153803
0.000265553
-0.000583871
0.000341447
0.000246792
-3.01957e-05
-6.1285e-05
9.14814e-05
-0.000313987
-0.000203185
0.000133197
6.99983e-05
5.4484e-05
-0.00017963
0.000125225
-4.0151e-06
1.05904e-05
-3.92398e-06
0.000259672
-0.000301814
-8.85126e-05
0.000190012
-0.000101457
-8.22857e-05
-0.00017331
0.000266276
0.00021064
0.000317315
-0.00034281
2.63486e-05
-0.000266702
-0.000357758
0.000322506
3.67415e-05
-0.000122601
8.58766e-05
-4.53407e-05
0.00012587
-0.000133075
0.000211914
-0.000375004
2.06618e-05
0.000157154
-0.000120388
1.28561e-05
-1.21998e-05
-0.00023187
-0.000205134
-0.000159349
0.000213936
-8.97366e-05
-6.97737e-05
0.000176189
-8.32812e-05
-9.28806e-05
5.30467e-05
-8.628e-05
3.32334e-05
0.000202611
-0.000229577
3.90686e-05
-8.42041e-05
4.51355e-05
-8.31136e-05
0.000292476
-0.000208734
-5.91476e-05
-3.92847e-05
6.78693e-05
-0.000351764
-0.000341943
-6.6005e-05
0.000150578
0.000193038
-0.000342945
6.60355e-05
2.05349e-05
-8.65703e-05
-1.85311e-05
6.4262e-05
-0.000420988
0.000314778
0.000107842
0.000199115
-0.00025599
5.69204e-05
0.000275836
9.65474e-05
-0.000371683
-8.19855e-05
0.000170176
0.000101265
-0.00031441
0.00046192
0.000245798
-0.000295072
5.73062e-05
0.000506492
-0.000220584
-0.000284564
0.000341181
0.000166487
-9.57307e-05
-0.000141176
-3.94474e-05
0.000203867
4.64607e-05
5.48196e-05
-0.000101278
1.77818e-05
-5.21314e-05
5.50495e-05
7.58663e-06
9.757e-05
-0.000101496
9.86195e-05
-8.75516e-05
-6.80011e-05
0.000189901
-9.93122e-05
-9.05595e-05
-6.93677e-05
0.000169034
-9.96441e-05
-0.000269978
0.000254895
3.59995e-05
2.27334e-07
-9.99701e-07
0.000164706
0.000153146
-4.08261e-05
-0.00013791
9.02699e-05
5.15257e-05
-8.0645e-05
-5.30479e-05
4.69635e-06
-1.87159e-06
5.19782e-06
9.68536e-05
0.000102602
-9.38814e-05
4.94402e-05
1.38059e-05
5.17489e-05
5.59035e-05
-0.000107651
0.000449648
-0.000272403
-0.000173895
-3.36405e-06
5.21775e-06
-1.56651e-06
0.000149155
8.04178e-05
-0.000229493
-3.80036e-05
8.21043e-05
-4.41006e-05
1.70669e-05
-5.94534e-06
-6.79897e-06
-1.15093e-05
-0.000236174
-9.99443e-05
0.000299103
6.30237e-05
4.30221e-05
-0.000106044
6.73217e-05
-4.92006e-05
9.5663e-05
-9.01799e-05
-0.000122408
0.000212655
-0.0002049
0.000290298
-6.49661e-05
-8.00799e-05
-3.08559e-05
0.000180077
-0.000154658
-0.000254948
-0.000203556
0.000138977
6.46293e-05
-0.000304587
-0.000114712
-4.39809e-05
5.47969e-05
-0.000297845
0.000246908
-0.000288536
0.000211343
7.73721e-05
0.000247893
-0.000151213
-9.65623e-05
0.000505466
-0.000201306
-0.000300425
4.92514e-07
0.00020887
0.000386497
-0.000489748
0.000105534
-0.000223098
-7.69227e-05
0.000303971
-8.25956e-05
3.26396e-05
4.99561e-05
0.000370263
-8.69158e-05
-0.00028326
0.000278679
-8.99983e-05
-0.000184352
1.49403e-05
-9.12375e-05
-8.63131e-05
0.000424809
9.58265e-05
-7.66546e-05
0.000338942
6.39641e-05
-1.43767e-05
-0.000250026
0.000178311
7.19256e-05
0.000116627
0.000165826
7.83341e-05
-5.0653e-05
3.24912e-05
-0.000107392
0.000514725
-0.000168684
-0.000339711
-0.000345645
0.000490205
-0.000142186
-7.89219e-05
-0.000109886
0.000188838
-1.27337e-05
8.80279e-05
-7.24883e-05
-0.000110722
0.000265041
-0.000154176
-4.84663e-05
-3.41293e-05
-8.53447e-05
7.53364e-05
-4.07307e-05
-4.16488e-05
8.01893e-05
-0.000299216
-0.000119606
7.65305e-05
3.84073e-06
-5.03101e-06
0.000313347
0.000115237
-0.000427057
0.000305444
0.000202802
0.000325892
7.19939e-05
-0.000390044
0.000106543
-0.000142739
3.62131e-05
2.68795e-05
1.85057e-05
-2.93161e-05
0.000174609
0.000160027
-8.87674e-05
0.000277721
-0.000188502
-2.63704e-06
0.000219685
0.000137536
0.000127756
-0.000265216
3.25836e-05
1.11319e-05
9.72444e-06
-0.000138041
0.000235927
-9.77684e-05
0.000429745
3.47775e-05
-0.000462007
-5.80749e-05
0.000311245
-0.000252141
0.000115357
-0.000442353
-0.000405165
0.000221954
-7.49414e-05
0.000300203
-0.000220579
6.57407e-05
-2.26242e-05
-0.000116856
0.000210734
-9.38238e-05
-0.000101641
0.000388468
-0.000285371
-0.00015435
-0.000133945
-0.00011005
-0.000293901
0.00018655
-0.000185217
1.67932e-05
2.60531e-05
-8.71122e-05
5.11066e-06
6.09248e-05
0.000266015
7.19001e-05
-0.000331733
-2.81248e-05
9.26624e-05
-6.35704e-05
0.000236322
0.000344473
9.08473e-05
-0.000434516
-0.000124564
0.00013027
-5.69085e-06
-0.000105043
1.27873e-05
9.22567e-05
-5.58461e-05
-0.000147332
-7.71256e-06
-4.06498e-06
1.18379e-05
-2.82236e-05
-0.000166936
-0.000463504
0.000120234
-0.000118567
4.45261e-05
0.000417259
-7.19832e-05
6.68256e-05
-0.000113885
5.0741e-05
-1.08197e-05
-0.000414906
7.19683e-05
-0.000271563
6.10879e-05
-0.000380513
0.000322955
4.72622e-05
0.000363329
-0.000156428
6.67188e-05
1.45969e-05
4.21503e-06
-1.27627e-05
-7.89875e-05
4.87924e-05
-0.000143782
0.000140506
2.40159e-05
-9.84661e-05
0.000198764
-2.33481e-05
-7.55682e-05
0.000100983
6.54868e-05
2.42399e-05
0.000151121
2.57022e-05
-0.00016686
0.000272416
-0.000127478
-0.00014472
0.000392233
-0.000115759
9.03384e-07
-8.54821e-06
2.37307e-05
-2.74032e-06
9.10842e-05
8.34455e-05
-0.000174487
8.87049e-05
-0.000117584
2.88817e-05
-6.85383e-05
0.000358915
-0.000287431
0.000376678
-0.000312094
-4.41541e-05
-4.95175e-05
0.000101295
7.17188e-06
-0.000108465
2.76983e-05
-0.00011829
9.05994e-05
-0.000382637
9.82653e-05
7.78735e-06
-8.97394e-05
0.000443455
-0.000276403
-0.000163636
5.0512e-05
5.11687e-05
-0.000101679
-0.00017141
0.000143245
0.000101869
-9.04437e-05
0.000547762
-0.000371239
0.000293911
8.04884e-05
-0.000365383
0.00021821
0.000147483
0.000118265
0.000181561
-8.52674e-05
-9.62582e-05
0.000256349
-0.0001477
-0.000108552
-0.000260286
0.000149742
-0.000152661
-1.43478e-05
0.000167103
-4.732e-05
8.92213e-05
-4.19011e-05
0.00034974
-5.45168e-05
0.000301897
-0.000367468
0.000285307
0.000193559
-4.9121e-05
-7.67689e-05
0.000125904
8.79956e-06
-8.55756e-06
4.61132e-06
6.49858e-05
6.03683e-05
-0.000212922
3.43398e-05
-0.000141504
0.00020462
0.000259651
-0.000121264
0.000241519
-0.000120176
6.72577e-05
-9.44298e-05
-0.000145776
-0.000268595
0.000414543
8.17914e-05
0.000142566
-0.000221857
8.78061e-05
9.73796e-05
0.000252454
0.000140412
0.000224935
0.000295325
-4.81143e-05
-6.79559e-05
0.000116077
7.9247e-05
2.55149e-05
-0.000102974
-8.17905e-05
0.000146258
7.68999e-05
0.000217527
-0.000133264
-0.000392859
-1.89169e-05
0.000350593
-0.000328873
0.000120812
-8.59866e-05
-3.44018e-05
0.000233259
-8.34993e-05
-0.000144074
2.80441e-05
-7.73583e-05
0.000111413
9.94134e-06
-0.000465634
0.00026578
0.000201131
0.000307997
-0.000143248
0.000154038
0.000137311
-0.000291172
0.000446041
-0.000141677
-0.000302398
-8.86953e-05
0.000165652
-7.69509e-05
0.0001395
-7.82744e-05
-0.000262256
0.000403187
-0.000139443
0.000155365
-4.88038e-05
0.000295462
-0.000437625
0.00014585
-0.000159891
0.000314119
-0.000134047
6.08525e-05
-7.49704e-06
0.000156739
-0.000292988
0.000136673
-0.00034947
0.000240417
-0.000373493
0.000286257
9.60806e-05
-0.000271552
0.000160817
0.000122552
0.000335666
6.52756e-06
-0.000336074
-0.000337697
0.000165397
-0.000129106
0.000332125
-0.000200635
-7.40998e-05
-0.000278659
0.000358156
-0.000330927
-9.40966e-05
0.000430293
0.00016071
-0.000251379
9.0808e-05
-1.33337e-05
0.000352667
-0.000338969
-1.37222e-05
8.78967e-05
-7.17517e-05
-3.3116e-07
-2.03403e-06
3.69611e-05
-0.000161508
-0.000247751
0.000126579
4.34247e-06
0.000328271
-0.000156295
-0.000307614
-8.75625e-05
-7.2961e-05
0.000160534
0.000203892
0.000136894
-0.000340715
1.24814e-05
4.37501e-06
0.000140861
-1.5226e-05
-6.98396e-05
-4.87234e-05
-0.000185421
3.81746e-05
0.00015007
8.65146e-05
9.34586e-07
-8.47342e-05
-0.000363877
0.000266489
9.80746e-05
-0.000144188
-0.000114723
7.51777e-05
0.000251291
7.59478e-05
-7.27229e-05
-4.29806e-05
-0.000139611
-6.20523e-05
-7.14999e-05
0.000133554
0.000422311
-0.000123368
-0.000301858
0.000147484
0.000154654
-7.87728e-05
2.81199e-05
-0.000202151
6.42273e-05
-3.79381e-05
0.000291595
6.79174e-05
-0.000407672
-0.000145345
5.66553e-05
-0.000250932
0.000402268
-1.59416e-05
6.85253e-05
-1.73932e-05
9.51239e-05
-7.54957e-05
-0.000132439
0.00029962
-0.000157597
-2.67845e-05
0.000107824
-8.12444e-06
0.000114147
6.12246e-05
-0.000377406
-5.82316e-05
0.000375328
-0.000314364
-0.000176947
8.9399e-05
0.000186172
4.89583e-05
-0.000233227
9.42472e-05
-0.000300898
0.000178517
-0.000278588
0.000120401
0.000158367
0.000179688
3.71775e-05
-0.00021509
-0.000408655
9.71884e-05
0.000116652
-0.000206767
-0.000109
0.000136708
-0.00030908
-5.90149e-05
-0.000126929
-0.000175495
0.000302461
-0.000286509
0.000283231
1.10339e-05
2.75704e-06
8.2918e-05
-6.98965e-05
8.34146e-05
-0.000409488
0.000336665
-0.000352756
-0.000217676
-5.15879e-05
0.000277631
-5.38343e-05
-9.81799e-06
8.55923e-05
8.85501e-05
-6.02219e-05
3.9914e-05
-0.000249347
-0.00010985
0.000247448
-0.000146378
9.18594e-05
5.45342e-05
-7.23431e-05
9.01886e-05
8.33736e-06
-0.000139763
0.00020226
-6.23878e-05
4.1243e-05
-0.00015554
0.000132078
-0.000131638
-4.37034e-07
-9.7024e-05
-0.000146726
0.000244089
9.25126e-05
-0.000132233
0.000106928
2.58109e-05
-3.50314e-05
-9.67975e-05
0.000294877
-1.46853e-05
0.000227866
-4.64468e-05
0.000143284
0.000170648
-0.000106358
-6.42772e-05
2.32932e-05
-2.54375e-05
-0.000326082
-0.000102147
0.000285583
0.000162216
0.000130656
-0.000292431
-0.000305748
7.68418e-05
0.000229355
-0.000139783
0.000113559
2.62352e-05
9.60083e-05
-0.00019044
9.45015e-05
0.000299439
-0.000190362
-0.000106743
0.000147509
0.000344827
-0.000433998
0.000220465
0.00031577
-0.00015131
-0.000164251
-0.000303759
0.000177025
0.00017201
0.000259958
-0.000269175
8.52572e-05
0.000184098
-0.000272569
0.000184251
0.000146877
-6.4513e-05
-8.236e-05
-5.34455e-05
0.000169212
0.000146744
9.21832e-05
9.78646e-05
-0.000199166
0.000121637
8.95123e-05
-4.08965e-05
-3.61962e-05
7.70929e-05
7.12351e-05
-5.53518e-05
9.28657e-05
-9.78631e-05
0.000210968
-5.01415e-05
-9.02747e-05
7.49672e-05
-4.07845e-05
7.93098e-05
9.54907e-05
-0.000212285
8.88607e-05
-6.1233e-05
-0.00018121
0.000299781
-0.000118552
-0.000259222
-0.000102394
7.97627e-05
-0.000305605
0.000227112
0.000267802
-0.000173748
-9.19177e-05
6.99834e-05
9.50493e-05
-0.000165017
0.000103431
9.73264e-05
-0.000200733
-0.000391847
9.65943e-05
0.000298171
-0.000419025
0.000303977
-0.000226173
-6.56828e-05
0.000264311
-0.000143084
-0.000121095
0.00011057
0.000272347
-0.000382514
-7.4052e-05
-0.00026448
0.000344042
2.04492e-05
-6.37842e-06
0.000101857
-0.000439984
-0.000276145
-8.90535e-05
0.000312875
9.53582e-05
-0.000405927
-9.44948e-05
-0.000153879
0.000248714
6.74695e-06
0.000181231
-8.5156e-05
-0.000101321
-8.52296e-05
-0.00032845
0.000498021
-0.000164419
-0.000277247
-7.11362e-05
9.13683e-05
-3.45493e-05
-5.68184e-05
-5.69395e-05
7.40868e-05
-1.117e-05
0.000128309
0.000168699
-0.000296291
-0.000302061
0.000229043
-0.000158293
-0.000120083
0.000188785
-6.81582e-05
-0.000120553
0.000235002
-0.000310086
7.53842e-05
6.83516e-05
-0.000133427
-0.000343094
0.000304151
4.05028e-05
-0.000265713
-9.62338e-05
3.7087e-05
6.54641e-05
-0.000127514
-4.82039e-05
-3.05689e-05
0.000244965
7.54638e-05
-0.000314194
0.000321395
8.99385e-05
-0.000406304
0.000156161
0.000144933
0.000119528
-0.000379309
0.000266081
6.81088e-05
-0.000110103
4.19964e-05
6.58212e-07
9.01255e-05
0.000302205
0.000126501
-0.000428519
-0.000288483
0.00020602
0.000108563
-4.54748e-05
-6.30865e-05
-6.94986e-05
0.00027591
-8.77171e-05
7.33179e-05
1.43992e-05
-0.000212475
0.000260773
-4.26476e-05
-9.90018e-05
0.000141689
-1.48778e-05
4.38292e-05
0.000308718
-9.81769e-05
-0.000207436
5.13661e-05
5.71974e-05
-1.19192e-05
-7.59457e-05
-0.000116836
0.000109838
7.00398e-06
1.37123e-06
1.25087e-06
-1.70897e-06
3.45987e-07
-4.83572e-05
0.000409644
-0.000111117
-2.86538e-05
0.000388899
-7.38199e-05
-6.25266e-05
-2.46761e-05
9.10981e-05
0.000158144
-8.98619e-05
-6.82607e-05
9.32972e-05
-0.000232951
-0.000221587
-0.000198671
-0.000141847
4.56336e-05
-1.04668e-05
-7.58927e-05
8.63601e-05
9.51053e-05
3.69767e-05
4.76505e-06
-5.6174e-05
-9.60998e-06
-4.48417e-05
5.44517e-05
-2.45425e-06
-2.73652e-06
6.22548e-06
6.43075e-05
-0.000163161
-0.000190085
-0.000278174
9.60485e-05
0.000215462
2.80423e-05
-0.000100335
7.32754e-05
-4.19841e-06
4.66163e-06
-0.000178325
-9.06575e-05
-8.93268e-05
-0.000252639
7.8317e-05
3.63297e-05
-1.41461e-05
-1.87437e-06
4.58495e-05
-1.76414e-05
-7.31881e-05
-6.86531e-05
-0.000237496
-5.99254e-05
0.00030589
0.00020265
-0.000115391
-8.72032e-05
-0.000413694
9.1902e-05
2.58501e-05
-8.43254e-05
-6.20971e-06
1.50041e-05
-0.000204704
5.40916e-05
-0.000130716
0.000109256
2.14668e-05
-5.36238e-05
-3.40932e-05
-0.000107793
-9.57028e-05
0.000147724
-0.000241891
-0.000150519
0.000103485
4.70436e-05
-7.9275e-05
4.12715e-05
7.6552e-05
0.00016214
-9.66002e-05
0.000168418
-7.18067e-05
-1.6353e-05
3.95845e-05
0.000125271
-0.000163625
3.83756e-05
0.000365806
-0.000240356
-0.000117299
6.91909e-05
-0.000348726
8.09001e-05
0.000440492
-0.000342917
1.65888e-05
0.000356207
-0.000388505
0.00020352
4.66206e-05
-0.000249925
-3.16328e-05
-5.88725e-05
9.05074e-05
1.25365e-05
-2.20706e-05
1.54886e-05
-0.000154785
-9.50277e-05
0.000408867
-0.000250586
-0.000153797
7.92236e-08
-2.86468e-06
-8.42668e-05
3.69471e-05
-0.0001467
-0.000173786
0.000320625
-0.000358994
0.000239904
0.000122585
9.80116e-05
8.35819e-05
0.000191294
9.14982e-05
0.000200211
-0.000288681
-3.06728e-06
1.04119e-06
-4.46256e-05
-3.96409e-05
-0.000394358
0.000167157
0.000423578
7.45144e-05
-7.15306e-05
-0.000167847
-0.000187825
6.36534e-05
-0.000112762
4.9901e-06
-4.3394e-06
6.93934e-05
-0.000161778
9.2416e-05
1.0396e-05
1.36179e-05
-1.54334e-05
-2.53458e-05
-0.000144804
0.000181145
0.000167139
8.09732e-05
5.97089e-05
3.4999e-05
-7.01957e-05
3.51968e-05
-0.000118087
1.258e-06
0.00031018
9.45425e-05
-0.000404297
-6.77191e-05
0.000159931
5.58701e-05
-0.000259784
0.000175015
0.000285322
3.53637e-05
5.6005e-05
-0.000125251
9.94582e-05
2.5797e-05
-0.00010831
-0.000254854
-0.000295934
0.000260948
0.000149291
0.000293337
2.85106e-05
-1.1033e-05
-2.43484e-05
0.000313116
-0.000283311
5.4996e-06
6.35248e-06
0.000194882
-8.93642e-05
-0.000105451
-0.000250134
0.000330749
-7.99139e-05
8.27976e-05
6.40837e-05
0.00024054
-3.68127e-05
-7.97442e-05
-0.000295873
0.000375927
-9.04736e-05
0.000193927
0.000283751
-0.000384024
0.000260741
-0.00013061
-0.000129912
-0.000177591
9.43374e-05
4.13736e-05
0.000218223
-0.000141982
-0.000217202
0.000360843
6.46145e-06
-9.96717e-07
-0.000164975
0.000150242
1.08969e-05
2.58357e-05
-5.60335e-06
1.62024e-05
8.8739e-05
0.000181041
-5.13167e-05
7.11291e-07
7.02247e-05
-4.95993e-05
3.99894e-05
0.000132027
-0.000250933
0.000119075
-1.15382e-05
-4.57074e-05
6.93849e-05
-8.3915e-05
-7.24829e-05
2.92639e-05
-1.20762e-05
-3.3336e-05
-7.1706e-05
0.000296821
-0.000212577
0.000338361
-0.000265291
5.80584e-05
3.08026e-05
-6.54564e-05
0.00017209
-0.000106567
-0.00015398
-5.47976e-05
0.000330049
-0.000358255
3.10995e-05
-2.82946e-05
9.5886e-05
-6.62592e-05
-7.66692e-05
-0.000246146
0.000328408
-0.000290249
0.000292762
-1.0095e-06
-0.000182101
0.000189801
-7.48968e-06
0.000291986
7.85521e-05
-0.000363505
-7.93847e-05
4.4986e-05
3.43987e-05
-0.000296097
4.72907e-05
0.00024922
0.000294022
0.000106157
-0.000399828
5.24363e-05
-0.000206179
-0.000351777
0.000211384
-6.74114e-05
5.69451e-05
0.000298605
-0.000217607
-1.83077e-06
3.3632e-05
-2.25615e-05
0.000244854
-8.01193e-05
3.16531e-05
0.000126811
5.52994e-05
0.000237712
6.25535e-05
-7.84951e-05
-0.0001309
0.000433396
-0.000302287
-3.51074e-05
0.000196507
0.000337305
-6.51923e-05
-0.000318897
0.00038159
9.58787e-05
-5.73467e-05
0.000207591
-0.000149775
0.000225124
-0.000338101
4.95581e-05
-0.000143781
0.000272758
0.000124117
-0.00010465
-0.000356178
9.10896e-05
-0.000176322
-7.88579e-05
0.000211026
8.18477e-05
-0.000405862
7.94547e-06
0.000239045
-2.43883e-05
3.16765e-05
6.89417e-05
-0.000250727
-0.00034007
6.19444e-05
-6.66725e-05
0.000332766
-0.000265072
0.000318398
-0.000206364
-0.000109775
5.71325e-05
-8.4098e-05
2.69655e-05
-1.27952e-05
1.99049e-05
-6.86555e-06
0.000300158
-0.000430857
1.9482e-05
-0.000314073
0.000425424
-0.000297611
-0.00012699
0.000277595
-0.000212336
-6.47385e-05
-0.000107968
-1.72776e-05
-1.18354e-05
3.12783e-05
0.000189357
-8.07682e-05
-0.000108535
-2.4984e-05
-0.000105726
-9.70514e-06
7.39844e-06
2.31115e-06
-0.000396585
0.000283493
0.000119477
0.00024551
6.97582e-06
-3.91294e-05
-0.000401785
0.000207867
0.00020158
2.4482e-05
0.000369983
-0.000389687
0.000129106
-0.000387432
0.000259398
0.000225274
-0.000161513
-4.31602e-05
0.000160514
0.000189109
5.27982e-05
-0.000233965
-0.000129881
4.95011e-05
8.03845e-05
-0.000251859
0.000130548
-5.65446e-05
0.000219122
-7.95496e-05
0.00014278
0.000304025
-0.000146193
0.000103586
-0.000330627
0.000115022
-6.88224e-05
8.26995e-05
-8.77565e-06
0.000110136
-0.000175523
0.000126531
9.16091e-05
-0.000218057
0.000126742
-0.000205463
-7.12187e-05
-0.000180747
0.00025728
-0.0002181
-6.8665e-05
0.000229625
-0.000249466
7.0297e-05
-0.000383934
0.00012265
-7.71149e-05
-0.000222128
0.000303137
0.000125986
-0.000224338
-5.6511e-05
0.000355328
-6.44189e-05
-0.000233696
0.000305075
-0.000171538
1.13065e-05
-0.000155916
0.000292314
8.42408e-05
-0.000375546
0.000310917
-0.00010697
-0.000208984
-0.000156055
4.24144e-05
-0.000254044
0.000281944
6.46557e-05
0.00038655
0.000134086
-5.7356e-05
-7.67204e-05
-0.000208871
0.000307745
-5.93762e-05
0.000356651
-0.00029529
-1.40716e-05
1.652e-05
1.60546e-05
1.87795e-05
-2.81196e-05
-0.000326792
-5.32634e-05
0.000383227
-8.26139e-05
-0.000256111
0.000339657
0.000304036
-6.87766e-05
0.000176515
-0.000242561
2.71543e-05
-9.21911e-05
6.55847e-05
0.000331423
-0.000413647
8.6211e-05
0.000150362
-0.000340201
0.000286486
0.000139894
-0.000236599
7.36652e-05
-1.28511e-05
0.000151868
-0.00010014
6.58446e-05
6.68549e-05
-0.000132693
0.000378587
-8.53379e-05
3.37261e-06
-1.25664e-05
8.01444e-05
-6.73563e-05
0.000200099
-0.000353732
0.000154915
-5.15645e-05
0.000335395
-0.000253123
0.000274705
-0.000398943
0.000124967
0.000462957
-0.000331426
-0.000128887
8.11818e-05
0.000214859
-0.000290089
-0.000122225
-0.000267738
-9.289e-05
2.71447e-05
6.57459e-05
0.000177351
9.73065e-05
-0.000274297
0.00038199
-7.1398e-05
-0.000182565
0.000319522
-0.000186626
-0.000206809
0.00020705
-8.0172e-05
4.74931e-07
-3.68946e-06
0.000252429
9.32196e-05
-0.000343415
-0.0001164
0.000387475
-0.000270612
2.49394e-06
2.88011e-06
-0.000136463
9.66047e-05
-0.000301472
0.000205605
0.000390271
-0.000114847
6.71945e-05
-0.000168248
-0.000446387
0.000334236
0.000113018
-0.00014183
-2.00335e-05
0.000166946
-3.51613e-05
7.07329e-06
3.48358e-05
0.00012736
0.000129076
0.000252985
0.000336468
7.39559e-05
-0.000406312
0.000386345
-0.000284776
-9.99743e-05
0.000309963
8.70866e-05
-0.00039196
0.00018645
-2.10399e-05
-0.000116762
-0.000373928
0.000183631
0.000190489
-0.000306739
0.000391303
5.60986e-05
-7.39108e-05
1.78123e-05
-3.48029e-05
-8.86636e-05
-0.000303346
0.000392679
9.35356e-05
0.000162003
-0.000288894
6.29439e-05
0.000438863
-0.00034719
0.000171297
1.35875e-05
-0.000174478
8.75363e-05
0.000187958
-0.000272584
-0.000475459
0.00019372
0.000287108
-0.000346498
0.000272876
7.52704e-05
5.64241e-05
0.000246612
-5.67463e-05
-0.000253095
0.000316759
-0.000267843
0.000254782
0.000408231
0.000117479
-5.06063e-05
-6.68684e-05
-0.000279198
-0.000102584
-0.000240786
0.000159741
8.12615e-05
0.000142274
-0.000242121
9.99518e-05
-7.88707e-05
-0.000227573
0.000312056
0.000123814
0.000207355
-8.89052e-05
0.00029019
0.000108746
-0.000333877
0.000228151
-0.000306114
0.000147014
0.000159594
0.000101711
-7.44152e-05
-8.81932e-05
3.82901e-05
0.000103682
9.12569e-05
-2.29598e-05
7.89891e-05
-5.54895e-05
0.000323822
-0.000245985
0.000273375
-0.00035767
-2.46726e-05
-0.000351929
-9.35355e-05
0.000428874
-0.000146299
0.000177244
1.41955e-05
-0.000181123
-0.000308576
-0.000252889
-8.7402e-05
-0.000154007
5.44349e-05
9.9801e-05
-0.000131938
0.000438603
-0.00030506
0.000389046
-0.000269602
-0.000112524
9.03915e-05
-0.00011996
0.000326807
0.000213951
-2.59436e-05
-0.000148475
7.40582e-05
-0.000291838
0.000430059
-0.000136598
0.000155753
-5.44242e-05
-0.000185244
0.000247236
-0.000177721
9.68491e-05
-2.47167e-05
-7.05982e-05
0.000331902
-0.000421609
4.48973e-05
4.43241e-05
-6.68589e-07
-2.78544e-05
0.000260634
6.63893e-05
-0.000157133
7.32495e-05
-4.12518e-05
2.81877e-05
6.99811e-05
-9.58488e-05
-0.000330019
0.000426534
6.92568e-05
6.48375e-05
9.80817e-05
0.00016144
-0.000256778
0.000487192
-0.000373095
-0.000111195
0.000404869
4.76432e-05
-0.000356759
0.000324969
4.29629e-05
7.82281e-05
7.99342e-05
-0.000209763
-0.000127885
0.00034074
4.63478e-05
-8.7244e-05
-0.000276489
0.000393083
-0.000122223
0.000231158
-0.00010891
0.000266511
6.08533e-05
-7.85661e-05
1.95803e-05
4.75349e-05
6.44301e-05
-5.18111e-05
2.08342e-05
3.29321e-06
-1.58429e-05
-6.05031e-05
-3.57298e-05
-0.000411263
0.000118759
0.000294371
-2.67465e-05
0.000214445
-0.000177456
-0.000336728
-9.92068e-05
0.000436515
0.000243244
0.000279447
-0.000188905
9.94828e-05
0.000116733
-0.000377475
9.32674e-05
-0.000123483
-0.00017807
0.000112484
-0.000169417
5.69689e-05
0.00014305
0.000170304
-0.000313338
-7.84347e-05
2.97106e-05
4.87243e-05
-0.000110035
0.000408049
-0.000295576
0.000103997
0.000341844
1.89945e-05
-0.000351585
-3.00426e-05
7.42658e-05
-4.42232e-05
-4.67766e-05
-0.000358027
0.000331957
2.85475e-05
-9.9072e-05
7.59083e-05
-0.00032041
0.000237392
8.63398e-05
-2.61627e-05
-7.13062e-05
7.64784e-05
-0.000181409
0.000108023
8.00925e-05
0.000168182
-0.000244591
0.000396551
-0.000286147
-0.000103156
0.000156294
-0.000253943
9.79901e-05
8.43925e-06
-7.22477e-05
-0.00028749
-0.000121847
-0.000171991
0.000105286
6.67475e-05
-0.000147796
6.46884e-05
8.31111e-05
-6.08296e-05
0.000126679
-7.89882e-05
-7.81103e-05
0.000320221
-5.18616e-05
9.99676e-05
4.4612e-05
0.000309272
-0.000344524
-0.000134466
7.71192e-05
-0.000267144
0.000378126
-3.28734e-05
-0.000144661
4.559e-05
0.00010195
0.00019605
-0.000110359
5.093e-05
8.21468e-05
0.000300609
0.000114277
-0.000410682
-0.000107278
-3.46847e-05
8.18581e-05
-0.000106894
0.000266677
-0.000346188
8.94658e-05
0.000132521
0.000128426
-0.000206182
0.000189717
-4.90853e-05
-2.39936e-05
7.30789e-05
8.1198e-05
0.00023108
6.02234e-05
-0.000282655
-6.2807e-05
-3.00822e-05
1.96225e-05
0.000331089
0.000268458
-0.000257193
-0.000344969
9.00377e-05
-8.6723e-05
4.20978e-05
0.000283516
-0.000114132
-1.03951e-05
3.65542e-06
9.83632e-06
-0.00021041
0.000257315
-0.000317484
6.58431e-05
7.64839e-05
-0.000124817
4.86126e-05
7.62077e-05
0.00028243
-0.000323072
0.000164249
0.000158907
0.000303373
-4.12265e-05
0.00020894
0.000181962
-0.00031587
0.000108509
0.000128399
-0.000233746
0.000327118
-0.000133607
-0.000333383
-0.000112025
-0.000281858
-6.02857e-05
-4.4376e-05
-3.48989e-05
-0.000332795
-8.38503e-06
0.000343221
1.49515e-05
3.65599e-05
0.000171754
0.000317752
-2.76581e-05
-0.000284491
0.000320758
-0.000261627
0.000152563
-8.47497e-05
-6.77897e-05
0.000228996
-0.000124182
3.881e-05
-0.000288251
-2.98146e-05
-5.03046e-05
3.42521e-05
-8.33372e-05
-0.000439257
0.000106912
6.68167e-05
8.57685e-05
0.000159875
-0.000246161
7.87823e-05
-4.87354e-05
-3.00468e-05
0.000124033
-0.000215415
-0.000110036
0.000175084
-6.50372e-05
0.000113212
0.000242108
-8.49729e-05
0.000171365
0.000132255
-0.000302257
-4.80136e-06
-0.000171072
0.000175896
0.000107849
-4.55204e-05
-6.23256e-05
-2.38102e-05
9.72664e-05
-7.22383e-05
-0.000403515
-1.41486e-05
7.71943e-05
0.000233095
-0.000283612
0.000104539
0.000100091
-0.000404036
-0.000313189
0.000106438
0.000130846
-0.000218255
8.74636e-05
-6.447e-05
5.40685e-05
1.04015e-05
0.000235729
9.12996e-05
-4.07043e-05
8.19758e-05
-1.05623e-06
3.26595e-06
0.000111698
-1.55414e-05
-9.3525e-05
-0.000132137
-5.8391e-05
-4.44156e-05
0.000102808
-0.000292669
-5.21309e-05
-3.67543e-06
2.25739e-06
-0.000199995
-9.02258e-05
0.00032842
-0.00039184
6.84555e-05
0.000269758
-0.000259801
0.000390012
-0.000428446
0.000293906
0.000135601
-0.000342477
-0.000126758
-0.000411474
7.59275e-05
-9.85347e-05