/*--------------------------------*- C++ -*----------------------------------*\
| =========                 |                                                 |
| \\      /  F ield         | OpenFOAM: The Open Source CFD Toolbox           |
|  \\    /   O peration     | Version:  v2012                                 |
|   \\  /    A nd           | Website:  www.openfoam.com                      |
|    \\/     M anipulation  |                                                 |
\*---------------------------------------------------------------------------*/
FoamFile
{
    version     2.0;
    format      ascii;
    class       volScalarField;
    location    "200";
    object      omega_0;
}
// * * * * * * * * * * * * * * * * * * * * * * * * * * * * * * * * * * * * * //

dimensions      [0 0 -1 0 0 0 0];


internalField   nonuniform List<scalar> 
13917
(
0.0391894
0.0221946
4.51985
0.0237139
0.0221081
0.435493
4.04
4.76709
5.67549
0.0626535
0.150879
0.0624796
0.0237922
12.1116
0.026117
0.024969
0.0223151
0.0512749
0.0614107
0.0221134
0.0222667
3.94458
0.0220935
4.82003
0.0220131
3.75652
0.0414841
0.0532249
0.705495
0.0951619
0.0416765
0.0276732
0.0356667
0.0255586
0.022029
1.34997
0.0221019
3.62836
0.0255462
6.32245
0.0219042
0.0222858
0.021588
0.0807379
0.0220902
0.0273158
0.0504709
0.0664517
2.93424
0.0220197
0.0266952
0.022336
3.61343
0.0259095
0.0223275
0.0266331
0.148299
0.0220295
0.0248861
0.0220459
10.5685
0.0221976
23.5942
0.022102
0.407799
15.5936
0.0221035
0.022044
0.16401
0.0358625
0.022116
5.75503
4.18536
0.0220195
2.91756
0.0732625
5.49108
0.0227451
3.53896
0.0222365
0.0222041
0.022111
0.382419
3.59549
4.8767
0.0226534
0.0221796
11.3268
0.026438
0.0215795
3.95157
0.0829322
0.0218922
0.0229999
13.6232
0.380946
0.113585
0.0614201
0.128526
0.106928
0.0218202
0.0322595
0.0812119
0.0231538
0.0218027
6.00907
0.42375
0.0700274
0.0223204
0.0444609
4.29784
5.53616
0.0799081
5.89745
0.0229472
3.11263
0.0220116
1.47453
5.08941
0.0259033
0.0222738
0.158462
4.55736
0.0501302
0.0219804
0.0228343
0.0220541
0.021988
0.0216091
0.419821
3.40696
0.0228528
0.0221125
0.0222742
3.4871
4.7997
0.0397267
0.112212
0.0220964
0.0257682
0.424825
0.021778
0.022567
0.0997466
0.0220441
5.86926
0.743994
0.0222832
0.0217501
0.0282931
0.0532526
3.16868
0.0819149
0.0407693
0.0267984
6.5985
0.0344322
3.22391
7.37808
3.45217
0.0242026
0.0416203
0.0222365
0.108223
0.0783133
0.126086
0.0231238
0.0568151
0.0219229
0.0332658
0.0410192
6.64242
0.086992
0.0226243
5.482
0.0446571
3.37621
1.97969
5.7861
0.0219281
0.0867236
0.0431226
0.0217721
0.0221705
0.0298458
3.90527
0.307348
8.70987
0.0357397
0.117119
0.361312
5.45655
0.281344
0.0221038
0.118627
0.0404736
0.0224605
0.0219008
0.222719
5.83729
0.0261556
0.022035
0.0527502
0.0525635
4.58898
1.69665
0.0220313
0.0220438
0.0599924
4.20147
0.0224685
4.06055
6.43836
0.117534
0.0218103
0.561976
0.0526502
6.08106
0.0219664
11.2429
0.021922
0.0854868
0.0218952
3.67907
6.05332
0.0252918
1.78961
0.0271133
0.0218135
1.01595
0.0852649
0.0353615
4.72318
8.63619
0.0217762
0.0281466
3.92015
4.66518
0.0222286
0.0219509
5.00187
0.129143
0.0222668
0.285011
0.0915158
0.0402065
0.0365267
0.0222285
0.0444641
7.15159
0.0219744
0.109738
0.139237
0.0220312
0.0220191
0.064865
3.77589
0.0771626
0.0301763
0.0262618
0.0222712
5.98704
7.03673
0.621319
0.021821
4.46991
6.26895
3.90784
3.4741
0.078318
0.0222149
0.0219372
0.0506814
3.90835
0.113705
0.0246158
2.39171
0.0418348
0.0216018
8.4925
0.02209
5.48459
0.0257013
0.022262
0.0272162
0.0404518
0.0421661
0.294543
0.0321908
0.0220704
0.307407
4.76684
7.00355
0.0219679
4.34927
0.0221728
0.022066
0.0220196
1.07077
0.0221057
0.0935955
0.0356332
0.0219026
0.052883
0.023115
2.43712
0.0435639
0.0759101
0.0218159
0.0220099
4.38203
5.23163
0.0220059
0.021916
8.54934
0.0219123
4.05479
0.0218084
3.68995
0.0224842
0.430982
0.0327254
3.03476
0.0239067
1.40045
0.302449
0.0272215
0.128322
0.490768
0.0222699
3.53286
0.121156
5.2375
0.024746
6.61188
0.0288322
4.73775
0.24457
0.107044
0.104243
4.36763
0.0222165
0.0425377
4.28779
0.0221661
0.0234637
6.08351
0.270488
0.0225511
0.219676
0.648481
0.0218616
6.11946
0.476086
0.0220836
0.0218957
0.0221804
0.0217451
0.320471
5.67995
0.68577
4.29274
0.0220176
0.12271
6.52911
0.0411226
3.96145
3.76679
5.95158
0.0217701
0.514507
0.0218757
11.2065
0.0220437
3.7675
0.0914488
0.0247219
0.022198
0.0570684
0.0941661
0.0692279
8.94536
4.48799
9.40597
0.0463565
0.0587998
0.0219588
4.85433
3.79457
0.0220522
0.718999
0.0220443
0.303115
0.0224785
0.0222265
0.0231525
3.34206
0.0231158
3.42445
7.06691
0.133751
0.466781
0.0222601
0.474988
0.418775
0.02204
0.300305
0.0221485
0.0220295
0.0953336
0.0222616
0.0220174
0.021872
0.338337
0.0222477
5.52297
3.65227
5.08755
0.281801
3.26809
6.01778
0.0405355
0.0220241
0.16456
0.0253224
0.029372
0.0220964
5.7748
4.03614
3.74155
0.0249257
0.103629
0.0245031
0.0259993
0.0688154
0.0229397
0.661701
0.0223072
0.0220966
4.00612
3.37818
3.359
0.121123
6.02967
3.45965
4.24985
5.45592
0.021639
0.0550378
0.0229969
0.0220727
0.726667
0.0513906
0.0218993
0.0595825
0.0385445
5.57348
0.0220359
0.111045
15.6046
0.675039
4.35715
0.0222551
0.0220592
0.0224257
0.0346561
0.0217727
3.96117
0.536
0.0320152
5.52515
0.0265527
0.110772
4.40404
0.756255
0.129206
0.465316
0.110683
0.058218
0.155027
0.0413361
0.151507
0.566619
0.0465275
0.0778431
0.0218739
1.94432
0.0273907
0.0216797
0.0332344
0.0228556
5.15383
5.90398
0.0219057
0.0216198
4.23539
8.57981
0.0222618
5.725
0.0228876
0.209229
0.0219202
4.88051
2.32482
0.0282196
0.0223274
3.1933
0.239424
6.87842
0.0222694
6.27836
2.52176
8.80418
0.0216894
4.63115
6.42696
0.0411854
0.0218889
0.0223025
0.0736445
0.324991
0.0218317
0.0219017
0.0219602
0.0219546
5.0171
0.79879
0.0406255
0.293843
0.0219669
0.0218273
0.10152
5.24235
0.0327998
0.0219364
0.0220252
0.0220647
8.74468
6.08241
0.0221738
0.0220646
0.372288
0.0409616
0.0326904
0.0220493
0.0232303
0.0267942
0.0758531
0.392034
0.306716
0.167968
0.0932527
1.79301
0.0742484
0.0219781
5.94305
0.0220681
0.0237405
0.0242944
1.84883
0.0736983
0.0218327
0.674815
0.107454
14.1692
0.0942469
0.0354474
0.0404848
0.0221892
6.80512
0.469519
3.92737
0.022223
0.0291669
0.299579
3.76713
24.1319
0.0643381
0.139793
0.0249179
0.0240811
0.0220521
0.0537174
0.0859141
0.0221596
0.0521316
0.132804
4.02283
6.20085
0.0240028
0.106832
1.65689
0.0283295
0.0223797
3.53686
6.36832
5.67308
0.267866
0.0216238
5.52349
0.0722313
0.0218662
0.0310646
0.0707831
0.0342923
0.0933855
3.55774
0.151172
0.0369698
6.74896
0.0231459
6.84147
0.0222373
0.0221671
4.44291
6.31721
0.632592
0.0231419
0.0225694
0.0220679
0.0424188
3.40136
0.118769
0.0242798
0.120455
0.055941
0.0219246
1.82651
0.115562
1.16535
0.0219483
0.146602
0.0228345
11.2943
0.063931
0.073603
0.0294606
0.0218827
0.0216924
0.0220901
0.115297
0.0276773
0.313614
7.35604
0.0560927
0.0218707
0.147239
0.659221
1.90852
0.0219484
0.0270367
0.0219094
0.0288016
0.0250444
6.25482
0.0222284
3.58356
0.0285278
0.149481
0.0841435
4.21518
0.0765727
0.0222562
4.1331
17.4096
0.0220383
0.024222
2.46418
0.218789
0.113525
0.0222376
0.022357
0.326532
0.0248574
0.0686054
0.0619347
0.0216949
0.0524699
4.57653
0.0219352
0.0230885
0.0219799
5.41386
0.0222656
0.0246221
6.01991
0.0233289
6.27597
0.0268709
0.0363762
0.0219726
0.049509
0.022028
0.0568141
0.0218882
0.0823101
0.0228872
27.871
2.99616
5.27939
0.0223051
0.0222058
0.0704702
0.0472648
4.64405
5.58296
0.050804
0.0220333
0.333394
0.663248
1.00907
0.260142
0.0486253
3.52336
0.0387281
0.0399739
0.140517
0.177305
0.0501167
1.08738
0.0496114
0.0236304
0.0753059
0.0273288
0.02176
0.0286004
0.0444198
0.0276574
0.0220352
0.021929
0.0561515
0.0233616
0.0694926
0.0220357
0.0220587
0.0222733
0.0231349
0.0215462
0.0256977
0.022
5.057
0.0615511
0.359912
0.0217959
0.0222471
0.0477356
0.0592078
0.0226777
8.27005
0.0769798
11.1809
0.0286189
0.1182
0.0224551
0.0222688
0.0219374
0.0231301
7.74695
0.022255
4.22428
0.0259639
5.91232
0.0485185
0.0782308
0.146773
0.0216831
0.022291
0.062555
0.0220453
0.0223989
7.89731
0.0227076
0.0221804
0.0276324
0.0219445
0.0216774
0.0277186
0.0280831
6.13092
0.0346045
0.0219342
0.0218795
3.79534
0.113121
0.0221982
0.022227
8.13706
2.19428
8.53542
0.035413
0.0236392
0.0217873
0.0216594
0.0473303
0.0356143
0.23083
0.0251435
3.65132
0.0223078
0.0236196
9.25176
0.0220507
0.0275398
0.0219916
0.0220807
0.0431185
0.0427113
0.0224905
6.23437
4.33894
0.0851077
0.021974
0.0216021
0.114566
3.52248
0.0222612
1.26157
0.0216014
0.0419404
0.021771
0.0218009
0.336052
0.0220051
3.53103
0.0392215
0.0222731
0.0216198
0.0220647
0.0219112
0.0229985
4.15257
0.0218898
0.0217791
5.11989
5.87218
0.0380272
0.0459258
0.0650421
0.0250463
0.0217919
0.0280262
4.87394
0.0868302
0.0221302
0.0222717
5.68886
0.0353472
4.40108
0.0222662
0.0227831
6.56293
0.0329639
0.0225676
7.845
1.7457
0.0219079
0.127147
0.0219348
0.0219774
0.0217833
4.22594
0.0215393
0.0219769
0.0217863
3.60709
0.0248372
0.207554
0.0636073
0.0217949
0.0326552
0.022174
4.30476
0.0219663
0.0219112
0.0221814
0.119017
0.0221736
0.150986
5.72321
4.66874
0.0265053
0.511485
5.28458
0.0220062
6.91152
9.92455
4.78353
3.27588
4.99532
36.4283
0.136986
0.0223301
3.49008
0.0329046
3.71526
0.021682
0.0218881
0.0222039
0.0221671
0.0258335
0.0308445
4.51059
0.0218773
0.0220722
6.35749
0.279676
0.0220655
0.0375855
0.0292624
0.0222233
2.80688
0.0396398
0.0237338
0.0247637
5.73428
7.67329
1.31489
0.0217503
0.24185
0.107109
4.58439
5.99128
0.0854357
0.0219173
0.0225153
0.0223101
0.0215008
0.0232207
0.0216316
0.0269022
0.037725
5.82492
0.126793
0.0219894
0.115307
4.27983
0.0408565
0.0222977
6.21454
0.021886
0.0223174
0.0375621
6.88908
0.0221741
0.0219494
4.069
0.195251
1.23938
0.10278
1.18052
0.0219253
0.167653
0.0223265
0.0220011
0.0223181
3.89341
6.2709
0.0217731
0.0216164
0.0220122
2.62645
0.023009
0.0293361
0.0220459
0.0224372
0.162842
0.0218127
0.0579609
0.326744
3.34487
0.0220006
0.0806215
0.0241768
4.39074
4.22083
0.0220196
4.42871
0.0693683
1.45425
0.0221726
3.29654
0.0222455
0.0264501
0.0419302
0.1027
4.18854
1.55768
0.191383
6.45767
0.0218644
0.282058
0.0217915
0.0273176
4.07012
0.0220839
0.0222529
0.0228003
0.0221908
5.31018
0.0216778
0.0220846
0.0533581
0.0459189
0.0484989
0.59698
0.127582
7.56846
0.0631621
0.0346278
0.0390942
4.43975
0.0390099
14.4629
3.68087
0.0253874
0.0218184
3.17106
1.08086
0.0222862
0.106235
0.033181
0.0223754
0.0262101
0.0222346
0.0419358
0.0222921
0.0476509
0.106513
0.0218833
0.0589649
0.0218198
0.0584002
0.0218837
0.0259993
0.0562841
0.0235025
0.022127
0.021783
2.07744
0.0777428
6.15008
0.0220144
0.022144
0.0571759
0.0219919
0.0879021
0.0780093
0.022377
0.0918855
0.021804
10.1985
0.0222513
0.0365044
5.27195
0.2795
0.0219319
0.0235892
6.81767
0.0220033
0.021921
4.45081
4.11528
0.0241991
0.181263
0.0221041
0.0221224
3.96448
0.0230027
0.0216934
0.25117
0.0218272
2.06612
0.0221977
0.0216961
0.0222005
0.130123
3.54897
0.0221143
0.0222683
0.0219261
0.0257861
0.0220776
0.977245
0.0570131
0.0222688
5.68322
0.0488067
0.285669
3.46019
3.66408
0.0217607
0.0222399
0.0220448
0.719087
0.0262815
3.58698
5.65268
0.0238741
3.96388
2.31301
0.0480612
0.146786
0.0676603
0.387749
4.27129
0.0616306
0.91082
3.6159
0.0611319
0.0251388
4.28418
0.0536583
0.0216942
0.0233068
14.1212
0.0376579
0.0218997
0.0513115
0.0964005
0.0379117
4.15235
0.0237106
6.45748
0.0389963
0.937836
0.120377
0.25801
0.0286102
0.0217941
0.0225785
4.59288
0.0219974
0.0240831
0.0218032
0.0232428
0.0218813
0.0350461
0.148844
1.91546
0.0444388
0.0589686
3.79594
0.339169
0.0218743
2.27275
3.84202
0.0217346
0.021912
0.0303226
6.62382
0.0222544
0.0670768
0.578954
0.0469706
0.0220566
0.0232017
0.0218446
0.106544
0.0389825
0.0219911
31.0168
3.5289
0.0423636
1.53874
0.0619929
4.13782
0.0232665
0.0253279
4.18749
2.15469
0.0862082
1.74022
0.0280239
0.0222763
0.0219727
0.022189
0.0220275
0.0226144
0.051577
0.0219402
0.118277
0.0219433
0.0281472
0.021771
0.0776098
0.117629
0.714075
0.0219938
0.255379
0.021971
4.37638
0.022039
0.0254971
0.0221243
0.25319
4.50077
0.137217
0.0219341
0.127158
0.0220313
0.0294141
4.05234
0.021949
0.022339
0.0442832
0.0310418
3.96075
0.0219416
0.0295862
0.0232309
0.0220436
0.0320906
0.0224736
0.021751
0.0236381
6.21888
0.0243622
0.242842
5.71241
0.0501528
3.42207
0.0241251
0.0217573
0.0307746
8.13883
0.0234279
0.036031
0.0407921
3.48709
0.021898
5.82634
0.0604123
0.0677551
0.0217257
0.0216345
0.182759
0.022409
0.0222859
0.0334918
0.0216897
0.0243485
0.0282505
0.0666453
0.275144
3.95254
0.0253034
0.0702608
3.47786
7.43787
0.0367749
0.254733
6.49612
0.0383302
13.4564
0.0236354
18.6032
5.19182
0.0216793
0.022262
0.0219568
0.0226433
0.0439463
0.0217749
0.0238525
0.0856418
0.0232657
0.0351553
4.07249
0.0299974
0.0241253
5.68458
0.0225709
5.62381
0.0243843
0.0537546
0.0218881
6.59223
5.9261
0.0220305
0.0227609
3.43559
0.0293449
6.62248
0.0220231
0.021826
4.00958
0.022728
0.043966
10.3587
0.0220667
0.053047
0.0288601
0.0216306
0.0219044
3.46749
5.51058
0.0222096
0.0235051
0.02205
0.0263685
0.0363406
5.73817
0.0226559
2.5667
4.28918
1.05342
3.01492
0.0226743
0.11833
0.188744
0.0289284
0.0220634
0.0573716
3.89084
0.023355
0.0455838
4.89126
3.62763
0.289135
0.0251679
0.0222606
0.0222463
0.0220681
7.35773
0.0528639
0.0238379
0.0228751
0.0243033
0.02227
0.0219766
0.0220428
0.069047
0.0375866
5.58943
0.0463528
5.32372
3.30393
0.0302389
0.0490119
0.0218132
0.028346
8.02675
0.0221406
0.0235356
0.0494896
0.11364
0.0556998
3.57393
0.231725
0.0218893
3.71952
0.0215982
0.022266
0.0456127
0.0222734
0.0219701
0.164319
6.84729
0.0218318
4.00655
0.0221224
0.0217512
0.0234544
2.69731
0.0288365
0.0243643
13.2745
0.0229126
0.23111
3.18556
0.0222462
0.0474301
0.0220116
5.79776
0.0682541
0.0220438
3.73394
0.0520422
0.0778983
0.0222785
6.4169
0.0291138
0.392569
0.0230135
0.0706543
6.66577
0.0217708
1.44078
0.0221043
0.0600597
0.0517922
0.0222453
4.54389
0.0235773
0.111341
0.0557231
0.0955565
0.0399617
0.0430691
0.022586
4.85998
0.031622
6.95692
0.0297811
0.0610597
0.0219787
0.042927
0.0220435
0.0666387
4.44857
0.0227566
0.0218347
3.44293
0.0228312
3.52701
0.0224782
4.07384
1.20808
0.0347455
0.0219932
0.0219412
0.0221094
0.0216309
0.0991495
0.0553512
0.0381947
0.0256634
0.0220835
2.28993
0.023589
0.0335777
3.35383
0.0220322
15.015
0.0493656
0.0297401
1.2701
4.14319
0.307719
4.32546
8.80955
0.0218922
0.343404
4.9109
0.343839
0.0221734
0.0222116
0.10983
3.65716
5.51421
0.57947
0.0223845
0.0502024
0.0389925
3.21193
4.95723
0.0407425
0.123186
0.0238709
0.07775
0.0860827
0.0221651
0.100495
8.06966
0.0221309
3.24924
0.0222532
0.0219777
4.40164
3.8341
0.0218515
0.0224655
0.022475
0.0218305
0.0478223
0.170608
0.0231642
0.0219907
0.0220991
0.0392791
0.0275635
0.0273203
0.320567
0.0220279
3.94603
7.47329
4.07318
0.149589
0.0507853
0.965173
0.0327938
3.45305
1.84716
8.08935
0.0224305
6.75154
3.35204
0.0217714
0.0220388
0.0990513
4.46485
9.9116
0.0218002
0.022034
3.35702
3.53953
5.23012
0.0239354
0.0239008
1.89334
0.0221954
3.45154
7.52586
1.4952
1.87797
0.0220606
0.0219253
0.0218886
0.0261038
3.96534
0.0390111
0.02547
0.0226176
0.0837065
7.02583
0.0392528
6.10955
5.27705
5.15199
2.17104
0.0220536
0.0221723
4.13274
0.0216656
0.0216919
0.0230546
3.01152
0.0364115
9.90788
0.126426
0.0220297
5.41643
0.038757
0.0218849
5.9724
0.165838
0.0251021
0.0221438
5.276
4.43527
0.0221802
7.4622
4.3662
6.46535
1.75331
0.0796762
0.0219316
0.0225633
1.55794
0.0254549
4.37091
0.0407989
2.39865
0.258893
0.0228869
0.028914
0.0219317
0.022697
4.69429
6.86799
0.0220687
4.83998
0.0414877
0.0220404
0.024784
0.0219361
0.157188
0.0224521
2.24742
0.0507415
0.0219236
0.0218757
0.0923771
7.73851
0.037985
0.0239634
0.0418577
0.0220387
0.0231214
0.0271937
8.59877
3.99998
4.44814
0.021724
0.0218687
0.0223672
0.119257
0.0218779
0.0224152
0.165757
0.0562265
0.83283
0.021666
4.39977
3.9759
0.0222843
8.70406
0.110757
0.0363417
2.05367
0.0223149
5.23027
0.0293776
0.0230512
0.0238857
0.0216619
0.261436
0.0224414
0.0228686
0.030765
3.45192
3.45644
0.0222461
0.0220229
0.0234885
0.0220026
0.128556
0.0224277
0.0810972
0.0235619
3.93489
0.022729
3.91701
0.0217258
5.58209
0.0224107
0.0216459
7.29482
0.310207
0.112082
1.36993
0.044107
0.039536
0.0220454
5.06204
0.0220644
0.0218841
0.0878113
0.0614508
10.6202
4.43938
0.118169
6.96315
0.123959
0.660342
0.0219053
0.024862
0.0277151
4.03431
0.024814
4.19082
4.37647
0.0222396
0.0220672
0.0220172
1.412
3.32097
0.0233755
0.0221102
0.0257019
0.0278502
0.0370969
0.371871
0.301641
0.022065
0.6459
0.0815627
8.22729
0.0694211
0.0232739
0.0238515
5.22985
0.0218857
0.0856489
4.32348
0.0227328
0.0253011
0.17039
0.134474
0.022761
6.62575
0.0243202
0.283213
0.0397959
0.0301481
0.0227912
4.36633
0.0218622
0.0946397
1.45533
4.84817
0.0482846
0.064643
0.0256082
0.0472209
0.0222658
5.06801
0.0265889
0.0220074
0.0295112
0.0220927
0.0222692
3.32936
0.0220706
0.0221794
0.0220487
0.125494
0.0222439
0.0327725
0.0690439
0.218485
0.11218
0.0222537
0.230195
0.461502
0.209696
0.0815166
0.0273172
0.152407
4.70652
0.58942
0.0222845
7.63749
3.90856
0.0222839
0.02408
0.0216512
0.722278
0.101207
0.0220845
1.29289
4.10711
0.0218137
0.0222104
3.48365
4.03035
0.0626993
0.0216658
11.0283
3.14032
3.27465
0.0220311
4.05183
0.0791567
0.0697165
4.37346
0.0260352
0.0216633
0.0296962
0.179364
0.031509
3.64053
4.47704
0.0218292
6.48078
0.491397
4.53282
0.0217235
0.051815
0.0222881
0.0219296
3.94701
2.8629
0.27657
3.70909
0.0291644
0.0490928
0.0221949
4.67115
5.87233
0.0220487
0.0222674
0.0317488
0.0218414
0.0491638
4.21478
7.49144
0.0496209
0.022483
0.0221985
3.98379
0.0249688
0.0510557
0.0218082
0.0229961
0.66028
3.197
0.331558
2.92698
0.0221709
0.292169
0.0222943
0.0472814
10.0013
6.71275
0.0220753
0.0222938
0.0351094
0.0256935
0.0221866
4.22022
4.07765
0.021795
0.0215238
0.0221909
0.0219707
2.67861
0.021753
3.59276
0.0992724
0.0614332
0.0218696
0.0470213
4.63237
0.0330123
0.428614
6.06677
0.0222543
6.86054
0.0330424
0.0355783
0.346335
7.07682
4.59147
0.0579293
0.0219015
0.243306
0.0217629
0.0252735
0.0222064
3.63076
0.0315793
1.63517
0.578354
0.0471861
0.0221251
0.271761
0.0267728
0.0222704
0.254503
0.0216038
0.037843
0.0335865
0.0221682
9.99465
0.0233832
0.556093
0.0228294
0.0219389
5.73336
3.44593
0.0241031
0.0323774
0.0382725
0.0563702
0.055964
0.0262507
0.025848
0.0251572
0.215796
0.0250489
3.76931
0.0587721
0.354001
0.114314
0.0226949
4.39622
0.0216146
4.21775
0.0241965
4.30592
4.03001
8.09653
7.61364
0.30324
0.0756273
0.0220514
4.02398
0.0833317
0.0220437
7.795
5.64163
0.0232778
0.0238267
0.0304322
0.0304425
0.0318903
5.03074
0.022284
0.0298407
0.0345122
0.0320693
0.0221646
0.0809312
0.0216208
3.86625
0.023653
0.127888
0.0314637
0.0387511
0.118176
3.24416
0.0831923
0.0218434
0.233028
3.95604
23.7244
0.0224419
4.02103
0.0286839
1.77888
0.0220645
0.0244958
3.60612
0.0502403
4.98427
7.24132
0.033305
4.97066
0.0219835
0.021611
8.73469
0.0587417
0.0244337
5.34246
0.0267892
0.0453061
0.0292866
0.0688085
0.0221808
5.70752
5.2184
6.93837
0.280126
0.0254262
0.0556397
4.9602
0.0240475
0.0223088
0.079476
0.0216987
0.28594
8.20815
6.36866
5.36457
0.0533442
0.02251
4.07056
0.0216033
0.0705356
0.0222352
25.0659
0.0237804
0.046857
3.56211
0.114496
0.0220288
0.0319647
10.1356
0.0220739
0.140502
0.0218019
9.59619
4.2167
0.109479
0.0776967
0.021954
0.322181
0.132585
0.0385382
0.0218069
0.022562
0.0221471
0.0524329
0.0221241
0.0820054
0.022121
0.0218129
6.54042
0.0218786
0.0266889
0.025124
0.0222748
3.41851
0.0218731
0.0335441
3.84045
0.0474012
3.71812
0.0220616
4.46941
0.0496569
5.09562
0.0235665
0.121623
0.0222381
0.039983
0.117966
0.108187
0.237161
4.02287
0.206341
1.67678
0.0269324
0.106293
0.0414764
0.588574
0.0250563
0.0221822
0.0220312
0.0498982
0.0457063
2.29637
0.0517547
4.51079
6.83112
0.101907
0.0220122
4.31315
0.19597
0.0224622
0.0240607
0.0220706
4.90584
0.0220348
8.24949
0.0218654
0.0269581
4.83075
0.0766582
0.0220473
0.0220263
7.58769
0.0218842
0.0240605
0.0251831
0.0322752
0.0274786
0.0221783
0.157628
0.0815851
0.0435671
0.295106
4.41399
3.42701
6.02235
0.0217404
0.0219872
0.0993792
0.0225168
0.0470651
3.94692
3.58
0.021662
0.0220459
3.17726
0.371672
0.0216782
0.0218459
0.0265067
13.973
3.67967
0.0264197
0.033723
0.0221995
0.359173
0.121092
0.140024
0.0317354
0.0437797
0.0224085
0.0375341
0.304586
0.0227643
0.0221714
0.0262268
4.25008
0.0251896
7.18687
0.0221082
3.58365
0.0361933
0.0278361
0.0217822
0.0219284
0.740928
7.87558
0.0577333
4.23188
10.3055
0.0225346
3.85508
0.14244
0.0218993
4.54243
0.296239
0.109962
0.0222538
3.29343
4.48481
0.0219902
0.0392345
4.19002
0.0442922
0.022054
0.0218045
0.022413
0.0239473
0.0792416
0.286526
0.0777892
0.0753876
0.0217282
0.0221979
4.55013
0.0218536
0.0475359
0.0265769
0.0222271
0.0491436
0.0220298
0.0237322
0.326127
0.0220024
4.41886
0.0220256
12.8767
3.37969
0.0907231
0.0222532
0.0222927
4.11859
0.02165
0.0241576
0.0223312
0.317517
0.868217
0.0332784
3.41566
0.0414666
1.23222
0.0225313
0.0663152
0.0218234
0.02214
5.0038
3.50173
1.08529
0.0237624
0.0666224
0.0664424
4.85887
3.93251
0.306359
0.038782
0.0215981
4.04703
0.0219286
0.021987
0.284551
0.109101
0.0282438
0.195853
0.0468251
0.0314473
0.0275023
5.18919
0.0243476
0.0219963
6.67738
0.0470108
0.0217237
3.35094
0.022035
0.0221126
0.156878
0.145846
12.7922
0.0217404
0.0247748
0.0219184
2.21221
0.0218773
0.537659
3.99668
3.33497
3.3669
32.5501
0.0302397
4.36554
0.868431
0.0222098
0.0304984
0.0434566
0.030312
1.24481
3.96447
4.42597
3.27748
2.32267
0.0221553
0.101663
0.0220422
4.80606
0.0284423
0.0232452
0.0240846
0.0227161
0.0218898
0.102189
4.42373
0.0217274
0.02364
0.0218673
4.38913
0.0234998
5.5781
3.60953
1.0305
0.0220961
0.0218963
4.16947
0.383411
0.0221395
0.289095
0.0222282
0.135393
0.184123
0.0917153
0.0496986
10.1284
0.0218072
0.0218276
0.20255
3.2092
0.0291546
0.0462812
0.021939
8.39153
0.0220164
0.0219551
0.0231641
0.0219945
5.66335
3.83015
1.53161
0.0582957
4.14429
0.464832
0.0216664
0.0307912
0.0217058
1.25917
0.0220293
0.0248303
0.0219995
0.0219235
0.0217998
2.65058
0.0229261
1.69029
0.0216248
0.0324345
0.0229248
1.59256
0.0220506
0.0312011
0.0345778
0.0679568
6.94402
0.0219197
4.13051
0.0668613
0.0451407
0.0219961
0.0219512
3.36123
15.7669
0.0220464
0.0219021
0.2676
0.236905
0.0381208
3.70722
0.0227668
0.470895
0.0309741
0.021713
5.43021
0.0231783
3.55389
0.0220301
0.0227049
0.0221215
4.03491
3.3392
0.0216822
0.241064
0.235749
0.0220614
0.0218826
0.0219012
0.258169
3.84093
0.0629216
0.0244242
0.0391211
0.0220345
0.0220471
0.0236913
0.0220078
0.178693
0.0220602
0.0606845
0.580758
0.0355538
0.0216236
3.84311
0.0712159
0.0220434
0.0781428
0.0303015
1.34008
0.0245028
10.5628
0.0554752
0.0220024
0.0842253
0.083497
0.0246337
5.99996
0.0574774
0.0299128
1.72744
0.0219486
0.144844
0.0870547
0.12215
0.0219437
0.0219773
0.0216464
0.0335868
0.0534656
0.0523313
6.43666
4.5971
3.62209
0.0222667
1.91667
3.4094
4.06855
0.0220006
0.0220359
0.0519701
3.78364
0.0241835
0.0346812
31.8216
4.82872
15.068
0.114937
0.162693
3.18161
0.3627
0.021621
10.5246
0.268406
0.0223423
0.0223907
0.0228294
4.68473
0.0936221
5.24848
0.0239663
6.45494
0.0221481
1.22045
3.70368
0.022216
0.0335961
4.16728
4.64005
0.0541675
0.0228824
0.0237343
0.0223796
0.217856
0.11786
1.82384
3.97068
0.0217596
5.23073
0.159356
2.89005
0.0220308
0.0221651
3.2976
0.269463
0.0219616
0.0489382
0.0728035
0.0390939
3.8443
4.27214
4.66235
3.98044
0.0254445
0.021677
0.0664274
4.45107
10.3384
0.0219719
0.267973
0.0927917
0.453483
0.0226035
0.0222563
1.18938
3.80037
5.62602
1.65499
4.22586
0.0219618
0.251054
3.96723
0.0222298
0.0620274
0.103554
0.0216919
0.158232
4.8044
0.240759
0.0222553
5.27156
0.114039
27.7667
0.0215172
0.0237418
0.0221786
0.0233094
0.0221446
0.0528686
0.040057
0.0423707
0.342016
0.0332719
4.01517
0.0252891
0.0291091
0.0279489
8.91256
0.0577549
4.92988
0.0280155
0.0277914
18.8651
0.0976685
0.0220686
0.0420085
3.75693
5.29038
0.304936
0.0219824
0.0219167
0.0219464
0.976498
0.0231748
2.4859
1.32811
0.255282
0.0317146
0.239879
5.51502
0.0221455
7.31089
0.0334567
0.0509493
0.0219573
0.0219422
0.0520465
4.30022
0.0220807
4.88623
0.480528
0.0984908
0.179498
0.0218866
0.0220267
0.0296958
0.0230305
26.2414
25.7686
0.0828531
0.746833
0.0219702
0.0221071
0.0221941
0.0222458
7.71686
0.0232691
4.47635
0.0867194
0.0226345
0.372483
1.93973
3.25759
8.42488
0.0235914
0.0218078
0.0221306
0.0236779
0.750058
0.242249
5.91404
0.022155
0.0224953
0.157252
0.0222602
0.248731
0.0236836
0.148985
0.16907
0.0410632
0.0394883
0.0217367
0.0461626
0.0379281
0.203271
0.0816363
0.0422328
0.0218714
0.233859
0.0218948
2.43596
3.34418
0.933482
0.0220704
0.10889
0.0220211
0.0479927
0.0229985
0.0228087
0.0282077
8.76248
3.67994
0.0789986
0.0467792
0.220402
0.0758585
3.67175
4.20339
0.0308986
4.12393
0.333512
0.0218631
0.0567167
4.20382
0.0975207
0.022236
0.0526836
2.25367
0.413623
7.8553
0.0221736
0.753352
0.0220981
0.0219333
0.0414936
0.356692
0.0222639
4.18338
5.19935
0.276433
11.5021
0.367276
4.75888
0.295388
0.0217339
0.0247505
0.0216671
0.0433239
0.281777
0.404852
0.0243604
0.0414522
0.0216577
4.32813
0.0378279
0.0466109
3.69728
0.0989326
7.04315
4.72192
0.0219724
6.6527
0.0221175
0.0282679
0.0472505
3.51275
0.150216
0.027817
0.0233804
0.573779
0.0340118
3.93296
6.20895
0.0320448
3.15556
0.0444379
0.022273
1.15454
0.0609404
0.0229964
8.88916
16.0491
0.0297079
0.0260191
0.127893
5.85568
0.0219579
0.0222384
0.0216775
0.0217672
0.0223264
4.87518
0.0314583
3.72532
0.0219581
0.0219702
0.849498
0.0222268
0.0238169
0.0220601
0.0220358
1.7086
0.0217759
4.71285
0.0220454
0.0231413
0.0410039
0.0221727
0.143171
0.021788
0.0222651
0.0218028
0.0275929
0.0886689
0.0245903
3.35604
0.021944
0.0433486
0.0295427
4.182
0.0227484
0.0222688
0.021745
0.0216983
0.384065
0.0219115
0.0219155
0.0246035
1.37508
0.0219371
0.0424758
0.0325021
0.0220197
4.8115
6.9883
0.316554
4.89318
0.0249188
0.107496
0.0221485
0.0996566
0.33338
0.0223732
1.81885
0.128609
4.60675
0.0306417
0.0220355
1.56158
0.0428668
0.723463
5.02514
0.021609
0.0219836
7.36816
3.12608
0.0573703
0.0556833
0.0230784
11.1885
5.67597
0.0215213
0.0219679
0.0221379
0.0221731
0.022248
0.0220381
0.0354991
4.13299
0.0308949
0.0221881
0.446672
0.0219898
0.755766
0.0459015
0.0221797
0.0273911
0.0219174
0.345139
0.0248876
0.0515374
0.0219617
0.022282
4.46067
4.84622
0.0221772
0.0499623
0.0443099
0.0309071
0.023913
0.0222713
0.0228975
1.39961
0.512647
0.0401139
4.89293
0.0225771
25.1323
0.102285
0.0258231
17.0786
0.0230656
4.01313
5.32277
3.29803
2.9322
4.00153
3.40172
0.0216796
0.0271183
0.0246877
0.0216548
0.0217653
0.029048
0.0747285
0.0217991
0.0293592
0.117809
0.0744512
0.331237
0.237711
0.0332693
1.56426
9.43354
0.0338614
0.0248537
0.125648
9.1828
3.61898
0.025511
0.0216457
0.021879
0.021793
0.0315117
3.64866
0.346046
0.0217844
4.58729
0.0219826
0.138032
3.82613
0.0813914
0.181903
0.0902758
0.325948
0.0228265
0.033173
0.0218695
0.23158
0.0219664
0.0229947
0.0328248
0.151783
0.0221765
0.0244444
5.61239
0.0218229
0.0220643
0.029015
5.84603
0.111224
0.462563
0.0380994
0.0221496
3.30038
0.0369765
0.0233113
0.0220223
0.0305285
0.0265195
0.0220327
0.0281143
4.23841
0.0235761
0.0216667
0.0467337
0.0218856
0.0316076
0.0300246
0.0220695
0.021999
4.68924
0.0217253
0.0220355
0.0216651
0.0257271
0.0214887
4.84106
0.0257939
0.200453
0.0219621
0.0219275
0.0221318
4.28263
0.0627505
0.022041
0.0216392
5.53652
0.0251123
0.064734
0.0218622
0.143971
0.0233823
0.0215649
2.54124
0.0218044
0.0222544
0.0221465
0.0220331
0.0241334
0.0221271
0.0220372
1.61313
1.55172
4.63345
1.32477
8.73237
0.0218689
4.63508
0.0219684
3.70658
8.32937
0.021802
10.6881
0.0219804
4.17482
11.9616
0.27806
4.01958
3.74593
0.752422
3.21359
6.34999
5.19042
0.0426439
0.0416778
4.39433
0.0234899
0.0216712
1.44348
0.0238596
0.0281658
11.8196
0.0229866
2.33465
3.46194
6.39659
0.371182
0.113317
0.0222518
0.028211
0.0482881
0.0222888
6.90089
0.336656
0.107609
0.0219168
0.0220695
8.45703
0.0217057
0.646631
0.0218654
9.37143
4.4825
0.0343739
0.0260857
0.0220001
10.4608
3.82072
0.0253988
0.0334368
0.0222857
0.0222855
0.0559324
0.0231542
0.0319944
0.0652867
0.0242433
0.0325718
0.0220422
0.0320147
16.0271
0.0225926
10.7969
0.0219779
3.76516
0.0542764
0.0220415
9.10241
0.121659
0.021858
0.151966
0.0220392
0.293322
0.0221963
0.0220132
3.58143
0.0221458
0.102968
0.0233812
0.134241
0.0218615
0.0223345
0.0218627
0.029964
0.0242165
0.0222926
0.0225966
0.0253389
0.0224466
0.119641
0.062796
0.0300021
0.0233427
0.0216632
2.34622
6.19896
0.0227711
0.0225285
0.0226473
0.0374597
0.0222352
0.034744
0.0215768
0.0222853
0.232719
0.0233288
0.0222846
0.0219053
4.77095
11.6179
0.0216025
0.0698297
0.0582741
0.220893
0.202375
6.85799
4.34383
0.590059
0.0229735
0.133102
0.0219291
0.0314267
7.51181
4.42174
0.131979
0.0239035
16.1286
0.0220437
0.0458106
0.396524
0.0222238
0.131763
0.0234589
0.0232602
0.0723971
0.147845
3.73728
3.32411
0.0218396
0.0216112
4.74892
3.62338
0.0222353
0.0289946
0.117551
0.0220561
0.0220168
0.0240816
3.2311
0.0217808
4.10928
0.0294286
0.0222443
0.92273
0.0711278
0.0661679
0.11022
4.60687
0.024402
0.0342621
0.0273729
0.0237495
10.0021
0.031457
4.16712
4.09126
0.0649796
3.74864
0.0454679
0.0471119
0.326355
0.021735
4.29552
0.086166
0.0334766
0.0290575
0.0221774
0.0216807
3.8107
0.0425904
3.93395
4.32261
0.0221158
4.11776
0.0218397
0.0219562
0.0286766
11.6849
0.0713663
0.0217259
3.94865
0.0219903
0.0238074
3.55511
0.0236705
3.4026
0.0222727
4.41928
3.37964
0.0684035
1.71225
0.0233715
3.32649
0.0216527
5.27573
4.73865
4.41952
5.17081
0.0219464
0.0218472
0.224623
3.38931
3.25075
3.82368
3.69451
0.0221565
4.9801
3.34096
0.0224132
3.73653
0.0314277
0.0328155
12.2931
0.0379186
4.01614
0.0219411
0.0375725
0.0341603
0.193174
6.52167
0.036524
3.46735
4.2014
0.0221716
0.0245997
0.0237892
0.0248086
3.26509
0.0220163
0.0217688
0.0389397
3.4118
3.57659
0.0279898
3.87012
3.78892
0.0219626
8.78313
4.59875
0.171475
3.98689
0.0647088
0.0243683
0.0221722
0.149012
0.0263049
0.0781974
10.1916
4.52845
0.0289515
0.0698932
0.0257421
0.0385306
0.0216578
0.0411184
0.0246816
0.0873384
4.46363
5.55904
3.8121
0.0216905
0.127844
0.0605367
4.16175
0.0232183
4.71265
4.55295
4.22515
0.0222445
0.169967
4.49289
10.9638
7.73588
0.0361937
5.48379
2.43413
0.0603365
0.0654422
0.0240879
0.0291937
4.76786
0.0453154
0.022186
3.18966
0.0220663
0.0223322
0.118957
0.118579
0.0218581
0.0870485