/*--------------------------------*- C++ -*----------------------------------*\
| =========                 |                                                 |
| \\      /  F ield         | OpenFOAM: The Open Source CFD Toolbox           |
|  \\    /   O peration     | Version:  v2012                                 |
|   \\  /    A nd           | Website:  www.openfoam.com                      |
|    \\/     M anipulation  |                                                 |
\*---------------------------------------------------------------------------*/
FoamFile
{
    version     2.0;
    format      ascii;
    class       surfaceScalarField;
    location    "250";
    object      phi;
}
// * * * * * * * * * * * * * * * * * * * * * * * * * * * * * * * * * * * * * //

dimensions      [0 3 -1 0 0 0 0];
oriented        oriented;


internalField   nonuniform List<scalar> 
20537
(
-0.379141
0.510416
-0.131275
-0.165857
-0.0545189
0.220376
-0.187515
0.16992
0.0175956
-0.019744
-0.304116
0.323859
-0.149405
0.16168
-0.0122752
0.286055
-0.479381
0.193326
0.198209
0.199935
-0.398144
0.244085
-0.0864782
-0.157607
-0.454037
-0.0931102
0.547147
-0.0292791
0.207855
-0.178576
0.53602
-0.109065
-0.426956
0.0700981
-0.122253
0.0521547
0.0854875
0.0137767
-0.0992642
-0.0444684
0.0140653
0.0304031
0.671088
-0.541216
-0.129872
0.279144
-0.285557
0.0064129
-0.0500581
0.283457
-0.233399
0.447086
-0.251019
-0.196066
-0.138305
0.141177
-0.00287125
0.081673
-0.535711
0.348562
-0.368307
-0.0765961
-0.110919
-0.363687
0.584193
-0.220507
-0.687546
0.0983769
0.589169
-0.549115
0.185428
0.218801
0.025284
-0.0890315
-0.178826
0.267858
-0.0047338
-0.00159126
0.00733152
-0.386473
0.23179
-0.35403
0.122239
0.484334
-0.198279
0.228926
-0.278985
-0.0178284
0.187748
0.485795
-0.423159
-0.0626359
-0.599749
-0.0877976
0.114672
-0.128032
0.01336
-0.0030355
0.0912289
-0.0881934
0.204413
-0.130273
-0.0741404
0.143421
-0.1727
0.137546
0.348249
0.0455483
0.33685
-0.382399
0.489313
-0.664376
0.175063
-0.0011641
-0.00140188
0.00256598
0.388318
-0.523361
0.135043
0.522448
-0.13413
0.0112299
-0.00828944
-0.00294043
-0.51926
0.130649
0.388611
0.103164
-0.454672
0.351508
0.170833
-0.259864
0.330987
0.225609
-0.556596
0.164081
-0.0207643
-0.143317
0.1449
-0.0735466
-0.0713531
0.00207849
-0.00793704
0.00585855
-0.7285
0.371084
0.357416
0.652451
-0.533547
-0.118904
0.663442
-0.174129
0.650085
-0.294768
-0.355317
-0.00507901
-0.00654132
0.0116203
-0.181113
0.412903
0.281764
0.0968239
-0.378588
0.0445891
0.159824
0.0493384
-0.0490685
-0.000269947
-0.413963
0.312822
0.101141
-0.141005
0.129644
0.0113618
-0.163938
0.305724
-0.141786
-0.449852
0.146789
0.303063
0.0701731
-0.0732086
-0.553189
0.167233
-0.214205
0.214063
0.0001423
0.200783
0.246303
0.0150186
-0.0183567
0.0033381
0.088613
-0.0800919
-0.00852108
0.0781266
-0.243984
-0.290544
-0.437955
0.280453
-0.582721
0.302268
-0.525134
0.431821
0.0933121
-0.136174
0.0595778
-0.0249372
0.00082031
0.0241169
0.00120908
-0.175796
0.174587
0.0178578
-0.00150435
-0.173014
0.431395
-0.258381
0.472702
0.0682915
-0.540993
-0.431275
-0.0522318
0.483507
0.00717774
-0.0128539
0.00567619
-0.336492
-0.0774709
0.116542
-0.0464442
0.490255
-0.169927
-0.320328
0.0511522
0.118081
-0.169233
-0.259643
0.322875
-0.0632322
-0.360218
-0.245251
0.605469
0.0225302
0.0921418
-0.0971734
-0.307413
0.404586
-0.264049
-0.0882282
0.249689
-0.161461
-0.0254896
-0.234153
0.561133
-0.549294
-0.0118387
0.0266529
-0.176058
0.00544584
0.0337665
-0.0392123
-0.179145
0.510131
-0.0244323
0.585564
-0.00506713
-0.0049545
0.0100216
0.173624
-0.173482
-0.000142226
0.0772691
-0.384102
0.306833
0.267189
-0.0187974
-0.457293
-0.0992976
0.556591
-0.513504
0.403544
0.10996
-0.17929
0.178191
0.00109883
0.524132
-0.682408
0.158276
0.0691081
0.0095114
-0.181612
-0.297769
-0.538633
-0.0193183
0.557951
0.270039
-0.630258
0.303574
-0.400747
-0.649221
0.649221
-0.0718314
-0.466802
0.358153
-0.0156898
-0.0500095
0.0554554
0.0727035
-0.472204
0.3995
-0.571305
0.573096
-0.00179202
-0.19187
0.55987
-0.368
-0.00208201
0.000917911
0.234659
0.0325302
0.090302
-0.00481451
0.191628
0.431568
-0.328404
-0.774693
0.34822
0.426473
0.126017
0.30555
0.160122
-0.187618
0.0274958
0.0319129
0.316649
0.169236
-0.0790705
-0.0901659
0.425239
-0.379691
0.553962
-0.160869
-0.393093
0.0197336
-0.00471494
-0.549657
0.118382
0.344195
-0.569726
0.604248
-0.0345226
0.555606
-0.482903
-0.0734506
0.089832
-0.0163813
0.0251611
-0.0209113
-0.00424982
-0.0215677
-0.0281812
0.0497489
-0.00495882
-0.000108314
0.374813
0.277638
0.160319
-0.557385
0.397065
0.719353
-0.382659
-0.336695
0.412476
-0.0864803
-0.325996
-0.101594
-0.421767
-0.446427
0.620018
-0.173591
0.0376734
0.131563
-0.265508
0.463717
0.118496
0.403952
-0.000567427
0.128379
-0.420596
0.612887
-0.192291
-0.00639133
-0.0380771
0.308754
0.34133
0.363321
-0.208885
-0.154436
0.302573
0.109903
-0.496175
0.187333
0.308841
0.232043
0.131235
-0.363279
0.0131502
0.13175
0.00545058
0.158631
-0.352311
-0.247728
0.600038
-0.0743627
0.223981
-0.149619
0.00485642
-0.00993544
0.163555
0.390407
0.268685
-0.372818
0.104133
0.641531
-0.230982
-0.410549
-0.687515
0.241088
0.00260282
-0.216808
-0.319491
0.351403
0.0311338
0.00585555
-0.0369894
0.000280811
-0.025218
0.239576
-0.542523
0.302947
-0.173702
-0.322474
0.0229769
-0.0445446
0.563554
-0.4
-0.12928
-0.325393
0.182769
-0.0226475
0.529906
-0.508323
-0.0215839
-0.0243679
-0.113937
-0.519619
0.667475
-0.147856
-0.270914
0.0581527
0.212761
0.0151623
-0.130594
-0.359631
0.490225
0.0487262
-0.159646
-0.362931
-0.235428
0.598359
-0.447503
0.613228
-0.165726
-0.174017
-0.275835
0.354606
-0.546476
-0.166908
0.161331
0.00557689
0.222387
0.0129867
-0.235374
-0.352027
0.00912231
-0.00704382
0.267099
-0.540036
0.272936
0.184703
-0.210904
0.0262015
0.0482465
0.00109196
0.40018
-0.179928
-0.220252
0.536039
-0.37572
-0.190625
0.528624
-0.337999
0.459306
0.0706003
-0.427074
-0.0980603
-0.305161
-0.469533
0.00865054
0.00852633
-0.0171769
-0.57758
0.0837513
0.493829
-0.538731
0.147278
0.391453
-0.0202204
0.213714
-0.193494
-0.490325
0.359731
-0.0153063
-0.0341762
0.0494825
0.146277
0.142397
-0.288673
0.0296546
-0.00189811
-0.0277565
0.128166
0.443096
-0.571262
-0.0153754
-0.0348725
0.0502479
-0.354193
0.431462
-0.514225
0.193893
0.320332
0.452073
-0.635566
0.183493
-0.720735
0.430356
0.290378
0.588704
-0.207296
-0.381408
-0.158167
0.416903
-0.258736
0.0113737
-0.000143834
-0.108481
-0.406872
0.515352
0.0316647
-0.0020101
0.264288
-0.118011
0.192074
-0.365089
-0.00409976
0.0476813
-0.0435815
-0.0632506
0.142372
-0.0791219
0.000309828
0.0355139
-0.0358237
-0.597946
0.579234
0.0187107
-0.0444589
-0.192513
0.236972
-0.526246
0.0689523
0.00246248
-0.00826721
0.00580473
0.673212
-0.221139
0.219104
-0.000302995
0.376966
-0.291918
-0.0850476
-0.283333
0.522908
0.537137
-0.155289
0.144398
0.0108901
-0.0727681
-0.248498
0.321266
0.0377994
-0.0531057
0.0751002
-0.239038
0.281691
0.437661
-0.453654
-0.0850777
0.150596
0.333738
0.415826
-0.498283
0.0824573
0.576751
0.0565816
-0.633332
-0.191406
0.171186
0.456702
-0.556
0.0291604
0.00431735
-0.0334778
0.194275
-0.0206509
0.510115
-0.337663
-0.172451
-0.396541
0.292261
0.10428
-0.225765
-0.121218
0.346983
0.660493
-0.387064
-0.273429
0.491455
-0.0756296
-0.243789
-0.108947
0.352736
-0.0939684
-0.0284029
-0.121007
0.14941
0.386739
-0.131715
-0.255024
0.247943
-0.0255555
0.00867867
0.0811533
0.00673141
-0.0172847
0.0105542
-0.188922
-0.344399
0.53332
-0.439044
-0.45192
0.351686
0.100234
0.365642
-0.0277351
-0.337907
-0.631665
0.209885
0.42178
-0.12459
0.106639
0.0179506
0.186708
0.213472
-0.366756
0.122968
-0.206484
0.118256
0.0486531
-0.0527528
0.393248
0.152537
-0.545785
0.296628
0.363864
0.183393
0.48962
-0.105733
-0.383887
0.177951
-0.176742
0.253044
0.0261001
-0.532393
0.371523
0.639818
-0.167116
0.593937
-0.191564
-0.402373
-0.000756215
0.0365845
-0.0358283
0.0686123
0.467408
0.0257686
0.550982
0.0801269
-0.558444
0.478318
-0.503035
0.599478
-0.0964424
-0.149333
0.12093
-0.0917462
0.457388
0.401134
-0.304292
-0.0968421
0.0325187
0.452478
-0.484997
-0.379778
0.493884
-0.114106
0.0755565
0.414063
-0.69539
0.274192
0.421198
0.142722
-0.105049
0.152786
-0.3339
-0.105532
0.387296
-0.217131
0.21715
-1.89612e-05
-0.468381
-0.227009
-0.0313576
-0.0932324
0.0665301
0.174203
-0.240733
0.107203
0.00933963
0.433217
-0.568237
0.135019
0.0359416
-0.00678113
0.10791
-0.182273
0.0820766
0.201381
-0.0132837
-0.0289832
0.0422669
-0.140227
0.366316
-0.22609
-0.365719
-0.147785
-0.0409603
0.0383115
0.00264882
0.478408
-0.44589
-0.0128034
-0.146326
0.159129
0.227532
0.0221564
-0.22197
0.374756
0.0227174
0.00244372
0.220398
-0.153868
0.386984
-0.360859
-0.0261243
0.0453733
-0.057354
0.0119807
0.651994
-0.258446
-0.393549
0.0532137
-0.278979
0.7374
-0.369758
-0.367643
-0.0475737
0.0468174
0.125018
-0.0166307
-0.108387
-0.505037
0.396556
-0.189304
0.0442147
0.145089
-0.259859
0.486982
-0.227124
0.0289746
-0.0222432
0.00415871
0.44866
-0.452819
-0.454206
0.64269
-0.188485
0.609935
-0.249251
-0.360683
0.123716
0.00130144
0.200242
-0.244701
-0.321909
0.0713674
0.250541
0.107531
-0.369385
0.229158
0.326239
0.0607448
0.462842
-0.571907
0.0443466
-0.0231511
-0.0335643
-0.00627542
0.0398398
0.0828738
-0.38921
0.306336
0.0416492
-0.054933
0.0149994
-0.0853203
0.0703209
0.380544
-0.0215976
0.2063
0.127281
0.0154411
0.543763
-0.327678
-0.216085
0.0242278
0.235756
-0.259984
-0.00123077
0.113467
-0.112237
0.109819
-0.233687
0.514907
-0.28122
0.254256
0.0999904
-0.354247
-0.00660344
-0.0329861
0.0395896
0.0388669
-0.580083
0.684092
-0.0750288
-0.609063
0.183163
0.500928
0.186735
-0.0433589
-0.143376
-0.107565
-0.214344
-0.229364
0.253592
0.00903758
-0.0065751
-0.493112
0.31941
-0.130893
0.385149
0.357398
0.252536
-0.49758
0.237721
-0.112982
0.569684
-0.0547513
0.578883
-0.182723
0.551563
-0.368842
0.0373906
-0.0439941
0.662902
-0.312833
-0.350069
0.313881
-0.442166
0.128284
0.178894
-0.191698
-0.655197
0.359173
0.296024
0.101075
0.00612754
-0.299029
0.231933
0.0670957
0.141148
-0.348905
0.0395906
-0.00845676
-0.120857
0.434738
-0.259989
0.101822
-0.0336592
-0.194991
0.22865
-0.282795
0.423942
0.0874275
-0.447322
0.359895
0.159073
-0.631278
0.202442
0.214062
-0.416505
-0.0223274
0.00530429
0.0170231
0.635059
0.0231166
-0.000399234
0.23635
-0.102415
0.101184
-0.0287181
0.0345737
-0.715891
0.199391
0.516499
-0.188615
-0.527276
-0.0208895
-0.335483
0.356372
0.62992
-0.154133
-0.475787
0.510466
-0.52415
0.0136848
0.393841
-0.310968
-0.0843288
-0.104975
0.0402985
-0.0262332
-0.254107
0.217183
0.0369242
-0.0449112
0.045221
0.0439721
-0.00961519
-0.0343569
-0.398451
-0.256747
0.230568
-0.41949
0.00602626
0.00481414
-0.0191171
0.014303
0.116522
0.260444
-0.0473754
-0.00263409
0.443041
-0.240599
-0.216309
0.18265
0.499467
-0.532898
0.0334306
-0.0883788
0.103378
-0.433829
0.513589
-0.0797605
-0.106567
-0.178989
0.365307
-0.386197
-0.446163
0.339095
0.107068
0.053555
0.0930785
0.385328
0.319346
0.322184
-0.123106
-0.0178998
0.230227
0.0793458
-0.309573
-0.0135681
-0.0136808
0.0272489
0.353215
0.01279
-0.366006
-0.135075
-0.447241
0.0203158
0.426925
0.356365
0.13509
-0.330511
0.0942788
0.236233
0.182022
0.00471251
0.28705
-0.204974
0.178986
0.409718
0.122504
0.433101
0.492835
-0.399757
0.0931837
-0.540687
0.148282
-0.159839
0.0115577
0.0152287
-0.459361
0.444132
0.125469
-0.119521
-0.00594751
-0.051537
-0.395704
0.0154065
-0.272921
-0.150239
0.124536
0.139274
-0.0616535
-0.093635
0.444279
-0.356852
0.435716
-0.0793511
0.659919
-0.499702
-0.160217
-0.176676
0.0124226
0.164253
-0.17119
0.452193
-0.281003
0.0047989
0.17901
-0.183809
-0.0222929
-0.00368863
0.0259816
0.585256
-0.125951
-0.636424
0.233795
0.402628
-0.525063
0.353872
0.0260703
-0.0283484
0.306133
-0.669065
-0.226451
0.225164
0.00128762
0.00697305
0.537597
-0.14435
-0.484836
0.540688
-0.0558533
-0.40325
0.107219
0.296032
0.131375
0.028246
-0.101793
0.079251
-0.369821
0.29057
0.0614707
-0.083445
0.0219743
-0.545241
-0.0527054
-0.56326
0.314008
0.00324383
-0.00548588
0.00224205
-0.0805018
0.349186
-0.457899
0.538026
0.138981
-0.0878284
0.462686
0.167234
0.2063
-0.15587
-0.374872
0.530741
0.122277
0.180663
-0.30294
-0.12842
-0.242863
0.371283
-0.430279
0.458981
0.126275
-0.01308
0.0584533
0.377216
-0.429448
0.204074
-0.195737
-0.00833628
-0.0787967
-0.49093
0.270339
-0.386019
0.115679
-0.621999
0.22017
0.40183
0.560617
-0.560617
0.517862
-0.15685
-0.361012
-0.550845
0.134025
0.515196
-0.0857297
0.428466
-0.342737
0.258008
0.11064
-0.368648
0.343412
-0.513339
0.116579
-0.476211
-0.165831
0.665297
0.0118035
-0.0106766
-0.00112689
0.00203152
-0.0243245
0.141729
0.31922
-0.460949
0.404622
-0.134284
-0.284722
-0.0457893
-0.325259
-0.173024
-0.00345752
0.0106353
-0.363701
-0.199559
0.25364
0.409263
-0.0761014
-0.371221
-0.156154
0.00674587
0.149408
-0.331194
-0.0663231
0.397517
-0.00667544
-0.00314698
0.00982242
-0.133315
0.545124
-0.411809
-0.00862637
0.000689337
-0.225719
0.233245
-0.00752608
-0.213855
-0.450521
0.227136
0.177486
0.0429116
-0.0191561
-0.0237555
0.210975
0.00812947
-0.350103
0.484329
-0.134226
-0.516763
-0.054542
0.283919
-0.475669
0.19175
-0.569188
0.035641
-0.168239
0.575333
-0.407095
-0.576663
0.186628
0.390035
-0.446905
0.336012
0.110892
0.0230394
-0.0182253
-0.15766
0.154207
0.00345322
0.127462
-0.0200051
-0.107457
0.0952207
-0.0879198
-0.00730091
0.0804105
0.327239
-0.67955
-0.0813301
-0.00895902
0.0902891
0.469718
-0.45449
-0.0597013
-0.211212
0.00300983
0.220972
-0.522308
0.197048
-0.277309
0.468937
-0.0636235
0.0482481
-0.512049
-0.00940203
0.521452
-0.0140637
0.00738823
-0.011747
0.00575868
0.00289186
-0.15242
-0.137404
0.36454
0.487617
-0.314876
-0.44382
-0.192604
0.307997
0.0787424
0.306103
-0.496728
-0.169821
0.0253688
0.144453
0.355467
-0.123424
-0.127872
-0.0419498
0.074572
-0.00612903
-0.0684429
-0.53746
0.404145
0.150117
-0.15221
0.00278844
-0.0215216
0.0187332
0.379452
-0.0871916
0.331402
0.171722
-0.503125
-0.354063
0.541395
0.335809
0.121255
-0.457065
-0.0111257
-0.155783
0.243062
0.0671285
-0.310191
-0.0392276
0.157309
0.0843039
-0.0228332
-0.435493
0.593271
-0.157778
-4.37217e-05
0.00328755
0.00168012
-0.0275137
0.0258336
0.512224
-0.429732
-0.0824926
0.057082
0.412636
0.206676
0.579539
-0.478465
-0.101074
0.399724
0.466811
0.0783559
-0.545167
-0.0885084
0.00717832
-0.224542
0.0156566
0.120232
-0.118311
-0.00192039
-0.0843813
0.102171
-0.0177894
0.21196
0.451482
-0.38064
0.446988
-0.0663488
-0.155282
0.423007
-0.267725
-0.216715
0.173356
-0.14171
0.14412
-0.00241009
0.00231561
0.0207238
-0.00521212
0.0731685
-0.0679564
0.349137
-0.108121
-0.338042
-0.115536
0.0939216
0.0216146
0.00301181
-0.0977144
-0.00806917
0.105784
-0.116494
-0.137613
0.395222
-0.0824001
-0.57437
0.312674
0.195573
-0.508247
-0.151307
0.69473
-0.48277
0.284015
0.0954373
0.182049
0.485426
-0.160107
-0.393847
0.553954
0.0775088
-0.00293681
0.156297
-0.472066
0.420528
0.295327
0.399403
0.0263193
-0.00320265
0.401291
0.127333
0.628963
-0.183145
-0.445819
-0.413471
0.561712
-0.148242
-0.0942638
-0.537402
0.549333
-0.00947372
-0.0128537
0.330039
0.180075
-0.184186
0.00930883
-0.00355015
0.499929
-0.216011
-0.0516309
-0.162118
0.213749
-0.0163982
0.0191867
-0.0209514
0.0190533
0.150419
-0.384107
0.0191797
0.194883
0.0606595
0.518879
0.432239
-0.236245
0.0190593
0.217185
0.00776756
-0.0672348
0.0594673
-0.282382
0.382373
0.00235041
0.117881
-0.274024
0.0335821
0.240442
0.0801244
-0.475158
0.395033
-0.314766
0.239994
0.0747723
0.127537
-0.520836
0.393298
0.128914
-0.479018
0.135195
-0.141501
0.0063058
-0.368769
0.485348
-0.310806
-0.0784041
0.0223698
-0.507206
0.144158
-0.225669
0.0815115
0.117128
0.00834089
0.409574
-0.31275
0.104412
0.339867
-0.115406
-0.183623
0.0636277
-0.316957
0.253329
0.150554
0.154034
-0.00575189
0.0433336
-0.106584
-0.302933
0.0738492
0.229084
0.00983437
-0.107549
0.467902
-0.387779
0.116502
-0.395438
0.278937
-0.382906
0.00224845
0.00706038
0.135911
-0.490104
-0.629918
0.28921
0.340707
-0.00132808
0.0704362
-0.207597
0.426496
-0.2189
-0.00232722
-0.0263909
0.0324234
-0.0358561
0.00343265
-0.010978
-0.00257802
0.013556
0.0367835
0.102197
0.080346
-0.514176
-0.08142
-0.462007
0.487775
0.338477
-0.535065
0.196587
0.123071
0.422053
0.379373
-0.539481
-0.615789
0.273021
0.342768
-0.0297416
0.382957
-0.22201
0.344287
0.702432
-0.407105
-0.102709
0.00421393
0.0984956
0.0222234
-0.00464077
-0.0980687
0.159561
-0.542182
0.382621
0.138032
-0.558125
0.420092
0.626077
-0.145177
-0.480901
0.00788331
0.119398
0.00380442
-0.0539898
0.0501854
0.111106
-0.150051
0.0389443
-0.0623265
0.129617
-0.591624
-0.450358
-0.0825411
-0.134828
-0.451763
0.586591
-0.256059
0.425342
-0.169283
0.0601167
-0.083636
0.0235193
0.0540414
-0.0523182
-0.00172319
-0.251137
0.314765
0.240745
0.461687
-0.136955
-0.309949
-0.46979
0.213731
0.174213
-0.178414
0.00420056
-0.00338884
0.00992148
-0.00653264
-0.0617223
0.0397524
-0.0563868
0.0166344
-0.279669
-0.195999
0.456863
-0.352452
0.132439
-0.00497702
0.0313746
-0.197951
-0.0184396
-0.103813
0.117899
0.313495
-0.251137
0.149904
-0.0387972
0.364476
0.499996
-0.348597
0.140631
0.388171
0.271747
0.131678
0.05113
0.0257493
-0.0294379
0.150331
-0.541511
0.39118
0.392472
-0.115427
-0.277045
0.309599
0.0856229
-0.565221
0.396982
0.287079
-0.349573
0.425129
-0.0462896
0.031538
0.0147516
-0.0007205
0.135916
0.121306
-0.0146663
-0.362181
0.561572
-0.453518
0.558809
-0.399248
0.00837253
0.00343099
-0.098795
0.0144137
-0.311806
0.239038
-0.00644155
0.038865
0.164401
-0.582169
0.417766
-0.00864097
-0.478097
0.486739
-0.414956
0.298244
0.201685
0.0783896
0.00591296
-0.0843026
0.342915
-0.116645
-0.22627
-0.41919
0.0970462
0.322143
-0.216388
-0.405611
0.0742004
0.217379
-0.291579
0.409553
0.216524
-0.0024329
-6.18362e-05
0.00249474
0.139759
-0.271474
0.0325411
-0.0315422
-0.00099895
0.438139
0.0895783
-0.340716
-0.00109104
0.020642
-0.019551
-0.00873721
-0.000584933
0.00932214
-0.0723942
0.0949245
-0.380211
0.507747
0.0588864
-0.067708
0.00882157
-0.189927
0.597005
-0.418019
-0.028379
0.177238
-0.148859
0.186559
-0.18176
-0.136419
0.322669
-0.18625
0.000395703
0.573224
-0.230617
-0.342607
-0.585946
0.370237
0.215708
-0.0110548
0.102284
-0.147379
-0.482539
-0.57758
-0.363769
0.235348
0.11871
0.349191
0.00233161
-0.00476451
-0.208934
0.0465703
0.162364
-0.113464
-0.354253
-0.117813
0.397447
-0.589011
-0.393486
-0.377308
0.563636
-0.0597901
-0.503846
0.237741
-0.406507
0.529577
-0.124925
-0.351998
0.476923
-0.613618
0.243165
0.370452
-0.00319567
0.0415071
-0.536786
-0.519402
0.0168214
0.50258
-0.116037
0.415247
-0.29921
-0.438801
0.33068
0.0217898
-0.0228809
-0.546054
0.00348785
0.542565
0.519861
-0.378209
-0.141653
0.0829897
0.0394044
-0.122394
-0.000246129
0.174459
-0.24648
0.525912
-0.279433
0.187367
0.338462
-0.525829
0.278649
-0.384382
-0.00993182
0.0496842
-0.108749
-0.0531082
0.00451671
0.0485915
0.189996
-0.0583182
-0.497562
0.341692
0.577802
-0.410033
-0.167769
0.00104913
-0.00245101
-0.238203
0.516852
0.0976409
-0.330112
0.232471
-0.570322
-0.441663
-0.467981
-0.173959
-0.00532014
0.179279
-0.134938
0.25854
-0.123602
-0.193013
0.367216
0.416799
0.161003
-0.494342
-0.0177073
0.385674
0.134187
0.0928795
0.0247166
-0.49046
0.448386
0.042074
0.0116169
0.149715
-0.374128
-0.297695
0.387273
-0.144537
0.10324
-0.13435
0.0311108
-0.00777198
0.121865
0.22105
-0.0427555
0.000233622
0.0425219
0.00567034
0.0895504
-0.364113
-0.0746885
-0.00146239
-0.0192229
0.0206853
0.372544
-0.256042
-0.0554365
0.0524496
0.00298693
-0.0342009
-0.0120887
-0.0224314
-0.0256686
0.0481
0.568997
-0.184791
-0.384207
-0.225747
-0.00643175
0.232178
-0.378853
0.303995
0.0898459
-0.0131563
0.00661495
-0.0143163
-0.529655
0.14036
0.389294
0.584934
-0.593368
0.00843288
-0.00605988
0.150458
-0.397926
0.588016
-0.19009
-0.414636
0.562356
-0.14772
-0.00573347
-0.00432592
0.0100594
-0.395768
0.560169
0.34099
-0.452048
0.111058
-0.00315428
0.0214039
-0.00106063
-0.0203433
0.108899
-0.471081
0.47836
-0.139883
-0.494284
-0.00329563
-0.00147186
-0.00726535
0.0839504
-0.0238337
0.109393
-0.117462
-0.183086
-0.304478
0.487563
-0.0454634
0.039188
-0.0912063
-0.125509
-0.0648153
0.0686197
0.0127982
0.165393
0.173835
0.00505925
-0.0770118
0.069558
-0.400752
-0.166024
0.244151
-0.0083805
0.147412
-0.139031
-0.0109538
-0.00816327
0.494646
-0.0516053
0.000375309
-0.000207741
-0.00455677
-0.00489228
-0.0505442
0.022579
-0.0208988
0.317325
0.115471
-0.432796
0.20139
-0.0237266
-0.177664
0.473095
0.155867
-0.0629398
0.277502
0.114969
0.099216
-0.0667518
-0.0324642
0.647566
-0.647565
-0.0204334
-0.00713555
0.027569
-0.539186
0.12455
0.123039
-0.0400491
-0.429706
0.534147
-0.104442
-0.122206
-0.0644407
0.186646
-0.168125
0.194013
0.00737765
-0.0226203
0.0380816
-0.161056
0.122974
-0.156579
0.337242
-0.48067
0.614695
0.0613852
0.271854
0.395337
-0.0583856
-0.336952
-0.372352
0.112676
0.259676
-0.000427422
0.0218314
-0.370097
0.579982
0.636162
-0.382522
-0.43899
0.154059
0.284931
-0.0458416
0.0109691
0.0120686
-0.00211767
0.0239075
0.437966
0.131031
0.0947467
0.399899
0.0218023
0.388219
-0.410022
0.000571247
0.0319699
0.123257
0.524309
0.307266
-0.322956
0.000882375
-0.0257511
0.0248687
0.384326
-0.557929
0.173601
0.0874745
0.193999
-0.281474
-0.11525
0.535051
-0.13376
-0.0326897
-0.00989526
0.0425849
-0.268654
0.392457
-0.123803
0.215951
-0.51072
0.0247206
0.150571
-0.175291
0.00583767
0.025827
0.1209
0.0232199
0.322835
-0.225195
0.478198
-0.148589
-0.329609
0.217909
0.418253
0.010412
-0.0030247
-0.00738731
-0.0164379
0.119678
-0.531375
0.0119726
0.034506
-0.260253
-0.561845
0.392505
0.169339
0.410005
-0.326254
-0.415972
0.599135
0.0211603
-0.471519
0.158958
-0.148753
-0.010205
0.248131
0.187585
0.450306
-0.109316
-0.0984047
0.3792
-0.232534
-0.0170399
0.0133776
0.00366227
0.0319469
0.0109646
-0.00608945
-0.220362
-0.0124401
-0.0303155
0.045888
-0.475594
0.205213
0.0199503
-0.0781991
0.466417
-0.402729
-0.159117
-0.153064
0.43091
-0.277846
0.335298
0.115008
0.0194759
-0.00182887
-0.017647
-0.148292
0.467512
0.10509
0.0448136
0.432338
-0.115014
-0.235834
-0.604587
0.00608881
0.000632999
-0.00672182
0.20647
0.366626
-0.0336884
-0.0818478
0.113305
-0.248243
0.0367562
-0.110289
0.0735326
-0.243287
0.0343527
0.20108
-0.00709147
-0.193988
-0.00405374
-0.201693
-0.0239761
-0.321702
0.0732032
0.0807764
-0.220834
0.379148
-0.158315
-0.00530685
-0.00183293
0.00713978
-0.142715
0.176899
-0.0341841
0.581338
0.420575
-0.284665
0.199734
-0.161652
-0.160684
-0.0324561
-0.313918
0.501285
0.00371519
0.0262259
-0.0299411
0.409412
0.149397
-0.157857
0.0286132
0.0116853
-0.192715
0.612475
-0.41976
-0.105389
0.0810206
-0.257637
-0.143447
-0.360324
-0.0951417
-0.487535
-0.00674933
-0.122256
0.510172
-0.387916
0.383122
-0.265223
0.0798018
-0.0908566
-0.408184
-0.149745
0.0635029
0.0204475
0.00297245
0.00743956
0.235868
-0.0223186
-0.21355
0.0371494
-0.00561141
0.408653
-0.0215664
0.585202
0.226815
-0.596573
0.445229
-0.10942
-0.397374
0.133662
-0.111741
-0.0219216
-0.0999323
-0.229341
0.329273
0.337376
-0.511635
0.174259
-0.0931682
-0.326022
0.107382
-0.561589
0.0233993
0.046508
0.00753335
0.317866
-0.053994
0.00661857
-0.00947851
-0.0794118
0.0888903
0.432361
-0.119688
0.0661297
0.392916
-0.459045
-0.0992219
-0.174802
0.143379
-0.0748347
0.491392
-0.416557
0.37718
-0.483489
0.106309
-0.451525
0.342865
0.10866
-0.418946
-0.163775
-0.397609
0.528259
0.439234
0.0958168
-0.0107854
0.0118375
-0.00105208
0.404314
0.093702
-0.498017
0.0147857
0.0755164
-0.212446
0.259017
-0.204464
0.278664
-0.574855
0.452599
0.421167
-0.589672
0.168504
-0.153261
0.0526993
0.100562
0.277944
0.0945997
-0.390022
0.550801
-0.400471
0.349497
0.126175
-0.475673
-0.289722
0.415739
-0.290175
-0.148815
-0.165991
0.624552
-0.406643
-0.127733
-0.0609759
0.188709
-0.00622098
0.10439
-0.0981694
0.281239
-0.427571
0.146331
0.481325
0.103609
-0.0946178
0.445854
-0.351237
0.386294
-0.161646
-0.224648
-0.200287
-0.185732
-0.299827
0.0707032
0.229123
-0.150585
-0.192554
0.0498391
-0.340935
0.241003
0.335941
0.142256
0.00874446
0.0483421
-0.0570866
-0.144898
0.482274
-0.0321322
0.0184514
-0.105943
0.0899388
0.0160041
-0.00145183
0.308717
0.122124
-0.115376
-0.00674876
0.449392
-0.458032
0.672415
-0.246357
-0.426058
0.125912
0.320588
-0.4465
0.29517
0.17575
-0.470919
-0.00310375
-0.425246
0.42835
0.497505
-0.0931911
-0.493555
0.493555
0.166472
0.384329
0.117379
-0.138143
0.570746
-0.145649
-0.425098
0.551604
-0.385133
0.377527
-0.185453
0.211002
-0.19878
-0.0122224
-0.0107323
0.0891219
-0.0786398
0.340548
-0.261297
-0.143047
-0.47057
0.134919
-0.1433
0.110619
-0.0168467
-0.0937722
-0.0893476
0.325217
-0.0215501
0.127493
-0.1185
-0.00899352
0.134166
-0.0274703
-0.106695
0.579835
-0.173826
-0.406009
-0.150404
0.00407821
0.472104
-0.140703
0.352629
0.29006
-0.325845
0.451757
0.0229229
-0.0226128
-0.000310054
0.0122744
0.111442
-0.026973
-0.432388
-0.0651681
0.380617
-0.362181
-0.13348
0.49566
-0.379954
-0.146292
-0.43538
0.12536
0.31002
-0.376401
0.44253
-0.319162
0.117491
0.201671
-0.541063
0.293335
0.194591
0.0164114
0.328406
-0.0981784
-0.0198672
0.0187384
0.00112886
0.00977187
0.550845
0.172164
-0.087177
-0.0849871
-0.354765
-0.261024
0.0443974
-0.0321224
-0.0122751
0.191503
-0.00122134
-0.190282
0.00756072
0.0528754
-0.0604361
0.117476
-0.0245968
0.00430161
0.129361
0.0027313
0.151302
-0.002873
-0.0246407
0.440645
-0.159406
-0.00546708
0.0139934
-0.579302
0.218554
-0.232689
0.0141345
0.165729
0.405016
-0.0883377
0.222182
0.026053
-0.248235
0.215722
-0.371012
0.15529
0.0264183
-0.00319006
-0.0232283
-0.0727908
0.27033
-0.197539
0.0325419
0.439761
-0.0144102
0.126549
-0.112138
0.103073
-0.514375
0.388583
0.125791
-0.0827429
0.289266
-0.206523
-0.309659
0.65587
-0.262051
-0.39382
0.397546
-0.0935511
0.15617
-0.131449
0.14418
-0.454164
-0.138076
0.226797
-0.0887207
-0.223332
0.486382
-0.263051
-0.242071
0.0403781
0.274679
-0.457765
-0.432591
-0.0578568
0.0552227
0.126305
0.267011
0.405404
0.364872
-0.114402
-0.250471
-0.00366279
-0.0104009
0.210016
0.00095852
0.138566
-0.139911
0.00134511
0.0746869
0.00116879
-0.0758556
-0.519393
0.393082
0.126311
0.396258
0.183577
0.0858809
-0.0699861
-0.0158948
0.298371
0.099175
0.173034
0.00491652
0.222398
-0.0507562
0.00634012
0.0444161
-0.141309
0.436479
0.0391095
-0.11818
-0.0387793
0.37341
-0.334631
-0.38256
-0.00154238
-0.404149
0.203862
-0.453603
0.345447
0.108156
0.000332843
0.0041414
-0.00447425
-0.232461
0.0243007
-0.160742
0.586018
-0.425276
0.0859865
0.136195
-0.00313991
0.095513
-0.0923731
0.126051
-0.30743
0.181378
-0.00771108
-0.0430451
-0.0204555
0.0839584
-0.501732
0.562772
-0.0610398
-0.196889
0.00343284
0.193456
0.0289882
-0.00323893
-0.19696
7.09194e-05
-0.075827
0.0669043
0.00892273
-0.500727
0.0433737
0.457353
0.340726
-0.435344
-0.0164004
-0.000559479
0.0169599
0.0114729
0.099146
0.0110324
-0.0131568
0.00212439
0.120278
-0.552436
0.432159
-0.0996044
0.435616
-0.106868
0.0042961
-0.0251949
-0.126816
0.0544221
0.274808
0.108314
0.454501
-0.0773218
0.00289514
-0.176854
0.0772623
0.0127392
-0.0900015
-0.0720618
-0.0110192
0.083081
-0.379637
0.0659659
0.387078
-0.453044
-0.00860893
0.0674954
0.208175
-0.0053781
-0.202797
0.203062
0.314799
0.0865655
-0.106571
-0.00574338
-0.142947
0.342881
-0.568008
0.411216
0.156791
-0.00118338
0.00727216
-0.0455475
-0.217205
0.565424
-0.113295
0.55797
-0.444675
-0.0314567
0.0351719
-0.526314
0.024581
0.642548
-0.175736
-0.471421
0.248089
0.143337
0.328494
-0.445796
0.117302
0.146716
-0.0416258
0.0758085
-0.213885
-0.0500893
-0.107236
-0.235541
0.342776
-0.000198591
0.000410393
-0.000211801
0.42712
-0.178989
0.0998174
0.00808584
-0.107903
0.0906029
-0.0968238
0.0102212
-0.509445
0.401091
0.108355
0.36629
0.132381
-0.498672
0.000565483
0.126928
-0.203862
-0.356756
-0.0273932
0.409513
-0.16713
-0.284395
0.331938
-0.00882478
-0.0793686
-0.158597
-0.213302
-0.372644
0.000939336
-0.0231825
-0.189794
0.200255
-0.0104608
0.00765112
0.368052
-0.218309
-0.149743
0.604509
-0.147905
-0.456605
0.55815
0.203976
-0.203601
-0.0757204
0.0705082
-0.00386485
-0.00681178
0.20571
0.398538
0.00206861
0.152139
0.0666071
-0.498624
0.432017
-0.10587
-0.329755
0.435624
-0.161002
0.0274369
-0.0303099
-0.023449
-0.187455
-0.295025
0.233302
0.110079
0.0223594
-0.0980804
-0.221081
-0.0698074
-0.0671484
-0.115369
-0.394077
0.278597
-0.485893
-0.471085
0.00189254
-0.129626
0.152564
-0.153284
0.538465
-0.400433
-0.00271669
-0.100148
0.102864
-0.490213
0.356678
0.133535
0.171662
-0.590609
-0.0529839
0.0155527
0.0374312
0.0261026
-0.0292926
-0.165314
-0.230811
0.396125
-0.0230029
0.0482584
-0.367129
0.297595
0.0695342
0.0275362
-0.0265969
0.155929
0.356295
-0.016574
0.420118
-0.342133
0.45514
-0.113008
-0.0891846
0.170395
-0.622266
0.45187
0.32404
-0.497184
0.173143
-0.327488
-0.0387232
0.041372
0.0365179
0.00791453
-0.0444325
0.0897989
0.0823652
0.0506543
-0.0583653
0.0863336
-0.320599
0.234266
0.0301442
-0.00221006
-0.0279341
0.0437308
0.203134
0.000841895
0.427929
-0.307652
-0.140149
-0.352581
0.49273
-0.40009
-0.500634
0.373906
0.126727
-0.0541789
-0.0294572
0.603898
-0.435916
-0.167982
0.258303
0.0201608
-0.278464
-0.372911
0.10902
-0.0910699
-0.00850257
0.0501518
-0.0132804
0.00169168
0.0115887
0.117231
-0.443383
0.326152
-0.0653443
0.0814152
-0.016071
-0.224919
0.346784
0.249245
-0.329747
-0.204894
0.507161
-0.310616
-0.215698
0.00831493
0.0033054
0.312668
-0.0764354
0.0219549
-0.0210725
0.0331472
-0.199172
0.368526
0.0859748
0.112288
-0.00289474
0.395725
0.22259
0.257166
-0.0252328
-0.388297
0.235233
-0.00582185
0.0962649
-0.0904431
-0.279375
-0.228948
0.332716
-0.200898
-0.131818
0.437818
0.334074
0.278813
-0.0830286
0.0798887
-0.231287
-0.0978208
0.329108
0.231673
-0.126315
-0.105358
-0.147494
0.471534
-0.00457147
-0.155647
0.0165167
-0.0149866
-0.00153011
0.326226
-0.48287
0.156644
-0.128931
-0.0586865
-0.468997
0.0890428
0.377211
-0.0676118
-0.175054
-0.409437
0.58449
-0.00627973
0.0809666
0.0214531
0.197101
-0.185844
-0.197239
-0.0877306
0.28497
0.108556
-0.508138
0.399582
-0.142587
0.488649
-0.346062
0.617616
0.322139
0.171745
0.394991
-0.528951
0.133959
0.15783
0.0203774
-0.0428088
0.249534
-0.216992
-0.277371
0.424159
0.545032
-0.241458
0.561502
-0.0315949
-0.529908
0.131386
0.00260416
-0.00836401
-0.04563
0.104459