/*--------------------------------*- C++ -*----------------------------------*\
| =========                 |                                                 |
| \\      /  F ield         | OpenFOAM: The Open Source CFD Toolbox           |
|  \\    /   O peration     | Version:  v2012                                 |
|   \\  /    A nd           | Website:  www.openfoam.com                      |
|    \\/     M anipulation  |                                                 |
\*---------------------------------------------------------------------------*/
FoamFile
{
    version     2.0;
    format      ascii;
    class       volVectorField;
    location    "500";
    object      ddtCorrDdt0(U);
}
// * * * * * * * * * * * * * * * * * * * * * * * * * * * * * * * * * * * * * //

dimensions      [0 1 -2 0 0 0 0];


internalField   nonuniform List<vector> 
13917
(
(0.00137881 -0.00121404 -5.90046e-18)
(-0.00236586 0.0106401 5.21721e-19)
(-0.00295896 -0.00759673 -1.28825e-17)
(-7.27264e-05 -4.15358e-06 2.66106e-18)
(0.0043293 0.004134 -2.36921e-19)
(-0.00383732 0.00963897 2.05551e-19)
(-0.000191364 0.000176734 -4.06946e-18)
(0.0226958 0.0218321 -2.26083e-18)
(-6.30933e-05 2.26347e-05 5.65843e-18)
(-0.00786194 0.0198443 -2.61461e-17)
(0.0190257 0.0201078 -7.91683e-20)
(-2.29676e-05 -5.57731e-05 -4.9892e-19)
(-2.64409e-06 -4.62832e-07 1.05022e-18)
(0.0294105 -0.0197461 -2.3492e-19)
(-0.00352089 0.000285572 7.27447e-19)
(0.00131869 -0.000823885 5.88461e-18)
(5.65111e-05 1.51137e-07 -8.87502e-20)
(0.0175084 0.0131063 -1.42255e-19)
(0.00149631 -0.00359396 -3.15557e-18)
(-0.00558642 0.00155476 -2.36076e-17)
(0.00266581 -0.00250445 -1.61521e-19)
(0.000125957 -7.9172e-05 -5.56967e-20)
(0.000510322 0.00039909 -8.18968e-18)
(0.000125531 -5.84662e-05 2.08733e-20)
(-9.0429e-05 -0.000167774 -2.80364e-18)
(0.00437965 -0.00215806 6.95176e-20)
(-0.0780413 -0.00453072 1.80123e-18)
(-0.00439381 0.0118749 2.25352e-17)
(0.0109699 0.00184634 -1.03259e-19)
(0.000154017 -1.14881e-05 -1.08202e-20)
(-0.00650698 0.0108721 -4.79274e-18)
(-0.000168025 -0.000586952 7.73422e-18)
(-4.84284e-05 -7.24846e-05 2.68444e-19)
(0.00165404 -0.00190901 6.24354e-18)
(-0.000138769 0.000144315 -3.44113e-20)
(0.0231738 0.0277942 1.15224e-18)
(0.000436573 0.000169987 -1.00419e-18)
(3.06986e-05 1.9053e-07 -6.08035e-19)
(-0.000176413 0.000183654 5.56695e-19)
(-0.00225296 -0.00318169 -8.21999e-19)
(3.86445e-05 -3.51155e-07 -1.63993e-19)
(-0.000748441 -0.000178233 3.503e-19)
(-7.47926e-05 3.3303e-06 -4.14822e-18)
(-0.000512357 -0.00284203 1.30605e-17)
(-0.000196206 -0.00281852 -1.08173e-17)
(0.02326 0.0190066 2.95116e-18)
(0.00223225 -0.00210769 7.14426e-19)
(-0.0743414 -0.0627657 1.29802e-17)
(0.0775586 0.0740811 9.40055e-19)
(-9.30952e-05 0.000175642 2.01534e-21)
(-2.30541e-05 -5.56305e-05 2.75924e-18)
(0.00953192 0.00631602 5.05896e-18)
(0.00534766 -1.91972e-05 -2.5621e-18)
(-3.27233e-05 9.41936e-07 -1.02087e-18)
(-2.23536e-05 -7.32155e-06 -7.55303e-21)
(0.00915824 0.00439654 1.04446e-17)
(-0.00394926 0.00355585 1.20239e-17)
(0.000510791 0.000467339 6.41167e-18)
(-0.000572618 -0.00028262 -1.21525e-19)
(0.0224466 0.0226258 -5.75889e-19)
(0.0722074 -0.0056179 -3.36332e-18)
(-0.00786377 0.00395515 -3.50129e-19)
(4.33824e-05 2.87138e-06 -4.69803e-21)
(-8.3611e-05 -0.000151162 -8.25994e-19)
(-0.00235366 -0.00882244 1.81609e-17)
(0.00547514 -0.0105826 -9.36297e-21)
(0.0130951 0.00446582 2.76365e-19)
(0.0198109 0.0310866 -1.73259e-18)
(0.0205045 0.0145374 2.20163e-19)
(0.00438237 -0.000515348 -8.04223e-18)
(0.000764056 -0.0100135 2.28653e-18)
(0.00209686 -0.00168057 -4.49796e-18)
(-4.2509e-05 4.42093e-06 -2.50619e-18)
(-0.000414471 -0.000189933 -1.60703e-19)
(0.00251418 -0.00306285 2.2424e-19)
(5.05513e-05 -0.000304327 -4.99883e-20)
(0.00185466 0.000512708 -4.00536e-20)
(-0.000288141 -0.000230905 -3.30253e-20)
(4.63449e-05 -0.000273956 1.02865e-18)
(-5.39144e-05 -7.52882e-05 -2.7202e-18)
(-0.000218404 -2.99377e-05 -3.62045e-19)
(5.88389e-05 7.30768e-07 -1.42612e-20)
(-3.94235e-05 3.62523e-06 8.45465e-19)
(0.00470803 -0.00987056 -3.26777e-18)
(5.22628e-06 -2.45232e-06 -1.72078e-18)
(0.0377828 -0.00905438 -5.31637e-19)
(-8.76725e-05 -0.000524993 -9.89454e-18)
(7.23327e-06 -2.1802e-06 8.10312e-19)
(-0.00178613 -0.00325937 1.4197e-18)
(6.20829e-05 -1.96393e-07 -4.26805e-20)
(7.32987e-05 -3.22945e-06 -4.25631e-20)
(-7.13265e-05 4.92862e-06 -2.80818e-18)
(0.0643766 0.0905657 8.2554e-19)
(-3.63659e-05 -6.16013e-05 2.60131e-20)
(-5.27135e-05 8.92095e-05 1.39886e-18)
(0.0128978 0.00198181 -4.06942e-20)
(-0.075684 -0.0701916 -9.71029e-19)
(4.86601e-05 5.36569e-10 8.89185e-22)
(5.94977e-06 -2.81042e-06 -4.90535e-19)
(-0.0230901 -0.0286413 -9.0263e-20)
(4.54299e-05 1.66537e-06 6.34864e-20)
(4.92371e-05 1.67618e-06 -2.14509e-20)
(-0.000236593 -2.0364e-06 1.00896e-18)
(5.4175e-05 7.46965e-07 2.04918e-20)
(0.00164721 0.00075706 -2.24098e-19)
(0.00715232 0.00989849 1.13624e-18)
(-0.0104997 -0.0180849 -1.17438e-18)
(-0.0093748 0.00182401 -9.54019e-20)
(-0.00101868 -0.000279302 -3.60317e-19)
(-0.0798808 0.0049118 1.03519e-18)
(-9.26234e-06 -2.82448e-06 -1.09898e-18)
(0.00111594 -0.00224732 -2.24893e-18)
(0.0105384 -0.000163633 -1.17123e-19)
(-0.0526278 -0.0525951 2.35708e-18)
(-0.0017074 -0.00894489 -1.73752e-17)
(0.000167523 -0.000377289 1.9642e-18)
(0.00142461 -0.00320275 5.08694e-18)
(7.0109e-05 2.49436e-06 -1.75226e-20)
(-0.00171242 -0.00626842 9.1948e-18)
(-3.59831e-05 -1.40892e-05 -3.97172e-19)
(6.32994e-05 9.22059e-07 -5.52602e-20)
(-0.000148386 -4.14313e-05 1.67242e-20)
(0.0152711 0.00497288 -7.49448e-19)
(0.0042731 -0.000845836 7.97664e-18)
(0.00495106 0.000142742 -1.18537e-17)
(0.00534709 -0.0095333 6.12781e-18)
(-8.34523e-05 -0.000119478 4.18147e-19)
(0.00288719 -0.00362345 1.02704e-18)
(5.97414e-05 -7.30063e-05 1.11513e-20)
(0.00410019 -0.00121832 4.05188e-19)
(5.86564e-06 0.000103038 4.39067e-18)
(-0.0165033 0.0303543 -1.47694e-18)
(0.00616505 0.00405949 -2.04721e-18)
(0.000210639 -0.00035977 -1.86549e-19)
(-0.000416127 -0.00104932 5.22463e-18)
(-0.0871559 -0.00867699 -1.65516e-18)
(0.0744401 0.00415834 4.60328e-18)
(0.00163663 0.000942985 -5.01497e-18)
(0.00576304 -0.00191451 2.71457e-19)
(2.25633e-05 -2.48717e-07 2.70893e-19)
(0.00577393 -0.049909 1.31285e-18)
(-0.000205532 -0.00015144 1.24326e-19)
(0.00619827 0.0105312 -2.34606e-18)
(1.41426e-05 -5.00616e-05 1.12088e-19)
(-3.74296e-05 8.56404e-06 1.60562e-18)
(-0.00256836 -0.0026581 7.38715e-20)
(0.000977272 -0.0101322 1.55116e-18)
(-0.0368796 -0.216414 6.07297e-18)
(-0.0679381 -0.0385295 9.37183e-18)
(-3.08751e-05 1.28631e-06 1.53223e-18)
(-0.0011076 -0.00281665 2.70345e-18)
(5.0529e-05 9.56831e-07 7.03356e-20)
(-3.60569e-05 7.40705e-06 1.49422e-18)
(-3.70509e-05 -1.80723e-05 -4.73346e-18)
(-0.0923229 -0.0693084 -3.57433e-20)
(-4.30931e-05 0.00048673 -3.31145e-21)
(5.42496e-05 1.78541e-06 -3.0964e-20)
(0.00435559 0.00504937 -9.27062e-18)
(5.62261e-05 4.18578e-07 1.46499e-19)
(6.70612e-05 1.53837e-06 6.05234e-20)
(8.41877e-07 -5.22346e-06 2.02195e-18)
(0.0102385 -0.0299238 -3.80406e-18)
(0.000631903 0.00125954 -2.27708e-19)
(0.00550065 -0.030252 -1.52889e-19)
(0.0568062 -0.0543679 -9.12454e-18)
(-0.0329455 -0.0404907 4.58194e-19)
(0.00350054 -9.84041e-05 1.28613e-18)
(0.0284352 -0.0985825 -7.93166e-18)
(4.85803e-05 1.17361e-05 -7.60955e-21)
(0.00672479 -0.00230593 -2.33215e-19)
(0.00017521 -1.57106e-05 -1.3651e-19)
(0.00780567 -0.000824587 3.47453e-18)
(-6.09334e-05 1.145e-05 -3.72274e-18)
(0.0672371 -0.00287041 -6.83261e-19)
(-8.88043e-05 0.00627785 -2.24344e-18)
(6.01691e-05 1.76909e-06 2.22856e-20)
(-7.58312e-05 8.8961e-07 -1.36116e-18)
(0.0116801 0.00795734 2.75479e-19)
(-3.77512e-07 0.000103082 -1.19509e-18)
(0.000793049 0.00145663 -2.11214e-19)
(-8.24219e-05 1.48713e-05 6.41701e-18)
(0.000135578 -1.79357e-05 2.60354e-20)
(-2.07735e-05 -5.89874e-05 6.77014e-19)
(0.0149826 -0.00472389 -6.40832e-18)
(-0.001166 -0.00669788 -1.45486e-18)
(-0.0212574 0.0315869 -2.05913e-18)
(-2.02895e-05 -5.80693e-05 7.76751e-19)
(0.0166465 -0.00362164 -6.9309e-18)
(0.000136818 -3.33311e-05 -8.43335e-21)
(0.0342692 -0.00701163 6.97252e-20)
(-0.000761044 0.006696 1.73364e-18)
(-7.99462e-05 -0.00244555 2.45148e-18)
(0.00990166 -0.00260068 -8.81678e-18)
(0.000417997 -0.00132252 -2.36391e-17)
(-5.03177e-05 -3.82946e-05 1.20755e-19)
(0.00505908 -6.9148e-07 2.27834e-18)
(-0.000400974 -0.000267321 1.92079e-18)
(0.00622633 0.00474943 1.01683e-17)
(-0.000129098 9.42742e-05 1.33978e-19)
(-9.80188e-06 0.000359584 2.85245e-20)
(0.00158923 -0.00156245 -1.04925e-18)
(0.004008 -0.000596972 -9.27678e-18)
(0.00196417 0.000665705 4.54869e-18)
(0.000138867 0.000397705 -7.13821e-19)
(-0.052451 0.0260796 2.41859e-18)
(0.00467784 0.00380416 -2.24216e-21)
(-0.00148289 -0.00279258 -1.96121e-18)
(-0.00023122 -6.31588e-05 -9.88219e-20)
(0.0116833 0.00660459 1.51473e-18)
(-0.00022376 -7.51868e-05 -4.65941e-19)
(4.08287e-05 -4.02799e-05 2.70317e-20)
(0.00641206 0.00921889 -2.19214e-19)
(0.00835884 0.0099314 -4.2634e-19)
(-0.0773673 -0.0547766 -3.85169e-17)
(-0.000362443 -0.000931428 8.58332e-18)
(0.00503014 -0.00262211 -8.39105e-19)
(-0.00306487 -0.0148751 1.25769e-17)
(2.00386e-05 -3.40157e-06 5.54453e-19)
(7.76284e-05 -1.70731e-05 -8.84546e-20)
(7.6446e-05 -1.59462e-05 8.33924e-21)
(-0.0148673 -0.132742 4.3865e-18)
(0.0122197 -0.00315815 -3.30842e-18)
(0.0202616 -0.0037217 -1.03812e-18)
(-1.29312e-05 2.88392e-06 -1.33971e-18)
(3.48791e-05 1.40002e-06 5.4178e-22)
(-0.0816004 -0.00139706 9.17772e-19)
(0.00520811 -1.41231e-05 4.19052e-18)
(7.45319e-05 -1.85426e-05 7.13989e-20)
(7.40124e-05 -1.84307e-05 1.39592e-19)
(3.51524e-05 -1.26359e-06 -7.97423e-20)
(7.62353e-05 -1.21493e-05 -7.0052e-20)
(7.39638e-05 -1.02771e-05 -1.91273e-20)
(0.00221264 -0.00159306 -4.61513e-18)
(-0.048666 -0.064954 2.56649e-17)
(-1.41538e-05 -0.000166393 -6.69569e-19)
(5.20391e-05 2.24948e-05 1.23117e-20)
(0.00328936 0.00325432 -2.10816e-18)
(0.00342633 -0.000997091 1.49835e-17)
(6.31347e-05 1.42337e-06 -8.79013e-20)
(-1.30772e-05 1.27939e-06 2.17554e-18)
(-0.0621198 0.0232083 -1.95365e-18)
(0.00592461 0.0114683 1.06901e-17)
(0.0132256 -0.00386929 1.96615e-19)
(-0.003498 -0.0134612 -4.95658e-18)
(0.00190297 0.0116981 -8.77785e-20)
(1.20619e-05 -4.85127e-05 -7.65008e-19)
(0.0528479 -0.073731 2.03906e-17)
(0.00371879 0.00296269 4.13974e-19)
(0.00906813 -1.47069e-05 4.51918e-20)
(0.00129064 -0.00110069 -6.70982e-18)
(0.000114117 0.000321973 -1.76784e-19)
(-0.0637805 -0.0588121 4.86897e-18)
(-3.55595e-05 -7.62232e-06 -2.79986e-18)
(-0.00275705 0.000721583 -1.17263e-18)
(-0.00046536 0.0051179 3.38927e-19)
(2.72045e-05 -0.000218176 -2.52151e-19)
(2.17374e-05 -2.38201e-07 1.62425e-19)
(-9.37125e-05 -0.000130545 -6.54656e-19)
(-0.000765536 0.00445982 1.0488e-18)
(-8.29193e-05 -0.000333403 -1.0408e-19)
(0.00466745 0.00022431 -6.59677e-18)
(0.11934 0.0578988 2.75959e-18)
(-2.83591e-05 0.000133182 -9.2864e-20)
(7.35637e-05 -1.81283e-05 1.51201e-19)
(4.59274e-05 0.000567673 -4.07821e-20)
(7.29797e-05 -1.72034e-05 5.24355e-20)
(-3.69336e-05 -1.26582e-05 5.88691e-18)
(-7.26761e-06 -3.71888e-07 2.72476e-19)
(-0.000345919 0.000935218 -1.92546e-18)
(-6.81291e-05 0.000192339 2.20215e-19)
(-0.000130656 0.00147183 -3.59479e-19)
(-0.00839177 -0.0211642 3.85384e-18)
(-1.78254e-05 -4.92215e-05 -3.37805e-18)
(0.00038719 0.0025694 2.3285e-19)
(0.0238498 0.0309681 5.38813e-20)
(7.99135e-05 1.66519e-06 -1.55471e-19)
(-0.0154034 -0.0226246 -2.52015e-19)
(0.00454762 0.000271211 2.14285e-19)
(7.65075e-05 2.78023e-06 -4.34957e-21)
(0.00411489 -0.000665543 3.21268e-18)
(-6.11249e-06 -0.00029152 9.04522e-20)
(0.0126724 -0.0299198 2.54882e-18)
(5.33253e-05 1.31982e-06 -4.43396e-20)
(-0.00236784 -0.000417549 7.57911e-20)
(2.90649e-05 -0.000246637 -3.96553e-20)
(1.72169e-05 -4.26159e-05 -1.10574e-19)
(0.00423287 -0.00549655 -3.12772e-18)
(3.28382e-05 -7.46679e-07 1.72513e-19)
(-0.0431171 -0.0455993 2.52986e-19)
(-0.000718178 -0.000656198 1.07946e-18)
(0.0965725 0.0676107 -1.4774e-18)
(-0.00358683 -0.00280745 -1.96879e-19)
(-0.04032 0.0185788 6.30446e-18)
(8.11367e-05 0.00102644 -3.63414e-18)
(6.96898e-05 1.96112e-06 -6.03136e-20)
(0.000993501 0.00116051 -1.89326e-19)
(0.00113732 0.00473391 3.35489e-19)
(0.000309713 -0.000401224 3.5702e-19)
(0.00321683 0.00417835 -3.12481e-20)
(7.9382e-06 -0.000258058 1.77761e-18)
(-3.39967e-05 -0.000126487 -2.52161e-19)
(3.52401e-05 -1.16814e-06 -1.10285e-20)
(0.0101576 0.0115189 -9.99116e-19)
(0.0118246 -0.0150429 -1.78745e-19)
(-0.00260816 0.00056702 -2.46717e-18)
(4.92702e-06 -0.000235599 -2.50425e-19)
(-1.33334e-05 -5.15633e-07 -2.8354e-18)
(0.00501613 0.00511831 1.13929e-17)
(0.00377217 -0.000557344 3.32759e-18)
(7.32361e-05 -5.36217e-05 -2.98666e-20)
(-0.000404572 -0.00387373 4.73713e-20)
(0.000254872 -0.000428529 -2.02564e-18)
(0.0151943 0.0423243 6.37268e-19)
(-0.0028106 -0.00050526 -3.87787e-19)
(-0.00646781 -0.0135956 -1.20395e-17)
(0.063759 -0.00456377 8.17774e-19)
(0.0102414 -0.00366948 -7.64705e-20)
(-0.0140101 0.025952 1.47263e-18)
(-7.32199e-05 0.00228417 -1.3379e-19)
(0.00349394 -0.010552 1.94159e-18)
(0.0236011 0.0429879 7.47178e-19)
(-0.00349423 -0.00703823 1.32865e-17)
(-6.99875e-06 -6.91818e-07 -2.87476e-19)
(-0.00325498 -0.00017666 -6.40496e-19)
(-0.0682642 0.00419973 -2.98664e-18)
(0.000238598 0.000137023 1.47054e-20)
(-0.00210126 0.0121174 -1.06331e-18)
(0.000196557 -0.00238548 -9.15344e-19)
(5.95733e-05 -9.99728e-07 -7.26245e-20)
(0.00785634 -0.00128438 -4.66423e-18)
(6.84306e-06 -1.09887e-06 -1.77737e-18)
(-1.62721e-05 2.77179e-05 6.00157e-18)
(0.000141168 9.73864e-05 -3.29563e-20)
(-0.00480562 0.00208348 6.11101e-18)
(3.16842e-05 -1.1425e-05 -3.26467e-19)
(-0.00211757 0.000505671 8.17459e-19)
(0.00537187 0.00341381 6.28038e-20)
(0.0103352 -0.000661053 7.7113e-20)
(6.76551e-05 -7.40382e-07 4.2107e-20)
(0.000902243 -0.00119965 1.06654e-18)
(0.00703255 0.00583831 -1.47633e-17)
(-2.77088e-05 5.44256e-05 7.70687e-19)
(0.000200332 0.000198765 -2.25657e-20)
(0.00064403 -0.00261913 -5.33001e-18)
(0.00710492 0.00830167 -9.86886e-18)
(0.036053 -0.0216199 6.95994e-18)
(0.0455275 0.00293114 -5.81804e-19)
(7.52187e-05 7.47629e-06 9.04574e-20)
(-7.39018e-05 -0.000101593 -1.76536e-19)
(0.00514785 0.0115147 1.72866e-18)
(-0.0105532 0.0257305 1.71119e-18)
(7.23911e-05 7.5328e-06 -2.28409e-19)
(0.00223125 0.00520715 2.94741e-19)
(-9.95616e-06 -4.82699e-05 -4.65019e-18)
(0.00423385 -0.0106229 6.4772e-19)
(-0.0022579 0.000661698 1.1974e-19)
(0.00733163 -0.000680377 -5.41326e-18)
(-0.00719454 0.0126281 -5.62292e-19)
(-0.0123856 -0.0237955 2.05335e-19)
(-7.48252e-06 2.46299e-05 -1.84905e-18)
(0.000438061 -0.00236071 -5.63e-18)
(5.61125e-05 -8.00514e-05 -1.22345e-20)
(-1.34641e-05 4.36253e-05 -2.04266e-19)
(0.00535947 0.00476704 5.52259e-19)
(0.00252819 -0.00673825 1.03051e-17)
(5.93288e-05 2.54235e-07 4.23066e-20)
(0.000490302 -0.00101956 7.29031e-18)
(-1.54086e-06 2.3815e-05 2.63945e-18)
(-0.00479082 0.105807 6.26836e-19)
(-2.39305e-05 -4.78347e-07 -2.26899e-19)
(-0.00872461 0.0203547 -5.661e-20)
(-0.00165688 -0.00344484 -4.48793e-20)
(0.0277903 0.0925263 1.7457e-19)
(-0.00021087 -0.000816752 2.28606e-19)
(0.0182224 -0.00540637 3.81588e-18)
(0.0247434 0.0260971 -2.4818e-18)
(0.00658685 0.00372825 3.96233e-19)
(-1.75273e-05 -5.04121e-05 4.49404e-18)
(0.00079233 -0.00990695 -6.51073e-18)
(8.19259e-05 0.000245752 1.43816e-19)
(0.0647312 -0.0486488 -3.44528e-18)
(0.0105006 -0.00347033 1.68102e-18)
(2.23002e-05 -0.000918484 -9.06623e-20)
(0.0441546 0.0826159 -3.72476e-18)
(0.000159841 -0.000400004 6.47493e-20)
(-0.0128981 0.02259 7.87123e-19)
(5.97438e-05 -2.11627e-05 -7.23693e-21)
(-0.00762171 -0.00034441 2.52334e-17)
(-0.0176187 0.025104 -7.02246e-19)
(0.000303371 -4.7612e-05 -2.01185e-18)
(-0.0661327 0.0222296 -1.96754e-18)
(-0.0076639 -0.0196787 2.04575e-19)
(3.49077e-05 0.000255238 -3.6887e-19)
(0.0411759 -0.0370266 -2.64486e-18)
(-0.000806608 0.00476117 2.30984e-18)
(0.000195564 -8.97627e-05 -7.59191e-19)
(0.00472553 -0.00582709 -1.96901e-18)
(-7.82265e-05 -4.26309e-05 8.19478e-20)
(-0.00536246 -0.0229049 -4.42903e-19)
(-0.00208455 -0.00727211 -8.81496e-18)
(5.92129e-06 -1.23335e-06 2.46782e-18)
(-0.000105687 0.000118154 3.04961e-19)
(-2.18458e-05 -0.000220732 -3.39755e-18)
(1.50311e-05 -4.62684e-05 -6.61708e-19)
(2.44442e-05 -1.49227e-05 9.12426e-19)
(3.34152e-05 -8.4585e-05 -3.7999e-20)
(0.0775831 0.00232763 6.44006e-19)
(-0.0359958 -0.0308693 -8.29111e-19)
(-1.9978e-05 1.68857e-05 1.46215e-18)
(6.4172e-05 -0.000114638 5.51202e-20)
(7.98363e-05 -5.26891e-05 -8.9916e-20)
(0.000448265 0.00198345 -7.19987e-19)
(0.00592008 0.0462807 1.51041e-18)
(0.000124902 -5.05896e-06 -8.51993e-21)
(4.94121e-05 1.15785e-05 7.87223e-21)
(-0.00260457 -0.000754431 -2.21824e-18)
(-0.0111118 0.0186224 -2.1263e-20)
(1.8122e-05 -4.50761e-05 -3.86987e-20)
(0.000261389 -4.86052e-05 -1.28974e-18)
(0.0493145 0.00116448 -2.5375e-18)
(-0.103853 -0.0929636 9.81764e-19)
(0.00658582 -0.0145114 -4.89651e-21)
(0.00118651 -0.00389085 8.66738e-19)
(0.00218382 -0.0110731 -2.35005e-19)
(3.66792e-05 0.000123632 -1.49643e-20)
(0.000108237 -8.16698e-06 -1.69152e-19)
(0.00264394 -0.000951685 1.73707e-19)
(2.47279e-05 -1.47276e-05 3.147e-20)
(0.000124639 -1.05133e-05 2.30281e-19)
(-1.60122e-05 -0.000194536 -5.62575e-20)
(0.000106048 -1.03326e-05 2.47795e-20)
(2.03061e-05 9.79953e-05 -1.10359e-19)
(0.00662578 -0.102554 1.21659e-18)
(-9.18363e-05 -3.49818e-05 -1.79604e-18)
(-0.00327692 -0.00255541 2.41841e-19)
(0.000183985 0.00170797 1.93589e-18)
(0.00088479 0.00128262 -1.47121e-18)
(4.04713e-05 -4.05082e-05 -7.57845e-20)
(-3.46471e-05 9.19109e-06 -3.89678e-18)
(0.0351865 -0.0381053 -1.41015e-17)
(0.00192636 -0.00142371 4.16209e-19)
(0.00501611 0.000128098 1.46404e-17)
(0.00014979 4.47815e-05 4.31382e-20)
(-1.70126e-05 -1.52931e-05 -5.37608e-18)
(0.000138403 0.000301736 -2.02808e-19)
(7.06461e-05 -4.31424e-06 -4.58752e-20)
(0.000363797 0.000203683 1.16137e-18)
(0.000313198 -0.000454106 2.43254e-20)
(0.0484426 0.00632045 -3.20487e-18)
(0.00408311 -0.00371712 1.1384e-20)
(0.00649571 0.0109926 -3.12133e-18)
(-1.47818e-05 -1.84379e-05 4.35223e-19)
(7.26358e-05 0.000218108 9.96685e-18)
(0.00337238 -0.0055601 -7.88369e-21)
(-0.000187635 -9.48302e-05 7.21414e-19)
(0.00273967 0.0103531 1.13852e-18)
(0.0384677 -0.0187679 3.8737e-18)
(-1.20898e-05 -4.98462e-05 5.37573e-18)
(-0.101629 -0.0833715 -2.76363e-18)
(3.81339e-05 -3.76543e-05 6.90036e-20)
(3.02931e-05 -2.74748e-06 6.15588e-19)
(6.69847e-05 -4.35831e-05 2.48528e-19)
(8.54999e-05 -0.000410498 -1.05767e-19)
(4.19913e-05 -3.81754e-05 -4.17001e-20)
(9.19573e-06 -2.53281e-07 5.8692e-19)
(0.00553365 0.00426984 5.58861e-18)
(0.0714929 -0.00723511 7.14119e-18)
(4.25342e-05 -3.70405e-05 6.43784e-20)
(-0.0324013 0.0288417 -7.4242e-18)
(-0.00247002 -0.00136344 3.199e-18)
(-1.08949e-05 4.39864e-07 -1.18608e-18)
(0.0013934 0.00152141 7.38532e-18)
(-0.000437923 0.000266144 1.00302e-17)
(0.0348555 -0.0466071 2.14413e-17)
(-8.59302e-05 0.000123473 -2.636e-18)
(0.00749885 0.00876879 1.37616e-17)
(-0.000248164 0.0650585 4.76913e-20)
(0.00437245 0.0556908 9.32101e-20)
(0.000227374 -0.00049223 -3.34907e-20)
(0.00718721 -0.00668723 -2.53975e-20)
(0.00351854 -0.00710134 1.1218e-21)
(4.81174e-05 0.000313623 -1.09711e-18)
(0.0213614 -0.018003 2.59624e-18)
(7.15827e-05 -2.96374e-06 -1.99248e-20)
(-2.81077e-05 -5.34369e-06 7.92796e-19)
(-3.0977e-05 7.76207e-05 -1.33566e-19)
(-8.3957e-05 7.4625e-05 -7.07044e-18)
(0.00110006 -0.0028281 8.95307e-19)
(-0.000379826 -0.00594687 -1.55214e-18)
(0.00062506 -8.82323e-05 4.22642e-18)
(-0.00317163 0.000631899 3.8278e-19)
(0.000434634 0.00325631 -8.08694e-19)
(0.0180773 0.00892479 1.9588e-19)
(-0.00713481 -0.00186565 1.26619e-19)
(-2.46e-05 1.94453e-05 7.99581e-19)
(0.0262265 -0.0331576 3.53288e-19)
(-4.59268e-05 0.000709059 6.70432e-18)
(-0.000728884 -0.000544575 -2.35544e-18)
(0.0684504 -0.0346494 9.56054e-19)
(5.64998e-06 -1.88564e-06 9.62745e-19)
(-0.00800646 -0.00181424 -6.93241e-20)
(0.0135332 0.00842196 4.47333e-18)
(2.94343e-05 -8.06911e-07 1.47734e-19)
(0.00239909 0.00440369 2.33061e-18)
(2.89447e-05 -3.4722e-06 5.2382e-20)
(6.80859e-05 -2.66062e-06 1.24977e-19)
(0.000725572 0.00191905 3.11071e-18)
(0.000164906 2.85618e-05 -2.14317e-20)
(2.26639e-05 -3.87924e-06 -4.34579e-19)
(0.00851415 0.0123329 1.55608e-18)
(-0.000133246 0.00672279 -6.325e-18)
(-0.0541018 0.0221271 9.12128e-19)
(1.77597e-06 -3.21391e-06 -5.87762e-19)
(-8.33551e-05 1.41975e-05 1.51874e-18)
(-0.00123905 0.00217875 -2.04503e-19)
(0.0256331 -0.0104639 6.21082e-18)
(0.0388353 0.0453179 -8.04844e-19)
(-3.44042e-05 1.32132e-05 4.66488e-19)
(-2.45308e-05 -6.78502e-06 4.24071e-19)
(3.02354e-06 -4.35341e-06 -1.84007e-18)
(-0.000283493 0.0040354 5.8562e-18)
(0.0499027 0.0495231 2.82561e-20)
(0.000103785 -7.33988e-05 2.47677e-21)
(6.4884e-05 7.6039e-07 8.0862e-20)
(-6.64078e-05 0.000303646 -3.79812e-20)
(1.39243e-05 -4.41247e-05 9.09805e-19)
(0.00422302 -0.00169544 2.43872e-21)
(-0.000605642 0.000125782 1.42523e-18)
(7.21485e-05 -2.16731e-06 1.6159e-19)
(0.00072674 -6.12288e-05 -5.56065e-18)
(2.92449e-05 -1.81386e-06 4.19312e-19)
(7.75502e-05 -8.48799e-05 3.34526e-19)
(-2.57295e-05 -0.000201799 -1.07452e-18)
(-0.00417792 -0.0074425 1.17555e-17)
(6.89237e-05 2.86764e-06 -7.02714e-20)
(-0.000120641 5.02782e-05 -1.02254e-18)
(-0.00016004 -0.000272904 -6.86488e-20)
(5.04472e-05 0.000220128 1.22956e-18)
(0.00238949 0.00114254 -3.87347e-18)
(0.0110203 -0.00901592 3.60113e-19)
(-3.20975e-05 0.00555051 3.52431e-19)
(-0.029946 -0.0274743 -6.0607e-19)
(2.70414e-05 -0.000178297 -1.23422e-18)
(0.0152294 0.0081794 -1.19851e-18)
(0.00699101 0.00432987 -1.06975e-17)
(-0.00220257 -0.0947712 9.28589e-18)
(-7.79679e-08 0.00216933 9.55844e-18)
(6.07082e-05 -3.00616e-05 -9.56159e-21)
(5.12701e-05 -2.05056e-05 4.85081e-21)
(-0.00420796 0.000955031 4.6444e-20)
(-2.10782e-05 -3.70113e-05 -5.2705e-19)
(-0.000976269 -0.00844387 2.74889e-18)
(8.45338e-05 -4.62427e-06 7.95762e-20)
(0.0863721 0.0319132 -1.91181e-19)
(-0.000399456 -0.000214118 5.45902e-18)
(0.00966052 -0.00257808 -2.10502e-18)
(-0.0201216 -0.0247186 3.1271e-20)
(-8.01362e-05 1.26388e-05 -1.17699e-17)
(-0.0199346 0.0137327 8.054e-20)
(4.42668e-05 -3.6043e-05 5.48731e-20)
(-0.000302494 2.1006e-05 9.68097e-18)
(5.23353e-05 -1.01678e-07 1.13168e-21)
(0.00115975 -0.000870696 -9.99988e-20)
(0.00893074 -0.00252628 5.28473e-18)
(0.000141466 1.11177e-05 -9.99017e-21)
(-0.00696098 -0.00251251 -2.04368e-17)
(3.91037e-05 8.10305e-07 -5.57023e-20)
(-1.05402e-05 2.96409e-07 9.18979e-19)
(6.46169e-05 -2.48924e-05 -5.9597e-20)
(-0.000532304 -0.00561631 4.2829e-18)
(0.00493323 -0.00112088 -7.91809e-20)
(6.96524e-05 -1.13473e-05 1.05656e-19)
(-0.00102143 -0.00252136 6.61185e-19)
(0.00116852 0.00167384 -2.46031e-18)
(0.0147542 -0.0129456 -1.59896e-18)
(0.000708914 -0.0106325 -3.06148e-18)
(0.00352737 0.00664269 5.39533e-18)
(0.0406487 -0.0507809 -1.71403e-17)
(6.90415e-05 1.50267e-06 7.32714e-20)
(0.00504109 -0.000236516 -1.6774e-17)
(5.86997e-05 1.94699e-06 -6.89277e-21)
(0.072077 0.00144572 -8.34231e-18)
(-0.0470812 -0.208206 -1.86121e-18)
(0.00163344 -0.00111374 -3.27975e-19)
(-0.00403315 -0.00250063 1.18966e-19)
(4.79998e-05 1.78219e-06 -4.34789e-20)
(-0.000125862 0.000690912 -5.45059e-18)
(-8.04069e-05 1.1111e-05 -7.84545e-19)
(0.000146525 5.32294e-07 1.44577e-19)
(5.09532e-05 3.80137e-07 -2.86717e-21)
(-4.35558e-06 -1.00674e-06 -6.6516e-19)
(-2.00319e-05 -0.0108523 1.49774e-18)
(8.3765e-07 1.20589e-06 5.30343e-19)
(-8.55678e-05 -0.000369765 1.24749e-17)
(-2.85516e-05 -4.90775e-06 -2.49317e-19)
(6.99794e-05 -1.23393e-05 -2.15292e-20)
(6.20725e-05 7.81458e-07 -3.80385e-20)
(0.0203361 0.016594 -3.43892e-18)
(0.0126156 -0.0236427 9.81402e-18)
(-0.0248451 0.0108728 5.78669e-18)
(0.00124192 -0.00090092 2.96109e-18)
(-0.000551231 0.000151242 -1.76828e-18)
(0.00718578 -0.0128215 -9.98528e-18)
(0.00346563 -0.00099263 -1.1e-17)
(6.2751e-05 -2.608e-05 -5.64218e-20)
(0.0284399 -0.018528 1.70138e-18)
(-4.8241e-06 2.14785e-07 -1.35195e-18)
(-0.000962964 0.000671101 -5.10973e-18)
(-2.01522e-05 -4.0348e-05 -7.35006e-19)
(0.000118923 -0.00936719 7.0775e-18)
(1.50547e-05 -4.25721e-05 -1.05639e-18)
(0.00400066 -0.0028335 -1.10619e-19)
(-3.85674e-05 7.28235e-06 -4.12142e-18)
(0.010134 -0.026711 9.90184e-19)
(-0.000167456 0.000872504 7.47139e-18)
(-0.00354118 -0.0100616 5.33107e-18)
(6.61616e-05 -4.81233e-08 -4.46907e-20)
(-0.000363571 0.00082052 5.36528e-18)
(0.0001301 9.70507e-05 9.26955e-20)
(3.82637e-05 4.52527e-07 4.60094e-20)
(-0.000217615 -0.00287641 5.38464e-18)
(-0.0185107 -0.0478343 -1.23513e-19)
(0.000106744 0.00024254 -9.71374e-20)
(0.00807681 -0.00126962 -1.78753e-19)
(-1.3734e-05 -1.42234e-07 2.15785e-18)
(0.00110528 -6.35685e-05 -3.71882e-19)
(4.26738e-05 5.05821e-07 -2.90894e-20)
(-0.000590651 -0.00334787 1.63214e-18)
(3.20186e-07 4.25105e-07 -1.02868e-18)
(-2.85018e-05 0.00518296 -8.4022e-19)
(8.8395e-05 -5.33061e-06 -1.40191e-20)
(9.47053e-05 0.000180447 -1.18114e-19)
(0.00280615 -0.00653403 -1.96214e-18)
(4.77974e-05 1.18056e-06 3.92367e-20)
(0.00585159 -0.0021709 -1.94973e-18)
(5.86276e-05 -6.57235e-07 9.05587e-20)
(3.04265e-05 -6.15691e-06 -5.39205e-19)
(0.0732913 -0.00286389 5.09569e-18)
(-0.000143509 -0.000401589 -4.34553e-18)
(-3.78742e-05 1.09239e-05 -1.36949e-18)
(0.000589703 0.000385719 1.92251e-18)
(-0.00654411 -0.00205381 1.73842e-17)
(-0.0118837 0.0402685 1.66725e-18)
(0.0143421 0.0102033 -2.93234e-18)
(4.4726e-05 -3.36518e-05 -5.97836e-20)
(-0.00425059 0.000356528 -4.3909e-19)
(-0.00444164 -0.00636217 4.48372e-18)
(-0.00527319 0.00393539 -2.20772e-18)
(0.00222292 -0.000802736 -5.60195e-19)
(0.000436104 8.1509e-05 9.73903e-19)
(0.00426993 -0.00347256 8.60386e-20)
(6.17033e-05 -9.32412e-07 3.43186e-20)
(-1.25445e-05 -3.75171e-05 -9.61406e-20)
(0.0121149 -0.00592801 2.85734e-22)
(0.00296203 0.00144012 -3.133e-18)
(-0.000199074 -0.000385542 -1.96175e-19)
(0.0737232 -0.0356355 1.93048e-17)
(-5.72719e-05 0.000867534 -5.27205e-18)
(-0.00686017 0.0644338 -1.72164e-19)
(0.0429852 0.0424493 1.98373e-18)
(0.00894455 -0.0169529 1.92011e-19)
(-0.00145273 0.000712225 1.11381e-18)
(0.00873669 -0.00300485 8.10384e-18)
(0.00376814 -0.000829273 -4.86216e-18)
(-6.2199e-05 -9.56171e-05 -4.19432e-20)
(-0.00352019 -0.0103971 9.49347e-20)
(0.0149223 -0.00286337 -3.88173e-21)
(3.01397e-05 -3.94832e-06 -1.93183e-19)
(6.75295e-05 1.59685e-06 -6.1204e-20)
(6.26818e-05 1.68745e-07 -2.24949e-19)
(-0.00168153 0.00281631 -4.13431e-19)
(1.49466e-05 -4.13571e-06 2.95527e-19)
(0.00500525 -0.000290979 -2.89923e-19)
(-1.54344e-07 4.32246e-05 8.7918e-18)
(5.35451e-05 -3.38577e-06 6.99304e-20)
(0.000257514 -0.00209352 -4.36982e-19)
(6.65385e-05 3.22111e-07 1.37306e-19)
(-0.00536992 -0.0145332 1.26429e-17)
(7.76171e-05 -0.000313024 -7.88568e-20)
(7.30654e-05 -7.21555e-05 8.74298e-21)
(-4.87289e-05 0.00605913 2.39912e-18)
(0.00195299 0.000913075 -8.92032e-18)
(-0.0050937 0.119889 1.43399e-18)
(-4.68808e-05 9.62154e-06 5.26824e-18)
(-0.00062421 -0.000207514 4.45887e-20)
(8.82981e-05 -2.72994e-05 1.05575e-19)
(-6.80074e-05 9.42368e-06 -2.72346e-18)
(-0.000185167 0.000261966 6.11116e-18)
(1.50365e-05 -2.8037e-05 -5.35105e-20)
(0.0038842 0.000529011 1.58901e-18)
(-0.00108582 -0.000741848 1.39538e-18)
(0.0480961 0.056452 3.89952e-19)
(-0.0122127 0.115551 -4.40845e-19)
(-0.00194557 -0.0107078 -2.85626e-19)
(0.0029246 0.00710938 -1.20329e-17)
(-8.63226e-05 1.43453e-05 -9.4719e-20)
(5.41422e-05 9.62628e-07 8.13062e-22)
(0.000149425 0.000136285 1.7214e-19)
(0.00454553 0.000143532 -6.13357e-18)
(-0.0543657 0.0312351 8.50474e-19)
(-0.000449674 -0.000294641 1.7054e-18)
(0.0048319 0.000239083 5.00038e-18)
(0.0640764 0.0825913 4.73044e-20)
(3.08062e-05 -1.03917e-05 1.91333e-19)
(7.85242e-05 -5.95547e-05 1.19735e-20)
(0.000348448 0.000304095 6.93974e-19)
(0.00779787 0.00684071 1.07325e-17)
(0.0122901 0.0759929 -4.50732e-20)
(-0.000242458 0.000969869 2.08832e-19)
(-6.57187e-05 9.65813e-06 7.77637e-18)
(-0.000127809 5.36173e-05 3.27372e-18)
(-0.000879089 0.000743364 1.11876e-17)
(2.92796e-05 0.00179396 -3.97477e-19)
(0.00655347 -0.00116552 8.98874e-19)
(5.07216e-06 4.87806e-05 1.77822e-18)
(-6.52961e-05 7.6359e-05 -1.44102e-18)
(-5.05824e-05 -7.98052e-05 3.0549e-18)
(5.43946e-05 1.43153e-06 -4.16976e-20)
(-0.000202683 0.000251933 -3.46269e-18)
(-0.000437651 0.00350108 5.56123e-19)
(-0.000505431 0.00535912 3.24976e-18)
(0.000449701 -0.00041885 -1.25296e-19)
(0.00280663 0.00228402 -2.53352e-19)
(0.00434856 0.000398995 6.19128e-18)
(0.000473189 -0.000896948 -3.09843e-20)
(0.0800818 0.0534536 8.59164e-20)
(0.000360582 4.70674e-05 5.85482e-19)
(-0.00127551 0.00623782 3.61891e-19)
(-0.00037257 -5.47701e-05 1.46704e-18)
(-0.00535826 0.00337099 -3.08988e-18)
(6.36406e-05 1.37222e-06 5.92093e-20)
(-0.000231409 4.15659e-05 8.38907e-19)
(0.0107749 -0.0217173 -1.12246e-17)
(0.0174108 -0.0334797 -9.64396e-20)
(-2.3265e-05 -3.14701e-05 2.09366e-18)
(0.000377124 -0.000462449 7.18708e-19)
(1.54463e-05 -3.18257e-06 -3.11567e-19)
(-1.62676e-05 -3.29305e-05 4.25041e-18)
(-3.69917e-05 2.35045e-06 -4.72301e-18)
(0.00321322 -0.00779338 -4.90279e-19)
(0.00481797 -0.0048684 1.59478e-19)
(0.0169048 0.0166522 -2.70545e-18)
(0.00645671 -0.0019769 3.98657e-18)
(4.6711e-05 -2.76212e-05 3.28427e-20)
(-0.00166583 0.0066498 5.25342e-18)
(-6.25628e-05 3.08124e-05 -6.56231e-18)
(-8.85156e-05 8.79403e-05 4.63897e-18)
(0.00794152 -0.00222676 2.36741e-18)
(-8.68655e-05 -0.000127783 -2.32777e-19)
(-0.000323 -1.94534e-05 -2.13352e-17)
(-0.0641597 -0.0595082 1.17331e-18)
(6.67642e-05 -2.03778e-08 -4.77688e-20)
(0.00176394 0.000694696 6.11311e-18)
(-0.00120834 0.00951373 5.99901e-19)
(9.4316e-06 6.03066e-05 -2.95019e-18)
(2.07507e-05 -2.58308e-05 -1.25077e-20)
(3.89685e-05 -3.713e-05 5.5699e-20)
(-5.18746e-06 -4.57862e-05 2.62421e-21)
(0.00417182 -0.00045536 1.35816e-17)
(-4.06405e-05 -7.30519e-05 8.32612e-19)
(0.000230925 -0.000421747 3.07906e-19)
(-1.10088e-05 2.61299e-05 1.8597e-18)
(1.58458e-05 -3.10625e-05 9.0739e-21)
(4.47182e-05 -4.44989e-05 -2.50044e-20)
(0.00842523 0.00433124 -5.50111e-18)
(-0.0464171 -0.0564517 -6.83679e-19)
(0.0107564 -0.00958526 5.37156e-19)
(-0.109011 -0.0936533 -1.25802e-19)
(0.00394355 -0.00923363 -7.11243e-19)