/*--------------------------------*- C++ -*----------------------------------*\
| =========                 |                                                 |
| \\      /  F ield         | OpenFOAM: The Open Source CFD Toolbox           |
|  \\    /   O peration     | Version:  v2012                                 |
|   \\  /    A nd           | Website:  www.openfoam.com                      |
|    \\/     M anipulation  |                                                 |
\*---------------------------------------------------------------------------*/
FoamFile
{
    version     2.0;
    format      ascii;
    class       surfaceScalarField;
    location    "50";
    object      meshPhi;
}
// * * * * * * * * * * * * * * * * * * * * * * * * * * * * * * * * * * * * * //

dimensions      [0 3 -1 0 0 0 0];
oriented        oriented;


internalField   nonuniform List<scalar> 
20642
(
0.00121814
0.000195976
-0.00141412
-0.00397384
0.00680401
-0.00282104
-0.000772668
-0.00120177
0.00197456
-0.000723478
0.00537567
-0.00462203
-0.00551938
0.00801109
-0.00246119
-0.00695221
0.00299038
0.00220065
-0.00478404
0.00259107
-0.00819074
0.00465277
0.00354306
-0.00211583
-0.00200147
0.00412481
-0.00120451
-0.000182583
-0.00357934
-0.00460592
-0.00708426
0.00610443
0.00103678
0.000291016
0.000234939
-0.00469819
0.00712886
-0.00242842
-0.00573647
0.00764784
-0.0018892
0.000112364
0.00110578
0.000175115
0.00013727
-0.000207241
0.00802788
-0.00353746
-0.00448484
-0.00291036
0.00206258
0.000848148
0.00147284
-0.000809484
-0.000663357
-0.00570873
0.00370696
0.0020094
-0.00133105
-0.00463177
0.00603489
-0.00169475
-0.00147511
0.00317144
0.00523213
-0.0064842
-0.00645718
0.00335554
0.00311973
0.00606651
-0.00240547
-0.00365365
0.00500702
-0.00282311
-0.00218328
-0.00120451
0.00715575
-0.0026323
-0.00451643
7.10203e-06
0.000152249
-0.000155011
-0.00105806
-0.000146448
-0.00365687
0.0013072
0.00235037
0.00652573
-0.00435958
-0.00213424
0.001426
-0.000719538
-0.000706457
0.000332991
-0.00491935
0.00467048
-0.000617661
0.00527472
-0.00527086
-0.00059959
0.00589303
-0.000177003
0.000644113
-0.000145637
0.00439391
-0.00218624
-0.00359137
0.00545473
-0.00185764
-2.44183e-06
-5.06996e-05
0.000123827
-0.00292252
0.00440742
-0.00143494
0.00588843
-0.000693359
-0.00518139
-0.00124336
-0.00098195
0.00222561
-0.00261967
0.00137669
0.000813057
-0.00247435
0.00166165
-0.00510884
-0.000589158
0.00194954
-0.00118253
-0.000766999
0.00333584
0.00302545
-0.00636013
-0.00362539
0.00402623
-0.000635467
-0.00638738
-0.00101036
0.00311672
-0.00210569
0.000799158
-0.00131145
0.000512294
0.00614001
-0.007195
0.00112758
0.00766442
-0.00581537
-0.00178106
-0.00263261
0.00162274
-0.00105806
0.00163016
-0.00332308
-0.00451011
0.00163932
0.00289533
-0.00208181
-0.00317565
0.00168827
0.00148743
0.00234725
0.00350851
-0.00581795
-2.1408e-05
-1.63506e-06
3.2895e-05
-0.00235567
-0.0040808
-0.00131689
-0.000161571
0.00147849
0.000294807
-0.000187908
-0.000105738
-0.00298303
0.00701847
-0.0040294
-0.0049584
0.00434479
0.00445379
-0.00135224
0.000816832
0.000535407
-0.000395986
-0.00123314
0.00162918
0.00103817
0.000387833
-0.00755009
0.00643483
0.00118554
-0.00335368
-0.00109476
0.00581265
-0.00209865
-0.00777388
0.00394918
0.00384372
-0.00499448
0.00753348
-0.00250613
-0.00454014
0.00124857
-0.00304922
-0.00470225
0.00406768
0.00248023
0.00502648
0.00240579
-0.00737656
0.000201752
0.000202099
-0.000259515
-0.00102017
-0.00644879
0.0020272
-0.00121546
-0.000811697
-0.00352114
0.00316533
0.00066683
-0.00721784
0.00303677
0.00418449
-0.00199925
-0.00165676
0.00103483
0.000802621
-0.00144962
-0.00518658
0.00160138
-0.000112106
0.000378333
-0.000124611
-0.000398466
0.000615813
0.00419853
-0.00410234
0.00743951
-0.000528094
0.004929
-0.00431024
-0.00126098
-0.00544118
0.00674872
0.00417898
0.00659077
-0.0035495
-0.00303987
0.000311491
0.000229228
-0.000346741
0.00198027
-0.000639555
0.00336014
-0.00550969
0.00215182
6.50393e-05
4.64506e-05
-7.46319e-05
-1.8322e-05
0.000110048
0.00700636
-0.00193256
0.000720016
0.000104833
-0.000649394
-0.00797346
0.0030229
-0.00144998
-0.000144201
0.00159421
-0.00122951
-0.000234769
0.00146429
-0.00439814
0.00678871
0.00135292
0.00310325
0.00237143
0.0026363
-0.000969791
0.00271226
-0.0015376
0.000818069
-0.00677986
0.00415405
0.000412952
-0.00172981
0.000416388
0.00398845
-0.00438955
-0.00165988
-0.00125006
-0.00033538
0.000408011
5.87402e-06
0.00132188
0.00097114
-0.00229286
0.00158672
0.00461206
-0.00611989
0.00054024
-0.000200554
0.00446512
-0.00162993
-0.00276851
0.00277616
0.00424837
0.00169721
0.00110597
-0.00280256
0.000863148
-0.0013913
0.00052815
0.00089082
0.00113641
0.00578906
-0.00199242
-0.0037773
0.00191329
0.0039066
0.0048878
0.00113658
-0.00591983
-0.00104822
0.00274594
-0.00420532
0.00123464
0.00297361
0.00129483
-0.00320871
0.00191454
-0.00161576
0.00102587
0.000589901
0.00485647
-0.00442295
-0.00296682
0.000839557
0.00212781
0.00522646
-0.0028543
0.00311727
-0.00162307
-0.00149414
0.000750661
0.000531052
-0.00128171
0.00692393
-0.00270382
-0.00421227
0.0001597
0.00668327
-0.00686008
0.00017927
-0.00158859
-0.00288968
0.000512509
-0.00196246
0.00133203
-0.00537933
0.00415696
-0.00667459
0.00608385
0.000666426
0.00372174
0.000815721
-0.00449662
-0.00157946
0.00118352
-0.00795489
-0.000388908
-0.000883479
0.00127239
-0.00122862
0.00744712
0.00382859
-0.00536065
0.00153829
-6.51418e-05
-2.06567e-05
0.000119579
-0.00569091
-0.000902379
0.00254639
0.00404567
-0.00691505
0.00563126
0.00134005
-0.00012966
0.00101548
-0.00100228
-0.000389482
0.00139177
9.09599e-05
0.000119094
-0.000135077
-2.43457e-05
-0.000245014
-0.00623013
0.00493412
0.00150485
-0.000707203
-0.00110044
0.0018077
0.00789657
-0.00285085
-0.00502495
-0.000131799
0.00105826
0.00117822
-0.00223644
0.00550573
-0.00283764
-0.00266668
-0.00031495
0.00117806
-0.00238111
0.00120308
-4.79743e-05
4.72151e-05
1.94034e-06
0.00254263
0.00438878
-0.00978701
0.00572448
0.00413612
-0.000495658
-0.00100598
0.00150165
-0.00516337
-0.00333597
0.00218684
0.00114927
0.000895698
-0.00295308
0.00205849
-7.2634e-05
0.000191455
-7.09478e-05
0.00428664
-0.00498271
-0.00145393
0.00312115
-0.00166663
-0.00135261
-0.00284905
0.00441805
0.00349612
0.00522078
-0.00564064
0.000433553
-0.0044712
-0.00592977
0.00534549
0.000603333
-0.00201323
0.00141014
-0.000744375
0.00206641
-0.00218731
0.0034829
-0.00621559
0.000342526
0.00258062
-0.00197695
0.000226606
-0.000215064
-0.0038285
-0.00338612
-0.00261983
0.00351698
-0.00147355
-0.00114574
0.00289333
-0.00136764
-0.00152532
0.000870748
-0.00141626
0.000545517
0.00345662
-0.00391572
0.000641301
-0.00138219
0.000740889
-0.00137117
0.00482524
-0.00344427
-0.000970899
-0.000644853
0.00115688
-0.00599323
-0.00574383
-0.00110841
0.00248976
0.0031911
-0.00567066
0.00108395
0.000337074
-0.00142103
-0.000304183
0.00105484
-0.00699574
0.00522963
0.00179224
0.00327381
-0.00420908
0.000935791
0.00456838
0.00159946
-0.00615727
-0.00135211
0.00293737
0.00166333
-0.00524745
0.00770848
0.004156
-0.00498942
0.000969452
0.00849652
-0.00370135
-0.00477269
0.00572439
0.00279204
-0.00157143
-0.0023185
-0.000647816
0.00336905
0.000762657
0.000899872
-0.0016625
0.000297747
-0.000872638
0.000921425
0.000132608
0.00170424
-0.00177384
0.00172391
-0.00153138
-0.00111628
0.00311841
-0.00163086
-0.00148716
-0.00113908
0.00277567
-0.00163629
-0.00445154
0.00420388
0.000593425
4.08047e-06
-1.79979e-05
0.00270839
0.00251861
-0.00067015
-0.00241312
0.00157936
0.000900907
-0.00141129
-0.000928991
8.53916e-05
-3.41173e-05
9.08687e-05
0.00169211
0.00179382
-0.00164231
0.000811548
0.00022662
0.000849466
0.000917667
-0.00176712
0.0075168
-0.00455402
-0.00290639
-5.92704e-05
9.18513e-05
-2.75915e-05
0.00245082
0.00132145
-0.00377115
-0.000623819
0.00134772
-0.000723901
0.000308597
-0.000107524
-0.000123087
-0.000189829
-0.00389312
-0.00164345
0.00491776
0.00103454
0.000706209
-0.00174072
0.00110547
-0.000807631
0.00157031
-0.00148199
-0.00201173
0.00349465
-0.00342655
0.00485572
-0.00106648
-0.0013146
-0.000506981
0.00295874
-0.00255704
-0.00421656
-0.00334349
0.00228269
0.00106152
-0.0050626
-0.00190602
-0.000721951
0.000903252
-0.00491027
0.00407031
-0.00475069
0.00347956
0.00127376
0.00407543
-0.0024861
-0.00158766
0.00845324
-0.00336588
-0.00502463
8.92435e-06
0.00345112
0.00649424
-0.0082304
0.00177413
-0.00381619
-0.00131544
0.00520038
-0.00135579
0.00053577
0.000820017
0.00612734
-0.0014381
-0.00468855
0.00479923
-0.00154925
-0.0031748
0.000261391
-0.00159762
-0.00144938
0.0071353
0.0016751
-0.00134068
0.00558621
0.0010528
-0.000236664
-0.00411365
0.00293345
0.00118335
0.00200935
0.0028558
0.00128583
-0.000831456
0.000533342
-0.00176283
0.00853985
-0.002798
-0.00563645
-0.00580618
0.00823314
-0.00238737
-0.00129629
-0.00180495
0.00310163
-0.000223643
0.0015461
-0.00127356
-0.00182324
0.00436381
-0.00253862
-0.000795562
-0.000560224
-0.00149865
0.00132252
-0.000668584
-0.000683654
0.00137202
-0.00511724
-0.00196347
0.00125633
6.95428e-05
-9.11918e-05
0.0052217
0.00192096
-0.00711805
0.0051088
0.00339107
0.00545999
0.0012066
-0.00653454
0.00174939
-0.00234375
0.000594595
0.000455992
0.000313715
-0.000497459
0.0028738
0.0026334
-0.00146425
0.00458119
-0.00310995
-4.56312e-05
0.00380344
0.00226125
0.00210063
-0.00436089
0.000534851
0.000200985
0.000175676
-0.00226901
0.00387771
-0.00160698
0.00721443
0.000584091
-0.00775704
-0.000961191
0.00515162
-0.00417428
0.00193565
-0.00742075
-0.0067029
0.00367114
-0.00127999
0.00512968
-0.00376855
0.00111586
-0.000384445
-0.00191975
0.00346181
-0.00154131
-0.00172266
0.00658611
-0.00483816
-0.00254148
-0.00220567
-0.00182043
-0.00486317
0.00307774
-0.00305474
0.000277117
0.000427657
-0.00142993
8.38901e-05
0.00100006
0.00450248
0.0012175
-0.00561426
-0.00049623
0.00163526
-0.00112231
0.00391031
0.00578633
0.00152659
-0.00729859
-0.00204508
0.00213872
-9.34312e-05
-0.00172427
0.000209902
0.00151438
-0.000916895
-0.002419
-0.000135909
-7.16042e-05
0.000208478
-0.000463874
-0.00274391
-0.00778692
0.00202053
-0.00194632
0.000730912
0.00700937
-0.00120873
0.00109704
-0.00186961
0.000834832
-0.000177944
-0.0069126
0.00119919
-0.00446604
0.0010249
-0.00638265
0.00541717
0.00078401
0.00602886
-0.00256876
0.00109559
0.0002623
7.58337e-05
-0.000229654
-0.00129657
0.000800919
-0.00238589
0.00233163
0.000398642
-0.00161759
0.00326513
-0.000410234
-0.00132801
0.00177474
0.00107495
0.000397892
0.00255267
0.000434395
-0.00281909
0.00448564
-0.00209934
-0.00238304
0.00649465
-0.00191667
1.59299e-05
-0.000150728
0.000425739
-4.91341e-05
0.00149601
0.00137052
-0.00286591
0.0014561
-0.00193017
0.000474098
-0.00114022
0.00597216
-0.00478314
0.0063211
-0.00523733
-0.00072478
-0.000812819
0.00166277
0.000117727
-0.00178047
0.000454752
-0.00194208
0.00148744
-0.0063183
0.00162278
0.000136736
-0.00157649
0.00740604
-0.00461626
-0.00273218
0.000829156
0.000839936
-0.00166907
-0.00281723
0.00235415
0.00178755
-0.00158767
0.00919405
-0.00616357
0.00487976
0.00133664
-0.0060287
0.00360027
0.00243284
0.00194712
0.00298186
-0.00140041
-0.00158097
0.00421431
-0.00242836
-0.00178461
-0.00428684
0.00246605
-0.00250813
-0.000235729
0.00274529
-0.000776746
0.00146455
-0.000687797
0.00591062
-0.000920911
0.0050211
-0.00611219
0.00478521
0.00324502
-0.000806478
-0.0012604
0.00206707
0.000158954
-0.000154795
8.32877e-05
0.00106672
0.000991782
-0.00349824
0.000603401
-0.00248665
0.0034038
0.00431819
-0.00199326
0.00396961
-0.00197527
0.00118602
-0.00166578
-0.00241982
-0.00446034
0.00688217
0.0014162
0.00246725
-0.00383954
0.00144181
0.00159939
0.00417987
0.00232417
0.00373258
0.00489931
-0.000789861
-0.00111559
0.00190554
0.00139343
0.000448762
-0.00181071
-0.00134271
0.00240101
0.00126278
0.00376827
-0.00230867
-0.00652043
-0.000316458
0.00586616
-0.00550293
0.002124
-0.00151183
-0.000604608
0.0039915
-0.00142844
-0.002466
0.000460337
-0.00126982
0.00195873
0.000174852
-0.00772208
0.00440776
0.00333468
0.00506412
-0.00235528
0.00253769
0.00226182
-0.00479707
0.00741545
-0.00235514
-0.00502856
-0.00145607
0.00271944
-0.00126329
0.00229
-0.00128494
-0.00434966
0.00668569
-0.00231207
0.00255098
-0.000801346
0.00492947
-0.00730122
0.00243396
-0.00263448
0.00517475
-0.00220064
0.000999
-0.000124365
0.00257913
-0.00482154
0.0022491
-0.00578053
0.00397591
-0.00625288
0.00479251
0.00160911
-0.00455239
0.00269689
0.00205394
0.00566903
0.000110191
-0.00567497
-0.00555785
0.00272174
-0.00214774
0.00552456
-0.0033369
-0.00125198
-0.0047098
0.00605398
-0.005545
-0.00157627
0.00721003
0.00264212
-0.0041331
0.00149302
-0.000220905
0.00584406
-0.00561788
-0.00024107
0.00154403
-0.00126063
-5.89583e-06
-3.6276e-05
0.00060683
-0.00265166
-0.00407278
0.00208077
7.27343e-05
0.0055004
-0.00259185
-0.00510264
-0.00143775
-0.00119798
0.00263587
0.00335631
0.00225381
-0.00560942
0.000219827
7.70398e-05
0.00231291
-0.000250009
-0.00114645
-0.000799819
-0.00323497
0.00066579
0.00261856
0.00151999
1.64211e-05
-0.00148897
-0.00602007
0.00440786
0.00162264
-0.00241656
-0.00192402
0.00132059
0.00420052
0.00133427
-0.00127783
-0.000750175
-0.00243554
-0.00101863
-0.00117372
0.00219238
0.00704598
-0.00205777
-0.00497493
0.00243062
0.00254842
-0.00129304
0.000461581
-0.00332304
0.00105576
-0.000641138
0.00493006
0.00112112
-0.00672819
-0.00238606
0.000930073
-0.00415026
0.00665154
-0.000261678
0.00112483
-0.000305532
0.00167109
-0.00132631
-0.0021915
0.00495741
-0.00260705
-0.000470891
0.00189605
-0.000142064
0.00199475
0.00101624
-0.00626392
-0.000974498
0.00628218
-0.00526213
-0.00290551
0.00146795
0.00323476
0.000851069
-0.00405222
0.00154707
-0.00497926
0.00295463
-0.00458001
0.00197927
0.0026035
0.00311939
0.000645687
-0.00373366
-0.00682091
0.00162243
0.00191692
-0.00339802
-0.0017896
0.00224448
-0.0051315
-0.000979573
-0.00208855
-0.00288809
0.00497691
-0.00483955
0.00478444
0.000186307
4.63018e-05
0.00139313
-0.00117437
0.00139805
-0.00686124
0.00563078
-0.00590008
-0.00368534
-0.000872925
0.00469953
-0.000896507
-0.000163391
0.00142507
0.00145353
-0.000988708
0.000676105
-0.00422212
-0.00180593
0.00406798
-0.0024033
0.00150816
0.000895359
-0.00119004
0.0014839
0.000137127
-0.00229718
0.00332413
-0.00102537
0.000677227
-0.00255407
0.0021682
-0.00216099
-7.17433e-06
-0.00159611
-0.00241391
0.00401535
0.0015186
-0.00232272
0.00187822
0.000453478
-0.000615198
-0.00170026
0.0049336
-0.000258731
0.00395616
-0.000805989
0.00238235
0.00280174
-0.00174624
-0.00105532
0.000415848
-0.000454899
-0.00542446
-0.00169896
0.00475134
0.00266882
0.00214934
-0.00481119
-0.00505032
0.0012693
0.00378774
-0.00229493
0.00186437
0.000430727
0.00157746
-0.00312908
0.00155265
0.0051738
-0.00328913
-0.00184364
0.00247818
0.00579054
-0.00717887
0.00364574
0.00519905
-0.00249135
-0.00270473
-0.00505363
0.00294555
0.00283853
0.00429116
-0.00442758
0.00140227
0.00302806
-0.00449611
0.0030388
0.00241123
-0.00105909
-0.00135209
-0.000886646
0.00278594
0.00241575
0.00151419
0.00160745
-0.00335497
0.00204936
0.00150729
-0.000671307
-0.000594152
0.00126546
0.00119598
-0.000929173
0.00162423
-0.00171248
0.00346812
-0.000824293
-0.0015857
0.00131678
-0.000683371
0.00132845
0.00156883
-0.00348773
0.00145863
-0.00100513
-0.00297946
0.00492891
-0.00194941
-0.00431406
-0.00170353
0.0013151
-0.00503847
0.00374395
0.00462094
-0.00299788
-0.00158554
0.0011491
0.00156063
-0.00270953
0.00169888
0.00159867
-0.00329724
-0.00652074
0.00160718
0.00496253
-0.00696879
0.0050592
-0.00376453
-0.00109287
0.00434566
-0.00235272
-0.00199103
0.0018891
0.0046508
-0.00653184
-0.00125302
-0.00447722
0.00582445
0.000369295
-0.000115302
0.00171145
-0.00739081
-0.00462299
-0.00149036
0.00530653
0.00161659
-0.00688333
-0.00155682
-0.00253547
0.00409752
0.000120981
0.00297764
-0.0013992
-0.00170635
-0.00143626
-0.00550053
0.00833996
-0.00275259
-0.00458665
-0.00117654
0.00149979
-0.000567122
-0.000932663
-0.000990064
0.00128776
-0.000194392
0.0021135
0.00277846
-0.00488038
-0.00516308
0.00391566
-0.00260254
-0.00197423
0.00310184
-0.0011199
-0.00198088
0.00387899
-0.00511938
0.0012446
0.00112363
-0.00219591
-0.00568039
0.00503469
0.000670657
-0.00439641
-0.00157967
0.000608778
0.00107462
-0.00209322
-0.000791255
-0.00050178
0.00415391
0.00128028
-0.0053275
0.00538797
0.00150815
-0.00681141
0.00269817
0.00250511
0.00198071
-0.00628468
0.0044084
0.00111802
-0.00180737
0.000689377
1.15628e-05
0.00158271
0.00508002
0.00212725
-0.00720398
-0.00475932
0.00339828
0.00178205
-0.000746468
-0.00103556
-0.00114407
0.00453925
-0.00143986
0.0012035
0.00023636
-0.00360111
0.00441893
-0.000700378
-0.00162585
0.00232682
-0.000258912
0.000762208
0.00529951
-0.00168449
-0.00356038
0.000843171
0.00093889
-0.00020937
-0.00133417
-0.00191802
0.00180313
0.00011498
2.49092e-05
2.27359e-05
-3.11186e-05
5.69252e-06
-0.00079512
0.00686747
-0.00182433
-0.000470434
0.00659716
-0.00125258
-0.00109417
-0.000431373
0.00159284
0.00259663
-0.00147551
-0.00112081
0.00153352
-0.0038291
-0.003751
-0.00336131
-0.00232851
0.000749101
-0.00017181
-0.00124577
0.00141759
0.00156124
0.000607014
8.28159e-05
-0.000977582
-0.000157745
-0.000736065
0.000893811
-4.45067e-05
-4.9666e-05
0.000112784
0.00105582
-0.00267887
-0.00322534
-0.00472273
0.00164959
0.00369913
0.000494241
-0.00176806
0.00129081
-7.64404e-05
8.48208e-05
-0.00293333
-0.00149131
-0.00146975
-0.00415724
0.00137559
0.000632028
-0.000246324
-3.08948e-05
0.000755884
-0.000290925
-0.00120144
-0.00112699
-0.00394799
-0.000996486
0.00508571
0.00332846
-0.00189532
-0.00143231
-0.00688118
0.00152905
0.000452839
-0.00147697
-0.000113208
0.000273098
-0.00336234
0.000888433
-0.00214593
0.0017936
0.000352415
-0.000880223
-0.000559633
-0.00177062
-0.001572
0.00243354
-0.00398534
-0.00247115
0.00169897
0.000772327
-0.00130128
0.000677461
0.0013104
0.00277406
-0.001586
0.00276509
-0.00117895
-0.00026934
0.000652274
0.00205672
-0.00268647
0.000630065
0.00606251
-0.00398365
-0.00192563
0.00113585
-0.00583803
0.00135486
0.00746577
-0.00581082
0.000273708
0.00587848
-0.00657769
0.00334769
0.000766917
-0.00411139
-0.00051926
-0.000966407
0.0014857
0.000222361
-0.00039261
0.000275068
-0.00254694
-0.00156353
0.00694668
-0.00425816
-0.00261195
1.44219e-06
-5.22063e-05
-0.00138322
0.000606477
-0.00241516
-0.00286152
0.00527856
-0.00610388
0.00407846
0.00208509
0.00160962
0.00137269
0.00315663
0.00157215
0.00343879
-0.00495752
-5.58586e-05
1.89369e-05
-0.000732519
-0.000650697
-0.00655441
0.00277779
0.00711634
0.00130902
-0.00125681
-0.00285286
-0.00319412
0.00104507
-0.00185139
9.07226e-05
-7.89799e-05
0.00113964
-0.00265691
0.0015177
0.0001812
0.000237424
-0.000269206
-0.000427571
-0.00244418
0.00305698
0.00274408
0.00132991
0.000993816
0.000574499
-0.00115225
0.000577746
-0.00193859
2.06518e-05
0.00514476
0.00156871
-0.00670708
-0.00111238
0.00262697
0.000947441
-0.00440368
0.00291497
0.00475052
0.000580488
0.000919311
-0.00205611
0.00163269
0.000423481
-0.00179184
-0.00421735
-0.00490894
0.00432771
0.0025297
0.00497272
0.000496733
-0.000192239
-0.000410463
0.0052771
-0.00477413
9.68564e-05
0.000111851
0.00320188
-0.00146827
-0.00173266
-0.00413153
0.00546229
-0.00131973
0.00135924
0.00105204
0.0039563
-0.00060549
-0.00132167
-0.00490552
0.00623153
-0.00148599
0.00318516
0.0048077
-0.00650658
0.0042927
-0.00215056
-0.00213885
-0.00291643
0.00154916
0.000679137
0.00372609
-0.0024023
-0.00367348
0.0061044
0.000113779
-1.75576e-05
-0.00278196
0.00253317
0.00019028
0.000451437
-0.000102103
0.000294815
0.0015317
0.00312404
-0.000857599
1.18805e-05
0.00117332
-0.00081416
0.000656415
0.00216952
-0.00412349
0.0019566
-0.000198319
-0.000786607
0.00119285
-0.00137804
-0.00119029
0.000517934
-0.000213864
-0.000547208
-0.00117705
0.00508059
-0.00363795
0.00572262
-0.00448639
0.000953015
0.000505617
-0.00107555
0.00282766
-0.00175115
-0.00269469
-0.000958781
0.00544745
-0.0059133
0.000513382
-0.000498858
0.00169102
-0.00116883
-0.00129968
-0.00417458
0.00557011
-0.00478776
0.00482896
-1.66495e-05
-0.00299705
0.00312358
-0.000123259
0.00489839
0.00131826
-0.00609828
-0.00130308
0.000738434
0.000564646
-0.00488277
0.000779878
0.00410919
0.00501132
0.00181023
-0.00681432
0.000917847
-0.00360789
-0.00595284
0.00357801
-0.00110655
0.000934744
0.00492345
-0.00358835
-3.16735e-05
0.000582098
-0.000391035
0.00415939
-0.00131514
0.000519577
0.00208481
0.000912373
0.0039212
0.0010268
-0.00128848
-0.00220286
0.00729571
-0.00508917
-0.000592694
0.00331867
0.00570956
-0.00110293
-0.00529481
0.00633445
0.00157386
-0.00100258
0.00363039
-0.00261911
0.00370322
-0.00557755
0.000817624
-0.00236862
0.00449291
0.00203776
-0.00175763
-0.00598458
0.00149599
-0.00289593
-0.00129587
0.0034676
0.00136284
-0.0067569
0.000131451
0.00395409
-0.000421903
0.000547517
0.00113476
-0.00412691
-0.00571598
0.00101686
-0.00110359
0.00550837
-0.00438878
0.00548437
-0.00355454
-0.00189013
0.000937816
-0.00138045
0.000442632
-0.000225938
0.000351409
-0.000121174
0.00504931
-0.00724868
0.000323128
-0.00521067
0.00706248
-0.00494191
-0.00210792
0.00457705
-0.00350146
-0.0010674
-0.0017724
-0.00028363
-0.000207852
0.000548235
0.00310973
-0.00132644
-0.00178248
-0.000410153
-0.0017357
-0.000171513
0.000130696
4.0818e-05
-0.00656835
0.00469507
0.0019791
0.00406271
0.000116621
-0.000653952
-0.00665754
0.00344501
0.00334008
0.000403781
0.00610313
-0.00642839
0.00215755
-0.00647363
0.00433366
0.00391443
-0.00265297
-0.000708959
0.00263606
0.0032089
0.000896457
-0.00397079
-0.00213209
0.00081259
0.00131956
-0.00414233
0.00214708
-0.00093034
0.00360484
-0.00130639
0.00238506
0.00507721
-0.00240091
0.00170113
-0.00544166
0.00189282
-0.00120305
0.00144406
-0.000153205
0.00180964
-0.00288419
0.00207984
0.00150591
-0.00358459
0.00208283
-0.00337658
-0.00120089
-0.00304683
0.00433759
-0.00368853
-0.00116064
0.00387214
-0.00420617
0.00115391
-0.00635292
0.00202962
-0.0013205
-0.00380452
0.00519295
0.00206975
-0.00368557
-0.000947721
0.00596101
-0.00108863
-0.00395111
0.00515796
-0.0028179
0.000185725
-0.00256653
0.00488704
0.00140876
-0.00627892
0.00511739
-0.00176059
-0.0034489
-0.00257489
0.000696232
-0.00418932
0.00464927
0.0010834
0.006479
0.00220128
-0.000941616
-0.00125953
-0.00358861
0.00528798
-0.0010153
0.00610183
-0.00505168
-0.000252278
0.000295877
0.00028018
0.000327597
-0.000490885
-0.00539862
-0.000879712
0.00633019
-0.00136761
-0.00424086
0.00562304
0.0050176
-0.001135
0.00297719
-0.00409056
0.000479323
-0.00162685
0.00115728
0.00557499
-0.00695843
0.00145079
0.00255032
-0.00577078
0.00475039
0.00230118
-0.00389226
0.00129419
-0.000211081
0.00249436
-0.00166821
0.00108093
0.00109753
-0.00217838
0.00632902
-0.00142633
6.04082e-05
-0.000225495
0.00131556
-0.00110564
0.00331084
-0.005853
0.00256268
-0.000846418
0.00551826
-0.00416492
0.00459164
-0.00666869
0.00208946
0.00777349
-0.00556566
-0.00216359
0.00137981
0.00365017
-0.00492839
-0.002024
-0.00443452
-0.00152478
0.000445576
0.00107921
0.00291943
0.00160195
-0.00451575
0.00633465
-0.00118379
-0.00300621
0.00526065
-0.00309178
-0.00342693
0.00340252
-0.00131757
8.37332e-06
-6.5077e-05
0.00431801
0.00159527
-0.00587404
-0.00199066
0.00663015
-0.00463033
4.38985e-05
5.0694e-05
-0.00224017
0.00159089
-0.0049645
0.00338549
0.00652257
-0.00191895
0.00110343
-0.00276292
-0.0075107
0.00562332
0.00190236
-0.00246187
-0.00034748
0.00289753
-0.000611822
0.000122993
0.000605783
0.00209372
0.00212178
0.00429186
0.0056002
0.00123113
-0.00676198
0.00640548
-0.00472238
-0.00165739
0.00519904
0.00146112
-0.00657452
0.00306302
-0.000365418
-0.00202651
-0.00616919
0.00302895
0.00314282
-0.00510876
0.00651665
0.000920844
-0.00121323
0.000292384
-0.00057128
-0.00148785
-0.00509191
0.00659148
0.00153539
0.00266532
-0.00475358
0.00103321
0.00737763
-0.00583635
0.00290283
0.000230425
-0.002958
0.00150526
0.00323079
-0.00468471
-0.00786713
0.0032058
0.0047501
-0.00574056
0.00452027
0.00124716
0.000939344
0.00405915
-0.00094464
-0.00421403
0.00527448
-0.0044367
0.00421974
0.00679529
0.00192849
-0.000830739
-0.0010977
-0.00462036
-0.00169725
-0.00395736
0.00262522
0.00133554
0.00233951
-0.00398177
0.00164371
-0.00133944
-0.00386629
0.0053019
0.00204079
0.00341831
-0.00147131
0.0048013
0.00186467
-0.00572267
0.00391092
-0.00504408
0.00242212
0.00262969
0.00178943
-0.00130928
-0.00144768
0.000628525
0.00170344
0.00149924
-0.000405602
0.00139581
-0.000980648
0.00548632
-0.00416728
0.00450361
-0.00589141
-0.000413738
-0.00590286
-0.00157275
0.00721392
-0.00240173
0.00299959
0.000240394
-0.00306621
-0.00508014
-0.00423364
-0.00146266
-0.00270531
0.000956375
0.00175313
-0.00220078
0.00731698
-0.00509017
0.00649861
-0.00450354
-0.0018789
0.00148443
-0.00204935
0.00558528
0.00361976
-0.000438785
-0.00259945
0.00121588
-0.00485255
0.00714909
-0.00227059
0.00255809
-0.000924911
-0.00315018
0.00420359
-0.00292631
0.0017055
-0.000435146
-0.00124345
0.00557873
-0.00708681
0.000736978
0.000727569
-1.16384e-05
-0.00048489
0.00430335
0.00109635
-0.0025805
0.00120291
-0.000677138
0.000496487
0.00123209
-0.00161199
-0.00555236
0.00717651
0.00113698
0.00106442
0.00169657
0.00279125
-0.0044396
0.00816467
-0.00625337
-0.00186314
0.00679086
0.000782091
-0.00587679
0.00535379
0.000707913
0.00128443
0.00131245
-0.00347325
-0.00211707
0.00564146
0.000760788
-0.00143209
-0.00461048
0.00655334
-0.00200771
0.00379693
-0.00178893
0.00450155
0.00107531
-0.0013889
0.000346241
0.00083554
0.00113298
-0.000862818
0.00034712
5.81574e-05
-0.00027968
-0.000993153
-0.000586501
-0.00683031
0.00197254
0.0048879
-0.000449076
0.00360174
-0.00298073
-0.00565694
-0.00166607
0.00733378
0.0042095
0.0048078
-0.00324961
0.00163445
0.00193662
-0.00626189
0.001531
-0.00203517
-0.00293527
0.00184706
-0.002782
0.000935473
0.0023499
0.00280594
-0.00516253
-0.00128749
0.000487693
0.000799798
-0.00183174
0.0067937
-0.00492188
0.00170869
0.00565184
0.000314103
-0.00581253
-0.000493141
0.00121905
-0.000725912
-0.000821514
-0.00590714
0.00547674
0.000470931
-0.00174382
0.00133589
-0.00549058
0.00406856
0.0014801
-0.000460389
-0.00125527
0.00132643
-0.00314502
0.0018724
0.00137759
0.00289147
-0.00420493
0.0065658
-0.00473788
-0.00170769
0.00257512
-0.00418456
0.00161467
0.000147696
-0.00126422
-0.00477561
-0.00202343
-0.00282481
0.00172918
0.00109626
-0.0024262
0.00106192
0.00136433
-0.000998596
0.0020796
-0.00129722
-0.00128279
0.00536894
-0.000911263
0.00175689
0.000742774
0.00514808
-0.00573414
-0.00220754
0.00126606
-0.00456641
0.0064637
-0.000539608
-0.00253243
0.000797588
0.00178381
0.00332106
-0.00182367
0.000842025
0.00135756
0.00501228
0.00190592
-0.00684739
-0.00187844
-0.000607415
0.001439
-0.00187897
0.00442761
-0.00574744
0.00148558
0.00218149
0.00211429
-0.00346053
0.00318405
-0.000805724
-0.000393849
0.00119957
0.00136458
0.00388569
0.00101305
-0.00475284
-0.00103097
-0.000493796
0.00032437
0.00547442
0.004531
-0.00434011
-0.00590126
0.00154098
-0.00142354
0.000691027
0.00466766
-0.00187926
-0.000188837
6.62605e-05
0.000178415
-0.00368031
0.00438024
-0.00540376
0.0011212
0.00129316
-0.00204893
0.000798
0.00125098
0.00485539
-0.00531895
0.0027037
0.00261619
0.00500861
-0.000680579
0.0034914
0.0030417
-0.00533566
0.00187092
0.00221296
-0.00402875
0.00540663
-0.00220835
-0.00560971
-0.00188412
-0.00466711
-0.000997931
-0.000728421
-0.000572857
-0.00567814
-0.000142999
0.00585609
0.000251665
0.000615777
0.0028788
0.00532427
-0.00045571
-0.004688
0.00528624
-0.00442536
0.00250507
-0.0013916
-0.00111313
0.00376271
-0.00204057
0.000641143
-0.00476179
-0.000489399
-0.000825738
0.000562242
-0.00136796
-0.00739175
0.00179984
0.0010971
0.00140829
0.00275095
-0.00423558
0.00129319
-0.00079998
-0.000493212
0.0021394
-0.00371597
-0.00180676
0.00287476
-0.00106786
0.0018612
0.00398347
-0.00139812
0.00283795
0.0021907
-0.00500648
-7.88593e-05
-0.00280988
0.00288902
0.00177036
-0.000747229
-0.00102309
-0.000419766
0.00171515
-0.00127426
-0.00684254
-0.000239816
0.00135794
0.00387955
-0.00471991
0.00171769
0.0016674
-0.00672959
-0.00518612
0.00176273
0.00215064
-0.00358761
0.00143769
-0.00105826
0.00088752
0.000170739
0.00406579
0.00150092
-0.000668151
0.00134561
-1.91608e-05
5.92256e-05
0.00195914
-0.000272737
-0.00164092
-0.00222042
-0.000958497
-0.000729088
0.00168761
-0.00484927
-0.000863563
-6.67738e-05
4.09072e-05
-0.00329278
-0.00148565
0.00542262
-0.00646978
0.00113053
0.00456272
-0.00434285
0.00651846
-0.00712002
0.00488395
0.00225272
-0.0056672
-0.00209703
-0.00701338
0.00133785
-0.00173675
-0.00297718
0.00383496
-0.000833676
-0.00654852
-0.00613082
0.000486304
-0.00056625
0.0013621
-0.000795852
-0.000264796
0.00575595
-0.0061944
0.00161015
-0.00167569
-3.63577e-05
0.00172515
-0.000688694
-0.00184173
0.000340218
0.00169697
-0.00155436
0.00597245
0.0056601
-0.00601934
0.000396198
-0.000270324
0.00529727
-0.00118627
0.0017063
-0.00128845
0.00198246
0.00353726
-0.00110209
0.00677427
-0.00561381
0.00335953
-0.00184907
-0.00150933
-0.000862895
0.0057621
-9.41405e-08
-0.000170316
0.00253229
-0.00320309
0.000671562
-0.00148228
-0.000920784
-0.0031166
0.00179093
-0.00116554
0.00275013
-0.00158432
-0.00371765
0.00272361
-0.00160535
-0.00129998
-0.00104167
0.00137315
-0.000331465
-0.000159901
0.000645225
0.00161039
0.00145368
0.000545482
-0.0038979
0.00154708
-0.00200027
0.00332272
0.00187511
0.00476211
-0.00454295
0.00102316
0.00352912
0.00345812
-0.00509212
0.00136172
0.00339234
-0.00474464
0.00452631
0.00455849
-0.00688441
0.00162937
0.00109015
0.00249663
-0.00415224
0.00165899
0.00353219
-0.00145128
-0.000864529
-0.0015928
0.00245741
0.000555555
-0.00244527
0.000986669
0.00145889
0.00411573
-0.00189301
0.00697399
-0.00556201
0.00603061
-0.00043348
0.000517186
-0.00346951
-0.000368696
-0.00106856
0.00146819
0.00288491
0.000910567
-0.00366471
-0.00181311
0.000813491
0.000956896
-0.000902953
-0.00293353
0.00400328
0.00662927
-0.00462774
0.00406184
0.00495656
0.00687911
-0.00378553
-0.00303265
0.00150943
-0.00393639
0.00111884
-0.00246942
0.00135109
0.00527264
0.00546688
-0.00120823
-0.00232382
-0.00384194
-0.00172663
6.31431e-05
-0.00215459
-0.00478546
-0.000862701
-0.000424784
-0.0063854
0.00506596
0.00136361
0.00606276
-0.00441555
-0.00147824
0.00301038
-0.00495963
0.00382641
0.00213198
0.00452422
0.000411851
-0.00145352
0.000726943
0.00247397
-0.00645792