/*--------------------------------*- C++ -*----------------------------------*\
| =========                 |                                                 |
| \\      /  F ield         | OpenFOAM: The Open Source CFD Toolbox           |
|  \\    /   O peration     | Version:  v2012                                 |
|   \\  /    A nd           | Website:  www.openfoam.com                      |
|    \\/     M anipulation  |                                                 |
\*---------------------------------------------------------------------------*/
FoamFile
{
    version     2.0;
    format      ascii;
    class       volScalarField;
    location    "50";
    object      nut;
}
// * * * * * * * * * * * * * * * * * * * * * * * * * * * * * * * * * * * * * //

dimensions      [0 2 -1 0 0 0 0];


internalField   nonuniform List<scalar> 
13917
(
0.00272619
0.00279522
0.000586886
0.00533901
0.00575692
0.00333521
0.0037018
0.00131523
0.00409492
0.000263214
0.00243977
0.00684056
0.00409534
0.0171524
0.00560435
0.001736
0.00704866
0.00256036
0.00152115
0.00251531
0.00164239
0.00684147
0.00296844
0.00684019
0.00438684
0.00155553
0.0076921
0.000196783
0.00168769
0.00652046
0.00016326
0.00309299
0.0058154
0.00877564
0.00685231
0.00481985
0.00464195
0.00692455
0.00320668
0.00124538
0.00694305
0.00691035
0.00368539
0.00179495
0.00164784
0.0101289
0.00169774
0.00973561
0.0149607
0.00684798
0.00684279
0.00155206
0.000354036
0.0068502
0.00684763
0.00153088
3.48894e-05
0.00328405
0.00691871
0.0110431
0.0171134
0.0063818
0.00673133
0.00429267
0.0133423
0.00647839
0.00191947
0.00369398
0.00239075
0.00224889
0.0111139
0.00755645
0.0068287
0.00691388
0.00150274
0.00397342
0.00646823
0.00689548
0.00399473
0.00636054
0.00678079
0.00703836
0.0068267
0.00951222
0.00671317
0.00218033
0.00319927
0.00675407
0.00125785
0.00702131
0.00672417
0.00351218
0.0150837
0.00686551
0.00679245
0.00187334
0.0014612
0.00689455
0.00674514
0.00102348
0.0068333
0.00681511
0.00677318
0.00681527
0.00646152
0.00569489
0.0102071
0.00606281
0.00688803
0.0098151
0.00673586
0.00945965
0.00166952
0.00882942
0.0131314
0.00326092
0.00161655
0.00677699
0.000972077
0.0068001
0.0070049
0.00688113
0.00207561
0.00206738
0.00257363
0.00961424
0.00454627
0.00144534
0.0068367
0.00177003
0.00521961
0.00703414
0.0111813
0.00369702
0.00246802
0.00829681
0.0170782
0.00274912
0.00153255
0.00691769
0.00573993
0.00688581
0.00535125
0.0067784
0.0068197
0.00675867
0.0108275
0.0140862
0.00827607
0.00685021
0.0014324
0.00678437
0.00681386
0.00679998
0.00226347
0.0067297
0.00680954
0.0111226
0.00695576
0.00683549
0.00672958
0.0157243
0.00436062
0.00546851
0.0145948
0.0010486
0.000117866
0.0143189
0.00665519
0.00154727
0.00682877
0.0119379
0.00401038
0.0164314
0.00150499
0.00685964
0.00574341
0.00114784
0.00517533
0.00418434
0.0038104
0.00683401
0.00684379
0.00320746
0.00090874
0.00710925
0.00684465
0.00357695
0.00651005
0.00211605
0.00130142
0.00184906
0.0011193
0.00301188
0.00686189
0.00274046
0.00297888
0.0107986
0.00685198
0.00677067
0.00193031
0.0023228
0.00190266
0.00605612
0.0118981
0.00227168
0.00133175
0.006891
0.00125171
0.00678132
0.00675889
0.00518738
0.00435209
0.00929638
0.00254908
0.001511
0.0142884
0.00686423
0.00662375
0.00661353
0.0144886
0.000302616
0.00778281
0.00672339
0.00673594
0.00945571
0.00198204
0.00661162
0.0066116
0.00694729
0.00662486
0.00661838
0.00661608
0.0116944
0.00683662
0.00665389
0.0025469
0.0062543
0.00698967
0.00672325
0.0112288
0.00519536
0.000565014
0.0140383
0.00117586
0.0067783
0.0138671
0.00256865
0.00161708
0.00222536
0.00627546
0.0107392
0.00680791
0.00149875
0.00155495
0.00682881
0.0069313
0.00434913
0.00615895
0.00690425
0.00519846
0.0102244
0.00689877
0.00662628
0.00671809
0.00663156
0.00680748
0.00688797
0.00247664
0.00691018
0.00427752
0.0112377
0.00683003
0.00637208
0.0154172
0.00662239
0.00104412
0.00676972
0.00661901
0.00377013
0.0069047
0.0158964
0.00686274
0.00595438
0.00682214
0.0067807
0.00101278
0.0069166
0.00129381
0.00221999
0.0100434
0.00666436
0.00941623
0.00251466
0.00684288
0.0023112
0.00610038
0.00345788
0.00600779
0.0041395
0.00687358
0.00691358
0.000993059
0.0056487
0.00142482
0.00420257
0.00672295
0.0110254
0.00132918
0.00683002
0.00684925
0.00348022
0.00915517
0.00154939
0.0109971
0.0173096
0.00647011
0.00235234
0.00640733
0.00909326
0.00956214
0.000755269
0.00687744
0.00567864
0.00887402
0.00678604
0.00281168
0.00178851
0.00702232
0.0120097
0.00671824
0.00463597
0.00657624
0.000403755
0.0067128
0.00162262
0.00195354
0.0064748
0.00695983
0.00229007
0.00554924
0.00680776
0.00678699
0.010679
0.0053464
0.015507
0.0183072
0.00660825
0.00683468
0.00513599
0.00308389
0.00660194
0.00603357
0.0068456
0.00125526
0.00152651
0.00157604
0.000767274
0.00116458
0.00469511
0.00709204
0.00684156
0.00680388
0.00473674
0.000551299
0.00702395
0.00220019
0.00471347
0.00923768
0.00684519
0.000686524
0.00687795
0.0129667
0.00683474
0.00678201
0.014253
0.00193466
0.00683603
0.00981391
0.0066262
0.0141129
0.000251314
0.00681001
0.0150057
0.00677919
0.00816028
0.00672867
0.00327615
0.00744081
0.00442506
0.01123
0.00112733
0.00662712
0.0153592
0.000937921
0.00508089
0.00098771
0.00683917
0.00117612
0.000674518
0.00672104
0.00406222
0.00428262
0.00676935
0.00671436
0.006844
0.014327
0.00109709
0.00682845
0.00684636
0.00684532
0.0021717
0.0113428
0.00655569
0.00665782
0.0015696
0.000887041
0.00678808
0.00537094
0.0166062
0.00201528
0.00646925
0.00149643
0.00782677
0.00664524
0.00658331
0.00198146
0.00671302
0.00654978
0.00682877
0.00657981
0.00662927
0.0141422
0.00683692
0.00119759
0.00521898
0.00270778
0.00676586
0.00680902
0.0167928
0.00195477
0.00177463
0.00656508
0.00674045
0.00666529
0.00662544
0.00481523
0.0067535
0.0173364
0.00731961
0.00578998
0.00674085
0.00476354
0.00633917
0.0067937
0.0013435
0.0166191
0.00684844
0.00312279
0.00677369
0.00675845
0.00684022
0.00677348
0.00674603
0.0067964
0.0112453
0.0168968
0.00674038
0.011603
0.00159644
0.00680512
0.00227246
0.00279736
0.0147859
0.00392771
0.00611726
0.00642474
0.00720081
0.00674873
0.00648109
0.00612387
0.00657539
0.0141268
0.00676371
0.0068506
0.00679011
0.00451165
0.00156231
0.00101798
0.00324195
0.00651745
0.00627288
0.00239849
0.000897003
0.00682883
0.0175556
0.0030657
0.00225875
0.0142628
0.00671369
0.000837284
0.000517474
0.00671163
0.0108545
0.00676758
0.00662234
0.00209071
0.00656439
0.00683846
0.00111084
0.0106124
0.0103015
0.00672638
0.00505064
0.0068748
0.0138983
0.0208475
0.00684099
0.00684917
0.00672111
0.0016989
0.00983692
0.00684604
0.00699356
0.00677694
0.00676082
0.006038
0.00262309
0.00680757
0.00312586
0.00671197
0.00684861
0.00450258
0.0102427
0.00673577
0.00439614
0.00689065
0.00377053
0.00225072
0.00156697
0.00159064
0.00078776
0.00452768
0.00223246
0.0106495
0.0144189
0.00672443
0.00682068
0.00683792
0.00654089
0.00678604
0.0130179
0.00662255
0.0128615
0.00285464
0.0108601
0.00116232
0.00414901
0.000698851
0.00674017
0.00324723
0.00689069
0.00696551
0.0113352
0.00655676
0.000873032
0.0067712
0.00684232
0.00684244
0.00103836
0.00596689
0.00665484
0.00167441
0.00237305
0.0160549
0.0096299
0.0105961
0.0154809
0.00673158
0.00214832
0.00673217
0.0175658
0.0144754
0.0068264
0.00695549
0.00681567
0.00284535
0.00388229
0.00654799
0.00688952
0.00688171
0.00898876
0.00673577
0.00339978
0.00684822
0.00665238
0.00695339
0.00725381
0.0134711
0.000638045
0.00217349
0.00269205
0.00983019
0.00687702
0.00673757
0.0155521
0.00687347
0.00201498
0.00678767
0.00904155
0.00675629
0.00599784
0.00682445
0.0162774
0.00268033
0.0139688
0.00683481
0.00249265
0.00684613
0.00680712
0.00798599
0.00122594
0.0068214
0.00139419
0.00672278
0.00694148
0.00678774
0.0094241
0.00673483
0.00611433
0.00662294
0.006842
0.000588623
0.00678572
0.00156942
0.00701171
0.00671235
0.017765
0.00330359
0.00684404
0.000310436
0.00090474
0.0057619
0.000281233
0.00673512
0.00541369
0.00894475
0.000832721
0.00206533
0.00480086
0.00596945
0.00699635
0.00683468
0.00645207
0.00236226
0.00310188
0.0144788
0.00251866
0.0178365
0.0212633
0.00576968
0.00188467
0.00118689
0.00471307
0.00687236
0.00556584
0.00643276
0.00671254
0.00686271
0.00695514
0.00674892
0.00683666
0.00225183
0.00526594
0.00676319
0.00200177
0.00682567
0.0119751
0.0069193
0.00683948
0.0107481
0.0026611
0.0136862
0.00683256
0.00674306
0.00684374
0.00588837
0.00324155
0.00678829
0.00213656
0.00194868
0.0148194
0.0157736
0.00544058
0.0104276
0.00509663
0.00690808
0.00684147
0.00757833
0.0112356
0.00278321
0.00222975
0.0149105
0.00671458
0.00683602
0.00504897
0.00606411
0.0199348
0.00252901
0.0060063
0.0041339
0.00184579
0.00649373
0.00160695
0.00524309
0.00680206
0.00515694
0.00689164
0.00335532
0.00627264
0.000848186
0.00329111
0.00686861
0.0022056
0.00639139
0.0147841
0.00474503
0.00376434
0.00312174
0.000872606
0.00701637
0.00343433
0.0134157
0.00631992
0.00679053
0.00335873
0.00686759
0.00675596
0.00681737
0.0040585
0.00716733
0.0057945
0.00154561
0.00673064
0.000783459
0.00379569
0.0040384
0.00135869
0.00682613
0.00325706
0.00172628
0.00670335
0.00256481
0.00108093
0.00528583
0.00679961
0.00675158
0.00683651
0.00158927
0.00569888
0.00694845
0.00469276
0.00679403
0.00678366
0.00159533
0.0012128
0.00386185
0.00227004
0.00119841
0.00496543
0.00681534
0.00639006
0.00769239
0.00682372
0.00580352
0.00696948
0.00686087
0.00683705
0.00318931
0.00145235
0.0067999
0.00681377
0.00679913
0.0147265
0.00435622
0.00408402
0.00658359
0.0024629
0.00587977
0.0168383
0.00352363
0.00708077
0.0104648
0.00540093
0.00453225
0.00393231
0.00365117
0.00656968
0.00680448
0.00678299
0.0125748
0.00332295
0.00702659
0.00192921
0.00675122
0.00525188
0.00665106
0.00640431
0.0072185
0.00664891
0.0143503
0.00416615
0.00331091
0.00167596
0.0056146
0.00674697
0.00685232
0.000693681
0.00673483
0.00684989
0.00532765
0.00683766
0.00468245
0.00674717
0.00215693
0.00680367
0.0023956
0.00431923
0.00826391
0.00578938
0.00361042
0.00161654
0.00903739
0.00670964
0.00693728
0.00682471
0.00570251
0.00672375
0.00339478
0.00675817
0.0118942
0.00685082
0.00579328
0.00596289
0.00502349
0.00070403
0.00683443
0.0012462
0.00501947
0.00686713
0.00361608
0.00661658
0.00993334
0.00262733
0.00654723
0.00683267
0.00674229
0.00681358
0.00679458
0.0149035
0.0067125
0.00114619
0.00674944
0.00747041
0.00607509
0.00676912
0.00333867
0.00637274
0.0067151
0.0179602
0.0135542
0.00639999
0.00231894
0.00674051
0.00122805
0.0067169
0.00678859
0.00556023
0.00691835
0.00542597
0.00193486
0.00460357
0.00677566
0.0105829
0.00930068
0.0068704
0.00668529
0.00684085
0.00733042
0.00673933
0.0015874
0.00684393
0.0109083
0.00596221
0.021929
0.00684099
0.00656476
0.00692168
0.00686264
0.0064327
0.0100679
0.00637869
0.00671979
0.0103234
0.00687057
0.00696206
0.00225094
0.00545351
0.0132717
0.00123657
0.00281487
0.0001019
0.00454046
0.0112062
0.00676841
0.002548
0.00674614
0.00559528
0.00672012
0.00682965
0.00672155
0.00691953
0.00683949
0.00666317
0.00675753
0.006895
0.00677462
0.00245632
0.00669858
0.00660578
0.00272863
0.014603
0.0167119
0.00212709
0.00681342
0.00736949
0.00674416
0.00667938
0.00933965
9.91323e-05
0.00659426
0.00671125
0.00676378
0.00684593
0.00659027
0.0066668
0.00674404
0.00183025
0.00672007
0.00165052
0.010615
0.0067397
0.0124619
0.00674822
0.00684056
0.00592128
0.0101289
0.000837453
0.0068806
0.0131866
0.00685273
0.00684129
0.000784545
0.00697031
0.00188372
0.00564973
0.00255132
0.00676462
0.00690677
0.00197748
0.00404558
0.00510452
0.00826994
0.0060826
0.00694459
0.00664088
0.00674651
0.00674573
0.00223107
0.0053429
0.00309863
0.00885502
0.00294541
0.00382115
0.00208715
0.00688567
0.00791358
0.00688779
0.0193052
0.00166993
0.00384089
0.00516081
0.0208221
0.0101285
0.00137163
0.00683838
0.0144923
0.00666864
0.00675754
0.00522952
0.00681002
0.00684239
0.0102016
0.00406435
0.0069065
0.00384795
0.0059965
0.0067653
0.00658316
0.0111061
0.0137721
0.00596692
0.00673981
0.00359427
0.00680713
0.00684154
0.00381719
0.00585473
0.00681549
0.0151617
0.00684957
0.00241424
0.00784474
0.00625307
0.00591613
0.00683248
0.00647549
0.00760864
0.00467486
0.00804353
0.00691626
0.0018687
0.00586653
0.00492852
0.00677205
0.016561
0.00646656
0.00675666
0.0036254
0.00677322
0.00631657
0.00216378
0.0017186
0.00347583
0.0112936
0.0215918
0.0158532
0.0121485
0.00692856
0.0101404
0.00658837
0.00156213
0.00243425
0.00835562
0.00365462
0.00691987
0.0031246
0.0173349
0.00662356
0.0149689
0.00230733
0.00115141
0.0148367
0.00686162
0.00206944
0.00486147
0.00684713
0.00582443
0.00270694
0.00651581
0.00672613
0.00509055
0.00300845
0.00672357
0.00639553
0.00424743
0.00676667
0.00684059
0.0007436
0.00301221
0.00675537
0.00682734
0.00218856
0.00751155
0.00344983
0.0113095
0.00683325
0.00674287
0.00878659
0.00693937
0.00614707
0.0124226
0.00654815
0.00470689
0.00141441
0.00378579
0.00133033
0.00138546
0.0017288
0.0106564
0.00684038
0.0025752
0.0135191
0.000905584
0.0124685
0.00815449
0.00659848
0.00684357
0.00688174
0.00684353
0.0068485
0.000821818
0.00691403
0.00231129
0.00669755
0.00361274
0.0169322
0.00528689
0.0142986
0.00256732
0.00674748
0.00275189
0.00596206
0.00581344
0.00675939
0.00746475
0.00265309
0.00499107
0.00235622
0.0165858
0.000959863
0.00672931
0.00769099
0.00243438
0.00689849
0.00677636
0.00952855
0.00676021
0.00320511
0.00153313
0.00610833
0.00576184
0.00344276
0.0217234
0.00673206
0.00427855
0.00263813
0.00685062
0.00674077
0.00670073
0.000824023
0.00822177
0.00678969
0.00483193
0.00680871
0.00653079
0.00177754
0.00684045
0.00671965
0.00659331
0.00674565
0.00692898
0.0055963
0.00131279
0.00678251
0.0039131
0.000801567
0.00687434
0.00224191
0.0142548
0.0161051
0.00683015
0.00680881
0.00671422
0.00670225
0.00299317
0.0093973
0.00665998
0.000683419
0.00207523
0.00395196
0.00405201
0.00671368
0.00338136
0.00171779
0.00685391
0.00153334
0.00680449
0.00675509
0.00682905
0.0118867
0.00235504
0.00150299
0.0151099
0.00105803
0.00683988
0.0142621
0.0069163
0.00671917
0.0135429
0.0151839
0.0068581
0.00447629
0.0017117
0.00154744
0.00563895
0.00674398
0.00674457
0.00676005
0.00674972
0.00245737
0.000987201
0.00362862
0.00147565
0.00329635
0.00458693
0.000928406
0.00682143
0.00152959
0.00624927
0.000955019
0.0113227
0.00668265
0.00671956
0.0061122
0.00673079
0.00810842
0.00467794
0.00112673
0.00683092
0.0067353
0.000127155
0.00303511
0.0067037
0.00673996
0.0170626
0.00394913
0.00658045
0.00682522
0.00684832
0.00966187
0.0068376
0.00668597
0.000712981
0.0140904
0.0025647
0.00292696
0.00606024
0.00400718
0.00672322
0.00650665
0.00551872
0.00669848
0.000961107
0.00672555
0.00675336
0.0122555
0.00357937
0.0195973
0.000890139
0.00671554
0.00396721
0.00678229
0.00683695
0.00662411
0.0068108
0.00684638
0.00104826
0.0068388
0.00253898
0.00591931
0.0062745
0.00681171
0.00679793
0.00683793
0.00748359
0.00649816
0.0145281
0.0029016
0.00684669
0.00381229
0.00331567
0.00370505
0.00684071
0.0064549
0.00674458
0.00675791
0.005788
0.00345765
0.00584806
0.00679676
0.0068492
0.00663351
0.00234334
0.00676933
0.0142602
0.00241961
0.00692038
0.0067216
0.00670328
0.00221865
0.00285102
0.00761631
0.00558081
0.00631527
0.00628213
0.00109369
0.00649511
0.0156951
0.00670284
0.00651901
0.00318809
0.0063819
0.00670733
0.0110609
0.00684713
0.0068255
0.00069254
0.0110224
0.00127984
0.00669562
0.00309055
0.00141644
0.00207162
0.00675382
0.0155924
0.00674808
0.00685501
0.0204919
0.00670292
0.0120421
0.00676924
0.00674562
0.0067815
0.0067573
0.01036
0.00695641
0.00674718
0.00252682
0.00671678
0.00677534
0.00677918
0.00675625
0.00442745
0.00683698
0.00649325
0.0067068
0.0088602
0.00309308
0.00670787
0.00670874
0.00608223
0.00672075
0.0040783
0.00680969
0.00693624
0.00683585
0.00674102
0.00673566
0.006828
0.00206517
0.0067091
0.00214245
0.0068415
0.00245387
0.00678038
0.00684738
0.00678171
0.00655135
0.00134848
0.00605713
0.00401078
0.0191878
0.00742134
0.0113759
0.0137665
0.00237006
0.00572177
0.00684751
0.00682112
0.00254515
0.0185732
0.0066528
0.00637048
0.0067346
0.00170371
0.0113972
0.00406692
0.00248225
0.00814047
0.0133665
0.00686113
0.00429641
0.00674388
0.0050362
0.00405002
0.0125882
0.0038577
0.00684482
0.00363781
0.00411263
0.00706783
0.014371
0.00635181
0.00508645
0.00671153
0.00638961
0.00699632
0.0067561
0.00472868
0.00682811
0.00135569
0.000777907
0.00684603
0.0067915
0.00164064
0.00683275
0.00674672
0.00575121
0.00672929
0.0141505
0.00564158
0.0032493
0.00858835
0.00674905
0.00121648
0.00682423
0.00640295
0.00166421
0.00516108
0.00676709
0.00352108
0.00680522
0.00684243
0.00422358
0.00683426
0.0137929
0.00609379
0.00673833
0.00673279
0.00629502
0.00671191
0.0151355
0.0167324
0.01345
0.00683881
0.00680461
0.00672854
0.0109209
0.00684467
0.00370846
0.00686517
0.00141625
0.00596034
0.00692546
0.000214727
0.00684869
0.00701684
0.00651686
0.00163873
0.0112301
0.00695459
0.0103813
0.00184377
0.00684486
0.00778586
0.00684477
0.00619362
0.0140678
0.00655497
0.00181842
0.00500452
0.00304099
0.00266331
0.00680196
0.00330154
0.00675062
0.0142026
0.00672587
0.00373314
0.00675172
0.00675124
0.00659051
0.0148414
0.00681351
0.00746028
0.000814256
0.00889835
0.00674657
0.00221021
0.0117501
0.00794312
0.0184333
0.00227685
0.00677888
0.00176878
0.00151545
0.00643641
0.0105128
0.00654076
0.00116472
0.00196011
0.00682617
0.00186095
0.00672181
0.00964863
0.0136323
0.00410813
0.0065782
0.0115122
0.0142514
0.00673646
0.00466013
0.00673694
0.00684699
0.0107966
0.00144824
0.000706016
0.00682866
0.00246401
0.0122892
0.00328965
0.00848148
0.00085247
0.00671303
0.00673943
0.00102131
0.0181512
0.0212675
0.0149659
0.00106541
0.00126934
0.00363814
0.0120524
0.0169901
0.0111347
0.00671165
0.00261862
0.00215379
0.00115759
0.00681419
0.00414855
0.00135396
0.00147209
0.0143198
0.006897
0.0153244
0.00838164
0.00155651
0.00673787
0.00674121
0.00505373
0.00682019
0.0109256
0.00238181
0.00695207
0.00535973
0.0056477
0.00670746
0.00234548
0.00313172
0.00682164
0.00977799
0.00671383
0.0100065
0.00684091
0.008997
0.00317349
0.000985254
0.00652152
0.00265037
0.00270327
0.00202754
0.00101453
0.00302678
0.0110485
0.0016735
0.00663611
0.00303949
0.00689204
0.00151186
0.00184948
0.00677389
0.00670479
0.00536533
0.0160645
0.00203134
0.00685555
0.00100614
0.00524676
0.0067165
0.0056867
0.00564254
0.0100775
0.00592047
0.00529888
0.00364765
0.00317998
0.00617721
0.00953273
0.00674072
0.00164375
0.0100096
0.00489478
0.00123971
0.00519624
0.00360918
0.0189326
0.0106552
0.00679964
0.010136
0.00172984
0.00669806
0.00156045
0.00255687
0.000578413
0.0135667
0.00557619
0.0135495
0.00178461
0.0122404
0.00259232
0.00314745
0.00669868
0.00683429
0.00683669
0.00673944
0.000197209
0.00171688
0.00650253
0.00267331
0.00112969
0.00673711
0.0138798
0.0137922
0.00652527
0.00684571
0.00670471
0.00673922
0.0044645
0.00675113
0.0148101
0.00336927
0.00223821
0.00604459
0.00108457
0.00371198
0.00481922
0.0182286
0.0068235
0.00672072
0.00654095
0.00683433
0.0114019
0.00218767
0.00240326
0.0173833
0.00683102
0.00681078
0.00254695
0.00675073
0.00689712
0.000747092
0.00321951
0.00685894
0.0185871
0.0193164
0.00679384
0.0140331
0.00674675
0.00023551
0.00670614
0.00135238
0.0214193
0.00676347
0.0145513
0.00576921
0.00188137
0.00681464
0.00683293
0.00239124
0.0146999
0.00672509
0.00683646
0.00690776
0.00691812
0.00105561
0.00684623
0.00301346
0.00671227
0.00691786
0.0101354
0.00240424
0.00657177
0.0015098
0.00443586
0.0128112
0.00630638
0.00688377
0.00675163
0.00908784
0.00682237
0.00262927
0.0068115
0.0101434
0.00673775
0.00680608
0.00457188
0.0163695
0.00673579
0.00676544
0.00671129
0.00143548
0.00153344
0.00139701
0.00673334
0.0064939
0.00672351
0.00817243
0.00673234
0.00864662
0.00365386
0.0068253
0.00656125
0.00470862
0.00647359
0.00508791
0.00669897
0.00208771
0.00184475
0.00043695
0.00683881
0.00682841
0.00674363
0.011235
0.00678334
0.00683991
0.0109079
0.00579269
0.00594636
0.0036085
0.00683343
0.00688725
0.0148308
0.00416687
0.00547725
0.00634643
0.00668047
0.00171556
0.00682935
0.00183988
0.0012163
0.00682185
0.00655508
0.00667848
0.00675109
0.0117508
0.0042553
0.00722631
0.0131196
0.00674909
0.00763341
0.0012838
0.00488887
0.00676695
0.00505546
0.0111268
0.00922731
0.00677838
0.00451926
0.00673307
0.00737398
0.011704
0.00692905
0.00674696
0.003224
0.0155964
0.00683646
0.00449803
0.00665988
0.00175869
0.00750983
0.00668767
0.0160453
0.0056168
0.00673635
0.0148162
0.00367659
0.00170811
0.00709072
0.0017616
0.00611969
0.00686819
0.00385711
0.00681049
0.00267395
0.0011719
0.00691632
0.00374964
0.000658671
0.02046
0.0067211
0.0009378
0.0150602
0.00204893
0.00694473
0.00683241
0.00584323
0.00754832
0.00229704
0.00680278
0.00935558
0.00314206
0.00666426
0.00358602
0.00243913
0.00684449
0.00903253
0.00684183
0.00590206
0.00679853
0.00665703
0.00684029
0.00671541
0.0134513
0.00651766
0.00672244
0.00252108
0.00393254
0.00635457
0.00135969
0.00684302
0.0067359
0.00548739
0.00674251
0.00632322
0.00631379
0.0030714
0.00851736
0.00462077
0.0107429
0.00391124
0.0146519
0.0171813
0.0140939
0.0067555
0.00309446
0.00676891
0.00684627
0.00684283
0.00697806
0.00108637
0.0035173
0.00143196
0.00673393
0.00673873
0.00368981
0.00683785
0.0068316
0.00684473
0.00864124
0.00189294
0.00137561
0.00678752
0.00593437
0.00682402
0.00681572
0.00681516
0.00460668
0.00674744
0.00241338
0.00977475
0.00122799
0.00574571
0.0147822
0.00692183
0.00246347
0.0251553
0.00146489
0.00656306
0.00682712
0.00667952
0.012387
0.00663807
0.002329
0.00467542
0.00266395
0.0169462
0.0199209
0.00306425
0.00968156
0.00676622
0.00671524
0.010649
0.00382918
0.0068068
0.00679953
0.00582617
0.00671244
0.00308949
0.00684055
0.00673053
0.00344468
0.00680418
0.00246411
0.01035
0.00750988
0.00356539
0.00681189
0.000718603
0.00546831
0.00099681
0.00673569
0.00145299
0.00230484
0.00683169
0.00684683
0.00667245
0.000742692
0.00414172
0.00103888
0.0136146
0.00208194
0.00884543
0.00279942
0.00185601
0.0101027
0.00675007
0.0137775
0.00584462
0.00841444
0.000224843
0.0138515
0.0117874
0.00705499
0.00157706
0.00768766
0.00684217
0.00472267
0.0068376
0.00681976
0.00455403
0.00621643
0.00410045
0.000785666
0.000903678
0.0149246
0.00315467
0.00127578
0.00659347
0.00680746
0.00682129
0.00072634
0.00216545
0.019856
0.00123189
0.00649538
0.00673128
0.00682224
0.000946044
0.00617213
0.00677712
0.00314615
0.00101147
0.00408665
0.00161986
0.00380936
0.0143287
0.00207356
0.00390014
0.00676546
0.00403048
0.0145203
0.00755004
0.0012571
0.00674923
0.0144236
0.0025645
0.00679629
0.00239919
0.011421
0.012048
0.00165543
0.00671506
0.0151883
0.00682861
0.00671687
0.00650123
0.0205683
0.0101666
0.00693212
0.0148569
0.0124946
0.00690413
0.00418303
0.00147938
0.0102016
0.00196105
0.0119353
0.00682017
0.00563271
0.00675331
0.00982822
0.00302682
0.00679759
0.0119694
0.00676347
0.00675566
0.00199293
0.00382368
0.00276977
0.0158253
0.00401142
0.00489294
0.00944698
0.00678977
0.00672145
0.00679201
0.00209445
0.0067635
0.00510515
0.00534361
0.00649795
0.00406932
0.00594887
0.00466733
0.00688649
0.0107044
0.0061842
0.00679512
0.00684037
0.00374414
0.00158924
0.00106197
0.00234112
0.010873
0.0145339
0.00181351
0.00666519
0.00309642
0.00817348
0.00441273
0.00722306
0.00684972
0.00683698
0.00678346
0.0067534
0.00672688
0.00412214
0.00727031
0.00520829
0.00634485
0.0120218
0.00122092
0.0175239
0.0127778
0.00576216
0.0108235
0.00180136
0.00283037
0.00670181
0.00683987
0.00277549
0.00434034
0.00671403
0.0161051
0.0127494
0.00677352
0.00682512
0.00695577
0.0007167
0.00681549
0.0022923
0.0130905
0.00671375
0.00672316
0.00676074
0.00604602
0.00201804
0.00898186
0.00167309
0.00571099
0.00115326
0.0067352
0.00591815
0.000538691
0.00700374
0.00198896
0.00458617
0.019793
0.0194188
0.00587329
0.00684181
0.00677794
0.00920879
0.00126334
0.00845786
0.00684017
0.00625359
0.00421654
0.00422167
0.00981365
0.00213364
0.00684171
0.00254465
0.00988963
0.00853436
0.00669056
0.00681354
0.0110499
0.0129426
0.00683186
0.00234953
0.00179958
0.0067344
0.00673369
0.0213677
0.00673713
0.000839864
0.00597252
0.00934562
0.00674373
0.000809015
0.00118896
0.00679233
0.0065949
0.0141473
0.0215341
0.00680507
0.00480488
0.000228952
0.000976311
0.0117001
0.0151567
0.00303999
0.00472722
0.0167313
0.00188576
0.00671226
0.00198346
0.00672051
0.00651229
0.00650092
0.00135421
0.00211556
0.00378257
0.00624364
0.00681903
0.00674264
0.00600442
0.00558908
0.0144468
0.00388218
0.0148069
0.00212423
0.0013044
0.00221283
0.0157991
0.0102019
0.0149711
0.00667491
0.00362818
0.00190946
0.00302936
0.00306077
0.0194278
0.00658784
0.013278
0.00734125
0.00269535
0.00201215
0.00226013
0.00187825
0.00172528
0.00459808
0.00162901
0.00146486
0.00131259
0.00116308
0.00174912
0.00224196
0.00622811
0.00671587
0.00293859
0.00201742
0.00674278
0.0115406
0.0104893
0.00543779
0.0124462
0.00663501
0.00673544
0.00610288
0.0122021
0.00564318
0.00643445
0.00323186
0.016745
0.00574689
0.00683606
0.00389124
0.00326115
0.000826631
0.00901261
0.00403362
0.00687588
0.00874838
0.0018028
0.0126768
0.00208685
0.00643222
0.0109708
0.006658
0.00951388
0.00903185
0.00673175
0.00126386
0.000970424
0.00620784
0.00679525
0.00145633
0.0105147
0.00685033
0.00687012
0.0202932
0.00239726
0.00114849
0.00684664
0.000731645
0.00139247
0.0124902
0.00542543
0.00681811
0.00673384
0.00577406
0.00689547
0.0120528
0.00653569
0.0145439
0.00234163
0.000415305
0.0108694
0.00692917
0.00672193
0.00829866
0.00682994
0.0112345
0.00674087
0.0126915
0.00534146
0.00676889
0.00736766
0.00677466
0.00160009
0.0150726
0.00688029
0.00655612
0.00511895
0.00110874
0.00643499
0.00128186
0.0115519
0.00691205
0.00692871
0.00347435
0.00108224
0.00917074
0.0168735
0.000850593
0.000892576
0.00144253
0.0108187
0.00645638
0.00681214
0.00671885
0.00670338
0.00469807
0.00260486
0.00656418
0.00122574
0.00126807
0.00677711
0.0104061
0.00205972
0.000756347
0.00673203
0.00459792
0.00666184
0.0101271
0.00727511
0.0158267
0.00486997
0.00153033
0.000340489
0.0066782
0.00365205
0.00132589
0.00451425
0.00272825
0.00676002
0.0014203
0.00681783
0.00676508
0.000867643
0.00742758
0.0182869
0.00683933
0.000836792
0.00458421
0.0195723
0.00261132
0.0112871
0.0091295
0.0068252
0.00214369
0.00683031
0.00136936
0.00686389
0.000864885
0.00665252
0.00214507
0.00453841
0.0128267
0.00691943
0.00120451
0.00925989
0.00173568
0.00657612
0.00208261
0.00190635
0.0069058
0.00671873
0.00958556
0.00258222
0.000689091
0.00446268
0.00470554
0.00419332
0.00693042
0.013307
0.00994723
0.00797238
0.00134408
0.00270921
0.00165569
0.00185102
0.011074
0.00281173
0.00597912
0.00664487
0.00316685
0.01021
0.00247525
0.0142476
0.0158708
0.00519398
0.00408397
0.0197975
0.00406656
0.00773741
0.00146968
0.00894976
0.00147065
0.00671235
0.00663996
0.00801068
0.00967016
0.00592049
0.0063675
0.00116155
0.00536564
0.0119924
0.00227037
0.00881713
0.00280069
0.00837965
0.000991359
0.0138325
0.00619693
0.00760752
0.0152647
0.00690437
0.00245066
0.00666238
0.00374267
0.0068257
0.00406288
0.00676099
0.0068027
0.0111504
0.00727025
0.00669968
0.00945729
0.00599593
0.00683708
0.00675037
0.00681246
0.00683439
0.00164779
0.0117472
0.00670498
0.00159455
0.00289743
0.00417703
0.00913424
0.00213
0.0029563
0.00511309
0.00672063
0.00437339
0.00475394
0.00923895
0.00693523
0.00888413
0.00657357
0.00217006
0.000886807
0.00791506
0.00671214
0.00506696
0.00197522
0.00255185
0.00437071
0.0067933
0.00505107
0.00107338
0.0068154
0.00433112
0.00672357
0.00988632
0.0013226
0.0180518
0.00112002
0.00115037
0.0113432
0.00684616
0.00686597
0.00322675
0.00512045
0.00683863
0.0068387
0.00252916
0.00677306
0.00672321
0.00548202
0.0012542
0.00465144
0.00268102
0.00684589
0.00418871
0.00201742
0.00423697
0.00944143
0.00425661
0.00674136
0.00201043
0.00460391
0.00687591
0.00678165
0.00170516
0.00397214
0.0075376
0.00402695
0.00164764
0.00673803
0.00684349
0.00125778
0.0106365
0.00269044
0.00160071
0.00659137
0.012324
0.00683
0.00672249
0.00238188
0.0039489
0.00111999
0.00948819
0.00175168
0.00182544
0.00118126
0.00398743
0.00684499
0.00684595
0.00115069
0.00479451
0.00345512
0.00189593
0.0146194
0.00249274
0.00684075
0.00331712
0.000705635
0.00355315
0.00681991
0.00182705
0.00209901
0.00252277
0.00683071
0.00680567
0.00234141
0.00214572
0.00147814
0.00907978
0.00654026
0.00238795
0.00683574
0.00442806
0.0156277
0.00684986
0.000541789
0.00673181
0.00209457
0.0122112
0.00680325
0.00683289
0.00672064
0.0110174
0.000902466
0.00537921
0.00116517
0.00174812
0.00683258
0.00683913
0.00406042
0.00990703
0.00328966
0.00861732
0.00199166
0.0047416
0.00348159
0.00157327
0.00430841
0.0118715
0.00231537
0.0137743
0.00683023
0.00208447
0.00143699
0.00645039
0.00177521
0.00128687
0.00211514
0.00257169
0.00127454
0.00677146
0.00464958
0.00394489
0.00671108
0.00683671
0.0067254
0.00609685
0.00601262
0.00678993
0.00409006
0.00684971
0.00676185
0.00419952
0.00250784
0.0061407
0.00232522
0.0033188
0.0068662
0.00674667
0.00427072
0.00604314
0.00704558
0.00680785
0.00679005
0.00100655
0.0112296
0.00684296
0.00683568
0.00127597
0.00415144
0.000924048
0.00235015
0.00684301
0.00122318
0.00409877
0.00623275
0.000802348
0.00950283
0.00692189
0.00195999
0.00684549
0.00379452
0.00684795
0.00268804
0.00674828
0.00679419
0.00287254
0.00240294
0.000190631
0.00197196
0.00682457
0.00223559
0.00896248
0.00129962
0.00107614
0.00167384
0.00681105
0.00146019
0.00797209
0.000945994
0.00180076
0.00282343
0.00720915
0.0190074
0.0038041
0.00683985
0.000874603
0.00596212
0.00359588
0.0126467
0.00684601
0.00521035
0.00684395
0.0117762
0.00277672
0.00528411
0.00252792
0.0103442
0.0165784
0.00412528
0.00224373
0.00317045
0.00669902
0.0167852
0.00668969
0.00175295
0.00673
0.00624414
0.0147064
0.00245102
0.00676834
0.00490402
0.00499605
0.00684432
0.00683171
0.00257426
0.00617394
0.00681396
0.00402372
0.00636085
0.00681428
0.00674763
0.00310305
0.00192419
0.00101994
0.00671418
0.00351502
0.00870986
0.00391333
0.00668006
0.00684913
0.00382285
0.00192315
0.00679034
0.00676763
0.00676679
0.00680906
0.00604802
0.00319205
0.00693424
0.00285102
0.00428867
0.00674734
0.00548424
0.00322374
0.00193872
0.00184535
0.00620207
0.00216551
0.00731444
0.00350609
0.0039469
0.0040341
0.0081434
0.00203217
0.00244065
0.00116342
0.00684036
0.00901808
0.00581199
0.0111089
0.00674011
0.00671801
0.000889371
0.00671172
0.00635807
0.0189088
0.0066483
0.000653067
0.0026694
0.00519556
0.00289896