/*--------------------------------*- C++ -*----------------------------------*\
| =========                 |                                                 |
| \\      /  F ield         | OpenFOAM: The Open Source CFD Toolbox           |
|  \\    /   O peration     | Version:  v2012                                 |
|   \\  /    A nd           | Website:  www.openfoam.com                      |
|    \\/     M anipulation  |                                                 |
\*---------------------------------------------------------------------------*/
FoamFile
{
    version     2.0;
    format      ascii;
    class       surfaceScalarField;
    location    "50";
    object      phi;
}
// * * * * * * * * * * * * * * * * * * * * * * * * * * * * * * * * * * * * * //

dimensions      [0 3 -1 0 0 0 0];
oriented        oriented;


internalField   nonuniform List<scalar> 
20642
(
-0.021353
0.0265093
-0.00515638
0.302305
-0.0791698
-0.223146
-0.108534
0.10156
0.0069733
-0.351611
0.135489
0.216091
0.387945
0.0207411
-0.408718
-0.0274021
0.329694
-0.228077
0.0286515
0.199417
0.0279946
0.19106
-0.219061
-0.243259
0.225038
0.0182134
0.00491121
0.00351842
-0.218724
0.246712
0.235663
0.128805
-0.364525
0.601449
-0.601967
0.20052
-0.0111828
-0.18934
0.302476
0.0306704
-0.33317
-0.0259504
0.00459743
0.590109
-0.595497
0.0052868
0.0289799
-0.247593
0.218607
-0.0241126
-0.0891926
0.113305
0.00133753
0.025318
-0.0266555
-0.0816525
-0.187925
0.269569
0.634855
-0.369964
-0.264963
0.207364
-0.144928
-0.0624377
0.339522
0.295255
-0.0468291
-0.189329
0.236139
0.0651641
-0.257486
0.192314
0.0503207
-0.207621
0.157299
0.00491121
0.085668
-0.27158
0.185904
-0.673637
0.393033
0.2806
0.00159406
0.00331715
0.0318364
-0.110294
0.0784564
0.0383937
0.258336
-0.296762
-0.00147665
0.0301056
-0.0286289
-0.662023
0.487519
0.174421
0.353889
-0.162834
0.268725
-0.360775
0.0920262
0.621202
-0.101381
-0.520135
-0.028715
-0.199369
0.230982
-0.00263245
-0.228356
-0.772741
0.60445
0.168225
0.419901
0.130297
-0.550247
-0.142751
0.25236
-0.109623
0.132727
-0.109136
-0.0235915
0.0231862
0.10954
0.154708
-0.0670982
-0.0876104
0.223663
-0.305327
0.0154985
-0.0309431
0.0154446
0.364443
-0.319828
-0.0446174
-0.404679
-0.25741
0.349014
-0.113414
-0.15773
0.0428622
0.114867
0.0170441
-0.000367648
-0.0166765
-0.315663
-0.0855711
0.401166
0.00774844
0.365636
-0.373449
-0.0807711
-0.0769599
0.00159406
0.166604
0.0407573
-0.145745
0.565594
0.0419361
0.112772
-0.0327413
0.01887
0.0138713
0.539409
-0.497453
-0.0419941
0.47139
-0.61413
0.14273
-0.261393
0.214542
-0.0575101
0.0543881
0.00312197
0.118
0.445509
-0.56351
-0.266966
0.0708679
0.196091
0.190393
0.163491
-0.18975
-0.00198494
0.0207835
-0.0187986
-0.092667
0.0632414
0.0294255
0.0198541
-0.0213308
-0.2505
-0.149751
0.40018
0.398372
-0.544177
0.0768017
-0.264734
-0.0483413
-0.184097
0.232418
0.428751
-0.116236
-0.312549
-0.154846
0.553156
-0.257911
0.209546
0.231808
-0.193438
-0.38069
0.438151
-0.0575166
-0.611281
0.583034
0.028106
-0.420275
0.169692
0.00977498
0.0614235
-0.0711986
-0.228509
-0.304693
0.532897
-0.00588893
-0.185274
0.191159
-0.0902745
0.12211
-0.64214
0.606646
0.035115
-0.0284424
0.259418
0.487214
0.102808
-0.586484
0.410513
0.175882
0.111206
0.295701
0.0687395
-0.616167
0.19913
0.416947
-0.410367
0.289213
0.121105
-0.181305
0.0456292
-0.21393
0.1683
0.591932
-0.592472
0.000352252
-0.140158
-0.50228
-0.145878
-0.113868
0.259744
0.527968
-0.53296
0.0049567
0.54367
-0.0157271
-0.00399948
-0.376738
0.521282
-0.595979
0.0745253
0.00340994
0.425297
-0.0715305
0.0741208
-0.00259034
0.0271998
-0.0431537
0.0159539
0.415351
0.124015
0.545052
-0.414803
0.182375
-0.132055
0.536561
0.0704232
-0.00310944
0.033215
-0.10115
-0.170437
-0.0503689
-0.00714126
0.386445
-0.182951
-0.203511
0.106457
-0.130571
0.422638
0.163062
-0.585775
0.107085
-0.0961174
-0.0109679
-0.470085
0.273547
0.196459
-0.0963899
-0.515025
0.16078
-0.579778
0.418933
0.249309
-0.178448
-0.140428
0.141109
-0.00068136
-0.0209085
-0.00107677
0.0219853
0.042625
-0.0328501
0.0713816
-0.268468
0.197066
0.255333
-0.178539
-0.42991
0.553312
-0.123505
-0.0995262
-0.0409027
-0.0514379
0.156426
-0.104991
0.195705
-0.0580325
-0.137674
-0.00594779
-0.0349873
0.0409351
0.166339
0.220087
-0.0622327
0.123092
-0.0608603
0.0518108
0.130563
0.0199065
-0.0107323
-0.00917424
0.0218671
-0.0214157
-0.000451439
0.0494514
-0.242321
0.192861
0.620873
0.145056
0.12942
-0.274479
-0.562564
0.407657
-0.0639269
-0.00760367
-0.543005
0.261576
0.281322
-0.146023
-0.239309
0.385256
-0.397312
0.590686
-0.193414
-0.0452525
-0.0474146
0.0676281
0.024652
-0.0254962
0.000844197
-0.457702
0.141966
-0.197303
-0.0297102
0.227006
0.569355
-0.697062
0.127675
0.253714
-0.399819
-0.139043
0.18467
-0.128554
-0.340435
0.468933
0.545249
-0.0241297
0.031586
-0.0383433
0.00675727
-0.617566
0.610171
0.00732394
0.57323
-0.150655
-0.170446
-0.334535
0.504773
0.0591232
-0.0467073
-0.012416
0.0570178
-0.304231
0.24719
0.333648
0.0411034
-0.0182806
-0.0228229
0.0586331
-0.223055
0.164421
0.0170441
-0.0032187
-0.0274941
0.0307128
-0.374486
-0.223493
0.597978
0.236393
-0.18695
0.0714703
0.302665
-0.374209
0.0494647
-0.0410332
-0.00843147
-0.0646311
-0.0317279
0.0116927
0.0200351
0.195975
-0.0999848
-0.0959915
0.601732
-0.106424
-0.495354
-0.148905
-0.202734
-0.156289
0.0141691
0.142119
-0.192457
0.141016
-0.232233
0.289232
-0.171445
-0.0784294
0.249861
0.410909
0.255201
0.0937609
0.145272
-0.0674923
-0.0777804
0.108666
-0.00158083
0.177713
0.0179921
-0.0986632
0.353807
0.0411486
0.104123
-0.381463
-0.292179
0.20121
-0.207102
0.147663
0.0483101
0.133355
-0.110169
0.00592802
-0.116095
0.110166
-0.0247962
0.000822852
0.0239734
-0.270083
-0.346151
0.0233844
-0.00219412
-0.0211903
-0.272331
0.104838
0.167482
0.0386342
-0.044582
0.505358
-0.0179211
0.363342
-0.491959
0.279287
-0.236359
-0.0429388
0.0181374
-0.0206403
0.00250286
0.0229767
-0.00110957
-0.0793585
-0.236245
0.315576
0.187266
-0.0422874
-0.144979
-0.265743
0.296133
-0.0304016
-0.225751
-0.401845
-0.113427
0.311809
0.126286
-0.43328
-0.112449
0.545596
-0.0672335
0.352527
-0.285316
0.269912
-0.337166
-0.00629106
0.0562411
-0.118474
-0.177164
-0.0485145
0.0471562
0.00135826
0.636239
-0.251503
-0.385077
0.731189
-0.417592
-0.313659
0.346439
0.384691
-0.0313696
-0.0249172
-0.106147
0.131063
-0.128746
0.0333347
0.0954114
0.375389
0.177668
-0.553398
0.557066
-0.085683
-0.1269
0.17871
0.0230168
0.128492
0.32472
-0.453278
-0.37665
0.50507
-0.315049
-0.457743
0.735571
-0.38919
0.314242
0.421268
-0.00990685
0.029761
-0.0205977
0.0324384
-0.0118407
0.0794659
0.302667
-0.382188
0.47447
0.0881405
-0.562616
-0.122515
0.152105
-0.0295908
-0.0253043
0.00153433
0.02377
0.0129605
-0.517234
0.5042
0.529891
-0.154862
0.165543
0.021722
0.0693652
-0.0622882
-0.007077
-0.0924098
-0.0429766
-0.00553792
-0.157781
0.141532
0.0162478
-0.339234
-0.203868
-0.0370482
0.00955405
-0.166115
0.0435986
-0.242064
0.140907
0.0150401
0.112082
-0.127123
0.234917
-0.314304
-0.0268887
-0.471451
0.225101
0.246286
0.0609469
0.0963341
-0.157284
-0.0515867
-0.134936
0.186521
-0.0233595
-0.335372
0.358669
0.604394
-0.19003
-0.343044
-0.103694
0.446701
0.383374
-0.557445
0.174003
-0.00262646
0.024268
-0.0216415
-0.0473707
-0.186385
0.233754
0.16327
-0.572357
0.409013
-0.673208
0.296485
-0.46305
0.122561
-0.284908
-0.388373
-0.197975
0.0616812
0.539253
-0.0162287
-0.167978
0.184203
0.587587
-0.424382
0.00185051
0.0204871
0.0378736
-0.0106738
0.0723477
-0.401299
0.328845
0.32188
0.108879
-0.430799
-0.127748
0.109427
0.0183209
-0.745896
0.309862
0.435986
0.26844
-0.0880261
-0.180417
0.0233418
-0.0259683
-0.348544
-0.397399
0.0196419
-0.0216268
0.572575
-0.189271
-0.0010022
0.0601253
0.604503
-0.0028192
-0.30751
0.383555
-0.0760704
0.276453
-0.299859
-0.336616
0.518531
-0.182045
0.108765
-0.00190135
-0.106864
0.548391
-0.589204
0.0405468
0.213218
-0.154587
-0.277436
0.0897347
0.187694
-0.553799
0.156451
-0.206662
0.209027
-0.00236588
0.021256
-0.442268
0.455163
0.166082
-0.0254501
-0.140634
-0.354893
0.46587
-0.111019
-0.354096
0.152587
0.201492
0.491084
-0.103175
-0.0697991
-0.18813
-0.595267
0.20347
0.391718
0.0481884
0.499934
0.171641
-0.0153559
-0.156286
-0.52347
0.175488
0.347956
-0.133212
0.194155
-0.246746
0.176926
-0.367157
-0.167462
0.534327
0.0398011
-0.00821503
0.0220424
-0.00390505
-0.43074
0.554597
-0.123961
-0.642818
0.198569
0.444232
-0.187773
-0.361804
0.458702
-0.0969125
0.103205
0.00784603
-0.111052
0.0120342
-0.0404447
0.0284105
-0.0271797
-0.00454831
0.494988
-0.57886
0.0838713
-0.224572
0.166538
-0.108575
0.430416
-0.00722265
0.0686461
0.0991719
-0.460991
-0.0755644
-0.0329694
-0.207398
-0.394984
-0.0447774
0.347229
-0.0420778
0.514069
-0.155637
-0.35849
-0.254677
0.175498
0.0219606
0.111394
-0.493548
0.575258
-0.0818125
0.0150775
0.0343872
-0.35894
-0.254135
0.612739
0.1341
0.0227755
-0.650136
0.444589
0.205512
0.0239304
-0.0225929
-0.399903
0.559294
-0.159557
-0.00608007
0.158584
-0.152507
-0.0289088
-0.236844
0.641881
-0.146895
0.189785
-0.683442
0.125635
-0.119062
-0.00657379
-0.063588
-0.00366466
0.0672527
-0.486272
0.190157
0.296065
0.17832
0.335691
-0.0329324
0.0298229
-0.0577289
0.0693579
-0.0116291
0.0722652
-0.0428337
-0.0294316
0.000239905
0.200277
-0.708083
0.359482
0.0936364
0.300818
-0.394512
0.0689152
-0.062827
-0.00608823
-0.109386
-0.115186
-0.328929
-0.379216
0.136146
-0.18393
-0.194102
0.377979
-0.0194789
0.215765
-0.196291
-0.139295
0.0166359
-0.132605
0.115969
0.000776443
0.168643
-0.169421
0.0507991
0.217639
-0.141416
0.155939
-0.0145246
0.0263331
0.00189967
-0.0282327
0.0972418
-0.527252
-0.279347
-0.206976
0.30186
-0.281138
0.127682
-0.093266
-0.0344163
0.619664
-0.0560978
-0.56365
0.00171311
-0.145279
0.003861
-0.352677
-0.00667783
0.290606
-0.282911
0.200725
-0.0410477
-0.159679
-0.444021
-0.198813
-0.386115
0.247555
0.138556
0.543351
-0.40855
-0.134844
-0.0875981
-0.0858122
0.256375
-0.285294
0.362029
-0.289774
-0.0802308
0.0718545
0.00837616
-0.424221
0.628721
-0.204531
0.0156489
0.0254545
-0.100219
0.125979
0.417328
-0.0904169
-0.48595
0.210378
0.275526
0.339645
0.211973
-0.551625
0.129111
-0.55502
0.425813
0.0315026
-0.00618458
-0.122812
0.462447
0.00236243
0.224679
-0.227062
0.0185106
-0.145411
0.245768
-0.237051
-0.00872017
0.0956358
-0.340376
0.244707
-0.0599352
0.0268739
0.0330612
0.00526086
0.0791844
0.239248
0.0491947
-0.288467
0.00530507
0.10346
-0.308415
-0.0818681
0.390222
0.196789
0.0489759
0.00283819
0.098722
-0.499374
-0.201278
0.0282602
0.173011
-0.0878054
-0.158957
-0.112043
-0.451266
0.563163
0.127502
0.333465
-0.461162
0.215925
-0.589272
0.373245
-0.0633486
-0.159708
0.454077
-0.12966
-0.324456
-0.571435
0.439626
0.131719
0.368092
-0.478806
0.110626
-0.144073
-0.0235828
0.167654
-0.326314
0.0811707
0.245138
-0.760259
0.330258
0.429959
-0.668171
0.293679
0.104992
-0.0017869
0.00370097
0.197023
-0.493137
0.15641
-0.271469
0.273803
0.0389161
-0.0417072
0.00279094
-0.157784
0.222561
-0.0647774
-0.411041
0.529039
0.0371658
-0.126359
0.0614883
-0.068711
0.270317
-0.51934
0.248974
0.338005
-0.705847
0.367796
-0.0687731
-0.208167
0.276929
-0.343392
0.470685
-0.422294
-0.255955
-0.359078
-0.346808
0.519064
-0.248795
-0.0352449
0.0117242
0.0235207
0.0820347
-0.390508
-0.0334651
0.210525
-0.177064
-0.0030904
0.0235775
-0.013253
0.179333
-0.550029
0.116618
0.396433
-0.142803
-0.0191211
-0.0408141
0.212803
0.0664721
-0.0224817
0.00157311
-0.709088
0.273413
0.435637
0.532428
-0.212727
-0.31986
-0.598868
0.174616
0.666172
-0.351987
0.324207
-0.0555071
-0.484402
0.189686
0.294671
-0.00672234
0.0456383
-0.437539
0.559769
-0.122263
0.00543827
0.194251
0.338011
0.0109559
-0.140167
0.129208
-0.410689
0.58666
-0.176002
-0.0902029
0.401963
-0.134689
-0.0230935
0.0453688
0.0268963
0.173467
-0.357449
-0.205833
0.128336
0.0774956
0.353893
0.204392
-0.558414
-0.632857
0.199421
0.433176
0.477893
-0.109881
-0.300384
-0.185613
0.432915
-0.554719
0.121665
0.442012
-0.622629
0.180263
0.00481372
-0.0210487
0.572853
-0.140076
-0.164283
-0.0423804
-0.0109455
-0.0904426
0.101388
0.365567
0.209329
-0.575322
0.159225
0.0208147
-0.180041
0.120206
0.00909951
0.0418033
-0.00706352
-0.0347398
-0.213156
0.193983
0.0191681
0.0163919
-0.283714
-0.213518
0.497223
-0.52005
0.236329
-0.274066
-0.133352
0.155817
-0.566536
0.330521
0.00798218
0.0632758
-0.0712582
-0.419455
-0.167111
0.305791
-0.391431
-0.220252
0.205613
-0.17834
-0.0272803
-0.082918
0.252901
-0.16999
-0.0729302
-0.0314798
0.10441
0.130092
-0.0130115
-0.117081
0.0835211
0.375043
-0.458605
0.43259
-0.323747
-0.0435222
-0.204076
-0.00705499
-0.175424
0.182476
0.113946
0.340092
-0.148183
0.136999
0.087231
-0.164321
0.0770868
-0.092031
-0.185412
0.025817
-0.0393044
0.0134874
-0.482941
0.146925
-0.153983
0.134705
-0.120536
0.142687
0.328468
-0.471353
-0.0359019
0.0341133
0.00178856
-0.275134
-0.35794
0.398471
0.267647
0.0239994
-0.168074
-0.312397
-0.396727
0.507631
0.128268
0.167629
0.0040105
0.00648557
0.030005
-0.120036
-0.0212133
0.141249
0.310408
-0.481066
0.27949
-0.0768176
-0.202693
0.112578
0.386352
-0.498967
0.0824105
-0.0699851
-0.0124256
-0.08246
0.0729715
0.0094882
0.262505
-0.404511
0.14196
-0.0921357
0.14947
0.328859
-0.47853
-0.00818565
0.161894
-0.153711
0.506061
-0.308637
-0.197431
-0.544948
0.414723
0.130133
0.07937
0.540204
0.46578
-0.102502
0.377662
-0.489843
0.463337
-0.442382
-0.0209943
-0.200623
0.174248
0.0263698
0.600208
0.0104809
0.11961
-0.344539
0.487017
0.39656
0.0227063
-0.419352
0.166849
-0.254672
0.00365845
0.0298348
-0.0334932
-0.507156
-0.0214106
0.528466
0.264841
-0.19784
-0.0670132
-0.16067
-0.396841
0.159987
-0.149035
0.0428628
-0.182811
0.139947
-0.168178
-0.0798566
0.248029
-0.151573
-0.209228
-0.162121
-0.172933
0.335028
0.205779
-0.00575202
0.0443863
-0.0129695
-0.0222755
0.0227279
-0.0258183
-0.44148
0.565222
-0.123847
-0.367064
0.47939
-0.11241
-0.365961
0.449453
0.414887
-0.129067
-0.285924
0.0594865
-0.0120593
-0.0474273
0.651031
-0.341216
-0.382151
0.397892
-0.0157444
-0.0621313
-0.21021
0.000320562
-0.0482321
0.0479115
-0.201897
0.0809025
-0.00500775
0.0137785
-0.00877074
0.43223
0.140483
0.148249
-0.0803763
-0.0678733
0.525676
0.0660692
0.132129
-0.582093
0.44991
-0.029865
0.0301855
-0.743171
0.430733
-0.0522629
-0.0325511
0.0848139
0.617931
-0.563077
-0.05487
0.498033
-0.132862
0.110749
0.0367744
-0.109705
-0.00564938
0.468948
0.430941
-0.516299
0.0852918
0.00201429
0.103729
-0.105743
0.146996
0.0122273
0.43101
-0.346331
0.0156624
-0.060915
-0.0476506
0.0346365
0.0130141
-0.000462563
0.0422658
-0.524856
0.0176061
0.0269557
-0.0177632
-0.00919241
0.586878
-0.48079
-0.106106
0.00875138
-0.0194837
-0.368895
0.436516
0.543129
-0.411047
0.601603
-0.195369
-0.40625
0.314326
0.229319
-0.0863902
0.173618
-0.243005
0.164562
-0.412953
-0.211779
-0.380845
-0.763477
0.290904
0.47215
0.0734018
-0.0577395
-0.420895
0.433969
-0.0132145
-0.00808447
0.118822
-0.110738
-0.099136
0.404857
0.526447
-0.0955748
-0.494125
-0.123506
0.0438202
-0.110919
-0.0493548
-0.0150067
0.0643615
-0.0260774
0.0210697
0.140834
-0.125795
-0.163896
-0.0367316
0.00475468
0.0719255
-0.0766804
-0.00365522
-0.0216491
0.543628
-0.414608
-0.0588291
-0.00643821
0.0652672
-0.44946
-0.314419
-0.0975621
-0.0104866
0.108048
0.11996
0.29483
-0.0150208
-0.0652101
-0.124234
0.501759
-0.194985
-0.247435
-0.365443
0.126065
0.114974
-0.173705
0.183248
-0.00954583
-0.058977
0.0476368
0.0113401
-0.631324
0.0895102
0.541713
0.160842
-0.177074
0.0997038
0.343347
-0.443126
0.483496
-0.169194
-0.00290065
0.0292337
-0.239447
0.188859
0.0505862
-0.0520926
-0.363371
0.415405
-0.110045
0.12668
0.162472
0.566242
-0.43784
-0.128455
-0.0145474
0.583876
0.0284433
-0.031344
-0.0712545
-0.349812
0.122787
0.382161
0.268831
-0.40911
0.356961
0.0897123
0.0379696
-0.388249
-0.308843
0.132979
-0.0196198
-0.11336
-0.584984
0.554544
0.0302944
-0.59837
0.45674
0.141447
0.0276213
-0.0983597
0.404409
0.0149754
-0.000613629
-0.0143617
0.0240877
-0.0763507
-0.286659
0.344334
-0.0576826
0.117108
0.0175967
0.55014
-0.118053
0.294804
-0.264153
-0.0252309
0.0288894
0.0422125
0.0338299
-0.0760424
-0.277338
0.208553
-0.161041
-0.199753
-0.397804
0.202782
-0.212236
-0.372869
0.567972
-0.32151
-0.246552
0.502861
-0.41899
0.0282473
-0.157219
0.128971
0.192214
0.0274704
-0.219695
-0.00518882
0.0310057
0.0171282
-0.190836
-0.32625
0.294238
0.0320072
-0.0717984
-0.0106619
-0.284796
-0.238697
0.00699853
0.161129
-0.168131
-0.0131779
-0.102917
0.0211762
-0.396213
0.538278
-0.318085
-0.220221
-0.0770176
0.579879
-0.220358
-0.378188
-0.4434
0.346911
0.504313
0.105789
0.472528
-0.359984
0.409277
-0.596363
0.186765
0.0122794
0.0146763
0.173444
-0.0348129
-0.138634
-0.636037
0.459132
0.176702
0.128114
-0.106153
-0.231597
-0.399807
0.0359163
-0.0238821
0.163693
0.408813
0.136864
0.416351
-0.027048
0.0335336
-0.176749
0.0596652
0.117082
0.424416
-0.473485
-0.217789
-0.116288
0.334029
-0.605644
0.191016
0.414604
-0.554427
0.42262
0.131713
0.184859
0.0878948
-0.272779
0.179381
-0.0126151
-0.166769
-0.378567
0.502677
-0.124226
-0.00155061
0.0191864
-0.0176358
-0.0824257
0.22019
-0.137771
-0.367421
0.547809
-0.180394
0.479736
-0.0553252
0.23556
0.30269
-0.0295627
-0.0180879
0.0807313
0.198738
-0.656437
0.269558
0.386724
-0.309471
-0.00368187
0.0270237
-0.101525
0.233844
-0.129014
-0.0169032
-0.00557848
-0.440686
0.113909
0.326772
-0.563337
0.163264
0.124636
-0.555478
0.246915
0.0772677
0.00576987
-0.489695
0.0881162
0.40157
0.0152668
-0.10077
0.285601
0.197001
0.0678288
0.0142561
-0.436008
0.327389
-0.115594
-0.0170115
0.153335
0.0201065
0.393866
-0.104702
0.275656
-0.0438668
-0.367833
-0.288757
0.204303
-0.0249275
0.328859
0.0659113
-0.334783
0.118406
0.216359
0.110047
0.372364
-0.48245
0.0173809
0.00187599
-0.0192569
0.486775
0.0777253
-0.564504
-0.356879
-0.0838114
-0.377386
0.216322
0.0497893
0.245226
-0.295029
0.048077
0.169783
-0.217869
-0.0329161
0.0751284
0.499705
0.0831943
0.00209775
-0.117279
0.115181
-0.0647558
0.0154009
0.294495
0.315998
-0.610493
-0.130573
-0.296984
0.427452
-0.182212
0.517383
-0.10842
0.106433
0.265696
-0.372256
-0.407689
0.195824
0.211787
0.382843
-0.0891582
-0.293703
0.149088
-0.0741046
0.117924
0.0173844
-0.405594
0.559728
-0.154267
-0.0046556
0.075436
-0.0707804
0.0702183
0.154813
0.206869
-0.0012618
-0.123223
0.388338
-0.294758
0.0776909
0.0705574
-0.0465182
-0.167413
0.403692
0.130703
-0.534482
-0.13158
-0.0451695
-0.142403
0.174819
-0.0324171
0.153719
-0.000386207
0.555149
-0.391837
-0.1634
0.417877
-0.530464
0.34188
0.226017
0.000143267
-0.0916769
0.349976
-0.60091
0.39002
0.210822
0.158709
-0.0246106
-0.527943
0.149264
-0.565283
0.425427
0.13974
0.0223841
-0.103156
0.166699
-0.290265
0.381715
-0.0914668
0.0854114
-0.243197
0.205907
-0.225391
0.0649436
-0.289873
-0.117872
-0.309103
0.192838
0.00800049
-0.0870238
0.0790231
0.420233
0.122847
-0.565246
0.159528
0.405684
-0.378694
-0.304836
0.530275
-0.536716
0.00632656
0.247415
-0.343479
0.0960108
-0.304041
0.199544
0.104482
0.0628695
-0.231051
0.388232
0.16683
0.596094
-0.189374
-0.40673
-0.361887
-0.121603
0.483423
-0.430591
0.0616911
-0.152728
-0.163991
-0.0491705
-0.376755
0.131718
-0.0196369
-0.352312
-0.0414554
0.0570705
-0.0156152
0.0730233
-0.363304
-0.481264
0.102487
-0.00487843
-0.0355663
0.280105
-0.0902025
-0.189923
0.0220739
0.090219
0.173275
-0.34241
0.000113591
0.342283
0.114134
0.323511
-0.437689
0.549198
-0.421782
-0.127516
-0.417495
0.286813
0.0203656
-0.037303
0.0169373
-0.181632
0.199792
-0.0181667
0.0488177
-0.335483
0.152102
0.0704576
-0.29591
0.402205
0.015243
0.138474
0.663182
-0.188714
-0.407694
0.486688
-0.079033
-0.501228
0.214
0.28722
0.48013
-0.391993
-0.0253241
0.26236
-0.0925727
-0.169799
-0.0270309
-0.315391
0.114485
-0.00802851
-0.102557
-0.34406
0.446601
0.298703
-0.520503
0.221714
0.327365
-0.521876
0.194396
0.169529
-0.168754
0.144413
-0.304758
0.409633
-0.104941
0.0698901
0.231755
-0.301672
-0.366884
0.498007
-0.131207
0.0134286
0.49707
-0.198436
-0.0581356
-0.169223
0.227356
0.284997
0.108822
0.0235073
-0.00198335
-0.0215239
-0.0227183
-0.425888
0.290679
0.135197
0.00662702
-0.120188
-0.0856451
-0.00244313
0.0895499
0.369137
-0.419036
0.567108
-0.148245
0.547587
-0.457719
-0.0899191
-0.0942304
0.376888
-0.282748
-0.0674171
-0.247793
0.315183
0.459684
0.0226664
-0.505841
0.364534
0.141191
-0.165905
-0.160414
0.0963437
0.00714489
-0.0744571
0.0673121
0.231487
-0.3232
-0.0252669
-0.154757
0.18002
-0.175043
-0.0157143
0.190755
-0.552509
0.419225
0.133189
-0.191576
0.188939
0.262408
0.0176773
0.549891
-0.164659
-0.385284
-0.00144122
-0.181724
0.183158
0.187061
0.44163
-0.0052479
0.0430488
0.146293
-0.118047
-0.580066
0.166148
0.413909
0.144717
0.40978
0.229973
0.237834
-0.530675
0.374972
-0.468227
0.106275
-0.0236556
-0.404494
0.561785
-0.157464
-0.0750282
0.368745
-0.493117
-0.266183
0.554562
-0.288384
-0.409646
0.12692
0.282699
0.0987149
0.337437
-0.436267
-0.0782791
-0.370297
-0.127183
0.153363
-0.558037
0.457662
-0.0508471
0.303822
0.0146543
-0.318504
-0.00148822
-0.559428
0.418981
0.140321
0.184713
0.226417
-0.660077
0.433634
-0.358593
-0.109698
-0.0209946
0.0228943
0.488281
-0.161028
-0.15347
0.288935
0.00280343
0.12531
-0.026151
0.651366
-0.424972
-0.462927
0.344461
0.118453
0.083542
-0.0755417
0.564132
-0.417208
-0.146971
0.0793777
0.310665
-0.390091
0.112423
0.0686332
-0.157741
-0.311998
0.469554
-0.0942552
0.0962692
0.293536
-0.347943
0.0543547
-0.0279798
-0.00792205
0.292403
0.0911284
0.0781034
-0.0225083
-0.0555954
-0.355593
-0.453256
-0.121066
0.57429
-0.585225
0.462404
-0.0978395
0.539481
0.64179
-0.15502
0.0430064
-0.0487584
-0.0833007
0.326824
-0.243555
-0.612066
0.233614
0.378283
0.359518
-0.392759
0.0332297
0.155537
0.114193
0.433342
-0.114357
0.304316
-0.0650933
0.0091176
-0.210214
0.176744
-0.119678
0.00157194
0.118105
0.101751
0.229977
-0.0329885
-0.00465409
0.029
-0.0243459
-0.378592
0.111568
0.266981
-0.123147
-0.254641
0.414839
-0.160351
-0.0237091
0.00353843
0.0201706
-0.479706
0.208302
0.110259
-0.318603
-0.227349
-0.432755
-0.190919
-0.362437
0.553299
-0.6286
0.401224
0.60636
-0.176192
-0.430221
0.568039
-0.450044
-0.118058
0.121114
0.301617
-0.422849
-0.176616
-0.0276764
0.204287
0.545452
-0.141845
0.24846
-0.331793
-0.00706633
-0.118361
0.125426
-0.0327901
0.0436047
-0.0108146
-0.0508884
0.00943284
0.130327
-0.127525
-0.228067
-0.423784
-0.161451
0.47726
-0.343033
-0.134383
-0.00902228
-0.0780016
0.29741
0.208644
0.0149754
0.143375
-0.42139
0.277967
0.142573
-0.00655054
0.513763
-0.507578
-0.307533
0.413834
-0.10637
-0.286605
0.429934
-0.414696
-0.184202
-0.376735
-0.129753
0.506321
-0.154152
0.161147
-0.239962
-0.372273
0.0199429
-0.0283625
0.00841958
0.458678
-0.378655
0.526251
-0.14774
-0.0226377
0.0430033
-0.423143
0.168356
-0.284978
-0.304373
-0.0898994
0.505213
-0.00312982
0.0315731
-0.0522014
0.199124
-0.20463
0.58301
-0.378433
-0.065075
-0.472846
-0.145417
0.618167
0.536777
-0.00997901
0.0725397
-0.0625608
0.108472
-0.0491047
-0.181204
0.230308
0.181331
-0.334826
-0.351183
0.324141
-0.196279
0.59187
-0.45518
-0.136744
-0.0664176
-0.169949
0.351276
-0.453851
0.0685094
-0.230646
0.0250118
-0.0286671
0.294098
-0.43105
0.136917
-0.434809
0.333209
0.37144
-0.292101
-0.51253
0.360234
0.152149
-0.136977
-0.000766214
-0.103429
0.104194
0.0213583
0.140415
0.225422
-0.0332193
-0.0288002
0.0251183
0.0325973
-0.0126544
-0.11145
0.462708
-0.102908
0.102141
-0.428718
-0.143703
0.00307063
0.0245507
-0.0276213
-0.461158
-0.118673
0.0168774
0.0147037
-0.0315813
-0.143123
0.00504692
-0.206331
-0.288507
0.305231
-0.0167469
-0.0495448
0.061593
-0.0120484
0.00596871
-0.0749565
0.0689878
-0.636066
0.234469
0.401576
0.279879
-0.383633
-0.441568
-0.312735
-0.193211
0.164206
0.381089
-0.0961403
-0.0715496
0.365034
-0.149069
-0.015734
0.164802
-0.0188386
-0.000872155
0.0197107
0.130657
0.191656
-0.024921
0.00327193
0.521901
0.0960164
-0.177194
0.4677
-0.290551
-0.338945
0.0332369
-0.0437924
0.0105555
0.222862
-0.290308
0.0196923
0.567168
-0.134235
0.16288
-0.265447
-0.13367
0.399033
-0.408176
0.274756
0.108068
0.0607499
0.178016
-0.238784
0.307475
-0.401808
-0.10669
-0.411652
-0.224435
0.419078
0.134661
-0.553762
-0.203825
-0.12236
0.416424
-0.0241069
0.00154374
0.0225631
-0.329643
0.11181
-0.0984037
0.329855
-0.436194
0.543602
-0.107421
0.0237172
-0.406473
0.618436
0.157565
-0.290122
0.0819448
-0.199545
-0.112517
0.312024
0.218391
-0.0370783
0.432198
0.219145
0.0379493
0.474217
-0.364205
-0.485443
0.130289
0.355096
0.00863564
-0.126009
0.117372
-0.437973
-0.0133983
0.602469
-0.307975
-0.106998
-0.0236744
0.130671
0.0870385
-0.0979843
-0.0111884
-0.106092
-0.106188
0.0164106
0.0897773
-0.137647
-0.352057
0.0499945
-0.056717
0.0349155
0.00440678
-0.0393223
0.530566
0.0899884
-0.0728538
0.250478
-0.427711
-0.00519912
0.167091
0.142552
0.00955124
0.458794
-0.2448
-0.0592674
0.227663
-0.168405
-0.41059
-0.171552
0.240249
-0.180571
-0.0596877
-0.245084
-0.252688
-0.0877196
-0.0194429
0.0463167
-0.161035
-0.0171293
0.178161
0.0267305
-0.169135
-0.039329
0.0197593
0.0195696
0.0867926
-0.00286881
0.103349
-0.10048
-0.222297
-0.408322
0.100722
0.363152
0.0948213
-0.458009
0.557451
-0.138398
-0.591577
0.442822
0.148724
-0.40704
0.544747
-0.137836
-0.220014
-0.0662928
0.0722615
-0.595066
0.436055
0.158847
0.0754721
0.251322
-0.152799
-0.257529
-0.123573
-0.22576
0.349271
0.180618
-0.0119768
-0.136439
0.0435098
0.0929289
-0.307177
0.105092
-0.546674
-0.209102
0.150963
0.0370901
-0.473297
-0.293268
0.265852
0.0267041
-0.0313582
-0.0979427
-0.226309
0.324207
0.143591
0.319423
-0.463183
0.184872
-0.0436237
-0.437282
0.324488
-0.249044
0.0384868
-0.00357129
-0.0210363
0.382462
-0.0909346
-0.291548
0.184068
-0.173515
-0.0105552
0.306463
-0.0829638
-0.223516
-0.0208054
0.00390218
-0.0361486
0.225006
-0.236585
0.15366
-0.00634768
0.069589
0.539266
-0.0686299
-0.097486
-0.0332527
-0.0932794
-0.507356
0.277158
-0.377504
0.2174
0.1601
0.524446
-0.00543069
-0.0823334
-0.0126028
0.5225
-0.510297
0.234897
-0.358537
-0.347324
0.0612556
0.27593
-0.151652
0.16324
-0.0115904
0.589571
-0.176477
-0.413199
0.117117
-0.0478777
0.255637
0.0486512
0.0675327
0.0148776
0.213747
-0.445121
0.121165
0.323801
0.000528055
0.239906
0.118046
-0.357974
-0.0751284
0.316458
-0.24136
-0.49974
0.32815
0.171451
0.00347003
0.0231509
-0.026621
-0.00749527
0.148328
-0.0287454
0.198388
-0.265151
0.0667542
-0.00646588
-0.0267856
0.160453
0.0143648
-0.173468
-0.302082
-0.123818
0.178132
-0.0172931
0.373015
-0.568403
0.401218
-0.302603
-0.129562
0.000102099
0.129459
-0.234145
-0.185649
-0.180766
-0.0767291
-0.191501
0.252232
-0.312232
0.112653
-0.123744
0.132378
0.0165321
0.061571
-0.472396
0.137687
-0.142806
0.151111
-0.00830543
-0.107281
-0.24391
0.303768
0.105799
-0.357579
0.488817
-0.131394
0.182722
0.407929
0.0757573
-0.0682974
-0.00746
0.0919422
-0.0871877
0.579484
-0.439407
-0.140178
0.157748
-0.605737
0.189761
0.415962
0.118582
-0.462657
0.0206423
0.360135
-0.431748
-0.163547
-0.337967
0.501288
0.024132
0.50027
-0.282684
0.0340383
-0.500137
0.465743
0.319175
-0.0722858
0.068388
0.00736933
0.107124
0.172377
-0.226526
0.054141
0.428106
0.12932
-0.407182
0.00484954
0.125477
-0.0119667
0.0452036
0.0235482
-0.0300141
-0.121389
-0.5016
0.54953
0.339067
-0.502843
-0.0867392
0.335165
0.0404837
-0.42028
-0.159796
0.00557356
-0.0645472
0.0028048
0.131883
-0.134689
-0.0879095
0.252458
-0.582386
0.181282
0.40109
0.296162
-0.0966344
-0.00540723
0.449958
-0.39419
-0.0558269
-0.185603
0.225377
-0.039776
-0.392638
0.558077
-0.428333
-0.129839
-0.366807
0.216999
0.00313262
0.0312722
-0.0344048
-0.179875
0.156289
-0.128139
0.556221
-0.141787
0.156124
-0.0143376
-0.409803
0.00177156
0.107655
-0.464823
0.213061
0.404185
0.164113
-0.568618
-0.0492721
-0.474116
0.0716298
0.378266
0.27395
0.108492
-0.105808
-0.00930325
0.115111
-0.185977
0.244424
-0.0584538
-0.0861175
-0.210676
0.488351
0.0086395
0.119534
0.436361
0.109102
-0.546614
0.250555
-0.207954
0.0313322
0.176302
0.00325388
-0.179559
0.0176485
-0.0191991
-0.215694
0.19585
-0.1973
-0.149395
0.159071
-0.00967929
-0.0118011
0.172252
0.155706
0.409416
0.164991
0.0879006
0.115565
-0.0201541
-0.082929
0.0741746
0.00875429
0.0242756
0.0135979
-0.110222
0.358428
-0.248241
0.287293
-0.502366
0.215006
-0.020239
-0.629384
0.29122
-0.493147
0.0866634
0.198643
0.0752938
-0.273956
0.0189446
-0.349966
0.124807
0.225116
-0.430206
0.0807321
0.0133122
-0.0940444
0.20643
-0.15836
0.0893502
-0.351225
0.261842
-0.179131
0.416792
0.0364412
0.0291764
-0.0656178
0.0756828
-0.0798928
0.00420993
-0.0221796
-0.00274141
0.36628
-0.487954
0.0956583
-0.425637
0.329897
-0.129953
0.45948
0.113691
-0.497029
-0.0223581
-0.168683
0.192883
-0.0242017
0.226505
0.321298
-0.268826
0.0830385
0.185779
-0.199506
0.161098
0.0384039
-0.314089
0.227937
0.0649545
-0.0686192
0.126732
0.367191
-0.494153
-0.114232
0.378549
-0.264348
-0.136931
-0.175336
-0.223698
0.510909
-0.00721204
-0.0757171
0.10851
-0.474316
0.365595
0.557894
-0.16163
0.0125607
0.112245
-0.120893
0.00864717
-0.080786
0.0575378
0.0232478
-0.00509511
0.0862207
-0.0811257
-0.161654
-0.272557
0.434002
0.101314
0.0868538
-0.188172
-0.360997
0.527618
0.0507924
0.320608
-0.532117
0.525129
-0.186689
0.360103
0.0817392
-0.0889513
0.0396683
0.320413
0.14338
-0.172972
0.446833
-0.0837173
-0.579484
0.416524
0.162926
0.130905
-0.430684
-0.144909
0.575576
-0.154117
-0.00383605
0.0265639
0.439091
-0.592831
0.153705
0.34305
0.114896
-0.121963
-0.545135
-0.123205
-0.0854097
-0.114099
-0.075834
0.177144
0.293551
0.109521
-0.403146
-0.497632
-0.14896
-0.374925
0.52375
0.420038
0.137941
-0.564456
0.416164
0.148287
-0.243492
-0.124542
0.496005
-0.371494
0.32789
0.217213
0.0351509
-0.508085
-0.408961
-0.11782
0.526753
-0.0761415
0.260422
-0.184287
-0.176504
0.00819827
0.0389579
0.0081169
-0.159771
0.132351
-0.362502
0.530582
-0.168345
0.553159
-0.453139
-0.100104
0.152578
0.0106593
-0.54978
0.14905
0.400704
0.122591
-0.299747
-0.265524
-0.289913
-0.304972
-0.396795
0.168262
-0.364672
0.259521
0.10512
-0.0620684
0.0470616
0.447002
0.142475
0.587222
-0.148165
0.248307
-0.0564047
-0.191914
-0.598216
0.175326
0.422882
0.625478
-0.185215
-0.440359
-0.0297998
0.317667
0.0960964
-0.326572
0.013877
-0.182561
-0.127791
-0.00342441
0.175806
-0.054872
0.224646
0.19194