/*--------------------------------*- C++ -*----------------------------------*\
| =========                 |                                                 |
| \\      /  F ield         | OpenFOAM: The Open Source CFD Toolbox           |
|  \\    /   O peration     | Version:  v2012                                 |
|   \\  /    A nd           | Website:  www.openfoam.com                      |
|    \\/     M anipulation  |                                                 |
\*---------------------------------------------------------------------------*/
FoamFile
{
    version     2.0;
    format      ascii;
    class       pointVectorField;
    location    "1000";
    object      pointDisplacement;
}
// * * * * * * * * * * * * * * * * * * * * * * * * * * * * * * * * * * * * * //

dimensions      [0 1 0 0 0 0 0];


internalField   nonuniform List<vector> 
14246
(
(0 0 0)
(-0 -7.34641e-05 -0)
(0 0 0)
(-0 -7.34641e-05 -0)
(0 0 0)
(0 0 0)
(0 0 0)
(0 0 0)
(0 0 0)
(0 0 0)
(0 0 0)
(0 0 0)
(0 0 0)
(0 0 0)
(0 0 0)
(0 0 0)
(0 0 0)
(0 0 0)
(0 0 0)
(0 0 0)
(0 0 0)
(0 0 0)
(0 0 0)
(0 0 0)
(0 0 0)
(0 0 0)
(0 0 0)
(0 0 0)
(0 0 0)
(0 0 0)
(0 0 0)
(0 0 0)
(0 0 0)
(0 0 0)
(0 0 0)
(0 0 0)
(0 0 0)
(0 0 0)
(0 0 0)
(0 0 0)
(0 0 0)
(0 0 0)
(0 0 0)
(0 0 0)
(0 0 0)
(0 0 0)
(0 0 0)
(0 0 0)
(0 0 0)
(0 0 0)
(0 0 0)
(0 0 0)
(0 0 0)
(0 0 0)
(0 0 0)
(0 0 0)
(0 0 0)
(0 0 0)
(0 0 0)
(0 0 0)
(0 0 0)
(0 0 0)
(0 0 0)
(0 0 0)
(0 0 0)
(0 0 0)
(0 0 0)
(0 0 0)
(0 0 0)
(0 0 0)
(0 0 0)
(0 0 0)
(0 0 0)
(0 0 0)
(0 0 0)
(-0 -7.34641e-05 -0)
(-0 -7.34641e-05 -0)
(-0 -7.34641e-05 -0)
(-0 -7.34641e-05 -0)
(-0 -7.34641e-05 -0)
(-0 -7.34641e-05 -0)
(-0 -7.34641e-05 -0)
(-0 -7.34641e-05 -0)
(-0 -7.34641e-05 -0)
(-0 -7.34641e-05 -0)
(-0 -7.34641e-05 -0)
(-0 -7.34641e-05 -0)
(-0 -7.34641e-05 -0)
(-0 -7.34641e-05 -0)
(-0 -7.34641e-05 -0)
(-0 -7.34641e-05 -0)
(-0 -7.34641e-05 -0)
(-0 -7.34641e-05 -0)
(-0 -7.34641e-05 -0)
(-0 -7.34641e-05 -0)
(-0 -7.34641e-05 -0)
(-0 -7.34641e-05 -0)
(-0 -7.34641e-05 -0)
(-0 -7.34641e-05 -0)
(-0 -7.34641e-05 -0)
(-0 -7.34641e-05 -0)
(-0 -7.34641e-05 -0)
(-0 -7.34641e-05 -0)
(-0 -7.34641e-05 -0)
(-0 -7.34641e-05 -0)
(-0 -7.34641e-05 -0)
(-0 -7.34641e-05 -0)
(-0 -7.34641e-05 -0)
(-0 -7.34641e-05 -0)
(-0 -7.34641e-05 -0)
(-0 -7.34641e-05 -0)
(-0 -7.34641e-05 -0)
(-0 -7.34641e-05 -0)
(-0 -7.34641e-05 -0)
(-0 -7.34641e-05 -0)
(-0 -7.34641e-05 -0)
(-0 -7.34641e-05 -0)
(-0 -7.34641e-05 -0)
(-0 -7.34641e-05 -0)
(-0 -7.34641e-05 -0)
(-0 -7.34641e-05 -0)
(-0 -7.34641e-05 -0)
(-0 -7.34641e-05 -0)
(-0 -7.34641e-05 -0)
(-0 -7.34641e-05 -0)
(-0 -7.34641e-05 -0)
(-0 -7.34641e-05 -0)
(-0 -7.34641e-05 -0)
(-0 -7.34641e-05 -0)
(-0 -7.34641e-05 -0)
(-0 -7.34641e-05 -0)
(-0 -7.34641e-05 -0)
(-0 -7.34641e-05 -0)
(-0 -7.34641e-05 -0)
(-0 -7.34641e-05 -0)
(-0 -7.34641e-05 -0)
(-0 -7.34641e-05 -0)
(-0 -7.34641e-05 -0)
(-0 -7.34641e-05 -0)
(-0 -7.34641e-05 -0)
(-0 -7.34641e-05 -0)
(-0 -7.34641e-05 -0)
(-0 -7.34641e-05 -0)
(-0 -7.34641e-05 -0)
(-0 -7.34641e-05 -0)
(-0 -7.34641e-05 -0)
(-0 -7.34641e-05 -0)
(-0 -7.34641e-05 -0)
(-0 -7.34641e-05 -0)
(-0 -7.34641e-05 -0)
(-0 -7.34641e-05 -0)
(-0 -7.34641e-05 -0)
(-0 -7.34641e-05 -0)
(-0 -7.34641e-05 -0)
(-0 -7.34641e-05 -0)
(-0 -7.34641e-05 -0)
(-0 -7.34641e-05 -0)
(-0 -7.34641e-05 -0)
(-0 -7.34641e-05 -0)
(-0 -7.34641e-05 -0)
(-0 -7.34641e-05 -0)
(-0 -7.34641e-05 -0)
(-0 -7.34641e-05 -0)
(-0 -7.34641e-05 -0)
(-0 -7.34641e-05 -0)
(-0 -7.34641e-05 -0)
(-0 -7.34641e-05 -0)
(-0 -7.34641e-05 -0)
(-0 -7.34641e-05 -0)
(-0 -7.34641e-05 -0)
(-0 -7.34641e-05 -0)
(-0 -7.34641e-05 -0)
(-0 -7.34641e-05 -0)
(-0 -7.34641e-05 -0)
(-0 -7.34641e-05 -0)
(-0 -7.34641e-05 -0)
(-0 -7.34641e-05 -0)
(-0 -7.34641e-05 -0)
(-0 -7.34641e-05 -0)
(-0 -7.34641e-05 -0)
(-0 -7.34641e-05 -0)
(-0 -7.34641e-05 -0)
(-0 -7.34641e-05 -0)
(-0 -7.34641e-05 -0)
(-0 -7.34641e-05 -0)
(-0 -7.34641e-05 -0)
(-0 -7.34641e-05 -0)
(-0 -7.34641e-05 -0)
(-0 -7.34641e-05 -0)
(-0 -7.34641e-05 -0)
(-0 -7.34641e-05 -0)
(-0 -7.34641e-05 -0)
(-0 -7.34641e-05 -0)
(-0 -7.34641e-05 -0)
(-0 -7.34641e-05 -0)
(-0 -7.34641e-05 -0)
(-0 -7.34641e-05 -0)
(-0 -7.34641e-05 -0)
(-0 -7.34641e-05 -0)
(-0 -7.34641e-05 -0)
(-0 -7.34641e-05 -0)
(-0 -7.34641e-05 -0)
(-0 -7.34641e-05 -0)
(-0 -7.34641e-05 -0)
(-0 -7.34641e-05 -0)
(-0 -7.34641e-05 -0)
(-0 -7.34641e-05 -0)
(-0 -7.34641e-05 -0)
(-0 -7.34641e-05 -0)
(-0 -7.34641e-05 -0)
(0 0 0)
(0 0 0)
(0 0 0)
(0 0 0)
(0 0 0)
(0 0 0)
(0 0 0)
(0 0 0)
(0 0 0)
(0 0 0)
(0 0 0)
(0 0 0)
(0 0 0)
(0 0 0)
(0 0 0)
(0 0 0)
(0 0 0)
(0 0 0)
(0 0 0)
(0 0 0)
(0 0 0)
(0 0 0)
(0 0 0)
(0 0 0)
(0 0 0)
(0 0 0)
(0 0 0)
(0 0 0)
(0 0 0)
(0 0 0)
(0 0 0)
(0 0 0)
(0 0 0)
(0 0 0)
(0 0 0)
(0 0 0)
(0 0 0)
(0 0 0)
(0 0 0)
(0 0 0)
(0 0 0)
(0 0 0)
(0 0 0)
(0 0 0)
(0 0 0)
(0 0 0)
(0 0 0)
(0 0 0)
(0 0 0)
(0 0 0)
(0 0 0)
(0 0 0)
(0 0 0)
(0 0 0)
(0 0 0)
(0 0 0)
(0 0 0)
(0 0 0)
(0 0 0)
(0 0 0)
(0 0 0)
(0 0 0)
(0 0 0)
(0 0 0)
(0 0 0)
(0 0 0)
(0 0 0)
(0 0 0)
(0 0 0)
(0 0 0)
(0 0 0)
(-0 -7.34641e-05 -0)
(-0 -7.34641e-05 -0)
(-0 -7.34641e-05 -0)
(-0 -7.34641e-05 -0)
(-0 -7.34641e-05 -0)
(-0 -7.34641e-05 -0)
(-0 -7.34641e-05 -0)
(-0 -7.34641e-05 -0)
(-0 -7.34641e-05 -0)
(-0 -7.34641e-05 -0)
(-0 -7.34641e-05 -0)
(-0 -7.34641e-05 -0)
(-0 -7.34641e-05 -0)
(-0 -7.34641e-05 -0)
(-0 -7.34641e-05 -0)
(-0 -7.34641e-05 -0)
(-0 -7.34641e-05 -0)
(-0 -7.34641e-05 -0)
(-0 -7.34641e-05 -0)
(-0 -7.34641e-05 -0)
(-0 -7.34641e-05 -0)
(-0 -7.34641e-05 -0)
(-0 -7.34641e-05 -0)
(-0 -7.34641e-05 -0)
(-0 -7.34641e-05 -0)
(-0 -7.34641e-05 -0)
(-0 -7.34641e-05 -0)
(-0 -7.34641e-05 -0)
(-0 -7.34641e-05 -0)
(-0 -7.34641e-05 -0)
(-0 -7.34641e-05 -0)
(-0 -7.34641e-05 -0)
(-0 -7.34641e-05 -0)
(-0 -7.34641e-05 -0)
(-0 -7.34641e-05 -0)
(-0 -7.34641e-05 -0)
(-0 -7.34641e-05 -0)
(-0 -7.34641e-05 -0)
(-0 -7.34641e-05 -0)
(-0 -7.34641e-05 -0)
(-0 -7.34641e-05 -0)
(-0 -7.34641e-05 -0)
(-0 -7.34641e-05 -0)
(-0 -7.34641e-05 -0)
(-0 -7.34641e-05 -0)
(-0 -7.34641e-05 -0)
(-0 -7.34641e-05 -0)
(-0 -7.34641e-05 -0)
(-0 -7.34641e-05 -0)
(-0 -7.34641e-05 -0)
(-0 -7.34641e-05 -0)
(-0 -7.34641e-05 -0)
(-0 -7.34641e-05 -0)
(-0 -7.34641e-05 -0)
(-0 -7.34641e-05 -0)
(-0 -7.34641e-05 -0)
(-0 -7.34641e-05 -0)
(-0 -7.34641e-05 -0)
(-0 -7.34641e-05 -0)
(-0 -7.34641e-05 -0)
(-0 -7.34641e-05 -0)
(-0 -7.34641e-05 -0)
(-0 -7.34641e-05 -0)
(-0 -7.34641e-05 -0)
(-0 -7.34641e-05 -0)
(-0 -7.34641e-05 -0)
(-0 -7.34641e-05 -0)
(-0 -7.34641e-05 -0)
(-0 -7.34641e-05 -0)
(-0 -7.34641e-05 -0)
(-0 -7.34641e-05 -0)
(-0 -7.34641e-05 -0)
(-0 -7.34641e-05 -0)
(-0 -7.34641e-05 -0)
(-0 -7.34641e-05 -0)
(-0 -7.34641e-05 -0)
(-0 -7.34641e-05 -0)
(-0 -7.34641e-05 -0)
(-0 -7.34641e-05 -0)
(-0 -7.34641e-05 -0)
(-0 -7.34641e-05 -0)
(-0 -7.34641e-05 -0)
(-0 -7.34641e-05 -0)
(-0 -7.34641e-05 -0)
(-0 -7.34641e-05 -0)
(-0 -7.34641e-05 -0)
(-0 -7.34641e-05 -0)
(-0 -7.34641e-05 -0)
(-0 -7.34641e-05 -0)
(-0 -7.34641e-05 -0)
(-0 -7.34641e-05 -0)
(-0 -7.34641e-05 -0)
(-0 -7.34641e-05 -0)
(-0 -7.34641e-05 -0)
(-0 -7.34641e-05 -0)
(-0 -7.34641e-05 -0)
(-0 -7.34641e-05 -0)
(-0 -7.34641e-05 -0)
(-0 -7.34641e-05 -0)
(-0 -7.34641e-05 -0)
(-0 -7.34641e-05 -0)
(-0 -7.34641e-05 -0)
(-0 -7.34641e-05 -0)
(-0 -7.34641e-05 -0)
(-0 -7.34641e-05 -0)
(-0 -7.34641e-05 -0)
(-0 -7.34641e-05 -0)
(-0 -7.34641e-05 -0)
(-0 -7.34641e-05 -0)
(-0 -7.34641e-05 -0)
(-0 -7.34641e-05 -0)
(-0 -7.34641e-05 -0)
(-0 -7.34641e-05 -0)
(-0 -7.34641e-05 -0)
(-0 -7.34641e-05 -0)
(-0 -7.34641e-05 -0)
(-0 -7.34641e-05 -0)
(-0 -7.34641e-05 -0)
(-0 -7.34641e-05 -0)
(-0 -7.34641e-05 -0)
(-0 -7.34641e-05 -0)
(-0 -7.34641e-05 -0)
(-0 -7.34641e-05 -0)
(-0 -7.34641e-05 -0)
(-0 -7.34641e-05 -0)
(-0 -7.34641e-05 -0)
(-0 -7.34641e-05 -0)
(-0 -7.34641e-05 -0)
(-0 -7.34641e-05 -0)
(-0 -7.34641e-05 -0)
(-0 -7.34641e-05 -0)
(-0 -7.34641e-05 -0)
(-0 -7.34641e-05 -0)
(-0 -7.34641e-05 -0)
(-0 -7.34641e-05 -0)
(0 -7.3467e-05 0)
(0 -7.34738e-05 0)
(0 -7.34644e-05 0)
(0 -7.34662e-05 0)
(0 -7.34779e-05 0)
(0 -7.34793e-05 0)
(0 -7.34645e-05 0)
(0 -7.34924e-05 0)
(0 -7.34745e-05 0)
(0 -7.34692e-05 0)
(0 -7.3501e-05 0)
(0 -7.34693e-05 0)
(0 -7.34659e-05 0)
(0 -7.34845e-05 0)
(0 -7.34669e-05 0)
(0 -7.39162e-05 0)
(0 -9.18518e-05 0)
(0 -4.12015e-05 0)
(0 -0.000104158 0)
(0 -9.70428e-05 0)
(0 -4.76542e-05 0)
(0 -5.92215e-05 0)
(0 -5.98968e-05 0)
(0 -7.34726e-05 0)
(0 -7.06394e-05 0)
(0 -5.06378e-05 0)
(0 -4.134e-05 0)
(0 -7.34756e-05 0)
(0 -7.3471e-05 0)
(0 -7.34642e-05 0)
(0 -7.34936e-05 0)
(0 -7.34676e-05 0)
(0 -7.34872e-05 0)
(0 -7.34662e-05 0)
(0 -7.34695e-05 0)
(0 -7.34649e-05 0)
(0 -7.3525e-05 0)
(0 -7.34774e-05 0)
(0 -7.34885e-05 0)
(0 -7.34982e-05 0)
(0 -7.34735e-05 0)
(0 -5.97724e-05 0)
(0 -3.16261e-05 0)
(0 -0.000103676 0)
(0 -8.05096e-05 0)
(0 -2.44506e-05 0)
(0 -4.15626e-05 0)
(0 -1.94586e-05 0)
(0 -5.23365e-05 0)
(0 -4.29931e-05 0)
(0 -4.25819e-05 0)
(0 -9.16689e-05 0)
(0 -7.35967e-05 0)
(0 -8.2025e-05 0)
(0 -4.8596e-05 0)
(0 -7.05357e-05 0)
(0 -3.17268e-05 0)
(0 -1.78467e-05 0)
(0 -8.75589e-06 0)
(0 -5.21951e-05 0)
(0 -9.38106e-05 0)
(0 -8.3595e-05 0)
(0 -0.000122938 0)
(0 -0.000110811 0)
(0 -0.000145894 0)
(0 -0.000137503 0)
(0 -0.000168454 0)
(0 -0.000163608 0)
(0 -0.00018814 0)
(0 -0.000185144 0)
(0 -0.000203991 0)
(0 -0.00020214 0)
(0 -0.000218091 0)
(0 -0.000216613 0)
(0 -0.000230871 0)
(0 -0.000235953 0)
(0 -0.000243869 0)
(0 -0.000249795 0)
(0 -0.00025089 0)
(0 -0.000255572 0)
(0 -0.000251608 0)
(0 -0.000255146 0)
(0 -0.000248867 0)
(0 -0.000252366 0)
(0 -0.000245788 0)
(0 -0.000248246 0)
(0 -0.000242682 0)
(0 -0.000242794 0)
(0 -0.000237173 0)
(0 -0.000235356 0)
(0 -0.000229657 0)
(0 -0.000228118 0)
(0 -0.000223667 0)
(0 -0.000222869 0)
(0 -0.000218984 0)
(0 -0.00021683 0)
(0 -0.000213021 0)
(0 -0.00020845 0)
(0 -0.000205077 0)
(0 -0.000198745 0)
(0 -0.000195831 0)
(0 -0.000188594 0)
(0 -0.000202591 0)
(0 -0.000193588 0)
(0 -0.000200709 0)
(0 -0.000192108 0)
(0 -0.000199414 0)
(0 -0.000191515 0)
(0 -0.00019946 0)
(0 -0.000192245 0)
(0 -0.000201406 0)
(0 -0.000194613 0)
(0 -0.00020444 0)
(0 -0.000197982 0)
(0 -0.000208634 0)
(0 -0.000201579 0)
(0 -0.00021354 0)
(0 -0.000205923 0)
(0 -0.000217971 0)
(0 -0.000210319 0)
(0 -0.00018469 0)
(0 -0.000221888 0)
(0 -0.000213997 0)
(0 -0.00022519 0)
(0 -0.000217063 0)
(0 -0.000227942 0)
(0 -0.000219938 0)
(0 -0.000230255 0)
(0 -0.00022273 0)
(0 -0.000239874 0)
(0 -0.00023244 0)
(0 -0.000225619 0)
(0 -0.00023513 0)
(0 -0.000228607 0)
(0 -0.000238686 0)
(0 -0.000232368 0)
(0 -0.000242905 0)
(0 -0.000236352 0)
(0 -0.000248 0)
(0 -0.000241521 0)
(0 -0.00025472 0)
(0 -0.00024799 0)
(0 -0.000261187 0)
(0 -0.000203846 0)
(0 -0.000262183 0)
(0 -0.000254932 0)
(0 -0.000269494 0)
(0 -0.000261788 0)
(0 -0.000247753 0)
(0 -0.000253717 0)
(0 -0.000267958 0)
(0 -0.00025924 0)
(0 -0.000245307 0)
(0 -0.000250191 0)
(0 -0.000263793 0)
(0 -0.000253744 0)
(0 -0.000240711 0)
(0 -0.000243241 0)
(0 -0.000256156 0)
(0 -0.000245159 0)
(0 -0.00025802 0)
(0 -0.000246696 0)
(0 -0.000234728 0)
(0 -0.000236013 0)
(0 -0.00024811 0)
(0 -0.000237561 0)
(0 -0.0002243 0)
(0 -0.000227919 0)
(0 -0.000239168 0)
(0 -0.000230385 0)
(0 -0.000219178 0)
(0 -0.000222891 0)
(0 -0.000234578 0)
(0 -0.000225436 0)
(0 -0.000215076 0)
(0 -0.00021725 0)
(0 -0.000227661 0)
(0 -0.000219536 0)
(0 -0.00023032 0)
(0 -0.00022176 0)
(0 -0.000210334 0)
(0 -0.000211941 0)
(0 -0.000223651 0)
(0 -0.000213173 0)
(0 -0.00022486 0)
(0 -0.000213856 0)
(0 -0.000202422 0)
(0 -0.000202839 0)
(0 -0.000214236 0)
(0 -0.000203527 0)
(0 -0.000192546 0)
(0 -0.000193451 0)
(0 -0.000204264 0)
(0 -0.000194849 0)
(0 -0.000205186 0)
(0 -0.000196676 0)
(0 -0.000186613 0)
(0 -0.000188492 0)
(0 -0.00019823 0)
(0 -0.000189501 0)
(0 -0.000179985 0)
(0 -0.000180283 0)
(0 -0.000189792 0)
(0 -0.000180592 0)
(0 -0.000190124 0)
(0 -0.000181322 0)
(0 -0.00019044 0)
(0 -0.000182277 0)
(0 -0.000173074 0)
(0 -0.000174387 0)
(0 -0.000182878 0)
(0 -0.00017491 0)
(0 -0.000166348 0)
(0 -0.000166754 0)
(0 -0.000174966 0)
(0 -0.000167197 0)
(0 -0.000175247 0)
(0 -0.000167797 0)
(0 -0.000245132 0)
(0 -0.000219236 0)
(0 -0.000192667 0)
(0 -0.000181756 0)
(0 -0.000187839 0)
(0 -0.000176345 0)
(0 -0.000184533 0)
(0 -0.000220746 0)
(0 -0.00010456 0)
(0 -0.000100687 0)
(0 -0.000102652 0)
(0 -9.88174e-05 0)
(0 -0.000100922 0)
(0 -9.70871e-05 0)
(0 -9.92342e-05 0)
(0 -9.55292e-05 0)
(0 -0.000241147 0)
(0 -9.77689e-05 0)
(0 -9.45368e-05 0)
(0 -0.000108067 0)
(0 -9.68502e-05 0)
(0 -9.42084e-05 0)
(0 -9.33552e-05 0)
(0 -9.65282e-05 0)
(0 -9.44395e-05 0)
(0 -9.96454e-05 0)
(0 -9.67966e-05 0)
(0 -9.51669e-05 0)
(0 -9.26771e-05 0)
(0 -9.37625e-05 0)
(0 -9.62784e-05 0)
(0 -9.50942e-05 0)
(0 -9.77431e-05 0)
(0 -9.66313e-05 0)
(0 -9.38048e-05 0)
(0 -9.53064e-05 0)
(0 -0.00024053 0)
(0 -9.22838e-05 0)
(0 -9.37783e-05 0)
(0 -9.69706e-05 0)
(0 -9.55142e-05 0)
(0 -9.22461e-05 0)
(0 -9.41427e-05 0)
(0 -9.75412e-05 0)
(0 -9.62937e-05 0)
(0 -9.27962e-05 0)
(0 -9.49368e-05 0)
(0 -9.13296e-05 0)
(0 -9.35432e-05 0)
(0 -9.72902e-05 0)
(0 -9.59627e-05 0)
(0 -9.21812e-05 0)
(0 -9.45689e-05 0)
(0 -9.09651e-05 0)
(0 -9.32664e-05 0)
(0 -8.9978e-05 0)
(0 -9.22772e-05 0)
(0 -8.92175e-05 0)
(0 -9.16076e-05 0)
(0 -8.86791e-05 0)
(0 -9.10979e-05 0)
(0 -8.82523e-05 0)
(0 -9.06019e-05 0)
(0 -8.78487e-05 0)
(0 -9.00909e-05 0)
(0 -8.74932e-05 0)
(0 -8.96167e-05 0)
(0 -8.72441e-05 0)
(0 -8.91925e-05 0)
(0 -8.69498e-05 0)
(0 -8.87367e-05 0)
(0 -8.66133e-05 0)
(0 -8.82852e-05 0)
(0 -8.63731e-05 0)
(0 -8.80774e-05 0)
(0 -8.62629e-05 0)
(0 -8.80021e-05 0)
(0 -8.61995e-05 0)
(0 -8.79219e-05 0)
(0 -8.60726e-05 0)
(0 -8.77944e-05 0)
(0 -8.5876e-05 0)
(0 -8.75255e-05 0)
(0 -8.56275e-05 0)
(0 -8.72367e-05 0)
(0 -8.5335e-05 0)
(0 -8.69683e-05 0)
(0 -8.50592e-05 0)
(0 -8.67379e-05 0)
(0 -8.48451e-05 0)
(0 -8.64947e-05 0)
(0 -8.47183e-05 0)
(0 -8.63204e-05 0)
(0 -8.4582e-05 0)
(0 -8.61696e-05 0)
(0 -8.4383e-05 0)
(0 -8.5919e-05 0)
(0 -8.4108e-05 0)
(0 -8.55998e-05 0)
(0 -8.38096e-05 0)
(0 -8.52303e-05 0)
(0 -8.34981e-05 0)
(0 -8.48876e-05 0)
(0 -8.32062e-05 0)
(0 -8.45803e-05 0)
(0 -8.29588e-05 0)
(0 -8.43234e-05 0)
(0 -8.27825e-05 0)
(0 -8.40961e-05 0)
(0 -8.26139e-05 0)
(0 -8.38836e-05 0)
(0 -8.24886e-05 0)
(0 -8.37792e-05 0)
(0 -8.24986e-05 0)
(0 -8.38105e-05 0)
(0 -8.26297e-05 0)
(0 -8.4e-05 0)
(0 -8.28464e-05 0)
(0 -8.42934e-05 0)
(0 -8.31207e-05 0)
(0 -8.45911e-05 0)
(0 -8.33459e-05 0)
(0 -8.49298e-05 0)
(0 -8.35269e-05 0)
(0 -8.51521e-05 0)
(0 -8.36527e-05 0)
(0 -8.52359e-05 0)
(0 -8.37875e-05 0)
(0 -8.53643e-05 0)
(0 -8.39519e-05 0)
(0 -8.5533e-05 0)
(0 -8.4097e-05 0)
(0 -8.56716e-05 0)
(0 -8.42297e-05 0)
(0 -8.57332e-05 0)
(0 -8.42548e-05 0)
(0 -8.56517e-05 0)
(0 -8.42249e-05 0)
(0 -8.5581e-05 0)
(0 -8.41413e-05 0)
(0 -8.54009e-05 0)
(0 -8.39014e-05 0)
(0 -8.50627e-05 0)
(0 -8.3535e-05 0)
(0 -8.46704e-05 0)
(0 -8.30571e-05 0)
(0 -8.41615e-05 0)
(0 -8.25052e-05 0)
(0 -8.36545e-05 0)
(0 -8.20493e-05 0)
(0 -8.32265e-05 0)
(0 -8.17289e-05 0)
(0 -8.29166e-05 0)
(0 -8.15071e-05 0)
(0 -8.27454e-05 0)
(0 -8.13915e-05 0)
(0 -8.26442e-05 0)
(0 -8.12236e-05 0)
(0 -8.24584e-05 0)
(0 -8.09172e-05 0)
(0 -7.98471e-05 0)
(0 -7.94608e-05 0)
(0 -8.05149e-05 0)
(0 -7.90215e-05 0)
(0 -8.09665e-05 0)
(0 -8.29511e-05 0)
(0 -8.2697e-05 0)
(0 -8.22051e-05 0)
(0 -8.13966e-05 0)
(0 -8.16172e-05 0)
(0 -8.55652e-05 0)
(0 -8.72189e-05 0)
(0 -8.8588e-05 0)
(0 -8.9966e-05 0)
(0 -9.10718e-05 0)
(0 -8.25509e-05 0)
(0 -8.68879e-05 0)
(0 -8.59463e-05 0)
(0 -8.7156e-05 0)
(0 -9.42269e-05 0)
(0 -8.32711e-05 0)
(0 -8.41875e-05 0)
(0 -9.96654e-05 0)
(0 -8.41764e-05 0)
(0 -8.45978e-05 0)
(0 -0.000172672 0)
(0 -0.000182312 0)
(0 -8.55721e-05 0)
(0 -8.53981e-05 0)
(0 -8.70985e-05 0)
(0 -0.000171496 0)
(0 -0.00018293 0)
(0 -0.000172368 0)
(0 -0.000182427 0)
(0 -0.000174879 0)
(0 -0.000184192 0)
(0 -0.000190823 0)
(0 -0.000192539 0)
(0 -0.000198977 0)
(0 -0.000200673 0)
(0 -0.000208229 0)
(0 -0.000209229 0)
(0 -0.000186688 0)
(0 -0.00016323 0)
(0 -0.000217726 0)
(0 -0.000216397 0)
(0 -0.000224062 0)
(0 -0.000220137 0)
(0 -0.000215244 0)
(0 -0.000217215 0)
(0 -0.000213912 0)
(0 -0.000220829 0)
(0 -0.000173949 0)
(0 -7.62511e-05 0)
(0 -7.70261e-05 0)
(0 -7.66404e-05 0)
(0 -7.59209e-05 0)
(0 -7.62493e-05 0)
(0 -7.55917e-05 0)
(0 -7.59212e-05 0)
(0 -7.53249e-05 0)
(0 -7.56663e-05 0)
(0 -7.51366e-05 0)
(0 -7.54808e-05 0)
(0 -7.50145e-05 0)
(0 -7.53725e-05 0)
(0 -7.49507e-05 0)
(0 -7.53142e-05 0)
(0 -7.49233e-05 0)
(0 -7.66175e-05 0)
(0 -7.53094e-05 0)
(0 -7.49245e-05 0)
(0 -7.57661e-05 0)
(0 -0.000207884 0)
(0 -7.53522e-05 0)
(0 -7.49561e-05 0)
(0 -0.000228071 0)
(0 -0.00025611 0)
(0 -7.54099e-05 0)
(0 -7.50254e-05 0)
(0 -7.48591e-05 0)
(0 -0.000275058 0)
(0 -0.000269802 0)
(0 -0.0002785 0)
(0 -0.000283182 0)
(0 -0.00028628 0)
(0 -0.000282353 0)
(0 -0.000290416 0)
(0 -0.0002869 0)
(0 -0.000294071 0)
(0 -0.000296909 0)
(0 -0.000301387 0)
(0 -0.000297894 0)
(0 -0.000309313 0)
(0 -0.000312341 0)
(0 -0.000324279 0)
(0 -0.000319042 0)
(0 -0.00033419 0)
(0 -0.000326287 0)
(0 -0.000339197 0)
(0 -0.000347377 0)
(0 -0.000349951 0)
(0 -0.000339431 0)
(0 -0.000348803 0)
(0 -0.000359907 0)
(0 -0.000360373 0)
(0 -0.000347597 0)
(0 -0.000361676 0)
(0 -0.000375213 0)
(0 -0.000378651 0)
(0 -0.000364749 0)
(0 -0.000382538 0)
(0 -0.000396207 0)
(0 -0.000401301 0)
(0 -0.00038722 0)
(0 -0.000405705 0)
(0 -0.000392614 0)
(0 -0.000409949 0)
(0 -0.000421154 0)
(0 -0.000424423 0)
(0 -0.000414961 0)
(0 -0.000428138 0)
(0 -0.000433844 0)
(0 -0.000436916 0)
(0 -0.000433022 0)
(0 -0.000440922 0)
(0 -0.000443434 0)
(0 -0.000448822 0)
(0 -0.000445932 0)
(0 -0.000453663 0)
(0 -0.000449841 0)
(0 -0.00045677 0)
(0 -0.000459386 0)
(0 -0.00046062 0)
(0 -0.000457113 0)
(0 -0.000458236 0)
(0 -0.000453543 0)
(0 -0.000452162 0)
(0 -0.000447187 0)
(0 -0.000444921 0)
(0 -0.000439991 0)
(0 -0.000438044 0)
(0 -0.000442448 0)
(0 -0.000437521 0)
(0 -0.000431274 0)
(0 -0.00043335 0)
(0 -0.000424706 0)
(0 -0.000429251 0)
(0 -0.000417618 0)
(0 -0.000423793 0)
(0 -0.000410643 0)
(0 -0.00041738 0)
(0 -0.000426808 0)
(0 -0.000418554 0)
(0 -0.000424507 0)
(0 -0.000414903 0)
(0 -0.000419401 0)
(0 -0.000409199 0)
(0 -0.000412286 0)
(0 -0.000402025 0)
(0 -0.000460984 0)
(0 -0.000404553 0)
(0 -0.000402803 0)
(0 -0.000394136 0)
(0 -0.000413243 0)
(0 -0.000392149 0)
(0 -0.000385845 0)
(0 -0.000386388 0)
(0 -0.000381468 0)
(0 -0.000378055 0)
(0 -0.000376875 0)
(0 -0.000446444 0)
(0 -0.00040253 0)
(0 -0.000365779 0)
(0 -0.000363371 0)
(0 -0.000158313 0)
(0 -0.000171299 0)
(0 -0.000199258 0)
(0 -0.000182601 0)
(0 -7.37706e-05 0)
(0 -7.37154e-05 0)
(0 -7.38771e-05 0)
(0 -7.38108e-05 0)
(0 -7.39811e-05 0)
(0 -7.39011e-05 0)
(0 -7.40848e-05 0)
(0 -7.39812e-05 0)
(0 -7.41669e-05 0)
(0 -7.40472e-05 0)
(0 -7.42318e-05 0)
(0 -7.40979e-05 0)
(0 -7.42852e-05 0)
(0 -7.414e-05 0)
(0 -7.43303e-05 0)
(0 -7.41736e-05 0)
(0 -7.43688e-05 0)
(0 -7.42034e-05 0)
(0 -7.43979e-05 0)
(0 -7.42314e-05 0)
(0 -7.44197e-05 0)
(0 -7.42555e-05 0)
(0 -7.44337e-05 0)
(0 -7.42738e-05 0)
(0 -7.44376e-05 0)
(0 -7.42797e-05 0)
(0 -7.44287e-05 0)
(0 -7.42733e-05 0)
(0 -7.44139e-05 0)
(0 -7.42658e-05 0)
(0 -7.44059e-05 0)
(0 -7.42696e-05 0)
(0 -7.44189e-05 0)
(0 -7.42796e-05 0)
(0 -7.44339e-05 0)
(0 -7.42846e-05 0)
(0 -7.44378e-05 0)
(0 -7.428e-05 0)
(0 -7.444e-05 0)
(0 -7.42744e-05 0)
(0 -7.44402e-05 0)
(0 -7.42677e-05 0)
(0 -7.44446e-05 0)
(0 -7.42631e-05 0)
(0 -7.44393e-05 0)
(0 -7.42662e-05 0)
(0 -7.44271e-05 0)
(0 -7.42724e-05 0)
(0 -7.44324e-05 0)
(0 -7.4283e-05 0)
(0 -7.44453e-05 0)
(0 -7.42908e-05 0)
(0 -7.44525e-05 0)
(0 -7.42925e-05 0)
(0 -7.44544e-05 0)
(0 -7.42919e-05 0)
(0 -7.445e-05 0)
(0 -7.42841e-05 0)
(0 -7.44307e-05 0)
(0 -7.42596e-05 0)
(0 -7.43982e-05 0)
(0 -7.42255e-05 0)
(0 -7.43643e-05 0)
(0 -7.4189e-05 0)
(0 -7.43315e-05 0)
(0 -7.41612e-05 0)
(0 -7.4309e-05 0)
(0 -7.41445e-05 0)
(0 -7.42998e-05 0)
(0 -7.41352e-05 0)
(0 -7.42922e-05 0)
(0 -7.41301e-05 0)
(0 -7.42866e-05 0)
(0 -7.41267e-05 0)
(0 -7.42783e-05 0)
(0 -7.41239e-05 0)
(0 -7.42702e-05 0)
(0 -7.41213e-05 0)
(0 -7.42632e-05 0)
(0 -7.41135e-05 0)
(0 -7.42499e-05 0)
(0 -7.40988e-05 0)
(0 -7.4234e-05 0)
(0 -7.40836e-05 0)
(0 -7.42162e-05 0)
(0 -7.40648e-05 0)
(0 -7.41934e-05 0)
(0 -7.4047e-05 0)
(0 -7.41729e-05 0)
(0 -7.40383e-05 0)
(0 -7.41568e-05 0)
(0 -7.40371e-05 0)
(0 -7.4155e-05 0)
(0 -7.38917e-05 0)
(0 -7.40394e-05 0)
(0 -7.41662e-05 0)
(0 -7.4044e-05 0)
(0 -7.41834e-05 0)
(0 -7.40522e-05 0)
(0 -7.42079e-05 0)
(0 -7.40693e-05 0)
(0 -7.4068e-05 0)
(0 -7.42351e-05 0)
(0 -7.4086e-05 0)
(0 -7.42539e-05 0)
(0 -7.40928e-05 0)
(0 -7.4256e-05 0)
(0 -7.41216e-05 0)
(0 -7.40906e-05 0)
(0 -7.42416e-05 0)
(0 -7.40817e-05 0)
(0 -7.42284e-05 0)
(0 -7.40739e-05 0)
(0 -7.42247e-05 0)
(0 -7.41447e-05 0)
(0 -7.4072e-05 0)
(0 -7.42261e-05 0)
(0 -7.40706e-05 0)
(0 -7.42333e-05 0)
(0 -7.41245e-05 0)
(0 -7.40718e-05 0)
(0 -7.42451e-05 0)
(0 -7.40734e-05 0)
(0 -7.42488e-05 0)
(0 -7.40732e-05 0)
(0 -7.42404e-05 0)
(0 -7.41421e-05 0)
(0 -7.40711e-05 0)
(0 -7.42297e-05 0)
(0 -7.40656e-05 0)
(0 -7.42224e-05 0)
(0 -7.40635e-05 0)
(0 -7.42264e-05 0)
(0 -7.46009e-05 0)
(0 -7.46164e-05 0)
(0 -7.43691e-05 0)
(0 -7.42985e-05 0)
(0 -7.4425e-05 0)
(0 -7.45338e-05 0)
(0 -7.40269e-05 0)
(0 -7.46302e-05 0)
(0 -7.40693e-05 0)
(0 -7.42432e-05 0)
(0 -7.44461e-05 0)
(0 -7.40837e-05 0)
(0 -7.42639e-05 0)
(0 -7.41016e-05 0)
(0 -7.42843e-05 0)
(0 -7.44463e-05 0)
(0 -7.44241e-05 0)
(0 -7.40031e-05 0)
(0 -7.41125e-05 0)
(0 -7.43012e-05 0)
(0 -7.45962e-05 0)
(0 -7.39596e-05 0)
(0 -7.39895e-05 0)
(0 -7.41212e-05 0)
(0 -7.43184e-05 0)
(0 -7.41397e-05 0)
(0 -7.43357e-05 0)
(0 -7.39359e-05 0)
(0 -7.41523e-05 0)
(0 -7.43456e-05 0)
(0 -7.39289e-05 0)
(0 -7.45588e-05 0)
(0 -7.41476e-05 0)
(0 -7.43558e-05 0)
(0 -7.39221e-05 0)
(0 -7.41526e-05 0)
(0 -7.43782e-05 0)
(0 -7.39388e-05 0)
(0 -7.41736e-05 0)
(0 -7.39409e-05 0)
(0 -7.39325e-05 0)
(0 -0.000349332 0)
(0 -0.000350546 0)
(0 -0.000245587 0)
(0 -7.46211e-05 0)
(0 -0.000345701 0)
(0 -0.000357023 0)
(0 -7.46028e-05 0)
(0 -7.39269e-05 0)
(0 -7.46164e-05 0)
(0 -7.44905e-05 0)
(0 -7.43839e-05 0)
(0 -7.43237e-05 0)
(0 -7.4426e-05 0)
(0 -7.44101e-05 0)
(0 -7.54954e-05 0)
(0 -7.59459e-05 0)
(0 -0.000103046 0)
(0 -0.000106777 0)
(0 -0.000103662 0)
(0 -0.000107286 0)
(0 -0.000104198 0)
(0 -0.000107716 0)
(0 -0.000104775 0)
(0 -0.000108402 0)
(0 -0.000105557 0)
(0 -0.000109459 0)
(0 -0.00010639 0)
(0 -0.000110321 0)
(0 -0.000107071 0)
(0 -0.000110871 0)
(0 -0.000107689 0)
(0 -0.000111347 0)
(0 -0.000108334 0)
(0 -0.000111986 0)
(0 -0.000108892 0)
(0 -0.000112738 0)
(0 -0.000109457 0)
(0 -0.00011329 0)
(0 -0.000109915 0)
(0 -0.0001137 0)
(0 -0.000110062 0)
(0 -0.00011403 0)
(0 -0.000110266 0)
(0 -0.000114481 0)
(0 -0.000118375 0)
(0 -0.000119096 0)
(0 -0.000115054 0)
(0 -0.000119722 0)
(0 -0.000115584 0)
(0 -0.000120375 0)
(0 -0.000116084 0)
(0 -0.000121291 0)
(0 -0.000116566 0)
(0 -0.000122051 0)
(0 -0.000117114 0)
(0 -0.000122643 0)
(0 -0.000117878 0)
(0 -0.000123747 0)
(0 -0.000118726 0)
(0 -0.000124796 0)
(0 -0.000119735 0)
(0 -0.000125508 0)
(0 -0.000120825 0)
(0 -0.000126649 0)
(0 -0.000121908 0)
(0 -0.00012797 0)
(0 -0.00012297 0)
(0 -0.000128826 0)
(0 -0.000123965 0)
(0 -0.000129678 0)
(0 -0.000124784 0)
(0 -0.000130357 0)
(0 -0.000125411 0)
(0 -0.000131018 0)
(0 -0.00012584 0)
(0 -0.000131626 0)
(0 -0.000126028 0)
(0 -0.000131756 0)
(0 -0.000137634 0)
(0 -0.000137833 0)
(0 -0.000131786 0)
(0 -0.000137932 0)
(0 -0.000131687 0)
(0 -0.00013803 0)
(0 -0.000131622 0)
(0 -0.000138166 0)
(0 -0.000131734 0)
(0 -0.000138392 0)
(0 -0.000131984 0)
(0 -0.000138672 0)
(0 -0.000132259 0)
(0 -0.00013893 0)
(0 -0.000133555 0)
(0 -0.000132485 0)
(0 -0.000139083 0)
(0 -0.000127793 0)
(0 -0.000144893 0)
(0 -0.000116866 0)
(0 -0.000114664 0)
(0 -0.000112146 0)
(0 -0.000145926 0)
(0 -0.000146014 0)
(0 -0.000139257 0)
(0 -0.00014615 0)
(0 -0.000139601 0)
(0 -0.000146646 0)
(0 -0.000140357 0)
(0 -0.000147796 0)
(0 -0.000141956 0)
(0 -0.000149285 0)
(0 -0.000143441 0)
(0 -0.000135779 0)
(0 -0.000125385 0)
(0 -0.000123139 0)
(0 -0.000143779 0)
(0 -7.46128e-05 0)
(0 -7.46504e-05 0)
(0 -7.49185e-05 0)
(0 -7.49628e-05 0)
(0 -7.39471e-05 0)
(0 -0.000150705 0)
(0 -0.000144605 0)
(0 -7.52922e-05 0)
(0 -7.53459e-05 0)
(0 -0.000152264 0)
(0 -0.00014638 0)
(0 -7.34925e-05 0)
(0 -7.35045e-05 0)
(0 -7.35022e-05 0)
(0 -7.35144e-05 0)
(0 -7.35093e-05 0)
(0 -7.35201e-05 0)
(0 -7.35132e-05 0)
(0 -7.35228e-05 0)
(0 -7.35151e-05 0)
(0 -7.35237e-05 0)
(0 -7.35153e-05 0)
(0 -7.35237e-05 0)
(0 -7.3515e-05 0)
(0 -7.35245e-05 0)
(0 -7.35144e-05 0)
(0 -7.35252e-05 0)
(0 -7.35133e-05 0)
(0 -7.35236e-05 0)
(0 -7.35113e-05 0)
(0 -7.35208e-05 0)
(0 -0.000154222 0)
(0 -0.000148515 0)
(0 -0.000156444 0)
(0 -0.000150697 0)
(0 -0.000333091 0)
(0 -0.00033275 0)
(0 -0.000339361 0)
(0 -0.000348022 0)
(0 -0.000153802 0)
(0 -0.000440446 0)
(0 -7.35091e-05 0)
(0 -7.35181e-05 0)
(0 -7.39608e-05 0)
(0 -7.35074e-05 0)
(0 -7.35175e-05 0)
(0 -7.35082e-05 0)
(0 -7.35198e-05 0)
(0 -0.000228245 0)
(0 -7.46418e-05 0)
(0 -7.35108e-05 0)
(0 -7.35236e-05 0)
(0 -0.000152978 0)
(0 -7.60871e-05 0)
(0 -7.66296e-05 0)
(0 -0.000225089 0)
(0 -7.35382e-05 0)
(0 -7.46243e-05 0)
(0 -7.35134e-05 0)
(0 -7.3527e-05 0)
(0 -7.35405e-05 0)
(0 -7.35447e-05 0)
(0 -7.35298e-05 0)
(0 -7.35478e-05 0)
(0 -7.35317e-05 0)
(0 -7.35501e-05 0)
(0 -7.35329e-05 0)
(0 -7.35516e-05 0)
(0 -7.35327e-05 0)
(0 -7.35513e-05 0)
(0 -7.35311e-05 0)
(0 -7.355e-05 0)
(0 -7.35287e-05 0)
(0 -7.35476e-05 0)
(0 -0.000143344 0)
(0 -0.00014529 0)
(0 -0.000152516 0)
(0 -0.000146694 0)
(0 -0.000110741 0)
(0 -7.35259e-05 0)
(0 -7.3544e-05 0)
(0 -7.35227e-05 0)
(0 -7.3541e-05 0)
(0 -0.00013979 0)
(0 -0.000140612 0)
(0 -0.000147464 0)
(0 -0.000140921 0)
(0 -0.00014786 0)
(0 -0.000140797 0)
(0 -0.00014779 0)
(0 -0.000140859 0)
(0 -0.000133796 0)
(0 -0.000134489 0)
(0 -0.000141182 0)
(0 -0.000135417 0)
(0 -0.000129093 0)
(0 -0.000130724 0)
(0 -0.000124905 0)
(0 -0.000127202 0)
(0 -0.000132439 0)
(0 -0.000129814 0)
(0 -0.00013445 0)
(0 -0.000132532 0)
(0 -0.000128477 0)
(0 -0.000131712 0)
(0 -0.000128254 0)
(0 -0.000131785 0)
(0 -0.000128777 0)
(0 -0.000132816 0)
(0 -0.000129953 0)
(0 -0.000134517 0)
(0 -0.000131932 0)
(0 -0.000136988 0)
(0 -0.000134875 0)
(0 -0.000140815 0)
(0 -0.000138982 0)
(0 -0.000145727 0)
(0 -0.000136099 0)
(0 -0.000143856 0)
(0 -0.000150671 0)
(0 -0.00014833 0)
(0 -0.000155253 0)
(0 -0.000152442 0)
(0 -0.00015921 0)
(0 -7.39588e-05 0)
(0 -7.35195e-05 0)
(0 -7.352e-05 0)
(0 -7.35396e-05 0)
(0 -7.57741e-05 0)
(0 -7.58143e-05 0)
(0 -0.000331419 0)
(0 -0.000337368 0)
(0 -0.000318842 0)
(0 -0.000315585 0)
(0 -0.00031203 0)
(0 -0.000125584 0)
(0 -7.85829e-05 0)
(0 -0.000133298 0)
(0 -7.35189e-05 0)
(0 -7.35378e-05 0)
(0 -7.35174e-05 0)
(0 -7.35354e-05 0)
(0 -7.35143e-05 0)
(0 -7.35326e-05 0)
(0 -7.35597e-05 0)
(0 -7.35569e-05 0)
(0 -7.35299e-05 0)
(0 -7.35536e-05 0)
(0 -7.35275e-05 0)
(0 -7.35494e-05 0)
(0 -7.35248e-05 0)
(0 -7.35446e-05 0)
(0 -7.35221e-05 0)
(0 -7.35418e-05 0)
(0 -0.000115118 0)
(0 -0.000111385 0)
(0 -0.000112597 0)
(0 -7.35631e-05 0)
(0 -7.3521e-05 0)
(0 -7.35398e-05 0)
(0 -7.35209e-05 0)
(0 -7.35381e-05 0)
(0 -7.35742e-05 0)
(0 -7.35203e-05 0)
(0 -7.3537e-05 0)
(0 -7.3568e-05 0)
(0 -0.000221334 0)
(0 -0.00013847 0)
(0 -7.56912e-05 0)
(0 -0.000119144 0)
(0 -0.000158919 0)
(0 -0.00013386 0)
(0 -0.000126317 0)
(0 -0.000120662 0)
(0 -7.35319e-05 0)
(0 -0.000139457 0)
(0 -7.35007e-05 0)
(0 -0.000100093 0)
(0 -7.62822e-05 0)
(0 -7.61802e-05 0)
(0 -7.35338e-05 0)
(0 -7.49633e-05 0)
(0 -7.68537e-05 0)
(0 -7.75004e-05 0)
(0 -7.35196e-05 0)
(0 -7.3536e-05 0)
(0 -0.000320064 0)
(0 -0.000325151 0)
(0 -0.000154803 0)
(0 -0.000103493 0)
(0 -7.35667e-05 0)
(0 -0.000106483 0)
(0 -0.000124347 0)
(0 -7.35185e-05 0)
(0 -7.35344e-05 0)
(0 -7.35168e-05 0)
(0 -7.35315e-05 0)
(0 -7.35538e-05 0)
(0 -7.35494e-05 0)
(0 -7.35274e-05 0)
(0 -7.35438e-05 0)
(0 -7.35231e-05 0)
(0 -7.35396e-05 0)
(0 -7.35192e-05 0)
(0 -7.35367e-05 0)
(0 -7.35159e-05 0)
(0 -7.35335e-05 0)
(0 -7.35709e-05 0)
(0 -0.000105687 0)
(0 -7.35089e-05 0)
(0 -0.00029504 0)
(0 -0.000287604 0)
(0 -0.000303955 0)
(0 -0.000276935 0)
(0 -0.000292998 0)
(0 -0.000264362 0)
(0 -0.000279023 0)
(0 -0.000249967 0)
(0 -0.000263028 0)
(0 -7.35127e-05 0)
(0 -7.35294e-05 0)
(0 -7.35093e-05 0)
(0 -7.35253e-05 0)
(0 -0.000137191 0)
(0 -7.35059e-05 0)
(0 -7.35227e-05 0)
(0 -7.35465e-05 0)
(0 -7.35427e-05 0)
(0 -7.35208e-05 0)
(0 -7.35383e-05 0)
(0 -7.35169e-05 0)
(0 -7.35329e-05 0)
(0 -7.35122e-05 0)
(0 -7.35285e-05 0)
(0 -7.35731e-05 0)
(0 -7.35031e-05 0)
(0 -0.000204343 0)
(0 -0.000340676 0)
(0 -0.00032738 0)
(0 -7.69093e-05 0)
(0 -7.68069e-05 0)
(0 -0.000134467 0)
(0 -7.35909e-05 0)
(0 -0.000234973 0)
(0 -7.35091e-05 0)
(0 -7.35257e-05 0)
(0 -7.35067e-05 0)
(0 -7.35227e-05 0)
(0 -7.35041e-05 0)
(0 -7.35192e-05 0)
(0 -7.35458e-05 0)
(0 -0.000191764 0)
(0 -0.000160741 0)
(0 -0.000170947 0)
(0 -0.000132359 0)
(0 -7.35167e-05 0)
(0 -0.000141933 0)
(0 -0.000343681 0)
(0 -0.000329786 0)
(0 -0.000219754 0)
(0 -0.000209966 0)
(0 -7.35018e-05 0)
(0 -7.35159e-05 0)
(0 -7.35612e-05 0)
(0 -7.35744e-05 0)
(0 -0.000246944 0)
(0 -0.000274052 0)
(0 -7.35081e-05 0)
(0 -7.34989e-05 0)
(0 -7.35089e-05 0)
(0 -0.000346476 0)
(0 -0.000331466 0)
(0 -0.000347786 0)
(0 -0.000331489 0)
(0 -0.000346042 0)
(0 -0.00032958 0)
(0 -0.000342023 0)
(0 -0.000325681 0)
(0 -0.000335775 0)
(0 -0.000320606 0)
(0 -0.000328188 0)
(0 -0.000309402 0)
(0 -0.000315272 0)
(0 -0.000315866 0)
(0 -0.00032161 0)
(0 -0.000233858 0)
(0 -7.4737e-05 0)
(0 -7.44267e-05 0)
(0 -0.000235807 0)
(0 -0.000227546 0)
(0 -0.000238667 0)
(0 -0.000229103 0)
(0 -0.00024053 0)
(0 -0.000249539 0)
(0 -0.00025165 0)
(0 -0.000242101 0)
(0 -0.000253338 0)
(0 -0.000262084 0)
(0 -0.000264721 0)
(0 -0.000255165 0)
(0 -0.000267353 0)
(0 -0.000257874 0)
(0 -0.000270472 0)
(0 -0.000278733 0)
(0 -0.000281729 0)
(0 -0.000272499 0)
(0 -0.00028319 0)
(0 -0.00027301 0)
(0 -0.00028345 0)
(0 -0.000292173 0)
(0 -0.000292281 0)
(0 -0.000283039 0)
(0 -0.000291655 0)
(0 -0.000300407 0)
(0 -0.000299076 0)
(0 -0.000290582 0)
(0 -0.000298569 0)
(0 -0.000306728 0)
(0 -0.00030766 0)
(0 -0.000297749 0)
(0 -0.000308436 0)
(0 -0.000318017 0)
(0 -0.000319365 0)
(0 -0.000307189 0)
(0 -0.000319526 0)
(0 -0.000332439 0)
(0 -0.000330896 0)
(0 -0.000319414 0)
(0 -0.000331487 0)
(0 -0.000342107 0)
(0 -0.000344934 0)
(0 -0.000333317 0)
(0 -0.000347638 0)