/*--------------------------------*- C++ -*----------------------------------*\
| =========                 |                                                 |
| \\      /  F ield         | OpenFOAM: The Open Source CFD Toolbox           |
|  \\    /   O peration     | Version:  v2012                                 |
|   \\  /    A nd           | Website:  www.openfoam.com                      |
|    \\/     M anipulation  |                                                 |
\*---------------------------------------------------------------------------*/
FoamFile
{
    version     2.0;
    format      ascii;
    class       volVectorField;
    location    "450";
    object      cellDisplacement;
}
// * * * * * * * * * * * * * * * * * * * * * * * * * * * * * * * * * * * * * //

dimensions      [0 1 0 0 0 0 0];


internalField   nonuniform List<vector> 
13851
(
(0 -0.0446905 0)
(0 -0.0537114 0)
(0 -0.0560887 0)
(0 -0.0438758 0)
(0 -0.0563238 0)
(0 -0.0446819 0)
(0 -0.0432893 0)
(0 -0.055748 0)
(0 -0.0160142 0)
(0 -0.0557366 0)
(0 -0.00815945 0)
(0 -0.0558962 0)
(0 -0.0565453 0)
(0 -0.0565289 0)
(0 -0.0108959 0)
(0 -0.0545172 0)
(0 -0.0535539 0)
(0 -0.0506163 0)
(0 -0.0565146 0)
(0 -0.0158467 0)
(0 -0.0435797 0)
(0 -0.0561113 0)
(0 -0.000649681 0)
(0 -0.00209776 0)
(0 -0.000476706 0)
(0 -0.0557337 0)
(0 -0.0537804 0)
(0 -0.056573 0)
(0 -0.0446903 0)
(0 -0.0505786 0)
(0 -0.0445267 0)
(0 -0.0537406 0)
(0 -0.0560451 0)
(0 -0.0261321 0)
(0 -0.00256594 0)
(0 -0.0565376 0)
(0 -0.0565585 0)
(0 -0.0564025 0)
(0 -0.0557773 0)
(0 -0.0258036 0)
(0 -0.0362233 0)
(0 -0.00169549 0)
(0 -0.0565732 0)
(0 -0.00860023 0)
(0 -0.0084263 0)
(0 -0.0565668 0)
(0 -0.00881394 0)
(0 -0.0392143 0)
(0 -0.0539477 0)
(0 -0.0228213 0)
(0 -0.0563785 0)
(0 -0.0564935 0)
(0 -0.0565732 0)
(0 -0.0075713 0)
(0 -0.00545718 0)
(0 -0.00167978 0)
(0 -0.00214722 0)
(0 -0.0565726 0)
(0 -0.0502781 0)
(0 -0.0448129 0)
(0 -0.0563932 0)
(0 -0.0565256 0)
(0 -0.0506863 0)
(0 -0.0563866 0)
(0 -0.0538583 0)
(0 -0.0451252 0)
(0 -0.0565607 0)
(0 -0.00913078 0)
(0 -0.0556906 0)
(0 -0.050408 0)
(0 -0.0565732 0)
(0 -0.0565642 0)
(0 -0.0537526 0)
(0 -0.00777476 0)
(0 -0.00886415 0)
(0 -0.0201562 0)
(0 -0.0560967 0)
(0 -0.0565732 0)
(0 -0.056023 0)
(0 -0.0565732 0)
(0 -0.0480383 0)
(0 -0.000734909 0)
(0 -0.0334544 0)
(0 -0.0565701 0)
(0 -0.0509394 0)
(0 -0.0558616 0)
(0 -0.0438308 0)
(0 -0.0548992 0)
(0 -0.0541726 0)
(0 -0.0110422 0)
(0 -0.0565346 0)
(0 -0.0380028 0)
(0 -0.00936695 0)
(0 -0.0548592 0)
(0 -0.0541142 0)
(0 -0.00155726 0)
(0 -0.056347 0)
(0 -0.0565646 0)
(0 -0.022775 0)
(0 -0.00120711 0)
(0 -0.0565596 0)
(0 -0.056152 0)
(0 -0.0449103 0)
(0 -0.0538783 0)
(0 -0.000124165 0)
(0 -0.0429127 0)
(0 -0.056241 0)
(0 -0.000887979 0)
(0 -0.0565673 0)
(0 -0.0450495 0)
(0 -0.00142499 0)
(0 -0.0113112 0)
(0 -0.0378687 0)
(0 -0.000563358 0)
(0 -0.00180041 0)
(0 -0.0467458 0)
(0 -0.0565628 0)
(0 -0.00111008 0)
(0 -0.0028377 0)
(0 -0.00427702 0)
(0 -0.0565732 0)
(0 -0.0537835 0)
(0 -0.0565457 0)
(0 -0.0374399 0)
(0 -0.0390741 0)
(0 -0.0068289 0)
(0 -0.0386706 0)
(0 -0.0560938 0)
(0 -0.0430665 0)
(0 -0.0564291 0)
(0 -0.0355432 0)
(0 -0.0134673 0)
(0 -0.0565732 0)
(0 -0.0327698 0)
(0 -0.0464855 0)
(0 -0.00608038 0)
(0 -0.0010208 0)
(0 -0.0565637 0)
(0 -0.0564855 0)
(0 -0.0563857 0)
(0 -0.0565611 0)
(0 -0.00491853 0)
(0 -0.0266873 0)
(0 -0.00372755 0)
(0 -0.0516588 0)
(0 -0.00885568 0)
(0 -0.000475395 0)
(0 -0.0564228 0)
(0 -0.0426065 0)
(0 -0.00817288 0)
(0 -0.0564238 0)
(0 -0.00505802 0)
(0 -0.056534 0)
(0 -0.00207513 0)
(0 -0.0520169 0)
(0 -0.0514648 0)
(0 -0.0264832 0)
(0 -0.0498926 0)
(0 -0.0564939 0)
(0 -0.0563637 0)
(0 -0.000348348 0)
(0 -0.0550564 0)
(0 -0.0565729 0)
(0 -0.0130202 0)
(0 -0.0525986 0)
(0 -0.00294942 0)
(0 -0.00060162 0)
(0 -0.0557423 0)
(0 -0.0427458 0)
(0 -0.0565659 0)
(0 -0.0565732 0)
(0 -0.00762971 0)
(0 -0.0269595 0)
(0 -0.0564039 0)
(0 -0.0120828 0)
(0 -0.0396051 0)
(0 -0.0560593 0)
(0 -0.0282022 0)
(0 -0.0565226 0)
(0 -0.000903737 0)
(0 -0.0539584 0)
(0 -0.0565648 0)
(0 -0.0311924 0)
(0 -0.0561492 0)
(0 -0.000108263 0)
(0 -0.00104596 0)
(0 -0.045474 0)
(0 -0.0059133 0)
(0 -0.0563453 0)
(0 -0.0551213 0)
(0 -0.00905868 0)
(0 -0.0565732 0)
(0 -0.0115972 0)
(0 -0.0556352 0)
(0 -0.0565186 0)
(0 -0.0516541 0)
(0 -0.0263112 0)
(0 -0.0244006 0)
(0 -0.0277592 0)
(0 -0.0206071 0)
(0 -0.00703699 0)
(0 -0.05656 0)
(0 -0.00160405 0)
(0 -0.0317814 0)
(0 -0.0552609 0)
(0 -0.0324254 0)
(0 -0.0563859 0)
(0 -0.0537759 0)
(0 -0.056573 0)
(0 -0.000569867 0)
(0 -0.0565704 0)
(0 -0.0444457 0)
(0 -0.0243216 0)
(0 -0.00057728 0)
(0 -0.00323113 0)
(0 -0.00750787 0)
(0 -0.0512788 0)
(0 -0.0565672 0)
(0 -0.0186772 0)
(0 -0.056573 0)
(0 -0.0538873 0)
(0 -0.0485088 0)
(0 -0.0565673 0)
(0 -0.0564661 0)
(0 -0.0565717 0)
(0 -0.000643273 0)
(0 -0.0551779 0)
(0 -0.000103709 0)
(0 -0.0565729 0)
(0 -0.000534225 0)
(0 -0.0556613 0)
(0 -0.0528646 0)
(0 -0.00709574 0)
(0 -0.01134 0)
(0 -0.05634 0)
(0 -0.0524885 0)
(0 -0.0563889 0)
(0 -0.0539464 0)
(0 -0.00356351 0)
(0 -0.032342 0)
(0 -0.0441483 0)
(0 -0.0217514 0)
(0 -0.000502114 0)
(0 -0.055309 0)
(0 -0.000183207 0)
(0 -0.0565723 0)
(0 -0.0561652 0)
(0 -0.0253208 0)
(0 -0.0514031 0)
(0 -0.0533398 0)
(0 -0.0333969 0)
(0 -0.0216318 0)
(0 -0.0476901 0)
(0 -0.0515998 0)
(0 -0.0562331 0)
(0 -0.0494662 0)
(0 -0.0550236 0)
(0 -0.0565643 0)
(0 -0.0565732 0)
(0 -0.0290706 0)
(0 -0.0033915 0)
(0 -0.0498679 0)
(0 -0.0451722 0)
(0 -0.00607674 0)
(0 -0.056516 0)
(0 -0.0515886 0)
(0 -0.0474291 0)
(0 -0.0547721 0)
(0 -0.056566 0)
(0 -0.0122428 0)
(0 -0.0330849 0)
(0 -0.0519695 0)
(0 -0.0452778 0)
(0 -0.0559781 0)
(0 -0.0543875 0)
(0 -0.0143707 0)
(0 -0.00055929 0)
(0 -0.00650815 0)
(0 -0.0565715 0)
(0 -0.00792003 0)
(0 -0.000366442 0)
(0 -0.000361928 0)
(0 -0.000101357 0)
(0 -0.0562055 0)
(0 -0.0449299 0)
(0 -0.0401291 0)
(0 -0.0188068 0)
(0 -0.018238 0)
(0 -0.0450191 0)
(0 -0.000273653 0)
(0 -0.0564359 0)
(0 -0.0501744 0)
(0 -0.0452056 0)
(0 -0.0558008 0)
(0 -0.000509727 0)
(0 -0.0565192 0)
(0 -0.0527115 0)
(0 -0.0558027 0)
(0 -0.0157228 0)
(0 -0.0565721 0)
(0 -0.0549762 0)
(0 -0.0534184 0)
(0 -0.0565714 0)
(0 -0.042953 0)
(0 -0.043305 0)
(0 -0.056571 0)
(0 -0.0182362 0)
(0 -0.0560797 0)
(0 -0.0548691 0)
(0 -0.0498456 0)
(0 -0.0564867 0)
(0 -0.0527983 0)
(0 -0.0470211 0)
(0 -0.0565666 0)
(0 -0.00208247 0)
(0 -0.0535142 0)
(0 -0.00745059 0)
(0 -0.056571 0)
(0 -0.0565076 0)
(0 -0.02043 0)
(0 -0.0562017 0)
(0 -0.020209 0)
(0 -0.0565732 0)
(0 -0.0340919 0)
(0 -0.000803577 0)
(0 -0.0305891 0)
(0 -0.0565028 0)
(0 -0.0550787 0)
(0 -0.0520022 0)
(0 -0.017023 0)
(0 -0.0425877 0)
(0 -0.0466976 0)
(0 -0.00824403 0)
(0 -0.0565485 0)
(0 -0.0565597 0)
(0 -0.04989 0)
(0 -0.0565709 0)
(0 -0.0564558 0)
(0 -0.0102947 0)
(0 -0.0556612 0)
(0 -0.0564311 0)
(0 -0.0387944 0)
(0 -0.0526153 0)
(0 -0.0564809 0)
(0 -0.0565128 0)
(0 -0.0355151 0)
(0 -0.044883 0)
(0 -0.0565716 0)
(0 -0.00931515 0)
(0 -0.00923053 0)
(0 -0.00907623 0)
(0 -0.05626 0)
(0 -0.051973 0)
(0 -0.0526841 0)
(0 -0.0565728 0)
(0 -0.0277174 0)
(0 -0.0446441 0)
(0 -0.0302739 0)
(0 -0.0188103 0)
(0 -0.000195805 0)
(0 -0.000859259 0)
(0 -0.0245583 0)
(0 -0.0565711 0)
(0 -0.0162311 0)
(0 -0.037691 0)
(0 -0.0560361 0)
(0 -0.00233067 0)
(0 -0.055779 0)
(0 -0.0545127 0)
(0 -0.0401245 0)
(0 -0.0565639 0)
(0 -0.0381246 0)
(0 -0.0514158 0)
(0 -0.0548002 0)
(0 -0.0399743 0)
(0 -0.0335998 0)
(0 -0.00121173 0)
(0 -0.0355382 0)
(0 -0.0565614 0)
(0 -0.00725664 0)
(0 -0.0564755 0)
(0 -0.0384737 0)
(0 -0.0564911 0)
(0 -0.0565666 0)
(0 -0.00905823 0)
(0 -0.00923762 0)
(0 -0.0311775 0)
(0 -0.0147177 0)
(0 -0.0053974 0)
(0 -0.0496618 0)
(0 -0.056201 0)
(0 -0.0565225 0)
(0 -0.0557729 0)
(0 -0.0565712 0)
(0 -0.0565712 0)
(0 -0.00245248 0)
(0 -0.0302885 0)
(0 -0.0565624 0)
(0 -0.0565732 0)
(0 -0.0526986 0)
(0 -0.0565633 0)
(0 -0.0355749 0)
(0 -0.0549106 0)
(0 -0.000994899 0)
(0 -0.0564497 0)
(0 -0.0117147 0)
(0 -0.0545474 0)
(0 -0.0309616 0)
(0 -0.0414565 0)
(0 -8.75103e-05 0)
(0 -0.0177114 0)
(0 -0.00281147 0)
(0 -0.0563868 0)
(0 -0.0529971 0)
(0 -0.0565729 0)
(0 -0.0501088 0)
(0 -0.0562344 0)
(0 -0.0452307 0)
(0 -0.0212407 0)
(0 -0.0535114 0)
(0 -0.0562439 0)
(0 -0.0532233 0)
(0 -0.00726426 0)
(0 -0.000917362 0)
(0 -0.0171472 0)
(0 -0.000803011 0)
(0 -0.056397 0)
(0 -0.0219893 0)
(0 -0.0564495 0)
(0 -0.0453729 0)
(0 -0.0565731 0)
(0 -0.0264421 0)
(0 -0.0434452 0)
(0 -0.00380249 0)
(0 -0.0563509 0)
(0 -0.032816 0)
(0 -0.0211225 0)
(0 -0.000235918 0)
(0 -0.0561576 0)
(0 -0.0208412 0)
(0 -0.0559441 0)
(0 -0.0565731 0)
(0 -0.0276554 0)
(0 -0.00590528 0)
(0 -0.0210135 0)
(0 -0.0565612 0)
(0 -0.000150853 0)
(0 -0.0551187 0)
(0 -0.0560584 0)
(0 -0.0121641 0)
(0 -0.0097636 0)
(0 -0.0466204 0)
(0 -0.0564076 0)
(0 -0.0564873 0)
(0 -0.0507407 0)
(0 -0.0556792 0)
(0 -0.000831031 0)
(0 -0.0313342 0)
(0 -0.0565729 0)
(0 -0.0526084 0)
(0 -0.000328495 0)
(0 -0.0548964 0)
(0 -0.0142221 0)
(0 -0.0443617 0)
(0 -0.012122 0)
(0 -0.0536162 0)
(0 -0.0489381 0)
(0 -0.000514325 0)
(0 -0.0272275 0)
(0 -0.0565648 0)
(0 -0.0345932 0)
(0 -0.0558564 0)
(0 -0.0067646 0)
(0 -0.0411263 0)
(0 -0.00659297 0)
(0 -0.000517133 0)
(0 -0.03439 0)
(0 -0.00105128 0)
(0 -0.000980503 0)
(0 -0.0402563 0)
(0 -0.0473829 0)
(0 -0.044073 0)
(0 -0.0304183 0)
(0 -0.00130488 0)
(0 -0.0565512 0)
(0 -0.0565731 0)
(0 -0.0339952 0)
(0 -0.0410701 0)
(0 -0.0536628 0)
(0 -0.0221801 0)
(0 -0.0565692 0)
(0 -0.0316242 0)
(0 -0.0159211 0)
(0 -0.034201 0)
(0 -0.0562759 0)
(0 -0.0431293 0)
(0 -0.0565719 0)
(0 -0.000644036 0)
(0 -0.0565732 0)
(0 -0.0548554 0)
(0 -0.0018248 0)
(0 -0.0406083 0)
(0 -0.0565675 0)
(0 -0.0556566 0)
(0 -0.0111196 0)
(0 -0.00356683 0)
(0 -0.0364997 0)
(0 -0.00423209 0)
(0 -0.0109608 0)
(0 -0.0156941 0)
(0 -0.0409756 0)
(0 -0.0565732 0)
(0 -0.0563214 0)
(0 -0.056507 0)
(0 -0.0565382 0)
(0 -0.0510322 0)
(0 -0.000446893 0)
(0 -0.0565335 0)
(0 -0.0219148 0)
(0 -0.0540696 0)
(0 -0.0550755 0)
(0 -0.0222452 0)
(0 -0.0373668 0)
(0 -0.0565696 0)
(0 -0.00520452 0)
(0 -0.0565715 0)
(0 -0.0565679 0)
(0 -0.0565608 0)
(0 -0.0527782 0)
(0 -0.040612 0)
(0 -0.0385905 0)
(0 -0.00614049 0)
(0 -0.0491733 0)
(0 -0.0245149 0)
(0 -0.0562052 0)
(0 -0.0499905 0)
(0 -0.0562358 0)
(0 -0.0565638 0)
(0 -0.000730612 0)
(0 -0.00626807 0)
(0 -0.0563392 0)
(0 -0.0565732 0)
(0 -0.051526 0)
(0 -0.0261347 0)
(0 -0.0257085 0)
(0 -0.0345737 0)
(0 -0.0563464 0)
(0 -0.0528073 0)
(0 -0.0548082 0)
(0 -0.0556293 0)
(0 -0.00555483 0)
(0 -0.056573 0)
(0 -0.056573 0)
(0 -0.0428211 0)
(0 -0.0215496 0)
(0 -0.055813 0)
(0 -0.000268407 0)
(0 -0.0166569 0)
(0 -0.000707709 0)
(0 -0.0565393 0)
(0 -0.0522274 0)
(0 -0.0564642 0)
(0 -0.0565347 0)
(0 -0.00154698 0)
(0 -0.0453711 0)
(0 -0.0375811 0)
(0 -0.0562461 0)
(0 -0.0564667 0)
(0 -0.0565732 0)
(0 -0.0565642 0)
(0 -0.034941 0)
(0 -0.0417615 0)
(0 -0.05484 0)
(0 -0.0565713 0)
(0 -0.0565112 0)
(0 -0.0557672 0)
(0 -0.0505825 0)
(0 -0.000946144 0)
(0 -0.0252494 0)
(0 -0.0561922 0)
(0 -0.00142733 0)
(0 -0.0513217 0)
(0 -0.00077786 0)
(0 -0.0111696 0)
(0 -0.0565645 0)
(0 -0.0563676 0)
(0 -0.0450955 0)
(0 -0.00131145 0)
(0 -0.0564751 0)
(0 -0.0240311 0)
(0 -0.0162601 0)
(0 -0.00212648 0)
(0 -0.00630678 0)
(0 -0.00675338 0)
(0 -0.0565632 0)
(0 -0.0249729 0)
(0 -0.02469 0)
(0 -0.0565588 0)
(0 -0.0361899 0)
(0 -0.0556578 0)
(0 -0.0565732 0)
(0 -0.0565731 0)
(0 -0.0358632 0)
(0 -0.0557106 0)
(0 -0.000202536 0)
(0 -0.00723134 0)
(0 -0.0548825 0)
(0 -0.05656 0)
(0 -0.0447938 0)
(0 -0.0564569 0)
(0 -0.0547749 0)
(0 -0.01472 0)
(0 -0.0542557 0)
(0 -0.0248225 0)
(0 -0.0113 0)
(0 -0.0563562 0)
(0 -0.0291265 0)
(0 -0.0501792 0)
(0 -0.0095362 0)
(0 -0.0547552 0)
(0 -0.0564493 0)
(0 -0.044158 0)
(0 -0.0322412 0)
(0 -0.0546272 0)
(0 -0.0439673 0)
(0 -0.0563227 0)
(0 -0.0563752 0)
(0 -0.0564585 0)
(0 -0.054121 0)
(0 -0.0565161 0)
(0 -0.0141309 0)
(0 -0.0524499 0)
(0 -0.0338764 0)
(0 -0.05656 0)
(0 -0.0443437 0)
(0 -0.00158223 0)
(0 -0.0565666 0)
(0 -0.0487668 0)
(0 -0.056568 0)
(0 -0.056572 0)
(0 -0.0565688 0)
(0 -0.0548137 0)
(0 -0.0115112 0)
(0 -0.0565651 0)
(0 -0.000380116 0)
(0 -0.0125727 0)
(0 -0.00056694 0)
(0 -0.0123209 0)
(0 -0.000222003 0)
(0 -0.050034 0)
(0 -0.0534644 0)
(0 -0.00120606 0)
(0 -0.0564025 0)
(0 -0.054959 0)
(0 -0.0564186 0)
(0 -0.0237029 0)
(0 -0.000368777 0)
(0 -0.000892949 0)
(0 -0.0564123 0)
(0 -0.0565029 0)
(0 -0.0562696 0)
(0 -0.0548195 0)
(0 -0.000498598 0)
(0 -0.0012215 0)
(0 -0.00393183 0)
(0 -0.0277654 0)
(0 -0.0565483 0)
(0 -0.0561291 0)
(0 -0.0434235 0)
(0 -0.00110013 0)
(0 -0.0412348 0)
(0 -0.0274833 0)
(0 -0.0561007 0)
(0 -0.0565731 0)
(0 -0.0543765 0)
(0 -0.0565634 0)
(0 -0.0368911 0)
(0 -0.0314388 0)
(0 -0.056501 0)
(0 -0.0565601 0)
(0 -0.0557817 0)
(0 -0.0559442 0)
(0 -0.0478529 0)
(0 -0.0501295 0)
(0 -0.0562486 0)
(0 -0.049845 0)
(0 -0.0242336 0)
(0 -0.0328644 0)
(0 -0.0381852 0)
(0 -0.000198606 0)
(0 -0.0556081 0)
(0 -0.056573 0)
(0 -0.02008 0)
(0 -0.0474238 0)
(0 -0.0503183 0)
(0 -0.0118483 0)
(0 -0.0537873 0)
(0 -0.0449842 0)
(0 -0.0564595 0)
(0 -0.0563391 0)
(0 -0.0565067 0)
(0 -0.00904438 0)
(0 -0.000698721 0)
(0 -0.0228797 0)
(0 -0.0565515 0)
(0 -0.0565318 0)
(0 -0.0526441 0)
(0 -0.0565718 0)
(0 -0.0134748 0)
(0 -0.00254887 0)
(0 -0.000821134 0)
(0 -0.0357942 0)
(0 -0.0565598 0)
(0 -0.0522039 0)
(0 -0.0412262 0)
(0 -0.00683075 0)
(0 -0.0537386 0)
(0 -0.000930017 0)
(0 -0.0565729 0)
(0 -0.0496306 0)
(0 -0.0565723 0)
(0 -0.00195415 0)
(0 -0.0431345 0)
(0 -0.0565732 0)
(0 -0.0565732 0)
(0 -0.0565294 0)
(0 -0.0244613 0)
(0 -0.0565674 0)
(0 -0.0332488 0)
(0 -0.00716878 0)
(0 -0.0562313 0)
(0 -0.0559784 0)
(0 -0.0530642 0)
(0 -0.0565686 0)
(0 -0.0319403 0)
(0 -0.023465 0)
(0 -0.0565569 0)
(0 -0.00173528 0)
(0 -0.000884863 0)
(0 -0.0493013 0)
(0 -0.0137048 0)
(0 -0.0565727 0)
(0 -0.0548423 0)
(0 -0.0564762 0)
(0 -0.0452603 0)
(0 -0.00661792 0)
(0 -0.0151958 0)
(0 -0.0452052 0)
(0 -0.00291469 0)
(0 -0.0316502 0)
(0 -0.000488711 0)
(0 -0.0300538 0)
(0 -0.00631348 0)
(0 -0.0565712 0)
(0 -0.0253871 0)
(0 -0.00159765 0)
(0 -0.0385685 0)
(0 -0.0425783 0)
(0 -0.0565732 0)
(0 -0.000260036 0)
(0 -0.0257849 0)
(0 -0.0563853 0)
(0 -0.0560761 0)
(0 -0.0167312 0)
(0 -0.00448302 0)
(0 -0.0453102 0)
(0 -0.0565606 0)
(0 -0.0476476 0)
(0 -0.0565692 0)
(0 -0.0555558 0)
(0 -0.0127341 0)
(0 -0.0241648 0)
(0 -0.0565731 0)
(0 -0.0450983 0)
(0 -0.0531542 0)
(0 -0.00493739 0)
(0 -0.000997591 0)
(0 -0.0214206 0)
(0 -0.0559941 0)
(0 -0.0542438 0)
(0 -0.052501 0)
(0 -0.0239369 0)
(0 -0.00644083 0)
(0 -0.0253398 0)
(0 -0.0564625 0)
(0 -0.0227978 0)
(0 -0.0563232 0)
(0 -0.0450279 0)
(0 -0.0424964 0)
(0 -0.0562996 0)
(0 -0.0564237 0)
(0 -0.0565708 0)
(0 -0.0520134 0)
(0 -0.0563448 0)
(0 -0.0565339 0)
(0 -0.0428952 0)
(0 -0.0565687 0)
(0 -0.0523462 0)
(0 -0.0565329 0)
(0 -0.0564703 0)
(0 -0.0565693 0)
(0 -0.0148965 0)
(0 -0.055138 0)
(0 -0.0131182 0)
(0 -0.0493617 0)
(0 -0.0565724 0)
(0 -0.0565699 0)
(0 -0.0285893 0)
(0 -0.000907835 0)
(0 -0.0563486 0)
(0 -0.000544151 0)
(0 -0.00208199 0)
(0 -0.0565732 0)
(0 -0.0129376 0)
(0 -0.0376867 0)
(0 -0.0565727 0)
(0 -0.0565732 0)
(0 -0.0092012 0)
(0 -0.0132216 0)
(0 -0.0183969 0)
(0 -0.0565732 0)
(0 -0.0565453 0)
(0 -0.0565033 0)
(0 -0.0356837 0)
(0 -0.0565585 0)
(0 -0.0562651 0)
(0 -0.0565002 0)
(0 -0.0562165 0)
(0 -0.0560012 0)
(0 -0.0469027 0)
(0 -0.0427185 0)
(0 -0.0536255 0)
(0 -0.056239 0)
(0 -0.0565732 0)
(0 -0.0352411 0)
(0 -0.0557183 0)
(0 -0.0565724 0)
(0 -0.0565389 0)
(0 -0.0565731 0)
(0 -0.0368151 0)
(0 -0.0555545 0)
(0 -0.0157775 0)
(0 -0.0542493 0)
(0 -0.0471228 0)
(0 -0.0560056 0)
(0 -0.0017086 0)
(0 -0.0565729 0)
(0 -0.00206576 0)
(0 -0.0563717 0)
(0 -0.0289221 0)
(0 -0.0562413 0)
(0 -0.0557199 0)
(0 -0.0555072 0)
(0 -0.0565649 0)
(0 -0.0560917 0)
(0 -0.0536206 0)
(0 -0.00190439 0)
(0 -0.056369 0)
(0 -0.0397326 0)
(0 -0.0513249 0)
(0 -0.0512251 0)
(0 -0.0565732 0)
(0 -0.00589118 0)
(0 -0.0564688 0)
(0 -0.0157762 0)
(0 -0.0441983 0)
(0 -0.0565708 0)
(0 -0.0565598 0)
(0 -0.0565732 0)
(0 -0.0146159 0)
(0 -0.0348184 0)
(0 -0.0291495 0)
(0 -0.0565725 0)
(0 -0.00301988 0)
(0 -0.046838 0)
(0 -0.056573 0)
(0 -0.0238754 0)
(0 -0.052216 0)
(0 -0.0564068 0)
(0 -0.0237615 0)
(0 -0.0563247 0)
(0 -0.0427016 0)
(0 -0.00261098 0)
(0 -0.0543538 0)
(0 -0.056573 0)
(0 -0.056469 0)
(0 -0.0529392 0)
(0 -0.0353014 0)
(0 -0.0154881 0)
(0 -0.0565718 0)
(0 -0.0564309 0)
(0 -0.00170995 0)
(0 -0.0552341 0)
(0 -0.0117526 0)
(0 -0.00292049 0)
(0 -0.00907495 0)
(0 -0.000968149 0)
(0 -0.0562415 0)
(0 -0.0207107 0)
(0 -0.0381529 0)
(0 -0.0271272 0)
(0 -0.0296365 0)
(0 -0.0495452 0)
(0 -0.0565732 0)
(0 -0.0565664 0)
(0 -0.0551015 0)
(0 -0.0563617 0)
(0 -0.0284243 0)
(0 -0.0550357 0)
(0 -0.0284395 0)
(0 -0.0121645 0)
(0 -0.0423619 0)
(0 -0.0376978 0)
(0 -0.0565732 0)
(0 -0.0347083 0)
(0 -0.0562433 0)
(0 -0.0374073 0)
(0 -0.0533063 0)
(0 -0.00924921 0)
(0 -0.0565731 0)
(0 -0.0032579 0)
(0 -0.0549244 0)
(0 -0.0543409 0)
(0 -0.0565482 0)
(0 -0.0549336 0)
(0 -0.0552071 0)
(0 -0.0565732 0)
(0 -0.0547727 0)
(0 -0.0525438 0)
(0 -0.0559691 0)
(0 -0.046466 0)
(0 -0.0565732 0)
(0 -0.0556877 0)
(0 -0.00807562 0)
(0 -0.0437925 0)
(0 -0.0560489 0)
(0 -0.0561797 0)
(0 -0.056342 0)
(0 -0.00372332 0)
(0 -0.0563833 0)
(0 -0.0223714 0)
(0 -0.0241997 0)
(0 -0.0565159 0)
(0 -0.00733233 0)
(0 -0.0565296 0)
(0 -0.0532474 0)
(0 -0.0161599 0)
(0 -0.0455031 0)
(0 -0.0162533 0)
(0 -0.0194089 0)
(0 -0.000593503 0)
(0 -0.0473148 0)
(0 -0.056554 0)
(0 -0.0243822 0)
(0 -0.0565443 0)
(0 -0.0565722 0)
(0 -0.055113 0)
(0 -0.0564613 0)
(0 -0.0419483 0)
(0 -0.00229715 0)
(0 -0.00765884 0)
(0 -0.0349591 0)
(0 -0.0148152 0)
(0 -0.0564176 0)
(0 -0.0486603 0)
(0 -0.0202818 0)
(0 -0.0416594 0)
(0 -0.000612058 0)
(0 -0.0565731 0)
(0 -0.0560983 0)
(0 -0.0510864 0)
(0 -0.0565655 0)
(0 -0.056551 0)
(0 -0.0259195 0)
(0 -0.0329258 0)
(0 -0.0547797 0)
(0 -0.0240496 0)
(0 -0.0150818 0)
(0 -0.04181 0)
(0 -0.0281166 0)
(0 -0.00923267 0)
(0 -0.00875064 0)
(0 -0.0234043 0)
(0 -0.0565715 0)
(0 -0.00669205 0)
(0 -0.0565409 0)
(0 -0.0547387 0)
(0 -0.0535447 0)
(0 -0.000624323 0)
(0 -0.0136677 0)
(0 -0.0562147 0)
(0 -0.0521336 0)
(0 -0.0403935 0)
(0 -0.0195773 0)
(0 -0.0311337 0)
(0 -0.0385119 0)
(0 -0.0444751 0)
(0 -0.056141 0)
(0 -0.0153346 0)
(0 -0.0540358 0)
(0 -0.0565297 0)
(0 -0.0192588 0)
(0 -0.00108643 0)
(0 -0.0366615 0)
(0 -0.0517642 0)
(0 -0.0415608 0)
(0 -0.0538119 0)
(0 -0.0562515 0)
(0 -0.0557401 0)
(0 -0.0490668 0)
(0 -0.0348417 0)
(0 -0.0560621 0)
(0 -0.0204702 0)
(0 -0.0565728 0)
(0 -0.0565516 0)
(0 -0.046671 0)
(0 -0.0565208 0)
(0 -0.00492162 0)
(0 -0.0052676 0)
(0 -0.0402532 0)
(0 -0.0110254 0)
(0 -0.0215679 0)
(0 -0.00698186 0)
(0 -0.000544549 0)
(0 -0.0191603 0)
(0 -0.0563984 0)
(0 -0.002791 0)
(0 -0.0186478 0)
(0 -0.0488503 0)
(0 -0.0555325 0)
(0 -0.0565583 0)
(0 -0.0527575 0)
(0 -0.0505511 0)
(0 -0.00675936 0)
(0 -0.0562669 0)
(0 -0.0565092 0)
(0 -0.0508811 0)
(0 -0.0565688 0)
(0 -0.0563985 0)
(0 -0.056427 0)
(0 -0.00378453 0)
(0 -0.0561063 0)
(0 -0.0269812 0)
(0 -0.000755043 0)
(0 -0.039691 0)
(0 -0.0565731 0)
(0 -0.0565062 0)
(0 -0.0223341 0)
(0 -0.0538893 0)
(0 -0.00693039 0)
(0 -0.0281479 0)
(0 -0.000138078 0)
(0 -0.0422668 0)
(0 -0.032757 0)
(0 -0.047238 0)
(0 -0.000395625 0)
(0 -0.0554773 0)
(0 -0.0529231 0)
(0 -0.0565732 0)
(0 -0.00100528 0)
(0 -0.0539738 0)
(0 -0.000432637 0)
(0 -0.0564136 0)
(0 -0.0558127 0)
(0 -0.0565679 0)
(0 -0.0564691 0)
(0 -0.0564221 0)
(0 -0.0563654 0)
(0 -0.056573 0)
(0 -0.0190294 0)
(0 -0.056557 0)
(0 -0.00182053 0)
(0 -0.0557415 0)
(0 -0.00264456 0)
(0 -0.051431 0)
(0 -0.0548166 0)
(0 -0.04424 0)
(0 -0.056573 0)
(0 -0.0545807 0)
(0 -0.0547711 0)
(0 -0.0150476 0)
(0 -0.0565073 0)
(0 -0.0398616 0)
(0 -0.0198889 0)
(0 -0.053232 0)
(0 -0.0524336 0)
(0 -0.00567335 0)
(0 -0.0493002 0)
(0 -0.0543579 0)
(0 -0.0355558 0)
(0 -0.0526439 0)
(0 -0.0128433 0)
(0 -0.0548635 0)
(0 -0.0360766 0)
(0 -0.0376812 0)
(0 -0.0565615 0)
(0 -0.05164 0)
(0 -0.00509627 0)
(0 -0.0479174 0)
(0 -0.056571 0)
(0 -0.0555837 0)
(0 -0.0561478 0)
(0 -0.056519 0)
(0 -0.0329261 0)
(0 -0.00361859 0)
(0 -0.0565605 0)
(0 -0.0489969 0)
(0 -0.0559371 0)
(0 -0.0549822 0)
(0 -0.05657 0)
(0 -0.0108621 0)
(0 -0.0564219 0)
(0 -0.0528897 0)
(0 -0.0452994 0)
(0 -0.0415211 0)
(0 -0.0376679 0)
(0 -0.0565732 0)
(0 -0.0528548 0)
(0 -0.0565731 0)
(0 -0.00720821 0)
(0 -0.0547547 0)
(0 -0.0565199 0)
(0 -0.0513066 0)
(0 -0.0565697 0)
(0 -0.0565463 0)
(0 -0.000593394 0)
(0 -0.055089 0)
(0 -0.0565729 0)
(0 -0.0551786 0)
(0 -0.0565665 0)
(0 -0.00700155 0)
(0 -0.0375211 0)
(0 -0.0565732 0)
(0 -0.0565051 0)
(0 -0.056572 0)
(0 -0.00531748 0)
(0 -0.0415325 0)
(0 -0.0381365 0)
(0 -0.0565732 0)
(0 -0.0565253 0)
(0 -0.0471107 0)
(0 -0.0416425 0)
(0 -0.0560413 0)
(0 -0.0563564 0)
(0 -0.0565592 0)
(0 -0.0402633 0)
(0 -0.0308816 0)
(0 -0.0565666 0)
(0 -0.0539495 0)
(0 -0.033936 0)
(0 -0.0565151 0)
(0 -0.0565118 0)
(0 -0.0438001 0)
(0 -0.0221957 0)
(0 -0.0565731 0)
(0 -0.056569 0)
(0 -0.00662631 0)
(0 -0.0132617 0)
(0 -0.0563679 0)
(0 -0.000707917 0)
(0 -0.000538044 0)
(0 -0.0117832 0)
(0 -0.037186 0)
(0 -0.0373852 0)
(0 -0.0562598 0)
(0 -0.0526935 0)
(0 -0.0565621 0)
(0 -0.0511246 0)
(0 -0.056573 0)
(0 -0.0206373 0)
(0 -0.0563699 0)
(0 -0.0565353 0)
(0 -0.0563995 0)
(0 -0.0335403 0)
(0 -0.0267528 0)
(0 -0.0563778 0)
(0 -0.000859566 0)
(0 -0.0206402 0)
(0 -0.0054808 0)
(0 -0.0283962 0)
(0 -0.030896 0)
(0 -0.0565574 0)
(0 -0.0227026 0)
(0 -0.023835 0)
(0 -0.0565731 0)
(0 -0.0558124 0)
(0 -0.0562102 0)
(0 -0.0511516 0)
(0 -0.00809899 0)
(0 -0.0148103 0)
(0 -0.0556425 0)
(0 -0.0565625 0)
(0 -0.0565536 0)
(0 -0.00638592 0)
(0 -0.0563285 0)
(0 -0.0142996 0)
(0 -0.0414194 0)
(0 -0.0138454 0)
(0 -0.0565728 0)
(0 -0.0556817 0)
(0 -0.0545046 0)
(0 -0.0565035 0)
(0 -0.0563834 0)
(0 -0.0475573 0)
(0 -0.0565618 0)
(0 -0.0565659 0)
(0 -0.0339879 0)
(0 -0.00760417 0)
(0 -0.0216825 0)
(0 -0.0541089 0)
(0 -0.0563154 0)
(0 -0.000306737 0)
(0 -0.0565061 0)
(0 -0.0268539 0)
(0 -0.0080429 0)
(0 -0.05616 0)
(0 -0.0565729 0)
(0 -0.0482851 0)
(0 -0.0565279 0)
(0 -0.0518175 0)
(0 -0.056573 0)
(0 -0.0424349 0)
(0 -0.0427561 0)
(0 -0.0333979 0)
(0 -0.0520361 0)
(0 -0.0220999 0)
(0 -0.0103921 0)
(0 -0.0514422 0)
(0 -0.0565702 0)
(0 -0.0565708 0)
(0 -0.0538365 0)
(0 -0.0565688 0)
(0 -0.0539674 0)
(0 -0.0565728 0)
(0 -0.0565707 0)
(0 -0.0555895 0)
(0 -0.00713366 0)
(0 -0.0276272 0)
(0 -0.000701361 0)
(0 -0.0235772 0)
(0 -0.0565482 0)
(0 -0.00586285 0)
(0 -0.049497 0)
(0 -0.0486453 0)
(0 -0.0565218 0)
(0 -0.0565705 0)
(0 -0.056566 0)
(0 -0.0408628 0)
(0 -0.0565616 0)
(0 -0.0517597 0)
(0 -0.0528199 0)
(0 -0.0100689 0)
(0 -0.000701611 0)
(0 -0.0565726 0)
(0 -0.0535585 0)
(0 -0.0565731 0)
(0 -0.0536765 0)
(0 -0.0412247 0)
(0 -0.0564974 0)
(0 -0.0101882 0)
(0 -0.0545042 0)
(0 -0.0429727 0)
(0 -0.0565255 0)
(0 -0.0284426 0)
(0 -0.0511298 0)
(0 -0.0403362 0)
(0 -0.00484377 0)
(0 -0.0565255 0)
(0 -0.0499111 0)
(0 -0.0550142 0)
(0 -0.0104039 0)
(0 -0.0549761 0)
(0 -0.0562633 0)
(0 -0.0565732 0)
(0 -0.0279356 0)
(0 -0.0561022 0)
(0 -0.000106737 0)
(0 -0.0502086 0)
(0 -0.00613242 0)
(0 -0.0565102 0)
(0 -0.0557095 0)
(0 -0.0556254 0)
(0 -0.0534868 0)
(0 -0.00552397 0)
(0 -0.0323676 0)
(0 -0.03448 0)
(0 -0.00648548 0)
(0 -0.0177909 0)
(0 -0.0204258 0)
(0 -0.0258515 0)
(0 -0.0565686 0)
(0 -0.0546402 0)
(0 -0.044786 0)
(0 -0.037372 0)
(0 -0.00040995 0)
(0 -0.0563711 0)
(0 -0.0565659 0)
(0 -0.056503 0)
(0 -0.0557534 0)
(0 -0.0376171 0)
(0 -0.0218247 0)
(0 -0.000252141 0)
(0 -0.0232559 0)
(0 -0.0565155 0)
(0 -0.0565729 0)
(0 -0.000334619 0)
(0 -0.0528108 0)
(0 -0.0539965 0)
(0 -0.0565627 0)
(0 -0.047691 0)
(0 -0.0492328 0)
(0 -0.056573 0)
(0 -0.0510461 0)
(0 -0.0224931 0)
(0 -0.056551 0)
(0 -0.0565701 0)
(0 -0.0377354 0)
(0 -0.00626452 0)
(0 -0.0307364 0)
(0 -0.0565719 0)
(0 -0.0565169 0)
(0 -0.0555864 0)
(0 -0.0564977 0)
(0 -0.0565643 0)
(0 -0.0512796 0)
(0 -0.0565696 0)
(0 -0.0561214 0)
(0 -0.039575 0)
(0 -0.0565186 0)
(0 -0.05643 0)
(0 -0.00600615 0)
(0 -0.0565723 0)
(0 -0.0420877 0)
(0 -0.0291013 0)
(0 -0.0121992 0)
(0 -0.056501 0)
(0 -0.0321231 0)
(0 -0.0565299 0)
(0 -0.050985 0)
(0 -0.0512025 0)
(0 -0.0555444 0)
(0 -0.0168796 0)
(0 -0.0565557 0)
(0 -0.0565703 0)
(0 -0.0139421 0)
(0 -0.0494544 0)
(0 -0.0565195 0)
(0 -0.0563965 0)
(0 -0.0565731 0)
(0 -0.0557495 0)
(0 -0.000668457 0)
(0 -0.0241246 0)
(0 -0.0370249 0)
(0 -0.0140367 0)
(0 -0.0490027 0)
(0 -0.0534848 0)
(0 -0.0299202 0)
(0 -0.0561879 0)
(0 -0.0557953 0)
(0 -0.0551276 0)
(0 -0.0243213 0)
(0 -0.000490411 0)
(0 -0.000461676 0)
(0 -0.0551284 0)
(0 -0.0549696 0)
(0 -0.0387536 0)
(0 -0.0563011 0)
(0 -0.0558899 0)
(0 -0.055011 0)
(0 -0.0563845 0)
(0 -0.0561045 0)
(0 -0.0495358 0)
(0 -0.0565704 0)
(0 -0.0281983 0)
(0 -0.0207735 0)
(0 -0.0565475 0)
(0 -0.0565601 0)
(0 -0.0565731 0)
(0 -0.043924 0)
(0 -0.00239041 0)
(0 -0.0565727 0)
(0 -0.0142245 0)
(0 -0.0204993 0)
(0 -0.054791 0)
(0 -0.0098672 0)
(0 -0.0560167 0)
(0 -0.0563709 0)
(0 -0.00581247 0)
(0 -0.0565732 0)
(0 -0.0565548 0)
(0 -0.0515786 0)
(0 -0.0565218 0)
(0 -0.0565731 0)
(0 -0.0295444 0)
(0 -0.0538002 0)
(0 -0.0564927 0)
(0 -0.056573 0)
(0 -0.0534398 0)
(0 -0.0564137 0)
(0 -0.000429521 0)
(0 -0.00448645 0)
(0 -0.0106934 0)
(0 -0.0527826 0)
(0 -0.056571 0)
(0 -0.0565644 0)
(0 -0.0565727 0)
(0 -0.0565631 0)
(0 -0.0519817 0)
(0 -0.0539791 0)
(0 -0.0548358 0)
(0 -0.000587599 0)
(0 -0.00632779 0)
(0 -0.0138506 0)
(0 -0.0565604 0)
(0 -0.0224481 0)
(0 -0.0565693 0)
(0 -0.0538201 0)
(0 -0.0505186 0)
(0 -0.0563591 0)
(0 -0.056552 0)
(0 -0.0565732 0)
(0 -0.056563 0)
(0 -0.0559828 0)
(0 -0.00257541 0)
(0 -0.00936092 0)
(0 -0.056561 0)
(0 -0.0565516 0)
(0 -0.0539711 0)
(0 -0.0104512 0)
(0 -0.00344353 0)
(0 -0.055986 0)
(0 -0.0547131 0)
(0 -0.0565229 0)
(0 -0.0562394 0)
(0 -0.052102 0)
(0 -0.0127543 0)
(0 -0.0565097 0)
(0 -0.0214359 0)
(0 -0.0565732 0)
(0 -0.0504657 0)
(0 -0.0146406 0)
(0 -0.0563435 0)
(0 -0.038964 0)
(0 -0.0565717 0)
(0 -0.00358764 0)
(0 -0.0565727 0)
(0 -0.00619769 0)
(0 -0.0518534 0)
(0 -0.048926 0)
(0 -0.00651341 0)
(0 -0.0499348 0)
(0 -0.055255 0)
(0 -0.0560829 0)
(0 -0.056572 0)
(0 -0.0565699 0)
(0 -0.0540978 0)
(0 -0.0549101 0)
(0 -0.0330105 0)
(0 -0.0565621 0)
(0 -0.056571 0)
(0 -0.00336558 0)
(0 -0.00451044 0)
(0 -0.0145816 0)
(0 -0.000831595 0)
(0 -0.0565732 0)
(0 -0.000186681 0)
(0 -0.0509942 0)
(0 -0.0558709 0)
(0 -0.0496012 0)
(0 -0.0532821 0)
(0 -0.040623 0)
(0 -0.0417083 0)
(0 -0.0563968 0)
(0 -0.05657 0)
(0 -0.027406 0)
(0 -0.0486862 0)
(0 -0.05654 0)
(0 -0.0501306 0)
(0 -0.055626 0)
(0 -0.0536844 0)
(0 -0.0565729 0)
(0 -0.0547051 0)
(0 -0.0561018 0)
(0 -0.0273352 0)
(0 -0.0135708 0)
(0 -0.0138551 0)
(0 -0.056572 0)
(0 -0.0565713 0)
(0 -0.0562039 0)
(0 -0.00749757 0)
(0 -0.0333665 0)
(0 -0.0219799 0)
(0 -0.0565732 0)
(0 -0.0151562 0)
(0 -0.0565705 0)
(0 -0.0565724 0)
(0 -0.0534113 0)
(0 -0.0561318 0)
(0 -0.0444745 0)
(0 -0.0538293 0)
(0 -0.0477952 0)
(0 -0.0438583 0)
(0 -0.0565731 0)
(0 -0.0532326 0)
(0 -0.05639 0)
(0 -0.00112283 0)
(0 -0.0420224 0)
(0 -0.0116562 0)
(0 -0.042699 0)
(0 -0.0565588 0)
(0 -0.0565518 0)
(0 -0.0545566 0)
(0 -0.0565702 0)
(0 -0.0565355 0)
(0 -0.0070874 0)
(0 -0.0318239 0)
(0 -0.0134097 0)
(0 -0.039813 0)
(0 -0.0565728 0)
(0 -0.0565548 0)
(0 -0.0526772 0)
(0 -0.00205785 0)
(0 -0.0470956 0)
(0 -0.055961 0)
(0 -0.056039 0)
(0 -0.0565732 0)
(0 -0.0544264 0)
(0 -0.0565707 0)
(0 -0.0555867 0)
(0 -0.0504056 0)
(0 -0.0294293 0)
(0 -0.00108864 0)
(0 -0.0563256 0)
(0 -0.0231393 0)
(0 -0.013191 0)
(0 -0.0565731 0)
(0 -0.0560123 0)
(0 -0.0565182 0)
(0 -0.0304104 0)
(0 -0.0535707 0)
(0 -0.000464663 0)
(0 -0.0565725 0)
(0 -0.0565575 0)
(0 -0.0369725 0)
(0 -0.042205 0)
(0 -0.0531372 0)
(0 -0.0381068 0)
(0 -0.00688329 0)
(0 -0.0191031 0)
(0 -0.0142308 0)
(0 -0.0565731 0)
(0 -0.054479 0)
(0 -0.0565732 0)
(0 -0.0539816 0)
(0 -0.0565181 0)
(0 -0.056094 0)
(0 -0.056572 0)
(0 -0.0338793 0)
(0 -0.0546645 0)
(0 -0.0565721 0)
(0 -0.0541111 0)
(0 -0.0538245 0)
(0 -0.0565731 0)
(0 -0.0105633 0)
(0 -0.0310533 0)
(0 -0.0545995 0)
(0 -0.0565635 0)
(0 -0.0565729 0)
(0 -0.0541169 0)
(0 -0.0410451 0)
(0 -0.0255911 0)
(0 -0.00284124 0)
(0 -0.0522886 0)
(0 -0.00308467 0)
(0 -0.0565615 0)
(0 -0.0164134 0)
(0 -0.0532787 0)
(0 -0.0420121 0)
(0 -0.013474 0)
(0 -0.0556917 0)
(0 -0.056463 0)
(0 -0.0429288 0)
(0 -0.0565035 0)
(0 -0.0402523 0)
(0 -0.00430542 0)
(0 -0.05565 0)
(0 -0.056573 0)
(0 -0.0557244 0)
(0 -0.0555363 0)
(0 -0.05656 0)
(0 -0.0565092 0)
(0 -0.022492 0)
(0 -0.0341215 0)
(0 -0.053478 0)
(0 -0.0565698 0)
(0 -0.0565671 0)
(0 -0.0282962 0)
(0 -0.0565732 0)
(0 -0.0497046 0)
(0 -0.0284417 0)
(0 -0.0426865 0)
(0 -0.0565654 0)
(0 -0.0561422 0)
(0 -0.0229794 0)
(0 -0.0565731 0)
(0 -0.0481842 0)
(0 -0.0509858 0)
(0 -0.023476 0)
(0 -0.0565723 0)
(0 -0.0055625 0)
(0 -0.0565253 0)
(0 -0.0444503 0)
(0 -0.0538139 0)
(0 -0.0477708 0)
(0 -0.0274846 0)
(0 -0.0564351 0)
(0 -0.0565731 0)
(0 -0.014793 0)
(0 -0.0546136 0)
(0 -0.0563964 0)
(0 -0.000225558 0)
(0 -0.0416557 0)
(0 -0.0351875 0)
(0 -0.0557064 0)
(0 -0.0562797 0)
(0 -0.0562952 0)
(0 -0.0524451 0)
(0 -0.0565669 0)
(0 -0.0538053 0)
(0 -0.0564019 0)
(0 -0.0529548 0)
(0 -0.0560644 0)
(0 -0.0295249 0)
(0 -0.0565731 0)
(0 -0.056573 0)
(0 -0.0545708 0)
(0 -0.0314984 0)
(0 -0.056371 0)
(0 -0.0565638 0)
(0 -0.0440807 0)
(0 -0.0551695 0)
(0 -0.0234109 0)
(0 -0.0536672 0)
(0 -0.0565732 0)
(0 -0.053641 0)
(0 -0.0565705 0)
(0 -0.048522 0)
(0 -0.0562218 0)
(0 -0.0472689 0)
(0 -0.0565732 0)
(0 -0.00310182 0)
(0 -0.0101714 0)
(0 -0.0343931 0)
(0 -0.0556646 0)
(0 -0.0565602 0)
(0 -0.0565619 0)
(0 -0.0563676 0)
(0 -0.0546053 0)
(0 -0.0118546 0)
(0 -0.0527848 0)
(0 -0.0486141 0)
(0 -0.0106938 0)
(0 -0.0565283 0)
(0 -0.000435315 0)
(0 -0.0560232 0)
(0 -0.0381446 0)
(0 -0.0500786 0)
(0 -0.00514928 0)
(0 -0.00892961 0)
(0 -0.0128057 0)
(0 -0.0482183 0)
(0 -0.0517115 0)
(0 -0.0552245 0)
(0 -0.0565717 0)
(0 -0.0351329 0)
(0 -0.052559 0)
(0 -0.0555222 0)
(0 -0.00525066 0)
(0 -0.0350898 0)
(0 -0.0504645 0)
(0 -0.0480852 0)
(0 -0.0555114 0)
(0 -0.00604716 0)
(0 -0.0304631 0)
(0 -0.0564124 0)
(0 -0.00731208 0)
(0 -0.0498183 0)
(0 -0.0388153 0)
(0 -0.0479698 0)
(0 -0.0120728 0)
(0 -0.0565641 0)
(0 -0.0423484 0)
(0 -0.0353284 0)
(0 -0.0565405 0)
(0 -0.0538432 0)
(0 -0.0535968 0)
(0 -0.05657 0)
(0 -0.0564604 0)
(0 -0.0447914 0)
(0 -0.0547859 0)
(0 -0.0506386 0)
(0 -0.0495783 0)
(0 -0.0401667 0)
(0 -0.00489814 0)