/*--------------------------------*- C++ -*----------------------------------*\
| =========                 |                                                 |
| \\      /  F ield         | OpenFOAM: The Open Source CFD Toolbox           |
|  \\    /   O peration     | Version:  v2012                                 |
|   \\  /    A nd           | Website:  www.openfoam.com                      |
|    \\/     M anipulation  |                                                 |
\*---------------------------------------------------------------------------*/
FoamFile
{
    version     2.0;
    format      ascii;
    class       surfaceVectorField;
    location    "450";
    object      Uf_0;
}
// * * * * * * * * * * * * * * * * * * * * * * * * * * * * * * * * * * * * * //

dimensions      [0 1 -1 0 0 0 0];


internalField   nonuniform List<vector> 
20537
(
(1.01416 -0.0136921 0)
(1.01389 -0.0136728 4.42256e-23)
(1.01421 -0.0140741 2.12881e-24)
(0.632101 -0.174425 -6.70862e-22)
(0.694442 -0.169867 -3.4263e-22)
(0.669013 -0.180139 5.06568e-21)
(1.03158 -0.0648228 3.99023e-21)
(1.03002 -0.0630913 -3.28183e-22)
(1.02875 -0.0650701 3.32779e-21)
(1.01336 -0.0129734 -3.40119e-23)
(1.01356 -0.0133193 1.26764e-22)
(1.01315 -0.0130149 -6.02794e-23)
(1.06054 -0.0719858 -3.48926e-22)
(1.05854 -0.0724384 -7.58542e-22)
(1.05922 -0.07046 5.64176e-21)
(0.973107 -0.0307081 -3.58368e-21)
(0.979577 -0.0348349 2.37144e-21)
(0.98035 -0.0278836 -2.20704e-21)
(1.03153 -0.00360404 -6.29479e-21)
(1.03216 -0.00389763 9.40873e-22)
(1.03205 -0.00333889 -1.36286e-21)
(1.04067 -0.0511618 1.05226e-21)
(1.04187 -0.0505616 6.51459e-21)
(1.04177 -0.0523545 7.84249e-21)
(1.00676 -0.000182868 0)
(1.00693 -0.000158746 3.27873e-23)
(1.0068 -0.000104752 4.26496e-23)
(1.0218 -0.0364936 1.33727e-22)
(1.02487 -0.0369348 2.86469e-23)
(1.02304 -0.039344 -1.39962e-22)
(0.96592 0.106562 -9.17645e-23)
(0.950125 0.11608 -2.47752e-21)
(0.959119 0.107552 -6.01129e-22)
(0.407313 0.0805423 0)
(0.386143 0.0729853 -6.29959e-21)
(0.357687 0.0913007 -2.0053e-21)
(0.972756 -0.0895133 -1.14665e-20)
(1.01283 -0.0900076 -1.83857e-20)
(0.979054 -0.0866874 -4.52296e-21)
(-0.00469075 -0.0704204 -6.21685e-21)
(0.015158 -0.0828414 0)
(-0.0222539 -0.0937286 -7.81318e-21)
(1.01936 -0.000794627 -3.49105e-21)
(1.01946 -0.000722147 2.66716e-21)
(1.01953 -0.000881754 2.96182e-21)
(1.03286 -0.0386389 -5.99461e-22)
(1.03355 -0.0388626 2.1578e-21)
(1.03306 -0.0394712 0)
(1.04084 -0.0292282 -2.86533e-21)
(1.03998 -0.0286441 -8.37714e-22)
(1.04095 -0.0283981 -2.36523e-22)
(1.01298 -0.0210542 1.18491e-22)
(1.01361 -0.0218497 3.81487e-23)
(1.01256 -0.0219717 -5.35988e-22)
(1.08004 -0.103482 9.88364e-21)
(1.07818 -0.106647 -1.0012e-20)
(1.08124 -0.102926 5.79715e-21)
(1.00659 -0.000210504 4.84126e-23)
(1.00673 -0.000267126 -3.05062e-23)
(1.01307 -0.0125178 -8.36047e-23)
(1.01354 -0.0128542 -7.02307e-23)
(1.03463 -0.0650598 2.62859e-21)
(1.03329 -0.0673813 -2.55769e-21)
(1.00368 5.0417e-05 -4.90985e-23)
(1.00426 0.000108081 -6.19077e-23)
(1.00489 0.000172817 -4.67104e-23)
(1.00225 -3.79679e-05 -6.70991e-24)
(1.0009 2.41236e-05 -2.20911e-23)
(1.00241 -3.6257e-05 2.86223e-23)
(1.00315 4.23962e-05 0)
(1.00236 -3.1624e-05 0)
(1.03949 -0.0503147 -5.87266e-22)
(1.03933 -0.051986 -3.1473e-21)
(1.05216 -0.023339 0)
(1.05174 -0.0224598 3.76714e-21)
(1.05112 -0.0231292 -7.20735e-21)
(0.00172378 -0.0662667 1.09478e-20)
(-0.00320081 -0.0621257 -4.96278e-20)
(1.01424 -0.0134867 0)
(1.01449 -0.0138975 0)
(1.02151 -0.0233152 3.29227e-22)
(1.02202 -0.0239542 1.23011e-21)
(1.02121 -0.0238052 -1.51271e-21)
(0.966757 -0.0251685 -2.02179e-21)
(0.964908 -0.0328055 -5.74136e-21)
(1.04061 -0.0301543 -1.07637e-20)
(1.0417 -0.0299417 -1.94146e-21)
(1.03091 -0.0610668 -1.38386e-21)
(1.02847 -0.0609579 -2.55034e-21)
(0.916339 -0.148382 9.28088e-21)
(0.920937 -0.154245 4.20262e-21)
(0.913772 -0.156377 4.02913e-21)
(1.00212 -1.10089e-05 -1.15029e-24)
(1.00341 -5.91169e-05 0)
(1.08868 -0.0672034 5.32829e-21)
(1.0889 -0.0675279 -7.08693e-21)
(1.08701 -0.0676947 0)
(1.08821 -0.0675123 1.11868e-20)
(1.09603 -0.0673224 -7.35424e-22)
(1.09645 -0.0682482 1.17282e-20)
(1.03102 -0.109036 3.0704e-21)
(1.03526 -0.112098 0)
(1.03495 -0.105108 4.5725e-21)
(1.0206 -0.0341108 -4.65564e-22)
(1.01868 -0.0372246 4.09659e-22)
(0.917832 -0.136398 -2.39304e-22)
(0.906691 -0.140009 -1.71429e-20)
(1.01334 -0.0081979 0)
(1.01328 -0.00832212 0)
(1.01359 -0.00849487 -1.16028e-23)
(1.01117 0.00082174 0)
(1.01104 0.000823262 0)
(1.01086 0.000771595 0)
(0.025273 0.101933 -1.26023e-20)
(0.0368788 0.0928238 -7.48146e-21)
(0.0251207 0.0865138 1.07921e-20)
(0.914752 0.131481 -6.94686e-22)
(0.913832 0.120993 -2.08077e-21)
(0.922645 0.124683 3.89556e-22)
(0.916149 0.132302 2.33404e-22)
(0.909844 0.135055 -5.47597e-21)
(0.161269 0.0703052 2.02885e-22)
(0.196296 0.0597035 1.41036e-20)
(0.218101 0.0453446 -1.04008e-21)
(0.909004 0.116647 2.60771e-21)
(0.906425 0.127089 -7.98407e-21)
(0.908916 0.129599 1.71933e-21)
(0.901293 0.0909079 2.05132e-21)
(0.869658 0.126177 -2.68039e-21)
(0.874964 0.0990225 2.31545e-21)
(1.05253 -0.024246 0)
(1.05318 -0.0235226 8.95623e-21)
(0.980492 0.0160082 0)
(0.988094 0.0160831 0)
(0.982896 0.00931168 -3.35004e-22)
(1.07457 -0.0627655 -2.12192e-21)
(1.07553 -0.0634406 -1.55305e-20)
(1.07552 -0.0621232 -1.54605e-20)
(1.07967 -0.0750003 -1.46359e-23)
(1.07959 -0.0739993 -1.41329e-20)
(1.08099 -0.0743141 -1.11351e-20)
(-0.0336655 0.0501297 -9.1963e-21)
(-0.0264655 0.0569749 5.18717e-21)
(-0.024003 0.0430138 -2.62231e-20)
(1.01898 -0.000704552 2.37158e-21)
(1.01853 -0.000447401 -8.19969e-22)
(1.01904 -0.000784445 1.95111e-21)
(1.00965 -0.000831866 -2.94623e-21)
(1.00962 -0.000796564 6.61283e-23)
(1.0106 -0.000982513 -1.48545e-21)
(1.0113 0.000820624 5.75182e-23)
(1.01149 0.000875885 0)
(1.00414 0.000157931 9.12354e-23)
(1.00463 0.000198086 1.87402e-22)
(1.00366 0.000145891 -3.89037e-23)
(-0.0749996 0.0380403 -8.80098e-21)
(-0.0842367 0.045793 -1.01193e-21)
(-0.0784679 0.0333682 -1.5272e-20)
(1.02182 -0.0226636 1.52477e-21)
(1.02097 -0.0225887 -1.27833e-22)
(1.03252 -0.00683793 3.39468e-22)
(1.03201 -0.00645902 0)
(1.03272 -0.00634095 0)
(1.03102 -0.114136 2.81407e-21)
(1.02475 -0.106444 -1.15834e-21)
(0.547434 -0.16001 -3.92836e-21)
(0.551533 -0.157145 -2.2626e-21)
(0.511957 -0.167312 -1.18625e-20)
(1.00106 0.00164736 4.59418e-22)
(1.00464 0.00585718 3.13166e-22)
(1.00525 0.000243125 3.17668e-21)
(1.06487 -0.0747922 9.16494e-21)
(1.06307 -0.0753007 1.70025e-21)
(1.06455 -0.076649 8.21088e-21)
(0.99549 -0.102908 -5.09668e-22)
(0.988849 -0.0960052 -4.11095e-22)
(0.999265 -0.0934368 8.55703e-22)
(1.01407 -0.0152577 -2.92066e-22)
(1.01362 -0.014858 -4.7394e-22)
(1.01358 -0.0154183 1.0972e-22)
(1.07093 -0.0682891 0)
(1.074 -0.0681997 8.11147e-21)
(0.919658 0.0811723 -1.92029e-21)
(0.913202 0.102263 4.95395e-21)
(1.0638 -0.0418357 0)
(1.06262 -0.0421441 -8.04499e-21)
(1.0628 -0.0408426 2.01556e-22)
(1.01348 -0.0202202 2.13242e-22)
(1.01264 -0.0200029 -2.72109e-23)
(0.324332 -0.010631 -2.7044e-21)
(0.313904 -0.0097692 -1.3988e-20)
(0.291201 -0.00608594 -2.01229e-20)
(1.00136 -0.0695524 1.36125e-20)
(0.999448 -0.0708546 -3.05056e-21)
(1.03804 -0.0704529 1.45266e-20)
(0.586649 -0.173108 -7.94817e-21)
(0.59529 -0.160008 -3.11587e-22)
(1.0192 -0.000718775 -2.29915e-21)
(1.01888 -0.000681624 3.26395e-21)
(1.01029 -0.00125993 -1.2753e-21)
(1.01055 -0.00142281 -2.36502e-21)
(1.01031 -0.00149131 -8.84894e-22)
(1.00839 -0.000236789 -1.65253e-22)
(1.00844 -0.000161977 2.96321e-23)
(1.00823 -0.000198114 -2.35021e-22)
(1.03653 -0.0653876 -1.87902e-21)
(1.03557 -0.0637472 0)
(0.424515 -0.0113504 7.10069e-21)
(0.445276 -0.0138056 1.64227e-20)
(0.426623 -0.00996889 -5.95838e-21)
(1.05697 -0.0539719 8.61663e-21)
(1.05779 -0.055255 -7.56419e-21)
(1.05623 -0.0553287 9.42626e-21)
(0.3025 -0.0119528 0)
(0.275874 -0.0101877 1.15852e-20)
(1.03564 -0.0113519 2.87154e-21)
(1.0348 -0.0112529 4.57136e-21)
(1.03506 -0.0106451 3.04867e-21)
(0.893528 -0.101855 -6.09204e-23)
(0.901038 -0.0995683 0)
(0.895463 -0.0991089 1.70327e-22)
(1.02094 -0.00565072 2.59328e-21)
(1.02112 -0.00597814 4.8377e-21)
(1.02064 -0.00578824 5.83068e-21)
(0.156267 0.0725742 -3.19874e-20)
(0.174729 0.0621474 -3.56842e-21)
(0.13496 0.0776638 3.68888e-21)
(0.99869 -0.00192476 1.52573e-21)
(0.995831 0.00299489 4.87675e-22)
(0.428565 0.0834366 0)
(0.469339 0.0684167 8.91012e-21)
(0.986235 -0.0124693 -3.66996e-25)
(0.983911 -0.0164868 3.11585e-21)
(0.989211 -0.0162402 1.02647e-22)
(0.819531 -0.051067 5.14001e-21)
(0.893436 -0.0693141 4.53096e-21)
(0.865575 -0.0548747 6.04969e-21)
(1.0481 -0.0286124 3.48528e-21)
(1.04719 -0.0290146 -3.93105e-21)
(1.04829 -0.0297977 4.65611e-21)
(1.01363 0.0031717 -7.93478e-23)
(1.01318 0.00294642 1.39879e-22)
(1.01369 0.00302897 1.53103e-22)
(1.08797 -0.0668625 -2.24274e-21)
(1.08851 -0.0670307 4.56139e-21)
(1.02402 -0.00445554 6.65047e-22)
(1.02695 -0.00274686 6.76514e-23)
(1.02646 -0.00649273 4.42831e-22)
(0.914145 0.057001 5.64019e-21)
(1.05153 -0.0335992 -6.68438e-22)
(1.05108 -0.0343156 5.27905e-21)
(1.05217 -0.0345038 1.13925e-20)
(1.0482 -0.0277878 6.08045e-21)
(1.04924 -0.0283356 -2.71094e-21)
(1.00201 9.57188e-05 3.48832e-23)
(1.00203 0.000106411 -2.81373e-22)
(1.00303 5.92334e-05 8.08241e-23)
(1.06169 -0.0739263 -8.08001e-21)
(1.06251 -0.0719037 9.45885e-21)
(0.665396 -0.0561294 -4.89496e-21)
(0.643027 -0.0520781 -5.21229e-21)
(0.643192 -0.0496453 4.8389e-21)
(0.969956 0.0152415 -2.57395e-23)
(0.977571 0.0232557 0)
(1.00082 8.08473e-05 -3.21934e-23)
(1.00197 6.2827e-05 8.7127e-23)
(-0.109377 0.0455376 2.74499e-21)
(-0.088824 0.0486465 5.60249e-21)
(-0.102228 0.0342384 2.51377e-20)
(1.06487 -0.0561189 -8.12292e-22)
(1.0662 -0.0557509 -7.87673e-21)
(1.06505 -0.0547556 -4.61752e-23)
(1.0163 -0.0139328 0)
(1.01651 -0.0143202 -6.58312e-22)
(1.0162 -0.0140651 0)
(1.05917 -0.0154083 -1.84493e-21)
(1.06019 -0.0158686 -1.84265e-20)
(1.0046 5.30484e-05 -1.3497e-23)
(1.0058 7.59075e-05 4.89937e-24)
(1.00484 4.48382e-05 -2.74526e-23)
(0.98288 -0.00276298 -6.46655e-22)
(0.98315 0.00356159 4.77316e-22)
(0.987571 0.000240536 -1.70243e-21)
(1.06945 -0.0572855 -9.74736e-21)
(1.0683 -0.0576589 7.80769e-21)
(1.06935 -0.0586917 6.29836e-21)
(1.01042 0.000548413 2.05699e-23)
(1.01033 0.000556493 -1.65911e-23)
(1.01018 0.000506548 -3.23769e-23)
(0.919098 -0.0690454 0)
(0.8713 -0.0685163 9.65586e-21)
(0.980251 -0.0419511 1.91655e-21)
(0.9863 -0.0376257 4.99767e-22)
(1.00158 2.5859e-05 2.21103e-23)
(1.00044 2.93594e-05 6.71149e-24)
(1.00154 2.60588e-05 3.13501e-23)
(1.01417 0.00346807 -7.36839e-23)
(1.01358 0.00332105 -1.78654e-22)
(1.0218 -0.00575754 9.04888e-22)
(1.02199 -0.00326143 3.57585e-23)
(0.999786 4.92383e-05 6.96842e-24)
(0.999811 4.69606e-06 0)
(1.00255 1.9457e-05 -3.81532e-23)
(1.00144 2.97372e-05 1.04753e-22)
(0.791527 -0.15261 -2.27543e-21)
(0.8065 -0.149369 -2.84807e-21)
(0.691429 -0.0604376 4.85016e-21)
(0.691855 -0.0641457 1.2739e-21)
(1.00945 0.000431718 0)
(1.00948 0.000464929 -3.69573e-23)
(1.00954 0.000460463 -8.76765e-23)
(1.0038 -0.000303887 -3.2624e-24)
(1.00363 -0.000293522 -6.00397e-24)
(1.00185 -0.000145941 5.12857e-22)
(1.00899 -0.000708012 6.24974e-22)
(1.00765 -0.000604259 6.5583e-22)
(1.00726 -0.000488578 5.48804e-22)
(0.0203504 0.111021 2.32661e-20)
(0.0141056 0.110853 -2.91736e-20)
(1.0584 -0.0164449 -1.18559e-20)
(1.05786 -0.0151569 2.59379e-21)
(0.968818 -0.0930509 5.76196e-22)
(0.930609 -0.0892862 -5.79908e-21)
(0.853034 -0.0855338 -2.02285e-21)
(0.935657 0.0513225 -2.55966e-22)
(0.926752 0.0807134 4.74187e-21)
(1.01923 0.0055903 2.73166e-22)
(1.01926 0.00487866 1.59603e-22)
(1.02016 0.0056941 1.5819e-22)
(0.971108 0.00645484 7.06687e-21)
(0.941879 0.0120406 5.99002e-22)
(1.06058 -0.0550312 2.11333e-21)
(1.06178 -0.0550921 -1.50325e-20)
(1.06103 -0.0564137 6.17259e-22)
(1.01293 -0.012111 4.30577e-23)
(1.01268 -0.0121532 3.11272e-22)
(1.05915 -0.0919509 2.96874e-21)
(1.06011 -0.0896553 -4.87274e-21)
(1.06207 -0.0924545 0)
(1.0131 -0.00789076 -6.75249e-22)
(1.0134 -0.00804995 0)
(1.00592 -0.00106274 -1.69699e-23)
(1.00604 -0.00115875 -4.09723e-23)
(1.00597 -0.00110739 1.09693e-22)
(0.333759 -0.0128339 1.82271e-21)
(0.345328 -0.0163436 2.71358e-20)
(1.02119 -0.00544826 -1.59209e-21)
(1.02069 -0.00527135 -2.33753e-21)
(0.803956 -0.176653 -3.64198e-21)
(1.00595 -0.000551447 0)
(1.00584 -0.000512392 2.12661e-22)
(1.00549 -0.000440249 0)
(1.00943 0.000388059 0)
(1.00937 0.00039084 -9.14019e-23)
(1.00724 -0.0686951 9.20041e-22)
(1.01309 -0.0684885 -1.96757e-23)
(1.04494 -0.0695045 8.13881e-21)
(0.131435 -0.196471 -9.95369e-21)
(0.0903006 -0.193918 4.7342e-21)
(0.100113 -0.192171 -9.41075e-21)
(0.237501 -0.0621094 0)
(0.314247 -0.0346173 0)
(0.255128 -0.0462921 0)
(-0.114904 0.052664 -5.76673e-21)
(-0.119529 0.0397921 -1.3e-20)
(1.00995 -0.000994607 -1.29896e-22)
(1.00822 -0.000512294 -9.25187e-22)
(1.01248 0.000714966 -3.22833e-22)
(1.01267 0.00115202 -1.10093e-22)
(1.01319 0.000923762 -9.67939e-23)
(1.01404 0.00150294 -9.11042e-23)
(1.01382 0.00149969 3.61671e-23)
(1.01423 0.00154168 -2.09368e-23)
(1.03284 -0.0232379 -1.35739e-21)
(1.03338 -0.0240126 -9.10529e-22)
(1.03351 -0.0230688 4.33935e-21)
(0.906973 0.114028 1.98637e-21)
(0.909764 0.103906 -1.7313e-23)
(1.02695 -0.00635257 0)
(1.02441 -0.00582027 2.68922e-23)
(1.02545 -0.00426682 9.63207e-25)
(1.0583 -0.095245 -1.61318e-21)
(1.05552 -0.0918457 3.65908e-21)
(1.03083 -0.00323796 2.98205e-21)
(1.03088 -0.00377939 3.32709e-21)
(0.925661 0.125338 2.26111e-21)
(0.914572 0.125555 -1.62073e-21)
(1.08839 -0.0575504 -7.83948e-21)
(1.08798 -0.0584905 -3.64549e-21)
(1.00786 -0.000715612 5.34948e-22)
(1.00815 -0.000720469 -1.13485e-21)
(1.00909 -0.000828066 -4.03655e-22)
(-0.0343253 -0.0590283 1.22026e-21)
(0.024179 -0.0535588 -4.00094e-21)
(1.0037 0.000133785 9.98005e-24)
(1.00459 0.000165001 0)
(1.04107 -0.0199884 -5.22055e-21)
(1.04185 -0.0201829 -4.22051e-21)
(1.04136 -0.0192731 -2.36565e-21)
(1.03213 -0.0235366 2.46962e-21)
(1.03215 -0.0225776 2.31509e-21)
(1.00862 -0.0035931 -1.39116e-22)
(1.00847 -0.00341862 -6.50407e-22)
(1.00856 -0.00348139 -2.49193e-23)
(1.02348 -0.0217902 -5.83283e-22)
(1.02363 -0.0212308 3.0591e-21)
(1.02411 -0.0218328 2.38769e-21)
(1.08094 -0.0764281 3.32389e-20)
(1.07867 -0.0759174 3.7267e-21)
(1.07355 -0.0619699 2.39828e-20)
(1.07352 -0.0633584 6.65028e-21)
(1.01453 0.000852548 -1.30893e-23)
(1.01411 0.000828153 2.1922e-25)
(1.01438 0.000813598 -2.03074e-24)
(1.05937 -0.0312083 -2.66909e-21)
(1.05908 -0.0320086 -4.06535e-21)
(1.06016 -0.0319564 1.23184e-20)
(-0.0664989 0.0294298 2.82949e-21)
(-0.0699388 0.0429749 -4.46702e-21)
(1.0058 -0.000975616 -1.06143e-23)
(1.00588 -0.00101747 -1.22517e-22)
(1.02215 -0.0320833 -7.79714e-22)
(1.02348 -0.0321306 1.60793e-21)
(1.02265 -0.0309535 -8.16885e-22)
(1.01247 0.00122951 -8.26153e-23)
(1.01264 0.00128185 2.00922e-23)
(1.01229 0.0012221 -5.94208e-23)
(1.02962 -0.00632798 1.78582e-23)
(1.02772 -0.00927776 0)
(1.06481 -0.0428252 0)
(1.06494 -0.0414533 -7.14189e-21)
(1.01313 -0.0119935 -1.45234e-22)
(1.01272 -0.0117094 2.24492e-22)
(0.562352 -0.0418226 1.36878e-20)
(0.517205 -0.0300934 9.77894e-22)
(0.555767 -0.0332591 3.11431e-20)
(0.397274 -0.00756597 0)
(0.42103 -0.0116644 0)
(1.00545 0.000322215 6.44896e-23)
(1.00549 0.000318153 -1.16064e-22)
(1.00558 0.000360939 1.55267e-23)
(1.00877 -0.00377984 0)
(1.00869 -0.00370318 0)
(0.183151 -0.088388 0)
(0.229305 -0.0748692 3.5108e-21)
(1.00567 -0.000890744 -1.04439e-22)
(1.00571 -0.000925361 -2.23391e-23)
(0.849881 0.152231 -1.92531e-21)
(0.863516 0.143169 -1.98938e-21)
(1.05897 -0.0551977 -1.17765e-20)
(1.0597 -0.053783 -3.14356e-21)
(1.0107 0.000863899 -1.47448e-23)
(1.01035 0.000694576 6.46149e-22)
(1.01057 0.00123312 1.09156e-22)
(1.05817 -0.102085 -1.16766e-20)
(1.08612 -0.100472 -7.59289e-21)
(1.01094 0.000629257 6.94924e-24)
(1.01104 0.000623109 1.66736e-23)
(1.01125 0.0006696 -4.78398e-23)
(1.04118 -0.0316161 2.81114e-21)
(1.04044 -0.03099 -4.40893e-21)
(1.04028 -0.0318388 -2.416e-21)
(0.964071 -0.0687626 -4.50971e-23)
(1.02115 -0.00486168 0)
(1.02092 -0.00454694 0)
(1.02071 -0.00474485 0)
(1.03214 -0.0690525 -1.15265e-20)
(1.03487 -0.069193 -6.82575e-21)
(1.00954 0.000208537 1.31142e-22)
(1.00914 0.000174534 -3.26723e-23)
(1.00941 0.000185907 6.80195e-24)
(1.00311 4.43586e-05 1.75043e-22)
(1.00351 8.63454e-05 5.18146e-23)
(1.00421 0.000165707 -9.87168e-23)
(1.01457 -0.0156041 -2.30142e-22)
(1.01442 -0.0151199 2.83481e-22)
(1.01 -0.00103848 5.20644e-22)
(1.01 -0.00098977 1.74777e-21)
(1.05721 -0.076525 -5.22982e-21)
(1.05497 -0.0768163 4.54752e-22)
(1.05643 -0.0789447 1.91226e-21)
(1.04298 -0.044599 0)
(1.04572 -0.0430802 5.07791e-22)
(1.04213 -0.0418958 0)
(0.905548 0.0963856 -4.15296e-22)
(-0.0398928 0.042505 3.78163e-20)
(-0.0437082 0.0556984 1.7921e-20)
(1.01461 0.0037111 0)
(1.0145 0.00394515 0)
(1.01515 0.00406323 8.41929e-24)
(1.05812 -0.0434875 0)
(1.05918 -0.0430936 7.93467e-21)
(1.05824 -0.0422559 1.29878e-20)
(0.542264 -0.162376 6.98637e-21)
(0.583102 -0.154789 -1.95089e-22)
(1.03932 -0.0194426 -9.0258e-22)
(1.04013 -0.0197772 3.35362e-21)
(1.03966 -0.0189224 3.77471e-21)
(1.01231 0.000426949 -3.14771e-22)
(1.01189 0.000519395 5.77055e-22)
(0.875624 -0.0905738 2.49076e-21)
(0.869626 -0.0676167 0)
(0.879852 -0.0882021 0)
(1.01115 0.0010617 -2.88186e-22)
(1.01077 0.000555632 -5.96344e-22)
(1.00834 -0.0003162 0)
(1.00854 -0.00027451 0)
(1.01903 0.00635686 -1.02961e-22)
(1.01831 0.00534505 -6.69988e-23)
(0.324497 -0.0375886 0)
(0.395033 -0.0723556 -1.44052e-20)
(0.378936 -0.0432374 2.08968e-21)
(1.0011 -0.000120042 -7.50824e-22)
(1.0028 -0.000180268 5.82786e-22)
(1.00074 -0.000133395 4.27266e-22)
(1.0169 -0.00665293 -7.64108e-22)
(1.01655 -0.00635087 -2.6828e-21)
(1.01661 -0.00671291 -7.37453e-22)
(1.03582 -0.039533 5.31713e-22)
(1.03574 -0.0407279 3.77532e-22)
(1.03455 -0.0401976 5.10743e-22)
(1.02162 -0.00495589 0)
(1.0214 -0.00519333 8.64469e-22)
(0.352175 -0.148807 3.86528e-22)
(0.295163 -0.155398 2.33625e-22)
(0.31254 -0.147451 -2.79688e-21)
(1.04302 -0.0293967 1.53234e-21)
(1.04267 -0.0284625 6.92895e-21)
(1.04384 -0.0287786 8.50515e-21)
(0.464735 -0.0252831 -5.79829e-21)
(0.445028 -0.022029 -1.34579e-20)
(0.463005 -0.0256366 -4.15045e-21)
(1.01229 0.000687944 -2.54931e-23)
(1.01262 0.000718709 -1.73976e-23)
(1.01251 0.000739201 -1.51962e-23)
(0.722059 -0.0545544 -1.00091e-20)
(0.684187 -0.0524914 7.76839e-21)
(0.695124 -0.0522852 -8.6837e-21)
(1.01642 -0.013716 -3.72115e-22)
(1.01609 -0.0134903 0)
(0.895751 -0.105952 2.80066e-21)
(0.885718 -0.0835607 -5.0983e-21)
(0.90044 -0.0721431 -2.10399e-21)
(1.01082 0.00053278 -8.53378e-24)
(1.01069 0.000536349 3.20164e-23)
(1.01053 0.000491713 -2.279e-23)
(1.01358 0.00142279 -1.3151e-22)
(1.01379 0.00142698 4.41685e-23)
(1.01337 0.00137774 9.86807e-23)
(1.01568 0.052534 3.58065e-21)
(1.00455 0.0673679 4.75289e-21)
(1.01182 0.0641105 4.55841e-21)
(0.992045 -0.00696523 1.28678e-21)
(0.996814 -0.00605921 2.64992e-21)
(0.996355 -0.010881 -1.17844e-21)
(0.115301 0.0867413 1.11064e-21)
(0.127993 0.0726713 1.09158e-21)
(1.01963 -0.00187081 -1.67376e-21)
(1.01951 -0.00164905 -1.76596e-21)
(1.01935 -0.00178352 5.40304e-23)
(0.468182 -0.0252843 -1.24189e-20)
(0.486324 -0.0284949 0)
(1.04245 -0.0298459 -2.45398e-22)
(1.04334 -0.0300523 -2.70909e-21)
(1.03618 -0.0119043 -8.09022e-22)
(1.03643 -0.0112841 2.53807e-21)
(0.753319 -0.0567756 2.83898e-23)
(0.72677 -0.0546661 4.84873e-21)
(0.724084 -0.0541376 1.16651e-20)
(1.07258 -0.0806886 7.88748e-21)
(1.07225 -0.0825728 0)
(1.07447 -0.0818683 -3.32746e-21)
(0.624951 -0.0489562 -3.33136e-22)
(0.596279 -0.0462779 -1.02843e-21)
(0.595967 -0.0473429 -1.15737e-21)
(1.00304 6.81705e-05 1.58882e-22)
(1.0031 5.41395e-05 -9.34016e-23)
(1.00183 4.78074e-05 -2.53034e-22)
(1.0523 -0.0371673 -1.04315e-23)
(1.05312 -0.0381488 -2.45401e-21)
(1.05184 -0.0382282 1.08834e-21)
(1.00436 4.65367e-05 8.37675e-23)
(1.00321 5.59774e-07 -9.0732e-23)
(-0.0610164 0.0881495 3.2399e-21)
(-0.0543521 0.0942755 -6.2217e-21)
(-0.0540122 0.0869575 5.23886e-21)
(1.01095 0.000530588 -2.96496e-23)
(1.01112 0.000575137 1.90596e-23)
(1.03841 -0.0495684 -9.72272e-22)
(1.0394 -0.048979 2.90335e-21)
(0.940497 -0.050445 -2.65878e-21)
(0.947217 -0.058181 -1.11621e-21)
(0.934529 -0.0610439 -1.79611e-21)
(1.00534 0.000293395 -3.89664e-23)
(1.00542 0.000329752 9.13637e-23)
(1.01467 0.00347329 -1.08085e-22)
(1.07674 -0.0590578 0)
(1.07572 -0.0597076 -1.98582e-21)
(1.07563 -0.0584484 -1.00669e-20)
(1.00185 -0.0360658 3.19955e-22)
(1.00426 -0.0351786 -1.82354e-22)
(1.00223 -0.033145 4.42651e-22)
(0.404078 -0.143151 1.22272e-21)
(0.386644 -0.150873 0)
(0.997462 -0.11122 -3.98548e-22)
(1.00513 -0.107437 -7.64139e-22)
(1.01381 0.00146379 -2.24634e-22)
(1.01424 0.00150619 3.32439e-23)
(1.01713 -0.00661425 1.34555e-21)
(1.01718 -0.00693812 3.27954e-21)
(0.970276 -0.0174011 -1.69166e-21)
(0.961999 -0.0180686 6.48961e-22)
(0.938959 0.0918337 -2.47457e-21)
(0.931198 0.0782533 1.65389e-22)
(0.951758 0.0823657 -4.5927e-21)
(1.01797 0.000866358 4.26645e-22)
(1.01747 0.000926493 -4.04038e-23)
(1.01796 0.000975712 -3.18517e-23)
(1.03566 -0.0380339 -2.77359e-22)
(1.03721 -0.0387699 1.32054e-22)
(1.00685 9.76106e-05 0)
(1.00664 9.42174e-05 0)
(0.563925 -0.0416896 7.877e-21)
(0.540181 -0.038808 -2.97412e-23)
(0.559228 -0.0413273 6.96965e-22)
(1.06369 -0.0565912 -1.27872e-21)
(1.06483 -0.0576486 3.77304e-22)
(0.897819 -0.140479 -1.74851e-21)
(0.901278 -0.148489 -1.07376e-21)
(0.904234 -0.150411 1.54703e-21)
(1.03155 -0.0237428 2.35671e-21)
(1.03084 -0.0238961 3.33266e-21)
(1.03093 -0.0230275 -2.15583e-21)
(1.03432 -0.0312636 0)
(1.03435 -0.0302803 0)
(1.03352 -0.0307398 -1.35393e-21)
(1.00416 -0.00711741 -6.96871e-22)
(1.00475 -0.00918663 -7.24896e-22)
(1.00562 -0.00720527 8.47783e-22)
(0.94756 0.099957 -8.42584e-22)
(0.925201 0.103138 -2.60966e-22)
(1.0292 -0.0147956 0)
(1.0295 -0.0153202 0)
(1.0288 -0.0150736 2.82089e-21)
(1.03216 -0.0243735 2.09225e-21)
(1.07471 -0.0527774 0)
(1.07574 -0.0534705 0)
(1.07427 -0.0539061 -5.84753e-22)
(1.05561 0.0233467 4.95614e-22)
(1.02133 0.0469626 7.1451e-21)
(1.05415 0.0308797 -1.35346e-20)
(1.04313 -0.0479078 1.25508e-21)
(1.04066 -0.0459795 0)
(0.975584 -0.0677342 1.50932e-22)
(1.01562 -0.0677745 -1.18144e-20)
(0.399647 -0.00318088 -4.61818e-21)
(0.324837 0.00185868 -1.14569e-20)
(0.290068 0.00287541 1.70134e-21)
(1.02295 -0.00206127 1.44345e-21)
(1.02257 -0.00183002 -1.23729e-21)
(1.02255 -0.00210794 -3.73593e-21)
(1.01338 0.00142059 -6.36537e-23)
(1.01391 -0.0195873 1.50496e-23)
(1.01381 -0.0186325 0)
(1.01446 -0.0188289 3.62329e-23)
(0.888559 -0.0911492 1.04452e-21)
(0.907153 -0.0823062 1.87923e-21)
(0.898212 -0.102301 0)
(1.01522 0.00261247 -1.11506e-22)
(1.01505 0.00245674 -6.99652e-23)
(1.01555 0.00261556 0)
(1.02603 -0.113125 2.093e-21)
(1.03062 -0.115825 -4.85235e-21)
(0.988482 -0.115181 -4.00909e-23)
(1.0391 -0.0201449 1.04863e-21)
(1.03859 -0.0192822 -1.02217e-21)
(1.02957 -0.0145108 0)
(1.02888 -0.0142517 4.33744e-21)
(1.05212 -0.0329433 -4.74764e-21)
(1.05104 -0.0329232 -7.01527e-21)
(0.783981 -0.0607624 -3.3617e-22)
(0.780323 -0.0593211 -2.82924e-23)
(1.04069 0.00799237 0)
(1.03695 0.00732001 0)
(1.03845 0.0126156 7.18959e-23)
(1.0027 -0.00649766 -3.20572e-22)
(1.00433 -0.00516178 1.62979e-21)
(1.04067 -0.0207096 -2.09332e-21)
(0.94267 -0.0608983 7.58293e-22)
(0.955316 -0.0580101 4.86885e-21)
(0.947437 -0.0729783 -5.65599e-22)
(1.05612 -0.052803 0)
(1.05757 -0.0526584 1.01374e-21)
(1.03209 -0.0386452 -3.02764e-21)
(1.03239 -0.0379549 1.27424e-21)
(1.00616 -0.00125477 2.00473e-22)
(1.00611 -0.00119468 -6.61049e-22)
(0.891441 -0.0973045 -9.66885e-22)
(0.888565 -0.102629 -2.07226e-22)
(1.04312 -0.00356495 0)
(1.0445 0.000844865 0)
(1.04265 0.00289063 0)
(0.634471 -0.0557834 -1.82767e-20)
(0.603778 -0.0522542 8.93441e-21)
(0.60197 -0.054108 -7.24695e-21)
(0.980244 0.0942347 -2.04102e-21)
(0.970612 0.0972838 -4.64085e-22)
(1.01841 0.000834259 3.02155e-23)
(1.01793 0.000827587 9.02275e-23)
(1.01188 0.000588564 -4.6677e-24)
(1.0121 0.000645838 1.02013e-23)
(1.0122 0.00062138 -1.89417e-24)
(1.005 2.29428e-05 -4.70707e-24)
(1.00527 4.51113e-05 -1.90052e-23)
(1.00619 0.000108987 -1.90501e-23)
(1.07518 -0.0518362 1.06689e-20)
(1.07392 -0.0521671 5.14978e-22)
(0.867309 -0.106857 1.0305e-21)
(0.872654 -0.0843937 -4.80673e-21)
(0.839282 0.166823 1.21377e-21)
(0.834766 0.173788 -4.8085e-22)
(0.838591 0.175124 6.18095e-23)
(1.00745 -0.000349573 0)
(1.00764 -0.000302578 -3.01052e-23)
(1.00762 -0.000401643 0)
(1.02055 -0.000464357 -1.79557e-21)
(1.02054 -0.000622201 1.65861e-21)
(1.02076 -0.000533693 1.06516e-21)
(0.927903 -0.0625169 -3.35462e-22)
(0.939445 -0.0485001 -1.09866e-20)
(0.90903 -0.0913857 1.01708e-23)
(0.902064 -0.0807335 -1.03917e-20)
(0.911881 -0.0756904 9.20281e-23)
(1.0575 -0.0981185 -8.40395e-21)
(1.06114 -0.0977758 -3.97858e-21)
(1.02199 -0.0221543 -1.9859e-21)
(1.02246 -0.0227453 4.9268e-21)
(1.03306 -0.00718416 -5.65266e-21)
(1.03235 -0.00722664 -2.78873e-22)
(1.06215 -0.0446679 -7.45907e-21)
(1.06099 -0.0449621 4.7587e-22)
(1.06197 -0.046047 -1.62186e-22)
(0.907505 -0.0970507 -7.24597e-23)
(0.920183 -0.0904799 -4.1111e-21)
(1.05586 -0.111589 -1.35825e-20)
(1.01719 -0.10955 0)
(1.02498 -0.0317217 2.78111e-21)
(1.02494 -0.0311176 1.70362e-21)
(1.02574 -0.0315286 -1.22125e-21)
(0.418962 0.0947811 1.89207e-21)
(0.476057 0.0860706 1.12389e-21)
(1.00633 -0.00137701 0)
(1.00637 -0.00143692 7.55589e-23)
(1.00626 -0.00133452 3.09521e-22)
(0.569739 -0.0417574 2.35081e-21)
(0.590474 -0.0442079 1.16612e-20)
(1.05875 -0.030595 3.96664e-23)
(1.05981 -0.0304448 -1.1856e-22)
(1.03923 -0.0281153 -4.21028e-21)
(1.03914 -0.0288924 -6.27907e-21)
(0.647869 -0.0564685 -1.30129e-21)
(0.611394 -0.0546355 6.67133e-21)
(0.622127 -0.0540602 -8.50169e-21)
(1.01834 -0.0124745 1.58404e-21)
(1.01807 -0.0125298 1.43837e-21)
(1.01849 -0.0128265 2.29526e-22)
(0.984575 -0.00782542 1.99445e-21)
(0.978394 -0.00627332 1.06061e-21)
(0.63492 -0.0435102 0)
(0.634999 -0.0420391 4.32808e-21)
(0.661551 -0.0455332 0)
(1.00731 -0.000298989 0)
(1.00728 -0.000402805 0)
(1.07058 -0.0481816 1.62278e-20)
(1.07168 -0.0489693 6.39038e-21)
(1.07028 -0.0495329 5.78226e-21)
(1.04986 -0.0344348 -7.02409e-21)
(1.05073 -0.0354168 -1.54471e-22)
(1.02219 -0.0215945 -1.98862e-21)
(1.02154 -0.0214802 -3.00343e-21)
(0.174786 -0.194205 -5.69989e-21)
(0.171041 -0.196811 1.08453e-20)
(1.02431 -0.0320535 2.34872e-21)
(1.02521 -0.0324921 -4.96976e-23)
(1.02712 -0.0146934 1.3944e-21)
(1.02756 -0.0146383 2.39408e-21)
(1.02758 -0.0152048 3.35939e-21)
(0.722555 -0.0577459 5.36231e-21)
(0.713384 -0.0542867 -2.80228e-21)
(0.691865 -0.0516704 1.52598e-20)
(1.01138 0.000929163 -2.70913e-23)
(1.01153 0.000975431 3.18813e-23)
(1.01121 0.000924237 3.23837e-23)
(1.03448 -0.0319695 0)
(1.03511 -0.0315077 -2.52363e-21)
(1.01871 0.00705718 -1.22117e-22)
(1.01792 0.0076659 -2.07714e-23)
(1.01772 0.00634421 -5.14442e-22)
(0.670797 -0.0593072 -8.09501e-21)
(0.672365 -0.0586499 7.59307e-21)
(1.08691 -0.0649574 0)
(1.08703 -0.0653807 0)
(1.08742 -0.0648733 0)
(1.0199 -0.00194249 0)
(1.01975 -0.00209174 9.08648e-22)
(1.07002 -0.0549104 1.24496e-20)
(1.06964 -0.05615 -2.19231e-20)
(1.06874 -0.0549795 -3.13642e-22)
(1.02032 -0.00133657 -1.56269e-21)
(1.02031 -0.00149998 -4.53584e-21)
(1.02058 -0.00141517 1.07465e-23)
(0.434329 -0.00608687 -1.21034e-21)
(0.444349 -0.00609949 -1.02416e-20)
(1.00469 -0.0109066 -4.10131e-22)
(1.00267 -0.0120053 2.00953e-22)
(1.00485 -0.0136997 5.45465e-22)
(1.00375 5.07817e-05 0)
(1.00419 8.59584e-05 0)
(1.00491 0.000168886 0)
(1.00938 -0.004096 -1.05391e-22)
(1.00951 -0.0042468 -1.52959e-22)
(1.00938 -0.00416903 -1.33268e-22)
(1.08632 -0.0649711 0)
(1.08655 -0.0643955 -1.00571e-20)
(1.05159 -0.036222 4.36318e-21)
(1.05274 -0.0362272 4.69489e-21)
(1.04265 -0.0185599 -5.58422e-21)
(1.04263 -0.0192811 1.06164e-20)
(1.04194 -0.0187631 5.25616e-21)
(1.02039 -0.000411435 2.6724e-21)
(1.01861 -0.0124237 0)
(1.01821 -0.0121635 -7.95277e-22)
(1.0266 -0.0148692 -2.75727e-21)
(1.02655 -0.0142532 -5.33495e-21)
(0.937293 0.121894 3.90744e-21)
(0.935044 0.122344 -4.80106e-22)
(0.0954734 0.0161801 0)
(0.0875005 0.0328083 -3.91868e-21)
(0.574817 -0.0659659 0)
(0.598701 -0.0761705 0)
(0.578402 -0.0816226 -2.23211e-20)
(1.01281 -0.0147497 3.7702e-22)
(1.01176 -0.0147297 1.91051e-22)
(1.01251 -0.0134574 -1.11699e-22)
(0.688278 -0.0583525 -1.07333e-20)
(0.67848 -0.0586074 2.77153e-21)
(0.809164 -0.141881 -6.96059e-21)
(0.772252 -0.144344 -1.38502e-21)
(0.761984 -0.143882 -6.84941e-21)
(1.01928 -0.000897932 -5.34157e-22)
(1.05789 -0.0446862 0)
(1.05703 -0.0437798 7.29229e-21)
(1.05426 -0.0986531 -5.79294e-21)
(1.05524 -0.101504 -9.09566e-21)
(1.02815 0.00118841 1.07048e-21)
(1.02786 0.00499794 2.83908e-21)
(1.02469 0.00216169 1.74452e-21)
(0.989116 -0.0391346 -1.50292e-21)
(0.990713 -0.0352826 -8.62952e-22)
(0.992772 -0.0392071 -1.33543e-21)
(1.07991 -0.0712913 7.39397e-21)
(1.07889 -0.0711969 4.43489e-22)
(1.07953 -0.0704278 6.78777e-21)
(1.07954 -0.109172 1.66698e-21)
(1.01429 -0.00755077 -3.52086e-22)
(1.01327 -0.00740812 1.8233e-23)
(1.01354 -0.00676957 -1.33568e-22)
(0.82213 -0.151623 -2.63993e-21)
(0.834068 -0.138174 7.93004e-22)
(0.838282 -0.156453 7.59701e-22)
(0.632442 -0.0445932 8.15603e-23)
(0.604785 -0.0418999 -5.25783e-21)
(0.610335 -0.0421225 2.074e-21)
(1.01927 -0.000574239 -1.62487e-21)
(1.01957 -0.000655331 -1.02968e-21)
(0.992991 0.00820573 -2.52818e-22)
(0.998298 0.00602261 1.88734e-22)
(0.992564 0.00247782 1.34232e-21)
(0.988612 0.0124475 0)
(0.996769 0.0129107 0)
(0.968246 -0.083742 9.23236e-22)
(0.981024 -0.0834328 -3.99173e-22)
(0.969371 -0.090927 -1.64302e-21)
(1.04273 -0.0179272 -5.0641e-21)
(1.04346 -0.0185043 -1.47887e-20)
(0.986622 -0.0425505 4.53949e-22)
(0.984485 -0.0382506 -2.02669e-21)
(-0.0669326 0.0819102 6.25702e-21)
(-0.0678298 0.0894998 -7.82336e-21)
(1.00893 -0.00397195 6.32345e-22)
(1.00886 -0.00385428 0)
(0.812244 -0.165536 -3.42903e-21)
(0.80629 -0.146406 -2.49392e-21)
(1.00927 -0.00391057 2.78012e-23)
(1.00939 -0.00401198 -5.91715e-23)
(1.02032 -0.00118944 -1.59403e-21)
(1.0201 -0.00126971 2.65974e-21)
(1.0077 0.000127449 -1.53167e-23)