/*--------------------------------*- C++ -*----------------------------------*\
| =========                 |                                                 |
| \\      /  F ield         | OpenFOAM: The Open Source CFD Toolbox           |
|  \\    /   O peration     | Version:  v2012                                 |
|   \\  /    A nd           | Website:  www.openfoam.com                      |
|    \\/     M anipulation  |                                                 |
\*---------------------------------------------------------------------------*/
FoamFile
{
    version     2.0;
    format      ascii;
    class       volVectorField;
    location    "600";
    object      U;
}
// * * * * * * * * * * * * * * * * * * * * * * * * * * * * * * * * * * * * * //

dimensions      [0 1 -1 0 0 0 0];


internalField   nonuniform List<vector> 
13917
(
(1.09443 0.118954 0)
(1.01968 0.0405617 0)
(0.62683 -0.0757001 7.44922e-22)
(1.05364 -0.010095 0)
(0.996193 0.00262222 -1.23376e-20)
(0.358689 0.0521045 1.08423e-20)
(0.550045 -0.063327 -2.28384e-20)
(0.632368 -0.0758992 2.1677e-20)
(0.431835 -0.0660987 -1.77197e-20)
(1.1378 0.147411 6.73472e-20)
(1.10447 -0.0630385 6.76882e-20)
(1.0869 -0.0426581 0)
(1.05409 -0.0108081 1.10966e-20)
(0.00947956 -0.00542287 -4.53331e-21)
(0.971067 0.0920013 3.77356e-21)
(0.99415 0.0868053 -6.40133e-21)
(1.01411 0.0456117 -9.3894e-22)
(1.13716 0.017169 -1.13768e-20)
(1.08596 -0.0421474 7.23238e-21)
(1.00147 0.00461826 5.80801e-21)
(0.999976 0.00102952 0)
(0.528024 -0.0616983 2.23557e-20)
(1.00087 0.00753147 0)
(0.692032 -0.0803783 0)
(0.994684 0.0142448 0)
(0.558439 -0.0563771 -1.01225e-20)
(0.782767 0.0312264 0)
(0.757225 0.118957 0)
(0.734033 0.568055 0)
(1.19176 0.0876045 0)
(1.10873 0.108878 -9.89317e-22)
(1.0587 0.0873774 0)
(0.836908 0.0661286 0)
(0.910218 -0.0017077 -4.22775e-20)
(0.991186 0.0111307 0)
(1.1013 -0.0760731 0)
(1.00079 0.0071107 0)
(0.135325 -0.0328282 2.64285e-20)
(1.06015 -0.0152925 1.75907e-20)
(0.314437 -0.00778277 -3.91068e-20)
(1.00837 0.000785289 0)
(0.999986 0.00044634 -6.56997e-21)
(1.02029 0.00251062 -4.30366e-21)
(0.70296 0.201625 -8.79506e-20)
(1.03765 0.0240109 0)
(0.89149 0.0119902 0)
(1.13459 0.0154489 0)
(1.13668 -0.0162473 -6.70251e-20)
(0.104138 0.134815 2.97708e-19)
(1.00341 0.0007624 -3.58968e-23)
(1.08289 0.0139023 0)
(0.965112 0.00794456 -2.49576e-20)
(0.0750888 0.113637 -2.6692e-19)
(0.90557 -0.000478173 -4.83701e-20)
(1.01293 0.0465622 6.48237e-22)
(1.08306 0.0372529 0)
(1.10583 -0.0625526 -7.54481e-20)
(0.994978 0.0285362 2.47099e-21)
(1.06937 0.0436339 0)
(1.03626 0.0235763 -7.45597e-21)
(0.561235 0.047336 -1.31104e-19)
(1.02118 0.0406527 1.58136e-21)
(-0.00686069 -0.000719107 1.97431e-20)
(1.00156 0.00499325 -3.6508e-21)
(0.385616 0.0643088 0)
(1.05928 0.35178 8.01793e-20)
(0.995434 -0.00128275 1.4599e-20)
(0.98803 -0.00249345 -2.91894e-20)
(1.14793 -0.0556872 1.4094e-20)
(1.06179 0.133386 -2.11015e-22)
(0.996588 0.00281051 1.7225e-20)
(0.494138 -0.0743581 0)
(-0.0919073 -0.019234 -5.42316e-20)
(0.995279 0.0138832 3.56393e-21)
(0.105776 0.20852 -1.38998e-19)
(1.08038 -0.0475132 0)
(-0.0948328 -0.0133562 -2.76922e-20)
(1.05238 0.0263431 0)
(0.566255 -0.0479029 0)
(0.999896 0.00206618 7.60109e-21)
(1.00008 0.0031221 2.79856e-21)
(0.995989 -0.00111493 -8.84404e-22)
(0.404849 0.127557 1.31787e-19)
(0.162669 -0.0379151 0)
(-0.090425 0.0142777 -1.91535e-20)
(1.05133 0.0252033 6.78691e-21)
(1.00035 0.00399376 5.73952e-21)
(1.20027 0.425228 0)
(1.08106 0.0138608 0)
(1.02073 0.00252023 0)
(-0.0120408 -0.0283044 -2.12754e-20)
(1.17365 0.127074 -1.98089e-20)
(1.0223 0.0228408 -2.00675e-21)
(0.973085 0.0514289 -1.00913e-20)
(1.15135 0.42058 6.88882e-20)
(0.385861 -0.00902274 0)
(1.12357 -0.0522375 0)
(1.13748 -0.00651454 0)
(1.08325 -0.0545041 -2.36867e-20)
(0.608555 0.127219 0)
(1.01104 0.00565873 0)
(0.844435 -0.0022807 4.95514e-20)
(0.692681 0.186519 9.9709e-20)
(1.05952 0.0196992 -1.14879e-20)
(1.01599 0.0119449 0)
(0.503165 -0.0664176 0)
(0.814133 0.506279 2.35014e-21)
(1.1392 -0.0175959 1.55735e-20)
(1.01593 0.0461272 3.09868e-22)
(1.10904 0.123531 0)
(-0.164141 -0.0113735 -6.65856e-20)
(0.322934 -0.00832667 3.33646e-20)
(1.0873 -0.0481948 -2.34423e-21)
(0.465195 -0.0660268 0)
(0.947895 0.00630181 1.88177e-20)
(0.0827571 -0.116845 -8.3633e-20)
(1.00059 0.0133303 8.63415e-21)
(0.200345 0.0933089 -3.11244e-20)
(0.200731 -0.0125396 3.93739e-20)
(0.906876 0.0121239 -8.32915e-20)
(0.999985 0.000868261 6.78605e-21)
(1.14898 -0.0539714 -2.29073e-20)
(0.162206 -0.015165 -2.39249e-20)
(0.766062 0.112202 0)
(1.00506 0.000672233 5.63735e-22)
(0.97452 0.0488883 1.85275e-20)
(1.03319 0.0274062 3.06141e-21)
(1.00469 0.000545936 0)
(1.01767 0.00175862 -1.9268e-21)
(0.361349 0.00525175 0)
(0.263812 -0.0310742 2.87313e-20)
(0.950352 0.00543633 0)
(1.03799 0.0249741 0)
(0.999979 0.000814564 0)
(1.27563 -0.00641299 -5.48941e-20)
(0.708767 -0.083502 0)
(1.09191 0.123503 2.25556e-20)
(0.584675 0.128389 0)
(0.995114 -0.000917387 -1.93191e-20)
(0.90784 0.0078772 4.3629e-20)
(1.09321 -0.0743511 3.29966e-20)
(1.02396 0.0129244 2.57504e-21)
(0.961858 0.0199151 -3.85623e-20)
(0.654988 0.198423 8.22411e-22)
(0.987382 -0.00218551 3.52277e-20)
(0.713425 -0.0786713 -2.62969e-20)
(0.804668 0.573527 -4.6101e-21)
(0.96704 0.00844771 1.66681e-20)
(1.02268 0.0109087 -4.09003e-21)
(1.05373 0.0964431 0)
(1.1118 -0.0243028 0)
(0.0923696 -0.150589 -9.20161e-20)
(1.10459 -0.0463422 3.31845e-22)
(1.02501 0.176951 -6.8988e-21)
(1.07489 0.0618276 0)
(-0.0546873 0.0512047 -8.90722e-20)
(1.05704 0.13072 1.3365e-21)
(1.14302 -0.0919652 -2.93834e-20)
(-0.117347 -0.0104363 -1.45186e-20)
(1.2704 -0.00422819 0)
(0.939346 0.04165 -1.6964e-20)
(0.783266 -0.0292554 0)
(1.00002 0.00218099 4.20879e-21)
(1.12163 -0.0511596 0)
(1.088 -0.0477251 -7.83038e-21)
(1.08404 -0.0543625 2.49139e-20)
(1.05865 0.0205678 0)
(1.12353 -0.0178118 3.97957e-20)
(1.03117 0.0205897 2.13484e-21)
(0.837511 -0.00655628 -1.17791e-19)
(1.04437 0.169783 1.07627e-20)
(-0.291513 0.000280876 0)
(1.08524 -0.0498298 0)
(1.01168 0.0545514 1.4065e-21)
(0.865705 -0.0887198 0)
(1.01456 0.197602 1.88511e-21)
(0.286187 -0.0354574 -3.24381e-20)
(0.16327 0.095076 3.3211e-20)
(0.772033 -0.0821304 0)
(1.0119 0.0260098 1.3121e-22)
(1.17894 0.121915 4.361e-20)
(1.11404 0.10737 2.77611e-20)
(1.02446 0.0124999 -5.11471e-21)
(1.00034 0.00433693 -6.06792e-21)
(0.935518 0.111018 -1.54385e-20)
(0.613205 -0.059571 0)
(1.25633 0.131183 0)
(0.000480253 0.0515559 4.11572e-20)
(1.11339 0.0396759 2.08754e-21)
(1.08929 -0.0548979 -3.28719e-20)
(1.11068 -0.0806714 0)
(-0.0396911 0.0182122 0)
(1.24821 0.170773 -2.78469e-20)
(0.999643 0.00732704 7.13402e-21)
(0.563315 0.0614757 0)
(0.793385 0.0330017 -9.69624e-20)
(1.0073 0.000298655 1.75077e-21)
(1.02249 0.0238223 0)
(0.87472 0.440145 -5.01338e-21)
(1.21729 0.470262 -1.65423e-19)
(1.07362 -0.00271411 -1.42842e-20)
(1.00312 0.000679697 -1.58759e-21)
(1.11705 -0.0178065 0)
(1.10996 -0.0242289 0)
(-0.119817 -0.0155231 0)
(1.24224 -0.044213 -5.22744e-20)
(0.991527 0.0103018 6.7811e-21)
(0.994235 0.0295471 3.0829e-21)
(1.13489 -0.00816306 -4.39663e-20)
(0.638761 -0.0690829 -9.8836e-21)
(0.964106 0.0203493 3.24067e-20)
(0.534535 -0.0655983 0)
(-0.167417 -0.00961456 0)
(1.09012 -0.0547984 3.48022e-20)
(1.01561 0.0121989 4.56589e-22)
(0.494512 0.407202 -3.8678e-21)
(1.12744 -0.00654334 3.95653e-20)
(-0.257731 -0.00713853 -8.50474e-20)
(1.00259 0.0176609 -5.164e-21)
(0.717102 0.0690133 5.00031e-20)
(1.01155 0.0250753 3.39511e-22)
(1.18387 0.0646546 -5.70504e-20)
(1.00819 0.000974532 -2.80092e-22)
(0.110682 -0.0369637 0)
(0.480644 -0.0649568 -3.6159e-20)
(0.995087 0.0902638 -6.65099e-21)
(1.19209 0.471673 0)
(1.07787 0.0607866 0)
(1.01493 0.0117605 2.76982e-21)
(1.09636 -0.074749 0)
(1.08447 -0.0492905 0)
(1.11207 0.0372547 7.43157e-21)
(0.716482 -0.0802862 -4.63451e-23)
(-0.188042 -0.00702731 -2.07532e-20)
(1.01203 0.00296341 0)
(1.06193 0.0884996 0)
(0.0184886 -0.0323544 7.46997e-20)
(-0.13512 0.0177089 -1.47076e-20)
(0.999985 0.00243499 2.14063e-22)
(1.00597 0.00884756 0)
(0.360809 -0.0069568 3.45967e-20)
(1.12895 -0.0547281 3.13374e-20)
(1.00004 0.000132711 1.21254e-21)
(1.08416 -0.0686417 -4.08892e-21)
(1.1711 0.00674709 0)
(0.793142 -0.0343111 -1.15983e-20)
(1.09207 0.104543 -1.3353e-21)
(1.00004 0.0023681 -4.89549e-21)
(0.978271 0.202144 0)
(-0.156626 -0.00824731 -6.78893e-20)
(1.0398 0.00338502 0)
(1.19504 0.137901 2.58131e-20)
(0.570117 0.172803 7.87733e-20)
(1.03293 0.0261796 0)
(0.994425 0.0269266 0)
(1.10085 -0.03992 -3.62946e-20)
(0.378262 -0.0132701 -1.61462e-20)
(1.10388 -0.0450505 2.32534e-20)
(0.93635 0.115684 4.15074e-20)
(0.974389 0.0946513 0)
(1.00004 0.000232682 0)
(0.140793 -0.0104708 0)
(0.68149 -0.0413277 -1.16805e-19)
(1.0777 -0.0641189 3.33538e-20)
(1.01448 0.0119977 -3.82724e-21)
(-0.147529 -0.0140337 7.2162e-23)
(0.0145383 -0.0103146 -1.86467e-20)
(1.10872 -0.0941068 1.62819e-20)
(0.547684 -0.0463435 1.35221e-21)
(1.08059 -0.04833 0)
(1.00003 0.00291444 -7.08027e-22)
(1.00619 0.000814647 0)
(1.13348 0.010518 0)
(0.0302125 -0.0264009 0)
(1.15899 -0.0307513 1.01684e-20)
(1.06786 0.041606 -1.31112e-20)
(1.24503 -0.0446792 2.68857e-20)
(1.07451 -0.0347497 0)
(1.01759 0.00116669 -1.00445e-21)
(0.965703 0.0193058 4.56978e-20)
(1.00187 0.00452424 2.9992e-21)
(0.828296 -0.0877596 1.4014e-21)
(1.0719 -0.00231861 -4.01953e-21)
(1.00007 0.00013475 3.53099e-22)
(0.998793 0.107134 -4.00822e-21)
(1.01939 0.178831 -2.04884e-21)
(0.783498 -0.0168428 0)
(1.08421 -0.0699192 2.38417e-21)
(0.996425 0.142402 -5.20721e-21)
(1.04236 0.00973097 1.65726e-20)
(1.23968 0.0118933 1.11997e-19)
(0.726991 -0.0807215 -1.35959e-20)
(0.581693 -0.0436399 6.16753e-21)
(1.00232 0.0171583 2.38968e-22)
(1.08812 -0.0935984 -6.66695e-20)
(0.998383 1.30841e-05 0)
(1.04241 0.00882165 2.42958e-20)
(1.00073 0.0127106 -8.1454e-21)
(0.81729 0.613412 5.7946e-21)
(1.00158 0.000817776 0)
(1.18866 0.0644249 -5.01414e-20)
(1.08759 0.104388 0)
(1.03078 0.0196628 -7.754e-21)
(1.11669 -0.0199707 0)
(1.03656 0.0556532 0)
(0.113323 0.0567787 -2.25767e-19)
(1.01374 0.192511 -2.87249e-21)
(1.16793 0.124594 1.64796e-20)
(1.02942 0.0138575 7.66618e-21)
(0.995121 0.0259963 0)
(-0.184762 -0.00899255 -3.67827e-20)
(0.129366 -0.0136798 2.50499e-20)
(1.00083 0.0139237 4.8653e-21)
(1.00704 0.000859928 0)
(1.01915 0.0279848 -8.37557e-20)
(1.01515 0.0246349 -6.64902e-22)
(-0.0684707 -0.0221274 6.92077e-22)
(1.02852 0.0137539 -9.8074e-21)
(0.127191 -0.0385859 0)
(1.04576 -0.0044038 -1.72784e-20)
(1.20792 0.318663 -5.14386e-20)
(1.09805 0.00241116 -4.38513e-20)
(0.111312 0.280787 1.71155e-19)
(0.943166 0.0414306 3.12811e-20)
(1.30102 0.00089247 0)
(0.510683 0.300334 1.06429e-19)
(1.00182 0.10494 5.24487e-21)
(1.13107 -0.0535822 -2.38085e-20)
(0.955714 0.517795 -3.66681e-20)
(0.995113 0.0423482 -1.7763e-21)
(0.202352 -0.0316626 0)
(0.57137 0.0405328 0)
(0.0210058 -0.0136015 2.7198e-21)
(0.92142 0.0170968 0)
(0.248412 -0.00837414 -3.83215e-20)
(1.06805 0.0866606 5.58778e-21)
(-0.0680196 -0.00219811 0)
(0.528769 0.279209 0)
(0.921384 0.349165 2.73099e-20)
(0.937482 0.343963 -1.83756e-20)
(0.568975 -0.0732886 1.36023e-20)
(0.999717 0.00253576 0)
(1.05062 0.172947 -1.4903e-20)
(-0.129052 -0.0123284 1.81286e-19)
(0.982155 0.0282874 0)
(1.00101 0.0700355 4.54639e-21)
(0.0389377 -0.0109165 3.98018e-21)
(0.861901 0.474726 1.91531e-20)
(1.01648 0.051512 0)
(1.10618 -0.0783554 4.65802e-20)
(0.703549 0.540729 0)
(1.00912 0.00494094 0)
(0.180843 -0.00857608 -3.98695e-20)
(1.10031 -0.077626 9.85566e-21)
(1.00199 0.00487335 -3.37818e-21)
(1.00919 0.0126725 0)
(0.998573 -0.000115543 -2.80574e-21)
(1.02307 0.0105547 -9.67886e-21)
(1.23374 0.00945784 -1.13905e-19)
(0.811884 -0.085297 0)
(0.385287 -0.279909 1.67622e-20)
(-0.150087 -0.0104413 -3.13724e-20)
(0.99772 0.0138888 -6.71555e-21)
(1.20182 0.13719 -2.86873e-20)
(-0.191885 0.0206132 1.31355e-19)
(1.10829 -0.00862807 1.39121e-20)
(0.513768 -0.0634542 6.5904e-21)
(0.0595065 -0.0319535 0)
(0.443381 -0.064536 -3.6194e-20)
(1.01321 0.00541303 0)
(1.07704 -0.0633555 -3.04295e-20)
(1.01037 0.0122448 1.36724e-22)
(0.847938 0.0837228 5.28036e-20)
(1.03539 0.0242308 2.00131e-22)
(0.0856083 0.328589 -1.44773e-19)
(1.17411 0.00884637 -6.04238e-20)
(1.06265 -0.00792718 -2.15073e-20)
(0.999559 0.00301496 1.05114e-20)
(1.13241 -0.00669431 8.37239e-20)
(1.18485 0.123048 0)
(1.15277 0.00312079 0)
(0.327318 1.09388 -6.92982e-20)
(-0.112185 -0.00302607 0)
(-0.284796 -0.00453646 1.94822e-19)
(0.983335 0.21013 0)
(1.13147 0.144525 -6.72802e-20)
(1.00566 0.00841391 0)
(-0.10972 0.0185632 5.6257e-20)
(0.516565 -0.0583342 -1.23808e-20)
(0.998901 0.0324222 6.09745e-22)
(1.27427 0.0048548 0)
(0.995521 0.0100881 0)
(1.20987 -0.0261065 0)
(1.04584 -0.00385562 6.03218e-21)
(0.999788 0.00215985 -8.26167e-21)
(1.03201 0.0586943 -3.30949e-22)
(0.592023 -0.0405386 -2.98968e-21)
(1.03026 0.0589698 -3.63094e-21)
(0.398784 -0.0167415 0)
(-0.0570657 0.034265 2.8635e-20)
(1.09912 -0.0593531 0)
(0.442508 0.280733 2.47138e-19)
(0.996849 0.0420428 -1.71729e-21)
(0.496224 0.364246 0)
(0.468767 0.305356 2.23477e-21)
(1.00197 0.00970447 2.66018e-21)
(0.826662 0.475586 0)
(0.983571 0.0280623 0)
(0.99425 0.0119251 1.399e-21)
(1.19025 0.0921887 0)
(1.00007 0.000348586 -2.29768e-21)
(0.993553 0.013639 -5.85242e-21)
(1.01061 0.0120452 -1.35957e-22)
(1.23662 0.0134072 2.52776e-20)
(0.999944 0.00165481 -3.06413e-22)
(0.257954 -0.0102865 3.3541e-20)
(0.687533 -0.0495257 0)
(-0.127717 0.0143481 1.58051e-20)
(1.24383 0.177052 -2.96711e-20)
(0.38561 -0.0245868 0)
(-0.239799 -0.00893205 4.14184e-20)
(1.10622 -0.00891709 1.25108e-20)
(0.998087 0.0132921 1.22758e-20)
(1.20513 0.00635782 6.03005e-20)
(1.05987 -0.0141482 -3.10531e-20)
(1.06667 0.0939321 -2.07074e-20)
(0.999633 0.00782818 -7.86418e-21)
(0.742521 -0.0837295 -2.39003e-20)
(0.579381 -0.0658556 -8.99763e-22)
(0.741446 -0.0518258 1.76584e-20)
(0.983032 0.0853931 1.04872e-20)
(1.1747 -0.00347228 2.27273e-20)
(0.924812 0.0142266 0)
(1.06139 -0.0157706 1.15516e-20)
(1.15055 0.00164667 -2.76436e-20)
(1.01814 0.0602727 1.17197e-21)
(1.0768 -0.0617017 -3.6653e-20)
(1.01701 0.0449498 -2.10258e-22)
(1.00156 0.000963839 2.0218e-21)
(-0.0360849 -0.0261658 0)
(0.282198 -0.0332549 0)
(0.30294 -0.0362869 -8.05904e-21)
(1.17755 0.206404 -4.70645e-20)
(-0.136349 0.0104649 0)
(0.230745 -0.0370047 1.76355e-20)
(-0.0826608 -0.0217353 -3.07477e-20)
(-0.0523462 -0.0144792 -4.3511e-20)
(1.01688 0.00189233 4.31929e-21)
(1.13474 0.0012523 -5.14514e-20)
(1.02015 0.0601208 -6.79993e-22)
(0.991912 0.0300667 0)
(1.23618 -0.0372603 9.69498e-20)
(1.13562 0.0120869 0)
(1.0185 -8.01382e-05 4.70456e-21)
(1.15461 0.0453198 0)
(1.10725 -0.00370803 0)
(-0.0417258 -0.011801 0)
(1.00213 0.0100811 -3.30081e-21)
(1.13995 -0.0425254 1.84804e-20)
(-0.0054289 0.0126001 5.34972e-20)
(1.22807 0.333149 3.31639e-20)
(0.261213 -0.0142861 0)
(0.999946 0.00144604 -7.98045e-21)
(0.997765 0.0328495 -8.46344e-22)
(1.01119 0.000421717 -2.27225e-21)
(1.05197 0.134526 0)
(1.01315 0.00501775 0)
(0.673475 -0.0611067 -3.58543e-20)
(0.396819 -0.2405 6.47414e-20)
(0.999319 0.137064 1.58508e-21)
(-0.0686742 0.0268323 9.20416e-20)
(1.08246 0.0349148 -2.00594e-20)
(1.11967 -0.0526787 0)
(-0.0419123 -0.0240242 2.99617e-20)
(0.825969 0.574115 -8.52139e-22)
(1.09823 -0.0585667 0)
(1.09572 -0.0759622 -4.09645e-20)
(1.13892 -0.0441782 1.02758e-20)
(1.15303 0.0623239 -3.90257e-20)
(1.19416 -0.010691 9.33935e-20)
(1.09007 -0.026274 2.18024e-20)
(1.09098 -0.0603473 0)
(0.375101 0.107462 0)
(1.08562 -0.0336 -4.65152e-20)
(1.13727 -0.0262351 -1.89513e-20)
(1.01454 0.000694347 0)
(1.26815 -0.0168449 6.13985e-20)
(1.08589 0.0166321 -5.8914e-21)
(1.02938 0.00356356 -1.06053e-20)
(1.0476 0.131022 -1.23141e-21)
(1.05472 0.0246582 -7.48198e-21)
(-0.0392227 -0.0151333 9.95694e-21)
(0.490012 -0.070666 0)
(1.01447 0.0236646 3.28886e-22)
(1.01748 0.000942942 1.06098e-21)
(0.704741 -0.0689403 1.06634e-20)
(-0.26218 -0.0058845 2.44298e-20)
(1.00006 0.000264326 -2.71222e-22)
(0.238629 -0.00982396 0)
(1.05522 0.0047454 0)
(1.2325 0.157523 -4.34796e-20)
(1.01382 0.0255185 0)
(-0.151875 -0.0118962 -3.75085e-20)
(1.19226 -0.0826819 0)
(1.05665 0.0941556 -1.59856e-20)
(1.03589 0.036731 0)
(0.411038 -0.028492 -2.27392e-20)
(1.24579 0.129842 -4.80871e-20)
(-0.252996 0.00977619 -1.21171e-19)
(1.00004 0.000314821 2.30181e-21)
(-0.15612 -0.0102973 0)
(0.135915 0.0563053 7.60462e-21)
(0.993915 0.0297517 0)
(1.02951 0.00405179 1.96294e-21)
(-0.123155 0.0148119 2.13386e-20)
(0.331564 -0.0426185 -1.33184e-19)
(1.10556 -0.0123437 -3.34155e-21)
(1.00973 0.012722 0)
(1.00815 0.0459288 0)
(1.07868 -0.0479287 -2.31584e-20)
(1.21054 -0.0300184 0)
(1.01893 -7.66278e-05 -6.90574e-21)
(1.00874 0.0119939 -5.51899e-22)
(1.00495 0.00237434 -4.88191e-22)
(1.00527 0.00248569 2.31747e-22)
(-0.172869 -0.0121694 -7.15559e-20)
(1.23538 -0.0328914 0)
(1.1052 -0.0110198 0)
(1.25484 0.118187 4.77971e-20)
(1.00622 0.000638266 -2.39946e-23)
(1.0106 0.00537575 4.32712e-22)
(1.17117 -0.004988 -1.1147e-20)
(0.184749 -0.0421709 0)
(1.10372 0.0502067 0)
(1.03228 0.0208348 0)
(0.994586 0.0123988 0)
(0.992332 -0.0010288 0)
(0.933076 0.0202742 0)
(0.00664335 0.0205005 4.10611e-20)
(1.0005 0.00378215 -7.08822e-21)
(0.9925 0.00199235 0)
(1.0758 -0.0622442 3.95555e-20)
(1.09066 -0.0249084 -2.17952e-20)
(1.09709 0.00113736 -1.13135e-20)
(0.996787 0.0313507 8.1236e-21)
(1.02756 0.0617764 2.83776e-21)
(1.04247 0.0926981 5.1175e-21)
(1.13484 -0.0268226 3.34715e-20)
(0.951275 0.491459 1.06218e-22)
(1.2596 0.126292 5.49778e-20)
(1.2059 0.00227575 -1.05439e-19)
(1.15759 -0.0188927 -5.32758e-20)
(1.24091 -0.0488082 9.62053e-22)
(1.16751 0.117788 -3.9096e-20)
(1.00152 0.0165827 -2.64814e-21)
(-0.14319 -0.010598 5.49117e-20)
(0.992682 -0.0015232 4.69569e-21)
(1.00159 0.0728911 0)
(1.06463 -0.000835756 -5.58108e-21)
(1.26681 -0.0182542 -9.43562e-20)
(0.992295 0.28637 -4.93691e-21)
(1.00987 0.00120694 -7.72169e-22)
(1.23045 0.322089 0)
(1.20021 0.0805334 0)
(-0.0922414 -0.00124505 3.02645e-19)
(1.15922 -0.0168007 5.79307e-20)
(0.886898 0.132858 -1.06133e-19)
(1.10954 -0.00456903 -2.75921e-22)
(0.999422 0.00326745 -1.11228e-20)
(0.510137 -0.0447495 -2.26746e-20)
(1.21926 0.312041 1.18786e-19)
(0.398063 -0.061061 4.73266e-21)
(1.01638 0.0428182 -1.04332e-22)
(1.09363 0.040135 8.73279e-21)
(1.25798 0.113868 -9.37559e-20)
(0.0677066 -0.0342788 -3.41725e-20)
(-0.195657 0.00293559 0)
(1.1401 -0.00812138 3.47072e-22)
(1.18619 0.208008 0)
(0.990318 0.0858459 -5.97434e-22)
(1.05476 0.0549567 0)
(0.995681 0.0318242 3.55387e-21)
(0.888994 0.228631 3.29329e-21)
(0.670711 0.180216 -8.61628e-22)
(0.973409 -0.00504229 -1.22013e-20)
(1.12494 -0.00779836 -4.6461e-22)
(0.569005 0.147519 -8.42861e-20)
(0.412634 -0.0630561 9.06046e-21)
(-0.246382 0.0114737 -7.30543e-20)
(1.03049 0.0716515 -2.269e-21)
(1.11791 -0.0518487 1.45146e-20)
(1.18937 -0.080831 0)
(1.00328 0.115247 -1.90001e-21)
(0.967636 0.0223975 -4.3465e-20)
(0.175276 0.54139 8.80225e-20)
(0.686947 -0.0650134 0)
(0.659068 -0.0822744 2.56194e-20)
(1.25012 0.10212 2.40757e-20)
(1.01755 0.00199048 0)
(0.18615 -0.0112616 0)
(1.07941 -0.0472701 0)
(1.00979 0.000900255 6.49947e-22)
(1.09165 0.0718514 -3.7438e-20)
(1.11934 -0.0355521 6.14189e-21)
(0.846285 0.0678474 1.17712e-20)
(1.18842 0.082903 0)
(0.555769 -0.0503261 1.96739e-20)
(1.19054 -0.0112891 -3.70518e-20)
(1.08676 -0.0228698 7.9378e-21)
(0.511211 -0.0446326 1.72727e-19)
(1.05685 0.0305895 2.67472e-20)
(-0.0734061 -0.0118684 0)
(0.999982 0.0021666 6.96266e-21)
(1.00049 0.00406533 7.033e-21)
(1.0673 -0.0947934 1.92358e-20)
(0.656847 -0.0661279 3.17333e-22)
(0.376799 0.239035 3.5076e-20)
(1.05737 0.0292065 5.76275e-21)
(1.01298 0.0526758 0)
(0.992928 0.00246405 6.6074e-22)
(1.07565 -0.0349644 0)
(0.0781801 0.173678 9.99201e-21)
(1.08401 -0.0536535 2.28672e-20)
(1.05701 0.0553517 0)
(1.09851 -0.0570559 0)
(1.12993 -0.00812875 -4.41908e-20)
(1.01367 0.0262262 0)
(1.1703 0.48046 6.95749e-20)
(1.08331 -0.0531877 0)
(1.0763 -0.0572899 1.56568e-20)
(1.00427 0.0191284 1.06797e-21)
(1.1858 -0.0159107 -1.67891e-20)
(1.0539 0.0261777 7.41099e-21)
(-0.0128946 0.0452532 -9.62575e-20)
(1.1435 0.144073 -4.22567e-20)
(1.00294 0.279349 0)
(1.09481 0.0419848 0)
(1.0077 0.0028074 3.38334e-22)
(1.02735 0.00619937 -6.69838e-21)
(1.0344 0.0279647 0)
(0.967931 0.349408 -8.75017e-22)
(0.889904 0.0170529 0)
(1.24898 0.0433428 -2.60628e-20)
(0.473476 0.807494 -2.73529e-20)
(1.12389 -0.0154512 -2.07353e-20)
(1.00866 0.00489641 -4.89175e-22)
(1.19481 -0.00377038 3.90832e-20)
(0.373952 0.269565 2.32926e-20)
(1.11179 -0.0800651 5.03776e-21)
(1.03911 0.00389508 0)
(0.899429 0.0301228 0)
(1.00822 0.0119041 1.21421e-21)
(1.0731 -0.0166484 -2.35662e-20)
(1.07171 0.0432178 9.58869e-21)
(0.30839 -0.0430942 9.50346e-20)
(0.999857 0.00223923 0)
(1.23967 0.497921 5.03969e-20)
(1.07445 -0.0139476 -2.33176e-20)
(1.10277 -0.0629394 8.82414e-21)
(1.17079 0.1392 2.10722e-20)
(-0.10557 -0.016883 5.9421e-20)
(1.02561 0.27719 1.38305e-22)
(1.00778 0.0442998 1.9331e-21)
(-0.00583017 -0.023339 -3.12426e-20)
(-0.267082 -0.00313377 0)
(1.00563 0.0339585 1.41156e-21)
(1.0636 -0.00156616 0)
(1.19931 -0.0761503 1.9359e-20)
(1.24213 0.104389 4.15163e-20)
(1.15597 -0.0310126 2.08087e-20)
(1.00016 0.000382227 2.57592e-23)
(1.03714 0.0366811 -9.99767e-21)
(1.1956 0.309956 0)
(1.06317 -0.00883112 3.04236e-20)
(1.15272 0.00677156 6.32384e-20)
(1.10032 -0.038214 -6.23265e-20)
(1.028 0.0060653 1.10829e-20)
(1.10751 -0.0265725 1.51584e-20)
(0.63662 -0.0766004 -1.20042e-20)
(1.03861 0.00240446 7.21811e-21)
(1.05136 -0.0064591 0)
(1.00442 0.00252042 -5.07843e-22)
(0.127238 -0.0117205 3.61153e-20)
(0.999953 0.000992182 -7.3296e-21)
(0.983345 0.0815516 -6.34034e-22)
(-0.28616 -0.00198945 4.80782e-20)
(0.992494 0.0665524 0)
(0.718316 -0.0653362 3.18226e-20)
(1.07381 0.0645186 0)
(0.83107 0.0720846 0)
(1.00475 0.00264134 3.61364e-22)
(1.0219 0.211974 3.47869e-21)
(1.00048 0.012025 -4.44438e-21)
(1.15112 0.0704051 5.30532e-20)
(1.00738 0.00168313 3.04891e-22)
(1.08341 0.2573 5.94511e-23)
(1.05496 0.00548858 9.52807e-21)
(0.256568 0.148071 -4.5628e-20)
(0.435293 0.682602 0)
(0.18191 -0.0424423 0)
(1.0107 0.000405535 -2.15907e-21)
(0.999645 0.00270971 0)
(1.16193 0.114764 0)
(1.12346 0.110642 -1.98984e-20)
(0.0783333 -0.0154885 4.88179e-20)
(0.302546 -0.0550285 -4.49432e-20)
(1.1382 0.0207949 3.4525e-20)
(0.992548 0.0106952 -5.71212e-21)
(1.23542 0.0114324 0)
(0.343819 0.214118 0)
(1.07477 -0.0577859 -4.38343e-21)
(1.24445 0.0463815 0)
(1.12877 0.00695151 0)
(0.595838 -0.0478203 1.03825e-20)
(1.0848 0.127859 -3.10131e-20)
(1.07412 -0.0335499 1.56581e-20)
(1.20201 0.0195674 3.92769e-20)
(0.856757 0.419327 -1.90021e-20)
(1.13662 0.0227933 -3.85982e-20)
(0.305083 0.290426 2.11616e-19)
(1.13716 0.0290082 2.02503e-20)
(1.05688 -0.00523179 0)
(1.12058 -0.037099 -6.91556e-21)
(1.00593 0.106441 0)
(1.0327 0.0049388 -2.31998e-21)
(1.07308 -0.015726 2.74579e-20)
(1.11077 0.11846 -3.34308e-20)
(1.04962 0.0949114 1.25418e-20)
(0.999347 0.0118813 1.005e-20)
(1.00665 0.000508625 0)
(1.12702 -0.012277 0)
(1.06094 0.0106407 0)
(1.15579 0.00816893 -6.45196e-20)
(0.993252 0.0103959 0)
(0.995143 0.00802574 -8.18876e-21)
(0.999963 0.000788151 1.20606e-20)
(1.02345 0.0619121 -3.92638e-21)
(1.0229 0.00126099 0)
(1.04787 0.0808584 -1.02862e-20)
(1.00391 0.00266758 -1.27115e-21)
(-0.15953 -0.011097 0)
(1.08412 -0.0428198 2.41165e-20)
(0.469715 -0.286474 0)
(1.01198 0.00509655 -4.63938e-22)
(1.00007 0.00166204 -5.58835e-21)
(0.802183 0.14205 9.117e-20)
(1.15633 0.0601597 7.51197e-20)
(0.953286 0.0014012 3.08608e-20)
(0.835039 0.00255567 -9.52758e-20)
(1.13362 0.193916 7.03317e-20)
(1.02892 0.111574 4.81479e-20)
(1.0744 -0.014901 2.91253e-20)
(1.18123 -0.00565159 0)
(1.04992 0.0150605 -8.17688e-21)
(0.999907 0.00105795 -3.83394e-22)
(1.00552 0.00221862 -3.14855e-22)
(1.03483 0.0566663 -1.06227e-21)
(-0.313755 7.46042e-05 1.21459e-19)
(1.00005 0.00141318 7.65706e-21)
(1.20065 -0.0569612 2.88935e-20)
(1.04922 0.0832249 4.02884e-21)
(-0.190391 0.0236455 7.66969e-20)
(0.966796 0.221588 0)
(1.1408 0.191862 -3.98737e-20)
(1.10177 -0.0621275 0)
(1.02044 0.0062936 3.65682e-21)
(1 4.47405e-05 0)
(1.08519 -0.0431802 -3.26016e-20)
(0.98808 0.00243244 0)
(0.984893 0.0414867 -1.17378e-20)
(0.975951 0.00160904 3.99456e-20)
(1.01268 0.0564379 0)
(0.998608 0.000570064 1.31856e-21)
(1.08381 0.0527966 0)
(1.00613 0.00757622 0)
(1.01642 0.000887608 -4.47774e-21)
(1.05604 0.0900173 0)
(0.884766 -0.0262567 -5.72245e-20)
(0.0572277 -0.0109517 -2.90917e-22)
(1.08004 0.108154 0)
(1.03859 0.00191723 -8.33535e-21)
(1.00902 0.000940354 1.26618e-21)
(0.100585 -0.0396295 0)
(0.953498 0.357084 2.45388e-22)
(1.00148 0.0408608 -7.17405e-21)
(1.0174 0.0421911 1.25238e-22)
(0.927858 0.00591502 4.37828e-20)
(1.19811 -0.0783043 9.5596e-21)
(-0.296975 -0.00465384 -9.69656e-20)
(0.894672 0.133333 1.73822e-20)
(1.05775 -0.00451211 0)
(1.01165 0.00308004 0)
(1.01664 0.00104399 4.71722e-21)
(1.08696 -0.0337815 2.551e-20)
(1.08466 0.10914 1.20619e-21)
(1.11521 -0.0766995 -2.6313e-20)
(0.917461 0.0170407 2.32163e-20)
(0.177335 -0.0268008 0)
(1.02759 0.0417407 0)
(0.964561 0.0572212 -2.22957e-20)
(-0.305956 -0.00135807 1.34584e-19)
(0.995344 0.00952058 0)
(1.08683 0.0150135 2.07812e-20)
(1.00456 0.0305198 1.61347e-21)
(1.00199 0.0012383 -1.69701e-21)
(1.1036 0.123953 3.47364e-20)
(0.773458 -0.0106294 4.98419e-20)
(1.04771 0.0268914 0)
(0.682774 -0.0658794 0)
(0.336294 -0.0115013 -1.57545e-20)
(1.17508 0.134317 -1.86211e-20)
(1.00182 0.0171772 -2.9896e-21)
(1.02465 0.00276603 5.72112e-21)
(1.08786 -0.0542408 -5.30262e-20)
(1.21667 -0.0532731 0)
(1.00007 0.000432245 2.82221e-21)
(1.22691 -0.0529045 0)
(1.02418 0.00291447 -5.50766e-21)
(1.10724 0.113442 -1.9949e-21)
(1.03345 -0.00117326 -3.02863e-21)
(1.03377 0.00657134 -2.3194e-20)
(1.21739 -0.0292558 0)
(1.03888 0.0156433 5.50392e-21)
(1.02278 -0.0549826 0)
(1.11234 0.0864047 0)
(0.999956 0.000725165 -2.40669e-22)
(1.01988 0.0034535 5.10931e-21)
(0.981211 2.82543e-05 -1.01827e-20)
(1.00922 0.0196836 -1.22055e-21)
(1.05096 -0.00551874 5.91348e-21)
(0.27315 0.685309 0)
(1.03745 0.00419261 3.2349e-21)
(1.03012 0.0103699 0)
(0.384831 -0.0693401 -1.60647e-20)
(0.623871 -0.0765324 4.99066e-22)
(1.08792 -0.0241852 1.02529e-20)
(1.11817 0.111957 0)
(1.14533 -0.00179708 3.25497e-20)
(1.07462 0.0232095 1.93843e-20)
(1.02385 0.0140683 -4.55779e-21)
(0.88761 0.00973582 -2.03508e-20)
(-0.126631 -0.0144325 0)
(1.09313 0.25857 1.86852e-20)
(0.998229 0.004935 6.43973e-21)
(1.0346 0.0359049 6.60405e-21)
(0.335914 -0.0582498 -6.07738e-22)
(1.11049 0.0177541 -3.29843e-20)
(-0.101201 -0.0119909 -7.15416e-20)
(0.999958 0.000946302 -4.20987e-21)
(0.950873 0.00217434 0)
(0.108823 -0.0100699 -1.99228e-20)
(1.10287 0.0122143 3.32532e-20)
(1.04975 0.0255054 7.07862e-21)
(-0.306962 0.00150559 -7.76589e-21)
(0.212907 0.23681 -1.1925e-19)
(1.00949 0.0191667 8.25251e-22)
(1.19775 0.0208882 0)
(1.00583 0.00233043 1.17035e-22)
(1.03778 0.0156246 3.23875e-21)
(1.01234 0.00536269 0)
(-0.121098 -0.0172806 6.26405e-20)
(1.02253 0.00111957 0)
(1.03786 -0.00314248 0)
(1.02438 0.0136507 0)
(0.97534 -0.0551434 -3.58403e-20)
(1.05968 -0.0120845 0)
(1.2366 0.150881 0)
(0.701014 -0.0965097 0)
(1.03428 0.0048265 -2.61718e-21)
(0.844511 0.024752 0)
(1.00053 0.0035933 -4.43327e-21)
(-0.139477 -0.0102629 0)
(1.00528 0.0100787 1.06822e-22)
(1.03808 0.00367653 -6.72201e-21)
(0.998666 0.0010746 -1.29677e-21)
(1.08845 -0.0548752 6.14553e-20)
(0.998494 0.000919094 -3.93442e-22)
(1.18937 -0.0154231 2.63359e-20)
(0.340499 -0.00690178 0)
(0.753104 -0.0802434 0)
(0.904303 0.0306454 -2.57741e-21)
(1.10115 -0.0776423 -3.39958e-20)
(-0.259873 -0.00336725 9.47503e-20)
(0.996271 0.0262163 0)
(0.166428 -0.00821967 -1.06074e-20)
(0.431909 0.0411022 0)
(-0.237628 -0.00358777 -1.4349e-19)
(0.373422 -0.0242567 1.33612e-20)
(0.364499 -0.0682515 4.82931e-20)
(0.117457 0.170386 -2.14419e-19)
(1.19129 -0.00243843 -3.50251e-20)
(1.00979 0.046888 1.35945e-21)
(0.540181 -0.0485341 -2.18694e-20)
(1.10235 0.014204 -4.21667e-20)
(0.483823 -0.0556712 6.8241e-21)
(1.02885 0.00442013 -5.1564e-21)
(1.02315 0.0224079 2.22642e-21)
(1.00289 0.0418248 8.99225e-21)
(1.00056 0.00387025 6.81804e-21)
(1.07926 0.0186875 0)
(0.890922 0.0892221 3.89556e-20)
(0.12947 -0.0183114 3.0545e-20)
(1.02299 0.02147 2.39655e-21)
(0.993773 0.00330126 0)
(-0.22171 0.0167568 0)
(0.973107 0.448693 -1.18788e-20)
(0.981386 -0.00124064 -2.56868e-20)
(0.811639 -0.0559034 0)
(1.09115 0.0546088 -1.78616e-20)
(1.04369 0.0210508 -5.15679e-21)
(0.497872 0.719386 0)
(0.805428 -0.0506785 0)
(0.951491 0.0492622 -1.00307e-20)
(1.06008 -0.0114242 0)
(0.31423 -0.00795643 -2.12788e-20)
(-0.2904 -0.00078229 -1.21968e-19)
(0.222559 0.0589207 0)
(1.03303 -0.000744124 0)
(1.24275 0.137184 4.85056e-20)
(1.19675 0.0767059 1.51225e-20)
(-0.219805 0.00332667 0)
(0.425802 -0.0632309 8.19237e-20)
(1.0829 -0.0493387 1.0248e-21)
(1.01488 0.0255743 0)
(1.0509 0.0157552 -1.71237e-20)
(1.02622 0.0420756 -2.21421e-21)
(1.01936 7.66619e-05 0)
(1.02604 0.0629908 -2.95961e-21)
(1.01684 0.00165997 -2.24902e-21)
(1.04482 0.0911544 3.83533e-22)
(1.08068 0.127701 0)
(-0.0484688 0.026379 1.40229e-19)
(1.14355 -0.0473504 0)
(1.0383 -0.00265457 0)
(1.17771 -0.00660622 0)
(-0.0656486 -0.023114 -5.92419e-20)
(1.10024 0.118847 -3.5383e-21)
(0.972093 0.0224281 1.46614e-20)
(-0.0835919 -0.0100635 2.61501e-20)
(1.0296 0.0193075 2.05568e-21)
(0.985772 0.0395183 0)
(0.817373 0.0611672 -7.38331e-20)
(-0.00967068 0.0336227 9.23567e-20)
(0.998421 -0.000489545 3.08405e-21)
(1.00384 0.0194254 -3.45648e-21)
(0.515334 -0.0656567 2.63392e-20)
(1.09667 -0.075836 -4.46878e-20)
(1.18074 -0.0810376 -9.55353e-20)
(1.15847 -0.024232 6.73867e-20)
(1.10083 -0.0759948 0)
(1.00743 0.0184908 2.59783e-21)
(1.20229 -0.0036281 -1.04915e-20)
(0.971146 0.0242713 -7.99201e-21)
(1.00341 0.0105096 -2.64097e-21)
(0.969007 0.0202216 2.48463e-20)
(0.632724 -0.060468 -2.4138e-22)
(-0.274268 -0.00553239 7.72146e-20)
(1.03126 0.0088141 -9.24205e-21)
(1.02034 0.00347554 -6.90971e-21)
(1.0045 0.0318495 1.71506e-21)
(1.19161 -0.0786041 0)
(1.02234 0.0607177 3.13896e-21)
(1.09481 0.03572 1.59868e-20)
(0.988998 0.00215497 0)
(1.01552 0.0495193 0)