/*--------------------------------*- C++ -*----------------------------------*\
| =========                 |                                                 |
| \\      /  F ield         | OpenFOAM: The Open Source CFD Toolbox           |
|  \\    /   O peration     | Version:  v2012                                 |
|   \\  /    A nd           | Website:  www.openfoam.com                      |
|    \\/     M anipulation  |                                                 |
\*---------------------------------------------------------------------------*/
FoamFile
{
    version     2.0;
    format      ascii;
    class       surfaceVectorField;
    location    "500";
    object      Uf;
}
// * * * * * * * * * * * * * * * * * * * * * * * * * * * * * * * * * * * * * //

dimensions      [0 1 -1 0 0 0 0];


internalField   nonuniform List<vector> 
20537
(
(1.01658 -0.00853454 -2.69955e-22)
(1.01649 -0.00810567 -3.64515e-23)
(1.01627 -0.00852458 -2.27942e-22)
(0.545652 0.153814 -5.09464e-22)
(0.532896 0.142018 0)
(0.545638 0.163227 8.6881e-22)
(1.05159 -0.0557266 4.87859e-21)
(1.05057 -0.0565096 -6.48347e-22)
(1.05179 -0.0573017 -6.62659e-21)
(1.01679 -0.00751039 -2.18608e-22)
(1.01659 -0.00769125 8.27661e-23)
(1.01673 -0.00715447 -3.06238e-22)
(1.05943 -0.0495988 2.99882e-22)
(1.05882 -0.0497275 2.87409e-22)
(1.05902 -0.0491289 9.64861e-21)
(1.05953 0.0291953 0)
(1.05033 0.0330153 9.32551e-22)
(1.05181 0.0236537 -2.62775e-22)
(1.02979 -0.00166272 -1.26461e-21)
(1.03036 -0.00187859 3.33014e-21)
(1.03021 -0.00140392 4.02457e-21)
(1.04517 -0.0456286 3.51836e-21)
(1.04567 -0.0445392 1.71074e-22)
(1.04653 -0.0457288 -5.18952e-21)
(1.01118 -0.000744912 -1.20308e-23)
(1.0114 -0.000754501 -7.75122e-23)
(1.0112 -0.000715383 4.21342e-23)
(1.02897 -0.0752075 2.36328e-21)
(1.02599 -0.0724089 1.31631e-21)
(1.03016 -0.0715049 0)
(0.956829 -0.0880317 -5.56077e-22)
(0.953642 -0.0986678 -3.61828e-22)
(0.972187 -0.0907208 6.42863e-21)
(0.613294 -0.134158 0)
(0.593262 -0.127754 -3.68839e-21)
(0.545767 -0.128932 1.18896e-21)
(0.985499 -0.0671742 3.35839e-21)
(1.02135 -0.0651794 3.82171e-21)
(0.994056 -0.0670372 -3.37711e-21)
(0.201721 0.178105 -4.43046e-21)
(0.216458 0.181028 -4.7413e-21)
(0.152768 0.176676 3.27143e-21)
(1.01934 -0.000492148 -9.22877e-22)
(1.01938 -0.000444706 1.1261e-22)
(1.01947 -0.000528592 -8.64125e-22)
(1.02794 -0.0327316 2.92433e-22)
(1.02904 -0.0334711 -2.76307e-21)
(1.02778 -0.0342122 -3.43854e-21)
(1.03885 -0.0232943 -1.5621e-22)
(1.03806 -0.0227638 -5.47292e-21)
(1.03894 -0.0225353 1.77228e-21)
(1.02246 -0.0182699 1.42341e-22)
(1.02258 -0.0179327 2.51703e-22)
(1.02294 -0.0183954 -2.41652e-22)
(1.05571 -0.058734 -5.69759e-21)
(1.05483 -0.05708 1.09761e-21)
(1.05408 -0.0570061 -3.06094e-21)
(1.01096 -0.000739805 -9.41293e-24)
(1.01116 -0.000777684 7.72654e-23)
(1.01691 -0.00722632 1.34006e-22)
(1.0169 -0.0077599 3.82941e-23)
(1.05191 -0.0542391 6.91064e-21)
(1.05294 -0.0549262 -6.08083e-21)
(1.00383 -3.07124e-05 -2.7918e-23)
(1.00433 5.06321e-06 0)
(1.00498 3.41412e-05 -1.2732e-22)
(1.00575 -0.000123159 9.49041e-24)
(1.00388 -2.79078e-05 -3.24321e-24)
(1.00597 -0.000128511 -8.12007e-24)
(1.00336 -1.48461e-05 -1.47437e-22)
(1.00255 -7.07569e-05 -2.58369e-23)
(1.04383 -0.0458044 5.2784e-22)
(1.0449 -0.0470659 3.26973e-21)
(1.04853 -0.0174957 -8.98242e-21)
(1.04812 -0.0167646 4.72653e-21)
(1.04763 -0.0173748 -1.53333e-22)
(0.0108927 -0.0813195 -8.9679e-21)
(0.0225216 -0.0929938 2.37987e-21)
(1.01684 -0.00861071 2.32658e-22)
(1.01668 -0.00909532 1.52502e-22)
(1.02419 -0.0167768 -2.65552e-22)
(1.02447 -0.017149 -1.11458e-21)
(1.0241 -0.0170157 -9.58627e-22)
(1.06857 0.0228267 -1.22178e-22)
(1.06061 0.0367394 1.04133e-22)
(1.03864 -0.0241713 -6.30126e-21)
(1.03965 -0.0239425 5.71872e-21)
(1.04918 -0.0559575 4.3126e-21)
(1.04924 -0.0577589 -5.10584e-21)
(0.900095 0.150457 1.01625e-21)
(0.894428 0.143602 -5.52472e-21)
(0.894746 0.154765 8.38117e-22)
(1.00563 -8.25451e-05 1.95918e-23)
(1.00713 -0.00017279 2.22871e-23)
(1.08124 -0.0550817 -4.62326e-21)
(1.0819 -0.0550232 0)
(1.08172 -0.0558753 -7.31432e-21)
(1.09268 -0.0597969 -1.226e-20)
(1.08755 -0.0590704 -1.33991e-20)
(1.08792 -0.0591824 2.06671e-22)
(1.06053 -0.048619 0)
(1.05858 -0.0476084 0)
(1.06069 -0.0497334 2.2631e-21)
(1.02804 -0.0781607 -2.13122e-21)
(1.03215 -0.0770887 -1.53246e-21)
(0.911018 0.146466 0)
(0.905596 0.153156 0)
(1.01631 -0.00593072 -1.41647e-22)
(1.01633 -0.00599988 1.31064e-22)
(1.01653 -0.00615054 3.62026e-22)
(1.00957 -0.000127061 -3.24267e-23)
(1.00951 -0.000131281 2.33199e-23)
(1.00929 -0.000120097 3.70872e-23)
(-0.0200671 0.0490177 3.15193e-20)
(-0.0221094 0.0454007 -2.30052e-20)
(-0.0157496 0.057716 1.35285e-20)
(0.927817 -0.117698 2.86735e-21)
(0.938951 -0.104935 1.97577e-21)
(0.943979 -0.109171 2.14909e-21)
(0.916273 -0.120806 -4.7673e-22)
(0.913505 -0.124896 5.42929e-22)
(-0.0144919 -0.103842 1.0302e-20)
(0.0531941 -0.108517 -1.35349e-21)
(0.0609156 -0.107262 -7.68938e-21)
(0.900383 -0.10299 2.61661e-21)
(0.905209 -0.116278 1.48232e-21)
(0.897485 -0.121399 8.73614e-22)
(0.867198 -0.0815011 2.59555e-22)
(0.86703 -0.0991482 5.43676e-22)
(0.848997 -0.0948161 2.27266e-21)
(1.04889 -0.0182558 -3.22393e-21)
(1.04941 -0.0175958 -7.16128e-21)
(1.05419 -0.00990125 0)
(1.04864 -0.00940148 9.00067e-25)
(1.0534 -0.00185028 -1.34535e-22)
(1.06727 -0.0469465 9.34861e-21)
(1.06778 -0.0475717 1.38512e-21)
(1.06805 -0.0466703 -1.03789e-20)
(1.06508 -0.0553618 -5.63759e-21)
(1.06573 -0.0549149 1.42792e-23)
(1.06589 -0.0559343 5.60116e-21)
(-0.0210269 -0.113927 1.33186e-20)
(-0.018952 -0.10912 1.23583e-20)
(-0.0143679 -0.117044 -1.09077e-20)
(1.01905 -0.000492514 2.77202e-21)
(1.01864 -0.000277095 1.83926e-21)
(1.01915 -0.000523257 1.41043e-21)
(1.01213 -0.000683389 1.60706e-21)
(1.01203 -0.000664133 1.44609e-23)
(1.01302 -0.000765295 -1.86795e-21)
(1.00964 -0.000124218 -1.16489e-22)
(1.00986 -0.000131952 -3.13481e-24)
(1.00659 -6.73542e-05 -1.27525e-22)
(1.00717 -6.24433e-05 0)
(1.00613 -4.96747e-05 4.19412e-24)
(-0.0081442 -0.120242 1.84355e-21)
(-0.00821292 -0.120365 4.19795e-21)
(0.00564579 -0.119324 -5.87336e-22)
(1.02428 -0.0164081 1.91586e-21)
(1.02385 -0.016376 2.00845e-21)
(1.03095 -0.00436191 -9.18635e-22)
(1.03047 -0.0040688 3.56265e-21)
(1.03107 -0.00392226 7.51795e-21)
(1.06527 -0.0468115 0)
(1.06164 -0.0497074 -4.26448e-21)
(0.503836 0.00365328 3.35656e-23)
(0.495312 -0.00455018 6.83829e-23)
(0.432181 0.00428085 -5.71003e-22)
(1.02497 -0.0386763 6.10924e-22)
(1.02123 -0.04134 -1.51321e-21)
(1.02167 -0.0364384 2.0861e-22)
(1.06055 -0.0508006 -6.90164e-21)
(1.05998 -0.0507579 -1.92496e-21)
(1.06023 -0.051278 -6.71464e-21)
(0.982567 0.0614519 -9.05732e-22)
(1.00493 0.0563434 3.61216e-21)
(1.00088 0.0463921 2.94681e-21)
(1.01511 -0.00709394 0)
(1.01557 -0.00674233 -6.03656e-22)
(1.01526 -0.0062208 -2.97038e-22)
(1.08845 -0.0613426 1.08313e-21)
(1.09063 -0.0604357 6.87865e-21)
(0.89315 -0.0614385 3.34561e-21)
(0.896798 -0.0867177 3.95712e-22)
(1.05968 -0.0319437 6.51065e-21)
(1.05879 -0.0322952 6.18036e-21)
(1.0588 -0.03126 -5.55944e-22)
(1.02194 -0.0180919 1.70718e-22)
(1.02217 -0.018714 -6.53458e-23)
(0.349979 -0.0040101 -3.50748e-21)
(0.339099 -0.00316468 -2.64055e-20)
(0.314703 0.000579968 -3.62003e-22)
(1.0376 -0.0603901 5.81654e-21)
(1.03602 -0.0608836 6.45798e-21)
(1.0666 -0.0608761 -8.21128e-22)
(0.577092 0.1695 -1.42603e-20)
(0.556993 0.145725 5.19801e-21)
(1.01922 -0.000462069 -8.99084e-22)
(1.01888 -0.000506949 1.09611e-21)
(1.01297 -0.000984847 4.1034e-22)
(1.01317 -0.00110305 -1.00501e-21)
(1.01301 -0.00115285 3.27518e-22)
(1.01337 -0.000873281 3.43407e-24)
(1.01342 -0.000829189 1.93407e-22)
(1.01316 -0.000847859 1.80777e-22)
(1.0523 -0.0535074 -1.98849e-22)
(1.05125 -0.0539059 9.94634e-21)
(0.465219 -0.00841531 2.5648e-21)
(0.485773 -0.0123489 0)
(0.469011 -0.00753815 1.52977e-21)
(1.05635 -0.0414871 7.61675e-21)
(1.05706 -0.042144 -2.55052e-21)
(1.05615 -0.0424237 7.90311e-21)
(0.328441 -0.00512739 0)
(0.300371 -0.00340819 1.08794e-20)
(1.03388 -0.00800869 4.08891e-21)
(1.03318 -0.00796378 3.82921e-23)
(1.03336 -0.00743901 -7.63572e-22)
(0.911023 0.102763 -1.67041e-23)
(0.917785 0.0991398 0)
(0.909113 0.0960565 -1.28574e-22)
(1.02126 -0.00402201 2.00234e-21)
(1.02145 -0.00426344 2.06144e-21)
(1.02105 -0.00413199 -2.29685e-23)
(0.0210404 -0.097121 1.40163e-20)
(0.0947646 -0.0967848 1.32674e-20)
(-0.00352891 -0.0800919 -9.05696e-22)
(1.02782 -0.0362996 0)
(1.02902 -0.0408929 -1.87027e-22)
(0.628405 -0.14013 0)
(0.676885 -0.140407 -2.89306e-21)
(1.04467 0.00282839 9.92965e-22)
(1.04762 0.00789663 8.97545e-22)
(1.03996 0.00664694 -4.08898e-21)
(0.66779 -0.0783114 -8.66885e-22)
(0.728521 -0.0593782 5.24241e-22)
(0.730859 -0.077168 1.06625e-20)
(1.04537 -0.0223807 1.92764e-21)
(1.0446 -0.0227964 -3.78455e-21)
(1.04561 -0.0234077 -1.50278e-21)
(1.01577 -0.000779424 7.30667e-23)
(1.01537 -0.000681707 2.21198e-22)
(1.0155 -0.000709967 9.25787e-23)
(1.08022 -0.0545336 -9.58184e-21)
(1.08069 -0.0553309 -3.95785e-21)
(1.00632 -0.00635572 -5.34689e-22)
(1.00449 -0.00852137 0)
(1.00385 -0.0050472 2.03617e-22)
(0.896225 -0.0333488 -3.70034e-21)
(1.04878 -0.0265153 4.78481e-21)
(1.04848 -0.0271779 4.64405e-21)
(1.04942 -0.0272001 -1.69066e-21)
(1.04539 -0.0216491 0)
(1.04634 -0.0220418 -6.54102e-21)
(1.00446 -7.31405e-06 5.71694e-22)
(1.00455 -1.10127e-05 3.34974e-23)
(1.0057 -0.000112952 -2.55077e-22)
(1.05966 -0.0502749 6.63654e-21)
(1.06007 -0.0496753 0)
(0.653283 -0.0721497 -1.49817e-20)
(0.625389 -0.0729743 1.07218e-20)
(0.634572 -0.072278 7.07377e-21)
(1.05843 -0.00982055 -4.76208e-23)
(1.0536 -0.0190697 0)
(1.00279 3.77121e-05 1.99512e-22)
(1.00434 -3.01528e-05 1.65468e-22)
(0.0332959 -0.0157228 -1.01917e-20)
(0.0869649 -0.00334393 6.90811e-21)
(0.0534946 0.0143642 1.51798e-20)
(1.06148 -0.0420364 -6.62459e-21)
(1.06233 -0.0417726 9.81284e-21)
(1.06153 -0.0411581 4.51002e-21)
(1.01897 -0.0104017 -4.8037e-23)
(1.01917 -0.0107594 -4.12896e-22)
(1.01888 -0.0105279 -8.30303e-23)
(1.05403 -0.0104053 -1.54319e-21)
(1.0549 -0.0107497 0)
(1.00358 1.29958e-05 -1.17724e-23)
(1.00449 9.35693e-06 -2.96379e-23)
(1.00374 6.29081e-06 2.41801e-23)
(1.04979 -0.00828965 -1.29089e-21)
(1.04962 -0.0154625 -1.29252e-22)
(1.04391 -0.0116467 -5.65609e-22)
(1.06441 -0.0427903 4.53905e-21)
(1.06366 -0.0430053 -6.99602e-21)
(1.06428 -0.0437023 -5.25994e-21)
(1.00859 -8.6786e-05 -3.22e-24)
(1.00855 -8.09907e-05 4.01528e-23)
(1.00839 -8.02114e-05 1.07709e-22)
(0.961679 -0.0587758 -9.20284e-21)
(0.916561 -0.0579516 2.38979e-22)
(1.04419 0.0439024 1.77631e-21)
(1.03986 0.034532 2.52434e-22)
(1.00457 -4.86512e-05 3.27509e-23)
(1.00286 -1.18568e-05 7.16218e-23)
(1.00447 -4.60283e-05 -2.67244e-22)
(1.01614 -0.000911418 6.60988e-23)
(1.01605 -0.000828538 -7.41057e-23)
(1.00783 -0.00468617 1.09521e-21)
(1.00835 -0.00723467 -6.42651e-22)
(1.00192 4.15305e-05 -6.64032e-24)
(1.00193 -2.53715e-05 2.5094e-23)
(1.0058 -9.10519e-05 0)
(1.00444 -4.08308e-05 6.14462e-24)
(0.887365 0.177613 4.2308e-21)
(0.850336 0.153484 4.22011e-21)
(0.685715 -0.0713309 -6.1334e-21)
(0.677977 -0.0718738 -2.1184e-20)
(1.00802 -7.58269e-05 7.72376e-24)
(1.00807 -8.12957e-05 1.4521e-23)
(1.00807 -7.6684e-05 -7.22337e-23)
(1.00738 -0.000282899 -2.55108e-22)
(1.00723 -0.000280474 -4.93926e-22)
(1.00498 -0.000145228 -2.47351e-22)
(1.01165 -0.00057284 2.2425e-22)
(1.01037 -0.000543288 0)
(1.00988 -0.000437524 -5.97798e-22)
(-0.0246215 0.0410377 6.73303e-21)
(-0.0137357 0.0599113 3.47366e-20)
(1.05344 -0.0113188 -1.61311e-21)
(1.05291 -0.0102516 -5.83551e-22)
(0.978379 -0.066642 0)
(0.942025 -0.068473 0)
(0.882616 0.0910571 2.55121e-21)
(0.867379 -0.0633899 0)
(0.887741 -0.0679261 0)
(1.01757 -0.00236579 1.4798e-22)
(1.01714 -0.00191768 -8.77345e-23)
(1.01731 -0.00243148 1.15491e-24)
(0.869901 -0.0445615 0)
(0.848984 -0.0538099 -2.97984e-22)
(1.05873 -0.0416501 -1.55801e-21)
(1.05946 -0.0415769 -7.05364e-21)
(1.05913 -0.0424783 -6.19899e-21)
(1.01699 -0.00705461 1.50156e-23)
(1.01699 -0.00678091 7.03557e-23)
(1.05779 -0.0521743 -5.65192e-21)
(1.05801 -0.0523075 -6.80935e-21)
(1.05779 -0.0526351 -5.99276e-21)
(1.0161 -0.0057048 5.33953e-22)
(1.0163 -0.00584317 8.98274e-23)
(1.00997 -0.000936319 -5.18076e-23)
(1.01011 -0.00100633 1.31201e-22)
(1.01 -0.000960953 2.13574e-23)
(0.359788 -0.00644192 7.99104e-21)
(0.371777 -0.00996678 1.42142e-20)
(1.02144 -0.00386039 -5.34325e-21)
(1.02102 -0.00374053 -4.14663e-21)
(0.885953 0.191445 0)
(1.00981 -0.000504862 2.55508e-23)
(1.00972 -0.000475774 9.66151e-23)
(1.00937 -0.000415076 1.13797e-23)
(1.00798 -7.1478e-05 -5.21395e-23)
(1.00797 -7.38981e-05 5.39844e-23)
(1.04274 -0.0599942 -5.78971e-21)
(1.04724 -0.0602954 -6.63487e-21)
(1.07127 -0.060903 -6.77182e-21)
(0.046829 0.151993 5.73815e-21)
(0.0316423 0.160053 4.83058e-21)
(0.0449988 0.161856 3.21262e-21)
(0.207617 0.172067 -1.82962e-21)
(0.249753 0.165902 -2.10002e-21)
(0.203704 0.162664 -3.08553e-21)
(0.0114415 -0.0418042 -2.81301e-20)
(-0.0112825 -0.0274791 -4.7936e-20)
(1.01249 -0.000816 1.15283e-21)
(1.01074 -0.000394386 1.01996e-21)
(1.01658 -0.00203203 -6.47789e-22)
(1.01682 -0.00247123 -4.81114e-22)
(1.01651 -0.00219941 3.49373e-22)
(1.01281 -0.000225126 -1.27836e-22)
(1.01263 -0.000228006 -8.79132e-23)
(1.01301 -0.000222505 9.46903e-24)
(1.03194 -0.0177913 1.06874e-21)
(1.03237 -0.0184563 9.65073e-22)
(1.0325 -0.0176966 2.84553e-21)
(0.93297 -0.098062 -2.40932e-22)
(0.951093 -0.0861224 8.26193e-22)
(1.01843 0.00693367 -4.04635e-23)
(1.02021 0.00652856 0)
(1.01849 0.00519213 0)
(1.05782 -0.0519652 5.99641e-21)
(1.05779 -0.0518485 2.8926e-21)
(1.02917 -0.00139525 -1.25075e-21)
(1.02927 -0.001853 -1.28147e-22)
(0.920148 -0.113229 -5.0902e-22)
(0.90865 -0.116426 -8.79328e-22)
(1.0796 -0.0438522 0)
(1.07931 -0.044724 6.57553e-21)
(1.01068 -0.000644376 1.86035e-22)
(1.01105 -0.000618449 -1.45486e-21)
(1.01191 -0.000661789 1.8016e-22)
(0.166129 0.168341 1.19334e-20)
(0.248252 0.179177 0)
(1.00606 -4.75113e-05 -9.68918e-23)
(1.00701 -9.58092e-05 3.19333e-22)
(1.03887 -0.015132 -8.40368e-23)
(1.03954 -0.0152704 -5.10118e-22)
(1.03909 -0.0145099 -1.2066e-22)
(1.03136 -0.0179798 0)
(1.03139 -0.0172232 1.93501e-21)
(1.01304 -0.00265271 -3.87332e-22)
(1.01288 -0.0025415 -4.04639e-22)
(1.01305 -0.00257871 -1.96398e-22)
(1.02509 -0.0159426 4.27449e-22)
(1.02513 -0.0155844 4.23099e-21)
(1.02548 -0.0160129 1.77745e-21)
(1.06487 -0.0562848 1.61717e-20)
(1.06427 -0.0552127 -1.02965e-20)
(1.0667 -0.0462292 1.30212e-20)
(1.06646 -0.0471161 -2.57499e-21)
(1.01201 -8.99691e-05 0)
(1.01164 -9.39759e-05 -8.2964e-24)
(1.01186 -9.338e-05 0)
(1.05516 -0.0237259 0)
(1.05499 -0.0243973 -7.61318e-23)
(1.05587 -0.0242579 0)
(-0.00523612 -0.120938 1.36339e-20)
(-0.0161874 -0.120199 1.76982e-20)
(1.00984 -0.000872662 0)
(1.00996 -0.000912171 4.05727e-23)
(1.02357 -0.020455 -1.79544e-22)
(1.02399 -0.0210651 1.71993e-21)
(1.024 -0.0203231 -3.85476e-22)
(1.01117 -0.000212883 6.53095e-23)
(1.01138 -0.000218659 1.09035e-22)
(1.01105 -0.000218018 -6.54464e-23)
(1.01655 0.00693377 3.11493e-22)
(1.01843 0.00923236 -1.54776e-23)
(1.06053 -0.0326273 1.34177e-22)
(1.06052 -0.0315522 -5.95687e-21)
(1.01699 -0.00722118 9.32951e-23)
(1.01701 -0.00686422 -3.91601e-23)
(0.501436 -0.0901461 6.807e-21)
(0.47417 -0.0965467 1.05655e-21)
(0.509751 -0.0917461 -3.30738e-21)
(0.43821 -0.00326317 2.05815e-21)
(0.460544 -0.00809666 -3.02505e-21)
(1.00878 -0.000268255 0)
(1.00887 -0.000280447 0)
(1.00893 -0.000279113 -1.24725e-22)
(1.0132 -0.00277115 -1.42787e-22)
(1.01305 -0.00272266 8.35238e-23)
(0.176962 0.175872 1.6602e-22)
(0.220818 0.177725 3.25208e-21)
(1.0097 -0.000809773 5.2804e-23)
(1.00971 -0.000825858 0)
(0.870202 -0.115752 7.00273e-22)
(0.887233 -0.0997551 2.65439e-22)
(1.05775 -0.0419326 -9.19078e-21)
(1.05802 -0.040954 -6.64177e-21)
(1.01794 -0.0025444 8.49548e-23)
(1.01818 -0.00247429 0)
(1.01851 -0.00284041 0)
(1.04672 -0.0599642 -4.94733e-21)
(1.05881 -0.0601955 3.79219e-21)
(1.00904 -8.97782e-05 1.51629e-23)
(1.0091 -9.24129e-05 -1.01037e-24)
(1.00932 -9.71703e-05 -6.80593e-24)
(1.03919 -0.0255526 0)
(1.03848 -0.0249651 -5.58295e-21)
(1.03832 -0.0257934 2.05605e-21)
(1.00401 -0.0600301 7.63798e-21)
(1.02133 -0.00340995 3.02374e-21)
(1.0211 -0.0031762 3.02728e-21)
(1.02096 -0.00333699 4.30917e-21)
(1.05382 -0.0556127 -1.27867e-20)
(1.05382 -0.054448 -7.065e-21)
(1.00747 -2.75699e-05 -4.66035e-24)
(1.0071 -2.04215e-05 6.09665e-23)
(1.00732 -2.72762e-05 -1.05203e-24)
(1.00428 -8.12559e-05 1.50828e-23)
(1.00465 -5.45753e-05 -1.32129e-22)
(1.00543 -1.25489e-05 1.57383e-22)
(1.01462 -0.00747742 -6.7674e-22)
(1.01517 -0.00786443 0)
(1.01268 -0.000840534 2.44887e-22)
(1.01261 -0.000802265 -3.40182e-22)
(1.05852 -0.0507178 4.88269e-21)
(1.05811 -0.0508138 -2.2788e-22)
(1.05838 -0.0511803 4.6634e-21)
(0.989704 -0.0506339 -4.36899e-22)
(0.986437 -0.0549812 -1.99595e-21)
(0.993059 -0.0550679 -4.78391e-22)
(0.906251 -0.0776088 1.71385e-21)
(-0.0199015 -0.118754 9.50304e-23)
(-0.027142 -0.112428 0)
(1.01648 -0.00103962 1.3662e-22)
(1.01683 -0.00112515 1.96167e-22)
(1.0168 -0.00121186 -1.62142e-22)
(1.05549 -0.0338676 -6.42721e-21)
(1.05626 -0.0334144 -1.49901e-21)
(1.05541 -0.0328796 -7.2019e-21)
(0.513855 0.0136564 -6.21764e-23)
(0.563058 0.00246357 -6.16477e-22)
(1.03736 -0.0147134 -6.53379e-21)
(1.03806 -0.0149779 -3.14036e-21)
(1.03763 -0.0142609 -6.35556e-21)
(1.01634 -0.00170254 -2.89348e-22)
(1.01653 -0.00190336 -4.25854e-22)
(0.921982 0.112357 4.46023e-21)
(0.938253 0.0896469 8.34288e-21)
(0.936675 0.114047 4.63769e-21)
(1.01768 -0.00261957 -4.22498e-22)
(1.01743 -0.00228109 5.75026e-22)
(1.01332 -0.000914325 -9.29457e-23)
(1.01358 -0.000901111 -3.13186e-22)
(1.01823 -0.00284933 -9.93754e-24)
(1.01781 -0.00220124 5.41237e-24)
(0.142039 -0.099957 1.81686e-20)
(0.21819 -0.0938297 9.03802e-22)
(0.23651 -0.100269 5.53431e-21)
(1.00342 -0.000109508 5.02532e-22)
(1.00594 -0.000158327 -6.54796e-22)
(1.00296 -0.000140129 -4.79507e-22)
(1.01833 -0.00482875 1.43828e-23)
(1.01804 -0.00460841 -8.79066e-22)
(1.01813 -0.00487775 1.32274e-21)
(1.00757 -0.0576602 0)
(1.00762 -0.0542572 2.00653e-22)
(1.01084 -0.0559587 0)
(1.02172 -0.00346248 -1.8934e-21)
(1.02157 -0.00365606 -1.80032e-21)
(0.459777 0.0327436 0)
(0.361119 0.0503448 -6.38339e-21)
(0.413299 0.0317667 0)
(1.04087 -0.0233855 -1.35964e-21)
(1.04051 -0.0225552 2.0083e-21)
(1.04158 -0.0227878 -1.28651e-21)
(0.496097 -0.0215114 5.3587e-21)
(0.475675 -0.0178698 2.23759e-20)
(0.494067 -0.0217142 1.50067e-20)
(1.01008 -0.000117143 2.77866e-23)
(1.01036 -0.000116431 9.74089e-24)
(1.0103 -0.000114094 8.34205e-24)
(0.767891 -0.0517843 -8.50107e-21)
(0.72752 -0.0496427 7.3476e-21)
(0.739004 -0.0497867 -4.24924e-21)
(1.01905 -0.0102176 -4.92737e-23)
(1.01877 -0.0100078 6.85886e-22)
(0.885664 0.116586 -2.45327e-21)
(0.892689 0.0996674 0)
(0.879073 0.0876903 -2.61387e-22)
(1.00879 -9.29593e-05 -2.10466e-23)
(1.00872 -8.93279e-05 4.34787e-24)
(1.00854 -9.15747e-05 -2.65407e-23)
(1.01231 -0.000222696 1.7716e-22)
(1.01247 -0.000228235 1.00346e-22)
(1.01207 -0.000221978 7.62643e-23)
(0.967659 -0.0380084 -9.45423e-22)
(0.966289 -0.0504852 -3.88595e-21)
(0.97924 -0.0462136 -5.29934e-21)
(1.03455 -0.0335356 -1.64137e-21)
(1.03018 -0.0332547 -2.31487e-22)
(1.03156 -0.0296332 -1.52137e-21)
(-0.0700842 -0.0978851 1.02349e-20)
(-0.0629304 -0.101539 -5.97478e-22)
(1.0197 -0.00120993 2.74991e-21)
(1.01958 -0.00105484 1.20495e-23)
(1.01948 -0.00116651 0)
(0.499883 -0.0217106 -1.07726e-20)
(0.518569 -0.0251343 -1.01697e-20)
(1.04035 -0.0238305 3.37319e-23)
(1.04119 -0.0239788 -4.5009e-21)
(1.03437 -0.0084553 -1.92941e-21)
(1.03454 -0.00790994 2.06456e-21)
(0.787158 -0.0605481 -8.31265e-21)
(0.759055 -0.0602259 4.99477e-21)
(0.758418 -0.059072 -1.05484e-20)
(1.06122 -0.0539167 0)
(1.06051 -0.054145 0)
(1.06109 -0.0547754 0)
(0.66651 -0.0435975 -9.29392e-24)
(0.635986 -0.0411198 0)
(0.635935 -0.0418652 -5.48173e-21)
(1.00384 -2.76776e-05 -6.93774e-24)
(1.00384 -3.57009e-05 -5.66819e-24)
(1.00248 3.963e-06 1.09322e-23)
(1.04988 -0.0294906 0)
(1.05071 -0.0302371 0)
(1.04964 -0.0304953 -4.50038e-21)
(1.00341 1.13522e-05 -2.16771e-23)
(1.00254 -1.09246e-05 -5.12084e-24)
(-0.0587102 -0.0980351 -2.81139e-21)
(-0.061197 -0.091085 1.18545e-20)
(-0.0529091 -0.0954477 7.95716e-21)
(1.00888 -9.90648e-05 2.35469e-25)
(1.00906 -9.72934e-05 2.49639e-23)
(1.04247 -0.0462044 4.76932e-21)
(1.04272 -0.04481 -9.33385e-21)
(1.08216 0.00777507 7.66311e-22)
(1.07656 0.0179546 -2.90795e-22)
(1.05738 0.0255903 -1.61518e-21)
(1.00866 -0.000249874 -6.40923e-23)
(1.00869 -0.000251938 -5.96069e-23)
(1.01616 -0.000915723 2.0567e-22)
(1.06942 -0.0446094 0)
(1.06859 -0.0449728 0)
(1.06864 -0.0440255 0)
(1.02847 -0.0125927 -7.94096e-22)
(1.02713 -0.0135935 3.07874e-22)
(1.02872 -0.0143832 8.13345e-22)
(0.544608 0.0216964 0)
(0.497502 0.0372806 0)
(0.947684 0.0669309 1.01967e-23)
(0.962707 0.058917 -4.09579e-21)
(1.01256 -0.000224485 -2.46308e-23)
(1.01298 -0.000219996 -7.62808e-23)
(1.01849 -0.00479489 1.69757e-21)
(1.01858 -0.00503234 -1.41435e-21)
(1.06713 0.0108912 -1.24743e-22)
(1.07519 0.0128585 5.0752e-21)
(1.01207 -0.08619 1.48841e-22)
(1.02682 -0.08016 -1.7306e-21)
(1.02021 -0.0745176 -6.99436e-23)
(1.0149 0.000237247 0)
(1.01448 0.000138338 2.91187e-23)
(1.01477 0.000204254 3.84356e-23)
(1.0079 -0.0610954 -5.44796e-22)
(1.00434 -0.0594178 0)
(1.00531 2.10984e-06 1.40668e-23)
(1.00517 3.39411e-06 3.28399e-24)
(0.600767 -0.0375927 -1.14878e-20)
(0.575459 -0.0345845 -5.86752e-21)
(0.595919 -0.0369334 2.48654e-21)
(1.06076 -0.0423798 6.04309e-22)
(1.06148 -0.0429937 -1.3792e-20)
(0.894327 0.148369 2.54251e-21)
(0.896116 0.156154 -2.16538e-21)
(0.894172 0.152043 -5.08544e-21)
(1.03087 -0.0180921 -1.64036e-21)
(1.0303 -0.0181427 1.41953e-22)
(1.0304 -0.0174777 -1.7857e-21)
(1.03248 -0.0247887 7.07656e-22)
(1.03265 -0.0238915 0)
(1.03178 -0.0241574 1.08395e-21)
(1.0246 0.00555624 2.71596e-22)
(1.02353 0.00741378 0)
(1.02279 0.0048291 0)
(0.998109 -0.0856983 8.98772e-22)
(1.00467 -0.0989928 1.61183e-22)
(1.0288 -0.0110284 -1.84495e-22)
(1.02907 -0.0114414 3.56903e-21)
(1.0285 -0.011245 3.30172e-21)
(1.03135 -0.0186357 2.49534e-21)
(1.06832 -0.0397302 -6.23846e-21)
(1.06907 -0.0402778 -2.59301e-21)
(1.06795 -0.0405627 0)
(0.949164 -0.0545965 -1.27629e-21)
(0.950828 -0.0669836 -5.56782e-22)
(0.960447 -0.059447 5.61651e-22)
(0.987042 -0.0454427 2.1149e-22)
(0.99254 -0.0463213 0)
(1.01396 -0.0600293 0)
(1.04936 -0.0602974 -6.08765e-21)
(0.481992 -0.0159261 -2.78591e-20)
(0.392856 -0.00130512 -2.85676e-20)
(0.364579 -0.00568849 -1.23871e-20)
(1.02236 -0.00101868 -8.21955e-22)
(1.02201 -0.000864326 2.4082e-21)
(1.02204 -0.00109598 1.60181e-21)
(1.01216 -0.000220891 0)
(1.02143 -0.0177373 4.58557e-24)
(1.02094 -0.0179256 0)
(1.02088 -0.0172565 0)
(0.832228 0.159696 -2.70992e-22)
(0.847833 0.147292 -3.35986e-22)
(0.811639 0.162649 3.14143e-22)
(1.01482 -0.000679873 0)
(1.0145 -0.000595521 0)
(1.01486 -0.000675224 0)
(1.02078 -0.0560474 3.657e-21)
(1.02449 -0.0537916 3.94667e-22)
(0.984695 -0.0557757 3.37906e-21)
(1.03719 -0.0153092 9.15514e-22)
(1.03675 -0.0145979 -2.97609e-21)
(1.02908 -0.010801 -3.71613e-21)
(1.02851 -0.0105988 -3.72436e-21)
(1.04922 -0.0258626 -2.09722e-23)
(1.04827 -0.0259502 6.41531e-21)
(0.817229 -0.0629238 -9.12906e-21)
(0.815652 -0.0615046 7.44865e-21)
(1.00859 -0.00452144 -2.47479e-21)
(1.011 -0.00395084 2.69636e-22)
(1.0101 -0.00691019 8.76193e-22)
(1.02657 0.00580493 2.47291e-21)
(1.02484 0.00381539 2.28256e-22)
(1.03855 -0.0157582 -2.77303e-22)
(0.965265 0.0911548 7.31662e-23)
(0.988016 0.0793353 -7.96367e-21)
(0.940322 0.0984334 -3.62283e-23)
(1.0556 -0.0408651 4.63449e-22)
(1.05651 -0.0405338 -4.23945e-22)
(1.02675 -0.032176 1.88485e-21)
(1.02775 -0.0314536 2.87169e-21)
(1.01024 -0.00107569 -7.74278e-23)
(1.01022 -0.00103915 1.29428e-22)
(0.910995 0.102278 -9.47153e-22)
(0.906142 0.103908 -2.98945e-22)
(1.00547 0.00295308 0)
(1.00227 0.000882844 3.72702e-22)
(1.00634 -0.000606454 0)
(0.679377 -0.0461168 -1.26733e-20)
(0.646966 -0.0429253 -4.64215e-21)
(0.645544 -0.0443875 1.70148e-21)
(0.961688 -0.0752273 8.2205e-22)
(0.946933 -0.0794207 -1.89005e-20)
(1.0153 0.000355566 0)
(1.015 0.000247134 0)
(1.00966 -0.000128349 -2.50748e-23)
(1.00988 -0.000116469 3.05792e-23)
(1.00993 -0.000122293 -2.5945e-24)
(1.00383 -1.10427e-05 5.38602e-24)
(1.00401 1.38972e-06 1.41936e-23)
(1.00475 2.73241e-05 -5.46193e-23)
(1.06868 -0.0390297 -4.0354e-21)
(1.06774 -0.0392623 -4.34104e-21)
(0.816159 0.176716 -6.37815e-22)
(0.848449 0.1515 7.52723e-23)
(0.875837 -0.130167 -3.16307e-22)
(0.895048 -0.133804 -1.39451e-22)
(0.881548 -0.147032 0)
(1.01216 -0.000877253 2.38814e-24)
(1.01239 -0.00087279 -1.26408e-23)
(1.0124 -0.000916295 -1.1254e-23)
(1.02005 -1.52002e-05 6.75999e-22)
(1.02009 -0.000142624 0)
(1.02025 -3.32643e-05 3.217e-21)
(0.941819 0.102714 1.01682e-22)
(0.991848 0.0770868 6.08207e-22)
(0.936116 0.0950005 -8.55078e-23)
(0.930047 0.0893261 1.13765e-20)
(0.944379 0.084239 -8.28628e-23)
(1.05795 -0.0516304 3.23894e-21)
(1.05785 -0.0521315 2.99887e-21)
(1.02428 -0.0161177 1.07134e-22)
(1.02461 -0.0164852 1.75109e-21)
(1.03144 -0.00461648 -3.63301e-21)
(1.03085 -0.00469614 -3.51874e-21)
(1.05869 -0.0342665 6.84559e-21)
(1.05786 -0.0346172 0)
(1.0587 -0.0353219 -8.63499e-21)
(0.928673 0.0971897 0)
(0.940064 0.0913179 9.35979e-23)
(1.0415 -0.058282 3.71043e-21)
(1.01483 -0.0590596 -1.33675e-21)
(1.02486 -0.0215728 -2.13713e-21)
(1.02508 -0.0213276 0)
(1.02529 -0.021868 -1.88993e-21)
(0.604458 -0.143856 0)
(0.666757 -0.141078 1.62707e-21)
(1.01048 -0.00117122 8.00131e-23)
(1.0105 -0.00120913 2.39381e-23)
(1.01036 -0.00113377 -8.82244e-23)
(0.606832 -0.0379514 -8.16733e-22)
(0.629042 -0.0402506 -1.02327e-21)
(1.05458 -0.0232466 9.42226e-22)
(1.05546 -0.023052 3.84939e-21)
(1.03738 -0.0222756 -5.19558e-21)
(1.03727 -0.0229901 -1.62532e-21)
(0.692918 -0.0480397 6.18533e-21)
(0.654439 -0.0462504 9.24035e-21)
(0.665425 -0.0460955 3.05254e-21)
(1.02032 -0.0091913 -6.57904e-22)
(1.02014 -0.00923544 -4.98599e-22)
(1.02048 -0.00945668 2.16635e-21)
(1.0472 -0.00248849 3.25361e-21)
(1.05628 -0.004207 -2.9809e-22)
(0.673896 -0.044667 0)
(0.673669 -0.0437869 8.23291e-22)
(0.701116 -0.0469972 -2.06221e-20)
(1.01195 -0.000845874 1.352e-23)
(1.01194 -0.0008907 1.41273e-23)
(1.06516 -0.0363231 -1.21563e-20)
(1.066 -0.0368833 1.14428e-20)
(1.06498 -0.0373383 -1.25195e-20)
(1.04743 -0.0274305 6.0773e-21)
(1.0483 -0.028188 0)
(1.02432 -0.0157741 -1.52162e-21)
(1.02396 -0.0157096 1.28323e-21)
(0.0750255 0.139694 -1.70635e-21)
(0.0560874 0.135924 -1.48248e-21)
(1.0244 -0.021456 -1.51262e-21)
(1.02465 -0.0221057 -3.23203e-22)
(1.02714 -0.0109336 -2.55928e-21)
(1.02749 -0.0108945 -3.1926e-21)
(1.02753 -0.0113367 -2.82618e-21)
(0.743535 -0.0659383 -2.74552e-22)
(0.737837 -0.0633554 5.85799e-21)
(0.712844 -0.0636572 1.09575e-20)
(1.0099 -0.000148111 0)
(1.01008 -0.000161775 0)
(1.0098 -0.000153901 4.58035e-23)
(1.0325 -0.0254688 2.76736e-21)
(1.03322 -0.0251448 -1.5178e-21)
(1.01894 -0.00330917 -1.57382e-22)
(1.01993 -0.003704 -1.95952e-23)
(1.01916 -0.00279966 9.11813e-23)
(0.717733 -0.0492543 -8.2265e-21)
(0.719051 -0.0490823 -8.5492e-21)
(1.07893 -0.0517229 -5.91831e-21)
(1.07948 -0.05223 -1.63409e-20)
(1.07955 -0.0514632 -1.13202e-20)
(1.01992 -0.00123993 2.65316e-21)
(1.01983 -0.00136452 -8.44153e-22)
(1.06487 -0.0411886 -2.52247e-21)
(1.06458 -0.0420402 7.05817e-21)
(1.064 -0.0412316 -3.56727e-21)
(1.02011 -0.000733313 -5.9076e-22)
(1.02015 -0.000859198 -3.25615e-21)
(1.02034 -0.000762733 -1.88975e-21)
(0.510167 -0.030848 -1.44343e-21)
(0.509538 -0.0213983 9.29522e-21)
(1.02291 0.009204 -6.49176e-22)
(1.02497 0.0115207 -2.82992e-21)
(1.02184 0.0120615 -7.75924e-22)
(1.00418 -5.63142e-05 5.22205e-23)
(1.00455 -3.87386e-05 0)
(1.0053 -1.77914e-06 0)
(1.01429 -0.00291105 3.42978e-23)
(1.01442 -0.00301277 8.60753e-23)
(1.01424 -0.00297905 3.77919e-23)
(1.07814 -0.0518924 7.12169e-21)
(1.07832 -0.0510532 6.46081e-21)
(1.04915 -0.0287873 0)
(1.05012 -0.0286431 0)
(1.04016 -0.0138418 0)
(1.04017 -0.0144575 0)
(1.03956 -0.0140506 0)
(1.01991 -1.06821e-05 2.0223e-21)
(1.02049 -0.00915281 -3.50922e-21)
(1.02017 -0.00895694 -1.61573e-21)
(1.02674 -0.011066 1.32322e-21)
(1.02666 -0.0105876 1.49343e-21)
(0.935667 -0.1064 0)
(0.948368 -0.105941 -1.12299e-21)
(0.336058 0.15279 -2.22722e-20)
(0.327973 0.128509 1.92548e-20)
(0.488756 -0.0815656 5.84071e-22)
(0.517965 -0.0740228 0)
(0.484176 -0.074838 0)
(1.01911 -0.0205958 0)
(1.02003 -0.0214756 0)
(1.01882 -0.0219013 0)
(0.73509 -0.0499233 -2.62838e-21)
(0.725217 -0.0495805 -4.07165e-21)
(0.85098 -0.0174915 2.98234e-21)
(0.812474 -0.0124083 2.83902e-21)
(0.814675 -0.0101283 -1.68651e-21)
(1.01933 -0.000561636 1.47144e-23)
(1.0555 -0.0348232 -6.8943e-21)
(1.05471 -0.0342482 7.27055e-21)
(1.05827 -0.0512718 -6.00387e-21)
(1.05753 -0.0512073 0)
(1.00446 -0.0121707 -2.82606e-23)
(1.00526 -0.0154382 2.83218e-21)
(1.0073 -0.0125751 -1.72615e-21)
(1.03822 -0.00788013 -2.1589e-21)
(1.03729 -0.0111761 -1.84196e-21)
(1.03504 -0.00836867 1.34181e-21)
(1.06743 -0.0541511 -5.96579e-21)
(1.06696 -0.0535069 -3.07566e-22)
(1.06773 -0.0534672 -5.4758e-21)
(1.05582 -0.0556682 4.73839e-21)
(1.01358 1.27855e-05 3.01902e-23)
(1.01443 0.000415492 -3.77694e-22)
(1.0143 -0.000674684 -7.01241e-22)
(0.802976 0.185368 -6.86945e-23)
(0.802116 0.188935 1.0417e-21)
(0.804602 0.191999 2.01541e-22)
(0.672212 -0.0432962 4.364e-22)
(0.643077 -0.0404122 4.78942e-21)
(0.648822 -0.0409866 1.06753e-20)
(1.01917 -0.000360589 -1.2502e-21)
(1.01944 -0.000387708 2.17127e-21)
(1.04324 -0.0011822 6.24361e-23)
(1.03977 0.00020176 6.59406e-22)
(1.04258 0.00497495 -1.76394e-21)
(1.04408 -0.00565954 2.40129e-23)
(1.04069 -0.00638282 0)
(1.07185 -0.0737467 1.24388e-21)
(1.07755 -0.0716017 5.41305e-21)
(1.0702 -0.0685053 -1.15442e-21)
(1.0402 -0.013307 3.0698e-22)
(1.04084 -0.0137563 6.20567e-21)
(1.0399 -0.00434456 3.86091e-22)
(1.04265 -0.00806992 -4.68107e-22)
(-0.0547238 -0.104866 -1.13675e-20)
(-0.0635054 -0.101003 -3.02394e-20)
(1.01336 -0.00289285 0)
(1.01335 -0.00281837 -2.95648e-23)
(0.810786 0.178579 3.36379e-21)
(0.800823 0.174094 -2.53509e-21)
(1.01419 -0.00278111 -1.8306e-24)