/*--------------------------------*- C++ -*----------------------------------*\
| =========                 |                                                 |
| \\      /  F ield         | OpenFOAM: The Open Source CFD Toolbox           |
|  \\    /   O peration     | Version:  v2012                                 |
|   \\  /    A nd           | Website:  www.openfoam.com                      |
|    \\/     M anipulation  |                                                 |
\*---------------------------------------------------------------------------*/
FoamFile
{
    version     2.0;
    format      ascii;
    class       volScalarField;
    location    "900";
    object      p;
}
// * * * * * * * * * * * * * * * * * * * * * * * * * * * * * * * * * * * * * //

dimensions      [0 2 -2 0 0 0 0];


internalField   nonuniform List<scalar> 
13851
(
-0.000424455
0.00860412
-0.022869
-0.000441829
-0.0424255
0.0104213
-0.0234258
-0.0279707
6.51156e-05
-0.015598
-0.00910992
-0.0214818
-0.0656723
-0.103611
-0.0155365
-0.0153571
-0.0262199
-0.000701383
-0.0487821
-8.06096e-06
-0.000718024
-0.0244503
0.000507831
-0.000372576
0.000508512
-0.0265268
-0.0374497
-0.06475
-0.000895396
-0.00813389
0.0100184
-0.0264259
-0.0225773
-0.0116227
-0.000439713
-0.0788244
-0.0805124
-0.0163816
-0.0160453
-0.00756706
-0.0056551
0.000352371
-0.115732
-0.0114857
-0.0100575
-0.122186
-0.00733121
-0.00754578
-0.038261
0.0013163
-0.0595538
-0.0616341
-0.0788403
-0.0152151
-0.00766689
0.000346603
0.00041323
-0.072282
-0.00821656
-0.0234955
-0.0140671
-0.0154975
0.0029243
-0.0456527
0.0245577
0.00128621
-0.0798803
-0.00670613
-0.0476613
-0.000523648
-0.0774503
-0.0817193
-0.00320184
-0.015375
-0.00667228
0.000432498
-0.0254583
-0.0893723
-0.0418559
-0.0770027
-0.0247571
-0.00237202
-0.0151394
-0.139075
0.0035586
-0.0255461
0.00702237
0.00904054
-0.0331326
0.000980882
-0.0784491
0.00214912
-0.00573647
-0.0365326
-0.0338708
0.000442824
-0.0437855
-0.0885023
0.00114887
0.000466211
-0.0804733
-0.0497465
-0.00492372
-0.0450058
0.000137985
0.00450876
-0.0532765
0.000212218
-0.0821916
0.0100719
1.68767e-05
0.000984521
0.00200599
-0.000330144
7.28878e-06
-0.017903
-0.0850816
0.000317992
-0.00277151
-0.00684609
-0.11498
-0.0439926
-0.0653947
-0.013627
-0.00472032
0.000960922
-0.00103945
-0.0454292
-0.00073778
-0.0372543
-0.00579032
-0.00155335
-0.0785302
-0.0152686
-0.0201479
-0.00199588
0.000315282
-0.0808456
-0.0293589
-0.0328102
-0.0812847
-0.00719745
0.00133993
0.000650254
-0.0197003
-0.00997835
0.000170892
-0.0346651
-0.0228651
-0.00948568
-0.0753543
-0.00635939
-0.103519
0.000469422
-0.0282662
-0.0190831
-0.00169658
-0.0109375
-0.0601726
-0.0580056
6.92169e-05
-0.0443312
-0.0743877
-0.00144629
-0.00681433
0.000529961
0.000463923
-0.0491093
-0.000993873
-0.100077
-0.088814
0.000266851
-0.00181355
-0.0383647
-0.00147223
-0.0122994
-0.0443698
0.00137946
-0.0533407
0.000200733
-0.0257586
-0.0791487
-0.0155475
-0.0246793
2.38366e-05
0.000613357
0.00108241
-0.00682954
-0.0387335
-0.0051408
-0.00669224
-0.0786184
0.000991585
-0.0431699
-0.00955259
-0.0268837
0.00124441
-0.00559598
0.00130857
0.000428223
0.000939722
-0.085044
-0.00381383
-0.0110516
-0.0102034
-0.015806
0.0155594
-0.0284939
-0.0826464
0.000113807
-0.0832219
-0.00514906
-0.0103848
0.000133019
0.000576945
-0.00286048
0.00603238
-0.123491
-0.0154334
-0.0829295
-0.0283896
-0.0254355
-0.0876039
-0.0515581
-0.0805969
0.000629447
-0.0372946
0.000143421
-0.0886806
0.000117325
-0.025643
0.020801
0.000263682
0.00100385
-0.0606314
0.00592693
0.0187304
0.0257898
0.000616043
-0.0112963
0.00937662
-0.0101384
0.000124186
-0.0103486
0.000143442
-0.0819419
-0.0487634
-0.0134608
-0.0178107
-0.0187935
0.00268767
-0.0115365
-0.0186775
-0.0185377
-0.0595972
-0.00146453
-0.00389083
-0.0820594
-0.101697
-0.0175019
0.000589062
-0.000966713
0.00829131
0.000847149
-0.0406333
-0.0262091
-0.0188598
-0.0365791
-0.086822
0.00117255
0.00285878
-0.0275561
0.0173063
-0.0418083
-0.0147685
-0.00151943
-0.00348129
0.00119803
-0.0805134
-0.0081745
9.39918e-05
6.70616e-05
7.88253e-05
-0.0592785
0.00558
-0.0206858
0.00017077
-0.0163975
0.0154095
0.00403514
-0.0340366
-0.0089404
-0.0235623
-0.0463267
0.00319369
-0.0470009
-0.00946101
-0.0175658
-0.00154637
-0.0813784
-0.0441891
-0.0250582
-0.08106
-0.00892847
0.00632144
-0.0880522
0.000100873
-0.0553547
-0.0354091
-0.00896323
-0.0197742
-0.00887896
-0.0170427
-0.0902639
0.000413005
-0.0192821
0.000944902
-0.0823101
-0.0765393
-0.0155837
-0.0535954
-0.0161894
-0.100636
0.00364662
0.000582544
-0.00072214
-0.0755648
-0.0371301
-0.0293965
-0.0163193
-0.00920343
-0.0165866
-0.0101691
-0.0905579
-0.0773951
0.001318
-0.0798653
0.00840539
-0.0153826
-0.0424303
-0.0314013
0.0027053
0.0108378
-0.0627816
-0.0441453
0.00223035
-0.00978496
-0.08493
-0.0155825
-0.000818946
-0.000552866
-0.00520044
-0.0299587
0.0123558
-0.0866247
-0.00173972
-0.0086169
-0.000653227
-0.0161352
0.000131349
0.000195206
-0.00206192
-0.0846076
-0.00646434
-0.0120292
-0.0549725
0.000430542
-0.0119032
-0.00980383
-0.0123443
-0.0910613
-0.0117683
0.00703985
-0.03328
-0.0159641
-0.00543674
0.000327587
0.00325211
-0.0743911
-0.00661078
-0.0116471
0.00258117
-0.0638862
-0.106484
-0.00424964
-0.00420995
0.00221842
-0.00222489
-0.0155465
0.000928335
-0.0548606
-0.107971
-0.0510022
-0.0825728
-0.0853535
0.000470371
-0.0178213
-0.0883953
-0.0777527
0.0206055
-0.0851154
0.00331149
-0.0336525
0.000511686
0.00545879
0.000205261
-0.0165669
0.00216049
-0.0213009
9.96229e-05
0.000120561
0.000508438
-0.0471538
0.00887567
-0.102272
0.000137083
-0.0542457
0.00542244
-0.012338
-0.0170372
-0.00720312
-0.0247015
-0.000219112
0.000297659
7.33399e-05
0.000620476
-0.00761971
-0.0125017
-0.0471826
0.00516488
-0.098333
-0.00870853
0.0059482
-0.00646108
-0.0621259
-0.00554236
-0.00933878
0.000231785
-0.0148078
-0.0140063
-0.0217033
-0.0835104
0.00134347
0.00240386
-0.014913
-0.0692063
5.65052e-05
-0.0341209
-0.0429807
0.00108412
0.00014532
-0.0157877
-0.07487
-0.0617749
0.00193554
0.009745
0.000614188
-0.000573552
-0.119473
-0.00587067
7.3087e-05
0.00879541
-0.00214199
-0.000290686
-2.76987e-05
0.000418026
-0.0104094
0.000104355
0.00129429
-0.0863884
-0.015278
-0.051059
-0.00206821
0.0028088
0.00244425
-0.000542625
-0.00373498
-0.000385038
-0.0004207
-0.0191437
-0.0197447
0.00757068
-0.0156837
0.000526914
-0.088169
-0.0830094
-0.0164416
0.00293231
-0.0178057
-0.0075316
-0.138579
-0.000662451
-0.00800516
-0.00568871
-0.0360187
-0.0218888
-0.103002
0.000254338
-0.0806335
-0.000990775
0.000376677
0.00257824
-0.0979556
-0.0245994
-0.00959251
-0.00292178
-0.0106656
-0.00783221
-0.00103151
-0.00132829
-0.0218131
-0.0789369
-0.0559645
-0.0691624
-0.0671375
0.00361474
9.3415e-05
-0.0450241
-0.0144673
-0.0268125
-0.0433658
-0.00605638
-0.0120317
-0.0816015
-0.0144781
-0.101563
-0.131166
-0.0905043
-0.00767883
0.00256409
-0.00736416
0.00186578
0.000833316
-0.00790234
-0.0114141
-0.0102877
-0.00979597
-0.0797169
0.00026663
0.00206172
-0.0575375
-0.0821357
-0.0170919
-0.0121631
-0.00177573
-0.00816052
-0.0405823
0.00373111
0.0101357
0.00502099
-0.00093222
-0.117633
-0.0886445
0.00280003
-0.0157885
-0.0496652
3.35702e-05
0.000100625
0.00165382
-0.0512755
-0.0291682
-0.0738497
-0.0770423
0.000326241
0.00654734
-0.00551863
-0.00764638
-0.058077
-0.0791822
-0.0812268
-0.00556175
-0.0216971
0.00550862
-0.0867079
-0.0741685
-0.0521419
0.00248574
0.000206553
-0.00796654
-0.0115138
0.000307595
-0.0163913
0.000177747
-0.00294598
-0.079029
-0.0438349
0.00438949
0.000292647
-0.00245822
-0.006955
-0.00182333
0.000553697
0.000849561
-0.0155192
-0.0739945
-0.0111478
-0.0106759
-0.083779
-0.0155609
-0.0515724
-0.0818023
-0.0813867
0.00228193
-0.0467648
1.8259e-05
0.000800483
-0.0190072
-0.0806137
-0.00351267
-0.0728112
-0.0286958
-1.78654e-05
-0.0128036
0.00142977
-0.00836068
-0.0543545
-0.015465
0.0015328
0.000100219
-0.0382452
-0.0455331
-0.0228963
-0.00529996
-0.0109405
-0.0197842
-0.0408621
-0.00845531
-0.052061
-0.0105995
-0.0750622
-5.37132e-05
0.0154874
0.00335725
-0.0896177
-0.00563065
0.000321777
-0.0833288
-0.00530494
-0.112991
-0.083702
-0.125075
0.0116434
0.000160244
-0.0839124
9.83307e-05
-0.00268014
0.000235463
-0.00296273
9.18579e-05
0.000610307
-0.000369751
0.000279313
0.0132619
-0.00252604
0.0128741
-0.0014416
0.00018146
0.000531086
-0.0293078
0.00207481
-0.065328
-0.0380039
0.000128003
0.000512591
-0.000989293
-0.00129163
-0.0756794
0.00259439
-0.0194718
0.000247129
-0.022094
-0.00144557
-0.0158073
-0.0752752
-0.0136683
-0.0859741
-0.0100378
-0.00539003
-0.0678415
-0.0724986
-0.0472866
-0.0157181
-0.0241114
-0.0010368
-0.0642573
-0.000346345
-0.00795795
-0.0161809
-0.00980429
0.000248957
-0.0592047
-0.0836805
0.000704498
-0.00511813
0.00164626
-0.00100733
-0.0255256
0.00583032
-0.0621944
-0.0527397
-0.037471
-0.00475564
0.000166997
-0.00152567
-0.0867421
-0.076836
0.00736494
-0.0833393
0.00050568
-0.0155551
0.000288104
-0.0148584
-0.0800861
-0.0102738
-0.00313904
0.000980019
-0.0347914
0.00051271
-0.120836
-0.00614456
-0.0939864
0.00038074
-0.0196823
-0.0842017
-0.0695161
-0.0782353
0.00130741
-0.0813255
-0.0156701
-0.000517242
-0.0148234
-0.0209911
-0.0194692
-0.130583
0.00196994
0.00165
-0.0808173
0.000240739
-0.00383975
-0.0103497
-1.53819e-05
-0.125767
-0.0222941
-0.0601217
0.0041253
0.0018638
-5.14466e-05
0.00417349
-0.00149746
0.00203416
0.000222378
-0.00524657
-0.0048592
-0.086338
-0.00197473
0.000402428
0.000954172
-0.0222521
-0.0847882
0.000358506
0.00130306
-0.0653197
-0.0177862
-0.00313261
-0.000637095
0.0124237
-0.0791087
-0.0194944
-0.0860196
-0.0580463
-3.01159e-06
0.00248466
-0.116849
0.00957897
-0.0161539
-0.000972891
0.000240767
-0.0167368
-0.0191233
0.00289654
-0.00918919
0.00278127
-0.0147288
0.00133969
-0.0770543
-0.0126382
-0.0371569
-0.00207485
-0.0193628
-0.0375252
-0.0623403
-0.0810167
-0.00952061
-0.00199719
-0.0638998
-0.0227043
-0.128667
0.0136776
-0.0296319
-0.0708673
-0.0913861
-0.00769939
-0.0179664
-4.40083e-05
0.000807781
-0.0738517
-0.137003
-0.000371043
0.000579376
-0.0599923
0.00121216
0.0004336
-0.0747161
0.000476289
-0.0133958
-0.122926
-0.0853332
-0.00387384
-0.00259853
-0.0161329
-0.0706783
-0.0746918
-0.0735616
0.00168516
-0.0743394
-0.00745041
0.00140873
-0.0518152
-0.0535657
-0.016218
-0.0218795
-0.00651212
-0.0687952
-0.0782436
0.00317383
-0.0497988
-0.12923
-0.0377944
-0.0884454
-0.017821
-0.0518255
-0.00174622
-0.0115746
-0.00486045
-0.0156362
-0.0154643
-0.0800724
0.000436122
-0.0644115
-0.00697609
-0.0116214
-0.052497
-0.0503571
-0.087575
-0.0584151
0.00207064
-0.000385046
-0.0632345
-0.0168216
0.00373334
-0.0150087
-0.08565
0.00081468
-0.0717065
-0.00675779
-0.0147201
-0.0862257
-0.0766493
-0.0856023
-0.00874025
0.00317141
-0.000840682
-0.0949621
-0.0153611
-0.0132439
-0.0816683
-0.00169645
-0.0355807
-0.0106449
-0.00811762
-0.00692059
-0.0172002
0.000460662
-0.00171427
-0.0823113
-0.0572395
-0.0161317
0.00136467
-0.00890793
-0.124954
-0.06208
0.000412534
-0.0185107
-0.00118938
-0.00374552
-0.000692929
0.000492244
-0.00602735
-0.00644782
-0.0131595
0.00132289
-0.000725986
-0.0109678
-0.0788445
-0.0974787
-0.0351856
0.000827491
-0.00719874
-0.0329583
-0.000811991
-0.00127098
-0.0106665
-0.012716
-0.0799133
-0.0163617
-0.0629537
-0.0177679
-0.0170152
-0.000338587
-0.0660604
-0.0027134
0.0032183
0.00288793
-0.0728726
-0.0228975
-0.0286227
-0.0771897
-0.039136
0.00491534
-0.0176598
0.00536193
-0.0895405
-0.0312756
-0.00840943
-0.00583048
-0.0575241
-0.0513055
-0.00487819
-0.000631336
-0.0249483
-0.00144943
-0.00152147
-0.101255
0.000914334
-0.0543608
-0.019746
-0.00140983
0.00632009
-0.00161968
-0.0162842
0.000154054
-0.023625
-0.0798651
-0.00178277
-0.0751277
-0.120359
-0.00906742
-0.0594104
-0.0213869
-0.00142018
0.000816915
-0.00789702
-0.00160752
-0.0651003
-0.0293739
5.13749e-05
-0.00329249
0.000592303
-0.089629
0.00442882
0.00306549
-0.0883248
-0.0773973
-0.00778566
-0.00569572
-0.0296908
-0.00196341
-0.00976255
0.00108143
0.000208925
-0.00695925
-0.00859415
-0.00955445
-0.0862173
9.49577e-05
-0.0622209
-0.022223
-0.0341264
0.000184864
0.000447685
-0.00891935
0.0106774
-0.0242858
0.000642338
-0.0141439
1.41144e-05
-0.0152058
-0.0144414
-0.00809073
0.040322
-0.0585846
-0.00845868
0.000569001
-0.0100833
0.00635921
0.00328267
-0.0430379
-0.0128285
-0.0319148
-0.0300884
0.00139654
0.012031
0.000129843
-0.102304
-0.0767821
-0.0105426
-0.061508
-0.015576
0.000764078
-0.00320198
-0.0020859
-0.014503
0.000130534
-0.00137975
0.000647384
-0.0601435
0.000523043
0.000592078
-0.0254739
-0.0407571
-0.0797634
0.00492662
0.00139234
-0.00512452
-0.0695478
-0.0305619
-0.0342542
-0.123464
0.00675894
-0.0672895
0.000626753
-0.0566138
-0.0120219
0.000615359
-0.00339963
-0.0904405
-0.0750921
-0.0107845
-0.0439117
0.00093251
-0.0134604
0.000148971
-0.00740486
-0.00504527
0.0124133
7.14792e-05
-0.0395987
0.0100533
-0.0799176
-0.00050145
0.0252522
8.72232e-05
0.00782088
-0.0174281
-0.0846719
-0.0767299
-0.0644695
-0.00563317
-0.088047
-0.00900499
-0.0715446
0.000563752
-0.017312
0.000509462
-0.0157116
-0.0454348
-0.0175073
-0.0854355
-0.0231261
-0.0341181
-0.00994227
-0.0583723
-0.014746
-0.0158029
-0.0336668
-0.0101539
0.0007869
0.00122593
0.00393614
-0.021407
0.00136794
-0.00594121
-0.0401147
0.00185082
-0.00926808
-0.0820914
0.00601772
0.000757885
-0.0284379
-0.106465
-0.023729
-0.0147053
-0.0237071
0.00314571
0.000612278
-0.0800762
0.00117406
-0.0403616
-0.035912
-0.0846963
-0.00352845
-0.0390778
0.0190455
-0.0050609
0.00306104
-0.0140655
-0.0955521
0.00740868
-0.0859282
-0.000102698
-0.044511
-0.0724673
-0.0242881
-0.0838124
-0.0757596
0.000510323
-0.00122818
-0.0843902
-0.00470984
-0.0807561
-0.0105755
-0.0101322
-0.0804807
-0.0251572
-0.112598
-0.0112031
-0.0219976
-0.0124739
-0.0865636
-0.0781978
-0.0229967
0.000737283
-0.0191467
0.012087
-0.0808559
-0.0216818
-0.0175461
-0.0811941
-0.0346285
-0.00356832
-0.0702609
-0.00382574
-0.0237517
-0.00122284
-0.0653084
-0.0854331
0.000901469
-0.00533948
-0.0234281
0.000519256
0.00102445
-0.00602457
-0.00618771
-0.00943835
-0.0625868
-0.00391658
-0.0830753
-0.0266266
-0.116367
-0.00698505
0.0123612
-0.060068
0.00737577
0.00379611
-0.00939528
0.0047709
-0.000603063
-0.0160045
0.000782582
0.000804324
-0.00516722
-0.080693
-0.00129226
0.00161176
-0.0987518
-0.0196118
-0.00826391
-0.0203828
0.000582599
-0.00137129
-0.0493476
-0.0810329
-0.0878325
-0.00187704
-0.0550072
-0.0105369
-0.00676686
0.000495938
-0.0881068
-0.0444677
-0.0131906
-0.0674931
-0.0341322
0.0102386
-0.0806749
-0.0818736
0.00425904
-0.00504709
-0.0175121
0.0445763
-0.0523019
0.000171109
-0.0711982
-0.00886104
-0.00713059
0.00427896
-0.0856523
-0.00611282
-0.111599
0.00739352
-0.098718
0.00161725
0.00480859
-0.00711521
0.0101346
-0.000536348
0.00102404
-0.0272205
-0.089194
-0.0961663
0.0249025
-0.0833535
-0.00427009
-0.0808636
-0.0849914
-0.0480233
-0.0112212
-0.00276697
-0.000162264
-0.00497936
-0.0760573
-0.00970527
-0.0257009
-0.00596083
-0.0400719
-0.0810681
-0.0835236
-0.00261427
-0.0807807
-0.0097196
-0.00539678
-0.00652456
0.000434289
-0.0700996
-0.0162344
-0.0811567
-0.0150109
-0.000163646
-0.0725045
-0.0158987
-0.00882892
-0.0107563
-0.0796672
0.00130565
-0.0217213
-0.0028239
-0.00600316
-0.0731217
-0.0274291
-0.0209697
0.00102432
-0.0197341
-0.009484
-0.0785272
-0.00204597
-0.0467771
0.000170114
0.00110672
0.00103758
-0.0169419
-0.017977
-0.0524587
-0.0368044
-0.0153016
0.00105658
-0.00625377
0.00146948
-0.0163067
0.000637612
0.00126097
-0.0893505
-0.0336332
0.000880851
0.00301201
0.00051073
-0.0736941
-0.0885166
-0.0312626
-0.044955
-0.0147086
0.00128781
0.000140471
0.000365413
-0.0595869
-0.0803928
0.000373823
-0.00442988
0.0184765
-0.082137
-0.0248434
-0.0250902
-0.0815741
-0.0240129
0.000622929
-0.0759613
-0.0811216
-0.00911907
0.00118065
-0.0115878
-0.0794317
-0.0798241
-0.0268519
-0.0704741
-0.0854708
-0.0318173
-0.0809581
-0.0181894
-0.00375052
-0.0356099
-0.0665571
-0.0133031
-0.067816
-0.0194724
-0.000388465
0.000405221
-0.0561719
0.00171444
-0.0755875
-0.0195593
-0.0351423
-0.0570936
-0.0046186
-0.078905
-0.0811367
-0.012431
-0.0287042
-0.0792834
-0.0302866
-0.101552
-0.0170436
0.00144398
-0.00515854
0.00329791
0.000433446
-0.00105327
-0.00178531
-0.0114183
0.00420298
-0.0172309
-0.0276103
0.00203472
9.89341e-05
0.000466478
-0.0117636
-0.0216154
0.000781461
-0.0495513
-0.0212104
-0.00783464
-0.0335653
-0.0184273
0.00124975
-0.081662
-0.00185015
-0.000198586
-0.0764785
-0.0856585
-0.101291
0.00782514
-0.000731696
-0.105962
-0.0119206
0.000699233
-0.0432352
-0.00370839
-0.0526615
-0.0605046
0.00144089
-0.0766792
-0.0791086
-0.0281113
-0.0157954
-0.0913279
-0.0173212
0.0157286
-0.0430253
-0.109295
-0.0344414
-0.0693365
9.59185e-05
-0.0114783
0.00100707
-0.0152524
-0.0816302
-0.0893356
-0.0619996
-0.0929454
-0.0349122
-0.00844943
-0.00716429
0.000470835
-0.00713556
0.000385398
-0.0810901
-0.00423235
-0.0829161
-0.00491157
0.00312501
-0.0195494
-0.0795491
-0.0855909
-0.081034
-0.0511326
0.00049212
0.00117211
-0.0803939
-0.0763383
-0.0336251
-0.00309742
0.000281957
-0.0257014
-0.0231643
-0.0754592
-0.00642223
-0.0370187
0.000431147
-0.079505
0.000642949
-0.0789644
-0.0236347
-0.00532794
-0.0516035
-0.00391031
-0.084557
0.000614798
-0.0804059
0.000933301
-0.0363297
0.00153472
-0.0156313
0.00114039
-0.038258
-0.0476268
-0.0777915
-0.0958602
-0.0320441
-0.0282986
-0.00737011
-0.0806849
-0.0885764
-0.00105861
0.000694264
-0.00962145
0.000256851
-0.0774936
0.000244549
0.00229066
-0.0200195
-0.00672495
0.000491213
0.000254163
-0.022724
-0.0686263
-0.0864889
-0.0091621
0.00275499
-0.101893
-0.0281767
-0.0180904
-0.00670482
-0.101222
-0.0508661
-0.0144491
-0.0136387
-0.0104328
-0.0121924
-0.133354
-0.123635
-0.0144659
0.000848432
0.00392429
-0.00101781
-0.0784394
-0.00776182
-0.0886953
-0.0764609
-0.01527
-0.0191979
-0.00973712
-0.00621454
-0.00687603
-0.0223511
-0.079757
-0.017708
-0.0693752
-0.00147783
-0.00663661
-0.00138195
-0.0132295
-0.0757189
-0.0785498
-0.019232
-0.103016
-0.0593372
0.000842494
-0.0139626
0.00060033
0.00222464
-0.0794808
-0.0803502
-0.0135358
-0.00825906
0.0122624
-0.0197689
-0.0471008
-0.0746678
-0.0191016
-0.0814971
-0.0570021
0.000277097
-0.0136302
-0.00126921
-0.0499677
-0.0108525
-0.00697538
-0.0801293
-0.0234338
-0.0171466
0.00176381
-0.0296254
0.000616541
-0.0626978
-0.0839019
-0.0137415
0.00293256
-0.0326374
-0.0144922
-0.00350831
-0.0163852
0.000374592
-0.107613
-0.0220828
-0.0827096
-0.0109444
-0.0167507
-0.0189845
-0.0825557
0.00354836
-0.0423629
-0.108329
-0.00554804
0.0359904
-0.0797604
-0.000966188
-0.000828745
-0.0316246
-0.06705
-0.12072
-0.00938428
-0.00079534
-0.0115593
-0.00307968
0.00865407
-0.0152832
-0.0929224
-0.00597837
-0.0294731
-0.0226564
-0.0095457
-0.0195921
-0.0493272
-0.00214808
-0.0696047
0.00255921
-0.000839409
-0.0248327
-0.0801106
-0.0162561
-0.0496416
-0.0782381
-0.0866277
-0.00107906
-0.0172468
-0.0301086
-0.0870286
-0.0868393
-0.0155568
-0.0801921
-0.0287605
-0.00268409
-0.00966741
-0.105383
-0.0130134
0.00160413
-0.104422
-0.00672778
-0.0209188
-0.00417998
-0.129683
-0.0093186
-0.0251433
4.70031e-05
0.0166059
-0.0279711
-0.00862378
-0.0431441
-0.110247
-0.0111159
-0.014046
0.014064
5.66826e-05
-0.0172136
-0.0175496
-0.028466
-0.0479497
-0.0507363
0.00268937
-0.0843023
-0.0343379
-0.0330817
0.02312
-0.0210164
0.000340956
-0.0808563
-0.0813269
-0.0496128
-0.0116033
-0.0687576
-0.0794707
-0.0183096
-0.00896511
0.000528466
0.0353946
-0.0786001
0.0161061
-0.0841876
-0.00485299
-0.0672973
-0.0075645
-0.0823491
0.000555746
-0.00339631
-0.0126325
-0.0149396
-0.0845946
-0.0806073
-0.0715819
-0.0260441
0.000423073
0.0183582
0.00157148
0.0010155
-0.0791245
0.000113836
-0.0482315
-0.0138422
-0.0274177
-0.00811191
-0.00973862
-0.00308882
0.0020543
0.00503985
-0.0127208
-0.0776594
-0.00360993
-0.00169639
0.0252642
-0.000818602
-0.0150914
-0.0155063
-0.0281757
-0.0271922
-0.00361451
-0.00493651
-0.0668194
-0.000338186
0.00064076
-0.00424863
-0.0225218
0.000630439
-0.0847476
-0.0174653
-0.00612841
-0.071651
-0.0419779
0.0205972
-0.0846508
-0.0746785
0.000398656
-0.0192214
-0.0193758
-0.0280879
0.00187219
0.000738958
-0.0408348
-0.0660348
-0.0805042
-0.074528
-0.0186091
-0.124882
0.00643001
-0.0291347
0.00117175
-0.0853052
-0.0159412
-0.0369661
-0.0148587
-0.0814855
-0.0973365
-0.00475336
0.000714982
-0.0269115
0.00154537
-0.02256
-0.0550456
-0.00717214
0.000618121
-0.0628558
-0.082042
-0.000558669
-0.0376769
-0.0431742
-0.0882341
5.92658e-05
-0.101213
-0.0645748
0.00194424
-0.00101784
-0.0722299
-0.00979739
0.00101601
-0.00657605
-0.00475333
-0.0340741
0.000400396
-0.00316003
-0.0835782
-0.113292
-0.130817
0.000583389
-0.081749
-0.0171379
-0.0245757
0.000876091
-0.0149974
-0.031802
-0.000584028
-0.091174
-0.0361538
-0.00904937
-0.0945079
-0.105534
-0.0226488
-0.0673713
-0.101979
-0.0869932
-0.00243603
-0.116496
0.000587265
0.000337754
-0.0139734
0.00116668
0.000942098
-0.0805457
0.00177794
0.0025359
0.00255627
-0.0668879
-0.0933953
0.0173167
-0.000544188
-0.00831618
-0.0157021
-0.0956059
0.000479217
3.32955e-05
-0.00986499
0.0170861
-0.000739512
0.000874784
-0.0813835
-0.0477653
-0.0249996
0.000330296
0.00100781
-0.0242784
-0.0805496
0.000477876
-0.118639
-0.0543397
-0.0190961
-0.0830366
-0.113333
0.000652857
-0.07293
-0.018466
-0.129368
0.00114064
0.0271619
0.00307333
-0.0222212
-0.00580811
-0.0761176
0.000984013
0.000970544
0.00159467
-0.0686959
-0.0471471
-0.0656575
-0.101615
-0.018853
-0.0802912
-0.02685
-0.0377973
-0.0767137
-0.0834129
-0.000577065
-0.0894992
-0.0117903
-0.022983
0.000723489
-0.0772726
-0.0474404
-0.0348026
-0.022878
0.000661642
-0.0607662
0.00238265
-0.0171013
-0.0155107
0.00108426
-0.0847929
-0.0391034
-0.00417271
-0.0274371
-0.0264429
0.0171954
-0.0351472
-0.0497466
-0.0851214
-0.0127309
-0.0824301
-0.00811269
-0.0296179
0.00433678
-0.0835969
-0.0168136
0.00113517
-0.00169474
-0.0839217
0.00228409
0.000553823
0.00176791
-0.0205898
0.00084101
-0.0162763
-0.0874488
-0.0821292
-0.0834823
-0.0968228
-0.00445139
-0.0784563
-0.0864121
-0.0722609
-0.116202
-0.0866375
0.00177599
-0.0585998
-0.0360878
-0.0491559
-0.0808649
-0.0435936
0.00100464
-0.100618
-0.00336338
-0.0166741
0.0100795
-0.0991871
-0.0808159
-0.0782494
-0.0150187
-0.0220529
-0.00827756
-0.0834711
-0.11633
-0.00994122
-0.0665171
-0.0134812
-0.0179032
-0.0151673
-0.0816453
-0.0483221
-0.0156257
-0.0174413
-0.0332219
-0.00744761
0.0050464
-0.0276183
0.000612008
-0.0143961
0.00233621
-0.0344641
-0.0038331
-0.0250549
-0.0186747
-0.0105312
-0.0920991
-0.0858485
-0.0053908
0.0166196
-0.0151956
-0.0361841
0.000105431
0.00108803
-0.0181826
0.000435439
0.0022828
-0.00578662
0.000293919
-0.010642
0.00399086
0.0204466
-0.086694
-0.0182396
-0.00984501
-0.0846597
-0.0180444
-0.036368
0.000357105
-0.018085
-0.00386736
-0.0148584
-0.000761805
-0.0258434
-0.0147411
-0.0887695
0.00431847
-0.0201746
-0.0216777
0.00068432
-0.00792956
-0.00583019
-0.00845251
-0.0554837
-0.116805
0.00189139
-0.0231467
-0.014726
-0.0185166
-0.00201888
-0.0217668
-0.00692852
-0.00460235
-0.0750307
0.00120695
-0.0478703
-0.0899512
0.00221844
-0.00600427
-0.00355063
-0.0391099
0.0116205
-0.00215979
-0.0119915
-0.0791292
0.00232388
0.00118339
-0.0888827
0.000593486
0.000608685
0.000547673
0.000613671
-0.000776765
0.000711053
0.00161121
-0.0605391
0.00223763
-0.0262732
-0.0249232
0.000789056
0.00295894
-0.0457169
-0.0966564
-0.109132
-0.0402848
0.0114454
-0.0835678
-0.0692675
0.00262565
-0.0271837
0.00093696
-0.0133201
-0.00340754
-0.02362
0.00435323
0.000846895
-0.0220989
-0.015814
-0.000407649
0.00133958
-0.0149896
5.79076e-06
0.000869202
-0.000464486
-0.0848848
-0.0746479
-0.00543313
-0.0134214
0.000702071
-0.0617881
-0.106516
-0.0863544
-0.0166722
-0.080082
-0.00299243
-0.0807631
-0.0781437
0.0119502
-0.00744168
-0.0135522
4.35867e-05
-0.00513461
-0.00439672
-0.00331872
-0.0233609
-0.0895864
-0.0573129
-0.0825393
-0.000460552
0.00105189
-0.0793522
-0.0134846
0.000577821
0.00133866
0.000558312
-0.0265337
-0.006768
0.0101831
-0.00541373
-0.0805913
-0.0420505
-0.0932257
-0.023685
-0.0858915
-0.0802797
-0.00798572
0.000596681
-0.00353832
-0.0118357
0.000664266
-0.00757108
-0.0875354
-0.0799527
-0.0151284
-0.0167134
0.00178365
-0.0203636
0.00612923
0.000579987
-0.00104148
-0.0701158
9.97225e-05
-0.00588407
-0.0193854
0.00540892
-0.0228715
-0.0787547
-0.102299
-0.00720255
-0.0842137
-0.0610165
-0.0799479
0.000641235
-0.0135824
-0.00109114
-0.0180449
-0.0870958
0.000606529
-0.070583
0.00124698
-0.00150818
-0.017262
-0.0828571
-0.0497328
-0.055158
-0.00899399
0.000232174
-0.00288746
-0.0689922
-0.0105776
0.00094857
0.0011785
-0.0102481
0.00640196
0.000223061
0.000501143
-0.0806846
-0.0815721
-0.08304
-0.0201651
-0.0547847
-0.0857515
-0.0707193
-0.0809846
-0.0281276
0.000585801
0.00050394
0.000278004
-0.00841089
-0.0835512
-0.0841413
0.000847446
-0.0680074
-0.0804245
-0.0537301
0.00123284
-0.0137714
-0.00509256
-0.0783846
-0.0868568
-0.00503627
-0.0852126
0.000247428
-0.0538222
-0.0401882
-0.00116335
-0.0806665
-0.0151964
-0.0754994
-0.0750771
-0.00884748
-0.0996966
-0.00700754
2.67813e-05
-0.0797641
-0.0805787
-0.0713331
-0.0202381
-0.0924119
-0.0784381
-0.0791781
-0.0823044
-0.0903837
-0.0674792
-0.0182909
-0.0164614
0.00184292
-0.0501846
-0.0797446
-0.00563239
-0.0794461
-0.00040362
-0.0180907
-0.00338249
-0.000284662
-0.0849846
-0.0158842
-0.0707728
-0.0858558
-0.0160396
-0.0129911
0.0137906
-0.0808136
-0.0115179
-0.00160781
-0.00429871
-0.000932647
-0.0831185
0.0012278
0.000995817
-0.0428382
-0.0284006
-0.0801324
-0.0325823
-0.0108971
-0.0253337
0.000657167
0.00951348
-0.0169513
-0.0687715
0.00219567
-0.000810803
-0.078781
-0.0441236
0.0013978
-0.0636904
-0.0723695
-0.0153751
0.016804
-0.0229874
-0.0808076
-0.00115611
0.00085947
-0.078589
-0.0177409
-0.0819888
-0.0833307
-0.057052
0.00839975
0.001458
-0.0183779
0.00497009
-0.0418694
-0.0013812
-0.080908
-0.066569
-0.00350469
0.000228569
-0.025087
-0.0147772
-0.0907202
-0.0588091
0.00026653
-0.0802455
-0.0667607
-0.0236748
-0.000666094
-0.0816764
-0.0780447
-0.0830192
-0.0170744
0.000831654
-0.0456567
-0.0141743
-0.0111415
-0.00143053
-0.0116405
0.000107113
0.00764492
-0.00069017
0.000194682
-0.011035
-0.0709495
-0.0785002
-0.0189144
-0.0840604
-0.0845339
0.000341706
-0.079815
-0.0792973
-0.0798477
0.000261942
-0.0114395
-0.0797572
-0.127532
-0.0740941
-0.0374864
0.00024147
-0.0813282
-0.067278
-0.0682817
-0.000528232
-0.0517422
-0.0650751
-0.0149122
-0.0671617
-0.084023
0.000218118
-0.11686
-0.0815593
-0.00987291
-0.00102489
0.00452432
-0.0151182
-0.00391744
0.000558766
-0.000353143
-0.0812799
-0.0779617
0.00200405
-0.0476461
-0.000441525
-0.0163035
-0.0979912
-0.0810028
-0.0971331
-0.0492972
-0.0816928
0.000782346
0.000487774
-0.0409862
-0.0870629
-0.0812465
-0.048403
-0.0780086
-0.0278183
-0.000100727
-0.0149846
-0.0277397
-0.041577
-0.0861685
-0.08016
-0.0240369
-0.0850067
-0.0928965
-0.00418769
-0.113931
-0.0173776
-0.0320762
0.00202123
-0.017293
0.00111282
-0.030376
-0.0315205
-0.0186993
-0.0803611
0.000607027
-0.0650174
-0.0253705
-0.018594
-0.0786245
-0.00807085
-0.0815722
-0.000478261
-0.0749968
-0.0816292
-0.0712021
-0.0770641
0.00109634
-0.0107344
-0.0806521
-0.081125
0.000489371
-0.0242174
0.000859527
-0.00125704
-0.0139155
-0.0271399
-0.0810377
-0.0844083
-0.0124475
-0.133364
-0.0276546
0.000662635
-0.00324823
-0.0159744
-0.00513463
-0.0454849
-0.0809327
-0.0805041
-0.0726336
0.00436103
-0.00770534
-0.0254853
-0.00108387
-0.0805107
0.013875
-0.000646002
-0.0139558
-0.0512154
-0.02319
-0.0788797
-0.0217819
-0.114688
-0.0185063
-0.0797131
-0.0723478
-0.0804764
-0.00616302
0.000590052
-0.0234888
-0.0167168
-0.075951
-0.0925818
-0.0292977
-0.0273923
-0.0690367
-0.0305435
-0.0230593
-0.0160519
0.00556051
-0.00476955
-0.07802
-0.0103123
-0.0310998
-0.021656
-0.0266409
-0.0201274
-0.0668772
-0.0743508
-0.0096528
-0.0159331
-0.0374009
-0.00789662
0.00137551
-0.0158909
-0.0356743
0.0023999
-0.132045
-0.0153288
-0.0797533
-0.0176641
-0.00114611
-0.0135821
-0.0804639
-0.0080597
-0.0795043
-0.0929429
-0.0229896
0.00229727
-0.0720248
0.00592176
-0.0762928
0.00822863
-0.00613119
-0.0650409
0.000979678
-0.0787184
-0.00142987
-0.00521844
0.000649985
-0.00690325
-0.0393946
-0.017634
-0.0649109
-0.0627919
-0.0180897
-0.00456835
-0.0689257
-0.0838226
0.0242447
-0.0452973
0.000430449
0.0025118
-0.0448698
-0.0673799
0.0138291
-0.0665584
-0.0232648
0.000673522
-0.0132457
-0.000479515
-0.00377085
-0.0084245
-0.0791089
0.00306945
-0.00216914
-0.00274238
-0.0850306
-0.0786383
-0.0411605
0.00467105
-0.0665226
-0.0772796
-0.136411
0.00553472
-0.0279143
-0.0643075
-0.0249133
0.00174151
-0.0737161
-0.0785165
-0.00908636
-0.00477339
-0.0799064
-0.0160521
-0.00715333
-0.013133
-0.0443521
0.000619125
-0.0169597
0.0107396
-0.0201005
-0.0251066
-0.00347797
-0.00369439
-0.0220159
-0.0904609
-0.00319394
-0.0241306
-0.0753895
0.000672569
0.0011245
-0.0791631
-0.0295057
-0.0546331
-0.0159925
-0.0284448
-0.014588
0.000588128
-0.00236014
0.0120587
-0.0290283
-0.0786767
-0.0705235
-0.035948
-0.0812623
-0.0160622
-0.0265893
-0.00433926
-0.0048294
-0.0524932
-0.0323703
0.000321934
-0.0463337
-0.00752754
-0.0172665
-0.0314857
0.00195412
0.000768035
0.032489
-0.0138645
0.011986
0.00106035
-0.0363207
0.000653946
-0.0160481
-0.0451832
-0.07912
-0.0147318
-0.0802296
-0.0181525
-0.0804844
-0.00159018
-0.0547169
-0.0426656
-0.00898486
-0.00906368
-0.0203095
-0.0470939
0.0107534
0.00109573
-0.04878
-0.0790903
-0.0406558
-0.00191263
0.0101404
-0.033196
0.012733
-0.000989071
0.00138349
-0.000362314
0.0116667
-0.00401265
-0.00703128
-0.0214991
-0.080856
-0.0155949
-0.0834176
-0.00350764
0.0309295
-0.0168052
-0.0341659
-0.0166282
-0.00162451
-0.0127179
0.0122978
-0.00333337
-0.127373
-0.0296023
-0.0843705
0.00100979
-0.0115115
-0.0460008
-0.073515
-0.0238368
-0.0574561
-0.0298031
-0.0140902
-0.0150691
-0.00449167
-0.0755098
-0.07934
0.00203916
-0.0135239
-0.0265119
-0.0108486
-0.00156303
-0.0694918
0.00172304
-0.12061
-0.0715286
-0.0633199
0.0115766
0.00100964
0.0303132
-0.0650962
-0.0212902
-0.0102643
-0.00831065
-0.00669316
-0.00625245
0.0050127
0.00365545
-0.0790265
-0.00769435
-0.00693135
-0.0828671
-0.0434883
-0.0254537
0.00282675
-0.0122035
0.000891143
-0.0134748
-0.0809878
-0.000181501
-0.0258307
-0.0852309