/*--------------------------------*- C++ -*----------------------------------*\
| =========                 |                                                 |
| \\      /  F ield         | OpenFOAM: The Open Source CFD Toolbox           |
|  \\    /   O peration     | Version:  v2012                                 |
|   \\  /    A nd           | Website:  www.openfoam.com                      |
|    \\/     M anipulation  |                                                 |
\*---------------------------------------------------------------------------*/
FoamFile
{
    version     2.0;
    format      ascii;
    class       surfaceVectorField;
    location    "900";
    object      Uf_0;
}
// * * * * * * * * * * * * * * * * * * * * * * * * * * * * * * * * * * * * * //

dimensions      [0 1 -1 0 0 0 0];


internalField   nonuniform List<vector> 
20537
(
(1.01611 -0.0126916 1.25547e-23)
(1.01574 -0.012428 5.927e-23)
(1.01587 -0.0130795 4.69551e-23)
(0.540383 -0.0521745 1.12727e-20)
(0.544503 -0.0629842 4.28582e-22)
(0.54647 -0.0321356 -1.58037e-20)
(1.04752 -0.0522207 -2.70724e-22)
(1.04747 -0.0518839 3.4329e-22)
(1.04715 -0.0520105 -6.5986e-21)
(1.01561 -0.0114526 -4.09289e-23)
(1.01558 -0.0118614 1.3792e-22)
(1.01533 -0.0112586 -3.46946e-23)
(1.05903 -0.0606889 0)
(1.05761 -0.0603438 -6.2028e-21)
(1.05861 -0.0593356 1.07015e-20)
(0.996253 0.0347654 -8.13256e-22)
(0.991594 0.0252303 -3.59586e-21)
(0.999892 0.0259871 1.2121e-21)
(1.0316 -0.00258997 -1.59104e-21)
(1.03224 -0.00284423 0)
(1.03208 -0.00231918 -5.04046e-21)
(1.0482 -0.0471729 4.30554e-22)
(1.04873 -0.046531 0)
(1.04911 -0.0475424 7.87174e-21)
(1.00793 -0.00120015 1.09996e-23)
(1.00812 -0.00123062 9.40967e-24)
(1.00791 -0.00115891 4.9951e-23)
(1.0498 -0.0605716 -6.00415e-22)
(1.04744 -0.060905 -2.37814e-21)
(1.0481 -0.0587428 2.04442e-22)
(0.978611 -0.0546269 0)
(0.969399 -0.0399172 1.25838e-21)
(0.986228 -0.0274505 0)
(0.56937 -0.0184827 1.33028e-21)
(0.534646 -0.00438859 2.18583e-21)
(0.495531 0.00265301 -4.94672e-21)
(0.94914 -0.0993721 -3.04676e-21)
(0.990796 -0.0974512 -9.16375e-21)
(0.958285 -0.0973413 -7.78424e-21)
(0.157296 -0.0349729 -1.25326e-20)
(0.188275 -0.00678804 2.16547e-22)
(0.0981901 -0.0352832 -3.10464e-20)
(1.01974 -0.000654238 1.2144e-21)
(1.01981 -0.000592511 1.26868e-21)
(1.01989 -0.000715145 -2.40747e-21)
(1.03319 -0.0388982 6.44167e-22)
(1.03437 -0.0392234 -2.40577e-21)
(1.03353 -0.040307 -1.98437e-21)
(1.04219 -0.0269192 4.02663e-21)
(1.0413 -0.0263844 6.16983e-21)
(1.04224 -0.0260841 -4.28936e-22)
(1.02184 -0.0178493 1.77262e-22)
(1.02167 -0.0181119 2.19937e-22)
(1.02162 -0.0177974 4.18328e-23)
(1.05108 -0.0965503 -9.20128e-21)
(1.04751 -0.0957292 -7.24049e-21)
(1.05388 -0.092343 -1.27145e-20)
(1.00773 -0.00117538 8.14479e-25)
(1.00794 -0.00124643 3.16758e-24)
(1.01555 -0.0109511 3.20196e-23)
(1.01589 -0.0115154 7.80342e-23)
(1.04819 -0.052577 -1.36215e-21)
(1.04754 -0.0529242 -9.68518e-22)
(1.00166 3.4749e-05 0)
(1.00202 6.28476e-05 0)
(1.00248 9.08679e-05 -1.23713e-22)
(1.00282 -0.000128315 -4.1861e-22)
(1.00138 -2.77533e-05 -5.69166e-23)
(1.00295 -0.000130347 2.4976e-22)
(1.00134 1.75502e-05 0)
(1.0009 -1.79653e-05 0)
(1.04733 -0.0471026 4.04661e-21)
(1.04782 -0.0480254 4.46842e-21)
(1.05265 -0.0204826 1.4434e-20)
(1.05218 -0.0196719 5.60408e-22)
(1.05164 -0.0203365 8.26112e-21)
(0.00357798 -0.0492999 -7.40304e-21)
(0.00667284 -0.056391 1.98262e-20)
(1.01639 -0.0124996 0)
(1.01651 -0.0131411 2.42533e-22)
(1.02429 -0.0201498 -7.38516e-22)
(1.0246 -0.0207052 -9.67528e-22)
(1.02406 -0.0204351 -4.00111e-22)
(1.00185 0.0425883 -1.72764e-21)
(0.987915 0.0458938 -1.60802e-21)
(1.04203 -0.0278874 0)
(1.04311 -0.0275832 -8.4167e-22)
(1.04757 -0.0517821 -2.07694e-21)
(1.04744 -0.0516933 3.8141e-21)
(0.857134 0.00846307 -1.82924e-20)
(0.860021 -0.0237562 9.38996e-21)
(0.85873 -0.00726612 2.09194e-21)
(1.00272 -9.29014e-05 2.84211e-22)
(1.00403 -0.000194601 8.48491e-23)
(1.09444 -0.0624303 5.78135e-21)
(1.09483 -0.062207 1.5421e-20)
(1.09316 -0.0629872 9.07054e-21)
(1.08898 -0.0643578 -3.25754e-20)
(1.10424 -0.0646174 -1.44953e-20)
(1.10539 -0.0646743 3.96797e-21)
(1.02848 -0.0618108 -2.70548e-21)
(1.02774 -0.0657794 -2.04304e-21)
(1.03154 -0.0629277 4.34946e-21)
(1.05133 -0.0617632 -9.71366e-23)
(1.05161 -0.0591184 -5.66919e-22)
(0.860429 0.0290873 -3.54793e-21)
(0.859666 0.0505087 6.79294e-21)
(1.0154 -0.00761849 -6.49884e-22)
(1.01539 -0.00773646 -2.81306e-23)
(1.01567 -0.00788266 -1.43269e-21)
(1.00733 0.000590868 -2.88389e-23)
(1.00724 0.00056925 -2.8298e-23)
(1.00707 0.000553595 -4.61633e-24)
(0.00839147 0.0918417 1.62695e-20)
(0.0171473 0.0825482 -3.85944e-20)
(0.0141392 0.0860225 -1.40073e-20)
(0.929972 -0.00354491 -3.4232e-21)
(0.934965 0.0292791 3.71752e-21)
(0.946085 0.00409926 -4.03297e-21)
(0.92489 -0.0361568 -2.71713e-21)
(0.916093 -0.0115686 -3.38778e-21)
(0.125255 -0.149126 -2.08268e-20)
(0.195879 -0.149226 1.27824e-20)
(0.208241 -0.167158 -1.67475e-20)
(0.895564 0.0609885 -1.23248e-21)
(0.900196 0.0387751 2.00188e-21)
(0.893635 0.0309673 3.25868e-21)
(0.95298 -0.160097 -1.79941e-21)
(0.950126 -0.177235 3.77877e-22)
(0.933368 -0.17084 3.34588e-21)
(1.05305 -0.0213227 -2.95545e-21)
(1.05362 -0.0206059 1.75736e-20)
(1.03137 0.0278812 1.14916e-22)
(1.03232 0.0217949 3.30594e-22)
(1.02595 0.0274072 4.39577e-22)
(1.07377 -0.0569806 -3.21071e-21)
(1.07466 -0.0578723 -2.36326e-20)
(1.07491 -0.0564821 4.40037e-21)
(1.0735 -0.0723246 -1.39037e-20)
(1.07425 -0.0711499 -6.99027e-21)
(1.07539 -0.0726771 -1.10105e-20)
(-0.0271048 -0.0339365 3.67264e-21)
(-0.022618 -0.025501 1.78061e-21)
(-0.018486 -0.0352077 -1.44409e-20)
(1.0194 -0.000611695 -6.38579e-22)
(1.01896 -0.000371019 -2.67433e-21)
(1.01948 -0.000670434 1.48231e-21)
(1.01093 -0.000810719 -3.74685e-22)
(1.01088 -0.000778395 -1.18772e-21)
(1.01188 -0.000940791 3.85256e-21)
(1.00743 0.000612936 0)
(1.0076 0.000631829 3.51028e-23)
(1.0033 -2.33245e-05 -2.37186e-23)
(1.0038 -2.6082e-05 9.14186e-23)
(1.0029 -8.35775e-06 2.23031e-23)
(-0.0281977 -0.0557133 1.65387e-20)
(-0.0309014 -0.0580991 -1.98054e-21)
(-0.0189954 -0.0589175 2.99443e-20)
(1.02451 -0.0197262 -1.55353e-21)
(1.02392 -0.0195825 -1.33378e-21)
(1.03281 -0.0056157 0)
(1.03228 -0.00527686 0)
(1.03296 -0.00513222 -5.33911e-21)
(1.02899 -0.060073 0)
(1.02834 -0.0581961 0)
(0.434342 -0.106745 1.24739e-21)
(0.433851 -0.114602 4.38702e-22)
(0.390042 -0.112081 -5.90758e-21)
(1.0407 -0.0156436 -2.44191e-22)
(1.0423 -0.020141 -9.96072e-22)
(1.03788 -0.0189042 1.103e-21)
(1.06112 -0.0642316 0)
(1.0596 -0.0639033 -6.30612e-21)
(1.0601 -0.0653988 0)
(0.93444 -0.0204787 -1.43919e-21)
(0.942026 -0.0109554 -4.46494e-21)
(0.94837 -0.0230479 -1.46765e-21)
(1.01421 -0.0134421 -7.86912e-23)
(1.01426 -0.0126424 4.15568e-23)
(1.01369 -0.0128202 -1.85399e-22)
(1.06506 -0.0653495 5.59801e-21)
(1.06869 -0.0645052 -5.07781e-21)
(0.895732 0.0971839 -3.86559e-21)
(0.894015 0.0797314 8.12824e-21)
(1.0647 -0.0369238 -4.53443e-22)
(1.06365 -0.0372378 -4.45266e-22)
(1.06374 -0.0360702 1.59854e-20)
(1.02188 -0.0178733 -3.11908e-22)
(1.02212 -0.0175947 7.90034e-23)
(0.307896 -0.00819394 5.88775e-21)
(0.297671 -0.00729524 -6.02428e-22)
(0.275226 -0.00377837 -2.05216e-20)
(0.98831 -0.064252 5.2455e-22)
(0.986132 -0.0647965 8.05015e-21)
(1.02786 -0.0648644 8.32899e-21)
(0.563871 -0.0271383 -1.52292e-20)
(0.541478 -0.0645462 1.1655e-20)
(1.01959 -0.000599287 2.34653e-21)
(1.01926 -0.000605573 -7.62783e-22)
(1.01163 -0.00121921 -8.49013e-22)
(1.01188 -0.00136935 -2.10768e-21)
(1.01166 -0.00143766 2.42582e-22)
(1.01 -0.00162648 -2.94374e-23)
(1.01001 -0.00157643 0)
(1.00978 -0.00155933 0)
(1.04858 -0.0527808 4.54199e-23)
(1.04841 -0.0522722 -1.88226e-21)
(0.420438 -0.0126681 -1.62717e-20)
(0.440606 -0.016553 2.08212e-20)
(0.424218 -0.0117354 8.77721e-21)
(1.05928 -0.0472142 -8.71075e-21)
(1.05992 -0.0482503 7.71207e-21)
(1.05869 -0.0482462 -8.42204e-21)
(0.287776 -0.00906821 -2.08004e-21)
(0.261261 -0.0075556 -1.32161e-20)
(1.03609 -0.00977719 -7.09723e-22)
(1.03529 -0.00971538 4.26901e-23)
(1.0355 -0.00912541 2.10852e-21)
(0.897748 0.00608689 4.91779e-22)
(0.894872 -0.000882391 -7.21408e-22)
(0.897495 -0.0207553 -1.29284e-21)
(1.02171 -0.00500975 -2.59273e-21)
(1.02191 -0.00530359 -3.77083e-21)
(1.02144 -0.00514333 1.40087e-21)
(0.142656 -0.0845526 1.09871e-20)
(0.204388 -0.0839212 -1.68566e-20)
(0.10406 -0.0400221 9.89224e-21)
(1.03826 -0.0123675 0)
(1.04374 -0.0121959 4.06163e-22)
(0.598446 -0.0333165 0)
(0.640546 -0.0386119 2.43067e-21)
(1.0161 0.0174274 1.16478e-21)
(1.01189 0.0207726 6.26758e-22)
(1.01101 0.014755 2.30424e-23)
(0.806992 -0.155362 1.9366e-22)
(0.870466 -0.145839 2.07767e-21)
(0.86609 -0.151254 4.69425e-22)
(1.04922 -0.0257759 -5.84823e-21)
(1.04839 -0.0262229 -2.63312e-21)
(1.04949 -0.0268896 1.17672e-21)
(1.01203 -0.000236302 7.55816e-23)
(1.01158 -0.000160765 0)
(1.01177 -0.000230653 1.88243e-22)
(1.09338 -0.0621408 -7.7471e-22)
(1.09415 -0.0629325 4.94924e-21)
(1.01488 -0.0178116 -3.4946e-22)
(1.01662 -0.0203938 -3.50232e-22)
(1.01296 -0.0193908 0)
(0.895714 0.113925 7.95861e-22)
(1.05294 -0.0302597 1.47485e-20)
(1.0526 -0.0309519 -2.07109e-21)
(1.05361 -0.0310221 4.27892e-21)
(1.04922 -0.0249865 -2.61944e-21)
(1.05027 -0.0254181 5.35269e-21)
(1.00157 8.08646e-06 2.92865e-23)
(1.00163 1.95949e-05 3.34538e-23)
(1.00253 -6.97834e-05 8.82777e-23)
(1.05917 -0.0624204 -7.18646e-21)
(1.06048 -0.0612929 0)
(0.628028 -0.100029 2.06049e-20)
(0.603087 -0.100942 0)
(0.610448 -0.0961395 -1.57206e-20)
(1.02552 0.0349331 -3.82703e-21)
(1.03543 0.0266124 2.45139e-23)
(1.0005 3.90192e-05 2.97928e-23)
(1.00148 -1.46357e-05 -3.79477e-22)
(-0.00327558 -0.136491 -5.06591e-21)
(0.0441138 -0.127006 -1.2974e-20)
(0.0142889 -0.136131 1.55463e-22)
(1.0656 -0.0493928 -6.73328e-22)
(1.06678 -0.0491933 6.20556e-21)
(1.06584 -0.0482361 1.73678e-20)
(1.01896 -0.0129375 -3.96034e-22)
(1.01925 -0.0133075 -2.09106e-23)
(1.01891 -0.0131256 0)
(1.0588 -0.0127416 1.83858e-21)
(1.05977 -0.0131379 3.70732e-21)
(1.00232 6.49452e-05 -1.28951e-23)
(1.00304 8.72881e-05 -2.44596e-23)
(1.00248 6.06018e-05 4.70948e-24)
(1.02915 0.0210153 -3.48515e-22)
(1.03527 0.0200918 -3.62727e-21)
(1.02964 0.0147039 2.02265e-21)
(1.06957 -0.0508799 1.47639e-21)
(1.06847 -0.0510875 -6.7036e-21)
(1.06931 -0.0521515 -1.42014e-20)
(1.00669 0.000525186 2.58941e-23)
(1.00661 0.000512461 1.01054e-23)
(1.00649 0.000484287 3.80994e-23)
(0.903187 -0.0620317 5.51797e-22)
(0.854934 -0.0610414 -9.18712e-21)
(0.983193 0.0249141 -9.59107e-21)
(0.988204 0.0172017 -4.31788e-21)
(1.00169 -4.78737e-05 6.80023e-23)
(1.00055 -4.57711e-06 -4.85697e-24)
(1.00161 -4.1872e-05 7.38834e-24)
(1.01248 -0.000335355 6.83728e-23)
(1.01229 -0.000178107 -1.81987e-23)
(1.01364 -0.0159727 -2.02005e-21)
(1.01643 -0.0164548 -3.16926e-22)
(1.00013 2.70753e-05 0)
(1.00014 -1.90598e-05 0)
(1.00268 -9.02543e-05 6.51054e-24)
(1.00161 -3.89689e-05 1.98586e-22)
(0.783967 -0.103985 1.13321e-20)
(0.764849 -0.133481 -2.07992e-21)
(0.657107 -0.0983005 6.97689e-21)
(0.65082 -0.102853 3.03839e-20)
(1.00592 0.000318008 7.57274e-23)
(1.00595 0.000335022 -5.13494e-23)
(1.00598 0.000347258 1.46035e-22)
(1.00509 -0.000339654 -4.35299e-22)
(1.00491 -0.000330762 -5.26894e-22)
(1.00295 -0.000167669 -1.4924e-21)
(1.01031 -0.00069423 -6.12826e-22)
(1.00896 -0.000612553 2.19793e-22)
(1.00854 -0.000497936 -1.39988e-21)
(-6.72286e-05 0.0943469 -3.0897e-21)
(0.00252825 0.109648 5.61538e-20)
(1.05813 -0.013743 1.6901e-20)
(1.05754 -0.012552 3.97571e-21)
(0.942299 -0.101243 6.85984e-21)
(0.904613 -0.100972 9.5026e-21)
(0.855752 -0.153883 -3.64245e-21)
(0.952257 -0.137537 -2.00743e-21)
(0.973256 -0.147256 3.95206e-21)
(1.01563 -0.000939067 2.88881e-23)
(1.01492 -0.000936487 -7.11253e-23)
(1.01554 -0.00162167 -1.60877e-22)
(0.947982 -0.113055 -3.26334e-22)
(0.932642 -0.124729 1.59188e-22)
(1.0621 -0.0481862 -3.93737e-21)
(1.06305 -0.0483018 6.93478e-21)
(1.06238 -0.0492841 -7.72976e-21)
(1.01556 -0.0105417 2.50451e-22)
(1.01533 -0.0103748 -3.04559e-22)
(1.04947 -0.0712831 1.28227e-20)
(1.05097 -0.070666 -9.28025e-23)
(1.05082 -0.0733689 5.01457e-21)
(1.01514 -0.00734589 2.26595e-22)
(1.01541 -0.00748176 -5.2604e-22)
(1.00729 -0.00137728 5.348e-22)
(1.00746 -0.00148094 5.63092e-22)
(1.00737 -0.00140315 -2.5535e-22)
(0.317131 -0.0103194 0)
(0.329154 -0.0136342 6.63246e-23)
(1.02192 -0.00481485 4.17307e-23)
(1.02144 -0.00466809 -7.98587e-22)
(0.796374 -0.0621126 1.81015e-20)
(1.00724 -0.000672828 0)
(1.00711 -0.000636011 -4.70646e-22)
(1.00676 -0.000541594 -8.65553e-22)
(1.0059 0.000293811 0)
(1.00586 0.000281576 0)
(0.994703 -0.0642544 -9.09577e-21)
(1.00124 -0.0649127 -2.07055e-21)
(1.03591 -0.0657112 9.4548e-21)
(0.0184116 -0.0110327 4.12417e-22)
(0.00647041 -0.00458466 -3.4986e-21)
(0.0250472 0.0130455 9.61655e-21)
(0.334406 0.158101 -1.05388e-21)
(0.386221 0.159522 5.66852e-21)
(0.332015 0.160538 5.31618e-21)
(-0.0177496 -0.137009 2.45389e-21)
(-0.0400179 -0.145056 -1.84752e-20)
(1.01125 -0.000968778 -2.58103e-22)
(1.00949 -0.000493815 -7.26486e-22)
(1.01471 -0.00354914 -3.8538e-22)
(1.01529 -0.00375606 2.93079e-22)
(1.015 -0.00402916 1.31082e-22)
(1.00978 0.000828472 -2.40499e-22)
(1.0096 0.000781505 -1.52283e-22)
(1.00991 0.000829863 -1.27672e-23)
(1.03406 -0.0211538 2.02063e-21)
(1.03459 -0.0219085 -3.53836e-21)
(1.03471 -0.0209994 2.60025e-21)
(0.92256 0.0524941 -8.84621e-22)
(0.937064 0.0576201 9.12177e-22)
(1.00786 0.0043876 -3.16299e-21)
(1.00917 0.00585247 2.69064e-23)
(1.00976 0.00350169 1.71437e-21)
(1.04731 -0.0721437 4.53095e-21)
(1.04761 -0.0693077 1.46803e-21)
(1.0309 -0.00227178 2.89949e-21)
(1.03099 -0.00278091 -3.34421e-21)
(0.933859 -0.0594941 -4.29216e-22)
(0.920966 -0.0673492 -7.65863e-22)
(1.08914 -0.0510578 -7.30171e-21)
(1.08893 -0.0520772 4.26398e-22)
(1.00921 -0.000725413 5.2372e-22)
(1.00952 -0.000721697 7.97525e-22)
(1.01046 -0.000811881 0)
(0.111063 -0.0631469 -1.53018e-21)
(0.210075 -0.0379936 0)
(1.00285 -1.77559e-05 -7.29032e-23)
(1.00367 -4.5713e-05 2.34819e-22)
(1.04183 -0.0178256 -8.01289e-21)
(1.04258 -0.017976 -1.30553e-22)
(1.04207 -0.0171256 -8.53983e-21)
(1.03339 -0.0214266 -5.48712e-22)
(1.03339 -0.0205159 2.07738e-21)
(1.01084 -0.00380406 3.27063e-24)
(1.01065 -0.00365631 9.95286e-23)
(1.01079 -0.00373475 1.02175e-22)
(1.02568 -0.0192513 1.90685e-21)
(1.02578 -0.0188132 8.07166e-22)
(1.02619 -0.0193522 -2.4429e-21)
(1.07387 -0.0743767 1.9137e-22)
(1.07183 -0.0726183 -1.27759e-20)
(1.07286 -0.0559407 -7.73922e-21)
(1.07256 -0.0573303 1.03579e-21)
(1.01001 0.00109211 2.57886e-25)
(1.00969 0.00104459 7.8189e-24)
(1.00992 0.00108575 -1.5624e-24)
(1.05998 -0.0274845 3.09283e-22)
(1.05977 -0.0282197 -3.9302e-21)
(1.06076 -0.0281117 -3.31938e-21)
(-0.023146 -0.0547474 1.89357e-20)
(-0.0331036 -0.0520201 6.6963e-21)
(1.00713 -0.00128195 3.92017e-22)
(1.00724 -0.00135105 1.31989e-22)
(1.02284 -0.0266981 -1.82689e-21)
(1.02389 -0.027368 7.48247e-22)
(1.0236 -0.0260675 -1.51814e-21)
(1.0085 0.000689953 5.1569e-23)
(1.00865 0.000704026 -1.43842e-22)
(1.00836 0.000659846 -7.95664e-23)
(1.00652 0.00193287 -3.5836e-22)
(1.00488 0.00516714 1.08618e-22)
(1.06563 -0.0377775 0)
(1.0657 -0.0365441 0)
(1.01573 -0.0105868 1.49685e-22)
(1.01549 -0.0101658 -5.26355e-23)
(0.498453 -0.135589 4.76939e-21)
(0.482665 -0.140035 2.464e-20)
(0.507542 -0.128272 1.79404e-20)
(0.394977 -0.00741395 -2.13777e-20)
(0.415661 -0.012443 -1.72372e-20)
(1.00541 -0.000326382 -6.64406e-23)
(1.0055 -0.000354512 -2.04493e-24)
(1.00554 -0.000341733 -1.15205e-22)
(1.01103 -0.0039626 -9.94084e-23)
(1.01089 -0.0038729 -1.03291e-22)
(0.29135 0.152775 -5.27016e-21)
(0.345086 0.155391 -5.85253e-21)
(1.00697 -0.00118729 1.14117e-22)
(1.00703 -0.00120473 2.85964e-22)
(0.940013 -0.182149 1.66203e-21)
(0.967891 -0.172882 5.08757e-21)
(1.06079 -0.0482601 1.19482e-20)
(1.0614 -0.047145 -4.49094e-21)
(1.01554 -0.00266685 1.74905e-22)
(1.01552 -0.00245897 -7.26215e-22)
(1.01617 -0.00261472 -2.29762e-22)
(1.02922 -0.0983708 4.38689e-21)
(1.05935 -0.0965072 1.2675e-20)
(1.00711 0.000605289 -8.96185e-24)
(1.0072 0.00062131 0)
(1.00737 0.000646338 -5.8537e-23)
(1.04274 -0.0293362 0)
(1.04194 -0.0287565 0)
(1.04185 -0.0296523 2.44942e-21)
(0.949665 -0.0636406 -1.85837e-20)
(1.02182 -0.00427196 0)
(1.02157 -0.00398804 0)
(1.0214 -0.00417997 9.01977e-22)
(1.04707 -0.0530684 6.24423e-22)
(1.04763 -0.0535152 -8.96477e-21)
(1.00595 0.000264637 1.13323e-22)
(1.00559 0.000225175 -3.22969e-23)
(1.00585 0.000246253 1.40094e-23)
(1.00161 -7.20624e-07 -8.43064e-23)
(1.00188 1.63044e-05 -6.25331e-23)
(1.00249 4.25874e-05 -9.90403e-23)
(1.01429 -0.0142206 -2.18392e-22)
(1.01483 -0.0139087 -1.2141e-22)
(1.01134 -0.00101396 9.25983e-22)
(1.01132 -0.00096334 6.55171e-22)
(1.05542 -0.0623481 8.17855e-22)
(1.05402 -0.0617373 3.68535e-22)
(1.05406 -0.0634516 -1.09997e-20)
(1.02028 -0.0724214 0)
(1.02183 -0.0766756 2.24402e-22)
(1.02469 -0.0726216 0)
(0.896786 0.0871955 2.8079e-21)
(-0.028196 -0.0417492 2.16327e-20)
(-0.0350081 -0.0337833 -5.82157e-21)
(1.01292 -0.000455128 -1.8625e-22)
(1.01327 -0.000352175 -2.86874e-22)
(1.01339 -0.000585175 -7.06443e-23)
(1.05978 -0.0386199 -1.15101e-20)
(1.06068 -0.0382213 -1.77549e-21)
(1.05979 -0.0375382 -1.74654e-21)
(0.434793 -0.0964449 1.63452e-22)
(0.479572 -0.100771 7.75374e-22)
(1.04012 -0.0173689 8.86871e-23)
(1.04092 -0.0176589 -8.9074e-21)
(1.04042 -0.0168564 3.26493e-21)
(1.01414 -0.00334714 -2.30672e-22)
(1.01432 -0.0032315 -2.45939e-22)
(0.887392 0.140403 1.77031e-21)
(0.89641 0.140333 0)
(0.888258 0.127477 -5.40554e-23)
(1.01554 -0.00296031 4.83703e-22)
(1.01498 -0.00272443 -9.62378e-23)
(1.00999 -0.00167445 -8.05441e-23)
(1.01022 -0.00169589 -3.33858e-24)
(1.01657 -0.000929198 4.07858e-23)
(1.01548 -0.000398208 7.47563e-23)
(0.272387 -0.189035 -1.15346e-20)
(0.319683 -0.183938 -9.30598e-22)
(0.336187 -0.18363 1.40253e-20)
(1.00199 -0.00012728 7.40605e-25)
(1.00401 -0.000192311 5.2787e-22)
(1.00157 -0.000146948 5.95293e-22)
(1.01813 -0.00599513 0)
(1.01779 -0.00572552 0)
(1.01788 -0.00605592 1.64619e-21)
(1.03293 -0.0648216 -9.52386e-23)
(1.03087 -0.0630734 3.79327e-22)
(1.03331 -0.0622403 -3.47554e-22)
(1.02227 -0.00434042 0)
(1.02209 -0.00457028 8.24454e-22)
(0.295683 0.0490381 1.84233e-21)
(0.22676 0.053781 -8.26861e-21)
(0.261603 0.0599706 2.05962e-21)
(1.04437 -0.0269311 0)
(1.04394 -0.0260363 0)
(1.04512 -0.026263 -5.12473e-21)
(0.449926 -0.0252899 -7.01736e-21)
(0.429895 -0.0216844 -2.0006e-21)
(0.447955 -0.0253748 -5.68769e-21)
(1.00824 0.000790114 1.05268e-23)
(1.00851 0.000832332 -3.22988e-24)
(1.0084 0.000815491 7.70034e-24)
(0.710903 -0.0563144 6.10083e-21)
(0.672599 -0.0538857 -5.90598e-21)
(0.68388 -0.0542785 1.18734e-20)
(1.01901 -0.0126946 3.98363e-22)
(1.01868 -0.0125197 -1.61183e-21)
(0.892342 0.153391 2.41765e-21)
(0.890513 0.154833 -1.67942e-21)
(0.893665 0.156017 0)
(1.00703 0.000586608 -3.65108e-24)
(1.00692 0.000569456 -1.746e-23)
(1.0068 0.000541052 -1.799e-23)
(1.00942 0.000807496 1.14639e-24)
(1.0096 0.000845761 4.16808e-23)
(1.00925 0.000790844 4.59647e-24)
(0.992957 -0.07204 -6.89731e-22)
(0.992909 -0.0737447 -6.36563e-22)
(1.00554 -0.0627585 -6.60348e-22)
(1.03529 -0.00596599 -2.11346e-22)
(1.03576 -0.00984047 5.54088e-22)
(1.0315 -0.00819548 -1.29479e-21)
(0.0398117 -0.119159 -6.93534e-22)
(0.0603342 -0.148801 -1.82218e-20)
(1.02009 -0.0015777 0)
(1.01995 -0.00138301 1.51077e-21)
(1.01982 -0.0015131 0)
(0.453647 -0.0255578 1.48573e-20)
(0.471879 -0.0288811 6.60623e-21)
(1.04385 -0.0274234 -7.49795e-22)
(1.04476 -0.0275509 0)
(1.03665 -0.0102862 4.09199e-21)
(1.03685 -0.00967743 -2.54163e-21)
(0.742908 -0.0738863 -1.11697e-20)
(0.716077 -0.073033 -3.4686e-22)
(0.714175 -0.070938 -1.18016e-21)
(1.0639 -0.0723768 5.04825e-21)
(1.06253 -0.0735905 5.59061e-21)
(1.06463 -0.0745129 3.93578e-21)
(0.611956 -0.0465517 1.01407e-20)
(0.583043 -0.0440491 0)
(0.582739 -0.0446693 0)
(1.00143 1.25525e-05 2.25594e-22)
(1.00144 8.18597e-06 -1.63575e-22)
(1.00066 2.59113e-05 1.86868e-22)
(1.05403 -0.0334615 -4.63599e-21)
(1.05489 -0.0342849 -4.74701e-21)
(1.05374 -0.0344921 1.78271e-21)
(1.00217 5.57134e-05 3.93314e-23)
(1.00158 1.86063e-05 -1.25732e-23)
(-0.0679394 -0.0201942 8.84876e-21)
(-0.0684157 -0.0110109 2.99347e-20)
(-0.0603614 -0.0154575 -7.54389e-21)
(1.00715 0.000603188 1.74863e-23)
(1.00728 0.000632455 1.69975e-23)
(1.04648 -0.0472239 -5.23119e-21)
(1.04668 -0.0464106 3.42788e-21)
(0.980742 0.0525742 -3.05072e-21)
(0.980053 0.045725 3.9625e-21)
(0.947279 0.0561741 0)
(1.0053 -0.000302961 5.91265e-23)
(1.00532 -0.00029556 -2.60412e-23)
(1.01258 -0.000445612 0)
(1.07661 -0.0533784 -1.98663e-20)
(1.07548 -0.0539641 0)
(1.07549 -0.0526398 1.00066e-20)
(1.01164 -0.0129445 -5.72459e-22)
(1.01314 -0.0148699 -4.7413e-22)
(1.01437 -0.0128894 -1.1306e-22)
(0.364752 0.0465005 0)
(0.328487 0.0375613 0)
(0.923526 -0.019151 3.57644e-21)
(0.930715 -0.0309675 5.14843e-21)
(1.0096 0.000822527 -5.2021e-23)
(1.00995 0.000882406 0)
(1.01833 -0.0059537 0)
(1.01842 -0.00624625 -1.88411e-21)
(1.01308 0.0392967 1.48024e-22)
(1.0079 0.0488324 1.51479e-21)
(1.03356 -0.00512158 5.93945e-22)
(1.03195 0.01614 -7.43292e-22)
(1.04214 -0.00982683 9.25563e-21)
(1.01219 0.00162901 4.1832e-24)
(1.01191 0.0015132 -2.55341e-23)
(1.01209 0.00147941 -3.24812e-23)
(1.03504 -0.0660729 1.43207e-21)
(1.03251 -0.0674678 1.0126e-21)
(1.00372 0.000120333 -1.44189e-23)
(1.00356 0.000111409 -2.47114e-23)
(0.550235 -0.0406665 6.92413e-21)
(0.526088 -0.0376152 0)
(0.545447 -0.0399319 9.49609e-21)
(1.06456 -0.0496964 -7.77978e-21)
(1.06542 -0.0506865 6.93763e-21)
(0.881271 0.117978 -1.07179e-21)
(0.874175 0.0861856 1.33517e-21)
(0.887505 0.101593 5.05904e-21)
(1.03283 -0.0216024 -4.34962e-22)
(1.03215 -0.0217159 2.07933e-21)
(1.03224 -0.0209032 -7.26174e-23)
(1.03547 -0.0293074 1.61108e-21)
(1.03552 -0.0282458 -5.06339e-21)
(1.03461 -0.0287021 -2.93937e-21)
(1.01182 0.00328531 -8.78799e-22)
(1.01039 0.00286643 -2.99628e-22)
(1.0115 0.00144581 -2.87847e-22)
(1.03368 -0.0269528 4.28357e-21)
(1.02088 0.00203364 1.73202e-23)
(1.03027 -0.0132674 -2.34781e-21)
(1.03058 -0.0137488 6.28562e-22)
(1.02991 -0.0135313 0)
(1.03342 -0.0222223 -2.20355e-21)
(1.07485 -0.046942 -7.23757e-21)
(1.07585 -0.0476479 -2.9784e-21)
(1.0744 -0.0480316 6.80934e-21)
(1.02395 -0.0952251 3.41564e-22)
(1.03845 -0.104625 2.29003e-21)
(1.03504 -0.0885781 2.60404e-22)
(1.01573 -0.0719573 0)
(1.01858 -0.0682517 0)
(0.962217 -0.0641914 0)
(1.00409 -0.0648618 -7.61075e-21)
(0.432602 -0.0132754 1.47674e-20)
(0.35171 -0.0028528 -2.71144e-20)
(0.32333 -0.0039794 1.54511e-20)
(1.0232 -0.00154102 3.51986e-22)
(1.02282 -0.00134572 -4.08365e-21)
(1.02283 -0.00160801 8.46478e-21)
(1.00926 0.000772381 -3.57278e-23)
(1.02188 -0.0178673 -2.4476e-22)
(1.02191 -0.0178084 0)
(1.0217 -0.0177969 -8.43524e-23)
(0.775461 0.0596768 -7.47577e-22)
(0.796813 0.048631 -1.68536e-21)
(0.769062 0.0311023 8.50622e-22)
(1.0115 0.000342774 1.49686e-22)
(1.0112 0.000361775 -6.97269e-23)
(1.01157 0.000289198 8.47135e-23)
(0.988462 -0.100019 9.96634e-21)
(0.991518 -0.0980423 1.51637e-21)
(0.94606 -0.101363 -3.57069e-22)
(1.03995 -0.0180521 2.46088e-22)
(1.03942 -0.0172496 2.83309e-21)
(1.03059 -0.0129932 -2.32926e-21)
(1.02993 -0.0127673 -1.05947e-23)
(1.05341 -0.0295789 9.68496e-21)
(1.05239 -0.0296513 7.61139e-21)
(0.772933 -0.0778137 -1.15619e-20)
(0.770188 -0.0752354 -4.31567e-22)
(1.01349 -0.0166112 1.96025e-23)
(1.01449 -0.0129472 0)
(1.01722 -0.0159659 -7.33053e-23)
(1.01279 0.0054287 -1.22638e-24)
(1.01331 0.00352445 4.20453e-22)
(1.04148 -0.0185339 -1.15879e-22)
(0.902824 0.0459852 -1.90861e-21)
(0.92889 0.0418747 2.15471e-21)
(0.896409 0.0315658 -1.61195e-21)
(1.05862 -0.0463236 0)
(1.05974 -0.046202 -1.02877e-21)
(1.03188 -0.0388482 -6.754e-22)
(1.03252 -0.0377216 -1.18831e-21)
(1.00761 -0.00158316 -1.14099e-22)
(1.00754 -0.00154316 2.81967e-22)
(0.897909 0.0313497 6.99353e-22)
(0.903609 0.00834427 1.10793e-21)
(1.00257 -0.0150294 1.43753e-22)
(1.00358 -0.020506 2.57095e-21)
(1.00762 -0.0173253 3.39971e-23)
(0.62201 -0.048863 9.58342e-21)
(0.591527 -0.0456926 2.25973e-23)
(0.589928 -0.0470164 -1.77455e-21)
(0.987787 -0.0635112 0)
(0.973495 -0.0761236 8.41579e-22)
(1.01243 0.00176776 -2.90821e-23)
(1.01231 0.00173364 -3.20071e-24)
(1.00794 0.000721792 0)
(1.0081 0.000762854 9.93298e-24)
(1.00819 0.000771314 5.76647e-24)
(1.00258 5.27314e-05 4.7018e-24)
(1.00276 6.67127e-05 -1.67174e-23)
(1.00333 0.000112844 -7.91672e-24)
(1.0753 -0.0460529 -3.50699e-21)
(1.07409 -0.0463407 -2.05369e-21)
(0.763057 0.0737568 -1.39028e-21)
(0.778507 0.0862875 8.8961e-21)
(0.926998 -0.167326 3.14242e-21)
(0.934231 -0.137072 1.87142e-21)
(0.905179 -0.139608 6.10769e-21)
(1.0089 -0.00147978 0)
(1.00911 -0.00149198 -1.56709e-23)
(1.00915 -0.00155506 2.85994e-23)
(1.0207 -0.000230506 0)
(1.02073 -0.000375562 -1.64219e-21)
(1.02092 -0.00027315 -5.26841e-21)
(0.870727 0.0517792 3.07203e-23)
(0.913125 0.0576814 1.0703e-20)
(0.89526 0.0329873 1.70086e-22)
(0.895761 0.0592879 -6.03968e-21)
(0.900734 0.0613717 2.58174e-22)
(1.04545 -0.0728734 -7.36109e-22)
(1.04729 -0.0748398 0)
(1.02459 -0.019376 1.9557e-21)
(1.02494 -0.0198812 -1.05415e-21)
(1.03335 -0.0059165 7.43142e-21)
(1.03267 -0.00598697 0)
(1.06335 -0.0394768 -1.17769e-22)
(1.06235 -0.0397699 -7.74659e-21)
(1.06324 -0.0406861 -7.25678e-21)
(0.893932 0.0110631 -8.23114e-23)
(0.898148 0.0176415 7.61035e-21)
(1.02184 -0.0997427 1.03683e-20)
(0.981142 -0.101589 -7.07804e-22)
(1.02544 -0.0276436 0)
(1.02562 -0.0271435 0)
(1.02618 -0.0278138 -6.67577e-22)
(0.585671 -0.0360507 -1.52923e-21)
(0.647114 -0.0440566 0)
(1.00784 -0.00174044 -2.0785e-23)
(1.0079 -0.00178239 1.77148e-23)
(1.00775 -0.00167097 -4.97808e-22)
(0.556161 -0.0411101 -1.2423e-20)
(0.577186 -0.0433682 1.33456e-21)
(1.05935 -0.0269446 -1.10531e-21)
(1.06032 -0.0267563 3.7509e-21)
(1.04052 -0.0258955 6.76146e-23)
(1.04047 -0.0266911 3.19522e-23)
(0.635061 -0.0505573 -1.56269e-21)
(0.598896 -0.0487168 1.04725e-20)
(0.609419 -0.0485765 2.04707e-21)
(1.02033 -0.0112899 -8.48471e-22)
(1.02012 -0.0113505 -1.91581e-21)
(1.02052 -0.0116009 1.82281e-21)
(1.02187 0.0200103 5.25424e-22)
(1.02608 0.027276 -1.6425e-21)
(0.625251 -0.0510269 1.07567e-20)
(0.625663 -0.0505053 -8.20542e-21)
(0.652205 -0.0540158 1.1299e-20)
(1.00869 -0.00141382 0)
(1.00872 -0.00147849 0)
(1.07097 -0.0425563 -9.38866e-21)
(1.072 -0.0432918 6.33484e-22)
(1.0707 -0.0438058 6.06472e-21)
(1.05148 -0.0311866 -1.56257e-20)
(1.05239 -0.0320155 -7.70063e-21)
(1.02471 -0.0189738 -1.91107e-22)
(1.02425 -0.0188379 4.92002e-21)
(0.0399407 -0.015012 -5.93258e-21)
(0.0243447 -0.0360167 -6.29998e-21)
(1.0247 -0.0277264 1.03908e-21)
(1.02538 -0.0284967 0)
(1.02833 -0.0132017 1.02602e-21)
(1.02873 -0.0131442 -5.1806e-22)
(1.02879 -0.013669 -7.06327e-21)
(0.706132 -0.0830193 -3.00574e-21)
(0.699121 -0.0785043 -2.38147e-21)
(0.676404 -0.0788618 -1.14329e-20)
(1.00754 0.0006046 9.38898e-23)
(1.00767 0.000615508 -3.11205e-23)
(1.00741 0.000577843 -3.16109e-23)
(1.03564 -0.0300898 6.35747e-21)
(1.03634 -0.0295788 1.11453e-20)
(1.0176 -0.000619809 -2.00077e-22)
(1.01849 -8.17059e-05 -3.97586e-23)
(1.01701 0.00021588 1.25687e-22)
(0.657894 -0.051953 -3.64722e-21)
(0.659385 -0.0519053 2.02817e-20)
(1.09015 -0.0598381 -1.82716e-20)
(1.09077 -0.0601943 -1.21086e-20)
(1.09072 -0.0593569 1.17806e-21)
(1.02035 -0.00162666 -9.58894e-22)
(1.02023 -0.00177177 9.04528e-22)
(1.0703 -0.0487304 0)
(1.06984 -0.0498478 7.73015e-21)
(1.0691 -0.048696 -6.65853e-21)
(1.02064 -0.00104519 5.82267e-22)
(1.02066 -0.0011939 3.1886e-21)
(1.0209 -0.00109741 3.04682e-21)
(0.462646 -0.0247367 -2.32097e-20)
(0.463034 -0.0195865 -5.16714e-21)
(1.00836 0.00314116 7.91332e-22)
(1.00741 0.00550608 -2.43445e-22)
(1.00579 0.00284966 2.36251e-22)
(1.00176 2.43852e-05 -2.52723e-23)
(1.00205 3.76656e-05 4.40494e-23)
(1.00262 6.60175e-05 -1.47374e-22)
(1.01201 -0.00444134 -3.50852e-22)
(1.01219 -0.00458386 -3.02997e-22)
(1.012 -0.00448043 -3.96304e-23)
(1.08938 -0.0602786 6.21546e-21)
(1.08935 -0.0593293 -7.79975e-21)
(1.05329 -0.0326762 0)
(1.05433 -0.0325745 0)
(1.04325 -0.016376 5.06489e-21)
(1.04328 -0.0170624 -1.61484e-21)
(1.04258 -0.0166077 -3.5866e-22)
(1.02054 -0.000203167 0)
(1.02053 -0.0112344 3.5047e-21)
(1.02015 -0.0110137 7.62902e-22)
(1.02787 -0.0133693 -7.72261e-22)
(1.02777 -0.012802 3.26477e-21)
(0.950592 -0.0508989 -4.35843e-21)
(0.958154 -0.0180375 -6.20027e-22)
(0.274636 -0.0687178 1.67534e-20)
(0.252643 -0.0798648 -9.63362e-21)
(0.478166 -0.146196 -1.29334e-21)
(0.499658 -0.138214 -2.51109e-21)
(0.468889 -0.147464 -2.92787e-20)
(1.02354 -0.0186381 5.83502e-23)
(1.02423 -0.0181771 -1.10615e-22)
(1.02437 -0.0189912 -4.17705e-22)
(0.675116 -0.0526407 -2.76709e-20)
(0.66541 -0.0523524 -6.37947e-21)
(0.750025 -0.0590283 -1.68492e-22)
(0.708764 -0.0625821 1.04751e-21)
(0.703149 -0.0535306 5.89733e-22)
(1.01969 -0.000743365 1.77716e-21)
(1.05967 -0.0396643 8.02902e-21)
(1.05888 -0.0389372 -1.01911e-21)
(1.04385 -0.0709067 -8.01307e-22)
(1.04147 -0.0737914 1.46171e-22)
(1.01958 -0.0216737 7.19923e-23)
(1.02238 -0.0225849 -3.17452e-21)
(1.02092 -0.019031 5.6225e-22)
(1.00833 -0.000838459 1.92827e-21)
(1.0121 -0.00177031 -2.15719e-21)
(1.00838 -0.00428993 2.73293e-21)
(1.07647 -0.0686905 0)
(1.07528 -0.0678785 0)
(1.07652 -0.0674181 7.3014e-21)
(1.0482 -0.0941491 -1.08544e-21)
(1.01186 -0.00770499 4.06332e-22)
(1.01168 -0.00667512 2.54163e-22)
(1.01245 -0.00724873 3.05649e-22)
(0.805796 0.140435 -9.48061e-21)
(0.781786 0.116865 1.74716e-21)
(0.79026 0.107074 3.18526e-22)
(0.621152 -0.0482375 1.03244e-22)
(0.593002 -0.0450781 -4.42985e-21)
(0.598874 -0.045889 1.6095e-21)
(1.0196 -0.000476097 0)
(1.01989 -0.000528399 0)
(1.02368 0.0242003 -7.52656e-23)
(1.02284 0.01932 -1.87896e-21)
(1.0187 0.026542 1.87313e-22)
(1.02536 0.0268055 6.70975e-22)
(1.02809 0.0203009 -5.42271e-23)
(1.00761 -0.0275177 5.52694e-22)
(1.02883 -0.0309051 -4.82728e-22)
(0.999069 -0.0277604 7.66494e-22)
(1.04329 -0.0157786 -2.55602e-21)
(1.04401 -0.0162846 -7.81777e-21)
(1.00402 0.00102407 -3.03906e-21)
(1.00866 0.00350518 4.23128e-21)
(-0.0659418 -0.0292436 -1.12967e-20)
(-0.0744319 -0.0256175 -9.26118e-21)
(1.01123 -0.00412485 -4.81416e-22)