/*--------------------------------*- C++ -*----------------------------------*\
| =========                 |                                                 |
| \\      /  F ield         | OpenFOAM: The Open Source CFD Toolbox           |
|  \\    /   O peration     | Version:  v2012                                 |
|   \\  /    A nd           | Website:  www.openfoam.com                      |
|    \\/     M anipulation  |                                                 |
\*---------------------------------------------------------------------------*/
FoamFile
{
    version     2.0;
    format      ascii;
    class       volVectorField;
    location    "300";
    object      U;
}
// * * * * * * * * * * * * * * * * * * * * * * * * * * * * * * * * * * * * * //

dimensions      [0 1 -1 0 0 0 0];


internalField   nonuniform List<vector> 
13851
(
(1.12428 0.0487573 0)
(1.06872 -0.0226227 -9.01332e-21)
(1.0672 -0.0216851 0)
(-0.186946 -0.0139221 -1.17662e-19)
(1.00197 -0.000438331 0)
(1.07843 -0.0359857 -1.5885e-20)
(1.0559 0.0110786 1.44799e-20)
(1.01301 -0.000760882 0)
(0.312546 0.0341358 0)
(0.991008 -0.00696508 1.13467e-20)
(1.1587 -0.0946232 0)
(1.00112 -0.00805122 -2.04578e-21)
(0.980401 -0.0181433 4.11442e-21)
(0.10816 0.0127918 1.45118e-20)
(1.09618 0.00966602 1.02761e-20)
(1.08487 0.0550197 -5.95588e-21)
(-0.315807 -0.00211922 6.1622e-20)
(1.034 -0.0189098 0)
(1.18947 0.0513539 1.1282e-19)
(1.12562 0.0474346 -1.51956e-20)
(1.10756 0.00502655 4.4715e-20)
(1.03719 -0.0887909 0)
(0.552401 -0.268376 2.21213e-20)
(1.00007 -0.000207019 -1.39338e-22)
(1.20784 -0.00925583 1.43783e-19)
(1.08293 0.0420174 1.83504e-21)
(1.09504 0.0616356 1.52259e-20)
(1.15975 0.0790739 4.11654e-20)
(0.44495 0.0365908 1.16978e-20)
(1.02 -0.0119873 1.6628e-21)
(-0.0830873 -0.0149532 3.86845e-20)
(1.05609 0.010462 0)
(1.11747 0.049063 5.66248e-20)
(0.394489 0.06278 0)
(1.12672 -0.0799043 0)
(0.477663 0.0379479 0)
(1.00004 -0.000186313 0)
(1.20591 -0.144376 -1.35289e-20)
(0.00362498 0.0200287 2.93816e-20)
(1.00567 -0.0370269 0)
(0.218583 0.0569186 4.25818e-20)
(0.482807 0.0398675 0)
(-0.23635 -0.00354742 0)
(1.09698 -0.46984 0)
(0.498359 0.0439434 0)
(1.0139 -0.0219767 -1.07385e-24)
(1.01941 -4.54488e-05 -4.38566e-21)
(1.09153 0.0535205 1.36718e-20)
(1.04391 -0.0551626 -1.19294e-20)
(0.980088 -0.0172029 7.23489e-21)
(-0.242873 0.00697073 0)
(0.973322 -0.0113008 0)
(1.08545 0.0546301 0)
(1.07167 0.0207093 -1.28704e-20)
(0.16132 0.00979337 -1.93035e-20)
(1.00464 -0.0372975 0)
(1.11875 0.0499418 -6.387e-20)
(0.184533 0.0509631 -4.62834e-20)
(1.09277 0.063134 -3.38135e-20)
(-0.00738109 0.0145035 4.33156e-21)
(1.00102 -0.00758542 5.37524e-21)
(1.09773 0.0609644 4.64411e-21)
(0.995444 -0.00220593 8.17997e-21)
(1.04434 -0.0573403 -7.56806e-21)
(0.875642 -0.441229 1.96653e-20)
(0.857165 -0.461332 0)
(-0.0286437 0.010125 0)
(0.693388 -0.119376 8.69076e-20)
(1.01924 -0.0384429 -8.31489e-22)
(-0.153249 -0.0111545 1.08006e-19)
(-0.156799 -0.00622272 -1.7482e-19)
(1.11644 0.00911277 6.18144e-20)
(0.993267 -0.0253077 9.02452e-21)
(-0.00955801 0.0122455 7.06097e-20)
(1.07812 0.0185129 -1.47811e-20)
(1.0193 -0.0719387 -1.74651e-22)
(-0.290302 -0.00496226 0)
(1.02097 -0.00616826 5.73821e-21)
(1.25565 -0.013191 -1.27359e-19)
(1.0045 -0.0173082 1.77969e-21)
(1.02043 -0.0390472 0)
(1.26373 -0.0790266 1.00683e-19)
(1.12318 -0.0817006 3.32575e-20)
(0.0991294 0.0129147 4.76859e-20)
(0.00838033 0.0150049 -6.69646e-20)
(-0.108319 -0.0114572 7.63134e-20)
(1.0404 -0.089932 0)
(0.25144 0.00861544 -1.84925e-20)
(0.991607 -0.0110971 0)
(-0.0794575 -0.0137632 1.38137e-19)
(0.972086 -0.0104807 4.3534e-21)
(1.05725 0.010275 1.60612e-20)
(-0.234149 -0.00235323 9.17215e-20)
(-0.141383 -0.010592 8.53766e-20)
(-0.044767 0.0253244 -7.8432e-20)
(1.08149 -0.430563 0)
(1.00907 -0.0234546 3.94231e-21)
(1.0886 0.0546977 2.84291e-20)
(-0.163165 0.00969125 6.08825e-20)
(1.21452 -0.189947 0)
(1.08937 0.0551991 1.29953e-20)
(0.810083 -0.113255 3.42761e-20)
(0.810364 -0.146058 0)
(0.989163 -0.0268987 2.69948e-21)
(1.01739 -0.0217542 5.67287e-23)
(1.12291 -0.0043946 -1.69917e-20)
(1.01669 -0.0214886 -5.0158e-22)
(-0.136864 -0.0084904 1.86461e-19)
(1.05738 0.00954056 -2.57516e-20)
(1.03311 -0.0183724 2.83676e-21)
(1.02524 -0.127011 1.30161e-21)
(1.01464 -0.0223989 -4.04378e-22)
(1.20814 -0.0078347 0)
(1.15609 -0.0398788 -6.74111e-20)
(1.10778 0.0507017 2.87995e-20)
(1.07108 0.0195636 1.06901e-20)
(1.01403 -0.0079749 1.72841e-21)
(1.01366 -0.000889362 0)
(-0.203254 -0.0118113 1.61739e-19)
(-0.117202 -0.0145247 -4.47138e-20)
(1.11071 -0.355579 0)
(1.02766 -0.0156058 7.02614e-22)
(1.01445 -0.0390009 0)
(0.115191 0.0307944 7.27781e-21)
(1.16241 0.0553285 4.24193e-20)
(0.614779 -0.200034 0)
(1.00958 -0.0231663 2.19069e-21)
(1.12782 -0.146215 0)
(0.245365 0.052817 -4.68284e-20)
(1.10593 0.0153543 -6.21705e-20)
(1.03388 -0.0907549 -2.7494e-21)
(1.0951 -0.0621607 -4.15779e-21)
(1.31578 -0.161574 -8.35208e-20)
(0.377707 0.0602498 0)
(1.16298 -0.0915677 0)
(-0.0573348 0.024638 -2.7768e-20)
(0.706533 -0.111843 0)
(-0.124021 -0.0100746 0)
(0.847809 -0.0852661 2.48026e-20)
(1.10184 0.0178568 -3.74524e-20)
(1.2609 -0.0830969 -9.11359e-20)
(0.974272 -0.0424599 0)
(0.99091 -0.0111696 3.956e-21)
(0.743323 -0.304936 3.35422e-20)
(1.17213 0.0319593 7.86439e-20)
(1.00601 -0.0702398 0)
(1.02076 -0.00575716 -5.54865e-21)
(-0.13213 -0.0113987 -8.59509e-20)
(0.302654 0.0253721 -6.9676e-21)
(1.13298 -0.148408 0)
(1.09027 0.0549046 3.15652e-20)
(1.20704 -0.0113007 3.94598e-20)
(1.16005 -0.038744 3.72027e-20)
(1.17829 0.0465129 6.99636e-20)
(0.972135 -0.0210568 0)
(0.983511 -0.00776503 1.53567e-20)
(1.00118 -0.00635913 2.50023e-21)
(-0.0347651 0.0159402 3.08103e-20)
(1.10023 0.0146718 0)
(1.05895 0.00136443 2.02393e-20)
(1.00014 -0.000477373 1.2484e-21)
(0.457905 0.0365605 2.69719e-21)
(1.12024 -0.00376859 1.59225e-20)
(1.09234 0.05322 0)
(0.111705 0.0113726 1.33979e-20)
(0.402025 0.0433265 -6.98121e-21)
(0.414232 0.0443755 0)
(-0.226426 0.00900692 -6.88856e-20)
(1.02595 -0.122185 0)
(0.758587 0.0813818 1.52248e-20)
(1.00075 -0.00696529 9.0993e-22)
(1.01397 -0.00758416 -1.4019e-21)
(1.13755 -0.0065305 -5.61038e-21)
(1.00103 -0.000403776 0)
(-0.015103 0.0313323 1.45789e-19)
(1.10367 0.064917 5.34521e-20)
(1.0958 0.0554802 3.62818e-20)
(1.01454 -0.00754931 1.75939e-21)
(1.07643 0.0197861 -1.42223e-20)
(1.09511 0.0548969 -3.1258e-20)
(1.15921 0.0542211 -7.41415e-20)
(1.10355 -0.451485 0)
(1.03137 -0.115239 0)
(1.10411 0.0154075 4.18513e-20)
(-0.252951 -0.00418331 1.76052e-19)
(0.311096 0.0252907 1.59686e-20)
(1.1162 0.05005 1.60698e-20)
(0.888818 -0.0633397 0)
(0.976565 -0.0219418 -2.50005e-20)
(1.01828 -0.0162457 1.25776e-21)
(1.25096 0.0279949 -7.74294e-20)
(1.10102 0.0136856 -1.20497e-20)
(0.0870542 0.00743269 -4.16648e-20)
(1.07974 -0.0339308 1.70581e-20)
(1.00781 -0.0682013 0)
(1.08703 0.0546752 -1.08019e-20)
(1.11493 0.0491849 1.01551e-20)
(1.04389 -0.0107168 2.46387e-22)
(1.03953 -0.0268998 1.51965e-20)
(0.709403 -0.154768 6.49623e-20)
(1.26208 -0.0954857 4.93019e-20)
(0.0288396 0.0404077 -4.50239e-20)
(0.165389 0.0540096 0)
(1.09465 0.0103459 4.77732e-21)
(0.941509 -0.705217 -1.13934e-20)
(-0.00370314 0.0376198 9.9589e-20)
(0.937228 -0.0186172 0)
(1.09472 0.0233555 2.79285e-20)
(0.307722 0.03616 2.51745e-20)
(1.07321 -0.0435362 -3.01878e-20)
(1.08346 0.0550444 0)
(1.01383 -0.0381873 0)
(1.26523 -0.0908764 1.47255e-20)
(1.0001 -0.00203024 -7.27557e-21)
(1.13005 -0.0726158 2.56864e-21)
(1.02286 -0.0794944 8.32618e-22)
(0.981366 -0.0161713 2.62047e-20)
(1.13219 0.0598556 0)
(1.04333 -0.018882 8.37116e-21)
(0.153114 -0.533917 6.38673e-20)
(1.01457 -0.00714613 -3.68334e-21)
(1.12938 0.0467069 0)
(0.078516 0.00955874 -5.60691e-20)
(-0.0394336 0.0263069 1.25016e-19)
(0.900711 -0.0727835 9.43037e-22)
(1.09443 0.0241634 -2.16821e-20)
(1.00002 -0.0010348 4.53482e-21)
(0.746221 -0.28368 3.94669e-20)
(1.00135 -0.0128225 4.21218e-21)
(1.12683 -0.0740409 0)
(-0.034956 -0.0352088 -4.46128e-20)
(0.894471 -0.0640439 -2.7899e-20)
(1.073 -0.0414809 1.64711e-20)
(0.996253 -0.000236798 -9.18546e-22)
(0.151481 0.0521679 0)
(1.02065 -0.0117984 -7.85139e-21)
(0.907217 -0.430175 4.73814e-20)
(0.143019 0.0504706 0)
(1.20687 -0.184783 0)
(1.0001 -0.000457518 0)
(1.28496 -0.317776 0)
(0.0204333 0.0147003 0)
(0.529237 0.0466964 1.58556e-20)
(1.08399 0.0546856 5.51197e-21)
(1.10003 -0.0119529 0)
(0.707267 -0.336628 -5.21148e-20)
(1.13221 0.0576758 5.4476e-20)
(1.07602 0.0208292 1.44056e-20)
(1.08407 -0.412654 -3.65731e-20)
(1.04423 -0.128756 7.43642e-21)
(0.197077 0.00739306 0)
(1.15364 0.0361994 -8.32783e-20)
(1.01007 -0.000802302 0)
(1.07786 -0.0138316 0)
(1.08791 0.0552 -1.15234e-20)
(0.445491 0.0349614 0)
(0.323703 0.0118781 -8.07536e-21)
(1.01783 -0.0155586 0)
(0.59064 -0.195638 3.58448e-20)
(0.992459 -0.0119609 1.42869e-20)
(1.11612 0.0574453 0)
(1.1673 0.0517654 5.8303e-20)
(1.07956 -0.0132388 -1.35649e-22)
(1.12019 -0.000691078 4.55582e-21)
(1.15672 0.0366625 8.0033e-20)
(0.99902 -0.0237215 9.26563e-21)
(0.805305 -0.122942 7.17647e-22)
(1.09306 0.0504423 1.15587e-20)
(1.16405 0.0769964 -1.5871e-20)
(0.997641 -0.00786136 3.42476e-21)
(0.981289 -0.015194 -2.63565e-20)
(0.895218 -0.0712317 -3.6051e-20)
(0.403961 0.049075 0)
(-0.253891 -0.00562981 0)
(1.11025 0.00964138 2.49691e-20)
(1.02863 -0.0160901 0)
(1.1572 0.0566719 4.00718e-21)
(1.17263 0.0493549 -6.29408e-20)
(1.11006 0.0475705 -3.98192e-20)
(1.11821 -0.000122619 0)
(0.373554 0.0455819 -1.90311e-24)
(-0.120796 0.00955102 8.15874e-28)
(1.08299 -0.0208072 0)
(1.0915 0.00726263 -1.04051e-20)
(1.14462 -0.172173 4.96567e-20)
(1.01939 -0.0209571 2.61016e-21)
(1.00131 -0.0060333 0)
(1.11147 0.0482382 -8.79279e-21)
(1.14426 -0.110524 1.10516e-19)
(1.02196 -0.0119867 -4.83137e-22)
(1.00012 -0.00200065 0)
(1.00112 -0.0131852 -2.72675e-21)
(1.00412 -0.000616825 0)
(1.09655 -0.00407143 -5.62424e-20)
(1.00135 -0.00644539 0)
(0.324813 0.0362945 -4.5237e-21)
(1.10913 0.00630893 1.4573e-20)
(1.01067 -0.0313589 -1.84155e-21)
(0.452358 0.0339755 -5.84951e-21)
(0.103434 0.0284727 0)
(0.974418 -0.0166479 0)
(1.128 0.0482599 1.83777e-20)
(-0.206022 0.00802463 0)
(0.97313 -0.0447842 0)
(0.973051 -0.0159275 0)
(1.11132 0.00618666 0)
(0.0696142 0.0106319 0)
(0.23959 -0.00791305 -3.75471e-20)
(1.13714 0.00534646 0)
(1.00219 -0.000578467 1.61269e-21)
(0.79548 0.0828254 0)
(1.00084 -0.00742008 -9.68615e-22)
(1.14279 0.00570446 -5.05517e-20)
(-0.189671 0.0107714 -3.7625e-20)
(1.16141 0.0774986 0)
(1.05782 0.00100308 -2.47342e-20)
(1.24483 -0.205127 0)
(1.32626 -0.173013 -1.992e-20)
(-0.10898 -0.00570467 -1.4463e-19)
(1.20977 -0.0195154 3.09959e-20)
(0.780276 -0.0918029 -4.56808e-20)
(-0.0103619 0.0267086 8.61246e-20)
(0.156283 0.0395021 2.45223e-20)
(1.17006 0.0776493 -2.21071e-20)
(1.0408 -0.0276439 -8.23113e-21)
(-0.257086 -0.00545073 -2.03035e-19)
(0.143169 0.00273113 0)
(0.461169 -0.447525 -3.88609e-20)
(0.496373 -0.453444 -5.13974e-20)
(0.935609 -0.019797 0)
(1.14059 -0.0016888 0)
(0.946483 -0.114441 -4.5852e-20)
(0.259886 0.00934257 2.12284e-20)
(0.785189 -0.138592 0)
(1.00792 -0.00187234 0)
(1.01945 -0.000114817 4.67306e-21)
(1.06732 -0.0783211 -9.88977e-21)
(-0.136557 -0.00849051 1.97482e-19)
(0.20683 -0.540644 5.91773e-20)
(1.01941 -0.0201847 0)
(-0.0554614 0.0249611 -1.31927e-19)
(0.935742 -0.111717 1.76643e-20)
(1.09595 -0.0650542 0)
(1.05916 0.00217434 3.71194e-21)
(0.0599615 0.00839286 -2.21748e-21)
(1.15456 0.0558453 -2.16758e-22)
(1.08633 0.0550995 3.00593e-21)
(1.02061 -0.0773064 -2.1338e-21)
(1.07051 -0.0407334 1.68616e-20)
(0.521751 0.0390996 0)
(0.97643 -0.0235524 1.76363e-20)
(1.17665 0.0495699 -2.2141e-21)
(1.08155 -0.0196886 0)
(1.11265 0.00505096 5.96221e-20)
(0.929891 -0.114008 0)
(0.991802 -0.0119208 -1.45646e-20)
(1.01144 -0.0309707 0)
(1.22389 -0.0793518 -1.24051e-19)
(1.22276 -0.185929 0)
(1.1496 0.0388303 0)
(1.35504 -0.176525 1.12396e-19)
(0.532363 0.0402202 5.57521e-21)
(1.00722 -0.0716642 2.15998e-21)
(0.126603 0.0492045 0)
(1.1184 0.061598 2.11711e-20)
(1.02683 -0.00825936 -5.63438e-21)
(1.15311 0.0791933 0)
(1.12547 0.0348387 1.50105e-20)
(-0.149789 0.012651 6.90457e-21)
(1.06532 -0.0759056 0)
(1.07911 0.0448437 -4.38776e-22)
(1.08939 0.0624092 -1.70628e-20)
(1.28738 -0.0830746 -9.42982e-20)
(1.22061 -0.0901869 1.22017e-22)
(0.252164 0.00919303 -2.17189e-20)
(1.04418 -0.0380487 -2.18378e-20)
(1.10323 0.0658974 -5.15328e-20)
(-0.33211 -0.0033765 0)
(1.0961 -0.0232576 0)
(0.218871 0.0106344 2.33249e-20)
(1.10286 -0.0248573 -1.05125e-20)
(0.169058 0.0522492 -1.60748e-20)
(1.09072 0.0062315 1.8675e-20)
(1.0734 0.0312849 4.43545e-21)
(1.16063 0.0319128 -2.26634e-20)
(1.24745 -0.163197 -6.48948e-20)
(0.983548 -0.00867073 -1.13318e-20)
(1.08063 -0.0257975 7.79587e-21)
(1.14861 -0.113361 -7.54415e-20)
(1.07777 0.0196056 3.29557e-20)
(1.01216 -0.0240131 0)
(1.10991 0.0113733 -4.42485e-20)
(0.661838 0.0785956 3.75416e-20)
(0.994057 -0.0252703 -5.4008e-21)
(1.09607 0.0224634 0)
(-0.214902 -0.0130292 0)
(1.06388 -0.0384017 2.52163e-20)
(1.25758 -0.476389 0)
(1.08248 0.0300294 4.4792e-20)
(0.303385 -0.0083798 0)
(1.07562 -0.0448928 -2.1634e-20)
(1.0825 0.0410798 -1.42499e-20)
(0.917886 -0.679305 -1.12543e-20)
(1.16606 0.053599 -5.99878e-20)
(1.12383 -0.00940085 4.89209e-20)
(0.3038 0.00903347 1.57214e-20)
(0.000158168 0.0111444 -2.20416e-21)
(1.25386 -0.3129 0)
(0.998256 -0.0237731 5.64064e-21)
(1.21995 -0.0760043 1.34576e-19)
(1.10461 -0.0312091 0)
(1.07985 0.0440853 0)
(1.02626 -0.0172586 1.33325e-21)
(-0.242502 -0.00234946 -4.57081e-22)
(0.61779 0.0795059 2.2951e-20)
(1.25425 -0.0469547 0)
(1.07009 -0.0388048 -1.20329e-20)
(1.15992 0.034071 5.52056e-21)
(1.09978 0.0610097 3.99147e-20)
(-0.239478 -0.00809137 0)
(1.02374 -0.0032819 -4.42299e-21)
(-0.293538 -0.00250631 1.72134e-19)
(1.25791 -0.14885 -1.24205e-20)
(0.301226 -0.182098 0)
(1.04852 -0.131495 0)
(1.18272 0.0755551 -4.56609e-20)
(0.987186 -0.0158685 8.02901e-21)
(1.0012 -0.000346436 0)
(0.150341 0.00809739 4.763e-20)
(1.10071 0.0616097 2.20635e-20)
(0.990318 -0.00748487 6.82146e-21)
(1.06863 -0.0240564 0)
(1.09761 0.022616 -7.57933e-21)
(1.01232 -0.00850569 9.97584e-23)
(0.692437 0.0817753 0)
(1.14033 0.000879306 -1.30613e-20)
(1.12608 0.033671 0)
(1.07225 -0.000323282 0)
(1.04484 -0.0369102 1.21668e-20)
(0.971848 -0.00530831 8.58689e-21)
(1.321 -0.0942611 4.62161e-20)
(1.00955 -0.0306113 -3.75506e-21)
(0.972927 -0.00431268 0)
(0.88547 0.0621816 0)
(0.696131 0.0771069 -3.42223e-20)
(1.03077 -0.0883329 7.65572e-21)
(1.09427 0.0610761 0)
(0.995656 -0.00167423 5.26544e-23)
(1.00147 -0.00611248 -2.33995e-21)
(1.06609 -0.0392386 -2.53252e-20)
(1.15216 0.0393198 0)
(1.07943 0.0313774 2.49804e-20)
(1.01201 -0.0254134 2.46589e-22)
(1.05359 -0.0295949 1.78649e-20)
(1.11223 -0.344553 0)
(1.06083 -0.0170833 -1.80011e-20)
(0.342126 -0.0185458 -1.47277e-19)
(1.0013 -0.00753308 1.05625e-20)
(1.07175 0.010267 -4.82854e-21)
(0.504907 0.0451 0)
(0.937395 -0.157188 -7.06439e-21)
(1.01862 -0.000698251 -2.2752e-21)
(1.00033 -0.00641112 3.18339e-21)
(1.07194 -0.00124636 9.4197e-21)
(1.04657 -0.00968839 2.19252e-20)
(1.23771 -0.363759 1.96494e-21)
(0.807018 0.0601644 -9.86427e-21)
(1.10087 -0.0104312 0)
(0.321925 -1.12221 -3.8524e-21)
(1.06767 -0.0378336 0)
(1.00005 -0.0102133 6.24304e-22)
(0.284045 0.0484985 -3.2772e-20)
(1.09076 0.0620279 1.75335e-20)
(0.876917 -0.119844 4.22079e-20)
(0.995134 -0.0290469 -8.36988e-21)
(0.144248 0.0364659 -3.30699e-20)
(0.857175 -0.0906579 1.13375e-21)
(1.18392 -0.640161 1.19586e-19)
(0.988552 -0.0260575 0)
(1.0976 -0.0568604 5.76885e-20)
(1.22459 -0.0868596 -8.42199e-21)
(1.0837 0.0178559 0)
(0.190539 0.0450168 -2.06127e-20)
(1.09868 0.0610244 -4.62405e-20)
(1.30469 -0.0570904 0)
(0.975463 -0.0683536 0)
(1.21092 -0.0156484 -3.96537e-20)
(1.00012 -0.0249718 0)
(0.432958 0.0353163 3.24415e-21)
(1.08301 0.0293895 -4.90483e-20)
(1.11366 0.0494129 -6.88138e-22)
(1.103 -0.0294133 0)
(1.02115 -0.0741895 2.43364e-22)
(0.943836 -0.154819 7.51941e-21)
(1.13765 -0.00331247 0)
(1.00176 -0.000527347 0)
(-0.270188 -0.00379591 -2.30656e-19)
(0.254067 0.0451436 1.17467e-20)
(0.383349 -0.023663 1.2242e-19)
(-0.179595 -0.00368217 -6.50441e-20)
(0.826443 0.0614365 0)
(-0.2438 0.00376671 -3.96556e-20)
(1.17126 0.0519236 7.27738e-20)
(0.911918 -0.0764763 2.44761e-20)
(0.999647 -0.00258601 8.63668e-21)
(1.23843 -0.479417 0)
(0.991057 -0.00625354 -2.05525e-20)
(1.01187 -0.0233483 0)
(0.905831 -0.0930569 1.41994e-20)
(0.0109034 0.0358394 -5.98759e-21)
(1.06615 -0.016179 6.42725e-21)
(0.969915 -0.0377004 1.6135e-20)
(1.07282 -0.276834 -2.68302e-20)
(1.13236 -0.0301656 5.92212e-21)
(0.989118 -0.00158714 7.68333e-21)
(0.716802 0.0262811 0)
(1.0078 -0.022482 -1.53907e-21)
(0.292097 0.0557799 4.71106e-22)
(1.22781 -0.348289 0)
(1.0049 -0.0178828 -2.08334e-21)
(1.061 -0.00803494 -2.10188e-20)
(1.26106 -0.121063 0)
(1.15788 0.0784153 8.97371e-21)
(1.02135 -0.0122578 6.81054e-21)
(0.997629 -0.088582 1.24912e-19)
(1.07948 -0.401069 0)
(1.03069 -0.00314766 0)
(-0.0651224 0.00379302 -6.85023e-20)
(1.18602 0.0506979 -7.21912e-20)
(1.13302 0.0455444 -4.07442e-20)
(0.974039 -0.0666259 1.83759e-20)
(0.9028 0.0632029 0)
(-0.0618087 0.0140187 3.25408e-20)
(1.03136 -0.00335134 0)
(1.22878 0.00942757 -4.97658e-20)
(1.01685 -0.0386666 0)
(1.00824 -0.0230342 3.02773e-22)
(0.9597 0.0626551 -4.16735e-20)
(0.173228 0.0526422 -3.93818e-20)
(1.11605 -0.0297536 0)
(1.07839 0.0311833 -2.10441e-20)
(0.990437 -0.00497226 1.48393e-20)
(1.08694 0.0362138 1.08473e-21)
(0.277019 0.0555897 -5.31845e-21)
(-0.0363295 0.0198907 9.12275e-20)
(1.03439 -0.00634063 0)
(-0.295265 0.00118943 -5.84234e-23)
(1.01165 -0.0247894 0)
(1.01806 -0.0394013 0)
(1.1245 -0.00747944 -6.99264e-20)
(1.06833 0.0143015 -1.10284e-20)
(1.02397 -0.00301153 -2.43481e-21)
(1.01652 -0.0720661 0)
(-0.049804 0.00373878 0)
(1.24233 -0.159703 -1.00769e-19)
(-0.0814461 0.00339446 0)
(1.06417 -0.0166557 -3.03561e-21)
(0.99266 -0.0126764 0)
(0.426012 0.0483087 -1.48833e-20)
(0.999418 -0.00365085 0)
(1.22039 -0.0656711 -1.29034e-19)
(1.07545 0.00527933 0)
(1.07987 0.0170166 -3.65676e-21)
(1.10114 -0.0159839 -4.66107e-20)
(0.608931 0.0522563 0)
(-0.107815 0.0121294 0)
(1.0788 -0.029851 1.92037e-20)
(-0.292012 -0.00358057 0)
(1.05683 -0.000919135 0)
(1.14849 -0.013934 0)
(0.492743 0.0415795 0)
(0.188163 0.0145029 0)
(1.01066 -0.0392087 -8.19993e-22)
(0.999387 -0.0248617 2.8268e-23)
(0.817517 -0.154879 1.15234e-20)
(-0.0711656 0.0043498 0)
(1.08883 0.060567 -1.51845e-20)
(1.08592 0.0358901 3.42434e-21)
(1.07681 -0.562227 -1.2992e-19)
(1.06822 0.0149694 3.10389e-20)
(1.08881 0.00672659 -4.08266e-20)
(0.0590217 -0.0470487 4.42195e-20)
(0.663039 0.0169425 0)
(1.08576 -0.334656 3.25061e-20)
(0.275917 0.0532682 3.50173e-22)
(1.10525 0.0563824 4.66232e-20)
(0.54 0.042183 -1.22567e-20)
(1.04011 -0.0368133 1.48892e-20)
(1.09392 0.0637161 4.9331e-20)
(1.21927 0.0709642 8.6874e-22)
(0.99973 -0.00879613 0)
(-0.323951 0.0017825 2.30462e-20)
(0.470219 0.0597968 0)
(1.03106 -0.120426 0)
(1.1036 0.0173679 0)
(1.00145 -0.0343859 0)
(0.470734 -0.838009 0)
(1.14276 -0.181831 0)
(0.601244 -0.191565 0)
(1.00887 -0.031104 5.10794e-21)
(1.00072 -0.000473428 1.08002e-21)
(0.909934 -0.0443025 0)
(1.13125 -0.0328742 -1.10378e-20)
(1.00137 -0.00725632 -1.34832e-21)
(-0.020798 0.0325618 -1.40904e-20)
(1.00084 -0.000564912 5.28315e-22)
(1.10627 0.0560906 -3.2977e-20)
(0.96885 -0.0650362 1.45818e-20)
(1.08073 0.0445125 0)
(0.990096 -0.0265744 1.12426e-20)
(0.98839 -0.00168432 9.98179e-21)
(1.09163 -0.156211 0)
(-0.293736 -0.000764367 2.24231e-19)
(1.12575 -0.0141197 -3.36742e-20)
(-0.0716846 0.0241137 0)
(1.09803 -0.0598504 -3.59367e-20)
(1.0125 -0.00949591 -3.17153e-23)
(1.02962 -0.0106279 7.70715e-21)
(1.14034 -0.00802287 0)
(1.05252 -0.0305597 -1.12917e-20)
(1.18349 -0.0227735 0)
(1.0702 -0.0180205 0)
(0.876868 -0.112156 -4.25325e-20)
(1.09028 0.0632784 -8.53274e-21)
(0.999302 -0.00337039 9.54221e-21)
(0.326602 0.00753281 -9.37608e-21)
(1.00006 -0.00139513 0)
(1.08105 0.0497472 4.47514e-20)
(-0.274651 -0.00342633 0)
(0.466263 0.0451423 -2.49107e-20)
(0.881742 -0.0246765 4.82509e-20)
(0.813218 -0.272721 0)
(1.06168 -0.276242 -8.28786e-22)
(1.22069 -0.238329 3.73684e-20)
(0.438479 0.0612613 0)
(1.03667 -0.00736013 3.07059e-21)
(0.623099 0.0231613 2.83959e-20)
(0.941088 -0.116518 -4.70394e-22)
(1.09853 -0.0231777 -1.96306e-20)
(-0.167707 -0.00577471 -1.15251e-19)
(1.27507 0.0182562 -6.29269e-20)
(1.02725 -0.00871395 3.99412e-21)
(1.18162 -0.0253119 -2.2219e-20)
(1.04323 -0.00996988 1.24686e-20)
(0.503687 0.0385607 0)
(-0.26636 0.00467804 0)
(1.02307 -0.0407873 2.37131e-21)
(0.691717 -0.144466 -8.95054e-20)
(0.687123 0.0823467 2.30412e-20)
(0.999983 -0.00115615 -1.36771e-22)
(0.999976 -0.00154053 -3.59893e-21)
(1.08237 0.0426116 4.52373e-21)
(0.307524 0.00495901 5.20547e-21)
(0.978033 0.0662683 -5.54299e-22)
(0.973286 -0.0145573 7.4299e-21)
(1.16543 0.0284222 0)
(1.05916 -0.0170686 1.73885e-20)
(0.987264 -0.00264669 0)
(1.08977 0.0638595 -3.78295e-20)
(1.16438 0.031016 2.49636e-20)
(1.21666 -0.171169 3.53204e-20)
(1.02247 -0.00275727 0)
(1.09397 0.0501111 0)
(0.905767 -0.204104 -1.8782e-20)
(1.08108 0.0395229 1.33515e-20)
(0.956909 -0.0167932 1.74366e-20)
(1.00651 -0.0655976 0)
(1.13518 -0.181782 -3.62948e-20)
(0.914096 -0.0454319 1.27414e-20)
(1.09236 0.0519718 0)
(1.11414 0.00987905 3.40179e-21)
(1.11705 0.00709075 5.80159e-22)
(1.07422 -0.322201 -2.51236e-20)
(1.17366 -0.649125 -1.04806e-19)
(1.19226 0.0480475 -1.42035e-22)
(0.727605 0.06368 7.41058e-21)
(1.10178 -0.0939774 -1.37985e-19)
(1.09056 0.0543083 -3.77168e-20)
(0.139628 0.0184163 -2.58589e-20)
(1.02161 -0.172959 -7.88825e-21)
(0.929558 0.0616651 3.64014e-20)
(1.13167 0.0472825 4.76382e-20)
(1.03071 -0.0199584 0)
(1.08781 0.00565323 1.78659e-20)
(1.18889 0.043857 -3.65466e-20)
(1.05511 -0.0843073 1.62821e-20)
(1.00459 -0.0166875 0)
(1.0051 -0.0158154 -2.98528e-21)
(1.08262 0.0494753 0)
(0.244562 0.0066622 -1.88533e-20)
(1.07307 0.0101786 0)
(0.106773 0.0457149 9.03272e-21)
(1.01231 -0.00985297 8.4657e-22)
(0.947203 0.0656974 2.02611e-20)
(0.999796 -0.366565 0)
(-0.217318 0.00755973 1.85958e-19)
(1.18251 -0.0305523 0)
(1.07778 -0.0442543 1.68476e-20)
(1.06772 -0.0201066 0)
(-0.205088 0.0107034 -2.01564e-19)
(1.21859 -0.165585 -8.27269e-20)
(1.02205 -0.166121 9.56841e-21)
(1.09922 0.0615953 -2.19011e-20)
(1.0436 -0.0349425 -1.04921e-20)
(1.25793 -0.434231 -1.27832e-19)
(1.08197 0.0499395 -1.04727e-20)
(1.10752 0.0564482 1.54795e-20)
(1.10239 -0.0408516 0)
(1.2762 -0.136217 6.00158e-20)
(0.98791 -0.0163058 -1.497e-20)
(1.00007 -0.00163156 0)
(0.94053 -0.0182655 2.13411e-20)
(0.986612 -0.0033875 -7.93341e-21)
(0.474068 0.0404067 1.24756e-20)
(1.00388 -0.000755988 0)
(1.08695 0.0630494 3.14773e-20)
(0.391926 0.0464284 7.6258e-21)
(1.18627 -0.032048 0)
(-0.0187881 0.0234886 3.03421e-20)
(-0.14862 0.0113023 -7.40955e-20)
(1.10822 0.0570413 0)
(1.22951 -0.234493 -2.65194e-20)
(0.884594 -0.0320812 -3.97818e-20)
(0.998592 8.5424e-05 -8.45793e-21)
(0.982528 -0.0144924 0)
(1.01989 -0.00629466 0)
(1.02893 -0.0106919 -7.37035e-21)
(1.00099 -0.000527077 -1.15307e-21)
(1.14618 -0.00781914 -2.75471e-20)
(1.20076 -0.00148994 -9.13145e-20)
(0.902505 -0.215597 0)
(1.17193 0.0773041 -5.11273e-21)
(1.02218 -0.0616966 2.16346e-21)
(0.299545 0.0340473 -8.47205e-21)
(0.999979 -0.000145784 1.28753e-20)
(-0.156141 -0.0173351 0)
(1.11598 -0.0869789 0)
(0.999934 -0.000281301 -1.88209e-20)
(0.996982 -0.000509689 -6.99795e-21)
(0.449793 0.0453406 0)
(1.07937 -0.0376795 2.06093e-20)
(0.986017 0.0631329 1.26468e-20)
(0.489869 0.060323 0)
(1.10051 0.0169334 2.78452e-22)
(1.12187 0.022948 5.95061e-20)
(1.03027 -0.00237171 4.25362e-21)
(0.357527 0.0592995 0)
(0.984199 -0.0790365 0)
(1.0672 -0.0173488 -1.74123e-21)
(1.09139 0.0636262 3.01157e-22)
(0.998623 -0.000407417 1.1292e-20)
(0.973208 -0.0407039 -1.44353e-20)
(1.03424 -0.0115963 0)
(1.08494 0.02834 -2.35396e-20)
(0.222112 0.00820405 -1.0246e-20)
(1.0893 -0.0565699 0)
(1.10311 -0.0357482 0)
(1.26143 -0.156366 0)
(-0.0698956 0.0177674 -1.24445e-19)
(0.886147 -0.054283 -6.51543e-20)
(0.986199 -0.102273 7.47783e-21)
(0.524563 0.0425366 0)
(1.01949 -0.00610083 2.92698e-21)
(0.512861 0.0415898 0)
(1.00038 -0.00118025 -2.90828e-21)
(1.06131 -0.0156014 -1.98107e-20)
(1.26126 -0.0061365 -1.74108e-19)
(1.09947 0.0412365 3.99722e-20)
(1.10891 0.050008 -3.37261e-20)
(1.18758 -0.0912989 -2.72498e-20)
(1.12633 -0.0117854 6.58632e-20)
(0.999509 -0.000757563 5.33809e-21)
(0.999988 -0.000153626 -7.67018e-21)
(1.15209 -0.0128245 6.318e-20)
(1.0416 -0.0366883 -5.17707e-21)
(0.999631 -0.000614693 0)
(1.07177 0.0137143 4.0285e-20)
(1.24861 -0.197303 3.35679e-21)
(1.00459 -0.00548291 2.22239e-21)
(1.20825 -0.25222 -1.10601e-20)
(1.27956 -0.464058 4.17281e-20)
(1.02823 0.0643558 1.06823e-20)
(1.18582 -0.0866926 -2.62393e-20)
(-0.0396023 -0.0201631 -5.23363e-23)
(0.83839 -0.0881918 -6.94308e-21)
(0.99845 -0.00021424 -1.5457e-20)
(1.21959 -0.101893 0)
(1.01176 -0.0102648 0)
(1.08117 -0.0239292 2.94263e-21)
(0.772467 0.0661999 -6.26174e-21)
(0.543537 0.0396775 0)
(0.612799 0.0228101 2.07491e-20)
(0.565815 0.046452 -1.13408e-20)
(1.02672 -0.0411228 0)
(1.02296 -0.0399799 3.21824e-21)
(0.978063 -0.274455 2.70891e-23)
(1.00301 -0.0630177 8.65061e-21)
(1.02143 -0.0186249 3.76149e-21)
(0.579268 -0.294163 -8.94518e-20)
(1.11454 0.0581625 0)
(0.209628 0.0123969 0)
(1.08053 0.0502148 -3.97485e-20)
(1.10055 0.0416196 -4.44727e-20)
(0.985195 -0.00518703 9.65919e-21)
(1.0198 -0.0124595 0)
(1.30341 -0.324776 -4.99446e-20)
(1.12804 0.0327274 0)
(1.06322 -0.015409 3.00056e-21)
(0.999803 -6.94367e-05 -2.09973e-21)
(1.10657 0.0504144 -1.85918e-20)
(1.2219 -0.0305229 1.55726e-19)
(0.118483 0.0470093 1.84339e-20)
(0.972302 -0.0191512 -9.40541e-21)
(1.00088 -0.00325519 -3.31226e-21)
(0.203308 0.00620879 -5.72559e-21)
(0.958039 -0.015437 0)
(1.10201 -0.020435 5.01566e-21)
(1.01196 -0.00803584 7.6081e-22)
(0.032777 0.0387999 -4.74926e-20)
(1.00952 -0.000466264 0)
(-0.266392 -0.00660949 8.98334e-20)
(0.994757 -0.00530086 -4.73324e-21)
(1.19857 -0.188716 0)
(1.10581 -0.000661753 -2.49001e-20)
(0.954596 -0.278433 -3.16948e-21)
(1.10417 -0.0390934 0)
(0.99263 -0.0243479 -4.22986e-21)
(1.06843 -0.0267293 -8.75801e-21)
(1.00324 -0.00393831 0)
(1.08463 0.0627599 1.76905e-22)
(0.961027 -0.0245521 -1.4439e-20)
(0.34494 0.0152562 1.38737e-20)
(1.04565 -0.0340784 -3.8985e-21)
(1.03443 0.0778847 1.95237e-20)
(0.324516 0.0487712 -1.82415e-20)
(1.09843 -0.0454486 2.01145e-20)
(1.00384 -0.00282223 -1.00062e-21)
(-0.188312 -0.0182544 -2.23924e-19)
(0.804791 0.0610193 0)
(1.08104 -0.0296785 -2.28877e-20)
(1.0981 0.0414958 4.42985e-20)
(0.982571 -0.0135598 -1.70083e-21)
(0.276898 0.00772074 -3.66072e-20)
(1.03156 -0.0205961 0)
(1.1917 0.0413045 0)
(0.99907 -0.00959526 0)
(1.00352 -0.00410986 1.12488e-21)
(1.02212 0.0661677 0)
(1.10176 -0.0142525 3.87794e-20)
(1.00038 -0.00690437 5.25875e-21)
(1.07278 0.0208584 -8.23759e-21)
(0.182928 0.0504796 3.07084e-20)
(0.724777 -0.78992 -4.32548e-21)
(0.637309 0.0814929 1.24017e-20)
(1.01701 -0.0155422 -2.12003e-21)
(0.157514 0.0210118 2.84539e-20)
(0.997401 -0.00834152 -7.44999e-21)
(1.00439 -0.00517601 -1.67323e-21)
(0.973588 -0.0219851 0)
(1.01945 -0.00019562 3.18231e-21)
(0.999872 -0.00207569 -7.43764e-21)
(0.58401 0.0791984 -1.40279e-20)
(0.745149 0.0684 -2.74755e-20)
(1.04385 -0.0198804 0)
(1.00087 -0.000775666 5.644e-22)
(1.11714 -0.0269273 0)
(1.01519 -0.0222953 7.55371e-22)
(-0.156503 -0.0226212 7.88531e-23)
(1.2236 -0.0979272 -9.31557e-21)
(0.119864 0.0145579 3.82494e-20)
(0.00287238 0.0262545 0)
(1.06806 -0.0277928 1.8905e-20)
(1.09311 0.0516383 -1.28647e-20)
(0.999742 -0.00933696 0)
(1.10782 0.00277174 -4.81568e-20)
(0.994388 -0.348925 0)
(1.036 -0.00677852 0)
(1.00033 -0.00116198 3.16705e-21)
(1.29291 -0.301574 0)
(-0.255156 0.00555321 0)
(1.11989 0.0229844 -3.50984e-20)
(-0.339534 -0.00526793 -1.39823e-19)
(1.10475 0.0298045 1.92026e-20)
(0.995759 -0.00253288 0)
(1.12135 -0.0381923 -3.29221e-20)
(1.09748 0.0420584 -4.13382e-20)
(-0.309933 0.000238272 0)
(1.09462 -0.00516114 3.59783e-20)
(1.10648 0.0641349 -2.4241e-22)
(1.13017 0.0331077 1.6784e-20)
(1.0002 -0.00222891 0)
(0.384163 -0.119314 -1.15015e-20)
(0.280261 -0.0831311 0)
(0.253979 0.0123996 7.59476e-21)
(1.27298 0.0202029 0)
(0.970613 0.0619004 9.16682e-21)
(0.978367 -0.0692105 0)
(0.728234 -0.349985 8.22838e-20)
(0.972341 -0.00256158 9.54556e-21)
(1.1265 0.074207 2.88834e-20)
(1.05404 -0.0810675 0)
(1.00775 -0.00149045 1.10228e-22)
(0.589335 0.080265 -7.31013e-20)
(1.01851 -0.0608431 1.47676e-22)
(1.00376 -0.00259114 0)
(1.01191 -0.0392644 2.15376e-21)
(1.01713 -0.0591516 -1.26813e-22)
(-0.000253827 0.0355458 6.78825e-21)
(1.18258 0.0466877 -6.93672e-20)
(1.01153 -0.0143216 -1.01014e-22)
(1.12309 -0.035496 -3.82808e-20)
(0.0840381 0.0113683 6.93879e-21)
(1.03587 -0.0557089 0)
(-0.354189 -0.00324938 2.63055e-20)
(0.957177 -0.0412636 -1.93533e-20)
(1.10466 0.0380587 5.07048e-20)
(0.132111 0.050939 0)
(1.00117 -0.0066639 -1.30861e-21)
(1.08619 0.0613558 1.68259e-20)
(1.06391 -0.0957522 -2.62884e-20)
(1.10142 -0.0463333 -2.11523e-20)
(0.680182 -0.817336 -6.09503e-22)
(1.02087 -0.0602015 -2.14973e-21)
(1.25722 -0.06771 9.76024e-20)
(1.08134 0.0407367 2.38533e-20)
(0.227494 0.0561286 0)
(1.04466 -0.00472288 -1.01689e-20)
(0.30071 0.0122483 0)
(1.09501 -0.0256135 3.44959e-20)
(0.0807911 0.0224308 0)
(-0.29787 0.00283435 1.23518e-20)
(0.277277 0.00850272 0)
(1.09824 0.019149 -2.70519e-20)
(0.989709 -0.0227066 -1.00008e-20)
(1.02609 -0.0422642 0)
(0.999964 -0.00111268 -5.68039e-21)
(1.07283 0.0302821 -4.10992e-21)
(0.996946 -0.00236724 2.3774e-23)
(0.203392 0.0473567 4.35835e-22)
(1.02749 -0.112355 0)
(0.924959 -0.084876 -2.0913e-20)
(0.889066 -0.0509283 5.62312e-20)
(0.98042 -0.0678738 1.20028e-20)
(1.01661 -0.0149949 2.04346e-21)
(1.06257 0.0159578 -1.71359e-20)
(1.06083 -0.0819404 -8.51926e-21)
(1.06093 -0.00917801 0)
(1.04121 -0.0934029 -1.2327e-20)
(0.360867 0.0608735 2.37388e-20)
(1.08276 0.0623093 -1.67878e-20)
(1.09194 -0.017643 1.62915e-20)
(1.11126 -0.145375 0)
(0.6213 0.0792982 4.74174e-20)
(0.970539 -0.0401863 -5.93182e-21)
(-0.12073 -0.00412257 -3.96136e-20)
(1.0189 -0.00608424 -2.89854e-21)