/*--------------------------------*- C++ -*----------------------------------*\
| =========                 |                                                 |
| \\      /  F ield         | OpenFOAM: The Open Source CFD Toolbox           |
|  \\    /   O peration     | Version:  v2012                                 |
|   \\  /    A nd           | Website:  www.openfoam.com                      |
|    \\/     M anipulation  |                                                 |
\*---------------------------------------------------------------------------*/
FoamFile
{
    version     2.0;
    format      ascii;
    class       volScalarField;
    location    "100";
    object      omega_0;
}
// * * * * * * * * * * * * * * * * * * * * * * * * * * * * * * * * * * * * * //

dimensions      [0 0 -1 0 0 0 0];


internalField   nonuniform List<scalar> 
13917
(
5.29546
0.0461089
0.193133
0.0221594
0.0307502
0.04536
0.0261997
0.0995326
0.025052
16.777
0.103618
0.0217138
0.0241601
0.830533
0.0274533
6.90258
0.0217346
0.0850529
0.100614
7.9417
0.0335779
0.0216814
0.0424665
0.0216831
0.0231272
0.0361082
2.43272
15.9883
0.0508214
0.0200877
13.4312
0.0601267
0.0221785
3.10869
0.021374
0.178924
0.0238999
0.0232218
0.0262336
0.0363926
0.0218657
0.021687
0.0237261
0.0944378
0.094491
0.2146
0.0317815
4.20709
0.81405
0.0213912
0.0216819
0.112726
16.8819
0.0216456
0.021714
0.109837
10.699
0.0425069
0.0215831
0.219852
3.02289
0.0313606
0.0209644
0.0229524
2.9668
0.165851
0.0578392
0.262842
0.0928379
5.83678
2.66339
3.2068
0.0217032
0.0213773
0.0343515
0.0235938
0.0246319
0.0212757
0.0233786
0.0222492
0.0221868
0.0218363
0.0216888
2.95625
0.02114
0.126042
0.0581562
0.0215668
0.0361909
0.0216277
0.020663
0.0238735
0.808382
0.0210658
0.0221492
0.0568754
1.21349
0.0220633
0.0214788
0.139109
0.0213122
0.0212462
0.022231
0.0213431
0.0245625
3.36236
2.90525
0.0289075
0.0220382
2.46672
0.0215271
3.07854
0.0502199
5.32626
2.97472
0.0240008
0.0943462
0.0207596
0.160757
0.0216309
0.021702
0.0210061
0.065628
0.0859611
5.46038
3.05081
0.0227937
0.0361172
0.0211077
0.0864127
0.0311159
0.237519
3.48349
0.0239614
0.0698283
2.39916
3.11982
5.38862
0.0389011
0.0231809
0.710894
0.0211215
3.36175
0.0211632
0.0216347
0.0243721
2.62774
0.482313
5.24177
0.0216794
0.0338112
0.0210833
0.021615
0.0216391
1.51638
0.0223684
0.0212866
3.4628
0.0214121
0.0209364
0.0211154
2.74947
0.025934
0.792674
2.68838
0.165849
23.801
2.74676
0.0195803
0.0416518
0.0218151
3.40337
0.0250118
2.94221
0.0665996
0.0212084
0.0221624
0.125965
0.0304533
0.0265806
0.0236339
0.0217224
0.0216799
0.174826
0.160265
0.345341
0.0216544
0.179871
0.0200909
0.112371
0.0665624
0.0869913
0.129223
5.04409
0.0210742
5.25689
0.0254504
3.5341
0.0213349
0.0221333
0.0298131
5.58703
6.84846
0.0235185
2.62743
0.037668
0.0340344
0.0211241
0.119931
0.0221819
0.0208565
0.0438378
0.0511194
4.46601
0.0678356
0.0379256
3.00151
0.0224143
0.020339
0.0203272
2.78172
0.143538
0.197221
0.0213546
0.0211779
2.35588
6.30291
0.0202871
0.0202746
0.0218822
0.0203505
0.0203409
3.34085
2.9598
0.0218398
0.0195916
0.0708139
3.42419
0.0214607
0.021352
2.60224
3.41862
0.150571
3.01673
0.0953902
0.0211707
2.70657
0.0736165
0.046338
0.0687838
0.0232665
3.1673
0.0216427
0.0389825
0.059612
0.0219484
0.0220419
0.0229314
0.0275573
0.0214408
3.80441
1.16756
0.0210222
0.0202756
0.0224992
0.0202799
0.0216469
0.0241487
0.0349918
0.0211321
4.31901
2.84923
0.0214714
0.0251583
0.222129
0.0202239
0.0996686
3.42284
0.0202341
4.31456
0.0213492
2.69299
0.0213235
0.0259073
0.0220207
0.0211338
0.132497
0.0224675
0.580516
0.0276082
1.18361
0.024744
2.46177
5.6544
0.0209972
0.0484683
0.0286043
0.024296
0.0298825
0.0233369
0.0211369
0.0221621
0.126913
0.0420814
0.0378931
0.0231791
0.0213348
3.49373
8.48494
0.0210337
0.0253898
0.0243339
0.801775
0.109787
2.90076
2.87023
0.136369
0.195214
0.0247884
2.76887
0.809619
0.19159
0.0239993
0.0271736
2.45879
0.0220751
0.0527125
0.0867226
0.0216356
3.40057
0.0211818
0.038266
0.0204717
20.923
0.0207811
0.0358958
0.0380373
0.104381
0.0214837
0.0686187
3.17277
0.0220502
0.0220658
3.07268
3.24531
2.28649
1.05194
0.0202122
0.0217999
3.47851
0.193756
0.0202243
0.0297109
0.0216519
0.0528255
0.0368761
0.104946
0.0937501
0.100358
0.0379677
3.24867
0.0211433
0.0220576
0.0324758
0.155282
0.021621
6.08352
0.0377279
0.351686
0.0217552
0.13555
0.026491
0.923371
0.0217231
0.191819
0.227044
0.0411661
0.0214929
0.783275
0.0206541
2.70227
0.140489
0.0217676
0.907578
0.0223976
0.193853
0.020678
6.63971
0.20014
0.023423
2.3718
0.0820052
0.0229143
2.65207
0.207009
0.0230245
0.134101
0.0217139
0.0844275
0.191014
0.0212046
0.0256736
0.0231525
0.0211201
0.0209204
0.0211903
3.09062
0.206726
0.0218902
0.0212489
0.0215288
0.0473514
1.21295
0.0202889
0.019599
0.108744
0.133872
0.0211578
0.0232818
2.68066
1.3313
0.208488
0.10611
2.49898
0.0207285
0.0202518
0.0310141
0.0209108
0.0202993
0.0219163
0.0202653
0.0206736
2.69733
0.0217576
0.0388431
3.94549
0.0481709
0.0208738
0.0215972
2.64176
0.0298407
6.65819
0.0203863
0.0213311
0.020721
0.0203609
0.0237851
0.022598
2.6609
0.0293353
3.45111
0.0213255
0.0334445
0.0320979
0.0221169
0.0919401
2.34755
0.02162
1.75012
0.0209039
0.021279
0.0214858
0.0224155
0.0208161
0.0220741
3.46061
2.94287
0.0207997
2.598
0.106692
0.0218233
0.0527108
0.0642837
2.70106
0.0263622
3.37396
0.324552
0.328656
0.0226205
0.129225
0.0342344
0.0231306
0.899205
0.0207885
0.0215959
0.0221551
0.0253598
0.0324208
0.141359
0.0495748
0.0242458
0.0261796
0.0777643
0.0503288
0.0218922
1.03043
0.0343981
0.0276241
2.72366
0.0211485
0.052339
0.136724
0.0208242
3.32375
0.0213712
0.0203569
0.0486147
0.0203983
0.0222543
0.121324
3.5167
2.17894
0.0211128
0.0223501
0.024488
0.580413
2.55733
0.0217963
0.0216835
0.021095
0.0552122
0.452563
0.0211652
0.021478
0.0220497
0.021102
0.0262969
0.0276948
0.0209641
0.0502924
0.0208264
0.0215665
0.0230185
2.96724
0.0203865
0.023502
0.0214466
0.0324955
0.0617165
0.0595837
0.0621645
0.155653
0.0228012
0.0689084
3.53832
2.69587
3.5597
0.0209663
0.0214434
0.0242541
0.0213979
3.04049
0.0202548
0.553054
0.0254321
3.40963
0.116597
0.0237174
7.75972
0.020791
0.0561553
0.0219539
0.0224971
3.42538
0.020331
0.196377
0.0212349
0.0226886
0.0214846
0.13436
0.0268223
0.0202556
0.0951265
0.051576
0.789551
2.43559
3.55662
2.69646
0.0203934
6.13961
0.0204404
3.10359
0.40092
0.0231548
0.0290895
0.0212599
0.0339338
0.0234091
0.0203443
0.0219739
0.0238937
2.04471
0.0211618
0.0545534
0.0215651
0.0202449
0.0212939
0.211127
2.20318
12.4868
0.0644267
0.0275686
0.209219
3.33162
0.0207022
1.76014
0.023692
0.0860444
0.0213921
0.786134
0.0210844
0.0269064
0.0216555
0.692489
0.0352105
3.00385
0.0210453
0.0337413
0.0213565
0.0215083
3.14591
0.134571
0.0215458
0.113323
0.0213345
0.0221954
0.0212817
3.04313
0.0211662
0.0282727
0.020245
0.0214463
0.156273
0.021174
0.105314
0.021975
0.0207988
3.09057
0.0560728
0.021745
18.3841
0.187043
1.23421
0.142318
0.0207758
0.0285644
3.04217
0.219125
0.0295673
0.0239161
0.0274958
0.0218042
0.0211841
0.188164
0.0667091
0.0247061
2.74335
0.0356462
1.33432
2.5166
0.0417759
0.034363
0.124714
3.8777
0.0211427
0.0323423
0.187252
0.0208105
0.0211562
0.021272
0.0241875
0.022314
5.84379
0.0328672
0.0211049
0.0806978
0.0209609
2.89216
0.0213414
0.0211058
3.44223
0.0581481
0.393128
0.0217563
0.0212742
0.0210818
0.0220616
0.0275519
0.021122
6.18728
0.0293894
0.512383
0.381578
0.0323258
3.57682
0.0223562
0.0218801
0.0214184
3.31398
2.24824
0.0258058
5.90091
0.418073
0.0207911
0.0210673
0.0237933
3.28744
0.393084
0.0354584
0.0220304
0.0235005
0.0885685
0.0240971
0.104181
0.033008
0.0220923
0.0222723
0.0219226
0.0274682
0.026336
0.228508
0.0246778
0.0261228
5.91197
0.0219444
0.41962
0.0236044
0.035082
0.0252666
0.207637
0.0216602
0.0531217
2.13016
0.309733
0.0214205
0.0247043
0.0228139
0.0213211
0.021642
0.0322439
0.0306927
0.198071
0.105805
0.0207507
0.207249
0.0250044
0.0253956
0.116921
0.0218869
0.0560628
1.23572
0.0202787
0.058141
0.0796799
0.032741
0.0210095
0.020841
0.0211733
7.19465
0.0221373
0.0215119
0.0378414
0.0211454
0.0209168
0.105201
0.530865
0.0411434
1.57607
0.0486486
3.52978
0.0216471
0.0251525
0.156513
0.0231895
0.13111
0.0214755
0.0211281
0.021731
0.0251554
0.0614676
0.0210047
0.263785
0.0218846
0.331173
0.0236401
0.0263023
0.0204773
0.0696693
0.0261674
2.5712
0.0422863
0.0218838
2.93968
0.0223542
4.01869
0.0232302
0.0606546
0.0235695
0.0209018
0.0214062
3.35868
0.0273838
1.25457
1.29215
0.0213161
0.0329943
0.0195773
0.0267494
0.557425
0.0196041
2.69125
0.0235724
0.0611133
0.0929102
0.771579
0.0203965
0.0212101
0.106044
0.0207663
0.0216107
0.0228222
0.0213999
0.0379601
0.0203854
0.101153
0.0220889
5.6415
4.13712
0.740248
3.51557
1.81108
7.63646
0.788478
0.0207316
0.0220721
0.021533
0.0223591
0.021098
0.0275002
0.0211989
1.1228
0.0216449
1.37948
0.0220591
0.0295943
0.0912737
0.0210051
0.0387147
0.0223525
0.022676
0.0255137
0.0206403
3.65585
0.0717256
0.265263
0.0210315
0.0214949
0.0218975
0.0219652
2.70002
0.0207528
0.152225
0.0210687
0.335388
0.0255885
0.021174
0.0546225
0.0323406
0.0207633
0.37698
1.36572
0.023874
0.0691474
0.0207453
0.141635
0.0211686
0.0219659
3.57997
0.0214347
0.0222301
0.0797933
3.89316
0.0214917
0.599651
0.407907
0.0218618
0.0230418
0.0214432
2.07271
0.021468
0.102355
0.021633
3.35619
0.0259165
3.02176
0.021252
0.0201444
0.245151
0.0227262
0.0217312
3.55416
0.0227811
0.020907
0.752766
0.0218554
0.022104
0.0658891
0.0229254
3.05239
0.0368306
0.0640869
0.134676
0.0234408
3.32024
0.022289
0.0617399
0.0213719
3.76908
0.336619
0.021809
0.0211826
0.0220982
0.0217993
0.0208013
0.0207344
0.0210878
0.0214004
0.0281382
0.0202792
0.0226071
0.0640521
2.67541
2.65022
0.0744636
0.0219071
0.260215
0.021158
0.17033
0.496813
24.3476
0.0203108
0.0207407
0.0216683
0.021551
0.0202905
0.0207356
0.0212281
0.0354319
0.0209147
13.3023
0.74448
0.0209368
3.36495
0.0213823
0.0212004
0.0287412
3.02036
0.0553581
0.0210956
0.406706
0.0212046
0.0212106
0.214631
0.0222105
1.1806
0.0223071
0.0718257
0.0208819
0.0210676
0.0299442
0.780183
0.0227075
3.1671
0.0340118
0.0226769
0.0233601
0.0214918
0.0208236
0.0787978
0.0320636
0.0245523
3.20077
9.62126
0.760321
0.0833203
0.0210257
3.32154
0.0210091
2.93476
0.0580802
0.0257528
0.0225455
3.03758
2.04874
2.4551
0.021914
0.391044
0.0208295
0.0212056
0.0330936
0.0220365
0.0216098
1.48444
4.18249
0.0210656
0.0265691
3.48868
0.0212238
0.0202333
0.688986
2.88236
0.0222486
0.0205783
0.0258265
0.0215754
0.0211667
0.0329662
0.0253235
0.0215168
0.578376
0.0219996
0.307397
0.526102
0.0312108
3.65288
0.0217829
0.0220146
0.0857607
3.91293
0.137182
0.0288095
0.0314027
0.0219412
0.0223336
0.021461
2.59186
0.0258748
0.0222549
0.0479913
0.021134
0.310677
0.0681003
0.0992003
0.0522316
0.193564
0.397027
2.34509
3.21884
0.0232088
0.191564
0.0202483
0.0535384
0.0721725
0.578882
0.0242425
0.0225025
0.0249826
1.33187
0.0229086
2.67426
0.0330025
0.0835879
2.74566
0.0211167
0.0852071
0.0232163
0.021591
0.029622
0.256518
0.0202732
0.0206996
0.0225711
3.01142
0.0209034
0.0227908
0.0234073
0.0222874
0.0215042
0.0909012
0.0600673
0.0222595
0.0209965
0.0951858
0.0737575
0.0387832
3.37432
0.0217981
0.0214366
2.19958
0.0215223
0.0229988
3.24272
3.53363
0.0292134
0.0535263
0.026173
7.86299
0.134511
0.0311763
2.3584
0.0211254
0.0729303
2.67762
0.166349
0.430048
1.06183
0.0206498
0.0215288
0.0239967
0.0215241
0.0216147
0.228071
0.0214379
0.0413969
0.0204789
0.0504108
2.68316
0.0229524
0.593013
1.5891
0.0214345
0.0651217
0.0257226
0.0226664
0.0213218
3.39857
0.0636294
3.71055
0.0267079
2.79922
0.0819948
0.0212669
0.67273
0.0332131
0.0241229
0.0211861
0.229856
0.0213282
0.0251683
0.0354847
0.025092
0.0219688
0.0498728
3.01344
0.0211278
0.190165
0.0779457
0.0216092
0.0211349
0.0242229
2.18153
0.167365
0.0208381
0.028874
0.0242772
0.769347
6.85171
0.0215721
0.0209251
0.0206478
0.0214977
0.0239588
0.0236555
2.59428
0.0220469
0.0239692
0.280799
0.0273044
0.0737724
2.88361
2.80678
0.0217829
0.0214328
0.0208818
0.0225262
0.0601078
3.71124
0.249319
0.0933762
0.0295591
0.0453013
0.0233322
0.0809768
0.0249266
0.0929444
0.0210704
0.129542
0.0712406
0.0207419
0.021739
3.12441
0.0450969
0.216572
2.68151
0.121204
0.021084
0.211238
0.023134
0.0212265
2.13233
0.574842
0.0210857
0.029344
0.0925308
0.031959
0.0221638
0.0203681
0.0211471
0.0208491
0.0213199
0.0284286
0.0461551
4.59895
0.0322719
0.0251515
0.0299775
0.0788444
0.0209632
0.032546
0.192928
0.194623
2.81278
0.022699
0.0203533
3.64636
0.0210235
0.14049
0.0227146
0.0390727
0.0218299
0.021069
0.17758
0.0255642
0.0226108
0.0214856
2.49054
0.24977
3.39407
0.0217358
0.0214972
1.01842
0.02092
0.0207581
0.136181
0.46418
0.0261009
0.0316238
0.0221023
2.94368
0.0212352
0.024096
0.0219697
0.0203396
0.189544
0.0212303
0.020832
1.80677
0.0517693
2.80669
0.191465
0.0211757
0.0288583
0.0209224
0.021047
0.0234248
0.0223823
0.0215875
0.162715
0.0215632
0.065904
0.028914
0.0267636
0.0215929
0.0231726
0.021144
3.43861
0.0202529
1.3289
0.0609931
0.022655
0.0470956
0.0315895
0.0291472
0.0214927
0.0272517
0.0209134
0.0207365
0.303533
0.0382962
0.0225478
0.0212529
0.0212582
0.0211016
0.0776179
0.0211362
2.96337
0.0421383
0.0211302
0.0213029
0.0206023
0.0418727
0.180272
2.10008
0.151258
0.324633
0.0264168
0.0909895
0.0235266
2.50196
0.0204715
0.0202153
0.0244721
0.292841
0.0206273
3.08899
0.0215522
0.0213535
0.140889
0.23169
8.52883
0.28171
0.0250844
0.185484
0.131474
0.0206997
2.56172
0.021393
0.021205
2.87415
0.0205361
3.1141
0.211086
0.0210528
0.0214132
0.0207289
3.58064
0.0213751
0.0203663
0.0650285
0.0211813
0.0208952
0.0214075
0.0207191
0.0410922
0.0216784
0.0241045
0.0206922
2.52062
0.656303
0.0207117
0.020719
0.0222016
0.0212875
0.0235723
0.021809
0.0212612
0.0217051
0.0214142
0.0223801
0.0214708
0.0686647
0.0205975
0.0702104
0.0215996
0.0583179
0.0208048
0.021568
0.0211268
0.0202985
0.0338965
0.0256107
0.024614
2.75694
0.0856252
3.40008
2.92516
0.0693774
3.57006
0.0215539
0.0214499
1.60613
2.93569
0.0212111
3.43834
0.0206826
0.100479
0.556161
0.0234577
0.072753
0.318732
1.85969
0.0212267
0.0426442
0.0209519
0.274937
0.0238879
3.23556
6.13108
0.0216652
0.545553
1.61588
0.0218325
0.448382
0.269907
0.022986
0.0209427
0.236748
3.42599
0.0206948
0.0302875
0.0218394
0.95532
0.129172
0.0215246
0.0208332
1.8931
0.0210068
0.0214414
0.022048
0.0207154
0.220433
0.0278659
0.0274431
3.2676
0.0213249
0.0544964
0.0216928
0.237198
0.050623
0.307922
0.0207731
0.0267144
0.0207807
0.0215487
0.0235003
0.0214652
0.722099
0.0225123
0.0207552
0.0211395
0.297391
0.0209255
0.620134
2.27711
0.50429
0.021486
0.0208985
0.0212355
0.646462
0.0217469
3.2346
0.0212933
0.692077
0.0228673
0.0226899
0.176045
0.0215747
0.0216377
3.48291
0.0937193
3.07645
0.0218534
3.4068
0.977707
0.0215124
3.23361
0.0216471
0.0249184
2.73641
0.0232595
0.0428978
3.77221
0.0295201
0.0602452
0.021581
2.62422
0.0214183
0.615052
0.021239
4.32498
0.02144
0.0215568
0.023351
0.36135
0.0209301
0.0673677
0.0585255
0.461971
0.0212473
0.028448
3.42274
1.18135
1.61406
0.0704237
0.0207993
0.0969639
0.442194
0.0237382
0.286087
0.020175
0.123902
6.32161
0.02097
6.74672
0.021305
3.36216
0.224199
0.0235249
0.0237619
0.597816
0.448364
0.0214659
0.0226421
0.0207289
0.0215387
3.06461
0.0590522
0.167349
0.0216083
0.0265104
3.14289
0.0280876
0.649933
1.99881
0.0211378
0.021376
0.158381
2.79519
2.89309
0.396634
0.16614
0.0357736
0.0515446
3.37626
2.69264
0.437272
0.0209427
0.071984
0.0411115
0.0652027
0.0214238
0.0254099
0.0543248
0.13518
0.454805
0.0220146
0.608102
3.25474
0.0424203
0.0214206
0.0214244
1.28077
0.0209304
3.49487
0.0270472
0.022065
0.197712
0.0312034
0.0206975
0.0335282
0.0284209
0.0214475
3.61744
0.0239241
3.64027
0.0209608
3.13215
0.215192
0.160799
0.0202961
0.025788
0.0300024
0.132118
0.11053
0.0598276
3.06941
0.180915
0.0196354
0.0251266
0.0222827
0.106951
6.48861
0.0206893
0.0206732
0.022553
0.504933
0.13156
0.0210123
0.0450563
0.205356
0.0209125
0.0275769
0.0236671
3.62467
0.0264099
0.212654
3.31038
0.0272812
0.0241406
0.304022
0.0211245
0.0460022
2.95633
0.0241189
0.0801487
0.0298365
0.0515152
2.78053
3.35925
0.0215593
0.85891
0.161675
0.0205438
0.108663
0.0604506
0.113164
0.632525
1.92744
0.472998
0.0973968
2.77902
0.0261118
0.0576317
0.0204898
0.0217251
0.0214953
0.0209004
0.186954
0.133695
0.0202739
0.0537464
0.143331
0.0211117
0.446722
3.00326
0.0201066
0.0217077
0.020664
0.0224287
0.0405871
0.0214148
2.76184
0.0282863
0.0637754
0.025373
0.0634371
0.0504316
0.0329399
0.950398
0.0214467
0.0225249
0.0202354
0.0209029
3.43864
0.0803507
0.0281342
2.88149
0.0216688
0.0219921
0.0316185
0.0207121
0.0210863
0.0688862
0.0247749
3.28715
2.62239
3.02288
0.0216115
2.91401
0.0212497
0.341682
0.0206766
0.116519
3.07316
0.0214419
0.352663
3.5516
0.0314245
0.0222872
0.0208442
0.026968
2.10948
0.0206896
0.0217637
0.0222671
0.0233384
0.158758
0.0226575
0.025023
0.0211058
0.0222341
0.276435
0.0319923
0.0236695
0.107092
1.22716
3.28058
1.10114
0.0229265
0.0223587
3.0283
0.0214405
0.0589884
0.0216368
3.13904
0.0220833
0.0218808
0.034442
2.6359
0.0213806
0.0207675
0.0204551
0.120648
11.8454
0.110941
0.0214728
0.0235301
0.0209115
3.32317
0.0212344
1.57006
0.050751
0.0216719
0.20159
0.0340215
0.288726
0.0220113
0.0207416
0.0287043
0.0417883
0.140893
0.0217042
0.0218938
0.0219704
3.0262
0.021552
0.0222911
3.31597
0.0228762
0.029562
0.0241441
0.0210691
0.0212301
0.573972
0.023165
0.410779
0.297409
0.019994
0.440377
0.0218277
0.0951316
0.0440842
0.0224911
0.0203384
0.0199682
0.0214021
0.877046
0.0430243
3.49358
2.79288
0.0209297
0.0248929
0.0357815
1.20917
0.0213975
0.231204
3.36768
3.03969
0.0212052
0.0227796
0.0219493
0.778782
3.4165
0.0219319
0.0215328
0.0290604
2.77049
0.0216521
0.0228512
0.0228071
0.0988173
0.223309
0.0204927
2.68003
0.0279121
0.0214093
1.39476
0.0506111
0.669819
1.10429
0.0307691
0.025147
0.0223518
0.0261904
0.0220371
0.0818624
0.0435297
0.0212692
0.0239915
0.19365
2.94445
0.020674
0.104421
2.91734
1.4873
0.0214145
0.021528
0.30569
2.66219
0.925005
0.0211373
2.40556
0.0578677
0.0200544
4.59084
0.0264982
0.0216718
0.223931
0.0213964
0.0410392
0.0208662
0.0198763
0.0215335
0.0204491
2.95951
0.0202555
0.0211518
0.0689488
0.0245015
0.0240778
0.112299
0.0214954
0.0214743
0.0227314
0.0223083
0.300883
0.325248
0.435945
0.931415
0.0335309
0.573436
0.0480361
2.91522
2.68815
2.8724
0.0208754
0.0295075
0.021418
0.0215111
0.0209619
0.0223531
0.159043
0.0523176
0.0365492
0.0210887
0.0213829
0.0493803
0.0217413
0.0218463
0.0214991
3.3146
0.0293731
7.81476
0.0216004
0.301508
0.0219423
0.0218081
0.0220983
0.0390759
0.0210446
0.0772698
3.05719
0.0379608
3.71739
0.485757
0.02278
0.0264984
0.387297
0.105507
0.0204188
0.0209174
0.019987
2.83977
0.0198584
0.714705
0.23208
0.070527
0.7028
1.20495
0.0575918
3.65042
0.0207152
0.0204463
0.293426
3.04117
0.0214045
0.0215853
1.19688
0.0209551
0.167246
0.0226773
0.0211175
0.0249221
0.0215042
0.064962
2.9992
3.2097
0.0242643
0.0214343
0.072902
0.0224399
0.0722673
0.0208863
0.114213
0.0774692
0.0218459
0.0216249
0.0200412
0.133807
0.0494311
0.163098
0.228229
0.0283044
2.88826
0.0644843
0.0929331
3.25565
0.0212674
2.79427
0.0222456
3.34694
0.162287
2.7568
3.07125
0.0219001
0.0493088
0.291701
0.0214239
3.88399
0.021466
0.0214857
0.025273
0.0220306
0.0291972
0.205848
1.41971
2.77798
0.0251474
0.0373075
0.0224403
0.0218045
0.0216592
0.129283
0.0748153
3.03255
0.0405845
0.0203189
0.0207409
0.0220197
0.200608
0.0237975
0.022375
0.0245403
0.0843607
0.0299098
0.0420837
0.0371516
2.84563
0.0280105
0.0308863
0.0214046
0.0253367
0.20844
0.389702
0.0435207
0.0207066
1.68936
0.030853
0.0211119
0.0445423
3.06307
0.318623
0.0318107
0.0209648
2.68771
0.0218945
0.0209207
0.0203648
2.92434
0.391613
0.0227692
0.486335
2.73752
0.0241488
0.0375577
0.0547799
3.6099
0.0290388
3.38619
0.0219318
0.21595
0.0248962
3.53052
0.0313949
0.0208239
3.15918
0.0216397
0.0222447
1.3402
3.16541
0.489378
0.265393
0.0240037
0.0225228
1.8489
0.0211169
0.0211789
0.0215688
0.0414991
0.0213832
0.0305458
0.0241514
0.310878
1.8371
0.0221105
3.877
0.0240458
3.10994
3.57387
0.0215432
0.0217065
0.0248772
0.214666
0.158655
0.0608773
3.05832
2.71625
0.150187
0.022651
2.90598
3.2127
0.0469558
0.769099
0.0215733
0.0213129
0.0215847
0.0223626
0.0212855
0.0312125
3.25457
0.0298534
0.304304
2.88476
2.72832
3.03968
3.30616
0.0274308
3.51343
0.0957608
0.0646308
0.0206552
0.0214701
0.0605622
4.16652
0.0225023
2.48012
3.22607
0.020913
0.021583
0.0217005
0.0865571
0.0219851
0.0661412
2.83648
0.0206482
0.021401
0.0208923
0.0221627
0.0838954
3.08128
0.0350861
3.08955
0.105149
0.0211503
0.295545
0.13935
0.0215719
0.451627
1.42837
3.0439
2.15323
3.54857
0.0213531
2.50492
3.11314
0.148678
2.96582
0.0209445
0.0230145
0.023548
0.0231306
3.18941
0.0604376
0.021679
0.0262804
0.340575
3.18137
0.0225179
0.0234689
3.44772
3.28987
0.0217022
0.0270557
0.0978305
0.0213144
0.0214075
3.0381
0.0211012
0.22416
0.297241
3.29939
0.021029
0.0675141
0.1224
0.0210815
0.0201034
2.03101
2.77654
0.0218798
0.0329151
0.14341
0.183235
3.43866
0.370203
0.0250609
0.315159
0.395464
0.0322702
0.0211051
0.109184
0.0204042
0.0202126
3.34228
0.0352039
0.0872723
0.0239772
0.0254201
0.0209339
0.0204486
0.0220689
0.0222571
1.21393
0.0237625
0.22244
6.32188
0.0398292
0.0639644
2.25717
3.45098
1.50405
0.020983
0.0243292
0.0327589
0.0248647
0.165859
0.359905
0.0220475
0.227197
3.35708
0.0258203
0.0790178
0.0675699
0.0858657
0.0935971
0.0225841
0.103632
0.113838
0.125547
0.139235
0.0967306
0.0741274
0.0267344
0.0210793
0.0309763
0.0786028
0.0210621
0.201071
3.56058
0.193592
3.13183
0.0200763
0.0206977
0.123559
2.54818
0.0221854
0.02354
0.0561799
3.0848
1.17978
0.0214648
0.0303308
0.024624
6.23175
0.339428
0.0237624
0.167052
3.15631
0.0873966
3.32858
0.0877371
0.305869
3.51406
0.0195742
3.60588
3.21711
0.0223752
0.0644589
0.0942283
0.0248997
0.0208689
0.292721
0.689175
0.020854
0.0209015
2.9072
0.713416
0.0734247
0.0216919
0.193599
0.115856
3.20734
3.84291
0.0215623
0.0213685
0.0221382
0.022639
3.32056
1.14331
2.93823
0.0735869
0.152469
0.429181
0.0226327
0.0210328
3.20959
0.0209005
3.4549
0.021025
3.33761
0.0224
0.022272
0.695265
0.021515
0.0954798
0.60224
0.0240378
0.0232571
0.0225164
0.153698
3.37715
0.151199
3.13929
0.0235139
0.0224585
0.0267588
0.0705718
3.71016
2.89755
0.0938759
0.192833
0.105511
2.13692
0.0217474
0.0208739
0.0206642
0.0206566
0.168442
0.0858854
0.235607
0.0379392
0.125486
0.0210991
0.341114
0.157388
6.78027
0.0214618
0.0226551
0.0198918
3.10892
0.0336124
0.404841
0.178363
0.103126
0.167732
0.0200131
0.0347186
0.140372
0.159537
0.583191
0.0216022
0.113389
0.0219394
0.0218679
0.105435
1.01311
2.19388
0.0217451
0.0814856
0.321143
3.10529
5.35589
3.31845
3.35369
0.0209978
0.0559445
0.021548
0.117556
0.0211438
0.11056
0.0229972
0.0452899
0.377855
0.600269
0.0231735
0.0999366
3.19541
0.0999966
0.0232408
1.36567
0.0917299
0.0221096
0.0221783
3.24514
0.0275387
0.12955
0.196147
0.224984
4.0943
0.0228534
2.75
3.04029
1.02736
0.342365
0.0298195
0.0934466
0.0854094
3.26371
0.524769
0.0220707
0.926817
0.0516369
0.19716
0.0268337
2.71369
0.918745
1.91906
0.0254502
1.29085
0.0238102
3.18086
0.140645
1.35586
7.59247
0.020931
0.0198764
3.20126
3.5694
0.0392495
0.021989
0.0385154
0.0289016
2.79902
0.0958029
3.24075
0.0253306
3.29438
0.122827
0.741708
0.022029
0.199848
2.78866
0.0233518
0.0733889
0.0200613
0.0239014
0.021607
0.345993
0.0211656
0.0216079
3.49034
2.78626
0.0206379
3.64212
0.0222128
0.0214678
0.021289
0.0208999
0.0217305
0.571441
3.42734
0.0206213
0.368439
0.0608049
0.0438194
0.55396
0.0752899
0.0249304
0.0303271
0.0212879
0.362298
0.0296618
3.67885
0.0241152
3.10157
0.577848
0.0653447
1.8193
3.36306
0.0207708
3.76351
0.0516168
0.0599885
0.0424068
0.0211505
0.152265
0.162709
0.0215666
0.56399
0.0214123
3.31028
0.123413
2.52318
0.151033
0.144235
3.4629
0.0215424
0.0211412
0.0566001
0.02273
0.0217072
0.0217354
0.0264121
0.0210721
0.0211902
0.0224915
0.0400036
0.0229836
0.0265901
0.0226788
0.0356371
0.0867972
0.0232802
3.41196
0.0230622
0.0212435
0.0812808
0.0390379
0.0227587
0.0210581
0.259661
0.0231604
3.27365
0.0233284
0.105184
0.0212929
0.0213752
0.0960871
3.55135
0.0635068
0.033805
0.0201514
3.21382
0.0216293
0.0211529
0.068763
0.0236261
0.12877
3.17731
0.0867437
0.141435
0.0383813
4.1591
0.0214428
0.0215911
0.0584945
0.298052
0.0541533
0.0935027
2.72506
0.0267995
0.021543
0.0269427
0.191972
0.051585
0.0215849
0.0881884
0.0841679
0.0598829
0.0217264
0.0216228
0.169139
0.0590393
2.11346
0.555239
0.0233692
0.0643051
0.0217015
0.0409133
0.449907
0.0216588
0.143788
0.167758
0.0781039
0.671753
0.0215318
0.0213336
0.0212405
3.48572
0.187921
0.0232096
0.0969377
0.0960615
0.0216781
0.0213814
0.525667
3.58557
0.170845
3.22596
0.183358
0.0292503
0.330009
0.105354
0.0290932
0.325193
0.0772622
0.265362
0.0214963
0.084685
0.115909
0.022252
0.211377
0.0364358
0.0821191
0.0263628
0.128497
0.0210794
4.13108
0.024107
0.0207919
0.0209333
0.0207381
0.0225011
0.0223089
0.0208731
0.023759
0.0215826
0.0221975
0.375503
0.0701636
0.0221116
0.0594573
0.0241923
0.0235415
0.0204111
0.0430329
0.0265588
2.29913
0.021549
0.0215741
0.0642585
0.249733
0.0215668
0.0215193
0.110731
0.0232621
0.0904562
0.0564658
0.0215091
7.8692
0.0234586
0.022202
0.0709772
3.68361
0.0221334
0.0542395
0.020851
0.0251629
0.0213163
0.0265493
0.0211698
0.021588
0.0390436
0.0568153
13.6769
0.0475734
0.0214765
0.027703
3.30724
0.047983
0.155125
0.0880025
0.0216204
0.0501978
0.82692
0.160182
0.361216
0.0252963
3.45155
0.371042
0.0289611
0.0216773
0.0714641
0.0221581
0.0511783
3.19901
0.0215328
0.54125
0.021747
3.03015
0.0585227
0.0222729
0.0574299
3.09789
0.309296
0.0235359
0.0673675
0.0292464
0.0206211
2.34466
0.0205037
0.0331319
0.0210801
0.0245345
2.66651
0.0647737
0.0205764
0.02839
0.183222
0.0215197
0.0218464
0.0273372
0.0248276
0.0214314
0.023455
0.0240541
0.0219595
0.0210763
0.0563475
0.0909246
0.152482
0.0210181
0.0532662
3.12088
4.49913
0.0209995
0.0215648
0.024598
0.0806557
0.0220929
0.0210529
0.0211964
0.02086
0.025368
0.0267074
0.0241304
0.0595514
0.0230805
0.0204239
0.0230854
0.0579472
0.0442083
0.0934904
0.022086
0.027809
3.31376
0.0289881
0.0242243
4.27885
3.28619
0.0863669
0.0625735
0.141467
0.0213279
0.359782
0.0264153
3.48072
0.0214036
0.0212209
1.62048
0.0208007
0.274223
3.12459
0.0219311
14.9318
0.0295095
0.0305935
0.0263268
0.0699224
0.0284013
0.0255897
0.904032
0.0208618
0.0238561
3.62937
0.0228617
0.0214203
0.0290368
3.27073
0.0221156
0.022117
3.26814
0.023115
0.0263007
0.0527537
0.0203385
7.36141
0.0237487
0.0222516
0.113197
0.0519979
2.84236
0.0231933
2.487
0.0321127
0.0845205
3.10291
0.021525
0.0312029
0.0800131
0.0220956
1.54176
0.0221439
0.0229944
3.0623
0.0221786
0.0387021
0.0839633
0.642624
0.0290325
0.0258345
0.0222397
0.0235425
0.0791095
0.0241213
0.0295419
0.109073
0.0490264
0.0216055
3.49171
0.0362628
0.0204351
0.0226801
0.0212299
0.0207649
0.0203429
0.0215378
0.021493
0.0287572
0.0235464
0.0454914
0.0202055
0.0204338
0.0222408
0.072738
0.0207295
0.0293617
0.089171
0.0283015
0.0288013
0.021382
0.0230047
0.0238862
0.0375182
0.0277718
0.0238825
2.5882
0.0216721
1.94746
0.0243773
0.0782236
0.087091
0.0215015
0.0536724
0.0301017
3.23885
3.15177
0.0248663
0.0216926
0.0232591
0.0286324
0.0450074
0.0214841
0.342526
0.0500848
0.0221857
0.0664259
0.060392
0.0827652
0.0278005
0.22642
0.151541
0.0263997
0.295679
0.0228061
0.112204
0.0223525
0.0212552
0.0728491
0.0779703
0.021389
0.0460363
0.0214357
0.0216279
0.0214377
0.0219681
0.0214645
0.0214008
0.0213791
0.0221121
0.139519
0.0224689
0.0213423
0.0223881
0.0224236
0.166648
3.10298
0.084464
0.0238255
3.39033
0.0214136
0.0213548
0.699754
0.0308148
0.0221237
0.022156
0.0216258
0.183375
0.021718
0.0250105
0.0222158
0.0332693
3.88911
0.0214469
0.0677758
0.0613289
0.0246533
0.0402726
0.0207052
0.0216532
0.055487
1.15062
0.0230263
0.0356499
2.93988
0.0849953
0.0208029
2.67684
0.0225319
0.0196354
0.0773508
3.44882
0.0214211
0.0207133
0.0229338
0.0312011
0.033976
0.0214141
0.0223031
0.0374508
0.02165
0.0283209
0.0252075
1.26873
0.0204478
2.49618
0.345704
0.0406168
0.0212986
0.080955
0.0210104
0.0231925
0.0215538
0.0509646
0.0201766
0.0201576
0.0378695
0.0846176
0.954842
0.0218491
0.0200805
0.0230563
0.0208052
3.04379
0.0231306
0.0226348
0.0220411
0.0578437
0.0448584
0.0232675
0.0228756
0.0420962
0.0216293
0.0214906
0.0231777
0.0220562
0.13367
0.0211467
0.0293236
0.0219347
0.0214951
0.0463355
0.084919
2.93387
0.021438
0.0787125
0.238215
2.87054
3.31209
0.0321702
0.0214961
0.0241502
0.0287777
1.11253
0.0218102
0.0246604
0.0263013
0.0296249
0.0202325
0.0503567
0.0440237
0.602058
0.0220157
0.0216516
0.0900797
0.78858
0.0201099
0.0241639
0.0320232
0.0199737
0.0223661
0.0428571
0.0215472
0.0214355
0.0216789
0.0240744
0.0735979
0.034056
0.0223782
0.0206585
0.0220948
0.194109
0.0199121
0.0208214
0.0254546
0.0803065
0.0250461
3.74053
0.0241273
0.0214362
0.0215089
0.0228818
0.0211992
0.0315466
0.474781
0.0208901
0.0209975
0.0219494
0.0212901
0.0220188
0.0435717
2.57022
0.0225235
0.0924352
0.0229942
0.0213016
0.194427
0.0232704
3.49034
0.0217627
0.0216989
0.0207221
0.0214576
0.0224268
0.0293937
0.0424447
0.145266
0.0272744
0.0504322
0.0217266
0.0322384
0.0214295
0.0231721
0.0317788
2.03738
2.93866
0.0217943
3.36343
0.132281
0.0400603
0.181079
0.01984
0.0214006
0.021624
0.0227491
2.47391
0.020764
0.0638129
0.184093
0.0222972
0.0787023
0.0199616
0.0310534
0.373864
2.31875
0.021769
0.312095
0.101449
0.272094
0.0256286
3.32085
0.0224617
0.136078
0.10393
0.0204973
0.0433983
0.031021
0.0233768
0.259802
0.0294757
0.0209287
0.0228821
0.33159
0.0217007
0.0715385
0.0215545
0.0198854
0.0230091
0.0312649
0.0215186
0.0771518
0.0260182
0.023483
0.0198743
0.0214652
0.514663
0.0783597
0.191319
0.0321821
0.0245708
0.0272565
0.0250701
0.021411
0.022564
0.0340603
0.0229705
0.0238479
0.0203793
0.0253558
2.49576
0.0219373
2.29232
0.122045
0.0216175
0.0216255
0.0202522
0.0281912
0.037879
0.0200858
0.025022
0.0227524
0.0218981
0.021106
0.0219847
0.0212377
0.0215629
0.268816
0.0218643
0.0262016
0.0214492
0.146268
0.143482
0.021437
0.307996
0.02159
0.0236584
0.0310112
0.414928
0.0280639
0.0209961
0.0213105
0.0323563
0.0401248
0.130118
0.022638
0.0471124
0.124722
0.0218926
0.0214648
0.12618
0.0496413
0.0299724
0.0216541
0.0227607
0.0225733
0.0231428
0.0208723
2.16589
0.0237241
0.0236732
0.0206228
0.027424