/*--------------------------------*- C++ -*----------------------------------*\
| =========                 |                                                 |
| \\      /  F ield         | OpenFOAM: The Open Source CFD Toolbox           |
|  \\    /   O peration     | Version:  v2012                                 |
|   \\  /    A nd           | Website:  www.openfoam.com                      |
|    \\/     M anipulation  |                                                 |
\*---------------------------------------------------------------------------*/
FoamFile
{
    version     2.0;
    format      ascii;
    class       surfaceVectorField;
    location    "950";
    object      Uf;
}
// * * * * * * * * * * * * * * * * * * * * * * * * * * * * * * * * * * * * * //

dimensions      [0 1 -1 0 0 0 0];


internalField   nonuniform List<vector> 
20537
(
(1.01825 -0.00905826 -3.64742e-23)
(1.01831 -0.00873476 3.05792e-22)
(1.01815 -0.0089248 -2.45047e-23)
(0.552866 0.165279 -1.53228e-21)
(0.565081 0.156453 1.8906e-23)
(0.574568 0.148537 7.4241e-22)
(1.05002 -0.0640692 -2.82279e-23)
(1.04795 -0.0645178 2.02041e-21)
(1.04921 -0.0664147 1.18502e-20)
(1.0184 -0.00845079 -2.78681e-22)
(1.01837 -0.00850954 1.76713e-22)
(1.01853 -0.00820162 -2.35349e-22)
(1.06593 -0.0527136 -5.3114e-21)
(1.06522 -0.0534034 -8.51386e-23)
(1.06502 -0.0523906 1.05888e-23)
(1.06691 -0.0218841 -4.20636e-22)
(1.06559 -0.0104176 3.26612e-22)
(1.05782 -0.0166854 -1.31446e-22)
(1.03054 -0.00161535 5.29831e-21)
(1.03114 -0.00183284 -1.90642e-21)
(1.03098 -0.00134011 3.48057e-21)
(1.04516 -0.0478019 -2.96529e-21)
(1.04599 -0.0465423 -3.23073e-22)
(1.04682 -0.0482291 1.17511e-20)
(1.01004 -0.00117801 -7.68026e-23)
(1.01025 -0.00120524 -2.13671e-22)
(1.01003 -0.00114088 -1.03658e-22)
(1.01256 -0.0707869 -5.26746e-23)
(1.01157 -0.0666802 1.39878e-23)
(1.01615 -0.0683153 -3.118e-22)
(0.928347 -0.035788 4.82083e-22)
(0.924121 -0.0526236 -3.5403e-22)
(0.939135 -0.0535548 -6.9579e-21)
(0.518764 -0.160477 6.12534e-21)
(0.50649 -0.162975 -2.14748e-21)
(0.459968 -0.162495 4.44502e-21)
(0.977767 -0.0516643 2.63767e-21)
(1.01714 -0.0514018 -2.82922e-21)
(0.98536 -0.051984 -9.79635e-21)
(0.143436 0.213442 8.05754e-21)
(0.15032 0.205977 -6.80246e-21)
(0.0911957 0.21451 -6.20012e-21)
(1.01956 -0.000505355 0)
(1.01961 -0.000455596 9.69591e-22)
(1.0197 -0.000542502 0)
(1.03029 -0.0310573 -6.18325e-22)
(1.0311 -0.0318842 2.39314e-21)
(1.02991 -0.0322631 -8.90684e-22)
(1.04066 -0.0234698 0)
(1.03987 -0.0229328 3.43321e-21)
(1.04074 -0.0227211 1.6828e-21)
(1.02149 -0.0214652 1.58081e-22)
(1.0221 -0.0211745 -4.23461e-23)
(1.02214 -0.0221498 -3.74641e-23)
(1.07376 -0.0516016 -6.50703e-21)
(1.07462 -0.0515501 8.01097e-21)
(1.07435 -0.0525165 3.95278e-21)
(1.00982 -0.00115595 -2.52386e-22)
(1.01004 -0.00121995 2.08074e-22)
(1.01837 -0.00827414 -1.86919e-22)
(1.01835 -0.00862878 -3.41074e-23)
(1.05142 -0.0619218 -4.48708e-21)
(1.05264 -0.0637182 2.65971e-21)
(1.0026 -4.71722e-06 -7.20705e-23)
(1.00301 2.20971e-05 -1.79059e-22)
(1.00355 4.59658e-05 2.44768e-23)
(1.00462 -0.000146355 4.20732e-23)
(1.00293 -3.86689e-05 -1.93307e-23)
(1.00479 -0.000150725 -3.2753e-23)
(1.00223 -3.67432e-06 0)
(1.00164 -4.5861e-05 0)
(1.04346 -0.0476828 -2.94385e-21)
(1.04446 -0.0494628 -7.20827e-21)
(1.05044 -0.0176409 1.1072e-21)
(1.05 -0.0168913 -3.7023e-21)
(1.04951 -0.0175248 -1.58445e-20)
(0.0123484 -0.0963632 -1.13745e-20)
(0.0241371 -0.103858 2.67551e-21)
(1.01833 -0.00920137 -7.00676e-24)
(1.01821 -0.00949968 -2.00972e-22)
(1.02585 -0.0182303 5.68951e-22)
(1.02627 -0.0185637 4.77979e-22)
(1.02584 -0.0185915 1.52997e-21)
(1.0667 -0.0322296 -4.21533e-22)
(1.07738 -0.0287901 -2.70102e-21)
(1.04045 -0.0243274 1.86531e-21)
(1.04146 -0.0241301 0)
(1.04642 -0.0628763 -8.69971e-21)
(1.04545 -0.0652871 -8.84135e-21)
(0.921519 0.126413 2.85035e-21)
(0.9164 0.13968 -4.17191e-21)
(0.907959 0.137432 -2.53645e-21)
(1.00452 -0.000107389 1.85812e-23)
(1.00594 -0.000213781 1.2414e-23)
(1.08335 -0.05604 3.55805e-21)
(1.08405 -0.0562475 1.42582e-20)
(1.08309 -0.056993 1.35693e-20)
(1.0913 -0.0615562 -9.07619e-21)
(1.08947 -0.0605478 -6.05847e-22)
(1.09022 -0.0611394 -1.66132e-20)
(1.07626 -0.0703516 -3.86361e-21)
(1.0773 -0.0676382 5.08434e-21)
(1.07534 -0.0686028 1.38046e-21)
(1.00954 -0.0729513 -2.45396e-22)
(1.01426 -0.0749538 1.51345e-21)
(0.94066 0.108137 0)
(0.926163 0.103242 0)
(1.01664 -0.00652195 -8.66523e-22)
(1.01667 -0.00661029 -6.38524e-22)
(1.01689 -0.00675211 6.45742e-22)
(1.00812 0.000105642 8.53588e-23)
(1.00804 9.64577e-05 1.43407e-22)
(1.00785 9.89781e-05 2.82211e-24)
(-0.0135235 0.0270022 -3.82813e-22)
(-0.0170073 0.0234942 1.44667e-20)
(-0.0163642 0.0324993 0)
(0.905787 -0.090916 -2.34952e-22)
(0.914471 -0.10503 -3.65e-22)
(0.916644 -0.0900063 -1.33395e-22)
(0.898139 -0.0713059 8.10234e-22)
(0.897672 -0.0908181 -2.34544e-22)
(0.00692194 -0.0047177 -7.61901e-21)
(0.0382852 -0.0145885 -8.26558e-21)
(0.0471065 -0.00617476 8.82333e-21)
(0.898027 -0.129333 -1.01474e-21)
(0.897928 -0.120991 9.62017e-22)
(0.89763 -0.118177 -3.29391e-22)
(0.820245 0.00868138 -4.05728e-22)
(0.81259 -0.015452 -4.09406e-22)
(0.812668 0.0225092 -9.50971e-22)
(1.05083 -0.0184213 2.68641e-21)
(1.05135 -0.0177344 -6.2491e-22)
(1.03081 -0.0315023 -3.32267e-23)
(1.02842 -0.0254081 -1.42207e-21)
(1.03634 -0.0259125 -2.80872e-23)
(1.07185 -0.0472298 -1.70405e-21)
(1.07236 -0.0477053 -1.27752e-20)
(1.07249 -0.0468968 -6.11523e-22)
(1.0719 -0.052748 1.53811e-20)
(1.07209 -0.052586 -1.81413e-22)
(1.07223 -0.0529397 8.54448e-21)
(-0.026087 -0.104495 1.3087e-20)
(-0.0226859 -0.0998027 -2.37325e-21)
(-0.018616 -0.109796 -2.80789e-21)
(1.01927 -0.000505967 -1.33402e-23)
(1.01885 -0.00028785 -9.24836e-22)
(1.01937 -0.000538992 5.91399e-22)
(1.01202 -0.000733668 0)
(1.01193 -0.000708919 0)
(1.01293 -0.000831439 -4.81166e-22)
(1.0082 0.000113623 4.88622e-23)
(1.0084 0.000115227 9.29285e-23)
(1.00504 -7.4668e-05 -1.65702e-22)
(1.00559 -7.96526e-05 -1.29315e-22)
(1.00462 -5.49837e-05 -2.77683e-22)
(-0.0223261 -0.109909 0)
(-0.0255025 -0.106635 -2.02277e-20)
(-0.00889454 -0.110057 1.34692e-20)
(1.02587 -0.0177239 0)
(1.02536 -0.0178147 0)
(1.03183 -0.00439581 1.2169e-21)
(1.03132 -0.00409899 3.0595e-21)
(1.03195 -0.0039387 1.49741e-21)
(1.08271 -0.0719953 -1.66598e-21)
(1.07431 -0.0730652 2.67114e-21)
(0.578966 0.0191811 -6.61515e-22)
(0.562132 0.021291 9.39734e-21)
(0.506623 0.0307515 8.45472e-21)
(1.00592 -0.0392047 -7.0239e-22)
(1.00154 -0.0380699 4.35153e-24)
(1.0052 -0.0348286 2.17443e-21)
(1.06804 -0.052902 -8.18371e-21)
(1.06757 -0.0533768 6.46639e-21)
(1.06829 -0.0535678 -2.96637e-23)
(1.06155 0.0276573 -4.48758e-22)
(1.07573 0.0129544 -5.24456e-22)
(1.06694 0.0166782 -4.14269e-22)
(1.01828 -0.00739144 5.12422e-22)
(1.01856 -0.00744154 2.96111e-22)
(1.01872 -0.0068877 -1.3385e-22)
(1.08322 -0.0628724 -1.17242e-21)
(1.08581 -0.0624289 -6.75504e-21)
(0.898478 -0.132541 1.12729e-21)
(0.898781 -0.134594 5.57756e-22)
(1.06249 -0.0326491 0)
(1.06156 -0.0330581 0)
(1.06152 -0.0319474 1.5701e-22)
(1.02097 -0.0207495 1.43343e-22)
(1.02069 -0.0217288 -2.7581e-22)
(0.338756 -0.00362456 3.20716e-21)
(0.327915 -0.00267075 2.28591e-23)
(0.304437 0.00112702 -2.11407e-22)
(1.02607 -0.0632045 -8.96969e-21)
(1.02434 -0.0640803 -2.48345e-21)
(1.05788 -0.0639263 -7.68056e-22)
(0.556811 0.171034 -4.1964e-21)
(0.544652 0.177736 -1.52942e-21)
(1.01944 -0.000475079 8.20971e-22)
(1.0191 -0.000518242 -3.4606e-21)
(1.01282 -0.00107653 6.82003e-22)
(1.01303 -0.00120431 6.17941e-22)
(1.01285 -0.00126427 -3.57695e-22)
(1.0123 -0.0014877 -2.29396e-22)
(1.01234 -0.00144138 -1.13779e-22)
(1.01207 -0.00144643 -3.05091e-22)
(1.05257 -0.0609465 2.18068e-21)
(1.05081 -0.0610579 -2.01284e-21)
(0.449942 -0.00592338 0)
(0.470286 -0.0092385 0)
(0.453016 -0.0049283 -1.20242e-21)
(1.05941 -0.0434536 7.25585e-21)
(1.0603 -0.0441708 4.52754e-21)
(1.05925 -0.0446052 -9.73329e-22)
(0.315924 -0.00477575 -5.03487e-21)
(0.288429 -0.00290972 1.35586e-20)
(1.03501 -0.00810342 -1.0926e-21)
(1.03428 -0.00806728 0)
(1.03445 -0.00752634 -2.34127e-21)
(0.909759 0.0747154 3.81033e-21)
(0.92081 0.0789945 2.43653e-22)
(0.910373 0.0904348 -3.18727e-22)
(1.02171 -0.00415362 -1.26798e-21)
(1.02192 -0.00440424 -1.13672e-21)
(1.02149 -0.00427475 3.09537e-21)
(0.0165151 -0.0253514 -8.99814e-21)
(0.0469101 -0.0301829 -1.31505e-20)
(0.00404713 -0.0258384 1.66786e-21)
(1.00991 -0.0399045 1.67411e-22)
(1.00701 -0.0435678 -1.0149e-21)
(0.527217 -0.157572 1.04832e-21)
(0.580544 -0.159395 -4.69294e-23)
(1.0381 -0.0221439 -1.61636e-22)
(1.04378 -0.0217325 -4.87477e-22)
(1.03895 -0.0177723 8.97e-22)
(0.599963 0.0343563 -1.26457e-20)
(0.662881 0.0374752 2.89503e-21)
(0.650323 0.0207449 -1.55835e-20)
(1.04726 -0.0226585 1.13311e-21)
(1.04647 -0.0230774 2.77526e-21)
(1.04752 -0.0237127 5.09751e-22)
(1.01361 -0.000704114 -1.10719e-22)
(1.01328 -0.000671555 3.54559e-22)
(1.01342 -0.000604237 0)
(1.0824 -0.0553453 -1.82853e-20)
(1.08274 -0.0559694 -1.10893e-20)
(1.00841 0.00303621 -6.39896e-22)
(1.00517 0.00292858 -6.19695e-22)
(1.00762 0.0058302 1.33898e-21)
(0.898707 -0.125664 5.75998e-22)
(1.05081 -0.0269626 4.02606e-21)
(1.05049 -0.0276542 0)
(1.05148 -0.0276897 0)
(1.04727 -0.0219076 -3.23586e-21)
(1.04826 -0.0223207 6.7369e-21)
(1.00315 -1.67589e-05 -4.96199e-22)
(1.00323 -1.50738e-05 2.81216e-22)
(1.00425 -0.00011759 3.58274e-22)
(1.06674 -0.0532214 1.76221e-21)
(1.06663 -0.052279 -4.78204e-21)
(0.644332 -0.0371012 -5.31695e-21)
(0.617107 -0.0350889 -2.80062e-21)
(0.622866 -0.0374847 5.38195e-21)
(1.03472 -0.038364 -3.83474e-23)
(1.02499 -0.0350505 -3.80759e-23)
(1.00176 3.0864e-05 -1.48275e-22)
(1.00303 -3.62006e-05 1.06427e-22)
(0.012483 0.132392 3.76391e-21)
(0.0780855 0.149529 -4.09806e-20)
(0.039536 0.157977 2.23583e-20)
(1.06533 -0.043422 -5.12722e-21)
(1.06618 -0.0430138 1.19201e-20)
(1.06524 -0.0424707 1.90063e-20)
(1.01974 -0.0111148 0)
(1.01995 -0.0114827 -3.74113e-22)
(1.01966 -0.0112237 1.83447e-22)
(1.05595 -0.0102214 4.75541e-22)
(1.05686 -0.0105585 -7.1191e-21)
(1.00266 3.14345e-05 -2.01302e-23)
(1.00341 3.47889e-05 0)
(1.0028 2.56221e-05 7.03747e-24)
(1.03226 -0.0309621 -3.56753e-22)
(1.02815 -0.0343216 3.23215e-21)
(1.0277 -0.0284314 1.72298e-22)
(1.06849 -0.0437462 1.19474e-21)
(1.06777 -0.0440892 -6.86262e-21)
(1.06852 -0.0446849 -1.85602e-20)
(1.00724 0.000101338 5.04199e-23)
(1.00719 0.000102441 7.84347e-24)
(1.00704 9.30807e-05 2.4885e-23)
(0.947732 -0.0619138 8.55913e-22)
(0.901606 -0.061074 -8.41559e-21)
(1.07218 -0.00330129 3.04474e-22)
(1.06077 -0.00206616 -5.30266e-21)
(1.00337 -6.30106e-05 -1.09228e-22)
(1.00191 -1.55251e-05 2.35344e-23)
(1.00327 -5.76831e-05 2.86889e-22)
(1.0139 -0.000744464 -1.00159e-22)
(1.0138 -0.00082773 1.10374e-22)
(1.01091 0.00321594 -2.87025e-22)
(1.0091 0.000970826 0)
(1.00125 2.86065e-05 -2.50271e-23)
(1.00125 -2.88086e-05 0)
(1.0045 -0.000112735 3.85717e-24)
(1.00327 -5.36677e-05 -2.3445e-22)
(0.851429 0.167276 2.2013e-22)
(0.839269 0.18094 -1.30263e-23)
(0.675671 -0.0402465 8.72515e-21)
(0.67142 -0.0385048 -1.36884e-20)
(1.00661 5.47844e-05 0)
(1.00665 5.65121e-05 0)
(1.00666 6.28478e-05 1.27976e-22)
(1.00675 -0.000322071 0)
(1.00658 -0.000316138 0)
(1.00442 -0.000163957 0)
(1.01149 -0.000623294 -4.91651e-22)
(1.01018 -0.000577111 1.28687e-21)
(1.00971 -0.000466983 1.04152e-23)
(-0.0132322 0.0226964 1.2674e-20)
(-0.00911513 0.0330466 -1.59448e-20)
(1.05537 -0.0111756 -7.34619e-21)
(1.05479 -0.0100839 1.34993e-21)
(0.972091 -0.0512759 9.70642e-21)
(0.932917 -0.0515886 9.91437e-21)
(0.896489 0.173127 6.97483e-22)
(0.829252 0.0296036 0)
(0.839259 0.00530655 -7.35378e-22)
(1.01434 -0.000837849 -2.19485e-22)
(1.0143 -0.000403403 1.3313e-22)
(1.01427 -0.000406439 -1.5126e-22)
(0.841795 0.0488515 0)
(0.829023 0.0632574 0)
(1.06221 -0.0434004 -4.19308e-21)
(1.06303 -0.0432289 5.8909e-21)
(1.06278 -0.0443076 -6.66616e-21)
(1.01833 -0.00818825 -6.42963e-23)
(1.01845 -0.00802401 -2.47239e-22)
(1.07122 -0.0580123 -5.32603e-21)
(1.07069 -0.057473 0)
(1.07174 -0.0571602 0)
(1.0164 -0.00628535 -4.10928e-22)
(1.01661 -0.00641444 -3.52037e-22)
(1.00918 -0.00122905 0)
(1.00934 -0.00131474 -1.73013e-23)
(1.00923 -0.00124659 -2.98977e-23)
(0.348532 -0.00604352 9.13233e-21)
(0.359974 -0.00967494 6.81178e-21)
(1.02188 -0.00398086 -1.89957e-21)
(1.02144 -0.00386278 -4.26514e-21)
(0.832951 0.164969 2.28134e-22)
(1.00905 -0.000616107 -8.60671e-23)
(1.00893 -0.000583747 -5.48101e-23)
(1.00858 -0.000501642 -1.13493e-22)
(1.00657 4.93841e-05 0)
(1.00655 4.52516e-05 -4.25508e-23)
(1.03151 -0.0625085 -1.42914e-20)
(1.03649 -0.0624695 7.01191e-21)
(1.06322 -0.0633172 -6.76226e-21)
(0.0807582 0.094643 0)
(0.0401864 0.116643 3.39653e-22)
(0.0644342 0.0968264 0)
(0.158878 0.0684909 2.23921e-22)
(0.199668 0.0654366 -3.14382e-21)
(0.164159 0.0480462 2.4615e-22)
(-0.019085 0.0966675 3.46594e-20)
(-0.0385761 0.111011 2.19268e-20)
(1.01236 -0.000874942 2.28841e-22)
(1.0106 -0.000432117 0)
(1.01514 -0.00181321 3.81055e-22)
(1.01511 -0.00212266 8.85002e-22)
(1.0151 -0.00156707 -5.44596e-23)
(1.01122 3.71228e-05 1.7053e-22)
(1.01104 3.61272e-05 -1.14007e-22)
(1.01142 4.11804e-05 1.70833e-22)
(1.03365 -0.0180983 2.91275e-21)
(1.03412 -0.0187414 7.30027e-21)
(1.03419 -0.0179819 8.59108e-22)
(0.912537 -0.118119 -1.55489e-21)
(0.925509 -0.113061 -7.8307e-22)
(1.02359 0.0068576 8.04951e-23)
(1.02461 0.00521005 3.49388e-22)
(1.02195 0.00549108 -4.54209e-22)
(1.07263 -0.0587881 -5.51743e-21)
(1.0708 -0.0591494 3.9746e-21)
(1.02989 -0.0013465 1.97526e-22)
(1.03 -0.00182085 1.49532e-21)
(0.901063 -0.0507391 -2.80362e-22)
(0.894515 -0.0460582 -1.27195e-21)
(1.08338 -0.044283 -5.77209e-21)
(1.08304 -0.0451687 1.018e-21)
(1.01047 -0.000683846 1.3796e-21)
(1.01082 -0.000667 1.91798e-22)
(1.01171 -0.000725483 -1.07123e-21)
(0.116738 0.218211 1.65411e-20)
(0.194383 0.212374 6.31424e-21)
(1.00454 -5.64654e-05 -1.35364e-22)
(1.00543 -0.00010311 0)
(1.04045 -0.0153024 -4.16274e-21)
(1.04113 -0.0154342 -3.05176e-21)
(1.04066 -0.0146701 -4.21259e-21)
(1.0331 -0.018311 -3.50721e-21)
(1.03307 -0.0175513 -1.66197e-21)
(1.0127 -0.00330989 -1.98193e-23)
(1.01251 -0.00318154 -8.51938e-23)
(1.01268 -0.00324055 -1.13137e-23)
(1.02666 -0.0169293 9.01208e-22)
(1.02665 -0.0165095 2.24724e-21)
(1.02708 -0.0169219 8.46929e-22)
(1.07215 -0.0530841 -2.84587e-21)
(1.07161 -0.0527575 3.42874e-21)
(1.07124 -0.0466856 1.95946e-20)
(1.07118 -0.0475049 4.47296e-21)
(1.01071 0.000283193 0)
(1.01034 0.000267842 1.21255e-23)
(1.01057 0.000274756 0)
(1.05747 -0.0240448 2.52895e-22)
(1.0573 -0.0247513 -7.88153e-21)
(1.05823 -0.0245881 -2.5771e-21)
(-0.0173859 -0.113273 -2.0251e-21)
(-0.0289638 -0.108931 5.00735e-21)
(1.00902 -0.00115 3.10338e-23)
(1.00914 -0.00121223 0)
(1.02742 -0.0222217 2.30697e-22)
(1.02779 -0.0224104 -8.04967e-22)
(1.02751 -0.0219411 4.5959e-22)
(1.0096 4.85653e-05 7.53926e-23)
(1.0098 4.20857e-05 -3.06556e-23)
(1.00948 3.51515e-05 8.11956e-23)
(1.02247 0.00876165 -1.61372e-22)
(1.02586 0.00886916 -5.96728e-23)
(1.06343 -0.0333493 0)
(1.06337 -0.0322042 -5.94899e-21)
(1.01824 -0.00827452 1.60311e-22)
(1.01823 -0.00804857 6.25633e-23)
(0.494265 -0.0242166 -7.21053e-22)
(0.444826 -0.0267943 -5.91204e-24)
(0.498714 -0.0283138 5.84885e-21)
(0.422702 -0.00152578 -1.12492e-20)
(0.445936 -0.00581923 0)
(1.00735 -0.000426866 2.79317e-22)
(1.00745 -0.000449922 -9.71415e-23)
(1.00749 -0.000450092 -9.6925e-23)
(1.01289 -0.00344574 -2.39878e-23)
(1.01272 -0.00337565 -2.28892e-23)
(0.131376 0.0720421 -1.20551e-21)
(0.161086 0.0875272 0)
(1.00886 -0.00107117 3.09563e-23)
(1.0089 -0.00108027 -1.65684e-23)
(0.810105 -0.0405202 0)
(0.825768 -0.0392034 0)
(1.06111 -0.0438359 3.93754e-22)
(1.06131 -0.0426553 2.32398e-21)
(1.01582 -0.00339294 9.07192e-22)
(1.01607 -0.00358523 4.6912e-22)
(1.01606 -0.00376793 6.37177e-22)
(1.05635 -0.0503458 -7.04175e-21)
(1.07663 -0.0521972 -1.01759e-20)
(1.00769 0.000124855 5.93632e-24)
(1.00775 0.000127656 -2.45445e-23)
(1.00796 0.000133138 -4.80567e-23)
(1.04099 -0.0257065 2.73701e-21)
(1.04029 -0.0251014 -3.30734e-22)
(1.04013 -0.025906 -1.95663e-21)
(0.991233 -0.0625797 -1.93277e-20)
(1.02174 -0.00351256 2.71205e-21)
(1.0215 -0.00327116 0)
(1.02136 -0.00344066 2.57413e-21)
(1.05362 -0.0653225 7.86861e-21)
(1.0545 -0.063538 -3.09944e-21)
(1.00622 6.97232e-05 -1.08951e-23)
(1.00584 6.21202e-05 0)
(1.00608 6.6343e-05 -8.88116e-24)
(1.0029 -5.35618e-05 2.16338e-22)
(1.00321 -3.51873e-05 -1.15592e-22)
(1.0039 -8.4677e-06 6.56828e-23)
(1.01787 -0.00737014 -3.51525e-22)
(1.01797 -0.00790581 2.41763e-22)
(1.01252 -0.000911177 -2.0314e-22)
(1.01247 -0.000866686 1.55595e-22)
(1.06593 -0.0552352 3.31705e-22)
(1.06536 -0.0560121 -2.0923e-23)
(1.06648 -0.0562182 -1.30709e-20)
(0.993953 -0.0262269 -2.15512e-21)
(0.988537 -0.027283 -3.92478e-21)
(0.993641 -0.0314062 -2.61218e-21)
(0.901854 -0.132867 7.37593e-22)
(-0.0263219 -0.110258 1.38061e-20)
(-0.0338489 -0.101453 -1.27018e-20)
(1.01414 -0.00077693 2.77079e-22)
(1.01434 -0.000963001 5.82254e-22)
(1.01435 -0.000834809 -2.42542e-22)
(1.05804 -0.0348455 9.55557e-21)
(1.05886 -0.0343344 -5.22183e-21)
(1.05793 -0.0337684 6.86367e-21)
(0.595989 0.015057 -8.40905e-21)
(0.635412 0.0067838 4.46405e-23)
(1.0389 -0.0148954 2.74436e-21)
(1.03963 -0.0151537 2.9196e-21)
(1.03915 -0.014432 3.15186e-21)
(1.01518 -0.00159823 1.30521e-23)
(1.01515 -0.00195754 -2.10935e-22)
(0.93967 -0.0379527 6.58006e-21)
(0.954682 -0.0667369 -1.74894e-21)
(0.960651 -0.0246157 1.96212e-21)
(1.01559 -0.00313103 -1.17656e-21)
(1.01556 -0.00303422 -2.64979e-22)
(1.01227 -0.00153329 0)
(1.01253 -0.00153052 0)
(1.01447 -0.00129518 -4.019e-23)
(1.01454 -0.00109367 -3.42149e-22)
(0.119287 0.0156639 -1.64919e-20)
(0.184379 0.0110943 -3.60586e-21)
(0.181134 -0.000383703 -7.34753e-21)
(1.00309 -0.000122183 3.1334e-22)
(1.00547 -0.000182564 5.02027e-22)
(1.00263 -0.000150006 0)
(1.01869 -0.0051373 8.70544e-22)
(1.01837 -0.00491042 1.04059e-21)
(1.01848 -0.00520041 1.96341e-21)
(1.00354 -0.0424753 -1.00555e-21)
(1.00564 -0.0398141 -3.49798e-22)
(1.00733 -0.0428891 2.18064e-22)
(1.02216 -0.00356294 2.65438e-21)
(1.02201 -0.00376564 9.20032e-22)
(0.52845 -0.0956479 -3.99354e-21)
(0.451506 -0.0897731 -8.94844e-22)
(0.48563 -0.0970834 -3.31212e-20)
(1.04268 -0.0236056 0)
(1.04231 -0.0227661 -1.82973e-21)
(1.04339 -0.0230169 0)
(0.48344 -0.0200024 2.85156e-22)
(0.463616 -0.0165013 -1.29441e-21)
(0.481422 -0.0203625 -2.87067e-21)
(1.00877 0.000170613 3.15211e-23)
(1.00905 0.000185394 0)
(1.00897 0.000180772 0)
(0.749816 -0.0496393 -7.85616e-21)
(0.709705 -0.0477317 6.38643e-24)
(0.720971 -0.047493 3.02857e-21)
(1.01981 -0.0109368 0)
(1.01954 -0.0107154 0)
(0.887624 -0.0285678 0)
(0.901504 -0.0634892 -5.96815e-21)
(0.886661 -0.0756801 1.52062e-21)
(1.00749 0.000118461 2.90495e-23)
(1.0074 0.0001139 1.54194e-23)
(1.00724 0.000104837 -1.71087e-23)
(1.01072 4.32606e-05 -1.08177e-22)
(1.01087 4.07466e-05 6.95659e-23)
(1.01048 4.76623e-05 -3.45376e-22)
(0.955773 0.0123108 -1.44951e-21)
(0.948697 0.00342891 -6.94347e-21)
(0.960078 -0.000766839 -6.30573e-21)
(1.01708 -0.0429571 7.09457e-22)
(1.01369 -0.0396479 -8.28609e-22)
(1.01801 -0.0385256 -1.69134e-22)
(-0.0236376 -0.00533488 -8.12888e-21)
(-0.0173734 0.00325865 -1.23662e-21)
(1.01996 -0.001245 -3.7934e-21)
(1.01982 -0.0010858 -1.14589e-23)
(1.01973 -0.00120093 0)
(0.487134 -0.0200388 6.54808e-21)
(0.505248 -0.0234756 1.37146e-20)
(1.04216 -0.0240371 0)
(1.04301 -0.0242078 0)
(1.03554 -0.00855688 3.14693e-22)
(1.03569 -0.00799193 -2.20885e-21)
(0.766578 -0.0472786 2.29865e-23)
(0.73854 -0.0464031 2.09679e-22)
(0.737849 -0.0464485 2.13179e-22)
(1.07072 -0.0535433 8.40882e-21)
(1.0708 -0.0538251 5.41885e-21)
(1.07108 -0.0535796 -3.31657e-21)
(0.64942 -0.0438373 1.37303e-20)
(0.619281 -0.0412156 8.27848e-22)
(0.619131 -0.0421921 9.31646e-22)
(1.00256 -1.74549e-05 2.0014e-22)
(1.00256 -2.20799e-05 -1.98121e-23)
(1.00153 1.0704e-05 -1.3412e-22)
(1.05195 -0.0301103 7.66228e-21)
(1.05284 -0.0309184 3.02684e-21)
(1.05168 -0.0311676 -8.96134e-22)
(1.00252 2.72641e-05 6.42769e-23)
(1.00186 1.9982e-06 -1.96275e-23)
(-0.0639176 -0.0763065 8.79944e-21)
(-0.0628123 -0.0694202 -3.61166e-20)
(-0.0570292 -0.0764755 -6.19639e-21)
(1.00758 0.0001213 4.24171e-23)
(1.00775 0.000130282 4.65185e-24)
(1.04178 -0.0477486 3.43029e-21)
(1.04244 -0.0462272 -2.80464e-21)
(1.0758 -0.0669605 -2.9812e-22)
(1.07938 -0.057323 -1.10006e-21)
(1.08559 -0.0665349 -2.14646e-23)
(1.00723 -0.000396162 1.05868e-22)
(1.00725 -0.000399662 2.86573e-22)
(1.01395 -0.000626624 -1.58628e-22)
(1.07351 -0.0449393 4.16587e-21)
(1.07277 -0.0453322 -7.79898e-21)
(1.07274 -0.0444508 -7.10261e-21)
(1.0325 -0.0268474 1.66562e-22)
(1.03091 -0.025938 4.64623e-22)
(1.03068 -0.0274558 -4.23939e-22)
(0.586703 -0.0953933 9.46991e-21)
(0.56305 -0.0905734 8.68382e-21)
(1.03314 0.0346197 -1.38087e-22)
(1.04048 0.0369209 6.31276e-22)
(1.01097 3.8204e-05 1.08664e-22)
(1.01138 3.75124e-05 3.59737e-23)
(1.01885 -0.00508982 -1.54779e-21)
(1.01896 -0.00534858 0)
(1.0562 -0.034474 0)
(1.06224 -0.0439606 2.94701e-22)
(0.967837 -0.0506637 -2.87544e-22)
(0.979448 -0.0581841 -2.89446e-22)
(0.978073 -0.0416298 5.32386e-21)
(1.01379 0.000649404 -2.25791e-24)
(1.01331 0.000566972 0)
(1.01365 0.000703287 5.29694e-23)
(1.00184 -0.0456352 8.17363e-22)
(0.999842 -0.0420325 -6.21202e-22)
(1.0041 4.1986e-05 0)
(1.00397 3.89729e-05 0)
(0.584917 -0.0369863 3.34112e-21)
(0.560161 -0.0340304 0)
(0.580099 -0.0365293 0)
(1.0646 -0.0439081 -1.51213e-20)
(1.06549 -0.0444522 -1.5115e-20)
(0.8931 0.0563435 -6.52673e-21)
(0.89477 0.0903531 -2.52655e-21)
(0.881519 0.0803086 -3.74118e-21)
(1.03264 -0.01845 -1.87494e-21)
(1.03209 -0.0185333 0)
(1.03212 -0.0178639 1.70138e-21)
(1.0346 -0.0247454 -1.7383e-21)
(1.03474 -0.0239214 5.39091e-22)
(1.03395 -0.0241607 6.10875e-21)
(1.02684 -0.00311548 2.72892e-22)
(1.02739 -0.0013486 2.51965e-22)
(1.02551 -0.00211516 -1.57549e-22)
(0.956678 -0.0433484 -7.24943e-22)
(0.959428 -0.0614239 0)
(1.02994 -0.0113014 1.74789e-21)
(1.03025 -0.0117219 -4.70749e-22)
(1.02964 -0.0115354 -2.11527e-21)
(1.03315 -0.0189649 -1.63764e-21)
(1.07205 -0.0402922 5.945e-21)
(1.07285 -0.0407868 7.40669e-21)
(1.07176 -0.0411466 -2.84795e-21)
(0.934715 0.00306055 -3.48293e-21)
(0.928058 -0.00822102 -6.61958e-21)
(0.942069 -0.00888503 -3.42302e-21)
(0.995153 -0.0205835 2.62176e-21)
(0.99886 -0.025129 6.61323e-22)
(1.00181 -0.0619383 6.21485e-21)
(1.03877 -0.0620559 5.29373e-21)
(0.454315 -0.0150996 -1.33055e-20)
(0.371487 0.000142548 2.01816e-20)
(0.344159 -0.00721815 5.37905e-21)
(1.02274 -0.00103325 -1.02586e-21)
(1.02238 -0.000875889 8.73535e-22)
(1.02241 -0.00111584 2.65322e-21)
(1.01056 4.16454e-05 6.88012e-23)
(1.02046 -0.0199353 3.08156e-23)
(1.01972 -0.0197583 5.6829e-23)
(1.02008 -0.0189513 -2.7392e-22)
(0.938779 0.0348202 -2.40202e-22)
(0.962761 0.0341104 0)
(0.912385 0.0743446 2.4219e-21)
(1.01279 -0.000290199 0)
(1.01254 -0.00020588 -9.80698e-23)
(1.01286 -0.000204493 0)
(1.03048 -0.0499942 6.60719e-21)
(1.03693 -0.0501293 3.22947e-22)
(0.992968 -0.0487184 5.07301e-21)
(1.03875 -0.0154997 0)
(1.03827 -0.0147877 2.01753e-21)
(1.03021 -0.0110579 -1.757e-21)
(1.02961 -0.0108636 1.05942e-22)
(1.05126 -0.0262903 -5.42807e-21)
(1.05027 -0.0263687 1.61814e-21)
(0.796858 -0.0492113 -2.27087e-22)
(0.79509 -0.0488312 -2.20683e-22)
(1.00892 0.00703128 1.72062e-21)
(1.01056 0.00528963 -3.50167e-22)
(1.00807 0.00392556 3.08551e-22)
(1.0276 -0.00474765 -3.64241e-22)
(1.02564 -0.00460155 0)
(1.04015 -0.0159384 3.49559e-21)
(1.06838 -0.00371153 3.10089e-21)
(1.07705 -0.00236372 -1.07231e-20)
(1.04954 0.0273185 -1.74564e-20)
(1.05847 -0.0427662 8.20456e-21)
(1.05951 -0.0423248 -7.51389e-21)
(1.02943 -0.0303669 4.01736e-22)
(1.03032 -0.0300122 7.66418e-22)
(1.00949 -0.00139926 -1.5349e-23)
(1.00944 -0.00136973 5.07174e-23)
(0.907754 0.054239 -2.28707e-21)
(0.901876 0.0712829 -1.76003e-22)
(1.01223 0.0155767 -1.6774e-22)
(1.00737 0.016714 -2.07515e-22)
(1.00989 0.0126299 -1.64376e-22)
(0.661335 -0.0483579 6.80279e-21)
(0.629004 -0.0449639 -8.16752e-22)
(0.627391 -0.0466091 1.24337e-21)
(0.934614 -0.0213235 6.93279e-22)
(0.923078 -0.0158002 2.37602e-20)
(1.01426 0.000745064 3.08322e-23)
(1.01387 0.00060283 -1.78549e-24)
(1.00838 0.000145011 -2.07085e-23)
(1.00858 0.000164479 3.25493e-23)
(1.00865 0.000165978 0)
(1.00289 1.3932e-05 3.81228e-25)
(1.00305 2.45665e-05 1.82277e-23)
(1.00365 5.2445e-05 -6.9252e-23)
(1.07237 -0.0395639 -1.73807e-21)
(1.07143 -0.0398632 -4.25969e-22)
(0.9046 0.0444785 2.20403e-22)
(0.958927 -0.00730567 -6.23666e-21)
(0.809077 -0.0663705 0)
(0.825061 -0.085455 1.37436e-22)
(0.814864 -0.0929746 -1.66879e-21)
(1.01108 -0.00141749 2.01876e-22)
(1.01131 -0.00142416 -1.40771e-22)
(1.01134 -0.0014803 1.64743e-22)
(1.0203 -3.76481e-06 6.34602e-22)
(1.02034 -0.000136598 1.2397e-21)
(1.0205 -2.19016e-05 4.28121e-21)
(1.05399 -0.0137174 4.29156e-22)
(1.07777 -0.0318192 7.67749e-22)
(0.940928 0.051304 6.76354e-22)
(0.929551 0.0248644 -1.26521e-20)
(0.944638 0.0216387 3.72751e-22)
(1.07381 -0.0592826 -1.01867e-21)
(1.07406 -0.058099 0)
(1.02582 -0.0173471 0)
(1.02626 -0.0176963 2.6343e-21)
(1.03235 -0.00465003 -2.26083e-22)
(1.03174 -0.00474333 2.11357e-22)
(1.06153 -0.0351836 0)
(1.06064 -0.0355964 0)
(1.0616 -0.0363275 -8.23566e-21)
(0.934305 0.0690883 5.38833e-22)
(0.948975 0.0620082 -5.3154e-21)
(1.0565 -0.0525498 4.03713e-21)
(1.02063 -0.0503587 3.44574e-22)
(1.02834 -0.0225679 0)
(1.02838 -0.0223375 0)
(1.02865 -0.0226594 -1.75046e-21)
(0.501479 -0.155003 0)
(0.560638 -0.148861 -4.85537e-21)
(1.00974 -0.00153402 -2.06731e-23)
(1.00978 -0.00156706 5.91964e-24)
(1.00962 -0.00147307 -1.7185e-23)
(0.590923 -0.0371359 -9.10715e-21)
(0.612679 -0.0395763 8.66579e-21)
(1.05685 -0.0235468 8.34688e-21)
(1.05777 -0.0233343 3.06641e-21)
(1.03919 -0.0224403 -1.52521e-21)
(1.0391 -0.0231379 -9.26275e-23)
(0.675101 -0.0498747 -1.10689e-21)
(0.636636 -0.0480385 -4.04012e-21)
(0.647728 -0.0477391 -3.65314e-21)
(1.02103 -0.00982187 1.11363e-21)
(1.02085 -0.00988157 -2.55275e-21)
(1.02121 -0.0101019 -8.10704e-22)
(1.03562 -0.0269802 1.96474e-22)
(1.039 -0.0331093 0)
(0.655548 -0.038748 1.57214e-20)
(0.655107 -0.0373034 -5.78817e-21)
(0.682177 -0.0404466 -1.34238e-21)
(1.01085 -0.00136294 5.16932e-23)
(1.01087 -0.00141874 0)
(1.06856 -0.0370027 -1.55573e-20)
(1.06948 -0.0375388 5.0292e-22)
(1.06844 -0.0380705 7.99886e-21)
(1.04939 -0.0278952 5.81837e-21)
(1.05029 -0.0287041 0)
(1.02581 -0.0169129 3.86609e-22)
(1.02539 -0.016919 0)
(0.136905 0.0683527 0)
(0.108975 0.0902894 0)
(1.02806 -0.0225275 -6.12997e-22)
(1.02828 -0.0229405 7.57678e-22)
(1.02822 -0.0112636 -1.15801e-21)
(1.02857 -0.0112082 0)
(1.02866 -0.0116716 1.09732e-21)
(0.72492 -0.0465135 -5.89514e-21)
(0.718455 -0.0453215 -1.08794e-20)
(0.693941 -0.0437425 -2.54588e-20)
(1.00841 9.45058e-05 -1.29655e-22)
(1.00857 8.66459e-05 1.00355e-22)
(1.0083 8.12138e-05 -5.2347e-23)
(1.03463 -0.0253641 -4.4755e-21)
(1.03528 -0.0250919 -2.83974e-21)
(1.01457 -0.00194099 8.02591e-22)
(1.01498 -0.00269285 -2.13359e-22)
(1.01502 -0.00210254 2.71694e-22)
(0.699693 -0.0517071 -2.82477e-21)
(0.701137 -0.0513516 8.43293e-21)
(1.08177 -0.0521635 6.09806e-21)
(1.08216 -0.0527783 0)
(1.08247 -0.0520515 -5.14252e-22)
(1.02019 -0.00127457 -3.647e-21)
(1.0201 -0.00140398 -1.10429e-21)
(1.06873 -0.0420747 0)
(1.06855 -0.0429745 6.41433e-21)
(1.06785 -0.0422315 6.18925e-22)
(1.02037 -0.000752836 0)
(1.02041 -0.000882617 2.98431e-21)
(1.02062 -0.000782052 0)
(0.479496 -0.026034 -7.94614e-21)
(0.483667 -0.0170484 4.00191e-21)
(1.02898 -0.000210652 2.26783e-22)
(1.03165 -0.000582118 2.27428e-21)
(1.03068 0.00232617 -9.42111e-22)
(1.00285 -2.31363e-05 -3.94336e-23)
(1.00316 -1.0655e-05 6.79071e-23)
(1.00381 1.55191e-05 -3.64736e-23)
(1.01405 -0.00371715 -3.10804e-22)
(1.01421 -0.00382566 -1.43273e-22)
(1.014 -0.00377794 5.33031e-23)
(1.08097 -0.0521408 -4.70629e-21)
(1.08131 -0.0513782 2.22469e-20)
(1.05118 -0.0293536 3.83901e-21)
(1.05221 -0.029217 5.31699e-22)
(1.04173 -0.01398 4.27959e-21)
(1.04176 -0.0146054 -1.30526e-21)
(1.04112 -0.0142015 2.05753e-21)
(1.02014 -2.027e-06 0)
(1.0212 -0.00976276 3.0188e-21)
(1.02085 -0.00957406 1.45655e-21)
(1.02782 -0.0114176 -2.41526e-22)
(1.0277 -0.0109178 8.91628e-22)
(0.911326 -0.0515049 0)
(0.919377 -0.0723538 -1.4616e-22)
(0.300989 0.21357 -8.2963e-21)
(0.306957 0.21134 -1.30863e-20)
(0.492435 -0.0128884 0)
(0.533461 -0.0110874 0)
(0.494198 -0.00653889 -6.85597e-21)
(1.0155 -0.0208199 1.90978e-22)
(1.01569 -0.0223676 -4.07146e-22)
(1.0143 -0.021683 -3.47052e-22)
(0.717425 -0.0517604 1.03934e-20)
(0.707423 -0.0516423 4.39964e-21)
(0.878898 -0.0577105 1.60793e-21)
(0.845439 -0.0512174 8.47151e-21)
(0.844538 -0.0564091 -1.17975e-21)
(1.01955 -0.00057697 1.25812e-21)
(1.05807 -0.0358927 -6.87471e-21)
(1.05719 -0.0352715 -4.57533e-21)
(1.07387 -0.0607327 -7.25531e-21)
(1.07456 -0.0598054 1.4155e-22)
(1.00272 0.000145472 -8.69472e-22)
(1.00142 -0.00257547 -7.89239e-22)
(1.00445 -0.00241246 3.31209e-22)
(1.03956 -0.0329753 4.48075e-24)
(1.03643 -0.0338173 1.90968e-22)
(1.03798 -0.0308316 3.37302e-22)
(1.0728 -0.0521671 -5.60602e-21)
(1.07259 -0.0518677 -1.05787e-20)
(1.07299 -0.0517969 -1.16833e-20)
(1.07824 -0.0521379 -1.64562e-21)
(1.01716 0.000914432 2.08714e-22)
(1.01797 0.000498542 5.36029e-23)
(1.01712 -8.99682e-05 -1.85606e-22)
(0.817594 0.0545621 1.17608e-20)
(0.843176 0.0537158 4.43471e-21)
(0.805464 0.0952852 7.72989e-21)
(0.654759 -0.0398679 3.9646e-21)
(0.626269 -0.037269 1.2589e-21)
(0.631793 -0.0374694 0)
(1.01939 -0.000369145 2.96808e-21)
(1.01966 -0.000396351 3.70182e-22)
(1.03022 -0.0205094 -9.16876e-23)
(1.02969 -0.0149724 1.59109e-21)
(1.03404 -0.0177689 1.10009e-21)
(1.02685 -0.0264349 1.28194e-22)
(1.02518 -0.021307 -5.13909e-23)
(1.05606 -0.111369 3.81875e-21)
(1.0631 -0.106752 6.27355e-21)
(1.05803 -0.108402 5.14501e-21)
(1.04175 -0.0134344 2.13851e-21)
(1.04242 -0.0138809 6.8505e-22)
(1.04348 -0.0326271 4.77493e-22)
(1.04149 -0.0361273 5.29573e-22)
(-0.0629731 -0.0835496 1.59985e-20)
(-0.0703046 -0.0761232 3.09298e-20)
(1.01307 -0.00358485 -2.32904e-23)
(1.01305 -0.00351367 -4.2321e-23)
(0.796566 0.0557277 -8.60977e-21)
(0.828262 0.00809932 2.60202e-22)