/*--------------------------------*- C++ -*----------------------------------*\
| =========                 |                                                 |
| \\      /  F ield         | OpenFOAM: The Open Source CFD Toolbox           |
|  \\    /   O peration     | Version:  v2012                                 |
|   \\  /    A nd           | Website:  www.openfoam.com                      |
|    \\/     M anipulation  |                                                 |
\*---------------------------------------------------------------------------*/
FoamFile
{
    version     2.0;
    format      ascii;
    class       surfaceScalarField;
    location    "150";
    object      meshPhi;
}
// * * * * * * * * * * * * * * * * * * * * * * * * * * * * * * * * * * * * * //

dimensions      [0 3 -1 0 0 0 0];
oriented        oriented;


internalField   nonuniform List<scalar> 
20537
(
0.000959576
4.4501e-05
-0.00101116
-0.00121119
0.000893958
0.000317071
0.000122138
0.000469711
-0.000592142
0.00158628
-0.000863681
-0.000728963
-0.000354068
-0.000225591
0.000579465
-0.000844954
-0.00029673
0.00113909
0.00113868
-0.000913262
-0.00023962
-0.000351441
0.000717238
-0.000366368
0.000467837
-0.000612881
0.000128188
-0.000822439
0.000365627
0.000456391
0.000114177
-0.000310671
0.000195677
0.000556061
3.06429e-05
-0.000586759
-0.000270255
0.000345207
-7.49727e-05
-0.000143293
-0.00021386
0.000357155
8.73655e-05
0.000235998
-0.000386341
0.00048925
0.00033933
-0.000830057
-0.0010963
0.000322501
0.000770799
0.000135736
0.000749806
-0.000888481
-0.000225615
-0.000187849
0.000413416
0.000593556
-0.000143347
0.000717111
0.000858512
0.00069047
-0.000568663
2.10742e-05
-4.30886e-06
-2.34874e-05
-5.06899e-05
5.3736e-05
-3.13463e-05
2.89465e-06
1.14291e-05
0.000366997
-0.00071908
-0.000848917
0.000680517
0.000166189
0.000139186
7.07266e-05
0.00128229
-0.000329993
0.00123676
-0.000185172
-0.00105651
0.000274027
-0.0011213
-0.000583392
-0.000515539
0.000738405
-0.000269044
0.000393372
0.000241845
-0.000635905
3.679e-05
-0.000116875
0.000253074
5.96133e-05
-0.000312714
-0.000350665
0.000172481
0.000178172
-0.000260371
-0.000231068
0.000491359
-0.000600576
-0.000222182
0.000858694
-0.000466115
0.00121596
-0.000682434
-0.000549536
-4.18174e-05
-1.3771e-05
5.31359e-05
-0.000179417
5.99505e-05
0.000119466
-0.000216699
-8.10268e-05
0.000297372
7.03047e-05
-0.000287276
-0.000285535
0.00016209
0.000123444
-8.27111e-05
0.000290545
-0.000207761
0.00105576
-0.000306502
-0.000750072
-0.00065176
-0.000199128
-0.000784903
0.000677974
0.000103187
0.00029674
-0.000526567
0.000229667
-0.000226109
0.000451285
-0.000225233
-7.04425e-05
0.000169875
-9.94323e-05
-3.99265e-05
0.000170531
-0.000190593
4.16458e-05
0.000117174
-0.00021529
1.22233e-05
-5.62689e-05
1.72089e-05
-8.22341e-05
4.98183e-05
9.66193e-05
0.000124045
-0.000220664
0.00101116
0.000219824
-0.000939277
0.00115124
-0.000224739
-0.000503075
0.000242612
0.000274577
6.81597e-05
-0.00034275
-0.000409314
-0.000703639
0.00111083
0.000212826
0.000274951
-0.000487896
-0.000968155
0.000191625
0.000775773
-0.000312571
0.00109992
-0.000792382
-0.000192613
-0.000158061
-5.12062e-05
0.000295768
-0.000353245
-0.000348828
0.000701362
0.000921571
-0.000789006
0.00016399
-3.23831e-06
-0.000160752
-0.000124501
-0.000153966
0.00027846
-0.000745329
-0.000465947
-0.000274682
0.000164723
0.000310134
-5.92446e-05
-0.000300992
-0.00020573
-0.000377076
0.000571838
0.000181218
0.000509042
-0.000151495
0.000216539
-6.50439e-05
0.000660132
-0.000384374
-0.000276157
3.46978e-05
-0.00017639
-0.00114909
0.000345136
0.000794039
-1.68822e-05
2.48192e-05
-7.88725e-06
0.000761149
-0.00106707
0.000276595
-0.000157925
0.000281344
-0.00012342
0.000624539
-0.00103601
-4.48848e-05
0.000600889
0.000308871
-0.00110316
0.000791106
-0.000749988
0.000578878
0.000170911
0.000754934
6.96983e-05
-0.000826976
-0.000459143
0.000354565
9.72451e-05
0.000382629
-0.00012958
0.00136335
-0.000785855
-0.000582215
0.000200418
0.000836073
-0.000437962
-0.000399375
0.00114627
-0.000393889
3.97594e-05
6.42565e-06
-6.16793e-05
-0.000515018
0.000160778
0.000320837
-0.000261707
-5.91348e-05
-0.000624804
-0.000163449
3.3223e-05
-1.17038e-05
0.000272651
-0.000285329
1.26813e-05
-0.000370005
-0.000233053
0.000602754
0.00123344
-0.000529001
-0.000712638
0.000557689
-0.000778111
3.50999e-06
-5.4187e-06
6.11997e-07
-0.000311214
-0.000748674
0.00105673
0.000290093
0.0002363
-0.000526628
-2.37588e-05
-5.86497e-06
2.79285e-05
0.000152107
-0.000249882
-0.00110784
0.000808598
-3.67573e-05
3.47396e-05
-1.74799e-05
-0.000340836
-0.000125861
0.000753856
0.000604748
-1.39381e-05
-1.31345e-05
-8.29859e-05
2.53537e-05
-0.000458785
0.00098752
0.000194077
0.000126752
4.04856e-05
-2.84631e-05
-1.43519e-05
-6.97468e-05
-4.28939e-05
7.29148e-05
-0.000180701
3.77812e-05
9.46237e-05
-0.000176977
-2.43957e-06
-0.000426511
0.000981644
0.000101736
-0.000372012
0.00105237
0.000322254
0.000732223
-4.3463e-05
0.000200766
-0.000160488
0.0010753
-0.00075429
0.000496834
-5.08705e-06
-0.000492053
0.0014066
-0.000698064
-0.000186566
0.000422668
-0.000236179
0.000500824
0.000695698
0.00015619
-0.000528594
0.00034559
-2.20804e-06
0.000166198
-0.00020991
0.000939882
0.000543546
-0.000125476
-8.70839e-05
0.000180512
1.66091e-05
2.08683e-05
-0.000143559
-0.000143438
0.000286991
0.000456427
-0.000283241
-0.00017319
0.000255754
-0.000493257
0.000237527
4.10209e-05
0.000231632
-0.000167737
0.000147982
0.000884905
-0.000382729
-0.000510575
1.02359e-05
9.47122e-05
-0.000107732
0.000486123
-0.00092943
0.000438992
-0.000294794
0.00021337
-2.07774e-05
9.04541e-07
1.92102e-05
-0.000490402
0.000303731
0.000879316
0.000241554
0.000272578
-0.000202527
0.000474739
-0.000219974
0.00013081
1.52423e-05
-0.000197163
0.000174337
-0.000317628
5.57029e-05
-5.17248e-05
-1.31267e-05
-0.000679923
0.000689647
-0.000568778
0.00105007
-0.00014
0.00082534
-0.000702535
-0.000873205
0.00107098
-0.000202856
-0.000358411
0.000132247
0.000527505
-0.00023094
-1.35823e-05
1.3393e-05
-1.45242e-07
0.000745994
-0.000405862
-0.000341108
-9.3224e-05
0.000189843
0.000434552
-0.000302517
-0.000891354
-0.000294913
0.00118279
1.18618e-05
-9.97887e-05
8.4786e-05
-4.11029e-06
-1.71111e-05
-0.00066427
0.000310353
0.000780343
0.000617337
0.000171617
-0.000273663
0.000102043
-0.000168601
1.71064e-05
0.000255079
-5.72874e-05
-0.000212548
-0.000839158
0.000682403
0.000499932
-0.000244161
0.00012516
0.000284319
-0.00104183
0.000734474
-0.000181547
0.000677965
0.000459151
0.000232654
-0.000698583
-0.000440278
0.00021462
2.40769e-05
6.68061e-06
-3.21234e-05
-0.000342056
0.000942673
-0.0006027
-0.000268066
-0.000961876
0.000662127
0.000269905
-0.000514528
-5.43387e-05
-4.35018e-06
3.85218e-06
1.03377e-07
2.79309e-05
1.55457e-06
-3.99793e-05
-0.00109716
0.000779654
-0.00019516
-3.56773e-05
0.000249733
0.000264799
-0.000514686
0.000597036
-0.000809011
0.000211397
0.000213088
-0.000177962
0.000107519
0.000419007
-7.00794e-05
-0.000354774
-0.000377693
-0.000279056
0.000656091
-0.000168332
0.000442892
-1.80105e-05
-0.000767424
0.000781197
0.000277718
0.000598883
-0.000770461
0.00025213
0.000517378
-0.000398016
0.00084884
0.00038599
-0.000602769
-0.000209853
0.000163082
-0.000343633
0.000167884
0.000175746
2.4604e-05
-8.81358e-05
1.95427e-05
-0.000400694
0.00089671
-0.000522104
-0.000779931
0.000365831
0.000413575
-0.000221116
-0.000769558
0.000534138
-0.000362193
-0.000171963
-0.000976813
0.000906487
6.76763e-05
0.000124913
-0.000224614
9.97008e-05
2.12544e-05
-1.59758e-05
-6.06328e-06
0.000264404
-0.000197194
-6.72122e-05
0.000873549
0.000350133
-0.000276081
0.00079833
-0.000522374
-1.68547e-05
-4.9574e-06
2.05512e-05
-2.45713e-05
-8.07002e-05
0.000102384
8.19582e-05
-0.000265323
0.000182157
-0.00119583
0.000416004
0.000777292
-0.000129887
-0.00015565
-0.000624723
0.000367666
0.000212202
-8.40156e-05
0.000208928
-0.000268991
-0.000709884
-0.000967414
-0.000190295
0.000276578
-0.000158119
-0.000118463
0.000448282
-0.000164095
-0.000284257
0.000263673
-0.000153183
-0.000110492
-1.63084e-05
-1.00644e-05
1.6559e-05
0.000832799
-0.000562783
-0.000271166
-9.5426e-07
2.83727e-06
-0.000126179
0.000177874
-5.16949e-05
6.97971e-07
-1.82782e-05
-0.00042092
0.000787228
0.000306435
0.00056661
-0.000873661
0.000201028
3.94871e-05
7.22115e-05
-0.000195793
-0.000312344
0.000507966
-0.00104401
0.000790814
0.000251522
0.000413948
0.000120171
-0.000782681
-0.000185947
0.000105652
-9.84597e-05
0.000385684
-0.000809905
0.00110794
-0.000836239
-0.000716642
3.95859e-05
0.000675476
-1.18511e-05
1.77528e-05
-6.06161e-06
-0.000342814
-0.000437553
-5.65998e-06
-1.2695e-06
0.000142344
-0.000203668
6.13228e-05
0.000153232
-0.000523505
0.00023594
0.000497275
-0.00073332
-0.000357828
-0.00063697
0.00099025
-0.00094574
0.000806882
0.000136009
-0.000196482
-0.000626421
0.000817555
-0.000102258
-0.000614832
0.000889588
-0.000956524
5.97764e-05
-0.00093085
0.000697459
-0.000407829
-0.000289898
0.000213081
-0.00102978
0.000815429
-0.000308132
0.000904466
-0.000256924
0.00011348
0.000226626
-8.43007e-05
-0.000142325
-0.000905
0.000644903
0.000224633
7.83182e-05
-0.000148408
-0.000877669
0.00102263
-0.000653716
0.00108001
-0.000427009
-8.42797e-05
0.000224839
-0.000144741
0.000152991
0.000229648
-0.000382674
-0.00067903
0.000657338
5.06274e-06
0.000877433
3.83835e-05
0.000796453
0.000119109
0.000157463
-0.000330747
0.00037963
-5.16435e-05
-0.00081347
0.000611624
-0.000784404
-0.000503343
0.00105523
-0.00055322
0.000338794
0.000320903
-0.000460534
0.000948145
-0.000221322
-0.000332864
1.86498e-06
-1.87644e-05
6.49684e-05
-0.000222125
0.000155603
0.000270577
-0.000168693
-0.000101886
0.000246905
-0.000133457
-1.2678e-05
1.08277e-06
1.45097e-05
-6.93064e-06
-8.61816e-06
3.00894e-06
1.7278e-07
-4.12886e-06
0.000304093
0.000393084
-0.00104326
0.000388926
0.000266141
0.00082278
-0.00108926
0.000718828
-0.000404258
-0.000329815
0.00048515
7.44629e-05
-0.000605714
-0.00104817
0.000543516
3.1298e-06
-7.82641e-06
5.0293e-06
-0.000252661
-0.000237823
0.00106572
-5.90506e-05
-0.000916877
-3.3163e-05
0.00035889
0.000282445
-0.000641925
-1.10082e-05
1.43215e-05
0.00041137
-0.000258416
-0.00101855
0.000915766
0.000100871
-0.000664055
0.00061911
-0.000326246
-0.000189387
0.00049329
-6.9777e-05
0.00021212
0.000683901
6.11046e-05
0.00102264
-0.000702864
0.000263963
-0.000192187
-7.17778e-05
0.00127863
-0.000408103
-0.000880916
0.000772332
-0.0010867
-6.95351e-05
-0.000204577
0.00027411
0.000281959
0.000419483
0.000665052
-0.000412025
-0.000253381
0.00041977
-0.000859253
0.000909259
0.000151522
0.000295128
0.000161288
-0.00052221
-0.000498157
0.000600514
0.000282004
-0.000889894
0.000204939
4.95812e-05
-0.000254526
2.0332e-05
-7.31129e-05
5.00652e-05
-0.00091355
-3.42948e-05
2.31607e-05
-0.000227377
0.000201339
0.000116836
0.000153739
0.000175156
-0.000379056
0.000203856
-0.000254273
-0.000412107
0.000208892
-0.000539451
0.000330283
0.000736944
-0.000201111
-0.000580458
5.08944e-05
0.000175731
0.00109377
-0.000666331
-0.000432793
1.96737e-05
3.71678e-06
-3.15074e-05
1.54474e-05
-0.000675467
0.000647982
-0.000229246
0.000404351
0.00040305
0.000428509
0.000467564
-0.000861249
0.000390163
0.000525684
0.000283206
0.000983636
-0.000472277
0.00106413
-0.000226686
-8.4688e-05
0.000169925
0.000177262
-0.00016936
0.000315223
-0.000145868
0.00112298
-0.000417391
-0.000708745
0.000155674
0.000108287
0.000454012
-0.000202964
-0.00025108
-0.000244407
-0.000642621
0.000264293
0.00019512
-0.00044786
-0.000110454
-0.00069974
0.000806285
-0.00108965
0.000464195
0.000623933
-0.000409206
0.000147719
0.000261427
0.000223477
-0.000986576
0.000164991
0.000815451
-0.00073786
0.00105007
-0.000312387
0.000237964
-0.000144887
-9.30788e-05
0.000277035
-0.000104661
-0.000151437
0.000266488
-0.000116867
-0.000287163
0.000133811
-0.000278854
0.000522428
-0.000243667
0.000900313
-0.000436258
-0.000649658
-0.000441003
-0.00017267
4.64903e-05
-0.000148528
-0.000706624
-0.00103718
0.000299227
0.000657508
-0.000654109
0.000139575
0.000547498
-8.15088e-06
1.22381e-06
-3.19163e-05
6.65046e-06
-0.000802101
0.000236106
0.000545954
0.000150322
8.76405e-05
6.08787e-05
-0.000507458
0.0004458
-0.000782789
-0.000165042
0.000931346
0.000321248
0.000343357
-7.7317e-06
-6.69732e-05
7.20281e-05
-6.3125e-05
-0.000600999
-0.000122768
-0.000707313
0.000828841
0.00114287
-0.00011191
-0.00013932
0.000310932
-0.00094854
0.000150007
-0.000337083
-0.000859639
-0.000898265
0.000580798
0.000316044
0.000835198
0.000307226
0.00117291
-0.000480594
-0.000712562
-3.16078e-05
7.64793e-07
-0.00114258
0.00087441
0.000263382
6.87885e-05
-0.000216877
0.00014809
5.9215e-05
0.000509267
-0.000214148
-0.000900814
-0.000137335
-0.00027192
-0.000110046
-0.000163619
0.000138444
-0.000276296
0.00013652
0.000286474
-0.000149382
0.00104058
-0.000617482
-0.000428244
0.000185254
-0.000448447
0.000240118
-0.000120443
-8.03915e-05
0.000137138
0.000366237
0.000753341
0.000486131
-0.000277451
0.000155603
-0.000369458
0.000182154
0.00041701
-0.000599794
0.000128047
0.000135624
-0.000148147
0.000262079
-0.000113934
-6.24922e-05
5.27519e-05
-0.000773122
-0.000160779
-0.000308684
0.000173776
-2.25361e-05
-0.00015124
0.000854885
-0.000549096
-0.000140168
0.000334237
-0.000288627
-0.000858584
-0.000398788
-0.000500748
-3.46993e-05
-8.05581e-06
2.8634e-05
0.000235782
0.000218191
0.000268256
0.000102121
-0.000384446
0.000754299
-0.000416089
0.000377843
0.00065694
-0.000302109
-0.000719656
0.00100594
2.33434e-06
0.000664066
-0.000397959
6.97448e-05
-6.01952e-05
-0.000234855
0.000447578
-0.000786978
0.00103252
-0.000246908
-0.000210877
0.000222528
-1.16512e-05
-0.000776466
0.00116343
-0.000390706
-0.000249581
0.000757031
-0.00107187
0.000311294
-0.000646882
0.000544249
-0.00029723
0.000962471
-0.000667725
0.000255707
-0.000534662
0.000321543
0.00069819
0.00024261
-0.000161835
3.56778e-05
-2.19629e-05
0.000235105
0.000412355
2.26308e-05
-5.3397e-06
0.000250062
0.000240801
-0.000490945
0.000681629
-0.000227276
-0.000454337
-0.000259742
-0.000265351
0.000525001
0.00105735
-0.000303649
-0.000159983
-0.000498321
0.000739518
0.00107802
0.000113644
-0.000463118
0.000267192
0.00045293
0.000698869
3.50252e-06
-0.000652141
1.36975e-06
5.76289e-06
-9.68284e-06
-0.000260997
0.000601561
-0.000340669
-0.000726186
0.000109811
0.000615012
-0.000704069
0.000388537
0.000315163
-0.000124826
0.000203599
-7.87734e-05
0.000404922
-0.0008112
-5.69286e-05
0.000195833
-0.000140269
-0.000145692
-0.000581093
0.000234533
7.8382e-05
-4.47863e-06
-5.68864e-07
0.000412925
0.000347536
-0.000761519
-0.000566272
1.93283e-05
-0.000352192
0.000239034
6.23198e-05
-0.000315898
-0.000355989
0.00100456
-0.000656879
0.000246846
0.000500214
-4.89858e-05
0.00117276
-0.000486411
-0.000689273
0.000254755
0.000353905
-0.000608635
1.25111e-05
-3.90113e-05
9.04115e-05
-0.000776975
9.50775e-05
0.000110697
-0.000205775
-0.00107469
0.000180524
8.97511e-06
5.02663e-06
-0.00033661
-0.000413514
-0.000228015
0.000391152
-0.00082521
-0.000436493
0.000295892
0.000124063
0.00105426
-0.000883347
-0.00017257
-0.00105424
0.000812891
0.000235682
1.33362e-05
-0.000390914
0.000787703
0.000334414
-0.000129483
-0.000590993
-0.000500412
0.000340671
0.000298887
-0.000640112
-0.000262664
0.000105649
-0.00104727
7.08467e-05
0.000972644
-6.18813e-05
0.000222287
-0.00016157
-1.65043e-05
-1.07588e-05
0.00023037
-0.000942588
0.000697585
1.29355e-05
-4.96771e-05
1.16765e-05
-0.00110257
0.000339152
0.000762291
-0.000911577
0.00104842
-0.000145397
-0.000798971
-0.000307127
0.0009168
-0.000284867
-4.9772e-05
1.53217e-06
0.000337411
-0.000189821
-0.000147589
-0.000184964
6.01377e-05
0.000961661
-0.000723003
-0.000263202
4.71395e-05
-0.00109879
0.000577776
-0.000877326
0.000692691
-0.000654534
0.000110366
-0.000268291
-0.000562855
0.000643892
0.000442353
-0.000382228
-0.00116014
0.000660004
-0.000268533
0.000539312
-0.000270959
0.000724
-0.00105074
0.000313069
-7.29727e-05
0.000181415
-0.000108442
-2.87283e-05
9.84025e-06
1.62744e-05
0.000167129
2.74532e-06
-0.00045187
-0.000370231
0.0008215
-5.98343e-05
4.36676e-05
-0.00104625
0.00108896
-9.10337e-05
0.000288846
-0.000197816
0.000253553
-0.000675031
0.000266051
8.98371e-05
-0.000355988
4.51342e-05
-0.000152888
-0.000658355
-0.000354886
0.00101275
-6.29613e-05
0.000120794
-0.000376059
0.000118314
0.000235152
-0.000181247
0.00053038
-0.000372182
-0.000261688
-0.000749749
0.000994898
8.25911e-05
9.11845e-05
-0.000274275
-0.000252224
0.000526315
0.000184364
-0.000394847
0.000210434
0.00014779
0.000167588
-0.000315399
0.00103813
-1.20777e-05
-1.93599e-06
-0.000285811
0.000381257
-9.54722e-05
0.000222845
0.00045828
-0.000871988
0.000528036
-0.000730265
0.000323257
0.000209365
0.000481383
0.000715902
0.000336476
0.000105575
0.000158826
-0.000144094
0.000130938
-5.12294e-05
0.000127719
-0.000200692
0.000272455
-0.000204703
-0.000138933
-0.000819353
-0.000832835
-0.000216856
0.000270594
0.000752177
0.000147682
-0.000206015
-0.000909817
0.00112148
-0.000555935
-0.00021463
-0.000262762
0.000548349
-0.00028568
0.000198938
-0.00107714
0.000312285
-0.000575128
-0.000221767
0.00033139
-0.00010963
-1.23556e-05
-1.91357e-05
0.000211121
0.000253053
-0.000192674
7.85404e-05
0.000114134
0.000303838
-0.000944984
-0.000710138
0.000796273
-0.000119815
0.000575777
0.000231114
-0.000725779
0.00086895
-0.000159994
0.000507732
-0.000258147
-0.00078684
0.00104395
-0.000258766
0.000916477
-0.000337835
-0.000354146
0.000608907
0.000137173
3.43609e-05
-0.000196428
0.000216681
-0.000121604
-0.000218693
0.000105711
0.000112982
0.000290854
0.000762207
-0.00105565
0.000728206
-0.000505722
-0.00032419
-4.71361e-06
-3.21869e-06
7.66214e-06
-0.000393895
-1.63959e-05
2.34702e-05
-7.09642e-06
7.2162e-05
-0.000357994
0.000170434
-0.000852823
0.000288019
0.000146436
-0.000434523
0.000310517
-8.4159e-06
-0.000302123
4.76912e-05
-3.76348e-05
0.000809954
0.000250441
-0.0010634
-0.00105329
0.000313114
0.0007398
0.000173135
0.000349164
-0.000196187
-0.000254046
0.000450143
0.000158467
-7.5876e-05
0.000289885
-0.000155564
-0.000134327
-0.000677579
-0.0010267
0.000708825
0.000404971
0.000394162
-0.000799159
-0.000217684
-0.000206797
0.000395814
-0.000189057
0.000550435
-0.000368792
0.000365002
-0.00107054
-9.57591e-06
-0.000709562
0.000783492
-0.000103586
0.000287257
9.22966e-06
3.64385e-05
-0.000661452
0.000961009
2.49948e-05
-1.96314e-05
-0.000403427
0.000277174
9.48715e-05
1.57714e-05
-0.000237544
-0.000240204
0.000606765
0.000446502
3.76528e-05
-3.02819e-05
0.00027303
0.000236231
-0.000469541
0.000720728
0.000194877
-0.000497813
0.000280992
5.10678e-05
1.14526e-05
-7.39342e-05
-0.000212629
0.000124332
8.85958e-05
-0.000158676
0.000227466
-0.000473806
0.000709621
-0.000750213
-0.000316488
0.000111783
0.000361924
-0.00102072
-0.000726784
0.000352901
0.000373145
-0.000119565
-7.31087e-05
-8.71525e-05
-0.000137462
-0.000784649
-0.000207004
-0.000675868
0.000326363
-6.16878e-06
1.3014e-06
-0.000189555
-0.000496003
0.000883618
-0.000388745
-0.000332765
0.000164714
0.000168039
0.000711459
0.00033811
0.000461886
-0.00017394
0.000297184
-0.000706095
0.000407612
0.000559565
-0.00022105
-0.000355855
-0.000358708
-0.000545779
0.000902947
0.000771341
-0.000261613
-0.000516742
0.000347018
-8.10225e-05
0.000263157
0.000227555
-0.000490857
0.000657236
0.000227414
0.000716101
-0.00113664
0.000298862
-7.49791e-05
-0.000796434
0.000149753
0.000645487
0.000173365
-0.000433181
0.000345596
0.000791472
0.00105748
-0.000624086
-0.000771589
0.000647713
0.00111782
-0.000341377
-0.000786851
0.000281972
-0.000271398
0.00052137
0.000387784
6.0441e-05
-0.00030842
0.000916792
-0.000609912
-0.000368186
0.000161353
0.000207108
0.000335208
0.0010493
-0.000426906
-0.000623516
0.00046276
-0.000264999
-5.149e-05
0.00117819
-0.000315507
-1.13254e-05
4.48597e-05
-5.23866e-05
0.000261328
-0.000109225
0.000904256
3.17373e-05
-0.000941184
-0.00019861
8.85629e-05
0.000164367
6.20452e-05
-0.000226413
0.000279367
-0.000156901
-0.000122466
-0.00079438
0.000457618
0.000343605
-8.88869e-05
0.000107356
-1.13708e-05
-1.50271e-06
-0.000440746
1.64787e-05
0.000394746
2.08633e-05
-1.34211e-05
-0.000359
-7.51969e-05
-8.35794e-07
5.05782e-06
-4.34284e-06
-0.00113672
0.000356875
0.000754128
0.000298253
7.15824e-06
2.87869e-05
-0.000327055
0.000524447
-0.000197443
-0.000760571
-0.000435045
0.000107951
0.000714268
-0.000210997
-0.000521266
1.23481e-05
-5.16849e-06
-8.82933e-06
-1.32085e-05
2.26595e-05
-1.48319e-05
0.000580908
-0.000385887
0.000409689
-0.000226325
-0.000183381
0.00054244
-4.44308e-05
-0.000498206
-0.000759213
-1.18961e-05
1.82806e-07
2.71838e-05
-4.73922e-05
-0.000144014
9.57467e-05
2.2648e-05
0.00083796
-0.000194491
-0.000654803
0.000285464
8.05205e-05
-0.000366002
-0.000291959
-0.000243791
0.000535758
0.000738615
0.000368004
3.24761e-05
-2.70816e-05
-0.00100313
0.000725385
-0.000115991
0.000936941
-0.000366148
-0.000275683
0.000641689
8.30759e-05
-0.000182631
9.9555e-05
-0.000820662
0.000217303
9.19448e-05
-0.000309254
0.000679668
-0.00103507
0.000360271
0.000676731
-0.000223228
0.000407536
1.76585e-05
-0.000317592
-0.000489158
0.000519752
0.00108172
-0.000746436
0.000770125
-1.53791e-05
0.000557596
0.000282002
0.000242193
0.000713332
0.00109552
-6.64462e-06
5.43729e-06
0.000650718
-0.000595002
0.000123942
7.96567e-05
0.000614939
-0.000182165
-0.000443147
0.000167503
-0.000954963
0.000782015
-0.00072278
0.00108583
-0.000124773
-0.000273242
0.000356983
-0.0011425
9.26471e-05
-0.000215484
0.000432733
-0.000217239
0.000523988
-0.000260986
-0.000185989
0.000415597
-0.000273784
-3.69707e-06
1.88786e-05
0.000205345
0.000490081
0.000179556
0.000157856
1.39545e-05
0.00029654
-0.000257529
-0.000788028
0.000219537
-5.51721e-05
0.000459858
-0.000153789
-0.000319366
-0.000125593
2.91948e-05
3.36221e-05
2.04912e-05
-0.000669492
0.00103107
0.000185938
-0.000313393
0.000127445
0.000198564
-0.000966463
0.000764844
-0.000334381
0.0010512
-0.000725766
-0.000221265
0.000158189
0.000969391
-0.000720588
-0.000251445
1.13875e-05
-2.91138e-05
-0.000103447
0.00023585
-0.000132403
-0.00101255
-1.78935e-05
-0.000114997
-8.78709e-05
0.000202867
-4.20537e-05
0.00111807
-0.000391325
0.000185465
-9.62052e-05
-8.92597e-05
0.000163255
3.95741e-06
-0.000167212
0.000360084
2.25167e-05
0.000490997
0.000272802
0.000130369
0.00012205
-0.000252423
-0.00101028
6.5073e-05
0.000176489
-0.00063998
0.000316858
0.000322942
-0.000311454
-0.00039296
-0.00100279
0.000315831
0.000684107
0.000149479
-0.000187835
0.000666899
-0.000483215
-0.00017854
-0.0004957
0.000668271
0.0003277
-0.000155232
-7.04856e-05
4.02394e-05
-2.13895e-05
-0.00020422
-0.000855332
0.000496044
-0.000304872
-0.000217574
0.000114126
-0.00040995
0.000872139
-0.000463192
0.00030394
-0.000393622
0.000997143
-0.000157162
-6.63705e-05
0.000355037
-6.38652e-05
5.66186e-05
-0.000137127
4.61834e-05
-0.000810846
1.1853e-05
6.78731e-06
-0.000928578
0.000616463
0.000292303
-4.42185e-05
0.000179422
-0.000177375
-0.000197531
-7.04716e-06
-0.000245411
-3.93638e-05
4.81304e-05
-1.12677e-05
-0.00105516
0.000269506
0.000783862
-0.000308041
-0.000733497
9.60696e-05
8.93951e-05
-6.1117e-06
6.2511e-06
-3.51712e-06
0.000269976
0.000539973
-0.000817451
0.00040922
-0.000364993
-4.43215e-05
-0.000637083
0.000270805
-0.000508138
7.65197e-05
0.000430693
0.000155614
-0.000132032
-4.86776e-05
0.00119725
-0.00014383
0.000377718
-0.000160424
-0.000913789
0.000135108
-0.000286652
0.00015154
2.59497e-06
0.000647443
-0.000152206
-0.000299739
-0.000217932
-0.000370635
0.000585179
0.000144229
-8.42784e-05
0.00086943
0.00032522
0.000916613
-0.000223289
-0.000695908
-3.16144e-05
2.50134e-05
0.000581784
-0.000319356
0.000665699
-0.000346627
-0.000803103
4.5894e-05
0.000756383
0.000831802
8.10298e-05
0.000354419
-0.000575759
4.19143e-05
-0.000242611
-0.00051642
0.000779086
-0.00039873
0.000414381
-0.00024128
-0.000442804
0.00068346
0.000528288
-0.000263651
-0.000332254
0.000771948
0.000332226
0.000259584
-0.000356901
1.62264e-05
0.000340602
0.000250529
0.00104594
-0.000850723
9.09218e-05
-0.000423053
0.000332114
0.000335775
-0.000188008
0.000849283
-0.00117428
-0.000174615
0.000267638
-9.30245e-05
0.000306688
0.000741504
-0.000173681
-0.000198232
0.000371899
-0.000450014
0.000234543
0.000282423
-0.000174579
-0.000107847
8.82391e-05
-0.000420459
0.000330873
-0.000479179
0.000832167
-0.000353913
0.000327128
-0.000729574
0.00109246
0.000243094
-0.000119049
0.000106728
-0.00027561
0.000835526
-0.000572458
-1.66504e-05
-1.92367e-05
2.30447e-05
-0.000569629
0.0002571
-1.93577e-05
4.4678e-08
1.91209e-05
4.73448e-05
1.30693e-05
-6.2883e-05
9.48859e-05
8.6796e-05
-0.000181682
0.000323664
0.000122904
-0.000849742
-0.000167991
0.000999137
-0.000106877
-0.000134117
0.000210043
-7.59262e-05
-0.000268422
-6.63784e-06
-8.99785e-05
-0.000374607
-0.000483288
0.000575034
3.53718e-05
0.000127883
-5.47008e-06
0.000290919
0.000212834
0.000182933
-0.00103065
0.000785188
0.000238594
0.000147011
0.000168207
0.000485822
-0.000312799
0.000189266
0.000220404
0.000553836
-0.000317786
-0.000311076
0.000631907
-0.00083517
0.00103813
-0.00032835
-0.000884053
0.000138924
-0.000523914
0.000225053
0.000298653
8.58687e-05
-0.000108405
0.000615794
-0.000908775
0.000726631
-0.000113743
0.000227869
-0.0003541
0.000180408
-0.00011029
-0.000108403
-0.000757402
0.000949995
-0.000212393
0.000340403
-0.000712284
0.000371141
-0.000280389
0.000453445
-0.000855631
-0.000753845
0.000916036
5.7751e-05
0.000343758
-0.000401532
-3.90684e-05
-4.78626e-05
-0.000156121
0.000211326
-5.52046e-05
-8.94389e-06
5.38522e-05
-3.378e-05
0.000442894
0.000595277
0.000108088
-0.000723554
0.000418493
-0.000619828
0.000201188
-0.000176878
-0.000379312
0.00071893
-0.000169767
0.000677733
-0.000233182
-0.000444901
-0.000782359
-0.00010243
-4.50944e-05
-2.72311e-05
-0.000497015
-0.000776047
0.000342753
-0.000993699
0.00064975
-0.000301774
0.00102773
-0.0007304
-0.00016054
2.64223e-05
0.000173829
4.67158e-05
6.9363e-05
0.000372273
-0.000435616
0.00110477
-0.000679889
-1.92108e-05
-0.000177985
-0.000137238
0.000200532
-0.000104462
-0.000336556
0.000423479
0.00114175
-0.000531439
-0.00100898
0.000365126
0.000630203
-0.000201141
8.61427e-05
-0.000154811
3.76901e-05
0.000966762
2.08445e-05
-0.000205936
9.87214e-05
0.000107214
-0.000519402
-0.000236453
0.000736676
0.00102868
-0.000665073
-0.00036723
-0.000262358
0.000280656
-0.000751302
0.000206681
-0.000464947
0.000258261
0.000738587
0.000326563
-0.00107778
-7.32268e-05
-2.18807e-05
0.000841275
-0.000452863
-0.000388319
-0.000211047
0.000127031
0.000214659
-0.00046879
0.000230357
0.000683564
0.000227213
-0.000975439
0.000741029
0.000435568
-0.000366869
-0.000107534
-0.000125093
0.000232627
-0.000441496
8.45069e-05
8.22634e-06
-5.02553e-05
-0.000717781
0.000237773
-0.000129653
-0.000274741
0.000381069
-3.91597e-05
-7.91893e-05
-0.000308481
1.93995e-05
2.57117e-05
-1.0846e-05
0.000264089
0.00029827
-0.000562451
-0.000648418
0.000650114
9.78515e-05
-0.000964627
-0.000781417
-0.000363578
0.000861434
-5.39889e-05
-0.000150993
0.000204982
0.000176374
-0.000267411
0.000857506
-0.000445774
0.000354192
-0.000263284
0.000709772
-0.000134918
-0.00045062
0.000797069
0.000872712
-0.000520573
0.00027268
-0.000425927
-0.00117823
0.000326695
0.000838122
-0.000897273
0.000977253
-7.96914e-05
0.000195253
-0.000115562
-0.00085638
0.000112089
-0.000560418
0.000544817
0.000191954
-0.000968495
0.000736467
-2.40493e-05
-0.000161315
3.87532e-05
0.000122562
-0.000120546
4.77126e-05
0.000786149
-0.000381215
-0.000605218
-0.000198569
-0.000275844
1.39062e-05
0.000261921
0.000223219
-0.000634053
0.000347765
-0.000748726
0.00040009
-0.000154478
-0.00063321
0.000781664
-0.000233609
0.0010228
-0.000431434
-0.00108253
0.00024175
0.000840145
9.04101e-05
9.69332e-05
-0.000187343
-0.000597808
-0.000111789
0.000709014
4.53366e-05
0.00027166
0.000896873
0.000296369
0.00038092
0.000320498
-0.000216375
8.98991e-05
4.46511e-05
-0.000393461
0.000459067
-6.55888e-05
-0.000483749
0.000670388
-0.000748389
0.000370604
-0.000214996
-0.000263812
8.45547e-05
0.000175634
-9.50569e-05
-0.000345253
-0.000198413
-0.000529011
-0.000264898
-0.00049045
9.48719e-05
-0.000622156
-2.17162e-05
1.01795e-05
1.11312e-05
0.000301558
0.000770857
0.000187572
0.000140115
0.000493574
-0.000748643
-0.000325421
0.000319934
0.000116018
-0.000223552
0.000435219
-0.000844243
0.000408328
0.000219857
0.000212886
0.000303358
6.04923e-05
-3.68493e-05
-0.000247777
1.77625e-05
0.000166446
-0.00090871
0.000249864
-0.000318565
-0.000185277
0.000503743
-0.000983688
0.000662433
0.000314526
-0.000486935
-0.000106733
0.000581191
-0.00102617
0.000683228
1.81069e-05
-7.06953e-06
0.000106248
0.000259927
-0.000551867
-0.000694619
0.000151546
-0.000291719
0.000364153
-0.000142491
-0.000221677
-0.000100947
-0.000630683
0.000924007
-0.000673514
-0.0002517
0.000679745
-0.000383637
0.000710836
-0.000475469
0.00013154
0.000343857
-0.00079947
-0.000259647
0.00105634
0.000298752
0.000410043
-0.00070969
0.000227341
-0.000330718
0.000207626
8.2748e-05
-0.000436565
0.000716208
9.53585e-05
-0.00022878
0.000133421
-0.000199486
0.000218358
-3.4889e-05
0.000350475
-0.000248759
0.000591643
0.000279113
0.000721485
0.000245234
-8.02193e-06
-1.41344e-05
-0.00029327
-0.000161196
0.000441301
4.27687e-05
-0.00043075
0.000387922
-0.000710812
0.00101635
-0.00028033
0.00017858
0.000425481
-0.000646729
0.000863128
-0.000242573
0.000770875
0.000302867
0.000598581
-0.00104412
0.000325752
6.4202e-05
0.000370458
0.000650156
-0.000970721
0.000320272
-0.000387438
0.000183841
0.000203567
-0.00050103
-0.000134735
0.000635583
1.74329e-05
-4.56157e-05
-0.00100273
0.000215537
0.000769732
-0.000400265
0.000920631
-0.000521536
0.00109653
-0.0010296
-0.000364413
0.000838403
-0.000476209
-0.000221626
-4.71852e-05
-0.000551093
-0.000313547
-0.000676538
-0.000743437
0.000963384
-0.000602234
0.000286865
0.000315402
-0.000579863
8.1587e-05
0.00010706
0.000115468
0.000119726
0.000165164
-0.000284903
0.000991236
-2.42299e-05
0.000207118
0.000137762
-0.000344914
-9.33171e-05
-8.76573e-05
3.22305e-05
-0.000161979
0.000126111
0.00114911
-0.000768758
-0.000391276
-0.000249183
0.00033631
-8.76713e-05
-0.000784612
0.000455526
0.00032776
2.9984e-05
-0.000244351
-1.4977e-05
-1.33038e-05