/*--------------------------------*- C++ -*----------------------------------*\
| =========                 |                                                 |
| \\      /  F ield         | OpenFOAM: The Open Source CFD Toolbox           |
|  \\    /   O peration     | Version:  v2012                                 |
|   \\  /    A nd           | Website:  www.openfoam.com                      |
|    \\/     M anipulation  |                                                 |
\*---------------------------------------------------------------------------*/
FoamFile
{
    version     2.0;
    format      ascii;
    class       volVectorField;
    location    "150";
    object      U;
}
// * * * * * * * * * * * * * * * * * * * * * * * * * * * * * * * * * * * * * //

dimensions      [0 1 -1 0 0 0 0];


internalField   nonuniform List<vector> 
13851
(
(1.01327 -0.00816555 -9.41867e-22)
(0.758271 0.307475 -4.94646e-21)
(1.06445 -0.0585512 -1.02474e-20)
(1.01369 -0.00682072 -1.28218e-21)
(1.05851 -0.0473261 0)
(1.03772 0.0713131 0)
(1.02895 -0.00244834 5.59529e-21)
(1.0494 -0.0501986 3.70404e-22)
(1.00978 -0.000424437 0)
(1.0397 -0.102124 0)
(0.932199 0.0626839 8.28226e-22)
(0.75983 -0.214969 1.92891e-20)
(1.00333 -0.0717308 -5.06628e-21)
(0.282418 0.25217 0)
(1.01806 -0.000606152 2.94645e-21)
(1.02353 -0.0397475 -2.24123e-21)
(1.03696 -0.0255479 -2.76937e-21)
(1.02302 -0.0163271 1.31809e-21)
(1.02976 -0.0460853 -7.29061e-21)
(1.00962 -0.000454143 4.49488e-22)
(1.014 -0.00688634 -1.52546e-22)
(1.06362 -0.0555248 4.85423e-21)
(1.00432 3.73582e-05 -2.43759e-22)
(1.00422 -5.89215e-05 2.05479e-21)
(1.0035 -2.21098e-05 -2.62281e-22)
(1.0485 -0.0516874 6.82019e-21)
(1.04739 -0.0193007 1.83686e-20)
(0.0314871 -0.149781 -5.03395e-20)
(1.01372 -0.00859951 -6.95477e-22)
(1.02126 -0.0166941 -7.86166e-23)
(1.04173 0.0840965 4.91254e-22)
(1.0374 -0.0266766 -3.11822e-21)
(1.06248 -0.0603436 7.95134e-21)
(0.929686 0.210137 5.1478e-21)
(1.00492 -5.77037e-05 -1.25441e-21)
(1.08657 -0.0661862 -3.7967e-20)
(1.09693 -0.0764283 2.36559e-22)
(1.06852 -0.0195132 -5.21187e-21)
(1.04455 -0.107678 2.57203e-21)
(0.950077 0.175733 -1.2002e-20)
(1.01439 -0.00585695 -2.75365e-23)
(1.00956 0.000456875 -1.20258e-22)
(-0.025169 0.0953415 -5.65144e-20)
(0.888956 0.0178801 0)
(0.885318 0.0591829 1.28719e-21)
(0.0587896 -0.223522 1.3848e-20)
(0.873871 -0.0125523 -1.04371e-20)
(0.842329 -0.133313 -4.79976e-21)
(1.04831 -0.0198806 -2.28189e-20)
(1.04692 -0.0277679 -1.30404e-22)
(1.06632 -0.0504951 -1.38237e-20)
(1.05732 -0.0595677 5.55609e-22)
(-0.0276498 -0.258982 6.49051e-20)
(1.01768 -0.000543358 -1.61157e-21)
(1.01059 -0.000656484 0)
(1.00979 0.00050298 0)
(1.0056 2.23161e-05 3.65166e-22)
(0.0102866 -0.258182 0)
(1.02131 -0.0163332 1.6584e-22)
(1.02956 -0.0050431 -2.84519e-21)
(1.07514 -0.0177613 0)
(0.40165 0.0525062 2.4709e-21)
(1.04022 -0.0497978 0)
(1.05716 -0.048206 1.14688e-20)
(0.877642 0.0992929 -4.54632e-21)
(1.01097 -0.00616451 -1.05337e-21)
(1.10285 -0.0785244 1.62326e-20)
(0.880137 -0.0796264 3.15287e-21)
(1.05949 -0.03433 0)
(1.02285 -0.017035 0)
(0.336141 -0.00237071 1.02754e-20)
(1.0586 -0.0775989 5.66299e-22)
(0.790245 0.30972 1.64428e-20)
(1.01767 -0.000571316 4.28375e-21)
(1.01141 -0.00103798 -2.84064e-22)
(1.01179 -0.000486164 -2.11866e-21)
(1.06202 -0.0550275 1.08999e-20)
(0.514465 -0.0151463 3.9671e-20)
(1.0577 -0.0439601 -1.45131e-20)
(0.313926 -0.00539639 -3.91871e-20)
(1.03207 -0.00903397 3.11224e-21)
(0.882944 -0.117074 0)
(1.01965 -0.00442601 -2.38858e-21)
(0.132327 -0.263017 0)
(1.04774 -0.0474065 0)
(0.805265 -0.236764 -2.23213e-20)
(1.05561 0.0263735 0)
(0.734645 -0.135222 -1.78253e-20)
(1.04425 -0.0253773 0)
(1.01402 0.000122616 3.76691e-22)
(1.08511 -0.0657776 3.96182e-20)
(0.999062 -0.010879 8.04258e-22)
(0.881362 -0.123666 -4.46399e-21)
(1.04852 -0.0297872 0)
(1.04479 -0.0245335 0)
(1.00401 -2.05038e-06 -2.65632e-23)
(1.05819 -0.0476099 2.20129e-21)
(0.635157 -0.111377 0)
(1.04591 -0.0374971 0)
(1.00329 2.18909e-05 0)
(0.152131 0.100883 -2.88788e-20)
(1.06197 -0.0437265 1.10182e-21)
(1.0168 -0.0108341 -1.80796e-22)
(1.05396 -0.0117429 7.90517e-21)
(1.00486 6.83566e-05 -2.31408e-23)
(1.06988 -0.0029747 -1.40025e-21)
(1.06381 -0.0454073 1.03076e-20)
(1.00889 0.000469155 2.02697e-22)
(0.958675 -0.0725245 0)
(1.0146 0.0801342 0)
(1.00328 -1.04075e-05 -8.86731e-22)
(1.01431 3.73975e-05 -1.0946e-21)
(1.00207 -0.00948313 -2.5157e-21)
(1.00101 4.4116e-05 -6.47587e-22)
(1.00399 -2.32728e-05 1.6401e-21)
(0.91824 0.278684 2.90967e-20)
(0.668255 -0.105954 9.65557e-21)
(1.00824 0.000273419 -2.99974e-22)
(1.00528 -0.000199839 -3.6001e-22)
(1.009 -0.000461042 0)
(-0.0432048 0.0961399 5.23869e-20)
(1.0529 -0.0121676 -1.64582e-20)
(0.974785 -0.0729303 0)
(0.915202 0.201027 -9.32074e-21)
(0.845847 -0.10843 0)
(1.01587 0.00139655 -2.96899e-22)
(0.83805 -0.0580913 -1.2841e-21)
(1.05965 -0.0437246 -1.94577e-21)
(1.01423 -0.00624526 1.0817e-21)
(1.05244 -0.0407112 0)
(1.01427 -0.00567785 0)
(1.00849 -0.000855282 3.33639e-22)
(0.35752 -0.00797824 0)
(1.01965 -0.00417689 0)
(0.919248 0.284099 -1.90299e-21)
(1.0081 -0.000399481 6.5165e-23)
(1.00818 0.000244605 2.31526e-22)
(1.06707 -0.0781836 1.84424e-22)
(0.103001 0.268086 1.10068e-20)
(0.288592 0.301464 0)
(0.0806864 0.0556904 0)
(1.01025 -0.000616969 0)
(1.0148 -0.00199409 0)
(1.01249 0.000529188 0)
(1.02981 -0.0195273 -1.48617e-21)
(0.883886 -0.0297085 -1.43482e-21)
(1.02268 -0.00218585 -2.99375e-24)
(1.05358 -0.038482 0)
(1.02825 -0.0024177 -1.16739e-20)
(0.894731 0.0997161 7.44516e-22)
(1.08236 -0.0484898 1.24375e-20)
(1.0094 -0.000571372 -3.83317e-22)
(0.296487 0.24781 -3.83355e-20)
(1.00557 3.08209e-06 4.26872e-22)
(1.03772 -0.0168533 2.11758e-22)
(1.02911 -0.0191423 0)
(1.0113 -0.00231086 4.86913e-22)
(1.02248 -0.0161631 -2.6028e-21)
(1.05582 -0.0590566 1.979e-20)
(1.06539 -0.0498642 0)
(1.01232 0.000858662 9.19972e-25)
(1.05521 -0.0264185 5.69266e-21)
(-0.000253377 -0.262967 0)
(1.00839 -0.000814507 -3.68883e-22)
(1.01809 -0.0200838 0)
(1.011 0.000447954 3.59959e-22)
(1.02489 -0.00270054 -4.21423e-23)
(1.06067 -0.0344651 0)
(1.01438 -0.00628547 1.58775e-21)
(0.452929 -0.153714 -1.19989e-21)
(0.497645 -0.00967366 -4.7648e-20)
(1.00755 -0.000141607 9.48143e-22)
(1.01139 -0.00246647 -1.46914e-21)
(0.273549 0.307353 6.33935e-21)
(1.00822 -0.0007478 0)
(0.855765 -0.172077 0)
(1.05892 -0.0434785 -6.78488e-21)
(1.01662 -0.00285521 1.94234e-21)
(1.02924 -0.0507591 7.74542e-21)
(1.00953 0.000576833 1.99499e-22)
(1.03697 -0.0285392 -1.27555e-22)
(1.04194 -0.0770524 3.35222e-20)
(1.01958 -0.00361675 0)
(1.06524 -0.0541271 -1.70306e-20)
(1.00803 0.000219623 0)
(1.00427 1.15527e-06 -9.13134e-22)
(1.01063 -0.00736307 -2.17246e-21)
(1.01075 -0.000708485 -4.38369e-22)
(1.05822 -0.0456747 -8.00165e-21)
(0.966805 -0.0856522 3.03011e-24)
(0.874361 -0.0644464 -2.52271e-21)
(-0.0339479 -0.261186 -2.87748e-20)
(1.01482 6.12222e-05 0)
(1.05618 -0.0360773 2.98771e-21)
(0.458892 0.0671212 1.04357e-21)
(1.03616 -0.0163914 2.76026e-22)
(1.01467 -0.00158865 -1.56726e-21)
(0.9736 -0.0384695 -7.33846e-21)
(1.01609 -0.00260876 -2.61358e-21)
(1.01189 -0.00054622 3.48054e-22)
(1.01568 0.0010361 -2.99131e-22)
(0.15906 -0.143738 -1.0163e-22)
(1.00302 -9.04208e-05 -1.70324e-22)
(1.0164 -0.00504 0)
(0.999397 -0.0824335 0)
(1.01998 -0.00382327 -4.34916e-21)
(0.39405 0.168629 -1.01618e-20)
(1.03955 -0.0256701 9.59507e-22)
(0.502036 -0.0267989 -3.21528e-21)
(1.01072 0.000699997 -3.12016e-23)
(0.771546 -0.0666766 -2.04855e-20)
(1.0167 -0.0104565 1.55384e-22)
(0.901356 -0.0635365 0)
(1.00919 0.000503481 -4.00793e-23)
(1.01201 0.000492269 3.48875e-22)
(0.992397 0.0766743 3.9577e-22)
(1.05213 -0.0333026 -1.72473e-21)
(-0.0464893 -0.233582 1.01017e-21)
(1.01818 -0.00134243 -3.88815e-21)
(0.518924 -0.03024 0)
(1.03941 -0.0263932 -1.22476e-20)
(1.03288 -0.00937537 -1.82083e-21)
(0.797872 -0.0843781 0)
(1.05206 -0.0519735 -7.0364e-21)
(0.660614 -0.0539573 0)
(1.00341 1.58497e-05 3.5873e-23)
(1.05003 -0.0331283 -1.46235e-20)
(1.00407 3.14957e-05 -2.94533e-23)
(-0.101014 -0.226519 4.75746e-20)
(1.00943 0.000531912 4.14519e-23)
(1.04643 -0.0517638 4.9823e-21)
(1.01312 0.127508 -3.75443e-23)
(1.00743 -0.000124418 -9.6325e-22)
(1.01459 0.000182831 0)
(1.06835 -0.0480065 1.49951e-20)
(1.02727 0.00217674 -1.9711e-21)
(0.463686 0.161878 3.68008e-20)
(0.830887 0.0969525 5.51273e-21)
(1.01248 0.000510062 0)
(1.01669 -0.00514942 0)
(1.06496 0.0626409 0)
(0.972533 -0.0827414 -1.44e-21)
(1.01517 0.00109516 3.17602e-23)
(0.997561 -0.0886237 8.52791e-23)
(1.00581 0.000104013 1.09282e-22)
(0.603092 -0.0469359 1.38174e-20)
(1.0614 -0.0442928 0)
(0.902735 0.122339 -3.19375e-21)
(1.02793 -0.0192779 -4.79529e-21)
(1.02917 -0.0270821 7.26833e-22)
(1.02409 0.00913223 -8.82721e-22)
(0.95196 -0.0873928 1.53066e-21)
(1.02687 -0.012083 -5.46393e-21)
(1.02865 -0.0197125 2.60396e-21)
(1.06871 -0.043063 1.21369e-20)
(0.945698 -0.113185 -6.41752e-22)
(0.964884 -0.0759848 3.14851e-21)
(1.05289 -0.0782717 -1.6973e-20)
(0.57227 -0.032296 4.86819e-20)
(1.02086 -0.00141633 0)
(1.01205 0.000500228 0)
(1.02133 -0.0174141 0)
(0.923755 0.236323 -4.17955e-22)
(1.01384 0.000570428 0)
(0.999778 -0.0339863 1.85762e-21)
(1.03553 -0.0165221 5.27565e-21)
(1.02691 -0.0116439 5.50878e-21)
(1.04834 -0.0290048 0)
(0.8362 -0.0847728 0)
(1.01142 0.0104134 5.51036e-22)
(1.02591 0.00780162 1.90986e-21)
(1.03701 -0.0171176 -2.77446e-22)
(0.950804 0.171311 -4.80205e-22)
(1.05732 -0.0430616 8.31402e-22)
(1.02246 -0.0378887 1.58694e-21)
(1.00865 -0.000922091 7.1284e-22)
(0.877006 -0.123067 1.31184e-22)
(1.03062 0.017879 -1.45388e-22)
(0.665336 -0.052975 2.18243e-20)
(0.945845 0.0850038 8.90491e-22)
(1.0154 0.00105914 -3.55888e-24)
(1.01038 0.000623543 0)
(1.00509 6.71517e-05 0)
(1.06863 -0.0421122 1.20364e-20)
(0.926567 0.239475 -8.82766e-21)
(0.874508 -0.218389 -5.23533e-21)
(1.01078 -0.000574949 -9.21788e-22)
(1.01894 -0.000258897 0)
(0.966542 0.177009 0)
(0.893403 -0.105018 0)
(1.05237 -0.0362187 0)
(1.02156 -0.0163081 -2.55739e-22)
(1.02976 -0.00548908 4.18277e-22)
(1.0589 -0.0372193 0)
(0.900495 -0.110623 -9.14259e-22)
(1.0131 -0.0410118 1.91111e-21)
(1.01979 -0.021899 2.28593e-22)
(0.807815 -0.254425 0)
(1.0089 -0.00102276 3.78395e-22)
(0.626731 -0.0501724 0)
(1.05494 -0.0257402 -5.92494e-21)
(1.03576 -0.0252983 0)
(0.682437 -0.0567025 2.23735e-20)
(1.0182 -0.0095806 1.34999e-21)
(1.07181 0.00965479 1.44841e-21)
(0.713125 -0.0634076 0)
(1.0105 -0.000565251 -1.30881e-22)
(1.06573 -0.0393796 0)
(1.04763 -0.0304908 0)
(1.02147 -0.0159178 0)
(0.105332 0.256602 0)
(1.01909 -0.0218417 0)
(1.02535 -0.0117329 5.8463e-22)
(0.754602 -0.093834 3.77112e-21)
(1.00993 0.000439165 -1.41025e-22)
(1.0297 -0.028043 -9.14471e-22)
(1.01538 0.000325353 0)
(0.715053 -0.05707 -1.99311e-20)
(1.08248 -0.0598936 0)
(1.01841 -0.00148765 -4.02164e-21)
(1.06437 -0.0438215 -1.61354e-20)
(1.01887 -0.00101512 2.03017e-21)
(0.587438 -0.0516815 0)
(1.02309 0.0161657 0)
(1.00446 1.23972e-05 0)
(1.0126 -0.00262215 1.47992e-21)
(1.08102 -0.0595142 1.80235e-21)
(1.04962 -0.0319186 0)
(1.03864 -0.0158087 -3.68115e-21)
(1.01881 -0.000148837 0)
(1.01826 -0.0094851 -8.98532e-22)
(1.02482 -0.0115273 -9.62405e-22)
(0.915116 0.0649165 0)
(0.451007 0.224382 0)
(0.443747 -0.106846 0)
(1.02247 -0.0236902 -6.72785e-23)
(0.729413 -0.0599528 -9.4598e-21)
(0.83707 0.0607616 1.19768e-21)
(1.01796 -0.000593092 -1.65334e-21)
(1.0558 -0.0370562 0)
(1.05382 -0.0333966 -8.91321e-22)
(1.00059 -0.0209382 0)
(1.04203 0.0197431 0)
(1.06176 -0.0588237 0)
(1.02754 -0.041198 -1.29717e-21)
(1.01103 0.000770827 0)
(0.88452 0.255536 1.46369e-21)
(0.679118 -0.0562657 3.00441e-21)
(1.01805 -0.000486597 -3.8663e-22)
(1.01807 -0.0216373 1.83371e-21)
(1.01273 -0.0225692 -1.80718e-21)
(1.12934 -0.0597673 1.34755e-20)
(1.03912 -0.0154374 3.87872e-21)
(1.04712 0.0262915 1.15124e-20)
(-0.0993296 -0.234356 -3.96506e-20)
(1.0116 -0.00258682 1.58034e-21)
(0.875929 0.247873 0)
(1.01258 -0.00249363 0)
(1.01874 -0.000935862 0)
(1.00635 0.000123805 -1.04831e-22)
(1.00906 0.000499535 -1.1558e-22)
(1.01078 -0.00215741 0)
(0.715534 -0.0605854 -2.91259e-21)
(0.958574 -0.141161 0)
(1.01843 -0.00679983 -2.66414e-21)
(1.06545 -0.0382225 1.67828e-20)
(1.01072 0.000501004 2.14716e-22)
(0.775693 -0.262822 -8.71352e-21)
(1.01073 -0.0420887 -7.02183e-22)
(0.882463 -0.241994 2.18988e-21)
(0.463389 -0.13593 0)
(1.01839 -0.00702775 1.79004e-21)
(1.06009 -0.0348659 -1.01711e-21)
(1.04558 -0.0314905 -1.7695e-20)
(0.875785 -0.233136 -7.69826e-21)
(1.01363 -0.00496777 -6.0052e-23)
(1.00827 0.000273401 3.00287e-22)
(1.00846 0.00896718 1.70358e-21)
(0.27288 0.0614265 -5.94382e-20)
(1.01108 -0.000861599 5.10569e-22)
(0.124925 0.259752 0)
(0.997164 -0.0175864 0)
(1.06134 -0.0602124 0)
(0.401648 -0.172341 -7.12123e-21)
(0.984956 -0.0434707 1.47798e-21)
(0.994806 -0.0472398 -2.92543e-21)
(1.0251 -0.00282582 1.50916e-22)
(1.00885 -0.00105952 3.09187e-22)
(1.01716 -0.000324904 3.4254e-21)
(1.02077 -0.0222208 -1.43146e-21)
(1.06524 -0.0434813 1.3088e-20)
(0.322412 0.255158 2.84761e-20)
(1.06225 -0.033657 0)
(0.704644 -0.0579633 0)
(0.706 -0.0615913 2.24514e-20)
(1.01069 0.000476612 5.25695e-22)
(1.02127 -0.00144768 0)
(0.428104 -0.127162 0)
(0.34939 -0.0067835 4.82619e-21)
(1.05805 0.0960825 6.38388e-23)
(0.702242 -0.101645 -2.47914e-20)
(1.00793 0.0114354 0)
(1.04626 -0.0325486 -2.75502e-22)
(1.00334 -1.16551e-05 0)
(0.887724 0.0468771 0)
(1.00872 -0.000306599 0)
(1.02558 -0.039649 -1.99113e-21)
(1.02328 -0.00275456 -3.46434e-21)
(1.02656 -0.00372077 4.62942e-21)
(1.00443 3.04805e-05 2.2526e-23)
(1.01039 -0.000498197 -2.74278e-22)
(1.01099 0.000453124 2.25874e-22)
(1.05759 -0.0489445 -1.3511e-20)
(1.01829 0.0165918 -7.96693e-21)
(0.608665 -0.0904685 -5.8199e-20)
(1.02269 -0.0186594 1.31297e-21)
(1.06453 -0.0449197 5.88349e-21)
(1.00667 0.0138281 2.05427e-21)
(0.940159 -0.0654006 -1.41096e-21)
(1.02704 -0.0283659 0)
(1.12234 -0.0702141 0)
(1.03526 -0.0243984 0)
(1.0092 0.0775588 -1.31916e-21)
(1.00818 0.000250199 -2.20236e-22)
(1.01014 -0.000490818 2.6311e-22)
(1.00351 -1.53208e-05 6.72935e-22)
(1.08584 -0.00503994 0)
(0.876476 -0.19946 1.46779e-20)
(1.05193 -0.0488458 1.09423e-20)
(1.00493 0.00972202 -1.66461e-21)
(0.607915 -0.0845308 6.21265e-20)
(0.927841 0.220283 4.76581e-21)
(1.0588 0.0155092 -1.50508e-21)
(1.00832 -0.00047792 6.9836e-22)
(1.06951 -0.0483243 -3.77142e-20)
(1.01349 -0.00477639 -3.0914e-23)
(0.923563 -0.0618457 1.36278e-21)
(1.00491 5.63272e-05 -2.57314e-22)
(1.07414 -0.121009 -4.17163e-20)
(0.869358 -0.0298815 0)
(1.05749 -0.064554 -5.07246e-22)
(0.504762 -0.0241061 0)
(1.01592 -0.00290258 8.59019e-22)
(1.0404 0.00543306 0)
(0.864705 -0.0545373 -1.97032e-21)
(0.425361 0.0690169 2.25816e-20)
(1.00829 0.00023395 3.23717e-23)
(1.04735 -0.0346814 7.04611e-21)
(1.05844 -0.0440914 2.30779e-20)
(1.01192 0.0150953 -6.80902e-23)
(1.00805 -0.000260038 -3.75225e-22)
(1.02419 -0.0116708 -5.29792e-21)
(1.08194 -0.0471057 0)
(1.05895 -0.0588727 -2.38518e-20)
(1.02816 -0.0199209 -3.39462e-21)
(0.500472 -0.276009 0)
(1.00397 3.7139e-05 5.59688e-22)
(1.01282 -0.00275136 0)
(-0.133095 -0.0371309 -4.11731e-20)
(1.01739 -0.0189662 4.13959e-22)
(1.0101 0.000585027 -3.58068e-23)
(0.690967 -0.165945 3.52938e-21)
(1.00875 -0.00100454 -1.4709e-23)
(1.01332 -0.0075072 1.88674e-21)
(1.00854 -0.000321479 0)
(1.00137 -0.0137483 0)
(1.02182 -0.0148526 -3.27159e-22)
(1.01044 0.000661399 -3.67945e-23)
(1.01549 -0.00252738 0)
(0.777315 -0.0945693 -8.35413e-21)
(1.02 -0.00474047 -1.68537e-21)
(1.06234 -0.0358306 -1.5175e-20)
(1.00835 -0.000456989 -6.58198e-22)
(1.02727 -0.0093659 2.02128e-21)
(1.04149 0.0358488 1.97864e-22)
(1.00073 7.31139e-06 0)
(1.01338 -0.00472703 -2.03839e-22)
(1.00184 5.66713e-05 0)
(1.00175 -6.62568e-06 7.29159e-22)
(0.896846 -0.187806 5.83921e-21)
(1.02757 -0.0112716 3.93381e-21)
(1.06055 0.0396027 -1.33959e-21)
(1.01956 -0.00334941 0)
(1.00412 1.94523e-05 -3.92612e-22)
(0.08958 0.159175 0)
(0.488894 -0.0208269 -2.26023e-21)
(1.02077 -0.00401696 0)
(1.02835 -0.0119539 -2.67291e-21)
(1.02798 -0.029319 0)
(0.990645 -0.101719 7.18277e-22)
(0.0651545 -0.255505 0)
(1.01287 -0.00291012 9.09942e-22)
(0.945453 -0.163229 0)
(1.01388 -0.00521184 7.09166e-23)
(1.05952 -0.0466623 0)
(1.02758 -0.00485824 0)
(-0.187346 -0.207261 7.75494e-23)
(1.00787 0.000202322 -3.74539e-22)
(-0.0332181 -0.246641 -3.52277e-20)
(0.954519 -0.0617386 -1.26026e-20)
(1.00961 0.000437807 0)
(1.02528 -0.0144523 1.73993e-21)
(0.552522 -0.142114 0)
(1.04577 -0.0536588 -6.25704e-21)
(0.900203 -0.0424222 -9.35326e-22)
(1.00634 -0.000247271 0)
(0.891132 0.255524 3.7807e-23)
(1.0098 -0.000547229 -9.97081e-23)
(1.00793 -0.000589893 -2.89164e-25)
(1.00888 -0.000989071 1.15515e-21)
(1.02682 -0.00221324 0)
(0.374276 -0.0126986 8.97061e-21)
(1.06469 -0.04803 -1.24369e-20)
(1.06741 -0.0633502 -6.3678e-21)
(1.04121 -0.0688409 2.96561e-20)
(1.04724 -0.0375128 0)
(1.01262 0.000896707 0)
(0.84349 -0.0476738 0)
(0.87632 -0.187198 3.07609e-21)
(1.03818 -0.0288431 3.75527e-21)
(1.05455 -0.0271725 -9.85445e-21)
(1.00982 -0.0884914 -8.27162e-22)
(0.89408 0.213986 9.0667e-21)
(0.819985 -0.069818 0)
(1.01603 -0.000346349 -1.65379e-21)
(-0.188373 -0.215195 2.23773e-20)
(0.127752 -0.230825 -1.57429e-20)
(0.0658664 -0.1588 0)
(1.01818 -0.0211978 0)
(1.02556 -0.0170355 -3.39888e-21)
(0.902475 -0.0218246 2.1267e-20)
(1.03996 0.0118381 0)
(0.932432 -0.0986962 1.67425e-21)
(0.947262 -0.0218417 -4.3596e-22)
(0.993289 -0.0966785 3.43657e-20)
(1.02215 -0.0162453 2.043e-21)
(0.973607 -0.0789265 -3.54851e-20)
(1.03782 -0.0808812 0)
(1.00808 0.00023011 -2.03942e-22)
(1.03358 0.0134335 0)
(1.06556 -0.0485625 0)
(0.466736 -0.0126205 -2.53101e-20)
(1.02736 -0.0196769 1.1701e-21)
(1.01633 -0.00352144 -6.36962e-22)
(1.01109 -0.00221143 -4.636e-22)
(1.01519 -0.00587217 -6.80362e-22)
(1.05801 -0.0465322 0)
(1.0162 -0.00240012 0)
(0.734579 -0.105907 7.02279e-21)
(0.522946 -0.298087 -5.66938e-21)
(1.00756 -0.000261122 0)
(-0.10029 0.0151487 -7.28138e-20)
(0.551652 -0.030203 -8.94828e-22)
(1.09774 -0.030783 6.5954e-22)
(0.868656 -0.141064 -6.86181e-21)
(1.06123 -0.0356641 0)
(1.00958 0.000507275 1.27505e-23)
(1.01004 -0.000441489 0)
(1.03347 -0.0153349 8.26256e-23)
(0.809358 -0.0535722 0)
(1.03858 -0.0173455 0)
(1.07982 -0.0540276 0)
(1.0808 -0.0672992 -5.78664e-21)
(1.00975 0.00052489 -1.11196e-22)
(1.00533 0.0248654 -9.13837e-22)
(0.862249 0.169841 -6.82557e-21)
(1.13036 -0.06307 -9.44893e-21)
(1.05815 -0.056295 -3.04111e-20)
(0.385596 -0.0147128 -3.57948e-20)
(1.03594 -0.0804631 2.64585e-22)
(1.01401 -0.00540555 0)
(1.02698 -0.00346342 4.7621e-21)
(0.585636 -0.200635 -5.83892e-22)
(0.694299 -0.0610716 -2.43172e-20)
(1.07732 -0.0622288 3.47313e-20)
(1.06305 -0.0328664 0)
(1.03703 -0.0605223 1.04815e-21)
(1.00932 0.000540691 -1.08176e-22)
(1.01327 -0.00351861 -2.82399e-22)
(1.0534 -0.104101 1.59114e-20)
(1.00945 0.000502917 1.056e-22)
(1.02671 -0.0191798 -1.06799e-21)
(1.00948 0.000564174 5.59692e-23)
(1.00872 -0.000892664 -2.02043e-22)
(1.02234 -0.0813087 2.26418e-21)
(1.05756 -0.0476422 -1.28368e-20)
(1.00831 0.00653293 2.85422e-21)
(1.00944 0.000518384 0)
(0.15139 0.24592 0)
(0.974938 -0.0927312 0)
(1.00903 -0.00110809 1.06201e-21)
(1.00598 1.45927e-05 0)
(1.01392 0.000472247 -5.95699e-22)
(1.01764 -0.000418593 -2.8708e-21)
(0.253209 0.0107818 2.51584e-22)
(0.911484 0.0624586 8.03252e-21)
(0.896362 0.00746341 0)
(-0.00384759 -0.135743 -2.96551e-21)
(0.895643 0.261805 -1.34378e-22)
(1.06231 -0.0312329 -7.18654e-21)
(0.448015 -0.00741946 5.52929e-21)
(0.479466 -0.0216591 2.06838e-20)
(1.00978 0.000645895 -1.00928e-21)
(1.05892 -0.0352349 1.23734e-20)
(1.00969 0.000512139 -1.31137e-23)
(1.01554 0.00100775 0)
(1.03 -0.0440477 7.46584e-21)
(0.820458 -0.0905634 -1.71532e-20)
(0.899801 0.25237 -1.38346e-21)
(1.07856 -0.0536265 -1.27407e-20)
(1.04159 -0.0342669 0)
(1.00927 -0.000397157 0)
(1.01901 -0.0364334 0)
(1.01476 0.000873269 0)
(0.91029 -0.000213403 -1.02062e-21)
(1.0627 -0.0495743 1.41011e-20)
(1.0192 -0.00313763 -6.30619e-21)
(1.02468 -0.0231251 1.44644e-21)
(1.00795 -0.000258478 -6.29123e-23)
(1.04963 -0.027662 8.33593e-21)
(1.05118 -0.0470899 -1.32288e-20)
(1.02882 -0.00488222 7.96702e-21)
(1.01325 -0.00457542 4.53511e-24)
(1.0127 -0.0447585 -4.81741e-23)
(1.0262 -0.00756941 5.46661e-21)
(1.05853 -0.0468562 8.99076e-21)
(1.09508 -0.0132417 -7.50028e-21)
(1.05372 -0.0519174 2.35937e-21)
(1.01541 -0.0343289 0)
(1.07853 -0.0628583 -9.12865e-22)
(1.00906 -0.000388668 0)
(1.11714 0.0357816 1.0228e-21)
(1.02256 0.0124865 0)
(-0.0549743 -0.141069 0)
(1.01697 -0.0104852 -4.72789e-23)
(1.00399 -2.2006e-05 7.74564e-22)
(0.986864 -0.0734275 0)
(1.01969 -0.0147831 0)
(0.401392 -0.194288 0)
(0.642284 -0.0513841 2.45137e-20)
(-0.152913 -0.237003 -2.6513e-20)
(0.655535 -0.157616 0)
(1.00859 -0.000303736 0)
(1.03749 -0.0760293 -3.63565e-20)
(1.01595 0.00106334 4.08722e-24)
(1.00868 -0.000958796 6.97072e-22)
(1.00783 0.000206966 4.48904e-22)
(1.00877 -0.000992525 9.36228e-23)
(1.01888 1.58675e-05 0)
(1.02276 -0.0201253 0)
(1.0053 -0.0137452 0)
(1.00917 0.000494678 -3.01806e-22)
(0.873129 0.0633106 -6.03808e-21)
(0.954434 -0.0717849 4.13603e-21)
(0.826063 0.0841815 1.48637e-20)
(1.01068 -0.00173668 0)
(1.00759 0.000197846 -7.34682e-23)
(1.00547 7.02789e-05 0)
(1.05759 -0.0329311 -1.73169e-21)
(0.476974 0.102461 6.37316e-21)
(1.07357 -0.042323 -8.19313e-21)
(1.04951 -0.0283087 0)
(1.01621 0.00108025 0)
(1.00391 9.96502e-06 -8.71949e-22)
(1.00652 -0.000158547 3.77865e-22)
(1.01171 -0.00229991 -7.61103e-22)
(1.05991 -0.0751832 0)
(0.373671 0.0196655 -7.98509e-21)
(1.02572 -0.00728753 -2.6766e-21)
(1.00917 0.00050312 9.08787e-23)
(1.02715 -0.00187601 -2.53871e-21)
(1.01162 -0.00235878 5.15219e-22)
(1.12399 -0.137012 -1.66291e-20)
(-0.0188887 -0.26832 -2.7875e-20)
(1.02018 -0.0382871 0)
(0.583986 -0.115427 0)
(0.884219 0.245039 7.30121e-21)
(1.0131 -0.00438905 0)
(1.06619 -0.0622499 3.42667e-20)
(0.381784 0.0913994 6.87812e-21)
(1.05948 -0.0363525 1.28156e-20)
(0.756485 -0.194955 1.51154e-21)
(1.03143 -0.00924736 2.99722e-21)
(1.02189 -0.0170367 1.13822e-21)
(1.07257 -0.0420076 0)
(1.02139 -0.0182922 0)
(0.925974 -0.0799821 6.85597e-21)
(1.02036 -0.00379223 0)
(0.898784 0.0679709 0)
(1.00477 4.52154e-05 -1.57611e-22)
(1.06822 -0.0241711 -1.01707e-20)
(0.526469 -0.0296592 -1.50533e-20)
(1.01274 -0.000222235 1.99335e-21)
(1.01849 -0.0134623 0)
(1.02798 -0.0603348 0)
(1.00811 -0.000646605 1.68429e-21)
(1.03657 -0.0274472 -6.13459e-21)
(0.953261 0.204794 7.81952e-21)
(0.298603 0.29826 1.2508e-20)
(1.06211 -0.0489449 -1.36099e-20)
(1.01705 -0.0288347 0)
(0.968398 -0.0505476 8.50767e-22)
(1.00922 0.00052071 -1.78384e-22)
(1.01046 -0.00166498 -4.58327e-22)
(0.040213 0.134773 0)
(1.08108 -0.0664208 -4.46595e-21)
(1.02645 0.00751954 4.26147e-21)
(0.665372 -0.0547016 -1.23565e-20)
(1.01009 -0.000283668 4.77549e-22)
(1.01459 -5.3851e-05 3.84626e-21)
(1.00808 0.000221352 4.2902e-22)
(0.899251 0.255865 0)
(1.09112 -0.0804011 -1.46349e-20)
(1.0214 -0.0207342 8.31478e-22)
(1.0148 -0.00710895 0)
(1.03302 0.0445385 -2.10448e-22)
(1.0451 -0.0212232 0)
(1.00568 8.03511e-05 6.21569e-22)
(-0.0254603 -0.0170181 0)
(0.947231 -0.1282 8.6464e-22)
(0.623509 -0.060919 3.62244e-20)
(1.0099 0.000460811 1.49128e-22)
(1.02579 -0.00690114 -2.55404e-21)
(0.472338 -0.0101696 -2.31495e-20)
(0.019649 -0.275695 0)
(1.0835 -0.0643104 1.8588e-20)
(1.01483 0.000703443 8.32344e-22)
(0.940549 -0.0756853 -1.6949e-20)
(1.02005 -0.00417027 1.97792e-21)
(1.01704 0.0628357 2.77874e-22)
(1.09129 -0.0552696 0)
(1.0605 -0.0661215 7.45208e-22)
(1.0299 -0.0253359 -3.34891e-21)
(-0.100895 -0.244434 0)
(1.02688 0.000876526 -1.32487e-21)
(1.01838 0.00282625 -1.50933e-21)
(1.09094 -0.075427 2.16798e-20)
(1.00415 -1.70543e-05 0)
(1.00181 -3.83493e-05 1.17396e-22)
(1.02194 -0.0153052 0)
(1.00898 -0.000362425 0)
(-0.0544939 -0.0909364 0)
(1.03451 -0.0401619 3.81094e-21)
(1.05913 -0.0578072 1.53586e-20)
(1.00715 0.00382 -1.72458e-21)
(1.03221 0.0244399 1.44237e-22)
(1.00937 -0.000438085 -1.0225e-21)
(0.930043 0.221857 -1.11996e-20)
(1.00532 -0.000136823 0)
(1.02715 -0.00111758 0)
(1.00745 0.000174755 -7.33825e-23)
(1.01273 -0.00404486 0)
(1.00967 -0.00065209 0)
(0.698015 -0.062488 0)
(1.01098 -0.00225991 0)
(1.00848 0.000292075 0)
(0.878822 -0.0441198 1.9004e-21)
(1.0277 -0.00359363 5.05091e-21)
(0.492257 -0.0158548 6.4942e-22)
(1.00408 3.03927e-05 0)
(1.01437 -0.000692995 0)
(1.07206 -0.0496079 0)
(1.11221 -0.152797 0)
(0.993131 -0.0670876 0)
(1.00712 -0.000183859 8.12247e-22)
(0.95914 0.140718 -5.19562e-22)
(0.602636 -0.104984 3.26446e-21)
(1.02751 -0.0117059 -5.76364e-21)
(0.802521 -0.072052 2.19932e-22)
(1.06711 -0.0240775 -8.8206e-21)
(1.00872 -0.00033418 -1.62915e-21)
(1.03394 0.0114121 1.30483e-21)
(-0.0325796 0.069108 1.60541e-19)
(0.988879 0.121314 -1.29513e-21)
(1.02619 -0.0261925 9.6165e-22)
(1.00738 -0.000232119 -3.90091e-22)
(1.00891 0.000472267 0)
(0.869528 -0.119035 1.9453e-21)
(1.06448 -0.0724321 5.67832e-22)
(0.973618 -0.0199683 0)
(1.02009 -0.0212613 -1.36752e-22)
(1.03684 0.00876028 0)
(1.01696 -0.000368476 3.39007e-21)
(1.01444 -0.000178749 -8.44897e-22)
(1.08391 -0.0520509 0)
(0.914309 -0.216328 0)
(1.05894 -0.0457804 8.23681e-21)
(0.904634 0.254052 5.98593e-22)
(1.02529 -0.00661235 -2.16377e-21)
(1.05917 -0.0463506 0)
(1.06691 -0.0533173 0)
(0.738562 -0.0592612 2.25283e-20)
(1.02111 -0.0198779 -1.35229e-23)
(0.278303 0.181997 2.38281e-20)
(1.03751 -0.0656141 -9.73729e-22)
(1.02817 -0.00327643 0)
(0.304827 -0.224366 1.94241e-20)
(1.11434 0.0160612 0)
(0.585738 -0.000338362 -5.15881e-22)
(0.326617 0.290747 -1.54933e-20)
(0.710275 -0.0916213 -1.98045e-20)
(0.959176 -0.0934374 2.30018e-22)
(1.02939 -0.0515439 -2.25513e-21)
(1.00879 -0.000350574 4.99204e-22)
(1.01894 -0.0221221 0)
(-0.00480212 -0.256265 0)
(0.249556 -0.260304 1.80503e-20)
(1.01248 -0.00186216 2.19599e-21)
(1.00349 1.00008e-05 -6.45754e-22)
(1.06747 -0.0486569 0)
(0.968659 -0.077452 1.02473e-21)
(1.00926 0.000347186 9.69521e-23)
(-0.00899686 -0.278913 -3.41081e-20)
(1.0098 -0.000269356 -9.77621e-22)
(1.01937 -0.00648606 -3.86388e-21)
(-0.126645 -0.0694607 3.98562e-20)
(0.48352 -0.0113958 -2.07337e-20)
(0.96956 -0.0627067 2.95631e-22)
(1.0087 -0.000972808 -5.9385e-22)
(1.01878 -0.000742384 0)
(0.017105 -0.278687 1.93584e-20)
(1.05904 -0.0741235 -6.52049e-21)
(1.07721 -0.0608233 0)
(1.01263 -0.00258687 6.64334e-22)
(0.49393 -0.0978216 0)
(1.12531 -0.0529954 2.08412e-20)
(0.571875 0.0905452 -5.79069e-21)
(1.06301 -0.0450002 -1.26516e-20)
(1.06439 -0.0380312 -1.84701e-20)
(1.02465 -0.0118594 0)
(1.02743 -0.00437984 0)
(0.831887 0.33192 -1.50009e-20)
(1.07675 -0.0388899 -1.74583e-20)
(0.341627 -0.00680892 7.39758e-21)
(1.01121 0.0159224 2.58913e-21)
(1.06114 -0.0334103 0)
(0.0519826 -0.178609 7.21456e-20)
(0.553586 -0.0144192 -9.64256e-21)
(0.53481 -0.0236765 2.11421e-20)
(1.02245 -0.00423309 -1.73393e-21)
(1.06213 -0.0289235 1.45346e-20)
(1.00893 -0.00105789 0)
(1.01647 -0.0365261 0)
(1.01812 -0.0131683 8.24242e-22)
(0.66226 -0.152068 0)
(1.0098 -9.77109e-05 1.32792e-23)
(0.476368 -0.0314977 4.14355e-20)
(1.00906 0.000325369 1.13954e-22)
(1.07127 -0.0490442 -2.78048e-21)
(1.01328 -0.00413859 -1.08197e-21)
(1.10538 -0.057674 8.00016e-21)
(1.06317 -0.0319085 2.2129e-22)
(1.06091 -0.029055 -1.32095e-20)
(0.60158 -0.117762 0)
(1.0681 -0.0384253 0)
(0.998716 -0.00978651 4.77697e-21)
(1.00389 -2.90601e-05 0)
(1.07011 -0.0491556 2.23768e-20)
(0.85676 -0.196439 7.23783e-21)
(1.06889 -0.0488384 9.68686e-22)
(1.02556 -0.0189744 -3.5237e-21)
(0.476005 -0.00931573 1.9048e-20)
(1.01349 0.000576116 2.76118e-22)
(0.380932 0.284713 -2.87387e-20)
(0.962118 -0.148375 4.56348e-21)
(1.02243 -0.00975536 0)
(0.738577 -0.0618829 2.00067e-20)
(0.234447 0.0924526 2.94064e-20)
(0.507427 -0.0195677 0)
(0.949273 -0.0755918 -2.16767e-22)
(1.0149 0.015497 -2.46849e-21)
(1.01226 -0.0023117 8.99514e-23)
(0.616848 -0.0629598 -1.83496e-20)
(1.01439 -0.000192974 -2.86889e-21)
(0.894484 0.264894 1.62222e-20)
(0.4933 -0.0267983 1.50558e-20)
(1.01065 -0.00187911 4.29443e-22)
(1.04413 -0.0109874 0)
(1.0796 -0.0074038 0)
(0.949528 -0.144251 -5.21705e-21)
(0.243047 0.197294 3.80429e-21)
(1.0237 -0.00787978 5.79497e-21)
(1.00639 -1.22292e-05 4.88701e-22)
(0.760851 0.104592 9.34373e-21)
(0.512597 -0.0280133 0)
(1.0568 -0.0559124 1.54347e-20)
(1.02629 -0.025037 2.59114e-21)
(1.01339 -0.00277101 6.55809e-22)
(0.947202 -0.14946 -7.56861e-22)
(-0.188767 -0.198415 -2.45268e-20)
(1.06609 -0.0539289 0)
(1.00853 0.0002829 -1.1152e-22)
(1.03138 -0.053136 6.9805e-22)
(1.0081 -0.000682224 3.9396e-22)
(1.00562 -0.000129353 2.26712e-22)
(1.00574 -0.0277925 0)
(1.00313 5.23821e-06 4.35517e-22)
(1.05744 -0.0742806 0)
(0.917436 -0.0291194 0)
(1.01933 -0.00673701 4.08982e-21)
(1.01513 -0.00256215 0)
(1.01243 -0.00232328 -9.60441e-23)
(1.02237 -0.0156481 7.8726e-22)
(0.390398 -0.00692266 2.01293e-20)
(0.526343 -0.142281 0)
(1.04811 -0.033768 2.60263e-22)
(0.269596 0.198645 1.33764e-20)
(1.01332 -0.00406083 9.46993e-22)
(1.04609 -0.0344912 0)
(1.01211 -0.0021469 0)
(1.0082 -0.000724364 -3.9157e-22)
(1.01907 -0.00926769 -1.92936e-21)
(1.01891 -0.00664234 -3.55084e-21)
(0.436745 -0.0139177 0)
(1.02085 -0.00428944 0)
(1.07143 -0.0423674 -1.45722e-20)
(1.02255 -0.00456361 -1.75193e-21)
(1.02707 -0.027051 -1.44249e-21)
(1.00876 -0.0353471 8.03076e-22)
(0.0583508 -0.238447 1.54764e-20)
(1.0059 -0.000225589 4.79225e-22)
(0.592649 -0.228474 0)
(0.967836 -0.0232467 0)
(1.05547 -0.0758289 -1.84974e-20)
(1.03589 -0.0410139 4.73704e-21)
(1.04322 -0.0403636 0)
(0.33456 -0.00457055 1.08653e-20)
(1.05045 -0.0271315 0)
(1.02311 -0.000287185 0)
(0.678742 -0.173209 -2.83222e-20)
(0.862003 0.245998 -9.55038e-21)
(-0.0553586 -0.192023 -3.40288e-20)
(1.04942 -0.0456842 -4.5888e-21)
(0.913236 0.101943 6.5962e-22)
(1.01683 -0.010012 -5.74157e-23)
(1.06743 -0.0374567 0)
(1.06287 -0.0440217 2.56045e-21)
(0.234745 0.208718 0)
(1.0065 -0.000117189 8.601e-22)
(0.198745 0.29737 2.98916e-21)
(1.01036 -0.00158116 4.57545e-22)
(1.01078 -0.00183695 0)
(0.293958 0.260526 -2.35902e-21)
(1.01559 0.000176063 -3.31794e-22)
(1.02397 -0.0534236 0)
(1.03016 -0.0261656 0)
(1.00897 -0.00103307 4.06157e-22)
(1.00216 0.0182353 -4.95806e-22)
(1.009 -0.00107441 0)