/*--------------------------------*- C++ -*----------------------------------*\
| =========                 |                                                 |
| \\      /  F ield         | OpenFOAM: The Open Source CFD Toolbox           |
|  \\    /   O peration     | Version:  v2012                                 |
|   \\  /    A nd           | Website:  www.openfoam.com                      |
|    \\/     M anipulation  |                                                 |
\*---------------------------------------------------------------------------*/
FoamFile
{
    version     2.0;
    format      ascii;
    class       surfaceVectorField;
    location    "150";
    object      ddtCorrDdt0(Uf);
}
// * * * * * * * * * * * * * * * * * * * * * * * * * * * * * * * * * * * * * //

dimensions      [0 1 -2 0 0 0 0];


internalField   nonuniform List<vector> 
20580
(
(0.00420619 -0.00657235 -3.08951e-19)
(0.00458488 -0.00726412 -4.06372e-18)
(0.00483042 -0.00638753 -2.46719e-18)
(-0.000200891 -0.00032752 -1.12712e-18)
(-0.00021992 -0.000322885 2.74711e-18)
(-0.000213954 -0.000354136 3.85819e-18)
(-0.000186249 -0.000343504 -1.70607e-18)
(-0.000187944 -0.000318165 -2.10283e-18)
(-0.00492818 -0.000743706 -3.23478e-18)
(-0.00535514 -0.000692615 3.12005e-17)
(-0.00506544 -0.00037224 4.11625e-18)
(-1.53467e-05 -4.88164e-06 -1.99662e-19)
(-1.75852e-05 -4.42678e-06 -1.98821e-19)
(-2.33268e-05 -2.75245e-06 -5.82936e-20)
(-0.000347926 -0.000251974 -1.3598e-18)
(-0.000354012 -0.000220443 -3.51484e-19)
(-0.000337322 -0.000221454 -6.90127e-18)
(7.6535e-05 5.49697e-05 -2.87925e-19)
(8.32021e-05 6.14691e-05 3.04312e-18)
(-1.30284e-05 3.48764e-06 5.55286e-19)
(-1.08397e-05 2.1485e-06 1.19066e-19)
(-1.56461e-05 6.10166e-07 2.89561e-19)
(-0.0282261 0.0012501 -6.47762e-18)
(-0.0279494 0.00209654 1.19935e-19)
(-0.028944 0.00151289 -5.30698e-18)
(-8.35657e-06 0.00013451 1.99241e-18)
(-1.73713e-05 0.000106038 -5.9072e-19)
(-1.1497e-05 0.000108307 2.56035e-18)
(-0.000539098 0.00133013 -5.64409e-18)
(-0.000531917 0.0012082 6.50099e-18)
(-0.000425379 0.00128211 6.43179e-19)
(-1.99958e-05 -9.52367e-05 1.05185e-18)
(-1.82656e-05 -8.81589e-05 3.21827e-19)
(-1.83873e-05 -9.16963e-05 -2.77526e-19)
(-3.86728e-05 0.000201393 -1.18517e-18)
(-5.03173e-05 0.000187677 3.27844e-18)
(-4.65572e-05 0.000192448 -1.26032e-19)
(-0.0283465 -0.00222484 8.8332e-18)
(-0.0279644 -0.00162026 1.453e-17)
(-0.0273987 -0.0026432 6.12836e-18)
(0.000339536 -0.000775525 4.28715e-18)
(0.000332138 -0.000863657 1.50806e-17)
(0.000258462 -0.000812312 1.61754e-19)
(-0.00653076 0.00577384 2.30154e-18)
(-0.00679186 0.00527319 -6.42347e-19)
(-0.00715591 0.00601991 2.23611e-18)
(-0.0130404 -0.00122743 -9.50831e-18)
(-0.0131412 -0.00113171 7.91678e-18)
(-0.01328 -0.000904521 -2.55963e-17)
(-0.000102527 4.16477e-05 1.51812e-18)
(-0.000106893 2.77313e-05 -2.13069e-18)
(-0.000108903 4.94988e-05 3.25597e-18)
(-0.000627712 -0.00753461 -1.16401e-18)
(-0.00101109 -0.00836042 -8.40344e-19)
(0.00104098 -0.00840246 1.09605e-17)
(0.00356294 -0.00684435 -7.53802e-18)
(0.00377903 -0.00601547 6.87097e-19)
(9.97872e-05 -0.00133651 7.50101e-18)
(1.55818e-05 -0.00128327 2.09843e-18)
(0.000107109 -0.00123068 7.25896e-18)
(-0.000213879 0.000346756 -7.82497e-19)
(-0.000204865 0.000342188 -9.25962e-20)
(-0.000211832 0.00033534 -2.9698e-19)
(-0.0122654 0.00339619 2.29604e-18)
(-0.0138105 0.00372736 -1.95172e-18)
(-0.0148728 0.00448284 -5.10961e-19)
(-3.70293e-06 1.27538e-05 2.35571e-21)
(-5.8667e-06 1.55181e-05 -7.56841e-20)
(-3.80147e-06 1.075e-05 -1.64996e-19)
(0.039435 0.0178143 -4.39082e-18)
(0.0424823 0.0218806 -1.59028e-17)
(0.0391522 0.0211999 -4.21871e-18)
(-0.00120906 0.00108539 -3.92088e-19)
(-0.00142312 0.0011683 1.63975e-18)
(-0.00122969 0.00131776 -1.67771e-18)
(0.0169141 0.0204216 1.34752e-18)
(0.0223629 0.0223835 -1.8085e-18)
(0.0188482 0.0231513 -1.34894e-18)
(-0.00437826 0.000226987 7.19588e-18)
(-0.00422972 -0.000535733 5.40257e-18)
(-0.0056339 -0.000193849 1.52435e-18)
(-0.00261514 0.00928315 -1.712e-18)
(-0.00413705 0.00867219 -9.74375e-19)
(-0.00526316 0.00871612 -3.19039e-19)
(-4.53066e-05 6.89091e-05 3.96617e-19)
(-4.32206e-05 6.26026e-05 7.73017e-19)
(-4.3438e-05 6.15197e-05 -2.90765e-19)
(0.00170252 -0.00573762 3.07251e-17)
(0.000570664 -0.00582272 1.58144e-17)
(0.00159465 -0.00653676 -1.43157e-18)
(8.55957e-05 2.95962e-05 -3.4818e-18)
(7.42236e-05 3.71469e-05 6.29379e-19)
(0.00650101 -0.0050326 -6.96065e-19)
(0.00692188 -0.00434991 3.28468e-18)
(0.00609038 -0.00444654 6.56144e-18)
(-0.00626617 -0.0187319 -4.42767e-18)
(-0.00494441 -0.0187568 5.53246e-18)
(-0.00544216 -0.0202032 3.44e-18)
(-0.000681253 0.00053267 -2.68471e-18)
(-0.000741295 0.000504833 1.66108e-18)
(-0.000703161 0.000587189 8.02326e-19)
(-0.00124296 0.00818512 -5.76237e-19)
(0.00111733 0.00852101 -3.84922e-19)
(-0.000423466 0.00805603 -6.64144e-19)
(-1.13191e-06 8.77999e-06 -3.37403e-19)
(-3.84291e-06 1.54127e-05 -6.24053e-19)
(-0.0129776 -0.0144371 -8.49652e-18)
(-0.0154863 -0.0136734 -5.0295e-18)
(-0.015786 -0.0148216 -2.48148e-18)
(0.00559499 0.010074 2.52252e-18)
(0.0058899 0.00909103 -1.01312e-17)
(0.00632526 0.00992666 9.4148e-18)
(-8.36433e-05 -9.62883e-05 3.89685e-19)
(-8.62581e-05 -9.54376e-05 -4.77941e-19)
(-8.32676e-05 -9.11776e-05 -2.30271e-19)
(0.0107127 -0.00614156 -9.08025e-19)
(0.00979319 -0.00637104 -2.17201e-17)
(0.0105344 -0.00692136 -4.79951e-18)
(-0.00110844 0.0100508 4.58548e-19)
(7.34216e-05 0.00979437 4.73847e-19)
(-0.00205063 -0.000819164 -2.67902e-17)
(-0.0025707 -0.00076409 5.22782e-18)
(-0.000460524 -0.000972286 8.97972e-19)
(-0.000702277 -0.000764799 8.68914e-18)
(-0.000375956 -0.00108302 4.33307e-18)
(-0.00230449 0.0124437 -4.59968e-19)
(-0.00386701 0.012295 -2.09073e-18)
(-0.00527341 0.0111829 -2.40442e-19)
(-6.89303e-05 -9.6402e-05 -2.20263e-19)
(-6.68744e-05 -9.81895e-05 9.3773e-20)
(-6.85354e-05 -9.96642e-05 4.11138e-20)
(1.03985e-05 -1.03482e-06 1.41731e-19)
(1.00985e-05 -7.36138e-08 -2.47878e-21)
(-0.000829666 0.00834804 -2.07922e-18)
(-0.00145126 0.00889098 -3.09908e-18)
(-0.00131969 0.00795158 -3.94792e-19)
(-0.000215379 0.000240327 -1.2402e-18)
(-0.000204525 0.000230118 -1.59903e-18)
(-0.000218255 0.000230295 2.21537e-18)
(-3.53411e-05 0.000211507 -5.63636e-18)
(-2.5107e-05 0.00019974 -4.48013e-18)
(0.0145945 5.62567e-05 1.59882e-17)
(0.0146906 -3.5486e-05 2.04698e-18)
(0.0148068 -7.43928e-05 7.36845e-17)
(-3.18012e-05 0.000158338 -4.24159e-19)
(-2.79954e-05 0.000187175 7.8191e-19)
(-2.83304e-05 0.000143675 -7.38171e-18)
(-0.00608179 0.00637443 -2.50643e-18)
(-0.00591834 0.00545853 8.26309e-18)
(0.000205966 -8.13141e-05 8.27133e-18)
(0.000196811 -8.70638e-05 -4.11661e-18)
(0.000204892 -8.3418e-05 2.02957e-18)
(-0.0319556 0.000608492 7.75976e-19)
(-0.0318525 0.000845738 3.30168e-18)
(-0.0323431 0.000417401 1.44912e-18)
(-8.67538e-05 -9.43329e-05 9.50159e-19)
(-8.42757e-05 -9.88462e-05 1.84719e-18)
(0.00700503 -0.00572585 -2.12196e-18)
(0.0059392 -0.00556154 1.37438e-18)
(0.0112722 -0.00543381 6.18585e-18)
(0.0115239 -0.00567825 2.00153e-17)
(-0.00357608 0.0226505 -6.41132e-18)
(-0.00501965 0.0241861 2.43159e-18)
(-0.00220612 0.0255615 -8.37813e-18)
(-0.0010586 -0.00256963 3.72861e-18)
(-0.00208544 -0.00317368 -1.6012e-18)
(-6.24902e-05 -0.00378794 -1.25045e-17)
(-2.19322e-05 -9.94313e-05 1.10771e-18)
(-2.18678e-05 -9.62849e-05 -5.17953e-19)
(0.0119525 0.0189082 -2.69702e-19)
(0.0146461 0.0179957 4.90939e-18)
(2.18041e-06 -0.000171249 -4.15492e-19)
(-3.86777e-05 -0.000149777 8.28944e-19)
(4.49861e-06 -0.000112591 -2.91589e-19)
(-0.000218637 0.000250465 4.92424e-19)
(-0.000225968 0.000238559 -8.51843e-19)
(-0.000959079 0.00022369 -2.13788e-18)
(-0.000921462 0.000110689 -2.80462e-18)
(-0.000850184 0.00020497 -1.89801e-18)
(-0.000975405 0.000329727 -1.50786e-19)
(-0.00108374 0.000247993 -2.44993e-19)
(-0.000248981 -0.00210742 7.12562e-18)
(-0.00150599 -0.00173586 4.73581e-18)
(-0.000192687 0.000680926 2.35361e-17)
(-0.000216469 0.000687562 4.48367e-19)
(-0.000102063 2.31456e-05 -1.96757e-19)
(-0.00010243 9.39061e-06 2.08898e-19)
(-9.81551e-05 1.32963e-05 -1.1987e-19)
(-0.0042789 0.00236335 6.11201e-18)
(-0.00385346 0.00193511 -7.47887e-19)
(-0.00360813 0.00219956 -1.11005e-17)
(-0.00623929 -0.00699682 -9.70042e-19)
(-0.00749413 -0.00517336 -1.1141e-17)
(-0.00783334 -0.00678186 3.04456e-17)
(0.000112665 -0.00175086 2.62237e-18)
(3.50843e-06 -0.00177751 -4.66304e-18)
(8.17744e-05 -0.00189006 -3.4728e-18)
(-6.64205e-05 0.0001311 -2.70268e-18)
(-6.14009e-05 0.000141589 2.42637e-18)
(-6.6321e-05 0.000119466 -4.18495e-18)
(-0.00344543 -0.00344073 -3.53556e-19)
(-0.00405034 -0.00202651 1.7424e-17)
(0.000230019 -0.000170802 -1.57419e-18)
(0.000225315 -0.00019075 -9.12457e-19)
(0.000237933 -0.000195978 1.08471e-18)
(-0.000166494 0.000237388 -6.26727e-19)
(-0.000158668 0.000217049 4.64335e-19)
(-0.000165961 0.000219318 2.06352e-19)
(-0.0125772 -0.00177263 -6.38516e-18)
(-0.0130491 -0.00166508 1.90111e-17)
(-4.60782e-05 -1.24839e-05 1.31565e-19)
(-4.72568e-05 2.8212e-07 -1.29799e-18)
(-4.8731e-05 -1.53618e-05 1.51256e-19)
(0.0364101 0.0146985 1.69198e-18)
(0.0136652 0.0186242 2.02273e-17)
(-5.89507e-05 0.000138586 -4.13411e-19)
(-5.61113e-05 0.000150543 -5.43992e-19)
(-5.70068e-05 0.000156393 2.95424e-19)
(-0.000111254 4.32671e-05 3.24264e-20)
(-0.000105544 4.4494e-05 2.49418e-19)
(0.00687935 0.0121145 1.345e-18)
(0.00545277 0.0140584 1.04307e-17)
(0.0084432 0.0138241 -1.04648e-17)
(-0.000682368 0.000496639 -1.01906e-17)
(-0.00063282 0.00051964 8.14615e-19)
(-0.0255042 -0.00236209 2.78356e-18)
(-0.026028 -0.00248859 -1.33151e-18)
(-0.0247806 -0.00300335 6.87178e-18)
(-0.00450865 -0.00347086 3.28552e-18)
(-0.00245552 -0.00441719 9.78162e-18)
(-0.0011647 -0.00623689 2.09348e-17)
(-0.00202358 -0.00686397 4.79408e-18)
(-0.000219263 -0.00749618 2.63798e-17)
(-0.000217218 0.000352351 2.7102e-18)
(-0.000221458 0.000344267 -1.80702e-19)
(-0.00916862 0.00223621 -3.328e-18)
(-0.00919692 0.00135918 -7.94437e-19)
(-0.0102581 0.00250941 4.47773e-19)
(-2.0836e-05 0.00021029 2.01348e-19)
(-2.37755e-05 0.000207793 -6.63625e-19)
(-1.92772e-05 0.000184297 -3.46447e-18)
(0.00220342 -0.005153 8.4832e-18)
(0.00151877 -0.00460782 1.27108e-17)
(-2.36675e-05 0.00014321 5.09615e-19)
(-1.73197e-05 0.000159348 5.76904e-18)
(8.72678e-05 7.70412e-06 -2.14781e-19)
(9.28046e-05 1.78319e-05 3.63901e-18)
(0.00937965 0.000454598 2.34791e-17)
(0.00997855 0.000390867 -6.47972e-18)
(-0.000681521 -0.00554833 1.437e-17)
(-0.0019699 -0.00517725 3.56266e-17)
(0.0119484 0.00133567 7.88721e-20)
(0.0120719 0.00164763 -2.23821e-17)
(0.0123881 0.00126009 -5.33583e-19)
(-0.000369696 -0.000927157 -1.08721e-17)
(-0.000249584 -0.000857675 -7.5625e-18)
(-0.000364239 -0.000812686 -4.56276e-18)
(-6.97381e-05 -6.77585e-05 -1.74933e-19)
(-7.45482e-05 -5.78051e-05 2.74768e-19)
(-7.8347e-05 -7.41786e-05 -1.67267e-19)
(-0.0040228 0.00844542 -2.73672e-18)
(-0.0046599 0.00794816 -1.91571e-18)
(-0.00399176 0.00765128 -4.93877e-18)
(0.0147183 -0.000261454 -2.75398e-18)
(0.0146303 -0.000266359 -1.33895e-17)
(0.0145656 -0.00017936 1.64887e-17)
(0.000675354 -0.000401186 9.43023e-18)
(0.000699569 -0.000684584 -3.84059e-18)
(0.000470618 -0.000466174 -4.35018e-18)
(-0.00336971 0.0090044 -1.65378e-18)
(-0.00432457 0.00940746 -1.16774e-18)
(-0.000174775 0.000529875 -5.99313e-18)
(-0.000180053 0.000522215 -3.87221e-18)
(-0.00017493 0.000520684 1.72639e-18)
(-0.000247137 0.00048677 4.60393e-18)
(-0.00023137 0.000514593 3.03771e-18)
(-0.000267153 0.000516104 -5.52663e-18)
(-5.20046e-05 0.000100496 -1.07908e-18)
(-6.20688e-05 9.42198e-05 -1.79868e-18)
(-6.06393e-05 7.97833e-05 -1.63924e-18)
(-6.1269e-05 -6.5885e-05 2.4907e-19)
(-6.5729e-05 -5.80691e-05 -7.40984e-19)
(-6.04617e-05 -5.46852e-05 -3.467e-19)
(-0.000643589 -0.00154453 -2.90273e-19)
(-0.000754461 -0.00153961 -8.31086e-18)
(-0.000706153 -0.00165396 8.46327e-20)
(-6.37854e-05 -7.68966e-05 -1.08302e-19)
(-5.79512e-05 -8.04329e-05 -8.6513e-20)
(-0.00504779 -0.00708017 5.02154e-18)
(-0.00483193 -0.00843324 5.22325e-17)
(8.11128e-05 -3.6343e-06 5.30909e-18)
(8.74475e-05 -1.91175e-05 1.09179e-18)
(-0.000104204 5.11146e-05 -6.16572e-19)
(-0.000104987 3.92678e-05 -3.47827e-19)
(-0.000163147 0.000374966 -4.33074e-19)
(-0.000163768 0.000376721 -1.37919e-18)
(-0.000165015 0.00037284 4.83228e-19)
(-6.36572e-05 -9.32013e-05 2.68747e-19)
(-7.02476e-05 -9.80471e-05 -1.96533e-19)
(-0.00850554 -0.000764683 -5.34432e-18)
(-0.00847306 -0.00153866 -2.65966e-18)
(-0.00928537 -0.000906763 9.12426e-18)
(-0.00232879 6.25946e-05 9.71966e-18)
(-0.00219753 -5.8103e-05 1.11141e-17)
(-0.00214681 0.000121649 -1.14542e-18)
(0.00825148 0.000238619 2.02798e-18)
(0.00816769 0.000996928 -3.05705e-18)
(0.00900303 0.000571931 -1.13969e-18)
(0.000207139 -7.56444e-05 -5.24423e-19)
(0.000207761 -9.63554e-05 6.19168e-19)
(-2.19941e-05 -2.01691e-05 2.05981e-19)
(-2.50732e-05 -2.76374e-05 5.13819e-19)
(-2.50058e-05 -1.63687e-05 2.3571e-19)
(-1.48655e-05 2.90003e-06 -3.57209e-19)
(-1.56419e-05 5.09017e-06 7.30091e-19)
(-0.00466006 -0.000671056 -6.64108e-18)
(-0.00480908 -0.000918606 -1.20597e-17)
(-0.00514603 0.00258113 2.06963e-17)
(-0.00470628 0.00313379 1.21961e-17)
(0.000305094 -0.000486778 6.914e-18)
(0.000197178 -0.000558111 4.25779e-18)
(0.000320495 -0.000597744 -1.24238e-18)
(-8.10792e-05 7.06245e-05 -5.13001e-19)
(-7.84558e-05 7.99504e-05 -1.2527e-18)
(-7.84555e-05 6.8563e-05 6.64155e-19)
(-8.91128e-05 -5.02008e-05 1.23463e-19)
(-9.70431e-05 -3.85653e-05 1.966e-20)
(-9.70448e-05 -3.81247e-05 -5.60849e-20)
(-0.00480368 -0.00837622 -4.38887e-19)
(-0.0035972 -0.00938376 3.38665e-18)
(-0.00319327 -0.00832316 -5.56316e-18)
(-0.00283103 -0.0051809 -1.28872e-18)
(-0.00251172 -0.00495453 -6.99524e-18)
(-0.00321827 -0.00474749 -1.21311e-17)
(-0.000287414 0.000821017 1.68198e-17)
(-0.000298301 0.000814225 -1.51215e-18)
(-0.000330456 0.000817777 9.36478e-18)
(-6.86004e-05 -6.93522e-05 2.02178e-19)
(-7.55853e-05 -6.25844e-05 -3.90599e-19)
(8.4538e-05 0.000610875 1.84449e-18)
(2.05228e-05 0.0006423 -3.47209e-19)
(3.7921e-05 0.000582769 -1.27303e-17)
(0.00133316 -0.014668 -4.52218e-18)
(0.00172942 -0.0133106 -6.82207e-18)
(0.00258605 -0.014073 -3.85024e-19)
(0.000598595 -0.00122205 -3.61088e-18)
(0.000667159 -0.00130321 -1.98916e-17)
(0.00052431 -0.00130652 -7.29453e-18)
(-0.000197814 0.000332876 3.16742e-18)
(-0.00019939 0.000345274 5.08409e-19)
(-0.000529335 0.000127918 1.69934e-18)
(-0.000552273 8.93268e-05 9.26978e-18)
(-0.000517812 0.000102145 1.10356e-17)
(-0.00624995 -0.0147777 -2.68994e-17)
(-0.00637286 -0.0147644 2.04137e-18)
(-0.00748475 -0.0190757 -9.23172e-19)
(-0.0075751 -0.0175417 6.04508e-18)
(-0.000513821 0.00149443 -1.09001e-17)
(-0.000686885 0.00138613 1.30723e-17)
(0.011242 0.00341315 1.18771e-17)
(0.0114823 0.00290756 9.54028e-18)
(0.011132 0.00326118 -7.90098e-19)
(-0.000188213 0.000669691 6.92296e-18)
(-0.00274639 -0.00724454 2.64496e-17)
(-0.00307202 -0.00606155 1.22137e-17)
(-8.73424e-05 0.000438393 -8.57823e-18)
(-8.90887e-05 0.000433389 -6.29529e-18)
(-0.000110278 0.000414235 1.05033e-17)
(0.000717872 -0.00101658 -2.2178e-18)
(0.00069328 -0.000930124 -7.56315e-19)
(0.000783298 -0.0009166 2.51011e-18)
(0.00812794 0.0103012 7.18008e-18)
(0.00570797 0.010806 3.06319e-17)
(-7.706e-05 -5.24344e-05 7.49219e-19)
(-7.29124e-05 -5.27e-05 2.63848e-18)
(-7.56116e-05 -5.69169e-05 2.78621e-18)
(-1.77196e-05 0.000213317 5.21655e-19)
(-2.12815e-05 0.000234084 3.14401e-18)
(-0.000491677 0.000609192 -2.26779e-17)
(-0.000524445 0.000637711 -1.65427e-17)
(-0.000534247 0.000577251 1.16045e-17)
(0.0165578 -0.00989072 7.56799e-18)
(0.0201139 -0.0070521 -6.36545e-19)
(0.0174798 -0.00935626 2.29829e-18)
(-0.000136012 0.000142772 -1.79216e-18)
(-0.0001376 0.000151543 1.6671e-19)
(-0.000135822 0.000136112 -1.09123e-18)
(-4.39002e-05 -2.50545e-05 1.35966e-18)
(-4.47431e-05 -9.50785e-06 2.01364e-18)
(-0.000337101 -0.00480206 -3.24969e-18)
(-0.0203638 0.00642847 7.42773e-19)
(-0.0210842 0.00658355 3.37652e-18)
(-0.0216236 0.00539789 6.96606e-19)
(0.000132558 0.000586105 3.91984e-18)
(0.000119992 0.000646569 5.72537e-18)
(-0.00279249 0.0087311 7.29412e-18)
(-0.00278335 0.00967679 -7.44095e-18)
(-0.00851052 0.000160695 3.06094e-18)
(-0.00778815 -0.000503121 1.05513e-17)
(-0.00244064 0.000203799 6.20847e-18)
(-0.00250268 -1.61213e-05 -2.61121e-18)
(-0.00156531 -0.00625148 -2.44953e-18)
(-0.0017462 -0.00670151 1.63965e-18)
(-0.00192356 -0.00632048 -1.41095e-17)
(-6.20655e-05 7.38555e-05 9.60307e-19)
(-4.07131e-05 8.18086e-05 4.44532e-18)
(-3.69834e-05 3.89069e-05 -1.3705e-19)
(-1.95661e-05 0.000302226 7.21048e-19)
(-3.36066e-06 0.000299512 -3.59561e-18)
(-1.3624e-05 0.000294527 3.44913e-18)
(-2.36659e-05 -8.34288e-05 6.69671e-19)
(-2.39717e-05 -8.6131e-05 -9.19549e-19)
(-2.6815e-05 -7.6406e-05 3.1933e-19)
(0.00433691 0.00960273 2.52651e-18)
(0.00530352 0.0086474 9.11474e-18)
(0.000555476 -0.000971795 6.12816e-18)
(0.00061317 -0.000935744 5.64003e-18)
(0.000538669 -0.000897931 8.03703e-19)
(2.17864e-05 -0.00020611 -4.86104e-18)
(2.44246e-05 -0.000199951 -6.09249e-18)
(2.17243e-05 -0.000217461 -4.69999e-18)
(-7.45076e-06 2.70592e-05 2.5525e-20)
(-7.83016e-06 2.38986e-05 5.53664e-19)
(-1.09161e-05 2.84409e-05 -4.48801e-19)
(-0.00260327 0.00828165 1.21966e-18)
(-0.00344633 0.00848766 3.67574e-19)
(-0.000686509 0.00890085 -2.19953e-18)
(-0.000548843 -0.00158378 4.06668e-18)
(-0.000566666 -0.0014701 1.47942e-18)
(-0.000253009 0.00774771 6.33233e-18)
(-5.02419e-05 0.00869686 1.31924e-18)
(-0.0289067 -0.00253682 -2.95385e-18)
(-0.0291613 -0.00146599 -8.02759e-18)
(-0.0234416 0.00649219 -8.71578e-20)
(-0.0244948 0.00626414 -4.39674e-18)
(-0.0229973 0.00709486 -4.88308e-18)
(-0.0244809 0.00548599 -7.60744e-19)
(-0.0226252 0.00689008 2.74968e-18)
(0.0144686 0.000143631 -2.71785e-17)
(0.0142705 0.000225083 -3.52044e-19)
(-0.00016928 0.00037571 4.6568e-19)
(-0.000164898 0.000365466 -2.2728e-19)
(-0.0112964 0.000298303 7.79746e-19)
(-0.0104212 -0.000661269 3.59484e-18)
(-0.010968 0.000730662 2.51303e-18)
(-2.38438e-05 -9.89385e-05 4.27185e-19)
(-2.53203e-05 -9.46075e-05 -8.82305e-19)
(-2.51742e-05 -9.32873e-05 -1.72849e-19)
(-2.21201e-05 -9.87556e-06 2.57274e-20)
(-2.31291e-05 -2.20645e-05 -2.19868e-19)
(-0.00135172 -0.00190716 2.9275e-18)
(-0.00147164 -0.00179471 -1.90989e-18)
(-0.00132303 -0.00173622 3.01165e-18)
(-2.51928e-05 3.10405e-07 1.8777e-19)
(-2.47302e-05 9.26056e-08 2.75112e-19)
(-2.63279e-05 1.26428e-06 -7.64223e-20)
(0.0120486 0.00102727 -5.37719e-18)
(0.0117545 0.00150199 -1.90294e-18)
(0.031505 -0.00519389 3.38965e-18)
(0.0262711 -0.00387966 6.36805e-18)
(0.0311788 -0.00203788 3.41366e-18)
(0.00261564 0.0106286 2.07843e-18)
(0.00365878 0.0106054 -1.386e-18)
(0.00293423 0.0116991 4.97744e-18)
(-2.05026e-05 -8.77304e-07 -1.38104e-19)
(-2.27869e-05 7.7796e-07 2.91376e-19)
(0.000213656 -0.000129205 -3.60865e-18)
(0.000220316 -0.000147907 7.6852e-19)
(0.000212427 -0.00014248 7.63153e-19)
(0.00154668 0.010619 -3.37171e-18)
(0.00212407 0.00966839 -4.10768e-18)
(-0.00316737 -0.00564043 5.87627e-18)
(-0.00270263 -0.00550745 2.55164e-17)
(-0.000412082 -0.00105289 9.63042e-19)
(-0.000177133 0.000376629 2.29702e-19)
(-0.000181969 0.000371213 -2.72042e-18)
(-0.000184479 0.000377672 -2.20783e-18)
(0.000655016 -0.00111554 4.92238e-18)
(0.000557084 -0.00114276 6.34288e-18)
(-0.0114623 -0.000833029 1.14763e-17)
(-0.0108625 -0.000895121 8.89469e-18)
(-0.0190921 0.00734049 6.813e-18)
(-0.0200473 0.00629559 -1.66396e-18)
(0.00719154 -0.00371875 4.01433e-18)
(0.00780746 -0.00433734 -8.37299e-18)
(-5.33147e-05 0.00027028 -4.70559e-18)
(-6.7011e-05 0.000242485 -1.68393e-17)
(-3.37159e-05 0.00029862 -9.62173e-18)
(-4.76806e-05 6.14449e-05 -1.01794e-18)
(-7.07184e-05 7.47866e-05 -7.72967e-20)
(-5.52179e-05 0.000109455 -2.90998e-18)
(-4.3235e-05 -1.25245e-05 7.24657e-19)
(-4.6043e-05 -1.42592e-05 -4.09451e-19)
(-4.73652e-05 2.80872e-06 -6.10086e-19)
(0.0134006 -0.0104315 1.47499e-19)
(0.0107652 -0.013159 2.98583e-17)
(0.000513315 -0.0010613 1.64522e-18)
(0.000455465 -0.00098561 1.69688e-17)
(-0.0273975 -0.00169791 5.47012e-18)
(-0.0277558 -0.00117122 5.54006e-19)
(-0.000334185 -0.000286739 -4.39614e-19)
(-0.000356019 -0.000287359 2.00977e-18)
(-0.000135216 0.000125924 -5.08901e-20)
(-0.000138733 0.00014957 -1.34034e-19)
(-0.00519365 0.00750044 3.5783e-18)
(-0.00572685 0.00688046 -1.10732e-18)
(-0.00505495 0.00659312 2.56187e-18)
(0.00737537 -0.0031665 -3.75793e-18)
(0.00665409 -0.00332281 -7.31224e-18)
(-6.88387e-05 -0.000230782 -2.47561e-19)
(-7.08904e-05 -0.000235699 3.0863e-18)
(-7.57405e-05 -0.00022639 -1.94858e-19)
(-0.000145279 7.61265e-05 -2.18934e-18)
(-0.000145195 8.90711e-05 4.56691e-18)
(-0.000143763 7.45254e-05 1.29286e-18)
(-0.000222097 0.000692305 -2.90473e-17)
(-0.000251212 0.00068834 2.56158e-17)
(-0.000249067 0.000703378 2.18944e-18)
(0.00906814 0.00878572 -1.55576e-17)
(0.0096355 0.00675309 -6.19549e-18)
(0.00755841 0.00770656 -6.35411e-18)
(0.011782 -7.07991e-05 6.44472e-18)
(0.011018 6.49806e-05 9.70833e-18)
(0.0107717 -1.65561e-05 1.03906e-18)
(0.0119597 -0.00348699 -7.64207e-18)
(0.0121637 -0.00300306 3.49639e-18)
(0.0107681 -0.00323419 -1.87e-18)
(0.000321429 -0.000759223 9.786e-18)
(0.000343623 -0.000745379 7.80251e-19)
(-0.00212558 0.00121657 1.04464e-17)
(-0.0023448 -0.00306884 2.33923e-17)
(0.00149786 -6.91618e-05 1.22055e-17)
(0.0126022 -0.000128617 -2.50291e-18)
(0.0123663 -0.00020115 -5.94954e-18)
(-4.5033e-05 -1.74362e-05 -2.53695e-18)
(-3.30092e-05 -1.55794e-05 -2.02255e-18)
(-4.18216e-05 -4.45494e-06 1.09083e-17)
(0.00085807 -0.000296877 8.79271e-19)
(0.000861623 -0.000460971 1.2897e-17)
(0.000734175 -0.000330453 7.62648e-18)
(-0.0286115 -0.000383626 -2.51597e-19)
(-0.0278263 -0.000934523 -1.80477e-18)
(-0.0287228 -0.00119199 1.70459e-18)
(-0.000340713 -8.3722e-05 -3.48738e-18)
(-0.00035507 -7.68167e-05 1.6396e-18)
(-0.000339069 -5.68107e-05 -3.17102e-18)
(-0.00721965 0.00465035 -9.40152e-19)
(-0.00754181 0.00424073 4.2785e-18)
(-0.00782903 0.00494245 -2.37184e-18)
(-9.27344e-05 -5.79958e-05 1.88223e-19)
(-8.9605e-05 -4.89287e-05 1.54252e-19)
(0.0108299 0.00988209 -3.96844e-18)
(-1.16379e-05 0.000118974 -8.81077e-19)
(-1.55614e-05 0.000122874 4.77987e-19)
(-1.50694e-05 0.000127981 -2.37975e-19)
(-0.00078058 0.000442749 2.21936e-18)
(-0.000881351 0.000429336 -6.78813e-18)
(-0.000808481 0.000545672 1.74775e-18)
(-0.000173904 0.000268968 -6.54781e-19)
(-0.000177208 0.000279163 7.27964e-20)
(-0.000176508 0.000279774 -9.21693e-19)
(-3.3174e-05 0.0002244 -4.23238e-19)
(-3.84905e-05 0.000223746 -5.48864e-18)
(0.00209325 -0.0118685 -2.69998e-18)
(0.00259821 -0.0129579 5.58454e-18)
(0.00137965 -0.0126496 -2.01494e-18)
(-0.000125834 -0.000101211 -9.90564e-19)
(-0.000122061 -9.89316e-05 -1.95573e-19)
(-0.000121793 -0.000122406 -1.043e-18)
(-0.000157886 0.00138433 9.35612e-18)
(-0.000139134 0.00148195 8.39612e-19)
(-2.16318e-05 -3.20683e-06 -3.74005e-19)
(-2.19929e-05 9.23131e-06 -1.21234e-18)
(0.00294751 -0.00697535 -4.07358e-18)
(0.00232393 -0.00701855 1.67547e-17)
(0.00263277 -0.00641101 7.41602e-18)
(-0.0246621 -0.00157173 -8.88838e-18)
(-0.0266459 -0.00130161 -2.44643e-17)
(0.0119216 0.00210649 -3.54549e-18)
(0.0117122 0.00250377 2.17176e-17)
(0.0116906 0.00244864 1.25384e-17)
(-9.18017e-05 0.000273198 3.73934e-19)
(-9.64665e-05 0.000234838 -1.27854e-17)
(-0.000122629 0.000269497 -2.72289e-18)
(0.00081402 -0.000319406 -1.87274e-17)
(0.000818393 -0.000263129 -4.42671e-18)
(-5.90909e-06 9.16229e-05 -5.82874e-20)
(-3.11284e-06 7.29424e-05 2.35913e-19)
(-3.53861e-06 7.53233e-05 -4.45277e-19)
(-0.000471188 0.000599344 -7.2855e-18)
(-0.000464076 0.00063119 -1.26e-17)
(-1.98187e-05 0.000104523 8.51763e-19)
(-1.88913e-05 7.90555e-05 -1.12762e-18)
(-2.25097e-05 0.000104598 -2.8817e-19)
(-0.000744493 0.000425314 -7.22749e-19)
(-0.0051895 -0.00253271 -1.9394e-17)
(-0.00534661 -0.00197319 1.67453e-17)
(-0.00491671 -0.00304682 -2.43168e-18)
(-0.000103917 0.000303544 5.40611e-18)
(-9.40398e-05 0.000241697 3.7504e-18)
(-0.000323576 -9.79466e-05 -1.64707e-18)
(-0.000342106 -0.000123315 -5.79798e-19)
(2.09589e-08 -0.000122744 1.20739e-18)
(-4.25157e-06 -0.000143463 2.24267e-18)
(0.0127521 -0.00359908 1.30802e-19)
(0.011796 -0.0039991 3.15669e-18)
(-4.90172e-05 7.39759e-05 2.76895e-19)
(-4.82e-05 7.07468e-05 -9.24555e-19)
(-0.00890602 -0.00073808 5.65635e-18)
(-0.00632336 0.00346026 -6.92956e-18)
(0.0122807 -0.00261563 1.56318e-17)
(0.012388 -0.00224894 -3.69772e-18)
(0.0110458 -0.00229545 4.90432e-18)
(0.000668231 -0.000190588 6.58818e-18)
(0.000879632 -0.000255717 5.33605e-18)
(-7.546e-06 3.03612e-05 -1.58717e-19)
(-4.29873e-06 2.36168e-05 -9.39638e-19)
(0.00173456 0.00232399 -1.49487e-18)
(0.00205286 0.00300278 -4.49757e-17)
(0.00342609 0.00241845 7.22901e-18)
(-0.00587851 -0.00353148 -6.93613e-19)
(-0.0068178 -0.00366348 -6.27257e-19)
(-0.00483783 -0.00469963 -2.57373e-18)
(0.00105135 0.0135762 2.00096e-18)
(-0.000636683 0.0123384 3.93896e-19)
(-0.00660523 0.00437866 -6.78792e-18)
(-0.000295932 -0.000879361 -1.9347e-18)
(-0.000342838 -0.000844619 -3.65235e-18)
(-0.000281339 -0.000832876 2.25721e-19)
(-0.000611179 0.000689664 1.8681e-18)
(-0.000558795 0.000680426 2.7526e-18)
(-0.000577519 0.000737571 -1.31123e-18)
(0.00266444 -0.011123 -7.13547e-18)
(0.00163606 -0.0109473 4.76229e-18)
(0.000208954 -0.000115677 -8.0774e-18)
(0.000207709 -0.00010907 6.7719e-19)
(-0.000123015 -0.000884302 -2.63906e-18)
(-0.00020457 -0.000716295 6.1571e-18)
(-0.000159871 0.000398916 7.07432e-19)
(-0.000166203 0.000394007 1.56206e-20)
(-0.000169798 0.00040245 -1.9327e-18)
(-0.0226747 0.00244589 -1.13266e-18)
(-0.0236554 0.00164888 -2.52767e-18)
(-0.0223792 0.00152764 8.7334e-19)
(-0.00173802 -0.00533552 -2.44613e-18)
(-0.00155102 -0.00550903 1.58212e-17)
(-0.00156072 -0.00520178 -1.16732e-17)
(-2.16945e-05 -6.7608e-06 4.52762e-20)
(-2.21463e-05 -1.0501e-05 -2.45053e-19)
(-2.73261e-05 -8.49249e-06 -5.23294e-20)
(-0.000154264 -0.000521383 5.82768e-18)
(-0.000150251 -0.000503208 -1.5402e-19)
(-0.000172653 -0.000498289 5.96145e-18)
(-0.00543374 0.00833211 1.9583e-18)
(-0.00227058 0.00799498 -1.32673e-19)
(-0.0039815 0.00783321 2.71913e-18)
(0.00385012 0.00231039 -1.84963e-18)
(0.00303996 0.00307989 2.09703e-18)
(0.00464164 0.00249517 1.72659e-19)
(-4.24669e-05 -2.64152e-05 1.20442e-18)
(-4.52202e-05 -6.86431e-06 9.39025e-19)
(-0.000315248 0.000872162 -1.62458e-18)
(-2.30007e-05 0.000205595 1.95149e-20)
(-2.29219e-05 0.000203951 -1.12931e-18)
(-2.12705e-05 0.000181595 -1.68603e-18)
(0.01208 -0.00654553 1.47931e-18)
(0.0111411 -0.00764805 -5.61563e-19)
(0.0109132 -0.00620408 1.70564e-18)
(-0.00200614 -0.00497709 1.3553e-18)
(-0.00167292 -0.00519639 -1.06924e-17)
(-0.0020715 -0.00531858 1.46421e-18)
(-0.000165359 -0.000528939 7.22557e-19)
(-0.000145032 -0.000536462 3.69948e-18)
(-0.000424785 -0.00158676 5.84795e-19)
(-0.000475825 -0.00171147 -7.01606e-18)
(-0.00190402 -0.00531292 1.55878e-17)
(-0.00187824 -0.00550267 1.86071e-17)
(-6.39957e-05 0.000134355 -4.59589e-19)
(-6.50721e-05 0.000119071 6.33225e-19)
(-6.68783e-05 0.000140891 1.22e-18)
(-0.000202202 0.000541001 -6.01617e-18)
(-0.000182332 0.00058055 6.45059e-18)
(0.00107666 0.00619801 -4.71725e-18)
(0.000610063 0.00672673 5.48019e-19)
(0.000501672 0.00599838 -2.0277e-18)
(-0.00574473 -0.0104403 -3.406e-21)
(-0.00481176 -0.00765426 -6.95783e-18)
(-0.00615418 -0.0100481 -4.15314e-18)
(-1.26201e-05 -0.000117021 4.54258e-19)
(-1.4475e-05 -0.00012493 -1.00977e-18)
(-1.41964e-05 -0.000129688 1.6317e-18)
(-3.26295e-05 0.00024913 1.36411e-18)
(-4.08352e-05 0.000225562 4.75974e-19)
(-0.000125173 0.000259378 6.63309e-19)
(-0.0252455 -0.00487281 9.89177e-19)
(-0.0251189 -0.00385891 -7.37129e-18)
(-0.0241685 -0.00477689 2.47706e-18)
(-0.00460803 -0.000122926 4.32009e-18)
(-0.00491078 -0.000207803 1.74121e-18)
(-0.00449215 9.01767e-05 -2.9114e-17)
(0.000287555 -0.00147537 5.9456e-18)
(0.000234597 -0.00141541 5.09192e-18)
(0.000208307 -0.00150986 6.71538e-18)
(-8.44114e-05 6.12609e-05 5.32881e-19)
(-8.51699e-05 7.59429e-05 9.06215e-19)
(-0.0034061 -0.00595738 4.15633e-18)
(-0.00401292 -0.00565998 -2.08407e-18)
(-0.00135348 -0.00589833 5.50453e-18)
(-0.00137188 -0.00542248 -4.48321e-18)
(-0.00169947 -0.00565103 6.2937e-18)
(0.00693863 -0.00138434 -9.46077e-19)
(0.00690009 -0.000582831 3.67743e-18)
(0.00632509 -0.00103292 -3.39614e-18)
(-0.00034181 -0.0016189 -6.31412e-18)
(-0.000363646 -0.0015229 1.89674e-18)
(-0.0249929 -0.00590771 2.71541e-18)
(-0.0259067 -0.00452745 -1.14654e-17)
(0.0135718 -0.000865562 -5.51121e-18)
(0.0132945 -0.000953435 -4.20002e-18)
(0.0132368 -0.000605514 -3.24661e-17)
(-0.000240916 -0.000492132 -5.03791e-19)
(-0.000278486 -0.000482428 6.54424e-18)
(-0.000262674 -0.000524245 1.30788e-17)
(0.000174204 -0.000693253 1.36706e-18)
(0.000179105 -0.000760437 -9.64872e-18)
(0.000246621 -0.000697705 -2.84255e-18)
(-0.00649408 -0.0045338 -5.11417e-18)
(-0.00810937 -0.00587524 -6.74879e-19)
(-0.00558184 -0.00330943 -1.75172e-17)
(-5.93974e-05 -1.37587e-05 -6.36417e-19)
(-6.39098e-05 -2.02476e-06 2.18582e-19)
(-5.7712e-05 -2.87203e-05 2.56425e-19)
(-2.40162e-05 -8.10363e-05 5.85844e-19)
(-2.36749e-05 -7.86175e-05 -2.01887e-19)
(-2.62554e-05 -7.26115e-05 -3.11261e-19)
(0.00687106 -0.00197873 1.81305e-18)
(0.00756912 -0.00164104 2.01966e-18)
(-0.000165897 0.000970254 -3.07753e-18)
(-0.000277908 0.000956224 3.91795e-18)
(-0.00022113 0.000885582 -6.2396e-18)
(-5.14104e-05 7.45267e-05 4.30641e-19)
(-5.35843e-05 7.59941e-05 7.30366e-19)
(-5.27248e-05 7.38314e-05 -1.08762e-18)
(-1.71964e-05 0.000113597 -4.60739e-19)
(-1.59975e-05 0.000120204 5.29792e-19)
(-1.11915e-05 0.000112719 1.88999e-18)
(-2.11152e-05 0.000119155 1.16335e-18)
(-2.09556e-05 9.95026e-05 -8.83525e-19)
(-7.99294e-06 3.26075e-06 -7.25635e-20)
(-1.00207e-05 5.17828e-06 1.23422e-20)
(-1.49955e-05 2.17326e-06 1.50331e-19)
(-9.88497e-05 -0.000837103 3.62871e-18)
(-0.000115628 -0.000878502 -6.70615e-18)
(-6.48634e-05 -0.000870838 3.96177e-18)
(-2.15904e-05 -8.29677e-05 4.67069e-19)
(-0.0284178 0.00047744 -3.59278e-18)
(-0.0274256 0.00091433 -4.83919e-18)
(8.75126e-05 -0.00141232 -7.93618e-19)
(0.000176645 -0.00137235 4.63439e-19)
(-7.1466e-05 -0.000100662 6.4557e-20)