/*--------------------------------*- C++ -*----------------------------------*\
| =========                 |                                                 |
| \\      /  F ield         | OpenFOAM: The Open Source CFD Toolbox           |
|  \\    /   O peration     | Version:  v2012                                 |
|   \\  /    A nd           | Website:  www.openfoam.com                      |
|    \\/     M anipulation  |                                                 |
\*---------------------------------------------------------------------------*/
FoamFile
{
    version     2.0;
    format      ascii;
    class       pointVectorField;
    location    "150";
    object      pointDisplacement;
}
// * * * * * * * * * * * * * * * * * * * * * * * * * * * * * * * * * * * * * //

dimensions      [0 1 0 0 0 0 0];


internalField   nonuniform List<vector> 
14246
(
(0 0 0)
(0 0.08 0)
(0 0 0)
(0 0.08 0)
(0 0 0)
(0 0 0)
(0 0 0)
(0 0 0)
(0 0 0)
(0 0 0)
(0 0 0)
(0 0 0)
(0 0 0)
(0 0 0)
(0 0 0)
(0 0 0)
(0 0 0)
(0 0 0)
(0 0 0)
(0 0 0)
(0 0 0)
(0 0 0)
(0 0 0)
(0 0 0)
(0 0 0)
(0 0 0)
(0 0 0)
(0 0 0)
(0 0 0)
(0 0 0)
(0 0 0)
(0 0 0)
(0 0 0)
(0 0 0)
(0 0 0)
(0 0 0)
(0 0 0)
(0 0 0)
(0 0 0)
(0 0 0)
(0 0 0)
(0 0 0)
(0 0 0)
(0 0 0)
(0 0 0)
(0 0 0)
(0 0 0)
(0 0 0)
(0 0 0)
(0 0 0)
(0 0 0)
(0 0 0)
(0 0 0)
(0 0 0)
(0 0 0)
(0 0 0)
(0 0 0)
(0 0 0)
(0 0 0)
(0 0 0)
(0 0 0)
(0 0 0)
(0 0 0)
(0 0 0)
(0 0 0)
(0 0 0)
(0 0 0)
(0 0 0)
(0 0 0)
(0 0 0)
(0 0 0)
(0 0 0)
(0 0 0)
(0 0 0)
(0 0 0)
(0 0.08 0)
(0 0.08 0)
(0 0.08 0)
(0 0.08 0)
(0 0.08 0)
(0 0.08 0)
(0 0.08 0)
(0 0.08 0)
(0 0.08 0)
(0 0.08 0)
(0 0.08 0)
(0 0.08 0)
(0 0.08 0)
(0 0.08 0)
(0 0.08 0)
(0 0.08 0)
(0 0.08 0)
(0 0.08 0)
(0 0.08 0)
(0 0.08 0)
(0 0.08 0)
(0 0.08 0)
(0 0.08 0)
(0 0.08 0)
(0 0.08 0)
(0 0.08 0)
(0 0.08 0)
(0 0.08 0)
(0 0.08 0)
(0 0.08 0)
(0 0.08 0)
(0 0.08 0)
(0 0.08 0)
(0 0.08 0)
(0 0.08 0)
(0 0.08 0)
(0 0.08 0)
(0 0.08 0)
(0 0.08 0)
(0 0.08 0)
(0 0.08 0)
(0 0.08 0)
(0 0.08 0)
(0 0.08 0)
(0 0.08 0)
(0 0.08 0)
(0 0.08 0)
(0 0.08 0)
(0 0.08 0)
(0 0.08 0)
(0 0.08 0)
(0 0.08 0)
(0 0.08 0)
(0 0.08 0)
(0 0.08 0)
(0 0.08 0)
(0 0.08 0)
(0 0.08 0)
(0 0.08 0)
(0 0.08 0)
(0 0.08 0)
(0 0.08 0)
(0 0.08 0)
(0 0.08 0)
(0 0.08 0)
(0 0.08 0)
(0 0.08 0)
(0 0.08 0)
(0 0.08 0)
(0 0.08 0)
(0 0.08 0)
(0 0.08 0)
(0 0.08 0)
(0 0.08 0)
(0 0.08 0)
(0 0.08 0)
(0 0.08 0)
(0 0.08 0)
(0 0.08 0)
(0 0.08 0)
(0 0.08 0)
(0 0.08 0)
(0 0.08 0)
(0 0.08 0)
(0 0.08 0)
(0 0.08 0)
(0 0.08 0)
(0 0.08 0)
(0 0.08 0)
(0 0.08 0)
(0 0.08 0)
(0 0.08 0)
(0 0.08 0)
(0 0.08 0)
(0 0.08 0)
(0 0.08 0)
(0 0.08 0)
(0 0.08 0)
(0 0.08 0)
(0 0.08 0)
(0 0.08 0)
(0 0.08 0)
(0 0.08 0)
(0 0.08 0)
(0 0.08 0)
(0 0.08 0)
(0 0.08 0)
(0 0.08 0)
(0 0.08 0)
(0 0.08 0)
(0 0.08 0)
(0 0.08 0)
(0 0.08 0)
(0 0.08 0)
(0 0.08 0)
(0 0.08 0)
(0 0.08 0)
(0 0.08 0)
(0 0.08 0)
(0 0.08 0)
(0 0.08 0)
(0 0.08 0)
(0 0.08 0)
(0 0.08 0)
(0 0.08 0)
(0 0.08 0)
(0 0.08 0)
(0 0.08 0)
(0 0.08 0)
(0 0.08 0)
(0 0.08 0)
(0 0.08 0)
(0 0.08 0)
(0 0.08 0)
(0 0.08 0)
(0 0 0)
(0 0 0)
(0 0 0)
(0 0 0)
(0 0 0)
(0 0 0)
(0 0 0)
(0 0 0)
(0 0 0)
(0 0 0)
(0 0 0)
(0 0 0)
(0 0 0)
(0 0 0)
(0 0 0)
(0 0 0)
(0 0 0)
(0 0 0)
(0 0 0)
(0 0 0)
(0 0 0)
(0 0 0)
(0 0 0)
(0 0 0)
(0 0 0)
(0 0 0)
(0 0 0)
(0 0 0)
(0 0 0)
(0 0 0)
(0 0 0)
(0 0 0)
(0 0 0)
(0 0 0)
(0 0 0)
(0 0 0)
(0 0 0)
(0 0 0)
(0 0 0)
(0 0 0)
(0 0 0)
(0 0 0)
(0 0 0)
(0 0 0)
(0 0 0)
(0 0 0)
(0 0 0)
(0 0 0)
(0 0 0)
(0 0 0)
(0 0 0)
(0 0 0)
(0 0 0)
(0 0 0)
(0 0 0)
(0 0 0)
(0 0 0)
(0 0 0)
(0 0 0)
(0 0 0)
(0 0 0)
(0 0 0)
(0 0 0)
(0 0 0)
(0 0 0)
(0 0 0)
(0 0 0)
(0 0 0)
(0 0 0)
(0 0 0)
(0 0 0)
(0 0.08 0)
(0 0.08 0)
(0 0.08 0)
(0 0.08 0)
(0 0.08 0)
(0 0.08 0)
(0 0.08 0)
(0 0.08 0)
(0 0.08 0)
(0 0.08 0)
(0 0.08 0)
(0 0.08 0)
(0 0.08 0)
(0 0.08 0)
(0 0.08 0)
(0 0.08 0)
(0 0.08 0)
(0 0.08 0)
(0 0.08 0)
(0 0.08 0)
(0 0.08 0)
(0 0.08 0)
(0 0.08 0)
(0 0.08 0)
(0 0.08 0)
(0 0.08 0)
(0 0.08 0)
(0 0.08 0)
(0 0.08 0)
(0 0.08 0)
(0 0.08 0)
(0 0.08 0)
(0 0.08 0)
(0 0.08 0)
(0 0.08 0)
(0 0.08 0)
(0 0.08 0)
(0 0.08 0)
(0 0.08 0)
(0 0.08 0)
(0 0.08 0)
(0 0.08 0)
(0 0.08 0)
(0 0.08 0)
(0 0.08 0)
(0 0.08 0)
(0 0.08 0)
(0 0.08 0)
(0 0.08 0)
(0 0.08 0)
(0 0.08 0)
(0 0.08 0)
(0 0.08 0)
(0 0.08 0)
(0 0.08 0)
(0 0.08 0)
(0 0.08 0)
(0 0.08 0)
(0 0.08 0)
(0 0.08 0)
(0 0.08 0)
(0 0.08 0)
(0 0.08 0)
(0 0.08 0)
(0 0.08 0)
(0 0.08 0)
(0 0.08 0)
(0 0.08 0)
(0 0.08 0)
(0 0.08 0)
(0 0.08 0)
(0 0.08 0)
(0 0.08 0)
(0 0.08 0)
(0 0.08 0)
(0 0.08 0)
(0 0.08 0)
(0 0.08 0)
(0 0.08 0)
(0 0.08 0)
(0 0.08 0)
(0 0.08 0)
(0 0.08 0)
(0 0.08 0)
(0 0.08 0)
(0 0.08 0)
(0 0.08 0)
(0 0.08 0)
(0 0.08 0)
(0 0.08 0)
(0 0.08 0)
(0 0.08 0)
(0 0.08 0)
(0 0.08 0)
(0 0.08 0)
(0 0.08 0)
(0 0.08 0)
(0 0.08 0)
(0 0.08 0)
(0 0.08 0)
(0 0.08 0)
(0 0.08 0)
(0 0.08 0)
(0 0.08 0)
(0 0.08 0)
(0 0.08 0)
(0 0.08 0)
(0 0.08 0)
(0 0.08 0)
(0 0.08 0)
(0 0.08 0)
(0 0.08 0)
(0 0.08 0)
(0 0.08 0)
(0 0.08 0)
(0 0.08 0)
(0 0.08 0)
(0 0.08 0)
(0 0.08 0)
(0 0.08 0)
(0 0.08 0)
(0 0.08 0)
(0 0.08 0)
(0 0.08 0)
(0 0.08 0)
(0 0.08 0)
(0 0.08 0)
(0 0.08 0)
(0 0.08 0)
(0 0.08 0)
(0 0.08 0)
(0 0.08 0)
(0 0.08 0)
(0 0.08 0)
(0 0.08 0)
(0 0.0799996 0)
(0 0.0799996 0)
(0 0.0799995 0)
(0 0.0799995 0)
(0 0.0799996 0)
(0 0.0799996 0)
(0 0.0799995 0)
(0 0.0799995 0)
(0 0.0799995 0)
(0 0.0799996 0)
(0 0.0799996 0)
(0 0.0799996 0)
(0 0.0799996 0)
(0 0.0799996 0)
(0 0.0799996 0)
(0 0.0799995 0)
(0 0.00428377 0)
(0 0.00476591 0)
(0 0.00523079 0)
(0 0.00650575 0)
(0 0.00577176 0)
(0 0.00688865 0)
(0 0.0055797 0)
(0 0.0799995 0)
(0 0.00376035 0)
(0 0.00378119 0)
(0 0.00279242 0)
(0 0.0799996 0)
(0 0.0799996 0)
(0 0.0799995 0)
(0 0.0799996 0)
(0 0.0799996 0)
(0 0.0799996 0)
(0 0.0799996 0)
(0 0.0799996 0)
(0 0.0799995 0)
(0 0.0799995 0)
(0 0.0799996 0)
(0 0.0799996 0)
(0 0.0799996 0)
(0 0.0799996 0)
(0 0.00285482 0)
(0 0.00539525 0)
(0 0.00524125 0)
(0 0.0049694 0)
(0 0.00171068 0)
(0 0.0019813 0)
(0 0.0011009 0)
(0 0.00622084 0)
(0 0.00625891 0)
(0 0.00437277 0)
(0 0.00520998 0)
(0 0.00543136 0)
(0 0.00421303 0)
(0 0.00328403 0)
(0 0.00361601 0)
(0 0.00226856 0)
(0 0.00115674 0)
(0 0.000530689 0)
(0 0.0059556 0)
(0 0.0112939 0)
(0 0.0110274 0)
(0 0.0161102 0)
(0 0.0157755 0)
(0 0.0204509 0)
(0 0.0200562 0)
(0 0.0244575 0)
(0 0.0239748 0)
(0 0.0280639 0)
(0 0.0274816 0)
(0 0.0312248 0)
(0 0.0305633 0)
(0 0.0340768 0)
(0 0.0333417 0)
(0 0.0366617 0)
(0 0.037434 0)
(0 0.0398124 0)
(0 0.0405752 0)
(0 0.0427714 0)
(0 0.0435001 0)
(0 0.0455417 0)
(0 0.0462423 0)
(0 0.0481298 0)
(0 0.0488492 0)
(0 0.0505474 0)
(0 0.0512917 0)
(0 0.0528089 0)
(0 0.0534942 0)
(0 0.0548966 0)
(0 0.0555444 0)
(0 0.0568463 0)
(0 0.0574365 0)
(0 0.0586856 0)
(0 0.059197 0)
(0 0.0603745 0)
(0 0.0608667 0)
(0 0.0619388 0)
(0 0.0624111 0)
(0 0.0633904 0)
(0 0.0638482 0)
(0 0.0647518 0)
(0 0.0652005 0)
(0 0.0642819 0)
(0 0.0655709 0)
(0 0.0650913 0)
(0 0.066317 0)
(0 0.0658293 0)
(0 0.0670033 0)
(0 0.0665048 0)
(0 0.0676398 0)
(0 0.067118 0)
(0 0.0681682 0)
(0 0.0676875 0)
(0 0.0686505 0)
(0 0.0681834 0)
(0 0.0691666 0)
(0 0.0686287 0)
(0 0.069626 0)
(0 0.0690556 0)
(0 0.0700077 0)
(0 0.0688261 0)
(0 0.0694341 0)
(0 0.0703517 0)
(0 0.0697656 0)
(0 0.0706574 0)
(0 0.0700646 0)
(0 0.070937 0)
(0 0.0703317 0)
(0 0.0711735 0)
(0 0.069444 0)
(0 0.0705686 0)
(0 0.0713589 0)
(0 0.0707473 0)
(0 0.07152 0)
(0 0.0708765 0)
(0 0.0716242 0)
(0 0.0709895 0)
(0 0.0717218 0)
(0 0.0710782 0)
(0 0.0718159 0)
(0 0.0711289 0)
(0 0.0718632 0)
(0 0.0703804 0)
(0 0.0708879 0)
(0 0.0711446 0)
(0 0.0718694 0)
(0 0.0711367 0)
(0 0.0718403 0)
(0 0.0725214 0)
(0 0.072495 0)
(0 0.0718089 0)
(0 0.0724579 0)
(0 0.0731105 0)
(0 0.0730592 0)
(0 0.0723984 0)
(0 0.0729905 0)
(0 0.0736186 0)
(0 0.0735439 0)
(0 0.0729061 0)
(0 0.0734568 0)
(0 0.0728104 0)
(0 0.0733611 0)
(0 0.0739644 0)
(0 0.0738817 0)
(0 0.0732619 0)
(0 0.0737841 0)
(0 0.0744693 0)
(0 0.0742675 0)
(0 0.0736769 0)
(0 0.0741377 0)
(0 0.0747281 0)
(0 0.0745522 0)
(0 0.0739201 0)
(0 0.0744332 0)
(0 0.0749607 0)
(0 0.0748555 0)
(0 0.0743133 0)
(0 0.0747273 0)
(0 0.0741665 0)
(0 0.0745864 0)
(0 0.0751175 0)
(0 0.074979 0)
(0 0.074436 0)
(0 0.0748327 0)
(0 0.0742781 0)
(0 0.0746795 0)
(0 0.0752049 0)
(0 0.0750534 0)
(0 0.0745188 0)
(0 0.0748953 0)
(0 0.0754018 0)
(0 0.0752465 0)
(0 0.0747306 0)
(0 0.0750862 0)
(0 0.0745605 0)
(0 0.0749231 0)
(0 0.0754167 0)
(0 0.0752583 0)
(0 0.0747575 0)
(0 0.0750942 0)
(0 0.075571 0)
(0 0.0754121 0)
(0 0.0749203 0)
(0 0.0752436 0)
(0 0.0747345 0)
(0 0.0750614 0)
(0 0.074539 0)
(0 0.0748693 0)
(0 0.075366 0)
(0 0.0751778 0)
(0 0.0746721 0)
(0 0.0749871 0)
(0 0.0754667 0)
(0 0.0752821 0)
(0 0.0747898 0)
(0 0.0750874 0)
(0 0.0745836 0)
(0 0.0748848 0)
(0 0.041996 0)
(0 0.0720969 0)
(0 0.0642745 0)
(0 0.0656042 0)
(0 0.0646711 0)
(0 0.0660105 0)
(0 0.0650502 0)
(0 0.0675455 0)
(0 0.0780822 0)
(0 0.0783268 0)
(0 0.0781535 0)
(0 0.0783888 0)
(0 0.0782067 0)
(0 0.0784398 0)
(0 0.0782501 0)
(0 0.078482 0)
(0 0.05415 0)
(0 0.0782864 0)
(0 0.0785089 0)
(0 0.0778353 0)
(0 0.0783106 0)
(0 0.0785209 0)
(0 0.0786563 0)
(0 0.0783226 0)
(0 0.0785267 0)
(0 0.0780792 0)
(0 0.078325 0)
(0 0.0785238 0)
(0 0.0787101 0)
(0 0.0787021 0)
(0 0.078512 0)
(0 0.0786855 0)
(0 0.07849 0)
(0 0.0786592 0)
(0 0.0788409 0)
(0 0.0788112 0)
(0 0.0521146 0)
(0 0.0789792 0)
(0 0.0789467 0)
(0 0.0787742 0)
(0 0.0789063 0)
(0 0.0790658 0)
(0 0.0790233 0)
(0 0.0788584 0)
(0 0.0789744 0)
(0 0.0791272 0)
(0 0.0790768 0)
(0 0.0792177 0)
(0 0.0791659 0)
(0 0.0790219 0)
(0 0.0791109 0)
(0 0.0792422 0)
(0 0.0791875 0)
(0 0.0793089 0)
(0 0.0792548 0)
(0 0.0793657 0)
(0 0.0793094 0)
(0 0.0794134 0)
(0 0.079355 0)
(0 0.0794547 0)
(0 0.0793958 0)
(0 0.0794893 0)
(0 0.0794317 0)
(0 0.079519 0)
(0 0.0794631 0)
(0 0.0795443 0)
(0 0.0794907 0)
(0 0.0795657 0)
(0 0.0795145 0)
(0 0.0795866 0)
(0 0.0795366 0)
(0 0.079605 0)
(0 0.079557 0)
(0 0.0796201 0)
(0 0.079572 0)
(0 0.0796327 0)
(0 0.0795852 0)
(0 0.0796431 0)
(0 0.0795964 0)
(0 0.0796518 0)
(0 0.0796046 0)
(0 0.0796595 0)
(0 0.0796135 0)
(0 0.0796666 0)
(0 0.0796209 0)
(0 0.0796728 0)
(0 0.079627 0)
(0 0.0796783 0)
(0 0.0796323 0)
(0 0.0796825 0)
(0 0.0796382 0)
(0 0.0796855 0)
(0 0.0796422 0)
(0 0.0796879 0)
(0 0.0796439 0)
(0 0.0796901 0)
(0 0.0796459 0)
(0 0.0796919 0)
(0 0.0796478 0)
(0 0.0796934 0)
(0 0.0796497 0)
(0 0.0796939 0)
(0 0.0796504 0)
(0 0.079694 0)
(0 0.0796505 0)
(0 0.0796939 0)
(0 0.0796501 0)
(0 0.0796935 0)
(0 0.0796492 0)
(0 0.0796934 0)
(0 0.0796485 0)
(0 0.0796937 0)
(0 0.0796475 0)
(0 0.0796922 0)
(0 0.0796464 0)
(0 0.0796893 0)
(0 0.0796437 0)
(0 0.0796858 0)
(0 0.0796401 0)
(0 0.0796817 0)
(0 0.0796362 0)
(0 0.0796783 0)
(0 0.0796293 0)
(0 0.0796743 0)
(0 0.0796246 0)
(0 0.0796709 0)
(0 0.0796236 0)
(0 0.0796673 0)
(0 0.0796203 0)
(0 0.0796624 0)
(0 0.0796145 0)
(0 0.0796573 0)
(0 0.0796088 0)
(0 0.0796518 0)
(0 0.0796033 0)
(0 0.0796467 0)
(0 0.0795986 0)
(0 0.0796402 0)
(0 0.079591 0)
(0 0.0796322 0)
(0 0.0795834 0)
(0 0.0796248 0)
(0 0.0795761 0)
(0 0.0796169 0)
(0 0.0795655 0)
(0 0.0796083 0)
(0 0.0795546 0)
(0 0.0795993 0)
(0 0.0795435 0)
(0 0.0795885 0)
(0 0.0795328 0)
(0 0.0795771 0)
(0 0.0795225 0)
(0 0.0795663 0)
(0 0.0795095 0)
(0 0.0795543 0)
(0 0.0794948 0)
(0 0.0795413 0)
(0 0.0794803 0)
(0 0.0795275 0)
(0 0.079585 0)
(0 0.0795715 0)
(0 0.0795128 0)
(0 0.0795575 0)
(0 0.0796439 0)
(0 0.0796757 0)
(0 0.0797 0)
(0 0.0797144 0)
(0 0.0797329 0)
(0 0.0797323 0)
(0 0.0795988 0)
(0 0.0795994 0)
(0 0.0795837 0)
(0 0.0795396 0)
(0 0.0794632 0)
(0 0.0797328 0)
(0 0.0795701 0)
(0 0.0795073 0)
(0 0.079553 0)
(0 0.0792884 0)
(0 0.0797265 0)
(0 0.0794468 0)
(0 0.0789722 0)
(0 0.0797071 0)
(0 0.0796794 0)
(0 0.0663656 0)
(0 0.0653938 0)
(0 0.079593 0)
(0 0.0796111 0)
(0 0.0794652 0)
(0 0.0666438 0)
(0 0.0654979 0)
(0 0.0669072 0)
(0 0.0659284 0)
(0 0.0671909 0)
(0 0.0661745 0)
(0 0.0648682 0)
(0 0.0649971 0)
(0 0.0636419 0)
(0 0.0637652 0)
(0 0.062222 0)
(0 0.0624141 0)
(0 0.0663478 0)
(0 0.0677847 0)
(0 0.0607387 0)
(0 0.0609344 0)
(0 0.0591873 0)
(0 0.0593553 0)
(0 0.061085 0)
(0 0.0594744 0)
(0 0.0611834 0)
(0 0.0576215 0)
(0 0.0249119 0)
(0 0.0798369 0)
(0 0.07979 0)
(0 0.0798144 0)
(0 0.0798583 0)
(0 0.0798369 0)
(0 0.0798779 0)
(0 0.0798556 0)
(0 0.0798933 0)
(0 0.0798716 0)
(0 0.079905 0)
(0 0.0798854 0)
(0 0.079914 0)
(0 0.0798946 0)
(0 0.0799202 0)
(0 0.0799009 0)
(0 0.0799244 0)
(0 0.0798096 0)
(0 0.0799044 0)
(0 0.0799267 0)
(0 0.0798731 0)
(0 0.0653234 0)
(0 0.0799052 0)
(0 0.0799264 0)
(0 0.072511 0)
(0 0.0468512 0)
(0 0.079904 0)
(0 0.079924 0)
(0 0.0799218 0)
(0 0.0572108 0)
(0 0.0591855 0)
(0 0.0579928 0)
(0 0.0559625 0)
(0 0.0567782 0)
(0 0.0587545 0)
(0 0.057559 0)
(0 0.0594691 0)
(0 0.0582939 0)
(0 0.0562984 0)
(0 0.0570586 0)
(0 0.0589934 0)
(0 0.0577989 0)
(0 0.0557499 0)
(0 0.056519 0)
(0 0.0585169 0)
(0 0.0572525 0)
(0 0.0591999 0)
(0 0.0579498 0)
(0 0.0559218 0)
(0 0.0566311 0)
(0 0.0586268 0)
(0 0.0573229 0)
(0 0.0552376 0)
(0 0.0559473 0)
(0 0.058029 0)
(0 0.0566565 0)
(0 0.0545116 0)
(0 0.0552131 0)
(0 0.0573014 0)
(0 0.0558797 0)
(0 0.0537405 0)
(0 0.0544285 0)
(0 0.0564986 0)
(0 0.0550658 0)
(0 0.0570804 0)
(0 0.0556805 0)
(0 0.0535741 0)
(0 0.0542073 0)
(0 0.0563572 0)
(0 0.0548351 0)
(0 0.0526615 0)
(0 0.053222 0)
(0 0.0552223 0)
(0 0.0537015 0)
(0 0.0515992 0)
(0 0.0521158 0)
(0 0.0541574 0)
(0 0.0525771 0)
(0 0.0545725 0)
(0 0.05298 0)
(0 0.0509079 0)
(0 0.0513089 0)
(0 0.0533212 0)
(0 0.0516427 0)
(0 0.0535993 0)
(0 0.0519111 0)
(0 0.0537815 0)
(0 0.0520725 0)
(0 0.053782 0)
(0 0.0520985 0)
(0 0.0502717 0)
(0 0.0503417 0)
(0 0.0521304 0)
(0 0.0503369 0)
(0 0.0520836 0)
(0 0.0502443 0)
(0 0.0519669 0)
(0 0.0500811 0)
(0 0.0517984 0)
(0 0.0498095 0)
(0 0.0480629 0)
(0 0.0477226 0)
(0 0.0459424 0)
(0 0.0455354 0)
(0 0.0437159 0)
(0 0.0432575 0)
(0 0.0413801 0)
(0 0.0408943 0)
(0 0.0491422 0)
(0 0.0514953 0)
(0 0.0389598 0)
(0 0.0384374 0)
(0 0.0393558 0)
(0 0.0364962 0)
(0 0.0359145 0)
(0 0.0377718 0)
(0 0.033979 0)
(0 0.0351791 0)
(0 0.0369776 0)
(0 0.0553409 0)
(0 0.0537815 0)
(0 0.0342656 0)
(0 0.0359501 0)
(0 0.0757382 0)
(0 0.0758651 0)
(0 0.074188 0)
(0 0.0740418 0)
(0 0.0799381 0)
(0 0.0799487 0)
(0 0.0799408 0)
(0 0.0799508 0)
(0 0.079943 0)
(0 0.0799527 0)
(0 0.0799448 0)
(0 0.0799544 0)
(0 0.0799468 0)
(0 0.0799561 0)
(0 0.0799486 0)
(0 0.0799576 0)
(0 0.0799503 0)
(0 0.0799591 0)
(0 0.079952 0)
(0 0.0799604 0)
(0 0.0799535 0)
(0 0.0799617 0)
(0 0.0799549 0)
(0 0.079963 0)
(0 0.0799563 0)
(0 0.0799642 0)
(0 0.0799576 0)
(0 0.0799652 0)
(0 0.0799588 0)
(0 0.0799661 0)
(0 0.0799599 0)
(0 0.0799671 0)
(0 0.079961 0)
(0 0.079968 0)
(0 0.0799622 0)
(0 0.0799688 0)
(0 0.0799631 0)
(0 0.0799696 0)
(0 0.0799639 0)
(0 0.0799703 0)
(0 0.0799648 0)
(0 0.0799711 0)
(0 0.0799654 0)
(0 0.0799717 0)
(0 0.0799661 0)
(0 0.0799722 0)
(0 0.0799665 0)
(0 0.0799728 0)
(0 0.0799674 0)
(0 0.0799734 0)
(0 0.0799688 0)
(0 0.0799742 0)
(0 0.0799696 0)
(0 0.0799748 0)
(0 0.0799701 0)
(0 0.0799753 0)
(0 0.0799705 0)
(0 0.0799758 0)
(0 0.079971 0)
(0 0.0799763 0)
(0 0.0799715 0)
(0 0.0799767 0)
(0 0.079972 0)
(0 0.0799772 0)
(0 0.0799725 0)
(0 0.0799776 0)
(0 0.0799729 0)
(0 0.079978 0)
(0 0.0799734 0)
(0 0.0799783 0)
(0 0.0799738 0)
(0 0.0799786 0)
(0 0.0799741 0)
(0 0.079979 0)
(0 0.0799743 0)
(0 0.0799794 0)
(0 0.0799745 0)
(0 0.0799797 0)
(0 0.0799749 0)
(0 0.07998 0)
(0 0.0799756 0)
(0 0.0799803 0)
(0 0.0799761 0)
(0 0.0799806 0)
(0 0.0799766 0)
(0 0.079981 0)
(0 0.0799768 0)
(0 0.0799812 0)
(0 0.079977 0)
(0 0.0799815 0)
(0 0.0799772 0)
(0 0.0799817 0)
(0 0.0799775 0)
(0 0.0799819 0)
(0 0.0799779 0)
(0 0.0799821 0)
(0 0.0799782 0)
(0 0.0799627 0)
(0 0.0799824 0)
(0 0.0799782 0)
(0 0.0799826 0)
(0 0.0799783 0)
(0 0.0799828 0)
(0 0.0799785 0)
(0 0.0799689 0)
(0 0.0799829 0)
(0 0.0799786 0)
(0 0.079983 0)
(0 0.0799787 0)
(0 0.0799831 0)
(0 0.0799788 0)
(0 0.0799741 0)
(0 0.0799831 0)
(0 0.079979 0)
(0 0.0799831 0)
(0 0.079979 0)
(0 0.0799832 0)
(0 0.079979 0)
(0 0.079976 0)
(0 0.0799833 0)
(0 0.0799789 0)
(0 0.0799834 0)
(0 0.0799789 0)
(0 0.0799776 0)
(0 0.0799835 0)
(0 0.0799787 0)
(0 0.0799834 0)
(0 0.0799786 0)
(0 0.0799834 0)
(0 0.0799787 0)
(0 0.0799804 0)
(0 0.0799834 0)
(0 0.0799787 0)
(0 0.0799833 0)
(0 0.0799786 0)
(0 0.0799832 0)
(0 0.0799784 0)
(0 0.0799521 0)
(0 0.0799649 0)
(0 0.0799376 0)
(0 0.079973 0)
(0 0.079971 0)
(0 0.0799674 0)
(0 0.0799828 0)
(0 0.0799587 0)
(0 0.0799832 0)
(0 0.0799782 0)
(0 0.0799736 0)
(0 0.079983 0)
(0 0.0799779 0)
(0 0.0799827 0)
(0 0.0799775 0)
(0 0.0799728 0)
(0 0.0799729 0)
(0 0.0799835 0)
(0 0.0799824 0)
(0 0.0799769 0)
(0 0.0799454 0)
(0 0.0799292 0)
(0 0.0799842 0)
(0 0.0799821 0)
(0 0.0799762 0)
(0 0.0799813 0)
(0 0.0799753 0)
(0 0.0799852 0)
(0 0.0799806 0)
(0 0.0799744 0)
(0 0.0799858 0)
(0 0.0799686 0)
(0 0.0799802 0)
(0 0.0799734 0)
(0 0.0799869 0)
(0 0.0799795 0)
(0 0.0799721 0)
(0 0.079987 0)
(0 0.0799785 0)
(0 0.079987 0)
(0 0.0799872 0)
(0 0.0331514 0)
(0 0.0315516 0)
(0 0.0700547 0)
(0 0.0799557 0)
(0 0.0346578 0)
(0 0.0375249 0)
(0 0.0799627 0)
(0 0.0799871 0)
(0 0.0799661 0)
(0 0.0799681 0)
(0 0.0799721 0)
(0 0.0799733 0)
(0 0.079973 0)
(0 0.0799738 0)
(0 0.0799009 0)
(0 0.0798776 0)
(0 0.0784109 0)
(0 0.078275 0)
(0 0.0784532 0)
(0 0.07832 0)
(0 0.0784929 0)
(0 0.0783655 0)
(0 0.0785315 0)
(0 0.0783992 0)
(0 0.0785627 0)
(0 0.0784195 0)
(0 0.0785886 0)
(0 0.0784488 0)
(0 0.0786157 0)
(0 0.0784863 0)
(0 0.0786423 0)
(0 0.0785213 0)
(0 0.078666 0)
(0 0.078542 0)
(0 0.0786865 0)
(0 0.0785539 0)
(0 0.0786993 0)
(0 0.078571 0)
(0 0.0787127 0)
(0 0.078587 0)
(0 0.0787323 0)
(0 0.0786017 0)
(0 0.0787487 0)
(0 0.0786153 0)
(0 0.0784561 0)
(0 0.0784704 0)
(0 0.0786282 0)
(0 0.0784869 0)
(0 0.0786399 0)
(0 0.078498 0)
(0 0.0786488 0)
(0 0.0784981 0)
(0 0.078655 0)
(0 0.0785025 0)
(0 0.07866 0)
(0 0.0785133 0)
(0 0.0786623 0)
(0 0.0785092 0)
(0 0.0786616 0)
(0 0.0785057 0)
(0 0.0786601 0)
(0 0.0785126 0)
(0 0.0786572 0)
(0 0.0785033 0)
(0 0.07865 0)
(0 0.0784854 0)
(0 0.0786394 0)
(0 0.0784783 0)
(0 0.0786275 0)
(0 0.0784666 0)
(0 0.0786139 0)
(0 0.0784533 0)
(0 0.078597 0)
(0 0.0784309 0)
(0 0.078575 0)
(0 0.0783958 0)
(0 0.0785486 0)
(0 0.0783644 0)
(0 0.0781988 0)
(0 0.0781622 0)
(0 0.0783307 0)
(0 0.0781235 0)
(0 0.078293 0)
(0 0.0780781 0)
(0 0.0782495 0)
(0 0.0780268 0)
(0 0.0782 0)
(0 0.07797 0)
(0 0.0781445 0)
(0 0.0779066 0)
(0 0.078082 0)
(0 0.0778344 0)
(0 0.0782964 0)
(0 0.0780125 0)
(0 0.0777537 0)
(0 0.0783802 0)
(0 0.0777883 0)
(0 0.0784125 0)
(0 0.0783661 0)
(0 0.0782507 0)
(0 0.0775606 0)
(0 0.0774683 0)
(0 0.0776651 0)
(0 0.0773674 0)
(0 0.0775677 0)
(0 0.0772528 0)
(0 0.0774521 0)
(0 0.0771156 0)
(0 0.0772959 0)
(0 0.0769569 0)
(0 0.0771372 0)
(0 0.0782778 0)
(0 0.0783485 0)
(0 0.078296 0)
(0 0.0779541 0)
(0 0.0799647 0)
(0 0.0799625 0)
(0 0.0799535 0)
(0 0.0799508 0)
(0 0.0799869 0)
(0 0.0767862 0)
(0 0.0769814 0)
(0 0.0799397 0)
(0 0.0799366 0)
(0 0.076598 0)
(0 0.0767903 0)
(0 0.0799953 0)
(0 0.079994 0)
(0 0.0799955 0)
(0 0.0799943 0)
(0 0.0799958 0)
(0 0.0799946 0)
(0 0.079996 0)
(0 0.0799949 0)
(0 0.0799962 0)
(0 0.0799951 0)
(0 0.0799964 0)
(0 0.0799954 0)
(0 0.0799966 0)
(0 0.0799955 0)
(0 0.0799967 0)
(0 0.0799957 0)
(0 0.0799969 0)
(0 0.0799959 0)
(0 0.079997 0)
(0 0.0799961 0)
(0 0.0763843 0)
(0 0.0765737 0)
(0 0.0761479 0)
(0 0.0763336 0)
(0 0.030357 0)
(0 0.0287946 0)
(0 0.0361043 0)
(0 0.0389507 0)
(0 0.0769302 0)
(0 0.0483999 0)
(0 0.0799972 0)
(0 0.0799963 0)
(0 0.0799865 0)
(0 0.0799973 0)
(0 0.0799965 0)
(0 0.0799974 0)
(0 0.0799966 0)
(0 0.0589424 0)
(0 0.0799433 0)
(0 0.0799975 0)
(0 0.0799967 0)
(0 0.0772614 0)
(0 0.0798736 0)
(0 0.0798465 0)
(0 0.0581295 0)
(0 0.0799944 0)
(0 0.0799405 0)
(0 0.0799976 0)
(0 0.0799969 0)
(0 0.0799958 0)
(0 0.079996 0)
(0 0.079997 0)
(0 0.0799962 0)
(0 0.0799972 0)
(0 0.0799963 0)
(0 0.0799973 0)
(0 0.0799965 0)
(0 0.0799974 0)
(0 0.0799967 0)
(0 0.0799975 0)
(0 0.0799968 0)
(0 0.0799976 0)
(0 0.0799969 0)
(0 0.0767467 0)
(0 0.076502 0)
(0 0.0760733 0)
(0 0.0762382 0)
(0 0.0781292 0)
(0 0.0799977 0)
(0 0.0799971 0)
(0 0.0799978 0)
(0 0.0799972 0)
(0 0.0766545 0)
(0 0.0763882 0)
(0 0.0759501 0)
(0 0.0760956 0)
(0 0.0756311 0)
(0 0.0757708 0)
(0 0.0752783 0)
(0 0.0754103 0)
(0 0.0759032 0)
(0 0.075532 0)
(0 0.0750149 0)
(0 0.0751217 0)
(0 0.0756312 0)
(0 0.0752125 0)
(0 0.0757197 0)
(0 0.0752885 0)
(0 0.0747629 0)
(0 0.0748247 0)
(0 0.0742706 0)
(0 0.0743147 0)
(0 0.0748606 0)
(0 0.0743283 0)
(0 0.0748748 0)
(0 0.0743251 0)
(0 0.0748653 0)
(0 0.0742782 0)
(0 0.074828 0)
(0 0.0742204 0)
(0 0.0747759 0)
(0 0.0741747 0)
(0 0.0747072 0)
(0 0.074084 0)
(0 0.0746063 0)
(0 0.073962 0)
(0 0.0737315 0)
(0 0.0744732 0)
(0 0.0738206 0)
(0 0.0743094 0)
(0 0.073623 0)
(0 0.0741086 0)
(0 0.0733943 0)
(0 0.0799857 0)
(0 0.0799923 0)
(0 0.0799979 0)
(0 0.0799973 0)
(0 0.079923 0)
(0 0.0799198 0)
(0 0.0375324 0)
(0 0.0403595 0)
(0 0.0344177 0)
(0 0.0275306 0)
(0 0.0260135 0)
(0 0.078455 0)
(0 0.079625 0)
(0 0.0777726 0)
(0 0.079998 0)
(0 0.0799974 0)
(0 0.079998 0)
(0 0.0799975 0)
(0 0.0799981 0)
(0 0.0799976 0)
(0 0.0799967 0)
(0 0.0799969 0)
(0 0.0799977 0)
(0 0.079997 0)
(0 0.0799978 0)
(0 0.0799971 0)
(0 0.0799979 0)
(0 0.0799973 0)
(0 0.079998 0)
(0 0.0799974 0)
(0 0.0787996 0)
(0 0.0787836 0)
(0 0.0788028 0)
(0 0.0799947 0)
(0 0.0799981 0)
(0 0.0799975 0)
(0 0.0799982 0)
(0 0.0799976 0)
(0 0.0799959 0)
(0 0.0799982 0)
(0 0.0799977 0)
(0 0.0799966 0)
(0 0.0595976 0)
(0 0.0736772 0)
(0 0.0799271 0)
(0 0.0787672 0)
(0 0.0763945 0)
(0 0.0767923 0)
(0 0.0782477 0)
(0 0.0787147 0)
(0 0.0799951 0)
(0 0.073107 0)
(0 0.0799968 0)
(0 0.0785772 0)
(0 0.0799079 0)
(0 0.079913 0)
(0 0.0799937 0)
(0 0.0799492 0)
(0 0.0798412 0)
(0 0.0798094 0)
(0 0.0799983 0)
(0 0.0799978 0)
(0 0.0390043 0)
(0 0.04185 0)
(0 0.0751298 0)
(0 0.0787423 0)
(0 0.0799964 0)
(0 0.0788682 0)
(0 0.0753681 0)
(0 0.0799984 0)
(0 0.0799979 0)
(0 0.0799985 0)
(0 0.079998 0)
(0 0.0799973 0)
(0 0.0799974 0)
(0 0.0799981 0)
(0 0.0799975 0)
(0 0.0799982 0)
(0 0.0799976 0)
(0 0.0799982 0)
(0 0.0799977 0)
(0 0.0799983 0)
(0 0.0799978 0)
(0 0.0799967 0)
(0 0.0788312 0)
(0 0.0799974 0)
(0 0.0246716 0)
(0 0.0232184 0)
(0 0.0244256 0)
(0 0.0216966 0)
(0 0.0227539 0)
(0 0.0200752 0)
(0 0.0209738 0)
(0 0.0183649 0)
(0 0.0190779 0)
(0 0.0799984 0)
(0 0.0799979 0)
(0 0.0799985 0)
(0 0.079998 0)
(0 0.0773469 0)
(0 0.0799986 0)
(0 0.0799981 0)
(0 0.0799974 0)
(0 0.0799975 0)
(0 0.0799981 0)
(0 0.0799976 0)
(0 0.0799982 0)
(0 0.0799977 0)
(0 0.0799983 0)
(0 0.0799979 0)
(0 0.0799953 0)
(0 0.0799977 0)
(0 0.0298819 0)
(0 0.043007 0)
(0 0.0443346 0)
(0 0.0798908 0)
(0 0.0798964 0)
(0 0.0736705 0)
(0 0.0799958 0)
(0 0.0165677 0)
(0 0.0799984 0)
(0 0.079998 0)
(0 0.0799985 0)
(0 0.079998 0)
(0 0.0799986 0)
(0 0.0799981 0)
(0 0.0799974 0)
(0 0.0640847 0)
(0 0.0728465 0)
(0 0.0668353 0)
(0 0.07518 0)
(0 0.0799981 0)
(0 0.07352 0)
(0 0.0455119 0)
(0 0.0467919 0)
(0 0.0325977 0)
(0 0.0291439 0)
(0 0.0799987 0)
(0 0.0799982 0)
(0 0.079997 0)
(0 0.0799966 0)
(0 0.0170912 0)
(0 0.0195699 0)
(0 0.0799984 0)
(0 0.0799981 0)
(0 0.0799983 0)
(0 0.0479011 0)
(0 0.0491635 0)
(0 0.050173 0)
(0 0.0514061 0)
(0 0.0523253 0)
(0 0.053535 0)
(0 0.0543549 0)
(0 0.0555306 0)
(0 0.0562652 0)
(0 0.0573866 0)
(0 0.0580718 0)
(0 0.0566564 0)
(0 0.0503744 0)
(0 0.0591365 0)
(0 0.0597689 0)
(0 0.0173761 0)
(0 0.0799401 0)
(0 0.0799562 0)
(0 0.0682791 0)
(0 0.0693073 0)
(0 0.0687403 0)
(0 0.0697455 0)
(0 0.0691705 0)
(0 0.068122 0)
(0 0.0685665 0)
(0 0.0695687 0)
(0 0.068994 0)
(0 0.0679194 0)
(0 0.0683641 0)
(0 0.0694093 0)
(0 0.0687893 0)
(0 0.0698 0)
(0 0.0691906 0)
(0 0.0681245 0)
(0 0.0685339 0)
(0 0.0695738 0)
(0 0.0689265 0)
(0 0.069939 0)
(0 0.069308 0)
(0 0.068252 0)
(0 0.0686431 0)
(0 0.0696439 0)
(0 0.0689648 0)
(0 0.0677786 0)
(0 0.068287 0)
(0 0.0692727 0)
(0 0.0686334 0)
(0 0.067614 0)
(0 0.0679606 0)
(0 0.0690528 0)
(0 0.0682843 0)
(0 0.0672194 0)
(0 0.067537 0)
(0 0.0686734 0)
(0 0.0678359 0)
(0 0.0665626 0)
(0 0.0670527 0)
(0 0.0681295 0)
(0 0.0673666 0)
(0 0.0662133 0)
(0 0.0665259 0)
(0 0.0676623 0)
(0 0.0668451 0)
(0 0.0656017 0)
(0 0.0659526 0)
(0 0.0671406 0)
(0 0.0662543 0)
(0 0.0650096 0)
(0 0.0653054 0)
(0 0.0665147 0)
(0 0.0655607 0)
(0 0.0747268 0)
(0 0.0217482 0)
(0 0.0231195 0)
(0 0.0730413 0)
(0 0.0724376 0)
(0 0.0387301 0)
(0 0.0420854 0)
(0 0.0386664 0)
(0 0.0419975 0)
(0 0.0385451 0)
(0 0.0418506 0)
(0 0.0384285 0)
(0 0.0420654 0)
(0 0.0382871 0)
(0 0.041263 0)
(0 0.0359222 0)
(0 0.0395066 0)
(0 0.0372099 0)
(0 0.0407097 0)
(0 0.0384759 0)
(0 0.0348178 0)
(0 0.0361361 0)
(0 0.0396949 0)
(0 0.0373967 0)
(0 0.079803 0)
(0 0.0797664 0)
(0 0.0797717 0)
(0 0.0798343 0)
(0 0.0379968 0)
(0 0.0798713 0)
(0 0.0798772 0)
(0 0.0798648 0)
(0 0.0799987 0)
(0 0.0799983 0)
(0 0.0799977 0)
(0 0.0799978 0)
(0 0.0799984 0)
(0 0.0799979 0)
(0 0.0799985 0)
(0 0.079998 0)
(0 0.0799986 0)
(0 0.0799981 0)
(0 0.0799986 0)
(0 0.0799982 0)
(0 0.0799987 0)
(0 0.0799983 0)
(0 0.0799976 0)
(0 0.0799977 0)
(0 0.0799984 0)
(0 0.0799979 0)
(0 0.0799985 0)
(0 0.079998 0)
(0 0.0799986 0)
(0 0.0799981 0)
(0 0.0799987 0)
(0 0.0799982 0)
(0 0.0799971 0)
(0 0.0408563 0)
(0 0.0385912 0)
(0 0.0349704 0)
(0 0.036214 0)
(0 0.0397627 0)
(0 0.0374398 0)
(0 0.0607711 0)
(0 0.0613377 0)
(0 0.060396 0)
(0 0.0618607 0)
(0 0.0609068 0)
(0 0.0623257 0)
(0 0.0612765 0)
(0 0.0627052 0)
(0 0.0616213 0)
(0 0.062996 0)
(0 0.0618895 0)
(0 0.0631993 0)
(0 0.06209 0)
(0 0.0633202 0)
(0 0.0622367 0)
(0 0.0635103 0)
(0 0.0667332 0)
(0 0.0657824 0)
(0 0.0645492 0)
(0 0.0337115 0)
(0 0.0350019 0)
(0 0.038625 0)
(0 0.036243 0)
(0 0.0409801 0)
(0 0.0439469 0)
(0 0.0174175 0)
(0 0.0198567 0)
(0 0.0431458 0)
(0 0.0799986 0)
(0 0.0797231 0)
(0 0.0797263 0)
(0 0.0799987 0)
(0 0.0397565 0)
(0 0.0374324 0)
(0 0.0337786 0)
(0 0.0350486 0)
(0 0.0385687 0)
(0 0.0362358 0)
(0 0.0799975 0)
(0 0.0799976 0)
(0 0.0799983 0)
(0 0.0799978 0)
(0 0.0799984 0)
(0 0.0799979 0)
(0 0.0799985 0)
(0 0.079998 0)
(0 0.0799986 0)
(0 0.0799981 0)
(0 0.0799987 0)
(0 0.0799983 0)
(0 0.0396194 0)
(0 0.0373025 0)
(0 0.0337997 0)
(0 0.0348995 0)
(0 0.0382958 0)
(0 0.0359002 0)
(0 0.0323741 0)
(0 0.0334791 0)
(0 0.0368416 0)
(0 0.0345472 0)
(0 0.0797945 0)
(0 0.0798253 0)
(0 0.0318203 0)
(0 0.0283756 0)
(0 0.01471 0)
(0 0.0799987 0)
(0 0.0799529 0)
(0 0.0799663 0)
(0 0.0799691 0)
(0 0.0799771 0)
(0 0.0799802 0)
(0 0.0799741 0)
(0 0.0799827 0)
(0 0.0799798 0)
(0 0.0799867 0)
(0 0.030941 0)
(0 0.0320879 0)
(0 0.0355796 0)
(0 0.0331573 0)
(0 0.0799012 0)
(0 0.0798827 0)
(0 0.0799049 0)
(0 0.0798875 0)
(0 0.0799988 0)
(0 0.0799988 0)
(0 0.0799984 0)
(0 0.0799977 0)
(0 0.0799978 0)
(0 0.0799985 0)
(0 0.079998 0)
(0 0.0799986 0)
(0 0.0799981 0)
(0 0.0799987 0)
(0 0.0799982 0)
(0 0.0365169 0)
(0 0.0341327 0)
(0 0.0306371 0)
(0 0.0316623 0)
(0 0.0350241 0)
(0 0.0325849 0)
(0 0.0358386 0)
(0 0.0334153 0)
(0 0.0300583 0)
(0 0.0309167 0)
(0 0.0341589 0)
(0 0.0316797 0)
(0 0.0348013 0)
(0 0.0323379 0)
(0 0.0291501 0)
(0 0.0298243 0)
(0 0.0328849 0)
(0 0.0303806 0)
(0 0.0272907 0)
(0 0.0278334 0)
(0 0.0797833 0)
(0 0.0333107 0)
(0 0.0623501 0)
(0 0.0798137 0)
(0 0.0799085 0)
(0 0.0798916 0)
(0 0.0799115 0)
(0 0.0798958 0)
(0 0.0799142 0)
(0 0.0798989 0)
(0 0.0799168 0)
(0 0.079901 0)
(0 0.0799187 0)
(0 0.079903 0)
(0 0.07992 0)
(0 0.0799049 0)
(0 0.0799216 0)
(0 0.0799068 0)
(0 0.0798879 0)
(0 0.0798902 0)
(0 0.0799085 0)
(0 0.0798924 0)
(0 0.07991 0)
(0 0.0798947 0)
(0 0.0799116 0)
(0 0.0798965 0)
(0 0.079913 0)
(0 0.0798976 0)
(0 0.079914 0)
(0 0.0798988 0)
(0 0.079915 0)
(0 0.0799 0)
(0 0.0799159 0)
(0 0.0799011 0)
(0 0.0799166 0)
(0 0.0799023 0)
(0 0.0799172 0)
(0 0.0799028 0)
(0 0.0799177 0)
(0 0.0799033 0)
(0 0.0799183 0)
(0 0.079904 0)
(0 0.0799187 0)
(0 0.079904 0)
(0 0.0799187 0)
(0 0.0799041 0)
(0 0.0799187 0)
(0 0.0799042 0)
(0 0.0799188 0)
(0 0.0799043 0)
(0 0.0798878 0)
(0 0.079888 0)
(0 0.0799045 0)
(0 0.0798884 0)
(0 0.0799047 0)
(0 0.0798889 0)
(0 0.0799048 0)
(0 0.0798891 0)
(0 0.0799047 0)
(0 0.0798888 0)
(0 0.0799046 0)
(0 0.0798886 0)
(0 0.0799045 0)
(0 0.0798885 0)
(0 0.0799043 0)
(0 0.0798883 0)
(0 0.079904 0)
(0 0.0798884 0)
(0 0.0799036 0)
(0 0.0798878 0)
(0 0.0799033 0)
(0 0.0798872 0)
(0 0.0799028 0)
(0 0.0798867 0)
(0 0.0799021 0)
(0 0.0798856 0)
(0 0.0798677 0)
(0 0.0799013 0)
(0 0.0798845 0)
(0 0.0799004 0)
(0 0.0798834 0)
(0 0.0798994 0)
(0 0.0798827 0)
(0 0.0798645 0)
(0 0.0798634 0)
(0 0.0798819 0)
(0 0.0798624 0)
(0 0.0798804 0)
(0 0.0798615 0)
(0 0.079879 0)
(0 0.0798604 0)
(0 0.0798768 0)
(0 0.0798584 0)
(0 0.0798746 0)
(0 0.0798565 0)
(0 0.0798735 0)
(0 0.0798551 0)
(0 0.0798726 0)
(0 0.0798528 0)
(0 0.0798714 0)
(0 0.0798503 0)
(0 0.0798695 0)
(0 0.0798478 0)
(0 0.0798347 0)
(0 0.079871 0)
(0 0.0798846 0)
(0 0.0798667 0)
(0 0.079845 0)
(0 0.0798641 0)
(0 0.079842 0)
(0 0.0798205 0)
(0 0.0798171 0)
(0 0.0798389 0)
(0 0.0798137 0)
(0 0.0798356 0)
(0 0.0798098 0)
(0 0.0798317 0)
(0 0.0798053 0)
(0 0.0798278 0)
(0 0.0798744 0)
(0 0.0622975 0)
(0 0.061729 0)
(0 0.0799971 0)
(0 0.0798806 0)
(0 0.0799894 0)
(0 0.0799972 0)
(0 0.0348391 0)
(0 0.0350764 0)
(0 0.0669082 0)
(0 0.0798693 0)
(0 0.0799969 0)
(0 0.0175511 0)
(0 0.0199527 0)
(0 0.0799989 0)
(0 0.024704 0)
(0 0.0252449 0)
(0 0.0437313 0)
(0 0.046541 0)
(0 0.0406476 0)
(0 0.079793 0)
(0 0.0200862 0)
(0 0.021331 0)
(0 0.0798007 0)
(0 0.0798239 0)
(0 0.0799988 0)
(0 0.0799983 0)
(0 0.0798688 0)
(0 0.0799836 0)
(0 0.0799882 0)
(0 0.064317 0)
(0 0.0798421 0)
(0 0.0798338 0)
(0 0.0799987 0)
(0 0.0798434 0)
(0 0.0799977 0)
(0 0.0799978 0)
(0 0.0799984 0)
(0 0.0799979 0)
(0 0.0799986 0)
(0 0.0799981 0)
(0 0.0799987 0)
(0 0.0799982 0)
(0 0.0309956 0)
(0 0.0275629 0)
(0 0.0637171 0)
(0 0.0796735 0)
(0 0.0796729 0)
(0 0.0799988 0)
(0 0.0799983 0)
(0 0.0799988 0)
(0 0.0799984 0)
(0 0.0799977 0)
(0 0.0799979 0)
(0 0.0799986 0)
(0 0.0799981 0)
(0 0.07983 0)
(0 0.0659601 0)
(0 0.0798944 0)
(0 0.0797689 0)
(0 0.0677777 0)
(0 0.079984 0)
(0 0.0799897 0)
(0 0.0799917 0)
(0 0.0799936 0)
(0 0.079992 0)
(0 0.0799952 0)
(0 0.0799938 0)
(0 0.0799965 0)
(0 0.079995 0)
(0 0.0799969 0)
(0 0.0799958 0)
(0 0.0799974 0)
(0 0.0799964 0)
(0 0.0723534 0)
(0 0.0717294 0)
(0 0.0717838 0)
(0 0.0710336 0)
(0 0.0710705 0)
(0 0.079999 0)
(0 0.0220282 0)
(0 0.017479 0)
(0 0.0488593 0)
(0 0.0597202 0)
(0 0.0799988 0)
(0 0.0799982 0)
(0 0.0799987 0)
(0 0.0799983 0)
(0 0.0799975 0)