/*--------------------------------*- C++ -*----------------------------------*\
| =========                 |                                                 |
| \\      /  F ield         | OpenFOAM: The Open Source CFD Toolbox           |
|  \\    /   O peration     | Version:  v2012                                 |
|   \\  /    A nd           | Website:  www.openfoam.com                      |
|    \\/     M anipulation  |                                                 |
\*---------------------------------------------------------------------------*/
FoamFile
{
    version     2.0;
    format      ascii;
    class       volVectorField;
    location    "300";
    object      cellDisplacement;
}
// * * * * * * * * * * * * * * * * * * * * * * * * * * * * * * * * * * * * * //

dimensions      [0 1 0 0 0 0 0];


internalField   nonuniform List<vector> 
13917
(
(0 -1.52766e-05 0)
(0 -6.9593e-05 0)
(0 -8.86112e-06 0)
(0 -4.68545e-05 0)
(0 -6.96939e-05 0)
(0 -8.94843e-06 0)
(0 -8.85124e-06 0)
(0 -8.86318e-06 0)
(0 -8.85753e-06 0)
(0 -1.16179e-05 0)
(0 -9.56403e-06 0)
(0 -1.17811e-05 0)
(0 -4.44289e-05 0)
(0 -8.81576e-06 0)
(0 -2.17815e-05 0)
(0 -2.5442e-05 0)
(0 -6.08703e-05 0)
(0 -1.24367e-05 0)
(0 -1.19345e-05 0)
(0 -0.000105521 0)
(0 -2.13344e-05 0)
(0 -8.84749e-06 0)
(0 -0.000114768 0)
(0 -8.87191e-06 0)
(0 -8.60739e-05 0)
(0 -8.85458e-06 0)
(0 -1.0173e-05 0)
(0 -9.65626e-06 0)
(0 -9.07437e-06 0)
(0 -1.03255e-05 0)
(0 -1.47384e-05 0)
(0 -2.37894e-05 0)
(0 -1.13535e-05 0)
(0 -1.79644e-05 0)
(0 -7.86244e-05 0)
(0 -9.07076e-06 0)
(0 -0.000111055 0)
(0 -8.82065e-06 0)
(0 -3.2171e-05 0)
(0 -8.82148e-06 0)
(0 -4.71869e-05 0)
(0 -1.09002e-05 0)
(0 -0.000177982 0)
(0 -9.34374e-06 0)
(0 -8.97045e-05 0)
(0 -1.55232e-05 0)
(0 -1.26082e-05 0)
(0 -1.14959e-05 0)
(0 -8.82321e-06 0)
(0 -5.13675e-05 0)
(0 -2.78891e-05 0)
(0 -3.88165e-05 0)
(0 -8.81894e-06 0)
(0 -1.72316e-05 0)
(0 -5.88325e-05 0)
(0 -2.67186e-05 0)
(0 -9.62454e-06 0)
(0 -6.99846e-05 0)
(0 -3.38153e-05 0)
(0 -9.28022e-05 0)
(0 -8.94279e-06 0)
(0 -6.95702e-05 0)
(0 -8.81569e-06 0)
(0 -0.000108773 0)
(0 -8.96349e-06 0)
(0 -8.89666e-06 0)
(0 -6.29499e-05 0)
(0 -5.94837e-05 0)
(0 -9.57816e-06 0)
(0 -1.61659e-05 0)
(0 -7.09068e-05 0)
(0 -8.86419e-06 0)
(0 -8.8183e-06 0)
(0 -8.89457e-05 0)
(0 -8.82994e-06 0)
(0 -1.11128e-05 0)
(0 -8.81662e-06 0)
(0 -5.98273e-05 0)
(0 -8.87198e-06 0)
(0 -3.2667e-05 0)
(0 -4.00442e-05 0)
(0 -6.26969e-05 0)
(0 -8.97917e-06 0)
(0 -8.82258e-06 0)
(0 -8.96632e-06 0)
(0 -6.26272e-05 0)
(0 -6.87394e-05 0)
(0 -8.90507e-06 0)
(0 -2.90285e-05 0)
(0 -0.000179144 0)
(0 -8.82029e-06 0)
(0 -1.07014e-05 0)
(0 -0.000114052 0)
(0 -3.18733e-05 0)
(0 -8.896e-06 0)
(0 -8.98278e-06 0)
(0 -1.00249e-05 0)
(0 -1.1791e-05 0)
(0 -9.80567e-06 0)
(0 -9.17085e-06 0)
(0 -0.000182415 0)
(0 -1.16705e-05 0)
(0 -9.32771e-06 0)
(0 -5.19534e-05 0)
(0 -0.000161388 0)
(0 -8.86579e-06 0)
(0 -9.08905e-06 0)
(0 -1.12878e-05 0)
(0 -6.07409e-05 0)
(0 -1.4034e-05 0)
(0 -8.8304e-06 0)
(0 -8.83067e-06 0)
(0 -1.07441e-05 0)
(0 -8.86073e-06 0)
(0 -2.8838e-05 0)
(0 -8.84155e-06 0)
(0 -0.000123993 0)
(0 -8.85541e-06 0)
(0 -8.81694e-06 0)
(0 -1.77128e-05 0)
(0 -1.78011e-05 0)
(0 -9.6274e-06 0)
(0 -8.82711e-06 0)
(0 -9.74533e-06 0)
(0 -4.26233e-05 0)
(0 -3.31798e-05 0)
(0 -9.07343e-05 0)
(0 -3.55963e-05 0)
(0 -0.000152756 0)
(0 -8.95787e-06 0)
(0 -8.82205e-06 0)
(0 -2.98829e-05 0)
(0 -8.68726e-05 0)
(0 -1.85833e-05 0)
(0 -9.02344e-06 0)
(0 -8.87494e-06 0)
(0 -1.51455e-05 0)
(0 -9.13794e-06 0)
(0 -6.2954e-05 0)
(0 -1.78059e-05 0)
(0 -9.12602e-06 0)
(0 -0.000150051 0)
(0 -3.48035e-05 0)
(0 -9.2422e-06 0)
(0 -5.8549e-05 0)
(0 -8.89136e-06 0)
(0 -9.04986e-06 0)
(0 -4.05985e-05 0)
(0 -0.000158536 0)
(0 -2.23899e-05 0)
(0 -1.25667e-05 0)
(0 -8.86133e-06 0)
(0 -1.07541e-05 0)
(0 -1.33273e-05 0)
(0 -2.56954e-05 0)
(0 -8.83746e-06 0)
(0 -1.66977e-05 0)
(0 -9.02184e-06 0)
(0 -8.8162e-06 0)
(0 -9.02107e-06 0)
(0 -2.36479e-05 0)
(0 -1.02711e-05 0)
(0 -2.97187e-05 0)
(0 -1.01032e-05 0)
(0 -1.08711e-05 0)
(0 -9.87452e-06 0)
(0 -5.2842e-05 0)
(0 -1.22695e-05 0)
(0 -0.000108895 0)
(0 -1.13952e-05 0)
(0 -1.37804e-05 0)
(0 -8.81681e-06 0)
(0 -1.05469e-05 0)
(0 -4.95668e-05 0)
(0 -8.91752e-06 0)
(0 -1.19742e-05 0)
(0 -8.82301e-06 0)
(0 -8.83928e-06 0)
(0 -8.90043e-06 0)
(0 -0.000104842 0)
(0 -1.05724e-05 0)
(0 -1.43368e-05 0)
(0 -0.000150662 0)
(0 -7.13949e-05 0)
(0 -1.57076e-05 0)
(0 -8.86354e-06 0)
(0 -9.33421e-06 0)
(0 -8.84521e-06 0)
(0 -1.64475e-05 0)
(0 -9.89851e-06 0)
(0 -9.11022e-06 0)
(0 -8.9653e-06 0)
(0 -9.37936e-06 0)
(0 -9.81366e-05 0)
(0 -9.1264e-06 0)
(0 -1.03666e-05 0)
(0 -1.99917e-05 0)
(0 -0.00011116 0)
(0 -9.14825e-06 0)
(0 -8.90137e-06 0)
(0 -2.97448e-05 0)
(0 -4.94589e-05 0)
(0 -1.27769e-05 0)
(0 -1.27384e-05 0)
(0 -8.81773e-06 0)
(0 -9.06262e-06 0)
(0 -7.9463e-05 0)
(0 -6.66926e-05 0)
(0 -1.19293e-05 0)
(0 -8.86551e-06 0)
(0 -3.61931e-05 0)
(0 -8.84869e-06 0)
(0 -8.81736e-06 0)
(0 -9.9466e-06 0)
(0 -0.000160494 0)
(0 -9.10029e-06 0)
(0 -1.25736e-05 0)
(0 -8.84098e-06 0)
(0 -0.000117878 0)
(0 -8.96015e-06 0)
(0 -0.000108009 0)
(0 -1.04916e-05 0)
(0 -5.54803e-05 0)
(0 -8.83113e-06 0)
(0 -8.86389e-06 0)
(0 -2.44435e-05 0)
(0 -8.93435e-06 0)
(0 -2.47971e-05 0)
(0 -0.000163439 0)
(0 -9.09099e-06 0)
(0 -1.065e-05 0)
(0 -1.66948e-05 0)
(0 -8.87525e-06 0)
(0 -8.81702e-06 0)
(0 -0.000154058 0)
(0 -2.2891e-05 0)
(0 -8.82206e-06 0)
(0 -8.95805e-06 0)
(0 -3.27927e-05 0)
(0 -0.000155872 0)
(0 -8.82198e-06 0)
(0 -9.84394e-06 0)
(0 -1.16833e-05 0)
(0 -9.17488e-06 0)
(0 -1.04296e-05 0)
(0 -1.04229e-05 0)
(0 -1.64517e-05 0)
(0 -3.13436e-05 0)
(0 -1.1561e-05 0)
(0 -8.81696e-06 0)
(0 -0.000115315 0)
(0 -1.01101e-05 0)
(0 -9.12267e-06 0)
(0 -9.343e-05 0)
(0 -7.16072e-05 0)
(0 -1.15594e-05 0)
(0 -8.82796e-06 0)
(0 -1.09097e-05 0)
(0 -1.52578e-05 0)
(0 -2.16595e-05 0)
(0 -1.89071e-05 0)
(0 -8.82774e-06 0)
(0 -8.89436e-06 0)
(0 -9.14397e-06 0)
(0 -0.000162745 0)
(0 -8.81793e-06 0)
(0 -8.82102e-06 0)
(0 -8.99477e-06 0)
(0 -8.87054e-06 0)
(0 -1.09479e-05 0)
(0 -3.80677e-05 0)
(0 -4.87299e-05 0)
(0 -1.25823e-05 0)
(0 -8.84527e-06 0)
(0 -1.01202e-05 0)
(0 -3.54722e-05 0)
(0 -9.03821e-06 0)
(0 -1.44218e-05 0)
(0 -0.000124963 0)
(0 -8.92917e-06 0)
(0 -0.00011496 0)
(0 -8.90953e-06 0)
(0 -3.14967e-05 0)
(0 -1.21147e-05 0)
(0 -2.10032e-05 0)
(0 -1.3008e-05 0)
(0 -1.02473e-05 0)
(0 -9.14669e-06 0)
(0 -1.57667e-05 0)
(0 -0.000105383 0)
(0 -9.12431e-06 0)
(0 -8.87708e-06 0)
(0 -8.88193e-06 0)
(0 -0.000119038 0)
(0 -8.98174e-06 0)
(0 -5.57291e-05 0)
(0 -0.000105809 0)
(0 -0.000125051 0)
(0 -9.03243e-06 0)
(0 -5.50363e-05 0)
(0 -1.03431e-05 0)
(0 -1.69346e-05 0)
(0 -0.000112857 0)
(0 -1.25962e-05 0)
(0 -4.61747e-05 0)
(0 -8.82478e-06 0)
(0 -1.23102e-05 0)
(0 -1.09098e-05 0)
(0 -0.000134989 0)
(0 -7.47428e-05 0)
(0 -8.82352e-06 0)
(0 -8.82197e-06 0)
(0 -0.000123647 0)
(0 -5.47165e-05 0)
(0 -8.9391e-06 0)
(0 -0.000114036 0)
(0 -8.81906e-06 0)
(0 -0.000138156 0)
(0 -8.8332e-06 0)
(0 -7.75408e-05 0)
(0 -9.16986e-06 0)
(0 -1.88391e-05 0)
(0 -8.85459e-06 0)
(0 -2.47138e-05 0)
(0 -9.04295e-06 0)
(0 -9.08832e-06 0)
(0 -2.1736e-05 0)
(0 -9.86144e-06 0)
(0 -9.04205e-06 0)
(0 -5.27092e-05 0)
(0 -8.82241e-06 0)
(0 -9.14474e-06 0)
(0 -8.82169e-06 0)
(0 -2.07075e-05 0)
(0 -8.82301e-06 0)
(0 -2.19471e-05 0)
(0 -8.83083e-06 0)
(0 -9.09879e-06 0)
(0 -9.41643e-06 0)
(0 -9.46949e-06 0)
(0 -8.85239e-06 0)
(0 -4.37988e-05 0)
(0 -1.34586e-05 0)
(0 -8.83046e-06 0)
(0 -4.98397e-05 0)
(0 -3.44789e-05 0)
(0 -8.81628e-06 0)
(0 -9.11422e-06 0)
(0 -5.41086e-05 0)
(0 -9.14901e-06 0)
(0 -9.08929e-06 0)
(0 -0.000169483 0)
(0 -8.81616e-06 0)
(0 -9.09237e-06 0)
(0 -0.000117936 0)
(0 -0.00015505 0)
(0 -5.43539e-05 0)
(0 -0.0001593 0)
(0 -9.14851e-06 0)
(0 -8.90762e-06 0)
(0 -9.1746e-06 0)
(0 -8.82512e-06 0)
(0 -0.000103597 0)
(0 -9.98133e-06 0)
(0 -8.81688e-06 0)
(0 -1.46164e-05 0)
(0 -8.8458e-06 0)
(0 -8.84348e-06 0)
(0 -8.85953e-06 0)
(0 -0.000189361 0)
(0 -9.17894e-06 0)
(0 -0.0001602 0)
(0 -8.9688e-06 0)
(0 -9.2947e-05 0)
(0 -8.86211e-06 0)
(0 -1.03669e-05 0)
(0 -3.78714e-05 0)
(0 -5.30718e-05 0)
(0 -1.21617e-05 0)
(0 -1.04072e-05 0)
(0 -1.10516e-05 0)
(0 -9.10911e-06 0)
(0 -8.82646e-06 0)
(0 -8.84506e-06 0)
(0 -1.13108e-05 0)
(0 -1.19021e-05 0)
(0 -0.000156918 0)
(0 -8.95924e-06 0)
(0 -8.84654e-06 0)
(0 -7.07336e-05 0)
(0 -9.07365e-06 0)
(0 -9.21408e-05 0)
(0 -9.21312e-06 0)
(0 -7.92324e-05 0)
(0 -3.93551e-05 0)
(0 -4.53161e-05 0)
(0 -8.85398e-06 0)
(0 -4.54424e-05 0)
(0 -8.82864e-06 0)
(0 -8.82705e-06 0)
(0 -9.69486e-06 0)
(0 -9.04671e-06 0)
(0 -5.48644e-05 0)
(0 -9.0939e-06 0)
(0 -9.0677e-06 0)
(0 -0.00012687 0)
(0 -9.11212e-06 0)
(0 -5.17969e-05 0)
(0 -8.70837e-05 0)
(0 -1.03713e-05 0)
(0 -2.67552e-05 0)
(0 -8.23427e-05 0)
(0 -0.000162143 0)
(0 -9.19204e-06 0)
(0 -2.82737e-05 0)
(0 -8.82224e-06 0)
(0 -8.88282e-06 0)
(0 -8.81962e-06 0)
(0 -9.40068e-06 0)
(0 -8.86999e-06 0)
(0 -8.82068e-06 0)
(0 -1.49905e-05 0)
(0 -0.000107663 0)
(0 -9.59057e-06 0)
(0 -3.35248e-05 0)
(0 -2.09569e-05 0)
(0 -0.000101775 0)
(0 -8.89626e-06 0)
(0 -8.85593e-06 0)
(0 -8.89411e-06 0)
(0 -2.46198e-05 0)
(0 -1.01864e-05 0)
(0 -2.1528e-05 0)
(0 -3.06688e-05 0)
(0 -1.11574e-05 0)
(0 -4.50859e-05 0)
(0 -9.1646e-06 0)
(0 -6.28143e-05 0)
(0 -6.47961e-05 0)
(0 -8.82037e-06 0)
(0 -8.82189e-06 0)
(0 -8.82319e-06 0)
(0 -9.89591e-06 0)
(0 -8.81903e-06 0)
(0 -8.82342e-06 0)
(0 -8.82884e-06 0)
(0 -8.82718e-06 0)
(0 -0.000154669 0)
(0 -1.21807e-05 0)
(0 -4.58809e-05 0)
(0 -6.18753e-05 0)
(0 -9.08253e-06 0)
(0 -1.24335e-05 0)
(0 -5.55349e-05 0)
(0 -1.18059e-05 0)
(0 -1.53986e-05 0)
(0 -8.84824e-06 0)
(0 -0.00012854 0)
(0 -1.01554e-05 0)
(0 -8.83505e-06 0)
(0 -9.06992e-06 0)
(0 -8.82247e-06 0)
(0 -2.6475e-05 0)
(0 -6.81591e-05 0)
(0 -3.61798e-05 0)
(0 -1.67219e-05 0)
(0 -0.000188136 0)
(0 -8.87737e-06 0)
(0 -9.14747e-06 0)
(0 -1.64672e-05 0)
(0 -8.91303e-06 0)
(0 -2.72273e-05 0)
(0 -1.00583e-05 0)
(0 -8.83114e-06 0)
(0 -9.05151e-06 0)
(0 -9.74171e-06 0)
(0 -9.10096e-06 0)
(0 -1.00836e-05 0)
(0 -1.19246e-05 0)
(0 -9.66209e-06 0)
(0 -1.4973e-05 0)
(0 -9.5341e-06 0)
(0 -8.95737e-06 0)
(0 -1.37492e-05 0)
(0 -1.0972e-05 0)
(0 -7.14624e-05 0)
(0 -9.05059e-06 0)
(0 -2.63709e-05 0)
(0 -0.000160433 0)
(0 -1.72681e-05 0)
(0 -5.67441e-05 0)
(0 -8.84152e-06 0)
(0 -8.86389e-06 0)
(0 -0.000116578 0)
(0 -0.000106577 0)
(0 -8.87929e-06 0)
(0 -8.81738e-06 0)
(0 -2.16965e-05 0)
(0 -8.82208e-06 0)
(0 -6.40562e-05 0)
(0 -9.52308e-06 0)
(0 -0.000109141 0)
(0 -8.81639e-06 0)
(0 -9.03817e-06 0)
(0 -2.26072e-05 0)
(0 -6.96657e-05 0)
(0 -8.86826e-06 0)
(0 -9.40141e-06 0)
(0 -8.82866e-06 0)
(0 -2.35707e-05 0)
(0 -8.81726e-06 0)
(0 -8.83287e-06 0)
(0 -8.93399e-06 0)
(0 -0.000159143 0)
(0 -8.97181e-06 0)
(0 -8.8563e-06 0)
(0 -1.46977e-05 0)
(0 -0.000156658 0)
(0 -5.75876e-05 0)
(0 -1.10863e-05 0)
(0 -9.16506e-06 0)
(0 -6.72056e-05 0)
(0 -0.000155937 0)
(0 -0.000109309 0)
(0 -0.000113051 0)
(0 -8.81685e-06 0)
(0 -9.09102e-06 0)
(0 -1.50291e-05 0)
(0 -9.33401e-06 0)
(0 -3.65668e-05 0)
(0 -0.000179498 0)
(0 -1.02701e-05 0)
(0 -8.83927e-06 0)
(0 -1.82107e-05 0)
(0 -0.000105853 0)
(0 -8.69962e-05 0)
(0 -6.43253e-05 0)
(0 -8.92525e-06 0)
(0 -8.9607e-06 0)
(0 -7.86082e-05 0)
(0 -6.80568e-05 0)
(0 -9.18919e-06 0)
(0 -1.52028e-05 0)
(0 -1.89076e-05 0)
(0 -6.83979e-05 0)
(0 -4.40982e-05 0)
(0 -2.45997e-05 0)
(0 -1.10612e-05 0)
(0 -9.07319e-06 0)
(0 -9.30184e-06 0)
(0 -9.54974e-06 0)
(0 -1.04345e-05 0)
(0 -9.05118e-06 0)
(0 -1.09926e-05 0)
(0 -0.000118265 0)
(0 -8.81693e-06 0)
(0 -6.4456e-05 0)
(0 -3.26929e-05 0)
(0 -4.14213e-05 0)
(0 -9.05721e-06 0)
(0 -9.94973e-06 0)
(0 -7.28879e-05 0)
(0 -9.09645e-06 0)
(0 -1.00987e-05 0)
(0 -8.85076e-06 0)
(0 -1.04347e-05 0)
(0 -1.20596e-05 0)
(0 -1.48644e-05 0)
(0 -5.8004e-05 0)
(0 -8.87372e-06 0)
(0 -9.14978e-06 0)
(0 -8.83515e-06 0)
(0 -6.53432e-05 0)
(0 -2.17686e-05 0)
(0 -9.29531e-06 0)
(0 -8.84166e-06 0)
(0 -8.81569e-06 0)
(0 -1.15628e-05 0)
(0 -9.78118e-06 0)
(0 -2.55125e-05 0)
(0 -3.76015e-05 0)
(0 -6.57997e-05 0)
(0 -1.01724e-05 0)
(0 -9.27362e-06 0)
(0 -4.31574e-05 0)
(0 -1.27317e-05 0)
(0 -9.11823e-06 0)
(0 -8.83689e-06 0)
(0 -8.85106e-06 0)
(0 -3.58444e-05 0)
(0 -1.01239e-05 0)
(0 -9.06494e-06 0)
(0 -1.9871e-05 0)
(0 -3.804e-05 0)
(0 -9.16585e-06 0)
(0 -8.89493e-06 0)
(0 -8.88549e-06 0)
(0 -9.34185e-06 0)
(0 -0.000162009 0)
(0 -8.81638e-06 0)
(0 -1.11934e-05 0)
(0 -5.50659e-05 0)
(0 -1.92814e-05 0)
(0 -1.11779e-05 0)
(0 -1.16927e-05 0)
(0 -1.04197e-05 0)
(0 -8.86729e-06 0)
(0 -9.73041e-06 0)
(0 -1.62327e-05 0)
(0 -8.87414e-06 0)
(0 -5.09992e-05 0)
(0 -8.8197e-06 0)
(0 -3.06809e-05 0)
(0 -8.13358e-05 0)
(0 -8.97204e-06 0)
(0 -8.88921e-06 0)
(0 -8.99387e-06 0)
(0 -5.08642e-05 0)
(0 -5.17042e-05 0)
(0 -7.02827e-05 0)
(0 -1.42984e-05 0)
(0 -8.82053e-06 0)
(0 -9.97264e-06 0)
(0 -3.60511e-05 0)
(0 -9.84075e-06 0)
(0 -1.23068e-05 0)
(0 -0.000105737 0)
(0 -8.93996e-06 0)
(0 -1.0032e-05 0)
(0 -9.17136e-06 0)
(0 -0.000119347 0)
(0 -9.78432e-06 0)
(0 -5.73507e-05 0)
(0 -8.83237e-06 0)
(0 -1.14943e-05 0)
(0 -1.00509e-05 0)
(0 -2.1172e-05 0)
(0 -0.000122259 0)
(0 -0.000169622 0)
(0 -8.77193e-05 0)
(0 -9.4794e-06 0)
(0 -1.53317e-05 0)
(0 -9.22722e-06 0)
(0 -9.11251e-06 0)
(0 -1.2415e-05 0)
(0 -0.000166927 0)
(0 -9.70795e-06 0)
(0 -9.00755e-06 0)
(0 -9.04924e-06 0)
(0 -0.000119143 0)
(0 -1.64838e-05 0)
(0 -0.000153586 0)
(0 -2.19194e-05 0)
(0 -3.23165e-05 0)
(0 -8.85367e-06 0)
(0 -3.63419e-05 0)
(0 -8.90738e-06 0)
(0 -2.29103e-05 0)
(0 -9.56209e-06 0)
(0 -1.06811e-05 0)
(0 -8.81762e-06 0)
(0 -1.0111e-05 0)
(0 -5.98045e-05 0)
(0 -8.83369e-06 0)
(0 -8.81574e-06 0)
(0 -7.76983e-05 0)
(0 -4.24146e-05 0)
(0 -9.04008e-06 0)
(0 -9.40926e-06 0)
(0 -1.01954e-05 0)
(0 -3.22107e-05 0)
(0 -6.86305e-05 0)
(0 -9.23176e-06 0)
(0 -3.61042e-05 0)
(0 -1.11345e-05 0)
(0 -1.18109e-05 0)
(0 -0.000165692 0)
(0 -1.27675e-05 0)
(0 -8.86262e-06 0)
(0 -0.000118701 0)
(0 -5.8162e-05 0)
(0 -0.000114009 0)
(0 -8.827e-06 0)
(0 -2.38267e-05 0)
(0 -2.58325e-05 0)
(0 -8.81657e-06 0)
(0 -3.44519e-05 0)
(0 -8.89797e-06 0)
(0 -2.53416e-05 0)
(0 -1.10899e-05 0)
(0 -0.000117022 0)
(0 -1.15154e-05 0)
(0 -0.000123577 0)
(0 -1.20799e-05 0)
(0 -8.57126e-05 0)
(0 -1.02324e-05 0)
(0 -6.52977e-05 0)
(0 -8.8449e-06 0)
(0 -9.13124e-06 0)
(0 -8.8392e-06 0)
(0 -3.40014e-05 0)
(0 -4.91463e-05 0)
(0 -1.12338e-05 0)
(0 -1.35353e-05 0)
(0 -8.8188e-06 0)
(0 -8.84626e-06 0)
(0 -1.25095e-05 0)
(0 -8.24913e-05 0)
(0 -9.22375e-06 0)
(0 -8.96418e-06 0)
(0 -9.19523e-06 0)
(0 -9.27765e-06 0)
(0 -1.28894e-05 0)
(0 -8.87583e-06 0)
(0 -1.53598e-05 0)
(0 -1.47041e-05 0)
(0 -9.72287e-06 0)
(0 -9.18221e-06 0)
(0 -1.27654e-05 0)
(0 -8.98035e-06 0)
(0 -1.29301e-05 0)
(0 -4.93329e-05 0)
(0 -1.09967e-05 0)
(0 -2.14701e-05 0)
(0 -0.000146507 0)
(0 -2.26343e-05 0)
(0 -1.41459e-05 0)
(0 -2.31679e-05 0)
(0 -0.000116525 0)
(0 -3.89899e-05 0)
(0 -1.23699e-05 0)
(0 -5.18845e-05 0)
(0 -1.10257e-05 0)
(0 -8.4882e-05 0)
(0 -8.82118e-05 0)
(0 -2.09828e-05 0)
(0 -4.34909e-05 0)
(0 -0.000183157 0)
(0 -2.78277e-05 0)
(0 -0.000117309 0)
(0 -8.81629e-06 0)
(0 -1.19378e-05 0)
(0 -9.19498e-06 0)
(0 -0.000185162 0)
(0 -2.79953e-05 0)
(0 -1.00447e-05 0)
(0 -1.17232e-05 0)
(0 -3.13196e-05 0)
(0 -8.91394e-06 0)
(0 -1.07223e-05 0)
(0 -8.99157e-06 0)
(0 -2.23012e-05 0)
(0 -9.98684e-06 0)
(0 -7.6358e-05 0)
(0 -2.0611e-05 0)
(0 -0.000104237 0)
(0 -4.58001e-05 0)
(0 -8.81911e-06 0)
(0 -2.66133e-05 0)
(0 -9.01022e-06 0)
(0 -2.65875e-05 0)
(0 -8.81818e-06 0)
(0 -1.08738e-05 0)
(0 -1.06276e-05 0)
(0 -9.60998e-06 0)
(0 -0.000194202 0)
(0 -3.59681e-06 0)
(0 -1.17795e-05 0)
(0 -6.22907e-05 0)
(0 -4.35079e-05 0)
(0 -8.93447e-06 0)
(0 -4.78335e-05 0)
(0 -5.52499e-05 0)
(0 -2.41399e-05 0)
(0 -0.000161472 0)
(0 -9.85131e-05 0)
(0 -2.36842e-05 0)
(0 -1.35866e-05 0)
(0 -8.81893e-06 0)
(0 -1.73901e-05 0)
(0 -0.000117621 0)
(0 -5.67731e-05 0)
(0 -8.84106e-06 0)
(0 -9.42525e-06 0)
(0 -6.08982e-05 0)
(0 -6.73128e-05 0)
(0 -8.92649e-06 0)
(0 -9.04924e-06 0)
(0 -8.8185e-06 0)
(0 -1.23296e-05 0)
(0 -4.89931e-05 0)
(0 -0.000154112 0)
(0 -0.000111507 0)
(0 -1.36135e-05 0)
(0 -1.68459e-05 0)
(0 -9.21226e-06 0)
(0 -1.97762e-05 0)
(0 -8.82063e-06 0)
(0 -6.60365e-05 0)
(0 -2.75422e-05 0)
(0 -8.81654e-06 0)
(0 -9.08099e-05 0)
(0 -2.56356e-05 0)
(0 -8.67257e-05 0)
(0 -7.55984e-05 0)
(0 -1.43846e-05 0)
(0 -1.00841e-05 0)
(0 -6.76381e-05 0)
(0 -8.89001e-06 0)
(0 -8.84984e-06 0)
(0 -1.06073e-05 0)
(0 -0.000116865 0)
(0 -0.00018757 0)
(0 -9.98023e-06 0)
(0 -9.0199e-06 0)
(0 -3.16129e-05 0)
(0 -9.0819e-06 0)
(0 -0.000189797 0)
(0 -1.46137e-05 0)
(0 -0.000133879 0)
(0 -0.000141488 0)
(0 -9.1299e-06 0)
(0 -0.000105926 0)
(0 -8.99873e-06 0)
(0 -1.53632e-05 0)
(0 -2.34255e-05 0)
(0 -0.000195134 0)
(0 -5.14769e-05 0)
(0 -0.000125738 0)
(0 -6.12789e-05 0)
(0 -9.18763e-06 0)
(0 -0.000126623 0)
(0 -0.000145901 0)
(0 -8.85525e-06 0)
(0 -8.88007e-06 0)
(0 -1.57745e-05 0)
(0 -1.38731e-05 0)
(0 -1.13788e-05 0)
(0 -3.36887e-05 0)
(0 -0.000146385 0)
(0 -1.50144e-05 0)
(0 -8.81761e-06 0)
(0 -1.01319e-05 0)
(0 -7.83853e-05 0)
(0 -7.26922e-05 0)
(0 -8.84964e-06 0)
(0 -1.66287e-05 0)
(0 -8.82635e-06 0)
(0 -2.55028e-05 0)
(0 -3.0098e-05 0)
(0 -8.81764e-06 0)
(0 -1.82984e-05 0)
(0 -6.53934e-05 0)
(0 -8.93521e-06 0)
(0 -8.89846e-06 0)
(0 -0.00012792 0)
(0 -9.81929e-06 0)
(0 -0.000109224 0)
(0 -0.000108461 0)
(0 -0.00018705 0)
(0 -8.81837e-06 0)
(0 -0.000182096 0)
(0 -0.000108056 0)
(0 -0.000147217 0)
(0 -8.97198e-06 0)
(0 -3.58585e-05 0)
(0 -9.49134e-06 0)
(0 -9.53186e-06 0)
(0 -0.000140593 0)
(0 -1.17843e-05 0)
(0 -8.02299e-05 0)
(0 -8.82425e-06 0)
(0 -0.000143604 0)
(0 -0.000122947 0)
(0 -5.68169e-05 0)
(0 -9.91296e-06 0)
(0 -5.66921e-05 0)
(0 -9.71187e-06 0)
(0 -8.82675e-06 0)
(0 -8.8824e-06 0)
(0 -1.71912e-05 0)
(0 -9.10097e-06 0)
(0 -8.81673e-06 0)
(0 -7.72243e-05 0)
(0 -8.81603e-06 0)
(0 -8.93702e-06 0)
(0 -8.81742e-06 0)
(0 -8.86967e-06 0)
(0 -8.85381e-06 0)
(0 -8.86158e-06 0)
(0 -9.78338e-06 0)
(0 -5.7336e-05 0)
(0 -8.86725e-06 0)
(0 -1.86541e-05 0)
(0 -8.84195e-06 0)
(0 -0.00016165 0)
(0 -0.000115094 0)
(0 -6.05025e-05 0)
(0 -8.17508e-05 0)
(0 -3.05695e-05 0)
(0 -1.37867e-05 0)
(0 -8.8174e-06 0)
(0 -0.000118491 0)
(0 -7.50343e-05 0)
(0 -8.82709e-06 0)
(0 -9.12816e-06 0)
(0 -5.07554e-05 0)
(0 -1.06969e-05 0)
(0 -2.12655e-05 0)
(0 -8.31701e-05 0)
(0 -9.11353e-06 0)
(0 -1.06217e-05 0)
(0 -2.55253e-05 0)
(0 -3.6604e-05 0)
(0 -8.85077e-06 0)
(0 -8.81675e-06 0)
(0 -8.8649e-06 0)
(0 -0.000137009 0)
(0 -9.4303e-06 0)
(0 -1.01765e-05 0)
(0 -8.89152e-06 0)
(0 -8.85815e-06 0)
(0 -1.06948e-05 0)
(0 -0.000110375 0)
(0 -7.27415e-05 0)
(0 -6.62097e-05 0)
(0 -9.76688e-05 0)
(0 -4.28484e-05 0)
(0 -0.000140191 0)
(0 -2.50075e-05 0)
(0 -1.5617e-05 0)
(0 -8.93558e-06 0)
(0 -9.88702e-06 0)
(0 -0.000107778 0)
(0 -1.00714e-05 0)
(0 -8.82932e-06 0)
(0 -1.48677e-05 0)
(0 -4.22585e-05 0)
(0 -8.81945e-06 0)
(0 -0.000116378 0)
(0 -4.54414e-05 0)
(0 -1.08179e-05 0)
(0 -8.91222e-06 0)
(0 -5.37043e-05 0)
(0 -0.00011728 0)
(0 -8.84621e-06 0)
(0 -9.14324e-06 0)
(0 -9.08131e-06 0)
(0 -1.02899e-05 0)
(0 -9.0797e-06 0)
(0 -0.000125116 0)
(0 -9.56517e-06 0)
(0 -4.04574e-05 0)
(0 -0.000134896 0)
(0 -3.98548e-05 0)
(0 -8.86881e-06 0)
(0 -8.82415e-06 0)
(0 -0.000146521 0)
(0 -0.000194006 0)
(0 -8.25141e-05 0)
(0 -9.02661e-06 0)
(0 -4.50905e-05 0)
(0 -2.17204e-05 0)
(0 -6.3368e-05 0)
(0 -5.62893e-05 0)
(0 -9.59999e-06 0)
(0 -0.000137517 0)
(0 -1.18827e-05 0)
(0 -9.1544e-06 0)
(0 -8.82401e-06 0)
(0 -9.63901e-05 0)
(0 -1.02117e-05 0)
(0 -3.40981e-05 0)
(0 -8.81693e-06 0)
(0 -8.8287e-06 0)
(0 -8.51487e-05 0)
(0 -8.82784e-06 0)
(0 -1.11961e-05 0)
(0 -8.89138e-06 0)
(0 -5.6271e-05 0)
(0 -8.85161e-06 0)
(0 -2.98661e-05 0)
(0 -2.74317e-05 0)
(0 -1.44568e-05 0)
(0 -1.03138e-05 0)
(0 -8.87114e-06 0)
(0 -9.15144e-06 0)
(0 -9.52395e-06 0)
(0 -8.89097e-06 0)
(0 -0.000115839 0)
(0 -9.24756e-06 0)
(0 -0.000142194 0)
(0 -2.21474e-05 0)
(0 -8.84399e-06 0)
(0 -6.0616e-05 0)
(0 -2.70586e-05 0)
(0 -5.23925e-05 0)
(0 -8.27206e-05 0)
(0 -8.94429e-06 0)
(0 -0.000200462 0)
(0 -0.000115925 0)
(0 -1.25672e-05 0)
(0 -1.37105e-05 0)
(0 -1.31715e-05 0)
(0 -8.9591e-06 0)
(0 -9.87886e-06 0)
(0 -8.83057e-06 0)
(0 -1.17585e-05 0)
(0 -1.71788e-05 0)
(0 -1.48516e-05 0)
(0 -8.82829e-06 0)
(0 -1.56203e-05 0)
(0 -8.99232e-06 0)
(0 -8.85208e-06 0)
(0 -3.34071e-05 0)
(0 -0.000134943 0)
(0 -8.83265e-06 0)
(0 -9.18469e-06 0)
(0 -4.08575e-05 0)
(0 -1.01192e-05 0)
(0 -1.77395e-05 0)
(0 -8.45351e-05 0)
(0 -2.9562e-05 0)
(0 -7.99377e-05 0)
(0 -1.46004e-05 0)
(0 -7.89589e-06 0)
(0 -1.30574e-05 0)
(0 -9.20662e-06 0)
(0 -0.000159592 0)
(0 -1.1823e-05 0)
(0 -0.00013529 0)
(0 -1.02355e-05 0)
(0 -9.90646e-05 0)
(0 -1.71369e-05 0)
(0 -1.20402e-05 0)
(0 -4.944e-05 0)
(0 -0.000100745 0)
(0 -0.000145162 0)
(0 -9.1425e-06 0)
(0 -1.08846e-05 0)
(0 -8.90207e-06 0)
(0 -8.07515e-05 0)
(0 -7.52888e-05 0)
(0 -1.22491e-05 0)
(0 -8.77382e-05 0)
(0 -1.0397e-05 0)
(0 -1.07539e-05 0)
(0 -8.58798e-05 0)
(0 -1.03544e-05 0)
(0 -0.000139348 0)
(0 -8.93183e-06 0)
(0 -4.28091e-05 0)
(0 -1.64378e-05 0)
(0 -8.8168e-06 0)
(0 -9.27644e-06 0)
(0 -0.000123058 0)
(0 -3.49442e-05 0)
(0 -8.82512e-06 0)
(0 -0.000136109 0)
(0 -0.00014796 0)
(0 -8.88357e-06 0)
(0 -8.81985e-06 0)
(0 -2.25736e-05 0)
(0 -9.58661e-06 0)
(0 -0.000108781 0)
(0 -0.000101357 0)
(0 -8.8711e-06 0)
(0 -4.81925e-05 0)
(0 -0.000191661 0)
(0 -9.19412e-06 0)
(0 -0.000136564 0)
(0 -9.04759e-06 0)
(0 -4.6179e-05 0)
(0 -0.000192769 0)
(0 -5.87653e-05 0)
(0 -9.81143e-06 0)
(0 -8.82538e-06 0)
(0 -5.35686e-05 0)
(0 -5.01623e-05 0)
(0 -0.000125114 0)
(0 -2.25787e-05 0)
(0 -6.84316e-05 0)
(0 -9.00198e-06 0)
(0 -1.20912e-05 0)
(0 -2.77181e-05 0)
(0 -8.90341e-06 0)
(0 -1.10023e-05 0)
(0 -9.20509e-06 0)
(0 -8.82518e-06 0)
(0 -9.09841e-06 0)
(0 -0.000149992 0)
(0 -4.42778e-05 0)
(0 -7.54114e-05 0)
(0 -9.0714e-06 0)
(0 -2.09914e-05 0)
(0 -8.82334e-06 0)
(0 -8.81844e-06 0)
(0 -2.48804e-05 0)
(0 -8.84175e-06 0)
(0 -8.84918e-06 0)
(0 -1.30855e-05 0)
(0 -9.6704e-06 0)
(0 -1.02838e-05 0)
(0 -8.98078e-06 0)
(0 -8.87452e-06 0)
(0 -1.01225e-05 0)
(0 -9.07721e-06 0)
(0 -8.82384e-06 0)
(0 -1.19885e-05 0)
(0 -2.44074e-05 0)
(0 -8.83917e-06 0)
(0 -9.67008e-06 0)
(0 -0.000160062 0)
(0 -4.95684e-05 0)
(0 -8.98166e-06 0)
(0 -1.45486e-05 0)
(0 -0.000120212 0)
(0 -1.13437e-05 0)
(0 -1.02415e-05 0)
(0 -1.55491e-05 0)
(0 -8.83284e-06 0)
(0 -3.63657e-05 0)
(0 -8.90538e-06 0)
(0 -1.50139e-05 0)
(0 -9.19115e-06 0)
(0 -9.93577e-06 0)
(0 -9.42062e-06 0)
(0 -2.22891e-05 0)
(0 -0.000141649 0)
(0 -5.20129e-05 0)
(0 -8.8701e-06 0)
(0 -0.00012834 0)
(0 -2.44696e-05 0)
(0 -8.59587e-05 0)
(0 -4.35039e-05 0)
(0 -0.000117163 0)
(0 -1.27251e-05 0)
(0 -9.5953e-06 0)
(0 -8.95452e-06 0)
(0 -1.06289e-05 0)
(0 -9.61146e-06 0)
(0 -8.90217e-06 0)
(0 -9.08636e-06 0)
(0 -0.000119016 0)
(0 -9.03194e-06 0)
(0 -8.88601e-06 0)
(0 -0.000165406 0)
(0 -0.000150565 0)
(0 -2.01804e-05 0)
(0 -8.8246e-06 0)
(0 -3.53605e-05 0)
(0 -1.12815e-05 0)
(0 -9.0227e-06 0)
(0 -1.29053e-05 0)
(0 -5.88617e-05 0)
(0 -5.69345e-05 0)
(0 -0.000133969 0)
(0 -1.01333e-05 0)
(0 -1.38379e-05 0)
(0 -0.000120431 0)
(0 -8.85273e-06 0)
(0 -8.87522e-06 0)
(0 -1.19411e-05 0)
(0 -9.05916e-06 0)
(0 -1.1812e-05 0)
(0 -8.93774e-06 0)
(0 -3.62237e-05 0)
(0 -3.21457e-05 0)
(0 -8.90686e-06 0)
(0 -9.05386e-06 0)
(0 -1.05893e-05 0)
(0 -9.13135e-06 0)
(0 -2.2919e-05 0)
(0 -1.57224e-05 0)
(0 -0.000115315 0)
(0 -7.18523e-05 0)
(0 -7.19021e-05 0)
(0 -3.33323e-05 0)
(0 -1.16335e-05 0)
(0 -0.00012153 0)
(0 -9.96574e-06 0)
(0 -0.000160555 0)
(0 -2.30268e-05 0)
(0 -0.000145641 0)
(0 -1.07517e-05 0)
(0 -9.90507e-06 0)
(0 -9.10785e-06 0)
(0 -8.09352e-05 0)
(0 -9.39298e-06 0)
(0 -0.000114046 0)
(0 -8.91167e-06 0)
(0 -9.06365e-05 0)
(0 -1.7984e-05 0)
(0 -8.04003e-05 0)
(0 -9.28871e-06 0)
(0 -8.81691e-06 0)
(0 -9.72035e-06 0)
(0 -0.000121503 0)
(0 -9.92352e-06 0)
(0 -8.09592e-05 0)
(0 -2.10492e-05 0)
(0 -8.81866e-06 0)
(0 -0.000110203 0)
(0 -3.96416e-05 0)
(0 -1.4067e-05 0)
(0 -1.95095e-05 0)
(0 -8.84358e-06 0)
(0 -0.000119848 0)
(0 -1.74098e-05 0)
(0 -5.46625e-05 0)
(0 -0.000116882 0)
(0 -1.32413e-05 0)
(0 -5.30428e-05 0)
(0 -0.000179322 0)
(0 -2.62079e-05 0)
(0 -8.81901e-06 0)
(0 -3.55041e-05 0)
(0 -9.16738e-06 0)
(0 -8.88963e-06 0)
(0 -1.26839e-05 0)
(0 -8.82837e-06 0)
(0 -3.69908e-05 0)
(0 -0.000174593 0)
(0 -1.61291e-05 0)
(0 -8.81768e-06 0)
(0 -5.20448e-05 0)
(0 -1.49876e-05 0)
(0 -1.5086e-05 0)
(0 -8.91097e-06 0)
(0 -0.00013138 0)
(0 -8.82461e-06 0)
(0 -1.16861e-05 0)
(0 -1.11892e-05 0)
(0 -0.000168213 0)
(0 -0.000200608 0)
(0 -9.57273e-06 0)
(0 -3.84237e-05 0)
(0 -1.40412e-05 0)
(0 -1.14608e-05 0)
(0 -0.000165294 0)
(0 -2.28082e-05 0)
(0 -2.27506e-05 0)
(0 -1.14132e-05 0)
(0 -9.00743e-06 0)
(0 -8.85439e-06 0)
(0 -3.38415e-05 0)
(0 -1.11435e-05 0)
(0 -9.02867e-06 0)
(0 -8.82978e-06 0)
(0 -1.63428e-05 0)
(0 -9.14053e-06 0)
(0 -8.85456e-06 0)
(0 -1.55292e-05 0)
(0 -8.99206e-06 0)
(0 -2.33428e-05 0)
(0 -8.8686e-06 0)
(0 -8.82616e-06 0)
(0 -0.000159038 0)
(0 -3.88994e-05 0)
(0 -0.000145478 0)
(0 -7.2999e-05 0)
(0 -1.41507e-05 0)
(0 -0.000143823 0)
(0 -2.27677e-05 0)
(0 -1.07215e-05 0)
(0 -4.90959e-05 0)
(0 -1.30926e-05 0)
(0 -8.81937e-06 0)
(0 -1.39175e-05 0)
(0 -4.07422e-05 0)
(0 -8.85631e-06 0)
(0 -6.51163e-05 0)
(0 -8.81986e-06 0)
(0 -4.03251e-05 0)
(0 -1.01398e-05 0)
(0 -0.000135538 0)
(0 -8.81595e-06 0)
(0 -8.81849e-06 0)
(0 -8.03078e-05 0)
(0 -6.88811e-05 0)
(0 -8.86195e-06 0)
(0 -1.43484e-05 0)
(0 -8.94759e-06 0)
(0 -0.000128684 0)
(0 -0.000136437 0)
(0 -8.83801e-06 0)
(0 -6.76219e-05 0)
(0 -1.04454e-05 0)
(0 -8.83196e-06 0)
(0 -7.47741e-05 0)
(0 -1.25201e-05 0)
(0 -2.18171e-05 0)
(0 -0.000199421 0)
(0 -5.65281e-05 0)
(0 -8.87348e-06 0)
(0 -8.81644e-06 0)
(0 -7.58637e-05 0)
(0 -4.71898e-05 0)
(0 -6.50086e-05 0)
(0 -2.60346e-05 0)
(0 -1.09025e-05 0)
(0 -8.82124e-06 0)
(0 -3.45506e-05 0)
(0 -9.04859e-06 0)
(0 -8.98669e-06 0)
(0 -9.19258e-06 0)
(0 -9.03095e-06 0)
(0 -6.8552e-05 0)
(0 -1e-05 0)
(0 -9.17861e-06 0)
(0 -1.48885e-05 0)
(0 -8.94934e-05 0)
(0 -1.22456e-05 0)
(0 -8.82532e-06 0)
(0 -2.72098e-05 0)
(0 -1.01985e-05 0)
(0 -8.87042e-06 0)
(0 -9.30216e-06 0)
(0 -9.00309e-06 0)
(0 -1.87008e-05 0)
(0 -5.2329e-05 0)
(0 -3.60703e-05 0)
(0 -6.47714e-05 0)
(0 -8.81855e-06 0)
(0 -1.26229e-05 0)
(0 -4.58153e-05 0)
(0 -6.56143e-05 0)
(0 -3.72091e-05 0)
(0 -1.80717e-05 0)
(0 -9.20795e-05 0)
(0 -6.49072e-05 0)
(0 -1.12681e-05 0)
(0 -1.54314e-05 0)
(0 -8.9079e-06 0)
(0 -1.04347e-05 0)
(0 -8.82364e-06 0)
(0 -8.83019e-06 0)
(0 -1.66455e-05 0)
(0 -1.29122e-05 0)
(0 -0.000183819 0)
(0 -2.0574e-05 0)
(0 -8.81582e-06 0)
(0 -7.14785e-05 0)
(0 -3.85577e-05 0)
(0 -1.30582e-05 0)
(0 -1.0137e-05 0)
(0 -9.69081e-06 0)
(0 -8.87703e-06 0)
(0 -9.14311e-06 0)
(0 -0.000115591 0)
(0 -8.81981e-06 0)
(0 -0.000183648 0)
(0 -7.97047e-05 0)
(0 -1.09492e-05 0)
(0 -2.6034e-05 0)
(0 -0.000114848 0)
(0 -9.62366e-06 0)
(0 -8.91198e-06 0)
(0 -0.000133751 0)
(0 -8.89904e-06 0)
(0 -7.67458e-05 0)
(0 -0.000151263 0)
(0 -4.03204e-05 0)
(0 -8.98526e-06 0)
(0 -2.18419e-05 0)
(0 -4.09092e-05 0)
(0 -8.98434e-06 0)
(0 -5.02563e-05 0)
(0 -9.23516e-06 0)
(0 -8.86644e-06 0)
(0 -3.12996e-05 0)
(0 -1.03335e-05 0)
(0 -0.000133156 0)
(0 -8.82701e-06 0)
(0 -1.11424e-05 0)
(0 -6.11616e-05 0)
(0 -8.87865e-06 0)
(0 -1.24515e-05 0)
(0 -9.40594e-06 0)
(0 -1.42774e-05 0)
(0 -8.81735e-06 0)
(0 -1.586e-05 0)
(0 -9.15032e-06 0)
(0 -6.10129e-05 0)
(0 -9.66494e-06 0)
(0 -8.82188e-06 0)
(0 -0.000147505 0)
(0 -9.12272e-06 0)
(0 -5.58803e-05 0)
(0 -1.16859e-05 0)
(0 -9.77465e-06 0)
(0 -2.47885e-05 0)
(0 -8.96272e-06 0)
(0 -3.28418e-05 0)
(0 -1.02037e-05 0)
(0 -1.22052e-05 0)
(0 -9.2222e-06 0)
(0 -1.225e-05 0)
(0 -1.12437e-05 0)
(0 -3.58284e-05 0)
(0 -8.87024e-06 0)
(0 -1.49049e-05 0)
(0 -8.81847e-06 0)
(0 -1.53632e-05 0)
(0 -1.1927e-05 0)
(0 -9.98476e-05 0)
(0 -1.4449e-05 0)
(0 -6.09648e-05 0)
(0 -1.15206e-05 0)
(0 -8.87544e-06 0)
(0 -4.78252e-05 0)
(0 -0.000138975 0)
(0 -8.82857e-06 0)
(0 -5.82696e-05 0)
(0 -9.00232e-06 0)
(0 -6.72925e-05 0)
(0 -8.88904e-06 0)
(0 -9.16837e-06 0)
(0 -1.72697e-05 0)
(0 -0.000128342 0)
(0 -0.000132549 0)
(0 -6.75769e-05 0)
(0 -0.0001626 0)
(0 -1.02574e-05 0)
(0 -1.02775e-05 0)
(0 -1.05963e-05 0)
(0 -2.82154e-05 0)
(0 -0.000118074 0)
(0 -9.04743e-06 0)
(0 -4.62517e-05 0)
(0 -1.78549e-05 0)
(0 -9.0559e-06 0)
(0 -6.54655e-05 0)
(0 -8.83465e-06 0)
(0 -1.30106e-05 0)
(0 -2.09601e-05 0)
(0 -8.87749e-06 0)
(0 -8.81996e-06 0)
(0 -9.10864e-06 0)
(0 -8.89221e-06 0)
(0 -8.9844e-06 0)
(0 -0.000132285 0)
(0 -9.11793e-06 0)
(0 -8.84519e-06 0)
(0 -9.02387e-06 0)
(0 -8.2458e-05 0)
(0 -4.46439e-05 0)
(0 -1.00823e-05 0)
(0 -8.87763e-06 0)
(0 -8.8208e-06 0)
(0 -9.13731e-06 0)
(0 -8.20948e-05 0)
(0 -1.03512e-05 0)
(0 -1.51363e-05 0)
(0 -8.86777e-06 0)
(0 -8.82084e-06 0)
(0 -1.4986e-05 0)
(0 -9.93356e-06 0)
(0 -3.50017e-05 0)
(0 -1.0815e-05 0)
(0 -1.06247e-05 0)
(0 -8.33578e-05 0)
(0 -1.01568e-05 0)
(0 -8.921e-06 0)
(0 -6.89671e-05 0)
(0 -9.01676e-06 0)
(0 -3.70179e-05 0)
(0 -0.000107473 0)
(0 -8.82853e-06 0)
(0 -8.8269e-06 0)
(0 -0.000173944 0)
(0 -7.86124e-05 0)
(0 -6.40321e-05 0)
(0 -0.000133054 0)
(0 -1.19813e-05 0)
(0 -9.60005e-06 0)
(0 -5.8239e-05 0)
(0 -0.000140317 0)
(0 -0.000107541 0)
(0 -1.54517e-05 0)
(0 -2.3623e-05 0)
(0 -2.42545e-05 0)
(0 -9.13547e-06 0)
(0 -7.61021e-05 0)
(0 -8.82279e-06 0)
(0 -8.98792e-06 0)
(0 -8.84014e-06 0)
(0 -9.21698e-06 0)
(0 -1.26711e-05 0)
(0 -9.09475e-06 0)
(0 -1.86327e-05 0)
(0 -8.87197e-06 0)
(0 -9.05264e-06 0)
(0 -9.03238e-06 0)
(0 -5.65334e-05 0)
(0 -8.85423e-06 0)
(0 -8.87215e-06 0)
(0 -0.000162604 0)
(0 -0.00011952 0)
(0 -1.03138e-05 0)
(0 -8.8239e-06 0)
(0 -8.9328e-06 0)
(0 -0.000138068 0)
(0 -7.94026e-05 0)
(0 -8.82234e-06 0)
(0 -8.95206e-06 0)
(0 -9.04877e-06 0)
(0 -3.82754e-05 0)
(0 -2.37773e-05 0)
(0 -8.90058e-06 0)
(0 -5.26855e-05 0)
(0 -8.8268e-06 0)
(0 -8.84811e-06 0)
(0 -9.05893e-06 0)
(0 -9.05719e-06 0)
(0 -5.72125e-05 0)
(0 -0.000122949 0)
(0 -0.000130694 0)
(0 -1.81752e-05 0)
(0 -8.81805e-06 0)
(0 -1.55771e-05 0)
(0 -3.28904e-05 0)
(0 -3.23545e-05 0)
(0 -1.01389e-05 0)
(0 -8.81597e-06 0)
(0 -1.53626e-05 0)
(0 -8.91929e-06 0)
(0 -8.82775e-06 0)
(0 -8.81733e-06 0)
(0 -8.945e-06 0)
(0 -8.76566e-05 0)
(0 -8.42173e-05 0)
(0 -8.8926e-06 0)
(0 -0.000204628 0)
(0 -0.0001618 0)
(0 -3.79681e-05 0)
(0 -8.82344e-06 0)
(0 -1.62383e-05 0)
(0 -8.85828e-06 0)
(0 -9.80721e-06 0)
(0 -0.000108376 0)