/*--------------------------------*- C++ -*----------------------------------*\
| =========                 |                                                 |
| \\      /  F ield         | OpenFOAM: The Open Source CFD Toolbox           |
|  \\    /   O peration     | Version:  v2012                                 |
|   \\  /    A nd           | Website:  www.openfoam.com                      |
|    \\/     M anipulation  |                                                 |
\*---------------------------------------------------------------------------*/
FoamFile
{
    version     2.0;
    format      ascii;
    class       volScalarField;
    location    "300";
    object      nut;
}
// * * * * * * * * * * * * * * * * * * * * * * * * * * * * * * * * * * * * * //

dimensions      [0 2 -1 0 0 0 0];


internalField   nonuniform List<scalar> 
13917
(
0.00039831
0.00213765
0.0112825
0.00296091
0.00672429
3.56492e-05
0.0107795
0.00867623
0.0114088
0.000256288
0.000798998
0.00125634
0.00308551
0.00117554
0.000583522
0.000783519
0.0022179
0.000541821
0.00140791
0.00672282
0.00672586
0.0123292
0.00672366
0.0112565
0.00673207
0.0107248
0.000161321
0.000109779
3.00188e-05
0.0002978
0.00042371
0.000722475
0.00022233
0.000575461
0.00592409
0.000134118
0.0067237
0.0118497
0.0024917
0.00299148
0.00673433
0.00672618
0.00672477
7.15963e-05
0.0034098
0.000484045
0.000626283
0.00060782
5.30823e-05
0.00672065
0.00133247
0.00197099
5.82295e-05
0.000517563
0.00198476
0.00110328
0.000874207
0.00337736
0.00119418
0.00337455
0.00695367
0.00249079
0.000340144
0.00672268
3.60344e-05
0.00223693
0.00672453
0.00648467
0.000514385
0.00035917
0.00672409
0.0111669
0.0102007
0.0067306
4.71525e-05
0.00166406
0.00558166
0.00216083
0.0109427
0.00672534
0.0067248
0.00672416
3.53787e-05
0.0129419
0.00985448
0.00235574
0.00672443
0.00104364
0.00133623
0.00672616
0.0118677
0.000272709
0.00495623
0.0011871
0.00157681
3.69628e-05
0.000705478
0.000626772
0.00114368
5.62567e-05
0.00672237
0.000253791
6.92284e-05
0.00208646
0.00673255
0.011335
4.06341e-05
0.000685604
0.00210426
0.000370669
0.0112061
0.00367822
0.0012959
0.0139003
0.00121681
5.17075e-05
0.00672559
3.86554e-05
0.00526751
0.000528719
0.006726
0.00066174
0.00657849
0.000130611
0.00672415
0.00130101
0.00325645
0.00672481
0.00672063
3.55456e-05
0.0115471
0.00117777
0.00317744
0.00672598
0.00157424
0.0104523
0.000397413
5.22188e-05
0.00672463
0.000554476
0.000417265
0.00675021
0.0015139
5.77396e-05
0.005344
0.00940008
3.95516e-05
0.00184995
0.00674331
0.000609656
0.000798153
5.06974e-05
0.00101934
0.0002833
0.0008788
0.00403982
0.000411633
0.00116348
0.00326522
0.00186314
0.000798912
0.000160405
0.00672536
0.000699756
0.00130215
0.00124004
0.00213013
0.000738042
0.00442015
0.000253849
0.000265026
0.0037607
0.00127188
0.00161707
0.00840647
0.00023639
0.012139
4.07122e-05
0.00988979
0.00488522
0.000273391
0.000418819
0.00675062
0.00672434
0.000409317
0.00991486
0.000348815
0.00393248
0.000691105
0.0010658
0.000206349
0.00997138
0.000260346
0.00672384
5.40037e-05
0.000161481
0.00418345
0.00465681
4.56038e-05
0.000333511
0.00183675
0.00672071
0.000857141
0.000944465
0.00812876
0.000973138
0.00673337
0.00359189
0.000655323
0.0100267
0.00163763
0.0113024
0.00423751
0.00113597
0.00673119
2.68052e-05
0.000711845
0.00473652
0.00673014
0.00799966
0.00544177
0.000343086
0.00672733
0.0125513
0.0116749
0.000744952
0.000180817
0.000879935
0.00673095
0.000231681
0.0013715
0.000734682
0.00970538
0.00257845
0.00672087
0.000672264
0.0131844
0.00773638
0.00672525
0.00672253
0.00401018
0.000652882
0.00672561
0.000703253
0.000478333
0.000158719
0.000477629
0.00672522
0.000202947
0.00355322
0.00517627
0.000233867
4.78206e-05
0.00340129
0.00360273
0.00100945
0.00698673
0.000887806
0.000341395
0.000640884
0.00672571
0.0042347
0.00943235
0.000442052
0.00673036
0.0090265
0.00346336
0.00287534
0.0114401
0.00172001
0.00672503
0.00672093
0.000644901
0.0104237
0.000520224
0.00129678
0.00103437
0.00181988
0.00671956
0.00750738
0.0067223
0.00932125
0.00173857
0.00672543
0.000562671
0.000264185
0.000166388
0.000570766
0.000350341
0.00413883
0.00013761
0.00999798
0.00838762
0.00672967
0.003902
0.00672373
0.00414599
0.00672505
3.21414e-05
0.0067209
0.000345535
0.000479993
0.0047282
0.000808145
0.00148534
5.17501e-05
0.000261747
0.000279305
0.00595878
0.003916
0.0102408
0.00567626
0.00672593
0.00672482
0.00701563
0.00469209
0.0113982
0.00626446
0.0132572
0.00416389
0.000204476
0.00107769
4.80844e-05
0.000814052
0.000219071
3.40051e-05
0.000618597
0.000646264
4.68096e-05
0.00202995
0.0114682
5.55365e-05
0.00490789
0.00064151
0.00309935
0.000627415
0.0127653
4.02688e-05
7.62543e-05
7.85325e-05
0.00971273
0.00672499
0.000280663
0.0124949
0.00245111
0.00109202
0.00405553
4.20355e-05
0.00186497
0.000356701
2.96711e-05
0.00672116
0.00380744
0.000214244
0.00672224
0.00672673
0.00672383
0.00674336
0.00029826
0.0088704
3.06202e-05
0.0117936
0.00672802
0.000229766
0.00126703
0.000841481
0.0125248
0.0120443
0.0126195
0.00672302
0.000719516
0.00672686
0.00732609
0.00347052
4.64834e-05
0.000414988
0.00238307
0.00672469
0.000675546
0.00026141
0.000572443
1.35477e-05
0.0121804
0.00238023
0.000189278
0.000268708
0.0067222
0.0083017
0.011934
0.00294245
3.35166e-05
0.00672696
0.000507084
0.00469293
0.00672515
0.00136208
0.010669
0.00140708
0.00838126
0.00203973
0.000890423
3.26604e-05
0.00211854
3.0429e-05
3.07903e-05
0.00672336
4.28162e-05
0.00243149
0.00673034
0.000323816
0.00672548
0.00673308
0.0067266
0.000520102
0.00672552
0.00424353
0.00824325
0.000998352
0.000273317
0.0102457
0.00482069
0.000938634
0.0067268
0.000427577
0.00250772
0.000637354
0.00672399
0.00962731
0.00988817
0.0075549
0.000724732
0.000457635
0.000729336
0.00246012
0.000571576
0.00142283
0.000535249
0.0021379
0.00672232
0.0128498
0.0117719
0.0122369
0.000180017
0.000547317
0.0125376
0.0134384
0.00531913
0.00672015
0.000654114
0.00139845
0.00296546
0.000359785
0.00065178
0.00679192
0.000453896
0.000901052
0.00502166
0.00672345
0.00067321
0.000751695
0.00028703
0.00641143
0.00672565
0.00328165
0.00685806
0.000385024
0.00672286
0.0088973
3.3966e-05
0.000390712
0.00737852
0.00111411
0.000771785
0.0142861
3.23658e-05
0.000893654
0.000223695
0.000679274
0.00040592
0.000446231
0.00121586
0.000962698
3.84997e-05
0.00142398
0.000631998
0.00676767
0.00106363
0.00121595
0.00676275
0.000412837
0.00223212
0.00593448
0.011947
0.00548531
0.00672511
0.00885392
0.00280192
0.00672547
0.00406389
0.00278813
0.000249085
0.00536689
0.00721417
0.000774354
0.000686718
0.00218341
0.0110406
0.000245058
0.00175426
0.00672567
0.00450127
5.0133e-05
0.00720983
0.00676422
0.00925708
0.011905
0.00105885
0.00672676
0.00212061
0.00188968
0.000307511
0.00678181
0.00672544
0.00672008
0.00672014
0.00701465
0.000536266
0.00109079
0.00034863
0.00673356
0.00672197
0.000465095
0.0152154
0.000718797
0.0040441
0.00672986
0.00672805
0.00796789
0.0100649
0.00672419
0.00672811
0.000979858
0.00127284
0.00113462
0.00302036
0.00127712
0.000698282
0.00067511
4.81968e-05
0.000489165
0.000416244
0.000523694
0.00077952
0.000287438
0.00672891
0.00496437
0.00672748
0.000955743
0.00206324
0.00121111
0.000114532
0.00672387
0.000291684
0.000295631
0.000425601
0.000527822
0.000219923
0.000982539
0.00672434
0.0130853
0.000259544
0.0137033
0.00236706
0.000946086
0.000497776
0.0126127
0.000340554
0.000616208
0.000176299
0.000724448
0.00125011
0.00316568
0.000122553
6.7587e-05
0.00255098
0.000733533
4.92024e-05
0.0136015
0.00230345
0.00103802
0.000726018
0.000739728
0.000588521
0.00163533
2.87345e-05
0.0100559
0.0108824
0.000319166
0.00672125
0.00475175
0.00164016
0.00673271
0.000689732
0.000777185
0.00022923
0.00030954
0.0113377
0.000448095
0.0013185
0.0126424
0.00185691
0.00353255
0.0067254
0.00672409
0.00426701
0.0117785
3.40646e-05
0.00188186
0.00162076
0.00672746
0.00174772
5.2495e-05
0.0012669
0.00118885
0.000933742
0.000691698
0.00501292
0.000172296
0.00127906
0.000576701
0.00673241
0.000445311
0.00207208
0.00153803
0.000278801
0.000121114
0.000841945
0.00672031
0.00675383
0.00311742
7.61453e-05
0.000371078
0.000650324
1.43976e-05
0.000765802
0.00672099
0.000426092
3.00654e-05
0.000126471
0.00521862
0.000470233
0.00672542
0.00182854
0.00119744
0.0143247
0.00672521
0.000169634
0.00189086
0.000837193
0.000251543
0.0100438
0.00012576
0.002242
0.00935249
0.000603581
0.00320581
0.00227084
0.00144471
0.000271892
0.000556438
0.00672484
0.00226439
0.000146543
0.00239548
0.000531135
0.00107353
0.00675601
0.00090371
0.0106139
0.00602216
0.00341195
0.00672033
0.00506108
0.00672582
0.000788462
0.00451344
0.00108347
0.00944633
0.000886161
0.000200198
0.00672032
0.00019299
0.00672464
0.000410242
0.0067201
0.000145455
0.0032054
0.000730571
1.68551e-05
0.0151435
0.00683491
0.00672458
0.000298223
0.000397773
0.00657353
0.0144149
0.000603393
0.00673172
0.000672525
3.17397e-05
0.000783734
0.000559914
0.00067867
0.0102299
0.000395752
0.001893
0.000363091
5.17679e-05
0.000596384
3.07196e-05
0.000568023
0.00263713
0.000794654
0.000574245
0.00678456
0.00194739
0.000375039
0.000622639
0.00672516
0.00672583
0.000731859
0.00223891
0.000473004
0.00651475
0.00672646
0.00672593
0.00132133
0.00673121
0.000890901
0.00672056
0.00671966
0.00135362
3.71223e-05
0.00672211
0.00672547
0.000128825
0.000428818
0.00132827
0.00914757
0.000202497
0.00582252
0.00184655
0.000451446
0.00283737
0.00672591
0.00671997
0.00136948
0.00246059
0.00672558
0.00242005
0.000793869
0.00170358
0.000162036
0.000198996
0.000833159
0.00673121
0.00672624
0.00152114
0.00530187
0.00171436
0.00774021
0.00154945
0.0067239
0.000901731
0.0067219
0.00673018
0.00068268
0.000402449
0.00419951
0.000489498
0.00564152
0.00672966
0.0136391
8.65777e-05
0.00228128
0.00256655
0.00825855
0.000939093
0.00261919
0.000241825
0.00262084
0.00672099
0.00672849
0.00136972
0.00044835
0.000878969
0.000583608
0.0104743
0.00229054
0.000930085
0.00202414
0.00672709
0.00130469
0.00376129
0.00672198
0.000379794
0.000147444
0.00241577
0.0115949
0.00570252
0.000262425
0.00672971
0.00673922
0.00111317
0.00251802
0.00672546
0.000599613
0.00673734
0.000408499
0.00680185
0.00678713
0.00027792
0.00404433
0.00160789
0.000485721
0.0067259
0.00672562
0.00339401
0.0067367
0.00346091
2.3622e-05
0.00575724
0.00677135
0.0125532
0.00912958
0.0014363
0.000369341
0.000578028
0.0013985
0.00675154
0.000398006
0.00720568
0.000135735
0.00672422
0.00250936
0.0138754
0.000853
0.0131498
0.00672581
0.00122357
0.00395841
0.000939619
0.00236762
0.0021648
3.88115e-05
0.00673564
0.000369174
0.00672001
0.00392514
0.00672269
0.0105499
0.00672996
0.00578129
0.00675211
0.00319423
0.00241403
0.00023064
8.82322e-05
0.00676958
0.000252637
0.00672403
0.0121405
0.00672313
0.00532601
0.00672399
0.00117021
0.00672383
0.000462697
0.00337472
0.0088254
0.000472674
0.0003145
0.00612906
0.00400647
0.00323555
0.00716497
0.00766211
0.0102854
0.0134789
0.000256265
0.000372864
0.0022216
0.0115659
0.000982318
0.0125781
0.00675967
0.00499188
0.00245987
0.00672394
0.00135564
0.000298667
0.00730739
0.00518247
0.00672642
0.00178862
5.39883e-05
0.00355804
0.000222611
0.000795901
0.00300437
2.28083e-05
0.000164761
0.000860955
0.00278014
0.00354174
0.00300126
3.89014e-05
0.00679885
0.000278534
0.000310205
0.00744793
0.0119723
0.00141634
0.00485048
0.00274539
0.00222949
0.00672671
0.00135182
0.00671858
0.000739722
0.000355398
0.00776178
0.000568661
0.00589012
0.000459591
0.0137613
0.000390473
0.00196577
0.00424418
0.00475537
0.00192205
0.000188411
0.00694422
0.00672363
0.00673332
0.0116435
0.000576172
0.000437252
0.000532569
0.000232722
0.00673299
0.000426834
0.00193088
0.00672337
0.00191053
0.0103172
0.00443917
0.00677622
0.00672656
0.00352549
0.0013657
0.00159814
0.000929735
0.00596063
0.00193358
0.000463125
0.00655986
0.000415921
8.79301e-05
0.0122917
0.00350345
0.000137255
0.000961738
0.00906664
0.0132941
0.00673116
0.00986539
0.000570143
3.8401e-05
0.00672377
0.0108931
0.00672499
0.00105908
0.000365753
0.000527375
0.00950504
0.000306619
0.0012233
0.0101223
0.00672051
0.000670545
0.00678955
0.000608209
0.0114027
0.00282134
0.00672526
0.00171049
0.00289312
0.0081223
0.0067278
0.00672356
0.000954927
0.000420103
0.000804736
3.30672e-05
0.00141637
0.00243167
0.00179382
0.000764601
0.00183768
0.00800052
0.00134083
0.00529465
0.0118384
0.0017614
0.00650527
0.0100532
0.000753154
0.00191431
0.000429078
0.000703036
0.00378547
0.00138846
0.0026681
0.000360423
0.00672627
0.000713801
5.38358e-05
0.00672628
0.000458265
0.0059164
0.000145396
0.00672034
0.000513656
0.000637951
0.00216267
0.00373349
0.0067218
2.66521e-05
0.000236701
0.00874299
0.005891
0.00257386
0.000738076
0.00391928
0.00037222
0.000238492
0.00450801
0.000471012
0.00657437
0.00776923
0.00206908
0.00142396
0.00529654
0.000688993
0.00673328
0.00110441
0.00250088
0.0067233
0.0067254
0.0086517
0.0121362
0.000742048
0.0012799
0.0067226
0.00380508
0.00991224
0.00157715
0.00673125
0.000307368
0.00649498
0.000622785
0.00672477
0.00673001
0.00243514
0.0013133
0.00925324
0.00258695
0.00201783
0.00673252
0.000621304
0.00672123
3.32851e-05
0.00046413
0.00672568
0.00910813
0.000180325
0.000355828
0.0129846
3.1928e-05
0.00677163
0.00199726
0.00316318
3.40448e-05
0.000562084
0.00916666
0.00546295
0.000855902
0.0129348
4.30132e-05
0.000748772
0.00138361
0.000137035
3.56069e-05
0.00906622
0.000116659
0.000216974
0.0134854
0.00125672
0.000755857
0.00854512
0.000101696
0.00676184
0.0019364
0.00622451
0.000317603
0.00570841
0.000182996
0.000364605
0.000425531
0.00855691
0.0011047
0.0097325
0.00180685
0.000858975
0.000436912
0.000283918
0.000850555
0.00669107
0.00167391
0.00907783
0.00672558
0.00078672
0.00675153
0.00129665
0.00495894
0.000245054
0.00101656
3.96218e-05
0.000162454
9.7662e-05
0.00722424
4.97725e-05
0.0049898
0.00122419
0.0090129
0.00673973
0.00672561
0.000839346
0.00337386
0.00672532
0.000507534
7.13606e-05
0.000264115
0.00361331
0.00288997
0.00566029
0.000452371
0.000271781
0.00672051
0.000807586
0.0103433
0.000217893
0.000648416
0.00110792
0.000605562
0.00115317
0.00138641
0.00724094
0.00123314
0.00140513
2.08269e-05
0.000716001
0.00672605
0.00469965
0.0027871
0.00503038
0.00140112
0.000209983
0.00673321
0.000807804
0.00672188
0.000865342
0.00678438
0.000205846
0.000964074
0.000275324
0.00422034
0.000252938
0.00468007
0.00709857
0.0067278
0.000574113
0.00672412
0.000737145
0.00851054
0.00117091
0.00673463
0.000618648
0.00345514
0.000626413
0.0117767
0.00412276
0.0018044
0.000442151
0.000706087
0.0127331
0.00673368
0.000435032
0.00299776
0.00672484
0.000296758
0.00183277
0.00672132
0.000904119
0.00449328
0.00110196
0.00038328
0.0095943
0.000582688
0.00996786
0.00117201
0.00672133
0.000365671
0.00283291
0.00291501
0.00032546
0.00108904
0.000592751
0.00673557
0.00066977
0.000454792
0.000509521
0.00673932
0.00672501
0.00124973
0.0017264
0.00672617
0.000238392
0.00675704
0.00072656
0.000727788
0.000918586
3.79991e-05
0.0115962
0.00232925
0.000936827
0.000765022
0.00205039
0.00126717
3.49694e-05
0.00330639
0.000726347
0.00606814
0.000978406
0.000593535
0.000621529
0.00676656
0.00672551
0.00672301
0.00314952
0.000415178
0.00678824
0.000838394
0.0015121
0.00174182
0.000277585
0.0105717
0.000330484
0.00170249
0.0135809
0.00234975
0.00417016
0.00222137
0.000117453
0.0067354
0.00412715
0.00476022
0.0033063
0.00293872
0.0102917
0.000342277
0.00226022
0.00672084
0.00560817
0.0134822
0.00250652
0.000143794
0.000959011
0.00672713
0.000517501
0.000680106
0.00672597
0.00672262
0.0111784
0.00550055
0.00258815
0.00180873
0.00320589
0.00070807
0.000212555
0.00478387
0.00138032
3.00944e-05
0.00361545
0.000851817
0.0014062
0.0027531
0.00143918
4.62121e-05
0.00035961
0.00672594
0.00102245
0.0113912
0.000963886
0.00013322
0.0116351
3.89696e-05
3.8551e-05
0.000588104
0.00216376
0.0067251
0.00672765
0.00323915
0.00074231
0.00210269
0.00271401
0.00131554
0.00672597
0.00415605
0.00577977
0.00100015
0.0016332
0.00882156
0.000157521
0.00182307
0.00907868
0.000398836
0.000702911
0.00672243
0.000485545
0.0028911
0.00255953
0.00118287
0.000782065
0.000558221
0.000106884
0.00898596
0.000392669
0.00480282
0.0108278
0.00672521
0.00295694
0.000168714
0.00672589
0.00511175
0.000610313
0.00961026
0.00613875
0.00768788
0.00258994
0.00677108
0.00124392
3.31255e-05
0.000627429
0.00240749
0.00607374
0.0015654
0.000652436
0.0113099
0.00672507
0.000131704
0.00672077
0.00318208
0.000514026
0.00571708
0.00942153
0.000676145
7.59092e-05
0.00672609
0.00409755
0.000389418
3.37383e-05
0.00306141
9.03344e-05
0.00410739
0.00677137
2.50494e-05
0.00275273
0.000414605
0.000106389
0.00672504
0.00704574
0.0010353
0.000581393
0.000488775
6.65491e-05
0.000230147
0.000186025
0.00161789
0.0116158
0.00035139
0.00288898
0.000360096
0.000988911
0.00371145
0.000438883
0.0037367
0.001801
0.00922055
0.00169403
0.00674373
4.99298e-05
0.00227952
0.00180551
0.00231029
0.00842549
0.000665247
0.000447189
0.00672559
0.00672626
0.00672465
0.00672105
0.000438077
0.000141335
0.00018058
0.000838182
0.00672214
0.00136594
0.00208657
0.000483798
0.000365567
0.00430905
0.00120309
0.000764118
0.00189109
3.82541e-05
0.00968417
0.000159354
0.0081819
0.00404407
0.00673628
8.29802e-05
0.00636768
3.64915e-05
0.00672394
0.00219831
0.000829446
0.0101775
0.00426517
0.000334783
0.00422498
0.000151946
0.000775649
0.011046
0.000579809
0.0010173
0.000705658
0.00101431
0.000243289
0.00151316
0.00672387
0.000346466
0.00892285
0.00672396
0.00215443
0.00672549
0.00390683
0.00739485
0.0127938
0.00672156
0.00394282
0.00204157
0.00556895
0.000223097
0.000538361
0.00335951
0.00672315
0.00672276
0.00141501
0.000761182
0.000729564
0.000267343
0.0057495
0.0135551
0.00215604
0.0146588
5.16832e-05
0.000475828
0.000264601
0.000906016
0.0112414
0.000650388
0.00249706
0.00181812
0.0115447
0.00963376
0.00672108
0.00672465
0.000278987
0.0127131
0.00778163
0.00674114
0.00332067
0.0118758
0.000495085
0.00189854
0.001179
0.000793915
4.16107e-05
0.00227739
0.0130308
0.00465771
0.000260754
0.000241207
0.00348419
0.0067347
0.00672027
0.000522369
0.00893546
0.00108278
0.0017829
0.00140235
0.000133636
0.00335502
0.00133099
0.00901716
0.00280641
0.00499462
3.88266e-05
0.00672713
0.00672384
0.00800388
0.00672543
0.00675929
0.00122724
4.47769e-05
0.000770551
0.00402322
0.000343953
0.00672647
0.0139966
0.000507668
0.00493357
0.00271653
4.54478e-05
0.000610582
0.00398517
0.00107071
0.0138598
0.00672405
0.00920629
0.00396591
0.00978447
0.000196905
0.000211084
0.00528459
0.00221056
0.000159424
0.00116719
0.00786427
0.000528854
0.000590687
0.000443086
0.00118821
0.000393095
0.00426936
0.00140043
0.0123635
0.00296695
0.00672764
0.00453556
0.00090458
0.00310393
0.000689599
0.00672712
0.000503644
0.00200817
4.44973e-05
0.00013887
0.00536402
0.00672064
7.02853e-05
0.0028082
0.000726171
0.00110898
0.000474864
0.00406597
0.00180649
0.00139708
0.00215592
0.00743398
0.0133153
0.00672423
0.00672019
0.00203798
0.00136821
0.0067283
0.00196703
0.00052817
0.000780409
0.000491826
0.00676315
0.0141371
0.00748155
0.00672604
0.0020513
0.000835963
0.00139516
4.03145e-05
0.00207785
0.00757941
0.000392604
0.00109772
0.000831633
0.00672492
0.000688515
0.00410348
0.00320471
0.000299703
0.00845705
0.0098598
0.00672538
0.00672159
0.00140251
0.00356767
0.00039294
0.00160269
0.000387731
0.0020037
0.0107838
0.00306292
0.0135724
0.00672584
0.0135664
0.00236304
0.00672545
0.00939747
3.26357e-05
6.00607e-05
0.000124856
0.000143933
0.000770905
0.00605847
0.00695391
0.00672815
0.00672795
6.59772e-05
0.00148708
0.00433089
0.00910605
0.000433401
0.0105672
0.000350888
0.00014735
0.00678544
0.00130484
0.00133517
0.0136328
0.000659372
0.0130939
0.00697062
0.00378368
0.0035119
0.0034153
0.000202171
3.9893e-05
0.00188849
0.00672409
0.000649872
0.000770565
0.000807255
0.00061117
7.18568e-05
0.00672184
2.99285e-05
0.000334442
0.00261048
0.000521405
0.00118392
0.00136346
0.0146328
0.00672004
0.000382849
0.00967967
0.00143041
0.000879015
0.000520304
5.11408e-05
0.00132173
0.00413607
0.00131634
0.00061608
0.00173801
0.000378191
0.00261822
0.013385
0.00672307
8.77443e-05
4.08559e-05
0.0127735
0.000547107
0.000326575
0.00177275
0.000143795
0.00672561
0.0126436
0.00141238
0.00412731
0.000905771
0.00672245
0.0067257
4.37375e-05
0.00672555
0.00672328
0.00312412
0.000688004
0.00211636
0.000491321
0.000794237
0.000239678
0.00034832
0.00672528
5.71248e-05
3.06635e-05
0.000317754
0.000333054
0.000439597
0.00051497
0.00818549
0.000327796
0.00672606
0.00712946
0.00858497
0.00672604
0.00134003
0.00672291
3.61696e-05
0.000274138
0.00392641
3.79383e-05
0.0130625
0.00672279
0.00216556
0.00951876
0.00803204
0.00153332
0.00672752
0.0048103
0.0103993
4.70445e-05
0.00672475
0.0139731
0.0015035
9.01401e-05
0.0115735
0.00116741
0.00672344
0.000849271
0.00028427
0.000933507
0.0100002
0.0144636
0.00674448
0.00946829
3.45508e-05
0.0080948
0.00672639
0.000113965
0.00201041
0.00511932
0.0145048
0.00196978
0.000775071
0.00200812
0.000435869
0.000557264
0.00682436
0.0138851
0.00391846
0.00673327
0.00244059
0.000270192
0.00612157
0.000729839
0.0135868
0.00917427
0.000564803
0.00228268
0.00418314
0.0145943
0.00064261
0.000658981
0.00674295
0.00127178
0.000294292
0.00233015
0.000324812
2.70835e-05
0.00672373
0.000728768
0.00683768
0.000151249
0.0075964
0.00293238
0.00672515
0.00672634
0.00144257
0.000560739
0.0023128
0.014046
0.0135244
0.00676441
0.00673256
0.00672414
0.00672256
2.33672e-05
0.00677545
0.00984457
0.000407272
0.00161376
0.00517974
0.000294061
0.0146857
0.000912176
4.14123e-05
0.00865511
0.00196636
0.00370355
0.000255033
0.00020928
4.49281e-05
0.0037299
0.00784136
0.00141133
0.00673662
8.5585e-05
0.00677594
0.000606141
0.00215923
0.00783935
0.000313095
4.55323e-05
0.000638244
0.000580641
0.00672388
0.000276391
0.00117786
0.00672573
3.88863e-05
0.00672062
0.00182103
0.000789545
0.0023768
0.00859576
0.00113386
3.53997e-05
0.00126389
0.00672603
0.010367
0.0126674
0.000749857
0.000252784
0.00128125
0.000323823
0.00108957
0.00183592
0.000579562
0.00135598
0.000634077
0.000616558
0.00781893
0.000129653
0.000284538
0.00151232
0.00265382
0.0145565
0.00671888
0.00995342
0.000757365
0.0127539
0.00122273
0.00350594
0.00584393
0.000671002
8.87985e-05
0.00411427
0.0138537
8.28696e-05
0.00524575
0.00273917
0.00936645
0.00103016
0.002141
0.000572943
0.000640918
0.00106146
0.00668828
0.006726
0.00179144
0.00128345
0.000372176
0.00672373
0.000954541
0.00673454
0.00803304
0.000899169
0.000338621
0.000701073
0.00071653
0.000186756
0.00174675
0.000318157
0.00674174
7.79476e-05
0.0131041
0.00335184
0.00318804
0.00736796
0.00094096
4.18445e-05
0.00672816
0.000775893
0.0135781
0.00146148
0.00552066
0.00349769
0.000239363
0.0148844
0.00335025
0.00673592
0.00249643
8.95778e-05
0.000817702
0.0127543
0.000777675
0.000159395
0.000407073
0.000315158
0.00268831
0.00846891
0.00917937
0.00137046
0.000749015
0.00114558
0.000301561
0.00589949
0.000864454
0.00201773
0.000217319
0.00673141
3.39589e-05
0.00619801
0.00347735
0.00555775
0.000974893
0.00305905
0.0144414
0.00672419
0.000897545
0.00672534
0.00199319
0.00110399
0.000159603
0.0104301
0.0004345
0.00672151
0.00034895
0.00123566
0.0034338
0.000599894
0.00675424
0.00741949
0.0130664
0.000628958
7.17892e-05
0.00672174
0.000960622
0.00099493
0.000694705
0.00675291
0.00323044
0.00672294
0.000958258
0.006724
0.0010352
0.00278756
0.00610998
0.0127849
0.00496682
0.000831476
0.00182951
0.00672601
0.0120716
0.00515126
0.000404133
0.0140959
0.00149957
0.00781109
0.00349703
0.0136532
0.00149906
0.0132392
0.00114326
0.000784928
0.00413868
0.000749548
0.000870339
0.000961019
0.000356436
0.0132353
0.000296054
0.000186829
0.000541289
0.000831071
0.000207558
4.12877e-05
0.000650731
0.00430907
0.00445457
0.000922309
0.000190797
0.000983045
0.000710741
0.00879041
0.00936899
6.02173e-05
0.00347025
0.00285212
4.12409e-05
0.00166742
0.000771489
0.00303423
0.00814712
0.00477441
0.00217545
0.00519457
0.00139731
0.00763584
0.00012161
0.00672788
0.00473857
0.00322263
0.00512064
0.000888535
0.00135565
0.000427845
0.000791349
0.00245033
0.00133396
6.93137e-05
0.000162102
0.000622029
0.0103174
0.0116323
0.00500055
0.00672521
0.00475129
7.03455e-05
0.00293986
0.000148507
0.00730755
0.0113231
0.00672671
0.00637577
0.0112705
0.000192633
0.00672953
0.0067443
0.000487078
0.00460914
0.0108427
0.000892817
0.000463984
0.00672494
0.00062436
0.00086668
5.12254e-05
0.000273242
0.000188211
0.00181474
0.000559037
0.000609213
0.00135725
0.00317086
0.000880259
0.0105424
0.000721443
0.00308862
0.00672381
0.0131913
0.000299898
0.000394375
0.00672311
0.00672621
0.000273641
0.00843546
0.000100994
0.00562478
0.00596723
0.00148451
0.0132063
0.00132723
0.00677047
0.00460604
0.000248794
0.000546516
0.00672534
0.0110189
0.00841685
0.00453978
0.000244443
0.00702778
0.000305732
0.00318155
0.0065109
0.00231283
0.00180874
0.000363963
0.000687408
7.22075e-05
0.000332234
0.00673879
0.00240154
0.00792818
0.00572751
0.000331714
0.000481656
0.00470586
0.000548213
0.00672544
0.000931862
0.000676178
0.00672264
0.00972721
0.00672718
0.000332484
0.0127575
0.000404998
0.00231908
0.00672628
0.0141951
0.0067245
0.00111469
0.00190827
0.000144198
0.000217995
0.000721008
0.0128007
0.000190298
0.000287011
0.00146526
0.000796626
0.00603483
0.00672417
0.00426104
0.012414
0.000227323
0.0012053
0.000702386
0.000724831
0.0084471
0.0141091
0.000716785
0.000506088
0.00672329
0.0122747
0.00437553
0.00378953
0.000754794
0.000887009
0.000418508
4.15925e-05
0.000167084
0.000410054
0.000780526
0.0150511
0.00135488
0.00672302
0.00303242
0.000147132
0.00673698
0.00970999
0.00672148
0.00672405
0.000493127
0.000154092
0.00352089
0.00673748
0.000675775
0.00673575
3.44997e-05
0.00544239
3.43965e-05
0.00259961
0.0123152
0.00899329
0.000493111
0.000315562
0.00966994
3.57062e-05
0.00672493
0.000371275
0.000166669
0.000318365
3.89162e-05
0.0109176
0.0119296
0.0120484
5.14973e-05
0.00235109
0.000754762
0.0067211
0.00449665
0.000983297
0.00273273
0.00132605
0.00199816
0.00572798
0.000591922
0.0123002
0.00672373
0.00138101
0.00672017
0.00870554
0.00146685
0.0143681
0.00781149
0.000157527
0.00672458
0.00544444
0.00835899
3.69723e-05
0.00672411
6.52196e-05
0.00672524
0.000192886
4.47435e-05
0.00046789
0.00084863
0.0043383
0.00674365
0.00613581
0.000758321
0.0100621
0.000692039
0.000245076
0.00520887
0.00180159
0.00673036
0.00672313
0.0016101
0.00445183
0.00142661
0.010931
0.000568929
0.00161648
0.0141662
0.000224904
0.00672405
0.00109648
0.00673016
3.87264e-05
0.00406977
0.000755955
0.00565217
0.00672569
0.00656899
9.33355e-05
0.00313939
3.20784e-05
0.0067627
0.000255401
0.00687387
3.81175e-05
0.00672412
0.000956687
0.00138822
0.000192106
0.0109002
0.0067267
0.00780807
0.000303399
0.000196832
0.00680014
0.00673127
0.0101759
0.000599278
0.00409325
0.00454128
0.000786196
0.00079117
0.000178872
0.0140061
0.00136067
0.000180381
0.0011227
0.00672676
0.00905826
0.0032936
0.0116678
0.00487019
0.0018737
0.00672404
0.00943351
0.011972
0.00672636
3.82443e-05
0.000699347
0.00672139
0.0047564
0.00674041
4.02431e-05
0.0139418
0.000316035
0.00234665
0.000536873
0.00672442
0.00331082
0.00144142
0.00672249
0.00050848
0.00335426
0.00117914
0.000271887
0.000537075
0.00671971
0.00659206
0.000709654
0.0067242
0.000243645
0.00100625
0.000382473
0.000668519
0.00684779
0.000446217
0.00354135
0.000328338
0.000344378
0.00130038
0.0139448
0.0011819
0.00198805
0.000439307
0.00463789
0.000149076
6.82145e-05
0.000154874
0.00672539
0.0042788
0.00672384
0.000251536
0.00110463
0.00101534
0.0090481
0.00702234
0.00794533
0.00672585
4.24197e-05
0.0126366
0.0147291
0.00528786
0.00315182
0.000780536
0.0110343
0.000841156
0.0010979
0.000371942
0.00686557
0.000313675
5.67371e-05
0.00047274
0.0110507
0.00021845
0.00673625
0.000191835
0.000754133
0.00242257
0.00304289
0.00141436
0.0132752
0.000322747
0.00806815
0.00113102
0.00192199
0.00286721
0.000429741
0.00883795
0.00233045
0.000977949
0.0115106
0.00806969
0.0004147
0.00185273
0.00095933
0.00175469
7.33652e-05
0.00105292
0.000256006
0.0145283
0.006745
0.00351317
0.000201071
0.00027333
0.00672103
0.00672364
0.000239276
3.83302e-05
0.00456855
0.000466803
7.71899e-05
0.000173636
0.00782084
0.0114139
0.0143842
0.0141709
0.000637089
0.00674778
8.39915e-05
0.00625259
0.00723062
0.00429019
3.46411e-05
5.80131e-05
3.17217e-05
0.00411911
0.0067257
2.79491e-05
0.00222239
0.00214163
3.21044e-05
0.00581693
0.0067265
4.1978e-05
0.0139231
0.00223859
9.09086e-05
0.000467286
0.00672902
0.000518668
0.0129102
3.87753e-05
0.00672565
0.00378386
0.000521327
0.00207081
0.00672508
0.00230089
0.00242405
0.00313239
0.00242919
0.000312115
0.00023173
0.000176736
3.48178e-05
0.00107839
0.0102906
0.000627541
0.00196993
0.000628886
0.00230877
9.98241e-05
0.0066922
0.000567045
0.000415876
0.000575879
5.85501e-05
0.00331291
0.000186475
0.00289683
0.00988858
0.000331667
0.00383264
0.00508733
0.00426027
0.000155389
0.001194
3.97874e-05
3.84255e-05
3.81847e-05
0.000520535
0.000322806
0.00511172
0.00264673
0.00930631
0.000341082
0.000119831
0.0039109
0.00452363
0.000529461
0.0140742
0.00672172
0.00608385
0.000149707
6.7214e-05
0.000274118
0.00519524
0.00672294
0.000954063
0.00297924
0.00250801
0.00130937
8.88658e-05
0.000235239
0.00391381
0.00294038
0.00270957
0.00672505
0.0104852
0.00208145
0.00932264
6.73551e-05
0.00421141
3.62143e-05
0.000299954
0.0110932
0.00240517
0.00196842
0.00673295
0.00672416
0.00277977
3.69503e-05
3.76591e-05
0.013529
0.00672417
0.00317653
5.10542e-05
0.00672542
0.000946629
0.00087712
4.58978e-05
4.4529e-05
0.000208198
0.000247638
0.00673905
0.000567507
0.000273721
5.32357e-05
6.78546e-05
0.000208791
0.00672312
8.2078e-05
0.00586289
0.000275397
0.0121763
3.70257e-05
0.00313896
6.50806e-05
0.00332988
0.000680984
0.0018219
0.00321846
0.000380642
0.00243835
0.011232
7.31221e-05
0.00021008
6.85349e-05
0.000182907
0.00872503
0.0140674
0.000436825
0.0125532
0.000116586
0.00537588
0.000110045
0.0146869
6.48013e-05
0.00672533
0.000459103
3.3943e-05
0.000316883
0.00270454
0.0030185
6.42418e-05
0.00672462
0.00555257
0.00143577
0.000140689
0.0067256
0.00675329
0.0125367
0.000843398
0.00728011
3.61708e-05
0.0139227
0.000458115
0.00673544
0.00108474
0.00675352
0.000159078
0.000742975
0.000450542
0.000779551
0.000238666
0.00675866
0.0131755
0.00092242
0.000483825
0.0120078
5.51447e-05
0.00603798