/*--------------------------------*- C++ -*----------------------------------*\
| =========                 |                                                 |
| \\      /  F ield         | OpenFOAM: The Open Source CFD Toolbox           |
|  \\    /   O peration     | Version:  v2012                                 |
|   \\  /    A nd           | Website:  www.openfoam.com                      |
|    \\/     M anipulation  |                                                 |
\*---------------------------------------------------------------------------*/
FoamFile
{
    version     2.0;
    format      ascii;
    class       volScalarField;
    location    "600";
    object      ddt0(k);
}
// * * * * * * * * * * * * * * * * * * * * * * * * * * * * * * * * * * * * * //

dimensions      [0 2 -3 0 0 0 0];


internalField   nonuniform List<scalar> 
13917
(
-8.71452e-08
-5.5813e-08
-0.00161776
-1.39978e-07
-1.60753e-08
-9.4954e-07
-0.00131446
-0.00176119
-0.000387234
-2.52063e-07
-2.84426e-07
-6.3066e-07
-1.45973e-07
1.82996e-05
-1.30219e-08
-2.30748e-08
-5.10242e-08
-1.42708e-07
-6.32395e-07
-6.76294e-08
-8.95862e-09
-0.00119861
-5.30121e-08
-0.00209643
-4.28429e-08
-0.00116352
2.81495e-07
1.17162e-08
-6.51853e-07
6.48288e-08
-7.99265e-08
-7.72769e-08
-2.0567e-07
-6.16447e-08
-2.11433e-08
-0.00068012
-5.38643e-08
-0.000132675
-1.93005e-07
-0.000411553
-2.05606e-07
-5.04768e-09
-1.69904e-07
-3.29271e-08
-1.02133e-07
1.05919e-07
-1.51655e-07
-9.39489e-08
1.43677e-06
-1.34902e-07
-1.88436e-07
-1.68481e-08
3.31026e-06
-3.90332e-08
-5.26697e-08
-1.58558e-07
-2.82629e-07
-7.86716e-08
-1.29313e-07
-9.81723e-08
-0.000981177
-5.53279e-08
0.000214198
-7.76059e-08
-8.85928e-07
0.0166764
6.14186e-09
3.26154e-09
2.78674e-07
-5.42086e-08
-1.03413e-08
-0.000676922
0.000308434
-3.45784e-08
6.11671e-07
-8.94081e-07
0.000235185
-1.22626e-07
-0.000976918
-9.30584e-09
-3.29804e-08
6.95709e-09
-1.5642e-06
-0.000186017
-0.000253123
-1.21279e-07
-4.74476e-08
-0.0341497
-1.83365e-07
-1.67494e-07
0.000254291
-2.3115e-09
-8.88242e-08
-3.99158e-08
0.0407727
-4.39444e-06
-1.0048e-07
-1.15267e-07
-1.04814e-06
5.3877e-07
-1.63561e-07
-1.0395e-07
3.82562e-08
-1.40713e-07
-1.23313e-07
-0.000531498
1.66767e-07
-9.48309e-08
-5.06343e-08
-9.63191e-08
0.000163497
-0.000490112
-6.98896e-07
-0.000461788
-6.32663e-09
-3.94597e-07
-5.28086e-08
7.60833e-07
-0.000389947
-1.49709e-07
-4.38262e-09
6.1949e-07
-0.000355087
1.00734e-07
-1.5849e-07
-3.94116e-08
-8.38524e-08
-1.61975e-07
-1.97743e-07
-4.99329e-06
-0.000529173
-6.6929e-09
-9.69665e-08
-6.36797e-09
0.0111585
-0.00217162
-7.78812e-08
7.89036e-08
6.41648e-09
-9.09306e-08
-8.73929e-05
-1.20505e-07
-2.78986e-08
-1.76807e-07
5.24517e-09
-0.00187495
-4.41282e-07
-1.63174e-08
-1.09837e-07
-7.36526e-08
-2.45436e-07
-2.94709e-07
-3.32872e-07
6.03809e-08
-1.19218e-07
-0.000307333
-5.15613e-08
-0.0025083
0.000238144
-0.0324067
-2.92098e-08
-3.61135e-07
-1.06633e-08
-1.37368e-07
-6.93378e-07
-1.18432e-06
-1.37973e-07
-1.93591e-07
-9.58444e-08
-1.21516e-07
-8.84898e-08
-2.38269e-05
-8.59422e-07
-4.26819e-08
-0.00289578
9.69664e-08
-0.000579585
3.89554e-07
-0.0021883
-9.93173e-08
1.66054e-07
-1.01127e-07
-1.19529e-07
-4.81281e-08
2.02501e-07
-0.0012993
3.23433e-07
-0.000285865
-1.87385e-07
-7.86251e-07
-5.13074e-05
-0.000279786
-7.51996e-07
-4.66131e-08
-7.00799e-07
-1.90205e-07
-2.77815e-07
-9.07493e-08
5.93153e-08
-0.00871456
-1.95533e-07
-1.3396e-07
-2.21197e-07
-2.58853e-07
0.00028755
0.000953485
-1.99531e-08
-8.04958e-08
-1.27217e-07
-0.00151073
-3.49959e-08
-0.0012777
0.000250859
-7.70286e-07
-1.1607e-07
-1.90844e-08
-1.64286e-07
0.000124693
-7.04728e-08
-0.00138414
-1.00424e-07
-1.33453e-07
-1.98547e-07
-6.23327e-05
-0.000412184
-2.72444e-08
0.000179236
-1.23475e-07
-1.14964e-07
-0.00067598
-8.96847e-07
-1.8893e-07
-0.00217568
0.000229135
-1.89795e-07
-8.77827e-08
0.000263629
-0.000239483
-2.95268e-08
-1.06042e-07
-0.000477988
1.56197e-07
-1.33475e-08
6.25764e-06
-9.74223e-08
1.42039e-08
-9.6015e-08
-2.45867e-08
3.11787e-07
0.000246015
-1.1269e-07
-2.60634e-07
-1.67158e-07
-8.44917e-08
-7.59472e-08
-3.85778e-07
-0.00052223
-3.48624e-07
1.46334e-07
-2.61672e-08
-9.63622e-09
-0.000344944
-0.000540253
0.0410895
-1.28229e-07
0.000319388
0.000268979
-0.00343041
-0.00092718
-9.39067e-07
-2.48876e-08
-1.70657e-07
-1.60899e-07
7.88097e-05
2.57724e-07
-1.27875e-07
0.00193195
-5.32897e-07
-2.13942e-07
-0.00119121
-7.43227e-08
-0.00284912
-1.86221e-07
-2.71188e-08
-2.34934e-08
2.74948e-08
-4.87574e-07
6.6111e-06
-1.03311e-08
-1.22867e-07
0.000117143
-0.00230501
-0.000361924
-6.95236e-08
-0.00329339
6.04436e-09
-1.21997e-07
-5.23417e-08
-1.80213e-05
-1.01408e-07
-3.50225e-07
-8.94568e-08
-9.8222e-08
-2.25552e-07
-5.09318e-08
2.8827e-07
1.0629e-07
-9.72417e-08
-1.1707e-07
-7.46893e-08
0.000123356
-0.000325352
-5.28577e-08
-1.89812e-07
-0.00129558
-9.26296e-08
0.000320857
-1.16491e-07
-8.17324e-05
-1.15102e-07
-1.41342e-07
-2.42898e-07
2.05689e-07
-1.6079e-08
0.106265
-1.5264e-06
-2.60687e-08
1.7098e-07
1.00493e-06
-6.27688e-08
-0.000387217
-8.02107e-07
0.000173705
-5.47693e-08
-0.000360085
-9.45629e-08
-8.77447e-05
1.9543e-06
-1.92275e-07
-2.9919e-07
-0.00142424
-1.34921e-08
-1.05496e-07
0.000174065
-5.75333e-08
-3.27922e-08
0.000124148
9.26405e-08
-4.63515e-08
4.44236e-05
-7.5006e-07
-1.51476e-07
-0.000317147
-8.79869e-05
-8.09499e-08
-1.0616e-07
1.572e-08
-1.13767e-07
-2.40623e-05
-0.00246897
-1.3975e-06
0.000138923
-3.75255e-08
-3.5232e-07
-0.000111003
-2.73239e-07
-0.00117129
5.42542e-05
-0.00037184
-1.68271e-07
-0.00175047
-1.23926e-07
-0.00201872
-9.65104e-08
3.7312e-07
-1.09314e-07
-1.68301e-07
-1.95619e-08
-1.55602e-07
-8.35801e-08
-1.19384e-07
1.54212e-06
-5.88474e-05
7.98311e-05
3.43848e-07
-3.87439e-07
-1.04178e-07
-0.000261958
-0.00115308
-8.00593e-08
-0.00148884
-2.22151e-08
-2.41548e-05
-1.145e-07
-1.28814e-08
-4.21867e-08
-0.000644989
-4.10824e-08
-0.000554496
1.81606e-05
-3.19436e-07
3.81173e-07
-6.17248e-08
6.43954e-07
1.26296e-07
-6.53719e-08
-3.62577e-08
-6.29356e-08
-2.6447e-08
-9.62173e-08
-1.99454e-08
-2.47378e-08
-1.12106e-07
9.51211e-06
-8.53319e-09
-0.000442291
-0.000777415
-4.16471e-05
-7.89783e-07
-0.000641841
0.00018492
-2.70278e-07
-4.02572e-08
-1.21578e-07
-1.84841e-07
-8.90995e-08
-4.66583e-08
-0.00213275
-0.00135693
-0.000775619
-2.86438e-08
-9.87158e-08
-6.84654e-08
-2.01576e-07
-1.1974e-07
-3.83465e-08
0.0010478
-5.47378e-08
-9.23577e-08
0.000347219
-0.000567706
-0.000617887
-1.20975e-07
-2.10657e-05
-0.000435289
0.000347772
0.000180779
-2.02175e-07
-1.49021e-07
-3.72729e-08
-6.74354e-08
0.000597739
-1.49779e-07
-2.21535e-07
-1.19499e-07
-2.60251e-07
0.000166043
-6.37931e-08
2.11805e-07
0.000257305
-1.12336e-06
-0.000477497
-9.33201e-09
-7.78311e-08
-2.80168e-07
-4.77323e-08
-1.65476e-07
-0.00132597
-9.90388e-06
-1.42143e-08
-0.000295093
-1.60075e-07
-1.53618e-07
0.000374823
-8.74967e-07
-3.6378e-07
-0.000116468
1.82098e-07
-1.2114e-07
3.96143e-08
-4.05843e-07
-1.06717e-06
2.60173e-06
-4.9784e-07
-9.30825e-08
-2.46997e-07
-0.000603953
-1.86871e-07
-1.39997e-07
-5.31767e-08
-1.3089e-07
0.000154901
-0.000660187
-9.87079e-08
-2.26446e-07
-0.00165786
0.000149922
-2.32445e-08
-0.000424588
-1.32463e-07
-6.22619e-07
-9.29898e-08
0.000293747
-0.00024121
-7.6171e-08
-6.62728e-08
-0.00068463
-3.00434e-07
-0.000111919
-9.37131e-09
0.000253697
8.04206e-07
-0.00111415
-1.37622e-07
-0.000234514
0.00020371
-2.85031e-07
-1.05937e-07
-5.49282e-08
-9.37869e-07
5.91465e-05
-2.3148e-07
-1.037e-07
-1.35946e-07
-1.39968e-07
0.00029302
2.11993e-05
-2.85651e-07
-1.48505e-06
-1.76375e-07
-1.57626e-07
-1.4329e-07
0.000439205
-1.70525e-07
-1.02115e-07
-2.90324e-08
3.85666e-09
-0.00156418
-0.000287182
-3.29838e-08
-8.2234e-09
-0.00207839
-3.95637e-07
-2.43436e-07
-7.89749e-08
-4.7123e-08
-6.09097e-08
-1.34175e-07
-2.20423e-07
-4.06779e-07
6.03279e-07
-3.06408e-08
0.000805977
5.69487e-08
-6.18004e-08
0.00025938
8.22142e-09
-3.03318e-08
-1.57928e-07
-0.000432646
-1.88307e-07
-1.99123e-07
-1.0638e-06
-1.33151e-07
-7.2684e-05
-9.52178e-09
6.22082e-07
-2.61494e-07
-1.69283e-08
-0.000216245
-6.42453e-07
-0.000812678
-5.71864e-08
-1.69071e-07
-1.14618e-06
6.53811e-05
0.000116783
-9.56493e-08
1.63886e-07
-2.22126e-08
-9.12648e-08
-8.19765e-08
-5.96477e-07
-2.40897e-07
3.95872e-09
-1.77441e-07
-1.62783e-07
-0.000850457
-0.000131667
-4.8429e-08
-1.43606e-07
0.00020028
-3.98769e-08
-3.15105e-08
-1.02712e-06
-0.00107292
-0.0018198
-2.47736e-06
-1.96613e-07
-0.000350004
-9.1504e-07
-2.2479e-07
-1.39398e-07
-1.6264e-07
-8.2616e-08
2.05864e-07
-0.00100627
-1.89073e-07
-3.76511e-07
-0.000225487
-1.22233e-07
0.000213097
-1.78904e-08
-3.88484e-08
-0.00367329
-0.00101378
2.33927e-06
-1.2332e-07
-4.23178e-08
-8.13482e-09
-5.27249e-07
1.14913e-06
-1.2667e-06
-9.275e-08
-2.45067e-07
-1.44825e-07
-9.3216e-08
1.79843e-05
-1.25979e-06
0.000392569
-8.31229e-08
-4.62056e-07
-1.27223e-07
0.000121879
-2.61816e-07
-1.21769e-07
-1.67583e-07
-1.70874e-07
-1.36375e-07
-8.40778e-08
1.30864e-07
6.89064e-08
-3.22254e-05
2.10251e-06
-1.7644e-07
-1.50451e-07
1.20336e-09
4.84694e-06
-0.00116463
-1.19008e-07
7.01103e-09
-1.01799e-07
-2.62772e-07
-1.32755e-07
0.000258189
-1.59274e-08
-6.8568e-06
-2.52335e-07
-6.21625e-07
2.11579e-08
0.000316685
1.18214e-07
-5.78414e-08
0.000133237
9.69847e-05
-8.06104e-08
-1.56043e-07
-0.00012089
-3.15061e-07
1.72034e-07
-3.67246e-08
-7.11359e-08
2.48854e-07
-1.70833e-07
-1.13738e-07
-3.92941e-07
-1.38778e-07
-2.92686e-07
-0.00168867
-1.14497e-07
-1.24583e-07
-1.28112e-07
-0.000297722
-2.99942e-09
-2.65249e-08
-2.30888e-05
-3.27836e-08
-0.0012424
-1.17609e-07
-1.84369e-07
-1.27863e-07
-2.10659e-07
-4.99928e-08
-1.15832e-07
-1.72691e-07
-3.27048e-07
-1.32158e-07
9.90603e-06
-8.82284e-07
0.000470603
-2.75172e-07
-1.61151e-08
-2.30557e-07
-8.51315e-08
-4.62724e-05
0.000195421
-1.45155e-07
-2.99638e-08
1.44197e-05
5.29761e-06
0.000902091
6.72348e-06
-1.82492e-07
-0.000899218
-7.39018e-08
-4.95981e-07
-6.20411e-07
-2.07129e-08
-1.48499e-07
-5.92196e-07
-1.48566e-07
-1.40114e-07
-1.11142e-07
-2.98004e-08
-1.35182e-07
-2.58325e-07
-8.2915e-08
-6.50203e-08
-4.49823e-08
-1.70718e-07
-1.4987e-07
-1.43863e-07
-1.0627e-07
-1.98133e-08
-2.48766e-08
-5.11206e-09
-3.68613e-08
-1.59532e-07
-6.78172e-08
-1.25705e-07
0.000286049
-6.69739e-07
-5.4933e-06
-1.68722e-07
-3.465e-08
-1.46162e-07
-1.3343e-07
-5.11677e-09
-0.000910987
-1.6523e-07
-0.00320026
-2.56954e-07
-1.95088e-07
-1.31848e-07
-1.00853e-08
-1.49811e-07
-4.95354e-08
-8.05584e-05
-4.33626e-08
-0.000657166
-6.8563e-08
-0.000132511
4.5433e-07
-5.58914e-09
-8.61299e-07
-1.44634e-07
1.36063e-11
-6.66069e-07
-3.52933e-09
-5.6783e-08
-0.00126033
-4.11555e-08
-9.79035e-09
-1.41638e-07
-1.09405e-07
-2.34872e-07
-7.8748e-08
2.05762e-06
-6.29314e-05
-8.16648e-08
-1.14294e-07
-2.08035e-07
4.68266e-05
3.00214e-08
-6.82957e-08
-5.23192e-08
-0.0013074
-0.00245927
2.82473e-05
2.26005e-07
-1.40931e-07
-1.89728e-07
-2.26194e-07
-4.86882e-07
-8.64184e-08
2.8514e-05
1.37786e-07
-0.000336373
-5.36678e-08
-3.24383e-08
-6.52601e-07
-2.26289e-08
-1.9036e-07
-8.73985e-08
-9.99653e-08
-9.72981e-08
5.3031e-07
-1.10541e-07
-0.00122453
-0.000510045
5.84827e-08
-6.41363e-08
-1.48972e-07
-9.79487e-07
8.69321e-05
-2.47998e-08
2.04361e-05
-1.53434e-07
-8.05849e-08
-1.27074e-07
-1.27602e-07
-3.92537e-06
-1.16982e-07
-0.000151142
-1.20408e-07
-1.35175e-09
-1.67516e-07
5.78735e-09
-1.07672e-07
-1.22927e-07
6.5314e-08
-1.20388e-07
-1.26776e-07
-0.000424176
-0.00147096
-3.77356e-07
-7.76301e-08
-1.06866e-07
-1.62989e-07
-1.11364e-07
3.43295e-08
0.000277897
-3.85317e-07
-3.06422e-08
-6.89701e-08
5.2412e-05
-2.17464e-07
0.000131549
-6.96968e-09
-3.85635e-09
-0.000321814
-2.23588e-07
-1.17839e-07
-9.37899e-05
4.04478e-08
-1.05256e-07
-2.25125e-07
-1.52378e-07
-1.17794e-07
-1.58524e-07
0.000345817
-1.72843e-07
-1.09314e-07
-1.13493e-07
-8.84425e-05
-1.7441e-07
-4.867e-07
-1.32406e-06
-1.27594e-07
3.48142e-09
-4.91075e-08
0.000129521
-8.68905e-08
-1.22372e-07
-1.22257e-08
-8.92926e-07
-5.80779e-09
-1.58084e-07
-0.00048653
-0.00229925
-3.85933e-08
-0.000158057
-1.79803e-05
-7.76739e-08
-0.000330278
-0.000744923
-1.64215e-07
-0.000641668
-0.000334065
-0.000105394
3.05283e-07
-5.22284e-08
-0.000959535
-2.18123e-07
-0.00105821
-1.34629e-07
-8.82554e-08
-6.58422e-08
-5.33239e-08
-1.7498e-07
-2.13356e-07
-0.000278832
-9.24387e-08
-9.43287e-09
-0.000131625
6.38633e-07
3.90081e-09
1.2756e-06
-1.49035e-07
-1.18077e-07
1.94219e-06
4.7053e-07
-3.30755e-08
-1.68573e-07
-0.00045528
1.31811e-05
4.87772e-07
-1.34377e-07
-3.19766e-07
-2.17305e-07
-0.000139006
-0.000250671
-9.81707e-07
-9.1592e-08
-1.296e-07
-5.28257e-08
-1.84248e-07
-4.05612e-08
-2.00964e-07
-6.28694e-08
-7.47646e-08
-0.000295667
1.15068e-07
-1.11295e-07
-2.80905e-07
0.000377273
-9.07806e-08
-3.91427e-08
0.000215654
-1.00068e-07
-6.06647e-08
4.74503e-08
-0.000319586
2.72207e-09
-8.17476e-08
-0.00120438
2.75142e-05
-0.000832688
-1.46672e-08
-0.000708889
-9.47071e-08
-2.30394e-07
-4.10453e-08
-7.47431e-08
-2.84547e-08
-0.00129883
5.90484e-05
-1.31986e-07
-1.76907e-07
-8.66523e-08
-0.000816235
-3.88234e-08
-1.74803e-07
-2.84802e-09
-4.69144e-08
-1.54919e-07
-1.275e-07
-1.1943e-07
-5.82207e-07
-0.000651056
-8.37317e-08
-8.92511e-08
-4.1794e-08
0.000312338
0.000368958
-2.71926e-08
0.000138617
-9.19578e-08
5.83211e-08
-1.31608e-09
-0.000663019
-6.311e-09
-1.53822e-07
-5.62357e-08
2.16703e-07
-0.00153853
0.000174773
-6.23029e-06
-0.000878267
-1.81152e-07
3.63747e-06
-1.27614e-07
-3.17252e-08
-0.0011502
-6.88685e-08
-1.72484e-10
-5.74047e-08
-1.07717e-07
-0.000292214
-1.5281e-07
-5.33108e-08
-2.76766e-07
-1.27697e-07
-1.93408e-07
3.75613e-06
-1.69802e-06
-9.16275e-05
-8.23884e-07
-2.131e-07
-4.8836e-07
0.000153461
-3.82425e-07
-0.0025179
-0.00109769
-1.78216e-07
-1.25023e-07
-0.000600164
0.00083225
-1.97713e-08
-1.73614e-08
-1.7767e-07
-1.17737e-07
-1.7873e-07
-1.07442e-07
-7.11384e-08
5.39257e-12
-1.75897e-07
-1.43211e-07
-1.18399e-07
-1.17743e-07
-1.24052e-07
5.76778e-07
-1.76442e-07
-2.0372e-08
-1.47927e-07
-1.45996e-07
-1.24186e-07
-1.2939e-07
-8.88617e-06
-2.94694e-07
-0.00153355
-2.66586e-08
-6.03762e-08
-1.62883e-07
-8.82548e-08
-1.70961e-07
-3.09096e-07
-1.17785e-07
-1.33025e-07
-1.29059e-07
-0.00151838
-2.31064e-08
-3.75414e-07
0.000121813
6.30331e-06
-9.83378e-08
-3.32732e-08
-0.000396877
-7.12878e-08
-1.04837e-07
-0.000145895
0.000377872
3.29754e-08
-4.78288e-06
-7.53257e-08
-1.24394e-07
-0.00133943
-5.65192e-08
-1.43907e-07
0.000152155
-1.25643e-07
-0.00104117
-3.63866e-08
-1.40877e-07
-6.72126e-08
-1.6515e-06
-0.000559393
-6.16971e-08
-6.5811e-08
-9.26049e-08
-7.22978e-09
-1.09899e-07
3.42943e-06
-1.23619e-07
-1.03953e-08
-0.00241909
4.97441e-07
6.04396e-06
-0.000496095
-8.31446e-07
-1.31552e-07
-4.03388e-08
-8.04435e-08
-5.66084e-07
-3.61894e-08
-0.000546975
1.06192e-05
-2.65562e-08
-0.00108172
3.38322e-07
-1.76839e-07
-2.53166e-06
9.18173e-08
-2.18206e-06
-0.00161848
4.03356e-07
-0.00157372
-0.000244088
-5.47181e-07
-1.54628e-08
0.000129762
-9.79918e-08
-1.36433e-07
-1.41971e-07
-0.00144763
-7.48503e-09
-9.91052e-08
1.56525e-07
-1.84443e-07
-7.6396e-08
5.19813e-05
-3.39997e-08
-0.00112062
-4.6902e-07
-0.000151553
2.8113e-07
-6.48072e-07
-1.48307e-07
-1.25965e-07
-4.28019e-08
-0.0019154
-6.01993e-08
-9.98267e-09
-2.35484e-07
-4.46144e-08
-9.1447e-08
-4.21706e-07
-9.7997e-07
4.64052e-07
1.2768e-06
-1.65588e-06
-0.000808969
-6.97483e-07
-9.66748e-08
-0.000314258
-0.00117479
-1.47724e-07
-1.08221e-07
-1.62488e-07
-8.93964e-05
-2.36616e-08
-8.22122e-08
-1.99565e-06
-1.74083e-08
-2.81222e-08
-1.33816e-07
-1.26148e-07
-2.19949e-08
7.93694e-08
-1.24982e-07
-0.000208599
-0.000939107
-4.49899e-08
0.000189372
-5.79104e-07
0.00709394
-3.52361e-08
-1.63546e-07
-0.00178059
-0.000434129
-9.46831e-07
-8.91925e-06
-9.32058e-08
-9.8849e-09
-1.23297e-07
-5.50226e-08
-2.69753e-08
-2.76539e-08
8.75573e-08
-8.69204e-08
-4.21347e-07
-1.02537e-07
-1.46304e-07
-1.32174e-07
-1.24004e-07
-3.78332e-07
0.000261414
-7.49983e-08
-7.70746e-07
-1.22608e-07
-0.00235989
-2.17729e-08
-2.80009e-07
-3.48774e-08
-3.15655e-07
0.000301152
-5.77662e-07
-9.09521e-08
1.33104e-07
-7.73984e-08
-9.13562e-08
0.000344121
-1.12819e-07
-3.14994e-08
-1.09782e-07
-1.40077e-07
-0.00113162
-8.65896e-08
2.1189e-08
-1.25444e-07
-4.76403e-08
4.35887e-07
-4.35205e-08
-1.81566e-07
-3.26917e-08
0.000257423
-8.2472e-08
-0.000174527
-0.00196919
-1.46705e-07
-0.00059596
-7.3611e-08
-1.79892e-07
4.12111e-08
0.000206528
-1.33651e-07
-4.92517e-08
-3.22523e-07
-0.0961661
-1.04472e-07
-3.48387e-05
-1.12546e-07
-8.2577e-08
-1.22054e-07
-1.5995e-07
-5.82518e-06
-3.61244e-08
-1.68192e-09
-2.30683e-08
-1.39498e-07
-2.84095e-08
-1.09316e-07
-3.52191e-07
-4.29725e-06
-0.00131466
-1.83184e-07
-2.85051e-07
-0.000559864
-0.000407621
-3.6068e-07
-2.08142e-07
-0.000103412
-2.05173e-07
-0.00164797
-1.50872e-08
0.000382937
-1.6144e-05
-1.43412e-07
-2.02399e-08
-9.01216e-08
-1.23427e-07
-1.14935e-07
-1.30084e-07
-2.8748e-08
-1.02228e-06
-1.21127e-07
-2.55932e-07
0.000253732
7.33768e-10
-1.57182e-07
-0.000361633
-1.1454e-07
-0.00041101
-1.57852e-07
-9.39945e-07
-1.09521e-07
0.000250092
1.36975e-05
-7.50717e-08
-1.28762e-07
-0.000641106
-1.55631e-07
-0.000116877
-1.15749e-07
-1.26096e-07
-0.000916828
-1.35054e-07
-8.70851e-08
5.98864e-05
-8.9772e-09
-1.26712e-07
-9.7708e-08
-1.60595e-07
-1.872e-07
-0.000894593
-3.50218e-05
-6.40329e-08
-1.4317e-07
-7.03042e-08
-6.48887e-08
6.01392e-07
0.000205289
-4.4357e-08
5.85794e-08
-0.00357289
0.000203947
-0.000660377
-1.35138e-07
-1.5296e-06
-1.31177e-08
-8.84908e-08
-2.56832e-08
-3.77908e-07
0.000164893
-1.97641e-08
2.17911e-08
-0.00200828
5.11083e-06
-3.6492e-06
3.89452e-08
-6.26312e-08
-8.85428e-09
-8.38728e-10
-1.68124e-05
-1.74938e-07
-1.51867e-07
-1.2769e-07
-1.23913e-07
-6.81393e-09
-9.01049e-08
-1.04175e-08
-2.80973e-07
-4.47142e-07
-0.00262225
1.35743e-06
-1.97024e-05
-0.000572452
-1.66148e-09
-1.83079e-07
-1.59984e-07
-4.2557e-08
0.000224925
-5.60948e-08
-3.57884e-08
-2.17611e-07
-1.0757e-07
3.54719e-07
-0.00056878
-0.000126787
-9.77697e-08
-8.47246e-05
-1.71779e-07
-1.13529e-07
-1.51849e-07
-1.51768e-09
-1.14072e-07
9.74533e-08
-0.000916669
-1.24587e-07
-0.00134027
-5.95057e-08
-1.36163e-07
-4.20956e-08
2.7243e-07
-8.5349e-08
-1.56535e-07
-0.00125266
-5.98826e-08
9.74626e-06
-0.000709459
-2.33606e-08
9.27967e-07
-1.15692e-07
-0.000483409
-8.23789e-08
-7.61273e-10
-0.00110848
-1.64348e-07
1.96655e-08
-1.90806e-09
1.08022e-05
-1.58541e-07
-3.23702e-06
-1.24071e-07
9.96928e-09
0.000229364
-1.29767e-07
-9.84816e-06
-6.16752e-08
-1.19331e-07
-2.20603e-07
-2.57528e-08
-0.000216911
-3.09526e-08
-2.52144e-07
-1.27748e-07
2.08328e-06
-2.29664e-08
2.25473e-07
-4.42151e-08
-0.00200757
-1.19878e-07
-0.000393214
1.39306e-07
-3.63319e-07
-8.07121e-08
-1.12518e-07
-3.45248e-08
-8.78613e-07
-0.0018826
-4.28247e-08
-1.11021e-07
5.80516e-07
-1.28805e-07
-0.000237603
-9.95628e-08
-0.00148413
-0.000105037
-8.01442e-08
-6.04666e-08
-9.04443e-08
-7.78139e-09
-1.95684e-07
-7.6068e-08
1.89067e-07
4.43835e-07
-7.13506e-08
-7.96377e-08
0.00184653
-1.47191e-07
-7.86933e-08
-0.000621166
-3.12478e-08
0.000161411
-1.94892e-07
-2.93293e-07
-1.06866e-07
0.000207078
0.000125161
-0.00190848
-0.00186772
-1.06302e-07
-1.41115e-06
-0.000114203
-9.64385e-07
-6.07885e-08
-1.97963e-08
-1.15426e-07
-0.00103351
-0.000419172
-4.47336e-05
-1.1237e-07
-9.63629e-07
-2.00542e-07
-0.000692038
-1.82626e-05
-3.03943e-07
6.97939e-08
-3.55566e-08
-1.79128e-07
-1.01504e-06
-6.9736e-08
-2.96017e-08
-0.00113852
-1.07383e-08
-0.00218004
-1.34191e-09
-1.16441e-07
7.45716e-05
0.000162173
-1.58195e-07
-1.13207e-07
-7.58105e-08
-1.23145e-07
-6.88092e-08
-4.00728e-07
-1.32402e-07
-8.00947e-08
-6.75155e-08
-4.00314e-07
-1.03078e-07
-9.33383e-08
0.00011716
-2.01266e-08
0.000279476
-9.63181e-05
-0.000238861
-3.72324e-08
-1.40814e-07
-0.000338576
-2.05556e-07
-0.000913695
-0.00166206
0.00242738
-4.79161e-08
-3.15156e-05
-0.000615083
-1.91037e-07
-4.78756e-08
-1.58038e-07
1.69873e-05
-0.0016761
-1.25158e-07
-7.96587e-08
-0.000596701
-0.00645782
0.00110602
-6.55e-08
3.26966e-08
2.14978e-07
-6.88022e-08
-0.000544808
-0.000305646
-0.00104984
0.0058081
-3.16091e-08
-9.99134e-08
-1.58953e-07
-8.78849e-08
-0.000272281
-3.19425e-07
-1.8095e-07
-6.23883e-09
-3.21079e-07
-5.15748e-05
-4.01099e-07
-0.00171393
-0.00016898
-0.000351778
3.56108e-07
-2.42186e-08
-4.13114e-08
-0.00159468
-1.614e-07
-1.33441e-07
-3.73827e-08
4.76179e-06
-2.08938e-07
-0.000254355
2.37132e-09
-3.86262e-08
0.000348533
-1.24599e-07
-9.05543e-08
-0.000130983
-1.63446e-07
1.34274e-07
-1.1846e-07
-1.93876e-05
0.000230838
-7.46515e-09
-0.000722061
-0.00389328
-0.000303965
0.00447109
2.39077e-07
-1.00467e-07
-1.02805e-07
-0.000287296
-1.3082e-07
-0.00206136
-1.1957e-07
0.000476419
0.000111353
-2.41614e-08
-2.21731e-08
-9.79997e-08
-4.02987e-08
-0.00012513
-0.000388095
-4.68545e-09
-0.000189384
-2.93472e-07
-7.94042e-08
-2.36048e-10
-9.01e-08
-4.58772e-07
-7.50179e-08
-1.23911e-07
-4.80952e-07
-1.00867e-07
-1.85554e-07
-2.97065e-07
0.000222697
-2.00367e-07
-3.81195e-08
-1.16032e-07
-2.91495e-08
-1.16146e-07
-1.96551e-07
-3.87248e-05
-0.000496659
0.000117483
-1.6241e-07
-1.71258e-07
-5.20471e-08
-1.38403e-06
-1.03922e-07
-4.88341e-08
4.84691e-07
-2.02788e-07
-0.000560915
-1.46097e-07
0.000337568
-0.000507684
-1.58286e-08
-6.58423e-05
1.28644e-07
-3.46577e-07
5.89815e-07
-5.45027e-08
-0.000292883
-1.16922e-07
-3.56211e-08
-6.10203e-09
-1.65188e-07
-9.92734e-06
-2.76677e-07
-1.22573e-07
1.62517e-07
-0.000568016
-0.00058086
-9.80922e-09
-1.47404e-07
-8.67095e-08
-8.11474e-08
2.82054e-07
-3.43188e-08
-1.12311e-07
-1.46554e-07
0.000150893
-1.26768e-07
-0.000873844
-1.49941e-07
0.000429194
-9.14982e-08
-1.60291e-07
-0.000313802
-8.23224e-07
1.12095e-06
-0.000904205
1.49342e-07
-2.22567e-07
-1.09474e-08
0.000157674
-2.30923e-09
-1.00606e-07
1.2584e-07
-7.1461e-07
-0.000299939
-0.000111268
-5.5252e-08
-0.000665279
-1.2985e-08
-0.00282153
-2.25073e-07
-1.51112e-07
-2.02368e-07
0.000361106
5.10919e-08
0.000387043
-0.000362813
-1.16469e-07
-2.36106e-09
-8.71143e-08
0.000292068
2.9243e-07
-1.4426e-07
-4.6181e-08
-2.88252e-08
-9.88179e-08
-2.06333e-07
4.62091e-05
5.63236e-08
-8.86043e-08
1.38108e-06
-7.85126e-08
0.000221515
-8.92137e-08
-3.77373e-08
-1.0422e-07
0.000381005
-1.68341e-07
-5.26486e-08
-0.00158803
-4.65049e-08
-7.17121e-08
3.38161e-08
-1.56409e-06
-4.06639e-08
-0.000309098
-1.19447e-07
6.24526e-06
-4.81759e-07
-9.34295e-08
-1.32289e-07
0.000196558
-1.35107e-07
-2.2402e-07
3.90456e-07
-0.000113453
-1.46145e-07
-2.12011e-07
-1.83582e-07
6.8049e-07
-3.64077e-09
-0.000162935
-1.90615e-07
-1.21009e-07
-1.73271e-07
-7.52158e-08
-1.14326e-08
4.84641e-06
-2.7007e-08
-6.23695e-08
-8.00141e-08
1.77912e-07
-1.37701e-08
-7.51104e-08
-2.68455e-07
-8.38605e-07
1.64381e-07
-9.16241e-09
2.62181e-07
-3.191e-07
-1.17701e-06
-7.02097e-08
-3.46467e-08
-3.05898e-07
-0.00248112
-1.76644e-06
-1.14638e-08
-0.000988561
-0.00123142
-1.04187e-08
-1.14289e-07
-1.72399e-07
-3.03223e-05
-1.99638e-07
-1.25137e-07
2.39178e-06
0.000403187
-2.0677e-07
-1.63117e-08
-0.000596757
-0.000392687
-7.0978e-07
-1.53904e-07
-0.00109485
-0.000605339
2.97189e-07
-4.82937e-08
0.000355434
-9.25519e-07
4.10794e-08
-1.00254e-05
-1.58208e-07
-1.74437e-07
-1.57367e-07
-2.02744e-07
-2.03185e-07
-0.000941926
0.000370713
-1.11756e-07
-0.00110582
-3.5558e-07
-0.000118598
-1.61122e-07
1.33816e-06
4.67323e-10
-1.00572e-07
-0.000194736
-0.000882099
6.115e-06
-0.00270515
-3.41144e-08
-1.52655e-07
-2.75901e-07
0.000105061
-0.000420939
-2.45187e-09
-6.50908e-08
1.64479e-08
-1.24091e-07
-1.84578e-07
-0.000866009
-0.000596475
-1.50159e-07
-9.5835e-08
-1.22437e-07
-2.05038e-05
3.17724e-08
-1.67753e-07
-1.14199e-07
-3.79711e-08
-1.1414e-06
-0.00102286
-0.000341285
-1.18192e-06
-4.04512e-08
-1.19947e-05
-2.78118e-07
-8.78439e-08
-0.00108995
-0.000108206
-2.82604e-08
6.09046e-11
-3.58932e-07
-2.36884e-09
-2.17082e-08
-0.000335932
0.000393238
-1.25018e-07
-1.9841e-07
-7.2263e-09
-8.55922e-08
-1.64638e-06
-1.37383e-07
-0.000753319
-5.06559e-08
-7.6115e-07
-9.21139e-08
-3.6111e-08
0.000348946
-2.16639e-07
3.71752e-07
-0.00029867
-6.47448e-08
0.000241101
6.2928e-08
1.46759e-07
-3.35212e-07
0.000145255
-0.000110098
-6.05564e-07
-1.05938e-07
-4.86984e-07
-1.33267e-07
7.5781e-08
-3.82461e-08
-0.000670741
-1.01198e-07
0.0127925
-0.000565777
-1.5453e-07
-1.09948e-08
-2.98681e-07
-1.85471e-07
-7.88561e-09
-7.60992e-06
-2.01274e-07
-4.63715e-07
-1.79771e-07
-3.92241e-08
-0.00130513
-3.45621e-08
2.79504e-06
-4.23351e-08
-9.14339e-08
-0.000285188
-0.00048809
-1.71956e-08
-2.84365e-08
-3.63303e-07
-1.2554e-07
-3.83444e-07
-1.98091e-07
1.08594e-08
-1.56701e-07
3.5299e-05
-6.63864e-09
-0.000877817
4.52783e-07
-4.06303e-05
-1.51673e-06
-1.34462e-07
-0.000431223
-2.12836e-07
-0.0015168
1.41979e-08
0.000160364
-3.02072e-05
-0.0017574
-0.00235245
-2.99523e-05
3.70598e-07
-1.19987e-07
-0.000708193
-8.12513e-08
-1.05404e-08
-6.33988e-06
-0.00217556
-2.05151e-08
-1.5148e-07
-1.11092e-07
-1.12505e-07
-2.31237e-07
0.000276361
-1.33747e-08
-2.8959e-07
-3.11096e-07
5.00712e-08
-5.08624e-08
-4.6051e-07
-1.50432e-07
-0.00109763
-2.81008e-08
7.44456e-08
-1.4871e-07
-1.96646e-07
-1.09963e-07
-0.00114148
-1.26803e-07
-1.11513e-07
-1.52568e-06
-0.00101953
-0.00115374
-1.25285e-07
-0.00134408
-1.75242e-07
1.49451e-05
-5.10186e-10
-2.40255e-08
-0.000294417
-5.43722e-07
-0.000142659
7.93242e-05
2.10905e-07
0.000457878
-8.41226e-08
-1.50213e-07
0.000124813
2.12684e-06
-2.40327e-08
-0.000552592
-9.33125e-08
1.93475e-07
3.1459e-08
-2.59532e-07
-6.9318e-08
-0.00248322
-0.00250688
-0.000112143
5.77983e-06
-1.32123e-07
-2.31533e-07
-0.000124738
-2.47013e-08
-5.8779e-08
-3.80364e-08
-2.35758e-07
-2.29981e-09
-0.000306095
-0.000399932
-0.000248655
-3.05218e-07
-1.29345e-07
0.000290486
-1.69764e-07
-2.38598e-07
-2.0511e-08
-0.000515799
-4.27114e-08
2.30763e-07
-0.000444768
3.54069e-08
-9.57706e-08
2.04759e-08
7.36633e-05
2.09233e-09
3.43026e-07
-1.17009e-07
-0.00164242
0.000344952
3.23427e-09
-8.64467e-08
-1.09374e-07
6.02352e-05
-1.74785e-07
-1.90702e-07
-1.13398e-07
-1.24035e-07
-8.40565e-08
-3.15621e-07
-1.53204e-08
-4.19976e-07
3.58038e-09
-1.15508e-07
2.10489e-05
-9.56129e-08
-9.62938e-08
-1.75152e-07
-4.39414e-09
-0.000509954
-9.29955e-08
-5.39248e-08
1.10378e-05
-5.2286e-07
-0.000664636
-2.24024e-08
0.000160689
-5.45838e-07
-0.000277214
-3.70465e-08
-2.64092e-07
-1.14877e-07
-2.11318e-07
-1.7913e-07
-5.07854e-07
1.86101e-06
0.000363393
1.19694e-06
-0.000501939
-2.33081e-08
-1.31441e-07
-2.59712e-07
-0.000920299
-2.13258e-09
-1.1391e-07
-2.89303e-08
-3.10247e-07
5.31922e-09
-0.000447022
-1.72415e-07
-0.00204404
-0.00110628
-1.71238e-06
-8.46867e-08
-0.001719
-2.46256e-07
-3.2975e-08
-2.61167e-08
-5.45547e-08
-0.00319672
-2.19885e-08
-0.000375705
-9.28965e-08
-1.93642e-07
0.000155266
-6.95822e-08
-3.56618e-08
-2.95432e-08
0.00023745
-9.15231e-08
-2.60361e-08
-1.56946e-07
-5.83027e-08
-1.17098e-07
-6.58803e-08
-2.27906e-06
2.01758e-07
3.34132e-08
-1.12215e-05
-0.000130082
-0.000495741
0.000263682
-1.48419e-07
-6.98837e-08
-1.90958e-07
-1.29114e-07
7.6994e-07
-0.00115854
-0.000290224
-1.59658e-07
-9.29603e-09
-0.000701981
0.000392124
-1.47326e-07
-1.07859e-07
-6.92191e-08
-0.000398036
-0.00108385
-1.07275e-07
-7.77481e-08
-2.56629e-08
4.27881e-05
-1.14595e-07
1.59213e-07
-3.00962e-08
1.30218e-07
-9.62052e-09
-1.4066e-07
-7.86174e-06
-2.15936e-08
-1.02835e-07
-9.54048e-08
-0.00149658
-3.85597e-08
-7.1672e-05
-5.29473e-08
-0.000238687
-5.11505e-08
7.71131e-07
-1.57874e-07
-9.43202e-08
-6.53096e-06
-0.00100053
1.81349e-06
-0.000501164
-0.000322768
-4.87531e-08
0.000181074
-2.48916e-06
-2.38072e-07
-0.00353308
0.000685002
1.1614e-07
-3.65116e-09
-0.00065191
-0.00013653
-1.23661e-07
6.5626e-08
-0.000456468
-5.13839e-08
-7.91021e-08
-1.13055e-07
-9.01222e-08
-1.54237e-07
-1.75878e-07
-8.40466e-06
1.17638e-06
-5.8148e-08
-2.173e-07
-6.77271e-08
-0.00239915
-9.73041e-08
-1.37656e-08
5.41285e-08
-1.07985e-07
-1.48165e-07
-4.28091e-08
-2.83461e-08
1.15676e-05
-7.85964e-08
0.000184961
-3.29815e-08
-8.05313e-05
-0.000728127
-6.47256e-08
-6.16332e-08
7.88984e-12
0.000391715
-1.63439e-07
-7.33423e-08
-2.05809e-08
2.8502e-07
0.00162693
-1.8035e-07
-0.000574271
6.35603e-08
-0.000677759
-5.84454e-09
-1.55309e-07
-1.27157e-07
-3.74338e-08
-0.000175801
-0.000337176
0.000168613
-5.84203e-08
-1.15295e-07
-1.686e-07
-0.00026279
0.000180027
-2.98798e-06
-1.17243e-07
-1.73098e-07
0.000361298
-1.08659e-07
-9.07754e-08
-1.71748e-06
-3.30451e-07
1.06832e-07
-1.65969e-07
-3.59946e-07
1.49338e-08
-1.14467e-07
0.000439732
-1.31862e-07
-8.1624e-08
-0.000106218
-1.10483e-06
-1.3141e-07
-0.000606937
-9.31169e-08
-4.11331e-08
-3.49088e-07
-2.75843e-07
-0.000168886
-1.28257e-07
-2.07829e-08
-9.63774e-08
-5.07938e-08
-9.58368e-08
8.84323e-06
-0.00342982
-0.000682011
-0.000587952
-0.000272337
1.50523e-07
0.000328133
-3.84805e-06
-2.5212e-08
-6.58161e-08
5.09045e-07
2.59237e-08
5.5099e-07
0.000194215
-4.09163e-05
-0.000790717
-3.25308e-07
-6.94383e-08
2.44728e-07
-1.0403e-07
-0.000209458
-1.6754e-07
-1.36379e-07
-1.10228e-07
-9.45458e-08
-9.96645e-08
-1.38986e-08
-6.49498e-06
-1.65152e-07
-9.38731e-08
-1.76914e-07
0.000278608
-1.0053e-07
0.000387915
-0.000477165
2.82154e-05
-1.64778e-08
-9.79841e-08
4.12151e-05
3.55801e-06
-2.58899e-08
5.04462e-07
-1.58093e-08
-5.56646e-08
-1.00818e-07
3.50227e-10
-2.39043e-07
-0.00240056
-1.14352e-07
-1.23518e-07
1.44734e-05
-0.00061919
-1.12241e-07
-8.80475e-09
-9.93178e-08
-0.000408439
-3.74038e-08
-1.71513e-07
-8.34699e-08
-7.17002e-08
-1.53308e-05
3.62336e-05
-0.000738575
-7.07604e-07
0.000408971
-0.00210323
-1.65361e-07
-2.20388e-07
-1.41659e-07
3.39573e-06
-1.19444e-07
-3.26554e-08
-4.84103e-08
-9.74609e-08
-1.28937e-07
0.000130317
-1.25552e-07
-3.9817e-07
-1.41723e-07
7.67703e-09
-2.9082e-07
4.94526e-07
-5.30013e-08
-2.01167e-07
-3.14294e-07
1.5239e-07
-0.000258408
-9.73269e-08
-0.000376552
-1.66356e-07
-4.8801e-08
-2.28577e-07
-8.02138e-08
-0.000624299
-4.57165e-05
-1.22325e-07
-9.98075e-08
-1.82223e-05
7.88355e-06
-1.28735e-07
-0.000308884
-4.33001e-08
-0.00016465
-2.29014e-07
-1.6037e-07
-0.00292334
-1.28261e-07
-0.00101202
-2.26067e-08
-7.81187e-08
-4.16475e-08
8.16276e-05
-0.000629038
-1.53646e-07