/*--------------------------------*- C++ -*----------------------------------*\
| =========                 |                                                 |
| \\      /  F ield         | OpenFOAM: The Open Source CFD Toolbox           |
|  \\    /   O peration     | Version:  v2012                                 |
|   \\  /    A nd           | Website:  www.openfoam.com                      |
|    \\/     M anipulation  |                                                 |
\*---------------------------------------------------------------------------*/
FoamFile
{
    version     2.0;
    format      ascii;
    class       volVectorField;
    location    "600";
    object      U;
}
// * * * * * * * * * * * * * * * * * * * * * * * * * * * * * * * * * * * * * //

dimensions      [0 1 -1 0 0 0 0];


internalField   nonuniform List<vector> 
13851
(
(1.01746 -0.0124623 -4.66766e-26)
(0.563834 -0.138098 -3.15113e-21)
(1.04155 -0.0488996 -5.90813e-21)
(1.01688 -0.0114198 -2.34148e-23)
(1.05798 -0.0604134 1.05786e-20)
(0.980909 0.00865821 -3.10365e-21)
(1.03171 -0.00226182 0)
(1.04724 -0.0439732 -8.37354e-21)
(1.00865 -0.00127772 3.97931e-23)
(1.04834 -0.0452529 -1.57457e-21)
(0.986217 0.00952148 2.93766e-21)
(0.473099 0.0650892 0)
(0.973931 -0.0963979 1.12814e-20)
(0.0909234 -0.111174 0)
(1.01977 -0.000599982 -2.41378e-21)
(1.03555 -0.0371614 2.96354e-21)
(1.04212 -0.0250509 -3.80808e-21)
(1.02067 -0.0162534 -6.45024e-23)
(1.0614 -0.100799 -3.29509e-20)
(1.00853 -0.00128372 0)
(1.01693 -0.0112262 0)
(1.04246 -0.0501294 -1.94854e-21)
(1.00196 3.91685e-05 0)
(1.00298 -0.0001198 6.87472e-23)
(1.00133 -1.54357e-05 5.27105e-23)
(1.0463 -0.0440099 0)
(1.05177 -0.0190145 0)
(-0.00103393 -0.0417248 1.60125e-20)
(1.01781 -0.0123927 9.74676e-23)
(1.02467 -0.0198309 1.54339e-21)
(0.975535 0.0203123 -1.81082e-21)
(1.04259 -0.026042 0)
(1.04203 -0.047989 6.64439e-21)
(0.871147 -0.0815604 -3.79623e-21)
(1.00371 -0.000139147 0)
(1.09282 -0.0574142 0)
(1.10212 -0.0575809 2.78085e-20)
(1.02223 -0.074942 0)
(1.04974 -0.044038 -3.59557e-21)
(0.865278 -0.0524701 3.58805e-22)
(1.01608 -0.00740517 0)
(1.00688 0.000271346 -5.74586e-23)
(0.025768 0.102545 3.39055e-20)
(0.939105 0.0639078 0)
(0.926472 0.0425762 -3.46021e-21)
(0.20662 -0.100362 9.92822e-22)
(0.896742 0.0917765 -1.26704e-21)
(0.963493 -0.146696 5.39579e-23)
(1.0527 -0.01961 1.64787e-20)
(1.01571 0.0274108 4.52398e-22)
(1.07469 -0.0551211 -1.70753e-20)
(1.07731 -0.0696959 2.817e-20)
(-0.0258165 0.0199295 2.3394e-20)
(1.01943 -0.000554076 5.23796e-21)
(1.01161 -0.000792419 0)
(1.00711 0.000295962 1.15325e-22)
(1.0037 -3.96791e-05 1.73369e-22)
(-0.0460057 -0.00609716 0)
(1.02458 -0.0192121 0)
(1.0325 -0.0048906 4.02313e-21)
(1.01886 -0.0721464 -4.50049e-21)
(0.444117 -0.147228 -2.39744e-21)
(1.03612 -0.00191836 3.63346e-21)
(1.06086 -0.0651219 -1.55545e-20)
(0.947582 -0.0565577 0)
(1.01621 -0.0135668 0)
(1.08247 -0.0575553 -1.70361e-20)
(0.89642 0.11557 -5.65647e-22)
(1.06339 -0.0351283 -8.9777e-22)
(1.02097 -0.0158365 1.75216e-22)
(0.313345 -0.00373518 4.49268e-20)
(1.00916 -0.0587651 1.63414e-20)
(0.54129 -0.139936 1.99668e-21)
(1.01941 -0.000583393 0)
(1.01222 -0.00130613 0)
(1.01074 -0.00170784 -2.83623e-22)
(1.04378 -0.0499596 0)
(0.436233 -0.00992616 0)
(1.05844 -0.046435 -1.67129e-20)
(0.298327 -0.00690595 5.07963e-21)
(1.03549 -0.00894514 4.37748e-21)
(0.897417 -0.053651 0)
(1.0218 -0.00484073 -9.80413e-21)
(0.171507 -0.000575847 -2.1688e-20)
(1.03387 0.00219176 0)
(0.536664 0.0397564 0)
(0.999825 0.0109849 -2.2403e-22)
(0.888314 -0.141353 3.53339e-21)
(1.04875 -0.0247362 0)
(1.01251 -0.00038148 0)
(1.09266 -0.057445 0)
(1.02453 -0.01726 -9.998e-22)
(0.89932 0.126342 2.20358e-21)
(1.05266 -0.029069 9.4621e-21)
(1.04927 -0.0239672 5.55445e-21)
(1.00219 -2.99462e-05 -3.96135e-22)
(1.05937 -0.061673 -1.19241e-20)
(0.635259 -0.0885852 0)
(1.01463 0.0326348 0)
(1.00153 -8.14925e-06 4.08843e-22)
(-0.0331907 -0.103165 0)
(1.06557 -0.0473963 -1.35073e-21)
(1.01983 -0.0124206 1.4524e-21)
(1.0585 -0.011689 1.01047e-20)
(1.00225 5.62447e-05 0)
(1.0139 0.0215797 -9.5405e-22)
(1.06879 -0.0497412 0)
(1.00613 0.000280664 6.60049e-23)
(0.898662 -0.0570247 -1.86306e-20)
(0.976808 0.000195321 0)
(1.00178 -4.32094e-05 -4.71536e-23)
(1.01294 -0.000350393 3.12564e-22)
(1.02293 -0.0155682 4.55813e-23)
(1.0002 2.97389e-05 0)
(1.00246 -6.7461e-05 5.996e-23)
(0.773203 -0.194324 0)
(0.66337 -0.0917781 -3.52593e-20)
(1.00557 0.000161966 1.36912e-22)
(1.00505 -0.000291815 -6.3843e-24)
(1.00982 -0.000584615 1.15597e-21)
(0.0137298 0.115257 -1.05649e-21)
(1.05739 -0.0120963 -3.96102e-21)
(0.942849 -0.0997214 0)
(0.866972 -0.185742 2.33171e-21)
(0.998161 -0.153506 9.5623e-21)
(1.01625 -0.000703684 -1.45926e-22)
(0.990293 -0.161054 0)
(1.06178 -0.0471031 0)
(1.01663 -0.0105638 -5.68523e-23)
(1.05122 -0.0761509 0)
(1.01592 -0.00717129 0)
(1.00799 -0.00142857 0)
(0.333332 -0.00813451 -4.12558e-20)
(1.02178 -0.00454334 4.68072e-21)
(0.776176 -0.179379 5.99313e-21)
(1.00767 -0.000634614 -5.22156e-22)
(1.00552 0.000141858 0)
(1.01932 -0.0585368 4.13903e-21)
(0.0189479 -0.105732 1.29013e-20)
(0.367601 0.124014 1.89122e-21)
(-0.0618717 -0.105009 -8.22153e-21)
(1.01123 -0.000747468 -1.98462e-21)
(1.01686 -0.00314193 2.8632e-22)
(1.0097 0.000292969 -2.2403e-22)
(1.03467 -0.0203324 -7.01048e-21)
(0.931976 0.0911584 -4.30633e-21)
(1.00905 -7.17126e-05 -3.49037e-23)
(1.04811 -0.0760269 0)
(1.03094 -0.0022372 -9.80769e-21)
(0.93074 0.00580705 0)
(1.0881 -0.0488904 -1.73962e-21)
(1.01015 -0.000721751 0)
(0.1011 -0.112361 0)
(1.00363 -5.52841e-05 -2.09805e-22)
(1.04199 -0.0166789 9.17152e-21)
(1.03391 -0.0200865 8.43489e-21)
(1.01151 -0.00363245 -1.66033e-22)
(1.0263 -0.0184715 3.38126e-21)
(1.0761 -0.0710359 0)
(1.0733 -0.0549154 1.36254e-20)
(1.00934 0.000652804 -4.85002e-25)
(1.05954 -0.0264532 7.27975e-21)
(-0.0443967 -0.0025398 0)
(1.00783 -0.00135569 0)
(1.02422 -0.0269034 -1.52453e-21)
(1.00832 0.000282338 0)
(1.00801 -0.00178338 1.06495e-22)
(1.06469 -0.0354353 1.56941e-20)
(1.01666 -0.0103388 0)
(0.533657 -0.116353 0)
(0.420219 -0.00739957 0)
(1.00596 -0.000428826 -8.3511e-23)
(1.01167 -0.00377375 1.70506e-22)
(0.330482 0.111411 -1.84793e-20)
(1.00764 -0.00123952 0)
(0.954849 -0.10306 1.39345e-20)
(1.06068 -0.0464142 0)
(1.01651 -0.0018255 7.84977e-22)
(1.05922 -0.102085 2.99035e-20)
(1.00675 0.000352789 -3.24698e-23)
(1.04239 -0.0276713 -1.23342e-22)
(0.986531 -0.0577578 -2.15648e-20)
(1.02166 -0.00388653 3.62561e-21)
(1.04185 -0.0516106 0)
(1.0052 0.000161594 -3.63346e-24)
(1.00209 -7.78813e-06 -1.13368e-22)
(1.01678 -0.0142111 0)
(1.01165 -0.00087551 -1.14728e-21)
(1.05374 -0.0639065 -4.11803e-23)
(1.03762 -0.0662191 0)
(0.897345 0.112718 1.31455e-21)
(-0.0339745 0.0164015 0)
(1.01396 -0.000416488 0)
(1.05946 -0.0364287 -3.6668e-21)
(0.469994 -0.139821 -7.66401e-22)
(1.0404 -0.0163049 6.8484e-21)
(1.01608 -0.00299094 -5.68347e-22)
(0.876572 0.0897312 1.0216e-21)
(1.01631 -0.00205437 -9.88931e-22)
(1.0109 -0.00177664 0)
(1.0165 -0.000237637 1.46533e-22)
(0.362598 -0.196399 1.20376e-20)
(1.00285 -0.000131426 -1.15854e-21)
(1.01823 -0.00566844 2.56355e-21)
(1.04074 -0.0544925 0)
(1.02211 -0.00409262 -3.56576e-21)
(0.255105 -0.0110137 -5.81806e-21)
(1.04442 -0.0250323 1.82397e-20)
(0.454434 -0.0200224 0)
(1.00786 0.000484449 -1.72117e-23)
(0.699412 -0.049115 3.30437e-20)
(1.01965 -0.0120576 1.45667e-21)
(0.884799 0.122321 -1.9975e-21)
(1.00638 0.000334828 -2.24475e-23)
(1.00928 0.000339813 3.60599e-22)
(1.01374 -0.0443903 -1.87254e-21)
(1.02452 0.00247067 0)
(0.117807 -0.0781336 -2.7281e-21)
(1.01995 -0.00137046 3.15101e-21)
(0.469334 -0.0223575 -1.39769e-20)
(1.04435 -0.0256803 -1.12913e-20)
(1.03638 -0.00926879 -2.61311e-21)
(0.732599 -0.0648059 2.40994e-20)
(1.06671 -0.0740919 0)
(0.604949 -0.0405352 0)
(1.00133 1.73581e-07 0)
(1.05377 -0.032376 -8.89071e-21)
(1.00171 3.34576e-05 -1.29685e-23)
(-0.0648676 0.0445072 1.18369e-20)
(1.00661 0.000363327 2.43837e-23)
(1.04567 -0.0433831 -4.02566e-22)
(0.946366 0.0254277 0)
(1.00582 -0.000389316 -1.41706e-22)
(1.01349 -0.000486127 -3.82394e-22)
(1.07561 -0.0512438 0)
(1.00786 -0.0171248 -6.54323e-22)
(0.308067 -0.0148044 9.30517e-21)
(0.941752 -0.0642003 -1.69967e-21)
(1.00969 0.000324915 0)
(1.01857 -0.00579237 -2.86248e-21)
(0.985244 0.0281668 1.77271e-21)
(1.02088 0.04704 -4.06679e-21)
(1.01164 0.000779025 4.58003e-23)
(1.04262 -0.0557167 0)
(1.00299 7.49391e-05 -4.91662e-23)
(0.552265 -0.0346737 0)
(1.06467 -0.0483898 0)
(0.87043 0.00520017 -5.33301e-21)
(1.03281 -0.0205204 -8.31118e-21)
(1.03589 -0.0275539 1.09862e-20)
(1.01002 -0.00132744 0)
(1.01905 0.0469499 2.16955e-21)
(1.03041 -0.0128239 -5.3053e-22)
(1.0336 -0.0208059 2.18945e-21)
(1.07445 -0.0456335 7.15919e-21)
(1.08078 -0.0763999 -1.65548e-21)
(1.03366 -0.0653456 0)
(0.999945 -0.0582424 0)
(0.404879 -0.00124417 0)
(1.02285 -0.00133404 0)
(1.00931 0.000322914 1.98536e-22)
(1.02153 -0.0157363 1.63025e-22)
(0.808064 -0.0221302 1.29579e-21)
(1.01172 -6.06353e-05 0)
(0.990011 -0.109771 -2.94713e-21)
(1.03979 -0.016484 8.42601e-21)
(1.03041 -0.0123183 4.42276e-21)
(1.05257 -0.028323 -1.91617e-20)
(0.769594 -0.0678038 0)
(1.02441 -0.013406 0)
(1.01064 0.000306339 -7.55613e-22)
(1.0413 -0.0169838 -1.59584e-20)
(0.919669 0.00311119 5.09929e-21)
(1.05839 -0.0449539 0)
(1.03454 -0.0364628 1.29244e-21)
(1.00816 -0.00155004 -4.47775e-22)
(0.899109 -0.0364079 1.94427e-22)
(1.01548 -0.0216533 -1.80631e-22)
(0.614348 -0.0436015 1.3924e-20)
(0.991315 -0.017081 -3.89346e-21)
(1.01179 0.000894919 -7.71901e-23)
(1.00751 0.000457714 1.13628e-23)
(1.00242 5.38675e-05 8.61331e-24)
(1.07415 -0.0445735 -7.18712e-21)
(0.786633 -0.00913948 7.27907e-23)
(0.898981 -0.00659546 -3.34402e-22)
(1.00978 -0.00159399 0)
(1.02066 -0.000204327 0)
(0.907308 0.0114418 -9.03683e-21)
(0.896239 -0.00233961 7.31186e-22)
(1.04769 -0.0796116 -1.30436e-20)
(1.02507 -0.0189854 0)
(1.03275 -0.00534442 -5.91941e-22)
(1.0623 -0.0382793 0)
(0.897531 -0.0276406 0)
(1.01064 -0.108273 -1.3166e-20)
(1.02678 -0.027184 -3.33167e-21)
(0.55012 0.0311693 0)
(1.00846 -0.00173532 2.61868e-22)
(0.572635 -0.0369039 -3.50147e-21)
(1.05931 -0.0257466 1.90886e-21)
(1.04103 -0.0249443 8.28691e-21)
(0.627853 -0.0452526 -1.1727e-22)
(1.02079 -0.0108055 5.89961e-21)
(1.00752 0.021428 2.23577e-21)
(0.643036 -0.0454718 2.9266e-20)
(1.00949 -0.0015429 0)
(1.0705 -0.0415135 2.35926e-20)
(1.05176 -0.0296255 0)
(1.02489 -0.0183961 9.00873e-22)
(0.0465637 -0.117253 -3.05012e-21)
(1.02625 -0.0275497 0)
(1.02877 -0.012661 0)
(0.706114 -0.0709388 0)
(1.00726 0.000274021 -6.80247e-23)
(1.03651 -0.0282789 -1.44162e-20)
(1.01789 0.000783038 6.46471e-23)
(0.658089 -0.0465888 -2.40101e-21)
(1.08941 -0.0557857 0)
(1.02022 -0.00151603 0)
(1.06921 -0.0473368 0)
(1.02066 -0.000979732 0)
(0.453218 -0.00913922 0)
(1.00661 -0.00265665 -1.72366e-21)
(1.00212 1.53566e-05 0)
(1.01297 -0.0043665 -2.82565e-22)
(1.08869 -0.0558409 -1.66254e-20)
(1.0535 -0.0311715 9.10263e-21)
(1.04282 -0.0155865 0)
(1.02051 -9.78184e-05 0)
(1.02082 -0.0106904 -2.82267e-21)
(1.02817 -0.0124963 -1.6359e-21)
(0.966537 0.0188535 1.40091e-21)
(0.215376 -0.0812551 0)
(0.521999 -0.142805 -2.12836e-20)
(1.02396 -0.0138019 -1.02176e-21)
(0.669476 -0.0477696 -9.65621e-21)
(0.721259 -0.0924392 -1.9387e-21)
(1.01967 -0.000588412 0)
(1.05882 -0.0373657 3.76249e-21)
(1.04411 -0.079789 1.47278e-20)
(1.03113 -0.0155924 5.85343e-22)
(0.9985 -0.00933447 2.73418e-21)
(1.07818 -0.0655366 1.71633e-20)
(1.05373 -0.104121 1.13765e-20)
(1.01535 -0.00848386 0)
(0.763332 -0.00141353 -1.99992e-21)
(0.613987 -0.0407457 -2.60713e-20)
(1.01975 -0.00048075 -2.53159e-21)
(1.01266 0.020758 0)
(1.01619 0.0233891 -7.65987e-23)
(0.991046 -0.0276698 0)
(1.04328 -0.0152122 5.29694e-21)
(0.9948 -0.00770526 1.06093e-20)
(-0.0709218 0.0362979 -6.02967e-21)
(1.01191 -0.00393508 6.3772e-22)
(0.789408 0.0493881 0)
(1.01289 -0.00428508 -2.18575e-22)
(1.02051 -0.000904636 1.48287e-21)
(1.00349 8.93493e-05 4.71663e-23)
(1.0063 0.000301392 -6.86029e-23)
(1.01096 -0.00332153 8.08194e-25)
(0.647224 -0.0440877 0)
(0.89977 0.099693 7.48744e-22)
(1.02067 -0.00762495 -3.56782e-21)
(1.07011 -0.0401599 1.28665e-21)
(1.00805 0.000322311 0)
(0.518541 0.0343843 -1.36477e-21)
(1.03105 -0.0416809 -2.5871e-21)
(0.817223 0.0176927 -2.1608e-21)
(0.540139 -0.123494 2.25477e-20)
(1.02065 -0.00788129 1.84144e-21)
(1.02256 0.00575558 0)
(1.04984 -0.0303313 -2.29099e-20)
(0.842778 -0.01167 1.19104e-20)
(1.01506 -0.00643174 2.21335e-21)
(1.0056 0.00016274 -1.37049e-22)
(1.01175 -0.0108112 -7.89117e-22)
(0.0312705 -0.082678 0)
(1.01191 -0.00108298 -9.06105e-22)
(0.0800943 -0.101518 0)
(1.02913 -0.0181973 2.99821e-23)
(1.07917 -0.0665327 1.54323e-20)
(0.508186 -0.119534 0)
(1.00406 0.0490973 -4.31262e-22)
(0.998459 0.0466307 5.17168e-22)
(1.01641 0.00244001 9.11279e-23)
(1.00864 -0.00172481 3.8215e-22)
(1.01887 -0.000331719 8.36512e-21)
(1.02347 -0.014525 4.40853e-22)
(1.0703 -0.0467276 -3.25694e-20)
(0.159434 -0.084491 2.30301e-23)
(1.06654 -0.0347381 -3.97923e-21)
(0.643908 -0.0435613 2.1039e-20)
(0.636695 -0.0446436 -1.8129e-20)
(1.00802 0.000311308 -2.14395e-22)
(1.0233 -0.0013592 0)
(0.518006 -0.140555 2.0052e-20)
(0.328229 -0.00699985 -1.52279e-20)
(0.961648 0.0348621 -3.81627e-21)
(0.685115 -0.0867886 3.76186e-20)
(1.01036 -0.011524 0)
(1.05037 -0.0313292 0)
(1.00142 -1.41484e-05 0)
(0.785145 -0.0898584 1.02997e-21)
(1.00729 -0.000797322 -3.64804e-23)
(1.03655 -0.0367046 2.26953e-22)
(1.01657 0.00162174 -8.47507e-23)
(1.0292 -0.00358604 6.69042e-21)
(1.00195 3.14154e-05 9.65598e-24)
(1.00933 -0.00146245 -1.26501e-22)
(1.00831 0.000295487 -1.13683e-22)
(1.06256 -0.0641549 0)
(0.999757 -0.0227166 0)
(0.496717 -0.0163758 -4.39816e-20)
(1.02171 -0.0148876 0)
(1.06969 -0.0487947 0)
(1.0057 -0.0136044 0)
(1.03062 0.0196068 1.13435e-21)
(1.03463 -0.0291135 -5.09881e-21)
(0.968853 -0.0215273 2.10201e-21)
(1.04047 -0.0241739 -1.21179e-20)
(1.0092 -0.0571228 5.06604e-22)
(1.00551 0.000144141 0)
(1.00908 -0.00141244 0)
(1.00143 -1.15383e-05 0)
(1.01492 -0.0720648 -1.51689e-21)
(0.88841 0.104128 -4.78959e-21)
(1.06187 -0.0742099 0)
(1.00745 -0.0149483 -4.18117e-22)
(0.468789 -0.0148016 2.31078e-20)
(0.88005 -0.0977866 3.78672e-21)
(1.00457 0.0130986 -2.32158e-21)
(1.00906 -0.000594029 0)
(1.07693 -0.0512335 0)
(1.01487 -0.00618076 0)
(1.02477 0.00916048 -2.36165e-21)
(1.00231 4.86923e-05 3.92155e-23)
(0.88425 0.000397035 -6.00652e-22)
(0.95823 -0.034486 0)
(1.04296 -0.0461056 3.95001e-22)
(0.450632 -0.0180037 0)
(1.01698 -0.00226545 -8.3193e-24)
(1.00179 -0.013877 -6.20946e-22)
(0.938295 -0.0105424 0)
(0.125219 -0.0537854 0)
(1.00549 0.00016834 -2.3747e-24)
(1.05108 -0.0333093 0)
(1.05952 -0.0471324 1.86409e-20)
(1.02293 -0.0178135 -2.34037e-23)
(1.0066 -0.000642449 -2.89361e-23)
(1.02753 -0.0127655 6.25139e-21)
(1.08774 -0.0478201 1.69347e-21)
(1.0771 -0.068559 -4.35888e-20)
(1.02122 -0.0124654 1.56043e-21)
(0.367646 0.0933899 -5.74813e-21)
(1.00176 1.02859e-05 -4.79893e-23)
(1.01328 -0.00455012 -1.27204e-22)
(0.0170223 0.0996773 0)
(1.02311 -0.0269043 -6.63685e-22)
(1.00724 0.000432883 5.51493e-24)
(0.810561 -0.139997 4.10204e-21)
(1.0085 -0.00164719 0)
(1.0171 -0.0121701 2.69223e-23)
(1.00728 -0.000908348 0)
(1.01499 -0.0362471 -2.39793e-22)
(1.0253 -0.016859 -4.60033e-21)
(1.00758 0.000464244 -2.10444e-23)
(1.01674 -0.00250966 -3.15438e-22)
(0.731973 -0.0771885 0)
(1.02221 -0.00517356 -3.87665e-21)
(1.06649 -0.037171 -1.83215e-20)
(1.00796 -0.000724158 6.19137e-22)
(1.02026 0.000216312 0)
(1.00609 -0.0425162 -2.92428e-22)
(0.999995 -4.73015e-06 -1.29775e-22)
(1.01456 -0.00644558 8.40998e-22)
(1.00067 3.48701e-05 0)
(1.00053 -2.28348e-05 0)
(0.956316 -0.008582 7.58007e-21)
(1.03104 -0.0118039 8.02041e-21)
(0.994028 0.0134639 3.84895e-21)
(1.02161 -0.00357181 0)
(1.00212 2.50739e-06 0)
(-0.0664711 -0.151478 1.37661e-20)
(0.436161 -0.0158924 0)
(1.02299 -0.00423873 -4.27466e-21)
(1.02188 0.00126588 -7.02687e-23)
(1.03558 -0.0295715 2.71841e-21)
(1.00288 0.0686051 0)
(0.150113 -0.0139234 -4.80437e-20)
(1.01337 -0.00465306 0)
(0.909654 0.116372 -1.18668e-21)
(1.0154 -0.00666595 1.29714e-21)
(1.05168 -0.0590113 -7.6332e-21)
(1.03038 -0.00474039 -7.68939e-21)
(-0.085047 0.0512519 0)
(1.00518 0.00011516 4.59213e-23)
(-0.0226001 0.0327598 8.63105e-22)
(1.02673 -0.0673707 2.46298e-21)
(1.00694 0.000264703 0)
(1.02382 -0.000186353 1.13277e-21)
(0.574612 -0.0854574 0)
(1.04507 -0.043585 0)
(0.888526 -0.0350592 -1.61015e-21)
(1.00621 -0.000364272 0)
(0.853915 -0.133776 -1.76461e-21)
(1.01083 -0.000648305 2.86206e-22)
(1.00716 -0.00101241 1.54962e-22)
(1.00836 -0.00167844 -2.08525e-22)
(1.02938 -0.00204237 0)
(0.352148 -0.0115855 9.25104e-21)
(1.07129 -0.0530454 0)
(1.08411 -0.0631481 8.30986e-21)
(1.08498 -0.0903997 0)
(1.02861 0.000319626 -7.09134e-22)
(1.00962 0.00065447 0)
(0.830334 -0.115687 5.08132e-21)
(0.902003 0.0998787 -3.06154e-21)
(1.04343 -0.0278541 -1.2923e-22)
(1.05881 -0.0271515 1.89222e-22)
(1.00763 0.0600865 0)
(0.8728 -0.178089 1.31955e-22)
(0.742188 -0.0516404 0)
(1.01775 -0.000356721 7.76567e-21)
(-0.0924468 0.0409533 -4.04255e-20)
(0.239754 -0.0751295 8.69019e-20)
(0.291275 -0.195203 -7.2729e-20)
(1.02514 -0.0278259 2.35452e-21)
(1.02557 0.000332642 -2.06821e-21)
(0.860254 -0.173741 0)
(1.00466 -0.0194215 3.07575e-22)
(1.06799 -0.0836354 0)
(0.871422 0.0902317 1.58544e-21)
(0.757376 0.0142408 9.12093e-21)
(1.02589 -0.0186908 -2.43134e-21)
(0.724792 0.01319 -9.46074e-21)
(0.974443 -0.0595009 4.87061e-20)
(1.0054 0.000132085 1.36066e-22)
(1.01099 -0.0180694 0)
(1.07273 -0.053335 2.02902e-21)
(0.411346 -0.0101751 1.66253e-20)
(1.03238 -0.0210908 -4.16599e-21)
(1.01805 -0.00396344 1.29883e-21)
(1.01127 -0.00349196 0)
(1.017 -0.00684586 1.10447e-21)
(1.0558 -0.0632558 7.10658e-22)
(1.01037 -0.0246173 4.57651e-22)
(0.930655 -0.145575 -4.29331e-21)
(0.376311 0.074789 -1.93189e-21)
(1.00671 -0.00046284 0)
(0.021535 0.101439 1.55169e-21)
(0.481285 -0.0200632 0)
(1.01933 0.0458995 2.24654e-22)
(0.908525 0.0611259 8.99662e-21)
(1.06522 -0.0368452 -1.64139e-20)
(1.00673 0.000378166 1.21977e-23)
(1.00893 -0.0013469 0)
(0.992665 -0.0115529 2.16205e-22)
(0.799831 -0.113933 7.47484e-21)
(1.04288 -0.0171379 2.47834e-21)
(1.08701 -0.0530179 0)
(1.0917 -0.0588586 2.55336e-20)
(1.00705 0.000304841 -5.74871e-23)
(1.00019 -0.0139706 0)
(0.895353 -0.166098 -1.65373e-21)
(1.01732 -0.0305574 1.11833e-21)
(1.07369 -0.0675619 2.12554e-20)
(0.362296 -0.0129198 -4.75291e-21)
(0.973303 -0.0586671 -1.88842e-20)
(1.01558 -0.00691553 0)
(1.02963 -0.00331196 -1.02673e-20)
(0.553916 -0.143459 -3.64358e-21)
(0.625418 -0.0439621 -2.11032e-22)
(1.08773 -0.0579644 -2.02164e-20)
(1.06748 -0.0339251 1.93984e-20)
(1.04301 -0.00217143 -2.56852e-21)
(1.00655 0.000323742 3.724e-23)
(1.01459 -0.00421917 -8.23813e-22)
(0.847615 0.00195397 0)
(1.00675 0.000292628 1.01355e-22)
(1.03162 -0.0207522 4.08129e-21)
(1.00669 0.000355867 0)
(1.00865 -0.00133899 1.01535e-21)
(0.954598 -0.0603882 -3.88381e-20)
(1.05919 -0.063875 1.3945e-20)
(1.0094 -0.0132945 9.53066e-22)
(1.00672 0.000299796 0)
(0.13075 -0.105771 0)
(0.88773 0.112403 -1.04981e-21)
(1.00871 -0.00186976 -6.08093e-22)
(1.00396 -4.55217e-05 -6.21236e-23)
(1.01189 -1.46606e-05 -7.33512e-23)
(1.01936 -0.000426043 -1.06325e-20)
(0.0197003 -0.0740746 0)
(0.870206 0.0490005 2.1405e-21)
(0.883167 0.089354 0)
(0.234459 -0.203765 4.82919e-20)
(0.845613 -0.127116 -2.97327e-21)
(1.06678 -0.0321071 -8.65456e-21)
(0.391513 -0.00680651 6.07025e-21)
(0.432444 -0.0165035 -1.79733e-20)
(1.01586 -0.00931561 0)
(1.06263 -0.0360337 0)
(1.00683 0.000393366 -1.82209e-23)
(1.01786 2.04161e-06 2.06696e-22)
(1.03939 -0.0384151 0)
(0.782969 -0.0878847 3.26251e-20)
(0.760739 0.00209873 -7.07609e-22)
(1.0861 -0.0529646 0)
(1.04628 -0.0323072 -6.93304e-21)
(1.00812 -0.00116153 -1.15896e-23)
(1.0325 -0.0366896 4.15072e-21)
(1.01485 -0.00357021 -3.15552e-22)
(0.886951 -0.05946 5.09871e-21)
(1.06982 -0.0567581 -1.7937e-20)
(1.02121 -0.00335845 0)
(1.02344 -0.0131447 5.03016e-22)
(1.00652 -0.000639066 0)
(1.05387 -0.0271764 0)
(1.05993 -0.0757324 1.06414e-20)
(1.03169 -0.0047328 -1.02939e-23)
(1.01454 -0.00597934 6.16276e-22)
(1.03256 -0.0421302 1.20954e-21)
(1.02915 -0.00779313 -4.22846e-21)
(1.05629 -0.0610983 -1.19098e-21)
(1.01869 -0.0659846 1.58567e-21)
(1.06701 -0.0723991 3.49266e-21)
(1.03013 -0.0368657 1.92416e-21)
(1.08843 -0.0577966 -2.02072e-20)
(1.0079 -0.00111333 -1.19246e-23)
(0.986765 0.0316082 0)
(1.00878 -0.00236484 9.02685e-22)
(0.160964 -0.189997 0)
(1.01984 -0.0120211 -6.17231e-22)
(1.00226 -5.33505e-05 1.36281e-22)
(0.92796 -0.056541 1.95659e-20)
(1.02232 -0.0162337 7.78421e-22)
(0.494417 -0.105972 2.3715e-20)
(0.582399 -0.0373294 1.45535e-20)
(-0.00519214 -0.00892315 0)
(0.782167 -0.149034 -3.7265e-21)
(1.00718 -0.000796355 3.07804e-23)
(0.983167 -0.0583362 0)
(1.01209 0.000924179 4.65207e-23)
(1.00857 -0.00148561 0)
(1.00512 0.000120113 0)
(1.00874 -0.00148409 9.71837e-22)
(1.01211 0.00141445 -2.03197e-23)
(1.02231 -0.0144284 2.99017e-22)
(1.01591 -0.0342234 0)
(1.00645 0.00028818 0)
(0.665431 -0.0577866 -3.76801e-21)
(1.03075 -0.0690806 -2.3794e-21)
(0.629406 -0.0642369 0)
(1.01061 -0.0029989 2.14016e-22)
(1.00481 0.0001241 -6.63417e-23)
(1.00297 3.4349e-05 1.16667e-22)
(1.04243 -0.0763 -2.49844e-21)
(0.463182 -0.126608 -2.6721e-21)
(1.07955 -0.0442017 4.08596e-20)
(1.0537 -0.0277729 0)
(1.01224 0.000788908 -4.52946e-23)
(1.00194 -7.47438e-06 2.27426e-22)
(1.00567 -0.000285938 6.49733e-23)
(1.0119 -0.00378083 -2.08726e-22)
(1.0995 -0.068227 0)
(0.274292 0.162684 -4.94709e-22)
(1.02861 -0.00751888 0)
(1.00643 0.000294281 -7.89418e-23)
(1.02972 -0.00169776 0)
(1.01184 -0.00379621 4.72731e-22)
(0.99444 -0.00997799 -9.71511e-23)
(-0.037178 0.00225319 1.92719e-20)
(1.03362 -0.0373018 -2.47408e-21)
(0.607754 -0.0998977 1.77003e-20)
(0.867107 -0.149007 2.23668e-22)
(1.01435 -0.00573151 -5.87113e-22)
(1.08289 -0.0634321 0)
(0.100967 -0.0691024 0)
(1.06312 -0.0373739 -1.55706e-20)
(0.460625 0.068709 0)
(1.03483 -0.00920294 -4.40448e-21)
(1.02135 -0.0159813 -1.36661e-22)
(1.07848 -0.0439307 -3.56494e-20)
(1.02177 -0.0152821 -8.18025e-23)
(0.880999 0.122932 -8.69459e-22)
(1.02252 -0.00401606 0)
(0.868618 -0.188914 0)
(1.00217 3.77396e-05 0)
(1.0734 -0.0250213 2.37827e-20)
(0.472462 -0.0217935 -1.62172e-20)
(1.01136 -0.00157644 5.37311e-22)
(1.02153 -0.0146839 3.13533e-21)
(1.04403 -0.00759132 -1.62219e-21)
(1.00735 -0.00110819 4.62277e-24)
(1.04196 -0.0267593 -8.82643e-21)
(0.862229 0.00548134 4.32309e-21)
(0.279948 0.0655908 -1.71629e-20)
(1.06834 -0.0563659 1.62563e-20)
(1.01354 -0.107599 -2.54294e-21)
(0.997634 0.0607408 0)
(1.00642 0.000332864 8.32641e-23)
(1.01036 -0.00286527 5.64339e-22)
(-0.0923369 -0.15995 -2.68729e-20)
(1.09179 -0.0584626 -2.07563e-20)
(1.00457 -0.0177311 -1.05388e-21)
(0.602672 -0.03975 1.34585e-20)
(1.00855 -0.000818233 0)
(1.01616 -5.07367e-05 -1.87171e-22)
(1.00542 0.000126511 -1.94827e-22)
(0.836532 -0.0980701 0)
(1.0748 -0.0600405 0)
(1.0272 -0.0248747 1.29195e-22)
(1.01701 -0.00964018 -3.89451e-22)
(1.01339 -0.0459976 1.04469e-22)
(1.04952 -0.0208319 -5.73075e-21)
(1.00315 4.17416e-05 0)
(0.0614756 0.0809831 -5.7995e-20)
(1.08695 -0.0785972 2.14283e-21)
(0.54988 -0.0347243 0)
(1.00722 0.000282417 2.0936e-22)
(1.02865 -0.00707355 0)
(0.408823 -0.0085211 0)
(-0.00947116 -0.0275917 -1.28308e-20)
(1.09113 -0.057133 0)
(1.01445 -0.0031697 6.44687e-22)
(0.86617 -0.0556954 -2.08247e-20)
(1.02222 -0.00449493 4.92408e-21)
(1.01678 -0.0514701 3.86034e-22)
(1.0292 -0.0467401 1.40066e-21)
(1.04218 -0.0460629 -6.45448e-21)
(1.03603 -0.0258924 6.06021e-21)
(0.0501174 -0.021003 0)
(1.01417 0.00242806 8.35204e-22)
(1.01307 -0.00200511 -7.52565e-22)
(1.10373 -0.0577502 -2.70689e-20)
(1.00246 -4.74713e-05 -5.85312e-23)
(1.00169 -6.08717e-05 -2.17304e-23)
(1.02551 -0.017433 0)
(1.00778 -0.00106013 2.58011e-23)
(0.0617578 0.0832612 0)
(1.04146 -0.036137 -6.00039e-21)
(1.07562 -0.0676774 -1.01811e-20)
(1.01067 -0.0143501 -6.62955e-22)
(1.01649 -0.0280342 -1.74341e-22)
(1.00827 -0.00122889 2.96628e-23)
(0.849871 -0.0092576 -4.97504e-21)
(1.00464 -0.000226688 0)
(1.01525 0.00316022 6.82561e-22)
(1.0047 0.00010273 8.43567e-23)
(1.01387 -0.00531602 0)
(1.01015 -0.000842346 1.58826e-21)
(0.62826 -0.0443482 -2.88361e-20)
(1.01118 -0.00347496 2.46165e-24)
(1.00582 0.000176875 -1.05386e-23)
(1.02284 -0.108885 1.06835e-21)
(1.03042 -0.00343326 -3.63144e-21)
(0.429891 -0.0122044 -2.23178e-20)
(1.00172 1.96288e-05 0)
(1.01589 -0.00348619 -2.92758e-22)
(1.07986 -0.051653 0)
(0.96407 -0.00590405 0)
(0.892491 0.0483815 6.4181e-23)
(1.00611 -0.000352179 0)
(0.946594 0.00625305 -1.05934e-21)
(0.625201 -0.106644 -1.9285e-21)
(1.03104 -0.0122982 -9.01299e-21)
(0.72645 -0.0540002 2.10598e-20)
(1.07221 -0.0248805 -2.1441e-20)
(1.00747 -0.000961455 4.8538e-23)
(1.00536 0.00153081 -8.08194e-22)
(0.0371011 0.0944029 0)
(0.958035 0.00958778 1.65823e-21)
(1.03334 -0.0276235 -2.51006e-21)
(1.00656 -0.00040504 7.66977e-23)
(1.00617 0.000278615 -3.88822e-23)
(0.93216 0.0434221 5.4724e-21)
(1.04124 -0.0445145 0)
(1.01251 -0.0513366 0)
(1.02642 -0.0263682 4.98176e-21)
(1.00581 0.00427465 8.14269e-22)
(1.01871 -0.000373492 -7.16824e-21)
(1.0154 -0.00344319 0)
(1.08942 -0.0513971 0)
(0.909417 0.142676 2.40421e-21)
(1.05228 -0.0623553 -2.58842e-21)
(0.762529 -0.0279385 7.27827e-22)
(1.02809 -0.00679372 0)
(1.05292 -0.0603695 1.3141e-20)
(1.07728 -0.0573376 1.85127e-21)
(0.679795 -0.0488439 1.83163e-22)
(1.02644 -0.024172 0)
(0.169411 0.0560835 -8.45982e-22)
(1.08844 -0.0914891 2.42428e-20)
(1.03091 -0.00310298 3.18348e-21)
(0.354021 -0.0770302 0)
(0.994905 0.0244172 0)
(0.587016 -0.135631 1.5624e-20)
(0.301968 0.0552105 0)
(0.654173 -0.0612257 2.47008e-20)
(0.988185 0.0773486 0)
(1.03987 -0.0415469 -3.89562e-21)
(1.00757 -0.00100753 -6.21771e-24)
(1.02356 -0.0150291 0)
(-0.0561162 -0.00373533 0)
(0.234052 -0.023022 -6.10538e-22)
(1.01243 -0.00372377 -3.44548e-23)
(1.0015 -5.54869e-06 -2.05278e-22)
(1.07495 -0.0524365 -4.13488e-21)
(0.931722 -0.0231551 -4.39111e-22)
(1.00661 0.00021369 2.84776e-22)
(-0.0225834 -0.002898 2.41015e-20)
(1.00826 -0.000780036 -1.09161e-22)
(1.02168 -0.00724859 0)
(0.0330596 0.0916355 0)
(0.416174 -0.00900056 4.25293e-20)
(0.985064 0.0684528 0)
(1.00856 -0.00152002 2.61221e-22)
(1.02052 -0.000698978 1.54533e-21)
(-0.0146559 -0.0219965 4.15102e-20)
(1.09376 -0.0682433 8.25912e-21)
(1.0873 -0.0574054 0)
(1.01655 -0.00710026 6.82713e-22)
(0.552514 -0.132199 3.41993e-20)
(1.0187 -0.0363515 -7.34428e-22)
(0.522896 -0.122019 2.43901e-21)
(1.06745 -0.0492936 -3.06414e-21)
(1.06884 -0.0398794 -1.08932e-20)
(1.02804 -0.0129125 0)
(1.03019 -0.00424903 1.13603e-20)
(0.558078 -0.11339 -5.00939e-22)
(1.08249 -0.0405391 1.8201e-20)
(0.321504 -0.00726498 2.33036e-20)
(1.00806 -0.010008 1.75391e-21)
(1.06532 -0.0343376 -1.43556e-20)
(0.0868918 0.0714755 0)
(0.570476 -0.137502 -2.11511e-20)
(0.462663 -0.0156859 -2.08078e-20)
(1.02483 -0.00433326 0)
(1.0667 -0.0296366 1.71429e-20)
(1.00857 -0.00178741 5.97733e-22)
(1.03141 -0.0375931 -6.5042e-21)
(1.02124 -0.0143853 2.88249e-21)
(0.356421 0.105893 4.48476e-22)
(1.01092 -9.83785e-05 0)
(0.444353 -0.0250504 -2.89327e-20)
(1.00643 0.000197499 -2.08045e-22)
(1.07892 -0.0512889 -3.352e-21)
(1.01463 -0.00511761 3.43341e-21)
(1.02322 -0.0413812 9.0213e-22)
(1.06767 -0.0328674 -4.23076e-20)
(1.06539 -0.0296728 -1.63369e-20)
(0.614039 -0.0914716 -2.24378e-20)
(1.07321 -0.0403709 0)
(1.01237 -0.0368349 -5.54801e-23)
(1.00257 -8.68673e-05 6.02076e-23)
(1.0779 -0.0519728 3.05736e-21)
(0.914753 -0.0720192 -1.61179e-20)
(1.03208 0.0130661 6.35838e-21)
(1.03043 -0.0208914 -8.80308e-23)
(0.406264 -0.00809129 -2.00925e-20)
(1.01126 -3.91625e-05 0)
(0.394405 0.0697215 1.94668e-20)
(0.926611 0.107679 9.28569e-22)
(1.02536 -0.0107627 4.89638e-21)
(0.671233 -0.0453566 -3.56813e-20)
(0.0110294 -0.0932623 1.57946e-20)
(0.443764 -0.0144625 2.27681e-20)
(1.00046 0.0641033 0)
(1.00795 -0.00759045 -6.65696e-22)
(1.01246 -0.00401345 3.05964e-22)
(0.541169 -0.0332305 -1.81049e-20)
(1.01603 -0.000196728 -4.58415e-21)
(0.793659 -0.191307 0)
(0.448791 -0.0201373 1.63516e-20)
(1.01068 -0.00310168 3.06423e-22)
(1.04822 -0.0107725 0)
(1.02151 -0.0760614 1.85752e-21)
(0.892143 0.135716 2.69764e-21)
(0.175366 0.0932519 -6.86502e-22)
(1.02653 -0.00844855 -6.96572e-23)
(1.00451 -0.000102519 -1.06679e-22)
(0.498213 -0.17348 -1.40918e-21)
(0.461812 -0.0208376 4.39757e-20)
(1.07263 -0.069286 0)
(1.03306 -0.0266178 0)
(1.01614 -0.00632464 3.93731e-22)
(0.938777 0.111403 -1.44725e-21)
(-0.00766852 0.076158 3.22586e-21)
(1.077 -0.0584427 0)
(1.00589 0.000171405 0)
(1.04064 -0.0419761 0)
(1.00741 -0.00113926 1.64478e-22)
(1.00564 -0.000200914 -2.34594e-21)
(1.01326 0.0308073 6.6129e-23)
(1.00126 -2.03095e-06 -2.31014e-22)
(0.855437 -0.00858868 0)
(1.02765 -0.0266758 -3.27888e-21)
(1.02166 -0.00753509 0)
(1.01725 -0.00290323 4.97769e-22)
(1.01266 -0.004083 2.47799e-22)
(1.02608 -0.0178223 0)
(0.352602 -0.00692043 -1.12772e-20)
(0.566792 -0.096533 2.58687e-20)
(1.05189 -0.032648 -4.00919e-24)
(0.163373 0.0378473 4.91731e-22)
(1.01467 -0.00498082 -3.67589e-21)
(1.05001 -0.0329753 0)
(1.01222 -0.00382892 -2.52603e-22)
(1.00755 -0.00120484 0)
(1.02164 -0.0103953 0)
(1.02119 -0.00743898 -6.91819e-21)
(0.394377 -0.0114933 0)
(1.0231 -0.00455141 5.92964e-21)
(1.07733 -0.0445036 -8.62901e-21)
(1.02496 -0.00470332 0)
(1.03428 -0.0280533 4.86821e-21)
(1.00418 0.0354643 -1.29486e-22)
(-0.00522261 -0.0364721 -9.34858e-23)
(1.00567 -0.000330794 5.39061e-24)
(0.580054 -0.130916 5.65588e-21)
(1.01307 -0.0544356 1.9666e-22)
(1.08941 -0.0799894 -1.20029e-20)
(1.04224 -0.036602 -2.3734e-22)
(1.04698 -0.0369045 8.31985e-21)
(0.31312 -0.00570511 1.158e-20)
(1.05469 -0.0267643 -2.04191e-20)
(1.00933 -0.0198583 1.68932e-21)
(0.375186 0.0972722 1.91031e-21)
(0.843331 -0.104016 1.51792e-23)
(-0.0305256 0.0666554 0)
(1.04955 -0.0422889 0)
(0.951165 -0.00719683 0)
(1.01962 -0.0115544 0)
(1.07239 -0.0392899 2.09521e-20)
(1.06698 -0.047864 1.5775e-20)
(0.162268 0.0758314 0)
(1.00547 -0.000252108 2.66032e-22)
(0.226929 0.0982973 0)
(1.0102 -0.00275638 -2.48624e-25)
(1.01077 -0.00311433 2.64733e-22)
(0.131852 -0.077034 2.48287e-20)