/*--------------------------------*- C++ -*----------------------------------*\
| =========                 |                                                 |
| \\      /  F ield         | OpenFOAM: The Open Source CFD Toolbox           |
|  \\    /   O peration     | Version:  v2012                                 |
|   \\  /    A nd           | Website:  www.openfoam.com                      |
|    \\/     M anipulation  |                                                 |
\*---------------------------------------------------------------------------*/
FoamFile
{
    version     2.0;
    format      ascii;
    class       surfaceVectorField;
    location    "900";
    object      Uf_0;
}
// * * * * * * * * * * * * * * * * * * * * * * * * * * * * * * * * * * * * * //

dimensions      [0 1 -1 0 0 0 0];


internalField   nonuniform List<vector> 
20642
(
(0.436226 0.00707143 1.23734e-21)
(0.443821 0.00799242 4.78672e-21)
(0.456971 0.0109116 -1.85227e-20)
(1.01276 0.0338751 -3.27548e-22)
(1.0133 0.0357803 -9.53408e-23)
(1.0151 0.0343615 -8.17047e-22)
(1.07869 0.0594474 -8.75218e-21)
(1.07902 0.0593631 -1.09388e-21)
(1.07755 0.0591401 -8.71541e-21)
(1.03912 0.0134058 7.66717e-21)
(1.03905 0.0140226 3.12211e-21)
(1.0384 0.0134347 1.82274e-21)
(1.02089 0.0152761 1.96441e-22)
(1.02235 0.0159941 0)
(1.02205 0.0145829 2.74824e-22)
(1.01271 0.0312929 0)
(1.01079 0.0322796 0)
(1.05514 0.0281459 7.52314e-21)
(1.05422 0.027514 4.01847e-21)
(1.05429 0.0285385 5.19915e-21)
(1.03721 0.0591819 -1.9329e-23)
(1.03669 0.0647179 -1.77029e-21)
(1.04313 0.0605294 -1.72208e-22)
(1.06552 0.0169593 -3.00441e-21)
(1.06487 0.0175339 -4.57893e-21)
(1.06592 0.0179297 0)
(-1.06849e-05 -0.0365939 -3.07638e-21)
(0.00528455 -0.0398291 1.67329e-20)
(1.03742 0.0541026 5.15084e-23)
(1.03203 0.0571184 -1.56274e-21)
(1.02881 0.0118098 -2.29641e-21)
(1.02912 0.0122899 2.29377e-21)
(1.02938 0.0119076 6.72974e-21)
(1.0131 0.000195717 2.51834e-21)
(1.01326 0.00012611 -1.40989e-21)
(0.862642 0.00941157 5.12261e-22)
(0.788781 -0.0185914 3.14543e-21)
(0.84501 -0.010574 1.57821e-21)
(1.01481 0.0170887 0)
(1.014 0.0176372 -8.49798e-22)
(1.01504 0.0182443 4.71214e-22)
(0.424954 0.00574869 1.67685e-20)
(0.400686 0.00166213 1.28781e-20)
(1.00132 9.00348e-06 1.11128e-22)
(1.00133 -5.4461e-06 -3.88334e-23)
(1.00032 -1.37561e-05 1.16125e-22)
(1.03799 0.0495341 -6.55146e-24)
(1.03786 0.0456717 8.47478e-23)
(1.03378 0.0483651 1.53438e-21)
(1.07681 0.0600187 5.17647e-21)
(1.07739 0.0601413 -3.56561e-21)
(1.07696 0.0605746 -8.94679e-22)
(0.407136 0.0195166 -1.38756e-20)
(0.447759 0.0217927 -3.78146e-22)
(0.451573 0.0223019 -1.26033e-20)
(1.02958 0.0286125 8.34759e-22)
(1.02961 0.028707 4.31111e-22)
(1.02955 0.0285901 4.56295e-22)
(1.01603 0.00886553 3.71471e-23)
(1.0161 0.00888915 4.62539e-23)
(1.01627 0.00912926 7.87314e-23)
(1.0647 0.0470167 -2.36427e-21)
(1.06539 0.0463849 9.62167e-22)
(1.06555 0.0477389 0)
(1.01593 0.00877925 -2.16612e-22)
(1.01581 0.00856713 -7.34783e-23)
(1.03693 0.0206872 -3.19999e-21)
(1.03742 0.0211706 2.72125e-21)
(1.03674 0.0210429 -8.71545e-22)
(1.02998 0.0286461 1.77419e-22)
(1.02972 0.028592 -5.94101e-22)
(1.02965 0.0286814 -1.47123e-22)
(0.757356 0.0631632 0)
(0.82812 0.0594111 -4.22295e-22)
(0.821227 0.0473459 0)
(0.00649226 -0.0354262 0)
(1.03431 0.0335991 -3.44868e-22)
(1.03351 0.0322999 -3.06346e-22)
(1.03231 0.0335912 -1.19967e-22)
(1.01094 -0.00109415 -5.10012e-24)
(1.01114 -0.00109469 -9.18096e-23)
(1.01075 -0.00103866 -2.44385e-23)
(-0.0109745 -0.0252928 -3.28431e-21)
(0.00325274 -0.0273461 5.8263e-21)
(1.07896 0.0506275 0)
(1.07965 0.0509003 0)
(1.07887 0.0512096 0)
(1.03492 0.016064 4.43473e-21)
(1.03433 0.0156427 -2.28488e-21)
(1.03492 0.0155598 3.19653e-21)
(0.49002 0.019726 0)
(0.506852 0.0227549 0)
(0.504485 0.0228142 5.89821e-21)
(1.01237 0.00320077 -1.17694e-23)
(1.01221 0.00304691 4.13713e-23)
(1.01248 0.00315785 1.30119e-22)
(1.03184 0.0702854 -8.55966e-23)
(1.03714 0.0728495 -7.83424e-23)
(1.02669 0.0214766 -6.69255e-22)
(1.02716 0.0218137 -6.50991e-22)
(1.02677 0.0220517 -3.10904e-21)
(1.00238 0.000126261 1.09238e-21)
(1.00489 0.000304685 8.08186e-22)
(1.00212 9.3051e-05 1.4077e-21)
(1.05607 0.028747 5.78555e-21)
(1.05588 0.0277102 3.59755e-21)
(1.02968 0.0348919 7.7032e-22)
(1.02903 0.0356101 0)
(1.03018 0.0358436 7.87842e-22)
(1.00021 -5.34019e-05 0)
(1.00007 -1.45376e-05 0)
(1.0008 -5.19293e-05 0)
(1.0124 0.00071828 1.68639e-22)
(1.01249 0.000719966 -2.8232e-22)
(1.01235 0.000943179 -1.5904e-22)
(1.06055 0.0130316 -1.53584e-21)
(1.05952 0.0135899 -1.15917e-21)
(1.05954 0.0123804 1.21874e-20)
(1.07856 0.0581468 -2.86835e-21)
(1.07881 0.0579306 0)
(1.07891 0.0583872 0)
(1.07811 0.0578743 6.20942e-23)
(1.07818 0.0583973 -1.04356e-20)
(1.0696 0.1047 -1.31916e-21)
(1.06701 0.100876 3.52306e-21)
(1.07533 0.10436 1.983e-21)
(1.02953 0.0284076 -1.81889e-22)
(1.02971 0.028655 5.26452e-22)
(0.170126 -0.0407446 1.45261e-20)
(0.230102 -0.0282021 1.07307e-20)
(0.231905 -0.034037 -1.20549e-20)
(0.926086 0.118859 -3.30821e-21)
(0.936916 0.135753 6.60353e-21)
(0.939928 0.112983 6.78644e-22)
(1.01232 0.00325044 -1.75641e-22)
(1.01257 0.00334128 -1.30417e-22)
(1.0283 0.0117928 -4.61598e-21)
(1.02848 0.0114206 -7.49368e-22)
(1.064 0.0777044 5.46487e-21)
(1.06365 0.079973 1.34252e-20)
(1.06177 0.078389 -7.22778e-21)
(0.274842 0.00272718 -4.60131e-21)
(0.349228 0.00488454 -1.30393e-20)
(0.270813 0.0019703 0)
(1.02219 0.0122576 1.24359e-21)
(1.02196 0.0118661 2.57667e-21)
(1.02177 0.0120588 1.35893e-21)
(1.02338 0.0130885 0)
(1.02309 0.0126887 3.10724e-23)
(1.02353 0.01279 0)
(1.06445 0.0761085 3.54321e-21)
(1.06589 0.0774327 3.26308e-21)
(0.137098 -0.00498831 1.10214e-20)
(1.06383 0.0475166 3.27638e-21)
(1.06388 0.0461528 -6.33381e-21)
(1.01222 0.000749182 3.90522e-22)
(1.01246 0.000531868 2.62793e-22)
(1.06849 0.110126 -2.6821e-21)
(1.06511 0.105724 -7.39171e-21)
(0.546651 0.0912101 -7.60643e-21)
(0.501397 0.0960501 -8.00704e-21)
(0.485527 0.0823033 1.66814e-20)
(1.00687 0.00467831 0)
(1.00732 0.00712187 0)
(1.00857 0.00548689 0)
(1.00192 -6.5207e-05 2.89929e-23)
(1.00206 -6.02485e-05 -6.84848e-23)
(1.00256 -7.9147e-05 -1.14436e-23)
(1.03713 0.0202062 -3.16376e-21)
(1.03642 0.0201747 1.41615e-21)
(0.82503 0.0504653 -1.91839e-21)
(0.824176 0.0510609 -2.14473e-22)
(0.793494 0.0515011 -1.66906e-21)
(1.02879 -0.0151364 0)
(1.02925 -0.0110262 -6.40727e-23)
(1.02614 -0.0147166 1.80344e-22)
(1.03502 0.0353417 -1.2816e-22)
(1.0358 0.0371952 -2.45388e-22)
(1.03326 0.0369948 -4.69564e-23)
(1.02673 0.0679732 0)
(1.02728 0.0762995 3.2698e-24)
(1.04234 0.0505373 -7.90623e-22)
(0.413035 0.00934501 -7.35835e-21)
(0.398484 0.00754242 1.73463e-21)
(0.394326 0.00721032 -1.62811e-20)
(0.95755 0.0566535 -4.78349e-21)
(0.972331 0.0557877 -4.81885e-21)
(0.926578 0.0548134 -3.44223e-21)
(0.477501 0.0173384 0)
(0.475323 0.0178041 0)
(1.03498 0.00519782 -9.15702e-22)
(1.03574 0.00538297 -1.57765e-21)
(1.03501 0.00568236 0)
(1.01203 0.000770766 1.2902e-22)
(1.01202 0.000923395 3.24862e-22)
(1.02959 0.0287733 0)
(1.02958 0.0289503 8.3201e-22)
(1.03358 0.0222236 0)
(1.03396 0.0227458 1.88759e-21)
(1.03327 0.0224345 -3.60883e-22)
(1.01879 0.0110013 -3.35596e-22)
(1.01921 0.0111216 -9.15068e-22)
(1.0189 0.010812 9.7886e-24)
(1.01179 0.000813259 -2.26898e-22)
(1.01204 0.000662501 2.57205e-22)
(1.03393 0.0218397 1.68181e-21)
(1.03313 0.0216942 1.30118e-21)
(1.03495 0.0163452 -1.70251e-21)
(1.03545 0.0163334 6.07286e-21)
(1.01991 0.0137452 2.50203e-23)
(1.01959 0.0133752 5.50069e-23)
(1.0198 0.0132984 8.87086e-22)
(1.00151 4.09445e-05 -9.89454e-23)
(1.00151 4.04279e-05 -9.85981e-23)
(1.00039 -5.9509e-06 4.52362e-24)
(1.03496 0.00467386 -2.14943e-21)
(1.03421 0.00495407 6.77867e-21)
(0.931282 0.0563226 9.10211e-21)
(0.971238 0.0561509 1.33871e-21)
(0.965847 0.0568269 1.36589e-21)
(1.0153 0.00214025 0)
(1.01538 0.00240383 0)
(1.01506 0.00228795 0)
(1.07014 0.0265002 6.209e-22)
(1.07592 0.018752 6.98128e-22)
(1.07872 0.0292578 5.28195e-22)
(1.07916 0.0497835 0)
(1.07819 0.0502431 0)
(1.01498 0.00125025 -1.87651e-21)
(1.01472 0.00126552 1.36824e-21)
(1.01424 0.00093467 -5.85181e-22)
(1.03029 0.0341972 -1.01513e-21)
(1.02936 0.0338839 -7.56675e-23)
(1.00116 1.93272e-05 0)
(1.00208 1.23583e-05 -1.36745e-22)
(1.00323 4.22041e-05 2.10992e-22)
(1.00303 3.00846e-05 -1.33607e-22)
(1.00354 8.14052e-05 -1.9355e-23)
(1.06139 0.0139133 -8.44853e-21)
(0.91611 0.0991131 7.50557e-22)
(0.892783 0.124008 -1.87235e-21)
(1.01119 0.00234436 3.31571e-23)
(1.01137 0.00227359 3.65977e-22)
(1.01107 0.00223716 -1.56081e-23)
(1.02342 0.0155061 -9.88728e-22)
(1.023 0.0151742 -7.62145e-22)
(1.02315 0.0156654 -8.5975e-22)
(1.03626 0.0332403 3.17494e-22)
(0.845619 -0.012818 1.60437e-20)
(0.915905 -0.0084434 -1.79423e-21)
(0.903759 -0.0199573 6.77884e-21)
(1.00243 0.000115946 0)
(1.0025 0.000106355 -9.89998e-24)
(1.00092 4.72623e-05 2.181e-23)
(1.0152 0.00146524 -2.58591e-21)
(1.01515 0.00120642 -1.22001e-21)
(0.984732 0.0210699 -9.98895e-22)
(0.991752 0.0209472 -2.80983e-21)
(0.989444 0.0146597 -1.5507e-21)
(1.00132 -3.65131e-05 2.10282e-22)
(1.00129 -4.58578e-05 -8.79581e-23)
(1.00074 -2.07567e-05 5.74217e-24)
(1.00139 -4.21064e-05 5.05679e-23)
(1.00194 -8.91895e-05 9.70529e-24)
(1.02003 0.0141024 -9.46288e-22)
(1.0202 0.0140096 -7.37806e-22)
(1.00471 0.000363324 2.12223e-22)
(1.00469 0.000336256 5.09292e-23)
(1.00377 0.000257471 1.38051e-22)
(1.01831 0.0107931 2.13852e-24)
(1.01848 0.0111856 3.2945e-22)
(0.950063 0.0697888 -4.95437e-21)
(0.947001 0.0694689 -1.0795e-20)
(0.910787 0.0719223 -1.23222e-20)
(0.531239 0.016714 0)
(0.524389 0.0177719 -7.51483e-21)
(0.504841 0.0135051 4.98621e-21)
(1.00715 0.00228216 0)
(1.00469 0.00342878 3.15615e-22)
(1.01266 0.000378901 0)
(1.01253 0.000687737 0)
(0.691778 0.0626735 -8.29229e-22)
(0.696529 0.0765593 -8.23686e-22)
(1.02029 9.06979e-05 -2.10182e-21)
(1.02038 4.22917e-05 -6.28687e-22)
(0.526316 0.026023 0)
(0.511422 0.0232243 0)
(1.0328 0.0311643 -6.1517e-23)
(1.0342 0.0307234 1.20313e-22)
(0.819997 0.0515235 7.64416e-21)
(0.860566 0.0527066 1.61842e-20)
(1.03222 0.0233565 -2.45378e-21)
(1.03265 0.0238462 -3.74684e-21)
(1.03258 0.0231056 4.27629e-21)
(1.07618 0.0598236 -1.51286e-21)
(1.07667 0.0594839 5.3976e-21)
(1.00235 -1.72999e-05 -1.59782e-22)
(1.00294 2.49568e-05 -6.4372e-23)
(1.00256 -3.36907e-06 -1.81095e-22)
(1.08055 0.0596445 4.44362e-21)
(1.08056 0.0595667 -6.2933e-22)
(1.08012 0.0596429 1.38237e-20)
(1.03344 0.00159352 -3.7236e-21)
(1.03361 0.00211072 -3.89783e-21)
(1.03289 0.00181538 3.39024e-21)
(1.00246 8.47248e-05 -1.52881e-22)
(1.00139 3.13924e-05 9.10392e-23)
(1.01136 0.00101861 -3.90683e-23)
(1.01116 0.00108634 2.36657e-22)
(1.01108 0.000990858 2.23919e-22)
(1.03641 0.0396787 -5.99663e-23)
(1.0384 0.037197 5.09566e-23)
(1.07057 0.0637339 -5.36461e-22)
(1.06975 0.0644818 1.71567e-20)
(1.06956 0.0631823 1.75022e-20)
(0.354298 0.0065415 -1.33685e-20)
(0.373618 0.00999694 -1.55249e-23)
(0.359596 0.00669555 6.88751e-21)
(0.904619 0.0564281 2.62752e-21)
(0.899423 0.0577003 -1.78955e-21)
(1.03729 0.0197945 3.83533e-21)
(1.03746 0.0193377 3.93992e-21)
(1.0368 0.0192867 1.53225e-22)
(1.02962 0.0285974 5.26452e-22)
(1.02947 0.0287053 0)
(1.01184 0.0040925 -2.25752e-23)
(1.01171 0.00396156 3.90167e-23)
(1.0116 0.00399094 3.41717e-24)
(1.07102 0.0629063 -9.76357e-21)
(1.07151 0.0640521 -2.79273e-21)
(1.07083 0.0317312 -1.9306e-21)
(1.07055 0.0325879 6.19842e-21)
(1.07166 0.0322826 5.47849e-21)
(1.00518 0.102533 4.50385e-22)
(1.00931 0.099336 2.38114e-22)
(1.00923 0.105819 9.51048e-23)
(0.645635 0.0534816 8.2153e-21)
(0.612623 0.0509547 1.99343e-21)
(0.620222 0.0505569 2.00088e-21)
(1.03184 0.0236854 2.35881e-21)
(1.03172 0.0229213 1.12762e-21)
(1.07947 0.0536308 -1.65647e-20)
(1.07897 0.0540808 -1.28511e-20)
(1.07979 0.0542348 2.20653e-21)
(0.629458 0.0594163 5.92057e-21)
(0.688505 0.0480791 -1.76869e-21)
(0.463696 0.110651 -1.10384e-21)
(0.515065 0.106967 6.05783e-21)
(0.519586 0.111552 -1.23839e-21)
(0.30707 0.00914913 2.43544e-21)
(0.302956 0.00871573 1.9858e-21)
(0.322983 0.0121882 -7.46465e-21)
(1.0307 0.0289683 -4.37812e-23)
(1.03023 0.0287493 2.14591e-22)
(1.03015 0.0291281 0)
(1.00224 0.000163218 1.95859e-22)
(0.829135 -0.126147 1.20686e-21)
(0.856857 -0.114298 -9.70941e-22)
(0.819959 -0.145454 1.05445e-21)
(1.01156 0.00092177 -3.39487e-22)
(1.01154 0.000820756 2.83711e-22)
(0.943542 0.0718318 1.85576e-20)
(0.985767 0.071516 1.58068e-20)
(1.01433 0.00643873 -3.1256e-22)
(1.01408 0.00620034 9.15989e-22)
(1.01421 0.00643681 -4.29348e-22)
(1.03261 0.00516142 5.26657e-22)
(1.03322 0.00542869 3.49554e-21)
(1.03269 0.00567558 4.19266e-21)
(1.01244 -0.00297197 -7.15062e-23)
(1.01352 -0.00323191 -2.73481e-22)
(1.01298 -0.00210049 6.12106e-23)
(0.981033 0.0568924 0)
(0.937415 0.0571242 4.79404e-21)
(0.876034 -0.175902 1.75265e-21)
(0.244388 -0.0162573 3.27627e-21)
(0.26815 -0.00664941 0)
(0.193879 -0.0203761 0)
(1.02264 0.0124976 -6.41652e-22)
(1.02242 0.0127044 -5.95474e-22)
(1.0308 0.033614 2.81539e-22)
(1.03116 0.0330214 2.09024e-21)
(1.03043 0.0327642 3.09109e-21)
(1.00151 -6.00898e-05 2.67857e-24)
(1.00163 -6.66375e-05 2.00486e-22)
(1.00224 -7.57119e-05 2.85365e-23)
(1.032 0.00492503 0)
(1.0325 0.00465919 -3.58393e-21)
(0.79879 -0.0013947 1.5288e-20)
(0.784592 -0.0171375 1.55964e-20)
(1.01539 0.00847711 1.97354e-22)
(1.01557 0.00874588 -2.10216e-22)
(1.01532 0.00846409 3.19109e-22)
(1.00474 0.0003585 -1.75676e-22)
(1.00515 0.000358311 -6.2433e-23)
(0.597194 0.0515869 2.09511e-21)
(0.588565 0.0503991 9.80734e-21)
(0.568215 0.0478889 2.89704e-21)
(1.00118 -2.59569e-05 1.41461e-22)
(1.00118 -2.20533e-05 1.81223e-22)
(1.00044 -3.05405e-05 1.20555e-22)
(1.0021 -3.98001e-05 -3.91742e-23)
(1.00157 -6.82064e-05 1.65332e-22)
(1.01485 0.00458691 2.41445e-21)
(1.01505 0.00486568 -3.15673e-21)
(1.01469 0.00470694 2.66265e-21)
(0.745096 0.0399241 7.27978e-21)
(0.753505 0.0414183 2.76791e-21)
(0.716112 0.0343548 -8.89413e-22)
(1.0239 0.0240577 4.78814e-22)
(1.02437 0.0237592 -5.61863e-22)
(1.0236 0.0233617 -5.57441e-22)
(0.834226 -0.0997591 -4.83456e-21)
(0.600311 0.0134602 2.33933e-20)
(0.589068 0.00751615 -2.18304e-21)
(0.626611 0.0164 6.10443e-21)
(0.97107 0.00865499 1.51853e-21)
(0.972162 0.0159599 -3.47173e-21)
(0.97702 0.00812254 1.95383e-21)
(0.277485 0.00225318 2.78634e-21)
(0.342772 -0.0397451 3.05434e-21)
(0.42114 -0.0210125 -2.75815e-21)
(0.364826 -0.0303544 -1.25591e-20)
(1.00509 -0.00030873 1.20996e-23)
(1.00524 -0.00033963 -8.78432e-24)
(1.00518 -0.000325768 -2.02387e-25)
(1.03112 0.0293685 7.71633e-23)
(1.03111 0.0286348 -4.31575e-23)
(1.016 0.00883947 -1.25435e-22)
(1.01608 0.00887524 0)
(1.01627 0.00907858 0)
(0.65254 0.0480515 -1.74468e-23)
(0.655538 0.0494273 0)
(0.622769 0.0456796 7.21769e-21)
(1.0652 0.0159359 -6.06369e-21)
(0.63186 0.0918744 -9.00075e-21)
(0.590433 0.0924937 0)
(0.603939 0.100351 -9.75931e-21)
(1.04491 0.0658617 -1.23556e-21)
(1.04611 0.0647545 0)
(1.04644 0.0669282 -3.05836e-21)
(1.00125 -3.44246e-05 7.87468e-25)
(1.00185 -3.20296e-05 -8.70748e-23)
(1.00112 -3.58147e-05 8.70554e-24)
(1.03986 0.0134654 -3.6592e-21)
(1.03926 0.0129231 -4.45414e-21)
(1.06362 0.082212 3.59563e-22)
(1.06441 0.0848824 -1.41702e-20)
(1.06135 0.0833156 -1.30586e-20)
(1.07104 0.0307267 -2.55456e-20)
(1.06998 0.0310502 -1.15205e-22)
(1.02418 0.0247685 9.31867e-23)
(1.02342 0.024341 7.84355e-22)
(1.05877 0.0139755 -5.47911e-21)
(1.05785 0.0133786 0)
(1.05777 0.0144604 5.75155e-21)
(1.01573 0.00861602 2.19066e-22)
(1.02789 0.0117411 -1.56771e-21)
(1.02817 0.0121216 -4.21003e-21)
(1.07815 0.0782986 1.64279e-20)
(1.07855 0.0768104 3.3088e-21)
(1.07868 0.0772243 2.63923e-21)
(1.08062 0.0597744 1.24572e-22)
(1.08017 0.0596075 -2.72018e-23)
(0.999785 0.0992374 -1.20139e-22)
(1.00274 0.106488 0)
(1.02755 0.0113426 -1.23504e-23)
(1.0274 0.0116833 -1.64606e-21)
(1.08094 0.0800073 9.46521e-21)
(1.07666 0.0799826 6.02093e-21)
(1.01108 -0.00114567 9.21656e-25)
(1.01065 -0.00108021 -1.82532e-22)
(1.06422 0.0308862 1.3443e-22)
(1.06279 0.0232987 2.38075e-22)
(1.04283 0.0651202 -1.50965e-21)
(1.04337 0.0675331 -3.12459e-21)
(1.07771 0.0575676 9.53838e-21)
(1.07812 0.0572982 1.99875e-21)
(1.07613 0.0730413 1.18315e-20)
(1.07496 0.0717905 1.87073e-22)
(1.0742 0.0730733 1.43155e-20)
(0.447287 0.0090573 -1.37465e-21)
(0.464185 0.0129776 -2.07494e-20)
(0.449921 0.0108976 -9.49888e-21)
(1.01135 0.0024286 2.25815e-22)
(1.01109 0.00239816 -9.90504e-23)
(0.369933 0.00817979 -6.99454e-21)
(0.38362 0.010729 1.04109e-22)
(0.364485 0.00719734 1.35093e-20)
(1.04083 0.0282756 -2.59524e-21)
(1.04039 0.0287233 -5.49657e-21)
(1.04014 0.0279318 -1.05929e-21)
(0.680179 0.0558359 1.716e-21)
(0.672849 0.0560558 7.29212e-21)
(1.01211 0.00288708 2.33699e-22)
(1.01188 0.0029401 -1.67024e-23)
(1.01522 0.00822617 8.30103e-23)
(1.01546 0.00847114 1.72111e-22)
(1.02968 0.0281186 1.6047e-21)
(1.02998 0.028354 2.6172e-22)
(1.02989 0.0279583 -1.66873e-21)
(0.402129 0.00654405 2.80252e-21)
(0.400912 0.00723943 1.07408e-20)
(0.419064 0.0091284 -6.07905e-21)
(0.308593 0.00850105 7.04785e-21)
(0.28289 0.00586607 7.81511e-21)
(1.02457 0.0197077 -1.24905e-21)
(1.02469 0.0202417 -4.08743e-22)
(1.02417 0.0198564 -1.28275e-21)
(0.845447 0.0841576 -5.23315e-21)
(0.892878 0.0757569 8.70495e-21)
(0.850733 0.0905149 2.3211e-21)
(1.02675 0.0317219 -4.40025e-23)
(1.02575 0.031977 0)
(1.02603 0.0308542 -9.38207e-23)
(1.03116 0.0344374 -3.1134e-21)
(1.01162 0.00104669 -2.432e-22)
(1.06576 0.0810615 8.85788e-21)
(1.01931 0.012987 -6.06872e-22)
(1.01938 0.0133722 -1.28161e-21)
(1.00973 0.00297403 8.72875e-25)
(1.00951 0.00286206 -3.52233e-23)
(1.00959 0.00286637 1.14411e-22)
(1.02476 0.0228349 -1.30901e-22)
(1.02186 0.0219988 1.3749e-22)
(1.02407 0.0206034 1.13407e-22)
(1.02585 0.0254011 -3.83472e-22)
(1.0286 0.0235535 1.37914e-22)
(0.323772 -0.0138184 3.29679e-21)
(1.07919 0.0531349 -9.13039e-21)
(1.07991 0.0532138 -5.52889e-21)
(1.03019 0.0284296 4.64017e-22)
(0.673295 0.0386573 -1.57708e-21)
(0.671955 0.0371777 -1.67761e-21)
(0.70293 0.0411954 2.76903e-22)
(1.00911 0.000670705 6.14412e-23)
(1.00815 0.000595347 -1.55213e-21)
(1.00991 0.000709236 1.91337e-22)
(1.00729 0.000379139 -3.64787e-22)
(1.00745 0.000404251 -1.41818e-22)
(1.00711 0.000378511 4.78184e-23)
(1.00746 0.000376164 -4.32356e-23)
(1.00714 0.00036901 -2.04116e-22)
(0.320537 -0.044847 1.30164e-20)
(1.07832 0.0758177 -6.34775e-21)
(1.07723 0.0741997 4.21816e-21)
(1.07659 0.0759979 -1.06142e-20)
(1.08419 0.0819047 -4.97872e-21)
(1.08811 0.0840993 1.8224e-21)
(1.08192 0.0841177 3.42276e-21)
(1.0203 0.00131417 -1.51511e-22)
(1.02052 0.00147858 -3.34701e-21)
(1.02052 0.00125355 2.28599e-21)
(1.00183 -6.17693e-05 5.40722e-23)
(1.00128 -5.34322e-05 1.60669e-23)
(0.57129 0.0717961 -1.45415e-21)
(0.568993 0.0544086 6.91773e-21)
(0.374412 0.00866351 -6.64262e-21)
(1.00639 0.000349891 0)
(1.00661 0.000365928 1.14862e-22)
(1.00658 0.000375765 1.14419e-22)
(1.00616 0.000340433 0)
(1.00619 0.000322224 0)
(1.00057 -3.89575e-05 0)
(0.999972 -5.94353e-05 0)
(1.00763 0.000373204 3.65669e-22)
(1.00781 0.000398343 2.8737e-22)
(1.0078 0.000370839 1.78398e-22)
(1.00749 0.000359169 4.90343e-23)
(0.462527 0.0141868 3.59137e-21)
(0.474398 0.0163802 -5.45563e-21)
(0.392256 -0.0090966 1.38272e-21)
(0.389829 -0.0146705 1.87658e-21)
(0.45629 -0.00857085 7.96687e-21)
(1.01778 0.0108306 3.39235e-22)
(1.01761 0.0105633 -5.35278e-22)
(1.01784 0.01082 -6.59266e-22)
(1.00622 -0.000504417 9.99484e-24)
(1.00643 -0.000528123 8.63246e-24)
(1.00622 -0.000502122 6.56803e-24)
(1.05956 0.0651509 1.76952e-21)
(1.05791 0.0656623 8.28158e-22)
(1.05832 0.0641473 -5.59866e-21)
(0.45498 0.0168698 6.57116e-21)
(0.443678 0.0142105 7.70852e-21)
(0.459147 0.0170676 7.48282e-22)
(1.00161 -1.91217e-05 1.76119e-22)
(1.00087 -8.22363e-06 0)
(1.00086 -2.02508e-05 0)
(1.02009 0.00139685 5.80237e-21)
(1.02009 0.00117818 -1.4872e-22)
(0.835218 0.0716447 -6.63929e-21)
(0.771993 0.0883205 -1.26902e-20)
(0.939525 0.0726909 -2.42122e-21)
(0.933639 0.0732842 -1.36221e-20)
(0.975753 0.0738316 2.94689e-22)
(1.07913 0.0751463 -1.16003e-21)
(0.676911 0.0401085 -8.6506e-21)
(0.647845 0.0358213 0)
(1.04635 0.0780438 1.09378e-21)
(1.0437 0.0780088 -4.02754e-21)
(1.04517 0.0803324 0)
(1.01443 0.0064267 -1.64253e-21)
(1.01456 0.00664998 4.01834e-22)
(0.480873 -0.0113041 -1.62304e-21)
(0.500417 -0.00475551 1.18329e-20)
(1.06101 0.065083 -7.17622e-21)
(1.06042 0.0665571 5.32634e-21)
(1.0322 0.0304444 -1.18552e-22)
(1.03164 0.0314761 1.12491e-22)
(1.07272 0.055883 4.84823e-21)
(1.07289 0.0565398 5.6509e-21)
(1.07353 0.0561094 -2.24896e-21)
(1.02442 0.0191968 -5.65722e-22)
(1.02494 0.019526 -1.24586e-21)
(0.411092 -0.00546446 2.78589e-21)
(1.0338 0.00255595 -2.69816e-21)
(1.03333 0.00273693 -1.85486e-23)
(1.03396 0.0030445 2.04143e-21)
(1.03768 0.0449168 9.7418e-22)
(1.03699 0.0455129 1.06457e-23)
(1.03826 0.0458038 -4.33644e-21)
(1.04637 0.0632971 -2.7739e-21)
(1.04702 0.0613892 -3.29302e-21)
(1.04499 0.061795 -3.06391e-21)
(1.01767 0.0108028 -3.35783e-22)
(1.01772 0.0107929 4.11392e-22)
(1.01751 0.0105584 -6.27071e-22)
(1.00008 -5.18364e-06 0)
(1.03778 0.020288 4.85059e-21)
(1.01545 0.0142593 3.93955e-22)
(1.01525 0.0130455 -2.85058e-22)
(1.01427 0.0133233 -1.91911e-22)
(1.01252 0.00192358 1.48623e-22)
(1.01255 0.00200068 2.97763e-22)
(1.01282 0.00187296 2.42051e-22)
(0.40656 0.0163732 0)
(0.395295 0.0136125 -6.01814e-21)
(0.390096 0.0134082 7.92183e-22)
(0.841253 0.1609 -2.75708e-21)
(0.872131 0.1534 0)
(0.89469 0.166301 -1.51779e-21)
(1.01139 0.001505 4.43471e-22)
(1.01123 0.00150791 2.99684e-22)
(1.01106 0.00141551 1.79928e-22)
(1.00607 0.000356801 0)
(1.00593 0.000320082 -5.06357e-23)
(1.01584 0.00900135 -1.95869e-22)
(1.01573 0.00903433 -3.22692e-22)
(1.00623 0.000384028 0)
(1.00599 0.000360958 0)
(1.03437 0.00236845 -5.20459e-21)
(1.01703 0.000291537 3.99032e-21)
(1.01253 0.000198453 -5.39919e-22)
(1.05273 0.042552 -3.13053e-21)
(1.0533 0.0436288 -1.07153e-21)
(1.0521 0.0436078 7.78474e-22)
(1.01156 0.00149781 1.40296e-22)
(1.01173 0.00162779 -2.50465e-23)
(0.303492 0.0114991 -6.26348e-23)
(0.321097 0.0151016 -7.79878e-22)
(0.536294 0.0147711 0)
(0.555495 0.0202745 -7.02283e-21)
(1.02423 0.00971666 -1.53819e-21)
(1.02432 0.00937809 5.95176e-23)
(1.0238 0.00937568 -2.68245e-21)
(1.01623 0.0115477 -2.35712e-22)
(1.01657 0.0122344 7.92562e-23)
(1.01701 0.0118537 -7.17977e-22)
(1.06493 0.113946 -1.56095e-21)
(1.06406 0.115739 -8.12116e-22)
(1.04694 0.119181 -5.15094e-21)
(1.00763 0.000119656 -9.55709e-24)
(1.00782 0.00010485 2.35871e-22)
(1.0075 0.000107977 3.03208e-22)
(1.00129 0.0209036 3.3204e-21)
(0.997204 0.0215386 1.38495e-21)
(1.00147 0.0256839 2.00876e-21)
(0.423565 0.0196668 -1.44625e-21)
(0.418123 0.0192636 0)
(1.00746 0.000135107 -2.30108e-22)
(1.00778 0.000136428 7.46362e-23)
(0.429215 0.0119207 7.27242e-21)
(0.424546 0.0115712 0)
(1.01246 0.00187779 0)
(1.01221 0.00196414 2.30615e-22)
(0.783978 0.0451024 5.20049e-21)
(0.744938 0.0390804 -9.85471e-21)
(1.00125 -3.24195e-05 -9.9161e-23)
(1.00062 -3.05491e-05 1.24719e-22)
(1.01607 0.0162768 3.37772e-23)
(1.01601 0.0153312 2.54205e-22)
(1.0166 0.0158474 2.60147e-22)
(1.01765 0.0107971 -5.84507e-23)
(1.01781 0.0110517 2.2919e-22)
(1.01357 0.00602873 -3.19043e-22)
(1.01333 0.00584087 -3.14483e-22)
(1.01337 0.00582622 3.73649e-22)
(1.07872 0.0646102 8.60562e-22)
(1.07801 0.0642725 7.6339e-21)
(1.07888 0.0638688 1.24174e-20)
(1.00505 0.000347583 -6.97049e-22)
(1.00508 0.000320991 -5.17635e-23)
(1.00302 0.000174576 -6.22463e-22)
(0.967038 0.00120953 5.73108e-21)
(0.963092 0.0114267 5.2209e-21)
(1.03808 0.0318567 2.79553e-22)
(1.0375 0.0322664 1.7661e-21)
(1.03747 0.0313604 6.77268e-22)
(1.01134 -0.00234506 0)
(1.01177 -0.00400826 0)
(0.946321 0.0870481 -4.73852e-21)
(0.938245 0.07641 -5.40113e-21)
(0.957719 0.0750114 -4.67212e-21)
(0.289441 0.00857172 -9.27574e-22)
(1.00226 -7.32264e-06 -4.71318e-23)
(1.00222 -3.15772e-06 1.53183e-22)
(1.05989 0.0525914 0)
(1.06092 0.0533476 0)
(1.061 0.0520598 0)
(1.01798 0.0152905 0)
(1.01663 0.0148173 0)
(1.01745 0.0140313 2.13707e-22)
(1.03156 0.0239522 4.10541e-21)
(1.03122 0.0241698 7.35737e-22)
(1.0311 0.0235133 2.92709e-21)
(1.01963 0.0154252 2.26026e-22)
(1.01982 0.0141647 -5.14296e-22)
(1.03421 0.0215499 3.03898e-21)
(1.03457 0.022078 -4.64471e-21)
(1.01155 0.00220896 3.40048e-22)
(1.01175 0.00213014 -3.48986e-22)
(1.01145 0.00211594 4.23007e-24)
(1.0061 0.000436192 3.2234e-22)
(1.00481 0.000317061 -2.36473e-23)
(1.05655 0.086196 8.00819e-21)
(1.05997 0.0879969 9.69659e-21)
(1.05891 0.0845693 -2.5798e-21)
(1.02819 -0.0162047 1.0735e-21)
(1.0359 -0.0190026 6.60414e-22)
(1.03152 -0.0121172 5.27417e-22)
(1.0386 0.0441211 5.9729e-21)
(1.03724 0.0438857 8.75295e-22)
(1.03452 0.0212284 -2.75256e-21)
(1.03383 0.0210771 1.54531e-21)
(1.01992 0.0014238 4.33545e-21)
(1.01976 0.00126066 -3.17927e-21)
(1.01972 0.00144275 1.53125e-21)
(0.606093 0.0515469 -7.47621e-21)
(0.629893 0.0539504 -9.65273e-21)
(0.397217 0.00487766 -2.50599e-21)
(0.369563 0.00503503 9.65154e-22)
(1.01132 0.00360765 0)
(1.01119 0.00349331 -2.81994e-23)
(1.01107 0.0035051 0)
(1.01449 -0.0059239 -5.8449e-22)
(1.016 -0.00722044 1.29471e-21)
(1.01592 -0.00544779 -1.00834e-21)
(1.03206 0.0243495 -2.33342e-21)
(1.02879 0.0833448 1.64996e-22)
(1.01399 0.0760506 9.44508e-22)
(1.02176 0.0681244 -5.69788e-23)
(1.0832 0.0593626 2.45427e-21)
(1.0831 0.0600024 -5.63882e-21)
(1.08378 0.0596488 7.31687e-21)
(0.559757 0.0248153 -4.42899e-21)
(0.543783 0.0241252 0)
(0.535633 0.0207221 -7.72477e-21)
(0.652346 0.0853572 -1.51094e-21)
(0.666099 0.0910467 -5.87805e-21)
(1.03257 -0.00178245 6.82366e-22)
(1.03108 -0.00640425 -1.42952e-22)
(1.03364 -0.00446061 2.05439e-22)
(1.01503 0.0963005 -1.97743e-21)
(1.01119 0.0928489 -3.6601e-22)
(1.016 0.0108978 6.93708e-23)
(1.01559 0.0110667 5.51799e-22)
(1.00622 0.0574661 -6.69813e-21)
(0.976072 0.0563411 -3.47401e-21)
(1.03383 0.101816 6.3074e-22)
(1.04536 0.0888552 2.13966e-22)
(1.07789 0.0595017 0)
(1.07993 0.0596722 4.53895e-21)
(1.01676 0.00042453 -1.25486e-21)
(1.01189 9.42589e-05 -2.02997e-21)
(1.01543 0.0166893 -3.72393e-22)
(1.01468 0.0159587 6.89306e-22)
(0.888128 0.0554893 -6.1567e-21)
(1.01599 0.00890127 -2.45939e-23)
(1.01599 0.00887523 5.10479e-24)
(1.01621 0.00910094 1.833e-23)
(1.01456 0.0377062 -6.32064e-23)
(1.01194 0.0374504 8.1682e-22)
(1.07728 0.0572813 -4.18896e-22)
(1.07733 0.0578783 -5.26182e-22)
(1.00132 -1.0173e-05 -6.24121e-23)
(1.00115 -1.3387e-05 -1.64238e-22)
(1.00031 -3.39154e-05 -2.25488e-22)
(0.677567 0.0507296 -7.19101e-21)
(0.645384 0.0469752 1.0515e-20)
(1.01519 0.00166413 -1.30753e-22)
(1.01522 0.00193477 0)
(1.01498 0.00180018 7.94704e-22)
(1.0823 0.0356093 -5.67549e-22)
(1.08323 0.036252 9.58751e-21)
(1.0102 2.4601e-05 -8.62766e-23)
(1.01004 -5.10035e-06 -8.85977e-23)
(1.01043 4.48996e-05 -3.26178e-24)
(0.317632 0.0197265 -6.40422e-21)
(0.330003 0.0130862 1.69607e-20)
(1.00839 0.0020077 1.82583e-22)
(1.00824 0.00192229 1.66077e-22)
(1.00826 0.00186926 3.80632e-22)
(1.03939 0.0435797 2.59473e-21)
(1.03904 0.0425851 -7.63212e-22)
(1.04015 0.0429693 -2.74292e-21)
(1.02766 0.0322743 -6.07879e-23)
(1.02754 0.0312312 -3.28008e-23)
(1.0325 0.00227229 6.37606e-23)
(1.02999 -0.000599002 7.34804e-23)
(1.00226 4.91681e-05 -6.93795e-23)
(1.00163 9.55141e-06 1.83785e-22)
(1.07406 0.0557396 -1.11286e-20)
(1.0747 0.05545 -5.09916e-21)
(1.07403 0.0550542 -5.50121e-21)
(0.972889 0.0676605 3.77174e-21)
(1.00942 0.0685122 3.04814e-21)
(0.976806 0.06665 -9.76379e-21)
(1.02386 0.015125 -1.55248e-21)
(1.02363 0.0153437 -2.76233e-21)
(1.02346 0.014766 -4.37416e-22)
(1.01597 0.00891628 -1.07593e-22)
(1.01576 0.00868068 -2.87148e-23)
(0.541477 0.0284979 -4.36045e-21)
(0.545835 0.0288601 0)
(0.961121 0.0708163 5.6192e-21)
(0.968532 0.0694189 0)
(1.00208 0.0707976 8.02918e-21)
(0.818594 0.0695094 -1.22242e-20)
(0.84047 0.0676104 -1.84084e-20)
(0.798815 0.0652061 2.4389e-21)
(0.936363 0.0367907 1.91887e-21)
(0.884112 0.0342001 -2.04018e-21)
(1.00729 0.000156243 1.48378e-22)
(1.00713 0.000139359 -8.51739e-23)
(1.01844 0.0114233 6.28011e-22)
(1.01828 0.0111103 -3.31433e-22)
(1.01855 0.0113905 6.7527e-22)
(0.927979 0.0741091 8.20931e-21)
(0.922555 0.0747966 5.71918e-21)
(0.964973 0.0754263 1.55984e-20)
(1.02003 0.0941211 -5.25514e-22)
(1.01717 0.100286 -3.34582e-21)
(1.00745 0.000172439 2.51175e-22)
(1.00715 0.000173249 -1.49764e-22)
(1.01873 0.0166217 0)
(1.0251 0.0119814 -2.28004e-21)
(1.02542 0.0123816 2.04579e-21)
(1.02493 0.0121848 1.277e-21)
(1.02825 0.0246816 -1.18743e-21)
(1.02864 0.0233996 2.00288e-22)
(1.02712 0.0237887 -1.24123e-21)
(1.03976 0.0445267 2.89945e-21)
(1.07177 0.0702736 -5.2414e-21)
(1.07131 0.0690262 -3.80141e-21)
(1.07031 0.0699335 -3.61856e-21)
(1.02665 0.0772851 -1.69526e-21)
(1.02605 0.0741167 -4.39463e-22)
(1.02941 0.0752347 6.51329e-22)
(1.0055 0.0207707 1.76002e-21)
(1.00256 0.0157088 9.03459e-22)
(1.0796 0.0368069 -1.86581e-21)
(1.07882 0.0373444 -1.18205e-21)
(1.07972 0.0377851 -6.71623e-21)
(0.499859 0.0201582 -1.90625e-22)
(0.484487 0.0169725 6.33805e-25)
(0.496067 0.0195532 -7.72701e-22)
(1.01209 0.00418148 1.0343e-23)
(1.01195 0.00421944 2.87122e-24)
(1.0243 0.0154856 8.64673e-22)
(1.02409 0.0149106 6.77511e-22)
(1.02268 0.0170843 0)
(1.02395 0.0161995 0)
(1.08099 0.0623333 -1.1715e-21)
(1.08081 0.0618762 3.34857e-21)
(1.08137 0.0620175 1.23744e-20)
(1.00096 -2.69554e-05 4.26272e-23)
(1.00019 -2.06648e-05 -4.66414e-23)
(1.00103 -3.0618e-05 2.20543e-22)
(0.419105 0.00632322 1.59764e-20)
(1.08038 0.0363493 -5.16141e-22)
(1.07935 0.035994 -7.89989e-21)
(0.905779 0.12841 -1.4868e-21)
(0.906314 0.121942 -2.34342e-21)
(1.02327 0.0133002 -1.25228e-21)
(1.02368 0.0134015 -5.90077e-22)
(1.02088 0.0868836 1.91358e-21)
(1.02283 0.0908735 3.28808e-21)
(1.02511 0.0873221 -5.12287e-22)
(1.01313 -0.00623933 -1.01796e-22)
(1.01376 -0.00481106 2.39679e-22)
(0.906271 0.0828573 -2.53565e-22)
(0.895734 0.0671883 -4.29616e-21)
(0.870657 0.0902191 -2.49158e-21)
(1.0134 -3.88436e-05 -1.51322e-22)
(1.01325 -5.47974e-05 3.2438e-22)
(1.01302 0.000160219 4.45695e-22)
(1.08642 0.0799173 0)
(1.0668 0.112321 -1.93037e-21)
(1.02793 0.0335212 -4.80746e-23)
(1.02887 0.0325764 4.20532e-24)
(1.02415 0.00998997 9.74942e-22)