/*--------------------------------*- C++ -*----------------------------------*\
| =========                 |                                                 |
| \\      /  F ield         | OpenFOAM: The Open Source CFD Toolbox           |
|  \\    /   O peration     | Version:  v2012                                 |
|   \\  /    A nd           | Website:  www.openfoam.com                      |
|    \\/     M anipulation  |                                                 |
\*---------------------------------------------------------------------------*/
FoamFile
{
    version     2.0;
    format      ascii;
    class       volScalarField;
    location    "150";
    object      nut;
}
// * * * * * * * * * * * * * * * * * * * * * * * * * * * * * * * * * * * * * //

dimensions      [0 2 -1 0 0 0 0];


internalField   nonuniform List<scalar> 
13851
(
0.00663242
0.00334301
0.00110154
0.0066692
0.0024591
0.00910936
0.00678108
0.00205415
0.00674573
0.000613105
0.0184791
0.00838685
0.00145532
0.00915909
0.00672684
0.00184358
0.00369176
0.00587572
0.000539101
0.00674026
0.00669152
0.00129513
0.0068593
0.00686795
0.00687854
0.0017695
0.00350346
0.000311055
0.00666224
0.00652143
0.0123686
0.0034545
0.00108734
0.0109138
0.006873
0.001119
0.000217817
0.000574889
0.000726911
0.0118927
0.00680214
0.00671069
0.00224689
0.0194432
0.0179072
0.00362339
0.0177882
0.00988294
0.00341676
0.00660816
0.00221314
0.00111735
0.00372735
0.00676451
0.00684826
0.00671524
0.00682714
0.00591203
0.00655633
0.0068024
0.000492398
0.00832128
0.00179023
0.00214906
0.0112723
0.00640374
0.000307373
0.0179112
0.00268639
0.00591135
0.00213292
0.00252652
0.00430184
0.00676976
0.00672111
0.00680539
0.00141974
0.00310874
0.00351324
0.0026944
0.00682413
0.0160795
0.00674064
0.00212892
0.00179341
0.00754071
0.00504062
0.00778081
0.00320341
0.0068069
0.00115475
0.00545229
0.0179558
0.00309441
0.00397247
0.00685733
0.00240096
0.00804403
0.0071088
0.00685871
0.00230043
0.00307471
0.0068084
0.00289941
0.0068559
0.00525736
0.00287042
0.0066898
0.00560177
0.010763
0.00686311
0.00680272
0.0060818
0.00684047
0.00686256
0.0058026
0.00884601
0.00668492
0.00688597
0.00687716
0.00254823
0.00315429
0.00262229
0.00993502
0.00991055
0.0066596
0.00975979
0.00339267
0.00670998
0.00112569
0.00679648
0.00670999
0.00315044
0.006738
0.00503819
0.00673601
0.00668548
0.00209982
0.012742
0.014521
0.00259818
0.00684904
0.00669608
0.00679397
0.00523249
0.0194366
0.00534027
0.00103298
0.00677716
0.0170624
0.00166785
0.00685576
0.00836842
0.00683959
0.00422726
0.00585739
0.00677379
0.00669272
0.00125309
0.00228036
0.00677302
0.00300223
0.00612125
0.00670973
0.00441038
0.00675502
0.00521123
0.00268244
0.00672523
0.00507779
0.00222009
0.00670037
0.0067764
0.0142013
0.00670672
0.00978749
0.00339317
0.00668014
0.000520006
0.00670446
0.00332628
0.00258654
0.00673298
0.00118442
0.00672414
0.00685117
0.00636932
0.00680605
0.00219404
0.000823478
0.0185606
0.00504791
0.00678893
0.00275348
0.00844962
0.00531205
0.00672097
0.0137155
0.00670576
0.00680698
0.00666241
0.004766
0.00691009
0.00674247
0.000747426
0.00673538
0.00884371
0.00379615
0.00872026
0.00673166
0.00768765
0.00681704
0.0131271
0.00669344
0.00678316
0.01632
0.00164138
0.0040242
0.00671627
0.00911488
0.00366439
0.00682246
0.00775196
0.00119131
0.0100093
0.00685239
0.00277255
0.00688399
0.00745772
0.00669898
0.00180382
0.0142604
0.00669841
0.00679776
0.00211548
0.00152494
0.00896762
0.0145061
0.00679411
0.00674446
0.0111352
0.00676727
0.00679435
0.000751459
0.00682783
0.0104479
0.00319891
0.0133458
0.00566449
0.00336827
0.00615329
0.0068254
0.00683291
0.00593259
0.00237175
0.00310721
0.000840488
0.00220859
0.000244288
0.00672698
0.0067835
0.00605798
0.00749234
0.00681019
0.00112048
0.00508537
0.00683524
0.00308136
0.00704797
0.00349021
0.00622162
0.00467633
0.0126123
0.00323622
0.00197789
0.00671303
0.0177937
0.0073548
0.0101394
0.0181024
0.00679275
0.006721
0.00685373
0.00260083
0.00900286
0.00920708
0.0067719
0.00671775
0.0137268
0.0177668
0.00094007
0.00660733
0.00680609
0.00276992
0.0153268
0.00124829
0.00476502
0.00649312
0.00671716
0.0103014
0.0028951
0.00385809
0.00964136
0.00683992
0.00551897
0.00914868
0.00676556
0.00243497
0.00277323
0.00663936
0.0126136
0.0036358
0.00683538
0.00820055
0.00672144
0.00359325
0.00665005
0.00955478
0.00139604
0.00671704
0.00267394
0.00671736
0.00125337
0.0049748
0.00685217
0.00682701
0.00136416
0.00297978
0.00492494
0.00671722
0.00683915
0.00683846
0.0188629
0.00436907
0.00564713
0.0030418
0.00991045
0.00970091
0.0067228
0.0028366
0.000813663
0.00565725
0.00148505
0.00145589
0.000355143
0.0064761
0.00933506
0.00956824
0.00673327
0.00665096
0.00688805
0.00195675
0.00489171
0.00124164
0.00742656
0.00678401
0.00984225
0.00682797
0.00671641
0.00681191
0.00669337
0.00675356
0.00923726
0.0122684
0.00677357
0.0026051
0.00674037
0.00633659
0.00130584
0.00916478
0.00569755
0.00678008
0.00165124
0.00289187
0.00970362
0.00678125
0.0066852
0.0062675
0.00218375
0.00676456
0.0126024
0.00514727
0.00141625
0.00392071
0.00909025
0.009123
0.00643563
0.00671179
0.00680912
0.00372511
0.00242337
0.00989236
0.0024453
0.00980895
0.00922979
0.00674252
0.00672934
0.00528058
0.00403608
0.0118997
0.00840686
0.00599655
0.00282859
0.00686023
0.00863973
0.00672015
0.00176387
0.00647379
0.00677021
0.00687462
0.00676058
0.006753
0.00220927
0.00133328
0.00296415
0.00504085
0.00266944
0.00322523
0.00852847
0.00340501
0.00212323
0.00391251
0.0161107
0.00668491
0.00675539
0.00686883
0.000306195
0.0129838
0.00141527
0.00339312
0.00177057
0.00998666
0.00483667
0.00690979
0.00190797
0.00677571
0.0106239
0.00684716
0.00494054
0.0143245
0.00103988
0.00766777
0.00667939
0.00744354
0.0144266
0.00245271
0.00670177
0.00279138
0.00379865
0.00464831
0.0067079
0.00683803
0.00164711
0.00143767
0.00281575
0.00883038
0.00686704
0.00683403
0.0029982
0.00411529
0.00671385
0.012644
0.0067114
0.00663329
0.00671711
0.00129366
0.00674376
0.00672295
0.00669797
0.00777901
0.00674329
0.00265549
0.00672345
0.00525267
0.0124532
0.00684247
0.00681079
0.00684246
0.00683939
0.00734274
0.00683516
0.00592315
0.00673064
0.00685254
0.00552115
0.00700389
0.0067395
0.00472391
0.00305099
0.0082227
0.0027718
0.00683259
0.0114113
0.00678545
0.00245696
0.0067856
0.00771399
0.00671634
0.00320037
0.000916122
0.00671247
0.00537232
0.00741929
0.00164788
0.0149983
0.00689548
0.00719363
0.00687738
0.00670487
0.00671797
0.00676413
0.00607396
0.00260821
0.00131029
0.000354487
0.00180483
0.00678287
0.00580119
0.0131298
0.00319529
0.0026427
0.00845176
0.00905133
0.00770298
0.00681757
0.00792381
0.00277505
0.00467034
0.00423158
0.00481721
0.0128797
0.0080111
0.00274679
0.0137493
0.00782794
0.00666337
0.00815414
0.00245321
0.00669123
0.00668609
0.00236989
0.00471447
0.00609698
0.00672539
0.00676746
0.00676742
0.00223792
0.00162801
0.0105694
0.00847805
0.00673227
0.00307436
0.00744276
0.00651045
0.0140647
0.00264629
0.00669983
0.00675088
0.00736468
0.00603486
0.00443899
0.00157884
0.00120063
0.00671359
0.00373471
0.00852456
3.96342e-05
0.00150964
0.00672603
0.00262732
0.00679131
0.00677238
0.0152504
0.00932968
0.00138524
0.00241777
0.0018661
0.00669994
0.00672718
0.0055999
0.00670626
0.00607462
0.00670305
0.00670609
0.00266368
0.00223555
0.00367587
0.00670529
0.0124082
0.0133805
0.00671679
0.00680524
0.00680935
0.00680031
0.00229859
0.0136308
0.0135884
0.00577569
0.00731258
0.00240894
0.00279729
0.00765895
0.00644221
0.00273795
0.00670064
0.0066306
0.00181367
0.00680703
0.00956633
0.00154781
0.00270912
0.00673206
0.00185384
0.00670434
0.0158594
0.00264625
0.00672762
0.00299706
0.0067064
0.00344263
0.00123301
0.00679394
0.00677141
0.00134978
0.00680469
0.00242266
0.000444669
0.00147651
0.00179568
0.00132378
0.00672803
0.00560202
0.00597128
0.0062798
0.00682432
0.0068637
0.00478966
0.0066071
0.00401237
0.00992937
0.00665073
0.014954
0.00671765
0.00294009
0.00677671
0.00670746
0.00671722
0.00670694
0.00635201
0.00422715
0.00154006
0.00669929
0.00946211
0.000930148
0.0094863
0.00675749
0.00674399
0.00682495
0.00086986
0.00923402
0.00209631
0.0030946
0.00677196
0.00685857
0.00681699
0.00679267
0.00112961
0.0121519
0.00679823
0.00669706
0.0067664
0.00678916
0.00165763
0.00572522
0.00180722
0.00871174
0.00751627
0.00676647
0.00133176
0.00230134
0.00272069
0.00875391
0.00682706
0.00601177
0.0020017
0.00598494
0.0131882
0.00673707
0.0123043
0.00685838
0.00216796
0.00880588
0.00681878
0.00670316
0.00192293
0.0067075
0.00354909
0.0112241
0.0122116
0.00272061
0.00102872
0.00891088
0.00669567
0.00675227
0.00677365
0.00133248
0.00136492
0.00974068
0.00675032
0.0068561
0.0066914
0.00808464
0.000347222
0.0056861
0.0068276
0.0126704
0.00371329
0.00681927
0.00125506
0.00308164
0.00894125
0.00671848
0.00679355
0.00307488
0.00173421
0.00118982
0.00672756
0.00555233
0.00673903
0.0146542
0.000624124
0.000939777
0.00402785
0.00549316
0.00634454
0.00660909
0.000363676
0.0068635
0.00690651
0.00672343
0.00672544
0.00122345
0.00212621
0.00160867
0.0040419
0.00862483
0.00673606
0.00802977
0.00688957
0.00638003
0.00674857
0.00675808
0.00677234
0.00924565
0.006759
0.00668886
0.00955123
0.00677805
0.00506023
0.00686418
0.00670669
0.00199198
0.00155097
0.0138877
0.00676068
0.0143417
0.00752715
0.00683299
0.00793567
0.00223152
0.00672044
0.00534611
0.00202211
0.0143091
0.00375984
0.00674719
0.0066913
0.0141264
0.000762107
0.00101462
0.00514083
0.00530181
0.00679928
0.00671964
0.00170539
0.00993595
0.00224575
0.00897143
0.00678778
0.00241877
0.00189806
0.00901343
0.0060702
0.0106945
0.000506921
0.00678014
0.00206002
0.00393248
0.00711225
0.0116858
0.00881421
0.00862692
0.00148342
0.00672211
0.00374633
0.00593056
0.00173653
0.00682428
0.0068524
0.00233467
0.0120642
0.00670784
0.00313152
0.00674424
0.00676763
0.00223331
0.00309079
0.00928238
0.00670842
0.00671735
0.00266148
0.0007402
0.00142849
0.00660383
0.00650118
0.000559425
0.00913836
0.00308854
0.00267659
0.00683554
0.00678089
0.00314378
0.00196186
0.00334546
0.0049628
0.0027633
0.000817303
0.00691169
0.00617172
0.00674819
0.00249258
0.00671637
0.00174552
0.00671881
0.00991678
0.00374114
0.0103312
0.00670327
0.00190722
0.00674204
0.000638209
0.00264458
0.00259585
0.0083607
0.0026928
0.00125833
0.00686623
0.00214257
0.00949442
0.00164279
0.00647301
0.00228129
0.00680917
0.0112876
0.0108468
0.00683087
0.00887596
0.00214211
0.00587899
0.00889908
0.00534413
0.00681741
0.00861432
0.00686672
0.00583094
0.00884924
0.00675352
0.00420779
0.000532915
0.0123718
0.0125641
0.00680002
0.00679751
0.010559
0.00875226
0.00163754
0.00403563
0.00667572
0.0100252
0.0043543
0.00188186
0.00668932
0.00135219
0.00670693
0.00690365
0.00822058
0.00685215
0.00594141
0.0120663
0.00677362
0.00667672
0.00682177
0.00671565
0.00276797
0.00692873
0.00278397
0.0107213
0.00673911
0.00276365
0.00681427
0.00670697
0.00682999
0.0067707
0.00554007
0.00674158
0.00257636
0.00675203
0.00370681
0.00807887
0.00160593
0.00690373
0.0157188
0.000933567
0.000222049
0.00191918
0.00238739
0.00218391
0.00288711
0.0015752
0.0096563
0.00428842
0.00383049
0.00225077
0.0175093
0.00683125
0.00222942
0.00303986
0.0123393
0.00680857
0.0151951
0.00674903
0.00676089
0.0104784
0.00669728
0.000559675
0.003719
0.00671837
0.00266837
0.00671746
0.00671712
0.00671351
0.00682585
0.000486733
0.00675659
0.000985323
0.00477326
0.000798654
0.0126961
0.00677516
0.00689269
0.00664501
0.00677326
0.00671406
0.00200394
0.00611648
0.00677986
0.0068239
0.00686729
0.0051712
0.0120463
0.00170462
0.00874132
0.000809133
0.00672826
0.0134223
0.00265879
0.00675036
0.0157296
0.00506469
0.0106853
0.0067262
0.0184445
0.0112615
0.007123
0.00669805
0.00174509
0.0024623
0.00362271
0.00664862
0.00674742
0.00832195
0.0036376
0.00757456
0.00681429
0.00673475
0.00975726
0.00682949
0.00184738
0.00942093
0.0142235
0.000403552
0.0115775
0.00686274
0.00677573
0.00179807
0.0050896
0.00324881
0.000619758
0.00230437
0.0058799
0.00668853
0.0130446
0.00678647
0.00569183
0.000312476
0.00505596
0.00062193
0.00682979
0.00679433
0.00683373
0.0146843
0.0124232
0.00669827
0.00685796
0.00681345
0.00213906
0.00672235
0.00680587
0.00682088
0.00278414
0.000334421
0.00149119
0.00351848
0.00677571
0.00195278
0.00314327
0.00455649
0.00224653
0.00678122
0.00177081
0.00675423
0.00224766
0.00672635
0.00685577
0.00683426
0.00322493
0.001437
0.0116973
0.00325967
0.0145953
0.00672783
0.00686116
0.00684245
0.0128475
0.0105359
0.00676516
0.00285066
0.00136993
0.00711798
0.00684431
0.00701621
0.00628418
0.0105166
0.000711674
0.00645578
0.00157463
0.00172719
0.000318105
0.00793019
0.011704
0.0050502
0.00683907
0.000883444
0.00671984
0.00647919
0.00261746
0.00681915
0.00789558
0.00248564
0.00303252
0.00918586
0.000956247
0.00896526
0.00671711
0.00385973
0.00497344
0.00680224
0.00328128
0.0103998
0.00888388
0.0131107
0.00670962
0.00291201
0.00656357
0.00990023
0.00806352
0.00140546
0.00679622
0.00651147
0.00797318
0.00158647
0.0073143
0.0079713
0.00607472
0.00675178
0.00143386
0.0033454
0.00326608
0.00286186
0.0083655
0.0141062
0.00116434
0.00604178
0.00680068
0.00508709
0.00676463
0.00355803
0.00139742
0.00738354
0.0114965
0.00282571
0.00128214
0.00517441
0.00772826
0.000847767
0.00682725
0.00151408
0.00916778
0.00159373
0.00450593
0.00677223
0.00678138
0.00293781
0.00425627
0.00679761
0.0068374
0.00676963
0.00677696
0.00538308
0.00144644
0.00682866
0.00493984
0.000773519
0.00813205
0.00120878
0.00850992
0.00673061
0.00475032
0.00309515
0.00680892
0.00150543
0.0091193
0.0067839
0.00675221
0.00102806
0.00747733
0.00670348
0.00670942
0.0154834
0.00682479
0.00740975
0.00670949
0.0078676
0.00678383
0.00224768
0.0121699
0.00756613
0.00512905
0.000676214
0.0129361
0.0091229
0.000456332
0.0100828
0.00537487
0.00672858
0.00575685
0.00684632
0.00671736
0.00680449
0.010968
0.00676287
0.000242094
0.00675553
0.00662209
0.00333789
0.000909119
0.00496703
0.00563266
0.0065374
0.00671502
0.00277309
0.00118824
0.00414143
0.00673022
0.00272843
0.0166769
0.00683939
0.00675458
0.00880395
0.00278928
0.00159682
0.00137741
0.0135838
0.0112569
0.00127051
0.00403298
0.00596066
0.0172224
0.0130374
0.0170505
0.00285764
0.00677148
0.00137655
0.00672955
0.00673556
0.0138299
0.00883442
0.006676
0.00916391
0.00344255
0.00500333
0.00607671
0.00516311
0.00676636
0.00386434
0.00661099
0.00677157
0.00520052
0.00875284
0.00909077
0.00636534
0.00681417
0.00140167
0.0109164
0.00891012
0.00268775
0.00678102
0.00676555
0.015429
0.00672926
0.000794632
0.00682867
0.0059703
0.00664663
0.00317918
0.00849663
0.00610095
0.0068219
0.00168272
0.00637121
0.00340053
0.00671584
0.00682731
0.00563589
0.00313683
0.00774315
0.00315132
0.00482514
0.00140498
0.00672581
0.00126531
0.00683577
0.00129395
0.00669474
0.00566954
0.00682573
0.00685702
0.00129226
0.00584353
0.00187881
0.0067811
0.00170635
0.000434582
0.00295702
0.00677893
0.00343473
0.0068918
0.00209972
0.0064714
0.00820185
0.000877513
0.00238629
0.00357102
0.00681878
0.00732498
0.006782
0.0102324
0.00671694
0.00681805
0.00673492
0.00859937
0.00318065
0.00647297
0.0061482
0.00686727
0.00174469
0.00860057
0.00106177
0.00283356
0.00676163
0.00662293
0.00677996
0.00681912
0.000809802
0.0103402
0.00686035
0.00322191
0.00268732
0.00201329
0.00682548
0.0062497
0.00992647
0.00569122
0.00638418
0.000477195
0.00854185
0.00679021
0.00630909
0.00673706
0.010332
0.00139948
0.00194875
0.0014201
0.00647662
0.00484778
0.00749219
0.00771921
0.00683904
0.00419482
0.0017378
0.00682207
0.00529127
0.00678216
0.00682418
0.00673321
0.00113023
0.00632695
0.00116404
0.00603984
0.00464394
0.00274462
0.0141617
0.00019329
0.0082555
0.0162883
0.00599999
0.00141213
0.000912438
0.00412407
0.000720693
0.0129943
0.00673078
0.0061582
0.0067514
0.00237287
0.00163736
0.00673624
0.0145205
0.000805743
0.00235387
0.00582092
0.00673676
0.00686508
0.000894054
0.00218147
0.00978697
0.00285553
0.00100445
0.000789562
0.00134473
0.00856064
0.00228109
0.00855247
0.00678483
0.00677172
0.00114712
0.00747347
0.00324638
0.0076854
0.00688434
0.00386535
0.0169204
0.00681778
0.00280142
0.0067065
0.00258734
0.0022501
0.00531699
0.00509674
0.000300097
0.005056
0.00843332
0.00218036
0.00672733
0.00159779
0.0125477
0.00345988
0.00374892
0.00176105
0.00669773
0.00687025
0.00676822
0.00418951
0.00898676
0.007008
0.00353196
0.00422744
0.00421356
0.00174209
0.000895154
0.00684403
0.00680534
0.00674531
0.00625921
0.00672768
0.00748851
0.00154406
0.00181904
0.000689532
0.000951919
0.00373069
0.0018969
0.00268469
0.0067489
0.00651082
0.00118432
0.000450038
0.00363859
0.00670597
0.00675425
0.00154352
0.00235773
0.00124837
0.00816993
0.00385883
0.00673805
0.00141468
0.00678909
0.00252572
0.00302383
0.00671025
0.00266308
0.00683559
0.010459
0.00677996
0.010901
0.00674738
0.00430571
0.00303886
0.00679628
0.0021173
0.0026385
0.00351602
0.00615118
0.00907911
0.00320363
0.00260302
0.00676079
0.0015137
0.00725875
0.00685395
0.00677641
0.0166773
0.00668453
0.00652662
0.00687192
0.00263031
0.000915923
0.00323533
0.00166813
0.00669879
0.00676702
0.00178695
0.0085002
0.00673084
0.000930728
0.00689372
0.00229223
0.000777089
0.00193483
0.00564539
0.00268018
0.000272712
0.00672631
0.0155845
0.0164338
0.00137828
0.00559072
0.00823815
0.0066668
0.00643729
0.00675512
0.00156535
0.0154507
0.00892646
0.00627144
0.0032429
0.00824308
0.0101894
0.00166214
0.00673239
0.00679345
0.00772528
0.0036803
0.00178547
0.00686447
0.00684362
0.00670648
0.00682129
0.00779873
0.000909265
0.00230609
0.00830134
0.00105589
0.00668596
0.00673761
0.00676183
0.00618875
0.0108217
0.000380266
0.0043843
0.00696577
0.0113009
0.00083628
0.00295238
0.00206561
0.00230379
0.00851343
0.00255801
0.00514785
0.0067308
0.00686114
0.00272004
0.0104217
0.0151004
0.0088861
0.00124072
0.00794018
0.0065128
0.00346897
0.00686572
0.00345243
0.00718742
0.00829791
0.005187
0.00396502
0.00676744
0.0067471
0.00671759
0.006749
0.00293883
0.00252082
0.00416897
0.00201926
0.00807814
0.00444794
0.0101645
0.00476764
0.00293415
0.00721521
0.00144025
0.0169325
0.00855224
0.00670464
0.00628156
0.00293037
0.00269383
0.000779355
0.00171205
0.00468283
0.0128543
0.00689841
0.00147784
0.00685779
0.00727803
0.0125982
0.00385585
0.00677024
0.0157683
0.000659502
0.00126586
0.00784311
0.00133723
0.0061088
0.00679102
0.00158116
0.0100382
0.000688136
0.00254164
0.00799194
0.0112486
0.00675871
0.00673874
0.00373996
0.00851868
0.00806611
0.00672668
0.00477236
0.00590107
0.00677203
0.00683798
0.00310202
0.00024798
0.00603798
0.00301617
0.00671143
0.00574551
0.0067315
0.000607459
0.00682247
0.00943352
0.00657735
0.00406016
0.00678688
0.00673202
0.00132153
0.00265842
0.0165989
0.00166767
0.00919248
0.00680466
0.00678793
0.00674161
0.00213819
0.00293379
0.00293343
0.00200525
0.00599716
0.00356679
0.00101095
0.0114607
0.00793517
0.00682144
0.00715068
0.0092884
0.00273688
0.00762175
0.00182459
0.00343601
0.00681315
0.000713342
0.00682578
0.0175015
0.00200625
0.00125387
0.00884212
0.00662087
0.00197313
0.00677291
0.00532178
0.00676447
0.00670623
0.011254
0.000637084
0.00649974
0.000993942
0.0017877
0.00264654
0.00672983
0.0150015
0.00309629
0.00675783
0.0012751
0.00673787
0.00293705
0.00677055
0.00226479
0.00684915
0.0194724
0.0147885
0.0029598
0.0033709
0.000880028
0.0107802
0.00681983
0.0130167
0.0139809
0.0067281
0.00674679
0.00672759
0.00642311
0.00204463
0.0067661
0.00600374
0.00180697
0.0140146
0.00225649
0.00683827
0.00683086
0.00675122
0.00256572
0.00679325
0.00679096
0.00109037
0.00324789
0.00508011
0.00779154
0.00152034
0.00654108
0.00203587
0.00638605
0.0058287
0.00443201
0.00678622
0.00330241
0.0045942
0.0109599
0.000269991
0.0067676
0.00270901
0.00890545
0.00615668
0.0114027
0.00648823
0.00672589
0.00363975
0.00671566
0.00365623
0.00885732
0.0136786
0.00678739
0.00404767
0.00665404
0.00677556
0.00134449
0.00683872
0.00624077
0.00220605
0.00777287
0.00670937
0.00349213
0.00339222
0.0078154
0.00673977
0.00865305
0.00454704
0.00785726
0.00455865
0.00486699
0.00809543
0.00671113
0.0136053
0.00432609
0.00448849
0.00672457
0.00671977
0.0086059
0.00317345
0.00325554
0.0068622
0.00944484
0.00681291
0.000628229
0.00680031
0.00667883
0.00484401
0.00670632
0.0081391
0.00435031
0.0142094
0.0107527
0.00851634
0.00144665
0.00215385
0.00895293
0.00835637
0.00684106
0.00125465
0.00674706
0.00668615
0.0067319
0.0061842
0.00681696
0.00659998
0.0033679
0.00938026
0.00193051
0.00513678
0.00776373
0.000938115
0.00670315
0.000842946
0.000700822
0.00812252
0.00681669
0.00674665
0.00686662
0.0145952
0.00682822
0.0141724
0.00700625
0.00295863
0.00144767
0.00681724
0.0128451
0.0068237
0.010989
0.00669535
0.00209631
0.00243831
0.00677697
0.00700421
0.00763309
0.0067048
0.00174025
0.00428253
0.00227637
0.00608314
0.0124301
0.00891801
0.00683089
0.000878712
0.00755691
0.00678976
0.00630063
0.00666841
0.00175573
0.00266534
0.00424973
0.00749197
0.00678549
0.00714274
0.00538675
0.00314963
0.00702317
0.00720492
0.00191385
0.00795401
0.000148745
0.00677205
0.0142229
0.00146926
0.00260521
0.00439673
0.00780133
0.00671092
0.00277011
0.00717738
0.000641369
0.00671531
0.00346587
0.00731802
0.00320925
0.00909309
0.00603244
0.00416875
0.00471281
0.00727381
0.00241462
0.00883918
0.00982727
0.00659291
0.00684084
0.00709083
0.00542911
0.00802412
0.00672456
0.00663378
0.0068291
0.00911793
0.00546632
0.0131629
0.0120857
0.00683414
0.00679731
0.00672518
0.00752151
0.00252461
0.00245442
0.00799927
0.00672572
0.00683228
0.00712959
0.00135102
0.00356399
0.00791808
0.00240457
0.0031202
0.00377943
0.00285007
0.00329917
0.00423934
0.00677983
0.00687927
0.00683095
0.00674591
0.00766664
0.00730733
0.0073206
0.00155412
0.00223896
0.00682997
0.00689259
0.00635227
0.00667132
0.00672781
0.00202945
0.00802214
0.00674332
0.00680818
0.00511347
0.0117208
0.00670684
0.00672604
0.0047478
0.00675659
0.00884825
0.00673439
0.00682439
0.00410138
0.00145743
0.0118764
0.00486485
0.0071922
0.00679174
0.00643562
0.00900953
0.00768433
0.00450281
0.00699616
0.00671545
0.00275168
0.00669739
0.00680411
0.000833607
0.00682461
0.0121347
0.00207294
0.00679255
0.00648426
0.0064132
0.0141005
0.00585928
0.00674639
0.00693573
0.00757449
0.00882622
0.00341281
0.00682014
0.00672838
0.0170853
0.0068135
0.00685548
0.00274588
0.00674486
0.00907609
0.00656508
0.00683219
0.00427981
0.00677491
0.00683694
0.0110531
0.00755275
0.00261314
0.00432783
0.00231539
0.00682751
0.00671522
0.00678045
0.00682384
0.00682737
0.0069313
0.000838199
0.00722672
0.00671639
0.0016878
0.00604056
0.00757939
0.00677987
0.00670637
0.00353361
0.0080864
0.00681436
0.00165977
0.000219901
0.00184937
0.00671197
0.00227246
0.00679739
0.00622497
0.00674154
0.0067991
0.00682269
0.00681115
0.00497995
0.00294659
0.0031174
0.00201244
0.000853992
0.00306044
0.00569283
0.00268677
0.00726286
0.0038221
0.00172826
0.0089239
0.0055096
0.00144361
0.0122285
0.00678348
0.00681441
0.00340863
0.00675123
0.00398927
0.00891496
0.00691006
0.00448189
0.000948453
0.00675147
0.00596004
0.0068005
0.00629618
0.00679994
0.00777574
0.00655261
0.00615193
0.0129537
0.00680874
0.00672313
0.00209119
0.0103457
0.00914027
0.00065022
0.000412476
0.00672183
0.000910616
0.00754485
0.0135196
0.0065646
0.00681683
0.00680477
0.00665384
0.00683094
0.00682252
0.00417235
0.00878634
0.00223573
0.00758134
0.00282666
0.00263956
0.00105773
0.00672436
0.0068182
0.0067217
0.00676243
0.00681814
0.00776238
0.0090446
0.00878066
0.00958593
0.00339032
0.00781463
0.000668246
0.00871739
0.00893125
0.00683033
0.00680504
0.00788605
0.00681616
0.00670852
0.00845928
0.00910777
0.00110456
0.00676445
0.00679793
0.00654323
0.00167018
0.00692445
0.00675062
0.00654403
0.00041384
0.00680678
0.00967487
0.00155891
0.00793612
0.00682811
0.000362477
0.0106866
0.00164293
0.00619694
0.00155983
0.00777797
0.00678965
0.00480172
0.00674985
0.00224301
0.00339138
0.00686547
0.00541556
0.00674288
0.00681903
0.00672357
0.0096417
0.00287099
0.00158446
0.0125552
0.00675526
0.00108782
0.00506974
0.00085606
0.00680961
0.00668071
0.00682268
0.00153966
0.00682518
0.00680905
0.0105925
0.00776478
0.00942931
0.000743925
0.000581342
0.00687736
0.00174682
0.00938517
0.000933495
0.00677776
0.00684069
0.00668494
0.00684098
0.00654506
0.00666472
0.00680914
0.00424954
0.0109918
0.00256754
0.00672608
0.00687941
0.00929066
0.00477996
0.00882188
0.001154
0.00915494
0.00668794
0.000810157
0.00196045
0.0144411
0.00377069
0.00673185
0.00144604
0.00550794
0.00197499
0.0108259
0.00683922
0.00751306
0.00604223
0.0103164
0.00170665
0.00211824
0.00312489
0.00148822
0.0105019
0.0103012
0.00904836
0.00147904
0.00726863
0.00680494
0.00645196
0.00302756
0.00522634
0.0152912
0.0075474
0.00688714
0.000726056
0.00082169
0.0068775
0.00571901
0.0067266
0.00132946
0.00510511
0.00672283
0.00777255
0.00847149
0.0107841
0.00904513
0.00170293
0.00682174
0.00680871
0.00662908
0.00675476
0.00680946
0.00307996
0.0039418
0.0093205
0.00372703
0.0069099
0.00400231
0.00680828
0.00876994
0.00667243
0.0014531
0.0137007
0.00670504
0.00710697
0.00196273
0.00670425
0.00377446
0.000991698
0.00671508
0.0118091
0.00681784
0.0108416
0.00604694
0.00680997
0.00141471
0.0061176
0.00705256
0.00917464
0.00239976
0.0112019
0.00566783
0.00673043
0.0080551
0.00328778
0.00683125
0.000940016
0.0020434
0.00671541
0.0067884
0.000906304
0.00673773
0.0051812
0.000848826
0.00693401
0.00375107
0.00198057
0.00126884
0.00681504
0.00736019
0.00271905
0.00759749
0.00672724
0.00679661
0.00265336
0.00222053
0.0102016
0.00683134
0.00934758
0.00682447
0.00149871
0.00687285
0.00728099
0.000496697
0.00143365
0.00748837
0.00245084
0.00657261
0.0088223
0.00668704
0.000264473
0.000244736
0.00445799
0.00680989
0.000492288
0.00276018
0.00535687
0.00141432
0.000349437
0.0135311
0.00797449
0.00198029
0.000932416
0.0067059
0.00296489
0.00210211
0.00672467
0.00200175
0.00567857
0.00629886
0.00758697
0.000946035
0.00672493
0.00674669
0.00377181
0.00672753
0.0124859
0.00675347
0.00675716
0.00942651
0.000926758
0.00289683
0.00195454
0.00688085
0.0006192
0.00463499
0.00930938
0.00524851
0.00293199
0.00924756
0.00665023
0.00675127
0.0034308
0.0074101
0.000585936
0.00076207
0.00117243
0.00538248
0.00677784
0.00672896
0.00659482
0.00320062
0.00375126
0.000415957
0.00259779
0.00590859
0.00509358
0.00232019
0.00295354
0.00675029
0.00274517
0.00332253
0.00673649
0.00509739
0.00300698
0.00381753
0.00780979
0.00932375
0.00675737
0.00205683
0.00245617
0.000851242
0.00786704
0.00873381
0.00800629
0.00682685
0.00159478
0.00930582
0.00168299
0.00134302
0.00744844
0.00871628
0.00800516
0.0102499
0.00674066
0.00626943
0.00680513
0.00668729
0.00675106
0.00179886
0.0077673
0.00216314
0.0105514
0.00301435
0.00187301
0.00670044
0.00670626
0.00680361
0.00688797
0.00310805
0.00874583
0.0108301
0.00167251
0.00780751
0.00684149
0.00157114
0.00670749
0.0107492
0.00172022
0.00683078
0.000644737
0.0019543
0.00122132
0.00680691
0.000717843
0.00253015
0.00396853
0.00832119
0.000770812
0.00296991
0.0159164
0.00666957
0.00136315
0.00678504
0.00569603
0.00448484
0.00206138
0.0122277
0.000623111
0.0130523
0.00117991
0.000947709
0.00153587
0.00670795
0.00136356
0.000791164
0.00377584
0.00118467
0.00250253
0.00194458
0.00439246
0.00122099
0.00667286
0.00218805
0.00279604
0.00207381
0.00669617
0.00912165
0.00162435
0.0111864
0.000966805
0.00675906
0.00885816
0.00672572
0.00650597
0.00663373
0.00890611
0.00141149
0.01071
0.00398051
0.00123809
0.002207
0.001422
0.0112497
0.00130677
0.00960566
0.00694127
0.00205425
0.00681273
0.00950553
0.0119518
0.00693114
0.00685887
0.00145413
0.0032384
0.0045877
0.00211217
0.00214834
0.0068171
0.00194103
0.00435645
0.00222499
0.00412013
0.00305637
0.00672568
0.0128179
0.0027065
0.00184104
0.01146
0.00203651
0.0036819
0.00671452
0.00687402
0.006525
0.00206755
0.00675222
0.00887201
0.0126812
0.00576625
0.00158977
0.00615521
0.000912965
0.00297478
0.0114422
0.00189414
0.000909581
0.00139554
0.00149561
0.00394679
0.00212077
0.00141467
0.00646077
0.000350778
0.00666285
0.0120049
0.00670842
0.000899837
0.000224
0.00124879
0.00672701
0.00341851
0.00682564
0.00229836
0.00885534
0.00239065
0.00268266
0.00671893
0.006715
0.000526177
0.00746883
0.00682991
0.000657929
0.000867527
0.00670446
0.00670151
0.00944497
0.00114419
0.0017765
0.00674201
0.00300494
0.000678702
0.00686016
0.00677532
0.00881359
0.00269344
0.00895235
0.00164321
0.00281603
0.00769488
0.000625535
0.00073161
0.00671817
0.0133276
0.00254404
0.00312651
0.00786125
0.00297534
0.00683803
0.000658766
0.00369398
0.00640386
0.00675602
0.0146791
0.0067603
0.00127969
0.00480774
0.00196579
0.00680866
0.000323261
0.00271431
0.00815601
0.000549447
0.00705706
0.000689968
0.0100401
0.00670608
0.002489
0.00303919
0.00672227
0.0114051
0.00441831
0.00287436
0.0113997
0.00674532
0.00266005
0.0070368
0.00291406
0.00392656
0.0108434
0.0098195
0.0119544
0.00148176
0.00447269
0.00674797
0.00134738
0.00167204
0.00795562
0.00226777
0.0106575
0.00874169
0.00990719
0.00671388
0.0187651
0.00672392
0.00437489
0.0068134
0.0126787
0.000594852
0.00141025
0.00675665
0.00132962
0.00288304
0.00583976
0.00681426
0.000771999
0.00269668
0.00169291
0.00165819
0.0016443
0.00409687
0.000597493
0.000747977
0.00672262
0.00227896
0.000642188
0.0021615
0.00684182
0.00242624
0.00676614
0.00678861
0.00184135
0.00544601
0.0039121
0.000905525
0.00168799
0.0119972
0.00678025
0.0106022
0.00196331
0.00830815
0.00241508
0.00234575
0.012398
0.00236893
0.00826232
0.00295233
0.00460126
0.00660978
0.0068418
0.00699553
0.00274049
0.00429245
0.00447329
0.00237587
0.00680768
0.00364402
0.0108147
0.00683605
0.00195269
0.00813425
0.00154961
0.00268221
0.00259476
0.00446157
0.0106539
0.0113211
0.00886262
0.00108317
0.00755709
0.00674031
0.00286336
0.00679212
0.00673045
0.00530322
0.0129092
0.00243049
0.00674231
0.00694944
0.000664569
0.00677673
0.00552006
0.00277765
0.00675633
0.00652604
0.010338
0.00274884
0.00218104
0.00140677
0.00676342
0.00100608
0.00236225
0.00238202
0.000585995
0.000652432
0.000545447
0.00168586
0.00779743
0.00662809
0.0056722
0.00066466
0.00125002
0.000783835
0.0129815
0.00180438
0.00380137
0.00215514
0.00285333
0.00337818
0.000759163
0.00676083
0.00672508
0.00680059
0.00387298
0.00890516
0.00679148
0.00177672
0.00648727
0.0034535
0.00565911
0.000544901
0.0036192
0.000850525
0.00680932
0.00528424
0.00417879
0.00681233
0.00893617
0.00369333
0.00681027
0.00446579
0.00433296
0.00680766
0.00262255