/*--------------------------------*- C++ -*----------------------------------*\
| =========                 |                                                 |
| \\      /  F ield         | OpenFOAM: The Open Source CFD Toolbox           |
|  \\    /   O peration     | Version:  v2012                                 |
|   \\  /    A nd           | Website:  www.openfoam.com                      |
|    \\/     M anipulation  |                                                 |
\*---------------------------------------------------------------------------*/
FoamFile
{
    version     2.0;
    format      ascii;
    class       volScalarField;
    location    "200";
    object      p;
}
// * * * * * * * * * * * * * * * * * * * * * * * * * * * * * * * * * * * * * //

dimensions      [0 2 -2 0 0 0 0];


internalField   nonuniform List<scalar> 
13851
(
0.00291245
-0.012811
-0.0281603
0.00278903
-0.039028
0.00621638
-0.0210929
-0.0267067
0.00165158
-0.0146993
0.00124123
-0.0362103
-0.0364807
-0.0924871
-0.0133025
-0.0099745
-0.0225889
0.00285574
-0.0289662
0.00160026
0.00248753
-0.0291879
0.00116568
0.00122828
0.00121589
-0.0252909
-0.0343105
-0.0798697
0.00247357
-0.00412419
0.00241554
-0.0227877
-0.0273047
-0.0188605
0.00118057
-0.0717932
-0.0727277
-0.0287056
-0.0162509
-0.0186479
-0.00288226
0.000742539
-0.131857
-0.00381573
-0.0057513
-0.0508079
-0.0103006
-0.0142683
-0.035113
-0.00439016
-0.053075
-0.0498779
-0.104414
-0.0129205
-0.00521088
0.000727095
0.00161017
-0.115595
-0.00428348
-0.0209632
-0.029393
0.0139884
0.00514867
-0.0402714
0.0267892
0.00475695
-0.0728125
-0.010952
-0.0441278
0.00287936
-0.0682474
-0.0761011
-0.0230433
-0.0131067
-0.00424783
0.00201186
-0.0295627
-0.079042
-0.0389045
-0.0700023
-0.0219564
-0.00440456
-0.012538
-0.0850555
0.00484853
-0.0366027
0.00607433
0.0399515
-0.0297427
0.00198874
-0.0712457
0.00531295
-0.0112008
-0.0331926
-0.030529
0.00171633
-0.0397205
-0.0467085
-0.0033169
0.00170989
-0.169052
-0.0456107
-0.00163419
-0.0422138
0.000287087
0.0022201
-0.048464
0.000453322
-0.0772281
0.00700583
0.00144377
0.00201866
0.0053172
0.00126067
0.00145942
-0.0337231
-0.0436321
0.000676858
-0.000681841
-0.00443238
-0.127498
-0.0411805
-0.0350599
-0.0347909
-0.00931785
0.00199623
-0.00880877
-0.0418971
0.00239808
-0.0332821
-0.00302814
0.000390782
-0.0692754
-0.0126904
-0.0279001
-2.5645e-05
0.000671411
-0.0743935
-0.0386422
-0.0151205
-0.165725
-0.00476325
0.00302804
0.00128868
-0.0160128
-0.00604362
0.000551863
-0.0321804
-0.0205374
-0.00386657
-0.0700787
-0.00394671
-0.0993928
0.00165821
-0.0250605
-0.0154073
0.000494952
-0.00713137
-0.0484467
-0.0517289
0.000145458
-0.0410286
-0.113939
0.000471765
-0.00187954
0.00108777
0.000475042
-0.0455093
0.00211558
-0.0402255
-0.0781763
0.00163894
0.000403139
-0.0233576
0.000442886
-0.0130005
-0.0410302
0.00299957
-0.0307849
0.000423294
-0.0220243
-0.0728946
-0.0130279
-0.029716
7.01544e-05
0.00155358
0.00464178
-0.0044174
-0.0363701
0.0110737
-0.0111782
-0.105904
0.00203816
-0.0398269
0.0126005
-0.0236582
0.00288203
-0.0272016
0.00297158
0.00202388
0.00194523
-0.014787
-0.0015822
-0.00835227
7.81371e-05
-0.0132719
-0.0585857
-0.0249484
-0.0696014
0.000240795
-0.069661
-0.00188141
-0.0224947
0.000283748
0.0011613
0.00193831
0.00591594
-0.0616805
-0.0131156
-0.0697941
-0.0248309
-0.0226177
-0.0653596
-0.041533
-0.0699237
0.00151547
-0.0340026
0.000315437
-0.10898
0.000253352
-0.0240524
-0.00313186
0.00163245
0.00201271
-0.0547733
0.00870099
-0.060867
0.0297762
0.00122241
-0.00857688
-0.000293901
-0.00393212
0.00021589
0.000508255
0.000314578
-0.0700899
-0.0446875
-0.0189207
-0.0140376
-0.0145708
0.00308744
-0.00307113
-0.0155169
-0.0147669
-0.0547142
0.0079298
0.0123117
-0.074566
-0.111828
-0.0152574
0.00118845
0.00256505
-0.0126225
0.00169039
-0.0192855
-0.0229623
-0.0157341
-0.0332437
-0.0638088
0.00320267
0.00291078
-0.024304
-0.00183267
-0.0388199
-0.0093089
0.000426891
-0.00149894
0.00228175
-0.0741354
0.00348745
0.000163507
0.000150383
0.000163293
-0.0545332
-0.0182687
-0.0148686
0.00179471
-0.0142996
-0.00418346
-0.00640937
-0.0309452
-0.00504979
-0.0209936
-0.0428104
-0.00684397
-0.0245006
-0.0045055
-0.0245413
0.000420454
-0.0691962
-0.040904
-0.0213649
-0.0735445
-0.00578959
0.00364254
-0.0722714
0.0017322
-0.0511454
-0.0320535
-0.00511267
-0.0344712
-0.00380939
-0.0138804
-0.0624254
0.000863879
-0.015065
0.00217021
-0.0762049
-0.0698249
-0.0132597
-0.0489711
-0.0139571
-0.107058
0.00457507
0.00134682
0.00146553
-0.0685905
-0.0338163
-0.0262602
-0.0142436
-0.0060872
-0.0134313
6.97292e-05
-0.14406
-0.0128764
0.00472797
-0.0724959
-0.0211404
-0.0131261
-0.0391334
-0.0298605
0.00643163
0.0107396
-0.0525947
-0.0255853
0.00441444
-0.0184226
-0.0704152
-0.0133731
0.000745736
-0.000273405
-0.0476117
-0.0268624
0.0115532
-0.110745
0.000487942
-0.0197583
0.00150445
-0.0139172
0.000279944
0.000419814
0.000126651
-0.0699074
-0.0259969
-0.00918704
-0.0508613
0.00089713
-0.0190848
-0.00230335
-0.0194948
-0.0300781
-0.00890573
0.00528812
-0.0299036
-0.0192074
-0.00274967
0.00070551
0.00600613
-0.180213
-0.00419817
-0.0338524
0.00670252
-0.0530494
-0.0406438
-0.000620734
-0.000317152
0.00322312
-0.00016451
-0.0133583
0.00435927
-0.0501763
-0.0904021
-0.0473269
-0.0718344
-0.0700006
0.000965007
-0.0155792
-0.0219865
-0.0692219
-0.00468395
-0.046798
0.00587819
-0.0303085
0.00163189
-0.022708
0.00166338
-0.0114149
0.00315954
-0.0188582
0.000214371
0.00172925
0.00104767
-0.0414603
0.0119685
-0.104501
0.00347303
-0.0494069
0.00864032
-0.000796849
-0.0125072
-0.050076
-0.0210299
0.00325329
0.000631265
0.00168753
0.00160361
-0.029801
-0.0173912
-0.0388857
0.00831316
-0.10601
-0.0160753
0.00404806
-0.0040585
-0.0562304
-0.00287401
-0.0028384
0.000484513
-0.0540385
-0.0113468
-0.0249927
-0.0701333
0.00293921
0.00112695
-0.0136607
-0.173694
0.000118672
-0.0308481
-0.0398482
0.0030461
0.00159655
-0.0125827
-0.0697314
-0.0506907
0.00471003
-0.000745414
0.00150928
0.00164563
-0.122887
-0.00079128
0.00015176
0.0311447
-9.73125e-05
0.0029604
0.00152439
0.00804348
-0.00674848
0.000223053
0.00297835
-0.0566193
-0.0126641
-0.0473161
-8.14297e-05
0.00426585
0.00180754
0.00110991
-0.00110739
0.00123653
0.00115729
-0.00955148
-0.016675
0.00422223
-0.0131908
0.001623
-0.127518
-0.0696373
-0.0139095
0.00434279
-0.0133021
-0.00903712
-0.0760469
0.00156441
-0.0266209
-0.00297071
-0.0353569
-0.0193611
-0.108874
0.000548617
-0.102953
0.0162897
0.000790708
0.0042832
-0.0540395
-0.0231936
-0.0161447
-0.00081238
-0.0257811
-0.00538051
0.000783146
0.000596217
-0.0194893
-0.0705516
-0.0503296
-0.0588977
-0.0445973
0.00527876
0.000193379
-0.0119818
-0.0165011
-0.0231364
-0.0400349
-0.0105474
-0.0354334
-0.0678585
-0.0121693
-0.108861
-0.0595024
-0.0235341
-0.00269022
0.0041778
-0.0346907
0.00179562
0.0109153
-0.0285064
-0.0612129
-0.00643716
-0.0649777
-0.0675699
0.000567074
0.00196245
-0.05161
-0.0686962
-0.0132199
-0.00957439
0.000401395
-0.00537987
-0.0375567
0.00819218
0.0373982
-0.00307692
0.000826011
-0.125845
-0.0766212
-0.00198876
-0.0162384
-0.0460069
9.99477e-05
0.00168661
0.000326701
-0.0144543
-0.025983
-0.0676005
-0.0685661
0.000681975
0.00951327
-0.0307186
-0.0418037
-0.0481515
-0.0706173
-0.0699219
-0.00282033
-0.0192793
-0.00183603
-0.0713436
-0.0660444
-0.0484625
0.00459228
0.00044339
-0.0053752
-0.0574262
0.000648505
-0.0125303
0.000372078
-0.000813744
-0.0666868
-0.0394206
0.00757752
0.000610081
-0.0296924
-0.0285155
0.000191804
0.00167057
0.00170129
-0.0133071
-0.180321
-0.0216429
-0.0193522
-0.0246174
-0.02267
-0.0480014
-0.0683036
-0.068336
0.0046594
-0.0432498
6.61229e-05
0.00220354
-0.0145414
-0.0470503
-0.0202513
-0.0664766
-0.0251702
0.00157206
-0.00689413
0.00298643
-0.0161506
-0.0482242
-0.0129843
0.00462901
0.00156874
-0.0349399
-0.0374672
-0.020381
-0.00265992
-0.00390819
-0.0170105
-0.0379109
-0.0319117
-0.0424362
-0.0042084
-0.0671382
0.00153868
-0.000514277
0.00486061
-0.0361714
-0.0023684
0.00164261
-0.0778275
-0.00165038
-0.0529103
-0.0698563
-0.0827535
0.0264845
0.00163148
-0.0783933
0.000230292
-0.000568498
0.000503494
-0.00081299
0.000117152
0.0039043
0.00646223
0.000583868
-0.0471521
0.0152669
-0.0452484
0.000641246
0.000375835
0.00122727
-0.0299787
0.00601246
-0.0604562
-0.0346891
0.00028537
0.00164993
0.000776551
0.000882753
-0.0619024
-0.0175144
-0.0167151
0.000526976
-0.0198
0.000739335
-0.0441559
-0.10732
-0.00791583
-0.0372176
-0.0284126
-0.00276596
-0.0574842
-0.175752
-0.0437345
-0.0369813
-0.0212814
0.00247812
-0.0594902
0.00303065
-0.0266792
-0.0136625
-0.0350724
0.000519141
-0.0558401
-0.0702477
0.00218248
-0.00160295
0.0057291
0.000810011
-0.0218041
-0.0072656
-0.0431529
-0.0470465
-0.0194058
-0.000495503
0.000348869
0.000551208
-0.117916
-0.0686671
0.00956519
-0.0692215
0.00186569
-0.0134826
0.00061645
-0.0214202
-0.0695258
-0.00570989
-0.000150034
0.00229068
-0.0315451
0.00119278
-0.136273
0.00427335
-0.0817212
0.000807654
-0.0169603
-0.0711774
-0.0986808
-0.0711977
0.00284744
-0.0706731
-0.0131085
0.00294806
-0.0328301
-0.0254463
-0.0154043
-0.0762547
0.0027973
0.0027662
-0.0724715
0.00156437
-0.0016121
-0.00663439
0.00155783
-0.135636
-0.0183564
-0.0498892
0.00735444
0.00250155
0.00155778
-0.00845034
0.00038287
0.00248125
0.000483419
-0.00266526
-0.00254742
-0.0706745
0.000221565
0.000838953
0.00132717
-0.019822
-0.0717529
0.000756257
0.00294881
-0.0592174
-0.0440458
-0.0235464
0.00104818
0.00410472
-0.029568
-0.016383
-0.0691468
-0.0547055
0.00154925
0.000844346
-0.134251
0.00148236
-0.011662
0.000798982
0.000507891
-0.0138302
-0.0255035
0.0150463
-0.00443857
0.00110274
-0.0124316
0.00297613
-0.0715626
-0.0222342
-0.0357786
-0.0166401
-0.0166613
-0.0360515
-0.0547814
-0.0754194
-0.00500068
-0.0559672
-0.0424895
-0.0203002
-0.0597963
0.00301417
0.00880004
-0.0486265
-0.069002
-0.00725161
-0.0134811
0.00152938
0.00446797
-0.120258
-0.0799831
0.00168675
0.00160362
-0.0539818
-0.00274194
0.000910613
-0.104221
0.00183883
-0.0105929
-0.125086
-0.0727653
-0.00187906
-0.0004916
-0.0139458
-0.10117
-0.0606769
-0.0657045
0.00395879
-0.0139431
-0.0409297
0.00401072
-0.0472617
-0.0495529
-0.0130094
-0.0193871
-0.0132604
-0.0643148
-0.0701033
0.00500247
-0.0462033
-0.131131
0.00744152
-0.0768686
-0.0152976
-0.0483321
0.000251109
-0.00529179
-0.00136648
-0.0422188
-0.0131714
-0.0707563
0.000919281
-0.0584289
-0.00435167
-0.0356469
-0.0488681
-0.0468886
-0.0421217
-0.0541347
0.00970674
0.00117588
-0.0570884
-0.017052
0.00257163
-0.0110868
-0.0734286
0.00163622
-0.0478416
-0.0215761
-0.011662
-0.0730746
-0.176427
-0.0727193
-0.00328462
0.0045394
0.0013242
-0.083505
-0.0130596
-0.0422615
-0.0689755
0.00042806
-0.0327608
-0.0281205
-0.0270321
-0.0438249
-0.0143496
0.0016739
-0.0401499
-0.0690027
-0.046933
-0.0117545
0.00360329
-0.0183226
-0.108359
-0.0543294
0.000867475
-0.0143615
0.000667242
-0.0015231
0.00123886
0.00164584
-0.0580281
-0.00249823
-0.0103328
0.00295911
0.00143265
-0.00722247
-0.0666142
-0.0475562
-0.0318979
-0.0567765
-0.00457896
-0.0296507
0.00130945
0.000605589
-0.00759473
-0.00989182
-0.0672453
-0.0138002
-0.0580649
-0.015216
-0.0125775
0.000846809
-0.0892938
-0.000632594
0.00386842
0.0160388
-0.0543177
-0.0190687
-0.0254582
-0.0683132
-0.0358362
0.00806941
-0.0414048
-0.0155851
-0.101792
-0.0290924
-0.00221513
-0.00261711
-0.0533783
-0.0469459
-0.0457688
0.00105137
-0.026
0.000604122
0.00058527
-0.0801288
0.00188788
-0.0279221
-0.0156439
0.00053496
0.00949741
0.000364927
-0.0141094
0.000351461
-0.0208247
-0.0721894
0.000365463
-0.059869
-0.111448
0.00120738
-0.0442105
-0.0189092
0.00043911
0.00192604
-0.00510512
0.000359629
-0.0582094
-0.0269058
0.00174665
-0.000262687
0.00139848
-0.078802
-0.0104484
0.0041624
-0.0529965
-0.064801
-0.00518857
-0.0302337
-0.0261994
0.000201574
-0.015019
0.00140502
-0.0102224
-0.00452645
-0.00901379
-0.0266852
-0.119948
0.00153635
-0.0317431
-0.0181924
-0.0309005
0.000352614
0.00183967
-0.062802
0.00056242
-0.0140163
0.00212882
-0.0115462
-0.00554196
-0.012139
-0.0484357
-0.0141568
0.0272121
-0.035839
-0.0182546
0.00158631
-0.00724771
0.00431957
0.00468115
-0.0401558
-0.0344476
-0.0298143
-0.0276102
0.00362549
0.00666795
0.00180689
-0.101317
-0.0549343
-0.0329383
-0.0448125
-0.0134952
0.00154328
-0.000290783
-0.0181212
-0.00980603
0.00156048
0.000474689
0.00211089
-0.053251
0.00109249
0.00206354
-0.02263
-0.0375002
-0.0690971
0.00908018
0.00430624
-0.0027964
-0.0649631
-0.0125351
-0.0317453
-0.0585066
-0.0374443
-0.0604421
0.00129112
-0.0523016
-0.00941582
0.00139882
-0.00051557
-0.0817421
-0.0677916
-0.0169542
-0.0410637
0.00258748
-0.0108869
0.000328001
-0.00429614
-0.0244499
0.00562158
0.000150236
-0.0363747
0.0124641
-0.0682393
0.00114382
0.00680796
0.000326555
-0.0569453
-0.0192584
-0.0675471
-0.0710596
-0.0574102
-0.0343329
-0.0755416
-0.0170565
-0.00391998
0.00169118
-0.0114596
0.00105988
-0.0117815
-0.0422099
-0.0145822
-0.0721876
-0.019159
-0.030749
-0.00997709
-0.0436899
-0.0101541
-0.0135224
-0.0304939
-0.00545745
0.0015946
0.00487544
-0.0324084
-0.0174904
-0.0126187
-0.00353775
-0.0368073
0.00426335
-0.036696
-0.0446698
0.00340695
0.00152524
-0.026023
-0.106073
-0.0218659
-0.0564123
0.000907724
0.000964699
0.00125842
-0.0648976
0.00511208
-0.0375477
-0.0325865
-0.0693167
-0.0190228
-0.0344718
0.00798952
-0.00174508
0.00418769
-0.0112882
-0.102578
0.010875
-0.0728851
0.00296202
-0.0413099
-0.0624709
-0.0209704
-0.0685723
-0.0594605
0.00105755
0.0292993
-0.0708487
0.0259504
-0.0728585
-0.00809461
-0.00725547
-0.0672589
-0.00971732
-0.107296
-0.00872913
-0.0196387
-0.00962752
-0.0745719
-0.0713303
-0.0201706
-0.000454318
-0.0268334
-0.0752328
-0.0644474
-0.0182567
-0.0152339
-0.0701677
-0.0313416
-0.000971639
-0.0594959
0.0101006
-0.0213847
0.000788973
-0.0851125
-0.0687884
0.00186388
-0.00296972
-0.0210478
0.00109021
0.00020262
-0.00361834
-0.028853
-0.00656799
-0.0575641
-0.00656799
-0.0484611
-0.023482
-0.139172
-0.00378474
-0.0566391
-0.0348726
-0.0596233
0.00258264
-0.00676767
-0.0414167
0.00108594
-0.0137407
0.00157997
-0.00766995
-0.00257026
-0.073777
0.000743123
0.00290256
-0.101005
-0.0208559
-0.054299
-0.0168352
0.00232349
0.000550902
-0.045803
-0.0696125
-0.142267
7.83542e-05
-0.049307
-0.0144409
-0.00371191
0.00187033
-0.075102
-0.0410593
-0.00708337
-0.0566101
-0.0100753
0.00371828
-0.0702457
-0.0745567
0.00380321
0.00236262
-0.0135125
0.0368258
-0.0469509
0.000357427
-0.0619224
-0.00623565
-0.00469442
-0.00337212
-0.0721836
-0.00251036
-0.101627
-0.0019055
-0.0959322
-0.00154133
0.00125727
-0.00438628
-0.00186995
0.000693504
0.00202837
-0.0240596
-0.072652
-0.0762182
0.00547058
-0.0678724
0.00362767
-0.0725215
-0.0699028
-0.0445261
-0.00873796
-0.000426054
-0.00710325
-0.00253573
-0.0623112
-0.00721077
-0.0227656
-0.00232647
-0.0151585
-0.0732177
-0.134076
0.000318695
-0.066346
-0.00533212
-0.000131856
-0.00410395
0.000994838
-0.11492
-0.0115772
-0.0684535
-0.0186598
0.00206509
-0.0645159
-0.0138568
-0.000909967
-0.00764789
-0.0737375
0.00290515
-0.0182636
7.96429e-05
-0.00361182
-0.0627521
-0.0245391
-0.0170066
0.00201976
-0.0155312
-0.0374698
-0.06681
0.000226656
-0.0430758
0.000387041
0.00550861
0.00194667
-0.00072846
-0.0103173
-0.048914
-0.0337161
-0.0129944
-0.00408904
-0.00351021
0.00206005
-0.0141799
0.00215769
0.00293552
-0.0665934
-0.0302478
0.00427496
0.00581959
0.00112254
-0.0687392
-0.0557555
-0.0159361
-0.0415304
-0.0119604
0.000842039
0.000302357
0.00206543
-0.0434871
-0.0704873
0.000797609
0.000940322
0.0298173
-0.068872
-0.0220894
-0.0221511
-0.0725594
-0.0207201
0.000598023
-0.063237
-0.0756128
-0.00623912
0.00206319
-0.00892921
-0.0683381
-0.0741704
-0.0247457
-0.0615848
-0.129069
-0.0289665
-0.0724547
-0.0562226
-0.000861138
-0.0114164
-0.0595689
-0.010896
-0.118114
-0.0168058
0.00168759
0.00178415
-0.0423532
-0.000465362
-0.0666514
-0.0159757
-0.0326276
-0.0537164
-0.0240097
-0.0685567
-0.0724102
-0.0112432
-0.0260024
-0.0733532
-0.0312637
-0.10512
-0.0171263
-0.00505897
-0.00269547
0.0062717
0.0018401
0.00977293
0.00500374
-0.00876744
-0.00103901
-0.0155045
-0.0243148
0.00314154
0.000208951
0.00105164
-0.00403171
-0.0176797
-0.000982302
-0.0446671
-0.0235419
0.00310037
-0.0330007
-0.0550927
0.00819548
-0.0714386
0.000403838
0.00157324
-0.0645104
-0.110797
-0.105133
0.003037
0.00098181
-0.108873
-0.012341
0.00220056
-0.039979
-0.00148831
-0.0486393
-0.0541924
0.00192434
-0.106646
-0.0691139
-0.0249934
0.010395
-0.0839081
-0.0150226
0.0243725
-0.0447741
-0.110062
-0.0312543
-0.0632091
0.000206373
-0.0089975
0.00202639
-0.0108135
-0.0713759
-0.0372155
-0.0965547
-0.0224325
-0.032073
-0.00170592
0.0031945
0.0010622
-0.0047034
0.00180671
-0.0495163
-0.00185829
-0.069752
0.00238371
0.00525483
-0.030983
-0.0712909
-0.0735396
-0.0665558
-0.0472373
0.00100165
0.00180219
-0.0641013
-0.0561466
-0.0303067
-0.000946985
0.00161393
-0.027639
-0.0192005
-0.0671941
-0.064901
-0.0343771
0.00180954
-0.0739035
0.00168414
-0.0661937
-0.0137443
-0.00295188
-0.0459437
-0.00105433
-0.0775008
0.00124216
-0.0709897
0.00178848
-0.0337099
0.00551008
-0.0134688
0.00679728
-0.034972
-0.0438462
-0.123642
-0.0725982
-0.0286345
-0.0248416
-0.00464509
-0.0653164
-0.120124
0.000719811
0.00141682
-0.0142868
0.000546734
-0.0702707
0.000531292
0.00491116
-0.0224729
0.0053355
0.00669638
0.00283152
-0.0204916
-0.0627061
-0.070095
-0.00652668
0.0109365
-0.120576
-0.00583685
-0.00374638
-0.000145275
-0.09788
-0.0479231
-0.0382569
-0.0110851
-0.00734674
-0.00873362
-0.125589
-0.104277
-0.0681832
0.00200382
0.00232579
0.000953959
-0.0657206
-0.0142724
-0.0718949
-0.11953
-0.010526
-0.0585435
-0.0148171
0.000813772
-0.00332566
-0.0198079
-0.068362
-0.0133281
-0.0636548
0.000400438
-0.00354299
0.000511739
-0.0102007
-0.0283197
-0.0691821
-0.0146945
-0.107868
-0.0326462
0.00190281
-0.0113428
0.00191272
0.004673
-0.0703393
-0.0736532
-0.00898153
-0.00582324
0.00767072
-0.0246435
-0.043425
-0.102471
-0.0145654
-0.0694717
-0.0535749
0.00351756
-0.0110411
0.000567811
-0.0447637
-0.0240682
-0.00330985
-0.0688225
-0.0270741
-0.00761503
0.00306564
-0.0261984
0.00140264
-0.104772
-0.10026
-0.0326022
0.000846062
-0.0294359
-0.0117177
-0.00132251
-0.0142391
0.00181061
-0.109983
-0.0179732
-0.103505
-0.00486259
0.0068223
-0.04993
-0.069835
0.0044201
-0.0391283
-0.108425
0.00228191
0.0269211
-0.0712738
0.000829909
0.000488514
-0.0281807
-0.173407
-0.141341
-0.00266538
0.000853502
-0.0195083
-0.00095286
0.00881575
-0.0130514
-0.0654425
-0.0256063
-0.0260799
-0.0203648
-0.00483999
-0.00982812
-0.0398297
-0.0185721
-0.0598103
0.0046751
0.000894547
-0.0091372
-0.0704218
-0.0157103
-0.0461539
-0.0337079
-0.0693494
0.000915874
-0.0147772
-0.0267164
-0.0695521
-0.0608735
-0.0130985
-0.0673447
-0.0260213
-0.000330234
-0.00657147
-0.0339352
-0.041389
0.00131108
-0.107095
-0.00313859
-0.0174301
-0.00179458
-0.13115
-0.00683263
-0.0106534
0.00338325
-0.00695652
-0.0255201
-0.00599318
-0.0365838
-0.113127
-0.0138142
-0.00818247
-0.0437451
0.00010392
-0.0144207
-0.0150677
-0.0269729
-0.0435103
-0.04576
0.00656111
-0.0666298
-0.0310608
-0.032296
0.00372223
-0.0517419
0.00229753
-0.0679772
-0.0688563
-0.0466856
-0.0179531
-0.0632201
-0.156356
-0.0154323
0.00232259
0.00219791
0.0200758
-0.0666371
0.0225882
-0.0700047
-0.0012394
-0.0628019
-0.00407132
-0.068952
0.00112799
-0.00121191
-0.0210295
-0.011351
-0.124942
-0.0680787
-0.0664135
-0.0223361
0.00178565
-0.0168281
0.00582646
0.00201728
-0.0728944
0.000188214
-0.044473
-0.0110394
-0.00624907
-0.00565263
-0.00789226
-0.000447262
0.00660661
-0.00427855
-0.0057362
-0.0708905
-0.000959641
-0.00502637
0.00724699
0.00091925
-0.0124446
-0.0117829
-0.0256845
-0.0247767
-0.00141593
0.000579437
-0.0603488
0.00390106
0.00681478
-0.00138789
-0.0195631
0.00189251
-0.0707355
-0.0146491
-0.00336548
-0.0529534
-0.0390328
-0.000997626
-0.070106
-0.0687316
0.00378885
-0.0147168
-0.0158512
-0.0253037
0.00396168
0.00149251
-0.0378077
-0.100033
-0.0711779
-0.0558477
-0.0150764
-0.120816
0.0107151
-0.026709
0.0029605
-0.0605969
-0.0135222
-0.0339222
-0.0124867
-0.0714962
-0.0999828
-0.0320452
0.00145095
-0.0233904
0.00372938
-0.0201904
-0.0443578
-0.0041246
0.000981119
-0.0856064
-0.0701151
0.00115123
-0.0345775
-0.0403994
-0.0673129
0.000123093
-0.105109
-0.107913
-0.00320685
-0.0220979
-0.00565263
-0.0594027
0.0033024
-0.0331845
-0.000678901
-0.0313875
0.00176407
-0.000934016
-0.0687627
-0.114423
-0.111641
0.00129782
-0.0705348
-0.0142285
-0.0290761
0.00190194
-0.0111652
-0.0290162
0.00112361
-0.0932395
-0.0335708
-0.0275623
-0.0776577
-0.102672
-0.0208158
-0.0626515
-0.0975567
-0.0698191
-0.000391313
-0.141348
0.00187658
0.000710283
-0.0113912
0.002184
0.00198075
-0.121096
0.00605638
0.000649725
0.00706995
-0.105983
-0.115495
0.0271562
0.00114277
0.00173902
-0.0131669
-0.0901662
0.00237591
8.7484e-05
-0.00738395
0.0207347
0.00167794
0.00279065
-0.114945
-0.0440795
-0.0265332
0.00232465
-0.0129073
-0.0215412
-0.0719339
0.00168869
-0.132597
-0.0508158
-0.0164495
-0.117359
-0.103418
0.00172457
-0.0678175
-0.0143688
-0.118457
0.000218083
0.0294761
-0.00113571
-0.0193302
0.00540095
-0.0228489
0.00201635
0.00222322
0.0037274
-0.0623758
-0.0436523
-0.116017
-0.09149
-0.0161345
-0.0677225
-0.0237495
-0.035328
-0.0375384
-0.112093
0.00547059
-0.0777206
-0.0398265
-0.0207199
0.00110204
-0.0705842
-0.0439812
-0.0321598
0.00455676
0.00174827
-0.14642
-0.000649849
-0.0303511
-0.0132179
0.00423152
-0.0715204
-0.036503
0.00642716
-0.0245941
-0.0229416
0.00690118
-0.00110075
-0.0466547
-0.0693004
-0.0150886
-0.123479
-0.00500755
-0.00206944
-0.0330662
-0.0854039
-0.0145027
0.00189339
0.000722788
-0.0693975
0.00330347
-0.0150387
-0.00626296
-0.0175758
0.00173411
-0.0138996
-0.0823547
-0.0777091
-0.159355
-0.113043
-0.00206704
-0.0218026
-0.0677993
-0.0630971
-0.117472
-0.0736758
0.00576001
-0.136264
-0.0330562
-0.0460924
-0.0714148
-0.0128743
0.00188658
-0.109955
-0.000411115
-0.0141005
-0.0720398
-0.0918715
-0.0729718
-0.0657716
-0.00967333
-0.0191193
-0.00582784
-0.0676353
-0.104347
-0.0073149
-0.0621363
-0.018412
-0.0154399
-0.0122262
-0.0539118
-0.0465334
-0.0118501
-0.0152257
-0.0305478
-0.00391508
0.00114686
-0.0250968
0.0022564
-0.0098541
0.0295662
-0.0301378
0.000542202
0.00908055
-0.0159205
-0.00620933
-0.079732
-0.0680778
-0.000485632
0.00148071
-0.0128601
-0.0333112
0.00272767
0.00198637
-0.0180016
0.00213965
-0.0238463
0.000605914
0.0019036
-0.00642377
-0.028567
0.0016188
-0.0743132
-0.015764
-0.00735692
-0.0688439
-0.0199094
-0.0332016
0.00226574
-0.0159747
-0.00228768
-0.0118863
0.000952651
-0.0221031
-0.0120865
-0.0757396
-0.00138207
-0.0171877
-0.017857
0.00139133
-0.00487088
-0.0465842
-0.00493447
-0.049396
-0.115192
0.00806959
-0.020207
-0.0123608
-0.0158178
0.000409702
-0.0189002
-0.00453788
0.0104871
-0.0332851
0.00338131
-0.040418
-0.079661
0.000663847
-0.00328556
-0.00134726
-0.0361485
-0.0682738
0.000257624
-0.0464466
-0.0696983
0.00590157
0.0023963
-0.0793841
0.00119104
-0.00044875
0.00165607
0.00123012
0.00166644
0.00209041
0.00377897
-0.0285761
-0.00262572
-0.023647
-0.0107904
0.0101893
0.00975298
-0.0422777
-0.0890078
-0.109893
-0.0361148
-0.0621363
-0.0586844
-0.0603288
-0.00905203
-0.0245898
0.00196655
0.00174134
-0.0010297
-0.0198868
-0.0697543
0.00117688
-0.0144501
-0.00314842
0.0013777
0.00196603
-0.0120792
0.00247479
0.00189004
0.00202207
-0.118843
-0.0377493
-0.0291911
-0.0104536
0.00178028
-0.0552505
-0.0833187
-0.0728374
-0.0312307
-0.0703157
-0.000779646
-0.0732622
-0.0706781
0.00730502
-0.00357315
-0.0105514
0.000104091
-0.0015501
-0.00156455
-0.000676623
-0.0196589
-0.0770195
-0.0506018
-0.0691922
0.00402795
-0.0391769
-0.0727748
-0.0109451
0.00169106
0.00258863
0.00167589
-0.0239523
-0.00831103
-0.0537033
-0.0261723
-0.0690165
-0.0392544
-0.117227
-0.0298644
-0.0701884
-0.0716061
-0.00496795
0.00204583
-0.000621597
-0.00882832
0.00173753
-0.0175492
-0.0742003
-0.0686982
-0.0123847
-0.013849
0.00304834
-0.0164714
-0.0459065
0.00188208
0.00257243
-0.0498684
0.000199113
-0.0179772
-0.0150349
-0.0654783
-0.0200041
-0.0678031
-0.0755292
-0.000141607
-0.0674632
-0.0510897
-0.0680859
0.0012795
-0.00914721
0.000878602
-0.0133134
-0.0154886
0.00139367
-0.107574
0.00256386
0.000376746
-0.0150982
-0.0705169
-0.0457985
-0.0457761
-0.0328785
0.00157978
0.00622244
-0.124852
-0.00196596
0.00196922
0.00351723
-0.00722081
0.0068579
0.0021527
0.00206297
-0.0716117
-0.0708665
-0.0688251
-0.0109035
-0.0335639
-0.125029
-0.0650421
-0.0715467
-0.0316341
0.00118942
0.00109683
0.000594637
-0.00528114
-0.0685611
-0.0679189
0.00171946
-0.100375
-0.0715365
-0.050345
0.00337204
-0.0114084
0.00279619
-0.048013
-0.0735537
0.0310442
-0.0716256
0.000529324
-0.0349483
-0.0365633
0.00223266
-0.0722712
-0.0126629
-0.0679725
-0.128658
-0.00247388
-0.0748175
-0.00379337
0.0010489
-0.128824
-0.0700101
-0.0654808
-0.0158819
-0.0860997
-0.0722236
-0.0706958
-0.0698175
-0.0777136
-0.0581372
-0.00398837
-0.0135634
0.00420651
-0.0461404
-0.0675298
-0.00158634
-0.0686362
0.00118725
-0.0313788
0.0111155
0.00126787
-0.0624581
-0.0134424
-0.061064
-0.073223
-0.0136709
-0.0672269
-0.0651615
-0.070707
-1.14011e-05
-0.0359226
-0.00253625
0.00119885
-0.0689017
0.00247991
0.00205342
-0.0396432
-0.0249659
-0.0691621
-0.0292939
-0.00842688
-0.0217165
0.00207112
-0.0485902
-0.0132429
-0.0594268
0.000310018
0.000949942
-0.0720762
-0.0386778
0.00344891
-0.119935
-0.0557868
-0.0130876
-0.013969
-0.0198859
-0.0711589
0.00335484
0.00173041
-0.0727394
-0.0140181
-0.0696953
-0.0699001
-0.0505813
-0.00916914
0.0051733
-0.0162645
-0.0734998
-0.0388613
0.000985287
-0.0685334
-0.062579
-0.00125443
0.00185813
-0.0307734
-0.0110515
-0.0813276
-0.0389718
0.00255735
-0.153487
-0.0619179
-0.0256224
0.001421
-0.0701964
-0.066859
-0.102443
-0.0147554
0.00171179
-0.0414224
-0.00874628
-0.0231647
0.000955009
-0.0167261
0.00204345
0.0342865
0.00100402
0.00307375
-0.0372289
-0.0624627
-0.0704236
-0.0038305
-0.0555983
-0.0710163
0.000729203
-0.0679575
-0.0680009
-0.0677727
0.00159174
-0.0312242
-0.0667738
-0.0972753
-0.0666353
-0.0222066
-0.0288495
-0.0716388
-0.0629929
-0.0497511
0.00116079
-0.0474943
-0.0609029
-0.0124294
-0.0612062
-0.135015
-0.000868752
-0.09714
-0.0766003
-0.00726504
0.000921358
0.00686523
-0.0126229
-0.0241459
0.00188781
0.00143431
-0.0746287
-0.0681287
0.00488584
-0.0408878
0.00118938
-0.0165266
-0.105024
-0.0689879
-0.10572
-0.046277
-0.0688255
0.00322973
0.00168582
-0.0381983
-0.0744235
-0.0757292
-0.0310364
-0.0677719
-0.0247957
0.00165101
-0.0124665
-0.0251757
-0.0382956
-0.147542
-0.0706448
-0.0201442
-0.0643722
-0.0853861
0.00207853
-0.0372231
-0.0148083
-0.0287794
0.010074
-0.0148505
0.00202125
-0.026881
-0.028192
0.0180534
-0.068841
0.00190744
-0.0610245
-0.0216666
-0.0197043
-0.0740828
-0.0519403
-0.0703185
0.0018922
-0.0693582
-0.0692303
-0.064964
-0.0706808
0.00487363
0.00310491
-0.0746879
-0.0720789
0.00183597
-0.0062014
0.00175204
0.00204711
-0.0112097
-0.0285411
-0.0734787
-0.0715542
-0.0195082
-0.102456
-0.0283543
0.00169554
-0.00108003
-0.0130723
-0.00280377
-0.0420213
-0.0716497
-0.0717744
-0.066881
-0.0034557
-0.00458047
-0.0262192
0.00075436
-0.0707328
0.0202934
0.00171137
-0.0327782
-0.0433636
-0.00244618
-0.0682831
-0.0309052
-0.122967
-0.0143702
-0.0909467
-0.0565811
-0.0687375
-0.0136374
0.00307297
-0.0239827
-0.0139132
-0.041265
-0.103847
-0.0272125
-0.0327579
-0.0510861
-0.0418261
-0.0259825
-0.00601392
0.00764392
-0.00244919
-0.071893
-0.00110971
-0.027732
-0.0215384
-0.0231591
-0.0157202
-0.12992
-0.0647541
-0.00584262
-0.0107831
-0.0345014
-0.00156733
0.00349212
-0.0514422
-0.0342219
-0.00195345
-0.119838
-0.0126127
-0.0690316
-0.0155262
0.00246355
-0.00960868
-0.0686625
-0.000556769
-0.0731515
-0.0190612
-0.0242232
0.00759144
-0.0636368
-0.0127857
-0.0688858
-0.0128088
-0.0037077
-0.0606686
0.00215289
-0.071161
-0.0172554
-0.00288155
0.00160354
0.00064006
-0.0361157
-0.0135095
-0.0603046
-0.0587395
-0.0151772
0.00199456
-0.000340906
-0.165444
0.0334266
-0.0418386
0.000892592
-0.0145524
-0.0414478
-0.0618339
0.00910342
-0.0623782
-0.0134151
0.00176082
-0.0107672
0.00313482
0.00249737
-0.00570347
-0.0725533
-0.00025242
-0.0212143
0.0044634
-0.0658486
-0.0696544
-0.0379231
-0.016908
-0.0608043
-0.0666521
-0.114001
0.00590935
-0.0244313
-0.0602364
-0.0278006
0.00397606
-0.053235
-0.0706895
-0.0176857
-0.00244712
-0.0726323
-0.0390015
0.0320123
-0.0105537
-0.0410145
0.00225072
-0.0120442
-0.0401188
-0.0157125
-0.0213404
-0.00121838
-0.00148607
-0.00679208
-0.0794001
-0.000529995
-0.00537474
-0.0630878
0.00170795
0.00243404
-0.0723012
-0.0320023
-0.0459693
-0.0134157
-0.0248515
-0.00797263
0.00164035
-4.59078e-05
-0.0713028
-0.0255788
-0.0713763
-0.0640484
-0.0326037
-0.0743597
-0.0305759
-0.0290696
-0.00199702
-0.0285388
-0.0490321
-0.0289526
0.000758402
-0.0427934
-0.00445469
-0.0202669
-0.0280887
0.00417693
0.00164472
0.0150193
-0.0111119
0.0191903
-0.0247926
-0.0347698
0.00208743
-0.0221488
-0.0417668
-0.0418318
-0.0344752
-0.0681013
-0.031031
-0.0695749
0.000342219
-0.048241
-0.0394648
-0.00640155
-0.027784
-0.0485485
-0.0440806
0.0123796
0.00273361
-0.0436985
-0.0679384
-0.0373877
0.00224172
-0.000433787
-0.0226365
0.000422972
0.0270427
0.00215689
0.00140289
0.0207033
0.00301872
-0.0259059
-0.000112281
-0.0703696
-0.0542332
-0.0707211
-0.00131661
0.0184487
-0.0145195
-0.0314548
-0.0136948
-0.0198504
-0.0353111
0.0237354
-0.000942395
-0.119795
-0.026077
-0.0711875
0.00204492
-0.00321907
-0.0425803
-0.068279
-0.0215466
-0.0483385
-0.0266569
-0.0308119
-0.00563706
-0.00211783
-0.167025
-0.0708634
0.00785082
-0.0111205
-0.0229455
-0.00836623
0.00065045
-0.0641194
0.00173488
-0.115832
-0.0571194
-0.0559305
0.0120768
0.00202021
0.0148621
-0.0594033
-0.0492682
-0.00444466
-0.00231557
-0.0281962
-0.000203319
0.00391908
0.0115746
-0.0664395
-0.00387068
-0.00381511
-0.0530627
-0.0401178
-0.0219115
0.00656841
-0.00663525
0.00192184
-0.00868719
-0.0709338
0.00136827
-0.0238741
-0.069153
-0.0536011
-0.0402314
0.0379641
0.0383955
-0.0711673
-0.0621468
0.00804217
-0.0188166
-0.0338053
-0.0131584
-0.0454959
-0.0136427
-0.00215355
-0.124838
-0.0211738
0.00151267
0.00135105
0.0121836
-0.00941917
0.0020738
0.00187914
-0.0311371
-0.00568857
-0.0125937
0.00224057
-0.0396196
-0.0588105
-0.00315092
0.00226383
0.0193605