/*--------------------------------*- C++ -*----------------------------------*\
| =========                 |                                                 |
| \\      /  F ield         | OpenFOAM: The Open Source CFD Toolbox           |
|  \\    /   O peration     | Version:  v2012                                 |
|   \\  /    A nd           | Website:  www.openfoam.com                      |
|    \\/     M anipulation  |                                                 |
\*---------------------------------------------------------------------------*/
FoamFile
{
    version     2.0;
    format      ascii;
    class       volScalarField;
    location    "600";
    object      k_0;
}
// * * * * * * * * * * * * * * * * * * * * * * * * * * * * * * * * * * * * * //

dimensions      [0 2 -2 0 0 0 0];


internalField   nonuniform List<scalar> 
13851
(
0.000204021
0.000154664
0.000154463
0.0196606
0.000148437
0.000157305
0.000155202
0.000147597
0.0524637
0.000148403
0.000177066
0.000148459
0.000149014
0.0303838
0.000169709
0.000206421
0.0174174
0.000148459
0.00025229
0.000203727
0.00017293
0.000156087
0.0374964
0.000149734
0.0391276
0.000186757
0.000231317
0.0133268
0.0453354
0.000146689
0.0452546
0.000155189
0.000204263
0.070823
0.000170156
0.0443923
0.00014981
0.0351972
0.0686544
0.000148841
0.0736015
0.0465661
0.00627408
0.000222798
0.0489604
0.00014766
0.000145463
0.000204958
0.00015259
0.000148971
0.0265588
0.000149235
0.000206206
0.000164665
0.0278582
0.000148844
0.000204464
0.0711417
0.00018756
0.0318062
0.000148509
0.000252548
0.000148596
0.00015287
0.000181945
0.000182622
0.0258287
0.000166562
0.000149086
0.0284349
0.0409129
0.000177507
0.000148526
0.0283424
0.000166223
0.000152749
0.022894
0.000145895
0.026442
0.000147764
0.000149155
0.000247862
0.000169634
0.0326436
0.0332141
0.0442214
0.000156349
0.0210072
0.000148367
0.0449222
0.00014935
0.000155369
0.0101048
0.0400096
0.0633546
0.000199952
0.000147817
0.000206822
0.0278901
0.000195624
0.000207999
0.00016207
0.00016303
0.000148781
0.000147643
0.000175874
0.000147639
0.0431782
0.00015534
0.000148308
0.000159802
0.000147669
0.000205345
0.000179615
0.000204335
0.000163761
0.0001465
0.000147105
0.0171216
0.0318955
0.000189937
0.000147577
0.000149003
0.0517886
0.000226365
0.000172542
0.000147809
0.000171674
0.0679351
0.000176558
0.000155996
0.000162723
0.0132228
0.0700639
0.000177739
0.0627815
0.000166202
0.0428908
0.000160097
0.000176508
0.000237204
0.000150479
0.000148392
0.000171524
0.0374264
0.000152266
0.000145833
0.0405166
0.0413915
0.00017231
0.000207634
0.000203643
0.00018079
0.000226423
0.000149546
0.000148669
0.000148604
0.0646725
0.00017415
0.000153803
0.000149584
0.0449693
0.000175406
0.000204985
0.0309772
0.0549925
0.0560961
0.0314423
0.000159631
0.0753744
0.000148615
0.0001465
0.000179862
0.000148827
0.0669525
0.00021639
0.0002105
0.000146426
0.000166242
0.00020958
0.000225453
0.000222194
0.000159144
0.000176301
0.00730175
0.0419908
0.000204245
0.00015745
0.000149345
0.000147142
0.0204131
0.000174096
0.0251092
0.000157537
0.000152
0.00020652
0.000203547
0.000149524
0.000149565
0.000167255
0.000236809
0.0680799
0.0716228
0.000169734
0.000331215
0.0639669
0.000152283
0.000176502
0.0540931
0.000156358
0.000206155
0.000148944
0.000243938
0.000149538
0.000170861
0.0001539
0.000148882
0.000223577
0.00014965
0.000494591
0.000146393
0.000203438
0.0281479
0.0646835
0.000157086
0.000176825
0.000149744
0.000169925
0.000148058
0.000170462
0.0324902
0.000157031
0.000156312
0.00014872
0.0695064
0.000146669
0.0205614
0.0706693
0.000192112
0.000149645
0.000443492
0.0338641
0.0484442
0.000205852
0.000165804
0.000174746
0.000218102
0.000166499
0.000199129
0.000161262
0.0227579
0.000202151
0.000147154
0.000157671
0.000207389
0.0439749
0.0233747
0.000147089
0.000173094
0.000148334
0.000217174
0.000225483
0.000158267
0.000176013
0.000202709
0.000148221
0.000162577
0.000200354
0.0053475
0.000148495
0.000148862
0.000157214
0.0615027
0.0118589
0.00017593
0.000147737
0.000225591
0.00022598
0.000200834
0.000175644
0.060793
0.0273878
0.000158659
0.000166799
0.0351139
0.000147618
0.000148597
0.000201573
0.000173882
0.000146721
0.000149518
0.00014801
0.000147879
0.000165852
0.000148552
0.0541537
0.000174151
0.000148327
0.0436918
0.0489743
0.0001493
0.000204074
0.0269095
0.000150711
0.000149389
0.000175339
0.0308273
0.0776473
0.000182821
0.000148353
0.0718978
0.000148563
0.000184481
0.0323513
0.00354975
0.000153486
0.0226371
0.0013842
0.04832
0.000202704
0.000162753
0.0679897
0.0583539
0.0115195
0.000149805
0.0248869
0.00851391
0.000212132
0.000208
0.000152308
0.000182019
0.000157814
0.0221413
0.000163337
0.000147013
0.000144816
0.0001582
0.0449329
0.000376201
0.000147552
0.0620065
0.000157863
0.00016298
0.000154042
0.0265313
0.000225712
0.000206902
0.000153497
0.000155614
0.0419838
0.00014937
0.00022898
0.000158546
0.00017524
0.000158457
0.000148353
0.000148301
0.000198287
0.000199384
0.000202549
0.00408425
0.042513
0.000152398
0.0685438
0.000224764
0.000146592
0.00495937
0.000192706
0.0327884
0.000157677
0.000188282
0.00025164
0.0242853
0.000196349
0.0248167
0.000150952
0.000192315
0.00673244
0.000162815
0.0276757
0.000165156
0.0739408
0.000166415
0.000173036
0.000201756
0.000213491
0.000148677
0.000157937
0.000174927
0.000166521
0.000147817
0.000176296
0.0617402
0.000148505
0.000176524
0.0121117
0.000154146
0.00242255
0.000175954
0.0810007
0.000157054
0.000185218
0.000319045
0.000228249
0.000175241
0.0199465
0.0285923
0.000398859
0.000148251
0.00019773
0.000165153
0.000187925
0.000147613
0.00739951
0.0697322
0.0288986
0.000155547
0.000202422
0.00025224
0.0129222
0.000145461
0.0183792
0.000221398
0.0344867
0.000161865
0.021227
0.000148577
0.000148751
0.0238589
0.000248456
0.000148419
0.000154704
0.00017701
0.000146728
0.0655145
0.000182399
0.000192166
0.000157606
0.000150991
0.000149297
0.0138036
0.000148293
0.000149226
0.019658
0.0600466
0.000155449
0.00024437
0.000148636
0.000148541
0.000154709
0.000202865
0.000175746
0.0001479
0.000151718
0.000189607
0.000152993
0.0803736
0.000148421
0.000160282
0.0495491
0.000160724
0.000145164
0.000148739
0.000157464
0.00015005
0.000363891
0.0276997
0.000166058
0.000601717
0.000154823
0.000148316
0.0647369
0.000246773
0.000160115
0.000148613
0.0559368
0.000159546
0.0021212
0.000148784
0.000163093
0.000197384
0.000168076
0.0623572
0.000249201
0.0212597
0.000152583
0.000204135
0.00014822
0.0442944
0.000175837
0.000203557
0.000164985
0.00015316
0.00016076
0.000180375
0.00014851
0.0135426
0.0629633
0.0813673
0.00727707
0.0260518
0.0346803
0.000228521
0.000156563
0.000149347
0.0040037
0.000148405
0.00014779
0.000157748
0.0698564
0.000154342
0.000150468
0.000173558
0.000174095
0.000148475
0.0854839
0.000147812
0.069143
0.00033052
0.000147762
0.00015332
0.000225473
0.00585517
0.000146747
0.0619298
0.0184259
0.000146762
0.0575713
0.000250879
0.000202958
0.000152533
0.018379
0.0325518
0.00014698
0.000246639
0.000149032
0.000147826
0.0101816
0.0748987
0.000169526
0.000175119
0.000148423
0.00018234
0.069438
0.0650645
0.000147844
0.0243422
0.00014787
0.0001491
0.000175473
0.000160397
0.000145422
0.000152746
0.059631
0.000210397
0.0559687
0.000153742
0.00014832
0.0608975
0.000149152
0.000198702
0.000160087
0.000166241
0.000165532
0.0458367
0.0323357
0.000157368
0.0171114
0.000152969
0.000181425
0.0471151
0.0339151
0.000148972
0.000148252
0.000163318
0.0573688
0.000228399
0.000181919
0.00820468
0.000160599
0.000165537
0.0395125
0.0878992
0.000182311
0.0675236
0.000216361
0.0439728
0.000150376
0.000183441
0.00514702
0.000148451
0.0112585
0.090133
0.000159638
0.000176452
0.000148756
0.00051035
0.000175466
0.0560581
0.000148313
0.000149021
0.000155333
0.000173602
0.000148486
0.0666438
0.000148981
0.000215304
0.000152572
0.000188498
0.000148758
0.000148499
0.000167374
0.0245329
0.000174885
0.0608549
0.000163124
0.000146809
0.000147273
0.000180085
0.00015168
0.000189947
0.000155168
0.000159822
0.000200893
0.000149161
0.0191117
0.000149671
0.000195625
0.0196544
0.0534247
0.000156427
0.0491664
0.000172973
0.000205225
0.0900534
0.00014827
0.0890421
0.000157922
0.00016372
0.00923765
0.00183269
0.000146739
0.000189334
0.000149418
0.0434855
0.0274209
0.000149482
0.000167134
0.0698653
0.000149741
0.000149664
0.000187021
0.0160053
0.0100711
0.000149402
0.000201562
0.000152557
0.000148529
0.000208424
0.000202089
0.000194982
0.000145241
0.000200374
0.000163838
0.000183352
0.000150544
0.000151713
0.00017417
0.000155138
0.000202707
0.000177412
0.00017726
0.000178673
0.000427673
0.000251063
0.0478016
0.0518313
0.000206312
0.0393441
0.000163324
0.0135082
0.000204044
0.000148187
0.000164888
0.000231305
0.000157269
0.000147767
0.000147718
0.000195735
0.0222795
0.000160523
0.0675861
0.000146843
0.0134891
0.000178416
0.025565
0.000188806
0.000157237
0.000154496
0.0298861
0.000195072
0.00016296
0.000251677
0.000150617
0.00426188
0.000195976
0.000215618
0.000164213
0.000289437
0.000148567
0.000149613
0.000151862
0.000148544
0.04769
0.00014787
0.000223118
0.0604332
0.000189366
0.0670399
0.0309213
0.000217155
0.00021007
0.000156633
0.000149136
0.000148786
0.000145929
0.000147259
0.000148842
0.000181961
0.000204546
0.000164546
0.00873075
0.000151653
0.0526012
0.000149954
0.0227927
0.000168309
0.000149881
0.000148817
0.0542685
0.000157566
0.0124055
0.0901389
0.000175415
0.00018499
0.0001466
0.0708394
0.000153419
0.000154441
0.000192971
0.00014916
0.000150453
0.000148067
0.000175843
0.0240085
0.000160791
0.0001647
0.0002274
0.0612175
0.000157025
0.000156231
0.0457424
0.000145888
0.0452477
0.000149289
0.000153061
0.0230133
0.000190878
0.000203907
0.000184187
0.000175168
0.000149477
0.000149954
0.000182767
0.000150542
0.000149531
0.000161276
0.000220536
0.000147765
0.000202295
0.00143178
0.00657342
0.000183974
0.0447501
0.000160305
0.000149103
0.000195025
0.00014694
0.000158064
0.0424944
0.0419621
0.0887594
0.0454765
0.000149666
0.000149346
0.000169062
0.000151397
0.000147463
0.0313344
0.000217947
0.0295381
0.000195978
0.000191345
0.000148589
0.000146737
0.00551185
0.00019209
0.000153671
0.000149659
0.000203927
0.000208049
0.0693352
0.000149501
0.000148936
0.0206263
0.000150492
0.000165354
0.000146743
0.0714638
0.000148068
0.0221772
0.000148473
0.00018915
0.000170863
0.000168664
0.000164553
0.000148518
0.000154681
0.000148018
0.000237401
0.000150481
0.0276062
0.000150846
0.0163354
0.0646563
0.0001628
0.000147881
0.0135973
0.0289385
0.000157964
0.000190823
0.000148775
0.0191394
0.000148308
0.000232397
0.000148374
0.000147996
0.0080953
0.000165767
0.000148671
0.000165191
0.0685821
0.000443186
0.0734095
0.000147074
0.0419789
0.000148457
0.000147811
0.000149543
0.000144443
0.000149533
0.0805585
0.0472753
0.000149701
0.000148954
0.000169993
0.00014768
0.0171364
0.000196161
0.034731
0.069312
0.000154603
0.000202604
0.000148405
0.000172719
0.000175229
0.000148151
0.000149349
0.000691616
0.0292362
0.000184422
0.00856063
0.000183546
0.00014862
0.000170687
0.00019125
0.0212826
0.00016475
0.000166738
0.000192664
0.000149458
0.058562
0.0554194
0.0291877
0.0127908
0.00867458
0.000152519
0.000174432
0.000149236
0.00025465
0.000156759
0.000147033
0.0771794
0.000151414
0.000147886
0.000148975
0.000151108
0.0681121
0.000228871
0.000147204
0.000171165
0.0311182
0.000151891
0.00779058
0.000151567
0.000189678
0.0738519
0.000148575
0.000245537
0.000159773
0.000163916
0.000488738
0.000151399
0.000244493
0.000184821
0.072307
0.000149793
0.0262258
0.000162357
0.0435093
0.0228555
0.0212778
0.00017552
0.000148608
0.000149734
0.00014974
0.000171679
0.00014876
0.0643925
0.000158486
0.000156489
0.000156859
0.00015241
0.000147019
0.000159176
0.000157933
0.000153302
0.000157123
0.088961
0.000243492
0.000161918
0.000169299
0.0765422
0.000150555
0.0481633
0.000145936
0.000160897
0.000150508
0.000148202
0.000166511
0.000148285
0.000147159
0.000162721
0.000148716
0.000216015
0.000151271
0.00994561
0.000977944
0.000218079
0.000231202
0.000149118
0.0633651
0.000207155
0.000149477
0.000157737
0.000150263
0.0516258
0.000151547
0.000162526
0.003834
0.00993744
0.000177449
0.000149279
0.047628
0.0026367
0.0122388
0.00015969
0.000146751
0.000147749
0.000182908
0.000148589
0.0278997
0.000199189
0.00014928
0.00022517
0.000219936
0.000147966
0.0894652
0.0201211
0.000217124
0.00015111
0.046292
0.00018178
0.000148047
0.0241025
0.000156037
0.000147778
0.000147845
0.000165091
0.000171949
0.0570017
0.0481043
0.000172906
0.0568484
0.000166666
0.000148402
0.000168287
0.000147745
0.00248333
0.000148014
0.000148185
0.000153032
0.00015044
0.0625912
0.0214781
0.000230008
0.0314284
0.0881157
0.000157078
0.000148552
0.000151275
0.000247055
0.000147915
0.000148366
0.000168948
0.033753
0.000247992
0.000145834
0.000165275
0.000164849
0.000202419
0.00730117
0.000146751
0.000145318
0.000153311
0.0172987
0.000161194
0.0695745
0.000151664
0.000149016
0.000147829
0.00014783
0.000153881
0.000216749
0.0435826
0.0537712
0.000156831
0.000148321
0.00260206
0.000150071
0.0304537
0.0400087
0.000158134
0.0278521
0.0470222
0.0404068
0.000180633
0.000164523
0.0466975
0.000162806
0.000160222
0.00016939
0.00020704
0.000150379
0.000497348
0.000148428
0.0367974
0.025949
0.000145966
0.000152717
0.000166788
0.000238411
0.000165813
0.000148866
0.000160392
0.000151537
0.000157257
0.000238503
0.000149028
0.0331744
0.0239361
0.00014847
0.000163558
0.000171607
0.00014849
0.0413768
0.0115881
0.0655703
0.0327175
0.000148206
0.000154195
0.000157049
0.000149564
0.000226528
0.000166248
0.000149687
0.000183651
0.000154822
0.0271162
0.000171038
0.026429
0.00015141
0.000151904
0.000163512
0.000191553
0.000184503
0.000148211
0.00917068
0.0474277
0.0287325
0.0391287
0.0416294
0.0554928
0.0413376
0.000148205
0.000148303
0.000148782
0.000228186
0.000175256
0.000184079
0.0137387
0.000149573
0.000145613
0.000148427
0.000219055
0.000145762
0.000158346
0.000152558
0.0175384
0.000151092
0.000146981
0.000148525
0.000148255
0.000149003
0.000159915
0.000226925
0.000160319
0.0577232
0.000148278
0.000147853
0.0677698
0.0666993
0.0209755
0.00742251
0.000163706
0.0115016
0.000146707
0.000169026
0.000151895
0.000148497
0.000154733
0.0264954
0.00015202
0.000191994
0.00637972
0.000149745
0.000148131
0.000155117
0.000217345
0.0001498
0.0174624
0.000148697
0.000219072
0.00014877
0.000149675
0.000158164
0.000171165
0.00014904
0.000220142
0.0417737
0.000214633
0.0694155
0.000148573
0.0252355
0.000157683
0.000148318
0.025885
0.000149535
0.000161892
0.00014935
0.000149384
0.000147634
0.000148509
0.000150087
0.000155732
0.000184523
0.000149487
0.000148596
0.000165873
0.000146582
0.0878414
0.000148773
0.000163912
0.00016656
0.0370784
0.00208557
0.000148925
0.000217478
0.000146694
0.000163406
0.000172785
0.00582509
0.000176695
0.000149802
0.000199312
0.000167599
0.000190943
0.000148657
0.000160844
0.000200412
0.000181885
0.000185318
0.000150994
0.000147641
0.00643829
0.0115378
0.000154417
0.000148023
0.00838741
0.000146891
0.000172118
0.000147749
0.000176793
0.0237657
0.000144926
0.0156058
0.000157182
0.000149069
0.000209631
0.000147023
0.00016131
0.034271
0.000170184
0.00789194
0.000147603
0.000149749
0.00016233
0.000149478
0.000149609
0.000160256
0.000161556
0.000184513
0.000178335
0.000148888
0.000165249
0.000147501
0.000148361
0.000149402
0.000148334
0.000862974
0.000148112
0.000151659
0.000242019
0.000146847
0.000147945
0.0638215
0.000149635
0.0123668
0.000152362
0.0602569
0.000224895
0.000164231
0.00354522
0.000177833
0.000287275
0.000150152
0.000209353
0.000157551
0.000147543
0.000147676
0.000151616
0.000163213
0.00014819
0.000170932
0.00014731
0.000151889
0.00691217
0.026399
7.9367e-05
0.000154587
0.00016291
0.0390018
0.0290063
0.000149107
0.00015802
0.000338661
0.000149433
0.000168363
0.00292184
0.05328
0.000159173
0.00017367
0.000150859
0.000223314
0.000149895
0.000161083
0.0189624
0.000149171
0.000147771
0.0872655
0.00017081
0.00023399
0.069948
0.000195956
0.000149943
0.000147331
0.0001498
0.0325977
0.00404514
0.0478734
0.0001745
0.000148566
0.0447578
0.00014867
0.000202685
0.000155326
0.000152777
0.000172742
0.000148342
0.0900673
0.0889273
0.000146505
0.000183937
0.000176131
0.0050111
0.000171804
0.000181729
0.000230397
0.00016655
0.000246374
0.000182766
0.000148686
0.000167872
0.000168143
0.0221494
0.000148183
0.000160027
0.000172717
0.000183123
0.000149805
0.0853379
0.000157466
0.000152268
0.000147507
0.000166383
0.000165898
0.00016625
0.000148802
0.000150616
0.00017184
0.00895558
0.000175646
0.00014899
0.000150459
0.000167804
0.000220302
0.000149099
0.000180217
0.0281565
0.000167447
0.0537076
0.000171412
0.0272122
0.000243331
0.000148224
0.00244873
0.000149551
0.000154599
0.0001652
0.000166329
0.000190477
0.000175925
0.000165608
0.000166951
0.000162341
0.000153205
0.000145703
0.000169552
0.000156506
0.000157301
0.00123012
0.000156249
0.000159086
0.000147716
0.0256347
0.000178893
0.000148883
0.000155137
0.000151636
0.03077
0.000199367
0.000165224
0.0481317
8.64063e-05
0.000477972
0.000190453
0.000246177
0.000147329
0.000184701
0.000148307
0.000155499
0.0316582
0.0410715
0.000256453
0.000951141
0.000148745
0.0268904
0.000147306
0.000190743
0.000154494
0.00774114
0.0809941
0.000157683
0.000148014
0.000244121
0.000162084
0.000148142
0.038762
0.000148472
0.000152386
0.000156551
0.000149331
0.000161768
0.000151769
0.000148576
0.000162991
0.00026447
0.000171097
0.000175734
0.000148126
0.0317241
0.0411639
0.000147897
0.000250404
0.000154415
0.00015721
0.0458815
0.000147877
0.000150585
0.000156639
0.0490897
0.00014818
0.000149156
0.000169787
0.0111248
0.000147776
0.000159571
0.000161505
0.000688468
0.000171711
0.000169367
0.000224534
0.000148488
0.00017254
0.000146011
0.0299819
0.00016086
0.000148412
0.000159127
0.000187173
0.000148926
0.000149325
0.000203285
0.040194
0.000150023
0.0314095
0.000149205
0.000145965
0.000181973
0.000148174
0.000148117
0.0881826
0.000149815
0.000170888
0.000208838
0.0541306
0.000521016
0.000147812
0.000152698
0.000156448
0.000148408
0.00014859
0.000148582
0.00104796
0.000149267
0.00025064
0.000200824
0.000147747
0.000146716
0.000161463
0.000200787
0.000249156
0.0001664
0.000176813
0.000152798
0.0536911
0.000175735
0.0001633
0.000171937
0.000171564
0.00018861
0.0253912
0.000170385
0.0291898
0.0163381
0.0231345
0.000155066
0.000148242
0.0001673
0.000159317
0.000147561
0.00015006
0.000178
0.000149597
0.000149678
0.000148288
0.000145279
0.000153098
0.000148843
0.0220175
0.000147994
0.0497958
0.000148461
0.000173344
0.000150506
0.000201142
0.000173143
0.000148628
0.0493597
0.000152623
0.000149479
0.000171171
0.000147395
0.000158769
0.00014847
0.0428159
0.000153466
0.000171294
0.000170404
0.0455809
0.000157833
0.00024876
0.0013352
0.000169255
0.00014907
0.00015164
0.000175443
0.0001809
0.0258456
0.000146799
0.0322868
0.000148863
0.000169397
0.0831063
0.000165091
0.00517137
0.00015498
0.000164165
0.000154082
0.0885261
0.000161698
0.000148855
0.000168385
0.000200872
0.000152266
0.000148304
0.000148872
0.0676673
0.000149666
0.00015716
0.0682751
0.000155365
0.000148226
0.000171155
0.000154585
0.0305332
0.000145621
0.000148391
0.00014706
0.000154834
0.000150044
0.000149124
0.000183591
0.0647802
0.000148102
0.000148631
0.0411345
0.000149697
0.0160219
0.000153649
0.0821178
0.000147577
0.000153336
0.000146691
0.0310456
0.0684618
0.000159071
0.000168939
0.000155571
0.000148103
0.000148716
0.0424376
0.000148817
0.000190639
0.000147293
0.000173254
0.000149225
0.0556055
0.000146899
0.000174878
0.000147672
0.00022179
0.000359558
0.000147187
0.000165985
0.0902235
0.000185136
0.0141488
0.00450085
0.000204522
0.000151864
0.000165353
0.000190781
0.00832928
0.000149521
0.000170135
0.000156568
0.00014833
0.0274349
0.037239
0.000184985
0.000206508
0.000241959
0.000162445
0.0600214
0.00014748
0.000147097
0.000188035
0.0892569
0.000218765
0.000201053
0.00149886
0.000146729
0.0869515
0.0363255
0.0823916
0.000149299
0.0327092
0.0451068
0.000391284
0.000403623
0.0487662
0.000191431
0.000161436
0.000205322
0.000154419
0.000148268
0.00168655
0.000192433
0.000145576
0.0381755
0.000149218
0.000158344
0.00017248
0.000155531
0.000554966
0.000160238
0.0121042
0.000174523
0.000154925
0.00816201
0.0769371
0.000202344
0.000149858
0.000154557
0.000183548
0.000168272
0.000146805
0.000173222
0.00016721
0.000198555
0.000148231
0.000211366
0.000153498
0.000168375
0.0244327
0.000249075
0.000151321
0.000185058
0.034053
0.000149165
0.00015087
0.0790807
0.000228667
0.000154018
0.000154861
0.000148547
0.000174163
0.0001566
0.0459668
0.000190008
0.000150181
0.000149443
0.000166359
0.000159146
0.000170256
0.0307027
0.000147537
0.000148195
0.00015812
0.000149252
0.000154009
0.000151132
0.000151085
0.000154684
0.000147865
0.000154086
0.000149271
0.000176109
0.00781603
0.000149744
0.0640183
0.0165045
0.00014602
0.000182657
0.000187048
0.000178959
0.000150664
0.000192556
0.000158489
0.000168466
0.000161645
0.000152022
0.000149343
0.0253182
0.000160384
0.00858851
0.000150624
0.000148449
0.000148108
0.00017285
0.000148037
0.000176238
0.000182738
0.000326921
0.000147498
0.000231261
0.0134101
0.049595
0.000146669
0.000195141
0.000222153
0.0157003
0.00359928
0.000150286
0.000149548
0.000193959
0.000929337
0.00221023
0.000171011
0.000250991
0.000149499
0.000147752
0.000164365
0.00014927
0.000149082
0.000200022
0.000149755
0.000169485
0.000147529
0.0768706
0.0627687
0.0252962
0.0229625
0.04636
0.000149044
0.000148917
0.0852759
0.000146982
0.000147305
0.000145988
0.000183429
0.0725373
0.0272104
0.000156209
0.000149231
0.00015175
0.000162819
0.0311907
0.000148122
0.00543422
0.0785071
0.000149219
0.000149126
0.0366019
0.000189444
0.000152655
0.000148292
0.0728335
0.047329
0.000148647
0.000218214
0.000149672
0.0515562
0.000581306
0.000153237
0.0263213
0.0159866
0.0516687
0.000147374
0.000149482
0.000149614
0.000149898
0.0676971
0.000147787
0.00019728
0.000247601
0.0240004
0.000150887
0.000173821
0.000126224
0.000173734
0.0831977
0.0530023
0.000145407
0.00015671
0.000156878
0.000205051
0.0526598
0.00014514
0.0245034
0.000160473
0.000173115
0.000150681
0.000147516
0.000224539
0.000168262
0.0188658
0.000149267
0.000173734
0.000150627
0.000201283
0.000154329
0.0633237
0.00419619
0.000202835
0.000194312
0.000148172
0.000152874
0.000190724
0.000182281
0.0599384
0.0896532
0.000148917
0.0084749
0.000170417
0.0762989
0.000158674
0.000170238
0.000169004
0.000149028
0.0591651
0.000148409
0.000164586
0.030093
0.0751556
0.000841236
0.0722811
0.000157828
0.000175775
0.000146819
0.0774825
0.000156883
0.0401172
0.000146748
0.0383359
0.000144971
0.000147998
0.000164031
0.000158494
0.000159796
0.000148306
0.0383658
0.000174017
0.000147813
0.000165875
0.0320195
0.000228243
0.000148531
0.0576624
0.00015381
0.000166593
0.000164873
0.000145813
0.000178139
0.000147965
0.0303758
0.000172808
0.000158767
0.000148293
0.000233727
0.000169624
0.00014674
0.0396819
0.00491064
0.000225137
0.000146324
0.000217298
0.000148881
0.000191459
0.000159591
0.000181153
0.0129113
0.037627
0.000159518
0.0719458
0.000169526
0.000157662
0.000146996
0.0511521
0.000179421
0.000190472
0.000165648
0.00014959
0.00990899
0.000183418
0.000241677
0.000237669
0.090144
0.0384418
0.00832415
0.0345007
0.000157947
0.000158647
0.000148583
0.000148957
0.00014529
0.0002128
0.000158497
0.000159839
0.0645404
0.000147809
0.00014697
0.000172352
0.000201266
0.000159595
0.000147131
0.0694488
0.000154022
0.000176106
0.000149318
0.0231096
0.000157127
0.078681
0.000166516
0.000165477
0.000171266
0.00014854
0.0104788
0.000156324
0.000180227
0.00014865
0.000147248
0.0240159
0.0451522
0.0434604
0.000147882
0.000180429
0.00034934
0.000148933
0.000147961
0.000148898
0.0715192
0.000171488
0.000163012
0.000159413
0.000157439
0.0396741
0.000179206
0.000225947
0.000158111
0.000164391
0.000145246
0.0001831
0.000172981
0.000148357
0.0405751
0.0552607
0.0660187
0.0378338
0.0414103
0.0862276
0.0869225
0.00015141
0.000147934
0.0693938
0.0406606
0.0362273
0.000148773
0.000170473
0.000148573
0.000148075
0.002889
0.0769023
0.000182677
0.000148006
0.00023212
0.000191926
0.000174551
0.039917
0.00453619
0.0002513
0.000147284
0.0633112
0.000785427
0.000229452
0.00016484
0.000171727
0.000149253
0.00014723
0.000168287
0.000172284
0.000153832
0.000171409
0.000159562
0.000154345
0.000223793
0.0364369
0.000159172
0.000172879
0.0488146
0.00021814
0.00014868
0.000192882
0.000230617
0.0269658
0.000169267
0.000149206
0.000161274
0.000157222
0.000158422
0.000145813
0.000158983
0.000163717
0.000175298
0.000202723
0.000149497
0.000151582
0.0383609
0.0454332
0.0742616
0.000120125
0.000198863
0.000144796
0.000148497
0.000161862
0.000146693
0.0897011
0.000148457
0.000149813
0.000146269
0.0410831
0.0234311
0.000149944
0.000182953
0.000158438
0.000161584
0.000161298
0.000159716
0.000170911
0.00016649
0.0209263
0.000157463
0.0429152
0.000167161
0.0731114
0.000160286
0.000147416
0.000146924
0.000192969
0.000203103
0.000146753
0.000162902
0.000160622
0.000175789
0.0201621
0.0238436
0.0222698
0.000149811
6.54086e-05
0.000158592
0.000164398
0.000148277
0.000179604
0.000152583
0.0282204
0.000298115
0.000165813
0.000148485
0.0444187
0.00015577
0.0364062
0.0395836
0.0002237
0.000153502
0.000197964
0.0300658
0.000149391
0.052872
0.00017709
0.000148295
0.000167172
0.000147913
0.0853589
0.000153889
0.000162345
0.000233959
0.0701793
0.000148083
0.000148157
0.0423045
0.000169481
0.0818222
0.000158778
0.000148292
0.000170768
0.000221458
0.000162437
0.00559603
0.000164298
0.000484715
0.000155319
0.000149612
0.000148066
0.000216103
0.00015054
0.000182175
0.00014862
0.000148571
0.000211391
0.000157569
0.000149032
0.000148193
0.000164323
7.98165e-05
0.000173263
0.000168647
0.000155214
0.000178112
0.000148627
0.000191294
0.00016206
0.00017215
0.000166528
0.000160151
0.000174247
0.000163081
0.000147785
0.000184644
0.0476268
0.0331083
0.00014918
0.000928461
0.035635
0.000148141
0.000150556
0.000227948
0.042668
0.000156215
0.0348652
0.000251735
0.000148998
0.000191004
0.000145249
0.000157125
0.000178943
0.0409768
0.000204356
0.000236107
0.00019922
0.0379288
0.0561781
0.000152854
0.0468234
0.000148389
0.000452047
0.053118
0.00014861
0.000148436
0.032661
0.000149019
0.000148522
0.000256201
0.0561359
0.000218813
0.000157618
0.0480203
0.00014859
0.0437207
0.040325
0.000149208
0.000173527
0.013742
0.0467231
0.0359068
0.0410018
0.0320593
0.000147268
0.000151533
0.000179696
0.000183229
0.000148493
0.000217176
0.000148325
0.0415936
0.000264029
0.000164178
0.00024512
0.042144
0.000261622
0.000223711
0.000165737
0.0191608
0.000259703
0.000156227
0.000145539
0.00153064
0.000161303
0.000146898
0.0843157
0.00014817
0.00302957
0.00014913
0.0740914
0.000156596
0.000148118
0.0064361
0.000155986
0.000160475
0.0294431
0.0766612
0.000834128
0.000159731
0.000174942
0.000151758
0.000171112
0.000200045
0.000171596
0.000149352
0.00032633
0.000180754
0.000161585
0.0315981
0.000170598
0.000162201
0.000199077
0.00018379
0.00017452
0.00014809
0.000207625
0.000146944
0.000200465
0.000230752
0.0436407
0.000147107
0.000168199
0.0252019
0.000152472
0.00017846
0.000163826
0.000170214
0.0756525
0.000181052
0.000151908
0.0327231
0.000147156
0.0434108
0.000148774
0.00015175
0.000200761
0.0439251
0.000161728
0.000188696
0.000222132
0.000163876
0.000149474
0.000176955
0.000171782
0.065027
0.000155241
0.00584677
0.000203459
0.000163857
0.000161093
0.000177893
0.000166268
0.000167436
0.000181176
0.000162522
0.0001541
0.0001492
0.00123279
0.000148433
0.000159951
0.000145363
0.000198105
0.000160552
0.000181386
0.0451882
0.000151211
0.000219619
0.000144557
0.000149159
0.000149219
0.000149329
0.000158256
0.000147639
0.000191475
0.0271642
0.000181491
0.00017401
0.000155905
0.000148707
0.00024681
0.000148559
0.0226831
0.0313773
0.0283462
0.000206601
0.000163769
0.000159131
0.000149145
0.000158023
0.000170515
0.000168967
0.0510254
0.000181546
0.0586821
0.000206889
0.000149353
0.000146864
0.0328735
0.0001481
0.000161792
0.000166197
0.000243955
0.000152669
0.0686376
0.000149093
0.000155825
0.000148581
0.000150445
0.000176819
0.000197584
0.000149453
0.000165131
0.000159825
0.000174779
0.000181346
0.000217574
0.000199205
0.000212771
0.00020405
0.000157781
0.000151449
0.000181199
0.0429533
0.0830624
0.0474753
0.000164299
0.0250738
0.000197094
0.000151257
0.000147955
0.000183544
0.00014891
0.000165057
0.0224054
0.000148019
0.000147484
0.000301558
0.00255085
0.000176234
0.000671969
0.000149014
0.0279453
0.000168883
0.0745882
0.000157225
0.000148611
0.0449351
0.000165186
0.000148536
0.00017171
0.000149668
0.000189954
0.000159859
0.000164217
0.0874446
0.000159562
0.0478105
0.000147661
0.0527749
0.000149048
0.000156881
0.000150186
0.000171172
0.000148878
0.000166067
0.0445617
0.000235894
0.000174909
0.00016109
0.000168196
0.000147988
0.000149007
0.000151908
8.46537e-05
0.000156306
0.076979
0.0370775
0.000188777
0.000149407
0.000192239
0.000205902
0.000202046
0.00015745
0.0413755
0.000148228
0.000144795
0.000148096
0.0134122
0.000148956
0.000148466
0.0464441
0.000148056
0.000201983
0.000171635
0.000147669
0.0619199
0.000160474
0.0738619
0.000148203
0.00129193
0.000151143
0.000166746
0.0284967
0.00018289
0.000147866
0.000159235
0.0278346
0.000164894
0.000193629
0.000163041
0.000156665
0.000187101
0.000158199
0.000149708
0.0071121
0.000160403
0.00016054
0.000206018
0.000148136
0.000147477
0.000149197
0.000163662
0.000149048
0.000155204
0.0540208
0.0158117
0.000171336
0.00938096
0.000183268
0.000167074
0.0716939
0.0502131
0.000150005
0.0162019
0.061645
0.0362519
0.00229328
0.000162108
0.0249942
0.05014
0.0472027
0.00248527
0.0839434
0.000162854
0.000169478
0.000157766
0.000157596
0.000149686
0.000383686
0.000149895
0.0184484
0.000174075
0.00019878
0.000145137
0.000187319
0.000163681
0.000152095
0.000149951
0.000148682
0.000173515
0.000153277
0.000149806
0.000171905
0.0580698
0.000154369
0.00019204
0.000146801
0.000173429
0.000169208
0.000149175
0.000156253
0.000147644
0.0740359
0.0625587
0.000206985
0.00918269
0.000161172
0.000189415
0.000148816
0.000172445
0.000148796
0.00014976
0.00014953
0.0475506
0.0001468
0.000175592
0.000257327
0.000157501
0.000163178
0.000148114
0.0695302
0.000207366
0.0407705
0.0355337
0.000201885
0.000241315
0.0319572
0.000247878
0.000242214
0.0166834
0.000173971
0.000159221
0.00405819
0.0794122