/*--------------------------------*- C++ -*----------------------------------*\
| =========                 |                                                 |
| \\      /  F ield         | OpenFOAM: The Open Source CFD Toolbox           |
|  \\    /   O peration     | Version:  v2012                                 |
|   \\  /    A nd           | Website:  www.openfoam.com                      |
|    \\/     M anipulation  |                                                 |
\*---------------------------------------------------------------------------*/
FoamFile
{
    version     2.0;
    format      ascii;
    class       surfaceVectorField;
    location    "600";
    object      Uf;
}
// * * * * * * * * * * * * * * * * * * * * * * * * * * * * * * * * * * * * * //

dimensions      [0 1 -1 0 0 0 0];


internalField   nonuniform List<vector> 
20580
(
(1.13905 0.0794152 5.04295e-21)
(1.13919 0.0828452 3.34475e-20)
(1.13604 0.0802031 -7.51839e-21)
(1.07335 -0.0177972 0)
(1.07401 -0.0188955 0)
(1.07529 -0.0175236 -1.56738e-20)
(1.07244 -0.0161577 -8.82886e-21)
(1.07118 -0.0175939 1.9377e-22)
(-0.206867 -0.00116863 5.56679e-20)
(-0.182929 -0.00443319 -3.07869e-20)
(-0.206395 -0.00199184 -6.53508e-20)
(1.00228 -0.000569706 2.54312e-22)
(1.00206 -0.000529569 1.02459e-22)
(1.00215 -0.000315344 -7.99336e-23)
(1.08669 -0.0308426 0)
(1.08667 -0.0331158 3.31922e-21)
(1.08434 -0.0320427 -1.26538e-20)
(1.05455 0.0176275 8.18068e-21)
(1.05482 0.0187311 -2.19071e-21)
(1.01374 -0.000814221 -2.09522e-21)
(1.01345 -0.000835756 2.49163e-21)
(1.01274 -0.000515085 0)
(0.300495 0.0639803 -9.46097e-21)
(0.307522 0.0640346 -8.03988e-21)
(0.276345 0.0593058 0)
(0.991102 -0.00993295 5.00881e-21)
(0.99148 -0.00923574 8.8623e-22)
(0.99191 -0.009804 4.77929e-21)
(1.1786 -0.0935005 -1.33596e-20)
(1.17289 -0.0936592 9.39849e-20)
(1.17637 -0.0989617 2.48147e-20)
(1.00155 -0.00885106 0)
(1.00174 -0.00916053 0)
(1.0016 -0.00926547 0)
(0.981441 -0.021788 -2.06561e-21)
(0.98112 -0.0227341 1.04529e-20)
(0.982298 -0.0222992 -1.13558e-20)
(0.0647441 0.029686 -2.18733e-21)
(0.0507607 0.0262243 -1.40816e-20)
(0.068821 0.032365 -1.48051e-20)
(1.1008 0.023463 1.22599e-20)
(1.10286 0.0238965 2.02027e-20)
(1.10175 0.0217771 -3.39533e-21)
(1.0715 0.0756626 6.86871e-21)
(1.07075 0.0750268 2.31226e-20)
(1.0707 0.0763999 -7.99883e-21)
(-0.318967 0.00721038 4.02156e-20)
(-0.339657 0.00840758 0)
(-0.329578 0.0110967 6.31658e-20)
(1.0359 -0.0173014 0)
(1.03679 -0.0172455 0)
(1.03655 -0.0181613 0)
(1.22015 0.065346 1.16532e-21)
(1.2228 0.0630364 1.40517e-20)
(1.21786 0.0674423 4.22053e-20)
(1.14199 0.0786298 2.44166e-20)
(1.13897 0.0765478 2.10097e-20)
(1.11725 0.0194999 1.1297e-20)
(1.11661 0.017122 -1.69106e-21)
(1.11451 0.0190881 -5.70685e-21)
(1.04632 -0.0920973 4.37296e-21)
(1.04288 -0.0926722 1.19291e-21)
(1.04443 -0.0889921 4.43247e-21)
(0.644658 -0.314187 0)
(0.494535 -0.248072 5.6516e-20)
(0.356134 -0.185736 0)
(1.00006 -0.000216076 1.23946e-22)
(1.0001 -0.000286259 -2.64224e-22)
(1.00006 -0.000181743 -3.54827e-23)
(1.14383 -0.0025794 2.11571e-20)
(1.12881 -0.00439672 -2.06404e-20)
(1.02572 0.0042791 -6.22133e-20)
(1.07678 0.0599214 -1.01353e-20)
(1.07628 0.0607917 5.99691e-21)
(1.07747 0.0608423 -1.4442e-20)
(1.08221 0.101845 0)
(1.07987 0.103605 0)
(1.07857 0.1022 -1.39186e-20)
(1.15399 0.106854 -2.42297e-20)
(1.16158 0.107851 -2.93853e-20)
(1.09828 0.10878 -2.41554e-20)
(0.485134 0.0639136 0)
(0.460014 0.0609591 -7.21391e-21)
(0.449797 0.0602485 0)
(1.02156 -0.0113986 -2.26981e-21)
(1.02122 -0.0118214 2.00614e-21)
(1.02091 -0.0111906 -3.2295e-22)
(-0.102918 -7.86248e-06 -1.81284e-19)
(-0.130547 0.00015646 -1.25483e-19)
(-0.0874102 -0.000120053 -5.17209e-20)
(1.0554 0.0173437 -4.30328e-21)
(1.05423 0.0168606 2.34233e-21)
(1.12842 0.0819883 -1.04132e-20)
(1.12586 0.0824676 1.98707e-20)
(1.12692 0.0794878 9.32944e-21)
(0.344782 0.0894351 0)
(0.332767 0.0881999 1.22441e-20)
(0.394164 0.0948393 -4.19154e-20)
(1.13929 -0.0800465 0)
(1.14051 -0.0760691 5.28472e-22)
(1.14301 -0.0806746 1.41307e-20)
(0.48856 0.060712 0)
(0.522295 0.0641658 4.71421e-21)
(0.498321 0.0600261 0)
(1.00002 -0.000140534 1.55242e-21)
(1.00006 -0.00025867 9.61862e-22)
(1.1933 -0.142324 -1.59423e-19)
(1.09132 -0.125778 8.24384e-21)
(1.06768 -0.11789 -9.07656e-20)
(-0.0552867 0.0248187 -8.93669e-22)
(-0.040172 0.0260133 -1.07937e-19)
(-0.00918583 0.0261488 -7.05804e-20)
(1.00797 -0.0393687 -7.1727e-22)
(1.00869 -0.0384358 1.08489e-21)
(1.00917 -0.0396846 9.24829e-22)
(0.139396 0.0649244 -6.77479e-21)
(0.187254 0.0704535 4.96804e-23)
(0.150578 0.0668832 -4.15174e-21)
(0.50956 0.0677867 7.54369e-21)
(0.520386 0.0676196 -3.92038e-21)
(-0.289423 0.00982782 5.6653e-20)
(-0.292236 0.00880618 -5.59344e-20)
(1.11208 -0.481311 -1.21026e-20)
(1.10172 -0.487698 -3.56587e-20)
(1.09816 -0.495086 5.62276e-20)
(0.5324 0.0751695 7.99195e-21)
(0.521153 0.0743905 -7.5501e-21)
(0.492005 0.0697329 -1.6477e-20)
(1.0163 -0.0229532 -1.70861e-21)
(1.01556 -0.0230622 -4.49531e-22)
(1.01579 -0.0221809 1.71037e-21)
(1.01895 0.000125496 2.11423e-22)
(1.01873 0.000132984 -4.13975e-21)
(1.08119 0.0798135 -8.14163e-21)
(1.08012 0.0804604 -5.88488e-21)
(1.08047 0.0788463 2.436e-21)
(1.05031 -0.0568503 1.16302e-20)
(1.04826 -0.0550558 1.12138e-20)
(1.05091 -0.0547694 -7.14807e-21)
(0.981783 -0.0206597 -1.19626e-20)
(0.980357 -0.0210506 0)
(-0.27747 0.0183101 1.35251e-20)
(-0.275698 0.0175136 6.98335e-20)
(-0.31454 0.0161399 7.46964e-20)
(0.973501 -0.0152563 0)
(0.974706 -0.015318 1.21942e-20)
(0.973939 -0.0165034 5.53085e-21)
(1.07226 0.0764167 1.34613e-20)
(1.07226 0.0750903 5.33995e-21)
(1.06969 0.0315452 -2.49056e-21)
(1.0707 0.0323449 -1.12185e-21)
(1.06938 0.0327684 -6.92563e-21)
(0.134604 0.0254431 2.12698e-21)
(0.153257 0.0304176 -2.86445e-20)
(0.127792 0.0253251 -1.70092e-20)
(1.00745 -0.0403353 4.43644e-22)
(1.00691 -0.0390032 -6.86724e-22)
(1.12923 0.0851525 -3.1968e-20)
(1.13126 0.0817596 -2.64279e-20)
(0.12506 0.0634615 3.90726e-20)
(0.097809 0.0571605 -2.85358e-20)
(1.06934 0.0940538 -1.64442e-20)
(1.06777 0.0946065 4.71394e-21)
(1.06897 0.095754 -1.7782e-20)
(-0.0932777 0.0268017 -1.28709e-20)
(-0.0810541 0.0275637 2.10346e-20)
(-0.0678578 0.0309556 -4.39499e-21)
(1.00139 -0.00853364 0)
(1.00151 -0.00844468 0)
(1.08553 0.100381 0)
(1.08639 0.101607 4.76809e-21)
(0.995683 -0.00408325 -7.4431e-21)
(0.995795 -0.00451292 -1.63617e-21)
(0.995281 -0.00454121 1.16702e-21)
(1.04946 -0.0584622 1.76961e-21)
(1.05193 -0.0579566 -5.21559e-21)
(0.8707 -0.467551 8.23681e-22)
(0.895545 -0.462471 1.79105e-22)
(0.878652 -0.445034 9.86279e-21)
(0.84393 -0.471923 -2.72307e-21)
(0.863578 -0.497203 -4.67779e-23)
(-0.106407 0.0224622 -2.77056e-20)
(-0.123218 0.0211373 -2.59387e-20)
(0.700806 -0.128281 -4.82869e-20)
(0.694469 -0.144719 2.43561e-20)
(1.02346 -0.0398012 1.83025e-21)
(1.02226 -0.0401391 -1.44538e-21)
(1.02266 -0.0387585 -1.76808e-21)
(-0.154241 -0.00238174 0)
(-0.183726 0.00100044 -4.56433e-20)
(-0.172148 1.17453e-05 3.22226e-20)
(-0.163463 0.0057614 1.4645e-20)
(-0.194553 0.00757276 -1.06321e-21)
(-0.165471 0.00438125 -6.8607e-20)
(1.12572 0.0246168 -1.53663e-20)
(1.12745 0.0229053 1.91114e-20)
(1.12841 0.0257185 1.26579e-20)
(0.995536 -0.0281871 -3.37896e-21)
(0.994687 -0.027895 1.8845e-21)
(0.994936 -0.0290417 -3.53266e-21)
(-0.0731969 0.0281204 -5.07763e-21)
(-0.104594 0.0214697 3.27802e-20)
(1.07767 0.0316693 -6.63618e-21)
(1.07752 0.0302933 -8.6471e-21)
(1.07888 0.0309966 7.21484e-22)
(1.02569 -0.075858 -3.1038e-21)
(1.02322 -0.074724 2.15128e-21)
(1.02535 -0.0729881 1.64034e-21)
(-0.301665 0.00699265 9.70679e-20)
(-0.286431 0.00739852 -6.90871e-20)
(1.02144 -0.00530753 -6.58388e-22)
(1.02131 -0.00567421 -3.29037e-21)
(1.02197 -0.00559784 -6.47172e-21)
(1.1528 0.000914163 8.70339e-20)
(1.24503 -0.00968669 3.77594e-22)
(1.00613 -0.0190827 -9.65312e-23)
(1.0059 -0.0184173 2.02881e-21)
(1.00557 -0.0188074 -1.87158e-22)
(1.02479 -0.0397398 3.91944e-21)
(1.02415 -0.0411935 1.53458e-21)
(1.28722 -0.0865503 -5.61511e-21)
(1.28768 -0.080796 5.7686e-21)
(1.29284 -0.0865762 2.64556e-21)
(1.13523 -0.079943 -1.95941e-20)
(1.13734 -0.0843857 0)
(0.0382978 0.0284844 -9.11879e-21)
(0.0490255 0.0292335 1.08661e-20)
(0.0620794 0.0344334 3.4209e-20)
(-0.0677046 0.0274427 -4.41685e-20)
(-0.0489131 0.0323736 -5.33044e-20)
(-0.145663 0.00294701 4.81207e-20)
(-0.137799 0.00274882 -1.46289e-20)
(-0.107151 0.000558182 0)
(1.04855 -0.0946952 0)
(1.04943 -0.0909996 1.98986e-21)
(0.277765 0.0244302 -2.67567e-21)
(0.251403 0.0199557 2.65806e-20)
(0.27861 0.0252166 7.67836e-21)
(0.992018 -0.0137987 2.77666e-21)
(0.992504 -0.0142109 -8.03453e-21)
(0.992554 -0.0133711 8.9141e-21)
(-0.0865167 -0.00127142 6.35832e-21)
(-0.123955 0.00183695 -1.94872e-19)
(0.971484 -0.0153215 0)
(0.97281 -0.0135372 1.42236e-20)
(1.0563 0.0170067 -9.27872e-21)
(1.05648 0.0180096 -3.96321e-21)
(-0.307343 0.0121777 0)
(-0.308501 0.0101873 -3.13955e-20)
(-0.155485 0.00280027 -1.04483e-21)
(-0.179931 0.00402411 -1.15373e-19)
(-0.0700328 0.0350071 4.53046e-21)
(-0.0864651 0.0307513 -1.16514e-19)
(-0.106372 0.0290243 3.38767e-20)
(1.10379 -0.458069 2.25524e-20)
(1.09475 -0.439043 -1.87197e-20)
(1.08162 -0.451709 2.01086e-20)
(1.01134 -0.0246146 -3.98165e-22)
(1.01064 -0.0246641 -5.06668e-23)
(1.01137 -0.0254449 -1.43893e-22)
(1.07601 0.0793325 -7.16073e-21)
(1.07496 0.0786213 6.23751e-21)
(1.07593 0.0780875 0)
(-0.219322 0.0210188 4.82887e-21)
(-0.217391 0.0200566 -4.61201e-20)
(-0.252698 0.016516 -2.09452e-21)
(1.23064 -0.19423 -3.34209e-22)
(1.23896 -0.194603 -3.95883e-21)
(1.23419 -0.202064 -4.42702e-20)
(1.077 0.0802528 3.09649e-21)
(1.07562 0.080813 -1.41702e-20)
(0.809748 -0.129257 4.61936e-20)
(0.807828 -0.118669 -4.41523e-20)
(0.818915 -0.123155 2.73949e-22)
(0.817502 -0.162466 1.18524e-20)
(0.815441 -0.150868 0)
(0.804518 -0.159281 1.32194e-20)
(0.990551 -0.0297602 -2.79179e-21)
(0.991557 -0.0300098 3.96762e-21)
(0.990795 -0.0311688 5.68368e-22)
(1.01911 -0.0220603 -2.5181e-21)
(1.01972 -0.0227894 6.17234e-22)
(1.0197 -0.021868 -7.08807e-22)
(1.13432 0.00748715 -4.99544e-21)
(1.1363 0.00569155 -5.06246e-20)
(1.13715 0.00926099 1.14128e-20)
(1.0185 -0.0212716 -3.86549e-21)
(1.0183 -0.0222609 2.66112e-21)
(-0.161842 0.00512532 8.76183e-20)
(-0.13059 0.0030936 2.14827e-19)
(1.05591 0.015995 -7.00252e-21)
(1.05722 0.016551 0)
(1.03509 -0.0174056 0)
(1.03531 -0.0165871 0)
(1.03377 -0.129742 2.50015e-21)
(1.03611 -0.134232 1.02432e-21)
(1.0306 -0.133305 -3.1647e-21)
(1.01703 -0.0229342 3.15468e-21)
(1.017 -0.0237994 3.21531e-22)
(1.23415 -0.00264109 -9.83399e-21)
(1.23286 0.00161305 4.00084e-20)
(1.23777 -0.000712227 3.02649e-21)
(1.17651 -0.0338152 1.10432e-22)
(1.17268 -0.0326229 -1.85863e-20)
(1.17347 -0.0367444 2.54999e-20)
(1.11085 0.0833926 3.61917e-21)
(1.10871 0.0834141 1.20152e-20)
(1.10992 0.0856089 4.11052e-20)
(1.06873 0.0306358 5.61073e-21)
(1.06994 0.0302424 4.7524e-21)
(1.01488 -0.00771838 -1.76721e-21)
(1.01469 -0.00797158 4.74898e-22)
(1.01525 -0.00803201 -1.42037e-21)
(1.01407 -0.00071046 5.10755e-22)
(1.01414 -0.00108868 -3.19496e-21)
(-0.230366 0.00214521 7.77852e-20)
(-0.210395 -0.00183181 8.34266e-20)
(-0.129569 -0.00508619 0)
(-0.117036 -0.00548077 0)
(1.12543 -0.364781 -7.94653e-21)
(1.11601 -0.375554 1.51202e-20)
(1.13167 -0.376622 5.42053e-22)
(1.03005 -0.0148487 1.22549e-21)
(1.02906 -0.0148816 -2.10213e-21)
(1.02936 -0.0141904 5.09111e-22)
(1.01749 -0.0401527 6.6756e-23)
(1.01859 -0.0407515 -1.0708e-23)
(1.01759 -0.0415869 7.36283e-22)
(0.0443504 0.0466374 6.03495e-21)
(0.0659468 0.0515315 2.64251e-20)
(0.0394963 0.0472856 -9.81169e-22)
(1.19222 0.07791 -1.53942e-21)
(1.19601 0.0769278 -1.34054e-22)
(1.19692 0.0811852 -4.92561e-20)
(0.604432 -0.209103 -1.83137e-20)
(0.627651 -0.201938 -2.66011e-20)
(0.62396 -0.231781 2.49685e-20)
(1.01216 -0.0247623 1.22382e-22)
(1.01147 -0.0238211 1.25801e-22)
(1.14537 -0.152716 0)
(1.14312 -0.146242 -2.02074e-20)
(1.13968 -0.152326 -1.26179e-20)
(0.206449 0.074878 1.83776e-20)
(0.166117 0.0696569 1.62163e-20)
(0.197071 0.0737911 -1.58748e-20)
(1.11248 0.0311938 2.1566e-20)
(1.11394 0.0331357 4.14691e-20)
(1.11433 0.0301167 2.31526e-20)
(1.03948 -0.0924476 -5.27806e-21)
(1.04109 -0.0957301 -7.84246e-21)
(1.10663 -0.0622649 -8.24667e-21)
(1.10773 -0.0586973 -8.38991e-21)
(1.10396 -0.0602797 1.59031e-21)
(1.3112 -0.162451 -1.10689e-19)
(1.29684 -0.151273 -5.17093e-20)
(0.365174 0.0904397 -1.19084e-20)
(0.309181 0.0852677 6.57151e-21)
(1.18341 -0.0942165 -3.26802e-20)
(1.18021 -0.0896004 3.34154e-20)
(-0.0716681 0.0312957 -7.17386e-22)
(-0.101137 0.030896 6.00336e-20)
(-0.111398 0.0296396 -2.2227e-20)
(0.71791 -0.126393 -2.75004e-20)
(-0.134954 0.00299979 -1.13941e-20)
(-0.164997 0.00479361 3.08239e-21)
(0.854635 -0.0975595 3.39605e-20)
(0.845273 -0.0962286 3.34773e-20)
(0.850227 -0.0889473 1.89933e-20)
(1.10879 0.0340655 -1.29693e-21)
(1.10672 0.0330955 1.18991e-20)
(1.10707 0.0354871 1.25195e-20)
(1.28709 -0.0932462 4.80125e-20)
(1.28147 -0.0873468 5.24585e-20)
(0.976234 -0.0484347 5.40835e-21)
(0.976261 -0.0463489 2.08732e-21)
(0.97809 -0.0470729 4.89075e-21)
(0.991463 -0.0134521 2.86126e-21)
(0.991403 -0.0143887 4.86017e-21)
(0.748026 -0.308727 2.01745e-20)
(0.73103 -0.323374 2.06424e-20)
(0.754725 -0.32679 2.92426e-20)
(1.14067 0.0400413 -5.35326e-23)
(1.06203 0.0409198 2.52526e-21)
(1.06047 0.044778 8.63599e-21)
(1.01193 -0.0724489 1.91327e-21)
(1.01173 -0.0745399 1.00292e-21)
(1.00946 -0.0735049 9.20633e-23)
(1.02153 -0.00494583 3.6461e-21)
(1.02094 -0.00507464 -1.35593e-21)
(-0.167249 0.0032519 1.50385e-20)
(0.309461 0.0485617 -1.33791e-22)
(0.310756 0.0510064 5.64377e-21)
(0.284389 0.0441298 -8.67609e-21)
(1.14892 -0.157459 -2.0753e-20)
(1.15119 -0.151489 0)
(1.07799 0.0798987 7.44734e-21)
(1.07777 0.0813523 1.03341e-21)
(1.23544 -0.00773284 -3.86096e-21)
(1.23006 -0.00512687 -3.06491e-20)
(1.18017 -0.0350232 -2.92744e-20)
(1.1793 -0.0308806 1.09459e-20)
(1.20919 0.0649981 -1.37194e-21)
(1.21207 0.0624774 2.67582e-21)
(1.208 0.061159 0)
(0.973483 -0.024678 -4.59375e-21)
(0.974216 -0.0260646 -4.49315e-21)
(0.972418 -0.0262219 1.1327e-21)
(0.984107 -0.0117848 2.28889e-21)
(0.983456 -0.0111474 6.75114e-21)
(0.984461 -0.0108419 3.66871e-22)
(1.00165 -0.00722868 8.37013e-22)
(1.00157 -0.00738177 2.4035e-21)
(1.00145 -0.00691494 1.47338e-21)
(-0.0685461 0.0234593 6.40282e-20)
(-0.0927836 0.0211754 7.32586e-20)
(1.1065 0.0295611 -2.36471e-20)
(1.10604 0.0315643 -2.12193e-20)
(1.10502 0.0298939 -1.15187e-20)
(1.05933 0.00747332 2.68567e-21)
(1.05982 0.00816866 -6.04745e-21)
(1.06049 0.00732773 1.51622e-20)
(1.00013 -0.000523558 -1.70418e-22)
(1.00014 -0.000459138 -8.30414e-23)
(1.0002 -0.000623968 -8.80807e-22)
(0.473766 0.0590836 8.90227e-21)
(0.466067 0.0604829 -1.00587e-20)
(0.502875 0.0636292 1.05872e-21)
(1.13278 0.0102578 0)
(1.13122 0.00656956 0)
(1.08249 0.0789889 0)
(1.08244 0.0807509 -1.31305e-20)
(0.0787852 0.0317834 1.88522e-20)
(0.0591308 0.0253408 1.36456e-20)
(0.402344 0.0749986 1.14677e-22)
(0.371933 0.0714597 6.9842e-21)
(0.409329 0.0736797 2.48341e-21)
(0.390018 0.0745503 -1.33583e-20)
(0.43744 0.0791999 1.34879e-20)
(-0.282337 0.01826 -6.66381e-20)
(-0.249796 0.0203732 -7.65214e-20)
(1.03685 -0.126166 -5.04695e-22)
(1.03181 -0.125352 -2.15026e-21)
(0.699231 0.0896871 -1.99747e-20)
(0.710678 0.0893242 2.20388e-21)
(0.626726 0.0852063 -1.53973e-20)
(1.00123 -0.00824024 1.34635e-21)
(1.00108 -0.00793258 6.68064e-23)
(1.00118 -0.00783154 1.40922e-21)
(1.01513 -0.00743309 0)
(1.01454 -0.00733513 0)
(1.15349 0.00695863 -3.54478e-20)
(1.155 0.00399464 -1.8609e-21)
(1.15146 0.00408409 1.39641e-20)
(1.00126 -0.000419399 1.61383e-22)
(1.00114 -0.000536418 2.43814e-22)
(1.00107 -0.000353169 1.5197e-22)
(-0.0586976 0.0368634 1.19109e-19)
(-0.0310441 0.0374597 5.71697e-20)
(1.10599 0.115383 1.65776e-20)
(1.1079 0.112605 -3.6186e-20)
(1.10357 0.11406 -3.15025e-20)
(1.08515 0.0853995 -1.31872e-20)
(1.0866 0.0862725 3.39e-21)
(1.08455 0.087097 -3.54141e-21)
(1.01538 -0.00718564 0)
(1.0157 -0.00752398 -2.13934e-21)
(1.07536 0.0327947 0)
(1.07657 0.0322211 1.25582e-21)
(1.07515 0.0315286 -7.08127e-21)
(1.0837 0.0846837 7.85264e-22)
(1.08518 0.0838399 -6.21374e-21)
(1.18876 0.0802744 -6.97931e-21)
(1.18908 0.0753212 -3.6513e-20)
(1.12807 -0.466882 -2.36154e-20)
(1.03945 -0.122368 -2.93015e-21)
(1.03733 -0.118226 1.25821e-21)
(1.04178 -0.118562 -1.30928e-21)
(1.11033 0.0328261 -3.75842e-20)
(1.11018 0.0299703 -2.25555e-20)
(-0.310167 0.00795119 0)
(-0.30688 0.00955286 0)
(0.328995 0.0528339 1.77685e-20)
(0.304571 0.0459729 -1.05874e-20)
(1.12356 0.0823965 -7.92982e-21)
(1.12457 0.0849318 -4.10065e-20)
(0.893881 -0.0711933 4.36444e-21)
(0.8895 -0.0671505 -3.03158e-20)
(0.888395 -0.0739101 1.36504e-20)
(0.977839 -0.027057 2.38746e-22)
(0.977286 -0.0258533 -7.69992e-21)
(0.978743 -0.0257893 -7.29165e-21)
(1.01969 -0.0158108 6.45065e-22)
(1.01978 -0.0164813 1.34234e-22)
(1.02049 -0.0160872 -5.1909e-21)
(1.2142 0.0338782 -2.63038e-21)
(1.21175 0.0408766 -2.62338e-21)
(1.10827 0.0288919 1.81277e-21)
(1.10649 0.0274114 -9.42447e-21)
(0.0382932 0.023574 -1.15545e-20)
(0.0287416 0.0213542 0)
(1.08606 -0.0283374 0)
(1.08853 -0.0293347 0)
(1.01202 -0.0700633 -5.39748e-23)
(1.01436 -0.0713423 3.76701e-22)
(1.07407 0.0779736 -8.46478e-21)
(1.07308 0.0771114 -6.84818e-21)
(1.07405 0.0764984 -2.77478e-20)
(1.12144 0.0819571 -1.24572e-22)
(1.12264 0.0796617 -1.42901e-20)
(1.0453 -0.00732401 8.73702e-21)
(1.04633 -0.00762699 1.96288e-21)
(1.04552 -0.00826007 5.66813e-21)
(1.04376 -0.0258478 8.32745e-22)
(1.04241 -0.0259643 -4.75859e-21)
(1.04295 -0.0248503 -4.90301e-21)
(0.701062 -0.158701 1.01307e-19)
(0.72201 -0.162536 4.8868e-21)
(0.710783 -0.176185 2.41714e-20)
(1.28745 -0.0989688 2.45649e-20)
(1.28697 -0.105555 -8.29317e-21)
(1.28132 -0.100227 2.59521e-20)
(-0.0385505 0.0417562 4.7228e-20)
(-0.0171001 0.043195 -1.23902e-20)
(-0.00193406 0.0446133 3.09769e-20)
(0.0960028 0.0612309 0)
(0.0823329 0.0596051 0)
(0.134985 0.0645064 0)
(1.09879 0.0228123 1.86323e-20)
(1.09954 0.0250268 8.2051e-21)
(0.935568 -0.724441 -3.31008e-20)
(0.932463 -0.777725 -3.51401e-20)
(0.984427 -0.776034 -4.0383e-20)
(-0.0701465 0.0400364 -6.56528e-21)
(-0.0550024 0.0410525 2.03358e-20)
(0.93737 -0.0258508 -7.25538e-21)
(0.939757 -0.0246496 0)
(0.937061 -0.0228306 -6.99303e-21)
(1.09711 0.0408411 -3.24084e-21)
(1.0984 0.0398627 -1.58908e-20)
(1.09661 0.0396548 -1.52253e-20)
(0.281923 0.063646 4.6649e-21)
(0.304654 0.06771 -1.77324e-20)
(0.268841 0.0625908 2.35414e-21)
(1.08074 -0.0399036 1.06859e-22)
(1.08215 -0.0411893 9.08785e-24)
(1.07968 -0.0417688 8.80247e-23)
(1.07009 0.0743744 -1.61866e-21)
(1.0693 0.0739456 -2.11014e-20)
(1.06933 0.0751507 -2.15884e-20)
(1.01669 -0.0398741 -9.42968e-22)
(1.01736 -0.0393021 2.20249e-22)
(1.29271 -0.0980263 4.41067e-20)
(1.00012 -0.0021757 1.94364e-21)
(1.00017 -0.00253833 0)
(1.00015 -0.00261164 0)
(1.14293 -0.0719606 -1.03945e-21)
(1.14479 -0.0688541 -3.21253e-21)
(1.14654 -0.0736781 -1.43861e-20)
(1.02797 -0.0814464 3.78636e-22)
(1.03056 -0.0817194 1.40237e-21)
(1.02913 -0.0841221 -1.63043e-21)
(0.982382 -0.0195775 -4.48258e-22)
(0.983123 -0.020327 -1.86787e-20)
(1.15262 0.0943802 3.42291e-20)
(1.15141 0.0972534 1.73997e-20)
(1.15456 0.0963429 6.03844e-22)
(1.04655 -0.0171659 -8.59337e-21)
(1.04541 -0.0166008 2.79194e-22)
(1.04662 -0.0159483 -4.68526e-21)
(0.177695 -0.549014 -4.7965e-20)
(0.133293 -0.59458 0)
(1.0151 -0.0067807 -1.42103e-21)
(1.01569 -0.00692735 1.97044e-21)
(1.1447 0.0777882 3.84815e-21)
(1.14755 0.0766491 -1.8389e-20)
(1.14464 0.0747899 8.74329e-22)
(0.0293276 0.0278805 -3.29272e-20)
(0.013016 0.0232695 -1.51687e-20)
(-0.0871116 0.0308484 -1.00142e-20)
(-0.0951302 0.0314105 8.38051e-20)
(-0.0521365 0.033191 -5.68974e-21)
(0.900165 -0.0800041 1.79461e-20)
(0.905454 -0.0783585 -2.76425e-20)
(0.90398 -0.0842968 -3.05571e-20)
(1.09572 0.0418787 1.14501e-20)
(1.09747 0.0421762 -4.92314e-21)
(1.00006 -0.0014395 3.43508e-21)
(1.00003 -0.00107829 1.84741e-21)
(1.00003 -0.00109693 -9.32427e-23)
(0.758129 -0.294621 0)
(0.737986 -0.288567 0)
(1.00214 -0.01442 7.56395e-22)
(1.00213 -0.0137928 1.84661e-21)
(1.00247 -0.014246 9.24714e-22)
(1.13894 -0.0709575 -2.07463e-20)
(-0.0182029 -0.0279132 -9.31371e-20)
(-0.08051 -0.0214861 0)
(-0.0586038 -0.0248395 0)
(0.897155 -0.0762915 7.89537e-21)
(0.898863 -0.069778 -2.44344e-20)
(1.07895 -0.0381539 0)
(1.08155 -0.0374334 -9.84688e-21)
(0.996542 -0.00223694 3.77575e-21)
(0.996185 -0.00255231 -1.75953e-22)
(0.0620337 0.0579123 2.65144e-20)
(0.104756 0.0608679 -2.04955e-20)
(1.02228 -0.0115157 1.76829e-23)
(1.02183 -0.0108781 4.70688e-22)
(0.833884 -0.394343 0)
(0.974031 -0.47623 0)
(0.0740131 0.0576645 1.96793e-20)
(0.0628585 0.0554648 -9.67216e-21)
(0.110222 0.0598715 2.07704e-20)
(1.22202 -0.193545 -3.58703e-20)
(1.22713 -0.186274 3.6779e-20)
(1.00013 -0.000584452 6.63795e-23)
(1.00007 -0.000420238 3.60468e-22)
(1.3051 -0.336541 0)
(1.32609 -0.333314 0)
(1.33213 -0.348446 0)
(-0.0601211 0.0269084 -1.77257e-21)
(-0.0509204 0.027029 3.7529e-20)
(-0.0345873 0.0331221 -8.56711e-21)
(0.576853 0.0796282 1.32041e-20)
(0.542506 0.0750146 2.30537e-20)
(1.07068 0.0739052 9.35752e-21)
(1.10916 -0.00171081 -4.49259e-21)
(1.10982 -0.00421663 1.83631e-20)
(1.10701 -0.00286218 3.13662e-20)
(0.720943 -0.358579 -4.4054e-21)
(0.714067 -0.338808 2.69359e-20)
(0.695759 -0.353971 -5.81184e-21)
(1.151 0.0924313 1.70644e-20)
(1.15402 0.0914599 -1.00706e-21)
(1.07543 0.03407 9.46538e-21)
(1.07407 0.0333451 0)
(1.10622 -0.42731 -3.98137e-20)
(1.08875 -0.423862 -2.10791e-21)
(1.05587 -0.135149 0)
(1.05093 -0.1353 -6.83432e-21)
(1.05343 -0.1311 0)
(0.209875 0.0257689 -1.55225e-20)
(0.189794 0.02306 -1.08641e-20)
(0.191534 0.0218184 -3.1389e-21)
(1.17961 0.0564633 1.13478e-20)
(1.17665 0.0592599 -4.68252e-20)
(1.17637 0.0543758 -4.18885e-20)
(1.01033 -0.00056341 -1.9808e-21)
(1.01089 -0.000798196 -1.61632e-21)
(1.01043 -0.00120565 2.42175e-21)
(1.08437 -0.00660755 -1.57002e-20)
(1.08233 -0.00652013 5.174e-21)
(1.0832 -0.00834483 7.34203e-21)
(1.07393 0.0792867 6.42959e-21)
(0.475203 0.0577184 9.53196e-21)
(0.447691 0.0566928 7.35504e-21)
(0.347844 0.0247046 2.83361e-21)
(0.367374 0.0281549 -3.36859e-21)
(0.356492 0.0249574 1.43562e-21)
(1.01903 -0.0155132 1.37357e-21)
(1.01964 -0.0152587 -1.25872e-21)
(0.585666 -0.222938 2.27036e-21)
(0.992937 -0.0145642 -3.78864e-21)
(0.9934 -0.0149052 3.13613e-21)
(0.993469 -0.0141284 6.53883e-21)
(1.12396 0.0973485 -1.46067e-20)
(1.1266 0.0972543 2.13192e-20)
(1.1251 0.0948828 1.13954e-20)
(1.19859 0.0739492 -9.37673e-21)
(1.20151 0.071821 7.83729e-22)
(1.19686 0.0709472 -5.88429e-22)
(1.08588 -0.00707894 -9.34298e-21)
(1.08514 -0.00568424 -7.89647e-21)
(1.13127 0.0121031 -4.12725e-21)
(1.13361 0.0134777 0)
(1.18271 0.0549509 5.03152e-20)
(1.18255 0.0595724 1.95463e-20)
(1.00036 -0.0261252 -3.10769e-21)
(1.00109 -0.026833 -3.67842e-21)
(1.00099 -0.0255912 3.21236e-22)
(0.812489 -0.13933 4.42892e-20)
(0.800469 -0.135123 4.42332e-20)
(1.08609 0.0766189 -3.54687e-21)
(1.08466 0.077503 6.07954e-21)
(1.08485 0.0756956 1.61232e-21)
(1.17452 0.115346 -1.82003e-20)
(1.17158 0.113893 4.63555e-20)
(1.19486 0.113993 6.25207e-20)
(0.998026 -0.00993726 0)
(0.998299 -0.00963229 0)
(0.998075 -0.00934708 0)
(0.982912 -0.0186442 1.20538e-20)
(0.981567 -0.0189018 1.50387e-20)
(0.895148 -0.081744 1.65307e-20)
(0.368283 0.0811185 0)
(0.380638 0.0814315 2.26079e-20)
(0.41646 0.0864138 0)
(-0.255563 0.00576152 -1.5915e-20)
(-0.281613 0.00817366 -1.32276e-20)
(-0.258443 0.00502062 1.25567e-19)
(1.11885 0.0256273 -1.55622e-21)
(1.11809 0.0239299 -9.76673e-21)
(1.12034 0.0241026 7.2361e-21)
(1.03093 -0.0148519 3.90029e-21)
(1.03064 -0.0155874 3.63766e-21)
(1.18643 0.08198 -5.09608e-21)
(1.19081 0.0841087 2.67579e-20)
(1.20656 0.0673675 -1.36352e-21)
(1.20384 0.0696959 7.33678e-22)
(1.2025 0.0662006 0)
(1.11598 0.079318 9.52594e-21)
(1.11332 0.079418 -2.66747e-20)
(1.11441 0.0772519 -1.68529e-20)
(1.12969 0.0146269 -1.03475e-20)
(1.12855 0.0112746 6.30561e-22)
(0.356367 0.0787802 -2.07137e-20)
(0.327967 0.0732332 -2.26005e-20)
(-0.185545 0.0220483 -1.76587e-20)
(-0.182206 0.0214401 3.56371e-20)
(-0.218273 0.0183974 3.15781e-20)
(1.08907 -0.0141343 0)
(1.08965 -0.0158672 0)
(1.09105 -0.0139619 0)
(1.09588 0.0189227 -2.15542e-20)
(1.09737 0.0196053 -5.49856e-21)
(1.09542 0.020533 2.61015e-21)
(1.12414 -0.167121 -1.7816e-21)
(1.09044 -0.155722 -9.54368e-22)
(0.939707 -0.124408 3.2547e-20)
(1.02148 -0.0205897 0)
(1.02201 -0.0213915 -1.72948e-21)
(1.0208 -0.0210208 -2.71449e-21)
(1.00171 -0.00702047 -1.65733e-21)
(1.00176 -0.00683361 -8.38835e-22)
(1.00155 -0.00656908 8.37362e-22)
(1.11815 0.0794835 2.18913e-20)
(1.11673 0.0816901 -4.244e-21)
(1.16291 -0.114272 1.04383e-21)
(1.16059 -0.109562 -2.04349e-21)
(1.15732 -0.114072 -1.87623e-21)
(1.02301 -0.011498 -9.07239e-22)
(1.02365 -0.011525 1.32614e-21)
(1.02317 -0.0110105 -5.88419e-21)
(1.00022 -0.00252002 -2.60524e-22)
(1.00018 -0.00252705 -2.39223e-21)
(1.00013 -0.00215154 -3.45438e-21)
(1.00214 -0.0148679 -2.38172e-21)
(1.00186 -0.0144403 -2.09513e-21)
(1.00433 -0.000735051 0)
(1.00463 -0.000756681 3.69492e-22)
(1.00432 -0.000438956 -5.80463e-23)
(1.10269 0.00556802 -3.23056e-20)
(1.10491 0.00571384 -9.10524e-21)
(1.1037 0.00773521 9.8177e-21)
(1.00186 -0.00751616 -7.16376e-23)
(0.292662 0.0639711 7.14406e-21)
(0.326931 0.0685216 -7.69996e-22)
(1.11956 0.0200239 8.01969e-21)
(1.11728 0.0216083 -9.94281e-21)
(1.0137 -0.0326586 -5.20333e-22)
(1.0129 -0.0327081 -3.1092e-22)
(1.01365 -0.0334749 -2.03519e-22)
(0.459498 0.0535503 0)
(0.0428946 0.0463328 -2.03209e-21)
(0.0235411 0.0433811 -5.0096e-21)
(0.974793 -0.0206193 -6.28254e-21)
(0.97537 -0.0219123 7.42079e-23)
(0.97626 -0.0207223 -7.49115e-21)
(1.14472 0.081023 1.96088e-20)
(-0.250999 0.0190585 6.20747e-21)
(-0.286989 0.0168963 4.82153e-20)
(-0.248981 0.0185957 -2.64079e-20)
(0.974447 -0.0497622 3.9787e-21)
(0.976748 -0.05047 -2.82204e-21)
(0.973936 -0.0192917 -1.06835e-21)
(0.972874 -0.0209195 1.53281e-20)
(1.12183 0.0195281 1.6549e-20)
(1.12151 0.0222735 1.56723e-20)
(0.00839137 0.0247213 -1.8555e-22)
(0.00244075 0.0256999 2.43916e-20)
(0.0272811 0.0304607 0)
(0.202927 -0.000711516 4.79521e-20)
(0.140248 0.001669 7.9448e-20)
(0.191327 -0.00240772 1.24806e-19)
(1.15174 0.0203846 0)
(1.15512 0.0205291 -1.92193e-20)
(1.15309 0.0177936 1.49052e-20)
(1.00255 -0.000549864 -1.03408e-22)
(1.00244 -0.000783558 -1.37237e-22)
(0.695112 0.0902785 -3.22228e-20)
(0.773024 0.0926677 2.15362e-20)
(1.00127 -0.00866184 0)
(1.15833 0.0206868 1.02049e-20)
(1.16019 0.0177957 4.81468e-20)
(1.16208 0.0212217 2.83352e-20)
(-0.2562 0.0191065 -9.40557e-20)
(-0.223882 0.022949 1.90783e-20)
(1.17568 0.118666 -2.26925e-20)
(1.17668 0.11731 -1.37678e-20)
(1.19071 0.117054 2.89587e-20)
(1.05878 0.00638137 8.29462e-21)
(1.05805 0.00724704 -9.02484e-22)
(1.15565 -0.183565 6.51727e-20)
(1.25664 -0.208509 1.65994e-22)
(1.34668 -0.177809 1.28695e-22)
(1.3467 -0.172742 1.16578e-20)
(1.34523 -0.181496 -1.18132e-20)
(-0.143064 0.00580692 0)
(-0.134121 0.00640754 -8.87924e-20)
(-0.104897 0.00481552 0)
(1.23661 -0.0119479 2.27287e-21)
(1.23284 -0.0148263 -1.15926e-22)
(1.23786 -0.0165752 2.38963e-21)
(0.785676 -0.108524 -2.78633e-22)
(0.785848 -0.096994 -1.02293e-20)
(0.773507 -0.101824 6.2669e-21)
(-0.0432038 0.0321046 -1.57131e-20)
(-0.0315643 0.0337021 -3.5265e-22)
(0.0886383 0.0569923 -1.81509e-21)
(0.111546 0.0610153 -2.98036e-20)
(0.0811248 0.0561755 2.27871e-20)
(1.1894 0.105411 0)
(1.13936 0.104392 -4.74187e-20)
(1.04509 -0.0258428 1.26421e-20)
(1.04449 -0.0271128 4.96204e-21)
(-0.289547 0.00842814 -1.29326e-22)
(-0.265464 0.00655716 5.67104e-20)
(-0.256741 0.00705581 -5.41e-20)
(0.193851 0.0168892 -1.03201e-20)
(0.197599 0.0163618 1.1288e-20)
(0.477775 -0.464192 -4.29855e-20)
(0.445127 -0.437145 -9.81399e-20)
(0.445961 -0.485184 -7.50015e-20)
(0.507174 -0.443984 2.90495e-20)
(0.516599 -0.486005 2.56669e-20)
(0.935376 -0.0273174 -5.25027e-21)
(0.936856 -0.0283066 7.97739e-21)
(1.157 0.0123922 -3.65385e-20)
(1.15531 0.00975531 -5.59515e-20)
(1.15887 0.00989815 1.59666e-22)
(0.948376 -0.122893 -1.81096e-20)
(0.951757 -0.118205 0)
(0.954546 -0.124063 -3.58452e-21)
(0.293072 0.0276815 -3.67776e-21)
(0.272208 0.0223956 -7.74344e-21)
(0.792928 -0.15603 -5.98216e-21)
(0.790409 -0.142916 -1.80512e-20)
(0.777593 -0.152852 -1.81528e-20)
(1.00833 -0.00176482 -5.91079e-22)
(1.0083 -0.00209731 5.97423e-22)
(1.00868 -0.00196289 -9.5884e-22)
(1.019 6.4013e-05 -4.95986e-21)
(1.01891 5.32605e-05 -2.5748e-21)
(1.07522 -0.077996 -1.89346e-20)
(1.07839 -0.0784355 -4.62225e-21)
(1.0758 -0.0808243 1.5555e-20)
(-0.175901 0.00374352 0)
(-0.15296 0.00515129 -4.48005e-20)
(0.243194 -0.578513 -1.66335e-20)
(1.02205 -0.0201469 1.7369e-21)
(1.02098 -0.0199046 -2.45197e-21)
(-0.118612 0.0308005 -1.09937e-19)
(0.937175 -0.120328 1.05444e-20)
(0.943261 -0.122069 -1.90733e-20)
(0.940736 -0.116089 -1.3174e-20)
(1.1058 -0.0649927 2.7146e-20)
(1.10916 -0.0633722 1.82282e-20)
(1.06066 0.00898712 1.2655e-22)
(1.05951 0.00902342 -2.40087e-21)
(0.00968667 0.0235705 -8.54636e-24)
(-0.0120837 0.0224685 -1.60554e-22)
(1.18289 0.0840703 3.74929e-21)
(1.18361 0.0795583 8.88445e-21)
(1.07216 0.0778394 5.2166e-21)
(1.02685 -0.0784408 -3.51503e-21)
(1.02507 -0.0805494 4.11197e-22)
(1.07731 -0.0368871 0)
(1.07667 -0.0388495 0)
(0.560198 0.0587765 -5.37788e-21)
(0.565598 0.0577075 -9.50216e-21)
(0.53729 0.0555883 6.73574e-21)
(0.977096 -0.0284884 8.08005e-21)
(0.978664 -0.0282441 -8.59402e-21)
(1.21112 0.0686266 -6.52489e-23)
(1.08701 -0.0140416 -3.73746e-21)
(1.08839 -0.0120119 0)
(1.12219 0.0171243 -1.38319e-20)
(1.12429 0.0195578 7.78176e-21)
(0.934266 -0.125518 8.70148e-21)
(0.930872 -0.118979 1.63902e-20)
(0.992403 -0.0150351 -1.34996e-20)
(1.01493 -0.0328171 -9.16675e-23)
(1.01403 -0.0317333 -7.67128e-23)
(1.24561 -0.0799432 -9.64754e-21)
(1.24654 -0.0852902 -9.41605e-21)
(1.25198 -0.0797815 1.17253e-20)
(1.2475 -0.195747 -8.08492e-20)
(1.24331 -0.187851 2.498e-20)
(1.17445 0.0611111 -7.46532e-21)
(1.17162 0.0630468 2.87287e-20)
(1.1716 0.0587605 4.62005e-22)
(1.32018 -0.175484 -9.03078e-22)
(0.55076 0.0585526 -2.49596e-21)