/*--------------------------------*- C++ -*----------------------------------*\
| =========                 |                                                 |
| \\      /  F ield         | OpenFOAM: The Open Source CFD Toolbox           |
|  \\    /   O peration     | Version:  v2012                                 |
|   \\  /    A nd           | Website:  www.openfoam.com                      |
|    \\/     M anipulation  |                                                 |
\*---------------------------------------------------------------------------*/
FoamFile
{
    version     2.0;
    format      ascii;
    class       volScalarField;
    location    "150";
    object      ddt0(k);
}
// * * * * * * * * * * * * * * * * * * * * * * * * * * * * * * * * * * * * * //

dimensions      [0 2 -3 0 0 0 0];


internalField   nonuniform List<scalar> 
13917
(
-0.00114339
-1.73691e-06
2.84254e-05
-4.169e-08
-5.57543e-06
-1.56586e-06
-2.16493e-08
-1.81957e-05
-7.5008e-08
-0.000773591
-1.3605e-05
-2.3257e-08
-5.43562e-08
0.00233945
1.9865e-06
-0.000963076
-1.14756e-07
-5.95134e-06
-2.0877e-06
-0.0011534
-1.95719e-06
-6.20338e-08
-4.70793e-07
-5.4556e-08
-1.03371e-07
-2.40079e-06
-3.63714e-05
-0.000800149
-4.27878e-06
2.29227e-08
-0.000494402
-6.32924e-08
-5.11615e-08
-0.00157629
2.1482e-07
-2.71406e-05
-1.55058e-07
1.19215e-07
-3.01754e-08
1.29075e-06
-2.15612e-07
7.99254e-07
-7.59529e-08
-7.99374e-07
-9.41867e-07
-5.21994e-05
-1.70604e-06
0.00447694
-0.00353036
2.06238e-07
-1.94792e-08
-3.34105e-06
-0.0004291
-1.6777e-08
-1.0726e-08
-3.0494e-06
-0.000167526
-4.99955e-07
5.87561e-07
-5.6366e-05
0.000194812
5.78419e-05
-1.17908e-07
-9.25703e-08
0.000809846
0.000232004
-6.65209e-06
-2.42058e-05
-1.11813e-05
-0.00101325
0.00132678
-0.001487
-7.25377e-08
3.61329e-07
-2.13991e-06
-2.02652e-07
-1.4796e-06
2.44834e-07
-1.70759e-07
-5.23805e-08
6.1345e-08
-9.83928e-08
-7.83014e-08
-0.00237646
-5.77368e-08
-8.13013e-05
-9.7294e-08
-4.02771e-08
8.25962e-07
-1.44777e-07
-5.74026e-08
-7.81068e-08
0.0081363
2.23364e-08
5.34599e-08
-4.46615e-06
0.0193059
-2.1428e-08
-4.40552e-08
7.15165e-05
-2.61877e-07
-2.20366e-07
1.14509e-07
-2.8183e-09
-1.27519e-06
-0.0114845
-0.00112581
1.52664e-05
2.53051e-07
0.00206501
-8.01047e-08
-0.0016024
-4.62235e-06
0.0035109
0.000922219
-2.61632e-07
-2.3175e-06
-1.06865e-07
1.72464e-06
-5.8584e-08
-1.04286e-07
1.03456e-07
-2.90103e-06
-2.33265e-06
-0.000794491
-0.00170096
-7.71344e-08
-2.37762e-06
3.99518e-08
-2.35003e-06
-9.90358e-08
-3.124e-05
-0.00259724
-2.58713e-07
-9.99878e-08
0.00190945
-0.00116057
-0.000153584
-2.77519e-06
1.13015e-07
0.0058852
9.36328e-08
-0.0113564
3.24517e-08
-9.31802e-08
-7.49963e-06
0.00109649
0.00853285
0.00593665
-1.24851e-08
-2.66259e-07
-2.22105e-07
-9.66984e-08
-5.32352e-08
0.0137767
3.90314e-07
-4.10016e-09
-0.00250515
-2.11512e-07
-1.45835e-07
-3.10825e-08
0.00298251
-1.15391e-07
0.00451551
-0.00145374
0.00263685
-0.000237981
-0.0113292
-2.27189e-08
-3.17021e-06
-9.82006e-08
-0.00196906
-7.73841e-08
0.00263465
-6.26728e-07
-2.0907e-07
-4.15511e-08
-3.69745e-06
-9.94068e-08
-1.70062e-07
-6.52762e-08
-5.01024e-08
-1.69696e-08
-1.77154e-05
1.40029e-06
-3.6066e-05
-1.06948e-08
-1.93797e-06
9.18824e-08
4.72869e-05
-2.3654e-07
-1.1933e-06
-4.59969e-06
-0.00114492
4.07257e-08
-0.000884935
-9.52082e-08
-0.00347951
1.56691e-07
2.45842e-07
-1.29659e-06
-0.00103783
-0.000133029
3.38593e-08
-0.013624
-1.86259e-06
1.17937e-07
1.11707e-07
-3.9609e-06
5.05196e-08
4.38305e-08
-7.51048e-06
-2.05771e-05
0.00643514
-2.36986e-08
-2.69693e-06
0.000635644
6.12545e-08
-3.77647e-08
-3.83427e-08
-0.0142541
-1.48095e-06
-0.000115913
-5.82402e-08
-1.35959e-07
-0.000557242
-0.000768366
-4.46768e-08
-4.07279e-08
-1.99139e-07
-4.06053e-08
-4.13696e-08
-0.00140772
-0.00432104
-1.13704e-07
-4.21253e-08
-1.41165e-06
-0.00138982
-2.00792e-07
-5.88849e-08
-0.00588116
-0.0113738
4.27623e-06
0.000394056
-2.23002e-06
3.57946e-08
-0.00673851
-1.71878e-06
-3.52281e-06
-1.33138e-06
3.27759e-08
-6.06873e-05
-6.78752e-08
1.08851e-06
-1.93962e-07
-1.55784e-07
-1.70394e-07
-8.4431e-08
7.48194e-07
-8.68226e-08
-0.000993189
-0.0223568
9.78295e-08
-3.14099e-08
3.09841e-07
-2.84047e-08
-6.1838e-08
-4.67744e-08
-2.39072e-08
1.42695e-07
5.7906e-05
-0.000440318
1.39624e-08
6.82564e-08
-9.57629e-05
1.11241e-08
1.99743e-05
-0.00106471
1.59783e-08
-0.00119976
-1.10583e-07
0.00326878
-2.11981e-07
1.96815e-06
-1.81689e-07
9.89763e-09
-2.3351e-06
5.65712e-08
0.00486693
-8.83891e-08
-0.0147809
-1.65367e-05
-0.0274122
6.80421e-05
-1.356e-07
-6.31668e-07
-2.52385e-07
-2.92493e-07
-3.87292e-06
-1.60452e-07
2.24624e-08
4.81381e-08
-3.17717e-06
4.95032e-06
1.0083e-06
-1.45396e-07
-5.38374e-08
-0.00272156
-0.000865366
5.48025e-08
-2.87386e-07
-3.10345e-07
-0.00202606
3.42056e-06
-0.000392971
0.00326049
-1.2287e-05
-1.04871e-05
6.64729e-07
-0.00201196
-0.00184836
4.4185e-05
-5.35342e-08
2.32658e-06
-0.00357722
1.55965e-08
-2.49708e-07
-1.33996e-06
-1.3974e-07
-0.00193454
-6.01257e-08
3.71041e-08
-2.33859e-07
-0.000550973
-7.64474e-09
7.44867e-07
-2.1458e-06
-9.5878e-05
-1.52761e-07
-1.08682e-06
-0.0111598
2.50665e-08
3.2116e-08
-0.00166732
-0.0115593
0.00564513
0.00132839
1.84023e-08
-6.36678e-08
-0.0111258
-1.2809e-05
2.04035e-08
-1.31869e-06
-1.19361e-08
-2.99954e-06
7.59188e-07
-2.92527e-06
-8.76481e-07
2.05391e-05
-2.46222e-08
-0.00136529
3.06028e-08
2.33648e-08
1.22597e-06
-4.02455e-07
-1.78899e-07
-0.00103563
4.05529e-09
-0.000485941
-1.2155e-08
-3.42112e-06
2.79156e-06
0.011875
-1.68422e-07
-9.44109e-05
-0.000131353
-2.78263e-06
8.54195e-09
0.00344303
-8.95465e-08
-0.00157852
-1.59033e-06
-2.42277e-07
0.011606
-3.29382e-07
0.000946513
5.43565e-08
-0.00126129
0.000881286
-1.62968e-07
-0.000201995
1.48967e-05
6.90633e-08
0.0026436
-6.52446e-06
-1.32566e-07
-2.8287e-06
-3.0697e-08
1.62503e-05
2.28855e-05
-5.54088e-08
-4.86735e-08
-1.3272e-07
1.04103e-08
-3.86511e-08
1.53819e-08
-0.00425008
0.00013207
1.00877e-08
-8.78746e-09
-6.77397e-09
-4.55257e-07
-0.000141927
-4.80763e-08
-2.32501e-08
2.6619e-06
-2.44897e-06
1.29222e-08
-1.55096e-07
0.00592683
0.00712405
-2.00932e-05
-1.89673e-06
-0.0028243
8.05548e-09
-6.03018e-08
-1.52426e-06
-3.8937e-08
-3.78408e-08
-1.41316e-07
-3.0548e-08
-2.80034e-08
-0.0100507
-2.26028e-08
2.59987e-06
-2.48087e-05
-5.99519e-07
4.78327e-08
-9.83356e-08
0.0031993
-1.29216e-06
-0.000664006
-6.53922e-08
-2.9765e-08
-3.19419e-08
-3.85644e-08
-1.34205e-07
-4.41625e-07
0.00620121
-5.16947e-05
-0.0118762
-2.66802e-08
-1.56037e-07
5.79171e-06
-6.6311e-09
-2.01364e-06
0.00574743
-7.16858e-09
-0.0075213
5.69214e-08
-2.03942e-08
-3.58871e-09
-3.29698e-07
2.43387e-08
-8.73371e-09
-0.00246432
0.00135779
1.90728e-08
-0.0245922
1.86648e-06
-6.15487e-08
-7.47207e-07
1.08573e-06
0.00101833
-6.34517e-08
-0.0115039
0.000148309
0.000324183
-4.82858e-07
0.000103164
1.44378e-05
5.5268e-08
0.00544424
-7.32939e-08
-2.78414e-08
4.94126e-08
-6.11402e-08
-1.804e-06
1.00189e-06
-6.17713e-07
1.12869e-05
-3.75986e-07
-1.20213e-05
3.53161e-06
1.14792e-08
0.00422272
-1.1963e-07
-2.89066e-08
-0.000415175
-6.46541e-08
3.70199e-06
-3.7677e-06
-2.50079e-08
-0.00124096
-1.61318e-08
-3.5638e-08
-4.17336e-07
-1.05776e-07
4.11603e-08
-2.5904e-06
-0.0027753
-0.00720922
-3.67215e-08
-4.01427e-08
-1.22096e-05
0.00407801
0.000822354
2.17641e-09
-1.00655e-08
-3.47864e-08
-1.25823e-07
0.00190067
3.29149e-08
-1.76822e-07
2.94881e-07
1.04479e-08
-2.31111e-06
5.64175e-08
-1.08617e-07
-6.75653e-07
-2.54787e-08
-3.6437e-08
-1.22595e-07
-0.000911544
-4.06707e-09
-2.92469e-08
-4.10583e-09
-1.42078e-07
-1.33292e-06
-4.24359e-06
-4.15102e-07
8.11311e-05
-1.20745e-07
-4.70619e-06
-0.00392799
-0.00954074
-8.38512e-05
4.47011e-08
3.32179e-08
1.20094e-05
5.79474e-09
0.000476591
8.24959e-09
-0.00350541
-6.59923e-08
-0.00335977
1.79552e-05
-6.99948e-08
0.000136588
9.4263e-09
5.68971e-07
-2.91813e-08
-1.38843e-06
-0.0027464
-1.36799e-07
8.07483e-06
-1.92523e-07
-6.05197e-08
2.76678e-08
8.31519e-07
-3.74859e-06
-1.87108e-08
-2.12294e-07
-7.08993e-07
-0.00541536
0.000950389
-0.00355396
0.000358751
-5.04151e-09
-0.00090416
-7.87729e-08
0.000521432
0.00605415
-4.79932e-07
1.19016e-05
-2.45421e-07
-1.05944e-07
-6.66941e-08
-1.2368e-07
-2.26035e-08
-3.14791e-08
0.000758791
-5.38212e-08
-6.50438e-09
-3.35049e-08
-1.9161e-08
-2.21675e-07
1.71283e-05
0.00456021
0.00133938
-1.18692e-06
5.20996e-08
0.00170045
-0.00143252
5.25088e-08
0.00616417
-3.31114e-08
2.23192e-06
5.70703e-09
0.00212287
-2.3927e-09
-2.22871e-06
-9.05636e-08
-0.00682778
-1.00919e-07
0.000847203
-8.00276e-08
1.05216e-08
1.32405e-07
-2.47633e-07
-0.00136932
0.00444731
1.96677e-07
-3.66483e-06
-5.55855e-08
-3.20042e-07
-2.24738e-07
-0.00141092
-5.30933e-08
1.61192e-07
-2.41853e-09
1.69926e-07
-4.6308e-07
-2.21566e-07
-3.39603e-06
-7.63076e-08
-1.27606e-08
-0.000194856
2.54061e-08
-1.55062e-09
-1.02759e-06
-4.37142e-07
1.76129e-06
-6.89159e-06
5.02325e-09
2.21243e-06
-0.00103362
-1.30492e-06
-1.22257e-06
-2.00796e-07
6.41714e-07
-8.56487e-08
9.55913e-09
-0.0011595
-1.55075e-06
-1.83673e-07
-0.00217265
-1.23158e-07
0.000469119
0.00116923
9.95579e-05
4.60684e-07
-4.34515e-06
-0.00126434
2.50385e-08
-1.4386e-06
-0.00118194
-1.42731e-08
-6.40693e-08
-2.32051e-07
9.99424e-07
-1.26759e-09
-0.000979824
-5.26519e-08
-3.61261e-09
-1.21175e-06
-6.95763e-08
-0.000120825
-1.44404e-07
4.73044e-08
-0.00198845
-1.17671e-06
-0.00211994
-6.29512e-08
2.93255e-06
5.8075e-08
-4.78999e-08
-3.14666e-08
-1.42371e-08
-0.000466439
1.24894e-07
-0.00334742
-0.00138758
-4.97276e-06
-0.00384507
-3.95738e-08
-6.01965e-09
1.32919e-07
-0.00115505
-0.00304038
-7.6428e-08
-0.000705868
0.00427038
-4.6508e-09
5.45226e-08
-9.29264e-08
-0.0112076
-0.000495032
-3.68935e-08
-4.70806e-08
-2.91704e-08
2.55977e-06
4.47251e-07
-3.23473e-06
-6.83444e-08
6.29673e-08
-5.70426e-08
-5.81549e-09
-2.5476e-08
8.21465e-08
1.04366e-05
-3.55911e-07
-2.44922e-06
-0.000581934
2.20466e-06
0.000331047
-1.49878e-07
-4.59901e-07
-3.72275e-08
1.25621e-06
-1.11106e-07
4.87612e-07
0.00462429
0.00111967
5.31908e-09
-3.8868e-07
7.60846e-08
-1.12016e-08
-8.58773e-08
-1.95637e-07
-2.84554e-05
1.05868e-05
-3.43482e-06
-6.33652e-09
5.81616e-06
-7.18894e-08
-5.51319e-08
-3.68586e-06
-6.07003e-08
5.92128e-07
0.0156783
-9.24562e-09
-1.16129e-06
-8.46401e-07
-6.83843e-08
4.48104e-08
3.84937e-08
1.22072e-08
-0.00086101
-4.96988e-08
-2.45335e-07
2.89946e-08
-8.97001e-09
5.88597e-08
-2.78886e-06
0.0159613
1.46115e-05
0.00311258
-3.17979e-06
-0.010534
-8.23318e-08
-1.42898e-06
0.000801313
-2.21502e-06
-0.000298906
-1.44757e-07
-5.56251e-08
-6.2568e-08
-4.29747e-07
-3.25076e-06
4.77539e-08
0.0005206
2.56593e-07
0.00154534
-1.69183e-07
-6.28915e-08
-1.93193e-07
-1.39239e-06
2.08708e-06
0.00397531
1.02085e-05
-1.47429e-07
-0.00063547
-6.4034e-08
-0.00100238
-7.23495e-08
1.26281e-05
2.32897e-08
2.5708e-08
-4.05477e-09
-0.00162665
-1.10253e-08
-1.11211e-05
0.00595025
-1.51974e-08
-8.42055e-08
-3.7907e-08
1.09445e-05
0.00223975
-4.17514e-08
-0.00660458
-3.46364e-08
6.90522e-05
-2.41207e-06
-0.00655184
2.53164e-08
-4.4101e-08
-1.76393e-06
-4.28846e-09
-2.52036e-08
-1.18955e-07
4.94875e-08
6.329e-09
2.8456e-08
4.69328e-05
6.62604e-08
-0.00112112
-0.000898911
6.58368e-05
-0.0115908
-0.00740391
-0.000988718
-0.0091986
-9.81247e-09
2.5097e-08
-3.049e-08
-7.9614e-08
-3.3379e-08
-1.84017e-08
-4.54546e-08
-7.54853e-05
-1.95432e-08
-0.00263841
-4.44722e-08
-7.44681e-08
3.47608e-07
5.57533e-08
2.4399e-06
-6.60144e-08
-5.10578e-07
-5.26647e-09
-3.70311e-08
-0.00495425
-1.77097e-06
-0.00225568
5.51386e-08
-5.96649e-08
-3.17689e-08
3.14605e-07
-0.000357293
-5.30108e-09
0.0014234
3.449e-09
-1.51625e-05
1.47308e-06
3.18634e-08
5.56179e-07
9.95588e-05
-2.2066e-09
-0.000564339
0.00560833
1.41911e-07
-1.26306e-06
-1.02447e-08
4.90184e-05
-1.55331e-06
3.02642e-07
-0.00128994
-6.10253e-08
-4.25656e-08
-1.29953e-06
-0.00125597
-6.82138e-08
-0.00430216
0.00215429
-2.53408e-08
-6.56229e-07
4.78093e-08
-0.0022819
-6.63767e-08
2.10347e-08
-2.54831e-08
-0.00144118
2.01497e-06
-0.0058495
-1.35066e-08
3.01294e-08
0.000730512
1.39919e-08
1.7146e-06
-0.00511828
-5.39984e-08
-3.39084e-08
-0.00842456
-1.60483e-07
-4.76373e-07
-1.52073e-06
-1.22426e-07
0.000427566
2.06492e-06
9.89461e-07
-5.52613e-06
-2.74765e-08
-0.00136431
1.0007e-07
-1.36084e-06
-3.80364e-08
-0.000451192
-6.50027e-05
-5.52699e-08
-1.69421e-06
-5.20999e-07
-1.85472e-09
2.43467e-08
2.8719e-08
9.57427e-08
-1.41047e-08
8.58396e-08
-9.36629e-09
-4.67256e-08
-4.4621e-07
-0.00269531
0.0035237
-1.06525e-06
-3.52396e-08
0.000669732
-3.84385e-08
0.00071618
0.00299479
3.06024e-05
6.47056e-10
-7.88155e-09
-5.49753e-08
-4.12913e-08
2.52635e-09
-1.24546e-07
-6.42798e-08
4.38711e-07
-3.60451e-08
-0.000396481
-0.0101579
-2.83204e-08
-0.00166753
-4.27693e-08
7.3342e-09
-4.03529e-06
-0.00136497
4.55048e-06
-1.94419e-07
-0.00253136
1.2554e-07
-2.93664e-09
-0.00016176
-2.61651e-07
0.0173856
-4.14525e-08
0.0021575
5.28978e-08
1.22761e-07
-1.26358e-06
-0.00683356
-1.06547e-07
-0.00153434
2.17498e-05
7.7685e-08
-9.09778e-07
-6.18261e-08
3.25551e-08
4.50369e-07
-5.40969e-08
-1.8629e-07
-0.00120811
-0.0016448
-0.0063397
8.9102e-07
9.75859e-08
-0.000712898
1.02071e-07
0.004035
-3.84065e-07
-5.38647e-08
-9.64857e-08
-0.0168541
-0.00855686
-0.00449785
-1.72143e-06
-0.00154212
-9.69855e-08
-4.77893e-08
-3.52054e-08
6.74436e-08
-1.74168e-08
2.00625e-05
-0.00119223
1.24712e-07
-8.5976e-08
-0.00135193
-1.74044e-07
1.14715e-08
-0.00579504
0.000793094
-6.66487e-08
-9.22557e-08
-1.64539e-08
-9.93567e-08
1.94908e-08
-3.98912e-07
2.6014e-07
-4.09768e-08
-0.00421933
-2.43399e-06
-0.00253424
0.00288642
2.10371e-05
-0.000699139
-5.59788e-08
-4.28661e-08
0.000494234
-0.0012629
0.00123053
1.03531e-05
-1.64231e-06
-5.93191e-08
-4.23243e-08
1.50192e-06
0.00394906
-2.46139e-05
1.38437e-07
-4.85979e-07
2.45232e-08
0.00109518
-1.52006e-06
1.67007e-06
5.23362e-07
-9.28783e-05
6.83901e-05
0.00627912
-0.0016633
1.09731e-07
-8.19534e-05
1.08776e-08
-1.72736e-07
-1.51542e-06
0.0022146
-2.50374e-08
-1.57597e-06
-6.28639e-08
0.000892655
1.58043e-08
0.00161941
8.98529e-08
-1.45587e-06
0.00427516
-5.35494e-08
2.58958e-06
-1.64269e-07
-3.87613e-08
-5.6614e-06
-0.00204536
-1.7573e-08
-1.33426e-08
-9.27443e-08
-0.010466
-2.96896e-08
-2.70896e-08
-7.20959e-08
8.24259e-08
-6.83003e-09
-8.66149e-07
8.20124e-07
8.40888e-08
5.11818e-08
6.96468e-07
0.000385829
-6.32706e-07
-0.00169297
-4.87398e-08
-6.92871e-08
-0.00745035
-2.25016e-07
-3.92878e-08
-0.00164338
-0.00066284
-2.16467e-06
1.54119e-07
-3.81425e-07
-0.000549528
0.00252748
-1.63882e-06
0.00182813
3.92313e-08
-1.72048e-06
-0.000879627
4.68317e-06
-0.00117182
0.00939628
-7.4842e-09
-2.7891e-08
-2.78183e-08
-4.67391e-09
-6.51757e-08
1.44609e-05
-6.43508e-08
-2.0999e-07
-4.88618e-09
4.19039e-07
0.00205627
-1.01698e-07
0.00441436
-0.00353543
-7.0225e-08
1.02145e-06
4.116e-07
-8.68632e-08
-6.41793e-09
-0.00046236
-1.25163e-06
-0.00131166
-4.62478e-07
-0.00574094
-3.22048e-07
8.74653e-07
-5.59758e-05
1.92301e-08
-7.43353e-06
3.45743e-08
-3.5076e-05
-4.75654e-09
-4.59617e-07
-2.25575e-06
3.19894e-07
-6.03799e-08
-5.17255e-07
-0.0039185
-3.55215e-08
-1.54589e-05
0.00315366
-2.96013e-08
-2.25676e-08
-6.3965e-06
-0.00175777
0.000289177
2.77052e-08
-7.59717e-08
-2.82973e-06
-0.0076734
2.72778e-05
-1.29242e-08
-2.98088e-08
9.45394e-09
-5.7663e-08
1.01676e-07
-5.51178e-08
-0.00512637
3.1641e-07
-2.4386e-08
-0.00177462
9.74083e-06
-1.17591e-06
0.00112996
-0.00349401
-6.08411e-08
6.88583e-09
-3.30812e-08
-3.14125e-08
8.55046e-07
-0.00616027
-0.000377812
1.68132e-06
-1.26382e-06
-3.90526e-07
-6.21324e-08
8.48754e-05
-4.1392e-07
-5.74157e-07
6.25014e-08
7.69184e-05
4.83239e-05
5.21622e-08
-6.65474e-08
-0.00170401
-2.85876e-07
-0.00145039
-0.00293027
-4.55076e-06
5.701e-08
-3.51083e-05
1.3829e-07
-6.84273e-08
0.00591373
-0.00437773
5.23723e-08
-1.48604e-06
-2.66076e-06
-8.63269e-07
-4.85733e-08
2.51557e-08
-2.80565e-08
3.31111e-08
-1.50569e-08
9.09547e-08
2.76086e-06
-0.000549874
-4.78449e-07
-1.64643e-08
-9.93871e-08
-5.69648e-07
4.26949e-08
-1.79387e-06
-6.2256e-05
-3.93672e-06
-0.00120899
1.53384e-07
1.89738e-08
-0.000416123
-2.74847e-08
0.00110591
-5.93274e-08
2.58802e-06
-2.55211e-08
-2.61577e-08
-0.000748286
-2.05721e-08
2.236e-07
-6.70463e-08
-0.0354285
-0.000652663
-0.00138194
2.0855e-07
-2.25536e-08
0.0120509
-1.46922e-07
-3.17624e-08
-1.13822e-06
-0.00192422
-3.49896e-07
-8.21243e-08
-4.59776e-08
-0.0112391
-5.02632e-08
-7.89062e-07
-6.13443e-08
1.43186e-08
-5.47954e-06
-5.16748e-08
2.72472e-08
-7.68982e-05
3.95684e-08
-0.0469873
7.46808e-06
-6.07537e-08
-5.20692e-08
6.0167e-08
6.35839e-08
-8.46235e-07
-4.97492e-08
-8.16074e-09
4.85143e-06
-9.7795e-09
-1.42539e-06
-2.94027e-07
-1.32363e-05
-1.01215e-07
1.00262e-06
2.65566e-08
-0.000189981
-7.45322e-08
-0.000962139
-4.04579e-07
-3.83037e-08
-3.97619e-07
-9.95763e-08
-5.97669e-08
-4.14127e-08
1.03007e-05
-4.50519e-09
5.44363e-08
0.00110279
-4.0087e-07
2.4322e-05
-1.79405e-09
1.49623e-07
-4.8273e-07
-8.76185e-06
2.7513e-08
0.000887746
-2.60948e-07
1.45733e-07
-5.29128e-08
2.21845e-08
-1.29164e-07
0.000104133
-0.00986722
-0.000365047
0.000908003
-1.22789e-05
-1.75224e-06
6.73759e-07
0.00415103
-9.43665e-09
-5.3043e-08
-2.15261e-07
-0.00182945
4.34843e-08
-0.00170039
-4.38654e-08
-3.06117e-09
-2.31364e-06
-3.91707e-05
-0.000492049
-0.000134845
-4.10326e-08
-1.28896e-05
0.000335235
1.33388e-08
0.00382303
-4.8874e-08
-2.02377e-07
-0.00111571
-1.58156e-09
-0.00164924
0.000678024
-1.82472e-09
-3.59486e-09
4.46897e-08
-0.00433775
-2.17969e-07
2.78387e-08
-3.82791e-07
-6.57981e-08
4.46296e-08
2.91224e-06
-2.83595e-08
-2.12383e-07
-6.66696e-08
1.8136e-07
-1.50617e-08
-0.0219259
0.000254235
-1.36074e-08
-1.19817e-08
-6.34644e-08
-5.35489e-08
-3.30844e-08
2.1777e-07
-9.54428e-08
-6.69327e-08
-4.71869e-08
-2.69103e-08
2.04908e-08
-2.4458e-06
1.65977e-08
-1.50944e-06
-3.16166e-08
-4.37643e-06
3.51584e-08
4.05228e-11
1.16419e-09
-8.47973e-08
-9.14818e-07
1.66809e-06
-5.87338e-08
-0.0434239
-0.000660432
-0.00187367
0.000662196
-1.05073e-06
-0.0110615
-4.82254e-08
2.02602e-08
0.00702055
0.00467914
-2.3619e-07
-0.0013237
5.57591e-08
2.9568e-06
0.00552661
-2.68115e-08
-1.74501e-06
0.0158823
0.0137923
-4.42477e-08
-1.96848e-07
-3.00265e-08
0.000810314
-2.21332e-08
-0.00163422
-0.00173237
-1.1594e-08
1.30029e-05
-0.00572473
-1.36866e-07
0.00303598
0.000268049
-1.4235e-07
-4.02101e-08
-0.0010356
-0.000913984
1.56472e-08
-1.03368e-07
-1.10565e-08
0.00582871
-5.01057e-06
-4.09303e-08
2.83209e-08
-0.00556751
5.73786e-08
-7.10657e-08
-4.45907e-08
-1.35726e-08
0.000684708
2.83256e-06
-1.81192e-09
-0.000807616
-1.62345e-08
-2.72414e-06
-7.29561e-08
-0.00129328
1.63086e-07
0.00029012
4.47034e-08
-2.34808e-08
-1.62185e-07
-1.07243e-08
-7.81356e-08
-5.22451e-08
0.00504601
-7.73952e-08
-8.80536e-09
-4.61353e-08
0.000341263
-3.92998e-08
-0.000356403
0.00580296
-0.00288174
1.02858e-07
2.16139e-08
-4.79457e-08
-0.00788757
2.86418e-10
-0.0103027
-4.30535e-08
0.0261155
-9.52754e-08
-1.56961e-06
0.000331752
-3.51879e-08
-1.28737e-07
-0.000944945
-2.58467e-06
-0.0016542
-3.31447e-07
-0.00409616
0.0181708
-4.06016e-08
-0.00142384
-3.5514e-08
1.31226e-06
-0.00409408
5.21934e-07
-2.69454e-06
-0.00130676
-7.71806e-07
-1.09761e-06
-9.86288e-08
-0.0113285
-6.064e-08
0.000752347
-4.69206e-08
-0.0012181
-7.01515e-08
-7.76238e-08
3.36546e-07
-0.000689733
3.15616e-08
-0.000259147
4.75933e-06
0.0152554
-6.01691e-08
-1.02243e-06
-0.00223574
-0.000163575
-6.69716e-05
-1.24105e-06
3.71234e-08
-3.06492e-06
0.0290449
2.07842e-07
0.00246372
3.0329e-09
-4.3818e-06
-0.00108492
4.57811e-08
-5.91703e-05
-5.15729e-08
-0.00522567
0.000348897
-2.11069e-07
-9.08539e-07
0.00101491
-0.00166381
-6.79018e-08
-6.14789e-08
-1.11551e-08
-4.42073e-08
-0.00146848
6.09856e-08
1.41415e-05
8.42154e-08
-7.36164e-08
-0.00165826
-5.66736e-05
-0.00295446
-0.00239496
-6.47222e-08
-4.78452e-08
3.98408e-06
0.00573342
-0.00243631
0.00279317
3.32639e-06
-1.65717e-06
-3.88043e-05
-0.00187561
0.000373828
5.31541e-05
-4.2418e-08
-1.72513e-06
-8.56276e-08
2.68113e-07
-5.97817e-09
-6.89122e-08
4.95623e-07
8.62389e-05
-0.000448277
8.14971e-08
-7.86133e-05
-0.000966115
-3.14242e-06
-6.69513e-08
-6.80346e-08
0.000357381
3.49875e-08
-0.00286177
-7.91767e-08
1.76383e-06
-1.53541e-05
0.000228962
-1.51082e-08
8.97636e-08
-4.03971e-08
1.04264e-08
-0.00569959
-1.6146e-05
-0.00500684
1.66525e-08
-0.00160027
-0.00054917
4.67412e-06
-7.79672e-08
-4.23702e-07
-8.50716e-07
-0.000253537
-3.13021e-06
-4.98464e-07
-0.00105278
0.0225888
-5.75307e-08
-2.24148e-07
-4.22652e-07
-3.38602e-06
-0.000743143
-1.57161e-07
-1.58247e-08
-9.58962e-08
-1.23612e-05
-0.000215695
1.5925e-08
2.98859e-06
-1.2203e-05
-3.82195e-08
7.49343e-05
3.22562e-09
-0.00476005
2.02966e-06
0.0014621
-0.0100028
4.27438e-09
1.49027e-07
0.00204053
-1.14169e-08
-3.7587e-06
-0.000715055
-2.53231e-08
1.66372e-05
-7.66057e-08
-1.06011e-07
0.00570691
-0.00344711
-9.92518e-08
0.0086932
0.0145534
7.77398e-09
2.43728e-06
-1.25144e-06
-1.78834e-06
0.00418565
-0.00899372
0.00521514
-2.40488e-06
-0.000395434
-3.20576e-07
7.00045e-07
-7.1037e-08
-6.81475e-08
6.09765e-09
-7.08497e-09
-8.6942e-05
-1.40704e-05
-3.15749e-08
-3.44147e-06
5.76878e-06
-8.79521e-09
-0.00245717
0.000831919
2.4756e-08
-4.47551e-09
-7.57518e-08
1.31796e-07
-1.48214e-07
-5.89106e-08
-0.00687168
-3.67312e-08
-8.87093e-07
5.05732e-07
3.92757e-07
-1.91903e-05
6.78758e-07
-9.33369e-05
1.05625e-09
1.24815e-07
3.19247e-08
4.48781e-08
-0.00270893
2.0429e-06
-9.94584e-07
-0.00266146
1.43879e-07
-3.35714e-09
-1.14173e-06
5.68756e-08
9.91052e-08
6.53196e-06
-5.33074e-08
-0.00139558
-0.0366523
0.00197753
-6.39313e-08
-0.0134284
-5.63703e-08
-0.0020679
-1.61412e-08
-4.87101e-07
-0.00508938
-1.95285e-08
5.87423e-06
-0.00129291
-1.65489e-06
3.38545e-10
-1.43418e-07
-6.55606e-07
0.00619276
-1.0648e-08
-5.43599e-08
5.01505e-08
1.41377e-07
5.79184e-06
-2.78835e-08
-8.42951e-08
-5.08987e-08
2.65649e-09
0.00309795
1.10993e-07
-5.82976e-07
-3.51416e-06
0.000675847
-0.00154987
0.00189363
1.99706e-08
1.46318e-07
-0.000994582
-1.68422e-08
-1.1294e-06
-7.66648e-08
-0.00269265
-2.77576e-07
2.08444e-07
-6.69185e-07
0.00361706
-5.44088e-08
4.69959e-08
-1.00148e-08
3.50115e-06
-0.00122551
-2.9482e-06
-6.55573e-08
6.0591e-07
-3.43658e-08
-0.000560009
-1.26653e-07
0.000899591
-8.01613e-09
1.49466e-07
-8.79147e-06
-6.96315e-08
-0.00228753
-6.25545e-08
-1.0302e-09
1.83484e-08
-2.79612e-06
1.42671e-06
-6.20362e-08
3.62456e-08
-9.21639e-08
-0.00137835
-7.57504e-09
-4.22247e-08
-0.00285987
-6.84394e-08
-1.38774e-05
-3.29481e-08
5.24985e-08
-3.98792e-08
0.00716759
-6.40616e-08
0.0180667
0.000575282
-5.04125e-09
0.0284627
-2.92794e-08
-2.4297e-06
1.62845e-06
-3.76651e-08
-7.33821e-08
1.68242e-09
-5.08111e-08
0.0102884
-1.23874e-07
-6.95317e-05
0.000431834
-6.70252e-09
-6.49657e-05
-7.73832e-07
-0.00355223
-2.69513e-08
0.00221938
-0.0028094
-0.00346206
-1.66141e-09
-7.17918e-08
-3.87645e-08
-0.00931462
-0.00233148
1.58969e-06
-7.30258e-08
-4.38606e-08
-0.0103528
-7.42236e-08
-6.33159e-08
2.9524e-07
3.09056e-06
0.00111092
-3.39837e-09
0.00279329
2.7352e-06
-6.54559e-08
0.00566378
-1.50995e-07
0.0282246
0.00305805
-1.50768e-06
1.53535e-06
-4.81627e-08
-2.99585e-07
6.53382e-08
-1.2012e-05
-2.66219e-06
-1.04792e-07
-2.97328e-08
2.28756e-05
-0.0439867
-8.9487e-09
-1.6813e-06
-0.0165783
0.0106098
-1.99428e-07
1.98506e-09
0.000343307
-0.00405563
6.91527e-06
-2.08033e-08
-0.0263515
6.8685e-07
-2.63754e-08
-0.000674821
-4.72264e-07
-5.55885e-08
-3.0707e-05
4.99342e-08
-3.26773e-06
2.21459e-08
8.2253e-09
1.10714e-07
-1.22537e-08
0.00118598
-7.28262e-08
-4.24518e-08
-1.62033e-06
-5.60711e-08
3.80176e-07
-8.60607e-07
-5.29016e-08
-6.52976e-08
-1.09647e-07
-5.87597e-08
0.00144614
0.000893718
-0.00158554
0.00739154
3.00216e-06
0.00401811
-1.73916e-06
0.00127499
-0.0403372
0.0017423
4.73958e-08
-6.05464e-07
-4.23757e-08
-4.17296e-08
1.65121e-08
-4.73721e-07
5.23511e-06
2.84292e-07
-2.48677e-06
-1.18e-09
-5.16861e-08
4.07229e-07
-4.5085e-08
2.02426e-08
-5.44539e-08
-0.000304571
6.93168e-08
-0.000812104
-6.08934e-08
0.00123702
3.96298e-08
2.31392e-07
-2.37613e-07
-1.58176e-07
-1.20085e-08
-1.8802e-06
-0.00155706
-2.14849e-06
-0.000575582
0.0087478
9.69535e-09
-4.49966e-08
0.00010702
-2.88222e-06
-2.10623e-07
2.53055e-08
-1.1288e-09
0.000132991
-1.89834e-08
1.37443e-06
0.000171376
-1.65998e-06
0.000393228
-3.94398e-05
-5.22569e-07
-0.00590894
-4.94756e-08
-1.01349e-08
-0.000131858
-0.010959
-3.10379e-09
-9.40557e-08
-0.00348671
-4.18489e-08
-3.96585e-06
-3.3155e-08
-1.34301e-07
-3.82629e-07
-5.29378e-08
-1.14499e-06
-0.00120788
-0.00144744
-3.23521e-08
-1.58531e-09
7.07787e-06
-7.97659e-08
3.99868e-08
-5.17728e-09
1.65602e-06
7.54984e-07
2.67262e-08
-5.73748e-08
-4.73592e-08
-3.34961e-06
-1.5582e-05
5.96053e-06
0.00142453
-9.85144e-08
-0.00316937
-2.06102e-07
2.63768e-06
-0.00370118
-5.0223e-08
0.000898977
-6.6668e-08
-0.000195932
0.000420035
0.000648884
-0.000392503
-1.01288e-07
2.11193e-07
-0.000492708
7.80055e-08
-0.00127323
-6.1839e-08
5.91584e-09
-3.65916e-08
-4.26145e-08
-8.60454e-08
1.05958e-05
-0.000135961
-0.00175229
-5.87762e-08
-2.4015e-06
-6.97709e-08
1.66201e-07
-8.57569e-08
-6.114e-06
-8.41462e-07
0.00355091
1.47594e-06
-9.52041e-08
-1.15043e-08
-2.21499e-07
-3.73277e-06
1.20589e-07
-3.8857e-07
-2.48343e-07
1.58044e-05
-1.0128e-07
-3.03101e-06
8.09895e-06
0.00120876
-1.42276e-07
-1.16392e-07
-3.70438e-08
-4.51009e-08
3.39791e-05
-0.00119216
-3.11206e-06
5.879e-08
0.00638214
7.06341e-08
-2.08597e-08
-3.56204e-07
-0.00157016
0.00223254
-1.70917e-06
-3.93706e-08
0.00164976
3.45671e-08
-3.89803e-08
-1.67269e-07
-0.00470895
0.00336535
5.52801e-09
0.0030755
0.0018731
-1.42264e-08
7.81523e-06
2.49519e-07
-0.00451171
7.86745e-10
-0.00196987
4.22542e-08
0.000406507
-1.19449e-05
-0.00560215
-4.29762e-08
5.22008e-08
-0.00171584
-5.86248e-08
-5.35961e-08
0.00245021
-0.0109369
0.000713596
7.71286e-06
-4.49718e-08
-5.80191e-08
0.00177295
-2.02811e-08
-6.29081e-08
-9.1476e-08
-1.97844e-09
-2.16291e-08
7.92166e-07
-2.00974e-08
0.00190597
-0.00667634
-4.31403e-08
-0.00128899
-2.65015e-08
-0.00170674
-0.000820637
-9.56208e-08
-5.09025e-08
-3.1507e-08
0.019305
5.26715e-06
-1.10496e-06
-0.00160869
0.00137933
0.014303
7.61718e-07
-0.0104965
-0.00118592
-8.68324e-06
0.00024374
-3.95615e-08
3.90409e-08
-6.57166e-08
1.63642e-07
-6.54723e-08
-1.29106e-07
-0.00148059
2.883e-06
0.000522997
-0.0023476
-0.00570961
0.00223616
-0.0015557
1.88601e-06
-0.00365288
-2.88545e-06
-1.61612e-07
-1.51296e-08
7.86079e-08
-8.23224e-07
-0.000771552
2.15135e-07
0.00446797
-0.00161014
5.87957e-08
-7.08993e-08
-3.16437e-07
4.52225e-06
6.1599e-08
-1.38856e-06
0.000560921
-4.61032e-10
-7.22231e-08
5.0064e-08
-5.57585e-08
2.66929e-08
-0.00154091
-2.16967e-06
-0.0103743
-2.82427e-06
-4.2101e-08
0.000995841
-3.59519e-06
-1.615e-07
-0.0015161
-0.00450128
0.00387027
-8.31947e-05
-0.00125856
4.50869e-08
-0.00487287
-0.00162322
-3.61812e-06
-0.00444487
4.32819e-08
-1.66987e-09
-2.10798e-07
-3.74018e-08
-0.0036232
-9.29941e-07
-4.57446e-08
-9.0343e-08
0.00127555
-0.00150228
7.61948e-07
1.07852e-06
-0.00224825
-0.0014852
-7.4833e-08
-6.98463e-07
-2.71298e-06
-3.3618e-08
-6.57952e-08
-0.021534
2.44822e-12
1.35102e-05
0.00136457
-0.00533629
-1.65433e-08
8.09118e-06
-2.08124e-06
-1.57868e-08
2.58696e-08
-0.00691218
-0.000479604
2.49458e-07
1.11779e-06
-3.12273e-06
3.78456e-06
-0.00219559
0.00193592
-2.67832e-07
0.0005136
-0.00168867
4.15593e-07
-5.12491e-08
-2.27163e-05
-8.81962e-09
-4.07269e-08
-0.00138906
-2.13919e-06
-2.07142e-06
-2.57231e-08
2.18692e-06
3.731e-08
1.14503e-08
-4.33266e-08
-4.89169e-08
0.00539045
-2.73958e-08
0.000140655
-0.000185064
1.52796e-06
-1.418e-06
0.00628812
-0.00460469
0.00599082
-3.87699e-07
-2.00016e-08
4.07064e-07
-2.69472e-07
-4.00407e-06
9.34057e-05
-4.43955e-08
0.000797286
-0.00103781
-4.53378e-07
-7.40959e-07
-1.54338e-06
-6.06548e-07
3.54015e-08
-5.47554e-08
6.9602e-07
2.24893e-06
3.57239e-06
5.08847e-06
1.17574e-06
-1.89606e-06
-1.43574e-06
-4.3714e-08
-4.21595e-08
-1.04236e-06
9.26836e-09
-4.40141e-05
-0.00418956
-1.24342e-05
-0.00157421
-1.22686e-08
5.18118e-08
0.000198448
0.00237446
-4.70788e-08
9.12195e-08
6.38568e-07
-0.00179065
-0.0027943
-5.69862e-08
-2.02061e-07
-5.66861e-08
0.00136392
0.000246024
-4.74187e-08
0.00054419
-0.00155907
-1.89728e-06
-0.00140452
-2.2024e-06
0.00223329
-0.00326095
-2.4668e-08
-0.00640332
-0.00105612
-4.65595e-08
-6.6263e-08
-1.98042e-06
1.25106e-06
1.90815e-08
0.0212779
0.0036551
6.53132e-08
7.16425e-08
0.00475439
-0.00200611
-2.50234e-07
-1.3957e-08
1.91401e-05
-3.35555e-06
-0.00166801
-0.000284783
-8.11738e-08
-5.24768e-08
-4.4892e-08
8.53876e-08
-0.0016162
0.00596487
0.00141426
-6.85118e-07
0.000137208
0.000233332
7.66424e-08
-3.92437e-08
-0.00143318
4.76215e-08
-0.00290683
-1.21187e-07
-0.00153677
-5.03096e-08
1.41389e-07
0.00183938
-1.48176e-08
-1.38831e-06
-0.00275177
-8.69324e-08
4.82245e-07
-5.45685e-08
5.13959e-06
-0.00141101
-5.09798e-06
-0.00172177
1.97556e-07
2.95936e-08
-2.14469e-08
-8.05875e-08
-0.00691079
-0.00102728
-1.34438e-06
6.68752e-06
-4.18981e-07
0.00251774
1.89016e-06
3.20738e-08
-3.43572e-09
-1.60377e-08
-5.63288e-05
-6.67978e-06
0.000500192
-1.60143e-06
1.98022e-06
-1.8936e-08
-0.00131236
0.000144084
0.00027555
-6.79228e-08
-6.56345e-08
1.34073e-08
-0.00167172
-1.99121e-05
-0.00197327
-6.05284e-05
-8.61072e-07
-4.54824e-05
-1.78856e-08
-2.00235e-07
-2.34052e-06
-2.86767e-05
-0.0018576
-5.81452e-08
4.53787e-07
-1.91621e-08
-3.37267e-07
9.99421e-06
0.00474206
-1.56524e-05
-6.12067e-08
-1.60141e-07
3.08491e-05
0.0015605
-0.000984187
-0.00237167
-0.00618694
4.86759e-08
-6.45435e-07
3.83096e-08
1.18528e-06
7.13814e-08
-2.13488e-06
-4.43858e-08
-4.10891e-07
0.000868308
0.000267297
1.01223e-07
2.60563e-05
-0.00117585
3.27869e-06
4.10448e-07
0.00248265
2.69662e-06
-2.84631e-08
-3.11737e-07
-0.0044717
5.25659e-08
-3.711e-06
-0.00046519
0.00219628
-0.00122852
3.11477e-08
0.00211231
-0.00147996
0.00519061
0.0123362
4.23222e-08
-1.58909e-06
-2.01045e-06
-0.00233538
0.000347256
-4.3612e-08
-0.000612575
1.38365e-05
-2.09726e-05
-7.1184e-07
-0.00425901
-1.18719e-06
-0.00499757
-6.48788e-08
-0.000220982
-2.48175e-07
-0.00141779
-4.42117e-06
0.00157973
-0.000433484
-3.93074e-08
-1.26904e-08
-0.00148562
-0.00602546