/*--------------------------------*- C++ -*----------------------------------*\
| =========                 |                                                 |
| \\      /  F ield         | OpenFOAM: The Open Source CFD Toolbox           |
|  \\    /   O peration     | Version:  v2012                                 |
|   \\  /    A nd           | Website:  www.openfoam.com                      |
|    \\/     M anipulation  |                                                 |
\*---------------------------------------------------------------------------*/
FoamFile
{
    version     2.0;
    format      ascii;
    class       volScalarField;
    location    "150";
    object      k;
}
// * * * * * * * * * * * * * * * * * * * * * * * * * * * * * * * * * * * * * //

dimensions      [0 2 -2 0 0 0 0];


internalField   nonuniform List<scalar> 
13917
(
0.0185646
0.000189706
0.000223819
0.000151632
0.000174891
0.000189819
0.000161368
0.000236427
0.000158733
0.00359387
0.000231798
0.00014966
0.00016631
0.00106866
0.000166621
0.0151043
0.000146905
0.000216994
0.000195347
0.0136441
0.000171486
0.000149641
0.000177756
0.000149655
0.000155324
0.000174624
0.0434975
0.0031199
0.000188327
0.000136523
0.00209451
0.000184708
0.000151986
0.0314103
0.000146471
0.000255056
0.000158221
0.000158239
0.000161443
0.000173612
0.000147869
0.000146559
0.000155957
0.000193182
0.000193082
0.000186188
0.000170066
0.0120148
0.0161939
0.000146609
0.00014944
0.000205025
0.00815805
0.000149358
0.000149862
0.000203885
0.00106566
0.000177755
0.000145894
0.000202256
0.0254661
0.000143913
0.000144191
0.000154799
0.0341443
0.000342232
0.000193522
0.000257125
0.000221601
0.0177918
0.0233482
0.0290467
0.000148778
0.000145234
0.00017234
0.000156851
0.000160111
0.000144514
0.000156264
0.000152268
0.00015216
0.000147498
0.000148614
0.0246146
0.000142117
0.000258801
0.00018407
0.000146098
0.000172798
0.000146605
0.000139478
0.00015628
0.0149287
0.000144311
0.000152324
0.000191986
0.0331457
0.000149296
0.000145231
0.000290112
0.000146002
0.000145085
0.000152417
0.000144734
0.000160087
0.0209089
0.0270702
0.000123374
0.000147958
0.043602
0.000145049
0.0325914
0.000186702
0.0121407
0.0335703
0.0001579
0.000194054
0.000140862
0.000209589
0.000147536
0.000147085
0.000143238
0.000199408
0.000194443
0.0196822
0.0288238
0.000154261
0.000173618
0.000144959
0.000194443
0.000167443
0.000269356
0.0450505
0.00015785
0.000187655
0.0407317
0.0248859
0.0209819
0.000177387
0.000157836
0.00293086
0.000143743
0.0193416
0.000144451
0.000148062
0.00015718
0.0227386
0.00757379
0.0136924
0.000149652
0.000170666
0.00014437
0.000147767
0.000147589
0.0376017
0.000152666
0.00014425
0.045529
0.000145278
0.00014225
0.000142539
0.0327991
0.00016315
0.00198452
0.0262681
0.00191697
0.00746771
0.0197
0.000131053
0.000179299
0.000150412
0.043598
0.000158593
0.024428
0.000192934
0.000144578
0.000151599
0.000208349
0.000166742
0.000164281
0.000155798
0.000149903
0.00014946
0.000218243
0.000211466
0.000280726
0.000149254
0.000229292
0.000136586
0.000251088
0.000193616
0.000191829
0.000204556
0.0186038
0.000144321
0.0200629
0.000160575
0.0446551
0.000146102
0.000151777
0.000167469
0.0175869
0.0181023
0.000157289
0.0401257
0.000178063
0.00017136
0.000143771
0.000206872
0.000152141
0.000141342
0.000200278
0.000205941
0.0130529
0.000187208
0.000175987
0.0372233
0.000153762
0.0001371
0.000137016
0.0162143
0.000210159
0.000136555
0.000143576
0.000145465
0.0344959
0.0171399
0.000136343
0.000136208
0.000147797
0.000137403
0.000137334
0.0272431
0.0147878
0.000150504
0.000131365
0.00019231
0.0270566
0.000145836
0.000143548
0.0431267
0.0194756
0.000225928
0.0374427
0.000204096
0.000144505
0.0225786
0.000193186
0.000184077
0.000188274
0.000156577
0.0134757
0.000147807
0.000177397
0.000189954
0.000151014
0.000148488
0.000154686
0.000171591
0.000146296
0.0261065
0.00891408
0.00014353
0.000136119
0.000153423
0.000136152
0.000147824
0.000166763
0.000172746
0.000144128
0.0253996
0.0289876
0.000147249
0.00016304
0.000133044
0.000136583
0.000226053
0.0294565
0.00013666
0.022008
0.000145838
0.0316763
0.000145477
0.000162173
0.000151339
0.000144181
0.000202583
0.000152888
0.0104346
0.000164272
0.0124593
0.000150109
0.0158121
0.0206603
0.000142741
0.000181976
0.000173518
0.000158683
0.000174489
0.000156061
0.00014475
0.000151475
0.000209744
0.000228801
0.000176317
0.000155655
0.000143427
0.0454257
0.0149507
0.000144165
0.00017885
0.00015872
0.000110017
0.000196813
0.0311534
0.0242382
0.00027414
0.000243757
0.000161663
0.0212897
0.000347165
0.000220733
0.000165416
0.000165428
0.0428084
0.000151643
0.0001963
0.000191658
0.000146258
0.0434105
0.000142518
0.000173663
0.00013913
0.00526219
0.00013969
0.000174381
0.000178753
0.000289984
0.000145724
0.00018788
0.0177317
0.000151854
0.000151627
0.0349827
0.0179601
0.0219205
0.000673318
0.000136308
0.00015032
0.0200389
0.000241815
0.000136436
0.000175227
0.000149345
0.000185039
0.00017528
0.000200534
0.000207173
0.000226982
0.000173513
0.0273355
0.000145328
0.00015187
0.000180156
0.00021204
0.000146252
0.0163038
0.00017326
0.00656458
0.000150157
0.000221068
0.000183956
0.0107059
0.000146273
0.000136839
0.000138503
0.000181355
0.000147596
0.00774932
0.0001408
0.0260077
0.000206816
0.000146182
0.0148882
0.000152769
0.00436754
0.000140092
0.015743
0.00425066
0.00015679
0.0321415
0.000209368
0.000155439
0.0285936
0.000230912
0.000155528
0.000202769
0.000149811
0.000211594
0.000221145
0.000142738
0.000160231
0.000155498
0.000143797
0.000140709
0.000145775
0.0256815
0.00096558
0.000150961
0.00014625
0.000148672
0.000182056
0.000325989
0.000137543
0.000131178
0.000196186
0.000220536
0.000144583
0.00015637
0.0194385
0.0320148
0.000340666
0.000196147
0.015179
0.00014115
0.000137122
0.000169308
0.000140597
0.000137614
0.000150828
0.000137213
0.000140764
0.019499
0.000150113
0.000176129
0.0276433
0.000182043
0.000141626
0.000147519
0.0291608
0.000167894
0.0167814
0.000138615
0.000143898
0.000141258
0.000137725
0.000157872
0.000153498
0.0168073
0.000204183
0.0223634
0.000143862
0.000170147
0.000210381
0.000151806
0.000201927
0.0218961
0.000149093
0.0270223
0.000142039
0.000143946
0.000148316
0.000152792
0.000140766
0.00015072
0.0452232
0.0253117
0.000140524
0.0165169
0.000195509
0.000148462
0.000184259
0.000186655
0.0292304
0.00016135
0.0224183
0.00514713
0.00510141
0.000153475
0.000277887
0.000235889
0.000156099
0.0101914
0.00014051
0.000148992
0.000152339
0.000159517
0.000169877
0.000203112
0.000181098
0.000180355
0.00016628
0.000211064
0.000185861
0.000150969
0.00197808
0.000171835
0.00016419
0.026351
0.000142176
0.00018726
0.000211443
0.000139926
0.0433249
0.000144751
0.000137707
0.000182878
0.000138648
0.000152393
0.000209719
0.0468066
0.0228052
0.000142414
0.00015221
0.000167578
0.00552051
0.00077413
0.000150398
0.000149649
0.00014214
0.000187334
0.00625544
0.00014552
0.000145866
0.00015121
0.000143438
0.000165635
0.000164242
0.000141852
0.0001816
0.000139939
0.000148948
0.000155126
0.0315417
0.000136623
0.000155787
0.000146296
0.000169244
0.000187807
0.000191059
0.00019121
0.000318981
0.000154495
0.000201115
0.0438056
0.0193433
0.0312644
0.000143385
0.000147963
0.000153623
0.000145522
0.0348188
0.00013698
0.00765438
0.000160488
0.0393627
0.00024015
0.000156033
0.0147221
0.000140477
0.000183365
0.000148966
0.000150955
0.0411581
0.000138036
0.000225342
0.000146009
0.000155351
0.000148334
0.000200691
0.000168213
0.000135755
0.000193191
0.000183705
0.00606314
0.0182304
0.0458
0.0283625
0.000136679
0.0179575
0.000139577
0.0248021
0.00910885
0.000153201
0.00020925
0.0001457
0.000171425
0.000155286
0.000138087
0.000149068
0.00016488
0.0137039
0.000142976
0.000182699
0.000148694
0.000135639
0.000145185
0.000241914
0.0232867
0.0127418
0.000187108
0.000163967
0.00165355
0.0284176
0.000140489
0.0165487
0.000163195
0.000192957
0.000145522
0.006498
0.00014315
0.000167268
0.000148323
0.00696869
0.000172778
0.0361379
0.000142396
0.000171557
0.000146722
0.000146808
0.028864
0.00145329
0.000147738
0.000201824
0.000143427
0.000150009
0.000145886
0.0315553
0.000142988
0.000173365
0.000136917
0.000147185
0.000212249
0.000144928
0.000198896
0.000148395
0.000139788
0.0254865
0.00018324
0.000150038
0.00851768
0.000218011
0.000345331
0.000212054
0.000140261
0.000168587
0.0290491
0.000239637
0.000167791
0.000158166
0.000170094
0.000147674
0.000145635
0.000462802
0.00018987
0.000159192
0.0254302
0.00017314
0.000117039
0.00132798
0.000280049
0.000172757
0.000203499
0.0239174
0.000144781
0.00018371
0.00118797
0.000139872
0.000143463
0.000145244
0.000189135
0.00015325
0.0182406
0.000168934
0.000142686
0.000190562
0.000141844
0.0330421
0.000145845
0.000144961
0.0460004
0.000186094
0.00613554
0.000149302
0.000150126
0.000144695
0.000150982
0.000163521
0.000144262
0.0186457
0.000166702
0.00554632
0.00647207
0.000184853
0.0458448
0.000152284
0.000148992
0.000147107
0.0311185
0.0262948
0.000161223
0.0189779
0.00741795
0.000139813
0.000144553
0.000158033
0.0209314
0.00535541
0.00017315
0.00015084
0.000155819
0.000193806
0.000159386
0.000199433
0.000169202
0.000152011
0.000152406
0.0001487
0.000163394
0.00016668
0.000246041
0.000159614
0.000165115
0.0184453
0.000142734
0.00809505
0.000157348
0.000178237
0.000160121
0.000232666
0.000146905
0.000182118
0.0216883
0.00558419
0.000145785
0.000159574
0.000156934
0.000144256
0.000148041
0.000174465
0.000210061
0.000238182
0.000199888
0.000139999
0.000230174
0.000158652
0.000159634
0.000202017
0.00015071
0.000183355
0.0300247
0.000135781
0.000185774
0.000198861
0.000168907
0.000143481
0.000141061
0.0001456
0.0154422
0.000151806
0.000146568
0.000173297
0.000144605
0.000142351
0.000202916
0.0162119
0.000200086
0.0322137
0.000182404
0.0202439
0.000148021
0.000161462
0.00057751
0.000153368
0.00036583
0.000145544
0.00014309
0.000149276
0.000160682
0.000191545
0.000143456
0.000677902
0.000150057
0.0104163
0.000157371
0.000161154
0.000139121
0.000188526
0.000163422
0.0287033
0.000205749
0.000147917
0.0309477
0.000152787
0.0244715
0.000154757
0.000224005
0.000157643
0.00014261
0.000145494
0.0423428
0.000163346
0.000362889
0.0303819
0.000144131
0.000169261
0.000131209
0.000190832
0.00413452
0.000131611
0.0223176
0.000155901
0.000227927
0.000193825
0.0057183
0.000137241
0.000143637
0.000210382
0.000140216
0.000149112
0.000154834
0.000147592
0.000173468
0.000137098
0.000259524
0.000152014
0.0176201
0.0241337
0.000328387
0.0231685
0.0276569
0.0157521
0.00210063
0.000139305
0.000149349
0.000147477
0.00015295
0.00014225
0.000163536
0.000143929
0.00029204
0.000149405
0.00554609
0.000151465
0.000165331
0.000206316
0.000143881
0.000175468
0.000152815
0.000150856
0.000160423
0.000140783
0.0464051
0.000191601
0.000964524
0.000144164
0.000145038
0.000150841
0.000150611
0.0265786
0.000139511
0.00112017
0.000142845
0.00557958
0.000160638
0.000144314
0.000182786
0.000142622
0.000139646
0.00683673
0.0145287
0.00015841
0.000188185
0.000140155
0.000267924
0.000144486
0.000150625
0.0243198
0.00014519
0.000151929
0.00019027
0.0225652
0.00015255
0.0073896
0.00410933
0.000147005
0.000155232
0.000147979
0.0117751
0.000144772
0.000194563
0.000148906
0.044212
0.000162095
0.00532473
0.000146225
0.0001368
0.0045963
0.000156714
0.000141989
0.0420001
0.000154831
0.000140786
0.00136101
0.000146765
0.000149386
0.000189248
0.000155195
0.0356885
0.000174438
0.000186458
0.00021057
0.000155675
0.0432328
0.000152937
0.000187413
0.000144312
0.0277417
0.00525079
0.000149574
0.000144741
0.000148971
0.000150399
0.000141316
0.000141192
0.000144019
0.000145249
0.000164911
0.000135783
0.000154256
0.00018606
0.0253218
0.0302841
0.000189187
0.000150861
0.00475033
0.000143258
0.000663952
0.00556674
0.00671677
0.000137441
0.000139411
0.000146746
0.000148729
0.000137208
0.000141257
0.000143582
0.000173784
0.000140844
0.00846341
0.00207946
0.000141577
0.0419806
0.000144443
0.000145809
0.000136292
0.0327416
0.000189114
0.000143579
0.00529588
0.000145417
0.000145871
0.000126429
0.000149998
0.0337837
0.000152238
0.00120853
0.000141664
0.000143657
0.000167762
0.0015194
0.00015421
0.0311715
0.000236247
0.00015622
0.000156093
0.000145127
0.000140799
0.000189795
0.000168143
0.000158846
0.0338937
0.00930137
0.00118714
0.000190658
0.000143542
0.0328155
0.000143235
0.0218741
0.000188537
0.000160349
0.000153647
0.012013
0.0195605
0.00225478
0.000150415
0.010065
0.000141593
0.000143937
0.000169066
0.000151682
0.000148671
0.000245888
0.0220053
0.000143655
0.000161153
0.0267186
0.000145449
0.000136436
0.00674578
0.0347637
0.000152526
0.00014055
0.000160838
0.000147327
0.000145494
0.000174322
0.000162061
0.000147112
0.00521305
0.000150681
0.00158673
0.00480401
0.000226416
0.0282105
0.000149474
0.000151247
0.00145774
0.0223898
0.00360133
0.00020167
0.000170037
0.000150131
0.000152381
0.000153235
0.0285917
0.000185629
0.000152439
0.000180317
0.000144044
0.00560016
0.000188321
0.000194086
0.000181746
4.95484e-05
0.00523925
0.013342
0.0403124
0.00015789
9.75538e-05
0.000136637
0.000186572
0.000193466
0.00391595
0.000157786
0.000150612
0.000159563
0.000339329
0.000155343
0.0281246
0.000170925
0.000200422
0.024331
0.000142884
0.000192354
0.000156076
0.000149053
0.00018003
0.00137337
0.000137976
0.000139513
0.000153753
0.00858992
0.000140872
0.000154945
0.000155188
0.000152917
0.000147908
0.000205226
0.000185
0.000152434
0.000143758
0.000215258
0.00113238
0.000183043
0.0443555
0.000149769
0.000144659
0.0249404
0.000146574
0.000155606
0.0408351
0.0297343
0.000168476
0.00018696
0.000163218
0.0148759
0.000914105
0.000168874
0.0195301
0.0001451
0.000192528
0.0270918
0.000213579
0.00747184
0.00703607
0.000140601
0.000148636
0.000165751
0.00014813
0.000149263
0.000245753
0.000145303
0.00017814
0.000137467
0.000180946
0.0297914
0.000155374
0.00539215
0.0286928
0.000144773
0.000186968
0.000163069
0.000154339
0.000144366
0.032296
0.000186657
0.0240158
0.000162968
0.0240434
0.000200761
0.000149615
0.000324567
0.000171005
0.000159915
0.000144608
0.000231815
0.000144407
0.000160538
0.000173552
0.000161559
0.000150266
0.000181047
0.00307097
0.000142691
0.000235782
0.00170245
0.000149155
0.000143037
0.000157844
0.00218408
0.000139419
0.0001419
0.000164465
0.000250451
0.00529099
0.0177083
0.000148256
0.000140753
0.000140574
0.000145148
0.000166443
0.000157616
0.0026308
0.000151198
0.000157029
0.00216347
0.000259205
0.000189038
0.0350434
0.0249798
0.000149413
0.000145504
0.000140357
0.000153909
0.000185136
0.0448581
0.00043675
0.000208507
0.000167409
0.000178908
0.000155073
0.000412437
0.000160164
0.000192629
0.000144385
0.000258898
0.000415157
0.000140812
0.000149025
0.0377894
0.000180779
0.00186966
0.0250943
0.000210581
0.000144697
0.000150087
0.000159845
0.000142744
0.0200989
0.00467388
0.000144454
0.000169247
0.000194208
0.000169071
0.000151858
0.000136939
0.00014323
0.000141322
0.000144069
0.000165361
0.000182965
0.0230117
0.000169659
0.000159747
0.000166233
0.000199302
0.000143381
0.000170474
0.000180651
0.000223769
0.027059
0.000154571
0.000136804
0.0291093
0.000141636
0.00350399
0.000153913
0.00017612
0.000150583
0.000142029
8.78837e-05
0.000160664
0.000154175
0.000144914
0.0364915
0.000533949
0.0280021
0.000149476
0.000148468
0.0108423
0.000142263
0.000141355
0.000227371
0.00619775
0.00016198
0.000168884
0.000151597
0.0105631
0.000142916
0.00015682
0.00015023
0.00013664
0.000222181
0.000142974
0.000141049
0.000255018
0.000181541
0.0267026
0.000223008
0.000142384
0.000165321
0.00014238
0.000144301
0.00015664
0.00015285
0.000148767
0.000210041
0.000148137
0.00019062
0.000175786
0.000172074
0.000147567
0.000150603
0.000145304
0.0330935
0.000137729
2.71928e-05
0.000185159
0.000155519
0.000179695
0.000168703
0.000165678
0.000147935
0.000196996
0.000141517
0.00014081
0.00693706
0.000181925
0.000215
0.000144151
0.000145873
0.000142302
0.000208058
0.000143968
0.0366458
0.000178709
0.000144122
0.000143204
0.00013911
0.000178756
9.75505e-05
0.0234692
0.000457193
0.00502029
0.000173921
0.000202442
0.000156844
0.0278001
0.000137433
0.000137424
0.000158725
0.00360484
0.000139407
0.0360112
0.000148791
0.000144781
0.000229204
0.000227304
0.0155732
0.000631017
0.000159728
0.000244817
0.000182424
0.000140884
0.0290221
0.00014451
0.000144605
0.000524728
0.000138306
0.0376736
0.000674317
0.000142605
0.0001455
0.000141151
0.0450097
0.000145866
0.000136931
0.000186627
0.000142458
0.000142019
0.000151683
0.00014102
0.000176104
0.000148935
0.000159327
0.000138944
0.026568
1.55731e-05
0.000139115
0.0001392
0.000152305
0.000143093
0.000155956
0.00015001
0.00014544
0.000149078
0.000144721
0.000153366
0.00014716
0.000200663
0.000139104
0.000188981
0.000149095
0.000200373
0.000141531
0.000148583
0.000144155
0.000138011
0.000171048
0.00016084
0.000158068
0.026304
0.000779489
0.0446551
0.0357393
0.000188037
0.0237196
0.000148826
0.000146807
0.0305718
0.0194689
0.000142893
0.027723
0.000140094
0.000195061
0.00483681
0.000155748
0.000190312
0.00959999
0.0272916
0.000143682
0.000177025
0.000141798
0.00468238
0.000156807
0.0406356
0.0140487
0.000149409
4.99781e-05
0.00272636
0.000147575
0.00343435
0.00636268
0.00015532
0.000140765
0.00287654
0.0303796
0.000140842
0.000166632
0.000150509
0.0156517
0.000211659
0.000148339
0.000141908
0.00142762
0.000143882
0.000144793
0.000151081
0.000139706
0.000486841
0.000165731
0.000163544
0.0343558
0.000144092
0.000186191
0.000148577
0.00240034
0.000185063
0.00456877
0.000141172
0.000162219
0.000141804
0.000146103
0.000155447
0.000147589
0.00779997
0.000153812
0.000140188
0.000142758
0.0060622
0.000140662
0.00341544
0.0100313
0.00763153
0.000148104
0.00014263
0.000143085
0.00587327
0.00015008
0.0121427
0.000144203
0.0284044
0.000155066
0.000151068
0.000117641
0.000148846
0.000146629
0.0291089
0.000194374
0.0359555
0.000147841
0.0382014
0.0284543
0.000148466
0.0306934
0.000149447
0.000159603
0.0245016
0.000156153
0.000182944
0.023814
0.000168988
0.000185645
0.000147227
0.00699357
0.000144753
0.00344352
0.000143013
0.0216862
0.000144925
0.000145555
0.000156655
0.0103272
0.000142992
0.000759547
0.000191048
0.0149535
0.000143758
0.000166111
0.0428101
0.000316399
0.000166235
0.000192775
0.000141529
0.000197568
0.0212076
0.000158002
0.00318248
0.000137115
0.000204682
0.017032
0.000143488
0.0179257
0.000143227
0.0347889
0.000305301
0.000156703
0.000157517
0.00350793
0.0081252
0.000144683
0.000153668
0.000139925
0.000148581
0.0304113
0.000189658
0.000178331
0.000148583
0.000162504
0.0384582
0.000217389
0.00776737
0.00183347
0.000142098
0.000144166
0.000208121
0.0172059
0.000916924
0.00816768
0.000211828
0.000172603
0.000192775
0.0412159
0.0278978
0.0065659
0.000140767
0.000191793
0.000178179
0.000193569
0.000146603
0.000159521
0.000187761
0.000275663
0.00779001
0.000147621
0.000278753
0.0333831
0.000180595
0.000144416
0.000144531
0.000273483
0.000143113
0.0457851
0.000163374
0.0001479
0.00023766
0.00052911
0.00013901
0.000171487
0.000164756
0.000146907
0.0433496
0.000194239
0.04585
0.000143452
0.0325344
0.000433383
0.000208617
0.000138022
0.000161378
0.000169598
0.000154036
0.000209448
0.000184685
0.0309668
0.00910891
0.000132226
0.00016008
0.000149505
0.000199318
0.0169482
0.000141097
0.000138798
0.000153752
0.000165983
0.000175118
0.000143834
0.000181776
0.000242537
0.000140721
0.000399272
0.000157754
0.0455311
0.000162195
0.00521776
0.012785
0.000163279
0.000159163
0.00320521
0.000143005
0.000183086
0.0282473
0.000166815
0.000207708
0.0001657
0.000181484
0.0139425
0.0375707
0.000147025
0.00496505
0.00507675
0.000138344
0.000196115
0.000187296
0.000215432
0.00685897
0.00472584
0.00619355
0.000200981
0.0287088
0.000161851
0.000184014
0.000140258
0.000149099
0.000147679
0.000141282
0.00014447
0.000261202
0.000137968
0.000196424
0.000203414
0.000142807
0.00691705
0.0357195
0.000136717
0.000149789
0.000141575
0.000153498
0.000175631
0.000144745
0.023273
0.000164556
0.000190086
0.00016215
0.000192561
0.000198516
0.000176023
0.000305673
0.000146958
0.000153945
0.000137627
0.000142925
0.0421242
0.000191121
0.000165611
0.0254071
0.000148996
0.000151293
0.000171582
0.000140452
0.000144016
0.000197924
0.000159124
0.0272466
0.0354504
0.0241007
0.000147229
0.024872
0.000143758
0.000200047
0.000138837
0.000197569
0.0108274
0.000145256
0.000192955
0.0263558
0.000169396
0.00015262
0.000141465
0.00016338
0.0184229
0.000139466
0.00014956
0.000152036
0.000159104
0.000207374
0.00015537
0.000159715
0.000141893
0.000150808
0.00345866
0.000169849
0.000156104
0.000198732
0.00027138
0.0413704
0.00136875
0.000158602
0.000152946
0.0281523
0.000146997
0.000185138
0.000147855
0.0303764
0.000150623
0.00015053
0.000183903
0.0303646
0.000144096
0.000141171
0.000137252
0.000202109
0.00835334
0.000207096
0.00014465
0.000156867
0.000140924
0.0339309
0.000145894
0.0106729
0.00018105
0.000149017
0.000222537
0.000176914
0.00269074
0.000150429
0.000141233
0.000165861
0.000181356
0.000232929
0.000149159
0.000150916
0.000150072
0.0348932
0.000146365
0.000152526
0.0369268
0.000155186
0.000185132
0.000157615
0.000144556
0.000145259
0.00546074
0.00015464
0.0133355
0.00596
0.00013465
0.0201594
0.00015054
0.000200424
0.000181704
0.000153662
0.000138297
0.000134393
0.000144659
0.00637962
0.000177182
0.0327477
0.0316439
0.00014176
0.000223766
0.00017215
0.00408598
0.000145044
0.00299668
0.0388098
0.0256606
0.000143549
0.000154163
0.000150947
0.00268537
0.0418175
0.000146749
0.000145283
0.00016566
0.0212053
0.000148692
0.000154335
0.000154837
0.000194791
0.00165026
0.000137546
0.030559
0.00016587
0.000144301
0.0136536
0.000181036
0.027339
0.00208836
0.000168687
0.000160628
0.0001535
0.000163469
0.00015171
0.00021492
0.000178249
0.000145444
0.00015726
0.00021911
0.0162026
0.000139283
0.00020769
0.0237667
0.0365176
0.000146118
0.000147645
0.00718626
0.0162221
0.000265815
0.000144725
0.0327166
0.000184071
0.000135494
0.0226676
0.000162541
0.000149603
0.000219414
0.000147582
0.000243426
0.000142269
0.000133239
0.000148506
0.000137224
0.0339048
0.00013772
0.000142478
0.000189336
0.000157827
0.000158966
0.000196752
0.000148092
0.000144726
0.000154508
0.000153011
0.00566875
0.0052601
0.000642288
0.00340642
0.000179162
0.00486854
0.000217715
0.035807
0.0264391
0.0337284
0.000141431
0.000169271
0.000145239
0.000148511
0.000143416
0.000150662
0.000208847
0.000181735
0.000174554
0.000142566
0.000144191
0.000180418
0.000149553
0.000150649
0.000148238
0.0361155
0.000166821
0.014109
0.000146989
0.0067007
0.000151232
0.000150003
0.000151683
0.0001746
0.000142576
0.000193631
0.0327821
0.00017452
0.0280016
0.00720644
0.000153487
0.000162396
0.00538931
0.00020577
0.000138833
0.000143031
0.000134645
0.0321137
0.000133173
0.000268425
0.000250717
0.000191827
0.000351662
0.000299652
0.000184022
0.0439763
0.000141009
0.000137048
0.00434066
0.0108686
0.000146241
0.000147185
0.0055941
0.000140865
0.00022783
0.000155874
0.000145325
0.000160337
0.000146746
0.000189926
0.0327439
0.0286311
0.000157909
0.000145403
0.000201103
0.000153234
0.000197116
0.00014108
0.000196961
0.000189434
0.000150622
0.000149272
0.000135151
0.000223173
0.000211182
0.00020956
0.00115275
0.000165275
0.0226078
0.000186145
0.000193545
0.0332746
0.000143943
0.0323904
0.00015244
0.0358583
9.26459e-05
0.0310398
0.0328051
0.000147914
0.000184369
0.00389349
0.000147698
0.0234761
0.000147755
0.000146968
0.000159568
0.000151221
0.000165496
0.000234381
0.00117201
0.0255029
0.000159927
0.000173715
0.000153503
0.000149533
0.000148269
0.00021338
0.000189091
0.019568
0.000178806
0.000138304
0.000139951
0.000151299
0.000227012
0.00015814
0.000152731
0.000158946
0.000211104
0.000166339
0.000180895
0.000183271
0.034094
0.00016474
0.000167635
0.000145051
0.000159666
0.000169792
0.000246765
0.00017882
0.000140445
0.0146116
0.000168474
0.000144357
0.000180118
0.0359361
0.00479636
0.000169555
0.000140975
0.0275406
0.000150944
0.000140788
0.000138634
0.00133766
0.00480156
0.000153376
0.00325359
0.0275869
0.000167524
0.000184861
0.000187585
0.0460022
0.000166162
0.0412593
0.000151061
0.000279445
0.000147364
0.0402958
0.000168742
0.000142127
0.0386994
0.000146463
0.000152703
0.0270099
0.011841
9.0364e-05
0.000152151
0.000156814
0.000153268
0.0132594
0.000144266
0.000142595
0.000146878
0.000178705
0.000144854
0.000172369
0.000167305
0.00167085
0.00541365
0.000151474
0.0237524
0.000166284
0.0360055
0.0285851
0.000146795
0.000149319
0.000158814
0.00924642
0.000208311
0.000188374
0.0349742
0.0303837
0.00435388
0.000152249
0.0080928
0.0256708
0.000209428
0.00454839
0.000148901
0.000146812
0.000146764
0.000153142
0.000143346
0.000167928
0.0288177
0.000171315
0.00646799
0.0133861
0.00315189
0.0228749
0.0416847
0.000163966
0.043226
0.000197952
0.000186402
0.000138658
0.000148092
0.000185297
0.024736
0.000153404
0.0268582
0.0404031
0.000142109
0.00014788
0.000147323
0.000207385
0.000151379
0.000190189
0.0329628
0.00013905
0.000143871
0.00014168
0.000152093
0.000190804
0.0314116
0.000173694
0.0171256
0.000206783
0.000142915
0.0054713
0.000225377
0.000146176
0.000669956
0.00458635
0.017
0.00015715
0.027055
0.000147194
0.0136268
0.0326868
0.000217453
0.0227983
0.00014333
0.000155747
0.000156873
0.000154754
0.0307984
0.000188663
0.000149178
0.000162044
0.00579737
0.0321441
0.000151353
0.000152802
0.0456995
0.0413026
0.000148899
0.000163719
0.000201926
0.000143635
0.000144214
0.00842924
0.000142762
0.000242707
0.00584241
0.0322956
0.000142346
0.000196747
0.000199578
0.000144012
0.000136366
0.0440598
0.000967888
0.000150025
0.000176595
0.000210313
0.000218763
0.0437505
0.00201644
0.000159997
0.00491736
0.00552842
0.000170412
0.000141887
0.000238374
0.000136817
0.000137437
0.0267686
0.000171842
0.000199028
0.000157144
0.000162081
0.000143106
0.000137785
0.000151277
0.00015215
0.0107152
0.000156683
0.00018062
0.0188921
0.000177983
0.000187521
0.0189334
0.0390117
0.0112916
0.000143315
0.000157929
0.000171039
0.00015958
0.000226488
0.00601682
0.000151138
0.000670381
0.0308281
0.000161615
0.000189777
0.000188523
0.000191186
0.000192677
0.000153443
0.000194727
0.000196879
0.000199617
0.000202489
0.000193379
0.000190987
0.000167666
0.000141814
0.000168235
0.000189831
0.000142626
6.96281e-05
0.0444076
0.000233975
0.0383248
0.000135927
0.000140485
0.000370638
0.0245524
0.000151839
0.000157449
0.000183443
0.0259073
0.00268971
0.000147665
0.000171258
0.000158783
0.016578
0.00534439
0.000156312
0.000384186
0.0323186
0.000192451
0.0411311
0.000198383
0.00251378
0.0441359
0.000130978
0.0415552
0.0348329
0.000153281
0.000192478
0.00020477
0.000159439
0.00014223
0.0139831
0.0142277
0.000142221
0.000142612
0.0143953
0.000807267
0.000196894
0.000149698
0.000216584
0.000202901
0.040028
0.0280642
0.000147536
0.000143963
0.000151639
0.000155689
0.0395107
0.00776731
0.0360511
0.000188644
6.72042e-05
0.00719264
0.000155697
0.000141591
0.0319366
0.000142923
0.0420589
0.000144283
0.0416127
0.000152766
0.000152714
0.00261298
0.000145992
0.000193616
0.00368963
0.000165869
0.000156167
0.0001532
0.00020725
0.0272065
0.000219403
0.0379244
0.000161319
0.000152426
0.000162335
0.000195646
0.0433361
0.0256641
0.000205719
0.00022265
0.000195288
0.0178892
0.000141239
0.000142629
0.00013923
0.000138678
3.45997e-05
0.000219234
0.00534833
0.000173889
0.000199068
0.000143812
0.00653138
0.000162671
0.0158616
0.000144538
0.000153768
0.000133444
0.0348877
0.000318654
0.0102685
5.16682e-05
0.000195159
0.000108781
0.0001349
0.000171641
0.000217396
2.8267e-05
0.000733357
0.000146125
0.000196731
0.000150987
0.000149559
0.00022378
0.00187621
0.000169039
0.000149975
0.000201509
0.000292749
0.0228968
0.019804
0.0378684
0.0330277
0.000143746
0.000186786
0.000148183
0.000197643
0.000144857
0.000210789
0.000154478
0.000180573
0.00449369
0.0033877
0.000157438
0.000229205
0.0350445
0.000195573
0.000155504
0.0282428
0.000193355
0.000149505
0.000150559
0.0315972
0.00016405
0.000215243
0.000494297
0.00392346
0.022017
0.000154126
0.0298466
0.0327781
0.00335526
0.0112867
0.000167108
0.000193162
0.000192021
0.0359335
0.000272446
0.00015135
0.00476153
0.000214118
8.57579e-05
0.000163523
0.0242787
0.000182661
0.00678847
0.00015967
0.00034111
0.000157475
0.0287959
0.000216431
0.00972179
0.015978
0.000140715
0.000133389
0.0309042
0.0409684
0.000238347
0.000151016
0.000174789
0.000169512
0.0279144
0.000232339
0.0346059
0.000160664
0.0341424
0.000212435
0.0107673
0.000151148
0.000188513
0.0258175
0.000159239
0.0001886
0.00013548
0.000157099
0.000148068
0.00492846
0.000143997
0.000147419
0.0436265
0.0169907
0.000138526
0.0424653
0.00015225
0.000148068
0.000143975
0.000142739
0.00014919
0.000745689
0.0440731
0.000139371
0.0212725
0.000185217
0.000177792
0.00527191
0.000189068
0.000159788
0.000166459
0.000143097
0.00471328
0.000170285
0.0426784
0.000168162
0.0260917
0.00322693
0.000190923
0.00165775
0.0336271
0.000139605
0.0251757
0.000184803
0.000185843
0.00019339
0.000144616
0.000243041
0.000210357
0.000147496
0.000280983
0.000143957
0.0340882
0.000198932
0.0105831
0.000206189
0.0002043
0.0430593
0.000148388
0.00014485
0.000183487
0.000154411
0.000149246
0.000149448
0.000162651
0.000143495
0.000142716
0.000153585
0.000175952
0.00015521
0.000163296
0.000156047
0.000180511
0.000192564
0.000156066
0.0355069
0.000155292
0.000143566
0.000190358
0.000174382
0.000156744
0.000143587
0.0136819
0.000154548
0.0304339
0.000155144
0.000203844
0.00014361
0.000147293
0.00022606
0.0451558
0.000186006
0.000172268
0.000135308
0.0401851
0.000148324
0.000142489
0.000187537
0.000156262
0.000205563
0.035255
0.000192674
0.000256056
0.000174344
0.0218382
0.000148039
0.000148611
0.000190361
0.00515364
0.000182663
0.000200782
0.0264934
0.000163216
0.00014803
0.000162745
0.00021803
0.000181407
0.00014774
0.000191767
0.000191366
0.0001875
0.000149025
0.000147609
0.00022169
0.000188096
0.00164572
0.00472373
0.000156102
0.000187343
0.000148989
0.000175783
0.00180011
0.000149465
0.000210491
0.000489425
0.000196499
0.0117335
0.000146932
0.000147019
0.000142862
0.0426874
0.000221284
0.000156243
0.000226177
0.000193305
0.000148762
0.000147484
0.000301056
0.0425999
0.000228565
0.0336459
0.000239259
0.000165173
0.000587435
0.000195082
0.000165153
0.0021262
0.000189301
0.0035772
0.000147349
0.000191847
0.000197528
0.000152689
0.0127232
0.000174115
0.000210731
0.000162382
0.000200672
0.000143506
0.0258878