/*--------------------------------*- C++ -*----------------------------------*\
| =========                 |                                                 |
| \\      /  F ield         | OpenFOAM: The Open Source CFD Toolbox           |
|  \\    /   O peration     | Version:  v2012                                 |
|   \\  /    A nd           | Website:  www.openfoam.com                      |
|    \\/     M anipulation  |                                                 |
\*---------------------------------------------------------------------------*/
FoamFile
{
    version     2.0;
    format      ascii;
    class       surfaceVectorField;
    location    "150";
    object      Uf;
}
// * * * * * * * * * * * * * * * * * * * * * * * * * * * * * * * * * * * * * //

dimensions      [0 1 -1 0 0 0 0];


internalField   nonuniform List<vector> 
20642
(
(0.442011 -0.00322957 -2.47733e-21)
(0.447076 -0.00444157 1.34844e-20)
(0.466017 -0.0021682 1.54435e-20)
(0.988753 0.0260093 0)
(0.986585 0.0284375 -2.55428e-21)
(0.99082 0.0296392 2.59715e-21)
(1.11501 0.0638251 1.95537e-20)
(1.1159 0.0658577 1.32505e-20)
(1.11819 0.0638667 2.00548e-20)
(1.03747 0.0155756 0)
(1.03735 0.0162487 0)
(1.0367 0.0155939 1.41756e-21)
(1.00522 0.0190739 0)
(1.00505 0.0213124 2.96966e-21)
(1.00726 0.0203718 -1.33966e-21)
(0.991821 0.023143 8.84549e-22)
(0.988349 0.020909 -3.12927e-21)
(1.05376 0.0323571 -4.20297e-21)
(1.05277 0.0315785 -3.68541e-21)
(1.05276 0.0327187 -3.36084e-21)
(0.974558 0.088684 2.57166e-21)
(0.965873 0.093565 2.99065e-21)
(0.978237 0.0986574 2.43886e-21)
(1.06584 0.0205846 -7.17824e-21)
(1.06511 0.0211873 2.70248e-21)
(1.06626 0.0216458 -1.54704e-20)
(0.0321984 -0.114149 5.16128e-21)
(0.073047 -0.150054 -6.78471e-21)
(0.983248 0.0855794 1.85691e-21)
(0.973552 0.0804575 4.64881e-22)
(1.02641 0.013738 -3.04879e-22)
(1.0267 0.0142823 -1.00563e-21)
(1.02704 0.0138472 -9.5681e-22)
(1.01174 0.000229917 0)
(1.01194 0.000155156 2.06528e-21)
(0.988048 0.272935 -5.62593e-24)
(0.98574 0.293902 -3.36317e-21)
(1.01513 0.274886 0)
(1.01076 0.0123717 -4.79973e-22)
(1.00958 0.011922 0)
(1.00979 0.0135127 0)
(0.43185 -0.00326017 -1.93956e-20)
(0.40205 -0.00673342 -6.19662e-21)
(1.00137 -0.000113119 0)
(1.00132 -0.000126931 0)
(1.0005 -7.40311e-05 0)
(0.99105 0.0823589 5.69977e-22)
(0.998313 0.0787949 -1.17293e-21)
(0.989971 0.0750023 7.35685e-22)
(1.09428 0.0814385 9.8003e-22)
(1.09679 0.0815869 -2.97873e-21)
(1.09524 0.083888 4.76171e-21)
(0.357698 -0.0438695 2.56071e-20)
(0.437861 -0.0434564 -6.29896e-21)
(0.442368 -0.0287232 6.50983e-21)
(1.02913 0.0385572 -3.0684e-22)
(1.03011 0.0391911 0)
(1.02904 0.0396306 0)
(1.01165 0.00991532 -3.17693e-23)
(1.01182 0.00994507 -1.67507e-22)
(1.0119 0.0102664 1.51227e-22)
(1.0638 0.057168 -9.40855e-21)
(1.06491 0.056249 -9.95379e-21)
(1.06505 0.0583163 5.60668e-21)
(1.01147 0.00977843 1.62024e-22)
(1.01146 0.00951922 2.72125e-23)
(1.03461 0.0236518 -7.46656e-22)
(1.03512 0.0241541 -2.65316e-21)
(1.0344 0.0240539 1.16264e-21)
(1.0285 0.0436375 8.20722e-22)
(1.02865 0.0421892 8.60799e-22)
(1.02694 0.0425877 4.39485e-22)
(0.665848 -0.14487 -4.89906e-22)
(0.724236 -0.128251 1.08442e-20)
(0.741123 -0.142196 -7.96028e-21)
(0.0301054 -0.0847464 -1.09271e-20)
(1.01816 0.0617304 0)
(1.02097 0.0588948 1.22073e-21)
(1.01617 0.0579292 -6.83989e-22)
(1.01708 -0.00240182 -1.69797e-22)
(1.01732 -0.00243933 -4.01937e-23)
(1.01691 -0.00233612 -1.43757e-23)
(0.0108323 -0.0547015 -2.64662e-21)
(0.0435816 -0.083513 -1.56072e-20)
(1.08611 0.0586644 -1.07477e-21)
(1.08711 0.0584877 -1.37814e-20)
(1.0865 0.0594744 -4.49232e-21)
(1.03272 0.0185141 -2.64125e-21)
(1.0321 0.0180487 -1.1514e-21)
(1.03276 0.0179418 2.88218e-23)
(0.512614 0.00794528 0)
(0.530519 0.0102118 1.24955e-20)
(0.528972 0.0106469 -7.97477e-21)
(1.00765 0.00156877 2.76348e-22)
(1.00764 0.00143975 4.11991e-22)
(1.00783 0.00135981 -2.3182e-22)
(0.955279 0.0928066 -2.08845e-21)
(0.959441 0.105345 -2.95001e-21)
(1.02204 0.0249362 -2.85055e-22)
(1.02264 0.0254726 3.78979e-24)
(1.02197 0.0257468 -3.64983e-22)
(1.00077 0.000105528 -4.53516e-23)
(1.00255 0.000251191 4.06776e-23)
(1.00061 7.53181e-05 3.7865e-22)
(1.05476 0.033093 2.46035e-21)
(1.05462 0.0319302 0)
(1.03251 0.0351355 2.26306e-23)
(1.03213 0.0348073 -3.55139e-23)
(1.03204 0.0354071 1.96218e-23)
(1.00173 -0.000115291 3.34659e-23)
(1.00142 -6.61775e-05 -7.43753e-23)
(1.00289 -8.52201e-05 1.58578e-22)
(1.01103 -0.00231714 3.95371e-23)
(1.01163 -0.00256002 -1.60609e-22)
(1.01103 -0.00262159 1.88176e-23)
(1.06053 0.0162089 -1.1691e-20)
(1.0594 0.0167709 -1.05103e-21)
(1.05946 0.0154845 8.92652e-21)
(1.09647 0.0702704 -3.3526e-21)
(1.0964 0.0689351 -1.12525e-21)
(1.09791 0.069923 0)
(1.09473 0.0707729 -7.27025e-21)
(1.09624 0.0722056 -3.46232e-21)
(0.985457 0.168109 0)
(0.992681 0.162639 2.4559e-21)
(0.992843 0.1769 0)
(1.02819 0.0376703 -2.45385e-23)
(1.02923 0.0374814 -4.05836e-23)
(0.437885 -0.015454 2.42514e-20)
(0.485239 -0.0111904 3.61563e-20)
(0.496473 0.0210667 5.74895e-20)
(0.734476 0.046986 0)
(0.740887 0.0846053 0)
(0.7581 0.0526168 -2.17013e-21)
(1.00756 0.00173611 -6.03478e-22)
(1.00769 0.00165131 -4.17614e-22)
(1.02585 0.0137096 1.09042e-21)
(1.02611 0.0132962 2.4184e-21)
(1.03761 0.118817 5.99799e-21)
(1.03318 0.122931 -2.49648e-21)
(1.03174 0.116479 -2.65627e-21)
(0.29931 -0.00253408 -3.33263e-21)
(0.380453 -0.00122211 1.81365e-20)
(0.296193 -0.00333653 8.70728e-21)
(1.01879 0.0135811 5.12203e-22)
(1.01861 0.0131429 -2.30093e-23)
(1.01834 0.0133041 2.94448e-22)
(1.01998 0.0146492 -2.3688e-22)
(1.01974 0.0141918 7.42381e-22)
(1.02023 0.0143743 -1.56686e-22)
(1.04067 0.115821 -4.13303e-21)
(1.04234 0.121691 1.29847e-20)
(0.123728 -0.0190036 2.23692e-20)
(1.06245 0.0578592 7.66563e-21)
(1.06265 0.0558056 1.40519e-20)
(1.01056 -0.00215767 8.03804e-23)
(1.01095 -0.00200642 -2.60097e-22)
(0.976626 0.175804 0)
(0.975013 0.160373 0)
(0.535348 0.249103 -1.11486e-20)
(0.494221 0.258414 2.40836e-21)
(0.489849 0.249617 -1.80324e-20)
(1.01381 -0.0143647 -8.85761e-22)
(1.01043 -0.0151 0)
(1.01151 -0.0109765 -3.05816e-22)
(1.00599 -0.000134306 0)
(1.00624 -9.47e-05 0)
(1.00708 -0.000138924 -7.91874e-23)
(1.03485 0.0231044 -2.29553e-21)
(1.03407 0.0231026 -7.78336e-23)
(0.860093 0.053546 8.28219e-21)
(0.861815 0.0555284 2.18971e-20)
(0.831216 0.0518509 3.67158e-20)
(1.01001 -0.00577611 1.06202e-21)
(1.01332 -0.00669052 2.31745e-21)
(1.01244 -0.0032493 -1.93436e-22)
(1.01534 0.0650023 0)
(1.01175 0.0682597 1.42158e-21)
(1.00988 0.063478 0)
(0.953075 0.0814827 5.84641e-22)
(0.945183 0.0913795 -5.70049e-22)
(0.993205 0.0906436 1.68285e-21)
(0.435816 0.0018138 -7.1149e-23)
(0.419294 0.000857213 -4.69484e-23)
(0.416273 0.000615285 -4.00919e-22)
(0.979943 0.0635281 0)
(0.996809 0.0659387 1.09981e-20)
(0.951168 0.0610004 1.24169e-20)
(0.498378 0.00594945 0)
(0.497173 0.0068077 -1.22701e-20)
(1.0337 0.00669049 -3.16887e-22)
(1.03449 0.0069258 1.34145e-21)
(1.03369 0.00718832 -3.94572e-21)
(1.0101 -0.00203554 2.70412e-22)
(1.01014 -0.00221109 -5.67458e-22)
(1.03132 0.0396959 3.81568e-22)
(1.03113 0.0387306 4.62248e-22)
(1.03085 0.0256413 -1.6519e-21)
(1.03128 0.026194 -1.3621e-21)
(1.03049 0.0259271 2.3165e-21)
(1.01108 0.0143924 -7.00811e-22)
(1.01137 0.0150868 4.07091e-22)
(1.01186 0.0145447 -5.30065e-22)
(1.00972 -0.00196618 -4.96433e-22)
(1.01003 -0.00189217 2.70077e-22)
(1.03124 0.0251658 0)
(1.03034 0.0250628 -7.49916e-22)
(1.03271 0.0188335 -3.60378e-22)
(1.03326 0.0188122 2.67642e-21)
(1.01584 0.0146136 -9.2451e-23)
(1.01556 0.0142476 0)
(1.01579 0.0142018 0)
(1.00097 -8.59102e-05 -3.85708e-22)
(1.00103 -8.68651e-05 3.70434e-22)
(1.00016 -6.58806e-05 5.46133e-25)
(1.03373 0.00615319 5.85874e-21)
(1.03292 0.00639056 -5.27305e-22)
(0.940773 0.0474652 -1.53014e-20)
(0.980925 0.0490801 8.96112e-21)
(0.974379 0.0477884 0)
(1.01297 0.00232536 -1.1231e-21)
(1.01305 0.00261476 1.67932e-22)
(1.0127 0.00247673 9.87698e-22)
(1.0466 0.124613 -3.72863e-22)
(1.05676 0.131372 -2.08898e-21)
(1.04212 0.136092 1.89737e-22)
(1.08578 0.0574937 5.09983e-21)
(1.08489 0.0585782 -3.08553e-22)
(1.01261 0.00134263 0)
(1.01233 0.00135059 0)
(1.01184 0.000993354 0)
(1.03261 0.0354785 1.49271e-22)
(1.03283 0.0351767 -1.2526e-22)
(1.00129 -9.71604e-05 0)
(1.00206 -0.000172664 -2.15337e-22)
(1.00341 -0.000289148 2.40733e-22)
(1.0033 -0.000277855 -1.4332e-22)
(1.00376 -0.000315539 5.98082e-22)
(1.06141 0.0171741 -1.21235e-20)
(0.734406 0.00468288 0)
(0.723558 0.0263664 -1.21978e-21)
(1.00717 0.00107553 -8.04976e-22)
(1.00733 0.00101391 -9.25686e-22)
(1.0071 0.00100554 -6.96744e-22)
(1.01945 0.0171847 3.0065e-22)
(1.01903 0.0167279 2.02794e-22)
(1.01907 0.0172801 4.82925e-22)
(1.02087 0.0659713 6.92908e-22)
(0.895247 -0.133499 -1.15209e-21)
(0.949744 -0.117603 -1.4002e-22)
(0.974281 -0.103202 -1.5019e-22)
(1.00076 1.45396e-05 3.61887e-22)
(1.00078 1.1227e-05 -4.25233e-22)
(0.999737 -6.39079e-06 3.35049e-22)
(1.01286 0.00157923 -7.43648e-23)
(1.0128 0.00129968 0)
(1.05684 -0.0428207 -4.69887e-21)
(1.05844 -0.0264359 0)
(1.07035 -0.0328007 0)
(1.0045 -9.13014e-05 1.50415e-22)
(1.00442 -0.00011191 1.13118e-22)
(1.00326 -4.66055e-05 1.63833e-22)
(1.00465 -0.000103865 6.4476e-24)
(1.00543 -0.000235458 1.2202e-23)
(1.01588 0.0149468 -1.88884e-22)
(1.0161 0.0149119 5.13879e-23)
(1.00244 0.000177448 -1.08586e-24)
(1.00239 0.000161223 -5.57571e-22)
(1.00165 0.000123454 -1.83455e-22)
(1.01083 0.0134464 3.00803e-23)
(1.01027 0.0138258 8.7753e-22)
(0.963142 0.0442663 9.01029e-21)
(0.959204 0.0442991 9.92699e-21)
(0.924094 0.0474095 1.2336e-20)
(0.61688 -0.0145698 4.48529e-22)
(0.600515 -0.0215815 0)
(0.59004 -0.0308197 0)
(1.01786 -0.012241 2.61457e-21)
(1.01923 -0.0173249 -6.51049e-23)
(1.01224 -0.00230502 -7.23463e-22)
(1.01227 -0.00285099 5.11372e-22)
(0.616018 -0.165309 1.11902e-21)
(0.600489 -0.14378 1.55662e-20)
(1.01909 0.000243712 -8.80628e-22)
(1.01922 0.000236539 6.5085e-22)
(0.551257 0.012634 1.2313e-20)
(0.534625 0.00993241 1.12989e-21)
(1.02287 0.0560242 -1.05352e-21)
(1.02539 0.0592226 1.08941e-21)
(0.852924 0.0524102 -1.95889e-20)
(0.891907 0.0574174 -4.14507e-20)
(1.0293 0.0271579 -5.00676e-22)
(1.02983 0.0276631 -1.27836e-21)
(1.0297 0.0267948 2.04913e-21)
(1.09174 0.0813139 4.70241e-21)
(1.09323 0.0793934 3.85026e-21)
(1.00401 -0.000251301 -1.64149e-22)
(1.0046 -0.00029224 0)
(1.00413 -0.000262615 0)
(1.11474 0.0716891 -5.05208e-21)
(1.11456 0.0693235 -9.83466e-21)
(1.11218 0.0711114 -1.68864e-20)
(1.03241 0.00294199 6.68308e-21)
(1.03254 0.0034753 2.01281e-21)
(1.03181 0.00312161 -3.26881e-21)
(1.00172 -0.000102574 -3.19238e-22)
(1.00081 -8.45932e-05 5.02039e-22)
(1.00909 -0.00195752 4.76984e-22)
(1.00877 -0.00189211 -6.97498e-22)
(1.00878 -0.00184586 2.41324e-22)
(1.00794 0.0715957 -1.49292e-22)
(1.01434 0.0734698 -1.04847e-21)
(1.07267 0.0938119 -4.90593e-21)
(1.06988 0.095364 7.86775e-21)
(1.0702 0.091533 -8.24828e-21)
(0.391078 -0.000690507 -2.3514e-21)
(0.411018 0.00187909 7.89983e-21)
(0.395241 -0.000523786 -9.57483e-22)
(0.915326 0.0478869 -1.25401e-20)
(0.909378 0.0477474 1.29077e-20)
(1.03505 0.0226301 -2.85306e-21)
(1.03525 0.0221303 -1.37231e-21)
(1.03455 0.0220921 -2.90373e-21)
(1.03148 0.0409298 2.98212e-22)
(1.03255 0.0401083 -5.11126e-24)
(1.00761 0.00406675 -6.29478e-24)
(1.00748 0.00389518 3.60026e-22)
(1.00746 0.00393359 3.42266e-22)
(1.0746 0.0917048 -1.14487e-20)
(1.07527 0.095271 -8.88494e-21)
(1.07177 0.0371245 -8.65434e-21)
(1.07147 0.0381382 0)
(1.07275 0.0377517 -2.31674e-21)
(0.915067 0.0514423 3.5999e-21)
(0.925477 0.0570504 -5.92987e-21)
(0.912604 0.0629358 -4.61936e-21)
(0.676773 0.0344606 -9.64068e-21)
(0.646552 0.0326525 -3.34845e-21)
(0.652988 0.0320926 -9.03503e-21)
(1.02885 0.0276136 2.78895e-21)
(1.02868 0.0266937 3.96708e-22)
(1.08936 0.0619433 -7.14191e-21)
(1.08941 0.0629645 2.14088e-20)
(1.09052 0.0621715 -2.4299e-21)
(0.575047 -0.187841 -1.45218e-21)
(0.637296 -0.181141 -7.26035e-21)
(0.44762 0.278663 0)
(0.496178 0.269533 0)
(0.494806 0.276289 -7.62323e-22)
(0.358373 0.00240836 -4.68947e-21)
(0.355253 0.00202836 -5.61889e-21)
(0.375182 0.00463363 -1.6213e-20)
(1.02761 0.0472169 -6.95406e-23)
(1.02826 0.0452694 8.60424e-22)
(1.02584 0.0459007 2.67142e-22)
(1.00065 0.000132503 -4.66359e-23)
(0.962216 0.273477 -1.18209e-21)
(0.980277 0.261013 -6.09432e-21)
(0.978046 0.2666 -1.70765e-20)
(1.00941 -0.00197207 -2.295e-22)
(1.00935 -0.00188957 -5.17904e-23)
(0.958059 0.0465909 -1.40252e-20)
(0.999014 0.0449439 -2.47959e-21)
(1.01088 0.00703403 -5.4255e-23)
(1.01064 0.00675777 -5.10056e-24)
(1.01072 0.00701262 2.74846e-23)
(1.03123 0.00649949 -3.13707e-21)
(1.03185 0.00681592 -8.28764e-22)
(1.03127 0.00703987 -3.51901e-21)
(1.01862 0.000256501 -2.24709e-22)
(1.01709 0.00146655 3.12457e-22)
(1.01658 -0.000388253 9.65388e-22)
(1.00176 0.0635954 9.60773e-21)
(0.958572 0.0608135 -7.31182e-21)
(0.949524 0.140087 -1.88769e-20)
(0.482868 -0.0330648 4.1085e-21)
(0.485311 -0.0410671 3.17378e-21)
(0.436526 -0.0661344 -1.44535e-20)
(1.01926 0.0139138 -1.98372e-22)
(1.01896 0.0140859 9.33811e-23)
(1.03262 0.0355995 2.84143e-22)
(1.03259 0.0356442 -1.30293e-22)
(1.03266 0.0356312 -1.07333e-22)
(1.00498 -0.000138682 4.62863e-23)
(1.00515 -0.000143738 -7.06555e-23)
(1.00613 -0.000190772 -1.21791e-22)
(1.03062 0.0062172 7.82385e-22)
(1.03116 0.00597495 0)
(0.825663 -0.156997 -5.69755e-21)
(0.850255 -0.149469 -2.56649e-20)
(1.00988 0.00853376 -6.82372e-23)
(1.00982 0.00876787 -3.33931e-22)
(1.00971 0.00829427 -3.45737e-22)
(1.00248 0.000164963 -7.38256e-22)
(1.00285 0.000150124 -2.26048e-22)
(0.633483 0.0338494 2.47217e-21)
(0.626072 0.0332167 1.07607e-20)
(0.606886 0.0310527 6.63201e-21)
(1.00305 -0.00014666 -2.94371e-22)
(1.00312 -0.000143655 6.39472e-22)
(1.00203 -8.70342e-05 8.66981e-24)
(1.00382 -0.000241409 -2.3822e-22)
(1.00319 -0.00022917 -1.68436e-22)
(1.01213 0.0049673 -1.98253e-21)
(1.0123 0.00526846 -2.59122e-22)
(1.01192 0.00510276 -7.49285e-22)
(0.826488 0.104429 1.58368e-20)
(0.833336 0.0983704 2.06358e-20)
(0.800539 0.0943602 1.86026e-20)
(1.01618 0.0275401 0)
(1.01722 0.0273899 0)
(1.01624 0.0264154 4.50346e-22)
(0.944909 0.26965 1.04003e-20)
(0.651802 0.174111 2.52462e-21)
(0.654385 0.164867 -6.24217e-21)
(0.680902 0.163427 -1.14642e-20)
(1.05299 -0.0785027 8.35691e-22)
(1.05761 -0.0675642 -4.07985e-21)
(1.07819 -0.0594901 3.59186e-21)
(0.301085 -0.00285178 -8.86094e-21)
(0.520641 0.196971 -3.01553e-20)
(0.554848 0.194607 1.93718e-21)
(0.51446 0.205742 2.39442e-20)
(1.01031 -0.000667031 1.34144e-23)
(1.01048 -0.000734249 3.88762e-24)
(1.01044 -0.000685102 7.33305e-24)
(1.02673 0.0494676 -9.35849e-22)
(1.02945 0.0486731 6.5978e-22)
(1.0114 0.00984805 4.86654e-22)
(1.01134 0.00990709 1.16333e-22)
(1.01165 0.0102078 3.96353e-22)
(0.679506 0.0303515 1.44571e-20)
(0.68262 0.0315058 -2.07438e-21)
(0.652268 0.0284381 -2.09915e-21)
(1.0655 0.0194713 2.62283e-21)
(0.623018 0.245561 3.7281e-21)
(0.576048 0.248832 4.94913e-21)
(0.588811 0.256375 9.52436e-21)
(1.02056 0.0731037 1.64239e-21)
(1.02325 0.0729271 2.61573e-21)
(1.02165 0.07651 2.82088e-21)
(1.00399 -0.000126604 0)
(1.00481 -0.000172118 -4.94292e-22)
(1.00375 -0.000115885 0)
(1.03826 0.0156628 -2.10851e-21)
(1.03766 0.0150578 4.24131e-22)
(1.02959 0.127474 -3.79827e-21)
(1.02538 0.132779 -3.67143e-21)
(1.02324 0.125575 6.68905e-22)
(1.07198 0.0359636 -9.79368e-21)
(1.07076 0.0363494 2.80721e-21)
(1.01612 0.0288246 2.86672e-22)
(1.01513 0.0275968 0)
(1.05857 0.0171476 -5.10319e-21)
(1.0576 0.0164718 9.1105e-21)
(1.05746 0.0176239 0)
(1.01117 0.00953043 0)
(1.0254 0.0136451 1.08711e-21)
(1.02566 0.014081 1.74219e-22)
(1.07081 0.150466 1.90494e-21)
(1.07358 0.145098 -1.6109e-20)
(1.07552 0.151362 2.15453e-20)
(1.11508 0.0739072 1.04702e-20)
(1.11627 0.0721295 1.14224e-20)
(0.916217 0.0385843 5.95771e-21)
(0.899658 0.0435584 1.18042e-20)
(1.02508 0.0131901 5.79665e-22)
(1.02486 0.0135663 1.14147e-21)
(1.06908 0.158091 -5.68774e-21)
(1.06331 0.150998 7.06577e-21)
(1.01721 -0.00245034 -1.01834e-22)
(1.01675 -0.00236254 -3.66961e-23)
(1.03858 0.117936 -6.72158e-22)
(1.05185 0.113002 -2.73564e-22)
(1.0184 0.0698338 9.20175e-23)
(1.01641 0.0736239 1.24912e-22)
(1.09316 0.0709093 -3.6139e-21)
(1.09342 0.0694235 -2.44163e-21)
(1.07487 0.128733 -1.36759e-20)
(1.07458 0.123866 -6.41275e-21)
(1.06988 0.126049 -2.90215e-21)
(0.448448 -0.00576313 -1.04641e-20)
(0.469404 -0.0056787 -1.75246e-20)
(0.44736 -0.0078595 1.71134e-21)
(1.00727 0.00111982 5.30642e-22)
(1.00708 0.00112821 -1.77529e-22)
(0.403333 0.00104137 1.66174e-20)
(0.418775 0.0025707 8.18804e-23)
(0.399038 -1.90255e-05 -2.15039e-21)
(1.03845 0.0315091 -9.9466e-22)
(1.038 0.0319459 -1.76205e-21)
(1.03778 0.0311649 -8.11139e-22)
(0.708288 0.0361117 5.00136e-21)
(0.702086 0.0365168 0)
(1.00767 0.00131606 -4.09228e-23)
(1.00745 0.00145226 -7.85002e-22)
(1.00994 0.00829683 3.18544e-22)
(1.01008 0.00871452 9.52073e-22)
(1.0278 0.0360118 7.5247e-22)
(1.02861 0.0358033 -2.24344e-22)
(1.02794 0.0351561 -6.2124e-23)
(0.420391 -0.000208742 2.15245e-21)
(0.420625 0.00051663 2.16125e-21)
(0.439426 0.00156527 3.74829e-22)
(0.358941 0.00190366 7.59641e-21)
(0.332695 0.000112269 -3.12792e-21)
(1.01956 0.0221554 -6.63154e-24)
(1.01954 0.0228447 -5.12231e-23)
(1.01896 0.0221771 4.62428e-23)
(0.70834 -0.08739 -1.23894e-20)
(0.763732 -0.084838 1.33424e-20)
(0.702791 -0.069747 7.66635e-21)
(1.01169 0.0437674 -1.02816e-21)
(1.00942 0.0422203 0)
(1.01175 0.0410637 6.25194e-22)
(1.03245 0.035742 1.26761e-22)
(1.0094 -0.00208283 5.3764e-22)
(1.03542 0.129031 1.79263e-21)
(1.01532 0.01387 -3.82605e-23)
(1.01535 0.0142201 3.60935e-22)
(1.00616 0.00272421 -2.10348e-22)
(1.00602 0.00260608 -8.06793e-22)
(1.00604 0.00256825 -7.09977e-22)
(0.995185 0.0282211 8.37694e-22)
(0.994999 0.0245773 1.38351e-21)
(0.998915 0.0268369 -1.2504e-21)
(0.991361 0.0302083 3.93569e-22)
(0.996344 0.0332214 2.40169e-21)
(0.543409 0.00461661 3.92172e-21)
(1.0883 0.0616307 4.31675e-21)
(1.08939 0.0610347 -1.28847e-20)
(1.0301 0.0445502 0)
(0.73574 0.037897 -2.07151e-21)
(0.738762 0.040514 1.23687e-20)
(0.765604 0.046871 1.18044e-20)
(1.00636 0.000624195 -1.77715e-22)
(1.00553 0.00052863 -5.17088e-22)
(1.00714 0.000696368 9.5126e-22)
(1.00706 -0.00189446 -1.23282e-21)
(1.00712 -0.00191437 -3.68605e-22)
(1.00683 -0.00179806 -1.59737e-22)
(1.00729 -0.00199087 -4.65342e-23)
(1.00701 -0.00185674 -4.12256e-22)
(0.527951 0.18312 -6.70665e-20)
(1.07391 0.140637 -1.22833e-20)
(1.07477 0.133814 -5.26333e-21)
(1.06875 0.137447 1.15314e-20)
(1.06852 0.165708 -8.82065e-21)
(1.06894 0.173968 -2.32518e-21)
(1.05888 0.166453 8.78105e-21)
(1.01878 0.0016341 0)
(1.01899 0.00183374 -3.12494e-21)
(1.01904 0.00158491 -1.7261e-21)
(1.0058 -0.000129608 3.61812e-23)
(1.00447 -0.000100055 -6.28431e-24)
(0.519901 -0.188915 -2.0964e-22)
(0.538441 -0.21266 5.36073e-21)
(0.406627 0.00153882 1.25703e-22)
(1.0062 -0.00152833 0)
(1.0064 -0.00158946 0)
(1.00628 -0.00154701 0)
(1.00596 -0.00144472 -4.34129e-22)
(1.0061 -0.0015029 0)
(1.00246 -0.000162895 1.91839e-22)
(1.00115 -7.59153e-05 1.66988e-23)
(1.00752 -0.00208544 2.45478e-23)
(1.00759 -0.00212006 3.93558e-22)
(1.00776 -0.00218321 -1.63074e-23)
(1.00748 -0.0020453 -3.95719e-22)
(0.481755 0.0037672 0)
(0.494049 0.00505214 7.26795e-21)
(0.591101 0.0292166 -3.59179e-20)
(0.597367 0.05612 -1.63977e-22)
(0.629831 0.0522436 -4.36208e-20)
(1.01381 0.0119531 -5.15702e-22)
(1.01366 0.0116703 1.89538e-22)
(1.01391 0.0119048 -2.8578e-22)
(1.01163 -0.00111976 2.05265e-23)
(1.01187 -0.00118498 1.2979e-23)
(1.0116 -0.00114237 -6.70647e-24)
(1.04539 0.0876205 3.24967e-21)
(1.04184 0.0869322 -2.10184e-22)
(1.04409 0.0846472 1.21686e-20)
(0.480703 0.00711841 7.9346e-21)
(0.467766 0.00516688 1.80073e-20)
(0.483948 0.00721237 -8.21571e-22)
(1.00291 -0.000179708 2.55287e-25)
(1.00208 -0.000105652 -2.06581e-23)
(1.00215 -0.000117666 -2.03554e-23)
(1.01854 0.0017204 -2.79716e-21)
(1.01858 0.00146392 1.96284e-21)
(0.71554 -0.108547 1.1099e-21)
(0.644224 -0.100632 -3.11094e-20)
(0.955129 0.0477159 -1.17585e-20)
(0.950721 0.048888 -1.33461e-22)
(0.991404 0.0478433 -7.7295e-21)
(1.07874 0.14148 -1.1934e-20)
(0.734738 0.0368061 -1.23656e-20)
(0.708496 0.0290657 -1.06163e-20)
(1.00652 0.0924716 1.23954e-21)
(1.00264 0.0886944 1.07815e-21)
(1.001 0.0939547 9.59558e-22)
(1.01102 0.00703295 5.60956e-24)
(1.0111 0.00727877 5.47753e-24)
(0.596935 0.180272 6.97643e-21)
(0.588787 0.189964 1.79988e-20)
(1.04856 0.0888556 2.33488e-21)
(1.04585 0.0913587 -3.12264e-21)
(1.02461 0.053831 -1.34132e-21)
(1.02083 0.0537162 -1.22776e-21)
(1.07922 0.0723561 -8.8047e-21)
(1.07996 0.073904 -5.15282e-22)
(1.08125 0.0724672 -2.17621e-21)
(1.01954 0.0215045 9.11993e-23)
(1.02012 0.0220419 1.64965e-22)
(0.588914 0.0120371 -4.13378e-20)
(1.03269 0.00393829 1.86287e-21)
(1.03219 0.00407809 2.12333e-21)
(1.03282 0.00444088 -3.41368e-21)
(1.03129 0.0439924 9.54854e-22)
(1.03009 0.0440062 5.74617e-23)
(1.03105 0.0450984 2.49903e-22)
(1.02562 0.0713251 -3.15497e-22)
(1.02841 0.0694267 -1.68305e-21)
(1.02507 0.0681798 1.41046e-22)
(1.01363 0.0120534 4.07099e-22)
(1.01372 0.0119745 -3.63177e-22)
(1.01345 0.0117933 6.80045e-22)
(1.00148 -2.69618e-05 1.97881e-22)
(1.03555 0.023168 1.85162e-21)
(1.00258 0.00966947 4.39561e-22)
(1.00402 0.00912751 7.35922e-22)
(1.00288 0.00742266 -2.28989e-21)
(1.00825 0.000968365 -5.48887e-22)
(1.00839 0.000978744 -1.13441e-21)
(1.00858 0.00100668 -4.91687e-22)
(0.444496 0.0064723 -1.70112e-22)
(0.431996 0.00457923 -9.64547e-21)
(0.427887 0.00442044 -2.90992e-21)
(0.778846 0.215341 -3.22271e-22)
(0.799781 0.209514 2.52867e-22)
(0.784377 0.195274 1.20459e-22)
(1.00819 -0.00180654 4.52151e-23)
(1.00792 -0.00162506 -2.49093e-22)
(1.00802 -0.00169544 -2.51363e-22)
(1.0058 -0.00135272 3.33995e-23)
(1.00575 -0.00134112 5.40436e-23)
(1.00995 0.00926321 3.70707e-22)
(1.00968 0.00904539 3.92495e-22)
(1.00586 -0.00137237 4.33321e-22)
(1.00566 -0.00127796 -3.9745e-22)
(1.03331 0.00378525 -5.79548e-21)
(1.01537 0.000351179 0)
(1.01118 0.000227708 0)
(1.04822 0.0485883 2.48153e-21)
(1.0486 0.050022 1.62197e-21)
(1.04714 0.0496227 -6.22884e-22)
(1.00848 -0.00199456 -5.59942e-22)
(1.00835 -0.0019542 4.02019e-22)
(0.359326 0.00441636 0)
(0.3767 0.00730323 0)
(0.631329 -0.00599547 4.41638e-22)
(0.640948 0.000485508 -2.99468e-23)
(1.02164 0.0112165 -2.37183e-22)
(1.0218 0.0108591 3.28335e-22)
(1.02122 0.0108161 5.83326e-22)
(1.00698 0.0102014 4.88513e-22)
(1.00615 0.0109769 -4.72826e-22)
(1.00721 0.0114924 -4.95104e-22)
(0.970249 0.182836 -1.28783e-22)
(0.958217 0.174457 3.78776e-22)
(0.960291 0.191316 -2.42768e-22)
(1.00887 -0.00219553 0)
(1.00912 -0.00227811 -5.85692e-24)
(1.00882 -0.00215618 0)
(1.0597 -0.00839563 -2.68189e-21)
(1.05596 -0.0173712 -2.55853e-21)
(1.05052 -0.00738194 -1.60047e-21)
(0.461559 0.00887627 1.80223e-21)
(0.457155 0.00853858 1.79585e-21)
(1.00864 -0.00211975 0)
(1.00894 -0.00223759 0)
(0.452682 0.00364795 9.83366e-21)
(0.448935 0.00337257 -9.996e-21)
(1.00811 0.000923524 1.08654e-21)
(1.00795 0.000912386 7.35664e-22)
(0.861852 0.11494 -3.02113e-20)
(0.826013 0.11328 -1.02838e-20)
(1.00404 -0.000124034 1.85643e-22)
(1.00283 -7.22883e-05 0)
(1.01229 0.0133781 1.05927e-21)
(1.01292 0.0128486 -1.7515e-21)
(1.0129 0.0137643 -2.31431e-21)
(1.01358 0.0121079 4.04266e-23)
(1.0138 0.0122945 5.61863e-23)
(1.00998 0.00646085 1.3617e-22)
(1.00974 0.00620641 -2.64638e-22)
(1.00984 0.00622452 0)
(1.10055 0.104572 0)
(1.09849 0.10194 -1.9148e-20)
(1.10248 0.101214 1.65327e-20)
(1.00252 0.000277137 0)
(1.00256 0.000258537 2.27255e-22)
(1.00102 0.000127805 0)
(1.03691 -0.089761 -1.53988e-21)
(1.01427 -0.0975109 2.27825e-21)
(1.03578 0.0347493 1.77294e-23)
(1.0353 0.0350613 0)
(1.0353 0.0343362 0)
(1.02026 -0.00142419 1.62045e-22)
(1.02186 0.00105554 -8.24948e-24)
(0.835777 -0.0592117 -1.84468e-20)
(0.830359 -0.0783363 1.22898e-20)
(0.885093 -0.0687263 -2.68498e-21)
(0.344451 0.00216604 0)
(1.00353 -0.000232031 2.47256e-23)
(1.00357 -0.000219305 2.52663e-22)
(1.05478 0.0651011 8.64897e-21)
(1.05621 0.0666273 3.81272e-21)
(1.05682 0.0645928 -1.7273e-21)
(1.00308 0.0141694 -3.38537e-21)
(1.00248 0.0118292 -1.54767e-21)
(1.0043 0.0130642 -2.26109e-21)
(1.02853 0.028012 2.06992e-21)
(1.02811 0.0283614 -1.63798e-21)
(1.02793 0.0275416 3.61775e-22)
(1.00389 0.0168342 1.61369e-21)
(1.00588 0.0168013 0)
(1.03157 0.0248058 0)
(1.03196 0.0253727 -6.3701e-23)
(1.00748 0.000977791 -2.90284e-22)
(1.00763 0.000939441 -3.21984e-22)
(1.00738 0.000918871 -1.34297e-23)
(1.00339 0.000359553 1.74473e-22)
(1.00231 0.000250503 0)
(1.00982 0.122336 5.55498e-22)
(1.01195 0.129634 -6.27912e-21)
(1.01689 0.123641 3.31728e-21)
(1.04079 0.0254781 -8.81757e-22)
(1.04187 0.0341855 -2.38629e-22)
(1.03139 0.0280999 0)
(1.03251 0.0439788 6.72273e-23)
(1.03158 0.0430651 -8.8313e-22)
(1.03192 0.0244103 -1.39596e-21)
(1.03115 0.0242874 -8.03824e-22)
(1.01835 0.00174005 5.39122e-22)
(1.01819 0.00154168 1.79522e-21)
(1.01811 0.00175147 3.19024e-21)
(0.641097 0.033434 -2.93041e-21)
(0.663435 0.0354058 -6.43794e-21)
(0.413829 -0.00149752 -1.00085e-20)
(0.384965 -0.000587317 -9.02863e-21)
(1.00712 0.00337559 -3.04912e-22)
(1.007 0.00318585 -6.49911e-22)
(1.00697 0.00324927 3.88552e-23)
(1.01838 0.0025771 0)
(1.01666 0.0039591 1.71042e-22)
(1.01648 0.00158863 -3.20223e-22)
(1.02917 0.0284079 1.27166e-22)
(0.921631 0.0707362 1.28165e-21)
(0.913649 0.0544606 -6.51135e-22)
(0.932205 0.0557995 1.51012e-21)
(1.09823 0.0586258 6.07088e-21)
(1.09877 0.0582445 -5.74034e-22)
(1.09794 0.0581141 1.00019e-21)
(0.625158 -0.00278219 5.33018e-21)
(0.601573 -0.0105318 1.42014e-21)
(0.60335 -0.0157417 -2.92821e-21)
(0.648761 0.237949 -1.33894e-20)
(0.666119 0.244339 -7.1583e-21)
(1.01727 -0.0125278 0)
(1.01476 -0.00975867 3.76917e-22)
(1.01436 -0.0135551 0)
(0.938326 0.0634146 -6.01533e-21)
(0.939651 0.0525098 -5.98133e-21)
(1.00755 0.00968083 -8.38341e-22)
(1.00692 0.0089218 6.3477e-22)
(1.01762 0.0520061 8.40131e-21)
(0.986943 0.0511644 2.68893e-21)
(0.9089 0.0881459 1.61363e-21)
(0.930551 0.0851817 -8.77389e-22)
(1.11409 0.0617862 -5.8019e-21)
(1.11456 0.0635518 1.29966e-22)
(1.01523 0.000458558 1.28305e-21)
(1.0107 0.000107589 -2.79651e-23)
(1.01156 0.0129791 1.99154e-21)
(1.01162 0.0116384 1.15324e-21)
(0.786169 -0.115001 1.25175e-20)
(1.01081 0.00974883 -6.36556e-22)
(1.01098 0.00979826 -6.03551e-23)
(1.01104 0.0101285 0)
(0.984978 0.0330708 -2.1404e-22)
(0.982221 0.0291303 2.14005e-21)
(1.0916 0.071061 0)
(1.0928 0.0726598 1.09869e-21)
(1.00175 -0.000141442 8.48953e-23)
(1.00167 -0.000134664 -3.37843e-22)
(1.00084 -9.74042e-05 3.03143e-22)
(0.702387 0.0326227 4.75332e-21)
(0.672613 0.0295752 4.38916e-21)
(1.01286 0.00179909 3.62772e-22)
(1.0129 0.00209611 -1.15388e-21)
(1.01263 0.00194059 -4.04636e-22)
(1.0851 0.0407575 2.00875e-21)
(1.08619 0.0413417 9.18642e-21)
(1.01254 -0.00369996 0)
(1.0126 -0.00365364 0)
(1.01296 -0.00387014 0)
(0.245149 -0.0426578 3.65558e-21)
(0.270934 -0.0245374 1.56777e-20)
(1.00544 0.00189528 7.28936e-23)
(1.0053 0.00180157 -1.30803e-22)
(1.00534 0.00175892 5.59772e-23)
(1.03345 0.0440124 1.0565e-21)
(1.03369 0.0430596 1.9431e-21)
(1.03444 0.0438975 -9.75835e-22)
(1.0122 0.0460261 -2.3027e-21)
(1.01433 0.0443667 -2.74731e-22)
(1.01977 -0.0133985 0)
(1.0186 -0.0102052 -1.71645e-22)
(1.00261 -0.000180176 -6.13067e-22)
(1.00196 -0.000147555 0)
(1.08227 0.0712393 5.00664e-21)
(1.08343 0.0700978 -9.98635e-21)
(1.08171 0.0697249 5.97654e-21)
(0.982179 0.042546 -2.82951e-22)
(1.01901 0.0429348 -8.3302e-23)
(0.98539 0.0420967 8.512e-22)
(1.02008 0.0168895 -2.59935e-22)
(1.01974 0.0170672 -4.06477e-23)
(1.01968 0.0164018 -2.43069e-22)
(1.01062 0.00967727 -2.69539e-22)
(1.01062 0.00936195 -7.1676e-23)
(0.567946 0.0151458 -7.91742e-22)
(0.572132 0.0150653 -7.92578e-22)
(0.972288 0.0452498 -3.22028e-21)
(0.97863 0.0438829 -3.10559e-22)
(1.01306 0.0442818 9.81817e-21)
(0.870315 0.202148 1.05948e-20)
(0.896761 0.195589 1.3863e-20)
(0.851299 0.196933 -8.69731e-21)
(0.984708 0.244771 -9.79577e-22)
(0.962051 0.261656 -7.91181e-22)
(1.00841 -0.00204562 -6.09942e-22)
(1.00834 -0.00199577 1.70758e-22)
(1.01458 0.0124015 -4.47766e-23)
(1.01444 0.0120893 -1.2218e-22)
(1.01471 0.0123414 -1.84217e-22)
(0.946338 0.0503256 1.23064e-20)
(0.942435 0.0518389 -3.49484e-21)
(0.98321 0.0507282 -3.89409e-22)
(0.945669 0.0687951 1.40367e-21)
(0.935569 0.0735573 -4.84635e-21)
(1.00848 -0.00210699 6.33441e-23)
(1.00818 -0.00198876 -1.72674e-22)
(1.00114 0.0160061 1.6805e-21)
(1.0222 0.0137432 -8.93272e-22)
(1.02249 0.014209 0)
(1.02196 0.0139443 -8.86065e-22)
(1.045 0.042604 -7.79354e-22)
(1.04766 0.0441279 -4.4972e-22)
(1.04778 0.0404735 6.82804e-23)
(1.03322 0.0450193 7.56703e-22)
(1.06813 0.113724 -1.58414e-22)
(1.06871 0.109644 1.22858e-21)
(1.06449 0.110799 1.2215e-21)
(0.982097 0.0614326 4.3453e-23)
(0.986812 0.0575479 -1.67686e-21)
(0.988709 0.0635305 1.9411e-22)
(1.05928 0.000911056 0)
(1.0673 -0.00549138 1.81716e-21)
(1.08229 0.0423951 4.14654e-21)
(1.08149 0.04308 -9.27889e-22)
(1.08257 0.0434325 7.83685e-21)
(0.516881 0.00141818 0)
(0.498371 -0.000336635 9.98534e-21)
(0.513629 0.00297853 8.14971e-21)
(1.00778 0.00418838 1.64061e-22)
(1.00774 0.00421381 4.53495e-22)
(1.02052 0.0173655 -2.34404e-22)
(1.02041 0.016709 0)
(1.00315 0.0221471 1.16189e-21)
(1.00541 0.0237728 1.92059e-21)
(1.11335 0.0951651 0)
(1.1136 0.0919772 7.91223e-22)
(1.1156 0.0942228 0)
(1.00202 -0.000141305 -1.10701e-22)
(1.00113 -6.69043e-05 -1.45392e-22)
(1.00203 -0.000141542 2.54738e-22)
(0.414541 -0.0055185 -6.5329e-21)
(1.08311 0.0417801 -6.9956e-21)
(1.08188 0.0415063 -1.20894e-21)
(0.884132 -0.157294 4.21065e-21)
(0.890893 -0.137581 0)
(1.0198 0.0148532 -1.03647e-21)
(1.02025 0.0150293 9.82859e-22)
(0.960606 0.0630732 5.3607e-22)
(0.955113 0.0689535 4.67033e-21)
(0.964796 0.0708436 0)
(1.02059 0.00363609 0)
(1.01908 0.00132755 2.7944e-22)
(0.737323 -0.0399006 7.63628e-22)
(0.750291 -0.0822538 -7.87175e-21)
(0.741303 -0.0786868 7.76331e-22)
(1.01098 -0.00122205 0)
(1.01133 -0.00129696 5.37968e-22)
(1.01078 -0.00147727 0)
(1.07706 0.165033 -1.46776e-20)
(0.981305 0.191423 2.46391e-21)
(1.01015 0.0486595 6.48754e-22)
(1.01335 0.0491193 3.8648e-22)
(1.02149 0.011506 4.94313e-22)
(1.02206 0.0115898 -1.16639e-21)
(1.10102 0.094971 2.29623e-21)