/*--------------------------------*- C++ -*----------------------------------*\
| =========                 |                                                 |
| \\      /  F ield         | OpenFOAM: The Open Source CFD Toolbox           |
|  \\    /   O peration     | Version:  v2012                                 |
|   \\  /    A nd           | Website:  www.openfoam.com                      |
|    \\/     M anipulation  |                                                 |
\*---------------------------------------------------------------------------*/
FoamFile
{
    version     2.0;
    format      ascii;
    class       volScalarField;
    location    "100";
    object      k;
}
// * * * * * * * * * * * * * * * * * * * * * * * * * * * * * * * * * * * * * //

dimensions      [0 2 -2 0 0 0 0];


internalField   nonuniform List<scalar> 
13917
(
0.000165732
0.000149304
0.0652694
0.00015487
0.000148667
0.000191573
0.0616039
0.0679721
0.0793306
0.000173357
0.00020571
0.000186448
0.000155061
0.014469
0.000155155
0.000154163
0.000149666
0.000176047
0.000186087
0.000148671
0.000149761
0.0608823
0.000148557
0.0659837
0.000148172
0.0559229
0.00016133
0.000164
0.000207286
0.00018472
0.000167462
0.000158221
0.000159852
0.000154316
0.000148317
0.00091126
0.000148618
0.0465867
0.000158495
0.0201405
0.000147509
0.000149897
0.000145196
0.000167842
0.000149388
0.000155665
0.000175802
0.000183038
0.000382392
0.000147986
0.000159161
0.000149771
0.000442249
0.000154637
0.000149715
0.000158482
0.000204957
0.000148701
0.000155754
0.000149165
0.0858634
0.000149326
0.00771844
0.000148592
0.000190404
0.0330092
0.000148632
0.000148471
0.000204663
0.000163189
0.000148717
0.0788454
0.0436996
0.000148174
0.000395504
0.00019098
0.0309617
0.00015172
0.0504516
0.000149547
0.000149322
0.000148675
0.000187843
0.0510499
0.0466027
0.000151479
0.000149153
0.0129154
0.000158793
0.000145171
0.0482891
0.000179713
0.000147937
0.000151189
0.0216511
0.000187632
0.000196029
0.000180972
0.000205576
0.000169966
0.000146695
0.00015839
0.00016768
0.000152891
0.000146804
0.080126
0.00019323
0.000183901
0.000149701
0.000168249
0.0486537
0.0220295
0.000192452
0.0800964
0.000151052
0.000417687
0.000148018
0.000259507
0.0277639
0.00015457
0.000149812
0.000203612
0.0308906
0.000163388
0.000147797
0.000150882
0.00014907
0.000147863
0.000145228
0.000189817
0.0443507
0.000150889
0.000149475
0.000149814
0.0047669
0.0649187
0.00016584
0.000170482
0.000148586
0.000154429
0.000171955
0.000147065
0.000150343
0.000169956
0.000148483
0.071212
0.000211281
0.000149629
0.000146713
0.000158658
0.000179693
0.000423404
0.000190875
0.000163652
0.000158035
0.0249236
0.000162362
0.0119307
0.0251757
0.00566384
0.00015292
0.000161406
0.000149547
0.000195176
0.000191867
0.000204735
0.000152803
0.000180354
0.000148441
0.000158819
0.000164331
0.0265375
0.000195195
0.00015048
0.0582322
0.000164767
0.046949
0.000300639
0.0664338
0.000148037
0.000180979
0.000168376
0.000147045
0.000149093
0.00015787
0.0558551
0.000221228
0.0308186
0.000167162
0.000201537
0.000169306
0.0513935
0.000213952
0.000148635
0.000171491
0.000160998
0.000154014
0.000147995
0.000181269
0.00172374
0.000158899
0.000148092
0.000178858
0.000179527
0.0382
0.00134537
0.000148309
0.000148789
0.00018065
0.0597714
0.000150125
0.0626013
0.0279042
0.000201586
0.00014683
0.000198407
0.000177986
0.0299458
0.00014788
0.0823564
0.000147981
0.000183836
0.000147296
0.0496753
0.0808037
0.000154516
0.000408408
0.000158428
0.000146843
0.000853357
0.00019475
0.000166957
0.0632163
0.0228278
0.000146354
0.000158774
0.0531888
0.03577
0.000149492
0.000147569
0.0219853
0.000198693
0.000149757
0.000103777
0.000187964
0.000161152
0.000165039
0.00014949
0.000164032
0.025405
0.000149278
0.000185215
0.000172975
0.000148964
0.000148641
0.000185931
0.028353
0.000189494
0.000158056
0.000155412
0.00014979
0.0255259
0.0772114
5.13478e-05
0.000146887
0.0412938
0.0241241
0.0218394
0.049795
0.000192578
0.000149397
0.000147434
0.000176145
0.0427392
0.0001941
0.000155342
0.00197385
0.000175672
0.000145156
0.057525
0.0001485
0.0616647
0.000158227
0.000149722
0.000156575
0.000163604
0.000161557
7.68269e-05
0.000159919
0.000149603
0.000176287
0.0628914
0.0826132
0.000147874
0.0273549
0.000149085
0.0001496
0.000148056
0.000228284
0.000148572
0.00018568
0.000164355
0.000148338
0.000179177
0.000151886
0.000340846
0.000164448
0.000178384
0.000147813
0.000148568
0.0455762
0.0292634
0.000147989
0.000147373
0.0538557
0.000147934
0.0471883
0.000147692
0.0528183
0.000151482
0.00022183
0.000166196
0.000432265
0.000152532
0.000346381
0.000184176
0.000156604
0.00019845
0.00020009
0.000149577
0.0444291
0.000171025
0.0281773
0.000153564
0.0213609
0.000159554
0.0595116
0.000180708
0.000173027
0.000172407
0.065433
0.000149407
0.000164861
0.0536883
0.000149302
0.00015213
0.0257092
0.000184336
0.000150346
0.000105434
0.00020329
0.000146945
0.0239906
7.23682e-05
0.000148454
0.00014733
0.000149135
0.000146684
0.000191922
0.0630171
0.000207304
0.0509507
0.000148102
0.00018773
0.00851099
0.000173031
0.0617576
0.0478236
0.0807283
0.00014636
8.50176e-05
0.000147198
0.0753622
0.000149127
0.000448816
0.000187893
0.000156784
0.000149281
0.000179637
0.000182888
0.000182471
0.00061186
0.0543913
0.023426
0.000164505
0.000172433
0.000147612
0.0392246
0.0588128
0.000148813
0.000183171
0.000148255
0.000234301
0.000151447
0.000149477
0.000151862
0.0432823
0.000151783
0.0314415
0.0110324
0.000202799
0.000193965
0.000149519
0.000194392
0.000191124
0.00014817
0.000185982
0.000149228
0.00014823
0.000184578
0.00014972
0.000148223
0.000147166
0.000246726
0.000149625
0.0246836
0.0431557
0.00539388
0.000213045
0.0379776
0.0301227
0.000172638
0.000148116
0.000202681
0.000158076
0.000159949
0.000148586
0.0689842
0.0601014
0.0401505
0.000154023
0.000190985
0.000153176
0.000159195
0.000182444
0.000151228
8.5707e-05
0.000149683
0.000148542
0.052305
0.04531
0.0474972
0.000183459
0.00359361
0.0487499
0.0570154
0.0302407
0.000145411
0.000178342
0.000151323
0.000148929
0.000304125
0.000176371
0.000148612
0.000177646
0.00017107
0.0286818
0.000148143
0.000194375
0.0139844
0.000241975
0.0296377
0.000149678
0.00014885
0.000153904
0.000162358
0.000146374
0.0523185
0.000199616
0.000159912
0.03814
0.000158431
0.000195826
0.0620933
0.000212814
0.000202139
0.000150037
0.000194399
0.000176427
0.000201431
0.00017467
0.000207837
0.000206956
0.000178489
0.000186597
0.000147992
0.00191727
0.000160012
0.000146792
0.000161557
0.000152056
0.0311209
0.0799381
0.000147866
0.000145388
0.0556422
0.0248415
0.000149721
0.0244009
0.000152467
0.000201871
0.000147975
0.0360191
0.00319424
0.000158657
0.00015003
0.0410019
0.000209642
0.0125877
0.000149776
0.028803
0.000341274
0.0574804
0.000146899
0.0422938
0.0851236
0.000173274
0.000147289
0.000149621
0.000191184
0.000227136
0.000147938
0.000147337
0.000147571
0.000147534
0.036037
0.000467973
0.000172903
0.000217312
0.000147905
0.000146734
0.000190607
0.0763463
0.000164443
0.00014857
0.000148192
0.000148441
0.0634226
0.0564957
0.000149108
0.000148435
8.05387e-05
0.000174256
0.000166189
0.000148805
0.000151937
0.000156966
0.000186025
0.000193861
0.000220938
0.000203344
0.000189605
0.00113319
0.000178213
0.000147908
0.0298193
0.000148455
0.000152557
0.000155752
0.00195383
0.00016978
0.0001468
0.000246529
0.000187734
0.00802549
0.000189719
0.000160065
0.000172407
0.000149217
0.083897
0.00022542
0.0638218
0.000149403
0.000161414
0.000221221
0.0500552
0.00970206
0.00018185
0.000186572
0.000153986
0.000154044
0.000148825
0.000164901
0.000168517
0.00014916
0.000177824
0.000172136
0.0650898
0.0148815
0.000153369
0.000195209
0.00212591
0.000157577
0.000149931
0.000438292
0.0729989
0.0736176
0.000215814
0.000145338
0.0268304
0.00019065
0.000147218
0.000162312
0.000185903
0.000159309
0.000184686
0.0514969
0.000200743
0.0001713
0.0838118
0.000152698
0.0253907
0.000149553
0.000149062
0.0308182
0.0748756
0.000205405
0.000152704
0.000150329
0.000148444
0.000176143
0.000435823
0.000203222
0.000154401
0.000200411
0.000179245
0.000148017
0.000380325
0.000202484
0.000112685
0.000147847
0.000200054
0.000151953
0.013952
0.00017401
0.00016961
0.000161656
0.000147061
0.000146633
0.000149232
0.000173919
0.000155907
0.000240358
0.000522919
0.000179871
0.000147001
0.000199855
0.00020681
0.0024854
0.000149134
0.000155527
0.000147386
0.000163008
0.000156013
0.0844122
0.00014949
0.000665736
0.000162552
0.000205713
0.000179346
0.0433165
0.000170478
0.00014949
0.0400981
0.0109852
0.000148712
0.000155657
0.00450286
0.000207702
0.000194111
0.000149544
0.000150161
0.00020597
0.000157035
0.000182131
0.000184869
0.000146705
0.00017977
0.0654899
0.000149116
0.000153272
0.00014771
0.0274485
0.000149752
0.000153626
0.0286475
0.000151829
0.0708479
0.000158027
0.000160072
0.00014766
0.000166036
0.000148104
0.000175477
0.000147091
0.00017313
0.000152449
0.0180194
0.000318086
0.0763262
0.000152555
0.000149329
0.000177251
0.000170145
0.0314401
0.0794555
0.000175656
0.000148282
0.000244572
0.000205469
0.000116759
0.000218629
0.000175664
0.0479681
0.000165004
0.000174276
0.00019748
0.000178079
0.00017533
0.000234305
0.000174722
0.000154512
0.000187029
0.00015675
0.000147844
0.00016273
0.000168494
0.000157999
0.000148161
0.000147476
0.000179613
0.00015353
0.000182265
0.000148271
0.000148349
0.000149807
0.00015167
0.000145068
0.000155946
0.00014785
0.0348128
0.000186296
0.000186833
0.000146521
0.000149621
0.000163176
0.000176794
0.000150568
0.0716334
0.000174687
0.0593007
0.000162718
0.000193926
0.000151025
0.000149776
0.000147415
0.000151875
0.0200996
0.000149676
0.0085858
0.000156347
0.0103
0.000164874
0.000175348
0.000205682
0.000145973
0.000149934
0.000186651
0.000148459
0.00014996
0.054549
0.000150664
0.000149142
0.000159278
0.000147512
0.000145872
0.000158221
0.000156464
0.0256149
0.000163532
0.000149114
0.000147241
0.0547177
0.000173949
0.00014932
0.000149397
0.0610665
0.00293193
0.0236711
0.000160044
0.000154522
0.000146435
0.000145715
0.000178903
0.000164221
0.000178919
0.00015388
0.0410636
0.000149779
0.000152145
0.0198484
0.000148302
0.00016026
0.000148483
0.000148427
0.000167623
0.000161737
0.000150939
0.0727564
0.0264203
0.000179939
0.000147908
0.000145666
0.000201309
0.0080525
0.000149717
0.00066068
0.000145606
0.000167512
0.000148225
0.000148103
0.000222232
0.000149173
0.00901626
0.000167463
0.000149805
0.000145429
0.000148718
0.00014771
0.000153028
0.000427125
0.000148807
0.000147613
0.0759668
0.0758238
0.000172251
0.000169416
0.000181691
0.000156497
0.000147189
0.000156159
0.0358867
0.00017388
0.000148828
0.000149844
0.0801205
0.000167776
0.0575561
0.000149756
0.000150747
0.0250974
0.000166011
0.000151217
0.0178477
0.000285576
0.000147658
0.000194665
0.000147398
0.000149008
0.000146446
0.0453711
0.000144981
0.000149489
0.000147177
0.0143824
0.000157149
0.000201751
0.000165157
0.000148182
0.00015856
0.000149104
0.0525008
0.000147684
0.000148937
0.000149151
0.000202201
0.000149096
0.000200907
0.0212045
0.0603632
0.000155157
0.000317724
0.0336855
0.000148547
0.0228001
0.0850353
0.0377944
0.038305
0.0751367
0.00874117
0.00019772
0.000149706
0.0506958
0.000165826
0.0584207
0.000146723
0.000147939
0.000149347
0.000149058
0.000157826
0.000158028
0.033094
0.00014786
0.000148452
0.0117888
0.000187406
0.000148712
0.000160437
0.000161067
0.000150073
0.000307322
0.000160496
0.000152354
0.000156981
0.0217142
0.0245659
0.000252169
0.000148076
0.000209376
0.000187792
0.0350186
0.081295
0.000194983
0.000147964
0.000151208
0.000149771
0.00014458
0.000151896
0.000145329
0.00015708
0.000164508
0.0424125
0.00019754
0.00014952
0.000193438
0.0585993
0.000166664
0.000149674
0.0271266
0.000148196
0.000149758
0.000160328
0.043257
0.000149089
0.000147872
0.0634485
9.20219e-05
0.00130842
0.000191683
0.00117561
0.000147711
0.000203593
0.000149778
0.000147908
0.000149781
0.0541856
0.0290836
0.000147712
0.000145431
0.000148591
0.0050026
0.000151431
0.000161733
0.000148436
0.000150016
0.000202419
0.00014831
0.000176122
0.00019759
0.0479071
0.000148807
0.000172208
0.000153542
0.0407262
0.0561511
0.000148186
0.0444918
0.000182878
0.000265856
0.000149085
0.0434966
0.0001496
0.000158198
0.000166553
0.00019163
0.0578274
0.000104264
0.000215691
0.0757916
0.000146944
0.000234973
0.000148101
0.000156722
0.0640698
0.00014897
0.000149656
0.000151258
0.000149887
0.0408311
0.000145846
0.000148491
0.000180009
0.000170351
0.000176423
0.000202596
0.000206026
0.0193375
0.000187223
0.000167115
0.000173686
0.0368547
0.000172845
0.0688239
0.0551939
0.000157582
0.000148401
0.0361706
0.000113609
0.000149646
0.000191288
0.000164908
0.000150974
0.000158374
0.00015007
0.000166793
0.000149943
0.000175286
0.000170614
0.000147235
0.000177108
0.000148049
0.000166786
0.000147067
0.000154771
0.00017876
0.000153867
0.000149826
0.000147739
0.000287198
0.000176927
0.0669566
0.00014823
0.000149164
0.000180236
0.000148483
0.000185304
0.000176875
0.000150968
0.000188208
0.000147915
0.0774684
0.000149546
0.000170991
0.0288938
0.000234142
0.000147776
0.000152381
0.018112
0.000147926
0.000147462
0.0391019
0.0504918
0.000152893
0.000214363
0.000148603
0.000149829
0.0543045
0.000151687
0.000146042
0.000181823
0.00014818
0.00441602
0.000149279
0.000146029
0.000149341
0.000206421
0.0361229
0.000149104
0.000149585
0.000147701
0.000154963
0.000148391
0.000226271
0.000176786
0.000149773
0.065752
0.000165037
0.000239604
0.0512007
0.000429603
0.000147519
0.00014953
0.000148756
0.000207935
0.000155375
0.0360817
0.0322582
0.000152476
0.0630378
0.000316134
0.000175718
0.000209589
0.000169279
0.000188386
0.0576309
0.000167368
0.000422873
0.0540322
0.000185372
0.000154269
0.0378862
0.00016403
0.000146863
0.000153257
0.0788697
0.000162998
0.000147809
0.000166407
0.000187294
0.000164882
0.0375468
0.000152695
0.069086
0.000173495
0.000142358
0.00019407
0.000211431
0.000160468
0.000147783
0.00015043
0.0631379
0.000147932
0.000152707
0.000147163
0.000151959
0.00014799
0.000160248
0.000207733
0.00029564
0.000162749
0.000164373
0.0385266
0.000191731
0.000148052
0.00422404
0.0490825
0.000146524
0.000147412
0.000162252
0.0234916
0.000149667
0.000181
0.000211297
0.000166998
0.000148724
0.000153402
0.000148345
0.000191237
0.000163154
0.000147789
0.0223114
0.0490142
0.000163598
0.000809098
0.000185953
0.00322016
0.000151735
0.00015693
0.0450321
0.00260655
0.000195118
0.000264024
0.000158763
0.00014983
0.000149111
0.000149308
0.000148416
0.000150443
0.00016689
0.00014782
0.000198467
0.000147502
0.000159873
0.000147869
0.000175527
0.000200121
0.000316211
0.000148455
0.000211412
0.000149098
0.0468786
0.000148235
0.000154219
0.000148786
0.000227661
0.0393325
0.000207683
0.000147818
0.000197532
0.000148644
0.000160007
0.048608
0.00014882
0.00014981
0.000169555
0.000162324
0.0625662
0.000147837
0.000158148
0.000153663
0.000148214
0.00015851
0.000150152
0.000146189
0.000152126
0.0282047
0.000154378
0.000119365
0.0720063
0.000175224
0.0381489
0.000153954
0.000146232
0.000158787
0.0238725
0.000154061
0.000162243
0.000173415
0.000887898
0.000147581
0.00370725
0.00017773
0.00018152
0.000146447
0.000145508
0.000215266
0.000149974
0.000149898
0.000158973
0.000146706
0.000153089
0.000159282
0.000186364
0.000181225
0.0595196
0.000158008
0.000186541
0.00501275
0.0166789
0.00017098
0.000181599
0.0224985
0.000169572
0.0762706
0.000152138
0.0102472
0.00353094
0.000146897
0.000149723
0.00014762
0.000151812
0.000169014
0.000147976
0.000152488
0.000195195
0.000152931
0.000160209
0.0443943
0.00015749
0.000155049
0.0795011
0.0001512
0.0245834
0.000155989
0.000164957
0.000147503
0.0279879
0.0294832
0.000148646
0.000152125
0.0430922
0.000157107
0.0157742
0.000148013
0.000148207
0.0646962
0.000151942
0.00016231
0.00868623
0.000148427
0.000175579
0.000159639
0.000145507
0.000147245
0.0484037
0.0316406
0.000149574
0.000153742
0.000148809
0.000156621
0.000159949
0.0286728
0.000150549
0.00032863
0.0263699
0.000119177
0.00405712
0.000151753
0.000203741
0.000178486
0.000156851
0.000148373
0.000182754
0.0461139
0.000151798
0.000162774
0.0679239
0.000456359
0.000183097
0.000153902
0.000149565
0.000149607
0.000148453
0.0251416
0.000178352
0.000154661
0.000152437
0.000154832
0.000149785
0.000148387
0.000148439
0.000186147
0.000172293
0.0634657
0.000163363
0.0089173
0.0333665
0.000158543
0.000176123
0.000146647
0.000157618
0.0237221
0.000149122
0.000152452
0.000177118
0.000194225
0.000164219
0.0402892
0.000117302
0.000148179
0.0432112
0.000145278
0.000150219
0.000163773
0.000149807
0.00014928
0.000204591
0.0667989
0.00014819
0.0455824
0.000149063
0.000147469
0.00015232
0.000351674
0.000159373
0.000155998
0.0808086
0.000151526
0.000185884
0.0423254
0.000149607
0.000163567
0.000147933
0.0204411
0.000181476
0.000148478
0.0504435
0.000177178
0.000167717
0.000149846
0.0278235
0.000157115
0.000187815
0.000153026
0.000167468
0.0284678
0.000147589
0.000248293
0.000149045
0.00017727
0.000163765
0.000149601
0.0322951
0.000152247
0.000193835
0.00017658
0.000169312
0.000162792
0.000163043
0.0001504
0.0674284
0.000159009
0.0210502
0.00015776
0.000184239
0.000148623
0.00016844
0.000148665
0.000188598
0.0595372
0.000150812
0.000147271
0.000437915
0.000152007
0.00868458
0.000150804
0.0498034
0.00011452
0.000163451
0.000147904
0.000147618
0.000148687
0.000145378
0.000189244
0.000165829
0.000160762
0.000155928
0.000148452
0.0024833
0.000153937
0.000162708
0.00216363
0.000148546
0.0159271
0.000176799
0.000164338
0.000247869
0.0413421
0.000160439
0.05248
0.0326166
0.000147549
0.000198441
0.0323915
0.0001869
0.000149097
0.000149412
0.000196713
0.050293
0.0246784
0.000233452
0.000151149
0.000164271
0.000170053
0.0412378
0.00293256
0.000173176
0.000197733
0.000152961
0.000176383
0.000195242
0.000149042
0.000187831
0.0656993
0.00014882
0.0136852
0.000149662
0.000148986
0.0346399
0.0510971
0.000146889
0.000151434
0.000150545
0.000148141
0.000166262
0.000205887
0.000153311
0.000147839
0.000148574
0.000173203
0.000158627
0.0001582
0.000177499
0.000148347
0.0548889
0.0168879
0.0649862
0.000175531
0.000173713
0.000857977
0.000165422
0.0492328
0.00566558
0.018932
0.000149989
0.0864458
0.0360803
0.000146325
0.000148179
0.00018485
0.0564444
0.0712775
0.00014827
0.000148678
0.0457717
0.00253878
0.0131783
0.000153544
0.000152522
0.000291613
0.00014936
0.0516845
0.0316492
0.0027111
0.000489083
0.000148779
0.000147762
0.000147099
0.000154824
0.0368773
0.000172185
0.000157787
0.000150413
0.000172982
0.0247986
0.000173259
0.0584992
0.0152361
0.0267652
0.000311343
0.000148325
0.000149087
0.0490989
0.000145718
0.000146765
0.000151343
0.000369409
0.000168363
0.0391556
0.000193887
0.000148146
0.0781095
0.00016736
0.000147978
0.0170231
0.000175731
0.00015385
0.000149991
0.00538696
0.0607829
0.000149147
0.0700363
0.0295096
0.0610337
0.000376195
0.000176167
0.000148035
0.000151077
0.000341939
0.000156569
0.0515127
0.000168335
0.00167892
0.00018049
0.000150978
0.000157241
0.000148067
0.000150621
0.0571541
0.0212865
0.000148455
0.0225301
0.000173662
0.000148718
0.000153614
0.000147611
0.000202223
0.000150471
0.000312204
0.000164551
0.000147975
0.000147017
0.000169084
0.0222373
0.000169138
0.000153167
0.000168797
0.000148607
0.000152565
0.000160003
0.0198316
0.0319325
0.058747
0.000146066
0.000146966
0.000149819
0.0002037
0.000147251
0.000149949
0.000204997
0.000180191
0.000850213
0.000146705
0.0614305
0.0319905
0.000149885
0.0188534
0.000194497
0.000170548
0.000314931
0.000149655
0.0377581
0.000157419
0.000151282
0.000152512
0.00014568
0.000120356
0.000153892
0.000152632
0.000157741
0.032046
0.0379972
0.000149612
0.000148029
0.000152976
0.000148776
0.000195632
0.000150003
0.000183733
0.000153911
0.0442433
0.000152077
0.0635164
0.000146118
0.0793717
0.000150528
0.000145591
0.0624423
0.000184151
0.000171707
0.00235735
0.000162244
0.000170922
0.000148426
0.0364344
0.000148439
0.000147283
0.000168456
0.000186373
0.0464465
0.0410622
0.000193842
0.0713216
0.000193004
0.000237413
0.00014852
0.000156032
0.000160683
0.0556444
0.00015358
0.0550195
0.0318585
0.000150429
0.000148747
0.000148632
0.000369992
0.000423074
0.000153447
0.000148686
0.000154944
0.000158731
0.00016888
0.000242427
0.000193608
0.000148319
0.000203607
0.000182035
0.0219518
0.000182055
0.000151931
0.000153854
0.0763862
0.000147074
0.000184844
0.0615322
0.000150698
0.000155483
0.000206065
0.000172625
0.000150745
0.0250541
0.000154803
0.00023788
0.000174107
0.000158171
0.000152118
0.0580908
0.000147002
0.000171316
0.000259496
0.0606412
0.00017357
0.000176052
0.000157992
0.000163673
0.00014975
0.0623403
0.000159196
0.000149261
0.000161833
0.000148521
0.000149776
0.000376808
0.000148419
0.000149118
0.000148782
0.000198148
0.000149508
0.000161921
0.000185936
0.000202709
0.000190656
0.000149661
0.000183402
0.000192941
0.000206191
0.000181514
0.000155767
0.00020139
0.0595531
0.00024123
0.000149887
0.0474899
0.0486945
0.000149882
0.00015434
0.000145556
0.000216162
0.000185185
0.000149717
0.000250283
0.0539683
0.000146649
0.000149399
0.0419923
0.0343054
0.000186868
0.000145772
0.0476686
0.0373121
0.000477165
0.000148128
0.0572724
0.000192934
0.000167394
0.0508721
0.000157753
0.000145649
0.000161628
0.000200175
0.000164272
0.0474306
0.0636369
0.000147254
0.066328
0.000197867
0.0374732
0.000146117
0.000163524
0.00014962
0.000148035
0.0623736
0.00659938
0.000233474
0.0168511
0.000157779
0.000174203
0.000151549
0.0637543
0.0240718
0.000148433
0.00014977
0.000158192
0.000148559
0.000176446
0.0676139
0.0768782
0.000174711
0.000150797
0.000150255
0.0617329
0.000153903
0.000176565
0.000147082
0.000151239
0.000244189
0.00810524
0.000165801
0.000358647
0.000149075
0.000232925
0.000152562
0.000163693
0.0850913
0.0206709
0.000148447
0.000149955
0.000169663
0.000154454
0.000149326
0.0674306
0.0555125
0.000147544
0.000144853
0.000149219
0.000147698
0.000329218
0.00014759
0.0435397
0.000189544
0.000186445
0.000147908
0.000167091
0.0664772
0.000165899
0.000194384
0.0485738
0.000149549
0.0263518
0.000158781
0.000159586
0.000189464
0.0275368
0.0369097
0.000184426
0.000147631
0.000189729
0.000147637
0.000153978
0.000149407
0.0412455
0.000158934
0.000110822
0.000117797
0.000173886
0.000148777
0.000212501
0.000159193
0.000149784
0.000181398
0.000145194
0.000172578
0.000165316
0.000149293
0.0795404
0.000151996
0.000201513
0.000150872
0.000147596
0.055738
0.0494641
0.000152774
0.000158466
0.000172266
0.000171853
0.000182307
0.000159056
0.000155057
0.000156575
0.000147289
0.000153942
0.0416827
0.000166542
3.29572e-05
0.000202679
0.00015181
0.0698308
0.000145224
0.0614617
0.000152847
0.0549216
0.00629415
0.0288546
0.0382381
0.000234471
0.000168389
0.000149567
0.0653473
0.000169686
0.000148473
0.0225399
0.0704344
0.000151614
0.000154654
0.000161227
0.000161276
0.000165303
0.0345106
0.000149883
0.000164448
0.000168713
0.000159375
0.000149035
0.000191438
0.000145665
0.0445995
0.000152305
0.000193463
0.000162855
0.000169694
0.000183466
0.00706221
0.000182366
0.00014729
0.000187549
0.063388
0.0691684
0.000151067
0.0421556
0.000160984
0.000289218
0.000148439
0.000153444
0.0546889
0.000180736
0.0284557
0.0266016
0.000158957
0.0733927
0.000148396
0.000145636
0.0227205
0.000164715
0.000153379
0.0773513
0.00015758
0.000163302
0.000157704
0.000177205
0.000149491
0.0576118
0.0677864
0.00984899
0.000235954
0.000156526
0.000171931
0.0302552
0.000152913
0.000149744
0.000176558
0.000146037
0.000183607
0.0497785
0.0230166
0.0286371
0.000180299
0.000151305
0.0599603
0.000145283
0.000186217
0.000149538
0.0408008
0.000152923
0.00016435
0.0406124
0.000192724
0.000148064
0.000159359
0.0102884
0.000148792
0.000199996
0.000147325
0.0655861
0.055232
0.000194482
0.000167316
0.00014757
0.000207814
0.000202334
0.000169358
0.000147317
0.000151557
0.000148894
0.000180031
0.000148775
0.000191564
0.00014901
0.000147679
0.0854328
0.000148041
0.000157547
0.000157166
0.000149819
0.0465888
0.000147864
0.000161566
0.0574888
0.000179186
0.0380852
0.000148738
0.0603884
0.000180424
0.0758351
0.000152488
0.000198481
0.000150468
0.000171069
0.000199263
0.000198143
0.000215365
0.0539234
0.000208873
0.000403597
0.000155468
0.000196209
0.000162983
0.000225733
0.000153816
0.000150245
0.000148505
0.000178656
0.000164884
0.00233665
0.000177395
0.0589454
0.0574477
0.000170076
0.000148587
0.0127121
0.000178123
0.000150132
0.000152774
0.000148886
0.0563409
0.00014847
0.0186711
0.000147916
0.000159752
0.0380461
0.000170575
0.000148296
0.000148444
0.0247471
0.000147848
0.000152869
0.000156579
0.000160803
0.000158699
0.000149255
0.000210633
0.000167632
0.000162574
0.000228184
0.0458122
0.0446811
0.0306846
0.000146204
0.000148348
0.000171753
0.000151306
0.000163122
0.0409209
0.0439767
0.000145719
0.0001484
0.0420899
0.000236015
0.000145903
0.000147361
0.000155163
0.0573778
0.0516099
0.000157446
0.000162662
0.000149297
0.000244372
0.000200042
0.000173618
0.00015813
0.000163541
0.000149947
0.000166993
0.000230496
0.00015076
0.000149764
0.000156992
0.0627934
0.000154189
0.0233851
0.000148664
0.0522738
0.000162147
0.000156236
0.000146446
0.000147536
0.000250326
0.0597937
0.000164638
0.0256801
0.0573617
0.000150269
0.0528834
0.000208902
0.000148227
0.0310382
9.49072e-05
0.000194339
0.000149663
0.0416822
0.0384641
0.000149233
0.000162679
0.03133
0.000166512
0.000148829
0.000147565
0.000150525
0.000154696
0.00018243
0.000235464
0.000167316
0.000180088
0.000146392
0.000149368
0.0551302
0.000147676
0.000168312
0.00015513
0.000150589
0.000174213
0.000148136
0.000152414
0.000242835
0.000147906
0.0439326
0.000148138
0.00493323
0.0513361
0.000187379
0.000149493
0.000149947
0.0587153
0.000145592
0.000153962
0.000149792
0.000203993
0.000146145
0.000165065
0.0503918
0.000162604
0.00107509
0.000150249
0.000184517
0.000148284
0.000148894
0.0220439
0.0482346
0.000361231
0.000153154
0.00018338
0.000183932
0.0399412
0.0575697
0.000237186
0.000167121
0.000145226
0.0504231
0.000148649
0.000148866
0.000232615
0.000197441
0.00015671
0.000177714
0.00016378
0.000159656
0.000158654
0.075821
0.000154982
0.000147872
0.0212
0.000163949
0.000146388
0.0363689
0.000148106
0.000148703
0.000202215
0.000186414
0.0403032
0.000146501
0.000153657
0.000147735
0.000308743
0.000147745
0.000197886
0.0198415
0.0481663
0.0336528
0.0154838
0.000157464
0.0429667
0.000220675
0.000149362
0.000158322
0.000162657
0.000157675
0.000245825
0.0447616
0.0527606
0.0475915
0.000352627
0.000149259
0.000193144
0.000148148
0.0221023
0.000160585
0.000153431
0.00015432
0.000151395
0.000147743
0.000192179
0.0543211
0.00014608
0.000153376
0.000146955
0.03939
0.000153176
0.079107
0.0379286
0.000277144
0.000148587
0.00014781
0.0370068
0.000190038
0.000148888
0.000190617
0.000149489
0.000187964
0.000177234
0.000188436
0.000177772
0.0406347
0.000147093
0.000148379
0.000223025
0.036641
0.000160083
0.000166524
0.000148083
0.0169344
0.000148151
0.000147604
0.000152322
0.000148431
0.00710098
0.0441955
0.00320826
0.000184912
0.0587355
0.000180022
0.000145683
0.000164126
0.00014609
0.000251211
0.000149375
0.000153726
0.00014825
0.000147487
0.000147928
0.000403206
0.000152706
0.000274392
0.00014638
0.000158502
0.000157622
0.000265301
0.000148252
0.000164004
0.000168793
0.000172117
0.0802277
0.000147492
0.033802
0.000176197
0.000164612
0.000149462
0.000147823
0.0385033
0.0100051
0.000149462
0.000148361
0.000234852
0.000199165
0.000160496
0.0580686
0.000150769
0.000204542
0.000164459
0.000146053
0.0599198
0.000153562
0.0524361
0.000148444
0.000151243
0.000148764
0.0399593
0.0462458
0.000145846
0.000180611
0.000228604
0.000148285
0.000148246
0.000147623
0.00018218
0.0564866
0.000175084
0.000156244
0.000167814
0.000148145
0.000148782
0.000153621
0.000147939
0.000207729
0.000148826
0.000184967
0.000286766
0.000165025
0.000145301
0.0341575
0.000185031
0.000148201
0.000178048
0.000163182
0.002527
0.000153181
0.0846016
0.000175545
0.000148509
0.000183086
0.000183425
0.000155426
0.0827336
0.000183593
0.000164616
0.00338022
0.000148198
0.000185181
0.000168667
0.000181908
0.000147604
0.000148384
0.000145553
0.000158686
0.000181187
0.000180246
0.0572123
0.0330731
0.0395813
0.000149761
0.00029522
0.0526024
0.0633288
0.000148305
0.000148682
0.000178053
0.0570311
0.00015305
0.000168263
0.0118868
0.0338466
0.00486698
0.000170917
0.000203068
0.0409515
0.000213874
0.000145715
0.00218407
0.000226316
0.000150252
0.00015082
0.000150981
0.0612864
0.000185228
0.0690473
0.000153557
0.0142104
0.000149415
0.000398488
0.0355732
0.000149451
0.000166826
0.0485685
0.0564193
0.000174643
0.00015187
0.000152389
0.000149912
0.00018464
0.000201104
0.000602908
0.0608297
0.000146824
0.0190042
0.000191882
6.37005e-05
0.000148069
0.000149035
0.00131837
0.000181874
0.00014827
0.000172894
0.000166823
0.000160771
0.042556
0.0649155
0.065691
0.0580916
0.000154602
0.000146373
0.000165868
0.0294005
0.0687402
0.000149035
0.000182572
0.000168848
0.000192186
0.000151913
0.000149687
0.00023695
0.00954104
0.0120556
0.00027192
0.0263675
0.000147745
0.000181393
0.0567404
0.00014951
0.000165272
0.000190814
0.00014597
0.000202593
0.073527
0.000179388
0.00014968
0.0214467
0.00019409
0.0512502
0.000144704
0.000154526
0.000149231
0.000153915
0.000149112
0.000171218
0.000162707
0.000162393
0.000184783
0.000166512
0.0428611
0.000154097
0.000163591
0.000158151
0.0216623
0.000164621
0.0340885
0.000157799
0.000156161
0.011358
0.000169455
0.000148799
0.000162717
0.0112443
0.0720978
0.000233686
0.000148415
0.000147927
0.00014819
0.000217487
0.000151603
0.000331535
0.000257075
0.000181751
0.000161364
0.000212674
0.0293092
0.000149106
0.0670287
0.000160123
0.000163459
0.000148293
0.000148895
0.000175405
0.0600042
0.000148423
0.0307764
0.000216949
0.000169678
0.00020002
0.000147838
0.000148073
0.000162386
0.000152996
0.0631223
0.0268954
0.000169585
0.000249165
0.000148329
0.000149199
0.00014965
0.000149603
0.0850631
0.000153223
0.0426184
0.000168481
0.00015202
0.000189292
0.000732259
0.0417782
0.0215558
0.000153891
0.000148216
0.000148828
0.000154747
0.000213855
0.000180198
0.082065
0.000148992
0.000151303
0.000175933
0.000149709
0.000126199
0.000152222
0.000174627
0.000175917
0.000162586
0.000162835
0.000146518
0.000172813
0.000162335
0.00018052
0.000167583
0.000162992
0.000147064
0.000187979
0.000147756
0.000943284
0.0499774
0.00022352
0.000148912
0.000170798