/*--------------------------------*- C++ -*----------------------------------*\
| =========                 |                                                 |
| \\      /  F ield         | OpenFOAM: The Open Source CFD Toolbox           |
|  \\    /   O peration     | Version:  v2012                                 |
|   \\  /    A nd           | Website:  www.openfoam.com                      |
|    \\/     M anipulation  |                                                 |
\*---------------------------------------------------------------------------*/
FoamFile
{
    version     2.0;
    format      ascii;
    class       volVectorField;
    location    "700";
    object      U;
}
// * * * * * * * * * * * * * * * * * * * * * * * * * * * * * * * * * * * * * //

dimensions      [0 1 -1 0 0 0 0];


internalField   nonuniform List<vector> 
13851
(
(1.01966 -0.0101069 -5.24887e-22)
(0.659218 -0.054779 6.1361e-21)
(1.03597 -0.0646343 5.09767e-22)
(1.01932 -0.00987558 3.21316e-23)
(1.06465 -0.0601446 1.06521e-20)
(1.0178 -0.0470078 0)
(1.03132 -0.00189865 0)
(1.04282 -0.046144 -7.28514e-21)
(1.00947 -0.00131225 0)
(1.00792 -0.0403775 1.03651e-21)
(0.932836 0.0677471 0)
(0.384559 -0.0377103 0)
(0.99404 -0.0578042 -1.91646e-20)
(-0.00648514 0.0829192 -5.27915e-21)
(1.01973 -0.000546405 0)
(1.03406 -0.0305963 0)
(1.04131 -0.0233489 0)
(1.018 -0.0207694 1.04745e-22)
(1.09094 -0.0722378 1.26357e-20)
(1.00934 -0.00131857 0)
(1.01908 -0.00983158 -3.61941e-22)
(1.03974 -0.0644317 -1.36688e-20)
(1.00219 2.20143e-05 1.13753e-22)
(1.00364 -0.000128731 -8.66234e-23)
(1.00154 -2.6193e-05 0)
(1.04091 -0.0462487 -7.08244e-22)
(1.05078 -0.0180358 2.01603e-20)
(0.0106592 -0.0937898 -5.08051e-20)
(1.01954 -0.0101804 5.42515e-22)
(1.02571 -0.0197793 0)
(1.00946 -0.0539406 -6.2436e-22)
(1.0417 -0.0242919 1.38102e-20)
(1.03426 -0.0622869 0)
(0.932894 -0.0910582 6.02897e-22)
(1.0044 -0.00014837 0)
(1.08406 -0.0561165 0)
(1.09058 -0.0581582 -2.06584e-20)
(1.06108 -0.0980081 1.25826e-20)
(1.00326 -0.0416582 -1.23576e-21)
(0.944045 -0.123813 -3.66613e-23)
(1.01666 -0.00693135 0)
(1.00694 0.000129176 -3.48728e-24)
(0.01939 0.0730935 3.20382e-22)
(0.897835 0.0447839 0)
(0.896438 0.071826 0)
(0.147811 0.0919402 -2.3119e-20)
(0.891921 0.0267145 -2.3329e-21)
(0.862394 0.163433 1.69217e-21)
(1.05168 -0.0186253 -2.13591e-20)
(0.9996 -0.0142658 0)
(1.07456 -0.0505918 -2.93302e-20)
(1.07908 -0.0570226 0)
(-0.0309685 0.00079825 -4.03496e-20)
(1.01942 -0.0005131 2.12578e-21)
(1.01206 -0.000760748 1.75779e-21)
(1.00716 0.000144984 3.55717e-24)
(1.00427 -6.70985e-05 3.93351e-22)
(-0.0830398 -0.0102096 -4.04577e-20)
(1.02542 -0.019132 0)
(1.03215 -0.0044563 0)
(1.05767 -0.101561 9.65372e-21)
(0.617437 -0.0983387 0)
(0.992779 -0.0109631 0)
(1.06934 -0.0618225 1.68376e-20)
(1.06172 -0.0773198 0)
(1.021 -0.0102257 1.17917e-21)
(1.08822 -0.0587561 0)
(0.899773 -0.0227645 -1.67496e-21)
(1.06239 -0.0341276 7.88564e-22)
(1.01744 -0.0198032 1.39997e-22)
(0.33464 -0.00200764 0)
(1.03077 -0.0619774 5.51658e-22)
(0.597147 -0.0340727 -4.05133e-21)
(1.01938 -0.000542778 -1.87737e-21)
(1.01271 -0.00123845 7.63151e-22)
(1.01169 -0.00168752 0)
(1.04139 -0.0625542 3.14811e-21)
(0.451617 -0.00409979 2.417e-20)
(1.0587 -0.046678 0)
(0.316465 -0.00549259 -3.48238e-21)
(1.0351 -0.0083161 0)
(0.912349 -0.0523378 -4.13895e-22)
(1.02185 -0.00446377 3.27221e-21)
(0.122187 0.0700667 0)
(0.99068 -0.0158774 1.34384e-21)
(0.417194 -0.031553 1.6508e-21)
(1.01001 -0.0304488 -1.4274e-21)
(0.730166 0.0685836 4.1294e-21)
(1.04766 -0.0235189 -5.99726e-21)
(1.01263 -0.000436813 -1.81992e-22)
(1.08385 -0.0556414 0)
(1.02367 0.00864382 4.82772e-22)
(0.900578 -0.0588944 1.96464e-21)
(1.05136 -0.0279922 -8.16259e-21)
(1.0482 -0.0227851 -3.61431e-21)
(1.00275 -5.01249e-05 6.66155e-23)
(1.06644 -0.0603008 0)
(0.653917 -0.0194023 0)
(0.99529 -0.0144383 0)
(1.00203 -1.86175e-05 -3.1368e-23)
(-0.0847367 0.171567 8.05339e-21)
(1.06599 -0.045992 -1.20621e-21)
(1.02007 -0.0114813 -1.01254e-22)
(1.05737 -0.0108227 -8.51515e-21)
(1.00225 4.31878e-05 0)
(0.99813 -0.0233239 0)
(1.06926 -0.0474344 -1.15061e-20)
(1.00615 0.000145652 -7.36597e-23)
(0.927139 -0.0614492 0)
(1.02583 -0.0486242 0)
(1.00236 -5.06856e-05 -1.84371e-22)
(1.0129 -0.000422732 0)
(1.02324 0.00659241 5.8471e-22)
(1.00053 2.94844e-05 -9.54195e-23)
(1.0031 -7.81475e-05 3.9105e-22)
(0.741344 0.0691401 -3.32569e-21)
(0.685687 -0.0257883 2.59287e-20)
(1.00563 7.96021e-05 0)
(1.00569 -0.000287588 4.67417e-22)
(1.01032 -0.000564772 -8.30455e-22)
(0.0140771 0.0814309 -2.1452e-20)
(1.05629 -0.0112302 1.76427e-20)
(0.964615 -0.0583582 9.29737e-21)
(0.834417 0.103969 -8.4804e-22)
(0.876337 0.150143 2.02131e-21)
(1.01423 0.00136546 -1.63622e-22)
(0.895581 0.145073 -3.52947e-21)
(1.06231 -0.0465718 0)
(1.01877 -0.00958615 4.37538e-22)
(1.07228 -0.0742707 0)
(1.01648 -0.00671672 0)
(1.00873 -0.00138207 -1.09744e-22)
(0.354872 -0.00677898 6.87888e-21)
(1.02182 -0.00418478 0)
(0.733705 0.0336308 9.56719e-21)
(1.00839 -0.000616989 -3.69905e-23)
(1.00558 6.72834e-05 1.2854e-22)
(1.03939 -0.0600409 2.80533e-21)
(0.157071 -0.135542 1.36149e-20)
(0.182085 -0.114491 0)
(-0.115649 0.163041 0)
(1.01169 -0.000716955 -1.49068e-21)
(1.01616 -0.000613785 3.81188e-22)
(1.01 -6.44546e-05 -2.48757e-22)
(1.03465 -0.0188327 1.98196e-21)
(0.89376 0.0132561 0)
(1.02219 -0.00399689 0)
(1.07098 -0.0767092 -1.37268e-20)
(1.03058 -0.00188865 0)
(0.903155 0.0940844 0)
(1.08504 -0.0469752 -1.18042e-20)
(1.01068 -0.000699794 -2.18177e-21)
(0.000877292 0.10231 -1.02183e-20)
(1.0042 -8.10255e-05 -1.47117e-22)
(1.04139 -0.0156495 2.46211e-22)
(1.03397 -0.0186214 3.33956e-21)
(1.01228 -0.00346572 -5.84099e-23)
(1.02695 -0.0177583 1.72826e-21)
(1.07917 -0.057736 0)
(1.0736 -0.0506547 1.95019e-22)
(1.00939 0.000394717 -5.90272e-25)
(1.05836 -0.0254409 1.85876e-20)
(-0.0758768 -0.0141135 1.20341e-20)
(1.00858 -0.00131962 -8.7034e-23)
(1.02829 -0.0256576 1.13015e-21)
(1.00847 4.8158e-05 2.50967e-22)
(1.02491 -0.00410559 -3.70246e-23)
(1.0637 -0.0343736 -4.31245e-22)
(1.01862 -0.00945654 4.36564e-23)
(0.521646 0.0113361 -3.81456e-20)
(0.435608 -0.00264014 -2.91543e-20)
(1.00665 -0.000520213 -4.25974e-22)
(1.01243 -0.00360666 2.32796e-22)
(0.151547 -0.114531 -1.49355e-21)
(1.00839 -0.00120921 0)
(0.851606 0.157333 0)
(1.06104 -0.0460695 -9.42229e-21)
(1.01493 -0.00205877 9.96418e-22)
(1.08559 -0.069637 -6.15006e-21)
(1.00676 0.000191992 -3.48345e-23)
(1.04135 -0.0257282 -3.93189e-21)
(1.01084 -0.0604063 1.11198e-22)
(1.02167 -0.00357132 0)
(1.04135 -0.0672007 9.58479e-21)
(1.00512 0.00011163 0)
(1.00246 -3.22707e-05 -1.41183e-22)
(1.02106 -0.0100264 0)
(1.01214 -0.000839163 0)
(1.06404 -0.065674 0)
(1.02955 -0.0121521 -9.60547e-22)
(0.892531 -0.0107629 -2.65046e-21)
(-0.0423522 5.7055e-05 1.16978e-20)
(1.01355 -0.000202025 4.37969e-22)
(1.05842 -0.0356876 9.95808e-21)
(0.637314 -0.10575 0)
(1.03987 -0.015273 -6.17647e-21)
(1.01597 -0.000977071 -1.49834e-21)
(0.920068 -0.13832 2.33147e-21)
(1.01504 -0.00184686 -8.40593e-22)
(1.01185 -0.00174036 -1.20732e-22)
(1.01388 0.00124621 1.64304e-22)
(0.285816 0.0582759 0)
(1.00338 -0.000132846 -1.48686e-21)
(1.01851 -0.00535103 -2.01141e-21)
(1.02295 -0.0239431 0)
(1.02211 -0.00376297 -5.80647e-21)
(0.416973 -0.164334 -2.09162e-20)
(1.04347 -0.0235164 -6.72618e-21)
(0.476871 -0.0170287 0)
(1.00786 0.000291247 -2.44209e-23)
(0.720317 -0.0444956 1.47731e-20)
(1.01995 -0.0111699 0)
(0.889982 -0.158641 0)
(1.00636 0.000191041 0)
(1.00946 2.3379e-05 -2.02286e-22)
(0.984566 0.0639949 3.5199e-22)
(0.995689 -0.0238852 5.12398e-21)
(0.104554 0.105464 1.48304e-21)
(1.01994 -0.00124831 2.53321e-21)
(0.491373 -0.018987 0)
(1.04335 -0.024116 1.41563e-20)
(1.03595 -0.00862157 0)
(0.743293 -0.0374869 0)
(1.07714 -0.0632218 -1.08554e-20)
(0.626433 -0.0406947 -1.96845e-21)
(1.00162 -1.02841e-05 1.58364e-23)
(1.05237 -0.0314493 -7.68762e-21)
(1.00173 2.59471e-05 -1.54836e-23)
(-0.0674386 0.0528226 1.16129e-20)
(1.00659 0.000212271 -4.99165e-24)
(1.03977 -0.0447196 5.31338e-21)
(0.995446 -0.0921811 0)
(1.0065 -0.000477167 3.61835e-22)
(1.01335 -0.000243098 0)
(1.07483 -0.0477781 -3.87198e-21)
(1.01832 -0.0365362 3.23115e-22)
(0.466406 -0.158945 8.9659e-21)
(1.07421 -0.0816292 -9.42269e-22)
(1.00995 -4.10523e-05 0)
(1.01883 -0.00546039 2.24603e-21)
(1.00203 -0.0488618 6.11237e-22)
(0.942812 0.0175396 1.99526e-21)
(1.01231 0.000375115 8.1362e-24)
(1.02071 -0.0221869 -2.22157e-21)
(1.00299 5.26816e-05 5.73799e-23)
(0.573082 -0.0335563 -2.77792e-20)
(1.06539 -0.0470995 9.86943e-21)
(0.899159 -0.161583 0)
(1.03302 -0.0190224 -8.27403e-23)
(1.03583 -0.0248597 8.75649e-21)
(1.01983 -0.010752 6.27002e-22)
(0.931728 0.0267353 -2.52336e-21)
(1.03036 -0.0119508 0)
(1.03373 -0.0192554 1.73807e-21)
(1.07354 -0.0432981 1.24129e-20)
(0.957422 0.0730969 -5.69227e-21)
(1.0329 -0.014523 0)
(1.02218 -0.0592165 2.60338e-20)
(0.392893 0.0034853 1.84483e-20)
(1.02271 -0.00116004 0)
(1.00953 -6.09425e-07 2.22207e-22)
(1.01779 -0.0176593 -1.84691e-22)
(0.990667 -0.16638 1.24529e-21)
(1.01171 -6.55522e-05 0)
(1.03121 -0.0790907 2.44798e-22)
(1.0393 -0.0154303 6.685e-21)
(1.03034 -0.0114773 0)
(1.05129 -0.0272198 8.31972e-21)
(0.78082 -0.0399716 0)
(1.02503 0.0111649 1.01109e-22)
(1.01848 -0.0110687 -6.02424e-23)
(1.04073 -0.0159215 6.60674e-21)
(1.02322 -0.101062 1.06243e-22)
(1.0583 -0.0451355 0)
(1.03383 -0.0299847 8.88767e-22)
(1.00891 -0.00149535 0)
(0.906555 -0.0709382 1.01593e-21)
(1.03229 0.010916 0)
(0.636039 -0.047192 0)
(0.943844 0.0780962 0)
(1.01253 0.000321673 2.82166e-24)
(1.00748 0.000282146 6.2134e-24)
(1.00241 3.99176e-05 -1.01837e-23)
(1.07324 -0.0424022 1.23729e-20)
(0.968049 -0.169297 -1.0854e-21)
(0.844012 0.150678 -1.19394e-21)
(1.01064 -0.00161671 2.97707e-22)
(1.02054 -0.000118835 0)
(1.00737 -0.102877 -3.33919e-22)
(0.926942 -0.0842626 7.25045e-22)
(1.07417 -0.079149 1.81385e-20)
(1.02587 -0.0186669 0)
(1.0324 -0.00489308 -4.96837e-22)
(1.06149 -0.0374246 -1.34092e-20)
(0.932971 -0.068292 0)
(1.04717 -0.0763292 -1.53265e-20)
(1.0298 -0.0251206 -2.53228e-21)
(0.415383 -0.00797415 -1.54877e-21)
(1.00921 -0.00166583 9.89736e-23)
(0.593516 -0.0354255 9.18505e-21)
(1.05812 -0.0247249 -6.58198e-21)
(1.04032 -0.0231651 0)
(0.650258 -0.0483453 1.54405e-20)
(1.0211 -0.0102567 -2.21292e-21)
(1.00052 -0.0283468 0)
(0.658476 -0.032454 0)
(1.01034 -0.00156912 0)
(1.06971 -0.0398527 1.08025e-20)
(1.05041 -0.0285294 6.51468e-21)
(1.02555 -0.0180621 0)
(0.211988 -0.145696 0)
(1.02959 -0.0254251 0)
(1.02879 -0.0118118 -6.27724e-21)
(0.71671 -0.0326876 0)
(1.00735 0.000117859 -1.64593e-22)
(1.03628 -0.0254638 -1.02127e-20)
(1.0133 0.00121229 8.94681e-23)
(0.681802 -0.0503336 0)
(1.08344 -0.0532593 0)
(1.02019 -0.00138066 0)
(1.06924 -0.0452999 0)
(1.02059 -0.000872487 -5.18319e-21)
(0.445748 -0.00171552 1.88425e-20)
(1.02368 -0.0137099 -1.54366e-23)
(1.0024 -2.94897e-06 0)
(1.01384 -0.00404925 -1.48092e-22)
(1.08291 -0.0528945 -1.34859e-20)
(1.05213 -0.0301933 -7.6243e-21)
(1.04219 -0.0146384 8.68322e-21)
(1.02039 -1.90444e-05 0)
(1.02113 -0.0101399 -2.15252e-21)
(1.02822 -0.0116605 5.43766e-21)
(0.918264 0.0712725 0)
(0.187739 0.153124 2.96564e-20)
(0.575721 -0.0011661 0)
(1.01289 -0.0143908 -2.18606e-21)
(0.693598 -0.0509694 -2.02938e-20)
(0.827663 -0.122539 1.28736e-20)
(1.01964 -0.000532111 -4.30721e-21)
(1.05778 -0.0367394 1.2955e-20)
(1.07301 -0.0819672 -1.82811e-20)
(1.01843 0.0121746 1.07621e-21)
(1.01338 -0.0464425 1.08342e-21)
(1.07819 -0.0553332 -1.63586e-21)
(1.08767 -0.0761654 -1.33956e-20)
(1.0218 -0.00303088 -3.20079e-22)
(0.900019 -0.201337 -2.35217e-21)
(0.632784 -0.0338256 -2.11177e-21)
(1.0197 -0.000435366 -2.02853e-21)
(1.00249 -0.0127452 -1.11707e-21)
(0.999338 -0.0101552 1.11594e-21)
(1.00768 -0.116781 1.61994e-21)
(1.04263 -0.0142827 -8.77568e-21)
(1.01237 -0.0494299 3.03039e-21)
(-0.0782991 0.0498888 5.98049e-21)
(1.01268 -0.00375765 1.22525e-22)
(0.884204 -0.201054 0)
(1.01378 -0.00396764 6.0653e-24)
(1.02044 -0.000802032 7.26248e-21)
(1.00347 6.10364e-05 -3.11197e-23)
(1.0063 0.000157815 1.36284e-22)
(1.0117 -0.00318174 -5.17646e-22)
(0.66597 -0.036859 1.02212e-20)
(0.917554 -0.112985 0)
(1.0209 -0.00716717 0)
(1.06927 -0.0386225 1.81445e-20)
(1.00813 0.000131865 -1.66332e-22)
(0.392603 0.000320685 -5.7023e-21)
(1.03201 -0.0297067 -1.62913e-21)
(0.888875 0.176763 6.25498e-21)
(0.560837 0.00517165 3.20268e-20)
(1.02088 -0.00741897 -7.00699e-22)
(0.992865 -0.0253692 -7.70233e-21)
(1.04838 -0.0291073 0)
(0.876013 0.174384 -4.77348e-21)
(1.01564 -0.00602189 0)
(1.00567 7.70065e-05 0)
(1.0274 -0.00526531 -6.37791e-22)
(0.0124109 0.177715 -1.02843e-20)
(1.01242 -0.00103326 0)
(0.262471 -0.1561 2.78986e-21)
(1.02186 0.0126213 2.90346e-22)
(1.07864 -0.0554788 1.8103e-21)
(0.425571 0.0206172 3.24913e-22)
(0.972379 -0.0130505 1.89028e-21)
(0.977969 -0.0198293 -3.61136e-21)
(1.01394 -0.00608453 -7.40166e-22)
(1.00935 -0.0016469 -1.89908e-22)
(1.01881 -0.00030874 6.69923e-21)
(1.01443 -0.0140821 5.7863e-22)
(1.07009 -0.0446294 -1.42291e-20)
(0.0294037 0.0657936 1.12031e-21)
(1.06552 -0.0335699 -1.36858e-20)
(0.666189 -0.0436595 1.75789e-21)
(0.653395 -0.0339878 -3.85516e-21)
(1.00812 0.000116014 -2.44915e-22)
(1.02315 -0.00117579 0)
(0.534272 0.00859621 0)
(0.348521 -0.00588987 0)
(0.987667 -0.0852044 -2.21442e-21)
(0.703089 -0.0295743 -2.45148e-20)
(1.02905 -0.00597941 9.35038e-22)
(1.04885 -0.0301609 7.25447e-21)
(1.00186 -2.80592e-05 0)
(0.881242 -0.121596 -2.31548e-20)
(1.00805 -0.000860569 0)
(1.03469 -0.0308111 -2.82645e-21)
(1.01418 -0.0055267 0)
(1.02892 -0.00323885 2.24986e-23)
(1.00195 2.26057e-05 0)
(1.01018 -0.00148957 7.2139e-23)
(1.00844 6.92502e-05 3.15078e-22)
(1.06984 -0.0602711 -1.74617e-20)
(1.02354 -0.0430114 3.97606e-22)
(0.484665 0.000792916 -2.49294e-20)
(1.01596 -0.0179321 0)
(1.06985 -0.0464926 -2.5591e-22)
(1.02697 -0.017302 -1.13879e-21)
(0.941521 0.0440836 -1.37036e-21)
(1.03483 -0.0258932 2.0077e-21)
(0.99009 -0.117787 6.38884e-23)
(1.03985 -0.0224371 9.98866e-21)
(0.996961 0.0600295 -9.74749e-22)
(1.00557 6.95918e-05 0)
(1.00991 -0.00144696 6.70623e-23)
(1.00179 -2.8449e-05 2.86578e-22)
(1.06266 -0.11282 -1.06346e-21)
(0.879443 0.0602509 -2.23257e-21)
(1.07522 -0.0658189 2.09608e-22)
(1.0271 -0.015232 9.07639e-22)
(0.453653 -0.0033484 3.32859e-20)
(0.94042 -0.0504811 -3.54956e-21)
(1.00655 -0.0268645 -7.63126e-22)
(1.00958 -0.000581821 2.12808e-21)
(1.07582 -0.047687 0)
(1.01545 -0.00578885 0)
(0.935722 0.058779 1.32592e-21)
(1.00235 3.51126e-05 1.78788e-22)
(0.891412 -0.107665 3.00973e-21)
(0.908498 0.121558 0)
(1.03123 -0.0568775 6.10353e-21)
(0.472845 -0.0138844 -1.1081e-20)
(1.01525 -0.0012946 0)
(1.03657 -0.0048278 -1.55736e-22)
(0.896254 0.123087 0)
(0.201842 0.176965 -3.16846e-20)
(1.00542 0.00010793 5.62369e-24)
(1.04943 -0.0323119 7.70896e-21)
(1.06003 -0.0471537 8.68802e-21)
(1.02862 0.012863 1.23094e-22)
(1.00733 -0.00070102 -3.44646e-23)
(1.02763 -0.0119343 0)
(1.0849 -0.0458676 2.32441e-20)
(1.0785 -0.0568346 1.23487e-20)
(1.01232 -0.0204796 8.10943e-22)
(0.435704 0.0855217 0)
(1.00208 -4.24615e-06 0)
(1.01413 -0.00418454 0)
(0.0224943 0.0826055 0)
(1.02786 -0.0261842 0)
(1.00721 0.00026778 -3.7392e-23)
(0.647877 0.0890428 -4.72794e-22)
(1.00922 -0.00157256 4.01213e-22)
(1.01959 -0.0101041 4.42509e-22)
(1.00804 -0.000936028 0)
(1.03132 -0.0322439 -5.93273e-22)
(1.02574 -0.0162484 3.57341e-21)
(1.00757 0.000279785 0)
(1.01544 -0.00116786 -4.10246e-22)
(0.743826 -0.0367425 0)
(1.02225 -0.00477172 -7.70326e-22)
(1.06558 -0.0359883 -1.61186e-20)
(1.00867 -0.000703147 -4.14296e-22)
(1.01059 -0.00787167 -1.63618e-21)
(1.031 0.0218436 -3.05984e-22)
(1.00031 -5.62532e-06 -7.16431e-23)
(1.01526 -0.00607653 -5.00054e-22)
(1.00116 3.25989e-05 1.03332e-22)
(1.00102 -2.86478e-05 -1.41748e-22)
(0.82845 0.11145 0)
(1.03092 -0.0109945 -3.33623e-21)
(1.01008 -0.0365186 2.75126e-21)
(1.02161 -0.00327864 0)
(1.0026 -1.52066e-05 1.34159e-22)
(-0.112269 0.141802 -2.61283e-20)
(0.458889 -0.0122017 -1.54342e-21)
(1.02295 -0.00389727 -1.7137e-21)
(1.00923 -0.00700055 6.80923e-22)
(1.03547 -0.0263071 -2.11602e-21)
(0.940107 -0.000645205 0)
(0.118988 0.0829672 -1.3998e-21)
(1.01419 -0.00429551 1.00179e-22)
(0.907929 -0.0943659 9.66742e-23)
(1.01597 -0.00624298 4.3062e-22)
(1.05878 -0.0633319 -8.12552e-21)
(1.03009 -0.00433742 1.62397e-21)
(-0.0578567 0.0934474 3.50329e-20)
(1.00521 5.70386e-05 0)
(-0.0268563 0.0130559 1.51824e-20)
(1.03949 -0.0162732 2.57974e-21)
(1.00701 0.000122197 7.29644e-23)
(1.00959 -0.00429113 0)
(0.582616 -0.00228501 1.64197e-20)
(1.03817 -0.0448977 -5.87318e-21)
(0.905588 -0.102007 3.09211e-24)
(1.00688 -0.000358544 0)
(0.88788 -0.0178796 2.57169e-21)
(1.01127 -0.000625786 -1.4927e-21)
(1.00791 -0.00102414 2.12462e-23)
(1.00912 -0.00162559 0)
(1.02907 -0.00172917 0)
(0.371859 -0.0110055 0)
(1.07184 -0.0496437 0)
(1.0795 -0.0537887 -6.56957e-21)
(1.09357 -0.0590497 -4.45581e-20)
(0.995166 -0.0197047 -1.05079e-21)
(1.00971 0.000390895 -9.72255e-24)
(0.880151 -0.0677005 -4.44793e-20)
(0.874749 0.0632815 5.61422e-21)
(1.0423 -0.0260182 0)
(1.05763 -0.0261571 -1.05931e-20)
(0.956519 -0.00219252 1.02739e-21)
(0.839542 0.105842 1.10159e-20)
(0.764131 -0.0467122 0)
(1.01777 -0.000324065 4.01602e-21)
(-0.0638402 0.098847 -2.17997e-20)
(0.157079 0.0795171 2.02749e-20)
(0.227518 0.0793911 0)
(1.02912 -0.0259064 0)
(1.00851 -0.00309146 -1.06279e-21)
(0.86986 0.148835 0)
(1.03696 0.00153953 1.39263e-22)
(0.978773 0.0739803 0)
(0.907647 -0.151629 -1.40486e-21)
(0.779267 -0.124803 0)
(1.0266 -0.0180926 -2.80979e-21)
(0.762236 -0.132161 0)
(0.996511 -0.0528073 0)
(1.00544 6.54507e-05 1.06855e-22)
(1.03422 0.00543566 0)
(1.07296 -0.0496274 0)
(0.43435 -0.0066497 -1.71739e-20)
(1.03269 -0.0195328 3.37214e-21)
(1.01826 -0.00370969 -1.02961e-21)
(1.01203 -0.00333257 3.81442e-22)
(1.01742 -0.00647513 0)
(1.06493 -0.0636809 1.20637e-20)
(1.02406 -0.0343411 0)
(0.803574 0.0460122 -3.2957e-21)
(0.424747 0.0955449 0)
(1.00744 -0.000479119 1.21834e-23)
(0.0236302 0.0806902 9.32732e-22)
(0.49834 -0.012077 1.09844e-20)
(0.979414 -0.0259027 0)
(0.880147 0.0984903 -6.32554e-21)
(1.06432 -0.0357465 -1.40011e-20)
(1.00669 0.00023693 -1.60188e-23)
(1.00976 -0.00138108 1.53534e-22)
(1.03279 -0.0107358 -1.21512e-22)
(0.848184 -0.0607809 2.99222e-20)
(1.04223 -0.0160901 0)
(1.08293 -0.0502115 1.66293e-21)
(1.08245 -0.0547469 6.36238e-22)
(1.0071 0.000152076 6.65616e-23)
(1.0299 -0.0217708 -2.69766e-22)
(0.868852 0.123453 7.29878e-22)
(1.01214 -0.107701 4.32304e-21)
(1.07706 -0.0573564 1.84832e-20)
(0.382141 -0.0124901 -1.25887e-20)
(0.996293 -0.0540757 2.04573e-22)
(1.01616 -0.00647402 -4.55032e-22)
(1.02934 -0.00296635 -7.01559e-23)
(0.47786 0.15128 -1.55749e-21)
(0.641737 -0.0327327 0)
(1.08117 -0.0532771 1.6271e-20)
(1.0664 -0.0327263 -8.64572e-21)
(0.988759 -0.0051239 -2.97074e-21)
(1.00657 0.000171277 -1.99543e-23)
(1.01501 -0.00398546 5.88339e-22)
(0.870587 -0.11768 -3.39904e-21)
(1.00679 0.000148103 0)
(1.032 -0.0192699 -3.30391e-21)
(1.00669 0.000197006 -2.71321e-23)
(1.00932 -0.00129152 8.98304e-22)
(0.977502 -0.0532511 0)
(1.06755 -0.0619339 -1.36056e-20)
(1.0248 -0.0143645 2.78166e-22)
(1.00676 0.000151665 1.17224e-22)
(0.325708 -0.159568 -1.6473e-20)
(0.910789 -0.119889 -9.90859e-22)
(1.00945 -0.00178241 -3.91742e-22)
(1.00449 -7.74203e-05 0)
(1.01177 -9.59992e-05 -3.20569e-22)
(1.01932 -0.000391893 -4.27471e-21)
(-0.0033074 0.173798 -2.60966e-20)
(0.900679 -0.167286 -2.32491e-21)
(0.894509 -0.167981 0)
(0.199398 0.090092 2.37509e-20)
(0.874224 -0.0632567 4.89276e-21)
(1.06564 -0.0309358 -7.62171e-21)
(0.41459 -0.00358772 -1.13384e-20)
(0.455518 -0.0135353 0)
(1.02252 -0.00248022 0)
(1.06167 -0.035102 0)
(1.00678 0.000252462 0)
(1.01379 0.00168675 -9.06488e-23)
(1.03565 -0.0333769 5.98305e-21)
(0.799165 -0.0424751 0)
(0.926566 -0.193405 3.24108e-21)
(1.08224 -0.0499327 0)
(1.04447 -0.0306775 0)
(1.00891 -0.00119311 2.50513e-22)
(1.03307 -0.0294603 -5.56363e-21)
(1.01773 -0.00130064 0)
(0.911856 -0.0787144 3.17163e-21)
(1.07164 -0.0526626 -1.60669e-20)
(1.02122 -0.00308207 0)
(1.01226 -0.0161734 -8.73772e-23)
(1.00725 -0.000689043 0)
(1.05266 -0.0261112 -1.84458e-20)
(1.07531 -0.0678503 2.23468e-20)
(1.03136 -0.00431201 9.37159e-21)
(1.01514 -0.0056005 4.24084e-22)
(1.03198 -0.0300552 0)
(1.02899 -0.00723032 1.7138e-21)
(1.06381 -0.06189 -1.20061e-20)
(1.05714 -0.110644 -2.22166e-20)
(1.07625 -0.062568 -3.28161e-21)
(1.0324 -0.0290658 0)
(1.08141 -0.0535695 -1.71037e-20)
(1.00869 -0.00114458 0)
(0.985783 -0.0679888 2.21426e-21)
(1.02196 -0.0119311 6.29296e-22)
(0.138938 0.107945 0)
(1.02013 -0.011219 4.82021e-22)
(1.00284 -7.27791e-05 0)
(0.955339 -0.0604443 0)
(1.02196 -0.0162551 1.25874e-21)
(0.380875 0.0252657 2.83427e-20)
(0.602289 -0.0324921 1.76202e-20)
(0.0355781 0.115207 -7.69428e-22)
(0.636605 0.088665 1.82745e-21)
(1.00794 -0.000849645 -1.51533e-22)
(1.00776 -0.0621577 -2.77556e-20)
(1.01313 0.000264682 -3.24039e-24)
(1.00926 -0.00142879 -2.51145e-22)
(1.00514 6.28348e-05 4.59207e-23)
(1.00941 -0.00143153 0)
(1.01673 -0.00148192 0)
(1.01489 -0.0169107 -4.66673e-22)
(1.0302 -0.031765 0)
(1.00649 0.000148107 0)
(0.772098 -0.138792 -1.29433e-20)
(1.03726 -0.0131125 -2.68787e-21)
(0.742769 -0.136957 1.50819e-20)
(1.0114 -0.00284774 -7.67321e-23)
(1.0048 7.20568e-05 -3.04438e-23)
(1.00321 5.37549e-06 -1.37259e-22)
(1.06966 -0.0833901 1.47647e-20)
(0.627579 -0.122953 -2.42932e-21)
(1.07795 -0.0419456 2.12206e-21)
(1.05246 -0.0267224 1.84723e-20)
(1.01345 0.000258347 -1.59699e-23)
(1.00242 -2.32519e-05 3.22788e-22)
(1.00639 -0.000299755 -1.96867e-23)
(1.01271 -0.00358179 1.00499e-22)
(1.08154 -0.0530471 1.07282e-20)
(0.256189 -0.0892136 7.07984e-23)
(1.02846 -0.00697112 1.65176e-21)
(1.00646 0.000151238 0)
(1.02938 -0.00138219 0)
(1.01263 -0.00360469 -8.25183e-23)
(0.963933 -0.089998 3.29596e-21)
(-0.0559881 -0.0173254 2.46727e-20)
(1.03334 -0.0299003 1.6234e-21)
(0.635938 -0.0139548 0)
(0.86992 0.0441753 -5.71421e-21)
(1.01494 -0.00537024 -2.10029e-21)
(1.07921 -0.0539548 1.18653e-20)
(0.135135 0.177452 5.00082e-20)
(1.06225 -0.0364275 1.33584e-20)
(0.387617 -0.0602092 0)
(1.03448 -0.00856359 -3.61698e-21)
(1.01808 -0.0187342 1.17956e-22)
(1.07703 -0.0417035 8.62333e-21)
(1.01692 -0.0170151 0)
(0.894463 -0.148397 -3.10123e-21)
(1.0225 -0.00369097 0)
(0.856694 0.142478 -8.50134e-22)
(1.00221 2.60824e-05 -4.60746e-23)
(1.07201 -0.0237917 0)
(0.494111 -0.0174206 5.95348e-23)
(1.01249 -0.00164591 4.96837e-22)
(1.02122 -0.0141006 3.02175e-22)
(0.99232 -0.000436911 0)
(1.0081 -0.001119 -4.61301e-23)
(1.04104 -0.0248606 -3.82397e-21)
(0.99431 -0.125786 -3.19783e-21)
(0.101421 -0.066395 -5.72926e-22)
(1.07048 -0.0527892 1.55169e-20)
(1.05684 -0.0831169 2.25599e-22)
(0.95869 -0.0135415 9.37742e-23)
(1.00641 0.000184224 0)
(1.01114 -0.00272213 7.44075e-23)
(-0.117092 0.13234 0)
(1.08268 -0.0547063 4.03536e-21)
(1.01918 -0.0392567 -6.21952e-22)
(0.622191 -0.0342251 -1.0773e-20)
(1.00931 -0.000966231 7.73953e-24)
(1.01608 -3.95937e-05 -1.48845e-22)
(1.00547 6.01415e-05 8.55956e-24)
(0.889813 -0.120844 -8.57349e-21)
(1.08072 -0.0555116 0)
(1.02933 -0.0233583 -3.2867e-21)
(1.01796 -0.00885074 4.83889e-22)
(1.02437 0.0314425 -2.4569e-23)
(1.04855 -0.0197646 4.92916e-21)
(1.00339 8.9322e-06 1.46024e-22)
(0.0515573 0.0649179 -2.67399e-20)
(0.915886 0.0769082 -1.54542e-22)
(0.560401 -0.0175825 1.37336e-21)
(1.0073 0.000128761 0)
(1.02848 -0.00655413 3.20329e-21)
(0.429994 -0.00465214 0)
(-0.0209803 -0.0755369 1.84804e-20)
(1.08288 -0.0549713 2.35147e-21)
(1.01705 -0.00152617 -7.46629e-22)
(0.894108 -0.0537177 0)
(1.02223 -0.00413716 8.01233e-21)
(1.00744 0.0488482 5.93424e-22)
(1.0285 -0.0888434 1.20584e-20)
(1.02926 -0.0594833 -3.18434e-22)
(1.03597 -0.0235796 0)
(0.0718454 0.107547 7.51114e-22)
(1.01495 -0.00844737 -1.20208e-21)
(1.0185 -0.00370979 3.45408e-22)
(1.08774 -0.057114 0)
(1.00305 -6.94343e-05 0)
(1.00205 -6.02385e-05 -1.04959e-23)
(1.02601 -0.0168273 0)
(1.00856 -0.00108975 0)
(0.0541587 0.0706795 0)
(1.03851 -0.0328204 -4.63722e-21)
(1.07777 -0.0567685 -9.32559e-21)
(1.02488 -0.0130318 0)
(1.03197 0.0161689 0)
(1.00907 -0.00126247 2.25956e-22)
(1.00988 -0.1453 3.30019e-21)
(1.00536 -0.000227384 -1.28591e-22)
(1.01406 -0.00779345 -3.66908e-22)
(1.00472 5.46057e-05 -1.44588e-22)
(1.01445 -0.00498496 -8.57976e-22)
(1.01075 -0.000815767 0)
(0.643375 -0.0309931 1.16921e-21)
(1.01193 -0.00332618 -2.6934e-22)
(1.00591 7.77735e-05 1.2093e-23)
(0.969534 0.0930836 8.05904e-22)
(1.0301 -0.00307335 -3.17021e-23)
(0.451053 -0.00771049 1.38657e-20)
(1.0018 1.20471e-05 -7.25702e-23)
(1.01685 -0.000770273 -1.41522e-23)
(1.07796 -0.0480049 6.57172e-21)
(0.932941 -0.0853946 5.34577e-21)
(0.947866 -0.124873 -8.58644e-22)
(1.00684 -0.000368965 0)
(1.02978 -0.0786474 -1.20748e-22)
(0.662163 -0.0216911 -1.30495e-20)
(1.03094 -0.0114572 7.41057e-21)
(0.742245 -0.04052 0)
(1.07085 -0.0236628 -9.25821e-21)
(1.00824 -0.000990569 0)
(1.02189 -0.0141806 -8.01794e-23)
(0.0301883 0.0714044 2.28924e-20)
(1.02174 -0.067928 -8.24126e-22)
(1.03392 -0.0247645 -1.78805e-22)
(1.0073 -0.000418502 2.03238e-23)
(1.00619 0.000144187 9.62397e-23)
(0.885731 0.100445 0)
(1.02343 -0.0617849 7.69075e-21)
(1.03929 -0.0308788 -4.8833e-24)
(1.0293 -0.0246247 1.86263e-21)
(1.01956 -0.0152281 8.49827e-22)
(1.01872 -0.000336916 -4.55436e-21)
(1.01698 -0.000982962 -3.97122e-22)
(1.08557 -0.0496283 1.87198e-21)
(0.869218 -0.0470757 4.45427e-22)
(1.06185 -0.0655576 0)
(0.94549 -0.1921 -3.29559e-21)
(1.02794 -0.00629067 -5.53673e-21)
(1.06081 -0.0636223 1.10952e-20)
(1.07636 -0.0517223 1.57466e-21)
(0.704679 -0.0531095 0)
(1.0286 -0.0230364 9.52514e-22)
(0.269585 -0.176229 -3.87887e-21)
(1.09806 -0.06084 2.10392e-20)
(1.03056 -0.00274254 -5.38284e-21)
(0.209261 0.0480692 2.29715e-20)
(0.988005 -0.0587575 -2.30234e-21)
(0.706521 -0.0690468 0)
(0.106799 -0.043332 -2.24218e-22)
(0.662872 -0.0287475 0)
(0.934085 -0.00788319 2.78059e-22)
(1.03322 -0.035459 0)
(1.00835 -0.00103635 0)
(1.01503 -0.0127766 7.68289e-22)
(-0.0995433 0.00947704 -4.07405e-22)
(0.151343 0.0578784 -1.24044e-20)
(1.01343 -0.00349882 1.36089e-22)
(1.0019 -1.91851e-05 -2.76623e-22)
(1.07445 -0.0487013 3.57719e-21)
(0.983934 -0.0475651 0)
(1.00672 8.01489e-05 1.09809e-22)
(-0.0314935 -0.0330568 0)
(1.00901 -0.000923657 5.02428e-22)
(1.02184 -0.00676543 -1.48641e-21)
(0.035863 0.0789951 0)
(0.435975 -0.00464326 -4.18929e-22)
(0.956648 -0.0224116 3.11104e-23)
(1.00925 -0.00146245 0)
(1.02045 -0.000604795 -7.73493e-23)
(-0.028588 -0.063917 0)
(1.07901 -0.0529912 0)
(1.08143 -0.0528384 0)
(1.01877 -0.00290209 0)
(0.615994 -0.0109695 0)
(1.01935 -0.107697 0)
(0.671582 -0.115684 2.34463e-21)
(1.06802 -0.0473221 0)
(1.06804 -0.0384614 -9.59308e-21)
(1.02812 -0.0120618 0)
(1.02989 -0.00386636 -1.55355e-21)
(0.57311 -0.0477988 -2.45141e-21)
(1.08073 -0.0386907 2.88068e-22)
(0.34144 -0.00612708 0)
(1.02917 -0.00923961 -5.01554e-22)
(1.0643 -0.0332307 1.28691e-20)
(0.0720366 0.065382 -1.59158e-21)
(0.688424 -0.0584821 0)
(0.479861 -0.00863992 0)
(1.02472 -0.00398417 0)
(1.06551 -0.0284975 3.84445e-21)
(1.00931 -0.00170689 2.56175e-22)
(1.03266 -0.0293856 2.83475e-21)
(1.02095 -0.0136684 7.72655e-22)
(0.324466 -0.07764 -7.51941e-21)
(1.01092 -9.01593e-05 0)
(0.46389 -0.0256982 2.44861e-20)
(1.00653 6.89163e-05 -6.09093e-23)
(1.07729 -0.0477077 -1.15524e-20)
(1.01511 -0.0048129 0)
(1.02014 -0.0972468 -3.93897e-21)
(1.06653 -0.0316813 9.21631e-21)
(1.06421 -0.0285654 -1.75273e-21)
(0.634681 -0.0150707 0)
(1.07215 -0.0386423 -1.16593e-20)
(1.03181 -0.0334846 3.81791e-22)
(1.00321 -9.25528e-05 1.27768e-22)
(1.07654 -0.0482232 0)
(0.853926 0.165429 0)
(0.982228 -0.0239495 3.1656e-21)
(1.03099 -0.0194752 2.82149e-21)
(0.424782 -0.00399932 4.1685e-21)
(1.01135 -9.0306e-05 1.4944e-22)
(0.169252 -0.0296106 -1.6251e-21)
(0.918119 -0.0737701 -2.51529e-22)
(1.02548 -0.0100594 7.9959e-21)
(0.691884 -0.0414117 -1.43984e-20)
(-0.0266378 0.174581 8.69193e-21)
(0.46426 -0.00929758 -1.41631e-20)
(0.935691 0.00818463 -2.62044e-22)
(1.02703 -0.0104314 0)
(1.01334 -0.00375493 9.29951e-23)
(0.550197 -0.0153564 -1.37233e-21)
(1.01603 -0.000182562 -5.55781e-21)
(0.750898 0.0797591 -2.55124e-21)
(0.471236 -0.0177213 -1.01489e-20)
(1.01145 -0.00295356 2.28098e-22)
(1.04738 -0.0100017 1.01604e-20)
(1.06773 -0.108006 1.3962e-20)
(0.893276 -0.115112 -8.93885e-22)
(0.20739 -0.173663 -4.15458e-21)
(1.02649 -0.00783818 7.65167e-21)
(1.0051 -0.000136264 -3.45588e-22)
(0.512083 0.110308 2.15621e-22)
(0.484007 -0.0172013 0)
(1.07722 -0.0584534 -1.915e-20)
(1.03367 -0.0240222 3.88828e-21)
(1.01774 -0.00344171 -5.84965e-22)
(0.911463 -0.0542369 -7.72434e-22)
(0.0169089 0.0919988 -2.92878e-20)
(1.07634 -0.0523349 5.82177e-21)
(1.00598 6.74453e-05 0)
(1.03316 -0.0366395 0)
(1.00817 -0.00113518 5.05943e-23)
(1.00627 -0.000198451 4.95562e-22)
(0.992145 -0.00982855 0)
(1.00171 -1.36101e-05 -3.27882e-22)
(0.900004 -0.125548 0)
(0.949783 0.0742661 -3.90312e-24)
(1.02183 -0.00704396 0)
(1.01587 -0.000626693 0)
(1.01356 -0.00380073 -1.08905e-22)
(1.02664 -0.0171312 1.85578e-21)
(0.376895 -0.0048533 -2.12993e-20)
(0.579816 0.000706677 7.44047e-22)
(1.05036 -0.0316497 -6.95881e-21)
(0.27936 -0.176655 0)
(1.01514 -0.00468911 7.01595e-22)
(1.04831 -0.0318532 7.11399e-21)
(1.01311 -0.00359239 0)
(1.0083 -0.00119118 -5.02864e-23)
(1.02191 -0.00983932 1.31256e-21)
(1.02138 -0.00696822 -5.4976e-21)
(0.418334 -0.00917164 1.34242e-20)
(1.02307 -0.00418859 3.86912e-21)
(1.076 -0.0422246 -9.56139e-22)
(1.02486 -0.00433043 0)
(1.0346 -0.025105 1.88048e-21)
(0.990899 -0.0155678 5.64137e-22)
(-0.00321575 -0.0853821 7.69707e-20)
(1.00635 -0.000327795 -6.27194e-22)
(0.475646 0.149709 1.09862e-21)
(1.0407 -0.0297119 -1.01961e-22)
(1.0904 -0.0536747 0)
(1.03902 -0.0336541 -1.50844e-21)
(1.04421 -0.0356775 -6.89168e-21)
(0.333927 -0.00412423 -7.71783e-21)
(1.05351 -0.0257154 0)
(1.02033 -0.0350448 -4.08593e-22)
(0.331289 -0.0626839 -7.86176e-21)
(0.936598 -0.0579364 -4.61278e-21)
(-0.0289628 0.0522768 -3.17883e-21)
(1.04674 -0.0432458 0)
(0.916417 0.0931553 0)
(1.01996 -0.0107878 6.54869e-22)
(1.07135 -0.0376539 0)
(1.06734 -0.0461516 0)
(0.218547 -0.177052 0)
(1.0062 -0.00026693 3.2888e-23)
(0.134327 -0.150108 0)