/*--------------------------------*- C++ -*----------------------------------*\
| =========                 |                                                 |
| \\      /  F ield         | OpenFOAM: The Open Source CFD Toolbox           |
|  \\    /   O peration     | Version:  v2012                                 |
|   \\  /    A nd           | Website:  www.openfoam.com                      |
|    \\/     M anipulation  |                                                 |
\*---------------------------------------------------------------------------*/
FoamFile
{
    version     2.0;
    format      ascii;
    class       volScalarField;
    location    "900";
    object      nut;
}
// * * * * * * * * * * * * * * * * * * * * * * * * * * * * * * * * * * * * * //

dimensions      [0 2 -1 0 0 0 0];


internalField   nonuniform List<scalar> 
13851
(
0.000623182
0.00148033
0.00157635
0.00411261
0.00672185
0.00117879
0.00257617
0.00675932
0.0142394
0.00664106
0.00034741
0.00672388
0.0029977
0.00546812
0.00105718
0.00143078
0.0021696
0.00391083
0.000747383
0.000718105
0.000919438
0.000735515
0.00162918
0.00672545
0.00547499
0.00165012
0.000256275
0.0039782
0.0136145
0.00674301
0.0100514
0.00305872
0.000853509
0.0152397
0.000462623
0.0135064
0.00672578
0.00352179
0.0148181
0.00280357
0.0155496
0.0138062
0.000186612
0.000210701
0.0140524
0.00545812
0.00674285
0.00148205
0.00135847
0.00275538
0.00320559
0.00281178
0.00143222
0.00178694
0.00507129
0.00267804
0.000714521
0.0156691
0.000230294
0.00496287
0.00672382
0.000899228
0.0067251
0.00127659
5.18938e-05
4.33396e-05
0.00295149
7.72555e-05
0.00272302
0.00631442
0.0095414
0.000816785
0.00363382
0.00364348
0.00159205
0.00102527
0.00351503
0.00673619
0.00401268
0.00673117
0.00239922
0.000538901
0.000460338
0.00606504
0.00541586
0.0100896
0.000772408
0.00312914
0.00616255
0.00995805
0.00199038
0.00264247
0.000276125
0.00926833
0.0144468
7.13846e-05
0.00603033
0.00139923
0.0035568
0.000204408
0.00136011
0.000157835
0.000135861
0.00314649
0.00600318
0.000634611
0.00519583
0.0100369
0.00271083
0.00415992
0.000444794
0.00580786
0.000405957
0.000440727
0.000995246
0.00188195
0.00672915
0.0067496
0.00344675
0.0068513
0.000103866
0.00565366
0.00229462
0.0126617
0.000521798
4.99621e-05
0.00549911
0.000286083
0.01557
0.000896197
0.000739621
0.000725663
0.00178507
0.0153554
0.000393887
0.0143619
8.8511e-05
0.00989573
0.000209481
0.00106777
0.000524634
0.00144568
0.00598652
5.80976e-05
0.00628756
0.00120733
0.00673525
0.00935783
0.0118119
0.000274906
0.00136396
0.000383864
0.000441092
0.000568667
0.0018895
0.00407813
0.00672347
0.0144231
0.00107229
0.00242712
0.00672498
0.0135906
0.000719455
0.00147899
0.00576377
0.0147276
0.0148052
0.00462575
0.000474616
0.0106539
0.00672386
0.00672716
0.000597744
0.00672229
0.0149647
0.000550057
0.00126653
0.00672832
0.00164765
0.00129133
0.000572145
0.000105917
0.000512332
0.00104311
0.000199322
0.0121111
0.000859334
0.000329733
0.0023411
0.00674693
0.00415506
0.0011121
0.00334767
0.00109543
0.00110465
0.00141603
0.000759205
0.00343977
0.00272386
8.75601e-05
0.000526511
0.0152741
0.0156831
0.00120864
5.95603e-05
0.0146581
0.000928127
0.00137794
0.0144477
0.00109599
0.00143821
0.00312079
0.000541677
0.00672526
0.00050318
0.000915562
0.00295912
0.000659822
0.00295887
3.31027e-05
0.0067273
0.000660637
0.00418933
0.0146737
0.000360524
0.00128264
0.00672577
6.59753e-05
0.00672633
0.00045377
0.00486205
0.000361154
0.00114387
0.00672414
0.0155501
0.0067443
0.00101873
0.0156192
0.000197608
0.00672522
0.000251539
0.00583746
0.0139064
0.00144686
0.000944296
4.93298e-05
0.000653184
0.00159252
8.5919e-05
0.000441296
0.00368018
0.000505168
0.00673621
0.00128029
0.0013887
0.0133922
0.00532434
0.00674527
5.11042e-05
0.00636711
0.000856631
0.000639064
0.00140046
0.000771312
0.000440581
0.00443168
0.000145189
0.0014163
0.00234269
0.00672528
0.00317848
0.000362916
0.0151244
0.00177321
0.000929624
0.00518631
0.000577412
0.000585463
0.000932264
0.00078586
0.0151557
0.00335218
0.0011376
0.00125676
0.00318497
0.00553931
0.0067233
0.000828283
0.000348841
0.00674843
0.0067252
0.00672667
0.00672169
0.00104588
0.00672336
0.0145186
0.000940799
0.00390481
0.0133837
0.0118262
0.00243519
0.00063646
0.00317942
0.00129004
0.00212366
0.000887191
0.00510989
0.0114902
0.000634623
0.00672106
0.011258
0.0067239
0.000546411
0.00484127
0.00190736
0.00238996
0.00211921
0.000467086
0.0111778
0.000381552
0.000134378
0.0150407
0.0142915
0.00341758
0.0025416
0.00443375
0.000367197
2.77808e-05
2.84168e-05
0.000753581
0.000625406
0.000375462
0.0036962
0.000115108
0.00672093
0.0067304
0.000767626
0.0105113
2.81315e-05
0.00548966
0.0142493
0.000361687
0.000680245
0.00236221
0.00352527
0.000580647
0.00141122
0.000991098
0.00123176
0.0131453
0.0021707
0.00061049
0.00123136
0.000838242
0.000345686
0.00606173
0.00343056
0.00027369
0.000211198
0.000530473
0.000724149
0.0131903
0.000977175
0.0154607
0.000773803
0.00676096
0.00231438
0.00072626
0.00504002
0.000800809
0.00162222
0.000307349
0.00323482
0.000284432
0.00475395
0.00209305
0.000453056
0.000432672
0.000963673
0.00568132
0.000879408
0.0157845
0.00130449
0.00177135
0.000535661
0.000260648
0.00390968
0.00125859
0.000320496
0.00160978
0.00513738
0.00090153
0.0108961
0.0036776
0.00107707
0.0021213
0.00136237
0.000332633
0.00143049
0.0098455
0.000942891
0.00150462
8.18118e-05
0.000578624
0.000712611
0.00380288
0.00370733
0.000282244
0.00457618
0.000327078
0.000768608
0.00153906
0.00548364
0.000217711
0.0111625
0.00388368
0.00123454
0.000474022
0.00076013
0.00204024
0.00674078
0.00251934
0.00036466
0.00134699
0.000390101
0.0050148
0.00404708
0.0067226
0.00359056
0.000720531
0.00596647
0.00156254
0.00108443
0.00672687
0.0103922
0.000572066
0.000823056
0.0018097
0.00192441
0.00239121
0.0019774
0.00360071
0.0024669
0.00844579
0.0107934
0.00075918
0.000982566
0.00672479
0.00672316
0.00130763
0.000539544
0.00162823
0.00461414
0.0018965
0.000108974
0.00197052
0.0104869
0.00672365
0.00174918
0.014058
0.000256907
0.00672832
0.006724
0.00180604
0.00329665
0.000266656
0.010518
0.000992796
1.52847e-05
0.00137279
0.00672516
0.0153958
0.000521274
0.000224662
0.00338966
0.0138009
0.000235444
8.89957e-05
0.00293826
0.000691385
0.000288984
0.0014103
0.0150232
0.00057215
0.00304052
0.000863434
0.000386896
0.00447084
0.0134278
0.00165539
0.000826679
0.00084431
0.00103809
0.000244331
0.000590367
0.00672159
0.00200713
0.0152378
0.00798805
0.00125505
0.00906425
0.00689762
0.000620279
0.000408619
0.00672477
0.000395872
0.00673257
0.00594326
0.000330881
0.015355
0.00166929
0.00142322
0.000134661
0.000617042
0.00601361
0.00920281
0.00668176
0.0155849
0.00025875
0.00673231
0.00213829
0.000413527
0.00250388
0.00674719
0.0062275
0.00113341
0.00678446
0.0131279
0.000751757
0.000627692
0.000983943
0.00887079
0.0049983
0.00679063
0.000626335
0.0027198
0.00514517
0.00676501
0.0157855
0.000743072
0.00157624
0.00642112
0.00146053
0.0156108
0.0146084
0.00599662
0.00378867
0.00530552
0.00246462
0.000710815
0.00220943
0.00674128
0.000962477
0.0134236
0.000309111
0.0129265
0.00172304
0.00635492
0.0142835
0.00672456
0.000327901
0.00168067
0.00155344
0.000949719
0.013237
0.00488047
0.00123701
0.00233045
0.00252886
0.000493304
0.013856
0.00775395
0.0025618
0.00476308
0.000133642
0.0131881
0.00101106
0.00135205
0.000495229
0.00200535
0.00127469
0.00457644
0.00950585
9.38402e-05
0.0155516
0.0011125
0.0133692
0.00206848
0.000101884
0.00217595
0.00672463
0.000572713
0.0116494
0.000471594
0.00102491
0.00313394
1.43364e-05
0.000212118
0.00338261
0.00398667
0.00672298
0.000469691
0.000582658
0.00672355
0.0149723
0.00672289
0.00115865
0.00084713
0.00153276
0.00308758
0.00529602
0.00031241
0.00359435
0.000686811
0.0140213
0.00071982
0.00672767
0.00677689
0.00058978
0.00193236
0.000429254
0.00161029
0.000247262
0.000135664
0.00672443
0.00373882
0.00672556
0.0018002
0.00310902
0.0141911
0.000363522
0.0028166
0.000126102
0.000193911
0.014343
0.00514297
0.00987244
0.000374735
0.00089915
0.00166815
0.000802578
0.00676529
0.000392531
0.00363657
0.0133638
0.00371096
0.00246113
7.29878e-05
0.00999158
0.00672576
0.00672563
0.00147274
0.00256842
0.00702202
0.00197816
0.000502933
0.00201973
0.00498608
5.2168e-05
0.000483757
0.000231038
0.00673457
0.00128721
0.000161001
0.00153605
0.00134776
0.00115937
0.000218504
0.000466686
0.00152914
0.000838582
0.000852095
0.000111084
0.0001191
0.000728472
0.0105591
0.00539275
0.0014252
0.00906198
0.000280342
0.00738444
0.000633644
0.00424548
0.00123193
0.000603649
0.000731612
0.00673043
0.00672929
0.00162535
0.00377055
0.00174671
0.0153474
0.00672813
0.00794249
7.50682e-05
0.00282394
0.000382689
0.00103857
0.00165263
0.00398424
0.000226918
0.000299024
0.00053575
0.00213315
0.000455625
0.00155354
0.00109514
0.000771424
0.000440258
0.00413447
0.00672544
0.000927198
0.00524025
0.0139389
0.00672136
0.000280113
0.0151126
0.000350608
0.0148811
0.00442898
0.00111361
0.000248582
0.000383837
0.00672383
0.00336403
0.00673445
0.00589474
0.00672238
0.000502981
0.000397024
0.000145517
0.00289631
0.00118706
0.0142023
0.00672636
0.00486558
0.000476463
0.00672607
0.00672386
0.0145855
0.00113092
0.0068999
0.0111347
0.000961862
0.000707139
0.00678228
0.0154341
0.000837069
0.00168703
0.000102949
0.00672388
0.00140986
0.00518448
0.00147287
0.00428326
0.000789175
0.000762886
0.00038738
0.0140355
0.000333514
0.000570114
0.0136291
0.00673312
0.0135986
0.00672403
0.00212343
0.00374981
0.00110841
0.00102456
0.000308041
0.00069289
0.00672479
0.00672633
0.000510494
0.00205764
0.00672496
0.00181055
0.000300409
0.00672166
0.000174017
0.000286745
0.00576267
0.000319923
0.00888615
0.000203914
0.00672375
0.000273128
0.00672837
0.00123023
0.00921236
0.0131077
0.0113774
0.0134692
0.00237449
0.00261156
0.000128928
0.0012412
0.00564734
0.00132694
0.000814007
0.00624447
0.00147217
0.00117919
0.0044723
0.0067436
0.000652799
0.000651454
0.00182259
0.00672531
0.00105267
0.000377663
0.0154974
0.00194756
0.00672335
0.00302276
0.00146239
0.000877902
0.00672582
0.0155062
0.0067569
0.00387614
0.00672672
0.000197616
0.000954065
0.000112984
0.00079698
0.00367139
0.0014799
0.00672144
0.000269333
0.00139206
0.00761389
0.00244729
0.00572836
0.0153986
0.000788377
0.00672084
0.00270195
0.00948247
0.00112661
0.00139572
0.00347844
0.00308639
0.00404164
0.000641688
0.00672528
0.00672142
0.00605958
0.000983975
0.00672408
0.00167858
0.0155218
7.64419e-05
0.0117845
0.00674302
0.0102048
0.00672581
0.00672149
0.00202568
0.00672303
0.00672534
0.011531
0.00993309
0.00290635
0.00672285
0.000715045
0.00563285
0.00358971
0.000281319
0.00703726
0.0151375
0.00173701
0.00152677
0.00672482
0.000936986
8.76767e-05
0.00533006
0.00672426
0.000304261
0.00400433
0.000773509
0.000491133
0.000976612
0.0067249
0.000655923
0.00123752
0.00264523
0.0010452
0.00152015
0.000630962
0.00672496
0.0037013
0.00381259
0.00674332
0.00283245
0.00635173
0.000936712
4.87725e-05
0.00246182
0.000601903
0.000783219
0.00672127
0.0137074
0.0012745
0.00672075
0.0027247
0.00143758
0.0151649
0.00060369
0.00673259
0.000635089
0.00532755
0.00138055
0.000461436
0.00100219
0.00102928
0.0157958
0.00672352
0.000895274
0.00060104
0.000750446
3.12171e-05
0.00147487
0.000556633
0.00151723
0.0157081
0.00376556
0.00618889
0.000969943
0.00989304
0.00270804
0.00392079
0.00103869
0.0036507
0.00217792
0.00672576
0.00174759
0.0067242
0.0152614
0.000536838
0.000419677
0.000429771
0.000947658
0.00674093
0.00225753
0.000765424
0.00223282
0.000709337
0.0144564
0.000283214
0.00105843
0.000306157
0.0108541
0.00134284
0.0112125
0.00673128
0.000399699
0.00133759
0.00379812
0.000329893
0.00672541
0.00673212
0.000131512
0.00350413
0.000303011
0.00193554
0.000482676
0.00110839
0.000600218
0.000541544
0.00335793
0.0144001
0.000576369
0.00672507
0.000685556
0.00149822
0.0117796
0.00111744
0.00014184
0.00196601
0.00153514
0.000235353
0.00282795
0.0136235
0.00178445
0.00721312
0.000550246
0.00672828
0.00619413
0.000620668
0.00396838
0.00353928
0.000304308
0.00672466
0.00077182
0.000309251
0.00514644
0.0131858
0.00316027
0.000910882
0.0017059
0.0134462
0.000581313
0.00672317
0.0039301
0.000580835
0.00563836
0.00637548
0.00160257
0.00170227
0.0148811
0.00921111
0.001427
0.0148693
0.00137848
0.00493622
6.50393e-05
0.00672856
0.000516013
0.00558781
0.00672156
0.00104812
0.00206673
0.0147909
0.00410366
0.00092318
0.00460245
0.0103945
0.000375843
0.00356738
0.0021826
0.000536305
0.00583148
0.00678039
0.000459282
0.00506263
0.00081769
0.00674191
0.000457714
0.000822647
0.000572613
0.000434349
0.00678611
0.00673981
0.00237936
0.00255166
0.00186482
0.0156241
0.00117997
0.00672349
0.00535478
0.0063616
0.000912003
0.00106805
0.0132418
0.0145993
0.00034136
0.00672532
0.000372781
0.00330648
0.00642159
0.00782283
0.000315395
0.00496633
0.0138676
0.00873137
0.00145203
0.00112637
0.0119451
0.00103809
0.00030493
0.000111403
0.000196371
0.0020071
6.42929e-05
0.00465779
0.00933335
0.00353824
0.00673134
0.000850067
0.000256469
0.000485423
0.00101195
0.00672293
0.00152688
0.00100415
0.001776
3.72194e-05
0.00672408
0.0101892
0.00426569
0.00429733
0.00118727
0.00169771
0.00672453
0.013043
0.000815485
0.0147309
0.0100265
0.00672521
0.000951292
0.000843143
0.00195112
0.000928387
0.00106288
0.00672541
0.00121835
0.00055498
0.00776149
0.000957367
0.00348934
0.00106711
0.00133225
0.000121164
0.000620716
0.000558233
0.00562442
0.00057694
0.0110873
0.0010854
0.00840859
0.0103916
0.0147754
0.00906385
0.00556444
0.00669849
0.00386808
0.00100708
0.00152798
0.000579086
0.0018882
0.00376583
0.00672417
0.00621384
0.00100725
0.00673529
0.00144914
0.00104265
0.00867353
0.00121666
0.00672753
0.00672514
0.00397063
0.00672308
0.000262726
0.000928411
0.00032297
0.00939047
0.00673042
0.00538527
0.0155683
0.0153873
0.00319688
0.00640281
0.000136763
0.00752902
0.0067275
0.000186267
0.00136837
0.00672609
0.00236978
0.00514517
0.00217917
0.00061622
0.000701996
0.00327464
0.00408649
0.000511696
0.000934556
0.0067259
0.00854624
0.00396508
0.000964859
0.00672392
0.00299737
0.00113309
7.73217e-05
0.00245085
0.000187561
0.00969662
0.0010777
0.0151878
0.00425028
0.00375835
0.000245154
0.00672751
0.0034405
0.00206938
0.000155481
0.00216396
0.00448838
0.00672262
0.00554264
0.0020402
0.000417194
0.000862566
0.00270516
0.00672496
8.965e-05
0.00676603
0.00884956
0.00672388
0.00085982
0.00154367
0.00697467
0.00126701
0.00672415
0.000875258
0.00672512
0.00189755
0.000218708
0.00553971
0.00115235
0.0067259
0.00150999
8.22552e-05
0.00103874
8.41143e-05
0.000277189
0.000399567
0.00127178
0.000942587
0.00112757
0.00545429
0.00551279
0.00211672
0.00106794
0.00672326
0.000524138
0.0067296
0.000841272
0.00672781
0.000216027
0.00292344
0.00673841
0.00249438
0.00115183
0.00672363
0.00129209
0.00672063
0.000165894
0.0107511
0.000771178
0.00612911
0.00672277
0.00672578
0.000146221
0.00672507
0.00672501
0.00175011
0.001004
0.00082697
0.000222369
0.00276045
0.000448003
0.00580005
0.00672494
0.0067249
0.00672724
0.000337535
0.00575176
0.00100237
0.000948575
0.00672907
0.00672317
0.0135714
0.00672513
0.000623434
0.00215916
0.0146916
0.000624963
0.000126454
0.000506156
0.000372561
5.30634e-05
0.00260786
0.000386492
0.000800287
0.0058125
0.00564296
0.000996457
0.00104251
0.00416225
0.000323768
0.00672529
0.00147524
0.000397854
0.00320629
4.87377e-05
0.0023927
0.000130587
0.00735873
0.00533707
0.00672436
0.00158297
6.87966e-05
0.00313766
0.000541251
0.000451611
0.014541
0.00162645
0.00120083
0.0015024
0.000340997
0.00672616
0.000274369
0.00474848
0.00234251
0.00676304
0.00872841
0.000525996
0.000921938
0.0143204
0.00155776
0.00166034
0.00672512
0.00263013
0.00662917
0.00195997
0.00882904
0.000394102
0.00423828
0.00930993
0.00672443
0.000355418
0.00047076
0.00261208
0.00085115
0.0067256
0.0139111
0.0104864
0.00678925
0.000735046
0.00142135
0.000817761
0.000565526
0.00144258
0.000924098
0.00152413
0.000353606
0.00134778
0.0067243
0.00137582
8.05699e-05
0.00873051
0.00672542
0.00119986
0.000553779
0.0015389
0.00672592
0.0104122
0.00146903
0.000932004
0.00581171
0.000433411
0.000505427
0.000134683
0.00672432
0.00155674
0.000298916
0.000221696
0.00036552
0.00672395
0.00136527
0.00146771
0.000478759
0.00672438
0.000255514
0.00261292
0.000291197
0.0143714
0.00173837
0.00325578
0.000568058
0.0051181
0.000683347
0.00672485
0.00087422
0.0013893
0.000913074
0.0004333
0.00137499
0.000300011
0.000324828
0.000797617
0.000959839
0.0067344
8.52078e-05
0.00159688
0.00041373
0.000996401
0.000811053
0.000462528
0.00673038
0.00533844
0.000257375
0.00290367
0.0015638
0.00098447
0.00496187
0.000322781
0.00153156
0.013924
9.59682e-05
0.000315274
0.00052132
0.000736253
0.00673064
3.49842e-05
0.00678143
0.000469835
0.0029148
0.0130238
0.000572974
0.000326111
0.00672405
0.00355229
0.00673049
0.00130478
0.000680396
0.0065906
0.0128876
0.00243956
0.00672081
0.000610048
0.000147105
0.00672809
0.00880288
0.00672772
0.000996389
0.0015857
0.00212914
0.000729726
0.000966367
0.00425317
0.000463468
0.000448594
0.000950506
0.000380891
0.0067286
0.00459507
0.0129716
0.00672124
0.000886816
0.000731849
0.000370503
0.00854336
0.00672138
0.00138958
0.000456079
0.0109066
0.00672672
0.00672384
0.000670983
0.00694571
0.00672098
0.000376295
0.000392838
0.000816299
0.000528821
0.000679803
0.000873482
0.00672689
5.12011e-05
0.00672756
0.00426457
0.000707379
0.00673178
0.00193204
0.00036673
0.00672322
0.00322603
0.000576794
0.0124663
0.00328939
0.00495788
0.00672437
0.00672915
0.000594668
0.00672512
0.00548773
0.0111304
0.006726
0.00087176
0.00131617
0.0121838
0.000872271
0.00621551
0.000770452
0.000421423
0.00672301
0.00376176
0.00672484
0.00361312
0.00672477
0.000572907
0.00109318
0.00676482
0.00676936
0.000819605
0.000935604
0.000896872
0.000153106
0.000385247
0.00111082
0.0144964
0.000230498
0.00191245
0.00121179
0.000213929
0.00042301
0.00109198
0.00169644
0.00828671
0.00550426
0.00449748
0.00162568
0.00376501
0.000574532
0.000232914
0.00650158
0.00342375
9.46159e-05
0.00672532
0.00219684
0.00672532
0.00673627
0.00232402
0.00355913
0.00325658
0.0067208
0.00577149
0.00672314
0.000148363
0.00199962
0.000991391
0.000170991
0.00340274
0.0113825
0.000758617
0.00672517
0.0010972
0.00620641
0.000374654
0.0039578
0.0129856
0.00099856
0.000714449
5.74496e-05
0.0096163
0.000532397
0.000285862
0.00122235
0.000300337
0.00345419
0.00206849
0.000108378
0.000532441
0.00335748
0.0067512
0.00677498
0.00263556
7.18016e-05
0.00762257
0.000513944
0.00571958
0.000810402
0.000919429
0.000797502
0.0117825
0.000676683
0.00672264
0.000298211
0.000455512
0.00135465
0.00673021
0.00672302
0.0148007
0.0067257
0.000574435
0.0152086
0.000627869
0.00459281
0.000300298
0.000889893
0.00796152
0.00672494
0.00494279
0.00672627
0.0005361
0.00230584
0.00327027
0.00103159
0.0154088
0.00532441
0.00672473
0.00864645
0.00402608
0.00274409
0.00296804
0.0120209
0.00580836
0.00082443
0.00672551
0.00823346
0.0150529
0.000427821
0.000111237
0.000449975
0.00432113
0.00672419
0.0128877
0.0067225
0.00131717
0.00676637
0.00171922
0.00672451
0.00942091
0.00672717
0.00131913
0.00675647
0.000191543
0.000272509
0.00670349
0.00027344
0.011212
0.000973345
0.00720011
0.00529096
0.000230146
0.00094737
0.000868175
0.000504197
0.00303477
0.00441449
0.00169819
0.000410003
0.00354819
0.00717292
0.00664465
0.000825175
0.000583513
0.000598107
0.000499349
0.0146996
0.00659933
0.00675879
0.000350662
0.0103229
0.000493338
0.00035085
0.0013789
0.00672826
0.0102968
0.00952659
0.00791239
0.00672423
0.00571288
0.00936171
0.000274933
8.19257e-05
0.0125401
0.00118304
0.000749233
0.000363504
0.000576402
0.00406772
0.000628713
0.000760576
0.00673353
0.00744885
0.00672461
0.000544782
0.000950252
0.000509392
0.000606732
0.000290435
0.00199882
0.00143222
0.000504284
0.00396946
0.0159445
0.000533951
0.00171356
0.000586295
0.000512188
0.00016779
0.00672477
0.000560314
0.000126276
0.000355642
0.00424603
0.000446147
0.000904553
0.00030493
0.00878883
0.000286392
0.00105344
0.000176859
0.00720714
0.00241627
0.00145055
0.00787485
0.000453771
0.00113267
0.00132922
0.00672442
0.000208797
0.00191488
0.0137112
0.000402929
0.00157463
0.00672458
8.46714e-05
0.00054134
0.000110359
0.00446328
0.00672668
0.00672654
0.00066777
0.00672447
0.00139197
0.00138227
0.00179935
0.000556107
0.0056883
0.000860525
0.00236258
0.00131878
0.00280502
0.00672571
0.00982544
0.00144025
0.0067284
3.76013e-05
0.000205829
0.000246412
0.00130511
0.000793607
0.00117966
7.98949e-05
0.00109037
0.00159472
0.00672427
0.00335102
0.0022008
0.00638355
0.00148474
0.00522308
0.00672575
0.000207962
0.00564135
0.000779582
0.00122077
0.000131971
0.00672959
0.000251153
0.00180723
0.0118131
0.00672788
0.000304966
2.65243e-05
0.00212292
0.0010701
0.00148269
0.00207054
0.000228215
0.0011173
0.00419208
0.000920201
0.000917027
0.00672465
0.00530894
0.000317176
0.00672475
0.00263932
0.000317859
0.00672584
6.81086e-05
0.00561313
0.0158191
0.00919656
0.00742491
0.00972018
0.0106628
0.00263804
0.00672434
0.0116518
0.00675647
0.00633934
0.00673018
0.000184268
0.0151199
0.00388853
0.000462557
0.00412268
0.00136877
0.000316709
0.0055434
0.00672146
0.00568955
0.0158336
0.00672455
0.00672395
0.00901209
0.0013024
0.00272876
0.0067288
0.009863
0.0104739
0.00383088
0.000827734
0.00672561
0.012528
9.21286e-05
0.00305302
0.00406702
0.00236775
0.00910845
0.00621987
0.0041558
0.0067255
0.00672605
0.0153351
0.00513084
0.00015705
0.000530539
0.00258655
0.00187672
0.000353371
0.000265609
0.000569725
0.01084
0.0123249
0.00672349
0.00152722
0.00139671
0.00148148
0.0141698
0.00673302
0.00457559
0.000415985
0.00118674
0.00127447
0.00672113
0.000443391
0.000556347
0.00395299
0.00672471
0.000398007
0.00228561
0.000843131
0.00165191
0.0153262
0.00276059
0.000171141
0.00153086
0.00442146
0.00093527
0.000795158
5.17416e-05
0.0150293
0.0117624
0.00672312
0.0066301
7.762e-05
0.0155351
0.0022445
0.000542495
0.000656889
0.00306634
0.00969038
0.00672504
0.000954996
0.00908942
0.0158125
0.000363284
0.015587
0.000562994
0.000750659
0.0067622
0.0145618
0.000591113
0.00697301
0.00676325
0.00896872
0.00673841
0.0067268
0.000988786
0.0003567
0.000345625
0.00356029
0.0103071
0.00145103
0.00539939
0.000489373
0.00829719
0.000147214
0.0043333
0.0128952
0.000986777
0.00146479
0.00161322
0.00672378
0.00045483
0.00672744
0.00300398
0.000152751
0.00196792
0.00673261
0.000465729
0.000741946
0.00676344
0.00867927
0.00212757
0.000598168
0.00678502
0.000625536
0.00672404
0.00023867
0.00153669
0.000163015
0.00318201
0.0096205
0.000219944
0.0155382
0.000337906
0.000538848
0.00673768
0.00953901
0.000150307
0.000378879
0.000104075
0.00672508
0.00526428
0.000336957
0.000534108
0.000969703
0.0122438
0.01049
0.00119352
0.00667845
0.000474902
0.000303607
0.00672479
0.00314815
0.00673392
0.000803415
0.000519324
0.000308454
0.0140955
0.00656929
0.00672397
0.00144174
0.000475037
0.00125628
0.00674701
0.015417
0.00131815
0.00145712
0.0022275
0.00396776
0.000435949
0.0113377
0.000149049
0.000884297
0.000354852
0.00672505
0.00133096
0.000319917
0.000414348
0.0029989
0.00672051
0.00355468
0.0103138
0.0133672
0.00521232
0.000412749
0.000339972
0.00340323
0.00672328
0.00285923
0.0154785
6.69434e-05
0.000469608
0.00205873
0.00166381
0.00920303
0.000252256
0.000567218
0.00205666
0.000897075
0.00673749
0.00017111
0.000367817
0.00519939
0.0125373
0.0127424
0.0152776
0.0114353
0.00904424
0.00899118
0.0113378
0.00102984
0.00577807
0.0101664
0.00777449
0.00633605
0.002828
0.000867026
0.00463802
0.0053096
0.00435996
0.0156858
0.000824247
0.00672691
0.000609348
0.000680606
0.000679391
0.00894383
0.00112913
0.000832379
0.00672051
0.0153011
0.00282229
0.000437776
0.00159957
0.000784106
0.00242818
0.00673123
0.000643695
0.000627052
0.000966366
0.00124843
0.00123127
0.000773581
0.00100373
0.00881585
0.000346591
0.0013298
0.0114943
0.000999117
0.00672432
2.74495e-05
6.62286e-05
0.005847
0.000586537
0.0029106
0.0010406
0.00077453
0.000416859
0.00672452
0.00024908
0.00130711
0.00107349
0.000199342
0.00672478
0.00158846
0.0101621
0.0134178
0.0158054
0.000324332
0.00144126
0.00673406
0.00545315
0.00090216
0.00675738
0.0122074
0.00569636
0.00672601
0.00673706
0.0126494
0.00106148
0.0016978
0.00100921
0.000686449
0.000298778
0.000851229
0.000228317
0.000971648
0.000581318
0.00444815
0.00131676
0.00880698
0.000529605
0.0156487
0.000801171
0.00672041
0.00673568
0.000661183
0.000551696
0.00672433
0.00026336
0.000825838
0.000426549
0.00861751
0.00384147
0.00781245
0.00672601
0.000274013
0.000446298
0.0004894
0.00673163
0.000385453
0.00102708
0.00810867
9.79727e-05
0.000420518
0.00672589
0.0132468
0.000420324
0.00833703
0.00744568
0.00100219
0.000907286
0.000449898
0.00863576
0.000187634
0.013697
0.000468787
0.00368253
0.000507808
0.00516234
0.00816297
0.000762165
0.000666044
0.000442136
0.0152821
0.00416627
0.0042278
0.00984298
0.000554449
0.0100317
0.000249173
0.0067284
0.000611415
0.00070644
0.000161332
0.00591519
0.000493376
0.00115659
0.00106842
0.00672549
0.00442241
0.000354417
0.00140113
0.000158292
0.00422081
0.00323291
0.000296433
0.00179806
0.00300232
0.00672496
0.000536201
0.000222962
0.00134038
0.000662232
0.000533839
0.000489119
0.00310837
0.000203251
0.000886524
0.00076625
8.29945e-05
0.00203596
0.000162414
0.000154378
0.00549514
0.000909008
0.00783624
0.0105139
0.00328012
0.000257631
0.0082732
0.00466087
0.00132223
6.73003e-05
0.00967203
0.000452551
0.00837985
0.000570848
0.00432418
0.00116626
0.006732
0.00125709
0.000531644
0.00372351
4.82593e-05
0.00106871
0.000260345
0.0119016
0.0137894
0.00264108
0.0122648
0.00651998
0.00266787
0.0127703
0.00672471
0.0067216
0.00982823
0.00273435
0.00672542
0.000833989
0.014275
0.000514919
0.00166673
0.0111476
0.0067223
0.0130697
0.0102706
0.00672398
6.94641e-05
0.00179296
0.00999168
0.0101783
0.0107713
0.00898419
0.0067316
0.00100886
0.000570002
0.00082522
0.00672596
0.000988195
0.0067305
0.0112699
0.000921199
0.000153971
0.000918013
0.0116964
0.000932816
0.000939499
8.80085e-05
0.00240833
0.000455424
0.00172231
0.00673138
0.00404516
0.000345083
0.00675323
0.0118071
0.00519333
0.00491823
0.00262695
0.0156868
0.00192672
0.00601835
0.000310199
0.000431395
0.000256381
0.00825928
0.0105004
0.000254655
0.00169082
0.00164328
0.00105316
0.0014981
0.000592956
0.00131713
0.00672451
7.40207e-05
0.000662858
0.000469982
0.00797168
0.000799675
0.000309315
0.000222215
0.00055141
0.0013732
0.00600706
0.000365434
0.00673729
0.000647851
0.000189639
0.00943471
0.00672573
0.000612955
0.00553735
0.00208629
0.000409923
0.00170683
0.000634318
0.0106218
0.00071254
0.000909687
0.00193428
0.00672456
0.0130675
0.00672402
0.00197627
0.000773816
0.013437
0.000520223
3.14275e-05
0.000113793
0.00144625
0.00271121
5.78738e-05
0.0005862
0.0143352
0.00053094
0.000273829
0.000586121
0.00154091
0.00093565
0.000170018
0.000551655
8.39364e-05
0.000754312
0.000309097
0.00119385
0.00418598
0.000362577
0.00397957
0.000856915
0.00673137
0.00105001
0.00089242
0.000817535
0.0110162
0.00110377
0.000518914
0.00672186
0.00249567
0.00672458
0.00672434
0.0019769
0.0067283
0.00109831
0.00331384
0.000911188
0.000842471
0.00190513
0.00308053
0.000438789
0.0033699
0.00792244
0.00788509
0.00582952
0.00140703
0.00051128
0.00171502
0.00672452
0.00038374
7.35563e-05
0.000486752
0.0117321
0.000997361
0.0124505
0.0013944
0.00672443
0.00672419
0.0102576
0.0045215
0.00115362
8.55034e-05
0.00060019
0.00233629
0.0152282
0.00672379
0.000849651
0.00440938
0.00142127
5.40676e-05
0.00130869
0.00243222
0.00155479
0.000225504
0.000866044
0.00116971
9.70777e-05
8.1927e-05
0.000308156
0.00152991
0.00215033
0.00156102
0.00128232
0.0132861
0.0110783
0.0137546
0.00141709
0.00577734
0.00143112
0.00210709
0.00672673
0.00149358
0.00672429
0.00168464
0.00400595
0.00605511
0.00606782
0.000438827
0.0045087
0.00139407
0.000326011
0.00278353
0.00502511
0.000509235
0.0157678
0.000327318
0.00312037
0.0132572
9.30278e-05
0.00394227
0.000170478
0.00672557
0.000190233
0.000780675
0.000102439
0.0119147
0.000281226
0.00912472
0.00673269
0.0110422
0.00286636
0.00109162
0.00167757
0.000494954
0.00672312
0.00014623
0.0133077
0.00010985
0.000669666
0.000478441
8.23862e-05
0.00433902
0.00678824
0.00218507
0.000777495
0.00165703
0.0157336
0.00766989
0.000221829
0.00672497
0.000254462
0.000278045
0.000475418
0.0026137
0.00829009
0.00433759
0.00673123
0.00493958
0.00199676
0.00314251
0.00402279
0.0135827
0.00621349
0.00036746
7.75014e-05
0.00619683
0.0151726
0.00209008
0.0157235
0.00386764
0.00113029
0.00162594
8.49104e-05
0.00263751
0.000721455
0.00656298
0.00194128
0.00802413
0.00172439
0.000265348
0.00101159
0.000820976
0.000188396
0.000499906
0.00400633
0.000172465
0.000763755
0.00186865
0.00144194
0.00533775
0.00661427
0.00672384
0.00189119
0.00260698
0.00067053
0.00911972
0.000798376
6.28836e-05
0.00129644
0.00150855
0.00183766
0.0153608
0.0112218
0.00161973
0.00171184
0.00707557
0.0093157
0.000659249
0.000746187
0.00784639
0.0130484
0.00259497
0.000687445
0.0113405
0.00017912
8.85798e-05
0.000410172
0.00204154
0.00674871
0.000218757
0.00672621
0.00387551
7.24794e-05
9.6579e-05
0.0067227
0.000915487
0.000168759
0.000947131
0.00672632
0.00672197
6.86996e-05
0.00227481
0.00326634
0.00159412
0.0134027
0.00146833
0.000214923
0.00672532
5.60314e-05
7.98152e-05
0.00240618
0.000630296
0.00672756
0.0156381
0.0149467
0.000528373
0.000746838
0.000404425
0.000597019
0.00672405
0.00139842
0.00674463
0.00227645
0.00672519
0.0115301
0.00674542
0.00163154
0.000186516
0.000594533
0.00115571
0.00673295
0.014606
0.000373415
0.0027517
0.00763808
0.000342342
0.000663847
0.00744844
0.00061296
0.000163899
0.0019305
6.53042e-05
0.000224967
0.000996757
0.0159625
0.00672944
0.00380796
0.000181984
0.0104219
0.00672305
0.000901309
0.0149916
0.00672597
0.00465389
0.000591058
0.00433297
0.00672219
0.00295963
0.000391454
5.39846e-05
0.00190855
0.000463043
0.00612117
0.00296085
0.00940603
0.00991341
0.0062779
0.00147925
0.00420471
0.00161637
0.00672401
0.000335607
4.92175e-05
0.0148312
0.00445216
0.00116305
0.000664988
0.00672129
0.00672109
0.00495996
0.00253319
0.000472796
0.000503425
0.000874802
7.79115e-05
0.00615839
0.00231938
0.00673547
0.00673351
0.00712896
0.00163014
8.90454e-05
0.000461023
0.00295274
0.000480397
0.000158385
0.00832767
0.00904222
0.0067241
0.00607326
0.00109259
0.000288487
0.015483