/*--------------------------------*- C++ -*----------------------------------*\
| =========                 |                                                 |
| \\      /  F ield         | OpenFOAM: The Open Source CFD Toolbox           |
|  \\    /   O peration     | Version:  v2012                                 |
|   \\  /    A nd           | Website:  www.openfoam.com                      |
|    \\/     M anipulation  |                                                 |
\*---------------------------------------------------------------------------*/
FoamFile
{
    version     2.0;
    format      ascii;
    class       surfaceScalarField;
    location    "500";
    object      meshPhiCN_0;
}
// * * * * * * * * * * * * * * * * * * * * * * * * * * * * * * * * * * * * * //

dimensions      [0 3 -1 0 0 0 0];
oriented        oriented;


internalField   nonuniform List<scalar> 
20673
(
9.76205e-06
6.16145e-06
-1.59105e-05
-1.01345e-05
-1.25284e-05
2.28202e-05
7.95793e-06
-2.5026e-06
-5.45518e-06
2.37934e-05
2.15755e-06
-2.58321e-05
-2.63298e-05
2.71806e-05
-6.92898e-07
-6.79803e-06
7.03385e-06
-2.36355e-07
5.53321e-06
2.05661e-06
-7.58968e-06
-6.69062e-06
5.37647e-06
1.31425e-06
-6.38856e-06
1.14609e-06
5.24263e-06
-1.25334e-05
2.60832e-06
9.93065e-06
-9.03958e-06
-4.093e-07
9.44999e-06
-1.26007e-05
1.31975e-05
-5.91244e-07
1.74515e-05
1.70448e-06
-5.82789e-06
9.93973e-07
-1.36319e-05
2.30416e-05
-9.37949e-06
9.41679e-06
1.18615e-05
-2.12331e-05
2.82119e-05
-9.14269e-06
-1.89413e-05
-1.33561e-05
6.2077e-07
1.27428e-05
2.78186e-06
-1.53763e-05
1.42859e-05
-1.43992e-05
7.02192e-07
4.34582e-06
-1.14881e-07
-4.16939e-06
-5.88945e-07
6.12227e-06
-9.93573e-07
1.89404e-05
-1.75672e-05
-3.29429e-06
-3.39618e-06
-2.98213e-05
2.80378e-05
1.99881e-06
-7.62894e-06
4.52196e-06
3.10705e-06
-5.54363e-06
-7.10978e-06
1.2654e-05
2.07272e-06
-8.79856e-06
6.7267e-06
3.9556e-06
-7.76667e-06
3.81104e-06
8.36716e-07
-1.03944e-05
9.56066e-06
7.49712e-06
7.77501e-06
-1.52604e-05
1.06624e-05
7.92249e-06
-1.85526e-05
-1.20175e-05
-2.35227e-06
1.43727e-05
-4.60205e-06
1.89791e-05
-1.43763e-05
1.17838e-05
1.63558e-05
-2.80283e-05
-4.86426e-06
-2.09252e-06
6.95712e-06
1.63615e-05
-1.69815e-05
-6.13472e-06
4.83923e-06
1.29543e-06
-1.91896e-05
2.41242e-05
-4.62221e-06
4.9016e-06
-2.79409e-07
1.79417e-06
1.78279e-06
-2.3181e-06
1.93238e-07
1.44713e-06
-1.60198e-06
1.60744e-05
3.34929e-06
-1.82951e-05
1.07193e-05
-9.92413e-06
-7.94288e-07
-2.01123e-05
2.66321e-05
-6.29692e-06
-1.90815e-05
1.79027e-05
1.1822e-06
2.7813e-06
-1.61287e-05
1.45886e-05
-8.36303e-06
-6.22058e-06
5.77956e-06
-5.07943e-06
-6.99744e-07
-2.49155e-07
-2.10451e-06
3.18542e-06
-2.27272e-05
9.44974e-06
1.33181e-05
-1.8073e-05
2.66996e-05
-8.60717e-06
6.30235e-06
-5.22429e-07
-1.79403e-05
1.33393e-05
2.19169e-05
6.41823e-06
-1.19464e-05
-7.00992e-06
1.9001e-05
2.48021e-06
-1.15183e-05
2.71152e-05
6.43413e-06
-3.33536e-05
-2.42969e-05
1.99909e-05
4.37923e-06
4.09434e-06
-2.39895e-05
-7.38778e-06
6.69407e-06
6.93924e-07
-2.80862e-05
1.81289e-05
-6.58741e-07
1.62699e-05
-1.44379e-06
-7.65689e-06
8.58348e-07
-2.08066e-06
-4.80285e-06
6.88389e-06
1.5905e-06
-2.62409e-05
-2.60298e-05
-2.799e-06
-7.04415e-06
-1.26896e-06
8.31408e-06
-1.25766e-05
-2.40825e-06
1.49997e-05
-2.78426e-07
-2.59143e-05
-5.65562e-06
-7.32799e-07
6.11733e-06
-4.12694e-06
-1.99048e-06
-3.06289e-05
1.04756e-06
5.29892e-06
-1.7566e-07
-5.12173e-06
1.4672e-05
-7.68818e-06
-6.97911e-06
4.42184e-06
-4.94463e-06
5.22296e-07
-2.80749e-05
2.46232e-05
3.59826e-06
5.86058e-06
1.93246e-06
-7.79301e-06
2.72821e-07
9.08281e-06
-9.30052e-06
1.26113e-05
-2.57896e-06
-9.80662e-06
-2.18988e-05
6.90045e-06
-7.05664e-06
1.56464e-07
-4.17256e-06
-1.96219e-06
-6.85392e-06
6.33638e-06
5.1748e-07
-1.90196e-05
-8.8995e-06
1.38897e-05
-1.30832e-05
-4.8864e-07
3.36562e-06
-5.44595e-06
-8.69588e-06
-1.39819e-05
8.94594e-07
1.6121e-05
-6.19993e-06
4.75613e-06
1.4443e-06
4.71658e-06
-1.50051e-05
1.02928e-05
3.14072e-05
-1.02983e-05
-2.07403e-05
-1.04152e-05
2.4353e-05
-1.38866e-05
-2.64631e-06
6.01217e-06
-5.7043e-06
-1.67066e-06
7.37402e-06
-1.02215e-05
1.21237e-06
9.01086e-06
-7.00898e-06
1.40191e-05
-7.00473e-06
-1.10068e-05
1.02289e-05
7.79415e-07
5.93039e-06
5.08447e-06
-1.10141e-05
-1.05412e-05
-3.84525e-06
1.53494e-05
9.04192e-06
-1.60927e-05
7.05104e-06
7.84015e-06
2.88002e-06
-1.11744e-05
2.28684e-05
-1.15903e-05
1.4615e-05
-2.33388e-05
9.32419e-06
3.26081e-06
3.72295e-06
-6.9836e-06
-9.11867e-06
8.13255e-06
9.86415e-07
9.85779e-06
4.73472e-06
-2.97972e-05
2.07931e-05
-7.88171e-06
-6.18668e-06
1.40783e-05
-6.4651e-06
5.7223e-06
7.4278e-07
-6.57951e-06
1.95728e-06
-1.10354e-05
4.63607e-07
1.05748e-05
-2.43146e-06
5.69243e-06
4.28461e-06
-1.9367e-05
1.50847e-05
6.17041e-06
-3.97456e-06
-2.19619e-06
-2.12227e-05
-5.99998e-06
2.75567e-05
4.9224e-07
5.37089e-06
-5.86395e-06
4.49305e-06
1.00677e-06
-5.50033e-06
1.90383e-05
-4.14138e-06
-1.48948e-05
-4.01773e-06
4.24118e-06
2.93355e-06
-9.97663e-06
5.58885e-06
-3.55842e-06
-2.03051e-06
1.16658e-05
-9.59206e-06
-1.5414e-06
3.27618e-06
-9.05713e-07
1.45856e-05
-2.49445e-05
-2.48813e-05
2.004e-05
5.04875e-06
1.12211e-06
-1.70349e-06
9.92328e-06
2.53408e-06
-1.09909e-05
1.32856e-06
-5.61231e-06
1.08628e-06
4.52601e-06
2.30974e-05
-1.88091e-05
2.46827e-05
2.15672e-06
4.39454e-06
-1.68154e-09
4.13536e-07
-6.67977e-06
6.26661e-06
-6.71668e-06
3.42253e-06
1.52809e-05
-5.50604e-06
-2.4279e-06
8.35882e-06
-2.65589e-05
2.7615e-07
1.53042e-05
3.73662e-06
6.74073e-06
1.97487e-06
-8.71509e-06
-6.87528e-06
2.57809e-05
-1.84244e-05
-2.60759e-05
-7.34545e-07
2.68414e-05
3.34397e-08
8.26833e-06
-8.30096e-06
-2.55703e-05
-4.8264e-07
-5.35328e-06
7.99456e-06
-2.64107e-06
5.18865e-06
-8.18826e-06
2.99969e-06
-2.8282e-05
1.02287e-05
-5.76667e-06
2.39555e-05
-1.76752e-05
-1.07177e-05
-7.63708e-06
1.83879e-05
-1.28719e-05
1.32267e-05
-3.4802e-07
2.98291e-06
3.18729e-06
-1.54733e-05
6.05837e-06
9.41843e-06
1.49059e-05
-1.49668e-05
6.98003e-08
8.44882e-06
1.21021e-05
-2.05066e-05
-7.39679e-06
1.57486e-06
5.8222e-06
5.58536e-06
-1.81439e-05
9.141e-06
-3.21626e-06
-5.9244e-06
5.39426e-06
-9.73317e-07
-6.10615e-06
6.52005e-06
-1.81041e-05
-2.28256e-06
2.0404e-05
9.90377e-06
-1.447e-05
4.56522e-06
9.1638e-06
-1.01911e-05
1.08452e-06
1.53837e-06
-1.17579e-05
2.61096e-06
-1.36424e-05
-1.08433e-05
-1.62088e-07
1.09006e-05
-2.19767e-05
-7.18238e-06
-5.70237e-06
1.28906e-05
-3.03472e-05
2.5808e-05
4.87861e-06
1.50679e-05
-6.02583e-06
7.61823e-06
7.63637e-06
-1.52436e-05
-1.22955e-06
5.03894e-06
-3.80939e-06
-7.80712e-06
1.20097e-05
-4.19984e-06
-2.85395e-05
1.63493e-05
1.22885e-05
3.6204e-06
4.58448e-06
-8.20472e-06
-1.41358e-05
1.22996e-05
1.84258e-06
4.56344e-07
-6.0685e-06
5.54917e-06
-5.05782e-06
2.23135e-06
-7.58442e-06
-2.72082e-05
2.14146e-06
2.53737e-05
1.29929e-05
-8.27273e-06
1.69502e-05
-9.44033e-06
1.85318e-05
-2.49295e-05
1.58733e-05
-1.6862e-06
-6.73327e-07
1.52263e-05
-1.45386e-05
-4.73265e-06
-2.8962e-06
-9.48398e-06
3.96577e-06
5.51908e-06
-1.0421e-06
-6.3545e-06
-9.91453e-06
-4.99961e-06
1.49284e-05
-7.64346e-06
-4.08124e-07
8.05278e-06
-1.03911e-05
6.03727e-06
4.35432e-06
-5.35104e-06
-1.50291e-06
-1.15117e-06
-6.81671e-06
7.96868e-06
5.6779e-06
-2.34116e-05
1.80884e-05
9.11028e-06
-9.13921e-06
2.89465e-08
6.54999e-06
-1.20928e-05
6.56188e-07
8.63351e-07
1.55602e-05
1.61763e-05
8.27461e-06
-1.04865e-06
-7.22535e-06
-1.49247e-06
-4.21386e-06
5.70661e-06
-2.34521e-05
1.58905e-05
7.61663e-06
2.02447e-06
-1.64402e-06
1.17919e-05
-1.57896e-05
4.00563e-06
2.04918e-06
-1.49137e-05
1.97446e-06
4.14262e-06
5.37562e-06
2.48324e-06
-7.85846e-06
-1.44497e-05
2.63289e-05
2.79838e-05
-6.99283e-07
-1.4942e-05
7.93865e-06
8.28909e-06
-5.11435e-06
-3.17459e-06
2.47858e-06
-2.85029e-05
4.09471e-06
2.97909e-06
-7.0737e-06
4.76983e-06
-6.4337e-06
1.66366e-06
-1.18055e-05
4.16374e-06
-8.96056e-06
2.41458e-05
5.20752e-06
-8.12007e-06
2.91296e-06
-7.93295e-06
1.48675e-05
-6.92703e-06
5.56086e-06
-5.86921e-06
3.08278e-07
-3.79958e-07
-1.96255e-05
2.026e-05
-6.03229e-06
-1.35526e-06
5.87013e-06
-3.2722e-05
1.17048e-05
-6.3613e-06
-5.34048e-06
4.23956e-06
-1.42868e-06
-5.71972e-06
5.28458e-06
4.35066e-07
2.22634e-06
4.01869e-06
-6.2449e-06
2.15198e-05
-1.2063e-05
1.71208e-06
6.81642e-06
-8.5281e-06
1.95229e-05
-1.10356e-05
1.81471e-05
-2.64668e-05
-7.26024e-06
2.3963e-06
4.19206e-06
-1.19964e-05
-1.52722e-05
5.37264e-06
-1.73979e-06
6.96763e-06
-5.22769e-06
1.54627e-07
4.61515e-06
3.60801e-06
5.88066e-06
-8.38297e-06
-6.68286e-06
1.7375e-05
-1.95766e-06
-4.24198e-06
-5.14235e-06
5.70859e-06
-5.66262e-07
9.1626e-06
1.78039e-07
-1.35336e-05
-8.85126e-06
2.30757e-05
8.0796e-07
-5.09834e-06
-2.85108e-06
-6.21874e-06
9.07121e-06
-4.26449e-07
-1.89834e-09
4.94569e-07
7.56662e-06
2.4681e-06
-1.00342e-05
6.36376e-06
5.51771e-06
-1.18782e-05
-1.92095e-06
1.1824e-05
-1.24487e-05
1.57311e-05
-3.26611e-06
-6.70155e-07
-9.36647e-06
7.84889e-06
-1.57268e-05
7.88649e-06
-3.30234e-06
-1.80029e-06
5.10207e-06
-2.15829e-05
-3.86843e-06
2.57274e-05
1.27054e-05
-2.40813e-06
-1.02944e-05
9.39146e-06
-9.1018e-06
-2.88921e-07
-2.12569e-05
-3.39637e-06
-2.29136e-05
2.95196e-05
-1.49835e-05
9.03365e-06
5.95471e-06
-6.68306e-06
4.13442e-06
2.54847e-06
-5.68667e-06
-9.783e-06
-1.22392e-05
1.15773e-05
-1.9701e-05
6.09726e-06
9.43941e-07
-8.89238e-07
2.09256e-08
3.81163e-06
1.77717e-06
8.58584e-06
-5.77082e-06
-2.81482e-06
-9.92015e-06
2.10355e-06
7.81705e-06
-5.09095e-06
2.3816e-05
6.32751e-06
-4.20854e-06
-2.11906e-06
-4.32189e-06
-1.44871e-06
5.77056e-06
7.19407e-06
1.94721e-06
-1.97318e-07
6.05791e-06
5.68778e-06
8.98799e-06
1.20886e-05
-2.80591e-06
1.62461e-07
3.79477e-06
9.23372e-06
-1.44864e-05
5.26036e-06
-6.45376e-06
3.46951e-06
2.98424e-06
-8.63375e-06
-1.85928e-06
1.0495e-05
-1.68734e-05
-7.34768e-06
-2.18366e-06
7.55965e-06
9.48709e-06
-1.64104e-05
-8.55606e-06
5.86785e-06
4.08903e-06
-4.51148e-06
-1.94543e-06
6.45707e-06
1.3616e-05
-1.35529e-05
4.97388e-07
-3.27673e-06
6.89728e-06
-1.26033e-05
-1.07817e-05
-3.48516e-07
3.29618e-08
-2.27108e-05
1.21089e-05
1.0629e-05
1.11648e-05
3.74963e-06
-7.59577e-06
-6.87561e-06
7.27969e-06
2.87354e-07
-1.9164e-05
7.08607e-06
1.20944e-05
-2.96781e-06
2.36008e-05
-2.03896e-05
-6.14384e-06
-3.12336e-06
9.26775e-06
-6.18614e-06
4.44649e-06
4.18256e-06
4.40343e-06
2.23363e-05
-2.2425e-05
4.69456e-06
-9.19644e-06
4.50212e-06
1.73324e-05
-2.00954e-05
2.75234e-06
-2.52758e-05
2.25639e-05
9.37261e-06
-3.02475e-05
-1.46918e-06
6.65795e-06
3.91686e-06
-1.61209e-06
-1.64968e-06
6.83322e-06
4.87409e-06
5.76419e-06
-1.8194e-05
-2.1669e-05
-8.30564e-06
1.31603e-05
-1.36166e-06
1.68388e-05
-2.71858e-05
1.04381e-05
-1.576e-07
3.11923e-06
-2.96261e-06
-1.03888e-05
-3.74e-06
-7.87525e-06
-7.12485e-06
-2.81447e-05
2.47987e-05
3.74096e-06
-3.03066e-05
7.57348e-06
-7.02869e-06
3.52204e-06
3.50665e-06
1.46667e-06
3.71214e-06
-5.17911e-06
1.91906e-05
-2.49061e-05
-2.76355e-06
3.66515e-07
3.46808e-06
3.33973e-06
-7.85102e-06
-2.28258e-05
3.32636e-05
-1.00852e-05
-6.2641e-06
2.13708e-06
-3.04424e-05
2.75902e-06
-7.6526e-07
-4.9545e-06
-1.22816e-05
-1.2528e-05
2.49883e-05
2.98789e-06
-9.50923e-06
6.52211e-06
-2.36258e-06
-1.46962e-05
1.70849e-05
-4.65911e-06
5.3325e-06
-6.72163e-07
-2.42025e-05
6.11944e-06
-1.06423e-05
4.53652e-06
8.43823e-07
5.14832e-06
-5.99136e-06
-5.66399e-06
-1.70173e-05
-8.72255e-06
5.87266e-06
-7.47883e-06
5.2259e-07
6.95657e-06
-2.87111e-05
1.29762e-05
1.58418e-05
-6.47479e-06
4.79136e-06
1.6834e-06
2.83261e-06
6.27761e-06
-4.57715e-06
2.5526e-07
9.05622e-06
1.12601e-05
-2.03089e-05
-4.11567e-06
5.10444e-06
-9.89107e-07
-1.38383e-05
1.71347e-05
-3.2667e-06
6.74223e-06
-1.75074e-06
-4.99148e-06
8.10219e-06
-7.25736e-06
-1.25249e-05
4.97582e-06
7.55042e-06
-2.95339e-06
-9.57003e-06
2.01219e-06
5.94582e-06
8.10417e-07
1.04518e-05
-1.11768e-05
-7.87497e-06
1.55034e-05
-4.84832e-06
-1.61678e-06
-2.78752e-05
5.74978e-06
2.22034e-05
1.44444e-05
-2.43269e-05
9.94414e-06
-3.01068e-06
-2.81728e-06
8.29083e-06
-1.57447e-08
-2.43747e-05
3.2383e-05
-7.87061e-06
-4.48271e-06
-5.90789e-06
6.72897e-06
-2.77335e-06
-1.71227e-06
1.41308e-05
-1.14142e-05
-1.12099e-06
5.61318e-06
-1.60149e-06
7.94714e-06
-6.3452e-06
1.43898e-05
-1.89416e-07
-8.02547e-06
-1.71396e-05
2.57677e-05
1.76479e-05
-3.90987e-07
1.70149e-05
-2.22996e-05
-9.04582e-06
2.90254e-06
5.10868e-06
2.12834e-06
-7.23685e-06
-6.0435e-06
8.12191e-06
-2.0787e-06
-2.05172e-06
-4.97697e-06
-2.18367e-05
3.21643e-05
-1.00722e-05
1.03299e-05
2.3777e-06
-2.69881e-06
-2.34529e-06
5.0428e-06
-1.68718e-05
1.90045e-06
1.49841e-05
6.15141e-06
-2.51047e-06
-3.94332e-06
5.94942e-06
-1.70734e-05
7.56681e-06
1.0399e-05
-1.0464e-06
-8.87322e-06
-2.22499e-05
3.87286e-06
1.89588e-05
-7.78144e-06
1.74941e-06
2.33778e-05
-1.90732e-05
-5.18393e-06
5.25168e-07
1.19917e-05
-5.62494e-06
2.29459e-05
-2.42072e-05
1.35305e-06
9.18312e-06
2.61421e-06
-1.16815e-05
-7.76442e-06
-7.17101e-06
8.67096e-06
4.32462e-06
-9.1388e-06
-2.00155e-06
1.11439e-05
-1.3394e-06
2.18151e-06
-1.56145e-06
2.95748e-06
3.78468e-06
6.00995e-07
4.95984e-06
1.45911e-05
-6.73511e-06
-1.23328e-05
-1.95564e-07
-1.73726e-05
4.42938e-06
-1.44104e-06
-3.70132e-06
4.69767e-06
-6.98787e-06
2.29031e-06
3.65889e-05
-1.396e-05
-2.24432e-05
-6.29184e-06
-4.34991e-06
2.94175e-05
-3.39613e-06
-2.58419e-05
9.74e-06
-6.71889e-06
-3.02035e-06
-2.40804e-05
1.19679e-05
-9.12265e-06
1.00258e-05
7.16769e-06
-1.80112e-05
1.09021e-05
3.94635e-06
-6.32025e-06
2.37396e-06
2.03706e-05
-1.31346e-05
-3.35871e-06
-3.32452e-06
-5.2462e-06
6.08853e-06
-8.4275e-07
-7.04368e-06
4.67447e-07
6.57693e-06
-8.65848e-06
6.395e-06
2.26513e-06
-1.80952e-05
-1.05124e-05
-1.69455e-06
6.90255e-06
-3.50942e-06
6.1896e-06
-2.34234e-05
1.76975e-05
-8.27367e-07
1.8086e-07
-2.79448e-05
-2.90542e-05
2.47286e-06
2.67054e-05
8.41328e-06
-7.57413e-06
1.18791e-06
-8.39599e-08
-2.49172e-05
-7.26144e-06
3.2353e-05
8.01178e-07
-2.25836e-05
-6.79635e-06
-2.24882e-06
6.72195e-06
-6.39855e-06
1.91741e-06
-6.03339e-06
-7.78066e-06
4.44326e-06
3.33744e-06
5.77653e-06
-5.36689e-06
-4.09948e-07
6.46878e-06
-7.61919e-06
-6.53761e-06
4.7126e-06
1.82497e-06
5.21469e-06
-5.36379e-06
1.48705e-07
-3.65235e-07
-1.64923e-05
5.99726e-06
-2.75604e-05
7.83605e-06
-1.0608e-05
2.77339e-06
-1.49139e-06
-1.76373e-05
-9.01582e-06
-8.45402e-06
1.74956e-05
2.19041e-05
-1.59156e-05
7.34023e-06
2.23672e-06
6.0525e-06
-3.719e-06
-4.06156e-06
-1.04059e-05
-1.00171e-05
2.04579e-05
-7.70701e-06
1.06152e-05
-2.90593e-06
-1.45354e-05
2.35989e-05
7.62354e-06
1.65706e-05
-1.40261e-05
4.89166e-06
-2.38458e-05
8.2668e-07
2.30997e-05
-7.75597e-06
-7.44825e-08
7.83089e-06
-2.21262e-05
-7.52681e-06
2.03378e-06
2.4185e-06
-4.41972e-06
-1.84437e-06
-5.02613e-06
5.48262e-06
5.62772e-07
-5.58859e-06
9.89511e-06
-9.21616e-06
-6.76724e-07
8.80945e-07
4.89542e-06
-3.97101e-06
-2.5036e-06
-6.1009e-06
2.60003e-06
3.50103e-06
4.07762e-06
-6.10915e-06
2.03151e-06
-1.03471e-05
9.28834e-06
2.25238e-06
7.34443e-06
-1.39368e-05
6.59854e-06
1.06027e-06
-2.48249e-05
-6.59421e-06
-2.17582e-05
2.84844e-05
-1.51934e-06
7.67983e-06
-6.16004e-06
1.20215e-05
3.8083e-06
1.17626e-06
-3.44126e-06
-1.49626e-05
9.24655e-06
5.72216e-06
1.81399e-05
-8.87491e-06
-9.2488e-06
-1.57161e-06
-3.74765e-06
5.31924e-06
-1.38112e-05
2.03652e-05
8.30402e-06
-1.14007e-05
3.09874e-06
-6.08185e-06
4.99255e-06
1.08905e-06
-6.29697e-06
8.53084e-06
-2.23334e-06
5.55373e-06
-2.54731e-06
-3.0066e-06
6.66892e-06
1.76003e-05
1.9149e-05
-6.40294e-07
2.60925e-06
-9.04478e-06
1.46447e-05
-3.05387e-06
-1.30083e-05
5.08062e-06
-7.65356e-06
2.57305e-06
8.69353e-07
-6.91325e-06
-9.32548e-06
-9.82013e-06
-6.35206e-06
1.96567e-06
4.38632e-06
-2.18692e-05
9.96973e-06
-8.31098e-06
9.85103e-06
-2.20421e-06
-3.89659e-06
-4.28428e-06
-3.90388e-06
-1.17612e-05
4.71881e-06
8.30793e-06
-1.56673e-06
-2.16623e-06
1.0472e-05
1.21583e-05
3.04084e-06
-1.51922e-05
-1.01167e-05
9.26344e-06
8.54676e-07
-9.45056e-06
-4.86583e-06
1.43273e-05
-7.76038e-06
-1.70364e-06
9.46514e-06
-7.56452e-07
7.88212e-06
-1.44391e-05
6.56562e-06
-7.84765e-06
1.14834e-05
-3.63297e-06
2.56272e-06
1.39817e-06
-2.63146e-06
-3.21944e-06
7.5367e-06
-4.31688e-06
1.46751e-05
-2.23318e-05
7.69898e-06
1.32457e-05
1.59643e-05
-2.86959e-05
7.69883e-06
-1.67273e-05
-1.06953e-06
-2.38633e-05
2.507e-05
-5.5744e-06
4.00278e-06
-5.79489e-06
3.36356e-06
-2.96116e-05
7.14186e-06
-2.81848e-06
-4.38013e-06
5.31307e-06
-7.77669e-06
2.46375e-06
4.45651e-07
4.76863e-06
5.06615e-08
-7.71916e-07
2.99015e-06
2.56326e-06
-5.88073e-06
-1.37852e-05
1.97871e-05
1.54915e-06
7.07613e-06
-8.62421e-06
3.52122e-05
-1.54259e-05
-1.94261e-05
9.73936e-07
-4.78393e-06
3.80995e-06
-8.9741e-06
1.77669e-06
7.19777e-06
-1.9639e-05
8.95404e-06
4.41723e-06
-2.131e-05
1.70128e-05
-3.90934e-06
-2.6283e-06
-2.56031e-06
-6.92263e-06
-2.81646e-06
-2.29535e-06
5.11176e-06
1.2241e-06
4.96083e-08
-6.05068e-06
2.31849e-06
3.73175e-06
5.38982e-06
3.73945e-06
-7.78513e-06
4.04589e-06
-1.05583e-05
2.42293e-05
5.59293e-06
7.43412e-07
3.24916e-06
-7.16e-06
3.91098e-06
-1.61243e-05
1.22678e-06
1.491e-05
-2.36677e-05
1.61988e-05
-1.9157e-05
-6.31065e-06
2.5573e-05
-7.59349e-06
8.1895e-06
1.55115e-06
5.76995e-06
-5.14972e-07
9.03787e-06
-2.55449e-05
2.2761e-06
4.51056e-06
-6.02051e-06
-4.33905e-06
7.39415e-06
5.37007e-06
9.57296e-07
-7.47551e-06
5.95658e-06
-1.64755e-05
3.83308e-06
6.22272e-06
-1.00549e-05
4.02594e-09
-1.8136e-06
-1.33695e-05
3.55212e-06
-1.17919e-05
4.08728e-06
5.00983e-07
-6.33859e-06
5.83765e-06
1.05794e-05
5.98164e-06
-1.65425e-05
2.50479e-05
1.05826e-06
-3.30187e-06
-2.55659e-05
2.36756e-05
-2.47794e-05
1.08424e-06
7.07937e-06
-6.4005e-06
1.04943e-06
1.17282e-05
-1.27655e-05
1.36724e-06
-2.34349e-05
2.36288e-05
-1.47933e-07
-8.80188e-06
-1.65462e-05
7.10793e-06
-1.31807e-05
1.08374e-05
3.59975e-05
-1.82328e-05
2.21372e-05
-6.42016e-06
-1.56434e-05
-1.58543e-05
-1.97763e-06
1.78666e-05
-1.27762e-05
4.93166e-06
-7.293e-06
-1.85403e-07
7.79957e-06
-2.71965e-06
1.0557e-05
-7.90953e-07
8.64365e-06
-7.8505e-06
7.6688e-06
-5.18518e-06
-1.35149e-05
5.64391e-06
-6.06946e-06
-1.93843e-05
2.57204e-05
3.03992e-06
-6.34266e-06
7.89818e-07
-5.60424e-06
2.01007e-05
-1.70166e-05
2.14631e-05
-4.36347e-06
4.1017e-06
-7.32079e-06
-1.1668e-05
1.00191e-05
1.65145e-06
-4.36067e-06
2.42082e-06
2.77741e-06
-7.75246e-06
1.456e-06
-8.50875e-06
-6.17275e-07
9.12817e-06
-3.75248e-06
5.20557e-06
-1.45373e-06
-8.06545e-06
7.27648e-06
-1.80081e-05
6.94562e-06
1.10694e-05
1.17563e-05
6.39739e-06
-7.69687e-06
1.69877e-05
-8.15278e-07
4.99797e-06
-4.76393e-06
-3.36937e-06
-2.57684e-06
5.94632e-06
-2.78879e-05
5.93036e-06
1.55309e-05
2.38102e-06
-1.78843e-05
-2.1175e-06
8.34101e-06
-6.23108e-06
3.72059e-06
-1.49124e-06
-8.7217e-07
6.71418e-06
7.30948e-06
9.33367e-06
5.63124e-07
2.24076e-05
-1.05025e-05
1.20796e-05
8.21697e-06
-2.02375e-05
2.17327e-05
1.44082e-05
1.14968e-05
-1.21984e-05
7.04477e-07
7.87435e-06
-2.59464e-05
7.04496e-06
-1.49703e-05
6.9641e-06
3.22944e-06
-6.59864e-06
-5.14702e-06
2.33052e-06
2.50733e-05
-1.28293e-05
-1.21727e-05
-1.10276e-05
2.71843e-06
5.01495e-07
-9.47516e-06
-2.12958e-05
1.50035e-05
6.31708e-06
1.0709e-05
-2.99513e-05
1.92738e-05
6.20915e-06
-2.70186e-06
-3.5072e-06
4.18347e-06
3.63033e-06
-7.81366e-06
-2.29849e-06
-4.40114e-06
6.69976e-06
-1.02588e-05
9.03052e-06
1.22925e-06
-7.65478e-07
1.18448e-05
3.68082e-06
-4.8024e-06
-1.52765e-05
-1.38259e-06
-1.91651e-06
-1.28421e-05
-3.69446e-06
1.65598e-05
1.42221e-05
-7.0805e-06
-7.13768e-06
4.63303e-06
-1.66469e-05
-1.25689e-05
2.1777e-06
4.20711e-06
-7.44602e-06
3.23897e-06
9.5323e-07
-1.10684e-05
1.85814e-05
-9.77514e-06
-8.78719e-06
-6.05833e-06
5.24321e-06
-3.1854e-06
-1.73481e-05
2.06225e-05
-1.39583e-06
5.47343e-06
8.8997e-06
3.7403e-07
1.38468e-05
-1.8572e-06
-2.61683e-06
7.3116e-06
-2.34229e-06
6.52589e-06
-6.80526e-06
7.74652e-06
-9.39956e-07
-1.95909e-05
1.64899e-05
-1.54695e-05
-1.29529e-05
-6.79753e-07
-2.26989e-05
1.51324e-05
-5.63485e-06
2.19822e-07
-4.94052e-06
-5.90117e-06
-7.88158e-06
2.00183e-05
-6.00447e-06
-5.75488e-06
7.1096e-06
2.02865e-05
1.52039e-05
-4.11451e-06
5.82686e-06
6.75786e-06
-1.16964e-05
-6.99694e-06
-3.09942e-06
1.00968e-05
3.2141e-05
-1.30342e-05
-1.88156e-05
7.86971e-06
-9.18344e-06
1.31502e-06
2.36874e-05
-3.72477e-07
-4.87403e-06
1.25117e-05
-9.8976e-06
-8.28211e-07
-1.08369e-05
1.06194e-06
1.4493e-05
8.64144e-06
-2.16571e-07
-7.50354e-06
2.21388e-05
-2.74954e-05
5.89171e-06
2.53268e-05
-5.08836e-06
1.10292e-05
-9.91324e-06
-1.1144e-06
-3.1295e-06
-1.59491e-05
-1.03336e-05
2.23923e-06
8.0951e-06
3.42138e-06
-4.7609e-06
6.0129e-06
-1.31894e-05
-1.16285e-05
1.08545e-05
-1.14994e-05
4.02082e-06
7.47993e-06
-7.54167e-07
-6.04937e-06
-2.8756e-06
-5.09737e-06
7.97335e-06
-2.76779e-05
6.37983e-06
-1.2078e-05
-5.48591e-06
1.7571e-05
2.55106e-05
-1.5863e-05
-1.87634e-05
1.7407e-05
1.38838e-06
1.9882e-05
1.60903e-07
5.89507e-06
-2.64579e-06
9.32469e-06
-1.44693e-07
5.32429e-06
1.31779e-05
-1.99258e-05
6.78287e-06
-9.03799e-06
8.62971e-06
2.09093e-06
-1.11946e-05
9.10724e-06
4.09291e-06
-5.83486e-06
1.74185e-06
-1.03322e-05
1.04089e-05
-7.39409e-08
-2.8068e-05
9.03219e-06
3.69759e-06
1.92349e-06
-5.62111e-06
1.18181e-06
-5.773e-06
-6.81092e-06
-2.12906e-05
2.82928e-05
7.92988e-06
-2.48617e-05
4.73032e-06
4.07161e-06
-8.80156e-06
-7.61358e-06
-2.64397e-06
2.46941e-06
-1.11012e-05
1.25207e-06
-1.09441e-06
6.07131e-08
1.92548e-05
-1.47173e-05
-1.69944e-06
-7.80881e-06
2.96664e-06
2.00478e-05
1.18103e-05
-1.38075e-05
-6.98712e-06
-7.99013e-06
-2.05614e-06
2.46809e-05
1.11993e-05
4.41418e-06
-1.56057e-05
4.46517e-06
4.7731e-08
2.20844e-05
-2.18591e-05
-2.14951e-05
2.79166e-05
-6.25998e-06
2.1144e-06
5.67439e-06
-6.95878e-06
-4.00239e-06
5.46883e-06
4.82165e-06
-3.99836e-07
1.12273e-05
-2.15958e-05
-4.97974e-06
3.75019e-06
-2.31355e-05
1.1246e-05
1.1943e-05
5.42203e-06
-7.76417e-06
2.20936e-05
-9.94709e-06
9.25966e-06
-1.16096e-05
7.35752e-06
7.75226e-06
-1.41979e-05
6.45196e-06
2.72622e-05
-1.75854e-05
9.22335e-06
-1.54812e-05
6.26478e-06
6.63877e-06
-6.0195e-07
-4.99457e-06
5.20907e-06
6.51579e-06
-1.1722e-05
1.37035e-05
-1.94657e-05
-8.97185e-07
-5.18479e-06
-5.57821e-06
2.74198e-06
2.83616e-06
4.89047e-06
-4.38945e-06
-6.49181e-07
3.00998e-06
1.31909e-05
-7.45029e-06
-6.05976e-06
-9.52833e-06
-4.04021e-06
1.35779e-05
5.53013e-06
-2.20585e-06
-3.32438e-06
-2.90648e-06
-2.66332e-06
5.56988e-06
-1.18568e-05
1.24847e-05
-2.23575e-05
3.17908e-05
-9.26884e-06
2.26235e-06
-9.05803e-06
6.70259e-06
1.04527e-06
8.91004e-07
-7.88754e-06
-8.09966e-06
-2.23293e-06
-7.53095e-06
1.44626e-05
-6.92322e-06
5.06943e-06
-7.17974e-06
2.11031e-06
-2.52375e-06
-1.09236e-05
1.34595e-05
-1.04749e-05
-5.92198e-06
-1.03538e-05
4.9002e-06
5.4549e-06
7.13995e-06
-8.18799e-06
3.01417e-06
-1.48625e-05
-5.0935e-06
-1.92111e-06
7.01654e-06
1.10454e-05
4.81818e-06
-1.58543e-05
1.0665e-05
-2.4564e-05
1.40051e-05
9.159e-06
5.0665e-06
-1.80946e-05
1.24536e-05
8.18653e-06
1.89442e-05
-2.673e-05
2.49248e-06
-2.12185e-05
-1.46361e-05
6.76455e-06
1.16159e-05
-1.92207e-05
-2.01843e-05
3.04501e-05
-9.97653e-06
-1.84629e-06
7.08727e-06
-1.45971e-05
7.51638e-06
2.26501e-05
-5.66937e-06
-1.68875e-05
7.20791e-07
1.10934e-05
-2.78786e-05
5.62843e-06
-2.62095e-05
3.33529e-06
2.30321e-05
4.83709e-06
1.83431e-08
-5.86929e-07
-2.32356e-05
2.38911e-05
-2.25749e-05
1.98732e-05
3.53067e-06
2.0836e-05
-1.30414e-05
-7.75041e-06
1.28706e-06
-6.94977e-06
6.42595e-06
-3.40671e-06
4.3806e-06
1.01514e-05
4.72138e-06
-1.48668e-05
5.20762e-07
-7.21876e-06
1.75225e-05
-2.4782e-06
-1.39483e-05
-5.40805e-06
5.69239e-06
-1.22795e-07
-1.33973e-05
1.63003e-06
1.17698e-05
7.02994e-08
1.20936e-05
-7.35621e-06
-1.59617e-05
2.33177e-05
-7.01216e-06
7.21346e-06
-2.01143e-07
3.57542e-06
-1.16966e-05
8.12475e-06
-1.62969e-06
-6.15148e-06
1.56983e-05
-7.75121e-06
-2.12955e-06
9.88258e-06
2.42098e-05
-5.56196e-06
-1.84972e-05
-2.59243e-06
4.61657e-06
-1.95263e-06
3.26669e-06
-6.73129e-06
-3.04643e-06
1.99592e-05
-3.02621e-06
-1.98407e-06
5.00981e-06
-1.05557e-07
-5.15102e-06
-2.48518e-06
7.53319e-06
-5.0477e-06
1.74411e-05
3.42541e-06
-5.01865e-06
2.31894e-06
-1.14217e-05
1.16978e-07
1.13102e-05
-6.37373e-06
9.95224e-06
-1.04296e-05
1.39273e-06
9.11215e-06
-2.24517e-05
1.41009e-05
2.04401e-07
-2.04401e-07
1.29385e-05
4.65321e-07
2.46083e-05
-2.50523e-05
-1.35813e-05
2.81787e-05
-1.45112e-05
6.77359e-06
-7.69709e-06
9.23702e-07
-8.07945e-06
2.45173e-05
-1.79696e-05
1.66396e-05
1.43322e-06
1.88844e-05
-9.80464e-06
-9.0474e-06
2.20593e-05
-1.52723e-05
-5.99899e-06
6.10138e-06
5.7041e-08
-5.04127e-06
-1.16834e-05
-1.57179e-05
3.34775e-06
2.18227e-06
1.01394e-05
6.77263e-06
-1.68939e-05
-1.82069e-05
1.84824e-05
-2.0946e-06
5.18506e-06
-3.76975e-06
-2.46136e-06
8.07706e-06
-1.03342e-05
2.92714e-05
-1.87932e-05
-2.28269e-05
-4.93165e-06
3.15629e-07
-7.32762e-06
2.9645e-06
5.67171e-06
-8.63584e-06
-4.68898e-06
5.59288e-06
-9.0391e-07
-9.89047e-06
-8.11046e-06
2.29069e-05
-1.21375e-05
1.01386e-05
-5.51326e-06
1.08831e-06
6.07506e-06
1.44465e-05
-6.5558e-06
1.59203e-05
9.07279e-06
-3.95039e-06
-5.12185e-06
1.90781e-05
-7.81278e-06
-4.58413e-07
5.25e-06
9.23947e-06
-2.47173e-05
1.56033e-05
2.37976e-05
-1.07536e-05
-1.30077e-05
-4.03385e-06
-1.43878e-07
4.17773e-06
3.06058e-05
-1.01257e-06
1.84131e-05
-3.70338e-06
2.15344e-05
7.05251e-06
-2.83757e-05
-3.95986e-06
4.03864e-06
5.38514e-07
-1.46713e-05
8.49515e-06
4.88916e-06
-1.24857e-05
1.793e-05
5.40422e-06
-2.3203e-05
-8.91189e-07
6.31335e-06
5.58532e-06
-2.61118e-06
-2.97415e-06
1.23878e-05
1.64854e-05
-1.74654e-05
2.21563e-05
-4.08367e-06
9.15382e-06
-1.23846e-05
3.23252e-06
5.18393e-06
1.3457e-06
6.60236e-08
4.84362e-06
2.4107e-06
-7.25395e-06
4.65627e-06
-2.14836e-05
-6.84984e-06
-2.00453e-05
-3.18212e-06
2.35304e-05
-9.02172e-06
2.76167e-05
-1.81975e-05
7.14533e-07
-2.71405e-05
2.41845e-05
3.20917e-06
7.27958e-06
-1.49358e-06
-1.21166e-05
1.30816e-05
-9.52718e-07
-4.99778e-06
4.53653e-08
4.96525e-06
1.32129e-05
4.56112e-06
-1.68611e-05
2.98853e-05
-2.03682e-05
-9.5118e-06
-3.28126e-05
1.27412e-05
2.04131e-05
4.79238e-06
-2.61113e-05
2.80436e-06
-6.25749e-06
3.4531e-06
1.94394e-05
-2.77644e-05
8.62288e-06
2.84318e-05
-9.65857e-06
-1.83484e-05
2.65275e-06
-6.30999e-06
3.65726e-06
3.9301e-06
4.06462e-06
8.39908e-06
1.01975e-05
7.43331e-06
1.26865e-05
-5.22544e-06
-7.45674e-06
2.20626e-05
-1.41143e-05
-7.89198e-06
-7.08559e-06
2.57586e-05
-1.82185e-05
4.6605e-06
1.32437e-05
-4.07644e-06
-3.76002e-06
8.9714e-06
-1.87945e-05
-4.0577e-07
1.93357e-05
5.63895e-06
-2.67769e-05
-5.79403e-06
2.88766e-06
-1.92078e-05
1.20236e-05
7.20022e-06
6.10518e-06
-1.84312e-06
-4.26207e-06
-1.09828e-07
1.57421e-05
5.61823e-06
-1.90657e-06
-1.23688e-05
-5.46782e-06
1.78562e-05
6.06513e-06
-2.49449e-05
-2.77386e-06
-2.29303e-06
5.06677e-06
5.2426e-06
5.67005e-07
-5.8077e-06
-1.25011e-05
-1.99291e-05
-5.8752e-06
-4.47698e-06
-2.5956e-06
6.58153e-06
5.6785e-09
-2.68601e-05
4.61053e-06
1.37278e-05
-6.08317e-06
1.87452e-06
-6.58402e-06
-1.51093e-05
8.72422e-06
1.91564e-05
4.3198e-06
-4.56972e-06
1.73721e-05
-1.27405e-05
8.85465e-06
-7.30439e-06
-3.37344e-06
-7.48117e-06
1.74838e-05
-2.69594e-05
9.83614e-06
9.83142e-06
5.64041e-06
-1.54703e-05
1.29264e-05
-1.22382e-05
-2.90851e-07
4.05345e-06
-9.03375e-06
-1.02868e-05
1.984e-05
-7.93617e-06
1.74595e-05
-1.62378e-05
-1.11861e-06
8.74701e-06
-4.56815e-07
8.82416e-06
4.66776e-06
5.48154e-07
-5.216e-06
8.11008e-06
-3.08879e-06
-5.02113e-06
-1.838e-05
6.31108e-06
-6.90934e-06
5.30822e-06
-3.6125e-06
-1.745e-06
5.35749e-06
-2.16807e-05
-8.44041e-06
5.33135e-06
-1.65114e-06
2.08111e-06
4.61309e-06
1.34104e-06
-4.95356e-06
-6.81439e-06
4.18556e-06
2.62878e-06
6.00355e-06
-3.35076e-06
2.29796e-06
-6.05162e-06
-5.46773e-06
-6.03027e-06
2.00554e-05
-2.62606e-05
6.13959e-06
6.63031e-06
-1.89784e-05
6.60806e-06
-1.91028e-06
1.82682e-05
-2.83235e-05
-2.89846e-05
1.90251e-05
1.75978e-05
-2.77859e-05
5.98267e-07
1.69376e-05
-1.65516e-07
-1.67271e-05
1.16703e-05
5.14406e-06
-1.68055e-05
-5.01212e-06
4.74297e-07
4.53761e-06
-9.30249e-06
-1.93263e-05
-2.22198e-07
2.18456e-05
-2.15639e-05
-5.51212e-06
2.86329e-06
2.64854e-06
8.06339e-06
-7.66295e-07
-7.29649e-06
1.32167e-05
1.66567e-05
-1.42251e-05
-1.99576e-05
9.21354e-06
1.0772e-05
2.93488e-05
-2.02541e-05
-8.8902e-06
-4.98421e-07
-5.07994e-06
-5.66007e-06
-8.5661e-06
1.50908e-05
7.39083e-06
-2.24574e-05
1.32449e-05
-1.77545e-05
3.08868e-06
2.49662e-06
1.03115e-06
-5.065e-06
5.70793e-06
-3.38408e-07
5.05e-06
-2.47651e-05
6.78073e-06
-9.34002e-06
-1.01383e-05
1.63176e-06
-4.65807e-06
5.51779e-06
-8.59837e-07
-1.77524e-06
8.12185e-06
4.45687e-06
-1.25757e-05
1.81604e-05
1.83541e-05
5.99269e-06
2.28997e-05
-1.3547e-05
-5.32126e-06
8.82299e-06
2.1613e-05
-4.14742e-06
-5.15419e-06
3.81236e-06
-1.96365e-05
-8.78349e-06
6.26685e-06
3.03471e-06
3.33524e-06
-6.36999e-06
-3.82766e-06
1.07637e-05
-6.93424e-06
2.55361e-05
-1.65783e-05
2.86596e-06
3.65936e-06
2.6627e-06
-6.32198e-06
-8.49806e-06
-4.95094e-06
-2.20175e-05
2.70256e-05
4.11787e-06
-6.08677e-06
1.96874e-06
6.6168e-06
-2.79471e-05
1.13071e-05
-2.47963e-05
1.06781e-05
3.62924e-06
-1.43057e-05
-4.98488e-06
-1.36724e-06
7.06071e-07
2.02168e-05
1.22061e-05
3.68769e-06
3.10361e-06
-6.79125e-06
3.59474e-07
-7.26833e-06
-8.42382e-06
1.75559e-06
6.66861e-06
-2.3355e-06
9.19227e-06
-6.85487e-06
-6.05897e-06
3.96674e-06
-6.36325e-06
2.14406e-05
-1.47874e-05
-7.49687e-06
-1.03902e-06
8.53674e-06
2.10786e-05
-2.59749e-05
-2.87439e-05
1.43615e-05
1.4836e-05
2.98746e-05
-1.91366e-05
-2.76111e-06
7.84183e-06
-4.8457e-06
1.56717e-07
9.66234e-06
-2.69286e-05
1.76483e-05
-4.40945e-06
1.85198e-05
2.85399e-05
-6.80334e-06
7.69516e-06
-2.21019e-05
1.48026e-05
-2.03563e-05
5.58489e-06
2.58908e-05
-2.54032e-05
5.2225e-06
-2.94521e-05
-1.02154e-05
-8.29386e-06
2.61062e-05
1.22699e-05
8.97082e-06
-8.98299e-06
1.29962e-08
4.92057e-06
-6.40968e-06
1.48948e-06
6.97986e-06
-2.79868e-05
2.14357e-06
-1.02642e-05
8.12333e-06
7.92486e-06
1.72033e-05
1.13528e-06
-5.91928e-06
-9.86948e-07
4.64634e-06
1.26166e-06
4.46063e-06
7.49999e-06
5.19035e-06
5.90543e-06
-6.61534e-07
-3.40685e-06
5.89455e-06
-1.94817e-06
-7.80986e-06
-8.36633e-07
-1.7326e-05