/*--------------------------------*- C++ -*----------------------------------*\
| =========                 |                                                 |
| \\      /  F ield         | OpenFOAM: The Open Source CFD Toolbox           |
|  \\    /   O peration     | Version:  v2012                                 |
|   \\  /    A nd           | Website:  www.openfoam.com                      |
|    \\/     M anipulation  |                                                 |
\*---------------------------------------------------------------------------*/
FoamFile
{
    version     2.0;
    format      ascii;
    class       surfaceScalarField;
    location    "300";
    object      meshPhi;
}
// * * * * * * * * * * * * * * * * * * * * * * * * * * * * * * * * * * * * * //

dimensions      [0 3 -1 0 0 0 0];
oriented        oriented;


internalField   nonuniform List<scalar> 
20642
(
-0.00068699
-0.000110524
0.000797514
0.00220147
-0.00377073
0.00156353
0.000435674
0.000677622
-0.00111338
0.000404034
-0.00300183
0.00258062
0.00300717
-0.00436627
0.00134193
0.00384967
-0.00165574
-0.00123497
0.0026842
-0.00145383
0.00455933
-0.00258974
-0.00197319
0.00118943
0.00112501
-0.0023189
0.000679303
0.000102971
0.0019927
0.00256275
0.00393119
-0.00338734
-0.000575595
-0.000162869
-0.000131485
0.00262379
-0.00398234
0.00135683
0.00316088
-0.00421577
0.00104156
-6.33692e-05
-0.000623621
-8.78864e-05
-6.89335e-05
0.000103875
-0.00446986
0.00196989
0.00249606
0.00164033
-0.00116256
-0.000478038
-0.000830634
0.000456522
0.000374111
0.00318353
-0.00206797
-0.00112052
0.000727038
0.00253098
-0.00329684
0.000953607
0.00083004
-0.00178468
-0.00285704
0.00354166
0.00359988
-0.00187112
-0.0017391
-0.00338249
0.00134127
0.00203637
-0.00281388
0.0015866
0.0012268
0.000679303
-0.00398698
0.0014668
0.00251541
-3.44429e-06
-7.38224e-05
7.51812e-05
0.000596711
8.2592e-05
0.00206033
-0.000736553
-0.00132428
-0.00363365
0.00242666
0.00118848
-0.000804213
0.000405794
0.000398417
-0.000177051
0.00261351
-0.00248065
0.000343682
-0.00293644
0.00292121
0.000332459
-0.00326728
9.58315e-05
-0.000348771
7.88693e-05
-0.00246626
0.00122707
0.00201023
-0.0030541
0.00104006
1.18225e-06
2.45735e-05
-5.99802e-05
0.00149926
-0.00226089
0.000736742
-0.00330842
0.000389441
0.00291077
0.000700832
0.000553487
-0.00125454
0.00147652
-0.000775968
-0.000458019
0.00139388
-0.000936135
0.0028481
0.000328578
-0.00109943
0.00066688
0.000432541
-0.00185045
-0.00167915
0.0035283
0.00192898
-0.00214166
0.000352501
0.00354492
0.000569103
-0.00175556
0.00118597
-0.000450698
0.000739615
-0.000288917
-0.00338459
0.00396679
-0.000621381
-0.00422886
0.00320822
0.00098305
0.00148285
-0.000914111
0.000596711
-0.000917229
0.00186965
0.00231413
-0.000840356
-0.00163103
0.00117265
0.00179029
-0.000951759
-0.000838574
-0.00123655
-0.00185017
0.00306813
1.02859e-05
7.84186e-07
-1.5794e-05
0.00131348
0.00227468
0.000742639
9.1115e-05
-0.00083378
-0.000142387
9.07801e-05
5.10774e-05
0.00166189
-0.00390969
0.00224367
0.00275768
-0.00241685
-0.0024809
0.000762616
-0.000460666
-0.000301951
0.000223305
0.000695387
-0.000918732
-0.00058549
-0.000218724
0.00421824
-0.00359561
-0.000662074
0.00172109
0.000562235
-0.00324379
0.00117121
0.0043266
-0.00219833
-0.00213921
0.00272184
-0.00410665
0.00136662
0.00233024
-0.000640225
0.00169757
0.00261734
-0.00226471
-0.00138147
-0.00276308
-0.00132198
0.00405362
-0.00010268
-0.000102734
0.000131949
0.000570181
0.00360223
-0.00114321
0.000685435
0.000457743
0.00194862
-0.00175055
-0.000368095
0.00403236
-0.00169717
-0.00233763
0.00112635
0.000933356
-0.000573251
-0.000443957
0.000803658
0.00290223
-0.000896106
5.61651e-05
-0.00018985
6.23235e-05
0.00019884
-0.00030782
-0.00235906
0.00227421
-0.00412616
0.000279369
-0.00260466
0.00227838
0.000695577
0.00299922
-0.00372244
-0.00232937
-0.00369939
0.00199238
0.0017059
-0.00016283
-0.000119904
0.000181086
-0.00109761
0.000355297
-0.00188592
0.00309165
-0.00120741
-3.11563e-05
-2.22475e-05
3.57225e-05
8.77636e-06
-5.27294e-05
-0.00385224
0.00106261
-0.000379446
-5.53037e-05
0.000341857
0.00434553
-0.00164689
0.000817712
8.13214e-05
-0.000899052
0.000693387
0.0001324
-0.000825797
0.00231462
-0.00357266
-0.000693414
-0.00159185
-0.00133273
-0.00148185
0.000545291
-0.00152563
0.000867153
-0.000461362
0.00377834
-0.00231592
-0.000232879
0.000975493
-0.000231732
-0.00222045
0.00244286
0.000935481
0.000704533
0.000163797
-0.000199544
-2.87489e-06
-0.000745297
-0.000547552
0.00129273
-0.00088783
-0.00258007
0.00342328
-0.000275249
0.000102281
-0.00229583
0.000838764
0.0014234
-0.00154631
-0.00236755
-0.000956194
-0.000623071
0.0015788
-0.000486786
0.000784645
-0.000297859
-0.000502368
-0.000640865
-0.00322853
0.00111126
0.002106
-0.00106769
-0.00218089
-0.00263143
-0.000611511
0.00318753
0.000590571
-0.00154714
0.00236587
-0.000694595
-0.00167309
-0.000728571
0.00180548
-0.0010774
0.000911226
-0.000578551
-0.000332681
-0.00270249
0.00246035
0.0016719
-0.000473121
-0.00119917
-0.0029372
0.00160377
-0.00175719
0.000914928
0.000842209
-0.000423348
-0.000299496
0.000722843
-0.00386017
0.0015075
0.00234748
-8.64632e-05
-0.00365244
0.00374929
-9.80311e-05
0.000816038
0.00148316
-0.000289028
0.00110672
-0.000728798
0.00294275
-0.0022735
0.0037265
-0.0033969
-0.000371948
-0.00190429
-0.000416901
0.00230056
0.000890684
-0.000667416
0.00425654
0.000219324
0.000498238
-0.000717566
0.000677566
-0.00410513
-0.00214175
0.00299794
-0.000860285
3.12472e-05
9.91449e-06
-5.74022e-05
0.00317694
0.000503958
-0.00142963
-0.00227083
0.00375935
-0.00306153
-0.000728224
6.82203e-05
-0.000535279
0.000565248
0.000219653
-0.000784906
-4.41224e-05
-5.77396e-05
6.53613e-05
1.18744e-05
0.000119571
0.0034295
-0.0027159
-0.000827152
0.000398788
0.000620539
-0.00101937
-0.00437602
0.00158014
0.00278377
7.19863e-05
-0.00059672
-0.00066438
0.00126107
-0.0030907
0.00159296
0.00149662
0.000177621
-0.000664304
0.00134268
-0.0006784
2.32065e-05
-2.28416e-05
-9.37426e-07
-0.00141743
-0.00244768
0.00534321
-0.00312442
-0.00225801
0.000279531
0.000567334
-0.000846873
0.00290267
0.00188054
-0.0012328
-0.000647853
-0.000503846
0.00166117
-0.00115811
3.51256e-05
-9.26559e-05
3.43427e-05
-0.00239455
0.00278297
0.000818972
-0.00175812
0.000938715
0.000760956
0.00160266
-0.00244923
-0.00193717
-0.0029316
0.00316704
-0.000243396
0.00244097
0.00328916
-0.00296472
-0.000340031
0.00113463
-0.00079478
0.000419687
-0.0011651
0.00123061
-0.00195976
0.00344753
-0.000189953
-0.00145442
0.00111413
-0.000109901
0.000104323
0.00213816
0.00189188
0.00147351
-0.00197839
0.000830492
0.000645745
-0.00163054
0.000770717
0.000859539
-0.000491073
0.000798725
-0.000307653
-0.00182939
0.00207305
-0.000361672
0.000779508
-0.000417836
0.000766831
-0.00269845
0.00192561
0.000547547
0.000363671
-0.000614008
0.00318438
0.00312267
0.000602859
-0.00138753
-0.00177901
0.00316002
-0.000611314
-0.000190098
0.000801412
0.000171549
-0.000594897
0.00386907
-0.00289399
-0.000991117
-0.0018406
0.00236642
-0.00052621
-0.00253963
-0.000888783
0.00342163
0.000756598
-0.00151023
-0.000936994
0.00288193
-0.00423495
-0.00223579
0.00268434
-0.000521129
-0.00462968
0.00201576
0.00260108
-0.00311892
-0.00152232
0.000886198
0.00130649
0.00036507
-0.00187919
-0.000430096
-0.000507475
0.000937548
-0.000162683
0.000477485
-0.000504011
-6.68537e-05
-0.000859798
0.000895422
-0.000867581
0.000771072
0.000629477
-0.00175746
0.000919088
0.000838073
0.000641979
-0.00156437
0.000922159
0.00248872
-0.00234911
-0.000332032
-1.96149e-06
8.63553e-06
-0.00152236
-0.00141539
0.000377942
0.00121881
-0.000797171
-0.000455384
0.000713432
0.0004689
-4.12923e-05
1.64648e-05
-4.56584e-05
-0.000851301
-0.000900483
0.000824637
-0.000457685
-0.000127806
-0.000479049
-0.000517506
0.000996543
-0.00411946
0.00249636
0.00159316
2.88913e-05
-4.48129e-05
1.34552e-05
-0.00137981
-0.000743904
0.00212292
0.000351813
-0.000760069
0.000408255
-0.000151404
5.27727e-05
6.03045e-05
0.000106008
0.00217717
0.00092379
-0.00276477
-0.000583425
-0.000398266
0.000981673
-0.000623052
0.00045546
-0.000885574
0.000834125
0.00113217
-0.00196698
0.00187562
-0.00265724
0.000601375
0.000741271
0.00028545
-0.00166591
0.00142519
0.00234896
0.00188348
-0.00128596
-0.000598032
0.00279859
0.00105437
0.00040714
-0.000505197
0.00274545
-0.00227606
0.00266567
-0.00195255
-0.000714903
-0.00229239
0.0013983
0.000892895
-0.00462696
0.00184341
0.0027521
-4.32553e-06
-0.00192499
-0.00352714
0.00446932
-0.000963107
0.00200817
0.000692781
-0.0027361
0.000764618
-0.000302156
-0.000462462
-0.00341034
0.000800593
0.0026087
-0.00248156
0.000801938
0.0016416
-0.00013227
0.000807942
0.000788368
-0.00387961
-0.000848165
0.000679142
-0.00312534
-0.000589014
0.000132356
0.00231092
-0.0016482
-0.000664809
-0.00103786
-0.00147665
-0.000725167
0.000468913
-0.000300779
0.000994154
-0.00472576
0.00154881
0.00311848
0.00315677
-0.00447501
0.00129843
0.000730244
0.00101671
-0.00174726
0.000111561
-0.000770805
0.000635099
0.00102269
-0.00244827
0.00142413
0.00044867
0.000315947
0.000748268
-0.000660133
0.000377059
0.000385557
-0.000721425
0.00269345
0.00110716
-0.000708426
-3.35986e-05
4.40309e-05
-0.00287468
-0.00105713
0.00391815
-0.00279607
-0.0018558
-0.00298217
-0.000658566
0.00356933
-0.000986102
0.0013211
-0.000335171
-0.000245906
-0.000169254
0.000268192
-0.00161321
-0.00147863
0.00081904
-0.00256253
0.00173895
2.33863e-05
-0.00194733
-0.00127151
-0.00118106
0.00245183
-0.000301638
-9.87304e-05
-8.62068e-05
0.00127669
-0.00218211
0.000904247
-0.0039245
-0.000317461
0.00421792
0.000534861
-0.0028664
0.00232157
-0.00105382
0.0040416
0.00373233
-0.00204396
0.000675715
-0.00270535
0.00198783
-0.000601532
0.000207082
0.00108112
-0.00194973
0.000868058
0.000923967
-0.00352911
0.00259243
0.00142588
0.00123724
0.00101385
0.00270825
-0.00171666
0.00170463
-0.000154423
-0.000241182
0.000806426
-4.73112e-05
-0.000564003
-0.00241778
-0.000653329
0.00301503
0.000241598
-0.000795601
0.000545956
-0.00217693
-0.00315027
-0.000830538
0.00397349
0.00115297
-0.00120579
5.26749e-05
0.000972414
-0.000118376
-0.000854049
0.000516881
0.00136359
6.56351e-05
3.4586e-05
-0.000100687
0.000261014
0.00154376
0.00423443
-0.00109804
0.00109758
-0.000412182
-0.00381593
0.000658479
-0.000618581
0.00105418
-0.000468223
0.000100117
0.0038071
-0.000660342
0.00251001
-0.000558492
0.00347996
-0.00295335
-0.000434747
-0.00334162
0.00144767
-0.000617462
-0.000130506
-3.76729e-05
0.000114146
0.000731211
-0.000451687
0.00132161
-0.00129039
-0.000220286
0.000911027
-0.00183906
0.000202578
0.000655326
-0.000875696
-0.000606236
-0.000224398
-0.00138079
-0.000235066
0.00152553
-0.00251645
0.00117741
0.00133685
-0.00361173
0.00106593
-7.68928e-06
7.27794e-05
-0.000212161
2.45108e-05
-0.000842834
-0.000772161
0.00161456
-0.000821159
0.0010885
-0.000267363
0.000629246
-0.00329536
0.00263704
-0.00344268
0.0028526
0.000408749
0.0004584
-0.000937713
-6.63915e-05
0.00100408
-0.00025637
0.00109487
-0.000838582
0.00352771
-0.000905874
-6.83128e-05
0.000787125
-0.00406315
0.00253259
0.00149937
-0.000467602
-0.000473682
0.000941267
0.00158523
-0.00132481
-0.000893592
0.000793701
-0.0050033
0.00341019
-0.0027001
-0.000739249
0.00337089
-0.00201312
-0.00136078
-0.00109268
-0.00168012
0.000789038
0.000890724
-0.00237043
0.00136568
0.00100377
0.00240384
-0.00138297
0.0014123
0.000132731
-0.00154595
0.000438058
-0.000825953
0.000387893
-0.00318169
0.000496103
-0.00277372
0.00337365
-0.00260746
-0.00176949
0.000454663
0.000710572
-0.00116538
-7.82153e-05
7.61058e-05
-4.10078e-05
-0.000601597
-0.000558501
0.00196976
-0.000294899
0.00121499
-0.00187754
-0.00238306
0.0011214
-0.00223359
0.00111139
-0.000577886
0.000811561
0.00134071
0.00246981
-0.0038124
-0.000723293
-0.00126134
0.00196288
-0.00081264
-0.000901058
-0.00232469
-0.00129313
-0.00206541
-0.00271231
0.000445381
0.000629045
-0.00107449
-0.000686364
-0.000220877
0.000891964
0.000757093
-0.00135385
-0.000711686
-0.00192335
0.00117832
0.00361325
0.000173164
-0.00320922
0.00301022
-0.00103786
0.000738783
0.000295559
-0.00210134
0.000752593
0.00129794
-0.000259614
0.000716134
-0.000956788
-8.53775e-05
0.00428292
-0.00244485
-0.00185033
-0.00284697
0.00132413
-0.0014223
-0.00126796
0.00268841
-0.00409729
0.00130167
0.00277732
0.000821007
-0.00153336
0.000712284
-0.00129134
0.000724575
0.00241293
-0.00370964
0.00128307
-0.00143798
0.000451695
-0.00270792
0.00401077
-0.00133661
0.0014762
-0.00290045
0.00124081
-0.000563283
6.90357e-05
-0.0014483
0.0027071
-0.00126286
0.00322001
-0.0022145
0.00341836
-0.00262038
-0.000879409
0.00247283
-0.0014665
-0.00111756
-0.00305541
-5.94382e-05
0.0030593
0.00312006
-0.00152828
0.00118459
-0.00304737
0.00184119
0.000674276
0.00253491
-0.00325801
0.00302797
0.000861158
-0.00393746
-0.00148614
0.00232445
-0.000839703
0.00012274
-0.00324612
0.00311978
0.00011951
-0.000765058
0.000624532
2.85274e-06
1.75356e-05
-0.000342112
0.0014949
0.00229095
-0.00117048
-3.97454e-05
-0.00300344
0.00143783
0.00282963
0.00081038
0.000675258
-0.00148575
-0.00188324
-0.00126427
0.00314678
-0.000106147
-3.72014e-05
-0.00130371
0.00014092
0.000646507
0.000451035
0.00162747
-0.000335229
-0.00131666
-0.000754095
-8.14862e-06
0.000738209
0.00335189
-0.00245515
-0.000903413
0.00131314
0.00104479
-0.000655247
-0.0023005
-0.000662571
0.00063415
0.000377087
0.001226
0.000574412
0.000661863
-0.00123629
-0.0038706
0.00113077
0.00278683
-0.00136164
-0.00142797
0.000729229
-0.000260316
0.00186951
-0.000593994
0.000345172
-0.00265205
-0.000625635
0.00375576
0.00134538
-0.000524435
0.00231186
-0.00370676
0.000147577
-0.000634364
0.000151092
-0.000825827
0.000655471
0.00121722
-0.0027512
0.00144795
0.000232106
-0.00093384
7.12621e-05
-0.00100129
-0.000563011
0.00347058
0.000533023
-0.00343521
0.00287705
0.00163759
-0.000827354
-0.0016434
-0.000432384
0.00205797
-0.000872469
0.00276681
-0.00164047
0.00257605
-0.00111332
-0.00146444
-0.00158292
-0.000327748
0.0018956
0.00374528
-0.000890677
-0.00107903
0.00191249
0.00100887
-0.00126534
0.00283953
0.000542307
0.00117261
0.00162114
-0.00279414
0.00260739
-0.00257712
-0.000100434
-2.51473e-05
-0.000755479
0.000636647
-0.000763091
0.00374657
-0.00308182
0.00322892
0.00197977
0.000469287
-0.00252453
0.000493604
9.00729e-05
-0.000785185
-0.000819738
0.000557396
-0.000362976
0.00226854
0.00101563
-0.00228781
0.00135485
-0.000850246
-0.000504763
0.000669448
-0.000834157
-7.7072e-05
0.00129267
-0.00187078
0.000577041
-0.000381706
0.00143952
-0.0012226
0.00121853
4.04553e-06
0.000896726
0.00135602
-0.00225602
-0.00085641
0.00113623
-0.000918788
-0.000221683
0.000301114
0.000831662
-0.00269938
0.000124994
-0.00200728
0.000409031
-0.00131605
-0.00157948
0.000984409
0.000594936
-0.000208297
0.00022755
0.00299096
0.000937052
-0.00262346
-0.00149912
-0.00120755
0.00270247
0.00281892
-0.000708453
-0.00211483
0.00129384
-0.00105113
-0.000242835
-0.000888186
0.00176175
-0.000874253
-0.00265345
0.00168705
0.000946393
-0.00134643
-0.00314715
0.0039981
-0.00203127
-0.00291715
0.00139782
0.00151724
0.00278732
-0.00162414
-0.0015863
-0.00239697
0.00248826
-0.000788139
-0.00170185
0.00251494
-0.00170039
-0.00135955
0.000597156
0.000762345
0.000491685
-0.00156325
-0.0013558
-0.000852944
-0.00090554
0.00181463
-0.00110827
-0.000815492
0.000378593
0.000335081
-0.000713676
-0.000650105
0.000505192
-0.00081484
0.000859144
-0.001951
0.00046369
0.000784708
-0.000651579
0.00037286
-0.000725183
-0.000883418
0.00196391
-0.000822613
0.000566854
0.00167496
-0.00277088
0.00109571
0.00237461
0.000939059
-0.000735894
0.00281952
-0.00209547
-0.00237931
0.00154352
0.000817185
-0.000647708
-0.000879714
0.00152726
-0.000956975
-0.000900448
0.00185716
0.00359406
-0.000886254
-0.00273497
0.00384456
-0.00278634
0.00207337
0.000602474
-0.00244412
0.00132301
0.00111976
-0.000998424
-0.00246047
0.00345506
0.000673128
0.00240375
-0.00312667
-0.000181653
5.66377e-05
-0.00093002
0.00401811
0.00252711
0.00081507
-0.0028337
-0.000863754
0.00367878
0.000872597
0.00142091
-0.0022968
-6.02736e-05
-0.00167662
0.000787779
0.000923657
0.000777056
0.00300652
-0.00455903
0.00150534
0.00255482
0.000655401
-0.000845827
0.000319834
0.000525986
0.000505853
-0.000657516
9.89749e-05
-0.00118458
-0.00155761
0.00273548
0.00272197
-0.00206392
0.00146373
0.00111036
-0.0017465
0.000630533
0.00111522
-0.00216749
0.00285972
-0.000695206
-0.000632122
0.00123279
0.00316097
-0.00280308
-0.000373205
0.00244747
0.000890865
-0.000343326
-0.000605999
0.00118039
0.000446241
0.000282987
-0.00222415
-0.000684954
0.0028524
-0.0029395
-0.000822433
0.00371601
-0.00138285
-0.00128285
-0.00109757
0.0034835
-0.0024439
-0.000630494
0.00101924
-0.000388768
-5.75715e-06
-0.000788312
-0.00276379
-0.00115662
0.00391852
0.00266159
-0.00190099
-0.00100499
0.000420972
0.000584008
0.000642046
-0.00254926
0.00081203
-0.000678732
-0.000133299
0.00193194
-0.00237036
0.000394667
0.000916181
-0.00131124
0.000135154
-0.000398419
-0.00276548
0.000879969
0.00185829
-0.000475511
-0.000529492
0.000103671
0.00066021
0.00108151
-0.00101675
-6.48338e-05
-1.19443e-05
-1.08958e-05
1.4901e-05
-3.20248e-06
0.000447314
-0.00374689
0.00102849
0.000265222
-0.00352066
0.000668626
0.000554791
0.000218777
-0.000807802
-0.0014637
0.000831701
0.000631778
-0.000862873
0.00215444
0.0020175
0.00180961
0.00131308
-0.000422432
9.68943e-05
0.000702563
-0.000799464
-0.000880368
-0.00034228
-4.2408e-05
0.000499219
8.89631e-05
0.000415116
-0.000504079
2.13462e-05
2.38372e-05
-5.41587e-05
-0.000595192
0.00151009
0.00172726
0.00252676
-0.000859902
-0.00193001
-0.000240991
0.000862681
-0.000629856
3.6629e-05
-4.06522e-05
0.00164841
0.000838017
0.000825298
0.00233385
-0.000681594
-0.000330925
0.00012897
1.72768e-05
-0.000422675
0.000162665
0.000677498
0.000635518
0.00217821
0.000549855
-0.00280365
-0.00187512
0.00106768
0.00080689
0.00379472
-0.000842877
-0.000229698
0.000749207
5.49629e-05
-0.000132666
0.00189406
-0.000500511
0.00120997
-0.00101134
-0.000198706
0.000496416
0.000315613
0.000997363
0.000885516
-0.00136421
0.00223364
0.00139322
-0.00095788
-0.000435448
0.000733877
-0.000382065
-0.000689266
-0.00146058
0.000894111
-0.00155884
0.000664619
0.000150644
-0.000364785
-0.00115949
0.00151447
-0.000355197
-0.00335885
0.00220671
0.0010858
-0.000640483
0.00319078
-0.000740207
-0.00399171
0.0031094
-0.000152854
-0.00328179
0.00353666
-0.00188136
-0.000430946
0.00231019
0.00029283
0.00054499
-0.000837842
-0.000112128
0.00019747
-0.000138586
0.00143054
0.000878293
-0.00371716
0.00227895
0.00139799
-6.91235e-07
2.49978e-05
0.000780088
-0.000342032
0.00135511
0.00160513
-0.00296166
0.00325661
-0.00217486
-0.00111145
-0.000907007
-0.000773456
-0.00176053
-0.000818327
-0.00179163
0.00258337
2.67725e-05
-9.08224e-06
0.000413114
0.00036697
0.00361792
-0.00153183
-0.00386667
-0.000650897
0.00062551
0.00152454
0.00170627
-0.000589173
0.00104371
-4.35371e-05
3.78668e-05
-0.000642173
0.0014971
-0.000855242
-9.32562e-05
-0.00012202
0.000138385
0.000230915
0.00132068
-0.00165272
-0.00154696
-0.000749288
-0.000547519
-0.000323998
0.000649828
-0.000325829
0.00109309
-1.16449e-05
-0.00285377
-0.000869665
0.00371929
0.000626567
-0.00147981
-0.000507912
0.00236284
-0.00160657
-0.0026197
-0.000327374
-0.000518457
0.00115943
-0.000920675
-0.0002388
0.000997694
0.00234721
0.00272211
-0.00240073
-0.00135322
-0.00265615
-0.000255852
9.91207e-05
0.000221958
-0.00285494
0.00258333
-4.67642e-05
-5.40169e-05
-0.00180299
0.000826751
0.000975565
0.00230606
-0.00304966
0.000736845
-0.00076641
-0.000593179
-0.0022237
0.000340314
0.000733942
0.00272262
-0.00345955
0.000837113
-0.00179431
-0.00257978
0.00349134
-0.002409
0.00120661
0.00120024
0.00164349
-0.000873052
-0.00038301
-0.0019686
0.0012918
0.00197671
-0.00328364
-5.4928e-05
8.47586e-06
0.00150255
-0.00136899
-9.70355e-05
-0.000229915
4.94349e-05
-0.000142995
-0.00078787
-0.00160859
0.000470953
-6.51438e-06
-0.000644167
0.000459159
-0.000370196
-0.00122125
0.00232111
-0.00110148
0.000105712
0.000418684
-0.000635496
0.000776577
0.000670786
-0.00026153
0.00010789
0.0003086
0.000663803
-0.00266884
0.00191141
-0.0030766
0.00241227
-0.000537466
-0.00028515
0.000605517
-0.00159199
0.000985791
0.00134062
0.000477392
-0.00304087
0.00330025
-0.000286519
0.000243938
-0.000826255
0.000571079
0.000696452
0.00223554
-0.00298298
0.00267716
-0.00270048
9.31129e-06
0.00168259
-0.00175385
6.9205e-05
-0.00266923
-0.000717967
0.00332322
0.000734893
-0.000416452
-0.000318441
0.00273278
-0.000436442
-0.00230034
-0.00266149
-0.000960463
0.00361859
-0.000456258
0.00179558
0.00320071
-0.00192313
0.000624049
-0.00052716
-0.0027549
0.0020075
1.67422e-05
-0.000307401
0.000206256
-0.00222292
0.000741693
-0.000293024
-0.00117225
-0.000510189
-0.00219338
-0.00057908
0.000726657
0.00119621
-0.00395997
0.00276164
0.000320594
-0.0017951
-0.00306566
0.000592646
0.00293239
-0.00350918
-0.00088757
0.000500576
-0.00181114
0.00130662
-0.00208104
0.00311804
-0.000457058
0.00132731
-0.00251813
-0.00114883
0.000956075
0.00325387
-0.000842935
0.00163162
0.000729415
-0.00195203
-0.000750811
0.00372274
-7.31778e-05
-0.00220189
0.000223221
-0.000289776
-0.000636988
0.0023165
0.00310412
-0.000573416
0.000613972
-0.00306439
0.00244055
-0.0028401
0.00184066
0.000979698
-0.000528896
0.000778526
-0.000249629
0.000109231
-0.000169879
5.86025e-05
-0.00274369
0.00393786
-0.000179208
0.00288851
-0.00391199
0.00273632
0.00116779
-0.00256205
0.0019596
0.000597508
0.000999437
0.000159936
0.00010541
-0.000278446
-0.00175234
0.000747437
0.00100438
0.000231265
0.000978646
8.23997e-05
-6.2777e-05
-1.96142e-05
0.0036441
-0.0026054
-0.00109773
-0.00226144
-6.41056e-05
0.000358872
0.00369263
-0.00191064
-0.00185292
-0.000225621
-0.00340962
0.00359115
-0.00118265
0.00354963
-0.00237666
-0.00198765
0.00149442
0.000399334
-0.00148543
-0.00171872
-0.00047975
0.00212719
0.00120231
-0.000458231
-0.000744122
0.00232805
-0.00120674
0.000522531
-0.0020251
0.000736173
-0.00130792
-0.00278504
0.00135285
-0.000958587
0.00305459
-0.00106274
0.000610969
-0.000733364
7.78736e-05
-0.00101887
0.00162368
-0.00117018
-0.000847171
0.0020165
-0.00117229
0.0019004
0.000649002
0.00164715
-0.00234423
0.00198445
0.000624927
-0.00209277
0.00227371
-0.000650764
0.00353514
-0.00112931
0.000692948
0.00199493
-0.00272234
-0.00116561
0.00207551
0.000516687
-0.00324807
0.000585989
0.0021253
-0.00277427
0.00158715
-0.000104617
0.00144035
-0.00267711
-0.000771712
0.00343994
-0.00287192
0.000988118
0.0019278
0.00143972
-0.000392641
0.00234122
-0.00259839
-0.000591009
-0.00353219
-0.00124116
0.00053091
0.000710149
0.00186902
-0.00275367
0.000534758
-0.00321042
0.00265836
0.000125925
-0.000147791
-0.000143102
-0.000167528
0.000250891
0.00301115
0.000490809
-0.00353174
0.000760743
0.00235803
-0.00312766
-0.00280448
0.000634419
-0.00160856
0.0022108
-0.000232502
0.000790194
-0.000561735
-0.00302458
0.00377498
-0.000786617
-0.00136674
0.00309229
-0.00263573
-0.00129302
0.00218667
-0.000639492
0.000118911
-0.00140528
0.000918992
-0.000609495
-0.000618841
0.00122827
-0.0034672
0.000781467
-3.01889e-05
0.00011247
-0.000741923
0.000623539
-0.00184292
0.00325777
-0.00142698
0.000477351
-0.00309902
0.00233858
-0.00251686
0.00365384
-0.00114457
-0.00423039
0.00302794
0.00117778
-0.000735808
-0.00194808
0.00263006
0.0011233
0.0024599
0.00085991
-0.000251286
-0.00060863
-0.00163857
-0.00089898
0.00253403
-0.0035148
0.000657006
0.00168588
-0.00295081
0.00171562
0.00190108
-0.00191513
0.000741528
-4.07962e-06
3.16951e-05
-0.00227305
-0.000838966
0.00309262
0.00104998
-0.00349402
0.00243973
-2.14095e-05
-2.47305e-05
0.00126321
-0.000892046
0.00278384
-0.00189874
-0.00357657
0.00105247
-0.000621859
0.00155705
0.00407636
-0.00305243
-0.0010318
0.00125597
0.000177589
-0.0014783
0.000315954
-6.36123e-05
-0.000312966
-0.00117769
-0.00119363
-0.00229858
-0.00308546
-0.000678143
0.0037261
-0.00355545
0.0026205
0.000920107
-0.00283387
-0.000796066
0.00358356
-0.00172504
0.000186163
0.0010343
0.00344979
-0.00169425
-0.00175734
0.00281307
-0.00358997
-0.000519324
0.000684218
-0.000164894
0.000322183
0.000811126
0.00277487
-0.0035924
-0.000865883
-0.00149678
0.002669
-0.000582694
-0.00401097
0.00317293
-0.00156588
-0.000124185
0.00159431
-0.000781981
-0.00168008
0.00243647
0.00437114
-0.00178114
-0.00264011
0.00318957
-0.00251233
-0.000692967
-0.00051658
-0.00227866
0.000519607
0.00231733
-0.00290079
0.00246575
-0.00234569
-0.00374331
-0.0010875
0.00046846
0.000618996
0.00257043
0.000944587
0.00222699
-0.00147748
-0.000751582
-0.00131536
0.00223833
-0.000924025
0.000715606
0.00206387
-0.00283071
-0.001143
-0.00191403
0.000818693
-0.00267274
-0.000975763
0.0029977
-0.00204835
0.00282636
-0.00135749
-0.00147354
-0.00088002
0.000643907
0.000816433
-0.000354464
-0.000959236
-0.000844298
0.000196538
-0.000675883
0.000474982
-0.00294189
0.00223469
-0.00251874
0.00329525
0.000225756
0.00321937
0.000853768
-0.0039139
0.0013542
-0.00162006
-0.000129736
0.00165555
0.00285043
0.00231354
0.000799754
0.0013234
-0.000467567
-0.000857668
0.00121051
-0.00402358
0.00279878
-0.00356264
0.00246869
0.00103054
-0.000836516
0.00108184
-0.00294543
-0.00195495
0.000237084
0.00129137
-0.000685477
0.00268101
-0.00395204
0.00125517
-0.00144126
0.00049398
0.00168097
-0.00224289
0.00164155
-0.000836026
0.000213476
0.000609529
-0.00303004
0.00384903
-0.00041563
-0.000410324
6.00382e-06
0.000250461
-0.00240342
-0.000612165
0.00145412
-0.000677869
0.000381882
-0.000243177
-0.000603959
0.000875788
0.0030145
-0.00389654
-0.000641073
-0.000600171
-0.000868166
-0.00142947
0.00227369
-0.00445781
0.00341452
0.00101763
-0.00370165
-0.000441033
0.00328882
-0.00299615
-0.000396263
-0.000724048
-0.000739835
0.00192976
0.00117674
-0.00313521
-0.000429057
0.000807648
0.00253653
-0.00360591
0.00113075
-0.00213866
0.00100762
-0.00242585
-0.000526447
0.00067985
-0.000169346
-0.00040821
-0.000553135
0.000474778
-0.000190955
-2.81139e-05
0.000135269
0.000560094
0.000330761
0.003781
-0.00109176
-0.00270658
0.000243539
-0.00195481
0.00161535
0.00307959
0.000907531
-0.00399228
-0.00215204
-0.00249496
0.00168652
-0.00092038
-0.00107388
0.0034728
-0.000863394
0.00114002
0.00164383
-0.00104104
0.00156793
-0.000527241
-0.00132352
-0.00157203
0.00289238
0.000726097
-0.000275042
-0.000451058
0.00101003
-0.0037455
0.00271237
-0.000962109
-0.00313985
-0.000174339
0.00322834
0.000278115
-0.000687505
0.00040939
0.00040213
0.00329901
-0.00305903
-0.0002631
0.000856204
-0.000655892
0.0028771
-0.0021315
-0.000774789
0.000226226
0.000616324
-0.000675422
0.00160273
-0.000954324
-0.000714586
-0.00150147
0.00218368
-0.00364462
0.0026294
0.000948038
-0.00144331
0.00234486
-0.000904855
-7.49815e-05
0.00064244
0.0026429
0.00112031
0.00159151
-0.000974289
-0.000617655
0.00136812
-0.000598807
-0.000769349
0.000563078
-0.00117263
0.000730948
0.000722831
-0.00292944
0.000445525
-0.000858524
-0.000408295
-0.00283139
0.0031547
0.00124466
-0.000713851
0.00241099
-0.00341332
0.000304321
0.00126736
-0.000399334
-0.000892629
-0.00179211
0.00101903
-0.000470528
-0.000758865
-0.00275534
-0.00104736
0.00376418
0.000938871
0.000303414
-0.000709753
0.000926885
-0.00244724
0.0031772
-0.000820839
-0.00122451
-0.0011866
0.00187773
-0.00173017
0.0004544
0.000222118
-0.000676519
-0.000742403
-0.00211038
-0.00054994
0.00258135
0.000581422
0.00027848
-0.000180298
-0.00304092
-0.00244501
0.00234258
0.00310604
-0.000810217
0.000802824
-0.000389714
-0.00261929
0.0010543
9.14376e-05
-3.21225e-05
-8.64895e-05
0.00183466
-0.00233171
0.00287721
-0.000596433
-0.000695565
0.00115543
-0.00045001
-0.00070546
-0.00252452
0.00298399
-0.00151718
-0.00146768
-0.00279755
0.000380166
-0.00191515
-0.00166749
0.00287498
-0.000964506
-0.00114192
0.00207894
-0.00301497
0.00123138
0.00304402
0.00102321
0.00259618
0.000555398
0.000410804
0.000323071
0.00300691
7.57727e-05
-0.00309966
-0.000136317
-0.000333504
-0.00157109
-0.00290656
0.000254816
0.00262143
-0.00295634
0.00238105
-0.00141201
0.000784373
0.0006274
-0.00211834
0.0011487
-0.000357763
0.0026572
0.000276004
0.000465688
-0.000317084
0.000771482
0.00401013
-0.000975834
-0.000618413
-0.000793811
-0.0014255
0.0021949
-0.000729316
0.000451161
0.000278154
-0.00110194
0.00191395
0.00101835
-0.00162038
0.000601917
-0.00104697
-0.00223734
0.000785207
-0.0015782
-0.00121803
0.00278317
4.44244e-05
0.00158279
-0.00162745
-0.000998374
0.00042139
0.000576957
0.000204949
-0.000836803
0.000621667
0.00366841
0.000128684
-0.0006678
-0.00213498
0.00259721
-0.000967054
-0.000917947
0.00370499
0.00288032
-0.000978852
-0.00120998
0.00201819
-0.000808764
0.000596821
-0.000500531
-9.62907e-05
-0.00209421
-0.000844233
0.000376814
-0.00075888
9.21066e-06
-2.84546e-05
-0.000980166
0.00013637
0.000820644
0.00120874
0.000540535
0.000411165
-0.000951718
0.00269376
0.000479846
3.201e-05
-1.96278e-05
0.00184743
0.000833394
-0.00302499
0.00360888
-0.000630442
-0.00245265
0.0023796
-0.00357234
0.00393858
-0.00270163
-0.00124671
0.00314862
0.00116552
0.00372522
-0.000653743
0.000848651
0.00149807
-0.00192921
0.000419883
0.00345699
0.00324688
-0.000257261
0.000319346
-0.00076818
0.000448833
0.000147832
-0.00321343
0.00344525
-0.000895416
0.000819384
1.77677e-05
-0.000843504
0.0003884
0.000900114
-0.000166201
-0.000826919
0.000866137
-0.00332786
-0.00317064
0.00337135
-0.000221873
0.000150969
-0.00295889
0.000580562
-0.000835087
0.000726471
-0.00102571
-0.00183189
0.000599965
-0.00368618
0.00305463
-0.00189166
0.00104111
0.000849786
0.000471898
-0.00315022
4.51943e-08
8.18243e-05
-0.00142648
0.00180424
-0.000378283
0.000835597
0.000519077
0.00175614
-0.00100921
0.000656903
-0.00154999
0.000892883
0.00185767
-0.00136095
0.000904751
0.000732692
0.000587465
-0.000774403
0.000186934
8.64915e-05
-0.000349185
-0.00090767
-0.000727329
-0.000272979
0.00219151
-0.000869853
0.00112595
-0.00187057
-0.00098724
-0.00250987
0.0025439
-0.000572917
-0.00197658
-0.00180801
0.00266287
-0.000761534
-0.00189763
0.00265344
-0.00251486
-0.0025209
0.00380565
-0.000918741
-0.000614674
-0.0014019
0.00233111
-0.000931421
-0.00198759
0.000816622
0.000487371
0.000897892
-0.00138533
-0.000283559
0.00137846
-0.00055622
-0.000822439
-0.00228404
0.00104094
-0.00383357
0.00296325
-0.00321192
0.000231051