/*--------------------------------*- C++ -*----------------------------------*\
| =========                 |                                                 |
| \\      /  F ield         | OpenFOAM: The Open Source CFD Toolbox           |
|  \\    /   O peration     | Version:  v2012                                 |
|   \\  /    A nd           | Website:  www.openfoam.com                      |
|    \\/     M anipulation  |                                                 |
\*---------------------------------------------------------------------------*/
FoamFile
{
    version     2.0;
    format      ascii;
    class       surfaceVectorField;
    location    "500";
    object      ddtCorrDdt0(Uf);
}
// * * * * * * * * * * * * * * * * * * * * * * * * * * * * * * * * * * * * * //

dimensions      [0 1 -2 0 0 0 0];


internalField   nonuniform List<vector> 
20642
(
(0.00459769 0.00353034 8.24417e-19)
(0.00596202 0.00424454 -1.45431e-17)
(0.00377932 0.004855 -6.36293e-19)
(0.0094108 0.00370949 -1.82539e-19)
(0.0106306 0.0032842 6.85442e-20)
(0.00932112 0.00217769 1.43806e-19)
(-0.00592691 0.00559441 4.79972e-18)
(-0.00659663 0.00502171 6.10142e-18)
(-0.00690091 0.00602971 -9.56252e-19)
(-5.95689e-05 0.00026153 1.03041e-18)
(-6.79481e-05 0.000274685 1.25219e-18)
(-6.97195e-05 0.000262932 -9.48635e-19)
(0.00439119 -0.00468235 9.12237e-20)
(0.0047819 -0.00588381 -1.48463e-19)
(0.00335532 -0.00549733 4.3853e-20)
(0.00793935 0.0041023 -8.70095e-21)
(0.00886607 0.00553509 7.19969e-19)
(0.000251755 0.000443784 -7.62888e-19)
(0.000229294 0.000458595 -3.73605e-18)
(0.00025008 0.000479169 -5.12708e-19)
(0.025788 -0.0181061 -9.1841e-20)
(0.0301476 -0.0184458 -5.03413e-19)
(0.0262525 -0.0227674 -1.82243e-19)
(0.000182548 0.000171639 -3.81785e-19)
(0.000183617 0.000177647 -2.61481e-19)
(0.000188926 0.000172825 -4.62466e-18)
(-0.00463727 0.000849623 -9.53681e-19)
(-0.0107538 0.00328714 2.3254e-18)
(0.0214272 -0.0184923 -1.28191e-20)
(0.0248488 -0.0140917 -3.67534e-19)
(-0.000147686 0.000192461 -9.30094e-20)
(-0.000153354 0.000197463 4.91088e-19)
(-0.000143908 0.000199839 1.80692e-18)
(-3.44716e-05 3.17815e-06 8.3494e-20)
(-3.14665e-05 2.7816e-06 -3.66541e-19)
(-0.123955 -0.130359 3.72885e-19)
(-0.122387 -0.12991 -9.85327e-19)
(-0.126684 -0.123471 -1.01353e-18)
(-0.000562246 0.00374509 1.40689e-19)
(-0.000247011 0.00422953 1.94663e-19)
(7.45383e-05 0.0036147 -3.18155e-19)
(0.0038923 0.00299461 -3.89376e-18)
(0.00632761 0.00249361 -1.0599e-17)
(0.000162312 -3.0776e-06 -1.16442e-20)
(0.000160202 -3.59538e-06 1.0364e-19)
(0.000118998 -1.48457e-06 2.2144e-20)
(0.0178181 -0.0186516 1.11324e-19)
(0.0138524 -0.018074 6.04836e-19)
(0.0167258 -0.0153128 6.10693e-19)
(-0.0034445 -0.00156534 2.87224e-18)
(-0.00388296 -0.00143535 2.0344e-18)
(-0.00376759 -0.00194709 -2.8255e-18)
(0.026653 0.0184813 -5.40679e-18)
(0.0167427 0.0204499 1.34418e-18)
(0.014832 0.0162391 1.91212e-18)
(-0.00306499 -0.00219972 -8.00685e-20)
(-0.00359215 -0.00232009 -1.73581e-19)
(-0.00317372 -0.00274393 -2.95218e-20)
(-0.000316144 -0.00017293 -8.37123e-20)
(-0.00033381 -0.000142382 9.41437e-21)
(-0.000348642 -0.000188914 -8.39563e-21)
(0.000705376 -0.000308557 -4.87443e-18)
(0.000628651 -0.000274958 -6.69802e-18)
(0.000646759 -0.000389677 -9.44605e-19)
(-0.000286613 -0.000205395 3.08488e-20)
(-0.000294713 -0.000159717 -1.00869e-19)
(-0.000273757 0.00040526 -8.04553e-19)
(-0.000276945 0.000430233 3.9806e-19)
(-0.000297169 0.00040981 1.30568e-18)
(-0.00325839 -0.00477317 -9.88845e-21)
(-0.00324779 -0.0040603 -1.28447e-20)
(-0.00251643 -0.00440794 -1.24888e-19)
(0.0861677 0.0728397 7.98942e-18)
(0.0760009 0.071952 1.86129e-18)
(0.073921 0.071317 8.95138e-19)
(-0.000647293 -0.00271548 -5.30742e-18)
(0.00224416 -0.0129668 -1.08711e-19)
(0.000625976 -0.0118042 4.48035e-20)
(0.00272778 -0.0111052 -1.65647e-19)
(0.000127607 0.000168458 -2.62402e-20)
(0.000151871 0.0001635 -2.72365e-20)
(0.000140472 0.000190343 3.83493e-21)
(0.00189614 -0.0012634 2.98983e-18)
(0.00254656 -0.00449739 -1.94058e-18)
(-0.00033523 0.000173002 -2.68985e-18)
(-0.00034408 0.000268601 -2.89112e-18)
(-0.000426558 0.000174247 -4.00284e-19)
(-0.000169112 0.000295014 2.50402e-19)
(-0.00016698 0.000284755 8.8145e-19)
(-0.000157365 0.000289603 -8.43901e-19)
(-0.000849947 0.00499593 2.79489e-19)
(-0.000513873 0.00555231 6.44928e-18)
(-0.00107068 0.00536979 -4.37146e-18)
(0.000194331 -0.000171371 5.90296e-22)
(0.000154196 -0.000131032 -3.12454e-20)
(0.000222684 -9.48898e-05 1.13234e-19)
(0.034263 -0.0151065 -9.10088e-20)
(0.0370112 -0.0200241 -6.68974e-19)
(-9.47894e-05 -0.000195753 -1.96322e-19)
(-0.000158642 -0.000213129 -2.78048e-19)
(-9.22767e-05 -0.00027605 5.43779e-19)
(-6.54905e-05 -2.68267e-06 1.64799e-19)
(-9.23458e-05 -5.545e-06 3.58531e-19)
(-6.38242e-05 -2.50338e-06 4.82397e-19)
(0.000273386 0.000431765 -9.40079e-19)
(0.000250987 0.000414985 1.30358e-18)
(-0.00355496 0.00314701 -1.22078e-19)
(-0.0036245 0.00365798 -3.52328e-19)
(-0.00306203 0.00340768 -1.11104e-18)
(0.000100567 -2.37713e-06 8.25308e-20)
(8.23332e-05 -1.21997e-06 9.89258e-20)
(0.000149644 4.03296e-06 7.89659e-20)
(0.000230735 0.000397791 -6.80279e-20)
(0.000270465 0.00056566 1.18745e-19)
(0.000410481 0.000419302 1.13647e-19)
(0.000143343 0.00017349 2.46808e-18)
(0.000139266 0.000181086 -1.08765e-17)
(0.000135901 0.000171672 -4.18085e-18)
(-0.00264942 0.000524025 -6.59885e-19)
(-0.00244162 0.000723803 3.58707e-18)
(-0.00278107 0.000794005 7.08073e-18)
(-0.00245919 0.000220757 -3.19381e-18)
(-0.00283503 0.000185275 3.31539e-18)
(0.0215615 -0.0196847 -5.51989e-18)
(0.0190096 -0.0180721 4.95271e-19)
(0.0198138 -0.0220878 -4.57142e-18)
(-0.00254788 -0.00199206 -2.13857e-19)
(-0.00288966 -0.00165842 2.53264e-19)
(-0.0611887 0.0700821 -1.20122e-18)
(-0.0315169 0.061871 -1.79934e-18)
(-0.0460092 0.0602893 -1.01423e-17)
(0.0702904 0.0609399 -1.51331e-18)
(0.0685496 0.0519395 3.80808e-18)
(0.0669491 0.0591813 3.28025e-19)
(0.000177854 -0.000224027 4.61238e-21)
(0.000244285 -0.000203302 -6.01808e-20)
(-0.000151522 0.000185669 -8.53895e-19)
(-0.000143236 0.000187993 -2.10942e-18)
(0.00646284 -0.00885305 1.23394e-18)
(0.0075115 -0.00958042 -2.42644e-18)
(0.00764167 -0.00817705 -1.49272e-18)
(-0.00720475 0.00113531 1.87991e-18)
(-0.00916367 0.00146981 -5.3154e-19)
(-0.00759133 0.00112122 -1.64965e-18)
(-0.000217424 0.00011638 2.82896e-20)
(-0.000216114 0.000110419 1.20849e-18)
(-0.000223461 0.000116836 2.86588e-19)
(-0.000206864 0.00012094 -7.24393e-19)
(-0.000207217 0.000117279 -2.5231e-19)
(-0.00020313 0.000117823 -3.23128e-19)
(0.00578839 -0.00826072 -1.48351e-18)
(0.00547904 -0.00953866 3.73897e-18)
(0.0121037 0.00292929 1.94837e-18)
(0.000796934 -0.00032411 5.20483e-18)
(0.000747499 -0.000210571 2.06424e-18)
(0.000190358 0.000244842 -6.86641e-20)
(8.61657e-05 0.000314987 -1.38208e-19)
(0.0249377 -0.0212316 1.53111e-18)
(0.0238278 -0.0170756 1.35097e-19)
(-0.0332884 -0.121257 1.97132e-19)
(-0.0404172 -0.13153 -4.86785e-18)
(-0.0661918 -0.143004 8.8956e-18)
(0.00406803 0.00775936 -2.28068e-20)
(0.00552045 0.00689084 3.49301e-19)
(0.00400299 0.00570536 -2.04235e-19)
(5.63889e-05 8.77845e-06 -1.56962e-20)
(6.42731e-05 1.06662e-05 1.97547e-20)
(6.47631e-05 1.56818e-05 2.065e-20)
(-0.000248349 0.000399238 1.9629e-18)
(-0.00026654 0.000384073 4.7128e-19)
(0.00142719 0.00524113 -3.48922e-19)
(0.000771515 0.00496131 -3.74911e-18)
(0.000878996 0.00594483 -5.30266e-18)
(-0.00978873 -0.0143512 1.95495e-19)
(-0.00680394 -0.0125255 1.83802e-19)
(-0.00988988 -0.0107319 5.1015e-20)
(0.00383422 -0.0141707 -5.92785e-20)
(0.00593675 -0.0153371 8.19713e-20)
(0.00610258 -0.0129832 1.25798e-19)
(0.0324071 -0.00981575 -2.27469e-19)
(0.0381556 -0.0112104 -8.05402e-19)
(0.0183049 -0.0224267 -1.21156e-19)
(-0.00410334 0.00250936 -1.0402e-18)
(-0.00358508 0.00205337 -2.58603e-20)
(-0.00425264 0.00199352 -5.24525e-18)
(0.00112911 0.00519005 6.34491e-18)
(8.95699e-05 0.00395863 1.29795e-18)
(0.00176352 0.00504696 -4.69738e-18)
(-0.000670134 0.00471753 2.28777e-18)
(-0.00120459 0.00453798 -4.199e-19)
(-1.15268e-05 0.00011392 -8.03389e-19)
(-1.00348e-05 0.000117853 1.56414e-18)
(-1.5781e-05 0.000121532 1.19342e-18)
(0.000177813 0.00014568 6.15303e-20)
(0.000287456 0.000168067 2.39011e-19)
(-0.00425325 -0.00237794 -2.15993e-19)
(-0.00400283 -0.00184934 -2.34883e-19)
(-0.000458029 0.000281533 5.95705e-19)
(-0.000485129 0.000315605 1.35583e-18)
(-0.000490503 0.000259534 -5.43808e-19)
(0.00037886 -0.00222877 -2.548e-20)
(0.000273266 -0.00257478 -1.27737e-19)
(-7.42682e-05 -0.00220695 1.776e-19)
(0.000170861 5.9438e-05 -9.11373e-21)
(9.54051e-05 8.33343e-05 1.91027e-19)
(-0.000424294 0.000303221 1.70422e-19)
(-0.000425502 0.000259865 -8.77863e-19)
(-0.000179076 0.00029884 -9.77635e-19)
(-0.000170322 0.000304931 1.66008e-18)
(-0.000397357 0.000332125 -5.78519e-20)
(-0.00043662 0.000318446 3.34449e-20)
(-0.000396856 0.000286018 3.19164e-19)
(0.000135505 -6.68898e-06 -2.39078e-20)
(0.000140623 -6.21065e-06 -2.59423e-20)
(0.00010266 -3.12237e-06 7.62534e-21)
(-7.63849e-06 0.000106368 -4.29562e-18)
(-1.32271e-05 0.000109892 2.18471e-18)
(0.00202366 0.0125885 -1.58202e-18)
(0.000602517 0.0125889 3.0536e-18)
(0.000479534 0.0132747 -3.52473e-18)
(-0.000111727 1.17586e-05 -2.21591e-21)
(-0.000112648 1.3434e-05 -4.96697e-19)
(-0.000114049 1.2822e-05 1.50873e-19)
(-0.00466509 -0.0539041 -2.42582e-19)
(-0.015942 -0.0611796 3.0867e-19)
(-0.00399018 -0.0621136 -1.63028e-20)
(-0.00024189 0.000176768 -8.23102e-19)
(-0.000310083 0.000101643 5.22958e-18)
(-0.000112207 6.52264e-06 -4.304e-19)
(-0.000113701 6.50516e-06 2.33976e-19)
(-0.000113058 4.81578e-06 6.70146e-19)
(-0.00335958 0.00260879 -3.313e-19)
(-0.00393217 0.00272102 5.22558e-19)
(0.000160888 -2.38974e-06 5.17512e-20)
(0.000181966 -5.27284e-06 -4.72652e-20)
(0.000211975 -1.00937e-05 9.59046e-20)
(0.00021302 -9.12183e-06 -1.54161e-19)
(0.000217747 -1.18533e-05 5.909e-20)
(0.000150813 0.000176255 -6.71611e-19)
(0.0756919 0.0640522 -1.35695e-18)
(0.0929093 0.0528969 2.89851e-18)
(-2.89333e-05 -0.000134221 3.6017e-20)
(-5.59478e-05 -0.000122523 -3.05202e-20)
(-4.02028e-05 -0.000143196 2.94719e-20)
(-0.000183417 0.000158866 9.01968e-19)
(-0.000193673 0.000171591 3.00899e-20)
(-0.000176436 0.000175053 -8.9879e-19)
(0.00135736 -0.0151942 1.23445e-19)
(0.0213548 0.0573171 -6.40445e-19)
(0.00553394 0.0550522 7.13721e-19)
(0.000684989 0.0491056 2.74361e-18)
(4.57084e-05 -8.27264e-06 9.2898e-21)
(4.14542e-05 -8.36726e-06 -1.64637e-19)
(3.18667e-05 -4.15239e-06 8.44518e-22)
(-0.000110933 7.62587e-06 -6.38134e-19)
(-0.000111341 6.2232e-06 -1.39998e-19)
(-0.0235928 0.0360223 7.90632e-19)
(-0.0237785 0.0291379 1.97201e-18)
(-0.0289841 0.0314736 -1.221e-18)
(0.000137432 7.16904e-06 -6.99577e-20)
(0.000141004 6.10861e-06 -1.21596e-20)
(0.000102241 3.52445e-06 -3.74564e-20)
(0.000136264 7.69292e-06 -3.39639e-20)
(0.000156292 9.18657e-06 -9.72525e-20)
(-0.000388038 0.000370084 1.16479e-19)
(-0.000357491 0.000328538 5.93074e-19)
(2.82483e-05 -1.88002e-05 5.28626e-20)
(2.25929e-05 -1.86094e-05 1.34117e-20)
(2.31927e-05 -1.31523e-05 5.55712e-20)
(0.000443888 -0.00176727 -1.33343e-19)
(0.00079853 -0.0020198 -5.11928e-20)
(-0.00258823 0.000594077 -3.20498e-19)
(-0.00287585 0.00161427 4.33552e-18)
(-0.0035626 0.000974218 3.11303e-18)
(-0.014873 0.0302355 1.60832e-19)
(-0.0106241 0.0301868 3.8542e-18)
(-0.0127492 0.0351 -6.58144e-19)
(0.00199709 0.0080844 -8.28092e-20)
(0.00323457 0.00973099 -1.21611e-19)
(0.000106885 0.00071042 -8.4715e-20)
(0.000348098 0.000801327 -1.46697e-19)
(0.0856922 0.0804069 -6.23493e-20)
(0.0916374 0.0745098 3.34451e-18)
(-2.28196e-05 6.78482e-06 1.67153e-18)
(-2.19324e-05 8.18347e-06 1.97638e-18)
(-0.0001874 0.00619013 6.6043e-18)
(1.49384e-05 0.00593781 2.18318e-18)
(-0.00048298 -0.0106069 -4.05591e-20)
(-0.00142405 -0.0122855 -7.55401e-20)
(0.00174015 0.00604831 3.73416e-18)
(0.00176928 0.0051325 1.21806e-18)
(-0.000582005 0.000161107 -2.46125e-18)
(-0.000622405 0.0002042 -1.72381e-18)
(-0.000551619 0.000206304 2.08762e-18)
(-0.00299222 -0.00173198 3.06309e-18)
(-0.00309706 -0.00129448 -1.01516e-18)
(0.000234451 1.31501e-06 4.04332e-20)
(0.00024569 3.08996e-06 -9.50092e-21)
(0.000239348 1.29827e-06 -5.11849e-20)
(-0.00652081 0.00269674 7.23246e-19)
(-0.00620143 0.0033202 -2.6581e-18)
(-0.00588263 0.00262115 4.33141e-18)
(4.89399e-06 7.29986e-05 7.12264e-19)
(2.63269e-06 7.6914e-05 1.96313e-18)
(1.3267e-06 7.23153e-05 1.06729e-18)
(0.000150637 -1.07764e-05 -3.10794e-20)
(0.000127494 -6.33975e-06 -2.46647e-20)
(0.000272709 -2.3246e-05 -1.08221e-20)
(0.000300388 -6.43827e-05 1.77112e-21)
(0.000253618 -5.92338e-05 -1.80397e-20)
(0.00812925 -0.0162906 -8.53594e-20)
(0.00541252 -0.0180599 1.10873e-19)
(-0.000407833 -0.00447867 3.64076e-18)
(1.96212e-05 -0.00476426 3.61063e-18)
(-1.1254e-05 -0.00414821 4.41486e-18)
(-0.0112446 0.00177519 2.51768e-18)
(-0.0111708 0.00215573 -4.25084e-18)
(-0.0107671 0.00181972 -3.51067e-18)
(0.00264672 0.0121292 -1.68423e-18)
(0.00229402 0.0125404 -7.54692e-19)
(-0.000229305 0.000392919 1.29165e-18)
(-0.000209639 0.000384809 -1.51711e-18)
(-0.000224985 0.000374091 -4.13016e-19)
(-0.00449393 -0.00305307 3.24844e-20)
(-0.00495086 -0.00241922 2.48168e-19)
(-0.000232082 -0.00017128 -1.84027e-21)
(-0.000214448 -0.000184505 1.02976e-20)
(-0.000212343 -0.000159937 -1.03147e-20)
(-0.00068944 -0.00410497 1.2013e-18)
(-0.000846588 -0.00468423 -5.67577e-18)
(0.000291368 0.000139178 -5.30215e-18)
(0.000300076 0.000134821 -3.69072e-18)
(0.000289435 0.000130142 -5.49866e-18)
(0.0307614 0.017327 -3.813e-19)
(0.028444 0.0148848 4.03101e-19)
(0.0323718 0.0144241 -9.0072e-19)
(-0.00789676 0.00321827 -2.17773e-18)
(-0.00887269 0.00305096 2.2999e-18)
(-0.00887689 0.00381491 -1.03498e-18)
(-0.000618063 0.00011243 -7.12098e-19)
(-0.000546439 0.000116906 3.51056e-19)
(-0.000744261 0.000376172 1.11673e-18)
(-0.000893606 0.00032922 3.47463e-18)
(-0.000844602 0.000514077 3.65984e-18)
(0.0772434 0.0909231 -3.04354e-18)
(0.0745893 0.0843561 -3.8045e-18)
(-0.00902987 -0.102613 -5.7444e-18)
(0.00144629 -0.0990588 7.98184e-19)
(0.0177292 -0.081616 -6.17409e-18)
(-0.0147825 0.000942285 4.96562e-19)
(-0.014851 0.000883666 -1.49443e-18)
(-0.0147573 0.000974504 -8.99239e-19)
(-0.0029213 -0.00654704 -7.77757e-20)
(-0.0032095 -0.00559029 -1.68054e-20)
(-0.00210951 -0.00599674 -1.9828e-20)
(-6.27647e-05 -2.88004e-06 -2.29064e-19)
(-0.0467745 -0.108885 -2.90686e-19)
(-0.0740509 -0.111639 -1.52481e-18)
(-0.0470754 -0.078008 1.45723e-18)
(0.000238339 1.93561e-05 1.09157e-21)
(0.000180316 -7.36258e-07 -2.27687e-21)
(-0.00283741 -0.000115964 -8.71613e-19)
(-0.00049812 0.00037685 -1.05689e-18)
(-0.00022129 -7.27107e-06 -4.02634e-19)
(-0.000216269 -1.30986e-05 1.03578e-19)
(-0.00022157 -1.87777e-05 -5.57841e-19)
(-2.31601e-05 0.000112375 3.39198e-19)
(-2.19016e-05 0.00011684 -8.61298e-19)
(-2.73216e-05 0.000120999 -6.99031e-19)
(-0.00152465 0.00301559 -1.51067e-19)
(-0.00211278 0.00216124 -1.66664e-19)
(-0.00130641 0.00218906 -1.43462e-19)
(0.000408621 0.00583552 -1.4878e-18)
(0.00190226 0.00621826 -9.53493e-19)
(-0.00700219 0.00806444 -1.99435e-18)
(-0.0160314 0.0599987 6.9636e-18)
(0.0036969 0.0561968 -2.38107e-18)
(-0.0271638 0.0681645 5.31792e-18)
(-0.000211717 0.000116991 -1.24222e-18)
(-0.000217232 0.000122565 -7.72183e-19)
(-0.00316315 0.00223292 -2.19425e-20)
(-0.00299353 0.00187518 6.82214e-19)
(-0.00342434 0.00183373 9.49142e-20)
(0.000116871 6.87248e-06 3.32102e-20)
(0.000126067 8.11884e-06 -8.19933e-20)
(0.000138722 1.31614e-05 -9.72021e-20)
(-2.43844e-05 0.000108493 1.29846e-19)
(-1.9601e-05 0.000104336 9.08478e-19)
(0.0392657 0.0673816 -2.23179e-18)
(0.0221933 0.0671382 -1.63753e-18)
(0.000208895 -0.000121793 7.40502e-20)
(0.000315867 -0.000149853 -2.11888e-20)
(0.000289603 -2.77762e-05 -4.56965e-21)
(3.36786e-05 -1.9497e-05 -5.66503e-20)
(3.11983e-05 -2.41922e-05 -1.72385e-20)
(-0.00883559 0.00171713 -1.53761e-18)
(-0.00882494 0.00112417 -1.91817e-18)
(-0.00975004 0.00170607 3.15348e-18)
(0.000193283 2.52903e-06 -2.75947e-20)
(0.000192231 2.63014e-06 4.40386e-20)
(0.000139576 8.79628e-07 4.48393e-20)
(0.000227045 1.4244e-06 6.04865e-20)
(0.000211459 -1.18891e-07 -1.30909e-19)
(-0.000150379 3.19866e-05 2.00047e-18)
(-0.000154032 3.41894e-05 -1.67382e-19)
(-0.000154983 3.26544e-05 4.06447e-19)
(-0.0272524 -0.00103887 4.45435e-18)
(-0.0241961 0.000600784 -2.95722e-18)
(-0.0285885 0.00193083 -2.63756e-18)
(0.00101121 -0.000477289 -1.11864e-19)
(0.000758435 -0.000501805 -5.25717e-21)
(0.000883083 -0.000284186 7.97633e-20)
(-0.0451875 -0.140534 6.02435e-19)
(-0.0660006 -0.0372303 2.27036e-19)
(-0.0669504 -0.0248175 -8.80647e-18)
(-0.0570002 -0.0310296 1.79856e-19)
(-0.0364673 0.0502684 3.4832e-18)
(-0.0273218 0.0455812 2.26145e-18)
(-0.035811 0.0418071 -1.43461e-21)
(-0.00678072 0.00111142 3.02327e-18)
(-0.0986847 -0.00684421 6.97751e-19)
(-0.0971157 -0.0186718 1.23084e-18)
(-0.101888 -0.0249644 -1.55688e-18)
(4.09348e-05 8.25315e-05 -2.87886e-21)
(4.13921e-05 9.18692e-05 1.8396e-21)
(3.19215e-05 8.76106e-05 -4.6898e-21)
(-0.00253494 -0.0076307 -1.48067e-20)
(-0.00382373 -0.00721758 2.64279e-20)
(-0.000270531 -0.00023871 6.01776e-20)
(-0.000248394 -0.00027549 9.17217e-21)
(-0.000308498 -0.000267987 1.3263e-21)
(-0.00728648 0.00852442 -1.17511e-18)
(-0.00757348 0.00804259 3.0249e-19)
(-0.00807307 0.00779161 4.79585e-19)
(0.000177345 0.00016862 2.04401e-18)
(0.0166985 -0.0842996 -2.292e-18)
(-0.0067624 -0.105681 -3.1746e-18)
(0.0212081 -0.0867367 -5.47268e-18)
(0.00709016 0.00108193 -2.28031e-18)
(0.0065802 0.000862867 3.74371e-19)
(0.00712271 0.000309995 -2.5392e-18)
(0.000166354 3.97302e-06 7.38842e-21)
(0.000193503 5.98266e-06 -6.42909e-21)
(0.000163196 3.70272e-06 7.93964e-20)
(-5.07649e-05 0.000261976 4.5214e-19)
(-5.19682e-05 0.000250922 -1.89597e-18)
(0.00845483 -0.010506 2.46247e-19)
(0.00971839 -0.0115929 -1.76732e-20)
(0.00986196 -0.00987122 -7.95916e-19)
(0.000282864 0.000142498 -6.56305e-19)
(0.00029218 0.000150247 8.51904e-18)
(0.00109579 -0.000741626 1.82468e-20)
(0.00125709 -0.00044001 5.88375e-22)
(0.000136437 0.000187731 -1.80579e-18)
(0.000128945 0.000186833 2.02494e-18)
(0.000132271 0.000196956 5.33446e-18)
(-0.0002431 -0.000219267 3.93616e-20)
(-0.000154362 0.000179067 1.03348e-19)
(-0.000159103 0.000183101 -4.38971e-21)
(-0.00103411 -0.0156899 -8.29678e-18)
(-0.00149726 -0.0144817 -8.81554e-19)
(-0.00205095 -0.0156797 9.59194e-19)
(-0.0069423 0.00212572 7.10835e-18)
(-0.00740256 0.0029361 -2.33204e-18)
(0.0293057 0.0205618 -1.54978e-19)
(0.034747 0.020558 -1.02115e-19)
(-0.00015057 0.00017394 5.17676e-19)
(-0.000157993 0.000171501 -1.98142e-19)
(-0.000656403 -0.0175127 -5.87986e-18)
(0.000655426 -0.0159516 -4.45111e-18)
(0.000102141 0.000149858 -4.83573e-21)
(0.000112358 0.000177924 3.35929e-20)
(0.000359941 -0.0474297 9.84629e-20)
(-0.0100227 -0.0462993 1.79694e-19)
(0.00704498 0.00193831 1.68736e-19)
(0.00794021 0.00154464 3.7418e-19)
(-0.00226719 6.09857e-07 -2.93542e-18)
(-0.00209329 0.000238812 -1.3475e-18)
(-0.00120108 -0.0109968 6.88302e-18)
(-0.00120814 -0.0100085 -6.61353e-19)
(-0.000259254 -0.0104586 1.8488e-18)
(0.00703895 0.00510897 -4.27432e-18)
(0.00617539 0.00683126 1.38128e-17)
(0.00895506 0.00622461 1.57523e-17)
(-1.65399e-05 -0.000122264 -1.88697e-20)
(-1.55459e-05 -0.000143322 2.23464e-20)
(-0.0097405 0.00191922 -1.6436e-18)
(-0.0101629 0.00233505 -4.22451e-18)
(-0.0102844 0.00188714 -6.64206e-19)
(-0.000316869 0.000859256 3.69583e-18)
(-0.000364808 0.000899564 -4.3379e-19)
(-0.000368605 0.000834462 -2.09698e-18)
(-0.0068291 0.00342051 3.27849e-18)
(-0.0067808 0.00251399 8.49753e-19)
(0.000121513 -9.92669e-05 2.26958e-20)
(9.88035e-05 -0.000151624 -2.17685e-19)
(0.000107933 -9.49794e-05 1.23618e-20)
(0.000123084 -0.000177586 6.41979e-20)
(-0.00206098 -0.00142033 -2.7654e-19)
(-0.00224735 -0.00110679 -1.4211e-19)
(-0.00193003 -0.00109755 2.02673e-19)
(-0.00226494 0.00211205 1.43692e-18)
(-0.00297859 0.00207032 3.57936e-18)
(-0.00280363 0.00255008 2.55077e-18)
(-0.0146872 0.00098161 -3.22527e-18)
(-0.0145133 0.000866393 -2.72535e-18)
(5.26712e-05 3.79983e-05 -5.28128e-19)
(8.95979e-05 -9.27569e-06 -1.51893e-19)
(0.000112625 6.508e-05 -4.30501e-19)
(0.0723809 0.0655082 5.93538e-19)
(0.0514283 0.0675757 1.32757e-18)
(0.0722173 0.0638402 -8.53006e-18)
(0.00346475 -0.0050454 -1.20966e-20)
(0.00419828 -0.00432717 7.23014e-20)
(0.0032736 -0.00409982 1.06381e-20)
(-0.00284648 0.00252128 2.51717e-19)
(0.000305637 3.26388e-05 -1.06326e-19)
(0.00718669 -0.0110402 5.47604e-18)
(-0.000472744 0.000296779 1.46915e-19)
(-0.000488097 0.000344925 -7.36334e-20)
(-0.000112771 -0.000118166 -3.10699e-21)
(-0.000107147 -0.00011188 4.08382e-20)
(-0.000104023 -0.000123785 -9.56997e-20)
(0.0120401 -0.00851185 -7.11078e-21)
(0.0111008 -0.00652703 -7.60253e-19)
(0.00924261 -0.00825513 -6.06155e-20)
(0.0142775 -0.00897648 5.12728e-19)
(0.012021 -0.011496 2.44396e-19)
(-0.0163571 0.0467104 7.81666e-18)
(-0.000640783 0.000295853 -6.9855e-18)
(-0.000629086 0.000413603 3.56013e-18)
(-0.00406612 -0.00512536 2.98449e-20)
(-0.00901674 0.0119719 -2.86365e-18)
(-0.0112966 0.0123005 3.74693e-18)
(-0.00915822 0.00994166 -1.10163e-18)
(-0.000126558 -5.6019e-06 1.06922e-19)
(-0.000124081 -4.81099e-06 -1.13289e-20)
(-0.00012726 -3.74659e-06 -2.86679e-19)
(0.000288516 -8.90687e-05 -1.16473e-19)
(0.000288007 -9.23732e-05 2.16539e-20)
(0.000279604 -8.53608e-05 -1.87045e-20)
(0.00029771 -9.24791e-05 -1.46022e-19)
(0.000287784 -8.53513e-05 -4.13243e-20)
(-0.0940532 0.00862091 -7.39685e-18)
(-0.00133534 -0.0135456 -1.45187e-19)
(-0.00113539 -0.0120684 1.72378e-18)
(-9.23434e-06 -0.0130277 -5.1682e-18)
(-0.000397847 -0.01936 1.72806e-18)
(-0.000206137 -0.0214274 6.29672e-18)
(0.00174305 -0.019801 -1.35338e-18)
(-4.52519e-05 3.17184e-05 -8.68316e-19)
(-4.54869e-05 3.56005e-05 -1.07358e-18)
(-4.16349e-05 3.09612e-05 -1.45578e-18)
(4.83923e-05 7.50775e-06 2.68428e-21)
(3.95031e-05 3.7166e-06 7.48233e-21)
(0.0774517 0.0946614 -7.68647e-19)
(0.0686275 0.101285 5.28213e-18)
(-0.00917856 0.00198114 2.52839e-18)
(0.000261535 -7.12806e-05 1.10004e-19)
(0.000267525 -7.44047e-05 3.55211e-20)
(0.000261677 -7.35783e-05 -4.21117e-20)
(0.000254727 -6.73389e-05 6.57215e-20)
(0.000260721 -6.91028e-05 -4.49305e-20)
(0.000141427 -3.18115e-06 -2.08181e-20)
(7.12741e-05 -1.73812e-06 1.39236e-20)
(0.000307309 -9.51799e-05 1.87365e-20)
(0.000308236 -9.97025e-05 7.99124e-20)
(0.000317144 -9.70322e-05 4.93621e-20)
(0.000306261 -9.07221e-05 2.59357e-20)
(-0.000588676 0.00411536 -1.86737e-19)
(-0.000234335 0.00462702 1.2488e-18)
(-0.0192281 0.0388818 -5.35297e-19)
(-0.0281105 0.0366989 -3.50428e-18)
(-0.0307274 0.028714 -3.10314e-18)
(-0.000525465 5.73044e-05 -1.0766e-19)
(-0.000489677 4.21584e-05 -2.97879e-19)
(-0.000494751 7.55235e-05 -2.27844e-19)
(5.08807e-05 0.000143753 -1.5426e-21)
(5.54547e-05 0.000152264 4.41752e-21)
(6.16918e-05 0.000141602 8.49289e-21)
(0.00383255 -0.00316702 7.6488e-19)
(0.0043688 -0.00288579 3.06328e-18)
(0.00389223 -0.00263573 -1.79313e-18)
(-0.00389547 0.00381225 -1.45717e-18)
(-0.00359091 0.00339847 -1.69434e-18)
(-0.00330257 0.00390558 8.60058e-19)
(0.000211243 -1.45293e-06 -8.86786e-20)
(0.000181254 -6.73799e-08 -9.85635e-20)
(0.00018219 -1.35108e-07 -3.77248e-20)
(-4.96136e-05 3.26828e-05 1.78043e-18)
(-4.58245e-05 2.79464e-05 1.05144e-19)
(0.0754442 0.0688905 -1.6633e-18)
(0.0906369 0.0641557 3.29749e-18)
(-0.00294043 -0.000731726 2.56024e-18)
(-0.00315726 -0.00119814 -1.73558e-18)
(-0.00100055 -0.000955117 8.27283e-19)
(-0.00244391 -0.0136006 -3.63691e-19)
(-0.00698572 0.0114528 -4.25603e-18)
(-0.00822352 0.013768 -5.55648e-18)
(0.011624 -0.00161797 4.87959e-19)
(0.0121142 -0.000411089 2.72177e-18)
(0.0130034 -0.00143415 2.60765e-18)
(-0.000220295 7.11293e-07 2.88546e-19)
(-0.000226429 -3.40551e-06 -3.73564e-19)
(-0.0867306 -0.0167515 -2.38117e-20)
(-0.0931484 -0.0309305 4.11542e-18)
(0.00335167 -0.00347782 -1.8001e-18)
(0.00389325 -0.0037919 1.21046e-18)
(-0.00135252 -0.0096518 -1.70084e-19)
(0.00027279 -0.0095592 -5.61797e-20)
(-0.000758776 -0.00129667 -4.34026e-18)
(-0.000907895 -0.00144853 -1.5076e-18)
(-0.000983363 -0.00120385 2.61663e-19)
(1.42795e-05 7.61909e-05 3.02399e-19)
(-4.8866e-06 2.80792e-05 -1.05947e-19)
(-0.0110203 0.0396549 3.3054e-18)
(9.34227e-07 8.086e-05 3.30078e-18)
(-2.10223e-06 8.09406e-05 1.78265e-18)
(-9.64029e-07 8.57955e-05 -4.84409e-19)
(0.000819671 0.00361615 -8.07195e-19)
(0.00100669 0.00385199 -1.60824e-19)
(0.0011409 0.00352823 1.33079e-18)
(0.00588395 0.00094952 1.244e-18)
(0.00523209 0.000918997 -2.76444e-18)
(0.00561127 0.0014452 -1.37486e-18)
(-0.000589249 3.12881e-09 -1.1537e-20)
(-0.000551883 3.36823e-05 1.57464e-19)
(-0.00054667 -1.36709e-05 1.78958e-20)
(8.32713e-05 6.17214e-07 -1.17932e-19)
(-0.000232875 0.00041334 -1.0982e-18)
(0.00502256 0.000359381 -5.65524e-20)
(0.00410068 0.000462904 -4.64847e-19)
(0.00465105 0.00142808 -4.69391e-20)
(-0.000281536 -0.000102667 -9.28875e-20)
(-0.000270551 -3.32386e-05 1.79367e-19)
(-0.000365983 -4.38609e-05 -2.69498e-20)
(-0.0108259 0.00299372 1.31631e-18)
(-0.0105189 0.00266834 -6.82127e-19)
(-0.0110191 0.00256224 2.13724e-18)
(-0.0216993 -0.0843666 -6.59012e-19)
(-0.0339321 -0.0873243 -4.2506e-18)
(-0.0111997 -0.0599665 -1.13204e-18)
(0.000425276 -0.00022593 -2.64973e-20)
(0.000383515 -0.000255258 2.11891e-19)
(0.000366806 -0.000210811 6.62874e-20)
(0.000249042 -6.43382e-05 -3.7389e-20)
(0.000249047 -6.23515e-05 1.18602e-21)
(0.000331035 -0.000276312 -4.14933e-20)
(0.000463301 -0.000201872 4.91573e-20)
(0.000248758 -6.68214e-05 3.19271e-20)
(0.00024387 -6.18741e-05 -1.19895e-20)
(4.68499e-06 8.1253e-05 3.57147e-19)
(-4.90231e-05 5.63537e-06 -7.2224e-19)
(-3.59571e-05 2.89203e-06 5.5014e-19)
(0.00105895 0.000764521 2.25876e-18)
(0.00119333 0.000729118 9.32306e-19)
(0.00117698 0.000873883 2.30455e-19)
(0.000464167 -0.000178995 1.4384e-19)
(0.000491276 -0.000247084 5.97073e-20)
(-0.0148489 0.000695051 2.65819e-19)
(-0.0146525 0.00067055 -1.6679e-18)
(-0.0192858 0.0301009 -2.54865e-18)
(-0.0165635 0.0263138 -4.28335e-18)
(-0.000154419 0.000119884 1.69812e-18)
(-0.000148722 0.000121597 3.79357e-19)
(-0.000153465 0.00011335 -9.53512e-19)
(0.00239172 -0.000343396 1.03396e-19)
(0.00298916 -0.000647797 2.05172e-19)
(0.00240305 -0.000943611 1.22304e-19)
(0.027009 -0.02267 -4.71983e-19)
(0.0301792 -0.0193797 -1.44564e-18)
(0.0264123 -0.0236719 -7.14621e-18)
(0.000333021 -1.30938e-05 -3.94944e-20)
(0.000336983 -7.76676e-06 -7.9173e-21)
(0.000331318 -5.6752e-06 7.2018e-20)
(-0.023301 0.0215179 -3.34532e-18)
(-0.0221996 0.0254545 -2.88594e-18)
(-0.0193018 0.02164 -7.10079e-19)
(-0.0106027 0.0034665 1.76666e-18)
(-0.0111069 0.00328732 -1.74422e-18)
(0.000329068 -1.82601e-05 2.76183e-20)
(0.000335527 -2.01178e-05 -6.05174e-20)
(-0.0038613 0.00294936 -2.10504e-18)
(-0.00443407 0.00286542 -2.93488e-18)
(-0.000276684 -0.000177913 7.95757e-20)
(-0.000218898 -0.000140718 -7.17111e-20)
(-0.0254286 -0.00447261 -6.6712e-18)
(-0.0289675 -0.00398291 1.02694e-18)
(0.00016383 4.32739e-06 -7.23226e-20)
(0.000120936 1.84428e-06 -6.82153e-21)
(-0.000849645 0.00277776 -1.08462e-19)
(-0.00126651 0.00264407 8.89413e-20)
(-0.000948015 0.00233064 -1.55713e-19)
(-0.000634331 -2.29291e-05 -3.69411e-21)
(-0.00063392 3.07668e-05 6.12178e-20)
(-0.000212316 -4.74035e-05 -4.4134e-19)
(-0.000207113 -5.31766e-05 -1.82771e-19)
(-0.00020706 -4.51988e-05 1.75471e-19)
(-0.00584678 -0.00573196 -2.25176e-18)
(-0.00529942 -0.00527081 1.97706e-19)
(-0.00613608 -0.00496134 -5.74438e-18)
(-7.37183e-05 -6.98196e-06 1.20293e-19)
(-7.61098e-05 -6.29016e-06 -3.71244e-20)
(-6.31475e-05 -3.67566e-06 -1.59779e-19)
(-0.0383353 0.0528021 -2.40327e-18)
(-0.0310495 0.0581071 1.00136e-18)
(-0.000695762 0.00130997 -1.31496e-18)
(-0.000802036 0.00139326 -7.87055e-19)
(-0.000795468 0.00124596 -1.33e-18)
(-0.000790382 0.00365718 1.60104e-19)
(-0.00205249 0.00403674 2.63736e-19)
(0.0327573 0.0565426 1.2923e-18)
(0.0297285 0.0620162 3.03955e-18)
(0.0214612 0.0549576 -3.0507e-18)
(-0.0149727 0.000724506 3.59726e-19)
(0.000230162 -2.70407e-06 -3.24006e-21)
(0.000230434 -1.27217e-06 -5.82195e-20)
(0.00162179 -0.000648389 8.06636e-19)
(0.00154224 -0.000827924 5.25444e-18)
(0.001412 -0.00067599 1.75724e-18)
(0.0051701 -0.0019372 -1.39965e-19)
(0.00528235 -0.000731734 1.00426e-19)
(0.00432734 -0.00151555 2.23028e-19)
(-0.000648579 6.0329e-05 4.31576e-19)
(-0.000679118 -4.81091e-06 2.92737e-19)
(-0.000596523 9.37577e-06 1.19437e-18)
(0.00497445 -0.0033961 -1.89826e-19)
(0.00380798 -0.00353401 -3.87341e-20)
(-0.000398144 0.000319333 1.32708e-18)
(-0.000420369 0.000346477 -1.1101e-19)
(-8.17152e-05 -0.000118768 1.13178e-19)
(-0.000121257 -0.000115762 -2.97431e-20)
(-8.91441e-05 -0.000142629 1.24004e-20)
(-7.39739e-05 -9.65008e-06 2.40871e-20)
(-6.99446e-05 -6.76772e-06 8.67989e-20)
(0.0128058 -0.00851444 -6.99158e-19)
(0.0127977 -0.0102537 -1.89025e-18)
(0.0112282 -0.00916375 -1.83958e-18)
(-0.0263096 -0.0066461 -2.07324e-19)
(-0.031374 -0.0114134 1.57859e-19)
(-0.0220481 -0.0115181 -8.36677e-20)
(0.000784081 0.00324204 1.49548e-18)
(0.000505253 0.00350552 -1.06835e-18)
(-0.00037043 0.000332706 -5.45765e-19)
(-0.000376235 0.000302428 8.70275e-19)
(-5.25957e-05 3.26172e-05 -3.7383e-19)
(-5.28905e-05 2.86924e-05 -1.55918e-18)
(-5.63492e-05 3.23453e-05 -4.04582e-18)
(-0.00885848 0.00235411 3.62644e-18)
(-0.00782638 0.0017067 -2.07771e-18)
(-0.00155592 0.0019018 -1.01616e-17)
(-0.0012495 0.00158513 2.51637e-18)
(-0.000152323 -0.000212443 2.33745e-21)
(-0.000132547 -0.000217182 2.44601e-20)
(-0.000141665 -0.000195226 1.1946e-20)
(-0.00260391 8.09647e-05 -2.84077e-19)
(-0.00347582 -0.000550062 1.38908e-19)
(-0.00215359 -0.000725645 7.65981e-20)
(-0.000692487 0.000107964 -2.07578e-20)
(0.0748868 0.00544959 1.61098e-19)
(0.070064 0.015941 -7.76123e-20)
(0.0644201 0.00551695 -2.77217e-20)
(-0.000315238 0.00239382 2.4816e-18)
(-0.000222792 0.00264386 1.38483e-18)
(-7.56098e-05 0.00237205 8.02735e-18)
(-0.00891888 0.0228854 -3.34062e-18)
(-0.005544 0.0231719 -5.43705e-18)
(-0.00838911 0.026328 -1.70049e-20)
(0.0103095 -0.0838306 3.69472e-19)
(0.0236899 -0.0750266 1.75673e-18)
(0.000940079 -0.0127215 7.32882e-20)
(-0.00355868 -0.0130555 7.94548e-20)