/*--------------------------------*- C++ -*----------------------------------*\
| =========                 |                                                 |
| \\      /  F ield         | OpenFOAM: The Open Source CFD Toolbox           |
|  \\    /   O peration     | Version:  v2012                                 |
|   \\  /    A nd           | Website:  www.openfoam.com                      |
|    \\/     M anipulation  |                                                 |
\*---------------------------------------------------------------------------*/
FoamFile
{
    version     2.0;
    format      ascii;
    class       surfaceScalarField;
    location    "200";
    object      meshPhiCN_0;
}
// * * * * * * * * * * * * * * * * * * * * * * * * * * * * * * * * * * * * * //

dimensions      [0 3 -1 0 0 0 0];
oriented        oriented;


internalField   nonuniform List<scalar> 
20580
(
0.00273351
-0.00305746
0.000323689
0.00677441
-0.0029981
-0.00378634
0.000249472
0.00650987
-0.0015063
0.00197487
-0.000468572
-0.000458249
-0.0003435
0.000514635
-0.00039309
-0.00568282
0.00606606
0.00426808
-0.00667877
-0.000976462
-0.000575667
0.00101157
0.000755954
0.000928469
-0.00168442
0.00168097
-0.00932632
0.00760593
-0.00260582
0.00445877
-0.00185401
0.00117684
0.00483684
-0.00607561
-0.00765364
0.00142982
0.00620685
0.000582281
-0.00149394
0.000911655
0.00273145
-0.00512298
0.00238871
0.00245211
0.000437248
-0.00288958
0.00190425
-0.00143676
-0.000467482
0.00906679
-0.00279616
-0.00632928
0.00160596
0.00104667
-0.00265272
-0.000833515
0.00356674
-0.00563496
0.00218299
0.00344929
-0.0022624
-0.00411051
0.00636386
0.00196909
-0.000945317
-0.00102378
-0.000309196
-1.15757e-05
0.000265876
0.00234896
-5.53854e-05
-0.00229362
0.00439523
-0.0026814
-0.00171473
0.00284495
-0.00189324
-0.000951788
0.000888897
0.00143897
-0.00232791
0.00205497
-0.00112055
-0.000934416
-0.00184424
-0.00654345
0.00822134
0.000268196
-0.00177189
0.00150369
-0.00300836
0.00726066
-0.00279322
-0.000549244
0.00334217
-0.000865094
-0.0011481
0.00201318
0.00313181
0.00102562
-0.00415904
-0.00197653
0.00234256
-0.00036603
-4.88608e-08
-0.000332386
0.00263407
-0.00155986
-0.00107425
-0.00157056
-0.000447849
0.0020184
-0.00902123
0.00718754
0.00179691
-0.00166469
0.00210233
-0.000437641
0.000924759
0.0011302
0.00100611
0.00056466
0.00303034
-0.00244687
-0.000583564
0.00145928
0.000428985
-0.00188827
-0.00176332
-0.00656878
0.00825034
-0.00139385
0.00261207
0.000961513
-0.0024798
0.00151808
-0.00891056
0.00390599
0.00498577
-0.000375146
-0.00729176
0.00115449
0.000416284
-0.00157077
-0.00916541
0.00266789
0.00648015
-0.000752919
0.00320479
0.00586407
-0.00447225
-0.00139672
-0.00119455
0.00194356
-0.000749013
-0.00637958
-0.0026684
-0.00299542
0.000201939
-0.000110223
-0.00155447
0.00294399
-0.00159139
-0.00135267
-0.00169273
-0.000125474
0.0018182
-0.00476903
0.00587571
0.00198602
0.000858846
-0.00819269
0.00843195
-0.000270681
-0.00377679
-0.00514898
-0.0029432
0.00132136
0.00162171
-0.00183788
-0.00110541
-0.000214875
-0.00147785
-0.000491716
0.0026643
-0.00314343
-0.00531895
0.00842252
0.00188903
-0.00161101
-0.000278021
0.00109006
-0.00163036
0.0005403
0.00259335
0.00164967
-0.00424472
0.00899076
-0.00601524
-0.00300074
0.00147945
-0.00160493
-0.00252712
0.00549183
-0.00296871
-0.00315415
-0.00366367
0.00680533
0.000423501
0.00148074
0.00943722
-0.00161881
-0.00812788
-0.000378127
0.00272703
-0.00161792
0.00885144
-0.00732963
0.00466764
-0.00784897
0.00264114
6.0497e-05
-0.00270175
0.00554272
-0.00241298
-0.0014439
-0.000383799
0.0018277
-0.000298509
0.00177796
-0.00123863
-0.000917214
0.00215584
-0.00608943
0.003819
0.00044967
-0.00154734
0.00109767
-0.00805941
0.00784309
0.00017125
0.0014977
-0.00122951
-0.0013568
-0.00781999
0.00335977
-0.00638232
0.000888068
0.000682706
0.000512269
-0.0017509
0.00208293
-0.000393801
-0.00168913
-0.00197423
0.00275219
-0.000778077
0.0119563
-0.00489262
-0.00713805
-0.00183342
-0.00157991
0.00341309
0.000959953
0.000628021
-0.00158797
0.00344672
-0.00180115
-0.00164582
0.00101645
-0.00285008
0.00147305
-0.00404523
0.00257182
0.00384325
-0.000555081
-0.00328875
-0.00808343
0.00913841
-0.0010817
0.00319771
-0.00817964
0.0048997
0.00489713
-0.000685923
-0.00421287
0.00913473
-0.00603114
-0.000426005
0.00151606
0.00656108
-0.00321639
0.00218285
0.00682179
0.00607314
-0.0022525
-0.0038246
0.00740546
-0.0092579
0.00269621
6.07518e-05
-0.00275716
-0.00406595
0.00278565
0.00127944
0.00199892
0.00106477
-0.00306396
0.0039989
0.00185931
0.00875166
-0.00373065
-0.00522796
0.000769277
-0.00230791
-0.00135415
-0.000152153
0.000412224
0.0014768
0.00307931
-0.000605201
-0.00247428
-0.00987743
0.000845076
0.00891796
0.00509687
0.00170489
-0.00683137
-0.0014853
0.00195429
-0.00046899
0.00300633
-0.000360657
-0.0026458
-0.00279267
0.000202294
0.00259032
0.00347015
0.00840759
-0.00418858
0.00296341
0.00122404
0.00109157
-0.00198936
0.000897786
0.00456414
-0.0042521
-0.000313756
0.00225096
-0.00636978
-0.0057839
-0.000473814
0.00625312
0.00132001
0.00131401
0.00120663
-0.00207173
-0.00380728
0.00120057
0.00200453
-0.000938849
-0.00106568
0.00284941
0.000627871
-0.00154509
0.00487677
-0.00194512
-0.00293245
-0.00309124
0.00530444
-0.00221517
-0.000542689
0.00318369
-0.00149323
-0.00541699
0.00689782
-0.00889867
0.000802719
0.0003095
-0.00239379
0.00208416
0.00275375
-0.00148013
-0.00127366
0.00761455
-0.0041073
-0.00352031
0.00080451
0.00831433
-0.00125962
0.000637476
0.00100588
-0.00164335
-0.00342157
-0.000767785
0.00263986
-0.00162358
-0.000838875
0.00353484
-0.00271859
-0.0013481
-0.00140513
-0.0015696
0.00297459
-0.00613283
0.00871542
-0.00259513
0.00926728
-0.00794306
-0.00134372
0.0061703
-0.00655135
0.000264775
-3.52751e-05
-0.00153528
0.000224612
-0.00305835
0.00283226
0.00775664
-0.00412881
-0.0036425
-0.000726507
0.000658054
-1.54935e-05
-0.00153768
-0.000577385
0.00211506
5.5516e-05
0.00483981
0.0031174
-0.00215615
0.00160521
-0.00102293
0.00148148
-0.00178335
0.000301867
-0.000690459
0.00217193
-0.000643907
0.0017984
0.00398303
0.00208568
0.00114772
0.000925829
-0.00207357
-0.000645362
-0.00486923
0.00543421
0.00166103
0.00681594
-0.00181464
-0.00244444
0.00425798
0.000356019
-0.000864472
0.000290695
0.000192795
0.00189013
-0.00205727
0.00284009
-0.000782895
0.00243812
0.000366326
-0.00280464
0.00792476
-0.00650659
-0.00329145
-0.00225969
0.00554712
-0.000812929
0.00325082
-9.97149e-05
0.00310591
0.00105601
-0.00568416
0.00203873
0.00364085
-0.00115526
0.005717
0.000534506
0.00103627
0.00147028
-0.000832805
0.00234529
-0.00289478
0.00582022
-0.00499171
-0.000829706
0.00554044
-0.00893491
0.00337895
0.0107119
-0.00853734
-0.00230147
0.00156071
0.00119299
-0.00414723
0.00436967
-0.000121157
-0.00137278
0.00556754
-0.00597018
0.00303301
0.00456713
-0.00124435
-0.00214185
0.00338595
-3.17938e-05
0.00237687
0.00730618
-0.0089881
0.00163596
-0.00939656
0.00149022
0.00786136
-0.00380432
0.00182912
0.00197507
-0.00198089
-0.000993613
0.00297437
-0.00209579
0.000740467
0.00135532
-0.00127072
-0.000822708
0.00209342
0.00515877
-0.00243038
0.00179515
-0.00158457
-0.000210583
-0.00168316
-0.000412631
0.0038775
0.00272672
-0.0066068
-0.0043273
-0.000495618
0.00482122
-0.000826131
0.00188781
-0.00106168
0.00516471
-0.00651358
0.0013405
0.00287391
-2.12327e-05
-0.00285292
-0.00202843
0.00709679
-0.00252369
-7.31554e-05
0.00251076
-0.00248241
0.00442525
-0.000166116
-0.00426081
0.0016522
0.00433952
-0.00600103
-0.00799545
0.00760616
0.00289175
-0.00146005
-0.00143181
-0.00898264
0.00890571
3.16582e-05
0.000458498
0.00102265
0.00674545
0.000913927
-0.00211152
-0.00127789
0.00338914
0.000261951
-0.00170585
-0.00135634
-0.000732273
0.00208861
-0.00545724
0.00169659
0.00375937
5.14514e-05
-0.00438035
-8.96866e-05
0.00116061
-0.00112399
0.0026871
-0.00237774
-0.00856896
0.000904813
0.00757323
0.00544879
0.00212999
-0.00168854
-0.000441462
0.00418577
0.00163273
0.00681377
-0.00165999
0.000362379
0.00729455
-0.00176829
0.000497569
-0.00956322
0.00753523
0.00105581
0.000913263
-0.000878185
-0.00103207
0.00191025
0.00164574
0.00180068
-0.000739471
-3.00912e-05
0.00245571
8.94494e-05
-0.00254522
-0.00144876
-0.000214573
0.00166334
0.00222851
-0.000769236
0.0033109
-0.00459285
-0.00163132
0.0062201
0.00204165
0.000246074
-0.00228781
0.00139511
0.0014965
-0.00547604
0.00218065
0.000812388
0.00193968
-0.00284639
-0.00270834
0.00555127
0.00191947
-0.000633256
-0.00128621
-0.00315449
-0.000418621
0.00357283
0.00155248
-0.000672781
-0.00143995
-0.00675507
0.0054866
0.0012591
-0.00282447
0.000250647
-0.00178833
-0.00160233
0.00194675
-0.000344413
0.00384359
0.00674015
6.08851e-05
-0.007837
0.00777111
3.44585e-05
-0.00156342
-0.00137173
0.002935
-0.00233811
-0.000911131
0.0032491
-0.0039728
-0.00278831
0.00430265
-0.00424872
-0.00013912
-0.00301562
-0.0104622
0.00280227
0.00762042
0.00353887
-0.00206608
0.000488739
-0.0028665
0.00237744
-0.00174185
-0.00107645
0.00281825
-0.00206976
0.00823951
-0.00623683
-0.000244776
-0.00776359
-0.00127259
-0.00184151
-0.000254088
0.0020956
0.00151504
-0.00174117
0.000226124
-0.002983
0.00455284
-0.00157139
-0.00296663
-0.00700544
0.00250115
-0.00260098
-0.00135789
-0.00156511
0.00292287
-0.00233222
-0.00137239
0.00370425
-0.000702811
0.00500367
-1.12623e-07
-0.00184141
0.00108071
0.000490065
-0.00157077
0.00599383
-0.000405028
-0.00559502
0.00565043
-0.00475762
-0.000895707
0.00133266
0.000774238
-0.00210694
0.0117175
-0.00790514
-0.00390353
-0.00593894
0.00568488
0.00013065
0.000416123
-0.00274861
-0.00448254
0.00230638
0.00217502
0.000638222
-0.00845904
0.00766701
0.00194364
-0.00258395
0.000561826
-0.00250333
-0.00614146
-0.00059238
-0.00051569
0.000727413
0.00608117
-0.00421018
-0.001875
0.00010718
-0.00095929
0.00171524
-0.00390602
-0.00173088
0.00930577
-0.00227153
-0.00707417
-0.00172589
-0.000207507
-0.00127779
-0.00864248
0.00608612
0.00253895
-0.00294528
0.00131867
-0.00157077
0.000252103
-0.00669096
0.00518692
-0.00716291
-0.00149074
-0.000721202
-0.00318674
-0.00145017
-0.000363211
0.00181338
0.0016889
-0.00195946
0.000270544
0.0011223
-0.00376221
0.002639
0.000450381
-0.00120675
-0.00109471
0.00224241
-0.00549036
0.0020528
0.00171761
-0.00377115
-0.000372217
0.00169089
-0.00212245
-0.000603375
0.00272577
0.00202469
0.00571148
-0.000590536
0.00192316
-0.00297018
0.00161471
0.00135539
-0.00199563
7.79237e-05
0.0019177
-0.00187735
0.0032332
-0.00135608
0.00422634
-0.00172432
-0.00250229
0.000726779
0.00127775
-0.00113152
0.00226432
-0.0011328
0.00227923
-0.00139038
-0.00310692
-0.00632864
-0.00175321
0.000584395
0.00116881
0.000808821
0.000761953
0.00197128
-0.00193493
-3.63527e-05
4.43591e-05
0.0019269
-0.000635797
0.00451253
-0.00189989
0.00418021
-0.00228126
-0.00597233
0.00224989
0.00371958
0.00138875
-0.000939075
0.00432429
-0.00190026
-0.00242427
0.00258235
-0.00262088
-0.000399391
-0.00415532
0.00209133
0.00658199
-0.00158353
-0.00500466
-0.00166491
-0.000330719
0.00162151
0.00204845
0.00956093
-0.00175014
-0.0058057
0.0041594
0.00164377
-0.00113581
-0.00465186
-0.00519532
0.00105298
5.23954e-06
-0.00145541
-0.000691587
0.00319261
-0.00289499
0.00748365
-0.00584348
0.00551716
0.00128565
0.00115989
0.000633781
-0.00179368
-0.00263116
0.00815797
-0.00276314
0.00631561
-0.000329621
0.00302794
-0.003751
-0.00142096
-0.0043872
-2.72991e-05
0.000440913
0.00881614
0.00315196
-0.000195232
-0.00295699
-0.00302965
0.00122827
-0.00252344
-0.000674793
0.00319798
-0.00165022
-0.000958188
0.00211807
0.00132417
-0.0054404
-0.0017009
0.000675883
0.00204902
-0.00272503
-0.00940078
0.000214132
0.00902529
0.000210595
-0.00233309
0.00370489
-0.000288531
-0.00341683
-0.000950699
0.00191065
0.00407208
0.00250221
0.00099805
-0.00364487
0.00132223
0.00162166
0.00120438
0.00117755
-0.00238197
-0.00281019
-0.000687013
0.00349691
-0.000828059
-0.000887222
0.00171528
0.00391193
0.00240554
-0.00633677
-0.00214958
9.22402e-05
0.00184402
-0.000837906
-0.00608338
0.00241402
0.00366448
0.000883558
0.00103591
0.00574915
-0.00405888
-0.00169414
0.000430202
-0.00183202
0.00140181
0.00428706
0.00135942
0.00479879
-0.00248211
-0.00288384
-0.000622038
0.0035056
0.00327405
-0.000956026
-0.00231815
0.00271
0.00653781
-0.000341265
-0.00558881
0.00592107
-0.0027049
-0.00177856
-0.00479027
0.00722634
-0.00793148
0.000644487
-0.00382621
0.0008418
0.00211339
-0.00206224
-5.1163e-05
0.00458221
0.00438723
-0.00512425
0.00462689
-0.00144085
-0.00025707
0.00169792
-0.00710667
0.00101653
0.00607571
-0.00259625
0.00160629
0.000989907
0.00369884
0.000365384
-0.00406596
0.00218689
-0.000498003
-0.00502195
-0.00149981
0.00234148
0.00205266
-0.000590972
0.0023861
-0.00269889
-0.00359075
-0.00143237
0.00502132
1.89542e-06
-0.00160423
-0.00174727
-0.00011446
0.0025701
-0.00445588
-0.00604567
-0.000137744
0.00328944
0.00548733
-0.000695464
-0.00479535
-0.00293325
0.00393047
-0.00109967
0.00861976
-0.00761494
0.000785387
0.000785387
0.00221615
-0.00103253
-0.00118363
0.00214767
8.79473e-05
-0.00223566
0.00654516
-0.00103872
-0.00302321
-0.00204613
-0.000849592
0.00289564
-0.000245272
0.00176032
-0.00272639
0.00881473
-0.00630548
-0.000546891
-0.00120632
-0.00206759
-0.0010529
0.00312034
0.00121724
-0.00192412
0.00070687
0.00157899
-0.00442822
0.00282231
-0.00201839
-0.000803969
0.00864714
-0.00598496
-0.0026882
-0.00023524
0.000381603
-0.00157077
0.000376222
-0.00132685
0.00253445
-0.00120767
0.00802967
-0.00638251
0.00170519
-0.00471182
-0.00092302
-0.00420281
0.00826303
-0.00235679
-0.00614972
0.00101265
0.00120349
-0.00375285
0.0018521
-7.55781e-05
0.00377995
0.0045715
0.00142446
-0.00600532
0.00710197
-0.00321373
-0.00524622
-0.00290964
0.00815084
-0.00135063
0.00255496
-0.010581
0.00826153
-0.00828677
0.00303672
-0.00256204
0.000952295
0.00160972
-0.00012986
0.00224323
-0.00399399
0.00623705
-0.00282038
0.00118549
0.00163479
-0.00760612
-0.000599282
-0.000149544
0.00569167
-0.00186298
-0.00525715
-0.0029423
0.00356167
0.000893235
-0.0044568
0.00604544
-0.00822342
0.00213013
-0.000540001
0.00683044
-0.00631212
0.00201691
0.00106223
0.00865625
-0.00262626
-0.00605266
0.00112708
0.000683288
-0.00181038
0.007538
-0.00475218
-0.00291115
-0.00549238
0.00631177
-0.000827155
-0.00151579
0.00194477
0.00509345
-0.00286757
-0.00222708
0.00259117
0.000328866
-0.00348999
-0.000411979
0.00535854
-0.00502757
-0.00201509
0.00657734
-0.00325883
0.00895927
-0.00573953
0.0026515
-0.000655756
-0.00199581
0.00127245
0.000828996
-0.00210147
0.000373618
-0.00496994
0.000461122
-0.00136089
0.000899768
0.00466932
-0.00727733
0.000528963
0.00667467
-0.0013827
-0.000469117
0.00185181
-0.00149823
-0.00144871
-0.00272862
0.00417629
0.00328183
0.00417516
-0.00748797
0.000822763
0.00146132
0.00341459
-0.00022496
0.00176742
-0.00154248
-0.00150703
-0.00659947
-0.00450215
0.00625776
-0.00176002
-0.00300568
0.00169539
0.00327708
-0.00497579
0.00104888
0.00121543
0.000136982
-0.00218318
-0.000495051
0.00264267
-0.00238642
0.00529107
-0.00291055
-0.00271642
-0.00943729
0.00868066
0.000708835
-0.00169794
-0.00171182
0.00540848
0.00194951
-0.00198148
-0.00085726
0.0063403
0.00431671
0.00258322
0.00250856
0.0023645
0.000342417
-0.000918289
0.000707718
0.000890173
-0.00159789
-0.00169654
0.000313836
0.00226042
-0.00113336
0.0010544
-0.0015127
0.000458292
-0.00128962
0.00167964
-0.000255096
-0.00142455
-0.00247635
-0.00204417
0.00565937
-0.00361713
5.40674e-05
-0.00382565
0.00371525
-0.00189456
-0.000701726
-0.00838053
-0.000974165
-0.00126692
0.00842685
-0.00515392
0.00170655
0.00344588
-0.0019239
-8.13891e-05
0.00200529
0.00720759
-0.00635703
-0.000865883
0.0044446
0.00260247
-0.00705729
-0.0001062
0.00247958
-0.00237377
0.00267091
-0.00418092
0.00150866
0.000271341
0.00701356
-0.00730204
-0.00193568
0.00229139
-0.000355729
-0.00315837
-0.00517697
0.00826458
-0.000871512
-0.00108631
0.00195782
-0.000242946
0.00289437
-0.00768219
0.00598236
-0.000165506
0.00634931
-0.00620137
-0.00130947
-0.00155102
0.00286036
-0.00234527
-0.00910441
0.00187302
0.000256829
-0.00212989
-0.00209394
0.000199354
-0.0104746
0.00155519
0.00879167
-0.0010352
-0.000911594
0.00194679
0.00281937
-0.00121352
-0.00167058
-0.00153126
0.00320159
-0.00570573
0.0033122
0.00240326
-0.00145099
-0.00109258
0.00188932
-0.000796737
-0.00402191
-0.00655039
0.00307824
-0.00211993
-0.000958416
-0.00159586
-0.00714792
0.00870088
-0.00811821
-0.00185273
-0.000596046
0.00244875
0.00156068
-0.00113048
-0.00166829
-0.00339799
0.00506341
-0.00121631
0.00477596
0.00804106
-0.000547004
-0.00751699
0.00331989
0.000416059
-0.00373692
-0.00091403
0.00200559
-0.0013489
-0.000575533
0.00192443
-0.00792303
-0.000974424
0.00880653
0.000502749
0.000892609
-0.00139536
-0.00194785
-0.00694897
-0.00427828
-0.00454153
-0.0017258
0.0062612
0.00540204
-0.00832599
-0.00666289
0.00298908
-0.00067977
-0.00130034
0.0019801
0.00142853
0.00184533
-0.00171498
0.00655595
0.000634115
0.00785614
-0.000117497
-0.00155352
-0.000575392
0.00212891
-0.00514641
0.00401631
0.00104423
-0.00283271
0.00356654
-0.000734104
-0.00541696
-0.000359673
0.00576861
-0.00223365
-0.00335934
0.00558895
-0.00322177
0.00625454
-0.00303689
-0.00123752
-0.000819406
0.00205691
-0.000721308
0.00180202
-0.00600089
0.000519785
0.00547241
0.000670427
0.00117359
-0.00777225
0.00632291
0.00142711
-0.00449228
0.00257946
0.00191187
-0.00114799
0.00207274
0.00111321
0.000830351
0.00527282
0.00233295
-0.00763955
-0.00666759
0.0035211
0.000321801
0.00021351
-0.00151385
-0.00297871
0.00121987
0.00175872
0.00424272
-0.000923938
0.00142718
-0.00165215
0.000464331
-0.00501147
0.00599575
-0.00171235
0.00138458
0.000745409
-0.00130885
0.00242004
-0.00111121
0.00284542
0.000441264
-0.00328698
0.000893258
-0.00176477
0.00284102
-4.16525e-05
-0.00279952
-0.00194961
0.00113929
0.000810311
-0.00203445
-0.00530618
0.0073143
0.000699247
-0.0022907
0.00160439
0.00121786
-0.000365621
0.00643492
-0.0061411
-0.000753903
0.00164197
-0.00118612
0.00234411
-0.001158
-0.00170524
-0.00424835
9.35431e-05
0.00712839
-0.00725567
-0.00121978
0.0016809
0.00256916
0.000851029
-0.00342079
0.00160443
0.000350617
-0.00195507
-0.00468997
-0.00593077
-0.000537594
0.000647008
-0.00028548
0.00482518
0.000989735
-0.0058165
-0.00203643
0.00470579
0.00132973
0.00605684
-0.00173111
0.000327722
-0.00103907
-9.26155e-05
0.00293348
0.00406778
0.00213344
-0.00620796
-0.00363012
0.000696146
0.00401917
0.00509275
-0.00559927
0.00585715
-0.00395212
0.00499682
-0.00104631
0.00150414
-0.00100139
-0.00280869
-0.00209922
0.00490614
-0.00167112
-0.00497964
-0.00714343
-0.000119598
0.00706442
0.00670165
-0.00834263
0.0015331
-0.00417122
0.00172573
0.00530768
-0.0058662
0.00352772
-0.000152981
-0.00337516
0.000349831
0.00588083
-0.00624327
0.00243128
-0.00388102
-0.00209169
0.00279087
0.0050094
-0.000205109
-0.00485137
-0.00107229
-0.00068502
0.00175731
-0.00173279
0.001595
-0.000710895
-0.00300019
0.00371063
-0.00104438
0.00171481
-0.00159883
0.00218353
-0.000584705
0.004807
0.00228697
-0.000682561
0.00262021
-0.00272685
-0.0019207
-0.00129531
0.00321583
0.000675971
-0.00186211
0.00918065
-0.00130346
-0.00795535
-0.000407096
-0.0015286
-0.00181527
-0.0035114
-0.00257638
0.00189569
-0.000841283
-0.00279746
0.00165003
0.00114737
-0.00268408
-0.00683495
-0.000189505
0.00371674
0.00832521
-0.0010636
-0.00115869
-0.000790921
0.000503047
-0.00146809
0.000965046
0.00958381
-0.0045378
-0.00507204
-0.00114011
-0.00165324
0.00240662
-0.000753403
0.000280832
0.00148019
-0.00177232
-0.00190965
0.00217814
0.000341431
-0.0030235
0.000523227
-0.00159552
-0.00146319
-0.000949996
0.00241315
-0.00189553
-0.00527422
-0.00240124
-0.00111812
0.00351909
0.00671136
0.00192037
0.00546304
0.00266118
-0.00814439
0.00251037
-0.000213357
-0.00229708
-0.00302353
0.00103606
0.00205329
-0.00308962
-0.00915052
0.0069464
0.00193261
0.00232112
-0.00183262
-0.00244045
0.00400513
-0.00156556
-0.00427323
0.00181975
0.00245232
-0.00344604
0.00640023
-0.00295746
-0.00408477
0.00710383
-0.0013545
0.00392294
0.00109109
0.00373267
0.0013172
0.00179991
0.00475967
-0.00216802
-0.0028263
0.00447434
-0.00056671
0.00341178
-0.000407533
0.00217493
0.00252831
-0.00148173
0.00213668
-0.000323112
-0.00181359
0.00259468
-0.000721697
-9.4386e-05
0.00273409
0.00118796
-0.00189136
0.000703394
0.00530453
-0.00393965
-0.0013667
-0.00212888
0.00027612
-0.0029487
-0.0086675
0.00669552
0.00191083
0.00380729
0.0021844
0.000590482
0.00193771
0.00634492
-0.00277513
-0.00357633
0.00839308
0.000358172
-9.17158e-05
-0.00789715
0.00788997
-0.00239781
-0.00136652
0.00376386
-0.00159049
0.000762433
0.000590135
-0.00608943
0.000708684
-0.00174075
-0.00772785
0.000371275
-0.00225013
0.000786916
0.00270308
-0.000125003
-0.0025783
0.00119856
-0.00157077
-0.00368131
0.00349134
-0.00594299
0.000913337
-0.00614285
0.00637819
0.00191092
-0.000712363
0.00277286
-0.00173702
0.00192991
0.0033724
-0.00217651
0.00328452
0.00378835
0.00069528
0.00171099
-0.00240632
-0.00310909
-0.00306617
0.00297339
-0.00310506
0.00607063
-0.00296973
0.00160836
0.00099621
-0.00260468
0.00495335
0.00367335
-0.00184885
0.00726912
-0.00454599
-0.00420157
0.00964321
-0.000807654
0.00198394
-0.0011763
0.000389559
-0.00127716
-0.000468087
0.00297838
-0.00180761
-0.000417156
-0.00326458
-0.00124639
-0.000652331
0.00189871
0.00143699
-0.000808968
-0.000351851
-0.00271447
-0.00261486
0.000694014
0.00210132
0.00270503
0.00573395
-0.00747514
0.00721822
0.0101595
-0.00508454
-0.00532958
0.00825184
-0.00166003
-0.000709544
0.00217762
0.00185444
-0.00403296
0.00372509
-0.00259695
-0.00112839
0.00146696
-0.00390811
0.00246724
-0.00102832
0.0049505
-0.00678553
0.00182074
-0.00178542
-0.000688951
0.000688951
0.00084746
0.00112741
-0.00481847
0.00214824
0.00266822
-0.000975399
0.000258077
0.00715427
-0.00716496
-6.87527e-06
-0.00180845
-0.000223802
0.00203225
-0.00648202
0.00079024
0.00254313
-0.00200147
-0.000541696
-0.00161243
0.00228839
0.00224453
0.00353204
-0.000370949
-0.00316172
-0.00864977
0.00872212
-0.000188908
-0.0020554
0.000907296
0.00661227
-0.00289655
-0.00372339
-0.00679545
0.000423714
-0.00230511
-0.00572241
0.00571812
-1.22465e-05
-0.00798944
0.00255889
0.00939458
-0.0067868
-0.00267544
0.00476063
-0.00249865
-0.00226384
-0.0011716
-0.000657257
0.00182885
-0.00640867
0.0027078
0.00369533
-0.00179565
-0.00415135
0.00594297
0.000458214
-0.00252594
0.000379353
-0.00172826
-0.00262994
-0.00236247
0.00611688
-0.00311224
-0.00300943
-0.000992573
0.00215168
-0.00115912
0.00451237
0.00537568
0.00134998
-0.00165138
0.00158822
-5.19532e-05
-0.00719353
0.00454793
-0.00191195
0.00257406
-0.00066216
-0.00393925
0.000189417
0.00374922
0.0036016
-0.00160299
0.0023607
-0.00358503
0.00122386
-0.00424261
-0.00152858
-0.00270491
0.00420832
-0.000599171
0.000599171
-0.00252994
-0.00196315
0.00501125
-0.00707186
-0.0028587
0.00131787
0.00306785
0.00272026
-0.0057952
0.00253321
-0.00259408
6.07294e-05
0.004702
0.000573376
-0.0054554
-0.00135509
-0.00160993
0.00296485
0.00230153
-0.000785758
-0.00209778
0.0028835
0.00352862
-0.00116837
-0.00214832
0.0015135
0.000634808
-0.00430386
0.00235808
-5.67541e-06
-0.00229897
-0.00126644
0.0035651
-0.00202597
0.00739592
-0.00554133
-0.00543963
0.00509019
0.00249176
-0.000355096
-0.00154079
0.00217456
-0.00171596
0.00087095
0.00128072
-0.00940451
0.00125398
0.00811591
0.00360218
0.0059512
-0.000440703
-0.00258931
0.00302951
-0.00283516
-0.00405101
0.00687264
-0.0088993
0.00903211
-0.000231659
-0.00186414
0.000918814
0.00117565
-0.0027392
-0.00167672
0.000685028
0.000991695
-0.00302769
-0.000454528
-0.00348527
0.00457996
0.00353636
-0.00813422
-0.00876068
0.00208755
0.00128106
0.00111464
-0.00239574
-0.00361864
0.00354257
-0.000654488
-0.00240889
0.00277697
-0.000382078
0.00261365
-0.00154908
-0.00149486
0.00311008
-0.00161541
-0.00112334
0.00207388
-0.00821812
4.65376e-05
0.00337842
-0.00352822
0.000407709
-0.00157931
0.00325354
-0.00670326
0.00584389
-0.00347577
-0.002372
0.0067269
0.00125776
-0.00166441
-0.000365203
0.00202961
0.000133836
0.000938921
-0.00057326
0.00174685
0.00730592
-0.00821863
0.000872858
0.00339077
-0.00174533
-0.00230882
-0.00274116
0.00504742
0.000610377
0.00248891
-0.00309977
-0.00490413
0.00152994
-0.00757251
-0.00155509
0.00583399
-0.0042891
-0.00122785
-0.00352559
0.00451868
0.00276546
-0.00185673
-0.000908817
-0.00769871
0.00290928
0.00478064
0.000771113
0.00117563
-0.00722421
0.00391283
0.00329129
0.000202592
-0.00210662
0.00190399
0.00205216
-0.00136169
-0.000690475
-0.00559257
0.00233273
0.00325563
0.00375122
-0.00126438
-0.00274393
0.00209643
-0.00126585
-0.000830583
-0.00136391
0.00221845
-0.000854564
-0.00109196
-0.00491649
-0.00362571
0.00381452
-0.00804229
0.000550076
0.00119815
-0.00157077
0.000372628
-0.00155633
-0.00716887
0.0022527
-0.00166231
-0.00142168
0.00761967
-0.00627421
0.0024003
-0.00380575
0.000331255
0.00221185
-0.00485634
0.0052251
-0.0057159
-0.000532465
-0.00394324
0.00184945
-0.00120019
-0.00064926
-0.00212699
0.00108425
0.00104274
0.000437284
-0.00209053
0.0106375
-0.00692523
0.00179826
-0.000610299
-0.00746819
0.0053415
-0.000120195
0.0045961
0.00348127
0.00521794
-0.00176433
-0.00287814
0.00263219
0.000209542
-0.00286179
-0.0010352
0.00221307
-0.00117788
-0.00121634
0.00236392
-0.00114759
-0.00173615
-0.00728415
-0.00109002
-0.000123625
0.00340019
-0.00507122
0.00760075
-0.000242523
0.000753031
0.0013434
-0.00298624
-0.000979704
-0.00120916
0.00193593
0.00349481
-0.00505926
-0.00154955
0.00618273
-0.00661805
0.00501372
-0.00283329
0.00322891
-0.000526149
0.00999477
-0.000905515
-0.00158914
-0.000133021
-0.00210376
-0.000753872
0.00285756
0.00141316
-0.000910115
-0.00110112
0.00463228
-0.000902258
0.00115056
-0.00352493
0.00237345
0.00162813
0.00675804
-0.00219172
0.00499803
-0.00280854
-0.000169682
-0.00345657
0.000944446
0.000647536
-0.00159198
0.00373021
0.00234656
0.00144033
-0.0025285
0.00108812
-0.000323261
-0.00329582
0.00257851
-0.000705859
-0.00147622
0.00201848
-0.000542271
-0.00167254
0.000196305
-0.00166961
0.00107597
0.000593641
-0.0012368
-0.00144957
-0.000872916
0.00232245
0.0065423
-0.00125734
-0.000138871
0.00218045
0.00281199
-0.00155936
-0.00125269
0.00263181
0.00370578
0.000804358
0.00134334
0.00150667
0.000256729
-0.00176341
0.00464911
0.00202512
-0.00668977
0.00102817
0.00245699
0.00837788
-0.00313709
-0.0032044
0.00783555
-0.0017458
0.00124964
0.00852527
-0.000661651
-0.00797793
-0.00481781
0.00262395
-0.00145923
0.00172118
-0.00716427
0.00621132
0.000936938
0.00192623
-0.000889963
-0.00658008
0.00179945
0.00477428
-0.00370549
0.0017429
0.00196201
0.00214462
-0.00154466
-0.000599967
-0.0053648
-0.00132513
-0.00165368
-0.000662586
-0.0033396
0.00399819
-0.00236505
-0.00323139
-0.0013656
-0.000761397
0.00695985
-0.00257858
0.00324575
-0.0006673
-0.00193293
0.00132224
0.000527204
0.00864113
-0.00181449
-0.00687011
-0.00168359
0.000805445
0.000878142
0.00615043
-0.00374139
-0.000681701
0.00165221
-0.00097051
0.000708373
0.000899526
-0.0016079
-0.000843059
-0.000840528
-0.00540146
0.00331539
0.00208415
-0.00811877
0.00651231
0.00158108
-0.00735146
-0.00208764
-0.00145043
-0.000332459
0.00178316
0.00241071
-0.00201573
0.00806646
-0.0060927
-0.000940474
-0.00370319
0.00573719
-0.00573059
0.00213192
0.00359629
-0.00438432
0.00175398
0.00484953
0.00168485
0.00258447
0.00791344
0.00650028
-0.00389285
-0.00261603
-0.00279866
-0.00397053
0.00676238
0.00484355
-0.0050229
-0.00517325
-0.000922538
0.00153941
-0.00195976
0.000420336
0.00279231
-0.00160919
-0.00118321
-0.0058649
0.00366488
0.00219479
-0.00270636
0.00422476
-0.00151972
-0.000952394
0.00245904
-0.00355659
0.00178604
-0.00170812
-0.00299208
0.00723427
-0.00205015
0.00520107
-0.00315385
-0.00565862
-0.00204685
0.00880246
-0.00213881
-0.00671793
-0.00368003
-0.00102445
0.00470283
-0.00700152
-0.000347223
0.00885916
-0.000467896
0.00273381
0.00149219
-0.00727606
-0.000680112
-0.000356496
0.00288958
-0.00130235
0.00658999
-0.000816871
0.00156421
-0.000747339
-0.00154655
-0.00108006
0.00262655
-0.00285311
0.00114289
0.00171009
0.00183068
0.00124744
-0.00857339
0.00126105
0.00726309
-0.00182192
0.00148031
0.00154089
-0.0030214
-0.000131629
-0.00557955
0.00729166
-0.00470008
0.00206809
-0.000282058
0.00329751
0.00289366
-0.00619646
0.00298327
0.00244444
-0.0022339
0.000397194
-0.00183804
-0.000923757
-0.00310846
0.00403157
-0.00804127
0.0070087
0.000992336
0.000990986
0.00285002
-0.000405635
-0.00204565
-0.00418464
0.00351784
0.00686163
-0.0071729
-0.00741811
-0.00118793
0.0085175
0.00322575
-0.00210412
0.00482564
0.00252109
-0.00737155
-0.00150934
0.000416756
-0.0029707
-0.00407505
0.00407745
0.0027637
-0.00208795
-0.0020249
0.00283595
-0.000811156
0.00244624
0.00687664
0.00215775
-0.000618345
0.00107508
-0.00164834
-0.00205773
0.00323321
-0.0029279
-0.00431348
-0.00208392
0.0012645
-0.00199462
-0.00747731
0.00148429
0.00584863
-0.000924433
-0.00075229
0.0028091
0.00330328
-0.00262549
-0.00469251
0.00725077
-0.00174148
0.00860332
-0.00693869
0.00272099
0.00276643
0.00223752
0.00269614
-0.00493631
0.00127156
0.000616246
0.00211242
-0.000614726
-0.00529529
0.003324
0.00196877
-0.00099059
0.00180408
-0.000813489
-0.0047567
0.000622562
0.00413037
-0.00717508
0.00694542
0.000201813
-0.00163807
0.00277801
-0.00113998
0.0075416
-0.00773125
-0.00246478
0.00123711
0.00122762
0.00197373
-0.000399633
0.00375123
-0.00355179
-0.00574743
0.00461702
0.00112269
0.00826503
0.00202529
-0.000824065
-0.00120123
-0.000687802
0.00188595
-0.00172311
-0.00106003
0.00278303
0.00178589
-0.000849466
-0.000936428
0.00211365
-0.00081729
-0.00129638
0.00349778
-0.00554368
0.00856496
-0.00531607
0.00530614
-0.0066289
-0.00251819
-0.00847866
-0.00112736
0.00111375
-0.000542388
-0.00228981
-0.00253049
-0.00229012
0.00309184
-0.00235063
0.00271514
-0.000709947
-0.00538764
0.000666989
0.00471843
-0.00485018
-0.00184474
-0.00145506
0.00329955
0.00141474
-0.000850081
-0.00719661
0.00971295
-0.00453537
-0.00576737
-0.00179715
-0.00109906
0.00289616
0.00646442
-0.00340364
0.0019833
-0.00108552
-0.00693286
0.00303154
-0.00308946
-0.00909756
0.00638854
-0.00233909
-0.00576885
0.00803324
-0.00206844
0.00639791
-0.00218668
-0.000897949
0.00308448
0.00211723
-0.000977946
-0.00179573
-1.27268e-05
0.00454808
-0.00244742
-0.00644948
-0.000612558
0.00230761
-0.000596656