/*--------------------------------*- C++ -*----------------------------------*\
| =========                 |                                                 |
| \\      /  F ield         | OpenFOAM: The Open Source CFD Toolbox           |
|  \\    /   O peration     | Version:  v2012                                 |
|   \\  /    A nd           | Website:  www.openfoam.com                      |
|    \\/     M anipulation  |                                                 |
\*---------------------------------------------------------------------------*/
FoamFile
{
    version     2.0;
    format      ascii;
    class       volScalarField;
    location    "200";
    object      omega;
}
// * * * * * * * * * * * * * * * * * * * * * * * * * * * * * * * * * * * * * //

dimensions      [0 0 -1 0 0 0 0];


internalField   nonuniform List<scalar> 
13851
(
0.174014
0.0244811
0.0243501
4.49846
0.0220816
0.0265764
0.0240647
0.0218616
4.92654
0.0220466
0.0649257
0.0220779
0.0221442
6.6426
0.0415552
0.187208
7.14158
0.0219571
0.952559
0.173162
0.0474132
0.0261718
21.7278
0.0222638
7.46115
0.084995
0.463138
5.14146
4.55026
0.0217853
4.45426
0.0240816
0.174867
4.85339
0.0452114
4.31985
0.022274
8.0637
4.23654
0.0221345
4.67143
4.43787
16.8725
0.525845
4.51794
0.0219147
0.0215844
0.180653
0.0235291
0.0221358
9.09597
0.0221903
0.187119
0.0326808
6.33556
0.0221342
0.176209
4.66422
0.363909
7.99242
0.0220854
0.324324
0.0220965
0.02366
0.204764
0.214827
11.6085
0.0691842
0.0221645
4.42429
4.1201
0.0582199
0.0220575
9.50444
0.0353446
0.023785
5.90874
0.0216827
7.30424
0.0219647
0.0221791
0.34751
0.0442897
6.52739
7.56483
4.26161
0.026393
7.34078
0.0220382
4.52514
0.0222259
0.0242239
22.9663
4.15121
4.46128
0.320505
0.0219486
0.192301
9.28158
0.160259
0.198391
0.0421852
0.0468289
0.0221107
0.0219002
0.0544467
0.0219017
4.13884
0.0242251
0.0219322
0.0309653
0.0219134
0.172332
0.0663032
0.174508
0.0314683
0.0217903
0.0218194
4.56267
4.88561
0.203801
0.0218338
0.022157
4.91634
0.32409
0.12169
0.021946
0.0559875
4.74753
0.054947
0.0261173
0.0323249
4.23839
4.85405
0.0665082
4.39753
0.0642744
4.1756
0.0360101
0.0547766
0.32359
0.0226967
0.0220381
0.106161
6.59203
0.0235426
0.0216753
4.18864
4.84001
0.0582787
0.197715
0.163033
0.0703833
0.312521
0.0223104
0.022063
0.0221004
4.24223
0.0497943
0.0235968
0.0222429
4.47141
0.0532743
0.18101
6.64085
4.8461
4.8587
7.65231
0.0304944
5.00738
0.0221005
0.0217939
0.0655852
0.0221389
4.39252
1.65678
0.21244
0.0217809
0.0352211
0.208916
0.322063
0.488923
0.0296973
0.0545284
18.5518
4.83529
0.175284
0.0294501
0.0222445
0.0218423
6.63776
0.0496716
10.4249
0.0266846
0.0233986
0.189467
0.169896
0.0221319
0.0222165
0.072743
0.318001
4.52216
4.61441
0.0417104
2.47708
4.61631
0.0237235
0.0542736
4.91566
0.0258291
0.186068
0.022137
0.335241
0.0222341
0.0462785
0.0245034
0.022115
0.270319
0.0222126
3.86383
0.0217786
0.172077
8.94431
4.39323
0.0291194
0.0552311
0.0222637
0.0917204
0.0220152
0.0454983
8.49393
0.029138
0.0258246
0.0221186
4.6321
0.0217796
13.8984
4.59911
0.141589
0.0222512
0.803605
7.1466
4.37899
0.185324
0.0357773
0.139976
0.274733
0.0352785
0.298546
0.032798
6.67545
0.165086
0.0218507
0.0266281
0.193385
4.45996
5.15658
0.021838
0.129874
0.022036
0.270696
0.314462
0.0271157
0.054502
0.167452
0.0220104
0.0444046
0.152536
4.95258
0.0220811
0.0221069
0.0292734
4.94491
5.92752
0.0537062
0.0218508
0.315199
0.312582
0.155606
0.0537552
4.9577
9.85431
0.0275858
0.0370283
7.2306
0.0218889
0.0220999
0.159817
0.0567783
0.0217762
0.0222314
0.0220081
0.0219982
0.0358323
0.0220931
4.93534
0.0500654
0.0220194
4.47665
5.01557
0.0222265
0.174611
9.67591
0.022809
0.022247
0.0522915
7.58308
6.12359
0.0743036
0.022072
5.03734
0.0220928
0.0802866
7.85082
4.86759
0.0234656
5.65332
1.32735
4.14807
0.158111
0.0458917
4.31404
4.77741
5.18078
0.0222886
5.08012
24.9563
0.762636
0.704542
0.0237507
0.0719505
0.0296733
6.67378
0.0491824
0.0218756
0.0215221
0.0277752
4.10881
3.23023
0.0218804
4.46331
0.0298358
0.0326381
0.0237219
9.54382
0.314641
0.189971
0.0242467
0.0252637
3.7527
0.0222589
0.351026
0.0274726
0.0521848
0.0304344
0.0220359
0.0220147
0.149133
0.174571
0.167797
2.02732
3.73882
0.0236151
4.6161
0.260234
0.0217212
4.84641
0.114268
7.81704
0.0272405
0.0905879
0.333449
7.06534
0.139988
5.95256
0.0227011
2.38094
12.8372
0.0319392
5.62359
0.0350535
4.57307
0.0362885
0.0454838
0.160999
0.233177
0.0220648
0.027003
0.060687
0.0354677
0.0219383
0.0544705
4.88776
0.0220542
0.0545641
5.18807
0.0242786
2.68791
0.0520676
6.48537
0.0264165
0.0796663
1.87597
0.386263
0.0530245
5.73551
9.35074
0.746754
0.0220166
0.141367
0.0350482
0.0899738
0.0218502
17.6565
4.87941
7.69224
0.0252175
0.165827
0.432881
5.55829
0.021598
6.38358
0.266069
23.4983
0.0337799
5.64094
0.0220581
0.0221264
7.66029
0.561694
0.0220452
0.0245306
0.0556766
0.0218259
4.90555
0.0730269
0.111061
0.02628
0.0227179
0.0222051
6.10569
0.0220161
0.0221806
2.05665
4.8905
0.0256855
0.3146
0.0221036
0.022092
0.0246506
0.168656
0.0511284
0.0219508
0.0229587
0.190602
0.0234763
7.51187
0.0220735
0.0283219
4.50924
0.0354589
0.0215872
0.0221179
0.0262189
0.0222658
0.750856
2.58942
0.0361865
9.63047
0.0247119
0.0220549
4.8229
0.334898
0.035212
0.0220793
4.80065
0.0346224
4.2795
0.0221114
0.0327088
0.143747
0.0382143
4.74583
0.449881
7.47476
0.0238647
0.166627
0.0220104
4.5683
0.0520136
0.170833
0.0348773
0.0240384
0.0354021
0.0669431
0.0220937
5.89082
4.80093
7.95254
5.56382
2.5652
5.19859
0.358864
0.0281285
0.022206
4.40419
0.022048
0.0219369
0.0301526
4.39095
0.0242562
0.0226931
0.083914
0.0510542
0.0220497
6.31565
0.021952
4.79962
0.69547
0.0219623
0.0235328
0.27987
4.92885
0.021783
9.63949
9.39481
0.0216773
4.13517
0.656858
0.169473
0.023838
2.09646
8.0113
0.0216925
0.40101
0.0221576
0.0219531
0.577936
4.5711
0.0415629
0.0501246
0.0220486
0.0706684
4.77352
4.27905
0.0217941
6.13481
0.0219475
0.0221715
0.0536291
0.0281476
0.0215912
0.023799
4.15118
0.219835
4.12246
0.0238658
0.022033
4.93328
0.0221772
0.144106
0.0284039
0.0355372
0.0354588
4.06428
8.14863
0.0265046
6.36889
0.0232485
0.0702881
4.41538
5.28932
0.0221581
0.022015
0.0481051
4.13596
0.289406
0.0693692
9.27082
0.0282811
0.0350646
11.471
6.36545
0.143824
4.79266
0.253757
3.86905
0.0224945
0.360602
5.7136
0.0220753
17.77
4.75997
0.0304752
0.0547349
0.0221138
7.0185
0.0732998
15.9113
0.0220175
0.0221656
0.0266003
0.0500782
0.0220829
4.43969
0.0221599
0.245697
0.0239182
0.0915949
0.0221063
0.0220498
0.0456954
6.41779
0.0523675
4.45843
0.0327373
0.021836
0.0217777
0.066191
0.0229539
0.102604
0.0247605
0.0345779
0.357098
0.0221792
5.95483
0.0222533
0.127687
5.56381
4.75757
0.0290427
15.2039
0.0818351
0.230178
4.66998
0.0218603
6.01079
0.0298734
0.0331682
5.39766
6.20849
0.0217319
0.0996439
0.0221054
4.06673
7.93684
0.0222471
0.0737308
4.90124
0.0222631
0.0222516
0.0865367
7.19503
1.47848
0.0222522
0.158646
0.0232474
0.0220491
0.35585
0.162401
0.150056
0.0215815
0.153496
0.0455914
0.0733588
0.022695
0.0232416
0.069227
0.0264396
0.166068
0.0582597
0.057829
0.119992
2.33371
0.668543
4.59563
9.35746
0.188034
5.32477
0.0393873
0.662446
0.174775
0.0219236
0.0341671
0.351378
0.0270184
0.0219657
0.0219606
0.128223
6.39503
0.0285655
4.61654
0.0218398
1.96126
0.135841
10.1382
0.098571
0.0265768
0.0243429
8.60368
0.149521
0.0378505
0.52359
0.0225639
3.38671
0.128803
0.251343
0.0339195
0.445448
0.022056
0.0222449
0.0234436
0.0220487
4.52352
0.0219983
0.346247
4.94705
0.100539
4.28143
8.40615
0.271504
0.245868
0.0286155
0.022181
0.0220919
0.0216922
0.0217783
0.0221409
0.071668
0.167332
0.0492404
5.1093
0.0231506
4.91019
0.0222934
4.63208
0.0417134
0.0222835
0.0221336
4.81538
0.0267545
3.64987
4.75693
0.051996
0.0809727
0.0216575
4.84834
0.0244127
0.0242903
0.356422
0.022184
0.0226961
0.021859
0.0522464
6.28812
0.0299593
0.0345087
0.289143
4.32316
0.0291783
0.0268371
4.16451
0.0216893
4.18324
0.022202
0.023487
7.13295
0.105109
0.17334
0.0883199
0.0529311
0.0222269
0.0222936
0.0750974
0.0225483
0.0222345
0.0291248
0.271392
0.0219825
0.214439
2.06352
2.8782
0.0871393
5.51111
0.036829
0.0221765
0.136586
0.0218519
0.0270697
4.52169
3.60587
6.08726
3.97331
0.0223221
0.0222226
0.0671557
0.0230872
0.0218587
21.0507
0.273461
5.44365
0.129266
0.107379
0.0220519
0.0217913
2.54109
0.111137
0.0238379
0.022253
0.17372
0.185289
4.59974
0.0222962
0.0221507
7.36646
0.022669
0.0352669
0.0218301
4.39481
0.0219086
5.09385
0.0220743
0.128037
0.0437059
0.0673214
0.0343393
0.0220571
0.0245546
0.0220207
0.336943
0.0226964
4.56929
0.0226352
4.53046
4.86505
0.0321101
0.0220018
4.67457
3.01258
0.0270708
0.104776
0.0220867
6.71668
0.021943
0.366216
0.0220632
0.0220174
3.47377
0.0357538
0.022108
0.0331487
4.67819
4.70346
4.87167
0.0218414
5.08714
0.022074
0.0219898
0.022308
0.0214848
0.0222324
4.78794
4.64647
0.0222223
0.022156
0.0422208
0.0219137
4.74211
0.139862
6.0045
4.28763
0.0245008
0.166755
0.0220684
0.0472841
0.110296
0.021839
0.0222102
0.983494
7.84163
0.0799515
14.968
0.0758731
0.0221006
0.0436194
0.107005
7.65726
0.0341985
1.3842
0.113451
0.022223
15.1843
14.3134
5.22247
6.68953
0.512828
0.0238115
0.136137
0.0221773
4.27288
0.0265181
0.0218776
4.81821
0.0230489
0.0220032
0.0221552
0.0229029
4.43192
0.34625
0.0218823
0.0445576
7.34887
0.0232048
13.885
0.0232869
0.0995825
4.54132
0.0220957
0.308503
0.0296945
0.0335963
5.48266
0.0230275
0.326489
0.0785675
4.68443
0.0221539
5.10113
0.0315248
5.36801
8.37444
6.21903
0.0520877
0.0220698
0.0223281
0.022263
0.0427559
0.0221232
4.73794
0.0288983
0.0279395
0.0289256
0.0237458
0.0218387
0.0268026
0.0275274
0.0235385
0.0270754
4.51592
0.330483
0.030816
0.0492815
4.84688
0.022746
4.1111
0.0217026
0.0327961
0.0227032
0.0219651
0.044044
0.0220499
0.0218773
0.0465816
0.0220679
0.255481
0.0227816
18.359
5.0232
0.276069
0.309674
0.0220721
4.31661
0.194854
0.0222254
0.0274275
0.0226072
4.17905
0.0232598
0.044559
4.81664
5.75226
0.077524
0.0221545
4.22789
4.75789
0.560055
0.0295446
0.021827
0.0217742
0.0745219
0.0220639
9.55337
0.151447
0.0221963
0.267331
0.264755
0.0218472
4.57656
5.57812
0.266809
0.0227431
4.08044
0.0713252
0.0220199
6.40813
0.0266281
0.0218388
0.0219622
0.0335778
0.0434518
4.942
4.95976
0.0462534
4.90485
0.0360942
0.022036
0.0828951
0.0219658
1.57097
0.0218151
0.0220451
0.0240393
0.0225055
4.94403
6.08525
0.293701
8.33581
5.72586
0.0290426
0.0220643
0.0227867
0.364273
0.0217936
0.0219379
0.0434996
7.25669
0.303348
0.0216546
0.0388566
0.0347168
0.166784
13.8654
0.0216694
0.0215774
0.0234075
7.08413
0.029115
4.74742
0.0232312
0.0221622
0.0218407
0.0219574
0.0244748
0.265644
3.66539
4.87135
0.0289053
0.0220553
2.55453
0.0222653
5.6492
6.2784
0.0303589
5.49969
4.54837
4.80378
0.0644163
0.033954
4.89727
0.0319859
0.0334253
0.0683978
0.235146
0.0225094
4.5464
0.0220386
4.33853
7.40069
0.0217068
0.0239314
0.0448751
0.319339
0.0358313
0.0221419
0.0286868
0.0232709
0.0259313
1.01499
0.0221618
3.37383
6.29112
0.0220443
0.032637
0.0433058
0.022081
3.59229
16.4812
4.31273
4.487
0.0220387
0.0246364
0.026633
0.0223253
0.295756
0.0362658
0.0222565
0.0761638
0.0258577
4.57075
0.0440301
9.03676
0.0231593
0.0232292
0.0493729
0.108439
0.0802591
0.0220105
18.7275
5.20471
23.7707
4.80597
4.43695
4.90404
5.59774
0.0220109
0.0220331
0.0219883
0.287368
0.0506544
0.079069
6.27076
0.0221017
0.0216708
0.0220478
0.254079
0.0216641
0.0271134
0.0237063
2.67782
0.0230017
0.0218597
0.0220851
0.0220117
0.0221627
0.0340967
0.290809
0.0335599
4.91608
0.0220377
0.0219586
4.77141
4.88815
7.08537
1.92638
0.0474871
1.41608
0.0218222
0.0585135
0.0232326
0.0220793
0.024079
4.72855
0.0229972
0.110836
2.39247
0.0221932
0.0219534
0.0263848
0.26725
0.0222718
2.66413
0.0219701
0.264815
0.0221265
0.0222227
0.0271838
0.0929678
0.0221581
0.596859
4.13904
0.234756
4.87987
0.0220577
6.54133
3.98039
0.0220505
7.28491
0.0223134
0.0423663
0.0222449
0.0219998
0.0219611
0.0220483
0.0224579
0.0272406
0.0800444
0.0222155
0.0220976
0.0620209
0.0217057
7.32347
0.0221273
0.0332957
0.0356614
6.58239
5.20525
0.0221458
0.269486
0.0218245
0.0311665
0.0656255
1.44125
0.0550466
0.0222722
0.1483
0.0740792
0.10576
5.00336
0.035245
0.148423
0.0694608
0.0820113
0.0229649
0.021849
3.1311
4.92174
0.0246224
0.0220162
13.4944
0.0218432
0.0460918
0.0219674
0.0763686
6.41367
0.0215191
5.49221
0.0264344
0.0221699
0.208701
0.0218778
0.0403958
4.44132
0.0425384
3.17596
0.0219561
0.0222646
0.0429565
0.0222251
0.0222468
0.0284667
0.0304862
0.0801217
0.0795059
0.0221373
0.0387806
0.0218386
0.0220618
0.022214
0.0220527
1.03294
0.0218542
0.0233212
0.311953
0.0218386
0.0220049
4.95776
0.0222498
18.342
0.0231656
4.83939
0.283875
0.0510407
2.23729
0.064605
1.72231
0.0223678
0.197568
0.0270584
0.0218356
0.0219202
0.0233027
0.0323515
0.0220014
0.0524535
0.0219099
0.0232119
14.1044
8.97963
3.2867
0.0240254
0.0472244
6.53213
6.58809
0.0221712
0.0267361
1.65462
0.0221532
0.0409541
1.66528
4.82818
0.0276157
0.0483934
0.0228116
0.280384
0.022285
0.0352878
5.48209
0.0222186
0.0218789
7.54486
0.0448811
0.300178
4.88103
0.129534
0.0224753
0.0219135
0.0222559
4.86978
5.65354
4.91955
0.0560005
0.0220505
5.7476
0.0221094
0.161354
0.0267331
0.023165
0.0470478
0.0220578
4.66011
5.70046
0.0216204
0.077581
0.0521539
1.98386
0.0463203
0.0684617
0.299613
0.0357947
0.325229
0.072663
0.0221121
0.0381548
0.0817197
2.62231
0.0220349
0.998988
0.0486943
0.0727937
0.0222725
5.733
0.0264195
0.0236424
0.0218691
0.0391984
0.0380551
0.0542174
0.0221265
0.0227173
0.0550072
23.7437
0.0596064
0.0221567
0.0226743
0.0379763
0.263039
0.0221698
0.0820241
6.16779
0.0466018
4.64252
0.0427116
9.80265
0.32981
0.0220128
2.61003
0.0222385
0.0249305
0.0342985
0.0364326
0.104063
0.052711
0.0421109
0.0440149
0.0316793
0.0241358
0.0216571
0.0802639
0.0256483
0.0286623
5.10549
0.0261046
0.0301258
0.0219587
5.46788
0.0772521
0.0221345
0.0247636
0.0233008
7.70403
0.146147
0.0342654
4.40701
4.73284
0.723124
0.103581
0.312593
0.0219041
0.292926
0.0219281
0.0269494
7.25158
3.59152
0.436156
1.16648
0.0221219
9.22403
0.0219009
0.104719
0.0251652
0.70409
4.76232
0.0256399
0.0220221
0.366431
0.0422091
0.022024
4.35268
0.0220706
0.0237222
0.0256337
0.0222371
0.0311205
0.0233744
0.0220527
0.0344463
0.38474
0.0441413
0.059726
0.0220208
8.2371
3.35556
0.0220032
0.321389
0.0251116
0.0291079
4.83072
0.0219999
0.0227524
0.0278404
5.30415
0.0220323
0.0221822
0.0418971
0.505629
0.0219866
0.03185
0.0338426
5.0195
0.0471898
0.0412978
0.265421
0.0220757
0.116661
0.0217228
8.84693
0.0302532
0.0220508
0.0270523
0.0941619
0.0221498
0.0221266
0.170811
3.16968
0.0222505
8.09495
0.0221866
0.021712
0.071567
0.022034
0.0218517
4.97101
0.0222734
0.043737
0.205441
4.21415
4.91909
0.0217731
0.0240235
0.028044
0.022073
0.0220643
0.0220942
0.430273
0.0221939
0.318343
0.155968
0.021875
0.0217163
0.0306041
0.15531
0.318677
0.0540624
0.0613223
0.0238437
4.93783
0.0729483
0.0308829
0.044936
0.0622705
0.0963651
20.9518
0.0408584
4.57166
4.55242
6.09066
0.0247165
0.0219927
0.0386433
0.0341166
0.021803
0.0222519
0.120159
0.022243
0.0223146
0.022051
0.021583
0.0234055
0.0220224
6.10945
0.0220188
8.58874
0.0220805
0.081401
0.022546
0.157119
0.0737463
0.0220738
4.64752
0.024
0.0222247
0.0434762
0.0218276
0.0305725
0.021957
3.44205
0.0241774
0.04458
0.0999574
4.59914
0.0282902
0.31915
5.11687
0.0497547
0.0220698
0.0229224
0.101288
0.0686699
7.7698
0.0217803
5.21843
0.0221304
0.086306
7.82386
0.0362285
0.490286
0.0252144
0.0335874
0.0248
5.42361
0.0312926
0.0221418
0.0477076
0.153182
0.0233776
0.0220423
0.0221425
4.2385
0.0222517
0.0275819
4.8721
0.0259741
0.0220126
0.0547402
0.0249089
4.4995
0.0216705
0.0220336
0.0218728
0.0260502
0.0223546
0.0220919
0.0763069
4.84058
0.0219959
0.0221034
4.89254
0.0221137
5.16715
0.0233034
5.36599
0.021877
0.0243284
0.0218232
4.80901
4.89921
0.0301756
0.067953
0.0270149
0.0219811
0.0221175
3.40068
0.0221365
0.103968
0.0218162
0.046163
0.0221886
4.92234
0.0218492
0.0503493
0.0218691
0.41976
0.703925
0.0218094
0.0434897
5.0947
0.0818642
2.626
0.505411
0.204378
0.0234394
0.0352556
0.104828
5.00548
0.0220323
0.0408424
0.0280935
0.0220108
4.76765
6.77594
0.0809184
0.193149
0.342614
0.0333176
4.89224
0.0217948
0.0218047
0.0966525
6.30991
0.254737
0.15107
4.66331
0.0218238
5.74732
4.9307
8.8472
0.0222024
5.96555
5.07346
0.750889
3.59242
4.85754
0.107386
0.0307571
0.172293
0.0256508
0.022011
1.6356
0.113453
0.0216392
6.43734
0.022187
0.0292429
0.0468449
0.0266896
6.18762
0.0345951
5.42397
0.0493108
0.0261069
4.54135
4.45394
0.166574
0.022393
0.0258261
0.0775622
0.0565031
0.0218404
0.0495479
0.0600889
0.141335
0.0220109
0.213066
0.0243366
0.0480382
3.06125
0.329342
0.0230999
0.117441
4.68438
0.0222179
0.0228201
8.03371
0.292695
0.0243462
0.0247643
0.0220893
0.0700653
0.0254305
4.32775
0.102192
0.0225727
0.0222231
0.0665197
0.0295621
4.11076
7.67233
0.0218992
0.0220348
0.0277208
0.0221936
0.0242309
0.0229272
0.0227444
0.0257921
0.0219625
0.0248079
0.0222086
0.0534265
5.03329
0.022264
4.90945
9.92565
0.0217227
0.218393
0.117888
0.0794742
0.0227859
0.113937
0.027471
0.077059
0.0306336
0.0232405
0.0222092
7.50629
0.0277357
2.85368
0.0227743
0.0220437
0.0220231
0.0666458
0.0219873
0.054953
0.0729561
1.36914
0.0219297
3.4608
5.22408
5.06374
0.0218159
0.132199
0.925899
5.91257
5.97471
0.02257
0.0223072
0.140323
4.56116
2.14251
0.043962
0.318842
0.0222315
0.021851
0.0394638
0.0221945
0.0221389
0.153475
0.0222651
0.0879128
0.0218661
4.55178
4.90294
4.58119
2.98898
5.3132
0.0221521
0.0221433
5.07489
0.0217937
0.0218198
0.0217125
0.108622
4.82534
7.12899
0.0275231
0.0220179
0.0231553
0.0368493
7.10937
0.0220359
0.587317
4.54299
0.0221874
0.0221782
5.03665
0.0974171
0.023078
0.0220435
4.8845
5.44727
0.021984
0.273869
0.0222532
4.94537
2.38564
0.0231366
8.37226
5.84699
4.94629
0.0218518
0.022034
0.0222443
0.0222862
4.88908
0.0219394
0.20197
0.318762
9.34883
0.0226544
0.0565885
4.56106
0.0505141
5.09356
4.11445
0.0216403
0.0258096
0.0260064
0.179437
4.55514
0.0215699
6.0431
0.0319595
0.047717
0.0227985
0.0219475
0.278702
0.0403217
4.85775
0.0221945
0.0541334
0.0225653
0.158214
0.0242627
4.83466
4.48685
0.226257
0.120154
0.0220018
0.0238902
0.104904
0.204027
4.93061
4.95462
0.0221489
1.06927
0.0905096
4.29111
0.0262532
0.0440423
0.0407952
0.0220907
4.93486
0.0220685
0.0340332
4.40399
4.58699
0.983902
4.76951
0.0282549
0.0538623
0.0217537
4.53967
0.0271925
6.30377
0.0217397
4.57199
0.0215271
0.0220051
0.033473
0.0312523
0.0322933
0.0220168
4.90831
0.0487819
0.0219436
0.0375983
4.9397
0.492526
0.0220503
4.19025
0.0243724
0.0361987
0.0333728
0.0217025
0.0629911
0.0219994
7.27804
0.0759163
0.0267452
0.0220346
0.308063
0.0416861
0.0217386
4.77825
5.77728
0.295941
0.0216062
4.92246
0.0221399
0.127866
0.0279955
0.107018
6.38489
4.97587
0.034333
4.79847
0.0482714
0.0283755
0.0218427
4.8216
0.103221
0.104059
0.0609442
0.0222434
0.620296
0.0836785
0.328573
0.305218
4.71747
4.88016
3.00195
5.33753
0.0287519
0.0314888
0.0220946
0.0220785
0.0215917
0.225801
0.0289749
0.0330475
4.19213
0.0219603
0.0218645
0.0455095
0.15596
0.0283825
0.0218258
4.4889
0.0242681
0.0525234
0.0222641
5.31704
0.0286678
4.81393
0.0544936
0.0353851
0.0509837
0.0220878
6.96775
4.08067
0.0692156
0.0220912
0.0219105
7.81513
4.23308
4.37179
0.0218551
0.0703968
4.5076
0.0220432
0.0220074
0.0221211
4.82888
0.0976723
0.0343352
0.0269997
0.0262459
4.43551
0.0825665
0.29736
0.0261897
0.0338419
0.0215736
0.112023
0.0537964
0.0220303
2.91139
4.12214
4.67838
2.82125
4.64967
7.15762
4.96139
0.0231612
0.0218142
4.9901
6.18821
6.41313
0.0221183
0.0430846
0.0220506
0.0219917
0.441129
4.58036
0.0737263
0.0220069
1.13803
0.110073
0.051756
5.4849
5.25623
0.335635
0.0219155
4.81838
0.417665
0.29675
0.0335154
0.0453324
0.0221913
0.021889
0.0397695
0.0470621
0.0244192
0.04447
0.0284326
0.0250095
0.273709
5.11827
0.0313652
0.0470221
5.13451
0.257346
0.0221122
0.439162
0.786631
5.45104
0.0416516
0.0221395
0.0303012
0.0268438
0.0299821
0.021701
0.0330805
0.0325462
0.0514486
0.199697
0.0222305
0.0230336
4.93551
3.95025
4.43439
4.35451
0.14594
0.0215113
0.0220477
0.0310411
0.0217475
4.90467
0.0220443
0.0222731
0.0217378
2.98291
15.0727
0.0224745
0.0739811
0.0281628
0.0350256
0.0304892
0.0351372
0.0436949
0.0375299
4.3867
0.0264726
5.95137
0.0390227
4.40129
0.0295723
0.021935
0.0218368
0.114697
0.169864
0.0218339
0.03865
0.0298391
0.0579425
2.52222
8.00493
4.34662
0.0222729
5.90718
0.0296018
0.0361872
0.0220348
0.068076
0.0237274
4.4716
1.6905
0.0391327
0.0220783
3.79082
0.0273049
5.45792
6.44634
0.274072
0.0242647
0.138885
4.33691
5.68801
4.81663
0.0600682
0.0219655
0.0395092
0.0218448
8.28705
0.0246249
0.0319096
1.08521
4.32089
0.0219326
0.0219954
4.22697
0.042235
7.38072
0.0328743
0.0220437
0.0439463
0.274361
0.0429082
1.35646
0.0356272
5.45882
0.0251538
0.0222441
0.0219788
0.245429
0.0227143
0.113802
0.0220567
0.0220322
0.21637
0.0262991
0.0220986
0.0220373
0.0350549
5.2326
0.0472852
0.0402653
0.0263803
0.0619349
0.0220833
0.134368
0.031179
0.0459461
0.0677775
0.0276932
0.0794957
0.0444037
0.0218263
0.0803431
7.29485
4.36346
0.0220946
1.38469
5.33288
0.0219977
0.0227018
0.68517
5.39238
0.0278332
5.12068
0.400891
0.0219776
0.105852
0.0215906
0.026249
0.0635188
8.29564
0.439973
0.28289
4.0988
2.57394
4.81079
0.023164
4.87632
0.0220417
0.406224
4.92541
0.0220983
0.0220825
4.54969
0.0221335
0.0220847
1.73771
4.68163
0.276504
0.0262724
5.19694
0.0221031
3.76842
4.98953
0.0221897
2.15511
4.69111
5.47858
4.80491
4.91346
4.71459
0.0218935
0.0232388
0.0652068
0.0751454
0.0220795
0.250881
0.0220438
4.88665
0.590962
0.0484431
0.296201
4.89905
0.403345
0.289812
0.060489
7.06144
0.370845
0.0253088
0.0216395
0.457519
0.0343382
0.0217897
5.42183
0.0220031
0.643034
0.0221609
4.70238
0.0254639
0.0220006
14.8919
0.0274878
0.0351628
4.64492
5.33387
1.41147
0.0279809
0.0495074
0.0233732
0.042875
0.151647
0.0441695
0.0222098
1.32818
0.0678307
0.032737
5.0104
0.0432285
0.0364954
0.172071
0.0784354
0.0501759
0.0219973
0.19179
0.0218363
0.153935
0.347583
5.63177
0.0218802
0.0397378
4.33286
0.023186
0.0642658
0.0319224
0.0429468
4.89924
0.0686073
0.0234645
11.9613
0.0218896
3.60582
0.0221233
0.0229651
0.155445
4.20631
0.0322837
0.362195
0.47263
0.032517
0.0222043
0.147901
0.0462664
4.20686
0.0265691
7.26282
0.171713
0.0322382
0.0300564
0.0937432
0.0374635
0.0715674
0.0688977
0.037563
0.0243347
0.0220195
1.25814
0.0220419
0.0290319
0.0216104
0.140433
0.0295588
0.0692568
5.04445
0.0230399
0.269787
0.0215076
0.0221815
0.0221874
0.0222066
0.0264684
0.0219514
0.108193
9.87571
0.0693967
0.0492609
0.0250108
0.0220648
0.322527
0.0220723
4.26087
4.72975
4.4692
0.191627
0.0347391
0.0273601
0.0221761
0.0296569
0.093775
0.0425304
5.1491
0.069271
4.4374
0.19337
0.0222098
0.0218495
4.42688
0.0219864
0.0307532
0.0646162
0.355496
0.023188
4.82679
0.022174
0.0257676
0.0220518
0.0226931
0.152865
0.137519
0.0222402
0.0337463
0.0349323
0.0509352
0.0682132
0.415199
0.297463
0.232992
0.173863
0.0256512
0.022981
0.0672373
3.93156
5.00109
4.25057
0.0332567
5.45119
0.134943
0.0227484
0.0219993
0.0742319
0.0221421
0.0334134
4.97591
0.0219872
0.0218218
0.493481
0.428276
0.0529404
0.883037
0.0221401
6.55849
0.0422082
4.40803
0.0293026
0.022083
3.92297
0.058152
0.0220537
0.0681338
0.0222524
0.135719
0.0291626
0.0528305
5.4288
0.0333166
4.86601
0.0219474
4.72011
0.0221619
0.0262973
0.0225132
0.0464381
0.0221429
0.053889
3.81564
0.828244
0.0524378
0.0318366
0.0741494
0.021929
0.0219526
0.0229849
3.61307
0.0254763
4.66528
5.89295
0.12231
0.0222144
0.128369
0.193375
0.160856
0.025474
6.10975
0.0220113
0.0215194
0.0219916
6.49718
0.0220854
0.0220457
4.09911
0.0219942
0.154865
0.0948678
0.0217732
4.96422
0.0279288
4.68431
0.0219497
4.66127
0.0228404
0.0700541
11.2431
0.0742594
0.0219678
0.02733
4.42677
0.0331891
0.132461
0.0321808
0.026363
0.123089
0.028895
0.0221113
20.2454
0.029624
0.0283249
0.186719
0.0219994
0.0218852
0.0221887
0.0312122
0.0221695
0.0258249
4.89985
13.4014
0.0987615
6.41039
0.0735721
0.0354826
4.29958
4.31254
0.0224891
8.43801
8.49025
4.97437
1.92796
0.0314124
4.42552
4.48674
18.2164
2.27878
4.85336
0.0419905
0.0793498
0.029319
0.0259327
0.0221215
0.973772
0.022285
4.56635
0.115457
0.280064
0.0215989
0.0893365
0.0447496
0.0236047
0.0222931
0.0221182
0.114984
0.0234894
0.0221999
0.0442713
4.18963
0.0243004
0.133973
0.0218387
0.11888
0.0791343
0.0222036
0.0266009
0.0219532
4.72061
4.90469
0.194134
3.69338
0.0328475
0.099794
0.022132
0.0458532
0.0220428
0.022328
0.0222326
4.59531
0.0217961
0.0506081
0.561206
0.0277281
0.0322694
0.0220101
4.23949
0.183109
16.0376
5.71439
0.158875
0.437438
5.18241
0.399421
0.340722
7.41779
0.115957
0.0336869
4.98314
4.45721
0.0220474
5.62144
0.130021
4.89244
0.0216187
0.0736064
4.2692
0.0222729
4.40722
0.0253928
7.94082
0.022091
0.0221077
0.0657594
0.198913
0.0267468
0.064471
0.0218088
0.0221372
4.74356
4.92997
7.95122
0.0630907
0.0220876
0.0224768
0.0221337
0.0355137
0.935891
4.88118
4.46519
5.83981
0.0323065
0.0219528
0.0219822
7.60149
7.8457
0.274563
0.0263875
0.0247063
0.0790072
5.07667
6.96026
0.0215087
0.0219743
5.59423
0.0230451
0.21637
0.0278416
0.0221167
0.0320772
0.0454308
6.0131
5.20525
0.0222019
0.0218212
0.0248159
0.320666
4.29351
0.0222647
0.118172
5.33006
0.0215195
0.429683
3.90881
14.34
0.0221103
6.31107
5.69663
0.0381005
0.270342
0.0244002
0.28565
0.413077
0.0258065
0.0219674
8.21749
5.99568
0.021905
0.173178
0.134379
0.0309561
0.319706
5.35891
4.88006
4.38421
0.0285614
0.0236129
0.0230781
4.72693
6.08123
5.81511
5.33035
5.88906
0.0217366
0.0502392
0.0220664
0.0221139
0.0248126
0.0219735
0.0220599
0.0221823
4.46796
9.11038
6.96819
0.0542689
0.208117
0.0360262
0.0218796
0.021986
5.71195
0.0221369
6.31201
4.2752
0.0221784
0.0219145
4.84202
0.022578
0.430913
0.0259736
0.021764
0.0217315
5.62306
0.0216924
4.19746
5.37374
0.0215697
0.0497021
0.021938
0.02294
0.0218634
0.100195
3.74407
0.0219756
4.69695
0.38743
0.0240136
0.0219044
0.0227068
0.0236025
0.0222255
0.411928
6.65709
5.09847
0.0446021
7.80358
0.0222723
0.0262111
0.0220853
0.146034
0.0234137
4.57525
0.0218672
4.67833
2.55161
5.42244
0.2053
0.0218628
0.043412
0.0219439
5.30667
0.0219944
0.0283148
0.0264748
0.0258339
0.0221713
0.0222508
0.0320917
4.73924
0.0222127
0.0228499
0.0240679
0.0330884
0.232167
0.0221867
5.46023
3.63517
0.0239337
4.90424
4.36608
0.561431
5.01907
0.0215366
0.0230861
1.96061
4.79149
0.126409
3.39074
4.54517
0.0322464
0.0518229
0.0323377
4.80327
0.0220383
0.0219649
4.92639
0.149084
4.96254
0.0250115
0.0217348
0.0220465
4.56344
0.0875864
0.0238349
0.187627
0.0218482
0.0759438
0.0313051
0.0317138
0.0219261
0.0221873
0.0219312
0.0249287
1.06054
3.77468
0.0215795
0.0219335
4.4303
0.0221091
0.0603995
0.025952
0.0255734
0.0418887
0.0222856
5.01311
0.031084
0.0252313
17.4248
0.104465
0.0232697
0.0339347
0.0220469
0.0225187
8.05157
0.267309
4.71382
0.0222979
0.0221523
0.0582838
0.0271121
0.0220336
0.0433462
4.1145
0.0257713
0.0407639
0.0252855
0.155737
0.0221157
0.0217034
4.68224
4.88589
4.83855
0.0220024
0.19506
0.0215917
0.0220265
0.0859177
4.8698
0.0809821
0.0284449
0.192517
0.0228249
0.0311294
0.0512306
0.707196
0.0223213
0.0216495
0.0225999
0.0239841
0.0273634
0.0219737
0.935332
11.4003
0.0221193
0.0317112
0.0224398
0.0216489
4.85304
4.86788
6.55714
0.0983753
0.0224032
0.0686928
4.47137
0.0967211
0.130387
0.0333979
0.029539
5.3249
0.274999
0.531152
0.021775
0.030271
0.022127
0.0306988
5.4264
0.0216338
0.0394763
0.0254388
0.0296739
0.023092
0.02181
0.0218846
4.81973
0.0506663
0.0323024
0.0786925
0.0342829
6.27627
0.0308422
0.430198
0.021949
4.28523
6.27518
5.40485
0.0222645
0.0334195
0.0220835
0.0219985
6.11651
0.0500421
4.38614
0.0220057
0.0441819
0.181202
4.90517
0.0278753
0.0216456
5.10203
0.0222851
0.0222841
0.0226295
0.0220374
6.95401
0.0218446
0.0218976
0.035569
0.0271645
0.12451
0.112666
0.0329244
4.86607
0.0219286
0.145396
0.0217929
4.34149
0.0335485
0.384699
0.14375
1.94081
0.140999
4.18154
0.0231594
4.72792
0.0320553
4.51002
0.161177
0.0278088
0.179982
0.0222054
8.20532
0.0231934
0.0373186
0.0270434
4.18525
0.19426
4.10865
0.030736
0.0220352
4.85556
0.191434
0.0684507
0.138924
7.51081
4.23275
0.0381384
0.220977
0.0443151
0.0219027
0.0466817
0.206078
0.0645393
30.7026
0.10476
0.0218197
0.0219649
0.117899
0.022085
4.96141
0.0660012
0.022085
3.22905
6.11971
0.455411
0.095403
0.0220211
0.0288499
0.0257139
4.28517
3.83121
0.0257206
4.69726
0.021899
0.0313308
0.651845
0.0220141
0.0402526
0.0219405
0.026201
0.0222512
0.145263
4.70882
0.0299261
0.0290869
0.0217308
0.120314
0.0219156
0.0218445
0.032649
0.0219358
0.174371
4.24719
1.5221
4.72886
0.0218045
4.85543
0.0221884
0.0370161
0.113022
0.0220509
6.55204
0.0647809
0.022087
0.021635
0.0428098
0.0368252
0.154187
0.281996
0.0257936
0.0239103
4.82279
0.0753757
0.327046
0.568583
9.32927
2.29365
4.47946
0.750275
0.0221733
0.0221134
0.0453073
0.022268
0.0491777
0.0413955
5.81554
4.58153
8.49693
0.0216916
0.0217983
0.10337
1.65386
4.12964
0.784165
3.48114
0.0534174
0.0324396
0.761493
2.98513
0.0270319
4.30608
0.0328826
0.0314474
4.51149
0.0477952
0.0219514
4.43041
0.654235
0.0248426
0.119015
0.0234823
2.76481
4.83405
5.81372
0.0220263
0.0216953
0.166757
0.0220256
0.0219485
0.0220271
0.021745
0.0220306
0.0220358
4.26194
0.027745
0.0453322
4.19784
0.0219122
0.022043
0.0327756
0.0262002
0.0269831
0.0220499
0.0616838
0.0303833
0.0263834
0.0802685
5.42196
0.0220602
0.0463224
0.0220716
0.0220398
0.0215719
0.0220836
4.49975
0.0219238
0.0220458
0.0220966
0.042361
4.70946
4.25664
4.3142
1.1313
0.0488735
5.1652
4.79339
0.0219628
0.041403
5.02933
0.302412
0.0221108
0.0291425
0.050975
0.0373885
0.0220603
0.0462953
0.0565967
0.0434984
0.0216393
0.0515146
5.84319
0.0215793
1.41271
4.42467
0.0414106
0.628257
0.0351587
0.0220902
0.0260356
0.0220384
0.193773
4.21437
0.0216883
0.0424034
0.0219974
0.0219787
0.0222524
0.0222858
0.0366581
0.0221713
0.108823
0.124245
0.025787
0.0245444
0.0470519
0.0220499
0.0435731
0.0356023
0.0224051
0.0221015
0.0221399
4.47603
0.022043
0.297936
0.0483661
0.0222529
0.0220799
0.0217553
5.80642
0.0253328
0.0419553
0.0503958
4.26388
0.0280243
4.7109
1.85879
0.0420446
0.0219862
0.249823
0.0383289
6.42771
0.0653502
4.43524
0.0216286
0.0480213
0.0469647
4.70765
0.0220329
0.0510463
4.29595
0.0218807
6.69879
12.8295
3.55958
0.022003
0.0217951
4.67943
0.0220513
4.43115
0.174091
4.11659
5.6587
0.0218862