/*--------------------------------*- C++ -*----------------------------------*\
| =========                 |                                                 |
| \\      /  F ield         | OpenFOAM: The Open Source CFD Toolbox           |
|  \\    /   O peration     | Version:  v2012                                 |
|   \\  /    A nd           | Website:  www.openfoam.com                      |
|    \\/     M anipulation  |                                                 |
\*---------------------------------------------------------------------------*/
FoamFile
{
    version     2.0;
    format      ascii;
    class       volScalarField;
    location    "500";
    object      omega_0;
}
// * * * * * * * * * * * * * * * * * * * * * * * * * * * * * * * * * * * * * //

dimensions      [0 0 -1 0 0 0 0];


internalField   nonuniform List<scalar> 
13851
(
0.0232576
1.21235
0.0743888
0.0229545
0.0759713
0.15465
0.0216126
0.0444663
0.020637
0.085405
0.220901
1.90206
2.61651
2.86453
0.0214099
0.0322581
0.0244547
0.0274929
0.837617
0.0206344
0.0228034
0.0725227
0.0214313
0.0222276
0.0216237
0.0452396
0.0238504
10.3478
0.0230921
0.0238203
0.312293
0.0247389
0.0713295
0.336524
0.0222327
0.168595
0.533663
0.174494
0.0947372
0.355615
0.0212855
0.0197499
3.04174
0.242526
0.249583
5.47019
0.248714
0.57565
0.0240544
0.13029
0.0700753
0.128126
3.47338
0.0215707
0.0224859
0.0197536
0.0212697
2.02568
0.0236214
0.0216412
0.154719
3.55571
0.0476642
0.0885973
0.67189
0.0247265
1.63905
0.257736
0.0327124
0.0273319
7.35379
2.88825
1.25775
0.0216833
0.0210186
0.0208335
0.0696642
5.23626
0.0454112
6.72648
0.0218285
0.222838
0.0213457
6.50953
0.0496524
1.90393
0.0533431
1.90072
0.0249193
0.020787
0.169369
0.0325443
0.265959
0.0269677
0.0247144
0.0220546
0.0781553
2.75117
0.158069
0.0220668
3.25137
0.0485824
0.0221092
0.0236037
0.0211429
0.0524602
0.0537325
0.0196537
3.48867
0.20855
0.0223207
0.0208538
0.0297355
0.0227409
0.0223103
0.669822
2.81683
0.0196843
0.0228018
0.0229177
3.23658
0.0234889
2.66507
0.571016
0.549798
0.0216658
0.59261
0.0471247
0.0226309
0.128549
0.021268
0.0207066
5.96115
0.0213473
0.551572
0.0208943
0.0196958
2.78768
2.18307
2.45672
3.03061
0.0224432
0.022447
0.0200675
0.0229998
0.248693
0.0423745
0.128564
0.0215976
0.261703
0.0725526
0.0224778
3.00232
0.0213261
0.0227061
0.0229148
0.0209885
0.0228769
0.127716
0.0690441
0.0197756
0.0269355
2.03463
0.0206905
0.0270712
0.0199075
0.0418831
0.0331483
0.0225172
3.25896
6.44993
0.0203719
0.0210062
2.45264
0.0206834
0.524935
0.0455826
0.0224055
0.996067
0.0196669
0.0254493
3.05288
0.0213473
0.0775592
0.0197731
0.021606
0.0249196
0.0218318
0.0860876
0.0840823
0.252128
2.64282
0.0210626
0.0328017
3.29273
0.0225729
0.0222139
0.420528
0.02223
0.0208629
0.0217941
5.67883
0.0237987
0.0212435
0.0676221
0.0213581
2.94033
0.0245872
3.13273
0.0196886
3.47003
0.0220248
0.42389
0.0196232
0.0199918
0.185047
0.0480526
4.16068
0.0213444
3.08779
0.0247404
0.0218671
3.1416
0.12376
3.49454
0.0217109
0.0287747
0.0213364
1.97375
0.0196226
0.0438987
0.667149
0.0203655
0.0209858
0.0625283
0.0407909
3.02739
1.01925
0.0200494
0.0212547
0.232395
0.185001
0.0201696
0.0729537
0.0207933
3.29028
0.0497592
0.378781
0.0229977
0.0252891
0.0273883
0.162817
0.0218459
0.0230795
0.0500844
0.0983303
0.077914
2.8329
23.464
0.0214337
0.0200105
0.0265171
0.824849
0.0204255
2.23981
0.0225615
0.0218153
0.0265193
3.15493
0.0308218
0.0272088
0.0226991
0.894931
0.0429642
0.0313726
0.0207152
0.223524
0.0630768
3.7246
0.228246
0.0201882
0.0196502
0.021075
0.0479881
0.809942
0.476735
0.0207385
0.0214419
0.891699
0.22317
0.151964
0.0233469
0.0216479
0.0350444
0.2241
1.96762
0.0265406
1.90351
0.0207353
3.32831
0.0265923
0.024327
3.6906
0.0215876
0.0579868
3.16212
0.02072
0.0416936
0.0270851
0.0231629
2.22013
0.0267127
0.021794
3.01911
0.0197962
0.0255165
0.0226692
3.78516
0.116547
0.021344
0.0501693
0.0213776
9.91704
0.0300891
0.0214243
0.0212141
0.113753
0.0281392
0.0226327
0.0214452
0.0215673
0.0217569
0.236171
3.80589
3.01311
0.0300088
3.74644
2.57481
0.0213668
0.0334007
0.153403
0.0337088
0.053356
0.11248
0.948198
0.0248519
0.738341
3.23762
0.0214271
0.161243
0.155034
1.19977
0.0226242
0.0568451
1.95854
0.0210321
0.74159
0.0212012
0.02139
0.020619
0.0196523
0.0209367
3.31288
0.350362
0.0213501
0.0399871
0.019843
1.89462
0.0382443
0.558515
3.0129
0.0213615
0.0522606
0.0271864
0.562233
0.0212008
0.019701
0.0291793
3.35339
0.021402
2.2913
0.0337363
0.120119
4.49842
0.265507
0.275473
0.0250856
0.0207706
0.0220664
0.0289287
0.0496018
2.73764
0.0331535
3.56774
3.19962
0.0198552
0.0214411
3.23974
5.03544
0.463303
2.88716
0.0297971
0.0277496
0.0220614
2.57462
0.0204892
0.0315716
0.0245632
0.0215473
0.0212175
0.0206952
0.0198948
0.086056
0.049624
5.92524
0.0278257
0.0529976
0.0327871
0.130851
0.0261514
1.47908
0.0240949
0.211031
0.019683
0.0206774
0.0218793
0.484952
0.29752
0.12007
0.0318739
8.07566
0.342219
0.0464801
0.0232106
0.0639364
0.0211817
0.132197
0.0211172
2.00313
0.324913
0.06678
3.2401
0.0225041
0.143614
0.324893
4.04269
0.0196459
0.0290466
0.0466659
0.0327155
0.0204495
0.0217686
0.0680436
0.119766
0.0313935
1.53396
0.0217153
0.0212733
2.25088
0.0278035
0.0196334
1.84998
0.0207607
0.023228
0.0205315
0.0393964
0.0225508
0.0196684
0.0223394
3.03386
0.021357
0.0352302
0.0208183
0.027591
0.189764
0.0228857
0.0212465
0.0227703
0.0227608
0.285495
0.0217971
0.0743135
0.021347
0.0217785
2.99591
3.38643
0.021383
0.0282749
0.0263056
0.240544
5.46439
0.0212894
0.356027
0.0212244
0.0758462
0.021581
1.99531
0.0198025
3.94958
0.0784522
0.0197635
0.0283038
2.75068
0.0451201
0.267434
0.0226913
0.406058
0.0228885
0.020629
0.0207203
0.021558
4.02533
0.0628103
0.125754
0.64297
0.0459863
0.0198145
2.83064
0.291881
0.0255995
0.0271257
0.241159
0.509749
3.48257
0.0223919
2.02483
6.3717
5.18824
0.0273946
0.0288857
0.640654
0.120438
0.0895507
0.417163
2.11627
0.023037
2.15683
2.9517
0.0196948
0.068945
0.0644799
4.17506
0.0231621
0.0212275
0.020966
0.0212451
0.0843601
0.0374633
1.86898
1.5371
0.0207545
2.29194
3.14586
0.107783
0.300728
0.0346135
0.0196026
0.0206553
0.1901
2.86586
0.0227857
0.086839
0.165775
0.019741
0.0380656
0.550562
0.27929
0.111323
3.80149
2.98379
0.0212434
0.0215601
1.36646
3.15236
0.123588
0.033019
0.051931
0.0196658
0.0211037
2.06032
0.0197196
0.0230784
0.0196538
0.0207856
2.98524
0.0846719
0.0294463
0.0197092
2.56978
0.433577
0.0207637
0.0210061
0.0204748
0.0219757
3.17924
0.398828
0.412299
4.30271
0.375959
0.0313982
5.7307
3.29314
0.0253016
0.033142
0.0195963
0.0224226
0.0335694
3.02269
0.742845
0.0854652
0.0280409
0.0205967
0.0318458
0.0223313
0.261317
0.0698485
0.0213388
0.0306996
0.0204516
0.0262954
0.123735
0.0216157
0.0211611
0.0383707
0.0215839
0.0772236
0.329535
0.118403
0.0323186
0.127719
0.0205846
0.152316
0.0286764
3.59364
0.0219567
0.0221133
3.37623
0.0233529
5.19117
3.21672
2.83453
1.76416
0.0204895
3.13909
0.0203634
0.0207777
0.0197957
0.0207924
0.0217634
0.0285536
0.0372067
0.0196911
2.44427
0.0835263
2.50081
0.0209011
0.0199457
0.0209605
0.147683
3.33805
0.0512137
0.0265519
0.0203907
0.0218599
0.0215396
0.0210338
0.171223
1.70511
0.0215625
0.0196809
0.0215702
0.0210287
1.12522
2.25963
0.0324582
2.6943
0.425869
0.0211451
0.124412
3.90274
0.0345141
1.917
0.021813
0.0267187
0.0502932
0.0270192
0.42843
0.0213712
0.638868
0.0212009
0.0295798
3.06606
0.0209108
0.0228216
0.0497476
0.0206361
0.0250202
0.894195
2.50822
0.0680208
1.8252
0.281865
0.0196378
0.020882
2.8009
0.158803
0.0438995
3.25121
0.0205265
0.024172
0.0197099
0.406305
1.49691
0.0251852
0.0217758
0.159818
0.0239799
0.0209215
3.00125
0.107087
2.87298
0.0197815
0.0215546
5.31914
4.76879
0.145723
0.0221075
3.38874
0.0213592
0.171238
0.131518
0.0710174
0.0245851
3.51049
0.0260878
0.0229144
0.465811
0.0220069
0.0237777
0.0226817
0.0205672
3.1507
0.030863
0.112734
0.0289361
0.085804
0.0206158
0.891808
0.0226016
0.025957
0.0200385
0.0211119
0.0213978
3.11924
0.0209544
0.0197355
0.416542
0.0215779
3.94446
0.0213816
0.0223458
0.0675737
1.45407
0.335977
0.0208991
0.818728
2.71055
0.0218266
3.303
0.0293037
0.0205413
0.0494216
2.81687
0.625069
0.0254472
0.0208673
0.019666
0.292058
0.0792834
0.0569883
0.0261336
0.0486071
0.0221085
0.0222128
0.0858219
0.373181
0.0838554
0.746781
0.0215366
0.0772659
0.0812407
3.81875
0.0250317
2.34498
0.416301
0.0215919
7.61305
0.0989885
2.69851
2.50553
2.95048
0.317064
0.0396247
0.0205571
0.0283906
2.02297
7.92739
0.0211413
0.0218384
0.0646135
0.231552
0.0197822
3.48416
0.0205063
0.0213644
2.49329
5.23062
0.299909
0.0207664
0.0214046
3.66248
0.174242
0.115486
0.0234989
2.72978
0.310843
2.866
0.0529325
0.0391948
0.0217976
0.0215724
1.33859
0.0479093
5.7668
0.0306949
0.0327074
4.5185
2.69954
3.45267
0.0214327
0.029977
0.0207507
0.0329968
0.02274
1.89362
0.0242964
3.21024
0.0197782
0.0661879
0.0211211
0.146442
0.0319532
0.0296025
2.71362
0.0419063
0.0417319
0.0223604
0.0660766
0.544355
0.0580865
0.0231577
6.42036
0.0203622
2.46598
0.358218
0.0215913
3.45971
3.40196
3.61758
0.270806
0.0295944
0.0211357
2.87967
0.0243605
0.760187
3.1454
0.0209098
0.0225476
0.385816
0.439579
2.04806
0.0215269
0.020864
1.33131
3.0932
0.112054
0.0250363
0.0228609
0.360198
2.40372
0.0841004
0.0197414
0.0399653
0.0206514
0.0232776
0.19956
0.0221295
2.11079
0.177633
0.0213724
0.022606
0.0211575
0.0227309
5.92037
2.75362
0.028674
2.40204
0.0211206
0.0286933
0.0210933
0.0206669
0.0215304
0.0213579
3.94247
0.0213838
0.050364
0.0214356
0.0256147
0.242092
4.4296
0.0227162
1.4624
0.0602297
0.708237
0.0315966
0.0319285
7.70994
0.026307
0.0383785
1.88144
0.798131
3.03003
0.0388696
0.255367
0.0218665
0.0398913
0.04978
2.11613
0.0213592
2.16469
0.0208652
0.020918
2.66986
0.0216266
2.16807
0.0248268
0.0207353
0.0360759
0.0207503
0.0214107
0.0207123
0.0217707
0.176025
0.0209262
0.172779
2.19646
0.0603751
2.49668
0.021555
0.0226423
0.0235187
0.0212544
0.0207294
0.0772472
0.0218698
0.0207993
0.0218273
0.0217046
3.82772
1.66779
0.0547488
2.85895
0.205273
0.0210976
0.578996
0.0278544
0.0209195
0.285749
0.0521109
0.464737
0.0210767
0.24684
0.444514
2.03539
0.0204
2.64901
0.0301614
0.0237337
0.0209379
0.020535
2.11989
0.0854127
0.347439
0.0208605
0.0213074
0.573674
0.0216091
1.50205
0.36077
1.5967
0.948589
0.341744
0.0217821
0.0213121
0.0524912
0.0277711
0.0235964
0.151575
0.0406005
0.0219017
0.0227287
1.69624
0.0208148
3.51845
1.87857
0.724378
0.187126
0.0222898
0.0201796
0.0216585
0.271862
0.243152
0.020399
0.0231891
0.0208329
0.0752093
0.019854
0.0207994
0.0218976
0.0318063
1.1231
0.0398362
0.0303606
0.0214516
0.050454
2.53743
0.0221526
7.40992
2.40368
0.0783411
0.0199669
0.042831
0.0212219
0.0214689
0.0216007
5.07331
0.116635
0.304759
0.0236645
0.201276
0.0212738
0.0212392
0.0215903
0.575062
0.929886
0.0197558
0.0314308
0.0526218
3.52143
0.0228718
1.34493
0.021972
2.79713
0.0734002
3.31518
0.0872584
0.0772831
0.484961
3.08129
0.321815
5.39798
0.0212598
0.137107
0.0198401
0.0232443
0.0257058
0.0215841
3.14001
0.0288058
0.0268877
0.343814
0.174339
0.410846
0.0213599
0.0233889
0.0255902
0.0202548
0.0294524
1.26187
0.377115
1.10053
0.0209419
0.026369
0.0238721
0.576631
2.95602
0.0519435
0.0201583
0.0218119
2.08142
0.043803
2.06369
2.75255
0.0650161
0.0199479
2.49209
0.0289111
0.0423318
0.0277691
3.37634
0.273059
0.118615
0.158001
0.0221788
0.0266401
0.0213727
2.86996
0.0455089
3.2153
0.0863972
0.0255328
0.139658
0.0225273
3.40506
0.207626
0.0209413
0.154882
3.03329
0.188857
3.30682
0.0216352
0.021333
5.63876
2.61028
2.06137
0.0227712
0.0215659
0.0213664
3.73537
0.135239
0.0217514
0.056161
0.0836209
2.75178
2.37038
0.497909
0.0214217
3.28653
0.0242947
0.0212279
0.134372
3.57905
0.0216186
0.0208559
5.76089
3.32905
0.0213557
0.020926
2.20343
0.0208793
0.202962
0.020943
0.495715
0.0213264
0.0511886
1.12728
3.00147
0.0223698
4.9301
0.235236
2.37401
1.96662
2.77363
0.0542342
0.0211551
2.31938
0.022913
0.0213768
0.0202275
0.462045
0.0211279
0.405349
0.0208724
0.0231107
4.97142
0.0636145
2.04659
0.0226635
0.0287835
0.020713
0.0315221
2.65008
3.13622
0.0208538
0.0645111
0.279369
0.0215566
0.0205448
2.96993
0.0331942
0.0338568
0.124895
2.50497
0.910789
2.34216
3.23141
0.0681168
0.211677
0.268481
1.69435
0.0643953
0.0202067
0.122423
0.0211422
0.021131
1.7559
3.01551
0.0229569
2.7745
0.0903261
3.83239
0.086905
0.0563966
0.0212084
0.106157
0.0673282
0.0209866
0.0224583
3.22171
2.81551
1.34286
3.402
0.0370695
3.25752
3.32919
0.030992
0.0217437
0.0210262
0.224299
0.0209966
0.187143
0.0223671
0.0219918
0.0231293
2.61943
3.73362
2.38036
0.021796
2.62024
0.0246826
0.0285943
0.0209871
0.0209421
2.05745
0.0265416
3.31384
1.38941
0.0503154
0.111647
0.0214793
0.0390791
0.0215643
0.135121
0.0222591
0.0225863
0.0217236
0.0224054
0.149324
0.0220451
0.0336594
0.0210295
0.0342527
0.136875
5.81177
0.0210348
0.0465987
0.0214654
0.0542654
0.0226605
2.7415
0.138742
0.0307138
0.0235034
0.0224352
0.15833
0.0212322
0.146207
0.0214261
0.0209032
0.0220969
3.00601
0.0264447
0.0242637
0.0289005
0.0215127
0.0621042
2.91367
2.11598
0.0345343
0.0213805
0.0428103
0.0202662
0.0209965
0.187853
3.19202
0.0212902
0.0294562
0.110098
2.74534
0.0217906
0.0219712
3.21896
0.0224391
0.0780884
0.186943
3.81465
0.0213381
0.0234888
0.0212427
3.44093
0.126353
0.0403449
0.114418
2.42183
0.0223027
3.67008
2.05279
0.0215503
2.69066
0.078473
0.0224031
2.09124
0.021527
0.0211726
0.0204802
0.171438
0.0870913
0.155525
0.0226093
0.0222091
0.0293313
0.328377
0.329684
3.69404
0.292641
0.0219556
0.126865
0.127134
2.10613
0.0712715
0.23359
0.0210099
0.028777
0.0205523
0.125014
0.0351997
0.0212359
1.82614
0.137206
0.0314278
0.0258203
0.0196896
0.0214353
0.0515391
0.0331558
0.488234
0.0644281
0.0636674
0.0576777
0.112228
2.02441
0.0550207
3.63882
0.0210465
0.0208075
0.178202
2.44256
2.35539
0.118909
0.0225147
4.87479
0.276852
0.0209456
0.025876
0.0208193
0.0399963
0.0680832
0.037072
2.55847
0.330741
0.022503
2.72428
6.43287
0.021418
0.0858028
2.22581
2.09927
0.0235647
0.072429
0.0196153
0.023115
0.0209673
0.0248732
3.61506
2.71323
2.46033
4.30445
0.0224847
0.0328795
0.0522178
0.0211047
0.0218879
0.0205439
3.03807
0.020959
3.49233
0.0352205
0.0437466
0.152709
0.185833
4.69985
2.88114
0.0392392
0.0198705
0.0222492
2.66796
1.69765
0.0244385
0.0207851
0.0206176
0.0604427
0.0295431
0.138882
2.16059
0.0224542
0.0204989
0.117173
0.0376593
6.33212
0.92591
0.0209371
0.0697456
0.0215003
3.65529
0.0200093
3.26612
0.0209095
0.0223938
0.0300923
0.0219585
0.0529351
0.0291873
0.0456797
2.04084
2.82404
0.0248641
0.0291321
0.0212011
2.78553
2.0663
0.0217876
0.0200634
0.272865
0.0196612
3.9124
0.0213936
0.0321673
0.0665426
0.113797
0.0364776
0.0225005
0.0215888
0.0679093
3.27308
0.0211554
0.113654
3.19849
0.523782
0.161108
0.0323131
3.54314
0.0250872
0.260205
0.0212743
0.304093
0.288033
4.07693
2.36053
2.14197
0.0219072
0.0823692
0.020846
8.24593
0.285634
3.13092
2.00638
0.0263962
2.04763
0.751779
0.0335365
0.0226195
0.021605
3.40798
0.0251898
0.0674536
0.0232313
0.0216005
0.0206677
0.0215222
2.79064
0.172242
0.0302508
2.10475
2.13313
0.0213624
0.0213075
0.0205296
0.0269819
3.2417
0.181596
0.0251081
0.0246641
0.87167
0.073474
0.0430238
4.77809
0.0294913
3.5477
0.0295294
0.0284231
0.0212839
0.0231738
0.0679867
0.420695
0.310146
3.21797
0.0671424
3.04383
0.0239799
0.0240939
0.0216204
2.29046
2.44788
0.435491
0.0576068
0.0233192
0.0213874
0.0210763
0.0214225
0.0205613
2.66162
0.0284776
3.2139
0.0312
2.69642
1.93709
3.30639
0.0341258
0.0255191
2.003
0.0378474
1.66182
3.39127
0.0206143
0.0599205
0.0266321
3.60622
4.30535
0.0336047
0.0522995
0.358831
0.0229637
0.0478447
0.0241477
2.4966
0.347583
0.0237165
0.0215847
0.297333
0.165668
0.124849
0.73103
0.122635
0.0272465
0.021193
1.78794
3.19808
0.0737687
0.0300558
2.83718
2.60353
0.0208629
0.0214074
0.0239261
3.19511
3.05183
0.021339
4.26271
0.021993
0.0210485
0.0215698
5.07566
0.349102
0.0722108
2.42226
0.0227509
0.0225489
0.0209706
7.5268
0.0222588
2.87586
0.0235822
1.20246
0.021796
0.0211423
0.118863
2.77047
0.274477
0.0346254
2.44465
0.0200378
0.0214939
0.0214179
0.0427219
0.0625635
0.062589
0.0345917
3.26288
0.0240791
0.120238
0.395357
2.00376
0.0213605
3.41707
3.12624
0.0247272
0.347839
0.0636405
2.6965
0.0215789
0.0650827
0.0210503
1.64669
7.37695
0.080593
3.44201
0.0232961
0.0474306
0.0223545
3.93481
0.0199336
0.0208026
0.518364
0.0826701
2.55195
2.58708
0.0621769
0.027877
0.0204648
1.36535
0.029499
0.0210385
0.138951
0.0206228
0.0419675
0.0213802
0.360294
0.0226018
0.249944
0.310379
0.0301618
0.105116
0.0527067
3.68093
0.0212798
1.15375
1.54382
0.0207138
0.0213575
0.0226979
0.0218227
0.0380105
0.0212495
0.0778039
0.0735622
0.116846
0.057363
0.0214619
0.0218268
0.0204632
3.02829
0.0215129
0.0212606
0.181187
0.0236819
1.23694
3.44028
0.0853175
0.0238349
0.0325553
0.0224995
0.0219792
0.0330731
0.0201175
0.0238017
2.34474
3.35484
0.780691
0.0224505
2.49242
0.477344
0.0218397
0.0989859
3.12659
0.0213538
0.0233422
0.0213118
3.18586
2.25916
0.574017
0.0200997
0.0237452
0.0230491
0.0215849
0.125579
0.0215215
0.0437749
3.38748
3.56449
0.0205914
0.0236714
0.0233274
2.41886
0.0196807
2.18385
2.16538
0.201862
0.783658
3.26384
2.10126
0.0225809
0.576503
0.0784251
0.0222994
0.0204485
0.0208672
3.41133
2.11877
2.86072
0.0213957
3.57284
0.0215617
0.156216
0.0204601
0.0229913
0.022239
0.0205823
2.32609
0.0223609
1.90258
2.66238
2.17087
0.0451733
0.0505699
2.2494
3.22781
0.0218263
3.70408
0.0204708
0.0197034
0.0212963
0.0539721
0.0206566
2.02285
0.0290279
0.28358
0.0356818
2.1663
2.05402
0.0928172
0.0205595
0.0530003
0.0718187
2.31446
0.0213827
0.0199114
0.0229443
1.85564
0.0215744
0.268785
1.97052
0.0400069
0.0579172
0.0214109
0.350815
0.021758
3.27543
0.0202463
2.5233
0.0305169
0.0215079
1.97832
2.15347
0.0201818
0.0636089
0.0242031
2.94924
0.0577799
0.552221
0.296754
0.0217607
0.0530311
2.6932
0.021003
0.0474178
0.0228983
0.074245
0.0315325
2.13396
2.96257
0.0215214
3.45416
0.0223081
0.0425231
2.95992
1.9668
0.0343182
3.04635
0.226233
0.0215967
0.293663
0.124634
0.0300729
0.0223146
2.70975
0.0202083
2.73983
0.206219
0.104332
0.02135
0.0295844
3.25627
0.0429972
2.74503
0.0220061
0.0235586
0.114904
2.7945
0.0256947
3.26212
0.744747
2.05538
0.0215818
2.78764
2.37115
2.3776
0.0213979
0.0219971
0.0212781
3.3573
0.0264383
0.334496
0.359276
0.0217839
0.0202835
0.0213683
2.36138
2.93293
3.29738
2.08941
0.0209589
2.70339
3.24838
0.126291
2.10765
3.1096
0.0331578
2.77886
0.0231917
0.02536
3.1033
2.7572
0.021687
3.13095
0.0217023
0.0213976
2.71001
3.04211
3.65944
8.76354
0.0303192
0.0217898
0.0231525
3.35882
2.15842
0.0211681
0.045191
0.338562
0.0214298
0.0215092
3.0419
2.29051
0.0228347
0.0214346
0.0222269
0.0224695
0.604007
0.0218055
0.0211007
0.0252688
0.136478
2.32698
0.0661803
2.7594
0.0215329
0.0243472
2.89584
3.26615
0.0274146
0.204037
0.0213301
0.0346652
0.0225124
0.0220618
0.0633851
0.0210434
0.822679
0.0316156
0.0208082
0.0240587
2.45537
1.48944
3.59417
0.0214428
0.0246818
3.36718
0.432119
0.0238076
0.0213138
0.0214822
0.249197
0.0215237
0.0218747
0.0273132
0.0213445
2.94389
0.0957027
0.0217429
0.0239025
0.0200419
0.0215179
1.44081
0.146383
0.0683388
2.08647
0.0506366
0.0218502
0.0213105
0.0215031
0.0212456
0.0217255
0.0238082
0.070131
2.92074
0.0224944
0.106535
3.48281
0.220953
0.0212163
0.0208194
0.0232971
2.47612
0.0212024
1.13233
0.378712
0.0418806
0.0219019
6.2511
0.0200582
0.0705278
0.0204146
0.0200867
0.0216251
0.0207764
0.0319228
2.69131
0.0912085
0.0372994
1.38759
0.0827712
0.324235
0.0310032
3.08151
2.01044
0.10497
2.35443
3.08919
0.110806
0.359258
0.0218177
0.0206691
1.78541
0.0210086
0.0239911
2.79666
0.0404457
1.89743
0.138774
0.0207547
0.0226622
0.0214848
0.0385714
0.0204314
0.0590835
2.68098
2.97737
0.892816
0.0214801
0.0202384
0.0699241
2.57358
2.98802
0.111425
1.17549
0.0208674
1.93046
3.62557
0.365416
0.0235752
0.0215062
0.0199888
0.0231015
0.0214199
0.0213054
0.0237869
2.94574
0.0744672
3.27586
0.0461873
1.88899
0.169568
0.0212678
0.0210497
0.0218974
0.0205548
0.0217861
0.192494
2.36824
0.748753
3.53678
0.0232588
2.13336
0.139972
3.29826
3.33229
0.0214809
0.020772
0.166076
0.0214758
0.020195
0.433928
2.96627
2.22782
0.0213952
0.0215106
0.0235555
0.036755
2.34135
0.0204886
0.0238864
0.388844
0.0205555
0.334746
0.0362982
2.61605
0.0217801
0.295159
2.54892
0.034315
3.31108
0.109459
3.36323
0.0200379
0.0247437
0.020827
0.0290735
4.94774
0.0215598
2.16799
0.0217278
0.0215618
0.0214454
3.44494
0.0428552
0.108465
0.573035
0.0206445
0.0425873
2.12143
0.0528784
0.0207206
0.0228103
0.0214758
0.0431501
0.0212528
0.0208582
3.54255
3.6151
3.33515
0.187946
0.546681
2.12325
0.0679871
3.6413
0.120909
0.019982
0.021115
0.0196739
0.0216107
3.40405
3.35898
0.0203402
2.5078
3.41027
0.0287656
0.0223759
0.0247656
2.67484
2.99614
2.99278
0.761156
3.01063
0.019676
0.193442
0.0979066
0.244146
3.18465
0.0213332
0.124874
2.11347
0.0317136
2.5904
0.0217709
0.0742915
2.12236
3.17533
0.0722659
0.0304638
5.1671
0.125988
3.22032
3.27546
2.91988
0.110718
2.73414
0.0215265
0.0245122
0.0456646
4.12458
0.300723
3.48361
0.022172
0.110918
0.0676896
0.0223354
3.13494
0.0213533
0.125793
3.88767
0.0213631
2.21508
2.46372
3.25331
2.70902
1.55035
0.0936993
0.0210658
3.44745
0.0216357
0.0208299
0.0400843
0.0236535
3.19815
0.0238476
0.0248326
0.0238828
0.0207731
2.39196
0.0227612
0.113998
0.301322
0.0205989
3.78091
0.0981404
0.0224905
2.20263
0.193714
0.021349
0.561163
0.0220125
3.39426
0.0542687
0.0203761
0.112593
0.0228276
3.53669
3.05586
0.070134
1.06944
0.0254099
0.0214888
2.7492
0.0238538
0.0212801
2.12918
0.0394856
0.020873
0.0207974
0.126753
0.0226392
3.80008
0.200199
0.0356088
2.59746
0.0512361
0.0601808
0.0211069
3.57599
6.20889
2.52977
0.0214026
0.0202572
0.069919
0.0297639
0.434353
0.0213096
0.362949
0.0211968
0.148229
0.0218433
0.0360207
0.150328
0.11124
3.60669
1.41147
3.08289
3.04058
0.0197079
1.02745
1.31977
4.53226
0.0211535
0.151621
5.91302
2.62794
0.112543
0.80595
0.83629
3.65524
0.0442544
0.176477
0.0205675
0.0460527
0.041556
0.0213175
0.0676733
2.54396
0.0751099
2.28708
1.82797
0.0211593
0.0208109
0.0292245
0.021324
0.904825
0.0205175
0.0207747
3.77443
0.17978
0.031865
0.0989465
0.0224238
0.0799755
2.10102
3.14678
1.99902
0.025251
3.10754
0.0227559
0.0205447
0.0231182
3.18339
0.200617
0.198912
0.17303
0.0222609
0.0208212
0.0213239
0.0218341
0.0261989
3.0868
1.69514
0.0281223
3.17847
3.82089
0.0621569
6.43983
0.0214236
0.0291253
0.0673763
0.0214076
0.0240099
0.0264026
0.0237846
3.31285
3.17099
0.0205103
0.0386186
0.0290112
0.066214
2.38735
2.07113
3.59964
0.0216008
0.0793107
3.50893
0.0785204
0.112274
0.0586663
2.67597
3.76339
3.62377
0.0204885
2.73499
0.0203222
0.022904
0.0213362
0.0582903
3.71775
6.58404
0.387038
3.53528
0.0547473
0.0201427
0.0208029
0.0215111
0.0231011
0.0426572
3.67529
3.506
0.0741899
0.617502
0.0216215
0.0544131
0.0206509
3.2296
0.0729296
0.0215264
0.132973
0.0994299
1.8419
3.67235
0.126956
2.77899
0.0244625
2.49926
0.189553
3.05257
0.279037
0.0226522
0.0540221
0.0214781
2.99068
2.37376
0.0390535
2.25267
0.184868
2.16732
0.0639868
0.13563
0.0392984
0.0208899
0.116808
0.0567112
0.0239734
0.0537433
0.0302236
0.031718
2.21347
0.151125
0.02298
0.029583
0.0353948
0.0311177
0.0226211
2.00498
0.107351
0.346406
8.86801
0.0213897
3.24912
0.0214641
0.0241023
0.0232555
3.18699
0.0367528
3.27512
5.88436
0.0575666
0.0427791
0.114968
1.63901
0.129437
1.02711
0.0242255
0.0443799
0.0208702
3.29749
0.380524
0.024127
0.0216457
0.0359124
0.0256281
0.0240882
0.0477172
0.0386581
0.0215896
0.0329419
4.8399
3.74883
0.167888
0.0400321
0.0198096
1.71665
0.0315702
0.0623121
0.902901
0.0419043
1.90892
0.0202221
0.024404
0.0240151
0.0321797
0.0212032
3.40412
0.292419
2.48814
0.0360806
3.22438
0.182467
0.0253994
1.67693
0.0637413
0.179776
5.6917
0.0416423
0.0238259
0.0395638
0.0647805
0.0239882
0.418465
3.85426
0.343519
0.0208954
0.192077
0.353568
1.62176
0.0212615
0.0429782
0.0210631
0.029949
2.46388
0.0287483
0.0284324
0.0208816
0.0208622
0.657919
3.11478
0.0213442
1.5326
0.182302
0.0201549
0.0245651
3.33198
0.111425
0.0999401
0.0213735
0.0266774
0.0989739
0.0217971
0.0210415
2.92489
0.0287141
3.36762
0.0802213
0.0258174
3.71211
0.111938
0.153514
0.0209258
0.44043
0.0294476
0.0262065
1.56853
0.0392944
0.0215516
0.0795951
0.0242519
0.0247528
0.0201324
1.58589
0.0213565
0.0658415
2.4092
0.0972597
0.0208019
0.657204
0.0301074
2.77217
0.152594
3.51164
0.103506
3.16002
0.0206844
0.0738787
0.0251986
0.0211224
0.446505
1.96915
0.0247528
0.543964
0.0240679
0.0697745
3.5759
0.0256926
0.0545674
0.942219
2.48909
1.63144
0.149001
0.02489
0.0207378
0.0692006
0.0344039
0.694993
1.91657
3.2151
2.03388
3.39092
0.0208355
1.61131
0.0213996
0.0223552
0.0215529
0.395087
0.142169
0.0810367
0.0210261
10.3389
0.0268825
3.65737
0.0208416
0.0597751
0.0297014
0.0671864
0.0409639
0.100612
0.0227309
0.154654
0.119614
0.0209492
2.89097
0.173278
0.0465803
0.0227105
0.0293713
0.0216024
0.021041
0.0622733
0.0595683
2.20777
0.187108
0.0818867
0.77117
0.0211162
1.47546
0.0623536
1.98382
0.0297632
0.0302146
0.444882
0.0306555
0.152434
0.0673512
4.38153
0.0233196
0.0216343
3.06377
0.0310601
0.023484
0.0270287
0.0293994
0.0204983
0.0260647
3.33838
0.0215592
0.0409012
3.34148
0.1095
0.0689613
0.485781
1.30951
3.48735
2.52467
1.36086
0.0534867
0.960196
0.022624
0.024603
0.0214904
0.0209836
2.09405
0.364562
0.0310253
0.0207193
0.28512
0.0853455
0.0211965
0.0455244
0.0509847
0.0212185
0.0228982
1.49113
0.0261941
0.0364316
0.0360013
0.0212986
0.0840505
0.0626775
0.0290235
0.201696
0.0737119
0.615139
0.174552
2.93227
0.0232169
4.48864
0.153427
0.139676
0.0635783
1.69478
0.0719797
0.0259592
0.0479895
0.0644588
0.0233531
0.0678915
0.0210799
0.021253
0.0200937
0.0242394
3.35034
0.020395
0.101096
0.0242311
0.0235572
0.0240146
0.606017
0.0232448
0.0592426
0.0215251
0.0241322
0.02467
0.0207059
0.280014
0.0234429
0.0205377
0.0222529
0.0281761
0.0209164
1.90594
0.0267979
2.36381
1.06202
2.28267
0.0574304
0.0702857
0.114549
0.0393267
0.0248365
0.0248692
1.87008
2.96519
1.60405
0.0611091
0.0309674
0.0212883
2.00807
0.0389205
3.22913
0.0214939
0.848404
0.136565
1.4824
1.1908
0.0201078
0.0214136
0.0203408
0.028469
3.01831
0.0463918
0.913197
0.0254935
0.0284894
0.0209937
0.0218308
0.0328194
0.0234995
0.0237712
0.0208862
0.193575
0.284281
3.10195
0.0247569
0.676727
0.0206825
0.0202725
0.101498
0.0219098
0.0239621
0.0626885
0.023952
0.0664267
0.0214205
0.0247597
0.0215352
0.0242471
3.26742
0.021117
0.0234292
0.022561
0.023674
0.757928
0.0217679
0.0480657
1.44795
0.0243709
0.0291127
0.0223889
0.0232818
0.0217696
0.126182
0.0214571
0.0262598
2.48486
0.0208037
0.0287111
0.0483034
0.0592599
2.1745
0.0200846
0.0236005
0.0223606
0.0296801
0.0941275
0.93202
3.05946
0.0202531
0.0280095
0.0791375
0.0236543
2.10394
0.0199852
0.0215667
0.868564
0.0392396
0.0235313
0.020045
0.130944
0.111675
2.00798
0.0215673
1.33158
0.02002
0.0205363
0.0233874
0.0742248
3.76499
0.0215186
0.0209125
0.358723
0.0214621
0.0231366
0.288684
2.95826
0.0214545
0.0204814
0.0222506
0.0306597
0.177551
3.27873
0.0218425
0.101755
0.0214166
0.0213515
2.01541
0.0230253
0.0218213
0.0297363
0.189771
0.126765
0.0232275
0.0221277
2.47033
0.039381
0.022328
0.23524
2.70817
0.021474
0.0217266
0.0230718
0.0213601
0.0214675
0.0208214
0.0202236
0.0381357
0.0229853
0.0419965
0.0461721
2.00333
0.814756
0.0302123
0.0200662
0.021356
0.0221635
0.0230519
0.0393119
0.0283951
1.14629
0.0234503
0.0878627
0.0240397
3.00991
1.97813
0.0280464
0.0228099
0.119135
0.0236738
0.0260839
0.0213885
0.0222794
0.0211075
0.0391139
0.0401806
0.0446592
0.102237
0.0230803
0.0251196
0.0222052
3.329
2.53303
0.368415
0.026507
0.104783
0.0936523
2.99131
0.0219232
0.440997
0.0625399
0.0213964
0.0217848
2.26566
0.0215053
0.022387
0.0231549
1.11658
0.0214835
0.0217384
0.0252318
2.37659
0.0209349
0.0493536
1.02996
0.023458
0.0215047
0.0211412
0.0214201
0.0217586
0.0217063
0.0352381
0.0226276
0.0214882
0.021715
0.0217377
0.0281091
0.0213752
0.25458
0.0215522
0.0216987
0.0368955
0.0334876
0.05019
1.99308
1.04752
3.38071
0.0363637
0.0208056
0.0364345
2.02586
0.0202008
0.203432
0.0235909
1.01736
0.0231129
0.0419038
0.0217508
0.0213837
0.11012
0.206308
1.74491
0.268141
3.44266
0.0217225
0.0208685
1.98426
0.0201744
0.0214936
3.17616
0.0210089
2.30322
0.0214407
0.170977
0.102676
0.0236018
0.618571
0.0258607
0.0735134
0.17952
0.493157
1.33254
2.70633
0.348445
2.13529
0.0215453
2.14591
0.0214645
0.0213098
0.0209375
0.0218888
1.0081
0.0223515
5.00162
0.0215026
0.0213742
0.0215625
0.0914752
0.0215775
0.0205779
0.0535608
0.024976
0.0259625
0.0249195
0.0278402
0.19941
2.06043
0.0997024
0.932566
0.0945785
0.0223191
0.570572
0.0214482
0.0279886
0.0679884
2.71796
0.0400647
3.42749
0.0214707
0.835768
2.53235
0.140099
3.5232
0.287891
0.0234132
0.0213206
0.0238105
0.0214596
0.0213036
2.51076
2.35744
0.0210595
1.47316
0.0214155
0.103056
0.0209776
0.206901
0.0265275
0.0232862
0.0206566
0.477091
1.35357
0.339078
0.0206013
0.0206793
0.0260555
0.0220481
0.0221888
0.622512
0.0805823
0.0451906
2.00275
0.0405533
0.0217762
0.0307852
0.0694226
0.0218654
3.11174
0.0530804
0.195136
0.0230243
0.0239947
0.020279
0.0196791
0.0213677
0.0259831
0.0207891
2.13436
0.0371897
0.0682359
0.021271
0.0390139
0.0214535
0.0596713
0.0380981
0.0523338
3.06948
0.0254954
0.0213319
0.0245958
0.0217973
2.31798
0.0721794
0.0391026
0.0527272
3.47803
2.15766
0.105412
0.0480452
0.0213951
0.0229489
0.0231037
0.031613
0.0995382
0.0258406
0.0215473
0.434137
0.26111
0.0217529
0.0232046
0.0533853
0.0222719
0.0209471
0.0376207
0.0213932
0.0218591
0.0209346
0.0233973
0.0220106
0.0427459
2.11155
0.0214613
0.480831
0.0945441
0.103482
0.0209264
0.0214313
0.140287
0.0256512
0.0214317
0.0602342
0.0213423
0.0492299
0.0215808
0.0386106
1.65554
0.0520535
0.0224803
0.0566788
1.37692
1.1549
0.0214295
0.0345965
3.03296
0.0211516
0.0221368
0.0741865
6.90298
3.31392
0.0236258
0.0213439
0.0286078
0.0212034
0.0222733
0.0275813
0.0217557
3.52332
0.0217786
0.720188
0.0214562
0.0214647
0.0456085
0.0213645
0.0215448
0.0275769
0.842604
0.0205592
0.0345995
0.0218466
0.0211103
0.0216694
0.0275605
0.0253421
0.0664414
0.0230089
0.021734
0.0218098
0.0372549
0.0223439
3.46869
0.0219845
0.104115
0.0325759
0.0228733
0.0270856
0.989854
0.0214983
0.022022
0.0200064
0.0779557
0.326531
0.0214995
0.0345229
0.0209295
0.0335637
0.0214465
0.270077
1.58504
0.0233685
0.0248394