/*--------------------------------*- C++ -*----------------------------------*\
| =========                 |                                                 |
| \\      /  F ield         | OpenFOAM: The Open Source CFD Toolbox           |
|  \\    /   O peration     | Version:  v2012                                 |
|   \\  /    A nd           | Website:  www.openfoam.com                      |
|    \\/     M anipulation  |                                                 |
\*---------------------------------------------------------------------------*/
FoamFile
{
    version     2.0;
    format      ascii;
    class       volScalarField;
    location    "450";
    object      omega_0;
}
// * * * * * * * * * * * * * * * * * * * * * * * * * * * * * * * * * * * * * //

dimensions      [0 0 -1 0 0 0 0];


internalField   nonuniform List<scalar> 
13917
(
5.22294
0.0379654
0.199045
0.0221365
0.0283348
0.0374914
0.0259585
0.0779844
0.0249102
6.32197
0.0756603
0.0217254
0.0245219
1.4293
0.0274613
6.80344
0.0219294
0.063654
0.102177
6.75852
0.0324605
0.0217225
0.0415424
0.021725
0.023049
0.0344475
1.55084
10.2324
0.0448832
0.0200511
8.71217
0.0602533
0.0221601
2.95606
0.0214851
0.0953318
0.0237672
0.0239947
0.0259935
0.0363762
0.0217375
0.0218482
0.02364
0.0967743
0.0960093
0.250476
0.0308903
6.2233
1.01941
0.0214999
0.0216956
0.105818
16.2772
0.021665
0.0217309
0.104947
4.66325
0.0415473
0.0217302
0.185593
3.50711
0.0283876
0.0207708
0.0228853
3.09189
0.114987
0.0493068
0.0906064
0.072356
5.69188
2.82667
3.07006
0.0217062
0.021502
0.0332943
0.023476
0.0243703
0.021405
0.0232828
0.0222274
0.022213
0.0220818
0.0216922
2.97382
0.0211504
0.13368
0.0581871
0.0216351
0.0360955
0.0218623
0.0207807
0.0237865
0.996142
0.0211681
0.0221588
0.0491146
0.586983
0.0224352
0.0215329
0.115208
0.0211804
0.0211163
0.0222556
0.0215567
0.024315
3.25797
2.79133
0.0282594
0.0221923
1.75804
0.0215387
2.91663
0.0448334
5.70817
3.09867
0.0238484
0.0955647
0.0208735
0.164102
0.0216383
0.0219905
0.0211339
0.0544661
0.0840195
5.28476
3.09547
0.0227354
0.0350645
0.0211759
0.0853047
0.0307236
0.125239
3.5679
0.0238108
0.0704945
1.82682
3.23003
5.18918
0.0367132
0.0239401
0.805599
0.0212555
3.24612
0.0211968
0.0216393
0.0243595
2.7966
0.613297
6.52518
0.0216974
0.0335467
0.0209764
0.0216204
0.0216465
1.27325
0.0224293
0.0214892
3.54245
0.0214308
0.0210355
0.0211324
2.86864
0.0256127
0.789751
2.94093
0.125051
22.8475
4.54034
0.019588
0.039004
0.0218539
3.45124
0.0248743
3.2547
0.0634286
0.0211726
0.0221398
0.116571
0.0300807
0.0261388
0.0235478
0.0217634
0.021694
0.168268
0.168184
0.110362
0.0216698
0.16862
0.0200474
0.124296
0.0634158
0.0887561
0.12717
4.97859
0.0211755
5.09412
0.0252594
3.6313
0.0214484
0.0221913
0.029055
5.47813
6.6049
0.0234486
1.55104
0.0343818
0.0338847
0.021258
0.11529
0.0222084
0.0209004
0.0344051
0.0403147
6.2623
0.0685488
0.0361816
2.92777
0.0227648
0.0203885
0.0203767
4.7108
0.149317
0.140217
0.0213633
0.0209368
1.90402
6.11832
0.0203301
0.0203147
0.0217826
0.020404
0.0203942
3.21867
3.9595
0.0218711
0.0195945
0.0678143
3.30292
0.02157
0.0213609
1.67735
3.31087
0.17333
2.91418
0.0867445
0.0212038
4.2629
0.0704426
0.041769
0.0681849
0.0232156
4.42358
0.0216491
0.0387453
0.0574257
0.021977
0.0219084
0.022864
0.0266735
0.0215645
3.6716
1.21134
0.0211326
0.0203144
0.0225388
0.0203181
0.0216535
0.0244988
0.0343622
0.0212611
4.15861
2.73269
0.0214893
0.0248355
1.01019
0.0202788
0.0868834
3.30163
0.0202906
4.20537
0.0214679
2.86599
0.0212404
0.0259872
0.0220477
0.0211678
0.134846
0.0229538
0.130093
0.0273636
1.12613
0.0249182
0.832569
5.43769
0.0211249
0.0471896
0.0271532
0.0241142
0.0277998
0.0232408
0.0212463
0.0225465
0.114481
0.0450546
0.0376685
0.0230984
0.0213441
3.58203
8.21752
0.0210995
0.0245224
0.0241481
0.569895
0.112302
2.7266
3.00085
0.134288
0.134826
0.0245769
2.79644
0.779568
0.197596
0.0243161
0.0271949
1.3971
0.0221158
0.0405208
0.08775
0.021775
3.44865
0.0211974
0.0379529
0.0205162
18.2638
0.020802
0.0356205
0.0349646
0.112754
0.0216801
0.0682698
3.00348
0.0220604
0.0221084
2.905
3.08509
2.68642
1.45182
0.020266
0.0218299
3.38353
0.134128
0.0202801
0.0277326
0.021669
0.0516296
0.0365603
0.102599
0.0832148
0.0876564
0.0375787
3.12044
0.0212126
0.0220673
0.0299722
0.164166
0.0217031
5.99709
0.0373673
0.279096
0.0217716
0.108081
0.0241983
0.60281
0.021876
0.163159
0.93505
0.0373552
0.0215108
1.72519
0.0207504
3.21755
0.136946
0.0218701
0.695615
0.0224063
0.161232
0.0207397
5.76514
0.148107
0.0233286
1.9149
0.0766864
0.0228927
2.67159
0.208437
0.0229613
0.136646
0.0217428
0.0786469
0.198129
0.0212226
0.0254687
0.0230716
0.0211519
0.0209364
0.0212608
3.01576
0.121463
0.0219037
0.0213241
0.0215735
0.0460647
0.107973
0.0203367
0.0196075
0.110574
0.107893
0.0211931
0.0231988
2.525
1.92984
0.172893
0.108166
2.44787
0.0208343
0.0203018
0.0298744
0.0209262
0.0203512
0.0219459
0.0203181
0.0207718
4.43183
0.0217846
0.0390251
3.81061
0.0468182
0.0209201
0.0216029
2.69689
0.0291217
6.45139
0.0204496
0.0213428
0.0208429
0.0204193
0.0236628
0.0225923
2.48243
0.0275587
3.36333
0.0213373
0.032891
0.0277935
0.0221441
0.0850267
2.65945
0.0216377
1.86539
0.0209526
0.0213631
0.0215329
0.0224241
0.0208559
0.0222323
3.53807
3.55006
0.0208373
0.949845
0.108711
0.0218643
0.0511087
0.0649236
2.67445
0.0261258
3.2893
0.288604
0.294697
0.0226141
0.0965714
0.0289748
0.0230955
2.57035
0.0209228
0.0216147
0.0221641
0.0251893
0.0317253
0.146092
0.0486786
0.0240351
0.0256314
0.062472
0.0502249
0.0219059
1.30137
0.0337173
0.0273798
3.25191
0.0211591
0.0520523
0.129389
0.0208422
3.35297
0.0214725
0.020416
0.0472114
0.0204593
0.0225365
0.113692
3.61541
1.91336
0.0211286
0.022319
0.0233401
2.41414
2.19854
0.0218125
0.0217014
0.0211097
0.0533602
0.564261
0.0212386
0.0216018
0.0221203
0.0211322
0.0257653
0.0274265
0.0211109
0.0494257
0.0208452
0.0216088
0.022949
2.77573
0.020422
0.0234088
0.0215703
0.0319912
0.0599133
0.0559656
0.0596935
0.122892
0.0227459
0.054888
3.63217
4.02528
3.45587
0.0210293
0.0214926
0.024648
0.0214138
3.14513
0.0203111
0.747197
0.0252489
3.48059
0.0956539
0.0236328
8.33855
0.0208293
0.0565155
0.0223368
0.0225533
3.49994
0.0203869
0.194142
0.0209992
0.0228283
0.0215323
0.139875
0.0261475
0.0202872
0.0976953
0.0500595
0.560688
2.63892
3.65924
2.6855
0.0204295
5.96017
0.0204246
3.32538
0.623625
0.0230765
0.0237119
0.0211284
0.033315
0.0233382
0.0204002
0.022358
0.0242702
2.27966
0.0211774
0.0546015
0.0215849
0.0202753
0.0213624
0.121613
2.80781
13.2899
0.0639681
0.0273007
0.910396
3.20384
0.0207675
2.68466
0.0240326
0.0872774
0.0214084
1.35188
0.0211133
0.0262811
0.0216595
0.596045
0.0345353
3.08951
0.0212193
0.0331776
0.02145
0.0213054
2.99515
0.126829
0.0216492
0.111784
0.0213437
0.0222653
0.0210892
2.86702
0.0211813
0.0270738
0.0202995
0.0215459
0.163551
0.0210199
0.103681
0.0222606
0.0208185
3.36016
0.0561871
0.0217623
17.7229
0.18763
0.0776535
0.135881
0.0208122
0.0284051
2.87242
0.210512
0.0287605
0.0237775
0.0267788
0.022123
0.0212482
0.179057
0.0646746
0.0245316
3.88415
0.0349268
0.261611
2.26269
0.0429904
0.0340108
0.124394
3.7645
0.0212517
0.0312708
0.192547
0.0208298
0.0213647
0.021332
0.0243931
0.0225217
5.68315
0.0324901
0.0212271
0.0817851
0.0211244
2.71697
0.0214601
0.021174
3.52178
0.0564125
0.339289
0.0217563
0.0211893
0.0211533
0.0220468
0.0272409
0.0211579
5.96603
0.0291743
0.500583
0.333414
0.0310148
3.68168
0.0223245
0.0222462
0.0215125
3.19987
1.92251
0.0256116
5.70232
0.788591
0.0208126
0.0211342
0.0236811
3.1761
0.35426
0.0347838
0.0220164
0.0234059
0.0900383
0.0239565
0.101849
0.0326291
0.0221059
0.0222501
0.0222838
0.0271581
0.0256215
0.217383
0.0244608
0.0242266
5.70902
0.0210316
0.783665
0.0234895
0.0324051
0.0250849
0.201805
0.0219441
0.053343
2.78825
0.229459
0.0214359
0.0244835
0.0232814
0.0213354
0.0216473
0.0321976
0.0282246
0.144853
0.104406
0.0207865
0.188773
0.0248633
0.0252162
0.115124
0.0219162
0.0564209
0.297302
0.0203079
0.0564523
0.0740494
0.032345
0.0210612
0.0208823
0.0212387
7.0325
0.0221225
0.0216367
0.0375035
0.0211823
0.0209679
0.100031
0.140026
0.0403575
1.94372
0.0476204
3.44545
0.0216524
0.0248042
0.354919
0.0231358
0.0320325
0.0216623
0.0213272
0.0217323
0.0248964
0.0581321
0.0210574
0.143304
0.0219709
0.637618
0.0235208
0.0260668
0.0205238
0.0689708
0.0262398
2.79026
0.0425363
0.0220592
2.76041
0.0223281
3.88313
0.0231718
0.0628011
0.0234942
0.0209618
0.0214214
3.37457
0.0270823
0.0814681
1.91099
0.02133
0.0325897
0.0195813
0.0256812
0.562324
0.0196061
4.01811
0.0234777
0.063025
0.0933211
0.188528
0.0204474
0.0214273
0.0917666
0.0208038
0.0216318
0.0227734
0.0214516
0.0376095
0.0204348
0.11543
0.0221032
5.55638
3.99483
0.612905
3.44269
1.92047
7.41907
0.538583
0.0207532
0.0221586
0.0215447
0.0223367
0.0211136
0.0271915
0.0212204
0.156068
0.0216644
1.1686
0.0220491
0.029291
0.0801219
0.0210759
0.0389011
0.0223266
0.0227888
0.0253184
0.0207439
3.76785
0.0691728
0.188654
0.0210973
0.0215032
0.0219388
0.0220474
2.98958
0.0207749
0.122384
0.0210963
0.294124
0.0256759
0.0212047
0.0549537
0.0288271
0.0207865
0.30613
2.67402
0.0238049
0.0688115
0.0207874
0.118566
0.0210508
0.022045
3.48255
0.0216915
0.0222033
0.0803921
3.82051
0.0213767
0.661341
1.10811
0.0220317
0.0229844
0.0214931
2.03354
0.0214759
0.104905
0.021645
3.40269
0.0260187
2.17935
0.0213271
0.0201856
0.191558
0.0230565
0.0208994
3.63952
0.0227467
0.0209268
0.865992
0.0220215
0.0221519
0.063856
0.0228702
3.1494
0.0368496
0.0647539
0.123339
0.0233558
3.34402
0.0222986
0.0599306
0.0213828
3.63667
0.295987
0.0218071
0.0210788
0.0222149
0.0218148
0.0209031
0.0208297
0.0211971
0.0214145
0.0278714
0.0203085
0.0225838
0.064141
2.92817
2.79031
0.0747978
0.0219462
0.218667
0.0211775
0.342642
0.570587
23.9186
0.0203738
0.0207628
0.0217259
0.0215802
0.0203521
0.0208433
0.0212426
0.0350123
0.020934
10.6125
0.818081
0.0209664
3.39664
0.0213932
0.0212706
0.0276417
2.83483
0.0547329
0.0211297
0.34819
0.0213044
0.021285
0.19772
0.022258
1.55254
0.0222757
0.0735865
0.0209272
0.0211952
0.0293117
0.0868537
0.0226598
3.03145
0.0310313
0.0231371
0.0232671
0.0215
0.0208627
0.0805145
0.0317347
0.0243839
3.09901
7.67483
0.0661543
0.0848741
0.0211367
3.22332
0.021135
2.71029
0.0559577
0.0255513
0.0225099
2.17541
1.89093
2.10511
0.0221609
0.63693
0.0209059
0.0212257
0.0327362
0.0220531
0.0216232
0.285604
4.10077
0.0211944
0.0263625
3.36782
0.0210008
0.0202894
0.731345
2.73664
0.022234
0.0205253
0.0256139
0.0215817
0.0212401
0.0321177
0.0251666
0.0215283
0.468453
0.0222156
0.129839
0.579501
0.0296012
3.5229
0.0217817
0.0220078
0.0379191
3.83867
0.11596
0.0246599
0.0304334
0.0219378
0.0223019
0.0213404
2.75658
0.026431
0.022295
0.0472728
0.0211669
0.229913
0.0670318
0.101664
0.0524466
0.473608
0.352771
2.48991
3.13798
0.0239883
0.412284
0.0203071
0.0519368
0.0689054
0.550537
0.0241013
0.02257
0.0248116
0.345326
0.0228797
2.68125
0.032516
0.0772166
2.68084
0.0213106
0.0865269
0.0231311
0.0216179
0.0271816
0.08715
0.0203156
0.0207361
0.0225343
2.73408
0.0209256
0.0227609
0.0233366
0.022295
0.0215225
0.0805126
0.060558
0.022298
0.0210615
0.0907354
0.0310711
0.0344383
3.42109
0.0217969
0.0214451
1.92191
0.0216454
0.0229535
3.17344
3.41548
0.0286349
0.0520115
0.025757
7.60926
0.125435
0.0305905
2.65164
0.021198
0.0700532
2.72564
0.173103
0.519701
0.329225
0.020748
0.0215729
0.0244389
0.0215424
0.0216557
0.217264
0.0216996
0.0404887
0.0205105
0.0505217
2.69535
0.022899
2.48628
1.89754
0.0214433
0.0660727
0.0255643
0.0226313
0.0213364
3.3008
0.0627458
3.61138
0.0264105
3.93146
0.0755885
0.0211966
0.598184
0.032675
0.0228058
0.0212185
0.171358
0.0213429
0.0248986
0.0341423
0.0249713
0.0219652
0.0491219
2.15174
0.0211447
0.139344
0.0780639
0.0216304
0.0211554
0.0244029
1.9196
0.278402
0.0208988
0.0285969
0.0262967
0.291792
6.60382
0.0215856
0.0209522
0.0207457
0.021506
0.0247807
0.0235587
2.33115
0.0221204
0.0238462
0.0803227
0.0266187
0.0737943
2.77021
3.90434
0.0217819
0.0216045
0.0209013
0.022509
0.0607689
3.81451
0.157372
0.0824388
0.0287076
0.044597
0.0232616
0.023194
0.0246694
0.0945606
0.0211669
0.115544
0.0247054
0.0208054
0.0217413
2.97502
0.0439431
0.0565868
3.14684
0.109781
0.0211557
0.72328
0.0236952
0.0212373
2.70902
0.476327
0.0211847
0.0285982
0.0923712
0.0316205
0.0221452
0.0204157
0.0211678
0.0208942
0.0213331
0.0281452
0.0462279
4.42873
0.0320389
0.0249715
0.0295817
0.0730082
0.0210268
0.0317906
0.152212
0.195428
2.73948
0.0227009
0.0203992
3.52627
0.0210665
0.0968746
0.0226599
0.0392081
0.0218425
0.0211197
0.162725
0.0253745
0.0226255
0.0214936
2.0831
0.259372
3.2681
0.0218131
0.0215392
0.398026
0.0210191
0.0208573
0.104807
0.507132
0.0258595
0.0311186
0.0220877
2.63714
0.0212454
0.0240424
0.0219663
0.020383
0.188635
0.021241
0.0208746
0.341726
0.0516996
2.05993
0.190062
0.0211855
0.0284815
0.020973
0.0211185
0.0233254
0.0225315
0.0216054
0.162575
0.021577
0.0634204
0.0267647
0.0248549
0.0215987
0.0219556
0.0212132
3.35488
0.0203094
0.171482
0.0609547
0.0228468
0.0464145
0.0310745
0.0287464
0.0215111
0.0261395
0.020948
0.0208021
0.264937
0.0342334
0.0269247
0.0214486
0.0213565
0.0211408
0.0661167
0.021168
2.87201
0.0411142
0.0212612
0.0213124
0.0206545
0.040894
0.0354278
1.91221
0.0321811
0.228054
0.0250852
0.0832785
0.023569
2.8675
0.0205039
0.0202669
0.0243036
0.240862
0.0206824
2.92913
0.0215819
0.0215691
0.106651
0.178045
8.23571
0.183086
0.0249105
0.130641
0.0383112
0.0207886
2.88244
0.0214033
0.0211556
2.0456
0.0205807
2.95377
0.0538477
0.0210791
0.0214277
0.0208227
3.68406
0.0213825
0.0204139
0.0656905
0.0211909
0.0209441
0.0215595
0.020811
0.0405464
0.021683
0.0239649
0.0207138
0.880903
0.0455124
0.0207328
0.0207406
0.0221897
0.0212971
0.0234775
0.0218792
0.0213752
0.021708
0.0214626
0.0223704
0.0214886
0.0574124
0.0206504
0.0693672
0.0216441
0.0434231
0.0208668
0.0215861
0.0211616
0.0203553
0.0336264
0.0256974
0.0244797
2.07494
0.0307242
3.4556
2.78029
0.0693733
3.50836
0.0215953
0.0214676
0.3536
2.57624
0.0212295
3.31325
0.0207436
0.102756
0.74259
0.023364
0.0711707
1.44889
1.89993
0.0214424
0.0420884
0.0209828
0.0654233
0.023767
3.15779
5.3516
0.0216812
0.0434116
0.187701
0.0220206
2.34356
0.245967
0.0229219
0.0209571
0.222819
3.31068
0.0207855
0.0298989
0.0218661
0.134818
0.113584
0.0215435
0.0208972
1.32332
0.0210777
0.0214499
0.0220327
0.0207528
1.85386
0.0279845
0.0271404
3.17727
0.0213381
0.0527129
0.0216967
0.220532
0.0492402
0.0715477
0.0208363
0.0264476
0.0208155
0.021822
0.0234274
0.0214839
2.53373
0.0224878
0.0207949
0.0211559
0.26534
0.0209398
0.374513
2.46226
0.808511
0.0215509
0.0209602
0.0212465
0.689552
0.021765
3.0606
0.0215229
0.658649
0.0228209
0.022783
0.171966
0.0215977
0.0218812
3.35995
0.0942484
2.90633
0.0219624
3.46963
1.89751
0.0215446
3.10553
0.0216758
0.0250038
4.09091
0.0232903
0.0380273
3.68305
0.0284945
0.0593044
0.0215872
2.14791
0.0214282
0.443405
0.0212496
4.22703
0.0214491
0.0215737
0.0233242
0.632802
0.0209928
0.0285645
0.0575478
1.29663
0.0212613
0.0278106
3.48623
0.0912818
1.65861
0.0672379
0.0208644
0.0949871
0.492818
0.0237013
1.18546
0.020222
0.123216
6.21131
0.021041
6.50123
0.0213146
3.39547
1.33347
0.0234111
0.0236262
0.48273
0.748996
0.0214738
0.0225929
0.0207689
0.021564
3.12003
0.0569069
0.170261
0.0216899
0.0262881
2.99763
0.0293641
0.472717
1.70066
0.0211481
0.0213863
0.160413
2.46016
2.13753
0.763788
0.166152
0.0354777
0.0481703
3.43571
2.70194
0.544315
0.0209572
0.0693682
0.0402779
0.0622444
0.0214416
0.02524
0.0527879
0.120165
0.811168
0.0221917
1.5299
3.1572
0.0392314
0.0214291
0.0214329
0.0761252
0.0210019
3.58441
0.0268106
0.0218736
0.140779
0.0346757
0.0207192
0.0330167
0.0280687
0.0214654
3.71161
0.026042
3.7498
0.0210562
2.99094
0.2359
0.166357
0.0203547
0.0255079
0.0288928
0.129735
0.097034
0.0596306
3.12708
0.189506
0.0196367
0.0249296
0.0223951
0.106455
6.29531
0.0206856
0.0206955
0.0225184
0.81409
0.146458
0.0211109
0.0450998
0.139205
0.02093
0.0330199
0.0235795
3.73445
0.0264997
0.0649654
3.16715
0.0269912
0.0240655
1.05425
0.0211458
0.0419304
2.81057
0.0246209
0.0762431
0.0295468
0.0513291
2.41615
3.41881
0.0215662
1.05542
0.150859
0.0205876
0.111357
0.0585525
0.0940154
2.4446
0.211912
0.795186
0.0924779
2.69923
0.0258609
0.0580419
0.0204149
0.0217265
0.0215134
0.0209324
0.174399
0.121136
0.020319
0.0414718
0.14556
0.0211327
0.509961
3.10237
0.0200851
0.0217269
0.0205226
0.0224376
0.040078
0.0214246
4.19021
0.0279358
0.0614395
0.0252615
0.06071
0.0475581
0.0311744
1.54812
0.0214646
0.0225285
0.0202746
0.0209905
3.51431
0.0818402
0.0274508
3.68848
0.0217494
0.0220189
0.030079
0.0207748
0.0211943
0.0656756
0.0246095
3.16378
2.03673
3.27254
0.021619
2.94522
0.0212639
0.234293
0.0206987
0.119295
2.21218
0.0215467
0.605936
3.43002
0.0304037
0.0224843
0.0209355
0.0265587
2.64417
0.0207279
0.0217639
0.0226822
0.0241543
0.162115
0.0228386
0.0248472
0.021117
0.0226809
1.15781
0.0315563
0.0236437
0.106572
0.0725401
3.23731
0.621346
0.0233085
0.0223845
2.86916
0.0214582
0.0578877
0.0216428
3.1717
0.0221602
0.021945
0.0306698
2.83173
0.0213902
0.0208335
0.0204858
0.121462
9.67064
0.100899
0.0214807
0.0235694
0.020933
3.24078
0.0209702
1.91654
0.0505439
0.0217519
0.136645
0.0316985
0.228136
0.0220078
0.0208453
0.0284616
0.0378106
0.10497
0.0217074
0.0219119
0.0220545
2.8325
0.0216826
0.0223972
3.37616
0.0228339
0.0279788
0.0240075
0.0211361
0.0213447
0.574984
0.0231059
1.42873
0.263763
0.0200279
1.84079
0.0218396
0.0908202
0.0437913
0.0226452
0.0203981
0.0199997
0.0214128
0.821595
0.0425363
3.40653
2.67457
0.0209659
0.0275997
0.0354957
0.878916
0.0214106
0.150407
3.43836
3.03901
0.0213497
0.0227209
0.0219463
0.355129
3.48493
0.0217573
0.0215484
0.0286685
4.28369
0.0216569
0.0227873
0.0228233
0.100251
0.52485
0.0205229
2.72862
0.0279899
0.0214178
2.64282
0.0502722
1.84759
0.448548
0.0300584
0.0252385
0.0224497
0.0257966
0.0220546
0.0599271
0.0429175
0.0213835
0.0238636
0.199351
2.10154
0.0207114
0.0933893
2.81059
1.54232
0.021532
0.0215421
0.27065
2.56416
0.0724503
0.0211778
2.69778
0.0582678
0.0200946
4.42637
0.0261801
0.0217043
0.170068
0.0214486
0.0314504
0.020929
0.0198959
0.0215954
0.0204807
3.08945
0.0203104
0.0211801
0.0675687
0.0243668
0.024045
0.114849
0.0215156
0.0214821
0.0226887
0.0222974
0.230846
0.229028
0.313318
0.875314
0.0326798
0.552128
0.0429474
2.85912
2.16738
3.03431
0.0209176
0.0285004
0.0214303
0.0215436
0.021057
0.0224012
0.158871
0.0524222
0.0352012
0.0211099
0.0213925
0.0494413
0.0217455
0.0218677
0.0215223
3.26069
0.0291657
7.64457
0.021608
0.264214
0.0219587
0.0218801
0.0221209
0.038557
0.0210717
0.07435
2.88601
0.0377361
3.58588
0.623785
0.0233715
0.0262822
0.335079
0.0972365
0.0204684
0.0210088
0.0200206
2.69229
0.0198754
0.0656217
0.0402404
0.067712
1.58222
1.54074
0.0573095
3.75076
0.020808
0.0204765
0.107182
2.77708
0.0214221
0.0215917
0.1932
0.0209707
0.161721
0.0228894
0.0208683
0.0246822
0.0215151
0.0626376
2.80654
3.07049
0.0241231
0.0216457
0.0690175
0.0224105
0.0680099
0.0209175
0.117534
0.0787154
0.0218665
0.0216597
0.0200785
0.105957
0.0474059
0.16499
1.96402
0.0280515
2.88451
0.0647772
0.0950472
3.28829
0.0212815
2.67827
0.0222292
3.28998
0.161818
2.6651
3.14924
0.0221398
0.0481005
0.115278
0.0214831
3.79585
0.0214866
0.0215006
0.0250922
0.0220198
0.0288203
0.187962
1.12065
3.89697
0.024969
0.0367581
0.0224213
0.0218927
0.0216634
0.111248
0.0754801
2.58634
0.0404199
0.0203693
0.0207778
0.0220453
0.20251
0.0237268
0.022376
0.0243613
0.0775853
0.0294832
0.038434
0.0350386
2.72846
0.0277452
0.030436
0.0214171
0.0251526
0.656656
0.252564
0.042415
0.0207707
2.63947
0.0304502
0.0211515
0.0434173
2.88374
0.245986
0.0309342
0.0209842
2.71551
0.0219134
0.0209379
0.0204168
2.06666
1.35437
0.0233569
2.42259
2.92587
0.0247014
0.0351273
0.0530789
3.71697
0.0287943
3.44754
0.0219539
0.0645402
0.0248445
3.60547
0.0309115
0.0209055
3.03411
0.0216913
0.0222381
1.72652
2.95992
0.0587338
0.931033
0.0238881
0.022482
2.25439
0.0211543
0.0211895
0.0215756
0.0405977
0.0213966
0.029576
0.0246888
0.222084
1.33672
0.0220928
3.77019
0.0245204
2.96842
3.44731
0.0215504
0.0217118
0.0247134
0.1403
0.158498
0.058748
2.88106
2.67282
0.272619
0.0227212
2.57036
3.05976
0.044141
0.966538
0.0215966
0.0213691
0.0215925
0.0223801
0.0213048
0.0307476
3.12164
0.0295914
0.269472
4.55836
2.52641
3.05438
3.28835
0.0274958
3.6004
0.0934245
0.0653529
0.0206783
0.0215263
0.0600754
4.01533
0.0225391
2.8174
3.13914
0.0209606
0.0215904
0.0218121
0.0763783
0.0220051
0.0639121
2.69079
0.020686
0.0214089
0.0209361
0.0221511
0.0858362
2.9208
0.0334561
2.90565
0.0953321
0.0211665
0.260385
0.107658
0.0217365
0.3206
1.02065
2.47086
1.87318
3.42415
0.0214076
2.32997
2.9654
0.136734
2.9348
0.0210341
0.0229758
0.0234342
0.0230612
3.21241
0.0582279
0.0216867
0.0260688
0.295748
3.05237
0.0226146
0.0221419
3.52569
3.26354
0.0217044
0.0266494
0.0917189
0.0213258
0.021416
2.156
0.0211227
0.214696
0.261546
3.31403
0.0210549
0.0648774
0.124314
0.0211225
0.0201475
2.06485
2.20085
0.021967
0.0312931
0.147181
0.182921
3.50551
2.27479
0.0248561
0.257236
0.353122
0.0320068
0.0211162
0.0707044
0.0204348
0.0202655
3.22271
0.0347638
0.0819315
0.0238485
0.0254397
0.021004
0.0205037
0.0220531
0.0222302
2.58529
0.0236479
1.75338
6.08859
0.0397798
0.0628423
2.60873
3.51916
2.58182
0.020952
0.0241842
0.0324633
0.0246674
0.158473
0.25051
0.0220326
1.45838
3.2437
0.0255501
0.0800918
0.0662365
0.0873784
0.0953663
0.0225379
0.106103
0.116281
0.127775
0.141189
0.0984735
0.0724301
0.0259638
0.0210983
0.0305112
0.0794014
0.0210878
0.43638
3.66069
0.142756
2.97779
0.0201178
0.020763
0.0679694
2.82442
0.0221621
0.0234811
0.0565492
3.14577
0.28839
0.0214838
0.0292213
0.0244658
5.83653
0.292122
0.0236638
0.301043
3.02054
0.0884852
3.35765
0.0829935
0.229391
3.60381
0.019581
3.68656
3.12448
0.0223634
0.0615521
0.0849647
0.0249869
0.0209292
0.157752
1.19274
0.020965
0.0210143
2.38568
0.42979
0.0690473
0.0217087
0.197353
0.113129
3.10792
3.71106
0.0215702
0.021378
0.0221188
0.023061
3.38493
0.226275
3.00631
0.0740781
0.161758
0.539353
0.0230754
0.0210619
3.08577
0.0209882
3.53084
0.0208264
3.3577
0.0223662
0.0222918
0.384668
0.0216333
0.0977455
0.329617
0.0242981
0.023282
0.0224747
0.154074
3.25591
0.134087
3.01078
0.0243356
0.0229626
0.0264872
0.0666061
3.80255
3.68648
0.0839338
0.193869
0.108232
2.57295
0.0211984
0.0209613
0.0207031
0.0206795
0.149285
0.0601107
0.0581112
0.0376191
0.129004
0.0211338
0.290717
0.840698
5.40971
0.0214694
0.0226053
0.0199129
2.96774
0.0242483
0.618011
0.148337
0.10555
0.172109
0.0200492
0.0340273
0.130311
0.150514
0.370722
0.0216493
0.116317
0.0219672
0.0219468
0.0874524
0.874866
1.51714
0.0217762
0.0749343
0.114049
3.08491
5.20313
3.38546
3.36814
0.0210622
0.0539965
0.0216299
0.120793
0.0212489
0.0955064
0.0230227
0.0441243
0.232518
0.396568
0.0239413
0.0895574
3.09926
0.10137
0.0232813
1.83033
0.0931632
0.022487
0.0222641
3.26297
0.0272837
0.109156
0.244138
0.147286
4.0217
0.0234898
2.97578
2.86156
0.551302
0.131532
0.0294406
0.0948136
0.0857313
3.32307
0.0587277
0.0220562
0.999103
0.0440191
0.36475
0.0264098
3.99569
0.687863
1.50442
0.0252723
1.50316
0.0236708
3.03722
0.133348
1.78784
7.33003
0.0209457
0.0198946
3.06952
3.64642
0.0310542
0.0219812
0.0385762
0.0287961
2.95232
0.0650066
3.14934
0.0250992
3.20758
0.106904
1.05004
0.022017
0.136626
3.73674
0.0241674
0.0746724
0.0201006
0.0237785
0.0216128
0.255879
0.021194
0.0216142
3.57461
2.66294
0.0206618
3.72812
0.0221967
0.0215225
0.021303
0.0209701
0.0217318
0.370861
3.48658
0.0206766
0.895861
0.0605441
0.0434229
1.21993
0.076229
0.0247213
0.029962
0.0212974
0.248615
0.0287205
3.76586
0.024825
3.08675
0.717321
0.0627267
1.51789
3.28074
0.0207917
3.63942
0.0500044
0.0588333
0.0383527
0.0211865
0.0378641
0.162488
0.0215739
0.119792
0.0214205
3.3428
0.126127
2.42587
0.151268
0.144933
3.54128
0.0215605
0.0212474
0.0563897
0.0226842
0.021712
0.0217378
0.0260792
0.0211071
0.0212011
0.0224626
0.0392521
0.0229186
0.0261607
0.0229244
0.0341256
0.0884415
0.0231907
3.44745
0.0229873
0.0212567
0.0828455
0.0385872
0.0231617
0.0210978
0.894987
0.0231011
3.14877
0.0232581
0.0998653
0.021305
0.0214372
0.0893149
3.65298
0.0633721
0.0325941
0.0201919
3.12439
0.0216343
0.0211648
0.068903
0.0235218
0.125338
3.07766
0.0873682
0.131418
0.0382562
4.06797
0.0214834
0.0216065
0.0566156
0.258166
0.0538963
0.0882984
3.02473
0.0263637
0.0215586
0.026668
0.198116
0.0516914
0.0215914
0.0903663
0.0856713
0.0578928
0.021728
0.0216289
0.16557
0.0569143
1.57484
0.559509
0.0234121
0.0634871
0.0217038
0.0404631
2.35792
0.0216762
0.143609
0.0484093
0.0737538
1.17962
0.0215402
0.021377
0.0212502
3.56757
0.188076
0.0231393
0.0880616
0.0986674
0.0216812
0.0214277
0.106952
3.67544
0.166697
3.12706
0.131474
0.0289086
0.281099
0.108163
0.0287256
0.5763
0.0784756
0.585413
0.0215125
0.086112
0.119166
0.0222412
1.28023
0.036411
0.0769394
0.0260226
0.131024
0.0211128
3.98218
0.0239901
0.0208113
0.0210264
0.0207718
0.0224753
0.0222927
0.0209281
0.0236596
0.0216007
0.0221917
0.240964
0.070693
0.022093
0.0573776
0.024041
0.0225041
0.0204626
0.0423924
0.0264244
2.1766
0.0215569
0.021581
0.0615078
0.142353
0.0215826
0.0215356
0.0989185
0.0231918
0.0819543
0.0545205
0.0215843
9.44952
0.0233751
0.0221915
0.0677383
3.78331
0.0225419
0.052485
0.0209621
0.0249921
0.021419
0.0261068
0.0211899
0.0215948
0.0434737
0.0549345
8.68965
0.0463172
0.0214931
0.0272103
3.26264
0.0463199
0.155002
0.0894986
0.0216259
0.0489742
0.877054
0.163374
1.85241
0.0250622
3.35298
0.275587
0.0281227
0.0216824
0.0673578
0.0221456
0.0511945
3.08952
0.021554
0.0514474
0.0217628
2.83521
0.0430749
0.0222513
0.0556067
2.94858
0.405054
0.0234342
0.0657636
0.0288498
0.0206459
2.02716
0.0205365
0.0318121
0.0210997
0.0244972
2.67924
0.0651577
0.0205981
0.0277484
0.151652
0.0215378
0.0218596
0.0270943
0.0247547
0.021449
0.0233571
0.0240273
0.0219688
0.0211033
0.0559307
0.0924593
0.156245
0.021032
0.0528063
2.97357
4.32614
0.020935
0.0215846
0.024464
0.0809535
0.0220961
0.0210867
0.0212227
0.0209449
0.0252974
0.0264435
0.0247899
0.0591356
0.0230073
0.0204774
0.0230251
0.0578282
0.0432061
0.0954606
0.0220772
0.027321
3.19119
0.0281026
0.0241056
4.1287
3.18788
0.0881348
0.0612098
0.142487
0.0213898
0.303756
0.0261747
5.79589
0.0214126
0.0212304
1.3201
0.0208208
0.259254
2.87046
0.021926
14.1591
0.0291549
0.030242
0.0259086
0.0659698
0.027692
0.0253969
1.58956
0.020893
0.0237562
3.50713
0.0228357
0.0214651
0.0288078
3.15441
0.0221073
0.0221099
3.21703
0.0238689
0.0258634
0.0529264
0.0203699
6.08712
0.0236332
0.0222464
0.0920498
0.0520228
2.98858
0.0231236
1.75179
0.0315933
0.0803385
2.45527
0.021544
0.0307423
0.0810421
0.0220802
1.95032
0.0221429
0.0229456
2.89357
0.0222424
0.0382014
0.0792516
0.451832
0.0286552
0.0256335
0.0222114
0.0234579
0.0802057
0.0239523
0.0292061
0.0707293
0.0490374
0.0216876
3.39176
0.0355176
0.020488
0.0226476
0.0212394
0.0208492
0.0203761
0.0215636
0.0215114
0.0284824
0.0234476
0.0375109
0.020245
0.0204621
0.0225735
0.0707835
0.0207501
0.0292904
0.0556969
0.0275358
0.028555
0.0214282
0.0229555
0.0237593
0.0354313
0.027357
0.0239386
2.67125
0.0217042
2.02725
0.0242445
0.0794441
0.0780731
0.0215298
0.0535056
0.0296778
3.11901
3.0164
0.0247136
0.021708
0.023189
0.0283526
0.0441825
0.0214821
0.22425
0.0486489
0.0225616
0.0522883
0.0428216
0.0561863
0.0273047
0.155562
0.0790923
0.0262142
0.394696
0.0234171
0.114889
0.022322
0.0212701
0.0738369
0.075963
0.021398
0.0462539
0.0214436
0.0216337
0.0214557
0.0219593
0.0214826
0.0214098
0.021394
0.0221394
0.144213
0.0226499
0.0213528
0.0223895
0.0223996
0.166798
2.93363
0.0527825
0.0236834
3.30889
0.0214311
0.0213656
0.0535841
0.0303762
0.0222616
0.0221752
0.0216439
0.141017
0.0217476
0.0248574
0.0222309
0.0319305
3.75242
0.0214549
0.0523719
0.0593219
0.0245062
0.0402241
0.0208071
0.0216632
0.0549822
1.7483
0.0229677
0.0337768
2.07588
0.0827105
0.0209103
2.75305
0.022518
0.0196368
0.05022
3.5206
0.0214784
0.0207437
0.022885
0.0295834
0.0317142
0.0214235
0.0222906
0.0368698
0.021659
0.0275394
0.025026
1.14777
0.020497
2.74897
0.282795
0.0366127
0.0213426
0.0823668
0.0211095
0.0231155
0.0215724
0.0508814
0.0202236
0.0202011
0.0377484
0.0530463
0.561403
0.0218652
0.0201223
0.0229884
0.0208906
2.85769
0.0231592
0.0225955
0.0220369
0.055947
0.0439384
0.0231811
0.0229046
0.0414063
0.0216536
0.0217525
0.0230988
0.0220453
0.127188
0.0211744
0.0292666
0.0219279
0.0215079
0.0452339
0.0812599
2.74639
0.0214566
0.0502904
0.0606856
2.98067
3.32617
0.030285
0.021516
0.0240031
0.0285121
2.52677
0.0218284
0.0244989
0.0260802
0.0293041
0.0202721
0.0498859
0.0429124
1.13865
0.0220103
0.0216581
0.0807888
1.05405
0.0201445
0.0240276
0.0314928
0.020004
0.0223493
0.0421398
0.0210727
0.0214529
0.0216855
0.0239413
0.0738157
0.0338357
0.0223532
0.0207596
0.0221172
0.130204
0.0199389
0.020903
0.0251499
0.080105
0.0248702
3.56307
0.0239551
0.0214554
0.0215189
0.022823
0.0212088
0.0311494
0.0763199
0.0209801
0.0210113
0.0219459
0.0213028
0.0220445
0.042383
2.60192
0.0230355
0.0901325
0.0237004
0.021316
0.19787
0.0231785
3.56284
0.0217628
0.0217338
0.0207514
0.0214743
0.022404
0.0290642
0.0395
0.19391
0.0269531
0.0490553
0.0217504
0.031913
0.0214375
0.0230887
0.0314405
2.58911
3.0686
0.0218232
3.24218
0.262055
0.0391345
1.3065
0.019843
0.0214101
0.0216595
0.0227083
2.75772
0.0208486
0.0644876
0.229376
0.022319
0.0746789
0.0199918
0.0297076
0.290563
0.685872
0.0217896
0.267164
0.103471
0.261127
0.0254211
3.35083
0.0224256
0.127516
0.0918968
0.0205311
0.03663
0.0299633
0.0232948
0.174247
0.0291599
0.0210341
0.0224066
0.228085
0.0217176
0.0479753
0.0215615
0.0199094
0.0230995
0.0308155
0.0215294
0.0735801
0.0259411
0.0235884
0.019889
0.0214961
0.388928
0.0722791
0.129029
0.0317062
0.0244139
0.0270247
0.0250241
0.0214292
0.0225317
0.0318019
0.0229033
0.0237285
0.0204133
0.0251699
2.88217
0.02193
1.83462
0.122955
0.021673
0.0216424
0.0202924
0.0275197
0.0345601
0.020117
0.0248464
0.0227825
0.0219282
0.0211478
0.0220054
0.0213327
0.0215971
0.240222
0.0219426
0.0260496
0.021457
0.147933
0.450217
0.0214545
0.272193
0.0216162
0.0235476
0.0295621
0.268061
0.0277926
0.0210094
0.0213674
0.0318857
0.0393246
0.133922
0.0226211
0.0459589
0.10403
0.0218913
0.0214861
0.115792
0.0483092
0.0295714
0.0216579
0.0226907
0.0225303