/*--------------------------------*- C++ -*----------------------------------*\
| =========                 |                                                 |
| \\      /  F ield         | OpenFOAM: The Open Source CFD Toolbox           |
|  \\    /   O peration     | Version:  v2012                                 |
|   \\  /    A nd           | Website:  www.openfoam.com                      |
|    \\/     M anipulation  |                                                 |
\*---------------------------------------------------------------------------*/
FoamFile
{
    version     2.0;
    format      ascii;
    class       volScalarField;
    location    "450";
    object      omega;
}
// * * * * * * * * * * * * * * * * * * * * * * * * * * * * * * * * * * * * * //

dimensions      [0 0 -1 0 0 0 0];


internalField   nonuniform List<scalar> 
13917
(
5.22232
0.0379677
0.198947
0.0221365
0.0283366
0.037492
0.0259584
0.0779444
0.0249099
6.35004
0.0757228
0.0217253
0.0245219
1.42942
0.0274597
6.80244
0.0219297
0.0637018
0.102185
6.75777
0.0324612
0.0217224
0.0415427
0.0217248
0.0230489
0.0344475
1.55111
10.2571
0.0448913
0.0200507
8.74692
0.0602497
0.02216
2.95622
0.0214849
0.0955158
0.0237667
0.0239948
0.0259934
0.0363751
0.0217377
0.0218483
0.0236398
0.0967692
0.0960074
0.250248
0.0308906
6.21369
1.02704
0.0214997
0.0216955
0.105817
16.276
0.0216649
0.0217308
0.104937
4.62564
0.0415475
0.0217303
0.185806
3.509
0.0283965
0.0207709
0.0228852
3.09164
0.113922
0.0493201
0.0907481
0.0724218
5.69178
2.82728
3.07017
0.0217062
0.0215021
0.0332952
0.0234758
0.0243703
0.0214051
0.0232826
0.0222273
0.0222128
0.0220821
0.0216922
2.97437
0.0211504
0.132719
0.0581843
0.0216351
0.0360947
0.0218625
0.0207808
0.0237863
1.00674
0.021168
0.0221586
0.0491264
0.581928
0.0224354
0.0215329
0.115125
0.0211805
0.0211164
0.0222554
0.0215567
0.0243149
3.25868
2.79019
0.0282675
0.0221923
1.75659
0.0215387
2.91679
0.0448415
5.73456
3.09844
0.0238482
0.0955662
0.0208737
0.164132
0.0216382
0.0219907
0.0211339
0.0544879
0.0840129
5.28481
3.09605
0.0227354
0.0350667
0.0211759
0.0852991
0.0307231
0.125272
3.56722
0.0238106
0.0704898
1.82463
3.23131
5.1895
0.0367145
0.0239401
0.806126
0.0212556
3.24712
0.0211967
0.0216392
0.0243578
2.79733
0.615825
6.50203
0.0216973
0.0335468
0.0209765
0.0216204
0.0216465
1.26974
0.0224289
0.0214892
3.5417
0.021431
0.0210356
0.0211324
2.86878
0.0256117
0.7904
2.93391
0.124912
22.8473
4.54253
0.019588
0.0390084
0.0218537
3.45102
0.024874
3.2584
0.0634309
0.0211728
0.0221397
0.116568
0.0300803
0.0261378
0.0235476
0.0217633
0.0216939
0.168087
0.168209
0.110333
0.0216697
0.168457
0.0200471
0.124366
0.0634182
0.0887535
0.127122
4.97779
0.0211755
5.09417
0.0252594
3.63055
0.0214482
0.022191
0.0290549
5.47795
6.60521
0.023448
1.55371
0.0343839
0.0338842
0.0212581
0.115277
0.0222083
0.0209004
0.0344199
0.0403344
6.24258
0.0685441
0.0361839
2.92775
0.0227648
0.0203885
0.0203767
4.71694
0.149248
0.140238
0.0213633
0.0209368
1.9008
6.1183
0.0203301
0.0203147
0.0217827
0.020404
0.0203942
3.2187
3.93677
0.0218711
0.0195946
0.067815
3.30305
0.0215702
0.0213609
1.67862
3.31197
0.173192
2.9142
0.0867522
0.0212037
4.25374
0.0704451
0.0417744
0.0681849
0.0232151
4.39882
0.0216491
0.038744
0.0574282
0.021977
0.0219085
0.0228639
0.0266732
0.0215645
3.67181
1.20902
0.0211325
0.0203144
0.0225383
0.0203181
0.0216534
0.0244987
0.0343623
0.021261
4.15887
2.73154
0.0214893
0.0248351
1.01335
0.0202789
0.0868379
3.30186
0.0202907
4.20537
0.0214679
2.86615
0.0212405
0.0259861
0.0220477
0.0211677
0.134849
0.0229539
0.129917
0.0273635
1.12417
0.0249171
0.837846
5.43801
0.0211251
0.0471907
0.027154
0.024114
0.0278015
0.0232407
0.0212463
0.0225465
0.114493
0.0449571
0.0376672
0.0230983
0.0213441
3.58127
8.21712
0.0210994
0.0245028
0.0241478
0.575828
0.112275
2.72629
3.00436
0.133634
0.134773
0.0245762
2.79701
0.782291
0.197459
0.024316
0.0271935
1.39899
0.0221155
0.0405262
0.0877492
0.0217752
3.44846
0.0211974
0.0379514
0.0205162
18.2622
0.020802
0.0356197
0.0349671
0.112336
0.0216803
0.0682696
3.00453
0.0220602
0.0221081
2.90519
3.08635
2.68761
1.45175
0.0202661
0.0218298
3.38464
0.134086
0.0202802
0.0277343
0.0216689
0.0516269
0.0365599
0.102579
0.0832117
0.0876124
0.0375775
3.12037
0.0212125
0.0220671
0.0299764
0.1642
0.0217033
5.99606
0.0373659
0.279737
0.0217714
0.108087
0.0241762
0.612634
0.0218764
0.16298
0.936206
0.0373583
0.0215108
1.72776
0.0207505
3.20859
0.136909
0.0218706
0.705441
0.0224062
0.162633
0.0207397
5.76414
0.149944
0.0233282
1.91231
0.0766565
0.0228923
2.67205
0.208553
0.022961
0.136641
0.0217427
0.0786138
0.19804
0.0212226
0.0254685
0.0230714
0.0211519
0.0209364
0.0212608
3.0135
0.121328
0.0219036
0.0213241
0.0215734
0.0460659
0.109278
0.0203367
0.0196075
0.110544
0.107889
0.0211931
0.0231985
2.52739
1.92831
0.172271
0.108169
2.4478
0.0208343
0.0203019
0.0298747
0.0209262
0.0203512
0.0219458
0.0203182
0.0207717
4.41541
0.0217845
0.0390234
3.8108
0.0468193
0.0209201
0.0216029
2.69763
0.0291217
6.45134
0.0204497
0.0213428
0.0208431
0.0204192
0.0236623
0.0225923
2.48447
0.0275488
3.36403
0.0213373
0.0328907
0.0277608
0.022144
0.085036
2.66074
0.0216376
1.86611
0.0209526
0.0213631
0.0215327
0.022424
0.0208558
0.0222322
3.53738
3.55108
0.0208373
0.954624
0.108682
0.0218642
0.0511102
0.0649172
2.67387
0.0261256
3.28968
0.289588
0.295152
0.0226141
0.0956447
0.028925
0.023095
2.56991
0.0209229
0.0216146
0.0221639
0.0251891
0.0317261
0.146114
0.0486781
0.02404
0.025631
0.0625156
0.0502202
0.0219058
1.3015
0.0337175
0.0273798
3.2463
0.0211591
0.0520477
0.129338
0.0208422
3.35244
0.0214724
0.020416
0.0472129
0.0204594
0.0225364
0.113707
3.61451
1.91109
0.0211286
0.0223189
0.0233391
2.41398
2.20005
0.0218123
0.0217013
0.0211097
0.053362
0.56316
0.0212385
0.021602
0.0221199
0.0211321
0.0257674
0.0274263
0.021111
0.0494257
0.0208451
0.0216087
0.0229489
2.77565
0.020422
0.0234087
0.0215703
0.031991
0.0599145
0.0559674
0.0596975
0.122808
0.0227458
0.0549139
3.63148
4.00158
3.45595
0.0210292
0.0214924
0.0246519
0.0214138
3.14502
0.0203112
0.745995
0.0252488
3.48047
0.0956029
0.0236326
8.32599
0.0208293
0.0565108
0.022337
0.0225534
3.49976
0.020387
0.194116
0.0209993
0.0228283
0.0215321
0.139881
0.0261494
0.0202872
0.0976872
0.0500608
0.557088
2.63993
3.65835
2.68417
0.0204295
5.96013
0.0204246
3.32757
0.624138
0.023075
0.0236839
0.0211285
0.033315
0.023338
0.0204002
0.0223582
0.0242701
2.28022
0.0211774
0.0545986
0.0215849
0.0202753
0.0213626
0.121832
2.8075
13.2877
0.0639681
0.0273006
0.912649
3.20401
0.0207675
2.68533
0.0240325
0.0872733
0.0214084
1.35369
0.0211132
0.0262829
0.0216594
0.593358
0.0345354
3.08923
0.0212194
0.0331775
0.0214498
0.0213055
2.99514
0.126664
0.021649
0.111749
0.0213437
0.022265
0.0210893
2.86711
0.0211813
0.0270744
0.0202995
0.0215457
0.163574
0.02102
0.103666
0.0222609
0.0208185
3.36138
0.0561838
0.0217622
17.7227
0.187606
0.0777584
0.135884
0.0208122
0.028403
2.87222
0.210593
0.0287606
0.023777
0.0267801
0.0221232
0.0212481
0.178652
0.0646757
0.0245315
3.87969
0.034927
0.267912
2.26391
0.0427849
0.0340102
0.124357
3.76456
0.0212517
0.0312483
0.192383
0.0208298
0.0213648
0.0213322
0.0243975
0.0225216
5.68305
0.0324892
0.0212271
0.0817833
0.0211245
2.71672
0.0214601
0.021174
3.52095
0.056413
0.33985
0.0217563
0.0211885
0.0211532
0.0220468
0.0272408
0.0211578
5.96617
0.0291741
0.4996
0.334602
0.0309963
3.68078
0.0223244
0.0222462
0.0215123
3.20009
1.91995
0.0256115
5.70234
0.787669
0.0208126
0.0211341
0.0236806
3.17673
0.35403
0.034784
0.0220163
0.0234058
0.0900371
0.0239559
0.101831
0.0326283
0.0221057
0.02225
0.0222839
0.027158
0.025621
0.217605
0.0244605
0.0242226
5.70914
0.0210258
0.782137
0.0234891
0.032404
0.0250848
0.20181
0.0219444
0.0533387
2.78754
0.229448
0.0214359
0.0244832
0.0232814
0.0213354
0.0216473
0.0321977
0.0282109
0.145018
0.104387
0.0207865
0.189219
0.024863
0.025216
0.115095
0.0219162
0.0564161
0.296393
0.0203079
0.0564527
0.0740535
0.0323441
0.0210612
0.0208823
0.0212386
7.03218
0.0221224
0.0216368
0.037502
0.0211822
0.0209679
0.10003
0.139399
0.0403531
1.94203
0.0476184
3.44656
0.0216524
0.0248043
0.356028
0.0231339
0.0320186
0.0216625
0.0213273
0.0217323
0.0248961
0.0581289
0.0210573
0.141865
0.0219706
0.637058
0.0235204
0.0260665
0.0205238
0.0689704
0.0262386
2.79097
0.0425338
0.0220595
2.76014
0.022328
3.88331
0.0231716
0.0625331
0.0234937
0.0209617
0.0214213
3.37463
0.0270821
0.0817154
1.91034
0.0213299
0.032589
0.0195814
0.0256866
0.564196
0.0196061
4.00019
0.0234776
0.0628524
0.0933242
0.19205
0.0204475
0.0214273
0.0917686
0.0208037
0.0216317
0.0227731
0.0214515
0.0376081
0.0204348
0.115302
0.022103
5.5558
3.99502
0.618006
3.44337
1.91937
7.41842
0.545889
0.0207532
0.0221582
0.0215447
0.0223366
0.0211136
0.0271914
0.0212203
0.15847
0.0216643
1.16635
0.022049
0.0292904
0.0801223
0.0210758
0.0388993
0.0223265
0.022789
0.0253183
0.020744
3.76703
0.0691727
0.18803
0.0210972
0.0215031
0.0219385
0.0220471
2.9841
0.0207749
0.122283
0.0210962
0.294504
0.0256753
0.0212047
0.0549493
0.0288395
0.0207865
0.307525
2.67429
0.0238042
0.0688114
0.0207873
0.118477
0.021051
0.0220447
3.48234
0.0216917
0.0222032
0.0803913
3.8202
0.0213775
0.668285
1.11039
0.0220321
0.0229842
0.0214929
2.03274
0.0214759
0.104895
0.021645
3.40206
0.0260177
2.18026
0.0213271
0.0201857
0.193315
0.0230565
0.0208906
3.6389
0.0227464
0.0209268
0.86611
0.022022
0.0221515
0.0638559
0.0228699
3.14928
0.0368482
0.0647474
0.123292
0.0233557
3.3436
0.0222984
0.0599313
0.0213828
3.6369
0.296049
0.021807
0.0210789
0.0222148
0.0218147
0.0209029
0.0208297
0.021197
0.0214145
0.0278713
0.0203085
0.0225835
0.0641385
2.92031
2.791
0.0747966
0.021946
0.220422
0.0211775
0.343435
0.569789
23.9182
0.0203738
0.0207628
0.0217259
0.0215801
0.0203521
0.0208435
0.0212426
0.0350121
0.020934
10.6121
0.819775
0.0209664
3.3967
0.0213932
0.0212705
0.0276436
2.83492
0.0547271
0.0211298
0.347993
0.0213043
0.0212849
0.197969
0.0222577
1.53715
0.0222757
0.0738659
0.0209272
0.0211952
0.0293118
0.0881078
0.0226597
3.03165
0.0310633
0.0231371
0.0232669
0.0215
0.0208626
0.0805032
0.0317338
0.0243838
3.09921
7.67576
0.0667988
0.0848594
0.0211366
3.22345
0.021135
2.71529
0.0559592
0.0255511
0.0225097
2.17755
1.88918
2.11294
0.0221655
0.636218
0.0209057
0.0212257
0.0327352
0.022053
0.0216232
0.286842
4.1006
0.0211944
0.0263621
3.36797
0.0210008
0.0202894
0.73074
2.73658
0.0222338
0.0205253
0.0256138
0.0215817
0.02124
0.0321203
0.0251655
0.0215283
0.466642
0.0222182
0.130246
0.579031
0.029626
3.52313
0.0217817
0.0220078
0.0380059
3.83822
0.116779
0.0246183
0.0304338
0.0219378
0.0223018
0.0213408
2.75749
0.0264206
0.0222946
0.0472724
0.0211668
0.229911
0.0670312
0.10164
0.0524425
0.469413
0.352439
2.49153
3.13817
0.0239884
0.408793
0.0203071
0.0519378
0.0689082
0.553108
0.0241012
0.0225701
0.0248116
0.352497
0.0228793
2.6805
0.0325159
0.07722
2.68249
0.0213107
0.0865152
0.0231308
0.0216179
0.0271795
0.0875146
0.0203157
0.0207361
0.0225341
2.73836
0.0209255
0.0227605
0.0233365
0.0222948
0.0215224
0.0805139
0.0605526
0.0222976
0.0210614
0.0906725
0.0311199
0.0344379
3.42055
0.0217968
0.0214451
1.91934
0.0216454
0.0229531
3.17362
3.41567
0.0286348
0.0520121
0.0257563
7.60913
0.125337
0.0305907
2.65252
0.0211979
0.0700538
2.72224
0.173119
0.518569
0.333957
0.020748
0.0215727
0.0244388
0.0215423
0.0216555
0.217479
0.0216997
0.040489
0.0205105
0.050518
2.69581
0.0228987
2.48667
1.89781
0.0214433
0.0660661
0.025563
0.022631
0.0213364
3.3009
0.0627456
3.61134
0.0264105
3.93896
0.0755888
0.0211969
0.600243
0.032675
0.0228098
0.0212184
0.171761
0.0213429
0.0248983
0.0341435
0.0249703
0.0219651
0.0491211
2.15243
0.0211447
0.139417
0.078445
0.0216303
0.0211554
0.0244042
1.9252
0.279209
0.0208987
0.0285963
0.02632
0.297382
6.60418
0.0215856
0.0209522
0.0207457
0.021506
0.0247806
0.0235581
2.33649
0.0221201
0.0238461
0.0807113
0.0266177
0.0737938
2.77031
3.90903
0.0217819
0.0216045
0.0209013
0.0225087
0.0607633
3.81383
0.156429
0.0824335
0.0287076
0.0445965
0.0232614
0.0231633
0.0246691
0.094555
0.0211668
0.115402
0.0247692
0.0208054
0.0217412
2.97523
0.043944
0.0568349
3.13565
0.109793
0.0211556
0.725038
0.0236951
0.0212373
2.71
0.475289
0.0211847
0.0285985
0.0923721
0.0316206
0.0221452
0.0204158
0.0211678
0.0208941
0.0213331
0.028145
0.0462245
4.42896
0.0320386
0.0249714
0.0295814
0.0730099
0.0210268
0.0317912
0.152149
0.195374
2.73798
0.0227006
0.0203992
3.52644
0.0210665
0.0974351
0.0226598
0.0392064
0.0218424
0.0211197
0.16242
0.0253744
0.0226252
0.0214936
2.0849
0.258868
3.26828
0.0218129
0.0215391
0.404538
0.0210192
0.0208572
0.104794
0.505876
0.0258593
0.0311185
0.0220877
2.64063
0.0212454
0.0240425
0.0219662
0.020383
0.188667
0.021241
0.0208746
0.343143
0.051697
2.06027
0.190045
0.0211854
0.0284814
0.020973
0.0211184
0.0233251
0.0225315
0.0216053
0.162608
0.0215769
0.0634215
0.0267653
0.0248619
0.0215987
0.021949
0.0212131
3.35488
0.0203094
0.174754
0.0609521
0.0228468
0.0464136
0.0310745
0.0287463
0.021511
0.0261437
0.020948
0.0208021
0.265082
0.0342331
0.0269341
0.0214486
0.0213563
0.0211402
0.0661516
0.021168
2.87207
0.0411151
0.0212611
0.0213124
0.0206545
0.0408947
0.0352546
1.91054
0.0321741
0.228052
0.025091
0.0832875
0.0235686
2.86738
0.0205039
0.020267
0.0243035
0.240675
0.0206824
2.92933
0.0215818
0.0215691
0.106643
0.178324
8.23547
0.182066
0.0249104
0.130612
0.0381117
0.0207886
2.88225
0.0214033
0.0211557
2.04739
0.0205807
2.95397
0.0521008
0.0210791
0.0214277
0.0208227
3.68323
0.0213827
0.020414
0.0656875
0.0211909
0.0209441
0.0215593
0.020811
0.0405456
0.021683
0.0239643
0.0207138
0.886099
0.0455377
0.0207328
0.0207406
0.0221895
0.0212971
0.0234773
0.0218789
0.0213752
0.021708
0.0214626
0.0223701
0.0214885
0.0574358
0.0206504
0.069367
0.021644
0.0434337
0.0208668
0.021586
0.0211616
0.0203553
0.0336262
0.0256967
0.0244794
2.0756
0.0307195
3.45504
2.78036
0.0693727
3.50904
0.0215952
0.0214676
0.355859
2.58122
0.0212287
3.31344
0.0207436
0.102737
0.747585
0.0233639
0.0711691
1.45065
1.89917
0.0214425
0.0420874
0.0209828
0.065804
0.0237669
3.15797
5.34899
0.0216812
0.0434464
0.188523
0.0220208
2.34389
0.246234
0.0229216
0.0209571
0.222784
3.31088
0.0207855
0.0298985
0.021866
0.134523
0.113605
0.0215435
0.0208972
1.33234
0.0210776
0.0214499
0.0220327
0.0207528
1.85202
0.0279829
0.0271403
3.17739
0.0213381
0.0527116
0.0216967
0.220402
0.0492409
0.0721375
0.0208363
0.0264475
0.0208156
0.0218221
0.0234272
0.0214839
2.53376
0.0224876
0.0207949
0.0211559
0.265419
0.0209398
0.378484
2.46376
0.807495
0.0215507
0.0209601
0.0212465
0.69366
0.0217649
3.0631
0.0215229
0.653768
0.0228206
0.0227835
0.171648
0.0215976
0.0218815
3.36017
0.0942503
2.90652
0.0219625
3.46951
1.89659
0.0215446
3.10575
0.0216758
0.0250032
4.08736
0.0232899
0.0380311
3.68284
0.0284939
0.059304
0.0215872
2.1536
0.0214282
0.448541
0.0212496
4.22698
0.0214491
0.0215737
0.0233236
0.631996
0.0209928
0.0285609
0.0575422
1.29797
0.0212613
0.0278106
3.486
0.0918826
1.66273
0.0672382
0.0208644
0.0949802
0.47938
0.0237006
1.18667
0.020222
0.123171
6.21075
0.0210409
6.50159
0.0213146
3.39542
1.33044
0.0234109
0.0236261
0.486689
0.747412
0.0214738
0.0225928
0.0207689
0.0215639
3.12057
0.0569079
0.169755
0.0216897
0.026288
2.99783
0.0294183
0.479528
1.70715
0.0211481
0.0213862
0.160371
2.46299
2.13864
0.762384
0.166197
0.035477
0.0481478
3.43572
2.69996
0.542927
0.0209572
0.0693683
0.0402781
0.0622451
0.0214415
0.0252397
0.0527882
0.120053
0.810309
0.0221919
1.53188
3.15737
0.0392347
0.021429
0.0214329
0.0761229
0.0210018
3.58359
0.0268106
0.0218765
0.140866
0.0346992
0.0207192
0.0330165
0.0280686
0.0214653
3.71089
0.0260479
3.74894
0.0210562
2.99114
0.235652
0.166325
0.0203547
0.0255078
0.0288924
0.129485
0.0970487
0.0596286
3.1276
0.186726
0.0196367
0.0249295
0.0223947
0.106438
6.29526
0.0206857
0.0206955
0.0225182
0.818264
0.145339
0.0211109
0.0450971
0.13924
0.02093
0.0330612
0.0235789
3.7336
0.0264988
0.0639726
3.16918
0.0269911
0.0240648
1.05637
0.0211458
0.041936
2.80972
0.0246208
0.0762121
0.0295462
0.051327
2.4184
3.41886
0.0215662
1.05712
0.149725
0.0205876
0.111329
0.0585528
0.0940132
2.44383
0.213123
0.796127
0.09248
2.69794
0.0258609
0.058037
0.0204149
0.0217265
0.0215133
0.0209324
0.174107
0.121027
0.0203191
0.0414794
0.145499
0.0211326
0.508612
3.10208
0.020085
0.0217268
0.0205226
0.0224373
0.040077
0.0214246
4.1953
0.0279357
0.0614405
0.0252603
0.0607096
0.0475379
0.0311724
1.54947
0.0214646
0.0225282
0.0202747
0.0209905
3.51402
0.0818295
0.0274507
3.69403
0.0217493
0.0220188
0.0300789
0.0207748
0.0211941
0.0656652
0.0246095
3.16375
2.03683
3.27602
0.021619
2.94891
0.0212639
0.235398
0.0206987
0.119306
2.21439
0.0215467
0.608568
3.43018
0.0304038
0.0224843
0.0209357
0.0265586
2.64547
0.0207278
0.0217638
0.0226823
0.0241544
0.162073
0.0228385
0.0248471
0.021117
0.022681
1.15994
0.0315561
0.0236438
0.106556
0.0725485
3.23747
0.624863
0.0233085
0.0223843
2.86864
0.0214582
0.0578875
0.0216428
3.17216
0.02216
0.0219447
0.0306756
2.83216
0.0213901
0.0208335
0.0204858
0.121478
9.67125
0.100915
0.0214806
0.0235689
0.020933
3.24086
0.0209702
1.91755
0.0505415
0.0217517
0.136922
0.031697
0.227806
0.0220077
0.0208453
0.0284615
0.0378134
0.10496
0.0217074
0.0219118
0.0220543
2.83263
0.0216826
0.0223972
3.37632
0.0228335
0.0279631
0.0240074
0.021136
0.0213447
0.5768
0.0231057
1.43079
0.263832
0.0200279
1.83626
0.0218395
0.0908211
0.0437895
0.0226451
0.0203981
0.0199997
0.0214127
0.827853
0.042535
3.40652
2.67406
0.0209658
0.0276014
0.0354953
0.878085
0.0214106
0.146658
3.43838
3.03945
0.0213497
0.0227208
0.0219463
0.360582
3.48479
0.021759
0.0215484
0.0286684
4.29342
0.0216569
0.0227872
0.022823
0.100233
0.525399
0.0205229
2.72935
0.0279881
0.0214178
2.6437
0.0502702
1.84261
0.456007
0.0300587
0.0252377
0.0224497
0.0257957
0.0220544
0.0599742
0.0429174
0.0213835
0.0238635
0.199063
2.10229
0.0207113
0.0934045
2.81748
1.52933
0.021532
0.0215421
0.270876
2.56421
0.0724733
0.0211777
2.70077
0.0582627
0.0200946
4.42657
0.0261801
0.0217042
0.169878
0.0214484
0.0314424
0.020929
0.019896
0.0215952
0.0204807
3.08913
0.0203104
0.0211801
0.0675684
0.0243666
0.0240442
0.114859
0.0215155
0.0214821
0.0226885
0.0222972
0.230896
0.228992
0.313266
0.879773
0.0326664
0.552515
0.0429649
2.8592
2.17074
3.03379
0.0209176
0.0284996
0.0214303
0.0215435
0.021057
0.022401
0.158878
0.0524186
0.0352033
0.0211099
0.0213925
0.0494377
0.0217454
0.0218675
0.0215223
3.26055
0.0291653
7.64407
0.021608
0.264319
0.0219585
0.0218798
0.0221209
0.0385562
0.0210716
0.0743503
2.88615
0.0377354
3.5861
0.625093
0.0233718
0.0262822
0.336595
0.097252
0.0204684
0.0210088
0.0200206
2.69189
0.0198754
0.0656093
0.0402609
0.0677131
1.58246
1.54175
0.0573083
3.74999
0.0208079
0.0204765
0.108017
2.78069
0.0214221
0.0215916
0.195305
0.0209707
0.161823
0.0228893
0.0208683
0.0246818
0.0215151
0.0626389
2.80658
3.07056
0.024123
0.0216458
0.0690051
0.0224104
0.0680094
0.0209174
0.117512
0.0787038
0.0218663
0.0216597
0.0200785
0.105945
0.0472333
0.16494
1.96121
0.0280513
2.88494
0.0647735
0.0950314
3.28853
0.0212815
2.67789
0.0222291
3.28983
0.16148
2.6646
3.14962
0.0221401
0.048101
0.116108
0.021483
3.79569
0.0214866
0.0215006
0.025092
0.0220197
0.0288201
0.188202
1.12731
3.89656
0.024969
0.0367587
0.0224211
0.0218926
0.0216633
0.111264
0.0754778
2.59234
0.0404184
0.0203694
0.0207778
0.0220452
0.20249
0.0237261
0.0223759
0.0243612
0.0775584
0.029483
0.0384366
0.0350372
2.72839
0.0277452
0.0304357
0.0214171
0.0251525
0.659151
0.252883
0.0424155
0.0207707
2.64052
0.0304501
0.0211514
0.0434181
2.88391
0.24304
0.0309346
0.0209841
2.71404
0.0219132
0.0209379
0.0204169
2.06789
1.35695
0.0233572
2.42331
2.92584
0.0247012
0.0351241
0.0530801
3.71609
0.0287942
3.44752
0.0219538
0.0641933
0.0248439
3.60497
0.0309114
0.0209055
3.03433
0.0216913
0.0222378
1.72907
2.96255
0.0587349
0.934913
0.0238879
0.0224819
2.25538
0.0211542
0.0211895
0.0215756
0.0405982
0.0213966
0.0295739
0.0246886
0.219448
1.34022
0.0220927
3.7702
0.0245203
2.96864
3.44753
0.0215504
0.0217118
0.0247132
0.139866
0.158495
0.0587494
2.88123
2.67266
0.265852
0.0227209
2.57547
3.05887
0.0440397
0.964953
0.0215966
0.0213689
0.0215924
0.0223799
0.0213048
0.0307474
3.12177
0.0295885
0.26956
4.53116
2.52961
3.05992
3.28849
0.0274947
3.59981
0.0934165
0.0653488
0.0206783
0.0215261
0.0600743
4.01551
0.0225387
2.81772
3.13933
0.0209606
0.0215904
0.021812
0.076371
0.022005
0.0639138
2.69053
0.020686
0.0214089
0.0209361
0.022151
0.0858244
2.92093
0.0334558
2.90663
0.095351
0.0211665
0.260352
0.107656
0.0217368
0.320708
1.02101
2.47571
1.87617
3.42435
0.0214074
2.32969
2.96559
0.136788
2.9351
0.0210341
0.0229753
0.023434
0.0230611
3.21275
0.0582306
0.0216867
0.0260688
0.295608
3.05259
0.0226145
0.022136
3.52492
3.26369
0.0217044
0.0266493
0.0917283
0.0213258
0.021416
2.15735
0.0211226
0.214885
0.261544
3.31407
0.0210549
0.0648635
0.124326
0.0211225
0.0201475
2.06712
2.202
0.0219668
0.0312905
0.147152
0.182905
3.50516
2.27551
0.0248561
0.257194
0.352871
0.0320065
0.0211162
0.0708155
0.0204348
0.0202656
3.22273
0.0347642
0.081936
0.0238485
0.0254389
0.0210039
0.0205037
0.022053
0.0222302
2.58633
0.0236478
1.75099
6.08887
0.0397783
0.0628425
2.61013
3.5189
2.583
0.0209523
0.0241841
0.0324628
0.0246673
0.158596
0.252045
0.0220325
1.45422
3.24391
0.02555
0.0800885
0.0662357
0.0873729
0.0953577
0.0225379
0.106085
0.116252
0.127737
0.141138
0.0984516
0.0724285
0.025964
0.0210983
0.0305111
0.0793991
0.0210878
0.433344
3.6599
0.142901
2.97798
0.0201179
0.020763
0.0673999
2.82442
0.022162
0.0234806
0.0565445
3.14767
0.293889
0.0214837
0.0292199
0.0244657
5.84869
0.291881
0.0236637
0.301911
3.02075
0.0884861
3.35776
0.0829969
0.226576
3.60318
0.0195811
3.68592
3.12464
0.0223632
0.0615531
0.0849696
0.0249863
0.0209291
0.156434
1.19238
0.020965
0.0210143
2.38847
0.431461
0.0690488
0.0217085
0.197009
0.113099
3.10812
3.71126
0.0215702
0.021378
0.0221187
0.0230609
3.38505
0.229122
3.00604
0.0740753
0.16149
0.538173
0.0230754
0.0210619
3.086
0.0209881
3.5305
0.0208264
3.3578
0.0223661
0.0222916
0.3906
0.0216333
0.0977444
0.333694
0.024298
0.0232816
0.0224746
0.154062
3.25601
0.134142
3.01101
0.0243356
0.0229627
0.0264871
0.066607
3.80198
3.68951
0.0839341
0.193735
0.108233
2.5738
0.0211856
0.0209613
0.020703
0.0206794
0.149305
0.0601577
0.058875
0.0376189
0.128995
0.0211337
0.290929
0.828632
5.41455
0.0214694
0.0226052
0.0199129
2.96796
0.0242382
0.615998
0.148279
0.105551
0.171856
0.0200492
0.0340273
0.130351
0.150563
0.371425
0.0216492
0.116313
0.0219672
0.0219467
0.0874397
0.879776
1.52151
0.0217761
0.0749304
0.113977
3.09082
5.2031
3.38562
3.36805
0.0210621
0.0539987
0.0216298
0.120787
0.0212489
0.0955121
0.0230227
0.0441252
0.232916
0.401527
0.0239414
0.0894864
3.09943
0.101352
0.023281
1.83205
0.0931456
0.0224873
0.022264
3.26316
0.0272836
0.109173
0.243722
0.143454
4.02144
0.0234901
2.97524
2.86167
0.558214
0.13134
0.0294404
0.0948153
0.0857329
3.32335
0.0587386
0.0220562
0.997123
0.0440142
0.361092
0.0264096
3.98513
0.691706
1.50475
0.0252721
1.50352
0.0236705
3.03725
0.133376
1.78952
7.33
0.0209457
0.0198947
3.06973
3.64584
0.0310715
0.0219812
0.0385746
0.0287935
2.95258
0.0650947
3.14947
0.025099
3.20768
0.106909
1.05484
0.022017
0.13695
3.73515
0.0241674
0.0746633
0.0201006
0.0237784
0.0216128
0.2559
0.021194
0.0216142
3.57408
2.66313
0.0206618
3.72746
0.0221966
0.0215223
0.021303
0.02097
0.0217318
0.371805
3.4862
0.0206766
0.875095
0.0605424
0.0434215
1.22217
0.0762261
0.0247212
0.0299615
0.0212974
0.248959
0.0287189
3.76517
0.024825
3.08706
0.715922
0.0627285
1.52353
3.28081
0.0207917
3.63959
0.050006
0.0588331
0.0383793
0.0211865
0.0378915
0.162527
0.0215738
0.121036
0.0214205
3.34289
0.126098
2.42749
0.151237
0.144899
3.54089
0.0215604
0.0212474
0.0563878
0.022684
0.021712
0.0217378
0.0260791
0.021107
0.0212011
0.0224624
0.0392528
0.0229184
0.0261604
0.0229243
0.034122
0.0884266
0.0231905
3.44729
0.0229871
0.0212567
0.082841
0.038586
0.0231616
0.0210977
0.871434
0.0231009
3.149
0.0232579
0.0998694
0.021305
0.0214371
0.0892409
3.65212
0.0633706
0.0325941
0.0201919
3.12459
0.0216343
0.0211647
0.0689015
0.0235217
0.125295
3.07785
0.0873695
0.13135
0.0382554
4.06791
0.0214833
0.0216064
0.0566154
0.258076
0.0538947
0.0883061
3.02105
0.0263636
0.0215586
0.0266678
0.197858
0.0516876
0.0215914
0.0903591
0.0856581
0.0578928
0.021728
0.0216289
0.165406
0.0569163
1.58489
0.559341
0.0234118
0.0634872
0.0217037
0.040462
2.35887
0.0216761
0.143555
0.0472317
0.0737583
1.18064
0.0215402
0.0213769
0.0212501
3.56709
0.187996
0.0231389
0.0880101
0.0986555
0.0216811
0.0214276
0.106798
3.67474
0.166608
3.12724
0.13143
0.0289081
0.280694
0.108144
0.0287253
0.574483
0.0784649
0.583443
0.0215125
0.0860969
0.119134
0.022241
1.26132
0.03641
0.0769295
0.0260226
0.130978
0.0211127
3.98243
0.0239899
0.0208113
0.0210263
0.0207717
0.0224751
0.0222926
0.020928
0.0236594
0.0216006
0.0221915
0.241441
0.0706908
0.0220929
0.0573786
0.0240409
0.0225058
0.0204626
0.0423919
0.0264207
2.17595
0.0215569
0.021581
0.0615069
0.142808
0.0215826
0.0215356
0.098933
0.0231917
0.0819608
0.0545226
0.0215841
9.4592
0.023375
0.0221913
0.0677237
3.7826
0.022542
0.052487
0.0209621
0.0249919
0.0214188
0.0261066
0.0211899
0.0215948
0.0434856
0.0549362
8.69063
0.0463182
0.0214931
0.0272102
3.26243
0.0463201
0.154983
0.0894986
0.0216258
0.0489742
0.877467
0.163411
1.85039
0.0250621
3.35308
0.27686
0.0281214
0.0216824
0.0673555
0.0221455
0.0511911
3.08972
0.0215539
0.0512727
0.0217626
2.83535
0.0430816
0.0222512
0.0556078
2.94879
0.402749
0.0234341
0.0657627
0.0288497
0.0206459
2.02793
0.0205365
0.0318119
0.0210997
0.0244962
2.67881
0.065156
0.0205982
0.0277468
0.151479
0.0215378
0.0218595
0.0270942
0.0247537
0.0214489
0.023357
0.0240266
0.0219686
0.0211033
0.0559295
0.0924456
0.156206
0.021032
0.052805
2.97375
4.32639
0.0209353
0.0215845
0.0244638
0.0809543
0.0220959
0.0210866
0.0212227
0.0209449
0.0252962
0.0264434
0.0247898
0.0591342
0.0230072
0.0204774
0.0230247
0.0578261
0.0432066
0.0954415
0.0220771
0.0273208
3.19142
0.0281015
0.0241054
4.1289
3.18803
0.08812
0.0612096
0.14244
0.0213897
0.303775
0.0261732
5.78547
0.0214126
0.0212303
1.32782
0.0208208
0.259267
2.87915
0.0219259
14.1578
0.0291548
0.0302414
0.0259083
0.0659689
0.0276905
0.0253968
1.58975
0.020893
0.023756
3.50731
0.0228356
0.021465
0.0288075
3.15463
0.0221072
0.0221098
3.21719
0.0238691
0.0258631
0.0529224
0.0203699
6.0835
0.0236331
0.0222462
0.0920473
0.0520196
2.98864
0.0231235
1.75508
0.0315933
0.0803431
2.46132
0.0215439
0.0307422
0.0810376
0.0220801
1.95297
0.0221427
0.0229455
2.89368
0.0222424
0.0382004
0.0792559
0.458548
0.0286549
0.0256334
0.0222114
0.0234577
0.0801963
0.023952
0.0292056
0.0708445
0.0490341
0.0216875
3.39185
0.0355176
0.0204879
0.0226473
0.0212394
0.0208491
0.0203761
0.0215635
0.0215113
0.0284824
0.0234475
0.037511
0.020245
0.0204621
0.0225769
0.070782
0.0207501
0.0292874
0.0557332
0.027535
0.0285548
0.0214281
0.0229554
0.0237591
0.0354311
0.0273552
0.0239382
2.67213
0.0217041
2.02898
0.0242443
0.0794334
0.0780533
0.0215298
0.0535031
0.0296776
3.11924
3.01661
0.0247134
0.0217079
0.0231888
0.0283521
0.0441821
0.0214822
0.223188
0.0486503
0.0225662
0.0523111
0.042827
0.0562254
0.0273031
0.156006
0.0792209
0.0262126
0.392022
0.0234174
0.114869
0.0223219
0.0212701
0.0738287
0.0759591
0.021398
0.04625
0.0214435
0.0216337
0.0214556
0.0219592
0.0214826
0.0214098
0.0213939
0.0221393
0.144209
0.0226499
0.0213527
0.0223893
0.0223994
0.166845
2.93382
0.0528035
0.0236832
3.3089
0.021431
0.0213656
0.0535421
0.0303762
0.0222615
0.022175
0.0216438
0.141116
0.0217476
0.0248572
0.0222306
0.031931
3.75265
0.0214549
0.0523963
0.0593229
0.024506
0.0402223
0.0208071
0.0216632
0.0549751
1.73747
0.0229676
0.0337773
2.0763
0.0827035
0.0209103
2.75916
0.0225177
0.0196369
0.0502329
3.52033
0.0214782
0.0207436
0.0228849
0.0295846
0.0317146
0.0214235
0.0222904
0.0368694
0.021659
0.0275386
0.0250258
1.14745
0.020497
2.74952
0.282524
0.03663
0.0213425
0.0823589
0.0211095
0.0231151
0.0215723
0.0508784
0.0202237
0.0202011
0.0377467
0.0530731
0.565333
0.021865
0.0201223
0.0229883
0.0208905
2.85785
0.0231591
0.0225953
0.0220368
0.055947
0.0439382
0.023181
0.0229044
0.0414058
0.0216535
0.0217526
0.0230987
0.0220452
0.127126
0.0211743
0.0292628
0.0219279
0.0215079
0.0452347
0.0812603
2.74625
0.0214566
0.050306
0.0618361
2.98037
3.3263
0.030286
0.0215159
0.024003
0.0285119
2.52794
0.0218283
0.0244988
0.0260801
0.0293036
0.0202721
0.0498844
0.0429132
1.13919
0.0220102
0.021658
0.0807927
1.05623
0.0201445
0.0240276
0.0314926
0.020004
0.0223491
0.0421395
0.0210701
0.0214528
0.0216855
0.0239412
0.0738138
0.033835
0.0223531
0.0207597
0.0221171
0.130196
0.0199389
0.020903
0.0251495
0.0801049
0.0248701
3.5622
0.0239548
0.0214554
0.0215189
0.0228228
0.0212088
0.0311493
0.0768611
0.02098
0.0210113
0.0219459
0.0213028
0.0220444
0.0423835
2.60331
0.0230356
0.0901221
0.0237006
0.0213159
0.197529
0.0231783
3.56246
0.0217627
0.0217337
0.0207514
0.0214743
0.0224038
0.0290637
0.0395414
0.190103
0.0269514
0.0490567
0.0217503
0.0319102
0.0214375
0.0230885
0.0314397
2.5905
3.06815
0.0218232
3.24241
0.261006
0.0391347
1.2871
0.0198431
0.0214101
0.0216594
0.0227081
2.75865
0.0208485
0.0644808
0.229151
0.0223188
0.0746823
0.0199918
0.0297066
0.292372
0.689398
0.0217895
0.267121
0.10345
0.26073
0.025421
3.35026
0.0224255
0.127451
0.091906
0.0205311
0.0366278
0.0299638
0.0232946
0.170622
0.0291594
0.021034
0.0223989
0.227362
0.0217174
0.047984
0.0215614
0.0199094
0.0230986
0.0308152
0.0215294
0.0735825
0.0259397
0.0235879
0.019889
0.021496
0.386175
0.0722774
0.129011
0.0317061
0.0244138
0.0270229
0.025023
0.0214291
0.0225315
0.031802
0.0229031
0.0237284
0.0204133
0.0251698
2.88137
0.0219299
1.84412
0.122959
0.0216729
0.0216423
0.0202924
0.0275196
0.0345623
0.0201171
0.0248462
0.0227823
0.0219281
0.0211478
0.0220053
0.0213325
0.0215971
0.240428
0.0219424
0.0260469
0.021457
0.147882
0.446312
0.0214545
0.272234
0.0216161
0.0235475
0.0295629
0.266922
0.0277925
0.0210094
0.0213673
0.0318775
0.0393245
0.133907
0.0226209
0.0459594
0.104037
0.0218913
0.021486
0.115647
0.0483101
0.0295713
0.0216579
0.022682
0.0225303
0.0231152
0.0209595
2.00179
0.0237738