/*--------------------------------*- C++ -*----------------------------------*\
| =========                 |                                                 |
| \\      /  F ield         | OpenFOAM: The Open Source CFD Toolbox           |
|  \\    /   O peration     | Version:  v2012                                 |
|   \\  /    A nd           | Website:  www.openfoam.com                      |
|    \\/     M anipulation  |                                                 |
\*---------------------------------------------------------------------------*/
FoamFile
{
    version     2.0;
    format      ascii;
    class       volVectorField;
    location    "300";
    object      ddt0(U);
}
// * * * * * * * * * * * * * * * * * * * * * * * * * * * * * * * * * * * * * //

dimensions      [0 1 -2 0 0 0 0];


internalField   nonuniform List<vector> 
13917
(
(0.000384968 -0.000209721 -1.43251e-17)
(3.16085e-05 2.98443e-06 -3.75442e-20)
(-0.000554059 -0.00210968 2.11672e-17)
(-0.000222731 -0.000339408 -1.55594e-17)
(-3.63113e-05 0.000143393 2.82971e-18)
(5.80615e-06 0.000526441 9.40271e-17)
(-4.90824e-05 -0.0031878 3.27385e-18)
(-0.00228334 -0.00074865 7.19304e-18)
(-0.00210934 0.00353353 6.91132e-18)
(0.000588855 -0.000341693 1.48799e-17)
(0.00240555 -0.00268579 2.17158e-17)
(-0.000123553 -0.00146611 8.73097e-18)
(-0.000239909 -0.000353218 1.51478e-17)
(-0.00730895 -0.000226158 1.84101e-17)
(0.0001724 0.000149065 -2.2129e-18)
(0.000175784 8.45667e-05 2.35744e-18)
(5.6362e-05 3.99489e-05 4.24856e-19)
(0.000224157 1.13005e-05 1.7859e-17)
(-0.000202031 -0.00150889 -4.40341e-18)
(-0.000119083 5.40698e-05 2.60673e-19)
(-2.0545e-05 -1.99348e-05 2.33997e-18)
(-0.000288171 -0.00323064 -1.34433e-18)
(-8.51494e-05 8.76683e-05 7.7336e-19)
(-0.0020996 -0.0011071 3.77425e-18)
(-5.39269e-05 9.44932e-06 8.44649e-18)
(0.00199282 -0.00443939 -9.59311e-18)
(2.67265e-05 0.000369677 8.81422e-18)
(0.000104333 0.000407473 5.98292e-17)
(0.00011748 0.000774374 -4.84579e-18)
(0.000118111 -0.000737019 5.82774e-18)
(0.000358056 -0.000258753 9.94917e-18)
(0.000237457 -0.000142796 1.87105e-18)
(7.98931e-05 0.00033106 3.30864e-17)
(-2.52169e-06 0.000294564 -1.09e-17)
(-1.94746e-05 2.12297e-05 -3.55349e-18)
(0.00368302 -0.00611896 7.0279e-18)
(-8.8559e-05 9.05693e-05 -8.37935e-20)
(-0.00606165 0.000828617 -2.10735e-17)
(-0.00022749 -0.000464206 1.68615e-18)
(0.00590737 -0.000795129 1.91886e-17)
(-0.000376232 6.01338e-07 3.49479e-21)
(-1.12573e-05 -1.13986e-05 5.03866e-18)
(-0.000353682 -1.77088e-05 1.48023e-18)
(0.000132965 0.000471612 5.10749e-18)
(-4.91558e-05 -0.000140362 -1.04862e-18)
(1.8581e-05 0.000302254 -2.36029e-18)
(0.000250959 1.98243e-06 -2.05389e-17)
(0.000713661 0.000201637 -1.58582e-17)
(5.07515e-05 0.00053198 -9.92374e-17)
(-0.000249325 1.95397e-06 7.88613e-19)
(0.000122758 -0.000219807 -5.00703e-18)
(6.07762e-06 0.00017458 -1.29188e-17)
(8.35953e-05 0.000477058 5.22054e-17)
(-9.51206e-07 0.000297004 4.50506e-17)
(5.59987e-05 4.69061e-05 -6.4095e-19)
(0.000143468 -0.000181678 -2.53474e-17)
(0.00242845 -0.00251472 -1.11075e-17)
(-6.71405e-06 9.13207e-05 1.05774e-18)
(0.000123248 -0.000179699 4.16093e-18)
(-5.30003e-05 -0.000135682 5.14543e-18)
(0.00183645 -0.000545704 5.68347e-17)
(3.10098e-05 -1.11011e-05 4.73432e-19)
(-0.00625611 0.000342941 -1.81933e-17)
(-0.000130084 5.60537e-05 -3.42066e-19)
(1.56198e-05 0.000527971 -8.20568e-17)
(-0.000133941 -0.00111652 3.95406e-17)
(9.35249e-06 0.000155594 -8.32835e-18)
(2.64922e-06 3.9724e-05 -3.73272e-18)
(0.00240527 0.00122381 -8.1383e-18)
(0.000383695 -0.000105204 9.31993e-19)
(-2.85175e-05 0.000159009 -3.65115e-18)
(-0.00296077 0.00382574 -5.08802e-18)
(0.00438165 0.000618273 2.97682e-18)
(-3.8881e-05 1.23295e-05 -5.85603e-18)
(-7.4742e-06 0.000511221 -5.38591e-19)
(-0.000877441 -0.00129719 8.65566e-18)
(0.000706485 0.00066148 3.14382e-17)
(1.26328e-05 -0.000156752 -1.0571e-19)
(0.00398532 -0.00464793 7.85905e-18)
(-1.98316e-05 -7.17184e-06 -2.09282e-18)
(-5.95157e-05 1.51463e-05 2.23853e-18)
(1.16641e-05 0.000158037 5.07456e-18)
(1.10847e-05 0.000537934 3.05174e-17)
(-0.00561286 0.0010187 -7.78153e-18)
(-0.00203057 0.00019479 4.95472e-17)
(3.18395e-06 -0.000156129 4.60244e-18)
(-8.72358e-05 4.27769e-05 7.36456e-19)
(-0.00256251 -0.00103651 5.16899e-17)
(0.000122722 -0.00021631 6.83782e-18)
(-0.000361876 -1.81655e-05 -1.09741e-18)
(0.0016748 0.00164214 -2.96396e-18)
(0.000527743 -0.000607167 1.88894e-17)
(-7.09506e-05 -4.64196e-05 -5.06668e-19)
(8.26235e-05 0.000197566 -1.01155e-17)
(0.000917158 0.000301651 -4.04461e-17)
(6.64207e-06 0.000526307 -5.62654e-17)
(0.00223661 -0.000608695 -1.14069e-17)
(0.000509694 0.000158069 2.14595e-17)
(-0.00158999 -0.00282146 -5.74684e-19)
(4.72499e-05 0.000479229 -3.04651e-17)
(-0.000280483 1.03115e-05 3.25242e-19)
(-5.5922e-06 0.00032864 2.91594e-17)
(0.000117727 0.000459526 -4.73617e-17)
(7.26763e-06 -0.000162043 -8.03998e-18)
(-0.000176895 -1.32237e-05 -3.28621e-19)
(-0.00210621 0.00307056 2.5018e-17)
(0.000240136 0.00076064 1.17023e-17)
(0.000740242 0.00025325 2.35962e-18)
(5.82107e-05 2.5284e-05 -1.3102e-19)
(0.000416225 -0.000255978 -9.8095e-18)
(0.00137935 -0.00155099 -2.37619e-17)
(0.0055298 -0.00107589 -1.73633e-17)
(-0.000367255 -0.00199269 1.57952e-17)
(-0.00186675 0.00307316 2.23799e-17)
(7.02179e-06 0.000251217 3.6829e-18)
(-2.82999e-05 0.000597095 -1.50494e-17)
(-6.96185e-05 7.80986e-06 -1.83403e-18)
(4.62925e-05 0.000573854 2.38098e-17)
(-0.00597873 -0.00104055 5.12939e-18)
(2.06841e-05 0.000296381 7.62124e-18)
(-1.06705e-05 -1.65156e-05 3.9584e-18)
(0.00223212 0.00124691 6.50191e-18)
(-0.00761821 -0.00068625 2.36631e-18)
(9.97575e-05 0.000395986 1.35661e-17)
(-0.000288409 -4.52629e-07 -1.52846e-19)
(7.57071e-05 0.00019616 3.37562e-18)
(-3.06191e-05 -0.000124899 -1.7504e-18)
(-0.000295871 -4.96579e-07 3.60385e-19)
(-0.000421232 -1.45103e-05 -3.85127e-19)
(1.78931e-05 0.000535739 9.23418e-17)
(-0.00598386 -0.00150871 8.7084e-18)
(5.82336e-06 0.000242094 3.71057e-18)
(-3.49879e-05 -0.000140322 2.91154e-18)
(-1.41554e-05 -1.7964e-05 -1.83438e-18)
(-0.000832954 -0.00120464 -2.39317e-17)
(-0.00181521 -0.00149844 -6.90966e-18)
(0.000397039 -0.000200173 -4.28013e-18)
(5.48525e-05 0.000491 5.49847e-17)
(1.26853e-05 0.000151766 1.50929e-17)
(1.34974e-05 0.000296148 -1.4604e-17)
(0.00374042 -0.00488372 9.05852e-18)
(-0.000166206 -8.81629e-05 -3.60835e-18)
(2.47815e-05 0.000212055 2.68055e-17)
(0.000100112 0.000493034 -4.90549e-17)
(4.784e-07 3.44951e-05 4.70338e-18)
(-0.00444566 0.00427071 1.43806e-17)
(0.000175027 0.000833033 -5.11303e-18)
(8.74264e-06 0.000159665 1.72192e-17)
(-0.000164642 -7.93704e-05 -4.65332e-19)
(0.000257446 -0.000120848 -5.82235e-18)
(0.000754173 -0.000486989 -5.21216e-18)
(5.10094e-06 0.000549967 -3.00303e-17)
(0.00114798 -0.00153861 9.47278e-18)
(0.000435657 7.21438e-05 -3.34866e-21)
(0.000178088 -0.000185841 4.81468e-18)
(-0.000994016 2.7448e-05 -1.04311e-16)
(0.000359637 -8.10143e-05 1.19457e-19)
(0.00327557 0.000195471 -1.29457e-17)
(0.000646976 0.000436967 -9.22068e-18)
(-0.00296991 -0.00231251 -2.40776e-17)
(6.65404e-05 0.000259072 1.44058e-17)
(-3.04952e-05 0.00037556 -1.57664e-17)
(-1.94315e-05 -7.25913e-06 -7.39987e-19)
(0.00212392 -0.000705584 1.19538e-17)
(-0.000238975 -0.00193126 -8.22568e-18)
(-0.00136552 -0.00281159 -1.10869e-18)
(1.40757e-05 -0.000160012 7.47186e-18)
(0.000759702 -0.000124976 3.68474e-18)
(-8.11336e-05 -0.00012105 -1.27772e-18)
(-6.07718e-06 0.000330465 2.89733e-17)
(0.000456348 1.66701e-05 -1.17721e-17)
(-0.000451588 -0.000715704 -2.14956e-17)
(-0.000721948 -0.00207589 8.50192e-18)
(8.63354e-05 4.1896e-05 -1.86212e-18)
(-0.00523557 0.00442451 5.17569e-18)
(0.000470181 0.000138696 4.37599e-19)
(-0.00558787 -0.00168187 3.57196e-19)
(5.45759e-05 0.000572651 -2.62352e-17)
(-0.00473708 0.00444422 -4.20166e-18)
(-5.36367e-05 6.35628e-05 -3.11352e-19)
(0.000491119 -0.000656238 -1.99422e-18)
(0.000358209 -0.000281005 2.03466e-18)
(-0.000165024 -8.85291e-05 -4.02185e-18)
(-8.65999e-05 5.10548e-05 -1.69347e-20)
(0.000190301 0.000214355 2.50478e-18)
(0.00376021 -0.00477929 -1.3981e-18)
(0.000996015 -0.00157039 -1.20494e-18)
(-0.00115432 0.000101116 1.83614e-16)
(0.000196295 -0.000166172 6.12448e-18)
(-0.000217222 -0.00302801 1.22868e-17)
(0.00608759 -0.0026588 8.05533e-18)
(-0.00183773 0.000236744 -6.3535e-17)
(0.00137645 -0.00107944 -4.11044e-17)
(-7.56372e-05 0.00011312 -3.99489e-19)
(2.78788e-05 0.00049168 1.68029e-17)
(2.65962e-05 0.000361371 -1.0458e-17)
(-0.000444911 -7.97767e-07 3.51009e-19)
(-7.53638e-05 -4.72713e-05 -7.13847e-19)
(0.000350645 0.000705289 -1.75599e-19)
(0.00131381 0.00219907 2.26353e-17)
(2.39901e-05 -0.000337525 8.00317e-18)
(-0.0002474 3.00852e-06 2.7645e-19)
(0.000686503 -0.000264353 -2.28972e-17)
(0.000724223 -0.000520891 5.37646e-18)
(0.0042444 0.000472914 -4.09455e-18)
(-0.00219789 0.00320801 2.76325e-17)
(-2.07622e-05 2.58443e-05 5.2007e-18)
(-4.75466e-07 0.000101449 -2.5342e-18)
(0.000552125 0.000117923 -5.78117e-17)
(0.00261972 -0.00403746 4.76242e-18)
(1.21208e-05 0.000199601 -2.26584e-17)
(-0.000552843 -0.00278625 6.7446e-18)
(0.00406433 0.000180098 1.0734e-18)
(-5.92585e-05 -0.00297435 -9.29089e-18)
(-0.000160772 -6.42102e-06 8.51498e-19)
(6.07053e-05 0.000607504 -1.6976e-18)
(0.000536817 -1.31273e-05 6.89664e-18)
(0.00326031 -0.000767261 1.44473e-16)
(-7.18946e-05 -1.01159e-06 -2.21636e-18)
(0.00213076 -0.000749464 -2.34013e-17)
(-5.4446e-05 6.14066e-05 8.19409e-19)
(-8.70154e-05 -0.000535688 -4.98164e-18)
(-0.000371611 3.05265e-07 2.89218e-21)
(-0.00425836 0.00130305 -4.46026e-18)
(-0.00160788 0.00271358 -1.06452e-17)
(0.000188643 7.92513e-05 -4.60846e-20)
(0.00120564 0.00126704 9.99975e-18)
(0.00018306 -0.00018592 -4.899e-18)
(-0.000160778 1.34907e-06 7.31838e-20)
(0.00357495 -0.00580759 2.07584e-18)
(-0.000767845 -0.00195572 -2.32122e-17)
(0.000200274 -0.000163163 -1.22762e-17)
(-0.000727261 -0.00230076 -4.13634e-18)
(0.00409208 0.00011974 -1.34686e-17)
(-0.000350851 -2.73107e-06 1.2944e-18)
(0.000242662 -0.000149274 -1.45626e-18)
(0.00184778 0.00190502 -2.71e-17)
(-0.00175286 0.00024827 -4.23679e-17)
(-5.81311e-05 -1.73455e-06 -3.33529e-18)
(-0.000173758 -1.44779e-05 3.40946e-19)
(0.00821735 -0.000833989 5.92158e-19)
(0.00253234 -0.000222078 1.21039e-17)
(-2.78804e-05 -1.68027e-06 -5.05888e-19)
(0.00140155 -0.00537607 6.09835e-18)
(-0.000136558 0.000373845 -1.24056e-18)
(-3.57656e-05 0.00036272 9.15263e-19)
(0.000328375 -0.000207944 2.44892e-18)
(-4.39186e-05 -3.26861e-06 3.28555e-18)
(0.00040582 0.000214128 -7.8889e-18)
(0.00304778 0.00022862 -1.77216e-17)
(-0.00016595 -0.000111851 -1.17478e-18)
(0.000672206 -0.00077657 5.73644e-17)
(6.66775e-05 0.00050478 4.77581e-17)
(-3.71477e-05 -0.000124872 -2.02175e-18)
(-1.04235e-05 8.20252e-05 -1.50864e-19)
(0.000727941 -0.00129094 -8.98205e-18)
(0.00665581 -0.00144 6.97151e-18)
(0.00105058 -0.00149324 -7.52676e-18)
(0.00019825 0.000215037 7.45346e-18)
(0.000180077 0.000137561 -7.34181e-21)
(-2.16693e-05 -3.12418e-06 -2.08551e-19)
(-0.00776686 -0.000597555 -7.52214e-18)
(0.0026865 -0.00108114 1.08375e-17)
(-0.000814801 -0.00612652 7.88909e-18)
(-0.000186567 7.52729e-06 -4.7496e-19)
(0.00520447 -0.000177953 4.69785e-17)
(-0.00652 2.09429e-05 -1.7643e-17)
(0.000214618 0.000163792 -2.96847e-18)
(0.0037669 -0.00455772 -7.94439e-19)
(-0.00100397 -0.00136061 -3.95628e-18)
(-4.27025e-05 9.38706e-06 -2.2781e-18)
(-0.000322837 -1.45037e-06 2.58542e-19)
(0.000299631 1.53146e-05 2.86836e-17)
(-0.00287793 0.00128562 -1.25497e-17)
(0.000821083 0.00108527 -2.59114e-18)
(0.000114031 -0.000179212 2.89485e-18)
(-0.00218643 0.00321455 -2.11891e-17)
(-0.000239361 -0.000905079 -7.88862e-18)
(-0.000454472 -9.64152e-06 -8.59762e-19)
(0.0064889 -0.00239542 -2.05108e-17)
(-0.000129918 4.44384e-05 -2.84378e-18)
(-0.00537319 0.00428982 2.36609e-18)
(1.11234e-05 -0.000329698 1.71379e-19)
(-5.70955e-05 -1.51097e-06 -7.57469e-19)
(0.000231179 6.05787e-05 -4.36269e-18)
(0.000432914 8.90547e-05 -1.32033e-18)
(-5.49527e-06 0.000374264 1.94043e-19)
(0.00173292 -0.00553878 4.89203e-19)
(0.0003104 8.89526e-05 -2.23072e-18)
(-0.000118231 -0.000104225 5.8941e-18)
(-0.00247066 -0.000143511 -1.20151e-17)
(-0.00106525 -0.00205378 -5.85354e-18)
(0.00249739 -0.00123105 -2.60673e-17)
(-7.22592e-05 -6.152e-06 2.86937e-18)
(-0.00213012 0.0023206 -1.71292e-17)
(7.5316e-06 8.87104e-05 7.07191e-18)
(-0.000121734 -0.000105094 9.10447e-20)
(-7.07437e-05 1.38766e-05 9.75561e-19)
(0.000139538 0.00087072 4.35503e-18)
(-0.000196683 8.63288e-06 -1.98436e-19)
(-0.000102999 -0.00057862 -1.34503e-17)
(0.000324015 -0.000197862 -1.62142e-18)
(-8.93908e-05 -0.000120343 -1.27061e-18)
(0.000719761 -0.000287329 1.74134e-17)
(0.000107017 -0.000106134 1.97621e-18)
(7.32992e-05 0.000658043 2.11068e-17)
(0.000452208 0.000124863 -9.25511e-19)
(0.000494666 -0.00056753 -1.90836e-17)
(-0.00014507 -9.89553e-05 1.03519e-18)
(-1.49644e-05 7.16413e-05 -3.53652e-19)
(0.000888776 -0.00142263 7.86739e-18)
(-0.00817644 -0.000380459 5.18227e-18)
(-6.92404e-05 9.87829e-07 -1.06686e-19)
(-0.000358662 -3.21365e-07 1.86376e-19)
(0.00636919 -0.00256711 5.20145e-18)
(-5.80477e-05 3.96821e-05 1.66802e-19)
(0.00427675 0.000788815 1.44591e-17)
(-0.000147237 -9.96851e-05 5.70719e-19)
(-0.00391784 0.00154281 4.08106e-18)
(-0.000214846 -0.000226768 6.3681e-18)
(0.00151284 0.000386504 6.89615e-18)
(0.000260881 -0.000272086 -4.73168e-18)
(-2.46892e-05 0.000517396 -1.3419e-16)
(6.33394e-05 0.000254531 -4.26782e-19)
(0.00355101 -0.00085319 -1.0824e-17)
(6.27321e-05 0.000568178 -4.69283e-17)
(0.000230026 5.0544e-05 9.23508e-19)
(0.00245718 -6.8474e-05 -1.68336e-17)
(0.00043496 0.000887519 6.42484e-18)
(4.51675e-05 0.000142282 -8.76398e-19)
(-0.00709728 -0.000441465 8.60643e-18)
(1.6777e-05 0.000479518 -6.41237e-17)
(-0.00634668 0.000113396 2.02664e-17)
(2.03862e-05 0.000286891 1.17009e-18)
(-0.000755105 -0.000934061 4.16223e-18)
(0.000245764 -0.000162687 2.20425e-18)
(-0.00168338 -0.00129566 -2.06347e-17)
(6.58555e-05 0.000546875 3.43926e-17)
(0.00043598 0.000547834 -5.22467e-18)
(0.00046541 0.000529049 -5.35789e-18)
(-0.000982044 -0.00189709 -1.37346e-17)
(-2.8924e-05 1.28329e-05 6.42172e-19)
(0.000483236 6.59805e-06 9.47407e-18)
(0.00109942 -0.00177044 -2.13021e-17)
(1.69975e-05 0.000139522 -8.25479e-18)
(0.000135955 7.29384e-05 -6.85348e-18)
(-0.00722424 0.000177267 -4.2149e-18)
(0.000319174 0.000743659 -3.89925e-18)
(7.43304e-05 1.52848e-05 1.1915e-19)
(0.00478854 -0.00233272 -3.62146e-17)
(0.000115735 0.000729501 -2.35888e-18)
(-0.000274746 7.87518e-06 -5.16116e-20)
(-0.00617388 -0.000855975 -1.39308e-19)
(0.00497269 -0.00443307 -6.19593e-18)
(-0.000138927 4.49809e-05 5.73104e-19)
(-0.000152785 1.61918e-05 -2.33159e-21)
(3.21878e-05 8.0627e-05 -5.48519e-18)
(-0.000175216 -7.91767e-05 -4.53191e-19)
(-0.00140755 -0.000739469 2.69344e-17)
(-0.00501141 0.00454087 9.75251e-19)
(-2.52008e-05 0.000520873 1.18766e-16)
(0.00070489 -0.00165782 -7.57925e-17)
(-4.64592e-05 1.21547e-05 -1.77541e-18)
(0.000700647 -0.000840585 -4.64102e-17)
(-0.000966162 -0.000126375 2.01562e-18)
(0.000440342 -0.000301821 2.94403e-17)
(-0.000947794 -0.00282454 -4.35986e-18)
(-0.00255497 0.00159365 -2.38902e-17)
(-0.0014065 0.00279722 -5.66782e-17)
(-0.000308087 -8.12801e-06 3.44684e-19)
(-0.000974965 -0.00580168 -6.84265e-18)
(-0.00018058 2.35834e-05 -7.20203e-20)
(0.00278557 -0.000957771 4.54832e-17)
(-5.00817e-05 -0.00013545 5.11343e-19)
(-1.69977e-05 0.000563751 2.60564e-17)
(-0.000202956 0.000342469 1.16023e-17)
(-0.000115262 -0.000365987 4.44433e-18)
(-4.0453e-05 3.84283e-05 3.36752e-18)
(0.000531221 7.1603e-05 -1.15079e-17)
(0.000506588 -0.000708221 -3.50744e-17)
(0.000217193 0.000288576 -2.1586e-18)
(3.88555e-05 0.000713075 -4.54843e-17)
(-0.00185259 -0.00120511 -2.38724e-17)
(0.00327907 -0.000672319 -1.71654e-16)
(0.000431085 0.000223462 4.05146e-18)
(0.000558749 -0.000332319 -3.25832e-17)
(-0.000173358 -1.51662e-05 -4.39018e-19)
(-0.00173693 0.000298508 7.76965e-17)
(4.17332e-05 -0.00356784 -2.9628e-18)
(4.90935e-06 0.000109478 -3.66216e-18)
(-0.00794324 -0.00048708 -4.1131e-17)
(-2.52653e-05 5.74472e-05 2.52345e-18)
(-0.00132719 0.00162795 1.00781e-17)
(-0.000203993 -0.000216372 -6.61938e-18)
(-2.85979e-05 -1.2141e-06 3.6481e-18)
(0.000117668 -8.23073e-05 -9.92402e-19)
(0.00686676 -0.00344921 -3.56951e-18)
(0.000121661 -7.32958e-05 1.64658e-18)
(0.00638778 -0.00170508 -3.01476e-18)
(-0.000731047 0.000241159 -5.73225e-18)
(0.00149382 -0.00300451 -1.88039e-17)
(4.67609e-05 0.000552001 -1.41444e-17)
(4.47977e-05 0.000134988 -1.1453e-18)
(6.17052e-05 0.00057893 1.54622e-17)
(5.38061e-05 0.000563415 -4.89573e-17)
(-9.45445e-05 3.66848e-05 1.80744e-19)
(0.000269643 0.00073154 -6.82913e-18)
(1.42534e-06 0.000128771 2.82276e-18)
(-2.57188e-05 2.70224e-05 3.67967e-18)
(0.000183978 -0.000732969 -5.27778e-18)
(-4.42373e-05 -3.97876e-06 -2.85026e-19)
(-2.14537e-05 1.26743e-05 -3.21123e-18)
(-0.000158248 2.36468e-05 3.35947e-19)
(-0.00146329 -0.000798928 3.96658e-19)
(-1.92236e-05 -1.58264e-05 5.60473e-18)
(-0.00111119 -0.00119494 -4.05926e-18)
(0.00806363 -0.00446518 5.39548e-18)
(-0.000415852 -5.06353e-05 4.96243e-18)
(0.00139131 -0.000992552 -3.82746e-18)
(0.00230627 -0.00270174 2.66853e-18)
(0.0044341 -0.000550756 -9.03262e-18)
(0.00043264 -0.000313748 -2.63931e-17)
(-5.25684e-05 1.89537e-05 9.49823e-19)
(-0.00104312 0.000303942 -6.38395e-18)
(-0.000207191 -0.000447509 4.31254e-18)
(0.000267859 -0.000156258 -2.20953e-17)
(-7.2774e-05 0.000110303 6.20585e-18)
(-0.0048939 0.00441468 -1.20785e-18)
(0.0013522 -0.00373678 -7.68606e-18)
(0.00984065 -0.00460702 -1.12623e-19)
(0.000167406 0.000120654 -1.3851e-19)
(-0.000136338 0.000644635 6.42604e-18)
(2.03629e-05 0.000286104 1.77234e-18)
(-0.000215109 -0.000485086 3.52267e-18)
(0.000265012 0.000276424 -4.71166e-18)
(0.000106886 -6.25949e-06 1.00084e-21)
(-0.00185092 -0.00571614 8.54173e-18)
(4.71785e-05 1.77051e-05 9.03177e-22)
(-0.000181341 1.0239e-05 2.77607e-18)
(0.0042929 0.000937469 1.04194e-18)
(-0.00547191 -0.00174472 -1.7803e-18)
(-0.00510205 -0.00192684 2.58219e-18)
(0.00107318 -0.000322477 5.06391e-18)
(-0.000375636 -0.000106732 1.91215e-17)
(-0.00659735 -0.000432372 4.26502e-18)
(0.00362906 -0.00135397 1.22342e-17)
(-0.00223044 0.000644523 5.64756e-18)
(-0.000420343 -1.639e-05 -2.922e-19)
(0.000397082 7.78006e-05 -2.11877e-17)
(0.000107123 -1.71647e-05 2.92328e-20)
(1.01744e-05 0.000111981 -3.27735e-18)
(-0.00307344 0.00262759 -7.79532e-18)
(0.000273874 2.63402e-05 -2.23386e-17)
(-0.000509686 -4.09435e-06 -8.30627e-19)
(3.85173e-05 -0.000186976 -1.68083e-19)
(0.000398229 -0.000269778 -5.99687e-18)
(-0.00326775 0.00060362 -4.93931e-18)
(-9.11232e-05 2.85868e-05 1.47058e-18)
(0.00170666 0.000484361 3.35734e-17)
(-0.00119623 -0.000347798 1.06481e-17)
(0.00161156 0.000520204 1.54368e-17)
(-0.00261803 -0.00156567 -4.75963e-18)
(-2.095e-05 -1.76885e-05 2.77003e-18)
(6.23928e-06 0.000110822 1.53568e-18)
(-0.000440315 -7.44933e-07 -3.47868e-19)
(0.00036671 -7.55714e-05 -8.41843e-19)
(-0.000294397 -8.3987e-06 7.96408e-20)
(0.00605884 -0.00530379 -1.14223e-18)
(-1.83368e-05 0.000529186 -5.28495e-17)
(0.000304097 7.75813e-05 1.5056e-18)
(-0.00140724 0.000415006 1.41178e-17)
(0.000142431 -0.000182798 6.57618e-18)
(0.00218687 -0.000886503 2.51897e-18)
(0.00332559 -0.00154524 -4.19541e-18)
(0.000216523 0.000840432 -3.98863e-18)
(0.0012956 -0.00298239 1.56851e-17)
(0.00432984 -0.00484968 -4.75382e-18)
(0.00183463 0.00045336 -3.98131e-17)
(0.000102066 -0.000300869 1.20272e-19)
(-0.000733582 0.000983795 -3.51887e-18)
(0.000232207 -0.000820497 -4.06375e-18)
(0.000519608 -0.00384078 5.02105e-18)
(-5.93135e-07 0.00053975 -2.15515e-17)
(2.82025e-05 -0.00103555 2.84918e-18)
(0.00101244 0.00026219 2.5234e-18)
(-0.000464675 -6.10897e-06 -2.00543e-18)
(-0.00308346 0.000138638 -9.10229e-18)
(0.00015314 -0.000210842 -9.87426e-18)
(-0.000231318 -5.62237e-05 1.74836e-18)
(0.000351273 -5.81392e-05 3.03027e-18)
(8.16545e-06 -0.000158582 -2.4106e-18)
(-0.00286822 0.000704652 1.65293e-18)
(-0.00223252 0.00331449 4.17174e-17)
(-6.81736e-05 4.44057e-05 -1.98688e-19)
(-0.000479388 -8.40852e-06 -2.03604e-18)
(0.0046281 -0.00489129 -5.11032e-18)
(0.0044462 -0.00055565 1.99445e-17)
(-5.24324e-05 -3.11391e-06 3.73137e-20)
(-0.0025533 -0.00116252 -1.02568e-18)
(-8.67718e-05 -0.000186235 9.51266e-19)
(0.00109753 -0.00103849 4.16763e-18)
(-5.12072e-05 5.08435e-05 -2.64739e-19)
(0.00493184 0.000125722 1.57711e-17)
(0.00245795 0.00454121 -2.67585e-17)
(0.000252771 -0.000131393 -1.44789e-18)
(2.89622e-05 -0.000124357 1.76355e-18)
(0.00230596 -0.00306514 -2.25501e-18)
(0.000875911 -0.00147019 -4.07836e-17)
(-0.00149342 -9.00126e-05 3.84202e-17)
(-2.11143e-05 -3.9566e-06 4.43985e-19)
(0.0037118 0.000257555 2.33216e-17)
(5.09052e-05 0.000604486 4.95128e-17)
(0.00622817 -0.00247806 -7.13817e-18)
(-0.000223925 -5.43236e-05 9.77415e-19)
(-0.00210992 0.000144864 -1.24029e-17)
(0.00199039 -0.00162504 -3.65631e-17)
(0.000457661 -0.0003956 1.05424e-17)
(-0.000145665 2.01249e-05 -3.28691e-19)
(5.45177e-05 7.98635e-05 2.39777e-18)
(-0.00096548 -0.00109086 -1.69671e-17)
(-0.00219721 0.00177534 -3.05285e-17)
(-0.000552396 -5.67886e-06 1.85916e-18)
(-0.000153933 1.0876e-05 6.15204e-19)
(-0.000253738 -4.73471e-06 8.1777e-19)
(-0.000263069 -4.96452e-06 -2.0964e-19)
(0.00523629 -0.000163054 -5.6874e-19)
(-0.00326055 0.00236513 1.37768e-17)
(0.000429462 -0.000374943 -8.55371e-18)
(0.000719707 -0.00161371 6.96628e-18)
(-0.000312843 -1.16445e-06 -2.57929e-19)
(-0.000273909 1.08838e-05 -5.55065e-19)
(-3.77475e-05 0.000646223 -2.39819e-17)
(0.00256743 0.000367438 -5.37928e-17)
(0.000168779 -0.000197512 4.03939e-18)
(-8.86016e-05 -0.00012267 3.39288e-18)
(-3.18401e-05 2.28297e-05 -1.96888e-18)
(6.00679e-06 9.98368e-05 3.00049e-18)
(0.00606623 -0.00252782 -1.36553e-17)
(-0.00159457 0.000225089 3.65509e-17)
(-7.8853e-05 3.92939e-05 1.0217e-18)
(-1.03138e-05 9.74171e-05 3.54563e-18)
(-0.00129795 -0.00556468 -5.87491e-18)
(0.000242047 -0.000775918 1.28032e-17)
(0.000258382 -0.00029161 -3.38193e-18)
(7.80841e-06 0.000107739 -2.697e-18)
(0.000112817 -5.81068e-05 -1.14268e-18)
(0.000231311 -9.27227e-05 2.20948e-18)
(0.00103704 0.000179912 1.88671e-17)
(0.000448651 0.000842891 5.07635e-18)
(0.00091916 -0.00165075 -1.08702e-17)
(-0.00110737 0.000436181 -9.83548e-18)
(0.000528711 0.000755784 -6.12744e-18)
(-0.00199001 0.0034869 -6.6095e-18)
(0.000441378 -0.000563455 -2.77131e-18)
(-6.53982e-05 -8.11082e-06 -3.11557e-19)
(0.00332046 0.000364404 1.1468e-17)
(1.25808e-05 0.000107784 -7.22385e-18)
(0.000145473 6.8928e-05 6.19961e-18)
(-4.3888e-05 -0.000288636 -7.79839e-18)
(-0.00351421 0.000588406 4.35698e-17)
(0.000548959 0.00037376 -5.97006e-19)
(-0.000369362 1.88841e-06 -3.07612e-21)
(0.00165254 0.000423863 2.0292e-17)
(9.8005e-06 -0.000817666 1.06212e-17)
(-0.000750854 -0.000776494 -8.62875e-17)
(0.000444802 0.000749719 6.5615e-18)
(0.000188036 0.000289492 -1.50085e-17)
(0.000416865 -0.000245392 1.29163e-17)
(-3.71623e-05 5.18679e-05 -5.16297e-18)
(0.00213107 -0.0012482 -7.82282e-18)
(0.00158959 0.000352708 -3.85593e-17)
(-0.00377505 -0.000385236 3.66324e-19)
(3.92025e-05 2.73322e-05 -5.54635e-21)
(0.000179554 -0.000182172 2.25944e-17)
(0.000625806 -0.00170491 -2.0781e-17)
(-0.00210572 0.00178619 1.66654e-17)
(0.00350487 -0.000242602 1.992e-18)
(0.000522627 0.000223149 2.94637e-17)
(0.00114158 -0.000350268 -1.46988e-17)
(0.000170756 9.79535e-05 1.6334e-18)
(0.000128207 -0.000161823 -2.18204e-18)
(8.24107e-06 0.000110652 2.58854e-18)
(0.000302896 0.000363696 1.19301e-17)
(9.82564e-05 0.000478471 3.25894e-17)
(-8.49894e-06 0.000105485 1.76346e-17)
(0.00055823 -5.57039e-05 -9.1647e-18)
(4.8593e-05 0.000495882 -4.45405e-17)
(-0.00360408 -0.000238505 -1.64354e-18)
(-0.00155147 -4.58855e-05 -2.37608e-18)
(0.000152907 -6.66906e-05 -8.23645e-19)
(0.00208596 -0.000981373 -5.3787e-18)
(0.00335682 0.00408938 2.28637e-17)
(0.000255028 4.51342e-05 8.47435e-19)
(3.03237e-05 0.00019097 2.11719e-18)
(-3.0712e-05 0.00054994 -4.15491e-17)
(-0.00107516 0.00211131 -1.00308e-17)
(-0.004917 0.00431566 6.69777e-19)
(0.000428767 -0.00170116 -6.22829e-17)
(-0.00041114 -1.65357e-05 -9.81384e-20)
(-0.00639498 -0.000898051 -1.36377e-17)
(-0.000869571 -0.00119467 -2.18625e-18)
(-0.000414521 1.06545e-06 3.10735e-19)
(0.000224174 -0.000205768 1.37207e-18)
(0.00124593 -0.000495118 1.10156e-17)
(8.52979e-05 0.000325144 -3.62071e-17)
(8.82721e-05 -0.000685149 4.09246e-19)
(0.00343144 -0.00477094 4.84794e-18)
(-0.000591162 0.000992056 1.22966e-17)
(0.00014628 -0.000716351 1.82292e-17)
(0.00200011 -0.00105392 4.35926e-17)
(4.82651e-05 -0.000165389 -1.32341e-18)
(-0.00220964 0.000433739 -1.06787e-17)
(-3.82762e-05 -6.89227e-06 9.0605e-20)
(-7.75615e-05 4.7426e-05 -5.16755e-19)
(-0.00281188 0.00201725 2.82614e-17)
(-0.00126477 0.00221382 -8.56839e-18)
(1.52348e-05 0.000537079 3.37965e-17)
(4.40769e-05 -0.000165253 2.39461e-18)
(7.63335e-05 3.86302e-05 -1.01498e-18)
(-1.12285e-05 0.000104058 -6.02781e-18)
(-0.000189531 -0.000968149 1.77084e-18)
(3.12316e-05 0.000556825 7.07405e-17)
(-0.00130288 -0.00262679 -1.39555e-17)
(0.000132086 -0.000165504 -4.55969e-18)
(0.00121959 -0.00278864 -6.00372e-18)
(0.000562617 2.90615e-05 7.26317e-19)
(-4.39905e-05 5.21848e-05 -2.14949e-19)
(0.00097474 0.00119371 -1.86825e-19)
(-0.00141018 -0.00246607 1.68349e-17)
(-0.0051692 -0.00466408 -2.06842e-17)
(-7.24695e-05 1.1919e-05 2.27111e-18)
(-0.000377632 0.00114244 -1.06742e-17)
(1.02729e-05 -0.000157655 3.55074e-18)
(-0.000979964 0.000214158 -2.16626e-17)
(0.000577816 -0.000390145 -1.65649e-17)
(0.000568953 0.000346249 -3.54732e-19)
(0.000177107 -0.000182492 -2.45341e-17)
(-0.000318896 1.07189e-06 1.50023e-19)
(-0.000230618 -4.80279e-05 1.42486e-18)
(-2.47803e-05 -0.000130893 1.73245e-18)
(0.000534001 0.000538157 2.5785e-19)
(2.45626e-05 0.000301169 5.50116e-18)
(-0.0010988 -0.00138678 -1.82952e-17)
(-0.00021432 0.000717895 -1.97653e-17)
(0.000702451 -0.000105186 2.85523e-18)
(-0.000275139 5.41192e-06 2.28959e-20)
(-0.000749929 0.000706133 -8.55494e-18)
(1.00569e-05 0.000555763 -1.17565e-16)
(0.00491564 -0.005262 1.97617e-17)
(-0.000170919 -0.000104251 4.27753e-18)
(4.20748e-05 0.000292396 1.33888e-17)
(-0.000148821 5.8424e-06 -7.62061e-19)
(-6.67445e-05 -0.000558002 1.46043e-17)
(0.000130425 -0.000178891 -1.10143e-17)
(0.00196469 -0.00148298 6.10364e-17)
(-3.29885e-05 -2.09555e-06 -3.15551e-18)
(0.00116758 0.00175598 -3.47019e-18)
(-2.34599e-05 -0.000512515 1.51732e-18)
(0.00221157 -0.0029106 -8.42854e-18)
(0.000621313 -0.000556749 -9.46867e-18)
(0.00478239 0.000380472 -2.8044e-17)
(0.000627322 0.000319691 -3.20417e-18)
(4.63085e-05 8.37298e-05 4.36938e-19)
(-0.00187658 0.00119937 1.59606e-17)
(0.00529095 -0.000271395 1.20433e-17)
(4.10209e-06 9.95144e-05 9.82926e-19)
(-5.62787e-05 -0.000292866 6.32435e-18)
(0.00133201 0.00546529 -2.67968e-17)
(0.000411977 -0.00156567 -3.61965e-17)
(0.000904982 0.000990886 -5.67898e-18)
(-7.66279e-05 -1.94808e-06 -4.49369e-19)
(2.63692e-05 -0.000131469 1.03226e-17)
(0.00143694 0.000320679 -4.32263e-17)
(-0.000125641 -0.000382789 -9.95912e-18)
(0.000176455 0.000236113 2.36292e-17)
(0.000671479 -0.00121539 1.45998e-17)
(-0.000231103 -4.83639e-05 -2.98154e-18)
(0.000708608 -0.000636198 3.41878e-17)
(-0.000825945 -0.00188168 1.95202e-17)
(-0.000181299 -0.000112264 5.46183e-18)
(-0.000198818 -0.000283305 -3.44652e-18)
(-0.000235677 -3.80263e-06 -1.53096e-19)
(-0.00815437 -0.00031734 -7.20688e-18)
(-9.25383e-06 -2.03706e-05 2.0632e-18)
(0.000159074 0.000123168 -3.06509e-18)
(-0.000653356 -0.000780208 5.53061e-17)
(0.000119145 0.000114177 -2.13566e-18)
(-0.00167008 0.0027257 3.09021e-18)
(0.000185951 -0.000185274 -3.40652e-18)
(8.18865e-05 0.000345635 -3.80105e-17)
(-0.000236118 -4.47612e-06 -9.61186e-19)
(0.000510296 0.000153552 -3.0556e-18)
(-6.70578e-05 2.5739e-05 -2.35027e-18)
(0.000146411 -0.000339919 -9.13437e-18)
(-0.000326811 1.77681e-07 1.15537e-19)
(0.000790644 0.00017707 2.25463e-17)
(-7.74799e-05 -0.0001771 -9.6223e-19)
(-0.00318011 -0.00165903 -1.01738e-17)
(-5.93461e-05 0.000643369 2.05538e-17)
(0.00261293 0.00012205 1.83207e-17)
(-0.000429257 -5.454e-07 -5.43733e-19)
(-3.45053e-05 2.21314e-05 -2.17977e-18)
(0.000416629 -0.000518084 -1.00416e-17)
(0.000374321 -0.000310504 5.3848e-18)
(-0.0076518 9.59217e-05 -4.16158e-18)
(0.000587087 0.00199038 -1.96939e-17)
(0.000199031 -7.19315e-06 5.64676e-18)
(-3.66849e-05 3.0516e-05 -2.21286e-18)
(-0.00154658 -0.000596576 2.57217e-19)
(1.95474e-05 0.000544897 6.90928e-17)
(-0.00433522 -0.00473419 1.94537e-17)
(-0.00100363 -0.00137177 4.04727e-17)
(0.000347241 -1.21987e-05 -4.95271e-18)
(0.00554255 -0.00474292 1.04056e-17)
(0.000398037 -0.000170282 1.27635e-17)
(-0.000206114 -0.000873715 -3.59759e-18)
(-0.000803983 -3.40445e-05 4.38678e-17)
(0.00032987 0.000660269 -3.86069e-18)
(0.000195351 -2.99668e-05 -3.21647e-18)
(4.3363e-05 0.000547207 8.69629e-17)
(0.00016572 -6.88609e-05 3.68407e-18)
(-0.000145701 -0.000303129 3.97765e-18)
(0.00133986 -0.000469562 -8.81657e-18)
(0.000240087 3.82138e-05 -1.80019e-18)
(-0.000202755 -6.65434e-05 -9.41594e-19)
(-5.4007e-05 -0.0005374 -1.23956e-17)
(0.000398063 -0.00026456 1.71776e-17)
(0.000250288 -0.000112483 4.5429e-18)
(-5.94749e-05 3.72909e-05 2.32937e-18)
(-0.000312406 -7.9661e-08 -1.24749e-19)
(0.000639083 -2.98765e-05 2.073e-17)
(-1.51302e-05 -0.000183235 -5.08437e-19)
(0.00011617 0.00024662 -2.2219e-17)
(-2.09571e-05 3.77359e-05 -6.01728e-20)
(-3.17397e-05 8.70921e-05 1.05489e-17)
(-1.24785e-05 -1.89826e-05 -1.66803e-18)
(0.00012332 -3.33001e-05 -1.88608e-19)
(-0.000340136 -3.7378e-05 6.17913e-18)
(0.000201975 -0.00012119 -4.16295e-19)
(-0.000229739 -9.63388e-07 8.37064e-19)
(0.00500869 4.03294e-05 9.61969e-18)
(-0.00031833 -0.00140712 2.2979e-17)
(-2.95009e-05 0.000551875 1.33804e-17)
(-0.000303405 2.14535e-06 4.09181e-19)
(-3.94838e-05 -1.23856e-05 1.47549e-18)
(0.00014935 0.00037785 2.67161e-17)
(7.64489e-05 -0.000296247 -6.38971e-18)
(3.54181e-06 0.000231746 5.80284e-18)
(0.00570369 -0.00257232 2.53094e-18)
(0.000801529 -0.000183445 1.81203e-17)
(0.00309278 -0.000985633 6.96423e-17)
(-3.42494e-05 -0.00053106 -4.46694e-18)
(-0.000317046 0.000755542 7.42919e-18)
(-5.85412e-05 -0.000135951 3.49913e-18)