/*--------------------------------*- C++ -*----------------------------------*\
| =========                 |                                                 |
| \\      /  F ield         | OpenFOAM: The Open Source CFD Toolbox           |
|  \\    /   O peration     | Version:  v2012                                 |
|   \\  /    A nd           | Website:  www.openfoam.com                      |
|    \\/     M anipulation  |                                                 |
\*---------------------------------------------------------------------------*/
FoamFile
{
    version     2.0;
    format      ascii;
    class       surfaceVectorField;
    location    "300";
    object      ddtCorrDdt0(Uf);
}
// * * * * * * * * * * * * * * * * * * * * * * * * * * * * * * * * * * * * * //

dimensions      [0 1 -2 0 0 0 0];


internalField   nonuniform List<vector> 
20673
(
(0.000416599 -0.000201907 -9.29759e-18)
(0.000412517 -0.000216955 6.22937e-18)
(0.000399146 -0.000204517 -6.37783e-18)
(0.000128124 4.8813e-07 1.16772e-19)
(0.000127113 1.16168e-05 2.35563e-19)
(0.000131292 7.04506e-06 -1.33608e-19)
(-0.000789216 -0.00199656 1.13575e-18)
(-0.000714439 -0.00198372 2.01924e-17)
(-0.000193303 -0.00244209 4.96544e-18)
(-0.000147254 -0.000349255 2.18854e-18)
(-0.000129623 -0.00033908 -1.04139e-17)
(-0.000139524 -0.000335002 -7.88641e-18)
(1.91403e-07 0.000155799 -2.17882e-19)
(9.24449e-06 0.000164672 -1.19072e-18)
(1.20147e-05 0.000143933 2.23298e-18)
(9.44856e-06 0.000527572 2.34331e-17)
(1.17281e-05 0.000521579 9.31958e-17)
(3.16478e-06 0.000527406 5.77593e-17)
(-0.000154863 -0.00323204 5.52599e-19)
(-0.000360128 -0.00293383 -9.23757e-19)
(0.000747476 -0.00331026 -4.43045e-18)
(-0.00219926 -0.000881742 5.85346e-18)
(-0.00224434 -0.000709905 6.92865e-18)
(-0.002489 -0.00058154 5.70538e-18)
(-0.00254883 0.00365141 9.7138e-19)
(-0.00199373 0.00346653 2.2378e-17)
(-0.00165928 0.00342363 2.40962e-17)
(0.000586566 -0.000330718 -1.10899e-17)
(0.000602927 -0.000364265 -5.68597e-19)
(0.000629447 -0.000331584 1.54835e-17)
(0.00243472 -0.0026239 7.20005e-18)
(0.00229769 -0.00280361 6.02976e-18)
(0.00256506 -0.00277811 5.58613e-18)
(-0.000107793 -0.00145401 2.76944e-18)
(-0.000143153 -0.00153215 6.01368e-18)
(-3.59031e-05 -0.00145988 6.80059e-18)
(-0.000147603 -0.000363543 4.49303e-18)
(-0.00670893 3.19823e-05 -6.32396e-19)
(-0.00727236 4.40734e-05 7.28566e-18)
(-0.00658993 -8.71322e-05 -1.51796e-17)
(0.000208733 0.000146712 -1.05783e-18)
(0.000202647 0.000156968 -2.60069e-18)
(0.000199403 0.000153481 -4.72164e-18)
(0.000222914 8.49294e-05 1.24684e-18)
(0.000213884 9.53196e-05 1.93731e-18)
(0.000213496 8.03882e-05 1.29436e-18)
(0.000138703 4.70258e-05 -9.9842e-20)
(0.000139383 3.66486e-05 1.16994e-19)
(0.00013484 4.75447e-05 1.6513e-19)
(0.000256165 6.76078e-06 4.29444e-19)
(0.000232601 2.33434e-06 1.16345e-17)
(0.000239024 3.08505e-05 1.69333e-17)
(-0.000265086 -0.00144921 -1.70467e-17)
(-0.000133706 -0.00130988 2.38753e-19)
(1.47001e-05 5.60314e-05 -6.34279e-20)
(1.40184e-05 5.32149e-05 -5.60897e-19)
(1.19524e-05 5.36964e-05 8.25313e-19)
(-6.32427e-07 -1.89999e-05 2.87312e-19)
(-9.55624e-07 -1.87787e-05 2.55712e-18)
(-6.90916e-07 -1.86368e-05 2.53852e-18)
(-6.93551e-05 -0.0033313 -2.10061e-18)
(-0.000929291 -0.00312477 -1.10971e-18)
(2.11936e-05 8.98796e-05 3.43326e-19)
(2.33158e-05 8.812e-05 3.7929e-19)
(2.30123e-05 8.51193e-05 6.15986e-20)
(-0.00195671 -0.00129902 -1.75131e-18)
(-0.0022424 -0.00106434 3.66291e-18)
(3.79492e-05 1.08313e-05 2.55229e-18)
(3.73194e-05 1.34829e-05 5.09504e-18)
(4.06825e-05 1.05089e-05 6.4024e-18)
(0.00283802 -0.00458616 -5.67574e-18)
(0.00177422 -0.004386 3.53523e-18)
(0.0014813 -0.00432437 -5.21019e-18)
(2.81e-05 0.000365668 -6.0113e-19)
(3.34393e-05 0.000371731 -7.50716e-18)
(2.43058e-05 0.000371933 -4.10001e-18)
(0.00010414 0.00040285 4.0162e-17)
(0.000112013 0.00040505 2.70993e-17)
(0.000103493 0.000411252 -1.05163e-17)
(0.000117789 0.00075233 -3.56633e-18)
(0.00013395 0.000783879 -2.77196e-18)
(9.28445e-05 0.000789672 1.81981e-18)
(0.000171965 -0.000733501 -2.84511e-19)
(0.000119028 -0.00070682 3.21693e-18)
(0.000110096 -0.000777798 6.45565e-18)
(0.000382395 -0.000267135 6.16152e-18)
(0.00039157 -0.000254563 -2.41844e-18)
(0.000372898 -0.000251923 3.34281e-18)
(0.000282446 -0.000142916 -4.19969e-20)
(0.000280106 -0.000135164 1.38454e-18)
(0.000274001 -0.000142088 -4.14123e-19)
(8.71233e-05 0.000328741 -7.50016e-19)
(8.61451e-05 0.000339789 -7.31825e-18)
(7.5762e-05 0.000332436 3.75398e-17)
(-1.30483e-06 0.000295831 1.81162e-17)
(-7.48137e-06 0.000294013 -2.2573e-17)
(1.43583e-06 0.000293773 -8.34217e-19)
(2.83736e-05 2.44352e-05 1.19851e-18)
(2.94921e-05 2.06958e-05 -5.51107e-20)
(3.05199e-05 2.11337e-05 -7.05145e-18)
(0.00371673 -0.00590109 4.37925e-18)
(0.00405925 -0.00565401 1.5513e-18)
(0.00341699 -0.00636349 -3.76199e-18)
(1.93025e-05 9.30463e-05 -4.04921e-19)
(1.89143e-05 8.99787e-05 1.24421e-18)
(-0.00585404 0.000908981 -1.50375e-17)
(-0.0061436 0.000764652 8.13894e-18)
(-0.00621235 0.000764317 -7.68543e-18)
(-0.000151458 -0.000456417 3.02511e-18)
(-0.000158125 -0.000476162 2.51427e-18)
(0.00577062 -0.00094486 3.48094e-18)
(0.00602929 -0.000622858 1.09906e-18)
(0.00605655 -0.000861743 6.66716e-18)
(2.10047e-05 9.03913e-07 3.17861e-21)
(2.11773e-05 1.23548e-06 4.83085e-20)
(2.13373e-05 1.04885e-06 3.72285e-22)
(-2.80713e-07 -1.40111e-05 4.48216e-18)
(-3.13509e-07 -8.41494e-06 6.65968e-19)
(-1.8083e-07 -8.72507e-06 -7.34368e-19)
(-9.20043e-06 -1.71732e-05 3.89566e-20)
(-7.93841e-06 -1.76886e-05 1.1238e-18)
(-8.7358e-06 -1.61032e-05 1.18943e-18)
(0.000127327 0.000467388 -2.3597e-17)
(0.000135499 0.000468139 2.8082e-17)
(0.000130148 0.00048057 3.73331e-17)
(7.95299e-05 -0.000134568 2.0929e-18)
(8.34912e-05 -0.000137335 9.26385e-19)
(7.92376e-05 -0.000137055 2.18605e-19)
(2.56206e-05 0.00030341 1.8798e-18)
(1.84707e-05 0.000304581 -6.79523e-18)
(2.14823e-05 0.000300857 -8.67181e-18)
(0.000283104 1.65245e-05 -2.15662e-17)
(0.000270784 -1.27532e-05 -5.93964e-18)
(0.000742527 0.000224524 -6.12247e-18)
(0.000699037 0.000188237 -4.40856e-18)
(0.000760445 0.000170947 -5.5231e-18)
(6.84488e-05 0.000502436 -1.79581e-17)
(3.2621e-05 0.000532107 -5.30266e-18)
(8.04241e-05 0.000539328 -2.45795e-17)
(2.18852e-05 2.72111e-06 4.9257e-19)
(2.27087e-05 1.8163e-06 1.78202e-19)
(2.16653e-05 2.39603e-06 2.22947e-19)
(0.000180423 -0.000217851 -2.30833e-20)
(0.00018426 -0.000215911 -4.42966e-18)
(0.000185071 -0.000219589 -6.95251e-18)
(2.31743e-05 0.000167794 6.7331e-19)
(1.9034e-05 0.000170595 -8.14669e-18)
(2.22196e-05 0.000180955 -6.94031e-18)
(0.00012538 0.00049594 2.15794e-17)
(6.36342e-05 0.000602728 -1.43911e-17)
(4.56827e-06 0.000297311 1.96993e-17)
(-4.2579e-06 0.000297574 2.49396e-18)
(0.000142125 4.71504e-05 -4.53059e-19)
(0.000137901 5.76674e-05 4.93617e-19)
(0.000196042 -0.00017977 -9.41266e-18)
(0.000197584 -0.000179707 -9.57644e-18)
(0.000199067 -0.000181189 -5.31719e-18)
(0.0025572 -0.00242499 -8.02182e-18)
(0.00231882 -0.00245917 -2.24394e-18)
(7.4029e-05 9.90306e-05 -8.75738e-19)
(6.93625e-05 8.8489e-05 4.22536e-19)
(7.27246e-05 9.31744e-05 4.31432e-19)
(0.000181537 -0.000176797 3.50527e-18)
(0.00018779 -0.000177883 -4.66584e-18)
(0.0001869 -0.000177223 -2.64641e-18)
(8.00092e-05 -0.000132469 2.79799e-18)
(7.65132e-05 -0.000132028 -1.95112e-19)
(0.00197423 -0.000639913 1.93578e-17)
(0.00148444 -0.000453569 9.26723e-19)
(0.00191602 -0.000572708 5.0584e-17)
(0.000128375 -1.05932e-05 -8.86136e-19)
(0.000131327 -1.35574e-05 2.31504e-19)
(-0.00701312 0.000140903 6.52504e-18)
(1.56973e-05 5.8335e-05 -1.21381e-18)
(1.77127e-05 5.51617e-05 7.07918e-19)
(5.47269e-06 0.000532349 -4.69738e-17)
(1.2963e-05 0.000522139 -5.33292e-17)
(-0.000834538 -0.00124702 4.39841e-17)
(-0.00154084 0.000491879 7.77875e-18)
(-0.00201463 -0.00092162 4.4776e-17)
(-1.53686e-06 0.000156859 -1.48699e-18)
(-1.02689e-06 0.000153908 4.22371e-18)
(-5.50499e-06 3.66353e-05 9.28655e-19)
(-2.43227e-06 4.32837e-05 -3.01783e-18)
(0.00232884 0.00123554 -1.28105e-18)
(0.00245611 0.00112784 -6.89006e-18)
(0.00250766 0.00135627 -5.05044e-18)
(0.000394655 -8.74775e-05 5.56435e-19)
(0.000414288 -0.000108024 -7.56409e-18)
(0.00042546 -6.85987e-05 9.09094e-18)
(2.61729e-06 0.000152759 -1.13933e-18)
(6.4496e-06 0.000156419 4.73684e-19)
(-0.00326165 0.00388947 1.72792e-18)
(-0.00304558 0.00386524 -7.45656e-18)
(0.00431091 0.000546095 -6.67361e-19)
(0.00433053 0.000700535 8.55878e-18)
(0.00447258 0.000597702 -1.03333e-17)
(3.81553e-05 1.05958e-05 -3.84139e-18)
(3.7454e-05 1.79252e-05 -5.20635e-18)
(1.09281e-05 0.000538716 3.68622e-17)
(-3.50246e-06 0.000515622 -3.10136e-17)
(-6.86812e-06 0.000534005 6.48373e-17)
(-0.00093259 -0.00133168 1.87723e-18)
(-0.000864586 -0.00125132 3.51974e-18)
(-0.000799899 -0.00133714 9.5178e-19)
(0.000666885 0.000539108 1.09465e-17)
(0.000943954 0.000816406 6.67002e-18)
(0.000481432 0.000637482 -9.11366e-19)
(0.000103088 -0.000154166 2.21124e-18)
(0.000107542 -0.000155525 1.79815e-18)
(0.000108093 -0.000155654 4.23782e-18)
(0.00381551 -0.00455004 2.85983e-18)
(0.00357825 -0.00463204 -4.19018e-18)
(0.00462893 -0.00478673 4.21039e-18)
(-1.15215e-06 -1.15412e-05 1.82087e-18)
(-1.09287e-06 -4.43004e-06 -2.63627e-18)
(-1.31018e-06 -4.61137e-06 -1.72525e-18)
(-1.30569e-06 1.31661e-05 1.91547e-20)
(-1.33904e-06 2.28853e-05 5.86933e-19)
(-1.28811e-06 1.09745e-05 1.61353e-18)
(-1.1637e-06 0.000157241 4.86343e-18)
(5.15364e-06 0.000538511 2.55323e-18)
(2.76757e-05 0.000539635 3.5809e-17)
(1.69502e-05 0.000529672 -2.27375e-17)
(-0.00551287 0.00105054 -1.13469e-17)
(-0.00546199 0.00108687 -1.85201e-18)
(-0.00192103 0.00017305 -6.71394e-18)
(-0.00208264 0.000152201 1.68569e-17)
(-0.00204779 0.000164733 -4.23697e-18)
(9.79238e-05 -0.000151988 4.01832e-19)
(9.69136e-05 -0.000152667 2.78417e-19)
(2.43349e-06 4.78662e-05 3.10425e-19)
(1.83953e-06 4.66332e-05 3.32083e-19)
(7.75923e-07 3.656e-05 5.45431e-19)
(-0.00123431 -0.000598196 1.00361e-17)
(2.51349e-05 -0.00116286 2.70754e-17)
(0.000172143 -0.000220314 5.27885e-18)
(0.000174044 -0.000212108 1.49912e-18)
(-1.05875e-05 -1.76046e-05 -2.29071e-19)
(-9.62241e-06 -1.87541e-05 -6.97809e-19)
(0.00176278 0.00173209 -1.39155e-17)
(0.00176551 0.0014789 2.1881e-17)
(0.00150077 0.00159487 -2.19546e-17)
(0.000522623 -0.00063302 7.6793e-18)
(0.000524588 -0.000582349 4.35647e-19)
(0.000570943 -0.000602149 4.52142e-18)
(8.2272e-05 -4.23164e-05 -6.00838e-19)
(8.00701e-05 -4.90722e-05 -1.33265e-19)
(8.00821e-05 -3.84864e-05 -1.50701e-19)
(0.000119937 0.000198968 -3.71125e-18)
(0.000122811 0.000202963 7.94189e-19)
(0.000126263 0.000195853 -2.25849e-18)
(-0.00126941 0.000644829 -4.87864e-17)
(-0.00123718 -2.60385e-05 -1.60594e-17)
(8.72499e-06 0.000528039 3.02509e-17)
(1.21733e-05 0.000522364 -1.02594e-17)
(8.20373e-06 0.000522496 -4.29087e-17)
(0.00220053 -0.000643599 -4.33482e-19)
(0.00223685 -0.000515286 3.06532e-18)
(0.00236529 -0.000650308 1.81915e-19)
(0.000547266 0.000138167 -1.75042e-17)
(0.000532612 0.000190262 2.5616e-17)
(0.000492219 0.000152814 2.01744e-17)
(-0.00145663 -0.00283859 -8.58175e-19)
(-0.00162333 -0.00299248 4.54745e-18)
(-0.00168734 -0.00277845 -6.82181e-21)
(4.96498e-05 0.000487985 2.04459e-17)
(4.87149e-05 0.000473246 -9.85081e-18)
(6.02194e-05 0.000480885 -4.67009e-17)
(2.86517e-05 1.203e-05 -5.8452e-20)
(2.91836e-05 1.07087e-05 2.44231e-19)
(2.89463e-05 1.21026e-05 3.68894e-19)
(-5.27684e-06 0.000329212 2.91123e-17)
(9.53179e-07 0.000321781 -6.70407e-18)
(-1.02674e-05 0.000324089 3.64492e-18)
(0.000109203 0.000470179 -7.41194e-18)
(0.000118848 0.000455497 -8.43692e-19)
(0.000100381 -0.000159919 -3.16618e-19)
(0.00010079 -0.000164283 -4.84529e-18)
(9.47182e-05 -0.000160221 -3.1939e-18)
(4.76207e-05 -6.93416e-06 2.22957e-19)
(4.64449e-05 -9.48517e-06 6.23531e-21)
(4.76221e-05 -1.43914e-05 -1.83473e-19)
(-0.00198514 0.00307537 2.41834e-17)
(-0.00172228 0.00292678 -1.90443e-17)
(-0.00239726 0.00318742 9.66481e-18)
(0.000255502 0.000749233 3.74322e-18)
(0.000214094 0.000758084 6.47173e-18)
(0.000255241 0.000791445 6.16997e-18)
(0.000792303 0.000258495 -5.47113e-18)
(0.000719381 0.000289375 -4.882e-18)
(0.000139928 2.55148e-05 -7.21414e-20)
(0.000143321 2.41426e-05 2.38161e-19)
(0.000430145 -0.000257705 3.55067e-18)
(0.000437179 -0.000243431 -2.59334e-18)
(0.000451706 -0.000257818 -1.1153e-17)
(0.00124529 -0.00164847 -2.25788e-17)
(0.0013802 -0.00145891 9.43194e-19)
(0.00153488 -0.00152044 -1.81788e-17)
(0.0053609 -0.00125542 -1.46526e-17)
(0.00540981 -0.000963526 -1.07852e-17)
(-0.000293411 -0.00197189 5.12812e-18)
(-0.000410546 -0.00198795 9.11862e-18)
(-0.000336561 -0.00209726 8.01386e-19)
(-0.00209547 0.00319431 3.26723e-17)
(-0.00130474 0.00297411 -5.40604e-18)
(1.15318e-05 0.000247311 3.68804e-18)
(1.40195e-05 0.00025226 -1.21477e-17)
(8.68202e-06 0.000252559 5.59966e-18)
(-7.09252e-06 0.000592586 -2.28547e-17)
(-4.21414e-05 0.000601302 -3.75895e-17)
(-1.72917e-05 0.000538825 2.59929e-17)
(4.01255e-05 1.20596e-05 -5.04462e-19)
(4.06541e-05 5.58847e-06 -8.98052e-19)
(3.99852e-05 1.12225e-05 -1.64128e-18)
(5.02077e-05 0.000573266 -2.01933e-18)
(3.45725e-05 0.000574128 1.76698e-17)
(3.4041e-05 0.000556642 3.28691e-17)
(-0.00605789 -0.000934444 2.29347e-18)
(-0.00583325 -0.00100734 -1.43993e-18)
(-0.00593789 -0.00115465 2.62277e-18)
(1.94888e-05 0.00029651 -3.2037e-18)
(2.43426e-05 0.000296627 3.2841e-18)
(2.57141e-05 0.000294749 1.25651e-17)
(-1.15361e-06 -1.72024e-05 -8.39397e-19)
(-8.08682e-07 -1.80963e-05 4.44294e-19)
(0.00220194 0.00137248 -7.11106e-18)
(0.00217896 0.00115987 9.71105e-18)
(-0.00769702 -0.000635925 -2.8432e-18)
(-0.00749437 -0.000758355 -9.64279e-19)
(-0.00762995 -0.00067216 -3.2106e-18)
(9.45448e-05 0.000396558 7.61518e-18)
(0.000105482 0.000390471 -2.37888e-17)
(2.26455e-05 -5.78004e-07 5.06705e-20)
(2.11529e-05 -1.42378e-06 -1.42176e-19)
(2.20539e-05 -3.67038e-07 -1.97613e-19)
(0.000113968 0.000200529 -1.6078e-18)
(0.000117606 0.000194181 4.23818e-18)
(9.10406e-05 -0.000124049 -1.86811e-18)
(9.54004e-05 -0.000125072 5.56225e-20)
(9.39958e-05 -0.000119679 -1.03604e-18)
(2.28833e-05 -3.7039e-07 -2.53299e-19)
(2.12385e-05 -3.65572e-07 2.08679e-19)
(-2.67307e-06 -1.46407e-05 -2.2562e-19)
(-4.60019e-06 -1.30619e-05 1.18786e-19)
(-3.44828e-06 -1.25391e-05 6.59207e-20)
(1.78113e-05 0.000539742 2.69023e-17)
(-0.00581072 -0.00159021 4.82986e-18)
(-0.00606809 -0.00144297 -3.72992e-18)
(-0.0061569 -0.00142107 6.75318e-18)
(8.10637e-06 0.000241345 -1.29744e-18)
(1.11294e-05 0.000238126 2.876e-18)
(8.75297e-05 -0.000138408 9.06742e-19)
(8.6461e-05 -0.000136287 1.69498e-18)
(-5.6873e-07 -1.90616e-05 2.55211e-20)
(-5.60104e-07 -1.51651e-05 -7.58845e-20)
(-0.000922418 -0.00172524 -2.39459e-17)
(-0.00191164 -0.000701832 -1.67698e-17)
(7.92904e-05 -0.000619996 1.34904e-17)
(-0.00175924 -0.00173458 -1.97012e-17)
(-0.00161984 -0.00151057 1.73596e-18)
(0.000433312 -0.000199341 -1.28875e-17)
(0.000418982 -0.000188803 -8.66159e-18)
(5.52548e-05 0.000494551 2.92427e-18)
(5.14788e-05 0.000495908 1.9407e-17)
(8.21296e-07 0.000154187 -8.31385e-20)
(-9.10416e-07 0.000146843 6.39012e-18)
(1.22364e-05 0.000296836 -8.8861e-18)
(1.53019e-05 0.000295059 -1.15717e-17)
(0.00403617 -0.00489069 1.45633e-18)
(0.0036794 -0.00494985 -2.55537e-19)
(0.00333294 -0.00457702 3.65161e-18)
(3.66558e-05 -8.58257e-05 -3.80236e-18)
(3.97152e-05 -8.67541e-05 -1.19356e-18)
(3.85417e-05 -8.33012e-05 -1.1681e-18)
(4.7038e-05 0.000205713 3.97909e-18)
(4.57361e-05 0.000218782 1.28934e-17)
(4.10134e-05 0.000205897 1.68277e-17)
(0.000102898 0.000485939 -7.14505e-18)
(9.74195e-05 0.00049414 2.38777e-17)
(0.00010855 0.000495321 -4.72769e-17)
(-2.76463e-06 3.64736e-05 4.03576e-18)
(-4.74199e-06 3.2289e-05 -2.36605e-18)
(-0.00459849 0.00434425 5.14748e-18)
(-0.00423445 0.00413358 -1.31512e-18)
(-0.00436459 0.0043027 -1.93998e-18)
(0.000157939 0.000853499 -1.0961e-18)
(0.000201582 0.000839816 -4.40916e-18)
(0.000159556 0.000809201 -2.85215e-18)
(2.54134e-05 0.000162779 9.09733e-18)
(2.38975e-05 0.000152198 4.59168e-18)
(2.88146e-05 -7.7131e-05 -4.63632e-19)
(3.16365e-05 -7.87286e-05 1.17584e-20)
(3.06082e-05 -7.55778e-05 -1.3072e-19)
(0.000295479 -0.000122267 -3.54976e-18)
(0.000294127 -0.000112963 -6.0503e-19)
(0.000305604 -0.000116541 -5.41202e-18)
(0.000760629 -0.000500896 -2.73175e-19)
(0.000814262 -0.000499191 -2.99632e-18)
(0.000760874 -0.000443826 -5.69369e-18)
(2.98087e-05 0.000553708 -7.35826e-18)
(-1.84966e-06 0.000582574 -2.90829e-17)
(0.00111066 -0.00150779 5.2692e-19)
(0.00122315 -0.00149185 -4.08258e-18)
(0.00115102 -0.00161221 -1.71195e-18)
(0.00045502 8.67492e-05 -5.89871e-19)
(0.000446513 7.06216e-05 2.55046e-19)
(0.000469882 6.32846e-05 -1.7936e-18)
(0.000227307 -0.000182834 -3.31795e-19)
(0.000230684 -0.000182473 6.08628e-19)
(0.000223501 -0.00017974 -2.6689e-18)
(-0.00107362 5.73518e-05 3.54499e-17)
(-0.000982577 4.3704e-06 -2.61297e-17)
(-0.000967492 1.58372e-05 -3.87306e-17)
(0.000389983 -7.48748e-05 -4.49475e-19)
(0.000384434 -8.81846e-05 -3.39639e-18)
(0.00167891 0.000191019 -8.00248e-18)
(0.00354585 0.000445026 5.17084e-18)
(0.00447182 -7.82813e-05 -2.13325e-17)
(0.000492034 0.000270643 -2.31361e-17)
(0.000919508 0.000480575 -2.21629e-17)
(-0.00020627 -0.0010024 -1.74717e-17)
(-0.000599086 -0.00193522 1.76533e-17)
(8.42818e-05 0.000257886 7.38443e-18)
(8.66682e-05 0.00026092 -4.4269e-18)
(7.95904e-05 0.000262276 5.63753e-18)
(-3.54558e-05 0.000367782 -7.17349e-18)
(-2.04233e-05 0.000369392 -8.53983e-18)
(-3.3356e-05 0.000377089 -3.89649e-17)
(-1.65081e-06 -4.28831e-06 -2.07534e-18)
(-1.55229e-06 -4.41481e-06 1.14343e-18)
(-8.48876e-07 -1.1619e-05 3.93475e-19)
(0.00217613 -0.000805339 6.8503e-18)
(0.00205738 -0.000666827 6.92893e-18)
(-0.00015228 -0.0019709 -8.62424e-18)
(-0.00021517 -0.00185679 -7.00957e-18)
(-0.00132457 -0.00271315 -7.28955e-18)
(-0.00125404 -0.00290705 -4.68217e-18)
(0.00010455 -0.00015986 4.53075e-18)
(9.96851e-05 -0.000156737 2.96669e-18)
(0.00074424 -0.000113528 3.25776e-18)
(0.000772851 -0.000147445 3.47968e-18)
(0.000803194 -9.69623e-05 1.23532e-17)
(6.48518e-05 -0.000117939 -1.27009e-18)
(6.83677e-05 -0.000119886 1.41133e-18)
(6.85746e-05 -0.000116291 -6.46696e-19)
(-1.21256e-05 0.000330181 3.47992e-18)
(-4.1235e-06 0.000332592 -1.75731e-17)
(0.00049243 1.36002e-05 -5.38636e-19)
(0.00047298 2.91191e-05 -1.42133e-18)
(0.000473359 1.48132e-06 -7.21235e-18)
(-0.000555119 -0.00074675 1.63769e-17)
(-0.000368693 -0.000624798 2.9317e-17)
(-0.000428398 -0.000825493 -2.11213e-17)
(-0.000713105 -0.0020028 -6.91533e-18)
(-0.000739245 -0.00209282 -8.28823e-19)
(-0.000639407 -0.0020753 7.26142e-18)
(0.000155335 4.35914e-05 -1.41667e-18)
(0.000160568 4.1726e-05 -3.6165e-19)
(0.000156253 5.39014e-05 -5.91737e-19)
(-0.00531386 0.00435657 3.54575e-18)
(-0.00527 0.00443897 3.31211e-18)
(-0.00509942 0.00445865 -3.46225e-18)
(0.000477582 0.000137099 -1.09841e-19)
(0.000482546 0.000156042 1.72611e-19)
(0.000499756 0.000137392 1.72883e-19)
(-0.00552817 -0.00171465 -7.41892e-19)
(-0.00532267 -0.0017385 -4.86213e-19)
(5.73294e-05 0.000579744 9.13676e-18)
(7.29833e-05 0.000561156 1.15776e-17)
(-0.00480618 0.00442574 -2.74664e-18)
(-0.00470169 0.00457022 -9.10955e-18)
(7.95406e-05 6.58063e-05 2.10443e-19)
(8.23302e-05 6.55142e-05 4.52878e-20)
(8.08356e-05 6.8619e-05 -4.21096e-19)
(0.000511607 -0.000681597 -2.04394e-17)
(0.000473103 -0.00065174 1.43004e-17)
(0.000392007 -0.000284158 1.51814e-18)
(0.000370781 -0.000280314 2.88468e-18)
(3.49244e-05 -8.78564e-05 2.0673e-20)
(3.37738e-05 -8.48136e-05 -1.42325e-18)
(3.44775e-06 5.08743e-05 -1.15745e-18)
(5.15847e-06 5.74359e-05 -1.99694e-19)
(0.000214602 0.000217028 5.26302e-18)
(0.000202944 0.000223395 -9.1164e-18)
(0.00020806 0.000211891 2.40392e-19)
(0.00435524 -0.00490919 1.89654e-18)
(0.00401419 -0.00481264 -3.97747e-18)
(0.000939651 -0.00151735 -2.1462e-17)
(0.000967568 -0.00161701 -6.45117e-18)
(0.00108142 -0.00157509 -2.23371e-17)
(-0.00120075 0.000141454 1.13025e-16)
(-0.00131494 7.96071e-05 3.26676e-18)
(0.000230732 -0.000163348 -2.77417e-18)
(0.000228987 -0.000169166 3.10222e-18)
(0.000226826 -0.000163821 3.9874e-18)
(-0.000141015 -0.00301204 3.76185e-18)
(-0.000277748 -0.00302936 8.81998e-19)
(-0.000181445 -0.00316967 5.92569e-18)
(0.0054782 -0.00244126 -1.27667e-17)
(0.00604111 -0.00269888 4.73592e-18)
(0.0063786 -0.00252495 -3.6868e-18)
(-0.00173472 0.000203503 -1.19471e-17)
(-0.00174848 0.000272421 -2.38706e-17)
(0.00138887 -0.00103372 -2.18426e-17)
(0.00133088 -0.00109123 6.07395e-18)
(0.00142104 -0.00112207 -7.67486e-17)
(2.1112e-05 0.000112259 3.12095e-18)
(1.89502e-05 0.000111587 -1.12326e-18)
(1.82697e-05 0.000115384 -7.021e-19)
(2.22985e-05 0.000485298 -2.66991e-17)
(3.64263e-05 0.000491915 1.41898e-17)
(2.11941e-05 0.000492387 4.38778e-17)
(2.39605e-05 0.000359031 2.28565e-17)
(3.81263e-05 0.000358667 2.2117e-18)
(2.39218e-05 -6.44784e-07 -2.54843e-20)
(2.42232e-05 -3.59842e-07 -1.77967e-19)
(8.45647e-05 -3.64195e-05 -2.70244e-19)
(8.42652e-05 -4.90346e-05 6.24028e-19)
(0.000337876 0.000725284 -1.76859e-18)
(0.000338924 0.000684666 -2.12894e-18)
(0.000377335 0.00070548 -9.06811e-19)
(0.000892659 0.00205875 1.06335e-17)
(-0.000647592 0.00175412 -2.10108e-17)
(1.50338e-05 -6.10438e-05 1.48374e-17)
(7.73791e-05 -0.00033467 4.36483e-18)
(7.87237e-05 -0.000347636 -7.09996e-18)
(8.91521e-05 -0.000332971 9.01317e-18)
(2.09836e-05 3.6306e-06 1.80077e-19)
(2.16873e-05 2.68179e-06 -2.71242e-19)
(0.000747865 -0.000297728 -9.71981e-19)
(0.000680256 -0.000302024 -1.37899e-17)
(0.000726002 -0.000235151 -1.51023e-17)
(0.000754421 -0.000562045 -9.85629e-18)
(0.000711197 -0.000502226 4.72037e-18)
(0.0041184 0.000467456 1.2041e-17)
(0.00427464 0.000393481 -2.68647e-18)
(-0.00221744 0.00318762 2.69082e-18)
(-0.00205268 0.00333575 1.05314e-17)
(-0.0023038 0.00303097 7.92645e-18)
(2.80794e-05 2.87608e-05 5.79785e-18)
(2.70721e-05 2.74183e-05 1.57933e-18)
(7.37836e-05 0.000103309 4.34389e-19)
(7.76988e-05 0.000108869 -3.46835e-20)
(0.000559707 9.48644e-05 -3.56798e-17)
(0.000597477 0.000125646 -1.12562e-17)
(0.00195092 -0.00388469 -1.85243e-18)
(0.00320287 -0.00428281 9.02812e-19)
(0.00256238 -0.00399172 3.80427e-18)
(4.3354e-05 0.000195482 -7.39687e-18)
(4.77585e-05 0.000201159 -1.00943e-17)
(-0.000709047 -0.0028386 6.16598e-19)
(-0.00110821 -0.00256608 5.33188e-18)
(0.000108359 -0.00296693 1.91733e-18)
(0.0040698 0.000133479 -7.09123e-18)
(0.00418947 0.000262147 -1.20797e-19)
(0.00391791 0.000157751 -6.56923e-18)
(-4.10399e-05 -0.0028671 5.34148e-18)
(4.72185e-05 -0.00303344 -1.07668e-17)
(4.57688e-05 -2.74449e-07 4.44561e-19)
(4.81784e-05 -2.74856e-06 7.42845e-19)
(6.47471e-05 0.000595299 7.40891e-18)
(6.97374e-05 0.000616956 -3.29881e-17)
(4.09888e-05 0.000606491 -2.85867e-17)
(0.000567018 -3.40075e-05 -1.05831e-18)
(0.000568774 8.00415e-06 3.7095e-18)
(0.000529989 -1.24981e-05 3.18937e-18)
(0.00329772 -0.000673599 -3.10019e-17)
(0.0031061 -0.000813478 6.64636e-17)
(0.00337655 -0.000724266 3.85566e-17)
(4.74942e-05 -1.4025e-06 1.56957e-19)
(4.78349e-05 2.25827e-06 -7.82619e-19)
(4.77529e-05 2.60992e-06 -1.25481e-18)
(0.00248586 -0.000840952 1.17208e-17)
(0.00210748 -0.000719918 2.51055e-17)
(7.52209e-05 6.59595e-05 7.67312e-19)
(7.64015e-05 6.29015e-05 2.12246e-19)
(-8.46376e-05 -0.000530945 -9.3789e-18)
(-7.43264e-05 -0.000497927 -8.0747e-18)
(-5.32613e-05 -0.000528748 -2.96644e-18)
(1.99325e-05 1.0569e-06 -2.31618e-21)
(2.09778e-05 9.24515e-07 6.32244e-21)
(-0.00408299 0.00143129 -8.65205e-21)
(-0.00434808 0.00120186 -1.44672e-18)
(-0.00441742 0.00124333 3.02674e-18)
(-0.00150737 0.00275709 -3.41515e-17)
(-0.00127761 0.00257429 -3.12118e-18)
(-0.00187462 0.00281673 -3.05562e-17)
(0.000230964 8.55314e-05 -1.87514e-18)
(0.000229309 7.20165e-05 8.14713e-19)
(0.00102858 0.00121695 4.0152e-18)
(0.00120952 0.0015241 1.65683e-18)
(0.00140845 0.00113203 1.53588e-17)
(0.000235086 -0.000187476 -8.66628e-18)
(0.00022234 -0.000186987 3.22235e-18)
(4.56539e-05 7.85507e-06 -6.8333e-20)
(4.46629e-05 5.26803e-06 -2.68975e-19)
(0.00324886 -0.0056084 3.23247e-18)
(0.00347547 -0.0059441 -6.22673e-18)
(-0.000844462 -0.00193619 -2.54162e-18)
(-0.000707405 -0.00185444 -1.40842e-17)
(0.0002333 -0.000163714 -1.01976e-17)
(0.000233419 -0.000157711 7.32937e-19)
(-0.000930895 -0.00216303 -5.19121e-18)
(-0.000772505 -0.00209914 7.81086e-18)
(-0.000516436 -0.00261277 3.90763e-18)
(0.00419201 4.67526e-05 1.19509e-17)
(0.00402672 4.43637e-06 1.46184e-17)
(2.76362e-05 -4.62093e-07 5.28318e-19)
(2.76224e-05 -2.90689e-06 -3.57684e-19)
(2.7074e-05 -1.69537e-06 4.61955e-19)
(0.000281992 -0.000150642 -2.15003e-18)
(0.000291273 -0.000145631 1.1107e-17)
(0.00199604 0.00198583 -2.86418e-18)
(0.00173693 0.00199467 7.224e-18)
(-0.00174809 0.000268439 1.64794e-17)
(-0.00179645 0.000212072 -1.69661e-17)
(-0.00168814 0.000263254 -3.15584e-17)
(-2.14761e-06 -3.68853e-06 -1.63336e-18)
(-1.22206e-06 4.79648e-06 -4.78958e-19)
(2.90074e-05 -1.32574e-05 -8.55063e-20)
(2.88607e-05 -1.16847e-05 -2.34988e-19)
(3.00571e-05 -1.27843e-05 -8.68949e-20)
(0.00809308 -0.000829095 4.62098e-18)
(0.0079644 -0.00103198 2.70339e-18)
(0.00249564 -0.000138418 -3.54187e-18)
(0.00249835 -0.000301656 1.21432e-18)
(0.00265202 -0.000217733 3.88706e-18)
(-8.63195e-07 -1.52373e-06 -6.42642e-19)
(-4.41121e-07 -1.44464e-06 -3.36578e-19)
(-8.32027e-07 -1.98237e-06 1.24567e-18)
(0.0016047 -0.0054474 3.01285e-18)
(0.00129432 -0.00550042 -4.73003e-19)
(0.00136486 -0.00521948 -1.47427e-18)
(-0.000162505 0.000356342 5.46668e-18)
(-0.000119932 0.00042442 -3.17033e-18)
(-8.86193e-05 0.000342715 -3.18671e-18)
(-3.24797e-05 0.000359485 -1.34856e-17)
(-4.2581e-05 0.000362209 2.69984e-17)
(0.000356869 -0.000201248 6.0095e-19)
(0.000367465 -0.000209227 3.43219e-18)
(0.000350595 -0.000209368 -4.31044e-18)
(-2.00466e-07 3.36298e-06 4.69844e-19)
(-2.09245e-06 -6.54457e-06 4.12754e-18)
(0.000432693 0.000222282 -2.19908e-18)
(0.000418587 0.000201632 -2.93492e-18)
(0.000409183 0.000225809 -1.59632e-18)
(0.00316271 0.000299461 -4.04967e-18)
(0.0029279 0.000297823 -3.81251e-18)
(0.00295941 6.25259e-05 -3.39917e-17)
(-2.36844e-05 -0.000107507 1.55487e-18)
(-2.78037e-05 -0.000114423 -4.21952e-18)
(-2.39643e-05 -0.00011332 3.08785e-19)
(0.000696379 -0.000807935 4.36286e-19)
(0.000713061 -0.000747662 3.77606e-17)
(0.000642111 -0.000773273 2.91321e-17)
(5.79958e-05 0.000501257 -2.85513e-18)
(7.14447e-05 0.000504287 -2.26635e-17)
(6.1554e-05 0.000511199 1.333e-17)
(8.93938e-05 -0.000120296 -3.72635e-19)
(8.69714e-05 -0.0001239 -2.08361e-18)
(6.61182e-05 7.89517e-05 -2.46784e-19)
(6.62569e-05 8.41586e-05 5.68827e-19)
(0.000716555 -0.00125355 1.99956e-18)
(0.000804461 -0.00128367 4.49747e-18)
(0.000722274 -0.00134431 -9.33151e-18)
(0.00653783 -0.00154788 2.54939e-18)
(0.00688707 -0.00132755 -1.86233e-20)
(0.00654226 -0.00138279 4.50747e-19)
(0.000994993 -0.00152391 1.27161e-18)
(0.00107004 -0.00141159 2.61073e-18)
(0.000223918 0.000209685 -9.77312e-18)
(0.000218567 0.000221391 1.30696e-17)
(0.000212277 0.000134823 -7.01825e-21)
(0.000218574 0.000139759 -6.03314e-19)
(-7.69508e-07 -3.56048e-06 -2.47205e-19)
(-7.76286e-07 -3.10074e-06 -8.4081e-20)
(-3.62619e-07 -2.57811e-06 -3.15199e-19)
(-0.00782773 -0.000548139 -2.66548e-18)
(-0.00770936 -0.000586931 -3.75955e-18)
(0.00257873 -0.0011744 -1.03681e-17)
(0.00259007 -0.000890086 1.15089e-17)
(0.00285367 -0.00115517 1.04767e-17)
(-0.000872252 -0.0059465 7.78547e-19)
(-0.000612035 -0.00621602 7.57944e-18)
(-0.0012355 -0.00627469 2.88818e-18)
(4.51191e-05 1.41616e-05 2.00514e-21)
(4.63229e-05 9.50901e-06 -3.01373e-19)
(0.00522021 -0.000163059 2.07069e-17)
(0.0051928 -0.000155001 9.55335e-18)
(0.0051824 -0.000229275 2.38741e-17)
(-0.00642348 7.051e-05 3.71736e-18)
(-0.00654829 6.76384e-05 -6.10783e-18)
(-0.00672877 -2.94294e-05 -2.09282e-17)
(-0.00114571 0.000444356 2.19209e-18)
(-2.36381e-05 -0.000106644 4.05707e-18)
(0.00397012 -0.00457228 -1.11816e-19)
(0.00323989 -0.00432893 2.40551e-19)
(-0.00098531 -0.00144545 -1.09261e-18)
(-0.00107194 -0.00133622 -1.67073e-18)
(-8.15925e-07 1.28034e-05 -1.96611e-18)
(2.04372e-05 -6.18142e-07 5.50465e-20)
(2.05044e-05 -1.15371e-06 2.40375e-19)
(1.8937e-05 -1.31533e-06 1.83592e-19)
(0.000307364 2.22032e-05 1.2341e-18)
(0.000319069 8.1125e-07 2.90898e-17)
(0.000334432 2.77843e-05 2.32575e-18)
(-0.00272996 0.00142169 -1.77314e-17)
(-0.00312804 0.00117415 6.98655e-18)
(-0.0028083 0.0012102 -1.84422e-17)
(0.000873023 0.00103747 -4.17202e-18)
(0.000755464 0.00106218 2.28419e-17)
(0.000865586 0.0011723 -6.99019e-18)
(0.000175449 -0.000174879 1.26264e-19)
(0.000175658 -0.000176157 -2.76576e-18)
(-0.00220404 0.00305695 -2.71728e-17)
(-0.0018125 0.00326463 -3.34982e-18)
(-0.00017975 -0.000935133 -2.75852e-18)
(-0.00019602 -0.000888184 -5.85251e-18)
(-4.32976e-06 -8.58236e-06 -1.46436e-18)
(-3.86721e-06 -1.02425e-05 -1.90711e-19)
(-5.20891e-06 -8.98644e-06 1.02018e-18)
(0.0064821 -0.00250157 -8.96504e-18)
(0.00649339 -0.00238261 6.12545e-18)
(0.00606951 -0.00248684 -3.75461e-18)
(1.80808e-05 4.54608e-05 -1.05565e-18)
(1.76975e-05 4.33435e-05 -1.15447e-18)
(1.57382e-05 4.61304e-05 -6.33633e-19)
(-0.005351 0.00422442 -1.65581e-18)
(-0.00538478 0.00425528 -1.10307e-17)
(7.30659e-05 -0.000319352 -1.15896e-18)
(6.39737e-05 -0.000333855 1.00913e-18)
(-9.7863e-07 -1.17195e-06 7.45871e-20)
(-1.29274e-06 -1.35737e-06 -4.23423e-19)
(0.0002662 6.08574e-05 -1.69725e-18)
(0.00027125 6.39627e-05 -1.87534e-18)
(0.000260881 7.21972e-05 2.47404e-18)
(0.000464377 9.75513e-05 -8.04097e-19)
(0.000445354 0.000103297 -3.42873e-19)
(-3.3046e-06 0.000372104 -1.2481e-18)
(-4.74438e-06 0.000364415 1.42237e-17)
(0.00191702 -0.00585938 -1.84864e-18)
(0.00198291 -0.00541228 -1.39953e-18)
(0.000333541 8.86646e-05 -7.9249e-19)
(0.00034679 9.12723e-05 -1.5455e-18)
(0.000332431 0.000103579 2.83205e-20)
(1.39545e-05 -0.000103325 3.05948e-18)
(1.85239e-05 -0.000105556 1.69284e-18)
(1.63894e-05 -0.000101548 8.7111e-19)
(-0.00194047 -0.00045513 7.70834e-18)
(-0.00237885 -0.000609587 -7.74253e-18)
(-0.00297752 -0.000258845 -2.98596e-18)
(-0.00114087 -0.0022277 -5.84646e-18)
(-0.0012247 -0.0017656 2.01831e-18)
(0.00229697 -0.00122514 -1.67618e-17)
(0.00255726 -0.00141091 -4.67247e-18)