/*--------------------------------*- C++ -*----------------------------------*\
| =========                 |                                                 |
| \\      /  F ield         | OpenFOAM: The Open Source CFD Toolbox           |
|  \\    /   O peration     | Version:  v2012                                 |
|   \\  /    A nd           | Website:  www.openfoam.com                      |
|    \\/     M anipulation  |                                                 |
\*---------------------------------------------------------------------------*/
FoamFile
{
    version     2.0;
    format      ascii;
    class       volScalarField;
    location    "300";
    object      omega_0;
}
// * * * * * * * * * * * * * * * * * * * * * * * * * * * * * * * * * * * * * //

dimensions      [0 0 -1 0 0 0 0];


internalField   nonuniform List<scalar> 
13917
(
0.0392465
0.0221572
4.88395
0.0233476
0.0221077
0.432258
4.57654
5.05483
5.85165
0.0631924
0.149417
0.0625977
0.0234143
10.9328
0.0260723
0.0249047
0.0222715
0.0515647
0.0613895
0.0221133
0.0222668
4.49348
0.0220924
5.01646
0.0220128
4.257
0.0412565
0.0534365
0.729135
0.0965803
0.0417667
0.0276176
0.0357342
0.0256046
0.0220288
0.349181
0.0221011
3.95962
0.0249703
6.35989
0.0219033
0.0222858
0.0215825
0.0812405
0.0220444
0.0273336
0.050783
0.0674098
2.84686
0.0220196
0.0264002
0.0223411
3.34767
0.0259679
0.0222838
0.0264424
0.147837
0.0220249
0.0247463
0.0220059
10.6297
0.0221598
24.5932
0.0221018
0.403479
16.4162
0.022104
0.0220454
0.163611
0.0359102
0.0221153
5.89016
4.4622
0.0220187
2.90873
0.0729097
5.82031
0.0226524
3.95014
0.0222368
0.0222045
0.0221115
0.37625
3.97492
4.90438
0.0225589
0.0221799
12.9979
0.0261491
0.021573
4.26102
0.0840796
0.0218721
0.0229619
14.6867
0.373948
0.114868
0.0621311
0.127472
0.108052
0.0218182
0.0323529
0.0815928
0.0230074
0.0217952
6.10485
0.437157
0.0710557
0.0222766
0.0446055
4.44963
5.65165
0.0802622
6.01816
0.0229571
3.20977
0.0220104
1.48272
5.20471
0.0259428
0.0222739
0.158705
4.70803
0.0503354
0.0219803
0.0227987
0.0220195
0.021988
0.0216066
0.411766
3.70455
0.0228645
0.0220682
0.0222743
3.09295
4.97077
0.0397667
0.113147
0.0220969
0.025843
0.235376
0.0217625
0.0225645
0.100844
0.0220455
5.91726
0.769212
0.022287
0.0217374
0.0282486
0.0538149
3.21538
0.0833999
0.0409051
0.0266883
6.50451
0.0344443
2.33372
7.9147
3.17991
0.0241807
0.0419669
0.0222368
0.109959
0.0787087
0.125145
0.0229807
0.0574692
0.0218937
0.0333966
0.0411424
6.79498
0.0872983
0.0225732
5.47573
0.0448737
3.70958
1.95021
5.81501
0.0219145
0.0878312
0.0432328
0.0217563
0.0221709
0.0298585
4.38901
0.317982
8.53478
0.035666
0.116929
0.244343
5.47507
0.292392
0.0221026
0.119858
0.0404989
0.0224537
0.0218799
0.228263
6.52421
0.025735
0.0220349
0.0532914
0.0531251
4.88099
1.51471
0.0220309
0.0220376
0.0607187
4.62899
0.0224667
4.60541
6.80016
0.117349
0.0218031
0.572913
0.0531103
6.28728
0.0219664
11.2959
0.0219092
0.0863579
0.0218947
4.03384
6.14925
0.0252287
1.92204
0.0270024
0.0218069
0.34961
0.0853459
0.0352664
4.90131
9.10448
0.0217739
0.0280932
4.23569
4.67478
0.0222289
0.0219505
5.13296
0.13023
0.0222668
0.22636
0.0922791
0.0406281
0.0365367
0.0222288
0.0447294
7.49834
0.0218949
0.112089
0.139821
0.0219961
0.0220163
0.0659379
3.78645
0.0782374
0.0301923
0.0262239
0.0222712
6.12123
7.11666
0.185744
0.0218148
4.71756
6.67023
3.2145
3.87406
0.0777852
0.0222153
0.0219367
0.0510176
4.20905
0.114554
0.0244751
2.12217
0.0405104
0.0215997
8.53981
0.0220898
5.48686
0.0253084
0.022262
0.0271788
0.0405898
0.0423261
0.223872
0.0321926
0.0219964
0.317618
4.90743
7.08695
0.0219679
4.01045
0.0221727
0.02199
0.0220179
1.11085
0.0221057
0.0944392
0.0356412
0.0218749
0.0534302
0.0230515
2.38609
0.0437357
0.0768271
0.0217917
0.0220079
4.52936
5.37248
0.0220047
0.0219155
8.59612
0.021896
4.328
0.0217861
4.06982
0.0222982
0.454327
0.032437
3.03386
0.0238886
1.17181
0.306557
0.0271798
0.129615
0.508972
0.0222399
3.83783
0.120841
5.59647
0.0247628
6.62494
0.0287772
4.84457
0.247556
0.109274
0.106145
4.8356
0.0222169
0.0426875
4.4313
0.0221602
0.0234021
6.06104
0.277802
0.0225002
0.238908
0.668129
0.0218609
6.19942
0.21668
0.0220833
0.0218938
0.0221803
0.0217322
0.328656
5.69479
0.698437
4.43315
0.0220163
0.12584
6.55251
0.0410609
4.51591
4.09347
6.06915
0.0217669
0.200838
0.0218732
11.2792
0.0220041
3.77754
0.0921645
0.0243036
0.0221985
0.0576282
0.095804
0.0699445
8.55697
4.59008
9.65956
0.0466665
0.0593083
0.0219584
4.85474
4.33176
0.0220387
0.621831
0.0220423
0.31094
0.0222962
0.0222269
0.0230943
3.59345
0.0230596
3.47292
6.50314
0.134578
0.4675
0.022229
0.481562
0.421414
0.0220384
0.308609
0.0221438
0.0220284
0.0968051
0.0222616
0.0220173
0.0218693
0.344267
0.0222479
5.5803
3.95368
5.09782
0.292973
3.40936
6.25399
0.0404639
0.0220223
0.165049
0.0247758
0.0293224
0.0220951
5.81386
4.54621
3.98279
0.0248757
0.104496
0.0245333
0.0253875
0.0695932
0.0228809
0.212683
0.0222644
0.0220967
4.27509
3.68831
3.69803
0.124292
6.06371
3.82687
4.42721
5.83833
0.0216364
0.0555425
0.0229377
0.022066
0.622811
0.0517093
0.0218833
0.0600277
0.03842
5.88868
0.0220343
0.112206
14.8605
0.713903
4.43064
0.0222553
0.0220457
0.0224167
0.0346735
0.0217693
4.35125
0.540738
0.0320296
5.48062
0.0263678
0.112077
4.56859
0.783114
0.129783
0.227893
0.11186
0.0586177
0.155275
0.0408207
0.147991
0.591715
0.0460183
0.0787555
0.0218652
1.67656
0.0271254
0.0216511
0.0332268
0.022749
5.45177
6.01702
0.0218915
0.0216168
4.54556
8.83934
0.0222618
5.79687
0.0227035
0.215762
0.0219048
5.16192
1.98758
0.0281737
0.0222822
3.38793
0.246595
6.90744
0.0222694
6.63585
2.44389
8.86371
0.0216605
4.66252
6.53749
0.0411036
0.0218868
0.0222618
0.0730305
0.323624
0.021818
0.0219004
0.0219599
0.0219542
5.27936
0.699502
0.0405176
0.304458
0.021967
0.0218256
0.102408
5.41313
0.0326881
0.0219055
0.0220243
0.0220655
8.81801
6.09623
0.0221741
0.0220643
0.201662
0.0405329
0.0324134
0.0220397
0.0231701
0.0267437
0.07706
0.405757
0.31696
0.168281
0.0942129
1.57608
0.0751814
0.0219781
6.26908
0.022069
0.0236807
0.0239756
1.65623
0.0747413
0.0218313
0.713898
0.108736
12.9453
0.0951779
0.0354544
0.0404253
0.0221896
6.89433
0.495423
4.48634
0.0221839
0.0289939
0.308687
4.1055
24.468
0.065175
0.143729
0.0248519
0.0239903
0.0220427
0.0535418
0.0867393
0.0221645
0.0526052
0.133582
4.58359
6.23204
0.0239374
0.108502
1.41042
0.0283073
0.0223761
3.52303
6.42438
5.74696
0.275542
0.021621
5.64941
0.0715274
0.0218646
0.0309865
0.0721699
0.0343698
0.0947831
3.98957
0.151418
0.036317
6.83656
0.0230283
7.33433
0.0222376
0.0221674
4.13558
6.37455
0.63692
0.0230229
0.0225208
0.0220674
0.0411308
3.37629
0.117751
0.0241808
0.120965
0.0565503
0.0219088
1.9678
0.114379
0.215571
0.0219481
0.146851
0.0227279
10.5775
0.0644863
0.0744717
0.0292967
0.0218823
0.0216718
0.0220517
0.117463
0.0277021
0.314657
7.23227
0.0567741
0.0218701
0.147738
0.666037
0.570548
0.0218747
0.0270581
0.0219083
0.0281176
0.024901
6.36815
0.0222288
4.0346
0.0278957
0.148277
0.085311
4.4836
0.0774984
0.0222176
4.43156
17.8673
0.0220177
0.0238994
2.2429
0.224113
0.114523
0.0222376
0.0223096
0.341441
0.024428
0.0693452
0.0627043
0.0216726
0.0530054
4.91805
0.0218575
0.0228213
0.0219796
5.55419
0.0222657
0.0245521
6.15916
0.0232726
6.32492
0.0267727
0.0364378
0.0219722
0.0498614
0.0220262
0.057198
0.0218879
0.0837715
0.0227054
27.5187
3.00914
5.44558
0.0222996
0.0222063
0.0712414
0.0474728
4.80397
5.76301
0.051091
0.0220324
0.338259
0.659482
0.218417
0.263928
0.0489009
3.89282
0.0387595
0.0386623
0.141237
0.18094
0.0503836
1.09713
0.0498716
0.0233236
0.0767161
0.0272891
0.021722
0.0279243
0.0445713
0.0276104
0.0220332
0.0219285
0.0568023
0.0231681
0.0701551
0.0220344
0.0220567
0.0222734
0.0230735
0.0215348
0.0256275
0.0219997
5.33966
0.0613356
0.358145
0.0217934
0.0222473
0.0479751
0.0596309
0.0226872
8.36304
0.0780078
11.2886
0.0279857
0.118952
0.0223504
0.0222689
0.021937
0.0230676
7.84584
0.0222551
3.98316
0.0258969
5.93123
0.0490273
0.0792771
0.145719
0.0216753
0.022291
0.0624831
0.0220459
0.022372
7.95392
0.0226544
0.0221805
0.0274999
0.0219441
0.0216736
0.0276665
0.0280551
6.15007
0.0346019
0.0218559
0.0218786
4.16105
0.115365
0.0221703
0.0221876
8.19478
1.93634
8.73441
0.0354546
0.0233333
0.0217852
0.0216557
0.046906
0.0356205
0.251093
0.0251386
3.91388
0.022265
0.0235759
9.42604
0.0220485
0.0272353
0.0219779
0.0220807
0.0432382
0.0426374
0.0224139
6.28524
4.36032
0.0865545
0.0219741
0.0215874
0.114202
3.31949
0.0222612
1.10605
0.0215876
0.0420424
0.0217057
0.0217595
0.330111
0.0219528
3.17703
0.0392506
0.0222732
0.0216143
0.0220672
0.0219067
0.0227448
4.15834
0.0218269
0.0217525
5.44163
5.93816
0.0374361
0.0461223
0.065768
0.0248352
0.0217764
0.0280919
5.17701
0.0884983
0.0221297
0.0222281
5.85308
0.0351992
4.53225
0.0222663
0.0227959
6.68949
0.0327477
0.0224836
7.9255
1.7397
0.0219033
0.127745
0.0219344
0.0219315
0.0217806
4.46629
0.0215278
0.0218692
0.0217707
3.39694
0.0243579
0.213882
0.0633646
0.0217488
0.0327484
0.0221742
4.44142
0.0219658
0.0218422
0.0221814
0.118683
0.0221737
0.151199
5.90917
4.80558
0.0265268
0.255509
5.40743
0.0220023
7.01646
9.98055
4.90573
3.43263
5.35148
36.8658
0.137569
0.0222866
3.90519
0.0327001
4.25082
0.0216561
0.0218675
0.02217
0.0221673
0.0255752
0.0308754
4.68828
0.0218579
0.0220714
6.38608
0.288761
0.0220676
0.0380293
0.0291281
0.0221573
2.80624
0.0395899
0.0237022
0.0243021
5.79387
7.86289
1.29852
0.0216917
0.249301
0.108356
4.64888
6.11014
0.0852643
0.0219004
0.0224073
0.0222671
0.0214967
0.0231586
0.0216294
0.0268522
0.0377698
5.78432
0.127776
0.0218831
0.11608
4.46017
0.0409163
0.0222941
6.59488
0.0218598
0.0222955
0.0376816
6.81285
0.022174
0.0219484
4.62531
0.23312
0.984225
0.103417
0.39087
0.0219232
0.167859
0.0223217
0.0220001
0.0223188
4.34863
6.44884
0.0217437
0.0216102
0.0219955
2.35452
0.0229498
0.0291525
0.0220464
0.0223892
0.163158
0.0217623
0.0583557
0.340005
3.69003
0.0219689
0.0820505
0.0241127
4.65853
4.41045
0.022019
4.58569
0.0701951
1.45191
0.0221726
3.54294
0.0222454
0.0262771
0.0420539
0.103516
4.57671
0.226941
0.162823
6.51818
0.0218639
0.288611
0.0217496
0.0272728
4.63403
0.0220744
0.0222529
0.0227388
0.022136
5.28754
0.0216712
0.0220833
0.0539211
0.0460817
0.048861
0.599046
0.126152
7.65133
0.0622364
0.0344671
0.0377409
4.75291
0.0384774
14.4937
4.17734
0.0250482
0.0217634
3.28051
0.218878
0.0222907
0.107024
0.0330608
0.0222336
0.0259434
0.0221746
0.0420544
0.0222921
0.0479766
0.107477
0.0218811
0.0594006
0.0217881
0.059105
0.0218833
0.0260268
0.0567459
0.0232966
0.0220496
0.0217531
2.08721
0.0791098
6.19351
0.0220145
0.0221083
0.057801
0.0219793
0.0886314
0.0791732
0.0222353
0.0926682
0.0217736
10.2773
0.0222544
0.0358674
5.37753
0.284975
0.0219301
0.0235235
6.80683
0.0220025
0.0219202
4.51709
4.34513
0.0242177
0.154445
0.0221039
0.0220423
4.39312
0.0229413
0.0216853
0.256973
0.0217899
1.53754
0.0221981
0.0216889
0.0221708
0.128461
3.69174
0.0221113
0.0222404
0.0219243
0.0257411
0.0220777
0.988258
0.057397
0.0222688
5.70459
0.049202
0.295332
3.85827
3.65389
0.0217328
0.022238
0.0220262
0.743462
0.026232
3.73901
5.79713
0.02386
4.53127
2.32071
0.0484094
0.140747
0.0686203
0.382238
4.60246
0.0627447
0.972076
4.0295
0.0615248
0.0250692
4.57865
0.0538921
0.0216676
0.0231508
14.056
0.0377417
0.0218854
0.051772
0.0974907
0.0379389
4.44542
0.023647
6.51001
0.0378665
0.216651
0.121174
0.26678
0.0284692
0.0217669
0.0225282
4.84528
0.0219964
0.0240507
0.0217972
0.0231859
0.0218595
0.0350792
0.145605
1.9121
0.0448042
0.0591452
4.00397
0.350817
0.0218508
1.99613
4.21857
0.0217228
0.0219111
0.0301845
6.71743
0.0222544
0.0676496
0.601948
0.0472163
0.0220588
0.0229608
0.0218025
0.107289
0.0390935
0.0219908
31.2175
3.91771
0.0425477
1.34817
0.0623018
4.73427
0.0232097
0.0251075
4.2819
1.97679
0.0862331
1.75177
0.0279692
0.0222764
0.0219146
0.0221517
0.0220284
0.0226099
0.051948
0.021939
0.119589
0.0219431
0.0280118
0.0217323
0.078691
0.118188
0.757219
0.0219919
0.26384
0.0219134
4.35597
0.0220371
0.0256106
0.0221236
0.250999
4.78042
0.135866
0.0219322
0.128122
0.0220063
0.0293632
4.31137
0.0219087
0.0223385
0.0444146
0.0309569
4.52402
0.0219402
0.0295518
0.0229445
0.0220415
0.0320787
0.0224279
0.0217481
0.0236085
6.55213
0.0242809
0.240243
5.76395
0.0504298
3.59811
0.0240482
0.0217543
0.0307533
8.46855
0.0231399
0.0360801
0.0406196
4.15394
0.0218926
5.71205
0.0608387
0.0683623
0.0217134
0.0216295
0.158475
0.0224023
0.0222859
0.0335771
0.0216669
0.0243245
0.0281759
0.0678215
0.269387
4.47893
0.0247742
0.0716798
2.76207
7.62693
0.0362093
0.26056
6.57275
0.0382958
13.4717
0.0236579
19.8588
5.19844
0.0216472
0.022262
0.0219564
0.0224789
0.0440497
0.0217324
0.0238861
0.0852451
0.0231566
0.0351959
4.38148
0.0300181
0.0239138
5.84883
0.0224895
5.69899
0.0240424
0.0536686
0.0218822
6.90919
6.07341
0.0220051
0.022589
3.70429
0.0293528
6.6864
0.0220229
0.0217871
4.57093
0.0225824
0.0439592
9.94095
0.0220659
0.0533285
0.0288031
0.021625
0.0219038
3.83824
5.6289
0.0221689
0.0233311
0.0220442
0.026309
0.0362889
6.13837
0.0226288
2.56845
3.90017
0.212118
2.75384
0.0225367
0.116811
0.19249
0.0289299
0.0220612
0.0578828
4.20373
0.023327
0.0459798
5.09933
3.63664
0.295988
0.0251926
0.0222327
0.0222463
0.0220687
7.50753
0.0533707
0.0235971
0.02269
0.0241789
0.0222701
0.0219675
0.0220431
0.0704764
0.0364629
5.60076
0.0468404
5.11457
3.3816
0.0302343
0.0493248
0.021811
0.0283118
8.36627
0.0221053
0.0234741
0.0498348
0.114656
0.0562794
3.82536
0.234541
0.0218645
4.0143
0.0215928
0.0221992
0.0457478
0.0222735
0.0218892
0.164062
6.90898
0.0217956
4.24532
0.0220882
0.0217229
0.0233916
2.69221
0.0287891
0.0240149
13.2127
0.0228504
0.250308
3.398
0.0222462
0.0479931
0.0220113
6.02671
0.0688427
0.0220448
4.15237
0.0524534
0.0784905
0.0222786
6.58294
0.0290833
0.396453
0.0227672
0.0714023
6.97019
0.0217445
1.45033
0.0221021
0.0604825
0.0520005
0.0222453
4.56402
0.0235181
0.112471
0.056081
0.0957905
0.0401064
0.0436966
0.022561
5.05758
0.0316243
6.99855
0.0297944
0.0619022
0.0219497
0.0430242
0.0220454
0.0657504
4.71209
0.0227012
0.0218221
3.43999
0.0227193
3.07719
0.0224125
4.35834
0.227395
0.0347439
0.0219924
0.0219409
0.0221096
0.0216281
0.0997204
0.0555795
0.0385055
0.0255876
0.0220833
2.10269
0.0234032
0.0335702
1.99078
0.0220339
14.2621
0.0496808
0.0289463
1.26237
4.44022
0.318637
4.49764
8.86747
0.0218855
0.357731
4.98852
0.356257
0.0221736
0.022216
0.110946
4.07268
5.56085
0.61149
0.0222105
0.0505006
0.0389731
3.41251
4.87004
0.04062
0.124354
0.0238059
0.078948
0.0858181
0.0221653
0.101612
8.14618
0.0221307
2.69001
0.0222533
0.0219324
4.70532
4.16359
0.0218505
0.0222787
0.0224208
0.0217956
0.0481346
0.169858
0.0229309
0.02199
0.0220988
0.0386661
0.0274835
0.0272461
0.329277
0.0220281
4.26026
7.53719
4.5442
0.152227
0.0510224
0.737533
0.0326209
3.83645
1.2386
8.55086
0.022383
6.9
3.46397
0.0217688
0.0220367
0.100803
4.58013
9.98377
0.0217494
0.0220115
3.67194
3.99518
5.57573
0.0238639
0.0239
1.88015
0.0221754
3.8573
7.38233
0.608307
2.14523
0.0220627
0.0219224
0.0218883
0.0261108
4.18438
0.0387294
0.0251065
0.0226267
0.0852326
7.14285
0.0386236
6.14516
5.29601
5.23323
2.1718
0.0220517
0.0221725
4.36693
0.0216604
0.0216665
0.022999
2.81584
0.0363102
9.6994
0.127504
0.0220277
5.60464
0.038756
0.0218637
6.02671
0.168098
0.0251272
0.0220473
5.12862
4.57662
0.0221804
7.54125
3.98156
6.49484
1.9927
0.0808853
0.0219223
0.022491
1.70596
0.0253123
4.47858
0.0408941
2.70712
0.26082
0.0228773
0.0289017
0.0219168
0.0226749
4.79043
6.94614
0.0220687
4.86383
0.0413785
0.0220187
0.0247492
0.0219355
0.157261
0.0224007
2.28967
0.0512262
0.0219131
0.0218752
0.0906429
8.17133
0.0379513
0.0238976
0.0419732
0.0220407
0.0230177
0.026863
8.75042
4.10994
4.57672
0.0217191
0.0218684
0.0223223
0.117969
0.0218747
0.0223674
0.165276
0.0569359
0.423853
0.0216356
4.55687
4.07586
0.0222843
8.8177
0.112035
0.0358393
2.05416
0.022272
5.20968
0.0293616
0.0230143
0.0238723
0.0216568
0.228739
0.022438
0.0226432
0.0308286
3.51425
3.63855
0.0222462
0.0220229
0.0234068
0.0219708
0.129249
0.0224258
0.0818008
0.0233743
4.24713
0.0225556
4.47802
0.0217202
5.72465
0.0223525
0.0216406
7.29585
0.31551
0.114953
0.566004
0.0441768
0.0395089
0.0220455
5.25933
0.0220648
0.0218813
0.0882016
0.0610212
10.422
4.51897
0.118963
7.0352
0.125271
0.634625
0.0218895
0.0246873
0.0273807
4.30462
0.024845
4.3931
4.51281
0.0221262
0.0220695
0.0220017
1.5174
3.32899
0.0232099
0.0221093
0.0256382
0.027778
0.0370124
0.375869
0.31315
0.0220647
0.657175
0.0825243
8.63177
0.0700668
0.0232107
0.0237514
5.43562
0.0218854
0.0864803
4.71965
0.0226886
0.0252296
0.169634
0.134801
0.0227344
6.72661
0.0241955
0.288508
0.0386642
0.0301429
0.0226321
4.50728
0.0218608
0.0964089
1.44992
4.95394
0.0484762
0.0652001
0.0252434
0.0476041
0.0222658
5.17247
0.0262538
0.0219485
0.0293367
0.0220924
0.0222692
2.97818
0.0220685
0.0221794
0.0220332
0.126874
0.0222485
0.032758
0.0704462
0.225784
0.113379
0.0222537
0.23677
0.473119
0.214247
0.0825688
0.0274208
0.152561
4.79364
0.622466
0.0222845
7.65523
4.25529
0.0222839
0.0239691
0.0216472
0.721837
0.102954
0.0220012
1.29414
4.33443
0.0218121
0.0222136
3.74384
4.19343
0.0624427
0.0216594
11.1679
3.2571
3.27746
0.0220291
4.33041
0.0787705
0.0704579
4.48431
0.0258486
0.021659
0.0295544
0.183158
0.0312962
4.00959
4.63472
0.0218164
6.53344
0.50884
4.60591
0.0217176
0.0520414
0.022295
0.0219185
4.40903
2.66119
0.279095
3.18608
0.0291336
0.0493152
0.0221975
4.79838
6.00245
0.0220493
0.0222248
0.0318228
0.0217829
0.0494759
4.75622
7.58279
0.0498643
0.0224176
0.0220897
4.39691
0.0249395
0.0514346
0.0217962
0.0229392
0.697691
3.00545
0.297829
2.93507
0.0221711
0.296233
0.0222918
0.0477884
10.0889
6.78842
0.0220732
0.0222939
0.034397
0.0256872
0.0221899
4.70849
4.32179
0.0217733
0.0215189
0.022191
0.0219702
2.68936
0.0217218
3.89777
0.0998358
0.0607792
0.021849
0.0472695
4.77834
0.0328203
0.443203
6.05427
0.0222296
7.24353
0.0331109
0.0355388
0.357214
7.31785
4.6691
0.0576906
0.0218955
0.252013
0.0217322
0.0253011
0.0222053
3.89874
0.0315788
1.84785
0.206588
0.0473865
0.0221246
0.281944
0.0265041
0.0222704
0.255087
0.0216012
0.0365023
0.0334667
0.0221683
10.0763
0.0233216
0.537862
0.0227973
0.0219384
5.7608
3.82159
0.024089
0.0325023
0.0377835
0.0567919
0.0564798
0.0258261
0.0258065
0.0249527
0.239417
0.024997
4.03228
0.0593501
0.212003
0.112539
0.0225589
4.87871
0.0216123
4.68039
0.0242091
4.44483
4.22163
8.1702
7.58896
0.305732
0.0766097
0.0219733
4.57258
0.0846908
0.0220443
7.94694
5.68771
0.0232512
0.0235777
0.0303748
0.0303781
0.0315978
5.34037
0.022284
0.0290553
0.0340388
0.0321003
0.0221648
0.0822173
0.02161
4.15251
0.023626
0.129332
0.0313719
0.0387346
0.121166
2.99196
0.0841701
0.021832
0.240656
4.52069
23.4672
0.0223191
4.18132
0.0284986
1.79574
0.0220648
0.024447
4.03538
0.0497248
5.03958
7.45118
0.0334097
5.16479
0.0219607
0.0215988
8.98672
0.058916
0.0243708
5.60076
0.0267088
0.0456879
0.0292669
0.069477
0.022141
5.72238
5.28564
6.96387
0.284861
0.0252809
0.0560762
5.02552
0.0239848
0.0222893
0.0807167
0.0216946
0.292473
8.10665
6.5593
5.51007
0.0538881
0.0223798
4.38992
0.0215984
0.0719901
0.0222355
24.6647
0.0237172
0.0472924
3.81518
0.115209
0.0220283
0.0319708
9.58547
0.0220765
0.141241
0.021786
9.66031
4.40123
0.111063
0.0793287
0.0219536
0.215874
0.133405
0.0385258
0.021791
0.0224079
0.0221472
0.0529152
0.0221236
0.0832006
0.0221251
0.0217912
6.68797
0.0218559
0.0265995
0.024785
0.0222748
3.75352
0.0218534
0.0335507
4.23077
0.0467007
3.9306
0.0220642
4.60254
0.0490314
5.41492
0.0235047
0.122652
0.0221143
0.0399808
0.11901
0.108944
0.239638
4.28546
0.20849
1.80685
0.0269557
0.107757
0.0415834
0.556014
0.0250229
0.0220658
0.0220329
0.050203
0.0459319
2.0539
0.0521933
4.71455
6.88409
0.102017
0.0219943
4.15522
0.199611
0.0224615
0.024034
0.0220703
4.83802
0.022036
8.51515
0.0218443
0.0266322
5.01791
0.0776255
0.0220455
0.0220275
7.98242
0.0218651
0.0239981
0.0249879
0.0322624
0.0273815
0.0221439
0.146993
0.0816442
0.043587
0.300752
4.49237
3.73576
6.29447
0.0217352
0.0219872
0.101185
0.0223909
0.0471943
4.12698
3.8813
0.021656
0.0220457
3.38181
0.319419
0.0216716
0.0218332
0.0265356
13.7134
4.11625
0.0263179
0.0337134
0.0221999
0.364133
0.121698
0.14129
0.0318064
0.0439369
0.0224154
0.0375837
0.310786
0.0227577
0.0221177
0.0261409
4.72757
0.0251359
7.29873
0.0221074
3.97912
0.0362465
0.0278999
0.021779
0.0219277
0.783852
7.94539
0.0578494
4.28008
10.1577
0.0225073
4.18808
0.13767
0.0218907
4.28995
0.226189
0.111274
0.0222538
3.52302
4.55484
0.0219256
0.0393916
4.32021
0.0444858
0.0220388
0.0217848
0.0223544
0.0237389
0.0800012
0.294199
0.0779099
0.0761645
0.0217231
0.0221751
4.62307
0.0218362
0.0477706
0.0265608
0.0220762
0.0493431
0.0220277
0.0236713
0.329241
0.0220016
4.59435
0.0220239
14.1584
3.7854
0.0914048
0.0222203
0.0222928
4.37483
0.0216453
0.0240822
0.0223339
0.33205
0.845148
0.0331536
3.80571
0.0417311
0.950139
0.0225403
0.0675302
0.0217785
0.0221398
5.03724
3.86064
1.19403
0.0236941
0.0676424
0.0676001
4.86146
4.28306
0.307908
0.0387923
0.0215936
4.29996
0.0218923
0.0219511
0.287387
0.110097
0.0282584
0.199196
0.0472485
0.0314597
0.0274031
5.37572
0.0242089
0.0219955
6.75027
0.0466838
0.0217135
3.46845
0.0220345
0.0221118
0.156971
0.149862
12.5727
0.0217301
0.0247394
0.0219143
2.22426
0.0218602
0.542712
3.58613
3.68003
3.45354
33.0547
0.0302246
4.60237
0.866847
0.0222103
0.030499
0.0434688
0.0303062
1.23726
4.26655
4.52979
3.6069
2.37872
0.02214
0.102778
0.022042
4.82472
0.0282703
0.0230225
0.0239725
0.0226414
0.0218752
0.103267
4.53535
0.0217231
0.0235501
0.021867
4.68582
0.0234042
5.70911
3.82727
1.13011
0.0220951
0.0218813
4.46377
0.392696
0.0221393
0.300102
0.0222285
0.138924
0.186957
0.092589
0.0500566
10.2579
0.0217951
0.0217789
0.236874
3.32962
0.0290901
0.0465195
0.0219309
8.82782
0.0220156
0.0219547
0.023086
0.0219929
5.41325
4.13961
1.16845
0.0574849
4.38604
0.408171
0.0216618
0.0305071
0.0216983
1.26868
0.0219648
0.0247831
0.0220007
0.0219228
0.0217688
2.732
0.0227097
1.69959
0.0215889
0.0325048
0.0228979
1.57743
0.0220485
0.0309851
0.0340963
0.068856
7.09982
0.0219187
4.30775
0.0674863
0.0453736
0.0219786
0.0219508
3.52607
15.9538
0.0219791
0.0218726
0.27049
0.250043
0.038438
4.16944
0.0227232
0.253758
0.0306643
0.0217069
5.42665
0.022887
4.00143
0.0220311
0.0226402
0.0221208
4.32706
3.65697
0.0216761
0.244726
0.240966
0.0220612
0.0218548
0.0218996
0.260804
4.21439
0.0634817
0.024027
0.0391069
0.0220326
0.0220457
0.0235853
0.0220069
0.177415
0.022061
0.0611771
0.606206
0.0355916
0.0216214
3.94896
0.072425
0.0220413
0.0793212
0.030071
0.926136
0.0245254
10.5989
0.0558217
0.0219818
0.085215
0.0843136
0.0244883
6.12756
0.057685
0.0290588
1.20052
0.0219308
0.148999
0.0880818
0.12534
0.0219433
0.0219686
0.021642
0.0336749
0.0538323
0.0527389
6.48248
4.64967
3.8661
0.0222669
1.90396
3.84507
4.4816
0.0220014
0.0220122
0.0524635
4.29873
0.0241149
0.0343957
32.2861
5.12642
16.1469
0.114714
0.162758
3.37043
0.378474
0.0216093
11.1988
0.265489
0.0222898
0.0222892
0.0227735
4.80234
0.0947529
5.33129
0.0238948
6.83255
0.0221082
1.05581
3.8597
0.0221941
0.0333496
4.39361
4.68024
0.0544913
0.0227986
0.0236735
0.0223802
0.223869
0.117905
2.06411
4.36669
0.0217462
5.2568
0.16404
0.546366
0.0220305
0.0221653
1.89131
0.26275
0.0219542
0.0491397
0.0730273
0.039206
4.10196
4.79496
4.79722
4.31843
0.0254055
0.0216598
0.066492
4.55614
10.4098
0.0219219
0.274035
0.0927863
0.453058
0.0223911
0.0222565
1.20051
3.57719
5.48658
1.66726
4.25218
0.0219616
0.248171
4.29358
0.0222286
0.0626009
0.104393
0.0216849
0.158377
5.21414
0.242352
0.0222555
5.3178
0.114864
27.7576
0.021509
0.0234874
0.0221415
0.0230021
0.0221092
0.0532193
0.0401922
0.042361
0.338243
0.0330397
4.31817
0.025263
0.0282837
0.0279018
9.1315
0.058141
5.01882
0.027986
0.0278083
19.0329
0.0981154
0.0220712
0.0424391
3.55725
5.40445
0.310965
0.0219653
0.0219039
0.021925
0.816032
0.0231158
2.49017
1.3278
0.258673
0.0317134
0.244584
5.61049
0.0221099
7.3849
0.0334803
0.0510425
0.0219328
0.0218928
0.0523169
4.48881
0.0220807
4.95064
0.504347
0.0994777
0.183384
0.0218681
0.0220255
0.0294875
0.0228007
26.1045
25.3822
0.0840618
0.789873
0.0219519
0.0220707
0.0221501
0.0222458
7.86547
0.0231029
4.6069
0.087104
0.0224173
0.38933
2.21566
3.47913
8.56752
0.0234189
0.0217618
0.0221302
0.0233263
0.743608
0.245073
6.0426
0.0221551
0.0223554
0.160018
0.0222602
0.228435
0.0236698
0.150939
0.171613
0.0412057
0.0396287
0.0217248
0.0463156
0.0380436
0.20862
0.0813866
0.0422159
0.0218701
0.241932
0.0218821
2.86237
3.72549
0.934455
0.022068
0.109766
0.0220109
0.0482115
0.0229064
0.022607
0.0281974
8.93667
4.13936
0.0795752
0.0470607
0.226715
0.0770184
3.9946
4.41953
0.0308816
4.3471
0.348014
0.0218444
0.056682
4.4776
0.096981
0.0222363
0.0529617
2.2454
0.372185
8.48829
0.0221147
0.526263
0.0220984
0.0219266
0.04076
0.212846
0.0222639
4.24058
5.30291
0.226317
11.533
0.369496
4.88541
0.30122
0.0217244
0.024653
0.0216453
0.0427208
0.280194
0.386149
0.0243113
0.0415981
0.0216304
4.47351
0.0377002
0.046761
4.2025
0.0990158
6.93846
4.86318
0.0219616
6.71907
0.0221179
0.0282629
0.0474946
3.995
0.148954
0.0278063
0.023072
0.578673
0.0340443
4.42769
6.07022
0.0321547
3.25845
0.0437764
0.022273
1.16517
0.0614785
0.0229746
9.02609
15.7857
0.0295184
0.0260132
0.127213
5.87694
0.0219542
0.0221938
0.0216718
0.0217586
0.0223325
4.84533
0.0314656
4.06549
0.0219577
0.0219177
0.857903
0.0221541
0.0237631
0.022058
0.0220345
1.38432
0.0217546
4.72433
0.021971
0.0229821
0.0411433
0.0221771
0.144584
0.0217666
0.0222652
0.0217851
0.0274766
0.0894131
0.0242908
3.75331
0.0219263
0.0435733
0.0293471
4.39411
0.0227557
0.0222689
0.0216915
0.0216848
0.392065
0.0219006
0.0218844
0.0244287
1.52608
0.0219367
0.0427657
0.0325414
0.0220085
4.86219
6.96188
0.219519
4.92177
0.0246095
0.107887
0.0221494
0.0993689
0.337813
0.0222592
1.49131
0.126389
4.53293
0.0306291
0.0220338
1.58268
0.0430225
0.765515
5.35322
0.0215765
0.0219832
7.41934
3.23915
0.0577966
0.0560098
0.0230191
10.9926
5.68427
0.0215127
0.0219674
0.0220792
0.0221735
0.0222483
0.0220383
0.0355202
4.4776
0.0308789
0.0221856
0.439976
0.0219889
0.798475
0.0456969
0.0220431
0.0272513
0.0219138
0.360161
0.0248382
0.0523609
0.0219583
0.0222346
4.6139
4.94953
0.0221774
0.050145
0.0444427
0.0308922
0.0239
0.0222713
0.022676
1.51157
0.540525
0.038922
4.80628
0.0224273
24.9735
0.103252
0.0257577
17.6465
0.023042
4.5663
5.38012
3.45715
3.07223
4.27761
3.83043
0.0216399
0.0270314
0.0247086
0.0216342
0.0217314
0.0288269
0.075629
0.0217721
0.0293771
0.119158
0.075738
0.339071
0.230222
0.0332962
1.68882
9.47704
0.0339492
0.0248848
0.124882
9.02929
4.01544
0.0254886
0.0216193
0.0218644
0.0217759
0.0314264
3.91746
0.36109
0.0217332
4.77486
0.021982
0.134907
4.17138
0.0823086
0.188089
0.0911691
0.328391
0.0228063
0.033282
0.0218629
0.236187
0.0219612
0.0229266
0.0326356
0.148149
0.0221769
0.0244763
5.79949
0.0218215
0.0220255
0.0290343
5.7848
0.112559
0.31089
0.0383357
0.0221497
3.37142
0.0370571
0.023226
0.022023
0.030511
0.0264715
0.0220334
0.0274239
4.54832
0.0235095
0.0216509
0.0467984
0.0218804
0.0316567
0.0300904
0.0220672
0.0219979
4.68109
0.0217159
0.0220335
0.0216572
0.0256903
0.0214802
4.97615
0.0257106
0.20615
0.0219617
0.0218885
0.0220244
4.45314
0.0622813
0.0220421
0.0216063
5.57695
0.0250825
0.0656392
0.0218584
0.144606
0.0233181
0.0215591
2.93409
0.0217496
0.0222498
0.0221464
0.0219647
0.0241242
0.0221273
0.022036
1.62432
1.53524
4.63965
0.208665
8.75838
0.0218526
4.76693
0.021968
4.09824
8.33134
0.0218003
10.7016
0.0219799
4.2068
11.9877
0.269339
4.2826
4.06603
0.793793
1.56653
6.31466
5.28696
0.0428124
0.0410457
4.69758
0.0234711
0.0216626
1.2811
0.0237596
0.0281717
11.9197
0.0229294
0.387838
3.76847
6.46353
0.376851
0.114763
0.0222519
0.0281963
0.04844
0.0222419
6.97348
0.350932
0.108233
0.0219025
0.0220693
8.30353
0.0216937
0.681287
0.0218395
9.45405
4.56331
0.034352
0.0260329
0.0219914
10.5298
4.05269
0.0253501
0.0334333
0.0222858
0.0222855
0.0563574
0.0231428
0.0320504
0.0658119
0.0241922
0.0322188
0.0220409
0.032039
15.7654
0.0224533
10.8649
0.0219418
3.25851
0.0547346
0.0220392
9.20564
0.122398
0.0218478
0.153941
0.0220391
0.267767
0.0221884
0.0220119
3.85687
0.0221457
0.103833
0.0233022
0.135068
0.0218391
0.0223183
0.0218595
0.0299509
0.0241871
0.0222769
0.0225749
0.0253821
0.0224287
0.120005
0.0635623
0.0290877
0.0233677
0.0216258
2.34645
6.60706
0.0227539
0.0225113
0.0226309
0.0375321
0.0221972
0.0347579
0.0215701
0.0222853
0.251193
0.0233134
0.0222846
0.0219018
4.8555
11.429
0.0215987
0.0706866
0.058473
0.22648
0.239902
6.99994
4.46668
0.617918
0.0228544
0.133928
0.0219287
0.0314109
7.47936
4.54753
0.133817
0.0239107
15.8843
0.0220416
0.0460251
0.405656
0.0222098
0.131646
0.0233957
0.0231987
0.0733997
0.142276
3.89771
3.40768
0.0218318
0.0215979
4.79846
3.87507
0.0222186
0.028981
0.117863
0.0220581
0.0220159
0.0240173
1.19586
0.0217721
4.39959
0.0293702
0.0221955
0.212503
0.0707292
0.0655361
0.112617
4.937
0.0243911
0.034125
0.0273971
0.0237162
10.011
0.0311846
4.17193
4.34058
0.0656913
4.21074
0.0456478
0.0473998
0.33842
0.0217259
4.45171
0.0870017
0.0335007
0.0290494
0.0221777
0.0216611
4.12581
0.0427588
4.30354
4.22135
0.0221153
4.38852
0.0218357
0.0219513
0.0286979
11.6887
0.0723007
0.0216747
4.05155
0.0219874
0.0237458
4.01458
0.0236062
3.49047
0.0222728
4.53682
3.05357
0.0690518
1.91826
0.0233441
3.48868
0.0216191
5.33864
4.79739
4.48959
5.22614
0.021946
0.0218152
0.233565
3.79661
3.49784
3.85407
3.78474
0.0221217
5.07118
3.47331
0.0223919
3.93637
0.0315696
0.0328011
12.3474
0.0380008
4.48465
0.021933
0.037671
0.0340066
0.198319
6.50632
0.036612
3.60074
4.49024
0.0221719
0.0245714
0.0237397
0.024638
3.51556
0.0220148
0.0217611
0.0390993
3.85014
4.08049
0.0279022
3.91208
4.31513
0.0219562
8.8637
4.84189
0.169762
4.02959
0.0652493
0.0243203
0.0221725
0.153151
0.0262205
0.0791687
10.2622
4.5881
0.0289515
0.0710299
0.0257616
0.0377264
0.0216549
0.0404548
0.0246737
0.0888492
4.63917
5.58302
3.84025
0.021658
0.126624
0.0611355
4.38176
0.0232413
4.79718
4.781
4.48143
0.0220955
0.172153
4.6235
11.0277
7.75527
0.036259
5.49624
2.78436
0.0611982
0.0666618
0.0239576
0.0291612
4.88464
0.04539
0.0221863
3.32575
0.0220271
0.0222413