/*--------------------------------*- C++ -*----------------------------------*\
| =========                 |                                                 |
| \\      /  F ield         | OpenFOAM: The Open Source CFD Toolbox           |
|  \\    /   O peration     | Version:  v2012                                 |
|   \\  /    A nd           | Website:  www.openfoam.com                      |
|    \\/     M anipulation  |                                                 |
\*---------------------------------------------------------------------------*/
FoamFile
{
    version     2.0;
    format      ascii;
    class       volScalarField;
    location    "600";
    object      k_0;
}
// * * * * * * * * * * * * * * * * * * * * * * * * * * * * * * * * * * * * * //

dimensions      [0 2 -2 0 0 0 0];


internalField   nonuniform List<scalar> 
13851
(
0.000216345
0.000154827
0.00015463
0.0167783
0.000148418
0.000157401
0.000155444
0.00014794
0.0645259
0.000148457
0.000175986
0.000148412
0.00014927
0.03897
0.000172219
0.000235296
0.0142658
0.000148668
0.000158679
0.000215411
0.000175226
0.000155884
0.0194076
0.000149734
0.0437009
0.000196979
0.00023423
0.0655273
0.0352711
0.000146963
0.0378398
0.00015545
0.000218269
0.0904492
0.000169709
0.0279517
0.00014981
0.00783344
0.0600271
0.000149276
0.0876654
0.0333272
0.00477599
0.000205889
0.0395329
0.000148
0.000145451
0.000229993
0.0001526
0.000149211
0.0251882
0.000149418
0.000234927
0.000166662
0.0357901
0.000149291
0.000218123
0.0848214
0.000272694
0.0381912
0.000148462
0.000219706
0.000148591
0.000152861
0.000180131
0.000180375
0.0301559
0.000166005
0.000149398
0.0246114
0.0335306
0.000180164
0.000148868
0.0340386
0.000168644
0.000152789
0.0188127
0.000146099
0.0353268
0.000147917
0.000149453
0.00021934
0.00016922
0.0414099
0.0404253
0.0366733
0.000156152
0.024142
0.000148459
0.037939
0.000149525
0.000155665
0.00857379
0.0330377
0.0612152
0.000193373
0.000148182
0.000235562
0.0295263
0.000189723
0.000237302
0.000162075
0.000163041
0.000149146
0.000147978
0.000177472
0.000147973
0.0355208
0.000155647
0.000148533
0.000159648
0.000148017
0.000200411
0.000179111
0.000221423
0.000165506
0.000146686
0.000147417
0.0145157
0.0280024
0.000186156
0.000147858
0.000149359
0.0650439
0.000259378
0.000172124
0.000148169
0.000171156
0.0849064
0.000179856
0.000155812
0.000162411
0.00264999
0.0892051
0.000176642
0.0592297
0.000165701
0.0353757
0.000160141
0.000180161
0.000214927
0.000150809
0.000148491
0.000170928
0.0591074
0.000152394
0.00014603
0.0336049
0.0476362
0.000171827
0.000236824
0.000198925
0.000180289
0.000249759
0.000149816
0.000148776
0.000148561
0.0570492
0.000177333
0.000154044
0.000149583
0.0321915
0.000176965
0.000230015
0.039463
0.0628797
0.0641265
0.0302192
0.000159366
0.0933148
0.000148565
0.000146663
0.000181017
0.000148822
0.0642447
0.00139305
0.000239623
0.000146601
0.000168678
0.000238644
0.000253873
0.000205962
0.000158897
0.000179593
0.00555801
0.0475559
0.000218689
0.000157379
0.000149643
0.000147438
0.048293
0.000177235
0.0308065
0.000157659
0.000152137
0.000235252
0.000217946
0.000149624
0.000149702
0.000166787
0.000213186
0.0714651
0.083633
0.000172297
0.000309908
0.0679448
0.000152412
0.000180868
0.0672237
0.000156337
0.00023539
0.000149304
0.000216587
0.000149523
0.000170416
0.00015383
0.000149116
0.000278651
0.000149769
0.000508525
0.000146569
0.000214303
0.0342523
0.0615227
0.000157071
0.000181302
0.000149737
0.000169627
0.000148068
0.000170067
0.0308612
0.000157071
0.000156311
0.000148733
0.0818571
0.000146951
0.00843609
0.0817811
0.000186915
0.000149644
0.000263015
0.041138
0.035748
0.000234629
0.000166901
0.000173627
0.000235104
0.000168905
0.000192487
0.000161036
0.028759
0.000207188
0.00014717
0.000158114
0.000236271
0.0319006
0.021815
0.00014737
0.000172601
0.000148433
0.0002452
0.000250834
0.000158835
0.000177813
0.000207609
0.000148554
0.000162576
0.000219624
0.0532309
0.00014847
0.000149073
0.000157275
0.0756439
0.0100267
0.000178603
0.000148004
0.000263704
0.000253887
0.000215034
0.000177496
0.0754246
0.030406
0.000159044
0.000168849
0.00820561
0.000147943
0.000148556
0.000215637
0.000173098
0.00014701
0.000149504
0.000148052
0.000147835
0.000167238
0.000148509
0.0665756
0.000176566
0.00014875
0.0310884
0.0614574
0.000149555
0.000215596
0.026905
0.000151016
0.000149616
0.000177644
0.0380334
0.06251
0.000184935
0.000148341
0.0930255
0.000148513
0.000186466
0.0328769
0.0504438
0.000153714
0.00156596
0.000429416
0.0394217
0.000197483
0.00016265
0.0630984
0.0732032
0.0619776
0.000149926
0.0202172
0.0101709
0.000205647
0.000203401
0.00015245
0.0001834
0.000157773
0.0250527
0.000163464
0.000147021
0.000144793
0.000157932
0.0366113
0.000367713
0.000147879
0.0598276
0.000157799
0.000162694
0.000154314
0.0315133
0.000255546
0.000235745
0.000153478
0.000155622
0.0159249
0.000149682
0.000251403
0.000158964
0.000177507
0.000158336
0.000148457
0.000148717
0.000192767
0.000191887
0.000208653
0.000495949
0.0157349
0.000152499
0.0800624
0.000267035
0.000146857
0.0530379
0.000199639
0.0351416
0.000157426
0.000199838
0.000280518
0.0140653
0.000191139
0.0285385
0.000151019
0.00249883
0.00540569
0.00016337
0.033924
0.000165692
0.0839814
0.000168335
0.000177376
0.000205612
0.000199563
0.0001488
0.000158209
0.000173959
0.000168941
0.000148184
0.000179204
0.090479
0.000148855
0.000180734
0.0103428
0.000154164
0.000325691
0.000180966
0.0650062
0.000157038
0.000194571
0.000276844
0.000248765
0.000176552
0.0199422
0.0340893
0.000254425
0.000148586
0.000192042
0.000165543
0.000199333
0.000147907
0.00547236
0.0957961
0.0235815
0.000155581
0.000206562
0.000180345
0.0111346
0.00014556
0.0149896
0.000203672
0.0231033
0.000161632
0.0652196
0.000148787
0.000148741
0.0308186
0.000231729
0.000148484
0.000154861
0.000181307
0.000146866
0.0946997
0.000184075
0.000198721
0.000158276
0.000151059
0.000149429
0.00678447
0.000148712
0.000149344
0.00234802
0.0900286
0.000155297
0.000281046
0.000148637
0.0001485
0.000154719
0.00020875
0.000180768
0.00014829
0.000151761
0.000185449
0.000153124
0.066004
0.000148382
0.000161414
0.0402402
0.00016068
0.000145265
0.000148686
0.000158102
0.000150148
0.000245151
0.00464135
0.000167189
0.000710503
0.000154858
0.000148288
0.0817933
0.000275991
0.000160026
0.000149013
0.0703251
0.000159564
0.00070839
0.000149136
0.000162859
0.000191755
0.000170808
0.0781773
0.000176342
0.0163405
0.000152751
0.000198864
0.000148583
0.0351141
0.000180729
0.000218233
0.000165361
0.000153167
0.000160637
0.000181954
0.000148499
0.0114907
0.0794948
0.066794
0.00633757
0.00493747
0.0301346
0.000252736
0.000156622
0.000149315
0.000602799
0.000148454
0.000148145
0.000157732
0.0672455
0.000154557
0.000150787
0.000172615
0.000174451
0.000148496
0.0765549
0.000148153
0.0869317
0.000234395
0.000147927
0.00015352
0.00020712
0.0570876
0.000147033
0.0380741
0.00475124
0.000146916
0.047911
0.000160076
0.000212777
0.000152708
0.00295954
0.0381229
0.000147154
0.000234099
0.000149364
0.000148182
0.00037001
0.0843369
0.000169873
0.000179987
0.000148462
0.000189958
0.0870148
0.0588475
0.000148013
0.0200394
0.000148257
0.000149422
0.000176815
0.000161512
0.000145508
0.000152796
0.0497706
0.000198134
0.0469277
0.000153902
0.00014843
0.0736692
0.000149109
0.000192926
0.000161134
0.00016864
0.00016638
0.0281233
0.036306
0.000157538
0.0140133
0.000153163
0.000181975
0.0337221
0.0430127
0.000149365
0.000148608
0.000163131
0.0483408
0.000278934
0.000189384
0.00298176
0.000161753
0.000167382
0.0395065
0.075811
0.000179782
0.0849018
0.000245032
0.0187108
0.000150472
0.000275115
0.0539234
0.00014841
0.00972267
0.0831054
0.000159411
0.000180012
0.000149196
0.000475281
0.000174625
0.0294972
0.000148746
0.000149017
0.00015538
0.000173752
0.000148442
0.0645309
0.000148976
0.000239915
0.000152737
0.000200031
0.00014913
0.000148522
0.000167148
0.0203973
0.00017581
0.05808
0.000162923
0.000146949
0.000147564
0.000181365
0.000151723
0.000188397
0.000155402
0.000159772
0.000281523
0.000149122
0.0172709
0.000149662
0.000213859
0.0160829
0.0543377
0.000156726
0.0165448
0.000172082
0.000195972
0.0831739
0.00014842
0.0764982
0.000157886
0.000164283
0.00820941
0.0224297
0.000147011
0.000187871
0.000149524
0.0217237
0.0250598
0.000149709
0.00016665
0.0966912
0.000149731
0.000149649
0.000197559
0.0152472
0.00128631
0.000149624
0.000204112
0.000152669
0.000148558
0.000287813
0.000205346
0.000188956
0.000145315
0.000219814
0.000163525
0.000191935
0.000150721
0.000151867
0.000173539
0.000155202
0.000224625
0.000180169
0.00017974
0.000176958
0.00013214
0.000210732
0.0642373
0.0297509
0.000233142
0.0503959
0.000163113
0.000412939
0.000214674
0.000148438
0.000166618
0.000247412
0.000157019
0.000147888
0.000147821
0.000213726
0.0259053
0.000161702
0.0783163
0.000146984
0.00202183
0.000176838
0.0252247
0.000187073
0.000157224
0.000154662
0.0297129
0.000189203
0.000162778
0.0001739
0.000150696
0.000428987
0.000214058
0.000241486
0.00016428
0.000229191
0.000148787
0.0001496
0.000152009
0.000148587
0.0376239
0.000147832
0.000289446
0.0739692
0.000187519
0.0610628
0.0332887
0.000243347
0.000198153
0.000156693
0.00014915
0.000148989
0.000146131
0.000147549
0.000148836
0.000182864
0.000200285
0.000164257
0.0591954
0.000151757
0.0653249
0.000149952
0.0196511
0.000167902
0.000149878
0.000148826
0.0576392
0.000157629
0.0172933
0.0847288
0.000178859
0.000189419
0.000146712
0.0896924
0.000153502
0.000154634
0.000282905
0.000149167
0.00015077
0.000148268
0.000180653
0.0290275
0.000160645
0.000164965
0.000205848
0.0557347
0.000157087
0.000156171
0.0258705
0.000146087
0.0257061
0.000149285
0.000153202
0.0363273
0.000201557
0.000220614
0.000181992
0.000176345
0.000149465
0.000149953
0.00018338
0.000150629
0.000149524
0.000162589
0.000202479
0.000147736
0.000193437
0.000231162
0.0059003
0.000181809
0.0394643
0.000160285
0.000149116
0.000189828
0.000147072
0.000158365
0.059333
0.0137264
0.0758858
0.0226726
0.000149883
0.000149616
0.000168549
0.000151592
0.00014778
0.0161235
0.000245526
0.0367514
0.000214509
0.00020214
0.000148646
0.000147016
0.00035035
0.000198221
0.000153846
0.000149659
0.000221447
0.000200286
0.0796456
0.000149771
0.000148915
0.0256046
0.000150663
0.000166034
0.000146867
0.0699847
0.000147905
0.0181048
0.000148468
0.000184844
0.00017275
0.000168187
0.000164755
0.000148855
0.000154833
0.00014799
0.000294017
0.000150735
0.0245906
0.00015091
0.0580563
0.0817675
0.000162808
0.000147849
0.0116429
0.00839823
0.000158173
0.000201831
0.000148955
0.0205227
0.000148546
0.000241583
0.000148346
0.000147967
0.0117753
0.000166773
0.00014862
0.000167292
0.0832691
0.000393176
0.0974311
0.000147346
0.0538059
0.000148432
0.000147781
0.000149808
0.000144385
0.000149508
0.0969848
0.0695082
0.00014981
0.000148948
0.000170512
0.000148027
0.0148516
0.000190858
0.0442503
0.0635038
0.000154715
0.000224727
0.000148369
0.00017482
0.000174098
0.000148302
0.000149345
0.000273091
0.0270684
0.000188874
0.00684742
0.000189577
0.000148613
0.000170747
0.000202578
0.0178832
0.000166018
0.000863711
0.000198811
0.000149441
0.045334
0.0469775
0.0338274
0.0398519
0.000344391
0.000152682
0.000173326
0.000149332
0.0250682
0.000156522
0.00014704
0.0976052
0.000151549
0.000147859
0.000149361
0.000151286
0.0672131
0.000249499
0.00014738
0.000171372
0.0390369
0.000151945
0.00622744
0.000151801
0.000198625
0.0813141
0.000148529
0.000288394
0.000159383
0.000163868
0.000427442
0.00015153
0.000216627
0.000194202
0.0874189
0.00014987
0.0270473
0.000162791
0.0544353
0.0199187
0.0229593
0.000179165
0.000148912
0.000149942
0.000149731
0.000175571
0.000148751
0.0805328
0.000158253
0.000156523
0.000156928
0.000152582
0.00014728
0.000159965
0.000157634
0.0001535
0.000156819
0.0849974
0.000298316
0.000162577
0.000169008
0.0976249
0.000150874
0.0394004
0.000146144
0.000160641
0.000150748
0.000148522
0.000166287
0.000148263
0.000147339
0.000162642
0.00014882
0.000201069
0.000151327
0.00851624
0.0395557
0.000234007
0.000220368
0.000149246
0.0580641
0.000217873
0.000149459
0.000157451
0.000150589
0.0422203
0.00015177
0.000162537
0.0538764
0.00847217
0.0001763
0.000149452
0.0326059
0.0456067
0.000359273
0.000159262
0.000146908
0.000147912
0.000184996
0.000148851
0.0325249
0.000193636
0.000149245
0.000256011
0.000202491
0.000148178
0.0864292
0.0164118
0.000245122
0.000151159
0.0278655
0.000182762
0.000148013
0.0309448
0.000155916
0.000148023
0.000148141
0.000167163
0.00017595
0.0702412
0.0411038
0.000177003
0.0667006
0.000169009
0.000148584
0.000168162
0.000147832
0.000294736
0.00014816
0.000148159
0.000153087
0.000150524
0.0784863
0.0224463
0.000272663
0.0349854
0.070788
0.000157076
0.000148937
0.000151329
0.000221879
0.000148062
0.00014904
0.00016852
0.0437197
0.000288525
0.000146017
0.000165042
0.000165125
0.000210297
0.00580579
0.000146882
0.000145388
0.000153533
0.01122
0.000162515
0.086771
0.000151841
0.000148997
0.000148064
0.000148148
0.000153821
0.000243009
0.015536
0.0590216
0.000156888
0.000148294
0.00035698
0.000150168
0.0702719
0.0477044
0.00015803
0.0229763
0.0370813
0.0350369
0.000187495
0.000165825
0.0598182
0.00016351
0.000160119
0.000168863
0.000196364
0.000150482
0.000416528
0.000148609
0.0481721
0.019345
0.000146175
0.000152876
0.000166529
0.000212955
0.000167046
0.000148849
0.000161488
0.000151711
0.0001579
0.000222106
0.000149003
0.011897
0.0285463
0.000148676
0.000164749
0.000175571
0.000148445
0.0137595
0.014388
0.0604708
0.0269311
0.000148184
0.000154101
0.000156823
0.00014989
0.00027688
0.000167628
0.000149682
0.00019104
0.00015486
0.0645831
0.00017307
0.0335455
0.000151573
0.000151984
0.000163669
0.000196085
0.000186511
0.000148507
0.0113732
0.058858
0.0144191
0.0340192
0.0533893
0.0651671
0.0515909
0.000148457
0.000148408
0.000148943
0.000277054
0.000180114
0.000185705
0.0114257
0.00014965
0.000145772
0.000148474
0.000263211
0.000145947
0.00015898
0.000152665
0.00604212
0.000151379
0.0001471
0.000148489
0.000148682
0.000148999
0.000159902
0.000274053
0.000160195
0.0919662
0.000148338
0.00014819
0.0850266
0.0845303
0.0249717
0.00172593
0.000163555
0.00104672
0.000146855
0.000168651
0.000151957
0.000148486
0.00015506
0.0214566
0.000152126
0.000197135
0.000235376
0.00014985
0.000148455
0.000155171
0.000246944
0.000149796
0.00444807
0.000148858
0.00026349
0.000148778
0.000149791
0.000158406
0.000170541
0.000149318
0.000236885
0.0342891
0.000255236
0.0888609
0.000148766
0.0212709
0.0132048
0.000148325
0.0176962
0.000149856
0.000161689
0.000149625
0.000149413
0.000147619
0.000148544
0.000150317
0.000155765
0.000189781
0.000149645
0.000148603
0.00016544
0.000146823
0.0706566
0.000148787
0.000164431
0.000168968
0.044991
0.0511399
0.00014889
0.000245536
0.000146809
0.000165112
0.000172228
0.00114748
0.000180652
0.000149799
0.00021852
0.000167634
0.000200558
0.0266911
0.000160673
0.000197674
0.00018917
0.000191755
0.000151288
0.000147929
0.00865715
0.0097733
0.000154316
0.000147994
0.00677088
0.000147045
0.000173702
0.000147817
0.000175675
0.00825363
0.000144915
0.0132106
0.000157325
0.000149054
0.000239036
0.000147029
0.000161296
0.0264329
0.000170904
0.00845189
0.000147589
0.000149744
0.000162053
0.000149454
0.000149612
0.000161361
0.000161996
0.000189387
0.000176856
0.000149273
0.000164981
0.000147804
0.000148329
0.000149373
0.000148333
0.000297149
0.000148293
0.000151861
0.000277626
0.000147002
0.000147916
0.0798518
0.000149633
0.0107637
0.000152502
0.0707319
0.00026657
0.000164112
0.000323075
0.000176903
0.000251507
0.000150255
0.000202902
0.000157317
0.000147836
0.000148026
0.000151837
0.000164041
0.000148601
0.000170501
0.000147367
0.000151944
0.00541206
0.0247879
0.000268197
0.000154909
0.000162905
0.0444012
0.026322
0.000149064
0.000158612
0.000278784
0.00014956
0.000167923
0.000523676
0.0562729
0.000160077
0.000177405
0.000151078
0.000204119
0.00014989
0.000160808
0.0650433
0.000149577
0.000148213
0.0701895
0.000170589
0.000273041
0.0900143
0.00021382
0.000150292
0.00014739
0.000149903
0.0270909
0.0472434
0.0871584
0.000173727
0.000148626
0.0479421
0.000148662
0.00019696
0.000155373
0.000152968
0.000174524
0.00014832
0.0846441
0.0721453
0.000146538
0.000187262
0.000181207
0.000240402
0.000171803
0.000189232
0.000276272
0.000168924
0.000299036
0.000190499
0.000148678
0.000170567
0.00016786
0.00442417
0.000148169
0.000547857
0.000172581
0.000191536
0.000149801
0.0678923
0.000157929
0.000152449
0.000147828
0.000166015
0.000165436
0.000165844
0.000148768
0.000150869
0.000171236
0.00748763
0.000174767
0.000148967
0.000150684
0.000170547
0.000219467
0.000149054
0.000178462
0.00306694
0.00016718
0.0530859
0.000175303
0.0283544
0.000217701
0.000148497
0.00127968
0.000149551
0.000154467
0.000167126
0.000167601
0.000189699
0.000180656
0.0001654
0.000166579
0.000162298
0.000153259
0.000145881
0.000169137
0.000156909
0.000157271
0.0472613
0.000156027
0.00015892
0.000147849
0.0288948
0.000177372
0.000149258
0.000155353
0.000151748
0.0377822
0.000193677
0.000167165
0.0353606
0.0209402
0.000263049
0.000192527
0.000293442
0.000147481
0.000184093
0.00014897
0.000155587
0.00461649
0.0134489
0.000243104
0.000284084
0.000148741
0.0324692
0.000147453
0.000202177
0.000154469
0.000432811
0.0970905
0.000158253
0.00014799
0.000226396
0.000161921
0.000148177
0.0321957
0.000148486
0.000152559
0.000156949
0.000149592
0.000161541
0.000151897
0.000148673
0.00016267
0.000220836
0.000173356
0.000174883
0.000148178
0.0334556
0.0107415
0.000147868
0.000242615
0.0001544
0.000157268
0.0834319
0.000147849
0.000150914
0.000156632
0.0528802
0.000148184
0.000149142
0.00017011
0.000341472
0.000147752
0.000159466
0.000161294
0.0448086
0.000171361
0.000169522
0.000258371
0.000148502
0.000171689
0.000146205
0.0350263
0.000160536
0.000148443
0.000160019
0.000185084
0.000148908
0.000149454
0.000211037
0.00894772
0.000150119
0.0370067
0.000149176
0.000146165
0.000183739
0.00014815
0.000148296
0.0855258
0.000149807
0.000172475
0.000238205
0.0442942
0.036417
0.00014796
0.000152786
0.000156468
0.000148368
0.00014886
0.000148544
0.000308879
0.00014923
0.000298098
0.000217247
0.00014819
0.000146971
0.000161478
0.000216876
0.000260162
0.000166037
0.00017593
0.000152881
0.0652365
0.000174867
0.000164936
0.000175252
0.000171017
0.000188303
0.0242142
0.000173928
0.0256806
0.0582881
0.0208682
0.000155317
0.000148632
0.000166917
0.000159201
0.000147811
0.000150155
0.000176353
0.000149586
0.000149878
0.000148267
0.000145356
0.000153306
0.000149008
0.0178206
0.000147965
0.0372664
0.000148421
0.000172469
0.000150605
0.000215829
0.000172324
0.00014893
0.0696438
0.000152731
0.000149452
0.000173912
0.000147703
0.000158667
0.000148677
0.0121768
0.000153436
0.000171978
0.000170457
0.0655091
0.000157624
0.000298597
0.0412675
0.000168927
0.000149217
0.000151714
0.000174286
0.000181474
0.0227676
0.000147095
0.0286116
0.000149271
0.000169076
0.0677482
0.00016462
0.000318456
0.00015485
0.000164828
0.000154072
0.0717724
0.000161298
0.000148847
0.000168125
0.000201443
0.000152287
0.000148357
0.000148854
0.059828
0.00014965
0.000156971
0.0866766
0.000155275
0.000148533
0.000170674
0.000154457
0.0604748
0.000145785
0.00014858
0.000147154
0.000154914
0.000150152
0.000149275
0.000189742
0.0819438
0.000148407
0.000148638
0.0829855
0.000149765
0.0135947
0.00015377
0.0653115
0.000147895
0.000153414
0.000146816
0.0326269
0.0877902
0.000158921
0.000168441
0.000155662
0.000148516
0.000148721
0.0121867
0.000148808
0.00020237
0.000147805
0.000177668
0.00014919
0.091189
0.00014702
0.000179171
0.000147806
0.000207176
0.000243023
0.000147506
0.000165739
0.0774714
0.00019165
0.0038703
0.00032479
0.000195397
0.000152015
0.000165885
0.000192877
0.0612766
0.00014955
0.000173656
0.000156612
0.000148717
0.0263203
0.0339543
0.000190197
0.000216568
0.000221404
0.000162078
0.0709105
0.000147749
0.000147425
0.000185967
0.072868
0.000216818
0.000195439
0.0404827
0.000146886
0.0694483
0.0438058
0.0673287
0.000149289
0.0289192
0.0390258
0.000250824
0.00034771
0.0624488
0.000203176
0.000161249
0.000200918
0.000154485
0.000148698
0.000718827
0.000199927
0.000145732
0.0464616
0.000149178
0.000158259
0.000174838
0.000155545
0.0266543
0.000160237
0.0103028
0.000179012
0.000154959
0.0530202
0.0802369
0.000209327
0.000150009
0.000154646
0.000184518
0.000167904
0.000146903
0.000173212
0.00016689
0.000194393
0.000148638
0.000210451
0.000153527
0.000168049
0.00758914
0.000303021
0.000151452
0.00018199
0.028237
0.000149568
0.000151086
0.0655779
0.000209275
0.000153916
0.000154915
0.000148498
0.000173432
0.000157136
0.0295463
0.000188808
0.00015051
0.000149439
0.000165969
0.000158889
0.0171626
0.0291947
0.000147868
0.000148202
0.000157814
0.000149227
0.000154015
0.000151308
0.000151143
0.000154775
0.000148186
0.000154075
0.000149477
0.000180766
0.0572152
0.000149739
0.0944471
0.0136285
0.000146222
0.00018038
0.000183266
0.000177415
0.000150984
0.000200659
0.000158842
0.00016829
0.000162317
0.000152044
0.000149338
0.0220699
0.000161357
0.00633079
0.00015096
0.000148535
0.000148098
0.000172234
0.000148323
0.00017831
0.000189818
0.000255383
0.000147636
0.0054059
0.00455452
0.0615859
0.000146827
0.000190973
0.000212779
0.00688271
0.0147116
0.000150432
0.000149856
0.000188542
0.0358516
0.00248181
0.000172826
0.000245845
0.000149499
0.000148019
0.000164016
0.000149235
0.000149173
0.000194399
0.000149748
0.00016929
0.000147845
0.0851045
0.0918688
0.0642346
0.00794475
0.057312
0.000149267
0.000148869
0.0862295
0.000147295
0.000147616
0.000146192
0.000180674
0.0918045
0.0238968
0.000156202
0.00014931
0.000151819
0.000162524
0.0384034
0.000148093
0.000378692
0.08618
0.00014918
0.000149127
0.0461326
0.000200184
0.000152828
0.000148322
0.0973796
0.0541296
0.000148832
0.000245067
0.000149661
0.0644586
0.000161783
0.000153327
0.0249657
0.0132778
0.0892968
0.000147692
0.000149523
0.000149594
0.000149898
0.0860253
0.00014814
0.000191066
0.00029209
0.0214681
0.000150956
0.000173081
0.0176762
0.000173919
0.0875817
0.0439192
0.000145541
0.00015707
0.000157223
0.000233276
0.0497716
0.000145198
0.0286818
0.0001603
0.000176591
0.00015101
0.000147493
0.000211018
0.000167846
0.0163954
0.000149234
0.000173011
0.000150703
0.000214985
0.000154518
0.0800827
0.0455426
0.000194097
0.000210412
0.000148562
0.000152916
0.000197854
0.000180424
0.0720219
0.0823073
0.000148901
0.000759618
0.000169889
0.0690821
0.000159317
0.000169899
0.000169008
0.000149215
0.0929038
0.000148374
0.000165547
0.0241006
0.0861595
0.000307231
0.090284
0.000157613
0.000177864
0.000147115
0.0846403
0.000156655
0.0648983
0.00014703
0.0654404
0.000144966
0.000148012
0.000164885
0.000158517
0.000159685
0.00014873
0.0463264
0.000178371
0.000148178
0.000165413
0.0354342
0.000223893
0.000148706
0.0473814
0.00015375
0.000168957
0.000166929
0.000145983
0.000177435
0.000148006
0.00502455
0.000171938
0.000159598
0.00014838
0.000210205
0.000170163
0.000147028
0.0790435
0.0475845
0.000260704
0.000146349
0.0409726
0.000148848
0.00018685
0.000160582
0.000179049
0.0452454
0.0470236
0.000159534
0.0904485
0.000169074
0.000157536
0.000147235
0.0841388
0.000177628
0.000189195
0.000165368
0.000149587
0.000391817
0.000181477
0.000215027
0.000280424
0.0811938
0.0456678
0.00111392
0.0299883
0.000157776
0.000158661
0.000148548
0.000149144
0.000145381
0.000234162
0.000158267
0.000159694
0.0543839
0.000148093
0.000147037
0.000176338
0.000202803
0.000160154
0.000147362
0.0720015
0.000154009
0.000181043
0.000149738
0.0185929
0.000157108
0.0974012
0.000166094
0.000166153
0.000170677
0.000148508
0.00890994
0.0119533
0.000179566
0.000149102
0.000147235
0.031204
0.0372318
0.0277315
0.000148125
0.000179678
0.0247896
0.000149089
0.000147937
0.000149234
0.0903306
0.000170837
0.000162672
0.000160252
0.000158052
0.0538793
0.000177702
0.000267078
0.000158837
0.000165203
0.000145308
0.000180561
0.000172268
0.000148542
0.00718864
0.0458773
0.0801034
0.00656823
0.0353852
0.0691018
0.0869717
0.000151565
0.000148102
0.0946472
0.0416745
0.0611956
0.000149215
0.000171882
0.000148616
0.000148384
0.000318323
0.0871783
0.000186864
0.000148046
0.000655609
0.000197397
0.00017526
0.0506091
0.00742051
0.000213497
0.000147268
0.0800548
0.000308983
0.000207693
0.000166866
0.000172842
0.000149391
0.000147395
0.000168189
0.000172451
0.000153769
0.000174651
0.00016017
0.000154325
0.000269953
0.0460812
0.000159086
0.000176648
0.0603322
0.000260916
0.00014869
0.000191656
0.000216305
0.0291451
0.000168983
0.000149378
0.000161723
0.000156983
0.000158273
0.000145988
0.000158976
0.000165279
0.000179313
0.000193529
0.000149493
0.000151639
0.0469818
0.0226788
0.075787
0.013967
0.000218124
0.000144778
0.000148523
0.000162075
0.000146983
0.0758597
0.000148539
0.000149806
0.000146507
0.0070724
0.0063148
0.000150282
0.000188512
0.000158091
0.000161445
0.000161317
0.00015975
0.000173007
0.000166066
0.0178507
0.000157902
0.0477731
0.000166662
0.0721241
0.000160108
0.000147392
0.000147149
0.000200184
0.000209899
0.000146852
0.000162694
0.000160481
0.000175064
0.00487065
0.0224449
0.0493498
0.000149804
0.0298358
0.000158476
0.000164018
0.000148354
0.00017876
0.000152655
0.0240185
0.000256191
0.00016544
0.000148471
0.0188455
0.000155845
0.0458072
0.042864
0.000269664
0.00015347
0.000199021
0.0494659
0.0318182
0.0675006
0.000176527
0.000148571
0.00016668
0.000148135
0.0688252
0.000153878
0.000162001
0.00048455
0.0655919
0.000148378
0.000148572
0.0352215
0.000169151
0.0667345
0.000158799
0.000148309
0.000170817
0.000262806
0.000162366
0.000873699
0.00016385
0.0309073
0.000155221
0.000149593
0.000148474
0.000203448
0.000150792
0.000179815
0.000148715
0.000148877
0.000199091
0.000158198
0.000149231
0.000148169
0.000163856
0.0290807
0.000177219
0.000168687
0.000155275
0.000177867
0.00014905
0.000186705
0.000162261
0.000173206
0.000166583
0.000161134
0.000173235
0.000163009
0.00014801
0.000190316
0.0437741
0.0244698
0.000149318
0.00028939
0.0450963
0.000148517
0.000150742
0.00021259
0.0534757
0.000156259
0.0438172
0.000231014
0.000149094
0.000201156
0.000145339
0.000157389
0.00017915
0.0117898
0.000196109
0.000275991
0.0109894
0.00449287
0.0703131
0.00015303
0.0595653
0.000148468
0.000315392
0.0654272
0.000148568
0.00014842
0.0282368
0.000149175
0.000148503
0.00100206
0.0602888
0.000228471
0.000158288
0.059064
0.000148575
0.0192167
0.0509631
0.000149197
0.00289373
0.00387714
0.0483132
0.0386
0.0515627
0.031425
0.000147435
0.000151702
0.000180575
0.000187764
0.000148483
0.000259031
0.000148373
0.0515671
0.000112865
0.000163997
0.000250537
0.0509882
0.000119027
0.000276492
0.000165261
0.0155974
0.000216451
0.00015667
0.000145693
0.000311143
0.000161052
0.0001472
0.0671024
0.000148477
0.000367618
0.000149282
0.0898494
0.000157142
0.00014836
0.00298398
0.000156027
0.000160472
0.0268986
0.0865465
0.000257727
0.000160754
0.000179788
0.000151991
0.000174761
0.000207965
0.000175096
0.000149351
0.000279663
0.000182967
0.000161274
0.0357957
0.000171749
0.000162012
0.000191886
0.000184761
0.000178733
0.00014834
0.000200557
0.000147183
0.000210052
0.000294178
0.0531233
0.000147188
0.000167972
0.0216188
0.000152595
0.000177677
0.000165616
0.000170141
0.0962109
0.000183965
0.000152041
0.00768599
0.000147214
0.0153948
0.000148725
0.000151805
0.000212067
0.0248544
0.000161395
0.000187943
0.000204377
0.000165586
0.000149624
0.000176082
0.000171769
0.0560922
0.000155322
0.00112028
0.000212139
0.000165634
0.000161332
0.00017638
0.000165801
0.000167382
0.000184441
0.000162351
0.000154051
0.000149292
0.000296748
0.00014874
0.000159867
0.0001455
0.000212077
0.000160624
0.000185358
0.0574676
0.000151325
0.000223158
0.000144529
0.000149384
0.000149182
0.000149323
0.00015903
0.000147734
0.000202032
0.0299347
0.000186129
0.000175844
0.000156365
0.000149001
0.000299187
0.000148989
0.0442482
0.0734889
0.0231822
0.000231951
0.000163334
0.000160034
0.0001491
0.000157975
0.00017006
0.000168561
0.0586986
0.000186839
0.0478504
0.000234641
0.000149344
0.000146947
0.0257009
0.000148501
0.000162576
0.000165799
0.000224062
0.000152845
0.0864795
0.000149096
0.000155623
0.000148622
0.000150785
0.000176188
0.000213598
0.000149681
0.000167181
0.000159547
0.00017729
0.000187398
0.000203984
0.000193225
0.000200352
0.000229595
0.000158337
0.000151513
0.000187636
0.0190707
0.0896848
0.0313202
0.000165993
0.0710278
0.000214319
0.000151324
0.000147972
0.000192074
0.000148858
0.000167139
0.0184081
0.000148284
0.000147773
0.000240692
0.000320467
0.000181088
0.000278552
0.000149213
0.0357183
0.000168482
0.0742852
0.00015717
0.00014906
0.0233379
0.000164949
0.000148775
0.000171039
0.000149652
0.000185562
0.000159631
0.000164266
0.0701832
0.000159441
0.0860595
0.000147834
0.0439274
0.000149332
0.00015683
0.000150409
0.000170752
0.000148857
0.000165788
0.0188483
0.000246407
0.000175836
0.000160795
0.000168055
0.00014831
0.000148991
0.000152023
0.0127827
0.000156726
0.0901691
0.0468415
0.000184796
0.000149376
0.000187533
0.000196186
0.000204272
0.000157997
0.0470487
0.000148617
0.000144787
0.000148449
0.0077271
0.000149154
0.00014878
0.0268229
0.000148288
0.000196475
0.00017097
0.000147864
0.0770611
0.000161522
0.0887366
0.000148489
0.0435572
0.00015124
0.000166785
0.0286105
0.000186139
0.000148135
0.000160177
0.0552298
0.000166959
0.000188636
0.000163731
0.00015644
0.00018352
0.000158003
0.000149772
0.00543375
0.000160212
0.000161695
0.000235683
0.000148456
0.000147802
0.000149189
0.000165352
0.000149381
0.000155137
0.0896994
0.0134831
0.000170773
0.0080451
0.000191621
0.000169598
0.0661264
0.0412953
0.000150292
0.013461
0.0483274
0.0443917
0.000802813
0.000161948
0.0548061
0.0416389
0.0350332
0.00104101
0.092203
0.000162653
0.000169059
0.000157719
0.000158278
0.000149352
0.000232685
0.000149891
0.0158193
0.000173282
0.000192186
0.000145224
0.000194257
0.000163421
0.000152213
0.00014995
0.000148674
0.000172818
0.000153491
0.000149904
0.000175904
0.0502052
0.000154487
0.000187119
0.000146908
0.000172783
0.000168857
0.00014951
0.000156059
0.000147724
0.0906501
0.0766088
0.000215623
0.000382074
0.000160943
0.000193339
0.000148809
0.000176352
0.000148399
0.000149956
0.000149508
0.0658194
0.000147084
0.000180613
0.000231108
0.000157217
0.000164257
0.000148252
0.0590124
0.000199059
0.0355676
0.0454288
0.000196113
0.000248436
0.039113
0.000232987
0.000298874