/*--------------------------------*- C++ -*----------------------------------*\
| =========                 |                                                 |
| \\      /  F ield         | OpenFOAM: The Open Source CFD Toolbox           |
|  \\    /   O peration     | Version:  v2012                                 |
|   \\  /    A nd           | Website:  www.openfoam.com                      |
|    \\/     M anipulation  |                                                 |
\*---------------------------------------------------------------------------*/
FoamFile
{
    version     2.0;
    format      ascii;
    class       volScalarField;
    location    "600";
    object      p;
}
// * * * * * * * * * * * * * * * * * * * * * * * * * * * * * * * * * * * * * //

dimensions      [0 2 -2 0 0 0 0];


internalField   nonuniform List<scalar> 
13851
(
-0.182381
-0.0494026
-0.0483718
-0.317333
0.00860985
-0.0571651
-0.0418032
-0.00319829
-0.151349
0.0333745
-0.125416
0.0168464
0.0449353
-0.204937
-0.0915313
-0.0656495
-0.271308
-0.0163488
-0.248258
-0.181697
-0.106135
-0.00593403
-0.303221
0.0106564
-0.245252
-0.0740486
-0.129787
-0.288708
-0.0160856
-0.00582883
-0.284388
-0.0418938
-0.1666
-0.270111
-0.0970925
-0.00555666
0.0107223
-0.242068
-0.261399
0.0191751
-0.296584
-0.0194584
-0.287737
-0.122853
-0.0460292
0.00520213
-0.01073
-0.0873751
-0.0173989
0.0452873
-0.272919
0.0515784
-0.067631
-0.0601784
-0.13006
0.0202588
-0.17118
-0.29904
-0.0830845
-0.27873
0.0168379
-0.130071
0.0285781
-0.0172348
0.0825538
0.0887829
-0.280633
0.283728
0.00469077
-0.309999
-0.275602
-0.120488
0.0316284
-0.277381
-0.0684829
0.0101274
-0.272246
-0.00921694
-0.246131
0.0153144
0.00363369
-0.215873
-0.0931913
-0.217868
-0.276163
-0.280197
-0.00872828
-0.00574993
0.0328464
-0.283872
0.0524408
-0.0431715
-0.268618
-0.282374
-0.273757
-0.0938863
0.0116116
-0.0766528
-0.287784
-0.167769
-0.0777988
0.198421
0.19625
0.0362961
0.00124451
-0.119858
0.00180252
-0.276478
-0.0431044
-0.0156166
0.00833793
0.00456016
-0.203276
-0.139758
-0.145057
-0.0594227
-0.00155086
-0.00354255
-0.31801
-0.310658
-0.0984878
-0.0115066
0.0101887
-0.271389
-0.240195
0.328334
0.0109193
-0.0899425
-0.280589
-0.108379
-0.00231566
-0.068285
-0.241325
-0.262716
-0.130004
-0.265045
0.275135
-0.279134
0.168469
-0.103442
-0.212248
0.0531006
0.0335009
0.220801
-0.253801
0.0235247
-0.00922163
-0.283744
-0.0697748
-0.0936503
-0.0809342
-0.199665
-0.143987
-0.236554
0.0535917
0.0411196
0.0152885
-0.263479
-0.100198
-0.0442098
0.010851
-0.0103165
-0.117493
-0.090466
-0.199561
-0.125761
-0.132968
-0.272021
0.00748477
-0.294146
0.0172786
-0.00171354
-0.137805
0.00957555
-0.270716
-0.197859
-0.102283
-0.00234763
-0.0662947
-0.0999463
-0.236346
-0.11979
0.0019697
-0.105872
-0.275067
-0.0671798
-0.166251
0.132368
0.049214
-0.00199267
-0.252016
-0.100601
-0.203171
-0.0592774
0.0215219
-0.071983
-0.161274
-0.0276681
-0.0192685
0.270353
-0.210959
-0.279777
-0.294476
-0.0897145
-0.109175
-0.28167
0.086796
-0.094465
-0.166746
-0.0497337
-0.0625208
0.0105852
-0.214561
0.0168193
-0.101789
0.00768297
0.0438602
-0.222531
-0.0250552
0.390959
-0.00255911
-0.1868
-0.218872
-0.265362
0.122748
-0.0945837
0.0164871
0.224512
0.0185349
-0.098088
-0.319093
0.128036
-0.0501201
0.0275488
-0.292136
-0.00650557
-0.294868
-0.293605
-0.161115
0.010964
-0.231903
-0.272827
-0.0428815
-0.0642943
-0.0885186
0.238695
-0.216561
-0.0659425
-0.0900588
-0.00999482
-0.0584971
-0.199528
0.0003082
-0.0619719
-0.0741558
-0.00423618
0.0204569
-0.00180867
0.341946
0.0318076
-0.186388
-0.239294
-0.0638819
-0.119596
-0.203027
0.0245094
0.20169
-0.0936118
-0.284622
0.025164
0.043924
0.127332
-0.190637
-0.315064
-0.112458
-0.0122144
-0.240864
-0.238306
-0.145496
-0.117526
-0.195876
-0.292374
-0.0656132
-0.0846594
-0.261478
-0.00120376
0.0145719
-0.150356
-0.108511
-0.00759917
0.0161409
0.019074
0.00645157
-0.0871844
0.0148512
-0.157855
-0.108985
0.0122279
-0.00865074
-0.267
0.050911
-0.187892
-0.280747
0.0545593
0.0519969
-0.111764
-0.233981
-0.262748
-0.145923
0.0084453
-0.292585
0.0172655
-0.153193
-0.280292
-0.282774
-0.0429152
-0.243475
-0.232335
-0.273035
-0.197219
0.221929
-0.265039
-0.275627
-0.285068
-0.0203459
-0.282733
-0.00416049
0.343195
0.324722
0.0880632
-0.14506
0.0822159
-0.00338822
0.215845
0.00276471
-0.01062
-0.0371788
-0.276016
0.383766
-0.00148637
-0.263471
0.0921445
-0.0685027
-0.0444146
-0.228912
-0.23755
-0.0692644
0.00956674
-0.047537
0.00740001
0.049603
-0.240721
-0.0643934
-0.112804
0.0969428
0.0325976
0.0113446
-0.184505
-0.174474
-0.200236
-0.236671
0.00708336
0.0227451
-0.295199
-0.204136
-0.0134153
-0.277827
-0.161542
-0.287015
-0.0357198
-0.0665827
-0.0849203
-0.245694
-0.180926
-0.0154564
-0.0211155
-0.201613
-0.288975
-0.0802269
-0.0607062
-0.0874954
-0.294801
-0.0832498
-0.062102
-0.20207
-0.193171
0.0411146
-0.0620284
-0.111956
-0.0681456
0.00825407
-0.113094
-0.266448
0.0307958
-0.0961716
-0.318587
-0.0412058
-0.231853
-0.0754459
-0.261573
-0.0523503
-0.0737029
-0.0691235
-0.24343
-0.119159
0.0193137
-0.273486
-0.222383
0.0253388
-0.182478
-0.0865179
-0.0681544
-0.00957398
-0.281877
-0.290067
-0.239731
-0.0476248
-0.205635
-0.150765
-0.315264
-0.0127337
-0.282325
-0.202381
-0.313358
-0.0139139
-0.274653
0.0377899
0.0093842
-0.12413
-0.161554
0.0342125
-0.0493062
-0.0983952
0.000469964
-0.292017
-0.146957
-0.160094
-0.0586842
-0.0221257
0.0522529
-0.239763
0.0133859
0.0512656
-0.0389738
-0.270282
0.000617595
-0.0911212
0.0283488
0.0141538
-0.0434037
-0.203295
-0.0706867
0.00895865
-0.0326209
-0.0959272
-0.0428796
-0.261358
0.0159362
-0.0594278
-0.0486068
0.0893138
-0.0094082
0.0185345
-0.0579169
-0.0303635
-0.209483
-0.0315392
-0.0904685
-0.0521445
-0.0453914
0.0203693
-0.254081
-0.0894897
0.143039
0.029908
-0.273803
0.160729
-0.22437
0.0367772
-0.0720767
-0.184756
-0.0759657
-0.276955
-0.147682
-0.24096
0.0535247
-0.200618
0.0233625
-0.0134696
-0.0761556
-0.159623
-0.0854628
0.00886344
0.0836763
-0.140024
0.00885752
-0.307295
-0.256935
-0.26202
-0.32005
-0.0358554
-0.26388
-0.242169
0.113197
0.0225777
-0.247959
0.0333033
0.00832884
0.118632
-0.269532
-0.048604
0.0569829
-0.047274
-0.118862
0.0348687
-0.253161
0.0128707
-0.273402
-0.203674
0.0149716
-0.0449601
-0.206496
-0.285612
-0.00688861
-0.251687
-0.280387
-0.0180758
-0.264264
-0.245326
-0.190164
0.0548854
-0.0455096
-0.291322
-0.0184201
-0.22611
0.00737951
0.0125435
-0.0258341
-0.291724
-0.10102
-0.0691948
0.0338711
-0.0824854
-0.278771
-0.263522
-0.0203707
-0.270008
0.00904348
0.00624105
-0.121534
-0.0557287
-0.0130121
0.0129788
-0.263779
-0.189568
-0.263864
-0.0464496
0.0315681
-0.179719
0.0226553
-0.186516
-0.0630723
-0.0706634
-0.088587
-0.0434351
-0.292159
-0.0589219
-0.288722
-0.0416979
-0.145205
-0.025089
-0.132863
0.0140753
0.024168
0.189213
-0.261647
-0.064081
-0.0808455
-0.263748
-0.0557206
-0.0808873
-0.31568
-0.251113
-0.0690598
-0.270001
-0.150966
3.47343e-05
-0.017254
-0.0785201
-0.267742
0.0208256
-0.267543
-0.265602
0.00240827
-0.105817
0.0234773
0.126977
-0.102653
-0.297776
0.0142565
0.00991117
0.113119
-0.116467
0.0155183
-0.270399
0.00982345
-0.152037
0.0598468
-0.0690513
0.0354441
0.0355909
-0.0548819
-0.269225
-0.119091
-0.266474
-0.0721323
0.000732474
-0.0151413
-0.140011
-0.0313315
-0.174827
-0.0524849
0.143038
-0.0748817
0.0232208
0.0208802
0.0164575
-0.0656773
-0.289342
-0.0956871
0.137113
-0.287674
-0.0371833
-0.178273
-0.268074
-0.0220083
-0.260153
0.0872448
-0.0831534
-0.319675
-0.244213
-0.0135216
-0.17128
-0.0272584
0.00297903
-0.267572
0.00148869
0.28057
-0.29895
0.0199779
0.0199693
-0.0727309
0.0225569
-0.0552992
0.051634
-0.202198
-0.0411582
0.0368263
-0.0687638
-0.205234
-0.169202
-0.0119379
-0.0964088
0.112839
-0.0717556
0.0678614
0.0226095
-0.0960027
0.109879
-0.0910692
-0.117653
-0.12033
-0.0573124
-0.183398
-0.245015
-0.195238
-0.253146
-0.0835784
-0.210423
0.0115615
-0.0240019
-0.191654
-0.0128121
-0.0792868
-0.238516
-0.0241482
0.014893
0.0137628
-0.0686702
-0.0106702
-0.0609735
-0.294462
0.00118848
-0.056917
0.000954884
-0.279568
-0.168537
-0.0547063
-0.0492878
-0.277705
-0.170651
0.0113538
-0.15803
-0.0213404
-0.252053
-0.0669547
-0.15661
-0.0817257
-0.21643
0.037065
0.0168328
0.0835494
0.0375619
-0.0317765
0.00678111
-0.0670947
-0.180702
-0.170753
-0.263705
-0.289607
-0.161276
-0.185879
0.135331
0.025143
0.0425859
-0.00804497
-0.0145532
0.0096561
-0.146436
-0.201135
0.114617
-0.287318
0.00627344
-0.161977
0.0235499
-0.317048
-0.0849102
0.0236481
0.0268879
-0.107101
-0.057508
-0.128682
-0.27119
-0.101533
-0.139381
-0.0179128
-0.273627
0.0457762
-0.0494565
-0.0715291
0.0252623
0.0540047
-0.0187538
-0.079253
-0.0387495
-0.0637279
-0.084402
-0.20549
-0.262826
0.135127
0.0450695
-0.0136919
-0.00785032
-0.00833275
0.0110877
-0.0437302
-0.242173
-0.110616
-0.147073
-0.152023
-0.121385
0.0243845
0.0232464
-0.149745
-0.0187884
0.0242688
-0.059796
-0.197819
0.00787453
-0.168951
-0.229528
-0.104274
-0.151748
-0.295135
0.176096
0.0253806
-0.177119
0.00190565
-0.0632489
-0.188526
0.00616276
-0.248487
-0.0159229
-0.00252542
0.00124434
0.0392246
0.0258514
-0.00424141
-0.305011
-0.185241
-0.0818576
-0.064375
-0.113273
0.0391919
-0.00531537
-0.25184
-0.160391
-0.0456372
0.0239865
-0.140533
-0.200767
-0.292858
0.0532619
0.0125551
-0.0410887
0.0667975
-0.0878959
0.000609746
-0.272444
0.000717802
-0.287124
0.0293201
-0.153967
-0.100782
0.0591223
-0.08432
0.0322099
-0.0486136
0.0086357
-0.0610161
0.0646579
0.0182654
-0.0234481
-0.252028
-0.239778
-0.0762299
0.00736612
-0.318487
-0.0424708
-0.0614035
-0.107559
0.0425032
0.0162877
-0.0134302
-0.236961
0.0223566
0.00837412
-0.126641
-0.0900679
0.0185654
-0.0614295
-0.292796
0.0169033
-0.298505
-0.00101723
-0.206667
0.025507
0.00788304
0.0522414
-0.0106529
0.0211916
-0.296121
-0.213194
-0.025269
0.0098674
-0.103586
0.00402278
-0.31812
-0.181212
-0.207176
-0.26482
-0.0480304
-0.0933491
0.0208757
-0.105151
0.0100798
-0.0215881
0.0112574
-0.228419
-0.268653
-0.136462
-0.272607
-0.11532
0.0282864
-0.103699
-0.106597
-0.265841
-0.084637
-0.111
-0.164128
0.0158916
-0.303231
-0.302431
-0.0332485
-0.249316
-0.0248016
0.0510469
0.221564
0.0514271
-0.251741
-0.0233846
0.00287391
-0.294406
0.00987196
0.00733849
0.0128373
0.0109059
-0.27186
-0.238385
0.00443491
-0.106687
-0.22486
-0.00894109
-0.275695
0.0697491
-0.12103
-0.291197
0.0156222
-0.0619995
-0.0320413
-0.0791305
0.0467482
0.00718207
-0.213091
-0.0717139
-0.293724
-0.0295377
0.0085722
-0.0783108
-0.265109
-0.264202
0.0110654
-0.0986503
0.0354189
-0.00159724
0.0206928
-0.0613814
0.0270339
-0.279831
0.00548992
0.101439
0.133055
0.0488585
-0.000878903
-0.0490717
-0.0301258
-0.0446749
-0.00892784
-0.275353
-0.0562749
-0.0772575
-0.0739491
-0.295915
0.05657
-0.272263
-0.00741666
0.00511549
0.066166
-0.00173707
-0.040473
0.0208291
0.00393402
0.21578
0.0420458
-0.194617
-0.0295072
-0.266767
-0.280468
-0.227437
-0.222072
-0.0226168
-0.26375
-0.205148
0.0165087
-0.0274401
0.0552844
-0.271344
0.0725555
0.193461
-0.288965
-0.318279
-0.115387
-0.01511
-0.0452136
-0.280346
-0.0234415
-0.0287403
0.000154158
-0.0203093
-0.144556
0.03676
-0.291247
-0.187984
0.0227049
-0.207359
-0.198256
-0.0181439
-0.276062
-0.285052
-0.177891
-0.0240082
-0.0378044
-0.144866
0.0121322
-0.0800131
0.0420095
-0.0155188
0.0157117
-0.066981
-0.0639474
-0.170263
-0.284647
-0.077867
-0.144879
-0.0746614
0.0335235
0.303259
0.0141579
-0.241354
-0.0208073
0.0092425
0.0232399
-0.0196911
-0.21224
0.0140352
-0.110151
-0.291647
-0.255968
0.116775
0.0296215
-0.0284713
-0.215461
-0.0207603
-0.0070811
-0.0879939
-0.24083
-0.0445097
-0.00943839
-0.0538629
-0.0867972
-0.196086
-0.284817
-0.0182353
-0.0129417
-0.0428793
-0.236708
-0.0582722
-0.28351
0.0253127
0.0126762
-0.0160552
0.01432
0.00475432
-0.168969
-0.000690829
-0.113776
0.138486
0.0213927
-0.237455
-0.0308497
-0.276263
-0.292119
0.124818
-0.26893
-0.0270882
-0.294644
-0.0772973
-0.0827842
-0.209329
-0.0800532
0.0603375
0.0299475
-0.177814
-0.01506
-0.0488124
0.0344478
-0.162145
-0.239025
-0.00700718
0.0580562
-0.0446229
-0.210491
-0.0875462
0.0113704
-0.0647054
0.0785604
-0.0559853
0.0220899
0.0251291
-0.04314
-0.0298162
0.0349855
-0.0803019
-0.0648087
0.0203189
0.00972901
-0.0069944
-0.264402
0.0148627
0.0187675
-0.00601564
-0.0357196
0.0511447
-0.0967231
-0.0888047
0.0240762
-0.0977474
0.106179
-0.250272
-0.101804
-0.228106
0.0772922
-0.00461845
0.207337
-0.167323
-0.150317
0.0257518
-0.00245607
-0.279955
-0.297482
-0.263496
-0.167103
-0.139109
-0.260432
0.0265466
0.0308834
-0.0225459
-0.0678659
-0.0719938
-0.151538
-0.298581
-0.0286545
-0.00663753
0.0340647
-0.0502914
-0.00971055
-0.0634436
0.0199642
-0.06419
0.0562995
0.00240719
0.024601
0.0176001
0.0100139
0.100901
-0.10136
0.0560722
-0.293922
0.0292467
0.0139977
-0.275726
-0.243559
-0.0173934
-0.0731581
0.163395
-0.0482183
-4.89142e-05
-0.0236943
-0.00289561
0.0288091
-0.0468065
-0.284216
-0.0389398
-0.168539
-0.24886
-0.0287285
-0.00148388
0.10645
-0.167967
0.0155059
-0.0623836
-0.0222692
-0.0695965
0.0271525
-0.0243239
-0.0632033
0.1305
0.0460435
-0.134731
-0.27993
-0.0522402
-0.258602
0.0378559
-0.265979
-0.245824
0.0270135
-0.244773
0.0511674
0.206783
0.0504752
-0.0270126
0.00817538
0.0359827
0.00560284
0.121874
-0.129455
-0.0159949
0.0287271
0.257655
-0.0149547
-0.257536
0.0270721
-0.0844569
-0.0703652
-0.284086
-0.282922
0.024906
-0.176463
0.000354468
-0.0579264
-0.0850666
-0.0711787
-0.101066
0.0149244
-0.0920715
0.210954
-0.123389
-0.272446
0.072282
-0.19693
-0.084544
-0.121381
0.0542782
-0.0104296
-0.115691
-0.319225
-0.0264485
0.0125144
-0.279811
0.00131395
-0.10713
0.0138419
-0.111869
-0.246838
-0.013393
-0.30626
-0.0576185
0.0124794
-0.0963977
0.00300057
0.20316
0.0150378
-0.103722
-0.108288
0.00803216
0.0157932
0.216524
0.0226728
0.0239971
-0.0630634
-0.0756293
-0.133304
-0.121364
0.0364936
-0.0526783
-0.00896121
0.0203487
0.0227866
0.0268916
-0.235663
-0.0200344
0.0717197
-0.0958157
0.00096583
0.0113655
-0.209506
0.0241088
-0.268051
-0.0404655
-0.169918
-0.234022
0.17028
-0.248727
-0.130331
-0.012724
-0.0255214
-0.203983
-0.0372601
-0.0106382
0.00619624
0.0726901
-0.0815927
0.0170196
-0.0869001
0.00603872
-0.00751389
-0.281895
-0.272486
-0.148635
-0.0461759
0.212886
-0.291638
-0.316249
0.0230309
-0.0618012
-0.10322
-0.0238465
-0.0877821
-0.241646
-0.09849
-0.0619694
-0.0910046
0.0142606
-0.200203
0.0233954
0.0667028
-0.2722
0.0388211
-0.00390494
-0.255258
-0.103063
-0.114806
-0.263374
-0.0721593
0.0516872
0.00648693
-0.0246294
-0.269637
-0.270771
-0.29338
-0.115755
0.0382883
-0.284533
0.0277516
-0.196213
0.119895
-0.0405983
-0.108427
0.0224707
-0.267414
-0.255943
-0.0182021
-0.14212
-0.073507
-0.244383
-0.10874
-0.0775873
-0.105499
-0.0724572
-0.0520295
-0.0860972
0.0275012
-0.0765682
0.297351
-0.0455723
0.0192317
-0.106093
-0.112412
-0.073114
0.0161585
-0.257593
-0.0604953
0.0441777
-0.0028796
-0.0682468
-0.0656985
0.0755561
0.00906031
0.0173206
-0.0900724
-0.267674
-0.1203
0.0254147
0.0659487
-0.0739551
-0.225025
0.0225175
-0.132863
-0.258138
-0.0514269
-0.100035
-0.0622657
-0.28684
-0.215442
0.0265624
-0.23745
0.0104443
-0.00278467
-0.0756236
-0.0893222
-0.174896
-0.0824635
-0.0296111
-0.0517737
-0.0734013
0.0236497
-0.00965601
0.131062
-0.0571065
0.0813835
-0.284141
-0.0202726
0.0171808
0.0140532
-0.00955888
-0.127467
0.0369955
-0.0514833
0.0810235
-0.241469
-0.188336
-0.0749019
-0.0354351
-0.270529
-0.224702
-0.171911
-0.0583405
0.00679872
0.368008
-0.00740203
0.119695
-0.249433
0.00556422
-0.225629
-0.23122
0.0268472
-0.238354
0.00633101
-0.100077
0.0338609
-0.0383885
-0.29849
-0.0469338
0.00772735
-0.222581
0.204879
0.022669
-0.270037
0.0311301
0.0462062
-0.0577323
0.0513957
-0.0658724
0.0830164
0.0392114
-0.0355412
-0.214234
-0.100139
-0.120387
0.0231426
-0.285873
0.00534301
0.00789596
-0.124208
0.0365622
0.11503
-0.279859
0.00807743
0.0470391
0.0836057
-0.283899
0.0221922
0.0126
-0.102014
-0.0230055
0.00746372
0.0553645
0.00102005
-0.279106
-0.106928
-0.1001
-0.1978
0.0305016
0.239407
-0.00536094
-0.282175
-0.0563101
0.0331459
-0.054417
-0.163834
0.0120585
-0.0237057
-0.200018
-0.0106865
-0.0303432
-0.267327
0.0159502
-0.00618718
-0.143615
0.0182324
-0.0202438
-0.272776
0.0210027
-0.1038
-0.0931191
-0.269641
-0.278377
-0.0206995
0.0922734
0.108133
0.0135678
0.036571
0.0243588
-0.0384719
0.0196103
-0.0460276
-0.125309
-0.00424222
-0.0151442
-0.0706255
-0.12875
-0.114013
0.0489258
-0.126957
0.0151946
-0.147777
-0.106029
-0.0558647
-0.0894799
-0.0735375
-0.170174
-0.318595
-0.0640085
0.0161102
-0.256159
-0.318152
-0.0514616
0.00712084
-0.0848762
0.171274
-0.0154043
-0.0309502
-0.0424875
0.0161019
-0.00487529
0.0217727
-0.0122902
-0.0433649
-0.0197338
-0.275298
0.00769339
-0.251305
0.0140033
-0.0500798
-0.0166804
-0.143718
-0.0656419
0.0360477
-0.208878
0.0911209
0.0209446
-0.0942924
-0.0092237
0.0623875
-0.0171821
-0.00378184
0.00118527
-0.107149
0.318862
-0.202823
0.0178543
-0.043856
-0.280291
-0.0715699
-0.0217299
-0.0335293
-0.0295546
-0.14369
-0.265077
-0.00808378
-0.312585
0.0148321
0.193873
-0.264768
-0.0646805
-0.0313396
-0.00278924
-0.0849914
0.0268208
-0.256333
-0.0583585
0.00987455
-0.0647926
-0.20037
-0.0146772
0.0294299
0.0117803
-0.262025
0.0207306
0.0203879
-0.25508
0.042597
0.025951
-0.0841344
-0.0058958
-0.222764
-0.00688851
0.0330876
0.00355956
0.112902
-0.0244238
-0.0208088
-0.112583
-0.246725
0.0223655
0.0284218
-0.292267
-0.0289587
-0.308598
-0.0377755
-0.259905
-0.00246393
0.0433983
0.000149374
-0.00503024
-0.251372
0.0214485
0.048182
0.122617
0.0118189
0.0276189
-0.00730408
0.00988369
-0.0952396
-0.00797731
-0.0645593
0.0230719
-0.293713
0.00170735
-0.0849061
-0.00144571
-0.160036
-0.213184
-0.00883794
-0.0346466
-0.257955
-0.118406
-0.0694025
-0.0347673
-0.181529
0.0816897
-0.0885405
-0.174101
-0.285643
-0.0276625
-0.0648526
0.106621
0.00703914
0.0154617
-0.312794
-0.133047
-0.203646
-0.218784
-0.0372277
-0.166261
-0.0154083
-0.00831004
-0.167327
-0.25393
-0.221623
-0.19281
-0.272879
-6.39437e-05
-0.256837
-0.0789242
-0.263135
0.0125152
-0.263853
-0.291599
-0.216969
-0.0487296
-0.215112
-0.102906
-0.0658515
-0.203278
0.10871
0.0158424
-0.233467
-0.152983
-0.0101366
-0.279653
0.0199347
0.0269719
-0.102954
0.0969683
-0.247023
0.095711
-0.317149
-0.0780304
0.115202
-0.258329
-0.283476
-0.198458
0.0605981
0.105147
-0.151381
-0.0165229
0.0012943
-0.114729
0.0738163
-0.190419
0.0207415
-0.216274
0.020919
-0.0618478
-0.0520733
-0.049136
0.0782984
-0.137593
-0.270178
0.0394696
0.0165787
-0.265063
-0.208608
-0.025313
-0.0451142
0.0202813
-0.0920265
-0.0547694
-0.0140777
-0.172682
0.0531185
0.0116204
0.245873
-0.00223721
-0.256859
-0.271291
0.00380452
0.0223512
-0.0328604
0.0156929
-0.0393743
0.013454
-0.0235426
0.102868
0.0153563
0.0300632
0.0500605
-0.08615
-0.284513
0.0151803
-0.293514
-0.269705
-0.00561105
0.113892
-0.147622
-0.125426
0.0488696
-0.14979
-0.0652659
0.187647
-0.0760523
-0.0140702
0.0115549
-0.26379
-0.0508187
-0.0986634
0.0510607
0.0352952
0.0186234
-0.0809421
0.0207749
-0.118827
-0.0963684
-0.0923937
0.00975086
-0.248744
-0.241435
-0.283203
-0.000399875
-0.181374
0.197024
-0.241614
-0.237941
0.0655048
0.0101003
-0.17154
-0.268338
-0.104155
-0.102984
-0.11901
0.0103952
-0.0130137
-0.0179242
0.0189254
0.0488922
-0.190283
0.0172206
0.212239
-0.00385436
-0.287542
-0.283165
-0.253224
-0.0560424
-0.284311
0.0475189
0.0233078
-0.270818
-0.00851412
-0.00862691
-0.00638068
-0.130807
-0.279617
-0.26395
0.0985267
-0.0271181
-0.00510769
0.00440733
-0.209631
0.00899737
-0.0379575
-0.285114
0.0224854
0.0252857
-0.128702
-0.0947388
-0.0395711
0.0281273
-0.298428
-0.290479
-0.0186942
-0.193085
0.0172124
-0.274451
-0.159904
-0.0370463
-0.31973
-0.297644
-0.297249
-0.00377526
-0.0277156
0.0211125
0.0238781
-0.248972
0.00936418
-0.159301
-0.0633705
-0.266632
-0.0243854
-0.110102
-0.269141
-0.117586
-0.272909
-0.266583
-0.00738969
-0.0584813
-0.0590644
-0.0610401
-0.094827
-0.0118782
-0.0223903
0.0040396
-0.091588
0.0502522
0.00613922
-0.210906
-0.0883819
-0.318195
0.018224
-0.111488
-0.0220088
-0.154174
-0.0483451
-0.241493
-0.256843
-0.168671
-0.0724339
0.0201048
0.0203576
-0.146213
0.059497
-0.170546
-0.264869
0.0116389
-0.0483397
0.167064
-0.264456
-0.0483443
-0.0994696
-0.0978822
-0.0145969
-0.297084
0.0218319
-0.085269
0.0176276
-0.296145
-0.230041
-0.28539
0.0133286
-0.116183
-0.0120701
-0.291758
0.0185388
-0.251713
-0.0127444
-0.222628
-0.0134
0.0177206
-0.0841723
0.10693
0.0539689
0.015251
-0.085897
-0.0790283
0.0100441
-0.0675455
-0.0234535
-0.172282
0.0371053
-0.266529
-0.00367235
-0.0755536
-0.0672784
-0.00526041
-0.133801
0.0181297
-0.253204
-0.0471459
-0.0527672
0.0304165
-0.208155
-0.101554
-0.0133418
-0.274163
-0.266055
-0.236449
-0.0177901
-0.278477
0.0252625
-0.165671
-0.0633327
-0.115697
-0.25275
-0.117132
0.167206
-0.281775
-0.0782026
0.0335025
5.35145e-05
-0.268247
-0.100506
-0.174535
0.252049
0.011893
-0.0294467
-0.150583
-0.212542
-0.0876513
-0.265608
-0.0765396
-0.245508
-0.264109
0.0320696
0.107473
0.0250705
-0.0149379
-0.0116056
-0.180643
0.0103993
0.08927
-0.26272
0.0151702
0.002725
-0.0756816
-0.20143
-0.0696792
-0.00268628
-0.280475
-0.0373388
-0.0784471
0.0269804
-0.280635
0.0852988
-0.298715
0.0565102
-0.0892779
-0.0930591
0.0253527
-0.318425
-0.265571
-0.141646
0.0209982
0.00408737
-0.134803
-0.279891
-0.00028716
-0.0154867
-0.142618
-0.267514
-0.0197608
0.01179
0.00458634
-0.277206
0.142837
-0.0391144
-0.0503577
-0.058611
-0.176156
-0.125473
-0.240782
-0.0519547
-0.0855821
-0.0125808
-0.127323
-0.105683
0.0322005
-0.00385991
-0.265481
-0.292869
-0.0120785
-0.293773
-0.260633
-0.271545
0.0789261
-0.0201219
-0.29575
-0.277356
-0.251643
0.0231109
-0.102423
0.038457
0.0213982
-0.0304445
-0.294997
-0.130439
0.0190803
-0.185063
-0.165135
-0.118966
-0.232577
-0.236155
-0.135561
0.00431826
-0.250273
-0.0382285
-0.206032
-0.0696185
-0.107959
0.0502349
0.00514124
-0.0948955
-0.110344
-0.000916119
-0.0870309
-0.0685357
0.0314658
-0.0584731
-0.139815
0.0613807
-0.0851788
-0.285354
-0.0679042
0.027883
0.330599
-0.0613728
-0.00120052
-0.0956771
-0.0155759
-0.0748124
-0.0322111
0.0580213
-0.00549825
0.154352
-0.0753516
-0.0918404
-0.175657
0.0118323
-0.0110907
-0.0966261
-0.0210193
-0.279625
-0.268179
-0.086696
-0.012933
0.0359763
-0.0753481
-0.011527
-0.258976
0.0353623
0.0196364
-0.00691072
-0.000763123
-0.275874
0.0521355
-0.115637
-0.0282596
0.0271584
-0.0706819
0.159367
-0.0993264
-0.0812303
-0.314043
-0.0612365
-0.286985
-0.0788093
-0.274066
-0.0606339
0.0051393
-0.000220158
-0.157066
-0.202705
0.000897732
0.0236368
-0.0645716
-0.12298
-0.0532497
-0.316202
-0.205766
0.0189347
-0.256501
0.0259971
-0.0513199
0.0297
-0.137568
0.0176478
0.0184716
-0.0645945
-0.0595345
0.027635
-0.0150736
0.116208
-0.181091
-0.285832
-0.0556448
0.0120986
-0.195256
-0.184277
-0.263164
-0.217682
-0.12967
-0.00656347
-0.0776562
-0.017426
-0.25771
0.0253692
-0.0633842
-0.179659
-0.266761
-0.00601369
0.0158707
-0.269007
-0.0957256
-0.258152
0.16399
0.0275651
-0.104348
-0.20799
0.173768
-0.0643513
-0.0539875
-0.267185
-0.0377126
0.0202316
0.012551
-0.200814
0.0632902
-0.11548
0.0399939
-0.00163445
-0.193646
-0.0590225
-0.0128651
0.0177894
-0.0604871
-0.271373
-0.0844643
-0.0972873
0.0926333
-0.134152
0.0267887
-0.161655
-0.0757405
-0.109738
0.216651
-0.0512619
-0.0700538
0.146759
-0.0167951
-0.125583
-0.301001
0.0162775
-0.0218132
-0.238211
-0.160081
0.0204841
0.0674653
-0.0589444
-0.254792
0.127513
-0.120524
-0.221484
-0.0260047
-0.118212
-0.0112463
-0.0596358
-0.137204
-0.248932
-0.0328813
-0.0459985
-0.260801
-0.00689734
-0.275663
-0.0406649
-0.191284
0.0331475
-0.033767
-0.288755
0.0238736
0.00906485
0.0132307
0.0480166
0.027245
-0.22292
-0.134825
-0.231723
-0.0574863
-0.287612
0.00907969
-0.0245169
-0.163539
0.0124187
-0.18568
-0.240253
-0.27685
-0.0261279
-0.14247
0.00350065
0.00562268
0.0778604
-0.139307
-0.13016
0.0282528
-0.0605274
0.030278
-0.120256
-0.192042
0.136509
-0.135454
-0.0995658
-0.180453
-0.0887925
0.244807
-0.275345
-0.21234
-0.055528
-0.00974922
-0.0416274
0.0252294
-0.00794187
-0.258466
0.0239782
-0.051227
0.0494596
-0.294228
-0.0545514
0.0242504
-0.265425
0.120391
0.0957353
0.0151014
-0.272183
-0.221234
-0.0611643
-0.0665578
0.0562243
-0.0747512
-0.187653
-0.0836134
0.0245666
-0.123996
-0.138334
-0.0222138
-0.0307438
-0.104455
0.0232462
-0.174525
-0.154205
-0.0859374
0.0234709
-0.200263
-0.000498804
-0.180259
-0.0621104
-0.290465
0.00395136
-0.0922313
-0.311773
-0.0413076
-0.133925
-0.0637655
-0.101372
-0.296701
-0.134404
0.0806784
-0.289395
0.00444647
-0.0108652
0.0181171
-0.0338829
-0.16968
-0.000198991
-0.0329567
0.309231
-0.139387
-0.0721503
-0.0178195
0.0847066
-0.108143
-0.261628
0.11489
-0.242643
-0.197522
-0.0680236
-0.0725793
-0.0950423
-0.0758268
0.195621
-0.132339
0.026602
-0.0319111
-0.0268759
-0.241071
0.0309748
-0.0619966
-0.00912907
-0.129855
-0.0679902
-0.127174
-0.235192
0.076386
-0.2297
-0.0107388
0.0489597
0.0185527
0.0247185
-0.0543232
0.0120476
-0.116882
-0.292518
-0.120418
-0.111787
-0.0530937
-0.00198176
-0.0488577
0.0259438
-0.185982
-0.274741
-0.286837
-0.100472
-0.0518632
-0.0599773
0.0219246
0.077161
0.185126
-0.0900637
-0.291193
-0.112798
-0.269217
-0.0869862
0.0127968
0.00180812
0.0161921
0.01535
-0.0761782
0.23321
-0.220407
-0.0419958
-0.268762
0.025445
-0.0197458
0.0386173
0.0497388
0.093823
-0.103846
-0.00423608
-0.0692293
0.176198
-0.108441
-0.100381
-0.127105
-0.106617
-0.196363
-0.0728991
-0.0459897
-0.0123415
-0.0922048
0.00480711
-0.277639
-0.0346951
-0.076923
-0.274207
-0.0869398
-0.0319039
0.0170307
-0.0749806
0.0214896
-0.0647385
-0.292466
0.0209843
-0.0116836
-0.220003
-0.0276516
-0.081442
-0.229031
0.0469997
-0.140963
-0.0908983
-0.275695
0.13832
0.022791
-0.0307327
0.25984
0.0360079
-0.0560568
0.022493
-0.153594
-0.0566571
0.252947
-0.256392
0.127902
-0.286782
0.0124763
-0.276002
0.0450187
-0.0499423
0.0045953
-0.103294
0.0122361
0.0668829
-0.0103499
-0.177672
-0.120916
-0.0214422
0.171615
-0.00203443
-0.000940457
-0.0380069
-0.18957
-0.0562252
-0.294715
-0.235865
-0.154978
0.0222226
-0.169542
-0.187432
-0.204674
-0.046717
-0.290796
0.0221083
-0.0123969
0.0198686
-0.239633
-0.0133121
0.032003
-0.027237
0.0227795
-0.195068
0.100939
-0.0195666
-0.199019
-0.0525285
-0.294845
-0.00554892
-0.272075
-0.00818343
0.232009
-0.319103
-0.13855
0.0169653
-0.0568892
-0.21187
-0.0650788
-0.173401
-0.081158
-0.0305848
-0.146377
0.0191797
-0.029139
-0.271316
-0.05985
-0.0571033
-0.061347
0.0230638
0.00144569
0.0115954
-0.0573021
0.0435775
0.0397998
-0.28959
-0.326025
0.156944
-0.31632
-0.0763121
-0.0580359
-0.26503
-0.273934
0.0578684
-0.268237
-0.258387
-0.0905406
-0.2356
-0.0692862
-0.218218
-0.0628667
-0.310226
-0.237782
-0.284228
0.101285
0.118106
0.0725204
-0.053253
0.0055426
-0.204865
0.0209785
-0.318062
0.0784303
-0.103434
-0.00845488
-0.127574
0.103035
0.085971
0.0237928
0.00924509
0.109832
-0.0444314
-0.0293227
-0.07007
-0.263722
-0.0478167
-0.167298
0.00117057
0.123053
0.143875
0.0445945
0.0207451
0.0118223
-0.292361
-0.193899
-0.210479
-0.256697
-0.00485626
-0.164748
0.0268637
-0.0789067
0.00591666
-0.00403934
0.0228542
-0.193416
-0.00549667
-0.0679741
-0.191268
0.00754039
-0.0794208
0.0248972
-0.261128
-0.19906
-0.312234
-0.197311
-0.194273
-0.235037
-0.0769067
-0.223898
-0.0571518
-0.282014
0.0919297
0.172936
-0.239284
-0.284286
0.0297928
-0.318354
-0.145671
-0.284732
-0.00792878
-0.123174
-0.259685
0.0175815
-0.315723
0.106491
-0.27515
0.0106584
0.046405
-0.133803
0.050557
-0.0558418
-0.138335
-0.0125126
-0.0184675
-0.00427584
-0.298759
-0.31024
-0.075357
-0.0285139
0.0603722
0.0181265
0.00917647
-0.028281
-0.183474
-0.247387
-0.240118
-0.066854
0.00645098
0.00724103
-0.263662
-0.319113
-0.208918
0.114958
0.00242793
0.161492
-0.315138
-0.318838
-0.0132205
0.0178873
-0.26316
-0.0175628
-0.0865218
0.0865186
0.024676
-0.0102903
0.11983
-0.283117
-0.264522
0.0116846
-0.0125694
-0.0288249
-0.043895
-0.264067
0.0224428
-0.164136
-0.27841
-0.0127211
-0.0294202
-0.0365691
-0.31591
0.0275358
-0.318702
-0.267275
-0.0124581
0.00964102
-0.0460114
0.352181
-0.226943
-0.0577073
0.0166473
-0.318676
-0.247577
-0.00758419
-0.194288
-0.187154
-0.0775003
-0.234982
-0.268369
-0.281367
-0.275243
-0.0614632
0.0831314
-0.0407038
-0.286677
-0.272405
-0.272754
-0.319457
-0.292854
-0.0115812
-0.0929901
0.0102264
0.0132562
0.0427578
0.0141843
0.0263291
-0.0103978
-0.0989292
-0.249575
-0.266414
0.038362
-0.214605
0.183901
0.00160214
0.0070259
-0.278912
0.0231258
0.0180189
-0.0284155
0.0246303
-0.00899215
-0.064965
0.0168328
-0.178116
-0.0465196
-0.00335488
-0.0121786
-0.293197
-0.00871764
-0.262908
-0.286633
-0.0115241
-0.114858
-0.00525096
-0.0381357
-0.0217535
-0.122542
-0.13959
0.0138802
-0.295311
-0.0334769
0.029828
-0.01121
0.0431858
-0.0194503
0.022128
-0.216432
-0.277919
-0.318437
-0.0691559
-0.313916
0.0226514
-0.0596433
-0.0283417
-0.152605
0.059013
-0.214872
0.00282643
0.0156495
-0.243927
-0.274823
-0.0890507
0.00255238
-0.0949013
0.00167963
-0.293102
-0.00897077
0.00465893
-0.0375526
-0.0551896
0.00881891
0.0140057
0.0831492
-0.293777
0.0513243
-0.011403
-0.0458817
0.0290052
-0.130567
0.0218212
-0.317721
-0.00682912
-0.0354019
-0.247791
-0.313215
-0.0339638
-0.284642
-0.0107908
0.0281939
-0.0641607
-0.12325
-0.175111
-0.0141518
-0.110561
-0.014542
-0.120799
-0.0777079
0.0203058
0.0255064
0.00683097
-0.295254
-0.193002
-0.317911
-0.05443
-0.00835187
0.0247348
-0.316786
-0.1281
-0.0104027
-0.168258
-0.0147846
-0.093516
-0.0770239
-0.0791723
-0.0256636
0.0192424
0.00951722
-0.0508248
-0.11315
-0.169986
-0.0112115
-0.0071267
-0.272989
0.0143547
0.0420252
0.112535
0.106309
-0.0692034
0.0189572
0.00605372
-0.0770343
0.105564
-0.26926
-0.150012
0.0368049
-0.0573395
0.036258
0.0156966
-0.30647
0.330442
-0.00617999
-0.0216398
0.0214004
-0.115074
0.100044
0.0257109
-0.0777198
-0.265564
0.00393663
-0.0807108
0.0424607
-0.16373
0.027139
-0.0182266
-0.316229
-0.290941
-0.286024
0.0227671
-0.200277
-0.0173241
0.025378
-0.0713358
-0.191042
-0.136467
-0.0544297
-0.206108
-0.0364507
-0.0754396
0.240283
0.233092
-0.0138401
-0.00893639
0.0613893
-0.0103693
-0.0524378
0.0174162
-0.166704
-0.321965
-0.018555
0.0724415
0.0611535
-0.0173718
-0.187985
-0.297185
-0.315788
-0.0995368
0.0599357
-0.104277