/*--------------------------------*- C++ -*----------------------------------*\
| =========                 |                                                 |
| \\      /  F ield         | OpenFOAM: The Open Source CFD Toolbox           |
|  \\    /   O peration     | Version:  v2012                                 |
|   \\  /    A nd           | Website:  www.openfoam.com                      |
|    \\/     M anipulation  |                                                 |
\*---------------------------------------------------------------------------*/
FoamFile
{
    version     2.0;
    format      ascii;
    class       volScalarField;
    location    "250";
    object      k;
}
// * * * * * * * * * * * * * * * * * * * * * * * * * * * * * * * * * * * * * //

dimensions      [0 2 -2 0 0 0 0];


internalField   nonuniform List<scalar> 
13917
(
0.0185159
0.000182107
0.000221288
0.000151519
0.000172515
0.000180872
0.000161394
0.000249105
0.000158833
0.002887
0.000240443
0.000149463
0.000166638
0.00857976
0.00016254
0.0151696
0.00014862
0.000216113
0.000198908
0.0146328
0.000172506
0.000149103
0.000178329
0.000149101
0.000155202
0.000175449
0.013535
0.00244316
0.000187856
0.000136892
0.001579
0.000186526
0.000151818
0.030905
0.00014591
0.000275347
0.000157573
0.000159709
0.00016148
0.000175223
0.000148581
0.000146586
0.000156
0.000196943
0.000196869
0.000126612
0.000170741
0.0137664
0.0244727
0.000146025
0.00014924
0.000202486
0.00852761
0.000149053
0.000149559
0.000201899
0.00027989
0.000178317
0.000145792
0.000105303
0.0359473
0.000178804
0.000143792
0.000154659
0.0288565
0.000468572
0.000193436
0.000265606
0.000224755
0.0180463
0.0169028
0.0286784
0.000148731
0.000144754
0.000173579
0.000156653
0.000159346
0.00014423
0.000156071
0.000152106
0.000151866
0.000149143
0.000148573
0.0197648
0.000142114
0.00026663
0.000185796
0.000146093
0.000174795
0.000148506
0.000140189
0.000156338
0.0235976
0.00014397
0.000151876
0.000192364
0.00119701
0.000150854
0.000145228
0.000216543
0.000146426
0.000145435
0.000152066
0.000145483
0.000158884
0.0251725
0.0253285
0.00018094
0.000147647
0.0176683
0.000145064
0.0319053
0.000187285
0.0115564
0.0282659
0.000157705
0.000197528
0.000141903
0.000212049
0.000147549
0.000148923
0.000143099
0.00019828
0.000195761
0.0202763
0.0239798
0.000154122
0.000175208
0.000144532
0.00019594
0.000167848
0.000171626
0.0456277
0.000157643
0.000189937
0.0180855
0.0419535
0.0217054
0.000178171
0.000159251
0.0058519
0.000143637
0.0238869
0.000144175
0.000148015
0.000164676
0.0164535
0.00133959
0.0126908
0.000149347
0.00017248
0.000144686
0.000147729
0.000147602
0.00526576
0.000151441
0.000144971
0.0464238
0.000146623
0.000143468
0.000142463
0.0288557
0.000161794
0.0093633
0.0275204
0.00021883
0.00753439
0.0254026
0.000131146
0.000180373
0.000149789
0.0432301
0.000158704
0.0330572
0.00018954
0.000145507
0.000151492
0.000204858
0.00016711
0.000162771
0.000155822
0.000149292
0.000149252
0.000224639
0.000212062
0.000170814
0.000149043
0.000231037
0.000136935
0.000238365
0.000189625
0.0001952
0.000205782
0.0184956
0.00014398
0.0206085
0.000160619
0.045337
0.000145616
0.000150739
0.000167911
0.0177976
0.0186596
0.000156438
0.0152291
0.000176304
0.000172996
0.000143638
0.000204359
0.000151858
0.000141174
0.000196563
0.000201704
0.0138972
0.00018938
0.000177072
0.0330821
0.000154322
0.000137226
0.000137141
0.0240116
0.000209737
0.000160184
0.00014358
0.00014453
0.0206728
0.0176189
0.000136464
0.000136323
0.000148489
0.000137517
0.000137446
0.026926
0.0200465
0.000150201
0.000131472
0.000191266
0.0270539
0.000147492
0.000143552
0.0165453
0.0251658
0.000225157
0.0335431
0.000197824
0.000144232
0.0261824
0.000192255
0.000184258
0.000190236
0.000155803
0.018406
0.000147809
0.000176605
0.000187152
0.000150722
0.000148921
0.000154558
0.000165295
0.000145979
0.0266358
0.0190334
0.000143218
0.000136245
0.000152092
0.000136279
0.000147826
0.000167116
0.000172605
0.000143857
0.0260816
0.0266061
0.000147061
0.000159703
0.000176632
0.00013682
0.000198627
0.0299519
0.00013689
0.0221964
0.00014548
0.0278742
0.000146204
0.000160244
0.000151079
0.000143898
0.000206157
0.000154099
8.97291e-05
0.000164505
0.0149435
0.000165921
0.00655193
0.0213626
0.00014408
0.000182049
0.000168095
0.000158445
0.000170793
0.000155891
0.000144412
0.000152511
0.000204753
0.000221938
0.000175724
0.000155472
0.000143432
0.0463016
0.0151192
0.000143764
0.000161293
0.000158505
0.00881239
0.000198798
0.0284438
0.031402
0.000367421
0.00022976
0.000158206
0.0162397
0.00978215
0.000216085
0.000165747
0.000161905
0.0127216
0.000150769
0.000186503
0.000195026
0.000147966
0.0428056
0.000142511
0.00017446
0.000139193
0.00665168
0.000139647
0.000173995
0.000177143
0.000312793
0.000147461
0.000190056
0.0199252
0.000151437
0.00015074
0.0341053
0.0212956
0.0224984
0.010638
0.000136529
0.000150027
0.0266196
0.000223142
0.000136637
0.000170829
0.000149088
0.000187637
0.000174738
0.000200865
0.000196026
0.00019965
0.000174312
0.0266551
0.000144893
0.000151453
0.000175927
0.000213399
0.000147847
0.016346
0.000174038
0.00348566
0.000149844
0.000204576
0.000163627
0.0230402
0.000146093
0.000159421
0.000285986
0.000180337
0.0001474
0.00283809
0.000140423
0.0277245
0.000206835
0.000146045
0.0241184
0.000152613
0.00364506
0.000140018
0.0163443
0.00359429
0.000156317
0.0236497
0.000195443
0.000154728
0.027988
0.000232355
0.000155133
0.000206399
0.000149503
0.000198206
0.000219858
0.000142728
0.000160293
0.000155336
0.000143558
0.000140667
0.000145332
0.0430492
0.000206246
0.000150599
0.000145792
0.000148149
0.000181556
0.000162112
0.000137752
0.000131279
0.000198406
0.000204209
0.000144274
0.000155901
0.026982
0.00816066
0.00068
0.000200103
0.0104789
0.000141124
0.000137344
0.000169396
0.00014056
0.000137819
0.00015056
0.000137451
0.000140741
0.024453
0.000149802
0.000176986
0.0283271
0.000181937
0.000141435
0.000147476
0.0278362
0.000168202
0.0173745
0.000138636
0.000143873
0.0001409
0.000137829
0.000157211
0.000153345
0.0255971
0.000173724
0.0275322
0.000143839
0.000170538
0.000181844
0.000151555
0.00019698
0.0230789
0.000148851
0.0177306
0.000141815
0.000143973
0.000147789
0.000152662
0.000140636
0.000150797
0.0458665
0.0334016
0.00014041
0.00725531
0.000198275
0.00014846
0.000184131
0.000187844
0.0282994
0.000161453
0.0258221
0.0034385
0.00358465
0.000153394
0.000377211
0.0001902
0.000155318
0.00927645
0.000141398
0.0001487
0.000151884
0.0001596
0.000171204
0.000206928
0.000182181
0.000174888
0.000162091
0.0002085
0.000182775
0.000150602
0.017976
0.000171919
0.00016441
0.0283873
0.000142175
0.000183393
0.000207415
0.000139889
0.0442207
0.000144804
0.000137805
0.000182309
0.000138667
0.000152688
0.000204553
0.0485291
0.0252733
0.000142348
0.000152138
0.000157181
0.00572378
0.0112518
0.000150061
0.000149343
0.000142093
0.000185257
0.00289953
0.000145045
0.000147526
0.000150261
0.000143226
0.00016534
0.000164262
0.000143002
0.000182671
0.000139904
0.00014846
0.000154953
0.0293247
0.000136704
0.000155758
0.00014597
0.000169618
0.000188062
0.000192858
0.000188295
0.000222916
0.000154277
0.000201643
0.044282
0.0240502
0.0319546
0.000143022
0.000147427
0.000177801
0.000145411
0.0298062
0.000137233
0.00506889
0.000160519
0.0377705
0.00020046
0.000156067
0.0104087
0.00014036
0.000184633
0.00015067
0.000150115
0.0397524
0.000138153
0.000220839
0.000145453
0.000155474
0.000147788
0.000204575
0.000167408
0.000135865
0.000196911
0.000183599
0.00684522
0.0117937
0.04714
0.028079
0.000136761
0.0183711
0.000140034
0.0393567
0.00138988
0.000153022
0.000170963
0.00014606
0.000171499
0.000155299
0.000138242
0.000150678
0.000165199
0.00762613
0.000142892
0.000184219
0.000148405
0.00013574
0.000146602
0.000232561
0.0191037
0.00925752
0.00018889
0.000163975
0.000501333
0.0284247
0.000140394
0.0166652
0.000163473
0.000194165
0.000145407
0.00270752
0.000142958
0.000166308
0.000148275
0.00599857
0.000172721
0.0312632
0.000143554
0.000171479
0.000146095
0.000146824
0.0279228
0.000231291
0.000147013
0.000202643
0.000143432
0.000149022
0.000145751
0.030353
0.000142903
0.000167809
0.000137167
0.00014651
0.00021371
0.000144976
0.000200661
0.000149994
0.000139746
0.0389721
0.000184849
0.000149708
0.00903419
0.000218186
0.000323163
0.000207823
0.000140157
0.000163627
0.0272242
0.000231524
0.000167773
0.000157576
0.000167601
0.000149442
0.000145196
0.00042316
0.00018997
0.000159189
0.0281902
0.000173159
0.00904635
0.0146107
0.000215319
0.000172456
0.00020518
0.0239981
0.000144425
0.000189185
0.000421412
0.000139829
0.000144733
0.000146673
0.000175817
0.000153421
0.0186717
0.000169458
0.000142935
0.00019354
0.00014289
0.029943
0.000145464
0.000144531
0.04742
0.000186472
0.00336049
0.000149221
0.000146254
0.00014424
0.000150904
0.000163589
0.00014393
0.0192971
0.000167055
0.00579045
0.00362137
0.000189345
0.0474292
0.000152207
0.000150403
0.000146443
0.0315637
0.0251444
0.000161281
0.019619
0.00214842
0.000139763
0.000144135
0.000157294
0.0233699
0.00321432
0.000173062
0.000150757
0.000155784
0.000194941
0.000156712
0.000200499
0.000169736
0.000151568
0.000152236
0.000149946
0.000163439
0.00016199
0.0002345
0.000159342
0.000161802
0.0191206
0.000145748
0.00302898
0.000156815
0.000173019
0.000160128
0.000225878
0.000148819
0.000183228
0.0173433
0.00493987
0.000145664
0.000159355
0.000157511
0.000144206
0.000148013
0.000174968
0.000179627
0.000231908
0.000200965
0.000139902
0.000174818
0.000158749
0.000159706
0.000203285
0.000150442
0.000184641
0.00124717
0.000135871
0.000186385
0.000193294
0.000169418
0.00014314
0.000140915
0.000145162
0.0156562
0.000151635
0.000146194
0.000174069
0.00014426
0.000142102
0.000200919
6.0036e-05
0.000189549
0.011288
0.000185187
0.0275928
0.000147999
0.00016073
1.0322e-05
0.000153063
0.000102112
0.000147237
0.000144249
0.000149176
0.000160382
0.000193722
0.000143118
0.00096571
0.000149371
0.0015614
0.000156864
0.000161261
0.000139203
0.000190516
0.000160788
0.0262585
0.000192315
0.000149579
0.0284808
0.000152612
0.0249863
0.000154769
0.000219887
0.000155601
0.000142297
0.000145391
0.0410955
0.000163372
0.000240166
0.00803381
0.000144088
0.000169783
0.000131297
0.000174519
0.00324366
0.000131699
0.0257944
0.000155882
0.000223977
0.000197123
0.0104348
0.000137342
0.000144748
0.000198433
0.000140106
0.000148806
0.000154481
0.00014706
0.000174264
0.000137207
0.000228479
0.000151586
0.0176624
0.024704
0.000658489
0.0291485
0.0175614
0.0157888
0.0115316
0.000139268
0.000148525
0.000147319
0.000152713
0.000142192
0.00016358
0.00014376
0.000429381
0.000149098
0.00272682
0.000151292
0.000165705
0.000193371
0.000143476
0.000177121
0.000152627
0.000150746
0.00016042
0.000140646
0.0489826
0.00019156
0.000482269
0.00014376
0.000145054
0.000150111
0.000149789
0.0281406
0.000139469
0.000219418
0.000142691
0.00333699
0.000160283
0.000144062
0.000183975
0.000179312
0.000139598
0.00390185
0.0136295
0.000157293
0.000190284
0.000140027
0.000220059
0.00014233
0.000149797
0.023881
0.000146638
0.000151817
0.000193237
0.0223206
0.000148039
0.0147519
0.00149551
0.000146832
0.000154712
0.000147433
0.00748942
0.000144784
0.00019837
0.000148724
0.0452135
0.000160522
0.0300929
0.000145785
0.000136963
0.00361766
0.000157028
0.000144346
0.0426746
0.000154312
0.000140714
0.0141058
0.000146718
0.000148508
0.000189593
0.000154779
0.0308214
0.00017541
0.000187782
0.000205506
0.000155637
0.0438845
0.000152434
0.000187931
0.000144278
0.0284153
0.00343655
0.000149503
0.000142686
0.000148472
0.000150063
0.000141423
0.000141158
0.000143645
0.000145162
0.000164941
0.000135874
0.000153775
0.000188196
0.0265657
0.0276683
0.00019175
0.000150149
0.00364328
0.000143132
6.7017e-05
0.00260788
0.0068015
0.000137594
0.00013937
0.000146758
0.0001484
0.000137366
0.000140662
0.000143515
0.000173384
0.000140775
0.00990995
0.013894
0.00014142
0.0403637
0.000144407
0.000145375
0.000180333
0.0312445
0.000184732
0.000144555
0.00307418
0.00014493
0.000145421
0.00018273
0.000149011
0.00409036
0.000152132
0.00024309
0.00014147
0.000143455
0.000168299
0.00413755
0.000153988
0.0310955
0.000218639
0.000157273
0.000155658
0.000145139
0.000140671
0.000192377
0.000168644
0.000158827
0.0343031
0.0129121
0.00280971
0.000193435
0.000143236
0.0334606
0.000143086
0.0321736
0.000186344
0.000160423
0.000153416
0.0391535
0.0256438
0.00717434
0.000152293
0.00250563
0.000141526
0.000143774
0.000169605
0.00015127
0.000148485
6.91862e-05
0.0219058
0.000143476
0.000161353
0.0268222
0.000144942
0.000136607
0.00601776
0.0310769
0.000152292
0.000140659
0.000160855
0.000147265
0.000145035
0.000175262
0.000160356
0.000146969
0.00642767
0.000153291
0.000545497
0.00296551
0.000209273
0.028848
0.000149394
0.000151071
0.00113918
0.0220531
0.00323276
0.000167956
0.000170312
0.000150094
0.000152274
0.000148156
0.0267738
0.000173693
0.000151366
0.000181419
0.000143791
0.00483098
0.00019006
0.00019716
0.000182798
3.33664e-05
0.0032559
0.021451
0.0397309
0.000159438
0.000103555
0.000136807
0.000184528
0.000191746
0.00334408
0.000157757
0.000150132
0.000159569
0.00613357
0.000154677
0.0281317
0.000170772
0.000194567
0.0288686
0.000143983
0.000193872
0.00015568
0.000148726
0.000177744
0.000544528
0.000138019
0.000139429
0.000153529
0.0143621
0.000140782
0.000154386
0.000155209
0.000152399
0.000147684
0.000194321
0.000186178
0.000151385
0.000143374
0.000215277
0.000797244
0.000176174
0.0450309
0.000149651
0.000144653
0.0230302
0.000146211
0.000154999
0.0400087
0.0303836
0.00016979
0.000184417
0.000162145
0.0154894
0.000228578
0.000169888
0.013027
0.000144643
0.00019198
0.0272743
0.000213651
0.00374563
0.0216987
0.000140611
0.000148138
0.000166121
0.000147903
0.000148784
0.000235779
0.000146854
0.000177866
0.000137497
0.000181961
0.0283379
0.000154925
0.00731271
0.0144126
0.000144758
0.000188248
0.00016099
0.000153938
0.000144312
0.0329967
0.000188386
0.0238934
0.000163177
0.0289595
0.000193837
0.000146337
0.000238192
0.000170901
0.000145194
0.000144335
0.000121685
0.000144351
0.000160313
0.000174607
0.000159859
0.000150233
0.000182248
0.0269229
0.000142605
0.000229919
0.000242471
0.000148845
0.000142915
0.000163776
0.00640759
7.53865e-05
0.000141641
0.000164801
0.000203554
0.0123201
0.018391
0.000148072
0.000140726
0.000140572
0.000145164
0.000167458
0.000156857
0.00830174
0.000150247
0.000157006
0.00118809
0.000211828
0.000191518
0.0312112
0.0294276
0.000149341
0.00014585
0.000140326
0.000153416
0.000186294
0.0481068
0.000618123
0.000194923
0.000167504
0.000179894
0.000155077
0.000299717
0.000159814
0.000196321
0.000144
0.000221868
0.000316165
0.000140662
0.000148975
0.0367312
0.000180368
0.00105734
0.0267618
0.000203861
0.000144244
0.000168426
0.000160684
0.000142749
0.0202585
0.00639987
0.000144079
0.0001705
0.00019719
0.000170578
0.000151702
0.000137066
0.000143096
0.00014115
0.000144032
0.000165384
0.000181092
0.0236724
0.000171085
0.00015974
0.000166545
0.000192638
0.000143016
0.000171587
0.000180926
0.000224046
0.0254056
0.000153892
0.000136946
0.0298035
0.000141621
0.00307622
0.000153791
0.000177229
0.000150297
0.000142025
5.94032e-05
0.000160673
0.000153562
0.00014493
0.0426175
0.000102257
0.0281213
0.00014881
0.000148019
0.0224709
0.000143594
0.000141228
0.000202157
0.00459095
0.000162108
0.000169006
0.000151438
0.0135533
0.000142916
0.000157741
0.000150203
0.000136779
0.000221647
0.000142969
0.000140897
6.07833e-05
0.000182896
0.0380443
0.000219956
0.000142385
0.000165432
0.000142128
0.00014387
0.000155846
0.000152934
0.000148525
0.000208059
0.000147953
0.000189684
0.000176
0.000170318
0.00014751
0.000150285
0.000144875
0.0338055
0.000137788
0.00679296
0.000187061
0.000155671
0.000180792
0.000168846
0.000165789
0.000147677
0.000180361
0.000141343
0.000140662
0.00411962
0.000175632
0.000205344
0.000144841
0.000145331
0.000142057
0.000208988
0.00014373
0.0325655
0.000178483
0.000143897
0.000143213
0.000139102
0.00017835
0.000156167
0.0229284
0.000138606
0.00465816
0.000169237
0.000196381
0.000156081
0.0237467
0.000137463
0.000137476
0.000158684
0.000628069
0.000139382
0.0351531
0.000148452
0.000145529
0.000203275
0.000118173
0.0161358
0.000803535
0.000159731
0.000226626
0.00026176
0.000140874
0.0247841
0.000144475
0.000145472
0.0153983
0.000138326
0.0363505
0.000695086
0.000142466
0.000145399
0.000141126
0.0462829
0.000147166
0.000137063
0.000188782
0.000142455
0.00014179
0.000152932
0.000140942
0.00017703
0.000148818
0.000156798
0.000138916
0.00658616
4.30433e-05
0.000139083
0.000139165
0.000152067
0.000143104
0.000155932
0.000149241
0.000145017
0.000148975
0.00014471
0.000152914
0.000146981
0.000200965
0.000139095
0.00019081
0.000148549
0.000190753
0.000141307
0.000148353
0.000143868
0.000138019
0.000172949
0.000159988
0.000158122
0.0403732
0.000200917
0.0452449
0.0319375
0.000190268
0.0304544
0.000148375
0.000146641
0.00209299
0.0312997
0.000142531
0.0279378
0.000140015
0.000197169
0.00360441
0.000155704
0.000191692
0.0019869
0.0301051
0.000144791
0.000178023
0.000141624
0.00388411
0.000156778
0.0395675
0.0159219
0.000149173
0.000116093
0.000470976
0.000149247
0.00461343
0.00280756
0.000154959
0.00014074
0.000544168
0.030955
0.000140824
0.00016697
0.000150214
8.41125e-05
0.000205043
0.00014806
0.000141647
0.00401066
0.000143477
0.000144783
0.00015097
0.00013961
0.000956476
0.000164018
0.000163565
0.0349793
0.000144054
0.000188748
0.000148548
0.000498908
0.000183239
0.00407141
0.000140984
0.000162253
0.000142746
0.000147192
0.000155481
0.000147337
0.00827519
0.000153433
0.000140066
0.000142678
0.00331975
0.000140632
0.00471223
0.0189334
0.00767186
0.000147519
0.00014231
0.000143075
0.014553
0.00014975
0.0182328
0.000145375
0.00050558
0.000154601
0.000150797
8.44844e-05
0.000148537
0.000148502
0.0296607
0.000197496
0.0348442
0.000147515
0.0367816
0.00533585
0.000148125
0.0308497
0.000149124
0.000158776
0.0275607
0.00015541
0.000181025
0.0235281
0.000167296
0.000187111
0.00014719
0.00991941
0.00014472
0.0042231
0.000143011
0.0218103
0.000144904
0.000145557
0.000154609
0.00223941
0.00014265
0.000259315
0.000185533
0.00744114
0.000143694
0.000166126
0.0418784
0.000338807
0.00241477
0.0001911
0.000141305
0.000198949
0.000338976
0.000156861
0.00126534
0.00013725
0.000205341
0.0172106
0.00014311
0.018588
0.000143235
0.0332444
0.000757209
0.000156474
0.000156806
0.00394042
0.00327358
0.000144694
0.000153542
0.000139812
0.000148266
0.0256728
0.00018671
8.22178e-05
0.000148082
0.000162604
0.0371474
0.000207612
0.0145604
0.00562355
0.000142095
0.000144144
0.000209076
0.0280671
0.0188618
0.00160199
0.000210226
0.000174928
0.000207864
0.0393528
0.0280553
0.00312693
0.000140743
0.000191681
0.000177724
0.000188786
0.000146437
0.00015962
0.000184656
0.000223838
0.00527116
0.000147534
0.000598951
0.0339325
0.000181131
0.00014441
0.000144522
0.000186543
0.000142766
0.0469147
0.000163536
0.0001478
0.000233166
0.000303291
0.000138979
0.000171349
0.000164854
0.000146734
0.0451064
0.000184662
0.048137
0.000143161
0.0323432
0.000109437
0.000210462
0.000138067
0.000161452
0.00016821
0.000251465
0.000201074
0.000186582
0.0260808
0.000140266
0.000132291
0.000160113
0.00014903
0.000201117
0.0175222
0.000141632
0.000138772
0.000153504
0.000160146
0.000262697
0.000143531
0.000180459
0.000235605
0.000140667
0.000254073
0.000156917
0.0474298
0.000161486
0.00388783
0.0196787
0.000163289
0.000157943
0.0011514
0.000142877
0.000183869
0.0261614
0.000167217
0.000196927
0.000166089
0.000182861
0.0263294
0.0355044
0.000146969
0.0161636
0.000172249
0.000138366
0.000198721
0.000187455
0.000199779
0.00590638
0.000747799
0.00319576
0.000199014
0.0264896
0.000162012
0.000185184
0.0001403
0.000149024
0.000147472
0.000141129
9.42131e-05
0.000224732
0.000138006
0.000187809
0.000203967
0.000142692
0.00472289
0.0307751
0.00013704
0.000149464
0.000141165
0.000152925
0.00017655
0.00014471
0.0273448
0.00016464
0.000188955
0.000160081
0.000187804
0.000207318
0.000169476
0.00160485
0.000146774
0.000153349
0.00013773
0.000142658
0.0411304
0.000192709
0.000165438
0.0319533
0.000148431
0.000151015
0.000170004
0.00014034
0.000143631
0.000188385
0.000159114
0.0267418
0.038965
0.0357789
0.000147241
0.0448055
0.000143697
0.000136939
0.000138808
0.000201678
0.0371856
0.000145305
0.000159039
0.0265508
0.00016996
0.000152743
0.000142594
0.00016357
0.020533
0.00013938
0.000149448
0.000153049
0.000160559
0.00020809
0.000155524
0.000159728
0.000141887
0.000152224
0.00112189
0.000169755
0.000156699
0.000201022
0.000233909
0.0399768
0.0180658
0.000158989
0.000152572
0.0262757
0.000146805
0.000186554
0.000147845
0.0263713
0.000149874
0.000149679
0.0001806
0.0272033
0.000144081
0.000140986
0.000137284
0.000201656
0.0116855
0.000201803
0.000144666
0.000156014
0.000140838
0.0346279
0.000144737
0.00570634
0.000182385
0.00014844
0.000210803
0.000171278
0.00053922
0.000150407
0.000141164
0.000166143
0.000180359
0.000202077
0.000149045
0.000150548
0.00014923
0.0331421
0.000146452
0.00015258
0.0342744
0.000154681
0.000175637
0.000157581
0.000144139
0.000144898
0.00192642
0.000154635
0.00390295
0.00371192
0.000134775
0.00106475
0.000150268
0.000198361
0.000179817
0.000153765
0.00013833
0.000134543
0.000144621
0.0202166
0.000178203
0.0334431
0.0286189
0.000141566
0.000181956
0.0001745
0.00264231
0.000144971
0.00172859
0.0366318
0.0215038
0.000143878
0.000154033
0.000150772
0.0103799
0.0404515
0.000146846
0.000145285
0.000165741
0.0265093
0.000148576
0.000154221
0.000154164
0.000196623
0.000233356
0.000137573
0.0283717
0.000163491
0.000144293
0.0142456
0.000182387
0.00193089
0.0195315
0.000169398
0.000159272
0.000153538
0.000162279
0.000151312
0.000212889
0.000181267
0.000145037
0.000157223
0.000200811
0.0383448
0.000139208
0.000199362
0.0453031
0.0057151
0.00014569
0.000147466
0.00366339
0.0121794
0.000193659
0.000144338
0.0405705
0.000185309
0.000135598
0.0233405
0.000162734
0.000149275
0.000122296
0.000147054
0.000223936
0.000141974
0.000133372
0.000147887
0.000137256
0.0285449
0.000137744
0.000142465
0.000190593
0.000157872
0.000157587
0.000200915
0.000147802
0.000144742
0.000154146
0.000152641
0.00448879
0.00485968
0.00030215
0.0174509
0.000170248
0.00251685
0.000214676
0.0316794
0.0442383
0.028345
0.000141255
0.000167385
0.000145169
0.000148154
0.000143136
0.000149606
0.000206963
0.000182997
0.000175898
0.000142463
0.000144172
0.000181439
0.000149411
0.000150312
0.000147919
0.0368619
0.000167227
0.0142624
0.000147003
0.00412806
0.000150849
0.000149234
0.000151414
0.000175448
0.000142428
0.000193381
0.0318451
0.000177145
0.0286669
0.000996299
0.000155124
0.000162494
0.00369433
0.000200324
0.000138876
0.000142769
0.000134779
0.0290584
0.000133346
0.000208829
0.000188758
0.000191206
0.00199158
0.00847872
0.00018572
0.0462574
0.000140953
0.00013709
0.00344359
0.0150127
0.00014609
0.000147161
0.018273
0.000140842
0.000226812
0.000156016
0.000144434
0.000159909
0.000146621
0.000189348
0.0309016
0.0281068
0.000157883
0.000146023
0.000189142
0.000153025
0.000190762
0.000140943
0.000200271
0.00019184
0.000150276
0.00014894
0.000135239
0.000202866
0.000207133
0.000209574
0.00133858
0.000165618
0.0182061
0.000188287
0.000195739
0.0303523
0.000143888
0.0291637
0.000152222
0.0365987
5.72353e-05
0.0282645
0.0278633
0.000149622
0.000182564
0.00294881
0.000147151
0.0232774
0.000147468
0.000146806
0.000159605
0.000151072
0.000165713
0.000163737
0.00348206
0.0289026
0.000159937
0.00017614
0.000153112
0.000148974
0.000148234
0.000204847
0.00019173
0.0346302
0.000177754
0.000138307
0.000139848
0.000150963
0.000228767
0.000157131
0.000152344
0.000158899
0.000196123
0.000166584
0.000180778
0.000175159
0.0304927
0.000165094
0.000167901
0.000144985
0.000159716
0.000142212
0.000551108
0.000181536
0.000140337
0.0164286
0.000168428
0.000143988
0.000179878
0.0345417
0.00318341
0.000170516
0.000140951
0.0282627
0.000150584
0.000140735
0.000138599
0.0198849
0.00159407
0.000155049
0.006243
0.0213126
0.000167979
0.000174631
0.000185019
0.0480342
0.000166612
0.0394707
0.000150716
0.000217572
0.000165634
0.0407312
0.000168813
0.000141922
0.0378733
0.00014648
0.000152328
0.011448
0.0169598
0.000236444
0.00016386
0.000156825
0.000153135
0.00686189
0.000143928
0.000142579
0.000146858
0.000178132
0.000144788
0.0001673
0.000167736
0.00083321
0.00525384
0.000151348
0.0237644
0.00016668
0.0355524
0.0291831
0.000146735
0.00014918
0.000158834
0.000129591
0.000206424
0.000187762
0.0338381
0.0285508
0.000177586
0.000150623
0.0129353
0.0243016
0.000204262
0.00144422
0.000148586
0.000146311
0.000146774
0.000152653
0.000143344
0.000168229
0.0285831
0.000165242
0.00333579
0.0200927
0.00953286
0.0354564
0.0402916
0.000163525
0.0432583
0.000198667
0.0001885
0.000138634
0.000147514
0.000187064
0.0253871
0.000152113
0.0239972
0.0390933
0.000141879
0.000147756
0.000146914
0.00019094
0.000150999
0.000189776
0.0296195
0.000138988
0.000143878
0.000141484
0.000151878
0.000193875
0.0307057
0.000174147
0.0182218
0.000199872
0.000142823
0.00417816
0.00020398
0.000147988
0.000386144
0.003458
0.0335851
0.00538059
0.0273777
0.000146682
0.010416
0.0323417
0.000210258
0.0190731
0.000143028
0.000155083
0.000156591
0.000154712
0.0274184
0.000187582
0.000149024
0.00016216
0.00422837
0.0322117
0.000150049
0.000151149
0.0467368
0.0396327
0.000148825
0.00016384
0.000199053
0.000143621
0.00014421
0.0367345
0.000142644
0.000233257
0.00417567
0.0302935
0.000142212
0.000188968
0.00020353
0.000143651
0.000136525
0.0386189
0.0169662
0.00014936
0.000169379
0.000208974
0.000217711
0.0433506
0.00391908
0.000160015
0.00395357
0.00315022
0.000170318
0.000141881
0.000240788
0.000136859
0.000137523
0.0264276
0.000174069
0.000196137
0.000157107
0.000158212
0.000142756
0.000137834
0.000151147
0.00015202
0.0128184
0.000156639
0.00072392
0.0195198
0.000177144
0.000188837
0.021934
0.0382363
0.0150635
0.000141964
0.000157906
0.000170901
0.000159569
0.000223809
0.0041503
0.000151019
0.000999791
0.0313401
0.000161641
0.00019276
0.000189975
0.000194516
0.000196253
0.000153322
0.000198296
0.000199769
0.000201473
0.000203569
0.000196529
0.000192237
0.000164142
0.000141802
0.000168288
0.000192779
0.000142497
2.86724e-05
0.0453133
0.000232561
0.0367185
0.000136042
0.000140394
0.00029996
0.0180354
0.000151707
0.000156521
0.000184588
0.0385327
0.0185908
0.000147397
0.000168304
0.000158771
0.0115978
0.00384979
0.000156316
8.59609e-05
0.0322651
0.000195626
0.0389387
0.00019636
0.00133302
0.0443917
0.000131068
0.0432235
0.0353408
0.000152854
0.000188572
0.000197243
0.000158974
0.000141943
9.45947e-05
0.0145697
0.000142107
0.000142443
0.0293754
0.000774032
0.000191563
0.00014942
0.000197666
0.00020316
0.0389708
0.0288009
0.000147421
0.00014395
0.000151503
0.000156446
0.0367923
0.0188981
0.031238
0.00019121
6.62884e-05
0.0029749
0.000156666
0.000141569
0.032115
0.000142657
0.0411702
0.000143751
0.0398735
0.00015264
0.000152261
0.0107407
0.000146061
0.000197432
0.00552516
0.000166211
0.000155353
0.000153076
0.00020565
0.0270936
0.000210277
0.0373067
0.000162564
0.000153919
0.000162364
0.000190415
0.0466986
0.0323516
0.000196793
0.000220182
0.0001994
0.0113263
0.000143478
0.000142387
0.000139156
0.000138652
0.000100419
0.000216631
0.00455933
0.000176551
0.000202562
0.00014353
0.00313793
0.000294543
0.0109145
0.000144552
0.000153632
0.000133583
0.0345914
0.000162124
0.00277242
0.000139944
0.000199053
9.58882e-05
0.000135005
0.000171964
0.000208663
8.28093e-05
0.000523731
0.00014614
0.000200643
0.000150716
0.000148979
0.000195516
0.0171757
0.00297536
0.000149675
0.000193117
0.000178968
0.0388588
0.0203646
0.0351239
0.0318345
0.000143367
0.000185622
0.00014773
0.000201294
0.000144472
0.000200706
0.000154608
0.000180409
0.00341475
0.0049194
0.000158975
0.000201544
0.0354763
0.000196928
0.000155239
0.0114979
0.00019526
0.000151082
0.00015038
0.0288912
0.000164086
0.000204598
7.5466e-05
0.00240329
0.0218603
0.000155803
0.0238222
0.0315818
0.0204426
9.09134e-05
0.000167104
0.00019687
0.00019503
0.0326957
0.000225772
0.000151212
0.00171157
0.00019161
7.83983e-05
0.000163484
0.0271294
0.000143316
0.00462833
0.000159761
0.0155874
0.000157229
0.0280787
0.00020953
0.00489801
0.0165862
0.000140686
0.000133574
0.0309493
0.0420208
0.000216619
0.000150862
0.000177508
0.000164218
0.02178
0.000237466
0.0351752
0.00016066
0.0348083
0.000203567
0.0188545
0.000151007
0.00018229
0.0293058
0.00016063
0.000190793
0.000135581
0.000157056
0.000147963
0.00361261
0.000143778
0.000147411
0.0434745
0.0136734
0.000138505
0.044692
0.000152054
0.000147487
0.000143933
0.000142421
0.0001491
0.000588785
0.0439665
0.000139353
0.000180583
0.000187074
0.000178814
0.00203086
0.000191736
0.000159769
0.000166838
0.000143107
0.00345237
0.000167043
0.0455432
0.000168933
0.0227023
0.00108613
0.000189439
0.00502495
0.0343446
0.000139563
0.0255513
0.000183687
0.000187079
0.000193687
0.000144275
0.000196028
0.000208436
0.000147393
0.000210463
0.000143964
0.0318216
0.000201439
0.021907
0.000204884
0.000204045
0.042505
0.000148145
0.000144474
0.000185202
0.000154132
0.000149115
0.000149325
0.000162723
0.000143214
0.000142698
0.000153307
0.000178567
0.000154944
0.000163072
0.000156213
0.000174113
0.000194338
0.000155824
0.0347058
0.000155093
0.000143519
0.00019341
0.000175235
0.00015727
0.000143261
0.000183484
0.000154553
0.0306876
0.00015514
0.000200731
0.000143592
0.000146782
0.000203629
0.0462025
0.000188097
0.000173044
0.000135459
0.039365
0.000148224
0.000142457
0.000189852
0.000156221
0.000205719
0.0356
0.000195588
0.000251424
0.000176765
0.0218641
0.000147615
0.000148413
0.000186218
0.00426083
0.000184192
0.000197814
0.0285958
0.000163285
0.000147835
0.000162756
0.000206483
0.000182608
0.000147643
0.00019518
0.000193567
0.000187243
0.000148962
0.000147604
0.000224036
0.000186889
0.0049626
0.00250742
0.000155671
0.00018892
0.000148903
0.000176722
0.00546813
0.000149182
0.000209667
0.000505259
0.000193499
0.0167277
0.000146834
0.000146567
0.000142868
0.0422801
0.000219012
0.000155706
0.000201763
0.000196903
0.000148676
0.000146988
0.000178981
0.0438119
0.000229575
0.0341307
0.000227261
0.000165482
0.000175999
0.000198544
0.000165408
0.000301868
0.000191854
0.000376376
0.000147169
0.000193701
0.000200272
0.000152386
8.90941e-05
0.000174779
0.00021
0.000162514
0.000201789
0.000143227