/*--------------------------------*- C++ -*----------------------------------*\
| =========                 |                                                 |
| \\      /  F ield         | OpenFOAM: The Open Source CFD Toolbox           |
|  \\    /   O peration     | Version:  v2012                                 |
|   \\  /    A nd           | Website:  www.openfoam.com                      |
|    \\/     M anipulation  |                                                 |
\*---------------------------------------------------------------------------*/
FoamFile
{
    version     2.0;
    format      ascii;
    class       surfaceScalarField;
    location    "400";
    object      meshPhi;
}
// * * * * * * * * * * * * * * * * * * * * * * * * * * * * * * * * * * * * * //

dimensions      [0 3 -1 0 0 0 0];
oriented        oriented;


internalField   nonuniform List<scalar> 
20580
(
0.000182124
-0.000203707
2.15661e-05
0.000451887
-0.000199991
-0.000252546
1.66408e-05
0.00043428
-0.000100356
0.000131575
-3.12184e-05
-3.66984e-05
-2.74617e-05
4.13717e-05
-2.62165e-05
-0.000379021
0.000404607
0.000284663
-0.000445436
-7.20046e-05
-4.25218e-05
7.50482e-05
5.03651e-05
6.18589e-05
-0.000112224
0.0001169
-0.000649008
0.00053062
-0.000173646
0.000297127
-0.000123548
8.69557e-05
0.000355462
-0.000448523
-0.000520731
9.72346e-05
0.000422829
3.87942e-05
-9.95329e-05
6.07386e-05
0.000182008
-0.000341365
0.000159167
0.000163381
2.91334e-05
-0.000192529
0.00012687
-9.57238e-05
-3.11458e-05
0.000609882
-0.000187971
-0.000425611
0.000106997
6.97339e-05
-0.000176737
-5.5534e-05
0.000237639
-0.000375469
0.000145456
0.000229833
-0.000151131
-0.000274605
0.00042521
0.00013119
-6.29816e-05
-6.82091e-05
-2.55331e-05
-9.56395e-07
2.19368e-05
0.000156499
-3.69004e-06
-0.000152812
0.000292877
-0.000178674
-0.000114261
0.000189547
-0.000126138
-6.34134e-05
5.92226e-05
9.58712e-05
-0.000155097
0.000136912
-7.46566e-05
-6.22552e-05
-0.000126441
-0.000448669
0.000564501
1.78685e-05
-0.000118051
0.000100183
-0.000200642
0.000484273
-0.000186101
-3.65939e-05
0.000222676
-5.76366e-05
-7.64915e-05
0.000134128
0.000208732
6.83552e-05
-0.000277188
-0.000131686
0.000156072
-2.43867e-05
-4.04992e-09
-2.75449e-05
0.000175496
-0.000103926
-7.15722e-05
-0.000104638
-2.98377e-05
0.000134475
-0.000613188
0.000488983
0.000122085
-0.000110909
0.000140067
-2.91576e-05
6.16118e-05
7.52994e-05
6.7032e-05
3.76202e-05
0.000201901
-0.000163026
-3.88808e-05
9.72243e-05
2.8581e-05
-0.000125806
-0.000121097
-0.00045163
0.000567402
-9.00968e-05
0.000168764
6.40647e-05
-0.000165226
0.000101148
-0.00059627
0.000261464
0.000333633
-2.55405e-05
-0.000495572
7.69174e-05
2.77347e-05
-0.000104652
-0.000618048
0.000180057
0.000437344
-5.01659e-05
0.000213532
0.000390856
-0.000298077
-9.30932e-05
-7.95865e-05
0.000129489
-4.99027e-05
-0.000433277
-0.000181469
-0.000199572
1.34544e-05
-7.34357e-06
-0.000103566
0.000196144
-0.000106027
-9.01224e-05
-0.000112777
-8.35965e-06
0.000121137
-0.000355247
0.000435623
0.00013232
5.72213e-05
-0.000576811
0.00059483
-1.90541e-05
-0.000252743
-0.000344456
-0.000196097
8.80388e-05
0.000108052
-0.000122452
-7.36501e-05
-1.4316e-05
-9.84615e-05
-3.27636e-05
0.000177525
-0.000212323
-0.000359475
0.000569405
0.000125856
-0.000107333
-1.8523e-05
7.26249e-05
-0.000108622
3.59973e-05
0.000172798
0.000109919
-0.000282828
0.000618154
-0.000413781
-0.000206093
9.8568e-05
-0.000106928
-0.000168424
0.000366005
-0.000197851
-0.000211094
-0.00024524
0.0004556
2.82156e-05
9.86539e-05
0.000660983
-0.000113123
-0.000566972
-2.51927e-05
0.000181688
-0.000114072
0.000625663
-0.000517577
0.000315111
-0.00052972
0.000175969
4.03068e-06
-0.000180007
0.000369427
-0.000160826
-9.61993e-05
-2.55705e-05
0.00012177
-1.9888e-05
0.000118456
-8.2523e-05
-6.1109e-05
0.000143632
-0.000406703
0.000255107
2.99591e-05
-0.000103091
7.31318e-05
-0.000562551
0.000548423
1.19824e-05
9.97837e-05
-8.19154e-05
-9.14263e-05
-0.000526942
0.000224075
-0.000425644
5.91672e-05
4.5485e-05
3.41297e-05
-0.000116653
0.000138774
-2.62368e-05
-0.000112537
-0.000131537
0.000183372
-5.18412e-05
0.000825331
-0.000338065
-0.000491957
-0.000122157
-0.000105267
0.000227408
6.39564e-05
4.18417e-05
-0.000105798
0.000229657
-0.00012001
-0.000109661
6.77239e-05
-0.000189895
9.81729e-05
-0.000269599
0.000171407
0.000256128
-3.6993e-05
-0.000219168
-0.000553091
0.000625923
-7.39654e-05
0.000218771
-0.000558898
0.000334906
0.000326289
-4.57018e-05
-0.000280695
0.000625843
-0.000413049
-2.83824e-05
0.000101007
0.000437595
-0.000214508
0.000146922
0.000459019
0.000405202
-0.000150271
-0.000255164
0.000507949
-0.00063485
0.000179636
4.0476e-06
-0.000183696
-0.000270917
0.000185611
8.5251e-05
0.00013318
7.09418e-05
-0.00020414
0.000266544
0.000123929
0.000616655
-0.000262455
-0.000367475
5.64369e-05
-0.000169246
-9.02194e-05
-1.01371e-05
2.74643e-05
9.83914e-05
0.000205174
-4.03245e-05
-0.00016486
-0.000667431
5.71652e-05
0.000603063
0.000345124
0.000115358
-0.000462246
-9.89574e-05
0.000130204
-3.12463e-05
0.000200297
-2.40288e-05
-0.000176276
-0.000186068
1.34784e-05
0.000172587
0.000239211
0.000581069
-0.000279154
0.000197506
8.15805e-05
7.27251e-05
-0.00013254
5.98146e-05
0.000304133
-0.000283337
-2.0907e-05
0.000150387
-0.000425469
-0.000385653
-3.15914e-05
0.000416961
8.79465e-05
8.75465e-05
8.03914e-05
-0.000138028
-0.000253704
8.00024e-05
0.000133551
-6.25504e-05
-7.10007e-05
0.000189862
4.18317e-05
-0.000102941
0.000325118
-0.000129665
-0.000195494
-0.00020599
0.000353473
-0.000147612
-3.61574e-05
0.000212118
-0.000100464
-0.000364661
0.000464483
-0.000620072
5.59007e-05
2.06219e-05
-0.000159496
0.000138867
0.000183468
-9.86129e-05
-8.48574e-05
0.000509825
-0.000274923
-0.000235656
5.64753e-05
0.000584828
-8.39219e-05
4.24716e-05
6.70161e-05
-0.000109488
-0.000228032
-5.11691e-05
0.000175888
-0.000108175
-5.58903e-05
0.00023551
-0.000181141
-8.9824e-05
-9.36166e-05
-0.000104574
0.000198182
-0.000414389
0.00058908
-0.000175244
0.000631745
-0.000540743
-9.16492e-05
0.000460343
-0.000488599
1.98455e-05
-2.35019e-06
-0.000102288
1.49673e-05
-0.000203799
0.000188732
0.000517346
-0.000275353
-0.000242925
-5.80799e-05
5.31175e-05
-1.24101e-06
-0.000102447
-3.84681e-05
0.000140915
3.69898e-06
0.000322472
0.00020771
-0.000143662
0.000106947
-6.81523e-05
9.87029e-05
-0.000118815
2.01118e-05
-4.60016e-05
0.000144704
-4.29e-05
0.000119817
0.000265769
0.000139174
7.64666e-05
6.1683e-05
-0.000138151
-4.83265e-05
-0.000365868
0.000407721
0.00011721
0.000481435
-0.000120904
-0.000162867
0.000283697
2.89806e-05
-7.02331e-05
2.37849e-05
1.28449e-05
0.000125929
-0.000137067
0.000189222
-5.21607e-05
0.000162447
2.44075e-05
-0.000186867
0.000559356
-0.000458158
-0.000219377
-0.000150603
0.000369715
-5.41639e-05
0.000216597
-6.64351e-06
0.000206932
7.03585e-05
-0.000379306
0.000136063
0.000242976
-7.69822e-05
0.000380958
3.56112e-05
6.90409e-05
9.79568e-05
-5.54853e-05
0.000156257
-0.000192867
0.000388281
-0.000333005
-5.53448e-05
0.000375434
-0.000605219
0.000229146
0.000734236
-0.000584933
-0.000157519
0.000103982
7.94829e-05
-0.000276355
0.000291176
-8.07205e-06
-9.14609e-05
0.000371309
-0.000398138
0.000203147
0.00030587
-8.29086e-05
-0.000142709
0.000225601
-2.11829e-06
0.000158361
0.000488792
-0.0006012
0.000109453
-0.000630114
9.99827e-05
0.000527297
-0.000253486
0.000121878
0.000131601
-0.000131979
-6.62009e-05
0.000198172
-0.000139631
4.93333e-05
9.02977e-05
-8.4661e-05
-5.48126e-05
0.000139473
0.000343754
-0.000161951
0.000119602
-0.000105572
-1.40301e-05
-0.00011214
-2.74914e-05
0.00025949
0.00018253
-0.000442098
-0.000288361
-3.3027e-05
0.000321275
-5.50406e-05
0.000125774
-7.0734e-05
0.000344586
-0.000434563
8.94456e-05
0.000191488
-1.41474e-06
-0.000190088
-0.000137453
0.000480892
-0.000168144
-5.57701e-06
0.000192051
-0.000188923
0.000294927
-1.10709e-05
-0.000283962
0.000110506
0.000290221
-0.000401268
-0.000544757
0.000518805
0.000192665
-9.72768e-05
-9.53953e-05
-0.000601484
0.000596488
2.11969e-06
3.05474e-05
6.81342e-05
0.000477427
6.45368e-05
-0.000140683
-8.51413e-05
0.000225806
1.74524e-05
-0.000113652
-9.03655e-05
-4.87874e-05
0.000139153
-0.000364062
0.000113193
0.000250788
3.42858e-06
-0.000291895
-6.85718e-06
8.91785e-05
-8.55128e-05
0.000179042
-0.000158428
-0.000616877
6.53635e-05
0.000545361
0.000363152
0.00014191
-0.000112498
-2.94123e-05
0.000279243
0.000108936
0.000454635
-0.000110745
2.54198e-05
0.000511534
-0.000117812
3.31503e-05
-0.000654725
0.000516577
7.03432e-05
6.08461e-05
-5.85087e-05
-6.87611e-05
0.00012727
0.000109658
0.000119981
-5.89721e-05
-2.41685e-06
0.000163615
5.95966e-06
-0.000169578
-9.65234e-05
-1.42958e-05
0.000110819
0.000148474
-5.12501e-05
0.000220606
-0.000306055
-0.000108709
0.000414499
0.000136031
1.63955e-05
-0.000152431
9.29506e-05
9.97057e-05
-0.000364978
0.000145345
5.41279e-05
0.000129238
-0.000189861
-0.000180662
0.000370318
0.000127884
-4.21905e-05
-8.56935e-05
-0.000210169
-2.78907e-05
0.000238041
0.000113185
-4.89017e-05
-0.000104854
-0.00045031
0.000365768
8.39417e-05
-0.000188189
1.66993e-05
-0.000119147
-0.000106755
0.000129701
-2.29464e-05
0.000263852
0.000462197
4.05657e-06
-0.00054872
0.000544782
2.41847e-06
-0.000104164
-9.13924e-05
0.000195546
-0.000155777
-6.07041e-05
0.000216472
-0.000264831
-0.000185866
0.000286683
-0.000283088
-9.26892e-06
-0.000200917
-0.00072445
0.000193866
0.000528235
0.000235848
-0.000137689
3.25646e-05
-0.000190994
0.000158409
-0.000116051
-7.17185e-05
0.000187766
-0.000150383
0.000600879
-0.000454374
-1.66895e-05
-0.000528356
-8.48874e-05
-0.00012269
-1.69285e-05
0.000139618
0.000100939
-0.000116005
1.50654e-05
-0.000198766
0.000303369
-0.000104706
-0.000200292
-0.000473121
0.00016664
-0.000173291
-9.04696e-05
-0.000104276
0.000194737
-0.000155388
-9.14375e-05
0.000246802
-4.68281e-05
0.000333393
-7.50349e-09
-0.000122683
7.20018e-05
3.26504e-05
-0.000104652
0.000399594
-2.70028e-05
-0.000372987
0.000376509
-0.000317016
-5.96854e-05
8.87892e-05
5.15839e-05
-0.000140375
0.000799484
-0.000538827
-0.000266476
-0.000443992
0.000426116
9.82423e-06
2.77248e-05
-0.000183129
-0.000298729
0.000153705
0.000144953
4.36227e-05
-0.000577446
0.000524174
0.000149946
-0.000198259
4.33563e-05
-0.000179772
-0.000442377
-4.52679e-05
-3.92867e-05
5.57341e-05
0.000405219
-0.000280543
-0.000124938
7.97438e-06
-6.39123e-05
0.000114277
-0.000260265
-0.000115333
0.000635217
-0.000155147
-0.000482524
-0.000114987
-1.3825e-05
-8.51324e-05
-0.000584164
0.000411663
0.000171798
-0.000196233
8.78559e-05
-0.000104652
1.67963e-05
-0.000449875
0.000348849
-0.000483896
-0.000100671
-4.80547e-05
-0.000212339
-9.66167e-05
-2.41988e-05
0.000120815
0.000112523
-0.000130548
1.80249e-05
7.4776e-05
-0.000250665
0.000175829
3.60154e-05
-9.62383e-05
-7.29345e-05
0.0001494
-0.000409575
0.000136772
0.00011444
-0.000251261
-2.47988e-05
0.000112655
-0.000141408
-4.01998e-05
0.000181605
0.000135056
0.000380976
-3.93448e-05
0.000128132
-0.00019789
0.000107582
9.03042e-05
-0.000132958
5.19164e-06
0.000127766
-0.000125079
0.000215413
-9.03494e-05
0.000281652
-0.000114911
-0.000166751
4.84213e-05
8.51294e-05
-7.53872e-05
0.000150859
-7.54722e-05
0.000151853
-9.26335e-05
-0.000208254
-0.000424316
-0.000116807
3.89351e-05
7.78716e-05
5.38874e-05
5.07648e-05
0.000131337
-0.000128915
-2.422e-06
2.95544e-06
0.00012838
-4.25359e-05
0.000302012
-0.000126584
0.000278515
-0.000151994
-0.000398357
0.000150082
0.000248095
9.25246e-05
-6.25655e-05
0.00028817
-0.000126634
-0.00016155
0.00019215
-0.000193674
-2.96288e-05
-0.000268324
0.000134629
0.000439342
-0.000105683
-0.000334035
-0.000110924
-2.2034e-05
0.000108033
0.000139673
0.000652914
-0.000116603
-0.000387251
0.00027744
0.000109651
-7.57336e-05
-0.000310149
-0.000346425
7.02188e-05
3.49082e-07
-9.69658e-05
-4.60771e-05
0.000212708
-0.000192888
0.000500705
-0.000390896
0.000368139
8.5793e-05
7.72775e-05
4.22255e-05
-0.000119503
-0.000178144
0.000552983
-0.000184094
0.000421065
-2.19744e-05
0.000201755
-0.000249933
-9.4772e-05
-0.000292629
-1.90677e-06
3.00747e-05
0.000602158
0.000210008
-1.30079e-05
-0.000197017
-0.000201863
8.1839e-05
-0.000168125
-4.49583e-05
0.000213067
-0.000109947
-6.3839e-05
0.000141116
8.86279e-05
-0.000364066
-0.000113322
4.50309e-05
0.000136517
-0.000181556
-0.00063666
1.4499e-05
0.000612147
1.40309e-05
-0.000155442
0.000246843
-1.92238e-05
-0.00022765
-6.33399e-05
0.000127296
0.000271826
0.000167046
6.65052e-05
-0.000242875
8.80947e-05
0.000108044
8.02419e-05
7.84545e-05
-0.000158699
-0.000187238
-4.57746e-05
0.000232994
-5.51691e-05
-5.91108e-05
0.00011428
0.000261947
0.000161124
-0.000424274
-0.000143216
6.14553e-06
0.000122857
-5.58251e-05
-0.000405448
0.000160898
0.000244236
5.88667e-05
6.90173e-05
0.000383159
-0.000270504
-0.000112903
2.8662e-05
-0.000122058
9.33953e-05
0.000285666
9.05821e-05
0.000319862
-0.000165442
-0.000192137
-4.14435e-05
0.000233562
0.000218143
-6.3698e-05
-0.000154453
0.000184705
0.000446439
-2.27548e-05
-0.000372654
0.000394834
-0.000180258
-0.000118527
-0.00031926
0.000496739
-0.000544882
4.42566e-05
-0.00025495
5.60918e-05
0.000140804
-0.000137396
-3.40871e-06
0.000315412
0.000301512
-0.00034147
0.000308327
-9.5996e-05
-1.71272e-05
0.000113123
-0.000474345
6.78618e-05
0.000405559
-0.000172976
0.00010702
6.59531e-05
0.000246478
2.43486e-05
-0.000270936
0.000145701
-3.31793e-05
-0.000335019
-0.000100063
0.000156026
0.00013678
-3.93736e-05
0.000158974
-0.000179813
-0.000239245
-9.5436e-05
0.000334565
1.26282e-07
-0.000106881
-0.000116411
-7.62603e-06
0.000171237
-0.000308746
-0.000418082
-9.17759e-06
0.000219169
0.000365721
-4.63522e-05
-0.00031959
-0.000195456
0.000261908
-7.44028e-05
0.000583698
-0.000515285
5.23261e-05
5.23261e-05
0.00014765
-6.87918e-05
-7.8859e-05
0.000143089
5.8595e-06
-0.000148951
0.000436751
-6.93037e-05
-0.000201422
-0.000136325
-5.66045e-05
0.000192924
-1.63411e-05
0.00011728
-0.000184687
0.000598703
-0.000428502
-3.64364e-05
-8.03704e-05
-0.000137758
-7.01517e-05
0.0002079
8.10985e-05
-0.000128194
4.7095e-05
0.000105317
-0.000295345
0.000188036
-0.000134475
-5.35642e-05
0.000596204
-0.000412446
-0.000184967
-1.90254e-05
3.1067e-05
-0.000104652
2.50656e-05
-8.84024e-05
0.000168859
-8.04613e-05
0.000558288
-0.000442688
0.000113755
-0.000314305
-6.1508e-05
-0.000280066
0.00058266
-0.000165786
-0.000433044
6.74672e-05
8.01818e-05
-0.000250042
0.0001234
-5.03549e-06
0.000251845
0.000304691
9.49412e-05
-0.000400241
0.000475584
-0.000215124
-0.000352923
-0.000195623
0.000548569
-8.99862e-05
0.000170225
-0.000723229
0.000565123
-0.000557199
0.0002044
-0.000170696
6.34466e-05
0.000107247
-8.65186e-06
0.000149455
-0.000266854
0.000416788
-0.00018791
7.89846e-05
0.000108919
-0.000534447
-4.21993e-05
-1.11922e-05
0.000428457
-0.000124329
-0.000350884
-0.000196031
0.000237368
5.95285e-05
-0.000297018
0.000414972
-0.000564074
0.000146085
-3.60835e-05
0.000456381
-0.000421657
0.000134387
7.07765e-05
0.00057771
-0.00017525
-0.000403908
7.50915e-05
4.55239e-05
-0.000120616
0.00055524
-0.000350463
-0.000213853
-0.00036608
0.000420707
-5.51327e-05
-0.000100989
0.000129569
0.000339597
-0.000191188
-0.00014848
0.000166401
2.13175e-05
-0.000226084
-3.09178e-05
0.000403244
-0.000378093
-0.000134306
0.000438397
-0.000217853
0.000599033
-0.000383691
0.00017666
-4.36907e-05
-0.000132973
8.47768e-05
5.52318e-05
-0.00014001
2.48965e-05
-0.000331178
3.07222e-05
-9.06691e-05
5.99468e-05
0.00031159
-0.000530681
3.86743e-05
0.000486529
-9.21216e-05
-3.12547e-05
0.000123376
-9.98205e-05
-9.65846e-05
-0.000181904
0.000278428
0.000224951
0.0002859
-0.000512537
5.48162e-05
9.74286e-05
0.000227642
-1.49879e-05
0.000117755
-0.000102768
-0.000103133
-0.000450878
-0.000300172
0.000417239
-0.000117341
-0.000200262
0.000112982
0.000218391
-0.000331597
6.98814e-05
8.09777e-05
9.12655e-06
-0.000145456
-3.29829e-05
0.000176069
-0.000159678
0.000353995
-0.000194671
-0.000180982
-0.000652242
0.000600457
4.89321e-05
-0.000113125
-0.000114067
0.000360409
0.000129889
-0.000132018
-5.71332e-05
0.000422579
0.000288856
0.000172242
0.000167258
0.00015754
2.74494e-05
-7.34392e-05
4.71514e-05
5.93074e-05
-0.000106459
-0.000113031
2.09092e-05
0.000150601
-7.55099e-05
7.02492e-05
-0.000100783
3.05335e-05
-8.59206e-05
0.000111905
-1.69956e-05
-9.49099e-05
-0.000164987
-0.000136377
0.000377606
-0.000241348
4.03342e-06
-0.000286011
0.000279658
-0.000126225
-4.67527e-05
-0.000581994
-6.78666e-05
-8.71925e-05
0.00057971
-0.000343748
0.00011383
0.000229827
-0.000128179
-5.42252e-06
0.000133602
0.00048081
-0.000424044
-5.77571e-05
0.000299185
0.000175292
-0.000475017
-7.07687e-06
0.000165233
-0.000158179
0.000177975
-0.000278591
0.000100528
1.85898e-05
0.00048174
-0.000500627
-0.000128964
0.000152663
-2.37003e-05
-0.000218488
-0.000358617
0.000572771
-5.80642e-05
-7.23748e-05
0.000130439
-1.61866e-05
0.000192842
-0.000540312
0.000421155
-1.10393e-05
0.000423508
-0.000413598
-8.72458e-05
-0.00010334
0.000190577
-0.000156254
-0.000622347
0.000124791
1.71113e-05
-0.000141904
-0.000139509
1.3282e-05
-0.000704034
0.000104567
0.000591173
-6.89699e-05
-6.07346e-05
0.000129704
0.00018784
-8.08507e-05
-0.000111304
-0.000102022
0.00021331
-0.000381817
0.000221711
0.000160117
-9.6672e-05
-7.27926e-05
0.000125875
-5.30822e-05
-0.00027027
-0.000440154
0.000205088
-0.00014124
-6.38544e-05
-0.000107897
-0.000483514
0.000588856
-0.000560694
-0.000123439
-3.97118e-05
0.000163149
0.000103979
-7.53177e-05
-0.000111171
-0.000226438
0.000337424
-8.10634e-05
0.000318302
0.000557416
-3.79568e-05
-0.000520127
0.000221205
2.77216e-05
-0.000248992
-6.08969e-05
0.000133622
-8.98699e-05
-3.83446e-05
0.000128214
-0.000531547
-6.53771e-05
0.000591024
3.34954e-05
5.94697e-05
-9.29652e-05
-0.00013384
-0.000469408
-0.000285051
-0.000302725
-0.000115035
0.00041736
0.000365177
-0.000563203
-0.000445976
0.000200137
-4.52894e-05
-8.66343e-05
0.000131924
9.51797e-05
0.000122951
-0.00011426
0.000437381
4.23061e-05
0.000551348
-8.22633e-06
-0.000103503
-3.83352e-05
0.000141838
-0.00038372
0.0003015
7.83778e-05
-0.000188737
0.000237631
-4.89115e-05
-0.000361023
-2.39717e-05
0.000384469
-0.00014886
-0.000223876
0.000372463
-0.000214696
0.000416808
-0.000202379
-8.24491e-05
-5.45927e-05
0.000137041
-4.80568e-05
0.000120059
-0.000400169
3.46644e-05
0.000364947
4.46669e-05
7.81901e-05
-0.000518486
0.000421854
9.5213e-05
-0.000299312
0.000171865
0.000127384
-7.64843e-05
0.000138096
7.41674e-05
5.53218e-05
0.000357366
0.000158232
-0.000517582
-0.000460344
0.000234664
2.14455e-05
1.4225e-05
-0.00010086
-0.00019846
8.12754e-05
0.000117177
0.000282694
-6.15635e-05
9.50855e-05
-0.000110074
3.09514e-05
-0.000334043
0.000399528
-0.000114104
9.2247e-05
4.96627e-05
-8.72018e-05
0.000161235
-7.40341e-05
0.000189595
2.9402e-05
-0.000219014
5.9513e-05
-0.000117577
0.000189286
-2.77513e-06
-0.00018652
-0.000129892
7.59052e-05
5.39868e-05
-0.000136376
-0.00035577
0.000490514
4.65875e-05
-0.000152618
0.000106892
8.11395e-05
-2.69508e-05
0.000475462
-0.000453724
-5.02285e-05
0.000109396
-7.9025e-05
0.000156176
-7.71514e-05
-0.000113778
-0.000283093
6.36965e-06
0.000486088
-0.000494343
-8.12677e-05
0.00011199
0.00017121
5.67125e-05
-0.000227959
0.000106895
2.33598e-05
-0.000130256
-0.000320726
-0.000404969
-4.35074e-05
5.26019e-05
-2.30342e-05
0.00032219
6.60738e-05
-0.000388346
-0.000135699
0.000313574
9.85495e-05
0.000446972
-0.000115335
2.66157e-05
-8.39102e-05
-6.17059e-06
0.000195446
0.0002722
0.00014281
-0.000415377
-0.00024189
4.63873e-05
0.000275557
0.000348932
-0.000382834
0.00040119
-0.00026345
0.000333101
-6.97454e-05
0.000100212
-6.6717e-05
-0.000187139
-0.000139869
0.000326893
-0.000111338
-0.00033199
-0.000501489
-8.38774e-06
0.000496812
0.000452819
-0.000563038
0.000103488
-0.000277918
0.000114981
0.000354759
-0.000392004
0.000235038
-1.01925e-05
-0.000224874
2.33324e-05
0.000392225
-0.000416371
0.000162101
-0.000258746
-0.00013936
0.000185943
0.000371684
-1.52086e-05
-0.000358301
-7.1441e-05
-4.56392e-05
0.00011708
-0.000132316
0.000122547
-4.73682e-05
-0.00019991
0.000247249
-6.95817e-05
0.000114249
-0.000106521
0.000145477
-3.89558e-05
0.000320702
0.00015237
-4.54756e-05
0.000174607
-0.000181709
-0.000127973
-8.63048e-05
0.000214267
4.50363e-05
-0.000124062
0.000615558
-8.73971e-05
-0.000533242
-2.71226e-05
-0.000101843
-0.00012107
-0.000234026
-0.000171704
0.000126299
-5.60502e-05
-0.00018638
0.000109933
7.64431e-05
-0.000181804
-0.000462198
-1.26261e-05
0.000247633
0.000557086
-7.11542e-05
-7.71978e-05
-5.26949e-05
3.35153e-05
-9.78111e-05
6.42958e-05
0.000646059
-0.000305714
-0.000341922
-7.59656e-05
-0.000110146
0.00016034
-5.01952e-05
2.06789e-05
0.000106618
-0.000130264
-0.000142991
0.000161157
2.27512e-05
-0.000201469
3.48598e-05
-0.000106301
-9.74845e-05
-6.32933e-05
0.000160776
-0.00012808
-0.000356053
-0.000159984
-7.44955e-05
0.000234461
0.000447966
0.000128185
0.000373412
0.00018212
-0.000556065
0.000167255
-1.4215e-05
-0.000153044
-0.000201443
6.90324e-05
0.000136811
-0.000205861
-0.000620203
0.000470096
0.000131286
0.000154655
-0.000122106
-0.000162652
0.000266947
-0.000104345
-0.000284754
0.000121264
0.000163417
-0.000231512
0.000429946
-0.000198609
-0.00027363
0.000475999
-9.02653e-05
0.000261433
7.28638e-05
0.000249244
8.77642e-05
0.000119927
0.000317145
-0.000144458
-0.000188318
0.000298129
-3.77613e-05
0.000227336
-2.7152e-05
0.000144905
0.000168448
-9.87201e-05
0.000142356
-2.15273e-05
-0.00012083
0.000172871
-4.80832e-05
-6.28877e-06
0.000182167
7.91476e-05
-0.000126011
4.68633e-05
0.000353676
-0.000262664
-9.11196e-05
-0.000141837
1.83965e-05
-0.000196461
-0.000584109
0.000451361
0.00012885
0.000253703
0.000145557
3.93408e-05
0.000129099
0.000423705
-0.000185288
-0.000238808
0.000593852
2.53832e-05
-6.51343e-06
-0.000559481
0.000559553
-0.000159769
-9.10521e-05
0.000250792
-0.000105966
5.07968e-05
3.93336e-05
-0.000405865
4.72157e-05
-0.000115977
-0.000541602
2.60896e-05
-0.000149915
5.24281e-05
0.00018011
-8.32902e-06
-0.000171794
7.98534e-05
-0.000104652
-0.000245274
0.000232618
-0.000396434
6.09246e-05
-0.000409724
0.000425459
0.000127314
-4.74609e-05
0.000184756
-0.000115737
0.000128683
0.000224863
-0.000145011
0.000220051
0.000253722
4.63234e-05
0.000113996
-0.000160322
-0.000207162
-0.000204286
0.000198105
-0.000206971
0.000404665
-0.000197958
0.00010716
6.63739e-05
-0.00017354
0.000341986
0.000253213
-0.000140218
0.000486827
-0.000304425
-0.000286707
0.000659547
-5.38097e-05
0.00013218
-7.83703e-05
3.00477e-05
-9.78578e-05
-3.11866e-05
0.000198436
-0.000120432
-2.77939e-05
-0.000217508
-8.304e-05
-4.34613e-05
0.000126501
9.57388e-05
-5.38972e-05
-2.34424e-05
-0.000180854
-0.000174223
4.62409e-05
0.000140184
0.00018048
0.000404906
-0.000510003
0.000493046
0.000712291
-0.000355813
-0.000372618
0.000558083
-0.000112246
-5.74726e-05
0.000145089
0.000123557
-0.000268707
0.000248185
-0.000173022
-7.51794e-05
9.77688e-05
-0.000260462
0.00016438
-6.85116e-05
0.000331913
-0.000454793
0.000122039
-0.000118953
-5.16819e-05
5.16819e-05
5.64617e-05
7.5113e-05
-0.000321173
0.000143196
0.000177851
-7.22588e-05
1.92277e-05
0.000503701
-0.00050355
-4.84096e-07
-0.000120487
-1.49108e-05
0.000135398
-0.000432302
5.27085e-05
0.000169436
-0.000133347
-3.60904e-05
-0.000107427
0.000152463
0.000149569
0.000235331
-2.47154e-05
-0.000210657
-0.000581913
0.000586928
-1.27135e-05
-0.00013694
6.04482e-05
0.000442012
-0.000193578
-0.000248822
-0.000453254
2.82641e-05
-0.000153579
-0.000404857
0.000405215
-8.67918e-07
-0.000537775
0.00017239
0.000631167
-0.000455845
-0.00017967
0.000317227
-0.000166496
-0.000150849
-7.80571e-05
-4.37895e-05
0.000121847
-0.000427364
0.000180585
0.000246431
-0.000119687
-0.000276692
0.000396125
3.05295e-05
-0.000168296
2.52743e-05
-0.000115144
-0.000175453
-0.000157589
0.000408282
-0.000207701
-0.00020085
-6.61299e-05
0.000143355
-7.72258e-05
0.000316785
0.000377749
8.9942e-05
-0.000129121
0.000124238
-4.05767e-06
-0.000479952
0.000303467
-0.000127383
0.000171496
-4.41163e-05
-0.000262473
1.2621e-05
0.000249813
0.000239962
-0.000106801
0.000157299
-0.000238877
8.15489e-05
-0.000282676
-0.000110167
-0.000194198
0.000303425
-4.55931e-05
4.55931e-05
-0.000168565
-0.0001308
0.000335838
-0.000473836
-0.000205608
9.52979e-05
0.00020448
0.00018131
-0.000386255
0.000168782
-0.000172836
4.04627e-06
0.000347603
4.22214e-05
-0.000403201
-9.0288e-05
-0.000107268
0.000197546
0.000153341
-5.2351e-05
-0.000139764
0.000192113
0.000235121
-7.78509e-05
-0.000143131
0.000100837
4.22939e-05
-0.000286884
0.000157185
-4.00825e-07
-0.000153177
-8.43812e-05
0.000237539
-0.000142707
0.000520395
-0.000389145
-0.000362676
0.0003394
0.000166013
-2.36582e-05
-0.000102655
0.00014488
-0.000114325
5.80268e-05
8.53279e-05
-0.0006331
8.43894e-05
0.000546586
0.000243003
0.000401212
-2.93685e-05
-0.000172551
0.000201891
-0.000189968
-0.000271524
0.000460722
-0.000605758
0.000615173
-1.57582e-05
-0.000124198
6.12158e-05
7.83281e-05
-0.000182501
-0.000111711
4.56397e-05
6.60713e-05
-0.00020174
-3.02852e-05
-0.000232223
0.000312907
0.000241313
-0.000554733
-0.000599934
0.000143164
8.53517e-05
7.42634e-05
-0.000159617
-0.000241096
0.000236029
-4.36622e-05
-0.00017197
0.000198625
-2.73494e-05
0.000174138
-0.00010321
-9.9596e-05
0.000207212
-0.000107628
-7.48421e-05
0.000140194
-0.000555025
3.60891e-06
0.000260108
-0.000272589
2.71634e-05
-0.000105221
0.000218652
-0.000450345
0.000389456
-0.000231634
-0.000158073
0.000474795
8.88723e-05
-0.000110891
-2.43315e-05
0.000135222
9.78482e-06
6.84953e-05
-3.81932e-05
0.000116383
0.000519639
-0.000582914
6.18917e-05
0.000225934
-0.000116294
-0.000153839
-0.000182648
0.000336318
4.06751e-05
0.000165863
-0.000206565
-0.000326875
0.00010534
-0.000520821
-0.000103748
0.000389216
-0.000286132
-9.19766e-05
-0.00026515
0.000339499
0.000184251
-0.000123706
-6.05506e-05
-0.000517724
0.000195751
0.000321567
5.13752e-05
7.83262e-05
-0.000483444
0.000261856
0.000220338
1.34976e-05
-0.000140353
0.000126853
0.000136724
-9.0722e-05
-4.60026e-05
-0.000372825
0.000155519
0.000217039
0.000284119
-9.48524e-05
-0.000207319
0.000139674
-8.43368e-05
-5.53373e-05
-9.087e-05
0.000147804
-5.69352e-05
-7.28121e-05
-0.00032784
-0.000241583
0.000254165
-0.000548079
3.75551e-05
7.98262e-05
-0.000104652
2.48263e-05
-0.000104819
-0.000482962
0.000150086
-0.000110751
-0.000103887
0.000558759
-0.000459499
0.000179521
-0.000284961
2.20698e-05
0.000147364
-0.000323616
0.000390967
-0.000427461
-3.54897e-05
-0.000262819
0.000123219
-7.99621e-05
-4.32567e-05
-0.00014171
7.22377e-05
6.94723e-05
2.91339e-05
-0.000139281
0.000731378
-0.000475918
0.000119808
-4.06609e-05
-0.000540973
0.000387291
-8.91945e-06
0.000339735
0.000235536
0.000352818
-0.000113843
-0.000186277
0.000207425
1.66098e-05
-0.000226456
-6.89697e-05
0.000147445
-7.84759e-05
-8.10385e-05
0.000157495
-7.64579e-05
-0.000116262
-0.00048762
-8.76303e-05
-9.96606e-06
0.000226576
-0.000337923
0.000521526
-1.66161e-05
5.01704e-05
8.95035e-05
-0.000198968
-6.52724e-05
-8.05595e-05
0.000128981
0.000233166
-0.000337524
-0.000103246
0.000453938
-0.000485899
0.000334071
-0.000188786
0.000215151
-3.50586e-05
0.000670355
-6.0714e-05
-0.000124314
-1.04252e-05
-0.000140165
-5.02275e-05
0.000190389
9.41513e-05
-6.0636e-05
-7.33657e-05
0.00030864
-6.01125e-05
7.66652e-05
-0.000234874
0.000158149
0.000115112
0.000477668
-0.000146055
0.000333077
-0.000187164
-1.1306e-05
-0.000230312
6.29233e-05
4.31418e-05
-0.000106065
0.000248566
0.000156367
9.59622e-05
-0.000168461
7.24962e-05
-2.15377e-05
-0.000219588
0.000200085
-5.44624e-05
-9.83529e-05
0.000134481
-3.61287e-05
-0.000111432
1.30788e-05
-0.000111237
7.16859e-05
3.95511e-05
-8.24014e-05
-9.65781e-05
-5.81584e-05
0.000154734
0.0004377
-8.40869e-05
-9.25264e-06
0.00014528
0.000187348
-0.000103892
-8.34601e-05
0.000175779
0.000247484
5.98579e-05
0.000100553
0.000100381
1.71045e-05
-0.000117486
0.000311875
0.000135826
-0.000448582
7.85988e-05
0.000186284
0.000567869
-0.000212406
-0.000214994
0.000525836
-0.000116314
8.32574e-05
0.000595872
-4.6321e-05
-0.000557019
-0.00032105
0.000174856
-9.72207e-05
0.000114673
-0.000480049
0.000416298
6.27731e-05
0.000128334
-5.92934e-05
-0.000441509
0.000120798
0.000320359
-0.000246898
0.000116131
0.000130731
0.000142885
-0.000102912
-3.99726e-05
-0.000399243
-8.82879e-05
-0.000110178
-4.42179e-05
-0.000222843
0.000266821
-0.000157656
-0.000215414
-9.09828e-05
-5.07279e-05
0.000466826
-0.000171801
0.000216252
-4.44595e-05
-0.000128803
8.80936e-05
3.51247e-05
0.000578023
-0.000121369
-0.000459437
-0.000112169
5.36626e-05
5.8506e-05
0.000409955
-0.000249377
-4.5418e-05
0.000110078
-6.46598e-05
4.7195e-05
5.99305e-05
-0.000107126
-5.61686e-05
-5.6e-05
-0.000359942
0.00022093
0.000138883
-0.000557954
0.000448012
0.000108551
-0.000494636
-0.000140569
-0.000109845
-2.52088e-05
0.00013232
0.000160685
-0.000143056
0.000573718
-0.000432396
-6.26587e-05
-0.00024716
0.000382947
-0.000382347
0.000142257
0.000239944
-0.0002925
0.000117028
0.000324453
0.00011277
0.000177998
0.000544406
0.000433388
-0.000259539
-0.000174417
-0.000186841
-0.000265043
0.000451477
0.000323092
-0.000335021
-0.000345468
-6.16051e-05
0.000102563
-0.000130568
2.80047e-05
0.000186041
-0.000107214
-7.88321e-05
-0.000390875
0.000244256
0.000146281
-0.000180392
0.000281607
-0.000101294
-6.34529e-05
0.000163833
-0.00023923
0.000118994
-0.000113803
-0.000210164
0.000509369
-0.000136745
0.000346944
-0.000210371
-0.000380442
-0.000137573
0.000596834
-0.000144887
-0.000455359
-0.000245321
-6.82943e-05
0.000313519
-0.000510424
-2.52402e-05
0.000619786
-3.26452e-05
0.000182192
9.94424e-05
-0.00049489
-4.62353e-05
-2.37525e-05
0.000192527
-8.70744e-05
0.000440583
-5.44237e-05
0.000104215
-4.97911e-05
-0.000103039
-7.19592e-05
0.000174994
-0.00019009
7.61458e-05
0.000113936
0.000121969
8.31106e-05
-0.000574527
8.45378e-05
0.000486848
-0.000121385
9.86266e-05
0.000102663
-0.000201303
-1.00757e-05
-0.000372474
0.000491495
-0.000316782
0.000137786
-1.8792e-05
0.000221254
0.000194244
-0.000415766
0.000198826
0.000162861
-0.000148833
2.64629e-05
-0.000122459
-6.15578e-05
-0.000207141
0.000268659
-0.000540105
0.000470885
6.66913e-05
6.60241e-05
0.000189883
-2.70254e-05
-0.000136292