/*--------------------------------*- C++ -*----------------------------------*\
| =========                 |                                                 |
| \\      /  F ield         | OpenFOAM: The Open Source CFD Toolbox           |
|  \\    /   O peration     | Version:  v2012                                 |
|   \\  /    A nd           | Website:  www.openfoam.com                      |
|    \\/     M anipulation  |                                                 |
\*---------------------------------------------------------------------------*/
FoamFile
{
    version     2.0;
    format      ascii;
    class       volScalarField;
    location    "50";
    object      omega;
}
// * * * * * * * * * * * * * * * * * * * * * * * * * * * * * * * * * * * * * //

dimensions      [0 0 -1 0 0 0 0];


internalField   nonuniform List<scalar> 
13851
(
0.0237079
0.58804
0.0810442
0.0234012
0.0740284
0.0598263
0.0216072
0.0443669
0.0207854
0.119408
0.256959
1.70088
2.44121
2.72152
0.021408
0.0315548
0.0243783
0.028552
0.432648
0.0207374
0.0232159
0.076896
0.0222836
0.0227759
0.0224819
0.0452088
0.0237669
18.4952
0.0234918
0.0240736
0.170796
0.024654
0.0764986
0.560427
0.0226587
0.156299
0.378274
0.192401
0.137462
0.551712
0.0213343
0.0209202
10.4674
0.243305
0.238679
5.0378
0.21207
0.788453
0.0239588
0.20502
0.0650982
0.120977
5.25198
0.021567
0.022413
0.0209003
0.0221523
5.08275
0.0238551
0.0216383
0.199938
2.49412
0.116468
0.0853852
0.132869
0.0254695
1.40749
0.191286
0.0320532
0.0283146
7.67914
2.90605
0.691085
0.0216742
0.0210179
0.0209502
0.0732232
5.42836
0.0443911
7.03493
0.0218253
0.0224787
0.0213444
5.09972
0.16353
1.69489
0.0517748
1.91247
0.0248034
0.0215549
0.156893
0.0369711
0.190114
0.0267528
0.0246039
0.0233067
0.0753748
2.86763
0.225198
0.0233276
3.5418
0.0466319
0.0222047
0.0235001
0.0212665
0.0914961
0.051103
0.0207259
3.49347
0.0675747
0.0236618
0.0216995
0.032019
0.0231666
0.0235798
0.72614
2.88732
0.020924
0.0226339
0.0228121
10.5466
0.0233979
2.4593
0.596305
0.782847
0.0224371
0.697885
0.0458702
0.0230236
0.126106
0.0213135
0.0206908
6.23309
0.0213451
0.804528
0.0208732
0.0209656
2.85674
2.69644
3.20225
3.54085
0.0223704
0.0233221
0.0212066
0.0230111
0.237979
0.021464
0.126588
0.0215931
0.239292
0.0675842
0.0223864
2.79596
0.0221971
0.0226893
0.0229306
0.0210115
0.0230079
0.120662
0.0646249
0.0207979
0.0266785
4.75743
0.0206759
0.0275006
0.0210301
0.0215717
0.0324615
0.0228852
4.50564
6.70641
0.0205383
0.021033
2.96179
0.0206657
0.784854
0.0443358
0.0232032
0.537145
0.0207953
0.025318
3.10139
0.0213441
0.0833703
0.0207141
0.0228055
0.0256196
0.0217879
0.0850395
0.112989
0.203948
4.44275
0.0219965
0.0322475
2.47459
0.0225611
0.0229227
0.527554
0.0229475
0.0209556
0.0223963
5.94706
0.0235942
0.0212488
0.0786927
0.0213551
2.91901
0.0244978
3.15654
0.0208429
3.2908
0.0221124
0.48035
0.0207542
0.0212147
0.131026
0.0647159
4.70094
0.0213417
3.1
0.0246449
0.0218629
3.081
0.118592
3.28193
0.022746
0.0284814
0.0213764
3.79564
0.0208067
0.0437627
0.23085
0.0205475
0.021859
0.0581639
0.0463076
2.91561
0.144285
0.0212383
0.0212614
0.217027
0.496944
0.0209896
0.0909675
0.0210523
3.13453
0.0480199
0.514694
0.0230292
0.0252355
0.0293819
0.499375
0.0218494
0.0231055
0.0473338
1.1407
0.106115
2.90605
24.1495
0.0214316
0.0211858
0.0272199
0.869797
0.0224415
1.16297
0.0225517
0.0218178
0.0263204
3.07891
0.0308415
0.0292736
0.0226846
0.462597
0.0419889
0.0308472
0.0207008
0.0223758
0.0291532
3.5007
0.233874
0.0209845
0.020876
0.0212128
0.04555
0.879438
0.765095
0.020755
0.0214404
0.546672
0.0223992
0.145441
0.0235471
0.0216454
0.0343109
0.0225317
1.17337
0.0268279
1.68189
0.0207194
3.1608
0.0263477
0.0242705
3.4666
0.0216307
0.101378
3.09268
0.0207447
0.0399248
0.0268677
0.0233441
2.67199
0.0270139
0.0218035
3.01902
0.0209503
0.0254499
0.0224214
3.57929
0.109453
0.0213411
0.0479589
0.0213754
11.4539
0.0323249
0.0223728
0.0213081
0.107648
0.0278718
0.0226141
0.0214437
0.0216088
0.0217668
0.249853
3.77477
3.2478
0.0323772
3.54094
1.81117
0.0213657
0.0328675
0.146365
0.0476371
0.0666887
0.104828
0.36485
0.0259591
0.890628
3.11933
0.0214256
0.0624009
0.0622176
0.252187
0.0226043
0.0770898
3.77924
0.0210654
0.822378
0.0212933
0.0213878
0.0209899
0.0207208
0.020947
3.17069
0.455413
0.021367
0.0384896
0.0209388
1.63314
0.0372117
0.777741
3.77606
0.0213808
0.0619431
0.0269637
0.775178
0.021238
0.0210038
0.0305162
4.06063
0.0213805
2.71666
0.0445368
0.113032
7.39872
0.203956
0.206564
0.0268558
0.0207603
0.0220445
0.0305936
0.0472567
2.70934
0.0324075
3.35004
3.1087
0.0209592
0.0214391
3.68667
5.23425
0.346718
2.92676
0.0312107
0.027503
0.0233586
1.37923
0.0206422
0.0309952
0.0262148
0.0215449
0.021289
0.0207668
0.0210137
0.0821358
0.0567985
8.04142
0.0289658
0.050473
0.0346916
0.499223
0.026068
0.373676
0.0240464
0.106608
0.0208989
0.0207646
0.0231138
0.210106
0.455733
0.116511
0.0335075
11.1514
0.580141
0.0441664
0.0230771
0.0594966
0.0212148
0.503969
0.021383
2.73429
0.504969
0.0719994
3.2924
0.0233645
0.0268963
0.494046
5.07755
0.0206655
0.0287444
0.0456559
0.0337341
0.0206027
0.0217852
0.0633014
0.112581
0.0345914
0.729969
0.0227766
0.0213881
4.45408
0.0283424
0.0208832
1.85089
0.0207498
0.0237088
0.0207647
0.0403441
0.0226667
0.0208581
0.0231794
3.00618
0.0213552
0.0343216
0.0208079
0.029571
0.0432463
0.0230218
0.0212939
0.0231858
0.0233156
0.756487
0.0217972
0.053448
0.0213441
0.0229882
3.07769
3.45733
0.0213795
0.0306802
0.026194
0.502015
4.89663
0.0214064
0.453084
0.0212643
0.0757869
0.0215788
4.08882
0.0208842
6.134
0.101022
0.0209458
0.0306215
3.17161
0.0450536
0.337471
0.0224704
0.612624
0.0227989
0.0205981
0.0207035
0.0215542
4.1352
0.0588631
0.118752
0.696239
0.048692
0.0208093
2.47025
0.467102
0.0254521
0.0268675
0.485502
0.566161
3.32196
0.0223474
4.11581
5.25169
5.75564
0.0277381
0.0325229
0.482263
0.0279717
1.17401
0.507417
2.83526
0.0231879
2.82941
3.09175
0.0208491
0.0275809
0.0605469
4.29402
0.0232053
0.0212292
0.020984
0.0212543
0.0820098
0.0404316
1.67842
1.01571
0.0208489
5.16991
3.22075
0.47807
0.469139
0.0337927
0.0208725
0.0207881
0.021856
2.59873
0.0227631
0.0803118
0.156376
0.0208859
0.0402464
0.42784
0.2644
0.10491
3.89033
3.12024
0.0212871
0.0215574
1.66334
3.08057
0.117608
0.032235
0.378673
0.0207783
0.0211061
2.64089
0.020866
0.0231297
0.0207976
0.0207805
3.10423
0.0814371
0.031028
0.020853
2.67267
0.530755
0.0207526
0.0219976
0.0224349
0.0219569
4.21122
0.50173
0.490951
5.59732
0.645727
0.0307646
5.92855
3.3527
0.0265141
0.0325157
0.0208774
0.0224295
0.0328397
2.93916
0.827947
0.0792761
0.0277616
0.020759
0.0313141
0.0236294
0.343721
0.0655622
0.0213357
0.033706
0.0206222
0.0261031
0.119048
0.0216131
0.0211898
0.0372469
0.021581
0.0753782
0.211253
0.112726
0.0318247
0.121698
0.0207589
0.253649
0.0307111
5.40458
0.022036
0.0234159
3.4127
0.0235516
8.22059
3.09806
4.39805
1.77412
0.0206535
3.13826
0.0209619
0.0207701
0.0208207
0.020786
0.0210945
0.0300115
0.0381466
0.0208215
1.83658
0.105259
2.03391
0.0209111
0.0207353
0.0218423
0.141915
2.45002
0.0481634
0.0263493
0.020958
0.0230922
0.0214687
0.0210725
0.193647
2.11486
0.021559
0.0207974
0.0215659
0.0210629
2.31176
4.52662
0.0317972
2.83204
0.579609
0.0211701
0.117663
4.46091
0.0337761
1.74544
0.0218101
0.0275303
0.0473792
0.0278776
0.489203
0.021368
0.473049
0.0213568
0.0289893
3.08872
0.0216092
0.0229591
0.284078
0.0206117
0.0249156
0.769155
2.59093
0.0644732
0.803295
0.250083
0.0207429
0.0208881
3.16414
0.147147
0.0503717
3.12284
0.0209179
0.0240093
0.0209175
0.630476
1.90528
0.025416
0.0219499
0.0495196
0.0239006
0.0217783
5.49272
1.08401
2.97269
0.0209309
0.0215513
5.48542
6.44798
0.139497
0.0233276
3.37305
0.0213567
0.078716
0.152366
0.0775103
0.0245619
4.51976
0.0279952
0.0257572
0.372638
0.0232755
0.0235846
0.0228084
0.020767
4.9335
0.0303928
0.10531
0.030373
0.0338728
0.0207406
0.788904
0.0223659
0.0279173
0.0208763
0.0211298
0.0213696
3.06762
0.0209683
0.0210984
0.492823
0.0215751
4.04837
0.0216259
0.0231603
0.0625987
2.59351
0.471008
0.0212236
0.200494
2.80227
0.0218271
3.18164
0.0287451
0.0207656
0.113632
7.93755
0.148377
0.0254508
0.0208906
0.0207557
0.489022
0.0912838
0.0587199
0.0264157
0.110769
0.0220777
0.0231021
0.0798568
0.488743
0.0826433
0.906534
0.0215331
0.0764229
0.075059
3.63404
0.025301
2.53441
0.453204
0.0215886
6.42341
0.185734
2.54405
2.61221
3.00274
0.398426
0.0387296
0.0207649
0.0297089
4.54623
5.40526
0.0212366
0.0230861
0.060432
0.0224981
0.021072
5.21825
0.0208492
0.0213748
4.43008
5.39426
0.267725
0.0207577
0.0214028
6.14356
0.192845
0.107957
0.0241368
2.78808
0.248821
2.43627
0.0506546
0.0378232
0.0218126
0.0215702
0.95144
0.045284
6.06787
0.0325626
0.0319947
4.9372
2.57425
3.54195
0.0214296
0.0294515
0.0207378
0.0323612
0.0228682
1.78292
0.0241245
3.13173
0.0210983
0.0614974
0.0211333
0.199416
0.0312691
0.0290987
2.86926
0.0400454
0.0429213
0.023069
0.0614389
0.782374
0.31761
0.0232329
6.64654
0.0222412
2.73853
0.46075
0.0216066
3.27085
3.72527
3.70518
0.356193
0.0315489
0.0212099
2.99632
0.0241915
0.674502
3.16213
0.0209182
0.022512
0.204216
0.50734
2.45084
0.0215251
0.0216036
1.27679
3.11609
0.105218
0.0250551
0.0233907
0.454421
4.29213
0.0780661
0.0210963
0.0391503
0.0206301
0.0230838
0.10817
0.0234408
1.93857
0.505988
0.0213858
0.0235658
0.0212383
0.0228508
6.18328
3.18004
0.0283913
2.66781
0.0211305
0.0284083
0.0211576
0.0206446
0.0215706
0.0213718
4.06108
0.02138
0.0475128
0.0214324
0.0255745
0.126347
6.85503
0.0224928
1.70692
0.0623375
1.11487
0.0310285
0.0314528
8.12761
0.0261121
0.0425371
1.74114
0.567426
4.89254
0.0384491
0.244873
0.021936
0.0383093
0.0477757
2.48983
0.0216143
2.7498
0.0208686
0.0209309
2.66433
0.022229
1.55383
0.0247949
0.0207192
0.0382248
0.0207363
0.0214088
0.0209468
0.0217683
0.219219
0.020937
0.178776
4.22584
0.0649075
2.57359
0.0215527
0.0224046
0.022554
0.021268
0.0207138
0.0714496
0.0218563
0.0207577
0.0219961
0.022623
3.94557
2.03494
0.320123
2.93899
0.236744
0.0211015
0.481198
0.0275993
0.0209271
0.419734
0.360218
0.720015
0.0210736
0.225227
0.507087
3.8561
0.0206111
2.39251
0.0296861
0.0236662
0.020954
0.0207462
2.76776
0.214611
0.758044
0.021456
0.0213079
0.593484
0.0216223
2.00848
0.451821
0.318323
0.641781
0.44905
0.0230553
0.0213244
0.0743006
0.0303188
0.0235031
0.162589
0.0402228
0.0218871
0.0232807
1.93384
0.0207795
4.06265
2.17883
0.775953
0.178064
0.0222572
0.0215552
0.021816
0.299319
0.514558
0.0205921
0.0230817
0.0214576
0.0699203
0.021069
0.0213378
0.0218936
0.0313619
1.26866
0.0436423
0.0329497
0.0214191
0.0474967
1.52301
0.0221253
7.92934
0.45607
0.0724242
0.0209473
0.0409505
0.0212238
0.0224041
0.0217441
5.28696
0.109215
0.457187
0.0235628
0.0661944
0.0212754
0.0213454
0.0216316
0.476068
0.333856
0.020795
0.031017
0.0629621
3.59664
0.0231205
0.410183
0.021099
2.88545
0.0878448
3.20389
0.0812689
0.0714649
0.22269
3.14139
0.436747
4.93973
0.0222422
1.54085
0.0210741
0.0233085
0.0255024
0.0215838
3.19029
0.0284467
0.0266792
0.430576
0.166575
0.769993
0.0213573
0.0233347
0.0258385
0.0218755
0.0313839
1.29354
0.650952
1.58629
0.0209382
0.0261622
0.0245564
0.46876
2.93621
0.0665835
0.0215115
0.0217995
4.22142
0.0436211
2.8007
2.44661
0.0379857
0.0209558
2.78026
0.0304237
0.0415519
0.0275207
3.22697
0.282125
0.117204
0.118753
0.0222768
0.0283942
0.0213791
6.06675
0.0517959
3.28009
0.0569315
0.0253476
0.132909
0.0225222
3.2508
0.256717
0.0214302
2.02283
3.04777
2.24667
3.35195
0.0216191
0.0213477
5.8522
1.62542
4.18313
0.0227112
0.0215625
0.0213837
3.83617
0.131925
0.0217495
0.499679
0.0974446
2.92916
2.68494
0.770888
0.0214196
3.31102
0.0242039
0.0212715
0.127528
2.46853
0.0216132
0.0208587
7.03135
3.20279
0.0224858
0.0209227
2.97235
0.0213501
0.021849
0.0209397
0.495541
0.0213381
0.0482144
1.6044
2.95622
0.022361
9.09761
0.514258
2.14331
1.56782
2.89329
0.0372173
0.0211539
0.356886
0.0230429
0.0213745
0.0218195
0.714907
0.0211494
0.270715
0.0208784
0.0258761
5.63874
0.0684453
2.27644
0.0226727
0.0233709
0.0206963
0.030942
2.89355
3.17943
0.0208363
0.0609002
0.396716
0.0215991
0.0208769
3.01386
0.0326201
0.033082
0.117857
3.47775
0.548049
2.6844
3.29921
0.0393202
0.154046
0.500924
0.375095
0.0611886
0.0208285
0.115947
0.0211421
0.0211279
2.21903
3.04407
0.0231197
3.00821
0.737078
4.23588
0.526205
0.204483
0.021228
0.560687
0.109065
0.0220207
0.022448
3.13121
2.95494
0.288924
3.26523
0.0368493
3.13568
3.18658
0.0304501
0.0217251
0.0210551
0.0225458
0.0209985
0.221525
0.0223153
0.0219871
0.0233076
1.88912
3.54809
4.13204
0.021992
2.87501
0.0249313
0.029191
0.0209856
0.0214414
6.19341
0.0264626
3.36568
0.946502
0.479313
0.10508
0.0214777
0.0379837
0.0216084
0.131157
0.0229897
0.0225882
0.0219017
0.0223156
0.140894
0.0220371
0.0329597
0.0221092
0.0334986
0.240462
6.08907
0.021068
0.0451683
0.0214911
0.603148
0.0229979
2.27699
2.00647
0.030124
0.0234349
0.0223884
0.123037
0.021267
0.0346795
0.0214245
0.0213432
0.0227639
3.03008
0.0262553
0.024939
0.0307236
0.0220165
0.0579414
2.96714
0.749135
0.0338633
0.0213833
0.0729135
0.0208322
0.0210473
0.178254
3.11256
0.0215775
0.0301419
0.102504
2.96141
0.0217872
0.021967
3.16289
0.0224346
0.135105
0.241314
3.66533
0.0213518
0.0231892
0.0212475
3.24082
0.120684
0.039898
0.106554
4.09494
0.0222811
3.53201
2.67376
0.0216777
2.04263
0.0724415
0.0223625
6.93155
0.021524
0.0212759
0.020675
0.163703
0.0842218
0.147191
0.0226247
0.0221787
0.028781
0.458355
0.359495
3.51346
0.386886
0.0219454
0.121262
0.127205
4.0304
0.0822596
0.0226585
0.0210113
0.0305675
0.0207468
1.18037
0.0358405
0.0212401
2.32212
1.6101
0.0310192
0.0350026
0.0208281
0.0219575
0.0517627
0.0324725
0.645073
0.0616716
0.0679215
0.0612441
0.111439
2.28571
0.647009
3.44792
0.0210833
0.0207936
0.192316
4.09664
4.65368
0.150102
0.0224848
7.48789
0.388711
0.0215757
0.025677
0.0208159
0.0386022
0.0635213
0.0243214
4.69167
0.298638
0.0224894
2.48395
6.82565
0.0214156
0.0891428
2.67608
4.32007
0.0235035
0.0671508
0.0208266
0.023039
0.0219505
0.0249293
3.39871
2.97667
11.5102
5.92546
0.022451
0.0325041
0.052343
0.0215543
0.021842
0.0207158
2.93828
0.0209619
3.34335
0.0350701
0.0830792
0.148083
0.221965
4.85468
3.02853
0.037983
0.0209722
0.0227118
2.86994
1.94182
0.0243389
0.0207804
0.0212764
0.062901
0.0291307
0.132718
2.84046
0.0224158
0.0207216
0.110788
0.0573146
6.62816
0.708719
0.0209334
0.0659044
0.0216167
3.42864
0.0211012
3.12753
0.0225229
0.0223571
0.0322789
0.0219403
0.479225
0.0288656
0.0443562
3.93943
2.95709
0.0247525
0.0287803
0.0212158
2.95748
3.9743
0.0216236
0.02112
0.401913
0.0207828
3.98949
0.0215364
0.0358475
0.0729507
1.03754
0.0379094
0.0228538
0.0215831
0.0629503
3.15907
0.0211542
1.17768
3.35135
0.881917
2.52773
0.0322385
3.91094
0.0248847
0.534198
0.0212752
0.367101
0.365949
4.77452
4.32563
2.46856
0.0222032
0.0408485
0.0208462
8.61788
0.417695
3.08231
4.10143
0.0263562
2.52633
0.839962
0.0333563
0.022755
0.0216025
3.45687
0.0251668
0.0626132
0.0231057
0.021649
0.02065
0.0215473
2.82408
0.207685
0.0297645
4.25575
1.74779
0.0223286
0.0213093
0.0211081
0.0286546
3.12075
0.226753
0.0252105
0.0244649
0.196413
0.0834166
0.0416753
7.70528
0.0290693
3.3461
0.028963
0.0298604
0.0212854
0.0230708
0.0649621
0.48786
0.339603
3.22638
0.0712447
2.55463
0.0254524
0.0240267
0.0224669
10.9708
4.06193
0.6186
0.360897
0.0232715
0.0213924
0.0210575
0.0214209
0.0207527
6.25558
0.0281485
5.3934
0.0308266
2.47761
2.76184
3.14794
0.0342438
0.025341
4.1237
0.0372716
0.208662
3.40518
0.0205864
0.0909204
0.0264336
5.29268
6.21873
0.0330311
0.572479
0.527736
0.0227792
0.0615403
0.0239944
5.21945
0.444081
0.0236631
0.0215799
0.335864
2.54838
0.119063
0.579705
0.116058
0.0291826
0.0212981
1.89084
3.13519
0.0915671
0.0295587
2.86237
2.61726
0.0208672
0.0214038
0.023864
3.11766
3.03675
0.0213362
4.40346
0.0219824
0.0210816
0.0216124
7.20315
0.623254
0.130815
4.78716
0.0228976
0.0225544
0.020975
5.86754
0.0222127
2.62365
0.024134
0.427434
0.0217854
0.0211432
0.116368
6.03633
0.408152
0.0337791
1.27201
0.0209637
0.0214909
0.0214147
0.0423757
0.0597759
0.0593537
0.0375135
3.17218
0.0239972
0.121099
0.121334
2.24484
0.021585
3.48802
3.11765
0.024552
0.641496
0.0590781
3.77202
0.0215768
0.0743715
0.0211144
0.18948
7.75493
0.0874889
3.2629
0.0234807
0.0448429
0.0224693
4.04082
0.0210531
0.0207984
0.449011
0.116845
3.90671
2.86729
0.057893
0.0275985
0.020697
1.36821
0.0311666
0.0220636
0.134962
0.020947
0.0406
0.0213893
0.908786
0.0225282
0.225957
0.30728
0.0320012
0.964552
0.0538203
3.45792
0.0213351
1.63967
0.937817
0.0208407
0.0213564
0.0227506
0.0218118
0.0375612
0.0212202
0.271598
0.0678616
0.079898
0.76515
0.0215651
0.0218246
0.0209197
3.12348
0.0215099
0.0212986
0.192101
0.0235886
0.505499
3.27159
0.0793096
0.0244205
0.0318624
0.0225129
0.0219702
0.0605699
0.0213138
0.023707
8.02552
3.17935
1.12281
0.0224695
4.33487
1.03418
0.0218265
0.0483814
3.04395
0.0213508
0.0232804
0.0213092
3.25891
4.86677
0.485733
0.0212699
0.0237024
0.0236811
0.021581
0.119082
0.0215573
0.0609523
8.68305
3.38574
0.0205687
0.0235951
0.0232427
5.08903
0.02083
4.54624
9.36806
0.141567
0.611248
3.10774
2.81182
0.0229933
0.461991
0.296692
0.0222722
0.0206446
0.0208637
3.2466
4.34774
4.45976
0.0222383
3.36282
0.0215615
0.148262
0.0210831
0.02306
0.0222194
0.0205658
4.80885
0.0223254
2.72167
2.62825
4.47132
0.045056
0.0475759
4.73085
3.13418
0.0217076
9.94392
0.020929
0.0209803
0.0212967
0.0274493
0.0216793
3.8207
0.0303404
0.233129
0.0383494
8.26933
4.06682
0.09659
0.0205969
0.0537309
0.084458
4.9605
0.02163
0.0207678
0.0228694
1.9437
0.0217499
0.161956
3.81487
0.0388647
0.0598299
0.021644
0.504637
0.0217551
3.13766
0.0207413
5.65383
0.0299096
0.0215045
3.77279
4.24114
0.021119
0.0591868
0.0242115
4.43474
0.0988537
0.132814
0.211811
0.0217585
0.0535757
2.7612
0.0219913
0.0266501
0.0235715
0.0684326
0.0309938
8.62361
3.27904
0.0215179
3.52755
0.0222996
0.041908
2.89209
3.7968
0.0356223
3.1152
0.258951
0.0215913
0.217207
0.117974
0.0296089
0.0222841
2.48229
0.0211103
7.35111
0.11851
0.124614
0.0213473
0.0316327
3.32077
0.0421917
2.43299
0.0219984
0.0235205
0.100056
2.54457
0.0254673
3.14969
0.928299
3.82622
0.0216215
2.43545
0.414063
4.34987
0.0213955
0.0223711
0.0213756
3.20029
0.0379323
0.505969
0.482234
0.0217824
0.0214353
0.0213654
4.93831
2.88482
3.40959
4.19105
0.0209613
2.83222
3.14757
0.119626
4.2494
3.16342
0.0356489
7.64662
0.0231358
0.0251539
3.20705
2.33915
0.0227009
3.17702
0.021861
0.021394
2.91247
3.29411
3.54826
9.17113
0.0298612
0.0217873
0.0230523
3.24225
4.22205
0.0211665
0.0427889
0.659314
0.021427
0.0215163
2.95058
2.60722
0.0228925
0.0214328
0.0222022
0.0225942
0.181028
0.0217961
0.0211475
0.0253273
0.951303
2.61048
0.690111
2.52077
0.0215291
0.0245606
2.97521
3.15834
0.0280279
0.227772
0.0213273
0.0342047
0.0228704
0.0227348
0.0689585
0.0211341
0.734587
0.0317929
0.0208544
0.0242613
0.548558
1.32152
3.68495
0.02144
0.0244893
3.22761
0.607351
0.0237302
0.0215218
0.0214798
0.156714
0.0215334
0.0219665
0.0270677
0.0213444
2.99166
0.359197
0.0217408
0.0238818
0.0210724
0.0215503
1.40162
0.440159
0.0643189
4.12486
0.33198
0.0218479
0.0213083
0.0214993
0.0213299
0.0217234
0.0236469
0.080305
2.87076
0.0229925
0.101738
3.58695
0.144258
0.0212518
0.0208153
0.0232278
2.89054
0.0212778
1.17277
0.366477
0.0664025
0.0238976
6.54605
0.0213117
0.0699548
0.0213623
0.0212813
0.0217984
0.021647
0.0414742
2.39033
1.05162
0.0367931
2.24989
1.18085
1.18038
0.0305054
3.25997
4.00434
0.101724
2.48648
3.00592
0.104017
0.506255
0.0218099
0.0215471
1.65205
0.0210261
0.0239565
2.85081
0.0814763
1.65816
2.15161
0.0207285
0.0236145
0.0214921
0.0507048
0.0210584
0.0699197
3.43815
2.86221
1.13275
0.0215
0.0211081
0.0647645
2.85427
3.015
0.132492
1.22579
0.0208639
1.83055
3.66219
0.0635585
0.0238123
0.0215257
0.0209371
0.023267
0.0215138
0.0213679
0.0237572
3.0015
0.069501
3.32909
0.101312
0.247908
0.157435
0.0212686
0.0220154
0.0240709
0.02145
0.0217792
0.445891
1.45228
0.630748
3.32713
0.0231815
4.22933
0.136658
3.17065
3.33006
0.0215103
0.0213323
0.223914
0.0215074
0.0211181
0.542402
3.00234
2.6398
0.0213967
0.0215094
0.0249081
0.0359968
0.45662
0.0209804
0.0241901
0.560049
0.0209413
0.59725
0.0354713
2.66777
0.0217776
0.295807
2.75704
0.0338897
3.20798
0.102696
3.4108
0.0211685
0.0248485
0.0208228
0.0287042
5.81961
0.0224649
6.06493
0.0237716
0.021439
0.0214437
3.24945
0.041351
0.102544
0.435184
0.0213145
0.0421094
5.9489
0.0538147
0.0215515
0.0232628
0.0215086
0.0555541
0.0214258
0.0210627
3.32155
3.44555
3.18032
2.55892
0.386727
3.9947
0.0630437
3.42144
0.124202
0.0211088
0.0216209
0.0208412
0.0216546
3.27702
3.23498
0.0215804
6.98353
3.21828
0.0283
0.0228911
0.0245723
2.40655
2.87986
3.02769
2.22351
3.03092
0.0207844
0.164073
0.0961483
0.157932
3.26638
0.0213311
0.119149
4.08167
0.0314505
2.66361
0.0218277
0.0866138
3.88543
3.09665
0.0670629
0.029955
5.44904
0.119937
3.13866
3.12656
2.98193
0.103915
2.10809
0.0215271
0.0252366
0.0441274
4.27751
0.299442
3.53669
0.0227994
0.126178
0.0776116
0.0231292
3.05346
0.0213501
0.118897
3.98964
0.0213603
2.38505
2.78236
3.11682
2.3172
0.248436
0.312698
0.0211222
3.31021
0.023722
0.0224183
0.0392122
0.0236056
3.18017
0.0237806
0.0246407
0.0238409
0.0214928
1.02998
0.0228008
0.106059
0.232443
0.0205749
3.83978
0.0951933
0.0231213
9.30764
0.229151
0.0213465
0.927711
0.0220105
3.20495
0.119548
0.0217812
0.106766
0.0228592
3.37903
3.06652
0.0654391
1.02894
0.0261688
0.021486
2.84282
0.0237533
0.0213879
2.57853
0.0377816
0.0208693
0.0208041
0.130384
0.0227012
3.93519
0.171685
0.0683176
3.87291
0.0481576
0.0632055
0.0211818
3.41161
6.52898
3.64635
0.0214003
0.0214264
0.067167
0.0294143
0.53068
0.021424
0.675584
0.021342
0.566673
0.0220137
0.158087
0.222063
0.104532
3.65245
1.23298
3.0024
3.06572
0.0209957
1.24971
1.81032
4.70384
0.0219832
0.207486
6.16018
4.35788
0.106184
0.243929
0.672182
3.4806
0.0419702
0.173872
0.0205943
0.0442107
0.0395781
0.0213155
0.062726
3.88522
0.115607
4.32819
1.24827
0.0211564
0.020804
0.0309802
0.0213217
1.22947
0.0210446
0.0207573
3.58098
0.211404
0.0350445
0.094816
0.0227675
0.102951
4.0223
3.1361
3.87816
0.0250468
3.10112
0.023153
0.0212783
0.0230478
3.25197
0.234622
0.162293
0.202411
0.0222507
0.0208051
0.0213215
0.0218253
0.0259901
3.31013
1.91923
0.0278307
3.09565
3.99347
0.221393
6.73352
0.0214204
0.0288168
0.86619
0.0214047
0.0235503
0.0262158
0.023723
2.51635
3.15658
0.0210778
0.0369985
0.0286649
0.0732879
4.13899
2.15484
3.4161
0.0217999
0.0738193
3.30885
0.0727421
0.106304
0.149275
2.39613
3.64127
3.39801
0.0208734
1.99734
0.0213609
0.0232838
0.0213404
0.0596647
3.57342
6.8077
0.673557
4.59212
0.0559836
0.0211688
0.0207982
0.0215134
0.0229572
0.0414783
3.48056
3.29155
0.0685912
0.151704
0.0216654
0.0559072
0.0206248
3.11074
0.0785745
0.0217063
0.180627
0.0940766
1.82662
3.75269
0.134599
8.37897
0.0244653
3.50442
0.20769
3.15778
0.412483
0.0230317
0.0556991
0.021476
2.86092
4.31157
0.0386414
2.58474
0.189046
2.7301
0.067578
1.84048
0.0448526
0.0208868
0.110063
0.0600531
0.0239068
0.0555547
0.0297929
0.0311325
6.67506
0.142594
0.0231382
0.0291838
0.0349084
0.0310729
0.0232219
1.92513
0.105935
0.393409
5.92192
0.0213896
3.25568
0.0214621
0.0243886
0.0233584
3.1968
0.0359801
3.18497
6.11212
0.0598372
0.0973591
0.107252
1.87027
0.123822
0.777612
0.024032
0.0420996
0.0220465
3.26037
0.554973
0.0239317
0.0228356
0.0353656
0.0254585
0.0241207
0.0451083
0.0370568
0.0215877
0.0331641
3.97445
3.46229
0.121865
0.0390269
0.0209415
2.19761
0.0310701
0.0578914
0.123021
0.0398533
1.6894
0.0211137
0.0242365
0.0243994
0.0326686
0.0212089
3.39606
0.186434
0.707763
0.036354
3.13511
0.216741
0.0252332
1.95508
0.0591768
0.206614
4.93674
0.0561936
0.023774
0.0378645
0.0674792
0.0246394
0.639926
3.94289
0.440361
0.0208912
0.228402
1.38984
2.17345
0.0212633
0.0418242
0.021105
0.0294974
1.06759
0.0283961
0.0281159
0.0208794
0.0208588
2.45632
3.20091
0.0214161
2.13416
0.196109
0.0211456
0.0277585
3.29802
0.113067
0.0939385
0.0213702
0.0264791
0.226361
0.0230569
0.0210762
2.91484
0.0284281
3.36119
0.0740427
0.0256531
3.59424
0.139965
0.148
0.0209259
0.548944
0.0289234
0.0260302
1.59096
0.0382863
0.0215882
0.0982469
0.0241722
0.0255496
0.0214213
0.17493
0.0213639
0.0720217
0.513162
0.0969815
0.0215063
0.192991
0.0296753
5.04902
0.367657
3.58904
0.118823
3.09963
0.020672
0.0692417
0.0250347
0.0211209
0.530918
2.72407
0.0245875
0.139701
0.0260753
0.0664263
3.65136
0.0255158
0.145311
0.788537
2.65935
1.88079
1.38205
0.0239192
0.0207025
0.0730588
0.0345639
0.704217
1.68883
3.09992
2.08097
3.20935
0.0208335
0.170491
0.0213975
0.0223266
0.0215538
0.554475
0.207429
0.0845314
0.0210463
9.94797
0.0266689
3.74637
0.022458
0.0642852
0.0292593
0.0626322
0.0405289
0.0940687
0.0227094
0.195971
0.95149
0.0209503
3.71848
0.213649
0.176137
0.0226554
0.0289878
0.0215876
0.0210768
0.057898
0.0421006
4.18548
0.1865
0.0756889
0.265083
0.0220411
0.236916
0.0579361
2.02787
0.029625
0.030225
0.551437
0.0308655
0.0436682
0.693755
4.53656
0.0235307
0.0216815
2.99864
0.0306014
0.0234539
0.0281588
0.0291731
0.0211487
0.0261165
3.16639
0.0224034
0.0405454
3.20597
0.10262
0.0670892
1.55076
2.05338
3.2753
2.63006
0.402898
0.0553041
0.823637
0.0226598
0.0244398
0.0214894
0.0209867
4.94099
0.533009
0.0315225
0.0206757
0.759908
0.123784
0.0229638
0.0250061
0.0511296
0.021224
0.0229459
1.03659
0.0259851
0.0350971
0.0351221
0.0228188
0.10082
0.0585077
0.0287451
2.55925
0.0943268
2.52897
0.884672
3.16832
0.0240197
3.29792
0.155561
0.13606
0.0698786
2.04229
0.0664581
0.0260669
0.0455369
0.0622059
0.0232763
0.0800696
0.021095
0.0212547
0.0213361
0.024176
3.35051
0.0210443
0.0941373
0.024581
0.0234812
0.0241349
0.28081
0.0231818
0.0636836
0.0215296
0.0242255
0.0246937
0.021654
0.117487
0.0233821
0.021148
0.0222235
0.0289338
0.0225356
1.70487
0.026587
4.45064
0.143176
2.60116
0.0561487
0.0785885
0.0412541
0.0378277
0.0313275
0.0246907
1.66184
2.85268
0.155354
0.064901
0.0303841
0.0223365
2.45066
0.0386885
3.17416
0.0232017
1.10954
0.132201
0.185761
0.848401
0.0212369
0.0214116
0.021045
0.028017
2.92816
0.049109
1.14564
0.0256107
0.0280593
0.0210097
0.0218245
0.0336587
0.0234456
0.0238834
0.0218134
0.216919
0.174235
3.19612
0.0245613
0.316748
0.0217971
0.0218534
0.0942654
0.021908
0.0239096
0.0590644
0.0239615
0.0756235
0.0214186
0.0302872
0.0215332
0.0243067
3.19148
0.0211505
0.0233822
0.0225839
0.023807
0.735154
0.0217625
0.0460044
1.53443
0.0244025
0.0287244
0.0223715
0.0231372
0.0217675
0.156953
0.0214873
0.026824
2.94224
0.0207756
0.0284011
0.0461442
0.0648355
4.37351
0.0211752
0.023574
0.0222851
0.0292058
0.151963
0.207765
4.43404
0.0211229
0.0289644
0.0824337
0.023453
1.60732
0.0209001
0.0215645
2.51052
0.0381097
0.0234838
0.0210695
0.204493
0.513765
4.03274
0.0215653
0.478878
0.0209763
0.0207544
0.0233532
0.0684772
3.6161
0.021515
0.0209172
0.469574
0.0214837
0.0230866
0.335186
3.01922
0.0214835
0.0209606
0.0232882
0.0304572
0.173908
3.21549
0.021841
0.0943893
0.0223831
0.021356
2.66015
0.0238719
0.0218975
0.0293242
0.172379
0.120372
0.0231788
0.0221039
1.79653
0.0386209
0.0223178
0.47811
2.54812
0.0214743
0.0217258
0.0230069
0.0213575
0.0214766
0.0219325
0.0214707
0.0376225
0.0229205
0.0503648
0.0441388
1.87468
0.597005
0.0299247
0.0210991
0.0214341
0.0221402
0.0230006
0.0384332
0.0280889
1.68112
0.0235736
0.10418
0.024335
4.49113
3.95859
0.0277885
0.0225869
0.1249
0.0236378
0.0273784
0.0213859
0.0222606
0.021104
0.147863
0.053376
0.062442
0.0947778
0.0231743
0.0259915
0.0221835
3.2566
9.58884
0.481619
0.0269176
0.104858
0.0957381
2.98546
0.0219171
0.387855
0.0602472
0.0213937
0.0217727
4.93498
0.0215172
0.022497
0.0230906
1.5465
0.0214802
0.0217361
0.0260774
3.3083
0.0209625
0.0500624
0.647506
0.0234175
0.0215023
0.0211714
0.0214177
0.0217519
0.0217042
0.104715
0.0223953
0.0214845
0.0217131
0.0217394
0.0278123
0.021376
0.197475
0.0215492
0.0216968
0.036028
0.0395414
0.0366489
3.98171
1.13445
3.29783
0.0350176
0.0216723
0.0464342
2.7771
0.0215043
0.339407
0.0233946
0.336642
0.0232966
0.039879
0.0217427
0.0213812
0.103231
0.236535
1.791
0.080946
3.29386
0.0217191
0.0221129
1.87409
0.021464
0.0214902
3.12941
0.0210059
2.30968
0.0214385
0.159191
0.095209
0.0235481
0.112116
0.032966
0.0701967
1.06678
1.11727
1.30622
3.07228
0.557664
2.76319
0.021543
3.95118
0.0214793
0.0213086
0.0213111
0.0219205
0.283045
0.0223448
3.62814
0.0215294
0.0213718
0.0215579
0.481027
0.0234051
0.0214409
0.0579536
0.025836
0.0264266
0.0247518
0.0275574
0.176238
1.88361
1.03209
0.124479
0.0909452
0.0223029
0.980896
0.0214464
0.0295943
0.0911913
2.54697
0.0478146
3.3355
0.0214748
0.618376
2.63722
0.13453
3.30537
0.168145
0.0233289
0.0213194
0.0240775
0.0214868
0.0213019
2.90213
2.90658
0.0210723
0.982382
0.0214136
0.0956645
0.0209914
0.244603
0.0280109
0.0232314
0.0214518
0.147667
1.24
0.448016
0.0205768
0.0206654
0.0259409
0.0219654
0.0221626
1.2317
1.09944
0.042814
0.244924
0.0491622
0.0217677
0.0332237
0.15525
0.0218634
3.04633
0.053768
0.360718
0.023178
0.0239105
0.0215388
0.0208466
0.0213646
0.026338
0.0207854
5.09796
0.0420555
1.09394
0.0212787
0.0552259
0.0214799
0.607049
0.0449319
0.0533363
2.99083
0.0258183
0.0213315
0.0247351
0.0217917
11.2665
0.451758
0.0488378
0.0536047
3.37494
4.10836
0.105488
0.0483492
0.0213918
0.0231162
0.0230468
0.103163
1.10251
0.0258373
0.0215648
0.715128
0.286205
0.0217518
0.0231346
0.0538089
0.0223482
0.0209619
0.0472722
0.0214821
0.0218533
0.0209357
0.0233284
0.0220069
0.0608148
6.66108
0.0214595
0.27493
0.0919418
0.0962449
0.0209255
0.0232123
0.0829554
0.0254121
0.0214299
0.859658
0.0213503
0.0533647
0.0215892
0.0540089
1.80909
0.0531031
0.0224817
0.0596807
1.78121
1.5033
0.0214278
0.0337105
2.86249
0.0212711
0.022405
0.068756
11.4595
3.38084
0.0235574
0.0213591
0.0462097
0.0212863
0.0222416
0.0284453
0.0217609
3.4124
0.0217743
1.12881
0.0214869
0.0214628
0.154634
0.021362
0.0215424
0.0285566
0.652819
0.0205691
0.0393694
0.0218394
0.0212102
0.0215707
0.0272997
0.0255103
0.0747334
0.0231149
0.0217317
0.0218055
0.0358738
0.0223244
3.26112
0.0219818
0.0970845
0.0319805
0.02268
0.0268506
0.632235
0.0214944
0.0220127
0.0209379
0.0928879
0.474287
0.0233924
0.0413268
0.0209374
0.0399937
0.0214453
0.0671063
1.63883
0.023503
0.0258219
0.0275323
0.0323342
0.0231468
0.0207254
0.0443818
0.0214056
0.0219759