/*--------------------------------*- C++ -*----------------------------------*\
| =========                 |                                                 |
| \\      /  F ield         | OpenFOAM: The Open Source CFD Toolbox           |
|  \\    /   O peration     | Version:  v2012                                 |
|   \\  /    A nd           | Website:  www.openfoam.com                      |
|    \\/     M anipulation  |                                                 |
\*---------------------------------------------------------------------------*/
FoamFile
{
    version     2.0;
    format      ascii;
    class       surfaceScalarField;
    location    "150";
    object      meshPhiCN_0;
}
// * * * * * * * * * * * * * * * * * * * * * * * * * * * * * * * * * * * * * //

dimensions      [0 3 -1 0 0 0 0];
oriented        oriented;


internalField   nonuniform List<scalar> 
20537
(
-0.00617292
-0.000286138
0.0065085
0.00791894
-0.00584521
-0.00207279
-0.000799957
-0.00307654
0.00387831
-0.0101839
0.00554884
0.00467888
0.00231765
0.00147669
-0.00379313
0.00542339
0.00190532
-0.00730966
-0.00748447
0.00600306
0.00157569
0.00230368
-0.00470221
0.00240154
-0.00286484
0.00375589
-0.000784222
0.00539016
-0.00239646
-0.00299112
-0.000664409
0.00181162
-0.00114172
-0.00364217
-0.000200704
0.00384312
0.00176908
-0.0022597
0.000490767
0.000938043
0.00140001
-0.00233806
-0.000577052
-0.00156056
0.00255275
-0.00320817
-0.00222509
0.00544319
0.00718538
-0.00211354
-0.00505172
-0.000884283
-0.00488624
0.00579068
0.00147686
0.00122964
-0.00270618
-0.00363137
0.000878522
-0.00459945
-0.00551171
-0.00452222
0.00372431
-0.000110375
2.27274e-05
0.000124443
0.000292779
-0.000309361
0.000180289
-1.51159e-05
-5.88635e-05
-0.00240557
0.00471267
0.0055678
-0.00446351
-0.00108998
-0.000911124
-0.000462983
-0.00824641
0.00212442
-0.00806292
0.00120775
0.00688868
-0.00175837
0.00719965
0.00382381
0.00337922
-0.0048366
0.00176226
-0.00245627
-0.00151081
0.00397213
-0.000214234
0.000678051
-0.00165661
-0.000390227
0.00204702
0.00229546
-0.00112906
-0.00116631
0.00170457
0.0015127
-0.00321676
0.00393608
0.00145603
-0.00535901
0.00290867
-0.00779698
0.00437828
0.00352549
0.000229549
7.66254e-05
-0.000296087
0.00117448
-0.000392441
-0.000782036
0.00126839
0.000475302
-0.00174135
-0.00041059
0.00168084
0.00186914
-0.00106105
-0.000808077
0.000485985
-0.00170486
0.00121846
-0.0067212
0.00195376
0.00478012
0.00427449
0.00130603
0.00485514
-0.0041911
-0.000638649
-0.00194238
0.00344676
-0.00150336
0.00148004
-0.00295397
0.00147431
0.000461122
-0.00111201
0.000650892
0.000263458
-0.00112515
0.00125734
-0.000263836
-0.000742996
0.0013663
-6.63831e-05
0.00030572
-9.83339e-05
0.000472665
-0.000285922
-0.000632477
-0.000812011
0.00144449
-0.00659125
-0.00143246
0.00616456
-0.00755572
0.00147549
0.00329349
-0.00158833
-0.00179746
-0.000446189
0.00224373
0.00266448
0.00457894
-0.00722865
-0.00139308
-0.00179974
0.00319358
0.00633409
-0.0012535
-0.00507586
0.00201228
-0.0070761
0.00509813
0.00126085
0.00103467
0.000301619
-0.00173976
0.0023144
0.00228554
-0.0045957
-0.0060012
0.00513862
-0.00107349
2.11982e-05
0.0010523
0.000814986
0.00100787
-0.00182281
0.00487271
0.00304679
0.00181388
-0.0010883
-0.00196188
0.000375321
0.00190526
0.00127063
0.00232771
-0.00352899
-0.00118686
-0.00333409
0.000991697
-0.00141748
0.000425783
-0.00432396
0.00251742
0.00180879
-0.000227135
0.00115467
0.00753378
-0.00226233
-0.00520649
9.56336e-05
-0.000140814
4.47638e-05
-0.00496108
0.00695438
-0.00180179
0.00103379
-0.0018417
0.000807915
-0.00406685
0.00674634
0.000294003
-0.00393594
-0.00197726
0.00706804
-0.00506667
0.00491037
-0.00379032
-0.00111916
-0.00495005
-0.000456996
0.00542256
0.00273148
-0.00210798
-0.000577964
-0.00250467
0.000848228
-0.00861141
0.00496615
0.003678
-0.00118175
-0.00548241
0.00287189
0.00261879
-0.00751604
0.00258284
-0.00022952
-3.71737e-05
0.000357979
0.00337116
-0.00105241
-0.0021002
0.00171314
0.000387098
0.00386735
0.00101049
-0.000190217
6.75479e-05
-0.00178482
0.00186781
-8.30138e-05
0.00242252
0.00152581
-0.00394653
-0.0079684
0.0034193
0.00460365
-0.00366006
0.00510622
-1.95096e-05
3.03876e-05
-3.44628e-06
0.00199041
0.00478576
-0.0067512
-0.00189905
-0.00154691
0.0034474
0.000133651
3.30149e-05
-0.000159099
-0.000995703
0.00163574
0.00711795
-0.00519411
0.000201633
-0.000185449
9.5306e-05
0.00202846
0.000749272
-0.00475937
-0.00381934
7.97277e-05
7.51309e-05
0.000459437
-0.000139238
0.00296057
-0.00637261
-0.00127043
-0.000829721
-0.000231803
0.000162885
8.21776e-05
0.000429996
0.000264103
-0.000449056
0.00113981
-0.000237928
-0.00059594
0.00115851
1.59696e-05
0.00279895
-0.00644279
-0.000665957
0.00243517
-0.00670764
-0.00204877
-0.00465639
0.000251289
-0.00115894
0.000925487
-0.00682863
0.00479542
-0.00325358
3.33118e-05
0.00322206
-0.00901435
0.0044736
0.00122124
-0.00276672
0.00154599
-0.00321208
-0.00446173
-0.000964456
0.00326826
-0.00213703
1.4454e-05
-0.00108795
0.00136894
-0.00612661
-0.00350623
0.000771425
0.000534448
-0.00110724
-9.50129e-05
-0.000119308
0.000939745
0.000938948
-0.00187865
-0.00298804
0.00185426
0.00113381
-0.00167443
0.00322938
-0.00155512
-0.000268529
-0.0015163
0.00106154
-0.00093437
-0.00551876
0.00238829
0.00318362
-5.66482e-05
-0.000527353
0.000597581
-0.00318245
0.00608552
-0.00287413
0.00173175
-0.00125393
0.000118798
-5.15077e-06
-0.000109675
0.00321015
-0.00198821
-0.00577966
-0.00158707
-0.00158891
0.00118006
-0.0031079
0.00144005
-0.000824161
-9.60165e-05
0.00124315
-0.00114126
0.00207929
-0.000316894
0.000295274
8.60405e-05
0.0044571
-0.00452069
0.00372327
-0.00687332
0.00087847
-0.0051754
0.00440594
0.00569556
-0.00698522
0.00132367
0.00234605
-0.000865644
-0.00345294
0.00151166
7.46932e-05
-7.36888e-05
7.9501e-07
-0.00489075
0.00266075
0.00223616
0.000610251
-0.00124273
-0.00267886
0.00186497
0.00583148
0.00192984
-0.00773653
-6.57337e-05
0.000553342
-0.000472508
2.35848e-05
9.82096e-05
0.00435172
-0.00203331
-0.00500156
-0.00395346
-0.00112341
0.00179141
-0.000667978
0.00110368
-0.00011198
-0.00153149
0.000343812
0.00127645
0.0052692
-0.00428444
-0.00327305
0.0015985
-0.000770158
-0.00175272
0.00665109
-0.00468407
0.00118897
-0.00444015
-0.0028713
-0.00145553
0.0043704
0.00288202
-0.00140488
-0.000133153
-3.71744e-05
0.000176446
0.00224229
-0.00617901
0.00395077
0.00175477
0.00627767
-0.00432243
-0.0017608
0.00336968
0.00035586
2.52638e-05
-2.235e-05
-6.00514e-07
-0.000147014
-8.26942e-06
0.000212257
0.00706812
-0.00502217
0.00123363
0.000225592
-0.00163472
-0.00173336
0.00336908
-0.0039146
0.00530411
-0.0013861
-0.00125403
0.00116495
-0.00070383
-0.00249442
0.000417589
0.00211326
0.00247503
0.00182859
-0.00429966
0.00110195
-0.0028993
0.000118018
0.00502949
-0.00511947
-0.00173096
-0.00373567
0.00479537
-0.0015682
-0.00322042
0.00248762
-0.00530536
-0.0023852
0.00372571
0.00121619
-0.000946105
0.00224946
-0.00109899
-0.00115045
-0.000153018
0.000548042
-0.000121494
0.00259259
-0.00579929
0.00337611
0.00511432
-0.00239905
-0.00271209
0.00144377
0.00502166
-0.00349717
0.00237136
0.00112591
0.00640309
-0.00594178
-0.000443639
-0.000817689
0.00147034
-0.000652649
-0.000118047
8.87734e-05
3.36428e-05
-0.0017308
0.00129085
0.000439975
-0.00564333
-0.00226062
0.00171914
-0.00496776
0.00325024
9.60368e-05
2.82154e-05
-0.000118234
0.000135148
0.000440599
-0.000562368
-0.000472805
0.00153441
-0.0010537
0.00779223
-0.00270987
-0.00506502
0.000850249
0.0010189
0.00410398
-0.0024176
-0.00139382
0.000549973
-0.00136766
0.00176323
0.00465368
0.00634226
0.00124794
-0.00181049
0.00103505
0.000775464
-0.00293428
0.00107411
0.00186064
-0.00172602
0.00100275
0.000723285
8.71805e-05
5.39454e-05
-8.70047e-05
-0.00546071
0.00369001
0.00177807
5.25802e-06
-1.55565e-05
0.00082598
-0.00116438
0.000338399
-3.99101e-06
0.000103371
0.00275856
-0.00516018
-0.00200183
-0.00370208
0.00570808
-0.00120798
-0.00023745
-0.000429593
0.00128167
0.0020446
-0.0033252
0.00682357
-0.0051689
-0.00164342
-0.00271028
-0.000786786
0.00512023
0.00121673
-0.000582508
0.000540772
-0.00249683
0.00524223
-0.00710463
0.00536422
0.00441967
-0.000244381
-0.00416418
6.59936e-05
-9.91929e-05
3.38892e-05
0.00224784
0.00286911
3.19372e-05
7.10915e-06
-0.000931794
0.00133322
-0.000401423
-0.00100327
0.00342736
-0.00147127
-0.00310282
0.00457543
0.00234218
0.00416896
-0.00648072
0.00619642
-0.00528603
-0.00089101
0.00123574
0.00394157
-0.00514195
0.000629964
0.00379308
-0.00581369
0.00625227
-0.000390577
0.00609384
-0.00456621
0.00266996
0.00189789
-0.0013825
0.00668491
-0.00529327
0.00202026
-0.00593061
0.00168183
-0.000742845
-0.00148351
0.000551838
0.00093167
0.0059534
-0.00424502
-0.00147746
-0.000434281
0.000966002
0.00571106
-0.00665346
0.00420635
-0.00694849
0.00274831
0.000491239
-0.00130795
0.000840905
-0.00100147
-0.00150328
0.00250498
0.00444924
-0.00430687
-3.30933e-05
-0.00573328
-0.00025169
-0.00522265
-0.000779694
-0.00103076
0.00197163
-0.00226371
0.000308155
0.00511624
-0.00384501
0.00514095
0.00323604
-0.00678379
0.00355818
-0.0022194
-0.00210205
0.00301983
-0.00621693
0.00137
0.00205779
-1.05037e-05
0.00010596
-0.000369002
0.00126534
-0.000886368
-0.00177121
0.00110427
0.000666951
-0.00143432
0.000774777
7.05184e-05
-6.00099e-06
-8.11309e-05
3.86841e-05
4.80126e-05
-1.70651e-05
-9.90191e-07
2.35623e-05
-0.00199093
-0.00257356
0.00671464
-0.00250225
-0.00170115
-0.00526227
0.00697193
-0.00442895
0.00249143
0.00203424
-0.00321423
-0.000493015
0.00400983
0.00673968
-0.00349313
-1.76663e-05
4.428e-05
-2.83074e-05
0.00165392
0.00155677
-0.00694629
0.000385065
0.00601787
0.000217589
-0.00235113
-0.00185041
0.00420503
6.24239e-05
-8.10811e-05
-0.0026928
0.00169158
0.00666557
-0.00599208
-0.000660203
0.00434971
-0.00405546
0.00202091
0.0011742
-0.00305581
0.000456765
-0.00138855
-0.00448388
-0.000400607
-0.00670136
0.0046061
-0.00172792
0.00125807
0.000469862
-0.0082812
0.00264203
0.00570715
-0.00494152
0.00695672
0.000455181
0.00133917
-0.00179434
-0.00173503
-0.00258348
-0.00435497
0.00269795
0.00165915
-0.0027527
0.00563458
-0.00592611
-0.000987177
-0.00193209
-0.00105588
0.00341751
0.00326098
-0.00392007
-0.00184128
0.00581064
-0.00134154
-0.00032456
0.00166614
-0.000112966
0.00040564
-0.000280834
0.00598601
0.000224718
-0.000134594
0.00132449
-0.00117343
-0.000764816
-0.00100638
-0.00114657
0.00248129
-0.00133444
0.00167058
0.002705
-0.00136757
0.00353154
-0.00216231
-0.00486139
0.00132532
0.00382782
-0.000333158
-0.00115035
-0.00688481
0.00419461
0.00272549
-0.000106034
-2.00575e-05
0.000170908
-9.70688e-05
0.00424671
-0.00407268
0.00150063
-0.00264687
-0.00264295
-0.00280972
-0.00306572
0.00564682
-0.00255792
-0.00348566
-0.0018352
-0.00636937
0.00308216
-0.0069443
0.00132143
0.000494954
-0.00111237
-0.0011604
0.00110865
-0.00206348
0.000954865
-0.00730229
0.00271519
0.00460874
-0.00101905
-0.000708855
-0.00297223
0.00132871
0.00164372
0.00161301
0.00421091
-0.00173202
-0.00127728
0.00293173
0.000698428
0.00442655
-0.00509678
0.00711932
-0.0030321
-0.00407697
0.00267854
-0.000966922
-0.00171122
-0.00146287
0.00622018
-0.00104
-0.00514063
0.00475186
-0.00676131
0.00201192
-0.00155773
0.000948441
0.0006093
-0.00183343
0.00069274
0.000891341
-0.00156873
0.000688736
0.00168942
-0.000786289
0.00182605
-0.00342106
0.00159557
-0.00590347
0.00286082
0.00424541
0.00288084
0.00113031
-0.000304329
0.000933258
0.0044375
0.00668093
-0.00192698
-0.00413014
0.0041101
-0.00092172
-0.00361302
4.6238e-05
-6.97813e-06
0.000178303
-3.75886e-05
0.00502861
-0.00147916
-0.00342226
-0.000984017
-0.0005737
-0.000369546
0.00308414
-0.00270927
0.00508149
0.00107182
-0.00604445
-0.00210373
-0.00224852
4.22954e-05
0.000363425
-0.000393698
0.000413487
0.00393653
0.00080515
0.00463863
-0.00543545
-0.0073208
0.000717392
0.000911999
-0.00203538
0.00615882
-0.000973366
0.00219711
0.00560125
0.00589077
-0.00380872
-0.00207258
-0.00534789
-0.00196602
-0.00750754
0.00307936
0.00455869
0.000180896
-4.37678e-06
0.00720317
-0.00551139
-0.00166077
-0.0004503
0.00141971
-0.000969422
-0.00037396
-0.003334
0.00140196
0.0056969
0.000898959
0.00177991
0.000720369
0.00107106
-0.000814981
0.00162577
-0.000802148
-0.00168691
0.000880835
-0.00653013
0.00387632
0.00268734
-0.00115115
0.00278884
-0.00149287
0.000797722
0.000533042
-0.000909009
-0.00238055
-0.00489862
-0.00318267
0.00181638
-0.00101864
0.00241861
-0.00119332
-0.00273198
0.0039291
-0.000838205
-0.000887801
0.000969779
-0.00171559
0.00074582
0.000342309
-0.000290966
0.00508353
0.00105795
0.00202067
-0.00113755
0.000147523
0.000990025
-0.00558376
0.00358636
0.000917541
-0.00218792
0.00181927
0.00541402
0.00261523
0.00328395
0.000197363
4.58342e-05
-0.000163029
-0.00154355
-0.00142842
-0.00161498
-0.000614695
0.0023166
-0.00494605
0.00272848
-0.00237022
-0.0041226
0.00198186
0.00471968
-0.00659695
-1.31077e-05
-0.00408138
0.00244706
-0.000385858
0.000331302
0.00153726
-0.00292967
0.00514588
-0.006752
0.00161498
0.00138042
-0.00145668
7.62695e-05
0.00505286
-0.00757098
0.00254348
0.00163384
-0.00486359
0.00688774
-0.00199852
0.00398069
-0.00334792
0.00194764
-0.00630567
0.00437515
-0.00167453
0.00350119
-0.00210689
-0.00457504
-0.00139613
0.000931043
-0.000203819
0.00012569
-0.00144299
-0.00253288
-0.0001179
2.79146e-05
-0.00163713
-0.00157646
0.0032141
-0.00421192
0.00140563
0.00280695
0.00170018
0.00173689
-0.00343647
-0.00679223
0.00195234
0.00104726
0.00311488
-0.00462089
-0.00689456
-0.00071422
0.00303158
-0.00174907
-0.00289573
-0.00447521
-2.15281e-05
0.00401438
-7.55131e-06
-3.16852e-05
5.36532e-05
0.00170931
-0.00393987
0.00223118
0.00446762
-0.00067466
-0.00378291
0.00461202
-0.00254518
-0.00206445
0.000817119
-0.00133277
0.000515657
-0.00252954
0.00507034
0.00032151
-0.00110283
0.000790012
0.000897371
0.00357516
-0.00153529
-0.0005131
2.60391e-05
3.30424e-06
-0.00270791
-0.00227924
0.00499408
0.0037084
-0.000115103
0.00209885
-0.0014309
-0.000373131
0.00189455
0.00232282
-0.00655279
0.00428542
-0.001616
-0.00327423
0.000320646
-0.00763763
0.00316891
0.00448882
-0.0016684
-0.00231775
0.00398586
-6.65518e-05
0.000209838
-0.000568695
0.00488622
-0.000622385
-0.000724631
0.00134702
0.00703244
-0.00118079
-5.04759e-05
-2.83112e-05
0.00220372
0.00270738
0.0014162
-0.00242859
0.00530484
0.00264219
-0.00178935
-0.000749376
-0.0069049
0.00578552
0.00113049
0.00687026
-0.00529742
-0.00153526
-7.42412e-05
0.00244103
-0.00491842
-0.00218908
0.000847599
0.00385107
0.00326259
-0.00223155
-0.00195781
0.00419265
0.00161745
-0.000650581
0.00665063
-0.000450241
-0.00617317
0.000353325
-0.00126599
0.000920009
9.72487e-05
6.33944e-05
-0.00146666
0.0060046
-0.00444399
-7.4954e-05
0.000281767
-6.55767e-05
0.00704745
-0.00216456
-0.00486885
0.00595988
-0.00685369
0.000950839
0.00512092
0.00196938
-0.00598646
0.00186086
0.000282599
-8.69807e-06
-0.00220877
0.00124261
0.000966154
0.00121079
-0.000393666
-0.00628159
0.00472215
0.00172001
-0.000299078
0.00698052
-0.0037861
0.0057497
-0.00428029
0.00404599
-0.000722463
0.00175625
0.00354183
-0.00405073
-0.00268183
0.00231743
0.00743595
-0.00423245
0.0017579
-0.00353063
0.00177384
-0.00474877
0.0068921
-0.00205289
0.000477686
-0.00118756
0.00070987
0.000163507
-5.58489e-05
-9.244e-05
-0.00109404
-1.79711e-05
0.00296249
0.00242705
-0.00538594
0.000332498
-0.000245984
0.0066324
-0.00690037
0.000595911
-0.0018908
0.00129491
-0.00166151
0.00442333
-0.00157994
-0.00053308
0.00211341
-0.000278966
0.000943937
0.00418583
0.00225716
-0.00643713
0.000399685
-0.000764801
0.00228908
-0.000718228
-0.00143052
0.00112157
-0.00327798
0.00230006
0.00171964
0.00492419
-0.00653539
-0.000540647
-0.0005969
0.00179536
0.00165101
-0.00344521
-0.00120681
0.0025846
-0.00137747
-0.000967414
-0.001097
0.00206456
-0.00676011
6.66649e-05
1.07033e-05
0.00187093
-0.00249571
0.000624964
-0.00137571
-0.00283219
0.0057166
-0.00346153
0.00478731
-0.00211928
-0.00129446
-0.00297245
-0.00456211
-0.00214308
-0.000691095
-0.00103968
0.000950376
-0.000864187
0.00033786
-0.000836061
0.00131375
-0.00178351
0.00134001
0.000909467
0.0053632
0.00528256
0.00137378
-0.00172781
-0.00480524
-0.000836451
0.00116699
0.00589974
-0.00727199
0.00345984
0.00133673
0.00172075
-0.00359109
0.0018709
-0.00129709
0.00702611
-0.002045
0.00376623
0.00145168
-0.00216927
0.00071764
7.04949e-05
0.000109131
-0.00119573
-0.00165645
0.00126126
-0.000514131
-0.000747127
-0.00198842
0.00618524
0.00460339
-0.00516191
0.000777118
-0.00361012
-0.00144829
0.00467059
-0.00559339
0.00103002
-0.00332353
0.00168977
0.00514616
-0.00682786
0.00169286
-0.00600113
0.00221184
0.0023193
-0.00398787
-0.000815874
-0.00020429
0.00116989
-0.00141841
0.000796029
0.00143158
-0.000691992
-0.000739588
-0.00186072
-0.004878
0.00676031
-0.00449089
0.00311836
0.00212366
2.69058e-05
1.8395e-05
-4.41716e-05
0.00241549
9.37716e-05
-0.000134803
4.06032e-05
-0.000472373
0.00234344
-0.00111737
0.00559072
-0.00188539
-0.000958587
0.00284441
-0.00203262
5.50899e-05
0.00197768
-0.000259215
0.000202236
-0.00520565
-0.00160856
0.00683619
0.00671004
-0.00199306
-0.00471101
-0.00113375
-0.00228654
0.00128417
0.00166289
-0.00294646
-0.00103734
0.00049669
-0.00189759
0.00101832
0.000879307
0.00434222
0.00673767
-0.00465148
-0.00265118
-0.00258019
0.00523151
0.00142497
0.00135367
-0.00259096
0.00123755
-0.00360615
0.0024159
-0.00237451
0.00696676
5.28282e-05
0.0045457
-0.00501844
0.00066422
-0.00188122
-5.0259e-05
-0.000200623
0.00432822
-0.00628803
-0.000140608
0.000109466
0.00250679
-0.00172125
-0.00058889
-0.00010324
0.00155496
0.00157231
-0.00389771
-0.00286593
-0.000206393
0.000163583
-0.00178745
-0.00154651
0.00291827
-0.00447982
-0.00120993
0.0030931
-0.00174585
-0.000289646
-6.48602e-05
0.000418876
0.00123978
-0.000725855
-0.000585884
0.00103872
-0.00148903
0.00295254
-0.00442228
0.00467454
0.00207177
-0.000731746
-0.00230011
0.00649116
0.00476179
-0.00231232
-0.00244494
0.000782684
0.000478575
0.000570507
0.000899835
0.00494752
0.00130537
0.00442801
-0.00213843
3.49167e-05
-7.44463e-06
0.00109802
0.00325251
-0.00579432
0.00254917
0.00217828
-0.00107822
-0.00109998
-0.00457995
-0.0021764
-0.00302354
0.00113862
-0.00194899
0.0046309
-0.00267314
-0.00341212
0.00135027
0.00217159
0.00235211
0.00357867
-0.00592034
-0.00479021
0.0016258
0.00320933
-0.00206126
0.000481489
-0.00172253
-0.00148949
0.00321295
-0.00429303
-0.00148441
-0.00466007
0.00739682
-0.00178526
0.000448723
0.00522228
-0.000981934
-0.0042326
-0.0011348
0.00283547
-0.00226743
-0.00519462
-0.00675446
0.00398466
0.00506045
-0.00424787
-0.00731319
0.00223406
0.00514732
-0.00184578
0.00177686
-0.00341342
-0.00253828
-0.000395623
0.00202226
-0.00601058
0.00399885
0.00241012
-0.00105621
-0.0012608
-0.00204282
-0.00685064
0.00278785
0.00407077
-0.0029129
0.00173472
0.000337059
-0.00761053
0.00203923
6.83217e-05
-0.000268531
0.00031312
-0.00171066
0.00071499
-0.00587733
-0.000206258
0.0061194
0.00130012
-0.000579738
-0.00107595
-0.000406152
0.00148212
-0.00182876
0.00102709
0.000801673
0.00520017
-0.00299565
-0.00206663
0.000535234
-0.000702756
6.34049e-05
8.34718e-06
0.0027394
-0.000102435
-0.0024515
-0.000118021
7.61309e-05
0.00223226
0.000467759
4.76015e-06
-2.8835e-05
2.47077e-05
0.00739728
-0.00232148
-0.00493925
-0.00195304
-3.94633e-05
-0.000159945
0.00214124
-0.00343362
0.0012927
0.00498611
0.00284824
-0.000706745
-0.0044629
0.00131931
0.00325755
-6.98791e-05
2.92655e-05
5.02609e-05
7.11245e-05
-0.000120622
7.97932e-05
-0.00380275
0.00252613
-0.00268198
0.0014816
0.00120049
-0.00355134
0.000290888
0.00326165
0.00497817
6.64581e-05
-1.02093e-06
-0.000154486
0.000269249
0.000853416
-0.000565699
-0.000134059
-0.00525715
0.00121978
0.00410945
-0.00186863
-0.000527081
0.00239583
0.00191185
0.00159641
-0.00350837
-0.00483284
-0.00240692
-0.000181312
0.000148827
0.00659414
-0.00476924
0.000728043
-0.00587695
0.00239828
0.00180565
-0.0042031
-0.000543821
0.00119552
-0.000651695
0.00538154
-0.00142247
-0.000601874
0.00202439
-0.00432484
0.00658828
-0.00229882
-0.00432411
0.0014612
-0.00266764
-0.000115596
0.0020805
0.00320374
-0.00340422
-0.00708915
0.00489137
-0.00501434
0.000100687
-0.00365067
-0.0018343
-0.00150607
-0.00466041
-0.00698988
3.6719e-05
-2.96846e-05
-0.00426449
0.00389914
-0.000811332
-0.000521439
-0.00378564
0.00112255
0.00272868
-0.00108611
0.00619584
-0.00507221
0.00470043
-0.00706124
0.000761384
0.00166422
-0.00233976
0.00734867
-0.000595713
0.0014107
-0.00283297
0.0014222
-0.00342986
0.00170832
0.00121748
-0.0027205
0.00161164
2.17221e-05
-0.000106948
-0.00128211
-0.0030617
-0.00117541
-0.00103336
-9.13455e-05
-0.00194113
0.00168366
0.00515013
-0.00143711
0.000361161
-0.00277888
0.000929919
0.00193135
0.000835757
-0.000194351
-0.000223652
-0.000116876
0.00425314
-0.00654872
-0.00121715
0.00205147
-0.000834253
-0.00129837
0.00632161
-0.00500215
0.00214771
-0.0067472
0.0046574
0.0012668
-0.000905829
-0.00635695
0.00472523
0.00164894
-6.11345e-05
0.00015759
0.000677174
-0.00154389
0.00086672
0.00657369
0.000116226
0.000752779
0.000575209
-0.00132798
0.000230918
-0.00731652
0.00256152
-0.00121407
0.000629766
0.0005843
-0.00106868
-2.59055e-05
0.00109458
-0.0023571
-0.000147393
-0.00304891
-0.00169292
-0.000853397
-0.000798945
0.00165237
0.00659163
-0.000373488
-0.00101587
0.00419083
-0.00207499
-0.00211474
0.0020402
0.00257402
0.00656909
-0.00206869
-0.00448121
-0.000978504
0.00117967
-0.00418827
0.00303588
0.00110578
0.00306833
-0.00413566
-0.00214512
0.00101615
0.000419961
-0.000239759
0.000133026
0.00133142
0.00557414
-0.00301429
0.00185391
0.00142425
-0.000747079
0.00268837
-0.00571917
0.00303741
-0.00198948
0.00253074
-0.00640591
0.000895157
0.000379077
-0.00217068
0.000410894
-0.000335978
0.000819375
-0.000276004
0.00509223
-6.68692e-05
-3.82498e-05
0.00592022
-0.00393149
-0.0018619
0.000275552
-0.0011159
0.00110473
0.00129305
4.61312e-05
0.00153956
0.000225994
-0.000276427
6.46038e-05
0.00668918
-0.00170664
-0.00496622
0.00202224
0.00481374
-0.000628879
-0.000585187
3.35167e-05
-3.40178e-05
1.92017e-05
-0.00168006
-0.00336261
0.00509058
-0.00267878
0.00238924
0.000290132
0.00417288
-0.00177386
0.00309451
-0.000465529
-0.00262256
-0.000918082
0.000778654
0.000288088
-0.00769554
0.000924875
-0.00247256
0.00105014
0.00597532
-0.000884423
0.00187644
-0.000991988
-1.70064e-05
-0.00424326
0.000923118
0.00181597
0.00135131
0.00229968
-0.00362842
-0.000944133
0.000551693
-0.00558689
-0.00208931
-0.00600301
0.00146263
0.00455819
0.000187812
-0.000141095
-0.00358771
0.00209193
-0.00436082
0.00227068
0.00526304
-0.000300721
-0.00495688
-0.00544154
-0.00053002
-0.0021961
0.00357006
-0.000276539
0.00159991
0.00321143
-0.0048448
0.00261017
-0.00271265
0.0014958
0.00274246
-0.00423379
-0.00345823
0.0017259
0.0021391
-0.00505217
-0.00217342
-0.00169926
0.00233617
-0.000106214
-0.00222948
-0.00163998
-0.00683624
0.0055611
-0.000595311
0.00276997
-0.00217457
-0.00219793
0.00123067
-0.00557765
0.00771233
0.00114304
-0.00175197
0.000608945
-0.00200172
-0.00484093
0.00113694
0.00129766
-0.00243451
0.00294608
-0.00153546
-0.00184875
0.0011428
0.000705974
-0.000531772
0.00253697
-0.00199656
0.00314178
-0.00545651
0.0023206
-0.00198639
0.00474044
-0.00709822
-0.00159132
0.000779304
-0.00069865
0.00172904
-0.00523903
0.0035903
8.88678e-05
0.000103946
-0.000122309
0.00372873
-0.00168296
0.000107798
-2.46636e-07
-0.000106293
-0.000270333
-7.45091e-05
0.000357926
-0.00062113
-0.000568173
0.0011893
-0.00195467
-0.000742328
0.00552581
0.00109288
-0.0064959
0.000699624
0.000877941
-0.00137496
0.000497018
0.00158063
3.9142e-05
0.000559126
0.00232977
0.00319359
-0.00380186
-0.000231546
-0.000837133
3.58067e-05
-0.00190433
-0.00139319
-0.00119746
0.00649697
-0.00494916
-0.00150378
-0.000962343
-0.00110109
-0.00318131
0.00204823
-0.001239
-0.00144285
-0.0036258
0.00208038
0.00203712
-0.00413834
0.00545115
-0.00680879
0.0021542
0.00577939
-0.000908091
0.00343033
-0.00147356
-0.0019555
-0.000562103
0.000709626
-0.00388052
0.00572815
-0.00476091
0.00074457
-0.00149165
0.00231799
-0.00118097
0.00072197
0.000709615
0.00495561
-0.00621592
0.00139027
-0.00223068
0.00466742
-0.00243213
0.00173982
-0.00281336
0.00561064
0.00488646
-0.00593594
-0.000378227
-0.00225136
0.00262967
0.000257873
0.00031592
0.00102198
-0.00138335
0.000361373
5.11024e-05
-0.000308269
0.000221125
-0.00289923
-0.0038133
-0.00069196
0.00463719
-0.00274045
0.00405885
-0.0013175
0.00115882
0.00248568
-0.0047115
0.0011113
-0.00443809
0.00152692
0.00291326
0.00512438
0.000670768
0.000257063
0.000154275
0.00325344
0.00495812
-0.00223277
0.00647521
-0.0042338
0.0019744
-0.00672243
0.00477777
0.0010509
-0.000172962
-0.00101201
-0.000271036
-0.000420021
-0.00225704
0.00283906
-0.00719863
0.00443018
0.000125755
0.0011651
0.000898385
-0.0013127
0.000683819
0.00202567
-0.00254903
-0.00719224
0.00334769
0.00633561
-0.00229139
-0.00395662
0.00131668
-0.000563896
0.00102183
-0.000248773
-0.00623753
-0.000134544
0.00134807
-0.000646238
-0.000701831
0.00324926
0.00147992
-0.00460781
-0.00675333
0.00436576
0.00241098
0.00171755
-0.00174291
0.00466885
-0.00135326
0.0030443
-0.00169102
-0.00482288
-0.00213165
0.00703698
0.000422381
0.000126681
-0.00550461
0.00296307
0.00254101
0.00138153
-0.000831555
-0.00140507
0.00306852
-0.00150839
-0.00447629
-0.00143165
0.00614813
-0.00466985
-0.00263442
0.00221883
0.000703925
0.00081887
-0.00152279
0.00288989
-0.000553155
-4.72637e-05
0.000288292
0.00470565
-0.0015588
0.000794524
0.00168003
-0.00232948
0.000243489
0.000492456
0.00181558
-0.000113988
-0.000146172
6.15524e-05
-0.00172943
-0.0019532
0.00368319
0.00398089
-0.0039899
-0.000636045
0.00627407
0.00487855
0.00228287
-0.0056184
0.000353415
0.000988412
-0.00134183
-0.00115455
0.00175048
-0.00562335
0.00292319
-0.00231905
0.00172382
-0.00454443
0.000864807
0.0029554
-0.00522745
-0.00547365
0.00326554
-0.00167461
0.00261585
0.00764841
-0.00211973
-0.00544169
0.00582971
-0.00634802
0.000521666
-0.00127814
0.000756478
0.00559306
-0.000731733
0.00366897
-0.00356694
-0.00125544
0.00633677
-0.00482436
0.00014178
0.00105598
-0.000253682
-0.0008023
0.000741751
-0.000293117
-0.00514681
0.00249587
0.00396611
0.00130144
0.00180565
-9.10286e-05
-0.00171451
-0.00146388
0.0041581
-0.00228114
0.00491131
-0.00262441
0.00101122
0.00415189
-0.00512541
0.00152743
-0.00668542
0.0028256
0.00697802
-0.00155766
-0.00541491
-0.000591831
-0.000634532
0.00122636
0.00392038
0.000733173
-0.00465016
-0.000263646
-0.00175388
-0.00579318
-0.00194083
-0.00249457
-0.00209829
0.0014167
-0.000531369
-0.000262715
0.00257606
-0.0030056
0.000429416
0.00301846
-0.00418228
0.00468242
-0.00242613
0.00140746
0.00153822
-0.000492016
-0.00102489
0.000622235
0.00226
0.00129993
0.00327638
0.0017037
0.0030429
-0.000627295
0.00410922
0.000122114
-5.71167e-05
-6.23966e-05
-0.0019759
-0.00505242
-0.00122784
-0.000917189
-0.00309077
0.00468854
0.00213018
-0.00209426
-0.000759466
0.00146339
-0.00285433
0.00553664
-0.00267796
-0.00143934
-0.00139369
-0.001989
-0.000356794
0.000218284
0.00144337
-0.000103755
-0.00106984
0.00584172
-0.0015482
0.00208527
0.0012128
-0.00329743
0.00646689
-0.0043556
-0.00206766
0.00301147
0.000660385
-0.00359286
0.00659461
-0.00439166
-9.66481e-05
3.81405e-05
-0.000695508
-0.00170212
0.00361379
0.00452342
-0.000992022
0.0019096
-0.00238372
0.00093274
0.00145109
0.000646272
0.00404202
-0.005827
0.00424837
0.00158846
-0.00445776
0.00251605
-0.00445048
0.00287114
-0.000793464
-0.00207726
0.00509813
0.001657
-0.0067313
-0.00187162
-0.00256746
0.00444579
-0.0014422
0.00209844
-0.00121902
-0.000484903
0.00270888
-0.00444469
-0.000624225
0.00149761
-0.000873388
0.00118397
-0.00129171
0.000206304
-0.00229418
0.00162836
-0.00387968
-0.00183021
-0.00473138
-0.0016081
4.52984e-05
8.00945e-05
0.0017734
0.000974614
-0.00266607
-0.000280076
0.00282085
-0.00254042
0.00463805
-0.00663141
0.00179424
-0.00109819
-0.00261868
0.00420767
-0.00561597
0.0015789
-0.0048901
-0.0019212
-0.00390193
0.00680629
-0.0021335
-0.000387843
-0.00224074
-0.00425338
0.00635009
-0.00209492
0.00253613
-0.0012034
-0.00133252
0.00306974
0.000825856
-0.00389319
-9.12718e-05
0.00024325
0.00648938
-0.00139382
-0.00498081
0.00260975
-0.00600324
0.0034017
-0.00697376
0.00655179
0.00239129
-0.00550185
0.00312466
0.00145123
0.000309401
0.00361354
0.00206138
0.00444699
0.00468417
-0.00606891
0.00394359
-0.00187851
-0.00206534
0.00358772
-0.00050436
-0.000700821
-0.000755859
-0.000783717
-0.00108115
0.00186496
-0.00639425
0.000156265
-0.00135575
-0.000901755
0.00225773
0.000620315
0.000582846
-0.000186232
0.000938282
-0.000732077
-0.00736508
0.004926
0.0025098
0.0014798
-0.00199768
0.000520859
0.00483944
-0.00281064
-0.00201942
-0.000178537
0.00145381
8.80708e-05
7.82315e-05
-0.00373598
0.00270811
0.00208559
0.00136196
-6.80008e-05
0.000475407
-0.000391295
-0.00102324
-0.00263969
0.000816379
0.00557351
-0.00160737
-0.0025167
0.00412825
-0.00206112
0.000844041
0.0066841
-0.00275826
-0.00485879
0.00155506
-0.00100151
0.00199696
0.00143451
0.00122908
-0.00266256
0.00143371
0.00675946
-0.00160351
-0.000451854
-0.00159505
-0.00166602
0.00326147
0.00155088
-0.00283264
0.00128227
-0.00011705
0.000678349
-0.000542913
-0.000178314
0.00287769
0.000783603
0.00398083
-9.25932e-05
0.000108369
-0.0052114
-0.00207914
0.000567652
0.000660402
-0.00122805
0.00292938
-0.0014284
0.0042691
-0.00286279
0.00520369
0.000899823
-0.00393868
0.00531605
-0.00118592
-1.85274e-05
3.23435e-05
0.0028652
-0.00735638
0.00456629
-0.00419943
-0.00161526
0.00179343
-0.00713421
0.00534721
-3.21592e-05
-3.98883e-05
0.0021624
-0.00376587
-0.00234487
0.0075009
-0.000627112
-0.000656424
0.00128354
0.000353603
-7.98163e-05
-0.0018656
-0.00376243
0.00562926
-6.88917e-05
7.42542e-05
-0.000256436
0.00215507
-0.00189856
-0.00205931
0.0045044
-0.00244282
0.00179563
-0.00100194
-0.000793659
0.000115347
0.00249521
0.00247999
-0.000394187
0.0033757
-0.0015983
-0.00140015
0.000708155
-0.000558106
0.00362748
-0.00210271
0.00100375
6.06859e-05
0.00222984
0.00183902
-0.00406734
-0.000437379
0.00038566
0.00633042
-0.00259581
0.00381248
-0.00121055
-0.00725397
0.000308884
0.00701963
0.000587982
-0.00134095
0.000752974
0.00568139
-0.00169587
-0.00397544
-0.00655061
0.00215472
0.00228745
-0.00114923
-0.00113796
-0.0068348
0.00229623