/*--------------------------------*- C++ -*----------------------------------*\
| =========                 |                                                 |
| \\      /  F ield         | OpenFOAM: The Open Source CFD Toolbox           |
|  \\    /   O peration     | Version:  v2012                                 |
|   \\  /    A nd           | Website:  www.openfoam.com                      |
|    \\/     M anipulation  |                                                 |
\*---------------------------------------------------------------------------*/
FoamFile
{
    version     2.0;
    format      ascii;
    class       surfaceScalarField;
    location    "100";
    object      phi;
}
// * * * * * * * * * * * * * * * * * * * * * * * * * * * * * * * * * * * * * //

dimensions      [0 3 -1 0 0 0 0];
oriented        oriented;


internalField   nonuniform List<scalar> 
20673
(
-0.172298
0.16218
0.0101177
0.371448
-0.30704
-0.0644059
0.0209755
-0.0471311
0.0261555
0.153089
-0.277729
0.124641
-0.35932
-0.11889
0.478213
-0.0204616
-0.00213414
0.0225958
0.0329852
-0.0280998
-0.00488546
0.00912679
0.0176336
-0.0267604
0.0136349
-0.0253291
0.0116942
-0.0562863
0.158046
-0.10176
-0.10856
0.107365
0.00119489
0.150236
0.00507054
-0.155306
-0.0976079
-0.00131604
-0.000235386
0.00155143
0.204411
-0.0381569
-0.166253
0.241755
-0.242583
0.000828626
-0.105999
0.30069
-0.194689
0.141048
-0.163502
0.0224538
0.151652
-0.00141604
0.335913
0.265964
-0.601866
-0.377969
0.573547
-0.195578
0.0305137
0.00247156
-0.599297
0.333001
0.266304
0.0433206
-0.0341938
-0.30715
-0.0609673
0.368121
-0.00484511
0.0312383
-0.0263932
-0.105984
0.0777881
0.0281961
-0.0999964
0.0514684
0.048528
-0.0651743
0.0523153
0.0128589
-0.148311
0.109652
0.0386597
0.156817
-0.171107
0.0142904
0.195741
-0.206321
0.0105805
-0.0969658
0.138215
-0.0412495
0.17456
-0.0485811
-0.125979
-0.388187
0.361779
0.0264098
0.090524
-0.111348
0.0208237
-0.367967
-0.231323
-0.00351565
-0.00240786
0.00592351
-0.188064
-0.0540594
-0.0157724
0.000906909
0.0148655
-0.584591
0.594622
-0.00999278
0.685152
-0.391469
-0.293682
0.367924
-0.54138
0.173481
-0.0494693
-0.0184973
0.0679666
-0.171727
-0.15568
0.327411
0.0963545
0.071444
-0.167799
0.147641
-0.00659247
-0.0174753
-0.111873
0.129348
-0.00331861
0.0100528
-0.00673415
-0.683839
0.439138
0.244728
0.0430438
-0.165637
0.122594
-0.282846
0.0325859
0.250261
-0.00641973
0.00310112
0.0554078
0.119152
0.167975
-0.273972
0.213336
-0.224718
0.0113822
-0.114254
0.00569404
0.270774
-0.353294
0.082523
0.0846769
0.161723
-0.246399
-0.333633
0.161909
-0.0169495
-0.0186129
0.0355623
0.164355
0.207096
-0.00131604
-0.167981
0.503905
0.0155381
-0.0359997
-0.0776594
0.0854428
-0.00778344
-0.515754
0.32579
0.264144
-0.361751
-0.105293
0.104483
0.000810431
-0.162514
0.182294
-0.0197799
-0.525571
0.166253
-0.0148681
0.028503
0.000403962
-0.00312108
0.00271711
0.14443
-0.451576
-0.00734328
-0.00700549
0.0143488
-0.0176801
0.144575
-0.126895
0.00376103
6.07053e-05
-0.00382174
0.0723918
0.19208
-0.26447
0.0341449
-0.0303
-0.00384492
-0.612362
0.323405
0.288958
-0.329205
0.601867
-0.272657
-0.255108
0.00820949
0.0245089
-0.0327184
0.00587221
-0.00938786
0.00289042
0.00327283
-0.00616325
-0.213989
0.286383
0.366148
0.207441
-0.573582
-0.0882582
0.0105989
0.212827
-0.169783
0.519441
-0.151496
-0.0018661
0.00115098
0.000715117
0.122555
-0.00399213
-0.118563
-0.0513077
0.366992
-0.315678
-0.261631
0.052492
0.209139
-0.0390602
-0.049198
0.0247293
-0.0352613
0.0105321
0.0876298
-0.125864
0.0382339
0.129375
-0.00156294
-0.127812
-0.0670308
-0.0355175
0.102548
0.0520488
-0.0639692
0.0119204
-0.458029
0.563018
-0.104968
0.122425
0.00803074
-0.130456
0.0191923
-0.0686615
-0.273315
0.0736373
0.199679
-0.486122
0.0894458
0.396687
0.0339174
-0.025667
-0.00825036
-0.00292677
-0.0622947
0.0652214
0.0943349
-0.11181
0.103732
0.19696
0.162284
-0.151121
-0.0111622
0.00244743
0.00705097
-0.00949841
-0.00320744
-0.0125649
-0.112713
0.132652
-0.0199395
0.0310009
0.00291646
-0.274743
0.1175
0.157243
0.0074101
-0.00790081
0.000490714
-0.36214
0.50146
-0.139314
0.0110105
-0.0116792
0.000668664
-0.00542444
0.00723939
-0.00181495
-0.0773205
0.165591
-0.0882708
0.501962
0.183191
-0.0973186
-0.0079743
0.00127265
0.00414604
-0.00541869
-0.0560087
-0.0439877
-0.612361
0.123765
0.488622
-0.246213
-0.0154166
0.0994543
0.22025
-0.319701
-0.538089
-0.0742422
-0.496435
0.591857
-0.0953815
0.0225951
0.0070305
-0.0108684
0.00383787
-0.0829766
-0.191766
0.149706
-0.305383
0.204017
-0.581985
-0.130304
0.0643177
0.0659861
0.00814575
0.0351748
-0.0165695
-0.155728
0.0514035
0.000645338
-0.111877
0.437666
0.101493
-0.178814
-0.0971203
0.116235
-0.0191146
0.453522
-0.191694
-0.26182
-0.215913
0.277378
-0.061465
-0.0716159
0.0248082
0.0468077
-0.0676671
0.331811
0.0431018
0.0048216
-0.0479234
0.017724
0.0433669
-0.0610908
0.0187172
-0.301563
0.506264
-0.168148
-0.338106
0.224342
-0.214726
-0.00961579
0.155691
0.00416814
-0.159859
-0.000307324
0.00771743
0.0218768
-0.116768
0.0948911
-0.0818205
-0.0438418
0.125662
0.219572
-0.214473
-0.00509855
0.00229846
0.00215877
-0.00445723
-0.174608
0.0120944
0.030911
-0.0900965
0.0591855
-0.000504876
0.00426591
-0.077325
-0.0529788
-0.148341
0.219303
-0.0709616
-0.0857624
-0.00621118
0.0919736
0.239983
0.360744
-0.600725
0.113601
-0.0259714
-0.135552
0.0228388
0.0276777
-0.0947085
-0.203283
-0.0700306
-0.158251
0.154942
0.00330991
0.133949
0.222298
-0.356242
0.0252879
0.0971373
0.150486
-0.142801
-0.0076845
0.0178639
-0.0076306
-0.0102333
0.109374
0.00662803
-0.116002
-0.0070173
0.236637
-0.229618
0.0585696
-0.0469535
-0.0116161
-0.0432088
-0.0699675
0.113176
0.0126099
-0.00557937
0.000654376
0.0103562
0.0572685
-0.0141667
-0.259452
0.403291
-0.143835
0.00590363
0.116652
-0.0130113
0.169828
0.299818
0.153712
-0.0927666
0.458921
0.190327
-0.0919623
-0.0983647
0.0334751
-0.0383202
-0.0328105
0.129272
-0.0964611
-0.000292541
0.002591
0.151958
-0.151548
-0.000409751
-0.108716
0.0985742
0.0101415
-0.00977598
0.0771333
-0.0673573
0.00027205
0.00261837
-0.114938
0.0956537
0.0192841
0.625317
-0.277005
-0.348304
-0.0313244
-0.0141352
0.0454597
-0.102237
-0.00374687
0.63767
-0.637621
-0.305313
0.25401
0.00633515
-0.0809507
0.0746155
-0.0883342
0.0883808
-4.66717e-05
0.0238987
0.177621
-0.201519
-0.341752
-0.342068
0.16434
-0.00203966
-0.162301
0.154566
0.00112505
-0.00419715
0.00460111
-0.0756363
0.104001
-0.0283643
-0.279826
-0.10836
-0.0914603
0.362237
0.00865704
0.120718
0.0159005
0.0299837
-0.0458842
-0.287343
0.0714313
0.0352694
-0.0264485
-0.0088209
0.00627855
0.000106379
-0.00638493
-0.00698386
-0.101732
-0.416442
-0.0696697
-0.0582616
0.0415244
0.0167372
0.149481
-0.00559251
-0.143888
0.0101735
0.00373889
-0.0139124
-0.49288
0.292386
0.200499
0.040115
-0.0570644
-0.397778
0.138332
0.000313356
0.115204
-0.115517
-0.129059
-0.455501
-0.00510983
-0.000257494
0.00536733
0.0317393
-0.0237583
-0.00798095
0.0637496
0.178006
-0.119504
0.0183049
0.101199
0.0381368
0.181436
-0.457931
0.0415011
0.00424809
0.0862759
0.124962
-0.0155877
-0.010433
0.162391
-0.0544466
0.0193932
0.0350534
0.00732974
-0.00105119
-0.595635
0.493069
0.102596
0.194316
0.00142536
-0.00312016
0.00125406
-0.00319552
-0.00255387
0.00574939
-0.307127
0.547115
-0.462655
0.444447
0.0182212
-0.0179233
0.00120644
-0.119433
0.095992
0.0234413
0.400422
-0.602382
0.201962
-0.077995
0.0939014
-0.0159064
-0.144926
0.141762
0.00316315
-0.103418
0.0176557
-0.167997
-0.0125248
0.180522
0.583052
-0.222304
0.14027
0.00524109
-0.145511
0.00574713
-0.006311
0.000563876
-0.289201
0.388117
-0.0989123
0.0544082
-0.134477
0.0800693
-0.0377068
-0.0102781
0.0479849
-0.240364
0.339821
-0.281996
-0.0712951
-0.0263161
-0.10638
0.132696
0.000206949
0.0139443
-0.0141513
0.106438
-0.084561
0.12238
0.0679473
0.0132949
0.191116
0.240441
0.372035
-0.612474
-0.00232083
0.00359348
0.00558791
0.0402303
-0.0458182
0.0545612
-0.0902984
0.0357371
-0.383718
-0.0742024
-0.00140404
-0.00513575
0.00653979
-0.000345096
4.73406e-05
0.000297756
-0.0435653
0.0744763
0.033129
0.00101587
-0.12336
0.10568
0.253851
0.47577
-0.66585
0.190116
-0.142664
0.00270669
0.139957
-0.00123681
0.0017457
-0.000508892
0.117956
-0.134092
0.0161361
-0.171589
0.256267
-0.107857
0.032221
-0.145492
-0.015853
-0.0938712
-0.457448
0.55136
-0.0741815
0.0695237
0.00465778
0.25399
0.283692
-0.537671
0.0555073
0.00306228
-0.210468
0.234367
-0.0719486
0.472375
0.0835098
0.112879
-0.196388
0.0493757
-0.131196
0.105906
-0.112117
0.0238008
-0.101796
-0.00402727
0.131768
-0.12774
0.378319
-0.090418
-0.287898
0.0826499
-0.0966238
0.013974
-0.0260966
-0.02835
0.0278999
-0.022312
-0.228338
-0.264536
0.0789369
-0.0230295
-0.0559074
-0.48635
0.0185006
0.467848
0.1859
0.192423
-0.47625
0.114117
0.0614537
-0.0437298
-0.0596178
0.522357
-0.462718
-0.107352
0.107666
-0.180378
0.0123813
-0.266655
0.40061
0.0033598
0.160981
-0.246422
0.0274758
0.218947
-0.00824034
0.00236764
0.0058727
0.0848588
-0.128068
0.12572
-0.129712
-0.277511
-0.10776
0.385277
0.0689804
-0.350974
0.000443843
-0.0093618
0.00891795
0.00435005
-0.00275973
-0.00159032
0.287849
0.213617
-0.394727
0.630083
-0.235322
-0.0638742
-0.0103073
-0.290535
-0.0682061
0.358746
-0.00117809
-0.00194298
0.102503
-0.380006
-0.00594461
0.00083478
-0.333589
0.255227
0.0783652
0.104082
-0.0109716
-0.0931108
0.217556
-0.144457
-0.0730984
0.0173879
-0.0117134
-0.00567448
0.062262
-0.210603
-0.00206261
-0.0752624
-0.0519336
0.0110386
0.040895
0.182269
-0.0987584
-0.0619374
-0.0574959
-0.00768462
0.071467
-0.0637824
0.0552962
-0.28116
0.225866
-0.00367151
-0.00476224
0.00843375
-0.0522123
0.0208879
-0.000423696
7.85999e-05
-0.188898
0.170186
0.0187119
-0.0103546
0.000342549
0.010012
-0.160312
-0.0576237
0.217936
-0.00155878
0.00451654
-0.00295775
-0.0439752
-0.00795832
0.0722554
-0.0939727
0.0217173
0.0945406
-0.0222852
0.0337557
-0.0127802
-0.564062
0.33347
0.230594
0.14426
0.00622629
-0.00608956
0.00853699
-0.178882
0.294189
-0.115306
0.223273
-0.00185802
-0.221415
-0.00108699
0.000851602
-0.0661442
0.0724793
-0.214329
-0.0523066
0.266637
-0.0832498
0.0734738
-0.0369971
-0.0281772
-0.60489
0.326429
0.278485
-0.00658187
0.00115742
-0.113411
0.0353923
0.0780187
-0.268967
0.522969
0.510546
-0.360408
-0.150126
0.106961
-0.593313
0.237642
0.26863
-0.0134419
0.0960917
-0.0393487
0.0566135
-0.0172649
-0.038558
0.0224256
0.0161324
0.00839674
-0.0079529
-0.372938
-0.00573047
0.378673
-0.0624154
0.116824
-0.00940661
0.0100461
-0.000639536
0.125436
-0.166474
0.0410381
0.00716961
-0.00412686
0.00289005
0.00607226
0.212446
-0.482895
0.270469
0.0920601
-0.0374989
0.324005
-0.497504
0.17351
-0.0149152
0.0550302
-0.144083
-0.189548
0.0157227
0.0016652
-0.0284885
-0.116437
0.183368
0.0865023
-0.269869
0.459102
-0.573446
0.114347
0.140746
-0.132089
-0.0936774
0.0995811
0.124856
-0.128507
0.00365076
-0.0132426
-0.0376392
0.0508818
-0.00755162
0.00599284
0.0138176
-0.0036441
0.00584587
0.134424
0.0622743
-0.118561
0.0183669
-0.481011
-0.00627303
0.00307751
-0.0195097
-0.00947317
0.0289828
-0.0308007
0.289648
-0.258844
0.0915834
-0.093646
-0.30732
0.501919
-0.194596
0.0381839
0.0734979
-0.111682
-0.100409
-0.233178
-0.315867
-0.248193
-0.294684
0.110667
0.184018
-0.0251802
-0.00858547
0.0337657
-0.0771239
-0.21756
-0.0193033
0.0195103
0.00386295
-0.00125908
-0.00260387
0.0808341
-0.0855243
0.00469021
0.0270476
-0.0445498
0.0175021
-0.214988
0.270286
-0.0335671
-0.0246945
0.0380862
0.589976
-0.243159
-0.346808
-0.0690709
-0.296973
0.118094
0.215946
-0.340167
0.124223
-0.0756757
-0.0726357
-0.366842
0.607287
-0.391784
0.46232
-0.0705335
0.390679
-0.0666654
0.0905928
-0.104035
-0.332419
-0.279942
-0.00877824
-0.00157633
-0.00393728
0.0389002
-0.0349629
0.0035021
0.0029578
-0.0064599
-0.0819328
-0.033005
-0.00646612
-0.0118165
0.0182826
0.00935104
0.00190648
-0.0112575
0.166636
-0.0412001
-0.474268
0.101335
0.110782
0.0137146
-0.124497
-0.267764
0.0797007
0.207343
-0.195308
-0.0120347
0.225239
0.400085
0.0179198
0.0347982
-0.0188977
-0.0525804
0.0486431
-0.189587
0.208736
-0.0191482
0.10948
0.0266337
-0.136113
-0.165682
-0.0232157
-0.260527
0.206468
0.00546795
0.119388
0.195166
-0.242786
0.0476214
-0.0826552
0.0862933
-0.0036381
-0.175101
0.278835
-0.440044
0.380443
-0.00120009
2.19922e-05
0.00984326
0.00276661
0.0137812
-0.00393799
0.0438268
0.0910849
-0.134912
0.00605621
-0.00255412
0.00849129
-0.0121628
-0.00114481
-0.00400956
0.00515437
0.0029468
-0.000645693
-0.00230111
0.148686
0.368981
-0.517634
-0.132138
0.00192325
0.130215
0.226027
-0.0308606
0.347351
-0.263749
-0.0835991
-0.111583
0.0310715
0.0805119
0.00497719
0.489083
-0.543383
0.0543449
0.0123493
-0.138108
0.125758
-0.00488141
-0.150053
0.154935
0.00191583
-0.00126629
-0.000649539
0.345947
0.244036
0.121456
-0.00810299
-0.113353
0.00126517
0.000751199
-0.00201637
0.102907
-0.0181536
-0.0847534
0.0010412
-0.00950382
0.00846263
0.24113
-0.252374
0.221575
0.526225
0.111487
-0.14992
-0.0246873
0.512071
-0.299601
-0.0307873
-0.0108219
0.0416093
-0.0322978
-0.00626018
-0.155199
0.151172
0.00297029
-0.00536743
0.00239714
0.0226868
0.19065
0.0996198
0.0139815
0.00141948
-0.00256429
-0.00891027
0.0522771
-0.0127907
0.0936248
-0.00357261
-0.0935477
0.105663
0.0157938
0.12308
-0.148426
0.0253464
0.0860855
0.0323163
-0.118402
-0.172715
0.178602
-0.00588737
0.0921375
-0.110302
0.0181644
0.0237476
-0.13882
-0.0145339
0.153354
0.105736
0.00344044
-0.109176
-0.535271
0.549232
-0.0139193
0.106621
-0.0284631
-0.0781576
0.216531
-0.0158439
-0.200686
-0.432634
0.306142
0.126501
-0.160902
0.0109814
-0.265582
0.184714
0.0808696
-0.000524096
0.00243992
0.0116122
0.0193888
0.090666
-0.381195
-0.521407
0.427577
-0.0334603
-0.0100395
0.0434999
0.0118833
-0.00253225
0.594433
-0.222394
-0.00714388
0.00818508
-0.314668
0.232946
0.0817236
0.126638
-0.0971923
-0.029446
0.00713651
0.325443
-0.332574
0.00689674
-0.00455312
-0.00234361
0.0656131
-0.0965055
0.0308924
0.0435464
0.180796
0.306296
-0.191481
-0.114813
0.0175072
-0.0239733
-0.117481
0.0846703
-0.0126726
0.0126174
5.52682e-05
0.239962
-0.606802
-0.000207796
-0.00606594
0.00627374
-0.00758596
0.0801253
-0.0139326
-0.0661926
-0.355659
-0.0769668
-0.00412606
0.0073989
0.024221
-0.0131055
-0.0111155
-0.130545
0.167515
-0.0369707
0.1272
0.383356
-0.217765
0.266077
-0.048311
-0.140771
-0.0619699
0.100154
-0.0444428
0.533566
-0.520422
0.160026
0.653431
-0.44138
-0.21203
0.410447
0.243005
0.00490228
-0.00630632
-0.0469849
-0.0645984
0.0360915
-0.103371
0.117954
-0.014583
0.576286
-0.100485
-0.0483227
-0.40969
-0.0103413
0.119821
-0.0131874
0.00499871
0.00818865
0.151068
-0.168458
0.0173898
-0.114983
0.337286
0.452748
-0.236798
-0.288145
-0.0894492
0.377594
0.0162511
0.00108914
-0.000817091
0.395121
0.168351
-0.563465
-0.264693
-0.143942
0.408636
0.00940487
-0.0233173
-0.149397
0.106037
0.111519
0.0425553
-0.294926
-0.149311
0.262314
-0.113002
0.183545
-0.220913
0.0373679
-0.00413485
0.10987
0.063865
-0.0715496
0.0259006
0.0998434
0.0109388
-0.149636
0.0603515
0.0892847
0.019008
0.0849927
0.0075126
0.118208
0.454224
-0.292952
-0.161267
0.0060241
-0.000276972
-0.452756
0.250494
-0.0272204
0.252599
0.00649656
-0.259095
0.0771875
0.0294332
0.0826342
0.020265
-0.102899
-0.0144293
0.402585
-0.38813
-0.000733664
0.103641
0.110728
-0.140438
0.0297105
0.00234631
0.00160408
-0.00395039
-0.0816927
-0.0679434
0.00383677
0.0937423
-0.097579
0.142613
-0.147494
0.3247
0.134404
0.0422238
-0.0143239
0.103349
-0.0222646
0.0177139
0.00455077
0.170677
-0.345776
-0.15731
0.187127
-0.0298161
0.112329
0.00562527
-0.00229274
-0.00183413
0.0112844
-0.0112844
0.118858
-0.120421
-0.0661035
0.10993
-0.0370411
-0.205542
0.199595
-0.228213
0.0286189
-0.212614
0.255172
-0.0749737
-0.0152335
0.0902072
-0.0524236
0.0271777
0.147674
0.00180677
0.0136967
-0.0153801
-0.00688459
-0.00313716
-0.00953548
0.0205632
-0.218969
0.198407
-0.00945506
0.109075
0.0929009
-0.0272877
0.0858407
0.0924955
-0.178336
-0.291613
0.0887155
0.202898
-0.0301376
0.00278628
0.0273514
0.0537281
-0.0345706
-0.0191575
-0.0469807
0.0368145
0.0101661
-0.0392737
-0.0693335
0.108607
-0.543358
0.0469544
-0.00487724
-0.00170463
0.00380428
-0.471061
0.456665
0.186416
-0.183806
-0.00260998
-0.00719039
-0.113378
0.120568
-0.125163
0.0281971
-0.015707
0.125359
0.0357971
-0.0109407
-0.0248564
0.111407
-0.0253214
-0.0200957
0.192916
-0.17282
0.0205241
0.0216997
0.265979
-0.199003
-0.066975
0.00292014
2.66664e-05
0.268338
-0.575462
-0.0145227
0.409649
0.0659809
0.012956
0.039971
0.0137571
0.03199
-0.00704433
-0.0249457
0.0972013
0.168779
0.258253
-0.265269
-0.448471
0.183778
0.00528284
-0.150775
0.00270948
0.114998
-0.0873201
0.221512
-0.0219165
0.101267
-0.114057
0.135154
-0.263355
0.270496
-0.0517645
-0.0677396
0.117273
-0.00227466
-0.0825441
0.071724
0.01082
-0.0484887
0.36099
-0.312496
-0.0839982
-0.0252129
0.109211
-0.0734995
0.000241957
0.003621
0.032926
0.12512
0.109516
-0.0268822
-0.189829
0.0325195
-0.260886
0.540412
-0.2795
0.293714
0.0857683
-0.379473
-0.0913317
0.311584
-0.0885305
-0.0100965
0.098627
0.154944
-0.0585896
-0.0567423
0.105173
-0.0484308
-0.0380551
0.0248125
-0.141166
-0.017085
-0.223394
-0.381474
0.0280286
-0.0903832
0.0623547
0.022537
0.00945298
-0.10569
0.0871291
0.0185611
0.0575571
-0.346753
-0.180407
0.148322
0.0320845
-0.12185
-0.398561
-0.161609
-0.0415185
0.203128
-0.0528231
0.214547
0.00605692
0.0181641
-0.291227
0.614635
-0.0700293
0.190152
-0.00336241
-0.186789
0.0846578
0.0227069
0.149344
-0.0611678
-0.0881765
0.00412462
-0.000326389
-0.00379823
-0.0216452
-0.0905714
0.112217
0.0487073
-0.26647
0.000794301
0.000288606
-0.00108291
0.0092267
0.00205772
0.35515
-0.265878
-0.0892688
0.222741
0.0298589
0.106059
-0.0784969
-0.0275617
0.0855199
-0.124794
0.118469
-0.000512516
-0.349223
-0.241997
0.591227
0.0347483
0.271549
-0.104291
0.093319
0.244341
-0.0609722
-0.113049
-0.0154582
-0.151753
0.125437
0.389794
-0.0960708
-0.146018
0.151543
-0.0055252
-0.0277379
0.402001
-0.175954
-0.226043
-0.268209
-0.0304133
0.298625
0.67586
-0.395339
-0.280498
0.00288337
0.00146668
-0.418427
0.622444
-0.202023
0.0124363
0.00411998
0.0137439
0.00945543
0.201928
-0.211383
0.0484247
-0.00845367
-0.0271705
-0.187302
0.0665726
0.0716427
0.234499
0.122392
-0.00486161
-0.117531
-0.100574
-0.37567
0.139635
-0.00568861
-0.133947
0.327069
-0.589703
0.262666
0.111824
-0.102061
-0.00976279
-0.219728
-0.094939
-0.0191677
0.0204329
0.0494136
-0.0432172
-0.00619641
-0.00304788
-0.0101395
-0.564775
-0.0727979
-0.239973
0.12975
-0.122238
-0.148227
0.16377
-0.0155431
0.000832141
-0.00254706
0.00171492
0.0180332
-0.017639
-0.000394187
-0.135411
-0.0280906
-0.331659
-0.0147369
0.346399
0.107072
-0.0164789
-0.0262406
0.0191963
-0.0844386
0.00189457
0.0572067
-0.113949
0.142962
0.000372681
-0.143335
-0.0276905
-0.00696286
0.0346533
-0.165661
0.151981
0.0136809
0.161003
-0.176856
0.00170487
0.0938629
-0.0955678
-0.0772157
-0.00373499
-0.149514
0.0141022
-0.00215693
0.019449
-0.0172921
0.147891
-0.153594
0.00570304
-0.281302
0.0799982
0.201306
0.0995387
-0.106729
0.0708227
0.111446
-0.406742
0.319678
0.0870711
-0.186301
0.0246923
0.0148732
0.147411
-0.169698
-0.0450273
-0.381441
-0.0429128
0.424359
0.181587
0.149081
-0.0145687
-0.134512
-0.0628407
0.243479
-0.180637
-0.139129
0.0260805
0.0109762
-0.342633
-0.224824
0.463094
-0.238267
0.13068
-0.549106
0.215768
-0.159113
-0.0566538
0.223863
0.225727
-0.449572
0.0268766
0.18643
-0.213307
0.6286
-0.284127
-0.344453
0.00554758
0.00134916
-0.147683
0.147337
0.000346721
0.039306
-0.0383783
0.238652
-0.51982
0.281194
-0.351538
-0.208552
0.560093
-0.035451
0.0861358
-0.0506848
0.152614
-0.0295341
0.250432
-0.194575
-0.0558565
0.0413884
0.0171064
-0.0584949
0.137103
-0.0403145
-0.0967888
-0.0741794
0.0592642
0.00385111
0.0974097
-0.125083
0.0276734
-0.0888041
0.261591
-0.172785
-0.631429
0.0202366
0.611194
0.601787
-0.191315
-0.257154
0.0107336
0.0159203
-0.0162536
0.000333319
-0.603659
0.252124
-0.0930452
0.0193761
0.0736691
-0.127961
0.154838
-0.00157855
-0.00782805
0.110203
-0.137215
0.0270121
0.112768
0.0243355
-0.0128282
0.097486
-0.442778
0.102777
0.340016
0.27999
0.317025
0.00396847
-0.429947
0.274543
0.155404
-0.299997
0.0806941
0.219304
-0.0482058
-0.0222367
0.0704425
0.251987
-0.0153493
0.101143
0.445965
-0.547107
-0.0076687
0.178016
-0.170347
-0.059753
-0.418784
0.478552
0.327592
-0.478679
0.151123
-0.162774
0.0133943
-0.000197708
0.00102985
0.166943
-0.17793
0.0109872
0.251404
0.150601
0.468154
0.126509
0.00433684
-0.00662958
0.00601011
0.332659
-0.102358
-0.230299
-0.109314
0.279993
0.0649535
-0.0235651
-0.085714
0.101516
-0.0158021
-0.0125109
-0.00173562
0.0142465
-0.112805
0.116642
-0.0493724
-0.231929
-0.236782
-0.358825
0.510151
-0.182526
0.00970942
-0.14853
-0.0134344
0.0206554
-0.0914028
0.0707474
0.0500736
0.120113
-0.00816409
0.00340185
-0.287236
0.087651
0.199587
0.0340696
-0.216209
0.18214
0.0113113
-0.014101
0.00278977
0.143374
-0.450691
0.00271515
0.213816
0.274359
-0.358421
0.0840658
0.337683
0.26045
-0.598115
0.00474563
-0.155867
0.0873981
0.0185078
0.206102
-0.277668
0.0715679
0.0439563
0.00446838
0.00145053
0.0127598
-0.0142104
0.0307812
0.22589
-0.31296
-0.11895
0.431922
-0.0912424
-0.0129284
0.104171
-0.0740372
-0.327164
0.56713
-0.0836476
0.101754
-0.0181063
-0.439855
0.126908
-0.156234
-0.281905
0.366349
-0.0844388
0.439912
-0.154469
-0.285437
-0.108955
-0.243463
-0.102456
0.345922
0.0306386
-0.0908799
0.145433
0.0411629
-0.186596
0.397914
-0.586547
0.188634
0.377217
-0.508019
0.130823
-0.0171195
-0.266688
0.283807
0.0307488
-0.321628
0.290885
-0.3405
0.0722926
-0.0319295
0.0442515
-0.012322
0.291285
0.0506549
-0.341935
-0.109741
0.402502
-0.292754
0.0215741
-0.00715595
-0.0144182
-0.0263423
0.0311639
-0.152665
0.132569
-0.161238
0.000323841
-0.121501
0.121177
-0.0511284
-0.167138
0.218267
0.474087
-0.163421
-0.310657
0.125407
-0.0539631
-0.00440495
0.114215
-0.00239082
0.275458
-0.482677
0.207222
-0.303569
0.11209
-0.00351412
0.0215474
-0.0520715
-0.0832599
0.135331
-0.00107981
0.00602825
-0.00494844
0.528595
0.167455
0.000493033
-0.00325276
-0.183762
0.156128
0.0276341
-0.278243
0.0642563
0.0157407
-0.015099
-0.000641635
-0.0185372
0.0102141
0.00832308
0.354942
-0.324187
0.103132
-0.101428
0.49458
0.107228
-0.340477
0.0970183
0.431702
-0.193032
-0.000391937
-0.00474381
0.475164
-0.251282
-0.329627
0.282401
-0.0501319
-0.274867
0.0751203
0.199747
0.0332806
0.0933577
-0.0924343
0.0459432
0.306544
0.0736704
-0.380208
0.0981825
-0.123887
0.0257042
0.370641
0.169371
-0.540004
0.00731693
0.506973
-0.483593
-0.0233702
0.348847
0.357753
0.222334
-0.580085
0.00733182
0.458896
0.0274087
-0.0121394
0.0161077
-0.00396839
0.015306
-0.0509
0.035594
0.000773654
-0.18118
-0.0434067
-0.0700042
-0.0124537
0.014226
-0.00177226
-0.280939
0.349922
0.000357636
-0.00523487
-0.0260421
0.00742925
-0.0140658
0.00161204
-0.00088399
0.0152485
-0.0143645
0.00564729
0.0159268
-0.0163451
0.0186914
-0.0717455
0.0997741
0.17953
0.0865487
0.00549715
-0.154671
-0.0290905
0.00639317
-0.0259028
-0.413781
0.0581309
0.0909855
0.276012
0.277259
0.0554026
0.539
0.16465
-0.23146
0.0668114
0.120586
-0.146834
0.0262485
-0.00335534
0.0039037
-0.000548361
0.373272
-0.282282
0.42557
-0.187678
-0.237891
-0.00240375
0.0104688
-0.00806509
0.00891748
-0.0778623
0.0689448
-0.269891
0.252772
0.0225725
0.0225872
-0.176568
0.153981
-0.0725878
-0.207092
0.279683
0.0249135
0.0245
0.0887718
-0.0661993
0.161578
-0.212227
0.0506496
-0.166469
-0.108397
0.0127492
-0.0112987
0.0125879
-0.00127665
0.00358525
-0.0152644
-0.364756
0.0828563
-0.0880071
-0.0294737
-0.00961043
0.120338
-0.00760509
-0.00429764
0.0119027
-0.0272725
-0.121371
0.124419
-0.0030484
0.257241
0.170799
-0.259601
-0.076577
-0.210658
-0.512722
-0.115005
0.0664575
0.51607
-0.367353
0.17
0.0135462
-0.0632409
-0.10242
-0.00468778
0.00232685
0.00236093
-0.132752
0.0345831
0.0981687
-0.0944741
-0.235149
0.124043
-0.00260418
0.00440901
-0.00180484
0.166926
0.327765
-0.245233
-0.0825308
-0.00265159
-0.000696616
0.00334821
-0.362534
0.0958837
-0.305663
0.00566736
0.0741015
-0.108657
0.0345554
0.00238299
0.000587292
0.482348
0.299636
-0.34812
-0.0230545
0.0320789
-0.00902439
-0.104718
0.0613113
-0.0268994
0.0933894
-0.06649
-0.137923
0.0369224
0.101001
-0.0459318
-0.0654158
-0.488655
0.173817
0.314843
-0.10185
0.100044
0.00180636
0.172675
0.155091
0.0137675
0.357477
-0.371235
-0.0806439
-0.210969
-0.0453991
0.0146118
0.00107217
-0.0135831
-0.370717
0.0895566
0.281167
0.503642
-0.126405
-0.0739044
0.348266
0.0203447
0.0669151
-0.182517
-0.00555638
0.188073
-0.233921
-0.196025
-0.30346
0.0891338
-0.00200659
0.365606
-0.0590563
-0.00879043
-0.0759694
-0.0139397
0.0899091
-0.010511
-0.00463169
0.0151427
-0.328151
0.0877906
0.11788
-0.0258496
-0.09203
0.184193
-0.16363
-0.00507654
0.000523411
-0.00385326
0.00124908
0.0104828
-0.00343178
-0.121461
0.121785
-0.004755
-0.0137822
0.464466
0.00626083
-0.031441
-0.462612
0.480283
-0.0735815
-0.151136
0.172666
-0.157181
-0.0154843
-0.0775715
-0.0423669
0.00890655
0.0446339
0.0318216
-0.0764554
0.0910032
0.0178721
-0.108875
-0.0151538
0.0452324
-0.0300785
-0.288006
-0.275521
0.563556
-0.0584785
0.100613
-0.0421345
0.105861
0.334058
-0.0855287
0.156352
0.0283346
-0.0208432
-0.00749148
0.230177
0.117175
0.179208
-0.641819
0.219119
-0.267815
0.048698
0.102236
-0.2566
0.154367
-0.00308896
-0.00159882
0.470635
-0.103018
-0.367598
0.514513
-0.181504
0.00854838
-0.0211071
0.132082
-0.110975
0.14816
-0.147206
-0.000953517
-0.0262772
3.65886e-05
-0.100083
-0.00893473
0.109018
0.0151578
0.000408664
-0.0155665
-0.000949704
-0.133244
0.113659
-0.16573
-0.00178892
0.000148608
-0.175982
0.00440747
0.0537661
-0.0581736
0.00223587
0.0290024
0.206114
-0.00711693
-0.198996
-0.309019
-0.0575171
0.366542
0.00265783
0.0195169
-0.0221748
-0.0398048
-0.247001
0.265719
-0.146035
0.0375018
0.108534
0.156382
-0.00531406
-0.346678
0.119003
0.227678
-0.027776
0.192426
-0.143583
0.245821
0.156096
0.284221
0.312794
0.137666
0.00529693
-0.0259292
0.0507374
-0.370292
0.139516
-0.130009
-0.00950686
0.109827
0.210209
-0.32003
0.104465
-0.097711
-0.00675444
-0.254337
0.581438
0.156901
0.00178393
-0.133922
-0.232429
0.169589
0.321627
-0.0818519
-0.239772
-0.29835
-0.0723605
0.0385394
-0.0373586
-0.0011808
-0.0917634
-0.0297581
0.121522
-0.0228678
0.0513171
-0.0284493
0.26408
0.198242
-0.325198
0.268006
0.0571943
0.00791461
-0.271549
-0.0868692
0.0192567
0.116459
-0.135716
-0.127191
0.035428
-0.235418
-0.111259
0.0275798
0.114183
-0.259921
0.369755
-0.0184082
0.0508854
-0.0324772
-0.291126
0.0441253
-0.000559728
0.193476
-0.000316319
-0.000770669
-0.0762498
0.100823
-0.0245736
-0.0943547
0.402135
-0.307774
-0.223804
0.192704
0.0311008
0.00206307
-0.0142024
0.35623
-0.342454
0.476364
-0.119554
-0.356799
-0.0116647
0.00405962
-0.00365228
0.00326034
0.030998
-0.19668
-0.0107946
-0.0858638
0.0966583
0.5458
-0.279824
0.231211
-0.011924
0.239072
-0.211594
-0.355935
-0.0868283
-0.093013
0.0215339
0.0714791
0.308082
-0.288048
-0.020029
0.0212376
0.0682957
-0.0895333
0.201223
0.400648
-0.448885
0.0929647
-0.297576
0.19522
0.00728568
-0.107369
0.0106107
0.00252379
-0.0131344
-0.220885
-0.0760872
0.00126939
-0.237384
0.236117
-0.350101
-0.138549
0.198252
-0.184956
0.483914
-0.146215
0.0203801
0.137183
-0.124834
-0.585001
0.257839
0.0149118
0.0417017
0.116049
-0.0947917
0.0363132
0.0119636
-0.0034723
-0.0212805
-0.00885718
0.39699
-0.307426
-0.302244
0.0570115
-0.258396
0.339206
-0.0808079
-0.00877549
-0.178688
0.140532
0.00137961
0.0105917
-0.0119713
-0.00469552
-0.00988437
0.0145799
0.231017
-0.168754
0.00528011
0.00801982
-0.0150253
-0.143752
0.146428
-0.00267661
-0.0977379
0.0869434
-0.114193
0.0925475
-0.00176829
-0.0123832
0.110397
-0.00593127
0.0355664
0.0552685
-0.0908349
0.00952114
-0.00364893
0.13602
0.00294286
-0.138962
0.171695
-0.00023549
-0.0250878
0.0765562
-0.400965
-0.0128081
0.215812
-0.142174
0.0367545
-0.032347
-0.127045
0.144705
-0.0176599
0.374628
-0.283957
0.123658
-0.00126588
-0.0998846
0.119141
-0.00374739
0.00130229
-0.000798838
-0.000503452
0.215477
-0.00206688
-0.213409
-0.0538749
0.0387211
0.0280793
0.132012
-0.160091
-0.0200455
0.0873609
-0.0673154
-0.0515967
-0.0522827
0.103879
0.123155
-0.0898748
-0.160346
0.182934
-0.369656
0.205948
0.0414615
0.308388
-0.432281
0.123899
-0.0458763
0.207455
-0.508278
-0.0269536
0.185191
-0.371232
0.11303
0.258208
0.00547703
0.110053
-0.11553
-0.0170019
0.109139
0.0117152
0.00536165
-0.0170768
0.0784587
0.0305237
-0.108982
-0.032613
-0.0598213
-0.0410678
-0.0115126
0.0727824
0.262176
-0.365213
0.103042
0.00501066
0.00902664
-0.0423187
0.0332921
0.325822
-0.394254
0.0684403
0.354524
-0.152607
-0.0106381
0.163246
0.00265386
0.0132664
0.333768
-0.593846
0.260079
0.130436
-0.00722949
-0.123206
0.0741764
-0.00285277
-0.0713237
0.121624
-0.152946
0.031322
0.374239
-0.267982
-0.106256
-0.28862
0.230653
0.0579688
-0.18148
0.324327
-0.142842
-0.0811395
-0.0648958
-0.147161
0.10332
0.23328
0.00553703
-0.0247048
0.0340767
-0.0222935
-0.0117832
-0.119209
0.12445
-0.0993234
0.0156758
-0.0184079
0.154428
0.100509
-0.0903208
-0.0101882
-0.213468
0.222924
-0.205223
0.154096
0.0121817
0.0416402
-0.053822
-0.0686636
0.0974848
-0.0288213
0.00359104
-0.00467777
0.0340036
-0.0392307
-0.592196
-0.417376
0.311816
0.105565
-0.147122
0.311479
0.347256
-0.0719295
-0.275325
0.117731
0.159648
-0.0566295
-0.0772717
0.133901
0.372584
-0.0778751
-0.294704
-0.000245668
0.100975
-0.10073
-0.50461
0.444872
-0.168015
-0.300875
0.129147
-0.0163791
-0.00667207
0.107939
-0.0596498
0.0952161
-0.356058
0.0751224
0.0351483
-0.175241
-0.242131
0.012634
0.0427592
-0.0553932
0.272833
0.229089
-0.184879
0.136298
0.458636
-0.183175
0.0191356
0.0779619
-0.0970974
-0.00095192
0.0669572
-0.102475
0.278235
-0.07476
-0.0579918
0.359997
-0.145258
-0.214737
0.149719
0.00235248
-0.00267887
0.2353
0.102391
-0.337687
0.19502
-0.275664
-0.139595
0.118488
0.171953
0.0144629
0.00563045
0.28312
0.11689
-0.177994
0.0611048
0.251867
-0.282278
0.121249
-0.502684
0.137535
-0.0169491
-0.095952
-0.169315
-0.216803
-0.238623
0.455447
-0.163142
-0.049085
-0.00276108
-0.00354993
-0.202645
-0.0139239
0.216569
-0.0677445
0.0883999
-0.0320688
-0.00162213
-0.00317822
0.0137889
-0.222632
0.019988
-0.451208
0.234426