/*--------------------------------*- C++ -*----------------------------------*\
| =========                 |                                                 |
| \\      /  F ield         | OpenFOAM: The Open Source CFD Toolbox           |
|  \\    /   O peration     | Version:  v2012                                 |
|   \\  /    A nd           | Website:  www.openfoam.com                      |
|    \\/     M anipulation  |                                                 |
\*---------------------------------------------------------------------------*/
FoamFile
{
    version     2.0;
    format      ascii;
    class       volVectorField;
    location    "100";
    object      U;
}
// * * * * * * * * * * * * * * * * * * * * * * * * * * * * * * * * * * * * * //

dimensions      [0 1 -1 0 0 0 0];


internalField   nonuniform List<vector> 
13917
(
(1.09694 0.121565 1.25501e-21)
(1.02068 0.0414947 0)
(0.564706 -0.0578819 -2.46729e-20)
(1.05669 -0.0122451 0)
(0.99629 0.00321257 4.27719e-22)
(0.359775 0.0515278 0)
(0.494931 -0.0549335 -1.31249e-20)
(0.56774 -0.0519493 1.17073e-20)
(0.408839 -0.0523674 0)
(1.1411 0.150837 0)
(1.13174 -0.0595315 6.64725e-20)
(1.09837 -0.0463321 0)
(1.05722 -0.0130468 -8.03993e-21)
(-0.0211638 -0.000911775 -3.69471e-20)
(0.97221 0.0939437 0)
(0.995365 0.0885984 0)
(1.01512 0.0467417 0)
(1.14072 0.0215652 0)
(1.09702 -0.0458596 6.01263e-21)
(1.00139 0.00462799 0)
(0.999971 0.000833391 0)
(0.472809 -0.0540823 -8.95645e-22)
(1.00086 0.00773985 4.04825e-21)
(0.624731 -0.0565551 -1.77223e-20)
(0.995002 0.0146143 2.84244e-21)
(0.508872 -0.0610522 -3.30904e-20)
(0.784122 0.0328019 4.72561e-20)
(0.758119 0.12038 0)
(0.731971 0.568919 0)
(1.19575 0.0893381 -1.17182e-20)
(1.11148 0.111502 8.2211e-22)
(1.0607 0.0891776 2.14058e-20)
(0.838071 0.0679433 -5.02327e-20)
(0.911379 0.000664489 2.20818e-20)
(0.991512 0.0116632 8.15246e-21)
(1.14958 -0.081805 0)
(1.00078 0.00727374 0)
(0.110962 -0.0189074 -1.32482e-20)
(1.06451 -0.0177612 4.42089e-21)
(0.28225 -0.00918514 1.40164e-21)
(1.0081 0.000768104 0)
(0.999989 0.000369713 -8.70993e-22)
(1.01982 0.00232247 -4.78689e-22)
(0.703363 0.202705 0)
(1.03885 0.024139 5.22851e-21)
(0.89274 0.0142174 0)
(1.13834 0.0198452 0)
(1.14262 -0.00871911 -1.22404e-20)
(0.104452 0.134017 3.98817e-19)
(1.00329 0.000762855 0)
(1.08689 0.0153582 2.52308e-20)
(0.965794 0.00943755 -1.05498e-20)
(0.0754852 0.112391 -3.84567e-19)
(0.906759 0.00187923 9.35438e-22)
(1.01395 0.047743 1.99641e-21)
(1.08608 0.0390027 0)
(1.13207 -0.0582836 -6.51871e-20)
(0.995543 0.0292561 0)
(1.07184 0.0449736 -5.73287e-21)
(1.03738 0.0236821 -4.89743e-21)
(0.539327 0.0533689 1.16101e-19)
(1.02219 0.0415434 0)
(-0.0338354 0.00332387 4.1046e-20)
(1.00149 0.0050311 2.88116e-21)
(0.386447 0.0637684 0)
(1.03459 0.350631 -1.82291e-19)
(0.995539 -0.000507604 -9.02614e-22)
(0.988282 -0.00159221 -1.86685e-21)
(1.15705 -0.0361511 0)
(1.06378 0.1359 1.8101e-22)
(0.996664 0.00335124 -1.93725e-22)
(0.465092 -0.0585255 -7.1662e-21)
(-0.0651433 -0.0175712 0)
(0.995574 0.0142614 -4.08578e-21)
(0.106004 0.207672 0)
(1.0891 -0.0535917 -9.80978e-21)
(-0.0719448 -0.00807682 -1.19651e-20)
(1.05434 0.0268842 2.73675e-21)
(0.525861 -0.0623023 1.58862e-20)
(0.999887 0.0017367 0)
(1.00004 0.00278535 -1.08769e-20)
(0.996083 -0.000446322 8.35123e-21)
(0.405672 0.126988 -6.64905e-21)
(0.138817 -0.0219511 0)
(-0.0962182 0.0202319 0)
(1.05324 0.0256808 -1.53231e-20)
(1.0003 0.00374937 -7.09616e-21)
(1.18082 0.4268 3.18469e-20)
(1.08501 0.0152428 8.90292e-21)
(1.02027 0.00232009 -3.02337e-21)
(0.00939435 -0.0205013 0)
(1.17791 0.130129 0)
(1.02292 0.0231189 -5.37593e-22)
(0.974026 0.0532066 0)
(1.13216 0.421021 -7.12782e-20)
(0.387041 -0.00984337 -1.93032e-19)
(1.14006 -0.0410068 0)
(1.14233 -0.000109756 4.68019e-20)
(1.09523 -0.0684012 -2.3688e-21)
(0.609352 0.127711 -1.29125e-20)
(1.01084 0.00568986 -5.76662e-22)
(0.845916 -0.000291794 4.79229e-20)
(0.693209 0.187557 0)
(1.06196 0.0202976 0)
(1.01607 0.0120028 -1.5138e-22)
(0.479646 -0.0581682 0)
(0.812258 0.507934 0)
(1.14493 -0.00968155 1.41083e-20)
(1.01697 0.0472317 -1.02906e-21)
(1.11179 0.12633 3.12306e-20)
(-0.173455 -0.0148546 -6.41958e-20)
(0.288671 -0.0109469 0)
(1.10033 -0.0542402 -6.03408e-21)
(0.443083 -0.0573517 -8.7199e-22)
(0.948743 0.00834789 -9.46547e-21)
(0.0830522 -0.11886 -8.36995e-20)
(1.00077 0.0135297 1.09526e-20)
(0.20076 0.0923137 -1.85886e-19)
(0.135172 -0.00991527 -4.33541e-20)
(0.908021 0.0144098 -4.82346e-20)
(0.999983 0.000718533 9.13582e-22)
(1.15717 -0.0350585 0)
(0.103957 -0.00976015 0)
(0.76701 0.113629 -5.48022e-20)
(1.00489 0.000661619 -4.16817e-21)
(0.975431 0.0506221 0)
(1.03426 0.0276296 0)
(1.00453 0.000534465 2.48464e-21)
(1.01712 0.00164998 -1.22686e-21)
(0.362307 0.00450538 2.96035e-19)
(0.204706 -0.0240573 0)
(0.951181 0.0074176 3.74396e-20)
(1.03923 0.0251444 -4.57385e-21)
(0.999976 0.00065638 0)
(1.27137 -0.0163199 -5.7773e-20)
(0.640917 -0.0606909 -8.20792e-23)
(1.09437 0.126151 4.32292e-20)
(0.585484 0.128846 -3.97625e-20)
(0.995221 -0.000104673 4.1322e-21)
(0.908999 0.0101862 3.33826e-20)
(1.14379 -0.0757819 4.10068e-21)
(1.02427 0.0127236 0)
(0.962655 0.0215795 4.14625e-20)
(0.655414 0.199227 5.26218e-20)
(0.987635 -0.0012998 -5.7857e-22)
(0.674566 -0.0584301 -3.35344e-22)
(0.802253 0.574936 -7.35671e-22)
(0.967693 0.00983641 1.66913e-20)
(1.02285 0.0106753 9.29338e-22)
(1.05565 0.0983421 -1.27273e-21)
(1.12123 -0.0198879 0)
(0.0926474 -0.152765 -9.2038e-20)
(1.12096 -0.044146 -3.71325e-22)
(1.0264 0.179709 0)
(1.07731 0.0635128 2.05645e-21)
(-0.055014 0.052582 0)
(1.05895 0.133154 0)
(1.12515 -0.0574604 0)
(-0.0936595 -0.00591948 0)
(1.26732 -0.0145404 -4.70469e-20)
(0.940355 0.0437204 1.22194e-20)
(0.78507 -0.0275085 0)
(1.00001 0.00187167 0)
(1.13818 -0.0408815 0)
(1.10119 -0.0532532 -6.66207e-21)
(1.0968 -0.0675781 1.02395e-20)
(1.06105 0.0211628 0)
(1.13105 -0.0117666 3.58338e-20)
(1.03202 0.020576 -1.1934e-21)
(0.839039 -0.00459178 -5.91329e-20)
(1.04597 0.172619 8.59611e-21)
(-0.303487 0.00139761 0)
(1.09736 -0.0576301 0)
(1.0128 0.0558714 -5.37021e-22)
(0.814129 -0.0569766 -9.21512e-21)
(1.01569 0.200531 2.4673e-21)
(0.227292 -0.0281871 0)
(0.163634 0.094134 6.67506e-20)
(0.73076 -0.0592122 1.92913e-20)
(1.01241 0.0266368 -5.27006e-21)
(1.18334 0.124787 0)
(1.11689 0.110018 1.68787e-21)
(1.02476 0.0122845 -1.3776e-21)
(1.0003 0.00411741 5.94439e-21)
(0.936559 0.113067 0)
(0.566648 -0.0654399 -5.25988e-24)
(1.26556 0.134231 0)
(-0.00163054 0.0530006 3.97572e-20)
(1.11677 0.0424706 -3.12816e-20)
(1.10736 -0.0640834 3.06701e-20)
(1.1632 -0.0644084 0)
(-0.0457659 0.0244912 0)
(1.256 0.176487 0)
(0.999676 0.00759491 -1.26876e-20)
(0.564516 0.0616661 6.51459e-22)
(0.794712 0.0346606 -5.57743e-20)
(1.00703 0.000288816 -3.155e-22)
(1.02314 0.024124 1.07599e-21)
(0.873235 0.442502 -7.91732e-21)
(1.20972 0.476674 -1.0704e-19)
(1.07825 -0.00266247 0)
(1.003 0.000683439 1.98391e-21)
(1.12509 -0.0128114 0)
(1.11943 -0.0201859 -7.01049e-21)
(-0.0915596 -0.0136031 0)
(1.22608 -0.0359008 2.28865e-20)
(0.991835 0.0108627 -1.25862e-22)
(0.994835 0.0303448 0)
(1.14012 -0.0018037 5.03967e-21)
(0.584041 -0.0649706 1.09384e-20)
(0.96487 0.0219215 -4.30414e-20)
(0.478925 -0.054436 -2.64877e-20)
(-0.137493 -0.00770427 1.3163e-20)
(1.10857 -0.063291 -2.01237e-20)
(1.01569 0.0122865 2.01092e-22)
(0.49385 0.407083 -1.87834e-19)
(1.13318 -0.000988925 -3.38137e-20)
(-0.254737 -0.00795381 -1.51739e-19)
(1.00284 0.0177331 0)
(0.692596 0.0742132 -9.9439e-20)
(1.01202 0.0256485 2.50528e-21)
(1.18688 0.0664393 6.12727e-21)
(1.00794 0.000954865 0)
(0.100464 -0.0218011 0)
(0.459906 -0.0591801 -1.48098e-20)
(0.996329 0.0920895 -1.00425e-21)
(1.18941 0.479173 2.77043e-20)
(1.08037 0.0625405 0)
(1.01498 0.0118611 0)
(1.15014 -0.0820122 0)
(1.09589 -0.056813 -1.46162e-20)
(1.11553 0.0400439 -5.72237e-24)
(0.649508 -0.0611685 1.3472e-20)
(-0.157634 -0.00514579 0)
(1.01174 0.00294521 2.84145e-22)
(1.06398 0.0903487 -1.62321e-20)
(0.0383723 -0.0239399 0)
(-0.137478 0.0217798 7.11913e-20)
(0.999968 0.00210272 0)
(1.00593 0.00871912 0)
(0.342183 -0.0100525 1.68308e-20)
(1.14501 -0.0406443 -4.74573e-20)
(1.00004 0.000113993 4.18875e-21)
(1.12259 -0.0807134 -3.98281e-21)
(1.17184 0.0120803 1.03299e-21)
(0.794967 -0.0326095 1.12402e-20)
(1.09459 0.106966 1.20415e-21)
(1.00001 0.00204312 0)
(0.979128 0.204803 -6.34677e-21)
(-0.126942 -0.00543449 0)
(1.04093 0.00274617 -6.88438e-21)
(1.20015 0.141236 -1.56968e-21)
(0.570599 0.173049 -7.0813e-20)
(1.03397 0.0263546 3.38923e-21)
(0.994962 0.0275802 -1.35388e-20)
(1.11439 -0.038808 7.92026e-21)
(0.351653 -0.0191928 -8.79206e-21)
(1.11959 -0.0431389 -2.05849e-20)
(0.937365 0.117759 0)
(0.975536 0.096588 0)
(1.00003 0.000200067 -2.15572e-22)
(0.0818505 -0.00623468 0)
(0.679489 -0.0520985 -4.26596e-21)
(1.11684 -0.0899215 3.84004e-20)
(1.01454 0.0121294 -4.87754e-22)
(-0.126676 -0.0154896 5.13898e-20)
(-0.00583752 -0.0050246 -7.48187e-23)
(1.06893 -0.0597973 -3.12278e-20)
(0.50635 -0.0602396 -1.94291e-20)
(1.08917 -0.0549197 0)
(0.999995 0.00257088 6.9852e-21)
(1.00599 0.000795008 0)
(1.13753 0.0151733 -2.08454e-20)
(0.0329142 -0.0149179 -3.55844e-20)
(1.16175 -0.0185097 -6.29904e-20)
(1.07031 0.0428788 1.13602e-20)
(1.22982 -0.0379202 -2.36312e-20)
(1.08279 -0.0378254 1.54165e-20)
(1.01701 0.00109054 1.36805e-21)
(0.9605 0.0122745 -1.38371e-19)
(1.00179 0.0045655 5.061e-21)
(0.774816 -0.0563225 -3.80929e-20)
(1.07639 -0.00235026 1.29609e-20)
(1.00006 0.000115654 -6.27231e-21)
(1.0001 0.109077 -3.9936e-21)
(1.0207 0.181615 7.10219e-22)
(0.785332 -0.015127 0)
(1.12907 -0.0818415 -2.36371e-21)
(0.997695 0.144648 0)
(1.04371 0.00957889 -3.04011e-21)
(1.23758 0.00509836 -5.3721e-20)
(0.659098 -0.0601365 0)
(0.578265 -0.0547691 -3.92284e-20)
(1.00256 0.017212 6.53046e-21)
(1.04023 -0.0559288 -3.05435e-20)
(0.998413 -6.12221e-05 0)
(1.04378 0.0086161 1.71866e-20)
(1.0009 0.0129249 -1.54918e-20)
(0.81446 0.614683 -1.70206e-21)
(1.00147 0.000809503 0)
(1.1917 0.0660195 -6.07274e-20)
(1.09004 0.106751 1.52809e-20)
(1.03158 0.0196106 1.94879e-21)
(1.12513 -0.0148826 -5.16869e-22)
(1.03808 0.0566831 -2.81748e-21)
(0.113379 0.0558121 2.27599e-19)
(1.01491 0.195365 -1.75961e-21)
(1.17199 0.127586 -6.34091e-20)
(1.02999 0.0136849 1.1498e-21)
(0.995634 0.0265769 1.31476e-20)
(-0.195434 -0.0114135 3.55343e-20)
(0.0768163 -0.00758451 -2.77218e-20)
(1.00102 0.0140859 -6.2444e-21)
(1.00682 0.000840682 -1.04879e-21)
(1.01355 0.0208629 -8.60179e-22)
(1.01567 0.0251973 -2.60038e-21)
(-0.0426857 -0.0201907 0)
(1.02904 0.0135616 0)
(0.117444 -0.0222361 1.51263e-20)
(1.04759 -0.00600631 -3.84798e-21)
(1.20919 0.326887 -4.87713e-20)
(1.10348 0.00476463 -3.84264e-20)
(0.111393 0.27997 -1.75983e-19)
(0.944152 0.043471 -1.05888e-20)
(1.29654 -0.00910193 6.22389e-20)
(0.510457 0.300394 -1.01751e-19)
(1.00318 0.106862 0)
(1.14608 -0.0392322 6.59167e-20)
(0.95325 0.520772 0)
(0.995937 0.043698 -7.63438e-21)
(0.153913 -0.020398 0)
(0.572788 0.0408383 0)
(0.00233192 -0.00680194 -2.36743e-23)
(0.922456 0.0193478 -3.32031e-20)
(0.188747 -0.0081521 -1.65778e-26)
(1.07023 0.0885693 1.31437e-20)
(-0.0832914 0.00109032 0)
(0.528715 0.279314 -8.02521e-20)
(0.920741 0.351998 0)
(0.936962 0.346896 -1.0758e-20)
(0.510504 -0.05554 3.01681e-20)
(0.999704 0.00217144 0)
(1.05228 0.1759 1.27018e-20)
(-0.140162 -0.0165378 -5.82755e-20)
(0.98284 0.0293897 5.23132e-23)
(1.0022 0.0716605 -1.29899e-21)
(0.0118522 -0.00448068 0)
(0.860263 0.476902 -1.39093e-20)
(1.01761 0.0527068 2.28227e-21)
(1.14761 -0.0630616 0)
(0.701802 0.541441 0)
(1.0089 0.0049216 -4.47164e-22)
(0.115552 -0.00637318 5.5056e-20)
(1.15651 -0.0733984 2.92581e-20)
(1.00192 0.00493297 0)
(1.00922 0.0126926 0)
(0.99861 -0.000262239 -2.3617e-21)
(1.02323 0.0103103 0)
(1.23055 0.00361213 0)
(0.766939 -0.0588324 0)
(0.387881 -0.28182 1.21218e-19)
(-0.162172 -0.0136495 -3.04333e-20)
(0.997974 0.0142075 0)
(1.20724 0.14052 5.6728e-20)
(-0.193501 0.0225382 -2.53145e-19)
(1.11504 -0.00518908 -9.63902e-20)
(0.458411 -0.053239 4.42791e-20)
(0.062091 -0.0186096 -2.68351e-20)
(0.423839 -0.0580057 0)
(1.013 0.00539028 0)
(1.10945 -0.0873926 -2.79638e-20)
(1.01039 0.0123258 -9.1241e-22)
(0.821064 0.0876549 -5.26559e-20)
(1.03649 0.0243417 -1.92934e-22)
(0.0856316 0.327604 0)
(1.17458 0.0137995 0)
(1.06669 -0.00919927 0)
(0.999548 0.00268345 0)
(1.13777 -0.000655733 -4.58111e-20)
(1.18946 0.125925 -2.77622e-20)
(1.15554 0.00907604 -2.14906e-21)
(0.326036 1.09095 0)
(-0.12781 -0.000112839 0)
(-0.281223 -0.00495714 1.84532e-19)
(0.984164 0.21291 0)
(1.13463 0.147832 -9.22465e-22)
(1.00562 0.00829002 0)
(-0.112301 0.0229534 0)
(0.462356 -0.0549116 -2.07807e-20)
(0.999535 0.0333186 -1.15729e-20)
(1.27 -0.00392068 0)
(0.99574 0.010666 -7.51206e-21)
(1.19952 -0.0215335 -7.20467e-20)
(1.04768 -0.00535136 4.4002e-21)
(0.999778 0.00179885 9.61556e-21)
(1.03345 0.0598139 0)
(0.571559 -0.0606467 -1.41899e-20)
(1.03168 0.0601103 8.49532e-22)
(0.371318 -0.024425 0)
(-0.0577697 0.0399496 -2.47791e-19)
(1.12335 -0.0612473 4.81731e-20)
(0.442444 0.280495 -2.4971e-19)
(0.997667 0.0433352 1.15015e-20)
(0.495813 0.364191 1.93272e-19)
(0.468658 0.305202 1.23709e-19)
(1.00203 0.00989871 3.66211e-21)
(0.825043 0.477466 7.99286e-21)
(0.984229 0.0290854 1.18243e-20)
(0.994544 0.0124134 1.56969e-21)
(1.19443 0.0941093 1.37987e-20)
(1.00006 0.000299279 -3.887e-21)
(0.993868 0.0140533 -2.1558e-20)
(1.01062 0.0121277 0)
(1.23333 0.00852267 0)
(0.999936 0.00136546 8.86787e-21)
(0.197609 -0.0106545 0)
(0.670642 -0.0729477 -1.33995e-20)
(-0.127054 0.0179179 0)
(1.25113 0.183026 -5.58373e-20)
(0.337893 -0.0329018 5.32201e-21)
(-0.228249 -0.00984903 0)
(1.11308 -0.00568135 9.00662e-20)
(0.998315 0.0136229 3.56997e-21)
(1.20229 0.00842088 4.20323e-20)
(1.06412 -0.0164867 1.26921e-21)
(1.06881 0.0959073 0)
(0.999681 0.0081576 -4.74791e-21)
(0.699256 -0.0600947 -4.06095e-20)
(0.525493 -0.0611185 -1.21918e-20)
(0.730619 -0.0772186 0)
(0.984234 0.0872669 1.26694e-20)
(1.17465 0.0030391 1.8024e-22)
(0.925853 0.0164903 3.6108e-20)
(1.06599 -0.0182173 8.95651e-21)
(1.15356 0.00770199 2.87435e-20)
(1.0194 0.0615771 -6.01721e-22)
(1.10721 -0.0882879 -4.12658e-21)
(1.01805 0.0460102 2.61329e-22)
(1.00146 0.000955127 0)
(-0.0126301 -0.0245335 -4.13038e-20)
(0.222075 -0.0270121 -3.7525e-20)
(0.243177 -0.0300868 3.14545e-20)
(1.18133 0.211777 -1.9835e-21)
(-0.135573 0.013774 0)
(0.183391 -0.02404 -2.43909e-22)
(-0.0810575 -0.0287918 5.77238e-20)
(-0.0424187 -0.00754154 -3.73085e-20)
(1.01637 0.00179241 3.8614e-22)
(1.13925 0.00670751 4.66883e-20)
(1.02143 0.0613674 3.69179e-22)
(0.992529 0.030947 0)
(1.21983 -0.0322656 4.40762e-20)
(1.13946 0.0167353 0)
(1.01763 -0.000132424 4.46246e-22)
(1.15734 0.048366 0)
(1.11345 -0.000454261 -1.71276e-21)
(-0.0374207 -0.0053593 3.97384e-20)
(1.00219 0.0102643 -1.21886e-22)
(1.14922 -0.0292334 0)
(-0.00681221 0.0131843 5.16984e-20)
(1.22868 0.342254 -3.21545e-20)
(0.197672 -0.014519 1.96837e-20)
(0.99994 0.0011836 -1.41746e-20)
(0.998422 0.0337544 7.1459e-21)
(1.0108 0.000411491 0)
(1.05379 0.136968 0)
(1.01292 0.00499298 3.87732e-22)
(0.633337 -0.0726437 -1.01307e-20)
(0.399249 -0.24209 -1.89357e-19)
(1.00062 0.139291 -1.12842e-21)
(-0.0707493 0.0303332 -8.89555e-20)
(1.08554 0.0366266 -1.97354e-20)
(1.13735 -0.042877 0)
(-0.0426464 -0.0324023 0)
(0.823612 0.575741 1.08173e-21)
(1.12164 -0.0612457 -2.52913e-20)
(1.15141 -0.0762135 0)
(1.14895 -0.0305195 9.35369e-21)
(1.15602 0.0650046 -4.8427e-20)
(1.19036 -0.00480842 2.87021e-20)
(1.09911 -0.0262959 -1.85903e-20)
(1.11562 -0.0695512 0)
(0.375845 0.106905 1.60425e-19)
(1.09528 -0.0353671 2.35658e-20)
(1.1443 -0.0170205 -5.15602e-20)
(1.01409 0.00065607 4.97774e-22)
(1.25798 -0.0223211 8.56464e-20)
(1.08986 0.0183047 2.49755e-20)
(1.02957 0.0030936 -8.18256e-21)
(1.04939 0.13339 0)
(1.05681 0.0252364 0)
(-0.0328002 -0.00784299 0)
(0.465521 -0.0600491 0)
(1.01493 0.0242044 3.16993e-21)
(1.0169 0.000875202 0)
(0.653408 -0.0709382 -2.36713e-20)
(-0.250075 -0.0065386 0)
(1.00005 0.000226842 2.37096e-23)
(0.174944 -0.00935565 3.96503e-20)
(1.0578 0.00445123 0)
(1.23946 0.16208 2.05386e-20)
(1.01434 0.0261147 -3.79496e-21)
(-0.125179 -0.0116716 6.58316e-20)
(1.18201 -0.0461313 0)
(1.05861 0.0960306 1.21308e-20)
(1.0372 0.037264 5.81251e-21)
(0.363771 -0.0381712 -4.42221e-21)
(1.254 0.132665 0)
(-0.254167 0.0120189 -1.25864e-19)
(1.00004 0.000270952 0)
(-0.126295 -0.00798 5.35782e-20)
(0.136191 0.0551679 -7.63924e-21)
(0.985664 0.0241447 -7.71841e-20)
(1.02973 0.00362127 1.18486e-21)
(-0.128535 0.0202614 0)
(0.324604 -0.0546613 -8.08909e-20)
(1.11294 -0.00926621 2.94827e-21)
(1.00976 0.0127706 0)
(1.00909 0.0471723 5.93064e-21)
(1.08635 -0.053638 0)
(1.19819 -0.0253712 1.94998e-20)
(1.01805 -0.000146517 2.67883e-22)
(1.00875 0.0119753 -2.01095e-21)
(1.0048 0.00232864 0)
(1.00511 0.00243555 0)
(-0.149945 -0.0127746 0)
(1.21979 -0.0295307 -2.31059e-20)
(1.11233 -0.00800263 0)
(1.264 0.120103 4.5788e-20)
(1.00601 0.000617946 5.32371e-22)
(1.0104 0.0053983 -2.57535e-22)
(1.17155 0.00186452 0)
(0.185042 -0.0478467 8.22523e-21)
(1.1068 0.0526077 -2.23444e-20)
(1.03318 0.0208432 0)
(0.994866 0.0128599 -9.20781e-21)
(0.992498 -5.31296e-05 6.46808e-21)
(0.925631 0.0147472 1.69355e-19)
(-0.000828218 0.0270457 0)
(1.00044 0.00355983 6.5554e-21)
(0.99269 0.00289737 -6.31751e-21)
(1.10522 -0.0870947 0)
(1.09951 -0.0247131 1.87208e-20)
(1.10264 0.00338688 -2.97292e-20)
(0.997396 0.0322067 1.30242e-20)
(1.02896 0.0629877 0)
(1.04421 0.0944675 9.56683e-21)
(1.14236 -0.0178923 3.07922e-20)
(0.949114 0.494502 4.4933e-22)
(1.26909 0.128851 0)
(1.20233 0.00464949 -3.29319e-20)
(1.16024 -0.00940785 2.82769e-20)
(1.22469 -0.0386503 -5.70432e-20)
(1.17151 0.120643 3.76665e-20)
(1.00176 0.0166577 3.55715e-21)
(-0.113828 -0.00787247 0)
(0.992841 -0.000537248 -6.98846e-22)
(1.00281 0.0745467 2.6928e-21)
(1.06838 -0.00122431 -5.12199e-21)
(1.25513 -0.0226847 0)
(0.992484 0.289755 -5.17136e-21)
(1.00959 0.00120519 -7.16776e-22)
(1.23147 0.331165 6.32172e-20)
(1.20427 0.0817393 2.68648e-20)
(-0.0923834 -2.75701e-05 1.8388e-21)
(1.16152 -0.00769273 1.0336e-20)
(0.887797 0.134817 4.42324e-20)
(1.1158 -0.00106559 2.63571e-20)
(0.999416 0.00297438 6.48979e-21)
(0.504716 -0.0560331 4.15994e-20)
(1.22077 0.320596 -3.02454e-20)
(0.349995 -0.0408143 2.0425e-20)
(1.01737 0.043866 0)
(1.09683 0.0422695 7.92864e-21)
(1.26724 0.115303 1.35395e-20)
(0.0718235 -0.0203595 1.52589e-20)
(-0.178545 0.00451889 -6.96898e-20)
(1.14481 -0.00133124 8.20814e-22)
(1.1902 0.213646 1.09666e-19)
(0.991533 0.0876514 -2.26544e-21)
(1.05672 0.0561269 0)
(0.996334 0.0327122 7.86452e-21)
(0.889359 0.2308 0)
(0.671224 0.181098 0)
(0.973897 -0.0038028 1.6643e-20)
(1.131 -0.00239686 0)
(0.569701 0.147786 -8.5002e-20)
(0.364666 -0.0417269 -9.57036e-21)
(-0.247645 0.0137981 2.8422e-19)
(1.03202 0.0730556 0)
(1.13564 -0.0429607 -1.72384e-20)
(1.18856 -0.0454115 0)
(1.00464 0.117256 0)
(0.968378 0.0238911 1.79766e-20)
(0.174941 0.540271 2.40327e-20)
(0.670318 -0.0631166 2.51539e-20)
(0.612973 -0.056713 2.1866e-20)
(1.25851 0.102624 0)
(1.01702 0.00187714 1.704e-21)
(0.121551 -0.0082475 1.28357e-20)
(1.08771 -0.0530074 0)
(1.00951 0.00089231 6.9016e-22)
(1.09428 0.0739707 -3.33104e-20)
(1.13101 -0.0286461 5.55717e-21)
(0.847424 0.0696741 2.57768e-20)
(1.19223 0.0846966 0)
(0.512552 -0.0628517 3.15311e-20)
(1.18731 -0.00487197 0)
(1.09485 -0.023097 0)
(0.505381 -0.0556077 0)
(1.05899 0.0313434 1.6894e-20)
(-0.0624151 -0.00593845 2.14829e-20)
(0.999963 0.00184964 -5.2154e-22)
(1.00044 0.00387401 -7.52334e-21)
(1.01445 -0.0578613 2.61644e-20)
(0.638951 -0.063749 -2.88261e-20)
(0.377058 0.238589 3.53885e-20)
(1.05956 0.0299504 0)
(1.01407 0.0539583 -6.54243e-21)
(0.993111 0.00335318 -1.22024e-20)
(1.08405 -0.0379706 1.24538e-22)
(0.0783883 0.172768 -1.61179e-19)
(1.09628 -0.0659648 -2.76916e-20)
(1.05903 0.0565712 0)
(1.12095 -0.0593025 -2.641e-20)
(1.13563 -0.00220733 -2.43778e-21)
(1.01422 0.0268557 0)
(1.16734 0.48727 3.04753e-20)
(1.09447 -0.0651619 4.03681e-22)
(1.09031 -0.0877586 -1.11968e-20)
(1.00455 0.0192306 -5.80916e-21)
(1.18298 -0.00809426 3.05699e-20)
(1.05593 0.0267594 0)
(-0.01452 0.0504769 3.05176e-19)
(1.14694 0.147449 -2.53607e-20)
(1.00327 0.282815 -3.42745e-22)
(1.09796 0.0441674 0)
(1.00746 0.0027693 -4.38156e-21)
(1.0275 0.00592676 1.93262e-21)
(1.03553 0.0281964 2.16625e-21)
(0.967387 0.352714 1.59701e-21)
(0.891111 0.0192352 0)
(1.25166 0.038785 -1.46173e-19)
(0.470988 0.80608 -4.13729e-20)
(1.13104 -0.00957242 -1.39709e-20)
(1.00845 0.00485802 4.77779e-22)
(1.19209 0.000910549 3.59315e-20)
(0.373976 0.269059 2.3525e-20)
(1.15063 -0.0780091 2.04383e-20)
(1.04018 0.00331165 1.18579e-20)
(0.900586 0.0322978 -2.60762e-20)
(1.00823 0.0118565 9.70517e-22)
(1.0791 -0.0179818 1.4336e-20)
(1.07427 0.0446424 8.13216e-21)
(0.301321 -0.0548646 8.66737e-20)
(0.999846 0.00188627 -2.73487e-22)
(1.23584 0.506048 0)
(1.08028 -0.0148486 0)
(1.12986 -0.06119 4.1686e-20)
(1.175 0.142601 -1.86988e-20)
(-0.0796313 -0.0164886 -7.69132e-20)
(1.02609 0.280931 9.1142e-21)
(1.00869 0.0455133 -5.43354e-21)
(0.00367661 -0.0134977 0)
(-0.241724 -0.00206159 0)
(1.00631 0.0349061 1.0709e-20)
(1.06729 -0.00209124 -2.35239e-21)
(1.18662 -0.0449403 6.69396e-20)
(1.24963 0.10519 0)
(1.15949 -0.0188703 5.7597e-20)
(1.00014 0.000331472 2.49946e-22)
(1.03848 0.0372029 -6.66828e-21)
(1.19697 0.317719 -8.6827e-20)
(1.06732 -0.0101844 8.0824e-21)
(1.15542 0.0123228 0)
(1.11325 -0.0370933 -6.93187e-21)
(1.02818 0.00578318 -6.17156e-21)
(1.11749 -0.0231027 -8.40217e-22)
(0.573537 -0.057364 -1.4159e-20)
(1.03963 0.00167164 4.63464e-21)
(1.05396 -0.00818096 4.56647e-21)
(1.00429 0.00248198 3.00251e-21)
(0.0733983 -0.00586287 -1.33436e-20)
(0.99995 0.000789663 -7.44159e-21)
(0.984519 0.0833953 5.1502e-22)
(-0.298706 -0.000910914 0)
(0.9936 0.068265 -5.0841e-22)
(0.698848 -0.0600662 0)
(1.0762 0.0662207 0)
(0.832192 0.0737922 -6.66247e-20)
(1.00461 0.00259726 0)
(1.023 0.215101 2.1184e-21)
(1.00063 0.0122911 2.74335e-21)
(1.15423 0.0730067 2.46526e-20)
(1.00714 0.00165868 4.84663e-22)
(1.08462 0.261745 -4.87155e-20)
(1.05752 0.00526583 -7.53885e-21)
(0.247023 0.145609 0)
(0.433816 0.681533 -4.89753e-20)
(0.18217 -0.0492563 -5.17724e-20)
(1.01034 0.000401026 2.17253e-22)
(0.999634 0.00234385 0)
(1.16576 0.117589 3.33244e-20)
(1.12647 0.113396 -1.84654e-20)
(0.0456017 -0.0087965 -1.74786e-20)
(0.29451 -0.0532886 5.60316e-20)
(1.14162 0.0249779 0)
(0.992853 0.0112564 1.09589e-20)
(1.23173 0.00737599 2.25509e-20)
(0.344145 0.213486 0)
(1.08981 -0.0868247 0)
(1.2485 0.042719 4.46187e-20)
(1.13329 0.011623 0)
(0.563425 -0.0663586 8.52904e-21)
(1.08711 0.130493 -1.09753e-20)
(1.08228 -0.0365324 -1.35533e-20)
(1.20127 0.0210916 3.60268e-20)
(0.855445 0.421533 1.47465e-20)
(1.14004 0.0268202 1.00677e-20)
(0.305029 0.289873 2.1361e-19)
(1.14042 0.0327266 1.8553e-20)
(1.06009 -0.00653675 0)
(1.13254 -0.0296678 -3.18183e-20)
(1.00734 0.108385 3.19787e-21)
(1.0332 0.00451618 8.63685e-21)
(1.07898 -0.0169552 -1.79536e-20)
(1.11355 0.121209 -6.14412e-20)
(1.05149 0.0967557 -1.12111e-20)
(0.99952 0.012232 0)
(1.00644 0.000493195 0)
(1.13346 -0.00629646 3.76071e-20)
(1.06379 0.0109353 4.929e-21)
(1.15816 0.0136363 -4.02107e-21)
(0.993525 0.0109687 -1.2717e-20)
(0.995337 0.00871038 9.10262e-21)
(0.999962 0.000622343 9.2744e-21)
(1.0248 0.0631911 0)
(1.02245 0.000845176 3.05756e-21)
(1.04969 0.0824455 0)
(1.0038 0.00264379 0)
(-0.133145 -0.0108531 -3.27792e-20)
(1.09462 -0.0470154 1.99325e-20)
(0.47278 -0.287972 0)
(1.01177 0.00510754 2.13702e-23)
(1.00005 0.00142575 7.15301e-21)
(0.80293 0.143607 8.08781e-20)
(1.15927 0.0628404 5.53165e-20)
(0.954061 0.00335084 -4.77749e-20)
(0.831731 -0.0054665 3.76972e-20)
(1.13648 0.198224 -6.46526e-20)
(0.997526 0.113731 -9.69762e-20)
(1.08034 -0.0159075 0)
(1.18 0.000760168 2.52588e-20)
(1.05183 0.0152436 3.06111e-21)
(0.999915 0.000881757 -7.33525e-21)
(1.00535 0.00217063 4.08101e-21)
(1.03633 0.057743 -2.17852e-21)
(-0.326473 0.00264567 1.13004e-19)
(1.00004 0.001211 -1.01452e-20)
(1.18581 -0.0451872 0)
(1.0511 0.0848726 8.3249e-21)
(-0.19184 0.0254355 1.48217e-19)
(0.967439 0.224308 1.26043e-20)
(1.14385 0.196227 3.87898e-20)
(1.12786 -0.0610692 -3.19513e-20)
(1.02027 0.00605223 0)
(1 3.85606e-05 0)
(1.0961 -0.0474003 -2.69627e-20)
(0.988359 0.00323873 -1.50032e-20)
(0.985713 0.0429396 -1.99698e-22)
(0.976126 -0.00890944 -3.90876e-20)
(1.01383 0.0577728 2.07603e-21)
(0.998637 0.000391678 -1.45556e-21)
(1.08653 0.0546403 0)
(1.00605 0.00744529 4.25683e-21)
(1.0159 0.000835397 1.21876e-21)
(1.05799 0.0918297 -6.8146e-21)
(0.886202 -0.0238407 -8.1956e-21)
(0.0232694 -0.00602764 -8.27914e-20)
(1.08236 0.110483 1.83696e-20)
(1.0396 0.00110852 2.18334e-23)
(1.00874 0.000929473 6.10658e-22)
(0.103486 -0.0239825 1.43503e-20)
(0.952843 0.360241 1.00281e-21)
(1.00229 0.0420668 -3.27895e-21)
(1.0184 0.0431826 4.09837e-22)
(0.926127 -0.00324156 -1.27809e-19)
(1.18951 -0.044682 4.22658e-20)
(-0.30118 -0.004536 -2.33844e-20)
(0.895564 0.135344 0)
(1.06102 -0.0056754 -3.98092e-21)
(1.01137 0.00306961 -6.66384e-22)
(1.01611 0.000985703 -1.28427e-21)
(1.09686 -0.0353717 -2.00726e-20)
(1.08706 0.11153 -4.99576e-20)
(1.14324 -0.0572354 0)
(0.918538 0.0193196 0)
(0.129563 -0.0167474 -2.20933e-20)
(1.02876 0.0425067 0)
(0.965554 0.0591156 -8.14266e-21)
(-0.312309 -0.000428751 1.22734e-19)
(0.995561 0.0101301 0)
(1.09094 0.0167225 -2.36348e-20)
(1.00515 0.0313042 0)
(1.00188 0.00124086 0)
(1.10625 0.126711 -3.48817e-21)
(0.775174 -0.00923988 0)
(1.04943 0.0273042 0)
(0.662112 -0.0604509 0)
(0.297313 -0.0154864 0)
(1.1794 0.137558 -1.77974e-20)
(1.00207 0.017252 -1.24228e-20)
(1.02445 0.00239146 1.40042e-21)
(1.1043 -0.0642127 0)
(1.20244 -0.0431205 1.2448e-20)
(1.00006 0.000371717 2.76508e-22)
(1.21124 -0.0384153 8.03132e-22)
(1.02394 0.00257602 -2.74797e-21)
(1.10997 0.116101 -8.83976e-22)
(1.03385 -0.00229041 -4.44021e-21)
(1.0344 0.00624182 -2.9885e-21)
(1.20368 -0.0259239 0)
(1.04002 0.0156308 -8.47066e-21)
(1.02331 -0.087568 -4.84625e-21)
(1.11519 0.0888709 0)
(0.999956 0.00055917 -2.76065e-22)
(1.01948 0.00326771 -2.72359e-21)
(0.981602 0.000871887 -2.35213e-20)
(1.00949 0.0199499 -4.85873e-22)
(1.05349 -0.00712206 1.48316e-22)
(0.272208 0.68394 6.32565e-21)
(1.03837 0.00364991 8.79964e-21)
(1.0306 0.0101561 -2.12977e-21)
(0.36058 -0.0470767 0)
(0.58686 -0.0578764 5.34913e-20)
(1.0963 -0.0243738 0)
(1.12108 0.114685 -1.77759e-21)
(1.14905 0.00455832 2.96128e-20)
(1.07781 0.0244799 -8.33018e-21)
(1.0242 0.0139041 0)
(0.888925 0.0119707 0)
(-0.0978721 -0.0120601 -5.04618e-20)
(1.09441 0.263196 1.74054e-20)
(0.998272 0.00516651 4.56649e-22)
(1.03587 0.0363937 -8.56938e-21)
(0.324806 -0.05507 -3.31007e-20)
(1.11476 0.0208512 0)
(-0.115387 -0.0154664 -6.99028e-20)
(0.999953 0.000736323 0)
(0.951673 0.00418 -4.91368e-22)
(0.0578192 -0.00524915 2.92459e-20)
(1.10756 0.0149344 0)
(1.05158 0.0259445 8.49311e-21)
(-0.315461 0.00453848 0)
(0.213019 0.235981 0)
(1.00975 0.0194206 4.39191e-22)
(1.19737 0.0228267 0)
(1.00565 0.00228393 -3.27589e-21)
(1.03885 0.0155888 9.10011e-21)
(1.01214 0.00537669 -4.46231e-22)
(-0.100781 -0.0193353 -5.53018e-20)
(1.02204 0.000711423 -2.0578e-21)
(1.03873 -0.00458643 -4.99957e-21)
(1.02473 0.0134654 2.40323e-21)
(0.978527 -0.0863666 -1.0801e-20)
(1.06371 -0.0141794 5.21488e-21)
(1.24389 0.155074 2.1455e-20)
(0.703449 -0.0955282 1.50827e-19)
(1.03491 0.00437142 -1.64375e-21)
(0.8459 0.0267221 5.5002e-20)
(1.00047 0.00338051 3.05224e-21)
(-0.152728 -0.013243 0)
(1.00529 0.00997575 3.05996e-21)
(1.03905 0.00307561 -1.33275e-20)
(0.998679 0.000900227 0)
(1.10572 -0.0649974 -1.27544e-21)
(0.998521 0.00078145 3.40894e-21)
(1.18591 -0.00803748 -1.59582e-20)
(0.314427 -0.0099645 -2.52708e-21)
(0.686459 -0.0647342 -2.74766e-20)
(0.905432 0.0328192 -2.35809e-20)
(1.15541 -0.070978 1.1461e-20)
(-0.273666 -0.00219797 2.33448e-20)
(0.996777 0.0267828 0)
(0.102329 -0.00529965 -1.14429e-20)
(0.411758 0.0477573 -4.621e-22)
(-0.251883 -0.00271869 2.3545e-20)
(0.322326 -0.0316088 -3.12781e-21)
(0.342311 -0.0456509 1.39649e-20)
(0.114646 0.170215 5.60278e-20)
(1.18908 0.00246422 3.25752e-20)
(1.01077 0.048115 2.48128e-21)
(0.496457 -0.0612769 -1.86049e-20)
(1.10688 0.0168693 1.88053e-20)
(0.428717 -0.0509579 3.70787e-20)
(1.02903 0.00403339 1.98585e-21)
(1.02378 0.0226326 -1.07097e-21)
(1.00373 0.04304 5.87261e-21)
(1.0005 0.00367657 0)
(1.08286 0.0200633 0)
(0.892017 0.0912335 9.79183e-20)
(0.0821779 -0.0112971 0)
(1.02359 0.0216541 1.24547e-21)
(0.993945 0.00415579 0)
(-0.222874 0.0186088 -7.244e-20)
(0.971315 0.452113 0)
(0.981764 -0.000374697 -1.23985e-20)
(0.813592 -0.0540274 4.48467e-20)
(1.09398 0.0566734 -3.09437e-20)
(1.04517 0.0212439 0)
(0.496073 0.718355 2.14179e-20)
(0.807289 -0.0488328 -4.62882e-20)
(0.95248 0.0512534 1.01102e-20)
(1.06409 -0.0133682 5.46612e-21)
(0.276355 -0.0100865 0)
(-0.297698 -0.000298021 -8.84261e-20)
(0.223119 0.0579046 -1.50761e-20)
(1.03339 -0.00179878 6.79787e-21)
(1.25068 0.140587 0)
(1.20057 0.0779894 -4.46078e-20)
(-0.22948 0.00766606 -5.02848e-20)
(0.408506 -0.059107 0)
(1.09309 -0.0570871 -2.66828e-20)
(1.01542 0.0261591 1.94732e-21)
(1.05287 0.015985 1.30336e-20)
(1.02736 0.042876 -5.97345e-22)
(1.01849 -6.13509e-05 0)
(1.02746 0.0642476 0)
(1.01632 0.00156085 6.66383e-22)
(1.04659 0.092886 -6.52945e-21)
(1.08293 0.130302 2.37883e-20)
(-0.051618 0.0305363 -4.52676e-20)
(1.15285 -0.0318593 0)
(1.03923 -0.00403776 -8.13685e-21)
(1.17699 0.000213339 -4.65023e-20)
(-0.0624492 -0.0303225 -4.13494e-20)
(1.10284 0.121507 4.34298e-21)
(0.972795 0.0237393 -7.29455e-21)
(-0.0669751 -0.00481921 -4.75306e-20)
(1.03034 0.0192539 -3.64267e-21)
(0.98655 0.0409048 1.2941e-20)
(0.818619 0.0629154 0)
(-0.0132706 0.0372424 8.94992e-20)
(0.998462 -0.000579756 -1.07713e-20)
(1.00412 0.0195394 -3.2657e-21)
(0.459945 -0.0519503 2.93205e-20)
(1.14048 -0.0685788 -2.84108e-21)
(1.18721 -0.045284 -8.41016e-20)
(1.16111 -0.0135843 -2.05764e-20)
(1.15213 -0.0798676 -2.51063e-20)
(1.00765 0.0186415 -2.32347e-21)
(1.1983 6.99183e-05 0)
(0.971862 0.0256654 -2.58066e-20)
(1.00347 0.0105437 3.91501e-21)
(0.969721 0.0216363 -3.49595e-20)
(0.589394 -0.069636 0)