/*--------------------------------*- C++ -*----------------------------------*\
| =========                 |                                                 |
| \\      /  F ield         | OpenFOAM: The Open Source CFD Toolbox           |
|  \\    /   O peration     | Version:  v2012                                 |
|   \\  /    A nd           | Website:  www.openfoam.com                      |
|    \\/     M anipulation  |                                                 |
\*---------------------------------------------------------------------------*/
FoamFile
{
    version     2.0;
    format      ascii;
    class       surfaceVectorField;
    location    "300";
    object      Uf;
}
// * * * * * * * * * * * * * * * * * * * * * * * * * * * * * * * * * * * * * //

dimensions      [0 1 -1 0 0 0 0];


internalField   nonuniform List<vector> 
20642
(
(0.440209 0.0139559 5.28758e-21)
(0.44984 0.0158563 1.07868e-20)
(0.4601 0.0197139 -1.42992e-20)
(1.02225 0.0345147 1.49887e-22)
(1.02383 0.0354624 5.01215e-22)
(1.02382 0.0334005 3.40863e-22)
(1.07454 0.0726621 6.199e-21)
(1.07386 0.0723204 0)
(1.07315 0.0732908 0)
(1.03864 0.0146609 3.60004e-21)
(1.03853 0.0153097 3.33991e-21)
(1.03789 0.0146793 7.41148e-23)
(1.0217 0.00912698 0)
(1.02303 0.00846378 0)
(1.02146 0.00798557 3.03595e-22)
(1.02078 0.0329989 -4.41674e-22)
(1.02026 0.0351255 6.3627e-22)
(1.05491 0.0302996 -3.48116e-21)
(1.05396 0.0296506 -4.44998e-21)
(1.05403 0.03072 1.03256e-22)
(1.05538 0.0280259 -1.59924e-22)
(1.06161 0.0308721 -1.44346e-21)
(1.06036 0.0227541 1.32045e-21)
(1.06581 0.0187761 0)
(1.06513 0.0193572 -3.17416e-23)
(1.0662 0.019784 1.04889e-20)
(-0.00314986 -0.0404446 0)
(-0.00158236 -0.0412091 0)
(1.05073 0.0246616 0)
(1.05107 0.0309249 0)
(1.028 0.0127156 1.57637e-22)
(1.02828 0.0132207 -6.229e-21)
(1.02859 0.0128367 1.91469e-21)
(1.01287 0.000215087 -4.99436e-21)
(1.01305 0.000142557 -8.0587e-22)
(0.723383 -0.111834 -1.52474e-22)
(0.658405 -0.129629 9.87579e-22)
(0.708853 -0.111402 2.41848e-21)
(1.01388 0.0214891 4.3991e-23)
(1.01357 0.0224445 -4.56385e-22)
(1.01473 0.0223153 -3.49285e-23)
(0.427863 0.011909 1.73915e-20)
(0.406746 0.00706442 7.7238e-21)
(1.0012 -1.77501e-05 -3.34301e-22)
(1.00119 -3.25311e-05 1.24111e-22)
(1.00022 -2.72396e-05 1.29376e-22)
(1.0468 0.0218728 1.30856e-22)
(1.04239 0.0203476 -8.58212e-22)
(1.04332 0.0249503 5.72989e-22)
(1.07147 0.0637449 5.11535e-21)
(1.07167 0.0642551 -1.77168e-21)
(1.07106 0.0640531 0)
(0.438895 0.043551 6.71195e-22)
(0.469004 0.0485292 -1.31556e-20)
(0.47006 0.0443408 -4.24175e-21)
(1.02356 0.0284861 6.44523e-22)
(1.02296 0.0287095 0)
(1.02319 0.0279139 2.69074e-22)
(1.01433 0.00896063 3.09336e-22)
(1.01442 0.00903144 1.20757e-22)
(1.01452 0.00923204 3.99444e-22)
(1.06439 0.049136 1.02554e-20)
(1.06507 0.0485629 1.09193e-20)
(1.06517 0.0498328 -1.3478e-20)
(1.01424 0.00881582 -9.82192e-23)
(1.01416 0.00864891 -1.298e-23)
(1.03581 0.0222925 1.77376e-21)
(1.0363 0.0228306 1.43007e-21)
(1.03558 0.0226648 0)
(1.02257 0.0258338 5.325e-23)
(1.02268 0.026532 1.78596e-22)
(1.02321 0.0259443 0)
(0.864978 0.139291 -4.60148e-21)
(0.917115 0.134761 -4.8467e-21)
(0.910199 0.126609 2.5037e-21)
(0.00745646 -0.0414374 0)
(1.02881 0.0196185 -1.41857e-21)
(1.02698 0.0201675 2.94904e-22)
(1.02832 0.0212431 4.79037e-22)
(1.0117 -0.00182935 -1.14497e-22)
(1.01195 -0.00189597 -4.11085e-23)
(1.01159 -0.00175833 -5.35808e-23)
(-0.00649025 -0.0261419 0)
(0.0121161 -0.0323805 7.88034e-21)
(1.07834 0.0541673 0)
(1.07909 0.0545661 -1.25177e-22)
(1.07814 0.054812 3.24176e-21)
(1.03407 0.0173468 -3.02991e-21)
(1.03348 0.0168908 1.47499e-22)
(1.0341 0.0168223 -2.16841e-21)
(0.486371 0.0292136 -4.39824e-21)
(0.503664 0.033236 -5.01804e-21)
(0.500333 0.0329005 1.47547e-20)
(1.01116 0.00285171 0)
(1.01098 0.00273354 0)
(1.01128 0.00287216 0)
(1.06454 0.0385307 -1.2554e-23)
(1.0716 0.0334205 5.14924e-23)
(1.02509 0.0220247 1.05937e-21)
(1.02547 0.0223956 2.06066e-21)
(1.0251 0.0225252 -1.40343e-21)
(1.00182 0.000122233 1.39315e-22)
(1.00412 0.000290997 8.92084e-22)
(1.00159 8.83608e-05 4.90049e-22)
(1.05587 0.0309188 -1.56674e-21)
(1.05568 0.0298391 -2.23651e-21)
(1.02511 0.0409172 1.3589e-22)
(1.02458 0.0422294 -5.61857e-23)
(1.02624 0.0419914 1.17823e-22)
(1.00041 -6.7421e-05 0)
(1.00025 -2.43216e-05 0)
(1.00111 -6.4416e-05 -1.00705e-22)
(1.01114 0.000834473 -1.35266e-22)
(1.01121 0.00106059 -3.24104e-22)
(1.0113 0.00111736 4.29609e-22)
(1.06079 0.0146488 -4.52462e-21)
(1.05972 0.015209 -4.42932e-21)
(1.05977 0.0139622 3.73592e-21)
(1.07546 0.0637386 1.5401e-20)
(1.07606 0.0636283 3.52864e-21)
(1.07584 0.0643811 -1.20725e-20)
(1.07504 0.0629596 6.56692e-21)
(1.07464 0.0637469 3.02009e-21)
(1.08201 0.084053 1.10513e-20)
(1.07765 0.0816916 -5.36517e-21)
(1.08592 0.0817418 3.08837e-21)
(1.02418 0.0282835 -2.73849e-23)
(1.02414 0.0290489 8.13494e-22)
(0.126255 0.0502026 -2.18247e-22)
(0.221441 0.0513007 1.00504e-20)
(0.204937 0.0453804 3.99957e-21)
(1.0039 0.166655 0)
(1.00768 0.1622 2.61449e-22)
(1.02302 0.155993 2.40148e-22)
(1.01111 0.002859 3.64578e-23)
(1.01139 0.00296248 0)
(1.02747 0.0126787 3.43076e-22)
(1.02769 0.0123051 3.98584e-22)
(1.06577 0.0697906 -1.50947e-20)
(1.06628 0.071054 -1.32913e-20)
(1.06486 0.0708223 4.61476e-21)
(0.26341 0.00616681 -7.87339e-21)
(0.334947 0.00862406 -9.53564e-22)
(0.259044 0.00538588 -8.1654e-21)
(1.02101 0.0128933 0)
(1.02079 0.0124831 0)
(1.02057 0.01268 0)
(1.0222 0.0137779 2.61793e-21)
(1.02193 0.013361 7.65947e-22)
(1.02239 0.0134787 -2.47247e-21)
(1.06565 0.0689278 2.39709e-21)
(1.06658 0.0690674 -1.06031e-20)
(0.153182 0.00138074 0)
(1.06355 0.0495776 -2.58906e-21)
(1.06363 0.0482812 -6.6669e-21)
(1.01098 0.000662174 -1.42568e-22)
(1.01104 0.000505762 -1.38923e-22)
(1.08259 0.0876875 -8.04549e-21)
(1.08004 0.0868039 3.18395e-21)
(0.485904 -0.0174558 -2.07136e-20)
(0.431326 -0.0237123 -3.01928e-21)
(0.395023 -0.0387175 -6.10704e-21)
(1.01023 0.0124639 7.96547e-23)
(1.01215 0.0136558 2.74597e-22)
(1.01167 0.010991 -9.74419e-22)
(1.00272 -8.75561e-05 8.4156e-23)
(1.00288 -7.72373e-05 -4.58289e-23)
(1.00347 -0.000104546 -3.31836e-23)
(1.03607 0.0217906 -3.03828e-21)
(1.03531 0.0217294 5.30405e-21)
(0.827749 0.0684143 -1.0195e-20)
(0.826406 0.0689203 -1.34503e-20)
(0.795494 0.0699864 -1.45674e-20)
(1.00865 -0.0260443 5.43953e-22)
(1.0132 -0.0223005 -3.39083e-21)
(1.00816 -0.0215591 -1.44157e-21)
(1.03071 0.0192076 -8.59998e-22)
(1.03319 0.0188868 0)
(1.03209 0.021076 0)
(1.05814 0.0433867 7.34654e-23)
(1.0665 0.0475862 2.38654e-22)
(1.04965 0.0178035 0)
(0.404674 0.0147405 -4.72189e-23)
(0.390803 0.0123771 -1.02382e-21)
(0.38578 0.011891 -9.9961e-22)
(0.961558 0.0746076 5.81931e-21)
(0.975711 0.0730453 7.39996e-22)
(0.93097 0.072716 -7.90003e-21)
(0.474288 0.026325 -3.64739e-21)
(0.471146 0.0264925 2.03289e-21)
(1.0348 0.00599205 1.37185e-21)
(1.03558 0.00620339 -1.61058e-21)
(1.03481 0.00649641 5.04085e-21)
(1.01083 0.000553437 -1.21471e-22)
(1.01094 0.000762291 -2.71165e-22)
(1.02221 0.0289974 -1.60397e-22)
(1.02272 0.0296336 -7.37574e-22)
(1.03201 0.0236982 0)
(1.03236 0.024296 0)
(1.03162 0.0238908 0)
(1.01663 0.00884802 9.56515e-23)
(1.0168 0.00865542 3.47573e-22)
(1.0163 0.00884326 6.6754e-23)
(1.01065 0.000485914 -3.08187e-22)
(1.01077 0.000335281 1.62355e-22)
(1.03243 0.0233289 3.56468e-21)
(1.0316 0.0231106 -1.34488e-21)
(1.03407 0.0176403 4.62917e-22)
(1.03459 0.017648 -9.2555e-22)
(1.01832 0.0146046 -2.93772e-23)
(1.01795 0.0142203 -1.70281e-21)
(1.01822 0.0140989 -3.68972e-23)
(1.00126 1.0121e-05 -8.38002e-23)
(1.00128 1.00497e-05 0)
(1.0002 -2.09576e-05 -1.25831e-22)
(1.03481 0.00544685 3.77525e-22)
(1.03403 0.00571931 -6.04677e-22)
(0.933697 0.0749249 1.21895e-20)
(0.973353 0.0753732 0)
(0.967461 0.0756939 0)
(1.01463 0.00224198 1.72219e-21)
(1.01471 0.00252036 -2.56742e-22)
(1.01437 0.00239443 -1.67464e-21)
(1.03437 -0.024663 0)
(1.0262 -0.0334433 -1.7589e-21)
(1.03801 -0.0315159 4.59801e-22)
(1.07866 0.0532481 7.93439e-21)
(1.07752 0.0536671 7.30902e-22)
(1.0143 0.00130494 -1.11002e-22)
(1.01403 0.00131856 2.1283e-21)
(1.01355 0.000971327 1.50766e-21)
(1.02578 0.0395528 2.71676e-21)
(1.02425 0.039572 1.22118e-21)
(1.00106 -5.94433e-06 -1.6272e-22)
(1.00196 -2.77245e-05 -3.22133e-22)
(1.00316 -2.85615e-05 -3.72375e-23)
(1.00298 -3.60439e-05 1.23833e-22)
(1.00348 -2.62247e-06 -9.37777e-23)
(1.06163 0.0155685 4.65765e-21)
(0.995057 0.16311 1.89653e-22)
(0.975977 0.17852 0)
(1.00991 0.00200029 -3.33773e-22)
(1.01003 0.00193059 -3.20852e-23)
(1.00979 0.00187843 -6.72949e-23)
(1.02211 0.0162587 -1.4645e-21)
(1.02168 0.0159218 -4.01498e-22)
(1.02182 0.0164231 -3.29711e-21)
(1.02883 0.0172618 -3.54626e-22)
(0.895379 0.0620796 2.98977e-21)
(0.928675 0.0668529 -7.72231e-21)
(0.919021 0.0497819 -3.36652e-21)
(1.00189 8.90636e-05 1.47295e-25)
(1.00195 8.03728e-05 -2.4652e-23)
(1.00047 3.30345e-05 0)
(1.01453 0.00152983 -3.05596e-21)
(1.01449 0.00125949 -5.75739e-22)
(0.971623 0.0660029 3.06062e-21)
(0.976447 0.059501 -4.63112e-22)
(0.969941 0.0572407 1.80575e-21)
(1.00187 -5.06884e-05 -1.45284e-24)
(1.00183 -6.23744e-05 -1.43071e-22)
(1.00115 -2.77616e-05 -1.46631e-25)
(1.00195 -5.78423e-05 0)
(1.00255 -0.000123279 0)
(1.01845 0.0150059 1.06588e-21)
(1.01866 0.0148645 8.38053e-22)
(1.00404 0.000310077 -1.80691e-23)
(1.00401 0.000286717 -4.39815e-23)
(1.00313 0.000220202 4.35379e-23)
(1.01638 0.00906403 7.84645e-23)
(1.01678 0.00904368 5.7774e-24)
(0.94307 0.0724128 6.49071e-21)
(0.940075 0.072918 3.37908e-20)
(0.903546 0.0745387 7.80411e-21)
(0.518777 0.0600466 2.04798e-21)
(0.516672 0.0604077 -3.68646e-22)
(0.495542 0.0620113 -4.4411e-21)
(1.00824 0.0106859 0)
(1.00732 0.0134987 -2.82408e-22)
(1.01111 0.000878228 2.11464e-22)
(1.01127 0.00134322 -1.81649e-23)
(0.808233 0.14349 1.15346e-21)
(0.814208 0.149327 -3.60946e-21)
(1.02021 0.00015646 2.33863e-21)
(1.02031 0.000123786 7.02618e-22)
(0.523543 0.0376623 -5.29242e-21)
(0.509221 0.0343482 -5.47628e-21)
(1.02564 0.0208816 1.03624e-21)
(1.02528 0.0191038 4.41355e-22)
(0.822767 0.0697602 1.39999e-20)
(0.864164 0.0706174 1.10262e-20)
(1.03034 0.0247314 1.45282e-22)
(1.03074 0.0253154 1.63182e-21)
(1.03077 0.0245263 -5.70235e-21)
(1.07125 0.0631041 -1.46593e-21)
(1.07189 0.0633219 5.33386e-21)
(1.00259 -6.5226e-05 -1.4278e-22)
(1.00318 -3.84585e-05 -6.29058e-23)
(1.00278 -5.66428e-05 -3.35231e-22)
(1.07434 0.0701299 -3.77374e-22)
(1.07515 0.0704965 8.3788e-21)
(1.07464 0.0695633 8.54321e-21)
(1.03342 0.0022305 1.25464e-21)
(1.03357 0.00276676 -4.69444e-22)
(1.03284 0.00243908 5.56967e-21)
(1.00218 3.94178e-05 -8.12822e-23)
(1.00113 2.41833e-06 1.60925e-23)
(1.0104 0.000630777 -2.35521e-22)
(1.01027 0.000663169 -2.70249e-22)
(1.01016 0.000555435 -2.32458e-22)
(1.03567 0.0191131 -5.80847e-22)
(1.03386 0.0161275 0)
(1.06694 0.0626275 3.76362e-21)
(1.06641 0.0628933 8.4596e-21)
(1.06645 0.0621888 3.81259e-21)
(0.338195 0.0104667 -6.19488e-21)
(0.357633 0.0142622 0)
(0.343901 0.0107018 0)
(0.907299 0.0749705 9.94783e-21)
(0.901506 0.0758222 -1.01859e-20)
(1.03628 0.0213588 -6.51032e-21)
(1.0365 0.0208815 -2.07738e-21)
(1.03579 0.0208057 3.56676e-23)
(1.02171 0.0281905 1.77537e-22)
(1.02135 0.0292117 -1.55151e-22)
(1.0104 0.00390604 3.44615e-24)
(1.0103 0.00375345 -1.06851e-23)
(1.01021 0.00381105 0)
(1.06727 0.0623179 -6.9068e-21)
(1.06733 0.0628837 5.0548e-23)
(1.07096 0.0340476 0)
(1.07066 0.0349192 1.77803e-21)
(1.07179 0.0346249 0)
(1.03851 0.110602 2.33917e-21)
(1.03966 0.10601 -7.36615e-22)
(1.04293 0.11042 3.25088e-21)
(0.636118 0.0574459 -5.07638e-21)
(0.60215 0.0547486 -7.06475e-21)
(0.609796 0.0549995 -1.36477e-21)
(1.02987 0.0250189 -1.5487e-21)
(1.02986 0.0242048 -1.46024e-21)
(1.0785 0.057758 -6.90532e-21)
(1.07778 0.0582516 -8.60118e-21)
(1.07879 0.0585927 9.54802e-21)
(0.742699 0.147208 3.88513e-21)
(0.799651 0.13444 -8.76421e-22)
(0.414235 -0.00502897 0)
(0.478998 -0.000667265 0)
(0.500954 0.0133093 0)
(0.288918 0.0121077 0)
(0.284854 0.0116377 0)
(0.305111 0.0150867 0)
(1.02283 0.0241446 3.08797e-22)
(1.02253 0.0250365 7.02668e-25)
(1.02342 0.0245248 -6.13102e-23)
(1.00168 0.000157057 -4.8523e-22)
(0.783374 -0.188375 1.98743e-22)
(0.778756 -0.173715 -9.401e-22)
(0.767466 -0.170624 -4.12432e-22)
(1.01053 0.000567001 -1.20782e-22)
(1.01045 0.000417495 4.04123e-22)
(0.936312 0.0735923 -1.60252e-20)
(0.979371 0.0740327 -1.43985e-20)
(1.01311 0.0066206 -1.0878e-21)
(1.01286 0.00636415 -8.91942e-22)
(1.01297 0.00660127 -6.68049e-22)
(1.03239 0.00589405 9.57902e-21)
(1.033 0.00618828 6.1778e-22)
(1.03244 0.00643213 4.38038e-21)
(1.00836 0.000636718 -4.97994e-22)
(1.00862 -0.000855891 2.94929e-22)
(1.00925 0.000328451 -5.74881e-22)
(0.984625 0.0751988 5.52309e-21)
(0.941749 0.0755117 -3.29461e-21)
(0.836828 -0.105367 -4.07461e-22)
(0.250026 0.0585919 -7.68249e-21)
(0.289474 0.0643822 -2.6702e-21)
(0.19339 0.0621619 -3.33501e-21)
(1.02147 0.0131527 8.2232e-22)
(1.02122 0.0133619 -4.03665e-22)
(1.02638 0.0384915 2.36513e-22)
(1.02683 0.0374366 -2.37127e-21)
(1.02562 0.0372961 -1.82405e-21)
(1.00212 -8.13179e-05 1.13339e-24)
(1.00225 -8.82387e-05 9.86638e-23)
(1.00295 -0.000107116 4.52427e-24)
(1.03178 0.00563302 -1.04733e-22)
(1.0323 0.00536883 2.2062e-21)
(0.874619 0.0812276 5.34261e-21)
(0.853251 0.0628314 8.48763e-21)
(1.01403 0.00831635 -1.3667e-22)
(1.01427 0.00852141 9.15262e-23)
(1.01404 0.00835447 1.38011e-22)
(1.00407 0.000302557 1.99995e-22)
(1.00447 0.000296469 -1.84979e-23)
(0.586661 0.05428 1.34442e-22)
(0.577983 0.0526063 -1.15847e-20)
(0.55677 0.0505449 -1.07542e-20)
(1.00144 -5.03202e-05 1.38126e-22)
(1.00146 -4.63905e-05 -2.23028e-22)
(1.00064 -4.22177e-05 1.58418e-22)
(1.00234 -8.08371e-05 1.56676e-22)
(1.00179 -0.000101675 1.39466e-22)
(1.01397 0.00478771 1.71638e-21)
(1.01416 0.00508082 0)
(1.01379 0.00490949 9.25654e-22)
(0.71893 0.0497524 2.54161e-21)
(0.731303 0.053098 -2.26852e-21)
(0.688432 0.0479712 -6.25642e-21)
(1.02309 0.023772 4.45955e-22)
(1.02332 0.0235571 4.01028e-22)
(1.02278 0.0233089 -4.62027e-22)
(0.798338 -0.197645 3.77374e-22)
(0.526918 -0.00566214 -1.09649e-23)
(0.516278 0.000443873 -6.06572e-21)
(0.560997 0.00214724 -4.91144e-21)
(0.949 0.0701574 6.45102e-23)
(0.957936 0.0713336 9.70234e-22)
(0.954054 0.0624001 3.95294e-22)
(0.266494 0.00573883 1.62796e-20)
(0.240897 -0.0220361 -5.47502e-21)
(0.322438 -0.0185249 0)
(0.256222 -0.0315864 -3.63042e-23)
(1.00617 -0.000445439 9.91861e-24)
(1.00631 -0.000490849 -1.29069e-23)
(1.00626 -0.000465868 1.10348e-23)
(1.0232 0.023177 2.5743e-22)
(1.02205 0.023541 1.82358e-22)
(1.01429 0.00883345 0)
(1.01433 0.00881848 -1.33132e-23)
(1.01448 0.00906903 -4.78081e-23)
(0.643352 0.0573064 1.30639e-21)
(0.646259 0.0580187 -4.37913e-21)
(0.612548 0.0542032 -1.19627e-20)
(1.0655 0.0177212 -2.91949e-21)
(0.619808 0.00873644 -1.74837e-20)
(0.554895 -0.00574755 -2.59616e-21)
(0.592964 0.0109964 8.55972e-22)
(1.05024 0.0672374 -1.10695e-21)
(1.05093 0.0660414 -2.32558e-21)
(1.05167 0.0675751 1.56845e-21)
(1.00169 -5.66186e-05 1.14946e-22)
(1.00235 -6.49969e-05 -1.00808e-22)
(1.00154 -5.55149e-05 -1.01504e-23)
(1.0394 0.0147389 5.33321e-21)
(1.03881 0.0141569 -1.07853e-21)
(1.06696 0.0721607 -6.58744e-22)
(1.06858 0.0734949 -2.69016e-21)
(1.06619 0.0735365 -5.34566e-21)
(1.07119 0.0330204 1.07992e-20)
(1.07011 0.0333347 0)
(1.02331 0.0241739 2.87357e-22)
(1.02286 0.0239528 0)
(1.05893 0.0155918 -1.06339e-21)
(1.058 0.0149595 -6.35581e-21)
(1.05789 0.0160781 6.65143e-21)
(1.01408 0.00861064 -3.53432e-23)
(1.02705 0.0126076 -3.16521e-21)
(1.0273 0.0130087 -4.90768e-21)
(1.07042 0.0645962 -7.09554e-21)
(1.07076 0.0646037 6.28521e-21)
(1.06939 0.0636676 -1.04867e-20)
(1.0736 0.0698885 -7.94691e-21)
(1.07305 0.0708299 -8.66666e-21)
(1.03325 0.111107 -1.06293e-21)
(1.04101 0.11634 -2.11362e-21)
(1.02673 0.0121851 -3.30013e-21)
(1.02654 0.0125273 -1.80251e-21)
(1.07278 0.0642207 -7.99616e-21)
(1.07092 0.0656985 -5.19396e-21)
(1.01175 -0.00188313 -8.26141e-23)
(1.01139 -0.00174828 -5.67827e-23)
(1.03829 -0.0169359 -9.08535e-22)
(1.02762 -0.0181248 -2.20555e-21)
(1.04849 0.0672501 4.51616e-21)
(1.0496 0.0689559 -2.57407e-21)
(1.07472 0.0623243 3.25648e-21)
(1.07543 0.0622229 4.21721e-21)
(1.06905 0.0648617 -1.60679e-20)
(1.06829 0.0647743 -5.15348e-21)
(1.06846 0.0652226 -1.40511e-21)
(0.454893 0.0180254 7.50427e-21)
(0.470926 0.0241738 -1.6598e-20)
(0.460074 0.0211361 -1.5517e-20)
(1.01005 0.00210082 -2.47686e-22)
(1.00983 0.00205296 1.88289e-22)
(0.355167 0.012341 7.88653e-21)
(0.368515 0.0152572 0)
(0.349221 0.011309 0)
(1.03962 0.0307031 1.37575e-21)
(1.0391 0.0312119 -3.3436e-21)
(1.03884 0.0303223 -1.56111e-21)
(0.671677 0.0600424 -2.6797e-21)
(0.664284 0.0595074 1.25252e-20)
(1.01086 0.00259881 0)
(1.01063 0.0026108 -2.5133e-22)
(1.01381 0.00811852 -1.28525e-23)
(1.01402 0.00829889 -8.52238e-23)
(1.02514 0.0284 -1.29039e-21)
(1.02535 0.0290809 7.68657e-22)
(1.02562 0.0285264 4.90589e-22)
(0.39622 0.0114876 0)
(0.394036 0.0121462 0)
(0.412541 0.0146821 -7.41209e-21)
(0.2904 0.0115065 7.12481e-21)
(0.264854 0.00889087 -2.52308e-20)
(1.02323 0.0203382 3.77742e-22)
(1.02335 0.0208162 -1.99225e-22)
(1.02288 0.0204757 8.84344e-22)
(0.931243 0.14608 -6.74408e-21)
(0.960652 0.139315 4.05544e-22)
(0.935394 0.146353 1.51047e-21)
(1.02636 0.0255034 -3.86512e-23)
(1.02639 0.0261882 8.79546e-24)
(1.02582 0.0257695 8.79628e-24)
(1.0272 0.0395424 4.2307e-21)
(1.01065 0.000733345 1.44681e-22)
(1.06772 0.0708249 1.50868e-21)
(1.01762 0.0138066 -6.99194e-22)
(1.01767 0.0142547 -2.36961e-22)
(1.0086 0.00280703 6.65152e-23)
(1.0084 0.00270028 2.71476e-22)
(1.00847 0.00268676 6.93887e-23)
(1.03161 0.0100838 2.55647e-22)
(1.02886 0.0115085 7.07186e-22)
(1.02838 0.00899527 -3.24781e-21)
(1.03468 0.0112754 7.81266e-22)
(1.03421 0.0076136 -8.7218e-22)
(0.32141 0.048548 -3.4378e-21)
(1.07827 0.0571125 -8.41796e-21)
(1.07912 0.0573098 -9.4662e-21)
(1.0218 0.0256363 1.87912e-22)
(0.667141 0.0621243 5.74192e-21)
(0.663702 0.0611237 -3.73943e-22)
(0.696701 0.0628983 -1.20829e-21)
(1.00825 0.000657444 -2.56623e-21)
(1.00732 0.000576741 -4.01021e-22)
(1.00905 0.000707981 2.09915e-21)
(1.00704 -7.80366e-05 1.89948e-22)
(1.00718 -6.30701e-05 6.1233e-23)
(1.00686 -6.19498e-05 -2.90167e-22)
(1.00721 -9.6221e-05 -2.10048e-22)
(1.0069 -7.91114e-05 -1.15526e-22)
(0.227177 -0.0120687 3.62932e-21)
(1.07103 0.0646839 1.07284e-20)
(1.06995 0.0647476 -7.78458e-21)
(1.07057 0.0653294 -2.27716e-21)
(1.07555 0.0640447 0)
(1.08011 0.0637827 0)
(1.07565 0.065664 -2.33107e-21)
(1.02004 0.00149431 1.34305e-21)
(1.02026 0.00167998 0)
(1.02028 0.00143847 0)
(1.00261 -8.2354e-05 2.82021e-23)
(1.00188 -6.75982e-05 8.12341e-24)
(0.682961 0.159569 -2.9627e-21)
(0.674 0.153175 -4.68842e-22)
(0.360199 0.0129242 1.51219e-22)
(1.00617 -3.44069e-05 1.18066e-22)
(1.00638 -3.35922e-05 2.68907e-22)
(1.00633 -1.83671e-05 -4.41052e-22)
(1.00594 -2.57367e-05 4.94602e-23)
(1.006 -5.12886e-05 0)
(1.00084 -6.22014e-05 9.96257e-23)
(1.00011 -6.65108e-05 0)
(1.00739 -0.000113648 -4.17432e-22)
(1.00755 -0.000100627 6.03855e-24)
(1.00757 -0.000129925 -2.01177e-22)
(1.00727 -0.000118034 -5.90595e-23)
(0.459408 0.022216 0)
(0.471866 0.0252148 0)
(0.380029 0.046097 -7.45387e-21)
(0.370903 0.0390501 0)
(0.428242 0.0384218 0)
(1.01596 0.0113419 2.21429e-22)
(1.01583 0.0110388 6.06406e-22)
(1.01607 0.0113425 -5.20978e-22)
(1.00727 -0.000748026 2.13118e-23)
(1.00747 -0.000788804 3.5594e-24)
(1.00725 -0.000751982 1.42247e-23)
(1.06062 0.0635672 -3.323e-21)
(1.05958 0.0641522 -2.1319e-22)
(1.05965 0.06306 5.70936e-21)
(0.446835 0.0240353 -6.723e-21)
(0.435997 0.0208548 -3.90079e-21)
(0.451836 0.0244809 -1.51131e-20)
(1.00177 -5.3976e-05 0)
(1.001 -2.99718e-05 -1.09276e-23)
(1.001 -4.18236e-05 0)
(1.01981 0.00157854 -9.31853e-22)
(1.01984 0.0013388 -1.43442e-21)
(0.923456 0.141031 -2.84943e-21)
(0.876426 0.15073 -1.98467e-21)
(0.932067 0.0737721 -7.31939e-21)
(0.925994 0.0737724 6.80613e-21)
(0.968852 0.0747676 -8.71735e-21)
(1.07047 0.0641699 5.65808e-21)
(0.672531 0.063016 9.74702e-21)
(0.642466 0.060825 1.38382e-22)
(1.05515 0.0755245 1.70978e-21)
(1.05335 0.0763963 2.25376e-22)
(1.05527 0.0775276 -4.69381e-21)
(1.01322 0.00662138 -9.13715e-22)
(1.01332 0.00684687 7.83881e-22)
(0.394983 -0.00852792 1.26028e-21)
(0.406401 -0.0160189 -3.72629e-21)
(1.06151 0.0633514 3.60967e-21)
(1.06133 0.0643557 -6.81977e-21)
(1.02457 0.0215603 9.84312e-22)
(1.02587 0.0219588 -1.94797e-23)
(1.07047 0.0581827 3.52851e-21)
(1.07037 0.0587764 -5.24941e-21)
(1.07109 0.0586531 1.7374e-20)
(1.02308 0.019868 3.06317e-22)
(1.02356 0.0201789 2.01745e-23)
(0.403548 0.0504491 -8.50707e-21)
(1.03373 0.00323067 -1.61039e-21)
(1.03325 0.00339992 -2.71864e-21)
(1.03388 0.00373847 2.20635e-21)
(1.03794 0.0502361 -2.61701e-21)
(1.03747 0.0510547 1.35109e-22)
(1.03883 0.0509948 7.12259e-22)
(1.05064 0.0648053 0)
(1.05071 0.063082 0)
(1.0492 0.0638687 -3.54481e-21)
(1.01572 0.0112731 0)
(1.01584 0.0112861 -3.40583e-22)
(1.01561 0.0109924 4.5678e-22)
(1.00027 -9.13701e-06 0)
(1.03676 0.0219022 -9.44724e-21)
(1.01857 0.0129377 -1.1431e-21)
(1.01754 0.0121625 3.76377e-22)
(1.01738 0.0132305 1.18861e-21)
(1.01083 0.00155821 -6.3613e-24)
(1.01086 0.00171617 -2.14536e-22)
(1.011 0.00156833 -2.68155e-22)
(0.391041 0.0213716 0)
(0.379941 0.018384 0)
(0.37432 0.0180249 0)
(0.77847 0.00790596 1.9139e-21)
(0.795714 -0.00098966 1.76302e-21)
(0.840403 0.0374567 -2.82159e-21)
(1.01063 0.000947238 1.16216e-22)
(1.01045 0.000921213 1.47068e-23)
(1.01028 0.000873249 1.10432e-22)
(1.00585 4.08631e-06 -2.04418e-22)
(1.00573 -2.23603e-05 1.5897e-22)
(1.0145 0.00867116 1.08636e-22)
(1.01453 0.00871955 1.11528e-22)
(1.00598 2.10633e-05 -3.55175e-22)
(1.00576 2.06171e-05 4.02888e-23)
(1.03432 0.00305424 -6.01936e-21)
(1.01673 0.000325006 1.23731e-23)
(1.01229 0.000215342 3.18029e-21)
(1.05286 0.045184 3.54148e-21)
(1.0535 0.0462138 2.91811e-21)
(1.05232 0.0462962 8.26556e-22)
(1.01082 0.000991776 -1.46212e-22)
(1.01101 0.00105126 -3.05167e-24)
(0.285984 0.0141399 -4.36145e-21)
(0.303891 0.0176194 -1.23556e-20)
(0.518769 0.0586427 0)
(0.541125 0.0593176 6.95059e-21)
(1.02339 0.0103701 -4.46311e-21)
(1.02351 0.0100285 3.81206e-22)
(1.02296 0.010004 -2.03221e-21)
(1.01664 0.0104217 1.65265e-22)
(1.01743 0.0106501 3.77842e-22)
(1.0172 0.0101662 2.99762e-22)
(1.07997 0.0896334 2.21555e-21)
(1.08217 0.0931137 6.90696e-21)
(1.06227 0.0928702 2.51425e-21)
(1.00761 -0.000343472 4.00908e-22)
(1.0078 -0.000372679 1.92256e-22)
(1.0075 -0.000343803 1.4404e-22)
(0.983363 0.051975 1.49498e-21)
(0.98169 0.0563734 -8.55808e-22)
(0.987464 0.05542 -9.78392e-22)
(0.408352 0.0250773 0)
(0.402505 0.0244265 -6.92294e-21)
(1.00743 -0.000316142 2.10984e-22)
(1.00773 -0.000339473 1.18601e-22)
(0.421186 0.0178894 1.05512e-20)
(0.415782 0.017412 3.14676e-21)
(1.0108 0.00142492 0)
(1.01063 0.00156156 0)
(0.75993 0.0506119 6.47001e-23)
(0.716159 0.0460054 1.72863e-21)
(1.0017 -5.42019e-05 -1.33704e-22)
(1.00096 -4.10054e-05 4.0268e-22)
(1.01456 0.0198096 -1.70188e-22)
(1.01404 0.0188814 5.00185e-22)
(1.01486 0.0189585 1.20385e-22)
(1.01562 0.011254 -1.1703e-23)
(1.01581 0.0115781 -2.80138e-22)
(1.01232 0.00612545 4.83941e-22)
(1.01208 0.0059178 4.41768e-22)
(1.01214 0.00591859 0)
(1.06818 0.0648639 -3.23645e-21)
(1.06831 0.0647609 1.0471e-20)
(1.06836 0.0651506 1.41414e-20)
(1.00424 0.000328785 8.49272e-23)
(1.00427 0.000304769 2.82132e-22)
(1.00234 0.000162661 0)
(0.94154 0.0687616 -4.29631e-22)
(0.946972 0.0800448 -3.61166e-21)
(1.03635 0.0349426 -2.32736e-21)
(1.03564 0.0354744 -8.07456e-22)
(1.03561 0.0343809 -7.5164e-22)
(1.00827 0.0021288 5.41805e-22)
(1.00699 0.00100395 4.24267e-22)
(0.996928 0.136759 -1.80073e-21)
(0.987257 0.134312 -1.83818e-21)
(0.995953 0.125784 -2.34416e-22)
(0.271586 0.0113493 0)
(1.00241 -5.56139e-05 2.10185e-22)
(1.00239 -4.91819e-05 0)
(1.06002 0.0540875 7.24269e-21)
(1.0609 0.0547167 2.40025e-21)
(1.06095 0.0536129 2.8822e-22)
(1.02048 0.0116025 2.06322e-21)
(1.01965 0.01236 -1.46942e-21)
(1.01931 0.0111313 -1.14279e-21)
(1.02951 0.0252356 -4.22415e-21)
(1.02907 0.0253866 -6.61299e-22)
(1.02909 0.0246915 -4.13931e-21)
(1.02142 0.0103824 9.33745e-22)
(1.02044 0.00946926 4.87606e-22)
(1.03277 0.0230484 3.25078e-21)
(1.0331 0.0236405 -3.5834e-21)
(1.01018 0.00185981 2.22834e-22)
(1.01032 0.00177459 2.51169e-22)
(1.01009 0.00173574 -1.74326e-22)
(1.00526 0.000413459 -2.72022e-23)
(1.00401 0.000298307 8.0017e-23)
(1.06452 0.076905 5.89583e-21)
(1.0673 0.0770391 7.83185e-21)
(1.06524 0.0750921 -1.21353e-20)
(1.00054 -0.0171229 -7.22547e-22)
(1.00209 -0.0232078 3.78131e-22)
(1.00646 -0.0183185 3.92763e-22)
(1.03872 0.0491006 -7.60169e-22)
(1.03718 0.0491857 2.53181e-21)
(1.03315 0.0227345 0)
(1.03242 0.0225293 1.35748e-21)
(1.01963 0.00159913 2.68968e-21)
(1.01947 0.00141305 5.7375e-21)
(1.0194 0.00161333 1.44672e-21)
(0.595588 0.0547578 1.17202e-20)
(0.620283 0.0566593 2.43119e-21)
(0.392299 0.00956555 2.78253e-21)
(0.364829 0.00918696 -7.69933e-21)
(1.00998 0.00334617 2.24607e-23)
(1.00987 0.00321769 -3.55256e-23)
(1.00977 0.0032578 1.39836e-23)
(1.00856 -0.00430956 -1.51207e-22)
(1.00799 -0.00604963 6.75789e-22)
(1.00996 -0.00548845 -1.45277e-22)
(1.02998 0.0257317 1.96789e-21)
(1.09108 0.0512443 -1.39369e-21)
(1.08596 0.0667968 0)
(1.08615 0.050488 -2.36485e-22)
(1.08404 0.0657301 2.97911e-21)
(1.08416 0.0666033 3.0113e-20)
(1.08485 0.0658622 7.28899e-21)
(0.5537 0.0589141 -4.67224e-21)
(0.541331 0.0579175 -1.09221e-20)
(0.530231 0.0585299 -2.09676e-21)
(0.636426 0.00610972 -1.99527e-20)
(0.664538 0.015143 -5.1069e-21)
(1.02328 -0.0203487 2.87423e-21)
(1.0177 -0.0216211 -4.62988e-22)
(1.01988 -0.0250609 -8.69345e-23)
(1.04182 0.101396 -1.92708e-21)
(1.03786 0.101062 -3.1468e-21)
(1.01607 0.0100896 3.1566e-23)
(1.01609 0.0105494 -1.57258e-22)
(1.00769 0.0772741 7.28347e-21)
(0.978663 0.0758515 0)
(1.08124 0.0479337 -5.28078e-21)
(1.08818 0.0313335 -2.12528e-21)
(1.07456 0.0730757 -7.79975e-21)
(1.07653 0.0721462 9.52343e-21)
(1.01652 0.000449086 4.27776e-21)
(1.01172 0.000103825 4.18383e-21)
(1.0142 0.0206149 -1.27237e-22)
(1.01321 0.0204973 5.15599e-22)
(0.950264 0.130208 -1.69714e-21)
(1.01433 0.0086814 6.8532e-23)
(1.0143 0.00870614 4.44134e-24)
(1.01449 0.00885592 4.91209e-23)
(1.02595 0.03535 0)
(1.0244 0.0369544 -2.52309e-22)
(1.07436 0.0616396 -6.85595e-21)
(1.07399 0.0623861 9.39886e-22)
(1.00128 -3.91474e-05 1.30697e-22)
(1.00113 -3.92541e-05 3.12944e-22)
(1.00028 -4.82822e-05 1.45005e-22)
(0.669348 0.0607141 -2.94145e-21)
(0.636244 0.0567436 5.1252e-21)
(1.01452 0.00173873 -1.36624e-21)
(1.01455 0.00202464 4.01652e-21)
(1.0143 0.00188 1.90666e-23)
(1.08268 0.0382812 -6.14701e-22)
(1.08365 0.0389692 -1.11783e-20)
(1.01043 -0.000635201 -2.77407e-22)
(1.0103 -0.000615875 5.4063e-23)
(1.01071 -0.00061058 9.03279e-23)
(0.358078 0.0397881 -9.99948e-22)
(0.362549 0.0287901 4.03851e-21)
(1.00746 0.00194781 8.18973e-23)
(1.00732 0.00185901 -2.19455e-22)
(1.00734 0.00181279 2.01097e-22)
(1.03943 0.0483235 -1.53917e-22)
(1.03882 0.0473057 6.10425e-22)
(1.04011 0.047482 5.97094e-22)
(1.02683 0.0251235 1.32882e-22)
(1.02598 0.0250478 -3.75848e-23)
(1.02743 -0.0166336 3.52801e-23)
(1.02398 -0.0153495 -1.32205e-21)
(1.00221 5.13434e-07 4.88739e-23)
(1.00157 -2.53323e-05 -1.2253e-22)
(1.07171 0.0585256 1.69414e-21)
(1.07245 0.0584742 -8.15763e-21)
(1.07193 0.0578598 -1.66632e-20)
(0.967217 0.074071 -8.89199e-22)
(1.00461 0.0755405 1.53902e-22)
(0.97158 0.0742773 -1.10666e-20)
(1.02258 0.0158718 8.38563e-22)
(1.02233 0.0160913 7.51663e-22)
(1.02217 0.015499 1.79353e-21)
(1.01437 0.00864653 5.88179e-23)
(1.01416 0.00848739 6.76194e-23)
(0.538175 0.040528 -6.4868e-21)
(0.543428 0.0414859 -7.22681e-22)
(0.954647 0.0752134 -7.59702e-22)
(0.962464 0.0748245 -1.21453e-20)
(0.996409 0.0755033 -1.70153e-20)
(0.794331 0.0346504 -4.72103e-21)
(0.816325 0.0373071 -2.56557e-21)
(0.770795 0.0321383 8.21869e-22)
(0.795068 -0.0904062 0)
(0.743154 -0.103905 1.49658e-21)
(1.00726 -0.000285855 2.90745e-24)
(1.00713 -0.000288857 0)
(1.01677 0.0120373 3.34494e-22)
(1.01664 0.0116856 0)
(1.01693 0.0119968 7.54759e-22)
(0.920154 0.0741183 1.23098e-20)
(0.914588 0.0744258 0)
(0.957683 0.075314 -9.39129e-21)
(1.04458 0.097811 3.24515e-23)
(1.04466 0.102429 2.78439e-21)
(1.0074 -0.000284488 -6.81154e-23)
(1.00711 -0.000262466 3.00597e-22)
(1.02226 0.0117186 9.96034e-22)
(1.0241 0.0127223 -2.15447e-21)
(1.0244 0.0131447 -2.73536e-21)
(1.0239 0.0129219 -2.68379e-21)
(1.01196 0.0269181 2.63927e-22)
(1.01037 0.0252048 6.21945e-22)
(1.00949 0.027892 -1.67174e-22)
(1.04005 0.0492242 -6.75899e-22)
(1.06734 0.0649668 5.36118e-22)
(1.06708 0.0646042 -9.87228e-21)
(1.06685 0.064991 -7.41664e-22)
(1.04095 0.0829802 2.63417e-21)
(1.03894 0.0807391 -1.45889e-22)
(1.04196 0.0801843 0)
(0.986875 0.0476954 0)
(0.980848 0.0467585 0)
(1.07985 0.0394635 0)
(1.07902 0.0400047 0)
(1.07995 0.040493 -7.88082e-21)
(0.502759 0.0335247 0)
(0.487656 0.0288593 0)
(0.497776 0.0317088 9.02823e-22)
(1.0106 0.00398883 3.87595e-23)
(1.0105 0.00405342 3.26496e-23)
(1.02301 0.0162453 0)
(1.02283 0.0156577 1.4928e-21)
(1.02448 0.00882567 0)
(1.0242 0.00724841 0)
(1.06917 0.0669668 -1.58065e-21)
(1.0697 0.067247 -1.10689e-20)
(1.06893 0.0675401 4.6553e-22)
(1.00105 -5.20573e-05 6.94699e-23)
(1.00026 -3.158e-05 1.7428e-22)
(1.00111 -5.56096e-05 -2.33661e-22)
(0.42904 0.0132521 1.18237e-20)
(1.08067 0.0390098 0)
(1.07961 0.0386168 1.62767e-20)
(0.9118 0.0838142 -4.19927e-21)
(0.918155 0.100408 0)
(1.02207 0.0139922 2.11128e-21)
(1.02249 0.0141078 -1.50104e-21)
(1.04127 0.0922787 4.89513e-22)
(1.04469 0.0946293 -3.97038e-21)
(1.04432 0.0905765 -3.41993e-21)
(1.00767 -0.00281056 -1.72906e-22)
(1.00921 -0.00276931 2.90793e-22)
(0.982713 0.156339 2.49384e-22)
(0.968248 0.145473 6.75851e-23)
(0.962322 0.16599 2.2684e-21)
(1.01135 -0.000537114 1.65283e-22)
(1.01122 -0.00027586 1.72378e-22)
(1.0112 -0.00023371 1.87055e-24)
(1.07546 0.0626156 1.54321e-21)
(1.07892 0.0862737 -1.00958e-20)
(1.02775 0.0249514 1.81412e-22)
(1.02718 0.0241921 -5.30307e-22)
(1.02328 0.0106458 1.90023e-21)
(1.02381 0.0107087 -2.9909e-21)
(1.05456 0.0700706 0)
(1.05577 0.0691853 -2.06977e-21)
(1.02978 0.0700762 0)
(1.01168 -0.000435891 0)
(1.01147 -0.000438251 0)
(1.01123 -0.00051425 1.06831e-22)