/*--------------------------------*- C++ -*----------------------------------*\
| =========                 |                                                 |
| \\      /  F ield         | OpenFOAM: The Open Source CFD Toolbox           |
|  \\    /   O peration     | Version:  v2012                                 |
|   \\  /    A nd           | Website:  www.openfoam.com                      |
|    \\/     M anipulation  |                                                 |
\*---------------------------------------------------------------------------*/
FoamFile
{
    version     2.0;
    format      ascii;
    class       volScalarField;
    location    "100";
    object      omega;
}
// * * * * * * * * * * * * * * * * * * * * * * * * * * * * * * * * * * * * * //

dimensions      [0 0 -1 0 0 0 0];


internalField   nonuniform List<scalar> 
13917
(
5.16057
0.0474191
0.278776
0.0222209
0.0304519
0.046708
0.0254652
0.0969724
0.0247103
7.9745
0.0879006
0.0218404
0.0242984
1.64141
0.0310015
6.57522
0.0216929
0.0776023
0.142688
6.54229
0.0369043
0.0217071
0.0415081
0.0217038
0.0233695
0.0402788
2.0213
10.2731
0.0555502
0.0201956
9.90776
0.0700943
0.022332
2.52501
0.0216899
0.108825
0.0250266
0.0234894
0.0255306
0.0379052
0.0216528
0.0218789
0.0235474
0.131722
0.12991
2.08781
0.0347819
5.56382
1.00411
0.021708
0.0218118
0.171693
16.8253
0.0218135
0.0219088
0.167445
3.85776
0.0413963
0.0217229
2.08764
2.36708
0.0295111
0.0208527
0.0231839
2.6782
0.0629329
0.0610278
0.109234
0.0847555
5.35706
2.62276
2.64404
0.0217267
0.0214212
0.0376318
0.0241529
0.0250134
0.0213176
0.023854
0.0224107
0.022561
0.0218065
0.0217091
2.51064
0.0211516
0.149784
0.0668176
0.0216236
0.0379061
0.0216014
0.0206917
0.0236991
0.858258
0.021254
0.0225463
0.0606508
1.85831
0.0222551
0.0215235
0.885988
0.0211097
0.021053
0.0226465
0.0214809
0.0248913
0.775684
2.40236
0.0294514
0.0222754
2.00206
0.0215214
2.47787
0.05513
6.13774
2.699
0.0247064
0.13091
0.0207863
0.239033
0.0216419
0.0217102
0.0209908
0.0673531
0.11199
5.11054
2.73448
0.0229901
0.0399413
0.0211887
0.114816
0.0302933
1.94698
3.27278
0.0246742
0.086503
1.9352
2.28323
5.07003
0.0437014
0.0234415
0.804809
0.0211184
0.585316
0.0211688
0.0216596
0.0252245
2.61538
0.560369
6.23083
0.0218614
0.0353137
0.0209379
0.0216379
0.0216492
1.86401
0.0223704
0.0214122
3.3186
0.0213289
0.0209365
0.0211308
2.19154
0.0282209
0.78037
2.25199
1.73538
19.6728
3.0772
0.0195907
0.0467633
0.0218323
3.10544
0.0246992
2.1941
0.0741728
0.0210542
0.0222159
0.213068
0.0296445
0.0291265
0.0234471
0.0217365
0.0218114
0.825648
0.249417
1.96913
0.0217858
0.995186
0.0201927
0.124752
0.0737087
0.117847
0.217566
4.74014
0.0212674
4.89131
0.0255151
3.26992
0.0216376
0.0221223
0.0322346
5.1133
6.39793
0.0246093
2.09889
0.0419588
0.0353269
0.0211256
0.197384
0.022554
0.020905
0.0390923
0.0428232
5.41689
0.0833933
0.0425345
2.27105
0.0225683
0.0203743
0.0203655
3.42573
0.247718
2.01409
0.0213701
0.0210162
1.85915
5.7161
0.0203159
0.0203024
0.0217091
0.0203951
0.0203871
2.85067
3.14724
0.0219873
0.0196102
0.0822129
2.91728
0.0214359
0.0213673
2.08257
0.595424
0.18945
2.27309
0.131641
0.0211779
2.68294
0.0861694
0.0513147
0.0816553
0.0242106
3.4803
0.0216556
0.0381464
0.0626685
0.0221107
0.021846
0.0231378
0.0284903
0.0217461
3.37346
1.4604
0.0209975
0.0202996
0.022517
0.0203024
0.0216594
0.0242864
0.0329378
0.0211289
4.02705
2.316
0.021559
0.0254967
2.07365
0.0202724
0.110317
2.97509
0.0202862
3.93668
0.0215966
2.19014
0.0211365
0.02846
0.0221982
0.021128
0.217086
0.0226942
1.81084
0.0277485
1.38795
0.024491
2.05283
5.54969
0.021019
0.0479404
0.0291042
0.0251546
0.0298856
0.0237668
0.0213407
0.0223642
0.210052
0.138479
0.0371672
0.0235807
0.0213519
3.31297
8.10156
0.0211355
0.0262311
0.0251849
0.155153
0.158546
2.27469
2.13382
0.0681386
1.81159
0.0251142
2.37379
0.129926
0.275486
0.0241053
0.0304763
2.04901
0.0220846
0.0508928
0.115189
0.0215942
3.0997
0.0211955
0.0400666
0.020505
19.2651
0.0207975
0.0347989
0.0427095
0.0606294
0.0214793
0.0819032
0.650632
0.0223935
0.0220716
2.43002
0.616738
2.09441
1.63978
0.0202591
0.0219755
0.599946
1.74623
0.0202764
0.0298874
0.0218086
0.0593633
0.0357661
0.152388
0.124045
0.107626
0.0388834
2.74129
0.0212123
0.0224041
0.0325351
0.255867
0.0215761
5.79004
0.0388272
0.307859
0.0219666
0.622265
0.026054
0.427336
0.0219006
1.91152
2.09033
0.0461216
0.021589
2.31956
0.0207479
2.30364
0.259865
0.0218866
0.541965
0.0226421
0.198432
0.0207298
5.68887
0.189266
0.0242427
1.85421
0.0996234
0.0237015
2.08725
0.279549
0.0236639
0.225087
0.0218785
0.100366
0.273851
0.0212197
0.0250884
0.0235086
0.0211191
0.0209219
0.0212418
2.29251
1.64236
0.0221605
0.0213238
0.0215356
0.0461456
0.101497
0.0203248
0.0196111
0.155164
0.441353
0.0211531
0.0240563
2.02138
1.74858
0.121035
0.153599
1.4137
0.0208803
0.0202906
0.0340764
0.0209126
0.0203434
0.0220816
0.0203106
0.0208144
2.79971
0.0219463
0.0401113
3.66632
0.0472689
0.0209246
0.0216199
2.09417
0.0324157
6.30987
0.0204331
0.02136
0.0208499
0.0204181
0.0248921
0.0228643
2.01081
0.0285302
0.71997
0.0213544
0.0320727
0.0334774
0.0224334
0.125724
2.07372
0.0217656
1.58729
0.0209508
0.0213015
0.0214793
0.0226845
0.0208629
0.0222078
3.28009
2.29518
0.0208438
2.07933
0.151604
0.0218088
0.0533125
0.0807405
2.11732
0.0256817
0.795759
0.288772
0.293603
0.022908
0.0558929
0.0411779
0.0240325
2.25331
0.0208134
0.0217456
0.0225539
0.0248826
0.0349457
0.220959
0.0511987
0.0278954
0.0266851
0.0755644
0.0522891
0.022164
1.54137
0.0323742
0.0276842
2.26882
0.0211603
0.0547892
0.295385
0.0208333
3.21158
0.0214009
0.0204156
0.0474642
0.0204473
0.0223856
0.21366
3.48227
1.73898
0.0211273
0.0223477
0.0250181
2.20646
2.01118
0.0220271
0.0218669
0.0211068
0.0560258
0.631868
0.0212749
0.0214602
0.0220286
0.0211015
0.0271446
0.0269931
0.0209789
0.052074
0.0208356
0.0215934
0.0233549
2.33619
0.0203974
0.0233401
0.0217565
0.0311749
0.0674405
0.066905
0.0672113
1.4135
0.0231824
0.0679654
3.23065
2.69699
3.29899
0.021075
0.0214257
0.0248589
0.0214522
2.74478
0.020307
0.808791
0.0254268
3.03639
0.249055
0.0235465
6.03403
0.0208388
0.0665169
0.0221479
0.0230949
3.08048
0.020368
0.26399
0.0210539
0.0227142
0.0214756
0.213751
0.0274526
0.0202723
0.133208
0.0517981
0.583913
2.50217
3.36796
2.13992
0.0204045
5.5747
0.0204159
2.28365
0.593905
0.023766
0.0257536
0.0210682
0.031963
0.0232673
0.0203891
0.022185
0.0240784
2.08284
0.0211832
0.061621
0.0217028
0.0202615
0.0212353
2.04396
2.32543
14.3737
0.075171
0.0268225
2.30971
2.80977
0.0207603
2.16409
0.0238548
0.11817
0.0214487
2.16388
0.0210823
0.0278744
0.0216788
0.598033
0.033127
2.56017
0.0210592
0.0318064
0.0216043
0.0212673
2.58778
1.53361
0.0218873
0.175066
0.0213517
0.022572
0.0210742
2.42019
0.0211881
0.0290136
0.0202937
0.021745
0.255933
0.0209856
0.152598
0.0219867
0.0208122
2.35112
0.0641238
0.0219538
19.0962
0.258419
0.0938572
0.445503
0.0208208
0.0325016
2.47278
0.287421
0.0323002
0.025031
0.0299165
0.0218584
0.0212019
0.129394
0.075801
0.0250606
2.45293
0.03359
0.154699
2.0077
0.175944
0.032923
0.206979
3.43636
0.0213551
0.0308219
0.146672
0.020822
0.0211733
0.0211988
0.0286336
0.0224686
5.35741
0.0327148
0.0211797
0.105425
0.0209727
2.22099
0.0215829
0.0211896
3.42302
0.0612769
0.332766
0.0217892
0.0213271
0.0212137
0.0220851
0.026546
0.0211107
5.79755
0.0294847
0.607115
0.332417
0.0310718
3.3826
0.0223615
0.0221267
0.0216855
2.87124
1.79029
0.0258552
5.77114
0.830174
0.0208075
0.0211622
0.0249395
0.818066
0.311929
0.0333846
0.0220583
0.0233465
0.12322
0.0242914
0.150735
0.0327987
0.0224623
0.0224504
0.0221506
0.0264505
0.0266948
0.299246
0.0257143
0.0258902
5.48901
0.0215913
0.83698
0.0245237
0.0394557
0.0251078
0.275682
0.0216612
0.0618018
2.364
0.258272
0.0214744
0.0257265
0.0230229
0.0213608
0.0216617
0.0361646
0.0314821
1.97605
0.154057
0.0207962
0.330235
0.0246657
0.0249019
0.18065
0.0220843
0.0662375
1.8642
0.0202901
0.0615733
0.0990812
0.0323727
0.0210361
0.0208856
0.0211967
6.75532
0.0222994
0.0217957
0.0392566
0.0211333
0.0209716
0.154725
1.82999
0.0442359
1.74178
0.0542386
0.569795
0.0216644
0.0256255
1.55438
0.0237121
0.0354909
0.0214632
0.0211492
0.0217753
0.0264135
0.0695907
0.0210354
0.257393
0.021859
0.605752
0.0245662
0.0256125
0.0205165
0.0829042
0.0289692
2.13835
0.0464512
0.0218346
2.33193
0.0225646
3.55908
0.0231163
0.0665998
0.0237046
0.0210066
0.0214567
2.9704
0.0264023
0.0977389
1.71961
0.0213531
0.0325559
0.0195929
0.0268235
0.613922
0.0196251
2.59299
0.0233879
0.0677958
0.127156
0.627193
0.020407
0.021262
0.143128
0.0208149
0.0217636
0.023367
0.0213757
0.0392588
0.0203962
0.124211
0.0224571
5.32739
3.69386
0.0940955
0.681412
1.63123
7.42074
0.374676
0.020753
0.0223686
0.0215918
0.0226629
0.0211108
0.0265077
0.0212287
0.109866
0.0218124
0.362567
0.0222097
0.0292074
0.116363
0.0211414
0.0406145
0.0225793
0.0233015
0.0251004
0.0207421
3.44976
0.0834502
0.287101
0.0211357
0.0215003
0.0219092
0.0219363
2.22611
0.0207738
1.42339
0.0210687
0.29845
0.0278102
0.0211906
0.0642554
0.029601
0.0207852
0.329933
2.21665
0.0252048
0.0828147
0.020803
0.879176
0.0210749
0.021939
3.12119
0.0214876
0.0222907
0.102401
3.48428
0.0214247
0.717399
2.23827
0.0220743
0.0232366
0.0214231
1.22574
0.0214755
0.144802
0.0217253
3.26878
0.0284905
2.09369
0.0213196
0.0201329
0.236842
0.0229413
0.0213552
3.16814
0.0234363
0.0209097
0.369627
0.0220402
0.0223463
0.0742104
0.0235591
2.71192
0.0378587
0.0799478
0.281446
0.0232999
3.13536
0.0227602
0.0675347
0.0213988
3.37292
0.298107
0.0218335
0.0211241
0.022553
0.0220302
0.0209749
0.020775
0.0210845
0.0214449
0.0274604
0.0202906
0.0231779
0.0756899
2.29768
2.13016
0.0931481
0.0219277
0.255579
0.0211805
1.14073
0.62903
21.1031
0.0203774
0.0207626
0.0217139
0.0216665
0.0203539
0.020854
0.0212594
0.033862
0.0209165
12.4032
0.402121
0.0209414
2.97963
0.0214092
0.0212454
0.0289987
2.37253
0.0582939
0.0210093
0.335255
0.0214476
0.021295
0.363678
0.0225475
1.79657
0.0223598
0.0848041
0.0209265
0.0210547
0.0323043
0.390598
0.0230686
2.63046
0.0301353
0.0228771
0.0235938
0.0214993
0.0208661
0.104393
0.032098
0.0249231
2.76545
8.62655
0.401943
0.1113
0.0210066
2.96626
0.0209954
2.0763
0.0606022
0.0251749
0.0228849
2.17452
1.79545
0.494319
0.022501
0.604565
0.0209725
0.0212369
0.0332355
0.0223772
0.021703
1.99633
3.72085
0.0210503
0.0261573
2.97776
0.0210525
0.020287
0.777206
2.15784
0.0225186
0.0205338
0.0252307
0.0216021
0.0212689
0.0360707
0.0274894
0.0215684
0.61178
0.0227379
0.0420695
0.622684
0.0296273
3.23969
0.0218132
0.0221677
0.0365804
3.52546
0.141999
0.0263527
0.0346731
0.0219507
0.0223963
0.0213994
2.11589
0.0282974
0.0222643
0.0495017
0.0211337
0.257574
0.0796093
0.140662
0.060763
2.20231
0.29376
2.01452
2.70338
0.0234869
2.19223
0.0203049
0.0541256
0.0837341
0.583067
0.0240507
0.0230738
0.0249498
0.185595
0.0236769
2.11649
0.031223
0.104862
2.06869
0.0211349
0.116321
0.0239274
0.021724
0.0285934
0.0360532
0.0202554
0.0207461
0.022902
0.498242
0.0209075
0.0234639
0.0232628
0.0227591
0.0216112
0.118184
0.0738081
0.0222719
0.0211046
0.110495
0.0283889
0.0425597
3.21248
0.0218563
0.0214509
1.70019
0.0218084
0.0237771
2.73039
3.14761
0.0311318
0.0544001
0.0283652
7.44604
1.23497
0.0334879
2.57292
0.021241
0.0861162
2.19902
0.252524
0.620514
0.248151
0.0207961
0.0215383
0.024243
0.0216384
0.0216472
0.30512
0.021479
0.0395134
0.0204928
0.0576907
2.09877
0.0236147
2.16948
1.64476
0.0214519
0.0823185
0.0281416
0.0232131
0.021364
3.08163
0.0726044
3.32637
0.0275987
2.82226
0.101136
0.021263
0.0945097
0.0313277
0.0236992
0.0212008
2.0398
0.0213707
0.0263962
0.0394683
0.0271713
0.0219773
0.0521365
2.09089
0.0211449
1.84546
0.0873438
0.0217611
0.0211537
0.0251133
0.505276
1.932
0.0209367
0.0284608
0.0197227
0.592766
6.6465
0.0216546
0.0209314
0.020795
0.0215044
0.0243447
0.0247612
0.507988
0.0220235
0.0237458
0.0356317
0.0219467
0.0910407
2.15766
2.66595
0.0218097
0.0215155
0.0208866
0.0230734
0.0742926
3.362
0.270651
0.121606
0.032147
0.0461367
0.0231895
0.0795424
0.0261938
0.127392
0.0212654
0.420673
0.0287335
0.020823
0.0217588
2.47436
0.0434314
0.0323855
2.33501
0.193032
0.0212107
2.06725
0.0233776
0.0212425
2.13199
0.595698
0.0212881
0.0310543
0.126218
0.0334652
0.022301
0.0203807
0.021168
0.0209038
0.0213552
0.0276485
0.047244
4.22919
0.0335813
0.0248192
0.0289345
0.0969859
0.0210731
0.0352477
1.92225
0.268144
2.32828
0.0233954
0.0203674
3.30486
0.0210328
0.114433
0.0228453
0.0405603
0.0220516
0.0210806
0.366051
0.0253361
0.0232582
0.0214912
2.31235
0.381584
2.88233
0.0216966
0.021529
0.277424
0.0209188
0.0208978
0.501419
0.627976
0.0268356
0.02997
0.0222341
0.438651
0.0212574
0.0249332
0.0219767
0.0203542
0.265726
0.0212537
0.0208836
2.01547
0.0574495
2.26288
0.260582
0.0211918
0.0275901
0.0209728
0.0211789
0.0236252
0.0224854
0.0217225
0.24354
0.0216461
0.0737119
0.0278988
0.0274924
0.0216192
0.024018
0.0212073
3.20599
0.0202574
0.128708
0.0706343
0.0227796
0.0485633
0.0299288
0.0278087
0.0216022
0.0272258
0.0209264
0.0208147
0.301614
0.0421297
0.0340812
0.0213734
0.021513
0.0212793
0.0790134
0.0211399
2.22359
0.0401615
0.0211248
0.0213222
0.0206266
0.0398437
0.0375884
1.64894
0.0355172
0.257065
0.0286422
0.122971
0.0246811
2.27007
0.0204842
0.0202117
0.0249373
0.309917
0.0206613
2.44678
0.0216648
0.0214927
0.793055
2.06009
8.3662
0.281077
0.0249534
1.67482
0.0423886
0.0207567
2.27493
0.021418
0.0210418
2.04309
0.020547
2.43574
0.195366
0.0210515
0.0214609
0.0207718
3.31779
0.0212454
0.020379
0.0788449
0.0211977
0.0209507
0.0218252
0.0208176
0.0416234
0.0217326
0.0243056
0.0207141
2.06234
0.0800455
0.0207327
0.0207412
0.0224703
0.0213069
0.0233983
0.0217745
0.0214489
0.0217523
0.0214532
0.0228541
0.0215551
0.0708617
0.0206159
0.083514
0.0216075
0.0546656
0.0208997
0.0216941
0.0211183
0.0203145
0.0356388
0.0278525
0.0242701
2.27174
0.0236682
3.22528
2.18118
0.0838589
0.666452
0.0215872
0.0215271
1.92753
2.04616
0.0213917
2.94575
0.0207413
0.143586
0.773029
0.0233218
0.0867508
1.63872
2.20055
0.0212806
0.0435639
0.0209553
0.420136
0.0236696
2.69242
5.19364
0.0218153
0.054632
1.96582
0.0217854
2.16809
0.27001
0.0235873
0.0209429
0.207283
3.01361
0.0207561
0.0293249
0.0220526
1.89464
0.21737
0.0216474
0.0209354
0.454025
0.0211419
0.0214568
0.0221057
0.0207638
2.19678
0.0313702
0.0264846
2.91422
0.0213595
0.0612852
0.0217111
0.202615
0.0501614
0.417619
0.0208625
0.0258786
0.0206967
0.0217129
0.0233599
0.0215657
2.20832
0.0229901
0.0208089
0.021158
0.305281
0.0209258
0.547174
2.0121
0.805435
0.0214513
0.0210054
0.0212606
0.631067
0.0219574
0.501859
0.0213608
1.7879
0.0235223
0.0233661
0.348358
0.0217115
0.0216136
3.04793
0.129235
2.41
0.0222438
3.00797
1.7169
0.0216109
2.73077
0.021793
0.026803
2.5906
0.0242765
0.0470645
3.37009
0.033014
0.0667877
0.0216025
0.441897
0.0214412
0.550785
0.0212629
3.91619
0.0214593
0.0215486
0.0234603
0.601115
0.0210396
0.0241661
0.0624568
1.48428
0.0212817
0.0307289
3.103
0.0988557
2.02003
0.0813988
0.0208961
0.136989
1.69521
0.0250298
2.33862
0.0201649
0.210606
6.27188
0.0211036
6.42994
0.0213247
2.87204
2.18514
0.024131
0.0240165
0.572289
0.825959
0.0214724
0.0227852
0.0207825
0.0216601
2.77105
0.0622373
0.329872
0.0215929
0.0265188
2.47683
0.0325136
0.735287
0.493639
0.0211493
0.0213986
0.235006
2.0119
2.04683
0.801377
0.243861
0.0382255
0.0558848
3.02446
2.14738
0.634495
0.0209425
0.0842804
0.0392449
0.0714733
0.0215024
0.024951
0.0550511
0.626304
0.833121
0.0222326
0.482018
2.86071
0.0475029
0.0214346
0.0214394
0.0945648
0.02106
3.35269
0.0271084
0.0224598
1.91369
0.110372
0.0207203
0.0316809
0.0272393
0.0215309
3.2558
0.0295162
3.40432
0.0210877
2.57899
0.374238
0.240516
0.020312
0.0266894
0.0335541
0.229809
0.16469
0.0682984
2.78721
1.6073
0.0196621
0.0255709
0.0228441
0.156279
6.05143
0.0206021
0.0206959
0.0229115
2.03432
0.207005
0.0211728
0.0461764
1.92336
0.0209144
0.0748669
0.024809
3.37569
0.0290117
0.41534
0.520855
0.0263632
0.0256229
2.27185
0.0211415
0.051258
2.41794
0.0244039
0.0989345
0.0295971
0.0564912
2.00451
2.98355
0.021585
0.654215
1.34208
0.0205575
0.156297
0.0651804
0.168959
2.25296
2.00406
0.825155
0.138298
2.25553
0.026759
0.069433
0.0204616
0.0217561
0.0215956
0.0209133
0.349173
0.385851
0.0202611
0.0520872
0.216
0.0211267
0.627977
2.59998
0.0202269
0.0219
0.020585
0.022978
0.0412178
0.0214384
2.8408
0.0271059
0.0699604
0.0276528
0.0691997
0.0535782
0.0373677
0.733258
0.0215311
0.023121
0.020221
0.0210299
3.10783
0.108734
0.0304154
2.63584
0.0216375
0.0222655
0.0355075
0.0207828
0.021077
0.0783433
0.0246932
2.77971
2.28321
2.20253
0.0216222
2.25863
0.0212843
0.376173
0.0206999
0.17233
2.13529
0.0214809
2.02882
3.04058
0.0343601
0.0224497
0.0208428
0.0282805
2.07788
0.0207378
0.0218179
0.0224636
0.023609
0.237694
0.0227555
0.025065
0.0211149
0.0225145
2.30223
0.0303933
0.0244181
0.156669
0.0894777
2.78502
0.321281
0.0231676
0.0228342
2.48791
0.0215274
0.0644358
0.0216534
2.77571
0.0224382
0.0218525
0.0336799
2.16014
0.0214
0.0208565
0.0204671
0.176148
10.4442
0.168446
0.0214771
0.0246863
0.0209143
3.01832
0.02106
2.07079
0.0555757
0.0216422
2.0155
0.0382783
0.306682
0.022017
0.0208771
0.028719
0.0464363
0.791256
0.0217568
0.0221655
0.0223441
2.32873
0.0215967
0.0223262
2.96062
0.0235503
0.0282343
0.0240147
0.0211617
0.0214602
0.564291
0.023049
1.60683
0.301523
0.0199807
1.64949
0.0220436
0.133849
0.04352
0.022568
0.0203677
0.0199534
0.021428
0.547285
0.0444355
3.28474
2.16581
0.0209419
0.0277218
0.0379222
0.364017
0.0214365
0.378882
3.00893
2.47874
0.0212935
0.0229512
0.0220919
0.45067
3.07423
0.0222655
0.0215272
0.0277301
3.09694
0.0217011
0.0229829
0.023562
0.138952
1.22804
0.0205092
2.10311
0.0314055
0.0214241
2.15943
0.0547836
1.7249
0.275984
0.0333804
0.0272816
0.0223619
0.0284552
0.0223773
0.0731838
0.047956
0.0214635
0.0238573
0.293552
2.22784
0.0207205
0.151035
2.2547
1.82341
0.0216287
0.0216023
0.307996
1.28636
0.0849848
0.0211219
2.27528
0.0694936
0.0200446
4.16336
0.0274387
0.0218035
2.05747
0.0213702
0.031007
0.0209718
0.019866
0.0214954
0.0204599
2.65458
0.0202606
0.0211635
0.0806109
0.0241594
0.0255806
0.164129
0.0216073
0.0214795
0.0232643
0.0227136
0.258902
0.256605
0.393983
0.462736
0.0385909
0.549063
0.0457875
2.19915
2.2985
2.5226
0.0209115
0.0330397
0.0214547
0.0216047
0.0210943
0.0228338
0.234973
0.0594051
0.0405735
0.0210999
0.0214033
0.0559433
0.0218194
0.0220914
0.0216101
3.12857
0.0296155
7.23089
0.0216108
0.300716
0.0222399
0.0217708
0.0222755
0.0393546
0.0210424
0.0942265
2.43383
0.0412992
3.30977
0.596804
0.0231
0.0264401
0.278012
0.16122
0.0204393
0.0210243
0.0199734
2.19721
0.0198508
0.0796167
0.0501137
0.0805679
1.58868
1.48187
0.0646992
3.29909
0.020805
0.0204591
0.0293814
0.459918
0.0214769
0.0216037
0.208446
0.0209552
1.66886
0.0228549
0.0209664
0.0262411
0.0215492
0.0721422
2.34393
2.66744
0.0241115
0.021569
0.081616
0.0227213
0.0830813
0.0209004
0.165641
0.101159
0.0220917
0.0217321
0.0200326
0.464827
0.0504521
0.240532
2.23795
0.0285768
2.34409
0.0770594
0.130526
2.82742
0.0213051
2.14448
0.0224981
3.18131
0.365153
2.14548
2.80901
0.0218567
0.0487163
0.0347938
0.0213912
3.47244
0.0215675
0.0215499
0.0247661
0.0221449
0.0280381
0.331522
0.457689
2.49503
0.0250876
0.0405376
0.0229047
0.0217877
0.0216801
0.228251
0.0944277
2.07399
0.0400269
0.0203129
0.0207892
0.0221423
0.273837
0.0250692
0.0225086
0.025084
0.101325
0.0286394
0.0468977
0.042151
2.13859
0.0283824
0.0295534
0.021441
0.0248281
2.04672
0.0909076
0.0484392
0.0207722
2.12291
0.0294093
0.0210989
0.0429274
2.37522
0.412491
0.0346135
0.0209659
2.12877
0.0221676
0.0209218
0.0203646
2.08459
2.33674
0.0230909
2.1324
2.64742
0.0244834
0.0421991
0.0555519
3.40155
0.0293706
3.03677
0.0222084
0.0359999
0.0247432
3.10198
0.0297599
0.0209125
2.55354
0.0216757
0.0226337
1.60512
0.48137
0.071127
2.05226
0.0237298
0.0226633
2.29388
0.0211043
0.0211973
0.0215869
0.039483
0.0214218
0.0348797
0.0244653
0.285313
0.396595
0.0221918
3.50002
0.0243215
2.51751
3.1432
0.021569
0.0217788
0.0244356
1.55143
0.238224
0.0652263
2.39389
2.10814
1.41474
0.0233716
0.480351
2.70615
0.0476056
0.859352
0.0217089
0.0212891
0.0215949
0.0228709
0.0213058
0.0298956
2.7346
0.03437
0.306537
3.21399
0.521451
2.1497
2.85531
0.0304246
3.19152
0.134889
0.0784816
0.0206784
0.0214389
0.0685582
3.83023
0.0225235
2.19562
2.64935
0.0209544
0.02163
0.0220064
0.102312
0.0222946
0.0745024
2.16791
0.0206935
0.021409
0.0209281
0.0223873
0.112621
2.48521
0.0391637
0.66415
0.156849
0.0211704
0.29466
0.728583
0.0215522
0.39619
0.369716
2.05115
2.01961
3.11391
0.0213254
0.798903
2.54138
1.07862
2.23633
0.0210875
0.0238194
0.0242086
0.0230214
2.76387
0.0642513
0.021759
0.0263706
0.310722
2.66694
0.0232139
0.024405
3.34315
2.80412
0.0217357
0.0285012
0.138656
0.0213412
0.0214212
2.16452
0.0211144
0.294617
0.297639
2.77432
0.0210262
0.076418
0.191509
0.0210729
0.0200922
2.29957
2.01916
0.0218517
0.037529
0.252169
0.259958
3.15281
2.13112
0.0256173
0.289939
0.329704
0.0312666
0.0211143
0.0829782
0.020414
0.0202088
2.84613
0.0377337
0.113624
0.0238066
0.0265176
0.0210621
0.0204549
0.0221533
0.0223567
2.12648
0.0236433
2.16029
5.95582
0.0395563
0.0729353
2.05307
3.04119
2.09234
0.0209648
0.0240837
0.0316227
0.0254505
1.37765
0.334886
0.0221171
2.22129
2.93108
0.0268281
0.101955
0.0782192
0.114462
0.128576
0.0226969
0.14673
0.163481
0.183188
0.206143
0.13417
0.0893133
0.027117
0.0210848
0.0293744
0.100682
0.0210655
2.17289
3.27384
1.91207
2.43798
0.0200615
0.0207474
0.0460947
2.61703
0.022277
0.024668
0.0671475
2.46256
0.216713
0.0215652
0.0343657
0.024572
4.16829
0.304694
0.0235543
1.39583
2.62338
0.117954
2.92803
0.114861
0.349653
3.2279
0.0195854
3.17554
2.82238
0.0228366
0.0709811
0.127951
0.0267587
0.0209707
1.73754
1.43614
0.0208357
0.0208753
2.01176
0.40734
0.0852815
0.0218707
0.286246
0.178898
2.62888
3.54454
0.0216039
0.0213881
0.0222376
0.0228163
2.9684
0.205142
2.37279
0.0918192
0.366018
0.622081
0.0228182
0.0210369
2.71353
0.0210221
3.11558
0.020893
2.92543
0.0225109
0.0227276
0.653905
0.0215587
0.133739
0.568685
0.0241201
0.024265
0.0226386
0.227915
2.86695
1.18168
2.54776
0.0237996
0.0227543
0.0259134
0.0815959
3.27946
2.51648
0.126113
0.261794
0.150688
2.55409
0.0214295
0.0209557
0.0207112
0.0206804
0.352486
0.0737716
0.415658
0.0407734
0.186749
0.0210893
0.306851
0.386319
4.09592
0.0214668
0.022821
0.0198807
2.53326
0.0240971
0.597858
0.390368
0.147042
0.348811
0.0200015
0.0329047
0.92644
0.336211
0.400672
0.0216358
0.165041
0.0221782
0.0221275
0.0963154
0.408989
2.02044
0.0218919
0.0994967
1.92423
2.17761
5.04416
2.9703
2.78666
0.0211028
0.0571223
0.0215511
0.172881
0.0213693
0.162087
0.0236307
0.0437851
0.268949
0.576365
0.0234449
0.0965193
2.7782
0.141542
0.0241248
1.64281
0.126916
0.0222853
0.022325
2.7688
0.0269731
0.260944
0.368126
0.412781
3.66241
0.0231822
2.6111
2.4026
0.3353
1.69716
0.0285202
0.1285
0.112259
2.92917
0.071269
0.0221688
0.594992
0.0543829
2.16743
0.0284271
2.52457
2.02448
0.36279
0.0249801
1.55075
0.024536
2.62961
0.750123
2.17563
7.34162
0.0209316
0.0198672
2.68081
3.13739
0.0303544
0.0221056
0.0415029
0.033091
2.68781
0.0778175
2.86686
0.0261562
2.96519
0.19502
0.965506
0.0221295
2.01026
2.38041
0.0236197
0.0946195
0.0200538
0.0238226
0.0216493
0.286172
0.0211844
0.0216233
3.189
1.0949
0.0206616
3.22851
0.022421
0.0214399
0.0213269
0.0210221
0.0217698
0.402732
3.15924
0.0206489
1.70742
0.06962
0.0457434
2.19643
0.0958766
0.0255945
0.0295801
0.0213078
0.278561
0.033597
3.24276
0.0245139
2.4219
0.627909
0.0725083
0.479992
3.07844
0.0207882
3.28263
0.0513714
0.065811
0.0422315
0.021141
0.0437145
0.239633
0.0216045
0.0775693
0.0214191
2.85214
0.180253
2.00231
0.223149
0.213292
3.15024
0.0216661
0.021366
0.0635531
0.0231728
0.0217726
0.0217985
0.0276209
0.0210632
0.0212102
0.0228707
0.0440563
0.0234721
0.0283045
0.0228839
0.0405314
0.119466
0.0238108
2.89526
0.0234739
0.0212753
0.10728
0.0397674
0.022962
0.0210521
1.55685
0.0230428
2.78551
0.0231908
0.158743
0.0213231
0.0213459
0.0861943
3.31256
0.0741864
0.0373631
0.0201829
2.66903
0.0216687
0.0211699
0.0832859
0.0234855
0.218516
2.73573
0.116433
0.964812
0.0407445
3.71737
0.0214805
0.0216914
0.0610621
0.295029
0.059762
0.130083
2.19949
0.0282738
0.0216309
0.0260918
0.283326
0.0586043
0.021622
0.120453
0.113664
0.0639787
0.0217551
0.0216378
0.779117
0.0622585
0.464512
0.580393
0.0243784
0.074189
0.0217383
0.0419856
2.09913
0.0218291
0.239652
0.176015
0.0948328
1.32897
0.0215677
0.0213299
0.0212612
3.15489
0.25904
0.0240162
0.0987462
0.13489
0.0217173
0.0213687
1.95239
3.20702
1.21026
2.81211
1.66364
0.0284335
0.386843
0.15027
0.0280522
0.545092
0.100282
0.635123
0.0215737
0.115006
0.168493
0.0225949
1.584
0.0370578
0.0918486
0.0274566
0.189996
0.0210703
3.75563
0.0238222
0.0208049
0.0209977
0.0207794
0.0229596
0.0226447
0.0209625
0.0235359
0.0217247
0.0225432
0.273404
0.0863208
0.0221809
0.0630758
0.0246292
0.023477
0.0204202
0.0434908
0.0280917
1.00139
0.0215844
0.0215892
0.0699939
2.02298
0.021666
0.021606
0.166805
0.0231237
0.120835
0.0579898
0.021485
9.00559
0.0232873
0.0224844
0.0789485
3.32629
0.0223913
0.0549847
0.0208317
0.0246862
0.021596
0.028149
0.0211945
0.0216032
0.0450255
0.0587396
10.7162
0.0461404
0.0215513
0.0292952
3.15459
0.0537113
0.232848
0.119355
0.0216398
0.0497787
0.206765
0.241282
1.66327
0.0260304
3.14945
0.332673
0.0324927
0.0217379
0.0815197
0.0223698
0.0573986
2.58679
0.0216576
0.69699
0.0219508
2.30878
0.0540314
0.0224605
0.0598825
2.49902
0.131532
0.0234072
0.0774014
0.0279032
0.0206452
2.30298
0.0205205
0.0366221
0.0210905
0.0263434
2.1011
0.0776853
0.0205062
0.0318867
0.480716
0.0216378
0.0220885
0.0268473
0.0267893
0.0215049
0.0233636
0.0255421
0.0222441
0.021078
0.062507
0.125097
0.232258
0.0210219
0.0579771
2.55171
4.17967
0.0209425
0.0217025
0.0242606
0.104233
0.02243
0.0210446
0.021224
0.0209592
0.0276429
0.0259054
0.0245196
0.0671889
0.0235315
0.0204323
0.023863
0.0658538
0.0424584
0.131854
0.0222783
0.0295681
2.83737
0.0324875
0.0239431
3.85782
2.91122
0.11837
0.0698228
0.208495
0.0213072
0.273652
0.0292346
4.40702
0.0214214
0.0212399
0.467899
0.0208129
0.297694
2.18112
0.0220402
15.9351
0.0282474
0.0299691
0.0281307
0.0803528
0.0318451
0.025533
1.54088
0.0208802
0.0236388
3.13528
0.0231474
0.0214236
0.0295346
2.81067
0.0223428
0.0223558
2.73808
0.0234113
0.0280051
0.0606535
0.0203485
6.97039
0.023599
0.0226541
0.156307
0.0583582
2.68711
0.0230622
2.02639
0.0303277
0.110013
2.09144
0.0216478
0.0296064
0.107942
0.0222128
2.0215
0.0224876
0.0229014
2.4491
0.0221616
0.039016
0.108826
0.718701
0.0279055
0.0259665
0.0223093
0.0233714
0.105917
0.0250409
0.028798
0.083423
0.0548919
0.0215903
3.21246
0.0344527
0.0204422
0.0232504
0.0212494
0.0207609
0.0203531
0.0216581
0.0216026
0.0293345
0.0234421
0.0467404
0.0202384
0.0204455
0.0234216
0.086188
0.0207491
0.0332901
0.0688246
0.0313327
0.0282834
0.0213731
0.0229131
0.0242399
0.0421854
0.0312055
0.0252308
2.0799
0.0218065
2.25912
0.0240369
0.103472
0.103793
0.0216066
0.0597634
0.0288267
2.75924
2.51591
0.0244497
0.0218464
0.0231284
0.0281312
0.0453493
0.0213769
0.0225127
0.0494976
0.0233248
0.0649133
0.053744
0.0692505
0.0311783
2.0199
0.0950573
0.0292464
0.18724
0.0231335
0.161193
0.0224806
0.0212929
0.092875
0.0962679
0.0214063
0.0477091
0.0214451
0.0216789
0.0215279
0.0220641
0.0215627
0.0214176
0.0214247
0.0224256
0.213904
0.0226111
0.0213663
0.0225062
0.0228003
0.248779
2.39911
0.0654601
0.0245971
3.13542
0.0214825
0.0213796
0.71275
0.0292587
0.0222472
0.0225521
0.0217846
1.81581
0.0218808
0.0245864
0.0226474
0.0370371
3.51664
0.0214555
0.0650019
0.0663029
0.0242631
0.0401855
0.0208734
0.0217395
0.0588938
1.77214
0.0229185
0.0399265
2.19784
0.110096
0.0207941
2.27623
0.0230935
0.019663
0.0624122
3.06617
0.0213917
0.0207498
0.0228424
0.0322199
0.0381309
0.0214346
0.0226935
0.0410706
0.021729
0.0313355
0.0247269
1.3184
0.0204485
2.59905
0.389417
0.0403557
0.0212926
0.110235
0.0211677
0.0239632
0.0216858
0.0565038
0.020215
0.0201915
0.0375787
0.0657246
0.417044
0.0221049
0.0200699
0.0229543
0.0208042
2.36084
0.0238653
0.0230668
0.0222474
0.060503
0.0447393
0.023186
0.0236356
0.0421569
0.0217823
0.0216426
0.023078
0.0221929
0.976355
0.0211627
0.0332469
0.0219543
0.0215493
0.0449407
0.11068
2.27053
0.0215294
0.0625395
0.419095
2.33659
2.87802
0.0333494
0.0216083
0.024531
0.0295233
2.09349
0.022047
0.0246696
0.0264784
0.0290317
0.020264
0.0538684
0.0424051
1.29574
0.0221823
0.0217122
0.118561
0.809027
0.0201333
0.0240774
0.0305025
0.0199577
0.0227679
0.0429045
0.0223561
0.0215055
0.0217512
0.0238542
0.0911476
0.0331712
0.0226572
0.0208191
0.0224511
1.7709
0.0199038
0.0208982
0.027038
0.102971
0.0247848
3.21712
0.0250042
0.021527
0.0215499
0.0233666
0.0212173
0.0300302
0.0730312
0.0209374
0.0209995
0.0220812
0.0213228
0.022136
0.0486966
2.04614
0.0227769
0.126213
0.0233076
0.0213416
0.295828
0.0237698
3.06999
0.0218105
0.0218056
0.0207573
0.021527
0.0228195
0.0287078
0.0424195
1.04076
0.0305305
0.0504612
0.0219189
0.0370666
0.0214415
0.023712
0.0315942
2.05462
2.57024
0.021976
2.90288
0.146122
0.0383754
1.30365
0.0198939
0.0214217
0.0217271
0.0233098
2.12061
0.0207529
0.0789929
0.362144
0.0227612
0.0963091
0.0199472
0.0351094
0.336507
2.02282
0.0219845
0.317489
0.145344
0.381802
0.026222
3.23746
0.0226159
0.628802
0.144419
0.0205139
0.0453935
0.0344084
0.023221
0.412387
0.0289313
0.0209092
0.0224857
0.0484078
0.0218882
0.0598149
0.0215725
0.0198781
0.0238679
0.0300663
0.0215672
0.0943583
0.0287211
0.0237651
0.019885
0.021555
0.530558
0.0952908
1.65455
0.0304764
0.0244049
0.0305869
0.0272065
0.0214932
0.0230123
0.0384123
0.0234242
0.0236848
0.0203887
0.0250306
2.43525
0.0219616
0.479198
0.191267
0.0216641
0.0217603
0.0202827
0.0305999
0.0424252
0.0201039
0.0245699
0.0234126
0.0220139
0.0210943
0.0222926
0.0214752
0.021661
0.265316
0.0221301
0.0274939
0.0214586
0.220447
0.528622
0.0215243
0.313049
0.0217247
0.0235556
0.0321999
0.346913
0.0285674
0.020998
0.0212862
0.0371291
0.0444468
0.197239
0.0227645
0.0456593
0.196181
0.022013
0.0215655
0.2544
0.0489915
0.0285983
0.0216882
0.0224328
0.0227522
0.0240603
0.0209429
2.28361
0.0249087
0.0236015
0.0206647
0.0277708
0.0204029
0.33684
0.0215507
0.0300872
0.021021
0.0254799
0.0207142
0.0443491
0.0200225