/*--------------------------------*- C++ -*----------------------------------*\
| =========                 |                                                 |
| \\      /  F ield         | OpenFOAM: The Open Source CFD Toolbox           |
|  \\    /   O peration     | Version:  v2012                                 |
|   \\  /    A nd           | Website:  www.openfoam.com                      |
|    \\/     M anipulation  |                                                 |
\*---------------------------------------------------------------------------*/
FoamFile
{
    version     2.0;
    format      ascii;
    class       surfaceVectorField;
    location    "100";
    object      ddtCorrDdt0(Uf);
}
// * * * * * * * * * * * * * * * * * * * * * * * * * * * * * * * * * * * * * //

dimensions      [0 1 -2 0 0 0 0];


internalField   nonuniform List<vector> 
20537
(
(-0.00126616 -0.000565745 2.41073e-19)
(-0.0014957 -0.000295949 6.96073e-19)
(-0.00166775 -0.000718202 -1.57042e-20)
(0.0502063 0.134394 -5.55306e-18)
(0.018445 0.143149 -2.7213e-18)
(-0.00970514 0.228071 1.35955e-18)
(0.0248755 0.0171038 2.98587e-18)
(0.0272492 0.0149047 -3.96332e-19)
(0.0286162 0.0177871 -2.41554e-18)
(-0.00108703 0.00020328 -4.28054e-20)
(-0.00137458 3.72991e-05 1.23647e-18)
(-0.00133114 0.000431107 -8.3833e-19)
(-0.00597002 0.0157182 -2.57845e-18)
(-0.00461639 0.0171422 4.83166e-18)
(-0.00422717 0.0151472 -1.0654e-18)
(0.0416395 0.0832283 1.29476e-19)
(0.0199865 0.0901034 -2.00505e-19)
(0.0333992 0.0656387 4.92284e-19)
(0.00012729 0.00022614 -4.68782e-19)
(0.000133785 0.000231128 -9.33121e-19)
(0.0001197 0.000252655 -1.04987e-18)
(0.0117177 0.00255339 2.21715e-18)
(0.0105415 0.00249061 -4.03519e-19)
(0.0112353 0.00390829 -6.17357e-19)
(7.65744e-05 2.39883e-05 -1.35345e-19)
(7.70341e-05 2.34116e-05 -1.12418e-19)
(7.99346e-05 8.32816e-06 -6.42069e-19)
(0.0491905 -0.0327186 -2.04406e-19)
(0.0422726 -0.0339119 -7.79192e-19)
(0.0441399 -0.0272534 -5.86957e-20)
(0.0125394 0.12191 2.6132e-19)
(0.00498716 0.126913 -3.91789e-19)
(-0.00133214 0.112159 4.02649e-19)
(0.222294 -0.101306 -2.68657e-18)
(0.199211 -0.0768558 -5.31003e-19)
(0.216842 -0.0743106 6.05998e-19)
(-0.0275565 -0.00847443 1.23611e-18)
(-0.0269437 -0.00380904 2.39112e-18)
(-0.0223063 -0.0109524 3.29269e-18)
(0.150185 0.039203 -2.34975e-18)
(0.152343 0.0582481 -5.65377e-18)
(0.144413 0.0498071 -1.88266e-18)
(9.22713e-05 1.2456e-05 6.92257e-20)
(9.10536e-05 1.27806e-05 -1.63107e-19)
(9.17916e-05 1.40133e-05 -2.0808e-19)
(-0.000277062 -0.00661541 2.05695e-19)
(0.000654182 -0.00654602 -7.26893e-20)
(0.000265103 -0.00758982 -2.23916e-19)
(0.00123728 -0.000471995 -1.08648e-18)
(0.00109565 -0.000495377 7.163e-19)
(0.00113553 -0.000394066 -5.67171e-19)
(0.00677722 0.00227926 5.05697e-19)
(0.00579177 0.00276504 -4.31521e-19)
(0.00683785 0.00345819 5.30416e-19)
(-0.0527871 0.024524 -8.95067e-19)
(-0.0534299 0.0320704 7.46002e-19)
(-0.0533689 0.0286599 5.51886e-18)
(7.58684e-05 2.3502e-05 1.00013e-19)
(7.35662e-05 3.21649e-05 -8.0877e-20)
(-0.000812536 0.00035145 1.85576e-19)
(-0.000851012 4.96561e-05 2.92838e-19)
(0.0211489 0.0169614 2.48893e-18)
(0.0222664 0.0200553 -4.19349e-18)
(-6.93023e-05 2.52816e-06 -2.14573e-20)
(-7.50398e-05 2.3846e-06 2.05947e-19)
(-8.39956e-05 2.34111e-06 8.59114e-20)
(7.126e-05 -3.33219e-06 -7.91658e-20)
(7.11206e-05 -1.68482e-06 -3.66824e-19)
(6.89676e-05 -5.02456e-06 -6.75543e-19)
(-6.30539e-05 6.63393e-07 2.70841e-20)
(-4.79659e-05 1.89375e-06 8.87596e-20)
(0.0123525 0.00129687 -7.85037e-19)
(0.0133278 0.00265771 5.79768e-19)
(0.000824082 0.000681133 -1.8293e-18)
(0.000774434 0.000651821 3.71007e-19)
(0.00083085 0.000606455 -1.90545e-20)
(-0.00637841 0.0122999 -5.85746e-19)
(-0.00934959 -0.0147029 1.35355e-17)
(-0.000940781 -0.00049465 5.9211e-19)
(-0.00106513 -0.000877453 -1.56034e-19)
(0.000361094 0.0013211 1.56688e-19)
(0.00012402 0.0013506 1.45815e-19)
(0.000321879 0.00153665 4.06337e-19)
(0.0643794 0.0672984 1.47829e-19)
(0.0400965 0.103914 1.07768e-18)
(0.00134027 -0.000605848 1.19617e-18)
(0.00139527 -0.000447852 -6.0516e-19)
(0.0261033 0.0119013 -1.53118e-19)
(0.0296661 0.0119998 7.52765e-19)
(0.024829 0.16931 -5.76039e-18)
(0.0118466 0.204882 -9.57767e-19)
(0.0110963 0.198515 3.54706e-18)
(7.15916e-05 -2.07955e-06 3.10744e-19)
(7.27285e-05 -3.30573e-06 -1.77448e-20)
(0.00524426 -0.0115243 -1.69719e-18)
(0.00626239 -0.0110359 3.61612e-19)
(0.00549699 -0.0127041 1.79722e-18)
(0.0129518 -0.0229507 7.33871e-18)
(0.0141222 -0.02169 7.88978e-18)
(0.016521 -0.0207678 -4.73637e-18)
(0.00574979 0.0765139 7.30694e-18)
(-0.00319962 0.0780131 4.03218e-18)
(0.00324809 0.0684869 -2.27721e-18)
(0.0538312 -0.0364501 -1.82255e-19)
(0.0547605 -0.0281534 -1.64024e-19)
(0.040611 0.129959 -6.13995e-19)
(0.0356103 0.115685 2.67649e-18)
(0.000200134 3.90886e-05 -2.44635e-19)
(0.000195941 4.40509e-05 -1.28509e-19)
(0.000201615 2.5132e-05 -3.07485e-20)
(-9.60493e-05 6.69154e-05 -8.37887e-20)
(-0.000100589 6.50569e-05 5.5023e-21)
(-9.76096e-05 6.15717e-05 -2.19832e-20)
(-0.0853317 -0.075645 -5.49295e-18)
(-0.110663 -0.0932456 1.40882e-17)
(-0.0925386 -0.0290845 -6.20631e-18)
(-0.00110788 0.128526 -1.03975e-18)
(-0.00633625 0.0997531 7.83379e-19)
(-0.004484 0.116794 -4.02512e-18)
(0.00510168 0.145494 2.59542e-19)
(0.00156218 0.138189 -1.18465e-18)
(-0.103717 -0.245951 -5.30744e-19)
(-0.120127 -0.24809 1.27393e-18)
(-0.125309 -0.234535 6.97865e-19)
(0.00329609 0.079475 1.36803e-18)
(0.00135339 0.104005 5.15072e-18)
(0.00298968 0.112146 -9.02084e-18)
(-0.0746199 -0.0922085 -5.38874e-19)
(-0.0676616 -0.134289 -6.26531e-20)
(-0.0661571 -0.0770276 -2.20615e-19)
(0.000877044 0.000713069 3.30867e-19)
(0.000813648 0.000755948 -3.72915e-18)
(0.0176439 -0.0266298 4.75943e-19)
(0.013305 -0.0222243 -7.47013e-19)
(0.020509 -0.0226264 3.08303e-19)
(-0.00574075 0.00243611 -2.7616e-18)
(-0.00626177 0.00187211 -8.51457e-18)
(-0.00529672 0.00180983 -4.14971e-18)
(-0.0210555 0.000120218 4.83391e-19)
(-0.0193524 -0.000159402 1.54324e-20)
(-0.0207097 -0.00242557 4.22059e-18)
(0.0411245 -0.0743164 -2.00957e-18)
(0.0324476 -0.0784154 2.15563e-18)
(0.0326211 -0.0634409 -3.83501e-18)
(9.65335e-05 1.02069e-05 3.92795e-19)
(0.000103242 8.14091e-06 7.78801e-20)
(9.48126e-05 1.26246e-05 -3.43842e-19)
(0.000171062 5.3606e-06 -8.30824e-21)
(0.000168743 2.03875e-06 1.23746e-19)
(0.000168908 5.5484e-06 8.63934e-21)
(-9.01385e-05 6.2932e-05 1.81813e-20)
(-9.47044e-05 7.26109e-05 -4.44319e-20)
(-1.77768e-07 -1.52996e-05 -4.21251e-20)
(4.21743e-06 -1.70761e-05 3.31418e-19)
(4.89357e-06 -1.06596e-05 2.23184e-19)
(0.0372619 -0.130206 -1.66026e-18)
(0.0471424 -0.18661 2.35713e-17)
(0.0201691 -0.153836 3.71304e-17)
(0.000393239 0.00109508 -4.4385e-20)
(0.000588713 0.00118936 5.82437e-19)
(0.000198454 0.000135552 -1.18809e-20)
(0.000185603 0.000133157 8.46803e-20)
(0.000187163 0.000158105 1.12103e-18)
(0.0072314 0.0857977 2.21133e-18)
(0.0150329 0.0754694 5.4119e-18)
(-0.254966 0.16647 -2.42539e-18)
(-0.26328 0.12945 -1.61737e-17)
(-0.293177 0.164373 -1.18146e-17)
(0.0378748 -0.0154532 1.08409e-18)
(0.0370604 -0.0219668 1.51789e-18)
(0.0324074 -0.0173034 3.03642e-19)
(-0.0107875 0.0149168 -5.42616e-20)
(-0.00986618 0.016554 -2.91177e-18)
(-0.0119473 0.0165939 -5.2538e-19)
(-0.228346 0.149352 -5.90357e-19)
(-0.215548 0.18381 -8.02407e-19)
(-0.202329 0.142207 4.21892e-18)
(-0.003906 -0.000280968 1.45376e-19)
(-0.00340079 0.000375682 -3.08988e-19)
(-0.00416184 0.000627626 -5.76922e-19)
(0.00834535 -0.0241416 -8.57503e-19)
(0.00972234 -0.0227667 1.43891e-18)
(0.00961197 0.0142787 -3.17684e-18)
(0.0057175 0.05176 5.45371e-18)
(0.000924088 0.00262258 7.06313e-19)
(0.00108884 0.0026804 -7.55183e-19)
(0.00105837 0.0024921 -1.86693e-18)
(0.00636879 0.00120964 -1.22578e-19)
(0.00759907 0.00145544 -6.31231e-19)
(-0.0378214 -0.00233205 1.65719e-18)
(-0.0384024 -0.00169976 4.90776e-18)
(-0.0359401 -0.0012834 8.69459e-19)
(-0.00543855 -0.0206425 -1.2911e-18)
(-0.00638646 -0.0191919 3.5393e-19)
(0.00205071 -0.0204169 -4.2594e-18)
(0.069063 0.127829 -2.76458e-18)
(0.0972366 0.0737231 3.38196e-19)
(9.39857e-05 1.04557e-05 -5.95076e-19)
(9.66158e-05 8.83589e-06 4.50363e-19)
(0.000180284 4.57896e-06 2.89759e-20)
(0.000180255 7.53484e-06 -5.36408e-20)
(0.000183097 5.55787e-06 -9.54442e-20)
(4.10547e-05 7.64734e-05 -8.10062e-19)
(4.88025e-05 8.60705e-05 -1.28556e-19)
(5.15889e-05 7.38585e-05 -5.35116e-19)
(0.0187198 0.0171921 -4.09468e-19)
(0.0200632 0.0153033 -1.04957e-19)
(0.0222747 -0.0092558 -7.16804e-20)
(0.0200984 -0.0130934 2.15626e-18)
(0.0268398 -0.01036 -5.32723e-19)
(0.00216825 0.00622377 -1.34037e-18)
(0.00171248 0.00668292 7.72542e-19)
(0.0023768 0.00693368 5.98484e-19)
(-0.0422985 -0.00119103 -4.29471e-18)
(-0.0422116 -0.000790943 -1.65564e-18)
(0.000293946 0.00011992 -1.0922e-18)
(0.000285684 0.000110645 7.63379e-19)
(0.000276969 0.000121184 5.12156e-19)
(0.000763647 0.0027053 3.68757e-18)
(-0.00343128 -0.00669737 5.74304e-20)
(-0.00298432 -0.0212456 -1.61844e-18)
(0.00017591 0.00014516 6.40188e-20)
(0.00018257 0.000153244 6.88796e-20)
(0.000184334 0.00014943 -2.36586e-19)
(-0.116941 -0.25931 -8.83243e-19)
(-0.114782 -0.252885 2.96235e-19)
(-0.106776 -0.261981 -1.97254e-18)
(0.0380637 -0.00980633 1.07451e-18)
(0.0440165 -0.0137798 2.91764e-20)
(0.237238 -0.102978 -5.93597e-19)
(0.206227 -0.119422 3.13273e-18)
(0.0357847 0.0215207 -1.22933e-18)
(0.0388558 0.0308205 -1.34478e-18)
(0.0277366 0.0278764 -7.3016e-19)
(-0.0430709 -0.30976 -6.89845e-19)
(-0.0342276 -0.274974 1.48803e-19)
(-0.00624278 -0.286889 -9.54869e-19)
(0.00137018 0.000330824 5.72886e-19)
(0.00143238 0.000242385 1.7043e-19)
(0.00148716 0.000369033 -8.43465e-20)
(-0.00034907 5.71026e-05 6.52419e-20)
(-0.000276698 1.26561e-05 -8.30879e-20)
(-0.000296418 0.000126801 -7.58217e-21)
(0.00416133 -0.0107554 -3.45768e-18)
(0.00420679 -0.0122482 -6.32798e-18)
(-0.0140609 -0.0115216 7.28639e-19)
(-0.0151405 -0.0160502 1.26921e-18)
(-0.018752 -0.0113757 -1.28742e-18)
(0.00840775 -0.0248347 -2.24423e-18)
(0.00185062 0.000835982 1.43047e-18)
(0.00197738 0.000852819 -9.99316e-19)
(0.00189225 0.00100902 -5.76024e-19)
(0.0012595 0.000329651 -4.88483e-19)
(0.00131077 0.00045465 -9.66292e-19)
(1.708e-05 -2.96186e-06 -1.08848e-19)
(1.7087e-05 -1.75399e-06 -3.23584e-19)
(1.43299e-05 -2.74615e-06 3.19773e-19)
(-0.00794364 0.0163728 -2.97235e-18)
(-0.0071934 0.0144152 3.11678e-18)
(-0.0600576 -0.0721721 -9.76216e-19)
(-0.0644159 -0.0796055 2.54993e-19)
(-0.0526008 -0.0794409 8.71483e-19)
(0.0240534 -0.0315625 -1.66315e-18)
(0.0142009 -0.0316953 4.11527e-19)
(2.29123e-05 -1.45228e-06 1.87273e-19)
(1.55834e-05 -3.38967e-06 3.07748e-19)
(0.0851725 -0.0405701 -2.02937e-18)
(0.110118 -0.0320149 -1.11601e-17)
(0.0966658 -0.0135334 2.64275e-17)
(-0.00109721 0.00549036 -8.2965e-19)
(-0.00134167 0.00501516 -4.40609e-18)
(-0.00079318 0.00507226 -5.47006e-18)
(0.000452636 -0.000511855 2.0081e-19)
(0.000534783 -0.000554939 8.67137e-21)
(0.000458359 -0.000589956 4.4336e-19)
(0.000280995 0.00107543 -9.31951e-20)
(0.000272809 0.00111944 3.25747e-18)
(-6.41724e-05 -3.78183e-06 -1.51166e-20)
(-8.42317e-05 -7.48482e-06 3.14926e-21)
(-7.16289e-05 -4.69451e-06 -1.25485e-20)
(0.042856 0.00595905 4.52182e-19)
(0.0435087 -0.000850226 -2.06687e-18)
(0.0359762 0.00234955 7.14442e-19)
(-0.00256916 0.00432619 1.03878e-18)
(-0.00247358 0.00483282 1.66041e-19)
(-0.00312389 0.004672 -3.91015e-18)
(-8.55428e-05 -4.09009e-05 2.06915e-20)
(-8.449e-05 -2.09127e-05 4.79811e-21)
(-8.74936e-05 -3.53742e-05 -6.61838e-21)
(-0.014612 -0.0157741 -8.67123e-20)
(-0.0170301 -0.014011 -1.20086e-18)
(-0.010284 0.115622 -1.0149e-19)
(-0.00139722 0.0886578 5.27808e-18)
(3.18863e-05 -8.49967e-06 1.40483e-20)
(3.81107e-05 -3.41012e-06 2.82194e-19)
(2.73517e-05 -7.22081e-06 4.14239e-19)
(-0.000443458 0.000117491 1.60052e-19)
(-0.000400951 -7.184e-05 -4.34838e-19)
(-0.013 -0.00838471 -2.34111e-19)
(-0.0104295 -0.0113759 1.58355e-19)
(6.02678e-05 -1.15207e-06 8.38836e-20)
(5.8963e-05 -1.72014e-06 -1.92352e-19)
(2.87768e-05 -1.2102e-05 -2.6854e-19)
(3.77161e-05 -7.93013e-06 -9.39126e-19)
(0.0574308 0.0628412 2.81983e-18)
(0.0450036 0.0341049 -1.37515e-18)
(-0.0546101 -0.0624811 -4.12818e-19)
(-0.0671114 -0.0600069 -1.29014e-18)
(-0.000100214 3.36199e-05 -5.96292e-21)
(-0.000101188 3.57572e-05 2.92231e-20)
(-9.85899e-05 3.45405e-05 -5.83032e-20)
(0.000124946 -2.26617e-06 1.19486e-19)
(0.000124902 -2.16182e-06 -2.68273e-19)
(0.000128259 -2.16664e-06 3.54983e-19)
(0.000177724 2.29076e-06 2.39632e-19)
(0.000183518 -8.12721e-08 1.64076e-19)
(0.000182528 -1.7302e-07 7.64431e-20)
(-0.0672651 -0.100516 1.16587e-18)
(-0.0536411 -0.0621956 9.99231e-18)
(0.000338279 0.001046 1.44622e-18)
(0.000304515 0.0010186 -2.24435e-18)
(-0.0339936 -0.00385793 -1.52848e-18)
(-0.0337221 -0.0121756 -2.9837e-18)
(0.0237099 0.108854 -8.42071e-18)
(-0.0781125 -0.0626854 -1.19081e-18)
(-0.0781792 -0.103534 -1.03857e-18)
(-0.000797447 0.00153028 1.36668e-19)
(-0.00047817 0.00138425 3.92089e-20)
(-0.000482505 0.00194365 -6.6233e-21)
(-0.0811314 -0.0374962 -1.56749e-18)
(-0.07606 -0.0263068 1.1909e-18)
(0.000567128 0.00615808 -5.92403e-19)
(0.000127595 0.00596929 8.79719e-20)
(0.000121253 0.00662587 7.89114e-19)
(-0.000641384 0.000449687 2.60191e-19)
(-0.000754177 0.000637742 4.61467e-19)
(-0.0178765 0.0364429 5.55843e-19)
(-0.0177126 0.0330202 2.88176e-19)
(-0.0213763 0.0345312 -1.30822e-18)
(0.000199613 4.77347e-05 -1.31546e-19)
(0.000201104 3.46043e-05 -1.14335e-19)
(0.000112852 -7.56153e-05 5.05381e-20)
(0.0001181 -7.34384e-05 -4.05487e-19)
(0.000119248 -6.48859e-05 -5.0658e-21)
(-0.0371535 -0.00261623 5.82946e-20)
(-0.0376403 -0.00303285 -2.95537e-18)
(0.000168323 0.000135438 5.97556e-19)
(0.000169453 0.000136273 -3.94962e-19)
(0.0420531 0.141564 -1.60843e-19)
(0.000123819 -2.03275e-05 -1.37768e-19)
(0.000120285 -2.46015e-05 -2.85569e-19)
(0.000122271 -1.84025e-05 -5.06109e-19)
(-9.9091e-05 3.00427e-05 -5.63511e-20)
(-0.000103135 3.08301e-05 6.07618e-20)
(-0.00410311 -0.0219109 1.84064e-18)
(-0.00277226 -0.023132 -1.01907e-18)
(0.0034427 -0.0228604 1.78423e-18)
(-0.161696 0.367585 -1.42272e-19)
(-0.106004 0.334406 1.02308e-17)
(-0.14348 0.36092 -1.43595e-17)
(-0.000317423 0.31764 -1.61452e-18)
(0.0211516 0.310696 -2.93366e-18)
(-0.0107035 0.320982 8.81871e-19)
(0.0624655 -0.0843709 4.32866e-18)
(0.0557473 -0.054955 -3.4152e-17)
(0.000172095 4.514e-06 -2.70541e-19)
(0.000175317 2.27196e-06 -7.3341e-20)
(-0.00120548 -0.000885812 1.10931e-18)
(-0.00126428 -0.00138817 3.12712e-19)
(-0.00167276 -0.00097725 4.54206e-19)
(-0.000122918 -0.000109301 6.54177e-20)
(-0.000110045 -0.000112789 2.41874e-20)
(-0.000109532 -0.00013182 -3.41066e-20)
(0.000251245 -5.94919e-05 -2.80212e-19)
(0.000288524 -0.000157214 -2.28301e-19)
(0.000325147 -7.99898e-05 3.13644e-19)
(-0.0067885 0.0803333 -3.82095e-18)
(-0.013474 0.0653855 -7.09042e-18)
(0.000192738 -0.00357572 -1.35009e-19)
(-0.000702441 -0.00288578 -6.37512e-20)
(0.000388234 -0.00267302 -1.6226e-19)
(-0.0188411 0.0413493 5.12386e-18)
(-0.0137952 0.0389295 3.59546e-19)
(0.000120799 0.000219665 3.02446e-19)
(0.000134354 0.000198669 -1.23838e-19)
(0.00918082 0.14653 3.43781e-18)
(0.00724475 0.150742 -2.65436e-18)
(0.00100084 -0.000457329 -6.26392e-18)
(0.000949666 -0.000887898 -4.33854e-18)
(0.000184458 -7.62013e-07 -6.38023e-20)
(0.000182869 -2.01621e-06 3.2586e-20)
(0.000180265 -1.1889e-06 1.37576e-20)
(0.148782 0.0246627 4.31373e-18)
(0.152087 0.0314362 -1.72124e-18)
(-3.25644e-06 -1.38947e-05 -2.86984e-19)
(-5.31132e-06 -2.03807e-05 6.97961e-21)
(0.00061412 7.48241e-05 -1.60225e-18)
(0.000631882 9.80455e-05 6.49113e-19)
(0.000591272 9.881e-05 -1.4115e-18)
(0.000174219 -4.31864e-05 7.43615e-19)
(0.000229595 2.15983e-05 2.76421e-19)
(0.000119483 -1.47423e-05 -7.96106e-19)
(0.000119648 3.33802e-06 -5.69298e-19)
(0.000117252 5.46696e-06 -5.93592e-20)
(0.000220754 0.000717002 1.64886e-19)
(0.000246796 0.000631541 6.39787e-20)
(0.000155244 0.000654204 6.26425e-20)
(-0.0231521 -0.000257798 1.17141e-19)
(-0.0217711 0.00181095 -7.66631e-18)
(-0.00527093 0.00314364 -2.25499e-18)
(-0.00614307 0.00326652 2.63028e-18)
(-3.77999e-05 -0.000150963 2.72337e-21)
(-5.13186e-05 -0.000138993 -5.42202e-21)
(-5.48676e-05 -0.000125681 -4.2273e-22)
(0.0010433 0.00141539 -2.5396e-18)
(0.00110583 0.00146696 -1.62784e-19)
(0.00101268 0.00152323 -9.40407e-18)
(0.0308698 -0.0929741 2.89771e-17)
(0.0524404 -0.113477 -6.95356e-18)
(0.000109066 -7.60503e-05 -1.05199e-19)
(0.000107635 -8.31399e-05 6.82032e-20)
(-0.00353988 0.00287979 4.94541e-19)
(-0.0036213 0.00198645 -6.53128e-19)
(-0.00291756 0.0024061 1.01472e-18)
(-0.000123001 -1.19457e-05 -9.70431e-21)
(-0.000122627 -3.3874e-05 -1.01773e-19)
(-0.000119187 -3.36924e-05 3.08278e-20)
(0.0011797 -0.0043596 -4.46556e-19)
(-0.0011351 -0.00521321 -1.05304e-19)
(0.000755415 0.00274331 2.18352e-18)
(0.0007822 0.00256841 -5.00429e-19)
(-0.000552016 0.000320666 -1.72535e-19)
(-0.000479094 0.000495793 -3.4938e-20)
(-0.0525917 -0.116509 -1.97364e-20)
(-0.0304466 -0.134358 -7.8211e-19)
(-0.03614 -0.121539 -5.04172e-19)
(0.0275248 -0.00534227 -3.29919e-18)
(0.0188241 -0.00793478 -3.10835e-18)
(1.2572e-05 -1.53896e-05 3.02312e-19)
(1.49702e-05 -2.60181e-05 -1.04408e-20)
(1.38576e-05 -1.44656e-05 7.04639e-20)
(0.000121701 -3.61831e-05 -2.38795e-19)
(0.000123695 -3.65773e-05 1.03403e-19)
(-0.0203966 0.319779 1.31633e-18)
(0.0201753 0.303874 -3.92798e-19)
(0.000104491 -7.4075e-05 -3.28878e-19)
(0.000110555 -6.91393e-05 -1.43725e-19)
(-0.056691 -0.182153 -1.31104e-18)
(-0.0599205 -0.186717 3.16589e-20)
(0.00116644 0.00646312 9.49051e-21)
(0.00106964 0.00577136 1.73973e-18)
(0.000326788 -0.00173015 -4.54744e-19)
(0.000628234 -0.00167685 8.58889e-19)
(0.00062174 -0.00209258 1.65033e-19)
(-0.0457948 0.0199568 -7.88724e-18)
(-0.052934 0.0181024 4.99701e-19)
(-7.99378e-05 -5.32675e-05 2.53021e-20)
(-8.13044e-05 -7.24109e-05 -1.33328e-20)
(-7.6197e-05 -6.02676e-05 7.52994e-21)
(0.00162562 -0.000700077 7.89511e-20)
(0.00145219 -0.000734262 1.4832e-18)
(0.00156505 -0.000875634 -1.81511e-19)
(-0.00870142 -0.0205418 2.67958e-18)
(0.000155784 0.000116004 -3.10018e-19)
(0.000150444 0.000107739 -9.52566e-20)
(0.000157238 0.000118748 6.10893e-19)
(0.0233123 0.022489 -6.97679e-18)
(0.0198679 0.021969 -8.36422e-18)
(-0.000140817 -2.71418e-05 1.18303e-20)
(-0.000142739 -2.2753e-05 2.70589e-20)
(-0.000146057 -1.91852e-05 -7.9817e-21)
(-3.51826e-05 -1.61115e-07 -2.63511e-19)
(-3.81039e-05 -1.90082e-06 -5.63011e-20)
(-3.9787e-05 -2.12995e-06 -3.30692e-19)
(-0.00426068 -0.00096761 -9.12063e-19)
(-0.00335993 -0.00094842 7.78518e-19)
(0.000175713 4.22515e-06 -1.4952e-19)
(0.000173723 7.1736e-06 9.498e-20)
(-0.00571263 0.0213948 3.00293e-18)
(-0.00383256 0.0229027 -5.69239e-19)
(-0.00640148 0.0240786 -2.7791e-19)
(-0.019028 -0.0677342 -1.95811e-18)
(-0.0148145 -0.0772108 -4.03251e-18)
(-0.00909409 -0.0677915 -7.05061e-19)
(0.00106516 0.0404437 -3.22467e-18)
(0.0442364 -0.0676337 6.21077e-18)
(0.0543205 -0.0855214 -4.39893e-18)
(-0.000555638 0.000185646 -9.89342e-21)
(-0.000658628 -1.57565e-06 -3.75443e-19)
(-0.000700611 0.000251755 -6.88043e-20)
(0.00192285 0.00284876 2.76524e-18)
(0.00169495 0.00279969 -1.63082e-18)
(0.00182953 0.00260924 6.24238e-18)
(-0.233367 0.211164 6.46548e-18)
(-0.197984 0.168936 7.68197e-18)
(0.00056035 4.51333e-05 1.2286e-18)
(0.000586324 5.28326e-05 -1.38907e-18)
(0.000547486 6.00275e-05 1.70388e-18)
(-0.00115875 -0.00052425 4.15398e-19)
(-0.000868288 -0.000795227 5.08276e-20)
(0.0453631 -0.071029 7.6899e-20)
(0.0490875 -0.0945489 -1.67061e-18)
(0.0566061 -0.0532209 4.10499e-18)
(-3.80604e-05 -0.00176262 -2.93272e-19)
(9.53209e-05 -0.00139525 -5.72808e-19)
(3.53101e-05 6.351e-05 1.86507e-19)
(2.56864e-05 7.6118e-05 -2.50128e-19)
(-0.00129113 0.00167311 1.71055e-19)
(-0.000972391 0.00113422 -1.93228e-19)
(-0.156477 -0.189306 2.35877e-18)
(-0.189821 -0.161669 -1.50994e-18)
(-0.174134 -0.186597 -7.9128e-19)
(0.000122723 -2.8546e-06 -3.1772e-19)
(0.000137077 -5.04488e-06 -4.24293e-20)
(0.000117422 -2.67244e-06 -1.80922e-19)
(0.000241074 -3.22696e-05 -1.016e-20)
(0.000233329 -3.2632e-05 -3.80294e-19)
(0.000232753 -4.88393e-05 -3.15473e-19)
(0.0080575 -0.0485563 -2.20111e-18)
(0.00322225 -0.0452619 3.0312e-19)
(0.00828648 -0.042754 3.42402e-19)
(0.000154421 0.000110808 1.3237e-19)
(0.000160912 0.000123744 1.12101e-19)
(-0.0113337 0.136002 -1.89624e-18)
(-0.0548095 0.15743 4.34905e-18)
(-0.0177791 0.143271 -4.86381e-18)
(0.0013894 -0.000247038 1.06176e-18)
(0.0012543 -0.00023892 2.27195e-18)
(0.00133751 -0.000130789 1.98294e-18)
(-0.0161447 -0.0115064 6.17842e-19)
(-0.0171506 -0.009897 1.33206e-19)
(-0.0178106 -0.011212 3.69362e-18)
(-7.81391e-05 -0.000119883 1.60803e-20)
(-7.41248e-05 -0.000124724 7.72852e-21)
(-6.91519e-05 -0.000125236 2.1094e-20)
(0.00308777 -0.0228356 3.60787e-18)
(-0.00177458 -0.021797 2.27968e-19)
(0.00029228 -0.0225734 1.90298e-18)
(0.000434627 -0.000450776 5.87028e-20)
(0.000373878 -0.000459378 2.80424e-19)
(0.0131151 -0.0705047 -4.81777e-19)
(0.0210354 -0.105899 1.12463e-18)
(0.00815036 -0.125446 3.31216e-18)
(-9.74975e-05 -9.30562e-05 -1.13211e-20)
(-9.32409e-05 -8.55206e-05 -1.48284e-20)
(-0.000100199 -8.66513e-05 1.78e-20)
(-0.000133428 -5.88552e-05 1.16487e-19)
(-0.000142764 -3.34205e-05 -3.45538e-20)
(-0.000133383 -3.20658e-05 1.6551e-20)
(0.0340162 0.0663912 6.40085e-19)
(0.0283307 0.0831801 -1.20593e-18)
(0.0231304 0.077416 -2.14656e-19)
(0.0422061 -0.000419123 2.46955e-18)
(0.0375977 -0.00417592 -9.08839e-19)
(0.0349217 0.00196663 -3.70031e-19)
(-0.0877883 -0.251227 -8.64501e-19)
(-0.0882168 -0.241216 -1.05808e-19)
(0.000103987 2.89655e-05 -6.93483e-19)
(0.000102026 2.50435e-05 -1.71357e-20)
(0.000104651 3.01321e-05 -8.30984e-20)
(-0.0145418 -0.0119063 -2.35267e-18)
(-0.0149926 -0.0132709 -5.59578e-20)
(0.00143248 -0.000345557 -2.6771e-18)
(0.00153532 -0.000237842 -1.98157e-18)
(0.000312399 0.000121275 -1.06958e-18)
(0.000299064 0.000137177 -1.34648e-18)
(-0.000939332 -0.0392941 6.86046e-19)
(-0.00264121 -0.0420779 6.08044e-19)
(9.587e-05 -0.0403311 -2.57902e-18)
(-0.0222088 0.0129678 9.18104e-19)
(-0.0238282 0.0148986 -3.09044e-18)
(-0.0249913 0.0118839 3.46414e-19)
(-0.0131602 -0.015499 3.62931e-18)
(-0.0155492 -0.0148678 1.9689e-18)
(-0.0163844 -0.0144798 -8.54922e-19)
(-4.44873e-05 -6.32779e-06 4.20006e-20)
(-4.84271e-05 -5.80082e-06 -2.59673e-19)
(-2.82169e-05 -2.86761e-06 -7.25324e-20)
(0.00227344 0.00128224 -2.41579e-18)
(0.00231781 0.00150156 -3.88298e-19)
(0.00249409 0.00132658 8.99592e-19)
(-5.74853e-05 -1.74345e-06 -9.09676e-21)
(-3.87378e-05 -6.14584e-07 -5.81685e-20)
(0.0804107 -0.16961 -8.11408e-19)
(0.0689253 -0.174275 -2.81747e-19)
(0.0705881 -0.155195 9.47501e-18)
(-0.000101582 -9.42639e-05 -1.79543e-20)
(-9.33844e-05 -9.97777e-05 5.07165e-21)
(0.0129218 -0.000101086 -9.9874e-19)
(0.0114892 8.68996e-05 -2.92283e-18)
(0.126519 0.0968229 -4.71258e-19)
(0.0863017 0.137909 -1.56197e-18)
(0.0545119 0.180471 6.76494e-20)
(1.58794e-05 -1.74251e-05 1.68264e-20)
(1.42472e-05 -4.29399e-06 4.76665e-20)
(-0.000451168 0.000274353 2.89872e-19)
(-0.00355799 0.00138288 1.97304e-18)
(-0.00392464 0.00178669 1.38042e-18)
(-0.00339937 0.00193582 1.15999e-17)
(0.00704683 0.0287336 9.07926e-19)
(0.00531481 0.0247919 -3.01456e-19)
(0.0100386 0.0245099 -3.25254e-19)
(0.0117853 0.12981 2.6042e-18)
(-0.00464002 0.136347 -7.21374e-18)
(-0.233216 0.149492 -1.65096e-19)
(-0.220805 0.105029 1.99549e-19)
(-0.00012827 -8.38664e-05 1.83264e-19)
(-0.000137128 -9.75186e-05 4.49141e-21)
(0.000236786 -1.39811e-05 2.48037e-19)
(0.00024312 -1.91013e-05 9.90043e-20)
(0.0649905 0.0366456 8.32409e-19)
(0.0786508 0.0409136 3.9488e-19)
(-0.0537078 -0.094341 3.61943e-18)
(-0.037533 -0.0992839 -1.15786e-18)
(-0.0472644 -0.0802738 -1.44029e-18)
(0.000100263 -0.000333435 -5.93013e-21)
(8.50828e-05 -0.000289426 1.31735e-20)
(0.00014309 -0.000329697 2.67802e-21)
(0.0130431 -0.0507998 -1.33548e-18)
(0.00769989 -0.0545898 -2.56324e-18)
(-0.000100082 -1.18895e-05 -3.7157e-21)
(-9.31423e-05 -8.15804e-06 5.51148e-20)
(-0.0160545 -0.0154767 1.72903e-20)
(-0.0183685 -0.0143043 6.76387e-19)
(-0.0172746 -0.0148028 1.80725e-18)
(-0.000865757 0.00595427 7.97105e-19)
(-0.0015464 0.0059708 1.96769e-18)
(0.0154563 0.0365708 -1.96898e-18)
(0.0133348 0.0926854 2.91543e-18)
(0.00191677 0.0793141 5.6018e-19)
(0.000147461 -2.46901e-05 -2.8444e-19)
(7.5764e-05 2.07219e-05 -8.09804e-19)
(0.000140291 6.88818e-05 -6.48934e-19)
(0.00024046 -0.00141112 1.1596e-19)
(0.000249386 -0.00114618 -2.96987e-19)
(2.40537e-05 -0.00125698 -1.65542e-19)
(0.00709111 0.00784119 -1.70913e-19)
(0.00584174 0.0106664 4.10847e-20)
(0.00487613 0.00741338 6.80054e-19)
(-0.0666428 -0.0771958 3.53863e-19)
(-0.0530371 -0.111029 1.03348e-19)
(0.000282047 0.000217039 2.22997e-20)
(0.000286566 0.000215702 6.5126e-20)
(0.000281248 0.000232484 4.68778e-19)
(0.000169708 -6.88578e-05 2.33292e-21)
(-0.0014691 0.00244018 -9.46408e-19)
(-0.00164365 0.00218293 1.5047e-18)
(-0.00178335 0.00253861 -2.37394e-19)
(0.0394829 -0.121399 -2.62805e-19)
(0.0591433 -0.118959 3.25373e-18)
(0.0470741 -0.0996761 4.45345e-18)
(-0.029613 -0.0666496 8.46941e-18)
(-0.022943 -0.0580193 4.13258e-18)
(-0.00575293 -0.0231644 -3.7145e-18)
(-0.00220656 -0.024145 -1.44742e-18)
(0.126104 -0.0443632 -1.19399e-17)
(0.104707 -0.0235177 3.65821e-19)
(0.124525 -0.0357351 -1.70853e-17)
(0.000104232 5.74446e-05 -1.79262e-20)
(0.000101066 5.59455e-05 2.6408e-19)
(0.000105589 4.81589e-05 1.44038e-18)
(-0.000122253 -7.58957e-05 -5.80281e-20)
(0.00597481 0.00039985 -1.61974e-19)
(0.00622141 -0.000585483 -7.5166e-19)
(0.00525616 -0.000473608 -4.40901e-19)
(-0.0180914 0.349745 4.11748e-19)
(-0.0320798 0.334503 8.82408e-18)
(-0.0332037 0.353425 1.61796e-18)
(-0.00023977 0.000230926 -5.71878e-20)
(-0.000191576 0.000216697 7.37848e-20)
(-0.000191768 0.000281802 4.05852e-21)
(-0.0547751 0.0387639 2.6482e-18)
(-0.0558679 0.0469762 -1.63032e-18)
(-0.061049 0.041835 1.19536e-18)
(0.000571453 1.1021e-05 9.33148e-19)
(0.000528231 3.21495e-05 -5.30752e-19)
(0.000281603 0.000202773 4.33107e-19)
(0.000276638 0.000218741 1.40964e-19)
(0.00171409 0.000889312 2.39177e-18)
(0.00177388 0.000760328 1.56639e-18)
(-0.00204225 -0.0374397 3.2394e-19)
(0.00101631 -0.036564 5.45428e-19)
(-0.000244604 0.018969 1.64248e-19)
(-0.00143295 0.0139269 4.68334e-19)
(-0.00507126 0.0160967 -4.20309e-19)
(0.00925048 0.00732603 1.342e-19)
(0.00701679 0.00526543 2.81532e-19)
(0.000628488 4.37136e-05 -2.87852e-18)
(-0.0352434 0.24509 -2.49066e-20)
(-0.0493345 0.214827 -5.81332e-19)
(-0.0621441 0.246298 -4.71372e-18)
(0.00260203 0.00579399 -3.09051e-18)
(0.00201758 0.0056446 1.96448e-18)
(-0.00132031 -0.00678048 1.93479e-19)
(-0.000884896 -0.00576384 5.13629e-20)
(0.000121515 -6.94473e-05 8.6008e-20)
(0.000116445 -8.23849e-05 -3.47597e-19)
(0.00267185 0.0253442 8.76952e-19)
(0.00212602 0.00797526 1.02007e-20)
(0.0193794 0.00133893 9.45989e-19)
(0.0226539 0.00552486 1.01641e-18)
(0.0172392 0.00666893 6.74548e-19)
(-0.0203798 -0.00832732 3.02637e-19)
(-0.0219867 -0.00800811 2.25977e-18)
(-0.0228409 -0.00701842 -3.88907e-18)
(0.0170449 0.110887 5.57758e-19)
(0.0210071 0.117713 1.93008e-18)
(0.000105228 -0.000371111 1.604e-20)
(5.99392e-05 -0.000312144 -1.4906e-20)
(-9.66531e-05 -9.46198e-05 -6.66101e-21)
(-8.77971e-05 -0.000109444 -1.14035e-20)
(-9.39335e-05 -9.39005e-05 1.02885e-20)
(-7.79058e-05 -5.37351e-06 4.8279e-20)
(-8.71775e-05 -6.98361e-06 1.08852e-20)
(-9.84996e-05 -1.19461e-05 -1.29206e-20)
(-0.00120995 0.002362 6.62487e-19)
(-0.00129942 0.00263485 5.01033e-20)
(-0.00791047 0.367788 1.60328e-18)
(0.00972461 0.310039 4.18142e-18)
(-0.0472466 -0.238032 -3.93428e-18)
(-0.0298865 -0.284633 -4.33425e-19)
(-0.0271279 -0.292344 4.01089e-18)
(6.26511e-05 4.35177e-05 1.44583e-19)
(6.08622e-05 5.12943e-05 -1.05297e-19)
(5.75049e-05 3.96055e-05 3.67199e-19)
(7.33242e-05 5.68803e-05 -3.93974e-20)
(7.9379e-05 5.01201e-05 -6.52269e-19)
(7.52341e-05 6.1134e-05 -2.68009e-19)
(-0.0148768 0.270934 -8.30805e-18)
(0.00123437 0.212015 2.24684e-18)
(-0.00292424 0.0171069 -1.77713e-19)
(0.00337194 0.041594 1.57643e-18)
(0.00349232 0.0384498 -3.6129e-20)
(-0.0195711 0.0456256 1.03038e-19)
(-0.0237069 0.0424432 4.26994e-18)
(0.000393361 0.000944366 -6.28113e-20)
(0.000233214 0.00100155 1.87752e-19)
(0.00020253 0.000142694 1.06904e-18)
(0.00020575 0.00012822 7.60858e-20)
(0.00111709 0.00310603 -1.78717e-18)
(0.0013344 0.00318228 1.8043e-18)
(0.00109168 0.00337453 -2.38084e-18)
(-0.00519456 0.00035538 1.90269e-19)
(-0.0091546 -0.00080788 6.06609e-19)
(-0.0534555 0.0354611 1.42289e-18)
(-0.0515189 0.0289123 4.62669e-18)
(-0.00304621 0.00107071 1.38069e-20)
(-0.00267831 0.00106187 1.04416e-19)
(-0.00284873 0.000605352 3.41203e-19)
(0.245835 -0.0967723 4.89718e-19)
(0.244835 -0.104618 -2.25106e-18)
(0.000122248 -7.4451e-05 -2.18042e-19)
(0.000125986 -6.00184e-05 -2.31065e-19)
(0.000123797 -6.56582e-05 2.8124e-19)
(-0.0147321 -0.0161273 1.25783e-18)
(-0.0133619 -0.0166236 -1.24683e-18)
(0.00103791 0.00135128 2.30727e-18)
(0.000962112 0.00141173 1.94901e-18)
(0.000977406 -0.000505985 1.55209e-18)
(0.00103509 -0.000608406 1.7531e-18)
(-0.0173477 -0.0109729 -2.96405e-18)
(-0.02041 -0.00981923 1.24286e-19)
(-0.0186388 -0.0109041 4.12715e-19)
(0.000388688 -0.00015372 -2.72906e-19)
(0.000390742 -0.000172044 -1.2153e-19)
(0.000401599 -0.000151456 -5.96732e-20)
(0.0397583 0.0131297 8.85849e-19)
(0.0521364 0.0105409 -1.51649e-19)
(0.00276746 -0.0275008 -3.68648e-18)
(0.00355944 -0.0288661 2.98099e-18)
(0.00385749 -0.0291692 -2.44278e-18)
(6.75128e-05 4.35583e-05 -2.11464e-19)
(6.30513e-05 3.79915e-05 -2.215e-19)
(-0.000393369 0.00292193 -3.83779e-18)
(-0.000597156 0.00286181 2.27447e-18)
(-0.000554427 0.0030856 -1.62942e-18)
(0.00209448 0.000683898 -1.74072e-18)
(0.00216973 0.000879808 -4.90588e-19)
(0.000409925 0.000808855 -5.50568e-20)
(0.000531365 0.000839564 2.07744e-19)
(-0.209641 0.389656 8.33543e-18)
(-0.187132 0.368626 1.85236e-17)
(-0.00337602 0.00136267 -7.19947e-19)
(-0.00348206 0.000739079 -2.34589e-19)
(0.000283695 0.000269277 -5.93109e-19)
(0.000282322 0.000259408 -8.79062e-19)
(0.00028077 0.000267904 -1.49625e-18)
(-0.0176457 -0.0501294 -2.26778e-20)