/*--------------------------------*- C++ -*----------------------------------*\
| =========                 |                                                 |
| \\      /  F ield         | OpenFOAM: The Open Source CFD Toolbox           |
|  \\    /   O peration     | Version:  v2012                                 |
|   \\  /    A nd           | Website:  www.openfoam.com                      |
|    \\/     M anipulation  |                                                 |
\*---------------------------------------------------------------------------*/
FoamFile
{
    version     2.0;
    format      ascii;
    class       volScalarField;
    location    "600";
    object      ddt0(omega);
}
// * * * * * * * * * * * * * * * * * * * * * * * * * * * * * * * * * * * * * //

dimensions      [0 0 -2 0 0 0 0];


internalField   nonuniform List<scalar> 
13851
(
2.46322e-06
-0.0604867
-3.33609e-05
-8.78288e-06
0.000473083
0.00671612
8.74385e-06
0.00017693
-2.94978e-07
0.000232929
0.00929964
0.190716
-0.000390182
0.580775
1.25747e-05
0.000141635
3.10019e-05
2.33768e-05
-0.000268745
1.39651e-07
-7.10455e-06
5.94431e-05
2.28996e-05
7.77239e-07
2.53387e-05
0.000203392
3.56357e-05
1.81119
1.78716e-06
2.13371e-05
-0.000535746
3.43399e-05
5.03735e-05
0.179364
5.66448e-08
-0.00026225
-0.0167989
0.00268929
-0.000182756
0.185247
3.57197e-06
3.52943e-06
-0.525863
0.0394334
0.022636
-0.181761
0.0354827
-0.0662705
3.90065e-05
0.0041027
0.000802891
0.00141386
0.0818028
1.34671e-05
3.51784e-06
3.76782e-06
9.5557e-06
0.303238
2.11508e-05
8.382e-06
-0.000324984
0.602655
-0.00465088
0.000772032
0.0487708
1.59854e-05
-0.0660446
0.0330877
0.000168542
3.66207e-05
-0.0262002
-0.0676794
-0.121097
1.38534e-05
9.15278e-06
-3.96834e-06
0.000130519
-0.0106363
0.000234237
-0.0253507
8.84616e-06
0.0050813
8.35542e-06
-0.0863721
-0.00338109
0.157161
-0.00106425
0.000377718
4.50535e-05
5.11098e-06
-5.98995e-05
-0.00408042
0.0245344
7.49669e-05
4.36581e-05
1.77635e-05
0.000601439
0.0147647
0.00739094
1.95054e-05
1.18552
0.000361333
1.03037e-05
3.4838e-05
9.9855e-06
-0.00399845
0.000414998
2.62348e-06
-0.00783157
0.0122038
1.02069e-05
1.28083e-05
5.98588e-05
-2.11676e-06
8.2009e-06
0.0447825
0.0170399
2.37613e-06
-1.52723e-05
-7.63534e-06
-0.569379
3.25892e-05
0.0111576
-0.0323392
-0.0562261
0.00010443
-0.0675725
0.00030057
-8.71746e-06
0.00135737
3.94816e-06
4.58623e-06
-0.0217817
8.46903e-06
0.0221216
4.60534e-06
2.30882e-06
-0.0920291
0.104221
-0.0955677
1.07443
8.37971e-06
-4.45207e-05
3.08169e-06
1.1227e-05
0.0279121
0.00745482
0.00155973
8.92462e-06
0.0104921
0.000733463
-3.89851e-07
0.782388
1.01439e-05
1.57493e-05
1.08764e-05
1.13047e-06
1.58947e-05
0.00137362
0.000738852
4.34217e-06
8.28512e-05
0.229696
4.59287e-06
-9.09608e-06
3.80993e-06
0.0113461
0.000170534
-7.94057e-06
0.264645
-0.0149397
2.50489e-06
1.2252e-06
-0.0506871
4.71959e-06
-0.0680368
0.000260798
-6.93608e-06
-0.0218722
2.91527e-06
4.2461e-05
-0.0500053
9.02554e-06
-5.35153e-05
3.80969e-06
2.80267e-05
3.86853e-05
1.16894e-05
0.00057733
0.00370255
0.0420473
0.128067
-6.22556e-05
0.0001538
0.379291
1.38264e-05
-3.26155e-05
-0.11188
-3.41532e-06
-4.25593e-06
1.44351e-05
-0.721619
-3.40734e-05
8.37932e-06
0.00164933
8.56504e-06
-0.157574
3.57946e-05
0.00965071
3.37733e-06
0.0316493
8.87194e-06
-0.0865234
2.41448e-06
4.71156e-06
-0.00431026
-0.00215037
-0.194373
1.1979e-05
0.0115327
3.7478e-05
9.23036e-06
0.0197898
0.00129634
0.0475863
2.59802e-05
9.78689e-05
1.10886e-05
0.0544484
2.39922e-06
0.000197331
0.00349711
2.52992e-06
-7.08037e-05
0.000648389
-0.000481733
-0.133886
0.153852
3.76675e-06
8.54702e-06
-0.00575481
-0.0541276
3.96046e-06
0.00159764
1.0653e-05
0.0448461
0.000350014
0.00351677
1.09346e-05
2.61057e-05
0.000189688
-0.0281093
7.16307e-06
1.08058e-05
0.000449754
-0.125148
0.00292037
-0.072751
-0.048539
1.03265e-05
4.13665e-06
6.10044e-05
0.309361
1.68252e-06
0.0589148
1.32131e-05
7.02194e-06
6.73147e-05
0.0181726
-0.0210197
0.00015364
1.53093e-05
0.139544
0.000207695
0.000109581
4.60292e-06
-0.000988444
0.0194862
0.0420599
0.0035386
-1.56191e-06
3.04334e-06
8.93032e-06
0.000419193
0.248951
-0.0939788
-1.3075e-06
1.2801e-05
0.0889108
-0.0112579
0.000959368
1.96565e-05
8.35656e-06
0.000188456
0.00181822
0.0591479
4.08215e-06
0.153257
4.06002e-06
0.0458296
7.71157e-05
2.73595e-05
0.0417432
7.75526e-06
-0.00401638
0.0262461
-5.10035e-07
0.000358217
7.8145e-05
1.96008e-05
0.230901
9.27799e-07
7.27617e-06
0.014865
3.73551e-06
2.87421e-05
1.46457e-05
0.0303281
0.000733817
1.1449e-05
0.000410642
1.15987e-05
-0.240051
0.00103424
2.45276e-05
-2.14392e-06
0.000698123
9.07255e-05
1.63399e-05
1.29027e-05
7.90331e-06
7.13719e-06
0.0230502
-0.516799
0.406106
0.000126901
0.0286425
-0.00236303
1.29151e-05
0.000150016
0.00131381
-0.00729418
-0.00122038
0.00123333
0.0139226
0.000175614
-0.16683
0.0356247
1.32461e-05
0.00709382
0.00799795
0.0290865
1.65364e-05
-0.00152055
0.0762535
1.14176e-06
-0.179265
-2.50738e-06
1.21503e-05
9.06499e-06
2.69348e-06
2.21455e-06
0.0366738
-0.0793796
7.67236e-06
0.000291779
4.29344e-06
0.163722
0.000293372
-0.0416073
0.218635
7.68264e-06
-0.0041175
7.53964e-05
-0.214872
3.9868e-06
2.35616e-06
0.000659967
0.838092
9.8891e-06
0.204623
-0.00924607
0.00135553
0.0686242
-0.102531
-0.0897596
-4.0384e-07
4.29095e-06
1.53495e-05
0.00013329
0.000436303
0.562416
0.000178137
0.0412801
0.0297911
4.20485e-06
1.06667e-05
0.472893
-0.013425
-0.00953421
0.0134335
0.00118736
8.19475e-05
2.45782e-05
0.0201119
1.96973e-06
0.000109548
-3.56083e-05
8.15736e-06
1.00498e-05
-5.56901e-07
3.90332e-06
0.000815988
-0.000371345
-0.326995
7.19299e-05
0.000439746
0.000346456
-0.0143288
2.78039e-05
-0.0421368
2.4853e-05
-0.00412713
2.28965e-06
-4.44883e-07
3.48218e-05
0.0347293
0.0908172
0.00136307
0.000403165
-0.542537
0.107626
-0.00412246
-8.24207e-06
0.000667605
4.33901e-06
-0.00712515
1.26792e-05
-0.361369
-0.00352984
0.000154566
0.0020077
-2.69817e-05
0.0466844
-0.008326
-0.689745
2.76363e-06
9.7553e-05
0.000255387
-0.000636194
2.36367e-06
7.47428e-06
0.000735483
0.00154518
-0.000114425
-0.130631
2.8208e-05
-2.88542e-06
-0.104224
-2.08392e-05
2.75152e-06
-0.0953441
4.41193e-06
-5.05419e-06
1.83977e-06
6.92149e-05
1.62026e-05
3.17557e-06
-2.55683e-05
0.0171518
8.10531e-06
0.00020967
5.3439e-06
-6.81724e-06
0.0318325
-5.89505e-06
3.13194e-06
-1.98707e-06
1.45875e-09
0.0163025
7.10893e-06
-0.00302469
9.16812e-06
2.1828e-05
0.440243
-0.00238244
8.40029e-06
-0.00097631
3.55208e-05
-0.0922625
-0.126244
-2.05238e-06
-0.0599873
3.96691e-06
0.000372897
8.16992e-06
-0.0384809
4.15286e-06
-0.330446
0.00353605
3.51157e-06
-0.00136382
0.00950226
0.000230023
0.0163845
-6.95274e-06
0.186477
1.73372e-06
4.2862e-06
3.91231e-06
8.52492e-06
-0.00221312
0.000636387
0.00111709
-0.0146505
-0.00222061
4.2374e-06
0.040842
0.0701818
4.69855e-05
8.44677e-05
-0.159321
-0.0348599
0.0216688
1.40444e-05
-0.0411952
-0.149094
-0.473327
-1.00819e-05
-0.00168367
-0.150341
0.0435234
-0.0789145
-0.0980108
-0.211252
1.66594e-05
-0.179223
-0.0888472
2.53909e-06
0.0253262
0.000687938
-0.0100099
1.05317e-05
9.568e-06
1.36709e-06
5.72815e-06
0.000626676
-0.000212171
0.0696686
-0.130007
3.35466e-06
-0.147211
-0.0030305
-0.00746477
0.0323623
0.000191058
2.22354e-06
-2.71056e-07
0.052347
0.0369617
1.7074e-05
0.000919571
0.000979514
3.73579e-06
0.00114306
-0.0680588
-0.00463061
0.00120441
0.00136397
-0.0853558
3.8639e-06
8.3306e-06
-0.0223195
0.0272934
0.000980761
0.000185047
0.000368163
2.96796e-06
7.22128e-06
-0.2784
3.40305e-06
1.08045e-05
2.85509e-06
6.40265e-06
-0.0825416
0.000697531
0.000127219
3.3243e-06
0.273597
-0.10889
3.92287e-06
1.12841e-05
9.09858e-06
1.53582e-05
1.00722
-0.0576555
-0.0965373
-0.445352
0.250869
0.000157933
-0.0140044
0.00162005
0.000225484
0.000162859
2.1341e-06
8.9991e-05
0.000173065
0.0199865
-0.0970878
0.000875411
8.5181e-05
1.0131e-06
0.000103914
2.07368e-06
0.0382445
0.000674611
9.45162e-06
1.2368e-05
2.48555e-06
6.64663e-05
0.00140437
8.41146e-06
4.47911e-06
0.000305305
6.92731e-06
0.000498203
0.0257215
0.00113675
9.34893e-05
0.000862422
1.31947e-06
-0.0142227
0.000431183
-0.381379
8.35355e-06
1.55474e-05
-0.0193936
3.36975e-05
0.0365484
0.0375335
-0.166516
-0.123799
1.94471e-06
-0.0269351
-7.31738e-06
5.70962e-06
4.19621e-06
6.15621e-06
0.000620862
9.23262e-05
9.49736e-06
2.92937e-06
-0.0732581
0.00456034
-0.0660419
1.28857e-06
5.88003e-06
1.92739e-05
0.00122432
0.166362
0.000588878
7.01791e-05
-6.76172e-06
2.29865e-05
7.98817e-07
-3.99987e-07
0.0040585
0.0663812
7.28838e-06
2.96562e-06
8.70105e-06
3.01674e-07
-0.205645
0.161685
0.000137063
0.025434
-0.00748922
4.56503e-06
0.00110363
-0.29767
0.00017847
0.168829
8.4677e-06
6.17463e-05
0.000496224
9.5078e-05
-0.0888667
8.55423e-06
-0.088416
1.40182e-05
0.000142171
0.00914351
-7.31172e-06
2.74994e-05
0.00471282
4.11821e-06
3.6578e-05
0.0765304
0.084222
0.000635125
0.0955146
-0.0883164
2.57605e-06
1.58308e-06
0.0862937
0.00087526
-0.000515601
0.0379135
1.26746e-06
2.03226e-05
2.52634e-06
0.207296
-0.0932811
5.68916e-06
-8.19484e-07
0.0045431
3.49891e-05
1.83653e-05
-0.129677
-0.0804677
-0.00180397
3.78403e-06
7.21944e-06
-0.011216
0.540021
0.00027526
-7.3585e-06
-0.0288765
8.43821e-06
-0.00646297
-0.000439652
9.59962e-05
2.08205e-05
-0.181243
-8.06087e-06
8.54159e-05
-0.016699
1.36996e-05
-3.31558e-05
1.68863e-05
1.53988e-06
-0.0983457
0.000119323
0.00140216
0.000156709
0.0222742
8.78912e-07
0.232252
-7.44175e-06
2.88775e-05
6.6328e-06
4.86566e-06
6.94025e-06
0.0238805
2.0914e-06
2.34368e-06
-0.0360251
8.27641e-06
-0.0082039
1.67111e-05
-4.21909e-05
0.000760125
-0.396167
0.00146993
2.45552e-06
0.0691731
0.0394117
6.97528e-06
0.0261545
0.000134777
1.74241e-06
0.0062484
-0.342804
0.0307767
1.91296e-05
3.01852e-06
2.7049e-06
0.0174357
-0.000206585
0.00120366
2.22826e-06
0.00587581
1.40777e-05
-1.22995e-05
0.000802457
0.0147211
0.000584895
0.251214
7.06546e-06
0.000403967
0.000910235
0.0276994
8.00091e-06
-0.13293
0.0261224
8.42896e-06
-0.0857023
-0.00688475
0.0814876
0.17082
0.00911612
-0.0628171
0.000351477
1.57151e-06
0.000164875
0.375824
0.0720445
-3.51155e-06
2.54544e-05
0.000687824
0.0397114
2.97898e-06
0.295838
1.45299e-06
7.47883e-06
-0.09907
-0.0105344
-0.0948314
5.83936e-06
1.20812e-05
0.379901
0.00422598
0.00102826
5.59854e-05
0.23787
0.00127628
0.0419281
0.000414185
0.000275971
7.59309e-06
8.2847e-06
-0.0652024
0.000414884
-0.0251084
0.00191901
0.000175542
-0.0415778
0.136932
-0.00558203
8.03781e-06
0.000137245
3.85119e-06
0.000130272
2.60974e-05
0.224867
1.41103e-05
0.0320789
2.62752e-06
0.000701007
5.49365e-06
-0.00189539
0.000165772
0.000133363
0.0157989
0.000345678
7.40543e-05
1.61941e-06
0.000685942
-0.114373
-0.00554166
1.08823e-05
-0.0146733
2.67357e-06
0.169147
-0.0783885
6.75239e-06
0.0408203
1.2084
-0.00566085
-0.0413907
0.00134546
-1.86307e-06
-0.00397385
1.42557e-05
-0.00510647
0.0117936
1.68383e-06
1.83461e-05
0.0328558
-0.0783446
0.0144423
6.74704e-06
4.07372e-06
0.151127
0.00926742
0.00128705
1.70814e-05
2.51672e-05
-0.0532237
-0.110189
0.000961081
2.407e-06
0.000262695
4.47895e-06
-2.04294e-05
-0.0238077
2.39625e-05
-0.147107
-0.00899738
7.47606e-06
-5.23837e-05
-2.27373e-06
1.55129e-05
-0.0224112
0.0621014
9.40589e-05
-0.150787
6.12018e-06
9.11652e-05
-1.81753e-06
4.52401e-06
8.25323e-06
7.46798e-06
-0.00780492
8.12769e-06
0.000470301
7.89867e-06
2.22758e-05
-0.0112469
0.453265
-7.32087e-06
-0.0503844
0.00164668
-0.124021
0.000141914
0.000133025
-0.0362791
6.7955e-05
-0.000408268
0.236378
0.146344
-0.0678957
0.000175506
0.0107671
7.30498e-06
0.000302199
0.00037382
-0.0498172
9.80565e-07
0.00145183
1.70193e-06
1.19886e-06
0.413297
-3.74667e-05
0.00399737
2.28951e-05
3.88604e-06
0.000843624
3.96934e-06
1.22227e-05
-2.87321e-05
8.28205e-06
0.00027356
1.63146e-06
0.00447362
-0.0952247
0.00127817
0.0309505
8.30247e-06
-7.5207e-06
0.000176696
5.45026e-06
4.69014e-06
0.000854736
1.04735e-05
-1.34918e-07
-3.36848e-07
2.90327e-05
-0.00788236
0.00750474
-0.00223328
0.00980538
-0.00294092
7.62837e-06
-0.220265
8.02349e-05
2.13604e-06
0.0689162
0.00400772
-0.057607
9.1287e-06
0.0365254
-0.0490049
0.127243
2.9415e-06
0.0222197
0.000115066
3.17341e-05
-3.02742e-05
1.16358e-06
-0.212535
-0.0134591
0.0189956
-5.41142e-06
8.91679e-06
-0.0607203
6.79589e-06
-0.278138
-0.0713572
0.32443
-0.0236826
-0.0322105
2.51217e-05
7.13354e-06
-0.00309273
-0.000345508
3.41656e-05
-0.000660755
0.000180108
1.04189e-05
1.43281e-05
-0.00899732
-1.11016e-06
-0.0451647
-0.148068
-0.0304328
0.00412601
1.62291e-05
4.46323e-06
-2.83234e-07
0.071771
0.0439879
2.74837e-06
-1.84447e-05
-4.72162e-06
0.000818504
2.97026e-06
-3.92093e-06
9.25558e-06
0.000130538
-0.0587146
-0.000327004
-5.55009e-05
6.50665e-06
0.000399864
0.0756985
1.33333e-05
-0.0222366
0.0685622
0.000892857
3.59847e-06
0.000341196
9.50588e-06
2.5357e-05
1.62379e-07
-0.0119464
0.000880708
0.12681
3.55235e-05
-0.00628758
9.45357e-06
1.09874e-05
6.44473e-06
-0.259534
0.20518
3.9543e-06
0.000130974
-0.000652949
0.000283082
-4.50039e-06
0.0939444
0.000398221
-0.0925478
8.03592e-05
0.0144566
0.000829454
0.000846684
0.0271055
0.00018619
-0.0142822
-0.63891
1.27497e-05
-0.0155229
2.97165e-06
1.0575e-05
6.66862e-05
6.35022e-06
0.0017531
8.97749e-05
7.31074e-05
-0.0436922
-0.000132472
-0.0241439
1.17091e-05
2.72105e-05
3.18179e-06
9.42883e-06
0.000199268
0.0110258
0.0744836
-0.0247031
8.81459e-06
7.06802e-05
7.46578e-05
-0.0439759
0.0184927
-0.00295375
3.93306e-06
9.77163e-06
-0.0666728
0.00022866
-0.264516
0.0278425
-0.00440374
3.42111e-06
-0.163605
0.000232889
0.00023249
8.47282e-05
0.0307309
0.033304
0.00124307
-0.00395591
1.1947e-05
-0.000184732
7.40157e-06
-0.228682
-0.000438582
-0.00192262
-0.0124822
6.30721e-05
0.000930214
1.1887e-05
0.0274608
-0.00242929
1.60844e-05
0.336219
0.0103164
0.146381
-0.0343185
1.00684e-05
7.14225e-06
-0.0166196
0.0629941
-0.0765079
8.51803e-06
8.69241e-06
7.67255e-06
-0.00716969
0.000209765
7.94125e-06
-0.0957697
-0.000349557
-0.152698
-0.177048
-0.036883
9.64472e-06
-0.0399034
3.98318e-05
3.314e-06
0.000989194
0.32801
8.84632e-06
1.48615e-06
0.891374
0.0235869
9.31802e-05
8.1504e-06
-0.0182519
1.72866e-05
0.0497022
9.24313e-06
-0.0634544
6.77163e-06
0.000477366
0.0231655
0.0186514
1.22727e-05
-0.200011
-0.00177139
-0.0907203
-0.0660815
-0.132654
0.00194995
7.87515e-06
0.0925565
-7.0773e-06
1.14768e-05
3.38236e-06
-0.0519806
4.72407e-06
-0.00829496
1.32403e-06
9.0395e-05
-0.0589452
0.000139035
-0.225877
1.06082e-05
0.000444352
4.30048e-06
0.000150431
-0.122752
0.699382
4.7513e-06
0.00062424
0.025459
5.15348e-06
1.18987e-06
0.00451436
0.000155096
0.000164166
0.00115996
-0.0913292
-0.042296
-0.153006
-0.0440849
0.00663298
-0.000587553
0.0557567
0.352519
0.000590461
7.81692e-06
0.00108438
7.60467e-06
9.03556e-06
-0.0279442
0.00722003
2.79323e-05
0.175907
0.004768
-0.0374432
-0.00231705
-0.000940991
5.03671e-06
-0.00575491
0.0061457
1.16616e-05
1.32009e-05
0.02746
-0.000987556
0.128737
0.0173017
0.000100545
0.0393973
0.0346545
0.00014823
1.05738e-05
3.53687e-06
0.00566858
6.38162e-06
0.000697622
7.92591e-06
9.5295e-06
3.02247e-05
0.0570481
0.0256471
0.142617
-1.82506e-06
-0.148283
9.45947e-06
-2.73951e-05
9.08215e-06
1.68745e-05
0.302279
3.13225e-05
0.00408137
-0.0106985
-0.09365
0.000991556
1.30981e-05
0.00031251
8.28738e-06
0.000842714
-1.12574e-05
1.06402e-05
-1.08067e-06
1.27286e-06
0.00114076
1.06782e-05
0.00017635
-2.02946e-05
0.000181402
-0.00451207
-0.0231728
2.14337e-06
0.000306923
1.17009e-05
-0.00798141
-0.000476887
0.0289287
-0.0681522
0.000150529
3.09181e-05
1.38341e-05
0.00506077
3.92384e-06
0.0419095
1.27097e-05
-6.59221e-06
-3.39034e-05
0.0124334
6.61933e-05
5.60008e-06
0.000123124
2.18072e-05
0.000669647
0.0110495
0.0901361
0.000170504
7.47683e-06
0.00376152
7.97941e-06
-1.46642e-06
0.0041095
0.032523
1.66861e-05
-2.41684e-05
0.00646091
-0.126221
8.81502e-06
9.43246e-06
0.0271229
1.13239e-05
0.00172883
0.00208376
0.014057
6.49279e-06
-0.00112549
8.32297e-06
0.047777
0.00104505
0.000228312
0.00113916
0.0521133
1.46373e-05
0.00409698
-0.245306
5.68108e-07
0.0508313
0.000893557
1.10847e-05
0.395343
7.05702e-06
-3.86194e-06
1.61594e-06
0.000245538
0.00371906
0.00130184
1.01072e-05
1.41032e-05
0.000135044
0.0124314
-0.0148298
0.0224313
0.00280621
1.07269e-05
0.000851168
0.00113094
-0.0438785
0.000294698
0.0338074
6.4035e-06
5.36746e-05
9.8676e-07
-0.0315756
4.97097e-06
8.16638e-06
-0.0493445
-0.0263923
0.000122775
0.000623578
3.25713e-06
2.18372e-05
0.000653978
0.000170024
-0.0393889
0.000565879
6.9432e-05
0.000918659
0.000755329
-0.17748
-0.0544418
0.0269493
1.43475e-06
1.18137e-06
0.00087687
-0.174412
-0.0892447
-0.00502361
-4.1175e-06
-0.345637
0.0201097
-7.62773e-06
6.86769e-05
7.32447e-06
0.000277752
0.000736613
0.00877275
0.130723
-0.0110798
1.45659e-05
0.106778
-0.0257695
1.01186e-05
0.00322264
0.0455209
-0.0912644
2.9702e-05
0.000741451
2.35511e-06
7.84298e-06
7.19362e-05
1.45316e-05
0.0369674
0.0465541
-0.388463
0.0569828
1.75327e-05
8.27996e-05
0.000641443
2.02467e-05
8.65776e-06
9.06992e-07
0.0186189
6.12421e-06
0.0168328
6.66997e-05
-0.00283139
0.00126236
-0.000629888
-0.00870053
-0.0940305
0.000263195
4.26326e-06
0.000123286
-0.120907
-0.0610328
3.87394e-05
6.63179e-06
1.39573e-06
0.00018073
0.000101479
0.00102088
-0.208805
1.72219e-05
1.49089e-06
0.00102804
0.00485569
-0.0251803
-0.0126344
8.08241e-06
0.000665576
9.78715e-07
0.0456578
3.58211e-06
0.0445132
9.93329e-05
1.6669e-05
0.000247165
1.57207e-05
-0.00134437
0.000103997
0.000289025
0.319996
5.81596e-05
4.3591e-05
9.96045e-05
5.32592e-06
-0.10776
0.0975754
3.51472e-07
4.13464e-06
0.046461
2.31756e-06
0.00304084
1.53322e-05
-0.00017725
0.000234484
-0.0469463
-4.02305e-05
-6.44121e-06
8.67601e-06
0.000743892
0.0294909
7.72395e-06
-0.0331507
-0.209825
0.0249446
-0.451847
3.79131e-05
-0.0283549
5.97174e-05
-0.0116359
9.58208e-06
-0.00908081
0.00534222
-0.0836559
-0.11132
-0.201758
-4.60968e-05
-0.00326402
1.56156e-06
-0.0286262
0.0519255
0.0223719
0.294077
2.2017e-05
-0.21804
-0.0692679
5.98673e-05
2.25726e-05
8.212e-06
0.00593844
2.37284e-05
0.000692209
-1.98453e-05
5.40153e-06
4.70088e-06
7.60823e-06
0.0258193
-0.00322177
0.000107494
-0.0614091
-0.0137045
-7.33953e-05
8.77905e-06
8.90637e-07
-0.000773954
0.0397823
0.00221318
1.19062e-05
-2.44764e-05
0.685629
-4.45741e-05
0.000253707
0.435191
9.31252e-05
0.0342882
0.000138472
4.83561e-05
9.11032e-06
-1.75912e-05
0.000630794
-0.0192249
-0.0197394
0.0142486
0.000131131
0.556794
-2.76659e-05
3.10824e-05
2.38798e-05
-0.445043
-0.300767
0.0489826
-0.00565057
2.53014e-05
7.40173e-06
6.19979e-06
1.23953e-05
7.05032e-07
-0.255593
8.24713e-05
-0.169628
7.40937e-05
0.0276357
-0.492559
0.0441675
0.00155296
6.20144e-05
-0.0559126
0.000200617
0.744394
0.0136261
4.16943e-06
-0.0689832
6.55654e-05
-0.472145
-0.0418128
0.000120543
-0.219198
0.0645369
-1.65081e-05
-0.00123171
1.61967e-05
-0.350586
-0.0600139
2.67355e-05
8.92296e-06
-0.0121416
-0.680465
0.00137964
-0.103844
0.00109524
-0.0007872
1.68681e-06
-0.00228611
0.0284851
0.000129515
0.000134345
0.0178506
0.0514355
1.34005e-06
8.60392e-06
2.94978e-05
0.024878
0.0163679
9.5627e-06
-0.011742
1.09537e-05
3.46161e-06
8.18413e-06
-0.0141997
-0.0328538
0.00174738
-0.0995109
2.44329e-05
9.95183e-06
5.78774e-06
0.1195
8.53585e-06
-0.161131
-2.5094e-06
-0.00894587
9.56845e-06
7.31048e-06
0.00133201
-0.158505
0.0588347
0.000183415
-0.0307456
4.24777e-06
6.77287e-06
8.42647e-06
0.000188139
0.000535624
0.000569554
-0.000265476
0.00720686
3.64155e-05
0.00115959
-0.00298955
-0.159092
-6.36512e-06
-0.000619859
0.0149564
5.31728e-05
0.264523
0.000687576
0.695732
6.62062e-06
0.00140044
-3.45633e-06
0.814094
-0.0315159
0.00215018
0.0336229
3.48657e-05
0.000428902
1.83199e-05
-0.00756025
3.88296e-06
6.89444e-06
-0.146045
-0.000110102
0.0143893
-0.133553
0.000629169
7.66235e-05
1.67911e-06
0.0384838
0.000294939
6.80513e-05
0.000576169
-1.67673e-05
0.000307204
7.46496e-06
0.0528138
3.32277e-06
0.0445806
-0.0143439
0.000407795
0.00375081
0.000812016
0.0437202
2.98973e-06
0.0313299
-0.127793
3.46759e-06
8.06425e-06
1.05837e-05
9.91727e-06
0.000180108
5.73442e-06
-0.129571
0.000878658
-0.0102985
-0.0621679
1.48774e-06
7.8085e-06
2.39773e-07
-0.0710961
6.80157e-06
4.01733e-06
0.00104184
3.54269e-05
0.127196
0.0284561
0.000879372
2.21752e-06
0.000161533
9.50219e-06
1.06356e-05
0.00175324
4.18408e-06
3.66573e-05
0.0741534
0.0486728
-0.0829534
9.26724e-06
-0.102817
-0.0411422
1.00357e-05
0.00727341
0.0180843
9.63489e-06
2.84098e-05
1.1677e-05
-0.0536543
-0.193924
-0.235627
3.75016e-06
2.35889e-05
2.3143e-05
8.69765e-06
0.0012073
5.47899e-06
-0.0341641
-0.0320596
0.0245335
2.9853e-06
3.36888e-05
3.04178e-05
-0.431523
3.32732e-06
-0.118155
0.040223
0.0139193
-0.00532761
0.666126
-0.212502
1.55603e-05
-0.173812
-0.0761869
1.49991e-05
1.85587e-06
5.14209e-06
0.0327473
-0.0911861
-0.116297
2.35154e-05
0.0376248
6.72811e-06
0.00169324
4.45525e-06
1.09844e-05
1.40421e-05
3.26786e-06
-0.287081
1.61266e-05
0.0910994
0.194579
-0.109059
0.000263876
0.000456533
-0.175945
0.0264673
5.85807e-07
-0.423073
8.27197e-07
2.48471e-06
9.09365e-06
0.00115054
-2.59868e-06
0.221114
0.000295642
0.0894172
-0.000210707
0.0831197
0.0301204
0.00498118
3.41949e-06
0.000710644
0.000342925
-0.27428
-5.17271e-06
5.06673e-06
7.38257e-06
0.0569865
3.89005e-06
-0.0126552
0.162584
0.000248662
8.87244e-05
-7.28338e-06
0.19645
8.62616e-06
0.0442621
1.64946e-06
-0.172928
0.000152226
7.25795e-06
0.162045
-0.0900975
2.02876e-06
0.000675244
1.56845e-05
-0.103
0.00273027
0.0305919
0.0729053
7.52966e-06
0.000865606
0.0574989
5.15778e-05
0.00119543
1.19091e-05
0.000824741
0.000144441
0.137267
-0.020121
6.95924e-06
-0.0005471
1.20636e-05
0.000212808
0.0209908
0.11829
-5.53548e-05
-0.00081501
-0.0020066
8.94526e-06
-0.0117977
0.000888716
0.000129399
1.5424e-05
0.0291457
1.93698e-06
0.139578
0.0273098
-0.000699559
1.20702e-05
1.93601e-05
-0.00183355
0.000189641
0.04068
1.06789e-05
2.17174e-05
0.000493727
0.0329481
6.96952e-05
0.0306597
-0.0650263
0.210875
7.15678e-06
0.0316876
0.121534
-0.412886
1.03329e-05
4.21349e-05
2.90491e-06
0.0372908
0.000953807
0.211284
0.15151
7.08659e-06
1.77604e-06
9.95209e-06
-0.384902
-0.0442676
1.0598
-0.0129134
6.26027e-06
0.106118
0.0193514
0.00109055
-0.0928215
0.00106171
-0.000211971
-0.143466
2.63208e-05
6.40387e-05
-0.0674336
0.0419522
9.37067e-05
0.249786
-3.17764e-07
7.88003e-06
-0.18021
-0.0179242
-0.00358422
-0.0308114
8.82025e-05
7.53161e-06
9.53777e-07
0.0105011
-0.0929819
8.23967e-06
0.000408462
0.221284
8.51916e-06
6.668e-06
0.0137619
-0.155485
1.08377e-05
1.0614e-05
1.41643e-05
1.99573e-05
-0.0178338
9.76231e-06
-4.65725e-06
1.37474e-05
0.181185
0.0080756
-0.380973
0.158482
6.64917e-06
1.13139e-05
0.000818017
0.0233293
-1.43103e-05
-0.00345212
1.19936e-05
0.000141205
-7.69847e-06
-7.72197e-07
0.000210863
-1.25049e-06
-0.229155
-6.16219e-06
-2.78984e-06
1.169e-05
0.0811373
-0.139499
-0.00567462
8.25074e-06
-1.40004e-05
0.0257619
0.0990099
3.43352e-05
-4.44423e-06
1.06528e-05
-0.0016582
7.01548e-06
-1.94624e-07
6.8985e-05
8.06022e-06
0.00461352
0.00508121
6.85514e-06
1.86675e-05
4.03966e-06
6.19422e-06
0.208405
-0.133006
0.0006675
-0.0828613
-0.0262692
8.21872e-06
1.22205e-05
7.00795e-06
3.21989e-06
7.33619e-06
-1.76664e-05
0.00222948
0.0230134
6.73134e-06
0.0010956
-0.00637201
0.0391265
3.85433e-06
6.96685e-06
2.89495e-05
-0.144291
3.0845e-06
-0.111941
-0.0152747
-0.00165681
-8.31512e-05
-0.0172404
6.04546e-06
0.00497721
1.94123e-06
5.89558e-06
4.4794e-06
-1.17662e-06
0.00132484
0.0317857
0.0147348
0.000185301
-0.0660696
0.0033484
-0.0360756
0.00014288
-0.012442
-0.0590763
0.00105045
-0.104181
0.011004
0.00106916
0.144781
9.72877e-06
1.79124e-05
-0.0399836
4.6928e-06
2.17812e-05
-0.179088
-0.00963305
0.0967717
-0.0993799
1.84867e-06
0.000616627
7.01275e-06
-0.0300172
4.21928e-06
-0.0126348
-0.0488534
0.024272
-0.334818
7.44491e-06
1.87141e-06
0.000750308
0.25065
0.0078663
-0.000690359
-0.078337
4.91906e-06
-0.114726
0.00975203
0.027563
2.46456e-05
7.10255e-06
4.20842e-06
3.20592e-05
1.9605e-06
3.04282e-06
1.99766e-05
0.00291049
0.000735183
0.00224749
-0.0631775
0.111006
-0.000333062
9.94608e-06
1.01124e-05
1.06923e-05
2.34872e-06
9.5186e-06
-0.191074
-0.0524945
-0.07606
0.0422163
2.88528e-05
0.00256678
0.00130677
0.0321512
0.0169208
5.97134e-06
-3.02863e-06
-0.124449
7.77466e-06
1.9978e-06
-0.0302927
0.00632179
-0.164611
7.45433e-06
6.72223e-06
-2.3764e-05
0.000200019
0.0416696
9.12682e-07
4.67419e-05
-0.0546435
8.01506e-06
0.0496496
0.000241169
-0.20331
7.84578e-06
-0.0104323
0.384474
0.000110064
0.00764544
0.00118153
0.0057409
3.50771e-06
1.11022e-05
1.92829e-06
7.98762e-05
-0.0863946
2.55636e-05
0.164747
4.87926e-06
1.00061e-06
1.11576e-05
0.0450251
0.000284051
0.00105029
-0.103503
1.67961e-06
0.000332516
0.595968
0.000719725
1.46561e-05
2.33053e-05
7.5921e-06
-0.00100572
-4.2156e-06
-5.05629e-06
0.0491182
0.0200055
0.0393634
-0.389229
-0.0203754
0.140451
0.000676302
0.0399782
0.00122934
3.70101e-06
1.95375e-05
2.32226e-06
7.62347e-06
0.01209
0.0162568
8.07427e-06
0.117498
0.0499723
0.000120214
-2.88819e-06
7.16181e-06
0.00499931
0.0157396
0.00594959
0.0890429
0.00919155
2.38804e-06
0.00282799
0.00070903
-0.0132769
-0.053528
8.99626e-06
0.0007284
0.437262
6.11543e-05
0.433112
8.31604e-06
-0.00991842
0.290744
0.0321353
0.000729323
0.000112785
-0.0174584
0.000867017
0.03147
0.0435327
0.00282468
0.00102799
0.0391995
6.82223e-06
1.33604e-05
0.000320512
-0.0112171
-0.011001
0.00526443
1.85484e-06
-0.000226211
0.001928
2.31477e-06
0.0110872
9.59584e-06
0.00108985
-0.00778164
1.02638e-05
-0.196831
-0.125538
0.0439698
0.0190277
0.184603
-0.174243
-1.41512e-06
0.0141902
7.60314e-06
2.62409e-07
0.000215924
2.46718e-05
0.0169249
3.16343e-05
-7.11459e-06
2.29491e-05
-2.21165e-06
-0.0206394
1.0373e-05
0.00115126
-0.00859739
3.8062e-06
0.00687879
0.000841583
-4.76207e-07
-0.00983095
-0.00092129
1.27217e-05
-0.0148347
8.53871e-06
0.0497881
-0.0437613
6.51661e-06
0.000860287
1.02953e-05
0.0175297
0.0113624
0.000748183
-0.0361031
5.96629e-05
1.03174e-05
-0.198754
3.7855e-05
1.84688e-06
-0.164602
0.000310062
5.83788e-06
-1.98616e-06
0.0010709
1.10237e-05
-0.00880575
0.014744
-0.00794515
0.606548
0.000561524
0.000197671
-2.36128e-06
0.0188263
-0.0276065
-0.251735
1.00792e-05
2.5789e-06
0.0005721
7.42943e-05
-0.030108
2.31894e-06
0.165681
-3.32899e-06
0.300564
3.91619e-07
-0.0390043
-0.00234999
0.00104494
0.00816051
0.00667235
0.0173477
0.00813875
2.53629e-06
-0.058179
-0.0737765
-0.0140032
4.8941e-06
-0.00184656
-0.0194133
-0.132654
0.000883961
0.0332265
-0.655988
0.0211085
0.000391698
0.00418705
3.15841e-06
0.000342053
0.000353067
9.8057e-06
0.000762197
0.173821
-0.0700695
-0.120048
-0.0161033
8.56907e-06
2.11432e-06
-8.11831e-05
9.43074e-06
-0.563886
1.17784e-06
1.61664e-06
0.0238947
-0.00268577
-0.000193271
0.00091663
-1.74987e-06
-0.000450705
-0.0393454
0.0159182
-0.0156646
6.20801e-05
0.0160975
-4.21506e-06
1.94438e-06
2.67922e-05
-0.00239499
0.00205286
0.00458224
-0.00214526
1.23338e-05
5.16718e-07
9.38559e-06
9.9826e-06
7.13795e-05
0.777919
-0.118425
7.77234e-05
0.0109251
-0.011779
-0.0559563
-0.32455
7.81886e-06
9.59552e-05
0.0930835
8.74257e-06
-0.0010014
6.04935e-05
2.94238e-05
0.623527
0.016742
8.16324e-07
0.000304687
9.41504e-05
0.000360548
-0.525643
-0.138867
0.0261565
3.07542e-06
0.000786228
0.0387313
0.000788295
0.000652545
-0.0370401
0.0152627
0.00276845
0.0459626
1.48362e-06
0.0461278
-1.43269e-06
-8.48012e-07
8.05165e-06
5.59831e-05
0.00654492
-0.013896
0.0657389
-0.133413
0.000157844
2.02824e-06
6.66354e-06
6.76436e-06
-1.63901e-05
0.000281016
0.0286494
0.0498428
0.000782118
-0.0389169
7.03238e-06
0.000179733
4.21895e-06
0.0398581
0.0010379
2.7127e-06
-0.00160222
0.000848992
0.0120321
-0.000188524
0.000880452
-0.350091
1.70968e-05
-0.408342
0.00294809
-0.0749689
0.061153
-2.81732e-06
0.000208281
6.76682e-06
0.0251152
-0.0407965
0.000207049
0.31323
0.000928107
0.026784
1.76582e-05
-0.0372742
-0.000488184
8.03986e-06
0.000814188
0.000899589
3.13342e-05
0.000273789
0.000114602
0.000136572
0.758684
0.0014025
1.88275e-05
8.02636e-05
0.000163748
2.92114e-05
4.49067e-06
-0.0243738
0.000936525
0.128759
0.331805
7.46117e-06
0.0144697
1.09125e-05
5.6721e-05
1.14781e-05
0.0139271
0.000213001
0.0341817
-0.611144
8.28976e-05
-0.000383338
0.00110047
-0.014541
0.000587266
-0.032994
-3.53489e-05
0.000402194
-3.03736e-05
0.0234457
0.274698
-3.72904e-05
2.92848e-05
0.00014952
6.09679e-05
1.32754e-05
0.000458345
0.000304888
6.2892e-06
-9.51314e-06
-0.00593668
0.964249
-0.000388788
0.000231996
3.85225e-06
0.0373247
0.000138084
0.000709891
0.67257
0.000363558
0.0782542
1.80571e-06
4.4544e-06
4.41705e-05
-1.64543e-05
6.36739e-06
0.01757
0.0953855
0.0857626
2.78669e-05
0.0120375
-0.00282898
5.88256e-05
0.0364003
0.000714267
-0.00189065
-0.0585546
-0.000990674
2.62331e-05
0.000311828
4.70152e-05
-4.09399e-05
-0.125495
0.00148033
-0.0138679
7.84154e-06
0.00181959
-0.0849996
0.0276205
9.43551e-06
0.000233248
-4.54507e-06
8.69434e-05
0.00492662
7.99691e-05
8.57051e-05
5.52561e-06
7.15358e-06
-0.402367
-0.00409754
2.67201e-06
-0.0389992
0.000702072
2.12045e-06
0.000684457
0.0227175
0.000656618
0.000919596
8.1335e-06
6.26065e-05
0.000630352
2.73141e-05
2.85525e-06
-0.147724
8.81629e-05
0.0173909
0.000821336
5.9794e-05
-0.000517184
-0.0010718
0.0016941
6.55954e-06
-0.148643
0.000134137
5.99305e-05
-0.103316
0.000231079
6.00992e-06
-0.000315671
3.50678e-05
-4.05411e-05
2.29593e-06
0.635209
7.79256e-06
0.000422015
0.127305
0.000535635
-3.14236e-06
0.0585441
0.000124866
-0.514723
-0.00543572
-0.000764085
-0.000298063
0.0275996
5.0026e-06
0.000631229
5.69995e-05
8.22517e-06
-0.0619577
-0.475121
5.37576e-05
0.508718
0.000822054
0.000649474
0.000366495
6.29466e-05
-0.0865232
-0.0711293
-0.269201
-0.0315986
0.272977
-0.00181466
1.79803e-06
0.00134339
3.00902e-06
-0.0772623
0.0261815
0.0391994
-0.136492
0.0449503
7.1515e-06
0.35683
1.05504e-05
1.6016e-05
6.63128e-06
0.178532
-0.00226216
0.00376608
4.49078e-06
0.571401
6.71519e-05
-0.00589365
6.8649e-06
0.00117545
0.000127247
0.000742625
0.000192393
0.0011469
1.70508e-05
0.000203053
-0.00663146
6.46424e-06
1.09635
-0.00219845
-0.000443341
1.15762e-05
0.00010225
1.04967e-05
7.02276e-07
0.000639074
0.0058655
-0.0930732
0.00365404