/*--------------------------------*- C++ -*----------------------------------*\
| =========                 |                                                 |
| \\      /  F ield         | OpenFOAM: The Open Source CFD Toolbox           |
|  \\    /   O peration     | Version:  v2012                                 |
|   \\  /    A nd           | Website:  www.openfoam.com                      |
|    \\/     M anipulation  |                                                 |
\*---------------------------------------------------------------------------*/
FoamFile
{
    version     2.0;
    format      ascii;
    class       volScalarField;
    location    "950";
    object      p;
}
// * * * * * * * * * * * * * * * * * * * * * * * * * * * * * * * * * * * * * //

dimensions      [0 2 -2 0 0 0 0];


internalField   nonuniform List<scalar> 
13917
(
-0.0730957
0.00708004
-0.0663133
-0.0246049
0.00374839
0.00688842
-0.0355514
0.0130253
-0.0477219
-0.0791545
0.0119261
-0.0166351
-0.0144428
0.00580413
0.00211197
-0.0724369
0.000397381
0.00884063
-0.0564035
-0.0739596
-0.0057772
-0.00204985
-0.0429885
-0.00189388
-0.0202374
-0.00372887
0.00317821
-0.0793291
0.00219733
0.000123444
-0.0782051
-0.0587331
-0.0201031
-0.0721363
0.000851332
0.0162408
-0.00816971
-0.00355664
-0.0365628
-0.0108006
0.000704677
0.00108069
-0.0433137
-0.0598078
-0.0590378
-0.00939416
-0.00637936
-0.12686
0.024943
0.000810417
-0.0163778
-0.0259173
-0.063941
-0.00930553
-0.0102394
-0.0285313
-0.0761593
-0.0418456
0.0010281
-0.00562742
-0.0369088
0.00180313
0.00014018
-0.020283
-0.0756805
-0.00047911
0.00417197
0.0178712
0.00991488
-0.067053
-0.0734733
-0.0709432
-0.0242158
0.00101939
-0.00607706
-0.0159469
0.00177734
0.000981248
-0.0161135
-0.0202531
-0.00458392
0.0002914
-0.0239793
-0.0695945
-0.00983221
0.00166315
-0.0582303
-0.0095528
-0.0105714
0.000359551
0.000535577
-0.0443232
0.0221379
0.000632485
-0.00800239
0.00305987
-0.0164719
-0.000440656
-0.00974746
-0.00428913
0.000351999
0.00032125
-0.00465016
-0.000777245
0.0018221
-0.0630976
-0.0908795
0.00249995
0.0010899
0.00315007
-0.0155257
-0.0727753
0.00115511
-0.130216
-0.0773174
-0.014033
-0.0557781
0.000609002
-0.0646177
-0.023473
0.00029887
0.000919982
0.0049119
-0.04339
-0.0627651
-0.068974
-0.0209845
-0.00557667
-0.000419598
-0.0451001
-0.0513244
0.0151569
-0.0643996
-0.0134865
-0.0594612
-0.00229808
-0.0168578
-0.0597053
-0.00246373
-0.00345554
-0.00271656
0.000953753
-0.0645674
-0.0044441
-0.0224874
0.00108012
-0.0731082
-0.0186202
-0.121588
-0.00944282
-0.0110598
0.000353494
-0.0222614
-0.0237443
-0.0178159
0.000512622
-0.00075138
-0.0652156
0.00053837
0.000585739
-0.00784426
-0.0937648
-0.0034483
-0.00201249
-0.0965996
-0.00484767
-0.0643842
-0.113817
3.99588e-05
-0.00185951
-0.00141749
-0.0677921
-0.0480776
-0.0265876
-0.0186983
0.00051229
-0.0252561
-0.0232541
-0.0510745
-0.0028473
-0.0416975
-0.00162038
-0.0158794
-0.0426825
-0.0647434
0.0171094
-0.0156055
-0.0401662
0.000159606
0.00227702
-0.0170484
-0.0583884
-0.0432927
-0.0745002
0.000599565
-0.063522
-0.0216711
-0.0646004
0.000807666
0.000209809
-0.00754825
-0.0682313
-0.0596239
-0.00650635
0.0202615
0.00159892
-0.0112831
0.000949574
-0.0256332
-0.00412762
-0.00102592
0.00528314
0.00552477
-0.125923
-0.0595026
-0.00325233
-0.0885064
-0.00566978
0.000672882
0.000680083
-0.127433
-0.0426267
-0.0393348
-0.015192
8.10101e-05
-0.00157639
-0.0642846
0.00066034
0.000646046
0.000512259
0.000700789
0.000708011
-0.0711821
-0.121052
-0.00337857
6.97905e-05
-0.0302465
-0.0687067
0.00056712
-0.0150273
0.013496
-0.0648405
-0.0442335
-0.0876483
-0.0128565
-0.0046217
-0.106412
-0.031433
0.000593527
-0.0507315
-0.00696929
-0.120092
-0.0236704
-0.0175757
-0.0206237
-0.00278933
0.000743906
-0.0209539
0.00362019
0.000971533
-0.0637134
0.0175441
0.000922406
0.000614969
0.000682258
0.000608309
-0.0239018
-0.0145696
-0.0311781
0.000963831
-0.059687
-0.0926802
-0.0135473
0.002744
0.00151548
0.000710789
-0.00407573
-0.0641417
0.000712874
-0.0676177
0.000926052
-0.0897386
0.000460716
0.000901565
-0.00255769
-0.0036757
-0.0561636
-0.00249694
-0.00650906
-0.0181677
0.0111742
0.0010101
0.0180107
-0.0590081
0.000577012
-0.0367866
0.00372002
-0.0125253
0.00379965
-0.0169017
0.000745312
-0.00245648
-0.0178575
0.00093224
-0.0177751
-0.0170793
-0.0147038
-0.0633582
-0.0679122
-0.000296745
0.000457041
-0.0131317
0.0104701
-0.0657043
-0.0870277
-0.029622
2.92022e-05
0.0108764
0.00247944
-0.0705578
0.0104102
-0.0662379
-0.0141792
0.00177036
0.00438617
-0.000521198
0.00851559
-0.0574918
0.000483068
-0.0691437
-0.00966698
-0.0632083
0.000787432
-0.0701687
-0.00230557
-0.0192018
0.00128064
0.000574277
0.000552072
-0.0525819
-0.066247
-0.00881961
-0.000327893
-0.0727497
-0.0679691
-0.0542362
0.00967992
0.000692093
-0.0043734
-0.0645977
0.00932022
0.000689204
0.00422116
-0.0127239
-0.00429815
-0.0189311
-0.0410497
-0.0038318
-0.00512937
-0.0594099
-0.0743483
-0.000373384
-0.00927109
0.00421389
-0.0620265
0.000495993
-0.0736715
-0.0597477
-0.00565081
-0.0100288
0.00319016
0.000674135
0.0161999
0.00100511
-0.0414365
-0.00303055
0.0024599
-0.0135034
-0.073782
0.000810438
-0.0920792
-0.0445041
0.000976495
0.0191565
-0.00145163
0.00373586
0.000251475
-0.0767654
0.00232146
-0.0105045
0.00384358
-0.00493391
-0.00721288
-0.0820628
-0.069454
-0.0117711
-0.0562367
-0.00544606
-0.00533882
-0.0659615
-0.00982155
-0.0408244
-0.017779
-0.00416339
-0.00446815
-0.000420987
-0.0193584
-0.00298615
-0.00962579
-0.00012989
-0.00237992
-0.0306258
0.0215055
0.000734456
4.44306e-05
-0.0653266
0.00352284
-0.00364859
-0.0107376
-0.0236211
-0.0277911
-0.000581172
-0.0574316
-0.0692911
0.00089345
0.000713418
-0.00521908
-0.00450367
0.000739249
-0.00313826
0.000717572
0.000870513
-0.121855
-0.00553112
-0.0113429
-0.0599131
-0.0354092
-0.00101855
-0.0216963
-0.0843958
-0.00684303
-0.0617767
0.000764939
-0.0147533
0.000848266
0.000737955
-0.00811688
-0.000881934
-0.0141601
0.000908691
-0.0643229
-0.0144922
-0.0464625
0.000824343
-0.00416263
-0.0152485
-0.0499415
-0.0129306
-0.0196862
-0.00110517
-0.00416853
-0.00242367
-0.00166584
-0.00103114
-0.00785597
-0.0636004
-0.0371763
-0.00103874
0.0188566
-0.0644587
-0.0147949
-0.0350406
-0.0697795
-0.0956004
-0.0432136
-0.0701176
0.000441027
0.00216084
-0.00105933
5.17771e-05
0.000116749
-0.00679048
-0.0567585
0.000476344
-0.00959124
-0.0084854
-0.0437203
-0.00817323
-0.0634515
-0.0484594
0.00147142
0.00310328
0.00738488
-0.00878306
-0.00933157
0.00522194
-0.0358292
-0.0189835
-0.0765304
-0.00994595
-0.00804017
-0.0225631
-0.00320541
-0.0629561
-0.00438989
0.000737462
-0.0314469
0.000759057
-0.00528146
-0.0153724
-0.0622898
-0.00208247
-0.00799114
-0.0297371
0.00156299
-0.0438826
0.0216166
-0.00921998
-0.0099623
-0.00793029
-0.0229849
-0.00195941
-3.93559e-05
0.000485549
7.68646e-05
-0.0044024
0.00218292
-0.0261916
0.000508081
-0.0476485
-0.0032271
-0.00269382
-0.0180259
-0.0810313
0.000269025
-0.0348581
0.000965974
-0.0460369
-0.0379302
-0.00165904
-0.0205341
-0.0022851
-0.0163848
0.00620808
-0.0645047
-0.123154
-0.0605162
-0.000182169
-0.00220681
0.00132741
-0.0148241
-0.0759573
0.000731627
-0.000883042
-0.0224425
-0.0684622
-0.00367766
-0.0426133
-0.0824277
-0.000922968
-0.0660841
-0.000435051
0.00122001
-0.0675815
0.000744034
-0.0664867
0.000178856
-0.0147759
-0.00216298
-0.0630744
0.00219325
0.000545598
-0.061002
-0.0341509
-0.010766
-0.0721551
-0.0654766
-0.093931
0.000244567
-0.0647526
0.000249083
-0.0236652
-0.0259234
0.00131377
0.000650153
0.000454667
-0.0354714
-0.0413435
0.00074349
-0.000405305
-0.0124497
-0.0729782
-0.00871563
-0.0585554
-0.00936807
0.000542189
0.000597859
-0.0140388
-0.0761938
-0.0801198
-0.0499923
-0.0269941
-0.0673613
-0.0681596
0.000309968
-0.0576334
-0.0134807
-0.0703667
-0.0144903
-0.0732819
-0.00433693
0.00194919
-0.0229763
-0.0131946
-0.0330116
-0.0815964
0.000431371
-0.0314253
0.000620214
0.000425551
-0.0751205
-0.00847403
0.000886703
-0.0416495
-0.0148678
0.00123986
0.000338502
-0.0756797
-0.00896117
0.00403006
0.000722464
0.000791366
-0.0611231
0.000237318
-0.0456946
0.000148638
-0.00260426
-0.032046
-0.0590112
-0.00913491
-0.0583073
-0.0664197
0.019176
-0.0198614
-0.000923437
0.00268238
-0.0797993
-0.0674895
-0.00585129
-0.00871428
0.0019341
0.00018542
-0.000927731
-0.000397309
-0.0368663
-0.0188948
-0.0782171
-0.0337504
0.0243562
0.0189183
0.000846806
-0.0224557
-0.0450046
-0.0682516
0.000728131
0.00222413
-2.86317e-05
-0.00274895
0.000297754
0.000503789
0.00153417
-0.00630853
-0.0658933
-0.0578371
-0.00117231
-0.0569146
0.000435659
-0.0878942
0.00093909
-0.000303713
-0.0628221
-0.0390671
-0.00619167
-0.0238906
0.000803496
3.96557e-05
-0.0276388
-0.0366564
-0.00301129
-0.0602603
-0.0176588
-0.00270747
-0.00493708
0.00196735
-0.0623294
-0.0293341
-0.000738627
0.000724334
-0.0645283
0.00516908
-0.0214331
-0.0613074
-0.00480401
-0.00233874
-0.000250318
-0.00735665
-0.0650127
-6.96641e-05
-0.0320038
-0.0270569
-0.0343918
-0.0709819
0.00216899
-0.0426759
-0.0570529
-0.00792099
-0.0198705
-0.000877963
-0.0359744
0.00332978
-0.0691801
-0.0113868
0.00164263
-0.0607915
0.000251914
-0.00220803
-0.00919675
0.00427636
-0.0255209
-0.0675789
0.000271787
-0.0666901
-0.074758
-0.00218566
-0.0155411
-0.0120367
-0.00634953
-0.0138788
-0.0230329
0.00289719
0.000448087
-0.0132349
-0.0447354
-0.000815226
-0.0684453
-0.0467824
-0.0433393
-0.0441517
-0.00408115
-0.0651294
-0.0135914
0.000444408
-0.0400771
-0.0127854
-0.055737
-0.00129207
-0.00115358
-0.000847377
-0.0674071
-0.0194551
0.00100424
-0.061782
-0.00301329
-0.000852323
-0.0299748
-0.00981466
0.00315431
-0.0250288
-0.00439348
-0.0643755
-0.0235065
0.00206844
-0.0686903
0.00128432
0.00290458
0.000463817
0.000231862
-0.0225795
-0.0102343
-0.00224458
-0.00123687
-0.000646041
0.000176521
-0.0307031
-0.00972041
-0.0438838
0.00077424
-0.0502518
0.00122509
-0.0821403
0.00267676
0.000535239
-0.0838633
-0.0191752
-0.0638301
-0.0413985
0.00182606
0.00166281
-8.0499e-05
-0.0155048
-0.0723384
-0.0343383
0.0211186
-0.0248644
-0.0137987
-0.0553193
5.44587e-05
0.00177342
-0.00178093
5.75546e-05
-0.110895
-0.0364249
0.00104586
-0.0545157
0.0108319
0.000540827
0.00010418
-0.001582
-0.000813205
-0.00864649
-0.0127396
-0.00201116
-0.0610834
0.000539362
-0.00198932
-0.0073962
-0.0707217
-0.0632482
0.0093741
-0.0638694
-0.0184889
-0.0707675
0.0109739
-0.00172136
0.00123668
-0.0180819
-0.0159899
-0.00778295
-0.0351748
-0.00773024
0.021273
-0.00880281
-0.0689631
-0.0195497
-0.056204
-0.00217177
0.000110106
-0.0102593
-0.0186851
0.00125754
-0.0297704
0.000824646
-0.0630177
-0.0368528
2.22239e-05
-0.000194782
-0.0185055
-0.000832462
0.000308033
-0.0814732
-0.00188425
-0.00669838
-0.00452322
-0.00101454
0.00108604
-0.00548965
-0.0670481
0.0024521
-0.00190953
-0.00534495
-0.059134
-0.00473092
-0.0519911
-0.000529717
-0.00555683
0.000846207
0.000140079
-0.0738936
7.1834e-05
-0.0247794
-0.0559474
-0.0729061
0.000825235
0.00990872
-0.0715856
0.0010365
0.000330425
-0.00196135
-0.0698348
-0.0179289
-0.0615068
-0.0177077
-0.0618077
0.0012131
0.036229
-0.000228049
0.000663959
-0.000928598
-0.0078869
0.000237656
-0.0645705
-0.00960889
-0.00371685
0.00941296
0.00100798
0.00126313
-0.0380866
-0.0113968
-0.0768925
-0.0119267
-0.068229
-0.017621
-0.033453
-0.0633139
-0.00710152
-0.0390148
-0.0158897
-0.0610736
0.000402656
-0.0253351
0.000828414
0.00117845
-0.00953953
0.000837698
0.000837771
0.00092129
-0.0157846
-0.024523
0.000445422
-0.00996753
-0.0563524
-0.106973
-0.0876665
-0.0552919
-0.00101661
-0.00104061
-0.00773951
-0.0683037
-0.00341398
-0.0582717
0.000743489
-0.00174313
-0.0121514
-0.0063256
0.000738441
0.000835427
-0.0103999
-0.0221684
-0.00388261
-0.0799888
0.01153
-0.00284077
-0.0720571
-0.016154
-0.000508837
0.00209987
-0.0766151
-0.00712747
0.00050513
-0.0064065
0.00058564
-0.00019746
-0.0674588
0.00126053
-0.0287436
-0.025335
0.0021469
-0.00114598
0.00093419
-0.0080728
0.0105093
-0.016719
-0.0685605
0.00363229
-0.00358797
0.000674203
-0.0187555
-0.00115566
-0.0634469
-0.0593548
-0.0184236
-0.0648078
-0.0826287
0.00889166
-0.0638187
0.000902765
-0.062158
0.000913602
-0.0125109
-0.0225189
-0.0417172
-0.0160361
0.0346371
0.00120219
-0.0659753
0.000755948
-0.0216812
0.000825622
-0.0080206
-0.0599899
-0.00729528
-0.0172925
0.021146
-0.0680747
0.000952606
-0.052589
-0.0675701
0.000135251
0.000715043
-0.00254387
-0.0920915
-0.0162368
0.000209614
-0.0353726
-0.0208622
-0.000141199
0.00279484
-0.00269815
-0.0179567
-0.00674418
0.00079814
0.00186742
-0.00164101
0.0031692
-0.0618932
-0.0244551
-0.0190235
0.00164674
-0.0748575
0.0012332
0.000615872
-0.00546314
-0.0295218
-0.0254068
0.000842422
-0.0806743
0.00175804
0.000173083
-0.0500976
-0.00425025
-0.00179395
-0.0479232
-0.0642403
-0.0675517
-0.0359333
-0.000185056
-0.0153548
-0.0691286
-0.00349445
-0.0393292
0.000729219
-0.0217273
-0.028515
-0.00681168
-0.0289979
0.00125145
-0.0234989
0.0235636
-0.00780418
-0.0848187
-0.0284388
-0.0134157
-0.0397287
0.000208289
-0.0689825
-0.0114921
-0.00642541
0.00260714
0.00175647
0.000705121
-0.000622631
-0.0164731
-0.0661889
-0.00339483
-0.0089877
-0.0419926
-0.0075871
-0.0122846
-0.00382121
-0.0685532
-5.00033e-06
-0.000141616
-0.0018775
0.00179409
0.00585045
-0.0637945
-0.0224264
-0.0175267
-0.00393352
0.00102205
-0.0086028
-0.0703328
-0.0617342
0.00268595
-0.0193344
-0.00478616
-0.0606453
-0.00849857
-0.00872322
-0.0762785
-9.45525e-05
-0.0333368
-0.103594
-0.0652633
-0.00907728
0.0108552
0.000823994
-0.00266121
-0.0125484
-0.0123337
-0.00244839
-0.0687011
0.000110564
-0.0313158
0.000100442
-0.0671845
-0.0911875
-0.0107545
-0.0378829
-0.0229039
-0.0175559
-0.0690064
-0.00152116
-0.0114933
-0.0133243
-0.0612267
-0.0485777
-0.0685782
-0.0138991
-0.0836159
-0.0106382
0.000816928
0.00845249
-0.0304289
0.000800223
-0.0053144
0.00159477
-0.0136344
-0.0108951
-0.00451668
-0.0029339
-0.0302043
-0.0505018
0.0381511
-0.00798817
0.000320199
0.00121805
-0.00819187
-0.00732184
0.000792654
-0.0665324
-0.064078
1.15547e-05
-0.0556753
0.000300998
0.0109627
-0.0590673
-0.0171616
-0.00377001
0.000828969
-0.0187955
-0.00729961
-0.00722238
-0.0658608
0.00026795
-0.033793
0.00213666
0.00057906
-0.0542447
-0.0929452
-0.0728971
-0.0248083
-0.00240154
-0.00375763
-0.00972111
-0.06953
-0.0632479
0.000154025
-0.00173302
-0.00663575
-0.0505654
-0.0401217
0.000122997
-0.0100663
-0.060166
0.000510143
-0.0071378
0.000423615
0.000129097
-0.024787
-0.0724626
-0.0308593
0.00187531
-0.106453
-0.0108472
-5.19673e-05
0.00241059
-0.00560073
-0.0115907
-0.0587891
-0.00443984
0.000550475
0.00274803
-0.0524663
-0.0113261
-0.0207353
0.000532746
-0.00744786
-0.000896266
-0.0139035
-0.0251863
-0.0105952
-0.0608306
-0.011643
-0.0296274
-0.0478957
-0.0101018
-9.34418e-05
-0.00744936
-0.0352791
-0.0681743
-0.0955263
-0.00642249
0.000584502
-0.0609114
-0.00390697
0.00266039
-0.0229393
-0.0105172
-0.0124802
-0.00407058
-0.0672479
-0.0253566
-0.00537728
-0.0182537
0.0408133
-0.0684159
-0.0675717
-7.20061e-05
-0.00328071
0.0138884
0.000502591
0.000870552
0.00533138
-0.00386994
-0.0151746
-0.0368568
-0.020713
-0.0663934
-0.0123012
0.000314575
-0.030581
0.000576693
-0.0686406
-0.0119818
-0.000904857
0.0241293
-0.059084
0.0435193
-0.0660452
-0.010945
-0.0382584
-0.00095936
-7.17861e-06
0.000893488
-0.0122098
-0.0126923
-0.0688862
-0.0168217
-0.0304767
0.00252759
0.000466541
-0.0213871
0.000745147
-0.000494201
-0.0608609
0.000719707
0.0227188
-0.0560134
-0.012427
-0.0509427
-0.0378148
-0.0379923
-0.0102581
0.00219518
-0.00231452
0.000182177
-0.00111324
0.00513278
0.00188213
-0.000545856
0.000643897
0.000864674
0.00532197
-0.00451742
-0.0877595
-0.0323474
0.000988868
-0.0140916
0.000303932
-0.0301368
0.00125306
-0.00439923
0.00278718
-0.00107345
0.000830311
-0.0118591
-0.00206351
-0.0844087
0.000137128
0.000702208
-0.0173476
0.000500616
0.000263936
-0.072397
-0.00594913
-0.000769273
0.00681148
-0.000583107
-0.0604812
-0.000847224
-0.0248915
0.00967904
0.00120407
0.000842926
-0.0849424
-0.016485
0.000419433
0.0336888
0.000301459
-0.0737151
-0.000473208
-0.00445825
-0.0158299
0.000842743
-0.0630739
0.000553848
0.000554734
-0.0572465
-0.0110322
-0.00087887
0.000807576
0.000850977
-0.0536126
-0.0210697
0.00196135
-0.00141018
0.0193196
0.00888394
-0.00156351
-0.00158601
-0.0158645
-0.0136787
-0.035806
-0.000313046
0.000906631
-0.0220116
-0.00932548
-0.0100588
-0.0140076
0.00431426
0.000332386
-0.0489856
-0.00210273
0.00811884
5.26614e-05
-0.0129346
-0.00346313
0.000736564
-0.0102211
0.000878739
-0.0434314
0.0428291
0.00158097
-0.0638002
-0.0905715
-0.0536865
-0.0647009
-0.00301308
-0.0140345
-0.00582179
-0.00758507
0.000851862
-0.0666056
0.000201233
-0.0662936
-0.00385382
-0.0330914
-0.0450744
-0.0128095
0.0252924
-8.44822e-05
-0.0539071
-0.00285994
-0.000106031
-0.0331378
-0.0701869
-0.0744773
-0.0141424
0.00737269
0.00956836
0.00043643
-0.0337215
-0.00222901
-0.0124289
-0.00512301
-0.00130669
-0.0631432
0.000835601
-0.0489794
-0.0052203
-0.00388252
-0.0120385
-0.00961173
7.92728e-05
-0.066426
2.90015e-05
-0.0177176
-0.024248
-0.000624832
-0.0326707
0.00240658
-0.0334364
-0.062669
-0.0142017
-0.00381136
-0.0244287
-0.000839165
-0.0224643
-0.000113563
9.40803e-05
-0.0372425
0.000490402
-0.000578079
-0.0430337
-0.0100447
-0.0480629
-0.0118056
-0.000620287
-0.00831372
0.0014842
-0.00465109
-0.00991272
-0.00942342
0.00503891
-0.000988812
-3.54032e-06
-0.0119561
0.0114505
-0.00863707
-0.0652018
-7.75514e-05
-0.019841
-0.0104809
0.00122159
-0.0670255
-0.00805859
0.000422195
-0.062876
-0.0538603
-0.0734485
0.00110002
-0.0674846
-0.0254573
-0.00586555
-0.0668727
-0.00574689
0.000109984
-0.0886351
-0.0029083
0.00332659
-0.0729441
-0.00162497
-0.0482857
-0.0214441
-0.0666524
-0.0172081
-0.0100982
-0.0122724
-0.0691162
-0.0177367
-0.0153956
0.00147784
-0.0264905
-4.52814e-05
0.00140639
-0.00631993
-0.015562
-0.0106466
-0.0072028
-0.0654963
0.019815
0.0188108
-0.0269957
0.000115873
-0.0446871
-0.0191266
-0.00460795
-0.0685062
0.000678662
-0.040458
-0.0694196
6.69186e-05
-0.0592251
-0.0142988
-0.0669219
-0.0285291
-0.0143729
0.00119002
-0.00639745
-0.00444234
-0.0177143
-0.0223638
-0.000536484
-0.00750175
-0.0700581
-0.0190131
-0.0668299
-0.000132952
-0.0205293
-0.0730058
0.0017211
0.0108235
-0.066544
-0.00999075
-0.0160376
-0.0658445
-0.00684152
0.0342202
-0.0127454
-0.0702394
-0.00883439
0.00232761
-0.0706725
-0.094089
-0.0040195
-0.00499275
-0.0358038
-0.0290626
-0.0147772
-0.0124531
-0.0454472
-0.017716
-0.00705694
0.00255544
0.00107043
0.0148177
-0.0634555
-0.000954123
-0.0170287
-0.0171887
0.0204245
0.000168793
-0.064247
-0.0193983
0.000836874
-0.00134933
-0.000426953
-0.00143459
-0.0293434
-0.0376231
-0.0131183
-0.0621047
0.00186772
-0.0624336
0.000618117
-0.0693152
-0.0682495
-0.0658012
0.000734048
-0.0138922
-0.00170802
-0.00509102
-0.00855287
-0.0549527
-0.0742824
-0.0151166
4.56179e-05
-0.0177742
0.00117659
-0.0473891
-0.0627735
0.000397157
-0.00126221
-0.0155755
0.0144818
-0.00471449
0.000583827
-0.0104059
0.00419133
-0.00403129
0.000580615
-0.00658896
-0.0632683
0.00155977
-0.00686226
-0.0650057
-0.0325539
-0.00430397
-0.0701113
-0.00698796
-0.000343704
-0.087166
-0.0122426
-0.00516493
-0.0575135
-0.0572381
-0.00175452
-0.067593
-0.0206486
-0.000468572
-0.0132505
0.000269854
-0.064975
-0.0366411
0.000864221
-0.0509517
0.0132178
-0.00257359
-0.0288957
-0.098097
-0.0158282
-0.0680606
7.25708e-05
-0.0237235
-0.013017
-0.00245978
-0.0667267
-0.00825294
0.00070585
0.00750686
-0.065612
-0.00686412
-0.00690049
-0.0802148
0.000101751
-0.00847748
4.52584e-05
-0.00672973
-0.0544183
-0.0170496
-0.091953
-0.0367284
-0.0291894
-0.00168838
-0.0140765
0.00308387
0.00398786
0.0169432
-0.0126821
-0.00683053
0.000688963
0.000458612
-0.0640371
-0.0689251
-0.00693354
-0.0636483
-3.12317e-05
-0.00453026
-0.000961761
0.000164667
0.000944048
-0.00412113
-0.0250798
-0.0733356
0.0436188
-0.0235396
-0.0230036
0.00575832
-0.0109903
-0.0667737
-0.00128893
-0.0600767
0.0336261
-0.00504345
0.015107
-0.0668654
-0.00625411
-0.00821774
0.000473181
-0.011456
-0.0465635
-0.000535403
-0.0223054
-0.00257205
-0.00407791
-0.0667815
-0.0132852
-0.0227263
-0.00890979
-0.00126871
-0.0698623
-0.028631
-3.99317e-05
-0.0483522
0.0175497
-0.0703095
0.00169869
-0.00722099
-0.0043572
-0.0821139
-0.0118577
-0.0470284
-0.0235271
-0.0687755
0.00118679
-0.000203539
0.00460991
-0.0878851
-0.016109
0.000150663
0.000151023
-0.0711085
-0.076775
-0.0171219
-0.0175121
-0.00244336
-0.00357032
-0.0615664
9.79604e-05
-0.0717154
-0.0580194
-0.00018252
-0.020864
0.00388689
0.000311537
-0.0312173
0.000865001
-0.0181206
0.00179442
0.00666863
-0.0216054
-0.00755335
0.00110647
-0.0770342
-0.00492452
-0.0144222
-0.0687165
-0.00986536
0.00158987
-0.0275917
-0.000357609
0.000830811
-0.0158437
-0.0396664
-0.0166059
0.00222013
0.000605751
-0.0228126
-0.012957
-0.0267267
-0.0148734
-0.0130852
0.000762402
0.000584588
-0.016731
0.0118595
-0.0557825
-0.0604167
-0.0960555
-0.00233061
0.000751463
-0.00959595
-0.0687732
-0.0160445
-0.00563221
-0.0681471
-0.0698487
-0.00129502
-0.0216466
-0.0190761
0.0113358
-0.0702715
0.000890006
-0.0153763
-0.03616
-0.10503
-0.0209445
-0.0228812
-0.00500138
-0.0668175
-0.0705577
1.50417e-05
-0.09133
0.00237734
-0.0167286
-0.0486892
-0.0561566
-0.0228045
0.00452741
-0.00796678
0.000367536
-0.0144117
-0.00416925
-0.00682208
0.00978296
-0.00599237
0.000901388
-0.0290609
-0.066659
0.0410801
-0.000531702
-0.00766685
0.0126174
-0.0304167
0.000982745
-0.0166672
-0.00209907
-0.0688567
0.0176282
-0.00238117
0.0122274
-0.0670372
0.000644025
-0.061891
-0.0136942
-0.00461659
-0.00436143
-0.0017986
0.00360798
4.25469e-05
0.000523959
-0.000913557
0.00018171
-0.0817706
0.000719298
-0.00723664
-0.0447424
-0.0424182
-0.00355022
-0.0596869
-0.00898915
-0.0177647
-0.0124148
-0.0117778
0.000528162
-8.98237e-05
-0.067944
0.00317458
0.00411219
-0.0138243
0.00637749
-0.0908276
0.0374826
-0.0824398
-0.0014106
-0.000905396
-0.0166985
-0.00551334
0.000582363
0.00123575
-0.0686468
-0.0626902
-0.0048523
-0.00646041
-0.0162249
-0.0660073
-0.0204051
-0.00653783
-0.00776273
-0.0611968
-0.0167551
-0.06839
-0.0226224
0.000713081
-0.00765889
-0.000125293
-0.00196881
-0.0540588
-0.00421366
-0.0347345
-0.0736654
-0.00760193
-0.0614303
-0.0188072
-0.00134862
-0.0212832
0.00142118
-0.0152194
0.000777552
0.000586113
0.000597651
-0.0904428
0.000496617
0.0157313
0.00720751
-0.0344356
0.0101852
0.0187501
-0.0545913
-0.0658573
0.00084245
6.43922e-05
0.00292469
-0.0666555
-0.0125783
-0.0217032
0.00344086
-0.00511317
-0.0215955
-0.0109495
7.41269e-05
-0.00936684
-0.0182006
-0.0319882
-0.0780203
-0.072907
-0.028274
-0.00119719
-0.00324652
-0.0172607
-0.0115587
-0.00243651
-0.0633209
-0.0639438
-0.00697086
-0.00458587
0.00063733
0.00502444
0.00348626
-0.0669525
-0.0420934
-0.0169613
-0.0698801
-0.0576775
-0.0666471
-0.0678868
-0.0112437
-0.0974533
-0.0168514
-0.0608378
-0.0670846
-0.100423
-0.0718244
0.000291763
-0.0215945
0.0025436
-0.00121839
-0.0727122
-0.0088028
-0.0162863
-0.0393494
-0.0212537
-0.0437962
-0.0678591
-0.0667045
-0.0714604
-0.0240767
-0.00743192
-0.0114873
0.000196898
-0.0233098
-0.0076958
-0.0568652
-0.00237459
-0.0154385
0.000729173
-0.000716954
-0.0020615
-0.0687352
-0.0053677
-0.000859995
-0.0166093
-0.00452942
-0.0440473
0.000311745
0.00415586
-0.0955452
-0.0166417
-0.0435449
-0.0163288
-0.0404046
0.00968979
0.00244422
-0.00504428
0.000215613
-0.0438641
-0.029787
-0.00239048
-0.0321286
-0.0748223
-0.0112857
-0.00714976
-0.00498401
-0.0802192
-0.00707712
-0.00422924
0.000750401
0.0368595
-0.0719226
-0.00130096
-0.0283278
-0.0760561
-0.0109202
0.00442582
-0.0200553
-0.0618202
-0.0164544
-0.0691687
-0.00620533
0.00179277
0.000983355
-0.0652415
-0.0354403
0.000484034
-0.0708467
-0.0126613
-0.0114993
-0.0222114
-0.0655384
0.0116403
0.00752921
-0.0393672
-0.0223992
-0.0730105
-0.00279352
-0.0105203
-0.0214107
-0.0278631
-0.0156813
0.00265295
-0.0117817
-0.00360989
-0.0678793
-0.0235064
-0.0691827
-0.0120344
-0.0700358
-0.0624498
-0.0201668
-0.0203182
-0.0378102
-0.0134109
-0.068224
-0.0323336
-0.0740615
-0.0978358
-0.0136843
0.00161452
-0.0668487
-0.0820823
0.00419136
-0.0704137
-0.0076275
-0.00169144
-0.0220569
-0.00569231
-0.0114218
-0.0446265
-0.0698976
0.00357037
0.000508151
-0.123559
-0.0656165
-0.0155878
-0.0699737
0.00208617
-0.0654632
-0.0419759
-0.0585362
-0.00112417
-0.00135148
-0.0522953
-0.0619919
0.000492502
-0.0781176
-0.0714883
-0.00119822
-0.0197442
0.00108002
-0.00147509
-0.00672621
-0.0337696
-0.0932839
-0.000446276
-0.0157099
-0.00143135
-0.0170428
-0.0622437
-0.0728751
-0.00332427
-0.0666558
-0.0112606
-0.00842687
0.00295971
0.00632682
0.000502468
-0.0676614
-0.0685079
0.00445988
0.023863
-0.0659177
-0.0016512
-0.0690024
-0.0700101
-0.00727509
-0.0685972
0.000494051
-0.00799718
-0.0137518
-0.0349033
-0.068189
-0.0294985
-0.0193976
-0.0202034
0.00139651
-0.0674816
0.00147435
0.000663938
-0.0624565
-0.071146
-0.0231727
-0.0107166
-0.0246304
-0.0143965
-0.0165865
0.0351366
-0.00656808
-0.0685063
0.00213607
-0.0672055
-0.00415407
-0.00437906
-0.0569968
-0.00221166
0.000654903
0.0342006
0.0264382
0.000319754
0.0044974
-0.0368633
-0.0680471
-0.065461
-0.0234797
-0.0165279
0.00278747
-0.00255513
-0.0213215
-0.00908953
0.0146855
0.000243735
0.000696569
-0.0734322
-0.00869535
-0.0236208
-0.0298361
0.00252407
9.95002e-05
0.000512104
-0.0229219
-0.0229638
-0.0384555
-0.0298267
-0.0234511
-0.0602991
-0.0151305
-0.045521
-0.0404141
-0.066739
-0.0338292
0.000818526
-0.0303328
-0.0219856
-0.0162275
-0.0189046
-0.00294304
-0.0239138
-0.0372572
-0.0636509
-0.013136
-0.0588364
-0.045799
-0.0600977
-0.0613754
-0.0234522
-0.0625034
-0.0635498
-0.0644582
-0.0652364
-0.0635886
-0.0441277
0.00339991
-0.00715742
-0.0345579
-0.0573709
-0.00495769
-0.0283771
-0.06572
-0.00597108
-0.074311
0.000647969
0.000351691
0.00161233
-0.0772589
-0.0229509
-0.00586479
-0.0679339
-0.0493348
0.00185844
-0.00963046
0.00116777
-0.0244732
-0.0901101
0.000147876
-0.039019
-0.0668556
-0.0683869
-0.0555919
-0.0694513
-0.0274635
-0.00628476
-0.0651863
5.29029e-05
-0.0643038
-0.0639255
-0.0106328
-0.0165689
-0.0094799
0.000399664
-3.50308e-05
-0.012635
0.00893314
0.000849598
0.000882231
0.00420425
-0.0674247
-0.0141409
-0.0117259
-0.0665306
-0.0399234
-0.0709588
-0.0609434
-0.019606
-0.0158155
-0.022398
-0.00520665
-0.0705885
0.00711572
-0.0863311
-0.0574598
-0.0674087
-0.00769307
-0.00405824
-0.00508036
-0.0666094
0.000503326
-0.0664819
9.19211e-05
-0.0677483
-0.0229319
-0.0056317
0.002864
-0.0052464
-0.0589139
-0.0062291
-0.0152176
-0.00330532
-0.0229544
-0.0679955
-0.0695709
-0.00220549
-0.0702437
-0.0052747
-0.00162201
-0.0350882
-0.0135556
-0.0635023
-0.0552796
-0.00647396
-0.0661248
-0.060242
-0.0749405
0.0001293
0.000588441
-0.000450467
-0.00115218
-0.0664859
0.0111966
-0.0052116
-0.00824826
-0.0625158
-0.00321814
-0.00184822
-0.00444805
-0.0861395
-0.0172377
-0.0217003
0.000536581
-0.0695411
0.00121629
-0.0227756
-0.0649641
-0.0594523
-0.0670655
0.000619553
-0.041576
-0.00556266
-0.0676637
-0.067732
-0.0126761
-0.0610208
-0.00450084
0.000921027
0.000481019
-0.000211003
0.0242096
-0.00431706
-0.0079083
0.0147543
-0.00909422
-0.0649264
-0.0676079
-0.0670154
-0.000241854
-0.0284168
-8.94852e-05
-0.0618692
0.000626226
-0.00509499
-0.00152148
-0.0337931
0.000658828
-0.00525003
-0.00324566
-0.00537629
-0.0644159
-0.0679225
-0.00196571
-0.024698
-0.0671838
-0.00034161
0.00104686
-0.0677671
-0.0247235
-0.00356882
-0.068841
-0.00743358
-0.0721423
-0.0016375
-0.0812969
-0.0752839
0.00803558
-0.0107331
-0.030814
-0.0579343
-0.0544472
-0.0690195
0.011993
-0.0223727
-0.0699535
0.00478454
-0.0318488
-0.00969977
-0.0951068
0.019453
-0.0681293
-0.0448623
0.0220704
-0.0134021
-0.0740961
-0.0105848
-0.0729284
-0.0603593
-0.00481887
0.000510223
-0.0678058
-0.0649058
0.00325232
-0.0206955
-0.00839045
0.00298023
-0.0733154
0.013608
-0.0632276
-0.0143397
-0.0620976
-0.00659156
0.0133219
-0.0217861
-0.0320138
-0.062181
-0.00422459
-0.0636051
0.000645707
-0.0276538
-0.0205943
0.00169374
-0.00596672
-0.0223823
-0.065719
-0.0683624
-0.000992581
-0.0642463
-0.0180759
-0.00154703
-0.0125439
0.00013554
-0.0229644
-0.0673351
-0.0655902
0.000303685
-0.0182057
-0.054175
-0.0568315
-0.0725784
-0.0584134
-0.0154983
-0.0519313
-0.0138826
0.00210431
0.000968604
-0.063867
-0.00882708
-0.0683727
-0.0707482
-0.0274824
-0.066565
-0.0614293
-0.00216385
-0.0654674
-0.0276253
-0.046131
0.00379648
-0.00324927
0.00599539
-0.0693965
-0.0199348
0.00869356
-0.0156088
-0.0674999
-0.0637716
-0.0027645
-0.067359
-0.0662499
-0.0657598
-0.0116053
0.00067522
-0.055315
-0.0146917
-0.020743
-0.021297
-0.0119281
-0.00298617
-0.010707
-0.0145808
-0.00622568
-0.0147592
-0.00875393
-0.00927485
0.0037535
-0.0682901
-0.0147433
-0.0665434
-0.0165087
-0.0110829
-0.0597148
-0.0567183
-0.00601836
-0.00239428
-0.0187578
-0.0402358
-0.0661209
-0.0395351
-0.0242032
-0.0135888
-0.00109931
-0.00618338
-0.0643576
-0.0545558
-0.00508879
0.000651929
-0.0694517
-0.0211317
-0.00961472
-0.0559851
-0.0317714
-0.0384209
-0.0652077
-0.0538398
-0.0108052
-0.00910072
-0.0694794
-0.00385293
-0.0162886
-0.0151876
0.00216574
-0.0549699
-0.0229793
-0.0677436
-0.0104449
-0.0158669
-0.0342737
-0.0664373
-0.0635511
-0.0204325
-0.0609223
-0.0663154
-0.033812
-0.0240881
-0.022967
-0.0374528
-0.0280902
-0.0663001
-0.00891552
-0.00183632
-0.0477348
-0.0227904
-0.0563386
-0.0172635
-0.0110157
-0.0388538
0.000193986
-0.0226121
0.00961245
-0.0192981
-0.00298833
-0.0126187
-0.0663529
-0.065868
-0.00961073
-0.00567316
-0.0621083
-0.0222299
-0.00247898
0.0160301
-0.0652143
-0.0348756
-0.0639122
0.00896049
-0.0503707
-0.0681628
-0.0631559
-0.0464606
-0.00212689
-0.0626188
-0.00542233
-0.0155311
-0.0676073
-0.0641032
-0.0135262
-0.0175378
-0.0127994
-0.00042851
-0.0126381
-0.0649115
-0.003198
-0.060491
-0.0410539
-0.00261207
0.000713103
-0.000911779
-0.0124037
-0.0144535
-0.000186242
-0.0396323
-0.0109993
-0.0126313
0.000626514
-0.0570079
-0.0239806
-0.0309789
-0.0176743
0.0007534
0.000530718
-0.0510702
0.00218882
-0.0691511
-0.0197748
-0.0215896
-0.0122817
0.0111124
-0.0158642
-0.0154947
-0.0125869
-0.0385263
-0.00885122
-0.0311703
-0.000347036
-0.0898197
-0.038321
-0.0152666
-0.00373901
-0.0636186
-0.00149363
-0.0272536
0.000856238
-0.041422
0.000743796
-0.00947573