/*--------------------------------*- C++ -*----------------------------------*\
| =========                 |                                                 |
| \\      /  F ield         | OpenFOAM: The Open Source CFD Toolbox           |
|  \\    /   O peration     | Version:  v2012                                 |
|   \\  /    A nd           | Website:  www.openfoam.com                      |
|    \\/     M anipulation  |                                                 |
\*---------------------------------------------------------------------------*/
FoamFile
{
    version     2.0;
    format      ascii;
    class       volVectorField;
    location    "850";
    object      U_0;
}
// * * * * * * * * * * * * * * * * * * * * * * * * * * * * * * * * * * * * * //

dimensions      [0 1 -1 0 0 0 0];


internalField   nonuniform List<vector> 
13851
(
(1.02526 -0.0150116 0)
(0.502443 -0.12959 2.80486e-21)
(1.01273 -0.0693534 -9.78154e-22)
(1.02358 -0.0148831 -1.12067e-21)
(1.03559 -0.0792678 9.21609e-22)
(1.02232 -0.0409192 1.80709e-22)
(1.03182 -0.00186455 1.55628e-20)
(1.02475 -0.0529866 2.40832e-22)
(1.0112 -0.000926637 8.59432e-22)
(0.986063 -0.0463836 0)
(0.998227 -0.0481625 -1.10287e-22)
(0.705688 -0.0304251 1.56477e-20)
(1.01028 -0.082872 0)
(-0.0607525 0.150203 2.5149e-20)
(1.02046 -0.000523231 -3.38314e-21)
(1.01919 -0.0262742 0)
(1.03574 -0.0247503 0)
(1.03489 -0.00501651 -6.41193e-22)
(1.02747 -0.0841113 -3.80599e-22)
(1.01103 -0.000864716 -1.05032e-21)
(1.02316 -0.0144602 1.13129e-21)
(1.01589 -0.0698317 -7.77586e-21)
(1.00364 2.13159e-05 -3.86272e-23)
(1.00495 -0.000129197 -7.39851e-22)
(1.00275 -4.82038e-05 4.04617e-23)
(1.02247 -0.0524241 -1.09683e-20)
(1.04934 -0.0221616 0)
(-0.00595023 -0.0160101 2.22235e-20)
(1.02545 -0.0142995 0)
(1.02791 -0.0104793 -9.52301e-21)
(1.02266 -0.0468985 1.20061e-22)
(1.03569 -0.0259623 0)
(1.01165 -0.0669429 0)
(0.962671 0.0440847 4.96355e-23)
(1.00574 -0.000129301 1.49755e-21)
(1.08506 -0.155965 0)
(1.07039 -0.192334 -3.59795e-20)
(1.02589 -0.0915341 -1.58929e-20)
(0.982336 -0.0480873 0)
(0.985186 0.0324386 0)
(1.01859 -0.00667211 -2.6425e-21)
(1.00889 0.000484215 3.14022e-24)
(-0.00760231 0.0968039 2.40341e-20)
(0.994831 -0.0643807 5.5723e-22)
(0.977914 -0.0709613 0)
(0.0880219 0.0553517 -1.97421e-22)
(0.954506 -0.0861013 -2.00237e-21)
(0.884534 0.0279234 -5.93393e-22)
(1.05025 -0.0230844 1.59075e-20)
(1.01297 -0.0263231 0)
(1.05752 -0.0886856 0)
(1.03569 -0.100036 0)
(-0.0147635 0.0433804 -2.54047e-20)
(1.0202 -0.000487967 0)
(1.01329 -0.00069006 1.82045e-21)
(1.00921 0.000594696 0)
(1.00574 -0.000117603 0)
(-0.0225064 0.0458686 1.63106e-20)
(1.02806 -0.010431 6.02954e-21)
(1.03246 -0.00473215 -5.29762e-21)
(1.02472 -0.0936874 7.38619e-21)
(0.980097 -0.0362993 0)
(1.07205 -0.00631642 8.32679e-22)
(1.03546 -0.0839751 2.09179e-20)
(0.97133 0.0175686 1.24277e-20)
(1.02585 -0.0188952 -9.45405e-22)
(1.07529 -0.20044 -2.2099e-20)
(0.943269 -0.0794801 -1.21823e-21)
(1.05779 -0.0483975 -1.17983e-21)
(1.03566 -0.00566141 4.04869e-22)
(0.293393 0.00277227 0)
(1.06585 -0.216789 2.24855e-20)
(0.517076 -0.14326 -2.26327e-20)
(1.02018 -0.000519423 0)
(1.01406 -0.00114848 0)
(1.0144 -0.00139832 -4.11459e-22)
(1.01763 -0.0686233 5.58064e-21)
(0.684323 -0.00373386 8.5734e-21)
(1.04287 -0.0628338 1.29823e-20)
(0.22306 -0.000551818 -1.73758e-20)
(1.03488 -0.0089039 -5.9135e-21)
(0.930656 0.0612788 0)
(1.0224 -0.0043534 5.72295e-21)
(0.0686459 0.0466367 -3.44467e-20)
(1.07387 0.000590191 -4.4518e-22)
(0.744758 -0.0224465 -1.7001e-20)
(1.0143 -0.0368349 2.38305e-22)
(0.868394 -0.0293773 -3.12025e-22)
(1.04316 -0.0278844 0)
(1.01875 0.00332597 3.168e-23)
(1.08213 -0.152106 -1.50578e-20)
(0.99455 -0.00633442 0)
(0.950029 -0.0600035 1.75788e-21)
(1.04563 -0.0348242 -1.24643e-20)
(1.04421 -0.0271744 0)
(1.00418 -8.55731e-05 0)
(1.03621 -0.0809814 0)
(0.976994 -0.0593526 0)
(1.012 -0.0279952 0)
(1.00334 -4.19554e-05 -1.58234e-22)
(-0.0330702 0.0844661 2.92347e-20)
(1.05274 -0.0687042 -2.82986e-20)
(1.02525 -0.00998142 0)
(1.05927 -0.0135383 -1.23272e-20)
(1.00353 3.08655e-05 -3.56626e-24)
(1.0055 -0.0372086 0)
(1.05576 -0.0747199 -1.68449e-20)
(1.00828 0.000258331 2.36471e-23)
(0.9813 -0.206113 0)
(1.02521 -0.0384961 -5.77592e-22)
(1.00373 -5.80051e-05 3.87542e-23)
(1.01933 0.00407047 1.17779e-23)
(0.996096 -0.00634025 0)
(1.00126 3.07974e-05 -6.85292e-22)
(1.00456 -7.9696e-05 0)
(0.781186 0.156598 -1.45743e-21)
(1.00232 -0.064212 1.21426e-20)
(1.00746 7.8105e-05 6.67786e-23)
(1.00691 -0.000315133 0)
(1.01166 -0.000539494 1.91269e-21)
(-0.00516725 0.101916 2.32642e-20)
(1.05787 -0.0140144 2.04298e-20)
(1.01124 -0.0802268 0)
(0.85139 -0.0583985 -2.34465e-22)
(0.92822 0.0151244 0)
(1.00804 -0.00822054 8.09038e-23)
(0.942201 -0.00215647 -7.0658e-22)
(1.04744 -0.0657451 3.66447e-21)
(1.02206 -0.0143113 -3.63855e-22)
(1.02915 -0.0854542 0)
(1.01834 -0.00641839 -2.40991e-21)
(1.00966 -0.00136172 1.43089e-21)
(0.32164 -0.00972831 -8.71268e-21)
(1.02235 -0.00412584 -2.24359e-21)
(0.770207 0.146142 0)
(1.00934 -0.00066194 -1.93137e-22)
(1.00741 5.23097e-05 -4.94877e-23)
(1.06825 -0.21203 -5.94856e-22)
(0.126394 0.113395 0)
(-0.05814 0.00565121 -2.37639e-20)
(-0.042842 0.0832126 -3.23527e-20)
(1.01294 -0.000652568 -1.68015e-21)
(1.02876 9.5929e-05 6.05489e-22)
(1.00923 0.00121038 0)
(1.0315 -0.0172492 -3.29813e-21)
(0.999708 -0.0621046 0)
(1.04813 -0.0172424 1.55916e-22)
(1.02858 -0.085488 -1.73318e-20)
(1.03107 -0.00186186 -4.44624e-21)
(0.974023 -0.0654346 0)
(1.10089 -0.0961795 0)
(1.01205 -0.000677708 -3.36122e-21)
(-0.0465645 0.141594 -3.02243e-20)
(1.00566 -0.000130032 -3.18208e-22)
(1.03939 -0.0172599 0)
(1.03106 -0.0167331 -5.62256e-21)
(1.01228 -0.00404285 -9.96876e-22)
(1.02774 -0.0117438 0)
(1.03446 -0.0985211 1.47823e-20)
(1.05579 -0.0866412 -1.95193e-20)
(1.01369 1.04857e-05 0)
(1.05642 -0.0339956 9.2797e-21)
(-0.0230326 0.0433283 -4.05382e-20)
(1.00953 -0.00125652 0)
(1.02423 -0.0108709 0)
(1.0093 0.000875415 1.71392e-22)
(1.05344 -0.0180976 0)
(1.05971 -0.0494214 0)
(1.02183 -0.0136876 3.58623e-22)
(0.862992 -0.0268478 -3.05712e-20)
(0.665216 0.00259143 -2.00319e-20)
(1.00808 -0.000575387 5.28125e-22)
(1.01242 -0.00428775 -1.11391e-21)
(-0.0794261 0.0308912 1.44384e-20)
(1.00934 -0.00115296 0)
(0.868969 0.0380983 1.0294e-21)
(1.04631 -0.0641183 0)
(1.02552 0.00519253 -2.05993e-22)
(1.02553 -0.0839064 6.36106e-21)
(1.00916 0.000391369 2.37501e-23)
(1.03429 -0.0272026 6.50058e-21)
(1.05638 -0.215284 -9.20815e-22)
(1.02222 -0.00358755 5.07906e-21)
(1.01666 -0.072468 8.44737e-21)
(1.00704 8.36118e-05 4.78545e-24)
(1.00381 -4.03289e-05 1.19093e-22)
(1.02694 -0.0187371 0)
(1.0134 -0.000771395 -2.86495e-21)
(1.03138 -0.0807902 -1.50616e-20)
(0.990067 -0.014542 6.66985e-23)
(0.959846 -0.077563 8.71549e-22)
(-0.0190641 0.0437178 2.23482e-20)
(1.02195 0.00513519 4.92696e-23)
(1.05092 -0.0485183 2.47605e-20)
(1.01824 -0.048798 0)
(1.03792 -0.0164722 -9.60241e-21)
(1.02687 -0.00024342 5.86856e-22)
(1.01465 -0.0429106 1.84124e-21)
(1.02546 0.0040363 2.38292e-22)
(1.01469 -0.00130928 4.11205e-22)
(1.00885 -0.0089928 -4.50553e-23)
(0.323865 0.0154365 -7.54661e-21)
(1.00462 -0.000145067 -1.72586e-21)
(1.0195 -0.00455237 3.7612e-21)
(0.99366 -0.0255285 0)
(1.02265 -0.00378021 -4.99227e-21)
(0.917336 -0.256094 2.12622e-20)
(1.03814 -0.0260686 2.41812e-20)
(0.601206 -0.0514687 0)
(1.01095 0.000364638 0)
(0.925165 -0.150309 7.41893e-21)
(1.02472 -0.00974274 0)
(0.952225 -0.0658117 0)
(1.00867 0.000259818 0)
(1.00969 0.00148215 0)
(0.994399 -0.0340528 0)
(1.0631 0.00933826 1.33244e-21)
(0.0461251 0.0656646 0)
(1.02059 -0.00128665 4.43242e-21)
(0.630553 -0.0585207 0)
(1.03765 -0.0266394 -7.60268e-21)
(1.0357 -0.00926318 6.77293e-21)
(1.00307 -0.0910124 0)
(1.03233 -0.0900317 0)
(0.766022 -0.137456 -9.73133e-21)
(1.00279 -1.67597e-05 -1.47144e-22)
(1.04516 -0.0397848 1.18114e-20)
(1.00278 1.48259e-05 1.20201e-23)
(-0.0332263 0.0621193 -3.32935e-20)
(1.00899 0.00027709 -1.61388e-23)
(1.02164 -0.0502013 1.00419e-20)
(0.931141 0.0668377 -3.22478e-21)
(1.00795 -0.000530695 -1.21489e-21)
(1.02128 0.00418188 -4.36159e-23)
(1.06448 -0.0845154 -5.7699e-21)
(1.02922 0.011462 0)
(0.995632 -0.2427 -8.45944e-20)
(0.963537 0.0120813 -1.45609e-20)
(1.00944 0.00147745 0)
(1.01978 -0.00466816 0)
(1.0174 -0.0481698 -3.31082e-22)
(0.993975 -0.035235 -4.15682e-22)
(1.02101 -0.000758659 2.34544e-23)
(0.990885 -0.0252441 0)
(1.00457 3.24649e-05 -1.41487e-23)
(0.716844 -0.111985 1.04701e-20)
(1.05068 -0.0695151 2.96837e-20)
(0.958076 0.0376954 -4.48678e-21)
(1.03019 -0.0163364 -5.8116e-21)
(1.02865 -0.0220136 0)
(1.00822 0.018388 -1.20996e-23)
(0.988692 -0.0350345 5.63381e-22)
(1.02986 -0.0112346 0)
(1.03063 -0.0168887 1.25863e-20)
(1.06918 -0.072966 0)
(1.04979 -0.110693 2.15434e-21)
(0.992489 -0.0132804 -1.56927e-23)
(1.06089 -0.210751 -6.9511e-22)
(0.69764 0.0170036 4.61485e-21)
(1.02336 -0.00115761 6.92816e-23)
(1.00947 0.00130919 0)
(1.03527 -0.00766555 2.36484e-21)
(1.05181 -0.0820825 -9.93599e-21)
(1.00997 -0.00320448 0)
(1.02719 -0.0806373 0)
(1.03727 -0.0164365 1.04833e-20)
(1.02988 -0.0108942 5.97808e-21)
(1.046 -0.0337896 1.27104e-20)
(1.00959 -0.0933414 1.52068e-20)
(1.06784 5.25333e-05 -1.10099e-21)
(1.01048 0.0206391 4.11387e-22)
(1.03859 -0.017351 2.13593e-20)
(1.05414 -0.0482387 0)
(1.04367 -0.0607528 2.0789e-20)
(1.01951 -0.024701 0)
(1.00982 -0.00147377 5.77062e-23)
(0.941243 0.0642455 -1.36382e-24)
(0.992162 -0.0152558 4.09552e-22)
(0.698478 -0.142059 -1.32333e-20)
(0.994597 -0.0442655 8.77327e-23)
(1.02145 -0.00149322 -3.49313e-23)
(1.01031 0.000226244 -1.70168e-23)
(1.00373 2.35903e-05 0)
(1.06987 -0.0706545 0)
(1.03828 -0.118172 4.7312e-21)
(0.819534 0.042576 0)
(1.01278 -0.00103453 9.20963e-23)
(1.02125 -4.55136e-06 9.33673e-21)
(1.05135 -0.0616207 0)
(0.92612 0.0445418 -1.43078e-22)
(1.02834 -0.0860046 0)
(1.02786 -0.0108394 -3.21791e-21)
(1.03267 -0.00520878 -6.37697e-21)
(1.05424 -0.0528281 0)
(0.918033 0.0467419 0)
(1.02601 -0.0812439 0)
(1.02461 -0.0130718 0)
(0.732698 -0.00775846 0)
(1.01009 -0.00167165 -8.11241e-22)
(0.752603 -0.119752 9.14622e-21)
(1.05643 -0.0328618 -2.91361e-20)
(1.03473 -0.0239863 0)
(0.73812 -0.150735 -2.74221e-20)
(1.02348 -0.0081241 1.17936e-20)
(1.00858 -0.0390387 0)
(0.928397 -0.0998004 0)
(1.01234 -0.00099424 -9.31289e-23)
(1.06567 -0.062713 2.03203e-21)
(1.04408 -0.0351214 0)
(1.02783 -0.0107685 0)
(0.235555 0.0927024 0)
(1.02414 -0.0126869 0)
(1.02859 -0.0107176 0)
(1.00605 -0.0789561 -3.59582e-21)
(1.00906 0.000615272 1.51577e-22)
(1.02867 -0.0228442 -2.17973e-21)
(1.00995 -0.0113945 -9.36651e-23)
(0.755953 -0.155876 -2.73564e-20)
(1.08779 -0.130557 0)
(1.02085 -0.001427 9.2263e-21)
(1.05841 -0.0714886 -8.5082e-21)
(1.02129 -0.000877426 -4.50435e-21)
(0.751016 0.00314856 0)
(1.00188 0.0203266 7.01113e-22)
(1.00386 -9.71028e-06 7.56507e-24)
(1.01236 -0.00464933 -1.64855e-21)
(1.08403 -0.127464 0)
(1.04544 -0.0380323 0)
(1.04059 -0.0163809 -6.63837e-21)
(1.02109 0.000110931 -9.23941e-21)
(1.02334 -0.00810568 -4.53158e-21)
(1.02813 -0.0105035 4.54994e-21)
(0.995205 -0.0548067 -5.59216e-23)
(0.0720702 0.0907199 3.70905e-20)
(0.90884 -0.0306289 -2.57001e-20)
(1.04335 -0.00922444 1.17902e-21)
(0.788116 -0.162191 2.30118e-20)
(1.05545 -0.107275 -1.99448e-22)
(1.02036 -0.000512416 0)
(1.04935 -0.0495585 -5.01592e-21)
(1.02801 -0.0863333 -2.80586e-21)
(0.993775 -0.0106218 7.75334e-22)
(1.03017 0.026055 5.15941e-21)
(1.04257 -0.101747 -1.91279e-20)
(1.02865 -0.0832874 0)
(1.00367 0.000642488 0)
(0.92908 -0.15739 4.72017e-21)
(0.867262 -0.112143 2.09439e-20)
(1.02046 -0.00039805 0)
(1.01535 -0.0271035 0)
(1.01389 -0.0269655 -2.98398e-22)
(0.990898 -0.111684 0)
(1.04118 -0.016105 1.34208e-20)
(1.02883 0.0298388 -4.11427e-22)
(-0.0360538 0.0601818 3.27547e-20)
(1.01255 -0.00450548 -3.07458e-21)
(0.89575 -0.198812 0)
(1.01232 -0.00435318 -7.34013e-22)
(1.02114 -0.000798807 0)
(1.00517 3.66905e-05 8.93128e-24)
(1.00852 0.000285665 -1.2049e-23)
(1.01205 -0.00373594 -9.86322e-22)
(0.902199 -0.12267 2.16598e-20)
(0.869923 0.028065 -1.10039e-21)
(1.02187 -0.00613227 0)
(1.06586 -0.0600971 -1.69249e-21)
(1.00977 0.0010408 -3.0987e-23)
(0.689299 -0.00956981 1.17233e-20)
(1.01226 -0.0208992 -7.71896e-21)
(0.764646 0.0663339 -5.16955e-22)
(0.896419 -0.031537 2.82858e-20)
(1.02192 -0.00629001 -1.33055e-21)
(1.06546 0.0127283 -2.27515e-21)
(1.04117 -0.0348728 1.05662e-20)
(0.777841 0.0639914 -1.04372e-21)
(1.01729 -0.00593593 5.19472e-21)
(1.00749 8.44974e-05 -6.68593e-23)
(0.998742 0.00643685 -6.535e-22)
(0.0133657 0.0707207 0)
(1.01372 -0.000965285 -1.529e-21)
(0.359722 0.0437928 -8.25167e-21)
(0.993246 -0.00881702 -8.04417e-22)
(1.04087 -0.103748 2.36302e-21)
(0.771463 -0.0204241 -2.00035e-21)
(1.01227 -0.0309266 0)
(1.01309 -0.0309519 0)
(1.02431 0.0191328 -1.2066e-22)
(1.01026 -0.00187976 9.72486e-22)
(1.01968 -0.000262929 -8.07687e-21)
(1.04114 -0.0100475 0)
(1.06067 -0.0713823 0)
(-0.0479219 0.149003 1.8917e-22)
(1.06312 -0.0491873 -2.56798e-20)
(0.816347 -0.150458 3.63503e-20)
(0.912925 -0.105685 0)
(1.0096 0.000981102 4.0826e-23)
(1.02379 -0.00116621 -9.77598e-21)
(0.873085 -0.0259323 2.55129e-20)
(0.294665 -0.0075974 4.86326e-21)
(0.953947 0.0733815 0)
(1.01009 -0.0691 -1.57996e-20)
(0.997522 0.00746868 -1.09138e-21)
(1.04117 -0.0363912 -1.08919e-20)
(1.00309 -5.22848e-05 0)
(1.04371 -0.1059 0)
(1.00942 -0.000819992 6.88405e-22)
(1.02032 -0.0273788 5.36763e-21)
(1.02443 0.0170739 -2.50678e-23)
(1.02935 -0.00337891 -1.78304e-20)
(1.00308 5.6636e-06 -4.21257e-26)
(1.01213 -0.00101493 2.00575e-22)
(1.00944 0.000968028 -3.29414e-22)
(1.037 -0.0843091 -2.30909e-20)
(1.02046 0.0155809 -8.23541e-22)
(0.808286 -0.00418918 1.5821e-21)
(1.03793 -0.00670115 -1.57246e-21)
(1.05792 -0.0741126 2.80172e-20)
(1.02285 -0.0282541 0)
(0.98789 -0.029309 -1.3071e-22)
(1.02656 -0.0216344 0)
(0.98338 -0.114047 -4.7403e-22)
(1.03466 -0.023043 0)
(0.991992 -0.0318709 1.18277e-22)
(1.00741 5.54407e-05 4.70726e-23)
(1.01177 -0.000975351 -9.85983e-22)
(1.003 -4.52085e-05 -1.20691e-22)
(1.0271 -0.0997627 3.6004e-20)
(0.87756 -0.0928703 -5.76438e-22)
(1.03169 -0.0877538 -2.18964e-20)
(1.02362 -0.027479 -9.58051e-23)
(0.777912 -0.00542633 0)
(0.951143 0.0336849 -1.23185e-22)
(1.01138 -0.0360208 1.6131e-24)
(1.01096 -0.000574342 1.60359e-21)
(1.06691 -0.08597 0)
(1.01704 -0.0056675 3.31821e-21)
(0.983882 -0.0265834 0)
(1.00374 1.92886e-05 -2.91911e-23)
(0.945689 -0.108034 5.0468e-21)
(0.936016 -0.019424 0)
(1.0095 -0.0614047 -1.25648e-20)
(0.626727 -0.0395561 1.47017e-20)
(1.02752 0.00357392 -2.36596e-22)
(0.985226 -0.00949003 6.59432e-22)
(0.917875 -0.0250819 0)
(0.080786 0.0659156 0)
(1.00735 8.42757e-05 -4.30557e-24)
(1.04068 -0.0394002 1.1951e-20)
(1.04412 -0.0644403 -2.52012e-20)
(1.06955 -0.0070908 7.31476e-22)
(1.00876 -0.000619996 0)
(1.02769 -0.0104571 8.86283e-21)
(1.10034 -0.0916364 3.72569e-20)
(1.03825 -0.0998433 0)
(1.04238 -0.00254138 8.61556e-22)
(0.431996 0.048456 -1.56741e-20)
(1.0034 -2.41694e-06 -4.22358e-24)
(1.01228 -0.00492844 0)
(-0.00109453 0.0823636 0)
(1.0241 -0.00948333 0)
(1.00989 0.000211423 2.34574e-23)
(0.800469 -0.0432866 -6.97181e-22)
(1.01012 -0.0017767 0)
(1.02455 -0.0153334 1.48585e-21)
(1.00952 -0.000661321 3.80049e-22)
(1.01496 -0.00321213 4.1436e-22)
(1.02745 -0.0109706 3.47684e-21)
(1.01048 0.000314047 0)
(1.02741 0.00237391 0)
(1.01399 -0.0795863 1.20845e-20)
(1.02277 -0.00466112 -6.70637e-21)
(1.06169 -0.0531238 -2.11381e-20)
(1.00962 -0.000760936 4.07249e-22)
(1.00668 -0.0214601 -5.57323e-22)
(0.987699 -0.022019 -3.32431e-23)
(1.001 -9.6031e-06 8.86437e-22)
(1.01651 -0.00689881 -3.71451e-21)
(1.00228 3.12767e-05 0)
(1.00213 -3.75093e-05 1.16184e-21)
(0.881974 0.0261483 0)
(1.03047 -0.0106892 -8.23451e-21)
(1.01598 -0.0396759 -2.41326e-22)
(1.02217 -0.00332076 0)
(1.00391 -3.60098e-05 0)
(-0.0754307 0.12073 4.61606e-21)
(0.601562 -0.0330739 -8.23431e-21)
(1.02347 -0.00395777 -5.94211e-21)
(1.00511 -0.0218815 3.52204e-22)
(1.02679 -0.0227949 0)
(0.998318 -0.0408914 0)
(0.06024 0.0545886 -1.5208e-21)
(1.01236 -0.00527886 0)
(0.861566 0.060374 0)
(1.0177 -0.00603848 0)
(1.03022 -0.0765796 1.13896e-20)
(1.03042 -0.00456789 0)
(-0.0356505 0.0728798 -1.73618e-20)
(1.0071 3.14338e-05 5.69845e-23)
(-0.0134486 0.0489954 0)
(0.994592 -0.00937666 -1.81576e-21)
(1.00887 0.000498445 -4.54402e-23)
(1.00352 -0.0201276 8.47793e-23)
(0.903525 -0.042371 0)
(1.01959 -0.0498577 0)
(0.941154 0.061779 3.60445e-22)
(1.00812 -0.000396551 0)
(0.855323 -0.13242 2.20857e-21)
(1.0125 -0.000573447 4.59886e-22)
(1.00898 -0.000793919 -1.2798e-21)
(1.01004 -0.00151624 6.66904e-22)
(1.02959 -0.00169381 0)
(0.326823 -0.0221322 -1.76863e-20)
(1.05556 -0.0817995 -1.76687e-20)
(1.04766 -0.115733 -9.0718e-21)
(1.01915 -0.0922081 -2.41454e-23)
(1.0655 0.00397332 1.72233e-23)
(1.0144 9.39104e-05 0)
(1.02867 -0.0728903 -8.59875e-21)
(0.899708 -0.0771893 1.7074e-22)
(1.03523 -0.0280891 -7.09399e-21)
(1.05505 -0.0348138 -2.46709e-22)
(1.00302 -0.0377439 5.64929e-23)
(0.84908 -0.0823046 4.70666e-22)
(0.95749 -0.158632 1.99494e-20)
(1.01864 -0.000306587 3.4434e-21)
(-0.0382511 0.0732369 7.14879e-21)
(0.112946 0.0477048 4.63138e-20)
(0.191617 0.0409259 -9.2261e-21)
(1.02387 -0.0117588 0)
(1.00199 -0.0202918 -6.13759e-22)
(0.816861 0.0413156 3.27213e-22)
(0.987084 -0.0128714 0)
(1.03378 -0.100666 0)
(0.999656 -0.0357116 -6.62407e-21)
(0.935981 -0.131436 -1.80634e-21)
(1.02773 -0.0114755 0)
(0.943988 -0.142108 -4.46044e-21)
(1.02729 -0.171933 -1.40686e-20)
(1.0073 4.4587e-05 -5.97001e-23)
(0.990441 -0.0125258 0)
(1.05711 -0.0837133 2.02807e-20)
(0.58192 -0.0138544 -2.0151e-21)
(1.02972 -0.0163168 0)
(1.01902 -0.0033123 -7.47476e-21)
(1.01216 -0.00387248 -7.69711e-23)
(1.01903 -0.00551417 -3.66571e-21)
(1.03293 -0.0807159 -9.96323e-22)
(1.02355 0.00495548 -4.49238e-23)
(0.895695 -0.0297292 4.76109e-22)
(0.45194 0.0522262 -1.47523e-20)
(1.00854 -0.000375609 0)
(-0.000843273 0.0857628 0)
(0.723302 -0.0317895 7.72323e-21)
(0.995993 -0.0455811 5.78546e-22)
(0.896719 -0.0544643 -1.56612e-22)
(1.05982 -0.0519998 0)
(1.00913 0.000201626 0)
(1.01156 -0.000993183 5.53882e-22)
(1.03507 -0.025145 1.14692e-21)
(1.03057 -0.0715731 0)
(1.04022 -0.0179314 0)
(1.08814 -0.110207 0)
(1.0665 -0.14587 9.97685e-22)
(1.00924 0.000570877 8.8733e-23)
(1.02283 -0.0304391 5.65055e-23)
(0.862648 -0.0784732 1.52834e-21)
(0.991952 -0.103571 8.11404e-21)
(1.03869 -0.0957845 -2.3422e-20)
(0.346006 -0.0280121 1.80036e-20)
(1.03471 -0.183039 -1.73685e-20)
(1.01795 -0.00629965 0)
(1.02978 -0.00308289 4.4136e-23)
(0.614984 -0.0875057 -2.29719e-21)
(0.906415 -0.100431 1.09672e-22)
(1.06946 -0.128456 4.86288e-20)
(1.06501 -0.0481835 0)
(1.07982 -0.0134253 0)
(1.00886 0.000354111 1.21888e-23)
(1.01634 -0.00342249 -1.32255e-21)
(0.949035 -0.118067 -2.92981e-21)
(1.0089 0.000458308 3.57991e-23)
(1.02937 -0.0157332 2.70463e-21)
(1.00909 0.000348448 -2.56455e-24)
(1.01039 -0.00150727 0)
(1.02324 -0.169503 3.51262e-20)
(1.03506 -0.0823698 0)
(1.02313 -0.0258472 -1.92611e-22)
(1.00893 0.000441408 -3.95233e-23)
(0.487974 0.00902205 -2.57943e-20)
(1.01404 -0.0633439 0)
(1.01029 -0.00192716 0)
(1.00591 -0.000104389 0)
(1.01042 -0.0036687 0)
(1.02015 -0.000355335 7.50487e-21)
(0.0109138 0.0688676 0)
(0.970012 0.00651995 -5.10857e-21)
(0.950314 -0.026749 2.14413e-21)
(0.147005 0.057599 1.69501e-20)
(0.863756 -0.129785 4.73898e-21)
(1.06487 -0.0448633 1.13945e-20)
(0.564608 -0.00210775 -6.19313e-21)
(0.570022 -0.0386157 8.28263e-21)
(1.00245 0.000333509 -2.90903e-22)
(1.05607 -0.049432 0)
(1.00924 0.000183751 -4.13057e-24)
(1.0088 -0.0107043 -3.45766e-23)
(1.02036 -0.0325882 -1.67593e-20)
(1.02048 -0.0788042 -4.5439e-20)
(0.97731 -0.159586 1.15549e-21)
(1.08509 -0.107876 0)
(1.03509 -0.0347679 9.29153e-21)
(1.01052 -0.000816986 -2.00541e-22)
(1.01839 -0.0220277 -4.71722e-22)
(1.02621 -0.0057889 -3.41354e-22)
(0.930226 0.0536709 1.07908e-22)
(1.04936 -0.0844349 -2.26102e-20)
(1.02179 -0.00311786 -4.84318e-21)
(1.04367 -0.00708967 5.44855e-22)
(1.0087 -0.000578095 3.96458e-22)
(1.04834 -0.0329072 -7.08077e-21)
(1.03089 -0.0871614 3.93922e-20)
(1.03168 -0.00456192 -4.87309e-21)
(1.01666 -0.00558536 -1.13362e-21)
(1.01218 -0.0228708 1.31449e-21)
(1.02908 -0.00733859 2.80308e-21)
(1.03392 -0.0792388 1.72211e-20)
(1.02268 -0.0995549 -1.69639e-20)
(1.03362 -0.0900805 0)
(1.01738 -0.0191209 -2.5285e-21)
(1.07143 -0.132184 2.32921e-21)
(1.01025 -0.000769971 2.03925e-22)
(1.02488 0.0690138 2.25814e-21)
(1.00491 0.0188746 -2.39367e-23)
(0.0839953 0.0760739 0)
(1.02458 -0.0095148 0)
(1.00431 -0.000101983 -1.87774e-22)
(1.00933 -0.210273 -2.69433e-20)
(1.02909 -0.00954188 -6.09761e-21)
(0.706785 -0.016606 1.20137e-20)
(0.811096 -0.108814 2.2306e-20)
(0.00509569 0.0745836 2.39615e-20)
(0.767847 -0.0647593 0)
(1.00935 -0.000758646 -1.08106e-21)
(1.05153 -0.216689 2.72108e-20)
(1.02326 -0.00193002 1.4015e-22)
(1.01025 -0.00166541 2.01674e-21)
(1.00703 3.86136e-05 1.92219e-23)
(1.01046 -0.00167369 -1.60255e-21)
(1.03449 -0.00940082 0)
(1.03964 -0.00733622 1.55985e-21)
(1.01696 -0.00357006 1.12684e-21)
(1.00862 0.000359801 3.25172e-23)
(1.04623 -0.144289 3.98134e-20)
(0.992557 -0.0105547 1.06736e-21)
(1.06026 -0.143289 -3.1541e-20)
(1.01171 -0.00302283 8.83113e-22)
(1.00668 4.8805e-05 4.47178e-23)
(1.00494 1.13537e-05 -1.54068e-23)
(1.02727 -0.0865018 2.32992e-20)
(1.0407 -0.0648235 2.59385e-20)
(1.08144 -0.0741687 0)
(1.0477 -0.0336556 0)
(1.02434 -0.00161447 -1.08431e-22)
(1.00374 -4.96239e-05 -2.96188e-22)
(1.00749 -0.000253076 0)
(1.01233 -0.00404806 -1.21152e-21)
(1.02228 -0.127229 -2.59641e-20)
(0.344824 -0.143625 -6.2972e-22)
(1.0286 -0.00706983 2.73108e-21)
(1.00863 0.000343642 -3.07216e-23)
(1.02991 -0.00129325 0)
(1.01237 -0.00414651 1.71939e-21)
(0.95315 -0.0901763 1.97318e-21)
(-0.0210712 0.039419 -4.32195e-20)
(1.01823 -0.0235912 9.70432e-21)
(0.958335 -0.0520946 0)
(0.861149 -0.124599 -2.20877e-21)
(1.01644 -0.00531944 1.07991e-21)
(1.04673 -0.11238 1.60779e-20)
(0.0542803 0.0700932 0)
(1.05609 -0.0518086 -2.05263e-20)
(0.718183 -0.0481492 0)
(1.03422 -0.00908319 -5.80753e-21)
(1.03498 -0.00681179 -6.48792e-22)
(1.07924 -0.0728357 0)
(1.03655 -0.00789781 -1.96995e-21)
(0.976956 -0.0695078 4.50801e-21)
(1.02303 -0.00374317 0)
(0.824873 0.00282088 0)
(1.00355 6.79859e-06 1.49697e-23)
(1.07801 -0.0341987 -3.08265e-20)
(0.65529 -0.0524855 7.14133e-21)
(1.01516 -0.00258155 2.93617e-22)
(1.02803 -0.0099426 0)
(1.07563 -0.020072 1.15133e-21)
(1.00918 -0.000861692 3.58135e-23)
(1.0345 -0.0261202 0)
(1.0559 -0.0816006 1.74421e-21)
(-0.0920809 0.126322 -1.85361e-20)
(1.0482 -0.082531 4.299e-22)
(1.02993 -0.0822009 3.61691e-21)
(1.01344 -0.0330377 0)
(1.00872 0.000289112 -2.26133e-23)
(1.01156 -0.00290769 -8.5642e-22)
(-0.0810429 0.124981 -4.27571e-21)
(1.07005 -0.144735 -8.6057e-21)
(1.02698 0.0140593 0)
(0.842435 -0.114354 -1.46825e-20)
(1.01013 -0.00142129 -1.88789e-22)
(1.01678 3.29677e-06 -8.15674e-21)
(1.00732 3.7803e-05 0)
(0.853993 -0.10805 -1.12903e-20)
(1.03706 -0.174775 0)
(1.02604 -0.0133694 0)
(1.02107 -0.0102243 -1.18554e-21)
(0.990206 -0.0240563 1.10145e-22)
(1.04601 -0.023736 0)
(1.00517 1.78079e-05 1.83391e-23)
(0.0121948 0.0706088 -2.3369e-20)
(1.05091 -0.124378 -1.03682e-22)
(0.83941 -0.0510783 1.786e-20)
(1.00913 0.000619419 5.32553e-23)
(1.02866 -0.00669427 0)
(0.611673 -0.00407802 0)
(-0.00827992 0.014939 -9.83409e-22)
(1.08206 -0.146106 4.85447e-20)
(1.02461 -0.00527206 1.11675e-23)
(1.00589 -0.192245 -2.23338e-20)
(1.02275 -0.00412699 2.26807e-21)
(0.99237 -0.028697 2.1055e-22)
(1.00523 -0.0875435 4.61413e-21)
(1.00742 -0.0635931 -1.08017e-20)
(1.02988 -0.0212122 -1.13881e-22)
(0.0243747 0.0698331 -7.08118e-22)
(1.0192 0.021002 -3.04781e-22)
(1.02251 -0.0111807 -3.02425e-22)
(1.06132 -0.183851 0)
(1.00453 -9.74956e-05 1.24724e-23)
(1.00287 -6.82858e-05 2.23213e-21)
(1.02758 -0.0111411 -5.30772e-21)
(1.0101 -0.000765881 0)
(0.0150848 0.0727584 -3.04422e-20)
(1.02529 -0.0336362 -1.21416e-20)
(1.03945 -0.0982878 0)
(1.02404 -0.0252076 2.62558e-22)
(0.991235 -0.0178589 1.80848e-22)
(1.01069 -0.000828691 8.51419e-22)
(1.06134 -0.0735399 -2.03114e-22)
(1.00646 -0.000227118 9.53103e-22)
(1.02185 0.0217959 0)
(1.0066 2.86585e-05 4.77134e-23)
(1.01587 -0.00499272 2.18398e-21)
(1.01209 -0.000835631 0)
(0.918424 -0.0941315 1.01491e-21)
(1.01218 -0.00391781 9.38907e-22)
(1.00766 0.000117351 0)
(0.990604 -0.00858723 3.90265e-22)
(1.03053 -0.00319787 4.83551e-21)
(0.631608 -0.0159354 -8.56808e-21)
(1.00302 -1.94916e-06 0)
(1.02755 -0.00261221 1.04782e-21)
(1.07186 -0.0909213 -1.00392e-20)
(0.943261 -0.0852718 0)
(0.882002 -0.0198865 0)
(1.00807 -0.000285958 -5.11779e-22)
(1.04151 -0.0450756 0)
(0.982594 -0.0564965 1.39491e-21)
(1.03041 -0.0110298 0)
(0.980931 -0.118821 0)
(1.0761 -0.0338572 2.79948e-20)
(1.00974 -0.000712078 -8.15069e-22)
(1.02194 -0.0217456 0)
(-0.00582687 0.0871176 -2.63922e-20)
(1.03318 -0.0455895 4.97388e-22)
(1.0269 -0.0197809 3.45842e-21)
(1.00837 -0.000344861 3.09306e-22)
(1.00831 0.000277565 -2.59907e-23)
(0.918308 -0.0405407 0)
(1.00195 -0.065266 -1.05751e-20)
(1.00411 -0.00361142 0)
(1.02511 -0.0128704 8.9699e-22)
(1.02074 -0.0220468 -3.48261e-22)
(1.01956 -0.000312499 2.0735e-21)
(1.02664 -0.0035901 -3.56322e-22)
(1.1027 -0.108344 -3.20196e-21)
(0.954773 -0.107042 -3.67191e-22)
(1.03053 -0.0794335 1.5653e-20)
(1.0037 -0.116334 0)
(1.02815 -0.00641806 8.95889e-21)
(1.03125 -0.0779577 -1.56582e-20)
(1.05701 -0.0957474 -1.12737e-20)
(0.772284 -0.161648 3.07007e-20)
(1.02625 -0.0125144 0)
(0.625797 -0.296703 0)
(1.02154 -0.0912298 2.18006e-20)
(1.03101 -0.00283257 -4.28085e-21)
(0.298803 0.00931766 -2.16614e-20)
(1.04835 0.0595422 -2.67482e-21)
(1.03112 -0.0583129 2.37447e-20)
(-0.0748921 0.138673 0)
(0.972597 -0.0744746 1.56058e-20)
(0.887539 0.119176 0)
(1.01505 -0.0352789 1.09627e-20)
(1.00986 -0.000713224 0)
(1.0406 -0.0116888 0)
(-0.0269064 0.0494503 0)
(0.122132 0.0282284 1.23211e-20)
(1.01247 -0.00277258 0)
(1.0031 -3.12799e-05 -1.6206e-22)
(1.06166 -0.0853213 1.54757e-20)
(0.923438 0.00846954 2.94403e-22)
(1.00831 0.00028413 0)
(-0.013463 0.0309786 0)
(1.0099 -0.00129371 2.36875e-22)
(1.02255 -0.0060296 2.67509e-21)
(0.0054227 0.0768017 0)
(0.63302 -0.00432272 8.18256e-21)
(1.01518 -0.0336405 1.49036e-22)
(1.01023 -0.00169928 -2.55639e-21)
(1.02114 -0.000577058 0)
(-0.0109486 0.0204879 1.68738e-20)
(1.02429 -0.124762 3.08334e-20)
(1.07181 -0.12461 1.4115e-21)
(1.00629 -0.00342885 0)
(0.937051 -0.0395962 0)
(0.997883 -0.102793 -1.95556e-20)
(1.05634 -0.075749 0)
(1.05416 -0.0729406 0)
(1.0638 -0.0589085 0)
(1.02805 -0.010684 -5.5354e-21)
(1.03027 -0.00406457 7.5278e-21)
(0.584699 -0.0699576 -8.97926e-22)
(1.09092 -0.067201 0)
(0.28066 -0.00715176 -7.48998e-21)
(0.997109 0.0110752 3.60208e-22)
(1.06135 -0.048009 1.92167e-20)
(0.024365 0.0688563 -6.02493e-23)
(1.01256 -0.0521564 -2.94365e-20)
(0.701805 -0.0199143 1.822e-20)
(1.02518 -0.0041091 0)
(1.06572 -0.0408677 -5.72523e-21)
(1.01017 -0.00181124 8.5564e-22)
(1.01707 -0.0207729 -3.16694e-21)
(1.02785 -0.0100775 4.11558e-21)
(0.63254 -0.0783039 0)
(1.01155 -7.10126e-05 9.79948e-24)
(0.48766 -0.0732086 -2.67071e-20)
(1.00813 0.000209713 2.84269e-23)
(1.07053 -0.0890948 2.19412e-20)
(1.01658 -0.00430854 0)
(0.999686 -0.0940314 -8.97997e-21)
(1.06582 -0.0463164 -1.37738e-20)
(1.06368 -0.0405767 0)
(0.957218 -0.0540721 0)
(1.07137 -0.0620853 -1.75902e-20)
(1.01398 -0.00101258 8.88936e-23)
(1.00456 -8.27318e-05 -1.17859e-21)
(1.06727 -0.0882537 -3.95641e-21)
(0.82918 0.0473538 -4.54305e-22)
(1.08568 0.0146442 -1.51654e-21)
(1.02871 -0.0150224 0)
(0.631003 0.00119485 -9.98083e-21)
(1.00982 -0.00269684 -5.89213e-23)
(-0.0335479 0.134488 0)
(0.858462 0.0776689 2.43393e-22)
(1.02595 -0.00882666 6.99771e-21)
(0.894463 -0.144246 -1.75896e-20)
(-0.00591478 0.0781073 3.79554e-20)
(0.653454 -0.0216412 -1.02286e-21)
(0.894939 0.119982 -2.24387e-21)
(0.9993 0.0133962 0)
(1.01237 -0.00400567 1.66288e-21)
(0.830794 -0.0449448 -9.6505e-21)
(1.01697 -0.00015703 -3.30734e-21)
(0.800645 0.157388 -3.57149e-21)
(0.577623 -0.0535466 -8.40124e-21)
(1.01177 -0.00330948 1.83877e-21)
(1.04756 -0.0118393 7.42864e-21)
(1.02819 -0.0961757 -2.93418e-20)
(0.992657 -0.0909102 -1.3949e-21)
(0.426069 -0.280399 -6.64889e-21)
(1.02672 -0.00755554 8.6053e-21)
(1.0066 -0.000201268 1.88873e-22)
(0.577558 -0.213507 0)
(0.626309 -0.0515786 0)
(1.0369 -0.0948108 2.42592e-20)
(1.02741 -0.0190799 -3.39984e-21)
(1.00791 -0.00402679 3.56416e-23)
(0.855406 0.0993422 1.41567e-21)
(-0.00440227 0.0737459 0)
(1.05459 -0.0962678 1.03393e-22)
(1.0077 0.000119827 0)
(1.01474 -0.0372782 -1.14556e-20)
(1.00918 -0.000957655 -8.48579e-24)
(1.00762 -0.000215404 8.20425e-22)
(1.01266 -0.0285957 1.57052e-22)
(1.00292 -3.61072e-05 3.0087e-22)
(0.967393 -0.126455 0)
(0.98517 -0.0220624 0)
(1.02259 -0.00620889 1.35808e-21)
(1.02922 0.00145602 0)
(1.01236 -0.00402273 7.97952e-22)
(1.02767 -0.0115092 1.78938e-21)
(0.427118 -0.00384599 0)
(0.902241 -0.0387701 -3.82865e-21)
(1.04231 -0.0390203 -2.19469e-20)
(0.644816 -0.279902 0)
(1.01658 -0.00414867 1.57206e-21)
(1.03946 -0.0382421 0)
(1.01234 -0.00365821 4.24692e-22)
(1.00929 -0.0010459 6.93934e-22)
(1.02352 -0.00793891 -2.47259e-21)
(1.02221 -0.00607288 -1.29588e-21)
(0.499203 -0.0214289 1.09811e-20)
(1.02357 -0.00422329 8.30114e-21)
(1.07615 -0.0729446 -1.14414e-20)
(1.02531 -0.00444408 -6.68265e-23)
(1.02713 -0.0208425 -3.30877e-21)
(1.01338 -0.030054 0)
(-0.0101111 0.0101712 0)
(1.00755 -0.000351071 -2.34405e-21)
(0.634969 -0.0627929 1.83764e-21)
(1.00224 -0.00405693 -2.29775e-22)
(1.01243 -0.104345 -2.2149e-20)
(1.02558 -0.0352294 8.90454e-21)
(1.03172 -0.040778 1.02963e-20)
(0.282347 0.00058542 1.02176e-20)
(1.04969 -0.0327855 6.51916e-21)
(1.02755 0.00834892 0)
(0.63468 -0.0641032 -2.43803e-20)
(0.965243 0.0696527 -7.03606e-22)
(-0.0165358 0.0682364 3.16808e-21)
(1.03108 -0.0515208 3.96371e-21)
(0.983515 -0.0569306 0)
(1.02407 -0.00924469 -1.7439e-21)
(1.07061 -0.0596494 -2.83516e-20)
(1.05456 -0.0703809 0)
(0.461487 -0.278708 2.48587e-20)
(1.00744 -0.000213252 -5.58605e-22)
(-0.0219101 -0.0660939 5.29633e-20)
(1.01146 -0.00273016 -2.50186e-21)
(1.0118 -0.0032222 0)
(-0.0730616 0.159129 -2.87776e-20)