/*--------------------------------*- C++ -*----------------------------------*\
| =========                 |                                                 |
| \\      /  F ield         | OpenFOAM: The Open Source CFD Toolbox           |
|  \\    /   O peration     | Version:  v2012                                 |
|   \\  /    A nd           | Website:  www.openfoam.com                      |
|    \\/     M anipulation  |                                                 |
\*---------------------------------------------------------------------------*/
FoamFile
{
    version     2.0;
    format      ascii;
    class       volScalarField;
    location    "650";
    object      k;
}
// * * * * * * * * * * * * * * * * * * * * * * * * * * * * * * * * * * * * * //

dimensions      [0 2 -2 0 0 0 0];


internalField   nonuniform List<scalar> 
13851
(
0.00020236
0.000155333
0.000155127
0.019202
0.000148439
0.000157894
0.000156288
0.000147754
0.0531926
0.000148425
0.000177303
0.000148473
0.000149098
0.0292444
0.000170544
0.000208098
0.0166837
0.000148865
0.000278842
0.000202164
0.000173548
0.000156375
0.0349906
0.000149734
0.0415911
0.000187919
9.55044e-05
0.0259867
0.049385
0.000146898
0.043666
0.000156257
0.000202574
0.0718928
0.000170504
0.048954
0.00014981
0.034647
0.0644675
0.000149064
0.0702776
0.0514682
0.00605964
0.000219306
0.0544774
0.00014786
0.000145604
0.000205951
0.000152949
0.000149048
0.0245804
0.000149296
0.00020793
0.000165955
0.0282943
0.000149062
0.000202687
0.067581
0.000187798
0.0291992
0.000148523
0.000124272
0.000148604
0.000153232
0.000181727
0.000182428
0.0234628
0.000166385
0.000149339
0.0277244
0.0391964
0.000177789
0.000148649
0.0259406
0.000167412
0.000153012
0.0218837
0.000146091
0.0291569
0.000147848
0.000149415
0.000247585
0.000169978
0.0310112
0.0306447
0.0426025
0.000156652
0.0221685
0.000148403
0.0435231
0.000149407
0.00015643
0.00938043
0.0385022
0.0588044
0.000200179
0.000147996
0.000208497
0.0255475
0.000195728
0.000209565
0.000162048
0.000163133
0.000148915
0.00014787
0.00017616
0.00014786
0.0414411
0.000156392
0.000148704
0.000160058
0.000147878
0.000204531
0.000179737
0.000203153
0.000165028
0.000146614
0.00014724
0.0167361
0.0311276
0.000190399
0.000147928
0.000149244
0.048727
0.000226073
0.000172267
0.000147989
0.000171979
0.0654653
0.000177036
0.000156285
0.00016317
0.0128371
0.0705545
0.000177965
0.0583669
0.000165957
0.0412574
0.000160251
0.000177067
0.000236573
0.000150634
0.000148426
0.000171332
0.0448531
0.000152502
0.000146017
0.03902
0.0430498
0.000172671
0.000209244
0.000202855
0.000180894
0.000226619
0.000149636
0.000148703
0.000148615
0.0606464
0.000174861
0.000154686
0.000149584
0.0492685
0.000175724
0.000205966
0.0299221
0.0576646
0.0589984
0.0291547
0.000159887
0.0789285
0.000148628
0.000146591
0.000179986
0.000148827
0.0621903
0.000189926
0.000211305
0.000146525
0.000167471
0.000210561
0.000225128
0.000220162
0.000159412
0.00017681
0.00696686
0.0438385
0.000202571
0.000157519
0.000149447
0.000147358
0.0289027
0.000174798
0.0236841
0.000158134
0.000152237
0.000208234
0.000202007
0.000150118
0.000149976
0.000167396
0.000236458
0.0631915
0.0676729
0.000170571
0.000318569
0.0592967
0.000152343
0.000177309
0.0544781
0.000156884
0.000207919
0.000149184
0.000243628
0.000149538
0.000171205
0.000154164
0.000148957
0.000220129
0.000150161
0.000496813
0.000146489
0.000201943
0.0262387
0.0601037
0.000157172
0.000177614
0.000149743
0.000169636
0.000148087
0.000170799
0.0317918
0.000157106
0.000156851
0.000148725
0.0655709
0.000146894
0.0193436
0.06653
0.000192182
0.000149645
0.000352469
0.0313254
0.0548649
0.000207648
0.000166491
0.000174832
0.000216939
0.000167764
0.000199255
0.000161504
0.0238815
0.000201616
0.000147231
0.00015842
0.00020899
0.0478994
0.025444
0.000147296
0.000172849
0.000148372
0.000215309
0.000225319
0.000159055
0.0001763
0.00020238
0.000148355
0.000162566
0.000200946
0.0141361
0.000148514
0.00014893
0.000157307
0.0634068
0.0116267
0.000176355
0.000148105
0.000224477
0.000225608
0.000199728
0.000175972
0.0618353
0.024974
0.000159346
0.000167685
0.0333756
0.000147867
0.000148606
0.000200266
0.00017417
0.000146974
0.000149518
0.000148043
0.000147887
0.00016661
0.000148562
0.0549389
0.000174675
0.000148546
0.0476967
0.0460243
0.000149382
0.000202493
0.0247549
0.000150866
0.00014946
0.000175752
0.0287287
0.075344
0.00018285
0.000148355
0.0763912
0.000148576
0.00018441
0.0297867
0.0127967
0.000154359
0.0207837
0.00126367
0.0463078
0.000201915
0.000162743
0.0633098
0.0552079
0.020777
0.000150227
0.0239423
0.00836274
0.000212622
0.000207735
0.000152368
0.000182084
0.000157951
0.0234524
0.000163607
0.000147038
0.000144925
0.000158583
0.0430039
0.000375297
0.000147796
0.0575805
0.000157991
0.000163418
0.000154946
0.024296
0.000224403
0.000208534
0.000153756
0.000156151
0.0470006
0.000149477
0.00022996
0.000159251
0.000175654
0.00015858
0.000148391
0.000148521
0.000198114
0.000199248
0.000201834
0.00368934
0.0478643
0.000152628
0.0644579
0.000226953
0.000146993
0.0153531
0.000192083
0.0301323
0.00015806
0.000189602
7.90362e-05
0.025003
0.000196192
0.0262165
0.00015136
0.000175875
0.00655121
0.00016346
0.0288604
0.000165745
0.0697419
0.000167302
0.000174536
0.000201501
0.00021291
0.000148713
0.000158597
0.000175195
0.000167738
0.000148017
0.000176724
0.0737789
0.000148637
0.000177268
0.0118873
0.000154673
0.00175546
0.000177209
0.0787576
0.000157581
0.000186375
0.000314121
0.000231369
0.000175548
0.0216895
0.0262488
0.000361037
0.000148377
0.000197313
0.000165716
0.000189236
0.00014794
0.00708765
0.0777674
0.0297033
0.000156097
0.000202168
8.44677e-05
0.0126982
0.000145728
0.0177584
0.000221074
0.0334576
0.000162139
0.0311784
0.000148645
0.000148752
0.0244013
9.1587e-05
0.000148443
0.000155361
0.000177687
0.000146814
0.075961
0.000182434
0.000191622
0.000158518
0.000151401
0.000149335
0.0141694
0.000148504
0.00014926
0.0352673
0.0730266
0.000155724
0.000230941
0.000148644
0.00014855
0.000155237
0.000202288
0.000177105
0.000148105
0.000152234
0.000189812
0.000153663
0.0785293
0.000148435
0.000161352
0.0552701
0.00016087
0.000145274
0.00014875
0.000158352
0.000150687
0.000353303
0.0423815
0.000166742
0.000597569
0.00015537
0.000148337
0.0630954
7.53332e-05
0.000160217
0.000148771
0.0528608
0.000159644
0.00104915
0.000148911
0.000163557
0.000197076
0.000169168
0.05938
9.16235e-05
0.0221811
0.000152761
0.000203357
0.000148367
0.0480718
0.000177044
0.000201974
0.000165547
0.000153422
0.000160902
0.0001805
0.000148512
0.0132735
0.0609095
0.0796294
0.00721542
0.0409203
0.0326582
0.000230013
0.000156657
0.000149348
0.00364862
0.000148425
0.000147987
0.000157847
0.0648925
0.000155049
0.000150609
0.000173763
0.000174385
0.000148485
0.0857513
0.000147976
0.0675219
0.000335729
0.000147851
0.000154082
0.000225375
0.0170014
0.000146987
0.0614745
0.0166838
0.000147417
0.0546758
0.000274731
0.000201562
0.000152711
0.0339067
0.0298311
0.000147678
0.000243501
0.000149278
0.000147999
0.0238057
0.0705729
0.000169981
0.00017648
0.000148441
0.000183302
0.0674861
0.0607574
0.000148416
0.0230795
0.000148071
0.000149353
0.000175774
0.000161565
0.000145701
0.000153001
0.0565912
0.000209937
0.0530623
0.000154432
0.00014836
0.0635278
0.000149157
0.000198202
0.000161057
0.000167384
0.000166172
0.0548323
0.0296399
0.000157992
0.016591
0.00015381
0.000181499
0.0523537
0.0342257
0.000149205
0.000148394
0.000163599
0.0543274
0.000249191
0.000182918
0.00588284
0.000161773
0.000166441
0.0387515
0.0872833
0.00018236
0.0656479
0.000215069
0.049797
0.000150753
0.000103511
0.0129564
0.000148469
0.0105843
0.0872877
0.000159907
0.000177004
0.000148956
0.000508175
0.000175734
0.0535458
0.000148529
0.000149021
0.000155409
0.000173902
0.000148498
0.0618607
0.000148981
0.000213211
0.000152735
0.000189759
0.000148896
0.000148511
0.000167663
0.0232895
0.000175178
0.0565386
0.000163583
0.000146896
0.000147741
0.000180223
0.000152186
0.000189711
0.000155872
0.000159907
0.000105459
0.000149166
0.0210738
0.00014967
0.000197068
0.0190416
0.0580129
0.000156881
0.0461394
0.00017318
0.000205424
0.0867924
0.000148828
0.0881909
0.000158057
0.000164336
0.00915601
0.00383997
0.000147166
0.000189135
0.000150016
0.04842
0.025517
0.000149758
0.000167214
0.0780333
0.00014974
0.000149663
0.000188239
0.0177761
0.0254845
0.000149473
0.000201337
0.000153212
0.000148543
0.000362264
0.000201942
0.000194788
0.000145456
0.000200957
0.000163923
0.000184543
0.00015061
0.000151946
0.00017444
0.000155219
0.000203471
0.000177727
0.000177551
0.000178737
0.000458823
0.000272717
0.0631087
0.0517664
0.000207604
0.037857
0.000163507
0.0276829
0.00020254
0.000148545
0.000165799
0.00023107
0.000157612
0.00014784
0.000147785
0.000197118
0.0234291
0.000161579
0.0633981
0.000146933
0.0298789
0.000178378
0.0235298
0.000188613
0.000157767
0.000155177
0.0275974
0.000195016
0.000163166
6.92983e-05
0.000151031
0.00318101
0.000197377
0.000213786
0.000164732
0.000288166
0.000148638
0.000149612
0.000151922
0.00014856
0.05251
0.000147878
9.87656e-05
0.0621053
0.000189162
0.0625456
0.028381
0.00021501
0.000210031
0.000156719
0.000149138
0.00014885
0.000146104
0.0001477
0.000148843
0.000182021
0.0002037
0.000164683
0.0175376
0.000151919
0.0529947
0.000149954
0.0222455
0.000168657
0.000149881
0.000148822
0.0583289
0.000158136
0.0324047
0.0874235
0.000176102
0.000184951
0.000147255
0.0705859
0.000153613
0.000155144
0.000102837
0.000149163
0.000150602
0.000148546
0.00017699
0.0251623
0.000161274
0.000165249
0.000226711
0.0571316
0.000157093
0.00015642
0.0515369
0.000146048
0.0506703
0.000149289
0.000153745
0.0265846
0.000191048
0.00020256
0.000184249
0.000175467
0.000149477
0.000149954
0.000182798
0.000150929
0.00014953
0.0001624
0.00021876
0.000147778
0.000201441
0.000994664
0.0240593
0.000184035
0.0436031
0.000160445
0.000149106
0.000194873
0.000147029
0.000158732
0.0598323
0.0474592
0.0879096
0.0523922
0.000149951
0.000149616
0.000169166
0.000151623
0.00014773
0.0295263
0.000216406
0.0304502
0.000197452
0.000191385
0.000148611
0.000146952
0.00412592
0.000191514
0.000154366
0.000149658
0.00020277
0.000206927
0.0650817
0.00014959
0.000148939
0.0216664
0.000150554
0.000165965
0.000146819
0.0663935
0.000148186
0.0214199
0.000148488
0.000189252
0.0001715
0.000168761
0.000165092
0.00014864
0.000155316
0.000148026
0.000101548
0.00015058
0.0299165
0.000151283
0.0387905
0.0639311
0.000163313
0.000147888
0.0133149
0.0437501
0.000158593
0.00019107
0.000148833
0.0204509
0.000148673
0.000233632
0.000148394
0.000148004
0.0273951
0.000166432
0.000148684
0.000166485
0.06511
0.000421426
0.079725
0.000147264
0.0405751
0.000148477
0.000147822
0.00014963
0.000144531
0.000149532
0.082823
0.0639355
0.000150204
0.000148954
0.000170462
0.000147891
0.0167435
0.000195963
0.0332657
0.0646232
0.000155226
0.000203351
0.000148424
0.000173272
0.000175395
0.000148722
0.00014935
0.000555274
0.0272247
0.000184371
0.00821645
0.000183827
0.000148629
0.000171079
0.000191505
0.0201525
0.000165511
0.00695517
0.000192118
0.000149458
0.0569842
0.054369
0.0305932
0.019073
0.0219771
0.0001527
0.000174535
0.000149263
0.00360745
0.000157105
0.000147058
0.0812896
0.00015167
0.000147893
0.000149213
0.000151356
0.0632288
0.000229934
0.00014732
0.000171541
0.0293582
0.000152217
0.00749719
0.000151684
0.000189602
0.0691973
0.000148586
0.000190531
0.000160114
0.000164415
0.000485234
0.000151655
0.000243477
0.000186032
0.0692056
0.000150477
0.0280894
0.000162986
0.0407524
0.0214678
0.0228817
0.000176257
0.000148714
0.00015002
0.000149739
0.000173172
0.000148769
0.0614619
0.000158741
0.000156603
0.000156938
0.0001526
0.0001472
0.000160404
0.000158288
0.000154055
0.00015741
0.084499
8.48646e-05
0.000162616
0.000169614
0.0812286
0.000150698
0.0459936
0.000146081
0.000161131
0.000150599
0.000148462
0.000166778
0.000148306
0.000147272
0.000162869
0.000148752
0.000214703
0.000151764
0.00935147
0.00414787
0.000218494
0.000229402
0.000149599
0.0590802
0.000205851
0.000149476
0.00015808
0.0001504
0.0493895
0.000151658
0.000162678
0.0159284
0.00976143
0.000177705
0.000149648
0.0554269
0.0105951
0.0259777
0.000160025
0.000146848
0.000148349
0.000182928
0.000148676
0.0254658
0.000198957
0.000149283
0.000227099
0.000219044
0.000148436
0.0857272
0.0194469
0.000215373
0.000151543
0.0545807
0.000181855
0.000148061
0.0250645
0.000156242
0.000148196
0.000147982
0.000166273
0.000173401
0.0578604
0.0466967
0.000174102
0.0592101
0.000167739
0.000148462
0.00016868
0.000147803
0.00195225
0.000148559
0.000148191
0.000153262
0.000150832
0.0630929
0.0233127
0.000246178
0.0288105
0.0857165
0.000157164
0.000148697
0.000151759
0.00024722
0.000148489
0.000148625
0.000169296
0.0374898
0.000188857
0.000145992
0.00016561
0.000165397
0.000201411
0.00708014
0.000147435
0.000145582
0.000154166
0.0181087
0.000162339
0.0672865
0.000151892
0.000149018
0.000148259
0.00014798
0.000154149
0.000214496
0.049974
0.0570969
0.000156894
0.000148342
0.00195667
0.000150716
0.0407019
0.0368979
0.000158227
0.026378
0.0515167
0.0392803
0.000181696
0.000165302
0.0452143
0.000163492
0.000160383
0.000169503
0.000206508
0.000150736
0.000492529
0.000148487
0.0547683
0.0266286
0.000146109
0.000152891
0.000167053
0.000238153
0.000166534
0.000148868
0.000161345
0.000151606
0.000158187
0.000237918
0.000149035
0.0473158
0.0251755
0.000148538
0.000164352
0.000173034
0.000148507
0.046478
0.0126035
0.061091
0.0354251
0.000148227
0.000154494
0.00015744
0.000149683
0.000244026
0.000166973
0.000149686
0.000184284
0.000154896
0.0490347
0.000171698
0.024679
0.000151473
0.000152215
0.000163519
0.000191132
0.00018445
0.000148323
0.00991873
0.0442745
0.0278781
0.0368556
0.0583035
0.0576071
0.0386844
0.000148302
0.000148343
0.000149293
0.000246184
0.000176557
0.000184037
0.0134213
0.000150237
0.000145706
0.000148447
0.000236068
0.000145956
0.000159168
0.000152803
0.0340701
0.000151252
0.000147061
0.000148544
0.00014845
0.000149004
0.000160039
0.000243717
0.000160486
0.0707863
0.000148309
0.000148012
0.0655978
0.0670058
0.0221288
0.0242418
0.000163848
0.0275274
0.000146798
0.000169246
0.000152193
0.000148512
0.000155663
0.0254639
0.00015267
0.000191488
0.00500143
0.000150354
0.000148389
0.000155196
0.000216006
0.000149799
0.0339247
0.000149212
0.000234312
0.000148777
0.000150164
0.000158805
0.000171238
0.000149132
6.21712e-05
0.0400917
0.000219368
0.0709601
0.000148635
0.0238739
0.000168171
0.000148342
0.026462
0.000149655
0.000161785
0.000149443
0.00015012
0.000147655
0.000148519
0.000150352
0.000155794
0.000184541
0.000149864
0.000148604
0.000165622
0.000147047
0.0859671
0.000148777
0.000164523
0.000167731
0.0342363
0.00701911
0.000148935
0.000216056
0.000146767
0.000164678
0.000173046
0.0200757
0.000177303
0.000149802
0.000200072
0.000167817
0.000190764
0.000846017
0.000160984
0.000199826
0.00018281
0.00018548
0.000151156
0.000147975
0.0242537
0.0113141
0.000154803
0.000148039
0.00813057
0.000146992
0.00017263
0.000147802
0.000177041
0.0239149
0.000145191
0.0152673
0.000157794
0.000149071
0.00021074
0.000147047
0.000161259
0.0372182
0.000170681
0.0264148
0.000147625
0.000149749
0.000162106
0.000149477
0.000149609
0.000161249
0.000162199
0.000184485
0.000178556
0.000149033
0.000165588
0.000147819
0.00014838
0.000149402
0.000148357
0.000671238
0.000148626
0.000151777
0.00022075
0.000146945
0.000147961
0.0652546
0.000149634
0.0116124
0.000153043
0.0649809
0.000222541
0.00016434
0.00260634
0.000178025
0.000283601
0.000150635
0.000208697
0.000157954
0.000147886
0.000147877
0.00015173
0.000163914
0.000148377
0.000171262
0.000147362
0.000152205
0.00668038
0.0244537
0.000231536
0.000155494
0.000163254
0.0359501
0.0283324
0.000149113
0.000158853
0.000339009
0.000149925
0.000168729
0.00219008
0.0570895
0.000160118
0.000174599
0.0001511
0.000222087
0.000149893
0.000161225
0.0292363
0.000149332
0.000147945
0.0854587
0.000171134
0.000248525
0.0721396
0.000197262
0.000150086
0.000147384
0.000150286
0.0308732
0.00958578
0.0622737
0.000174781
0.00014859
0.0413165
0.000148679
0.000202
0.000155407
0.00015362
0.00017328
0.000148363
0.0868507
0.0867807
0.000147252
0.00018391
0.000177421
0.00417845
0.000172135
0.000182796
0.00024723
0.000167677
9.72014e-05
0.000183644
0.000148695
0.000168951
0.000168474
0.0378893
0.000148206
0.0046681
0.000173031
0.000184293
0.000149805
0.0827829
0.000158237
0.000152474
0.000147762
0.000166752
0.000166263
0.000166366
0.000148803
0.00015085
0.000172156
0.00831195
0.000175893
0.000148997
0.000150539
0.000168929
0.000221199
0.000149106
0.000180407
0.0263067
0.000167726
0.059496
0.000172886
0.024954
0.000242044
0.000148325
0.00256831
0.000149551
0.00015489
0.000166194
0.000167026
0.000190238
0.000176997
0.000165872
0.000167242
0.000162844
0.000153441
0.000145887
0.000169507
0.000157272
0.000157443
0.00489386
0.000156592
0.000159296
0.000147792
0.0269622
0.000179119
0.000149023
0.000155828
0.000151671
0.02857
0.000198828
0.000166225
0.054095
9.71204e-05
0.000450298
0.000190253
0.000193298
0.000147426
0.000184694
0.000148576
0.000155555
0.0301451
0.0461926
0.00025245
0.000699487
0.000148754
0.0247192
0.000147402
0.000191189
0.000154707
0.0226601
0.0826694
0.000158867
0.00014802
0.000239867
0.000161994
0.000148175
0.0367674
0.00014848
0.000152585
0.000157324
0.000149414
0.000162221
0.000151817
0.000148607
0.000163312
0.000263997
0.000171801
0.000175979
0.000148161
0.0291644
0.0468238
0.000147906
0.000158272
0.000154625
0.00015731
0.0633797
0.000147886
0.000150764
0.000156776
0.0453726
0.000148206
0.000149157
0.000170239
0.0244306
0.000147787
0.000159744
0.000161732
0.00404855
0.000172036
0.000169811
0.0002268
0.000148496
0.000172449
0.000146122
0.0274226
0.000161276
0.000148429
0.000160245
0.000187056
0.000148928
0.000149824
0.000202344
0.0498081
0.000150674
0.0289282
0.000149207
0.000146089
0.000182049
0.000148194
0.000148635
0.0870389
0.000149814
0.000171485
0.000210168
0.0517732
0.00314936
0.00014842
0.000152747
0.000156548
0.000148418
0.00014868
0.0001486
0.0102653
0.00014927
0.00013771
0.000200196
0.000147927
0.000147194
0.00016199
0.000200155
0.000177756
0.000166559
0.000177024
0.000153058
0.0548107
0.000176008
0.000164609
0.000172882
0.000171817
0.000188468
0.0247923
0.000171788
0.0316105
0.0375726
0.0225891
0.000155779
0.000148473
0.000167687
0.000159305
0.000147993
0.000150724
0.000178042
0.000149596
0.000149974
0.00014831
0.000145511
0.000153886
0.000149289
0.0210811
0.000147999
0.0501163
0.000148471
0.00017355
0.000150876
0.00020007
0.000173314
0.000148734
0.0648186
0.000152663
0.000149478
0.000171992
0.000147719
0.000158937
0.000148884
0.0503151
0.000153754
0.000171734
0.000170365
0.0623821
0.000158075
0.000138135
0.00431956
0.000169551
0.000149542
0.00015219
0.000175559
0.000180999
0.0242374
0.000147076
0.0315276
0.000149094
0.000169131
0.0813406
0.000165462
0.0190424
0.000155275
0.000164803
0.000154311
0.086179
0.000162106
0.000148855
0.000168683
0.000200569
0.000152616
0.000148331
0.000148875
0.0634242
0.000149665
0.000157392
0.0682941
0.000155567
0.000148341
0.000171464
0.000154877
0.0522777
0.000145724
0.000148454
0.000147128
0.0001549
0.00015051
0.000149576
0.000183875
0.0635844
0.000148227
0.000148638
0.0567636
0.000150395
0.0156839
0.000154673
0.0793719
0.000147833
0.000153538
0.000146766
0.0328701
0.0708587
0.000159271
0.000169035
0.000155618
0.00014831
0.000148723
0.050568
0.000148818
0.000191221
0.000147512
0.000174709
0.000149228
0.0688402
0.000146979
0.000175939
0.000147808
0.000222836
0.000347013
0.00014751
0.00016624
0.0879427
0.000185306
0.0306402
0.016734
0.000204296
0.00015193
0.000165937
0.000190551
0.0208098
0.000150254
0.000171521
0.000156683
0.000148562
0.0295495
0.0364304
0.000184992
0.00020528
0.000238974
0.000162794
0.0632952
0.00014793
0.000147418
0.000187879
0.0875133
0.000218292
0.000200246
0.00831081
0.000146824
0.0844692
0.0374241
0.0809437
0.000149299
0.030691
0.0438479
0.00037281
0.000395797
0.0471312
0.000191748
0.000161898
0.000204519
0.000154479
0.000148474
0.00167495
0.000191784
0.000145761
0.0353214
0.000149221
0.000158607
0.000173105
0.000155639
0.00277354
0.000160379
0.0118775
0.00017573
0.000154962
0.0302376
0.0718205
0.000201513
0.000149899
0.000154619
0.000183549
0.000168461
0.00014687
0.00017352
0.000167376
0.000198081
0.000148404
0.000211363
0.000153736
0.000168656
0.0401732
9.956e-05
0.000151365
0.000185191
0.0322714
0.000149321
0.000151111
0.077426
0.000228456
0.000154393
0.000155416
0.000148563
0.000174419
0.000157497
0.0511733
0.000189756
0.000150324
0.000149443
0.000166544
0.000159414
0.000671212
0.0284689
0.000147744
0.00014822
0.000158477
0.000149253
0.000154521
0.00015138
0.000151513
0.000154773
0.000148014
0.000154316
0.000149339
0.000177095
0.0167011
0.000149743
0.0750554
0.0157388
0.000146138
0.000182526
0.000187134
0.00017917
0.00015084
0.000191925
0.000159168
0.000168418
0.000162351
0.000152366
0.000149343
0.0238303
0.000161647
0.0262956
0.000150794
0.000148476
0.000148133
0.000173103
0.000148159
0.000176531
0.000183397
0.000325128
0.000147582
8.70893e-05
0.0135239
0.0463364
0.000146764
0.000194977
0.000221626
0.0160236
0.00521685
0.000150327
0.000149799
0.000193833
0.00674289
0.0173545
0.000171635
0.000153312
0.000149499
0.000148123
0.000164604
0.000149272
0.000149106
0.000199631
0.000149754
0.000169203
0.000147792
0.072397
0.0744093
0.0472033
0.0388431
0.0431855
0.00014911
0.000148928
0.0854682
0.000147289
0.000147627
0.000146117
0.00018346
0.0726059
0.0255372
0.000156321
0.000149881
0.000152053
0.000163032
0.0294149
0.000148129
0.0185766
0.0740693
0.000149223
0.000149129
0.0370002
0.00019006
0.000153515
0.000148318
0.0794974
0.0438212
0.00014908
0.000216494
0.000149671
0.0483869
0.000336965
0.000154237
0.0256956
0.0155848
0.0646757
0.000147631
0.000150206
0.000149612
0.000149898
0.0684099
0.000147976
0.000197084
0.000164911
0.0224279
0.000151328
0.000174115
0.000160431
0.00017402
0.0840733
0.0503911
0.000145502
0.000157457
0.000157601
0.000206858
0.0595289
0.000145346
0.0257384
0.000160747
0.000173991
0.000150854
0.000147531
0.000224257
0.000168633
0.0184253
0.00014927
0.000174035
0.000151038
0.000199989
0.000155013
0.0619885
0.0235574
0.000203077
0.000195542
0.000148338
0.000153108
0.000190219
0.000181983
0.0622697
0.0878135
0.000148919
0.0232627
0.000170332
0.0713199
0.000159888
0.000170576
0.00016943
0.000149394
0.0709329
0.000148429
0.000165279
0.0327829
0.0712031
0.000768134
0.0708741
0.00015807
0.000176119
0.000147209
0.0728486
0.000157126
0.0485904
0.000147151
0.0583291
0.000145241
0.00014803
0.000164706
0.00015862
0.00015997
0.000148512
0.0394638
0.000175173
0.000148001
0.000166238
0.0337122
0.000230541
0.000148587
0.0549914
0.000154112
0.000167647
0.000166027
0.000145899
0.000178295
0.000148002
0.0294584
0.00017298
0.000159891
0.000148327
0.000233403
0.000170106
0.000147156
0.0584624
0.0112127
0.000223205
0.000147055
0.00301089
0.000148892
0.000191357
0.000160555
0.000181395
0.0204638
0.0381975
0.000159569
0.071005
0.000169869
0.000157828
0.000147154
0.0676668
0.000179587
0.00019023
0.00016532
0.00014959
0.0239438
0.000183467
0.000241698
0.000234677
0.0869078
0.0397292
0.00770516
0.0324754
0.000158139
0.000158772
0.000148601
0.000149329
0.000145497
0.000210565
0.000158752
0.000159967
0.0610708
0.000147944
0.000147024
0.000173563
0.000200991
0.000160324
0.000147254
0.0644695
0.000154509
0.00017729
0.000149525
0.0221755
0.000157261
0.0820912
0.00016662
0.000166084
0.000171616
0.000148558
0.0102859
0.000228211
0.000180353
0.000148858
0.000147266
0.0246458
0.0434383
0.0477359
0.000148297
0.000180524
0.00139341
0.000149369
0.000147978
0.000149151
0.0710099
0.000171608
0.000163351
0.000160624
0.000158302
0.0573726
0.000179434
0.00022341
0.000159202
0.000165056
0.000145492
0.000183262
0.000173298
0.00014842
0.0490041
0.0525076
0.0623701
0.0483638
0.0401885
0.0841579
0.086282
0.000151467
0.000148474
0.0756567
0.0375904
0.0444368
0.000148974
0.000171052
0.000148589
0.000148204
0.0129336
0.0729057
0.000182741
0.00014804
0.000144456
0.000191439
0.000174849
0.0378583
0.00536912
0.000147019
0.0001473
0.0615754
0.00717457
0.00022916
0.000165951
0.000172198
0.000149295
0.000147334
0.000168714
0.000172604
0.000154118
0.000172357
0.000160297
0.000154564
0.000245793
0.0366122
0.000159338
0.000173892
0.0455187
0.000229813
0.000148688
0.000192572
0.000229567
0.0285375
0.000169647
0.000149578
0.000161927
0.000157604
0.000158589
0.000145905
0.000159023
0.000164654
0.000176211
0.000202118
0.000149497
0.000151913
0.0392833
0.0529196
0.06907
0.000162158
0.000199795
0.000145022
0.00014851
0.000162441
0.000147039
0.0867888
0.000148482
0.000149812
0.000146449
0.048915
0.0203148
0.00015008
0.000183207
0.000158775
0.000161796
0.000161831
0.000159816
0.000171588
0.000166887
0.0204429
0.000158214
0.0396506
0.000167525
0.0679444
0.000160758
0.000147429
0.000147069
0.000192378
0.000202334
0.000146816
0.000163097
0.000161115
0.000176034
0.0359435
0.0232646
0.0448636
0.000149811
0.00102857
0.000158809
0.000164744
0.000148311
0.000179731
0.000152824
0.0306818
0.000291785
0.000166117
0.000148503
0.0521199
0.000155846
0.0356608
0.0365052
0.00024715
0.000153757
0.000197691
0.0506477
0.000607832
0.0512794
0.000177296
0.000148587
0.000167535
0.000148367
0.0837952
0.000154121
0.000162774
7.76957e-05
0.0653246
0.000148369
0.00014835
0.0401371
0.000169835
0.0798688
0.000158784
0.000148318
0.000171133
0.000218159
0.000162546
0.0214845
0.000164637
0.0014839
0.000155765
0.000149611
0.000148265
0.000216325
0.000150642
0.000182405
0.000148651
0.000148841
0.000210886
0.000158447
0.000149381
0.000148214
0.000164702
0.000212712
0.000174327
0.000169089
0.000155329
0.000178295
0.000148802
0.00019122
0.000162632
0.000172615
0.000167016
0.000161394
0.00017438
0.000163132
0.000148236
0.000184713
0.0466109
0.0361006
0.000149643
0.000615298
0.0354458
0.000148299
0.000150629
0.000226907
0.0400795
0.000156244
0.0353089
0.000248989
0.000149622
0.000190957
0.000145438
0.0001578
0.000179106
0.0395797
0.000204004
0.000242851
6.25087e-05
0.0477841
0.0529517
0.000153713
0.0458873
0.000148418
0.00672368
0.0496255
0.000148628
0.000148439
0.0352347
0.000149068
0.000148539
0.000123795
0.0626345
0.000220991
0.000158534
0.0447031
0.000148591
0.0527664
0.0400518
0.000149209
0.000922354
0.0136732
0.0432244
0.0378355
0.0411674
0.034226
0.000147377
0.000151609
0.000179851
0.000183301
0.00014851
0.000226802
0.000148351
0.0422328
0.000185648
0.000164297
0.00024213
0.0432144
0.000195056
0.000240776
0.000165624
0.0183696
0.000258296
0.00015705
0.000145705
0.0121038
0.000161498
0.000147187
0.0815665
0.000148291
0.0162889
0.000149178
0.0714697
0.000157489
0.000148215
0.00695003
0.000156051
0.000160617
0.0317482
0.0792844
0.000676057
0.000160737
0.000176359
0.00015192
0.000172323
0.000198888
0.00017265
0.000149351
0.00031661
0.000180864
0.000161878
0.0331605
0.000171135
0.000162393
0.000198813
0.000183774
0.000175524
0.000148189
0.000207331
0.000147101
0.000199107
4.9313e-05
0.0404633
0.000147169
0.000168606
0.0245767
0.000153148
0.000178624
0.000165013
0.000170608
0.0802408
0.000181161
0.000151982
0.0298436
0.000147208
0.0513247
0.000148785
0.00015229
0.000199311
0.0486758
0.000162058
0.000188573
0.000218591
0.0001649
0.000149871
0.000177053
0.000172116
0.0612303
0.000155311
0.00398941
0.000202283
0.000164962
0.000161688
0.000178091
0.000166649
0.000167532
0.000181301
0.000162719
0.000154527
0.000149842
0.000957592
0.000148544
0.00016046
0.000145482
0.000197626
0.000161103
0.000181547
0.0430118
0.000151247
0.000221418
0.000144661
0.000149228
0.000149222
0.00014933
0.000159309
0.000147703
0.000191435
0.0247946
0.000181726
0.000174467
0.000156778
0.000148981
0.000121196
0.000148736
0.044588
0.050987
0.0273011
0.000207107
0.000164136
0.000160139
0.00014915
0.000158172
0.000170364
0.00016932
0.0473243
0.000181902
0.0563304
0.000208208
0.000149353
0.000146923
0.0357292
0.000148286
0.000162527
0.000166504
0.00024029
0.000153445
0.0672702
0.000149096
0.000156159
0.000148596
0.000150612
0.000176934
0.000197954
0.000149743
0.000166268
0.000159694
0.00017529
0.000181938
0.00021719
0.000199216
0.000212793
0.00020551
0.000158984
0.000151787
0.000181948
0.0480444
0.0838791
0.0542847
0.000165248
0.0359158
0.000198017
0.00015179
0.000147987
0.000184664
0.000148921
0.000166285
0.0217011
0.00014813
0.000147844
0.000301053
0.0139829
0.000177346
0.000554714
0.000149073
0.0282423
0.000169251
0.0693533
0.000157242
0.000148808
0.0536989
0.000164866
0.000148614
0.000171898
0.000149666
0.000189939
0.000160311
0.000164049
0.0848738
0.000159672
0.0639364
0.00014776
0.0510071
0.000149146
0.000157388
0.000150453
0.000171496
0.000148881
0.000166212
0.0516884
0.000301033
0.000175194
0.000161404
0.000168191
0.000148246
0.000149202
0.000152552
0.00768001
0.000157092
0.073679
0.0349891
0.00018886
0.000149407
0.000192141
0.000205608
0.000201879
0.000158631
0.0381935
0.000148388
0.000144994
0.000148247
0.013916
0.000149307
0.000148577
0.053652
0.000148152
0.000201164
0.000171796
0.000148246
0.063007
0.000161705
0.0708334
0.000148482
0.00947366
0.000151463
0.000167241
0.0277153
0.000182917
0.00014799
0.000160299
0.0497257
0.00016609
0.000193576
0.000163713
0.000157036
0.000186973
0.000158418
0.000150414
0.00674864
0.000160867
0.000161673
0.000207953
0.000148261
0.000147702
0.000149198
0.000164966
0.000149165
0.00015541
0.0686148
0.0154826
0.000171338
0.00923024
0.000184366
0.000168498
0.0668155
0.0482762
0.000150109
0.0154883
0.0614944
0.0372066
0.00227869
0.000162586
0.0474827
0.0566916
0.0450924
0.00257149
0.0844583
0.000162972
0.000169493
0.000157918
0.000158618
0.000149736
0.000326033
0.000149894
0.0180298
0.000174381
0.000198759
0.000145237
0.00018729
0.000163787
0.000152141
0.000149951
0.000148682
0.000173846
0.00015406
0.000150428
0.000173232
0.054695
0.00015501
0.000192068
0.000146872
0.000173763
0.000169197
0.000149296
0.000156484
0.000147702
0.0718811
0.0658804
0.00020621
0.00687674
0.000161391
0.000189117
0.000148824
0.00017359
0.000148867
0.000150055
0.000149529
0.0632986
0.000147025
0.000177008
0.000256537
0.000157755
0.000163957
0.000148173
0.0656983
0.000206494
0.0393751
0.0344481
0.000201233
0.000241462
0.0329329
0.000244289
6.43359e-05
0.0160949
0.000174309
0.0001591
0.00461151
0.0743198
0.000148355