/*--------------------------------*- C++ -*----------------------------------*\
| =========                 |                                                 |
| \\      /  F ield         | OpenFOAM: The Open Source CFD Toolbox           |
|  \\    /   O peration     | Version:  v2012                                 |
|   \\  /    A nd           | Website:  www.openfoam.com                      |
|    \\/     M anipulation  |                                                 |
\*---------------------------------------------------------------------------*/
FoamFile
{
    version     2.0;
    format      ascii;
    class       surfaceVectorField;
    location    "500";
    object      Uf;
}
// * * * * * * * * * * * * * * * * * * * * * * * * * * * * * * * * * * * * * //

dimensions      [0 1 -1 0 0 0 0];


internalField   nonuniform List<vector> 
20642
(
(0.43196 0.00759885 2.79602e-21)
(0.43882 0.00778072 -1.41849e-20)
(0.453697 0.0106104 -1.54125e-20)
(1.00401 0.0171975 6.62999e-22)
(1.00221 0.0180064 4.56701e-22)
(1.00427 0.019679 -4.52424e-22)
(1.08547 0.0664832 -1.07256e-20)
(1.08573 0.0669031 -1.23911e-20)
(1.08559 0.0664528 -1.06806e-20)
(1.03879 0.0142479 0)
(1.03869 0.0148764 1.4079e-21)
(1.03805 0.0142624 -1.92877e-21)
(1.00956 0.0136465 -2.274e-22)
(1.00901 0.0149823 0)
(1.01057 0.0149052 2.71445e-22)
(1.00627 0.0163643 0)
(1.00471 0.0141852 0)
(1.05445 0.0294747 -6.47224e-21)
(1.05356 0.028803 0)
(1.05358 0.0298116 5.59084e-21)
(0.981444 0.0511268 2.71748e-21)
(0.974836 0.0524761 0)
(0.98148 0.0581129 4.37149e-22)
(1.0655 0.0187557 0)
(1.06481 0.0193088 -4.94334e-21)
(1.06587 0.0197603 0)
(0.0142684 -0.0655105 4.52253e-21)
(0.034018 -0.0754705 2.48747e-20)
(0.987213 0.0512234 1.21593e-21)
(0.982616 0.0460433 2.50897e-21)
(1.02826 0.0124254 -1.90673e-21)
(1.02855 0.0129267 -1.24403e-21)
(1.02884 0.0125328 3.49315e-21)
(1.01296 0.000210356 -2.9198e-21)
(1.01313 0.000138842 -4.2968e-22)
(0.926782 0.160946 4.77254e-22)
(0.877634 0.162981 -4.05087e-22)
(0.937377 0.158658 1.90253e-22)
(1.01773 0.0133689 4.69081e-22)
(1.0173 0.0130357 -3.8769e-22)
(1.01714 0.0139118 -4.00483e-22)
(0.421132 0.00670777 -2.78193e-21)
(0.395853 0.00273482 1.90105e-20)
(1.00131 -1.00288e-05 -2.8393e-22)
(1.0013 -2.5354e-05 7.49766e-23)
(1.00029 -2.37421e-05 7.6514e-23)
(0.992576 0.0510545 -1.50567e-21)
(0.997802 0.0503603 4.46751e-22)
(0.993789 0.0463525 0)
(1.07672 0.0693627 8.49893e-21)
(1.07791 0.0697419 1.02843e-20)
(1.07686 0.0706262 2.10958e-21)
(0.389243 -0.00134628 0)
(0.443683 0.00162406 5.73109e-22)
(0.445823 0.00708272 0)
(1.02724 0.0355641 1.3416e-21)
(1.02761 0.0364852 6.85495e-22)
(1.02669 0.0361706 1.70825e-21)
(1.01488 0.00910037 -4.42339e-23)
(1.01501 0.00913196 2.98389e-22)
(1.01511 0.00941354 -3.33227e-24)
(1.06214 0.0496044 6.51618e-21)
(1.063 0.0490374 -1.05225e-20)
(1.06297 0.0505062 4.29628e-21)
(1.01474 0.00898037 1.94786e-23)
(1.01468 0.00875294 1.09887e-22)
(1.03633 0.0217522 -4.61818e-21)
(1.03684 0.0222498 -3.91343e-21)
(1.03613 0.0221318 3.35327e-21)
(1.02453 0.0382945 4.07707e-22)
(1.02525 0.0375234 -1.04106e-21)
(1.02398 0.0371151 -3.57072e-22)
(0.782391 -0.0400547 -2.51131e-23)
(0.842522 -0.0310566 4.95259e-21)
(0.857504 -0.0311977 -2.58268e-21)
(0.0169332 -0.0518304 -2.14264e-20)
(1.01317 0.0453926 -3.2866e-22)
(1.01555 0.0444683 -1.04965e-22)
(1.01305 0.0427309 -1.09926e-22)
(1.01145 -0.00121295 5.75949e-24)
(1.01159 -0.00121207 -1.19432e-23)
(1.01126 -0.00120746 1.10844e-25)
(-0.00236393 -0.0350567 3.02504e-21)
(0.0186361 -0.0433687 2.7323e-22)
(1.07848 0.0547339 0)
(1.0793 0.0549622 0)
(1.07847 0.055416 0)
(1.03437 0.016914 1.17138e-21)
(1.03378 0.0164731 8.58584e-22)
(1.03439 0.0163905 8.21375e-23)
(0.491556 0.0198787 -5.83179e-21)
(0.508987 0.0227137 -2.30012e-21)
(0.50685 0.02288 -1.41251e-20)
(1.01163 0.00249134 -1.6126e-23)
(1.01157 0.00237691 2.17744e-23)
(1.01185 0.00234195 -1.61126e-22)
(0.968241 0.0492921 2.64503e-21)
(0.96813 0.0578666 8.64197e-22)
(1.02462 0.0223348 1.23535e-21)
(1.0251 0.0228218 1.72835e-21)
(1.02452 0.0230002 0)
(1.00201 0.00012283 -8.04177e-22)
(1.00442 0.000294795 -1.34025e-21)
(1.00176 8.88678e-05 3.71405e-22)
(1.05534 0.0301121 -1.90985e-21)
(1.0552 0.0290859 5.20173e-21)
(1.03425 0.0378504 -1.64512e-22)
(1.03437 0.0382226 4.84382e-23)
(1.03462 0.0379889 -1.12767e-21)
(1.00035 -6.28153e-05 9.86932e-23)
(1.00019 -2.02221e-05 3.2167e-22)
(1.00103 -5.72344e-05 1.53871e-22)
(1.01324 -0.000120724 2.27897e-23)
(1.01366 -0.000363406 -6.81905e-23)
(1.01312 -0.000217623 -1.10116e-22)
(1.0606 0.0145768 8.77773e-21)
(1.05952 0.0151138 -2.09169e-20)
(1.05959 0.0138889 -9.37789e-21)
(1.08 0.0649222 1.5218e-20)
(1.08032 0.0643501 9.20277e-21)
(1.08079 0.0651624 -6.54252e-21)
(1.0791 0.0646552 -7.26971e-21)
(1.07944 0.0656467 -1.28463e-21)
(1.01504 0.103907 -7.01396e-22)
(1.01682 0.101975 0)
(1.01974 0.109137 0)
(1.02699 0.0345232 -8.4424e-22)
(1.02794 0.0348939 6.53975e-22)
(0.29693 -0.0152697 -1.51264e-20)
(0.358233 -0.000646069 0)
(0.371111 0.0141481 0)
(0.747025 -0.00343559 3.39832e-21)
(0.748287 0.0183121 -1.20806e-20)
(0.794896 -0.00673196 -1.33167e-21)
(1.01152 0.0026085 -1.3409e-22)
(1.01174 0.00256579 -2.4238e-23)
(1.02773 0.0124023 -1.72475e-21)
(1.02794 0.0120195 3.93053e-21)
(1.04302 0.0836715 0)
(1.04022 0.0855912 0)
(1.04003 0.0819974 -4.10317e-21)
(0.276921 0.00471053 2.71737e-21)
(0.352119 0.00661792 9.47096e-21)
(0.273176 0.00393625 8.55033e-21)
(1.02138 0.0126175 -2.62038e-22)
(1.02117 0.0122221 -1.6816e-21)
(1.02095 0.0123918 -7.75788e-22)
(1.02253 0.0135192 1.41356e-21)
(1.02227 0.0131105 8.72613e-22)
(1.02271 0.0132415 5.40082e-23)
(1.04486 0.0823326 2.35157e-21)
(1.04532 0.0855971 2.73178e-21)
(0.130094 -0.00904509 1.30292e-20)
(1.06107 0.0499853 0)
(1.06136 0.0484804 0)
(1.01284 8.39718e-05 -1.3718e-22)
(1.01329 5.30054e-05 -1.08264e-22)
(1.01078 0.106393 -6.06236e-23)
(1.01042 0.0990285 -7.88253e-22)
(0.448381 0.167941 1.57552e-21)
(0.40758 0.173943 2.10375e-21)
(0.405201 0.174889 -1.38917e-22)
(1.01467 -0.00885143 -7.04173e-23)
(1.01251 -0.00831541 4.56502e-22)
(1.01367 -0.00614789 -4.23633e-22)
(1.00241 -7.75251e-05 8.56888e-23)
(1.00257 -6.842e-05 9.0877e-24)
(1.00313 -9.18031e-05 -8.75131e-23)
(1.03655 0.0212425 2.49105e-21)
(1.03581 0.0212209 1.76512e-21)
(0.831292 0.0577585 -1.12416e-21)
(0.831373 0.0590875 -6.31285e-21)
(0.801165 0.0578281 2.63996e-20)
(1.03082 0.0158723 -1.52238e-21)
(1.02843 0.0133264 6.81971e-23)
(1.03219 0.0113743 3.69827e-23)
(1.01083 0.046468 6.29545e-22)
(1.00802 0.0475267 -2.01647e-22)
(1.00811 0.0443295 3.12815e-22)
(0.969544 0.0413548 2.46798e-21)
(0.961912 0.0451825 -4.5861e-21)
(0.992147 0.0566254 -1.44008e-21)
(0.413747 0.0107182 9.86171e-21)
(0.398558 0.00914611 6.80574e-21)
(0.394713 0.00885952 -6.6301e-21)
(0.957403 0.064915 6.08168e-21)
(0.972772 0.0650173 9.90795e-21)
(0.927171 0.0628587 -1.33315e-20)
(0.478276 0.0176103 0)
(0.476413 0.0181796 0)
(1.03488 0.0058422 3.51054e-21)
(1.03566 0.00605051 -3.3999e-21)
(1.0349 0.00632879 5.20456e-21)
(1.01243 0.000217395 -9.53557e-23)
(1.01241 0.000155522 2.57569e-23)
(1.0281 0.0373965 6.21975e-22)
(1.02859 0.0367441 -1.48153e-21)
(1.03273 0.0235405 -5.64014e-21)
(1.03315 0.0240984 1.72111e-21)
(1.03238 0.0237946 -2.54096e-21)
(1.01425 0.0121519 -2.93138e-22)
(1.01434 0.0126707 -1.02093e-21)
(1.01479 0.0124632 -1.80493e-23)
(1.01204 0.000318008 -5.24975e-24)
(1.0124 0.000319804 -3.15197e-22)
(1.03311 0.0231001 -2.31996e-21)
(1.03224 0.0229695 -7.76698e-22)
(1.03439 0.0172058 2.1188e-21)
(1.0349 0.0171976 -9.85342e-22)
(1.01917 0.0137806 3.47924e-22)
(1.01888 0.0134476 -9.79676e-24)
(1.01904 0.0133816 1.41551e-21)
(1.0014 2.03191e-05 4.2634e-23)
(1.00141 1.93033e-05 5.96484e-23)
(1.00029 -1.63328e-05 0)
(1.03489 0.00531549 5.17083e-21)
(1.03412 0.00557256 -2.0534e-21)
(0.926664 0.0608061 8.5029e-21)
(0.967429 0.0611562 -6.9859e-21)
(0.961523 0.0614295 1.4069e-22)
(1.01487 0.00220574 0)
(1.01496 0.00248033 0)
(1.01463 0.00235231 0)
(1.01705 0.0855094 -6.4801e-22)
(1.0211 0.0901518 -1.93351e-21)
(1.01271 0.0914631 -5.25271e-22)
(1.07862 0.0537438 2.0527e-21)
(1.07755 0.0543364 7.67436e-22)
(1.01456 0.00128583 1.26862e-21)
(1.01429 0.00129855 5.39723e-22)
(1.01381 0.000956818 4.40753e-22)
(1.03412 0.0373901 0)
(1.03383 0.0377476 0)
(1.00115 1.83678e-06 -2.42726e-22)
(1.00208 -1.58785e-05 -2.38269e-22)
(1.00328 -8.15024e-07 -3.83925e-23)
(1.00309 -8.97635e-06 1.56596e-22)
(1.00359 3.22667e-05 -6.49747e-23)
(1.06142 0.0154968 4.24836e-21)
(0.75045 -0.0258067 -1.38501e-21)
(0.70392 -0.00785719 0)
(1.01073 0.00199008 1.44438e-22)
(1.01094 0.00193968 1.56999e-22)
(1.01061 0.00191825 1.65491e-22)
(1.02234 0.015828 -5.36949e-22)
(1.02195 0.0154534 1.67196e-21)
(1.02205 0.0159305 1.12734e-21)
(1.01373 0.0484553 2.25972e-22)
(0.960354 -0.00081354 1.53618e-21)
(1.01324 0.00352531 1.60866e-21)
(1.01781 0.0129672 6.11041e-22)
(1.00214 9.58355e-05 -6.79651e-23)
(1.0022 8.64711e-05 3.66166e-22)
(1.00066 3.66459e-05 1.84307e-23)
(1.01478 0.0015073 0)
(1.01474 0.00124183 0)
(1.04829 0.0209152 -1.43898e-21)
(1.04751 0.0262335 -2.00183e-22)
(1.05169 0.0255742 -4.42871e-22)
(1.00169 -4.37857e-05 -2.64322e-22)
(1.00166 -5.47521e-05 6.34294e-23)
(1.00101 -2.40004e-05 6.78424e-23)
(1.00177 -5.01179e-05 -8.76427e-23)
(1.00236 -0.000109112 -2.74818e-23)
(1.01929 0.01409 0)
(1.01941 0.014033 0)
(1.00435 0.000325267 2.58969e-22)
(1.00431 0.000302712 2.75754e-22)
(1.00342 0.000231485 2.52992e-22)
(1.01419 0.0114385 4.46801e-22)
(1.01373 0.011523 5.03121e-22)
(0.944542 0.0646395 -1.83641e-21)
(0.94111 0.0650972 0)
(0.904887 0.0672409 1.3845e-20)
(0.55946 0.0207404 0)
(0.549359 0.0168808 -1.15026e-20)
(0.535972 0.0121338 0)
(1.01749 -0.00848619 0)
(1.01683 -0.0112576 0)
(1.01422 -0.000458692 -1.2176e-22)
(1.01403 -0.000705368 -1.24644e-22)
(0.726719 -0.0494524 1.08506e-21)
(0.711115 -0.0484698 -1.44946e-21)
(1.02028 0.000148823 -6.12793e-22)
(1.02038 0.000116009 2.45528e-22)
(0.529142 0.0257754 1.23564e-20)
(0.513474 0.0229828 5.35792e-21)
(1.01734 0.0434295 0)
(1.01796 0.0458923 0)
(0.825574 0.0578589 -1.12056e-21)
(0.864632 0.060532 -3.69705e-22)
(1.03116 0.024915 0)
(1.03167 0.0254585 1.92571e-21)
(1.03158 0.0245947 2.09267e-22)
(1.07552 0.0688895 -2.95057e-21)
(1.07656 0.0682447 -9.87132e-21)
(1.00258 -5.05285e-05 -5.35661e-23)
(1.00317 -1.85395e-05 1.53195e-22)
(1.00278 -4.01593e-05 -1.43516e-22)
(1.08634 0.0682773 5.03551e-21)
(1.0865 0.0676091 -7.52714e-22)
(1.08548 0.0679493 5.13453e-21)
(1.03349 0.00217259 -3.69637e-21)
(1.03364 0.00269993 3.43304e-21)
(1.03291 0.00237588 -7.23318e-21)
(1.00235 5.45513e-05 -1.30031e-23)
(1.00127 1.24629e-05 -4.4123e-23)
(1.01138 0.000403982 1.62251e-22)
(1.01106 0.000468649 2.47433e-22)
(1.01102 0.000456916 2.67941e-22)
(1.0051 0.0484449 -6.63321e-22)
(1.00837 0.0510652 -6.60689e-22)
(1.06388 0.0730237 6.31411e-21)
(1.06216 0.0736366 -9.21635e-21)
(1.06266 0.0714884 -5.66537e-21)
(0.358673 0.00798228 4.64692e-21)
(0.378238 0.0112043 -8.02394e-21)
(0.363669 0.00815188 -1.72824e-20)
(0.900051 0.0608532 -6.61311e-21)
(0.89435 0.0618201 1.83041e-21)
(1.03672 0.0208079 6.59089e-21)
(1.0369 0.0203301 2.17147e-21)
(1.03622 0.0202821 -1.87804e-21)
(1.02758 0.0381268 1.19447e-21)
(1.02863 0.03829 6.01634e-22)
(1.01108 0.00398892 7.27027e-23)
(1.01094 0.00385534 8.24304e-23)
(1.01086 0.00387513 -1.67594e-23)
(1.06514 0.0720601 1.18346e-20)
(1.06518 0.0740067 -1.24034e-20)
(1.07018 0.0340861 7.68919e-21)
(1.06984 0.0349545 6.74681e-21)
(1.071 0.0346966 -4.43216e-21)
(0.990564 0.0442151 3.06057e-22)
(0.993884 0.0476531 2.26168e-21)
(0.988704 0.0489737 3.44267e-21)
(0.644822 0.0520811 9.97773e-21)
(0.612917 0.0496253 0)
(0.620182 0.0494577 0)
(1.0307 0.0253348 4.01915e-21)
(1.03058 0.0244375 0)
(1.07952 0.0582074 -3.73244e-21)
(1.07906 0.0588706 1.44224e-20)
(1.08008 0.0588349 3.91444e-21)
(0.671118 -0.0594358 -4.11141e-21)
(0.744474 -0.047987 -2.55085e-21)
(0.358842 0.174364 -3.64852e-21)
(0.407725 0.16899 0)
(0.40593 0.167143 0)
(0.315938 0.0104649 -1.56622e-21)
(0.312195 0.0100377 -2.56117e-22)
(0.332074 0.0131965 -6.84691e-23)
(1.0227 0.0399917 -1.22859e-22)
(1.02381 0.0390965 2.62876e-22)
(1.02213 0.0386517 -6.09478e-22)
(1.00187 0.000159052 0)
(0.943066 0.186642 2.92369e-21)
(0.964775 0.179826 -3.60785e-21)
(0.953407 0.180691 -2.23488e-21)
(1.01169 0.000355814 -3.70176e-25)
(1.01164 0.000384932 9.60858e-23)
(0.938381 0.0659802 4.98103e-21)
(0.980706 0.0658576 4.36991e-21)
(1.0136 0.00653648 -4.42446e-22)
(1.01335 0.00629331 -1.1346e-21)
(1.01347 0.00653521 -7.37035e-23)
(1.03248 0.00572617 4.20469e-21)
(1.0331 0.00601614 -5.19013e-21)
(1.03254 0.00624621 2.39563e-21)
(1.01972 -0.00245965 1.03764e-22)
(1.01982 -0.00114432 1.07719e-22)
(1.01847 -0.00168926 -5.74943e-22)
(0.98052 0.0650434 4.67935e-21)
(0.936889 0.0644716 -2.96442e-21)
(0.910673 0.0324585 6.46084e-21)
(0.360594 -0.00448028 0)
(0.373749 -0.00228372 -1.18364e-20)
(0.300696 -0.0294212 -1.13492e-20)
(1.02182 0.0128899 2.35989e-21)
(1.02158 0.013071 -3.46573e-22)
(1.03398 0.0369433 0)
(1.03381 0.0364518 0)
(1.03346 0.0367921 0)
(1.00191 -7.04326e-05 2.03081e-23)
(1.00205 -7.75168e-05 -5.25205e-23)
(1.00272 -8.93934e-05 -1.69696e-22)
(1.03188 0.00546844 2.13743e-21)
(1.03239 0.00521861 -8.08178e-21)
(0.907272 -0.0146256 7.49962e-22)
(0.913956 -0.00634492 -1.98934e-20)
(1.01382 0.00779713 -2.74124e-23)
(1.01382 0.00793389 -1.87733e-23)
(1.01376 0.00757045 -1.9437e-23)
(1.00438 0.000316616 -1.34486e-22)
(1.00478 0.000311729 -2.33654e-22)
(0.598298 0.0498883 0)
(0.590135 0.0486014 6.32864e-21)
(0.570346 0.0464299 -3.65211e-21)
(1.0014 -4.14054e-05 2.01978e-22)
(1.00141 -3.67818e-05 5.15314e-23)
(1.0006 -3.81819e-05 2.10081e-22)
(1.00233 -6.81327e-05 0)
(1.00177 -9.1898e-05 -2.14946e-24)
(1.01431 0.00466582 1.00367e-21)
(1.0145 0.00495199 5.6618e-22)
(1.01414 0.00478364 -9.0541e-22)
(0.755644 0.0863256 2.14025e-21)
(0.765716 0.0829557 7.89323e-21)
(0.729195 0.0804031 6.64772e-21)
(1.01989 0.023567 0)
(1.02066 0.0236158 1.30729e-21)
(1.02006 0.0227736 -6.48226e-22)
(0.930584 0.186832 2.07728e-21)
(0.572698 0.134757 9.42445e-21)
(0.575307 0.128686 -1.30487e-20)
(0.600486 0.125887 -7.08762e-21)
(1.06306 0.0116951 7.81133e-23)
(1.05362 0.0139641 -8.061e-22)
(1.05936 0.0186193 3.78926e-22)
(0.279351 0.00433057 -2.17121e-20)
(0.439512 0.15378 0)
(0.47827 0.154885 0)
(0.436831 0.164224 0)
(1.00579 -0.000393994 1.50447e-23)
(1.00593 -0.000434613 2.18238e-23)
(1.00588 -0.000412825 4.35562e-24)
(1.02147 0.040913 -7.43674e-23)
(1.02333 0.0414683 4.11366e-22)
(1.01473 0.00903292 1.2574e-22)
(1.0147 0.00905717 3.24659e-22)
(1.01495 0.00934055 -9.4724e-23)
(0.651902 0.0483187 -4.63609e-21)
(0.65458 0.0496717 -4.63305e-21)
(0.623176 0.0458573 -3.54676e-21)
(1.06521 0.0177059 0)
(0.531068 0.156388 8.15075e-21)
(0.486827 0.163572 -1.35598e-20)
(0.497566 0.161829 -3.49797e-21)
(1.03578 0.0587894 -2.86853e-21)
(1.03719 0.0586864 2.90892e-21)
(1.03637 0.0605698 -2.36576e-21)
(1.00156 -4.49449e-05 0)
(1.00221 -4.77335e-05 6.9593e-23)
(1.00142 -4.48102e-05 0)
(1.03954 0.0143287 0)
(1.03895 0.0137631 -1.11089e-21)
(1.03799 0.0875757 0)
(1.03561 0.0899553 5.99968e-22)
(1.03483 0.0860976 0)
(1.07045 0.0330665 0)
(1.06934 0.033335 0)
(1.01972 0.0244659 0)
(1.01915 0.0234429 0)
(1.05875 0.015471 -1.99523e-21)
(1.05783 0.014833 1.56517e-20)
(1.0577 0.0159269 1.729e-21)
(1.01451 0.00876747 -1.03501e-23)
(1.02732 0.0123425 0)
(1.02758 0.0127395 0)
(1.05751 0.103676 -3.75479e-21)
(1.05962 0.100804 -6.57026e-21)
(1.06005 0.104791 -1.19914e-20)
(1.08631 0.0689781 -1.52201e-22)
(1.08631 0.0685566 3.29105e-23)
(0.992004 0.0390238 -3.77271e-21)
(0.989602 0.0394952 1.42927e-21)
(1.02699 0.0119251 0)
(1.02681 0.0122748 0)
(1.05716 0.10755 4.54962e-21)
(1.053 0.103362 4.85626e-21)
(1.01163 -0.00121376 1.23197e-24)
(1.01121 -0.00121375 -1.11372e-22)
(1.01437 0.0805471 1.5932e-22)
(1.02256 0.0794059 4.59457e-23)
(1.03466 0.0571148 1.56914e-21)
(1.03368 0.0590715 -1.87117e-21)
(1.07831 0.0642774 2.19778e-23)
(1.07888 0.0636644 -4.45457e-21)
(1.06242 0.0919217 -6.92539e-23)
(1.06235 0.0893457 3.41683e-22)
(1.05964 0.0901624 -7.18773e-22)
(0.441694 0.00801622 1.01787e-20)
(0.459925 0.0107647 -1.03714e-20)
(0.443357 0.00833039 9.29427e-21)
(1.01088 0.00203868 -3.79748e-23)
(1.01061 0.00203192 -8.19962e-23)
(0.373421 0.00965886 7.89627e-21)
(0.38768 0.0119391 9.32812e-23)
(0.368271 0.00866146 -2.14979e-21)
(1.04051 0.029357 -8.65266e-21)
(1.04011 0.0298205 -8.75447e-21)
(1.03981 0.0290636 -6.6971e-22)
(0.678135 0.0543906 -5.81852e-21)
(0.671161 0.054301 1.21315e-21)
(1.01157 0.00226241 0)
(1.01126 0.00236755 -1.70499e-22)
(1.0138 0.00764604 1.79084e-23)
(1.01389 0.00797837 1.73389e-23)
(1.02746 0.0330648 5.71988e-22)
(1.02828 0.0332963 0)
(1.02791 0.0324055 0)
(0.40148 0.00815347 -1.11786e-21)
(0.400688 0.00883502 -9.80219e-21)
(0.419067 0.0104984 3.56121e-22)
(0.317124 0.00989754 -1.04076e-21)
(0.291511 0.00755675 4.76318e-22)
(1.02271 0.0199423 -1.42603e-21)
(1.02269 0.0204824 2.79376e-22)
(1.02224 0.0199419 -1.04577e-21)
(0.823562 -0.0218163 -5.19171e-21)
(0.877896 -0.0183714 4.63859e-21)
(0.813308 -0.0189188 1.10258e-20)
(1.01382 0.0331568 -7.18855e-24)
(1.01268 0.0315963 0)
(1.01442 0.0315357 -5.61469e-23)
(1.03444 0.0371276 1.05212e-21)
(1.01171 0.000326716 2.01346e-23)
(1.04078 0.0889281 -1.66143e-21)
(1.01861 0.0130979 5.61785e-22)
(1.01872 0.0134438 -1.08493e-21)
(1.0091 0.00285703 -7.8416e-24)
(1.0089 0.0027486 3.24177e-22)
(1.00897 0.00275039 6.35919e-23)
(1.00166 0.0173477 6.41816e-22)
(1.0024 0.0150634 5.56642e-22)
(1.00433 0.0171974 -1.04805e-21)
(0.99877 0.0178661 5.29841e-22)
(1.00129 0.0205773 6.85616e-22)
(0.438005 0.0204571 0)
(1.07904 0.0576737 -3.421e-21)
(1.07995 0.0576249 1.70312e-21)
(1.02514 0.0394564 3.83331e-22)
(0.68936 0.0492158 -1.19018e-20)
(0.689029 0.0505864 -1.69488e-21)
(0.718688 0.054216 -2.04364e-20)
(1.0086 0.000665098 9.78461e-22)
(1.00765 0.000587194 1.21081e-21)
(1.0094 0.000710874 -1.4841e-21)
(1.00725 9.63892e-05 -2.08404e-23)
(1.00739 0.000111111 4.21357e-23)
(1.00707 0.000105614 1.75707e-24)
(1.00742 8.27066e-05 -1.69645e-22)
(1.00711 9.55773e-05 -6.51311e-23)
(0.440824 0.138125 -2.67558e-20)
(1.06077 0.0983612 -7.76362e-21)
(1.06213 0.0946674 -8.68225e-21)
(1.05847 0.0962453 -9.28979e-21)
(1.05793 0.111639 3.30509e-22)
(1.05803 0.116074 5.82003e-21)
(1.0522 0.11122 0)
(1.02016 0.00143152 2.31403e-21)
(1.02037 0.00160934 6.63971e-22)
(1.02039 0.00137767 -7.57455e-22)
(1.00231 -7.302e-05 1.53781e-23)
(1.00164 -6.10761e-05 2.73581e-23)
(0.59685 -0.0692768 -1.40397e-21)
(0.613436 -0.0701704 1.98675e-22)
(0.377606 0.0101418 0)
(1.00637 0.000114579 3.87786e-23)
(1.00658 0.000122059 -1.32098e-22)
(1.00654 0.000129965 -2.43849e-23)
(1.00613 0.000115174 -1.38438e-22)
(1.00618 9.73991e-05 7.14349e-23)
(1.00077 -5.33259e-05 1.53753e-22)
(1.00007 -6.53018e-05 -5.14509e-23)
(1.0076 6.72884e-05 1.45405e-22)
(1.00776 8.10547e-05 1.26999e-22)
(1.00778 4.9772e-05 -1.37862e-22)
(1.00748 6.21092e-05 1.50135e-22)
(0.462566 0.0147385 0)
(0.474725 0.0166764 3.52012e-21)
(0.497261 0.0379227 0)
(0.501426 0.0507643 0)
(0.53872 0.0519885 0)
(1.01695 0.0111548 -6.84955e-23)
(1.01675 0.0108689 6.9588e-22)
(1.01702 0.0111074 4.83123e-22)
(1.0069 -0.000656351 0)
(1.00711 -0.000690669 0)
(1.0069 -0.000657065 0)
(1.049 0.0673419 3.07902e-21)
(1.04707 0.0667887 -5.37433e-21)
(1.04839 0.0656452 -2.40523e-22)
(0.457051 0.0176389 8.86067e-22)
(0.445088 0.0151639 -7.37285e-21)
(0.46098 0.0177979 7.84534e-22)
(1.00177 -4.1986e-05 -1.05814e-22)
(1.001 -2.20004e-05 -1.11731e-22)
(1.001 -3.43164e-05 4.31944e-23)
(1.01993 0.00151571 1.06921e-21)
(1.01995 0.00128285 1.74807e-22)
(0.833366 -0.0270626 -4.11933e-21)
(0.757569 -0.0319187 1.11833e-21)
(0.934675 0.0662502 6.15756e-21)
(0.929228 0.0663161 2.51741e-21)
(0.97126 0.0667671 0)
(1.06295 0.0992012 -8.63242e-21)
(0.691618 0.0486814 1.58891e-21)
(0.663664 0.0440553 0)
(1.02842 0.0682191 9.93748e-22)
(1.02669 0.0662044 2.78393e-22)
(1.02571 0.068712 1.14169e-23)
(1.01371 0.00652321 4.79627e-22)
(1.01382 0.00675162 -5.1545e-22)
(0.520339 0.142486 -4.77946e-21)
(0.513195 0.150198 1.36023e-20)
(1.05073 0.0682016 1.02237e-20)
(1.04908 0.06946 9.4558e-21)
(1.01895 0.0426381 0)
(1.01683 0.0415507 0)
(1.07041 0.0618137 -5.29251e-21)
(1.07053 0.0627947 -1.08936e-21)
(1.07155 0.0622508 2.22824e-21)
(1.02269 0.0194179 -3.91727e-23)
(1.02315 0.0198725 4.9258e-22)
(0.503156 0.0300794 -1.88099e-20)
(1.0338 0.00315379 5.62236e-21)
(1.03332 0.00331584 1.39015e-21)
(1.03395 0.00364871 -1.16761e-21)
(1.03862 0.0423464 -4.73678e-22)
(1.03805 0.0425773 -2.02961e-21)
(1.03878 0.0429852 -2.24926e-21)
(1.03843 0.0578497 5.40634e-21)
(1.03985 0.0568016 2.76808e-21)
(1.03808 0.0561958 2.49679e-21)
(1.0168 0.0112246 4.72133e-22)
(1.01687 0.0111566 2.13994e-22)
(1.01661 0.0109538 5.12676e-22)
(1.00021 -6.48733e-06 -6.79073e-23)
(1.03722 0.0213172 -4.36475e-22)
(1.00936 0.00689716 -4.26554e-22)
(1.01038 0.00684281 -2.84861e-22)
(1.00991 0.00546101 -1.3572e-22)
(1.01228 0.00187998 2.36834e-22)
(1.01241 0.00186937 4.8554e-22)
(1.01271 0.00187385 3.89352e-22)
(0.411497 0.0171452 7.7782e-21)
(0.399866 0.0145991 1.40487e-22)
(0.394925 0.0144004 7.72328e-21)
(0.682505 0.131423 2.533e-21)
(0.717646 0.131992 1.55713e-21)
(0.716529 0.113896 -5.38688e-21)
(1.01088 0.000736086 3.59018e-23)
(1.01067 0.000823801 -2.01437e-22)
(1.01062 0.00073489 -8.88691e-23)
(1.00604 0.000133935 2.44066e-24)
(1.00591 0.000109488 7.73851e-23)
(1.01389 0.00832406 0)
(1.01377 0.00809912 1.40395e-22)
(1.00618 0.000149209 -1.80128e-22)
(1.00596 0.000139949 2.4316e-22)
(1.03439 0.00298373 6.9959e-21)
(1.01685 0.000313878 1.33745e-22)
(1.01238 0.000209044 2.16094e-21)
(1.0508 0.04296 3.72626e-21)
(1.05115 0.0440057 1.04211e-21)
(1.05007 0.0437754 0)
(1.01112 0.000627676 8.86167e-23)
(1.01114 0.000731555 2.06047e-22)
(0.314042 0.0125282 4.24444e-21)
(0.331442 0.0158276 -2.45236e-21)
(0.567725 0.0250216 0)
(0.581979 0.029047 2.62545e-22)
(1.02367 0.01019 -1.9078e-21)
(1.02378 0.00984568 2.62068e-21)
(1.02325 0.00983349 3.55602e-22)
(1.01206 0.00820571 1.78178e-22)
(1.01142 0.00859161 -2.67001e-22)
(1.01201 0.00916496 -2.03611e-22)
(1.00617 0.108056 8.33284e-22)
(1.00435 0.102572 -1.25121e-22)
(0.988147 0.10998 -9.60091e-22)
(1.00779 -0.00018404 0)
(1.00799 -0.000199741 -2.55983e-24)
(1.00766 -0.000188571 0)
(1.04588 0.0318741 -1.35142e-22)
(1.0456 0.0289295 -4.0932e-22)
(1.04294 0.0311881 2.28232e-23)
(0.428574 0.0202491 1.82358e-21)
(0.423355 0.0198446 0)
(1.00761 -0.000165996 0)
(1.00794 -0.000174536 8.97515e-23)
(0.430264 0.0130968 -9.21308e-21)
(0.425835 0.0127565 -6.64624e-21)
(1.01212 0.00188671 -9.78481e-23)
(1.01186 0.00186334 0)
(0.792067 0.0918141 7.20617e-21)
(0.752689 0.0912035 -1.43409e-20)
(1.00157 -4.32227e-05 0)
(1.00085 -3.54376e-05 9.85201e-23)
(1.01824 0.0139919 -8.65195e-23)
(1.01853 0.0137482 0)
(1.01842 0.0141948 2.84644e-23)
(1.01677 0.0112733 3.1519e-22)
(1.01699 0.0114892 6.33219e-23)
(1.01281 0.00610007 -4.02296e-22)
(1.01258 0.00590074 -9.05517e-22)
(1.01263 0.00589578 -4.04851e-22)
(1.07753 0.0811058 -3.31829e-21)
(1.07656 0.0796229 1.71071e-20)
(1.0787 0.0795336 7.10126e-21)
(1.00459 0.000332059 -3.47645e-22)
(1.00461 0.000306279 3.88024e-22)
(1.0026 0.000164317 6.91879e-24)
(1.06658 0.00957597 4.39515e-22)
(1.05905 0.00292049 -2.27059e-22)
(1.03832 0.0330341 5.07157e-21)
(1.03788 0.0334868 -2.00734e-21)
(1.03772 0.0326822 2.23674e-21)
(1.01944 -0.00365754 4.26726e-22)
(1.0212 -0.00328115 6.01895e-23)
(0.938991 -0.00404008 0)
(0.937466 -0.0116794 0)
(0.98283 -0.00468617 0)
(0.299772 0.00989666 -1.07496e-21)
(1.00243 -3.88801e-05 0)
(1.0024 -3.38661e-05 -7.98523e-23)
(1.0555 0.0544387 -4.83571e-21)
(1.0564 0.0554719 8.33714e-21)
(1.05684 0.0542005 0)
(1.00897 0.00995831 -1.37487e-22)
(1.00896 0.00835801 1.04262e-21)
(1.00993 0.00957449 -1.19575e-22)
(1.03036 0.0256808 2.79393e-21)
(1.02991 0.0259842 1.5285e-22)
(1.0298 0.0251825 -1.09858e-21)
(1.00904 0.0119204 -2.61644e-22)
(1.01031 0.0124084 1.59832e-22)
(1.03343 0.0227658 -3.29593e-21)
(1.03381 0.0233268 -2.29803e-21)
(1.01115 0.00191124 -7.8183e-23)
(1.01138 0.00187722 0)
(1.01102 0.00186159 8.14879e-23)
(1.00562 0.000416008 -6.63209e-24)
(1.00435 0.000301296 2.12573e-22)
(1.02837 0.0833898 7.69429e-22)
(1.02923 0.0870992 -5.09714e-22)
(1.03174 0.0845738 6.92155e-22)
(1.03369 0.017325 -9.08724e-22)
(1.035 0.0221911 1.39367e-22)
(1.0287 0.0194716 2.27026e-21)
(1.03927 0.0419798 1.55421e-21)
(1.03847 0.041688 -3.9219e-22)
(1.03377 0.0224037 -3.00136e-21)
(1.03302 0.0222616 -3.8492e-22)
(1.01976 0.00153614 -2.51469e-22)
(1.0196 0.00135666 8.0641e-22)
(1.01954 0.00155152 0)
(0.606724 0.0499879 0)
(0.629891 0.0520548 9.93722e-21)
(0.396168 0.00663371 1.00101e-20)
(0.368551 0.00698419 1.6341e-21)
(1.01055 0.0034852 -1.75259e-23)
(1.01042 0.00336019 5.17226e-23)
(1.01032 0.00337764 0)
(1.02142 -0.000357103 1.08378e-22)
(1.02384 0.000777767 1.09181e-23)
(1.02012 0.000954142 2.17232e-21)
(1.03095 0.0261318 1.29561e-22)
(0.947907 0.0280987 -2.43275e-21)
(0.947122 0.0161295 -1.08363e-21)
(0.957558 0.0219741 -3.62281e-21)
(1.08577 0.0623867 -5.61018e-21)
(1.08599 0.0628482 5.88046e-22)
(1.08622 0.0623454 -1.01344e-21)
(0.578585 0.0266712 1.36639e-20)
(0.56037 0.0220757 7.06307e-21)
(0.556477 0.0194621 -1.1824e-20)
(0.557036 0.154019 4.34296e-22)
(0.572043 0.151952 9.77853e-21)
(1.0192 0.0135914 0)
(1.02452 0.0138535 0)
(1.02186 0.0178938 0)
(0.99876 0.051224 0)
(1.00012 0.0467933 -1.89254e-22)
(1.0125 0.00799488 1.41162e-22)
(1.0122 0.00730578 2.05321e-22)
(1.00355 0.0629206 -8.55961e-21)
(0.972719 0.0617318 0)
(0.935904 0.0353543 2.33233e-21)
(0.948774 0.0396248 1.44305e-21)
(1.08483 0.0660864 0)
(1.08643 0.066412 5.4505e-21)
(1.01662 0.000443876 -1.95655e-21)
(1.01179 0.000100247 -8.99812e-22)
(1.01801 0.0137535 5.27613e-22)
(1.01821 0.0130922 5.02308e-22)
(0.903374 -0.0231221 4.10059e-21)
(1.01436 0.00887311 8.42168e-23)
(1.01445 0.00893846 7.00938e-23)
(1.01454 0.0091868 -1.54465e-26)
(1.00038 0.0204994 -6.90754e-22)
(0.999755 0.017611 -1.86091e-21)
(1.07751 0.0639252 -2.67958e-22)
(1.07773 0.0649784 4.42465e-21)
(1.00136 -2.81892e-05 -2.24503e-23)
(1.00119 -2.90393e-05 1.1895e-22)
(1.00032 -4.33324e-05 0)
(0.676045 0.0510641 1.00767e-21)
(0.645195 0.047266 1.31033e-22)
(1.01477 0.00171155 0)
(1.0148 0.00199246 0)
(1.01455 0.00184794 0)
(1.08193 0.0386279 2.14141e-21)
(1.08287 0.0393265 1.17359e-20)
(1.01022 -0.00043531 7.43785e-23)
(1.01013 -0.000481447 7.63796e-23)
(1.01044 -0.000485754 -3.29714e-23)
(0.290097 -0.00107074 0)
(0.30707 0.000996464 1.51345e-20)
(1.00786 0.00193535 1.29667e-22)
(1.00772 0.00185208 8.04155e-24)
(1.00773 0.00180209 1.30209e-22)
(1.03983 0.0417553 2.00522e-21)
(1.03969 0.0410581 6.40239e-25)
(1.0404 0.0414209 4.47421e-21)
(1.01351 0.0345941 2.75538e-22)
(1.01534 0.034161 1.17968e-22)
(1.01502 0.0111121 0)
(1.01715 0.00908546 2.38082e-23)
(1.00231 2.13765e-05 2.67785e-22)
(1.00166 -1.16422e-05 -1.15078e-22)
(1.07239 0.0617592 6.94868e-21)
(1.07333 0.0613463 -2.54059e-22)
(1.07239 0.0607484 3.23576e-23)
(0.96685 0.0652073 3.33016e-21)
(1.00416 0.0662237 -8.98118e-21)
(0.970791 0.0649713 1.15821e-20)
(1.02283 0.0155279 4.54955e-21)
(1.02257 0.0157072 7.02118e-22)
(1.02245 0.0151302 -1.55777e-22)
(1.01425 0.0087825 0)
(1.01421 0.00855434 3.84255e-23)
(0.544977 0.0283093 1.33257e-20)
(0.549372 0.0285599 3.04528e-22)
(0.955212 0.0670193 0)
(0.962527 0.0662614 2.35217e-21)
(0.996718 0.0668649 9.49868e-21)
(0.782242 0.13486 2.27805e-21)
(0.810689 0.13066 3.81312e-21)
(0.763351 0.134751 5.07701e-21)
(0.958746 0.153575 -2.42635e-23)
(0.91933 0.160139 -9.46274e-25)
(1.00744 -0.000141227 1.25944e-22)
(1.00729 -0.000150463 0)
(1.01767 0.0116364 -4.19443e-22)
(1.01749 0.0113225 4.15207e-22)
(1.01777 0.0115868 0)
(0.924005 0.0666822 -6.17552e-21)
(0.919136 0.0670116 1.84328e-21)
(0.961268 0.0673012 4.88249e-22)
(1.00215 0.0541555 0)
(0.99632 0.055256 -6.83015e-22)
(1.00759 -0.000133146 -1.26668e-22)
(1.00729 -0.000119953 1.08674e-22)
(1.00746 0.0108466 0)
(1.0244 0.0125218 6.4019e-22)
(1.0247 0.0129395 3.89677e-21)
(1.0242 0.012721 6.43069e-21)
(1.0327 0.0442497 -5.31402e-22)
(1.03319 0.0454736 -6.08124e-22)
(1.03422 0.04429 2.02228e-22)
(1.03995 0.0424222 -6.27342e-22)
(1.05971 0.0833281 -4.72637e-21)
(1.06039 0.0811953 -6.13428e-21)
(1.05803 0.0814883 -1.11585e-21)
(1.01812 0.0528806 0)
(1.02023 0.0512934 -3.84499e-22)
(1.02089 0.0539713 6.70363e-23)
(1.04479 0.0347226 5.4947e-22)
(1.04792 0.0339003 -1.33745e-21)
(1.07908 0.0397714 0)
(1.07825 0.0403101 6.18075e-21)
(1.07918 0.0408065 0)
(0.499819 0.0182804 0)
(0.483137 0.0154107 1.00437e-20)
(0.496055 0.0183012 0)
(1.01132 0.00409111 -6.78616e-24)
(1.01121 0.00411138 -7.90111e-23)
(1.02324 0.0159293 -1.89905e-21)
(1.02309 0.0153516 3.13089e-21)
(1.00761 0.0151524 0)
(1.00875 0.0166671 0)
(1.08454 0.0772751 1.12794e-21)
(1.08472 0.075884 -4.83483e-21)
(1.08576 0.0770141 1.94743e-20)
(1.00106 -4.24831e-05 -7.62639e-23)
(1.00026 -2.73103e-05 -4.82007e-23)
(1.00113 -4.58895e-05 -1.21607e-22)
(0.41234 0.00613301 0)
(1.07991 0.0393285 0)
(1.07884 0.038924 0)
(0.889136 -0.0070132 9.06356e-22)
(0.888286 -0.0291859 -2.50209e-22)
(1.02239 0.0137144 1.86812e-21)
(1.0228 0.0138492 -2.12893e-21)
(1.00895 0.0525197 -5.99196e-22)
(1.00649 0.0546786 -4.32603e-22)
(1.01015 0.0561127 -4.60172e-22)
(1.02196 -0.00207251 0)
(1.01981 -0.00144741 0)
(0.753985 -0.0464405 -1.76587e-21)
(0.764272 -0.0643689 1.34554e-22)
(0.716337 -0.0565286 2.6308e-21)
(1.01408 0.000604487 3.38393e-22)
(1.01422 0.000354232 -3.64488e-22)
(1.01365 0.000453672 -2.4303e-22)
(1.06338 0.111946 -8.37774e-21)
(1.00946 0.113238 8.24898e-22)
(1.01166 0.0357012 -6.30428e-22)
(1.01349 0.0369072 3.58735e-22)
(1.02356 0.0104665 0)
(1.02409 0.0105194 0)
(1.06624 0.0780029 -9.15325e-21)
(1.06877 0.0802111 -1.0445e-21)
(1.03776 0.0788128 -7.14109e-21)
(1.01117 -0.000681345 -2.10977e-22)
(1.01114 -0.000762261 -5.63177e-24)
(1.0109 -0.000644184 -1.65688e-22)
(0.567908 0.140925 1.43249e-20)
(0.540447 0.144652 2.79706e-20)
(1.0652 0.093421 7.11662e-21)
(1.01454 0.000774894 1.18398e-23)
(1.01387 0.000792032 4.4238e-22)
(0.800063 -0.0404072 -4.86932e-21)
(1.0169 0.0117514 -3.03368e-22)