/*--------------------------------*- C++ -*----------------------------------*\
| =========                 |                                                 |
| \\      /  F ield         | OpenFOAM: The Open Source CFD Toolbox           |
|  \\    /   O peration     | Version:  v2012                                 |
|   \\  /    A nd           | Website:  www.openfoam.com                      |
|    \\/     M anipulation  |                                                 |
\*---------------------------------------------------------------------------*/
FoamFile
{
    version     2.0;
    format      ascii;
    class       volVectorField;
    location    "800";
    object      U;
}
// * * * * * * * * * * * * * * * * * * * * * * * * * * * * * * * * * * * * * //

dimensions      [0 1 -1 0 0 0 0];


internalField   nonuniform List<vector> 
13917
(
(0.473579 0.0128831 -3.26005e-20)
(0.997397 0.0263972 -1.53392e-22)
(1.07546 0.0673623 2.00509e-20)
(1.03584 0.0157316 -7.5815e-21)
(1.00917 0.0151229 1.20876e-22)
(0.997457 0.0237044 0)
(1.04978 0.032112 0)
(0.994421 0.0660246 5.09778e-23)
(1.0625 0.0221742 0)
(0.0100046 -0.0506068 5.37933e-21)
(0.995042 0.0617865 1.20769e-21)
(1.02607 0.0132179 0)
(1.00981 0.000135942 4.59559e-21)
(0.935363 0.129069 1.44952e-21)
(1.00964 0.0133663 1.07359e-21)
(0.450753 0.0100448 3.89414e-20)
(1.00341 -5.99361e-05 2.76518e-24)
(1.00423 0.0563739 6.95773e-22)
(1.0703 0.070725 -1.31054e-20)
(0.457107 0.0147328 6.64699e-21)
(1.02308 0.0341448 -2.14176e-21)
(1.01244 0.00794257 0)
(1.05768 0.053399 3.11475e-23)
(1.01228 0.00773164 0)
(1.03274 0.0231443 -3.97444e-21)
(1.02175 0.0355445 6.60157e-22)
(0.794079 -0.0170911 1.4045e-20)
(0.00292349 -0.0341483 0)
(1.01664 0.043827 8.83722e-23)
(1.0156 0.000396387 -1.20049e-22)
(0.0179599 -0.0409542 0)
(1.07266 0.0592186 0)
(1.03122 0.0176026 -5.95058e-21)
(0.530497 0.0261781 -2.68522e-21)
(1.01151 -0.00021712 -4.55512e-23)
(0.986502 0.0707168 0)
(1.02085 0.0230627 4.90603e-21)
(1.00244 0.000125835 0)
(1.0509 0.0323193 -1.18707e-20)
(1.02595 0.0372565 0)
(1.00219 -7.45819e-05 0)
(1.0156 -0.00335802 5.01662e-22)
(1.05736 0.0171458 -1.69854e-20)
(1.07238 0.0672745 -7.67794e-21)
(1.07182 0.0673811 0)
(1.02952 0.117605 5.81655e-21)
(1.02308 0.0334779 -1.96588e-21)
(0.270686 -0.0485214 0)
(0.838878 0.0573321 0)
(1.01141 -2.2096e-05 5.60205e-23)
(1.02559 0.0128406 -2.77062e-21)
(1.04295 0.0893 0)
(0.361109 0.00896261 -1.44333e-20)
(1.01851 0.012369 -3.26211e-21)
(1.01974 0.0133429 1.60413e-21)
(1.04585 0.0882892 1.57839e-20)
(-0.0351472 -0.0117059 0)
(1.05652 0.0531193 -1.01104e-20)
(1.01568 -0.00312236 0)
(1.02416 0.118453 4.07153e-21)
(0.523633 0.166635 0)
(1.00519 -0.00954044 0)
(1.005 2.62446e-05 0)
(1.03264 0.0225001 0)
(0.858584 0.0574954 0)
(1.03657 -0.00394348 1.5964e-23)
(1.01375 0.0473262 -6.64984e-23)
(0.981143 0.0673184 0)
(1.00296 0.0610341 -8.45085e-22)
(0.431425 0.0139705 1.89231e-21)
(0.988254 0.0630004 1.12083e-20)
(0.51148 0.0231894 3.49203e-21)
(1.0335 0.00713868 2.30541e-21)
(1.01522 -0.00270932 -2.17591e-22)
(1.02366 0.0345601 2.15539e-21)
(1.02877 0.024503 0)
(1.01207 0.0107907 -9.3082e-22)
(1.01517 -0.0025148 1.96688e-22)
(1.02881 0.0238962 0)
(1.03152 0.0180511 -8.17581e-21)
(1.01551 0.0130601 0)
(1.00325 -3.61279e-05 0)
(1.03308 0.00662489 -2.18001e-21)
(0.988452 0.0616594 -2.93242e-21)
(1.01382 0.00228993 -3.72286e-21)
(1.04044 0.0756439 4.53184e-21)
(1.0723 0.0584572 0)
(1.01332 0.00120052 0)
(1.02601 0.0366852 -5.2021e-22)
(1.0042 -6.22014e-05 -1.50667e-22)
(1.00659 -0.000118242 2.32636e-22)
(1.05862 0.017478 2.13015e-20)
(0.80289 0.0572413 -7.07089e-22)
(1.01144 -0.000531183 0)
(1.01875 0.0157618 -1.54469e-21)
(1.0169 0.0461975 3.33965e-22)
(0.943473 -0.0410223 3.98263e-21)
(1.00306 4.52248e-06 -1.07222e-22)
(1.01376 0.00133091 0)
(1.01696 0.00673535 0)
(1.00391 8.67722e-06 -1.39537e-22)
(1.00454 -2.70378e-05 2.29939e-22)
(1.01568 0.0135216 0)
(1.00539 0.000149503 -1.21489e-22)
(1.01163 0.01035 5.09707e-22)
(0.975595 0.0770864 -4.38209e-21)
(0.564784 0.0117544 2.64263e-20)
(1.00671 -0.0133079 1.29392e-21)
(1.01599 -0.00395288 -5.09872e-22)
(0.706387 -0.0170019 -1.44645e-20)
(1.01978 0.000220085 3.89537e-21)
(0.544919 0.0281449 0)
(1.01911 0.0427734 5.49908e-23)
(0.205162 -0.0684311 2.07606e-20)
(0.874416 0.0578871 1.95016e-21)
(1.02727 0.0254897 4.85744e-21)
(1.06961 0.0700231 -1.15153e-20)
(1.00638 -4.17133e-05 1.21241e-22)
(1.07553 0.0685622 0)
(1.03208 0.00331922 -9.0861e-21)
(1.00401 -3.63806e-05 -3.27103e-23)
(1.01392 -0.00191402 0)
(1.01383 0.050374 -2.16044e-22)
(1.05926 0.074578 1.73446e-20)
(0.393438 0.0138016 0)
(0.949618 0.062578 -1.40262e-20)
(1.03316 0.021608 -4.10225e-21)
(1.0238 0.035084 9.28314e-22)
(1.0102 0.00203081 -1.13904e-22)
(1.06079 0.0747519 -1.03821e-20)
(1.06631 0.0382438 1.33004e-20)
(0.974929 0.0794729 0)
(0.661507 0.058918 1.65101e-20)
(1.02666 0.0253693 4.13387e-21)
(1.07278 0.0624294 0)
(0.670966 -0.0326464 1.21346e-20)
(0.492164 0.170346 -9.10092e-21)
(0.341372 0.0165154 -1.316e-20)
(1.02111 0.0369994 0)
(1.0012 7.23051e-05 0)
(0.91458 0.0851737 -8.54951e-21)
(1.01469 -0.00222954 -1.97209e-22)
(0.991191 0.0773741 -3.22348e-21)
(1.01183 0.00569362 1.19496e-21)
(1.03115 0.00693323 9.27127e-21)
(1.02039 -0.00896157 0)
(0.993242 0.0639938 0)
(0.849831 -0.135232 -5.77366e-21)
(0.289961 -0.03222 -2.71614e-20)
(1.01885 0.0128495 2.88263e-21)
(1.02653 0.0359164 4.79464e-21)
(1.00493 -1.38392e-05 5.83749e-23)
(1.03077 0.006352 0)
(1.03241 0.00294628 -1.05742e-20)
(0.864691 -0.0492824 1.19518e-21)
(1.01093 0.00625564 0)
(1.00574 0.000113422 0)
(0.619315 0.0575123 1.94214e-20)
(1.00399 -3.12837e-05 -6.2159e-24)
(1.00569 -0.000109229 -1.37909e-22)
(1.01304 0.00454139 -1.54724e-21)
(0.786689 0.0611942 -4.40077e-20)
(1.01609 0.0241587 0)
(0.898463 0.102716 5.53638e-21)
(0.664317 0.0727887 -4.24316e-20)
(1.01415 -0.00934099 0)
(0.243494 0.00900867 0)
(0.476528 0.0450116 -4.25437e-20)
(1.00861 0.000132605 1.96334e-23)
(1.02141 0.0381058 -3.38331e-22)
(1.0122 0.00769077 0)
(0.681288 0.0541253 0)
(1.0629 0.0211909 6.5312e-21)
(0.608392 0.154853 0)
(1.03104 0.0670269 -6.75792e-21)
(1.0047 2.64167e-06 9.66774e-23)
(1.03649 0.0154292 -4.41093e-21)
(1.04026 0.094814 -1.35826e-21)
(1.06609 0.0371401 1.06457e-20)
(1.01553 0.0248119 -8.42193e-22)
(1.0555 0.01793 1.86502e-20)
(1.01215 0.0075768 3.63062e-22)
(1.02512 0.0130011 -1.06821e-21)
(1.06373 0.0989167 0)
(1.0761 0.0688031 0)
(0.969445 0.0749982 0)
(1.02467 0.012658 3.6508e-21)
(1.06155 0.101276 -2.95597e-20)
(1.01561 0.00033137 7.68854e-23)
(1.03815 0.0711842 1.08161e-21)
(1.02881 0.0665433 0)
(1.07137 0.0667188 0)
(1.06164 0.0893771 1.11785e-20)
(0.479519 0.0139923 4.30726e-20)
(1.01131 -0.000440279 3.26115e-22)
(0.403453 0.0147872 0)
(1.0354 0.0309105 0)
(0.701672 0.0623172 0)
(1.01145 -0.000269721 0)
(1.01109 0.00627283 0)
(1.02343 0.0321082 -3.53634e-21)
(0.436718 0.0134119 3.54093e-21)
(0.331217 0.0148391 1.38066e-20)
(1.01858 0.0204566 8.14825e-22)
(0.834715 0.0127623 -9.33056e-21)
(1.01217 0.034369 0)
(1.0266 0.0364958 -4.38447e-21)
(1.01432 -0.00214755 -4.03519e-22)
(1.04319 0.0927782 1.27975e-20)
(1.01518 0.0127345 0)
(1.00883 0.00140564 -2.82219e-22)
(1.00384 0.0209839 1.41047e-21)
(1.00381 0.0231485 -7.0732e-22)
(0.318771 -0.0299857 1.10859e-20)
(1.07294 0.0618372 2.04546e-20)
(1.02206 0.0363271 -7.1096e-22)
(0.724729 0.0455439 -2.78904e-20)
(1.00794 0.000579717 0)
(1.01085 -0.000822688 -3.57009e-23)
(1.01089 -0.000807483 3.75128e-23)
(0.407892 0.0112784 -2.76513e-21)
(1.06254 0.0943925 0)
(1.06079 0.108468 0)
(1.01945 0.0016608 0)
(1.00403 -3.54616e-05 2.37453e-23)
(0.58911 -0.0371732 0)
(0.394928 0.0136281 0)
(1.00995 -0.000679859 0)
(1.00969 -0.000661176 0)
(1.00198 -0.00012873 3.28126e-22)
(1.01131 -0.000864033 0)
(1.01135 -0.000855406 3.05e-22)
(0.501835 0.0210927 -7.32056e-21)
(0.482811 -0.00318575 1.58787e-20)
(1.01394 0.0100778 -7.06234e-23)
(1.00997 0.000228121 2.42146e-23)
(1.045 0.0715662 0)
(0.482133 0.0214567 -1.25249e-20)
(1.00415 -3.20304e-05 -4.66802e-22)
(1.01918 0.00158915 0)
(0.791718 0.00845758 0)
(0.982432 0.0797357 0)
(1.06534 0.0963758 0)
(0.708378 0.0433717 2.56546e-20)
(1.02408 0.0796111 -5.30953e-21)
(1.01202 0.00582668 0)
(0.562467 0.0624258 0)
(1.04663 0.072949 2.86056e-21)
(1.01873 0.0410032 -1.08308e-22)
(1.06519 0.0650365 0)
(1.01896 0.0200247 -1.82893e-21)
(0.438765 -0.0103431 -5.20229e-20)
(1.0324 0.0042869 2.66894e-21)
(1.03051 0.0457259 -7.63847e-21)
(1.03294 0.0638808 1.55847e-20)
(1.01373 0.00999851 -9.4933e-22)
(1.00107 -2.37994e-05 5.30914e-23)
(1.03329 0.0222584 -4.41512e-21)
(1.00556 0.00760576 2.40789e-21)
(1.01329 -0.00136644 6.91312e-22)
(0.427761 0.0204561 -3.04138e-21)
(0.830094 0.163636 7.47468e-21)
(1.0131 -0.00146093 -6.264e-24)
(1.00941 -0.000618739 6.94034e-23)
(1.01092 0.00665532 0)
(1.0094 -0.000625873 2.1441e-22)
(1.03265 0.00393559 2.30843e-21)
(1.01482 0.000268642 -3.43205e-21)
(1.04533 0.0471141 0)
(1.01339 -0.00156723 -2.01083e-22)
(0.342255 0.0205263 -1.22105e-20)
(0.586311 0.0163462 -1.65822e-20)
(1.02151 0.0101975 0)
(1.00859 0.00839866 0)
(1.02421 0.128553 6.09778e-21)
(1.01204 -0.000719164 -2.93422e-22)
(1.02018 0.0166202 0)
(0.446968 0.024462 2.86859e-21)
(1.01198 -0.000735163 -3.04002e-22)
(0.451225 0.0165441 -1.65031e-20)
(1.01308 -0.00121599 -4.41727e-22)
(0.804055 0.067016 3.81217e-20)
(1.00398 -7.67961e-06 -3.52409e-22)
(1.01169 0.0131147 -2.21077e-22)
(1.0137 0.0101054 0)
(1.01116 0.00503001 3.91882e-22)
(1.07192 0.0780544 -1.61196e-20)
(1.00421 0.000203005 0)
(1.01402 -0.0192642 0)
(1.03232 0.0342149 4.62743e-21)
(0.769374 0.177666 -1.99123e-21)
(1.01971 -0.0106747 0)
(0.940309 0.0189306 1.21306e-20)
(0.321928 0.0161773 -1.62892e-20)
(1.00551 -6.44455e-05 -1.72901e-23)
(1.05133 0.0587424 0)
(1.00641 0.0107402 -2.30188e-21)
(1.02587 0.0260205 -4.04844e-21)
(1.00824 0.0136245 0)
(1.02959 0.0238298 0)
(1.012 -0.000799509 5.04471e-22)
(1.00519 0.000247988 0)
(1.03338 0.0950047 -1.73276e-20)
(1.04224 0.00202384 -7.27931e-23)
(1.03093 0.0450481 3.4141e-21)
(1.02962 0.0232872 0)
(1.01878 0.00162386 -2.53088e-21)
(0.646349 0.0599612 -1.90015e-20)
(0.423417 0.0118912 0)
(1.01 0.00151968 -5.81109e-23)
(1.02418 -0.0054656 1.74447e-22)
(1.02649 0.0261621 4.68311e-21)
(0.962304 0.0527338 1.04246e-21)
(1.07661 0.0678563 0)
(0.585851 0.0212585 3.65246e-20)
(0.648369 0.146901 0)
(1.03679 0.00371176 0)
(0.984348 0.0762778 3.11731e-21)
(1.0087 0.00741291 0)
(1.01383 0.0617472 -3.21256e-21)
(0.962151 0.0652365 0)
(1.0755 0.0674377 0)
(1.01447 0.000276424 -8.62206e-21)
(1.0104 0.01286 -1.35475e-21)
(0.83636 -0.00639823 -1.38082e-20)
(1.01179 0.0075467 1.72386e-22)
(0.994994 0.0279542 1.05684e-21)
(1.07071 0.0667932 -1.95562e-20)
(1.00348 -7.55222e-05 0)
(0.693147 0.0545679 8.8655e-21)
(1.01371 0.00178812 9.03821e-22)
(1.07848 0.0432429 0)
(1.01543 -0.000517016 3.16012e-22)
(0.375592 0.0109986 1.35542e-20)
(1.0077 0.00121411 1.21773e-21)
(1.03266 0.0443321 -4.18006e-21)
(1.01317 0.0356782 0)
(1.03411 0.00541821 2.70518e-23)
(1.00469 -3.29157e-05 -4.94644e-23)
(1.06679 0.0641647 2.32521e-20)
(1.01507 0.0736887 -1.68686e-21)
(1.01937 0.0155197 0)
(1.01161 0.00726723 -3.08744e-23)
(0.569374 0.0319091 0)
(1.00847 0.0764141 3.12857e-20)
(0.853926 0.115244 -4.00536e-20)
(0.967336 0.142448 0)
(1.01156 -0.00067501 -2.75422e-22)
(1.01465 0.0107853 -7.44175e-22)
(0.971898 0.0817546 0)
(0.988773 0.0801463 1.36391e-21)
(1.01153 -0.000697919 -2.6295e-22)
(1.00645 0.0125789 1.58752e-21)
(1.02189 0.0129585 -1.48251e-21)
(1.02805 0.0357922 0)
(1.03223 0.0451215 2.48787e-22)
(1.05814 0.0830221 1.80909e-20)
(1.00933 0.0671298 -1.71967e-21)
(1.02358 0.0173768 -1.13606e-21)
(1.07448 0.0443642 0)
(0.520912 0.0219761 1.18479e-20)
(1.01034 0.00214672 0)
(1.01983 0.0156918 0)
(1.00881 0.0164743 -1.67929e-22)
(1.07692 0.074564 -1.75613e-20)
(1.00344 -6.16446e-05 0)
(0.463496 0.0118311 -3.52142e-20)
(1.07502 0.0436628 0)
(0.893981 0.0749185 0)
(1.01971 0.0136902 4.80401e-21)
(0.998136 0.0758349 -6.94716e-22)
(1.02237 -0.00589039 -1.75284e-22)
(0.782273 0.0220372 5.6013e-21)
(1.01746 -0.00318874 2.47328e-22)
(1.06309 0.105253 1.13195e-20)
(1.02961 0.126361 0)
(1.01266 0.037571 0)
(1.02163 0.0106045 0)
(1.07825 0.073657 -2.59606e-20)
(1.01642 -0.000408911 3.36605e-22)
(0.649956 0.086034 -3.06322e-20)
(1.06352 0.0909227 -1.28661e-20)
(1.01804 -0.00297737 -2.49615e-22)
(0.817769 0.0285591 2.8104e-22)
(1.01348 0.0102314 6.13384e-23)
(0.981789 -0.00333228 0)
(1.00952 -0.000334617 1.42243e-22)
(0.478818 0.0126004 1.35227e-20)
(0.97478 -0.00661085 0)
(1.023 0.0225255 1.06014e-22)
(0.544996 -0.023469 -1.30444e-20)
(1.02599 0.0237995 1.08654e-21)
(1.01892 0.0188609 -3.43883e-21)
(0.74836 0.0886731 3.35677e-20)
(1.08173 0.0773652 3.46204e-20)
(1.02396 0.0215442 2.80772e-21)
(1.07217 0.0796393 1.52747e-20)
(1.01528 0.0110345 0)
(1.02933 0.0227389 9.01484e-22)
(1.07637 0.0677687 -1.8906e-20)
(1.01387 0.00157895 0)
(1.05521 0.0287479 -1.74013e-20)
(1.03031 0.0232085 3.98668e-21)
(1.01131 0.00506495 1.7264e-21)
(1.00933 0.00222853 -9.54497e-22)
(1.01043 0.00244749 1.50787e-22)
(0.427714 0.17709 -1.00398e-20)
(1.00507 -0.00289184 0)
(1.01979 0.0147384 -2.19332e-21)
(1.01067 0.00221721 0)
(1.01222 0.00729764 0)
(1.0447 0.0576565 1.50994e-20)
(0.953643 0.0565827 4.25235e-21)
(1.01367 -0.000674346 -2.81741e-24)
(1.00848 0.00011997 0)
(1.07636 0.0673865 -8.16666e-21)
(0.996881 0.0711287 0)
(1.01133 0.00529751 0)
(1.02313 0.0221414 -2.72119e-21)
(0.771024 0.143317 -6.72869e-21)
(0.734265 -0.0677454 -3.83979e-22)
(1.03906 -0.00563515 -1.69766e-23)
(1.07123 0.0705829 -3.5518e-21)
(1.05161 0.0632982 1.72885e-20)
(1.01458 -0.00120384 5.72573e-22)
(1.01309 -0.000682575 1.71129e-24)
(1.02116 0.0323431 1.15873e-22)
(1.00924 0.00213047 9.35657e-22)
(1.01363 -0.000714489 -2.88933e-22)
(1.01392 0.0102145 1.20993e-21)
(1.01307 -0.000717748 0)
(1.01432 -0.00122072 3.7673e-22)
(0.523697 0.0266147 0)
(1.0155 0.0114549 -6.87069e-23)
(1.02555 0.03885 0)
(0.35832 0.0231807 9.7988e-21)
(1.04994 0.0580094 0)
(1.00897 0.00150978 2.84421e-22)
(1.03002 0.00633449 2.10802e-21)
(0.760923 0.0814306 -1.20916e-23)
(1.02271 0.0321836 0)
(0.375387 0.0115445 -7.50579e-21)
(1.01486 -0.000582146 -3.01093e-22)
(1.02005 0.00436723 -4.68234e-21)
(1.01681 -0.000330249 -5.28184e-22)
(1.01178 -0.000898163 4.91975e-23)
(1.02059 0.0223276 -4.52884e-21)
(1.01334 0.0101045 1.82556e-22)
(0.791666 0.145763 0)
(1.0288 0.000139646 0)
(0.963472 0.0789686 5.88565e-21)
(1.01975 0.00440258 8.56426e-21)
(1.06132 0.0432525 0)
(1.03159 -0.00435606 1.59109e-22)
(1.01507 0.012265 0)
(1.02741 0.0794336 8.45375e-21)
(0.843803 0.119611 0)
(1.02192 0.0125867 0)
(0.511489 -0.109698 2.3124e-21)
(1.00913 0.00175033 -1.97044e-22)
(1.00847 0.00077541 -1.59656e-21)
(1.01206 0.00698393 -3.37816e-22)
(1.01365 0.0104557 -5.54823e-22)
(1.00853 0.00120872 -3.75573e-22)
(1.01122 0.000867474 -1.39213e-21)
(0.63543 0.0577637 -1.78902e-20)
(0.575537 0.157938 0)
(1.00839 0.00112214 3.75923e-22)
(0.925958 0.0287522 -2.17277e-20)
(1.07552 0.0670737 -4.69877e-21)
(1.01855 0.000511713 -5.59454e-21)
(1.04978 0.061292 0)
(1.08393 0.0590508 8.00517e-21)
(0.705969 0.064013 -4.31217e-20)
(1.0578 0.0302464 -7.96452e-21)
(0.978119 0.0746957 -2.64498e-20)
(0.937567 0.0488998 0)
(0.950593 0.0488213 -4.39413e-22)
(1.01348 0.0102969 0)
(1.0354 -0.000676313 0)
(1.03497 -0.00690278 -7.98932e-23)
(1.01863 0.0193137 1.66903e-21)
(1.01038 0.112755 1.1159e-21)
(1.00636 -0.000116626 0)
(1.01859 0.0119708 0)
(1.01922 0.0159708 0)
(1.05823 0.0260543 -3.26959e-20)
(1.02475 0.0339376 4.3818e-21)
(1.07494 0.0697089 0)
(1.06304 0.0567136 0)
(1.01404 -0.00667809 -3.33702e-22)
(1.00769 0.00878448 8.65761e-22)
(1.00978 0.0553626 3.7663e-22)
(1.02062 0.0415127 -1.81218e-21)
(1.01944 0.0144751 -2.21627e-21)
(0.860122 0.114896 -1.84652e-21)
(1.05025 0.046584 1.2169e-22)
(1.03308 0.0343293 1.75026e-22)
(0.653674 0.111573 0)
(1.01392 0.00204489 4.33171e-21)
(1.01922 0.0415184 0)
(1.04072 0.0986709 1.49594e-20)
(1.008 0.0012652 -2.25638e-23)
(0.525214 0.0496905 1.01398e-20)
(1.00852 0.000782953 -1.01056e-21)
(1.0118 -0.000883658 3.12161e-22)
(1.04579 0.0587415 -1.73844e-20)
(1.01482 -0.000621406 0)
(1.0082 0.000615186 8.62127e-22)
(1.02994 0.0926246 6.98932e-21)
(0.582858 0.060917 -1.0135e-20)
(0.443565 -0.0456125 0)
(1.01306 0.00429561 3.41831e-21)
(1.04163 0.014964 0)
(1.01282 -0.00249951 -7.62931e-22)
(1.03059 0.122992 -7.06823e-22)
(0.951025 0.140107 1.71266e-21)
(1.01901 0.0136497 0)
(1.01932 0.0129306 -4.85563e-21)
(1.01274 0.00384771 3.74939e-21)
(1.0359 0.061479 0)
(0.9027 0.107413 1.66842e-21)
(1.01048 0.00169485 2.85805e-23)
(1.0042 -7.00517e-05 0)
(1.01107 0.00590751 0)
(1.01127 0.00487846 5.3875e-22)
(1.0176 0.00451419 0)
(1.0402 0.0364083 0)
(1.00589 -7.19472e-05 -4.78206e-25)
(1.06226 0.05744 9.44384e-21)
(1.00795 0.00120018 1.90571e-21)
(1.01259 0.00781241 -6.26277e-22)
(1.03039 0.0227203 1.89565e-21)
(0.573751 0.0249485 -2.16222e-20)
(1.00702 -0.000182423 -9.73786e-23)
(1.04828 0.0214573 -4.41329e-21)
(1.01299 -0.00132546 -4.57403e-22)
(1.06088 0.0422673 1.99643e-20)
(1.05286 0.0665323 1.12437e-20)
(1.02892 0.0416684 -3.25062e-22)
(1.03287 0.0656264 -1.87139e-22)
(1.00956 0.00373559 0)
(1.02847 0.0214916 0)
(1.00969 0.0515274 4.93584e-22)
(0.730883 0.0636657 -8.41224e-21)
(0.543278 0.0207665 0)
(0.378115 0.0277592 -9.24981e-21)
(1.00982 0.00105874 -3.18528e-23)
(1.01174 0.00646884 0)
(1.01331 -0.00769165 1.32313e-21)
(1.02165 0.0076551 -2.68278e-21)
(0.862176 0.0576015 -7.27272e-21)
(1.0125 -0.000757293 3.22649e-22)
(0.895223 0.142829 1.65689e-22)
(1.03616 0.0308589 0)
(0.824872 0.0614513 -1.52036e-20)
(1.0165 0.0124737 -1.71425e-21)
(1.05665 0.0181534 -3.47423e-20)
(0.0749543 -0.029916 9.00903e-21)
(1.00841 0.0010332 -3.2639e-22)
(1.08062 0.055852 0)
(1.00395 2.14225e-06 0)
(1.01711 -0.000919778 1.57068e-24)
(0.786442 0.0589442 1.11786e-20)
(1.01427 -0.000636966 7.20556e-23)
(1.07487 0.0688956 -4.01163e-20)
(1.00387 -2.50427e-05 7.71659e-23)
(1.01731 0.000279073 6.03151e-21)
(1.01189 0.00677161 -2.64805e-22)
(1.07435 0.0696408 -1.90009e-20)
(1.01746 0.00567557 0)
(1.00853 -0.000501197 0)
(1.07316 0.0667544 0)
(1.04853 0.0603893 -6.86582e-21)
(0.849218 -0.190678 -7.0782e-21)
(1.03072 0.0632166 -1.35673e-20)
(0.662668 0.0627953 4.16701e-21)
(0.692276 0.0635906 1.68357e-20)
(1.00697 -0.000155131 1.66969e-22)
(0.412759 0.0123015 -1.20646e-20)
(1.00649 2.03737e-05 -5.69506e-23)
(0.52354 0.167299 0)
(0.866366 -0.134297 0)
(1.01816 -0.00062663 -8.30954e-22)
(1.01944 -0.00665603 2.19032e-22)
(1.00437 2.57825e-05 -5.02151e-23)
(1.04976 0.0459684 2.53242e-20)
(1.05506 0.0167248 1.00522e-20)
(1.01424 -0.000679441 -6.71685e-22)
(1.00381 2.69237e-05 1.36484e-22)
(1.01305 0.000394227 0)
(1.06098 0.0641095 1.23037e-20)
(1.01413 0.00517267 0)
(1.07286 0.0568576 -2.28134e-20)
(1.01822 0.0115802 1.70719e-21)
(1.00841 -0.000475567 7.27138e-23)
(1.0047 -2.62191e-05 1.185e-22)
(1.02967 0.112078 -1.18337e-20)
(0.923578 0.0859409 0)
(0.139925 -0.00983728 1.31655e-20)
(1.06448 0.0641155 0)
(1.04101 0.0361629 0)
(1.09319 0.0886726 5.20103e-21)
(0.486972 0.02287 0)
(1.00981 -0.000391891 9.37423e-23)
(0.938004 0.115114 2.59112e-20)
(1.0126 0.00018549 0)
(1.08335 0.0654866 0)
(1.02134 0.00780417 0)
(1.08458 0.0723718 6.55647e-21)
(1.01106 0.00463377 -1.53677e-21)
(1.01868 0.00371307 5.89633e-22)
(1.03184 0.00703437 -1.13971e-20)
(0.851226 -0.193764 4.47203e-22)
(1.04737 0.0473486 8.55475e-22)
(0.81696 0.0547434 -8.03316e-21)
(1.00565 -7.47764e-05 -5.88178e-24)
(1.04557 0.0457459 -2.04012e-20)
(1.0111 0.000878527 1.55589e-22)
(1.00329 -6.31442e-05 -5.84974e-24)
(0.534315 0.0237573 1.23099e-20)
(1.032 -0.00789934 0)
(1.01139 0.000645753 -2.72204e-22)
(1.05931 0.0849459 -9.94812e-21)
(1.01902 0.00173971 1.11716e-20)
(1.01576 -0.000385883 1.01716e-21)
(1.00398 -2.93413e-05 -5.06223e-23)
(0.554819 0.0271006 1.16375e-20)
(1.01434 0.00513676 1.14318e-21)
(1.0051 0.00917612 -2.0841e-21)
(1.01252 -0.000730975 -1.92605e-22)
(1.01127 0.000660257 -2.32856e-24)
(1.0764 0.0753011 9.7189e-21)
(1.00457 -1.13301e-05 0)
(1.06237 0.0796949 0)
(1.00301 -3.28695e-05 -1.01997e-23)
(1.00782 0.00130954 -9.96957e-22)
(0.49285 0.171103 -3.67594e-21)
(1.07316 0.0575464 1.40173e-20)
(1.01873 0.0131749 0)
(0.279669 0.0103938 1.91494e-20)
(1.0751 0.0691089 2.14001e-20)
(0.9541 0.0298335 0)
(1.0378 0.100225 0)
(1.00827 0.000950547 3.20192e-22)
(1.00867 0.0126868 -1.73573e-21)
(0.552267 0.0217957 8.94132e-23)
(1.07644 0.0738703 -3.13653e-20)
(1.02137 0.0315608 -9.87536e-22)
(1.02146 0.0232408 -6.86665e-22)
(1.02012 0.00365089 -1.40828e-21)
(1.00364 -3.01139e-05 0)
(1.01038 0.00314003 3.91191e-22)
(1.03974 0.00380893 0)
(1.05185 0.069204 0)
(1.03241 0.0284768 -2.39107e-21)
(0.612109 0.115744 6.32265e-20)
(1.04828 0.048129 0)
(0.930786 0.0523009 -5.04947e-21)
(0.931335 0.144405 -5.23024e-21)
(1.04223 -0.00441721 -2.04657e-22)
(1.03614 0.0444754 0)
(1.0629 0.0868461 -8.56281e-21)
(0.464729 0.0183628 2.93584e-20)
(1.01181 -0.000716937 0)
(1.02228 -0.0105339 1.93949e-22)
(1.04033 0.00852404 0)
(1.00788 0.00135569 -5.51238e-22)
(1.00536 -8.99877e-06 1.22949e-22)
(1.00478 -3.74863e-05 -9.71424e-23)
(1.01202 -0.00274604 4.39706e-22)
(1.00927 0.00070637 -3.77788e-23)
(0.418465 0.0125871 4.50663e-21)
(1.07314 0.0379685 0)
(1.00628 0.000225791 -1.87562e-22)
(1.07029 0.066088 -6.63099e-21)
(1.00591 -8.32922e-05 3.63725e-22)
(0.610269 0.026665 -3.79998e-20)
(1.01334 -0.00121376 -2.23873e-22)
(1.01024 0.00187755 1.34006e-22)
(0.549796 0.0566261 0)
(1.05386 0.0639748 1.33918e-20)
(0.886545 0.0715276 -1.24275e-21)
(1.03349 0.0093208 -8.18362e-21)
(1.01814 -0.0014886 1.83766e-22)
(1.01029 0.0012034 1.74748e-23)
(1.03873 0.0124866 -5.81608e-21)
(1.05108 0.0359364 -1.28237e-21)
(1.01075 0.00460109 1.07605e-21)
(0.36175 0.0148387 -1.70585e-20)
(1.03178 0.0363605 -5.00539e-21)
(0.93403 0.159672 -6.8676e-21)
(0.886307 0.0477553 1.05824e-21)
(1.02399 -0.0085219 -3.08504e-23)
(0.663319 0.0641642 -1.54449e-20)
(1.04123 0.0154696 0)
(1.00449 8.84796e-05 0)
(1.01122 0.000865182 -2.1571e-22)
(0.462511 0.0267137 2.86524e-21)
(0.479258 -0.0267616 0)
(1.03518 0.0316024 -3.10853e-21)
(0.381496 0.0133869 6.69063e-21)
(0.847282 0.120847 0)
(1.00783 0.00132391 -9.46276e-22)
(1.01014 0.00162597 0)
(1.01982 0.0221119 -4.06665e-21)
(0.991296 0.0744745 -1.91468e-21)
(0.912191 0.0744683 0)
(1.04626 0.0479248 0)
(1.03799 0.0123134 4.94956e-21)
(1.04777 0.0219805 9.68455e-21)
(1.08403 0.0661318 -5.35406e-21)
(1.00938 0.00732033 -2.90665e-22)
(1.05943 0.0811819 -2.15319e-20)
(1.07234 0.0388227 3.87611e-21)
(1.01848 0.0151721 0)
(1.03121 0.0182838 1.21043e-20)
(1.00437 8.38361e-05 1.6763e-22)
(1.05031 0.0354608 0)
(1.0069 0.00752064 -8.59342e-22)
(1.07966 0.0780837 2.0168e-20)
(1.02496 0.0265378 1.90047e-21)
(1.01588 0.00306808 -6.40366e-22)
(0.368784 0.0139557 0)
(1.02047 -0.0002686 4.24394e-23)
(0.870161 0.120874 -9.26468e-23)
(1.0218 0.0226516 -2.64103e-21)
(1.00429 0.0245897 4.31533e-22)
(1.03921 0.0308118 3.93847e-21)
(1.07695 0.0733401 3.08596e-20)
(1.00414 -4.78357e-05 0)
(1.08132 0.0540412 -2.7165e-20)
(0.952049 0.0841397 0)
(0.959924 0.0337302 -1.17551e-21)
(1.02253 0.00770955 5.37323e-21)
(1.02561 0.0266629 2.27411e-21)
(1.00747 0.000374339 -5.86179e-22)
(1.01973 0.00597729 4.86681e-21)
(1.03182 0.00590189 -1.1591e-21)
(1.02084 0.00946904 0)
(1.03234 -0.00112549 0)
(1.02899 0.110085 -2.58955e-21)
(1.06158 0.0814343 7.7747e-21)
(1.00816 0.000790914 -2.94367e-22)
(1.07455 0.0783784 3.48121e-21)
(1.06148 0.0223634 0)
(1.0578 0.0266755 1.74414e-20)
(1.06174 0.0850253 -2.93635e-21)
(1.01459 0.0109862 1.43448e-21)
(1.07962 0.0560191 0)
(0.978525 -0.0334998 1.48971e-21)
(1.00761 -0.000335618 -2.28537e-22)
(1.05494 0.063414 0)
(1.02311 0.0709418 4.12075e-21)
(1.07101 0.0386635 0)
(1.00972 0.00258195 3.71258e-22)
(1.00866 0.001409 4.37252e-22)
(1.01033 0.00300706 0)
(0.421141 0.0129127 -8.60052e-21)
(1.03044 0.0172279 5.33082e-21)
(1.01415 -0.00129945 4.39656e-22)
(1.07707 0.0429896 0)
(1.01092 0.00484292 -1.42758e-21)
(1.00928 0.00160646 8.54187e-23)
(1.04649 0.0862804 -1.43878e-20)
(1.01418 -0.0254268 4.22413e-21)
(1.02794 0.0148583 3.24669e-22)
(0.665757 -0.0827529 3.96785e-22)
(1.02699 0.0361364 0)
(0.964005 0.0829228 0)
(1.0323 0.00551877 1.58386e-21)
(1.01213 0.011193 0)
(1.08985 0.0797988 -1.10039e-20)
(1.01804 8.50416e-05 0)
(0.998606 -0.0170174 -8.30226e-22)
(1.00441 -4.08114e-05 1.6636e-22)
(1.00527 -4.9435e-05 0)
(1.03201 0.0100892 2.8814e-21)
(1.02401 0.0270426 0)
(1.03078 0.0409876 1.54111e-22)
(1.00965 0.00247494 1.75224e-22)
(1.04045 -0.0170725 0)
(1.01098 0.0045142 -2.07372e-23)
(0.868578 -0.15723 5.02377e-21)
(1.02242 0.0228939 0)
(1.05845 0.0294754 8.65354e-21)
(1.01538 -0.000542191 -3.46198e-22)
(1.06472 0.065726 -2.79898e-21)
(1.01109 0.0135641 2.2861e-22)
(0.816276 0.0828798 -2.70652e-20)
(1.03095 0.0132265 0)
(1.00324 1.1147e-05 -2.9979e-22)
(0.577373 0.0224677 1.4251e-20)
(1.03063 0.0189722 3.99013e-21)
(0.423362 0.0187517 0)
(1.0551 0.0149802 9.03137e-21)
(1.04721 0.0134612 -9.37311e-23)
(1.0103 0.0078737 0)
(1.00969 0.000653956 1.12706e-23)
(1.02229 0.00729231 2.75749e-21)
(0.706861 0.0494442 0)
(1.04856 0.0355456 1.20494e-20)
(0.95037 0.0382944 0)
(0.703273 -0.0701769 0)
(1.01949 0.00579095 -6.99812e-23)
(1.07049 0.039525 8.35454e-21)
(1.00976 0.000217774 0)
(1.01256 -0.00922236 2.84077e-22)
(0.863395 0.0702942 -8.01562e-22)
(1.01025 0.000237029 -8.67668e-24)
(0.580647 0.0484435 9.32192e-21)
(1.04994 0.0211637 9.46753e-21)
(1.05117 0.008168 -7.52671e-22)
(1.06858 0.0701849 0)
(0.949392 0.0127485 -1.53767e-21)
(1.00945 -0.000675055 5.37725e-22)
(1.00554 1.2427e-05 -8.28689e-23)
(1.00607 0.0697311 -1.22685e-21)
(1.0083 0.000861974 4.36137e-22)
(1.01776 0.0118536 3.15034e-21)
(1.02473 0.0210115 -3.82201e-21)
(1.01145 0.00596103 2.39599e-22)
(1.07628 0.0437396 0)
(1.0093 -0.000655564 -3.66149e-22)
(1.04929 0.0537767 0)
(1.01801 0.0149756 3.11094e-21)
(0.46011 0.012912 3.22724e-20)
(0.413243 0.0182706 0)
(0.983054 0.0604347 1.54644e-21)
(0.952528 0.080388 -4.01777e-21)
(0.531106 -0.0986619 5.07464e-21)
(0.447249 0.0117949 -3.70865e-20)
(0.950995 0.0456096 1.29992e-21)
(1.0074 0.00090438 7.53413e-23)
(1.01509 -0.00035483 -5.3648e-22)
(1.02613 0.00897851 6.47613e-21)
(1.02736 0.0190565 0)
(1.01275 0.00406165 -3.87489e-21)
(1.04949 0.0360687 -1.46606e-20)
(1.01408 0.00633892 1.14503e-21)
(0.959919 0.0638198 2.36476e-21)
(1.01808 0.0122694 -1.64348e-21)
(1.08271 0.0640762 -1.38106e-20)
(1.03032 0.0164562 -2.87234e-21)
(1.07149 0.0323549 0)
(1.00595 0.0579522 8.02468e-22)
(1.01016 0.000744676 4.22401e-23)
(1.02524 0.0373842 0)
(1.03017 0.0191275 -1.00024e-21)
(1.01716 -0.00239243 -2.79013e-22)
(1.04361 0.0311922 0)
(1.01648 -0.000461485 -1.70223e-22)
(0.661149 0.067968 0)
(1.05223 0.0709666 -7.17228e-21)
(1.04682 0.00567084 7.53523e-23)
(1.01004 0.00138047 0)
(1.02448 0.00124827 -2.91767e-21)
(1.01185 0.00742377 -5.76889e-22)
(1.01095 0.00477168 0)
(0.670471 0.0976836 2.97426e-20)
(1.00755 0.00104743 8.05723e-22)
(1.02284 -0.00450245 0)
(1.01101 0.00448532 1.06862e-21)
(0.91864 0.0698288 0)
(1.0128 0.0114237 -2.85458e-22)
(1.01253 0.00602227 -7.56279e-22)
(1.0815 0.0548481 2.02277e-20)
(1.00313 -0.00825887 -4.5327e-22)
(1.00768 0.00113978 -1.03627e-21)
(0.886181 0.010445 -1.04886e-21)
(0.96832 0.111155 -1.24488e-21)
(1.01679 0.0201276 -1.37509e-22)
(1.06629 0.0649285 -2.3446e-20)
(1.00843 0.000609998 -1.79973e-22)
(1.02395 0.00406589 0)
(1.01732 -0.000830451 -3.55848e-22)
(1.01098 0.00518372 1.71305e-22)
(0.503558 0.0186584 0)
(1.00474 -6.41702e-05 5.41978e-23)
(1.03615 0.0164975 0)
(1.06954 0.0660772 2.4577e-20)
(0.490548 0.0165621 6.9389e-21)
(1.01756 -0.0010112 1.84441e-22)
(0.922645 0.042449 0)
(1.08976 0.0795897 -2.23845e-20)
(1.01688 -0.00374787 2.29665e-22)
(1.01258 0.00955004 -1.32638e-22)
(1.01159 0.00624595 0)
(1.06662 0.0636127 -1.4037e-20)
(1.02357 0.00168785 8.53441e-21)
(1.07338 0.0671724 0)
(1.02662 0.0115183 0)
(0.533723 0.0524415 0)
(1.01188 0.0122428 -1.3139e-22)
(0.806927 0.144108 1.863e-21)
(1.01062 0.00237295 0)
(1.01369 -0.000381979 -1.38391e-22)
(0.96383 -0.000888583 0)
(1.00962 0.000514483 0)
(1.02004 5.65729e-06 1.17926e-22)
(0.776903 0.0665827 0)
(1.02132 0.0196174 1.26612e-21)
(1.009 0.0023097 -1.56577e-21)
(0.951278 0.0922517 -1.51779e-21)
(1.0176 -0.00368822 -4.88805e-22)
(1.0149 -0.000341994 5.3034e-22)
(1.05318 0.0682753 1.42948e-20)
(1.02345 0.0209844 -1.70144e-21)
(0.845925 0.056945 0)
(1.02635 0.0385841 0)
(1.08216 0.0592192 1.49668e-20)
(1.03389 0.0982511 -8.40176e-21)
(1.04677 0.0218309 4.47884e-21)
(0.554754 0.0484801 1.16888e-20)
(1.01806 0.0158892 4.70747e-21)
(1.05403 0.0657022 0)
(1.02141 0.00435435 4.89091e-21)
(0.391591 0.0231531 1.35553e-20)
(0.931377 0.0681804 0)
(1.03532 0.00907382 0)
(1.01719 -0.000613407 1.74299e-22)
(1.01583 -0.00173179 -8.0233e-22)
(1.01937 0.0138109 0)
(1.0169 -0.000556173 1.7583e-22)
(1.01381 -0.00135312 0)
(1.01299 -0.00118011 0)
(1.02235 0.00670573 5.28848e-21)
(1.03851 0.0368792 1.12334e-20)
(1.00753 -0.000312526 2.23804e-22)
(1.0215 0.019104 1.26297e-21)
(1.07017 0.0615056 -1.20389e-20)
(0.641258 0.0471991 0)
(0.791227 0.0750731 1.51124e-20)
(1.06907 0.0652458 0)
(1.01204 0.0076787 -3.26577e-23)
(0.963212 0.0104688 0)
(1.01358 0.00555511 -4.79931e-22)
(1.08752 0.0775556 1.11002e-20)
(0.884595 0.101875 0)
(0.187666 0.00841055 -1.8634e-20)
(1.01207 -0.000854782 -1.97108e-22)
(1.00751 0.000986692 -8.39007e-23)
(1.01608 0.00114318 2.14444e-21)
(1.01545 0.0103369 -3.27324e-21)
(1.01186 -0.000828066 0)
(1.01679 -0.000318954 -7.51171e-25)
(1.01608 0.00597492 -5.34157e-21)
(1.03577 0.0455073 -5.02029e-21)
(1.00912 0.00237514 0)
(0.348919 0.00624036 -1.64766e-20)
(0.949028 0.0751395 1.38511e-21)
(1.00922 0.00274257 1.56327e-21)
(0.735072 0.0531629 9.65923e-21)
(1.02184 0.00449071 -5.12609e-21)
(1.01044 0.00260553 -9.66553e-23)
(1.00995 -0.0129322 -1.49533e-21)
(0.569123 0.028766 -8.96965e-23)
(1.01837 0.0395881 0)
(1.00524 -5.75502e-05 0)
(0.890129 0.0985397 1.25841e-21)
(1.01102 0.000160081 1.78495e-23)
(1.01054 0.00209962 -5.12412e-24)
(1.07287 0.0784084 -1.55839e-20)
(1.01559 -0.00017898 2.61466e-22)
(0.870172 -0.0481988 -6.21702e-24)
(1.03694 0.0169171 0)