/*--------------------------------*- C++ -*----------------------------------*\
| =========                 |                                                 |
| \\      /  F ield         | OpenFOAM: The Open Source CFD Toolbox           |
|  \\    /   O peration     | Version:  v2012                                 |
|   \\  /    A nd           | Website:  www.openfoam.com                      |
|    \\/     M anipulation  |                                                 |
\*---------------------------------------------------------------------------*/
FoamFile
{
    version     2.0;
    format      ascii;
    class       volScalarField;
    location    "450";
    object      k_0;
}
// * * * * * * * * * * * * * * * * * * * * * * * * * * * * * * * * * * * * * //

dimensions      [0 2 -2 0 0 0 0];


internalField   nonuniform List<scalar> 
13851
(
0.00020324
0.000154984
0.000154782
0.0194769
0.000148437
0.000157561
0.000155841
0.000147701
0.053394
0.000148428
0.000177181
0.000148476
0.000149029
0.0296665
0.000170087
0.000203275
0.016903
0.000148663
0.000263277
0.000203069
0.000173187
0.000156242
0.0366527
0.000149734
0.0435765
0.000186591
0.000106697
0.0182312
0.0487224
0.00014682
0.0443212
0.000155818
0.000203208
0.0705462
0.000170292
0.0482068
0.00014981
0.036247
0.0668211
0.000148996
0.071229
0.0509006
0.00609189
0.000221637
0.0541866
0.000147785
0.000145517
0.00020282
0.000152769
0.000148983
0.0257176
0.000149249
0.000203193
0.0001654
0.0276957
0.000148992
0.000203499
0.0686993
9.54308e-05
0.0305727
0.000148525
0.000244303
0.000148608
0.000153045
0.000181907
0.000182486
0.0247798
0.00016635
0.000149285
0.0280954
0.0399357
0.000177563
0.000148552
0.0271979
0.000166852
0.000152931
0.0222502
0.000146
0.0304339
0.000147786
0.000149356
0.000249712
0.000169767
0.0316541
0.031935
0.0432803
0.000156504
0.0215712
0.000148393
0.0441108
0.000149364
0.000155995
0.00983895
0.0391487
0.0612508
0.000200116
0.000147906
0.000204199
0.0269036
0.000195578
0.000205315
0.000162078
0.000163122
0.000148819
0.0001478
0.000175985
0.00014779
0.0421836
0.000155961
0.000148511
0.000159916
0.000147805
0.000205749
0.000179729
0.0002031
0.000164491
0.000146575
0.000147194
0.016969
0.0315357
0.000190255
0.000147776
0.000149194
0.0500235
0.000226836
0.000172541
0.000147899
0.000171783
0.0659331
0.000176663
0.000156153
0.000162896
0.0142614
0.0695175
0.000177866
0.0607669
0.000166042
0.0419485
0.000160188
0.000176639
0.00023755
0.000150583
0.000148414
0.000171354
0.0409487
0.000152452
0.000145931
0.0396628
0.0424461
0.000172452
0.000205208
0.000204083
0.00018091
0.000226462
0.000149574
0.000148674
0.000148613
0.062879
0.000174408
0.000154317
0.000149584
0.0485731
0.000175529
0.000202902
0.0303033
0.057725
0.058987
0.030436
0.000159754
0.0768131
0.000148627
0.000146554
0.000179932
0.000148826
0.0647777
0.000141389
0.000209244
0.000146488
0.000166902
0.000208012
0.000226159
0.000221277
0.000159276
0.000176425
0.00706541
0.0432038
0.000203189
0.000157504
0.000149376
0.000147285
0.0242513
0.000174351
0.024394
0.0001578
0.000152187
0.000203645
0.000202454
0.000149831
0.000149762
0.000167048
0.000237082
0.0655151
0.0690855
0.000170104
0.000310784
0.0614985
0.000152324
0.000176717
0.0547783
0.000156575
0.000203107
0.000149132
0.000245546
0.000149536
0.000171013
0.000154071
0.000148892
0.000222379
0.000149891
0.000496643
0.000146452
0.000202856
0.0270703
0.062588
0.000157152
0.000177018
0.000149743
0.000169901
0.000148087
0.000170596
0.0323317
0.000157086
0.000156536
0.000148724
0.0669808
0.000146808
0.0201568
0.0680949
0.000191963
0.000149645
0.00038087
0.0325732
0.0546458
0.000202878
0.000166132
0.000174672
0.000218374
0.000167192
0.000199374
0.000161363
0.0230263
0.000202177
0.000147205
0.00015805
0.00020444
0.0471857
0.0250543
0.000147223
0.000173045
0.00014836
0.000216488
0.000225282
0.000158676
0.000176117
0.000202802
0.000148255
0.000162504
0.000198837
0.00819338
0.000148523
0.00014887
0.000157286
0.0630957
0.011759
0.000176053
0.00014794
0.000225714
0.000225409
0.000199756
0.00017576
0.0618146
0.0263739
0.00015899
0.000167231
0.0349042
0.000147789
0.000148604
0.000200435
0.000174002
0.000146875
0.000149516
0.000148037
0.000147886
0.000166224
0.000148562
0.055164
0.000174343
0.000148474
0.0469358
0.0473269
0.000149319
0.000203411
0.0259911
0.000150819
0.000149406
0.000175472
0.029693
0.0760138
0.000182829
0.000148354
0.0736942
0.000148577
0.000184468
0.0312105
0.00626078
0.000153993
0.0225634
0.00147275
0.0471412
0.000203097
0.00016252
0.0659107
0.0563624
0.0150465
0.000150002
0.024295
0.00827772
0.000211663
0.000207537
0.000152348
0.000182072
0.000157915
0.0228186
0.000163571
0.000147026
0.000144856
0.000158356
0.0438172
0.0003759
0.00014772
0.0599498
0.000157958
0.000163149
0.00015457
0.0253922
0.000225779
0.000203779
0.000153672
0.000155836
0.0461509
0.000149404
0.000229913
0.000158891
0.000175377
0.00015854
0.000148378
0.000148454
0.00019845
0.000199204
0.000202549
0.00436125
0.0470011
0.000152581
0.065997
0.00022375
0.000146803
0.00810639
0.000192305
0.0316079
0.000157831
0.000188284
0.000192897
0.0284771
0.000196471
0.0254861
0.00015114
0.000110192
0.00657974
0.000163119
0.0280202
0.000165427
0.0713665
0.000166852
0.000173831
0.000201894
0.000212419
0.000148682
0.000158246
0.000175028
0.000167175
0.000147937
0.000176403
0.0671794
0.000148539
0.000176714
0.0120578
0.000154369
0.00210545
0.000176442
0.0794654
0.000157273
0.000185201
0.000315108
0.000230489
0.000175365
0.0213349
0.0274443
0.000388
0.00014828
0.000197825
0.000165406
0.000187891
0.000147807
0.00715022
0.0729855
0.0337024
0.000155778
0.000202568
0.000227363
0.0128538
0.000145582
0.01794
0.000220308
0.0340474
0.000161968
0.0262581
0.000148587
0.000148751
0.0236823
0.00020468
0.000148442
0.000155014
0.000177155
0.000146777
0.0698521
0.000182427
0.000191792
0.00015812
0.000151179
0.000149304
0.0163635
0.00014843
0.000149231
0.0362859
0.0658469
0.000155609
0.000250545
0.000148645
0.00014855
0.000154929
0.000202884
0.000176337
0.000148027
0.000151943
0.000189578
0.000153326
0.0789932
0.000148437
0.000160895
0.0550472
0.000160812
0.000145206
0.000148747
0.000157959
0.000150386
0.00035926
0.0432568
0.000166386
0.000603738
0.000155054
0.000148347
0.0634336
0.000195154
0.000160171
0.00014867
0.0540649
0.000159604
0.000271817
0.000148816
0.000163278
0.000197419
0.000168616
0.0603153
0.000200721
0.0263275
0.000152733
0.000204563
0.000148264
0.0473602
0.000176286
0.000202443
0.000165239
0.000153339
0.000160857
0.000180426
0.00014851
0.0133904
0.061506
0.0801309
0.00728965
0.0418772
0.033686
0.000229824
0.000156641
0.000149342
0.00374822
0.000148429
0.000147907
0.000157814
0.0675358
0.0001547
0.000150558
0.000173657
0.000174224
0.000148486
0.0859453
0.000147881
0.0675245
0.000321253
0.000147787
0.000153737
0.000225498
0.00933708
0.000146895
0.0630147
0.0176068
0.0001471
0.0560373
0.000260183
0.000202476
0.000152682
0.0347092
0.0313371
0.000147341
0.000248785
0.000149228
0.000147906
0.0248416
0.0722747
0.000169735
0.000175719
0.000148444
0.00018235
0.0676404
0.0631532
0.000148139
0.023621
0.00014799
0.000149299
0.000175592
0.000161082
0.000145548
0.00015293
0.0580601
0.000209535
0.0544613
0.00015409
0.000148347
0.0631054
0.000149148
0.000198899
0.000160629
0.000166836
0.000165833
0.0548373
0.0311481
0.000157649
0.0167416
0.000153453
0.0001815
0.0518576
0.0338331
0.00014915
0.000148292
0.000163258
0.0558317
0.000236404
0.000181953
0.00885731
0.000161285
0.000165989
0.03943
0.0879297
0.000182171
0.0658572
0.000215239
0.0490136
0.000150561
0.00012407
0.00843626
0.000148476
0.0109955
0.0893978
0.000159771
0.000176583
0.000148872
0.0005104
0.000175578
0.055205
0.000148447
0.000149021
0.000155393
0.000173741
0.0001485
0.0643837
0.00014898
0.000214367
0.000152712
0.000188356
0.0001488
0.00014851
0.00016749
0.0238231
0.00017501
0.0588627
0.000163307
0.000146858
0.000147528
0.000180155
0.0001519
0.000190083
0.000155518
0.000159873
0.000134034
0.000149158
0.0208234
0.00014967
0.000194771
0.0192362
0.0578905
0.000156772
0.0479824
0.000173054
0.000205229
0.0890982
0.000148556
0.0888979
0.000158022
0.000164007
0.00925064
0.00301688
0.000146966
0.000189468
0.000149727
0.0476119
0.0265976
0.000149686
0.00016695
0.0729848
0.00014974
0.000149662
0.00018691
0.0175491
0.0254935
0.000149421
0.000201724
0.000152881
0.000148538
0.00019438
0.000202301
0.000194745
0.000145334
0.000198874
0.000163841
0.000183513
0.000150576
0.0001519
0.000174302
0.000155191
0.000200923
0.000177476
0.000177326
0.000178679
0.000350357
0.000263095
0.057008
0.0537907
0.000203858
0.0384929
0.000163414
0.0286818
0.00020348
0.000148382
0.000165354
0.000231034
0.000157423
0.000147787
0.000147739
0.000194733
0.0227915
0.000161126
0.0650407
0.000146894
0.0298427
0.00017843
0.0247052
0.000188947
0.000157457
0.000154829
0.0288857
0.000194923
0.000163064
0.000200498
0.000150808
0.00391509
0.000194914
0.000214414
0.000164436
0.000290665
0.000148576
0.000149611
0.0001519
0.000148552
0.0520365
0.000147877
8.76684e-05
0.0619855
0.000189516
0.0650612
0.0298163
0.000216537
0.000209895
0.000156737
0.000149134
0.000148792
0.000146025
0.0001475
0.000148842
0.000182025
0.000204826
0.000164513
0.0118782
0.000151842
0.0532714
0.000149954
0.0225725
0.000168456
0.000149881
0.00014882
0.0582243
0.000157811
0.0250908
0.0894284
0.000175633
0.000184846
0.000146934
0.0698006
0.000153579
0.000154794
7.41296e-05
0.000149159
0.000150548
0.000148308
0.000176248
0.0243886
0.000160986
0.000164943
0.000225819
0.0593721
0.000157086
0.000156372
0.0509487
0.000145977
0.0500026
0.000149288
0.000153408
0.0266835
0.000190191
0.000202707
0.000184284
0.00017529
0.000149475
0.000149954
0.000182838
0.000150729
0.000149529
0.00016192
0.000218637
0.000147776
0.00020103
0.00114193
0.0187338
0.000184081
0.0440817
0.000160406
0.000149103
0.000195044
0.000146988
0.000158379
0.0527574
0.0465478
0.088623
0.0519524
0.000149864
0.000149551
0.000169113
0.000151582
0.00014764
0.030424
0.000217281
0.0296918
0.000195073
0.00019062
0.000148596
0.000146872
0.0051134
0.00019175
0.000154024
0.000149658
0.000202705
0.000208708
0.0667601
0.000149527
0.000148936
0.0209135
0.000150521
0.000165638
0.000146785
0.0690662
0.000148156
0.0216838
0.000148498
0.000188986
0.00017115
0.000168708
0.00016479
0.000148544
0.000154974
0.000148026
0.000101387
0.000150536
0.0294757
0.000151041
0.0264046
0.0639854
0.000163016
0.000147888
0.0135094
0.0444969
0.00015825
0.000190114
0.00014878
0.0200604
0.000148502
0.000232882
0.000148404
0.000148004
0.020124
0.000166083
0.000148682
0.000165922
0.066165
0.000434345
0.0757435
0.000147197
0.0412003
0.000148487
0.000147821
0.00014957
0.000144471
0.000149529
0.0811113
0.0562431
0.000149937
0.000148953
0.000170207
0.000147819
0.0169985
0.000196224
0.0338666
0.0672601
0.000154888
0.0002009
0.000148433
0.000172948
0.00017532
0.000148446
0.000149349
0.000693019
0.0283576
0.000184269
0.00831021
0.000183356
0.000148632
0.000170856
0.000190517
0.0206836
0.000165125
0.00206875
0.000192354
0.000149456
0.058086
0.0552382
0.0298059
0.0157309
0.0227365
0.000152675
0.000174344
0.000149239
0.000947585
0.000156911
0.000147047
0.0784974
0.000151606
0.000147892
0.00014916
0.000151303
0.065783
0.000230002
0.000147265
0.000171324
0.0300514
0.000152076
0.00756619
0.000151651
0.000189112
0.0711874
0.000148586
0.000224989
0.000159913
0.000164126
0.000484043
0.000151592
0.000246042
0.000184886
0.0699977
0.000150169
0.0274835
0.00016265
0.0420329
0.0222176
0.0223412
0.000175753
0.000148626
0.000149936
0.000149739
0.000172504
0.000148768
0.0622929
0.00015862
0.00015658
0.000156918
0.00015257
0.000147135
0.000159908
0.000158085
0.000153711
0.000157265
0.0871432
0.000112337
0.000162256
0.000169415
0.078089
0.000150648
0.0469139
0.000146021
0.000161033
0.000150558
0.000148391
0.000166611
0.000148317
0.000147219
0.000162531
0.00014872
0.000215215
0.000151488
0.00971221
0.00217775
0.000219422
0.000232645
0.000149347
0.0614464
0.00020697
0.000149474
0.000157887
0.000150344
0.0503154
0.000151628
0.000162546
0.00715732
0.00989798
0.000177534
0.000149471
0.0553558
0.00486629
0.0267611
0.000159827
0.000146808
0.000148061
0.000182911
0.0001486
0.0268564
0.000199447
0.000149276
0.00022464
0.000219175
0.000148205
0.0879968
0.0196696
0.000216425
0.000151303
0.0545053
0.00018185
0.000148064
0.0242115
0.000156181
0.000147997
0.00014789
0.000165738
0.00017272
0.0580707
0.0472528
0.000173426
0.0592214
0.000167217
0.000148416
0.000168369
0.000147763
0.0024022
0.000148294
0.00014819
0.000153209
0.000150626
0.0630196
0.0227916
0.000237223
0.0302807
0.0869382
0.00015715
0.000148594
0.000151488
0.000249151
0.000148213
0.000148511
0.000169083
0.0381469
0.000192528
0.000145903
0.000165419
0.000165093
0.000202288
0.00711985
0.000147099
0.000145435
0.000153806
0.0217979
0.00016185
0.0676119
0.00015185
0.000149015
0.000148052
0.000147886
0.00015405
0.000216026
0.049192
0.0570126
0.000156939
0.000148353
0.00245073
0.000150414
0.0361922
0.0384962
0.000158199
0.0270221
0.0509676
0.0397761
0.000180818
0.00016491
0.0459356
0.000163138
0.000160317
0.000169445
0.000205774
0.000150562
0.000487841
0.000148441
0.0483076
0.0303701
0.00014605
0.000152861
0.000166892
0.000239098
0.000166164
0.000148866
0.000160921
0.000151581
0.000157786
0.000237979
0.000149028
0.0478623
0.0244141
0.000148481
0.00016396
0.000172348
0.000148513
0.0456139
0.0120637
0.063575
0.0348741
0.000148236
0.00015436
0.000157207
0.00014961
0.000235077
0.000166595
0.000149686
0.000183482
0.000154882
0.0371429
0.000171334
0.0253306
0.000151448
0.00015209
0.000163857
0.000191371
0.000184495
0.000148233
0.00950635
0.0457066
0.0280594
0.0380036
0.0524533
0.0576716
0.0399413
0.000148222
0.000148332
0.000149034
0.000236806
0.000175794
0.000184089
0.0135164
0.000149935
0.000145665
0.000148448
0.000222617
0.000145861
0.000158783
0.000152744
0.033402
0.000151213
0.000147023
0.000148551
0.000148356
0.000149003
0.000159994
0.000233728
0.000160414
0.0629932
0.000148312
0.000147917
0.0659262
0.066465
0.0214443
0.0221535
0.000163714
0.0280024
0.000146761
0.000169147
0.000152081
0.000148522
0.000155278
0.0258594
0.000152344
0.000191785
0.00611421
0.00015006
0.000148317
0.000155184
0.00021634
0.000149799
0.0334937
0.000148952
0.000217654
0.000148775
0.000149903
0.000158459
0.000171059
0.000149058
7.58821e-05
0.0408085
0.000210814
0.0695481
0.000148583
0.024519
5.63238e-05
0.000148354
0.0300404
0.000149581
0.000161963
0.000149377
0.000149789
0.000147648
0.000148519
0.000150288
0.000155779
0.000184318
0.000149677
0.000148606
0.000165683
0.000146821
0.0874249
0.000148776
0.000164193
0.00016718
0.0356951
0.00383006
0.000148928
0.000216675
0.000146734
0.00016414
0.000172876
0.0181708
0.000176832
0.000149802
0.000197823
0.000167857
0.000190286
0.000409961
0.00016092
0.000200646
0.000181876
0.000185053
0.000151114
0.000147835
0.0175554
0.011476
0.000154582
0.000148041
0.0081779
0.000146948
0.000172342
0.000147768
0.000176869
0.0262585
0.000145045
0.0154164
0.000157455
0.000149068
0.000208114
0.000147036
0.000161528
0.0366512
0.000170412
0.0201871
0.000147616
0.000149749
0.000162081
0.000149474
0.000149608
0.000160816
0.000161855
0.000184329
0.000178401
0.000148938
0.000165385
0.000147693
0.00014839
0.000149398
0.000148368
0.000810054
0.000148372
0.000151746
0.000247026
0.000146904
0.000147961
0.0647371
0.000149633
0.0120732
0.00015271
0.0639505
0.000224257
0.000164311
0.00335435
0.000177948
0.000283129
0.000150373
0.000210176
0.000157709
0.000147742
0.0001478
0.000151699
0.000163555
0.000148282
0.000171058
0.000147331
0.000152074
0.00672229
0.0255687
0.000187756
0.000155116
0.000162957
0.0375504
0.028784
0.000149104
0.000158467
0.000332868
0.000149667
0.000168506
0.00286014
0.0569757
0.000159702
0.000174028
0.000151054
0.000222538
0.000149894
0.000161152
0.0243723
0.000149243
0.000147884
0.0869709
0.000170947
0.00024432
0.0703177
0.00019482
0.00015002
0.000147353
0.000150024
0.0316504
0.00643332
0.0534401
0.000174635
0.000148575
0.0430531
0.00014868
0.000203084
0.00015537
0.000153265
0.000172972
0.000148374
0.0890794
0.0879777
0.000146891
0.000183859
0.000176647
0.00486713
0.000171949
0.000181824
0.000241331
0.000167139
0.000130865
0.000182703
0.000148695
0.000168399
0.000168119
0.0385928
0.000148214
0.00131841
0.000172866
0.000183244
0.000149805
0.0838961
0.000157865
0.00015244
0.00014768
0.000166513
0.000166037
0.000166287
0.000148799
0.00015081
0.000171954
0.00872063
0.000175777
0.00014899
0.0001505
0.000168363
0.000221254
0.000149097
0.000180296
0.0278491
0.000167558
0.0593287
0.000172209
0.0262615
0.000245629
0.000148241
0.00319844
0.000149551
0.000154763
0.000165714
0.00016666
0.000190572
0.00017628
0.000165715
0.000167064
0.000162552
0.000153383
0.000145797
0.00016957
0.000156904
0.000157407
0.00274039
0.0001564
0.000159215
0.000147739
0.0262925
0.000178985
0.000148927
0.000155476
0.000151657
0.0296148
0.000199666
0.000165742
0.0537645
0.000141853
0.000465742
0.000190441
0.000227316
0.000147373
0.00018486
0.000148453
0.000155552
0.0317945
0.0453253
0.000261999
0.000917323
0.000148752
0.0257659
0.000147349
0.000190038
0.000154654
0.0237555
0.0812422
0.000158385
0.000148019
0.000247316
0.000161976
0.000148175
0.0376621
0.000148484
0.000152553
0.000156955
0.000149352
0.000161949
0.000151792
0.000148585
0.000163118
0.00026498
0.00017141
0.000175869
0.000148158
0.0305932
0.0458733
0.000147905
0.000245269
0.000154574
0.000157279
0.0534489
0.000147885
0.000150717
0.000156747
0.0471965
0.000148214
0.000149155
0.000169995
0.0249486
0.000147785
0.00015968
0.000161638
0.00194677
0.000171856
0.000169566
0.000223191
0.0001485
0.000172359
0.00014608
0.02883
0.000161021
0.000148435
0.000159786
0.000187325
0.000148926
0.000149563
0.000203217
0.0494396
0.000150371
0.0301963
0.000149202
0.00014604
0.000182008
0.000148203
0.000148379
0.0882582
0.000149814
0.000171163
0.000207001
0.0527388
0.00142894
0.000148132
0.000152716
0.000156525
0.000148419
0.000148602
0.000148605
0.0111384
0.000149263
0.000155829
0.000199615
0.000147862
0.000146969
0.000161686
0.000199592
0.00024673
0.000166484
0.000176931
0.000152984
0.0549703
0.00017584
0.000164064
0.000172342
0.000171638
0.000188706
0.0254222
0.000171141
0.0311181
0.0252782
0.022986
0.000155425
0.00014841
0.000167454
0.000159334
0.00014779
0.000150419
0.000178018
0.000149595
0.000149873
0.000148322
0.000145382
0.00015354
0.000149057
0.0213943
0.000147999
0.0535581
0.000148472
0.000173451
0.000150693
0.000199997
0.000173186
0.000148646
0.0579775
0.000152652
0.000149475
0.000171533
0.00014759
0.000158881
0.000148677
0.0496125
0.000153638
0.000171497
0.000170591
0.054987
0.00015797
0.000154063
0.00273935
0.000169369
0.000149295
0.000151888
0.000175493
0.000180983
0.0251114
0.000146963
0.031948
0.000149036
0.000169388
0.0819926
0.000165233
0.0202747
0.000155138
0.000164464
0.000154254
0.0874758
0.000161851
0.000148854
0.0001685
0.000200985
0.000152447
0.000148339
0.000148872
0.0658041
0.000149665
0.000157301
0.0676848
0.000155514
0.000148249
0.000171274
0.000154748
0.0410694
0.000145678
0.000148403
0.000147094
0.000154866
0.000150257
0.000149338
0.000183396
0.0637796
0.000148132
0.00014864
0.0473127
0.000150083
0.015842
0.000154246
0.0804828
0.000147752
0.000153501
0.000146732
0.0321556
0.069183
0.000159203
0.000168985
0.000155608
0.00014823
0.000148723
0.0499706
0.000148817
0.000189926
0.000147408
0.00017399
0.00014922
0.0608206
0.000146942
0.000175274
0.000147766
0.000221486
0.00034293
0.000147381
0.000166083
0.0896219
0.000184867
0.0293431
0.0179663
0.000204492
0.000151908
0.000165619
0.000190781
0.0125743
0.000149926
0.000170862
0.000156656
0.000148503
0.0290266
0.0368999
0.000184786
0.000206382
0.000245717
0.000162583
0.0628338
0.000147721
0.000147289
0.000188188
0.0886331
0.000218986
0.000201332
0.00323471
0.000146785
0.0856386
0.0367752
0.0814071
0.000149297
0.031757
0.0443623
0.000370766
0.000393438
0.0479285
0.000190659
0.000161622
0.00020568
0.000154448
0.000148386
0.00194126
0.000191963
0.000145664
0.0367648
0.000149214
0.000158476
0.000172738
0.00015562
0.00143211
0.000160318
0.0120405
0.000175014
0.000154967
0.0174974
0.0742362
0.000202312
0.000149871
0.000154614
0.000183597
0.000168365
0.000146839
0.000173369
0.000167268
0.000198871
0.000148301
0.000211785
0.000153673
0.000168484
0.0404868
0.000124576
0.000151343
0.000185079
0.0330655
0.00014923
0.000151064
0.077813
0.000229026
0.000154184
0.000155098
0.000148567
0.00017426
0.000157111
0.0505634
0.000190121
0.000150263
0.000149443
0.000166092
0.000159276
0.000162928
0.0297239
0.000147671
0.000148229
0.00015827
0.000149249
0.000154222
0.000151326
0.000151276
0.000154757
0.000147918
0.000154258
0.000149287
0.000176411
0.0109627
0.000149743
0.0685405
0.0160309
0.000146093
0.000182574
0.000186902
0.000179033
0.000150798
0.000192025
0.000158813
0.000168583
0.000161989
0.000152204
0.000149343
0.0246137
0.000161136
0.0214313
0.000150747
0.000148467
0.000148138
0.000172931
0.000148067
0.000176334
0.000182615
0.000322907
0.000147528
0.000189437
0.0150576
0.0477734
0.000146724
0.000195463
0.00022152
0.0179178
0.00561994
0.000150301
0.000149746
0.000193812
0.00242904
0.0114779
0.000171297
0.000248704
0.000149499
0.000147955
0.000164463
0.000149266
0.000149084
0.000200356
0.000149754
0.000169537
0.000147705
0.074219
0.067855
0.0352032
0.0389026
0.0446552
0.000149054
0.000148921
0.0859809
0.000147165
0.000147501
0.000146066
0.000183355
0.0716748
0.026434
0.000156299
0.000149581
0.000151938
0.000162915
0.0302122
0.000148129
0.0196805
0.0759061
0.000149216
0.000149125
0.0366413
0.000188864
0.000153155
0.000148328
0.0752562
0.0455183
0.000148858
0.00021752
0.000149671
0.049737
0.000395483
0.000153817
0.0262233
0.0157206
0.0565929
0.000147545
0.000149882
0.000149611
0.000149898
0.0675857
0.000147891
0.000197208
0.000225153
0.0233119
0.000151083
0.000173938
0.000127197
0.000173865
0.0841696
0.0515669
0.000145453
0.00015709
0.000157238
0.000202416
0.0592784
0.000145228
0.0250162
0.000160604
0.000173453
0.000150809
0.000147527
0.00022544
0.000168409
0.0187209
0.000149264
0.000173867
0.000150816
0.000200213
0.000154666
0.0623512
0.0110497
0.000203581
0.000193333
0.000148234
0.000153053
0.000190237
0.000182084
0.062059
0.0893602
0.000148916
0.0237832
0.000170257
0.0742129
0.0001594
0.000170383
0.00016919
0.00014922
0.0636839
0.000148438
0.00016492
0.0323558
0.0726511
0.00084463
0.0706802
0.000157964
0.000175886
0.000147033
0.0748111
0.000157027
0.044043
0.000146967
0.0483619
0.000145092
0.000148023
0.000164355
0.000158581
0.000159902
0.00014843
0.0388857
0.000174474
0.000147916
0.000166015
0.0329269
0.00022673
0.000148541
0.056157
0.000153977
0.000167124
0.000165498
0.000145866
0.000178265
0.000147989
0.0310752
0.000172847
0.00015943
0.000148324
0.000233647
0.000169842
0.000146963
0.047801
0.00782361
0.000224801
0.000146701
0.00109564
0.000148886
0.00019135
0.000160133
0.00018122
0.016128
0.0377916
0.000159515
0.0705744
0.000169657
0.000157789
0.000147095
0.0586723
0.000179399
0.000190601
0.000165636
0.000149589
0.0251501
0.000183535
0.000243465
0.000246526
0.0892132
0.0390963
0.00884791
0.033511
0.000158036
0.000158732
0.000148605
0.000149148
0.00014538
0.000211459
0.000158631
0.000159899
0.0628714
0.000147853
0.000146996
0.000172885
0.000201385
0.000159959
0.000147213
0.0668773
0.000154223
0.000176536
0.000149462
0.0224937
0.00015723
0.0796885
0.000166534
0.000165758
0.000171403
0.000148564
0.010421
0.00015886
0.000180362
0.000148774
0.00014726
0.0238768
0.044148
0.0469554
0.000148098
0.000180547
0.000323006
0.000149141
0.000147978
0.000149094
0.0703614
0.000171318
0.000163147
0.000160134
0.000157914
0.050565
0.000179293
0.000224986
0.000158755
0.000164708
0.000145354
0.000183173
0.000173109
0.000148372
0.0481739
0.0537727
0.0635945
0.0480791
0.0407117
0.0851655
0.0871792
0.000151443
0.000148209
0.0715971
0.0392046
0.039897
0.000148891
0.000170736
0.00014858
0.000148106
0.0140321
0.0744073
0.000182576
0.000148033
0.000166131
0.000191672
0.000174689
0.0387892
0.00697167
0.000236131
0.000147295
0.0620555
0.00784614
0.000228639
0.000165435
0.00017194
0.00014926
0.000147282
0.000168475
0.000172426
0.000154001
0.000171811
0.000159932
0.000154509
0.000230734
0.0363723
0.00015928
0.000173283
0.0470013
0.000215665
0.000148688
0.000192867
0.000230165
0.0278718
0.000169423
0.000149394
0.00016158
0.000157377
0.000158531
0.00014587
0.000158991
0.000164211
0.000175613
0.000202046
0.000149496
0.000151767
0.0387614
0.0526225
0.0716253
0.000186882
0.000197333
0.000144895
0.000148506
0.000162119
0.000146886
0.0887805
0.000148474
0.000149812
0.000146378
0.0480182
0.0222715
0.000150015
0.0001828
0.000158579
0.00016169
0.000161524
0.000159785
0.000171212
0.000166651
0.0207105
0.000157844
0.041307
0.000167298
0.0706346
0.000160475
0.000147426
0.000147014
0.000192538
0.000203096
0.000146786
0.000163
0.000160822
0.000175919
0.0363857
0.0237285
0.03347
0.000149811
8.98164e-05
0.000158748
0.000164532
0.000148309
0.000179725
0.000152767
0.0302701
0.000291468
0.000165941
0.000148512
0.0517532
0.000155833
0.0359466
0.0381116
0.00023093
0.000153677
0.000198068
0.0413029
0.00121197
0.0520788
0.00017722
0.000148483
0.000167309
0.000148145
0.0849543
0.000154059
0.000162509
0.000166462
0.0680221
0.00014827
0.000148258
0.0411158
0.000169628
0.080444
0.00015885
0.000148326
0.00017093
0.000219826
0.000162437
0.0201533
0.00016443
0.000847196
0.000155498
0.00014961
0.000148183
0.000216273
0.000150597
0.000182209
0.000148627
0.000148766
0.000210658
0.000158056
0.000149223
0.000148221
0.000164467
0.000198699
0.000173695
0.000168842
0.000155311
0.000178237
0.000148703
0.000191303
0.000162313
0.000172353
0.000166764
0.00016089
0.000174295
0.000163161
0.000148018
0.000184417
0.047063
0.0356138
0.0001494
0.000748815
0.035415
0.000148196
0.000150594
0.000227152
0.0412958
0.000156244
0.0348727
0.000257492
0.000149329
0.000190314
0.00014533
0.000157444
0.000179044
0.0410507
0.000203854
0.00023289
0.000149775
0.0471452
0.054211
0.000153352
0.046404
0.000148413
0.0075572
0.0511124
0.000148631
0.000148438
0.0346487
0.000149026
0.000148547
0.000220357
0.0618631
0.00022058
0.000158135
0.0462235
0.00014859
0.052649
0.040174
0.000149207
9.00817e-05
0.0149401
0.0450075
0.037048
0.0410869
0.0335393
0.000147322
0.000151583
0.000179781
0.000183096
0.00014852
0.000213595
0.000148358
0.0419588
0.000246468
0.000164217
0.000250223
0.0428089
0.000250675
0.000229023
0.000165455
0.0186104
0.000257306
0.000156678
0.000145618
0.0127846
0.000161402
0.00014707
0.0827529
0.000148196
0.016196
0.000149138
0.0719696
0.000157101
0.000148139
0.00619324
0.000156047
0.000160559
0.0312188
0.0785066
0.000775653
0.000160302
0.000175608
0.00015189
0.000171684
0.000199653
0.000172059
0.000149349
0.000325969
0.000180775
0.000161716
0.03237
0.000170849
0.000162297
0.000198873
0.000183832
0.00017488
0.00014811
0.00020849
0.000147043
0.000199852
5.9559e-05
0.0420136
0.000147136
0.00016837
0.024903
0.000152817
0.000178595
0.000164494
0.000170386
0.0771157
0.000181033
0.000151958
0.0313195
0.00014718
0.0508672
0.000148781
0.00015199
0.000199923
0.0478916
0.000161862
0.000188853
0.000221405
0.000164427
0.000149667
0.000177197
0.000171934
0.063305
0.000155296
0.00514933
0.000203234
0.000164464
0.000161357
0.000177929
0.000166412
0.000167694
0.000181138
0.000162615
0.000154281
0.000149545
0.00115995
0.000148453
0.000160158
0.000145411
0.000197101
0.000160785
0.000181319
0.0440208
0.000151229
0.000221107
0.000144593
0.000149172
0.000149216
0.000149326
0.000158871
0.00014766
0.000190765
0.0261675
0.000181392
0.000174181
0.0001564
0.000148903
0.000140563
0.000148635
0.0341652
0.039871
0.0277221
0.00020487
0.000163909
0.00015971
0.000149142
0.000158129
0.000170345
0.000169102
0.0490519
0.000181446
0.0572235
0.000204704
0.000149352
0.000146894
0.0352113
0.000148193
0.000162156
0.000165897
0.000247904
0.000153102
0.0671814
0.000149091
0.000155979
0.000148588
0.000150562
0.000177086
0.000196443
0.000149652
0.000165745
0.000159683
0.00017496
0.000181274
0.000218188
0.000199468
0.0002123
0.000201538
0.000158492
0.00015163
0.000181178
0.0472125
0.0838389
0.05405
0.000164794
0.0307559
0.000195799
0.000151495
0.00014798
0.000183611
0.000148913
0.000165739
0.0219652
0.000148044
0.000147688
0.000308684
0.0146162
0.000176613
0.00066458
0.000149022
0.02774
0.000169024
0.0720359
0.000157264
0.000148718
0.0536144
0.000165233
0.000148545
0.000171744
0.000149666
0.000189889
0.000160037
0.000164502
0.0861837
0.000159622
0.054507
0.000147692
0.0516847
0.000149069
0.000157088
0.000150387
0.00017132
0.000148878
0.000166165
0.051167
0.000242515
0.000175037
0.000161221
0.000168353
0.000148171
0.00014915
0.000152228
0.00166919
0.000156723
0.0746544
0.0359328
0.000188754
0.000149402
0.000192201
0.000205448
0.000202228
0.000158148
0.039824
0.000148283
0.000144879
0.000148145
0.0165873
0.000149144
0.000148484
0.0534059
0.000148077
0.000202319
0.000171599
0.000147975
0.0628666
0.000161204
0.0715919
0.000148391
0.00313209
0.000151333
0.000166924
0.0284697
0.00018283
0.0001479
0.000159853
0.0386694
0.000165551
0.000193571
0.000163363
0.00015682
0.000186972
0.000158349
0.000150099
0.00688627
0.000160589
0.000161197
0.000203147
0.000148165
0.000147628
0.000149196
0.000164422
0.00014908
0.000155356
0.0600666
0.0157122
0.000171136
0.00935115
0.00018331
0.000167889
0.0695654
0.049068
0.000150053
0.0157365
0.0645497
0.0365954
0.00264247
0.000162303
0.0359166
0.056567
0.0469444
0.00303773
0.0842246
0.00016292
0.000169536
0.000157878
0.000158194
0.000149702
0.000371048
0.000149895
0.0182967
0.000174215
0.000199202
0.000145177
0.000186956
0.000163742
0.000152123
0.000149951
0.000148681
0.000173629
0.000153712
0.000150133
0.000172541
0.0564868
0.000154668
0.000191958
0.000146839
0.000173526
0.000169271
0.000149213
0.0001564
0.000147664
0.0720963
0.0649323
0.000207144
0.00842935
0.000161297
0.00018929
0.000148821
0.000172933
0.000148829
0.000149959
0.000149526
0.0567842
0.000146941
0.000176247
0.000250554
0.000157642
0.000163573
0.000148137
0.0678166
0.000208085
0.0408595
0.0348525
0.000202261
0.000241362
0.032211
0.000250992
9.08736e-05
0.0162658
0.000174161
0.00015921
0.00620279
0.0767153
0.000148364
0.0189486
0.00018818
0.0712902
0.000145308
0.000182602