/*--------------------------------*- C++ -*----------------------------------*\
| =========                 |                                                 |
| \\      /  F ield         | OpenFOAM: The Open Source CFD Toolbox           |
|  \\    /   O peration     | Version:  v2012                                 |
|   \\  /    A nd           | Website:  www.openfoam.com                      |
|    \\/     M anipulation  |                                                 |
\*---------------------------------------------------------------------------*/
FoamFile
{
    version     2.0;
    format      ascii;
    class       surfaceScalarField;
    location    "350";
    object      phi;
}
// * * * * * * * * * * * * * * * * * * * * * * * * * * * * * * * * * * * * * //

dimensions      [0 3 -1 0 0 0 0];
oriented        oriented;


internalField   nonuniform List<scalar> 
20642
(
-0.0189795
0.0230176
-0.0040381
0.294419
-0.065863
-0.228557
-0.111002
0.0973676
0.0136347
-0.354169
0.14117
0.212998
0.37327
0.0408276
-0.414099
-0.0377828
0.332201
-0.226516
0.023727
0.202788
-0.0180856
0.23171
-0.213625
-0.247411
0.224963
0.0224473
0.00285486
0.00179725
-0.248806
0.230721
0.230541
0.135115
-0.365659
0.604494
-0.604522
0.237686
0.0182761
-0.255962
0.300665
0.0375397
-0.338206
-0.0226947
0.00371514
0.584535
-0.589608
0.00506735
0.0652767
-0.275953
0.210676
-0.0321188
-0.0829917
0.115111
-0.00343914
0.0240792
-0.0206401
-0.0852911
-0.191927
0.277218
0.636619
-0.377791
-0.258832
0.203873
-0.147159
-0.0567143
0.348068
0.288547
-0.0525776
-0.187565
0.240141
0.0699358
-0.266411
0.196475
-0.000136874
-0.154062
0.154198
0.00285486
0.102273
-0.28945
0.187177
-0.681336
0.395844
0.285492
0.00181779
0.00103707
0.0238847
-0.108374
0.0844888
0.0444832
0.255918
-0.300403
-0.00111797
0.0275591
-0.0264412
-0.662992
0.480986
0.182002
0.362798
-0.131088
0.267427
-0.365331
0.0979032
0.621977
-0.100826
-0.521168
-0.0240287
-0.202488
0.233408
-0.0048816
-0.228527
-0.770198
0.602847
0.167348
0.410509
0.135408
-0.54592
-0.138436
0.253557
-0.115121
0.129434
-0.112172
-0.0172621
0.0159754
0.113459
0.181353
-0.0844955
-0.0968576
0.226755
-0.312047
-0.00697927
-0.0208523
0.0278316
0.293946
-0.223187
-0.0707591
-0.410954
-0.252042
0.350464
-0.119926
-0.155874
0.0510102
0.104863
0.0137702
-0.000494972
-0.0132752
-0.312149
-0.0928647
0.40501
0.014764
0.362871
-0.377639
-0.0859822
-0.0698916
0.00181779
0.16871
0.0351626
-0.151383
0.561889
0.0644271
0.116926
-0.0360863
0.0652647
-0.0291784
0.550649
-0.504928
-0.045723
0.471498
-0.614218
0.14272
-0.264909
0.21233
-0.0647454
0.0612414
0.00350399
0.128107
0.457581
-0.585688
-0.287977
0.0912883
0.196688
0.158473
0.204325
-0.18353
-0.00199348
0.01803
-0.0160365
-0.105723
0.0705656
0.0351577
0.0180433
-0.0191613
-0.258493
-0.144746
0.403236
0.388666
-0.540052
0.0794829
-0.271411
-0.0546824
-0.182425
0.237107
0.421874
-0.103104
-0.318772
-0.160808
0.549471
-0.262123
0.207439
0.236812
-0.19233
-0.378898
0.444417
-0.065522
-0.605594
0.578024
0.0275626
-0.423253
0.164755
0.0148709
0.064615
-0.0794859
-0.232871
-0.302995
0.53585
-0.0195894
-0.217454
0.237043
-0.0955489
0.119434
-0.643897
0.610097
0.0337794
-0.0275598
0.260967
0.482491
0.10204
-0.580342
0.405801
0.174536
0.115941
0.219022
0.0749243
-0.617108
0.207563
0.409539
-0.414968
0.286635
0.12833
-0.185704
-0.0359131
-0.170576
0.206489
0.589991
-0.589979
-2.18287e-05
-0.13886
-0.505053
-0.169926
-0.0841898
0.254116
0.526685
-0.531664
0.00497818
0.54249
-0.0158069
0.00308207
-0.381982
0.520343
-0.593819
0.0734669
-0.0101481
0.43202
-0.0771728
0.0745101
0.00266271
0.0376965
-0.0447483
0.00705188
0.422321
0.128326
0.540388
-0.404982
0.121882
-0.122019
0.53813
0.0731749
-0.00314362
0.0307028
-0.114102
-0.175349
-0.0558151
-0.0089303
0.390059
-0.181652
-0.208408
0.101444
-0.133563
0.418833
0.161464
-0.580301
0.111057
-0.092842
-0.0182151
-0.470851
0.278832
0.192015
-0.0946437
-0.510957
0.167289
-0.576955
0.409662
0.271689
-0.180401
-0.134207
0.141972
-0.00776482
-0.0163159
-0.00137276
0.0176887
0.048052
-0.0331811
0.0768054
-0.271722
0.194915
0.263135
-0.183652
-0.423706
0.555647
-0.131946
-0.101073
-0.0331342
-0.057447
0.159377
-0.10193
0.18457
-0.0569189
-0.127651
-0.00882222
-0.0301005
0.0389227
0.171273
0.218785
-0.0700368
0.126009
-0.0559723
-0.00815009
0.130032
0.0291296
-0.0659155
0.0367859
0.0157281
-0.0148474
-0.000880689
0.0553641
-0.252445
0.197081
0.621959
0.336333
-0.0129803
-0.323353
-0.559468
0.398657
-0.0622312
-0.0149416
-0.543966
0.256541
0.28742
-0.152814
-0.234964
0.387774
-0.391709
0.58519
-0.193484
-0.0538573
-0.051866
-0.066119
0.0302294
-0.017458
-0.0127714
-0.462011
0.149858
-0.199222
-0.0297271
0.228948
0.568598
-0.695905
0.127306
0.249771
-0.40259
-0.155676
0.119763
-0.138699
-0.333087
0.471783
0.543064
-0.0227291
0.0265571
-0.035025
0.00846794
-0.613064
0.605782
0.00727771
0.568205
-0.149375
-0.177396
-0.331131
0.508516
0.078992
-0.0565913
-0.0224007
0.0655715
-0.311208
0.245636
0.363299
0.0626368
-0.0440098
-0.018627
0.00908648
-0.201352
0.192265
0.0137702
-0.0301466
-0.0165414
0.0466881
-0.375231
-0.225028
0.600259
0.248203
-0.19284
0.059003
0.311833
-0.37084
0.046741
-0.0411861
-0.00555484
-0.0701038
-0.0512929
-0.0208405
0.0721334
0.189939
-0.100785
-0.0891544
0.599434
-0.106126
-0.49331
-0.145768
-0.208402
-0.155551
0.0241463
0.131404
-0.195943
0.138496
-0.231345
0.296915
-0.167817
-0.0841688
0.251985
0.407067
0.251282
0.0991793
0.152229
-0.0747895
-0.0774391
0.105967
0.0050899
0.162215
0.0223549
-0.104905
0.356184
0.0520376
0.100191
-0.387863
-0.293474
0.224232
-0.243822
0.138582
0.0513569
0.129491
-0.113516
0.0148466
-0.118357
0.10351
-0.0219675
0.00181042
0.0201571
-0.264512
-0.352599
0.0191541
-0.00229728
-0.0168568
-0.274258
0.108779
0.165479
0.0345402
-0.0433624
0.508191
-0.0272089
0.356248
-0.494951
0.285687
-0.239491
-0.0461963
0.0158416
-0.0178203
0.00197871
0.0163044
-0.000576348
-0.0864029
-0.234244
0.320645
0.14775
-0.0157863
-0.131964
-0.266209
0.305921
-0.0397124
-0.226782
-0.392182
-0.10454
0.309024
0.13539
-0.427625
-0.119505
0.547124
-0.0391464
0.3349
-0.295754
0.282015
-0.321163
0.00937703
0.051063
-0.1211
-0.18251
-0.0557437
0.0509213
0.00482243
0.638659
-0.253288
-0.385389
0.724032
-0.411799
-0.312236
0.344458
0.37957
-0.0422085
-0.0144
-0.10946
0.12386
-0.1478
0.0470697
0.10073
0.372827
0.182455
-0.5553
0.557177
-0.0856793
-0.11014
0.10199
0.0186591
0.124827
0.32295
-0.44778
-0.374158
0.498982
-0.313519
-0.456682
0.728279
-0.383824
0.312419
0.415857
-0.00881722
0.0268606
-0.037166
0.0357012
0.00146476
0.0884436
0.29977
-0.388217
0.477786
0.0872525
-0.565039
-0.114286
0.151031
-0.036745
-0.0226174
0.00175114
0.0208662
0.0128917
-0.512921
0.500025
0.532099
-0.159291
0.153144
-0.00539351
0.0728656
-0.0591835
-0.013682
-0.0891895
-0.045783
-0.00996066
-0.152949
0.129862
0.0230874
-0.34467
-0.199302
-0.0567342
0.0401928
-0.163582
0.0492952
-0.256104
0.142002
0.00712374
0.11713
-0.124253
0.232874
-0.319279
-0.027789
-0.472856
0.221786
0.251066
0.0583566
0.0960563
-0.154413
-0.044079
-0.134352
0.178431
-0.0138229
-0.341715
0.355535
0.602844
-0.188104
-0.328945
-0.116077
0.44502
0.376367
-0.560822
0.184452
-0.00292586
0.0201311
-0.0172053
0.120236
-0.22341
0.103174
0.172575
-0.570667
0.398088
-0.665925
0.291763
-0.466323
0.133234
-0.280044
-0.385885
-0.194028
0.0630055
0.54146
-0.0209668
-0.163252
0.184219
0.586044
-0.413472
0.00183187
0.0138906
0.0398879
-0.00219141
0.0805117
-0.406035
0.325518
0.311497
0.12241
-0.433909
-0.168901
0.126522
0.0423794
-0.739225
0.306083
0.433139
0.284028
-0.112589
-0.171439
0.0189353
-0.0218611
-0.344655
-0.394572
0.016985
-0.0189785
0.57544
-0.199076
0.00347066
0.0755213
0.602215
-0.00278415
-0.306115
0.389953
-0.0838395
0.284537
-0.298363
-0.331393
0.522019
-0.190633
0.112864
-0.00875905
-0.104105
0.549109
-0.589102
0.0399783
0.190522
-0.181436
-0.27891
0.0923622
0.186548
-0.545991
0.15428
-0.203377
0.182961
0.0204154
0.0145844
-0.437894
0.450783
0.160343
-0.0182661
-0.142077
-0.337601
0.462458
-0.124859
-0.358098
0.157631
0.200466
0.491897
-0.11863
-0.075615
-0.186509
-0.59762
0.212701
0.384915
0.0495855
0.499509
0.157335
-0.00277889
-0.154556
-0.538449
0.19789
0.340558
-0.132727
0.191083
-0.249861
0.174245
-0.365886
-0.171109
0.536978
0.0370244
-0.0104674
0.0191627
-0.00332107
-0.424862
0.556857
-0.132001
-0.655206
0.194602
0.460603
-0.186826
-0.289964
0.418363
-0.128399
0.0982965
0.0146379
-0.112934
0.0201054
-0.0423609
0.0222555
-0.0661336
0.0148407
0.502227
-0.598952
0.0967253
-0.202663
0.145744
-0.120668
0.432163
-0.0125916
0.0772067
0.151925
-0.44189
-0.0717937
-0.0392087
-0.20762
-0.396925
-0.0516053
0.352269
-0.000917697
0.517673
-0.165158
-0.352517
-0.252169
0.186305
0.0151253
0.114366
-0.488505
0.56991
-0.0814109
0.0123555
0.0343855
-0.362788
-0.253074
0.615844
0.133835
0.0281585
-0.646593
0.447355
0.199236
0.0126001
-0.0160393
-0.396714
0.560137
-0.163432
-0.00381356
0.156048
-0.152235
-0.0198912
-0.246319
0.65693
-0.154703
0.188072
-0.676582
0.129045
-0.115687
-0.0133585
-0.0604801
-0.0105693
0.0710494
-0.491218
0.197098
0.294118
0.187974
0.329695
-0.0311508
0.0280071
-0.0530556
0.0713752
-0.0183196
0.112738
-0.0622402
-0.0504983
-0.0446891
0.282375
-0.701718
0.35706
0.102208
0.29814
-0.40035
0.0709917
-0.0584871
-0.0125046
-0.102004
-0.100659
-0.326502
-0.37522
0.154294
-0.190575
-0.190992
0.381565
-0.0146412
0.223495
-0.208854
-0.13654
0.0249414
-0.134299
0.109357
0.00400947
0.1557
-0.15971
0.0705788
0.213449
-0.147259
0.157604
-0.0103451
0.024617
0.000822094
-0.0254391
0.105654
-0.529365
-0.277146
-0.214074
0.312039
-0.271212
0.124242
-0.0964359
-0.0278061
0.614325
-0.0557933
-0.558536
0.0010501
-0.145863
-0.00139594
-0.3498
0.0118798
0.295839
-0.281078
0.178989
-0.0311697
-0.147819
-0.462732
-0.192475
-0.271207
0.214614
0.0565931
0.540278
-0.401572
-0.138709
-0.0957624
-0.104474
0.271678
-0.291569
0.367469
-0.286962
-0.0953532
0.0831182
0.012235
-0.42906
0.626636
-0.197578
0.0442224
0.0184144
-0.094613
0.129476
0.4108
-0.0521854
-0.490403
0.219386
0.271014
0.299371
0.237706
-0.537077
0.135545
-0.5555
0.41995
0.0248409
-0.000761698
-0.158669
0.45804
-0.00371298
0.230459
-0.226747
-0.0191951
-0.0909449
0.246631
-0.253558
0.00692653
0.10322
-0.345825
0.242603
-0.0834619
0.0257739
0.057688
0.0141641
0.0766081
0.237898
0.0549591
-0.292858
0.0128738
0.09999
-0.305652
-0.0899432
0.395592
0.216903
0.0297277
-0.00438847
0.101756
-0.501664
-0.199705
0.0233124
0.176392
-0.0931123
-0.15675
-0.119849
-0.447514
0.567355
0.12244
0.337635
-0.460085
0.224182
-0.590147
0.36596
-0.0227868
-0.178565
0.455546
-0.125706
-0.329843
-0.574122
0.433752
0.140365
0.362977
-0.483318
0.120336
-0.137767
-0.0294008
0.167168
-0.315147
0.128334
0.186813
-0.755012
0.325251
0.429758
-0.670527
0.295296
0.108072
-0.00977573
0.000847823
0.178141
-0.49514
0.163741
-0.276097
0.272382
0.0810678
-0.07875
-0.00231781
-0.17486
0.171026
0.00383347
-0.422969
0.551076
0.0436567
-0.126648
0.0647419
-0.0773335
0.264823
-0.513049
0.248223
0.333316
-0.700907
0.367588
-0.0737791
-0.210612
0.284391
-0.347256
0.469684
-0.421697
-0.253274
-0.358229
-0.34268
0.512733
-0.247912
-0.0488545
0.0378341
0.0110203
0.0898678
-0.395523
-0.0319198
0.209316
-0.177396
-0.00309271
0.0169833
-0.0185881
0.178931
-0.551262
0.123629
0.399399
-0.149632
-0.0183009
-0.065161
0.214951
0.0707355
-0.0177153
0.00139941
-0.705013
0.267671
0.43734
0.532751
-0.208955
-0.323804
-0.595744
0.166682
0.659349
-0.346933
0.32872
-0.061294
-0.489736
0.199456
0.290277
-0.0163608
0.0974286
-0.435776
0.562165
-0.12639
0.0106344
0.190423
0.342318
0.00447401
-0.137957
0.133482
-0.411384
0.58897
-0.177588
-0.0980392
0.40706
-0.123856
-0.0290928
0.0749433
0.0377951
0.169937
-0.360515
-0.110912
0.127862
-0.0169502
0.347423
0.211245
-0.558675
-0.634392
0.201575
0.432804
0.481954
-0.118981
-0.296302
-0.194103
0.427647
-0.556001
0.128346
0.442957
-0.625415
0.182438
0.00692397
-0.0569269
0.573676
-0.146036
-0.153207
-0.0501697
-0.0182107
-0.0868336
0.105044
0.366258
0.211746
-0.578027
0.152956
0.0266717
-0.179628
0.124586
0.00367893
0.0493682
0.00213272
-0.0515009
-0.216285
0.192493
0.0237918
0.0214545
-0.245306
-0.225162
0.470468
-0.495337
0.250031
-0.270352
-0.141371
0.157075
-0.568461
0.336093
0.0114507
0.0868831
-0.0983338
-0.414641
-0.165705
0.302742
-0.39561
-0.217872
0.209832
-0.17739
-0.032442
-0.0851357
0.258018
-0.172883
-0.0797905
-0.0255242
0.105315
0.133143
-0.0190795
-0.114063
0.0873427
0.364667
-0.452012
0.434157
-0.311749
-0.068946
-0.207007
-0.0119386
-0.170379
0.182318
0.110175
0.345369
-0.167782
0.186058
0.0811182
-0.161873
0.0807546
-0.094968
-0.183943
0.0198447
-0.0646211
0.0447764
-0.485961
0.140887
-0.152826
0.134751
-0.110605
0.138593
0.331571
-0.470174
-0.0310999
0.0278149
0.00328505
-0.274449
-0.359956
0.395377
0.26397
0.0292426
-0.16701
-0.307064
-0.397951
0.508482
0.130159
0.163696
-0.00636047
0.00825324
0.0237204
-0.0580187
-0.0466202
0.104639
0.3075
-0.484907
0.282227
-0.08184
-0.200389
0.120537
0.372359
-0.492898
0.119597
-0.0977466
-0.0218509
-0.107836
0.12094
-0.0131045
0.258427
-0.406012
0.147583
-0.0991439
0.155173
0.326535
-0.481719
-0.00194812
0.154523
-0.152575
0.442232
-0.308433
-0.1338
-0.547449
0.408996
0.138449
0.0787007
0.53562
0.469295
-0.113051
0.373757
-0.493613
0.471926
-0.441055
-0.0308728
-0.201911
0.17202
0.0298901
0.593868
0.0164336
0.116709
-0.347244
0.485826
0.392033
0.0330297
-0.425067
0.164151
-0.257265
-0.00098091
0.0313596
-0.0303787
-0.504652
-0.0190117
0.523658
0.268309
-0.196273
-0.0720366
-0.170297
-0.390528
0.157002
-0.152529
0.0488911
-0.182722
0.133831
-0.182067
-0.0841346
0.266202
-0.144864
-0.192713
-0.167966
-0.169998
0.337962
0.202742
-0.00914994
0.0436901
-0.0353397
-0.0135147
0.0159775
-0.0190702
-0.435752
0.56737
-0.131624
-0.361858
0.483417
-0.121563
-0.354877
0.442218
0.418782
-0.135556
-0.283231
0.0662476
-0.0147566
-0.0514909
0.645615
-0.339534
-0.255956
0.387612
-0.131657
-0.0661085
-0.208151
0.00394367
-0.0508643
0.0469207
-0.196779
0.0857393
0.00496181
-0.000340208
-0.0046216
0.426874
0.146794
0.149586
-0.0853205
-0.0642657
0.523241
0.0667399
0.148066
-0.587011
0.438942
-0.0281835
0.0321272
-0.738596
0.43153
-0.059342
-0.0263609
0.0857028
0.617699
-0.562859
-0.0548414
0.500503
-0.134266
0.120092
0.0311106
-0.110901
0.00445421
0.46747
0.425099
-0.511494
0.0863914
0.00949628
0.099924
-0.10942
0.147413
0.00554297
0.507981
-0.306919
0.0134514
-0.0673087
-0.0435354
0.02899
0.0145454
-0.0132102
0.0625783
-0.520401
0.0157445
0.0225179
-0.0150501
-0.00746785
0.586811
-0.480458
-0.106354
-0.0398036
-0.0261119
-0.419992
0.353873
0.547549
-0.399486
0.611613
-0.185918
-0.425696
0.313769
0.22872
-0.0899097
0.171028
-0.246046
0.161877
-0.413346
-0.210182
-0.379805
-0.76698
0.292913
0.474044
0.080834
-0.0673825
-0.42672
0.435004
-0.00829055
-0.000949221
0.11591
-0.114961
-0.106243
0.408981
0.521423
-0.0963279
-0.490443
-0.122624
0.0321506
-0.116646
-0.0629107
-0.022501
0.0854117
-0.00699017
0.011952
0.136279
-0.129155
-0.161613
-0.0402977
0.00118841
0.090952
-0.0921404
-0.0038403
-0.0187771
0.543933
-0.408392
-0.0841273
-0.0122359
0.0963632
-0.451722
-0.315281
-0.0944921
-0.017938
0.11243
0.12619
0.292586
-0.0208649
-0.0744883
-0.131568
0.505317
-0.184321
-0.256736
-0.36702
0.132053
0.184772
-0.168381
0.183032
-0.0146514
-0.0659555
0.0544672
0.0114884
-0.624373
0.0881975
0.53617
0.156989
-0.177956
0.109789
0.337819
-0.447612
0.482747
-0.168979
-0.00157489
0.0261919
-0.234429
0.226256
0.00817338
-0.0609461
-0.358456
0.419399
-0.103514
0.128456
0.166198
0.567438
-0.42559
-0.141851
-0.0145125
0.583109
0.0273805
-0.0289553
-0.0779704
-0.348759
0.13351
0.377778
0.267835
-0.414013
0.353064
0.0921737
0.0320682
-0.387614
-0.308293
0.134282
-0.0266885
-0.107593
-0.58048
0.550741
0.0297316
-0.599506
0.453822
0.145675
0.0254611
-0.0964982
0.408282
0.0100337
-0.000623663
-0.00941
0.0176236
-0.0769656
-0.233004
0.305511
-0.0725076
0.108122
0.0266294
0.551182
-0.124316
0.300114
-0.262575
-0.0255058
0.0245249
0.0352806
0.0404029
-0.0756834
-0.283934
0.210155
-0.166711
-0.198621
-0.395829
0.211506
-0.209769
-0.370718
0.568566
-0.314936
-0.253635
0.524125
-0.427399
0.0348839
-0.157935
0.123051
0.190273
0.0315329
-0.221806
-0.0381257
0.0579705
0.0222583
-0.190639
-0.311215
0.225409
0.0858053
-0.120449
0.0126134
-0.282607
-0.255843
0.0100468
0.158221
-0.168268
-0.0216775
-0.0966797
0.0187361
-0.390061
0.543572
-0.32511
-0.218464
-0.0674868
0.591611
-0.224236
-0.37528
-0.438875
0.344226
0.500951
0.104828
0.464733
-0.344198
0.409885
-0.598624
0.188721
0.010114
0.0124039
0.178549
-0.0406927
-0.137857
-0.634957
0.457038
0.177908
0.124573
-0.109448
-0.228588
-0.395789
0.0412953
-0.0211898
0.174177
0.401259
0.145042
0.4106
-0.020654
0.0289072
-0.176932
0.0647711
0.112161
0.338377
-0.491484
-0.213941
-0.122288
0.336226
-0.607984
0.183627
0.424355
-0.556858
0.417031
0.139823
0.1815
0.0927658
-0.274267
0.176414
-0.00908865
-0.167326
-0.373803
0.506062
-0.132265
-0.00164041
0.0146461
-0.0130057
-0.0848438
0.220793
-0.13595
-0.309585
0.483373
-0.173788
0.48291
-0.144533
0.231586
0.311985
-0.0293328
-0.0142026
0.0856914
0.196535
-0.654502
0.269404
0.38509
-0.304228
-0.0041188
0.0230541
-0.0772138
0.235254
-0.126475
-0.0128709
-0.00484446
-0.387497
0.138492
0.249005
-0.564566
0.167843
0.132806
-0.557673
0.245176
0.083542
0.0108951
-0.521584
0.175258
0.346326
0.0197793
-0.106374
0.287872
0.19579
0.0725184
0.0203534
-0.438501
0.317831
-0.109585
-0.0247136
0.153378
0.0251713
0.398429
-0.111796
0.277413
-0.0406021
-0.367317
-0.287194
0.205952
-0.0295381
0.318079
0.0713476
-0.339016
0.1234
0.215615
0.129539
0.352429
-0.48197
0.013529
0.000987545
-0.0145166
0.496536
0.0769753
-0.573511
-0.247164
-0.140334
-0.381119
0.214407
0.0606598
0.239933
-0.300594
0.052124
0.167265
-0.219389
-0.0400021
0.0752826
0.494861
0.0831565
0.00842824
-0.122307
0.113878
-0.0837206
0.0208099
0.219329
0.339626
-0.558956
-0.13736
-0.294045
0.431399
-0.181385
0.519364
-0.109495
0.100707
0.27018
-0.370894
-0.409313
0.202269
0.207039
0.398849
-0.102116
-0.296733
0.153192
-0.084229
0.11638
0.0246962
-0.400617
0.56049
-0.15988
-0.0130678
0.0800952
-0.0670274
0.0667425
0.15822
0.207274
0.00255718
-0.125192
0.393896
-0.291692
0.0740929
0.0754933
0.0123609
-0.182937
0.398186
0.13149
-0.52968
-0.126453
-0.0504789
-0.131936
0.16789
-0.0359539
0.158314
-0.00493637
0.554387
-0.396722
-0.15767
0.412801
-0.532314
0.347915
0.220647
0.000209651
-0.0979563
0.353873
-0.60381
0.381317
0.222489
0.164283
-0.0304478
-0.531087
0.157279
-0.567239
0.420132
0.147101
0.0138244
-0.0998066
0.202883
-0.291165
0.402259
-0.111095
-0.000886903
-0.173973
0.217726
-0.232368
0.0659581
-0.294997
-0.114319
-0.309049
0.205943
0.0132861
-0.10074
0.0874543
0.406819
0.140728
-0.576268
0.158389
0.417877
-0.375182
-0.301405
0.525781
-0.531256
0.00546889
0.2437
-0.346066
0.102362
-0.308491
0.199009
0.109481
0.0646435
-0.246711
0.392967
0.161415
0.626894
-0.196296
-0.430598
-0.355007
-0.131377
0.486381
-0.423972
0.00397971
-0.150661
-0.16256
-0.0537256
-0.378923
0.130591
-0.0134614
-0.357722
-0.0617263
0.0777092
-0.0159829
0.0944822
-0.385648
-0.476733
0.101546
-0.0103399
-0.032021
0.284717
-0.0959168
-0.188801
0.0178338
0.0958072
0.17073
-0.363143
-0.0189242
0.382066
0.126621
0.315111
-0.441734
0.551212
-0.416358
-0.13486
-0.421417
0.284051
0.0179724
-0.0360508
0.0180784
-0.178744
0.201779
-0.0230358
0.0769824
-0.309987
0.172227
-0.00120073
-0.300177
0.400877
0.0202014
0.138113
0.666394
-0.188608
-0.410413
0.49852
-0.0881087
-0.448
0.138268
0.309732
0.482033
-0.39478
-0.0189001
0.265388
-0.0978455
-0.167543
-0.0131479
-0.349995
0.116869
-0.0154251
-0.0824389
-0.309343
0.391781
0.291867
-0.516167
0.224295
0.323806
-0.517874
0.194061
0.157375
-0.153366
0.150558
-0.301562
0.413627
-0.112069
0.0756365
0.229867
-0.305505
-0.361676
0.501857
-0.140185
0.0184193
0.491617
-0.199753
-0.0624522
-0.199665
0.262117
0.282559
0.115867
0.0204955
-0.0015637
-0.0189318
-0.018578
-0.421921
0.235528
0.186392
0.0118081
-0.112914
0.00200222
-0.00219913
0.108329
0.310033
-0.414914
0.567148
-0.152243
0.547321
-0.444676
-0.102647
-0.102091
0.381819
-0.279732
-0.0728095
-0.245614
0.318422
0.462663
0.0272079
-0.509247
0.362046
0.147195
-0.198652
-0.116495
0.103444
0.0130067
-0.0830759
0.0700691
0.228649
-0.326607
-0.0301586
-0.153563
0.183722
-0.162993
-0.0137677
0.176761
-0.55482
0.413673
0.141142
-0.192852
0.18797
0.262745
0.0219704
0.556978
-0.179577
-0.377404
-0.00624585
-0.179855
0.186101
0.179623
0.447012
-0.00828649
0.0394921
0.147489
-0.112606
-0.606573
0.183857
0.422716
0.152644
0.404208
0.234959
0.233631
-0.533792
0.36863
-0.471399
0.116388
-0.0203988
-0.400424
0.562045
-0.16163
-0.0421638
0.365202
-0.496777
-0.230003
0.519
-0.288998
-0.417127
0.13576
0.281366
0.106232
0.334152
-0.44039
-0.0768923
-0.375385
-0.129544
0.158328
-0.558762
0.388469
-0.0726766
0.302631
0.0215792
-0.324212
0.00479155
-0.560179
0.413773
0.146399
0.211952
0.218611
-0.660421
0.441809
-0.351694
-0.119708
-0.0191343
0.0199564
0.484557
-0.160756
-0.150342
0.291511
-0.00382799
0.128401
-0.0231724
0.65289
-0.43428
-0.406744
0.295246
0.111498
0.101742
-0.0884564
0.560513
-0.408977
-0.151539
0.092267
0.303299
-0.395569
0.121736
0.0777486
-0.163725
-0.308525
0.47224
-0.0908853
0.100382
0.291908
-0.351794
0.0598833
-0.0219593
-0.00914065
0.291675
0.0982775
0.0934521
0.0190325
-0.112485
-0.349944
-0.457387
-0.116673
0.574059
-0.589465
0.430795
-0.0991099
0.542047
0.652036
-0.155501
0.0396757
-0.0488257
-0.0898265
0.331574
-0.241749
-0.614114
0.238626
0.375479
0.273515
-0.396263
0.122747
0.158939
0.127651
0.419667
-0.109044
0.308661
-0.0707646
0.0104325
-0.209484
0.177564
-0.11812
-0.00463728
0.122757
0.105343
0.233868
-0.0380787
-0.00608645
0.0258265
-0.01974
-0.383618
0.118901
0.264715
-0.117951
-0.250431
0.417001
-0.166578
-0.0182809
0.00329886
0.0149821
-0.455165
0.204022
0.115791
-0.319816
-0.219706
-0.440717
-0.20418
-0.353455
0.557632
-0.62749
0.407783
0.60205
-0.178839
-0.423214
0.566491
-0.43924
-0.127254
0.127881
0.298585
-0.426473
-0.174293
-0.0310445
0.205337
0.540412
-0.142231
0.246617
-0.336445
-0.0136868
-0.114855
0.128541
-0.0309775
0.0629099
-0.0319324
-0.0666282
0.0049019
0.127076
-0.130904
-0.221961
-0.400868
-0.188597
0.480259
-0.3395
-0.140768
-0.0151002
-0.0856401
0.307256
0.134976
0.0100337
0.141633
-0.417038
0.275403
0.147122
-0.00834744
0.516841
-0.508514
-0.304563
0.418556
-0.113996
-0.284069
0.425699
-0.41868
-0.177065
-0.374356
-0.135837
0.510184
-0.150836
0.160883
-0.244785
-0.369338
0.0194382
-0.0182644
-0.00117379
0.42544
-0.374503
0.52871
-0.154214
-0.0244764
0.0424488
-0.424754
0.174315
-0.279187
-0.310964
-0.0970826
0.519402
-0.00166422
0.0290447
-0.0577103
0.198597
-0.203251
0.579282
-0.376034
-0.172845
-0.466951
-0.153807
0.620753
0.539401
-0.0183468
0.0777108
-0.0593639
0.122759
0.00794313
-0.2024
0.194457
0.186906
-0.337249
-0.394039
0.38089
-0.203846
0.58961
-0.445741
-0.143871
-0.0658809
-0.173611
0.325733
-0.408173
0.0650589
-0.233025
0.0220838
-0.0259241
0.294237
-0.431049
0.13681
-0.435372
0.334535
0.378219
-0.285954
-0.515116
0.357531
0.157578
-0.143207
0.00598799
-0.108465
0.102477
0.0265058
0.139694
0.227215
-0.036943
-0.0249285
0.0208097
0.0218655
-0.00242727
-0.0979017
0.423634
-0.101224
0.107212
-0.418345
-0.152325
0.00339226
0.0190743
-0.0224666
-0.452185
-0.124772
0.0589755
0.0254792
-0.0844547
-0.136301
0.00941527
-0.20912
-0.288086
0.309209
-0.021124
-0.105418
0.0673878
0.03803
0.0132447
-0.0791521
0.0659074
-0.642307
0.227243
0.415063
0.245369
-0.403631
-0.447869
-0.310424
-0.198828
0.168782
0.385833
-0.103276
-0.0767468
0.368652
-0.145337
-0.0138052
0.159142
-0.0168085
-0.00071438
0.0175229
0.137422
0.195143
-0.0220866
0.00330955
0.52179
0.0959088
-0.175764
0.463332
-0.28757
-0.368275
0.0425304
-0.0470368
0.0045064
0.220172
-0.292983
0.019791
0.56702
-0.138176
0.161903
-0.261758
-0.140278
0.402031
-0.402412
0.274268
0.12458
0.0543801
0.185169
-0.239551
0.303687
-0.405784
-0.134585
-0.42597
-0.216338
0.405182
0.156279
-0.561463
-0.140744
-0.125004
0.419239
-0.019324
0.00193371
0.0173903
-0.331583
0.117639
-0.104609
0.333255
-0.421543
0.551069
-0.129526
0.0217668
-0.380126
0.617832
0.148881
-0.29749
0.0868775
-0.195685
-0.118336
0.314018
0.219321
-0.0324167
0.441834
0.211054
0.0594083
0.471267
-0.34173
-0.488721
0.140495
0.348223
0.0152445
-0.129927
0.114682
-0.440854
-0.0066658
0.56313
-0.3438
-0.10038
-0.0309925
0.131373
0.0835813
-0.101792
-0.0173816
-0.104925
-0.134023
0.0283289
0.105694
-0.211625
-0.309959
0.0836636
-0.100024
0.0321172
0.00547615
-0.0375933
0.531076
0.0908663
-0.0869532
0.247851
-0.423617
-0.00973742
0.16426
0.134519
0.0165122
0.419952
-0.281684
-0.0637563
0.229488
-0.165733
-0.401845
-0.185168
0.242166
-0.178344
-0.0638228
-0.182881
-0.251229
-0.0945975
-0.0439513
0.0697252
-0.157345
-0.0212868
0.178631
0.0316449
-0.163581
-0.075927
0.0544203
0.0215067
0.0869018
-0.0095108
0.10833
-0.0988189
-0.221139
-0.413032
0.108465
0.355357
0.102677
-0.458036
0.558617
-0.153436
-0.591053
0.447405
0.143646
-0.402165
0.54514
-0.142982
-0.223028
-0.0635155
0.0767602
-0.597563
0.433258
0.164296
0.0818511
0.249721
-0.15024
-0.255289
-0.118053
-0.2305
0.34855
0.168408
-0.0127076
-0.137155
0.0392158
0.0979394
-0.300749
0.113063
-0.54882
-0.233973
0.171521
0.0551933
-0.476737
-0.29719
0.259407
0.0222197
-0.0283062
-0.104373
-0.22282
0.32719
0.149834
0.316762
-0.466605
0.0862179
0.018421
-0.429637
0.329548
-0.247699
0.0372051
-0.00508792
-0.0159317
0.394932
-0.104882
-0.290051
0.1803
-0.166158
-0.0141422
0.313037
-0.0894194
-0.223618
-0.0159882
0.00311732
-0.00501793
0.231273
-0.240598
0.155462
-0.010343
0.0809085
0.541797
-0.0623861
-0.101195
-0.0441876
-0.0972305
-0.456761
0.293676
-0.258021
0.220047
0.0379732
0.519672
-0.00694149
-0.0912898
-0.0118808
0.524516
-0.512657
0.241493
-0.35955
-0.344765
0.0582798
0.274782
-0.147083
0.163569
-0.016486
0.58797
-0.180155
-0.407821
0.116027
-0.0630283
0.254063
0.0545967
0.0945704
0.025027
0.126975
-0.448608
0.127438
0.321161
0.00646584
0.237143
0.126032
-0.363176
-0.0812054
0.320652
-0.239448
-0.501731
0.324832
0.176891
0.00358525
0.017332
-0.0209172
-0.0144714
0.15075
-0.0256257
0.19805
-0.267531
0.0694796
0.0320799
-0.05021
0.149079
0.018811
-0.166151
-0.246543
-0.175379
0.178845
-0.0218559
0.388533
-0.574452
0.405663
-0.299436
-0.133274
-0.0135498
0.146824
-0.231556
-0.185091
-0.185367
-0.0810449
-0.198253
0.252632
-0.313786
0.118099
-0.120683
0.135927
-0.0159024
0.109354
-0.474547
0.143407
-0.132446
0.151856
-0.0194103
-0.114359
-0.27968
0.300542
0.113081
-0.354528
0.492188
-0.137668
0.181808
0.403381
0.079847
-0.0644686
-0.0153785
0.103567
-0.102379
0.5814
-0.434126
-0.147279
0.156511
-0.62247
0.189662
0.432807
0.0981257
-0.40747
0.0139608
0.358992
-0.435742
-0.160609
-0.340232
0.500829
0.0253035
0.494366
-0.280164
0.0349034
-0.502
0.467077
0.323609
-0.0784344
0.0649378
0.0149093
0.117598
0.169957
-0.228311
0.0583536
0.409326
0.149289
-0.427868
-0.0015499
0.128626
-0.00778055
0.0503109
0.0524648
-0.0203849
-0.127563
-0.500517
0.550089
0.341637
-0.502258
-0.0932267
0.339842
0.0348023
-0.436151
-0.170423
0.00541478
-0.0689842
0.00958862
0.128661
-0.13825
-0.0932262
0.255102
-0.603829
0.186297
0.417532
0.300742
-0.101734
-0.0122484
0.455628
-0.392561
-0.0630702
-0.216925
0.233853
-0.0169287
-0.414168
0.559065
-0.423145
-0.135925
-0.367449
0.2227
0.00355521
0.0297373
-0.0332925
-0.180418
0.151017
-0.143976
0.553301
-0.127734
0.150748
-0.0230137
-0.404219
-0.013657
0.140179
-0.46646
0.213157
0.404066
0.167375
-0.571458
-0.0744761
-0.44417
0.079849
0.375776
0.270549
0.124382
-0.100861
-0.0163875
0.117248
-0.18749
0.246992
-0.0595018
-0.0925243
-0.207881
0.486801
0.00481164
0.125724
0.430836
0.116281
-0.546895
0.24671
-0.209064
0.0347712
0.175258
0.000403834
-0.175662
0.0132853
-0.0149257
-0.217218
0.193566
-0.199813
-0.14705
0.162084
-0.0150342
-0.0152642
0.164343
0.163412
0.403953
0.167464
0.0905536
0.131516
-0.0307856
-0.0882476
0.0707026
0.017545
0.0365288
0.00335902
-0.117743
0.363922
-0.246181
0.281098
-0.496758
0.215657
-0.0146957
-0.630657
0.290414
-0.492823
0.112696
0.19621
0.0803839
-0.276595
0.0164636
-0.353695
0.131007
0.222685
-0.429096
0.0764094
0.0198123
-0.0962217
0.208319
-0.156195
0.0964647
-0.356709
0.260243
-0.184688
0.41831
-0.00759201
0.0815637
-0.0739717
0.0762031
-0.0863242
0.0101211
-0.0190108
-0.00307582
0.359726
-0.491107
0.105241
-0.430436
0.325191
-0.0434073
0.455402
0.1128
-0.493739
-0.0193119
-0.154086
0.171019
-0.0169337
0.180742
0.30263
-0.270922
0.0860383
0.184883
-0.199626
0.157188
0.0424375
-0.31753
0.225004
0.0630481
-0.0736173
0.132018
0.365537
-0.497568
-0.124082
0.38556
-0.261479
-0.132622
-0.181166
-0.225013
0.506107
-0.0150371
-0.0732105
0.114097
-0.478185
0.364077
0.559175
-0.164666
0.0193288
0.109867
-0.125015
0.0151485
-0.0838824
0.102375
-0.0184925
-0.0130723
0.0892187
-0.0761464
-0.158127
-0.276842
0.434958
0.106044
0.0831887
-0.189233
-0.355999
0.530088
0.0643393
0.313877
-0.535353
0.526982
-0.192661
0.362596
0.0791898
-0.0942269
0.0351225
0.323867
0.136106
-0.172851
0.446861
-0.0915059
-0.57667
0.41441
0.162259
0.137637
-0.444615
-0.140108
0.584723
-0.163412
-0.00407069
0.0200482
0.442488
-0.590987
0.148497
0.302391
0.111512
-0.125199
-0.547257
-0.120338
-0.0886241
-0.111002
-0.0717192
0.177763
0.290733
0.116499
-0.407236
-0.507497
-0.155524
-0.370629
0.526145
0.414479
0.144581
-0.571902
0.378177
0.193725
-0.236531
-0.135823
0.485761
-0.34994
0.325691
0.217365
0.0445643
-0.51152
-0.408768
-0.11205
0.520816
-0.0972271
0.287795
-0.190569
-0.184319
0.00356378
0.0473575
0.0134872
-0.160571
0.1403
-0.361251
0.533199
-0.171963
0.552664
-0.447011
-0.105657
0.147847
0.015722
-0.557502
0.163824
0.393677
0.105093
-0.308277
-0.267992
-0.315893
-0.240717
-0.394865
0.161507
-0.370052
0.257031
0.113019
-0.0828691
0.0603681
0.441751
0.146214
0.586004
-0.143518
0.250657
-0.0604312
-0.190226
-0.623132
0.19992
0.423212
0.625034
-0.190819
-0.43422
-0.0275955
0.314527
0.104025
-0.324423
0.00889285
-0.162978
-0.146931
-0.00245916
0.190742
-0.059153
0.226417
0.166488
-0.157595
-0.160315
-0.397188
-0.460341
0.528184
-0.0678462
-0.0793984
-0.157901