/*--------------------------------*- C++ -*----------------------------------*\
| =========                 |                                                 |
| \\      /  F ield         | OpenFOAM: The Open Source CFD Toolbox           |
|  \\    /   O peration     | Version:  v2012                                 |
|   \\  /    A nd           | Website:  www.openfoam.com                      |
|    \\/     M anipulation  |                                                 |
\*---------------------------------------------------------------------------*/
FoamFile
{
    version     2.0;
    format      ascii;
    class       volScalarField;
    location    "50";
    object      omega;
}
// * * * * * * * * * * * * * * * * * * * * * * * * * * * * * * * * * * * * * //

dimensions      [0 0 -1 0 0 0 0];


internalField   nonuniform List<scalar> 
13851
(
0.126769
0.0242592
0.0241421
4.88363
0.0220824
0.0261805
0.0241555
0.0218378
3.84442
0.0220387
0.068734
0.0220816
0.0221097
5.48161
0.0369016
0.134838
7.98907
0.0219352
0.335305
0.126954
0.0415482
0.0261641
22.952
0.0222638
7.54221
0.066734
0.499586
3.75568
3.84311
0.0217667
4.65166
0.0241609
0.124204
4.51612
0.0454922
3.85694
0.022274
10.2558
4.93992
0.0220934
4.50262
3.95633
19.4087
0.67092
4.0861
0.0218944
0.0215701
0.127716
0.0234577
0.0221038
7.73444
0.0221628
0.134652
0.0309524
5.51024
0.0220925
0.126224
4.36591
0.627293
6.00583
0.0220893
0.201944
0.0220974
0.0235966
0.230905
0.246259
7.96755
0.0684018
0.0221182
4.62388
4.38035
0.0498061
0.0220259
7.25525
0.0326375
0.0237038
6.47036
0.0216695
6.36311
0.0219518
0.0221318
0.414821
0.0447912
5.23959
5.8152
4.51734
0.0263616
6.93266
0.0220255
4.67491
0.022198
0.0242572
25.0427
4.42838
4.42173
0.390653
0.021928
0.13752
7.33734
0.19736
0.141495
0.0433363
0.046616
0.0220747
0.0218768
0.0484431
0.0218787
4.40949
0.0242547
0.0219098
0.0311541
0.0218916
0.176838
0.0650234
0.12196
0.0300896
0.0217787
0.0217973
5.04952
4.81048
0.243608
0.0218122
0.0221102
3.98769
0.251003
0.126003
0.0219265
0.0588885
4.17627
0.0465347
0.0260913
0.0319747
7.38128
4.4283
0.0701686
4.44234
0.0656929
4.45539
0.0358147
0.0461586
0.384729
0.0226347
0.0220246
0.109969
6.67585
0.0234595
0.0216625
4.44701
3.74295
0.0614233
0.141042
0.169975
0.0700519
0.254226
0.0222706
0.0220455
0.0221037
4.70568
0.0427076
0.0235459
0.0222429
3.84856
0.0474599
0.128023
5.3271
4.02923
4.08558
6.33131
0.0306789
6.33753
0.0221047
0.0217822
0.0593062
0.0221391
4.57356
0.361218
0.151359
0.021768
0.0326081
0.14841
0.243135
0.625257
0.0298389
0.0461571
21.5499
3.72423
0.124073
0.0294115
0.0222055
0.0218226
5.34314
0.0426514
7.16038
0.026261
0.0233181
0.136004
0.120406
0.0221226
0.0221864
0.0721234
0.38996
4.44452
4.42459
0.0369727
2.92041
4.30618
0.0236554
0.0455858
3.86866
0.0255833
0.134596
0.0220951
0.407401
0.0222344
0.0464861
0.0244583
0.0220829
0.215835
0.0221901
3.84421
0.0217663
0.127553
6.29449
4.49357
0.0290812
0.0461944
0.0222638
0.0951454
0.022011
0.0457006
7.10677
0.0289825
0.0255651
0.0221179
4.31629
0.0217608
17.9729
4.39681
0.17118
0.0222512
1.35709
5.63911
4.15043
0.133518
0.0333272
0.146601
0.192554
0.0327194
0.36467
0.0330988
6.32223
0.136345
0.0218467
0.0260444
0.138468
3.79147
4.7346
0.0218194
0.132031
0.0220225
0.177557
0.24918
0.0264301
0.0480836
0.14058
0.0219848
0.0450967
0.108591
2.27678
0.022084
0.0220795
0.0291774
4.19131
6.74893
0.0461974
0.0218294
0.242761
0.250898
0.109679
0.0473589
4.1036
7.58245
0.02689
0.0336895
10.5117
0.021865
0.0221029
0.112647
0.0595806
0.0217571
0.0222317
0.0220023
0.0220001
0.0330876
0.0220964
3.8866
0.0435798
0.0219862
3.78027
4.05242
0.0221897
0.129082
7.82751
0.0227522
0.0222119
0.045515
5.7892
7.0721
0.0645424
0.0220728
6.25573
0.0220969
0.0704986
6.19694
2.17454
0.023441
10.0488
2.38711
4.46277
0.168739
0.0461968
4.69158
3.95053
2.97288
0.0222571
5.66556
22.5925
0.808073
0.740328
0.0236737
0.0644587
0.0296775
6.21503
0.048865
0.0218737
0.0215172
0.0277481
4.3828
3.24172
0.0218571
4.37478
0.0299215
0.0322777
0.023687
6.9549
0.240031
0.136397
0.0241926
0.0250479
3.81878
0.0222168
0.263412
0.0267799
0.0454474
0.0304353
0.0220211
0.021983
0.172381
0.217251
0.135676
4.57614
3.87313
0.0235356
4.29017
0.214046
0.0217087
2.47581
0.0874628
6.10049
0.0271414
0.0711673
0.202951
8.01469
0.164409
5.42138
0.0226517
0.392314
15.4761
0.0305475
5.01297
0.0332428
4.59636
0.0332263
0.0402824
0.138597
0.297013
0.0220458
0.0264479
0.064358
0.0327865
0.0219167
0.046544
5.20998
0.0220235
0.0457671
5.79967
0.024134
5.09231
0.0444885
7.47233
0.0261232
0.0628961
2.26915
0.256558
0.0477662
5.61334
7.18428
1.16239
0.021989
0.168895
0.0335017
0.0702855
0.0218266
20.6707
5.41933
7.64007
0.0249917
0.140478
0.228667
6.40398
0.0215957
7.34648
0.335982
23.6726
0.0341506
4.68339
0.0220316
0.0221267
6.62166
0.258192
0.0220359
0.0243058
0.0465431
0.0218174
5.50906
0.0645332
0.0859825
0.0257696
0.0226671
0.022179
6.99498
0.0219863
0.0221573
3.92498
5.27423
0.025657
0.208662
0.0221041
0.0220951
0.0244825
0.138416
0.0440594
0.0219267
0.0228984
0.228752
0.0233645
8.00176
0.0220765
0.0274771
4.13273
0.0356184
0.0215785
0.0221221
0.025699
0.022258
1.14896
4.04114
0.0336175
7.74136
0.0245238
0.0220565
4.08484
0.236955
0.0352226
0.0220457
3.93749
0.0344584
6.9847
0.0220756
0.0322286
0.170785
0.0345717
3.9978
0.282498
7.35861
0.0237764
0.174455
0.0219838
3.78291
0.0443793
0.120234
0.0332761
0.0239704
0.0355564
0.0596532
0.0220943
6.81518
4.01674
8.36413
5.93694
4.03574
4.86639
0.259812
0.0280547
0.0222069
8.7136
0.0220417
0.0219169
0.0301228
4.66111
0.0240467
0.0226346
0.091532
0.0483364
0.0220449
7.72432
0.0219322
4.2561
1.03765
0.0219486
0.0234354
0.348238
2.53758
0.0217637
10.2299
14.3187
0.021683
4.6049
0.31784
0.127678
0.0237501
3.92474
6.10435
0.0216985
0.335311
0.0221118
0.0219329
3.44592
4.676
0.0393765
0.0432896
0.0220429
0.0564908
4.25815
4.63445
0.0217945
6.30586
0.0219241
0.0221255
0.0482188
0.0274587
0.0215896
0.0237197
4.6863
0.272781
4.51056
0.0237135
0.0220184
4.23079
0.022179
0.170054
0.0274534
0.0327189
0.03324
4.26924
6.16711
0.0260714
7.40215
0.0232281
0.0651341
4.00327
4.43713
0.0221134
0.0219882
0.0468779
4.54315
0.221262
0.055586
12.8837
0.0275938
0.0322943
9.22589
7.79044
0.166156
4.17425
0.172335
3.96345
0.0224515
0.661475
2.40012
0.022079
18.8306
6.83041
0.0306611
0.0461475
0.022076
6.79863
0.0800945
16.2864
0.0219871
0.0221657
0.02648
0.0477455
0.0220863
4.50734
0.02216
0.165681
0.0238451
0.0715014
0.0220701
0.0220445
0.0471557
6.71001
0.0478199
4.36776
0.0322235
0.0218265
0.0217626
0.0598929
0.0228949
0.10409
0.0244872
0.0346464
0.509852
0.0221808
5.60629
0.0222535
0.0949165
6.39298
4.14919
0.0283436
16.6211
0.0884709
0.291841
6.70143
0.0218566
7.62269
0.029915
0.0315854
5.69346
1.53541
0.0217187
0.101231
0.0220994
3.86413
6.94883
0.0222016
0.0722092
5.73128
0.0222632
0.0222519
0.067515
6.89496
3.78252
0.0222183
0.139457
0.0231609
0.0220423
0.49441
0.141073
0.183337
0.0215792
0.109015
0.0465427
0.0588488
0.0226518
0.0231656
0.0749943
0.0263243
0.118034
0.0495969
0.0497116
0.136127
3.23548
0.325383
4.7346
10.0368
0.133651
4.31625
0.0400558
3.58595
0.131031
0.0218983
0.0316472
0.27573
0.0269999
0.0219538
0.0219506
0.0948493
6.09049
0.0276497
4.27378
0.0218304
3.89874
0.153621
8.37761
0.101245
0.0262666
0.0241342
6.90713
0.181984
0.0385187
0.242176
0.0225218
6.71863
0.0953092
0.168425
0.0328795
0.556669
0.022029
0.0222451
0.0233764
0.0220405
3.98424
0.022
0.381034
4.13724
0.104173
4.70006
6.51656
0.174234
0.31582
0.0284351
0.0221798
0.0220631
0.0216783
0.0217629
0.0221412
0.0653903
0.168705
0.0503185
2.60524
0.0230772
3.83601
0.0222934
4.81633
0.0421074
0.0222835
0.0221333
4.13248
0.0263657
4.17856
6.79604
0.0442569
0.0652904
0.0216655
4.42088
0.0243277
0.0240808
0.577426
0.0221833
0.0226395
0.0218456
0.0444341
5.76491
0.0295474
0.0331546
0.371526
4.47065
0.0290199
0.0268026
4.01562
0.0216759
3.96412
0.0222021
0.0233766
5.72878
0.0774268
0.120795
0.0976213
0.048088
0.022227
0.0222936
0.0705448
0.0225037
0.0222345
0.0281599
0.352219
0.0219833
0.268739
3.77381
3.94716
0.0962868
5.24726
0.0363873
0.0221754
0.161327
0.021844
0.0264899
4.71345
3.86532
7.65379
4.11096
0.0222695
0.0221722
0.0704417
0.0230124
0.0218354
23.3715
0.181817
4.83402
0.0960732
0.078892
0.0220412
0.0217725
6.35566
0.0866036
0.0236854
0.0222529
0.120715
0.203991
4.35969
0.0222574
0.0221518
6.98491
0.0226279
0.0332542
0.021822
4.72661
0.0219131
5.79018
0.0220743
0.152572
0.0390689
0.0708705
0.0330837
0.0220251
0.0243289
0.022022
0.281651
0.0226444
3.92494
0.0225931
4.71848
4.12373
0.0312994
0.0220034
5.13148
4.12302
0.0265482
0.0773464
0.0220623
6.52718
0.021918
0.277218
0.0220652
0.0220187
4.08067
0.0334154
0.0221122
0.0312924
4.23189
5.35276
5.72882
0.0218237
4.11197
0.0220763
0.0219907
0.0222681
0.0214854
0.0222328
5.99571
4.83555
0.0222
0.0221561
0.0396634
0.0218917
4.89749
0.16643
4.85951
4.79405
0.0242922
0.118247
0.0220714
0.0415901
0.121804
0.0218397
0.0222103
1.65879
6.83521
0.0639486
17.4612
0.0596287
0.0221017
0.0417885
0.0785607
7.84673
0.031879
3.10624
0.0887957
0.0222235
14.2207
12.8586
4.50384
4.01139
3.32373
0.0237246
0.141782
0.0221592
1.32413
0.0264729
0.0218755
5.78026
0.022971
0.0220045
0.0221104
0.0228314
4.55747
0.266561
0.0218718
0.0424663
5.67267
0.0231366
16.8954
0.0232128
0.0742833
4.62694
0.0220995
0.195449
0.0297861
0.0327588
6.03942
0.0229547
0.40132
0.062275
4.41336
0.0221702
4.50031
0.0302832
4.30671
8.02743
5.75461
0.0442364
0.0220378
0.0222761
0.0222632
0.03838
0.0221246
4.04964
0.0289965
0.0278506
0.0287546
0.0236628
0.0218218
0.0265424
0.0275237
0.0234382
0.0271245
6.29971
0.229471
0.0294897
0.0511139
5.87819
0.0226834
4.42118
0.021688
0.0330988
0.0226527
0.0219321
0.0454451
0.0220507
0.0218666
0.0456606
0.0220521
0.329376
0.0227317
19.8405
0.923107
0.202216
0.288665
0.0220536
4.52775
0.149522
0.0222258
0.0274183
0.0225522
4.55205
0.0231916
0.0447409
2.82658
6.54462
0.0852731
0.0221217
4.24738
1.7403
3.49515
0.0296885
0.0218172
0.0217778
0.0646891
0.0220335
7.36157
0.17352
0.0221975
0.214849
0.341009
0.0218323
6.44072
6.43021
0.176416
0.022697
4.24126
0.065013
0.0220207
6.21085
0.0266351
0.0218208
0.0219432
0.0314044
0.0387656
3.96752
5.00336
0.0402279
4.07224
0.0330798
0.0220135
0.0831184
0.0219561
3.45541
0.0218125
0.0220464
0.0239564
0.0224656
4.12653
5.60839
0.232888
6.37465
7.48418
0.0289949
0.0220314
0.0227366
0.409131
0.0217944
0.0218759
0.0441638
6.99903
0.195044
0.0216332
0.0394855
0.0333203
0.130578
16.8349
0.0216778
0.0215773
0.0233756
7.20429
0.0281278
4.25814
0.0231522
0.0221631
0.021823
0.021938
0.0244266
0.173113
4.00507
4.04748
0.028733
0.0220567
4.89806
0.0222593
5.63746
4.89511
0.0303751
5.5129
3.93408
4.79557
0.0527152
0.0316461
3.91169
0.0304374
0.0336117
0.0727166
0.298622
0.0224637
5.25948
0.0220155
4.60113
7.47534
0.0216921
0.0238542
0.0463165
0.398036
0.0331918
0.0221428
0.027655
0.0231952
0.0255056
1.20847
0.0221631
4.20582
5.78582
0.0220187
0.0306599
0.0385571
0.022085
3.80854
14.9816
4.59817
3.60987
0.0220388
0.0245777
0.026562
0.0222809
0.231819
0.0335152
0.0222565
0.0593825
0.0257604
4.84158
0.0391716
7.06412
0.0230959
0.0231556
0.0506008
0.0880077
0.0701117
0.021985
16.7245
4.15414
26.0351
4.54567
4.64872
4.00483
4.44504
0.0219872
0.0220199
0.0219722
0.219268
0.0435245
0.0700776
7.34004
0.0221135
0.021659
0.0220404
0.207615
0.0216525
0.0264158
0.023627
4.01684
0.0229318
0.0218519
0.0220888
0.0219841
0.0221628
0.0341919
0.230246
0.0337503
5.56015
0.0220299
0.0219388
4.17376
4.26259
6.75894
3.86086
0.048026
3.81136
0.0218126
0.061712
0.0231587
0.0220804
0.0240127
5.2087
0.0229328
0.0891501
6.63872
0.0221831
0.0219216
0.0263214
0.177443
0.0222718
3.99858
0.0219569
0.216065
0.0221264
0.0221993
0.0266256
0.0978634
0.0221211
0.637548
4.41186
0.180377
4.47704
0.0220323
6.54013
0.347933
0.0220481
7.80462
0.0222732
0.0424218
0.022209
0.0220435
0.0219602
0.0220429
0.0223953
0.0271067
0.0629086
0.0221806
0.0220976
0.062525
0.0216968
8.34265
0.0221265
0.031774
0.0328662
5.1349
1.38769
0.0221484
0.178858
0.0218168
0.0298402
0.0705223
3.70093
0.0462111
0.0222722
0.105574
0.076267
0.0780034
0.350635
0.0355606
0.149308
0.0554869
0.0636093
0.0228984
0.0218257
3.98726
5.53468
0.0245434
0.0220169
16.0759
0.0218337
0.0412995
0.0219591
0.0842524
8.50779
0.0215232
6.3337
0.0260188
0.0221705
0.148529
0.0218763
0.0406429
3.56638
0.0396177
4.01367
0.021955
0.0222646
0.0441452
0.0222256
0.0222465
0.0275139
0.0293845
0.0634701
0.0887492
0.0220998
0.0394491
0.0218158
0.0220643
0.0222147
0.0220516
1.92891
0.0218444
0.0232494
0.209225
0.0218287
0.022005
4.24942
0.0222497
19.137
0.0230866
4.38424
0.22928
0.0517007
4.85179
0.0673271
2.0513
0.0223343
0.20696
0.0269953
0.0218135
0.0218992
0.0232292
0.030664
0.0219753
0.0548321
0.0219048
0.0231399
17.2717
7.68911
4.41675
0.0239566
0.0461382
5.02597
5.72009
0.0221733
0.0261256
2.03901
0.0221306
0.0408203
4.82778
4.07426
0.0268285
0.0415716
0.0227356
0.36326
0.0222851
0.0357701
4.44081
0.0221765
0.0218491
8.46116
0.044178
0.235141
4.55959
0.0951876
0.0224243
0.0219087
0.0222308
4.84765
1.95359
5.486
0.0575902
0.02204
4.57188
0.0221107
0.175314
0.026631
0.0231629
0.041881
0.0220591
6.67338
7.49562
0.0216361
0.0643327
0.0446489
4.75378
0.0448383
0.0551899
0.234291
0.0329108
0.203397
0.057516
0.0221134
0.0344986
0.0808398
4.01878
0.0220344
2.50299
0.0473886
0.0583353
0.0222726
7.35388
0.025867
0.0235583
0.0218459
0.0397648
0.0385396
0.056098
0.0221274
0.0226432
0.0579
26.1259
0.0622348
0.0221581
0.0226267
0.0344019
0.228918
0.0221722
0.0927982
9.94892
0.0482445
4.26268
0.0382656
7.76237
0.391795
0.021988
3.29892
0.0222385
0.0249022
0.031771
0.0337529
0.101589
0.0446227
0.0432641
0.0453231
0.0310213
0.0240471
0.021646
0.0845479
0.0252276
0.0286349
1.05986
0.026089
0.0302331
0.0219474
4.9839
0.0852482
0.022098
0.024492
0.0232467
5.89735
0.169664
0.031758
4.09972
0.311902
1.18564
0.0910185
0.195318
0.0218946
0.312803
0.021865
0.026768
10.6082
3.79138
0.378992
2.13219
0.0221228
7.01396
0.0218917
0.0770963
0.0250984
3.61333
5.89867
0.0255618
0.0220234
0.352925
0.0433591
0.0220176
4.4028
0.022069
0.0236379
0.0252157
0.0222007
0.0307274
0.0233161
0.0220367
0.0348264
0.528805
0.0390616
0.0623765
0.0220129
6.42256
3.85175
0.0220045
0.215406
0.0250416
0.0290494
5.26201
0.022001
0.0226872
0.0277882
4.31808
0.022029
0.0221827
0.0397176
3.40238
0.0219875
0.0319767
0.0342051
0.911187
0.0467389
0.039505
0.210938
0.0220744
0.120447
0.0217092
6.60166
0.0300739
0.022046
0.0265769
0.10016
0.0221507
0.0221068
0.135429
4.13165
0.0222464
6.06908
0.0221877
0.0216977
0.0630937
0.0220337
0.0218428
6.89908
0.0222736
0.0394204
0.146024
4.64565
0.770994
0.0217774
0.0239543
0.0279417
0.0220759
0.0220335
0.0220984
3.04635
0.0221952
0.181352
0.109003
0.0218396
0.0217074
0.029939
0.109027
0.209226
0.0556244
0.0631605
0.02375
3.89061
0.0797489
0.0297049
0.0391913
0.0666235
0.0927269
17.9277
0.0368695
3.83916
4.7035
5.38495
0.0244461
0.0219611
0.0382967
0.0339606
0.0217879
0.0222512
0.1362
0.0222433
0.0222641
0.0220518
0.0215809
0.0233302
0.0220027
6.75151
0.0220204
9.17386
0.0220834
0.0892687
0.022498
0.110585
0.0801416
0.0220418
4.80226
0.0239332
0.0222253
0.0383764
0.0218054
0.0306585
0.0219352
4.08074
0.0240959
0.0415223
0.104616
4.78424
0.0283693
0.181509
0.996787
0.0517712
0.0220501
0.022862
0.112396
0.0636749
7.29796
0.0217608
4.94035
0.0220884
0.0897045
8.37308
0.0364308
3.41114
0.0251631
0.0318685
0.0247346
7.33356
0.031205
0.0221421
0.0493899
0.140416
0.0233033
0.0220353
0.0221435
4.83787
0.022252
0.027624
4.31342
0.0259562
0.0219864
0.0574544
0.0248822
4.76509
0.0216584
0.0220109
0.0218668
0.0259737
0.0223204
0.0220692
0.0597268
4.10486
0.0219717
0.0221035
5.36177
0.0221378
5.91953
0.0234389
6.96731
0.0218534
0.0242508
0.0218149
3.99849
4.49948
0.030293
0.0717507
0.0268121
0.0219549
0.0221179
4.1094
0.0221369
0.0768749
0.0217684
0.0406435
0.0221898
5.57047
0.0218408
0.0429981
0.0218589
0.543566
1.08058
0.0217882
0.0447368
7.18048
0.0631306
3.9793
3.30666
0.258676
0.0233692
0.0335074
0.0924765
2.98414
0.0220745
0.0367818
0.0279999
0.0219768
4.10646
5.88753
0.0640631
0.147021
0.365982
0.0336353
4.25855
0.0217814
0.0217838
0.102267
7.81852
0.223617
0.169236
1.52925
0.0218134
7.44847
3.97152
9.07267
0.0222026
5.46317
5.01073
1.16256
4.11085
3.88332
0.079099
0.030378
0.174897
0.0255455
0.0219828
2.29172
0.0855353
0.0216298
4.89812
0.0221886
0.0293418
0.0410472
0.0266222
1.22635
0.0346955
6.1327
0.042413
0.0260509
4.55654
4.90038
0.132531
0.0223581
0.0257171
0.0711184
0.0592242
0.0218337
0.0477629
0.0627168
0.150158
0.0219838
0.192502
0.0242466
0.0498028
4.09438
0.184658
0.023049
0.138677
4.67982
0.0221758
0.0227448
8.3082
0.364175
0.0242756
0.024564
0.0220938
0.0757661
0.0250885
3.96792
0.101987
0.0225185
0.0222232
0.0659352
0.0296964
0.422737
6.42882
0.0218799
0.0220321
0.0277256
0.0221944
0.0240967
0.0228501
0.0226938
0.0257028
0.0219433
0.0247465
0.022178
0.0449906
2.53592
0.0222641
5.5676
11.373
0.0217082
0.250558
0.138817
0.0893725
0.02272
0.0849543
0.0268131
0.0803171
0.0293
0.023177
0.0222093
7.21739
0.0273206
3.97452
0.0227063
0.0220306
0.0220209
0.0716545
0.0219659
0.0479995
0.0573951
1.72828
0.0219204
0.291076
7.26258
4.08504
0.0218059
0.148065
1.02167
7.36606
2.25422
0.0225317
0.0222518
0.172049
1.44854
3.75616
0.039345
0.20033
0.0222315
0.0218296
0.0403135
0.0221957
0.0221223
0.173985
0.0222652
0.09103
0.0218424
4.83047
5.29663
4.83818
4.08591
4.22824
0.02212
0.0221466
6.86326
0.0217734
0.0217986
0.0216979
0.126983
4.55136
6.65192
0.027467
0.0220319
0.023085
0.0374403
5.41827
0.0220375
3.4352
4.95617
0.0221891
0.0221778
4.15123
0.0732278
0.0231019
0.0220388
5.79502
4.33279
0.0219634
0.183929
0.0222534
4.0071
3.33929
0.0232581
6.85057
6.82512
5.59447
0.0218292
0.0220737
0.0222446
0.0222862
4.33368
0.0219201
0.250306
0.189829
8.7458
0.0226088
0.0592867
0.304292
0.0483624
6.78275
4.46048
0.0216304
0.0253702
0.0255426
0.130785
4.31089
0.0215684
5.52888
0.0322094
0.0410347
0.0227311
0.0219477
0.308243
0.0402662
4.9058
0.0221956
0.0560257
0.0225227
0.111922
0.024058
4.04914
4.23337
0.284835
0.0891512
0.0219756
0.0238172
0.0795963
0.229131
4.17589
6.99863
0.0221497
3.68162
0.0930392
5.25979
0.0261239
0.0436508
0.0393412
0.0220606
5.66841
0.0220714
0.0319678
3.65989
4.65249
1.77423
4.44298
0.0283257
0.0470625
0.0217375
4.87101
0.0272319
6.59561
0.0217249
4.83193
0.0215306
0.0219993
0.0315636
0.0312406
0.0324483
0.0219875
3.89315
0.0419031
0.0219234
0.0379282
4.07278
0.633699
0.0220275
4.71399
0.0242914
0.0331379
0.0312302
0.0216901
0.0638859
0.0219919
10.1908
0.0823465
0.0263448
0.0220236
0.389431
0.0391373
0.021724
5.15953
2.18013
0.233734
0.0216216
0.741561
0.0221427
0.153641
0.0271149
0.122639
3.7508
4.02529
0.0344652
4.44231
0.0500528
0.028394
0.0218275
5.1905
0.116461
0.104506
0.062031
0.0222434
3.53492
0.0894812
0.405106
0.2138
6.82049
3.85094
6.63753
4.98749
0.0288156
0.0314775
0.0220985
0.0220496
0.021588
0.158506
0.029086
0.0331346
4.88826
0.0219425
0.0218596
0.0396804
0.139956
0.0274753
0.0218098
4.52038
0.024144
0.0447011
0.0222161
5.85604
0.0286408
5.93539
0.0563907
0.033454
0.0529874
0.0220912
7.92625
0.314135
0.069879
0.0220545
0.02191
6.74693
4.51116
3.79731
0.0218353
0.0712417
0.503582
0.0220218
0.0220073
0.0220745
4.44221
0.101777
0.0347043
0.0266748
0.0257154
4.66007
0.0913209
0.239737
0.0258856
0.0319411
0.0215729
0.130788
0.0556694
0.0220082
4.06418
4.52501
4.14462
4.10609
4.738
8.13058
6.81255
0.0231008
0.0218112
6.08531
4.91182
6.54654
0.0220816
0.0390715
0.0220418
0.0219688
2.97268
4.79409
0.0597346
0.0220006
0.320085
0.0876658
0.0478212
4.40401
3.12413
0.224542
0.0219152
4.03451
2.58462
0.378438
0.0312695
0.041406
0.0221672
0.0218791
0.0386498
0.0450407
0.0243591
0.0388059
0.027484
0.0249356
0.218892
4.20475
0.0314497
0.0405437
4.13458
0.203634
0.022112
0.469088
0.971029
4.82588
0.0409762
0.0221083
0.0291853
0.0268137
0.0300663
0.021688
0.0329668
0.030492
0.0437117
0.250798
0.0222305
0.0229694
3.92811
4.15391
4.784
0.321498
0.10407
0.0215148
0.0220416
0.0300891
0.0217309
7.05041
0.0220321
0.0222733
0.0217215
4.04518
19.132
0.0224241
0.0586412
0.0282484
0.0353892
0.0298256
0.0349493
0.0388951
0.0374258
4.80063
0.0259198
4.62149
0.039195
4.79866
0.0292507
0.0219354
0.0218222
0.0874486
0.137053
0.0218271
0.0393361
0.029438
0.0588259
4.0025
6.50457
4.59539
0.022273
0.823307
0.0297062
0.0366343
0.0220249
0.0693975
0.0236578
3.79656
2.09589
0.0398304
0.0220799
4.14053
0.0271719
4.39385
5.0174
0.219823
0.0242124
0.126612
4.60897
0.663014
3.85142
0.0596368
0.0219337
0.0398299
0.0218291
8.85304
0.0245618
0.0316591
0.301791
4.78203
0.0219029
0.0219696
4.33282
0.0415536
8.00283
0.0325963
0.0220403
0.0422713
0.200171
0.0432693
3.75707
0.0360146
0.47517
0.0250299
0.0222444
0.0219535
0.292879
0.0226624
0.131
0.0220423
0.0219941
0.276412
0.0257736
0.0220658
0.0220376
0.0353979
0.404562
0.0408407
0.0388146
0.0263051
0.060076
0.0220507
0.161695
0.0302427
0.0419824
0.0692629
0.0272345
0.0875527
0.0450793
0.021811
0.0626903
6.4071
3.53795
0.0220734
2.43899
4.35432
0.0219726
0.0226566
0.853064
4.31269
0.0277724
4.2462
0.382404
0.021985
0.0780131
0.0215865
0.0257913
0.0600817
10.823
0.528115
0.216307
0.296037
4.0633
3.94875
0.023168
3.85746
0.0220308
2.57014
4.03436
0.0221027
0.0220834
3.65094
0.0221093
0.0220872
0.274614
4.3974
0.215777
0.0257574
4.19289
0.0221037
4.21207
3.99248
0.02219
1.01195
7.28963
4.44962
3.77486
3.90436
3.84159
0.0218837
0.0231809
0.0599016
0.0606045
0.022081
0.202898
0.0220373
3.83016
0.247456
0.0491444
0.234886
3.78701
0.24109
0.228574
0.0609802
7.94307
0.513647
0.0249562
0.0216297
3.21619
0.0347003
0.0217701
7.13323
0.0219784
3.50986
0.0221367
4.53454
0.0251102
0.0219787
20.1528
0.0273664
0.0353176
3.86663
6.76408
2.4329
0.0271508
0.0429861
0.0232965
0.0378942
0.117851
0.0386405
0.0222093
1.66098
0.0587703
0.0330262
4.16166
0.0395643
0.0369848
0.213495
0.0718195
0.0427236
0.0219752
0.208333
0.0218211
0.115185
0.336607
4.48574
0.0218747
0.0389003
4.6595
0.0231077
0.0644828
0.0302478
0.0415358
6.11367
0.0578885
0.0234095
15.6056
0.021885
4.12663
0.022127
0.022902
0.112763
3.85895
0.0325467
0.393834
0.607846
0.0304983
0.0221726
0.163657
0.0447187
4.80961
0.0264446
12.7672
0.133648
0.0303728
0.0291962
0.104854
0.0374533
0.0742246
0.0574739
0.0381068
0.0242297
0.0220315
2.48721
0.0220121
0.0286058
0.021598
0.0996897
0.0289297
0.0567083
4.05928
0.022995
0.224266
0.0215087
0.0221495
0.0221889
0.0222064
0.0260545
0.0219427
0.0791949
7.61923
0.0560121
0.0437411
0.0247236
0.0220244
0.194689
0.0220388
4.53174
5.05874
4.93964
0.134014
0.0350778
0.0266955
0.0221782
0.0296441
0.0967964
0.0427568
4.18968
0.0554627
4.98278
0.137136
0.02221
0.0218437
3.57332
0.0219622
0.0293273
0.0644085
0.362182
0.0231367
4.24508
0.0221736
0.0257431
0.0220436
0.0226322
0.167467
0.0983009
0.0221911
0.031479
0.0352529
0.0441651
0.054528
0.525743
0.363926
0.281526
0.12475
0.0255973
0.0229151
0.0540107
3.85914
6.66025
4.1562
0.0309955
4.76535
0.0973594
0.0226999
0.021993
0.0591887
0.0221456
0.0313412
5.67332
0.0219662
0.0218016
0.584109
2.95686
0.0449058
1.54998
0.0221107
5.56735
0.0422792
4.86213
0.0293254
0.022048
4.23131
0.0597875
0.0220253
0.0730415
0.0222526
0.163144
0.0289407
0.0549324
7.29401
0.0333519
5.36153
0.0219347
4.98094
0.022127
0.0260437
0.0224527
0.0463575
0.022144
0.0556376
4.10118
1.04753
0.0482165
0.0320842
0.0773807
0.0218995
0.0219516
0.0229197
3.2281
0.0250856
4.75301
4.73891
0.145541
0.0222152
0.15186
0.236138
0.142728
0.0254139
4.753
0.0219844
0.0215217
0.0219679
6.94188
0.0220535
0.0220155
4.16212
0.0219736
0.169309
0.100332
0.0217704
4.15311
0.0274142
4.51574
0.021919
2.04754
0.0227764
0.0709122
9.08744
0.0620341
0.0219493
0.0267207
4.68695
0.0311735
0.156543
0.0306315
0.0263184
0.146214
0.0289917
0.0221368
23.4981
0.0293048
0.0275767
0.1344
0.0219748
0.0218649
0.0221889
0.0299679
0.0221306
0.0257892
5.46253
12.8354
0.102364
7.30942
0.0586197
0.0331965
4.90619
4.64284
0.0224405
9.39019
9.11381
4.03587
3.05132
0.0309011
4.67609
4.21695
17.4114
3.25473
6.49545
0.0426176
0.0832766
0.0293107
0.025598
0.0221556
1.50282
0.022285
4.86314
0.124265
0.342833
0.0215929
0.06852
0.0457139
0.0235389
0.0222931
0.0221185
0.122774
0.0234026
0.0221917
0.0390126
4.4896
0.0241103
0.162095
0.0218317
0.125438
0.0832717
0.0221651
0.0266089
0.0219452
4.54129
4.34323
0.154341
8.85875
0.0331519
0.0828516
0.0221329
0.0398447
0.0220573
0.0222766
0.022233
4.75949
0.021777
0.0438083
0.767947
0.0278048
0.0304225
0.021994
5.14398
0.205553
13.4085
4.64762
0.175664
0.304697
4.41686
0.344911
0.248811
8.67425
0.124811
0.0338888
3.31591
5.07853
0.0220423
5.17179
0.155663
5.35961
0.0216108
0.0588426
5.33048
0.022273
4.74168
0.0253003
6.55725
0.0220925
0.0220933
0.0679515
0.225126
0.0262629
0.0635304
0.0217896
0.022109
3.81879
5.73906
6.73432
0.0518139
0.0221197
0.0224347
0.0221373
0.0359816
1.13108
4.36628
4.51451
2.6031
0.0320794
0.0219529
0.0219833
5.95471
6.30929
0.307753
0.0262745
0.0246718
0.083267
4.87588
6.07745
0.0215126
0.0219584
4.97021
0.0229795
0.255448
0.0277916
0.022079
0.0323427
0.0462384
4.68579
4.57459
0.0222021
0.0218011
0.0247128
0.179538
5.41784
0.0222649
0.135946
4.35896
0.0215225
2.78081
4.25542
11.9393
0.0221118
5.47336
4.82018
0.0388034
0.313697
0.0243468
0.308063
0.343473
0.0253654
0.0219487
6.4138
1.00339
0.021841
0.132139
0.146015
0.0295279
0.259546
4.50592
5.26044
5.19043
0.0276162
0.0235153
0.0230179
4.25886
4.93778
4.69442
5.96153
4.63747
0.0217206
0.0427518
0.0220681
0.0221161
0.0247261
0.021966
0.0220589
0.0220951
4.3944
12.6361
6.98597
0.056954
0.188054
0.0357233
0.0218604
0.0219872
4.50936
0.0221408
5.88463
4.11332
0.0221793
0.0218867
3.7848
0.0225141
0.55582
0.0257533
0.0217511
0.0217167
4.41934
0.0216783
4.5172
4.29709
0.0215676
0.0454877
0.0219071
0.0228804
0.0218588
0.115733
4.20602
0.0219693
4.75648
0.46696
0.0239198
0.0218788
0.0226396
0.0235175
0.022226
0.562625
5.25268
5.79561
0.0393362
6.54876
0.0222725
0.0256889
0.0221202
0.177114
0.0233364
4.82577
0.0218627
4.04191
0.294314
5.82324
0.145962
0.0218586
0.0434344
0.0219147
4.25812
0.0219204
0.0284192
0.0263879
0.025498
0.0221296
0.0222509
0.0322825
4.77005
0.0221816
0.0227873
0.0239106
0.0333526
0.161987
0.0221883
5.15436
4.09219
0.02383
4.59721
4.66744
3.51337
6.49025
0.0215364
0.0230089
3.88296
4.25035
0.144526
4.16126
4.4005
0.0324927
0.0481507
0.0303883
4.33569
0.0220338
0.0219654
5.65354
0.120596
4.87579
0.0246945
0.0216997
0.0220447
5.04362
0.067203
0.0235492
0.233489
0.0218289
0.059343
0.030213
0.030475
0.0219556
0.0221889
0.0219222
0.0246558
1.35459
5.0147
0.0215764
0.0219033
4.6151
0.0220676
0.0630328
0.0258468
0.0254461
0.0373941
0.0222857
4.29751
0.0295284
0.0251742
20.9913
0.0802094
0.0231873
0.0320686
0.022022
0.0224541
6.87983
0.285688
3.67122
0.0222659
0.0221555
0.0610328
0.0270065
0.0220275
0.0381547
4.44952
0.0257494
0.0411939
0.0252217
0.111674
0.0221173
0.0217061
4.75122
5.37773
5.26722
0.0219764
0.145394
0.0216049
0.0220183
0.0675053
4.42584
0.064641
0.0281841
0.149196
0.0227723
0.0295007
0.0499965
0.753356
0.0222786
0.0216386
0.022549
0.0236856
0.026913
0.0219587
1.23312
10.0028
0.022093
0.0318345
0.022399
0.0216552
3.82742
6.06834
5.73288
0.0736753
0.0223649
0.054838
4.9305
0.101419
0.0959384
0.033669
0.0295829
5.13344
0.211518
0.773006
0.021764
0.0303011
0.0221052
0.0304372
7.22948
0.0216244
0.040321
0.0253172
0.0298111
0.0230126
0.0217984
0.0218797
4.22236
0.0450276
0.0303977
0.0642785
0.0346334
5.60642
0.0309972
0.481291
0.0219314
4.94734
4.8562
7.06983
0.0222645
0.0316573
0.022085
0.0219715
5.6606
0.0453453
4.85071
0.0219895
0.0446997
0.131639
4.35262
0.0278482
0.0216485
7.01423
0.0222852
0.0222841
0.0225589
0.0220334
6.05752
0.0218222
0.0218805
0.0360426
0.0270946
0.141246
0.129628
0.0328725
4.24417
0.021969
0.178903
0.0217875
4.72626
0.0338952
0.476461
0.144695
2.70407
0.101057
4.82262
0.0230825
6.6178
0.0322322
5.01764
0.198164
0.0277857
0.225974
0.0221626
7.06344
0.0231167
0.0378611
0.0269798
6.90221
0.135027
4.40709
0.0307426
0.0220099
4.9558
0.239755
0.0556357
0.150251
8.34511
5.11295
0.03885
0.28038
0.042003
0.0218842
0.0481401
0.260538
0.0684445
25.0557
0.121589
0.0217864
0.021946
0.138145
0.0220867
5.57739
0.070961
0.0220856
4.06586
1.10223
3.26706
0.108841
0.0220018
0.0287758
0.0256338
4.54538
4.01208
0.0256044
5.305
0.0218718
0.0313278
1.05974
0.0219972
0.0404005
0.0219314
0.0261541
0.0222512
0.161561
0.5681
0.0298926
0.0291245
0.021715
0.143094
0.0218864
0.0218284
0.0326954
0.0219254
0.219485
5.09245
3.70184
4.17713
0.0217853
4.97361
0.0221892
0.0367714
0.132182
0.0220452
7.91548
0.0691143
0.0220506
0.0216417
0.0418419
0.0374102
0.178037
0.221346
0.0256743
0.023829
3.99668
0.0598445
0.273475
0.871846
13.2873
3.98286
4.849
1.29874
0.0221472
0.0221154
0.046674
0.0222206
0.0509034
0.0371487
6.51389
5.12678
6.52743
0.0216928
0.0217798
0.119572
0.341213
4.47919
1.38391
3.99576
0.0555218
0.0324827
1.23457
0.286756
0.0264239
4.98789
0.032913
0.0303629
4.46433
0.041173
0.0219625
4.68958
0.934136
0.0245977
0.141049
0.0232404
3.82681
5.74981
4.77708
0.0220079
0.0216815
0.128137
0.0220099
0.0219285
0.0220146
0.0217284
0.0220211
0.022029
4.83156
0.0278173
0.0460604
4.31484
0.0219034
0.0220393
0.031551
0.025886
0.0263137
0.0220484
0.065596
0.030561
0.0262705
0.0847901
4.3274
0.0220611
0.041938
0.0220744
0.0220304
0.0215722
0.0220877
4.48845
0.021895
0.02202
0.0221013
0.0434929
4.2469
4.35865
5.08087
1.876
0.0442236
4.29913
6.68752
0.0219547
0.0419217
5.988
0.202225
0.0221153
0.0281336
0.0432334
0.0371851
0.0220631
0.0408357
0.0579562
0.0438925
0.0216294
0.053609
2.59583
0.0215758
2.17571
4.96746
0.0420474
0.663737
0.0355445
0.0220928
0.0255878
0.0220109
0.229284
5.00439
0.0216816
0.0431206
0.0219743
0.0219805
0.0222081
0.0222858
0.0371483
0.022173
0.126621
0.147584
0.0257666
0.0244495
0.0451192
0.0220459
0.0438666
0.032719
0.0223434
0.0221054
0.022143
5.10367
0.0220141
0.260063
0.041713
0.0222532
0.0220462
0.0217541
4.58064
0.0252744
0.042474
0.052193
5.26767
0.0279748
4.0509
2.33194
0.0427616
0.0219709
0.225318
0.0385968
4.95324
0.0702269
4.75954
0.0216453
0.0496555
0.0485748
4.25261
0.022005
0.0439789
5.42902
0.0218597
8.00911
10.4424
4.06715
0.0219791
0.0217835
4.75064
0.0220472
4.51638
0.163079
4.33958
4.45432