/*--------------------------------*- C++ -*----------------------------------*\
| =========                 |                                                 |
| \\      /  F ield         | OpenFOAM: The Open Source CFD Toolbox           |
|  \\    /   O peration     | Version:  v2012                                 |
|   \\  /    A nd           | Website:  www.openfoam.com                      |
|    \\/     M anipulation  |                                                 |
\*---------------------------------------------------------------------------*/
FoamFile
{
    version     2.0;
    format      ascii;
    class       volScalarField::Internal;
    location    "50";
    object      V0;
}
// * * * * * * * * * * * * * * * * * * * * * * * * * * * * * * * * * * * * * //

dimensions      [0 3 0 0 0 0 0];


value           nonuniform List<scalar> 
13851
(
0.0053112
0.0201336
0.0265692
0.00134029
0.17303
0.0236257
0.0283208
0.15375
0.00141713
0.0772412
0.00915776
0.0982812
0.0348306
0.00115765
0.0128371
0.00429971
0.00118529
0.049561
0.00369371
0.00601728
0.0136731
0.0222165
0.00165138
0.182008
0.00301078
0.00740441
0.00312903
0.00282604
0.00183474
0.0860754
0.00185563
0.0292498
0.00590291
0.0022499
0.00894019
0.00212333
0.183673
0.0023321
0.00186495
0.0427456
0.00187352
0.0018536
0.00138009
0.00330425
0.00198621
0.0693157
0.166821
0.00397651
0.0332679
0.0407382
0.00138192
0.0401045
0.0048562
0.0143922
0.00156877
0.0313956
0.00514834
0.00159665
0.00334654
0.0014567
0.103778
0.00340779
0.0939676
0.0245178
0.0037918
0.00307068
0.0011306
0.00497113
0.0462244
0.00138589
0.00147911
0.0107528
0.0416485
0.00130872
0.014003
0.024098
0.00162509
0.123292
0.00344123
0.0829731
0.041957
0.00406024
0.0112358
0.00151183
0.00142423
0.00185424
0.0199173
0.00137635
0.063516
0.0014779
0.0409392
0.0262304
0.00135332
0.00164336
0.00178609
0.00315328
0.0700156
0.00492339
0.00132507
0.0047742
0.00426746
0.00838863
0.00815741
0.0406168
0.0671681
0.0106861
0.0758447
0.00136181
0.0274043
0.0484281
0.0141954
0.0785817
0.00423588
0.0069389
0.00492622
0.0173322
0.0892694
0.157295
0.0010913
0.00173331
0.00390854
0.0770964
0.033966
0.00129084
0.00418669
0.00454768
0.0718319
0.00795744
0.00171759
0.0101156
0.0200537
0.0167766
0.00257027
0.00213688
0.00756971
0.00177435
0.00660673
0.00137152
0.0110762
0.0115133
0.00434393
0.0296005
0.0546296
0.00398467
0.0026548
0.0263001
0.127764
0.0016248
0.00168497
0.00655317
0.00340519
0.00513326
0.00654481
0.0040143
0.0360316
0.053481
0.136198
0.00146598
0.00797511
0.0223722
0.177158
0.00199912
0.0110264
0.00524564
0.00123668
0.00174911
0.00208309
0.00149755
0.0154868
0.00217424
0.107296
0.110716
0.00897796
0.162461
0.00175008
0.00346528
0.00416703
0.0976492
0.0143559
0.0049309
0.00428727
0.0038494
0.0152444
0.0145326
0.00135309
0.00139121
0.00494825
0.0127928
0.037499
0.0802153
0.00263701
0.0116394
0.000860253
0.0228605
0.0263726
0.00510427
0.0039786
0.0437512
0.0464527
0.00645396
0.00426442
0.00168582
0.00206517
0.0136608
0.00158947
0.00145186
0.0236788
0.00939098
0.00159601
0.0193139
0.00440144
0.0316852
0.00350334
0.159203
0.00972041
0.0196792
0.0428884
0.00326674
0.0475139
0.00116074
0.108571
0.0053849
0.00135393
0.00192712
0.0124491
0.00896798
0.16963
0.00431759
0.0957423
0.0113787
0.00187807
0.0142558
0.0238273
0.102442
0.0017659
0.0949788
0.00194185
0.00178476
0.00511152
0.16199
0.0026911
0.00147138
0.00221024
0.00483298
0.0161811
0.0030928
0.00345239
0.0136533
0.00317852
0.0132936
0.00126151
0.0056286
0.175633
0.0206287
0.00417913
0.00183777
0.00141003
0.0691672
0.00386803
0.0569837
0.00401002
0.00459492
0.013562
0.00966509
0.0053508
0.0570555
0.00703207
0.00506508
0.00340588
0.096707
0.0426553
0.0109154
0.0021123
0.00145596
0.00929803
0.0647672
0.00359867
0.00396352
0.00574141
0.0111589
0.00181969
0.00129588
0.0166589
0.0120982
0.00241884
0.0674653
0.128835
0.00425684
0.00826531
0.0821428
0.155564
0.0780048
0.160996
0.0147947
0.134591
0.00143172
0.0107678
0.0431464
0.00183978
0.00101312
0.0397713
0.00487153
0.00129313
0.0271688
0.036131
0.0110531
0.00133867
0.00171344
0.00793542
0.167649
0.00249998
0.100497
0.00771198
0.00135293
0.00324887
0.0296056
0.00223909
0.00311916
0.00186429
0.00462396
0.00793886
0.00173486
0.00162767
0.00259026
0.0431632
0.00144877
0.00135617
0.00192799
0.00230934
0.0120164
0.00861002
0.0149567
0.00112285
0.00778258
0.146049
0.15693
0.0167677
0.00163725
0.00132602
0.078738
0.00174247
0.014827
0.0131084
0.020111
0.001083
0.00419669
0.00440009
0.0254474
0.0221352
0.00158421
0.0354417
0.00373544
0.0195877
0.0105887
0.0127754
0.0556994
0.0484533
0.00516745
0.00433667
0.00519299
0.00280975
0.00177428
0.0178216
0.00162627
0.00391614
0.0848968
0.00299851
0.00606878
0.00147547
0.0199151
0.00714019
0.00337184
0.00246364
0.00550525
0.00143685
0.0263606
0.00274734
0.00153461
0.0157395
0.00112339
0.0144439
0.00187528
0.0132283
0.0104368
0.00550917
0.0031252
0.0483193
0.0206533
0.00657247
0.0123049
0.0492828
0.00870403
0.00191592
0.0328849
0.00956093
0.00150387
0.0263706
0.00277535
0.00903099
0.00190121
0.0193765
0.0083805
0.00215245
0.00411724
0.0112566
0.00148403
0.0013983
0.00279857
0.0494317
0.00500481
0.0127946
0.00763314
0.0658005
0.00140982
0.00187114
0.00256622
0.0230623
0.00530026
0.00332773
0.00141532
0.0965629
0.00132274
0.00413484
0.00152472
0.0109757
0.00331562
0.044879
0.154259
0.00129308
0.00299601
0.0674344
0.0161394
0.00904952
0.107322
0.00192522
0.007489
0.00650492
0.0200779
0.0325134
0.0412362
0.00262263
0.0531231
0.0468217
0.00276079
0.0021106
0.0185706
0.00334035
0.0930156
0.127171
0.0269206
0.00466669
0.0092445
0.0483782
0.0326236
0.00358291
0.0355166
0.00175025
0.134151
0.0194477
0.00191733
0.00805186
0.150901
0.103604
0.0204943
0.0413265
0.00265748
0.00235875
0.0138077
0.00112144
0.0258464
0.0952803
0.00152303
0.00325795
0.0100508
0.0399029
0.00149026
0.0110027
0.00167429
0.0308147
0.0154028
0.00516406
0.0137442
0.00190473
0.00274363
0.0029808
0.0175346
0.00399686
0.0547285
0.00160744
0.0113233
0.00328991
0.0162056
0.0261282
0.00962807
0.00844906
0.148315
0.00130961
0.00134637
0.00222217
0.00130061
0.00269883
0.00154135
0.00344133
0.0139514
0.133558
0.0027167
0.0749324
0.0610032
0.0119904
0.0018806
0.0266594
0.0269873
0.00502577
0.00832581
0.0604102
0.00242504
0.0666647
0.00172817
0.00323029
0.070275
0.0293802
0.00372429
0.00287072
0.0958622
0.00250035
0.00250966
0.0705427
0.00177846
0.00387814
0.00468785
0.0204968
0.00267899
0.00142175
0.0594206
0.00350448
0.0508438
0.0676911
0.00287299
0.00146215
0.01346
0.00981698
0.0678804
0.00655182
0.00172543
0.00172464
0.0634538
0.00110383
0.0537535
0.0409963
0.0103699
0.0153512
0.0908651
0.0186832
0.00168544
0.00384854
0.00156342
0.0289996
0.0553333
0.00187246
0.121968
0.00548285
0.0209067
0.0145436
0.0155963
0.00192486
0.00142921
0.0198924
0.00157785
0.0311151
0.00802135
0.00187464
0.00152927
0.0409073
0.0468895
0.00633148
0.00135463
0.00358513
0.00818648
0.00170375
0.0139741
0.0120464
0.00191407
0.00238337
0.00546336
0.00154875
0.00372253
0.00167262
0.034076
0.00275482
0.00317733
0.100469
0.00134269
0.00217255
0.0143686
0.0109321
0.0403884
0.00151006
0.00584001
0.00205788
0.0446383
0.17054
0.0128551
0.00914439
0.130032
0.00159916
0.16371
0.00402331
0.0228507
0.00695102
0.0370569
0.0473489
0.00996231
0.00117256
0.0110425
0.00154832
0.0135191
0.0995661
0.0665684
0.00846842
0.0281162
0.00575109
0.0248688
0.00996352
0.00329619
0.123027
0.00119343
0.153726
0.00576556
0.0013745
0.00199208
0.0116922
0.00200095
0.00555783
0.00445148
0.0017885
0.0582279
0.00179803
0.0130726
0.014488
0.00147538
0.00307811
0.0589104
0.00618774
0.0421197
0.00164248
0.00126738
0.0327576
0.00504867
0.00212221
0.170503
0.139782
0.0056196
0.00109214
0.00260432
0.0220707
0.0054344
0.0347799
0.0600397
0.00282791
0.00478759
0.00498979
0.11186
0.00388194
0.00822479
0.00789343
0.0248104
0.025101
0.00672883
0.0132491
0.00488638
0.0108063
0.0104026
0.00559203
0.00236527
0.00321375
0.00191783
0.00283577
0.0029634
0.00141602
0.0100578
0.00253878
0.0044633
0.048494
0.0135413
0.00378408
0.0173651
0.0865247
0.0840507
0.00580988
0.00133235
0.0184522
0.00160937
0.100273
0.00247534
0.00410839
0.00127623
0.00597366
0.0183954
0.0249053
0.0015228
0.00394343
0.0111942
0.00255756
0.0372924
0.00278818
0.0049739
0.00414595
0.0150424
0.00359138
0.0385612
0.155749
0.0256242
0.0648131
0.00176034
0.128096
0.00352112
0.00179184
0.00553658
0.00169837
0.00100793
0.00386539
0.00358006
0.0138903
0.117621
0.0403857
0.10188
0.0697857
0.153307
0.00773868
0.00514838
0.00683867
0.0028358
0.0259961
0.00155396
0.170602
0.00130559
0.0096315
0.150322
0.105205
0.00192573
0.0209409
0.00222101
0.00205866
0.0080488
0.0057112
0.0679806
0.00209416
0.0175444
0.0252753
0.00279356
0.122263
0.0340756
0.051375
0.00958153
0.00127006
0.0172384
0.0150876
0.00367066
0.00167899
0.012917
0.0145412
0.0018813
0.107336
0.00201513
0.150206
0.0315796
0.00300587
0.00642646
0.00554345
0.00526987
0.00972476
0.123039
0.159755
0.00737593
0.0334189
0.102061
0.0185265
0.00368226
0.105581
0.00393071
0.00274436
0.00267088
0.00556657
0.00170707
0.0102722
0.111659
0.00554452
0.0950023
0.0186135
0.00239523
0.00183395
0.00183699
0.00192839
0.0443109
0.0326363
0.00557183
0.0249104
0.0683191
0.00157421
0.00374349
0.0010802
0.00507553
0.00611112
0.0521644
0.0650642
0.00226759
0.00615847
0.0278079
0.156142
0.00367527
0.00429689
0.0016121
0.0358909
0.151999
0.00116608
0.0306556
0.014412
0.126711
0.00185998
0.146156
0.00169213
0.0815579
0.00489877
0.0122782
0.0061841
0.0127027
0.0423498
0.0200012
0.149273
0.00312108
0.0287445
0.00157237
0.026812
0.00277415
0.00174769
0.0138084
0.110021
0.00148029
0.00231622
0.0189332
0.00636656
0.0421525
0.00130014
0.0469411
0.00309456
0.0944202
0.113683
0.00240496
0.0128801
0.101114
0.0112032
0.00153127
0.00173015
0.00201101
0.0709814
0.00140516
0.085836
0.135283
0.0343664
0.115335
0.125609
0.0020238
0.00219781
0.0367374
0.159236
0.0128619
0.0411332
0.00168827
0.00477061
0.000940358
0.00169624
0.0184794
0.00445922
0.0967915
0.0129984
0.00503791
0.0661024
0.137425
0.00333945
0.00111663
0.00760619
0.00108352
0.00736459
0.0851935
0.0110069
0.0059509
0.00123836
0.0147797
0.0025135
0.00561567
0.116429
0.00167999
0.00152465
0.00120176
0.00261471
0.00248361
0.0176964
0.0028204
0.0369519
0.00296072
0.0181915
0.151712
0.00172931
0.024833
0.130402
0.0383924
0.029131
0.0016399
0.00387983
0.0748707
0.0106499
0.00135935
0.0260427
0.00154928
0.0227025
0.00567658
0.00182303
0.12221
0.00318243
0.0123364
0.0138722
0.00176349
0.0261765
0.00425565
0.00891956
0.00164821
0.0422142
0.00123178
0.0158375
0.00129333
0.00126604
0.00120134
0.0102038
0.0419437
0.0412807
0.179414
0.011276
0.0977201
0.00158766
0.0153249
0.0144694
0.0111566
0.0208629
0.0790139
0.0187135
0.0178017
0.0232295
0.0170937
0.00168045
0.00311289
0.0157808
0.00856242
0.00218527
0.0303811
0.00166178
0.106903
0.011539
0.0256437
0.0499363
0.00938122
0.0842855
0.0791042
0.00761532
0.0406731
0.00382547
0.0287422
0.00116126
0.00319124
0.00354955
0.00341239
0.0453317
0.00161158
0.00462838
0.137448
0.0153373
0.0281617
0.00187461
0.0224679
0.00772764
0.00294649
0.00142198
0.00653142
0.0409287
0.00208123
0.00334168
0.00233035
0.0129356
0.0962254
0.0599076
0.00617987
0.0407421
0.00124699
0.00451659
0.121992
0.00366715
0.00311111
0.0460522
0.00184771
0.00151709
0.00452208
0.0228848
0.00192443
0.00866698
0.11399
0.00109894
0.0136812
0.0463049
0.0697429
0.0147759
0.0112021
0.00165406
0.00144665
0.0114101
0.00161338
0.0144569
0.0461123
0.00417763
0.0832448
0.00255774
0.0686286
0.134592
0.0172466
0.0386068
0.00161569
0.00148246
0.00344893
0.00129407
0.00212181
0.0135667
0.0426463
0.0289267
0.00380736
0.0601094
0.142963
0.00974444
0.00286423
0.00341482
0.152313
0.0102714
0.0126358
0.00481076
0.00106216
0.055446
0.100077
0.0285441
0.00333664
0.0185974
0.00170871
0.0243814
0.153674
0.0572941
0.065186
0.021267
0.00406366
0.0018112
0.00164481
0.0116833
0.0892843
0.00261204
0.0329178
0.00274679
0.00139113
0.0115799
0.000958511
0.00175157
0.00161288
0.00764437
0.0145173
0.00139262
0.0153089
0.0107323
0.00455212
0.00363229
0.0385191
0.00154668
0.0464962
0.00199535
0.0026572
0.102324
0.0181998
0.00837403
0.00347184
0.0144323
0.137899
0.0181795
0.0245434
0.024359
0.00203562
0.0943465
0.00220841
0.00123844
0.0459441
0.0146843
0.0111897
0.096153
0.00153955
0.00127742
0.00165139
0.00142169
0.0860053
0.0213907
0.0176611
0.0330617
0.00364128
0.0125442
0.140362
0.00659013
0.0176251
0.00224296
0.0120624
0.00108251
0.0243289
0.0216477
0.00664285
0.00596793
0.00675335
0.052602
0.0012032
0.00148204
0.00137756
0.00124763
0.00195739
0.00154196
0.00136008
0.0528198
0.0530858
0.0416677
0.00345149
0.0103297
0.00696763
0.00123921
0.0417395
0.121742
0.0679237
0.00360596
0.100645
0.0195345
0.0184395
0.00186483
0.0210645
0.0762551
0.10031
0.0452844
0.178526
0.00988014
0.00363949
0.00877816
0.00226349
0.0589773
0.0601214
0.00174488
0.00175111
0.00126364
0.00266171
0.00641034
0.00257034
0.0764596
0.00612597
0.0252374
0.0824561
0.0172265
0.00138663
0.032589
0.0056119
0.0021207
0.0408968
0.0432094
0.0152831
0.00345179
0.15472
0.00178796
0.0467215
0.00354821
0.0989629
0.0393695
0.0215155
0.00460973
0.0295291
0.00278221
0.0010812
0.00366283
0.00199315
0.0461702
0.00133386
0.00293285
0.0636246
0.00270331
0.0344047
0.00645688
0.0366088
0.0451808
0.103028
0.0518314
0.03135
0.0134586
0.00721682
0.039933
0.0942624
0.00672567
0.0701586
0.00189149
0.102847
0.0142879
0.0133687
0.00137722
0.00297076
0.0956208
0.00402542
0.12021
0.0153996
0.00653585
0.00302227
0.0101978
0.155795
0.00543016
0.00512056
0.00563248
0.00359531
0.00905761
0.00589219
0.00724687
0.00671025
0.0200955
0.067599
0.00227539
0.00131108
0.0218398
0.0893356
0.00124617
0.104285
0.0106251
0.0860505
0.00626271
0.00306417
0.0825781
0.00104196
0.0201439
0.145871
0.00425524
0.140097
0.00598204
0.00140608
0.0102342
0.00268885
0.0865396
0.160786
0.00729138
0.131007
0.119989
0.0197358
0.0162487
0.00703933
0.00529178
0.0334744
0.00967135
0.0639443
0.0923582
0.127537
0.0624793
0.00281586
0.0491447
0.0142687
0.00335683
0.106009
0.113869
0.00135692
0.130448
0.00114716
0.0318723
0.00191496
0.00346693
0.00594977
0.00225346
0.00644068
0.00187544
0.0334018
0.00412628
0.0171475
0.0666746
0.0477904
0.0146694
0.0165674
0.0460023
0.00760824
0.0853281
0.02076
0.00131021
0.00123368
0.00217355
0.0188777
0.00722231
0.00133437
0.00158491
0.10905
0.0216004
0.00220551
0.0456753
0.0116354
0.00210275
0.00173524
0.0185124
0.0111468
0.0274049
0.00311809
0.137263
0.00852332
0.00247096
0.0301927
0.139959
0.00173842
0.00970139
0.00344434
0.0019565
0.00532868
0.0294073
0.0798585
0.0303228
0.00132461
0.00290647
0.00238737
0.0081206
0.0485502
0.00104698
0.0891793
0.00445486
0.0156879
0.0308909
0.010515
0.0792867
0.0016546
0.00217738
0.0748403
0.00692286
0.00871562
0.00238826
0.00956468
0.00772607
0.00332376
0.0132111
0.00305877
0.00586701
0.0887117
0.012089
0.00437015
0.00246545
0.083422
0.00250836
0.00938147
0.007619
0.15913
0.00192387
0.0215664
0.0221083
0.0638677
0.00978082
0.0118123
0.00602669
0.162232
0.0284296
0.00646918
0.00122603
0.00869222
0.0919522
0.0292321
0.0134936
0.00394043
0.0897504
0.00563993
0.00208544
0.00820204
0.00190104
0.0119653
0.00123322
0.00357421
0.0459013
0.00274437
0.132868
0.0210999
0.0110986
0.0131351
0.00550009
0.00964948
0.00969169
0.010127
0.0146274
0.0172032
0.103684
0.00555958
0.0227913
0.0144264
0.00297352
0.0182423
0.0142715
0.0883132
0.00144117
0.00581273
0.0323151
0.0244628
0.0219473
0.00121063
0.00456462
0.0106338
0.00190743
0.00307041
0.00286215
0.00549234
0.00291916
0.0726482
0.00260238
0.117959
0.0144223
0.00278023
0.00147532
0.00277666
0.00215166
0.0729098
0.00111577
0.0757527
0.00644463
0.0141283
0.0024708
0.00186981
0.0164315
0.151622
0.00365196
0.00745989
0.0663704
0.00152093
0.073323
0.0179003
0.0220396
0.0359269
0.01479
0.0227468
0.0590278
0.0120881
0.00374186
0.012056
0.00897737
0.0572092
0.00124349
0.00185199
0.118958
0.00329425
0.0185103
0.0122041
0.00237113
0.114531
0.029003
0.014234
0.0011487
0.0693709
0.146118
0.0139745
0.00236636
0.120219
0.0131417
0.0110897
0.00294244
0.00943353
0.0117106
0.00444662
0.0720248
0.00323049
0.112264
0.00125042
0.0138348
0.0658257
0.0193481
0.0057663
0.135244
0.044221
0.00449548
0.00193484
0.0352421
0.00128267
0.113056
0.110937
0.00803912
0.0874733
0.0466309
0.00211358
0.152017
0.0114455
0.00531827
0.00164091
0.00303328
0.0561612
0.0141625
0.0140942
0.126982
0.0334642
0.0871916
0.00267056
0.125403
0.00316854
0.00407284
0.104682
0.0685061
0.0154329
0.00393601
0.00332934
0.00646929
0.00731908
0.0197614
0.00139844
0.00619056
0.0152278
0.0115356
0.00659877
0.00566148
0.00132164
0.0118129
0.00150287
0.00219567
0.00159342
0.0236689
0.0411983
0.0114393
0.00960159
0.0660447
0.0310082
0.00502527
0.161876
0.0364997
0.0600953
0.0922326
0.028766
0.0451815
0.00122812
0.133825
0.00199658
0.126228
0.00497309
0.0341488
0.00571783
0.00549329
0.0345024
0.00196598
0.0150037
0.115745
0.00890377
0.0699001
0.0128893
0.0389387
0.00191101
0.0220703
0.00980332
0.00368831
0.00222674
0.0147568
0.00246197
0.00331227
0.00791856
0.0451691
0.0312822
0.0051867
0.00797059
0.000982291
0.0717895
0.00189785
0.0403294
0.00504508
0.00195587
0.0122543
0.00272128
0.0220431
0.0139369
0.0165877
0.0020573
0.0134305
0.132197
0.00901302
0.00471104
0.0222805
0.060549
0.135724
0.00157029
0.162406
0.0148068
0.00181916
0.0138361
0.0469051
0.00831699
0.0198968
0.00222325
0.11798
0.044991
0.088518
0.0161587
0.0308361
0.0450376
0.00598202
0.00167948
0.0561719
0.105938
0.00237347
0.0421906
0.00126653
0.0280995
0.00188136
0.061999
0.0170533
0.139329
0.00145432
0.00193524
0.0110728
0.0049036
0.0151077
0.0509441
0.0966962
0.00188711
0.139668
0.0058985
0.123698
0.0107906
0.119851
0.00218241
0.102475
0.00977297
0.137072
0.00364624
0.0025119
0.0652218
0.00798639
0.00190854
0.00588701
0.00237182
0.00264108
0.00402787
0.0259142
0.0124681
0.00531709
0.00286068
0.0418983
0.0119838
0.0139682
0.0428855
0.00133499
0.00176811
0.00684116
0.00478399
0.0034796
0.0122224
0.00179822
0.055182
0.070618
0.00548607
0.00214027
0.00409355
0.00467532
0.00277512
0.0619384
0.00205829
0.00142698
0.00192989
0.15022
0.00121248
0.00150833
0.00290979
0.00160299
0.00140328
0.00515432
0.0136304
0.00392969
0.0166342
0.0492398
0.00290256
0.00615789
0.098624
0.0012967
0.120969
0.0142522
0.011264
0.0147388
0.00286187
0.00937944
0.00128
0.00925583
0.0159206
0.00249151
0.00151956
0.0051231
0.0291504
0.018884
0.00658034
0.00592418
0.114797
0.0099224
0.00583564
0.00471856
0.047206
0.00411172
0.0149852
0.00859082
0.0022406
0.00290708
0.0247693
0.00506915
0.00127644
0.0285135
0.026363
0.00197506
0.00379917
0.0211276
0.0194279
0.0973564
0.00622776
0.0264134
0.00183851
0.00609158
0.0299074
0.142193
0.00570054
0.0145981
0.00284492
0.00128431
0.0648413
0.0665335
0.0123485
0.107519
0.02327
0.0262684
0.024275
0.0151979
0.0599931
0.0183805
0.0390548
0.00960766
0.00304821
0.145775
0.00206147
0.000822234
0.0985836
0.00244931
0.00499572
0.00624463
0.0201014
0.00566549
0.0167805
0.00497589
0.0156942
0.0216869
0.149335
0.00116262
0.0170067
0.00188444
0.0215901
0.0416318
0.0883204
0.00607584
0.0561591
0.0085337
0.0070127
0.00230501
0.0840073
0.00299341
0.00280842
0.00143626
0.0727527
0.0052124
0.00198852
0.00285864
0.00299408
0.0270408
0.0347826
0.00404128
0.0027637
0.00285764
0.0117469
0.003136
0.123734
0.0510814
0.00849057
0.125934
0.0428543
0.00423268
0.15351
0.00462551
0.0599976
0.0013745
0.00214563
0.00215214
0.00137534
0.00141222
0.0383196
0.0971162
0.00236803
0.0746392
0.0659411
0.095912
0.0053135
0.00188667
0.0013925
0.0145706
0.0462937
0.0217025
0.00978548
0.00102743
0.131534
0.00254182
0.0015732
0.132619
0.108648
0.00150836
0.00601368
0.0300605
0.0672712
0.00223102
0.00133407
0.0460821
0.00449991
0.150925
0.00141971
0.00223022
0.0282165
0.00161241
0.001011
0.00231737
0.0640373
0.0452248
0.139788
0.153408
0.00182776
0.0690745
0.00373513
0.00313232
0.0010924
0.0181002
0.00891833
0.00316445
0.0093487
0.00215079
0.00156001
0.122814
0.0216049
0.0217506
0.00435845
0.00185401
0.108175
0.00129922
0.0123904
0.0106693
0.0171307
0.130471
0.00360858
0.0112006
0.00150065
0.131152
0.00839269
0.0304305
0.00332583
0.0251366
0.0015344
0.00243675
0.00367064
0.00521614
0.0480913
0.0141783
0.00578226
0.00335936
0.00169166
0.00198578
0.133312
0.00254233
0.00468314
0.00182986
0.015171
0.010353
0.0114664
0.0459752
0.00216346
0.0920303
0.0143759
0.00129269
0.00180777
0.0025141
0.00177392
0.0156306
0.00812017
0.0690483
0.00151866
0.016003
0.00192341
0.068529
0.0021755
0.0806704
0.0984534
0.0137244
0.00875086
0.00964792
0.0404349
0.00144764
0.0102849
0.0568108
0.0114083
0.00136635
0.00329011
0.0526212
0.00158932
0.0209742
0.0119646
0.015486
0.119049
0.00790863
0.0866786
0.00234545
0.0057211
0.0197098
0.0568836
0.00360382
0.0110948
0.0570952
0.0023892
0.00319386
0.0036959
0.087203
0.00321487
0.0915742
0.00429657
0.0140655
0.00509719
0.00293106
0.00120199
0.0100072
0.00186711
0.00840389
0.0134862
0.0809414
0.00210221
0.0053498
0.00493614
0.00738766
0.156732
0.00151099
0.00532297
0.00350349
0.00333251
0.00202274
0.00129425
0.003011
0.00151483
0.0129043
0.00819562
0.0879755
0.0469568
0.100627
0.00399929
0.0164701
0.0101431
0.00166083
0.0669427
0.113449
0.0111594
0.00496707
0.0187812
0.130311
0.00171809
0.0250297
0.00869162
0.0307386
0.00141385
0.013824
0.0019798
0.00626125
0.0130963
0.00765344
0.0836178
0.00115814
0.00316629
0.00720878
0.0434686
0.104299
0.00123881
0.00111184
0.00160671
0.0508072
0.005368
0.00297119
0.0454123
0.101491
0.045417
0.0018636
0.00340521
0.012131
0.0196518
0.0201186
0.00209265
0.00495461
0.00336409
0.0198052
0.0142989
0.099141
0.00475092
0.00857126
0.0452637
0.00189129
0.00166413
0.00144779
0.00193577
0.00145171
0.00168421
0.00242846
0.0254434
0.0655043
0.00217173
0.0012204
0.0026806
0.0301671
0.0114172
0.0544882
0.0537193
0.0026279
0.00212593
0.00770154
0.055598
0.003254
0.00628311
0.0100397
0.00141244
0.002747
0.00356737
0.116881
0.0016926
0.00263129
0.00345918
0.0142633
0.0107387
0.0411763
0.0827394
0.0116309
0.00993774
0.0204649
0.0113089
0.0171146
0.0152168
0.00330973
0.00136348
0.0141435
0.0106054
0.00144636
0.00350245
0.095729
0.00249678
0.00246318
0.00109361
0.0108377
0.0426317
0.0156495
0.0211181
0.0129782
0.117073
0.0100181
0.0141585
0.00878629
0.00416746
0.155327
0.0234666
0.00126465
0.00189244
0.00171135
0.00307552
0.0049641
0.104014
0.0569848
0.014874
0.0703785
0.00183578
0.0388957
0.156291
0.0849515
0.00187887
0.00209065
0.0284917
0.00851612
0.0156738
0.00972305
0.0155179
0.00769056
0.011662
0.0113682
0.00127417
0.0193535
0.00142236
0.0109607
0.0016134
0.016576
0.146667
0.0800431
0.00513461
0.00462826
0.118436
0.00910134
0.0156898
0.00786107
0.00248961
0.00162227
0.00227331
0.148023
0.0026585
0.0112774
0.0109792
0.0594226
0.00728002
0.0194113
0.00133136
0.00242872
0.0105668
0.0799651
0.00189251
0.0114631
0.00116502
0.00127657
0.00328683
0.0228939
0.00478453
0.00215848
0.00305128
0.00143804
0.00773347
0.0452283
0.0109118
0.0467055
0.00249435
0.0142378
0.0146912
0.00296297
0.00183356
0.0562946
0.0487607
0.0014835
0.0108701
0.00167757
0.00994675
0.0535504
0.010999
0.00309259
0.00815211
0.00272848
0.0109133
0.00283318
0.0185821
0.102405
0.0492772
0.00372311
0.0270336
0.00374336
0.059225
0.0435143
0.0039687
0.0170431
0.0435945
0.0920611
0.0123056
0.00268826
0.0104613
0.0115715
0.0148833
0.00775537
0.0395998
0.00549868
0.0147064
0.0108752
0.00509066
0.0182011
0.00532611
0.0071208
0.0530375
0.00716341
0.00158243
0.00141246
0.0459927
0.00237222
0.00118579
0.049538
0.0246903
0.0025987
0.00134461
0.0137065
0.00137056
0.00330847
0.0466358
0.00633228
0.104042
0.0198651
0.00717677
0.00212523
0.00271498
0.00343588
0.00308876
0.00193676
0.00146745
0.0300873
0.00118678
0.058547
0.00259023
0.00137985
0.0868846
0.128629
0.00139838
0.0416522
0.0822078
0.00312503
0.00191519
0.00446668
0.0191127
0.00126167
0.144715
0.00194611
0.00127797
0.147097
0.00256678
0.00315417
0.001312
0.00134279
0.00140969
0.00132038
0.0744245
0.022656
0.0086569
0.00717115
0.0775109
0.0035233
0.0613919
0.00137324
0.00361144
0.00706876
0.00410024
0.00135656
0.00324264
0.00358745
0.00572278
0.00153398
0.00362291
0.02041
0.101245
0.00256284
0.0102208
0.0749031
0.00195541
0.0505247
0.00252006
0.0398529
0.0017336
0.0252376
0.052317
0.00145715
0.010391
0.00819232
0.00121722
0.00227229
0.0025027
0.0171781
0.00894264
0.0214044
0.0110964
0.00477489
0.0110385
0.116491
0.00236804
0.00835987
0.0112663
0.00130924
0.011054
0.0106606
0.00405408
0.005154
0.00988176
0.0523911
0.00419284
0.0816191
0.00521296
0.00272215
0.00114292
0.0726718
0.0112835
0.000982516
0.031603
0.00796645
0.0154529
0.0108695
0.00212272
0.00736415
0.0211814
0.00191092
0.115629
0.00184138
0.110164
0.0292591
0.00516548
0.00178904
0.0124004
0.00258553
0.00355253
0.0149251
0.0427126
0.00390724
0.0103066
0.00152849
0.0155047
0.00223608
0.00460548
0.0145211
0.0154897
0.00600826
0.0115366
0.00504196
0.0076646
0.0101825
0.021552
0.0440187
0.00270937
0.049118
0.0162754
0.0867618
0.00508577
0.015885
0.00784714
0.00134383
0.024998
0.0046053
0.109923
0.0389899
0.124559
0.0783047
0.0196625
0.0830952
0.00506334
0.00121239
0.00775887
0.00998329
0.0224945
0.0426042
0.00299935
0.038401
0.00227947
0.00239784
0.00140167
0.00479239
0.0120879
0.0183079
0.126996
0.0128831
0.00452354
0.0108259
0.00133967
0.00896733
0.00163684
0.00277641
0.145986
0.111218
0.00146286
0.0515055
0.0155031
0.00552853
0.00342083
0.0275804
0.00167844
0.109642
0.0185654
0.0555988
0.0306029
0.00425506
0.00464602
0.0364647
0.0144551
0.00917794
0.00953954
0.00685616
0.00305601
0.00331895
0.00428509
0.00498478
0.0171523
0.0254402
0.00776676
0.00178959
0.00208419
0.00194557
0.012172
0.00194005
0.00514087
0.0307853
0.0839684
0.00772607
0.0963214
0.0150801
0.00111979
0.0560255
0.0748264
0.00336867
0.00253387
0.00898163
0.00327185
0.0390235
0.00123571
0.0097531
0.00166747
0.0119125
0.0377602
0.00187741
0.00702816
0.0431981
0.00580129
0.135069
0.00485119
0.0155358
0.00638886
0.00200136
0.00938714
0.00225463
0.060613
0.00185182
0.0275758
0.016134
0.025811
0.010172
0.135815
0.00597541
0.00186057
0.00247551
0.00932609
0.0128367
0.00505143
0.050439
0.122591
0.0321561
0.00269907
0.0219728
0.00178308
0.00130649
0.00600068
0.130194
0.00474775
0.00388205
0.00456582
0.012301
0.00125434
0.0494111
0.107773
0.0509563
0.00258935
0.0435606
0.0455361
0.00180513
0.0553494
0.00472893
0.00464102
0.0629999
0.00161704
0.0189949
0.00175523
0.0478978
0.00262529
0.0296312
0.00520325
0.00166235
0.00649789
0.0608039
0.0183451
0.00226634
0.0160336
0.0047846
0.0150062
0.0187659
0.00479323
0.0151501
0.0377603
0.00122862
0.0153694
0.0151912
0.00394538
0.0481042
0.0671596
0.135132
0.0151168
0.0353781
0.0150218
0.00232775
0.000937114
0.00360193
0.00103041
0.00752977
0.0129948
0.0017387
0.00166514
0.0280259
0.000836815
0.002267
0.00137611
0.00286053
0.0144027
0.00218079
0.00139456
0.00177918
0.00279927
0.00190663
0.00773026
0.00501368
0.0133239
0.0201488
0.154887
0.00270743
0.153158
0.00169676
0.00419099
0.00359219
0.110245
0.00637511
0.0073563
0.0238752
0.149185
0.146536
0.00411754
0.0272854
0.0395717
0.0104685
0.00119175
0.0226754
0.00379763
0.112878
0.0039223
0.00589098
0.0339243
0.0162953
0.0849031
0.00169081
0.00191968
0.0043216
0.00187466
0.0120759
0.00529779
0.10671
0.010599
0.156191
0.0342713
0.125988
0.00190691
0.0638031
0.00871925
0.0034081
0.0152079
0.0147586
0.056837
0.00155348
0.00449398
0.00173367
0.00114939
0.00450302
0.00276407
0.00117328
0.00356462
0.00286082
0.00127076
0.00395841
0.00992412
0.00299529
0.00155661
0.0630147
0.00157295
0.0046414
0.0021109
0.125947
0.00742098
0.00200929
0.148623
0.00147026
0.0168756
0.000962949
0.132174
0.0436907
0.00683749
0.00346028
0.018875
0.00712478
0.0621523
0.044981
0.00130891
0.00222337
0.0016954
0.0080635
0.0425644
0.0290511
0.116653
0.0100332
0.00234893
0.0019142
0.00277252
0.00336767
0.0118434
0.11903
0.130593
0.00126618
0.00140418
0.00417832
0.0153004
0.0196422
0.00549588
0.0015122
0.00155439
0.0828358
0.0644539
0.00145957
0.0252748
0.00343133
0.0141493
0.0374216
0.0147887
0.00846103
0.00136544
0.00122558
0.141339
0.0698782
0.0193407
0.00249417
0.00179016
0.140992
0.00487488
0.00134631
0.114909
0.00264786
0.00191271
0.00178447
0.0716221
0.00157403
0.00145531
0.00886774
0.0030033
0.020818
0.00262003
0.0033226
0.0214292
0.058577
0.00147215
0.00274144
0.128739
0.00436097
0.00476656
0.0158568
0.00423054
0.00127068
0.00160937
0.00171317
0.0159687
0.0241462
0.0316806
0.00159449
0.00146271
0.00141071
0.00122135
0.00126716
0.0752046
0.00835317
0.12727
0.124521
0.0158878
0.0816432
0.0541576
0.153612
0.00185195
0.00163113
0.000995085
0.00656556
0.00414422
0.009236
0.0670959
0.118822
0.00123635
0.0933723
0.00090931
0.00189872
0.10625
0.0529246
0.00141975
0.0290372
0.00371542
0.0195497
0.0972912
0.0866729
0.00119624
0.0898261
0.00123473
0.00133928
0.106955
0.0102132
0.0504792
0.0313673
0.0456154
0.00528194
0.00247743
0.0825352
0.00175233
0.0028682
0.0221767
0.0535747
0.0258998
0.0254239
0.13471
0.00351225
0.00132417
0.00113514
0.0103297
0.00160537
0.142652
0.0212876
0.0319601
0.00442573
0.0210431
0.00222755
0.11559
0.00132907
0.00308707
0.00157827
0.00427423
0.116807
0.0106655
0.0433838
0.00131331
0.164339
0.0149559
0.0172976
0.0211135
0.030702
0.144227
0.0102363
0.001725
0.0214743
0.0296248
0.02926
0.0106189
0.00366066
0.137455
0.00152464
0.00186321
0.0250074
0.001858
0.00145843
0.00244923
0.00205374
0.116031
0.0241025
0.00239284
0.00175398
0.0050158
0.00190463
0.00185
0.0146253
0.00877354
0.0146151
0.00123555
0.0638553
0.123205
0.00204624
0.00508723
0.00181675
0.0223553
0.151187
0.0686274
0.00131681
0.00632246
0.162678
0.00461266
0.0452739
0.00705444
0.0153218
0.0163445
0.0462926
0.120354
0.0880967
0.0191789
0.00245584
0.00176345
0.105702
0.0583869
0.00152799
0.0417227
0.00586208
0.0160563
0.0165206
0.011011
0.148865
0.00124366
0.015483
0.0169463
0.000951975
0.00652386
0.0224992
0.0134568
0.0368463
0.0296664
0.00165867
0.00271617
0.00139564
0.0336353
0.103174
0.00866247
0.0143413
0.0675394
0.0112098
0.00152889
0.0169907
0.00997071
0.0156617
0.00500086
0.0674945
0.0734677
0.00140356
0.00244209
0.00234271
0.0511557
0.00450328
0.0755557
0.054236
0.00522961
0.00183954
0.00651191
0.0157807
0.00447292
0.0331724
0.0148596