/*--------------------------------*- C++ -*----------------------------------*\
| =========                 |                                                 |
| \\      /  F ield         | OpenFOAM: The Open Source CFD Toolbox           |
|  \\    /   O peration     | Version:  v2012                                 |
|   \\  /    A nd           | Website:  www.openfoam.com                      |
|    \\/     M anipulation  |                                                 |
\*---------------------------------------------------------------------------*/
FoamFile
{
    version     2.0;
    format      ascii;
    class       volVectorField;
    location    "150";
    object      ddt0(U);
}
// * * * * * * * * * * * * * * * * * * * * * * * * * * * * * * * * * * * * * //

dimensions      [0 1 -2 0 0 0 0];


internalField   nonuniform List<vector> 
13851
(
(0.0063438 -0.00274753 -2.03492e-17)
(-0.000207318 -0.000118241 7.46929e-18)
(-0.000213298 -0.000117239 -6.22075e-18)
(-0.00712562 -0.000950606 -1.64548e-17)
(-0.000304966 -5.14715e-06 8.59431e-19)
(-0.00026858 -2.44196e-05 -5.33979e-18)
(-0.000194227 0.000293962 -8.62325e-18)
(-0.000599205 4.49383e-06 -5.22126e-20)
(-0.0213197 -0.000166618 3.74954e-18)
(-6.6779e-05 0.000101978 2.31886e-18)
(-0.000322584 0.00134677 2.53314e-17)
(-0.000149329 -0.000111143 -4.15696e-18)
(-5.83863e-05 0.0001121 1.93036e-18)
(-0.0265203 -0.000680216 8.12521e-18)
(0.000244061 -0.000254085 -2.54089e-17)
(-0.00756391 0.00609388 -3.1489e-18)
(-0.0132822 3.90728e-05 1.67365e-17)
(-0.000253403 0.000111741 4.05245e-18)
(-0.0106813 -0.002566 -1.68872e-17)
(0.00587242 -0.0031146 1.69888e-17)
(0.000184966 -0.000658711 2.60721e-17)
(-8.36298e-05 0.000365275 -7.52823e-19)
(-0.0146074 0.00409858 3.35221e-17)
(-6.06827e-05 1.23575e-05 2.09997e-18)
(0.0201726 -0.00313943 3.24305e-17)
(-0.00180045 0.00128976 2.01116e-17)
(0.00770859 0.00921405 2.01526e-18)
(-0.00666575 -0.0317419 -1.08342e-17)
(-0.00210594 0.0139018 6.6263e-18)
(-0.000317467 9.95178e-05 -4.67764e-19)
(-0.00153984 -0.00812153 -1.66338e-17)
(-0.000175893 0.000267371 7.55936e-18)
(0.00612902 -0.000460316 3.23186e-17)
(-0.0160789 -0.00701088 -2.08788e-17)
(-0.000441707 0.000623371 1.62645e-17)
(0.00486594 0.0133875 -2.90872e-18)
(-2.74513e-05 1.1422e-05 -2.08722e-18)
(-0.0138429 -0.0105638 3.62059e-18)
(0.00481599 0.0039939 1.7769e-17)
(-0.000128334 -0.000101006 -9.99359e-19)
(0.0026956 -0.0138199 4.82688e-17)
(-0.000348495 0.0155347 3.91625e-18)
(-0.00356751 -0.000489972 -1.20614e-17)
(-5.64004e-05 -0.00294164 2.77544e-17)
(-0.00578287 0.0159325 -3.02911e-18)
(-0.000205016 -8.41992e-05 1.28936e-20)
(-0.000644229 7.11017e-06 -1.54092e-19)
(-0.00150871 0.00774413 4.78803e-18)
(-0.00016904 0.000294467 -3.10192e-18)
(-2.28221e-05 0.000122227 -8.41901e-19)
(0.0138536 0.00114651 8.59753e-18)
(-4.24742e-05 6.735e-05 -7.20931e-18)
(-0.00681352 0.00616929 -6.95328e-18)
(-7.99832e-05 0.00027903 1.49116e-18)
(-0.0288084 0.000602786 1.39793e-17)
(-0.000131189 -0.000104579 -2.02926e-18)
(0.00657711 -0.000771876 -3.96111e-17)
(0.00451242 -0.0126695 -4.0033e-17)
(0.0033236 0.0198867 5.80524e-18)
(-0.00961648 -0.00233717 -5.4203e-18)
(-0.000155214 -0.00011858 -4.69029e-19)
(0.00727644 0.00915065 4.00675e-18)
(-3.25627e-05 -0.000198937 5.69025e-18)
(-0.000171922 0.000310558 3.0638e-18)
(-0.000829667 -0.000303249 3.10195e-18)
(-0.000988467 -0.000205425 -8.96065e-19)
(-0.0102378 -0.00175236 1.36135e-17)
(-3.54808e-05 0.000415322 -7.32789e-17)
(-0.000143787 4.17449e-05 -2.50121e-19)
(-0.0045499 0.00353378 1.4085e-16)
(-0.0113312 -0.00428733 -8.48053e-17)
(0.000283087 -0.00109081 8.83677e-18)
(-0.000114892 7.29153e-05 -6.83074e-19)
(-0.0116627 -0.00203633 1.70635e-18)
(-2.27248e-05 0.000230528 7.00185e-18)
(-9.59321e-05 0.000233094 2.11064e-19)
(-0.0133267 9.29429e-05 -4.2766e-18)
(-0.000414642 2.33827e-05 -1.49687e-18)
(0.0087632 -0.0070807 -4.42377e-17)
(-0.00019304 0.000122206 9.30553e-19)
(-0.000155556 6.27731e-05 2.47193e-19)
(-0.00107654 0.0134203 -1.12246e-17)
(-0.000389513 0.000612281 -2.6316e-17)
(-0.0251048 -0.00112063 -2.75549e-17)
(-0.0109135 -0.00243388 -7.51726e-18)
(-0.00557212 -0.00759818 1.48143e-17)
(-8.35847e-05 0.000372978 -5.09381e-18)
(-0.00492488 0.00307699 4.36933e-18)
(-8.33923e-05 0.000146256 -6.48094e-18)
(-0.000708064 -0.00755975 1.79344e-17)
(-1.69786e-05 6.03791e-05 8.33251e-18)
(-0.000166098 0.000259127 -7.25335e-18)
(0.00581628 0.000309484 7.85976e-17)
(-0.00499658 -0.00651033 3.65505e-18)
(0.00699781 0.00340569 -3.99998e-17)
(0.000590716 -0.00186346 -2.65622e-18)
(-0.000182699 -7.21478e-05 2.09023e-21)
(-0.00425595 0.00801097 -1.00219e-17)
(0.017768 -0.000433571 -1.76279e-17)
(0.00175462 -0.000424477 -3.24364e-18)
(-0.0037574 0.00878201 -1.5519e-18)
(-6.97961e-05 0.00026926 -4.42469e-17)
(-9.14428e-05 0.00026951 3.73507e-17)
(-7.31795e-05 2.96454e-05 4.64878e-20)
(-0.000202122 -3.77539e-05 -1.52821e-20)
(-0.000401655 -0.00101695 -1.32925e-17)
(-0.000201888 -4.80707e-05 -9.46059e-20)
(-0.0103572 -0.00541632 6.40453e-17)
(-0.000159482 0.000234024 -4.22395e-19)
(-0.000268817 0.000111358 -1.56086e-18)
(3.29196e-05 0.00034706 -1.93488e-18)
(-0.000198964 -8.08611e-05 -3.205e-19)
(-0.00482323 -0.000845439 1.42029e-18)
(-0.00164922 0.000136175 1.73798e-17)
(0.00527969 0.00304911 2.6087e-18)
(-7.64957e-05 0.000273825 -6.64541e-19)
(-0.000356233 -4.98942e-07 -4.2016e-20)
(-0.000608543 6.02487e-06 -5.91899e-20)
(-0.00630383 -0.000963435 3.24196e-17)
(-0.00582576 0.00452197 -1.21694e-16)
(0.00136089 -0.000679757 7.17582e-18)
(-0.000278437 0.000126892 1.2849e-18)
(-0.000136473 -3.05379e-05 -7.47563e-19)
(-0.011678 -0.00535576 1.61525e-17)
(-0.00508382 -0.0126011 1.52629e-17)
(-0.000174486 0.000688653 4.7085e-17)
(-0.000186897 -6.70905e-05 -1.79037e-18)
(0.000399819 0.000723649 -6.85496e-18)
(-0.00918097 -0.00966664 2.78377e-18)
(0.000588116 -0.000508095 2.24733e-17)
(-7.04516e-05 0.000358453 1.61325e-18)
(-0.000348179 0.000261151 1.03746e-17)
(0.0064273 -0.0121603 5.53072e-18)
(-0.0149073 -0.00667116 2.06762e-17)
(-0.00045078 0.00144531 -4.1364e-17)
(0.00576799 0.00413478 2.20398e-19)
(-2.53966e-05 0.000425239 -3.34503e-17)
(-0.00695642 -0.00674463 -1.98988e-17)
(-2.65649e-05 0.000187653 5.13116e-18)
(0.000620911 -0.000225963 1.17931e-18)
(0.000195 0.012213 1.36882e-17)
(-5.25035e-05 -0.000127294 3.34139e-18)
(-7.03679e-05 0.000166152 7.49368e-18)
(-0.00040554 0.000335545 -5.98171e-17)
(0.00556649 -0.00968465 -2.53472e-17)
(-6.9555e-05 0.000131756 1.89958e-18)
(-0.000409704 1.52442e-05 3.50684e-19)
(-0.00350229 -0.00664003 -6.03697e-17)
(-0.0208115 0.00650769 -3.67562e-18)
(0.000454489 0.00074267 -1.17668e-18)
(-0.00292611 0.00869376 -1.88138e-18)
(-0.00479568 -0.000568651 5.98415e-18)
(-0.00180784 0.000157851 -3.46464e-17)
(-0.00807631 -0.00543966 -1.82826e-17)
(-3.31798e-05 -3.84826e-05 1.08899e-17)
(-4.22177e-05 0.000209335 -1.19592e-18)
(-0.000155962 -0.000101664 2.38069e-18)
(0.00441352 0.00404444 -1.67155e-17)
(0.000469782 -0.000260557 -7.42374e-18)
(-0.00016791 3.1412e-05 -1.31261e-17)
(-8.72968e-05 2.41848e-05 5.35507e-19)
(0.000841873 0.0137997 4.01818e-18)
(-0.000303383 -0.000970234 9.76599e-18)
(-0.00088502 0.00755081 -3.96894e-18)
(-0.0269509 -0.000923184 -4.01135e-18)
(-0.017015 0.00256319 -3.31111e-18)
(-0.015639 0.00171816 -4.36493e-19)
(0.0133128 0.00142022 -1.46167e-17)
(1.90541e-05 0.000350499 4.76769e-20)
(-0.00032434 -0.00579977 1.85824e-17)
(-0.000151369 -0.000121049 1.11388e-18)
(-0.000388508 7.70131e-08 3.00943e-20)
(-0.000961013 -0.00128374 -4.02133e-18)
(-0.000259201 -1.08857e-06 -2.16227e-19)
(0.0061298 0.00533157 4.30603e-17)
(0.00977493 0.00681502 -1.45981e-17)
(0.00187518 0.0088084 2.58128e-18)
(-0.000391551 1.6727e-05 6.07195e-19)
(-4.7309e-05 0.000264827 -5.99225e-18)
(0.001196 0.00855134 1.13372e-17)
(-0.00338564 -0.0121376 -3.11957e-17)
(0.000573527 -0.00273655 -8.10646e-18)
(-8.94416e-07 0.000366644 5.06735e-19)
(0.000565314 -0.000421627 -1.53454e-17)
(-0.00996903 5.69146e-05 -2.34417e-17)
(-0.019954 0.00729434 4.08678e-18)
(0.00638785 0.00030558 -1.97734e-17)
(-7.36314e-06 9.59262e-05 1.29018e-17)
(-4.49039e-05 2.50398e-05 7.44192e-18)
(-0.000255549 2.4622e-05 -4.69482e-20)
(0.00269816 -0.0108794 2.09781e-17)
(0.000452902 -0.000331839 6.29286e-18)
(-0.0265701 -0.000311892 -7.98776e-19)
(-0.000274594 -5.64839e-05 7.44205e-18)
(-7.90771e-05 0.000132548 2.79382e-19)
(-0.0055946 0.00721704 5.28968e-19)
(0.00600237 0.000485916 8.23847e-18)
(-0.000243228 -9.6679e-05 -2.65862e-18)
(-0.000232059 0.000160382 3.43171e-18)
(-9.34218e-05 0.000447693 -5.60894e-18)
(0.00349358 0.0112054 3.09677e-17)
(0.0148969 0.00281538 -2.43721e-17)
(0.00876764 -0.0111502 4.27909e-17)
(0.000240616 -0.000188362 1.36291e-17)
(-0.00425848 -0.000226491 2.41196e-17)
(0.0164833 0.00228894 9.2268e-18)
(3.26597e-06 -0.000129 1.01082e-17)
(0.000514603 0.000279998 7.49453e-18)
(-0.0200557 -0.00140544 1.65822e-17)
(-0.000258466 9.29915e-05 -2.60113e-18)
(-0.00851787 0.00482336 1.27287e-17)
(-0.00013549 -3.82705e-05 1.85759e-18)
(0.00252536 0.0128585 -4.16899e-17)
(-4.71374e-05 0.00010508 1.76135e-18)
(-0.000547218 0.000552056 -7.31877e-18)
(-7.52133e-05 0.000277092 5.81853e-19)
(-3.05468e-05 0.000135603 3.68292e-18)
(0.0107088 -0.00773562 -3.15631e-17)
(-0.000237968 6.3969e-06 -5.21407e-18)
(-7.84755e-06 0.00118125 3.57281e-17)
(-0.000382808 2.06503e-05 -4.54553e-19)
(0.00526374 -0.00422578 -3.46575e-18)
(-0.0250042 -0.000690816 2.22281e-17)
(0.00614433 0.00446825 -5.68012e-17)
(-9.06868e-06 8.01938e-05 -1.56564e-17)
(0.00047803 0.000330921 -4.02614e-18)
(-4.65952e-05 7.383e-05 -1.33704e-18)
(-0.000345987 0.000338482 -3.91588e-18)
(-0.00014847 7.5659e-05 -7.41193e-19)
(-0.000494243 0.00054596 4.06687e-18)
(-0.00770211 -0.00503115 -6.58482e-18)
(-1.1841e-05 8.35372e-05 6.41439e-18)
(-0.000263722 7.18659e-05 1.04349e-18)
(-1.49141e-05 -0.000183384 4.2496e-22)
(0.00852493 -0.0108717 -1.14943e-17)
(-0.000322186 0.000104753 -3.48197e-19)
(-0.0122331 0.00523495 4.21299e-17)
(0.0110028 -0.00960364 -4.61131e-17)
(0.00173585 -0.000104601 3.47215e-17)
(-5.18426e-05 2.4448e-05 -1.16197e-18)
(-0.00201145 0.00612261 -3.4151e-18)
(-0.0176619 -0.00306622 -7.17146e-19)
(-0.00285831 0.0174661 5.17401e-18)
(-0.00777466 0.00498594 -8.04809e-18)
(-0.00018771 -0.000448487 1.55154e-17)
(-0.000489749 0.000412214 -1.1044e-18)
(0.00905114 -0.00700944 -1.81906e-17)
(-6.60964e-05 0.000276415 1.52089e-18)
(0.000798327 -0.00162779 -5.57571e-18)
(5.03563e-05 0.000395063 -4.95713e-18)
(-0.0210711 0.00228162 3.64806e-18)
(-0.00137708 -0.00614421 5.69192e-18)
(-0.000541828 -8.21862e-06 3.99492e-20)
(-0.000176209 -0.00021193 2.70799e-19)
(-0.00510713 0.0081407 1.55614e-17)
(0.00123408 0.0127476 -5.57012e-18)
(0.0120877 0.00312795 -5.2952e-18)
(-0.000292034 1.36585e-05 4.44323e-19)
(-0.000125824 0.00068193 -5.20205e-17)
(-6.55932e-05 0.000146696 -4.8436e-19)
(0.00927835 0.00116822 -1.26648e-17)
(-0.00660092 -0.00980487 4.37909e-18)
(-0.000166506 -0.000229788 9.15723e-18)
(-0.000199922 -0.00104174 1.43485e-17)
(-0.00203014 -0.00632301 -5.6561e-18)
(-0.000116597 8.80139e-05 -3.62845e-19)
(-7.19265e-05 0.000272003 4.28148e-17)
(-0.000283367 0.00586666 3.50038e-18)
(0.00182158 -0.0325835 3.64656e-17)
(-9.39778e-05 -0.000158189 -1.822e-18)
(-1.61722e-05 0.000148708 -2.82508e-18)
(1.36892e-06 8.00639e-05 9.19467e-18)
(-0.0116949 -0.00311257 1.95497e-18)
(-0.00633671 0.000350617 1.66981e-16)
(0.000344633 -0.000761608 2.47603e-17)
(-0.000279926 0.000124662 -5.67695e-19)
(-0.00233471 -0.0135908 7.69944e-18)
(-0.00766885 -0.00760712 -9.88287e-18)
(0.00484592 0.00165639 -1.05349e-17)
(-0.000110019 -0.000986834 -1.542e-17)
(-0.0136126 -0.00322251 -8.71943e-19)
(0.0126874 -0.0016365 4.36318e-17)
(-0.000194406 -0.000213269 2.49257e-18)
(0.000133561 -0.000199921 3.37761e-17)
(-0.0173492 -0.0126734 -1.33949e-17)
(-0.000225571 2.44397e-05 1.54599e-19)
(-0.00015771 -9.62517e-05 5.58204e-19)
(0.0052752 0.00144058 -1.69343e-18)
(2.77718e-07 0.0010695 1.03552e-20)
(-0.000313024 0.000111899 4.30013e-20)
(-8.54115e-05 9.86756e-05 1.93486e-18)
(-0.000153828 8.67227e-05 7.11122e-19)
(-0.00040528 3.79226e-06 4.64843e-19)
(-5.83621e-05 -0.000391458 6.58807e-18)
(-0.000156226 -0.000102369 -1.12438e-18)
(-0.0198956 -0.000760043 -7.87061e-18)
(0.00023142 -0.000734919 -1.63554e-17)
(-0.000144077 -9.33463e-05 6.60882e-19)
(0.00268947 0.0125417 3.4679e-18)
(-0.0126197 -0.00495891 5.20806e-18)
(-5.49551e-05 2.64573e-05 2.29818e-18)
(0.00594426 -0.00397605 6.2599e-18)
(0.0177519 0.000504674 -5.64285e-17)
(-4.43415e-05 -0.000125446 -1.76561e-18)
(-3.06233e-05 2.71734e-05 5.86759e-21)
(0.000212937 -0.000821467 -3.79864e-19)
(-0.0224008 -0.00123034 -7.08078e-18)
(-0.00451215 0.00970783 6.39989e-17)
(-0.000649915 -0.00190108 1.853e-17)
(-0.000318775 -7.11069e-06 1.06698e-18)
(-0.000866943 -0.00830963 -1.07363e-17)
(-0.000145866 -0.000123268 8.88726e-19)
(-0.000967192 -0.00207155 9.41256e-18)
(0.0173923 0.000812134 4.01748e-17)
(0.00683318 -0.0295988 1.20112e-17)
(-0.000171278 2.78488e-05 -9.45915e-18)
(-0.0149826 -0.013921 -1.17975e-17)
(0.0153158 -0.0108323 -2.08154e-17)
(-0.0136791 -0.00219499 -1.73489e-17)
(-0.0049952 6.32259e-05 -1.21528e-17)
(-3.0795e-05 0.000308418 3.60158e-17)
(0.00487903 0.00448941 4.63723e-17)
(-0.0100237 -0.00692262 2.6317e-18)
(-0.0057794 -0.0296453 3.09071e-17)
(-0.000226325 0.000159886 3.17291e-18)
(-0.00821874 -0.00278592 -3.33135e-17)
(-0.00450195 0.00112897 4.27367e-18)
(-0.000379613 0.00105758 8.09943e-18)
(-0.000433481 0.00105419 1.63469e-17)
(-3.64606e-06 -0.000136843 -1.59426e-17)
(-0.00101836 -0.0015664 1.77939e-17)
(-4.94863e-06 0.000160462 5.12591e-18)
(-0.00391535 0.00354308 3.63308e-18)
(-8.46956e-05 0.00031315 -2.12981e-17)
(-0.000513558 -6.31921e-07 7.76864e-20)
(-0.000667728 5.10761e-06 -7.36896e-19)
(-0.000173149 0.000382671 -2.47874e-18)
(-0.0131962 -0.00226608 -2.40258e-17)
(-6.69595e-05 0.0011991 -8.23582e-17)
(-0.000225408 2.58613e-05 -3.32405e-19)
(0.00735835 0.00381874 4.70445e-17)
(-1.26583e-05 0.000151556 -1.00376e-18)
(-0.000358028 0.000299163 -1.53302e-17)
(-0.000170931 5.49091e-05 1.42392e-18)
(-0.0230407 -0.000694606 2.3663e-18)
(-0.000870095 -0.0131158 -1.16825e-17)
(-0.0064831 0.00721783 4.49662e-18)
(-8.26736e-05 0.000266591 1.64755e-19)
(-0.000251958 7.18175e-05 -5.71755e-18)
(0.0132021 0.00879992 5.40675e-18)
(-8.71326e-05 2.04285e-05 -2.98426e-18)
(-0.00877836 -0.00671824 2.02509e-17)
(-0.000195373 -0.000210814 5.95482e-19)
(0.000158424 -0.000876831 -1.40051e-18)
(-8.55333e-06 0.000153499 -2.51388e-20)
(-7.21678e-05 0.00016065 1.15988e-18)
(-0.000156862 -9.111e-05 4.24069e-19)
(-0.00145407 0.00544196 2.15147e-17)
(0.00218081 -0.000715214 -1.48394e-17)
(-0.000320066 -0.00656386 -9.12045e-18)
(0.0118351 -0.0147896 -5.51803e-17)
(0.0133179 0.00953604 -1.24289e-17)
(-7.19291e-05 0.000139219 -4.09867e-18)
(0.0107104 -0.00971885 -1.19765e-17)
(0.0119841 0.000518105 2.89555e-17)
(-0.000334888 -2.10417e-05 -5.17646e-19)
(0.00396844 -0.0288091 -1.58238e-17)
(0.0027741 -0.00250913 2.07086e-17)
(0.0181428 -0.000375015 3.61878e-18)
(-0.000181204 0.000368786 1.48455e-18)
(-0.00280669 0.00033749 -3.39136e-18)
(0.00212778 0.0182447 1.52164e-18)
(0.0180234 0.0301005 -5.17126e-18)
(-0.000232069 0.00483108 -3.20356e-17)
(-0.00891993 0.0038085 -4.14108e-18)
(-0.000207907 0.000219093 -1.67107e-18)
(0.0116011 0.0073852 1.68925e-17)
(-0.00504327 -0.000762206 -7.45515e-17)
(-0.000305791 -0.000286395 -1.57738e-18)
(-0.0211233 0.00323632 8.55486e-18)
(-0.000375933 -0.000315323 -7.36277e-18)
(0.0117518 -0.0087632 8.43462e-18)
(0.00012098 -0.000218386 -9.85802e-18)
(-0.000285571 0.000189811 8.76676e-18)
(-0.00269025 -0.00525091 1.74437e-17)
(0.00500062 -0.000596506 2.63512e-17)
(-4.7621e-05 0.000199883 1.03148e-18)
(-0.000243353 -0.000153766 2.18989e-18)
(2.97885e-05 0.00117768 1.66351e-17)
(-3.7438e-05 0.00025524 5.10976e-18)
(-0.00020678 -9.40961e-05 1.0619e-19)
(0.000426529 -0.000768066 -1.39768e-17)
(-0.0275868 -0.00565645 2.18772e-17)
(-0.000107881 7.27618e-05 1.64952e-18)
(0.000567495 0.000211165 7.03847e-18)
(-0.00399753 -0.0022143 -2.54054e-17)
(-0.000242177 8.88157e-05 -1.1993e-17)
(0.00269921 -0.00620597 -1.50747e-17)
(-0.000282667 0.00060172 -4.99497e-18)
(-0.00123295 0.0122738 -4.22494e-17)
(-0.000272644 9.39806e-05 -7.37009e-19)
(-0.00158699 0.00113136 8.70127e-18)
(-0.00288017 -0.000341347 -1.80687e-17)
(-0.00661385 -0.0111157 1.92257e-17)
(-0.000525627 -0.000918942 -1.0262e-17)
(0.0120401 0.00243964 7.47551e-18)
(-0.01394 -0.00378446 1.36655e-17)
(-0.000526121 0.00489257 7.59552e-18)
(-0.000133024 9.71949e-05 1.69922e-18)
(-0.00189734 0.00500477 -2.0882e-17)
(-0.00044725 -0.000234811 2.88307e-17)
(-0.00254328 0.000630671 -5.49319e-18)
(-0.000263361 0.000147812 -2.68545e-18)
(-0.00712036 -0.000567317 9.58895e-20)
(-0.0240513 -0.0164387 1.74085e-18)
(0.0179346 0.0246815 1.33767e-17)
(-0.000249255 5.53488e-05 8.21666e-18)
(-0.00264046 -0.00573488 -1.4849e-17)
(0.00673878 0.00714843 1.74636e-17)
(-0.00648394 -2.00675e-05 -1.68739e-16)
(-0.000389573 -4.4227e-05 -1.94125e-20)
(-0.00913734 -0.00195092 -3.68166e-17)
(0.00724464 0.000806728 3.60118e-19)
(-0.00320432 0.0036851 1.81875e-17)
(6.28591e-05 0.000398186 1.70778e-19)
(0.00126237 0.00463209 6.524e-17)
(-7.38081e-05 0.000198902 -2.35855e-18)
(-0.000264937 -9.00006e-07 3.29439e-19)
(-0.028905 0.000586596 -3.03718e-17)
(0.00671991 0.0067032 6.5799e-18)
(-4.05615e-05 0.000125406 4.70805e-18)
(-0.000226804 -0.000107241 1.0962e-18)
(0.000613914 0.000163666 -1.34462e-17)
(-0.000364098 -4.1967e-05 -3.96051e-19)
(-0.0238424 -0.0177198 2.62975e-18)
(-0.000944952 -0.00170718 -1.83392e-19)
(0.00246196 -0.00250331 -2.95684e-17)
(-0.000116063 -9.28201e-05 2.32411e-18)
(-0.00021184 0.000211511 -4.26971e-18)
(-5.42091e-06 7.90089e-05 1.44288e-18)
(0.0129673 0.029011 -3.9933e-18)
(-0.000143492 -9.73505e-05 1.58079e-19)
(7.07561e-06 0.000100666 -1.09231e-18)
(0.0213467 0.026768 3.66731e-18)
(-0.027539 -0.0066156 -2.2362e-17)
(-7.11483e-05 0.000338409 -6.75221e-19)
(0.00272845 0.0156124 6.71554e-18)
(-1.69129e-07 -0.000196499 -4.96711e-18)
(-0.000173108 -9.5697e-05 3.12289e-19)
(-0.000245028 8.29809e-05 1.22552e-17)
(-0.00089163 -0.00682293 1.16622e-17)
(-0.000398091 0.000466886 -4.62766e-18)
(-0.0001682 -9.73726e-05 9.39638e-19)
(-0.000226357 6.61929e-05 4.095e-18)
(0.00134177 -0.000499776 -8.31566e-18)
(-0.000204825 -0.000120876 7.74787e-18)
(-0.00705397 -0.000892285 -3.45628e-18)
(-0.00016194 -0.000107531 -2.8788e-18)
(-6.34896e-05 0.000113563 -7.47687e-20)
(-0.00632287 0.015563 -6.91134e-18)
(-2.4252e-06 0.000189892 -8.31461e-18)
(-0.000602057 -1.02323e-05 -1.48137e-18)
(-0.00014485 -0.000111799 2.49445e-18)
(-0.000103688 -0.000106966 -1.80621e-18)
(-0.000228148 -0.000101651 -5.21919e-18)
(0.00466644 0.00304047 1.68266e-18)
(0.0239556 0.0237054 5.05058e-19)
(-0.000186455 -0.000483221 -1.18496e-17)
(-3.02835e-05 0.00295458 1.13329e-17)
(-0.000252711 5.40164e-05 2.26606e-18)
(-0.000133428 -7.35206e-05 -2.28526e-18)
(-0.0135451 -0.00596964 5.46497e-18)
(0.00329195 0.0170369 1.18962e-17)
(-4.7945e-05 0.000187865 1.64978e-18)
(-0.000106355 -2.60508e-07 -1.08167e-19)
(-0.0112422 -0.00606116 -1.75686e-17)
(-3.60477e-05 0.000239601 -2.54258e-18)
(-0.01148 0.00339168 -1.46714e-17)
(-7.67361e-05 4.00321e-05 2.08615e-18)
(-0.000372157 0.000195802 -9.45034e-18)
(-0.000591173 0.00531335 3.70664e-17)
(7.00589e-05 0.000200015 -1.03409e-18)
(-0.00981343 -0.00779771 -1.24309e-17)
(0.00700915 0.0072654 -1.9985e-17)
(0.00855981 0.0279741 -2.07166e-17)
(-4.16125e-05 -6.98021e-06 3.86795e-18)
(-0.00508014 -0.000274745 8.3303e-18)
(-0.000144664 4.70707e-05 5.01105e-19)
(-0.00158723 0.0130834 2.62103e-18)
(-0.000192433 0.000577199 5.90371e-18)
(0.00599415 0.000861172 -1.52769e-17)
(-0.000413558 -0.000249801 -2.25585e-17)
(-9.22395e-05 0.000256577 -1.84329e-19)
(-3.45803e-07 0.000187544 1.74925e-17)
(-0.000906318 -0.00143261 3.00441e-18)
(-0.000289046 -5.5179e-06 3.51778e-19)
(-0.00376086 0.00111129 3.9019e-18)
(-0.0135419 -0.00587453 -5.28661e-18)
(-0.00640757 -0.00341003 -5.29626e-17)
(0.00467906 0.000720392 4.38462e-17)
(0.0229377 0.0251529 -4.4725e-18)
(-0.00237204 0.00340868 5.97977e-17)
(-0.00811114 -0.00897709 -7.81393e-18)
(-1.75857e-05 8.57087e-05 2.54997e-18)
(-5.86301e-05 0.000134506 2.33602e-18)
(-0.00241564 -0.00181836 -5.67517e-17)
(-3.25186e-05 8.58078e-05 -3.60584e-18)
(-0.000185228 -9.08051e-05 4.07084e-20)
(-2.27355e-05 0.000125404 2.69927e-18)
(0.0070274 0.00564351 -5.40763e-17)
(-0.000191217 -0.000145673 -3.78614e-18)
(-4.51652e-05 -0.000130585 -1.57199e-18)
(0.000621667 -4.87888e-05 2.2414e-17)
(-0.000967373 -0.000371371 3.40162e-19)
(-1.49092e-05 8.67582e-05 -7.24269e-18)
(0.0232255 -0.00544896 2.03301e-17)
(-0.000181518 -3.89202e-05 -7.13518e-19)
(-0.0117516 -0.0084338 2.77716e-18)
(0.00335163 0.00324756 -2.42333e-17)
(-0.000196408 0.000103545 -4.76426e-19)
(-0.00015779 -0.000113139 5.3842e-18)
(0.00735929 0.00636942 -5.62903e-18)
(-0.00084794 -0.0325817 -1.03908e-17)
(-0.000309917 0.000110669 -9.31658e-19)
(-0.00649763 -0.00171133 3.20927e-17)
(-0.0118291 -0.00867024 3.70782e-17)
(-0.000328596 -2.2573e-05 1.53489e-18)
(-0.00624584 0.00886893 -1.45507e-17)
(-0.0103118 -0.0040125 1.5768e-17)
(0.00440355 -0.00515687 -6.1231e-18)
(-3.67496e-05 -1.67778e-05 -4.926e-18)
(0.0188332 0.0278751 2.00019e-18)
(0.00400375 -0.0031294 5.48527e-17)
(-0.00030656 -2.39581e-05 -6.05594e-19)
(-0.00468767 -0.00262664 -2.53895e-17)
(-0.000138745 7.42029e-06 6.98115e-20)
(-0.000172511 -5.86727e-05 -8.62586e-19)
(0.0247655 0.0115333 2.23145e-17)
(0.0122281 -0.00819616 -5.66252e-18)
(-0.000603367 -0.000318572 -4.40729e-18)
(-0.000390433 0.000419559 2.17744e-18)
(-2.62629e-05 5.26431e-05 -7.25315e-18)
(-0.000416241 0.00130254 1.34528e-17)
(-0.0104712 -0.00953409 1.48792e-17)
(0.00444975 0.0035896 -5.72157e-18)
(-0.000284522 -7.49895e-05 -2.34831e-18)
(-0.0107949 0.0019219 2.34554e-17)
(-0.000197162 -9.16759e-05 -1.46892e-18)
(-0.00013711 2.97172e-05 9.58643e-20)
(-0.000505817 -0.000997244 4.8334e-18)
(-9.57986e-05 0.000219547 1.21923e-17)
(-0.000380324 -3.66743e-05 -3.20841e-19)
(-9.09479e-05 0.000215059 -3.03013e-19)
(-0.00394473 0.00887599 2.91183e-17)
(0.00481403 -5.52042e-05 -6.65167e-17)
(-0.00560718 0.0081345 1.75368e-18)
(-0.000197312 -0.000135921 1.27408e-18)
(-7.43962e-05 0.000159991 1.05264e-18)
(-0.0112383 -0.00275921 6.87064e-18)
(-9.18753e-05 4.66679e-05 4.48437e-18)
(-0.00303983 0.00457327 -2.107e-17)
(-4.01567e-05 -1.5882e-05 1.09458e-17)
(8.31008e-06 0.000187945 -8.39568e-18)
(-0.000265451 -0.000409828 1.09561e-17)
(0.00316647 0.0200585 2.20649e-18)
(0.0135362 -0.00216623 -3.32113e-17)
(-0.000256017 -0.000101387 5.24136e-18)
(-0.00572723 -0.00172626 -4.39766e-17)
(-0.0001692 -2.81301e-06 -1.61002e-18)
(-0.00153272 -0.00101924 -1.07042e-17)
(-0.00107517 0.0161876 -6.28817e-19)
(-0.0281972 0.000819433 -6.0386e-19)
(-0.000132162 -6.60575e-05 1.20006e-18)
(-0.000116844 6.06993e-05 -4.48378e-18)
(-0.000119699 0.000267157 -3.13385e-17)
(-0.00373845 0.00808838 -4.33205e-18)
(-0.00838695 0.0146843 -6.66934e-19)
(-0.000480126 0.00121707 -7.2294e-18)
(-0.0145219 0.000181734 3.72632e-17)
(-0.000112925 0.00024142 -1.53432e-17)
(7.89474e-05 -0.000171092 -3.74052e-18)
(-0.0108308 -0.00423662 -2.41492e-17)
(0.0260923 -0.00120966 3.47615e-18)
(0.000926142 -0.000518863 -3.96705e-18)
(-0.0117689 -0.00771623 2.55066e-18)
(0.00651606 0.00524895 2.74117e-18)
(0.0114108 0.0127756 1.46454e-18)
(-0.000199284 0.000227417 2.10914e-18)
(0.00239623 0.0209604 -6.80659e-18)
(-0.0118519 0.00490967 4.01091e-17)
(-0.000121686 -0.000133916 2.22953e-18)
(0.00855584 0.000448385 -1.49385e-18)
(-0.0021595 0.00806148 1.76865e-18)
(1.3533e-05 0.000365964 -2.66424e-19)
(0.000628842 -0.000316001 5.38953e-18)
(-0.000127044 -9.9707e-05 1.36689e-18)
(0.00160184 0.00302701 5.70655e-18)
(0.000698656 0.000520754 -8.30937e-18)
(-0.0155713 -0.00289108 8.71358e-17)
(-0.000143634 -0.000101842 -6.26079e-19)
(-0.000204926 3.833e-06 -3.72438e-19)
(-1.36102e-05 -7.24961e-07 7.66468e-18)
(-0.000940182 -0.000284731 1.45944e-17)
(-0.000180197 -0.000104487 -2.92846e-18)
(0.00775862 0.0051234 5.57617e-17)
(-0.00021073 -4.3368e-07 -1.09865e-18)
(0.00657171 0.00490741 -5.01102e-18)
(-2.60882e-05 -3.03301e-05 2.25256e-18)
(-0.00264505 0.000908003 7.20455e-18)
(-0.000110903 3.17445e-05 3.59113e-18)
(-1.48848e-05 0.000108816 -6.15637e-19)
(0.000257427 0.000516488 3.96413e-20)
(-0.0103142 0.002035 -7.69514e-17)
(-0.000664083 -0.000810939 3.92954e-18)
(0.00654281 0.00400976 1.31924e-18)
(-0.00037961 0.000232835 9.9331e-18)
(-0.000321897 -4.7366e-05 -6.72699e-20)
(-0.000316812 -3.33182e-06 6.43751e-18)
(-0.00110453 -0.00125706 -4.5552e-18)
(-0.000224119 8.72669e-05 -6.54488e-18)
(-0.00317774 -0.000223343 -2.34725e-18)
(-0.00020208 -0.000155723 1.72605e-18)
(-4.44929e-05 0.000187341 -1.4351e-18)
(0.000364466 0.0205962 4.9595e-18)
(-5.42232e-05 5.20219e-05 8.63026e-18)
(0.0177187 0.00166332 6.72786e-18)
(-5.03042e-05 8.91033e-05 -3.20485e-18)
(-0.00504756 0.00137352 -1.51906e-18)
(-0.00476795 -0.00164175 3.70006e-17)
(-0.0130247 0.0082394 -1.91671e-18)
(3.32296e-06 5.33318e-05 -1.58133e-17)
(-0.0119534 -0.00409357 -1.11662e-16)
(0.000554456 -7.97563e-05 1.36585e-17)
(2.22119e-05 -0.000256319 -2.75834e-17)
(-0.00221791 0.00883481 -3.16883e-17)
(-0.000289311 -8.09899e-05 1.48798e-19)
(0.0244902 -0.00386827 -1.33869e-17)
(-4.36456e-06 0.000166893 -3.00427e-18)
(-0.000329803 -0.000308937 5.11161e-18)
(0.00519678 0.000943168 -5.84765e-17)
(-0.00874754 -0.0117192 -6.10304e-18)
(-0.000334529 -1.53654e-05 -2.02586e-18)
(-0.00297409 -3.7434e-05 -3.34511e-18)
(-0.000243193 -9.56146e-05 -4.91021e-18)
(0.00966003 0.0117203 -3.53276e-18)
(0.00944042 0.00114026 4.10377e-17)
(-0.00013841 0.000119406 -7.05459e-19)
(-7.20706e-05 0.000461653 7.30591e-17)
(-0.0161689 -0.0244738 1.21702e-17)
(-4.57074e-05 0.000101501 -1.21597e-19)
(-4.99134e-05 0.000120686 -5.35987e-18)
(-0.00204084 0.00125288 -2.1443e-17)
(0.0175725 0.00127584 -7.53855e-18)
(0.0124279 0.0305756 1.43334e-18)
(-2.48397e-05 3.17619e-05 -8.20004e-18)
(-0.00332729 -0.004454 4.94345e-17)
(-0.000211747 -0.000115167 -6.32589e-18)
(-2.13825e-05 0.000156915 -3.88491e-18)
(-0.00350141 0.0220673 -4.10997e-18)
(-0.00334245 -0.00496915 -4.94572e-17)
(0.00242183 0.000113253 1.93452e-17)
(-0.000427718 -3.77122e-05 -1.41128e-18)
(0.000188448 0.00567768 -8.30983e-18)
(-6.93594e-05 0.000145456 1.3705e-18)
(-0.00136658 0.000771847 -5.04013e-18)
(-1.5558e-05 -0.000127082 1.96494e-17)
(-8.14523e-05 0.000101679 -4.36431e-19)
(0.000639702 0.000522025 3.08477e-18)
(-1.0419e-05 -1.53993e-05 -3.1068e-19)
(-0.000791045 0.00674302 5.46436e-18)
(0.000322472 -0.000988561 -3.63465e-18)
(0.000157148 -0.00108379 -2.24331e-17)
(0.000767483 -0.000401285 7.38847e-19)
(-0.00276931 -0.00494002 2.77938e-17)
(-0.00952043 -0.00174517 9.56624e-18)
(-0.00601009 0.00108192 1.51358e-17)
(0.000257014 0.00602581 -3.09299e-17)
(-0.00255568 0.00812335 2.30029e-17)
(-0.0242895 -0.00160816 3.10311e-17)
(0.000148291 0.000272682 2.64212e-18)
(0.0269235 0.013384 -2.43975e-17)
(0.00516507 -0.00502316 6.99289e-18)
(-0.000254974 0.00015318 -6.95827e-19)
(6.21403e-05 -0.000161711 -7.84501e-18)
(-0.00835533 -0.00244239 6.38257e-18)
(-0.000120248 0.000391611 -2.0564e-18)
(-0.000196776 0.000127072 1.1766e-18)
(-0.00020283 0.000120777 -7.89857e-20)
(-0.0045959 0.00224805 2.89924e-18)
(-0.00757465 0.00326589 6.37643e-18)
(-5.69721e-05 9.46862e-05 3.33529e-19)
(0.0125761 -0.00832065 2.64881e-18)
(-0.000342941 -5.18997e-05 2.30068e-20)
(0.0140748 0.0295993 -9.65861e-18)
(6.54626e-05 -0.000682412 4.3764e-19)
(0.0171224 0.000650656 -5.11858e-17)
(-0.00296929 0.000310696 -8.47577e-19)
(-0.000291628 6.81933e-05 2.67216e-18)
(-0.000210064 -0.000129976 1.20308e-17)
(0.0167931 0.00101518 4.96306e-17)
(0.00268894 0.00042326 -1.80433e-18)
(0.00014439 0.000284902 5.41183e-19)
(0.00676207 0.00680283 -1.28683e-17)
(-0.00022129 0.000204367 1.92918e-18)
(0.00538683 -0.00454308 4.17162e-17)
(-0.00506604 0.002055 -2.12346e-18)
(0.00691337 0.00444566 8.17892e-18)
(-0.000446295 -6.28048e-05 -2.69556e-17)
(0.0122537 0.0033716 3.13281e-17)
(-7.32569e-05 0.000197599 1.7059e-18)
(-4.26726e-05 0.000100903 1.40422e-18)
(-5.10479e-06 -0.000132716 -1.76388e-18)
(-2.44872e-05 0.000181202 2.08849e-18)
(-0.00454641 0.0155453 1.18003e-18)
(-0.000394447 2.73329e-06 -5.80916e-20)
(-0.00534737 0.0209055 4.90996e-18)
(-0.0132459 -0.00274949 -8.53342e-18)
(-0.00312661 0.000455522 -1.31015e-17)
(0.0045507 0.00366529 5.73251e-18)
(0.0174702 -0.000676279 8.87245e-18)
(0.00736734 0.00443394 2.02396e-18)
(-0.000219284 -0.000755774 3.38507e-17)
(7.28447e-06 5.50508e-05 1.77311e-18)
(5.03812e-07 6.23295e-05 -6.37939e-18)
(-4.63683e-06 0.000171259 -5.36809e-18)
(-0.000414596 4.2603e-05 1.06993e-18)
(-0.000309308 9.30704e-06 -6.36868e-18)
(-0.000220585 -3.33509e-06 -2.01721e-19)
(-0.00139648 -0.00131131 -4.47776e-18)
(-0.00441116 -0.00108641 -4.02293e-17)
(-6.97265e-05 0.000130714 4.0137e-18)
(-0.00500355 -0.0329349 5.31448e-18)
(-0.000105765 0.000201787 6.48385e-20)
(-0.0212416 -0.000908048 -1.02371e-18)
(3.41285e-06 2.90358e-05 -1.99275e-18)
(-0.00782501 -0.00119072 1.24571e-17)
(-0.000309224 0.000592298 4.92694e-18)
(-1.4222e-05 6.32523e-05 4.82117e-18)
(-1.22239e-05 -0.000142979 -7.80568e-19)
(-0.014195 0.00623153 -7.2992e-18)
(-0.000276683 -1.06884e-05 4.80637e-18)
(0.00283188 0.0095167 1.09701e-17)
(-0.00263973 0.00950481 -3.51209e-17)
(0.000549484 -0.000209507 -1.18769e-17)
(0.00116511 -0.00167035 -3.47543e-17)
(-0.000316955 4.13998e-06 1.19977e-18)
(-0.0143441 -0.00773448 -3.4932e-18)
(-3.55722e-05 8.2732e-05 -6.5175e-18)
(-0.000198098 -0.000144997 -2.88576e-18)
(-0.000709266 0.0216433 -6.40859e-18)
(-1.30076e-05 5.93072e-05 -2.23607e-19)
(-4.79121e-05 -0.000126894 -7.63951e-18)
(-0.000279438 -3.5525e-05 9.44662e-19)
(-6.44866e-05 0.000603796 -7.72086e-18)
(-0.0161652 0.00308334 -6.34695e-18)
(-0.000321262 0.000167414 7.47046e-18)
(-0.000441914 -0.000154842 1.15069e-17)
(0.00742287 -0.000504854 -9.05811e-19)
(0.00441394 0.00351135 -6.84714e-18)
(-9.91054e-06 7.88593e-05 -4.83583e-17)
(-1.0266e-05 0.000198086 -3.47041e-18)
(0.00563305 0.0158721 1.3991e-18)