/*--------------------------------*- C++ -*----------------------------------*\
| =========                 |                                                 |
| \\      /  F ield         | OpenFOAM: The Open Source CFD Toolbox           |
|  \\    /   O peration     | Version:  v2012                                 |
|   \\  /    A nd           | Website:  www.openfoam.com                      |
|    \\/     M anipulation  |                                                 |
\*---------------------------------------------------------------------------*/
FoamFile
{
    version     2.0;
    format      ascii;
    class       surfaceScalarField;
    location    "800";
    object      phi;
}
// * * * * * * * * * * * * * * * * * * * * * * * * * * * * * * * * * * * * * //

dimensions      [0 3 -1 0 0 0 0];
oriented        oriented;


internalField   nonuniform List<scalar> 
20673
(
-0.172464
0.161816
0.0106473
0.370332
-0.305593
-0.0647417
0.0223366
-0.049679
0.0273424
0.150818
-0.27653
0.12571
-0.363161
-0.114156
0.477313
-0.0199293
-0.00262567
0.0225549
0.0344856
-0.0297458
-0.00473975
0.0090574
0.0191259
-0.0281833
0.0130263
-0.0255096
0.0124833
-0.055826
0.157853
-0.102027
-0.106267
0.105297
0.000969513
0.149848
0.00414294
-0.153991
-0.0982327
-0.000199237
-0.000465621
0.000664858
0.204532
-0.0388506
-0.165682
0.241019
-0.242521
0.00150156
-0.106298
0.299934
-0.193639
0.140755
-0.16325
0.0224948
0.150287
-0.000439373
0.337349
0.261431
-0.598795
-0.369098
0.572939
-0.203843
0.032194
0.00229158
-0.597079
0.334804
0.262265
0.0454034
-0.036346
-0.307636
-0.0592925
0.366924
-0.00391061
0.0318613
-0.0279507
-0.105561
0.0779909
0.0275702
-0.0999855
0.0518613
0.0481242
-0.0654611
0.0528012
0.01266
-0.148375
0.110039
0.038336
0.156434
-0.1712
0.0147651
0.195032
-0.206243
0.0112099
-0.0963404
0.138127
-0.041787
0.174439
-0.0489099
-0.125529
-0.38682
0.361836
0.0249815
0.088258
-0.107714
0.0194563
-0.363448
-0.23364
-0.00436594
-0.00261101
0.00697695
-0.185892
-0.0553142
-0.0154486
0.000802766
0.0146458
-0.57629
0.586125
-0.00988341
0.685432
-0.382412
-0.303022
0.362706
-0.535135
0.172397
-0.0500278
-0.0179366
0.0679644
-0.170077
-0.155974
0.326047
0.0967617
0.0708378
-0.1676
0.147371
-0.00661612
-0.0168719
-0.111707
0.128579
-0.00372017
0.0103964
-0.00667628
-0.677134
0.434247
0.242855
0.043516
-0.165229
0.121713
-0.282578
0.0326598
0.249918
-0.00685718
0.00313701
0.0557433
0.118696
0.166908
-0.273209
0.213041
-0.223889
0.0108473
-0.112065
0.00579839
0.270042
-0.352153
0.0821069
0.0852016
0.160627
-0.245829
-0.332152
0.162072
-0.0167423
-0.0181598
0.0349021
0.164458
0.205871
-0.000199237
-0.163563
0.500898
0.0160685
-0.0359978
-0.0774761
0.0852184
-0.00774235
-0.51565
0.321921
0.262712
-0.361894
-0.105401
0.103372
0.00202958
-0.161882
0.18219
-0.0203073
-0.524951
0.161787
-0.0160762
0.0291025
0.000229004
-0.00454878
0.00431978
0.142517
-0.450158
-0.00770698
-0.00698111
0.0146881
-0.0187222
0.144278
-0.125556
0.00484481
0.000126891
-0.0049717
0.0730991
0.190443
-0.263544
0.0337916
-0.0314014
-0.00239019
-0.611668
0.330195
0.281472
-0.321357
0.599238
-0.277887
-0.259246
0.00770267
0.0249477
-0.0326503
0.00619758
-0.0105635
0.00271542
0.00340832
-0.00612374
-0.21243
0.285526
0.369722
0.202164
-0.571894
-0.0881033
0.0106272
0.212239
-0.168723
0.513116
-0.150436
-0.00186749
0.00227654
-0.000409048
0.12233
-0.00347514
-0.118855
-0.0518583
0.36524
-0.313389
-0.26094
0.0519906
0.208949
-0.0390639
-0.0490394
0.0250641
-0.0350514
0.00998734
0.0859871
-0.124201
0.038214
0.128783
-0.00118397
-0.1276
-0.0650811
-0.0367475
0.101829
0.0516049
-0.0641751
0.0125702
-0.453075
0.556836
-0.103787
0.121886
0.00860201
-0.130488
0.0187278
-0.0687557
-0.271781
0.0725349
0.199244
-0.482622
0.0892863
0.393321
0.0346407
-0.0255716
-0.00906908
-0.00246248
-0.0627941
0.0652566
0.0943371
-0.111209
0.104125
0.195807
0.162401
-0.150779
-0.0116223
0.00298958
0.0069544
-0.00994398
-0.00287343
-0.0125752
-0.110825
0.131488
-0.020663
0.0311579
0.00348284
-0.274502
0.117476
0.157026
0.00692768
-0.00757271
0.000645037
-0.362006
0.499027
-0.137029
0.0109574
-0.0120433
0.00108596
-0.00726811
0.00927892
-0.0020108
-0.0776633
0.165488
-0.0878244
0.493988
0.191443
-0.0961977
-0.00920348
0.0016143
0.00567289
-0.00728718
-0.0565202
-0.0434654
-0.605676
0.122637
0.483006
-0.245944
-0.0149969
0.0998763
0.21851
-0.31839
-0.531594
-0.0741197
-0.489894
0.583122
-0.0932779
0.0224384
0.00850167
-0.0128893
0.00438764
-0.0830211
-0.191481
0.148082
-0.30406
0.212579
-0.581678
-0.13042
0.0650372
0.0653828
0.00813505
0.0372684
-0.0170879
-0.155376
0.0514759
0.000128992
-0.115923
0.437844
0.101009
-0.178673
-0.0940844
0.112007
-0.017923
0.450586
-0.191558
-0.259038
-0.215451
0.276985
-0.0615348
-0.0715543
0.0242977
0.0472567
-0.0690607
0.331773
0.0434578
0.00628894
-0.0497467
0.017483
0.0438437
-0.0613267
0.0186207
-0.301199
0.503025
-0.167815
-0.335221
0.224364
-0.214087
-0.0102772
0.154619
0.00415945
-0.158778
-0.000526223
0.0074539
0.0219799
-0.115482
0.0935016
-0.0823478
-0.0432206
0.125568
0.218829
-0.21439
-0.00443988
0.00214578
0.00237119
-0.00451697
-0.174625
0.012742
0.0332112
-0.0912149
0.0580037
-0.0005703
0.00541511
-0.0773361
-0.053084
-0.147771
0.219032
-0.0712611
-0.0860037
-0.0055693
0.091573
0.246611
0.352744
-0.599357
0.11215
-0.0261632
-0.134511
0.0236863
0.0288826
-0.0939637
-0.202857
-0.0689254
-0.157537
0.153986
0.00355038
0.134372
0.220116
-0.354494
0.0246901
0.0971959
0.150084
-0.14298
-0.00710419
0.017909
-0.00773248
-0.0101765
0.109261
0.00542088
-0.114681
-0.00629036
0.235541
-0.229253
0.0618174
-0.0477498
-0.0140677
-0.0426179
-0.0704234
0.113041
0.0146309
-0.00612922
0.000255885
0.0107015
0.0595923
-0.0161345
-0.258039
0.40127
-0.143237
0.00543607
0.116894
-0.0135342
0.169968
0.297022
0.153553
-0.0871442
0.456858
0.19012
-0.0924105
-0.0977099
0.0349938
-0.0389044
-0.0322625
0.128822
-0.0965591
-0.000497612
0.00264339
0.151813
-0.151162
-0.000651662
-0.106618
0.0975257
0.00909221
-0.0101401
0.0745622
-0.0644222
8.92252e-05
0.00262619
-0.114677
0.0957303
0.0189464
0.624058
-0.280238
-0.34383
-0.0318112
-0.013543
0.0453542
-0.102363
-0.00319865
0.627003
-0.627064
-0.30397
0.252106
0.00593955
-0.0809714
0.0750319
-0.0884887
0.0885878
-9.91697e-05
0.0247456
0.176112
-0.200858
-0.338396
-0.338763
0.163439
-0.0021086
-0.16133
0.153439
0.00117903
-0.00574141
0.00597042
-0.0759826
0.105627
-0.0296441
-0.280033
-0.106789
-0.0910786
0.361117
0.00830356
0.12048
0.0158944
0.0314446
-0.0473391
-0.286818
0.0713654
0.0371785
-0.0280984
-0.00908008
0.00765223
0.00026718
-0.00791941
-0.00568939
-0.100929
-0.41336
-0.0692749
-0.0585837
0.0420297
0.016554
0.148766
-0.0053312
-0.143435
0.0106863
0.00423982
-0.0149261
-0.49071
0.29057
0.200135
0.039544
-0.0562863
-0.395881
0.137834
7.31176e-06
0.11546
-0.115468
-0.127176
-0.449153
-0.00592543
0.000142277
0.00578315
0.0321385
-0.0235701
-0.00856838
0.0629381
0.17808
-0.119839
0.0182377
0.101601
0.0374487
0.18138
-0.454713
0.0413381
0.00500981
0.0832481
0.123676
-0.0144155
-0.0101549
0.161968
-0.0572459
0.0206562
0.0365897
0.00892826
-0.00127603
-0.587646
0.486472
0.101137
0.194195
0.000837372
-0.00176888
-9.8613e-05
-0.00333256
-0.00247639
0.00580895
-0.299484
0.546089
-0.459963
0.440772
0.0191745
-0.017147
0.00137149
-0.118157
0.0942767
0.0238804
0.398766
-0.601781
0.203012
-0.0769979
0.0910573
-0.0140594
-0.144981
0.142094
0.00288749
-0.103113
0.017109
-0.167386
-0.0130228
0.180409
0.58173
-0.228991
0.139876
0.00588828
-0.145765
0.00728961
-0.00796607
0.000676461
-0.286535
0.386214
-0.099684
0.0538839
-0.134287
0.0804028
-0.0382458
-0.00970827
0.047954
-0.238464
0.338337
-0.281284
-0.0708714
-0.0256298
-0.105554
0.131184
0.000654156
0.0133611
-0.0140152
0.105387
-0.0834077
0.122692
0.0674279
0.0139191
0.190612
0.242542
0.369365
-0.61191
-0.00366719
0.00528149
0.00482863
0.0395674
-0.0443961
0.055881
-0.0888959
0.0330149
-0.380421
-0.0743051
-0.00204399
-0.00625001
0.008294
-0.00116227
0.000730608
0.000431664
-0.043399
0.0766102
0.0338646
-7.30032e-05
-0.123085
0.104362
0.260369
0.470405
-0.65764
0.18719
-0.142301
0.00262345
0.139677
-0.00178779
0.00187173
-8.39351e-05
0.116936
-0.134001
0.0170647
-0.170522
0.255723
-0.109262
0.0332794
-0.145104
-0.014726
-0.091851
-0.450667
0.542468
-0.071666
0.0677484
0.00391758
0.255165
0.279505
-0.534684
0.0570879
0.00472956
-0.208957
0.233702
-0.0726876
0.471448
0.084211
0.112264
-0.196475
0.0488965
-0.131244
0.106011
-0.11158
0.0218479
-0.0988458
-0.00327651
0.131338
-0.128062
0.376465
-0.0909851
-0.285484
0.0838255
-0.0973257
0.0135002
-0.0276871
-0.0295588
0.0267878
-0.0219592
-0.226605
-0.264112
0.0824246
-0.0258472
-0.0565774
-0.480921
0.0121232
0.468797
0.186039
0.190421
-0.473641
0.111627
0.0616314
-0.0441484
-0.057922
0.517802
-0.459907
-0.107653
0.107661
-0.180355
0.0129682
-0.264355
0.39872
0.00348413
0.159955
-0.246314
0.0283557
0.217956
-0.00822126
0.00214169
0.00607957
0.0852226
-0.127841
0.125926
-0.129401
-0.274711
-0.107954
0.382657
0.0685132
-0.349801
0.000873713
-0.00980015
0.00892643
0.00642311
-0.00432655
-0.00209656
0.287777
0.211244
-0.390285
0.621607
-0.231363
-0.0624241
-0.00924194
-0.288755
-0.0683016
0.357049
-0.000964748
-0.00358403
0.102896
-0.377617
-0.00623754
0.00031211
-0.331119
0.254723
0.0763933
0.10407
-0.0108092
-0.0932604
0.216638
-0.143566
-0.0730723
0.0176948
-0.0120736
-0.00562116
0.0626203
-0.210392
-0.00128868
-0.0760474
-0.05196
0.0107012
0.0412588
0.182176
-0.0979656
-0.0618853
-0.0562718
-0.00737455
0.0715741
-0.0641995
0.0555273
-0.280539
0.22501
-0.00439982
-0.00589164
0.0102915
-0.0522546
0.0204434
-0.000618231
-0.00054404
-0.188829
0.169744
0.0190855
-0.0115212
0.000259925
0.0112613
-0.159534
-0.0581427
0.217676
-0.0016303
0.00432474
-0.00269444
-0.0444634
-0.00749665
0.0728566
-0.0942454
0.0213888
0.0947228
-0.0218662
0.035669
-0.0133324
-0.562915
0.339236
0.223676
0.144457
0.00562661
-0.0059402
0.00892978
-0.178424
0.293484
-0.115061
0.222393
-0.00121656
-0.221177
-0.00219059
0.00172497
-0.0666257
0.0725652
-0.213005
-0.0529861
0.265989
-0.0810331
0.070893
-0.0374171
-0.028044
-0.598525
0.323281
0.275214
-0.00869315
0.00142504
-0.109166
0.0338786
0.0752878
-0.264769
0.519919
0.506976
-0.358188
-0.148802
0.113146
-0.594064
0.234989
0.268025
-0.0130917
0.0969172
-0.0396621
0.0590985
-0.0194364
-0.037965
0.0217887
0.0161763
0.00867123
-0.00779752
-0.372957
-0.00392078
0.376872
-0.0627599
0.116644
-0.00952199
0.0101654
-0.000643395
0.124949
-0.165675
0.0407255
0.00743261
-0.00408406
0.00229627
0.00656687
0.210762
-0.477499
0.266712
0.0908117
-0.0349307
0.321637
-0.493655
0.172004
-0.0146483
0.0541923
-0.144291
-0.187865
0.0160699
0.00162495
-0.0282802
-0.116701
0.181238
0.0873785
-0.268618
0.462441
-0.571311
0.108867
0.140074
-0.131771
-0.0939442
0.0993802
0.1245
-0.128449
0.00394917
-0.0131646
-0.0379295
0.0510941
-0.00735739
0.00572709
0.0146402
-0.00395388
0.00523262
0.134643
0.0626463
-0.118472
0.0173123
-0.477289
-0.00637339
0.00304083
-0.0210559
-0.00934603
0.030402
-0.0308846
0.288777
-0.257896
0.093353
-0.0946417
-0.304358
0.500582
-0.196228
0.039163
0.0736599
-0.112823
-0.0984192
-0.232703
-0.322526
-0.240392
-0.294183
0.111008
0.183175
-0.0256358
-0.00734211
0.0329779
-0.0775798
-0.216605
-0.0187807
0.0194349
0.00405627
-0.00128168
-0.0027746
0.0799294
-0.084099
0.00416961
0.027599
-0.0449385
0.0173395
-0.214146
0.269671
-0.0334485
-0.0251352
0.0383002
0.587822
-0.244562
-0.343272
-0.0690882
-0.296135
0.117708
0.213784
-0.339213
0.125426
-0.075991
-0.0723843
-0.363633
0.606169
-0.3921
0.460985
-0.0688893
0.387954
-0.0663281
0.0914818
-0.104574
-0.324386
-0.287284
-0.0101032
-0.00141795
-0.00220629
0.037487
-0.0352807
0.00353739
0.00302233
-0.00655972
-0.0819957
-0.0326809
-0.0059078
-0.012871
0.0187788
0.010161
0.00235602
-0.012517
0.16576
-0.0408115
-0.472258
0.099295
0.111499
0.0136494
-0.125148
-0.266342
0.0804497
0.20734
-0.194714
-0.0126266
0.227986
0.396063
0.0199301
0.0361577
-0.0202633
-0.0507358
0.0485295
-0.18892
0.208662
-0.019742
0.109316
0.0271389
-0.136455
-0.16522
-0.0236098
-0.259668
0.204353
0.00513553
0.119364
0.195349
-0.242136
0.046786
-0.0795043
0.0851502
-0.00564592
-0.173908
0.27803
-0.436352
0.37841
-0.00261577
0.00165103
0.0116626
0.00296829
0.0158223
-0.00415972
0.0434932
0.0913031
-0.134796
0.00611751
-0.00258012
0.00980345
-0.0142033
-0.000451588
-0.00523129
0.00568288
0.00360078
-0.000943446
-0.00265733
0.146899
0.363184
-0.510125
-0.131686
0.00173096
0.129955
0.225373
-0.0300255
0.346406
-0.263088
-0.08332
-0.113511
0.0321837
0.0813275
0.00507072
0.480729
-0.53428
0.0534968
0.0125113
-0.138215
0.125703
-0.00499806
-0.149291
0.154288
0.00216456
-0.00159975
-0.000564805
0.343076
0.244737
0.121187
-0.00892328
-0.112264
0.00132262
0.00088585
-0.00220848
0.103017
-0.0182342
-0.0847828
0.000909092
-0.0108369
0.00992778
0.248551
-0.251638
0.220751
0.517378
0.109572
-0.149411
-0.0252136
0.506349
-0.295617
-0.0321759
-0.00952586
0.0417017
-0.0321916
-0.00577334
-0.154657
0.15138
0.00293343
-0.00548694
0.00255351
0.0232195
0.18982
0.0979696
0.0141805
0.00249132
-0.00294291
-0.00870469
0.0525484
-0.0118157
0.0917452
-0.00409434
-0.08999
0.10458
0.016607
0.122846
-0.148468
0.0256223
0.0859812
0.0329611
-0.118942
-0.171188
0.177574
-0.00638616
0.0916639
-0.108329
0.0166649
0.0237712
-0.138192
-0.0136947
0.151886
0.104791
0.00401156
-0.108803
-0.526453
0.539829
-0.0134274
0.107961
-0.0288668
-0.0790937
0.215409
-0.0152388
-0.200171
-0.430188
0.302909
0.127268
-0.161007
0.0115954
-0.264435
0.184822
0.0796108
-0.000764499
0.00292906
0.0111444
0.0200135
0.0904776
-0.379239
-0.512625
0.420724
-0.0350046
-0.00927487
0.0442795
0.0130308
-0.00286978
0.593391
-0.224032
-0.00859122
0.00950031
-0.312891
0.232496
0.080393
0.126379
-0.0973149
-0.0290638
0.00677218
0.324004
-0.330783
0.00869109
-0.00566721
-0.00302388
0.0629546
-0.0962623
0.0333077
0.0441932
0.18017
0.304975
-0.189992
-0.114985
0.0186795
-0.0245873
-0.117171
0.084908
-0.0127657
0.0126958
6.99038e-05
0.242527
-0.606162
-0.000146384
-0.00761119
0.00775758
-0.00796538
0.0775892
-0.0128447
-0.0647445
-0.35253
-0.077668
-0.00399398
0.0074023
0.0230074
-0.0120555
-0.010952
-0.129654
0.166553
-0.0368989
0.125694
0.381269
-0.216719
0.265368
-0.0486506
-0.139399
-0.0623552
0.101518
-0.0430998
0.52378
-0.516787
0.158584
0.647017
-0.436881
-0.210163
0.405715
0.241275
0.00568605
-0.00773004
-0.0482015
-0.0653098
0.036106
-0.103426
0.117419
-0.0139937
0.569366
-0.0989993
-0.0477778
-0.405318
-0.0108208
0.120137
-0.0120387
0.00460258
0.00743615
0.150542
-0.168283
0.0177398
-0.115206
0.335316
0.451396
-0.237617
-0.285857
-0.0918407
0.377697
0.0151652
0.000918663
-0.000829438
0.398097
0.163174
-0.561279
-0.266762
-0.141505
0.408266
0.0113075
-0.0225722
-0.148616
0.105826
0.110812
0.0423979
-0.294039
-0.149657
0.261776
-0.11212
0.183807
-0.220447
0.0366391
-0.00465326
0.109445
0.0642674
-0.071642
0.025396
0.100344
0.0111549
-0.149492
0.0608306
0.0886618
0.0202251
0.0854016
0.00795494
0.117971
0.452125
-0.292466
-0.159665
0.00753662
-0.000247012
-0.452816
0.25013
-0.0277384
0.252215
0.00548552
-0.257702
0.0781017
0.0298588
0.0831217
0.0198581
-0.10298
-0.0142997
0.396947
-0.382679
-0.000637802
0.103655
0.111113
-0.140501
0.0293881
0.00250477
0.00168414
-0.00418891
-0.0820404
-0.067452
0.00459557
0.0933435
-0.0979392
0.141866
-0.146864
0.321151
0.141287
0.0410529
-0.0142651
0.103432
-0.0241788
0.0188819
0.00529684
0.170758
-0.344668
-0.157296
0.186607
-0.0293116
0.112329
0.00509072
-0.0029239
-0.00116016
0.0128831
-0.0128831
0.118692
-0.119876
-0.0663248
0.109818
-0.0376845
-0.204837
0.198625
-0.227887
0.0292612
-0.211975
0.25437
-0.0754814
-0.0146639
0.0901452
-0.0528265
0.0268259
0.14712
0.0016456
0.0132301
-0.0162956
-0.00788321
-0.00318676
-0.00957891
0.0196214
-0.217957
0.198335
-0.00966112
0.107631
0.0927535
-0.0297989
0.0865074
0.0917985
-0.178306
-0.291279
0.0887208
0.202558
-0.0305513
0.0029628
0.0275885
0.0540017
-0.0343498
-0.0196519
-0.0493479
0.0374864
0.0118615
-0.0386319
-0.0698444
0.108476
-0.53561
0.0456762
-0.00670529
-0.00198787
0.00487922
-0.463757
0.449415
0.186477
-0.183376
-0.00310204
-0.006794
-0.112564
0.119358
-0.125178
0.0288373
-0.0153163
0.125355
0.0359896
-0.00979443
-0.0261952
0.111929
-0.0259473
-0.0207073
0.192082
-0.171375
0.0203571
0.0206958
0.265134
-0.197715
-0.0674196
0.00348081
0.000119967
0.27487
-0.574357
-0.00970685
0.407798
0.0673547
0.0150699
0.039915
0.0140867
0.0324189
-0.00756934
-0.0248495
0.0975384
0.167594
0.257847
-0.264139
-0.448123
0.18136
0.00430961
-0.149414
0.00268947
0.114839
-0.0859561
0.221179
-0.0225553
0.10013
-0.111946
0.134743
-0.262288
0.269055
-0.0517918
-0.0680468
0.115739
-0.000900441
-0.080625
0.0725115
0.0081135
-0.0477263
0.359117
-0.311398
-0.0838399
-0.0258361
0.109676
-0.073994
0.000517148
0.00353913
0.0324852
0.125368
0.109564
-0.0264428
-0.189402
0.0321057
-0.25739
0.533865
-0.276508
0.290389
0.086332
-0.376733
-0.0918405
0.310347
-0.0890571
-0.00967908
0.0987362
0.154829
-0.0580676
-0.0562656
0.10543
-0.0491647
-0.0382942
0.0251296
-0.140349
-0.0171874
-0.221315
-0.377238
0.0277586
-0.0906834
0.0629248
0.0225691
0.00984982
-0.102758
0.0850743
0.0176836
0.0585364
-0.345077
-0.179817
0.148265
0.0315523
-0.12044
-0.396361
-0.159748
-0.0421874
0.201935
-0.0533032
0.213929
0.00532456
0.0176829
-0.283596
0.613787
-0.070251
0.188477
-0.00238082
-0.186097
0.083412
0.021885
0.149179
-0.0607451
-0.0884339
0.00539719
7.14924e-05
-0.00546868
-0.0212418
-0.0909914
0.112233
0.0490329
-0.265754
0.00149221
-5.54271e-05
-0.00143679
0.010389
0.00249414
0.353914
-0.264765
-0.0891534
0.22133
0.030884
0.107999
-0.0779523
-0.0300471
0.0859208
-0.124553
0.118318
-0.00138231
-0.346656
-0.243015
0.589662
0.0339438
0.271029
-0.104293
0.0934835
0.24298
-0.0617426
-0.112748
-0.0157013
-0.150146
0.124517
0.386813
-0.0964353
-0.145001
0.150347
-0.00534586
-0.0290228
0.399707
-0.176318
-0.223395
-0.265619
-0.0319507
0.297567
0.669731
-0.39116
-0.278599
0.00421819
0.00220492
-0.409069
0.621647
-0.201973
0.0130517
0.004221
0.013688
0.010012
0.201188
-0.211201
0.0491119
-0.00919697
-0.0278244
-0.186566
0.0660841
0.0720433
0.232825
0.122035
-0.00429472
-0.11774
-0.0980277
-0.375621
0.139412
-0.00535594
-0.134056
0.323418
-0.58245
0.258993
0.111639
-0.102288
-0.00935176
-0.21932
-0.0935734
-0.0186181
0.0199407
0.0497949
-0.043416
-0.00637887
-0.00263691
-0.00940182
-0.555582
-0.0715418
-0.232079
0.129938
-0.121983
-0.147806
0.163761
-0.0159554
0.00120046
-0.00374998
0.00254952
0.017469
-0.0174363
-3.26555e-05
-0.13523
-0.0280201
-0.332075
-0.0128734
0.344944
0.107755
-0.0162737
-0.0266679
0.0190986
-0.0843928
0.00376777
0.0579215
-0.114187
0.142504
0.000482265
-0.142986
-0.0289786
-0.00549487
0.0344735
-0.165397
0.1522
0.0131967
0.160596
-0.175322
0.00173542
0.0942586
-0.095994
-0.077641
-0.00333048
-0.149314
0.0140831
-0.00180783
0.0195638
-0.017756
0.147683
-0.153446
0.00576202
-0.280516
0.0809728
0.199542
0.0988294
-0.105623
0.0713597
0.110816
-0.404444
0.316587
0.0878486
-0.185397
0.0256482
0.015339
0.147062
-0.169833
-0.0442546
-0.38174
-0.040287
0.42202
0.179045
0.148511
-0.0147362
-0.133775
-0.0634421
0.242623
-0.179183
-0.139072
0.0263235
0.00957102
-0.341648
-0.226941
0.462391
-0.235454
0.139725
-0.548796
0.215221
-0.157963
-0.0572595
0.222893
0.222003
-0.444918
0.0260724
0.186516
-0.212589
0.622998
-0.282492
-0.340532
0.00715924
0.00153185
-0.147245
0.145926
0.00131987
0.0390591
-0.0377327
0.235977
-0.513695
0.277686
-0.357266
-0.201929
0.559191
-0.0347658
0.0859699
-0.051204
0.15261
-0.0297648
0.250254
-0.194373
-0.0558814
0.040846
0.0158251
-0.0566711
0.136908
-0.0399016
-0.0970062
-0.0733187
0.0586704
0.00307995
0.0972987
-0.125503
0.0282038
-0.0893595
0.260555
-0.171197
-0.63645
0.0287424
0.607705
0.59539
-0.189706
-0.256316
0.0100009
0.0156851
-0.0160094
0.000324264
-0.60304
0.24577
-0.0939384
0.0205633
0.0733751
-0.128342
0.154414
-0.00161459
-0.0079074
0.110643
-0.137163
0.0265194
0.112914
0.0239939
-0.0121873
0.0955994
-0.438764
0.102703
0.336041
0.281627
0.315388
0.00304121
-0.429659
0.275703
0.153955
-0.299134
0.0802234
0.218909
-0.0474813
-0.0208025
0.0682838
0.251468
-0.0159284
0.0949168
0.451197
-0.546116
-0.00818996
0.177876
-0.169687
-0.0580908
-0.416397
0.474468
0.321651
-0.470695
0.149001
-0.16205
0.0138033
-0.000977037
0.0021775
0.166388
-0.177945
0.0115566
0.250975
0.148728
0.461098
0.124976
0.00362168
-0.00654558
0.0056657
0.331724
-0.102358
-0.229369
-0.108396
0.279152
0.0629728
-0.0221268
-0.0852546
0.103482
-0.0182275
-0.0128407
-0.00188388
0.0147246
-0.112279
0.116875
-0.0503766
-0.230141
-0.233631
-0.354049
0.50167
-0.18006
0.00890996
-0.147102
-0.0139674
0.0210955
-0.0897485
0.068653
0.0496233
0.12012
-0.0102159
0.00432426
-0.286496
0.088137
0.198356
0.0335269
-0.215596
0.182069
0.0116592
-0.0144619
0.00280274
0.145427
-0.449789
0.00227247
0.213136
0.273264
-0.357075
0.083807
0.334139
0.259324
-0.593486
0.00523037
-0.15601
0.0869883
0.0190228
0.2046
-0.276744
0.072142
0.0441731
0.00493884
0.00119672
0.0130276
-0.0142243
0.0303242
0.225515
-0.308945
-0.119146
0.428075
-0.0913319
-0.0114244
0.102756
-0.0737133
-0.323635
0.566155
-0.0839351
0.103382
-0.0194472
-0.435894
0.126932
-0.155861
-0.278731
0.36418
-0.0854562
0.43751
-0.154787
-0.282731
-0.110557
-0.241195
-0.102825
0.344016
0.0284941
-0.0892638
0.145607
0.0407547
-0.186362
0.388373
-0.586314
0.19794
0.372108
-0.502328
0.130194
-0.0163772
-0.267012
0.283389
0.0303792
-0.319824
0.289437
-0.339111
0.0734888
-0.0321114
0.0446731
-0.0125616
0.288583
0.0517378
-0.340327
-0.110297
0.400264
-0.289976
0.0224926
-0.00850376
-0.0139888
-0.026494
0.032783
-0.151967
0.131259
-0.16134
0.000678829
-0.121401
0.120722
-0.0516218
-0.166103
0.217724
0.4713
-0.163388
-0.307922
0.125091
-0.0542535
-0.0058878
0.114331
-0.00269176
0.270814
-0.481818
0.211
-0.302548
0.112554
-0.00388073
0.0213497
-0.0516973
-0.0831263
0.134823
-0.00150764
0.00620978
-0.00470214
0.528097
0.167233
0.000707531
-0.00503409
-0.182953
0.155654
0.027299
-0.27734
0.0649082
0.0155382
-0.0149213
-0.000616863
-0.0188874
0.0101649
0.00872247
0.352958
-0.322587
0.103491
-0.101756
0.488848
0.106515
-0.338638
0.0974373
0.426918
-0.190964
9.65302e-05
-0.00634654
0.470011
-0.247141
-0.328302
0.279732
-0.0500204
-0.273223
0.0737023
0.19952
0.0328458
0.093533
-0.0919792
0.0461864
0.303621
0.0745913
-0.37822
0.097651
-0.123904
0.0262525
0.374001
0.164344
-0.538355
0.0071636
0.503307
-0.481148
-0.0221709
0.347113
0.363577
0.216361
-0.579941
0.00619383
0.458492
0.0280887
-0.0119373
0.0155799
-0.00364258
0.0160788
-0.0532428
0.037164
0.00126511
-0.181082
-0.0417954
-0.0673709
-0.0122811
0.014136
-0.00185489
-0.280212
0.348722
0.000378402
-0.00708369
-0.0255112
0.00735138
-0.0140102
0.00172912
-8.38573e-05
0.0155897
-0.0155059
0.00679541
0.0156972
-0.0161598
0.0186645
-0.0721847
0.0999433
0.178536
0.08683
0.00458817
-0.154264
-0.0286897
0.00633436
-0.0273903
-0.411701
0.0591594
0.0912922
0.273941
0.276147
0.0555741
0.537165
0.16356
-0.230611
0.0670503
0.11999
-0.146837
0.0268466
-0.00447226
0.00544451
-0.000972243
0.371431
-0.280145
0.425129
-0.184947
-0.240183
-0.00244475
0.0105677
-0.00812296
0.00859656
-0.0779284
0.0693318
-0.269497
0.253119
0.0230976
0.02309
-0.17646
0.15337
-0.0734084
-0.205296
0.278701
0.0249571
0.0248378
0.0888112
-0.0657136
0.161019
-0.212022
0.0510022
-0.166455
-0.106769
0.0126557
-0.011459
0.0128304
-0.00117123
0.00316219
-0.0152055
-0.362633
0.0838949
-0.088178
-0.0289926
-0.00927754
0.120391
-0.00750998
-0.00418526
0.0116952
-0.0274509
-0.121294
0.123223
-0.00192843
0.255697
0.169304
-0.258665
-0.0769798
-0.209518
-0.505289
-0.113852
0.0655627
0.50867
-0.361809
0.169561
0.0142463
-0.0628551
-0.102542
-0.00476426
0.00248644
0.00227782
-0.132147
0.0354713
0.0966753
-0.0955897
-0.232717
0.124438
-0.00391986
0.00511853
-0.00119867
0.167046
0.327188
-0.244849
-0.0823401
-0.00312744
-0.000986048
0.00411349
-0.360705
0.0963441
-0.304982
0.00584611
0.0735231
-0.108658
0.0351349
0.00220086
0.000732569
0.482603
0.298605
-0.346337
-0.0245288
0.0340332
-0.00950441
-0.101337
0.0595415
-0.0289571
0.0930902
-0.0641331
-0.137878
0.0375621
0.100316
-0.0437718
-0.0639424
-0.48631
0.173418
0.312886
-0.102628
0.100564
0.0020648
0.172304
0.154883
0.0117128
0.35642
-0.368144
-0.0805952
-0.210685
-0.0458692
0.0136933
0.00127186
-0.0141125
-0.36864
0.0901423
0.27849
0.498028
-0.125945
-0.0737181
0.346979
0.0227448
0.0674089
-0.182396
-0.00506503
0.18746
-0.232149
-0.197511
-0.302605
0.0895977
-0.00228459
0.363675
-0.0600606
-0.00905588
-0.0763372
-0.0136856
0.0900228
-0.0123543
-0.0047832
0.0171375
-0.326819
0.0883502
0.117806
-0.0254777
-0.0923281
0.183475
-0.163854
-0.00681286
0.00114565
-0.00488341
0.00096355
0.0107361
-0.00378169
-0.121041
0.12172
-0.00516431
-0.0137231
0.463319
0.00523971
-0.0308755
-0.470482
0.479071
-0.0728778
-0.151011
0.172851
-0.156861
-0.0159905
-0.0770474
-0.0434321
0.00842743
0.046871
0.0294556
-0.0763267
0.0919833
0.0161269
-0.10811
-0.0153283
0.0451279
-0.0297997
-0.284223
-0.272156
0.556344
-0.0575872
0.101242
-0.0436551
0.10657
0.330931
-0.0849697
0.156329
0.0302206
-0.0221647
-0.00805591
0.229536
0.116868
0.170293
-0.640778
0.21781
-0.267206
0.0493947
0.100605
-0.2552
0.154592
-0.00323588
-0.00152838
0.465885
-0.102899
-0.36301
0.511877
-0.177082
0.00843817
-0.0206844
0.13183
-0.111145
0.147528
-0.146507
-0.00102081
-0.0262315
-0.000436471
-0.100515
-0.00750708
0.108022
0.0149257
0.000411267
-0.015337
-0.00196129
-0.131877
0.113433
-0.16513
-0.000561182
0.000548766
-0.174539
0.00450594
0.053438
-0.0579439
0.00159966
0.0302617
0.204714
-0.00622899
-0.198486
-0.306001
-0.0586877
0.364681
0.00202348
0.0197696
-0.0217931
-0.0375218
-0.246751
0.265371
-0.146389
0.0379373
0.108452
0.156128
-0.0055856
-0.344466
0.117227
0.227236
-0.0282571
0.191816
-0.143797
0.244399
0.155763
0.288001
0.309014
0.137285
0.00521896
-0.0264242
0.0507219
-0.367975
0.139477
-0.130188
-0.00928895
0.110487
0.207811
-0.318306
0.104284
-0.0980517
-0.00623258
-0.250762
0.574139
0.156753
0.00200928
-0.133695
-0.231708
0.168264
0.320217
-0.0824802
-0.23774
-0.295573
-0.0730754
0.0389667
-0.0375757
-0.00139104
-0.0920818
-0.0293263
0.121408
-0.0240694
0.052112
-0.0280427
0.26418
0.196803
-0.32365
0.267281
0.0563657
0.00816196
-0.270509
-0.0865708
0.0190792
0.116721
-0.1358
-0.127141
0.0350596
-0.234891
-0.109578
0.0280033
0.11409
-0.257224
0.367702
-0.018173
0.0498029
-0.03163
-0.290719
0.0439677
0.000237269
0.191844
-0.00105689
-0.0011337
-0.0753863
0.101423
-0.026037
-0.0934773
0.399885
-0.306416
-0.2229
0.192676
0.0302233
0.0018826
-0.0138199
0.35364
-0.341937
0.472996
-0.118155
-0.354855
-0.0114244
0.00391438
-0.00476963
0.00486616
0.0313264
-0.196546
-0.00923705
-0.0866457
0.0958827
0.542853
-0.281437
0.229228
-0.0108754
0.238698
-0.210344
-0.35196
-0.086821
-0.0929581
0.0234755
0.0694826
0.305994
-0.287361
-0.0186393
0.0236643
0.0661828
-0.089847
0.196064
0.403168
-0.44497
0.0929908
-0.296744
0.194384
0.00572364
-0.106238
0.0122349
0.00239539
-0.0146303
-0.220333
-0.0758035
0.00157805
-0.236851
0.235271
-0.348143
-0.138175
0.198284
-0.184365
0.479954
-0.145836
0.0207612
0.137218
-0.124706
-0.584467
0.26083
0.0169033
0.0421953
0.115876
-0.0951995
0.0376123
0.013864
-0.00406056
-0.0214765
-0.00907487
0.394668
-0.304534
-0.301712
0.056862
-0.257389
0.338092
-0.0807068
-0.00852557
-0.178726
0.139875
0.00111602
0.012365
-0.013481
-0.00485719
-0.00981368
0.0146709
0.230826
-0.168206
0.00569179
0.00839995
-0.0153811
-0.143213
0.145959
-0.00274523
-0.0968681
0.087631
-0.114192
0.0929502
-0.00128381
-0.0119874
0.110592
-0.00630772
0.03561
0.0552086
-0.0908187
0.0107329
-0.00453528
0.134238
0.00370331
-0.137942
0.170977
-0.000819926
-0.0244494
0.0763107
-0.397749
-0.0139626
0.214839
-0.142305
0.0365631
-0.0320571
-0.126661
0.144927
-0.0182667
0.372725
-0.282254
0.123783
-0.00174809
-0.100224
0.119303
-0.00317622
0.00175645
-0.00117353
-0.000582921
0.214585
-0.00126637
-0.21332
-0.0536607
0.0383325
0.0289719
0.130441
-0.159413
-0.017961
0.0872592
-0.0692981
-0.0515161
-0.0527141
0.10423
0.122838
-0.089992
-0.159709
0.182799
-0.367529
0.204859
0.0434212
0.305681
-0.430253
0.124565
-0.04625
0.207269
-0.499899
-0.026604
0.184195
-0.369407
0.113296
0.256105
0.00618663
0.109714
-0.1159
-0.015487
0.107151
0.011665
0.00569195
-0.0173569
0.0780238
0.0311804
-0.109204
-0.0319484
-0.0600308
-0.0412311
-0.00950478
0.072864
0.259933
-0.363332
0.103393
0.00721985
0.00750369
-0.0417087
0.034205
0.324036
-0.390578
0.0665312
0.352543
-0.151999
-0.0110294
0.163028
0.00261897
0.0130661
0.34244
-0.593819
0.251378
0.130518
-0.00733428
-0.123184
0.0742639
-0.00259515
-0.0716688
0.121948
-0.152812
0.0308632
0.373445
-0.267921
-0.105526
-0.286695
0.230106
0.0565869
-0.17913
0.322432
-0.143308
-0.0815352
-0.0648539
-0.14681
0.103589
0.231814
0.00562185
-0.0242399
0.0342833
-0.0238259
-0.0104574
-0.118838
0.124726
-0.100948
0.0170131
-0.0188934
0.153132
0.100683
-0.0904904
-0.0101924
-0.212683
0.222694
-0.204786
0.153164
0.0108037
0.0428657
-0.0536694
-0.0681623
0.09881
-0.0306477
0.00238147
-0.00444932
0.0346603
-0.0473514
-0.5891
-0.415374
0.309226
0.106142
-0.145828
0.310283
0.346119
-0.0708426
-0.275279
0.11747
0.159514
-0.0560547
-0.0777765
0.133831
0.370657
-0.0770399
-0.293624
-0.000212891
0.0993137
-0.0991008
-0.500299
0.442189
-0.1679
-0.297883
0.128866
-0.0159521
-0.00580117
0.105932
-0.0595647
0.0951747
-0.354807
0.0745911
0.0346597
-0.175471
-0.239909
0.0119097
0.0443321
-0.0562418
0.273954
0.226624
-0.18479
0.13588
0.457715
-0.186905
0.0197842
0.0758488
-0.095633
-0.00141567
0.0656542
-0.102402
0.277173
-0.0734798
-0.0586668
0.358683
-0.145004
-0.213682
0.149197
0.00413177
-0.00406028
0.233116
0.102958
-0.33608
0.194665
-0.275261
-0.1393
0.118615
0.171479
0.014998
0.00593481
0.282071
0.116259
-0.177949
0.0616895
0.249729
-0.281682
0.118513
-0.500261
0.13756
-0.0175697
-0.0949697
-0.169171
-0.213893
-0.235706
0.449574
-0.162605
-0.0494174
-0.00353849
-0.00442758
-0.201663
-0.0146552
0.216317
-0.0649764
0.0860719
-0.0324447
-0.00163021
-0.0029202
0.0151551
-0.222351
0.0206871
-0.445494
0.231574
0.0530483
0.125173
-0.178222