/*--------------------------------*- C++ -*----------------------------------*\
| =========                 |                                                 |
| \\      /  F ield         | OpenFOAM: The Open Source CFD Toolbox           |
|  \\    /   O peration     | Version:  v2012                                 |
|   \\  /    A nd           | Website:  www.openfoam.com                      |
|    \\/     M anipulation  |                                                 |
\*---------------------------------------------------------------------------*/
FoamFile
{
    version     2.0;
    format      ascii;
    class       surfaceVectorField;
    location    "800";
    object      Uf_0;
}
// * * * * * * * * * * * * * * * * * * * * * * * * * * * * * * * * * * * * * //

dimensions      [0 1 -1 0 0 0 0];


internalField   nonuniform List<vector> 
20673
(
(1.09569 0.123025 -3.57329e-21)
(1.09983 0.12044 -5.06355e-21)
(1.09504 0.117955 1.17565e-20)
(1.02101 0.0413256 -1.28703e-21)
(1.01981 0.0406517 6.98832e-22)
(1.02003 0.0426019 3.55654e-22)
(0.562976 -0.0665932 4.09755e-21)
(0.598292 -0.0688413 -2.87496e-20)
(0.624232 -0.0692294 -7.24468e-21)
(1.05501 -0.0113976 -5.60094e-21)
(1.0552 -0.0103749 5.90182e-21)
(1.05411 -0.0107335 1.10095e-21)
(0.996415 0.00303281 -3.63856e-21)
(0.996241 0.00261117 -4.92828e-21)
(0.995926 0.00319139 -5.47207e-21)
(0.371853 0.0565775 -2.10656e-20)
(0.360055 0.0295106 -2.1616e-20)
(0.343102 0.0574466 2.32579e-21)
(0.507371 -0.0556133 0)
(0.502208 -0.0576155 1.51093e-20)
(0.551767 -0.059903 -1.25515e-20)
(0.625198 -0.0697657 -2.09134e-20)
(0.575622 -0.0674649 -1.58319e-21)
(0.595235 -0.0706392 1.20451e-20)
(0.445418 -0.0752076 -8.74672e-21)
(0.412349 -0.0717656 5.29909e-20)
(0.37719 -0.067194 -7.69648e-21)
(1.13726 0.148124 5.7549e-21)
(1.14348 0.147971 5.58115e-20)
(1.14111 0.154178 2.46766e-20)
(1.11025 -0.0605124 9.61932e-21)
(1.10905 -0.0607283 3.30935e-20)
(1.11047 -0.0617643 3.0576e-20)
(1.08971 -0.0437378 -2.04494e-21)
(1.09022 -0.0450424 8.41824e-22)
(1.09092 -0.0435125 -1.68016e-20)
(1.05584 -0.0116972 -1.13013e-20)
(-0.00578983 -0.00505965 -3.55615e-21)
(0.0171826 -0.00954294 2.49905e-21)
(-0.0126726 -0.0065941 1.65343e-20)
(0.973425 0.0950149 -3.65171e-21)
(0.969227 0.0944309 -9.23071e-21)
(0.972308 0.0907157 8.67953e-21)
(0.995312 0.0903145 -2.8686e-21)
(0.993021 0.0878559 -4.91049e-22)
(0.996709 0.0865834 2.77934e-21)
(1.01427 0.047057 2.70744e-22)
(1.01571 0.0467318 1.71867e-22)
(1.01457 0.0455075 1.04355e-23)
(1.13866 0.0159993 -6.15009e-21)
(1.13982 0.0183153 -1.18513e-20)
(1.14153 0.0150599 -1.4584e-20)
(1.08855 -0.04432 1.49898e-21)
(1.08887 -0.0427595 -2.73997e-21)
(1.00153 0.0049074 1.32713e-21)
(1.00154 0.00469058 -2.89796e-22)
(1.00136 0.00452494 1.45713e-21)
(0.999979 0.000925986 0)
(0.999965 0.00123607 3.95878e-21)
(0.999982 0.000937641 -3.16635e-21)
(0.505814 -0.0561393 0)
(0.470521 -0.0561332 0)
(1.00083 0.00753216 1.49377e-21)
(1.00089 0.00797026 2.06779e-21)
(1.00101 0.00783565 -9.93947e-22)
(0.666135 -0.0746442 8.16091e-21)
(0.676691 -0.0756247 -1.67706e-20)
(0.995122 0.0147124 -7.88635e-22)
(0.994645 0.0144944 -1.16799e-21)
(0.994867 0.0152646 3.6757e-21)
(0.554125 -0.0550565 7.2518e-21)
(0.516982 -0.0518144 -5.93707e-21)
(0.513679 -0.0535283 1.30935e-22)
(0.788453 0.0339733 -5.24966e-21)
(0.779475 0.0395781 -1.49803e-20)
(0.780695 0.0276774 -1.94584e-20)
(0.761015 0.118184 0)
(0.759527 0.130697 1.6344e-20)
(0.750602 0.121524 0)
(0.7165 0.555976 3.51208e-21)
(0.7476 0.566349 -2.49016e-23)
(0.725841 0.59984 3.24602e-21)
(1.19558 0.0908385 0)
(1.19502 0.0858983 0)
(1.20021 0.0868827 0)
(1.11382 0.109496 -1.56924e-20)
(1.11067 0.112621 1.68919e-20)
(1.10952 0.107992 -1.42563e-20)
(1.062 0.0891695 4.12491e-22)
(1.05911 0.0898998 9.30324e-21)
(1.05998 0.0865351 4.64163e-21)
(0.841903 0.0688241 -5.82761e-21)
(0.834134 0.0715419 0)
(0.835424 0.0620957 -1.60017e-20)
(0.907944 0.000632367 -2.0395e-20)
(0.910701 -0.00236722 9.15589e-21)
(0.911965 0.00153065 2.04759e-20)
(0.991459 0.0114012 5.89323e-21)
(0.990912 0.0120166 6.89613e-23)
(0.991618 0.0122875 5.82144e-21)
(1.11422 -0.0712693 -2.41877e-21)
(1.11554 -0.0714703 -3.05789e-20)
(1.1153 -0.0729689 7.79313e-21)
(1.0007 0.00719628 -1.07874e-21)
(1.00084 0.007106 1.81567e-22)
(0.140506 -0.0339913 -3.1715e-20)
(0.114718 -0.0305075 1.18139e-20)
(0.12734 -0.0311966 -1.18957e-20)
(1.06133 -0.0155939 -3.50523e-21)
(1.06218 -0.0163937 -5.73511e-21)
(0.281773 -0.01082 -9.23673e-21)
(0.256625 -0.00797625 -1.68054e-20)
(0.285446 -0.0103631 -2.39913e-20)
(1.0084 0.00090414 1.21353e-23)
(1.00878 0.000887378 1.36318e-23)
(1.00796 0.000511826 -1.92831e-23)
(0.999994 0.000664736 -2.72172e-21)
(1 0.000313396 -2.54854e-21)
(0.999998 0.000341824 5.63828e-22)
(1.02074 0.00242687 -4.85677e-21)
(1.02044 0.00259472 2.03646e-22)
(1.02034 0.00228599 -6.44191e-22)
(0.696782 0.19396 0)
(0.713223 0.201688 4.2227e-20)
(0.696257 0.215764 0)
(1.03783 0.0239303 -2.96621e-21)
(1.03873 0.0246442 4.10188e-21)
(1.03899 0.0237474 0)
(0.890823 0.016612 2.81265e-21)
(0.889372 0.0120409 1.48693e-20)
(0.894767 0.0131951 -2.77717e-20)
(1.13767 0.0127935 0)
(1.13553 0.0160891 0)
(1.13975 -0.0174372 -4.43992e-20)
(1.1386 -0.0150125 -6.38841e-21)
(1.137 -0.0174028 -6.41649e-21)
(0.0906791 0.122129 2.34627e-20)
(0.0900552 0.157753 -9.47699e-20)
(0.119774 0.136619 -2.6418e-19)
(1.00325 0.000737023 3.8438e-22)
(1.00355 0.000669269 6.43492e-22)
(1.00349 0.00103532 4.08033e-23)
(1.08387 0.0137479 -6.87306e-22)
(1.08491 0.0147086 4.96521e-21)
(1.08535 0.0131561 6.97604e-21)
(0.966117 0.00909596 6.92928e-22)
(0.964909 0.0077436 1.07528e-20)
(0.964512 0.00981627 -7.24552e-21)
(0.0843791 0.0922519 7.94158e-20)
(0.0510103 0.124952 1.67753e-19)
(0.904866 0.00373282 0)
(0.903733 -0.000718911 3.20653e-22)
(1.014 0.0485752 1.12054e-22)
(1.01271 0.0471225 1.95014e-21)
(1.08449 0.0360601 -6.40349e-22)
(1.08379 0.0381141 -1.87143e-20)
(1.08625 0.0377361 -1.11566e-20)
(1.11178 -0.0604504 -2.72259e-20)
(1.11074 -0.0591658 -2.54044e-20)
(0.994965 0.0297051 -4.12075e-22)
(0.995015 0.0283108 5.65945e-21)
(0.996053 0.0292859 1.2598e-21)
(1.0702 0.0427495 6.74373e-21)
(1.07227 0.0437344 -5.61443e-21)
(1.07028 0.0451407 -7.96624e-21)
(1.03669 0.0240822 1.8739e-23)
(1.03687 0.0231908 -1.09304e-21)
(0.601564 0.0559079 2.27951e-20)
(0.453501 0.0387419 6.54811e-21)
(0.510818 0.0432166 8.9179e-20)
(1.02228 0.0406563 -7.43305e-22)
(1.02233 0.0425755 -6.82554e-22)
(-0.00381402 -0.00337808 -1.60402e-20)
(1.00152 0.00510221 1.38341e-21)
(1.00171 0.00528414 3.32882e-23)
(0.379777 0.0916081 -5.78207e-20)
(0.403433 0.0608772 -3.03984e-20)
(1.12401 0.384871 -1.25078e-20)
(1.08567 0.357399 2.76612e-21)
(0.827945 0.272594 2.08382e-20)
(0.995733 -0.000811249 -3.07244e-22)
(0.995276 -0.000637935 -4.31493e-21)
(0.987715 -0.00146493 4.92557e-21)
(0.98848 -0.00149741 -3.10555e-21)
(1.14803 -0.0540626 -1.8219e-20)
(1.14593 -0.0549798 -4.69685e-20)
(1.14861 -0.0565585 4.53399e-21)
(1.06108 0.134196 3.88147e-21)
(1.0664 0.134157 -1.38314e-20)
(1.06293 0.140208 -1.73325e-20)
(0.996843 0.00292238 6.02756e-21)
(0.996552 0.00345157 6.81206e-21)
(0.514968 -0.083084 1.5947e-20)
(0.478261 -0.0795733 1.14413e-20)
(-0.11162 -0.0215979 -5.53807e-20)
(-0.0866022 -0.0255471 -1.038e-20)
(-0.0949948 -0.0244559 -4.60134e-21)
(0.995775 0.0148917 -1.40562e-21)
(0.995512 0.0139687 2.57002e-21)
(0.0908753 0.192633 7.87029e-20)
(0.125638 0.211069 -6.48e-20)
(0.0928983 0.231264 5.03747e-21)
(1.08306 -0.0508015 -1.12913e-20)
(1.08235 -0.0500798 -2.15525e-21)
(1.08337 -0.0496786 3.21091e-21)
(-0.105183 -0.0141718 2.25957e-20)
(-0.0806092 -0.0189683 -2.04225e-20)
(-0.0954989 -0.0145951 -1.62667e-20)
(1.05305 0.025769 -3.01421e-21)
(1.05438 0.0262857 8.04198e-21)
(1.05325 0.0273164 1.27853e-20)
(0.524885 -0.0469326 2.40209e-21)
(0.5222 -0.049043 9.50006e-21)
(0.561236 -0.0507149 -1.30948e-20)
(0.999928 0.00184175 -8.2978e-23)
(0.999874 0.00213636 -3.71171e-21)
(0.999894 0.00218308 3.96775e-21)
(1.00005 0.00298719 -1.71275e-22)
(1.00006 0.0032794 -6.66704e-21)
(1.00008 0.00292227 4.1299e-22)
(0.996139 -0.000521368 1.28316e-21)
(0.38935 0.117879 3.12119e-20)
(0.399897 0.14799 1.41937e-19)
(0.421188 0.123911 7.5659e-21)
(0.17028 -0.0384917 -4.73522e-21)
(0.157741 -0.0379703 2.01706e-20)
(-0.0714424 0.0154711 -9.69517e-21)
(-0.113551 0.012305 2.71314e-20)
(-0.102205 0.012071 8.63746e-20)
(1.05165 0.0253616 3.35611e-21)
(1.05277 0.0244391 -1.04029e-20)
(1.00035 0.00415922 -1.70969e-21)
(1.00041 0.00408583 2.99793e-21)
(1.0003 0.0037702 1.36486e-21)
(1.13998 0.412259 0)
(1.22027 0.440597 -8.64716e-21)
(1.08226 0.012791 -9.91769e-21)
(1.08211 0.0145879 6.10347e-21)
(1.02101 0.00232873 -1.88789e-22)
(1.02111 0.00262575 -3.58237e-21)
(-0.00119861 -0.0337482 3.45315e-20)
(-0.0291838 -0.0302293 1.18305e-20)
(-0.0155429 -0.031227 1.86898e-20)
(1.18091 0.12604 0)
(1.17485 0.128269 3.30772e-20)
(1.17842 0.132648 -9.6136e-21)
(1.02301 0.0237889 1.54324e-21)
(1.02336 0.0230152 5.12066e-21)
(1.02238 0.0229844 1.1869e-21)
(0.974198 0.0514885 -1.39559e-20)
(0.972136 0.0526877 -4.35712e-21)
(0.974588 0.0540018 -2.96878e-21)
(1.19731 0.436727 1.56137e-20)
(1.07368 0.408077 1.0092e-21)
(0.374071 0.00240939 -2.76273e-20)
(0.402808 -0.00474793 5.1287e-20)
(0.37992 -0.0321477 0)
(1.1249 -0.049968 5.99169e-21)
(1.12662 -0.0501655 3.72561e-20)
(1.12567 -0.0518254 1.60754e-20)
(1.13808 -0.00806925 -2.92431e-20)
(1.14076 -0.00805452 -2.56969e-20)
(1.13948 -0.00570489 -6.44362e-22)
(1.08886 -0.0585527 1.02313e-20)
(1.08847 -0.0592603 -1.33593e-20)
(1.0879 -0.0589218 1.14482e-20)
(0.594751 0.129533 -3.53561e-20)
(0.614768 0.115091 -2.04179e-20)
(0.616607 0.141439 -6.42006e-20)
(1.01095 0.00558623 2.94272e-22)
(1.0114 0.00569529 0)
(1.01122 0.00607655 5.19999e-22)
(0.84087 -0.00282084 4.84211e-20)
(0.844295 0.00455191 1.19659e-20)
(0.848428 -0.0022192 -4.31787e-20)
(0.680458 0.187243 4.33558e-22)
(0.69841 0.178677 -5.32191e-20)
(1.06031 0.0199889 5.82317e-21)
(1.06152 0.019719 1.85379e-21)
(1.06048 0.0184933 0)
(1.01609 0.0122636 -7.15793e-22)
(1.01613 0.0117028 0)
(1.01668 0.0122329 1.09174e-21)
(0.464679 -0.0725435 -5.51851e-20)
(0.453782 -0.072377 1.81646e-20)
(0.535022 -0.0743274 -6.19661e-22)
(0.820038 0.493306 -1.67224e-20)
(0.791945 0.511298 -3.91234e-21)
(0.830781 0.51928 -1.83493e-20)
(1.14067 -0.0191786 2.86358e-20)
(1.1421 -0.0171398 -2.22807e-20)
(1.01726 0.0463311 1.88291e-22)
(1.01718 0.0480715 1.38328e-23)
(1.11251 0.122566 4.55448e-22)
(1.10887 0.12536 -8.42935e-22)
(1.11369 0.127581 5.65059e-21)
(-0.163631 -0.0136093 -5.14487e-20)
(-0.195549 -0.0130931 2.90846e-20)
(-0.181948 -0.0134024 3.13431e-20)
(0.299418 -0.0133956 1.45256e-20)
(0.275162 -0.0102374 5.52652e-22)
(1.09153 -0.0498799 3.49022e-21)
(1.09068 -0.0503246 -5.04008e-21)
(1.09147 -0.0508352 0)
(0.464556 -0.073999 -2.65575e-20)
(0.396568 -0.0721103 -4.07282e-20)
(0.949115 0.0071287 -1.30382e-20)
(0.947715 0.00913293 -2.33377e-20)
(0.94703 0.00640123 1.15446e-20)
(0.0880319 -0.132433 -9.88277e-20)
(0.0990547 -0.102594 0)
(0.061053 -0.107705 0)
(1.00082 0.0135058 1.75596e-22)
(1.00089 0.0141393 -3.4838e-21)
(1.00052 0.0138095 -5.01317e-21)
(0.181226 0.0957015 1.86365e-19)
(0.211296 0.0772762 8.53787e-20)
(0.212413 0.112419 8.49162e-20)
(0.164678 -0.0111454 0)
(0.17221 -0.0129359 -7.90378e-21)
(0.186267 -0.0161663 2.30144e-20)
(0.907394 0.0116697 0)
(0.904559 0.0149086 2.30854e-20)
(0.909164 0.0153912 -1.2169e-20)
(1 0.00100116 -5.01059e-22)
(0.999987 0.000987264 3.46887e-21)
(1.14993 -0.0533618 -2.58913e-20)
(1.14785 -0.0522134 1.10847e-20)
(0.130566 -0.0131627 1.80857e-20)
(0.151405 -0.0168327 -1.67507e-21)
(0.144107 -0.0162694 4.29542e-21)
(0.762907 0.106334 2.14836e-20)
(0.774566 0.115063 0)
(1.00493 0.000645969 -4.23891e-22)
(1.00516 0.000939713 1.23038e-22)
(1.00526 0.000547468 1.71555e-22)
(0.974159 0.0488224 1.26669e-20)
(0.976443 0.050148 -8.45086e-21)
(1.03391 0.0271432 3.94013e-21)
(1.03465 0.0280247 -1.84946e-21)
(1.03358 0.0280944 3.34477e-21)
(1.00462 0.000661399 -1.53386e-22)
(1.00448 0.000322749 -1.61541e-22)
(1.0178 0.0018483 0)
(1.01804 0.00168754 1.97142e-21)
(1.01773 0.00157737 0)
(0.345875 0.00344557 8.75263e-21)
(0.250598 -0.0316162 1.88654e-21)
(0.239583 -0.0290043 0)
(0.228062 -0.0260492 7.00183e-21)
(0.950667 0.00476633 -4.18626e-21)
(0.951653 0.00751718 1.23634e-22)
(1.0396 0.0253407 -6.27822e-21)
(1.03841 0.0255976 6.16754e-21)
(0.999968 0.000899032 0)
(0.999997 0.000617387 0)
(1.26794 -0.0138966 -2.83774e-20)
(1.27877 -0.0120033 -2.49499e-20)
(1.24537 -0.0217896 3.47282e-20)
(0.71256 -0.0786706 3.22498e-20)
(0.655109 -0.0745071 2.45229e-20)
(1.09601 0.12782 -1.25918e-20)
(1.09151 0.124925 -2.39809e-20)
(0.578242 0.140711 1.27563e-19)
(0.578753 0.112783 3.42765e-20)
(0.995232 -0.000173279 8.5761e-22)
(0.994777 -0.000516779 -3.44653e-21)
(0.905958 0.00771372 0)
(0.91021 0.00886898 -9.00315e-21)
(1.10682 -0.0707702 -1.85448e-21)
(1.10498 -0.0703461 5.56427e-21)
(1.1021 -0.0691297 -4.64315e-21)
(1.02473 0.0128003 -1.3527e-21)
(1.02466 0.0133682 -3.72087e-22)
(1.02398 0.0128619 -1.20765e-22)
(0.963216 0.0210618 -6.38142e-21)
(0.961075 0.0217869 -6.78992e-21)
(0.961818 0.0192041 -1.7908e-20)
(0.66362 0.19116 -7.86578e-20)
(0.643289 0.197382 -6.6634e-21)
(0.661816 0.214085 -4.37788e-20)
(0.987492 -0.000732379 1.78917e-20)
(0.986933 -0.00131693 5.7019e-21)
(0.722683 -0.084659 2.01215e-22)
(0.644217 -0.0806286 -1.16961e-22)
(0.717849 -0.0840289 3.00498e-20)
(0.809035 0.598496 -1.6747e-21)
(0.816607 0.569117 3.35902e-21)
(0.78187 0.570281 -4.33694e-21)
(0.967424 0.0107361 -7.79667e-21)
(0.967999 0.00858388 -4.19649e-21)
(1.02332 0.0107649 0)
(1.02337 0.0113097 -1.43116e-21)
(1.02272 0.0108345 1.1818e-21)
(1.05676 0.0965116 0)
(1.05316 0.0969964 6.75224e-21)
(1.0557 0.100774 0)
(1.11341 -0.0242417 -3.80701e-21)
(1.11477 -0.0258653 -1.2698e-20)
(1.11494 -0.0232247 0)
(0.112105 -0.15367 4.3396e-20)
(0.0727705 -0.162965 -1.15126e-19)
(1.10768 -0.0452524 -2.23243e-20)
(1.1091 -0.0459007 5.80488e-21)
(1.10754 -0.0465918 -1.53125e-20)
(1.02323 0.179969 1.99201e-22)
(1.02633 0.175126 3.38222e-21)
(1.03082 0.179196 3.27334e-21)
(1.0783 0.0618165 -2.71936e-21)
(1.07625 0.0638026 1.02968e-20)
(1.07552 0.0608851 9.69125e-21)
(-0.0342013 0.0453913 -6.89496e-21)
(-0.0528352 0.0514874 -3.62094e-20)
(-0.0854794 0.0439949 8.02549e-21)
(1.05609 0.134743 -4.37664e-22)
(1.05894 0.129867 0)
(1.11267 -0.0856481 -5.63966e-21)
(1.13582 -0.082838 -1.43013e-20)
(1.13976 -0.0816752 8.91556e-21)
(-0.137027 -0.0112378 2.89977e-20)
(-0.113362 -0.014741 2.56543e-20)
(1.29029 -0.0108721 -4.68403e-21)
(1.23744 -0.0112032 -2.81456e-20)
(0.941513 0.0429925 4.87411e-21)
(0.938714 0.0445984 -3.01569e-20)
(0.938586 0.0409795 1.41552e-20)
(0.789097 -0.0293835 2.73007e-20)
(0.783402 -0.0209129 2.47525e-20)
(0.777555 -0.0318776 -7.70663e-21)
(0.999997 0.00230838 -7.72534e-22)
(1.00002 0.00223093 2.83548e-21)
(0.999982 0.0019093 2.81551e-21)
(1.12283 -0.0503576 -1.02368e-20)
(1.12393 -0.0483964 -6.80139e-21)
(1.09265 -0.0494653 9.09575e-21)
(1.09159 -0.048776 2.00457e-20)
(1.08905 -0.0579018 0)
(1.08974 -0.0582937 0)
(1.06014 0.0212672 1.04248e-20)
(1.05911 0.0201245 -2.25972e-21)
(1.12569 -0.0169592 2.23592e-20)
(1.12424 -0.0185077 2.74843e-20)
(1.12664 -0.0192043 2.90392e-20)
(1.03171 0.0203105 2.51303e-21)
(1.03251 0.0209203 -1.00622e-21)
(1.03149 0.0211802 -2.33189e-21)
(0.837687 -0.00909423 -1.02763e-20)
(0.833162 -0.00190546 5.95737e-20)
(1.0484 0.173991 1.51131e-20)
(1.0412 0.173427 -9.46577e-21)
(1.04645 0.167345 -1.20442e-21)
(-0.301726 -0.00259588 4.88536e-20)
(-0.319152 -0.0015357 1.05896e-20)
(-0.288204 -0.00274597 -2.56501e-20)
(1.08872 -0.0521341 -1.08696e-20)
(1.08927 -0.0529612 -8.82905e-21)
(1.08971 -0.052022 -1.00952e-20)
(1.01311 0.0548332 2.50835e-22)
(1.01304 0.0566141 -7.179e-22)
(1.01128 0.0553944 8.83764e-22)
(0.82524 -0.087362 0)
(0.816767 -0.0881838 0)
(0.88801 -0.0881617 0)
(1.01528 0.197834 2.41441e-21)
(1.01237 0.202797 1.45258e-21)
(1.02016 0.202651 2.56399e-21)
(0.261303 -0.0318956 -2.66632e-22)
(0.277515 -0.034746 2.21805e-21)
(0.150336 0.0787478 5.00413e-20)
(0.150957 0.116102 -1.29876e-20)
(0.737329 -0.0858782 1.17671e-20)
(0.805386 -0.0868153 0)
(1.0122 0.0260407 7.46791e-23)
(1.01287 0.0267118 -1.88597e-22)
(1.01202 0.0268872 -4.95998e-22)
(1.18659 0.124609 1.64909e-20)
(1.18286 0.120348 -5.91677e-21)
(1.11892 0.110999 0)
(1.11745 0.106377 0)
(1.02541 0.0126883 2.89149e-21)
(1.0247 0.0122049 2.57665e-21)
(1.00032 0.00425386 -5.98594e-21)
(1.00041 0.00459016 -8.51436e-23)
(0.936532 0.115595 -1.06213e-20)
(0.93264 0.11163 -1.91913e-20)
(0.938713 0.111114 -1.22063e-20)
(0.599271 -0.0584018 -1.15722e-21)
(0.595186 -0.0586365 -2.5629e-20)
(1.25778 0.133828 -9.81594e-20)
(1.26552 0.13192 1.73901e-20)
(1.26642 0.139153 -4.40851e-20)
(-0.0157757 0.0453535 3.78246e-20)
(0.0532359 0.0601236 -4.71674e-21)
(1.11506 0.0383485 8.18916e-21)
(1.11469 0.040927 -1.09018e-20)
(1.11734 0.0396345 -3.39364e-20)
(1.09534 -0.056603 0)
(1.09458 -0.056867 0)
(1.09513 -0.0574861 0)
(1.11507 -0.0730577 -2.67458e-21)
(1.11968 -0.0742386 8.65853e-21)
(1.12226 -0.074757 -5.12684e-21)
(-0.023742 0.0178744 -1.71677e-20)
(-0.0373576 0.0172532 4.75653e-20)
(1.25124 0.178513 -5.21766e-20)
(1.25166 0.171717 -1.10386e-20)
(1.25967 0.175871 -4.59633e-21)
(0.999676 0.00786222 1.06372e-22)
(0.999769 0.00747589 6.07675e-21)
(0.999602 0.00735517 -5.15988e-21)
(0.567027 0.0510764 -2.22028e-20)
(0.572615 0.0710993 1.00683e-19)
(0.547809 0.065315 7.37825e-20)
(0.796925 0.0306265 -5.7478e-21)
(0.796064 0.0417899 -2.80369e-20)
(1.0095 0.000377847 -5.59552e-22)
(1.00914 0.000373187 -3.54317e-22)
(1.02259 0.0244301 -6.51586e-22)
(1.02366 0.0245499 -2.25736e-21)
(0.868144 0.460202 -1.69873e-21)
(0.862879 0.432954 9.49879e-21)
(0.889903 0.44174 5.32046e-21)
(1.22635 0.487606 0)
(1.22921 0.467436 1.77642e-20)
(1.13649 0.440684 -8.25252e-20)
(1.07442 -0.00305423 0)
(1.07547 -0.00385458 0)
(1.07582 -0.00252951 0)
(1.00307 0.000884977 -3.3965e-22)
(1.00305 0.000551557 7.74037e-22)
(1.11904 -0.0193387 9.64674e-21)
(1.11784 -0.0175633 7.35329e-21)
(1.12048 -0.0176086 -6.48365e-21)
(1.11217 -0.0256819 -1.79272e-20)
(1.11169 -0.023231 -3.78515e-21)
(-0.127566 -0.0192031 -1.49869e-20)
(-0.135211 -0.0185211 3.6724e-20)
(1.24382 -0.0524378 0)
(1.24033 -0.0546347 -2.56893e-20)
(1.23565 -0.0515462 0)
(0.991939 0.0110012 6.50066e-21)
(0.991468 0.0107902 0)
(0.993893 0.0299233 2.19385e-22)
(0.994895 0.0308494 -9.66746e-21)
(1.13565 -0.00804733 -2.14555e-22)
(1.13655 -0.0103315 2.22707e-20)
(0.575358 -0.0621825 6.21583e-21)
(0.631603 -0.0643775 0)
(0.614635 -0.064211 0)
(0.965091 0.0201039 1.78178e-20)
(0.964791 0.0224635 2.54665e-20)
(0.494687 -0.0584539 3.9036e-21)
(0.48507 -0.0587357 -2.73277e-20)
(0.537874 -0.0612695 2.38481e-21)
(-0.183877 -0.0126018 8.79724e-21)
(-0.158421 -0.0148687 6.0146e-20)
(-0.177033 -0.0124555 3.92604e-20)
(1.09565 -0.0557965 -1.61258e-22)
(1.09637 -0.0566731 1.38727e-20)
(1.01562 0.0121975 1.65066e-21)
(1.01606 0.012697 -9.8584e-22)
(0.493567 0.386231 2.29103e-20)
(0.513306 0.421199 5.10486e-20)
(0.460243 0.422162 -9.87189e-21)
(1.1282 -0.0076759 2.05362e-20)
(1.13069 -0.00792073 1.96556e-20)
(1.1295 -0.00558317 -2.4901e-21)
(-0.287386 -0.00875178 -7.00381e-20)
(-0.255435 -0.0118659 7.46631e-20)
(-0.273176 -0.00827922 9.47526e-20)
(1.0027 0.0178501 -4.33698e-21)
(1.00308 0.0182493 -1.11578e-21)
(1.0027 0.0186171 0)
(0.749797 0.0768568 -2.04856e-20)
(0.70452 0.0745885 -5.30955e-20)
(1.01147 0.0252642 4.4624e-22)
(1.01231 0.0251965 2.9676e-22)
(1.19096 0.0643913 -3.05566e-20)
(1.18709 0.0621762 -2.29689e-20)
(1.1871 0.0665818 1.97197e-20)
(1.00826 0.00117422 0)
(1.00805 0.000813442 0)
(0.115133 -0.0378247 -1.75424e-21)
(0.0900561 -0.0354738 -2.00886e-20)
(0.109197 -0.0363427 -4.10258e-21)
(0.444595 -0.0719426 3.48005e-20)
(0.434132 -0.0714467 1.60532e-20)
(0.512239 -0.0727452 6.94939e-20)
(0.994774 0.0935796 -6.54921e-21)
(0.998357 0.0923484 -5.67532e-21)
(1.17759 0.482198 -1.29612e-20)
(1.22007 0.494693 -1.14894e-20)
(1.18866 0.463762 -1.44654e-20)
(1.08112 0.0624209 -9.38624e-21)
(1.07972 0.0596484 -1.73079e-20)
(1.01494 0.0120652 7.09309e-22)
(1.01507 0.011532 3.28842e-21)
(1.10685 -0.0702783 5.51302e-21)
(1.1141 -0.0714311 -1.61882e-21)
(1.08773 -0.0522775 1.78323e-20)
(1.08815 -0.0512766 9.57937e-21)
(1.1129 0.0371006 1.88098e-20)
(1.11523 0.0358417 1.34212e-20)
(0.688305 -0.0730651 1.3525e-20)
(0.641883 -0.0718489 1.28614e-24)
(0.710015 -0.0729471 2.49851e-20)
(-0.192634 -0.009284 -1.26252e-21)
(-0.213543 -0.0084849 -3.83946e-20)
(1.01199 0.00306994 3.28172e-22)
(1.01239 0.00312163 -2.7874e-22)
(1.01218 0.00269971 1.57361e-21)
(1.06487 0.0881364 -8.17031e-21)
(1.06419 0.0918798 -1.58576e-20)
(0.0176709 -0.0373976 4.51556e-20)
(0.0312234 -0.0382768 9.59248e-21)
(-0.126269 0.0160276 7.51312e-21)
(-0.15497 0.0136608 7.92971e-20)
(-0.129807 0.0164556 -2.82304e-21)
(0.999983 0.00227538 -3.3214e-21)
(0.999964 0.00264921 -3.38641e-23)
(1.00594 0.00879134 -1.73364e-23)
(1.00635 0.00903316 -8.85772e-24)
(1.00611 0.00923694 5.63915e-22)
(0.320772 -0.0103328 -1.00045e-20)
(0.339298 -0.0131187 2.0533e-21)
(1.13143 -0.0522984 1.8981e-20)
(1.12966 -0.0524341 -7.32895e-21)
(1.13042 -0.0543011 -5.66765e-21)
(1.00006 0.000131948 4.40087e-22)
(1.00003 0.000101239 -1.14634e-21)
(1.00006 0.000165757 -1.04485e-21)
(1.09536 -0.0680864 1.91e-21)
(1.09412 -0.0676892 1.98381e-20)
(1.09512 -0.0669684 6.82009e-24)
(1.17565 0.00603734 0)
(1.17413 0.00271687 -2.0917e-20)
(1.17165 0.00612873 0)
(0.798355 -0.029251 -5.81541e-21)
(0.793849 -0.0389206 -3.73702e-20)
(1.09209 0.105871 3.00376e-21)
(1.09514 0.10938 -5.33349e-21)
(1.09571 0.104328 6.23148e-21)
(1.00001 0.00261768 2.75747e-21)
(1.00004 0.00221868 8.32529e-22)
(0.981128 0.209293 -1.58069e-21)
(0.982526 0.199629 0)
(0.972796 0.203851 0)
(-0.152366 -0.0129429 -1.46978e-20)
(-0.149328 -0.0119717 -2.77452e-20)
(-0.182364 -0.00810426 1.21469e-20)
(1.04012 0.00332093 -7.14667e-21)
(1.04033 0.00268002 -5.56618e-21)
(1.04108 0.00318234 3.29277e-21)
(1.20322 0.14044 2.65578e-20)
(1.19756 0.143894 -5.39774e-20)
(1.19813 0.135981 -5.55386e-20)
(0.568135 0.158294 9.23132e-20)
(0.583557 0.179021 4.41659e-20)
(0.553694 0.184299 5.12617e-20)
(1.03316 0.0262413 8.77463e-22)
(1.0342 0.0260998 -6.16498e-22)
(0.995116 0.0270706 1.76653e-21)
(0.994143 0.0274093 -1.89625e-21)
(1.10366 -0.0393179 1.16773e-21)
(1.10507 -0.0402259 3.62604e-21)
(1.10342 -0.0407965 4.28908e-21)
(0.353463 -0.0186039 -3.27837e-21)
(0.338196 -0.0160846 1.1451e-21)
(0.336121 -0.0162013 -2.17842e-20)
(1.10623 -0.044868 -1.10102e-20)
(1.1078 -0.043916 3.91344e-21)
(0.93947 0.119987 -2.1036e-21)
(0.933868 0.121148 -6.65355e-21)
(0.977355 0.0949176 -3.45459e-21)
(0.974746 0.0986896 6.99221e-21)
(1.00005 0.000286791 0)
(1.00005 0.000249267 1.11396e-21)
(1.00002 0.000168747 0)
(0.110438 -0.010147 0)
(0.117695 -0.0106051 0)
(0.603918 -0.0472199 4.58428e-20)
(0.692959 -0.051043 2.00569e-20)
(0.686608 -0.0480754 1.68935e-20)
(1.0921 -0.0672405 1.50657e-20)
(1.09515 -0.0676315 2.02646e-20)
(1.0993 -0.0680186 1.31635e-20)
(1.01442 0.0119898 -1.76369e-21)
(1.01488 0.0125288 -1.38085e-21)
(-0.171638 -0.0168597 3.61642e-20)
(-0.144205 -0.0203494 -2.22024e-20)
(-0.155898 -0.0185556 2.88685e-20)
(0.0144659 -0.0146996 2.99949e-21)
(0.0196499 -0.013295 0)
(-0.00496722 -0.0102455 0)
(1.07101 -0.0855914 6.81952e-21)
(1.08523 -0.0848971 -2.6919e-21)
(0.522641 -0.0474004 -1.40352e-21)
(0.493205 -0.0465083 -8.07516e-21)
(1.08377 -0.0513095 8.77625e-21)
(1.08285 -0.051632 0)
(1 0.00302568 -1.72416e-22)
(1.00629 0.00072165 -1.60395e-23)
(1.00596 0.000770391 -1.27807e-22)
(1.00636 0.00113419 2.11663e-22)
(1.13696 0.0106857 1.64063e-22)
(1.13428 0.0106371 -2.05334e-20)
(1.13598 0.00819753 1.71092e-22)
(0.0420896 -0.0297909 -5.25629e-20)
(0.0237801 -0.0260553 -9.06846e-21)
(0.0176158 -0.0259491 6.38297e-21)
(1.15808 -0.0319424 0)
(1.16029 -0.0303143 2.59519e-20)
(1.1605 -0.033841 0)
(1.0681 0.041989 6.15533e-21)
(1.06993 0.0407267 1.02979e-20)
(1.24277 -0.0515184 1.32939e-20)
(1.21959 -0.0587528 -1.44373e-20)
(1.07722 -0.0361541 0)
(1.07638 -0.0354603 7.47794e-21)
(1.01771 0.00102649 -2.30449e-21)
(1.01768 0.00127967 0)
(1.01793 0.00114697 1.46502e-21)
(0.953154 0.0236809 -7.92569e-21)
(0.945851 0.017765 1.80748e-20)
(0.852966 0.00544954 9.40022e-20)
(1.00195 0.00480864 -1.85257e-21)
(1.00195 0.00459744 1.33572e-21)
(1.00176 0.00446342 5.96607e-23)
(0.82471 -0.0877153 0)
(0.754534 -0.0867653 -1.50146e-20)
(1.07325 -0.0019444 0)
(1.07284 -0.00329821 0)
(1.00006 0.000102224 1.22936e-21)
(1.0001 0.000160789 1.93797e-21)
(1.00121 0.107255 -5.68244e-21)
(1.00003 0.111914 -4.43142e-21)
(0.997191 0.107535 5.57538e-23)
(1.0214 0.185716 -5.37004e-21)
(1.01691 0.180385 -4.11931e-21)
(0.778105 -0.0111092 0)
(0.788402 -0.0106044 4.69817e-21)
(1.10131 -0.0688698 1.86181e-20)
(1.09701 -0.0682941 0)
(0.998928 0.141543 -2.44615e-21)
(0.999227 0.147643 -1.71161e-21)
(0.993214 0.143618 3.00453e-21)
(1.04318 0.00900924 1.83393e-20)
(1.04381 0.00981166 -4.96926e-21)
(1.04274 0.00964309 2.80539e-21)
(1.2461 0.00551047 2.94174e-20)
(1.24967 0.00997169 0)
(1.26558 0.00636809 -3.37834e-20)
(0.727615 -0.0738775 -4.90874e-21)
(0.662583 -0.0740587 6.79002e-21)
(0.526736 -0.0522226 2.5276e-20)
(0.531327 -0.0504849 -2.11168e-21)
(1.00228 0.0176127 -8.0614e-22)
(1.00263 0.0172694 -2.91403e-21)
(1.05716 -0.0871381 5.03566e-21)
(1.09656 -0.0862059 0)
(1.04734 -0.0873137 -3.00403e-20)
(0.998496 1.63629e-06 1.33039e-21)
(0.998389 0.000262539 2.68497e-21)
(0.998209 2.6437e-05 1.14412e-21)
(1.04278 0.00820155 3.89536e-21)
(1.04385 0.00829812 9.44274e-21)
(1.00073 0.0128275 4.45962e-21)
(1.00109 0.0131558 5.87388e-21)
(0.83889 0.62871 -1.32666e-20)
(0.791679 0.634712 -1.21887e-21)
(1.00157 0.000918516 0)
(1.0017 0.000801445 0)
(1.00146 0.00072013 -1.55497e-22)
(1.19459 0.0663809 -1.68115e-21)
(1.19458 0.0620704 -2.64532e-20)
(1.08844 0.108337 -2.37247e-21)
(1.08866 0.103329 -8.79904e-21)
(1.03085 0.0196326 -3.28336e-21)
(1.03186 0.0194266 5.85968e-21)
(1.12004 -0.0211749 1.99813e-21)
(1.11747 -0.0204619 1.61632e-20)
(1.03667 0.0569889 -6.25566e-22)
(1.03757 0.0552845 2.47148e-21)
(1.03892 0.0570584 -2.12569e-22)
(0.119517 0.0581544 -1.31857e-19)
(0.106989 0.0420689 5.08454e-20)
(0.104562 0.0743727 -1.56394e-19)
(1.01888 0.192448 1.02161e-21)
(1.0115 0.192856 3.10467e-21)
(1.17151 0.12244 9.49016e-21)
(1.16854 0.128764 -2.67894e-21)
(1.02959 0.0138348 3.32393e-21)
(1.03026 0.0144558 1.35936e-22)
(1.03031 0.0136232 2.40381e-21)
(0.996034 0.0267173 -5.29838e-21)
(0.995197 0.0259343 -5.58817e-21)
(-0.184375 -0.0109263 -1.05832e-19)
(-0.207548 -0.0104672 -4.58707e-20)
(-0.212876 -0.0103631 -2.18342e-21)
(0.110972 -0.0131091 7.0475e-24)
(0.102939 -0.0125619 2.96796e-21)
(0.12565 -0.016749 6.31244e-21)
(1.00087 0.0147877 1.16113e-21)
(1.0012 0.0144784 1.48376e-21)
(1.00698 0.000663894 0)
(1.00741 0.00089571 1.82288e-22)
(1.00701 0.00117797 -1.72277e-22)
(0.944137 0.0231103 2.56736e-21)
(1.06346 0.0318329 -3.77491e-21)
(1.01526 0.0246157 -1.68235e-22)
(1.0155 0.0255792 -2.27985e-22)
(1.0163 0.0251133 -1.17585e-21)
(-0.0592262 -0.0291902 2.55331e-20)
(-0.0769752 -0.0265309 3.73511e-20)
(1.02886 0.0133962 0)
(1.02885 0.0142048 0)
(0.120098 -0.0388358 0)
(0.140218 -0.0405278 0)
(1.04661 -0.00472375 -8.74918e-22)
(1.0461 -0.00534471 5.54971e-21)
(1.04698 -0.00538954 -3.33593e-21)
(1.2161 0.320411 -3.74005e-20)
(1.20375 0.31961 -9.7576e-21)
(1.20888 0.332502 -4.08458e-20)
(1.09948 0.00125164 -5.38453e-20)
(1.09949 0.00319577 -1.39935e-20)
(1.1015 0.00213849 8.61113e-21)
(0.0977301 0.306324 8.05717e-21)
(0.0960813 0.266109 -6.1441e-20)
(0.131254 0.283659 -5.57796e-21)
(0.944713 0.0441733 1.42538e-20)
(0.944263 0.0407605 4.85626e-21)
(1.30004 -0.00288162 4.71033e-20)
(1.29866 -0.00336715 -8.78716e-22)
(0.516478 0.293088 6.26716e-21)
(0.489623 0.303524 1.23228e-20)
(0.517686 0.325609 1.28625e-20)
(1.0052 0.107471 -2.13773e-21)
(1.00276 0.104152 1.77339e-21)
(1.13242 -0.0508896 1.83568e-21)
(1.13331 -0.0527887 0)
(0.953225 0.507871 0)
(0.970527 0.525914 0)
(0.941168 0.531181 1.91615e-22)
(0.996527 0.0431137 -7.17322e-23)
(0.99504 0.0426041 -2.23746e-21)
(0.995445 0.0444388 8.60342e-22)
(0.199968 -0.031879 8.41529e-21)
(0.174074 -0.0280004 2.66377e-21)
(0.184607 -0.0287749 1.16198e-20)
(0.582075 0.0398822 -9.27574e-20)
(0.56138 0.0309707 -1.42967e-20)
(0.0309779 -0.0174822 1.20084e-20)
(0.0123624 -0.0150329 7.08316e-22)
(0.923079 0.0172994 1.81812e-20)
(0.91948 0.0185318 1.73716e-21)
(0.922282 0.0213157 -5.30971e-22)
(0.217792 -0.0110089 4.34892e-21)
(0.192866 -0.00781594 -1.45963e-20)
(0.220769 -0.0103025 -7.21845e-23)
(1.06801 0.0871818 -7.67556e-21)
(1.07042 0.0905236 -2.66171e-21)
(1.07139 0.0869191 -7.14881e-21)
(-0.102768 -0.00163534 -1.00073e-19)
(-0.071795 -0.00105264 -5.14611e-20)
(-0.0607622 -0.00226026 -3.6007e-20)
(0.522799 0.26196 -9.59078e-21)
(0.54825 0.285121 -5.55231e-20)
(0.928834 0.34913 -4.64698e-21)
(0.912235 0.346793 1.5585e-21)
(0.921413 0.364367 -6.89665e-21)
(0.946975 0.354535 2.67174e-21)
(0.938525 0.33614 5.27738e-22)
(0.533981 -0.0657007 2.92873e-20)
(0.505635 -0.0658552 2.28701e-20)
(0.999752 0.00233191 -9.40131e-23)
(0.999684 0.00259353 -5.84853e-22)
(0.999716 0.0026412 -4.60121e-21)
(1.05529 0.172815 7.40934e-21)
(1.05236 0.179793 1.38169e-20)
(-0.127126 -0.0152839 -5.21946e-20)
(-0.141266 -0.0142884 -3.58672e-20)
(0.983159 0.0289177 0)
(0.982229 0.0297943 -5.49349e-21)
(0.981905 0.0281145 -1.30696e-20)
(1.00222 0.0728675 -1.10009e-21)
(1.00299 0.0704905 7.03394e-21)
(1.00026 0.0709675 1.26332e-21)
(0.0362067 -0.0140684 -1.36638e-20)
(0.043268 -0.0139654 1.01074e-20)
(0.844964 0.478975 7.27406e-21)
(0.877415 0.486987 -3.7646e-21)
(1.01678 0.0515807 1.1745e-22)
(1.01675 0.0531814 0)
(1.0186 0.0526418 7.39807e-22)
(1.11175 -0.0720453 -9.74658e-21)
(1.1099 -0.0718192 2.91162e-21)
(0.681335 0.551252 0)
(0.70751 0.522987 0)
(1.00899 0.0049748 2.49897e-22)
(1.00942 0.00522914 5.44098e-22)
(1.00935 0.00475305 -8.06374e-22)
(0.157292 -0.0111161 -1.66671e-20)
(0.13631 -0.00805746 0)
(1.11274 -0.0718174 1.98844e-20)
(1.1186 -0.0729382 2.56558e-20)
(1.109 -0.071312 -8.83054e-21)