/*--------------------------------*- C++ -*----------------------------------*\
| =========                 |                                                 |
| \\      /  F ield         | OpenFOAM: The Open Source CFD Toolbox           |
|  \\    /   O peration     | Version:  v2012                                 |
|   \\  /    A nd           | Website:  www.openfoam.com                      |
|    \\/     M anipulation  |                                                 |
\*---------------------------------------------------------------------------*/
FoamFile
{
    version     2.0;
    format      ascii;
    class       volScalarField;
    location    "400";
    object      k;
}
// * * * * * * * * * * * * * * * * * * * * * * * * * * * * * * * * * * * * * //

dimensions      [0 2 -2 0 0 0 0];


internalField   nonuniform List<scalar> 
13851
(
0.000158371
0.0134445
0.000199558
0.000157314
0.000201963
0.000226568
0.000146462
0.000179801
0.000140018
0.000204457
0.000969054
0.0235102
0.000368883
0.0337925
0.000143899
0.000164219
0.000155843
0.000164107
0.00031371
0.000139808
0.00015663
0.000198442
0.000146672
0.000153453
0.000148164
0.000180335
0.000155263
0.00288747
0.000157676
0.000155206
0.000264949
0.000156484
0.000197461
0.00509868
0.000153522
0.000252173
0.000319641
0.000253994
0.000209448
0.0038239
0.000146076
0.00013236
0.0055156
0.0023306
0.00250062
0.0175539
0.00431259
0.00745478
0.000155792
0.000203174
0.000201089
0.000234323
0.0103064
0.000145607
0.000154465
0.000132513
0.000144707
0.0143235
0.000155024
0.00014706
0.000253151
0.00886479
0.000198918
0.000208941
0.0217083
0.000163529
0.00032329
0.00493751
0.000170025
0.000164201
0.0132954
0.00031023
0.00682258
0.000146468
0.00014147
0.000143283
0.000196977
0.00920015
0.000182235
0.0161089
0.000148778
0.00338847
0.000143993
0.0147188
0.000201132
0.0226734
0.00020727
0.0501477
0.0001572
0.000145005
0.000252858
0.00020051
0.00498446
0.000160985
0.000156893
0.000150736
0.000203484
0.00760993
0.000207846
0.000150694
0.0236074
0.000185732
0.000152406
0.000154807
0.000143784
0.000219434
0.000189722
0.000131461
0.000321076
0.000229871
0.000153595
0.00014608
0.000189339
0.000155969
0.000153622
0.00477876
0.00557214
0.000131496
0.000155792
0.000158265
0.00517053
0.000154562
0.00036963
0.00903887
0.00657632
0.000154849
0.00840338
0.000183993
0.000155877
0.000229973
0.000145785
0.000139049
0.0145928
0.000143918
0.00444913
0.000140727
0.00013157
0.000316214
0.0235274
0.0347807
0.0227529
0.000154117
0.00015613
0.000136393
0.000152652
0.00253303
0.000264994
0.000230676
0.000146266
0.00215822
0.000203644
0.000154367
0.0333594
0.000145289
0.000152188
0.000152527
0.00014202
0.000152986
0.000233972
0.00020023
0.000135078
0.000161487
0.0137425
0.000138944
0.000158144
0.00013413
0.000323061
0.000170693
0.000155322
0.0091801
0.00881851
0.000136592
0.000142208
0.0359028
0.000138826
0.00554792
0.000182624
0.000155062
0.000318611
0.000131887
0.000157531
0.000313889
0.000143781
0.000201228
0.000133157
0.000147729
0.000163786
0.000148902
0.000206732
0.000200794
0.00458181
0.0116409
0.000150121
0.000169796
0.00861707
0.000151786
0.000154336
0.00340053
0.000153944
0.000143563
0.000154714
0.0252541
0.00016431
0.000143652
0.000192485
0.000143898
0.0125779
0.000156313
0.0136222
0.000132813
0.000599314
0.000151951
0.00691213
0.000131424
0.00013543
0.000338261
0.000195262
0.0162532
0.000143324
0.0131235
0.000156588
0.000149028
0.000604096
0.000229696
0.00251085
0.000148626
0.000163872
0.000145197
0.0137089
0.000131566
0.000178955
0.012502
0.000136501
0.000148475
0.00019631
0.000174836
0.0119744
0.0330728
0.000136227
0.000143773
0.000274418
0.000698177
0.000143878
0.000195339
0.000141705
0.005228
0.000186354
0.00467592
0.000152691
0.000156336
0.000192732
0.0010717
0.0001491
0.000152791
0.000187593
0.000707595
0.000197518
0.000319841
0.00632878
0.000144113
0.00013561
0.000163388
0.000646862
0.000140988
0.000353036
0.00015174
0.000148945
0.000160234
0.000422667
0.000420428
0.00019117
0.000152182
0.000390947
0.000180326
0.000163072
0.00013914
0.00326232
0.000240443
0.00368883
0.000837578
0.000143987
0.00013234
0.000143447
0.000185925
0.00147607
0.00618556
0.000141506
0.000143953
0.000388572
0.00333584
0.000238726
0.00015429
0.000147178
0.000172736
0.00346222
0.000344552
0.000157345
0.0234552
0.000139334
0.00389817
0.000160829
0.000155582
0.00251976
0.000148677
0.000220858
0.00228496
0.000141184
0.000180265
0.000161103
0.000154017
0.0183564
0.000157512
0.000148908
0.00150499
0.000132813
0.000156703
0.000158342
0.00184275
0.000228881
0.000143355
0.000187214
0.000143553
0.007605
0.000192096
0.000146928
0.000144605
0.000227551
0.000162848
0.000151983
0.000143971
0.000148509
0.000148779
0.00148054
0.0289865
0.00909509
0.000171043
0.00126941
0.00068638
0.000143546
0.000170493
0.000238751
0.000191662
0.00018985
0.000225173
0.000314611
0.000169294
0.00939291
0.00263547
0.000144125
0.000182612
0.000185038
0.000304034
0.000151964
0.000186693
0.014325
0.000142548
0.0108745
0.000144525
0.000143599
0.000139995
0.000131559
0.000141308
0.00119105
0.00523394
0.000145131
0.000178648
0.000133468
0.0248927
0.000169356
0.010982
0.00912736
0.000145404
0.00020136
0.000161047
0.00903998
0.000144779
0.0001316
0.000198592
0.0225674
0.000145034
0.0157611
0.00019415
0.000230241
0.0104647
0.000247917
0.000247393
0.000179209
0.000139405
0.000149852
0.000169132
0.000186881
0.035717
0.000170853
0.00124959
0.00220211
0.00013358
0.000144211
0.00919054
0.0163889
0.00946557
0.00371187
0.000195765
0.000161973
0.000150082
0.000304687
0.000138082
0.00016385
0.000175178
0.000145772
0.000144552
0.000140902
0.000134008
0.000207926
0.000183653
0.00849069
0.000166004
0.000189232
0.000180316
0.00096595
0.000157206
0.000301954
0.000155081
0.000204515
0.000131478
0.000140611
0.000149257
0.000275754
0.00608588
0.000226963
0.000178306
0.00757355
0.00564415
0.000205369
0.000160742
0.000197233
0.000144459
0.000961485
0.000143566
0.00082373
0.00232846
0.000194674
0.0129305
0.00015603
0.000638704
0.00317715
0.0219446
0.000131757
0.000163924
0.000183371
0.000420304
0.000137421
0.000148912
0.000200674
0.000229404
0.000171045
0.0347751
0.000148614
0.000145225
0.00876585
0.000159122
0.00013206
0.0499917
0.000139338
0.000158409
0.000138355
0.000169524
0.000152373
0.000132482
0.000155247
0.00100287
0.00014412
0.000173295
0.000139966
0.000175757
0.00027679
0.000156774
0.000145724
0.000156186
0.000156071
0.00328458
0.000148802
0.000215244
0.000143715
0.000148355
0.026021
0.013047
0.000144136
0.000177724
0.000157477
0.000679459
0.0146931
0.000145355
0.00521743
0.00014511
0.000201145
0.000146302
0.0145882
0.000132918
0.00959414
0.000197937
0.000132482
0.000177841
0.00980133
0.000179787
0.00428683
0.000155429
0.00529515
0.000157926
0.000138502
0.000139291
0.000145733
0.0184862
0.00019601
0.000235106
0.000317005
0.000193234
0.000135673
0.000382844
0.00550269
0.000157846
0.000161703
0.000284942
0.00760723
0.000377684
0.000152032
0.0152872
0.0179827
0.0253036
0.000158209
0.000179312
0.00892462
0.000467155
0.000476679
0.00491099
0.00342988
0.000153445
0.0038042
0.000346136
0.000131693
0.000231669
0.000197115
0.0116224
0.000152948
0.000143005
0.00014174
0.000144664
0.000206027
0.000170078
0.0500136
0.0349421
0.000139941
0.00775963
0.0116821
0.0002373
0.00477829
0.000172547
0.000131534
0.00014033
0.000691209
0.000373765
0.000152424
0.000212269
0.000252267
0.000132397
0.000187552
0.00667485
0.000263162
0.000223652
0.0184934
0.000342201
0.00014545
0.000145899
0.01787
0.00272215
0.000233672
0.000170678
0.000208693
0.000131752
0.000142382
0.00124041
0.000132156
0.00015286
0.000131771
0.000139379
0.000346015
0.000206643
0.000174938
0.000132067
0.0134176
0.00413026
0.000139482
0.000142479
0.000141638
0.000148999
0.0215215
0.00503834
0.00621462
0.0246243
0.00504212
0.000168551
0.00997835
0.0138233
0.000171854
0.000170525
0.000131518
0.000159414
0.000166913
0.000420129
0.00635806
0.000211479
0.000161833
0.00013928
0.000163057
0.000155401
0.00436018
0.000200294
0.000143611
0.000171302
0.000137415
0.000159986
0.000228529
0.000146706
0.000144134
0.000169653
0.000146787
0.000202485
0.000268102
0.00022625
0.000163082
0.000236913
0.000139077
0.00171515
0.000194959
0.0219447
0.00015154
0.000151595
0.000322379
0.000155867
0.0115176
0.0039782
0.0154149
0.0460887
0.000138023
0.000308069
0.000147817
0.000139356
0.000132908
0.000139441
0.00018433
0.0001675
0.000167542
0.000131862
0.00179984
0.000200591
0.00291547
0.000141106
0.000134473
0.000143539
0.00023642
0.00847608
0.000188686
0.000160422
0.00014925
0.000149117
0.000147103
0.000142664
0.000293649
0.0316713
0.000146512
0.000131764
0.000145867
0.000142558
0.000333915
0.0124973
0.000163875
0.00891215
0.0057247
0.000143844
0.000233584
0.0229529
0.000172279
0.0229318
0.000148731
0.000163331
0.000187916
0.000164606
0.00633969
0.000144009
0.00849633
0.000144258
0.000166209
0.0127568
0.000144652
0.000154725
0.000204795
0.000138619
0.000156785
0.000586107
0.0377204
0.000198892
0.000337854
0.000309742
0.000131542
0.000140876
0.025023
0.000249857
0.000177285
0.00298248
0.000138977
0.000165462
0.000131786
0.00509691
0.000332875
0.000156084
0.000150939
0.000153446
0.000155479
0.000143311
0.00808069
0.00093016
0.0105028
0.000132673
0.00014636
0.00968615
0.00824039
0.000244456
0.000153942
0.000338443
0.000144009
0.000191414
0.00022857
0.000197128
0.000155406
0.0150868
0.000185839
0.000158165
0.000315886
0.000150985
0.000164375
0.000152689
0.000138867
0.00877456
0.000164591
0.00022469
0.000173612
0.00019541
0.000139533
0.000552008
0.000155109
0.000184681
0.000135048
0.000143302
0.000145003
0.00300095
0.000141532
0.000131878
0.00381429
0.00014614
0.0112871
0.000145274
0.000155422
0.000200271
0.000692647
0.005038
0.000141653
0.000313241
0.00804189
0.000148952
0.000447248
0.00016577
0.00013852
0.000174688
0.00661121
0.000283469
0.000156262
0.000141012
0.000131572
0.00365827
0.000202093
0.000184719
0.000157083
0.000175405
0.000149807
0.000154636
0.00021167
0.00640366
0.000205394
0.00315619
0.000146122
0.000202135
0.000208314
0.00179861
0.000156069
0.028678
0.000303
0.000146272
0.0203744
0.000540412
0.00724028
0.038175
0.00411808
0.00473249
0.000172938
0.00013869
0.000168845
0.0151702
0.01857
0.000143985
0.000148718
0.00019745
0.00174851
0.000132475
0.0103006
0.000138648
0.00014493
0.00915562
0.00944189
0.00033352
0.00013932
0.000143702
0.00943002
0.000287788
0.000228397
0.000160255
0.00936445
0.000264106
0.00761624
0.000188979
0.000177777
0.000148997
0.000146156
0.00591541
0.000186122
0.0158009
0.000188365
0.000170167
0.00934333
0.00811424
0.0112542
0.000144608
0.000166592
0.000139392
0.000163969
0.000154645
0.0255794
0.000165281
0.0153595
0.000132362
0.00019906
0.000142979
0.000239752
0.000169396
0.000165981
0.0086193
0.000180696
0.000172069
0.000154291
0.000198993
0.00665837
0.000214238
0.000153057
0.00906444
0.000140142
0.0385321
0.00494404
0.000147722
0.000729067
0.0235458
0.0115835
0.00457093
0.000187387
0.000143798
0.0107327
0.000166099
0.00589563
0.0140804
0.000141095
0.000151751
0.000275266
0.00567963
0.0367445
0.000146439
0.000141458
0.00856381
0.01319
0.000223578
0.000155681
0.000156249
0.00477468
0.012094
0.000209688
0.000131922
0.00017381
0.00013867
0.000160106
0.000203956
0.00015049
0.000542233
0.000674194
0.000145157
0.000156991
0.000144054
0.000152693
0.0115442
0.00974495
0.000163526
0.0257484
0.000142888
0.000163326
0.00014345
0.00013877
0.000147835
0.000145034
0.0135433
0.000144195
0.00018792
0.000144725
0.000156463
0.000204243
0.00755567
0.000155561
0.0277185
0.000187201
0.000326218
0.000165536
0.000166902
0.0137947
0.000160061
0.000172143
0.0251374
0.0032997
0.0100913
0.000175247
0.00150374
0.000150996
0.000178668
0.000186622
0.0355375
0.000145883
0.0384264
0.000140716
0.000141282
0.0358288
0.000151473
0.000355037
0.000155786
0.00013939
0.00018375
0.000139432
0.000143743
0.000157771
0.000148402
0.000303934
0.000141269
0.000286554
0.0116647
0.000187785
0.0381311
0.00014592
0.000155657
0.000161908
0.000144931
0.000139235
0.000206079
0.000148886
0.000141959
0.000151258
0.000148642
0.0105847
0.0318533
0.000209789
0.00500166
0.000303597
0.000142367
0.00684741
0.000161685
0.000141119
0.00514216
0.000211208
0.00773057
0.000141997
0.00360046
0.00607782
0.0164556
0.000136783
0.000369636
0.00016357
0.000154874
0.000164686
0.000139076
0.0126054
0.00039405
0.00508757
0.000144062
0.000143641
0.00779186
0.000147766
0.000438388
0.00476032
0.0302101
0.000321356
0.00450313
0.000148673
0.000145168
0.000198428
0.000175803
0.000154825
0.000233704
0.000177003
0.000149071
0.000155385
0.0344755
0.000142297
0.00973201
0.000353903
0.00522431
0.000263341
0.000152
0.000137693
0.000150077
0.00313502
0.00294987
0.000136779
0.000158431
0.000143719
0.000204397
0.000133177
0.000143212
0.000149201
0.000168277
0.000330392
0.00017234
0.000169465
0.00014544
0.000188147
0.000362062
0.000150232
0.0185314
0.000320221
0.000206948
0.000134585
0.000181405
0.000143001
0.000147313
0.000149608
0.00909044
0.000229025
0.00644515
0.000154958
0.00012391
0.000143302
0.000144364
0.000149001
0.00747482
0.00288135
0.000134471
0.000167721
0.000187114
0.0154664
0.000156782
0.0183601
0.000189018
0.0132185
0.000198234
0.000354316
0.000212444
0.000206037
0.000275385
0.0117989
0.00457392
0.0245105
0.000144774
0.000237168
0.000133029
0.00015313
0.000159375
0.00014722
0.0123217
0.000161938
0.000160677
0.00463246
0.000250678
0.00319501
0.000143444
0.000154069
0.000156453
0.000138771
0.000170994
0.00719553
0.00438716
0.0177513
0.000140603
0.0001603
0.000162422
0.00719144
0.00158409
0.000197585
0.000137386
0.000148544
0.0155654
0.000178463
0.00641235
0.00110308
0.00109649
0.000134344
0.000357627
0.000170769
0.000179428
0.000162217
0.000487676
0.00309375
0.000224923
0.00209613
0.000152688
0.000172357
0.00014485
0.00920073
0.0001787
0.0121812
0.000258341
0.000159059
0.000242717
0.000151639
0.000492116
0.000290891
0.00014273
0.00420653
0.0122349
0.0063452
0.000328686
0.000146798
0.00014547
0.0107324
0.00036214
0.0133547
0.00015561
0.00014589
0.000145269
0.0109257
0.000241117
0.00014833
0.00022019
0.000204109
0.0113943
0.000360524
0.00804389
0.000144115
0.000338935
0.000156151
0.000145477
0.000240711
0.00864929
0.00014656
0.000140742
0.0063075
0.00044041
0.000152088
0.000140474
0.0364442
0.000142451
0.000641119
0.000140611
0.00595683
0.000145582
0.000188534
0.0201369
0.000932541
0.000151133
0.007864
0.000804313
0.00224521
0.000352316
0.0133508
0.00072306
0.000142744
0.000311457
0.000156998
0.000143545
0.000138405
0.00762606
0.00014358
0.000313751
0.000140896
0.000158734
0.00853286
0.000192401
0.000304959
0.000151914
0.000166143
0.000139186
0.000168581
0.000340359
0.0257214
0.000140349
0.000196858
0.00432811
0.000148845
0.000139264
0.0114797
0.000170412
0.000165572
0.000234199
0.0343884
0.00421845
0.000335715
0.00032633
0.00103217
0.00041864
0.0038613
0.0363581
0.000196488
0.000136679
0.000232767
0.000142708
0.000142615
0.0328316
0.0120514
0.000154666
0.0353963
0.000412472
0.0097346
0.000225434
0.000223344
0.000144413
0.000556964
0.000193269
0.000149223
0.000151433
0.00098851
0.00860028
0.0188805
0.000356474
0.000167189
0.0139235
0.00103903
0.000167818
0.000147651
0.000142339
0.00361708
0.000141528
0.000294072
0.00015321
0.000149675
0.000155103
0.000367091
0.000946736
0.0201397
0.000151094
0.000352858
0.000155748
0.000159721
0.000141101
0.000142901
0.0138957
0.000157488
0.0143053
0.00192499
0.000211624
0.000226247
0.00014437
0.000169843
0.000148164
0.000239441
0.000153672
0.000151727
0.000150559
0.000153747
0.000247132
0.000149874
0.00016758
0.000150251
0.000167926
0.000243643
0.0122239
0.000142543
0.000183693
0.000145828
0.000216511
0.000170815
0.000946614
0.000250545
0.000167661
0.000154443
0.000152382
0.00366083
0.000145088
0.000280596
0.000143837
0.00014445
0.000153721
0.0028346
0.000159879
0.000162064
0.000186086
0.000146892
0.000196517
0.00375939
0.000344633
0.000172145
0.000144775
0.00018545
0.00013737
0.000144237
0.000261476
0.0143654
0.000145118
0.000160825
0.000426125
0.000348347
0.000148565
0.000149571
0.0173145
0.000151345
0.000193795
0.00030447
0.000861401
0.000145869
0.000181015
0.000143456
0.00294201
0.000234786
0.000175947
0.000227597
0.0207797
0.000150871
0.000426911
0.00978136
0.000149198
0.000366657
0.00020702
0.000152309
0.0143969
0.000145936
0.000144194
0.000138212
0.000249428
0.00185696
0.000248772
0.000151808
0.000150474
0.000165796
0.0049632
0.000318849
0.000721508
0.00490185
0.000149422
0.000235417
0.000228924
0.0107029
0.000196617
0.00240132
0.000141685
0.000188638
0.000139336
0.00298335
0.00016563
0.000143393
0.0327814
0.000246093
0.000166309
0.000166898
0.00013303
0.000146576
0.000181632
0.00016704
0.00488632
0.000196188
0.000192695
0.00018546
0.000219836
0.0164811
0.000218154
0.000564287
0.0001427
0.000141497
0.000283104
0.021794
0.00974909
0.000242424
0.000155333
0.0082048
0.0046892
0.000144969
0.000159633
0.000139629
0.000178503
0.00019991
0.000260483
0.0116645
0.000311632
0.000151577
0.00736882
0.00839392
0.000144028
0.000317432
0.0288748
0.00950465
0.000154528
0.000203434
0.000131505
0.000158711
0.000148557
0.000155513
0.0011177
0.00955904
0.0109437
0.0105412
0.000151532
0.000163252
0.000181166
0.000144325
0.000149312
0.000139164
0.000425468
0.000141142
0.000391913
0.00016523
0.000192363
0.000235054
0.000295575
0.00978362
0.000353133
0.000177668
0.000133804
0.000160411
0.0003613
0.000348624
0.000156342
0.000139376
0.000139264
0.000191216
0.000163023
0.000241825
0.0118874
0.000151423
0.000138502
0.000229065
0.000185308
0.0110006
0.0243278
0.000140579
0.00019983
0.000148719
0.0035549
0.000135401
0.0105912
0.000147208
0.000151188
0.000172978
0.000148921
0.000212268
0.000164583
0.000182907
0.0160689
0.00765575
0.000157088
0.000163281
0.000144185
0.000357926
0.0169291
0.000149681
0.000135947
0.00439697
0.000131348
0.0202951
0.000145542
0.000171181
0.000194298
0.00264679
0.000167262
0.00015521
0.000146042
0.00020054
0.000701514
0.000142832
0.00194755
0.0323561
0.0257804
0.000387471
0.000162475
0.00987194
0.00015824
0.000263477
0.000143239
0.00528524
0.00507373
0.0100878
0.0131864
0.017534
0.000153117
0.00150402
0.000140781
0.00995019
0.00493759
0.00210855
0.0154112
0.000157239
0.0142299
0.0103346
0.000163697
0.000153528
0.000146627
0.0158888
0.00015615
0.000200276
0.000158799
0.000149229
0.000138734
0.00014725
0.00581549
0.000294903
0.00016292
0.0165382
0.000354981
0.000150324
0.000143739
0.000139055
0.0001736
0.0127873
0.000306814
0.000155748
0.000172314
0.00115121
0.00019877
0.00018087
0.00888765
0.000161869
0.000726214
0.000166089
0.000166171
0.000143432
0.000158492
0.000198461
0.00655907
0.00510287
0.0157716
0.000195099
0.0217679
0.000169669
0.000155446
0.000147929
0.0121177
0.0223481
0.00683304
0.000218802
0.000153899
0.00014498
0.00014212
0.000143824
0.000139412
0.00778793
0.000161349
0.0104424
0.00016178
0.00472646
0.00176795
0.0036424
0.000256082
0.000158862
0.013794
0.00016794
0.0349178
0.0190208
0.000138409
0.00114517
0.000160003
0.0204796
0.00814284
0.000164161
0.000227699
0.00421862
0.00015716
0.000185052
0.000164705
0.0203662
0.00530242
0.000154628
0.000146056
0.00498414
0.000572727
0.00022998
0.00603587
0.000232679
0.000174391
0.000144317
0.017682
0.0160079
0.00019806
0.000166611
0.00448097
0.0351885
0.000140938
0.000144237
0.000155119
0.000852234
0.00138412
0.000143567
0.0127911
0.000149601
0.000142669
0.000148386
0.0121344
0.000276006
0.000187518
0.00919497
0.000153898
0.000151634
0.000141321
0.010296
0.000152365
0.0269174
0.000159731
0.0136947
0.000148491
0.000142797
0.000225633
0.00734011
0.00505954
0.000166576
0.000511551
0.000140604
0.00014596
0.000144369
0.000178427
0.000194991
0.000195332
0.000168401
0.000355829
0.000155651
0.000225683
0.00955646
0.0160713
0.000145676
0.0140043
0.0139266
0.000157445
0.00747391
0.000197464
0.0213652
0.000146995
0.000190234
0.000145056
0.0345196
0.0111004
0.000163186
0.000585105
0.000155954
0.000185688
0.000152533
0.0121505
0.000134465
0.000139501
0.00848938
0.000202577
0.0221625
0.000344136
0.000196566
0.000161252
0.000137994
0.019064
0.000172461
0.000149594
0.000241857
0.000154497
0.000179886
0.000145065
0.024423
0.000155324
0.00331634
0.00362531
0.000173861
0.000461717
0.000183087
0.00364743
0.000146262
0.0204766
0.0413393
0.000139571
0.000144228
0.00015207
0.000148638
0.000173795
0.000143646
0.00138508
0.000203848
0.000263683
0.000223435
0.00014841
0.000148879
0.00013811
0.000349168
0.000146196
0.000145576
0.000289844
0.000155021
0.0182082
0.000537739
0.000211396
0.000160637
0.000165573
0.000151476
0.000149563
0.000189094
0.000136763
0.000155288
0.0112208
0.00761014
0.000323041
0.000151385
0.0100592
0.00334222
0.000148724
0.000182217
0.000394486
0.00014362
0.000154062
0.000143141
0.000335033
0.0193871
0.00692274
0.000136527
0.000154626
0.000157548
0.000146145
0.000231499
0.000148501
0.000623855
0.00833262
0.000434158
0.000138477
0.000154886
0.000154073
0.0211937
0.000133172
0.0179613
0.0127769
0.00455108
0.00469566
0.00910434
0.0066091
0.000154529
0.00679934
0.00131245
0.000150857
0.000137738
0.000140221
0.000527728
0.00894706
0.0114721
0.000146678
0.00102753
0.000146951
0.000238553
0.000139929
0.000152711
0.000150638
0.000138332
0.0207579
0.000151075
0.0369062
0.0348063
0.017018
0.000179384
0.000188228
0.0184925
0.000879415
0.000148612
0.00698555
0.000138187
0.000131631
0.000143518
0.000169878
0.000142075
0.0160841
0.000171682
0.00427361
0.00016855
0.0123072
0.0165998
0.000150277
0.000138062
0.000182336
0.000196388
0.0199569
0.000145901
0.000134621
0.000157936
0.0355354
0.000148314
0.00137112
0.0149832
0.00017814
0.000189493
0.000145944
0.00563097
0.000148285
0.0120091
0.000135522
0.00744654
0.000167473
0.000145706
0.0154911
0.0149322
0.000135364
0.000197517
0.000154725
0.010457
0.000187416
0.0209441
0.00481455
0.000148438
0.000181914
0.00867049
0.000148456
0.00017016
0.000156611
0.000204488
0.000168446
0.0138264
0.0105567
0.000146003
0.0144597
0.000150932
0.000179335
0.0010693
0.0144166
0.000165366
0.0115721
0.000266162
0.000146181
0.00148766
0.000234366
0.000166512
0.000150886
0.00360745
0.000135612
0.0165154
0.00376505
0.000215642
0.000143335
0.000169195
0.0124616
0.000180083
0.00694783
0.00014971
0.000154156
0.00108914
0.00120345
0.000159462
0.000961949
0.0108078
0.0165889
0.000148788
0.000985617
0.000329132
0.0220253
0.000143838
0.000157768
0.000145776
0.00117409
0.000168787
0.00533455
0.00612465
0.000148676
0.000139522
0.000143678
0.0213639
0.000303415
0.0246651
0.0170231
0.000141105
0.00940641
0.000417967
0.00023585
0.009336
0.0120515
0.000167241
0.015561
0.000153648
0.000158779
0.000332492
0.000374575
0.000157327
0.033208
0.000150402
0.000144375
0.0134245
0.0107144
0.000441423
0.0102047
0.000161738
0.000148607
0.000160086
0.000356253
0.0138468
0.000142784
0.00018371
0.00747517
0.00014447
0.000146674
0.000372277
0.0266286
0.00015239
0.000144095
0.000150554
0.00015294
0.00912406
0.000148582
0.000145586
0.000155866
0.00094705
0.0279502
0.000267375
0.00815182
0.000146213
0.000155173
0.010582
0.000423285
0.000159095
0.00275568
0.000143231
0.000171424
0.000155258
0.000159462
0.000191988
0.000144688
0.00492525
0.000161871
0.00014265
0.000154815
0.000332876
0.0389188
0.0112837
0.000144616
0.00017106
0.000464229
0.00512575
0.000155157
0.000145424
0.000144473
0.00054708
0.000146911
0.000150335
0.000160327
0.000144113
0.0109768
0.000241478
0.000148378
0.00015447
0.000135638
0.000148325
0.0135092
0.00297972
0.000199463
0.0102938
0.00020364
0.000148959
0.000143112
0.000145779
0.000145414
0.000148131
0.000165932
0.000193618
0.00168325
0.000153713
0.00021914
0.0109694
0.00345805
0.00014489
0.000139619
0.000153981
0.00955296
0.000144823
0.000279879
0.000320189
0.000190317
0.000154188
0.00857247
0.000136622
0.00144085
0.000137477
0.000136956
0.000148797
0.000142935
0.000186988
0.000370966
0.0003613
0.000172871
0.010917
0.000370309
0.00441729
0.000167674
0.0108941
0.0105352
0.000216901
0.00421468
0.000367858
0.000225497
0.00612543
0.000148682
0.000142765
0.0370716
0.000141999
0.000154843
0.0155221
0.000188784
0.0272893
0.000259992
0.00014059
0.00016816
0.000146359
0.000497469
0.000139763
0.00193968
0.0238095
0.000422167
0.0141315
0.000146677
0.000136035
0.000201301
0.0374186
0.0115292
0.000218771
0.000328194
0.000140253
0.000323112
0.0204883
0.000239478
0.000155129
0.000147009
0.000139582
0.0001554
0.00014791
0.000146515
0.000154391
0.011235
0.000203547
0.0132946
0.000474699
0.000321443
0.000252301
0.000143154
0.000143037
0.000152764
0.000138741
0.000148434
0.00401465
0.000687963
0.0089512
0.000990278
0.000153912
0.0178488
0.000232625
0.000938956
0.0187591
0.000147953
0.00014288
0.00444123
0.000147014
0.000135502
0.00850595
0.0112376
0.000340261
0.000144907
0.000146329
0.00016519
0.00017081
0.000296758
0.000138433
0.000159837
0.000303815
0.00014001
0.00685379
0.0001701
0.0191433
0.000148505
0.000309347
0.0379144
0.000164553
0.00035516
0.000223053
0.0153128
0.000135868
0.000155298
0.000140571
0.000161158
0.0124058
0.000147708
0.0123768
0.000151625
0.000146996
0.000144108
0.00174754
0.000180923
0.000221599
0.00714372
0.000139491
0.000172383
0.0152921
0.000182712
0.000143619
0.000155968
0.000147389
0.000181769
0.000144995
0.000143713
0.00354919
0.000496968
0.00137149
0.000399987
0.000306853
0.0175938
0.000200645
0.0014732
0.000225506
0.000135085
0.000144307
0.000131434
0.000148943
0.000360015
0.000354273
0.0001404
0.0107039
0.00698164
0.000164861
0.000152793
0.000168947
0.00439536
0.000376277
0.0117516
0.0228683
0.0118609
0.000131511
0.00028265
0.000213141
0.0017465
0.000329381
0.000143681
0.000234408
0.0165762
0.000162007
0.0373038
0.000150239
0.00234614
0.0171756
0.0134253
0.000203411
0.000163461
0.00883434
0.000234932
0.0168244
0.00469989
0.0107508
0.000225253
0.000285697
0.000146602
0.000164608
0.000183112
0.0137087
0.00397849
0.0164622
0.000153463
0.000218175
0.000191208
0.000154369
0.000362887
0.000143656
0.000235351
0.0110566
0.000143591
0.0190946
0.00772006
0.00962662
0.00100891
0.000319078
0.00190263
0.000143176
0.000367925
0.000151012
0.000143245
0.000177747
0.000154475
0.0157421
0.000155075
0.000171233
0.000154778
0.000142926
0.000393673
0.000152188
0.000227217
0.00115545
0.000138342
0.0209632
0.000213787
0.000153625
0.0142844
0.000292161
0.000143321
0.00917355
0.000149809
0.00605666
0.000471585
0.000140798
0.000226755
0.000152271
0.000398259
0.0126396
0.000200836
0.0195141
0.000165161
0.000144567
0.0153246
0.000155393
0.000145672
0.000343197
0.000178488
0.000140183
0.000142384
0.000228285
0.000152017
0.0103994
0.000285294
0.000186019
0.020722
0.00018872
0.000190794
0.000143547
0.000438578
0.0124916
0.0231109
0.000143927
0.000139155
0.000199088
0.000160978
0.00479384
0.000145962
0.00596154
0.000144578
0.00282231
0.000150809
0.000190645
0.000240764
0.00022588
0.0196828
0.00443536
0.000441566
0.0123924
0.000131676
0.000329505
0.000335773
0.0134175
0.000144065
0.000251895
0.0108723
0.0137055
0.000226845
0.000305502
0.00697595
0.00057914
0.000182845
0.000286641
0.000138214
0.000183736
0.000180532
0.000143409
0.00020034
0.0215464
0.00152276
0.015423
0.000308974
0.000142656
0.00014043
0.000176285
0.000143517
0.0174273
0.000138864
0.000140871
0.00137084
0.000288635
0.000169442
0.000214783
0.000154974
0.000201618
0.0112524
0.014487
0.0121968
0.000158574
0.0134426
0.00015632
0.00013848
0.000153512
0.0119218
0.000302453
0.000278975
0.00029067
0.000150762
0.000141829
0.000143573
0.000148734
0.000160094
0.0247539
0.000329575
0.000161319
0.000358815
0.0101783
0.000964059
0.0229233
0.000144617
0.000163813
0.000212555
0.000144182
0.000191778
0.000159562
0.000154904
0.00884173
0.0150656
0.000138774
0.000177659
0.000162773
0.000193837
0.0227285
0.0200297
0.000479911
0.00014829
0.000207845
0.000838107
0.000207292
0.000226592
0.000368598
0.00349509
0.000672357
0.00187875
0.000138389
0.000331775
0.000140127
0.000156923
0.000144281
0.000189973
0.000506462
0.00912258
0.00570731
0.0121008
0.00018786
0.000135095
0.000139499
0.000146514
0.000159532
0.000180198
0.0006891
0.00457146
0.000204692
0.00922023
0.000149153
0.000187328
0.000138725
0.0115684
0.000189871
0.000147676
0.000229941
0.000215661
0.0209256
0.0165498
0.00022771
0.00605102
0.000155163
0.0236788
0.000283762
0.000342438
0.00419159
0.00015579
0.000186722
0.000145835
0.000422365
0.0110484
0.000175077
0.0234012
0.000281566
0.0279257
0.00019314
0.000237481
0.000174554
0.000140169
0.000228961
0.000185503
0.000155267
0.000186169
0.000164501
0.000165104
0.0157338
0.000247544
0.000153466
0.000161295
0.000172308
0.000161382
0.00015458
0.0213193
0.000217972
0.00592379
0.0137841
0.000144725
0.0164339
0.000144283
0.000160197
0.000153317
0.0151418
0.00016721
0.0197775
0.0242141
0.000188972
0.000191291
0.000228022
0.0312413
0.000237933
0.0191397
0.000169857
0.000182914
0.000143259
0.0201079
0.00289122
0.00016864
0.000148116
0.000166195
0.000158948
0.00015454
0.00018589
0.000177657
0.000147182
0.000163101
0.0120662
0.0258089
0.00781415
0.000177942
0.000132974
0.0323515
0.00016833
0.000196517
0.000840823
0.000180862
0.0242699
0.000135751
0.000166583
0.000160545
0.000162651
0.000143872
0.0217234
0.000631327
0.000344137
0.000166143
0.000356481
0.00029256
0.000158621
0.0306654
0.000197441
0.000285478
0.0111858
0.000181563
0.000154801
0.000178552
0.00019382
0.000162266
0.00030687
0.0195884
0.00513293
0.000140215
0.000298717
0.00028859
0.0312519
0.000143208
0.00018061
0.000145458
0.000161839
0.000382694
0.000161232
0.000161861
0.000140322
0.000140102
0.00509761
0.0114731
0.000147058
0.0139273
0.000279061
0.000135249
0.000170503
0.0210851
0.000218928
0.000216563
0.000144157
0.000159824
0.000210779
0.000148651
0.000142602
0.0114079
0.000162925
0.0208193
0.000208351
0.000159086
0.000528714
0.000218699
0.000237903
0.000140665
0.00252565
0.000165853
0.000159416
0.036501
0.000177356
0.000148658
0.000201874
0.000155891
0.000165545
0.00013685
0.0294785
0.000144647
0.000197944
0.000339479
0.000212374
0.000143294
0.000289207
0.000166424
0.0225101
0.000244608
0.0149113
0.000215102
0.0141884
0.000138806
0.000202821
0.000158304
0.000142351
0.00456939
0.00393271
0.000157501
0.000436039
0.000168173
0.000199427
0.0160243
0.000159108
0.000616305
0.00934632
0.0280294
0.0335693
0.00185237
0.000196035
0.000140452