/*--------------------------------*- C++ -*----------------------------------*\
| =========                 |                                                 |
| \\      /  F ield         | OpenFOAM: The Open Source CFD Toolbox           |
|  \\    /   O peration     | Version:  v2012                                 |
|   \\  /    A nd           | Website:  www.openfoam.com                      |
|    \\/     M anipulation  |                                                 |
\*---------------------------------------------------------------------------*/
FoamFile
{
    version     2.0;
    format      ascii;
    class       volVectorField;
    location    "400";
    object      U;
}
// * * * * * * * * * * * * * * * * * * * * * * * * * * * * * * * * * * * * * //

dimensions      [0 1 -1 0 0 0 0];


internalField   nonuniform List<vector> 
13851
(
(1.01995 -0.0188523 -1.52097e-23)
(0.653536 0.180208 0)
(1.01835 -0.0398026 9.34574e-21)
(1.01835 -0.0177957 -5.00271e-23)
(1.03372 -0.0519176 0)
(0.987053 -0.0406383 2.00223e-21)
(1.0317 -0.00158121 0)
(1.03 -0.0325073 -4.45493e-22)
(1.01091 -0.001359 -3.16179e-23)
(1.01093 -0.0185546 5.14723e-22)
(0.981257 -0.0346066 -5.38988e-23)
(0.617053 -0.0467199 -1.75078e-22)
(1.04294 -0.0503062 -2.16461e-20)
(-0.158555 0.0601384 -2.85957e-20)
(1.02034 -0.000494184 3.38262e-21)
(1.03197 -0.0156158 -2.17675e-21)
(1.03905 -0.0181449 6.48545e-21)
(1.03969 -0.0200837 -8.54099e-23)
(1.04387 -0.0615205 -1.3124e-20)
(1.01084 -0.00125993 -4.42002e-23)
(1.01843 -0.017261 8.06408e-23)
(1.02034 -0.0411739 0)
(1.0037 1.0856e-05 -4.85727e-23)
(1.00509 -0.000133164 -1.07574e-22)
(1.00282 -5.0374e-05 -2.75469e-23)
(1.02874 -0.0316539 -6.49199e-21)
(1.04795 -0.0177228 -6.54187e-21)
(0.00691438 -0.00465309 -2.44778e-20)
(1.02067 -0.0182349 -1.1099e-23)
(1.03461 -0.0135739 -1.30938e-21)
(0.979823 -0.0400812 0)
(1.03908 -0.0188574 3.66643e-21)
(1.01843 -0.0378979 -7.24591e-21)
(0.987712 -0.0978007 -1.47625e-21)
(1.00588 -0.000141042 0)
(1.02431 -0.0980788 3.20999e-20)
(0.997111 -0.0981114 0)
(1.01849 -0.0675533 -1.12646e-20)
(1.00891 -0.0183672 -6.13317e-22)
(0.98702 -0.105264 -4.11029e-22)
(1.0182 -0.00783396 1.03528e-21)
(1.00937 0.000380765 9.20366e-23)
(-0.00271489 0.117107 -7.79396e-20)
(0.964943 -0.0380869 -1.37125e-22)
(0.950709 -0.0381345 -5.11868e-22)
(0.132448 0.0648756 5.16072e-22)
(0.912991 -0.0486385 1.06222e-21)
(0.863679 -0.112507 -1.87414e-22)
(1.0486 -0.0184849 -2.11277e-20)
(0.998762 -0.0203145 0)
(1.0429 -0.059503 -7.01365e-21)
(1.03391 -0.0580084 0)
(-0.0223314 0.0499283 -1.6791e-20)
(1.02012 -0.000465323 3.75156e-21)
(1.01354 -0.000727227 8.86881e-22)
(1.00974 0.000422322 -4.73745e-23)
(1.00568 -0.00010079 -3.30492e-23)
(-0.0540962 0.0221283 0)
(1.03413 -0.0135391 0)
(1.03253 -0.00400319 -3.12948e-21)
(1.01524 -0.0681184 0)
(0.941133 -0.13682 9.16131e-21)
(1.03997 -0.0481382 -6.19249e-22)
(1.03422 -0.054636 9.84679e-22)
(0.95309 0.0625549 0)
(1.01818 -0.0225052 0)
(0.989573 -0.0971808 0)
(0.895381 -0.066988 -4.43742e-23)
(1.05107 -0.0367343 -1.2557e-20)
(1.03897 -0.0210282 2.93577e-22)
(0.631265 0.0170336 7.34102e-21)
(0.978234 -0.110716 -1.01606e-23)
(0.687366 0.187601 -1.17214e-20)
(1.02009 -0.000500928 3.34762e-21)
(1.01426 -0.00126041 1.11769e-23)
(1.01349 -0.00245684 1.8967e-23)
(1.02192 -0.0406528 0)
(0.857462 0.0214398 2.64326e-20)
(1.03953 -0.0426371 0)
(0.564841 0.00799358 8.07841e-21)
(1.03532 -0.00739408 -3.51996e-21)
(0.97361 0.0318123 0)
(1.02284 -0.00379475 2.44385e-21)
(0.102982 0.0569435 4.01652e-20)
(1.04415 -0.0497946 -1.29875e-21)
(0.649654 -0.053124 -2.28824e-21)
(0.99108 -0.0286249 -3.49521e-21)
(0.561377 -0.100957 -2.15534e-21)
(1.04355 -0.0208687 4.8379e-21)
(1.01999 -0.00060482 -5.24166e-25)
(1.02503 -0.0951507 -3.38157e-20)
(0.995047 0.0121832 0)
(0.900988 -0.078978 8.49473e-22)
(1.04483 -0.0256334 0)
(1.04426 -0.0205372 0)
(1.00413 -8.72645e-05 0)
(1.03419 -0.0529534 0)
(1.02461 -0.0385156 0)
(0.996664 -0.0208681 0)
(1.00331 -3.88455e-05 -1.28982e-23)
(-0.154625 0.0465602 -4.4831e-20)
(1.04445 -0.0481005 -1.89933e-20)
(1.0247 -0.0135733 1.88549e-21)
(1.05639 -0.0123438 -8.65905e-21)
(1.00353 2.55737e-05 0)
(0.986892 -0.020106 -2.58377e-21)
(1.04502 -0.0521164 0)
(1.00838 0.000173122 2.41573e-24)
(0.977247 -0.122499 -5.48017e-22)
(0.990256 -0.0452134 0)
(1.00376 -6.98968e-05 0)
(1.0211 -0.000389139 5.74716e-24)
(0.997353 0.0115951 -2.41152e-21)
(1.00137 2.89883e-05 -1.21258e-22)
(1.00459 -0.000101074 -5.3792e-23)
(0.774227 -0.239871 5.41444e-21)
(1.04587 -0.0406884 1.88026e-20)
(1.00757 8.91871e-05 0)
(1.00689 -0.000300027 0)
(1.01184 -0.000587548 -1.70987e-21)
(-0.00134116 0.12475 3.72258e-20)
(1.05516 -0.0125633 -3.38186e-21)
(1.045 -0.0512926 1.13316e-20)
(0.931897 0.0156651 -5.0349e-22)
(0.880567 -0.0865164 -1.12529e-21)
(1.00371 -0.00225161 -1.70112e-22)
(0.859457 -0.0709016 6.03946e-22)
(1.04188 -0.0452589 -2.4721e-21)
(1.01742 -0.0165658 0)
(1.03133 -0.0590717 0)
(1.01802 -0.00751416 -1.01484e-21)
(1.00983 -0.00113774 -6.17879e-22)
(0.656196 0.00760496 -6.96954e-21)
(1.02275 -0.00358039 1.20496e-21)
(0.772864 -0.239875 -6.82518e-21)
(1.00939 -0.000592692 0)
(1.00749 6.3231e-05 0)
(0.979009 -0.101498 5.61752e-21)
(0.139284 -0.175647 2.43908e-20)
(0.100686 0.00728644 -2.23925e-21)
(-0.159322 0.0494367 6.05379e-20)
(1.01315 -0.000688855 1.50083e-21)
(1.0251 -0.00758779 5.49027e-23)
(1.01125 0.00247836 0)
(1.03564 -0.0137546 1.99195e-21)
(0.963761 -0.0417589 3.10421e-22)
(1.02498 -0.0231462 -1.25205e-22)
(1.03003 -0.0597543 0)
(1.03097 -0.00158287 2.48111e-21)
(0.952571 -0.041415 0)
(1.06189 -0.0794561 2.31744e-20)
(1.01219 -0.000742273 1.86406e-21)
(-0.151636 0.0657698 3.50383e-20)
(1.00561 -0.000110807 4.09906e-23)
(1.04033 -0.0136272 -2.41941e-22)
(1.03528 -0.0135112 0)
(1.01257 -0.00341015 -2.43477e-22)
(1.03284 -0.0126243 9.49804e-22)
(1.03429 -0.0574449 0)
(1.04258 -0.0581114 0)
(1.01246 -0.00110144 3.76011e-25)
(1.05222 -0.0269213 6.22194e-21)
(-0.0491921 0.0257006 -3.91339e-20)
(1.00971 -0.00104608 -1.94599e-22)
(1.03764 -0.0118205 -1.16503e-21)
(1.01056 0.0012214 3.10846e-22)
(1.02749 -0.0262625 2.51941e-22)
(1.05216 -0.0377988 0)
(1.01752 -0.0158375 0)
(0.931233 -0.038204 -5.6821e-20)
(0.837702 0.0242356 -3.11682e-20)
(1.00798 -0.000687546 0)
(1.01263 -0.00367246 5.43424e-22)
(0.0649506 -0.00986725 2.47324e-21)
(1.00951 -0.000960241 -2.06975e-22)
(0.879177 -0.110741 0)
(1.04144 -0.0441033 0)
(1.02732 -0.00312724 -1.15935e-23)
(1.04498 -0.0600532 1.33875e-20)
(1.00923 0.000166828 -1.39839e-25)
(1.03837 -0.0193816 0)
(0.975606 -0.105559 -1.17939e-20)
(1.02252 -0.00309564 5.39755e-21)
(1.02008 -0.0432581 0)
(1.00707 8.50732e-05 4.72433e-24)
(1.0039 -3.65056e-05 0)
(1.01932 -0.0228947 0)
(1.01357 -0.00083755 8.58906e-22)
(1.03113 -0.0532503 0)
(1.01346 -0.00168504 -2.01121e-24)
(0.913977 -0.0574992 4.70012e-22)
(-0.0302942 0.046581 0)
(1.02374 -0.00108111 -7.99305e-23)
(1.04663 -0.0353622 -1.32333e-20)
(0.948035 -0.140464 0)
(1.03918 -0.0130454 -6.01167e-21)
(1.02361 -0.0067987 8.82856e-23)
(0.937399 -0.0775574 3.16587e-22)
(1.02622 -0.00368796 -1.41618e-23)
(1.01385 -0.00246179 2.1986e-23)
(1.00399 -0.0034877 1.70824e-22)
(0.423827 -0.0060233 1.53455e-20)
(1.0048 -0.000144608 9.10409e-22)
(1.02009 -0.00451382 0)
(1.01732 -0.00917525 -1.00121e-22)
(1.02296 -0.0032647 0)
(0.641907 -0.13709 -5.97014e-21)
(1.04043 -0.019179 -1.53943e-20)
(0.846282 -0.00480281 7.63887e-21)
(1.01059 -0.000183563 2.23854e-24)
(1.00005 -0.0423898 1.2788e-20)
(1.02421 -0.0130234 -1.71471e-21)
(0.872396 -0.103686 0)
(1.00862 0.000121097 2.88572e-23)
(1.01165 0.00207537 8.39823e-23)
(0.977475 -0.0313563 0)
(1.05287 -0.0447645 -2.5463e-22)
(0.0738905 0.0797613 0)
(1.0206 -0.00112825 1.15262e-21)
(0.864947 -0.00700156 -8.58465e-21)
(1.04019 -0.019447 4.85209e-21)
(1.03609 -0.0076825 0)
(1.05396 -0.0254779 0)
(1.03501 -0.0568905 1.06584e-20)
(0.96439 -0.0609293 3.63879e-21)
(1.00289 -1.59141e-05 -8.11279e-23)
(1.04409 -0.0287249 1.16933e-20)
(1.00278 1.00058e-05 1.51787e-23)
(-0.0510187 0.0731169 -4.66998e-20)
(1.00889 9.04859e-05 -1.49176e-23)
(1.02869 -0.0300892 0)
(1.05025 -0.00424731 0)
(1.00786 -0.000635066 1.00105e-23)
(1.02242 -0.00137528 0)
(1.04717 -0.0595562 -3.72441e-21)
(1.058 -0.0132158 9.46446e-23)
(0.691102 -0.13476 6.4622e-21)
(0.87894 0.0681341 -1.77894e-21)
(1.01162 0.00253929 1.91198e-22)
(1.0204 -0.00458317 0)
(0.97846 -0.034407 0)
(0.989262 -0.0187311 0)
(1.01746 -0.00423001 -1.3521e-23)
(1.01583 -0.00881261 1.11631e-22)
(1.00456 2.77791e-05 0)
(0.943083 -0.0415389 0)
(1.04314 -0.0481578 1.99084e-20)
(0.910896 -0.148377 0)
(1.03493 -0.0134276 6.82169e-21)
(1.03593 -0.0160076 0)
(1.03384 0.0219608 0)
(0.987548 -0.0199712 0)
(1.03173 -0.00959137 0)
(1.03528 -0.0136672 -3.68433e-21)
(1.05285 -0.0546795 1.82182e-20)
(1.00742 -0.0134232 5.53685e-21)
(1.01527 0.000114833 0)
(0.977562 -0.0968796 0)
(0.790044 0.0299467 0)
(1.0233 -0.0010083 0)
(1.01138 0.00210598 -8.97483e-23)
(1.03648 -0.0211336 0)
(0.908453 -0.0802167 -1.57559e-21)
(1.00836 -0.000735051 0)
(1.04472 -0.069143 -1.18563e-20)
(1.03872 -0.0130174 -6.57079e-21)
(1.03161 -0.00928348 3.44765e-21)
(1.04519 -0.0250317 0)
(1.04761 -0.0282714 -1.93973e-20)
(1.04018 -0.0292154 9.0172e-22)
(1.03685 0.0206179 1.32309e-22)
(1.03978 -0.0136707 7.01974e-21)
(0.961728 -0.0659971 4.11369e-21)
(1.04026 -0.0415179 -1.48307e-20)
(1.03251 -0.0149412 4.35517e-21)
(1.01 -0.00122545 6.22855e-22)
(0.976887 0.0281618 2.91764e-23)
(0.979224 0.00257798 0)
(0.938038 -0.107998 1.85785e-22)
(0.980074 -0.036147 0)
(1.01723 -0.00484313 1.78342e-23)
(1.00991 -0.000151868 1.58008e-23)
(1.00373 1.88503e-05 0)
(1.05388 -0.0534667 -6.13652e-21)
(0.887858 -0.0709282 0)
(0.863241 -0.086873 0)
(1.01241 -0.00172108 8.91057e-24)
(1.02112 -2.44608e-05 -3.45669e-21)
(0.953887 -0.0603069 -1.45255e-21)
(0.992015 -0.00171109 0)
(1.03026 -0.0615036 1.80605e-20)
(1.03366 -0.0132077 0)
(1.03278 -0.00439983 0)
(1.04804 -0.0387996 1.33833e-20)
(0.985471 0.00606957 -2.07612e-22)
(1.04529 -0.0655479 0)
(1.03672 -0.0122218 -2.90502e-21)
(0.638988 -0.0653504 1.01935e-21)
(1.01028 -0.00139698 0)
(0.958908 -0.0419444 -8.27494e-22)
(1.05239 -0.0261312 -1.9523e-20)
(1.03848 -0.0176249 -6.93489e-21)
(0.95271 -0.0971349 -1.59052e-21)
(1.02442 -0.00941044 1.23672e-21)
(0.986638 -0.0235628 2.55068e-21)
(1.02352 -0.0174918 8.52817e-21)
(1.01204 -0.00159451 -9.00805e-24)
(1.05322 -0.0477016 2.05058e-20)
(1.04381 -0.0255808 0)
(1.0331 -0.0131539 0)
(0.273195 -0.198864 3.71639e-20)
(1.03685 -0.0119024 -1.50531e-21)
(1.03055 -0.00938791 0)
(1.06203 -0.0283442 -1.00819e-20)
(1.00977 0.000572481 5.3715e-23)
(1.03597 -0.016369 0)
(1.00357 -0.00609826 -3.23298e-22)
(0.95763 -0.112794 -1.36056e-21)
(1.03965 -0.0894367 0)
(1.02085 -0.00124495 -1.18478e-21)
(1.04711 -0.0510108 0)
(1.0212 -0.000790797 -2.28552e-21)
(0.868861 0.0164224 0)
(1.03218 0.0312682 0)
(1.00396 -1.61926e-05 9.09151e-23)
(1.0132 -0.00310937 1.36809e-22)
(1.03949 -0.0864605 0)
(1.04443 -0.0276631 -3.92686e-21)
(1.04113 -0.0130377 8.48278e-21)
(1.02096 7.706e-05 2.30778e-21)
(1.0243 -0.00923517 -2.24076e-21)
(1.03008 -0.00927346 -1.29109e-21)
(0.975398 -0.0361487 2.23758e-22)
(-0.0288524 0.0534699 -5.09032e-20)
(0.956548 -0.0559173 0)
(1.03674 -0.0284828 2.90238e-22)
(0.965796 -0.102364 0)
(1.01587 -0.11196 -5.54815e-21)
(1.02026 -0.000480842 -5.74458e-21)
(1.04548 -0.0356794 0)
(1.02894 -0.0625774 -1.82077e-20)
(0.991576 0.00607025 -1.16851e-21)
(1.0734 -0.014614 -4.70728e-23)
(1.0345 -0.0601224 1.21269e-20)
(1.04459 -0.0641868 1.39582e-20)
(1.01169 0.0119881 0)
(0.805089 -0.104956 8.29798e-22)
(0.999644 -0.0230029 0)
(1.02033 -0.000385669 -5.33192e-21)
(1.00481 -0.0229221 -2.49572e-23)
(1.00301 -0.0230676 5.89675e-23)
(0.980309 -0.0495829 -1.36746e-21)
(1.04154 -0.0128681 -4.1558e-21)
(1.07942 -0.0137122 -8.55254e-23)
(-0.0581409 0.0676717 3.07561e-20)
(1.01275 -0.0038224 0)
(0.778142 -0.0985021 -3.91553e-22)
(1.01332 -0.00281966 -1.0912e-22)
(1.02105 -0.000711483 -1.06206e-21)
(1.00518 3.40364e-05 2.20702e-24)
(1.0086 0.00016375 1.2569e-23)
(1.01221 -0.00330364 -5.86368e-22)
(1.00952 -0.0271312 0)
(0.844635 0.119065 0)
(1.02271 -0.00598251 0)
(1.05384 -0.0461336 1.12e-21)
(1.01088 0.000942434 1.16053e-22)
(0.60422 -0.0782853 0)
(1.03028 -0.0103036 1.97323e-21)
(0.829833 -0.0762858 0)
(0.954827 -0.0447158 7.69384e-20)
(1.02279 -0.00622063 -6.90081e-22)
(1.0575 -0.0480747 -2.16745e-23)
(1.04204 -0.0249349 1.3354e-20)
(0.836719 -0.0960686 4.51394e-22)
(1.01693 -0.00687059 4.49987e-22)
(1.00762 9.47408e-05 0)
(1.01263 0.0240707 0)
(-0.102889 0.0254284 5.10804e-20)
(1.01389 -0.00105318 -1.40287e-21)
(0.40375 -0.227858 -3.41478e-20)
(0.991249 0.00919463 1.11681e-21)
(1.03355 -0.0600836 -9.08957e-23)
(0.847686 -0.0345057 -3.77923e-21)
(0.998479 -0.030327 2.21229e-22)
(1.00072 -0.0304136 -2.97606e-22)
(1.04041 0.00504298 0)
(1.01031 -0.00166989 3.08e-22)
(1.01961 -0.000263234 0)
(1.03538 -0.0269557 -7.99498e-23)
(1.04838 -0.0514737 1.40999e-20)
(-0.127886 0.0560807 0)
(1.05443 -0.0385107 -1.36855e-20)
(0.976425 -0.0647294 -8.18692e-21)
(1.01693 -0.0189817 -1.93578e-20)
(1.01073 0.000983581 1.80645e-22)
(1.02372 -0.0010191 1.7329e-21)
(0.933981 -0.0484313 -2.54639e-20)
(0.631426 0.0045661 0)
(1.07983 -0.0284904 0)
(1.05764 -0.038353 -1.95013e-20)
(1.01277 0.0270063 1.54272e-21)
(1.04193 -0.0258706 0)
(1.0031 -4.64805e-05 -2.47377e-23)
(1.01257 -0.104103 4.31387e-21)
(1.00921 -0.00106986 -4.96587e-23)
(1.03225 -0.0165248 5.77934e-21)
(1.03779 0.00425224 0)
(1.02941 -0.00288087 5.1327e-21)
(1.00307 1.29256e-06 0)
(1.01177 -0.00158716 -2.06621e-23)
(1.01073 0.00120529 0)
(1.03493 -0.0545637 0)
(1.06337 -0.00253518 -1.12738e-21)
(0.928064 0.0115112 -1.9532e-20)
(1.03794 -0.0233473 -5.40183e-23)
(1.04631 -0.0522792 0)
(1.00953 -0.0315734 -1.81479e-21)
(0.98614 -0.0225903 0)
(1.03536 -0.015477 -2.06176e-21)
(0.975891 -0.0448848 1.92389e-21)
(1.03834 -0.0170881 6.61977e-21)
(0.971259 -0.0308127 -2.81467e-22)
(1.00747 6.5774e-05 0)
(1.01147 -0.00148167 5.85099e-23)
(1.00308 -4.43381e-05 0)
(1.01102 -0.0741827 -2.24588e-20)
(0.847559 -0.000152117 0)
(1.03433 -0.0570956 1.80199e-20)
(1.01125 -0.0309001 1.28116e-21)
(0.894742 0.00571131 4.30273e-20)
(1.00205 -0.0720224 1.52452e-21)
(0.990426 -0.0251761 -1.75907e-21)
(1.01113 -0.000611756 -1.40608e-21)
(1.04795 -0.0609601 0)
(1.01674 -0.00655299 1.30005e-21)
(0.982934 -0.0274972 3.23682e-24)
(1.00373 1.35632e-05 2.16756e-23)
(0.964543 -0.0207146 3.63956e-21)
(0.936186 -0.060178 -2.01761e-22)
(1.01876 -0.0334622 0)
(0.851559 0.00409094 0)
(1.02702 -0.00515903 0)
(0.972884 0.0186242 9.78663e-22)
(0.918924 -0.0510187 0)
(-0.0242096 0.0120907 5.8023e-20)
(1.00737 8.41502e-05 1.03301e-23)
(1.04133 -0.0276554 0)
(1.04008 -0.0438726 0)
(1.03724 -0.0332659 -9.70843e-22)
(1.00865 -0.000842491 0)
(1.02976 -0.00942568 0)
(1.06348 -0.0766635 0)
(1.03415 -0.0586851 0)
(1.0431 -0.0267502 0)
(0.459342 -0.113985 0)
(1.0035 -1.38763e-06 -8.57219e-23)
(1.01314 -0.00314035 2.67033e-23)
(0.00664944 0.104444 -2.73683e-20)
(1.0385 -0.011422 5.26359e-22)
(1.00954 -9.13112e-05 -2.16467e-23)
(0.499049 -0.11764 2.46442e-21)
(1.01018 -0.00156296 -6.45891e-22)
(1.01915 -0.0187626 0)
(1.00942 -0.000931096 0)
(1.04171 -0.0019844 -5.12949e-22)
(1.0315 -0.0122976 2.88499e-21)
(1.01015 -0.000129351 1.45684e-23)
(1.02598 -0.00566516 -1.05017e-23)
(1.06597 -0.0316758 -4.1995e-21)
(1.02325 -0.00405417 0)
(1.05276 -0.0406671 0)
(1.00965 -0.00068424 -1.31535e-22)
(0.999009 -0.0117817 -1.48256e-21)
(0.963131 -0.00789311 -9.29913e-22)
(1.00113 -1.04447e-05 0)
(1.01567 -0.00763915 -6.4775e-22)
(1.00244 2.74716e-05 9.77541e-23)
(1.00227 -4.06451e-05 -8.5613e-23)
(0.916958 -0.0673583 6.96023e-22)
(1.03196 -0.00903045 1.65608e-21)
(0.988236 -0.0318799 4.50058e-21)
(1.02242 -0.00286366 -5.43941e-21)
(1.00392 -2.62529e-05 -3.95488e-24)
(-0.197838 0.0742246 -5.17179e-20)
(0.835816 0.00659 2.59392e-21)
(1.02377 -0.00340787 -3.22655e-21)
(0.997633 -0.0110073 1.3107e-21)
(1.03535 -0.0160093 2.17252e-21)
(0.988684 -0.0181075 0)
(0.0921345 0.0692046 0)
(1.01303 -0.00351131 5.43322e-23)
(0.839168 0.108854 2.72332e-21)
(1.01737 -0.0070221 -9.24486e-22)
(1.02997 -0.0498872 0)
(1.03056 -0.00387708 -2.99303e-21)
(-0.0520106 0.0899636 5.34901e-20)
(1.00712 3.85486e-05 -2.5712e-23)
(-0.0192261 0.0610036 -2.08039e-20)
(1.01653 0.00554447 2.64429e-21)
(1.00941 0.000421656 -4.95698e-23)
(0.997451 -0.00851631 -1.34333e-21)
(0.970867 -0.0331802 -2.6544e-20)
(1.02761 -0.029328 6.21182e-21)
(0.978761 -0.0308863 1.91402e-21)
(1.00804 -0.000382274 0)
(0.815921 0.143074 6.6004e-21)
(1.01275 -0.000590581 -1.7011e-21)
(1.00919 -0.0006987 3.23247e-22)
(1.01027 -0.00126209 3.61011e-22)
(1.02952 -0.00144482 2.56639e-21)
(0.653774 -0.00892826 2.82545e-21)
(1.04343 -0.0557758 0)
(1.03114 -0.065771 -5.91816e-21)
(1.04067 -0.0511284 2.36274e-20)
(1.0476 -0.0450054 1.09117e-21)
(1.01312 -0.0012675 0)
(1.06006 -0.0693573 4.04966e-20)
(0.873745 -0.00561151 -1.47521e-21)
(1.03885 -0.0199944 0)
(1.05116 -0.0272523 -1.02936e-20)
(0.99027 -0.0189486 0)
(0.884864 0.0289293 1.15318e-20)
(0.996864 -0.0459729 0)
(1.01865 -0.00027604 1.15383e-22)
(-0.0578782 0.0895185 -7.84874e-20)
(0.164138 0.0569338 3.5282e-20)
(0.269088 0.0299945 -1.82749e-20)
(1.03739 -0.0115816 0)
(0.99628 -0.00768662 2.64204e-21)
(0.896343 -0.116185 0)
(0.972174 0.0110025 1.50495e-21)
(1.01901 -0.0125291 1.27782e-21)
(0.919785 -0.094301 -1.8289e-22)
(0.924419 -0.0286923 -5.71027e-21)
(1.03308 -0.0128169 0)
(0.914182 -0.0374442 5.73552e-21)
(0.987611 -0.0617696 0)
(1.00734 5.37268e-05 -3.00157e-23)
(0.979273 0.00837493 -1.01413e-21)
(1.04376 -0.0571102 1.3636e-20)
(0.818021 0.0164604 0)
(1.03491 -0.0134888 0)
(1.01949 -0.00307445 0)
(1.01243 -0.00329586 2.31842e-22)
(1.01933 -0.00619211 8.91587e-22)
(1.03221 -0.0529552 7.29373e-22)
(1.05125 -0.00782581 9.21655e-23)
(0.588191 -0.0721172 0)
(0.46576 -0.139536 0)
(1.00877 -0.000358096 1.42693e-22)
(0.00666455 0.107087 -1.71069e-21)
(0.892982 0.00925549 -1.2169e-20)
(0.978723 -0.0149264 -9.84439e-22)
(0.884617 -0.0194227 1.38503e-21)
(1.05176 -0.0394983 1.44119e-20)
(1.00889 2.21137e-05 -1.65622e-23)
(1.01122 -0.00147563 -3.93233e-23)
(1.0257 -0.0445442 2.10517e-22)
(1.06635 -0.0669389 -4.43688e-20)
(1.04101 -0.0141185 -6.85194e-22)
(1.04926 -0.0807987 1.23713e-20)
(1.02221 -0.0847615 1.61473e-20)
(1.00969 0.000374353 4.48308e-23)
(1.00722 -0.0354443 -1.38781e-21)
(0.813619 -0.00288539 -4.23318e-21)
(0.987879 -0.0474862 0)
(1.03511 -0.0578528 -1.77301e-20)
(0.669667 -0.012462 8.76996e-23)
(0.983702 -0.0680436 -1.49401e-20)
(1.01756 -0.00735087 0)
(1.0298 -0.00262689 2.55057e-21)
(0.4002 -0.121658 8.52745e-21)
(1.01371 -0.01702 2.59524e-20)
(1.03291 -0.0800054 8.52564e-22)
(1.05587 -0.0382629 0)
(1.03492 -0.0513033 1.13098e-21)
(1.00897 0.00018393 -6.62749e-23)
(1.01662 -0.00379814 -6.21421e-22)
(0.953973 -0.0262428 0)
(1.00926 0.000309385 7.81825e-23)
(1.0346 -0.0132677 1.63266e-21)
(1.0091 0.000139619 8.89355e-23)
(1.01029 -0.00143487 0)
(0.988133 -0.0588919 2.19455e-21)
(1.03378 -0.0537642 0)
(1.01146 -0.0284486 -1.04239e-21)
(1.00923 0.000276141 -1.21833e-22)
(0.542117 -0.23805 0)
(0.93418 -0.0576732 8.54688e-22)
(1.01044 -0.00164532 7.76114e-22)
(1.00592 -7.01607e-05 -1.9381e-23)
(1.00839 -0.00132966 0)
(1.02005 -0.000346184 3.73999e-21)
(-0.103034 0.021978 -3.53779e-20)
(0.905461 -0.134171 0)
(0.880521 -0.129516 -7.41813e-22)
(0.21111 0.0466837 0)
(0.841566 0.167735 -7.09397e-23)
(1.05652 -0.0360248 -2.29261e-20)
(0.804 0.0226355 9.55893e-21)
(0.822497 0.00185649 5.93619e-21)
(1.00991 0.0129521 5.81879e-22)
(1.04978 -0.0370142 2.68463e-20)
(1.00895 -3.83834e-06 2.95779e-24)
(1.00291 -0.00476522 0)
(1.03131 -0.0193688 3.57308e-21)
(1.06376 -0.0399262 0)
(0.832047 -0.0836132 3.32578e-21)
(1.04868 -0.0783602 -1.12864e-20)
(1.03847 -0.0238444 -5.94558e-21)
(1.01034 -0.00116071 0)
(1.03278 -0.0131969 2.67064e-21)
(1.0198 -0.00966471 3.9008e-23)
(0.988674 -0.0116108 -3.13753e-21)
(1.04017 -0.0557504 3.11789e-20)
(1.02202 -0.00269256 2.62646e-21)
(1.03877 -0.0282293 4.31359e-23)
(1.00861 -0.000801715 3.16833e-23)
(1.04675 -0.0248315 1.37488e-20)
(1.03401 -0.0576783 -1.09488e-20)
(1.03177 -0.00385869 8.7584e-21)
(1.01633 -0.00642194 -9.35467e-22)
(1.02963 -0.0113388 -1.66216e-21)
(1.02976 -0.00622313 -4.83054e-21)
(1.03267 -0.0519678 -1.24503e-20)
(1.00817 -0.0699632 1.15221e-21)
(1.03487 -0.0569222 0)
(1.03326 -0.0113738 -1.18272e-21)
(1.03199 -0.0826113 -8.71504e-22)
(1.01011 -0.0010845 -4.82091e-23)
(1.11388 -0.0521407 3.17796e-21)
(1.03154 0.0266432 0)
(0.126388 0.074556 0)
(1.02439 -0.0125439 4.9745e-22)
(1.00426 -0.000108033 7.92203e-25)
(0.976018 -0.116458 -4.95205e-21)
(1.0318 -0.0153138 1.72016e-21)
(0.785359 -0.0254343 0)
(0.978319 -0.0251364 -5.14307e-21)
(0.0120661 0.0954406 4.01944e-20)
(0.467749 -0.0946214 3.10398e-21)
(1.00917 -0.00101864 3.37614e-23)
(0.976515 -0.115435 5.76734e-21)
(1.01824 -0.00576028 0)
(1.01021 -0.001554 7.38072e-22)
(1.00705 4.55038e-05 3.04202e-23)
(1.01038 -0.00159848 0)
(1.0215 -0.0144296 0)
(1.03761 -0.024969 2.02058e-22)
(1.04224 -0.00375541 2.77207e-22)
(1.00885 0.000238464 3.57177e-23)
(0.959923 -0.10544 4.24932e-22)
(1.01407 0.00343496 0)
(0.952477 -0.116479 5.37984e-21)
(1.01217 -0.00248238 3.96291e-22)
(1.0067 5.30561e-05 -2.40008e-23)
(1.005 -6.67907e-06 6.29466e-23)
(1.02684 -0.061972 0)
(0.926455 -0.156943 -2.83652e-21)
(1.05967 -0.0591128 4.33512e-20)
(1.04626 -0.0252143 -1.8454e-20)
(1.01929 -0.00614234 1.50702e-23)
(1.00373 -3.97679e-05 7.21746e-23)
(1.00768 -0.000245089 -7.88944e-23)
(1.01286 -0.00317707 0)
(1.02103 -0.057476 -1.8118e-20)
(0.342179 0.0207972 0)
(1.02925 -0.00600807 8.18063e-21)
(1.00882 0.000216998 -3.37432e-23)
(1.02982 -0.00109761 -7.95459e-21)
(1.01279 -0.00334127 0)
(0.98177 -0.0185989 -8.89568e-22)
(-0.0369426 0.0320636 -3.47827e-21)
(1.03227 -0.0138892 -1.98743e-21)
(1.00516 -0.0424428 0)
(0.827446 0.100847 5.28437e-21)
(1.01616 -0.00611715 0)
(1.03215 -0.0644286 -1.05195e-20)
(-0.0569039 0.0217046 -8.66874e-20)
(1.04938 -0.0385416 -1.33341e-20)
(0.622332 -0.0392888 2.99299e-22)
(1.03476 -0.00754474 3.54182e-21)
(1.03748 -0.0205281 -2.91781e-22)
(1.05878 -0.0577835 -3.90923e-20)
(1.03643 -0.0224775 0)
(0.891947 -0.0857684 -2.20675e-22)
(1.02331 -0.00322417 0)
(0.898472 -0.083036 0)
(1.00354 1.49165e-06 2.2714e-23)
(1.06824 -0.0316512 -2.12176e-20)
(0.873278 -0.00192881 -6.8737e-21)
(1.01327 -0.00350656 -3.08277e-23)
(1.029 -0.0150113 -2.2681e-21)
(1.03134 -0.0483633 0)
(1.0094 -0.000760636 -1.6501e-22)
(1.03846 -0.0188052 0)
(0.935354 -0.0622957 1.11252e-21)
(-0.0332131 0.00283331 -1.00112e-20)
(1.03991 -0.0546177 -1.40239e-20)
(1.04284 -0.0701748 1.90503e-20)
(0.996589 -0.0330635 1.80245e-24)
(1.00872 0.000137364 -2.31611e-23)
(1.01196 -0.0024169 -4.60894e-22)
(-0.196875 0.0795045 -4.96206e-20)
(1.02408 -0.0860942 -2.067e-20)
(1.06129 -0.0107211 4.84946e-22)
(0.990689 -0.025753 6.19356e-21)
(1.00974 -0.00136159 0)
(1.01693 3.79666e-06 0)
(1.00736 4.68399e-05 0)
(0.830167 0.178192 0)
(0.995598 -0.076376 -2.20007e-20)
(1.03599 -0.0129111 2.32304e-21)
(1.01895 -0.0123269 3.5106e-22)
(0.967994 -0.0135002 6.58903e-23)
(1.0455 -0.0184736 0)
(1.00522 -4.39706e-06 -1.31407e-22)
(0.0246844 0.0880092 -5.071e-20)
(0.995003 -0.00932582 -2.77788e-21)
(0.957765 -0.00306547 -1.54206e-20)
(1.00979 0.000529672 -5.68067e-23)
(1.02923 -0.0057022 -3.04833e-21)
(0.826372 0.0209156 0)
(-0.0124603 0.00203727 -1.88835e-20)
(1.02873 -0.0934916 5.50046e-21)
(1.01899 -0.00873816 0)
(0.97732 -0.0711737 0)
(1.02312 -0.00356769 -1.21813e-21)
(0.971893 -0.0237597 -1.32147e-21)
(1.00492 -0.0481106 -4.87771e-21)
(1.01688 -0.0341907 6.6683e-21)
(1.03622 -0.0157721 -4.97567e-21)
(0.0411728 0.0894601 3.99723e-20)
(1.04074 0.0112833 -2.04249e-23)
(1.01471 -0.01171 0)
(1.00132 -0.0943898 0)
(1.00448 -0.000110041 5.02645e-24)
(1.00303 -6.7973e-05 -8.86245e-22)
(1.03202 -0.0124918 0)
(1.00994 -0.00107687 5.2471e-23)
(0.0292419 0.0912501 -5.20483e-20)
(1.03351 -0.0211884 -4.93705e-21)
(1.03474 -0.0585707 0)
(1.01295 -0.0281174 0)
(0.975743 -0.000940176 1.38199e-21)
(1.01054 -0.00117735 0)
(0.932343 -0.0736129 0)
(1.00652 -0.000218194 0)
(1.04227 0.00879278 1.82315e-22)
(1.00661 3.19463e-05 -8.46736e-23)
(1.01562 -0.00570873 -1.77086e-21)
(1.01208 -0.000903502 -1.70343e-23)
(1.0183 -0.015888 -2.0296e-20)
(1.01236 -0.0034292 0)
(1.00789 0.000141708 -7.64581e-24)
(0.917065 -0.0113948 4.64347e-21)
(1.03054 -0.00272386 -5.60537e-21)
(0.842422 0.0158823 1.08337e-20)
(1.00303 -4.03492e-06 0)
(1.02249 -0.00841813 1.0364e-22)
(1.04892 -0.0648952 0)
(0.976469 -0.0129668 4.11827e-22)
(0.847091 0.126788 0)
(1.00829 -0.000297202 -3.1865e-22)
(0.976034 -0.0582432 -2.16415e-21)
(1.02123 -0.0488707 0)
(1.03206 -0.00932735 -3.58278e-21)
(1.02609 -0.026215 -7.09716e-22)
(1.0668 -0.0310276 2.86e-20)
(1.0096 -0.00100067 4.86759e-23)
(1.01085 -0.0202324 0)
(0.00112424 0.105527 4.27655e-20)
(0.978886 -0.0516403 -1.06139e-21)
(1.03552 -0.0147863 5.77298e-21)
(1.00859 -0.000324522 1.54378e-22)
(1.00845 0.000189937 -9.16792e-23)
(0.913515 -0.0288504 1.02939e-21)
(1.01304 -0.0331216 -6.75312e-22)
(1.03401 0.00890495 0)
(1.03664 -0.0124957 1.8903e-21)
(1.00948 -0.0202927 0)
(1.01951 -0.000289253 7.93827e-22)
(1.02129 -0.00858539 0)
(1.05711 -0.0866965 0)
(0.897672 -0.0118581 3.61896e-22)
(1.03028 -0.0521697 -2.78538e-21)
(0.858388 -0.0905724 -3.38986e-21)
(1.02871 -0.00547715 -2.60006e-21)
(1.03072 -0.0510423 2.88014e-21)
(1.04068 -0.0623099 1.46935e-21)
(0.961075 -0.121236 1.26095e-21)
(1.03607 -0.0129181 0)
(0.442893 -0.106635 -1.13599e-20)
(1.04136 -0.0525086 -2.21897e-20)
(1.03098 -0.00241004 -5.92477e-23)
(0.359937 0.00765997 3.87792e-20)
(1.10479 -0.0506068 0)
(1.01706 -0.0988251 -3.32446e-20)
(-0.0356034 0.0189799 3.28747e-21)
(1.03949 -0.0216237 0)
(0.92101 0.0475826 0)
(1.02797 -0.0195415 -6.11559e-21)
(1.00974 -0.00100299 -4.49087e-23)
(1.03372 -0.0270687 0)
(-0.0652813 0.0274348 -4.21594e-20)
(0.163288 0.0361574 2.3732e-20)
(1.01405 -0.00162105 0)
(1.00315 -2.43588e-05 -6.30152e-23)
(1.04555 -0.059111 1.35067e-20)
(0.99549 -0.0310471 -1.26605e-22)
(1.00878 0.000337468 1.09081e-22)
(-0.022267 0.0280422 3.48534e-20)
(1.00957 -0.00127192 -4.58517e-23)
(1.02338 -0.00558977 -1.43387e-21)
(0.016109 0.0974966 2.95153e-20)
(0.835128 0.02046 -1.21776e-20)
(0.998092 -0.0357135 -7.55465e-24)
(1.01021 -0.00157637 -1.31137e-21)
(1.02105 -0.00050997 1.12429e-21)
(-0.0176556 0.00809975 1.16407e-22)
(1.02265 -0.0570642 2.14964e-20)
(1.03556 -0.0793607 -7.64839e-22)
(1.01059 0.00515668 -3.07673e-22)
(0.977138 -0.0576286 -4.61766e-20)
(0.991289 -0.0514623 0)
(0.960506 -0.142466 -1.69962e-20)
(1.04448 -0.0507503 -1.07259e-20)
(1.05281 -0.0448459 0)
(1.03014 -0.00952026 3.17018e-21)
(1.03036 -0.00345317 7.25396e-21)
(0.722633 0.153906 -7.77545e-22)
(1.06768 -0.0583444 0)
(0.618634 0.00636541 0)
(1.01727 0.0315289 -1.97758e-21)
(1.05349 -0.0372974 1.28478e-20)
(0.0417032 0.0859153 5.03462e-20)
(1.0071 -0.092985 -2.48046e-22)
(0.877426 0.0148417 1.34782e-20)
(1.02544 -0.00352328 0)
(1.05774 -0.0335251 1.54245e-20)
(1.01033 -0.00153499 -5.08655e-22)
(1.03258 -0.0120323 -2.85698e-21)
(1.02837 -0.0151196 4.38976e-22)
(0.551119 -0.0279561 -1.10527e-21)
(1.01167 -6.63197e-05 -3.63126e-23)
(0.793223 -0.0425971 2.10096e-21)
(1.00853 0.000273507 4.0097e-23)
(1.0489 -0.0636518 1.10593e-20)
(1.01669 -0.00491203 0)
(0.998045 -0.0485269 -4.16789e-21)
(1.05683 -0.037114 9.24238e-21)
(1.05636 -0.03289 0)
(1.00796 -0.03856 -2.43344e-20)
(1.05682 -0.0487723 2.2173e-23)
(1.0432 0.000194773 0)
(1.00468 -9.42692e-05 -6.06793e-23)
(1.0474 -0.0621909 0)
(0.857863 -0.115319 0)
(1.0528 -0.0582298 3.55093e-22)
(1.03438 -0.0131265 -2.87162e-21)
(0.822236 0.022278 1.46464e-20)
(1.00855 -0.000489083 1.18651e-22)
(0.0212149 0.0376328 -3.22993e-21)
(0.847605 0.106103 -6.17288e-21)
(1.0275 -0.0081184 3.8816e-21)
(0.99826 -0.0427431 -9.84966e-21)
(-0.126615 0.0375579 1.76999e-20)
(0.855451 0.013524 1.36471e-21)
(0.932847 0.0242721 0)
(1.02168 0.0304036 1.21957e-21)
(1.01328 -0.00276566 -8.97722e-23)
(0.949981 -0.00171481 1.5375e-20)
(1.01711 -0.000150128 7.58598e-23)
(0.810324 -0.243142 -3.13539e-22)
(0.8349 -0.0082494 0)
(1.0121 -0.00279933 -2.00522e-22)
(1.0465 -0.00997341 -9.94438e-21)
(1.01554 -0.0735011 1.26685e-20)
(0.910513 -0.0479485 -8.31841e-22)
(0.330699 -0.076971 -9.98661e-21)
(1.02766 -0.00655386 -7.26288e-21)
(1.00653 -0.000175078 1.49759e-23)
(0.7004 0.286861 1.28748e-20)
(0.858849 -0.00313551 -1.04735e-20)
(1.03503 -0.0574763 2.7546e-20)
(1.03557 -0.014593 1.95417e-21)
(1.01143 0.00292995 1.38474e-21)
(0.846891 0.091773 0)
(0.00182518 0.0954225 -4.9419e-20)
(1.03965 -0.061866 -2.81564e-23)
(1.00795 0.000147544 0)
(1.02738 -0.0206319 6.39187e-21)
(1.00939 -0.000813494 0)
(1.0076 -0.000220167 -6.35375e-22)
(1.00138 -0.0252691 -1.10439e-23)
(1.00292 -3.08169e-05 -8.94019e-23)
(0.959796 -0.0392599 0)
(0.975515 -0.0333647 7.84325e-22)
(1.02347 -0.00581891 -2.20142e-21)
(1.02635 -0.00712253 7.07127e-23)
(1.01337 -0.00265819 1.67515e-22)
(1.03235 -0.0124423 -1.95697e-21)
(0.730743 0.0154365 -6.27296e-22)
(0.96621 -0.0360951 2.70745e-20)
(1.04238 -0.0277165 7.29949e-21)
(0.456199 -0.124317 -6.42873e-21)
(1.01673 -0.004713 -7.17255e-22)
(1.04072 -0.0267201 0)
(1.01333 -0.00254025 9.3053e-23)
(1.00949 -0.000878958 0)
(1.02472 -0.00844123 1.28426e-21)
(1.02306 -0.00577063 6.87942e-22)
(0.777281 0.00848117 -4.34456e-22)
(1.02392 -0.00363849 4.47775e-21)
(1.05678 -0.0566761 1.56933e-20)
(1.02562 -0.00381143 0)
(1.03552 -0.0152561 -1.91308e-21)
(1.00267 -0.0273305 3.5154e-23)
(-0.00171542 -0.00717718 5.54269e-20)
(1.0075 -0.000341213 4.03495e-24)
(0.400139 -0.168947 -9.27904e-21)
(1.03122 0.0102103 0)
(1.0323 -0.0481234 2.17577e-20)
(1.03338 -0.0221555 5.40734e-21)
(1.036 -0.0266922 0)
(0.624682 0.0114428 -1.97879e-21)
(1.04769 -0.0250147 6.49076e-21)
(1.05485 -0.0114603 1.35567e-22)
(0.558812 -0.0350198 9.02325e-22)
(0.948358 -0.202028 -1.3314e-22)
(-0.0227675 0.0883963 0)
(1.03407 -0.0331423 1.29616e-20)
(0.965586 -0.0407206 -1.92939e-22)
(1.02385 -0.0119981 0)
(1.05696 -0.0470665 -9.35313e-21)
(1.04518 -0.0494474 1.10554e-20)
(0.347495 -0.0983258 5.0468e-21)