/*--------------------------------*- C++ -*----------------------------------*\
| =========                 |                                                 |
| \\      /  F ield         | OpenFOAM: The Open Source CFD Toolbox           |
|  \\    /   O peration     | Version:  v2012                                 |
|   \\  /    A nd           | Website:  www.openfoam.com                      |
|    \\/     M anipulation  |                                                 |
\*---------------------------------------------------------------------------*/
FoamFile
{
    version     2.0;
    format      ascii;
    class       volVectorField;
    location    "550";
    object      ddtCorrDdt0(U);
}
// * * * * * * * * * * * * * * * * * * * * * * * * * * * * * * * * * * * * * //

dimensions      [0 1 -2 0 0 0 0];


internalField   nonuniform List<vector> 
13917
(
(-0.000811636 -0.000285538 -3.56748e-18)
(-0.000313499 -0.000149899 -1.04323e-19)
(0.00253533 0.00346083 -1.67815e-18)
(-0.000148995 0.000498361 5.78296e-18)
(-1.72113e-05 -0.000221323 4.0384e-18)
(-1.34799e-05 -0.00125451 3.72878e-17)
(0.00232707 0.00418902 7.03883e-18)
(0.003827 0.0023735 1.75343e-17)
(0.00623649 -0.00335905 4.71402e-19)
(-0.000971112 -0.000260463 -1.55623e-19)
(-0.00272456 0.00406879 1.298e-18)
(-0.00029715 0.00199297 -7.04282e-19)
(-0.000138727 0.00051496 5.36662e-18)
(0.00922018 0.00041225 -8.66688e-18)
(-0.000387118 -0.000489414 -7.75296e-18)
(-0.00042334 -0.000400339 2.51296e-18)
(-0.000317377 -0.000211844 1.70341e-19)
(-0.00126356 -0.00023856 -1.74315e-17)
(-0.00026224 0.00192763 1.1699e-18)
(-3.17595e-05 -7.26817e-05 1.00754e-18)
(-6.70413e-07 -1.44383e-05 -4.45157e-18)
(0.0024595 0.00417409 -1.03073e-17)
(-4.73752e-05 -0.000117967 3.22327e-18)
(0.00336107 0.00270671 -2.25121e-17)
(-8.03229e-05 -0.000149448 2.25638e-18)
(9.18859e-05 0.004801 2.45938e-19)
(-8.10911e-05 -0.000910066 -1.29183e-17)
(-0.000219992 -0.000983971 -3.58076e-17)
(-0.000382181 -0.00160955 2.43758e-18)
(-0.000693843 -0.000193322 -3.32978e-17)
(-0.000828672 -0.000257415 -2.33864e-17)
(-0.000633681 -0.000218473 5.86171e-18)
(-0.000163376 -0.000820734 2.02736e-17)
(-7.82329e-06 -0.000659357 3.6229e-18)
(-6.36799e-05 -0.000171549 -1.929e-18)
(-0.00204456 0.00751642 5.38883e-19)
(-4.32964e-05 -0.000123057 -1.22713e-18)
(0.00832548 0.000260539 1.89987e-17)
(-0.000159851 0.000664312 2.19665e-18)
(-0.00672467 0.000720602 1.75839e-17)
(-5.7649e-05 -4.80742e-06 1.04643e-20)
(-1.02736e-07 -2.33791e-06 -1.74014e-18)
(-5.92703e-05 2.48909e-05 8.71318e-19)
(-0.000277508 -0.00112862 -8.26296e-17)
(-0.00030784 3.53136e-05 1.60602e-18)
(-5.12374e-05 -0.000699562 -9.36877e-18)
(-0.00127945 -0.000196368 1.79935e-17)
(-0.00203775 8.35463e-05 -7.62477e-18)
(-5.67374e-05 -0.00129551 4.0771e-17)
(-3.77225e-05 -4.13913e-06 1.34238e-18)
(-0.000713571 0.00022195 8.45395e-19)
(-4.50329e-05 -0.000470063 -9.35196e-18)
(-6.77229e-05 -0.00132719 -8.13802e-17)
(-1.09196e-05 -0.000668897 -2.32542e-18)
(-0.00031933 -0.00022299 -2.68322e-19)
(-0.000708194 -6.11397e-06 -2.48366e-17)
(-0.00280111 0.0038781 -2.0965e-18)
(-0.000166178 -0.000302968 -2.36812e-18)
(-0.000606906 -3.41557e-05 9.15043e-18)
(-0.000297243 3.36168e-05 -9.99455e-19)
(0.000570219 0.00106742 -2.36856e-17)
(-0.000318472 -0.000137536 3.39395e-19)
(0.00779668 0.000200492 1.17604e-17)
(-3.47142e-05 -7.4005e-05 -1.25979e-18)
(-6.39641e-05 -0.00126971 -3.20281e-17)
(0.00423489 0.000579691 -5.49069e-17)
(3.67272e-06 -0.000224 -2.18955e-18)
(6.11626e-06 -0.000189998 4.37207e-18)
(-0.00446445 1.44059e-05 -1.72756e-17)
(-0.000748784 -0.000357121 -5.96027e-19)
(-1.84495e-05 -0.000220625 -4.09687e-18)
(0.00724151 -0.00352338 -3.32247e-18)
(-0.00031235 -0.000943831 -4.47117e-17)
(-7.96013e-05 -0.000142482 -3.11348e-19)
(-3.02653e-06 -0.00128525 -3.70875e-17)
(0.000376105 0.001744 2.02683e-17)
(0.00390912 -0.000486832 1.58646e-17)
(-0.00042673 4.56217e-05 -6.51309e-18)
(-0.00182647 0.00417973 1.25492e-18)
(-3.19118e-06 -4.93727e-05 1.8388e-18)
(-7.83013e-06 -7.16803e-05 2.11039e-18)
(2.9565e-06 -0.000228706 1.00892e-17)
(-4.95543e-05 -0.00125852 6.66563e-17)
(0.00815452 0.000190769 4.58349e-18)
(0.00186146 0.000472124 1.43444e-17)
(-0.000412069 5.01543e-05 -1.00976e-17)
(-1.42817e-05 -9.2158e-05 -6.74698e-19)
(0.0025319 0.000318218 -1.64062e-18)
(-0.000692324 0.00022142 -1.98234e-17)
(-5.99987e-05 2.82287e-05 -1.36053e-18)
(0.00302051 -0.00139506 1.95041e-17)
(-0.000918175 -0.000132663 -1.17875e-17)
(-0.000226846 -2.84688e-05 -2.0788e-19)
(-0.000249389 -0.000469579 -3.7861e-18)
(0.00774182 -0.00190748 4.43897e-17)
(-5.87651e-05 -0.00126792 -4.72478e-17)
(-0.00328594 0.00179981 2.72838e-17)
(-0.00174085 -9.09197e-05 -6.19798e-18)
(0.00135447 0.00294231 8.05374e-18)
(-0.000118445 -0.0011567 4.22283e-17)
(-8.10214e-05 -2.74181e-05 4.79039e-20)
(-3.4071e-06 -0.00081034 -2.18009e-17)
(-0.000248388 -0.0011088 9.16505e-18)
(-0.000458981 0.000105582 -1.39076e-17)
(-0.000133246 -1.82041e-05 2.3459e-19)
(0.00725292 -0.00337667 9.23602e-19)
(-0.000548404 -0.00154584 -2.07876e-17)
(-0.00209078 -2.51545e-05 -1.89935e-17)
(-0.000326603 -0.000197844 9.46879e-20)
(-0.000850198 -0.000278264 7.54015e-18)
(-0.00260665 0.00109599 -1.12502e-17)
(-0.0063939 0.000929202 -1.60143e-17)
(1.55568e-05 0.00246657 -3.03138e-18)
(0.00671073 -0.00335986 -3.9063e-18)
(-3.71676e-05 -0.000560209 -1.51804e-17)
(-8.376e-05 -0.00136199 4.29129e-17)
(-8.22731e-05 -9.2615e-05 1.67108e-18)
(-7.76425e-05 -0.0013291 1.86786e-16)
(0.00421028 0.00127391 4.13602e-18)
(-5.58291e-05 -0.000664733 -2.83784e-17)
(-2.04851e-07 -8.98767e-06 1.77815e-18)
(-0.00426665 -9.45731e-05 9.77559e-18)
(0.00668707 0.00107563 -1.34755e-18)
(-0.00020905 -0.00096804 -7.98413e-18)
(-4.37073e-05 -2.49758e-06 7.64918e-20)
(-0.000241158 -0.00046368 3.55449e-18)
(-0.00030286 1.11207e-05 2.09475e-18)
(-4.32602e-05 -1.90788e-06 -8.30639e-19)
(-5.14897e-05 1.09517e-05 -1.35145e-18)
(-8.47129e-05 -0.00127208 -7.40013e-18)
(0.00572102 0.00212855 -1.58509e-17)
(-3.21474e-05 -0.000552858 1.49391e-17)
(-0.000316908 3.19788e-05 9.10347e-19)
(-4.40442e-07 -1.06585e-05 4.4496e-18)
(0.00225609 -0.00353067 3.97589e-17)
(0.00302771 0.00306204 3.07111e-18)
(-0.000813613 -0.000296986 1.03694e-17)
(-0.000121609 -0.00115889 -2.92729e-17)
(9.00002e-07 -0.000220801 4.34015e-18)
(-3.88805e-05 -0.000663573 2.09342e-17)
(-0.00342412 0.00685758 1.39206e-17)
(-0.000162926 3.86016e-05 2.1968e-18)
(-9.46071e-05 -0.000502513 -9.19886e-18)
(-0.000215375 -0.00117151 -4.81259e-17)
(2.88362e-06 -0.000193781 -1.63243e-18)
(0.00965029 -0.00346184 -1.3519e-17)
(-0.000487863 -0.00166373 -3.31381e-18)
(-4.75426e-05 -0.000455803 2.38165e-18)
(-0.000141193 3.77584e-05 -1.19169e-18)
(-0.000636958 -0.000257524 7.98583e-18)
(-0.00162629 0.000951759 5.79806e-18)
(-0.000110719 -0.00128375 2.69949e-17)
(-0.00171908 0.00236679 1.29748e-17)
(-0.000741163 -0.000559527 -1.09329e-19)
(-0.000663072 -0.000120422 3.24939e-18)
(0.00128551 9.98215e-05 5.91364e-18)
(-0.000724256 -0.000364981 -7.11293e-19)
(0.0027323 0.00246669 -4.94267e-18)
(0.00394522 -0.000280788 -2.19116e-17)
(0.00187935 -0.00172879 -5.77278e-17)
(-0.000167062 -0.000582284 -1.43559e-17)
(3.3989e-05 -0.000907316 1.84026e-17)
(-3.15712e-06 -4.11363e-05 -2.02701e-18)
(-0.00310785 0.0018483 -7.20562e-18)
(-0.000112289 0.00244007 -1.19445e-18)
(0.00119692 0.00298146 -6.56973e-18)
(-0.000457033 9.70086e-05 1.70958e-18)
(-0.00180484 0.000473679 -1.89017e-18)
(-0.000250504 3.60253e-05 -1.58998e-18)
(-2.91784e-06 -0.000815456 3.98456e-17)
(-0.000781586 -0.000504232 -5.14378e-18)
(-0.00169426 0.000783424 -4.07867e-17)
(0.000350143 0.00247907 -1.05374e-17)
(-0.000352059 -0.000248707 -1.35782e-18)
(0.00981828 -0.00253632 3.98335e-18)
(-0.000770624 -0.000640119 -2.36035e-19)
(0.00557227 0.00233828 1.26321e-17)
(-4.83384e-05 -0.001338 8.62039e-17)
(0.00995983 -0.0034176 -1.20206e-17)
(-0.000202862 -0.000174462 -1.17071e-19)
(-0.000891219 -0.00011588 2.66825e-17)
(-0.000838802 -0.000251521 1.71546e-17)
(-0.00016061 3.9776e-05 -3.36804e-18)
(-1.69867e-05 -0.000101804 2.8505e-18)
(-0.000377905 -0.00062436 -1.54624e-17)
(-0.000895137 0.00510809 1.10018e-17)
(-0.000892814 0.000606705 7.54674e-17)
(0.00170272 0.000179674 -5.76125e-17)
(-0.000930911 -0.000117158 7.1617e-18)
(0.00013571 0.00350818 -5.14509e-19)
(-0.00747908 0.00516068 3.80139e-19)
(0.00181245 0.000450193 3.56634e-17)
(-0.00135954 0.00035514 3.32722e-17)
(-4.27132e-05 -0.000155502 -5.09478e-18)
(-6.44672e-05 -0.00118663 -1.54256e-17)
(-8.6387e-05 -0.00089155 9.72545e-18)
(-4.9343e-05 -1.87938e-07 -1.19819e-19)
(-0.00023262 -3.25951e-05 6.05077e-19)
(-0.000675044 -0.00142439 6.70826e-18)
(0.00165507 0.00167159 -4.44949e-17)
(-0.000530744 0.000494253 1.91125e-17)
(-3.69365e-05 -4.47545e-06 1.83305e-19)
(-0.0016636 0.000628457 -2.40137e-17)
(-0.00155779 0.000983135 -6.61221e-18)
(-0.000153736 -0.000680508 -1.59894e-17)
(-0.000738833 -0.0046017 7.04006e-18)
(-5.9257e-05 -0.000167085 6.0675e-18)
(-0.000171915 -0.000315568 3.1767e-18)
(-0.00175167 -7.45205e-06 1.56965e-17)
(0.000119804 0.00484747 2.04842e-18)
(-9.64856e-05 -0.000492957 1.45293e-17)
(0.00280457 0.00390782 7.97926e-18)
(-5.50372e-05 -0.00028732 -8.31404e-18)
(-4.16293e-05 0.003507 -3.66302e-18)
(-0.000133088 -2.59012e-05 -3.62804e-19)
(-0.000269914 -0.00153831 5.8301e-17)
(-0.00161709 0.000154465 -2.11787e-17)
(-0.00391499 0.000490981 -7.21924e-17)
(-0.000111257 -0.000130195 9.67268e-19)
(0.00042094 0.00108701 3.50211e-17)
(-0.00019486 -0.000172262 1.29482e-19)
(-0.000702619 -0.000377493 1.43756e-17)
(-5.5831e-05 -5.78311e-06 1.52052e-20)
(0.00769466 -0.000282233 -7.75561e-18)
(0.00689396 -0.00340511 -1.78641e-17)
(-0.000441341 -0.000402313 1.21353e-18)
(-0.00232292 -0.000786874 7.8171e-17)
(-0.000679584 -0.0001196 5.14567e-18)
(-0.000127586 -3.32121e-05 3.24656e-19)
(-0.00198533 0.00750029 1.95277e-18)
(0.000374145 0.00235288 5.04307e-18)
(-0.000934867 -9.73888e-05 -3.96916e-18)
(0.00204035 0.00366906 1.33249e-17)
(-0.000174275 -0.00019868 -1.25223e-17)
(-7.37278e-05 -3.7681e-06 1.46622e-19)
(-0.000649281 -0.000220293 -3.43125e-18)
(0.00279976 -0.00167839 -2.89142e-17)
(0.00180925 0.000234135 7.959e-17)
(-4.11372e-06 -5.10687e-05 -1.45116e-19)
(-6.85093e-05 -3.98765e-05 7.75943e-19)
(-0.00817491 0.000651865 2.32927e-19)
(-0.00372591 0.00150932 -2.09401e-18)
(-1.29329e-07 -5.95846e-07 5.06912e-19)
(-0.000745779 0.0064491 -1.17368e-17)
(-0.00135602 -0.000904278 1.30157e-17)
(4.02281e-05 -0.000902639 -1.6656e-17)
(-0.000778676 -0.000256611 -1.84872e-17)
(-3.90429e-06 -4.70085e-05 1.80784e-18)
(-0.000682524 -0.000723411 -2.49267e-18)
(0.00136267 -0.000228058 2.11773e-17)
(-0.000179595 0.000176187 -3.72836e-18)
(-0.000969878 -9.05721e-06 1.71378e-17)
(-0.000166608 -0.0012239 -1.44623e-16)
(-0.000294846 1.65315e-05 -1.22625e-19)
(-0.000156311 -0.000294381 2.70218e-18)
(-0.00132918 0.00194318 -4.42028e-18)
(-0.00699988 0.00111152 -3.66877e-18)
(-0.00162088 0.00228818 -2.69383e-18)
(-0.000394977 -0.000630435 -8.7494e-18)
(-0.000404489 -0.000489386 4.35159e-18)
(-1.18798e-07 -9.33885e-07 -5.06718e-20)
(0.0065219 0.000876032 1.32239e-17)
(0.00533079 -0.000980996 6.88589e-18)
(0.00216152 0.00638654 -3.30549e-17)
(-0.000127848 -4.11192e-05 2.31297e-19)
(-0.00279179 -0.000421263 5.05255e-17)
(0.00834897 0.000139563 -1.89381e-17)
(0.00453335 0.00239913 -1.07739e-17)
(-0.00206826 0.00499025 4.67423e-18)
(0.000489192 0.00178271 -1.23819e-17)
(-6.90479e-06 -6.61985e-05 -2.14579e-18)
(-4.63856e-05 -3.40041e-06 -2.37432e-19)
(-0.00135149 -0.000143051 -2.01034e-17)
(0.00681233 -0.000578772 9.38014e-18)
(-0.00274478 -0.000796225 1.1674e-17)
(-0.000593222 -2.36821e-05 -1.14342e-17)
(0.00159466 -0.00478955 -1.41789e-17)
(-0.000148576 0.00132672 1.42141e-17)
(-4.81612e-05 7.89523e-06 -1.06029e-18)
(0.000902097 0.00140565 3.94509e-17)
(-3.554e-05 -5.75256e-05 -5.69779e-19)
(0.0096907 -0.00235405 -1.10071e-17)
(-0.000505208 0.000480498 -6.67604e-18)
(-1.67837e-07 -7.52855e-07 -9.1163e-19)
(-0.000497816 -0.00042516 -5.42451e-19)
(-0.000737012 -0.000576482 -2.83007e-18)
(2.30715e-05 -0.00090468 -7.1777e-19)
(-0.00105441 0.00678518 9.77363e-18)
(-0.0005879 -0.000524569 2.63068e-19)
(-0.000250989 0.000111329 -1.81486e-18)
(0.000732635 -0.00105205 7.70322e-17)
(0.00225685 0.00349719 1.117e-18)
(0.00517026 -0.00082596 1.57953e-17)
(-0.000107116 -0.000121945 3.07474e-18)
(0.00626336 0.000725294 1.43723e-17)
(-2.06439e-06 -0.000184956 -5.52483e-18)
(-0.000245235 0.000121553 -1.84605e-18)
(-7.88131e-05 -8.96978e-05 3.86365e-18)
(-0.000489704 -0.00174411 3.33184e-18)
(-2.37185e-05 -1.17794e-05 1.5537e-18)
(-0.00066435 -0.000376492 -8.99365e-18)
(-0.000765518 -0.000258183 1.63126e-17)
(-0.000240803 3.85979e-05 -1.33965e-18)
(-0.001696 0.000705299 2.39214e-17)
(-0.00044869 -0.00012166 -4.90437e-19)
(-8.10853e-05 -0.00142293 8.51841e-17)
(-0.000750757 -0.000623581 9.05291e-19)
(-0.000909831 -0.00015561 7.80725e-17)
(-0.000193568 4.46021e-05 -3.51458e-18)
(-0.000151135 -0.000279888 -6.48453e-19)
(-0.0023603 0.00113468 -1.49617e-17)
(0.00762083 0.000796698 1.20848e-17)
(-8.59088e-05 -9.33775e-05 5.58868e-19)
(-4.99783e-05 -4.75082e-06 -8.09954e-20)
(0.000655302 0.00123945 1.90066e-17)
(-0.000207958 -0.000129263 5.61622e-20)
(-0.00011905 -0.0011703 4.37124e-17)
(-0.000188365 4.47387e-05 5.93273e-18)
(0.00752047 -0.000507535 -8.26709e-18)
(-0.000134727 0.000342329 -3.38904e-19)
(-0.00190799 -0.000782265 -3.63022e-17)
(-0.000976417 0.000377866 5.65145e-19)
(-1.02671e-07 -0.00129589 -1.87997e-17)
(-0.000168274 -0.000572729 7.9444e-18)
(0.0025534 -0.000399065 6.51152e-17)
(-0.000209818 -0.00132639 9.21183e-18)
(-0.000500265 -0.000409826 1.07672e-18)
(-0.00371517 0.0013114 2.2051e-17)
(-0.000879384 -0.00163777 -3.8765e-18)
(-0.000247487 -0.000354071 -1.11392e-17)
(0.00766349 0.00127443 -5.06298e-18)
(-4.25195e-05 -0.00114942 2.19972e-17)
(0.00836472 0.000242585 1.47554e-17)
(-7.43228e-05 -0.000632593 -7.80481e-18)
(-0.00132585 0.000985091 1.69472e-17)
(-0.000672014 -0.000212853 5.40432e-18)
(0.000840666 0.00165914 -1.21996e-17)
(-0.000198333 -0.00128913 -1.87262e-17)
(-0.000743577 -0.00117963 -2.0341e-17)
(-0.00077501 -0.00115523 5.8508e-18)
(0.00314523 0.00328774 -1.5148e-17)
(-5.08512e-06 -8.42182e-05 -9.22104e-19)
(-0.00081085 -0.000500976 6.08144e-18)
(-0.00221153 0.0012633 -7.0377e-18)
(-0.000149121 -0.000390879 -4.82459e-18)
(-0.000383362 -0.000337686 5.10318e-18)
(0.0086755 0.000409074 1.35549e-17)
(-0.000648919 -0.00149922 -9.91769e-18)
(-0.000353956 -0.000208613 -3.21335e-19)
(-0.00711676 0.00484999 -5.71687e-19)
(-0.000362395 -0.00155038 7.28491e-18)
(-6.84068e-05 -3.12476e-05 -8.61609e-21)
(0.00432568 0.00105502 2.67493e-18)
(-0.004094 0.00649843 1.44925e-17)
(-3.82857e-05 -5.81283e-05 -1.49124e-18)
(-0.000103549 -8.93513e-05 -5.84666e-19)
(-1.6546e-06 -0.000172918 6.15686e-18)
(-0.000139576 3.85751e-05 -5.30698e-19)
(0.000420814 -0.00119074 -9.8037e-17)
(0.0100338 -0.00324342 1.91019e-17)
(-7.68691e-06 -0.00133574 -8.64415e-17)
(-0.00204507 0.00130238 1.90847e-17)
(-8.18992e-05 -0.00012132 -5.78413e-19)
(-0.000971572 3.49586e-05 3.63285e-17)
(0.00145509 0.000285106 -4.76419e-17)
(-0.00127601 0.000535713 -1.76699e-17)
(0.00309501 0.00388103 -6.6493e-18)
(0.00665072 -0.000794357 3.84067e-17)
(0.00632329 -0.00340939 3.05731e-17)
(-8.56037e-05 -3.67871e-06 6.50097e-20)
(0.00243576 0.00609875 2.19349e-17)
(-0.000108124 -8.4922e-05 -3.68889e-19)
(0.000478362 0.00116846 4.8802e-17)
(-0.000295746 3.08102e-05 4.2237e-18)
(-1.5567e-05 -0.00136944 2.60661e-17)
(-0.00127219 -0.0009377 3.68577e-17)
(-0.000306252 0.000540589 -4.94426e-18)
(-7.65963e-06 -0.000116083 -8.59442e-19)
(-0.00168709 4.18185e-05 1.46293e-17)
(-0.000891612 -8.53577e-05 -2.72658e-18)
(-0.00154801 -0.000514263 -7.76734e-18)
(-0.000209154 -0.00189485 -9.23721e-18)
(0.000648343 0.00152 7.18641e-17)
(-0.00404593 0.000491952 8.7554e-17)
(-0.000714904 -0.000735625 2.94162e-18)
(-0.000951233 -0.000264336 1.81032e-18)
(-6.53601e-05 -3.52076e-05 -5.2114e-19)
(0.00185355 0.000221948 -9.79774e-17)
(0.00190435 0.00433817 9.0217e-18)
(-0.000198557 -0.000303993 -2.1665e-18)
(0.00169259 0.0003141 3.90528e-17)
(-6.03411e-05 -0.000146219 5.57307e-19)
(-0.000515756 -0.00302412 4.29015e-17)
(-0.000151884 0.000334271 2.29478e-18)
(-3.40155e-06 -6.52342e-05 1.20857e-18)
(-0.000439721 -0.000150573 3.40889e-19)
(-0.00484625 0.00261753 -3.38469e-18)
(-0.00043527 -0.000157873 8.07524e-20)
(-0.00668775 0.00128573 -2.36968e-18)
(0.00121644 -0.000528792 -2.73938e-17)
(-0.00154966 0.00403188 4.96226e-18)
(-0.000159246 -0.00132684 1.67844e-16)
(-0.000247707 -0.000341706 4.81044e-18)
(-0.000301091 -0.00132673 -6.59065e-17)
(-0.000165911 -0.0013315 9.98536e-17)
(-6.47452e-05 -7.57549e-05 1.69889e-18)
(-0.000577176 -0.00149779 1.53215e-17)
(-0.000146815 -0.000381631 1.07573e-17)
(-6.758e-05 -0.000148507 2.40017e-18)
(-0.000726889 -0.000169726 1.19199e-17)
(-2.74189e-07 -1.93612e-06 8.29005e-19)
(-7.93797e-05 -0.000159484 9.1702e-18)
(-0.000108112 -8.2174e-05 6.40856e-19)
(0.00062421 -0.00112044 2.31428e-17)
(-2.10833e-06 -3.31064e-05 -4.76684e-18)
(-0.000920527 0.00124235 -1.18367e-17)
(-0.0045761 0.00371844 2.5195e-18)
(0.000741934 -5.72095e-05 6.02618e-17)
(-0.00139133 0.000304283 -3.1068e-18)
(-0.0031548 0.00239902 7.073e-18)
(-0.0039965 0.000257993 1.37115e-17)
(-0.00123968 0.000561534 1.86459e-17)
(-7.92084e-05 -0.000116513 -2.27568e-18)
(-0.000644897 -0.00150626 -3.97912e-18)
(-0.000176252 0.000641551 4.23284e-18)
(-0.000677864 -0.000237196 -1.80791e-17)
(-4.63509e-05 -0.000150627 6.28514e-18)
(0.00984932 -0.003339 7.22943e-18)
(0.00114407 0.00459642 -3.81532e-18)
(-0.00532825 0.00381705 1.15304e-17)
(-0.000394082 -0.000444296 4.12211e-18)
(-0.00154939 -0.00111513 9.42387e-18)
(-6.34613e-05 -0.000624694 7.26981e-18)
(-0.000171523 0.00069093 3.73935e-19)
(-0.0015928 -0.000455503 4.55633e-18)
(-0.00039495 -0.000219978 2.50264e-19)
(0.00309698 0.00571676 4.08992e-17)
(-0.000325201 -0.00018508 -1.68458e-19)
(-2.35927e-05 -1.39052e-05 -3.23412e-19)
(-0.000199416 -0.00144556 7.27313e-18)
(0.00514785 0.00234583 8.90432e-18)
(0.00502964 0.00255999 -9.62567e-18)
(-0.00132248 -0.000245152 2.82838e-17)
(0.000684775 3.96198e-05 -7.93198e-17)
(0.00754406 0.001397 6.36997e-18)
(-0.00312202 0.000233541 7.45971e-17)
(0.00629183 -0.000294447 -1.20595e-18)
(-5.50354e-05 1.05372e-05 -1.81949e-18)
(-0.00153065 -9.69637e-05 2.25748e-18)
(-0.000398974 -0.00021208 -6.37791e-20)
(-0.000171364 -0.00033613 -5.38342e-18)
(-0.00142924 -0.00447133 -7.8041e-18)
(-0.00133772 -0.000188121 4.31849e-18)
(-1.60831e-05 8.5452e-06 -1.07785e-19)
(-0.000956884 -0.000394677 8.61137e-19)
(-0.00120062 0.000430671 -2.65206e-18)
(0.00701213 -0.000218159 -1.03105e-17)
(-6.74927e-05 -7.11036e-05 -6.7738e-18)
(-0.0032601 0.000361241 -5.88654e-18)
(0.00121711 0.00069893 9.88085e-19)
(-0.00204752 -0.000847141 9.09983e-18)
(0.00071875 0.00159175 5.16474e-18)
(-1.41411e-06 -2.76656e-05 4.14021e-18)
(-0.000197503 -0.000313197 -1.45922e-19)
(-7.11709e-05 -2.46566e-08 -7.9976e-19)
(-0.000721037 -0.000376705 1.08558e-18)
(-8.37094e-05 -1.87249e-06 -1.46351e-18)
(-0.00256511 0.00529472 -8.10605e-18)
(6.00624e-06 -0.00131138 5.43167e-17)
(-0.000580944 -0.000500591 -3.01246e-18)
(0.00169787 0.000173229 9.58754e-18)
(-0.000704747 1.11017e-05 3.02077e-17)
(-0.00310133 0.00207222 6.18307e-18)
(-0.00268068 0.000267041 -4.49847e-17)
(-0.00051654 -0.00168052 3.17843e-19)
(-0.00136321 0.0039649 -8.99849e-18)
(-0.00397954 0.00713593 -1.3966e-17)
(-0.00337326 0.000450895 6.57829e-18)
(-0.000873672 -0.000325079 -1.96263e-18)
(-0.0013198 -0.00180474 -2.29788e-17)
(-0.000793398 0.00123817 -1.20738e-18)
(-0.00040236 0.00458993 2.24944e-17)
(-7.83629e-05 -0.00123523 2.83763e-17)
(-0.000517615 0.0014971 -1.72202e-19)
(-0.0023869 0.000182275 8.46545e-18)
(-6.16602e-05 3.61797e-06 1.01378e-18)
(0.00122328 -0.00307388 -2.50574e-17)
(-0.000753041 0.000185878 -6.36588e-18)
(-0.000111418 9.54396e-05 3.18139e-19)
(-0.000701818 -0.000373981 5.00497e-18)
(-0.000439286 5.95501e-05 5.4968e-18)
(0.00675436 -0.000263348 -1.83168e-18)
(0.00706552 -0.00352468 -3.04425e-17)
(-0.000199922 -0.000133136 2.4349e-19)
(-4.74004e-05 6.85583e-06 -5.17748e-19)
(-0.00169194 0.00538421 4.9025e-18)
(-0.00409797 0.000287634 -3.80276e-18)
(-1.5008e-07 -1.38172e-06 -7.39884e-19)
(0.000422343 0.00121994 1.60868e-17)
(-0.000328449 0.000260207 8.44404e-18)
(-0.00118467 0.000262201 -1.96273e-17)
(-0.000206253 -0.000150872 5.75432e-19)
(-0.00154853 -0.000515573 -4.44826e-18)
(0.00105777 -0.00268676 -1.85516e-17)
(-0.000640786 -0.000246247 -1.10773e-17)
(-0.000367776 -2.73652e-05 -1.12277e-18)
(-0.00290667 0.00273176 -2.17636e-18)
(-0.000900328 0.00048139 -2.76256e-17)
(0.00164611 0.000312495 -1.20906e-17)
(-2.11875e-07 -1.48901e-06 -3.99784e-19)
(0.000472858 -0.000326762 -3.5586e-17)
(-6.29136e-06 -0.00138128 2.43177e-16)
(0.000348521 0.00148573 -5.0794e-17)
(-0.000116353 8.9141e-05 3.38677e-19)
(0.00185367 0.000435773 -1.83422e-17)
(0.00284763 -0.000342924 -5.17537e-17)
(-0.00125385 0.000670834 -1.56657e-17)
(-0.000106955 -8.99913e-05 2.11833e-19)
(-0.000300322 -0.000262417 -1.08481e-18)
(0.000423163 0.00156541 6.17163e-18)
(-0.00104204 -0.00341324 -4.76071e-17)
(-1.27812e-05 1.12963e-05 7.33538e-19)
(-9.71983e-05 -8.25072e-05 -1.58523e-18)
(-4.33391e-05 -7.33201e-06 -2.19714e-19)
(-4.44265e-05 -8.17802e-06 -1.23982e-20)
(-0.00270655 -0.00028949 -2.74908e-17)
(-0.00111548 -0.00406755 1.16493e-17)
(-0.00123201 0.000634423 1.19288e-17)
(-0.000708809 0.000546407 -3.51202e-17)
(-4.79141e-05 -2.90228e-06 3.03782e-19)
(-7.80919e-05 -2.83204e-05 -1.53394e-19)
(-0.00164242 -0.00103385 -2.75705e-17)
(0.000912829 -0.00201705 1.72853e-17)
(-0.000824167 -0.000119315 1.50636e-18)
(-0.000258115 3.61937e-05 1.68319e-18)
(-7.15816e-05 -0.000146537 -9.09648e-19)
(-1.16572e-06 -0.000189411 -3.51711e-19)
(0.000644015 0.00144776 -2.53374e-17)
(0.00174974 0.000491111 -2.52614e-17)
(-1.44276e-05 -8.1735e-05 -6.31047e-19)
(-1.70526e-05 -0.000186997 8.10423e-18)
(0.00301757 0.00570326 -3.56954e-17)
(-0.000821819 0.00118369 5.9369e-19)
(-0.000968002 0.000411918 1.86998e-18)
(-0.000187789 -0.000312506 1.64215e-18)
(-0.000433311 -0.000181481 2.122e-18)
(-0.000586294 -0.000260782 -1.93489e-18)
(-0.00235862 0.000296353 -7.67099e-18)
(-0.000862414 -0.00156994 -1.08859e-18)
(-0.000769843 0.000651033 -2.87272e-17)
(-0.000682704 -0.00164914 -4.18535e-18)
(-0.00224405 -0.00068947 9.68478e-18)
(0.000246452 -0.00450694 -4.28709e-18)
(-0.000886106 -0.000166822 -5.76148e-18)
(-0.000102161 -0.000116187 1.65429e-18)
(0.00102899 -0.000363214 -1.56979e-17)
(1.5412e-06 -0.000192835 5.13962e-18)
(-0.00039454 -0.000340568 -8.2646e-19)
(-0.000404884 0.000416106 -7.82724e-18)
(0.000922434 -0.00382323 1.38705e-17)
(-0.000863393 -0.00094017 -1.08541e-18)
(-6.35385e-05 -6.32457e-06 3.98991e-19)
(-0.00203619 -0.000755496 -3.09549e-17)
(-0.000607852 -0.000203237 -1.29635e-17)
(0.00119216 0.00112639 -7.32597e-17)
(-0.00214536 -0.000742419 2.04155e-17)
(-0.00035688 -0.000775027 6.15434e-17)
(-0.00125617 0.000426109 1.79089e-17)
(-9.42534e-06 -0.000132048 4.39688e-18)
(0.00485415 -0.000786527 -2.54958e-17)
(-0.00195394 -0.000733382 3.27869e-17)
(0.00605263 0.00188693 -2.20989e-18)
(-0.000314141 -0.000185782 -2.6637e-19)
(-0.000790258 -4.35448e-05 -1.09993e-17)
(-0.000620257 0.000558006 2.0202e-17)
(0.00633452 -0.000981412 -2.86863e-17)
(-0.00206832 0.000282855 2.07921e-19)
(-0.00179829 -0.000146722 -2.44909e-18)
(-0.00137355 -0.000212155 -5.4231e-17)
(-0.000408344 -0.000413272 -3.79166e-18)
(-0.000539213 -8.84708e-05 -2.76607e-18)
(-0.00018751 -0.000320766 -5.11386e-18)
(-0.000529539 -0.000930999 1.78891e-17)
(-0.000214342 -0.00114178 2.94103e-17)
(1.31688e-05 -0.000382173 -6.16966e-18)
(-0.00160618 0.000226585 8.02805e-18)
(-0.000128366 -0.00120143 9.25596e-17)
(0.00596872 0.00179623 -7.53747e-18)
(0.0016474 0.000294073 2.92229e-17)
(-0.000481559 -0.000210543 1.94119e-19)
(-0.00294609 0.00213098 -1.5012e-17)
(-0.00312841 -0.00212941 2.43205e-17)
(-0.000532412 -0.000428827 -5.89122e-18)
(-0.000112022 -0.000476615 -1.32461e-17)
(8.01031e-06 -0.00138561 1.78331e-17)
(0.0084544 -0.00324624 6.50256e-18)
(0.00885096 -0.00306193 -8.80224e-18)
(-0.00059343 0.00044095 5.45084e-17)
(-5.3757e-05 1.14099e-05 7.59679e-19)
(0.00472334 0.00114148 -1.54579e-17)
(0.000358537 0.00165774 -2.93502e-17)
(-6.312e-05 -4.68143e-06 -1.27548e-19)
(-0.000750528 -0.000172987 1.59914e-17)
(-0.00223036 0.00120039 5.60474e-18)
(-0.000169433 -0.000798145 -9.05325e-18)
(-0.00070061 -0.000230459 2.2494e-17)
(-0.00150721 0.00457547 -5.27151e-18)
(-0.00144968 -0.00172221 2.96687e-17)
(-0.000702982 0.00109144 -9.39204e-18)
(0.00498554 -0.000990081 -5.10508e-20)
(-0.000477963 2.92928e-05 -9.05247e-18)
(0.00626586 -0.000149623 4.13061e-17)
(-3.83138e-06 -4.42413e-05 2.48337e-19)
(-1.719e-05 -8.94191e-05 -3.83563e-19)
(0.00641411 0.000984471 -1.5235e-17)
(0.00840668 -0.00330592 -1.95446e-17)
(-7.48309e-05 -0.00132771 -8.03397e-18)
(-0.000477107 3.78427e-05 1.20875e-18)
(-0.000346246 -0.000236889 -1.9299e-18)
(-1.91788e-05 -0.000188882 -9.54037e-18)
(-0.000169487 0.0013515 4.79633e-19)
(-5.46209e-05 -0.00132651 8.3774e-17)
(0.00105467 0.00284553 -9.3717e-18)
(-0.000552682 -8.94562e-05 -5.4586e-18)
(-0.00138015 0.00374732 -1.47925e-17)
(-0.00168365 0.000116526 1.77024e-17)
(-0.000211699 -0.000154851 2.22234e-19)
(-0.00194991 -0.00188009 -2.91923e-17)
(0.0011171 0.00265548 1.81158e-18)
(0.00472441 0.00351019 1.39898e-17)
(-0.000124634 -0.00015008 -2.18096e-18)
(-0.00171669 -0.00169504 -2.17781e-17)
(-0.000437531 4.82224e-05 8.44208e-19)
(0.00171439 -0.000546399 2.58173e-17)
(-0.000968211 -0.000237975 -1.20261e-17)
(-0.000884208 -0.000904961 6.10275e-19)
(-0.000794442 -5.86347e-05 1.1829e-17)
(-5.52159e-05 -1.69832e-05 5.79471e-19)
(-0.000122773 5.02333e-05 -3.19053e-18)
(-0.000312599 1.28296e-05 -3.92865e-18)
(-0.000862746 -0.00115044 -2.00174e-19)
(-6.95547e-05 -0.000702723 -5.66576e-18)
(0.000437068 -0.00019506 1.33325e-17)
(0.000120662 -0.0016849 -1.63581e-17)
(-0.00176046 0.000404439 -2.12754e-18)
(-6.55256e-05 -3.09992e-05 1.4121e-19)
(-0.00112422 -0.00160561 -4.62503e-17)
(-9.06132e-05 -0.00135086 -2.27214e-17)
(-0.00201902 0.00733072 4.10912e-19)
(-0.000179456 0.00016279 4.23228e-18)
(-0.000106135 -0.000677833 4.57447e-18)
(-9.39865e-05 -7.96287e-05 1.20773e-18)
(-0.000396613 0.000823271 1.85987e-19)
(-0.000624082 -3.3694e-05 -1.42601e-17)
(0.00253561 -0.000520502 3.90226e-17)
(-3.95715e-06 -6.03756e-05 -2.66963e-18)
(-0.00479133 -0.00174079 -2.16057e-17)
(-0.000458153 0.000761192 1.0824e-17)
(-0.00245577 0.00424068 -8.21988e-19)
(-0.000977721 -0.000143882 -1.38585e-17)
(-0.00107557 -0.000842596 2.33051e-17)
(-0.000951632 -0.000869054 -4.37959e-18)
(-0.000290354 -0.000262201 2.44283e-18)
(0.00609298 -0.000695772 -1.93839e-17)
(-0.00310099 0.000198652 -4.73774e-18)
(-0.000230144 -0.000260104 -4.55541e-19)
(-0.000383224 0.000423899 4.53984e-18)
(0.00113311 -0.00324941 -4.55612e-18)
(-0.000543518 0.00038358 -1.48854e-17)
(-0.0027557 -0.000648746 4.32683e-18)
(-9.69688e-07 -3.83246e-06 1.82547e-19)
(-0.000372784 -2.37342e-05 -5.53416e-18)
(-0.00179878 -0.000750872 -2.15018e-17)
(-0.000299115 0.000563495 4.68554e-18)
(-0.00146827 -0.000507631 2.99197e-17)
(-0.00130386 0.0018111 -2.7195e-18)
(-0.000125031 5.45379e-05 2.73515e-18)
(-0.0014974 0.00112619 -1.30929e-17)
(0.00267052 0.0032836 -1.77482e-17)
(-0.000161252 0.000182713 -8.69653e-20)
(-0.00017224 0.000421911 2.48413e-18)
(-4.25078e-05 -7.49109e-06 -3.49919e-19)
(0.0073948 0.000720593 7.54324e-18)
(-3.72655e-07 -1.60764e-05 1.98796e-18)
(-0.00038192 -0.000435718 -3.38894e-18)
(-0.00149622 0.000842558 -5.28181e-17)
(-0.000344686 -0.00037902 -3.04504e-18)
(0.00884691 -0.00353339 9.24997e-19)
(-0.000662411 -0.000130947 -9.9073e-19)
(-0.000177727 -0.000810368 -4.14234e-19)
(-4.35331e-05 -7.7634e-06 1.16259e-19)
(-0.000813409 -0.000668055 -3.48598e-19)
(-7.51013e-05 -9.31501e-05 -8.57091e-18)
(-0.000857849 -0.000293308 1.13014e-17)
(-5.1291e-05 -9.6745e-06 -3.85766e-20)
(-0.00111967 -0.000707986 5.51144e-18)
(-0.000335882 0.000245092 7.8656e-18)
(0.00435021 0.00207795 5.79431e-17)
(-6.97502e-05 -0.0015397 1.89379e-17)
(0.000816374 -0.00181431 6.83074e-18)
(-7.21222e-05 -3.7942e-07 4.6097e-20)
(-6.47068e-06 -9.92841e-05 -1.3289e-18)
(-0.000881707 -0.000191357 -6.61824e-18)
(-0.000856637 -0.000250577 4.18901e-18)
(0.00848545 0.000566798 1.01661e-17)
(0.00359315 -0.00298001 -2.43794e-17)
(-0.00122027 -0.000254493 -2.54223e-17)
(-6.101e-05 -0.000158609 1.80765e-18)
(0.000635063 -0.00138012 -7.58539e-18)
(-8.22748e-05 -0.00131317 5.18504e-17)
(0.00493515 0.00376932 -1.65251e-17)
(0.000179203 -0.000372148 -1.15755e-17)
(-0.00137404 -3.92319e-05 2.28791e-17)
(-0.00329027 0.00416042 7.96444e-19)
(-0.000802509 -0.000316441 2.89062e-17)
(-0.000163957 0.00129006 -7.26655e-18)
(-0.000611157 -0.00111881 -3.23424e-17)
(-0.000628062 -0.00137301 -7.55117e-19)
(-0.0011863 -0.000241332 3.08552e-17)
(-0.000117549 -0.00131637 1.42928e-16)
(-0.00111598 -0.000262255 -3.2681e-18)
(-0.000254141 0.000447116 -2.65481e-18)
(-0.00234751 0.00121721 3.19932e-18)
(-0.000517132 -0.000400819 -1.30264e-18)
(-0.000142946 0.000100538 -1.0989e-18)
(-0.000411291 0.000796298 5.05075e-19)
(-0.000844738 -0.000269019 -8.82952e-18)
(-0.000618931 -0.000255321 -6.92663e-18)
(-7.26799e-05 -0.000107584 4.3765e-18)
(-4.94311e-05 -2.85829e-06 1.20051e-20)
(-0.00173728 0.000261148 -1.2125e-17)
(-0.000433675 0.00020871 6.31038e-18)
(-0.00143202 -0.000562955 -3.05756e-17)
(-6.02577e-05 -0.000154336 -1.86397e-18)
(-4.85043e-05 -0.000163432 -6.65282e-19)
(-1.29489e-07 -1.18202e-05 -2.91273e-18)
(-0.000424253 -0.000201016 2.53001e-19)
(-4.93676e-05 7.01829e-05 -7.82796e-19)
(-0.000575493 -0.000207419 7.53479e-19)
(-4.17575e-05 -9.0894e-06 1.2501e-18)
(-0.00175806 -0.000402521 3.37906e-18)
(-0.000129624 0.00186975 -2.1864e-18)
(-2.70159e-07 -0.00134311 3.54864e-17)
(-8.25781e-05 -1.35694e-05 -3.39091e-19)
(-1.66672e-06 -2.09562e-05 -9.09935e-19)
(-0.000278791 -0.000941886 6.09662e-17)
(-0.000873873 -0.000342847 -3.22253e-18)
(-1.87755e-05 -0.000540309 -8.48661e-18)
(0.00144812 0.001411 -2.86198e-17)