/*--------------------------------*- C++ -*----------------------------------*\
| =========                 |                                                 |
| \\      /  F ield         | OpenFOAM: The Open Source CFD Toolbox           |
|  \\    /   O peration     | Version:  v2012                                 |
|   \\  /    A nd           | Website:  www.openfoam.com                      |
|    \\/     M anipulation  |                                                 |
\*---------------------------------------------------------------------------*/
FoamFile
{
    version     2.0;
    format      ascii;
    class       volScalarField;
    location    "100";
    object      nut;
}
// * * * * * * * * * * * * * * * * * * * * * * * * * * * * * * * * * * * * * //

dimensions      [0 2 -1 0 0 0 0];


internalField   nonuniform List<scalar> 
13851
(
0.000670041
0.00159896
0.00170885
0.0040362
0.00672158
0.00127413
0.00268233
0.00675762
0.0138595
0.00666946
0.000397335
0.00672281
0.00306328
0.00492989
0.00124079
0.00147627
0.00234924
0.00404349
0.000695667
0.000762489
0.00105317
0.000782137
0.00118773
0.00672545
0.00232372
0.00211868
0.000558752
0.00227626
0.0144053
0.00674152
0.00939103
0.00316468
0.000936646
0.01356
0.00052004
0.0145965
0.00672578
0.00104898
0.0137921
0.00294896
0.013994
0.0147742
0.000205581
0.000150527
0.0147341
0.00581691
0.00674543
0.00156369
0.00141819
0.00290425
0.00314859
0.00289533
0.00148881
0.00185788
0.00457478
0.00277253
0.000775408
0.0144166
0.000255949
0.00524302
0.00672274
0.000867565
0.00672442
0.00138027
5.30094e-05
4.40813e-05
0.00319919
7.72244e-05
0.00289594
0.00617248
0.00932048
0.000969449
0.00380116
0.00388951
0.00176034
0.00108197
0.00377961
0.0067358
0.00179343
0.00672911
0.00250722
0.000557101
0.000517496
0.00575772
0.00567616
0.00961532
0.000825798
0.00282469
0.00622662
0.00930756
0.00203206
0.00278614
0.000321425
0.0089942
0.0136495
6.85348e-05
0.00635882
0.0014598
0.00350157
0.000215432
0.00141526
0.000159897
0.000137852
0.00330145
0.00628565
0.0007333
0.00549392
0.00971906
0.00287936
0.0043114
0.00047329
0.00606438
0.000435547
0.000507722
0.00121951
0.00196425
0.00672779
0.00674815
0.00343018
0.00646669
0.000106498
0.00590674
0.00241741
0.0122724
0.000443239
5.00209e-05
0.00580889
0.000318001
0.0142589
0.00107843
0.000782909
0.000796934
0.000552673
0.0137331
0.000452213
0.0135655
8.86669e-05
0.00953279
0.000213344
0.00128583
0.000462327
0.0014959
0.00605936
5.91538e-05
0.00417684
0.00126605
0.00673483
0.00903691
0.011674
0.000305365
0.00142583
0.000411924
0.000509056
0.000520312
0.0019675
0.00422801
0.00672258
0.0135565
0.00129603
0.00251345
0.00672498
0.0145141
0.000840538
0.00156175
0.00522319
0.0143673
0.0143614
0.00455144
0.000506723
0.0096893
0.00672277
0.00672586
0.000682779
0.00672225
0.0140753
0.000486357
0.00133942
0.00672705
0.0017902
0.00136407
0.000544819
8.79681e-05
0.000546279
0.0012399
0.000225558
0.0119962
0.000939895
0.00033286
0.00238928
0.00674474
0.00192505
0.00134068
0.00288689
0.0011917
0.00114799
0.00147298
0.00086189
0.00358322
0.00288407
8.9295e-05
0.000446919
0.0143739
0.0144891
0.00140265
4.90945e-05
0.0138555
0.000929363
0.00166255
0.0139639
0.00119689
0.0014777
0.00329605
0.000483388
0.00672515
0.000560477
0.000980138
0.0030428
0.000623357
0.00305786
3.26235e-05
0.00672615
0.000701111
0.00402406
0.0138362
0.000370006
0.00168328
0.00672573
6.69541e-05
0.00672578
0.000511574
0.00369066
0.000367922
0.00123748
0.0067239
0.0144053
0.00674287
0.000845256
0.0144816
0.000213445
0.00672522
0.000281647
0.00597956
0.0146727
0.00150631
0.00103631
5.01844e-05
0.000621854
0.00172948
8.22523e-05
0.000475306
0.00325496
0.00053718
0.00673359
0.00141352
0.0014399
0.0142295
0.00498455
0.00674304
5.13861e-05
0.00641827
0.00079245
0.00058992
0.00148597
0.000887441
0.000469723
0.00469817
0.000147705
0.00182811
0.00142573
0.00672414
0.00327122
0.000366692
0.0140945
0.0018151
0.00109115
0.00539983
0.000503399
0.000542198
0.00117305
0.000909353
0.0142273
0.0033388
0.0012637
0.00145669
0.00161268
0.00585849
0.00672248
0.000998283
0.000396791
0.00674693
0.00672509
0.00672617
0.00672098
0.00117939
0.00672246
0.014081
0.00107766
0.00409797
0.0142498
0.0115777
0.00244782
0.000675152
0.00314871
0.00133781
0.00217821
0.00104717
0.00519164
0.00937582
0.00074051
0.00672088
0.0103759
0.00672279
0.000627719
0.00475557
0.00101765
0.00250405
0.000706527
0.000354173
0.0106354
0.000420859
0.000135671
0.0141233
0.0135554
0.00221436
0.00267195
0.00463581
0.000333757
2.66332e-05
2.77672e-05
0.000763609
0.000712126
0.000389626
0.0033261
0.000116007
0.00672011
0.00673181
0.000833259
0.0101427
2.76653e-05
0.00585327
0.0134959
0.000369206
0.000764105
0.0025858
0.00368826
0.000560561
0.00145976
0.00105415
0.00133953
0.014647
0.00220138
0.000492898
0.00136136
0.00102687
0.000353833
0.00610718
0.00364599
0.000320319
0.000216539
0.000573215
0.000354068
0.0147978
0.00103203
0.0143738
0.000667355
0.00676007
0.00142212
0.000849846
0.00494834
0.000866601
0.00158434
0.000546719
0.000604052
0.000328067
0.00438096
0.00219635
0.000570585
0.000462124
0.00107601
0.00518847
0.000983189
0.0146011
0.00145595
0.00176471
0.000561447
0.00023319
0.00393856
0.00137258
0.000361269
0.00179471
0.00544968
0.0010835
0.0091583
0.00386901
0.0013008
0.00212081
0.00146655
0.000150385
0.00176666
0.00824382
0.00101843
0.00187227
7.35965e-05
0.000479014
0.00080622
0.00350568
0.00404544
0.000301056
0.00476266
0.000383438
0.000870464
0.00173055
0.00573643
0.000240228
0.00983695
0.00128357
0.00133325
0.000511753
0.000575395
0.00210129
0.00674092
0.00269162
0.000307461
0.00124264
0.000416732
0.00308239
0.00415186
0.00672248
0.00322436
0.000526489
0.00608746
0.00167154
0.001311
0.00672526
0.0091486
0.000653194
0.000942838
0.00197926
0.00204706
0.00246116
0.000569194
0.00376121
0.0024897
0.00960922
0.00926878
0.000802286
0.000887994
0.00672423
0.00672235
0.00140407
0.000570673
0.00181686
0.00488957
0.00201724
0.000111236
0.00209933
0.00864137
0.00672268
0.00188289
0.0146506
0.000272041
0.00672858
0.00672291
0.00188431
0.00342046
0.000199905
0.0120012
0.00112489
1.52749e-05
0.00148305
0.00672418
0.014208
0.000731507
0.000229734
0.00356949
0.0131904
0.000244196
0.000192779
0.00307496
0.000754107
0.000338574
0.0016022
0.0140409
0.000862173
0.000547667
0.000894371
0.000420439
0.00475694
0.0141332
0.00190611
0.000946352
0.00094442
0.00108526
0.000255714
0.000676573
0.00672144
0.00211779
0.014188
0.00699073
0.00118284
0.0104868
0.00685983
0.000504593
0.00041748
0.00672443
0.000223891
0.00673237
0.00628454
0.0003395
0.0144121
0.00178831
0.00146141
0.000142693
0.000702829
0.00609796
0.00832095
0.00673931
0.014153
0.000277001
0.00672989
0.0022859
0.000355016
0.00147991
0.00674567
0.00350924
0.000649541
0.00678552
0.0124143
0.00060559
0.000667701
0.00102151
0.0096112
0.00505678
0.00679218
0.000536363
0.00285714
0.00550509
0.00930407
0.014597
0.000840343
0.00173226
0.00650525
0.00199322
0.0141949
0.0137281
0.0061806
0.00389101
0.00566279
0.00257931
0.000817719
0.00225697
0.00674167
0.00100957
0.0126639
0.000282924
0.0123191
0.00185121
0.00640925
0.0136172
0.00672391
0.000385367
0.00187433
0.00175226
0.00105778
0.0140851
0.00485741
0.00134242
0.00249123
0.00266197
0.000566155
0.0148019
0.00730166
0.00267731
0.0049842
0.00013634
0.0125256
0.000980726
0.00187199
0.000445893
0.00216872
0.00144384
0.00375
0.00867157
9.75386e-05
0.0142107
0.00100393
0.014936
0.00220405
7.65139e-05
0.000853382
0.00672343
0.000593556
0.0106588
0.000502327
0.00123499
0.00333925
1.40006e-05
0.000233645
0.00247813
0.00414193
0.00672295
0.000478509
0.000664213
0.00672258
0.0141012
0.00672285
0.00108226
0.000875236
0.00167899
0.00321411
0.00534262
0.00034245
0.00374177
0.000777741
0.0132844
0.000794031
0.00672591
0.00677606
0.000678572
0.00205083
0.000491957
0.00174356
0.000252416
0.000117877
0.00672384
0.00348176
0.00672551
0.00163516
0.00329567
0.0144572
0.000366359
0.00169822
0.000133424
0.000182097
0.0129991
0.00534158
0.00901409
0.000385754
0.00100682
0.00158265
2.79446e-05
0.00676426
0.000446047
0.00379793
0.0146989
0.00360427
0.00262539
7.36313e-05
0.00904101
0.0067257
0.00672553
0.00207586
0.00234471
0.00742164
0.00209388
0.000529731
0.00213897
0.00499553
0.000138472
0.000517314
0.00024818
0.00673467
0.0018219
0.000166392
0.00185186
0.00137291
0.00120993
0.000241532
0.00047095
0.00168384
0.000976579
0.000979944
0.000116311
8.94516e-05
0.000600954
0.00898006
0.00240515
0.00149226
0.00880705
0.000298578
0.0100931
0.000669884
0.00442669
0.00136172
0.000477804
0.000789915
0.00672858
0.00672746
0.00203826
0.0034956
0.00188585
0.0143129
0.00672631
0.00823209
7.76313e-05
0.00279711
0.000448732
0.00112612
0.00177715
0.00397545
0.000244898
0.00031963
0.000912158
0.00224232
0.000213434
0.00184578
0.00111728
0.000850047
0.000462605
0.00423697
0.00672536
0.000942038
0.00532078
0.0147271
0.00672075
0.000389082
0.0142097
0.000410531
0.0139639
0.00437224
0.000977218
0.000222711
0.000384456
0.00672376
0.00341165
0.00673395
0.006065
0.00672231
0.000577645
0.000421722
0.000149925
0.00185606
0.00125078
0.0137756
0.00672632
0.00466287
0.000537286
0.00672604
0.00672359
0.0144195
0.00123529
0.00567752
0.0102703
0.00116972
0.000833594
0.00678393
0.0138384
0.000869966
0.00181844
0.0001106
0.00672373
0.00146022
0.00528323
0.00177783
0.00392041
0.000872882
0.000843264
0.00031483
0.0132662
0.000336229
0.000594051
0.0149047
0.00673251
0.0148816
0.006724
0.00233405
0.00165067
0.00179293
0.00122488
0.000360885
0.000791351
0.0067246
0.00672631
0.000578772
0.00217795
0.00672489
0.00198236
0.000250657
0.00672106
0.000169936
9.37649e-05
0.00479589
0.000376768
0.00807741
0.000206103
0.00672363
0.000313489
0.00672637
0.00133378
0.00777719
0.0148226
0.00983261
0.0148497
0.00249667
0.00271801
0.000134801
0.00129303
0.005965
0.000971712
0.000734062
0.00579501
0.00160486
0.00188444
0.00449115
0.00674203
0.000197219
0.000745113
0.00194631
0.00672527
0.00134713
0.0004121
0.0144216
0.0020079
0.00672304
0.00271935
0.00147423
0.000980193
0.00672424
0.0145432
0.00675188
0.00409608
0.00672581
0.00021643
0.00109839
0.000117613
0.000881095
0.00385215
0.00159881
0.00672093
0.000191253
0.00144026
0.00731182
0.00259118
0.00388503
0.0141745
0.000873899
0.00672034
0.00264914
0.0105047
0.00123013
0.00249098
0.00357813
0.00283279
0.00420264
0.000548437
0.00672424
0.0067209
0.00477653
0.00110094
0.00672291
0.00175319
0.0143114
7.41245e-05
0.0105633
0.00674071
0.00987931
0.00672467
0.00672092
0.00212133
0.00672385
0.00672515
0.0105606
0.00829314
0.00305417
0.00672279
0.000804564
0.00611545
0.003421
0.000324489
0.0067848
0.0141808
0.001841
0.0016845
0.00672368
0.00109474
9.09337e-05
0.00548009
0.00672422
0.000286344
0.00394589
0.000923753
0.000521469
0.00130574
0.00672423
0.000738671
0.0023933
0.00269819
0.00118462
0.000749499
0.000717615
0.00672484
0.00351544
0.00337756
0.00635399
0.00113195
0.00916859
0.000961725
4.97179e-05
0.00250451
0.000282176
0.000841594
0.00672045
0.0121637
0.00134967
0.00672028
0.00283683
0.00151169
0.0142764
0.000483084
0.00672983
0.000715875
0.00509073
0.00145431
0.000498343
0.00102472
0.00146295
0.0146199
0.00672255
0.000845856
0.000649784
0.000831338
2.97771e-05
0.00154878
0.000546244
0.00189947
0.0143605
0.00390995
0.00572717
0.00108204
0.00990329
0.00271313
0.00353111
0.00123179
0.00384106
0.00228414
0.00672569
0.00174706
0.00672349
0.0141592
0.000567521
0.000430196
0.000429765
0.000968651
0.00673872
0.00225649
0.000837005
0.00242385
0.000759669
0.0130743
0.000255169
0.00117836
0.000338375
0.00990503
0.00137839
0.0107558
0.00673076
0.000424958
0.00136085
0.00400719
0.000361325
0.00672455
0.00672952
0.000132799
0.00356621
0.000262903
0.00205467
0.000500743
0.000559835
0.000591509
0.000460313
0.0034989
0.0135799
0.000599747
0.00672494
0.000742496
0.00154032
0.0111286
0.00113814
0.000144582
0.00104314
0.00156064
0.000263075
0.00297315
0.0143352
0.00107395
0.0103003
0.000586077
0.00672654
0.00640395
0.000715321
0.00409405
0.00358798
0.000358754
0.00672422
0.000672861
0.000261578
0.00529159
0.0120828
0.00337306
0.000850429
0.00183899
0.0143437
0.000667559
0.00672251
0.00347857
0.000613968
0.00584639
0.00673634
0.00175796
0.00176878
0.0142646
0.00809751
0.001685
0.0143393
0.00155198
0.0050215
6.57971e-05
0.00672713
0.000202894
0.00572153
0.00672109
0.00109188
0.00219261
0.0139848
0.00370451
0.000909611
0.00455833
0.00900227
0.000385063
0.0037783
0.00233061
0.000493888
0.00603342
0.00678095
0.00051969
0.0021333
0.000367522
0.00674293
0.000500172
0.000914701
0.000611273
0.000470169
0.0067878
0.00674018
0.00251932
0.000534086
0.00194772
0.014235
0.00123112
0.00672324
0.00553057
0.00673786
0.000968332
0.000987476
0.0149754
0.0144656
0.000344648
0.00672435
0.000239455
0.00345208
0.00409555
0.0077552
0.000323001
0.00502869
0.0146757
0.00817046
0.00182029
0.00127892
0.0116003
0.00115907
0.000317198
0.000116624
0.000179952
0.00212067
5.55117e-05
0.00474959
0.00796418
0.000965036
0.00673078
0.00087608
0.000277472
0.000398272
0.00115275
0.00672269
0.00166276
0.00102122
0.00192677
3.40854e-05
0.00672346
0.0118352
0.00389884
0.00443323
0.00133816
0.00176908
0.00672327
0.0146227
0.000675205
0.0138653
0.00994937
0.0067244
0.00100988
0.000913461
0.00202248
0.000931046
0.00119845
0.00672534
0.00179111
0.000561353
0.00590054
0.00110921
0.00339975
0.00108635
0.0014061
0.000121519
0.000705789
0.00063898
0.00580886
0.000484054
0.0109091
0.000878417
0.00833297
0.00886456
0.0143603
0.00922996
0.0057469
0.00673395
0.00399034
0.00100053
0.0017097
0.000665166
0.00201694
0.00393339
0.00672394
0.00627452
0.000996006
0.00673494
0.0015839
0.00107985
0.00857739
0.00124941
0.00672557
0.00672387
0.00420461
0.00672302
0.000269264
0.000924443
0.000337503
0.00841047
0.00673032
0.00577598
0.0142401
0.0139588
0.00292399
0.00610107
0.000139783
0.00808103
0.00672589
0.00019848
0.00143999
0.00672518
0.00251086
0.00529791
0.00230527
0.000700033
0.000148774
0.00340975
0.0043152
0.00053003
0.000815175
0.00672587
0.00862226
0.00408237
0.000953677
0.00672356
0.00316929
0.00124183
7.91364e-05
0.0024971
0.000487958
0.00944077
0.0009947
0.013526
0.00433508
0.00381667
0.000223773
0.00672684
0.000819811
0.00208086
0.000157016
0.00225403
0.00462151
0.00672185
0.00553323
0.00215738
0.000423176
0.00105887
0.00285046
0.00672446
9.04999e-05
0.00676562
0.00784823
0.0067237
0.000960862
0.00173153
0.00700305
0.00064652
0.00672329
0.000775504
0.00672362
0.00197694
0.00024022
0.00534265
0.00138216
0.00672587
0.00188357
8.36505e-05
0.00148392
0.000249365
0.000283221
0.000437567
0.00176907
0.00122934
0.00115752
0.00568598
0.00435175
0.00211569
0.00114804
0.00672259
0.000560839
0.00672757
0.000968122
0.00672646
0.000239061
0.00070693
0.00673964
0.00262153
0.00125435
0.00672343
0.00136228
0.00671983
0.000165877
0.0108522
0.000871064
0.0049861
0.00672194
0.00672574
0.000147667
0.00672485
0.00672498
0.00187143
0.00111467
0.00100281
0.000246782
0.00285484
0.000498189
0.00606254
0.00672389
0.00672461
0.00672659
0.000259504
0.00592366
0.00102028
0.000908052
0.00672719
0.00672251
0.0127045
0.00672509
0.000630798
0.0022995
0.01357
0.000596332
0.000129411
0.000156607
0.000429879
4.66078e-05
0.00273814
0.000418858
0.000869614
0.00607004
0.00595832
0.00101652
0.00117396
0.00442538
0.000361537
0.00672368
0.00156278
0.000422253
0.00314123
2.71688e-05
0.0025032
0.000133342
0.00721609
0.00473425
0.00672366
0.00174838
5.66575e-05
0.00326174
0.000606621
0.000856512
0.0145012
0.00174498
0.00143861
0.00157317
0.00028004
0.00672612
0.000285743
0.00272268
0.0024388
0.00676231
0.00780043
0.000596664
0.000878201
0.012602
0.00210863
0.00171623
0.00672344
0.002767
0.00669545
0.000914586
0.00804609
0.000450804
0.0043377
0.0089865
0.00672372
0.000405459
0.000475688
0.00274646
0.000981893
0.00672464
0.0126169
0.00915211
0.00679326
0.000843911
0.00158441
0.000197699
0.000642054
0.00186197
0.000929245
0.00173191
0.000389232
0.00181505
0.00672361
0.00158978
8.05067e-05
0.00953747
0.00672471
0.00058991
0.000629604
0.00187633
0.00672589
0.00884638
0.00162242
0.00096888
0.0061374
0.000480294
0.000557678
0.000140032
0.00672397
0.00162747
0.000332645
0.000256441
0.000418869
0.00672331
0.00140437
0.00164247
0.000438413
0.00672365
0.000289512
0.000979891
0.00031583
0.0141708
0.00175829
0.00321839
0.000582177
0.00535868
0.000359084
0.00672485
0.000931404
0.0016565
0.00104879
0.000492181
0.00167948
0.000325788
0.000355154
0.000892054
0.000993206
0.00673402
8.7403e-05
0.0017351
0.000426605
0.000559228
0.000872427
0.000490111
0.00672831
0.00505451
0.000291855
0.00302107
0.0016843
0.00099598
0.00522819
0.000379862
0.00172987
0.0147803
0.000180962
0.000336479
0.000589625
0.000595547
0.00672794
3.50235e-05
0.00678205
0.000476339
0.000967968
0.0146268
0.000637429
0.000237029
0.00672339
0.00376529
0.00672777
0.00251092
0.000711346
0.00799517
0.0115983
0.00261684
0.00672039
0.000567778
0.000149322
0.00672769
0.00876657
0.00672732
0.00103001
0.00172769
0.002182
0.000799259
0.000978756
0.00435057
0.000504009
0.00048052
0.00111474
0.000436926
0.00672834
0.00452905
0.0148035
0.00672072
0.000641197
0.000765768
0.000378614
0.00749782
0.00672084
0.00143091
0.000470052
0.0104757
0.0067262
0.00672369
0.000761926
0.010294
0.00672046
0.000395544
0.000420061
0.000389709
0.000600268
0.000766797
0.000754461
0.00672648
5.17991e-05
0.00672697
0.00441943
0.000771552
0.00673144
0.00201092
0.000432286
0.00672296
0.00337007
0.0006113
0.0143704
0.0034017
0.00524212
0.00672405
0.00672862
0.000679853
0.00672443
0.00563479
0.0101216
0.00672593
0.000999557
0.00138362
0.0114321
0.000376366
0.00641226
0.000782565
0.000430156
0.00672221
0.0038955
0.00672353
0.00542836
0.00672434
0.000228974
0.00170621
0.00676371
0.00676854
0.000906617
0.00136599
0.000710621
0.00015995
0.000443024
0.00116836
0.0141209
0.000256292
0.00195364
0.00144313
0.000233558
0.000482594
0.00102598
0.00176606
0.00801046
0.00382303
0.0040637
0.00175233
0.00398157
0.000646636
0.000235465
0.00673336
0.00359476
9.83188e-05
0.00672525
0.00231983
0.00672444
0.00673644
0.00247287
0.00371636
0.00345473
0.00672035
0.00203054
0.00672232
0.00015759
0.0021111
0.0012424
0.000183631
0.00355591
0.00941502
0.000774237
0.00672496
0.0012741
0.00643297
0.000390696
0.0040863
0.0148915
0.00105113
0.000809707
5.73844e-05
0.00808803
0.00056364
0.000218541
0.00067982
0.000330763
0.00360758
0.00219666
0.000113816
0.000614542
0.00335627
0.00674961
0.00629253
0.00276957
7.32678e-05
0.00673371
0.000566037
0.00739251
0.000867669
0.00103068
0.000834178
0.0101497
0.000739374
0.00672255
0.000327293
0.000483852
0.00143343
0.00673002
0.00672275
0.0138475
0.00672557
0.000606564
0.0137349
0.000652795
0.00483091
0.000332301
0.000943702
0.00654365
0.0067247
0.00505
0.00672449
0.000543183
0.00240821
0.00341755
0.00137115
0.014195
0.00559457
0.00672427
0.0074351
0.00415944
0.00286297
0.00304203
0.0100284
0.00616544
0.000858813
0.00672404
0.0079392
0.0133742
0.000451232
0.000115705
0.000456272
0.00455229
0.00672376
0.0147537
0.00672239
0.00253267
0.00676671
0.0017868
0.00672402
0.00861134
0.00672537
0.0016
0.00675332
0.000157997
0.000316846
0.00675964
0.000296094
0.00997786
0.0012867
0.00697207
0.00721453
0.00022258
0.000961807
0.000966511
0.000569078
0.00173669
0.00457583
0.00178643
0.000419286
0.00374145
0.00678638
0.00587543
0.00100709
0.00060434
0.000576094
0.000542087
0.0139874
0.00669709
0.00675679
0.000410349
0.00893105
0.000454598
0.000405741
0.00077953
0.00672658
0.00882765
0.00918721
0.00701619
0.00672414
0.00566481
0.00827244
0.000246495
7.26834e-05
0.0121653
0.00225932
0.00082443
0.000389178
0.000584457
0.00431824
0.000427517
0.000895146
0.00673324
0.00763074
0.00672412
0.000572366
0.00111644
0.000521451
7.97874e-05
0.000300833
0.00201875
0.00170982
0.000509931
0.00224109
0.0148524
0.000569351
0.00174255
0.000599332
0.000578394
0.000178413
0.00672324
0.000637355
0.000131086
0.000410151
0.00450451
0.000436133
0.000947803
0.000334791
0.00931075
0.000251143
0.00107016
0.00019341
0.00724735
0.00251281
0.00152066
0.00678533
0.000392902
0.00121979
0.00143857
0.00672312
0.000228897
0.0020533
0.014837
0.000459964
0.00162503
0.00672455
8.60432e-05
0.000576652
0.000294535
0.00436044
0.00674503
0.00672598
0.00071578
0.0067242
0.00149644
0.0014563
0.00192409
0.000570951
0.00610892
0.000891366
0.00241789
0.00164243
0.00184177
0.00672568
0.00878822
0.0015488
0.00672784
3.83046e-05
0.000227865
0.000278039
0.00134978
0.00095524
0.0012971
8.17953e-05
0.0012157
0.00169271
0.00672422
0.00337979
0.00223547
0.00544348
0.00153163
0.00531108
0.00672519
0.000226944
0.00597635
0.000902189
0.00175601
0.000104409
0.00672723
0.000388406
0.000678951
0.0114964
0.00672632
0.000362686
2.60913e-05
0.00084572
0.000110865
0.00150567
0.00217297
0.000250722
0.000585487
0.00329188
0.00105712
0.000833941
0.00672464
0.00545476
0.000339766
0.00672435
0.00268133
0.000374604
0.00672578
6.91467e-05
0.00592831
0.0146362
0.00787894
0.00553256
0.00990537
0.0104742
0.00269291
0.00672333
0.0106178
0.00675466
0.00661197
0.00672961
0.000202433
0.0133503
0.0038732
0.000474051
0.0043199
0.00144434
0.000335491
0.00540721
0.00672098
0.00722015
0.0146437
0.00672402
0.00672377
0.00854918
0.00246134
0.00286392
0.00672848
0.00891422
0.0101459
0.00400986
0.000748174
0.00672554
0.0121522
0.000140087
0.00314952
0.00320578
0.00251959
0.00834173
0.00655533
0.00436734
0.00672537
0.00672604
0.0138115
0.00550224
0.000157638
0.000592438
0.00257983
0.00195323
0.00040255
0.000171818
0.000648791
0.00987146
0.0117669
0.0067233
0.00166784
0.0015185
0.00140374
0.0139487
0.00673322
0.00424326
0.000441479
0.00142334
0.00132805
0.00672048
0.000446407
0.000626479
0.00376834
0.00672433
0.000452227
0.00242178
0.000987718
0.00177003
0.0142226
0.00132463
0.000161486
0.00224453
0.00469266
0.000991133
0.000964506
5.28046e-05
0.0141708
0.0106513
0.00672289
0.0073865
7.92334e-05
0.0144322
0.00228964
0.000613188
0.000737959
0.00323309
0.00889472
0.00672389
0.00108168
0.00897011
0.0145724
0.000329065
0.0140572
0.000593738
0.000870119
0.00676086
0.0131705
0.000623048
0.00492861
0.00676201
0.00747425
0.00673974
0.0067262
0.0011244
0.000368771
0.000361315
0.00376114
0.0100091
0.00172527
0.00578358
0.000538716
0.00795797
0.000138844
0.00438668
0.0120946
0.0010472
0.00177128
0.00177064
0.00672341
0.000525845
0.00672688
0.000944838
0.00016241
0.00209203
0.00673255
0.000370449
0.000837314
0.00676245
0.00753457
0.00114593
0.000574199
0.00678983
0.000180557
0.00672316
0.000266805
0.00168374
0.000177127
0.00172258
0.00925417
0.000223217
0.0139738
0.000375347
0.000565614
0.0067354
0.00812388
0.000161502
0.00043907
0.000105341
0.00672506
0.00691271
0.000398015
0.000449054
0.000974929
0.0110893
0.0101952
0.000428092
0.00665417
0.000499314
0.00031378
0.00672354
0.00329724
0.00673393
0.000795034
0.000548754
0.000318375
0.0132078
0.00673464
0.00672251
0.00169507
0.000506232
0.00140281
0.00674511
0.0144844
0.00141789
0.00178571
0.0023194
0.00414096
0.000450373
0.0103709
0.000155466
0.000991754
0.000396386
0.00672383
0.00135585
0.000447222
0.000479192
0.00312884
0.00671984
0.00311357
0.00984051
0.0143679
0.00534627
0.000481604
0.000310055
0.00355624
0.00672263
0.00299617
0.01389
6.8568e-05
0.000510915
0.00215107
0.00187419
0.00781186
0.000282553
0.000505724
0.00219202
0.00100765
0.00673781
0.000186554
0.000416874
0.00529062
0.0147357
0.0121068
0.0141878
0.0141331
0.00843933
0.00771722
0.0103445
0.00104497
0.00594527
0.00931602
0.00758257
0.00430444
0.0029603
0.000994149
0.00471531
0.00563534
0.00708577
0.0140173
0.000994435
0.0067264
0.000490666
0.000766588
0.000776951
0.00886491
0.000295254
0.000588493
0.00671987
0.0142173
0.00444234
0.000349849
0.00177324
0.000892322
0.00247893
0.00672857
0.000723407
0.00071293
0.00102328
0.00149036
0.00135974
0.000805938
0.000999074
0.00839643
0.000361071
0.00160188
0.0111765
0.00100567
0.00672392
2.73437e-05
5.71572e-05
0.00542865
0.000658214
0.00307278
0.00115489
0.000833085
0.000434593
0.00672416
0.00025375
0.00147393
0.00132286
0.000195596
0.00672475
0.00169714
0.00984523
0.0147186
0.0147741
0.000411643
0.00191225
0.00673516
0.00558273
0.000998689
0.00675602
0.0107788
0.00584949
0.00672596
0.00673615
0.0148704
0.000657235
0.00175002
0.00130244
0.000736212
0.000316759
0.000938233
0.00023106
0.00112087
0.000648607
0.00443327
0.00144094
0.00860577
0.000588755
0.0146523
0.000882534
0.00671984
0.00673358
0.000772575
0.000581815
0.00672289
0.000278399
0.000910504
0.000490802
0.00901525
0.00331261
0.00590356
0.00672596
0.000239314
0.000473391
0.000541616
0.00673165
0.000443831
0.00106942
0.00786433
8.11458e-05
0.000460235
0.00672487
0.0147389
0.000426218
0.00783344
0.00725551
0.000997355
0.000957205
0.000487811
0.007269
0.000165194
0.0131958
0.000539374
0.00386217
0.00055983
0.00527937
0.00729216
0.000796495
0.000731838
0.000839547
0.0143208
0.00438987
0.00448206
0.00971253
0.00062291
0.00821009
0.000252189
0.006728
0.000691491
0.000660524
0.000163989
0.00590068
0.00054086
0.000124064
0.00116127
0.00672537
0.00466888
0.000321727
0.00141898
0.000170129
0.00432121
0.00340035
0.000277836
0.00194712
0.00316547
0.00672415
0.000590813
0.000200688
0.00162654
0.0007461
0.000546907
0.000563762
0.00328302
0.000221616
0.000982709
0.000876066
8.40644e-05
0.00210946
0.000174321
0.000158297
0.00563458
0.00114447
0.00687788
0.0106164
0.00343331
0.000242538
0.00777316
0.00494284
0.0013471
5.82285e-05
0.00978761
0.000459335
0.0079908
0.000612034
0.00449572
0.00179106
0.00673199
0.00137531
0.000610509
0.00179753
4.71239e-05
0.00067694
0.00021512
0.0143428
0.0131743
0.00278792
0.0118641
0.00652984
0.00524226
0.0122482
0.00672338
0.00672134
0.0096847
0.00279879
0.00672434
0.000578615
0.0134913
0.000506853
0.00182528
0.0108334
0.0067221
0.0143517
0.00984586
0.00672386
0.00032956
0.000810357
0.00965732
0.00996905
0.0104099
0.00869562
0.00672871
0.0010267
0.000655156
0.000997488
0.006725
0.00097447
0.00673022
0.0109624
0.000600525
0.000158219
0.000710377
0.0114745
0.000584843
0.000933428
8.85642e-05
0.00258437
0.000448809
0.00186191
0.00673111
0.00545206
0.000363271
0.00675149
0.00993701
0.00548127
0.00558873
0.00267769
0.0141418
0.00212619
0.00627023
0.000258217
0.000432283
0.000266506
0.00794812
0.00951889
0.00019568
0.00185707
0.00170311
0.0010816
0.00174091
0.000644229
0.00157371
0.00672445
6.09786e-05
0.000757182
0.000506259
0.00760975
0.000910247
0.000327547
0.000229218
0.00063697
0.00168136
0.00629473
0.000409853
0.00673518
0.000706944
0.000134851
0.00925867
0.006724
0.00068622
0.00549269
0.00218894
0.000477704
0.00184007
0.000715599
0.00978739
0.000817714
0.000931116
0.00102487
0.00672303
0.0147474
0.00672299
0.00209327
0.000870824
0.0146502
0.000563038
3.15331e-05
0.000103289
0.00160185
0.00286398
5.94252e-05
0.000664952
0.0134316
0.000542966
0.000219884
0.000620963
0.00169916
0.00103613
0.000183846
0.00061147
8.57429e-05
0.000891607
0.000326899
0.00128517
0.00436706
0.000221109
0.00414251
0.000949612
0.00673174
0.0015536
0.000983318
0.000982666
0.0108597
0.00111894
0.00049258
0.00672223
0.00256197
0.00672413
0.00672419
0.00211416
0.0067265
0.00176602
0.00328711
0.00112795
0.000970146
0.00207394
0.0032407
0.000360896
0.00355546
0.00638828
0.0061703
0.00598734
0.00149441
0.000557702
0.00186621
0.00672387
0.000400414
7.48425e-05
0.000545643
0.0112866
0.00127416
0.0114259
0.00146519
0.00672435
0.00672273
0.0102604
0.00479746
0.00128901
8.74979e-05
0.00057523
0.00246087
0.0138033
0.00672359
0.000911908
0.00450673
0.00145816
5.54615e-05
0.00199609
0.00255943
0.00174191
0.000227202
0.00102267
0.00158079
8.23403e-05
7.71244e-05
0.000279448
0.0016003
0.0022337
0.00165686
0.0017573
0.0147235
0.0100697
0.014691
0.00159975
0.00359618
0.00203605
0.00222875
0.00672606
0.00191285
0.00672328
0.00182067
0.00419379
0.00640292
0.00624752
0.000513476
0.00793525
0.00171302
0.0003132
0.00284848
0.0045711
0.000569761
0.0147357
0.00033226
0.00330743
0.0143378
9.42198e-05
0.00402946
0.000182516
0.00672546
0.000205936
0.000853937
0.000103741
0.0101499
0.00028892
0.00818471
0.00672998
0.0101005
0.00288513
0.00118965
0.00176576
0.000563052
0.00672281
0.000152263
0.0148728
8.94671e-05
0.000765811
0.000514136
8.44426e-05
0.00457379
0.00678257
0.00230594
0.0003409
0.0018011
0.0143979
0.00767964
0.000243897
0.00672466
0.000288118
0.000277838
0.000505914
0.0024824
0.00809597
0.00460171
0.00673203
0.00524758
0.000466646
0.00330615
0.00417742
0.0146976
0.00650264
0.00041577
7.9747e-05
0.00637689
0.0141313
0.00215803
0.0141229
0.00407454
0.00061072
0.00172541
8.54848e-05
0.0020138
0.000838174
0.0067348
0.00207648
0.00661137
0.00186742
0.000302814
0.00112829
0.000884028
0.000206381
0.000531957
0.00419568
0.000195543
0.000832867
0.00195133
0.00149213
0.00560487
0.00674756
0.00672375
0.00193243
0.00270631
0.000691111
0.00810225
0.000552738
6.42928e-05
0.00132853
0.00194389
0.00184471
0.014359
0.010533
0.0016504
0.00184006
0.00379129
0.00895626
0.000363935
0.000816594
0.00615142
0.0141971
0.00227862
0.000361774
0.010415
0.000185523
9.13151e-05
0.000427167
0.00218405
0.0067507
0.000214354
0.00672617
0.00378161
7.45543e-05
9.33638e-05
0.00672254
0.00117941
0.000174612
0.000957736
0.00672631
0.00672189
7.06306e-05
0.00242366
0.00340662
0.00176937
0.0127103
0.00156593
0.000237152
0.00672376
5.73991e-05
8.20075e-05
0.00251069
0.000664316
0.00672599
0.0141629
0.0136893
0.000554062
0.000214459
0.000432274
0.000681479
0.0067235
0.0016571
0.00673857
0.00240617
0.00672501
0.00948316
0.00674374
0.00174127
0.000152992
0.000630282
0.00130363
0.00673243
0.0135747
0.00041321
0.0023287
0.00712469
0.000396445
0.000523136
0.00702388
0.000550408
0.000104005
0.00206339
6.72178e-05
0.000227317
0.000296707
0.0144328
0.00672907
0.00350204
0.000197508
0.00909135
0.00672288
0.00111973
0.0138753
0.00672593
0.0045695
0.000598019
0.00423392
0.00672177
0.00300221
0.000450019
5.52705e-05
0.002047
0.000534149
0.00632841
0.00307234
0.009194
0.00896631
0.00496952
0.00181374
0.00435115
0.00165993
0.00672307
0.00035342
4.38383e-05
0.0136301
0.00284081
0.000165494
0.000729482
0.00672065
0.00672053
0.00529219
0.00220807
0.000470601
0.000508841
0.000927588
7.98053e-05
0.00575839
0.00205904
0.00673673
0.00673142
0.0070081
0.00171105
9.0721e-05
0.000474824
0.00309878
0.000514038
0.000163629
0.00834285
0.00873293
0.00672405
0.00627197
0.00115984