/*--------------------------------*- C++ -*----------------------------------*\
| =========                 |                                                 |
| \\      /  F ield         | OpenFOAM: The Open Source CFD Toolbox           |
|  \\    /   O peration     | Version:  v2012                                 |
|   \\  /    A nd           | Website:  www.openfoam.com                      |
|    \\/     M anipulation  |                                                 |
\*---------------------------------------------------------------------------*/
FoamFile
{
    version     2.0;
    format      ascii;
    class       volScalarField;
    location    "100";
    object      omega_0;
}
// * * * * * * * * * * * * * * * * * * * * * * * * * * * * * * * * * * * * * //

dimensions      [0 0 -1 0 0 0 0];


internalField   nonuniform List<scalar> 
13851
(
0.130055
0.0242082
0.0240925
4.86613
0.0220822
0.0260139
0.0242102
0.0218434
3.53157
0.0220442
0.0648208
0.0220795
0.0221031
5.50478
0.0360574
0.132498
7.40324
0.0219465
0.329042
0.130091
0.0406819
0.0260956
23.2272
0.0222638
7.15585
0.06207
0.272384
4.55776
3.26833
0.0217737
4.80822
0.0242098
0.128001
4.76995
0.044047
3.24408
0.022274
8.40484
4.63619
0.0220864
4.6166
3.34635
19.2112
0.620772
3.51505
0.0218918
0.0215843
0.125255
0.0234525
0.0220987
7.6858
0.022157
0.131388
0.0305441
5.5496
0.0220843
0.130185
4.45128
0.415446
5.58954
0.0220869
0.256642
0.0220961
0.0235814
0.218607
0.232794
7.53656
0.0660556
0.0221407
4.64852
4.32004
0.0490197
0.0220166
6.75489
0.0319852
0.0237533
6.00308
0.021676
6.20149
0.021952
0.0221568
0.345308
0.0433841
5.10413
5.35705
4.57908
0.0262722
7.05558
0.0220335
4.85225
0.0221919
0.024289
23.4649
4.41298
4.23689
0.365535
0.0219185
0.134816
7.3019
0.178631
0.139854
0.0432361
0.046356
0.0220597
0.0218811
0.0475824
0.0218823
4.39205
0.0242853
0.0219214
0.0309829
0.0218908
0.162342
0.0623204
0.124948
0.0297655
0.0217804
0.0218027
4.98852
4.98259
0.228688
0.0218231
0.0221264
3.80229
0.243253
0.121685
0.0219173
0.0565883
4.28947
0.0455279
0.0260276
0.031399
4.46211
4.65154
0.0661852
4.24951
0.0632325
4.46207
0.0355494
0.0449859
0.3248
0.0226156
0.0220327
0.106517
6.81826
0.0235095
0.0216689
4.45613
3.39833
0.0590656
0.138827
0.156059
0.0668056
0.246021
0.022256
0.0220499
0.0221016
4.44655
0.0416259
0.0235614
0.022243
3.25649
0.0466235
0.125485
5.30568
3.68056
3.7547
6.29709
0.030497
6.13843
0.0221019
0.0217837
0.058128
0.0221391
4.35078
0.267861
0.151085
0.0217706
0.0319695
0.14738
0.236162
0.575991
0.0296826
0.0450511
20.8549
3.36877
0.128118
0.029406
0.0221905
0.0218282
6.01008
0.0415875
7.56127
0.0260831
0.0233686
0.133164
0.123998
0.0221389
0.022195
0.0722222
0.329306
4.31803
4.47285
0.0361165
2.78998
4.19768
0.0236608
0.0440548
3.5901
0.0254355
0.132209
0.0221073
0.340997
0.0222347
0.044949
0.0244779
0.0220798
0.213867
0.0221997
3.87567
0.0217686
0.130046
6.25818
4.28707
0.0291028
0.0445304
0.022264
0.0924027
0.0220154
0.0442686
7.98043
0.0290479
0.0254204
0.0221175
4.35684
0.0217682
16.5011
4.41862
0.155458
0.0222513
1.1001
5.17118
3.58233
0.129616
0.032812
0.145002
0.193039
0.0320877
0.340144
0.0327964
6.38939
0.134178
0.021847
0.0259064
0.136776
3.22559
4.76908
0.0218242
0.127908
0.0220307
0.182032
0.241322
0.0262823
0.0472508
0.137788
0.021978
0.0439289
0.10538
3.139
0.0220818
0.0220778
0.0292372
4.07331
6.6451
0.045318
0.0218407
0.235656
0.242843
0.111529
0.0465498
3.95874
7.52517
0.0267036
0.0330577
8.4652
0.0218726
0.022101
0.115197
0.056676
0.0217653
0.022232
0.0220071
0.0219998
0.032568
0.0220944
3.5845
0.042699
0.0219812
3.21303
3.82024
0.0221802
0.131518
7.81641
0.0227371
0.022203
0.0446775
5.44279
7.48363
0.0635828
0.0220724
6.06979
0.0220943
0.0693049
6.18371
2.9604
0.0234558
7.31879
1.51097
4.47161
0.153386
0.0449949
4.43473
3.86811
4.10025
0.0222641
5.33803
22.0617
0.793385
0.720991
0.0236814
0.0631646
0.0296904
6.34031
0.0503348
0.0218741
0.0215256
0.0275038
4.34535
3.26156
0.0218643
4.20451
0.0299033
0.031685
0.0236968
6.6199
0.234078
0.134402
0.0242131
0.0249315
3.19466
0.0221998
0.254747
0.0266
0.0446046
0.0305047
0.0220297
0.0219793
0.151965
0.195278
0.134093
2.43712
3.2275
0.0235849
4.30801
0.219896
0.0217182
3.09649
0.0883605
6.05096
0.0269327
0.0658273
0.230282
5.50487
0.145889
5.37461
0.0226535
0.257956
14.8773
0.0301536
4.94949
0.0327067
4.60463
0.0326222
0.0389738
0.135003
0.260916
0.0220504
0.0262796
0.0610603
0.0321378
0.0219113
0.0456139
5.33343
0.0220124
0.0442523
5.73039
0.0240678
3.77751
0.042568
7.86007
0.0259455
0.0587509
2.14046
0.248747
0.046874
5.70593
6.55262
0.949691
0.0219822
0.147732
0.0329467
0.0652303
0.0218381
20.1346
5.49874
5.83826
0.0248799
0.137529
0.256217
6.27909
0.0216022
6.89538
0.295395
24.245
0.03378
5.46804
0.0220356
0.0221267
6.72443
0.260698
0.0220418
0.0242474
0.0450994
0.0218168
5.50293
0.0633747
0.0867001
0.0256627
0.0226678
0.0221786
3.7588
0.021978
0.0221579
3.99215
5.34552
0.0256261
0.245864
0.0221028
0.0220933
0.0243987
0.136421
0.0422208
0.0219207
0.0228845
0.21329
0.0233472
8.60725
0.0220748
0.0272838
3.57821
0.0355376
0.0215827
0.0221193
0.0255934
0.0222768
0.955102
3.95305
0.0330912
8.1709
0.0244406
0.0220565
4.11822
0.244541
0.035206
0.022028
3.81395
0.0344267
5.62689
0.022062
0.0316445
0.150202
0.0337595
3.98991
0.260754
5.00029
0.0238147
0.158712
0.0219731
3.23927
0.0424854
0.123766
0.0327208
0.0240049
0.0355158
0.0585431
0.0220941
6.60842
4.00529
8.9808
5.94086
3.99502
4.74738
0.251605
0.0280915
0.0222069
6.48486
0.0220466
0.0219096
0.0301474
4.43654
0.024006
0.0226163
0.0875132
0.0471145
0.0220473
7.48859
0.0219225
4.41138
0.872242
0.0219478
0.0234309
0.303704
3.37645
0.0217719
10.1152
12.5795
0.0216964
4.49282
0.316161
0.129489
0.0237871
3.99997
5.9096
0.0217131
0.313033
0.0221317
0.021923
3.72617
4.6724
0.0384889
0.0414648
0.0220469
0.0533341
4.41243
4.3882
0.0218091
6.00841
0.0219172
0.022147
0.0473358
0.0273146
0.021596
0.0237664
4.54104
0.242526
4.38188
0.0236814
0.0220272
4.08681
0.0221782
0.148682
0.0272351
0.0320528
0.0327235
3.79258
6.08179
0.0259087
6.97741
0.0232456
0.0633257
3.39643
4.27777
0.0221196
0.0219781
0.0468154
4.39606
0.231912
0.0524476
11.746
0.0274584
0.0317491
10.5801
7.59243
0.156371
4.28662
0.175469
3.30811
0.0224627
0.524008
3.92921
0.0220768
17.5212
6.40764
0.0304815
0.0450018
0.0220611
6.84588
0.0759047
16.7547
0.0219781
0.0221657
0.0265167
0.0464992
0.0220843
4.31488
0.02216
0.16913
0.0238749
0.0662577
0.0220546
0.0220471
0.046046
6.33071
0.0468625
4.19592
0.0316431
0.0218259
0.0217733
0.0586132
0.0228803
0.0976439
0.02443
0.0345909
0.410869
0.02218
5.71021
0.0222537
0.0884938
6.02753
3.70669
0.0287217
16.7693
0.0849811
0.263335
6.27264
0.0218723
7.38035
0.0299122
0.0311532
5.69587
2.18362
0.0217292
0.0951465
0.022118
3.23156
6.90026
0.0222308
0.072677
5.64349
0.0222635
0.0222522
0.0629117
7.04487
3.9146
0.0222103
0.135299
0.0231509
0.0220455
0.525688
0.137182
0.165666
0.0215844
0.105841
0.046075
0.0550684
0.0226408
0.0232148
0.0713479
0.0263557
0.115373
0.0488004
0.0489331
0.128702
2.91126
0.321983
4.8398
9.58629
0.131822
4.06298
0.0395808
3.77013
0.132863
0.0219108
0.0311437
0.266076
0.026841
0.0219547
0.0219513
0.0886701
6.02041
0.0274427
4.27002
0.0218298
3.99025
0.145689
8.35137
0.0945952
0.0260843
0.0240863
6.88728
0.164388
0.0380661
0.255611
0.022524
4.90195
0.089258
0.171899
0.032308
0.457585
0.0220321
0.0222454
0.0233796
0.0220444
3.39684
0.0219997
0.473594
3.97104
0.0972137
4.43751
6.46941
0.177445
0.281733
0.0285436
0.0221799
0.022064
0.0216848
0.0217736
0.0221411
0.0637934
0.15713
0.0497604
3.70429
0.0231228
3.54381
0.0222934
4.87551
0.0409159
0.0222836
0.0221326
3.72012
0.0261773
4.11781
6.39296
0.0430854
0.0648452
0.0216797
4.64421
0.0243752
0.0240386
0.535263
0.0221831
0.0226201
0.0218589
0.0425705
5.70165
0.0291528
0.0325983
0.323039
4.26841
0.0290825
0.0268182
3.37821
0.0216824
3.32445
0.0222021
0.0233603
5.91872
0.075285
0.123473
0.0896865
0.0471467
0.0222271
0.0222936
0.0682992
0.022511
0.0222346
0.027935
0.309724
0.0219838
0.244154
2.99762
3.89806
0.0885097
5.65445
0.0365603
0.0221753
0.143856
0.0218425
0.0263175
4.78627
3.21757
7.43323
3.48786
0.0223016
0.0222007
0.0686438
0.0230555
0.0218448
23.2611
0.185422
4.71895
0.0898038
0.0769389
0.0220456
0.0217795
4.09462
0.0872392
0.0236571
0.0222529
0.1229
0.180635
4.35636
0.0222447
0.0221513
6.96654
0.0226182
0.0327281
0.0218214
4.49859
0.0219129
5.43301
0.0220744
0.139396
0.0383086
0.0692628
0.0325218
0.022017
0.0242655
0.0220218
0.399902
0.0226289
3.86549
0.0225898
4.34919
4.14472
0.0308016
0.0220032
5.09297
4.046
0.0263709
0.0747608
0.0220637
6.57957
0.0219304
0.268387
0.0220646
0.0220186
3.96012
0.0328906
0.0221093
0.030887
4.31456
5.2085
5.66968
0.0218273
3.86617
0.0220749
0.021991
0.022252
0.0214918
0.0222332
5.85899
4.94152
0.022208
0.0221562
0.0388077
0.0218912
4.95855
0.147265
4.64383
4.51133
0.0242282
0.115379
0.02207
0.0407351
0.117292
0.021856
0.0222104
1.27143
6.74474
0.0635406
16.3562
0.0582752
0.0221002
0.0406901
0.0759314
7.46543
0.0314163
2.54503
0.0893925
0.0222237
15.2045
14.1249
4.35789
5.18834
3.67716
0.0237612
0.140589
0.0221603
0.927513
0.0263303
0.0218761
5.71542
0.0230187
0.0220043
0.0221197
0.0228753
4.35926
0.257481
0.0218687
0.0414423
5.52676
0.0231552
15.6955
0.0232068
0.0729632
4.57423
0.0220971
0.212758
0.029445
0.0321748
5.97121
0.0229988
0.331382
0.058154
4.54622
0.0221946
4.4985
0.0299032
3.9866
7.75226
5.84481
0.0429757
0.0220322
0.0223094
0.0222634
0.037336
0.0221227
4.08657
0.0288738
0.0278995
0.028827
0.0236959
0.0218249
0.0265132
0.0273022
0.0234324
0.02698
5.91531
0.354636
0.0291561
0.049597
5.77015
0.0226655
4.38945
0.0216942
0.03286
0.0226372
0.0219479
0.044353
0.0220517
0.0218636
0.0447976
0.0220558
0.291442
0.0227232
18.3165
1.47486
0.19917
0.265024
0.0220624
4.30832
0.149384
0.0222261
0.0272142
0.0225297
4.56393
0.0231853
0.044097
3.31778
6.43689
0.0804899
0.0221354
3.73241
2.27021
3.72295
0.029353
0.021817
0.0217929
0.0637615
0.0220333
7.17474
0.152591
0.0221972
0.220701
0.299671
0.0218445
6.06429
6.00387
0.180853
0.0226939
3.7149
0.0634771
0.0220217
6.31915
0.0266574
0.0218321
0.0219356
0.0308786
0.0376006
3.71576
5.32396
0.0388194
3.76929
0.0324064
0.0220205
0.08567
0.0219578
2.10833
0.0218265
0.022046
0.0240083
0.0224722
4.05449
5.68849
0.247103
6.30063
7.32535
0.0290213
0.0220159
0.0227277
0.343301
0.0218088
0.0218937
0.0428232
6.82619
0.251512
0.0216418
0.0386885
0.0327561
0.130543
15.7253
0.0216926
0.0215841
0.023389
4.43383
0.0279143
4.40602
0.023198
0.0221627
0.0218342
0.0219287
0.0244317
0.176924
3.34811
3.63137
0.0288478
0.022057
3.58726
0.022279
5.9709
4.68967
0.0303458
5.32562
3.34589
5.01362
0.0498173
0.0312006
3.66401
0.0300602
0.0335001
0.0704612
0.268202
0.022478
5.1179
0.0220226
4.64251
5.33429
0.0216983
0.0238875
0.045207
0.337376
0.0326776
0.0221424
0.0274384
0.0231938
0.0254217
1.15039
0.0221619
4.0477
5.74742
0.0220244
0.0302553
0.0373712
0.0220825
3.18263
15.7649
4.36069
3.38907
0.0220404
0.0245697
0.0263702
0.0222605
0.243167
0.0329716
0.0222566
0.0568942
0.0257857
4.6758
0.038381
6.9714
0.0230959
0.0231873
0.0504228
0.0879513
0.0689697
0.0219821
17.4408
3.92533
25.8929
4.4303
4.70532
3.67269
4.07691
0.0219874
0.0220283
0.0219883
0.232499
0.0416558
0.0687364
7.01419
0.0221356
0.0216638
0.0220453
0.221848
0.0216587
0.0262663
0.0236771
4.07647
0.0229273
0.0218504
0.0220862
0.0219698
0.0221628
0.034152
0.239639
0.0336371
5.43473
0.0220366
0.0219291
4.28769
4.36306
6.7145
3.91593
0.0477915
3.93267
0.0218125
0.0599685
0.0231921
0.0220794
0.0240102
4.94925
0.0229326
0.0891903
3.60955
0.0222006
0.0219364
0.026345
0.181425
0.0222719
4.06766
0.0219726
0.223299
0.0221253
0.0222065
0.0264407
0.0951784
0.0221122
0.275419
4.37112
0.195917
4.70737
0.0220369
6.26788
0.282472
0.0220512
5.4115
0.022255
0.0421996
0.0221951
0.0220803
0.0219613
0.0220448
0.0224322
0.0271201
0.0623026
0.0221933
0.0220965
0.0606099
0.0217068
8.52219
0.0221262
0.0313114
0.0322039
4.82004
2.36883
0.0221462
0.182818
0.0218164
0.0295254
0.067425
3.80318
0.0449034
0.0222723
0.101752
0.0756334
0.0769456
0.400303
0.0354207
0.139418
0.0525071
0.0624749
0.022892
0.0218372
3.88016
5.45281
0.0244799
0.0220178
15.2473
0.0218326
0.0404726
0.0219614
0.0794297
5.99723
0.0215329
6.11463
0.0258647
0.0221703
0.147548
0.0218766
0.0404086
3.28511
0.0387945
3.93359
0.021956
0.0222648
0.0433348
0.0222258
0.0222465
0.0273071
0.0290466
0.0629897
0.0830472
0.0220815
0.0386437
0.0218268
0.0220635
0.0222149
0.0220536
1.35425
0.0218582
0.0232474
0.246186
0.0218281
0.0220065
4.22936
0.0222497
18.0469
0.0230868
4.28094
0.226212
0.0515249
2.89653
0.0635733
1.94865
0.0223392
0.185216
0.026787
0.0218244
0.0218956
0.0232253
0.0302715
0.0219611
0.0526898
0.0219037
0.0231637
16.3807
7.64006
4.03381
0.0239493
0.0467246
4.91285
6.20964
0.0221721
0.0259878
1.90205
0.02214
0.0397041
2.52152
3.63297
0.0266496
0.0403178
0.0227802
0.318359
0.0222852
0.0355386
5.23344
0.0221534
0.0218572
8.66991
0.0429253
0.254558
4.82214
0.0892961
0.0223999
0.0219079
0.0222388
4.69322
2.72043
5.31505
0.0550386
0.0220445
4.50806
0.022109
0.156885
0.026649
0.0231842
0.0410726
0.0220592
6.25882
7.28791
0.0216603
0.0637775
0.0427481
2.87322
0.043646
0.0519715
0.249571
0.0322451
0.301817
0.0544459
0.0221116
0.0336877
0.0832737
4.05163
0.0220367
1.84141
0.0460029
0.0546459
0.0222727
7.32295
0.0257387
0.0236
0.0218544
0.0388632
0.0376439
0.0551927
0.0221277
0.0226815
0.0555762
24.3993
0.0589983
0.0221567
0.022611
0.0335789
0.219942
0.0221708
0.0861126
7.62475
0.0468684
3.8707
0.037181
7.75705
0.325154
0.0219873
1.6861
0.0222385
0.0248774
0.0312242
0.0332122
0.0966605
0.0428003
0.0423823
0.0442535
0.0305522
0.0241095
0.0216519
0.0823141
0.0251375
0.0286642
1.79166
0.0259847
0.0301318
0.0219472
4.84794
0.0796427
0.0220807
0.0244328
0.0232489
5.43433
0.148959
0.0312045
3.50995
0.309278
0.912959
0.0892809
0.20153
0.0218912
0.308897
0.0218827
0.0268272
8.45954
3.17004
0.34067
1.49424
0.022121
6.60184
0.021888
0.0739588
0.0251361
3.81817
5.80434
0.0255796
0.022023
0.315222
0.0430762
0.0220233
4.28962
0.0220694
0.0236755
0.0251273
0.0221898
0.0302435
0.0233176
0.0220425
0.0343229
0.438079
0.0382457
0.0591351
0.0220193
6.39849
3.20814
0.0220044
0.257571
0.0250813
0.0290816
5.15636
0.022001
0.0226834
0.0278281
4.24347
0.0220332
0.0221826
0.0388262
3.6755
0.0219876
0.0319158
0.0338901
1.55163
0.0452673
0.0385884
0.217141
0.0220745
0.116858
0.0217139
6.26229
0.0296333
0.0220494
0.0264715
0.0927072
0.0221503
0.0221172
0.134715
3.61886
0.0222667
5.53528
0.0221875
0.0217033
0.0620115
0.0220361
0.0218573
6.55971
0.0222737
0.0386535
0.144424
4.66272
1.24547
0.0217925
0.0239604
0.02799
0.0220745
0.0220327
0.022095
3.58039
0.022195
0.245283
0.109178
0.0218493
0.0217178
0.0295295
0.109411
0.254186
0.0546554
0.0599435
0.0238017
3.56475
0.075515
0.0294412
0.0381168
0.0640172
0.0887029
19.3155
0.0358937
3.7265
4.25416
5.74339
0.0243916
0.0219644
0.0373241
0.0341216
0.021799
0.0222728
0.128953
0.0222435
0.022293
0.0220527
0.021586
0.0233338
0.0220132
6.31374
0.02202
8.7978
0.0220818
0.0853342
0.0225109
0.112511
0.0763257
0.0220366
4.92665
0.0239426
0.0222256
0.0375925
0.0218159
0.0306343
0.0219467
3.44776
0.0241301
0.0406176
0.102763
4.8827
0.0282938
0.378216
1.56271
0.0499648
0.0220611
0.0228509
0.107586
0.0619506
7.06997
0.0217695
5.18406
0.0220903
0.0873606
8.91222
0.0356253
3.72424
0.0251526
0.0314123
0.0247845
7.06867
0.0306863
0.022142
0.0479802
0.135318
0.0233092
0.0220411
0.022143
4.55045
0.0222523
0.0275891
4.47175
0.0259942
0.021982
0.0553174
0.0248382
4.70681
0.0216633
0.0220174
0.0218653
0.025997
0.0223254
0.0220794
0.0583437
4.13508
0.0219671
0.0221025
5.1775
0.0221648
5.73801
0.0235103
6.93006
0.0218622
0.0242951
0.0218146
3.82012
4.72109
0.0301955
0.0700096
0.0269003
0.0219459
0.0221166
3.50845
0.0221368
0.0732827
0.0217822
0.0392149
0.0221894
5.41847
0.0218396
0.0414233
0.0218605
0.491047
0.887156
0.0217979
0.0437812
6.77338
0.0619236
4.04787
3.69488
0.230965
0.0233717
0.0329571
0.0905448
3.9405
0.0221081
0.0357746
0.0280482
0.0219826
4.05705
6.4577
0.0634982
0.146898
0.314231
0.0331425
4.08456
0.0217924
0.0217934
0.0946817
7.73027
0.214369
0.150723
1.89587
0.0218136
7.35036
3.72262
9.69226
0.0222027
5.33773
5.33844
0.957743
3.9723
3.64529
0.076195
0.0299292
0.161687
0.025538
0.0219707
1.43332
0.0863666
0.0216352
4.56316
0.0221881
0.0292815
0.0401801
0.0266515
1.90296
0.0346296
6.03971
0.0407697
0.0260516
3.91583
4.74889
0.131614
0.0223572
0.0257447
0.0692345
0.0575439
0.0218329
0.0464318
0.0615294
0.136616
0.0219688
0.183227
0.0242968
0.0482828
4.10648
0.339757
0.023049
0.128147
4.54291
0.0221519
0.0227875
9.00272
0.312564
0.0242144
0.0244802
0.0220907
0.0722021
0.0250292
3.33942
0.0963389
0.0224951
0.0222233
0.0662008
0.0295295
0.422425
6.39715
0.0218786
0.0220358
0.0274892
0.0221943
0.0240307
0.022896
0.0226918
0.0257292
0.0219349
0.0247942
0.0221723
0.04322
3.4608
0.0222642
5.50979
10.4148
0.0217133
0.237725
0.126906
0.0833536
0.0227154
0.0857433
0.0266314
0.0787193
0.0289708
0.0231841
0.0222094
6.94542
0.0272707
3.95064
0.0226969
0.0220379
0.0220246
0.0686774
0.0219615
0.0471823
0.0549334
1.59848
0.0219178
0.244021
3.93456
3.88761
0.0218061
0.132029
0.998154
4.17741
2.34089
0.0225293
0.0222784
0.154265
1.59735
3.62469
0.0385694
0.254145
0.0222315
0.0218408
0.039659
0.0221956
0.0221239
0.153144
0.0222654
0.0890103
0.0218522
4.79727
5.3833
4.61115
4.11604
3.99741
0.0221161
0.0221442
6.55465
0.0217825
0.0218085
0.0217039
0.117735
4.80699
6.47015
0.0274975
0.022055
0.0231155
0.037007
5.22713
0.0220371
3.74386
4.90685
0.0221884
0.0221776
3.96155
0.0696806
0.0231291
0.0220437
5.70053
4.22736
0.021975
0.186833
0.0222537
3.82226
2.99144
0.0233215
7.72082
6.48853
5.4175
0.0218379
0.0221071
0.022245
0.0222861
4.48271
0.0219118
0.228425
0.204789
8.48359
0.0226057
0.0564499
0.279517
0.0470559
6.50485
4.39071
0.0216346
0.0252665
0.0254284
0.127595
3.93908
0.0215731
5.44638
0.0319949
0.0398295
0.0227232
0.0219483
0.265016
0.0391177
4.98494
0.0221955
0.0534878
0.022525
0.114385
0.0240141
4.03385
3.42286
0.256666
0.0834228
0.0219628
0.0238611
0.0799865
0.216573
3.98453
6.6069
0.0221494
3.85825
0.0911007
4.888
0.0261316
0.0424122
0.0383988
0.0220736
5.50815
0.0220701
0.0315093
3.50617
4.68902
1.22082
4.65361
0.028242
0.0462544
0.0217472
4.81154
0.0271795
6.69312
0.0217349
4.84782
0.0215394
0.0220044
0.031143
0.0312659
0.0323681
0.021976
3.61269
0.0402927
0.0219148
0.0369863
3.87546
0.574906
0.0220343
4.67025
0.0243133
0.0324575
0.0307518
0.0216946
0.0608202
0.0219973
7.94439
0.0790108
0.0262614
0.0220316
0.332507
0.0383002
0.0217339
5.01947
3.04095
0.22944
0.021645
1.25984
0.0221402
0.138321
0.0269278
0.114724
4.91858
3.78203
0.0344897
4.66374
0.0484325
0.0283638
0.0218289
5.19719
0.10963
0.0985678
0.0599085
0.0222435
3.77874
0.082868
0.340769
0.24232
6.36935
3.57215
3.58945
4.85599
0.0287834
0.0314995
0.0220953
0.0220622
0.0215925
0.163116
0.0289807
0.0330866
4.65626
0.0219362
0.0218586
0.0382894
0.135372
0.0272755
0.0218131
4.37552
0.0240763
0.0427889
0.0222061
5.52513
0.0286697
5.81571
0.0553967
0.0329117
0.0509982
0.0220886
7.82629
0.290854
0.0663799
0.022039
0.0219106
6.94673
4.55439
3.21148
0.0218465
0.067599
0.659823
0.0220323
0.0220087
0.0220958
4.66986
0.0996611
0.034161
0.0266242
0.0256044
4.71702
0.0855634
0.233703
0.0258267
0.0314866
0.0215791
0.121605
0.0533505
0.0220156
3.48139
4.43679
4.1855
3.66059
4.92209
8.45768
6.49861
0.0231007
0.0218255
5.89609
4.87182
6.69924
0.0220642
0.038321
0.0220456
0.0219629
3.58946
4.81593
0.0591994
0.0220057
0.265446
0.0879668
0.0467927
4.10765
2.05116
0.25995
0.0219159
4.02464
3.4512
0.327935
0.0307748
0.0405624
0.0221658
0.0218755
0.037691
0.043923
0.0243709
0.0376969
0.0272786
0.024976
0.227786
4.0033
0.0314095
0.0392148
3.93845
0.209666
0.022111
0.450722
0.911394
4.80843
0.0398065
0.0221207
0.0288556
0.0266318
0.0300303
0.0216928
0.0330829
0.0300605
0.0422695
0.225159
0.0222306
0.0229881
3.65374
3.55641
4.60295
0.311224
0.0998384
0.0215234
0.0220451
0.0296981
0.0217403
6.5964
0.0220384
0.0222734
0.0217281
3.4302
17.9716
0.0223993
0.0575009
0.0279917
0.0351546
0.0294298
0.0349479
0.0381318
0.0364629
4.74757
0.0257913
4.53388
0.0381133
4.57048
0.0288821
0.0219359
0.0218235
0.0884344
0.135597
0.0218263
0.0389271
0.0290583
0.0562583
4.06012
7.26488
4.4855
0.0222732
1.29218
0.0296343
0.0359491
0.0220324
0.0657874
0.0237074
3.71683
1.95658
0.0389313
0.0220786
3.53831
0.0272252
4.23086
4.95663
0.228348
0.0242396
0.122389
4.60131
0.97589
3.64119
0.05721
0.0219512
0.038783
0.021841
9.28377
0.0245981
0.0311054
0.256763
4.50873
0.0219181
0.0219566
4.23073
0.0404125
8.54928
0.03255
0.0220442
0.041206
0.201211
0.0430989
3.85021
0.0353197
0.686178
0.0249154
0.0222448
0.0219435
0.256877
0.022646
0.122394
0.0220474
0.0220144
0.242543
0.0256581
0.0220813
0.022039
0.0346257
0.512942
0.039481
0.0378847
0.0263423
0.0579186
0.0220308
0.147133
0.0298368
0.0411325
0.0694503
0.0271589
0.0834317
0.0448305
0.0218224
0.0619095
7.17969
3.28114
0.0220829
1.80092
4.1978
0.021961
0.022643
0.796753
3.96779
0.0277991
4.04099
0.334166
0.0220072
0.0764607
0.0215909
0.0256556
0.0582604
9.28177
0.497569
0.206448
0.243792
3.58341
3.83403
0.0231908
3.60481
0.0220378
3.46951
3.90336
0.0220992
0.022083
3.44201
0.0221085
0.0220851
0.267898
4.18982
0.209782
0.0256507
3.99944
0.0221036
3.68077
3.76476
0.02219
0.377101
4.04563
4.38997
3.50014
3.64684
3.66201
0.0218803
0.023175
0.0584442
0.0599953
0.0220796
0.214466
0.0220428
3.54332
0.277295
0.0488561
0.264779
3.46287
0.278415
0.237332
0.0597251
7.40007
0.430724
0.0248939
0.0216349
3.62754
0.0344471
0.021779
7.02974
0.0219737
3.7306
0.0221345
4.70007
0.0250474
0.0219805
18.4509
0.0274065
0.0352386
3.75271
6.54777
1.91923
0.0269604
0.0412397
0.0233128
0.0367105
0.118746
0.0374798
0.0222095
1.53733
0.0579347
0.0326265
3.97244
0.0387842
0.0366491
0.191739
0.0699261
0.04118
0.0219755
0.183509
0.0218228
0.117248
0.467379
4.2673
0.0218732
0.0379282
4.62537
0.0231042
0.0614386
0.0298528
0.0404064
5.92596
0.0572251
0.0234047
14.4422
0.0218841
3.52298
0.0221244
0.0228896
0.115593
3.23628
0.0321151
0.380693
0.556733
0.030053
0.022183
0.158027
0.0435558
4.54942
0.0264875
10.5302
0.133893
0.0299398
0.0288527
0.0989177
0.0365458
0.0736875
0.0568316
0.0377377
0.0241681
0.0220548
1.67369
0.0220079
0.0282647
0.0216031
0.0996682
0.0285849
0.0559853
3.78594
0.0229955
0.216725
0.0215133
0.0221443
0.0221885
0.0222064
0.0259619
0.0219427
0.077565
7.57027
0.0550512
0.0429388
0.0246786
0.0220471
0.295274
0.0220202
4.4637
4.8708
4.70498
0.132775
0.0344171
0.0265363
0.0221772
0.0296596
0.0946398
0.0415234
4.0912
0.0541273
5.08092
0.134877
0.0222101
0.0218427
3.33632
0.0219489
0.0289963
0.0651443
0.316683
0.023148
4.39281
0.0221733
0.0256394
0.0220467
0.0226186
0.162541
0.0957938
0.0222197
0.0309366
0.0345119
0.0433094
0.0524961
0.4867
0.338845
0.249685
0.121182
0.0256263
0.0229346
0.0515786
3.22329
6.39784
3.57511
0.0305354
5.45129
0.093142
0.0226934
0.021998
0.0554694
0.0221431
0.0308386
5.37083
0.0219636
0.0218121
0.471348
3.56179
0.0430267
1.12684
0.0221087
5.56764
0.0411046
4.64048
0.0292446
0.0220301
3.70077
0.0581433
0.0220285
0.0700271
0.0222529
0.149007
0.0285877
0.0547707
7.07301
0.0333343
5.22383
0.0219316
5.23791
0.0221169
0.0258689
0.022491
0.0448539
0.0221434
0.054776
3.47319
0.954805
0.0472061
0.0317453
0.0763787
0.0219125
0.0219517
0.0229199
1.3647
0.0250102
4.85649
4.4105
0.132377
0.0222153
0.13659
0.209559
0.13819
0.0254392
4.6424
0.0219706
0.0215285
0.0219571
3.68999
0.0220682
0.0220109
3.57127
0.0219751
0.152273
0.0978269
0.021784
4.05441
0.0273316
4.65473
0.0219355
2.11354
0.0228053
0.0712364
10.1194
0.0614848
0.0219442
0.0265792
4.62526
0.0307256
0.140153
0.0302387
0.0261536
0.13436
0.0289219
0.0221644
22.4436
0.0289256
0.0274181
0.130914
0.0219677
0.021867
0.022189
0.02969
0.0221163
0.0258284
5.34408
12.8816
0.10045
7.20031
0.0550061
0.0326721
4.60424
4.73213
0.022422
8.70456
8.98265
3.79095
1.68534
0.030415
4.56959
3.70838
18.482
1.70649
6.23871
0.0423024
0.0815826
0.0293317
0.0255337
0.0221525
1.22798
0.0222851
4.86352
0.12125
0.318287
0.0215961
0.0677456
0.0452474
0.0235437
0.0222931
0.0221184
0.12016
0.0234042
0.0222093
0.0376994
4.30171
0.024061
0.14653
0.0218307
0.123662
0.0812051
0.0221477
0.026592
0.0219462
4.73002
4.31127
0.151993
5.79989
0.0328587
0.0823976
0.0221314
0.038468
0.0220554
0.0223074
0.0222333
4.86764
0.021784
0.04202
0.680904
0.0277013
0.0300339
0.0220015
4.83579
0.18062
15.0401
4.50772
0.156041
0.295463
4.24646
0.317302
0.417871
8.13011
0.122062
0.0338811
1.90203
4.91996
0.0220469
5.42551
0.142805
5.45206
0.0216144
0.0580807
4.96349
0.0222732
4.73429
0.0253311
6.53117
0.0220917
0.0220953
0.0642343
0.212559
0.0261497
0.0609079
0.0217999
0.0221186
3.58128
5.59501
7.55344
0.0489605
0.02215
0.0224198
0.022135
0.0356485
1.07127
4.2991
3.89012
2.34165
0.0315037
0.0219534
0.0219835
5.42071
6.96044
0.264698
0.0262547
0.0246691
0.0809943
5.07352
6.43163
0.021522
0.0219587
4.88702
0.0229861
0.240789
0.0278296
0.022061
0.0320536
0.0458584
4.38729
4.51334
0.0222022
0.0218117
0.0246351
0.274991
5.01299
0.0222651
0.122703
4.29125
0.0215302
3.53933
3.77516
13.5124
0.0221097
5.90367
4.78845
0.0382655
0.295424
0.0243511
0.302856
0.318077
0.0252642
0.021942
7.27011
1.38286
0.0218592
0.133266
0.132309
0.029194
0.251187
4.45915
5.40822
4.91592
0.0274017
0.0235217
0.0230235
4.39671
4.90679
4.65127
5.88936
4.45032
0.0217298
0.0414
0.0220674
0.0221148
0.0247739
0.0219688
0.0220606
0.022139
4.09994
11.3694
6.67448
0.0556981
0.179966
0.0357397
0.0218619
0.0219872
4.20992
0.0221378
6.0291
3.51011
0.0221787
0.0219007
3.34174
0.0225466
0.504393
0.0255969
0.0217542
0.021726
4.2728
0.0216849
4.31927
4.0725
0.0215721
0.0445672
0.021923
0.0228841
0.0218745
0.107782
4.11342
0.0219724
4.91364
0.439652
0.0239775
0.0218915
0.0226369
0.0235101
0.0222263
0.454821
5.22151
5.69517
0.0380092
7.35279
0.0222726
0.025572
0.0221529
0.162213
0.0233516
4.87085
0.0218621
3.99268
0.255292
5.46424
0.144456
0.0218581
0.0421718
0.0219236
4.10576
0.0219442
0.0282877
0.026204
0.0253674
0.0221473
0.0222511
0.0322013
4.98032
0.0221759
0.02281
0.023858
0.0331747
0.163444
0.0221877
5.37358
3.4605
0.0237782
4.84253
4.65737
3.76907
6.26906
0.0215401
0.0230478
3.97943
3.91628
0.129453
3.63955
4.13175
0.0321755
0.0470788
0.0299814
4.34804
0.0220387
0.0219659
5.52054
0.119964
5.00318
0.0246427
0.02171
0.0220477
4.98053
0.0665425
0.0236554
0.21235
0.0218402
0.0565756
0.0298262
0.030077
0.0219846
0.0221884
0.0219203
0.0245771
1.24556
4.57078
0.0215806
0.0219186
4.41515
0.0220681
0.061737
0.0258741
0.0254888
0.0362796
0.0222858
4.24108
0.0291911
0.0251732
18.9938
0.080665
0.0232233
0.0316763
0.0220274
0.0224844
7.75245
0.283776
3.35242
0.0222725
0.0221534
0.0579713
0.0270577
0.0220333
0.0369623
4.34053
0.0257168
0.0401245
0.0252662
0.114511
0.0221151
0.0217194
4.84536
5.20863
5.09499
0.0219678
0.146274
0.0216266
0.0220251
0.0626958
4.41699
0.0641636
0.0278714
0.148157
0.0227736
0.0291537
0.052381
0.730075
0.0222958
0.0216437
0.0225316
0.0238071
0.0268217
0.0219598
1.12039
10.5315
0.0221027
0.0317822
0.0223935
0.0216684
3.57129
5.89547
6.26082
0.0705377
0.0223638
0.0530197
4.80109
0.0943039
0.0902016
0.033551
0.0295895
4.97534
0.210634
0.649591
0.0217657
0.0302991
0.0221052
0.0299738
7.06029
0.0216283
0.0396569
0.0253596
0.0296918
0.0230399
0.0218102
0.0218788
3.93368
0.0442037
0.0300015
0.063789
0.0343867
6.16057
0.0309241
0.457675
0.0219226
4.91466
4.72717
6.78218
0.0222646
0.0312288
0.0220843
0.0219613
6.24577
0.0444662
4.94882
0.0219964
0.0445432
0.127768
4.48698
0.0278772
0.02166
6.66502
0.0222852
0.0222842
0.022589
0.022038
6.68328
0.0218311
0.0218774
0.0357034
0.0271339
0.133786
0.121288
0.0328675
4.35763
0.0220043
0.159235
0.0218006
4.82571
0.0334664
0.440761
0.135703
2.41959
0.102668
4.63789
0.023063
6.27888
0.0321539
4.79474
0.180245
0.0277592
0.199206
0.0221437
8.00088
0.0230947
0.0370443
0.0270191
5.77471
0.135929
4.3466
0.0307404
0.0220147
4.75953
0.214034
0.0522345
0.135906
8.70936
4.84734
0.0383107
0.244614
0.0409468
0.0218816
0.0467402
0.232505
0.0663287
25.1478
0.112665
0.0217959
0.0219592
0.128284
0.0220859
5.40229
0.0685944
0.0220845
3.43616
1.71507
3.6659
0.101908
0.0220127
0.0288217
0.0256539
4.32591
3.35907
0.0256487
5.05138
0.0218852
0.0313325
0.800164
0.0220053
0.039317
0.0219299
0.0260477
0.0222513
0.155294
0.84912
0.0299209
0.0291184
0.0217238
0.130632
0.0219005
0.0218304
0.0327115
0.0219233
0.194767
4.75433
1.96234
4.28374
0.0217921
5.2835
0.0221888
0.0368921
0.121893
0.0220639
7.81622
0.0666122
0.0220382
0.0216546
0.0407178
0.0369831
0.167632
0.23005
0.0257101
0.0238794
3.90083
0.0589395
0.26191
0.702445
11.847
3.94331
5.01306
0.931685
0.0221432
0.0221142
0.0454334
0.0222105
0.0491454
0.0360933
6.10545
5.28794
6.42056
0.0217047
0.0217897
0.111441
0.255972
4.45767
0.992583
3.33919
0.0540482
0.0324708
0.91593
0.251718
0.0262822
4.6749
0.0329015
0.0299608
4.34619
0.0398596
0.0219849
4.72178
0.812303
0.0245585
0.129454
0.0233144
3.46223
5.70307
5.56007
0.0220164
0.0216871
0.129136
0.0220187
0.0219399
0.0220228
0.021735
0.0220284
0.022035
4.8269
0.0277237
0.0457305
4.21579
0.0218999
0.0220434
0.0310835
0.0258237
0.0261644
0.0220509
0.0628821
0.0303472
0.0263192
0.0827492
4.23174
0.0220614
0.0411157
0.0220729
0.0220374
0.0215793
0.0220849
4.33603
0.0219096
0.0220254
0.0220978
0.0425124
4.13698
4.25539
5.01218
1.21428
0.0433903
4.22333
6.35463
0.0219561
0.0416884
5.80838
0.209776
0.0221118
0.0279035
0.0417444
0.0373627
0.0220624
0.0394592
0.0564632
0.0438287
0.0216341
0.0513545
4.11228
0.0215796
1.39043
4.77108
0.0417274
0.640597
0.034917
0.0220905
0.0254693
0.0220123
0.21513
4.77476
0.0216913
0.0427189
0.021973
0.0219804
0.0221872
0.0222859
0.0368235
0.0221718
0.117239
0.133662
0.0256969
0.0244988
0.0439733
0.0220497
0.0438528
0.0320565
0.0223801
0.0221021
0.022141
4.96731
0.0220136
0.248192
0.0400818
0.0222534
0.0220281
0.021768
4.50286
0.0252669
0.0421599
0.050259
4.9588
0.0280016
4.06539
1.434
0.0428511
0.0219744
0.214585
0.037579
4.8573
0.0670353
4.90899
0.0216698
0.0480688
0.0471203
4.37522
0.0220039
0.0430492
5.07656
0.0218631
8.03033
11.2188
3.83926
0.0219761
0.0217955
4.87954
0.0220509