/*--------------------------------*- C++ -*----------------------------------*\
| =========                 |                                                 |
| \\      /  F ield         | OpenFOAM: The Open Source CFD Toolbox           |
|  \\    /   O peration     | Version:  v2012                                 |
|   \\  /    A nd           | Website:  www.openfoam.com                      |
|    \\/     M anipulation  |                                                 |
\*---------------------------------------------------------------------------*/
FoamFile
{
    version     2.0;
    format      ascii;
    class       volScalarField;
    location    "1000";
    object      ddt0(omega);
}
// * * * * * * * * * * * * * * * * * * * * * * * * * * * * * * * * * * * * * //

dimensions      [0 0 -2 0 0 0 0];


internalField   nonuniform List<scalar> 
13917
(
-0.0467668
0.000235687
-0.0160591
-8.99252e-08
0.000171622
0.000103726
-6.67065e-06
0.00179378
-1.88744e-05
1.94785
0.00292193
-3.99072e-07
-8.57492e-07
0.0406551
-0.000109203
-0.0665926
1.9492e-06
0.0031584
-0.00207389
0.264611
0.000114255
-1.51216e-06
-3.50341e-06
-1.93585e-06
2.33565e-06
0.000119347
0.0942028
1.21635
0.000526834
-2.37441e-05
-0.0966018
-0.000374425
7.72366e-07
0.00653712
-5.90819e-06
0.0112017
-1.88082e-05
3.45633e-06
-6.35159e-06
-6.25859e-05
4.23954e-07
5.90702e-06
-1.08649e-05
-0.00117789
-0.00108585
0.0893681
5.71369e-05
-0.831691
0.37187
-6.32987e-06
-8.37533e-07
0.00156933
-0.0237661
-3.04692e-06
-4.19555e-06
0.00140943
174.485
-4.60562e-06
4.04241e-07
0.0893942
0.114931
0.0006096
7.94972e-09
2.24936e-06
-0.0273235
-0.0985864
0.000759755
0.00250916
0.00232038
0.00234165
-0.0366514
0.00547492
-1.04135e-06
1.22543e-06
8.63327e-05
8.43871e-07
3.68123e-05
8.13801e-07
4.70923e-07
6.47502e-07
-5.73157e-07
1.52241e-06
-1.14443e-06
0.0185868
-7.69041e-08
-0.0378917
-0.000341122
-3.97539e-07
-4.91899e-05
2.08105e-06
5.97727e-07
-1.26339e-05
0.423564
1.24098e-06
-8.45651e-06
0.000731707
-0.200207
2.28607e-06
-3.91639e-07
-0.00378795
7.62438e-07
6.75257e-07
-3.06515e-06
5.18397e-07
2.65087e-05
0.0664789
-0.0591515
0.00047986
-2.63511e-05
-0.0272217
-3.10918e-07
0.0087222
0.000502854
0.651982
-0.0294622
2.11485e-06
-0.00169515
1.0736e-06
0.00182402
-1.28401e-06
1.52985e-06
2.44313e-07
0.00129086
5.61854e-06
0.010855
-0.011996
2.05443e-06
9.36036e-05
8.45394e-07
-4.75459e-05
-5.0675e-05
0.00101336
-0.0357645
1.13129e-06
-0.000524885
-0.0856519
0.0928632
0.00785528
0.000174056
3.41844e-06
0.0362409
6.35339e-06
0.0644319
-4.64066e-07
-7.04697e-07
2.11909e-05
-0.032854
0.0500944
-1.39221
-3.72648e-06
1.90095e-05
4.52571e-07
-6.72845e-07
-1.3402e-06
-0.20066
-1.84174e-05
6.25459e-07
-0.0333732
1.20501e-06
1.23232e-06
1.36662e-07
0.0168648
-4.24823e-05
0.0490247
-0.369519
-0.0138422
0.0473666
-0.0718709
4.68471e-07
0.000330005
-2.92618e-06
-0.0453852
-1.97249e-05
0.137986
3.25688e-05
4.65128e-07
-3.63846e-07
0.00223499
-4.38745e-05
-4.04936e-05
-9.48006e-06
-3.1824e-06
-8.7282e-07
0.0123505
-0.00249106
-0.000734186
-1.25002e-06
0.023217
-1.46211e-05
-0.0155196
7.50191e-05
-0.000992083
0.000499851
-0.0409882
6.7868e-07
0.0115163
8.42345e-06
-0.0304642
-3.54012e-06
-1.43706e-05
6.17222e-05
-0.00522977
-0.00524811
-2.4958e-05
0.198891
0.000193421
-2.12201e-05
4.08297e-06
0.00177314
-2.67128e-07
-1.76922e-08
0.00094089
-0.000115824
-1.61449
-0.000508935
0.000208617
0.0171508
-5.00803e-08
2.28694e-08
-1.8078e-07
0.0023763
0.00222193
-0.0429289
3.97609e-08
6.12538e-08
-0.155753
0.0113598
4.56079e-08
1.78578e-08
3.85159e-07
-3.88874e-07
-6.41283e-07
0.00209554
-1.01085
3.70465e-06
7.59947e-07
0.000307139
0.00337108
1.20424e-06
1.98062e-08
0.109278
0.0542412
0.00169385
0.0179027
-0.000129316
-3.36474e-07
-0.70912
0.000481612
0.000366463
-0.000490252
-2.18785e-05
-1.17218
-1.30412e-06
-5.87496e-05
0.000117098
4.55904e-06
2.49714e-07
2.2513e-06
2.05818e-06
2.33932e-06
0.00470855
-0.148933
-3.82121e-06
9.28285e-08
-1.74192e-05
1.92757e-07
-1.34502e-06
-9.79093e-07
4.8461e-06
-1.99717e-06
0.00457838
-0.0562626
-1.421e-06
-1.40809e-06
0.221056
1.20512e-06
-0.00258094
-0.00155142
9.93674e-07
0.000370367
3.38577e-06
0.0151952
4.12349e-07
-6.21433e-05
5.07286e-06
-1.28686e-06
-0.00193558
2.49326e-06
0.00620812
7.93686e-06
-0.0810981
-9.31092e-05
0.375718
0.00161289
1.05484e-06
8.15336e-05
8.98003e-05
6.94812e-07
0.000161725
1.66988e-06
2.0443e-06
1.11161e-06
0.00186891
-0.00889426
-5.76494e-05
6.49845e-07
-3.43881e-08
-0.0328877
-0.0283119
-6.78962e-07
-0.00196728
1.06261e-06
0.305548
0.000705515
-0.00845651
0.125086
-0.0618952
-0.00331981
-2.50398e-05
0.048337
0.112638
-0.0126285
-1.11807e-06
-8.92435e-05
0.201775
-8.25998e-06
0.000462193
-0.000938079
1.11672e-06
-0.0461544
-1.14941e-07
-0.000143473
-3.73607e-06
3.86292
3.14315e-08
-3.76273e-05
0.000215697
-0.0476175
1.40439e-06
-0.000513757
0.098663
-7.45885e-06
-8.75558e-06
0.00804898
0.0853806
0.0474742
0.0264865
8.7777e-07
2.40981e-06
0.0457791
-0.00450177
5.83194e-07
0.000156698
-2.86563e-06
-0.000305861
-3.87871e-06
0.000512483
-0.00023862
-0.002526
-0.00012174
0.000715502
1.50295e-06
-7.55115e-06
0.000281073
-0.00453444
8.24099e-07
-0.058487
-0.000125169
0.0245514
-4.49171e-06
-0.000651107
-0.00168643
0.837274
2.74652e-05
-0.043044
0.127716
0.000277129
-1.66627e-06
-0.118077
1.29949e-05
-0.504688
-0.000945719
4.27115e-05
0.637829
9.72248e-06
0.095583
9.88359e-07
0.097571
0.129191
-1.13576e-05
-0.131244
-0.00206243
-1.85717e-05
0.0228831
-0.00362332
-8.74665e-06
-0.00184546
8.32638e-07
-0.00221917
-0.0161941
-1.24303e-07
-1.33341e-05
1.67021e-06
-9.08083e-07
-3.93499e-07
1.87914e-06
-0.0574476
-0.0109809
-5.94965e-06
2.39693e-06
-1.98703e-06
7.42982e-05
0.0989138
1.14677e-06
4.7564e-07
0.000663962
-0.0010396
-1.28929e-06
-1.14501e-05
0.119084
-0.161683
-0.0629675
-0.00219179
0.14588
1.34592e-06
1.6522e-06
4.66092e-05
-3.27477e-07
1.34637e-06
4.49854e-06
1.46317e-06
-3.3796e-07
-1.10729
2.88255e-07
-0.000108577
0.00266293
8.18233e-05
3.49557e-08
-5.78189e-07
0.0253437
4.01155e-05
0.00495238
3.04942e-06
-1.08088e-07
2.31349e-05
-7.77744e-07
-1.9125e-05
1.14668e-05
0.110067
0.00105839
0.0559068
-1.38746e-07
-3.7398e-05
-0.00196722
1.98429e-06
5.32605e-05
0.0497002
-2.68494e-06
-0.0196873
3.90708e-07
-3.01811e-07
-3.04846e-06
9.75309e-06
-3.2637e-07
-6.87341e-07
-0.0355578
0.0394394
-3.23226e-07
0.398765
0.000660513
-5.3275e-07
0.000133933
-0.000297223
-0.0480371
-1.52368e-05
0.065689
-0.0011136
-0.00496607
1.23544e-05
-0.074527
-0.00187618
-2.10537e-05
0.00549774
7.63348e-07
-3.12065e-06
-8.52886e-06
-1.54694e-05
6.09199e-05
4.34544e-05
-0.000118861
0.000452016
4.69511e-06
0.0023442
-0.000263306
-5.90901e-06
0.0392011
6.9831e-06
1.01632e-05
-0.368292
-1.05734e-07
-0.000234278
0.00070892
-3.55383e-08
-0.0275488
-3.46478e-07
-8.52699e-07
9.68191e-05
1.14041e-06
-7.39593e-07
0.00118112
-0.0278895
-0.148828
8.25557e-08
-2.26758e-06
-5.41572e-05
0.016166
0.0792312
-4.73372e-06
-3.7537e-06
8.50561e-08
8.44194e-05
-0.0780678
6.41623e-07
1.00609e-06
-1.39149e-05
-8.6483e-07
0.000190744
1.43066e-06
8.53326e-07
-8.36719e-05
-4.39215e-08
-7.65905e-07
8.40957e-07
0.00673599
3.60327e-08
-4.26135e-06
2.55844e-06
-3.23788e-05
0.000208555
-1.22028e-05
0.000195653
-0.00330148
-9.53235e-07
0.00148265
-0.0275943
-1.207
-0.00132214
-1.66085e-06
-3.67928e-06
0.000108606
-3.37843e-07
-0.0313714
1.44218e-06
-0.0605457
6.6643e-06
-0.0281524
-0.00222071
-1.09257e-05
-1.16518
-5.62813e-07
-0.000293654
2.20287e-06
6.09046e-06
-0.0349623
-1.62331e-06
0.00741551
-2.58669e-07
-9.42189e-07
-3.49717e-06
-0.00366049
0.000163072
2.50204e-07
-0.0010811
0.000118048
-0.28216
-0.0194587
-0.0275179
-0.0927905
2.89108e-08
0.0074096
1.17384e-07
0.136081
-0.0027359
-7.62896e-05
-0.00142138
7.15207e-07
-2.33539e-06
-8.79237e-06
-1.01072e-06
2.04674e-06
-4.9789e-07
0.0734458
-4.22575e-08
-0.000305533
-2.56574e-06
1.90834e-07
1.37485e-06
-0.0097043
0.00141138
-0.207546
-0.00035938
1.83816e-06
-0.404467
0.00291412
1.22468e-06
0.0241096
-5.50828e-07
-0.000326482
-5.23274e-07
-0.100172
-9.32042e-07
0.000190029
-8.15727e-07
-0.209535
5.44424e-06
-0.0107678
1.23888e-06
-3.63535e-06
-4.80182e-06
4.74431e-07
0.0059829
-0.0101136
-7.43133e-06
0.000312633
-3.30693e-08
-1.08131e-05
2.17256e-07
0.0121647
-1.40271e-07
6.84249e-05
1.48131e-06
-6.13741e-06
-0.00297292
4.47988e-07
-0.000504513
1.18028e-06
3.96424e-08
0.113782
-0.000327528
-4.20918e-06
-0.0255048
0.00659462
0.00917078
0.00143983
-5.56864e-07
-0.000129324
-0.00198703
0.00316932
3.39158e-05
-1.73426e-05
0.000133724
1.24235e-06
9.18697e-07
-0.0366837
0.000300032
8.13799e-06
-0.432361
1.33561e-05
0.462341
0.0799064
-0.0131826
-2.03571e-05
-0.00037807
0.00238625
1.89608e-06
-0.00165952
-0.0283883
2.72035e-08
9.54392e-07
1.25798e-06
0.000527495
-1.31465e-06
0.0082005
-8.42251e-05
-1.08346e-07
-0.000896314
1.16341e-06
-0.003995
3.58786e-06
7.88361e-07
-0.0275127
0.000133903
0.0322451
-7.2706e-07
2.39717e-05
-1.50536e-06
-1.62463e-06
-7.76837e-06
-1.78161e-06
0.012676
3.09887e-06
-0.0580172
0.0554211
-0.0014256
-0.0250085
-1.94648e-06
9.17353e-07
-4.84767e-06
-0.00604868
-0.153762
7.1833e-06
0.011103
-0.0834332
6.04305e-08
-4.82282e-08
-2.27774e-05
0.0758948
-0.0178805
8.91618e-06
-1.38529e-06
-3.93727e-06
-0.000473026
-1.97465e-05
2.64175e-05
-7.67323e-05
-7.15519e-06
4.12608e-07
1.08121e-06
-7.59045e-06
-3.08683e-06
-0.0068735
7.63938e-08
-0.000541196
0.0129727
6.62461e-05
-0.101334
-1.31531e-05
-6.79378e-05
3.98816e-06
0.00390248
1.79622e-06
-0.00027524
-0.00523796
0.0072834
-8.042e-08
4.4748e-07
1.59063e-06
-5.64368e-07
-1.03477e-06
-6.10505e-05
-0.00018138
-0.00442475
-0.000282954
-6.97654e-07
-0.00368672
-1.86088e-05
-1.50185e-05
-9.13241e-05
3.18079e-06
-0.00028777
0.0667047
2.75515e-07
0.000114297
-0.000184685
-7.61107e-05
8.07859e-07
4.0641e-09
9.77534e-07
-0.0169529
4.94453e-07
6.46351e-06
-0.000136682
-1.91403e-06
3.38514e-07
0.00120241
-0.0329484
-0.0015561
-0.158839
-0.000158333
0.0377863
-1.14448e-06
4.88238e-05
0.0171922
-6.45898e-05
-0.000922728
1.42606e-06
7.16753e-07
-2.9449e-07
-1.3297e-06
-0.000280107
9.11501e-07
-0.103474
-8.78526e-06
-0.0449047
-1.19376e-05
-1.73795e-05
-1.78863e-06
-0.000390147
-7.45348e-05
0.0315607
-0.00175535
1.67533e-06
-0.00572018
1.21653e-07
0.00746937
-8.40831e-06
-0.0142324
-1.45972e-05
-1.77093e-06
-1.1169e-07
-0.04457
-5.22759e-06
0.0239634
-0.0970562
-4.87639e-07
-7.0507e-05
7.0961e-07
0.000280431
0.0533942
9.30873e-07
-0.998487
-5.51965e-06
-0.0117917
-0.00150832
0.244538
4.84565e-07
5.42992e-07
-0.000539557
-7.37425e-07
-2.27991e-06
-7.03575e-06
-4.01708e-06
-0.000129635
6.43514e-07
-0.0035072
-6.76959e-06
-0.0352
0.00855131
0.257777
0.0488873
-0.124783
-0.0557067
0.415083
-1.68288e-07
-1.07969e-05
3.11724e-07
-2.00528e-06
9.8197e-08
-5.95787e-06
2.39067e-07
0.154602
-2.97029e-06
0.449955
3.27533e-07
-5.45207e-05
-7.29941e-05
-2.40925e-06
-0.000109632
6.7607e-08
1.87553e-05
-5.51712e-07
1.2878e-05
-0.0223637
0.00034372
-0.0477611
-7.85641e-07
-5.4528e-07
-5.18155e-06
-1.25117e-05
-0.317204
-7.91409e-08
-0.0127709
-8.30392e-07
-0.00906336
-3.39989e-05
2.50178e-07
-0.000299454
0.000746951
-3.68187e-08
0.0707762
0.0148369
-3.3406e-05
-0.00053036
-8.9308e-07
-0.00628818
-1.46583e-06
-1.20052e-05
-0.00903223
7.86496e-07
-2.9023e-09
-0.000865607
-0.0176006
0.000147248
0.332542
-0.239595
2.33007e-05
9.98128e-06
-3.94446e-06
0.244173
-3.27951e-07
-0.00112628
9.41337e-08
-0.0286251
-6.08574e-05
0.0685392
2.25374e-06
2.3317e-06
0.113208
1.87091e-07
0.000179552
-0.0118794
-1.34464e-05
-3.24569e-07
-0.001021
3.45034e-05
-1.43383e-05
0.000245978
-9.49932e-06
-0.0272555
-7.18673e-05
-0.000288091
-0.000100132
-3.64397e-06
-0.0333023
-9.84935e-06
0.000172251
1.30707e-07
0.00440375
-0.00865131
-1.29728e-06
-5.76337e-07
-2.94169e-06
-4.92731e-06
-1.34985e-05
2.006e-06
-4.44975e-06
2.24709e-08
2.59194e-06
2.84243e-07
-1.16561e-05
-0.000506011
-0.390842
0.0320644
-0.00080486
-4.15639e-06
0.0913494
1.70639e-07
0.0878692
-0.0577994
-0.181213
-4.88748e-07
-1.3557e-07
-7.27298e-07
2.70327e-07
-4.48294e-07
1.43408e-05
-6.7775e-07
-1.16228e-06
-3.85919e-07
0.0129466
0.0751272
-3.63422e-07
-0.0456253
1.31412e-07
1.66885e-06
-8.01624e-05
0.013859
-0.00033258
7.30076e-07
-0.013412
-3.963e-06
1.65396e-06
-0.0434718
-1.33414e-05
-0.715855
-3.10633e-08
0.0174071
3.73693e-07
-6.36368e-07
4.29484e-05
0.0905224
-8.55967e-07
0.000976253
0.00187989
-1.25034e-07
1.77671e-05
-5.15633e-07
-4.11573e-08
-0.000213528
-7.83702e-05
8.72842e-06
-0.0128421
0.0602597
0.0477202
-5.87843e-06
-3.69289e-06
-0.00708377
4.9135e-07
0.225478
2.35114e-05
-1.36058e-05
-1.60957e-06
0.157124
-0.136216
-0.023255
0.000290096
-0.0633487
-4.39321e-06
8.60422e-08
-9.25501e-05
-5.86741e-06
-1.10063e-07
0.0703438
-0.0119365
-8.06822e-07
-3.05875e-05
0.00369482
-1.73225e-07
1.10263e-07
-0.0434445
0.00491519
-1.92823e-06
2.76873e-08
-5.72731e-06
-2.97118e-07
6.65193e-07
0.000211014
-5.48155e-05
2.36417e-07
-0.118467
0.000166123
0.03163
-0.038967
0.00155946
0.00355024
-9.7042e-07
2.38198e-07
0.0174029
-0.0232908
0.0587253
-0.00292814
5.31243e-05
-2.55222e-06
3.08689e-07
0.000125933
0.0388756
0.000154308
-1.23355e-05
-0.000111586
-8.6701e-07
0.00699053
-0.000258382
0.000223554
-0.000284643
-0.0444922
-0.0224613
0.0869902
-0.0250497
3.89468e-06
-0.177058
7.2446e-08
1.63998e-05
0.000401565
0.0882042
5.45712e-07
9.18087e-06
6.07384e-06
0.466953
-1.75516e-05
-0.0563414
2.43036e-06
-0.000183781
0.0471181
7.13923e-07
7.14656e-05
-8.86601e-06
-1.74905e-07
-8.07955e-05
0.0400993
3.66579e-06
-6.26436e-07
-1.31384e-06
0.045438
-2.66888e-07
-1.45732e-05
-8.95809e-06
-1.04755e-05
-2.34068e-06
-9.88734e-05
-0.000308499
-1.15764e-05
-1.37132e-06
-0.00429247
0.011861
2.85538e-05
-0.03504
-3.39483e-08
-7.95803e-08
-0.159602
5.23082e-06
-1.65261e-05
-0.0270716
-0.000194059
1.23924e-05
-1.34672e-05
-2.29857e-05
0.00217257
-0.00897328
4.01836e-05
-0.0490497
-4.21269e-07
0.000423236
-0.175269
-0.00445784
-0.0851094
0.409326
-1.60298e-07
-1.39337e-06
-3.1094e-07
-2.35776e-06
-3.51512e-07
-0.0057759
7.71733e-07
2.05414e-05
-1.26454e-07
-0.000261468
0.00821488
-1.11376e-05
0.0258963
-0.0637851
-6.32647e-09
-0.000319949
-6.682e-05
-9.28365e-06
-7.04138e-07
-0.00444507
-0.000287887
-0.00413999
1.67129e-05
0.285241
-0.000253092
6.22405e-05
0.0356848
3.69137e-06
0.000239559
1.01295e-07
0.0596873
-6.3345e-07
2.85915e-07
0.000154342
-5.4477e-05
-2.71094e-06
-0.000159039
0.058766
1.02019e-07
-0.00476618
0.00432242
-2.16035e-06
2.25884e-07
0.000248432
-0.094022
-0.0776234
-1.28493e-06
-4.83603e-05
0.00119203
0.382687
-0.00859441
-3.85702e-08
-1.16463e-07
9.50886e-07
-5.50798e-07
6.32437e-06
-2.25508e-05
-0.0356163
-1.42942e-05
-3.96176e-06
0.0478596
0.000874473
-0.000705323
0.0136589
0.164105
-1.05707e-06
2.94462e-07
-1.11992e-07
-1.18135e-05
-0.000334205
-0.0160531
-0.0678795
-0.000365674
3.00371e-05
-0.000113177
-7.77724e-06
0.00221223
-2.83984e-06
-0.00104393
-9.73501e-07
-0.00948459
0.00933125
4.15905e-07
-1.33521e-06
1.33862e-05
6.34954e-05
0.0342975
-0.577583
0.000396917
-1.36211e-06
0.150684
6.33477e-07
-3.42425e-07
0.0383198
-0.0589412
-6.64353e-07
3.53837e-05
-0.00101971
1.87837e-05
7.04166e-07
7.86659e-07
2.39731e-07
-3.57952e-07
-3.81964e-07
1.64043e-06
-0.000186005
0.0123617
1.55724e-06
3.75789e-07
-3.39573e-05
-0.000160547
-1.74183e-06
5.50691e-05
-0.0159604
-0.000437811
-0.0781385
-1.57642e-05
8.52888e-07
0.00125776
-1.50525e-07
0.0580638
1.73962e-06
-0.000101589
-4.15464e-06
-1.66032e-07
0.0198447
3.68344e-06
-1.26812e-05
-4.68646e-07
0.148574
0.377876
0.00280143
-8.0698e-06
-3.82114e-08
0.555611
1.2223e-06
-1.41688e-06
-0.000893926
-0.0782486
9.48429e-06
-5.92527e-06
6.23889e-07
0.104126
-5.24194e-07
2.70383e-05
-2.75613e-06
7.93988e-07
-0.00109431
-5.7383e-07
-3.84742e-07
0.108977
-0.000255645
0.042867
0.00637318
-2.97391e-07
-9.73443e-06
6.21387e-07
-2.02426e-06
9.73746e-06
-1.49775e-06
-2.59311e-06
0.00218866
-1.21771e-07
0.000260089
0.000112885
-0.00018171
-3.75294e-07
-0.000267779
1.4262e-06
-0.0049562
-7.22299e-07
0.258297
-0.000425598
-1.31509e-06
-0.000147175
-6.55188e-06
-8.38596e-06
-2.53995e-06
0.00025395
1.02934e-07
7.75666e-07
0.0134151
8.95576e-06
0.000256352
5.72826e-07
-5.44632e-06
-4.57157e-05
0.000990127
-5.54348e-07
0.0180799
6.11747e-05
-1.685e-06
-1.92732e-07
3.17291e-07
5.31362e-05
-0.013121
-0.140818
-0.000489962
0.0018451
0.000121192
-0.000266759
-2.01794e-05
0.0064374
-2.17711e-07
5.1662e-07
7.95684e-06
-0.0166077
6.64968e-07
0.0043523
5.11595e-07
5.01785e-07
-0.000918882
0.0761858
-0.00947688
-0.0742771
4.73246e-06
-0.000943717
-0.0242929
5.39595e-07
0.00611417
1.76087e-07
5.61746e-07
0.0977065
-3.43359e-07
0.00511346
-0.100971
-8.08861e-07
6.76583e-08
1.96851e-06
-0.022189
8.31944e-07
8.64725e-07
-0.000539136
-3.73267e-07
1.60303e-07
5.80884e-05
-2.02802e-06
-0.000109352
1.64029e-07
-1.66583e-05
-2.53591e-07
0.451929
0.00159642
-2.16686e-07
-2.1151e-07
-1.99727e-06
-2.87638e-07
-5.29613e-06
-9.99513e-06
3.86366e-06
-3.17382e-08
-2.88077e-07
-1.00169e-05
-1.0997e-06
0.00133965
4.3735e-08
-0.000347304
-2.35687e-06
0.000805561
-7.60966e-07
-2.377e-06
-1.5252e-06
-1.61157e-07
1.68621e-06
-3.88292e-05
-1.40715e-05
0.0735761
0.00805487
-0.0365182
0.015198
-0.000599541
0.0423111
2.08513e-07
-9.87206e-07
0.250855
0.246688
-5.99218e-05
0.00245838
9.97579e-07
0.000485148
0.153742
-3.01265e-06
-1.88449e-05
0.138502
-0.0364053
5.92992e-07
-0.000127326
-4.40026e-07
0.0402237
-3.16226e-06
-0.0230411
-0.0900518
-2.02531e-06
0.00205262
0.10075
1.88026e-06
0.0244656
0.0124502
-7.0718e-06
-3.09167e-07
-0.0120834
-0.00318031
1.64415e-07
-3.69451e-05
7.61196e-07
-0.000312873
0.00107102
-2.57801e-06
-9.79472e-07
0.0663837
-2.2623e-06
-7.54893e-08
-8.93876e-08
-7.15674e-07
0.0368968
-0.000105463
-4.06687e-06
-0.0101532
-2.60562e-07
-0.000208004
-1.29569e-06
-0.0170014
2.00752e-05
0.0513848
-1.59117e-07
-8.42656e-06
4.5965e-07
1.14118e-06
-9.87265e-06
-2.06837e-06
0.017861
-8.02531e-06
-8.77006e-07
6.95134e-08
0.00612911
-3.24785e-07
0.259978
0.0826433
-0.0671907
-5.03012e-06
-1.86061e-06
-6.20574e-07
0.227315
-3.97027e-06
0.0434892
7.24688e-07
-0.368881
-1.17528e-05
3.44478e-05
0.0871941
-1.44412e-06
2.10771e-06
-0.00014234
-0.00140483
0.00865257
4.52083e-06
-0.0207671
-0.0825113
8.90803e-07
-0.00126914
7.50507e-07
-3.02436e-05
-0.379497
-1.96586e-05
0.000310345
-0.0118732
-7.54244e-06
-0.000189072
-5.42537e-07
0.14329
1.09421e-07
0.306757
-5.63748e-07
-0.00366248
1.16808e-08
-2.08632e-07
-1.93727e-05
-0.0689927
-1.7894e-06
0.00591677
-0.00032568
0.131403
-8.85935e-07
2.03235e-05
-0.0422278
0.0472897
0.166829
0.000222253
-3.96831e-07
5.28584e-05
-0.219869
-3.27462e-05
-0.3624
2.41442e-06
0.000771154
-0.039898
-2.12633e-06
-0.00344495
-1.63077e-07
0.00232903
0.0942788
-7.41635e-07
2.1779e-05
0.236134
-0.0873537
-3.21331e-07
1.46204e-06
-8.05113e-07
-6.47658e-07
-0.0243406
-2.85667e-06
0.00527934
-2.1533e-06
8.3246e-06
0.000802632
0.00581858
0.370057
-0.0906393
-1.12101e-07
1.10013e-07
0.00387688
0.155832
0.0665426
-0.0948737
-0.000261021
-3.40745e-05
0.000338573
-0.0457539
-0.117071
-0.0955115
-3.1784e-07
0.000383705
7.79661e-06
-1.24446e-05
-1.64112e-06
-1.7538e-05
-1.23419e-05
-0.00699886
-0.0635373
1.10736e-05
0.0574733
-0.0108892
0.000244278
2.49934e-09
1.47996e-09
-0.000666433
-1.73933e-06
-0.0313032
9.39004e-06
0.000192988
-0.00699473
0.00875794
-2.63816e-07
-5.77885e-06
-9.01037e-06
-1.51335e-06
-0.00849553
0.000253297
-0.0200701
2.33177e-06
0.00140803
0.256426
0.00185638
-7.91677e-07
1.62813e-05
1.78912e-05
-0.00190645
-0.000492164
-0.000398697
-0.0297064
-0.0935116
1.21692e-06
1.04967e-05
-1.9363e-05
-0.000703629
0.00699568
8.2176e-07
-2.51306e-07
-2.33601e-06
0.187702
-0.021783
1.89119e-06
-0.000142891
-0.00883399
-3.7121e-07
0.00730832
-2.55931e-05
-0.021258
-4.6645e-05
-0.116842
0.0340505
-3.26414e-06
-3.719e-05
-0.228411
2.22921e-07
0.000387014
-0.0434097
-1.21779e-07
-0.00204858
-5.47485e-05
-0.000250591
0.132766
-0.023063
-2.77185e-07
0.117516
-0.0311407
-1.23601e-07
0.000515921
0.000159326
-0.000396876
0.00540848
0.134478
-0.0384966
0.00105528
-0.0679188
1.33833e-05
-0.000308745
4.21198e-07
-7.42057e-07
-1.96386e-06
7.28199e-08
0.0662344
-0.00813029
2.41426e-06
0.000609729
0.00132834
1.94701e-07
-0.0968826
-0.0139654
-1.71887e-05
-3.37192e-06
2.70915e-07
-1.18583e-05
-0.000122111
1.58104e-07
0.0724755
-7.68773e-06
0.000231378
-6.52918e-05
-7.94272e-05
-0.000656361
-0.000120458
0.0373277
-1.66976e-06
-1.30247e-05
2.8074e-06
1.34935e-06
-0.0381372
-0.00010289
1.88041e-05
0.273434
-4.93217e-06
9.56873e-07
4.6502e-05
8.27148e-07
-5.06772e-06
-0.000616415
4.36399e-06
0.00134396
0.0294047
0.15273
-1.18875e-06
0.127393
-8.75095e-07
-0.0983012
-2.74599e-07
-0.00248279
0.157534
-4.65524e-07
0.0966499
0.00408476
6.08718e-05
-6.97426e-07
1.19356e-06
2.54147e-05
0.0476921
-5.27794e-07
-7.07162e-08
1.5528e-06
3.61687e-06
0.00125476
-9.1888e-07
6.27554e-06
-2.26214e-08
1.17755e-06
-0.258335
-2.67681e-06
2.09612e-05
-0.00079009
0.00332706
-0.0308068
0.420566
1.38634e-07
-3.24306e-06
-0.0206187
-1.96198e-06
-0.000147377
-1.14378e-06
-0.00870305
4.1806e-06
-1.11371e-05
0.000435506
0.0224721
1.10071e-07
2.54009e-07
-2.09508e-07
-8.53738e-05
0.0245253
0.000961787
-3.80658e-07
-2.05186e-05
-3.48658e-07
-0.00893831
1.08754e-07
0.113622
-0.000248123
-5.13124e-06
0.00981045
-0.000110641
-0.0266995
-3.00651e-06
-2.69992e-07
8.06703e-06
0.000228236
-0.000617622
-7.01818e-10
-4.69265e-06
-6.6626e-07
0.0164494
-4.64793e-07
-7.37494e-07
-0.0287306
-1.31231e-05
-0.000902532
1.88323e-06
5.25005e-08
3.52952e-06
0.122024
-7.64542e-06
0.156004
0.00652691
-3.55288e-07
-0.538893
-3.85769e-06
0.000935957
-7.85192e-05
-7.79137e-07
1.04752e-06
-1.08777e-07
1.36706e-07
0.423508
-0.00014765
-0.00336668
-0.0261137
6.44486e-08
0.00338287
-1.66485e-05
0.595293
1.27665e-07
-0.22527
-0.0339826
0.0273779
-8.28733e-08
2.08337e-06
8.70425e-08
0.327394
-0.0438494
0.000129104
-1.68011e-07
-5.77457e-06
0.20251
1.26785e-07
2.1691e-06
-1.48661e-05
0.000719156
0.190352
-1.80733e-09
0.0370454
-0.000116806
5.94721e-08
0.0304919
-0.000245278
-0.54586
0.518516
5.02696e-05
-4.65629e-05
-8.68012e-07
-3.01514e-05
-5.48335e-06
0.00299395
-6.35267e-05
3.47132e-06
6.36054e-08
-0.00480096
0.0717953
-4.00787e-07
-0.000439749
0.327613
-0.293925
4.057e-06
-1.16888e-08
0.0194314
0.134604
0.000429943
-1.96585e-06
0.103413
-0.000292338
-6.03049e-07
0.0121872
2.18043e-05
2.07414e-06
0.0441292
-4.14307e-06
-0.000508169
-1.39927e-06
3.69964e-07
-6.34397e-06
-2.8272e-07
-0.0212308
-4.31211e-07
-2.17935e-07
3.76636e-05
-1.21484e-05
-3.92962e-05
-0.00229648
-2.04972e-06
-3.80954e-07
-7.55318e-06
-7.36031e-06
0.0110366
0.00157274
0.456297
0.323348
-0.000834795
-0.00961501
0.000800656
0.0171675
0.232508
-0.0101789
5.56577e-07
-1.25249e-05
2.19347e-07
9.82455e-07
2.16334e-06
-1.00797e-05
0.00337704
-0.0002701
0.000138172
8.25925e-08
1.25825e-07
-0.000248857
2.99463e-07
-2.82049e-06
-1.16532e-06
-0.0104496
-1.90686e-06
-0.0270598
-1.09811e-06
0.0119633
-5.76417e-06
-1.07243e-05
6.11687e-06
-9.81431e-05
-9.95047e-07
0.0005498
0.0112211
-7.47099e-05
0.00416411
0.0195975
2.97832e-06
8.51169e-06
0.0569449
0.000800771
-3.308e-06
1.89992e-06
-2.75941e-07
-0.0182335
7.25293e-07
-0.000355358
0.000954019
0.000352708
0.0482358
0.0296323
-0.000310303
-0.00903892
-2.72339e-06
-9.73905e-08
0.0767615
0.0796903
-1.54148e-06
-7.05698e-07
0.161269
-3.02798e-07
0.0067578
-1.91664e-06
3.76169e-08
-7.20469e-06
2.7613e-07
0.000286282
0.0133251
0.00543007
1.18647e-06
9.5681e-08
-0.000772631
-9.45128e-07
-0.000162002
1.13376e-07
4.1221e-05
-0.000102639
-3.31928e-06
2.00188e-06
-4.40412e-07
-0.00136312
-0.00735043
0.00220096
0.00709046
6.92088e-06
0.0532102
-0.000474399
0.00040868
-0.00676281
-1.01842e-06
-0.0181477
-1.10262e-06
-0.00841054
0.0920873
-0.0321333
-0.0408461
1.81355e-06
1.5565e-06
0.0742619
-4.61407e-06
-0.00997885
-1.42272e-06
4.5374e-08
-1.03186e-05
4.74624e-07
-2.01517e-05
0.00138373
-0.0110172
-0.163948
5.19336e-06
2.40448e-05
-8.42434e-06
-4.67007e-06
-9.87659e-07
0.000123013
-0.000808965
0.299826
-7.14587e-05
5.19209e-07
-7.70856e-07
3.85131e-06
-0.00156275
-3.0369e-05
6.65596e-06
6.99738e-06
-0.00185717
-2.28235e-05
0.000175998
-0.000179154
0.00583631
1.68174e-05
-2.27053e-05
2.07436e-07
-1.07699e-05
0.111295
-0.0149462
3.4529e-05
1.04209e-06
0.0368949
-3.47331e-06
-1.74124e-06
5.41765e-05
0.0122838
-0.17569
6.42941e-05
-2.70589e-07
-0.0920499
-4.40778e-06
-4.01844e-07
-2.05779e-06
0.0718889
-0.337022
2.91665e-06
0.0337083
-0.0379565
-6.3666e-08
-0.000311057
3.17831e-05
-0.0221965
1.63136e-05
-0.0450629
-2.57007e-06
-0.0355055
-9.98955e-05
-0.0102257
-3.74412e-06
1.3148e-06
-0.00987757
-6.35309e-07
-7.39863e-06
0.132562
0.061211
0.000277541
0.212062
-8.87419e-06
1.10818e-06
0.0356088
-1.82612e-06
-3.57931e-07
-6.44252e-07
3.872e-05
6.99269e-08
-0.000134016
-3.99955e-08
-0.144436
0.38698
1.98372e-07
-0.000682992
-2.94677e-07
-0.00381823
0.00183895
-1.80009e-07
2.71735e-07
-8.68385e-06
-0.0207745
0.00417108
0.000216903
0.0114539
-0.00956548
-0.206656
-7.71416e-06
0.0699981
-0.038147
-0.00695495
0.502585
-1.29524e-06
-2.94548e-06
-1.03368e-06
-8.55919e-06
-3.26852e-07
-2.43446e-05
0.00405841
-0.000148258
0.00822349
-1.41066
-0.0348123
0.25474
-0.0369852
-6.13856e-05
-0.03038
0.000498674
-0.000495257
-2.2368e-07
-5.24777e-06
-0.000350733
0.00881612
-1.63573e-05
0.0190098
-0.0178225
6.46033e-07
2.13186e-07
2.30138e-06
-3.78498e-05
-3.85843e-06
0.000299562
-0.011323
-1.11919e-07
-2.43697e-08
5.71703e-07
-8.38954e-07
-0.000380686
0.0088652
5.78466e-05
0.111913
0.00013657
1.7866e-08
-0.0012377
-0.000875936
1.1415e-06
0.293055
0.518749
0.253642
0.12727
0.0028078
-3.72609e-06
0.202821
0.00333415
0.000542687
0.0653282
8.6473e-07
-1.80152e-05
-2.87795e-06
-4.68229e-06
0.00191027
0.000212733
3.06039e-07
9.88491e-06
-0.00876477
-0.00373513
-1.49068e-06
-0.00030518
-0.031684
-0.0322629
-4.51044e-07
2.14671e-05
0.00091615
-1.69406e-07
3.3199e-08
0.107578
1.26763e-07
-0.00484958
0.00251657
0.0141236
-9.35852e-07
-0.000802979
-0.00309281
-1.28407e-06
-4.65736e-07
0.158331
0.0735108
-8.5391e-06
-0.000128008
0.00422318
0.00243737
-0.043807
0.0372887
1.1169e-05
-0.00582655
-0.0160337
-3.55711e-06
-3.44196e-08
0.00642483
-2.12073e-07
9.56788e-07
0.00175538
2.88631e-05
0.000468386
-3.67958e-08
-5.7141e-05
-1.73025e-06
-1.56435e-07
4.37833e-07
7.27825e-07
0.0382241
-6.47875e-07
0.0718332
0.00999539
-7.53906e-05
-7.48101e-05
0.0638342
-0.0176289
0.0473443
1.35899e-05
-7.63338e-07
-1.82336e-05
1.0337e-05
0.00479094
0.104074
-4.82597e-08
0.0458532
-0.00509798
1.02572e-05
-0.000918081
-6.35125e-05
-0.000936161
-0.000837526
1.06757e-06
-0.000604185
0.000642671
0.000536377
0.001729
0.000210507
8.70427e-05
5.00713e-05
-2.01933e-07
-1.6012e-06
-0.000894611
-5.44315e-07
0.0396676
-0.0247728
-0.00432383
0.00622358
-1.88164e-07
1.1957e-06
-0.0726251
-0.0482224
5.98244e-07
-2.72357e-05
-0.000310519
0.170023
0.388465
-2.11097e-06
-5.89136e-05
5.53072e-06
0.412953
-0.0114277
-8.16262e-06
0.0292593
-0.000380218
-0.001227
-0.0439806
0.000694181
-0.163253
-0.0340062
5.03038e-07
-0.00015089
-0.0140018
-9.36218e-06
-5.6176e-05
-0.000272619
-2.93686e-05
-1.5107e-06
-0.0485383
-0.100734
1.18157e-06
2.31122e-07
0.166472
0.398777
-9.20207e-05
-3.66162e-06
0.0124348
0.000855076
-0.016775
0.00358089
2.04605e-07
1.10858e-07
6.29801e-07
-1.3915e-07
-0.0463261
0.236391
0.00839856
-0.000710355
0.110431
-0.0811257
-2.49334e-07
-2.7803e-07
-0.00507724
1.47278e-06
-0.0362784
2.32993e-09
-0.0427125
7.81635e-07
-6.81254e-06
0.403687
-4.58486e-07
-0.00121755
0.260197
-2.53488e-06
-1.9203e-05
1.04723e-06
0.00363381
0.00319245
-0.00112116
-0.00926801
4.15105e-06
1.93238e-06
-5.16591e-06
-0.000131906
-0.00639592
0.163685
-0.000368048
0.00610329
-0.00152868
-0.0660071
-0.00034716
1.24157e-06
-2.65846e-07
-2.49749e-07
0.00421687
0.00339278
0.0505356
-2.29292e-05
-0.00181726
-1.59055e-06
0.0097544
-0.757789
-0.197165
-3.10281e-07
1.56825e-06
2.88556e-07
-0.0032039
-0.000206358
-0.156725
-0.00368735
-0.00143213
0.0508842
-4.54209e-07
-1.088e-05
0.00172607
0.0194278
0.43077
-5.9962e-07
-0.00159169
1.90276e-06
4.47385e-06
-0.000439723
0.40082
0.192334
2.81979e-06
-0.000286044
0.000818992
0.296105
0.0108063
-0.0361865
0.0187175
-1.24475e-06
0.000163956
5.1237e-07
-0.00168267
-6.12347e-07
-0.000453785
7.49947e-06
6.91903e-05
0.015091
0.303273
4.08212e-06
-0.00420796
-0.0149286
0.000813801
-5.7361e-06
0.0682111
0.000490216
2.40694e-06
9.2816e-06
0.00885743
2.87878e-06
-0.000561415
0.303294
-0.218957
-0.0160036
3.53079e-06
-0.0254648
0.0130416
0.45111
-0.0124043
-2.73699e-06
-0.001309
-0.00120612
-0.0315608
0.00108981
4.05392e-07
0.458808
-0.00102705
-0.0821526
1.54453e-05
-0.69677
0.146806
0.354391
-1.67275e-05
0.0376061
-1.52781e-06
0.00568892
0.00104698
0.0349884
0.00266938
-3.33182e-07
7.6339e-07
-0.000141279
-0.000681514
0.000955543
5.1819e-07
-9.75762e-05
-0.00015897
-0.0420946
0.0056622
-0.0128598
8.98721e-06
-0.00879789
4.74699e-05
0.268951
5.67075e-07
-0.00559987
-0.18573
3.56784e-06
-0.000214708
-5.71843e-07
9.8525e-07
1.28199e-07
-0.00652317
3.22642e-07
-9.6673e-07
-0.036725
0.129661
-1.81889e-07
-0.00434535
-1.85777e-07
-4.97304e-06
-8.57582e-07
-1.12276e-06
-3.88535e-07
0.216491
-0.043469
4.41056e-07
-0.741195
-0.000403276
-0.000157429
-0.172769
-0.000787283
1.00774e-05
-4.84413e-05
-2.59258e-07
-0.00175304
-7.30214e-05
-0.00105891
2.94588e-06
0.0361961
0.416646
0.000105688
-0.0750026
-0.00730889
5.51752e-11
0.00600904
8.47851e-05
-9.65703e-05
0.00251727
-1.71631e-06
0.001332
0.000422844
6.91095e-08
0.0652303
-1.0752e-08
-0.0027963
0.000229094
0.0987381
0.00357474
0.00257162
-0.0380647
-2.72082e-06
-2.5497e-07
-0.00033307
-3.61017e-06
2.58126e-07
1.39369e-07
1.52816e-05
-1.47001e-06
-4.2189e-07
-3.65963e-06
5.13189e-05
-3.15082e-06
9.8061e-06
-1.13751e-06
0.000107546
0.00021263
-1.80828e-06
0.00701398
2.10432e-07
-8.28057e-07
-0.00093196
-0.000122835
3.77074e-07
-1.11001e-06
-1.21773
-7.77864e-06
-0.00206689
-7.66836e-06
0.00127237
-4.3326e-07
-3.30453e-06
-0.00444118
-0.027014
-0.000485229
8.25489e-05
2.80612e-07
-0.0214705
-4.98566e-08
-1.68422e-07
-0.000593927
-2.20971e-06
0.00152153
-0.0151001
-0.00120305
-0.0061828
-5.2501e-05
-0.00458689
3.18803e-07
-4.29617e-07