/*--------------------------------*- C++ -*----------------------------------*\
| =========                 |                                                 |
| \\      /  F ield         | OpenFOAM: The Open Source CFD Toolbox           |
|  \\    /   O peration     | Version:  v2012                                 |
|   \\  /    A nd           | Website:  www.openfoam.com                      |
|    \\/     M anipulation  |                                                 |
\*---------------------------------------------------------------------------*/
FoamFile
{
    version     2.0;
    format      ascii;
    class       volScalarField;
    location    "600";
    object      nut;
}
// * * * * * * * * * * * * * * * * * * * * * * * * * * * * * * * * * * * * * //

dimensions      [0 2 -1 0 0 0 0];


internalField   nonuniform List<scalar> 
13851
(
0.0065728
0.0180112
0.00170763
0.0066301
0.00242328
0.00391389
0.00680327
0.00213869
0.00674292
0.00112266
0.0107223
0.0142892
0.00697088
0.00562301
0.00673116
0.00276941
0.00383268
0.00572276
0.00233004
0.00673837
0.00665888
0.00191004
0.00686063
0.00684301
0.00686979
0.001965
0.00342868
0.000242145
0.00660692
0.00643908
0.0040352
0.0035911
0.00171944
0.0097749
0.00684302
0.00112304
0.00133422
0.000620858
0.00134048
0.0106329
0.00683534
0.00672804
0.00188131
0.0117027
0.0130837
0.00402564
0.0125651
0.0146837
0.00330242
0.00682113
0.00222105
0.00146988
0.00298834
0.00676979
0.00684178
0.00673232
0.00683746
0.00661954
0.00648185
0.00682625
0.000382887
0.00807277
0.00320782
0.0021126
0.00192596
0.00629108
0.00330315
0.0119204
0.00245392
0.00575636
0.00221166
0.00649622
0.0165649
0.00677449
0.00672618
0.00680229
0.00203892
0.00342374
0.00233871
0.00277207
0.00625031
0.0125146
0.00675378
0.00261449
0.00331779
0.0135924
0.00450344
0.0120276
0.00327805
0.00682789
0.00111007
0.00586964
0.0118627
0.00312335
0.00383085
0.00684837
0.00236566
0.0120319
0.0073757
0.00684959
0.00370615
0.00231902
0.00679607
0.00287464
0.0067987
0.00463751
0.00230197
0.00670054
0.00904813
0.00383901
0.00683628
0.00682945
0.00584957
0.00680096
0.00683506
0.0047596
0.0121947
0.0066964
0.006867
0.00687506
0.00178514
0.0031042
0.00728888
0.00843853
0.0137795
0.00675764
0.015271
0.00220366
0.00668949
0.0014334
0.00682861
0.00671346
0.003365
0.00675011
0.00365523
0.00674046
0.00669691
0.00612787
0.0130434
0.0149638
0.00441972
0.00684034
0.00671979
0.00683009
0.00479264
0.0117531
0.00581901
0.00140046
0.00679763
0.0141005
0.00225363
0.00685295
0.00465195
0.00685017
0.00424417
0.00541676
0.00678839
0.00664435
0.00147754
0.0022516
0.00677647
0.00299129
0.00640346
0.00671274
0.00579385
0.0067821
0.00554003
0.00247209
0.00671072
0.00673559
0.00238801
0.00670244
0.00679274
0.0146758
0.0067101
0.0129923
0.00230449
0.00669763
0.00221906
0.00671405
0.00351868
0.00720792
0.00674372
0.00187466
0.00673299
0.00686724
0.0062543
0.00680127
0.00216523
0.00131151
0.0118543
0.00442351
0.0068078
0.00244563
0.0094593
0.0050106
0.00674662
0.0119094
0.00672563
0.00680483
0.00675404
0.00424118
0.00688234
0.00675759
0.00132617
0.00674687
0.0103403
0.0037673
0.0101977
0.00673755
0.0125576
0.00680924
0.0117282
0.00670058
0.00681571
0.00961287
0.00299038
0.00555986
0.0067205
0.0108268
0.00371559
0.00605078
0.0121298
0.00151653
0.0136804
0.00686024
0.00267549
0.00680898
0.00730441
0.00670435
0.00212699
0.00259762
0.00670049
0.00680744
0.00215738
0.00412769
0.00988749
0.00182885
0.00682955
0.00676009
0.00404648
0.00813917
0.00682099
0.00130175
0.00680824
0.0135326
0.00230669
0.0120667
0.00540084
0.00387148
0.00605922
0.00729996
0.0068338
0.005413
0.00229459
0.00313713
0.00141306
0.00672307
0.000242468
0.00673515
0.00681662
0.00591103
0.0181986
0.00686111
0.00544742
0.00475145
0.00683809
0.00292512
0.0117101
0.00684489
0.00605891
0.00436196
0.00957533
0.00230778
0.00306557
0.00671656
0.0125837
0.00563604
0.0138181
0.0113206
0.00681869
0.00672579
0.0067952
0.00240328
0.0175381
0.0109718
0.00676942
0.00672229
0.0091023
0.0125899
0.00130821
0.00654248
0.00682872
0.00244033
0.0126501
0.00471143
0.0058905
0.0135133
0.00672074
0.0135691
0.00273746
0.00398242
0.0136742
0.00686309
0.00450378
0.0129634
0.00676322
0.00225778
0.00273037
0.00658197
0.0128664
0.00571674
0.00684156
0.0122625
0.00674138
0.00413699
0.00673685
0.013457
0.00163949
0.00672231
0.00223863
0.00672243
0.00133756
0.00586019
0.00686419
0.00684945
0.00167326
0.00291653
0.00464527
0.00672162
0.00686395
0.0068478
0.011577
0.00274566
0.00804124
0.00472452
0.0133196
0.0115094
0.00672694
0.00251541
0.00130648
0.00566899
0.00325529
0.00169585
0.00202582
0.00638968
0.0154128
0.0132322
0.00673791
0.00706957
0.00696989
0.00260362
0.00484258
0.00258829
0.00752923
0.00680152
0.0150934
0.00685
0.00672119
0.00679068
0.00670233
0.00676592
0.0131522
0.0124679
0.00679897
0.00246668
0.00676433
0.0140844
0.00243881
0.0130184
0.00788828
0.00680725
0.00348824
0.0028767
0.0135535
0.00680855
0.0066969
0.00599542
0.00380206
0.00676516
0.0117896
0.00568485
0.0016066
0.00432394
0.00923844
0.00960972
0.00626035
0.00671687
0.00681418
0.00523299
0.00235387
0.00648757
0.00230164
0.0134579
0.0130408
0.00676704
0.00673785
0.00683522
0.00422889
0.00240746
0.0122153
0.00602176
0.0027871
0.0068424
0.0104918
0.00671989
0.00257257
0.00632626
0.00679161
0.00680624
0.00675769
0.00677946
0.00216704
0.00359146
0.0030978
0.00568802
0.00223007
0.00522124
0.00659763
0.0042199
0.00316776
0.00395789
0.00945015
0.00669615
0.00675239
0.00684983
0.000888006
0.00921363
0.00157738
0.00531423
0.00175311
0.00879388
0.00465559
0.00690452
0.00195582
0.00680125
0.00765294
0.00681357
0.00658857
0.0111778
0.0015832
0.00884371
0.0066939
0.00489398
0.01096
0.00346336
0.00670951
0.00276023
0.00249609
0.0069418
0.00670891
0.00684684
0.00214742
0.00161844
0.00482661
0.0179526
0.00685881
0.00685782
0.00459938
0.00565824
0.00671873
0.017138
0.00671595
0.00657719
0.00671605
0.00424401
0.00671225
0.00672779
0.00672219
0.0119801
0.00675771
0.00242822
0.00672821
0.00587344
0.00579998
0.00679836
0.00684064
0.00680171
0.00679836
0.00406476
0.00683925
0.00427337
0.00673994
0.0068621
0.00480883
0.00790991
0.00675275
0.00579217
0.00376558
0.00870389
0.00382584
0.0068568
0.0124919
0.00681439
0.00242411
0.0068104
0.008096
0.00672969
0.00253697
0.0014688
0.0067301
0.00582593
0.00986902
0.00200637
0.0114562
0.00686958
0.0058406
0.00686809
0.00670741
0.00672105
0.00678196
0.00646547
0.00221923
0.00150945
0.00169988
0.00320665
0.00678758
0.0096437
0.00935829
0.00336357
0.00256899
0.00839688
0.00723646
0.0123343
0.00681617
0.00823014
0.00269836
0.00382571
0.00573588
0.00579311
0.0120277
0.00505602
0.0032823
0.0116609
0.0100648
0.00660934
0.0104606
0.00751022
0.00670318
0.00536493
0.00219138
0.00517082
0.00563871
0.00673361
0.00678076
0.00679405
0.0022037
0.00441835
0.0113736
0.0180989
0.00673721
0.00386985
0.00865527
0.00422622
0.010103
0.00242399
0.00670327
0.00674784
0.00772982
0.0108663
0.00405022
0.00216495
0.00115059
0.00673036
0.00481862
0.00792443
0.000275399
0.00170816
0.00725191
0.00759458
0.00682199
0.00679356
0.0192244
0.0130146
0.00154655
0.00246946
0.00324606
0.00671029
0.00673886
0.00763499
0.00672097
0.00561961
0.00671153
0.00671135
0.00798175
0.00219795
0.00555991
0.00671985
0.0106566
0.0119158
0.00672104
0.00682341
0.00685422
0.0068049
0.0040027
0.0120746
0.0123642
0.0052228
0.00576652
0.00225156
0.00306301
0.00872625
0.00633424
0.00247648
0.00670342
0.00673289
0.00252524
0.0113679
0.0162974
0.00212525
0.0028314
0.0067302
0.00307484
0.0067573
0.0109439
0.00227748
0.00673692
0.00473414
0.00670721
0.00329207
0.00150758
0.00681833
0.00679509
0.0024162
0.0068335
0.0023892
0.00107772
0.00163024
0.00324682
0.00149217
0.00672599
0.00246609
0.00594673
0.00562934
0.00682083
0.0068496
0.00846106
0.00654465
0.00358849
0.0133124
0.00720752
0.0189072
0.00671729
0.00738992
0.00680771
0.00671248
0.00673127
0.00671219
0.00661982
0.00557461
0.00447051
0.00671196
0.0114499
0.00143246
0.0116813
0.00676599
0.0067545
0.00685166
0.00130527
0.00971175
0.0020967
0.00301552
0.00680917
0.00687362
0.00680841
0.00680986
0.000252635
0.0164124
0.00682697
0.00670911
0.00678425
0.00680512
0.00272431
0.00538895
0.00295692
0.0114938
0.00601395
0.00678844
0.00152762
0.00339346
0.00245206
0.0140408
0.00682968
0.00586904
0.00213704
0.00582654
0.0112335
0.00674911
0.0106617
0.0068235
0.0021433
0.0104482
0.00681821
0.00665876
0.00325099
0.00670965
0.00374645
0.0145224
0.0123489
0.00231098
0.00421042
0.00983922
0.00670354
0.00675988
0.00618941
0.00114023
0.00391137
0.0133106
0.00675176
0.00683734
0.0067035
0.00736596
0.00345918
0.00615519
0.00684123
0.00697373
0.00365968
0.00684682
0.00260958
0.00302399
0.0111465
0.00673786
0.00682307
0.00336792
0.00161344
0.00127648
0.00677542
0.00967451
0.00675184
0.00837481
0.00147447
0.0015262
0.00430808
0.00616512
0.00615242
0.00675642
0.00142739
0.00685149
0.00688336
0.00668587
0.00672383
0.00299068
0.00264469
0.0016948
0.00562917
0.0051866
0.00673404
0.0176657
0.00685827
0.00615698
0.00675867
0.00677739
0.00677563
0.0129066
0.00677254
0.00670174
0.00851736
0.00680088
0.00559942
0.00682555
0.00674247
0.00208542
0.00301999
0.012047
0.00676689
0.00504407
0.011893
0.00683531
0.0124026
0.00226963
0.00671931
0.00558076
0.00225607
0.00456418
0.00457696
0.0067538
0.00670194
0.0104431
0.00136777
0.00212884
0.00596701
0.00545517
0.00680036
0.00676243
0.00219146
0.00879412
0.00221422
0.0171758
0.00681572
0.00238633
0.00217621
0.0130261
0.00618622
0.0133232
0.00109412
0.00680205
0.00236386
0.00267192
0.0109363
0.0114227
0.0124603
0.011816
0.0022025
0.00672078
0.00523975
0.00698321
0.0020449
0.00684242
0.00685749
0.00226621
0.0137712
0.00672532
0.00284572
0.00674614
0.00679019
0.00428362
0.00340163
0.0112407
0.0067132
0.00672196
0.00243697
0.00026474
0.00165212
0.00658277
0.0100223
0.0007387
0.011012
0.00237464
0.00239388
0.006842
0.00680525
0.0156898
0.00221033
0.00351719
0.00590234
0.00250089
0.0022136
0.010687
0.00698786
0.00676418
0.00243986
0.00672052
0.00305851
0.00667752
0.0152635
0.00326876
0.0121442
0.00672045
0.00202537
0.00675827
0.001042
0.00242829
0.00249049
0.0116149
0.00252694
0.00410155
0.00683784
0.00223694
0.013656
0.00272428
0.00592742
0.00244389
0.00685664
0.0108329
0.0132994
0.00685589
0.0131369
0.00357145
0.0066169
0.0108815
0.00595413
0.00683752
0.0105885
0.00683867
0.00707983
0.0103084
0.00676354
0.00396831
0.00124761
0.0109579
0.0147722
0.00682984
0.0068051
0.0144615
0.0103026
0.00170391
0.00472704
0.00667562
0.0130492
0.00628194
0.00213704
0.00670248
0.00195148
0.00670941
0.00688161
0.00777854
0.0068359
0.00761389
0.00975956
0.00679816
0.0066881
0.0068423
0.00667489
0.00297411
0.00952175
0.00274455
0.0129207
0.00675459
0.00278658
0.00683157
0.00671004
0.00685831
0.00679445
0.00607982
0.006756
0.00257983
0.00676964
0.00442912
0.00857065
0.00159219
0.00687595
0.0200028
0.00186124
0.00186092
0.00237171
0.0025475
0.00230345
0.00283775
0.00432923
0.0152403
0.018599
0.00367085
0.00213635
0.0134978
0.0068332
0.0021465
0.00238746
0.0143874
0.00680175
0.0154302
0.0067559
0.00677039
0.00765166
0.0067886
0.00484906
0.00410281
0.00672137
0.00498319
0.0067211
0.00672195
0.00677986
0.00683359
7.81399e-05
0.00676763
0.000184883
0.00652132
0.00144634
0.0128948
0.00679786
0.00685793
0.00671906
0.00680155
0.0067177
0.00239847
0.00563322
0.00677885
0.00683406
0.0068543
0.00576927
0.0166363
0.00288911
0.0122706
0.000430584
0.0067397
0.0102762
0.00285895
0.00676159
0.0107938
0.00477318
0.0103755
0.00673069
0.0123544
0.0102767
0.00798069
0.00669997
0.00727006
0.00302224
0.00349948
0.00676002
0.00674763
0.0116176
0.00280051
0.00555689
0.00681125
0.0067455
0.0144982
0.00685296
0.00316251
0.0133501
0.0198243
0.00226698
0.00964626
0.00686998
0.00680305
0.00332829
0.00581474
0.0031913
0.0013358
0.00214754
0.00545622
0.00669319
0.0171
0.00678539
0.00608494
0.00448524
0.00776546
0.000446969
0.00683545
0.00683925
0.00685438
0.0107104
0.00909
0.00670015
0.00680998
0.00680978
0.00235167
0.00674332
0.00680051
0.00642569
0.00252696
0.00271871
0.00420281
0.00513734
0.00677858
0.00221364
0.00722918
0.0043546
0.00221111
0.00828758
0.00222916
0.00678412
0.0019961
0.00673442
0.00686865
0.00685831
0.00351026
0.00163758
0.00871803
0.00316049
0.0074672
0.00673664
0.00680276
0.00686434
0.00825404
0.0150394
0.00676922
0.00259039
0.0033367
0.00786142
0.00679942
0.0212758
0.00662864
0.0109783
0.001252
0.0116346
0.00215689
0.00210121
0.00082931
0.00936741
0.0096299
0.00432654
0.00685456
0.00140419
0.00674
0.00593349
0.0026119
0.00684675
0.00923803
0.00299172
0.00298143
0.0126993
0.00130007
0.00894217
0.00672216
0.00370526
0.00607443
0.00684769
0.00500198
0.0158439
0.0070293
0.0168472
0.00671566
0.00275861
0.00653087
0.00793612
0.0119986
0.00273423
0.00684201
0.00599715
0.0082516
0.00201348
0.00981545
0.0115768
0.00522414
0.0067802
0.00608754
0.00512247
0.0023875
0.00278876
0.0126727
0.0108123
0.00161084
0.00236647
0.00678469
0.00597121
0.00678611
0.00374268
0.00382163
0.00850892
0.00734815
0.00265744
0.00132089
0.00477144
0.0125227
0.000556195
0.00683855
0.000824201
0.0110474
0.000658213
0.00845372
0.00677303
0.00681149
0.00318979
0.00804402
0.00761162
0.00682766
0.00678931
0.00680269
0.00600921
0.00137311
0.00683754
0.00473512
0.00142589
0.0101308
0.00571545
0.0112668
0.00673906
0.00896389
0.00301489
0.00683861
0.00137433
0.00908832
0.00680633
0.00675781
0.00101426
0.0122212
0.00677322
0.0067156
0.0157433
0.00684321
0.0084616
0.0067155
0.00677634
0.00681546
0.00243702
0.0171657
0.0118554
0.00477785
0.00110395
0.0107766
0.0113074
0.0042891
0.010974
0.0051818
0.00674008
0.00708216
0.00680133
0.00672252
0.00685103
0.0109044
0.00678356
0.00105048
0.00676171
0.00677182
0.00342081
0.00143542
0.00632105
0.00511548
0.00653386
0.00671811
0.00257539
0.00608574
0.0040042
0.00673477
0.00224926
0.0117827
0.00686372
0.00675516
0.0107003
0.00251779
0.00264671
0.00152015
0.0143676
0.012776
0.00525996
0.00795453
0.0050161
0.0103959
0.00949021
0.0185804
0.00231122
0.00677597
0.00156408
0.00674205
0.00673946
0.0167912
0.0106255
0.00662862
0.005407
0.00279825
0.00539641
0.00432635
0.0045489
0.00679178
0.002668
0.00633673
0.00678123
0.00483203
0.0128044
0.0118506
0.021408
0.0119782
0.00344271
0.0130402
0.0129891
0.00251711
0.00678096
0.00678365
0.0125455
0.00674001
0.000376476
0.00682376
0.00528263
0.00659216
0.00766124
0.0127434
0.00732107
0.00683709
0.00647979
0.00625777
0.00553269
0.00672126
0.0068423
0.00631537
0.0040594
0.00880126
0.0140137
0.00487284
0.00170166
0.0067303
0.0024897
0.00686184
0.00142176
0.00671299
0.00520674
0.00684508
0.00685511
0.00116925
0.00537927
0.00249729
0.00676637
0.00229973
0.000496218
0.00318143
0.00679745
0.00246582
0.00680835
0.00338888
0.00661168
0.0112908
0.00120863
0.00233607
0.00344158
0.00681801
0.00545342
0.00681115
0.00585242
0.00672154
0.00681719
0.00676677
0.0124884
0.00315884
0.00637205
0.00595721
0.00685042
0.00211686
0.0122932
0.00501322
0.00248002
0.00678211
0.00616946
0.00678297
0.00682175
0.000934373
0.0122681
0.00684671
0.00539012
0.00203989
0.00669479
0.00650687
0.00564943
0.011461
0.00521898
0.00622801
0.000418404
0.0126851
0.0068227
0.00659343
0.00674994
0.0136734
0.00152842
0.00214187
0.00166677
0.00742067
0.00451461
0.0120432
0.0105151
0.00686445
0.00846591
0.00215076
0.00681803
0.00635773
0.00680958
0.00684378
0.00673516
0.00130363
0.00543934
0.00116966
0.00566842
0.00437937
0.00264584
0.012017
0.000923254
0.0126918
0.0123021
0.00543791
0.00151276
0.00143326
0.00572843
0.00126329
0.0136302
0.00674243
0.00596249
0.00675074
0.0024274
0.00467367
0.00674834
0.0167692
0.00123397
0.00256731
0.00608888
0.00674041
0.00686668
0.00158508
0.00282952
0.011766
0.00236214
0.00152062
0.00146841
0.00170873
0.0120254
0.00368799
0.0128876
0.00680423
0.00677239
0.000133463
0.00809597
0.00447494
0.00413805
0.00684988
0.00376978
0.0119304
0.00681756
0.0027714
0.00671238
0.0023188
0.00225278
0.00612116
0.00448508
0.0010792
0.00455839
0.0114438
0.002331
0.00673614
0.00246128
0.0127866
0.00533136
0.00360923
0.00215662
0.00670314
0.00685962
0.00678151
0.00488916
0.0133091
0.0104135
0.00406614
0.00493726
0.0039608
0.00353464
0.001731
0.00685874
0.00680196
0.00674437
0.0111122
0.00673871
0.0121366
0.00389601
0.00333279
0.00134982
0.000150032
0.00413287
0.00747988
0.00231404
0.00677439
0.00662817
0.00666609
0.00400489
0.00342074
0.00671124
0.00675888
0.00186953
0.00285891
0.00133595
0.0114678
0.00373186
0.00673928
0.00163246
0.00623714
0.00274456
0.00249171
0.00671664
0.00237437
0.00686378
0.0138882
0.00681258
0.0133678
0.00680896
0.00409902
0.00495716
0.00680182
0.00343246
0.00247531
0.00254217
0.00738812
0.0121084
0.00315891
0.00280763
0.00678494
0.00710169
0.00807215
0.00684314
0.0068151
0.0113384
0.00669543
0.0069105
0.00682766
0.00503741
0.00146805
0.00293106
0.00453203
0.00670933
0.00678444
0.00218854
0.0127187
0.00674349
0.00181252
0.00349791
0.00211018
0.000249462
0.00444176
0.00629104
0.00266536
0.000557177
0.00673358
0.0126243
0.0123634
0.00303929
0.00692919
0.0122913
0.006776
0.00510086
0.00675944
0.00168263
0.0107968
0.0128076
0.00725336
0.00426911
0.0114248
0.0148771
0.00389511
0.0066994
0.00681958
0.00861678
0.00434836
0.00214268
0.00681516
0.00686401
0.0067093
0.00685034
0.0121774
0.000117161
0.00308386
0.00844436
0.00528409
0.00680072
0.00674935
0.00676481
0.00602989
0.0130314
0.000146487
0.00528961
0.00695465
0.0109551
0.00142295
0.00223565
0.00176108
0.00302987
0.0130731
0.00263137
0.00557753
0.00674068
0.00681165
0.00237085
0.0094389
0.0127586
0.0101486
0.001848
0.00680014
0.0064165
0.00350192
0.00686025
0.00423578
0.0085064
0.00633889
0.00459328
0.00379461
0.00678986
0.00675163
0.00672227
0.00674732
0.00351505
0.00304458
0.00342594
0.0035869
0.0119701
0.00636215
0.013514
0.00566692
0.00285284
0.00784365
0.00332103
0.01603
0.00944761
0.00670672
0.00565985
0.00300246
0.00340575
0.00156112
0.00334257
0.00472003
0.0113614
0.00687732
0.00365142
0.00683903
0.00951198
0.0118983
0.00374825
0.00678924
0.0126417
2.51673e-05
0.00149151
0.00697729
0.00155998
0.00597487
0.00679146
0.00652323
0.0117213
0.00121735
0.00245689
0.0121719
0.00977662
0.00676361
0.00675182
0.0036303
0.0126578
0.0122634
0.00673447
0.00518882
0.00540936
0.00679169
0.00686261
0.00306714
0.0005308
0.00611752
0.00407877
0.00667302
0.00523792
0.00674285
0.00127307
0.00681846
0.00760186
0.00650681
0.0191392
0.00618069
0.00674534
0.00160074
0.0031378
0.0110017
0.00268681
0.0108087
0.00682177
0.00681639
0.00675599
0.00225183
0.00237382
0.00233018
0.00470458
0.0110092
0.00352985
0.00151233
0.00226605
0.0114263
0.00684667
0.00802929
0.0109334
0.00268426
0.00531605
0.00210515
0.00561211
0.00684134
0.00132398
0.00682836
0.0159157
0.00215473
0.0024826
0.0129425
0.00655932
0.00213079
0.00675179
0.00589586
0.00679295
0.00671182
0.0121159
0.00114495
0.00715155
0.00590161
0.00212971
0.00296039
0.00673245
0.0166156
0.00512908
0.00677291
0.00133954
0.00678646
0.00233154
0.00679393
0.00211927
0.00684212
0.0118319
0.0127154
0.00528156
0.00270496
0.00153079
0.0138843
0.00685164
0.0173675
0.0174225
0.00673344
0.00676258
0.00633675
0.00590852
0.00224733
0.00677018
0.00649463
0.00218285
0.00709819
0.00363066
0.00686809
0.00671814
0.0067569
0.00768338
0.00682349
0.00682255
0.000292879
0.00315638
0.0204597
0.012676
0.00209669
0.0064598
0.00278856
0.00569597
0.00533624
0.00552767
0.00682901
0.00319765
0.00458088
0.0137288
0.00210613
0.00593064
0.0049334
0.00145265
0.00569205
0.00592991
0.0113443
0.00673339
0.00350831
0.00671984
0.00822885
0.0089417
0.0137218
0.00682965
0.00401341
0.00664043
0.00679672
0.001534
0.0068661
0.00595742
0.00237882
0.0126088
0.00671059
0.00339927
0.00331203
0.00978717
0.00674172
0.00869465
0.00544662
0.00545805
0.0166132
0.00628504
0.0106069
0.00671927
0.0130384
0.0052337
0.00427722
0.0067273
0.00672817
0.012811
0.00511074
0.00519389
0.00686981
0.0132323
0.00684141
0.00129814
0.00682836
0.00602836
0.0045516
0.00670765
0.00915622
0.00414847
0.0157448
0.00857489
0.0085411
0.00190065
0.0023904
0.00886404
0.0126191
0.00684174
0.00145935
0.00675173
0.00669825
0.00674197
0.00600303
0.00684661
0.00764499
0.00559409
0.0135352
0.00458924
0.00539811
0.00828199
0.002239
0.00670454
0.00157397
0.00123263
0.00919202
0.00684167
0.00675767
0.00685804
0.0173906
0.00685414
0.0114395
0.00750009
0.00243108
0.00184914
0.00684355
0.012286
0.00683322
0.0133414
0.00669834
0.00303751
0.00237454
0.00680243
0.00772376
0.00800701
0.0067158
0.00210793
0.00466622
0.00442385
0.00594046
0.00148902
0.0139678
0.00683846
0.00170448
0.0115827
0.0068242
0.00613712
0.00666256
0.002155
0.00244876
0.00541321
0.0086365
0.00681409
0.00797591
0.00493971
0.00238298
0.0117869
0.00737177
0.00475348
0.00944051
0.000407961
0.0067905
0.0121431
0.00156242
0.00247017
0.00417777
0.0114739
0.00672196
0.00300616
0.0115561
0.00134637
0.00671925
0.00498444
0.0083916
0.00231117
0.0114136
0.00540843
0.00411606
0.00251565
0.011372
0.00241752
0.0129114
0.0146538
0.00773236
0.00686414
0.010671
0.00707602
0.00932806
0.006732
0.0066708
0.00685778
0.0131107
0.0057242
0.0113893
0.0135237
0.00683929
0.00683269
0.00673234
0.00948451
0.00649004
0.00350119
0.00838633
0.00673569
0.0106073
0.0118737
0.0015069
0.00536473
0.00930867
0.00486923
0.00312041
0.00363222
0.00281509
0.00795963
0.00841344
0.00669921
0.00367129
0.00684921
0.00676149
0.0104475
0.00842843
0.0111268
0.00169084
0.00339597
0.00683538
0.00688139
0.0113309
0.00759259
0.0067381
0.00214479
0.00643001
0.00675794
0.00683912
0.0105146
0.0117607
0.00618976
0.00673314
0.00444756
0.00673011
0.015914
0.00610758
0.00682968
0.00498978
0.00180356
0.0117873
0.00451726
0.0101126
0.00682058
0.00632971
0.0112257
0.0122275
0.00572653
0.00237742
0.00671947
0.00248601
0.00670514
0.00667873
0.00137132
0.00682786
0.0161475
0.00510657
0.00678965
0.00638802
0.00822968
0.017482
0.00664597
0.00676152
0.00690072
0.0123736
0.00856628
0.0032972
0.00684198
0.0067356
0.0127486
0.0068431
0.00682667
0.00303757
0.00675972
0.0112071
0.0042933
0.00684263
0.00440943
0.00681261
0.00686516
0.0131116
0.00615315
0.00229317
0.00601726
0.00384153
0.00663465
0.00671879
0.00680708
0.00685225
0.00684
0.00693431
0.00142156
0.0119318
0.00672315
0.00178189
0.00685053
0.0121311
0.00680782
0.00671224
0.00343746
0.0108521
0.00684166
0.0024564
0.00101337
0.00334144
0.00665909
0.00243357
0.00683335
0.00554657
0.00674924
0.006836
0.00684811
0.00680609
0.00558136
0.00758062
0.00278213
0.00230284
0.00356661
0.00336842
0.00299882
0.00248126
0.00840607
0.00585694
0.00180546
0.0113288
0.0106898
0.00171217
0.012405
0.0061218
0.00684287
0.0173013
0.0067674
0.00411222
0.0110803
0.0066414
0.0138223
0.00129174
0.00675243
0.00657403
0.00683013
0.00605444
0.00682884
0.00706967
0.00685272
0.0112192
0.0163701
0.00683903
0.00673765
0.00219653
0.00730743
0.01116
0.00139736
0.00277112
0.00673018
0.00417196
0.00812985
0.00366938
0.00649284
0.00684784
0.00681911
0.00659926
0.00686272
0.00685402
0.0042107
0.010734
0.00221012
0.00868206
0.00451409
0.00423162
0.00111981
0.00673099
0.00683331
0.00677384
0.00677191
0.0064161
0.00587959
0.0106949
0.00642689
0.0133357
0.0032766
0.00834506
0.00130297
0.012875
0.00999991
0.00686106
0.0067998
0.00887793
0.00684723
0.00671961
0.00640529
0.0111824
0.0051077
0.00678606
0.00682883
0.00647973
0.00225793
0.00827592
0.00675491
0.00645761
0.0010686
0.00679188
0.00852347
0.00215956
0.0116792
0.00683464
0.000954045
0.00802368
0.00359664
0.0112188
0.00173
0.00873178
0.00682465
0.00545045
0.00675369
0.00302422
0.00359068
0.00686507
0.00540942
0.00677784
0.00682014
0.00672983
0.0134683
0.00232335
0.00174941
0.0108873
0.0067592
0.00257949
0.00644132
0.0015538
0.00683701
0.00668399
0.00685414
0.00373662
0.0068462
0.00680642
0.0138369
0.0124362
0.0132635
0.000381728
0.00141044
0.00791084
0.00216666
0.0134257
0.00150706
0.00680941
0.00685169
0.00669635
0.00686206
0.0114822
0.0118042
0.00684851
0.00408361
0.013843
0.00255527
0.00674113
0.00684099
0.0120311
0.0101557
0.0106686
0.00155066
0.0111097
0.00669936
0.000318152
0.00192563
0.0106292
0.00841267
0.00674163
0.001527
0.00715276
0.00391006
0.00838347
0.00684768
0.00730692
0.00750276
0.0123395
0.00217784
0.00277677
0.0033852
0.00153356
0.0122346
0.013484
0.0112305
0.00171251
0.0104421
0.00683452
0.00639666
0.0024111
0.00573118
0.0126689
0.00835073
0.00685326
0.00158007
0.00149576
0.00684602
0.0108759
0.00673549
0.00151114
0.00566025
0.00672926
0.0123931
0.0110029
0.013345
0.0117739
0.0030798
0.00607321
0.00682423
0.0114159
0.00677609
0.00683865
0.00238388
0.00389452
0.0107505
0.00361031
0.00687217
0.00401484
0.00680318
0.0101791
0.00590504
0.00167264
0.0124372
0.0067068
0.00761523
0.00192232
0.0067173
0.00485122
0.000407986
0.006719
0.00269237
0.00606789
0.0137952
0.0038952
0.00684929
0.00168775
0.00557469
0.0118456
0.0109838
0.00227374
0.0145404
0.00617373
0.0067382
0.0109231
0.0032016
0.00685845
0.00496937
0.00220748
0.0067232
0.00678572
0.00144292
0.00651641
0.00576854
0.000394638
0.00660557
0.00594483
0.00216504
0.00168276
0.00683245
0.0120846
0.00291715
0.00806032
0.00673525
0.00683317
0.00239549
0.00347917
0.0101668
0.00685914
0.00857249
0.00684319
0.00183536
0.00685705
0.00687167
0.000741855
0.0017069
0.00808757
0.014144
0.0113205
0.0105407
0.00669928
0.00258678
0.00315854
0.00482664
0.00680862
0.000255071
0.00301147
0.00669259
0.00168945
0.00169614
0.0131134
0.0125381
0.00211669
0.000256849
0.00670732
0.00237944
0.00223299
0.00673189
0.00232332
0.00682927
0.0056833
0.00796485
0.00368638
0.00673487
0.00675016
0.00557255
0.00673563
0.0169847
0.00675638
0.00675834
0.013167
0.000278958
0.00505338
0.00190819
0.00684641
0.00113359
0.00610602
0.0108846
0.00687801
0.00290298
0.0109539
0.00666243
0.00675707
0.00333386
0.00857806
0.000316539
0.000308972
0.000226395
0.00494887
0.00677858
0.00673867
0.00601489
0.003097
0.00423349
0.00373087
0.00301779
0.0110388
0.00564605
0.0043961
0.0030204
0.00676718
0.00279505
0.00368548
0.00674835
0.0065115
0.00308393
0.00370709
0.00895438
0.0108316
0.00676162
0.00213037
0.00279311
0.00140989
0.00976789
0.0129518
0.0127502
0.00685076
0.00221631
0.013212
0.00216608
0.00169006
0.00443413
0.0120242
0.0116266
0.01365
0.00674318
0.00972722
0.00683929
0.00664285
0.00676801
0.00202357
0.012184
0.00232512
0.00975839
0.00463661
0.00197663
0.00671204
0.00671183
0.00683451
0.00688191
0.00243754
0.0130196
0.0139152
0.00218571
0.0165273
0.0068612
0.00190316
0.00671019
0.0130627
0.00249744
0.00685593
0.00146552
0.00189967
0.00776241
0.00739604
0.00145694
0.00257032
0.00441911
0.00868072
0.000431294
0.00808648
0.0109076
0.00668162
0.00180013
0.00681373
0.0108463
0.00521021
0.00211046
0.0124435
0.00042047
0.0133784
0.00169574
0.0013612
0.00425449
0.00671436
0.00163648
0.00143726
0.00372603
0.00167716
0.00282042
0.00256886
0.00560057
0.00116943
0.00662217
0.00318716
0.00245728
0.00446263
0.0066958
0.0133938
0.00176414
0.0141899
0.00122587
0.00677882
0.0100381
0.00673249
0.00641098
0.00624243
0.0102456
0.00288178
0.0123016
0.00364285
0.00168612
0.00378725
0.00165922
0.016792
0.00147367
0.0125013
0.00694526
0.0021418
0.00681364
0.0106731
0.010383
0.00692586
0.00687239
0.00320902
0.00317248
0.00489271
0.00227963
0.00218555
0.00684458
0.00493299
0.00414821
0.00292023
0.00202356
0.00242681
0.006747
0.0164649
0.00246331
0.002095
0.0108229
0.00215848
0.0117653
0.00672605
0.00683524
0.00643355
0.00502871
0.00677308
0.00970386
0.0124886
0.00804423
0.00458774
0.0112435
0.000127751
0.00289516
0.0165853
0.00206782
0.000348706
0.00250481
0.00354447
0.00391135
0.0022243
0.00179076
0.00644623
0.00119134
0.00710269
0.011712
0.00671485
0.000222545
0.000520171
0.00222823
0.00673506
0.0024594
0.00682865
0.00314595
0.0103042
0.00304183
0.00306472
0.00672767
0.00672073
0.00108565
0.00870645
0.00686222
0.00387554
0.000283409
0.00671651
0.00651197
0.0105169
0.00171927
0.00189127
0.00675599
0.00320944
0.00117029
0.00686319
0.00679461
0.00996693
0.00283598
0.00986305
0.00211831
0.00278458
0.0114602
0.00127326
0.00131609
0.00672713
0.0127862
0.00249517
0.00314493
0.0183594
0.00240484
0.0068635
0.0012004
0.00374323
0.00634243
0.00678493
0.017628
0.00677991
0.00248176
0.00696467
0.00193608
0.00680339
0.00122405
0.00254634
0.00962204
0.000946701
0.00783372
0.00151908
0.0119064
0.00670928
0.0023032
0.00296623
0.0067318
0.0111574
0.00742632
0.00280207
0.00380512
0.00650053
0.00238799
0.00771198
0.00283153
0.0056859
0.0167167
0.00782666
0.0170385
0.00179562
0.00652347
0.00674876
0.00244948
0.00474323
0.00576991
0.0117089
0.0130594
0.0127527
0.0135045
0.00671955
0.00985826
0.00673104
0.00417225
0.00684297
0.0114107
0.0011392
0.00207602
0.00677381
0.00114848
0.00297076
0.00655011
0.00683681
0.00138337
0.00254797
0.00210224
0.00204795
0.00187967
0.00378795
0.000550208
0.00126513
0.00673212
0.00468676
2.35283e-05
0.00362997
0.00683574
0.00272369
0.00676709
0.00680706
0.00212699
0.0066452
0.00591142
0.000501297
0.00203278
0.00402466
0.00681006
0.0204846
0.00224243
0.0120925
0.00433177
0.00487328
0.0125914
0.00523071
0.00478018
0.00372846
0.00498049
0.00654835
0.00686003
0.0115185
0.00253095
0.00422243
0.00589693
0.00387808
0.00683576
0.00488995
0.0136866
0.00682768
0.00226503
0.0125326
0.00172978
0.00256981
0.00119726
0.00311689
0.0138444
0.0100284
0.0203133
0.00162816
0.00273074
0.00616356
0.00281142
0.00682113
0.00674149
0.00681743
0.0114916
0.0051711
0.00674335
0.00232134
0.00117072
0.00682783
0.00586909
0.00227585
0.00677896
0.00588201
0.0179768
0.00270011
0.00223016
0.00263524
0.00675702
0.00152145
0.00225697
0.0035547
0.00017635
0.00115701
0.0014265
0.00171972
0.00921687
0.00660519
0.00570608
0.0013489
0.00133921
0.00132439
0.0169241
0.00210565
0.00516757
0.00212832
0.00246828
0.00326987
0.00138765
0.0067796
0.00673193
0.00683861
0.00393747
0.00985715
0.00682104
0.0018714
0.00638752
0.00333909
0.00578096
0.0018293
0.00350489
0.0014066
0.00683895
0.00554129
0.00473084
0.00681524
0.00192554
0.00356869
0.00683722
0.0042139
0.00558937
0.00683264
0.0102459
0.00323553
0.00850141
0.00302532
0.0119356
0.00242816
0.00151973
0.0047432
0.00232182
0.00649438
0.0028001
0.0156676
0.00940396
0.00459268
0.0015605
0.00246187
0.00674431
0.0102562
0.00360275
0.0102001
0.00677484
0.00444613
0.0013658
0.0199291
0.0194653
0.00678844
0.00673112
0.00680525
0.00243884
0.00997629
0.00379529
0.00930078
0.00538618
0.00259768