/*--------------------------------*- C++ -*----------------------------------*\
| =========                 |                                                 |
| \\      /  F ield         | OpenFOAM: The Open Source CFD Toolbox           |
|  \\    /   O peration     | Version:  v2012                                 |
|   \\  /    A nd           | Website:  www.openfoam.com                      |
|    \\/     M anipulation  |                                                 |
\*---------------------------------------------------------------------------*/
FoamFile
{
    version     2.0;
    format      ascii;
    class       volVectorField;
    location    "600";
    object      U;
}
// * * * * * * * * * * * * * * * * * * * * * * * * * * * * * * * * * * * * * //

dimensions      [0 1 -1 0 0 0 0];


internalField   nonuniform List<vector> 
13851
(
(1.01576 -0.0179873 0)
(0.55219 0.152599 -1.88647e-21)
(1.07079 -0.0599346 7.86189e-22)
(1.0153 -0.0168933 0)
(1.08099 -0.049412 0)
(1.04049 -0.00481015 0)
(1.03333 -0.00097143 0)
(1.06304 -0.0475296 -9.101e-21)
(1.00639 0.000831215 0)
(1.04826 -0.0785114 4.03213e-21)
(0.961214 -0.0848424 -8.29023e-23)
(0.564656 -0.120925 6.86827e-21)
(0.937613 -0.0621615 1.4817e-20)
(0.207161 0.228056 0)
(1.02076 -0.000524985 3.52548e-21)
(1.04185 -0.0392024 -2.6034e-21)
(1.04886 -0.024534 3.36144e-21)
(1.02709 -0.0290673 9.80157e-23)
(1.06332 -0.0605273 -1.74004e-20)
(1.00621 0.000634496 -2.09953e-22)
(1.01545 -0.016693 0)
(1.07179 -0.0580918 0)
(1.00458 -2.71636e-05 -9.98151e-23)
(1.00202 1.35429e-05 -4.25349e-22)
(1.00357 -7.63956e-05 -1.08082e-22)
(1.06185 -0.048686 -9.38517e-22)
(1.05743 -0.015531 -3.31579e-21)
(0.0134003 -0.0768384 2.7745e-22)
(1.01624 -0.0180219 9.17847e-24)
(1.03044 -0.0243026 5.59362e-22)
(1.05212 -0.00877367 -6.67957e-22)
(1.04956 -0.0255168 0)
(1.06897 -0.0601275 0)
(0.87941 0.177384 2.46393e-21)
(1.00261 2.76213e-05 2.5917e-22)
(1.10828 -0.0424557 0)
(1.0995 -0.0449133 -2.59475e-20)
(1.08431 -0.0544903 9.68905e-21)
(1.05001 -0.0818804 -2.30802e-21)
(0.883857 0.17231 1.02675e-21)
(1.01558 -0.0103395 8.81403e-22)
(1.00834 -0.00155184 -1.29511e-22)
(-0.0193928 0.0483127 3.64215e-22)
(0.930457 -0.115013 0)
(0.910701 -0.117863 0)
(0.00622564 -0.0772623 0)
(0.888125 -0.131919 -3.98627e-21)
(0.845118 -0.0941169 -6.11523e-22)
(1.05853 -0.0159477 0)
(1.05123 -0.00962657 4.51853e-22)
(1.08976 -0.0420369 1.56043e-20)
(1.09227 -0.0522017 2.44168e-20)
(-0.0177115 -0.10065 2.63365e-20)
(1.02044 -0.000516456 3.86541e-21)
(1.0114 -0.000975716 -7.9669e-22)
(1.00845 -0.00164675 0)
(1.00548 0.000287276 -6.47737e-22)
(-0.00331746 -0.109925 -4.29692e-21)
(1.02999 -0.0237145 -1.20851e-21)
(1.03461 -0.0038013 0)
(1.08589 -0.0547737 -7.01643e-23)
(0.445817 0.0160998 -8.19846e-21)
(1.02291 -0.0500513 1.59459e-21)
(1.08345 -0.0505963 0)
(1.02525 0.0284805 0)
(1.01432 -0.018088 4.22229e-22)
(1.06082 -0.0445623 -1.5769e-20)
(0.882035 -0.118102 8.34154e-22)
(1.07393 -0.0286042 -1.34144e-20)
(1.02629 -0.0291932 -1.62941e-23)
(0.283669 0.00883203 4.22158e-20)
(0.974782 -0.0447365 1.53865e-20)
(0.54221 0.159048 1.31719e-21)
(1.02041 -0.000541333 0)
(1.01167 -0.00166633 0)
(1.00716 0.0013414 0)
(1.07152 -0.0570357 -4.56678e-21)
(0.408132 0.00128201 -3.42447e-20)
(1.07467 -0.0409766 -1.62581e-20)
(0.269529 0.00607558 3.9623e-20)
(1.03847 -0.00786445 0)
(0.897631 0.0725877 2.93168e-22)
(1.02328 -0.00513754 2.5557e-21)
(0.0235437 -0.0757643 -1.26281e-20)
(1.02678 -0.050874 -3.70981e-22)
(0.610713 -0.13079 -6.79384e-21)
(1.02921 -0.0177247 1.1843e-21)
(0.737952 -0.0644023 2.02531e-20)
(1.0559 -0.0225148 -5.03323e-21)
(1.01935 0.00172762 0)
(1.10828 -0.0425874 1.01939e-20)
(0.994449 -0.0102967 -1.26069e-21)
(0.885244 -0.0942509 -1.06427e-21)
(1.06122 -0.0261543 0)
(1.0562 -0.0215582 -1.19539e-21)
(1.00327 0.000147762 9.33969e-24)
(1.08195 -0.049473 0)
(0.569531 -0.0560784 0)
(1.04968 -0.0178333 0)
(1.00255 0.000117512 0)
(0.0602356 -0.0180197 0)
(1.0806 -0.038612 -1.26852e-21)
(1.02042 -0.0174973 1.0226e-21)
(1.0623 -0.00653398 -2.18143e-21)
(1.00302 -4.97842e-05 2.08868e-24)
(1.02691 -0.0291033 5.01211e-22)
(1.08384 -0.0393049 1.20643e-20)
(1.007 -0.00107177 -5.18577e-24)
(0.857452 -0.0414731 2.0068e-20)
(1.03794 0.00235077 0)
(1.00172 7.65911e-05 0)
(1.02003 0.00177647 1.25696e-22)
(0.996713 -0.0100466 0)
(0.999852 5.09346e-05 -1.36676e-22)
(1.00231 0.000101675 -2.36031e-22)
(0.812271 0.147515 4.90693e-22)
(0.60113 -0.0571377 0)
(1.00713 -0.000811275 0)
(1.00348 -0.000326903 -3.00595e-24)
(1.00939 -0.000729706 -7.82506e-22)
(-0.0181706 0.0462706 6.33406e-20)
(1.06131 -0.00714602 0)
(0.903513 -0.0623492 -1.82653e-20)
(0.874785 0.0882396 -1.39358e-20)
(0.858352 -0.0692588 1.06414e-21)
(1.0211 -0.00554097 1.5238e-22)
(0.844048 -0.0501939 -3.14527e-22)
(1.07753 -0.0399227 -3.31336e-22)
(1.01507 -0.0160592 2.51233e-22)
(1.08286 -0.05467 -7.94669e-21)
(1.01543 -0.00997902 -8.83283e-22)
(1.00565 -0.00134899 0)
(0.303121 0.00452496 -3.93268e-20)
(1.02324 -0.00477924 -4.79382e-21)
(0.831766 0.173585 6.94305e-21)
(1.00568 -0.000634411 0)
(1.00713 -0.000737116 -7.94576e-24)
(0.986616 -0.0455903 1.54619e-20)
(0.0291371 0.168019 0)
(0.240606 0.171371 1.57072e-22)
(0.0148552 -0.0434971 0)
(1.01093 -0.00090735 1.37145e-21)
(1.00494 0.00124374 9.67045e-22)
(1.01267 -0.00301719 5.9041e-23)
(1.04006 -0.0209096 -8.00145e-21)
(0.936241 -0.112529 0)
(1.01486 -0.00312642 5.48846e-24)
(1.08249 -0.0547573 1.77188e-20)
(1.03255 -0.00103541 -2.55939e-21)
(0.907215 -0.103269 0)
(1.10023 -0.0333086 -1.25957e-20)
(1.00951 -0.00089306 -3.15531e-22)
(0.227364 0.223688 3.4221e-20)
(1.00553 0.000248105 4.55172e-22)
(1.04685 -0.0152058 0)
(1.03921 -0.0208089 7.16108e-21)
(1.00806 -0.0051283 2.29611e-23)
(1.03111 -0.0216352 -3.75154e-21)
(1.09145 -0.0528535 -2.43345e-20)
(1.08866 -0.042172 1.43168e-20)
(1.00845 -0.00185094 2.85844e-23)
(1.0673 -0.0212538 0)
(-0.00874378 -0.109939 3.15839e-20)
(1.00553 -0.00120923 -6.89619e-23)
(1.03289 -0.0293136 0)
(1.01069 -0.00231932 -1.9382e-22)
(1.01542 -0.00232736 0)
(1.07523 -0.0284537 1.44847e-20)
(1.01512 -0.0157652 2.22036e-22)
(0.430177 -0.0643752 -2.96376e-20)
(0.392395 0.0043465 4.14218e-20)
(1.00637 0.00106005 1.56474e-22)
(1.00829 -0.00540779 2.54827e-23)
(0.22177 0.181685 -1.12124e-21)
(1.00542 -0.00109048 -5.12176e-23)
(0.86196 -0.106681 -1.1575e-22)
(1.07635 -0.0398138 -8.01815e-21)
(1.00612 -0.00185495 1.15514e-21)
(1.04939 -0.0615586 3.20541e-20)
(1.00736 -0.00129532 -7.28822e-23)
(1.04973 -0.0274525 0)
(0.950334 -0.0439232 -3.24734e-20)
(1.02305 -0.00402016 0)
(1.07342 -0.0583593 -2.18203e-21)
(1.00557 -0.00030596 1.14355e-23)
(1.00484 2.53684e-05 1.30461e-22)
(1.01445 -0.0187227 -4.38244e-22)
(1.01114 -0.00109061 1.1752e-21)
(1.08078 -0.0519441 1.09828e-20)
(1.01029 -0.0625756 0)
(0.891499 -0.121861 2.2551e-21)
(-0.0222493 -0.102918 -2.3044e-20)
(1.0214 0.0013385 2.14692e-22)
(1.07078 -0.0313445 1.38974e-20)
(0.494628 0.0171128 7.58975e-21)
(1.04513 -0.0151529 -6.22712e-21)
(1.00541 0.00143286 0)
(0.898039 0.0966132 3.04807e-21)
(1.00599 -0.00127023 -4.83091e-22)
(1.00707 0.00117483 0)
(1.02164 -0.00550159 -4.32856e-22)
(0.149571 -0.0625244 0)
(1.00201 -0.000163736 0)
(1.01919 -0.00677605 -1.88056e-21)
(1.02784 -0.0637125 0)
(1.02355 -0.00422033 6.85771e-21)
(0.408517 0.023587 5.65836e-21)
(1.05135 -0.0239521 -8.15682e-21)
(0.422185 -0.00773953 -3.12007e-21)
(1.00771 -0.00151078 4.17519e-24)
(0.661322 -0.0365007 1.97258e-20)
(1.02021 -0.0169007 0)
(0.864875 0.0848118 2.35488e-21)
(1.00678 -0.0010391 0)
(1.01173 -0.0028179 1.93592e-22)
(0.980347 -0.035351 4.4079e-22)
(1.03246 -0.0462616 -1.67996e-21)
(-0.051887 -0.0760802 0)
(1.02103 -0.00131902 -2.33803e-21)
(0.436719 -0.0101245 0)
(1.05145 -0.0247279 5.12091e-21)
(1.03946 -0.00808923 2.15082e-21)
(0.688036 -0.0492131 0)
(1.0868 -0.0537672 -1.01499e-20)
(0.568593 -0.0271972 0)
(1.00371 3.83221e-06 0)
(1.06348 -0.0293226 -8.19785e-21)
(1.00243 -3.11696e-05 4.1645e-23)
(-0.054336 -0.0863546 2.40926e-20)
(1.00687 -0.00109514 -5.14413e-24)
(1.06001 -0.0483941 -6.79548e-21)
(1.08995 -0.0187187 0)
(1.00629 0.000978687 -6.3026e-22)
(1.02067 0.00134378 7.29977e-23)
(1.08965 -0.0386983 -1.22817e-20)
(1.03482 -0.0291053 -3.98024e-22)
(0.474483 0.0197332 -1.32626e-20)
(1.01165 0.036725 0)
(1.01246 -0.00303955 1.5167e-22)
(1.01961 -0.00686922 -1.08132e-21)
(1.05054 -0.0178265 0)
(0.985895 -0.0880956 -5.02022e-22)
(1.01011 -0.00289553 -1.02631e-23)
(1.02639 -0.0669508 0)
(1.00391 -0.000109903 -1.36836e-23)
(0.517109 -0.0218354 2.4967e-20)
(1.0803 -0.0396923 2.65644e-21)
(0.878992 0.155012 4.19261e-21)
(1.03819 -0.0215699 -1.54827e-22)
(1.04263 -0.0284879 0)
(1.01165 -0.000558544 -6.48757e-22)
(0.968307 -0.0950707 -4.56737e-22)
(1.03385 -0.0133051 0)
(1.03905 -0.0217045 5.75914e-21)
(1.08713 -0.0342998 1.32797e-20)
(0.959212 -0.0614683 -8.21467e-21)
(1.01021 -0.057512 0)
(0.965773 -0.0454077 0)
(0.407906 -0.00403887 3.0192e-20)
(1.02401 -0.000954277 8.3999e-21)
(1.01195 -0.00281792 -2.18444e-22)
(1.02479 -0.0280236 0)
(0.903298 0.0925162 -1.39189e-21)
(1.01694 -0.00289762 0)
(0.969455 -0.0568439 -2.08546e-21)
(1.04456 -0.0154956 6.73204e-21)
(1.03375 -0.0127106 3.54954e-21)
(1.06081 -0.0253926 1.11173e-21)
(0.725074 -0.0510378 0)
(1.01473 -0.00563503 0)
(1.0123 -0.00140958 -6.39816e-22)
(1.04623 -0.0156959 1.38766e-20)
(1.03511 0.0369092 0)
(1.07389 -0.039785 0)
(1.04085 -0.0381638 -5.26786e-21)
(1.00574 -0.00147886 8.16805e-23)
(0.8938 0.0694647 -2.27744e-22)
(1.01501 -0.00489124 0)
(0.578026 -0.0279849 1.06376e-20)
(0.956601 -0.0693472 1.35019e-21)
(1.01011 -0.00289505 -2.84828e-24)
(1.0073 -0.00128325 0)
(1.00309 -6.14211e-05 0)
(1.08653 -0.0334897 0)
(0.899136 0.0932518 0)
(0.875658 -0.130708 0)
(1.00662 0.000662803 0)
(1.02156 5.35694e-05 -8.30986e-24)
(1.04315 0.0272601 1.12431e-21)
(0.93345 0.0395503 6.12845e-22)
(1.08218 -0.0552058 7.16111e-21)
(1.03028 -0.023068 1.58146e-21)
(1.03496 -0.00427756 0)
(1.07415 -0.03196 0)
(0.931425 0.0532304 0)
(0.991537 -0.0595782 9.46156e-21)
(1.03454 -0.0291995 3.60907e-22)
(0.604854 -0.133836 -6.08622e-22)
(1.00592 -0.00174692 -4.25132e-23)
(0.536987 -0.024104 -2.53576e-20)
(1.06678 -0.0206177 1.32318e-20)
(1.04769 -0.0246599 -3.71101e-21)
(0.590927 -0.0301734 -2.08717e-20)
(1.02228 -0.0138017 -2.19884e-21)
(1.03042 -0.0260905 1.0245e-21)
(0.605229 -0.0332916 9.69451e-21)
(1.0065 0.000590705 0)
(1.0824 -0.0319053 1.12559e-20)
(1.06049 -0.0270339 0)
(1.02976 -0.0224901 3.13642e-21)
(0.0459991 0.151136 -1.30698e-20)
(1.0342 -0.0294998 -1.33991e-21)
(1.03202 -0.0134749 0)
(0.655867 -0.0527031 0)
(1.00901 -0.00177661 7.53153e-23)
(1.04338 -0.0292007 0)
(1.02354 -0.00607928 -3.00971e-22)
(0.620387 -0.0308961 -1.91021e-20)
(1.10403 -0.0403483 -8.39852e-21)
(1.02131 -0.0014536 -7.36254e-21)
(1.08344 -0.037259 6.0672e-21)
(1.0217 -0.00082173 0)
(0.439351 -0.0140207 -1.03485e-20)
(1.01185 0.00293515 8.40898e-22)
(1.00497 -3.92518e-05 0)
(1.00821 -0.0064542 -2.96221e-22)
(1.10314 -0.0406113 1.53061e-20)
(1.06283 -0.0281355 -8.08693e-21)
(1.04751 -0.0138459 -4.45004e-21)
(1.02138 0.000150221 -1.19607e-21)
(1.02232 -0.0135482 1.10754e-21)
(1.03133 -0.0133913 -1.29671e-21)
(0.942825 -0.0960649 7.34613e-23)
(0.404868 0.159216 6.21316e-20)
(0.440331 -0.0500302 0)
(1.02196 -0.032565 8.65349e-22)
(0.631426 -0.0325339 9.1878e-21)
(0.781574 -0.0176199 1.0187e-20)
(1.02067 -0.000522913 -5.93451e-21)
(1.07057 -0.0325622 -1.37808e-20)
(1.08156 -0.0550642 -1.28633e-20)
(0.993328 -0.0168778 -1.12227e-21)
(1.0418 -0.0280097 -1.84057e-21)
(1.09308 -0.0495898 -1.7236e-21)
(1.04996 -0.0597017 0)
(1.00436 -0.00507217 -4.33343e-22)
(0.799073 0.15097 6.09098e-21)
(0.577482 -0.0285135 -2.27134e-20)
(1.02072 -0.000404776 0)
(1.04887 -0.00188324 -6.76053e-22)
(1.04912 -0.00758166 6.75371e-22)
(1.06926 -0.0749484 4.79293e-21)
(1.04787 -0.0133355 8.78562e-21)
(1.04449 -0.0269469 5.95198e-22)
(-0.0559837 -0.0928609 -1.77884e-20)
(1.00843 -0.00570374 -4.94592e-23)
(0.798706 0.143719 -1.45122e-21)
(1.00808 -0.00621505 -1.12291e-23)
(1.02153 -0.000738746 0)
(1.00436 -0.00015416 0)
(1.00704 -0.00112599 -1.30775e-22)
(1.00793 -0.0046133 0)
(0.609946 -0.0317473 1.10032e-20)
(0.927914 0.0450338 0)
(1.02213 -0.00892004 -1.3498e-21)
(1.08171 -0.0308464 0)
(1.00975 -0.00215911 1.18936e-22)
(0.562828 -0.141419 1.39936e-21)
(1.03466 -0.0419235 2.26552e-21)
(0.865369 -0.174513 -1.68532e-21)
(0.446428 -0.0592706 3.38017e-20)
(1.0221 -0.00929446 1.39641e-21)
(1.0357 -0.0482965 2.68898e-21)
(1.05861 -0.0284592 2.08987e-20)
(0.860359 -0.162153 -3.86793e-21)
(1.01426 -0.00900022 2.1466e-21)
(1.00726 -0.000878105 -4.89654e-24)
(1.0035 0.000401715 0)
(0.163484 -0.0339619 -4.09547e-20)
(1.01133 -0.00136601 0)
(0.0892118 0.136264 1.21647e-20)
(0.991986 -0.0140611 1.15358e-21)
(1.09376 -0.0503767 1.74296e-20)
(0.381801 -0.0704446 1.59175e-20)
(1.04871 -0.0269991 -1.75987e-21)
(1.05285 -0.0139719 6.34755e-22)
(1.00988 -0.00542444 -6.08869e-22)
(1.00638 -0.00204985 0)
(1.01982 -0.00028672 -2.03496e-21)
(1.02154 -0.0310043 -4.13246e-22)
(1.08411 -0.0364566 1.51124e-20)
(0.262197 0.230701 2.23031e-23)
(1.07669 -0.0270946 1.05295e-20)
(0.606655 -0.0301706 1.94577e-20)
(0.599361 -0.0324335 -1.03184e-20)
(1.00988 -0.00216069 -1.79947e-22)
(1.02448 -0.000939316 -1.75111e-21)
(0.420518 -0.0566531 -1.16163e-20)
(0.298272 0.00589839 0)
(1.09047 -0.0313727 -1.16007e-21)
(0.625976 -0.0565529 0)
(1.00329 0.00197052 0)
(1.05951 -0.0294222 0)
(1.00318 5.94202e-05 5.59432e-22)
(0.834992 -0.0259289 3.47044e-21)
(1.00661 0.00137403 0)
(1.04321 -0.0388929 -2.72277e-22)
(1.00899 -0.00507553 -1.41199e-21)
(1.03097 -0.00277803 -2.58857e-21)
(1.00259 -4.33222e-05 1.1223e-23)
(1.00656 0.000774639 3.93831e-22)
(1.01052 -0.00231463 -1.22135e-22)
(1.08395 -0.049896 2.16342e-21)
(1.03549 -0.0243296 -7.18952e-22)
(0.466929 -0.0309841 -4.29863e-20)
(1.0247 -0.0298798 -1.29201e-22)
(1.08425 -0.0383197 -2.00345e-20)
(1.01435 -0.0120052 1.49444e-21)
(0.956175 -0.0795063 -5.05399e-22)
(1.04152 -0.0302867 2.24361e-21)
(1.05152 -0.0778457 8.94582e-21)
(1.04692 -0.0239187 -3.42159e-21)
(0.979314 -0.021974 1.20516e-21)
(1.00701 -0.000696673 -1.05926e-22)
(1.00645 0.00071593 0)
(1.00384 -2.70757e-06 -1.95639e-22)
(1.08288 -0.0531831 1.20829e-20)
(0.88895 -0.147374 3.95263e-21)
(1.08494 -0.0538764 1.6193e-20)
(1.01327 -0.0130009 -1.82811e-21)
(0.452476 -0.0287853 9.2867e-21)
(0.875851 0.172633 1.03492e-22)
(1.02757 -0.0212368 -1.06378e-21)
(1.00858 -0.000700795 6.35428e-22)
(1.09073 -0.0383932 0)
(1.01408 -0.00862042 0)
(0.940731 -0.0807882 1.04793e-21)
(1.0035 -8.54316e-05 -1.20862e-22)
(0.974216 -0.0917022 6.88908e-21)
(0.885442 -0.0943718 -3.51564e-21)
(1.06484 -0.0607312 -5.97147e-22)
(0.419053 -0.0058427 0)
(1.00548 -0.000926433 -4.87873e-22)
(1.0198 0.000543002 -1.82546e-22)
(0.884858 -0.111008 2.57485e-21)
(0.302905 -0.000545022 -1.602e-20)
(1.00588 -0.000390716 5.49863e-24)
(1.06102 -0.0314153 0)
(1.07584 -0.0409679 2.73912e-20)
(1.01106 -0.00366499 0)
(1.00617 0.00108152 -2.31165e-22)
(1.03069 -0.0139061 7.59499e-21)
(1.09953 -0.0324678 0)
(1.09224 -0.0514343 1.27236e-20)
(1.02689 -0.03344 0)
(0.347092 -0.133713 6.28969e-22)
(1.00445 3.13052e-05 0)
(1.00828 -0.00683592 0)
(-0.0487747 -2.62143e-05 -1.30933e-22)
(1.03246 -0.0294087 0)
(1.00709 -0.00118902 -3.07873e-23)
(0.653339 -0.0711166 1.07291e-20)
(1.00625 -0.00190919 0)
(1.01548 -0.0176181 0)
(1.00592 0.000799424 2.94099e-22)
(1.02863 -0.0305708 0)
(1.0294 -0.0202147 0)
(1.00749 -0.00139463 6.75124e-23)
(1.00541 -0.000229923 0)
(0.680693 -0.0557838 0)
(1.02375 -0.00547351 5.885e-21)
(1.07745 -0.0294053 0)
(1.00597 -0.000748381 -5.37406e-23)
(1.01183 -0.0201952 0)
(1.00317 0.000483502 9.87558e-22)
(0.999587 1.2032e-05 0)
(1.01288 -0.00946957 4.84158e-22)
(1.00007 7.53721e-05 0)
(1.00004 2.48604e-05 1.5389e-22)
(0.902745 -0.100996 1.0223e-21)
(1.03432 -0.0119741 -1.68254e-21)
(1.03414 -0.0154898 -2.15067e-21)
(1.02297 -0.00365695 0)
(1.00418 0.000143617 -5.14027e-22)
(-0.0183283 0.0766915 0)
(0.404898 -0.00366544 0)
(1.02451 -0.00428847 1.6185e-21)
(1.01126 -0.021503 0)
(1.04253 -0.030692 -3.58418e-21)
(0.999283 -0.0937036 3.7195e-21)
(-0.00824391 -0.0756136 -1.52318e-21)
(1.00846 -0.00709821 -1.9865e-22)
(0.926965 0.00168073 -7.0898e-21)
(1.01476 -0.0092875 -7.91556e-22)
(1.07839 -0.0514449 0)
(1.03238 -0.00393165 -6.08228e-21)
(-0.0932885 -0.0765695 -1.95374e-20)
(1.00659 -0.000489711 9.47432e-23)
(-0.0190133 -0.0926181 0)
(1.00641 -0.0492387 -6.4413e-21)
(1.00853 -0.00159909 6.93762e-23)
(1.00904 -0.021365 1.20317e-21)
(0.495284 -0.0616896 7.5363e-21)
(1.05915 -0.0498174 3.10301e-22)
(0.92587 0.13381 1.84613e-21)
(1.00449 -0.000424628 0)
(0.836172 0.159499 1.32532e-20)
(1.01073 -0.000771099 0)
(1.00508 -0.000600188 6.27439e-24)
(1.00577 -0.00154062 1.11781e-23)
(1.03092 -0.00102396 -2.65288e-21)
(0.322035 0.00153587 -1.78753e-20)
(1.0867 -0.0411839 0)
(1.09806 -0.0483441 -2.19263e-20)
(1.07486 -0.0635122 -5.16483e-21)
(1.02876 -0.046621 0)
(1.00873 -0.00202698 0)
(0.791878 -0.0523934 -1.96579e-20)
(0.891259 -0.150836 2.19829e-21)
(1.05092 -0.0274255 4.89297e-21)
(1.06682 -0.0221598 0)
(1.01787 -0.0782079 -4.28506e-21)
(0.846444 0.0962484 1.21201e-20)
(0.703509 -0.0389903 -1.70764e-20)
(1.01878 -0.000329614 5.59327e-21)
(-0.0985383 -0.0832001 3.20814e-20)
(0.052496 -0.0813725 2.54576e-21)
(0.0576194 -0.0621634 0)
(1.03356 -0.0297334 2.14788e-21)
(1.00818 -0.0224926 -1.55858e-21)
(0.849733 -0.0974981 0)
(1.01688 2.38371e-05 -2.09737e-22)
(0.955157 -0.0498949 1.19599e-21)
(0.881831 0.107785 1.2134e-20)
(0.86775 -0.0769014 -1.77987e-20)
(1.03083 -0.0221407 3.8307e-21)
(0.843976 -0.069251 8.84853e-21)
(0.940746 -0.047676 0)
(1.0068 -0.000571323 9.76446e-23)
(1.01684 -0.00332072 0)
(1.08787 -0.0410532 0)
(0.380972 0.00209815 2.43048e-20)
(1.0379 -0.0223109 -3.67443e-21)
(1.01902 -0.00453678 1.88864e-21)
(1.00794 -0.00487095 0)
(1.01737 -0.00895351 8.31804e-22)
(1.08114 -0.05119 0)
(1.03208 -0.0282382 0)
(0.782548 -0.0433388 -1.35578e-20)
(0.35866 -0.140261 8.69498e-22)
(1.00501 -0.000199239 4.96293e-23)
(-0.0381596 0.0160868 2.33193e-20)
(0.450462 -0.00905373 0)
(1.03294 -0.0462893 5.16433e-22)
(0.889084 -0.1443 1.88794e-21)
(1.0762 -0.0295606 -4.70597e-22)
(1.0067 -0.00099535 2.45285e-23)
(1.00651 0.000874451 -3.64817e-22)
(1.01792 0.00660195 -3.67831e-22)
(0.75614 -0.0507895 1.89824e-20)
(1.04782 -0.0155265 0)
(1.10051 -0.0377863 0)
(1.10624 -0.044852 -6.0511e-21)
(1.00827 -0.00160088 -1.21152e-22)
(1.01569 -0.00844892 -5.15319e-22)
(0.803386 0.0471005 0)
(1.09382 -0.0748766 -4.03759e-21)
(1.0901 -0.0507851 1.85792e-20)
(0.331949 0.000204712 1.80863e-20)
(0.939045 -0.0467734 -2.6335e-22)
(1.01493 -0.00967418 0)
(1.03138 -0.00240918 5.36495e-21)
(0.475405 -0.0585864 -4.57048e-22)
(0.588253 -0.0318418 1.12838e-20)
(1.10232 -0.043396 1.85173e-20)
(1.07728 -0.0260802 0)
(1.01927 -0.0542654 -1.68526e-21)
(1.00729 -0.00124326 9.80156e-23)
(1.01457 -0.00549892 1.70383e-21)
(0.945734 -0.0843305 8.79358e-21)
(1.00796 -0.0014472 1.12209e-22)
(1.03705 -0.0221347 -1.67899e-21)
(1.00718 -0.00122641 -3.15669e-23)
(1.0068 -0.00168473 0)
(0.919861 -0.0485613 4.42895e-21)
(1.08246 -0.0505064 0)
(1.01372 -0.0143036 0)
(1.00782 -0.00141751 2.26543e-22)
(0.142735 0.116842 5.83235e-21)
(0.907047 0.0536024 1.44967e-20)
(1.00621 -0.00209035 7.23636e-23)
(1.00648 0.00028024 0)
(1.01733 -0.00279666 0)
(1.02034 -0.000372844 -3.88189e-21)
(0.142662 -0.0604563 -4.04595e-20)
(0.873805 0.139187 0)
(0.868981 0.116899 -1.50929e-21)
(-0.00235624 -0.0504111 -1.02124e-20)
(0.854865 0.177356 -5.60447e-21)
(1.07589 -0.0245651 0)
(0.361663 0.00550208 -5.35282e-21)
(0.400838 -0.00420481 4.05799e-21)
(1.00345 -0.00507919 6.64475e-22)
(1.07359 -0.0297583 -1.7751e-21)
(1.00671 -0.000983657 -1.70374e-23)
(1.02275 -0.00634858 0)
(1.04684 -0.0416423 -3.7082e-21)
(0.730773 -0.0587189 2.18625e-20)
(0.832708 0.12678 0)
(1.09958 -0.037977 1.34958e-20)
(1.05529 -0.0319215 -1.58868e-21)
(1.00614 0.000736227 0)
(1.03854 -0.0377976 3.69744e-21)
(1.00665 0.00587641 0)
(0.931568 0.139017 -7.2253e-22)
(1.08656 -0.0442097 1.66848e-20)
(1.02251 -0.00345566 -2.60379e-21)
(1.02354 -0.0331669 2.97702e-22)
(1.006 0.000979276 3.15729e-22)
(1.06184 -0.0237245 0)
(1.08452 -0.0543437 -2.89964e-20)
(1.03374 -0.00372193 5.95144e-21)
(1.01361 -0.00836691 0)
(1.03596 -0.0432759 0)
(1.03158 -0.0076241 -4.98828e-21)
(1.08061 -0.0502921 -1.18388e-20)
(1.09297 -0.0560601 -1.04795e-20)
(1.08677 -0.0531029 9.15842e-21)
(1.03619 -0.0371552 0)
(1.10326 -0.0431742 -3.90996e-20)
(1.00603 0.000681082 1.52887e-22)
(1.07221 -0.0412676 -1.61217e-22)
(1.01123 0.00108021 -9.10098e-22)
(-0.0530588 -0.0480758 0)
(1.0206 -0.0166401 -4.91524e-22)
(1.00297 0.000115432 0)
(0.888193 -0.041569 -3.72282e-20)
(1.0256 -0.0226784 -8.54351e-23)
(0.367022 -0.0771194 9.42234e-23)
(0.546677 -0.025067 7.55056e-22)
(-0.0946892 -0.0740457 -2.48169e-20)
(0.621839 -0.05661 -9.75727e-21)
(1.00642 0.00124163 0)
(0.946362 -0.0438144 0)
(1.01042 -0.0030486 3.27134e-24)
(1.00657 -0.00184511 0)
(1.00642 -0.00044829 -1.27101e-22)
(1.00684 -0.00188832 0)
(1.01229 -0.00385781 0)
(1.02386 -0.0307054 0)
(1.02976 -0.0304119 0)
(1.00754 -0.00127966 -1.1216e-22)
(0.779501 -0.0213914 -6.16052e-21)
(1.00533 -0.0541743 4.23097e-21)
(0.745291 -0.0108667 1.44659e-20)
(1.00717 -0.00382289 -1.74391e-23)
(1.00581 -0.000342185 -3.10593e-23)
(1.006 -8.64134e-05 0)
(1.08249 -0.0551778 0)
(0.51552 0.0273729 0)
(1.09101 -0.0316117 -2.21289e-21)
(1.06192 -0.0244261 -1.17789e-21)
(1.01066 -0.00322014 1.81248e-23)
(1.0038 0.000125217 7.85433e-23)
(1.00398 -0.000128326 1.45491e-23)
(1.00798 -0.00535777 -9.66196e-23)
(1.11354 -0.0549251 0)
(0.273531 -0.0183687 -2.5991e-22)
(1.03096 -0.0073816 1.59032e-21)
(1.00741 -0.00124603 0)
(1.03121 -0.000597305 -2.73593e-21)
(1.00808 -0.00538543 4.23393e-24)
(1.06007 -0.101887 0)
(-0.0170004 -0.109851 -2.76137e-21)
(1.03955 -0.0387429 3.64155e-22)
(0.536069 -0.0564294 0)
(0.829782 0.13732 -1.39171e-20)
(1.01344 -0.00799508 1.5588e-21)
(1.09692 -0.04845 3.84454e-20)
(0.266629 0.00270354 0)
(1.07453 -0.0308247 1.75221e-21)
(0.569239 -0.1138 8.25474e-21)
(1.03784 -0.00827137 0)
(1.02569 -0.0282484 1.4176e-22)
(1.09003 -0.0316205 0)
(1.02416 -0.0287147 0)
(0.872866 0.0774443 -8.25371e-21)
(1.02399 -0.00408358 -1.47152e-21)
(0.846265 -0.0370481 -4.95154e-21)
(1.00327 -7.86538e-05 7.73197e-23)
(1.07981 -0.016083 1.06613e-20)
(0.440141 -0.00967631 0)
(1.0083 0.00282256 2.88321e-22)
(1.02344 -0.0207129 3.44565e-22)
(1.01488 -0.0521521 1.02181e-21)
(1.00519 -0.000667433 9.73376e-23)
(1.04905 -0.0265033 0)
(1.00133 0.0450796 -1.55862e-21)
(0.241528 0.207713 -4.76166e-21)
(1.08546 -0.0443096 -1.61069e-20)
(1.00488 -0.0560934 0)
(1.03994 -0.0392722 0)
(1.00694 -0.00110672 -3.15016e-23)
(1.00707 -0.00360765 -8.87811e-24)
(-0.0631637 0.0615233 0)
(1.10704 -0.0441463 7.84234e-21)
(1.0358 -0.0278912 0)
(0.566447 -0.0274739 1.46963e-20)
(1.00843 0.00247622 -3.62564e-22)
(1.01698 -1.43151e-05 4.15082e-21)
(1.00693 -0.000609361 8.00906e-24)
(0.857041 0.175393 7.61914e-21)
(1.05251 -0.0488865 0)
(1.03432 -0.0273586 -2.39927e-21)
(1.01596 -0.0142403 2.2681e-22)
(0.999783 -0.00495041 -4.51118e-23)
(1.05562 -0.0180169 0)
(1.00622 -0.000101455 1.30594e-22)
(-0.0273418 0.0133395 4.27584e-20)
(0.955794 -0.0700206 3.01026e-21)
(0.514699 -0.0266182 -2.80009e-20)
(1.00883 -0.00174181 -2.33175e-22)
(1.03093 -0.00685826 0)
(0.379295 0.0037032 2.1086e-20)
(0.00444819 -0.118628 1.4778e-20)
(1.10689 -0.042126 -1.10331e-20)
(1.00717 0.00542087 -4.74393e-22)
(0.826715 -0.0428649 2.3875e-21)
(1.0237 -0.00467167 -5.01685e-21)
(0.989517 -0.0159192 -4.06513e-22)
(1.08198 -0.0670308 0)
(1.06599 -0.0625828 -9.12586e-21)
(1.04254 -0.0266785 -1.04745e-20)
(-0.0739749 -0.0734926 -2.3585e-20)
(1.01153 -0.00439813 -3.58442e-22)
(1.01203 0.0103631 0)
(1.11047 -0.0455505 2.53587e-20)
(1.00307 0.000146054 -2.47629e-22)
(1.00123 -8.31018e-05 6.52589e-22)
(1.02986 -0.0208389 0)
(1.00607 0.000794925 -1.66386e-22)
(-0.0365608 -0.002243 0)
(1.04996 -0.0382177 5.66586e-21)
(1.09133 -0.050853 -2.87605e-20)
(1.01313 -0.0150013 0)
(1.01198 -0.00510416 -5.84641e-22)
(1.0061 0.000600979 -2.23053e-22)
(0.951066 0.0722995 1.29792e-21)
(1.00285 -0.000184502 -4.51536e-23)
(1.01126 -0.00528789 1.52861e-21)
(1.00601 -0.000367116 4.30034e-23)
(1.01284 -0.00740862 0)
(1.00897 -0.00107627 -9.95884e-22)
(0.590653 -0.032364 -2.42021e-20)
(1.00804 -0.00487093 9.40629e-23)
(1.00774 -0.00108197 1.12269e-23)
(0.908992 -0.0140328 0)
(1.03223 -0.00245085 0)
(0.39975 -0.000117429 -1.94695e-20)
(1.00316 -6.56342e-05 0)
(1.00539 0.00322237 -1.85474e-23)
(1.09334 -0.0381597 0)
(1.0356 -0.106243 -7.91354e-21)
(0.942808 0.110691 -1.87782e-21)
(1.00468 -5.64036e-05 -5.37257e-23)
(1.04946 0.020727 1.00663e-21)
(0.557996 -0.0551814 -9.1903e-21)
(1.03443 -0.0125546 0)
(0.687166 -0.0410969 2.73458e-22)
(1.07871 -0.016174 0)
(1.00602 0.000849257 -1.60741e-22)
(1.02813 0.0259649 2.66452e-22)
(-0.0238913 0.0383392 -3.55678e-20)
(1.055 0.0103579 -1.85525e-22)
(1.04009 -0.0288806 6.68576e-23)
(1.00483 -0.000198009 -5.15877e-23)
(1.00714 -0.00111843 4.37644e-23)
(0.892112 -0.136885 0)
(1.06638 -0.0669875 -1.04679e-20)
(1.01874 -0.0318577 0)
(1.03412 -0.0286409 0)
(1.03223 0.02406 2.42952e-22)
(1.01973 -0.000344909 -4.4531e-21)
(1.0059 0.00401411 -2.0474e-23)
(1.10243 -0.0352691 -3.20427e-20)
(0.8982 -0.10932 5.53646e-22)
(1.0799 -0.0520483 -1.13225e-20)
(0.838111 0.128683 0)
(1.0303 -0.00661749 0)
(1.07933 -0.0512664 -1.16512e-20)
(1.09212 -0.0434315 -6.61194e-21)
(0.641324 -0.0326179 1.88768e-20)
(1.03357 -0.0270329 1.95887e-21)
(0.270626 0.0457069 -1.01121e-20)
(1.08553 -0.063456 4.6244e-21)
(1.03267 -0.00201474 2.56603e-21)
(0.216145 -0.0824997 1.92842e-20)
(1.06232 -0.042334 -4.38953e-22)
(0.574657 -0.0188981 -1.40114e-20)
(0.27274 0.210841 1.63037e-21)
(0.607351 -0.0482024 1.90008e-20)
(0.995614 -0.0794726 2.92233e-21)
(1.04671 -0.0470296 -7.97344e-21)
(1.00597 0.000748425 0)
(1.02024 -0.0302526 -1.34249e-21)
(-0.0111317 -0.112041 3.47721e-20)
(0.113278 -0.0823098 2.75013e-20)
(1.00743 -0.00486222 -2.15104e-22)
(1.00367 6.06919e-05 -7.72729e-24)
(1.08941 -0.0398342 3.38022e-20)
(0.983927 0.0336981 7.06493e-25)
(1.00866 -0.00147139 5.35487e-23)
(-0.00990653 -0.113992 0)
(1.00821 0.00231905 0)
(1.02331 -0.00817629 5.54585e-21)
(-0.0509239 -0.00660593 -2.22299e-20)
(0.386981 0.00306678 -1.94517e-20)
(1.03784 -0.0329825 -5.17218e-23)
(1.0065 -0.00188511 1.09189e-22)
(1.02153 -0.000499923 0)
(0.00267044 -0.117927 4.77375e-23)
(1.1099 -0.0548071 0)
(1.10166 -0.0427279 0)
(1.00556 -0.00781327 0)
(0.48105 -0.0480642 1.52938e-20)
(1.09511 -0.0710641 -8.86546e-21)
(0.578915 0.0161622 4.88797e-21)
(1.08267 -0.0394287 2.86286e-21)
(1.08053 -0.0310567 0)
(1.03129 -0.0139477 3.18482e-21)
(1.0321 -0.00339972 2.95613e-21)
(0.571454 0.175509 -1.22158e-21)
(1.09253 -0.0275298 -1.84252e-20)
(0.291804 0.00550596 0)
(1.00553 0.00413433 -2.37908e-21)
(1.07542 -0.0271528 -1.33078e-20)
(-0.0206726 -0.0177757 0)
(0.547384 -0.0215047 1.62248e-20)
(0.432808 -0.00457581 -3.63231e-20)
(1.02648 -0.00418791 0)
(1.0751 -0.0222442 -1.14528e-20)
(1.00608 -0.00193407 -7.22936e-23)
(1.03714 -0.0382193 0)
(1.02282 -0.0204189 9.09566e-22)
(0.479703 -0.0968296 0)
(1.01163 -8.2799e-05 0)
(0.412085 -0.0115576 2.05694e-20)
(1.00855 -0.00138713 0)
(1.09243 -0.0380081 1.2273e-20)
(1.01434 -0.00685518 2.34816e-21)
(1.08583 -0.0702977 -7.69824e-21)
(1.07704 -0.0251457 0)
(1.07388 -0.022659 1.46571e-20)
(0.543891 -0.0574599 0)
(1.08439 -0.030125 -2.44833e-22)
(1.02789 -0.029271 -1.08943e-21)
(1.00179 3.91001e-05 1.63432e-22)
(1.09173 -0.0388679 -1.10321e-20)
(0.856375 -0.127309 -1.15273e-21)
(1.03481 -0.0553564 2.13628e-22)
(1.03592 -0.0226335 5.90196e-21)
(0.377562 0.00402859 2.34302e-20)
(1.01631 -0.00272413 2.58866e-22)
(0.336445 0.205441 -1.58382e-21)
(0.956177 -0.0118085 0)
(1.02789 -0.0119182 0)
(0.633676 -0.0327617 -2.86826e-20)
(0.126078 -0.0180341 -9.43622e-22)
(0.413401 -0.00253602 1.76223e-20)
(0.99019 -0.0919582 3.26465e-21)
(1.00754 0.00349576 2.55258e-21)
(1.00793 -0.00570262 3.75243e-22)
(0.506286 -0.0266198 1.50931e-20)
(1.01706 -0.000176999 -3.39384e-21)
(0.761877 0.120459 -3.56043e-21)
(0.416507 -0.00773998 1.46961e-20)
(1.00743 -0.00411141 5.00508e-23)
(1.05188 -0.00758596 -9.96657e-21)
(1.08754 -0.0530646 0)
(0.894342 0.0146692 -3.57533e-21)
(0.218375 0.0653992 -1.20848e-21)
(1.02885 -0.00881153 0)
(1.00635 0.000329064 5.2744e-22)
(0.547818 0.0698038 -1.61108e-23)
(0.429553 -0.00861241 0)
(1.08951 -0.0516767 -9.81427e-21)
(1.03968 -0.0278965 6.56078e-21)
(1.00644 -0.00801982 -3.96267e-22)
(0.952705 -0.0469892 3.87766e-22)
(-0.0820268 -0.0486113 0)
(1.09202 -0.0443231 6.0919e-21)
(1.00787 -0.00113746 0)
(1.04809 -0.0481593 8.3288e-21)
(1.00523 -0.00082231 -2.34841e-23)
(1.00432 -0.000274044 0)
(1.05142 -0.0135666 -4.01302e-23)
(1.00282 7.93644e-05 1.65102e-22)
(0.954607 -0.074772 9.82845e-21)
(0.926827 -0.0605603 -3.66135e-22)
(1.0233 -0.00856126 -5.15675e-21)
(1.00483 0.000342762 0)
(1.00794 -0.0058222 1.9937e-23)
(1.03062 -0.0209773 -3.98431e-21)
(0.322267 0.00569535 1.03364e-20)
(0.482219 -0.0617016 1.42786e-20)
(1.06163 -0.0303497 0)
(0.265588 0.0521686 -4.15444e-22)
(1.01445 -0.00663605 -3.16913e-21)
(1.05972 -0.0314336 0)
(1.00774 -0.00530514 -8.10107e-23)
(1.00532 -0.000938492 -2.77617e-24)
(1.02341 -0.012643 -2.41577e-21)
(1.02274 -0.00854499 -6.80875e-22)
(0.363394 0.000953086 2.14357e-20)
(1.02467 -0.00464439 -2.74642e-21)
(1.08924 -0.0325382 -7.97024e-21)
(1.02668 -0.00460079 2.06438e-21)
(1.04106 -0.0292076 -2.07065e-21)
(1.05313 -0.00920556 -4.36233e-22)
(0.022425 -0.102036 0)
(1.00393 -0.000367548 2.31883e-22)
(0.484125 -0.0786686 8.24864e-22)
(1.01603 -0.0328372 0)
(1.07466 -0.0614445 0)
(1.05115 -0.0387496 2.57535e-22)
(1.05762 -0.0376059 8.28166e-21)
(0.28324 0.0071665 -1.04033e-20)
(1.06251 -0.0229404 2.24713e-21)
(1.03353 -0.0287852 0)
(0.488866 -0.106689 -8.41041e-21)
(0.763268 0.110154 -1.89136e-21)
(-0.0276648 -0.0641498 -4.6456e-22)
(1.06389 -0.0430007 -2.86643e-21)
(0.923844 -0.0915169 0)
(1.02029 -0.0159566 1.24499e-21)
(1.08335 -0.0293809 -9.7481e-21)
(1.08184 -0.0384632 -1.47135e-20)
(0.216187 0.0686806 0)