/*--------------------------------*- C++ -*----------------------------------*\
| =========                 |                                                 |
| \\      /  F ield         | OpenFOAM: The Open Source CFD Toolbox           |
|  \\    /   O peration     | Version:  v2012                                 |
|   \\  /    A nd           | Website:  www.openfoam.com                      |
|    \\/     M anipulation  |                                                 |
\*---------------------------------------------------------------------------*/
FoamFile
{
    version     2.0;
    format      ascii;
    class       surfaceVectorField;
    location    "700";
    object      ddtCorrDdt0(Uf);
}
// * * * * * * * * * * * * * * * * * * * * * * * * * * * * * * * * * * * * * //

dimensions      [0 1 -2 0 0 0 0];


internalField   nonuniform List<vector> 
20580
(
(-0.0346627 0.00510551 -1.10832e-18)
(-0.0363722 0.00558917 -6.00095e-18)
(-0.0351628 0.0037643 -2.04825e-17)
(-0.000399107 0.0028243 -3.49013e-18)
(-0.000349744 0.00292781 -3.35187e-19)
(-0.000485274 0.0029137 -1.85898e-17)
(-0.000484655 0.00268766 -3.74022e-18)
(-0.000343921 0.00270091 4.9487e-18)
(-0.0213481 0.00530317 -2.37155e-17)
(-0.0218187 0.00410201 2.28338e-18)
(-0.0232113 0.00554828 -3.55952e-17)
(0.000179666 -4.56739e-05 -3.52802e-20)
(0.000161177 -4.24451e-05 -5.95559e-21)
(0.000165915 -2.51827e-05 3.38953e-19)
(0.000223221 0.00449832 8.73755e-19)
(0.000442332 0.00460837 -4.19334e-18)
(0.00040042 0.00434821 2.00743e-18)
(-0.000112893 -0.000280373 -2.62672e-19)
(-5.36917e-05 -0.000362531 -5.42035e-18)
(0.000288345 5.22597e-05 2.08065e-18)
(0.000310528 4.81046e-05 2.20671e-19)
(0.000343474 2.74811e-05 -1.25245e-18)
(0.0644337 0.00694793 -6.98833e-18)
(0.0636309 0.00636627 -1.00751e-17)
(0.0671106 0.00717151 1.7412e-17)
(0.000427477 -0.00225078 -1.63159e-18)
(0.000390516 -0.00225403 1.66342e-18)
(0.000418792 -0.00222284 -3.4234e-18)
(0.0104966 0.0141741 1.80475e-18)
(0.0100524 0.0134316 -1.29758e-17)
(0.0110187 0.0134901 -1.11377e-17)
(0.000371505 -0.00094837 -5.2407e-20)
(0.000396295 -0.000960092 1.24211e-19)
(0.000398101 -0.000989901 2.06659e-19)
(0.000969429 -0.00204259 1.39096e-18)
(0.00101308 -0.00200341 1.054e-18)
(0.00100424 -0.00200849 -2.9583e-18)
(0.0837054 0.0120411 -2.21967e-19)
(0.0856304 0.0135829 1.28716e-17)
(0.0836638 0.0128446 6.89455e-19)
(-0.00674856 0.000303466 -6.16912e-18)
(-0.00716225 0.000488057 -1.16557e-18)
(-0.00669402 0.00077305 -2.96077e-17)
(0.00707786 -0.0380228 -1.19084e-18)
(0.008679 -0.0375571 -1.25191e-17)
(0.00814644 -0.0396572 -2.15724e-18)
(-0.0551971 0.00852935 2.74111e-17)
(-0.0544013 0.00986987 2.01535e-17)
(-0.0565361 0.0095128 -3.40911e-19)
(0.000479687 0.00136877 1.47597e-18)
(0.00044956 0.00137736 3.93758e-18)
(0.000509883 0.00143208 -6.23282e-19)
(-0.0266768 0.0302874 -1.19387e-18)
(-0.0264449 0.0316619 4.83124e-18)
(-0.0280125 0.0311834 6.99333e-18)
(-0.0340692 0.00694403 -3.26413e-18)
(-0.0328739 0.00485673 -1.59658e-18)
(-0.00869764 0.0039391 2.98063e-18)
(-0.00814253 0.00416733 2.9715e-18)
(-0.00819322 0.00346218 -2.88771e-18)
(0.00504672 0.00201246 -9.2651e-19)
(0.00502626 0.00179438 1.75374e-18)
(0.00484536 0.0019364 -3.6501e-19)
(-0.0515891 0.0393185 -8.38213e-18)
(-0.0558087 0.0396411 8.17448e-17)
(-0.0583449 0.042267 -2.17532e-17)
(3.36232e-06 -1.27778e-05 -3.65141e-20)
(5.67415e-06 -1.81636e-05 -5.24039e-19)
(3.31228e-06 -1.07083e-05 1.63801e-19)
(0.0170497 0.0596752 1.08206e-18)
(0.0202263 0.0574764 1.00149e-17)
(0.030238 0.0606542 -2.05732e-17)
(0.00176348 -0.0165451 4.98569e-19)
(0.00234388 -0.0173042 -1.67179e-18)
(0.00126578 -0.0174215 -8.05298e-18)
(-0.0278527 -0.0504287 6.80003e-18)
(-0.0230759 -0.0473638 -3.13713e-18)
(-0.0268613 -0.0490304 -9.02298e-18)
(0.0620583 0.00891424 -1.74515e-17)
(0.0611128 0.0113909 5.29998e-18)
(0.0844294 0.0079509 -1.79567e-17)
(0.0229289 -0.00869469 -1.77999e-17)
(0.0258639 -0.00738922 1.90619e-17)
(0.0287496 -0.00653903 -1.14163e-17)
(0.000454015 0.000793842 5.8591e-19)
(0.000485776 0.000789594 7.15672e-19)
(0.00046116 0.000762032 5.20389e-19)
(-0.0274037 0.00751063 6.53602e-18)
(-0.0279255 0.00725193 -8.47033e-18)
(-0.0271305 0.0071823 2.14348e-17)
(-0.000186257 -0.000300677 1.07993e-17)
(-0.000156163 -0.000212005 4.6541e-18)
(-0.0363865 -0.00184965 -3.80997e-18)
(-0.0364018 -0.00401957 1.04236e-17)
(-0.0343987 -0.00237043 -1.21605e-17)
(0.0510548 0.0234367 4.66494e-18)
(0.0507394 0.0239855 1.55154e-18)
(0.0492113 0.0243041 1.42017e-17)
(0.00626934 0.0101026 3.13387e-18)
(0.00582738 0.0104888 -6.78171e-18)
(0.0065537 0.0106001 -1.6729e-17)
(0.016072 -0.0103005 -6.61574e-18)
(0.0108133 -0.0122484 5.65836e-18)
(0.0129708 -0.0113027 2.67877e-17)
(1.07289e-06 -7.36663e-06 4.85687e-19)
(3.11098e-06 -1.51244e-05 2.01242e-19)
(0.0338933 0.00609504 1.86106e-18)
(0.0177291 0.00663094 2.33878e-17)
(0.017306 0.00747003 1.68542e-18)
(-0.0218061 0.0321904 -5.1716e-18)
(-0.0159299 0.0346609 -3.05173e-17)
(-0.00697905 0.0340652 -3.3075e-17)
(0.00190234 -9.38876e-05 5.85525e-19)
(0.00187536 -6.51906e-05 -2.09643e-20)
(0.00192653 -3.0522e-05 4.59272e-19)
(0.0359437 0.0288866 1.54092e-18)
(0.0367924 0.0297794 1.30359e-17)
(0.0370344 0.029069 -2.05236e-18)
(0.020089 -0.00997681 -4.12672e-18)
(0.0170628 -0.0109035 9.82812e-18)
(-0.0299912 0.0115665 1.30924e-17)
(-0.0305582 0.0119499 1.27051e-17)
(0.0187106 -0.0159613 1.24682e-17)
(0.0160939 -0.0148211 1.33678e-17)
(0.0186007 -0.0167929 1.14256e-17)
(0.0224084 -0.00956817 3.17129e-18)
(0.0251684 -0.00846797 1.40677e-17)
(0.0283568 -0.00728302 2.96839e-17)
(0.00116375 0.000416876 5.18586e-19)
(0.00117176 0.000349433 -7.42332e-19)
(0.00113758 0.000371018 1.17274e-18)
(-0.000272815 5.70695e-05 6.18819e-19)
(-0.000297261 4.69245e-05 -3.06963e-18)
(-0.00776313 -0.0379968 8.96819e-18)
(-0.00673054 -0.0395528 -8.88901e-18)
(-0.00634469 -0.0374527 7.12217e-18)
(0.00274272 0.00261734 -2.21065e-18)
(0.00263611 0.00246835 -1.99231e-18)
(0.00257517 0.00262332 -9.44444e-19)
(0.00091915 -0.00210767 2.27275e-18)
(0.000954783 -0.0020917 3.15274e-18)
(-0.0118893 0.0182826 2.18646e-17)
(-0.00951692 0.0181181 1.67349e-17)
(-0.0106 0.0156139 7.43316e-18)
(0.000595349 -0.00234442 3.81762e-19)
(0.000617396 -0.00231929 1.63615e-18)
(0.000688362 -0.00232622 6.23333e-18)
(0.0054904 -0.0387052 1.0721e-17)
(0.00647546 -0.0366874 -3.43135e-18)
(-0.000536822 -0.00296776 2.59911e-18)
(-0.000631581 -0.00321227 -2.34573e-18)
(-0.000331961 -0.00316892 9.80387e-18)
(0.0824412 0.0106244 -2.26598e-17)
(0.0805825 0.0100472 2.67191e-17)
(0.0830943 0.0103714 6.06501e-17)
(0.00195014 -0.000100791 -2.6667e-21)
(0.00188956 -0.000163303 8.28359e-20)
(-0.038446 -0.00130915 1.10887e-17)
(-0.0360967 3.80453e-05 -1.82329e-17)
(0.0350309 0.0284594 2.02926e-18)
(0.0363487 0.0276398 -2.20074e-19)
(-0.0502072 -0.0515504 -1.34476e-17)
(-0.0512235 -0.0495099 -8.82215e-19)
(-0.0482087 -0.0490818 -1.36809e-17)
(0.0692859 0.0155885 5.03954e-18)
(0.069201 0.0161633 1.16213e-17)
(0.0661999 0.016373 9.93264e-18)
(0.000346812 -0.000934177 -4.40857e-19)
(0.000346055 -0.000906569 4.14495e-19)
(-0.0322084 -0.0527153 -2.48976e-18)
(-0.0294154 -0.0515667 2.66304e-18)
(0.0001094 -0.00185342 5.51824e-21)
(0.000130814 -0.00184454 -3.10721e-18)
(0.000131831 -0.00192172 -4.52316e-18)
(0.00287332 0.00254914 -3.15149e-18)
(0.00285603 0.00270775 3.00754e-18)
(0.00916231 -0.0156262 4.72569e-19)
(0.0100932 -0.0153529 -1.46041e-18)
(0.00940543 -0.0147652 -5.43222e-18)
(0.00831195 -0.015776 3.70786e-19)
(0.00893177 -0.0165385 -5.12446e-19)
(0.0676184 0.0156414 -2.02839e-17)
(0.0700576 0.0137581 -9.50896e-18)
(0.00182197 -0.00960008 1.52365e-17)
(0.00200486 -0.00980178 5.2092e-18)
(0.00188278 0.0010333 -2.42985e-18)
(0.00192569 0.000943731 2.28082e-18)
(0.00183684 0.000960567 -5.75462e-19)
(-0.0302183 0.007474 7.47912e-18)
(-0.0300091 0.00809187 1.77788e-17)
(-0.030977 0.00873477 3.6412e-17)
(-0.0326474 0.00353897 -1.57557e-17)
(-0.0354826 0.00431751 -4.73232e-17)
(-0.0334597 0.00318131 6.34079e-18)
(-0.0108776 0.00513062 -1.64959e-18)
(-0.0106424 0.00578225 -1.29573e-17)
(-0.0114559 0.00574019 -1.17575e-17)
(0.00136264 -0.00127067 -5.32039e-19)
(0.00134689 -0.00131991 5.50148e-19)
(0.00139513 -0.0012763 -2.02191e-18)
(0.0717779 0.0160474 -4.26993e-18)
(0.0723778 0.0134389 -3.93927e-18)
(-0.00222981 -0.00339661 9.68754e-18)
(-0.00226335 -0.00305291 -2.26816e-18)
(-0.00253674 -0.00324676 7.5814e-19)
(0.00385636 0.00101229 -8.08099e-19)
(0.00377064 0.000886025 -1.40911e-19)
(0.00370822 0.00103549 9.1273e-19)
(-0.0524566 0.00770659 1.93626e-17)
(-0.0523795 0.00719952 -3.50014e-17)
(7.5202e-05 0.000523348 7.38316e-19)
(0.000106398 0.000546573 2.23175e-18)
(8.04088e-05 0.0005525 4.0167e-18)
(0.0130432 0.0602326 -5.61844e-21)
(0.0151879 0.056301 3.62752e-19)
(0.00102696 -0.00068284 1.57737e-19)
(0.000994623 -0.000718361 5.49503e-21)
(0.00100962 -0.000759503 -5.58095e-21)
(0.00192227 0.0011266 -1.59966e-18)
(0.00193078 0.00103514 1.97836e-18)
(0.0283287 0.0292646 4.23347e-18)
(0.027576 0.0312638 7.12509e-17)
(0.0299792 0.0302408 3.87051e-17)
(0.0061718 0.00969789 1.86908e-17)
(0.00673166 0.00980058 -4.37186e-18)
(0.0841202 0.0135029 -1.81021e-17)
(0.0835347 0.0131718 4.81081e-17)
(0.0815694 0.0133435 4.93449e-17)
(0.0720007 0.0162637 1.95145e-17)
(0.0682836 0.0163597 -1.35777e-17)
(-0.0290943 0.00583792 2.84648e-17)
(-0.0294844 0.00486531 -1.09281e-17)
(-0.0284046 0.0049107 1.77343e-17)
(0.00525284 0.00207386 2.03701e-18)
(0.00503145 0.00222506 -2.78703e-18)
(0.0459415 0.00755394 -3.08815e-17)
(0.0492209 0.00957222 -6.16631e-17)
(0.0473618 0.0074161 -5.00866e-18)
(0.000627479 -0.00211324 -8.43844e-19)
(0.000651509 -0.00207839 -2.62208e-18)
(0.000605857 -0.00210561 -1.00506e-18)
(-0.02766 0.0086719 1.60655e-17)
(-0.0277666 0.00839521 -3.1627e-17)
(0.000594956 -0.00235012 7.90676e-19)
(0.000534858 -0.00236993 -3.94047e-18)
(-0.000258745 -0.000306458 -3.3822e-18)
(-0.000202419 -0.000396053 9.99574e-18)
(-0.0349995 0.0152715 1.49469e-17)
(-0.0322784 0.0152869 -1.57135e-17)
(-0.0289345 0.00691774 -1.91627e-17)
(-0.0304274 0.00682875 3.83476e-18)
(-0.00453482 0.0345752 1.72238e-18)
(-0.0088091 0.0335364 -2.6534e-17)
(-0.00966933 0.0315699 -3.0942e-17)
(0.0189751 -0.0148807 1.23734e-17)
(0.018703 -0.0138782 1.7255e-18)
(0.0179165 -0.0144408 3.96851e-18)
(0.00128263 -4.31399e-05 -1.48005e-19)
(0.00128206 -9.24105e-05 -1.13957e-18)
(0.00131362 -3.23423e-05 1.65335e-19)
(-0.00129962 -0.0407007 -4.80286e-18)
(0.000555945 -0.0403317 -3.67078e-18)
(-0.000246511 -0.0390051 -1.29535e-17)
(0.0233781 0.016872 2.33257e-18)
(0.0251946 0.0167605 -1.53349e-17)
(0.0275586 0.0151589 -2.17124e-17)
(0.0236948 0.00810794 -1.92785e-17)
(0.0244582 0.00836605 -1.24138e-17)
(0.0243181 0.00755439 8.65185e-18)
(-0.00297913 -0.0413417 -1.03052e-17)
(-0.000868267 -0.0428345 3.9449e-18)
(0.00296199 -0.00766421 4.79498e-18)
(0.00266389 -0.00760355 -3.57701e-18)
(0.0029159 -0.00735926 3.36089e-18)
(0.0039466 -0.00789957 3.32971e-18)
(0.00358405 -0.007658 1.29731e-17)
(0.00352055 -0.00817766 1.30783e-17)
(0.00137232 -0.00148369 -6.71736e-20)
(0.00140532 -0.00141965 -1.59137e-18)
(0.00146093 -0.00142985 -1.92304e-18)
(0.00107767 0.000660709 -8.22202e-19)
(0.00109458 0.000723198 9.20354e-19)
(0.00104194 0.000716538 9.76105e-19)
(-0.00777031 0.00876244 2.60822e-18)
(-0.00739906 0.00931435 1.24652e-17)
(-0.00819507 0.00920796 4.9095e-18)
(0.001054 0.000612759 2.57836e-18)
(0.00109492 0.000591761 7.83523e-19)
(-0.0317319 0.00376862 8.87017e-18)
(-0.0300627 0.00249066 -2.08473e-17)
(-0.000293943 -0.00022175 -1.54468e-17)
(-0.000332474 -0.000305613 7.05544e-19)
(0.000493353 0.00134712 -2.67835e-18)
(0.000439403 0.00133346 6.22266e-19)
(0.00710673 0.000415668 1.32431e-19)
(0.00742821 0.000379425 -1.14036e-18)
(0.00726457 0.000185849 -4.57978e-19)
(0.00113222 0.000497208 -1.36552e-19)
(0.00118854 0.000501338 7.61837e-19)
(-0.00194805 0.034482 4.47228e-18)
(-0.00349684 0.0348058 1.35086e-17)
(-0.00236728 0.0361457 4.97417e-19)
(0.00078009 0.0177948 1.15867e-17)
(0.000399569 0.0171619 -1.89607e-17)
(0.00120468 0.0171283 4.36413e-18)
(-0.0340957 -0.0165662 5.71809e-18)
(-0.0332435 -0.018453 -7.90481e-18)
(-0.0357106 -0.0180615 -7.6082e-18)
(-0.00045557 -0.00270989 -1.43993e-18)
(-0.00072158 -0.00271427 2.42116e-18)
(0.000478515 0.000386087 2.07863e-18)
(0.000500812 0.000377693 8.54563e-19)
(0.000486595 0.000413636 -1.55907e-19)
(0.000261861 5.31848e-05 1.5852e-18)
(0.000250566 7.90248e-05 2.01251e-18)
(-0.0215499 0.00694613 2.16554e-17)
(-0.0199102 0.00581296 1.19289e-17)
(-0.0301756 0.00694107 -2.03594e-17)
(-0.0318594 0.00626783 1.18566e-17)
(0.0207884 -0.00938567 7.07604e-18)
(0.0201451 -0.0101793 1.13501e-17)
(0.0213144 -0.0102465 -9.05628e-19)
(0.000455428 0.00114461 -2.99476e-18)
(0.000476462 0.00111951 -1.50817e-18)
(0.000425397 0.00110221 4.51401e-19)
(0.00194034 0.000618352 6.57574e-19)
(0.00196124 0.00070768 -2.55037e-19)
(0.00200564 0.000617202 -7.63449e-20)
(0.0650095 0.0190878 -7.91925e-18)
(0.0624503 0.0199908 -5.0311e-18)
(0.0635721 0.0194652 3.18258e-17)
(-0.0267006 0.0241239 -1.40583e-18)
(-0.026274 0.0242811 1.37251e-17)
(-0.0266171 0.0245695 3.19654e-17)
(0.00193137 -0.0115024 -1.07024e-17)
(0.00208128 -0.0113559 6.5696e-18)
(0.00230623 -0.011553 -1.76173e-17)
(0.00125688 5.95553e-05 -2.89926e-19)
(0.00121335 -6.96968e-05 4.77165e-19)
(0.0137375 0.0065634 -5.94255e-18)
(0.0131607 0.00688362 -7.92447e-18)
(0.0133273 0.00618578 1.23529e-17)
(0.0507577 0.0252158 2.17044e-18)
(0.0520598 0.0244743 1.50666e-17)
(0.0498443 0.0256544 -6.1055e-18)
(-0.0104698 0.000906656 2.25661e-19)
(-0.0111104 0.00086043 1.23187e-17)
(-0.0105297 0.0015128 2.47311e-18)
(0.0050311 0.00159871 -1.0877e-18)
(0.00525444 0.00171217 9.63326e-19)
(0.00340111 0.00697132 -8.13794e-18)
(0.00298302 0.00714013 4.59917e-18)
(0.00309824 0.00671961 6.11382e-18)
(0.0458869 0.00587774 -3.29511e-17)
(0.0468908 0.00686848 -2.34836e-17)
(0.0509705 0.0228598 -1.427e-17)
(0.0532709 0.022454 1.42667e-17)
(0.0108203 0.0147298 -5.70473e-18)
(0.0100695 0.0146481 -3.67849e-18)
(-0.0128435 0.0368336 4.78341e-19)
(-0.0168875 0.035013 -4.04052e-19)
(-0.020757 0.0346823 -1.60022e-17)
(0.00190202 -0.00936139 2.71333e-17)
(-0.0296391 0.00441137 -3.66233e-17)
(-0.0309961 0.00511999 1.1108e-18)
(0.00277949 -0.00611789 3.63945e-18)
(0.00260001 -0.00648331 1.00734e-17)
(0.00237386 -0.00611781 -4.13845e-18)
(-0.0102623 -0.000620613 -5.16123e-18)
(-0.00966939 -0.000824988 -1.09474e-19)
(-0.0102383 -0.00135589 8.73364e-18)
(0.0290567 0.0273219 -4.85511e-17)
(0.0267095 0.0283885 -5.13559e-17)
(0.0021291 -0.001713 -3.47088e-18)
(0.00203972 -0.00173584 1.73739e-20)
(0.00208912 -0.00163806 6.05193e-18)
(0.000606343 -0.00213607 1.88801e-18)
(0.000651442 -0.00211455 -9.88713e-19)
(0.00508725 -0.0118621 1.17082e-17)
(0.00473732 -0.012234 1.43294e-19)
(0.00528504 -0.0122493 1.20294e-17)
(-0.0249615 0.0721096 8.04695e-19)
(-0.00822374 0.0750463 1.2246e-17)
(-0.0121538 0.0739217 -1.02182e-17)
(0.00354024 0.000266363 -5.33836e-19)
(0.00366058 0.000252735 1.183e-18)
(0.00358277 0.000103273 -7.34422e-19)
(4.78946e-05 0.000502124 -5.24815e-18)
(6.77571e-05 0.000499909 -4.50718e-18)
(-0.0291801 0.00778392 4.74682e-20)
(0.0583791 0.00331199 -8.54094e-18)
(0.0589458 0.00323005 2.09173e-18)
(0.0614677 0.00475717 3.44032e-18)
(0.0143321 0.00640822 1.39481e-17)
(0.0140198 0.00703451 -1.69915e-17)
(-0.00397968 -0.0403411 -1.04784e-17)
(-0.00456064 -0.0422157 1.42484e-18)
(-0.000333868 0.0342752 1.22255e-17)
(-0.00158903 0.0331252 -5.57131e-18)
(0.0011975 0.018443 1.15041e-17)
(0.000323725 0.0184759 -2.05922e-18)
(-0.0251655 0.0274002 3.80655e-18)
(-0.0247421 0.0284872 -8.38753e-19)
(-0.0240682 0.027573 1.92272e-17)
(0.00103552 -0.0021258 3.69972e-19)
(0.00109132 -0.00210921 6.14163e-18)
(0.00106242 -0.00212506 5.23389e-18)
(0.000500295 -0.00231519 1.70662e-19)
(0.000446048 -0.0023303 -1.50729e-18)
(0.000449765 -0.00233666 -5.64992e-18)
(0.000285864 -0.000736688 -7.4728e-20)
(0.000289659 -0.000763523 -2.94213e-19)
(0.000259371 -0.000715289 -3.02154e-19)
(-0.0271064 0.0297685 3.78943e-17)
(-0.0325655 0.0293668 4.84102e-17)
(-0.00899656 2.08162e-05 1.16527e-18)
(-0.00919588 -0.00046422 6.93725e-18)
(-0.00874761 -0.000438635 1.14144e-18)
(-0.000704815 0.000393902 -4.25968e-19)
(-0.00073217 0.000330283 -3.10579e-18)
(-0.000779215 0.000418415 5.44425e-18)
(8.25532e-06 -3.52727e-05 2.42464e-19)
(8.58117e-06 -3.06197e-05 3.62185e-19)
(1.34393e-05 -4.42505e-05 -8.56275e-20)
(0.0211301 -0.00851812 -1.18791e-17)
(0.0238431 -0.00798819 3.85427e-17)
(0.0174278 -0.0103924 6.32458e-19)
(-0.00810272 0.00829265 5.48904e-18)
(-0.0074598 0.00841129 2.11672e-17)
(-0.00883989 -0.0362637 2.75538e-18)
(-0.00979205 -0.0384492 9.58278e-18)
(0.0831448 0.0112697 1.45224e-18)
(0.0863136 0.00896721 -1.34107e-18)
(0.0522475 0.00206201 3.07993e-20)
(0.0557684 0.00281117 1.33966e-17)
(0.0510079 0.00151381 -7.25464e-19)
(0.0539805 0.00300018 1.39621e-18)
(0.0487221 0.00151829 2.6368e-18)
(-0.0142981 0.0182233 -2.82075e-17)
(-0.0134511 0.0205199 -5.40217e-18)
(0.00693388 0.000649852 2.55332e-18)
(0.00678807 0.00042082 -3.91353e-19)
(0.116288 0.00775209 4.90114e-18)
(0.11722 0.0078173 2.67478e-18)
(0.116109 0.00859076 1.12025e-17)
(0.000322603 -0.000917224 3.58899e-19)
(0.000299449 -0.000899306 3.72849e-19)
(0.000296151 -0.000870186 3.02043e-19)
(0.000453156 0.000400879 -5.72918e-19)
(0.000471578 0.000362246 4.42859e-18)
(-0.0083964 0.013238 1.27684e-17)
(-0.00776755 0.0137344 3.61973e-18)
(-0.00769545 0.0128786 -6.33146e-19)
(9.58614e-05 -3.312e-05 3.71625e-19)
(8.67207e-05 -4.2795e-05 6.74191e-19)
(7.98511e-05 -2.79571e-05 -2.97786e-19)
(-0.000808629 0.0348957 -1.1273e-17)
(0.00255902 0.0365968 2.47371e-18)
(0.0138146 -0.0245918 -2.91637e-18)
(-0.024357 -0.0263853 1.20024e-17)
(0.00693347 -0.0283809 1.24851e-17)
(-0.0166026 -0.0423842 -1.37445e-18)
(-0.0188694 -0.0421933 -3.35797e-17)
(-0.0173529 -0.0446865 -1.4659e-18)
(0.000430219 0.000413243 -1.89134e-18)
(0.00044045 0.000436179 5.96703e-19)
(-0.00162203 -0.00360448 -7.81321e-18)
(-0.00193826 -0.00350917 1.98155e-18)
(-0.0016689 -0.00328913 -7.98203e-18)
(-0.0140654 -0.0423558 3.07384e-17)
(-0.0153373 -0.040115 3.22638e-18)
(-0.0272141 0.0241322 -2.71099e-17)
(-0.0264424 0.0236407 -3.97732e-17)
(0.0196947 -0.0155675 -7.0636e-18)
(0.00681258 0.000905356 -4.33563e-19)
(0.0065334 0.000908228 1.27695e-18)
(0.00666972 0.00114324 -1.74327e-18)
(-0.0103566 4.31005e-05 9.28064e-18)
(-0.00971482 0.000707533 6.63485e-18)
(-0.0454823 0.0109068 2.58241e-17)
(-0.0440424 0.0107019 3.40371e-18)
(0.0555315 0.00189714 -1.77665e-17)
(0.058537 0.00323853 1.05829e-17)
(-0.0360314 -0.00578868 -3.37857e-18)
(-0.0383131 -0.00527058 -5.08457e-19)
(0.00231816 -0.00473666 -1.57472e-17)
(0.00218047 -0.00480363 -1.52585e-18)
(0.00236457 -0.00488293 -8.45647e-18)
(0.00120037 -0.00202391 2.27255e-18)
(0.00111261 -0.0020671 6.29652e-18)
(0.00113283 -0.00201021 2.21491e-18)
(0.000750732 0.000732703 4.3661e-18)
(0.00078309 0.000740811 1.41474e-18)
(0.000749384 0.000782433 2.25695e-19)
(-0.0228181 0.0676593 -8.26779e-18)
(-0.0292283 0.0678079 -2.32763e-18)
(-0.00912375 0.000525613 3.03666e-18)
(-0.0085662 0.000456914 -2.60788e-18)
(0.0881122 0.0118432 1.9987e-17)
(0.0850017 0.0160768 2.46301e-17)
(4.25458e-05 0.004352 -1.26393e-17)
(4.10544e-05 0.00458877 5.59431e-19)
(0.00341312 0.000270454 -1.22634e-19)
(0.00348899 0.000397845 1.98923e-19)
(0.00216468 -0.0399161 -6.1475e-18)
(0.00399059 -0.039291 1.03157e-17)
(0.00325407 -0.0379129 2.68936e-18)
(-0.0356534 -0.00706058 -6.86087e-18)
(-0.0341637 -0.00574197 -2.14804e-17)
(-0.000107335 0.00110085 -4.73291e-18)
(-0.0001141 0.00114008 4.80346e-18)
(-7.79567e-05 0.001156 -5.46828e-18)
(0.000841579 0.00188394 -6.83571e-18)
(0.000885616 0.00184807 4.28619e-19)
(0.00080425 0.00181937 3.87076e-18)
(0.00224579 -0.00992656 -3.29414e-18)
(0.00269187 -0.00981616 9.34994e-18)
(0.00260687 -0.010228 -5.20749e-18)
(0.0296909 0.0256988 -7.76313e-18)
(0.0300496 0.0238173 1.94154e-17)
(0.028082 0.0248702 -2.65862e-17)
(0.0151391 0.0261754 -6.29506e-18)
(0.0171281 0.0270774 4.50296e-18)
(0.0193513 0.0267387 -1.53134e-17)
(0.0321513 0.027421 3.45258e-19)
(0.0309526 0.0270747 -2.31016e-17)
(0.0326086 0.0282157 -3.72883e-17)
(-0.00633855 0.000100458 2.2203e-17)
(-0.0067422 -0.000225504 7.45458e-18)
(0.0123239 -0.0280396 7.68511e-18)
(0.0118997 -0.0261749 4.58923e-18)
(0.0106206 -0.0274676 2.08673e-17)
(0.0120522 0.0256369 -3.30808e-18)
(0.0140752 0.0256586 -1.62358e-18)
(0.000945925 -0.00315474 5.24629e-20)
(0.00088185 -0.00309213 2.35781e-18)
(0.000804816 -0.00318075 1.223e-17)
(-0.00840767 -0.00488897 -1.76399e-19)
(-0.00865695 -0.00426527 -1.29002e-18)
(-0.0080376 -0.00458467 -4.00187e-18)
(0.0663417 0.00803654 1.3091e-17)
(0.0640277 0.00808511 2.1247e-17)
(0.067493 0.00872399 3.15069e-18)
(0.00118018 0.00435951 2.15901e-18)
(0.001344 0.0045086 8.40916e-18)
(0.00137278 0.00428343 8.48408e-18)
(0.0102936 -0.0371341 -2.21373e-18)
(0.0120275 -0.037087 1.48488e-17)
(0.0110851 -0.0389107 1.06341e-17)
(0.00193082 0.000543171 -3.34646e-19)
(0.00188612 0.000614439 7.05853e-19)
(0.0310733 0.0265428 -1.19406e-17)
(2.33561e-05 -0.000218973 -3.70109e-19)
(3.1841e-05 -0.000260819 3.4773e-20)
(3.18007e-05 -0.000273509 1.28887e-18)
(0.00556048 0.0107591 -5.25281e-18)
(0.00503888 0.0112197 2.81274e-18)
(0.00586188 0.0113128 -1.64962e-17)
(0.00415272 0.0010885 4.53234e-18)
(0.00418955 0.00123188 8.11609e-19)
(0.00433105 0.00111965 -4.35173e-19)
(0.000857415 -0.00213185 -4.35199e-20)
(0.00090902 -0.00207668 -1.03107e-18)
(-0.0408934 0.016032 -1.51421e-17)
(-0.0427557 0.0164753 -1.69512e-18)
(-0.0411795 0.0180751 -8.61877e-18)
(0.000303657 0.001642 4.87892e-18)
(0.000291648 0.00158086 -8.5383e-20)
(0.000233908 0.00158216 2.42956e-18)
(-0.00128746 -0.0115045 2.22847e-17)
(-0.000944068 -0.0115057 5.85215e-18)
(0.000422668 0.000389172 -6.68468e-19)
(0.000403989 0.000423703 -2.11303e-18)
(-0.0332965 0.00828225 -8.97601e-19)
(-0.0324407 0.00970639 4.74589e-18)
(-0.0315921 0.00794655 2.22305e-17)
(0.0838381 0.0140425 -6.80989e-17)
(0.090128 0.0125344 -6.20903e-17)
(-0.0105627 0.0345748 -1.35703e-17)
(-0.0142448 0.0349327 1.50028e-17)
(-0.00524418 0.0370633 1.46667e-17)
(0.00261391 -0.00458537 6.70668e-18)
(0.00260724 -0.00437393 3.15991e-18)
(0.00280892 -0.00450109 -1.36899e-18)
(-0.00808162 -0.00551336 9.87258e-18)
(-0.00883537 -0.00526128 -1.01036e-17)
(1.00856e-05 -0.000130487 -7.40155e-20)
(5.14945e-06 -9.1107e-05 -2.92369e-19)
(5.77252e-06 -9.50016e-05 -1.92468e-19)
(0.00505686 -0.01141 9.02124e-19)
(0.00465987 -0.0115981 -2.80742e-17)
(0.000729254 -0.00122313 3.35852e-19)
(0.000692835 -0.00121541 -5.09568e-20)
(0.00072607 -0.00118396 -6.64179e-20)
(0.00536302 0.0105068 -3.48075e-19)
(-0.0438122 -0.00158805 1.1603e-17)
(-0.0266679 -0.000118831 -2.41227e-17)
(-0.0297513 -0.00259416 -2.25297e-17)
(0.00248184 -0.00467516 -4.30672e-18)
(0.00230202 -0.00457612 4.91821e-18)
(0.00110936 0.00417488 6.89262e-18)
(0.000997755 0.00429788 -5.7997e-18)
(3.58093e-05 -0.00166541 -1.40902e-18)
(4.7597e-05 -0.00173764 -2.67846e-18)
(0.0327431 0.0263737 1.91546e-17)
(0.0331003 0.0276661 2.50522e-17)
(0.000438131 0.000820228 -1.24783e-18)
(0.000418339 0.000791448 -5.92524e-19)
(-0.0507001 0.0229136 2.39343e-17)
(-0.0309766 0.0179865 1.98161e-18)
(0.0300035 0.0267596 5.66625e-18)
(0.0289466 0.0264125 1.43071e-17)
(0.030646 0.0273805 -8.97235e-18)
(0.0229028 0.0077927 -4.857e-17)
(0.023075 0.00871132 -4.62916e-18)
(7.94219e-06 -3.94077e-05 -1.37511e-19)
(4.44188e-06 -2.63893e-05 -3.05334e-21)
(0.0407565 -0.00213337 -2.19155e-18)
(0.0436981 -0.000660533 -2.48294e-17)
(0.0477189 -0.00313919 -2.67052e-17)
(0.0721417 0.0162033 9.43818e-18)
(0.0724457 0.0155287 -1.62381e-17)
(0.0693639 0.0168356 4.79958e-19)
(0.0156864 -0.0117696 -3.77113e-18)
(0.0195641 -0.0104798 -6.6876e-18)
(0.00998819 -0.0357909 -1.33681e-17)
(-0.004206 0.00496277 -1.3399e-18)
(-0.00394364 0.0053074 -1.80615e-17)
(-0.00387181 0.00483741 1.36894e-17)
(0.00460491 -0.0130712 -3.92945e-19)
(0.00437267 -0.0127127 -1.10582e-17)
(0.00398899 -0.0130483 7.71061e-20)
(-0.0404716 0.0141309 -1.14982e-17)
(-0.0390596 0.0155393 8.48058e-18)
(-0.00154612 -0.00392369 1.58721e-17)
(-0.00128163 -0.00367741 -1.64901e-18)
(0.0193304 -0.0133334 -2.02765e-17)
(0.0184857 -0.0130982 -3.56816e-17)
(0.00817831 0.00145483 -2.20193e-18)
(0.00798234 0.00115731 -2.44478e-19)
(0.00777863 0.00150189 -3.57041e-18)
(0.0687674 0.00924339 3.39882e-18)
(0.0707468 0.0110003 1.7645e-17)
(0.069144 0.0101637 -5.90969e-18)
(-0.0225685 0.0203595 6.57693e-18)
(-0.0236936 0.0195665 1.67466e-17)
(-0.0219771 0.0192505 -4.0749e-17)
(0.000457095 1.06559e-05 4.58035e-19)
(0.000435865 2.29452e-05 -4.00739e-19)
(0.000436651 1.979e-05 9.9166e-19)
(-0.00178618 0.00276929 1.42741e-17)
(-0.00167748 0.0026315 6.46513e-18)
(-0.00159504 0.00282278 1.04194e-17)
(0.0021747 -0.04186 5.12018e-18)
(0.0196693 -0.0084891 -3.19052e-17)
(0.0245577 -0.00677844 5.90563e-18)
(0.0142675 0.00471889 -3.87162e-18)
(0.0127868 0.00236986 -5.05476e-18)
(0.0110544 0.00393545 -2.37142e-17)
(0.000757359 0.000691485 3.23606e-18)
(0.000723221 0.000729802 -2.30363e-18)
(0.00191641 -0.0117613 1.28222e-18)
(0.000668804 -0.00204689 1.94822e-18)
(0.000687457 -0.00201556 4.27376e-19)
(0.000646658 -0.00204066 5.15858e-19)
(-0.0495811 -0.00562364 -1.06941e-17)
(-0.0490807 -0.00294412 5.38761e-18)
(-0.0469486 -0.00481441 -1.39074e-17)
(-0.0260677 0.0245417 3.13651e-20)
(-0.0258522 0.0251636 4.52537e-18)
(-0.0254566 0.0245104 1.53559e-17)
(-0.00188148 0.00291522 1.78887e-17)
(-0.00194183 0.00271854 -7.30198e-18)
(-0.00855128 0.00775546 1.9684e-18)
(-0.00901287 0.008262 2.51207e-17)
(-0.0219571 0.0211191 4.01541e-17)
(-0.0230783 0.0211192 3.25758e-17)
(0.0013002 -0.00103589 1.09058e-18)
(0.0013276 -0.000969129 1.53354e-18)
(0.00128483 -0.00102204 -6.60559e-19)
(0.00326773 -0.00764095 1.02348e-17)
(0.00301911 -0.00793669 -9.13901e-18)
(-0.0114642 -0.0315479 4.17392e-19)
(-0.0104844 -0.0332261 -1.49355e-17)
(-0.00976249 -0.0312676 -8.8724e-18)
(0.0672301 0.018676 1.20215e-17)
(0.0672293 0.0175472 6.59919e-19)
(0.0234046 0.0249632 1.75475e-17)
(0.000402244 -0.00163541 -4.03009e-19)
(0.000381094 -0.00158003 -1.12554e-20)
(0.000366594 -0.00160052 -1.85307e-19)
(0.000828227 -0.00213624 -1.73182e-18)
(0.000792773 -0.00215038 6.72018e-19)
(0.00267612 -0.00477012 -1.23143e-17)
(0.0578228 0.00945314 -2.83062e-18)
(0.0568231 0.00856216 -1.56516e-17)
(0.0541282 0.00889143 3.08065e-18)
(-0.0250083 0.00912101 -3.5239e-19)
(-0.0240411 0.0102151 1.7938e-17)
(-0.026086 0.00961344 2.42062e-17)
(-0.0102766 0.00334245 -1.36909e-19)
(-0.00968572 0.00337767 1.03844e-17)
(-0.0101116 0.00401539 -9.19426e-18)
(0.000436985 0.0011617 3.02414e-19)
(0.000484936 0.00118624 -8.36017e-19)
(-0.0275225 0.0239176 -7.02949e-18)
(-0.0274368 0.0242451 -7.14948e-18)
(-0.0254268 0.0264886 -2.85021e-18)
(-0.025698 0.0256985 2.19318e-18)
(-0.0248535 0.0257977 -1.66809e-18)
(-0.0324528 -0.0108912 7.38008e-18)
(-0.0315468 -0.0130698 7.45011e-18)
(-0.0302847 -0.0112157 -1.56575e-17)
(-0.00896936 0.00719044 -2.90174e-18)
(-0.00820404 0.00728161 -1.67789e-18)
(0.0587421 0.0103389 7.72351e-18)
(0.0612968 0.0100189 1.29906e-17)
(0.0382743 0.0161424 -2.67819e-17)
(0.0397219 0.0161167 -1.84436e-18)
(0.0429361 0.0146339 5.13216e-18)
(-0.00143386 0.00379428 -2.63948e-18)
(-0.0012944 0.00396166 2.67064e-18)
(-0.00151282 0.00394071 -9.68643e-19)
(-0.00535491 0.000469146 4.06072e-18)
(-0.00572833 0.000511003 2.25656e-17)
(-0.00547164 0.000119529 1.066e-17)
(0.0161741 0.0103136 2.25401e-18)
(0.0117487 0.00878113 1.16915e-17)
(-0.0099321 0.0148346 1.46246e-17)
(0.000956352 0.000841521 -3.13907e-18)
(0.000986286 0.00088496 -6.50357e-18)
(0.000993556 0.000802407 1.06336e-18)
(0.000280538 -0.000705645 -7.97718e-20)
(0.000274494 -0.000677535 1.80666e-20)
(0.000249946 -0.000660623 8.75166e-20)
(-0.0331709 -0.00947766 -3.67758e-18)
(-0.0342809 -0.011228 6.60773e-18)
(0.0117667 0.0108559 -1.73882e-17)
(0.0109126 0.0109242 -5.11273e-18)
(0.0112546 0.0101735 -1.06595e-18)
(0.000419798 0.000846766 -5.52282e-19)
(0.0004053 0.000870411 1.14508e-18)
(0.000383936 0.000840261 -1.14283e-18)
(3.60489e-05 -0.000252983 -2.28463e-19)
(3.33098e-05 -0.000257 1.2192e-19)
(2.26322e-05 -0.000208011 -2.48928e-19)
(0.000760308 -0.0012239 4.28996e-19)
(0.000729886 -0.00126262 1.2115e-19)
(0.000335668 -4.94587e-05 -9.8713e-20)
(0.000354888 -4.79248e-05 2.82242e-19)
(0.000330223 -2.94931e-05 6.38056e-19)
(-0.00466676 0.00335651 -1.67205e-18)
(-0.00490308 0.00363825 -3.54753e-18)
(-0.00506397 0.00320688 1.62927e-17)
(0.000312219 -0.000751646 -2.18905e-19)
(0.065255 0.00746005 -9.56539e-18)
(0.0616777 0.00675595 -1.38004e-17)
(-0.00920663 0.00431161 -7.74072e-18)
(-0.0092028 0.00359875 1.61403e-17)
(0.00158875 0.000262068 -3.33522e-19)
(0.00159797 0.000174124 3.64878e-19)
(0.00164989 0.000267028 -2.90154e-19)
(0.0205281 -0.00757327 -1.59578e-17)
(0.0664509 0.0184156 -2.90142e-17)
(0.0674354 0.0180748 -7.10657e-18)
(0.000863812 -0.00222207 2.18873e-18)
(0.000940208 -0.00221336 2.06652e-18)
(0.000906853 -0.00219424 -4.86731e-19)
(-0.0349269 0.00875647 1.72364e-18)
(0.00837152 0.0170375 -2.83338e-19)
(0.0107834 0.0158701 1.37852e-17)
(0.00943407 0.0166039 3.60164e-17)
(0.00215188 -0.0017525 2.56649e-18)
(0.00220493 -0.00167616 -3.31443e-19)
(0.000790323 -0.00222768 5.87638e-19)
(0.000827345 -0.00227921 4.7157e-18)
(-0.00933472 0.00497975 -1.02071e-18)
(-0.00980606 0.00457071 -1.32974e-17)
(0.0846306 0.0131189 -1.23469e-17)
(0.0834461 0.01407 2.09412e-17)
(0.081577 0.0141541 9.98132e-18)
(-0.00881779 0.00581605 1.03734e-18)
(-0.0103593 0.00350722 5.75856e-17)
(-0.0115261 0.00459359 1.17744e-17)
(-0.011883 0.0123513 -2.0031e-17)
(-0.011934 0.0133777 -3.18361e-17)
(-0.0111223 0.0127845 7.91607e-18)
(0.000201547 -4.4058e-05 6.84132e-19)
(0.000193842 -6.32388e-05 -5.27326e-19)
(0.115301 0.00809729 -4.75157e-18)
(0.113384 0.0067372 4.74437e-18)
(0.000349379 -0.000966348 -2.55687e-19)
(-0.0120075 0.0141514 -1.5855e-17)
(-0.011389 0.0146349 1.15917e-17)
(-0.012199 0.0150511 2.66164e-17)
(0.00630797 0.016956 -1.32209e-17)
(0.00587785 0.0190182 -2.66862e-17)