/*--------------------------------*- C++ -*----------------------------------*\
| =========                 |                                                 |
| \\      /  F ield         | OpenFOAM: The Open Source CFD Toolbox           |
|  \\    /   O peration     | Version:  v2012                                 |
|   \\  /    A nd           | Website:  www.openfoam.com                      |
|    \\/     M anipulation  |                                                 |
\*---------------------------------------------------------------------------*/
FoamFile
{
    version     2.0;
    format      ascii;
    class       volVectorField;
    location    "1000";
    object      cellDisplacement;
}
// * * * * * * * * * * * * * * * * * * * * * * * * * * * * * * * * * * * * * //

dimensions      [0 1 0 0 0 0 0];


internalField   nonuniform List<vector> 
13917
(
(0 -1.4717e-05 0)
(0 2.9081e-05 0)
(0 -1.43685e-05 0)
(0 -2.65557e-05 0)
(0 9.74249e-05 0)
(0 3.1022e-05 0)
(0 -1.60625e-05 0)
(0 1.92974e-05 0)
(0 -2.25393e-05 0)
(0 -1.46927e-05 0)
(0 1.93701e-05 0)
(0 -2.27874e-05 0)
(0 -5.42165e-06 0)
(0 1.37127e-05 0)
(0 4.23562e-05 0)
(0 -1.47267e-05 0)
(0 1.23153e-05 0)
(0 1.72955e-05 0)
(0 -1.35676e-05 0)
(0 -1.46918e-05 0)
(0 4.08967e-06 0)
(0 5.71211e-05 0)
(0 -1.29872e-05 0)
(0 5.87027e-05 0)
(0 -1.33896e-05 0)
(0 6.63782e-06 0)
(0 -5.67633e-06 0)
(0 -1.46928e-05 0)
(0 1.22173e-05 0)
(0 1.96754e-05 0)
(0 -1.46927e-05 0)
(0 -1.39686e-05 0)
(0 -2.01466e-05 0)
(0 -1.4722e-05 0)
(0 0.000156592 0)
(0 2.08509e-05 0)
(0 7.60123e-06 0)
(0 -3.33787e-07 0)
(0 -1.62332e-05 0)
(0 -3.71206e-06 0)
(0 5.94958e-06 0)
(0 0.000232684 0)
(0 -2.58852e-05 0)
(0 -1.38274e-05 0)
(0 -1.37708e-05 0)
(0 -1.22784e-05 0)
(0 3.69002e-06 0)
(0 -1.45784e-05 0)
(0 3.7784e-05 0)
(0 0.00015405 0)
(0 -2.24501e-05 0)
(0 -1.21826e-05 0)
(0 -1.46929e-05 0)
(0 4.6649e-06 0)
(0 2.78564e-06 0)
(0 -1.22895e-05 0)
(0 -1.46928e-05 0)
(0 -1.29237e-05 0)
(0 0.00023045 0)
(0 -1.21403e-05 0)
(0 -1.36056e-05 0)
(0 0.000215503 0)
(0 2.52753e-06 0)
(0 -1.40665e-05 0)
(0 -1.45838e-05 0)
(0 3.08893e-05 0)
(0 1.3789e-05 0)
(0 2.26761e-05 0)
(0 1.73407e-05 0)
(0 -1.47046e-05 0)
(0 -1.45267e-05 0)
(0 -1.47259e-05 0)
(0 -3.95486e-05 0)
(0 0.000225864 0)
(0 3.2358e-06 0)
(0 -6.20822e-06 0)
(0 8.56166e-05 0)
(0 0.000223388 0)
(0 -6.63718e-06 0)
(0 -1.93263e-05 0)
(0 3.03039e-05 0)
(0 1.37978e-05 0)
(0 -4.06043e-05 0)
(0 -1.46034e-05 0)
(0 -3.24956e-05 0)
(0 9.01544e-06 0)
(0 -1.39905e-05 0)
(0 -2.53172e-05 0)
(0 -3.21638e-06 0)
(0 1.5181e-05 0)
(0 2.68577e-05 0)
(0 -2.53724e-05 0)
(0 3.97475e-05 0)
(0 0.000155262 0)
(0 1.3187e-05 0)
(0 1.22929e-05 0)
(0 -2.36609e-06 0)
(0 5.48728e-06 0)
(0 -2.72697e-05 0)
(0 -3.59478e-06 0)
(0 6.22318e-06 0)
(0 7.64025e-06 0)
(0 2.94604e-05 0)
(0 7.51929e-06 0)
(0 8.69499e-05 0)
(0 -1.4675e-05 0)
(0 -1.46531e-05 0)
(0 0.000218951 0)
(0 0.000237057 0)
(0 -5.76647e-06 0)
(0 -2.45701e-05 0)
(0 -1.47188e-05 0)
(0 1.07786e-05 0)
(0 -1.45855e-05 0)
(0 -1.458e-05 0)
(0 -3.89895e-06 0)
(0 -1.35196e-05 0)
(0 2.09927e-05 0)
(0 -1.42118e-05 0)
(0 -4.65606e-05 0)
(0 1.68731e-05 0)
(0 0.000210979 0)
(0 1.38478e-05 0)
(0 -1.28496e-05 0)
(0 -1.46955e-05 0)
(0 -1.46189e-05 0)
(0 -1.60497e-05 0)
(0 3.43879e-06 0)
(0 9.64717e-05 0)
(0 -1.29435e-05 0)
(0 -1.65058e-05 0)
(0 -9.93452e-06 0)
(0 -1.46953e-05 0)
(0 -3.12098e-06 0)
(0 -1.38668e-05 0)
(0 -5.17743e-06 0)
(0 -1.32191e-05 0)
(0 -1.46955e-05 0)
(0 7.90703e-06 0)
(0 -3.43667e-07 0)
(0 0.0001027 0)
(0 0.000218444 0)
(0 -1.46747e-05 0)
(0 2.82436e-05 0)
(0 -4.10065e-05 0)
(0 0.000255674 0)
(0 -1.45333e-05 0)
(0 0.000188476 0)
(0 -1.46113e-05 0)
(0 5.07716e-06 0)
(0 -2.86193e-06 0)
(0 6.95707e-06 0)
(0 -4.22803e-05 0)
(0 -4.71454e-05 0)
(0 -2.49631e-06 0)
(0 8.46415e-05 0)
(0 9.84252e-06 0)
(0 -1.46993e-05 0)
(0 1.03096e-05 0)
(0 1.71073e-05 0)
(0 -7.21883e-06 0)
(0 -1.44346e-05 0)
(0 1.6825e-05 0)
(0 0.0001047 0)
(0 -1.42777e-05 0)
(0 -3.65484e-06 0)
(0 -1.46928e-05 0)
(0 -1.43208e-05 0)
(0 3.62224e-06 0)
(0 7.98869e-06 0)
(0 6.44688e-05 0)
(0 -1.46894e-05 0)
(0 -2.29398e-05 0)
(0 -1.34499e-05 0)
(0 -1.04139e-05 0)
(0 1.0663e-05 0)
(0 -2.71174e-05 0)
(0 -1.22005e-05 0)
(0 -1.67925e-05 0)
(0 1.7082e-05 0)
(0 -2.59306e-05 0)
(0 6.24827e-05 0)
(0 -2.10964e-05 0)
(0 -1.33317e-05 0)
(0 -1.42137e-05 0)
(0 -9.72016e-06 0)
(0 -2.06864e-05 0)
(0 -1.32632e-05 0)
(0 2.43017e-05 0)
(0 9.07946e-06 0)
(0 -1.02563e-05 0)
(0 -1.37275e-05 0)
(0 -1.31799e-05 0)
(0 -1.46982e-05 0)
(0 0.000152514 0)
(0 -1.4694e-05 0)
(0 -1.04786e-05 0)
(0 -1.46926e-05 0)
(0 0.000154685 0)
(0 8.1334e-05 0)
(0 2.87048e-06 0)
(0 -1.47173e-05 0)
(0 -1.46958e-05 0)
(0 1.30865e-05 0)
(0 -7.08836e-06 0)
(0 1.61887e-05 0)
(0 -3.33512e-06 0)
(0 0.000216097 0)
(0 -1.22912e-05 0)
(0 3.27058e-05 0)
(0 7.5664e-05 0)
(0 0.00010418 0)
(0 0.000104781 0)
(0 -1.45937e-05 0)
(0 -1.38874e-05 0)
(0 6.70346e-06 0)
(0 -1.45999e-05 0)
(0 -4.45306e-06 0)
(0 0.000147867 0)
(0 0.000147829 0)
(0 -1.43807e-05 0)
(0 -1.32316e-05 0)
(0 -1.32574e-05 0)
(0 -4.03257e-05 0)
(0 1.70625e-06 0)
(0 -5.23254e-06 0)
(0 -1.46936e-05 0)
(0 0.000130994 0)
(0 0.00012546 0)
(0 5.33982e-06 0)
(0 0.000154678 0)
(0 0.000154628 0)
(0 -1.47286e-05 0)
(0 -1.45638e-05 0)
(0 4.197e-05 0)
(0 8.42264e-06 0)
(0 -1.16318e-05 0)
(0 -1.47132e-05 0)
(0 1.26833e-05 0)
(0 -3.88497e-05 0)
(0 -6.73454e-06 0)
(0 -1.4682e-05 0)
(0 -1.3318e-05 0)
(0 -1.46164e-05 0)
(0 -1.08832e-05 0)
(0 2.68528e-05 0)
(0 -1.43075e-05 0)
(0 -1.18303e-05 0)
(0 1.06696e-05 0)
(0 -1.32098e-05 0)
(0 1.20487e-05 0)
(0 -1.45854e-05 0)
(0 -4.49363e-05 0)
(0 -7.99038e-06 0)
(0 -1.03254e-05 0)
(0 4.74098e-05 0)
(0 2.58581e-06 0)
(0 -1.52499e-05 0)
(0 0.000109029 0)
(0 0.000180909 0)
(0 -1.46967e-05 0)
(0 2.7697e-05 0)
(0 0.000201705 0)
(0 0.000120634 0)
(0 8.5477e-05 0)
(0 0.000121687 0)
(0 -4.55374e-05 0)
(0 -1.03369e-05 0)
(0 -1.21508e-05 0)
(0 0.000206949 0)
(0 -1.46986e-05 0)
(0 -1.464e-05 0)
(0 -1.37308e-05 0)
(0 0.000100454 0)
(0 -1.20727e-05 0)
(0 0.000143819 0)
(0 -3.26485e-06 0)
(0 -1.46978e-05 0)
(0 0.000144727 0)
(0 -1.47074e-05 0)
(0 0.000179226 0)
(0 -1.4395e-05 0)
(0 8.40043e-06 0)
(0 4.43055e-05 0)
(0 4.90148e-05 0)
(0 3.46275e-05 0)
(0 -1.37079e-05 0)
(0 -9.57865e-07 0)
(0 -3.67865e-06 0)
(0 -7.46435e-06 0)
(0 2.80847e-05 0)
(0 0.000258426 0)
(0 -7.47646e-06 0)
(0 -1.46966e-05 0)
(0 1.77975e-05 0)
(0 -1.21604e-05 0)
(0 0.000104137 0)
(0 -1.735e-06 0)
(0 9.90618e-05 0)
(0 -7.79523e-06 0)
(0 0.000164699 0)
(0 -7.13725e-07 0)
(0 -1.19008e-05 0)
(0 0.0001736 0)
(0 -7.99813e-06 0)
(0 -8.34661e-06 0)
(0 -3.81132e-05 0)
(0 -1.46975e-05 0)
(0 -1.47258e-05 0)
(0 0.00010228 0)
(0 0.000152249 0)
(0 -2.56321e-06 0)
(0 0.000121157 0)
(0 -1.43681e-05 0)
(0 -1.46602e-05 0)
(0 -1.34597e-05 0)
(0 1.92501e-05 0)
(0 -9.93063e-06 0)
(0 0.000101056 0)
(0 -1.45832e-05 0)
(0 0.000119593 0)
(0 -1.43717e-05 0)
(0 -8.13007e-06 0)
(0 4.39179e-05 0)
(0 -6.13518e-06 0)
(0 7.29813e-05 0)
(0 2.86652e-05 0)
(0 -1.36673e-05 0)
(0 1.17767e-05 0)
(0 -1.46876e-05 0)
(0 -3.10671e-05 0)
(0 -1.61456e-05 0)
(0 0.00015828 0)
(0 -1.46924e-05 0)
(0 2.04651e-05 0)
(0 -8.45327e-06 0)
(0 1.50964e-05 0)
(0 1.41568e-05 0)
(0 1.61427e-05 0)
(0 -1.33626e-05 0)
(0 -1.46562e-05 0)
(0 9.6459e-06 0)
(0 7.50623e-05 0)
(0 -1.47141e-05 0)
(0 -1.46647e-05 0)
(0 -1.37986e-05 0)
(0 1.49491e-05 0)
(0 0.000139377 0)
(0 3.27007e-05 0)
(0 -1.46896e-05 0)
(0 -1.01412e-05 0)
(0 0.000140995 0)
(0 0.000102934 0)
(0 -9.57278e-06 0)
(0 2.11787e-06 0)
(0 -8.37672e-06 0)
(0 -1.28845e-05 0)
(0 -9.68856e-06 0)
(0 -2.7431e-06 0)
(0 -1.57261e-05 0)
(0 -1.47079e-05 0)
(0 9.68869e-05 0)
(0 7.57075e-06 0)
(0 9.85534e-05 0)
(0 -1.4008e-05 0)
(0 1.06799e-05 0)
(0 -1.47002e-05 0)
(0 -1.58953e-05 0)
(0 0.000217559 0)
(0 4.30522e-06 0)
(0 -1.00471e-05 0)
(0 0.000155974 0)
(0 4.43085e-05 0)
(0 0.000235516 0)
(0 -1.3332e-05 0)
(0 -1.22094e-05 0)
(0 1.51251e-05 0)
(0 -1.3485e-05 0)
(0 -1.4356e-05 0)
(0 0.000162318 0)
(0 -1.42223e-05 0)
(0 -1.32676e-05 0)
(0 0.000236551 0)
(0 4.20221e-05 0)
(0 5.69584e-05 0)
(0 0.000196381 0)
(0 0.000124274 0)
(0 -1.46898e-05 0)
(0 0.000195724 0)
(0 3.10281e-06 0)
(0 -5.85214e-06 0)
(0 -2.0119e-06 0)
(0 1.22503e-05 0)
(0 -1.4168e-05 0)
(0 -1.46445e-05 0)
(0 -1.05786e-08 0)
(0 -1.37152e-05 0)
(0 2.40583e-05 0)
(0 -1.54766e-06 0)
(0 -1.43249e-05 0)
(0 -3.01683e-05 0)
(0 -1.88763e-05 0)
(0 -9.63783e-06 0)
(0 2.87692e-05 0)
(0 1.12677e-05 0)
(0 9.31572e-05 0)
(0 -1.32415e-05 0)
(0 -4.29971e-06 0)
(0 6.33739e-06 0)
(0 0.000101833 0)
(0 5.44897e-05 0)
(0 -1.14158e-05 0)
(0 2.91766e-05 0)
(0 0.000150941 0)
(0 4.13513e-06 0)
(0 -1.43329e-05 0)
(0 -9.74673e-06 0)
(0 3.57892e-05 0)
(0 2.47881e-06 0)
(0 -1.3225e-05 0)
(0 -1.71752e-07 0)
(0 2.98168e-05 0)
(0 -1.36569e-05 0)
(0 -1.45634e-05 0)
(0 0.000201372 0)
(0 0.000147718 0)
(0 6.53934e-06 0)
(0 9.28024e-06 0)
(0 0.000152224 0)
(0 4.40467e-05 0)
(0 0.000149127 0)
(0 0.00019712 0)
(0 -1.44098e-05 0)
(0 2.38374e-05 0)
(0 -4.74751e-06 0)
(0 -1.46981e-05 0)
(0 -1.2035e-05 0)
(0 7.75329e-05 0)
(0 -4.27477e-05 0)
(0 -1.42214e-05 0)
(0 4.00837e-06 0)
(0 -1.46961e-05 0)
(0 0.000156555 0)
(0 -3.39249e-05 0)
(0 0.000167219 0)
(0 0.00016112 0)
(0 8.03104e-06 0)
(0 6.18204e-05 0)
(0 -1.30819e-05 0)
(0 0.000260068 0)
(0 -1.46813e-05 0)
(0 -3.31727e-05 0)
(0 -1.47787e-05 0)
(0 0.000262659 0)
(0 3.32889e-05 0)
(0 -1.10087e-05 0)
(0 -1.37197e-05 0)
(0 -1.09503e-05 0)
(0 -1.56994e-06 0)
(0 7.65293e-05 0)
(0 1.03979e-06 0)
(0 5.37695e-05 0)
(0 5.44037e-05 0)
(0 7.12636e-05 0)
(0 -1.61196e-05 0)
(0 -1.46974e-05 0)
(0 -1.35983e-05 0)
(0 6.86251e-05 0)
(0 -7.87618e-06 0)
(0 -1.42544e-05 0)
(0 -1.78196e-05 0)
(0 -1.19892e-05 0)
(0 -1.47338e-05 0)
(0 -1.43352e-05 0)
(0 -1.85589e-05 0)
(0 -1.4671e-05 0)
(0 0.000212537 0)
(0 0.000212854 0)
(0 5.93644e-05 0)
(0 2.58617e-05 0)
(0 0.000265385 0)
(0 1.32472e-05 0)
(0 -1.37784e-05 0)
(0 2.5721e-05 0)
(0 2.27615e-06 0)
(0 1.09498e-05 0)
(0 -2.06247e-05 0)
(0 1.01477e-06 0)
(0 -1.4087e-05 0)
(0 -1.32762e-05 0)
(0 0.000251257 0)
(0 0.000102815 0)
(0 1.55361e-05 0)
(0 -5.85256e-06 0)
(0 7.40446e-06 0)
(0 1.38854e-05 0)
(0 -1.29558e-05 0)
(0 -8.06665e-06 0)
(0 -1.40702e-05 0)
(0 -3.30263e-05 0)
(0 -5.95654e-06 0)
(0 -1.23222e-05 0)
(0 1.09124e-05 0)
(0 -1.47032e-05 0)
(0 2.64733e-07 0)
(0 0.00016014 0)
(0 -1.15484e-05 0)
(0 0.000158163 0)
(0 -3.27685e-06 0)
(0 -1.16827e-05 0)
(0 -1.47082e-05 0)
(0 -5.39763e-06 0)
(0 -1.02165e-05 0)
(0 -3.03642e-05 0)
(0 0.000243508 0)
(0 -1.34794e-05 0)
(0 -1.16761e-05 0)
(0 7.86525e-06 0)
(0 2.7952e-06 0)
(0 -1.35494e-05 0)
(0 -1.04226e-05 0)
(0 0.000222816 0)
(0 0.000108791 0)
(0 1.32304e-05 0)
(0 8.04588e-05 0)
(0 2.51005e-05 0)
(0 0.000166157 0)
(0 -1.21515e-05 0)
(0 2.22174e-05 0)
(0 -1.31752e-05 0)
(0 8.76916e-06 0)
(0 5.10729e-05 0)
(0 -1.03297e-05 0)
(0 -1.46793e-05 0)
(0 5.43998e-05 0)
(0 -2.34269e-05 0)
(0 0.000177101 0)
(0 -1.4956e-05 0)
(0 -1.23161e-05 0)
(0 5.42518e-06 0)
(0 -1.04496e-05 0)
(0 -4.26723e-06 0)
(0 -8.62935e-06 0)
(0 1.5508e-05 0)
(0 -1.46897e-05 0)
(0 -1.44454e-05 0)
(0 -1.47003e-05 0)
(0 0.00010741 0)
(0 5.51199e-05 0)
(0 0.000254649 0)
(0 -2.18502e-05 0)
(0 -1.46013e-05 0)
(0 0.000148831 0)
(0 0.000126118 0)
(0 -1.11388e-05 0)
(0 -1.4671e-05 0)
(0 -3.65988e-06 0)
(0 -2.5481e-05 0)
(0 -1.46857e-05 0)
(0 7.20877e-05 0)
(0 -1.47319e-05 0)
(0 7.92915e-06 0)
(0 0.000216713 0)
(0 -1.46761e-05 0)
(0 0.000154007 0)
(0 -1.44473e-05 0)
(0 2.98837e-06 0)
(0 -1.37153e-05 0)
(0 5.61352e-05 0)
(0 -1.40553e-05 0)
(0 0.000170378 0)
(0 0.00010213 0)
(0 -1.39187e-05 0)
(0 -1.1837e-05 0)
(0 0.000169261 0)
(0 -1.45182e-05 0)
(0 -1.46985e-05 0)
(0 -1.43263e-05 0)
(0 5.04243e-05 0)
(0 -1.47001e-05 0)
(0 7.2762e-06 0)
(0 -1.33415e-05 0)
(0 0.000187544 0)
(0 0.000221197 0)
(0 0.000164753 0)
(0 6.79784e-06 0)
(0 -1.30468e-05 0)
(0 -2.68105e-05 0)
(0 0.000155493 0)
(0 6.19352e-06 0)
(0 -1.06004e-05 0)
(0 -1.44917e-05 0)
(0 -7.51494e-06 0)
(0 -1.41456e-05 0)
(0 1.78151e-06 0)
(0 9.75338e-05 0)
(0 1.27513e-05 0)
(0 -1.22882e-05 0)
(0 -1.42562e-05 0)
(0 -1.4684e-05 0)
(0 -1.31783e-05 0)
(0 -1.24921e-05 0)
(0 -1.40981e-05 0)
(0 -1.47107e-05 0)
(0 0.000129861 0)
(0 -1.37591e-05 0)
(0 -1.05058e-05 0)
(0 -1.46051e-05 0)
(0 -2.08466e-05 0)
(0 -1.43581e-05 0)
(0 2.40911e-05 0)
(0 0.000163155 0)
(0 -4.04294e-05 0)
(0 0.000172046 0)
(0 -1.25092e-05 0)
(0 -1.4585e-05 0)
(0 2.21837e-05 0)
(0 -1.23604e-05 0)
(0 0.000136865 0)
(0 4.71207e-06 0)
(0 -1.47026e-05 0)
(0 -2.31117e-06 0)
(0 0.000149342 0)
(0 -1.29884e-05 0)
(0 -3.88879e-05 0)
(0 0.000216811 0)
(0 5.02016e-06 0)
(0 -1.47012e-05 0)
(0 -9.7166e-06 0)
(0 0.000108031 0)
(0 0.000147196 0)
(0 0.000145006 0)
(0 -1.39626e-05 0)
(0 6.63792e-06 0)
(0 -1.31032e-05 0)
(0 1.21811e-05 0)
(0 1.81331e-05 0)
(0 -1.3494e-05 0)
(0 -1.40992e-05 0)
(0 7.42155e-06 0)
(0 -1.46929e-05 0)
(0 -1.44398e-05 0)
(0 3.4385e-05 0)
(0 -1.22401e-05 0)
(0 6.93644e-05 0)
(0 4.3201e-05 0)
(0 -1.46835e-05 0)
(0 -1.45848e-05 0)
(0 6.13736e-06 0)
(0 6.40106e-06 0)
(0 0.00016459 0)
(0 1.38985e-05 0)
(0 7.57903e-05 0)
(0 1.86905e-05 0)
(0 -1.22287e-05 0)
(0 -8.28374e-06 0)
(0 -1.40873e-05 0)
(0 -1.25262e-05 0)
(0 3.22179e-05 0)
(0 -1.18818e-05 0)
(0 0.000170175 0)
(0 -9.71669e-06 0)
(0 -1.32248e-05 0)
(0 -1.47127e-05 0)
(0 0.000161194 0)
(0 0.00015455 0)
(0 1.37264e-05 0)
(0 1.69245e-05 0)
(0 2.28263e-05 0)
(0 1.26914e-05 0)
(0 0.000247346 0)
(0 -8.9423e-06 0)
(0 -1.47035e-05 0)
(0 -1.68538e-05 0)
(0 2.54793e-06 0)
(0 -1.36303e-05 0)
(0 2.45514e-05 0)
(0 -1.465e-05 0)
(0 0.000182895 0)
(0 0.000100352 0)
(0 -1.47079e-05 0)
(0 -1.24142e-05 0)
(0 0.000281829 0)
(0 -3.74763e-05 0)
(0 0.00015156 0)
(0 0.000114646 0)
(0 -3.21737e-05 0)
(0 -1.48912e-05 0)
(0 3.92414e-05 0)
(0 -1.47132e-05 0)
(0 -7.10109e-06 0)
(0 0.000212431 0)
(0 0.000279923 0)
(0 0.00015688 0)
(0 -1.46998e-05 0)
(0 -2.96651e-05 0)
(0 4.80365e-06 0)
(0 0.000140804 0)
(0 -1.46977e-05 0)
(0 -5.91709e-06 0)
(0 -1.01497e-05 0)
(0 -1.47031e-05 0)
(0 0.000135185 0)
(0 2.31514e-05 0)
(0 0.000103193 0)
(0 9.66634e-06 0)
(0 -1.46633e-05 0)
(0 0.000280356 0)
(0 -1.21957e-05 0)
(0 -3.22963e-05 0)
(0 -2.28934e-05 0)
(0 -1.4626e-05 0)
(0 9.81866e-05 0)
(0 -1.29311e-05 0)
(0 -1.66466e-05 0)
(0 1.41474e-05 0)
(0 -1.84372e-05 0)
(0 4.27395e-06 0)
(0 -1.49116e-05 0)
(0 0.000106405 0)
(0 -1.46486e-05 0)
(0 -2.90392e-07 0)
(0 0.000239296 0)
(0 -1.47109e-05 0)
(0 3.31806e-05 0)
(0 0.000131782 0)
(0 5.39954e-06 0)
(0 2.77909e-05 0)
(0 -1.31376e-05 0)
(0 -1.45703e-05 0)
(0 1.70892e-05 0)
(0 -1.48731e-05 0)
(0 -1.42471e-05 0)
(0 1.82324e-05 0)
(0 -2.34665e-05 0)
(0 -1.25911e-06 0)
(0 -6.95419e-06 0)
(0 -2.42454e-05 0)
(0 -4.20929e-05 0)
(0 7.18909e-05 0)
(0 0.000262831 0)
(0 -1.21587e-05 0)
(0 -1.30718e-05 0)
(0 7.01107e-05 0)
(0 -1.46475e-05 0)
(0 -2.25739e-05 0)
(0 -2.01426e-05 0)
(0 -1.31343e-05 0)
(0 3.51262e-05 0)
(0 -1.46706e-05 0)
(0 -3.07388e-06 0)
(0 7.73793e-05 0)
(0 -1.24965e-05 0)
(0 -1.03038e-05 0)
(0 -1.66293e-05 0)
(0 7.12351e-05 0)
(0 7.05514e-05 0)
(0 7.87962e-05 0)
(0 -1.47016e-05 0)
(0 -2.00826e-05 0)
(0 0.00019255 0)
(0 -1.61369e-05 0)
(0 4.0595e-05 0)
(0 8.40965e-05 0)
(0 -1.22596e-05 0)
(0 -3.01184e-06 0)
(0 7.99344e-05 0)
(0 -9.00273e-07 0)
(0 2.30772e-06 0)
(0 -1.46968e-05 0)
(0 -4.25182e-05 0)
(0 8.61888e-05 0)
(0 -1.42004e-05 0)
(0 0.000224233 0)
(0 0.000223745 0)
(0 1.56504e-05 0)
(0 2.22312e-05 0)
(0 -3.68349e-05 0)
(0 1.3227e-06 0)
(0 4.53429e-06 0)
(0 7.2593e-05 0)
(0 0.000152078 0)
(0 8.50332e-05 0)
(0 0.000184324 0)
(0 4.28412e-06 0)
(0 -1.89848e-05 0)
(0 0.000160048 0)
(0 -1.31703e-05 0)
(0 4.28045e-05 0)
(0 -1.42339e-05 0)
(0 7.86848e-05 0)
(0 1.13347e-05 0)
(0 -1.46696e-05 0)
(0 -1.6655e-05 0)
(0 -1.46954e-05 0)
(0 -2.8084e-05 0)
(0 8.06443e-05 0)
(0 9.19848e-05 0)
(0 0.000111121 0)
(0 -2.46442e-05 0)
(0 -1.46864e-05 0)
(0 -1.4593e-05 0)
(0 3.28425e-05 0)
(0 6.32965e-07 0)
(0 -2.57126e-05 0)
(0 -1.6422e-05 0)
(0 6.04779e-06 0)
(0 0.000212801 0)
(0 0.000231322 0)
(0 8.51372e-06 0)
(0 -1.43558e-05 0)
(0 -2.37824e-05 0)
(0 7.89307e-05 0)
(0 -1.34296e-05 0)
(0 0.000132757 0)
(0 0.000131122 0)
(0 2.14591e-05 0)
(0 -9.79732e-06 0)
(0 7.28271e-05 0)
(0 6.07912e-06 0)
(0 -2.53935e-06 0)
(0 5.60382e-05 0)
(0 -1.5966e-05 0)
(0 0.000127133 0)
(0 5.57469e-06 0)
(0 1.62652e-05 0)
(0 -1.47343e-05 0)
(0 -1.46972e-05 0)
(0 0.000113662 0)
(0 -1.4688e-05 0)
(0 -2.2457e-06 0)
(0 -1.47327e-05 0)
(0 0.000125197 0)
(0 2.60876e-05 0)
(0 0.000218064 0)
(0 -2.91417e-05 0)
(0 -1.14668e-05 0)
(0 -1.11583e-05 0)
(0 -1.46325e-05 0)
(0 7.78597e-07 0)
(0 2.71574e-05 0)
(0 6.64839e-06 0)
(0 -1.45186e-05 0)
(0 -2.13385e-05 0)
(0 -1.83593e-05 0)
(0 -8.84774e-06 0)
(0 0.000120208 0)
(0 -3.72997e-06 0)
(0 -1.56592e-05 0)
(0 0.000210695 0)
(0 -1.47288e-05 0)
(0 0.000160011 0)
(0 -1.47072e-05 0)
(0 -1.22652e-05 0)
(0 0.000138539 0)
(0 0.000105912 0)
(0 -5.27259e-05 0)
(0 6.96045e-05 0)
(0 8.53743e-05 0)
(0 -1.41409e-05 0)
(0 2.63091e-05 0)
(0 -2.96787e-06 0)
(0 2.06609e-05 0)
(0 0.000216314 0)
(0 5.09439e-05 0)
(0 1.76722e-05 0)
(0 -1.48223e-05 0)
(0 0.000215254 0)
(0 2.93242e-05 0)
(0 0.00027814 0)
(0 -1.38233e-05 0)
(0 1.88376e-05 0)
(0 -1.331e-05 0)
(0 8.16355e-05 0)
(0 -2.97271e-06 0)
(0 0.00016019 0)
(0 8.2504e-05 0)
(0 -1.47083e-05 0)
(0 1.78548e-05 0)
(0 -2.57042e-05 0)
(0 -1.35705e-05 0)
(0 -1.47167e-05 0)
(0 0.000162658 0)
(0 0.000131646 0)
(0 -1.42548e-05 0)
(0 0.000236808 0)
(0 7.55761e-05 0)
(0 5.72471e-05 0)
(0 -1.45405e-05 0)
(0 -5.09216e-05 0)
(0 -1.39572e-05 0)
(0 -2.6486e-05 0)
(0 -1.47037e-05 0)
(0 4.68649e-05 0)
(0 -1.13187e-05 0)
(0 9.77125e-05 0)
(0 0.000116025 0)
(0 0.000198703 0)
(0 -1.18857e-05 0)
(0 2.865e-05 0)
(0 -1.46862e-05 0)
(0 4.48885e-06 0)
(0 1.87944e-05 0)
(0 0.000120458 0)
(0 0.000238072 0)
(0 0.000220881 0)
(0 -1.23408e-05 0)
(0 4.74386e-07 0)
(0 -1.46026e-05 0)
(0 -4.77389e-06 0)
(0 -1.46462e-05 0)
(0 -1.20315e-05 0)
(0 -2.31599e-05 0)
(0 -1.47017e-05 0)
(0 1.66484e-05 0)
(0 -1.24252e-05 0)
(0 -3.5908e-05 0)
(0 -1.47071e-05 0)
(0 0.000216475 0)
(0 -3.71993e-05 0)
(0 0.00016288 0)
(0 0.000204681 0)
(0 6.35449e-06 0)
(0 0.00016029 0)
(0 0.000201444 0)
(0 0.000197646 0)
(0 -2.73576e-05 0)
(0 -1.14535e-05 0)
(0 7.22634e-05 0)
(0 3.45969e-06 0)
(0 -1.36835e-05 0)
(0 -1.43868e-05 0)
(0 -1.42983e-05 0)
(0 -1.35367e-05 0)
(0 6.76244e-05 0)
(0 0.000202578 0)
(0 -1.64878e-06 0)
(0 -1.42063e-05 0)
(0 0.00022597 0)
(0 -1.46928e-05 0)
(0 0.000159437 0)
(0 2.91142e-05 0)
(0 -3.01009e-05 0)
(0 1.63844e-05 0)
(0 0.000154924 0)
(0 0.000169143 0)
(0 -1.51383e-05 0)
(0 -9.56339e-06 0)
(0 1.75369e-05 0)
(0 -1.4685e-05 0)
(0 0.000122048 0)
(0 3.23513e-05 0)
(0 -1.46818e-05 0)
(0 -3.54623e-05 0)
(0 8.94513e-05 0)
(0 0.00021811 0)
(0 -1.4696e-05 0)
(0 -5.59331e-06 0)
(0 1.38258e-05 0)
(0 0.000283361 0)
(0 0.000143462 0)
(0 0.000101369 0)
(0 -1.46481e-05 0)
(0 0.000219677 0)
(0 -8.837e-07 0)
(0 -2.56956e-05 0)
(0 8.01113e-05 0)
(0 7.44653e-05 0)
(0 0.000207881 0)
(0 2.12419e-06 0)
(0 0.000130298 0)
(0 -9.66449e-06 0)
(0 -1.47104e-05 0)
(0 0.000208862 0)
(0 -2.28338e-07 0)
(0 7.76318e-05 0)
(0 -5.13224e-05 0)
(0 6.80377e-05 0)
(0 -1.4175e-05 0)
(0 -1.73324e-05 0)
(0 -8.08846e-06 0)
(0 -1.46984e-05 0)
(0 -1.46808e-05 0)
(0 0.000132004 0)
(0 -1.41995e-05 0)
(0 0.000198491 0)
(0 -1.47074e-05 0)
(0 0.000208297 0)
(0 -1.31381e-05 0)
(0 -1.04811e-05 0)
(0 -1.89743e-05 0)
(0 -9.94533e-06 0)
(0 -1.15176e-05 0)
(0 -5.57021e-06 0)
(0 -1.46632e-05 0)
(0 0.000156589 0)
(0 0.000180558 0)
(0 0.000162786 0)
(0 -4.49666e-07 0)
(0 -1.70941e-05 0)
(0 1.68449e-05 0)
(0 -2.55636e-05 0)
(0 -9.21744e-06 0)
(0 -1.47351e-05 0)
(0 0.000210725 0)
(0 -2.08648e-05 0)
(0 -1.47085e-05 0)
(0 3.43012e-06 0)
(0 0.000139905 0)
(0 0.000123605 0)
(0 -1.46029e-05 0)
(0 -1.29275e-05 0)
(0 6.05423e-06 0)
(0 -1.63827e-05 0)
(0 -4.24209e-05 0)
(0 0.000104901 0)
(0 7.44846e-05 0)
(0 2.18818e-05 0)
(0 -2.96948e-05 0)
(0 0.000211122 0)
(0 0.000160261 0)
(0 0.000269369 0)
(0 0.000227915 0)
(0 0.000208407 0)
(0 -1.47091e-05 0)
(0 -3.70398e-05 0)
(0 -2.14794e-05 0)
(0 0.00018842 0)
(0 -1.47007e-05 0)
(0 0.000191676 0)
(0 0.000161112 0)
(0 5.72952e-06 0)
(0 -3.80857e-05 0)
(0 -2.48926e-05 0)
(0 0.000159745 0)
(0 -1.41863e-05 0)
(0 0.000242895 0)
(0 8.00862e-05 0)
(0 -1.34986e-05 0)
(0 2.9491e-05 0)
(0 1.47398e-05 0)
(0 -1.30142e-05 0)
(0 -1.42346e-05 0)
(0 -1.49838e-05 0)
(0 -1.32395e-05 0)
(0 0.000281673 0)
(0 -1.30455e-05 0)
(0 -1.47003e-05 0)
(0 -3.02389e-07 0)
(0 -1.332e-05 0)
(0 0.000144668 0)
(0 -1.01921e-05 0)
(0 -1.1505e-05 0)
(0 0.000232785 0)
(0 -1.72347e-05 0)
(0 0.000213204 0)
(0 -1.22025e-05 0)
(0 3.00712e-05 0)
(0 1.01331e-05 0)
(0 -1.41918e-05 0)
(0 -1.18252e-05 0)
(0 -1.05481e-05 0)
(0 -1.35778e-05 0)
(0 2.53595e-05 0)
(0 -1.45425e-05 0)
(0 8.15415e-07 0)
(0 1.62418e-05 0)
(0 0.000182346 0)
(0 0.000266468 0)
(0 0.000129104 0)
(0 6.96535e-05 0)
(0 -1.0141e-05 0)
(0 -1.46694e-05 0)
(0 2.2996e-05 0)
(0 6.28985e-06 0)
(0 -2.71857e-05 0)
(0 1.43441e-05 0)
(0 -9.07501e-06 0)
(0 -9.38245e-06 0)
(0 -1.47554e-05 0)
(0 7.79355e-05 0)
(0 0.000108638 0)
(0 5.56238e-06 0)
(0 0.000189085 0)
(0 3.0658e-05 0)
(0 -1.47005e-05 0)
(0 -3.373e-05 0)
(0 -4.66753e-05 0)
(0 -4.7635e-06 0)
(0 0.00018863 0)
(0 7.30713e-06 0)
(0 -1.46986e-05 0)
(0 -1.47089e-05 0)
(0 7.70898e-05 0)
(0 -9.76668e-06 0)
(0 1.24448e-05 0)
(0 -1.47072e-05 0)
(0 -1.70368e-06 0)
(0 7.04811e-07 0)
(0 -1.4496e-05 0)
(0 0.000107884 0)
(0 -1.19733e-05 0)
(0 -1.43829e-05 0)
(0 -1.42713e-05 0)
(0 0.000219806 0)
(0 4.89664e-05 0)
(0 0.000194636 0)
(0 5.13579e-05 0)
(0 -9.85484e-06 0)
(0 -9.16607e-06 0)
(0 5.34142e-05 0)
(0 -1.46426e-05 0)
(0 1.88613e-05 0)
(0 -1.16364e-05 0)
(0 8.84542e-05 0)
(0 -1.50657e-05 0)
(0 -1.42955e-05 0)
(0 2.01649e-06 0)
(0 -1.34019e-05 0)
(0 -8.64939e-07 0)
(0 -4.40471e-05 0)
(0 -1.46658e-05 0)
(0 2.48233e-05 0)
(0 -3.97112e-07 0)
(0 -2.24737e-05 0)
(0 -1.47041e-05 0)
(0 -1.30844e-05 0)
(0 -1.47323e-05 0)
(0 -3.58743e-06 0)
(0 -1.41168e-05 0)
(0 -1.01637e-05 0)
(0 0.000154545 0)
(0 0.000110361 0)
(0 -1.2269e-05 0)
(0 0.00016331 0)
(0 2.05819e-05 0)
(0 -1.1551e-05 0)
(0 -2.30215e-05 0)
(0 1.9677e-07 0)
(0 5.46339e-06 0)
(0 2.20914e-05 0)
(0 -3.77608e-05 0)
(0 -1.34749e-05 0)
(0 -1.10718e-05 0)
(0 -6.07176e-06 0)
(0 -1.12314e-05 0)
(0 7.78688e-05 0)
(0 8.02982e-06 0)
(0 -1.35179e-06 0)
(0 0.00025657 0)
(0 -1.46765e-05 0)
(0 -1.40334e-05 0)
(0 0.00011443 0)
(0 -1.8746e-05 0)
(0 0.00014964 0)
(0 0.000131009 0)
(0 -1.4694e-05 0)
(0 -2.53483e-05 0)
(0 3.37611e-06 0)
(0 0.000196218 0)
(0 -5.25988e-05 0)
(0 -5.38709e-06 0)
(0 1.02782e-05 0)
(0 -1.46736e-05 0)
(0 8.3143e-05 0)
(0 -2.04498e-05 0)
(0 0.000266071 0)
(0 0.00015359 0)
(0 -1.34699e-05 0)
(0 -1.45816e-05 0)
(0 -1.40278e-05 0)
(0 -3.75549e-05 0)
(0 -1.06952e-07 0)
(0 4.65629e-06 0)
(0 4.15301e-06 0)
(0 -1.47817e-05 0)
(0 -1.47058e-05 0)
(0 0.000142952 0)
(0 -9.16884e-06 0)
(0 4.86346e-06 0)
(0 -1.36833e-05 0)
(0 -2.72678e-05 0)
(0 0.00014639 0)
(0 2.12386e-06 0)
(0 -1.38527e-05 0)
(0 0.000144035 0)
(0 -1.10331e-06 0)
(0 0.000150567 0)
(0 0.000118615 0)
(0 -3.94553e-05 0)
(0 -1.47079e-05 0)
(0 -1.14756e-05 0)
(0 0.000263006 0)
(0 -1.43415e-05 0)
(0 -1.13173e-05 0)
(0 0.000110734 0)
(0 -1.18569e-05 0)
(0 -4.05928e-06 0)
(0 -3.79872e-05 0)
(0 -1.38195e-05 0)
(0 0.000210129 0)
(0 0.000147251 0)
(0 7.94145e-05 0)
(0 -1.33084e-05 0)
(0 -2.48815e-06 0)
(0 -2.13673e-05 0)
(0 0.00012649 0)
(0 -5.95278e-07 0)
(0 7.89232e-05 0)
(0 -2.75971e-05 0)
(0 -1.16259e-05 0)
(0 -6.19094e-06 0)
(0 -1.47119e-05 0)
(0 -2.98424e-06 0)
(0 -1.51666e-05 0)
(0 -1.64536e-05 0)
(0 -9.90408e-06 0)
(0 0.00011115 0)
(0 1.94355e-06 0)
(0 -1.31099e-05 0)
(0 -1.45981e-05 0)
(0 -1.46309e-05 0)
(0 1.71372e-05 0)
(0 0.000128843 0)
(0 -1.47045e-05 0)
(0 2.1797e-06 0)
(0 0.00019214 0)
(0 -1.90495e-05 0)
(0 -4.30026e-06 0)
(0 -7.12883e-06 0)
(0 1.97428e-06 0)
(0 -1.45177e-05 0)
(0 -1.27649e-05 0)
(0 2.27439e-05 0)
(0 -5.23655e-05 0)
(0 -1.07378e-05 0)
(0 -1.44343e-05 0)
(0 -1.47075e-05 0)
(0 8.15481e-05 0)
(0 4.46989e-05 0)
(0 4.64804e-05 0)
(0 1.66645e-05 0)
(0 0.000203605 0)
(0 -8.59141e-06 0)
(0 0.000215607 0)
(0 -4.63958e-06 0)
(0 -1.3657e-05 0)
(0 -2.24857e-05 0)
(0 -1.46474e-05 0)
(0 -3.74504e-05 0)
(0 6.11033e-05 0)
(0 -3.86121e-05 0)
(0 0.000124195 0)
(0 -1.46093e-05 0)
(0 -3.35567e-05 0)
(0 7.68349e-05 0)
(0 -9.48724e-06 0)
(0 -1.43311e-05 0)
(0 -1.04094e-05 0)
(0 -1.44085e-05 0)
(0 -3.38816e-05 0)
(0 -1.4627e-05 0)
(0 8.10486e-05 0)
(0 0.000113633 0)
(0 8.06311e-05 0)
(0 -2.29566e-05 0)
(0 -1.01418e-05 0)
(0 -1.46019e-05 0)
(0 -2.43139e-05 0)
(0 -1.15759e-05 0)
(0 0.000182359 0)
(0 0.000261182 0)
(0 -4.20828e-05 0)
(0 0.000140989 0)
(0 9.2369e-05 0)
(0 -1.47005e-05 0)
(0 0.000135741 0)
(0 3.36781e-05 0)
(0 -1.36995e-05 0)
(0 -1.85056e-05 0)
(0 -1.36256e-05 0)
(0 -1.38249e-05 0)
(0 -1.44311e-05 0)
(0 -3.84606e-06 0)
(0 0.00021375 0)
(0 4.14816e-05 0)
(0 0.000121944 0)
(0 0.000136578 0)
(0 2.83131e-05 0)
(0 0.000250447 0)
(0 9.78548e-06 0)
(0 0.000144776 0)
(0 0.000192952 0)
(0 1.25415e-05 0)
(0 2.667e-05 0)
(0 -1.45969e-05 0)
(0 -1.17373e-05 0)
(0 0.000209952 0)
(0 -3.94498e-05 0)
(0 0.000123182 0)
(0 -1.14236e-05 0)
(0 0.000266867 0)
(0 -4.18789e-06 0)
(0 0.000221076 0)
(0 3.52045e-06 0)
(0 0.000260239 0)
(0 -1.06572e-05 0)
(0 3.62064e-05 0)
(0 -1.4309e-05 0)
(0 9.17021e-05 0)
(0 0.000130479 0)
(0 -7.0332e-06 0)
(0 0.000133781 0)
(0 0.000122948 0)
(0 -1.47127e-05 0)
(0 1.92845e-05 0)
(0 7.65702e-06 0)
(0 -8.97001e-06 0)
(0 -1.17716e-05 0)
(0 -1.47098e-05 0)
(0 0.000147609 0)
(0 -1.3031e-05 0)
(0 -9.07772e-06 0)
(0 0.000266878 0)
(0 0.000198764 0)
(0 -1.4355e-05 0)
(0 -3.68515e-05 0)
(0 9.99011e-06 0)
(0 -1.0795e-05 0)
(0 0.000118022 0)
(0 -1.47045e-05 0)
(0 0.000151686 0)
(0 1.9739e-05 0)
(0 -2.60614e-05 0)
(0 0.000202477 0)
(0 -1.46961e-05 0)
(0 9.75372e-06 0)
(0 0.00012984 0)
(0 -1.37414e-05 0)
(0 -3.29496e-05 0)
(0 8.22516e-05 0)
(0 0.000153367 0)
(0 0.000202626 0)
(0 -1.45141e-05 0)
(0 -3.56404e-05 0)
(0 9.47708e-05 0)
(0 2.55992e-05 0)
(0 -7.06162e-06 0)
(0 0.000129461 0)
(0 2.5999e-05 0)
(0 2.90282e-05 0)
(0 -1.31296e-05 0)
(0 -3.97641e-05 0)
(0 -2.32025e-05 0)
(0 7.65974e-05 0)
(0 0.000184878 0)
(0 -3.6925e-05 0)
(0 -2.60434e-05 0)
(0 3.18153e-06 0)
(0 -1.56178e-05 0)
(0 1.24008e-05 0)
(0 0.000126484 0)
(0 -1.30878e-05 0)
(0 5.73281e-05 0)
(0 2.54729e-05 0)
(0 0.000116285 0)
(0 -1.13145e-05 0)
(0 3.62148e-05 0)
(0 0.000144886 0)
(0 -2.18653e-06 0)
(0 4.83076e-05 0)
(0 -2.22773e-05 0)
(0 -1.06777e-05 0)
(0 0.000206207 0)
(0 -1.46991e-05 0)
(0 -1.46112e-05 0)
(0 -1.34412e-05 0)
(0 -1.46948e-05 0)
(0 4.75695e-05 0)
(0 -1.61621e-05 0)
(0 -4.39787e-06 0)
(0 -1.29846e-05 0)
(0 0.000197021 0)
(0 -1.47051e-05 0)
(0 0.000120768 0)
(0 -1.43887e-05 0)
(0 0.000141558 0)
(0 -2.25453e-05 0)
(0 -1.28502e-05 0)
(0 8.50304e-06 0)
(0 -9.07488e-06 0)
(0 2.15889e-05 0)
(0 -1.43902e-05 0)
(0 3.30383e-05 0)
(0 0.000277973 0)
(0 -2.06967e-05 0)
(0 -1.46988e-05 0)
(0 -1.46876e-05 0)
(0 -1.62837e-05 0)
(0 0.000131111 0)
(0 -6.98023e-06 0)
(0 1.14265e-05 0)
(0 -1.32659e-05 0)
(0 2.16295e-05 0)
(0 -1.51316e-06 0)
(0 1.6167e-06 0)
(0 1.2909e-05 0)
(0 -1.47034e-05 0)
(0 0.000200609 0)
(0 -1.64839e-05 0)
(0 2.64648e-05 0)
(0 -4.3857e-06 0)
(0 -1.1556e-05 0)
(0 -3.78627e-07 0)
(0 0.000118512 0)
(0 -1.4624e-05 0)
(0 0.00011636 0)
(0 -4.58557e-05 0)
(0 -2.85757e-05 0)
(0 7.27051e-05 0)
(0 -1.3216e-05 0)
(0 5.46466e-05 0)
(0 -1.43973e-05 0)
(0 -1.47062e-05 0)
(0 -2.79559e-05 0)
(0 2.63402e-06 0)
(0 -4.1402e-05 0)
(0 1.6396e-05 0)
(0 -1.01723e-05 0)
(0 0.000276661 0)
(0 0.000117724 0)
(0 -1.59435e-05 0)
(0 1.44473e-05 0)
(0 7.92185e-06 0)
(0 -2.67341e-05 0)
(0 -3.96737e-06 0)
(0 -1.3596e-05 0)
(0 -1.70645e-06 0)
(0 7.87805e-05 0)
(0 -7.88505e-06 0)
(0 0.000128277 0)
(0 6.65523e-06 0)
(0 0.000241085 0)
(0 -1.2886e-05 0)
(0 0.000127479 0)
(0 6.78909e-05 0)
(0 0.000114571 0)
(0 -3.15183e-05 0)
(0 0.000127585 0)
(0 9.38075e-06 0)
(0 -1.46767e-05 0)
(0 1.78393e-05 0)
(0 -8.84327e-07 0)
(0 2.44871e-06 0)
(0 0.000214301 0)
(0 -1.44738e-05 0)
(0 7.5531e-06 0)
(0 1.54472e-05 0)
(0 -1.47011e-05 0)
(0 -1.33977e-05 0)
(0 -1.47094e-05 0)
(0 0.000199473 0)
(0 -1.46701e-05 0)
(0 1.40195e-06 0)
(0 1.97251e-05 0)
(0 -1.47045e-05 0)
(0 2.14747e-05 0)
(0 4.46119e-05 0)
(0 -1.41728e-05 0)
(0 3.25353e-05 0)
(0 1.62431e-05 0)
(0 -1.4723e-05 0)
(0 1.51974e-05 0)
(0 -1.30745e-05 0)
(0 -4.38082e-05 0)
(0 -1.46364e-05 0)
(0 -3.95508e-05 0)
(0 0.000237635 0)
(0 -3.50504e-05 0)
(0 -1.47182e-05 0)
(0 -4.29827e-05 0)
(0 -2.16401e-05 0)
(0 9.22825e-05 0)
(0 0.000181593 0)
(0 0.000113072 0)
(0 0.000202463 0)
(0 -5.79786e-06 0)
(0 7.62495e-06 0)
(0 -1.45063e-05 0)
(0 4.42457e-06 0)
(0 -1.46837e-05 0)
(0 3.04311e-05 0)
(0 -1.14092e-05 0)
(0 -1.13113e-05 0)
(0 0.000120109 0)
(0 -1.30087e-05 0)
(0 -1.76763e-07 0)
(0 1.997e-05 0)
(0 -1.40988e-05 0)
(0 0.000121094 0)
(0 -1.3035e-05 0)
(0 -1.47331e-05 0)
(0 0.000118506 0)
(0 -1.46939e-05 0)
(0 -3.93055e-05 0)
(0 -1.46636e-05 0)
(0 -1.30726e-05 0)
(0 -4.24127e-06 0)
(0 8.23048e-05 0)
(0 0.000236179 0)
(0 0.000129167 0)
(0 -5.1558e-05 0)
(0 -1.88389e-05 0)
(0 7.84576e-05 0)
(0 9.28442e-06 0)
(0 -1.46227e-05 0)
(0 -1.00875e-05 0)
(0 -1.45411e-05 0)
(0 8.36876e-05 0)
(0 -9.39291e-06 0)
(0 -1.47038e-05 0)
(0 0.000245509 0)
(0 0.000133326 0)
(0 -1.46663e-05 0)
(0 -3.28403e-05 0)
(0 -3.98641e-05 0)
(0 -1.43879e-05 0)
(0 -1.29618e-05 0)
(0 -1.10474e-05 0)
(0 0.000135822 0)
(0 -1.46407e-05 0)
(0 -1.32911e-06 0)
(0 7.90786e-05 0)
(0 -1.46759e-05 0)
(0 -1.42668e-05 0)
(0 0.00022079 0)
(0 1.55666e-06 0)
(0 -1.21844e-05 0)
(0 -1.1298e-05 0)
(0 -9.83061e-06 0)
(0 -1.08653e-05 0)
(0 -2.115e-05 0)
(0 -9.57822e-06 0)
(0 -1.72079e-06 0)
(0 0.000130795 0)
(0 0.000239049 0)
(0 1.6308e-05 0)
(0 -1.47031e-05 0)
(0 9.2683e-06 0)
(0 -4.5814e-05 0)
(0 -4.53746e-05 0)
(0 3.67839e-05 0)
(0 0.000123966 0)
(0 -1.46997e-05 0)
(0 -8.40906e-06 0)
(0 0.000205571 0)
(0 -1.14591e-05 0)
(0 0.000271057 0)
(0 2.90095e-05 0)
(0 -1.194e-05 0)
(0 -1.47346e-05 0)
(0 -1.27193e-05 0)
(0 -1.46941e-05 0)
(0 0.000246864 0)
(0 -1.47032e-05 0)
(0 0.000157415 0)
(0 -1.4712e-05 0)
(0 -1.44022e-05 0)
(0 -1.43821e-05 0)
(0 0.000143069 0)
(0 -3.58656e-06 0)
(0 1.41808e-05 0)
(0 4.44767e-06 0)
(0 -1.08606e-05 0)
(0 -1.36455e-05 0)
(0 -1.46179e-05 0)
(0 -2.53234e-07 0)
(0 6.56559e-06 0)
(0 -7.04988e-06 0)
(0 0.000205692 0)
(0 -1.32215e-05 0)