/*--------------------------------*- C++ -*----------------------------------*\
| =========                 |                                                 |
| \\      /  F ield         | OpenFOAM: The Open Source CFD Toolbox           |
|  \\    /   O peration     | Version:  v2012                                 |
|   \\  /    A nd           | Website:  www.openfoam.com                      |
|    \\/     M anipulation  |                                                 |
\*---------------------------------------------------------------------------*/
FoamFile
{
    version     2.0;
    format      ascii;
    class       volVectorField;
    location    "600";
    object      cellDisplacement;
}
// * * * * * * * * * * * * * * * * * * * * * * * * * * * * * * * * * * * * * //

dimensions      [0 1 0 0 0 0 0];


internalField   nonuniform List<vector> 
13917
(
(0 -0.0795001 0)
(0 -0.0734348 0)
(0 -0.0799971 0)
(0 -0.0759538 0)
(0 -0.0474398 0)
(0 -0.0799948 0)
(0 -0.0799979 0)
(0 -0.0799969 0)
(0 -0.0799975 0)
(0 -0.0797922 0)
(0 -0.0799468 0)
(0 -0.0797486 0)
(0 -0.0761436 0)
(0 -0.0799996 0)
(0 -0.0786563 0)
(0 -0.0782867 0)
(0 -0.0743249 0)
(0 -0.0796568 0)
(0 -0.0797333 0)
(0 -0.026474 0)
(0 -0.00890517 0)
(0 -0.0799981 0)
(0 -0.0391123 0)
(0 -0.0799964 0)
(0 -0.0615677 0)
(0 -0.079998 0)
(0 -0.0797691 0)
(0 -0.0798721 0)
(0 -0.0799953 0)
(0 -0.0798807 0)
(0 -0.079538 0)
(0 -0.0787308 0)
(0 -0.0796208 0)
(0 -0.0785618 0)
(0 -0.0631562 0)
(0 -0.0799828 0)
(0 -0.0375706 0)
(0 -0.0799995 0)
(0 -0.0774289 0)
(0 -0.0799996 0)
(0 -0.00631858 0)
(0 -0.00360158 0)
(0 -0.036752 0)
(0 -0.079946 0)
(0 -0.0718237 0)
(0 -0.0789933 0)
(0 -0.0796389 0)
(0 -0.0797853 0)
(0 -0.0799995 0)
(0 -0.00626284 0)
(0 -0.078306 0)
(0 -0.0744161 0)
(0 -0.0799996 0)
(0 -0.0786856 0)
(0 -0.0745395 0)
(0 -0.0783818 0)
(0 -0.0799428 0)
(0 -0.0702786 0)
(0 -0.0777894 0)
(0 -0.0713473 0)
(0 -0.0799959 0)
(0 -0.0735126 0)
(0 -0.0799996 0)
(0 -0.028096 0)
(0 -0.0799936 0)
(0 -0.0799962 0)
(0 -0.0492737 0)
(0 -0.0633475 0)
(0 -0.0799482 0)
(0 -0.0794355 0)
(0 -0.0461723 0)
(0 -0.0799971 0)
(0 -0.0799996 0)
(0 -0.0607818 0)
(0 -0.0799995 0)
(0 -0.0798044 0)
(0 -0.0799996 0)
(0 -0.0753068 0)
(0 -0.0799982 0)
(0 -0.016573 0)
(0 -0.0201775 0)
(0 -0.0472917 0)
(0 -0.0799931 0)
(0 -0.0799994 0)
(0 -0.0799991 0)
(0 -0.0750308 0)
(0 -0.0239901 0)
(0 -0.0799956 0)
(0 -0.0781997 0)
(0 -0.0384055 0)
(0 -0.0799995 0)
(0 -0.0798576 0)
(0 -0.0667838 0)
(0 -0.0768232 0)
(0 -0.079996 0)
(0 -0.0799933 0)
(0 -0.0799126 0)
(0 -0.0797474 0)
(0 -0.0799292 0)
(0 -0.0799632 0)
(0 -0.0332005 0)
(0 -0.0794915 0)
(0 -0.0799445 0)
(0 -0.0760423 0)
(0 -0.0527979 0)
(0 -0.0799969 0)
(0 -0.0799908 0)
(0 -0.0798028 0)
(0 -0.0744797 0)
(0 -0.079609 0)
(0 -0.0799995 0)
(0 -0.0799996 0)
(0 -0.0798444 0)
(0 -0.0799972 0)
(0 -0.0766582 0)
(0 -0.0799996 0)
(0 -0.0545368 0)
(0 -0.0799989 0)
(0 -0.0799996 0)
(0 -0.078676 0)
(0 -0.00698197 0)
(0 -0.0799449 0)
(0 -0.0799996 0)
(0 -0.0798546 0)
(0 -0.00575026 0)
(0 -0.0765638 0)
(0 -0.0715627 0)
(0 -0.0046439 0)
(0 -0.0219439 0)
(0 -0.0799946 0)
(0 -0.0799995 0)
(0 -0.0764075 0)
(0 -0.0721689 0)
(0 -0.00731104 0)
(0 -0.0799858 0)
(0 -0.0799962 0)
(0 -0.0795151 0)
(0 -0.0799695 0)
(0 -0.0502516 0)
(0 -0.07864 0)
(0 -0.0799781 0)
(0 -0.0601551 0)
(0 -0.0755232 0)
(0 -0.0799608 0)
(0 -0.0639271 0)
(0 -0.0799953 0)
(0 -0.079995 0)
(0 -0.0740669 0)
(0 -0.0569946 0)
(0 -0.0788668 0)
(0 -0.0796784 0)
(0 -0.0799996 0)
(0 -0.0798509 0)
(0 -0.0796419 0)
(0 -0.0784942 0)
(0 -0.0799991 0)
(0 -0.0793927 0)
(0 -0.0799872 0)
(0 -0.0799996 0)
(0 -0.0799858 0)
(0 -0.0779855 0)
(0 -0.0797593 0)
(0 -0.0150587 0)
(0 -0.0799057 0)
(0 -0.0798338 0)
(0 -0.0799235 0)
(0 -0.075945 0)
(0 -0.0797154 0)
(0 -0.0687479 0)
(0 -0.0795374 0)
(0 -0.0796288 0)
(0 -0.0799996 0)
(0 -0.079863 0)
(0 -0.0758138 0)
(0 -0.0799938 0)
(0 -0.0797364 0)
(0 -0.0799994 0)
(0 -0.0799993 0)
(0 -0.0799947 0)
(0 -0.0669721 0)
(0 -0.0798662 0)
(0 -0.0795701 0)
(0 -0.0601391 0)
(0 -0.0255459 0)
(0 -0.0792678 0)
(0 -0.0799976 0)
(0 -0.0799666 0)
(0 -0.0799989 0)
(0 -0.079298 0)
(0 -0.0799192 0)
(0 -0.0799796 0)
(0 -0.0799989 0)
(0 -0.079967 0)
(0 -0.0415017 0)
(0 -0.0799704 0)
(0 -0.0797407 0)
(0 -0.00216454 0)
(0 -0.0673884 0)
(0 -0.0799822 0)
(0 -0.0799956 0)
(0 -0.0779692 0)
(0 -0.00587925 0)
(0 -0.0796614 0)
(0 -0.0796617 0)
(0 -0.0799996 0)
(0 -0.0799832 0)
(0 -0.0624046 0)
(0 -0.0708569 0)
(0 -0.0797377 0)
(0 -0.0799972 0)
(0 -0.0752448 0)
(0 -0.079998 0)
(0 -0.0799996 0)
(0 -0.079915 0)
(0 -0.0530379 0)
(0 -0.0799955 0)
(0 -0.0796717 0)
(0 -0.0799996 0)
(0 -0.0600428 0)
(0 -0.0799949 0)
(0 -0.0662332 0)
(0 -0.0798586 0)
(0 -0.00750983 0)
(0 -0.0799995 0)
(0 -0.079997 0)
(0 -0.0784144 0)
(0 -0.0799936 0)
(0 -0.0785666 0)
(0 -0.0518717 0)
(0 -0.0799812 0)
(0 -0.079854 0)
(0 -0.0792731 0)
(0 -0.0799962 0)
(0 -0.0799996 0)
(0 -0.0209445 0)
(0 -0.0788064 0)
(0 -0.0799994 0)
(0 -0.0799993 0)
(0 -0.0170049 0)
(0 -0.0415291 0)
(0 -0.0799996 0)
(0 -0.0799277 0)
(0 -0.00105744 0)
(0 -0.0799748 0)
(0 -0.0798661 0)
(0 -0.0797347 0)
(0 -0.0793788 0)
(0 -0.0161914 0)
(0 -0.0797484 0)
(0 -0.0799996 0)
(0 -0.06952 0)
(0 -0.0799059 0)
(0 -0.0799768 0)
(0 -0.0711391 0)
(0 -0.0698099 0)
(0 -0.0797768 0)
(0 -0.0799996 0)
(0 -0.0798374 0)
(0 -0.0793214 0)
(0 -0.0786904 0)
(0 -0.00179712 0)
(0 -0.0799996 0)
(0 -0.0799949 0)
(0 -0.0799785 0)
(0 -0.0521235 0)
(0 -0.0799996 0)
(0 -0.0799996 0)
(0 -0.0799888 0)
(0 -0.0799984 0)
(0 -0.079824 0)
(0 -0.0193495 0)
(0 -0.00692144 0)
(0 -0.0796416 0)
(0 -0.0799996 0)
(0 -0.0799093 0)
(0 -0.07764 0)
(0 -0.079985 0)
(0 -0.0793767 0)
(0 -0.0168834 0)
(0 -0.0799922 0)
(0 -0.0260443 0)
(0 -0.0799943 0)
(0 -0.0778221 0)
(0 -0.00105896 0)
(0 -0.0788617 0)
(0 -0.07966 0)
(0 -0.0797593 0)
(0 -0.0799769 0)
(0 -0.0793907 0)
(0 -0.0710789 0)
(0 -0.0799773 0)
(0 -0.0799961 0)
(0 -0.0799957 0)
(0 -0.0593266 0)
(0 -0.0799897 0)
(0 -0.0341711 0)
(0 -0.0710274 0)
(0 -0.0531972 0)
(0 -0.0799963 0)
(0 -0.00607479 0)
(0 -0.0798721 0)
(0 -0.0793363 0)
(0 -0.0681777 0)
(0 -0.0796791 0)
(0 -0.0766 0)
(0 -0.0799995 0)
(0 -0.0797092 0)
(0 -0.0798403 0)
(0 -0.0648399 0)
(0 -0.0691762 0)
(0 -0.0799995 0)
(0 -0.0799996 0)
(0 -0.0554514 0)
(0 -0.00759058 0)
(0 -0.0799915 0)
(0 -0.0663212 0)
(0 -0.0799995 0)
(0 -0.0641861 0)
(0 -0.0799994 0)
(0 -0.0731807 0)
(0 -0.0799793 0)
(0 -0.0790946 0)
(0 -0.0799995 0)
(0 -0.0778222 0)
(0 -0.079984 0)
(0 -0.0799915 0)
(0 -0.0787996 0)
(0 -0.079926 0)
(0 -0.0799903 0)
(0 -0.0742672 0)
(0 -0.0799995 0)
(0 -0.079968 0)
(0 -0.0799996 0)
(0 -0.0782782 0)
(0 -0.0799996 0)
(0 -0.0788709 0)
(0 -0.0799991 0)
(0 -0.0799889 0)
(0 -0.0799553 0)
(0 -0.0799505 0)
(0 -0.0799976 0)
(0 -0.0218352 0)
(0 -0.0796569 0)
(0 -0.0799994 0)
(0 -0.0730287 0)
(0 -0.077392 0)
(0 -0.0799996 0)
(0 -0.0799863 0)
(0 -0.0754091 0)
(0 -0.0799769 0)
(0 -0.0799947 0)
(0 -0.0288539 0)
(0 -0.0799996 0)
(0 -0.0799804 0)
(0 -0.0276266 0)
(0 -0.0510543 0)
(0 -0.0325807 0)
(0 -0.0569923 0)
(0 -0.0799754 0)
(0 -0.0799943 0)
(0 -0.079996 0)
(0 -0.0799994 0)
(0 -0.0583236 0)
(0 -0.0799156 0)
(0 -0.0799996 0)
(0 -0.0794586 0)
(0 -0.0799982 0)
(0 -0.0799995 0)
(0 -0.0799972 0)
(0 -0.0338947 0)
(0 -0.079976 0)
(0 -0.0507075 0)
(0 -0.079994 0)
(0 -0.0712668 0)
(0 -0.0799996 0)
(0 -0.0798719 0)
(0 -0.0771365 0)
(0 -0.0261325 0)
(0 -0.0797127 0)
(0 -0.0798795 0)
(0 -0.0798015 0)
(0 -0.0799996 0)
(0 -0.0799993 0)
(0 -0.0799996 0)
(0 -0.0797744 0)
(0 -0.079771 0)
(0 -0.0402919 0)
(0 -0.0799992 0)
(0 -0.0799983 0)
(0 -0.071131 0)
(0 -0.0799816 0)
(0 -0.0568769 0)
(0 -0.0799716 0)
(0 -0.073077 0)
(0 -0.0189736 0)
(0 -0.0766921 0)
(0 -0.0799982 0)
(0 -0.0766694 0)
(0 -0.0799995 0)
(0 -0.0799993 0)
(0 -0.079934 0)
(0 -0.0799941 0)
(0 -0.0740547 0)
(0 -0.0799944 0)
(0 -0.0799935 0)
(0 -0.0448331 0)
(0 -0.0799877 0)
(0 -0.0726661 0)
(0 -0.0602811 0)
(0 -0.0798779 0)
(0 -0.00258828 0)
(0 -0.0624759 0)
(0 -0.0501451 0)
(0 -0.0799716 0)
(0 -0.0135189 0)
(0 -0.0799996 0)
(0 -0.0799969 0)
(0 -0.0799996 0)
(0 -0.0799654 0)
(0 -0.0799994 0)
(0 -0.0799996 0)
(0 -0.0794278 0)
(0 -0.0571955 0)
(0 -0.0799397 0)
(0 -0.0773051 0)
(0 -0.0789732 0)
(0 -0.0432617 0)
(0 -0.079995 0)
(0 -0.0799977 0)
(0 -0.0799962 0)
(0 -0.0783408 0)
(0 -0.0798925 0)
(0 -0.0781305 0)
(0 -0.077611 0)
(0 -0.0797927 0)
(0 -0.0765314 0)
(0 -0.0799775 0)
(0 -0.0742523 0)
(0 -0.00732315 0)
(0 -0.0799995 0)
(0 -0.0799994 0)
(0 -0.0799994 0)
(0 -0.0799251 0)
(0 -0.0799996 0)
(0 -0.0799994 0)
(0 -0.0799994 0)
(0 -0.0799996 0)
(0 -0.0212548 0)
(0 -0.0796929 0)
(0 -0.0764716 0)
(0 -0.0715348 0)
(0 -0.0799814 0)
(0 -0.0796565 0)
(0 -0.00775446 0)
(0 -0.0797387 0)
(0 -0.0793853 0)
(0 -0.0799996 0)
(0 -0.0460454 0)
(0 -0.0799036 0)
(0 -0.0799993 0)
(0 -0.0799862 0)
(0 -0.0799996 0)
(0 -0.0121799 0)
(0 -0.0713903 0)
(0 -0.00391401 0)
(0 -0.0793939 0)
(0 -0.0321897 0)
(0 -0.079997 0)
(0 -0.079995 0)
(0 -0.0793362 0)
(0 -0.0799991 0)
(0 -0.0783331 0)
(0 -0.0799095 0)
(0 -0.0799992 0)
(0 -0.0799939 0)
(0 -0.0799302 0)
(0 -0.0799799 0)
(0 -0.0799086 0)
(0 -0.0797274 0)
(0 -0.0799386 0)
(0 -0.0794429 0)
(0 -0.0799466 0)
(0 -0.0799944 0)
(0 -0.0795397 0)
(0 -0.0798358 0)
(0 -0.00733554 0)
(0 -0.0799838 0)
(0 -0.0784507 0)
(0 -0.0599456 0)
(0 -0.0793482 0)
(0 -0.0755812 0)
(0 -0.0799996 0)
(0 -0.079997 0)
(0 -0.0655927 0)
(0 -0.0137824 0)
(0 -0.0799966 0)
(0 -0.0799996 0)
(0 -0.00203836 0)
(0 -0.0799996 0)
(0 -0.0751425 0)
(0 -0.0799539 0)
(0 -0.0667125 0)
(0 -0.0799996 0)
(0 -0.0799855 0)
(0 -0.0788466 0)
(0 -0.0741355 0)
(0 -0.0799993 0)
(0 -0.0799612 0)
(0 -0.0799996 0)
(0 -0.00230015 0)
(0 -0.0799996 0)
(0 -0.0799994 0)
(0 -0.0799919 0)
(0 -0.0602584 0)
(0 -0.0799993 0)
(0 -0.0799974 0)
(0 -0.0794611 0)
(0 -0.0513032 0)
(0 -0.0744237 0)
(0 -0.0798016 0)
(0 -0.0799752 0)
(0 -0.00977303 0)
(0 -0.0496514 0)
(0 -0.0158201 0)
(0 -0.0165711 0)
(0 -0.0799996 0)
(0 -0.0799807 0)
(0 -0.079429 0)
(0 -0.079965 0)
(0 -0.00505967 0)
(0 -0.0318554 0)
(0 -0.0798854 0)
(0 -0.0799985 0)
(0 -0.0791342 0)
(0 -0.0692901 0)
(0 -0.0605299 0)
(0 -0.0570719 0)
(0 -0.0799925 0)
(0 -0.0799987 0)
(0 -0.0225065 0)
(0 -0.057062 0)
(0 -0.0799756 0)
(0 -0.0794195 0)
(0 -0.0790894 0)
(0 -0.0710653 0)
(0 -0.0768077 0)
(0 -0.0786532 0)
(0 -0.0798285 0)
(0 -0.0799876 0)
(0 -0.0799683 0)
(0 -0.0799439 0)
(0 -0.0798786 0)
(0 -0.0799841 0)
(0 -0.079833 0)
(0 -0.0589624 0)
(0 -0.0799996 0)
(0 -0.0563806 0)
(0 -0.0775734 0)
(0 -0.0770132 0)
(0 -0.0799832 0)
(0 -0.0799079 0)
(0 -0.0100177 0)
(0 -0.0799846 0)
(0 -0.079899 0)
(0 -0.0799996 0)
(0 -0.0798775 0)
(0 -0.0796292 0)
(0 -0.0794324 0)
(0 -0.0281264 0)
(0 -0.0799963 0)
(0 -0.0799809 0)
(0 -0.0799987 0)
(0 -0.0738263 0)
(0 -0.0788212 0)
(0 -0.0799674 0)
(0 -0.0799995 0)
(0 -0.0799996 0)
(0 -0.0797692 0)
(0 -0.0799342 0)
(0 -0.0782663 0)
(0 -0.0774521 0)
(0 -0.0713802 0)
(0 -0.079862 0)
(0 -0.0799527 0)
(0 -0.0720967 0)
(0 -0.0796576 0)
(0 -0.0799751 0)
(0 -0.0799985 0)
(0 -0.0799996 0)
(0 -0.0776318 0)
(0 -0.0799039 0)
(0 -0.0799838 0)
(0 -0.0790148 0)
(0 -0.0749038 0)
(0 -0.0799995 0)
(0 -0.0799951 0)
(0 -0.0799959 0)
(0 -0.0799627 0)
(0 -0.0237341 0)
(0 -0.0799996 0)
(0 -0.0797926 0)
(0 -0.00752707 0)
(0 -0.0790574 0)
(0 -0.0798147 0)
(0 -0.0795786 0)
(0 -0.0798718 0)
(0 -0.0799982 0)
(0 -0.0799337 0)
(0 -0.0792831 0)
(0 -0.0799962 0)
(0 -0.0761864 0)
(0 -0.0799996 0)
(0 -0.0157922 0)
(0 -0.0240579 0)
(0 -0.0799903 0)
(0 -0.0799955 0)
(0 -0.0799958 0)
(0 -0.0761882 0)
(0 -0.0755621 0)
(0 -0.0563452 0)
(0 -0.0794076 0)
(0 -0.0799996 0)
(0 -0.0799153 0)
(0 -0.0775855 0)
(0 -0.0799222 0)
(0 -0.0797014 0)
(0 -0.0672586 0)
(0 -0.0799934 0)
(0 -0.0799108 0)
(0 -0.0799779 0)
(0 -0.0610796 0)
(0 -0.0799316 0)
(0 -0.0755362 0)
(0 -0.0799992 0)
(0 -0.0798007 0)
(0 -0.0799008 0)
(0 -0.0788694 0)
(0 -0.0184257 0)
(0 -0.0582546 0)
(0 -0.071979 0)
(0 -0.0799517 0)
(0 -0.0790336 0)
(0 -0.0799672 0)
(0 -0.0799995 0)
(0 -0.0797009 0)
(0 -0.0283128 0)
(0 -0.079932 0)
(0 -0.0799965 0)
(0 -0.0799842 0)
(0 -0.0690751 0)
(0 -0.0789181 0)
(0 -0.0493436 0)
(0 -0.0785527 0)
(0 -0.0779176 0)
(0 -0.0799976 0)
(0 -0.0183529 0)
(0 -0.0799952 0)
(0 -0.0784916 0)
(0 -0.0799462 0)
(0 -0.0798616 0)
(0 -0.0799996 0)
(0 -0.079901 0)
(0 -0.0740714 0)
(0 -0.0799996 0)
(0 -0.0799996 0)
(0 -0.0711225 0)
(0 -0.0769106 0)
(0 -0.0799853 0)
(0 -0.0799574 0)
(0 -0.0799034 0)
(0 -0.00292611 0)
(0 -0.0742764 0)
(0 -0.079975 0)
(0 -0.0772733 0)
(0 -0.0797916 0)
(0 -0.0797542 0)
(0 -0.0590232 0)
(0 -0.0796615 0)
(0 -0.079997 0)
(0 -0.0688114 0)
(0 -0.0750672 0)
(0 -0.0165705 0)
(0 -0.0799996 0)
(0 -0.00928434 0)
(0 -0.0781922 0)
(0 -0.0799996 0)
(0 -0.0772608 0)
(0 -0.0799949 0)
(0 -0.0785298 0)
(0 -0.0796598 0)
(0 -0.0172893 0)
(0 -0.0797802 0)
(0 -0.0522064 0)
(0 -0.0797199 0)
(0 -0.0122315 0)
(0 -0.0798993 0)
(0 -0.0750533 0)
(0 -0.079999 0)
(0 -0.0799991 0)
(0 -0.0799985 0)
(0 -0.00397707 0)
(0 -0.0237295 0)
(0 -0.0798141 0)
(0 -0.0796386 0)
(0 -0.0799996 0)
(0 -0.079998 0)
(0 -0.0796538 0)
(0 -0.0612394 0)
(0 -0.0799692 0)
(0 -0.0799966 0)
(0 -0.0799764 0)
(0 -0.0799633 0)
(0 -0.0796123 0)
(0 -0.079998 0)
(0 -0.0794984 0)
(0 -0.0793221 0)
(0 -0.0799252 0)
(0 -0.0799791 0)
(0 -0.0796319 0)
(0 -0.0799981 0)
(0 -0.0796248 0)
(0 -0.0760919 0)
(0 -0.0798305 0)
(0 -0.0788496 0)
(0 -0.0640972 0)
(0 -0.0784902 0)
(0 -0.0795961 0)
(0 -0.0787935 0)
(0 -0.0532859 0)
(0 -0.00542421 0)
(0 -0.0797029 0)
(0 -0.0761482 0)
(0 -0.079803 0)
(0 -0.0603082 0)
(0 -0.0553174 0)
(0 -0.00762143 0)
(0 -0.0768087 0)
(0 -0.0446331 0)
(0 -0.0783567 0)
(0 -0.0172805 0)
(0 -0.0799996 0)
(0 -0.0797308 0)
(0 -0.0799923 0)
(0 -0.0316212 0)
(0 -0.0108836 0)
(0 -0.0798326 0)
(0 -0.0797458 0)
(0 -0.0760683 0)
(0 -0.0799933 0)
(0 -0.0798622 0)
(0 -0.0799927 0)
(0 -0.0785418 0)
(0 -0.0799108 0)
(0 -0.0739753 0)
(0 -0.00816613 0)
(0 -0.0150637 0)
(0 -0.0766449 0)
(0 -0.0799996 0)
(0 -0.00939234 0)
(0 -0.0799873 0)
(0 -0.0784732 0)
(0 -0.0799996 0)
(0 -0.0798092 0)
(0 -0.0798686 0)
(0 -0.0799422 0)
(0 -0.0470525 0)
(0 -0.000332058 0)
(0 -0.0797462 0)
(0 -0.0634166 0)
(0 -0.0749538 0)
(0 -0.0799918 0)
(0 -0.076068 0)
(0 -0.0324629 0)
(0 -0.0786227 0)
(0 -0.0377661 0)
(0 -0.011663 0)
(0 -0.0787458 0)
(0 -0.0791058 0)
(0 -0.0799996 0)
(0 -0.0793067 0)
(0 -0.0688343 0)
(0 -0.00772868 0)
(0 -0.0799994 0)
(0 -0.0799558 0)
(0 -0.073456 0)
(0 -0.0736164 0)
(0 -0.0799924 0)
(0 -0.0799846 0)
(0 -0.0799996 0)
(0 -0.0796064 0)
(0 -0.0761784 0)
(0 -0.0214235 0)
(0 -0.0138056 0)
(0 -0.0795629 0)
(0 -0.0793523 0)
(0 -0.0799736 0)
(0 -0.078403 0)
(0 -0.0799995 0)
(0 -0.0741907 0)
(0 -0.0775385 0)
(0 -0.0799996 0)
(0 -0.0564644 0)
(0 -0.0785147 0)
(0 -0.0697121 0)
(0 -0.00901352 0)
(0 -0.0795806 0)
(0 -0.0797849 0)
(0 -0.0745373 0)
(0 -0.0799953 0)
(0 -0.0799996 0)
(0 -0.0798666 0)
(0 -0.0596372 0)
(0 -0.0510097 0)
(0 -0.0799131 0)
(0 -0.0799865 0)
(0 -0.00314925 0)
(0 -0.0799821 0)
(0 -0.0499456 0)
(0 -0.0795521 0)
(0 -0.0651 0)
(0 -0.0654135 0)
(0 -0.0799777 0)
(0 -0.0704206 0)
(0 -0.0799889 0)
(0 -0.0794451 0)
(0 -0.00782143 0)
(0 -0.0383844 0)
(0 -0.0687015 0)
(0 -0.0613237 0)
(0 -0.0748515 0)
(0 -0.0799995 0)
(0 -0.0680042 0)
(0 -0.0635217 0)
(0 -0.079998 0)
(0 -0.0799961 0)
(0 -0.0793408 0)
(0 -0.0796122 0)
(0 -0.0797755 0)
(0 -0.0777423 0)
(0 -0.0610955 0)
(0 -0.0790414 0)
(0 -0.0799996 0)
(0 -0.0799068 0)
(0 -0.0412419 0)
(0 -0.0737973 0)
(0 -0.0799978 0)
(0 -0.0792731 0)
(0 -0.0799993 0)
(0 -0.00962087 0)
(0 -0.0763402 0)
(0 -0.0799996 0)
(0 -0.0791319 0)
(0 -0.0747675 0)
(0 -0.0799996 0)
(0 -0.079999 0)
(0 -0.0607411 0)
(0 -0.0799169 0)
(0 -0.0160095 0)
(0 -0.0699835 0)
(0 -0.0333278 0)
(0 -0.0799995 0)
(0 -0.0431183 0)
(0 -0.0691146 0)
(0 -0.0610896 0)
(0 -0.0799907 0)
(0 -0.0771192 0)
(0 -0.0799559 0)
(0 -0.0799089 0)
(0 -0.0655579 0)
(0 -0.0795118 0)
(0 -0.0214757 0)
(0 -0.0799994 0)
(0 -0.0449488 0)
(0 -0.068433 0)
(0 -0.0322668 0)
(0 -0.0799185 0)
(0 -0.0336651 0)
(0 -0.0799364 0)
(0 -0.0799996 0)
(0 -0.0799959 0)
(0 -0.0788323 0)
(0 -0.0799797 0)
(0 -0.0799996 0)
(0 -0.0689676 0)
(0 -0.0799996 0)
(0 -0.0799965 0)
(0 -0.0799996 0)
(0 -0.0799995 0)
(0 -0.0799982 0)
(0 -0.0799995 0)
(0 -0.0799257 0)
(0 -0.0745675 0)
(0 -0.0799984 0)
(0 -0.0791012 0)
(0 -0.0799985 0)
(0 -0.0595136 0)
(0 -0.0667834 0)
(0 -0.0736457 0)
(0 -0.0229105 0)
(0 -0.0780591 0)
(0 -0.0793996 0)
(0 -0.0799996 0)
(0 -0.0661502 0)
(0 -0.0548541 0)
(0 -0.0799996 0)
(0 -0.0799822 0)
(0 -0.0686006 0)
(0 -0.0796928 0)
(0 -0.0788638 0)
(0 -0.0729088 0)
(0 -0.0799991 0)
(0 -0.079704 0)
(0 -0.0777301 0)
(0 -0.077091 0)
(0 -0.0799996 0)
(0 -0.0799996 0)
(0 -0.0799987 0)
(0 -0.0645705 0)
(0 -0.0799595 0)
(0 -0.0798917 0)
(0 -0.0799995 0)
(0 -0.0799973 0)
(0 -0.0798513 0)
(0 -0.0668464 0)
(0 -0.0742625 0)
(0 -0.0741432 0)
(0 -0.0153324 0)
(0 -0.0769175 0)
(0 -0.0186629 0)
(0 -0.0786181 0)
(0 -0.0794765 0)
(0 -0.079999 0)
(0 -0.0799242 0)
(0 -0.0692793 0)
(0 -0.0799042 0)
(0 -0.0799993 0)
(0 -0.0795347 0)
(0 -0.0741325 0)
(0 -0.0799996 0)
(0 -0.0675587 0)
(0 -0.0746002 0)
(0 -0.0796907 0)
(0 -0.0799988 0)
(0 -0.0338848 0)
(0 -0.0615583 0)
(0 -0.0799981 0)
(0 -0.0799765 0)
(0 -0.0799829 0)
(0 -0.0798933 0)
(0 -0.079982 0)
(0 -0.0600755 0)
(0 -0.0799441 0)
(0 -0.0745158 0)
(0 -0.0461884 0)
(0 -0.0745288 0)
(0 -0.0799974 0)
(0 -0.0799996 0)
(0 -0.0638483 0)
(0 -0.0398995 0)
(0 -0.0703043 0)
(0 -0.0799861 0)
(0 -0.0766195 0)
(0 -0.0788302 0)
(0 -0.0623677 0)
(0 -0.0750754 0)
(0 -0.0799405 0)
(0 -0.0660914 0)
(0 -0.0797359 0)
(0 -0.0799783 0)
(0 -0.0799994 0)
(0 -0.0706832 0)
(0 -0.0798998 0)
(0 -0.0777851 0)
(0 -0.0799996 0)
(0 -0.0799994 0)
(0 -0.0616026 0)
(0 -0.0799995 0)
(0 -0.0797954 0)
(0 -0.0799987 0)
(0 -0.0341851 0)
(0 -0.0799984 0)
(0 -0.0162333 0)
(0 -0.0783245 0)
(0 -0.0795784 0)
(0 -0.0798907 0)
(0 -0.079997 0)
(0 -0.0799794 0)
(0 -0.0799522 0)
(0 -0.0799954 0)
(0 -0.0169571 0)
(0 -0.0799707 0)
(0 -0.065237 0)
(0 -0.0787907 0)
(0 -0.0799982 0)
(0 -0.0719001 0)
(0 -0.0142163 0)
(0 -0.0759327 0)
(0 -0.0728112 0)
(0 -0.0799991 0)
(0 -0.0425438 0)
(0 -0.040631 0)
(0 -0.0796784 0)
(0 -0.0796065 0)
(0 -0.0796079 0)
(0 -0.0799958 0)
(0 -0.0799235 0)
(0 -0.0799996 0)
(0 -0.0797292 0)
(0 -0.079226 0)
(0 -0.0792854 0)
(0 -0.0799996 0)
(0 -0.0793674 0)
(0 -0.0799948 0)
(0 -0.0799982 0)
(0 -0.0777317 0)
(0 -0.0663202 0)
(0 -0.0799994 0)
(0 -0.0799771 0)
(0 -0.074062 0)
(0 -0.079896 0)
(0 -0.0791752 0)
(0 -0.0730267 0)
(0 -0.0781517 0)
(0 -0.0731353 0)
(0 -0.0795648 0)
(0 -0.000760907 0)
(0 -0.0795974 0)
(0 -0.0799662 0)
(0 -0.0502354 0)
(0 -0.0797349 0)
(0 -0.0656566 0)
(0 -0.079871 0)
(0 -0.014444 0)
(0 -0.0787237 0)
(0 -0.0797049 0)
(0 -0.0763581 0)
(0 -0.0716829 0)
(0 -0.0640354 0)
(0 -0.0799989 0)
(0 -0.0798483 0)
(0 -0.0799945 0)
(0 -0.0632852 0)
(0 -0.0729125 0)
(0 -0.0797164 0)
(0 -0.069408 0)
(0 -0.0798639 0)
(0 -0.0798585 0)
(0 -0.0729376 0)
(0 -0.0798736 0)
(0 -0.064989 0)
(0 -0.079994 0)
(0 -0.0736923 0)
(0 -0.0792498 0)
(0 -0.0799996 0)
(0 -0.0799691 0)
(0 -0.0609588 0)
(0 -0.077441 0)
(0 -0.0799996 0)
(0 -0.045522 0)
(0 -0.0500274 0)
(0 -0.0799995 0)
(0 -0.0799995 0)
(0 -0.077978 0)
(0 -0.0799465 0)
(0 -0.0263493 0)
(0 -0.0715936 0)
(0 -0.0799972 0)
(0 -0.0763789 0)
(0 -0.0474007 0)
(0 -0.0799755 0)
(0 -0.0660204 0)
(0 -0.0799855 0)
(0 -0.0224428 0)
(0 -0.0462244 0)
(0 -0.0736764 0)
(0 -0.0799288 0)
(0 -0.0799995 0)
(0 -0.0721972 0)
(0 -0.0743163 0)
(0 -0.0594258 0)
(0 -0.0785834 0)
(0 -0.00806772 0)
(0 -0.0799976 0)
(0 -0.0797131 0)
(0 -0.00272843 0)
(0 -0.0799947 0)
(0 -0.0798018 0)
(0 -0.0799734 0)
(0 -0.0799994 0)
(0 -0.0799995 0)
(0 -0.0629888 0)
(0 -0.0737328 0)
(0 -0.07118 0)
(0 -0.0799943 0)
(0 -0.0787372 0)
(0 -0.0799995 0)
(0 -0.0799996 0)
(0 -0.0778048 0)
(0 -0.0799983 0)
(0 -0.0799994 0)
(0 -0.0796021 0)
(0 -0.0799398 0)
(0 -0.0798852 0)
(0 -0.079994 0)
(0 -0.0799967 0)
(0 -0.0798839 0)
(0 -0.0799875 0)
(0 -0.0799994 0)
(0 -0.0797378 0)
(0 -0.078383 0)
(0 -0.0799996 0)
(0 -0.0798767 0)
(0 -0.0599894 0)
(0 -0.0762684 0)
(0 -0.0799958 0)
(0 -0.0795631 0)
(0 -0.0650397 0)
(0 -0.0797981 0)
(0 -0.0798778 0)
(0 -0.0794791 0)
(0 -0.0799996 0)
(0 -0.0774721 0)
(0 -0.0799945 0)
(0 -0.0793111 0)
(0 -0.0799757 0)
(0 -0.0799114 0)
(0 -0.0799621 0)
(0 -0.0787789 0)
(0 -0.0643319 0)
(0 -0.0756234 0)
(0 -0.0799966 0)
(0 -0.0539521 0)
(0 -0.0779095 0)
(0 -0.00900821 0)
(0 -0.0768759 0)
(0 -0.0669002 0)
(0 -0.0795943 0)
(0 -0.0799423 0)
(0 -0.079999 0)
(0 -0.079793 0)
(0 -0.0798938 0)
(0 -0.0799958 0)
(0 -0.0799857 0)
(0 -0.066954 0)
(0 -0.0799858 0)
(0 -0.079997 0)
(0 -0.055077 0)
(0 -0.0503928 0)
(0 -0.0789531 0)
(0 -0.0799996 0)
(0 -0.0138041 0)
(0 -0.0797848 0)
(0 -0.0799892 0)
(0 -0.0797084 0)
(0 -0.0693587 0)
(0 -0.0755829 0)
(0 -0.0667644 0)
(0 -0.0798939 0)
(0 -0.0796054 0)
(0 -0.017964 0)
(0 -0.0799989 0)
(0 -0.0799981 0)
(0 -0.0797185 0)
(0 -0.0799837 0)
(0 -0.079752 0)
(0 -0.0799941 0)
(0 -0.077105 0)
(0 -0.0778767 0)
(0 -0.0799952 0)
(0 -0.0799844 0)
(0 -0.0798603 0)
(0 -0.0799988 0)
(0 -0.0787883 0)
(0 -0.00585289 0)
(0 -0.0695881 0)
(0 -0.0732486 0)
(0 -0.06569 0)
(0 -0.0758384 0)
(0 -0.0797842 0)
(0 -0.0610513 0)
(0 -0.0799183 0)
(0 -0.0390268 0)
(0 -0.0787151 0)
(0 -0.0643334 0)
(0 -0.0798593 0)
(0 -0.079917 0)
(0 -0.0799853 0)
(0 -0.0682806 0)
(0 -0.0799636 0)
(0 -0.0696649 0)
(0 -0.0799946 0)
(0 -0.0581845 0)
(0 -0.0785283 0)
(0 -0.0420008 0)
(0 -0.0799686 0)
(0 -0.0799996 0)
(0 -0.0799361 0)
(0 -0.0615173 0)
(0 -0.0799221 0)
(0 -0.0710116 0)
(0 -0.0789579 0)
(0 -0.0799995 0)
(0 -0.0694998 0)
(0 -0.0745255 0)
(0 -0.0795729 0)
(0 -0.0790298 0)
(0 -0.0799982 0)
(0 -0.0615752 0)
(0 -0.0791893 0)
(0 -0.0753979 0)
(0 -0.0519314 0)
(0 -0.0794593 0)
(0 -0.0752954 0)
(0 -0.0272127 0)
(0 -0.077575 0)
(0 -0.0799996 0)
(0 -0.0776887 0)
(0 -0.0799767 0)
(0 -0.0799956 0)
(0 -0.0796448 0)
(0 -0.0799995 0)
(0 -0.0775586 0)
(0 -0.0254108 0)
(0 -0.0793088 0)
(0 -0.0799996 0)
(0 -0.0758256 0)
(0 -0.0795241 0)
(0 -0.0794343 0)
(0 -0.0799951 0)
(0 -0.0603741 0)
(0 -0.0799996 0)
(0 -0.079749 0)
(0 -0.0797886 0)
(0 -0.0545445 0)
(0 -0.0374077 0)
(0 -0.0799481 0)
(0 -0.0748903 0)
(0 -0.00403798 0)
(0 -0.0795571 0)
(0 -0.0588611 0)
(0 -0.0781264 0)
(0 -0.078782 0)
(0 -0.0797899 0)
(0 -0.0799909 0)
(0 -0.0799978 0)
(0 -0.0773153 0)
(0 -0.0798127 0)
(0 -0.0799872 0)
(0 -0.0799996 0)
(0 -0.0792841 0)
(0 -0.0799882 0)
(0 -0.0799996 0)
(0 -0.0793769 0)
(0 -0.0799951 0)
(0 -0.0776345 0)
(0 -0.0799985 0)
(0 -0.0799996 0)
(0 -0.0604591 0)
(0 -0.00401658 0)
(0 -0.0452098 0)
(0 -0.0742682 0)
(0 -0.0795768 0)
(0 -0.0647168 0)
(0 -0.077692 0)
(0 -0.0798495 0)
(0 -0.0764185 0)
(0 -0.0795609 0)
(0 -0.0799995 0)
(0 -0.079336 0)
(0 -0.0770969 0)
(0 -0.0799975 0)
(0 -0.0747984 0)
(0 -0.0799996 0)
(0 -0.0770453 0)
(0 -0.0798643 0)
(0 -0.0599852 0)
(0 -0.0799996 0)
(0 -0.0799996 0)
(0 -0.0712193 0)
(0 -0.0746917 0)
(0 -0.0799977 0)
(0 -0.0792758 0)
(0 -0.0799996 0)
(0 -0.0205436 0)
(0 -0.0662149 0)
(0 -0.0799985 0)
(0 -0.0748132 0)
(0 -0.0798 0)
(0 -0.0799994 0)
(0 -0.0561885 0)
(0 -0.0796748 0)
(0 -0.0788799 0)
(0 -0.0389128 0)
(0 -0.00777162 0)
(0 -0.0799982 0)
(0 -0.0799996 0)
(0 -0.0733943 0)
(0 -0.076505 0)
(0 -0.0709833 0)
(0 -0.078525 0)
(0 -0.0796398 0)
(0 -0.0799996 0)
(0 -0.076096 0)
(0 -0.0799994 0)
(0 -0.0799894 0)
(0 -0.0799763 0)
(0 -0.079986 0)
(0 -0.0746972 0)
(0 -0.0799135 0)
(0 -0.0799805 0)
(0 -0.0792169 0)
(0 -0.0544299 0)
(0 -0.0797153 0)
(0 -0.0799995 0)
(0 -0.0773741 0)
(0 -0.0798167 0)
(0 -0.0799966 0)
(0 -0.0799996 0)
(0 -0.0799906 0)
(0 -0.0784604 0)
(0 -0.0740743 0)
(0 -0.0156283 0)
(0 -0.0565285 0)
(0 -0.0799996 0)
(0 -0.0796736 0)
(0 -0.0767413 0)
(0 -0.0749849 0)
(0 -0.0774874 0)
(0 -0.00706412 0)
(0 -0.0687644 0)
(0 -0.0633652 0)
(0 -0.079801 0)
(0 -0.0792508 0)
(0 -0.0799944 0)
(0 -0.0798181 0)
(0 -0.0799995 0)
(0 -0.0799995 0)
(0 -0.0792659 0)
(0 -0.0796174 0)
(0 -0.0330207 0)
(0 -0.0789557 0)
(0 -0.0799996 0)
(0 -0.0731084 0)
(0 -0.077306 0)
(0 -0.0796254 0)
(0 -0.0799084 0)
(0 -0.0798755 0)
(0 -0.0799968 0)
(0 -0.0799766 0)
(0 -0.0675607 0)
(0 -0.0799995 0)
(0 -0.0372731 0)
(0 -0.0732571 0)
(0 -0.0797891 0)
(0 -0.00791334 0)
(0 -0.0694161 0)
(0 -0.0799461 0)
(0 -0.0799939 0)
(0 -0.0663647 0)
(0 -0.079996 0)
(0 -0.0726655 0)
(0 -0.0627792 0)
(0 -0.0771436 0)
(0 -0.0799994 0)
(0 -0.0789041 0)
(0 -0.0769713 0)
(0 -0.0799958 0)
(0 -0.0761589 0)
(0 -0.0799724 0)
(0 -0.0799993 0)
(0 -0.00293231 0)
(0 -0.0798331 0)
(0 -0.0213596 0)
(0 -0.0799996 0)
(0 -0.0797961 0)
(0 -0.0640563 0)
(0 -0.0799975 0)
(0 -0.0796636 0)
(0 -0.0799375 0)
(0 -0.00541177 0)
(0 -0.0799996 0)
(0 -0.079202 0)
(0 -0.079993 0)
(0 -0.0749511 0)
(0 -0.0799235 0)
(0 -0.0799996 0)
(0 -0.0633671 0)
(0 -0.0799985 0)
(0 -0.0717742 0)
(0 -0.0797487 0)
(0 -0.0798645 0)
(0 -0.00220872 0)
(0 -0.0799994 0)
(0 -0.0774582 0)
(0 -0.0799029 0)
(0 -0.0797033 0)
(0 -0.0799566 0)
(0 -0.0796864 0)
(0 -0.0797594 0)
(0 -0.0758463 0)
(0 -0.0799965 0)
(0 -0.0793842 0)
(0 -0.0799996 0)
(0 -0.07929 0)
(0 -0.0797427 0)
(0 -0.0701872 0)
(0 -0.0795546 0)
(0 -0.0690375 0)
(0 -0.079755 0)
(0 -0.0799964 0)
(0 -0.0761436 0)
(0 -0.0608875 0)
(0 -0.0799996 0)
(0 -0.0754266 0)
(0 -0.0799887 0)
(0 -0.0746004 0)
(0 -0.0799963 0)
(0 -0.0799779 0)
(0 -0.0793228 0)
(0 -0.0539838 0)
(0 -0.0536572 0)
(0 -0.0469096 0)
(0 -0.0232951 0)
(0 -0.0798818 0)
(0 -0.0798614 0)
(0 -0.079701 0)
(0 -0.0783239 0)
(0 -0.0257914 0)
(0 -0.0799842 0)
(0 -0.0765989 0)
(0 -0.0792748 0)
(0 -0.0799853 0)
(0 -0.0677574 0)
(0 -0.0799991 0)
(0 -0.0796239 0)
(0 -0.0786266 0)
(0 -0.0799986 0)
(0 -0.0799996 0)
(0 -0.0799778 0)
(0 -0.0799958 0)
(0 -0.0799906 0)
(0 -0.0606372 0)
(0 -0.079981 0)
(0 -0.0799996 0)
(0 -0.0799928 0)
(0 -0.0204568 0)
(0 -0.0732561 0)
(0 -0.079909 0)
(0 -0.0799977 0)
(0 -0.0799996 0)
(0 -0.0799829 0)
(0 -0.0725532 0)
(0 -0.0798354 0)
(0 -0.0794081 0)
(0 -0.0799994 0)
(0 -0.0799996 0)
(0 -0.0794371 0)
(0 -0.07992 0)
(0 -0.0776238 0)
(0 -0.0798541 0)
(0 -0.0798583 0)
(0 -0.0218786 0)
(0 -0.0798859 0)
(0 -0.0799928 0)
(0 -0.0427779 0)
(0 -0.0799874 0)
(0 -0.00869954 0)
(0 -0.0699548 0)
(0 -0.0799996 0)
(0 -0.0799995 0)
(0 -0.0306695 0)
(0 -0.0729517 0)
(0 -0.0748019 0)
(0 -0.0661948 0)
(0 -0.0797567 0)
(0 -0.079948 0)
(0 -0.0755045 0)
(0 -0.0449194 0)
(0 -0.0284612 0)
(0 -0.0793758 0)
(0 -0.0787105 0)
(0 -0.0786657 0)
(0 -0.0799759 0)
(0 -0.0640778 0)
(0 -0.0799994 0)
(0 -0.0799996 0)
(0 -0.079999 0)
(0 -0.0799764 0)
(0 -0.079654 0)
(0 -0.0799821 0)
(0 -0.0791045 0)
(0 -0.0799984 0)
(0 -0.0799849 0)
(0 -0.0799907 0)
(0 -0.0749081 0)
(0 -0.0799975 0)
(0 -0.0799995 0)
(0 -0.0224836 0)
(0 -0.0516196 0)
(0 -0.0798839 0)
(0 -0.0799993 0)
(0 -0.0799933 0)
(0 -0.065817 0)
(0 -0.0710714 0)
(0 -0.0799994 0)
(0 -0.0799934 0)
(0 -0.0799894 0)
(0 -0.0774544 0)
(0 -0.0778355 0)
(0 -0.0799992 0)
(0 -0.0735374 0)
(0 -0.0799993 0)
(0 -0.0799989 0)
(0 -0.0799833 0)
(0 -0.0799892 0)
(0 -0.0699343 0)
(0 -0.0614428 0)
(0 -0.020114 0)
(0 -0.0787263 0)
(0 -0.0799996 0)
(0 -0.0793862 0)
(0 -0.0777345 0)
(0 -0.0758353 0)
(0 -0.079906 0)
(0 -0.0799996 0)
(0 -0.0793749 0)
(0 -0.0799935 0)
(0 -0.0799996 0)
(0 -0.0799996 0)
(0 -0.0799993 0)
(0 -0.0566385 0)
(0 -0.0194495 0)
(0 -0.079996 0)
(0 -0.0389297 0)
(0 -0.0596989 0)
(0 -0.0768834 0)
(0 -0.0799996 0)
(0 -0.0793091 0)
(0 -0.0799987 0)
(0 -0.079917 0)
(0 -0.0561688 0)
(0 -0.0799983 0)
(0 -0.0794178 0)
(0 -0.0668604 0)
(0 -0.0799996 0)
(0 -0.0799819 0)
(0 -0.0783967 0)
(0 -0.0715889 0)
(0 -0.0799995 0)
(0 -0.0799992 0)
(0 -0.0322388 0)
(0 -0.0799937 0)
(0 -0.0799902 0)
(0 -0.0799985 0)
(0 -0.079989 0)
(0 -0.0798678 0)
(0 -0.0660599 0)
(0 -0.0748661 0)
(0 -0.079992 0)
(0 -0.0780805 0)
(0 -0.0799955 0)
(0 -0.0794944 0)
(0 -0.0799885 0)
(0 -0.0799744 0)
(0 -0.0764603 0)
(0 -0.079184 0)
(0 -0.0673457 0)
(0 -0.0761378 0)
(0 -0.0799991 0)
(0 -0.0799996 0)
(0 -0.0565402 0)
(0 -0.0799995 0)
(0 -0.0794639 0)
(0 -0.0713709 0)
(0 -0.0782879 0)
(0 -0.0548033 0)
(0 -0.079939 0)
(0 -0.0746408 0)
(0 -0.0799994 0)
(0 -0.0798439 0)
(0 -0.0658947 0)
(0 -0.0100821 0)
(0 -0.0799528 0)
(0 -0.0799996 0)
(0 -0.0793699 0)
(0 -0.0776373 0)
(0 -0.0795139 0)
(0 -0.0685328 0)
(0 -0.0762243 0)
(0 -0.0783933 0)
(0 -0.0799996 0)
(0 -0.0799996 0)
(0 -0.0799993 0)
(0 -0.0360208 0)
(0 -0.0187808 0)
(0 -0.0748614 0)
(0 -0.0799156 0)
(0 -0.0528388 0)
(0 -0.075032 0)
(0 -0.0799486 0)
(0 -0.0797037 0)
(0 -0.0799827 0)
(0 -0.059408 0)
(0 -0.0799993 0)
(0 -0.0799996 0)
(0 -0.000727216 0)
(0 -0.0799996 0)
(0 -0.0799038 0)
(0 -0.0792664 0)
(0 -0.0799993 0)
(0 -0.0743716 0)
(0 -0.0799992 0)
(0 -0.0792363 0)
(0 -0.0769873 0)
(0 -0.0778287 0)
(0 -0.0369382 0)
(0 -0.079974 0)
(0 -0.00187755 0)
(0 -0.074688 0)
(0 -0.0793873 0)
(0 -0.0799995 0)
(0 -0.0799995 0)
(0 -0.0100758 0)
(0 -0.00477785 0)
(0 -0.0769178 0)
(0 -0.0706646 0)
(0 -0.0799189 0)
(0 -0.0748609 0)
(0 -0.0798408 0)
(0 -0.0765226 0)
(0 -0.0799995 0)
(0 -0.0745985 0)
(0 -0.0799986 0)
(0 -0.0406273 0)
(0 -0.0799982 0)
(0 -0.0743524 0)
(0 -0.0379781 0)
(0 -0.0799983 0)
(0 -0.0799921 0)
(0 -0.079967 0)
(0 -0.0799828 0)
(0 -0.0798 0)
(0 -0.0794113 0)
(0 -0.0622601 0)
(0 -0.0799996 0)
(0 -0.0573628 0)
(0 -0.0525783 0)
(0 -0.0799501 0)
(0 -0.0797269 0)
(0 -0.0799985 0)
(0 -0.0799995 0)
(0 -0.0799075 0)
(0 -0.0799943 0)
(0 -0.079913 0)
(0 -0.0799811 0)
(0 -0.00918818 0)
(0 -0.0776987 0)
(0 -0.0785021 0)
(0 -0.0799994 0)
(0 -0.0783151 0)
(0 -0.0799994 0)
(0 -0.0799996 0)
(0 -0.0723146 0)
(0 -0.0689465 0)
(0 -0.0706085 0)
(0 -0.0799909 0)
(0 -0.0799996 0)
(0 -0.0763188 0)
(0 -0.0401745 0)
(0 -0.0785401 0)
(0 -0.0787422 0)
(0 -0.0793516 0)
(0 -0.0799711 0)
(0 -0.0799792 0)
(0 -0.026648 0)
(0 -0.0799956 0)
(0 -0.079848 0)
(0 -0.0799996 0)
(0 -0.0798019 0)
(0 -0.0769527 0)
(0 -0.0771953 0)
(0 -0.0799985 0)
(0 -0.016352 0)
(0 -0.0798563 0)
(0 -0.0799971 0)
(0 -0.0761672 0)
(0 -0.0781987 0)
(0 -0.0799501 0)
(0 -0.0799735 0)
(0 -0.0763578 0)
(0 -0.0799996 0)
(0 -0.0774987 0)
(0 -0.0799717 0)
(0 -0.0793457 0)
(0 -0.0792792 0)
(0 -0.0750486 0)
(0 -0.0799993 0)
(0 -0.0400078 0)
(0 -0.0799466 0)
(0 -0.0799989 0)
(0 -0.079999 0)
(0 -0.0796104 0)
(0 -0.0797852 0)
(0 -0.0778094 0)
(0 -0.0798162 0)
(0 -0.0101356 0)
(0 -0.0799989 0)
(0 -0.0782141 0)
(0 -0.0701846 0)
(0 -0.0788702 0)
(0 -0.0278076 0)
(0 -0.00310138 0)
(0 -0.0799995 0)
(0 -0.0529118 0)
(0 -0.00245572 0)
(0 -0.0711892 0)
(0 -0.0799231 0)
(0 -0.0736263 0)
(0 -0.0792384 0)