/*--------------------------------*- C++ -*----------------------------------*\
| =========                 |                                                 |
| \\      /  F ield         | OpenFOAM: The Open Source CFD Toolbox           |
|  \\    /   O peration     | Version:  v2012                                 |
|   \\  /    A nd           | Website:  www.openfoam.com                      |
|    \\/     M anipulation  |                                                 |
\*---------------------------------------------------------------------------*/
FoamFile
{
    version     2.0;
    format      ascii;
    class       surfaceVectorField;
    location    "600";
    object      Uf_0;
}
// * * * * * * * * * * * * * * * * * * * * * * * * * * * * * * * * * * * * * //

dimensions      [0 1 -1 0 0 0 0];


internalField   nonuniform List<vector> 
20673
(
(1.09608 0.127084 -1.3822e-20)
(1.10025 0.124612 4.97608e-22)
(1.09552 0.122026 -1.22278e-20)
(1.02175 0.042719 1.75634e-21)
(1.02052 0.0420107 -8.20647e-22)
(1.02075 0.0440124 -5.75421e-22)
(0.525045 -0.0681547 -1.14099e-20)
(0.559294 -0.0706268 -3.58022e-20)
(0.585036 -0.0711204 1.19429e-20)
(1.0587 -0.0103641 6.09756e-21)
(1.05883 -0.00930737 -2.1242e-20)
(1.05772 -0.00971478 -1.84135e-20)
(0.996458 0.00342646 -2.0024e-22)
(0.996285 0.00301301 -1.60968e-22)
(0.995976 0.00357959 4.55046e-21)
(0.371962 0.058497 -1.18033e-19)
(0.360167 0.0314121 -1.5382e-19)
(0.343191 0.0593689 -2.10169e-19)
(0.473834 -0.0567644 -6.2163e-21)
(0.468675 -0.058692 2.49006e-21)
(0.516324 -0.0610526 -6.89779e-21)
(0.584494 -0.0713477 -2.25181e-20)
(0.535691 -0.0687665 -2.50633e-20)
(0.554571 -0.0718854 9.0109e-22)
(0.40333 -0.064239 9.37642e-21)
(0.372147 -0.0606426 -1.38419e-20)
(0.338946 -0.0567809 8.78603e-21)
(1.1369 0.152823 1.17237e-20)
(1.14305 0.152789 -2.76185e-20)
(1.14061 0.158844 -5.30753e-21)
(1.1181 -0.0599171 1.54781e-23)
(1.1167 -0.0601074 1.29025e-21)
(1.11864 -0.0613793 -1.4648e-21)
(1.09687 -0.0417022 -3.94395e-21)
(1.09742 -0.0429726 1.00723e-20)
(1.09804 -0.0414381 1.63645e-20)
(1.0596 -0.0106301 2.3803e-20)
(-0.0217761 -0.00289847 0)
(-0.000965151 -0.00716017 -1.78965e-20)
(-0.0282759 -0.00425335 -2.72988e-20)
(0.973712 0.0970003 -3.61278e-21)
(0.969504 0.0964013 0)
(0.972601 0.0926601 0)
(0.995695 0.0923548 -5.76606e-21)
(0.993402 0.0898473 3.15106e-22)
(0.997116 0.0885891 -1.06809e-22)
(1.0149 0.048514 -2.61964e-22)
(1.01635 0.0481937 -3.76916e-22)
(1.0152 0.0469296 -1.3375e-22)
(1.14331 0.0221313 -2.41768e-21)
(1.1443 0.0245379 3.09089e-20)
(1.14622 0.0213817 -1.89811e-20)
(1.09579 -0.0423118 -1.07095e-22)
(1.09599 -0.0408057 -1.77277e-20)
(1.00159 0.00500984 1.01189e-21)
(1.0016 0.00478779 1.3896e-22)
(1.00141 0.00462974 -5.45555e-24)
(0.999982 0.0010019 3.74577e-21)
(0.999971 0.00133843 -2.0134e-21)
(0.999985 0.00100977 4.15832e-22)
(0.472729 -0.0570501 0)
(0.438736 -0.0568328 0)
(1.00092 0.00771631 1.44664e-21)
(1.00098 0.0081556 2.26793e-21)
(1.00111 0.00801259 1.11404e-22)
(0.625208 -0.0764714 -1.7763e-20)
(0.635447 -0.077301 -9.01581e-21)
(0.995294 0.0153244 2.06465e-21)
(0.994814 0.0151137 1.56454e-22)
(0.995045 0.0159197 -1.60914e-21)
(0.521106 -0.0544315 -1.25331e-20)
(0.486186 -0.0510353 -5.2695e-21)
(0.482767 -0.0529078 3.11149e-21)
(0.788587 0.0359684 5.46203e-21)
(0.779604 0.0415767 -6.68242e-20)
(0.780835 0.0296741 -7.95884e-20)
(0.761083 0.120219 0)
(0.759582 0.13274 -1.62845e-20)
(0.750667 0.123558 0)
(0.716211 0.557971 0)
(0.747285 0.56835 0)
(0.725531 0.601815 -2.79515e-21)
(1.19532 0.0984129 0)
(1.19495 0.0936239 1.1448e-20)
(1.19992 0.094774 2.67667e-20)
(1.11442 0.114111 1.40431e-20)
(1.11121 0.117114 -1.53569e-20)
(1.11017 0.112491 0)
(1.06287 0.0923592 2.58965e-21)
(1.05995 0.093016 -9.14616e-21)
(1.06088 0.0896545 -9.40503e-21)
(0.842026 0.0707911 0)
(0.834254 0.0734997 0)
(0.835554 0.06406 -1.59373e-20)
(0.908053 0.0024326 1.78486e-21)
(0.910803 -0.000573666 -1.10835e-20)
(0.912072 0.00331794 1.39244e-20)
(0.991595 0.0120667 6.64236e-22)
(0.991054 0.012732 3.78649e-21)
(0.991765 0.0129721 -3.16926e-21)
(1.12274 -0.072293 -6.09821e-21)
(1.12309 -0.0730097 3.51308e-20)
(1.11449 -0.0745825 1.27612e-20)
(1.00079 0.00738672 6.40054e-22)
(1.00093 0.00728764 -2.9502e-22)
(0.115989 -0.0323336 1.6013e-20)
(0.0916423 -0.0287398 -1.9637e-20)
(0.103868 -0.029569 1.02177e-20)
(1.06555 -0.0144125 2.92507e-21)
(1.0665 -0.0152021 3.43595e-20)
(0.269423 -0.00750177 -2.7467e-21)
(0.245284 -0.00493991 1.6731e-20)
(0.272793 -0.00706327 1.17891e-20)
(1.00853 0.00093533 0)
(1.00892 0.000918819 6.62887e-22)
(1.00809 0.000529807 0)
(0.999996 0.000707036 2.58321e-21)
(1 0.000331148 4.60673e-21)
(1 0.000362189 -2.27584e-22)
(1.02137 0.00268063 -3.56008e-21)
(1.02105 0.00285249 -2.89449e-21)
(1.02094 0.00252157 3.48961e-22)
(0.696775 0.196012 -5.10553e-20)
(0.713204 0.203746 -7.4423e-22)
(0.696233 0.217817 -2.24227e-20)
(1.03912 0.0254117 1.7319e-21)
(1.04005 0.0261775 2.46699e-21)
(1.04034 0.02527 6.11392e-21)
(0.890959 0.0184579 -1.44301e-20)
(0.8895 0.0138896 1.31604e-20)
(0.894899 0.0150288 -1.12524e-20)
(1.14252 0.0188476 -2.19785e-21)
(1.14016 0.022041 1.85793e-20)
(1.14714 -0.0117559 1.52832e-20)
(1.1456 -0.00933511 3.2984e-21)
(1.14425 -0.0120799 -6.383e-21)
(0.090693 0.124034 3.23729e-21)
(0.0900372 0.159667 -1.18449e-19)
(0.119783 0.138548 -2.61564e-19)
(1.00329 0.000749459 -2.6923e-22)
(1.00359 0.000681049 1.27023e-22)
(1.00353 0.0010539 0)
(1.08739 0.0167923 -1.87854e-20)
(1.08841 0.0178254 -8.43796e-21)
(1.08895 0.0162406 5.11612e-21)
(0.966234 0.0105631 -1.28207e-20)
(0.965021 0.0092256 -1.29928e-20)
(0.964636 0.0113064 2.30468e-21)
(0.0843923 0.0941194 1.61864e-19)
(0.050977 0.126857 -1.00558e-20)
(0.904981 0.00553933 3.76485e-20)
(0.903843 0.00109397 2.42017e-20)
(1.01462 0.0500636 0)
(1.01332 0.0485718 5.29836e-22)
(1.08706 0.039551 -1.3099e-20)
(1.08627 0.0416085 0)
(1.08881 0.0413293 0)
(1.11985 -0.0598666 0)
(1.1184 -0.0583516 0)
(0.995303 0.0308839 -2.79278e-22)
(0.995341 0.0294575 1.10435e-21)
(0.996393 0.0304414 -2.36321e-21)
(1.07218 0.0457782 -8.08349e-21)
(1.07427 0.0468496 1.09597e-20)
(1.0722 0.0481971 -7.29648e-21)
(1.03793 0.0255222 -4.23181e-21)
(1.03813 0.0246212 -7.7489e-21)
(0.594584 0.0562389 5.48226e-20)
(0.447415 0.0386016 8.56929e-21)
(0.503797 0.0431972 1.09936e-19)
(1.02303 0.0420518 1.04655e-21)
(1.02308 0.0440219 -2.17663e-21)
(-0.0194991 -0.000681804 -9.01156e-23)
(1.00158 0.00520861 -7.39247e-22)
(1.00177 0.00538562 -1.74399e-22)
(0.379851 0.0934994 7.60911e-20)
(0.403507 0.0628078 1.22799e-19)
(1.12305 0.386944 -1.43469e-20)
(1.08472 0.359431 -7.10861e-20)
(0.827664 0.274769 1.16739e-19)
(0.995732 -0.000399014 7.09866e-21)
(0.995278 -0.000225579 1.64369e-21)
(0.987727 -0.000740502 -9.78114e-21)
(0.988489 -0.000819256 -5.22712e-22)
(1.16049 -0.0494823 1.45797e-20)
(1.15834 -0.0507735 2.7072e-20)
(1.16191 -0.0521031 -1.32571e-20)
(1.06138 0.137504 6.43945e-22)
(1.06668 0.137582 0)
(1.06313 0.143511 1.07859e-20)
(0.996888 0.00331697 0)
(0.996604 0.00384287 -2.11098e-21)
(0.469512 -0.07152 3.37826e-20)
(0.434394 -0.0684099 -1.23517e-20)
(-0.118966 -0.015851 -1.19089e-20)
(-0.095035 -0.0191322 -1.62756e-20)
(-0.102465 -0.0180837 -2.77765e-20)
(0.99595 0.0154883 0)
(0.995676 0.0145302 0)
(0.0908638 0.194553 0)
(0.125638 0.21299 -6.45669e-20)
(0.0928973 0.233191 7.90305e-20)
(1.09123 -0.0487708 1.25143e-20)
(1.09049 -0.0482017 2.40683e-21)
(1.09135 -0.0477249 2.91241e-20)
(-0.11962 -0.0101709 1.47438e-20)
(-0.0956652 -0.0146223 -1.57147e-20)
(-0.110374 -0.0104556 5.73921e-20)
(1.05494 0.0278643 -4.33966e-21)
(1.05631 0.0284358 7.14166e-21)
(1.05511 0.029445 -1.42904e-20)
(0.495543 -0.0437603 -5.52785e-21)
(0.492857 -0.0459754 1.05754e-20)
(0.529533 -0.0474985 2.33174e-20)
(0.999941 0.00199386 3.64731e-21)
(0.99989 0.00231894 1.02873e-22)
(0.999911 0.00235943 2.13814e-22)
(1.00008 0.0031667 -2.69264e-21)
(1.00009 0.00347056 -6.3102e-21)
(1.00011 0.00309597 3.56906e-21)
(0.99614 -0.000107591 3.3966e-21)
(0.389429 0.119775 4.19272e-20)
(0.399945 0.1499 6.34502e-20)
(0.421265 0.125812 1.31867e-19)
(0.144209 -0.0369734 0)
(0.132027 -0.0362792 0)
(-0.0701583 0.0155655 -7.6794e-20)
(-0.111725 0.0125762 -3.55726e-20)
(-0.100382 0.0122151 -8.18348e-20)
(1.0535 0.0273945 1.44156e-21)
(1.05469 0.0264954 -2.5959e-21)
(1.0004 0.00434489 1.12507e-21)
(1.00045 0.00426357 -8.68088e-22)
(1.00033 0.00394698 1.20578e-21)
(1.13904 0.414362 1.11643e-19)
(1.21913 0.442678 -2.80808e-20)
(1.08578 0.0157446 -1.10343e-20)
(1.08553 0.0175755 6.30602e-21)
(1.02166 0.00258179 -3.21983e-21)
(1.02176 0.00290096 0)
(-0.0187481 -0.027453 0)
(-0.0454303 -0.0243936 1.73079e-20)
(-0.0327709 -0.0253504 -2.57826e-20)
(1.18016 0.132089 -1.17769e-20)
(1.17422 0.134124 0)
(1.17759 0.138457 2.93229e-20)
(1.02374 0.0247292 1.86753e-21)
(1.0241 0.0239443 1.73332e-21)
(1.02308 0.0238875 -1.53247e-21)
(0.97453 0.0530842 -5.17131e-21)
(0.97246 0.0543017 -3.8085e-22)
(0.974925 0.0556158 8.83066e-21)
(1.1963 0.438869 1.02146e-19)
(1.07292 0.410176 1.15194e-19)
(0.374194 0.00431103 2.75168e-20)
(0.402947 -0.00284123 1.01981e-19)
(0.38007 -0.0302574 0)
(1.13417 -0.0475483 -1.53569e-21)
(1.13607 -0.047663 -3.9673e-20)
(1.13513 -0.049582 -4.14615e-20)
(1.14457 -0.00222584 -2.63999e-20)
(1.14731 -0.00202834 1.62312e-20)
(1.14582 0.000252993 1.19493e-21)
(1.09609 -0.0548805 -2.00901e-20)
(1.09573 -0.0554232 2.18759e-20)
(1.09534 -0.0550796 -1.21714e-20)
(0.594766 0.131523 -6.03393e-20)
(0.614819 0.117084 2.36143e-20)
(0.616638 0.14346 -8.40808e-21)
(1.01117 0.00579078 -1.0922e-21)
(1.01163 0.00590271 -4.43787e-22)
(1.01145 0.00629823 8.25706e-22)
(0.841015 -0.000876495 2.84787e-20)
(0.844439 0.00649432 2.66068e-20)
(0.848575 -0.000282667 7.06181e-20)
(0.680464 0.189285 4.72716e-20)
(0.698423 0.180727 2.2918e-20)
(1.06268 0.0222147 1.46023e-22)
(1.06396 0.0219922 -5.55594e-21)
(1.0629 0.0206854 -1.68297e-20)
(1.01653 0.0127215 0)
(1.01656 0.0121438 1.27075e-21)
(1.01714 0.0126979 1.428e-23)
(0.422057 -0.0599552 -2.14239e-20)
(0.411801 -0.0592063 -2.02327e-20)
(0.489436 -0.0611842 -8.30326e-20)
(0.819658 0.4954 3.79272e-21)
(0.791599 0.513344 -7.86786e-21)
(0.83036 0.521341 8.2912e-21)
(1.1482 -0.0134641 4.96046e-22)
(1.14949 -0.0112805 7.64583e-21)
(1.01793 0.0478002 1.86983e-22)
(1.01785 0.0495796 -9.81295e-23)
(1.11284 0.127035 1.56188e-20)
(1.10917 0.129717 -2.06803e-20)
(1.11391 0.132032 -3.74792e-20)
(-0.15233 -0.0102911 5.71069e-20)
(-0.182734 -0.00983188 2.48953e-20)
(-0.169795 -0.00996608 4.16319e-20)
(0.286471 -0.00978213 1.03079e-20)
(0.263319 -0.00692082 -1.88788e-21)
(1.09885 -0.0475468 5.20418e-21)
(1.09807 -0.0479469 5.3958e-21)
(1.09882 -0.048424 -6.38423e-21)
(0.421825 -0.0615418 5.47627e-20)
(0.357704 -0.0597822 4.27082e-20)
(0.949222 0.00875281 4.31943e-21)
(0.947834 0.0107725 4.27824e-21)
(0.947126 0.00804238 1.3441e-21)
(0.0880776 -0.130573 9.83638e-20)
(0.0991334 -0.100694 0)
(0.0610735 -0.105806 1.91285e-20)
(1.00098 0.0138835 6.42224e-22)
(1.00106 0.0145543 6.09898e-21)
(1.00069 0.0142087 3.82566e-21)
(0.181262 0.0976019 6.68056e-20)
(0.211346 0.0791668 1.55529e-20)
(0.212448 0.11432 1.41112e-19)
(0.152836 -0.00923123 0)
(0.160325 -0.0109994 0)
(0.173098 -0.0143748 -1.2752e-20)
(0.907524 0.0134662 -2.1054e-20)
(0.904695 0.0167143 0)
(0.909302 0.0171816 0)
(1.00001 0.00106751 -3.22299e-22)
(0.99999 0.0010553 -4.50923e-22)
(1.16249 -0.0483568 -5.73454e-20)
(1.15959 -0.0474449 -2.78545e-20)
(0.116363 -0.0113459 6.74423e-21)
(0.13597 -0.0152503 6.88609e-21)
(0.128623 -0.0146525 -1.6317e-20)
(0.762986 0.108363 0)
(0.774639 0.117095 -1.77994e-20)
(1.00499 0.000662292 3.54669e-24)
(1.00522 0.000964273 -1.33747e-22)
(1.00532 0.000563799 -7.6412e-23)
(0.974486 0.0503983 -9.66916e-21)
(0.976783 0.0517223 5.12377e-21)
(1.03501 0.0285363 -4.29219e-22)
(1.03578 0.0294633 3.56625e-21)
(1.03466 0.0294923 2.12871e-22)
(1.00467 0.000676263 1.17899e-22)
(1.00455 0.000331869 1.25071e-22)
(1.01821 0.001999 9.6728e-22)
(1.01847 0.00183112 -1.18371e-21)
(1.01814 0.0017073 -1.385e-21)
(0.345998 0.0053401 -8.82274e-21)
(0.230611 -0.0308374 2.07658e-21)
(0.219958 -0.0282798 -1.2277e-20)
(0.2097 -0.0251685 2.30027e-20)
(0.950763 0.00638365 -8.2782e-21)
(0.95176 0.0091263 -1.08375e-20)
(1.04095 0.0269178 3.7737e-21)
(1.0397 0.027133 -2.55076e-21)
(0.99997 0.000976593 -1.13707e-22)
(0.999999 0.000666433 1.03165e-22)
(1.24732 0.00414126 -3.0005e-20)
(1.26521 0.00686012 -3.09021e-20)
(1.2177 -0.00286985 3.79458e-20)
(0.671777 -0.08076 -3.25381e-21)
(0.614437 -0.0763634 -7.28425e-21)
(1.09631 0.131869 -1.19896e-20)
(1.09188 0.128883 -3.31766e-21)
(0.578313 0.142671 -6.2649e-20)
(0.578808 0.114832 -5.37529e-21)
(0.995239 0.000238333 -1.43051e-21)
(0.994782 -9.8525e-05 1.229e-20)
(0.90608 0.00951585 7.14136e-21)
(0.910334 0.0106557 -6.77702e-20)
(1.11861 -0.0724526 -3.19995e-21)
(1.11585 -0.0716615 -1.58854e-20)
(1.11016 -0.0701313 -1.25454e-20)
(1.02551 0.013539 1.52783e-21)
(1.02545 0.0141173 -1.4384e-21)
(1.02473 0.0135741 1.34371e-21)
(0.963394 0.0225917 -2.07883e-21)
(0.96126 0.023331 -6.5644e-21)
(0.961992 0.0207462 -3.99367e-21)
(0.663621 0.193192 2.69639e-20)
(0.643291 0.199414 0)
(0.6618 0.216123 -6.02066e-20)
(0.98751 -4.88957e-06 -7.94353e-21)
(0.986944 -0.000550565 -1.03542e-20)
(0.672033 -0.073931 1.41899e-20)
(0.594971 -0.0696853 -2.593e-20)
(0.667193 -0.0726793 4.24935e-21)
(0.808633 0.600512 1.2043e-21)
(0.816221 0.571168 1.6246e-21)
(0.78152 0.572297 2.20006e-21)
(0.967554 0.012192 -7.50877e-21)
(0.968118 0.0100226 2.81149e-22)
(1.02405 0.0114094 3.42051e-21)
(1.0241 0.011966 1.93235e-21)
(1.02342 0.0114557 1.89275e-21)
(1.0575 0.0996097 7.67343e-21)
(1.05386 0.100018 1.77035e-20)
(1.05637 0.103878 1.68206e-20)
(1.12024 -0.0207487 7.45257e-21)
(1.12174 -0.0223489 5.92179e-20)
(1.12175 -0.0196085 4.65145e-20)
(0.112224 -0.151853 -8.87577e-20)
(0.0727881 -0.161199 2.21203e-20)
(1.11518 -0.0430241 -6.26635e-23)
(1.11672 -0.043704 -3.15575e-20)
(1.11508 -0.044449 7.32341e-21)
(1.02313 0.182815 -8.36544e-22)
(1.02626 0.17799 -3.35329e-21)
(1.03071 0.182124 -6.29594e-21)
(1.07994 0.0653277 9.53295e-21)
(1.07781 0.0672618 -5.64623e-22)
(1.07713 0.0642875 9.50138e-21)
(-0.0334573 0.0472918 3.9418e-20)
(-0.0521833 0.0533972 1.14049e-19)
(-0.0849601 0.045905 -1.53047e-20)
(1.05636 0.137969 1.74053e-22)
(1.05927 0.133123 -5.92823e-21)
(1.09086 -0.0879572 0)
(1.12297 -0.0851488 -8.57656e-21)
(1.13107 -0.0843381 0)
(-0.150564 -0.00779237 0)
(-0.127062 -0.010758 0)
(1.27722 0.00718754 4.76192e-20)
(1.20829 0.00559619 -2.15956e-20)
(0.941728 0.0446951 -9.6441e-21)
(0.938927 0.0463162 -1.02086e-20)
(0.938792 0.0426893 0)
(0.78928 -0.0273774 5.23678e-21)
(0.783582 -0.0189065 4.74745e-20)
(0.777741 -0.0298652 1.05823e-19)
(1.00002 0.00246052 -2.46121e-22)
(1.00003 0.00237022 1.365e-21)
(0.999991 0.00203127 4.08663e-21)
(1.13191 -0.0480846 1.09488e-20)
(1.13297 -0.0458689 3.65057e-20)
(1.09989 -0.0471645 3.70062e-21)
(1.09887 -0.0465123 -1.56001e-22)
(1.09639 -0.0543796 -1.34073e-20)
(1.09682 -0.0548033 -6.37286e-21)
(1.06245 0.0235207 1.27454e-20)
(1.06142 0.0223037 5.66393e-21)
(1.13248 -0.0123909 -1.22071e-20)
(1.13106 -0.014097 9.74855e-21)
(1.13363 -0.0146825 2.42313e-20)
(1.03277 0.0214799 -4.56675e-21)
(1.0336 0.0221316 4.0194e-21)
(1.03254 0.0223548 -2.33636e-21)
(0.837847 -0.00714673 -6.55169e-22)
(0.833304 4.41541e-05 1.04763e-20)
(1.0483 0.177107 -5.67425e-21)
(1.04112 0.176461 9.58661e-21)
(1.0464 0.170448 1.41645e-20)
(-0.285342 -0.000705741 -4.97056e-20)
(-0.30188 0.000517269 -4.0748e-20)
(-0.272229 -0.000826102 -2.31589e-20)
(1.09632 -0.049575 -2.22907e-21)
(1.09683 -0.0503364 -2.0895e-20)
(1.09723 -0.0494731 -2.60337e-20)
(1.01372 0.0564507 -8.895e-22)
(1.01366 0.0582686 -6.58864e-22)
(1.01188 0.0570092 1.45408e-22)
(0.776093 -0.080378 7.93999e-22)
(0.767177 -0.0805706 3.48199e-21)
(0.840163 -0.0810435 1.06144e-20)
(1.0151 0.200619 1.03386e-21)
(1.01216 0.205554 -8.73427e-22)
(1.01993 0.205474 -1.3173e-21)
(0.241165 -0.0311894 -3.08604e-22)
(0.255708 -0.034297 1.07371e-20)
(0.150353 0.0806274 4.98357e-20)
(0.150957 0.118014 -7.63551e-20)
(0.686613 -0.0756301 -1.31769e-20)
(0.754901 -0.0761322 0)
(1.01269 0.0269606 6.12484e-23)
(1.01338 0.0276502 -1.07494e-22)
(1.01251 0.0278333 -4.92212e-22)
(1.18573 0.130823 -5.83765e-20)
(1.18218 0.126601 -1.68851e-20)
(1.11945 0.115738 -1.91762e-20)
(1.1181 0.111124 8.56778e-23)
(1.02623 0.0134527 -1.8436e-21)
(1.02549 0.0129317 3.08167e-21)
(1.00036 0.00444576 2.32424e-21)
(1.00046 0.00478209 0)
(0.936684 0.11765 1.10138e-20)
(0.932794 0.113659 -5.48839e-21)
(0.938879 0.113148 -7.17502e-21)
(0.563848 -0.0576667 -6.37595e-21)
(0.559802 -0.0581051 1.82515e-21)
(1.25422 0.140572 -2.37676e-20)
(1.26166 0.138781 -2.20565e-20)
(1.26252 0.145654 1.03631e-20)
(-0.0151555 0.0472474 -1.21262e-19)
(0.0540647 0.0621821 -4.6838e-21)
(1.11811 0.0432513 6.6278e-21)
(1.11761 0.0458288 -1.85093e-20)
(1.12036 0.0446521 8.93251e-21)
(1.10211 -0.0540473 0)
(1.1014 -0.054187 0)
(1.10171 -0.054879 -8.74183e-21)
(1.131 -0.0758754 3.6613e-20)
(1.13737 -0.0775432 0)
(1.14072 -0.0778949 0)
(-0.0229558 0.0178798 2.52278e-20)
(-0.036477 0.0173536 -7.93101e-20)
(1.24804 0.183486 2.79759e-20)
(1.24839 0.17691 2.85875e-20)
(1.2562 0.180896 7.69904e-20)
(0.999776 0.00810651 -1.72126e-21)
(0.999863 0.00771893 -1.59035e-21)
(0.999697 0.00760919 3.60042e-21)
(0.567149 0.0530618 -3.73409e-20)
(0.57273 0.0731026 -5.607e-21)
(0.547908 0.0673015 -9.04573e-20)
(0.797057 0.0326147 5.03001e-20)
(0.796198 0.0437783 7.97853e-20)
(1.00967 0.000389822 0)
(1.0093 0.000384887 -2.62563e-22)
(1.02331 0.025381 2.93286e-21)
(1.02441 0.0255296 5.51316e-22)
(0.867737 0.462352 3.42188e-21)
(0.862487 0.435124 3.46298e-21)
(0.889467 0.443924 2.60833e-21)
(1.22538 0.489774 3.20183e-20)
(1.22817 0.469604 -1.17698e-20)
(1.13568 0.442844 -9.8721e-21)
(1.07845 -0.000929392 0)
(1.0796 -0.00171372 -5.23622e-22)
(1.07989 -0.000322107 0)
(1.00311 0.000898477 -2.04593e-22)
(1.00309 0.000562059 -4.98678e-22)
(1.12581 -0.0153147 1.22142e-20)
(1.12441 -0.013553 -3.05429e-20)
(1.12718 -0.0133775 -2.68319e-20)
(1.11904 -0.0223319 -3.19189e-20)
(1.11837 -0.0197926 -3.23662e-20)
(-0.134781 -0.0139304 7.83409e-23)
(-0.141612 -0.0133106 4.65928e-20)
(1.24199 -0.0342849 4.13407e-20)
(1.24273 -0.0369877 -2.74808e-20)
(1.24771 -0.0343882 4.06511e-20)
(0.992073 0.0116266 -3.85247e-22)
(0.9916 0.0114379 4.28461e-22)
(0.994229 0.0311219 -1.32544e-21)
(0.995244 0.0320546 2.77326e-21)
(1.14207 -0.00245538 -2.76194e-20)
(1.14325 -0.00470374 2.47097e-21)
(0.539633 -0.0630315 0)
(0.594012 -0.0652993 3.73763e-21)
(0.577389 -0.0652762 -3.38242e-21)
(0.965271 0.021609 2.17985e-20)
(0.964985 0.023985 8.82774e-21)
(0.461094 -0.0596546 1.69168e-21)
(0.451546 -0.0598956 1.95629e-20)
(0.502393 -0.062646 -6.74985e-21)
(-0.188716 -0.00844693 3.10138e-21)
(-0.164036 -0.0101996 3.16766e-20)
(-0.182717 -0.00836771 5.17465e-21)
(1.10248 -0.0533289 -1.60763e-22)
(1.10308 -0.0542538 1.60849e-20)
(1.01605 0.012647 1.70659e-21)
(1.0165 0.0131692 1.28483e-21)
(0.49341 0.388173 -2.45203e-20)
(0.513096 0.423081 -3.09429e-20)
(0.46015 0.424048 -6.71408e-20)
(1.13439 -0.00265274 -2.26832e-20)
(1.13698 -0.00267711 -2.02368e-20)
(1.13553 -0.000383514 7.61782e-22)
(-0.271738 -0.0054456 -6.90154e-20)
(-0.240984 -0.00817912 1.14356e-19)
(-0.258328 -0.00481078 5.85626e-20)
(1.00295 0.0184869 -1.99087e-21)
(1.00334 0.0189092 0)
(1.00295 0.0192964 -1.7382e-21)
(0.741699 0.0777559 -4.42492e-20)
(0.69738 0.0753278 -5.65622e-20)
(1.01193 0.0261646 1.5949e-22)
(1.01279 0.0260901 1.68856e-22)
(1.19191 0.0727784 5.52691e-21)
(1.18828 0.0704521 -2.70656e-20)
(1.18807 0.0747044 -4.56759e-21)
(1.00838 0.00121722 0)
(1.00816 0.000841562 0)
(0.090037 -0.0351482 1.89893e-20)
(0.06616 -0.0328095 -2.02447e-20)
(0.0844877 -0.0337113 7.35833e-21)
(0.403172 -0.0583426 4.72805e-20)
(0.3934 -0.0576782 3.16872e-20)
(0.467805 -0.0587641 -3.62129e-20)
(0.995143 0.0956564 -5.09557e-21)
(0.998749 0.0944395 -1.14905e-21)
(1.17661 0.484381 0)
(1.21907 0.496849 0)
(1.18763 0.465958 0)
(1.08278 0.066042 0)
(1.08145 0.0632108 0)
(1.01535 0.012507 -4.6828e-22)
(1.01547 0.0119554 1.84442e-21)
(1.11681 -0.0712247 -3.30069e-20)
(1.12248 -0.07211 -2.54437e-20)
(1.09547 -0.0497083 3.92745e-20)
(1.09579 -0.0488496 2.07874e-20)
(1.11599 0.0418858 1.65565e-20)
(1.1184 0.0407399 1.63663e-20)
(0.648117 -0.0750349 9.12457e-21)
(0.602176 -0.0736708 -2.22894e-20)
(0.66999 -0.0751337 1.3762e-20)
(-0.196613 -0.00539816 1.16928e-20)
(-0.216896 -0.0049643 3.36815e-20)
(1.01221 0.00318233 -9.92521e-22)
(1.01261 0.00323745 1.20781e-21)
(1.01239 0.00279941 -2.20601e-21)
(1.06578 0.091399 2.06106e-20)
(1.06505 0.0951411 -3.26749e-22)
(-0.000446976 -0.0305694 0)
(0.0121225 -0.0314254 1.08961e-20)
(-0.125185 0.0171262 -2.48012e-20)
(-0.153537 0.0148609 -4.70464e-20)
(-0.128764 0.0176153 -5.58261e-20)
(1 0.00242772 -1.69468e-21)
(0.999983 0.00282379 -1.58528e-21)
(1.00608 0.00905329 0)
(1.00649 0.00931675 -4.14304e-22)
(1.00625 0.00951975 -4.10595e-22)
(0.305055 -0.00671142 -3.2904e-21)
(0.32284 -0.00915515 -1.39042e-20)
(1.14154 -0.0496299 6.22992e-21)
(1.13959 -0.049949 -1.41912e-21)
(1.14051 -0.0519329 2.087e-20)
(1.00006 0.000136017 -1.52683e-22)
(1.00003 0.00010405 1.54428e-21)
(1.00006 0.000170795 0)
(1.10301 -0.0673147 1.13158e-20)
(1.10121 -0.0665538 -2.16264e-20)
(1.09968 -0.0658725 -1.86833e-20)
(1.18105 0.0151922 -5.58974e-22)
(1.17985 0.0117725 -3.29341e-20)
(1.17713 0.0148958 -2.44965e-20)
(0.798533 -0.0272515 -4.72452e-20)
(0.794037 -0.0369117 -3.53572e-20)
(1.09279 0.109897 1.76769e-21)
(1.09579 0.113481 1.42672e-20)
(1.09647 0.108454 5.38163e-22)
(1.00003 0.00277926 0)
(1.00005 0.00235482 -7.96008e-22)
(0.98095 0.211853 -1.13294e-21)
(0.982384 0.202188 -4.76515e-21)
(0.972649 0.206358 -3.73168e-21)
(-0.160872 -0.00881247 2.22937e-21)
(-0.15839 -0.00796902 -2.04922e-20)
(-0.190069 -0.00463453 -4.49751e-20)
(1.04211 0.00422596 1.8927e-21)
(1.04237 0.00356871 1.73438e-21)
(1.04314 0.00411831 1.85329e-21)
(1.20162 0.146472 -6.77665e-21)
(1.19608 0.149733 -2.35835e-20)
(1.19675 0.142074 9.24693e-21)
(0.56819 0.160269 -1.43826e-20)
(0.583591 0.181024 7.81826e-20)
(0.553707 0.186281 3.28897e-20)
(1.03424 0.0275873 4.16939e-22)
(1.03531 0.027482 -3.11788e-21)
(0.99543 0.0281864 0)
(0.994457 0.0285483 0)
(1.11082 -0.0368843 -1.71488e-20)
(1.11232 -0.0378045 -2.83308e-21)
(1.11061 -0.0384337 -3.90402e-21)
(0.337365 -0.014251 1.06402e-20)
(0.322661 -0.0119895 -2.14077e-21)
(0.320916 -0.0121031 2.00323e-20)
(1.11361 -0.0426421 5.22485e-24)
(1.11525 -0.041609 1.11225e-20)
(0.939614 0.122073 -1.57302e-21)
(0.934004 0.123223 1.76677e-22)
(0.977654 0.0969207 -9.95587e-21)
(0.975021 0.100716 1.74632e-21)
(1.00005 0.000295465 -3.22624e-23)
(1.00005 0.000256831 -7.41852e-22)
(1.00002 0.000173406 -1.97556e-22)
(0.0974407 -0.00812683 2.57161e-21)
(0.104732 -0.00858943 0)
(0.563566 -0.0335498 -5.43559e-21)
(0.65079 -0.0364962 9.732e-24)
(0.645516 -0.0338667 -1.0875e-19)
(1.102 -0.0634719 -1.48299e-21)
(1.10503 -0.0644591 1.86458e-20)
(1.10826 -0.0643779 1.24323e-20)
(1.0148 0.0124281 -3.51957e-21)
(1.01528 0.0129877 -2.05899e-21)
(-0.169469 -0.0112004 -1.28628e-20)
(-0.143091 -0.0139044 -5.69607e-20)
(-0.153689 -0.0124036 3.69162e-21)
(-0.00489789 -0.0121513 1.68401e-21)
(0.000644424 -0.0109877 0)
(-0.0235769 -0.00747287 -2.40337e-20)
(1.03902 -0.0879596 0)
(1.05646 -0.0876704 -1.00363e-20)
(0.493825 -0.0439107 -1.20188e-20)
(0.466209 -0.0429641 -9.88807e-21)
(1.09194 -0.0491275 -9.69914e-21)
(1.09119 -0.0495153 0)
(1.00003 0.00321724 0)
(1.00637 0.000744533 4.46017e-22)
(1.00603 0.000795441 -2.7603e-22)
(1.00644 0.00117131 -3.12574e-22)
(1.14195 0.0166674 -1.68702e-22)
(1.13925 0.0164379 2.11007e-20)
(1.14114 0.0140851 -1.7593e-22)
(0.0197009 -0.0261051 5.2095e-20)
(0.00222606 -0.022454 8.66776e-21)
(-0.00376376 -0.022379 -3.72258e-21)
(1.16758 -0.0247609 -6.00608e-21)
(1.16966 -0.0227971 -2.21482e-20)
(1.17039 -0.0264083 -2.98183e-21)
(1.07006 0.0449263 -4.02289e-21)
(1.07197 0.0437155 -7.60608e-21)
(1.23584 -0.0332136 1.41203e-20)
(1.19883 -0.0406531 3.0045e-20)
(1.08364 -0.0349738 1.10572e-21)
(1.08269 -0.0343201 -7.85757e-21)
(1.01812 0.00111563 2.47518e-21)
(1.01809 0.00138856 -2.88999e-21)
(1.01835 0.00125055 1.04763e-21)
(0.925528 0.030874 -3.35262e-20)
(0.917499 0.0251432 -9.79545e-20)
(0.826226 0.0119539 1.04934e-20)
(1.00201 0.00489081 2.06585e-23)
(1.00201 0.00467539 0)
(1.00181 0.00454608 0)
(0.775774 -0.0814223 -1.68256e-20)
(0.705407 -0.0798836 -3.22489e-22)
(1.07718 0.000167519 9.79456e-21)
(1.07683 -0.00124727 -7.58819e-21)
(1.00006 0.000105389 1.20377e-21)
(1.0001 0.000166121 -1.37817e-23)
(1.00154 0.10953 2.23229e-21)
(1.00034 0.11422 -1.11182e-21)
(0.997511 0.10978 -1.12752e-21)
(1.02127 0.18856 3.05754e-21)
(1.01682 0.183182 2.19099e-21)
(0.778281 -0.00910883 -2.8308e-20)
(0.788571 -0.00860812 3.66309e-20)
(1.11065 -0.068625 1.81213e-20)
(1.10538 -0.0679263 6.98297e-21)
(0.999072 0.144051 -2.31015e-21)
(0.999338 0.15018 -9.61317e-22)
(0.993343 0.146092 -1.89824e-21)
(1.04511 0.010268 2.17971e-20)
(1.04574 0.0111262 4.88162e-21)
(1.04461 0.0109094 7.6485e-21)
(1.2495 0.0219166 -2.87056e-20)
(1.25253 0.0262299 1.92703e-21)
(1.27057 0.023392 -2.7862e-20)
(0.687343 -0.0759513 6.66843e-21)
(0.622216 -0.0759092 1.75065e-20)
(0.48837 -0.0387299 -2.94485e-22)
(0.493559 -0.03719 2.12535e-20)
(1.00251 0.0182342 -3.54298e-21)
(1.00286 0.0178698 -3.98675e-22)
(1.02172 -0.0873869 -5.39492e-21)
(1.06729 -0.0860969 4.14105e-22)
(1.01011 -0.0868405 -3.3105e-20)
(0.998498 0.000402879 -1.69472e-21)
(0.998396 0.00066348 6.34836e-24)
(0.998214 0.000439032 -9.53979e-21)
(1.04471 0.00941413 -4.48106e-22)
(1.04584 0.00954923 1.13015e-20)
(1.00088 0.0131686 -1.44684e-21)
(1.00125 0.0135105 -3.74335e-21)
(0.838449 0.630696 -9.74157e-21)
(0.791278 0.636686 2.4935e-21)
(1.0016 0.000936913 8.05034e-22)
(1.00174 0.00081684 0)
(1.00149 0.000736059 1.25992e-22)
(1.19531 0.074854 8.41614e-21)
(1.19551 0.0707069 -1.17462e-20)
(1.0891 0.112256 3.67679e-22)
(1.08941 0.107276 8.96068e-21)
(1.03189 0.0207525 -1.99296e-21)
(1.03294 0.0205822 -6.87467e-21)
(1.12697 -0.0171733 4.84382e-20)
(1.12424 -0.0165648 2.70672e-20)
(1.03762 0.0590913 2.60421e-21)
(1.03856 0.0573724 -7.24037e-21)
(1.03992 0.0592243 -4.27872e-21)
(0.119502 0.0600351 5.71469e-21)
(0.10695 0.0439003 6.09493e-21)
(0.104542 0.0762325 6.58993e-20)
(1.01872 0.195269 3.11323e-21)
(1.01135 0.195611 2.55985e-21)
(1.17105 0.128374 -2.62919e-21)
(1.16803 0.134486 1.04144e-21)
(1.03062 0.0147839 -4.03372e-22)
(1.03131 0.0154435 -7.03114e-21)
(1.03137 0.0145937 0)
(0.996349 0.0278092 0)
(0.995501 0.0270173 1.41251e-21)
(-0.172098 -0.00812929 0)
(-0.194184 -0.00758112 -3.22362e-21)
(-0.199311 -0.0076452 0)
(0.0954714 -0.0112745 -6.90458e-21)
(0.0874788 -0.0107133 1.10355e-20)
(0.108761 -0.0151692 7.04099e-21)
(1.00105 0.0152415 3.49593e-21)
(1.00138 0.0149123 -1.30912e-21)
(1.00707 0.000688037 -2.27903e-22)
(1.00751 0.000928483 3.08954e-22)
(1.0071 0.00121846 6.87001e-22)
(0.91777 0.0297628 5.16885e-20)
(1.0357 0.0398444 -1.56288e-20)
(1.01579 0.0254846 -3.34801e-22)
(1.01604 0.0264781 -4.39963e-22)
(1.01686 0.0259994 -1.44413e-21)
(-0.0689012 -0.0221536 5.00251e-20)
(-0.0863702 -0.0200635 1.32167e-20)
(1.02985 0.0143107 -4.3452e-22)
(1.02983 0.0151335 2.3894e-21)
(0.0945573 -0.0359828 4.47704e-20)
(0.113807 -0.0379169 -2.85565e-21)
(1.04946 -0.00385157 -5.49066e-21)
(1.04896 -0.00450863 -2.68449e-21)
(1.0499 -0.00450759 5.29303e-21)
(1.21441 0.323109 8.47703e-21)
(1.20215 0.322365 -2.64336e-20)
(1.20731 0.335143 -9.44373e-21)
(1.1042 0.00477063 -3.4494e-20)
(1.1041 0.00674996 -3.6711e-22)
(1.10621 0.00578407 5.96753e-21)
(0.0977219 0.308254 -6.76643e-20)
(0.0960756 0.268041 9.57149e-21)
(0.131245 0.285592 -7.14755e-20)
(0.944936 0.0458663 2.72515e-21)
(0.944479 0.0424457 -9.61799e-21)
(1.29858 0.0160118 7.59701e-20)
(1.28686 0.0147219 7.71143e-21)
(0.516418 0.295066 1.19322e-19)
(0.48956 0.30549 -3.85921e-20)
(0.517587 0.327607 7.34712e-20)
(1.00555 0.109791 2.72002e-21)
(1.00312 0.106407 1.37534e-21)
(1.14259 -0.0480114 -1.248e-20)
(1.14353 -0.0499647 5.31502e-21)
(0.952667 0.510028 1.57081e-21)
(0.969939 0.528057 1.80387e-20)
(0.940625 0.533301 1.4196e-21)
(0.996956 0.0445035 -4.00927e-21)
(0.995453 0.0440014 -4.0206e-21)
(0.995872 0.0458557 -5.20634e-21)
(0.177766 -0.0311989 0)
(0.153353 -0.0270892 -1.46816e-20)
(0.163793 -0.0279114 -6.46187e-21)
(0.582216 0.0418648 -1.21598e-21)
(0.561522 0.0329425 5.99789e-20)
(0.0109273 -0.0151316 1.22524e-20)
(-0.007203 -0.0127175 -3.17577e-20)
(0.923223 0.0190403 -1.8959e-21)
(0.919623 0.0202856 -1.20143e-20)
(0.922431 0.0230629 -2.55612e-20)
(0.208404 -0.00837269 1.33995e-21)
(0.184936 -0.00516842 5.05879e-21)
(0.211376 -0.00757959 8.29776e-21)
(1.06897 0.0905287 -1.69092e-21)
(1.07135 0.0939464 -1.37754e-20)
(1.07239 0.0903518 -4.9628e-21)
(-0.0969026 -0.00178816 -3.95746e-20)
(-0.067336 -0.00138456 0)
(-0.0565441 -0.00256869 0)
(0.522763 0.263942 0)
(0.548196 0.287121 4.65547e-20)
(0.928414 0.35145 3.84101e-21)
(0.911847 0.349089 0)
(0.920981 0.366665 5.02337e-21)
(0.946516 0.356886 3.32999e-21)
(0.938112 0.338488 5.34139e-22)
(0.497262 -0.0671681 -4.67062e-21)
(0.469626 -0.0672181 0)
(0.999771 0.002557 0)
(0.999709 0.00284622 0)
(0.999739 0.00288463 -1.2014e-22)
(1.05518 0.176019 3.8453e-22)
(1.0522 0.18294 -1.47373e-20)
(-0.1177 -0.0117866 -1.2456e-20)
(-0.13108 -0.0110778 3.30851e-20)
(0.983438 0.0302465 -1.37714e-21)
(0.982515 0.0311454 5.01318e-21)
(0.982178 0.0294544 -1.24837e-21)
(1.0027 0.0747241 -1.77815e-21)
(1.00348 0.0723161 3.64841e-21)
(1.00073 0.0727826 8.71029e-23)
(0.01739 -0.0117952 -1.54741e-20)
(0.0246075 -0.0118297 -7.96248e-21)
(0.844583 0.481099 2.36431e-21)
(0.876988 0.489122 5.80112e-21)
(1.01744 0.0531637 -3.2412e-22)
(1.01741 0.054799 4.87022e-22)
(1.01928 0.0542735 -9.99467e-22)
(1.12463 -0.0741886 2.13128e-20)
(1.1217 -0.0740375 2.42277e-20)
(0.681077 0.553236 0)
(0.707239 0.524992 -3.15904e-20)
(1.00916 0.00515945 0)
(1.00959 0.00542358 0)
(1.00952 0.00493045 0)
(0.145429 -0.00912288 3.70442e-21)
(0.126123 -0.00585727 -1.47795e-20)
(1.12589 -0.0741386 1.64065e-21)
(1.12843 -0.0759054 7.88187e-21)