/*--------------------------------*- C++ -*----------------------------------*\
| =========                 |                                                 |
| \\      /  F ield         | OpenFOAM: The Open Source CFD Toolbox           |
|  \\    /   O peration     | Version:  v2012                                 |
|   \\  /    A nd           | Website:  www.openfoam.com                      |
|    \\/     M anipulation  |                                                 |
\*---------------------------------------------------------------------------*/
FoamFile
{
    version     2.0;
    format      ascii;
    class       surfaceVectorField;
    location    "1000";
    object      ddtCorrDdt0(Uf);
}
// * * * * * * * * * * * * * * * * * * * * * * * * * * * * * * * * * * * * * //

dimensions      [0 1 -2 0 0 0 0];


internalField   nonuniform List<vector> 
20673
(
(7.11367e-05 0.000238966 4.75062e-18)
(8.10901e-05 0.00023308 6.09431e-18)
(7.4697e-05 0.000227053 1.47564e-17)
(2.30285e-05 0.000160501 -4.94309e-20)
(2.22701e-05 0.000157403 -2.92127e-20)
(2.21354e-05 0.000160093 4.20514e-20)
(-0.00940398 0.00438035 1.26787e-18)
(-0.00993643 0.00449246 -3.23569e-18)
(-0.010393 0.00444478 4.38878e-18)
(0.000291512 8.9143e-05 4.49778e-18)
(0.000285699 9.94678e-05 -2.24916e-18)
(0.000283127 8.81998e-05 -1.61087e-18)
(-2.45898e-06 1.40434e-05 3.38622e-19)
(-3.80987e-06 1.36293e-05 1.6935e-18)
(-3.72032e-06 3.19911e-05 -1.92462e-18)
(1.18612e-05 -0.000432149 2.56434e-17)
(1.93705e-05 -0.00044698 1.83265e-18)
(-3.23478e-06 -0.000441698 1.25497e-17)
(-0.00903203 0.00340562 -2.30035e-18)
(-0.0088538 0.0035607 5.29044e-18)
(-0.00958761 0.00358841 -3.16252e-18)
(-0.0097411 0.00471774 7.78331e-18)
(-0.00908427 0.00460072 3.01847e-18)
(-0.00924704 0.00471534 6.11992e-18)
(-0.00159374 -0.00088937 -1.04759e-17)
(-0.00134595 -0.00107994 -1.85829e-17)
(-0.00118112 -0.000960041 -7.93413e-18)
(0.00017773 0.000341899 -1.24204e-18)
(0.000203283 0.000349024 4.29745e-18)
(0.000184741 0.000371627 1.46152e-17)
(0.00219164 0.00238146 1.10259e-18)
(0.00230531 0.00225023 1.31284e-17)
(0.00238201 0.00248409 7.49666e-18)
(0.00103311 0.000317681 1.09365e-19)
(0.00109467 0.000305561 -6.15003e-18)
(0.00104587 0.000369786 -3.29717e-18)
(0.000302521 9.4766e-05 6.91671e-18)
(-0.00110678 0.000177027 2.80149e-18)
(-0.000990458 0.00036422 1.09725e-17)
(-0.000844744 8.97667e-05 6.4957e-18)
(-4.54539e-05 0.000188352 9.86242e-19)
(-4.61087e-05 0.000187388 -3.76431e-18)
(-4.4407e-05 0.000187339 4.14114e-18)
(-3.00329e-05 0.000201795 -2.55882e-18)
(-2.84281e-05 0.000197605 1.26803e-18)
(-2.40303e-05 0.000201451 -1.36546e-18)
(1.18051e-05 0.000160096 -2.65647e-19)
(1.39715e-05 0.000161798 -1.46903e-19)
(1.17154e-05 0.000155937 -8.92953e-20)
(-0.00016082 0.000224439 -4.90787e-18)
(-0.000151861 0.000197294 -2.01854e-17)
(-0.000184975 0.000211401 8.50381e-18)
(0.00100328 0.000256781 3.1741e-18)
(0.000971938 0.000335764 6.0071e-18)
(-1.60867e-05 2.29654e-06 5.84789e-19)
(-1.623e-05 1.60828e-06 -5.17223e-19)
(-1.63799e-05 -5.56657e-06 3.90785e-19)
(-9.25972e-07 -2.6146e-05 -2.05893e-19)
(-1.33118e-06 -3.55136e-05 -5.2032e-19)
(-8.50979e-07 -2.54321e-05 2.77563e-18)
(-0.00907787 0.00329187 -9.49693e-18)
(-0.00873488 0.00333589 -3.57493e-18)
(-1.59431e-05 1.80546e-05 3.9192e-19)
(-1.48595e-05 2.76785e-05 -1.73506e-19)
(-1.52611e-05 2.68256e-05 -8.26752e-20)
(-0.0102122 0.00488917 -4.49012e-18)
(-0.0101519 0.00494708 1.22856e-17)
(-5.96043e-07 5.44663e-05 -3.83191e-18)
(-4.78959e-08 5.44078e-05 -8.79883e-18)
(-1.1814e-06 4.78153e-05 -7.52597e-18)
(-0.00982718 0.00195223 -1.13744e-17)
(-0.00974929 0.00182926 1.27209e-18)
(-0.00969 0.00201915 -3.59266e-19)
(-2.59451e-05 -4.19864e-06 1.5051e-17)
(-3.01433e-05 -1.5939e-05 -1.52049e-17)
(-1.83429e-05 -1.15445e-05 1.11443e-18)
(-0.000108412 -5.09301e-05 1.35535e-18)
(-0.000119636 -5.32339e-05 -6.74778e-19)
(-0.000111994 -6.69923e-05 9.37156e-18)
(-0.000624152 -0.000378808 -8.62461e-20)
(-0.000662682 -0.000345983 -1.32444e-18)
(-0.000686458 -0.000405812 1.96997e-18)
(0.000497068 -4.72767e-05 1.00146e-17)
(0.000470901 -8.72952e-05 -7.50814e-18)
(0.000526573 -0.000102108 1.4675e-17)
(0.000115711 0.000201871 5.81434e-18)
(0.000107998 0.000211638 2.98103e-18)
(0.000106664 0.000199213 -1.17043e-19)
(3.80431e-05 0.000185797 -9.98472e-19)
(3.37293e-05 0.000189235 -2.69513e-18)
(3.84517e-05 0.000182821 3.36148e-19)
(-5.75225e-05 5.61989e-05 1.41581e-18)
(-6.04943e-05 4.80071e-05 8.53906e-18)
(-5.0538e-05 4.96292e-05 4.5086e-18)
(5.03062e-06 0.000100722 3.90889e-18)
(7.15133e-06 9.96619e-05 2.66427e-17)
(4.3188e-06 9.94023e-05 1.17258e-17)
(-3.59559e-06 6.34364e-05 2.76655e-18)
(-1.99164e-06 5.43207e-05 -4.12612e-20)
(-2.27392e-06 5.64258e-05 -2.57471e-18)
(0.00580407 0.00272596 -6.17898e-19)
(0.00533407 0.0029524 2.1096e-17)
(0.00268952 0.00285055 -3.75114e-18)
(-1.53971e-05 8.92724e-06 -7.98416e-20)
(-1.61486e-05 9.73443e-06 4.1028e-19)
(-0.000249315 0.00175411 7.25651e-18)
(-0.000123138 0.0015222 -1.49466e-18)
(-0.00041462 0.00160305 2.84147e-18)
(0.000377782 0.000125771 4.11286e-18)
(0.000392769 0.00012834 -3.3851e-18)
(-0.0126148 -0.000502674 -9.53325e-19)
(-0.01262 -0.000411732 1.2661e-18)
(-0.0125307 -0.000480986 -3.62721e-18)
(-2.21262e-06 5.44197e-07 -8.76471e-20)
(-2.29312e-06 8.73539e-07 6.22482e-19)
(-5.83594e-06 5.42185e-07 6.22124e-20)
(-2.81205e-07 -1.5147e-05 9.18379e-20)
(-1.04979e-07 -6.28015e-06 -1.55337e-18)
(-4.22952e-08 -6.55461e-06 -8.93314e-19)
(3.33261e-05 1.00827e-05 4.4587e-19)
(3.21145e-05 7.6323e-06 -4.90567e-19)
(3.17818e-05 8.87786e-06 -1.10489e-18)
(-0.000178909 -0.000145347 -8.71031e-19)
(-0.000195493 -0.000132531 -3.58168e-17)
(-0.000200228 -0.00015943 4.5459e-17)
(7.15499e-05 7.1468e-05 -2.67865e-18)
(7.29617e-05 7.34631e-05 8.57034e-19)
(7.48792e-05 6.8141e-05 -3.71939e-20)
(-5.1562e-06 9.80141e-05 2.32612e-18)
(3.00569e-06 9.77977e-05 7.0088e-18)
(-1.40224e-06 9.95994e-05 -1.07736e-18)
(-0.000171037 0.000259357 1.59512e-17)
(-0.00013972 0.00023991 1.94294e-17)
(-0.000390233 0.000780871 1.31119e-17)
(-0.000351438 0.000735443 -6.49086e-18)
(-0.000333685 0.000798483 5.53834e-18)
(-8.75055e-06 -0.000552301 -1.07894e-17)
(1.19646e-06 -0.000549322 9.13701e-17)
(-1.36121e-06 -0.000543916 1.17439e-17)
(-8.23769e-06 3.58135e-06 -2.99411e-19)
(-7.60274e-06 3.27585e-06 -1.7438e-19)
(-6.87997e-06 4.59989e-06 -5.23949e-20)
(0.000152812 0.000231416 1.29e-17)
(0.000144844 0.000229753 6.58164e-18)
(0.00015155 0.000240414 5.21677e-18)
(-2.35112e-06 -3.34355e-06 -4.80723e-18)
(-3.409e-06 4.84349e-07 -5.33222e-18)
(-2.48431e-07 2.98076e-06 -1.02197e-17)
(-5.56805e-06 -0.000547397 -3.3582e-17)
(8.53583e-06 -0.000649842 -9.77204e-17)
(3.2322e-06 0.000101298 -8.71286e-18)
(5.82893e-06 0.000101475 4.78087e-18)
(1.12669e-05 0.00016307 4.93788e-19)
(9.76233e-06 0.000157094 -3.77432e-19)
(8.52682e-05 0.000153145 -6.50118e-18)
(8.37825e-05 0.000148706 2.11625e-19)
(8.16606e-05 0.000152806 -3.33629e-18)
(0.00202619 0.0025055 3.42536e-18)
(0.00199982 0.00227733 -1.36653e-18)
(-5.13626e-06 9.51768e-06 2.69857e-19)
(-5.6249e-06 3.63951e-06 2.75196e-18)
(-5.32616e-06 7.79451e-06 -2.64457e-18)
(7.91842e-05 0.000123884 -1.05485e-17)
(7.88218e-05 0.000126947 4.10025e-18)
(7.60258e-05 0.000124908 -5.71792e-18)
(6.85591e-05 7.42914e-05 -9.68772e-19)
(6.99683e-05 6.93445e-05 4.6632e-19)
(-0.00618266 0.000808389 1.96466e-17)
(-0.00563488 0.000906911 2.605e-18)
(-0.00581269 0.000864823 -2.23563e-17)
(2.50063e-05 0.000159798 -4.03692e-19)
(2.43163e-05 0.000162505 -8.36681e-19)
(-0.0014615 0.000199674 -3.46043e-18)
(-1.54537e-05 3.68148e-06 -6.37066e-20)
(-1.50682e-05 9.41094e-06 2.24002e-19)
(-4.07794e-05 -0.000462131 -4.2078e-17)
(-3.07013e-05 -0.000402845 -9.43512e-19)
(-0.00691158 -0.000826013 1.97396e-17)
(-0.00646849 -0.000708382 -1.7615e-17)
(-0.006125 -0.000176314 2.01098e-17)
(2.12791e-06 2.38463e-05 2.21058e-18)
(1.40565e-06 3.90492e-05 -1.79823e-19)
(1.03072e-06 7.00031e-05 -2.55449e-19)
(1.4549e-06 7.66775e-05 -7.67036e-18)
(-0.00140903 0.0023455 3.97681e-18)
(-0.00128832 0.00248689 -1.87068e-17)
(-0.00150285 0.00250383 -7.3497e-18)
(2.71011e-06 0.00025411 2.5846e-18)
(7.44684e-06 0.000258096 -6.95268e-18)
(-3.54067e-06 0.000260226 8.47377e-18)
(-4.68712e-06 -3.72165e-06 -3.16134e-18)
(-4.5626e-06 1.24909e-05 -1.49794e-18)
(-0.0018552 -0.000749579 -1.56502e-18)
(-0.00184217 -0.000644091 3.13071e-18)
(0.00212872 -0.000950981 -3.0708e-18)
(0.00195431 -0.00109556 1.54645e-17)
(0.00180427 -0.00110798 2.52686e-19)
(-2.22799e-06 5.41104e-05 3.97866e-18)
(-1.56662e-06 6.28447e-05 7.11514e-19)
(-2.48125e-06 -0.000559661 6.61325e-17)
(-2.03519e-05 -0.000563893 -7.39859e-17)
(-1.21703e-05 -0.000574199 -4.65423e-17)
(0.000838336 -0.000210607 -1.97404e-17)
(0.000789223 -0.000159216 -4.17961e-18)
(0.000864318 -0.000126681 1.50701e-18)
(0.00408408 -0.000217746 6.91438e-18)
(0.0039296 -0.000219721 2.35473e-17)
(0.00405398 -0.000202157 1.21774e-17)
(9.53541e-05 8.35039e-05 -6.18353e-18)
(9.54641e-05 8.68366e-05 1.07359e-19)
(9.15565e-05 8.57431e-05 -7.92124e-18)
(-0.00986805 5.05832e-05 4.0878e-20)
(-0.00993154 0.000208208 -3.29452e-18)
(-0.0095732 2.94803e-05 -1.08738e-17)
(-2.81357e-06 -5.18791e-05 3.25565e-18)
(-3.5513e-06 -6.05615e-05 -4.78632e-19)
(-3.61431e-06 -5.93182e-05 -9.37191e-19)
(-7.73455e-06 -6.025e-05 -4.00717e-19)
(-8.69425e-06 -6.1023e-05 8.20656e-19)
(-7.27757e-06 -5.85624e-05 -1.12096e-18)
(1.46912e-06 8.49238e-06 1.76196e-18)
(-3.1842e-05 -0.000444279 7.1439e-18)
(-3.71522e-05 -0.000435535 -1.87884e-17)
(-2.66919e-05 -0.000434825 4.18999e-17)
(-0.000496955 0.00205571 1.61782e-18)
(-0.000167769 0.00195846 8.40966e-19)
(-0.00108872 0.000633994 6.30708e-18)
(-0.000881568 0.000554398 -2.12324e-17)
(-0.00104284 0.000584621 -1.48515e-17)
(9.44632e-05 7.96619e-05 5.02272e-18)
(9.86086e-05 8.0715e-05 -6.18013e-18)
(-1.21254e-05 -4.94592e-05 5.57268e-19)
(-1.25054e-05 -4.77099e-05 3.86528e-19)
(-1.08424e-05 -5.24018e-05 -2.5064e-19)
(-0.00885488 0.000544232 -1.57529e-17)
(-0.00056474 -0.00109088 -1.14856e-17)
(0.000160958 0.000230123 -1.16277e-18)
(0.000152111 0.000220355 -3.17295e-18)
(3.45526e-05 1.20776e-05 5.83828e-19)
(3.49814e-05 1.09457e-05 5.00373e-19)
(0.00318042 -0.000464236 6.67561e-18)
(0.0034295 -0.000416098 1.5293e-18)
(0.00341319 -0.000361387 1.1862e-17)
(0.000428911 0.000254821 -1.68e-17)
(0.000386966 0.000266867 2.25997e-17)
(0.000406173 0.000300514 -2.0401e-17)
(3.35324e-05 0.000116131 -3.67867e-19)
(3.53147e-05 0.000113372 1.44294e-18)
(3.18872e-05 0.00011309 -7.7632e-20)
(-2.19735e-05 0.000113483 -1.34013e-18)
(-2.08394e-05 0.000119699 -3.90646e-18)
(-2.1885e-05 0.000123376 2.39115e-18)
(-0.00311878 0.0041256 -1.75509e-17)
(-0.0125304 -0.000538515 1.12592e-17)
(2.83965e-05 -0.000431896 -1.16435e-17)
(4.29385e-05 -0.000415472 3.73465e-17)
(5.90336e-05 -0.000436962 5.32048e-17)
(0.000381453 0.00222237 -7.44848e-18)
(0.000255388 0.00227247 3.22196e-19)
(0.000365571 0.00236811 -3.60336e-18)
(-0.000315907 0.00054858 -4.80092e-18)
(-0.000356707 0.00054437 1.48703e-17)
(-0.000334306 0.000509305 1.39408e-17)
(0.00192257 -0.00087947 7.16428e-19)
(0.0020304 -0.000991791 8.26411e-19)
(0.00183271 -0.00105084 -2.60139e-18)
(-0.000116022 -0.000251569 1.11482e-17)
(-0.000100581 -0.000229657 -4.68647e-18)
(-0.00012265 -0.000228253 -2.74181e-17)
(6.7828e-07 1.76973e-05 3.16504e-19)
(1.72231e-06 2.15591e-05 -5.49416e-19)
(6.06767e-07 2.00957e-05 -4.15e-19)
(2.00495e-05 5.75356e-05 1.69179e-17)
(5.04039e-06 4.75906e-05 -1.96071e-17)
(6.66427e-06 6.24457e-05 -5.86597e-18)
(-0.000166555 -0.000165371 2.93356e-17)
(-0.000157707 -0.00013757 1.20346e-18)
(0.000120309 0.000107034 -7.61307e-19)
(0.000122467 0.000112682 2.1895e-18)
(0.00012398 0.00011131 6.45416e-18)
(1.65647e-05 6.42527e-05 4.72389e-19)
(1.72677e-05 6.34916e-05 -5.97859e-20)
(1.78435e-05 6.60308e-05 7.7604e-19)
(-0.00131503 -0.00181776 1.65255e-17)
(-0.00125314 -0.00197357 -8.22013e-18)
(-0.00123332 -0.00183551 -9.48842e-18)
(-0.000647215 -0.000180893 -6.90908e-19)
(-0.000643107 -0.000247331 -1.40097e-17)
(-0.000710537 -0.000198565 -2.23463e-18)
(-0.000434815 0.000825622 -3.05971e-18)
(-0.000453506 0.000742919 2.95998e-18)
(1.60981e-05 0.000164258 5.97979e-20)
(1.50213e-05 0.000167346 -9.27184e-20)
(0.000112901 0.000238472 -5.32362e-19)
(0.000101312 0.000246008 -1.87766e-18)
(0.000114746 0.000253858 8.7773e-18)
(-0.0042947 -0.000456241 1.8713e-17)
(-0.00423234 -0.000424591 1.42679e-17)
(-0.00423103 -0.000497093 -2.35976e-17)
(-0.0125824 -0.000584373 -1.78593e-18)
(-0.0127599 -0.000439842 5.11464e-18)
(0.00139792 0.000174558 -1.24382e-18)
(0.00137629 9.8282e-05 -1.9003e-18)
(0.00147406 0.000135605 3.51254e-18)
(-0.00135269 -0.00167758 3.45021e-17)
(-0.00119132 -0.00180783 3.22209e-17)
(-4.84933e-07 4.30642e-05 1.61658e-17)
(-3.17977e-06 4.48242e-05 5.97346e-18)
(3.68013e-06 4.76911e-05 1.36275e-18)
(4.7485e-05 -0.00062519 6.65319e-17)
(6.48672e-05 -0.000596327 -1.82917e-17)
(2.9183e-05 -0.000606803 -1.2369e-16)
(-3.67573e-06 5.84592e-05 1.21388e-18)
(-2.96578e-06 5.34596e-05 -1.11004e-18)
(-3.67369e-06 5.82826e-05 -1.26135e-18)
(-1.39545e-05 -0.000531277 -3.41876e-17)
(-6.52494e-06 -0.000522714 -2.38795e-17)
(-2.51394e-05 -0.000523654 -2.67956e-17)
(-0.00981809 0.000462646 -4.89856e-19)
(-0.0100979 0.000615958 3.82834e-19)
(-0.00964487 0.000789515 -7.62143e-18)
(-3.45243e-06 0.00010172 -8.21578e-18)
(-5.63336e-06 0.00010133 -1.32551e-17)
(-7.16013e-06 0.000101964 -4.54062e-18)
(-9.9155e-07 -2.44149e-05 -3.1222e-19)
(-7.39056e-07 -2.46987e-05 1.60674e-19)
(-0.00153184 0.002209 8.99133e-18)
(-0.00132815 0.00220193 1.11295e-17)
(-0.00698816 0.000719476 -4.47956e-18)
(-0.00696099 0.00100292 3.09098e-18)
(-0.00666211 0.000964572 1.50558e-18)
(-9.01377e-05 -4.54083e-05 1.79286e-17)
(-0.000106603 -3.18328e-05 -1.75083e-17)
(-3.70776e-06 1.2514e-06 -2.66663e-20)
(-2.76273e-06 2.06089e-06 1.82986e-19)
(-3.17591e-06 1.31317e-06 5.80769e-20)
(-1.96489e-05 0.000103802 1.67519e-18)
(-1.91989e-05 0.000110119 3.05837e-18)
(5.93737e-05 9.8401e-05 -1.9878e-18)
(6.04502e-05 0.000100005 -1.61548e-19)
(5.78758e-05 0.000104208 -1.99787e-18)
(-4.03258e-06 1.83265e-06 3.03224e-20)
(-8.19032e-06 5.40942e-07 -1.22781e-19)
(2.42453e-05 1.39757e-06 2.58833e-19)
(2.41137e-05 1.25736e-06 9.56658e-20)
(2.34133e-05 1.24737e-06 5.22095e-19)
(4.13942e-05 -0.00044771 -4.10201e-18)
(-0.00759139 0.00198159 1.76629e-18)
(-0.00742173 0.0019187 3.89008e-18)
(-0.00776836 0.00172777 6.27589e-18)
(-3.16144e-07 3.70797e-05 -2.48018e-18)
(-8.34048e-07 3.53808e-05 -2.31266e-18)
(7.33041e-05 7.57246e-05 -6.54249e-19)
(7.05301e-05 7.88892e-05 2.35925e-18)
(-7.80476e-07 -2.65349e-05 -3.64849e-18)
(-5.39131e-07 -1.65156e-05 -1.16046e-18)
(0.00102374 -0.00270515 -2.31203e-17)
(0.000101903 -0.00277645 -7.44013e-18)
(0.000591568 -0.00391519 -3.5843e-18)
(-0.010621 0.00499743 -7.40004e-18)
(-0.0102358 0.00483951 -1.31913e-17)
(6.88426e-05 0.00025093 -1.16041e-18)
(6.06196e-05 0.000243282 1.09313e-17)
(-9.64411e-05 -0.00028491 -2.16197e-17)
(-8.97012e-05 -0.000236013 -4.19604e-17)
(-1.23261e-07 3.96559e-05 4.76079e-18)
(4.98251e-07 5.13707e-05 -4.14583e-18)
(7.64142e-07 0.000101001 7.00268e-18)
(-2.62234e-07 0.000100894 5.84146e-18)
(0.00596375 0.00313442 -4.21473e-19)
(0.00597303 0.00283832 -8.2868e-19)
(0.00479124 0.00290415 9.29598e-18)
(4.90175e-05 4.31019e-05 -1.71357e-18)
(4.84925e-05 4.80641e-05 -6.77101e-19)
(4.68152e-05 4.74018e-05 -2.24089e-18)
(-6.2586e-06 2.33386e-05 2.11266e-18)
(-6.54461e-06 3.15441e-05 2.10063e-18)
(-4.79537e-06 2.30796e-05 -6.72883e-18)
(-0.000171984 -0.000190347 -4.8207e-18)
(-0.000174933 -0.00021419 1.03992e-17)
(-0.000194661 -0.000199384 -6.34726e-17)
(1.25111e-06 7.01029e-05 5.8744e-19)
(1.15158e-06 6.32766e-05 8.533e-18)
(-0.0021295 1.3874e-05 -3.67242e-18)
(-0.00211843 -0.000308824 1.41355e-18)
(-0.00186909 -0.000295157 -1.2405e-18)
(-0.00078992 -0.000303781 1.26579e-18)
(-0.00075468 -0.000244182 1.48297e-18)
(-0.00070589 -0.00030669 1.3658e-18)
(-2.42682e-06 -5.08629e-06 1.20706e-17)
(-1.84537e-06 -9.41965e-06 2.36926e-18)
(4.5765e-05 3.21833e-05 1.49183e-18)
(4.56022e-05 3.70527e-05 4.41997e-19)
(4.36778e-05 3.60552e-05 -1.00168e-19)
(2.71683e-05 0.000199978 4.5068e-18)
(2.36707e-05 0.00020257 1.23353e-18)
(2.2001e-05 0.000204992 -3.63587e-19)
(0.000287522 0.000891958 -3.01186e-18)
(0.000273162 0.000946982 -7.40097e-18)
(0.000236829 0.000886587 -9.11737e-18)
(6.17746e-05 -0.000634337 2.80482e-17)
(3.77923e-05 -0.000647253 8.24109e-17)
(0.00111494 0.00126763 8.31582e-18)
(0.00110334 0.0013669 8.05773e-19)
(0.00120867 0.00129891 1.41246e-18)
(-0.000115724 0.000276615 5.75502e-19)
(-0.000105222 0.000272761 2.25793e-18)
(-0.000105357 0.000284089 1.85404e-18)
(6.51807e-05 0.000139662 5.00333e-18)
(6.40161e-05 0.000142022 -1.66846e-18)
(6.45279e-05 0.000139829 -7.3018e-19)
(-0.000417093 -0.000386773 -1.54977e-17)
(-0.000253786 -0.000489955 -1.74465e-17)
(-0.000127936 -0.000422222 -4.32305e-17)
(-8.6454e-06 0.000252903 -5.0045e-19)
(2.49451e-06 0.000243639 2.71406e-18)
(-0.0056863 0.00647711 5.73723e-18)
(-0.00441134 0.00642551 1.04068e-17)
(-0.00379173 0.00642758 -7.25484e-18)
(0.00423471 -0.000181746 4.60457e-18)
(0.00406446 -0.000236882 -7.70208e-18)
(0.00141558 -0.00234222 -1.08262e-17)
(0.000442358 -0.0023356 -6.58306e-18)
(-2.11421e-05 0.000107005 -3.08951e-18)
(-2.23177e-05 0.000112685 -1.13087e-17)
(-2.05422e-05 0.000106283 -6.84258e-18)
(4.38958e-05 2.61427e-06 -9.64607e-18)
(4.04732e-05 -6.71006e-07 -7.76136e-18)
(4.43012e-05 -6.59835e-06 3.1446e-18)
(-3.65103e-06 -5.36844e-05 -3.61503e-19)
(-3.75836e-06 -5.1082e-05 -5.48071e-20)
(-2.25215e-06 -4.46373e-05 1.03496e-19)
(0.000534926 0.00219695 -5.58431e-18)
(0.000412034 0.00209203 -1.42392e-18)
(0.00141474 0.000272224 1.2025e-17)
(0.0013297 0.000222758 -7.80707e-18)
(0.00185498 -0.000792227 5.75927e-18)
(0.00200794 -0.000733789 -1.66676e-18)
(0.000117281 0.000105091 -4.47728e-18)
(0.000118767 0.000103164 1.47868e-18)
(-5.99362e-05 0.000810201 4.27147e-18)
(-1.6084e-05 0.000851877 -1.13077e-17)
(-7.42333e-05 0.000875968 9.31895e-18)
(6.20001e-05 6.81288e-05 7.03623e-19)
(6.31432e-05 6.9696e-05 -1.15718e-18)
(6.01488e-05 7.48671e-05 7.10598e-19)
(2.57571e-05 6.43228e-05 2.5885e-18)
(3.18891e-05 4.8601e-05 -7.07258e-18)
(-7.57256e-05 0.000298507 -2.26545e-18)
(-8.36794e-05 0.000289859 -1.79712e-20)
(-6.91202e-05 0.00028879 -2.48129e-18)
(-0.00395479 -6.56444e-06 -1.90791e-17)
(-0.00396596 -4.91447e-05 -1.62156e-17)
(-0.00399573 -1.6988e-05 -3.54694e-18)
(0.00136826 -0.000158723 -7.27138e-19)
(0.00146438 -0.000191781 -4.2022e-18)
(0.00143559 -8.34045e-05 -8.03798e-19)
(8.42935e-06 0.000175553 4.68747e-19)
(8.10126e-06 0.000178908 1.02609e-19)
(6.46461e-06 0.000174166 -1.62097e-20)
(-0.00407899 0.00234244 3.19774e-18)
(-0.0037518 0.00201747 -6.28252e-18)
(-0.00387121 0.00243889 1.39449e-17)
(-0.00015665 0.000276817 -1.83688e-18)
(-0.000172197 0.00027627 -7.29096e-19)
(-0.000161491 0.00028938 3.46659e-19)
(-0.00786917 0.00201155 3.03789e-18)
(-0.00753091 0.00225857 9.08885e-18)
(-5.58999e-06 -0.000526199 5.48254e-17)
(-1.7211e-06 -0.000538842 8.47324e-18)
(-0.00237961 0.000353229 -7.04664e-18)
(-0.00211616 0.000379648 2.48654e-19)
(5.43016e-06 6.52815e-05 -9.98238e-20)
(7.11735e-06 7.45357e-05 -1.12817e-19)
(4.98391e-06 6.69381e-05 -9.26929e-21)
(0.00047196 0.000245469 4.05675e-17)
(0.000443524 0.000214184 -8.73849e-18)
(0.000130192 0.000203481 2.48955e-18)
(0.000124398 0.000190572 2.89979e-18)
(5.09834e-05 3.86007e-05 4.79757e-19)
(4.92221e-05 3.81493e-05 -9.2748e-19)
(-1.17982e-05 -4.96703e-05 4.66928e-19)
(-1.29767e-05 -4.44314e-05 1.76998e-18)
(-8.65389e-05 0.000164979 4.34806e-18)
(-8.45529e-05 0.000158804 -2.4514e-19)
(-7.96728e-05 0.000165158 4.33824e-18)
(-0.0100223 0.0018434 -7.93665e-18)
(-0.0100491 0.00207109 -1.11672e-18)
(0.00127583 0.000523453 -4.4277e-17)
(0.00139503 0.000505609 -2.65975e-18)
(0.00138078 0.000633537 -3.05306e-17)
(-0.00057731 -0.000372016 1.07042e-16)
(-0.00112615 -0.000497925 4.58132e-17)
(3.0652e-05 0.000163228 -3.22914e-18)
(3.52818e-05 0.00015496 -1.19349e-17)
(2.79632e-05 0.000156081 -2.16151e-17)
(0.00226162 0.000187557 -4.55486e-18)
(0.00223841 7.12533e-05 -6.69423e-18)
(0.00235577 0.000160572 -1.06399e-17)
(0.00340705 0.00448495 1.3463e-18)
(0.00376371 0.00425725 3.82868e-19)
(0.00369081 0.00492534 -1.79348e-18)
(-0.0013497 0.000678966 3.44072e-17)
(-0.00122808 0.000617339 -9.85538e-18)
(0.000852641 0.00101344 1.69255e-17)
(0.000903566 0.00095637 -3.2117e-17)
(0.000936893 0.00103657 8.33487e-17)
(-1.37096e-05 2.1744e-05 -6.84339e-19)
(-1.44188e-05 1.0806e-05 8.0229e-19)
(-1.42136e-05 8.50665e-06 -2.05374e-18)
(-4.58243e-06 -0.000258864 2.31892e-17)
(-3.02168e-05 -0.000252065 5.93213e-17)
(-2.2929e-05 -0.000279239 1.67771e-17)
(-2.24959e-05 6.87908e-06 5.51957e-18)
(-3.11227e-05 4.9196e-06 2.14776e-17)
(2.36903e-06 1.68319e-06 3.67915e-20)
(8.6567e-07 1.86365e-06 -5.02939e-19)
(3.22527e-05 0.000118576 1.29357e-19)
(3.5122e-05 0.000117764 3.83803e-19)
(-0.000637276 -7.37045e-05 -1.26853e-18)
(-0.000596765 -5.61297e-05 -1.37469e-18)
(-0.000632567 -2.30024e-05 3.40631e-18)
(-5.14383e-06 -0.00664474 4.13468e-18)
(0.00440175 -0.00199389 -2.53951e-17)
(-0.00755435 -0.00170302 2.47386e-17)
(0.000272753 0.00025779 3.32493e-18)
(0.000279362 0.000265893 1.20302e-18)
(0.000268459 0.000264965 -6.57283e-18)
(-9.2341e-06 4.12969e-06 -1.61514e-19)
(-9.07776e-06 2.42323e-06 -3.04413e-19)
(0.000106249 0.000825174 6.24336e-18)
(9.86004e-05 0.000778075 4.40636e-18)
(6.20853e-05 0.00080055 -1.14097e-18)
(0.000330778 0.000898251 1.07084e-17)
(0.000303416 0.000852025 1.25405e-17)
(0.00243379 -0.000790591 -5.12069e-18)
(0.00226221 -0.000799903 -1.11198e-17)
(-0.00202126 -0.00301579 -9.05674e-18)
(-0.00231555 -0.00253657 -1.07623e-18)
(-0.00284901 -0.00276789 -3.44194e-17)
(-2.30794e-06 7.05498e-05 -1.1854e-18)
(-2.89941e-06 6.61933e-05 3.43281e-18)
(-5.90573e-06 1.00271e-05 -3.54319e-19)
(-5.16932e-06 1.64832e-05 -2.01864e-18)
(-0.000267679 0.00058718 -1.95882e-17)
(-0.000315931 0.000626187 -1.94494e-18)
(-0.0100035 0.00329765 6.98689e-18)
(-0.0106622 0.00323222 -9.65146e-18)
(-0.0104813 0.00342613 1.09201e-17)
(-6.40514e-06 1.65602e-05 7.2853e-18)
(-8.36031e-06 2.29415e-05 -3.13305e-18)
(-0.008703 0.0036523 1.2796e-18)
(-0.00846206 0.00373262 -2.07346e-18)
(-0.00931311 0.00381719 -8.96337e-18)
(0.00255738 -0.000553803 -5.58009e-18)
(0.00239783 -0.000683994 -7.35023e-18)
(0.00271937 -0.000539695 6.35259e-18)
(0.00216777 0.000306154 4.36205e-18)
(0.00234097 0.00034006 1.68817e-18)
(1.29322e-05 6.12632e-05 -5.18642e-20)
(1.51307e-05 6.69592e-05 2.75447e-19)
(-0.000296142 -0.000466406 8.04816e-18)
(-0.000335628 -0.000469759 -6.66175e-17)
(-0.000299698 -0.000505827 1.92785e-17)
(-0.000128716 0.000625985 -5.20312e-18)
(-0.000189201 0.00059086 -1.96545e-17)
(-0.00012449 0.000553545 4.19012e-18)
(-0.00329314 -0.0004241 3.8632e-17)
(-0.00342749 -0.00053594 -8.75094e-17)
(-0.00322514 -0.000490458 -1.92203e-17)
(-1.29173e-07 1.07673e-05 8.96261e-19)
(-5.54986e-07 6.95582e-06 -3.55074e-19)
(-8.07811e-07 6.25573e-06 5.02577e-19)
(-0.00666845 0.000640914 9.86569e-18)
(-0.00660689 0.000655649 1.92064e-17)
(3.29853e-06 5.46657e-05 1.8702e-19)
(5.26482e-06 6.13267e-05 -2.25795e-20)
(0.0003069 -0.00024191 1.22036e-18)
(0.000259551 -0.00023389 -1.72604e-18)
(0.000288062 -0.000202807 2.53738e-18)
(-2.16246e-06 7.68617e-07 -7.65142e-20)
(-2.24773e-06 6.61555e-07 -2.33489e-19)
(0.00153453 0.00146153 -3.97975e-18)
(0.00165519 0.00129595 -8.25918e-18)
(0.00140633 0.0014286 -1.04647e-17)
(-0.00120895 -0.00210548 7.00275e-18)
(-0.00117019 -0.00222703 -2.14233e-17)
(-0.00110368 -0.00213104 2.17369e-17)
(-3.15185e-05 0.000205669 6.3072e-19)
(-2.76633e-05 0.000206131 2.64549e-19)
(-0.000634967 0.00026611 -3.90174e-17)
(0.000643369 -0.000552958 -2.65764e-17)
(-0.001957 -0.000199974 9.37611e-18)
(6.70571e-05 0.00014015 5.57445e-18)
(6.62336e-05 0.000138073 -2.40899e-18)
(1.14938e-05 5.77133e-05 2.46127e-19)
(1.17598e-05 5.75227e-05 -3.64792e-19)
(0.00621765 0.0024254 1.19956e-18)
(0.00596574 0.00247623 -6.76996e-18)
(0.00129681 -0.000223663 3.97068e-18)
(0.00127736 -0.000119767 2.48082e-18)
(3.44025e-05 0.000170475 3.09657e-17)
(2.69496e-05 0.000172665 1.60272e-17)
(-0.0108237 0.00481033 2.12401e-18)
(-0.0104225 0.00467977 -5.52288e-18)
(-0.0110803 0.00472543 -7.96597e-18)
(0.00242753 -0.000509116 -4.68702e-17)
(0.00256667 -0.000420916 -1.41871e-17)
(5.0169e-06 1.63641e-05 2.9023e-20)
(6.73144e-06 1.75389e-05 5.71157e-20)
(5.82637e-06 1.51348e-05 -9.73775e-19)
(4.14568e-05 0.000182587 1.68834e-18)
(3.91979e-05 0.000188251 2.05561e-18)
(0.00288223 -0.000579739 1.96623e-17)
(0.00284842 -0.000505727 -4.90313e-18)
(-0.00030455 0.000231811 -1.46714e-17)
(-0.000228444 0.000188562 -4.17522e-17)
(-0.000237978 0.000184383 -1.29421e-17)
(-3.74795e-06 -5.50098e-05 1.30929e-18)
(-5.02997e-06 -6.00506e-05 1.03493e-18)
(-1.14975e-06 8.17641e-06 1.77815e-19)
(-9.35153e-07 4.38678e-06 2.20603e-19)
(-8.64799e-07 6.97508e-06 1.10944e-19)
(-0.011478 -0.000809902 -6.26093e-18)
(-0.0113237 -0.000911497 -7.79217e-18)
(-7.67789e-05 0.00248431 9.83264e-18)
(6.73192e-05 0.00248652 -2.29141e-18)
(4.22004e-06 0.00264081 9.63702e-18)
(-8.50425e-07 -2.16423e-06 1.649e-19)
(-3.5319e-07 -1.54636e-06 -8.8707e-20)
(-8.13133e-07 -2.69819e-06 -6.97783e-19)
(0.00579358 0.00124295 6.68786e-18)
(0.00551397 0.00108415 -1.58897e-17)
(0.00439295 0.00133588 -6.57586e-18)
(-0.000547389 -0.000209876 4.02771e-18)
(-0.000607902 -0.00015409 -1.64261e-17)
(-0.000532121 -0.000121299 -1.04186e-17)
(4.47892e-05 9.27316e-06 4.17884e-17)
(5.21682e-05 3.79491e-06 -9.28053e-18)
(7.49664e-05 0.000202414 -7.50043e-19)
(7.93381e-05 0.000207872 2.09466e-18)
(8.0848e-05 0.000198363 5.44649e-18)
(-4.27189e-06 -5.69605e-05 -1.04997e-20)
(-4.1321e-06 -5.03402e-05 1.32652e-18)
(-0.00019957 0.000231606 1.37605e-18)
(-0.000183965 0.000231335 1.36009e-18)
(-0.000194127 0.000216928 1.79255e-18)
(0.0033143 -0.00048812 8.00281e-19)
(0.00342759 -0.000449118 1.27264e-17)
(0.00348776 -0.000363642 -2.5075e-17)
(0.000120585 7.71256e-05 1.86776e-18)
(0.000124665 7.95252e-05 -2.30566e-18)
(0.000125416 8.08324e-05 4.04144e-18)
(0.000587483 0.000395721 1.88309e-17)
(0.000530028 0.000411928 3.72159e-17)
(0.000549175 0.000347516 -1.12023e-17)
(-0.000114321 -0.00029564 -4.40243e-17)
(-0.000142597 -0.00027525 7.12428e-17)
(-0.00014949 -0.000317474 -2.91162e-17)
(5.83631e-05 9.63897e-05 6.87654e-19)
(6.0888e-05 9.21271e-05 -6.36248e-19)
(-5.14741e-06 -4.99553e-07 -1.02664e-18)
(-5.62655e-06 1.64325e-07 2.04928e-18)
(0.000908326 0.000948263 5.27758e-18)
(0.000934984 0.00101376 -9.26896e-18)
(0.000981239 0.000949522 7.02766e-18)
(-0.0116389 -0.000987738 1.13044e-18)
(-0.0116978 -0.000875725 6.91375e-19)
(-0.0118799 -0.0008467 -1.79972e-18)
(0.00112098 0.00118884 -5.10768e-18)
(0.00102527 0.00124043 -1.7557e-18)
(-8.99789e-05 0.000169322 -4.54689e-18)
(-9.4013e-05 0.000160682 -2.36074e-18)
(-4.34144e-05 0.000194661 -4.62244e-18)
(-5.04529e-05 0.000192786 -1.39539e-18)
(-7.92621e-07 -4.63216e-06 -4.24326e-19)
(-7.43387e-07 -4.01895e-06 6.38769e-20)
(-2.40758e-07 -2.48882e-06 -2.62899e-19)
(-0.00694324 0.000443201 5.27264e-18)
(-0.00727624 0.000497557 -3.15178e-18)
(-0.000308978 -0.00278154 2.3248e-18)
(-2.08632e-05 -0.00294692 3.08654e-19)
(-0.0001196 -0.00264845 2.27743e-17)
(0.00666077 -0.000860581 -1.55528e-18)
(0.006969 -0.00074868 1.19627e-17)
(0.00700135 -0.00110895 1.92715e-18)
(9.39418e-06 5.38146e-05 6.93328e-20)
(1.09292e-05 5.89513e-05 -4.39892e-19)
(-0.000209775 -0.00104457 5.29101e-18)
(-0.000504148 -0.00119634 -5.59354e-18)
(-0.000568786 -0.00115705 -2.18021e-19)
(0.000467922 0.000444703 -1.49068e-18)
(0.00019158 0.000449055 7.14195e-18)
(7.50386e-05 0.000226327 1.59977e-17)
(-0.00688569 0.00621891 1.92918e-19)
(-0.00677584 0.00637314 1.12692e-17)
(-0.00990367 -0.000105459 7.96622e-18)
(-0.0101738 3.4441e-05 3.88942e-18)
(0.000897235 -0.000259641 -6.84543e-18)
(0.000807813 -0.00028893 7.87971e-18)
(-6.977e-06 -6.38335e-05 -1.45488e-18)
(-2.39889e-06 7.04801e-07 -1.40889e-19)
(-1.65684e-06 1.01629e-06 6.23438e-20)
(-1.65538e-06 2.37948e-07 1.01994e-19)
(-0.000176166 0.000286726 -3.41386e-18)
(-0.000152259 0.000304112 -1.73658e-17)
(-0.000181054 0.000323317 -1.09282e-18)
(0.00287228 0.000748072 1.5894e-17)
(0.00287495 0.000676885 -3.92127e-19)
(0.00304018 0.000584396 3.09441e-18)
(-0.00119752 0.000893269 6.08154e-19)
(-0.00122485 0.000770164 2.28543e-17)
(-0.00133889 0.000885581 1.05133e-17)
(7.93266e-05 0.000121118 -5.01678e-18)
(8.17831e-05 0.000122293 1.87417e-18)
(-0.00169456 -0.0033552 1.83799e-18)
(-0.000574018 -0.00303138 6.62305e-18)
(0.000679795 0.000273217 3.31892e-18)
(0.000672365 0.000270787 -4.84169e-18)
(2.3011e-05 1.24995e-06 7.35551e-19)
(2.28574e-05 1.32041e-06 7.47476e-20)
(2.29571e-05 1.55265e-06 -1.79482e-19)
(-0.00360858 -0.000315105 8.77263e-18)
(-0.00356263 -0.000671553 9.53679e-18)
(-0.00357322 -0.000367835 1.16327e-17)
(-1.50295e-05 1.29538e-05 -4.47163e-19)
(-1.48191e-05 1.21068e-05 -1.67419e-19)
(-1.54861e-05 6.70103e-06 5.31178e-19)
(-0.00433843 0.00260467 6.15382e-18)
(-0.00420815 0.00219097 1.59024e-17)
(0.000263346 0.00024703 4.27711e-18)
(0.000275774 0.000247978 1.68041e-18)
(-9.31841e-07 -1.67741e-06 -9.75148e-20)
(-1.49468e-06 -2.71374e-06 8.28058e-19)
(-3.67068e-05 0.000215603 -5.37017e-19)
(-4.41276e-05 0.000215555 2.25455e-19)
(-4.03647e-05 0.000213636 -7.87786e-19)
(-0.000128938 0.000279831 -1.64072e-19)
(-0.000124205 0.000271334 9.79622e-19)
(3.79581e-05 -1.31639e-05 -3.41445e-18)
(3.08238e-05 -1.88751e-06 1.46691e-17)
(0.00672063 0.00119038 8.50181e-18)
(0.00598429 0.00158101 -1.90044e-18)
(-7.86481e-05 0.000228373 -4.3579e-19)
(-8.39001e-05 0.00023089 -4.81089e-19)
(-8.47301e-05 0.000226637 8.25484e-19)
(0.000111393 6.57349e-05 2.78506e-18)
(0.000111957 6.59244e-05 -4.57027e-18)
(0.000107307 6.15152e-05 1.17119e-18)
(0.000977106 -0.00292446 -1.46603e-17)
(0.00133584 -0.00231152 -9.78786e-18)
(0.00115089 -0.00300471 -1.79352e-17)
(-0.0110071 0.00498601 4.00916e-18)
(-0.0104957 0.00481879 5.42408e-18)
(-0.000592364 -0.00278041 7.6688e-18)
(-0.000668501 -0.00271462 1.8693e-18)